/*--------------------------------*- C++ -*----------------------------------*\
| =========                 |                                                 |
| \\      /  F ield         | OpenFOAM: The Open Source CFD Toolbox           |
|  \\    /   O peration     | Version:  5.x                                   |
|   \\  /    A nd           | Web:      www.OpenFOAM.org                      |
|    \\/     M anipulation  |                                                 |
\*---------------------------------------------------------------------------*/
FoamFile
{
    version     2.0;
    format      ascii;
    class       volScalarField;
    location    "3";
    object      gradTx;
}
// * * * * * * * * * * * * * * * * * * * * * * * * * * * * * * * * * * * * * //

dimensions      [0 -1 0 1 0 0 0];

internalField   nonuniform List<scalar> 
3200
(
1.37045e-06
-9.21357e-08
-1.64736e-07
-1.67205e-07
-1.3983e-07
-1.36546e-07
-9.73975e-08
-9.42142e-08
-6.83761e-08
-1.04147e-07
-4.77397e-08
-3.37199e-08
-3.23211e-08
-2.44007e-08
-2.36794e-08
-1.81333e-08
-1.7631e-08
-1.36019e-08
-1.32349e-08
-1.02524e-08
-9.97957e-09
-7.74614e-09
-7.54125e-09
-5.85673e-09
-5.70194e-09
-4.42606e-09
-4.30872e-09
-3.34018e-09
-3.25108e-09
-2.51525e-09
-2.44756e-09
-1.88864e-09
-1.83725e-09
-1.41311e-09
-1.37414e-09
-1.05278e-09
-1.02328e-09
-7.8031e-10
-7.58029e-10
-5.7481e-10
-5.58031e-10
-4.20308e-10
-4.07716e-10
-3.04598e-10
-2.9519e-10
-2.1836e-10
-2.11389e-10
-1.54585e-10
-1.49831e-10
-1.1074e-10
-1.67353e-10
-7.55379e-11
-4.97534e-11
-4.71982e-11
-3.18213e-11
-3.04459e-11
-2.00208e-11
-1.9112e-11
-1.22131e-11
-1.16204e-11
-7.21447e-12
-6.84106e-12
-4.13126e-12
-3.90442e-12
-2.29686e-12
-2.1637e-12
-1.24014e-12
-1.16428e-12
-6.47654e-13
-6.05459e-13
-3.22248e-13
-2.98641e-13
-1.34288e-13
-1.20981e-13
-3.20489e-14
-2.6054e-14
-1.69688e-15
-3.11084e-16
-7.04136e-17
1.61106e-14
1.36444e-06
-9.48789e-08
-1.5725e-07
-1.63043e-07
-1.41044e-07
-1.3359e-07
-1.0042e-07
-9.32155e-08
-7.31425e-08
-9.60988e-08
-5.10166e-08
-3.55243e-08
-3.20934e-08
-2.50563e-08
-2.33734e-08
-1.85607e-08
-1.73965e-08
-1.39088e-08
-1.3059e-08
-1.04786e-08
-9.8469e-09
-7.91512e-09
-7.44077e-09
-5.98399e-09
-5.62565e-09
-4.52236e-09
-4.25073e-09
-3.41326e-09
-3.207e-09
-2.57077e-09
-2.41409e-09
-1.93082e-09
-1.81186e-09
-1.44513e-09
-1.35491e-09
-1.07705e-09
-1.00876e-09
-7.98676e-10
-7.47099e-10
-5.88672e-10
-5.4983e-10
-4.30739e-10
-4.01589e-10
-3.12419e-10
-2.9064e-10
-2.2421e-10
-2.08083e-10
-1.59139e-10
-1.4833e-10
-1.18055e-10
-1.54296e-10
-8.0608e-11
-5.28929e-11
-4.66694e-11
-3.30842e-11
-2.98801e-11
-2.08399e-11
-1.8734e-11
-1.27578e-11
-1.13845e-11
-7.56554e-12
-6.70006e-12
-4.34919e-12
-3.82321e-12
-2.42723e-12
-2.11834e-12
-1.31558e-12
-1.13953e-12
-6.9008e-13
-5.92116e-13
-3.45369e-13
-2.90564e-13
-1.47794e-13
-1.16938e-13
-3.99024e-14
-2.59697e-14
-4.1717e-15
-8.87409e-16
-2.03901e-16
1.60668e-14
1.35952e-06
-9.62172e-08
-1.52027e-07
-1.59993e-07
-1.41675e-07
-1.31662e-07
-1.02404e-07
-9.27307e-08
-7.61871e-08
-9.07718e-08
-5.31094e-08
-3.68459e-08
-3.20096e-08
-2.54975e-08
-2.31923e-08
-1.8842e-08
-1.72548e-08
-1.41102e-08
-1.29522e-08
-1.06268e-08
-9.76616e-09
-8.02574e-09
-7.37953e-09
-6.06726e-09
-5.57912e-09
-4.58537e-09
-4.21534e-09
-3.46106e-09
-3.1801e-09
-2.60708e-09
-2.39366e-09
-1.95841e-09
-1.79637e-09
-1.46608e-09
-1.34319e-09
-1.09294e-09
-9.99911e-10
-8.10695e-10
-7.40437e-10
-5.97745e-10
-5.44834e-10
-4.37569e-10
-3.9786e-10
-3.17541e-10
-2.87874e-10
-2.28045e-10
-2.06087e-10
-1.62165e-10
-1.47608e-10
-1.2271e-10
-1.45635e-10
-8.38385e-11
-5.51722e-11
-4.64347e-11
-3.39315e-11
-2.95474e-11
-2.13815e-11
-1.85105e-11
-1.31182e-11
-1.12464e-11
-7.79839e-12
-6.61842e-12
-4.49407e-12
-3.77677e-12
-2.5141e-12
-2.09272e-12
-1.36593e-12
-1.12571e-12
-7.1844e-13
-5.84718e-13
-3.60808e-13
-2.86003e-13
-1.56821e-13
-1.14742e-13
-4.52311e-14
-2.61996e-14
-5.90576e-15
-1.3596e-15
-3.16669e-16
1.60295e-14
1.35606e-06
-9.67983e-08
-1.48716e-07
-1.57993e-07
-1.41973e-07
-1.30502e-07
-1.03603e-07
-9.25197e-08
-7.79855e-08
-8.75338e-08
-5.43455e-08
-3.77098e-08
-3.19925e-08
-2.577e-08
-2.30928e-08
-1.90125e-08
-1.71753e-08
-1.42318e-08
-1.28919e-08
-1.07163e-08
-9.72049e-09
-8.09249e-09
-7.34484e-09
-6.11749e-09
-5.55274e-09
-4.62336e-09
-4.19528e-09
-3.48989e-09
-3.16484e-09
-2.62898e-09
-2.38207e-09
-1.97505e-09
-1.78758e-09
-1.47871e-09
-1.33654e-09
-1.10252e-09
-9.94895e-10
-8.17946e-10
-7.36664e-10
-6.0322e-10
-5.42006e-10
-4.4169e-10
-3.95751e-10
-3.20633e-10
-2.86312e-10
-2.30362e-10
-2.04968e-10
-1.64016e-10
-1.47297e-10
-1.25449e-10
-1.40361e-10
-8.57427e-11
-5.66535e-11
-4.63499e-11
-3.44535e-11
-2.93657e-11
-2.17111e-11
-1.83877e-11
-1.33376e-11
-1.11711e-11
-7.94041e-12
-6.57447e-12
-4.58261e-12
-3.7521e-12
-2.56727e-12
-2.07929e-12
-1.39681e-12
-1.11855e-12
-7.35846e-13
-5.8092e-13
-3.70278e-13
-2.83614e-13
-1.62362e-13
-1.13641e-13
-4.85395e-14
-2.64793e-14
-7.00958e-15
-1.69149e-15
-3.98008e-16
1.60025e-14
1.35428e-06
-9.70019e-08
-1.4711e-07
-1.57003e-07
-1.42087e-07
-1.29958e-07
-1.04168e-07
-9.24452e-08
-7.88194e-08
-8.60042e-08
-5.49187e-08
-3.81362e-08
-3.1995e-08
-2.59002e-08
-2.3049e-08
-1.90929e-08
-1.71397e-08
-1.42892e-08
-1.28648e-08
-1.07584e-08
-9.69996e-09
-8.12389e-09
-7.32923e-09
-6.14112e-09
-5.54086e-09
-4.64123e-09
-4.18624e-09
-3.50345e-09
-3.15797e-09
-2.63928e-09
-2.37685e-09
-1.98288e-09
-1.78362e-09
-1.48465e-09
-1.33355e-09
-1.10702e-09
-9.92636e-10
-8.21356e-10
-7.34966e-10
-6.05795e-10
-5.40734e-10
-4.43629e-10
-3.94802e-10
-3.22089e-10
-2.8561e-10
-2.31453e-10
-2.04468e-10
-1.64893e-10
-1.47189e-10
-1.26717e-10
-1.37868e-10
-8.66244e-11
-5.73822e-11
-4.6328e-11
-3.47026e-11
-2.92861e-11
-2.18669e-11
-1.83337e-11
-1.34414e-11
-1.11382e-11
-8.00769e-12
-6.55545e-12
-4.62461e-12
-3.74153e-12
-2.59253e-12
-2.0736e-12
-1.41148e-12
-1.11555e-12
-7.44127e-13
-5.7934e-13
-3.74781e-13
-2.82602e-13
-1.64997e-13
-1.13193e-13
-5.01248e-14
-2.66546e-14
-7.54692e-15
-1.86221e-15
-4.40538e-16
1.59883e-14
1.35428e-06
-9.70027e-08
-1.4711e-07
-1.57003e-07
-1.42087e-07
-1.29958e-07
-1.04168e-07
-9.24452e-08
-7.88194e-08
-8.60042e-08
-5.49186e-08
-3.81362e-08
-3.1995e-08
-2.59002e-08
-2.3049e-08
-1.90929e-08
-1.71397e-08
-1.42892e-08
-1.28648e-08
-1.07584e-08
-9.69996e-09
-8.12389e-09
-7.32923e-09
-6.14112e-09
-5.54086e-09
-4.64123e-09
-4.18624e-09
-3.50345e-09
-3.15797e-09
-2.63928e-09
-2.37685e-09
-1.98288e-09
-1.78362e-09
-1.48465e-09
-1.33355e-09
-1.10702e-09
-9.92636e-10
-8.21356e-10
-7.34966e-10
-6.05795e-10
-5.40734e-10
-4.43629e-10
-3.94802e-10
-3.22089e-10
-2.8561e-10
-2.31453e-10
-2.04468e-10
-1.64893e-10
-1.47189e-10
-1.26717e-10
-1.37868e-10
-8.66243e-11
-5.73822e-11
-4.63279e-11
-3.47026e-11
-2.92861e-11
-2.18669e-11
-1.83337e-11
-1.34414e-11
-1.11382e-11
-8.00769e-12
-6.55545e-12
-4.62461e-12
-3.74153e-12
-2.59253e-12
-2.0736e-12
-1.41148e-12
-1.11555e-12
-7.44127e-13
-5.7934e-13
-3.74781e-13
-2.82602e-13
-1.64997e-13
-1.13192e-13
-5.01247e-14
-2.66545e-14
-7.54688e-15
-1.86219e-15
-4.40518e-16
1.59883e-14
1.35606e-06
-9.68005e-08
-1.48717e-07
-1.57993e-07
-1.41973e-07
-1.30502e-07
-1.03603e-07
-9.25197e-08
-7.79856e-08
-8.75338e-08
-5.43455e-08
-3.77098e-08
-3.19925e-08
-2.577e-08
-2.30928e-08
-1.90125e-08
-1.71753e-08
-1.42319e-08
-1.28919e-08
-1.07163e-08
-9.72049e-09
-8.09249e-09
-7.34485e-09
-6.11749e-09
-5.55274e-09
-4.62337e-09
-4.19528e-09
-3.48989e-09
-3.16485e-09
-2.62898e-09
-2.38207e-09
-1.97505e-09
-1.78758e-09
-1.47871e-09
-1.33654e-09
-1.10252e-09
-9.94895e-10
-8.17946e-10
-7.36664e-10
-6.0322e-10
-5.42006e-10
-4.4169e-10
-3.95751e-10
-3.20633e-10
-2.86312e-10
-2.30362e-10
-2.04968e-10
-1.64016e-10
-1.47297e-10
-1.25449e-10
-1.40361e-10
-8.57427e-11
-5.66534e-11
-4.63498e-11
-3.44535e-11
-2.93657e-11
-2.1711e-11
-1.83877e-11
-1.33376e-11
-1.11711e-11
-7.9404e-12
-6.57447e-12
-4.58261e-12
-3.75209e-12
-2.56727e-12
-2.07928e-12
-1.39681e-12
-1.11855e-12
-7.35845e-13
-5.80919e-13
-3.70277e-13
-2.83613e-13
-1.62361e-13
-1.1364e-13
-4.85392e-14
-2.64791e-14
-7.00949e-15
-1.69144e-15
-3.97953e-16
1.60025e-14
1.35952e-06
-9.622e-08
-1.52028e-07
-1.59993e-07
-1.41676e-07
-1.31662e-07
-1.02404e-07
-9.27308e-08
-7.61871e-08
-9.07718e-08
-5.31094e-08
-3.68459e-08
-3.20096e-08
-2.54974e-08
-2.31923e-08
-1.8842e-08
-1.72548e-08
-1.41102e-08
-1.29522e-08
-1.06268e-08
-9.76616e-09
-8.02574e-09
-7.37953e-09
-6.06727e-09
-5.57912e-09
-4.58537e-09
-4.21535e-09
-3.46106e-09
-3.1801e-09
-2.60709e-09
-2.39366e-09
-1.95841e-09
-1.79637e-09
-1.46608e-09
-1.34319e-09
-1.09294e-09
-9.99911e-10
-8.10696e-10
-7.40438e-10
-5.97745e-10
-5.44834e-10
-4.37569e-10
-3.9786e-10
-3.17541e-10
-2.87874e-10
-2.28045e-10
-2.06087e-10
-1.62166e-10
-1.47608e-10
-1.2271e-10
-1.45635e-10
-8.38385e-11
-5.51722e-11
-4.64346e-11
-3.39315e-11
-2.95474e-11
-2.13815e-11
-1.85105e-11
-1.31182e-11
-1.12463e-11
-7.79838e-12
-6.61842e-12
-4.49407e-12
-3.77677e-12
-2.51409e-12
-2.09272e-12
-1.36593e-12
-1.12571e-12
-7.18438e-13
-5.84717e-13
-3.60807e-13
-2.86003e-13
-1.56821e-13
-1.14741e-13
-4.52308e-14
-2.61994e-14
-5.90564e-15
-1.35952e-15
-3.16597e-16
1.60295e-14
1.36445e-06
-9.48814e-08
-1.57251e-07
-1.63044e-07
-1.41044e-07
-1.3359e-07
-1.00421e-07
-9.32155e-08
-7.31426e-08
-9.60988e-08
-5.10166e-08
-3.55243e-08
-3.20933e-08
-2.50563e-08
-2.33734e-08
-1.85607e-08
-1.73965e-08
-1.39088e-08
-1.3059e-08
-1.04787e-08
-9.84691e-09
-7.91512e-09
-7.44077e-09
-5.98399e-09
-5.62565e-09
-4.52237e-09
-4.25073e-09
-3.41326e-09
-3.207e-09
-2.57077e-09
-2.41409e-09
-1.93082e-09
-1.81186e-09
-1.44513e-09
-1.35492e-09
-1.07705e-09
-1.00876e-09
-7.98676e-10
-7.47099e-10
-5.88672e-10
-5.4983e-10
-4.30739e-10
-4.0159e-10
-3.12419e-10
-2.9064e-10
-2.2421e-10
-2.08083e-10
-1.59139e-10
-1.48331e-10
-1.18056e-10
-1.54296e-10
-8.0608e-11
-5.28929e-11
-4.66694e-11
-3.30841e-11
-2.98801e-11
-2.08399e-11
-1.87339e-11
-1.27578e-11
-1.13845e-11
-7.56553e-12
-6.70006e-12
-4.34918e-12
-3.82321e-12
-2.42723e-12
-2.11834e-12
-1.31558e-12
-1.13953e-12
-6.90079e-13
-5.92115e-13
-3.45368e-13
-2.90564e-13
-1.47794e-13
-1.16938e-13
-3.99022e-14
-2.59695e-14
-4.1716e-15
-8.87343e-16
-2.03837e-16
1.60668e-14
1.37045e-06
-9.21368e-08
-1.64737e-07
-1.67205e-07
-1.3983e-07
-1.36546e-07
-9.73975e-08
-9.42142e-08
-6.83762e-08
-1.04147e-07
-4.77397e-08
-3.37199e-08
-3.23211e-08
-2.44007e-08
-2.36794e-08
-1.81333e-08
-1.7631e-08
-1.36019e-08
-1.32349e-08
-1.02524e-08
-9.97957e-09
-7.74614e-09
-7.54125e-09
-5.85674e-09
-5.70194e-09
-4.42606e-09
-4.30872e-09
-3.34018e-09
-3.25108e-09
-2.51525e-09
-2.44757e-09
-1.88864e-09
-1.83725e-09
-1.41311e-09
-1.37414e-09
-1.05278e-09
-1.02328e-09
-7.8031e-10
-7.58029e-10
-5.7481e-10
-5.58031e-10
-4.20309e-10
-4.07717e-10
-3.04598e-10
-2.9519e-10
-2.1836e-10
-2.11389e-10
-1.54585e-10
-1.49831e-10
-1.1074e-10
-1.67353e-10
-7.55379e-11
-4.97534e-11
-4.71982e-11
-3.18213e-11
-3.04459e-11
-2.00208e-11
-1.9112e-11
-1.22131e-11
-1.16204e-11
-7.21447e-12
-6.84106e-12
-4.13126e-12
-3.90442e-12
-2.29686e-12
-2.1637e-12
-1.24014e-12
-1.16428e-12
-6.47653e-13
-6.05459e-13
-3.22247e-13
-2.98641e-13
-1.34288e-13
-1.20981e-13
-3.20489e-14
-2.60539e-14
-1.69684e-15
-3.11058e-16
-7.03868e-17
1.61106e-14
0.000262615
-0.000233144
-1.8503e-05
-7.91738e-06
-1.30244e-06
-6.6498e-07
-1.6595e-07
-1.15936e-07
-7.5393e-08
-1.1929e-07
-6.03729e-08
-5.03347e-08
-4.9158e-08
-4.21733e-08
-4.14613e-08
-3.51221e-08
-3.4499e-08
-2.89031e-08
-2.83612e-08
-2.35655e-08
-2.31055e-08
-1.90831e-08
-1.86997e-08
-1.53769e-08
-1.50617e-08
-1.2346e-08
-1.20892e-08
-9.88656e-09
-9.67875e-09
-7.90173e-09
-7.73434e-09
-6.3061e-09
-6.17171e-09
-5.02688e-09
-4.91925e-09
-4.00336e-09
-3.9173e-09
-3.18565e-09
-3.11694e-09
-2.53317e-09
-2.47837e-09
-2.01314e-09
-1.96949e-09
-1.59919e-09
-1.56448e-09
-1.27023e-09
-1.24285e-09
-1.0102e-09
-9.91949e-10
-8.31026e-10
-1.34614e-09
-6.62237e-10
-5.17134e-10
-5.01812e-10
-4.10901e-10
-4.023e-10
-3.32123e-10
-3.25603e-10
-2.71198e-10
-2.66164e-10
-2.2424e-10
-2.20372e-10
-1.88288e-10
-1.85322e-10
-1.60762e-10
-1.58352e-10
-1.36996e-10
-1.34655e-10
-1.11262e-10
-1.08748e-10
-8.37682e-11
-8.13759e-11
-6.07589e-11
-5.80018e-11
-2.55255e-11
-2.27664e-11
-1.38801e-12
-2.47434e-13
-5.5762e-14
-4.02744e-12
0.000256983
-0.000205728
-3.51084e-05
-1.1355e-05
-2.62455e-06
-9.45746e-07
-2.71306e-07
-1.3885e-07
-8.7244e-08
-1.11639e-07
-6.43764e-08
-5.18864e-08
-4.89432e-08
-4.2719e-08
-4.10591e-08
-3.558e-08
-3.41385e-08
-2.93092e-08
-2.80558e-08
-2.3916e-08
-2.28519e-08
-1.93786e-08
-1.84918e-08
-1.5622e-08
-1.48926e-08
-1.25468e-08
-1.19526e-08
-1.00497e-08
-9.56886e-09
-8.03354e-09
-7.64618e-09
-6.41214e-09
-6.10115e-09
-5.11193e-09
-4.86285e-09
-4.07143e-09
-3.87229e-09
-3.24005e-09
-3.08104e-09
-2.57659e-09
-2.44978e-09
-2.04776e-09
-1.94675e-09
-1.62676e-09
-1.54645e-09
-1.29226e-09
-1.22901e-09
-1.02957e-09
-9.89115e-10
-8.81423e-10
-1.23901e-09
-7.02406e-10
-5.36636e-10
-4.98886e-10
-4.18234e-10
-3.98186e-10
-3.37417e-10
-3.22319e-10
-2.75289e-10
-2.63637e-10
-2.27398e-10
-2.18445e-10
-1.90704e-10
-1.83837e-10
-1.62553e-10
-1.56967e-10
-1.38435e-10
-1.33014e-10
-1.12831e-10
-1.07023e-10
-8.55589e-11
-8.00145e-11
-6.1947e-11
-5.55791e-11
-2.79641e-11
-2.16203e-11
-3.35448e-12
-7.04323e-13
-1.61432e-13
-4.06286e-12
0.000252374
-0.00018616
-4.5839e-05
-1.41915e-05
-3.66451e-06
-1.18629e-06
-3.54963e-07
-1.58522e-07
-9.60518e-08
-1.06852e-07
-6.69882e-08
-5.30558e-08
-4.88593e-08
-4.30819e-08
-4.08094e-08
-3.58762e-08
-3.39133e-08
-2.95721e-08
-2.78656e-08
-2.41434e-08
-2.26945e-08
-1.95706e-08
-1.83631e-08
-1.57813e-08
-1.47881e-08
-1.26775e-08
-1.18683e-08
-1.0156e-08
-9.50108e-09
-8.11937e-09
-7.59184e-09
-6.4812e-09
-6.05767e-09
-5.16734e-09
-4.82812e-09
-4.11579e-09
-3.84457e-09
-3.2755e-09
-3.05894e-09
-2.60489e-09
-2.43219e-09
-2.07032e-09
-1.93276e-09
-1.64474e-09
-1.53537e-09
-1.30665e-09
-1.22061e-09
-1.04258e-09
-9.88963e-10
-9.13203e-10
-1.16764e-09
-7.27737e-10
-5.51012e-10
-4.97672e-10
-4.23139e-10
-3.95698e-10
-3.4088e-10
-3.2031e-10
-2.77963e-10
-2.62092e-10
-2.29463e-10
-2.17268e-10
-1.92284e-10
-1.82927e-10
-1.63714e-10
-1.56099e-10
-1.39348e-10
-1.31963e-10
-1.13825e-10
-1.05923e-10
-8.67122e-11
-7.91534e-11
-6.26667e-11
-5.40059e-11
-2.95515e-11
-2.09508e-11
-4.69621e-12
-1.07686e-12
-2.50631e-13
-4.09297e-12
0.000249139
-0.000173579
-5.22223e-05
-1.61829e-05
-4.38238e-06
-1.3609e-06
-4.13194e-07
-1.72823e-07
-1.01924e-07
-1.0409e-07
-6.85616e-08
-5.38348e-08
-4.88379e-08
-4.33039e-08
-4.06656e-08
-3.60532e-08
-3.37827e-08
-2.97292e-08
-2.77558e-08
-2.42795e-08
-2.26038e-08
-1.96857e-08
-1.8289e-08
-1.58769e-08
-1.47282e-08
-1.27559e-08
-1.182e-08
-1.02197e-08
-9.46225e-09
-8.17093e-09
-7.56074e-09
-6.5227e-09
-6.0328e-09
-5.20064e-09
-4.80825e-09
-4.14244e-09
-3.82871e-09
-3.29681e-09
-3.04631e-09
-2.6219e-09
-2.42213e-09
-2.08388e-09
-1.92476e-09
-1.65555e-09
-1.52903e-09
-1.31531e-09
-1.21587e-09
-1.0506e-09
-9.89684e-10
-9.31763e-10
-1.12403e-09
-7.4253e-10
-5.60445e-10
-4.97299e-10
-4.26155e-10
-3.943e-10
-3.4297e-10
-3.19168e-10
-2.79574e-10
-2.61215e-10
-2.30708e-10
-2.166e-10
-1.93236e-10
-1.82409e-10
-1.6441e-10
-1.55594e-10
-1.39885e-10
-1.3134e-10
-1.14408e-10
-1.05275e-10
-8.73984e-11
-7.86485e-11
-6.30726e-11
-5.30639e-11
-3.05044e-11
-2.05871e-11
-5.53236e-12
-1.33757e-12
-3.14919e-13
-4.11481e-12
0.000247477
-0.000167426
-5.51926e-05
-1.72045e-05
-4.74891e-06
-1.45246e-06
-4.43094e-07
-1.8033e-07
-1.04867e-07
-1.02833e-07
-6.93014e-08
-5.42236e-08
-4.88372e-08
-4.34095e-08
-4.06001e-08
-3.61359e-08
-3.3723e-08
-2.98027e-08
-2.77057e-08
-2.43432e-08
-2.25625e-08
-1.97396e-08
-1.82554e-08
-1.59217e-08
-1.47009e-08
-1.27927e-08
-1.1798e-08
-1.02497e-08
-9.44464e-09
-8.19512e-09
-7.54663e-09
-6.54217e-09
-6.02152e-09
-5.21626e-09
-4.79924e-09
-4.15495e-09
-3.82153e-09
-3.30681e-09
-3.04058e-09
-2.62988e-09
-2.41757e-09
-2.09025e-09
-1.92114e-09
-1.66062e-09
-1.52617e-09
-1.31938e-09
-1.21374e-09
-1.05442e-09
-9.90269e-10
-9.40301e-10
-1.10336e-09
-7.49336e-10
-5.6511e-10
-4.97238e-10
-4.27592e-10
-3.93675e-10
-3.43953e-10
-3.18653e-10
-2.80331e-10
-2.60819e-10
-2.31294e-10
-2.16299e-10
-1.93684e-10
-1.82175e-10
-1.64735e-10
-1.55362e-10
-1.40134e-10
-1.3105e-10
-1.14676e-10
-1.04974e-10
-8.7718e-11
-7.84155e-11
-6.32548e-11
-5.26231e-11
-3.0951e-11
-2.04286e-11
-5.93387e-12
-1.47129e-12
-3.48519e-13
-4.12628e-12
0.000247477
-0.000167426
-5.51926e-05
-1.72045e-05
-4.7489e-06
-1.45246e-06
-4.4309e-07
-1.80328e-07
-1.04866e-07
-1.02833e-07
-6.93013e-08
-5.42236e-08
-4.88372e-08
-4.34095e-08
-4.06001e-08
-3.61359e-08
-3.3723e-08
-2.98027e-08
-2.77057e-08
-2.43432e-08
-2.25625e-08
-1.97396e-08
-1.82554e-08
-1.59217e-08
-1.47009e-08
-1.27927e-08
-1.1798e-08
-1.02497e-08
-9.44464e-09
-8.19512e-09
-7.54663e-09
-6.54217e-09
-6.02152e-09
-5.21626e-09
-4.79924e-09
-4.15495e-09
-3.82153e-09
-3.30681e-09
-3.04058e-09
-2.62988e-09
-2.41757e-09
-2.09025e-09
-1.92114e-09
-1.66062e-09
-1.52617e-09
-1.31938e-09
-1.21374e-09
-1.05442e-09
-9.90269e-10
-9.40301e-10
-1.10336e-09
-7.49336e-10
-5.6511e-10
-4.97238e-10
-4.27592e-10
-3.93675e-10
-3.43953e-10
-3.18653e-10
-2.80331e-10
-2.60819e-10
-2.31294e-10
-2.16299e-10
-1.93684e-10
-1.82175e-10
-1.64735e-10
-1.55362e-10
-1.40134e-10
-1.3105e-10
-1.14676e-10
-1.04974e-10
-8.7718e-11
-7.84155e-11
-6.32548e-11
-5.26231e-11
-3.0951e-11
-2.04286e-11
-5.93386e-12
-1.47128e-12
-3.48517e-13
-4.12627e-12
0.000249139
-0.000173579
-5.22223e-05
-1.61829e-05
-4.38234e-06
-1.36087e-06
-4.13183e-07
-1.72818e-07
-1.01922e-07
-1.04089e-07
-6.85614e-08
-5.38348e-08
-4.88379e-08
-4.33039e-08
-4.06656e-08
-3.60532e-08
-3.37828e-08
-2.97292e-08
-2.77558e-08
-2.42795e-08
-2.26038e-08
-1.96857e-08
-1.82891e-08
-1.58769e-08
-1.47282e-08
-1.27559e-08
-1.182e-08
-1.02197e-08
-9.46226e-09
-8.17094e-09
-7.56074e-09
-6.5227e-09
-6.0328e-09
-5.20064e-09
-4.80825e-09
-4.14245e-09
-3.82871e-09
-3.29681e-09
-3.04631e-09
-2.6219e-09
-2.42213e-09
-2.08388e-09
-1.92476e-09
-1.65555e-09
-1.52904e-09
-1.31531e-09
-1.21587e-09
-1.0506e-09
-9.89684e-10
-9.31764e-10
-1.12403e-09
-7.4253e-10
-5.60445e-10
-4.97299e-10
-4.26155e-10
-3.943e-10
-3.4297e-10
-3.19168e-10
-2.79574e-10
-2.61215e-10
-2.30708e-10
-2.166e-10
-1.93236e-10
-1.82409e-10
-1.6441e-10
-1.55594e-10
-1.39885e-10
-1.3134e-10
-1.14408e-10
-1.05275e-10
-8.73984e-11
-7.86485e-11
-6.30726e-11
-5.30638e-11
-3.05043e-11
-2.05871e-11
-5.53232e-12
-1.33755e-12
-3.14911e-13
-4.11479e-12
0.000252374
-0.00018616
-4.5839e-05
-1.41914e-05
-3.66446e-06
-1.18626e-06
-3.54949e-07
-1.58516e-07
-9.60494e-08
-1.06851e-07
-6.6988e-08
-5.30557e-08
-4.88593e-08
-4.30819e-08
-4.08094e-08
-3.58763e-08
-3.39133e-08
-2.95721e-08
-2.78657e-08
-2.41434e-08
-2.26945e-08
-1.95706e-08
-1.83631e-08
-1.57813e-08
-1.47882e-08
-1.26775e-08
-1.18683e-08
-1.0156e-08
-9.50108e-09
-8.11938e-09
-7.59185e-09
-6.48121e-09
-6.05768e-09
-5.16734e-09
-4.82812e-09
-4.11579e-09
-3.84457e-09
-3.2755e-09
-3.05895e-09
-2.60489e-09
-2.43219e-09
-2.07032e-09
-1.93276e-09
-1.64474e-09
-1.53537e-09
-1.30665e-09
-1.22061e-09
-1.04258e-09
-9.88964e-10
-9.13204e-10
-1.16764e-09
-7.27737e-10
-5.51012e-10
-4.97672e-10
-4.2314e-10
-3.95698e-10
-3.40881e-10
-3.2031e-10
-2.77963e-10
-2.62093e-10
-2.29464e-10
-2.17268e-10
-1.92284e-10
-1.82927e-10
-1.63714e-10
-1.56099e-10
-1.39349e-10
-1.31963e-10
-1.13825e-10
-1.05923e-10
-8.67123e-11
-7.91534e-11
-6.26667e-11
-5.40059e-11
-2.95515e-11
-2.09507e-11
-4.69616e-12
-1.07682e-12
-2.50622e-13
-4.09295e-12
0.000256983
-0.000205728
-3.51084e-05
-1.13549e-05
-2.62451e-06
-9.45722e-07
-2.71294e-07
-1.38845e-07
-8.7242e-08
-1.11638e-07
-6.43762e-08
-5.18864e-08
-4.89432e-08
-4.27191e-08
-4.10591e-08
-3.55801e-08
-3.41385e-08
-2.93092e-08
-2.80558e-08
-2.39161e-08
-2.28519e-08
-1.93787e-08
-1.84918e-08
-1.5622e-08
-1.48926e-08
-1.25468e-08
-1.19526e-08
-1.00497e-08
-9.56887e-09
-8.03355e-09
-7.64619e-09
-6.41214e-09
-6.10116e-09
-5.11194e-09
-4.86286e-09
-4.07144e-09
-3.87229e-09
-3.24005e-09
-3.08104e-09
-2.57659e-09
-2.44979e-09
-2.04776e-09
-1.94676e-09
-1.62677e-09
-1.54645e-09
-1.29227e-09
-1.22901e-09
-1.02957e-09
-9.89116e-10
-8.81424e-10
-1.23901e-09
-7.02407e-10
-5.36636e-10
-4.98886e-10
-4.18234e-10
-3.98187e-10
-3.37417e-10
-3.2232e-10
-2.75289e-10
-2.63638e-10
-2.27398e-10
-2.18445e-10
-1.90704e-10
-1.83837e-10
-1.62553e-10
-1.56967e-10
-1.38435e-10
-1.33014e-10
-1.12832e-10
-1.07023e-10
-8.5559e-11
-8.00145e-11
-6.1947e-11
-5.55791e-11
-2.79641e-11
-2.16202e-11
-3.35444e-12
-7.04293e-13
-1.61424e-13
-4.06285e-12
0.000262615
-0.000233145
-1.8503e-05
-7.91737e-06
-1.30242e-06
-6.6497e-07
-1.65945e-07
-1.15934e-07
-7.53922e-08
-1.1929e-07
-6.03728e-08
-5.03347e-08
-4.9158e-08
-4.21733e-08
-4.14613e-08
-3.51221e-08
-3.44991e-08
-2.89031e-08
-2.83612e-08
-2.35655e-08
-2.31055e-08
-1.90831e-08
-1.86998e-08
-1.53769e-08
-1.50617e-08
-1.2346e-08
-1.20892e-08
-9.88657e-09
-9.67875e-09
-7.90173e-09
-7.73434e-09
-6.3061e-09
-6.17172e-09
-5.02688e-09
-4.91925e-09
-4.00336e-09
-3.9173e-09
-3.18565e-09
-3.11694e-09
-2.53317e-09
-2.47837e-09
-2.01314e-09
-1.96949e-09
-1.59919e-09
-1.56449e-09
-1.27023e-09
-1.24285e-09
-1.0102e-09
-9.9195e-10
-8.31026e-10
-1.34614e-09
-6.62238e-10
-5.17134e-10
-5.01813e-10
-4.10902e-10
-4.023e-10
-3.32123e-10
-3.25604e-10
-2.71198e-10
-2.66164e-10
-2.2424e-10
-2.20372e-10
-1.88288e-10
-1.85323e-10
-1.60762e-10
-1.58353e-10
-1.36996e-10
-1.34655e-10
-1.11262e-10
-1.08748e-10
-8.37682e-11
-8.13759e-11
-6.07589e-11
-5.80018e-11
-2.55255e-11
-2.27664e-11
-1.388e-12
-2.47422e-13
-5.57595e-14
-4.02743e-12
0.000262707
-0.000233236
-1.85137e-05
-7.92386e-06
-1.30246e-06
-6.64538e-07
-1.64947e-07
-1.14886e-07
-7.43167e-08
-1.17421e-07
-5.93881e-08
-4.9492e-08
-4.83321e-08
-4.14544e-08
-4.07534e-08
-3.45146e-08
-3.39016e-08
-2.83964e-08
-2.78633e-08
-2.3147e-08
-2.26946e-08
-1.87401e-08
-1.83633e-08
-1.50974e-08
-1.47876e-08
-1.21193e-08
-1.1867e-08
-9.70336e-09
-9.49925e-09
-7.75411e-09
-7.58974e-09
-6.18746e-09
-6.05553e-09
-4.93174e-09
-4.82609e-09
-3.92722e-09
-3.84276e-09
-3.12482e-09
-3.0574e-09
-2.48466e-09
-2.43091e-09
-1.97451e-09
-1.9317e-09
-1.56848e-09
-1.53444e-09
-1.24583e-09
-1.21898e-09
-9.90804e-10
-9.7291e-10
-8.15095e-10
-1.32035e-09
-6.49567e-10
-5.07264e-10
-4.92238e-10
-4.03086e-10
-3.94651e-10
-3.25834e-10
-3.19441e-10
-2.66094e-10
-2.61159e-10
-2.20058e-10
-2.16267e-10
-1.84826e-10
-1.81921e-10
-1.57872e-10
-1.55514e-10
-1.34627e-10
-1.32335e-10
-1.09422e-10
-1.06957e-10
-8.24298e-11
-8.00812e-11
-5.98464e-11
-5.71347e-11
-2.51477e-11
-2.243e-11
-1.36748e-12
-2.43771e-13
-5.49365e-14
-3.96618e-12
0.000257073
-0.000205809
-3.51252e-05
-1.13624e-05
-2.6254e-06
-9.45459e-07
-2.70388e-07
-1.3781e-07
-8.61179e-08
-1.09924e-07
-6.33386e-08
-5.10228e-08
-4.81213e-08
-4.1992e-08
-4.03577e-08
-3.49654e-08
-3.3547e-08
-2.8796e-08
-2.7563e-08
-2.34918e-08
-2.24454e-08
-1.90307e-08
-1.81589e-08
-1.53383e-08
-1.46216e-08
-1.23166e-08
-1.17329e-08
-9.86366e-09
-9.39134e-09
-7.88357e-09
-7.5032e-09
-6.29158e-09
-5.98627e-09
-5.01523e-09
-4.77075e-09
-3.99403e-09
-3.7986e-09
-3.17821e-09
-3.02219e-09
-2.52727e-09
-2.40286e-09
-2.00848e-09
-1.9094e-09
-1.59553e-09
-1.51675e-09
-1.26744e-09
-1.20541e-09
-1.00981e-09
-9.70132e-10
-8.64526e-10
-1.21528e-09
-6.88967e-10
-5.2639e-10
-4.89369e-10
-4.10277e-10
-3.90617e-10
-3.31025e-10
-3.16221e-10
-2.70106e-10
-2.58682e-10
-2.23155e-10
-2.14379e-10
-1.87194e-10
-1.80467e-10
-1.59626e-10
-1.54159e-10
-1.36033e-10
-1.30727e-10
-1.10958e-10
-1.05262e-10
-8.41879e-11
-7.87447e-11
-6.10102e-11
-5.47469e-11
-2.75491e-11
-2.13005e-11
-3.30483e-12
-6.93896e-13
-1.59042e-13
-4.00108e-12
0.000252463
-0.000186233
-4.58597e-05
-1.41997e-05
-3.66596e-06
-1.18614e-06
-3.5411e-07
-1.5749e-07
-9.48959e-08
-1.05241e-07
-6.59175e-08
-5.21765e-08
-4.80392e-08
-4.23494e-08
-4.0112e-08
-3.5257e-08
-3.33254e-08
-2.90546e-08
-2.73761e-08
-2.37154e-08
-2.22907e-08
-1.92195e-08
-1.80324e-08
-1.54949e-08
-1.45189e-08
-1.2445e-08
-1.16501e-08
-9.96801e-09
-9.32479e-09
-7.96787e-09
-7.44986e-09
-6.35939e-09
-5.9436e-09
-5.06963e-09
-4.73667e-09
-4.03756e-09
-3.7714e-09
-3.213e-09
-3.00051e-09
-2.55503e-09
-2.3856e-09
-2.03061e-09
-1.89568e-09
-1.61316e-09
-1.50588e-09
-1.28155e-09
-1.19716e-09
-1.02256e-09
-9.69984e-10
-8.95696e-10
-1.14527e-09
-7.13812e-10
-5.4049e-10
-4.88178e-10
-4.15087e-10
-3.88177e-10
-3.34422e-10
-3.14251e-10
-2.72728e-10
-2.57168e-10
-2.2518e-10
-2.13226e-10
-1.88743e-10
-1.79577e-10
-1.60764e-10
-1.5331e-10
-1.36926e-10
-1.29696e-10
-1.1193e-10
-1.04181e-10
-8.53202e-11
-7.78994e-11
-6.17146e-11
-5.31961e-11
-2.91123e-11
-2.06406e-11
-4.62669e-12
-1.06092e-12
-2.4692e-13
-4.03074e-12
0.000249226
-0.000173648
-5.22454e-05
-1.61918e-05
-4.38424e-06
-1.36084e-06
-4.12384e-07
-1.71797e-07
-1.00751e-07
-1.02542e-07
-6.74719e-08
-5.29452e-08
-4.80186e-08
-4.25682e-08
-3.99706e-08
-3.54311e-08
-3.3197e-08
-2.92092e-08
-2.72681e-08
-2.38493e-08
-2.22016e-08
-1.93326e-08
-1.79597e-08
-1.55889e-08
-1.446e-08
-1.25221e-08
-1.16026e-08
-1.00307e-08
-9.28667e-09
-8.01851e-09
-7.41932e-09
-6.40014e-09
-5.91918e-09
-5.10231e-09
-4.71717e-09
-4.06373e-09
-3.75584e-09
-3.23391e-09
-2.98812e-09
-2.57172e-09
-2.37573e-09
-2.04392e-09
-1.88783e-09
-1.62376e-09
-1.49967e-09
-1.29005e-09
-1.19252e-09
-1.03043e-09
-9.70692e-10
-9.13901e-10
-1.1025e-09
-7.28323e-10
-5.49741e-10
-4.87813e-10
-4.18045e-10
-3.86806e-10
-3.36471e-10
-3.13131e-10
-2.74308e-10
-2.56307e-10
-2.264e-10
-2.12572e-10
-1.89676e-10
-1.7907e-10
-1.61445e-10
-1.52817e-10
-1.37451e-10
-1.29086e-10
-1.125e-10
-1.03544e-10
-8.59938e-11
-7.74037e-11
-6.21117e-11
-5.22674e-11
-3.00505e-11
-2.02822e-11
-5.45044e-12
-1.31777e-12
-3.10256e-13
-4.05226e-12
0.000247563
-0.000167492
-5.52167e-05
-1.72137e-05
-4.75098e-06
-1.45246e-06
-4.42307e-07
-1.79306e-07
-1.03687e-07
-1.01315e-07
-6.8203e-08
-5.33289e-08
-4.80181e-08
-4.26722e-08
-3.99062e-08
-3.55126e-08
-3.31383e-08
-2.92815e-08
-2.72188e-08
-2.39119e-08
-2.2161e-08
-1.93856e-08
-1.79266e-08
-1.56329e-08
-1.44333e-08
-1.25582e-08
-1.15811e-08
-1.00601e-08
-9.26937e-09
-8.04227e-09
-7.40548e-09
-6.41926e-09
-5.90811e-09
-5.11765e-09
-4.70833e-09
-4.07601e-09
-3.74879e-09
-3.24372e-09
-2.9825e-09
-2.57955e-09
-2.37126e-09
-2.05016e-09
-1.88428e-09
-1.62874e-09
-1.49686e-09
-1.29404e-09
-1.19043e-09
-1.03418e-09
-9.71266e-10
-9.22275e-10
-1.08223e-09
-7.34998e-10
-5.54317e-10
-4.87753e-10
-4.19454e-10
-3.86193e-10
-3.37435e-10
-3.12626e-10
-2.75051e-10
-2.55919e-10
-2.26974e-10
-2.12277e-10
-1.90115e-10
-1.78841e-10
-1.61764e-10
-1.52591e-10
-1.37693e-10
-1.28802e-10
-1.12763e-10
-1.03248e-10
-8.63076e-11
-7.71749e-11
-6.22898e-11
-5.18328e-11
-3.04902e-11
-2.0126e-11
-5.84601e-12
-1.4495e-12
-3.4336e-13
-4.06356e-12
0.000247563
-0.000167492
-5.52167e-05
-1.72137e-05
-4.75097e-06
-1.45245e-06
-4.42302e-07
-1.79305e-07
-1.03686e-07
-1.01315e-07
-6.82029e-08
-5.33288e-08
-4.80181e-08
-4.26722e-08
-3.99062e-08
-3.55126e-08
-3.31383e-08
-2.92815e-08
-2.72188e-08
-2.39119e-08
-2.2161e-08
-1.93856e-08
-1.79266e-08
-1.56329e-08
-1.44333e-08
-1.25582e-08
-1.15811e-08
-1.00601e-08
-9.26937e-09
-8.04227e-09
-7.40548e-09
-6.41926e-09
-5.90811e-09
-5.11765e-09
-4.70833e-09
-4.07601e-09
-3.7488e-09
-3.24372e-09
-2.9825e-09
-2.57955e-09
-2.37126e-09
-2.05016e-09
-1.88428e-09
-1.62874e-09
-1.49686e-09
-1.29404e-09
-1.19043e-09
-1.03418e-09
-9.71266e-10
-9.22275e-10
-1.08223e-09
-7.34998e-10
-5.54317e-10
-4.87753e-10
-4.19454e-10
-3.86193e-10
-3.37435e-10
-3.12626e-10
-2.75051e-10
-2.55919e-10
-2.26974e-10
-2.12277e-10
-1.90115e-10
-1.78841e-10
-1.61764e-10
-1.52591e-10
-1.37693e-10
-1.28802e-10
-1.12763e-10
-1.03248e-10
-8.63076e-11
-7.71749e-11
-6.22898e-11
-5.18328e-11
-3.04902e-11
-2.0126e-11
-5.84599e-12
-1.44949e-12
-3.43357e-13
-4.06356e-12
0.000249226
-0.000173648
-5.22454e-05
-1.61917e-05
-4.3842e-06
-1.36082e-06
-4.12373e-07
-1.71792e-07
-1.00749e-07
-1.02542e-07
-6.74717e-08
-5.29451e-08
-4.80186e-08
-4.25682e-08
-3.99706e-08
-3.54312e-08
-3.31971e-08
-2.92092e-08
-2.72681e-08
-2.38493e-08
-2.22016e-08
-1.93326e-08
-1.79597e-08
-1.55889e-08
-1.446e-08
-1.25221e-08
-1.16026e-08
-1.00307e-08
-9.28667e-09
-8.01851e-09
-7.41933e-09
-6.40014e-09
-5.91919e-09
-5.10232e-09
-4.71717e-09
-4.06373e-09
-3.75585e-09
-3.23391e-09
-2.98812e-09
-2.57172e-09
-2.37573e-09
-2.04392e-09
-1.88783e-09
-1.62376e-09
-1.49967e-09
-1.29005e-09
-1.19252e-09
-1.03043e-09
-9.70692e-10
-9.13901e-10
-1.1025e-09
-7.28323e-10
-5.49741e-10
-4.87813e-10
-4.18045e-10
-3.86806e-10
-3.36471e-10
-3.13131e-10
-2.74308e-10
-2.56307e-10
-2.26401e-10
-2.12572e-10
-1.89676e-10
-1.7907e-10
-1.61445e-10
-1.52817e-10
-1.37451e-10
-1.29086e-10
-1.125e-10
-1.03544e-10
-8.59938e-11
-7.74037e-11
-6.21116e-11
-5.22673e-11
-3.00504e-11
-2.02822e-11
-5.4504e-12
-1.31774e-12
-3.10249e-13
-4.05225e-12
0.000252463
-0.000186234
-4.58597e-05
-1.41997e-05
-3.66592e-06
-1.18611e-06
-3.54095e-07
-1.57484e-07
-9.48935e-08
-1.0524e-07
-6.59172e-08
-5.21764e-08
-4.80392e-08
-4.23494e-08
-4.01121e-08
-3.5257e-08
-3.33254e-08
-2.90546e-08
-2.73761e-08
-2.37154e-08
-2.22907e-08
-1.92195e-08
-1.80324e-08
-1.54949e-08
-1.45189e-08
-1.2445e-08
-1.16501e-08
-9.96802e-09
-9.32479e-09
-7.96787e-09
-7.44986e-09
-6.3594e-09
-5.9436e-09
-5.06963e-09
-4.73667e-09
-4.03757e-09
-3.7714e-09
-3.213e-09
-3.00051e-09
-2.55503e-09
-2.3856e-09
-2.03061e-09
-1.89568e-09
-1.61316e-09
-1.50588e-09
-1.28156e-09
-1.19716e-09
-1.02257e-09
-9.69985e-10
-8.95697e-10
-1.14527e-09
-7.13812e-10
-5.4049e-10
-4.88178e-10
-4.15087e-10
-3.88177e-10
-3.34422e-10
-3.14251e-10
-2.72728e-10
-2.57168e-10
-2.2518e-10
-2.13226e-10
-1.88743e-10
-1.79577e-10
-1.60764e-10
-1.53311e-10
-1.36926e-10
-1.29697e-10
-1.1193e-10
-1.04181e-10
-8.53202e-11
-7.78994e-11
-6.17146e-11
-5.31961e-11
-2.91122e-11
-2.06406e-11
-4.62664e-12
-1.06088e-12
-2.46911e-13
-4.03072e-12
0.000257073
-0.000205809
-3.51252e-05
-1.13623e-05
-2.62536e-06
-9.45435e-07
-2.70376e-07
-1.37804e-07
-8.61158e-08
-1.09923e-07
-6.33384e-08
-5.10227e-08
-4.81213e-08
-4.1992e-08
-4.03577e-08
-3.49654e-08
-3.3547e-08
-2.8796e-08
-2.7563e-08
-2.34918e-08
-2.24454e-08
-1.90307e-08
-1.81589e-08
-1.53383e-08