/*--------------------------------*- C++ -*----------------------------------*\
| =========                 |                                                 |
| \\      /  F ield         | OpenFOAM: The Open Source CFD Toolbox           |
|  \\    /   O peration     | Version:  5.x                                   |
|   \\  /    A nd           | Web:      www.OpenFOAM.org                      |
|    \\/     M anipulation  |                                                 |
\*---------------------------------------------------------------------------*/
FoamFile
{
    version     2.0;
    format      ascii;
    class       volScalarField;
    location    "3";
    object      gradTy;
}
// * * * * * * * * * * * * * * * * * * * * * * * * * * * * * * * * * * * * * //

dimensions      [0 -1 0 1 0 0 0];

internalField   nonuniform List<scalar> 
3200
(
-1.0914e-07
4.67374e-08
-1.48717e-07
1.35621e-07
-1.01139e-07
1.18663e-07
-6.44086e-08
8.12385e-08
-4.98916e-08
2.1252e-08
4.90228e-08
-1.99947e-08
2.84543e-08
-1.64139e-08
2.04586e-08
-1.23887e-08
1.51757e-08
-9.33893e-09
1.13736e-08
-7.05667e-09
8.56932e-09
-5.33799e-09
6.47369e-09
-4.03738e-09
4.89509e-09
-3.05033e-09
3.70026e-09
-2.30028e-09
2.79353e-09
-1.73021e-09
2.10468e-09
-1.29723e-09
1.58135e-09
-9.68793e-10
1.18409e-09
-7.20122e-10
8.82961e-10
-5.32285e-10
6.55152e-10
-3.90805e-10
4.8324e-10
-2.8461e-10
3.53901e-10
-2.0524e-10
2.56946e-10
-1.46264e-10
1.84481e-10
-1.03237e-10
1.28533e-10
-8.13707e-11
3.62321e-11
7.88839e-11
-2.76765e-11
4.28421e-11
-1.98248e-11
2.74124e-11
-1.2357e-11
1.73172e-11
-7.37846e-12
1.06093e-11
-4.25686e-12
6.29201e-12
-2.37968e-12
3.61609e-12
-1.29151e-12
2.01744e-12
-6.79895e-13
1.09351e-12
-3.44266e-13
5.74344e-13
-1.62635e-13
2.91205e-13
-5.3721e-14
1.25937e-13
1.8277e-15
3.08139e-14
6.34266e-15
1.47097e-15
3.502e-16
9.93934e-17
-7.95767e-08
2.49413e-08
-9.99839e-08
8.84876e-08
-6.39272e-08
7.92619e-08
-3.95071e-08
5.42291e-08
-3.20898e-08
1.51744e-08
3.4785e-08
-1.16738e-08
1.91553e-08
-1.01167e-08
1.36717e-08
-7.68119e-09
1.01284e-08
-5.80059e-09
7.587e-09
-4.38686e-09
5.71489e-09
-3.31981e-09
4.31689e-09
-2.51123e-09
3.26424e-09
-1.89711e-09
2.46769e-09
-1.43025e-09
1.86328e-09
-1.07537e-09
1.40411e-09
-8.0583e-10
1.05525e-09
-6.01409e-10
7.90403e-10
-4.46676e-10
5.89617e-10
-3.2984e-10
4.3769e-10
-2.41881e-10
3.23015e-10
-1.75897e-10
2.36715e-10
-1.26616e-10
1.71997e-10
-9.00394e-11
1.23576e-10
-6.35321e-11
8.56747e-11
-5.24187e-11
2.58244e-11
5.61706e-11
-1.56789e-11
2.90766e-11
-1.18611e-11
1.85256e-11
-7.36887e-12
1.17218e-11
-4.36138e-12
7.19648e-12
-2.49098e-12
4.2769e-12
-1.37779e-12
2.46283e-12
-7.39549e-13
1.37664e-12
-3.84665e-13
7.47674e-13
-1.91804e-13
3.93744e-13
-8.80989e-14
2.0094e-13
-2.49096e-14
8.82761e-14
6.28595e-15
2.23654e-14
5.55821e-15
1.32095e-15
3.15641e-16
8.96666e-17
-5.42161e-08
1.22944e-08
-6.38132e-08
5.49652e-08
-3.85605e-08
5.03214e-08
-2.31212e-08
3.4409e-08
-1.96422e-08
1.01939e-08
2.31824e-08
-6.45078e-09
1.22551e-08
-5.94638e-09
8.68668e-09
-4.54352e-09
6.42769e-09
-3.4374e-09
4.81267e-09
-2.60195e-09
3.62431e-09
-1.96989e-09
2.73746e-09
-1.49029e-09
2.06995e-09
-1.12573e-09
1.56495e-09
-8.48477e-10
1.1818e-09
-6.37688e-10
8.90732e-10
-4.77596e-10
6.69579e-10
-3.562e-10
5.01669e-10
-2.64338e-10
3.74355e-10
-1.95e-10
2.78006e-10
-1.42825e-10
2.05267e-10
-1.03708e-10
1.50512e-10
-7.45147e-11
1.09437e-10
-5.28724e-11
7.86755e-11
-3.7301e-11
5.42913e-11
-3.21339e-11
1.73218e-11
3.75367e-11
-8.35196e-12
1.87339e-11
-6.75426e-12
1.18871e-11
-4.18239e-12
7.53159e-12
-2.45128e-12
4.63248e-12
-1.38407e-12
2.75812e-12
-7.56134e-13
1.59098e-12
-4.00561e-13
8.90768e-13
-2.053e-13
4.84632e-13
-1.00401e-13
2.55801e-13
-4.44235e-14
1.31254e-13
-9.66951e-15
5.84162e-14
6.81857e-15
1.52311e-14
4.27058e-15
1.0417e-15
2.50155e-16
7.1167e-17
-3.15367e-08
5.32783e-09
-3.54605e-08
2.99149e-08
-2.05078e-08
2.78587e-08
-1.1987e-08
1.90413e-08
-1.05593e-08
5.87981e-09
1.32785e-08
-3.16651e-09
6.82677e-09
-3.09322e-09
4.81292e-09
-2.37669e-09
3.55804e-09
-1.80091e-09
2.66311e-09
-1.36424e-09
2.00517e-09
-1.03322e-09
1.51441e-09
-7.81743e-10
1.14514e-09
-5.90466e-10
8.6581e-10
-4.44942e-10
6.53897e-10
-3.34289e-10
4.92912e-10
-2.50252e-10
3.70595e-10
-1.86536e-10
2.77719e-10
-1.38332e-10
2.07292e-10
-1.0196e-10
1.53987e-10
-7.46012e-11
1.13737e-10
-5.41001e-11
8.34339e-11
-3.88097e-11
6.06959e-11
-2.74856e-11
4.36543e-11
-1.939e-11
3.00144e-11
-1.72956e-11
9.97985e-12
2.15401e-11
-3.94927e-12
1.04901e-11
-3.41569e-12
6.63464e-12
-2.10912e-12
4.20781e-12
-1.22495e-12
2.59166e-12
-6.8415e-13
1.54513e-12
-3.69284e-13
8.92419e-13
-1.93074e-13
5.00262e-13
-9.74709e-14
2.72521e-13
-4.66939e-14
1.44083e-13
-1.98047e-14
7.42197e-14
-2.79754e-15
3.33394e-14
4.94862e-15
8.87082e-15
2.67345e-15
6.65054e-16
1.60391e-16
4.57089e-17
-1.03469e-08
1.45135e-09
-1.13688e-08
9.48352e-09
-6.41799e-09
8.91484e-09
-3.69607e-09
6.09182e-09
-3.32367e-09
1.92249e-09
4.32431e-09
-9.43105e-10
2.19215e-09
-9.5552e-10
1.54092e-09
-7.36626e-10
1.13858e-09
-5.58687e-10
8.52041e-10
-4.23408e-10
6.41479e-10
-3.2074e-10
4.84459e-10
-2.42691e-10
3.66328e-10
-1.83301e-10
2.76979e-10
-1.38108e-10
2.09197e-10
-1.03742e-10
1.57706e-10
-7.76412e-11
1.18581e-10
-5.78541e-11
8.88731e-11
-4.28863e-11
6.63444e-11
-3.15944e-11
4.92918e-11
-2.31028e-11
3.64147e-11
-1.67414e-11
2.67187e-11
-1.19986e-11
1.94424e-11
-8.48817e-12
1.39867e-11
-5.98822e-12
9.59712e-12
-5.44802e-12
3.26093e-12
7.02118e-12
-1.14704e-12
3.37764e-12
-1.03734e-12
2.1324e-12
-6.3946e-13
1.35311e-12
-3.69282e-13
8.34007e-13
-2.04823e-13
4.97586e-13
-1.09697e-13
2.87585e-13
-5.68563e-14
1.61315e-13
-2.84104e-14
8.79364e-14
-1.34153e-14
4.65332e-14
-5.51496e-15
2.40188e-14
-4.56372e-16
1.08411e-14
1.78491e-15
2.91483e-15
9.08643e-16
2.28332e-16
5.51821e-17
1.57824e-17
1.03638e-08
-1.44622e-09
1.1371e-08
-9.4822e-09
6.41863e-09
-8.91457e-09
3.69616e-09
-6.09185e-09
3.32355e-09
-1.92263e-09
-4.32441e-09
9.43085e-10
-2.1921e-09
9.55604e-10
-1.54082e-09
7.36719e-10
-1.1385e-09
5.58763e-10
-8.51975e-10
4.23465e-10
-6.41429e-10
3.20783e-10
-4.84423e-10
2.42722e-10
-3.66302e-10
1.83323e-10
-2.76961e-10
1.38123e-10
-2.09185e-10
1.03752e-10
-1.57697e-10
7.76478e-11
-1.18576e-10
5.78581e-11
-8.887e-11
4.28886e-11
-6.63427e-11
3.15955e-11
-4.92911e-11
2.31031e-11
-3.64146e-11
1.67413e-11
-2.6719e-11
1.19982e-11
-1.94428e-11
8.48763e-12
-1.39873e-11
5.98756e-12
-9.59789e-12
5.44715e-12
-3.26181e-12
-7.02196e-12
1.14643e-12
-3.37808e-12
1.03701e-12
-2.13265e-12
6.39256e-13
-1.35327e-12
3.69145e-13
-8.34118e-13
2.04734e-13
-4.97657e-13
1.09641e-13
-2.87629e-13
5.68216e-14
-1.61342e-13
2.83897e-14
-8.79523e-14
1.34032e-14
-4.65424e-14
5.50807e-15
-2.40239e-14
4.52753e-16
-1.08436e-14
-1.78649e-15
-2.91578e-15
-9.09175e-16
-2.28618e-16
-5.53098e-17
-1.56925e-17
3.15487e-08
-5.32403e-09
3.54623e-08
-2.99137e-08
2.05085e-08
-2.78583e-08
1.19873e-08
-1.90412e-08
1.05593e-08
-5.8798e-09
-1.32785e-08
3.16657e-09
-6.82668e-09
3.09333e-09
-4.81281e-09
2.37679e-09
-3.55795e-09
1.80099e-09
-2.66304e-09
1.3643e-09
-2.00512e-09
1.03326e-09
-1.51437e-09
7.81777e-10
-1.14511e-09
5.9049e-10
-8.6579e-10
4.44959e-10
-6.53882e-10
3.34302e-10
-4.92902e-10
2.5026e-10
-3.70588e-10
1.86541e-10
-2.77715e-10
1.38336e-10
-2.07289e-10
1.01962e-10
-1.53985e-10
7.46025e-11
-1.13736e-10
5.41008e-11
-8.34335e-11
3.881e-11
-6.06958e-11
2.74856e-11
-4.36544e-11
1.93898e-11
-3.00148e-11
1.72952e-11
-9.98033e-12
-2.15405e-11
3.94892e-12
-1.04904e-11
3.4155e-12
-6.63478e-12
2.10901e-12
-4.2079e-12
1.22487e-12
-2.59172e-12
6.84097e-13
-1.54517e-12
3.6925e-13
-8.92446e-13
1.93052e-13
-5.00278e-13
9.7458e-14
-2.72531e-13
4.66863e-14
-1.44089e-13
1.98002e-14
-7.4223e-14
2.79516e-15
-3.3341e-14
-4.94968e-15
-8.87146e-15
-2.67381e-15
-6.65251e-16
-1.60482e-16
-4.5647e-17
5.42185e-08
-1.22933e-08
6.3814e-08
-5.49646e-08
3.85611e-08
-5.0321e-08
2.31215e-08
-3.44088e-08
1.96425e-08
-1.01938e-08
-2.31823e-08
6.45091e-09
-1.2255e-08
5.94648e-09
-8.68659e-09
4.5436e-09
-6.42762e-09
3.43746e-09
-4.81261e-09
2.60199e-09
-3.62427e-09
1.96993e-09
-2.73743e-09
1.49031e-09
-2.06993e-09
1.12575e-09
-1.56494e-09
8.48491e-10
-1.18179e-09
6.37698e-10
-8.90723e-10
4.77603e-10
-6.69573e-10
3.56205e-10
-5.01664e-10
2.64341e-10
-3.74352e-10
1.95003e-10
-2.78004e-10
1.42827e-10
-2.05265e-10
1.03709e-10
-1.50511e-10
7.45156e-11
-1.09436e-10
5.2873e-11
-7.86751e-11
3.73013e-11
-5.4291e-11
3.21341e-11
-1.73217e-11
-3.75366e-11
8.35202e-12
-1.87339e-11
6.7543e-12
-1.18871e-11
4.18241e-12
-7.53157e-12
2.4513e-12
-4.63247e-12
1.38408e-12
-2.75812e-12
7.56136e-13
-1.59098e-12
4.00561e-13
-8.90768e-13
2.053e-13
-4.84632e-13
1.00401e-13
-2.55801e-13
4.44232e-14
-1.31255e-13
9.66929e-15
-5.84164e-14
-6.8187e-15
-1.52312e-14
-4.27063e-15
-1.04174e-15
-2.50176e-16
-7.11564e-17
7.95667e-08
-2.49442e-08
9.99828e-08
-8.84881e-08
6.3927e-08
-7.92619e-08
3.95072e-08
-5.4229e-08
3.209e-08
-1.51743e-08
-3.47849e-08
1.16739e-08
-1.91553e-08
1.01167e-08
-1.36718e-08
7.68116e-09
-1.01284e-08
5.80057e-09
-7.58702e-09
4.38684e-09
-5.71491e-09
3.3198e-09
-4.3169e-09
2.51122e-09
-3.26425e-09
1.89711e-09
-2.4677e-09
1.43025e-09
-1.86328e-09
1.07537e-09
-1.40411e-09
8.0583e-10
-1.05525e-09
6.01408e-10
-7.90403e-10
4.46676e-10
-5.89617e-10
3.29841e-10
-4.3769e-10
2.41881e-10
-3.23014e-10
1.75897e-10
-2.36714e-10
1.26617e-10
-1.71997e-10
9.004e-11
-1.23576e-10
6.35327e-11
-8.5674e-11
5.24193e-11
-2.58238e-11
-5.617e-11
1.56793e-11
-2.90763e-11
1.18614e-11
-1.85254e-11
7.36901e-12
-1.17217e-11
4.36148e-12
-7.1964e-12
2.49104e-12
-4.27685e-12
1.37783e-12
-2.4628e-12
7.39572e-13
-1.37662e-12
3.84679e-13
-7.47664e-13
1.91812e-13
-3.93738e-13
8.81033e-14
-2.00937e-13
2.49119e-14
-8.82745e-14
-6.28497e-15
-2.23648e-14
-5.55788e-15
-1.32077e-15
-3.15566e-16
-8.97214e-17
1.09119e-07
-4.67446e-08
1.48713e-07
-1.35624e-07
1.01137e-07
-1.18664e-07
6.44079e-08
-8.1239e-08
4.98912e-08
-2.12522e-08
-4.9023e-08
1.99944e-08
-2.84546e-08
1.64136e-08
-2.04589e-08
1.23884e-08
-1.5176e-08
9.33873e-09
-1.13738e-08
7.05652e-09
-8.56945e-09
5.33788e-09
-6.47379e-09
4.0373e-09
-4.89516e-09
3.05027e-09
-3.70031e-09
2.30023e-09
-2.79357e-09
1.73018e-09
-2.10471e-09
1.29721e-09
-1.58137e-09
9.68778e-10
-1.1841e-09
7.20112e-10
-8.8297e-10
5.32278e-10
-6.55158e-10
3.90801e-10
-4.83243e-10
2.84608e-10
-3.53903e-10
2.05239e-10
-2.56947e-10
1.46263e-10
-1.84481e-10
1.03237e-10
-1.28533e-10
8.13712e-11
-3.62315e-11
-7.88833e-11
2.76769e-11
-4.28417e-11
1.9825e-11
-2.74122e-11
1.23572e-11
-1.73171e-11
7.37857e-12
-1.06092e-11
4.25694e-12
-6.29195e-12
2.37973e-12
-3.61605e-12
1.29154e-12
-2.01741e-12
6.79914e-13
-1.09349e-12
3.44278e-13
-5.74334e-13
1.62643e-13
-2.912e-13
5.37249e-14
-1.25935e-13
-1.82592e-15
-3.08128e-14
-6.34204e-15
-1.47062e-15
-3.50036e-16
-9.9501e-17
-0.000281151
0.000222577
3.81981e-05
1.57116e-05
3.02803e-06
1.29481e-06
1.92595e-07
1.51406e-07
-3.84553e-08
1.6002e-08
5.8618e-08
-3.38103e-08
4.13275e-08
-3.05016e-08
3.46149e-08
-2.53546e-08
2.88915e-08
-2.07553e-08
2.38189e-08
-1.68511e-08
1.9446e-08
-1.36031e-08
1.57622e-08
-1.0936e-08
1.27097e-08
-8.76573e-09
1.02097e-08
-7.01088e-09
8.17881e-09
-5.59824e-09
6.53866e-09
-4.46466e-09
5.21944e-09
-3.55703e-09
4.16141e-09
-2.83149e-09
3.31463e-09
-2.25225e-09
2.63797e-09
-1.79034e-09
2.09791e-09
-1.42239e-09
1.66736e-09
-1.1297e-09
1.32448e-09
-8.97504e-10
1.05077e-09
-7.18042e-10
8.1412e-10
-6.61177e-10
1.74925e-10
6.49913e-10
-3.34534e-10
4.2893e-10
-2.90161e-10
3.39134e-10
-2.36711e-10
2.73464e-10
-1.94296e-10
2.22676e-10
-1.61656e-10
1.83478e-10
-1.36747e-10
1.5349e-10
-1.17575e-10
1.31153e-10
-9.99357e-11
1.12961e-10
-7.93171e-11
9.30907e-11
-5.75737e-11
7.06647e-11
-4.03156e-11
5.52103e-11
-1.01454e-11
2.48808e-11
5.03989e-12
1.16834e-12
2.81107e-13
8.23705e-14
-0.000200754
0.000149551
3.41687e-05
1.2871e-05
2.79836e-06
1.06066e-06
1.91789e-07
1.15597e-07
-2.11419e-08
1.2303e-08
4.1047e-08
-2.07738e-08
2.74416e-08
-1.92802e-08
2.28988e-08
-1.60205e-08
1.9128e-08
-1.30916e-08
1.57828e-08
-1.0614e-08
1.28934e-08
-8.5592e-09
1.04557e-08
-6.87573e-09
8.43363e-09
-5.5081e-09
6.77633e-09
-4.40358e-09
5.42939e-09
-3.5152e-09
4.34117e-09
-2.80275e-09
3.46567e-09
-2.23255e-09
2.76338e-09
-1.7769e-09
2.20124e-09
-1.41321e-09
1.75197e-09
-1.12324e-09
1.39337e-09
-8.92308e-10
1.10746e-09
-7.08652e-10
8.79723e-10
-5.63061e-10
6.97634e-10
-4.51829e-10
5.35722e-10
-4.36896e-10
1.24836e-10
4.55598e-10
-2.02659e-10
2.86209e-10
-1.81958e-10
2.25019e-10
-1.48947e-10
1.81232e-10
-1.2248e-10
1.47409e-10
-1.02122e-10
1.21291e-10
-8.66031e-11
1.01312e-10
-7.46246e-11
8.65523e-11
-6.33563e-11
7.47926e-11
-4.98939e-11
6.19789e-11
-3.57697e-11
4.72588e-11
-2.46572e-11
3.77196e-11
-4.67778e-12
1.75896e-11
4.4005e-12
1.04863e-12
2.53372e-13
7.42879e-14
-0.00013437
9.51503e-05
2.63747e-05
9.58075e-06
2.23496e-06
7.91613e-07
1.59205e-07
8.21727e-08
-1.06592e-08
8.77457e-09
2.70839e-08
-1.21516e-08
1.73419e-08
-1.1625e-08
1.44174e-08
-9.65726e-09
1.20517e-08
-7.87837e-09
9.95161e-09
-6.37854e-09
8.13432e-09
-5.13833e-09
6.59912e-09
-4.12454e-09
5.32451e-09
-3.30228e-09
4.27912e-09
-2.63899e-09
3.4291e-09
-2.10596e-09
2.74213e-09
-1.67873e-09
2.18932e-09
-1.33696e-09
1.7458e-09
-1.06392e-09
1.39075e-09
-8.46051e-10
1.10697e-09
-6.72376e-10
8.8043e-10
-5.34088e-10
6.99797e-10
-4.24135e-10
5.55891e-10
-3.3704e-10
4.40656e-10
-2.71321e-10
3.35531e-10
-2.74164e-10
8.3832e-11
3.0071e-10
-1.16787e-10
1.81665e-10
-1.08851e-10
1.4206e-10
-8.94208e-11
1.14293e-10
-7.36647e-11
9.28678e-11
-6.15507e-11
7.63175e-11
-5.23261e-11
6.36576e-11
-4.51845e-11
5.43734e-11
-3.83177e-11
4.71224e-11
-2.99458e-11
3.92421e-11
-2.12045e-11
3.0045e-11
-1.43747e-11
2.44171e-11
-1.79851e-12
1.17157e-11
3.36707e-12
8.26362e-13
2.00811e-13
5.89278e-14
-7.71685e-05
5.268e-05
1.65005e-05
5.91205e-06
1.4352e-06
4.90008e-07
1.04352e-07
4.93516e-08
-4.68598e-09
5.27647e-09
1.54103e-08
-6.28927e-09
9.5709e-09
-6.17883e-09
7.93286e-09
-5.13238e-09
6.63467e-09
-4.18116e-09
5.48172e-09
-3.3813e-09
4.48264e-09
-2.72151e-09
3.63778e-09
-2.18317e-09
2.93581e-09
-1.74712e-09
2.3598e-09
-1.39572e-09
1.89127e-09
-1.11352e-09
1.51252e-09
-8.8745e-10
1.20768e-09
-7.06664e-10
9.63086e-10
-5.62276e-10
7.67256e-10
-4.47082e-10
6.10722e-10
-3.55271e-10
4.85759e-10
-2.82179e-10
3.86109e-10
-2.24076e-10
3.06709e-10
-1.78082e-10
2.43053e-10
-1.43756e-10
1.83834e-10
-1.50288e-10
4.83433e-11
1.71085e-10
-5.96519e-11
1.00594e-10
-5.74789e-11
7.8329e-11
-4.73633e-11
6.29652e-11
-3.9077e-11
5.11224e-11
-3.27083e-11
4.1971e-11
-2.78631e-11
3.49712e-11
-2.41022e-11
2.98659e-11
-2.04198e-11
2.59398e-11
-1.58582e-11
2.16824e-11
-1.11135e-11
1.66533e-11
-7.42397e-12
1.37127e-11
-5.09792e-13
6.71554e-12
2.10089e-12
5.2725e-13
1.28758e-13
3.78079e-14
-2.51622e-05
1.68499e-05
5.60198e-06
1.99858e-06
4.94033e-07
1.65955e-07
3.62397e-08
1.64744e-08
-1.28468e-09
1.7622e-09
5.00207e-09
-1.93629e-09
3.05812e-09
-1.93268e-09
2.53043e-09
-1.6053e-09
2.11692e-09
-1.30675e-09
1.74959e-09
-1.05607e-09
1.43105e-09
-8.49583e-10
1.16153e-09
-6.81277e-10
9.37512e-10
-5.45059e-10
7.53638e-10
-4.35344e-10
6.04045e-10
-3.47271e-10
4.83102e-10
-2.76736e-10
3.85751e-10
-2.20341e-10
3.07632e-10
-1.75307e-10
2.45086e-10
-1.39383e-10
1.95089e-10
-1.10754e-10
1.55174e-10
-8.79635e-11
1.23343e-10
-6.98489e-11
9.79785e-11
-5.55154e-11
7.76295e-11
-4.48883e-11
5.84978e-11
-4.78167e-11
1.58071e-11
5.55253e-11
-1.82194e-11
3.21991e-11
-1.79118e-11
2.50133e-11
-1.47861e-11
2.00978e-11
-1.221e-11
1.63107e-11
-1.02305e-11
1.33837e-11
-8.72542e-12
1.11449e-11
-7.55537e-12
9.51685e-12
-6.39774e-12
8.27537e-12
-4.9508e-12
6.93092e-12
-3.44888e-12
5.33246e-12
-2.28379e-12
4.42136e-12
-7.97954e-14
2.1885e-12
7.12822e-13
1.80992e-13
4.4316e-14
1.30017e-14
2.51632e-05
-1.68501e-05
-5.60241e-06
-1.9989e-06
-4.94222e-07
-1.66046e-07
-3.62769e-08
-1.64876e-08
1.28079e-09
-1.76284e-09
-5.00169e-09
1.93697e-09
-3.05739e-09
1.93338e-09
-2.52979e-09
1.60588e-09
-2.11641e-09
1.3072e-09
-1.74919e-09
1.05643e-09
-1.43074e-09
8.49861e-10
-1.16128e-09
6.81497e-10
-9.37318e-10
5.45232e-10
-7.53484e-10
4.3548e-10
-6.03924e-10
3.47379e-10
-4.83006e-10
2.76822e-10
-3.85674e-10
2.20409e-10
-3.07572e-10
1.75361e-10
-2.45038e-10
1.39426e-10
-1.95051e-10
1.10788e-10
-1.55143e-10
8.79906e-11
-1.23318e-10
6.98705e-11
-9.79592e-11
5.55326e-11
-7.76145e-11
4.4901e-11
-5.84876e-11
4.78244e-11
-1.58012e-11
-5.55201e-11
1.82247e-11
-3.21938e-11
1.79168e-11
-2.50086e-11
1.47903e-11
-2.00941e-11
1.22131e-11
-1.6308e-11
1.02327e-11
-1.3382e-11
8.7267e-12
-1.1144e-11
7.55586e-12
-9.51672e-12
6.39757e-12
-8.27579e-12
4.95017e-12
-6.93169e-12
3.44803e-12
-5.33334e-12
2.28295e-12
-4.42209e-12
7.9219e-14
-2.1889e-12
-7.13059e-13
-1.81107e-13
-4.43658e-14
-1.30661e-14
7.71692e-05
-5.26801e-05
-1.65007e-05
-5.91226e-06
-1.43533e-06
-4.90069e-07
-1.04376e-07
-4.93603e-08
4.68359e-09
-5.2767e-09
-1.54098e-08
6.28989e-09
-9.57025e-09
6.17944e-09
-7.93231e-09
5.13288e-09
-6.63423e-09
4.18155e-09
-5.48137e-09
3.38161e-09
-4.48236e-09
2.72176e-09
-3.63756e-09
2.18336e-09
-2.93564e-09
1.74727e-09
-2.35967e-09
1.39584e-09
-1.89116e-09
1.11361e-09
-1.51244e-09
8.87526e-10
-1.20762e-09
7.06724e-10
-9.63033e-10
5.62324e-10
-7.67213e-10
4.4712e-10
-6.10689e-10
3.55302e-10
-4.85732e-10
2.82203e-10
-3.86088e-10
2.24095e-10
-3.06692e-10
1.78097e-10
-2.43039e-10
1.43767e-10
-1.83825e-10
1.50295e-10
-4.83374e-11
-1.71079e-10
5.96569e-11
-1.00589e-10
5.74835e-11
-7.83248e-11
4.73671e-11
-6.29619e-11
3.90798e-11
-5.11199e-11
3.27103e-11
-4.19693e-11
2.78644e-11
-3.49702e-11
2.41028e-11
-2.98656e-11
2.04199e-11
-2.59399e-11
1.58579e-11
-2.16828e-11
1.1113e-11
-1.66538e-11
7.42344e-12
-1.37132e-11
5.09415e-13
-6.71581e-12
-2.10105e-12
-5.27326e-13
-1.2879e-13
-3.78518e-14
0.00013437
-9.51503e-05
-2.63747e-05
-9.58077e-06
-2.23497e-06
-7.9162e-07
-1.59208e-07
-8.21734e-08
1.06592e-08
-8.77427e-09
-2.70835e-08
1.21519e-08
-1.73415e-08
1.16253e-08
-1.44171e-08
9.6575e-09
-1.20515e-08
7.87856e-09
-9.95143e-09
6.37869e-09
-8.13418e-09
5.13846e-09
-6.59901e-09
4.12464e-09
-5.32442e-09
3.30236e-09
-4.27905e-09
2.63906e-09
-3.42904e-09
2.10601e-09
-2.74209e-09
1.67877e-09
-2.18928e-09
1.33699e-09
-1.74578e-09
1.06395e-09
-1.39073e-09
8.46071e-10
-1.10695e-09
6.72392e-10
-8.80416e-10
5.341e-10
-6.99786e-10
4.24145e-10
-5.55882e-10
3.37048e-10
-4.40649e-10
2.71328e-10
-3.35525e-10
2.74169e-10
-8.38281e-11
-3.00707e-10
1.1679e-10
-1.81663e-10
1.08854e-10
-1.42058e-10
8.94228e-11
-1.14291e-10
7.36662e-11
-9.28664e-11
6.15519e-11
-7.63165e-11
5.2327e-11
-6.36568e-11
4.51851e-11
-5.43729e-11
3.8318e-11
-4.71222e-11
2.9946e-11
-3.92419e-11
2.12046e-11
-3.0045e-11
1.43747e-11
-2.44171e-11
1.79848e-12
-1.17158e-11
-3.36708e-12
-8.26369e-13
-2.00812e-13
-5.89345e-14
0.000200753
-0.000149551
-3.41685e-05
-1.28708e-05
-2.79824e-06
-1.06061e-06
-1.91766e-07
-1.15588e-07
2.11445e-08
-1.23025e-08
-4.10471e-08
2.07736e-08
-2.7442e-08
1.92799e-08
-2.28991e-08
1.60202e-08
-1.91282e-08
1.30914e-08
-1.5783e-08
1.06139e-08
-1.28935e-08
8.55908e-09
-1.04558e-08
6.87564e-09
-8.43372e-09
5.50803e-09
-6.7764e-09
4.40351e-09
-5.42944e-09
3.51516e-09
-4.34122e-09
2.80271e-09
-3.4657e-09
2.23252e-09
-2.76341e-09
1.77687e-09
-2.20126e-09
1.41319e-09
-1.75199e-09
1.12322e-09
-1.39339e-09
8.92296e-10
-1.10747e-09
7.08643e-10
-8.79732e-10
5.63054e-10
-6.97641e-10
4.51824e-10
-5.35726e-10
4.36893e-10
-1.24838e-10
-4.556e-10
2.02657e-10
-2.86211e-10
1.81955e-10
-2.25021e-10
1.48945e-10
-1.81234e-10
1.22479e-10
-1.4741e-10
1.02121e-10
-1.21292e-10
8.66027e-11
-1.01312e-10
7.46245e-11
-8.65522e-11
6.33565e-11
-7.47922e-11
4.98944e-11
-6.19784e-11
3.57703e-11
-4.72582e-11
2.46578e-11
-3.77191e-11
4.67814e-12
-1.75894e-11
-4.40035e-12
-1.04856e-12
-2.5334e-13
-7.42485e-14
0.00028115
-0.000222577
-3.81977e-05
-1.57112e-05
-3.02782e-06
-1.29471e-06
-1.92554e-07
-1.51391e-07
3.8459e-08
-1.6002e-08
-5.86191e-08
3.3809e-08
-4.13289e-08
3.05003e-08
-3.46161e-08
2.53536e-08
-2.88925e-08
2.07545e-08
-2.38197e-08
1.68504e-08
-1.94465e-08
1.36026e-08
-1.57626e-08
1.09356e-08
-1.27101e-08
8.76541e-09
-1.02099e-08
7.01062e-09
-8.17904e-09
5.59804e-09
-6.53884e-09
4.4645e-09
-5.21958e-09
3.5569e-09
-4.16153e-09
2.83139e-09
-3.31473e-09
2.25217e-09
-2.63804e-09
1.79027e-09
-2.09796e-09
1.42234e-09
-1.66741e-09
1.12966e-09
-1.32452e-09
8.97472e-10
-1.0508e-09
7.18017e-10
-8.14141e-10
6.6116e-10
-1.74939e-10
-6.49925e-10
3.34522e-10
-4.28941e-10
2.90151e-10
-3.39143e-10
2.36703e-10
-2.73471e-10
1.9429e-10
-2.22681e-10
1.61652e-10
-1.83482e-10
1.36744e-10
-1.53493e-10
1.17573e-10
-1.31154e-10
9.99352e-11
-1.12961e-10
7.93173e-11
-9.30902e-11
5.75744e-11
-7.06639e-11
4.03164e-11
-5.52096e-11
1.0146e-11
-2.48804e-11
-5.03963e-12
-1.16821e-12
-2.81056e-13
-8.2295e-14
-0.000281262
0.000222663
3.82097e-05
1.57212e-05
3.03061e-06
1.29501e-06
1.93648e-07
1.50657e-07
-3.75031e-08
1.59051e-08
5.76945e-08
-3.32281e-08
4.06385e-08
-2.99773e-08
3.40267e-08
-2.49132e-08
2.83933e-08
-2.03891e-08
2.34025e-08
-1.655e-08
1.91015e-08
-1.33572e-08
1.54795e-08
-1.07362e-08
1.24792e-08
-8.60399e-09
1.00225e-08
-6.88038e-09
8.02751e-09
-5.49324e-09
6.41669e-09
-4.38037e-09
5.12137e-09
-3.4895e-09
4.08274e-09
-2.7775e-09
3.25164e-09
-2.20917e-09
2.58763e-09
-1.756e-09
2.05775e-09
-1.39508e-09
1.63539e-09
-1.108e-09
1.29905e-09
-8.80261e-10
1.03059e-09
-7.0426e-10
7.98489e-10
-6.48509e-10
1.71549e-10
6.37469e-10
-3.28158e-10
4.20739e-10
-2.8465e-10
3.32679e-10
-2.32238e-10
2.6828e-10
-1.9065e-10
2.18478e-10
-1.58654e-10
1.80047e-10
-1.3425e-10
1.50654e-10
-1.15484e-10
1.28775e-10
-9.82377e-11
1.1099e-10
-7.80335e-11
9.1542e-11
-5.66714e-11
6.95239e-11
-3.97306e-11
5.43809e-11
-9.99839e-12
2.45126e-11
4.96528e-12
1.15104e-12
2.76946e-13
8.11516e-14
-0.000200832
0.000149609
3.41798e-05
1.28785e-05
2.80054e-06
1.06094e-06
1.92526e-07
1.1513e-07
-2.04938e-08
1.22346e-08
4.04078e-08
-2.04122e-08
2.69854e-08
-1.89479e-08
2.25102e-08
-1.57409e-08
1.87985e-08
-1.28602e-08
1.55072e-08
-1.0424e-08
1.26652e-08
-8.40418e-09
1.02683e-08
-6.74987e-09
8.28081e-09
-5.4063e-09
6.65225e-09
-4.32149e-09
5.32902e-09
-3.44918e-09
4.26025e-09
-2.74977e-09
3.40059e-09
-2.19013e-09
2.71116e-09
-1.74299e-09
2.15942e-09
-1.38615e-09
1.71855e-09
-1.10169e-09
1.36671e-09
-8.75165e-10
1.08623e-09
-6.95032e-10
8.62833e-10
-5.52243e-10
6.84235e-10
-4.43157e-10
5.25435e-10
-4.28527e-10
1.22427e-10
4.46873e-10
-1.98799e-10
2.80742e-10
-1.78503e-10
2.20735e-10
-1.46134e-10
1.77795e-10
-1.20184e-10
1.44628e-10
-1.00229e-10
1.1902e-10
-8.5025e-11
9.94366e-11
-7.3302e-11
8.49785e-11
-6.22861e-11
7.34828e-11
-4.90924e-11
6.09448e-11
-3.52131e-11
4.64929e-11
-2.4304e-11
3.71519e-11
-4.61125e-12
1.73292e-11
4.33535e-12
1.03311e-12
2.49622e-13
7.31886e-14
-0.000134423
9.51871e-05
2.63835e-05
9.58609e-06
2.23661e-06
7.91876e-07
1.59693e-07
8.18962e-08
-1.02416e-08
8.729e-09
2.66663e-08
-1.19375e-08
1.70542e-08
-1.14241e-08
1.4173e-08
-9.48839e-09
1.18443e-08
-7.73879e-09
9.77798e-09
-6.26412e-09
7.99052e-09
-5.04509e-09
6.48101e-09
-4.0489e-09
5.2281e-09
-3.24115e-09
4.20082e-09
-2.58972e-09
3.36575e-09
-2.06635e-09
2.69104e-09
-1.64696e-09
2.14822e-09
-1.31153e-09
1.71283e-09
-1.0436e-09
1.36434e-09
-8.29843e-10
1.08586e-09
-6.59468e-10
8.63587e-10
-5.23823e-10
6.8638e-10
-4.15981e-10
5.45219e-10
-3.30564e-10
4.32193e-10
-2.66114e-10
3.29088e-10
-2.68913e-10
8.22145e-11
2.94951e-10
-1.14564e-10
1.78195e-10
-1.06786e-10
1.39355e-10
-8.7733e-11
1.12124e-10
-7.22848e-11
9.11148e-11
-6.0411e-11
7.48872e-11
-5.13747e-11
6.24773e-11
-4.43866e-11
5.33819e-11
-3.76742e-11
4.62945e-11
-2.94682e-11
3.85856e-11
-2.0877e-11
2.95565e-11
-1.41715e-11
2.4049e-11
-1.77393e-12
1.15422e-11
3.31721e-12
8.14128e-13
1.97838e-13
5.80558e-14
-7.71988e-05
5.27003e-05
1.65061e-05
5.91526e-06
1.43623e-06
4.90191e-07
1.0463e-07
4.92069e-08
-4.4525e-09
5.25035e-09
1.51745e-08
-6.17732e-09
9.41246e-09
-6.07178e-09
7.79854e-09
-5.04247e-09
6.52061e-09
-4.10695e-09
5.38616e-09
-3.32054e-09
4.40345e-09
-2.67205e-09
3.57271e-09
-2.14307e-09
2.88269e-09
-1.71473e-09
2.31665e-09
-1.36963e-09
1.85635e-09
-1.09255e-09
1.48436e-09
-8.70639e-10
1.18503e-09
-6.9321e-10
9.449e-10
-5.51529e-10
7.5269e-10
-4.38512e-10
5.99079e-10
-3.48448e-10
4.76468e-10
-2.76754e-10
3.78707e-10
-2.19767e-10
3.00822e-10
-1.7466e-10
2.38385e-10
-1.40997e-10
1.80304e-10
-1.4741e-10
4.74107e-11
1.67807e-10
-5.85171e-11
9.8672e-11
-5.63887e-11
7.68369e-11
-4.64698e-11
6.17703e-11
-3.83456e-11
5.0157e-11
-3.21033e-11
4.11838e-11
-2.73574e-11
3.4322e-11
-2.36778e-11
2.93202e-11
-2.00786e-11
2.5483e-11
-1.56068e-11
2.13189e-11
-1.09429e-11
1.63818e-11
-7.32027e-12
1.35058e-11
-5.03511e-13
6.61603e-12
2.06978e-12
5.19444e-13
1.26853e-13
3.72484e-14
-2.51721e-05
1.68564e-05
5.6039e-06
1.99965e-06
4.9438e-07
1.6602e-07
3.63305e-08
1.64295e-08
-1.20959e-09
1.75368e-09
4.92583e-09
-1.90161e-09
3.00755e-09
-1.89915e-09
2.48761e-09
-1.57715e-09
2.08054e-09
-1.28353e-09
1.7191e-09
-1.03708e-09
1.40578e-09
-8.34127e-10
1.14076e-09
-6.68754e-10
9.20555e-10
-5.34946e-10
7.3986e-10
-4.272e-10
5.92896e-10
-3.40728e-10
4.74108e-10
-2.71491e-10
3.78515e-10
-2.16144e-10
3.01824e-10
-1.71955e-10
2.40434e-10
-1.3671e-10
1.9137e-10
-1.08626e-10
1.52206e-10
-8.6272e-11
1.20978e-10
-6.85056e-11
9.60977e-11
-5.44485e-11
7.61386e-11
-4.40268e-11
5.73744e-11
-4.6901e-11
1.55022e-11
5.44617e-11
-1.7873e-11
3.15839e-11
-1.75721e-11
2.45368e-11
-1.45072e-11
1.97163e-11
-1.19816e-11
1.60026e-11
-1.00414e-11
1.31326e-11
-8.56722e-12
1.09379e-11
-7.42255e-12
9.34276e-12
-6.29112e-12
8.12943e-12
-4.8726e-12
6.81461e-12
-3.39614e-12
5.24542e-12
-2.25212e-12
4.35459e-12
-7.90427e-14
2.15606e-12
7.02267e-13
1.78312e-13
4.366e-14
1.28093e-14
2.51731e-05
-1.68566e-05
-5.60434e-06
-1.99998e-06
-4.9457e-07
-1.66111e-07
-3.63678e-08
-1.64428e-08
1.20568e-09
-1.75435e-09
-4.92546e-09
1.90228e-09
-3.00683e-09
1.89984e-09
-2.48698e-09
1.57772e-09
-2.08004e-09
1.28398e-09
-1.71871e-09
1.03743e-09
-1.40547e-09
8.344e-10
-1.14052e-09
6.68969e-10
-9.20364e-10
5.35115e-10
-7.39709e-10
4.27334e-10
-5.92776e-10
3.40834e-10
-4.74013e-10
2.71575e-10
-3.7844e-10
2.16211e-10
-3.01765e-10
1.72008e-10
-2.40387e-10
1.36752e-10
-1.91332e-10
1.08659e-10
-1.52176e-10
8.62987e-11
-1.20954e-10
6.85268e-11
-9.60788e-11
5.44653e-11
-7.61239e-11
4.40393e-11
-5.73644e-11
4.69086e-11
-1.54964e-11
-5.44566e-11
1.78781e-11
-3.15787e-11
1.75771e-11
-2.45322e-11
1.45113e-11
-1.97127e-11
1.19847e-11
-1.6e-11
1.00436e-11
-1.31309e-11
8.56849e-12
-1.0937e-11
7.42304e-12
-9.34262e-12
6.29095e-12
-8.12985e-12
4.87198e-12
-6.81537e-12
3.3953e-12
-5.24628e-12
2.25129e-12
-4.35532e-12
7.84746e-14
-2.15645e-12
-7.025e-13
-1.78426e-13
-4.37091e-14
-1.28728e-14
7.71995e-05
-5.27005e-05
-1.65064e-05
-5.91548e-06
-1.43635e-06
-4.90251e-07
-1.04655e-07
-4.92155e-08
4.45009e-09
-5.2506e-09
-1.5174e-08
6.17793e-09
-9.41183e-09
6.07237e-09
-7.798e-09
5.04296e-09
-6.52018e-09
4.10734e-09
-5.38582e-09
3.32084e-09
-4.40318e-09
2.67228e-09
-3.5725e-09
2.14326e-09
-2.88253e-09
1.71488e-09
-2.31651e-09
1.36974e-09
-1.85625e-09
1.09265e-09
-1.48427e-09
8.70713e-10
-1.18496e-09
6.93269e-10
-9.44848e-10
5.51576e-10
-7.52648e-10
4.38549e-10
-5.99045e-10
3.48478e-10
-4.76441e-10
2.76778e-10
-3.78686e-10
2.19786e-10
-3.00805e-10
1.74675e-10
-2.38372e-10
1.41008e-10
-1.80295e-10
1.47417e-10
-4.74049e-11
-1.67802e-10
5.8522e-11
-9.86672e-11
5.63932e-11
-7.68328e-11
4.64735e-11
-6.17671e-11
3.83483e-11
-5.01546e-11
3.21053e-11
-4.11822e-11
2.73587e-11
-3.4321e-11
2.36784e-11
-2.93199e-11
2.00787e-11
-2.54831e-11
1.56065e-11
-2.13193e-11
1.09424e-11
-1.63824e-11
7.31975e-12
-1.35062e-11
5.0314e-13
-6.61629e-12
-2.06994e-12
-5.19519e-13
-1.26884e-13
-3.72917e-14
0.000134423
-9.51871e-05
-2.63836e-05
-9.58611e-06
-2.23662e-06
-7.91883e-07
-1.59696e-07
-8.18969e-08
1.02417e-08
-8.72871e-09
-2.6666e-08
1.19379e-08
-1.70539e-08
1.14244e-08
-1.41727e-08
9.48863e-09
-1.18441e-08
7.73898e-09
-9.77781e-09
6.26427e-09
-7.99038e-09
5.04521e-09
-6.4809e-09
4.04899e-09
-5.22802e-09
3.24122e-09
-4.20075e-09
2.58978e-09
-3.3657e-09
2.0664e-09
-2.691e-09
1.647e-09
-2.14819e-09
1.31156e-09
-1.7128e-09
1.04363e-09
-1.36432e-09
8.29862e-10
-1.08584e-09
6.59483e-10
-8.63573e-10
5.23835e-10
-6.86369e-10
4.15991e-10
-5.4521e-10
3.30571e-10
-4.32186e-10
2.6612e-10
-3.29082e-10
2.68918e-10
-8.22107e-11
-2.94947e-10
1.14567e-10
-1.78192e-10
1.06788e-10
-1.39353e-10
8.7735e-11
-1.12122e-10
7.22863e-11
-9.11135e-11
6.04121e-11
-7.48862e-11
5.13755e-11
-6.24766e-11
4.43872e-11
-5.33815e-11
3.76746e-11
-4.62943e-11
2.94684e-11
-3.85855e-11
2.0877e-11
-2.95564e-11
1.41715e-11
-2.40491e-11
1.7739e-12
-1.15422e-11
-3.31723e-12
-8.14135e-13
-1.9784e-13
-5.80623e-14
0.000200832
-0.000149609
-3.41795e-05
-1.28783e-05
-2.80042e-06
-1.06089e-06
-1.92503e-07
-1.15122e-07
2.04964e-08
-1.2234e-08
-4.04079e-08
2.04119e-08
-2.69857e-08
1.89475e-08
-2.25105e-08
1.57407e-08
-1.87987e-08
1.286e-08
-1.55074e-08
1.04239e-08
-1.26653e-08
8.40405e-09
-1.02685e-08
6.74977e-09
-8.28089e-09
5.40622e-09
-6.65232e-09
4.32143e-09
-5.32908e-09
3.44914e-09
-4.26029e-09
2.74973e-09
-3.40062e-09
2.1901e-09
-2.71119e-09
1.74296e-09
-2.15944e-09
1.38613e-09
-1.71857e-09
1.10167e-09
-1.36672e-09
8.75153e-10
-1.08624e-09
6.95022e-10
-8.62842e-10
5.52235e-10
-6.84242e-10
4.43152e-10
-5.25439e-10
4.28524e-10
-1.22429e-10
-4.46875e-10
1.98797e-10
-2.80744e-10
1.78501e-10
-2.20737e-10
1.46132e-10
-1.77797e-10
1.20182e-10
-1.44629e-10
1.00228e-10
-1.19021e-10
8.50246e-11
-9.94368e-11
7.3302e-11
-8.49784e-11
6.22864e-11
-7.34824e-11
4.90929e-11
-6.09442e-11
3.52137e-11
-4.64924e-11
2.43045e-11
-3.71515e-11
4.61161e-12
-1.73289e-11
-4.3352e-12
-1.03304e-12
-2.4959e-13
-7.31497e-14
0.00028126
-0.000222663
-3.82092e-05
-1.57209e-05
-3.03039e-06
-1.29491e-06
-1.93606e-07
-1.50643e-07
3.75068e-08
-1.5905e-08
-5.76956e-08
3.32267e-08
-4.06399e-08
2.99761e-08
-3.40278e-08
2.49122e-08
-2.83942e-08
2.03883e-08
-2.34032e-08
1.65494e-08
-1.91021e-08
1.33567e-08
-1.548e-08
1.07358e-08
-1.24795e-08
8.60367e-09
-1.00228e-08
6.88013e-09
-8.02774e-09
5.49304e-09
-6.41687e-09
4.38021e-09
-5.12151e-09
3.48938e-09
-4.08285e-09