/*--------------------------------*- C++ -*----------------------------------*\
| =========                 |                                                 |
| \\      /  F ield         | OpenFOAM: The Open Source CFD Toolbox           |
|  \\    /   O peration     | Version:  5.x                                   |
|   \\  /    A nd           | Web:      www.OpenFOAM.org                      |
|    \\/     M anipulation  |                                                 |
\*---------------------------------------------------------------------------*/
FoamFile
{
    version     2.0;
    format      ascii;
    class       volScalarField;
    location    "3";
    object      T;
}
// * * * * * * * * * * * * * * * * * * * * * * * * * * * * * * * * * * * * * //

dimensions      [0 0 0 1 0 0 0];

internalField   nonuniform List<scalar> 
3200
(
7.25357e-08
6.45088e-08
6.33221e-08
4.80352e-08
4.66017e-08
3.40522e-08
3.29471e-08
2.43124e-08
2.35257e-08
1.74748e-08
1.3111e-08
1.27008e-08
9.739e-09
9.46874e-09
7.29892e-09
7.1008e-09
5.48559e-09
5.3377e-09
4.12541e-09
4.01421e-09
3.10016e-09
3.01626e-09
2.32555e-09
2.26213e-09
1.73988e-09
1.69194e-09
1.29727e-09
1.26107e-09
9.63252e-10
9.35959e-10
7.11727e-10
6.91202e-10
5.22863e-10
5.07477e-10
3.81552e-10
3.70064e-10
2.76274e-10
2.67736e-10
1.98243e-10
1.91933e-10
1.40762e-10
1.3613e-10
9.87314e-11
9.53583e-11
6.82717e-11
6.58393e-11
4.64356e-11
4.47004e-11
3.09771e-11
2.97174e-11
1.99031e-11
1.29821e-11
1.23493e-11
8.00679e-12
7.62952e-12
4.82466e-12
4.58493e-12
2.82258e-12
2.67373e-12
1.60127e-12
1.51169e-12
8.7982e-13
8.27579e-13
4.66694e-13
4.37137e-13
2.37009e-13
2.20768e-13
1.12994e-13
1.0434e-13
4.82291e-14
4.37938e-14
1.60043e-14
1.39297e-14
2.57545e-15
1.83162e-15
-6.29443e-16
-7.73778e-16
-7.99131e-16
-8.04886e-16
-8.06172e-16
7.16048e-08
6.48393e-08
6.21169e-08
4.91143e-08
4.58126e-08
3.50099e-08
3.24535e-08
2.49678e-08
2.3132e-08
1.76536e-08
1.35221e-08
1.25519e-08
9.96969e-09
9.34258e-09
7.46407e-09
7.00525e-09
5.608e-09
5.2656e-09
4.21711e-09
3.9597e-09
3.16925e-09
2.97501e-09
2.37774e-09
2.23093e-09
1.77934e-09
1.66837e-09
1.3271e-09
1.24329e-09
9.85776e-10
9.22594e-10
7.28699e-10
6.81185e-10
5.35617e-10
5e-10
3.91104e-10
3.64508e-10
2.83398e-10
2.63632e-10
2.03531e-10
1.88922e-10
1.44664e-10
1.33939e-10
1.0159e-10
9.37801e-11
7.03479e-11
6.4716e-11
4.7927e-11
4.39078e-11
3.20131e-11
2.90747e-11
2.02076e-11
1.36452e-11
1.21468e-11
8.35589e-12
7.47982e-12
5.04747e-12
4.49181e-12
2.96348e-12
2.61841e-12
1.6877e-12
1.47996e-12
9.31147e-13
8.09954e-13
4.96228e-13
4.27633e-13
2.53505e-13
2.15799e-13
1.21947e-13
1.01846e-13
5.29389e-14
4.26345e-14
1.8402e-14
1.35781e-14
3.6226e-15
1.88424e-15
-3.67643e-16
-7.12732e-16
-7.84813e-16
-8.01473e-16
-8.05203e-16
7.09442e-08
6.50077e-08
6.13225e-08
4.9805e-08
4.53232e-08
3.56374e-08
3.21569e-08
2.5397e-08
2.28839e-08
1.77783e-08
1.38067e-08
1.24674e-08
1.01221e-08
9.26641e-09
7.57236e-09
6.94718e-09
5.68816e-09
5.22169e-09
4.27715e-09
3.92648e-09
3.21446e-09
2.94986e-09
2.41189e-09
2.21191e-09
1.80516e-09
1.654e-09
1.34662e-09
1.23246e-09
1.00052e-09
9.14451e-10
7.39809e-10
6.75086e-10
5.43968e-10
4.95449e-10
3.9736e-10
3.6113e-10
2.88067e-10
2.61139e-10
2.06997e-10
1.87095e-10
1.47223e-10
1.32612e-10
1.03466e-10
9.2826e-11
7.17116e-11
6.40385e-11
4.89071e-11
4.34298e-11
3.26906e-11
2.8669e-11
2.04196e-11
1.41055e-11
1.20358e-11
8.58832e-12
7.3923e-12
5.19517e-12
4.43755e-12
3.05701e-12
2.5865e-12
1.7452e-12
1.46187e-12
9.65358e-13
8.00023e-13
5.15951e-13
4.22346e-13
2.64541e-13
2.13074e-13
1.27948e-13
1.00504e-13
5.61039e-14
4.20319e-14
2.00231e-14
1.34315e-14
4.34097e-15
1.95734e-15
-1.82135e-16
-6.62614e-16
-7.72712e-16
-7.98573e-16
-8.04379e-16
7.05205e-08
6.50852e-08
6.08406e-08
5.02136e-08
4.50414e-08
3.60163e-08
3.19911e-08
2.5656e-08
2.27392e-08
1.78575e-08
1.39858e-08
1.24229e-08
1.02148e-08
9.22366e-09
7.6378e-09
6.91438e-09
5.73655e-09
5.19685e-09
4.31337e-09
3.90766e-09
3.24174e-09
2.93561e-09
2.43249e-09
2.20113e-09
1.82074e-09
1.64585e-09
1.3584e-09
1.22632e-09
1.00941e-09
9.0984e-10
7.46513e-10
6.71634e-10
5.49008e-10
4.92876e-10
4.01137e-10
3.59221e-10
2.90886e-10
2.59732e-10
2.09091e-10
1.86065e-10
1.48769e-10
1.31865e-10
1.046e-10
9.22898e-11
7.25367e-11
6.36586e-11
4.95005e-11
4.31618e-11
3.30989e-11
2.84321e-11
2.0554e-11
1.43959e-11
1.19797e-11
8.73057e-12
7.34473e-12
5.28521e-12
4.40816e-12
3.11411e-12
2.56939e-12
1.78035e-12
1.45228e-12
9.86309e-13
7.94831e-13
5.28048e-13
4.19622e-13
2.7132e-13
2.11693e-13
1.31639e-13
9.9838e-14
5.80549e-14
4.1746e-14
2.10271e-14
1.33847e-14
4.79092e-15
2.02061e-15
-6.30206e-17
-6.2732e-16
-7.63979e-16
-7.9647e-16
-8.0378e-16
7.03135e-08
6.51142e-08
6.06133e-08
5.04033e-08
4.4913e-08
3.61946e-08
3.19172e-08
2.57778e-08
2.26727e-08
1.78959e-08
1.40723e-08
1.2404e-08
1.02586e-08
9.20455e-09
7.66862e-09
6.89964e-09
5.75932e-09
5.18567e-09
4.33041e-09
3.89919e-09
3.25456e-09
2.9292e-09
2.44218e-09
2.19627e-09
1.82806e-09
1.64219e-09
1.36394e-09
1.22356e-09
1.0136e-09
9.07766e-10
7.49667e-10
6.70081e-10
5.5138e-10
4.91718e-10
4.02915e-10
3.58364e-10
2.92212e-10
2.591e-10
2.10077e-10
1.85603e-10
1.49497e-10
1.3153e-10
1.05134e-10
9.20498e-11
7.29255e-11
6.34888e-11
4.97802e-11
4.3042e-11
3.32909e-11
2.83231e-11
2.06192e-11
1.45363e-11
1.19568e-11
8.79812e-12
7.32398e-12
5.32786e-12
4.39537e-12
3.14117e-12
2.562e-12
1.79703e-12
1.44818e-12
9.96261e-13
7.92638e-13
5.338e-13
4.18485e-13
2.74547e-13
2.11125e-13
1.33398e-13
9.95698e-14
5.89856e-14
4.16358e-14
2.15075e-14
1.33756e-14
5.00776e-15
2.05631e-15
-4.71887e-18
-6.09145e-16
-7.59411e-16
-7.95365e-16
-8.03465e-16
7.03135e-08
6.51142e-08
6.06133e-08
5.04033e-08
4.4913e-08
3.61946e-08
3.19172e-08
2.57778e-08
2.26727e-08
1.78959e-08
1.40723e-08
1.2404e-08
1.02586e-08
9.20455e-09
7.66862e-09
6.89964e-09
5.75932e-09
5.18567e-09
4.33041e-09
3.89919e-09
3.25456e-09
2.9292e-09
2.44218e-09
2.19627e-09
1.82806e-09
1.64219e-09
1.36394e-09
1.22356e-09
1.0136e-09
9.07766e-10
7.49668e-10
6.70081e-10
5.5138e-10
4.91718e-10
4.02915e-10
3.58364e-10
2.92212e-10
2.591e-10
2.10077e-10
1.85603e-10
1.49497e-10
1.3153e-10
1.05134e-10
9.20498e-11
7.29255e-11
6.34888e-11
4.97802e-11
4.3042e-11
3.32909e-11
2.83231e-11
2.06192e-11
1.45363e-11
1.19568e-11
8.79812e-12
7.32398e-12
5.32786e-12
4.39537e-12
3.14117e-12
2.562e-12
1.79703e-12
1.44818e-12
9.96261e-13
7.92637e-13
5.33799e-13
4.18485e-13
2.74546e-13
2.11125e-13
1.33398e-13
9.95697e-14
5.89855e-14
4.16357e-14
2.15075e-14
1.33755e-14
5.00775e-15
2.05631e-15
-4.72402e-18
-6.09148e-16
-7.59412e-16
-7.95366e-16
-8.03464e-16
7.05207e-08
6.50853e-08
6.08407e-08
5.02136e-08
4.50414e-08
3.60163e-08
3.19911e-08
2.5656e-08
2.27392e-08
1.78575e-08
1.39858e-08
1.24229e-08
1.02148e-08
9.22366e-09
7.6378e-09
6.91438e-09
5.73655e-09
5.19685e-09
4.31337e-09
3.90766e-09
3.24174e-09
2.93561e-09
2.43249e-09
2.20113e-09
1.82074e-09
1.64585e-09
1.3584e-09
1.22633e-09
1.00941e-09
9.09841e-10
7.46514e-10
6.71634e-10
5.49008e-10
4.92876e-10
4.01137e-10
3.59221e-10
2.90886e-10
2.59732e-10
2.09091e-10
1.86065e-10
1.48769e-10
1.31865e-10
1.046e-10
9.22898e-11
7.25367e-11
6.36586e-11
4.95005e-11
4.31618e-11
3.30989e-11
2.8432e-11
2.0554e-11
1.43959e-11
1.19797e-11
8.73056e-12
7.34473e-12
5.28521e-12
4.40816e-12
3.11411e-12
2.56938e-12
1.78035e-12
1.45228e-12
9.86308e-13
7.94831e-13
5.28047e-13
4.19621e-13
2.7132e-13
2.11693e-13
1.31639e-13
9.98379e-14
5.80548e-14
4.17459e-14
2.1027e-14
1.33846e-14
4.79089e-15
2.02058e-15
-6.30345e-17
-6.27328e-16
-7.63983e-16
-7.96472e-16
-8.03778e-16
7.09445e-08
6.50078e-08
6.13225e-08
4.9805e-08
4.53232e-08
3.56374e-08
3.21569e-08
2.5397e-08
2.28839e-08
1.77783e-08
1.38067e-08
1.24674e-08
1.01221e-08
9.26641e-09
7.57236e-09
6.94718e-09
5.68816e-09
5.22169e-09
4.27715e-09
3.92648e-09
3.21446e-09
2.94986e-09
2.41189e-09
2.21191e-09
1.80516e-09
1.654e-09
1.34662e-09
1.23246e-09
1.00052e-09
9.14452e-10
7.39809e-10
6.75086e-10
5.43968e-10
4.95449e-10
3.9736e-10
3.6113e-10
2.88067e-10
2.61139e-10
2.06997e-10
1.87095e-10
1.47223e-10
1.32612e-10
1.03466e-10
9.2826e-11
7.17116e-11
6.40385e-11
4.89071e-11
4.34298e-11
3.26906e-11
2.8669e-11
2.04196e-11
1.41055e-11
1.20358e-11
8.58831e-12
7.39229e-12
5.19517e-12
4.43755e-12
3.05701e-12
2.5865e-12
1.7452e-12
1.46186e-12
9.65357e-13
8.00022e-13
5.1595e-13
4.22346e-13
2.64541e-13
2.13074e-13
1.27948e-13
1.00503e-13
5.61038e-14
4.20317e-14
2.0023e-14
1.34315e-14
4.34093e-15
1.95731e-15
-1.82153e-16
-6.62624e-16
-7.72717e-16
-7.98576e-16
-8.04377e-16
7.16051e-08
6.48394e-08
6.2117e-08
4.91143e-08
4.58126e-08
3.50099e-08
3.24536e-08
2.49678e-08
2.3132e-08
1.76536e-08
1.35221e-08
1.25519e-08
9.9697e-09
9.34259e-09
7.46407e-09
7.00525e-09
5.608e-09
5.2656e-09
4.21712e-09
3.9597e-09
3.16925e-09
2.97501e-09
2.37774e-09
2.23093e-09
1.77934e-09
1.66837e-09
1.3271e-09
1.2433e-09
9.85776e-10
9.22595e-10
7.28699e-10
6.81186e-10
5.35617e-10
5e-10
3.91104e-10
3.64508e-10
2.83399e-10
2.63632e-10
2.03531e-10
1.88922e-10
1.44664e-10
1.33939e-10
1.0159e-10
9.37801e-11
7.03479e-11
6.4716e-11
4.7927e-11
4.39078e-11
3.20131e-11
2.90747e-11
2.02075e-11
1.36452e-11
1.21468e-11
8.35588e-12
7.47981e-12
5.04747e-12
4.49181e-12
2.96347e-12
2.61841e-12
1.6877e-12
1.47996e-12
9.31146e-13
8.09953e-13
4.96227e-13
4.27633e-13
2.53504e-13
2.15799e-13
1.21947e-13
1.01846e-13
5.29387e-14
4.26344e-14
1.84019e-14
1.3578e-14
3.62256e-15
1.88421e-15
-3.67658e-16
-7.12741e-16
-7.84818e-16
-8.01475e-16
-8.05202e-16
7.25359e-08
6.45089e-08
6.33222e-08
4.80352e-08
4.66017e-08
3.40522e-08
3.29471e-08
2.43124e-08
2.35257e-08
1.74748e-08
1.3111e-08
1.27009e-08
9.739e-09
9.46875e-09
7.29893e-09
7.1008e-09
5.4856e-09
5.33771e-09
4.12541e-09
4.01422e-09
3.10016e-09
3.01626e-09
2.32555e-09
2.26213e-09
1.73988e-09
1.69194e-09
1.29727e-09
1.26107e-09
9.63252e-10
9.35959e-10
7.11727e-10
6.91202e-10
5.22863e-10
5.07477e-10
3.81552e-10
3.70064e-10
2.76274e-10
2.67736e-10
1.98243e-10
1.91933e-10
1.40762e-10
1.3613e-10
9.87314e-11
9.53583e-11
6.82717e-11
6.58393e-11
4.64356e-11
4.47005e-11
3.09771e-11
2.97174e-11
1.99031e-11
1.29821e-11
1.23493e-11
8.00679e-12
7.62952e-12
4.82466e-12
4.58493e-12
2.82258e-12
2.67373e-12
1.60127e-12
1.51168e-12
8.7982e-13
8.27579e-13
4.66694e-13
4.37137e-13
2.37009e-13
2.20768e-13
1.12994e-13
1.0434e-13
4.8229e-14
4.37938e-14
1.60043e-14
1.39297e-14
2.57544e-15
1.83161e-15
-6.29449e-16
-7.73781e-16
-7.99133e-16
-8.04887e-16
-8.06171e-16
2.42238e-05
2.03773e-06
9.09319e-07
1.87425e-07
1.17581e-07
5.71809e-08
5.10827e-08
4.05859e-08
3.94892e-08
3.30466e-08
2.75602e-08
2.70094e-08
2.25267e-08
2.20936e-08
1.83094e-08
1.79474e-08
1.47972e-08
1.44975e-08
1.19069e-08
1.16614e-08
9.55032e-09
9.35086e-09
7.64201e-09
7.48089e-09
6.10432e-09
5.97472e-09
4.86972e-09
4.7658e-09
3.88106e-09
3.79792e-09
3.09089e-09
3.02449e-09
2.46028e-09
2.40732e-09
1.95759e-09
1.91539e-09
1.55726e-09
1.52366e-09
1.23869e-09
1.21197e-09
9.85376e-10
9.64133e-10
7.84062e-10
7.67183e-10
6.24143e-10
6.10735e-10
4.9712e-10
4.8645e-10
3.961e-10
3.87255e-10
3.12998e-10
2.52641e-10
2.46774e-10
2.00928e-10
1.96593e-10
1.59837e-10
1.56363e-10
1.26625e-10
1.23802e-10
9.95053e-11
9.71861e-11
7.70814e-11
7.51489e-11
5.82526e-11
5.66166e-11
4.21764e-11
4.07814e-11
2.84767e-11
2.73158e-11
1.73505e-11
1.6441e-11
8.97368e-12
8.30345e-12
2.89779e-12
2.50327e-12
3.4524e-13
2.26625e-13
2.06439e-13
2.01881e-13
2.00862e-13
2.1856e-05
3.84234e-06
1.28317e-06
3.31497e-07
1.47671e-07
6.90425e-08
5.30965e-08
4.19119e-08
3.92115e-08
3.31875e-08
2.80476e-08
2.67499e-08
2.2859e-08
2.18555e-08
1.85871e-08
1.77496e-08
1.50291e-08
1.43358e-08
1.20981e-08
1.15302e-08
9.70653e-09
9.24501e-09
7.76867e-09
7.39583e-09
6.20647e-09
5.90656e-09
4.95179e-09
4.7113e-09
3.94681e-09
3.75441e-09
3.14346e-09
2.9898e-09
2.50225e-09
2.37968e-09
1.99105e-09
1.8934e-09
1.58391e-09
1.50617e-09
1.25991e-09
1.19806e-09
1.00225e-09
9.53084e-10
7.97471e-10
7.58409e-10
6.34795e-10
6.03763e-10
5.05568e-10
4.80862e-10
4.02611e-10
3.81951e-10
3.14469e-10
2.5805e-10
2.44228e-10
2.04386e-10
1.94339e-10
1.62563e-10
1.54521e-10
1.28821e-10
1.22289e-10
1.01292e-10
9.59251e-11
7.85526e-11
7.40806e-11
5.94822e-11
5.56969e-11
4.32269e-11
4.00002e-11
2.93834e-11
2.66987e-11
1.81003e-11
1.59964e-11
9.54437e-12
7.99499e-12
3.34967e-12
2.43708e-12
5.53257e-13
2.75053e-13
2.17808e-13
2.04621e-13
2.01665e-13
2.02087e-05
5.02874e-06
1.59269e-06
4.44845e-07
1.73548e-07
7.83942e-08
5.49185e-08
4.28979e-08
3.90663e-08
3.32927e-08
2.83811e-08
2.65939e-08
2.30755e-08
2.1708e-08
1.87674e-08
1.7627e-08
1.51797e-08
1.42357e-08
1.22225e-08
1.14491e-08
9.80818e-09
9.17968e-09
7.85112e-09
7.34337e-09
6.27299e-09
5.86456e-09
5.00525e-09
4.67773e-09
3.98965e-09
3.72762e-09
3.17771e-09
2.96844e-09
2.52959e-09
2.36267e-09
2.01286e-09
1.87986e-09
1.60128e-09
1.4954e-09
1.27373e-09
1.1895e-09
1.01324e-09
9.46286e-10
8.06211e-10
7.5301e-10
6.41738e-10
5.99474e-10
5.11073e-10
4.77413e-10
4.06815e-10
3.78517e-10
3.15495e-10
2.61753e-10
2.42721e-10
2.06652e-10
1.92954e-10
1.64338e-10
1.53384e-10
1.3025e-10
1.21353e-10
1.02454e-10
9.51436e-11
7.95072e-11
7.34168e-11
6.02788e-11
5.51241e-11
4.39074e-11
3.95142e-11
2.99726e-11
2.6318e-11
1.85901e-11
1.57256e-11
9.91886e-12
7.81031e-12
3.65219e-12
2.40971e-12
6.97033e-13
3.14635e-13
2.27411e-13
2.06949e-13
2.02348e-13
1.91686e-05
5.74534e-06
1.81066e-06
5.23112e-07
1.9237e-07
8.48748e-08
5.62806e-08
4.35554e-08
3.89983e-08
3.3363e-08
2.85893e-08
2.65068e-08
2.32058e-08
2.1623e-08
1.88754e-08
1.75565e-08
1.52701e-08
1.41782e-08
1.22972e-08
1.14026e-08
9.86922e-09
9.14224e-09
7.90065e-09
7.31334e-09
6.31296e-09
5.84052e-09
5.03737e-09
4.65852e-09
4.0154e-09
3.7123e-09
3.1983e-09
2.95622e-09
2.54603e-09
2.35294e-09
2.02597e-09
1.87212e-09
1.61173e-09
1.48925e-09
1.28204e-09
1.18461e-09
1.01986e-09
9.42402e-10
8.11467e-10
7.49926e-10
6.45912e-10
5.97022e-10
5.14381e-10
4.75436e-10
4.09322e-10
3.76467e-10
3.16145e-10
2.64064e-10
2.41892e-10
2.0802e-10
1.92162e-10
1.65404e-10
1.52732e-10
1.31107e-10
1.20816e-10
1.0315e-10
9.46941e-11
8.00789e-11
7.30341e-11
6.07554e-11
5.47932e-11
4.43144e-11
3.92338e-11
3.03259e-11
2.60998e-11
1.88851e-11
1.55723e-11
1.01453e-11
7.7075e-12
3.83801e-12
2.40111e-12
7.87571e-13
3.42395e-13
2.34336e-13
2.08637e-13
2.02844e-13
1.86653e-05
6.08234e-06
1.9227e-06
5.63086e-07
2.02252e-07
8.81944e-08
5.70056e-08
4.38849e-08
3.89726e-08
3.33982e-08
2.86893e-08
2.64681e-08
2.3267e-08
2.15844e-08
1.8926e-08
1.75244e-08
1.53124e-08
1.41521e-08
1.23322e-08
1.13815e-08
9.89784e-09
9.12525e-09
7.92388e-09
7.29971e-09
6.33171e-09
5.82962e-09
5.05244e-09
4.64981e-09
4.02748e-09
3.70535e-09
3.20797e-09
2.95069e-09
2.55375e-09
2.34853e-09
2.03212e-09
1.86861e-09
1.61663e-09
1.48646e-09
1.28595e-09
1.1824e-09
1.02296e-09
9.40643e-10
8.13934e-10
7.48529e-10
6.47872e-10
5.95912e-10
5.15934e-10
4.74538e-10
4.10492e-10
3.75511e-10
3.16461e-10
2.65175e-10
2.41528e-10
2.08664e-10
1.91804e-10
1.65904e-10
1.52437e-10
1.31509e-10
1.20571e-10
1.03476e-10
9.44894e-11
8.03466e-11
7.28595e-11
6.09783e-11
5.46421e-11
4.45047e-11
3.91058e-11
3.04914e-11
2.60008e-11
1.90237e-11
1.55034e-11
1.02519e-11
7.66183e-12
3.92644e-12
2.39952e-12
8.31344e-13
3.56653e-13
2.37956e-13
2.09524e-13
2.03104e-13
1.86653e-05
6.08234e-06
1.9227e-06
5.63084e-07
2.02251e-07
8.81939e-08
5.70054e-08
4.38848e-08
3.89726e-08
3.33982e-08
2.86893e-08
2.64681e-08
2.3267e-08
2.15844e-08
1.8926e-08
1.75244e-08
1.53124e-08
1.41521e-08
1.23322e-08
1.13815e-08
9.89784e-09
9.12525e-09
7.92388e-09
7.29971e-09
6.33171e-09
5.82962e-09
5.05244e-09
4.64981e-09
4.02748e-09
3.70535e-09
3.20797e-09
2.95069e-09
2.55375e-09
2.34853e-09
2.03212e-09
1.86861e-09
1.61663e-09
1.48646e-09
1.28595e-09
1.1824e-09
1.02296e-09
9.40643e-10
8.13934e-10
7.48529e-10
6.47872e-10
5.95912e-10
5.15934e-10
4.74538e-10
4.10492e-10
3.75511e-10
3.16461e-10
2.65175e-10
2.41528e-10
2.08664e-10
1.91804e-10
1.65904e-10
1.52437e-10
1.31509e-10
1.20571e-10
1.03476e-10
9.44895e-11
8.03466e-11
7.28595e-11
6.09783e-11
5.46421e-11
4.45047e-11
3.91058e-11
3.04914e-11
2.60008e-11
1.90237e-11
1.55034e-11
1.02519e-11
7.66182e-12
3.92644e-12
2.39951e-12
8.31341e-13
3.56651e-13
2.37956e-13
2.09524e-13
2.03104e-13
1.91686e-05
5.74534e-06
1.81065e-06
5.23108e-07
1.92367e-07
8.48734e-08
5.628e-08
4.35552e-08
3.89982e-08
3.3363e-08
2.85893e-08
2.65068e-08
2.32058e-08
2.1623e-08
1.88754e-08
1.75565e-08
1.52701e-08
1.41782e-08
1.22972e-08
1.14026e-08
9.86922e-09
9.14224e-09
7.90065e-09
7.31334e-09
6.31296e-09
5.84052e-09
5.03737e-09
4.65852e-09
4.0154e-09
3.7123e-09
3.19831e-09
2.95622e-09
2.54603e-09
2.35294e-09
2.02597e-09
1.87212e-09
1.61173e-09
1.48925e-09
1.28205e-09
1.18462e-09
1.01986e-09
9.42403e-10
8.11467e-10
7.49926e-10
6.45913e-10
5.97023e-10
5.14381e-10
4.75436e-10
4.09322e-10
3.76468e-10
3.16145e-10
2.64064e-10
2.41892e-10
2.0802e-10
1.92162e-10
1.65404e-10
1.52732e-10
1.31107e-10
1.20816e-10
1.0315e-10
9.46941e-11
8.0079e-11
7.30341e-11
6.07554e-11
5.47932e-11
4.43144e-11
3.92338e-11
3.03259e-11
2.60998e-11
1.88851e-11
1.55723e-11
1.01453e-11
7.70749e-12
3.838e-12
2.4011e-12
7.87566e-13
3.42391e-13
2.34334e-13
2.08637e-13
2.02843e-13
2.02087e-05
5.02874e-06
1.59269e-06
4.44839e-07
1.73544e-07
7.83925e-08
5.49178e-08
4.28976e-08
3.90663e-08
3.32927e-08
2.83811e-08
2.65939e-08
2.30756e-08
2.1708e-08
1.87674e-08
1.7627e-08
1.51797e-08
1.42357e-08
1.22225e-08
1.14491e-08
9.80819e-09
9.17968e-09
7.85113e-09
7.34338e-09
6.273e-09
5.86456e-09
5.00525e-09
4.67773e-09
3.98965e-09
3.72762e-09
3.17772e-09
2.96844e-09
2.5296e-09
2.36267e-09
2.01286e-09
1.87986e-09
1.60128e-09
1.4954e-09
1.27373e-09
1.18951e-09
1.01324e-09
9.46287e-10
8.06212e-10
7.53011e-10
6.41738e-10
5.99474e-10
5.11073e-10
4.77413e-10
4.06815e-10
3.78517e-10
3.15495e-10
2.61753e-10
2.42721e-10
2.06652e-10
1.92954e-10
1.64338e-10
1.53384e-10
1.3025e-10
1.21353e-10
1.02454e-10
9.51437e-11
7.95072e-11
7.34168e-11
6.02789e-11
5.51241e-11
4.39074e-11
3.95142e-11
2.99726e-11
2.6318e-11
1.85901e-11
1.57256e-11
9.91884e-12
7.81029e-12
3.65217e-12
2.4097e-12
6.97025e-13
3.1463e-13
2.27409e-13
2.06948e-13
2.02347e-13
2.1856e-05
3.84234e-06
1.28316e-06
3.31492e-07
1.47668e-07
6.9041e-08
5.30959e-08
4.19117e-08
3.92114e-08
3.31875e-08
2.80476e-08
2.67499e-08
2.2859e-08
2.18556e-08
1.85871e-08
1.77496e-08
1.50291e-08
1.43358e-08
1.20981e-08
1.15302e-08
9.70654e-09
9.24501e-09
7.76867e-09
7.39583e-09
6.20648e-09
5.90657e-09
4.95179e-09
4.7113e-09
3.94682e-09
3.75442e-09
3.14346e-09
2.9898e-09
2.50225e-09
2.37968e-09
1.99106e-09
1.8934e-09
1.58391e-09
1.50617e-09
1.25991e-09
1.19806e-09
1.00225e-09
9.53085e-10
7.97472e-10
7.58409e-10
6.34795e-10
6.03764e-10
5.05568e-10
4.80863e-10
4.02611e-10
3.81951e-10
3.14469e-10
2.5805e-10
2.44228e-10
2.04387e-10
1.94339e-10
1.62563e-10
1.54521e-10
1.28821e-10
1.22289e-10
1.01292e-10
9.59251e-11
7.85526e-11
7.40806e-11
5.94822e-11
5.56969e-11
4.32269e-11
4.00002e-11
2.93834e-11
2.66987e-11
1.81003e-11
1.59964e-11
9.54436e-12
7.99498e-12
3.34966e-12
2.43707e-12
5.53251e-13
2.7505e-13
2.17807e-13
2.0462e-13
2.01664e-13
2.42238e-05
2.03772e-06
9.09317e-07
1.87423e-07
1.17579e-07
5.71804e-08
5.10825e-08
4.05859e-08
3.94891e-08
3.30466e-08
2.75602e-08
2.70094e-08
2.25267e-08
2.20936e-08
1.83094e-08
1.79474e-08
1.47972e-08
1.44975e-08
1.19069e-08
1.16614e-08
9.55032e-09
9.35087e-09
7.64201e-09
7.48089e-09
6.10432e-09
5.97472e-09
4.86972e-09
4.7658e-09
3.88107e-09
3.79792e-09
3.09089e-09
3.02449e-09
2.46028e-09
2.40732e-09
1.95759e-09
1.91539e-09
1.55726e-09
1.52366e-09
1.23869e-09
1.21197e-09
9.85376e-10
9.64133e-10
7.84063e-10
7.67184e-10
6.24143e-10
6.10735e-10
4.9712e-10
4.8645e-10
3.96101e-10
3.87255e-10
3.12998e-10
2.52641e-10
2.46774e-10
2.00928e-10
1.96593e-10
1.59838e-10
1.56363e-10
1.26625e-10
1.23802e-10
9.95054e-11
9.71861e-11
7.70814e-11
7.51489e-11
5.82526e-11
5.66166e-11
4.21764e-11
4.07814e-11
2.84767e-11
2.73158e-11
1.73505e-11
1.6441e-11
8.97368e-12
8.30345e-12
2.89779e-12
2.50326e-12
3.45237e-13
2.26623e-13
2.06438e-13
2.01881e-13
2.00862e-13
2.42327e-05
2.03801e-06
9.09144e-07
1.86643e-07
1.16759e-07
5.63975e-08
5.03048e-08
3.99028e-08
3.88162e-08
3.24711e-08
2.70741e-08
2.65323e-08
2.21249e-08
2.16991e-08
1.79795e-08
1.76237e-08
1.4528e-08
1.42336e-08
1.16884e-08
1.14473e-08
9.37368e-09
9.17779e-09
7.49968e-09
7.34147e-09
5.98994e-09
5.8627e-09
4.778e-09
4.676e-09
3.80767e-09
3.72607e-09
3.03226e-09
2.9671e-09
2.41351e-09
2.36155e-09
1.92034e-09
1.87894e-09
1.52761e-09
1.49466e-09
1.21513e-09
1.18892e-09
9.66665e-10
9.45829e-10
7.69214e-10
7.52659e-10
6.12366e-10
5.99215e-10
4.87783e-10
4.77317e-10
3.88702e-10
3.80026e-10
3.07193e-10
2.47991e-10
2.42236e-10
1.97264e-10
1.93012e-10
1.56956e-10
1.53547e-10
1.24372e-10
1.21603e-10
9.7763e-11
9.54872e-11
7.57572e-11
7.38605e-11
5.72746e-11
5.56683e-11
4.14874e-11
4.0117e-11
2.80247e-11
2.68835e-11
1.70824e-11
1.61878e-11
8.83946e-12
8.17965e-12
2.85482e-12
2.46618e-12
3.40048e-13
2.23188e-13
2.03301e-13
1.98811e-13
1.97807e-13
2.1864e-05
3.84332e-06
1.28311e-06
3.30801e-07
1.46873e-07
6.82618e-08
5.23273e-08
4.12229e-08
3.85463e-08
3.26111e-08
2.75539e-08
2.62773e-08
2.24516e-08
2.14652e-08
1.82524e-08
1.74294e-08
1.47559e-08
1.40747e-08
1.18763e-08
1.13184e-08
9.52713e-09
9.07385e-09
7.62406e-09
7.25796e-09
6.09023e-09
5.7958e-09
4.85857e-09
4.62251e-09
3.8722e-09
3.68338e-09
3.08384e-09
2.93306e-09
2.45469e-09
2.33443e-09
1.95316e-09
1.85736e-09
1.55376e-09
1.4775e-09
1.23594e-09
1.17528e-09
9.83213e-10
9.34993e-10
7.82366e-10
7.44053e-10
6.22813e-10
5.92377e-10
4.96068e-10
4.71837e-10
3.95088e-10
3.74824e-10
3.08635e-10
2.53296e-10
2.39738e-10
2.00657e-10
1.90802e-10
1.59629e-10
1.5174e-10
1.26527e-10
1.20118e-10
9.95164e-11
9.42496e-11
7.72009e-11
7.28117e-11
5.84815e-11
5.47649e-11
4.25189e-11
3.9349e-11
2.89155e-11
2.62763e-11
1.78197e-11
1.57501e-11
9.40091e-12
7.87563e-12
3.2999e-12
2.40095e-12
5.44986e-13
2.709e-13
2.14502e-13
2.0151e-13
1.98598e-13
2.02161e-05
5.03018e-06
1.59274e-06
4.44213e-07
1.72769e-07
7.76164e-08
5.41553e-08
4.22054e-08
3.84063e-08
3.27158e-08
2.78823e-08
2.61241e-08
2.26646e-08
2.13201e-08
1.84297e-08
1.73089e-08
1.4904e-08
1.39764e-08
1.19985e-08
1.12388e-08
9.62699e-09
9.00971e-09
7.70504e-09
7.20647e-09
6.15555e-09
5.75458e-09
4.91105e-09
4.58957e-09
3.91425e-09
3.65709e-09
3.11746e-09
2.9121e-09
2.48152e-09
2.31774e-09
1.97456e-09
1.84408e-09
1.5708e-09
1.46694e-09
1.2495e-09
1.16689e-09
9.94e-10
9.28326e-10
7.90938e-10
7.38758e-10
6.29623e-10
5.8817e-10
5.01467e-10
4.68454e-10
3.99211e-10
3.71456e-10
3.09641e-10
2.56928e-10
2.3826e-10
2.02879e-10
1.89442e-10
1.61371e-10
1.50624e-10
1.27928e-10
1.19199e-10
1.00656e-10
9.34826e-11
7.81376e-11
7.216e-11
5.92633e-11
5.42023e-11
4.31869e-11
3.88713e-11
2.94943e-11
2.59016e-11
1.83013e-11
1.54835e-11
9.76932e-12
7.69357e-12
3.59786e-12
2.37396e-12
6.86632e-13
3.09895e-13
2.23963e-13
2.03803e-13
1.99271e-13
1.91755e-05
5.74706e-06
1.81078e-06
5.22523e-07
1.91605e-07
8.40993e-08
5.55211e-08
4.28609e-08
3.83415e-08
3.27857e-08
2.80872e-08
2.60385e-08
2.27927e-08
2.12367e-08
1.85359e-08
1.72396e-08
1.49928e-08
1.39199e-08
1.20719e-08
1.11931e-08
9.68694e-09
8.97295e-09
7.75368e-09
7.17698e-09
6.1948e-09
5.73098e-09
4.94258e-09
4.57072e-09
3.93952e-09
3.64205e-09
3.13767e-09
2.90012e-09
2.49765e-09
2.3082e-09
1.98742e-09
1.83649e-09
1.58105e-09
1.4609e-09
1.25766e-09
1.16209e-09
1.00049e-09
9.24516e-10
7.96093e-10
7.35733e-10
6.33717e-10
5.85766e-10
5.04712e-10
4.66515e-10
4.01669e-10
3.69445e-10
3.10279e-10
2.59195e-10
2.37447e-10
2.04221e-10
1.88666e-10
1.62417e-10
1.49985e-10
1.28769e-10
1.18672e-10
1.01339e-10
9.30414e-11
7.86986e-11
7.17842e-11
5.9731e-11
5.38772e-11
4.35865e-11
3.85955e-11
2.98414e-11
2.56869e-11
1.85914e-11
1.53326e-11
9.99204e-12
7.5922e-12
3.78088e-12
2.36547e-12
7.75829e-13
3.37244e-13
2.30785e-13
2.05467e-13
1.99759e-13
1.86721e-05
6.08419e-06
1.92286e-06
5.62518e-07
2.01494e-07
8.74202e-08
5.62479e-08
4.31895e-08
3.83173e-08
3.28208e-08
2.81858e-08
2.60005e-08
2.28529e-08
2.11987e-08
1.85857e-08
1.72081e-08
1.50344e-08
1.38942e-08
1.21063e-08
1.11724e-08
9.71506e-09
8.95627e-09
7.7765e-09
7.16361e-09
6.21321e-09
5.72028e-09
4.95738e-09
4.56218e-09
3.95137e-09
3.63524e-09
3.14715e-09
2.89469e-09
2.50522e-09
2.30388e-09
1.99346e-09
1.83305e-09
1.58586e-09
1.45817e-09
1.26148e-09
1.15992e-09
1.00353e-09
9.22791e-10
7.98513e-10
7.34363e-10
6.35639e-10
5.84677e-10
5.06235e-10
4.65634e-10
4.02817e-10
3.68507e-10
3.10589e-10
2.60284e-10
2.3709e-10
2.04853e-10
1.88314e-10
1.62907e-10
1.49695e-10
1.29164e-10
1.18432e-10
1.01659e-10
9.28405e-11
7.89613e-11
7.16128e-11
5.99498e-11
5.37288e-11
4.37734e-11
3.84697e-11
3.0004e-11
2.55895e-11
1.87277e-11
1.52647e-11
1.0097e-11
7.54717e-12
3.86797e-12
2.36389e-12
8.18952e-13
3.51291e-13
2.34352e-13
2.0634e-13
2.00016e-13
1.86721e-05
6.08419e-06
1.92286e-06
5.62516e-07
2.01493e-07
8.74197e-08
5.62477e-08
4.31894e-08
3.83173e-08
3.28208e-08
2.81858e-08
2.60005e-08
2.28529e-08
2.11987e-08
1.85857e-08
1.72081e-08
1.50344e-08
1.38942e-08
1.21063e-08
1.11724e-08
9.71506e-09
8.95627e-09
7.7765e-09
7.16361e-09
6.21321e-09
5.72028e-09
4.95738e-09
4.56218e-09
3.95137e-09
3.63524e-09
3.14715e-09
2.89469e-09
2.50522e-09
2.30388e-09
1.99346e-09
1.83305e-09
1.58586e-09
1.45817e-09
1.26148e-09
1.15992e-09
1.00353e-09
9.22791e-10
7.98513e-10
7.34363e-10
6.35639e-10
5.84677e-10
5.06235e-10
4.65634e-10
4.02817e-10
3.68507e-10
3.10589e-10
2.60284e-10
2.3709e-10
2.04853e-10
1.88314e-10
1.62907e-10
1.49695e-10
1.29164e-10
1.18432e-10
1.01659e-10
9.28405e-11
7.89613e-11
7.16128e-11
5.99498e-11
5.37288e-11
4.37734e-11
3.84697e-11
3.0004e-11
2.55895e-11
1.87277e-11
1.52646e-11
1.0097e-11
7.54716e-12
3.86797e-12
2.36389e-12
8.1895e-13
3.51289e-13
2.34351e-13
2.0634e-13
2.00015e-13
1.91756e-05
5.74706e-06
1.81077e-06
5.22518e-07
1.91603e-07
8.4098e-08
5.55206e-08
4.28607e-08
3.83414e-08
3.27857e-08
2.80873e-08
2.60386e-08
2.27927e-08
2.12367e-08
1.85359e-08
1.72396e-08
1.49928e-08
1.39199e-08
1.20719e-08
1.11931e-08
9.68695e-09
8.97296e-09
7.75369e-09
7.17699e-09
6.1948e-09
5.73098e-09
4.94259e-09
4.57072e-09
3.93952e-09
3.64205e-09
3.13767e-09
2.90012e-09
2.49765e-09
2.3082e-09
1.98742e-09
1.83649e-09
1.58105e-09
1.4609e-09
1.25766e-09
1.16209e-09
1.00049e-09
9.24517e-10
7.96094e-10
7.35734e-10
6.33717e-10
5.85766e-10
5.04712e-10
4.66515e-10
4.0167e-10
3.69446e-10
3.10279e-10
2.59195e-10
2.37447e-10
2.04221e-10
1.88666e-10
1.62417e-10
1.49985e-10
1.2877e-10
1.18672e-10
1.01339e-10
9.30414e-11
7.86986e-11
7.17842e-11
5.9731e-11
5.38772e-11
4.35865e-11
3.85955e-11
2.98414e-11
2.56869e-11
1.85914e-11
1.53326e-11
9.99203e-12
7.59219e-12
3.78087e-12
2.36546e-12
7.75823e-13
3.37241e-13
2.30783e-13
2.05466e-13
1.99758e-13
2.02161e-05
5.03018e-06
1.59273e-06
4.44207e-07
1.72766e-07
7.76147e-08
5.41546e-08
4.22051e-08
3.84063e-08
3.27158e-08
2.78823e-08
2.61241e-08
2.26646e-08
2.13201e-08
1.84297e-08
1.73089e-08
1.4904e-08
1.39764e-08
1.19985e-08
1.12388e-08
9.627e-09
9.00971e-09
7.70505e-09
7.20647e-09
6.15556e-09
5.75458e-09
4.91105e-09
4.58957e-09
3.91425e-09
3.65709e-09
3.11746e-09
2.91211e-09
2.48152e-09
2.31775e-09
1.97456e-09
1.84408e-09
1.5708e-09
1.46694e-09
1.2495e-09
1.16689e-09
9.94e-10
9.28327e-10
7.90939e-10
7.38759e-10
6.29623e-10
5.88171e-10
5.01468e-10
4.68454e-10
3.99211e-10
3.71456e-10
3.09641e-10
2.56928e-10
2.3826e-10
2.02879e-10
1.89442e-10
1.61371e-10
1.50625e-10
1.27928e-10
1.19199e-10
1.00656e-10
9.34826e-11
7.81376e-11
7.216e-11
5.92633e-11
5.42023e-11
4.3187e-11
3.88713e-11
2.94943e-11
2.59016e-11
1.83013e-11
1.54835e-11
9.7693e-12
7.69356e-12
3.59784e-12
2.37395e-12
6.86625e-13
3.09891e-13
2.23961e-13
2.03802e-13
1.9927e-13
2.1864e-05
3.84332e-06
1.2831e-06
3.30796e-07
1.4687e-07
6.82603e-08
5.23267e-08
4.12227e-08
3.85462e-08
3.26111e-08
2.75539e-08
2.62773e-08
2.24517e-08
2.14652e-08
1.82525e-08
1.74294e-08
1.47559e-08
1.40747e-08
1.18763e-08
1.13184e-08
9.52714e-09
9.07386e-09
7.62407e-09
7.25797e-09
6.09024e-09
5.79581e-09
4.85857e-09
4.62252e-09
3.8722e-09
3.68338e-09
3.08385e-09
2.93306e-09
2.45469e-09
2.33443e-09
1.95317e-09
1.85736e-09
1.55376e-09
1.4775e-09
1.23594e-09
1.17528e-09
9.83214e-10
9.34994e-10
7.82366e-10
7.44053e-10
6.22813e-10
5.92378e-10
4.96069e-10
4.71837e-10
3.95088e-10
3.74824e-10
3.08635e-10
2.53296e-10
2.39739e-10
2.00657e-10
1.90802e-10
1.5963e-10
1.5174e-10
1.26527e-10
1.20118e-10
9.95164e-11
9.42496e-11
7.72009e-11
7.28117e-11
5.84815e-11
5.4765e-11
4.25189e-11
3.9349e-11
2.89155e-11
2.62763e-11
1.78197e-11
1.57501e-11
9.4009e-12
7.87562e-12
3.29988e-12
2.40094e-12
5.44979e-13
2.70896e-13
2.14501e-13
2.01509e-13
1.98597e-13
2.42327e-05
2.03801e-06
9.09142e-07
1.86641e-07
1.16757e-07
5.63969e-08
5.03046e-08
3.99027e-08
3.88162e-08
3.24711e-08
2.70741e-08
2.65323e-08
2.21249e-08
2.16991e-08
1.79795e-08
1.76238e-08
1.4528e-08
1.42336e-08
1.16884e-08
1.14473e-08
9.37369e-09
9.1778e-09
7.49968e-09
7.34147e-09
5.98994e-09
5.8627e-09
4.77801e-09
4.676e-09
3.80767e-09
3.72607e-09
3.03226e-09
2.9671e-09
2.41351e-09
2.36155e-09
1.92034e-09
1.87894e-09
1.52761e-09
1.49466e-09
1.21513e-09
1.18892e-09
9.66666e-10
9.4583e-10
7.69214e-10
7.52659e-10
6.12366e-10
5.99215e-10
4.87783e-10
4.77317e-10
3.88702e-10
3.80026e-10
3.07193e-10
2.47991e-10
2.42236e-10
1.97264e-10
1.93012e-10
1.56956e-10
1.53547e-10
1.24372e-10
1.21603e-10
9.7763e-11
9.54872e-11
7.57572e-11
7.38605e-11
5.72746e-11
5.56684e-11
4.14874e-11
4.0117e-11
2.80247e-11
2.68835e-11
1.70824e-11
1.61878e-11
8.83946e-12
8.17965e-12
2.85481e-12
2.46618e-12
3.40046e-13
2.23187e-13
2.033e-13
1.98811e-13
1.97807e-13
7.16218e-08
6.3674e-08
6.2501e-08
4.74016e-08
4.59858e-08
3.3594e-08
3.25029e-08
2.39801e-08
2.32036e-08
1.72328e-08
1.29277e-08
1.25231e-08
9.60177e-09
9.33522e-09
7.19539e-09
7.00001e-09
5.40733e-09
5.26151e-09
4.06624e-09
3.95661e-09
3.05548e-09
2.97276e-09
2.29187e-09
2.22936e-09
1.71457e-09
1.66732e-09
1.27832e-09
1.24263e-09
9.49118e-10
9.22219e-10
7.01239e-10
6.81012e-10
5.15125e-10
4.99964e-10
3.75881e-10
3.64561e-10
2.72151e-10
2.63738e-10
1.95272e-10
1.89056e-10
1.38644e-10
1.34081e-10
9.724e-11
9.39173e-11
6.72363e-11
6.48405e-11
4.57287e-11
4.40197e-11