/*--------------------------------*- C++ -*----------------------------------*\
| =========                 |                                                 |
| \\      /  F ield         | OpenFOAM: The Open Source CFD Toolbox           |
|  \\    /   O peration     | Version:  5.x                                   |
|   \\  /    A nd           | Web:      www.OpenFOAM.org                      |
|    \\/     M anipulation  |                                                 |
\*---------------------------------------------------------------------------*/
FoamFile
{
    version     2.0;
    format      ascii;
    class       volScalarField;
    location    "2.1";
    object      gradTx;
}
// * * * * * * * * * * * * * * * * * * * * * * * * * * * * * * * * * * * * * //

dimensions      [0 -1 0 1 0 0 0];

internalField   nonuniform List<scalar> 
6300
(
297.324
298.358
300.387
303.333
307.072
311.433
316.187
321.05
325.676
329.666
332.58
333.958
333.357
330.388
324.759
296.264
297.336
299.443
302.512
306.424
311.012
316.052
321.259
326.285
330.715
334.088
335.911
335.7
333.024
327.553
294.104
295.251
297.512
300.822
305.073
310.11
315.721
321.623
327.46
332.795
337.118
339.871
340.483
338.429
333.3
290.772
292.025
294.506
298.163
302.908
308.608
315.07
322.025
329.11
335.857
341.692
345.945
347.904
346.883
342.328
286.16
287.544
290.297
294.389
299.762
306.317
313.9
322.268
331.069
339.805
347.818
354.287
358.278
358.845
355.187
280.138
281.666
284.723
289.308
295.405
302.972
311.915
322.051
333.064
344.449
355.459
365.077
372.047
375.005
372.728
272.563
274.234
277.596
282.687
289.551
298.225
308.71
320.93
334.659
349.438
364.462
378.486
389.799
396.372
396.242
263.291
265.085
268.716
274.267
281.86
291.639
303.744
318.27
335.174
354.151
374.434
394.573
412.26
424.407
427.72
252.201
254.074
257.888
263.781
271.959
282.699
296.331
313.202
333.589
357.528
384.518
413.076
440.226
461.241
470.33
239.213
241.098
244.959
250.983
259.47
270.84
285.651
304.589
328.42
357.821
392.999
432.952
474.288
509.961
529.384
224.318
226.123
229.841
235.7
244.074
255.516
270.816
291.056
317.652
352.303
396.668
451.403
513.971
574.884
614.442
207.595
209.212
212.559
217.881
225.585
236.31
251.016
271.139
298.799
337.038
389.929
461.979
555.26
661.113
744.431
189.235
190.55
193.282
197.656
204.055
213.099
225.773
243.658
269.337
307.087
363.993
451.28
583.928
769.816
961.871
169.541
170.451
172.344
175.385
179.859
186.236
195.295
208.359
227.776
257.948
307.638
395.179
559.298
872.28
1379.03
148.919
149.349
150.241
151.664
153.74
156.67
160.791
166.685
175.435
189.264
213.401
262.462
385.75
780.887
2355.23
317.233
308.225
297.325
284.681
270.499
255.032
238.556
221.36
203.728
185.928
168.204
150.767
133.798
117.443
101.813
86.987
73.0163
59.9247
47.7135
36.3655
25.8484
16.1187
7.12498
-1.18929
-8.88297
-16.0156
-22.6457
-28.8303
-34.6233
-40.0762
-45.2366
-50.1489
-54.8534
-59.3867
-63.7807
-68.0634
-72.2582
-76.3842
-80.4565
-84.4864
-88.4824
-92.4503
-96.3943
-100.318
-104.223
-108.113
-111.99
-115.856
-119.715
-123.568
-127.415
-131.255
-135.085
-138.899
-142.692
-146.454
-150.176
-153.847
-157.458
-160.998
-164.461
-167.836
-171.116
-174.291
-177.349
-180.277
-183.056
-185.661
-188.065
-190.235
-192.132
-193.717
-194.948
-195.783
-196.184
-196.115
-195.548
-194.457
-192.827
-190.65
-187.926
-184.664
-180.883
-176.612
-171.892
-166.773
-161.318
-155.598
-149.692
-143.685
320.043
310.928
299.818
286.878
272.338
256.473
239.584
221.982
203.967
185.82
167.791
150.098
132.923
116.409
100.667
85.7707
71.7673
58.6752
46.4904
35.1902
24.7368
15.082
6.16998
-2.0591
-9.66696
-16.7152
-23.2638
-29.3707
-35.0906
-40.4752
-45.5727
-50.4277
-55.0808
-59.5687
-63.9237
-68.1737
-72.3421
-76.4474
-80.5043
-84.5232
-88.5117
-92.4745
-96.4149
-100.335
-104.238
-108.125
-111.998
-115.862
-119.72
-123.572
-127.421
-131.266
-135.104
-138.929
-142.735
-146.511
-150.247
-153.933
-157.558
-161.111
-164.586
-167.973
-171.267
-174.458
-177.538
-180.493
-183.305
-185.952
-188.404
-190.627
-192.583
-194.228
-195.518
-196.409
-196.861
-196.835
-196.301
-195.234
-193.616
-191.438
-188.701
-185.412
-181.589
-177.261
-172.467
-167.259
-161.7
-155.865
-149.838
-143.708
325.826
316.483
304.929
291.365
276.071
259.376
241.632
223.193
204.394
185.539
166.896
148.689
131.102
114.275
98.3133
83.2837
69.2224
56.1374
44.0134
32.8161
22.4972
12.9982
4.25482
-3.79989
-11.2331
-18.1105
-24.4947
-30.4453
-36.0182
-41.2659
-46.2371
-50.977
-55.5268
-59.9238
-64.2007
-68.3856
-72.5015
-76.5664
-80.5936
-84.592
-88.5669
-92.521
-96.4553
-100.371
-104.268
-108.148
-112.016
-115.873
-119.726
-123.577
-127.43
-131.284
-135.138
-138.985
-142.817
-146.623
-150.391
-154.107
-157.759
-161.338
-164.836
-168.246
-171.565
-174.787
-177.907
-180.914
-183.793
-186.523
-189.073
-191.407
-193.481
-195.25
-196.662
-197.67
-198.225
-198.288
-197.823
-196.804
-195.211
-193.034
-190.271
-186.929
-183.023
-178.58
-173.638
-168.249
-162.48
-156.41
-150.133
-143.748
334.919
325.202
312.915
298.328
281.809
263.777
244.672
224.916
204.897
184.955
165.376
146.394
128.193
110.907
94.6306
79.4178
65.289
52.2349
40.2224
29.1991
19.0995
9.84966
1.37194
-6.4114
-13.5756
-20.1916
-26.326
-32.0402
-37.3913
-42.4325
-47.2133
-51.7796
-56.1736
-60.4335
-64.5931
-68.6806
-72.7192
-76.7257
-80.7115
-84.6827
-88.6412
-92.5858
-96.5142
-100.424
-104.314
-108.185
-112.04
-115.886
-119.73
-123.577
-127.433
-131.301
-135.179
-139.061
-142.936
-146.79
-150.607
-154.37
-158.065
-161.681
-165.211
-168.651
-172.002
-175.264
-178.439
-181.52
-184.498
-187.352
-190.053
-192.559
-194.822
-196.786
-198.391
-199.581
-200.3
-200.501
-200.145
-199.2
-197.647
-195.474
-192.676
-189.258
-185.231
-180.617
-175.453
-169.788
-163.692
-157.255
-150.583
-143.796
347.89
337.6
324.193
308.058
289.709
269.714
248.641
227.014
205.289
183.848
163
142.982
123.973
106.097
89.4299
74.0069
59.8255
46.8521
35.0276
24.274
14.5011
5.61286
-2.48687
-9.89034
-16.683
-22.9425
-28.7386
-34.1345
-39.1879
-43.9522
-48.4773
-52.8101
-56.9943
-61.0699
-65.0721
-69.0305
-72.9682
-76.9011
-80.8379
-84.7803
-88.7248
-92.6645
-96.5912
-100.498
-104.38
-108.237
-112.074
-115.899
-119.723
-123.559
-127.416
-131.3
-135.212
-139.145
-143.084
-147.01
-150.9
-154.732
-158.486
-162.149
-165.715
-169.184
-172.566
-175.869
-179.104
-182.276
-185.381
-188.404
-191.314
-194.063
-196.594
-198.837
-200.72
-202.171
-203.122
-203.518
-203.313
-202.474
-200.978
-198.814
-195.976
-192.463
-188.283
-183.45
-177.989
-171.947
-165.396
-158.437
-151.199
-143.833
365.615
354.465
339.38
320.96
299.963
277.192
253.401
229.247
205.269
181.891
159.431
138.124
118.132
99.5575
82.4527
66.8251
52.6418
39.8359
28.3132
17.9602
8.65301
0.26554
-7.32314
-14.2236
-20.5332
-26.3357
-31.7031
-36.6983
-41.3778
-45.794
-49.9968
-54.0342
-57.9523
-61.7939
-65.5973
-69.3945
-73.2097
-77.0578
-80.9437
-84.8634
-88.8052
-92.7527
-96.689
-100.599
-104.474
-108.312
-112.119
-115.908
-119.697
-123.507
-127.356
-131.257
-135.214
-139.217
-143.249
-147.28
-151.276
-155.204
-159.037
-162.756
-166.356
-169.846
-173.243
-176.572
-179.86
-183.128
-186.385
-189.621
-192.805
-195.883
-198.78
-201.409
-203.673
-205.48
-206.745
-207.401
-207.395
-206.692
-205.272
-203.125
-200.246
-196.631
-192.278
-187.186
-181.363
-174.841
-167.689
-160.02
-152.001
-143.831
389.436
376.97
359.348
337.551
312.755
286.123
258.672
231.22
204.385
178.612
154.209
131.382
110.261
90.9157
73.3652
57.5824
43.4958
30.9951
19.939
10.1662
1.50706
-6.20501
-13.1233
-19.3806
-25.0867
-30.329
-35.1779
-39.6919
-43.9228
-47.9199
-51.7322
-55.4092
-59.0007
-62.5545
-66.1144
-69.7171
-73.3895
-77.1466
-80.9892
-84.9041
-88.8673
-92.8484
-96.8163
-100.745
-104.616
-108.427
-112.185
-115.911
-119.637
-123.396
-127.219
-131.132
-135.145
-139.248
-143.415
-147.599
-151.75
-155.814
-159.751
-163.534
-167.158
-170.641
-174.017
-177.335
-180.646
-183.997
-187.418
-190.912
-194.45
-197.964
-201.355
-204.505
-207.284
-209.568
-211.248
-212.238
-212.481
-211.944
-210.615
-208.492
-205.576
-201.863
-197.338
-191.973
-185.743
-178.644
-170.723
-162.11
-153.021
-143.741
421.43
406.869
385.302
358.439
328.172
296.217
263.931
232.295
201.968
173.361
146.723
122.194
99.8465
79.7053
61.7515
45.9189
32.0902
20.0999
9.74443
0.797441
-6.97309
-13.7885
-19.8448
-25.3017
-30.2785
-34.86
-39.1069
-43.066
-46.7788
-50.2876
-53.6392
-56.8856
-60.0828
-63.2875
-66.5525
-69.9231
-73.433
-77.0994
-80.9186
-84.8646
-88.8942
-92.9546
-96.9931
-100.965
-104.841
-108.612
-112.291
-115.913
-119.527
-123.188
-126.951
-130.862
-134.944
-139.188
-143.553
-147.967
-152.346
-156.608
-160.687
-164.541
-168.165
-171.59
-174.876
-178.108
-181.376
-184.767
-188.346
-192.142
-196.129
-200.221
-204.28
-208.137
-211.609
-214.527
-216.744
-218.153
-218.691
-218.338
-217.101
-215
-212.054
-208.265
-203.606
-198.008
-191.376
-183.629
-174.757
-164.886
-154.315
-143.485
464.93
446.824
418.854
384.2
346.003
306.77
268.239
231.476
197.065
165.277
136.207
109.875
86.2697
65.3639
47.1054
31.3945
18.0647
6.87995
-2.44765
-10.2337
-16.796
-22.4323
-27.3967
-31.8812
-36.0073
-39.8417
-43.4201
-46.7656
-49.9008
-52.8559
-55.6734
-58.41
-61.1333
-63.9143
-66.8207
-69.9125
-73.2367
-76.8193
-80.6538
-84.6948
-88.8676
-93.0845
-97.2589
-101.318
-105.211
-108.924
-112.476
-115.924
-119.345
-122.831
-126.47
-130.345
-134.506
-138.954
-143.62
-148.385
-153.112
-157.667
-161.945
-165.88
-169.461
-172.738
-175.815
-178.83
-181.931
-185.267
-188.963
-193.097
-197.658
-202.527
-207.498
-212.321
-216.735
-220.497
-223.405
-225.321
-226.185
-226.005
-224.832
-222.726
-219.746
-215.922
-211.225
-205.532
-198.617
-190.234
-180.228
-168.669
-155.984
-142.916
525.59
500.946
461.998
415.032
365.303
316.302
269.99
227.263
188.383
153.277
121.755
93.6428
68.8227
47.2321
28.8157
13.4697
0.980864
-8.98191
-16.826
-22.9926
-27.9182
-32.0089
-35.6052
-38.943
-42.1228
-45.1598
-48.0375
-50.738
-53.2539
-55.596
-57.7997
-59.931
-62.08
-64.3417
-66.8053
-69.5522
-72.6547
-76.1643
-80.081
-84.3256
-88.7696
-93.2684
-97.6852
-101.903
-105.839
-109.462
-112.808
-115.969
-119.071
-122.249
-125.649
-129.413
-133.657
-138.407
-143.543
-148.859
-154.124
-159.127
-163.699
-167.729
-171.194
-174.175
-176.846
-179.427
-182.149
-185.248
-188.952
-193.438
-198.746
-204.686
-210.931
-217.095
-222.801
-227.697
-231.495
-234.005
-235.182
-235.105
-233.904
-231.713
-228.656
-224.835
-220.28
-214.816
-207.972
-199.175
-187.938
-174.072
-158.204
-141.739
613.74
575.629
516.651
449.807
383.527
321.946
266.57
217.505
174.266
136.123
102.404
72.685
46.7456
24.5546
6.13356
-8.53713
-19.7058
-27.8583
-33.5823
-37.5005
-40.205
-42.2602
-44.1497
-46.1966
-48.4094
-50.6739
-52.8784
-54.9454
-56.8284
-58.5084
-60.0054
-61.4042
-62.8445
-64.4603
-66.3658
-68.6657
-71.4744
-74.9123
-79.0268
-83.6611
-88.5853
-93.5644
-98.3933
-102.889
-106.913
-110.398
-113.403
-116.099
-118.684
-121.349
-124.302
-127.789
-132.079
-137.303
-143.209
-149.406
-155.513
-161.21
-166.233
-170.395
-173.625
-176.059
-178.01
-179.822
-181.826
-184.36
-187.814
-192.599
-198.922
-206.41
-214.479
-222.532
-230.033
-236.48
-241.44
-244.61
-245.987
-245.824
-244.403
-241.949
-238.665
-234.806
-230.642
-226.091
-220.137
-211.631
-199.434
-182.36
-161.283
-139.291
750.201
680.313
582.596
483.733
394.944
318.623
254.044
199.346
152.808
112.6
77.3055
46.3009
19.2942
-3.5231
-21.9155
-35.5494
-44.6955
-50.189
-52.8952
-53.7114
-53.3822
-52.706
-52.4243
-53.1693
-54.5805
-56.2349
-57.8802
-59.3828
-60.6626
-61.6538
-62.325
-62.7927
-63.3337
-64.142
-65.341
-67.0314
-69.375
-72.6752
-77.2146
-82.5713
-88.3158
-94.0716
-99.577
-104.549
-108.763
-112.023
-114.439
-116.389
-118.18
-120.035
-122.185
-125.011
-129.154
-135.221
-142.455
-150.086
-157.491
-164.266
-170.008
-174.404
-177.206
-178.639
-179.374
-179.943
-180.741
-182.149
-184.761
-189.546
-197.422
-207.297
-218.053
-228.763
-238.786
-247.405
-253.964
-257.799
-259.008
-258.356
-256.392
-253.378
-249.504
-245.217
-241.56
-239.386
-235.979
-229.401
-217.956
-196.41
-165.678
-133.907
982.189
825.006
650.144
503.117
388.384
298.372
227.275
169.431
122.232
82.0104
46.0423
14.1807
-14.1624
-37.9383
-56.777
-68.9796
-74.8979
-76.4843
-74.8811
-71.5238
-67.0126
-62.5393
-59.1777
-59.1414
-60.3611
-61.7698
-63.0496
-64.1051
-64.8794
-65.2298
-64.9108
-64.0521
-63.4178
-63.244
-63.5943
-64.4441
-65.8877
-68.6448
-74.2184
-80.917
-88.025
-94.9354
-101.526
-107.299
-111.984
-114.864
-116.146
-116.909
-117.584
-118.295
-119.098
-120.336
-123.46
-131.458
-141.131
-151.093
-160.38
-168.811
-175.724
-180.712
-182.76
-182.225
-180.981
-179.734
-178.779
-178.205
-178.579
-182.045
-193.042
-206.919
-221.694
-235.984
-249.561
-261.297
-270.413
-274.771
-274.708
-272.779
-269.894
-266.044
-260.941
-254.719
-250.345
-254.458
-256.386
-254.18
-251.022
-223.69
-171.57
-121.078
1431.13
995.074
677.546
475.948
346.193
250.862
181.406
124.18
81.6076
45.3028
8.88091
-22.9825
-54.1637
-79.4227
-101.147
-111.405
-111.282
-107.314
-99.3341
-90.9405
-80.5341
-70.7208
-61.0947
-63.2586
-65.823
-67.446
-68.4995
-69.1922
-69.6693
-69.736
-68.2441
-64.9631
-62.8174
-61.5736
-61.1137
-60.9901
-60.4994
-60.5513
-69.596
-78.6685
-88.0152
-96.2579
-104.648
-111.617
-117.803
-120.006
-118.6
-117.557
-116.938
-116.423
-115.386
-112.948
-110.747
-125.287
-139.394
-153.075
-164.504
-175.543
-184.214
-191.254
-192.037
-186.836
-182.593
-179.108
-176.273
-172.894
-167.95
-163.699
-184.518
-205.251
-226.033
-244.236
-262.987
-278.961
-293.717
-298.108
-293.097
-288.581
-284.786
-280.516
-273.988
-261.562
-246.911
-272.674
-282.747
-280.331
-318.898
-286.665
-175.117
-88.0439
2444.95
994.381
537.947
345.279
254.396
166.07
117.91
57.8224
31.9589
8.77229
-34.8275
-61.1017
-102.655
-125.95
-161.967
-168.717
-153.131
-143.855
-124.315
-113.192
-93.142
-78.5797
-45.9872
-66.7506
-72.5913
-73.894
-74.4223
-74.5461
-75.0099
-76.451
-74.1228
-64.2146
-60.8985
-58.7591
-58.1366
-58.0557
-54.3228
-39.5029
-64.9294
-76.0225
-89.5931
-97.3671
-109.817
-117.063
-129.361
-130.345
-120.533
-117.597
-116.143
-115.305
-113.693
-105.22
-73.9274
-119.744
-138.27
-158.304
-169.193
-185.686
-195.058
-210.809
-209.935
-190.068
-183.117
-177.549
-174.55
-169.842
-156.321
-109.254
-176.121
-203.511
-234.087
-251.702
-280.414
-298.382
-331.948
-334.986
-310.773
-303.346
-300.363
-298.242
-295.528
-271.608
-185.279
-313.484
-327.094
-247.468
-488.725
-463.853
-143.419
-0.165413
-137.063
-129.944
-123.066
-116.539
-110.452
-104.871
-99.8391
-95.3803
-91.5042
-88.2102
-85.4904
-83.3341
-81.7295
-80.6662
-80.1365
-136.954
-129.705
-122.714
-116.098
-109.947
-104.323
-99.2661
-94.7976
-90.9225
-87.636
-84.9272
-82.7825
-81.1883
-80.1327
-79.6071
-136.725
-129.207
-121.989
-115.194
-108.914
-103.207
-98.1054
-93.6218
-89.7523
-86.4843
-83.8001
-81.6807
-80.1087
-79.0692
-78.5522
-136.347
-128.408
-120.84
-113.776
-107.307
-101.485
-96.3274
-91.832
-87.9809
-84.7489
-82.1082
-80.0318
-78.4965
-77.4836
-76.9804
-135.773
-127.239
-119.187
-111.763
-105.056
-99.0979
-93.8875
-89.398
-85.5907
-82.4225
-79.852
-77.8421
-76.3621
-75.3885
-74.9056
-134.928
-125.589
-116.904
-109.035
-102.054
-95.9639
-90.727
-86.2822
-82.5613
-79.4986
-77.0355
-75.1227
-73.7213
-72.8027
-72.3481
-133.69
-123.286
-113.807
-105.42
-98.1603
-91.9773
-86.7747
-82.4424
-78.8739
-75.9754
-73.6687
-71.8919
-70.5979
-69.7532
-69.3361
-131.86
-120.059
-109.616
-100.676
-93.1908
-87.0104
-81.9522
-77.839
-74.5168
-71.8604
-69.7722
-68.1785
-67.0255
-66.2762
-65.9071
-129.094
-115.475
-103.924
-94.4787
-86.9162
-80.9213
-76.185
-72.4447
-69.494
-67.1775
-65.3814
-64.0243
-63.0496
-62.4189
-62.1092
-124.771
-108.824
-96.1255
-86.3987
-79.0741
-73.574
-69.4219
-66.261
-63.8372
-61.9742
-60.5516
-59.4881
-58.7296
-58.241
-58.0016
-117.7
-98.9226
-85.3558
-75.9167
-69.4077
-64.8787
-61.6676
-59.3403
-57.6196
-56.3305
-55.3628
-54.6471
-54.1397
-53.814
-53.6547
-105.462
-83.8111
-70.4588
-62.5046
-57.7614
-54.8655
-53.0298
-51.8131
-50.9705
-50.3656
-49.9222
-49.5977
-49.3683
-49.2208
-49.1486
-82.9551
-60.4012
-50.1635
-45.8818
-44.2678
-43.7923
-43.7729
-43.912
-44.0838
-44.2393
-44.3629
-44.4534
-44.515
-44.5526
-44.5703
-39.2502
-24.6751
-23.9124
-26.5912
-29.6357
-32.2631
-34.3577
-35.9782
-37.2136
-38.1448
-38.8366
-39.3382
-39.6857
-39.9043
-40.0097
48.6637
24.8636
5.78009
-6.93471
-15.421
-21.2667
-25.4166
-28.4295
-30.6476
-32.2899
-33.5006
-34.3772
-34.9855
-35.3691
-35.5547
129.606
129.567
129.477
129.305
128.999
128.462
127.52
125.847
122.781
116.834
104.148
72.7398
-22.5664
-383.908
-2038.81
112.065
111.609
110.646
109.063
106.657
103.087
97.7701
89.6784
76.904
55.6581
17.8165
-55.3729
-209.02
-544.487
-1182.07
94.8305
93.9933
92.2369
89.3818
85.1143
78.9165
69.9371
56.7516
36.9016
6.00124
-43.9719
-127.617
-269.202
-495.232
-768.042
78.1692
77.0074
74.5822
70.6735
64.904
56.6692
45.017
28.4451
4.56627
-30.4142
-82.3759
-159.623
-270.736
-413.465
-543.419
62.3067
60.8911
57.9503
53.2502
46.3986
36.7881
23.5066
5.20716
-20.0646
-55.0414
-103.221
-168.1
-250.304
-340.554
-409.014
47.4204
45.827
42.5335
37.3148
29.8031
19.4503
5.47575
-13.1925
-37.9572
-70.5013
-112.472
-164.537
-224.273
-282.76
-322.132
33.6341
31.9375
28.448
22.9661
15.1753
4.62244
-9.30054
-27.3616
-50.4475
-79.4135
-114.713
-155.643
-199.099
-238.23
-262.576
21.0206
19.2875
15.7409
10.2164
2.46135
-7.86921
-21.2073
-38.0446
-58.8548
-83.9251
-113.042
-144.99
-176.919
-203.958
-219.916
9.60547
7.89225
4.40294
-0.98812
-8.46744
-18.2754
-30.6873
-45.9713
-64.3043
-85.6245
-109.403
-134.348
-158.128
-177.374
-188.33
-0.6243
-2.27383
-5.61822
-10.7458
-17.7819
-26.8756
-38.175
-51.7825
-67.68
-85.6152
-104.951
-124.51
-142.481
-156.541
-164.344
-9.71242
-11.2666
-14.4044
-19.1812
-25.6698
-33.9457
-44.0612
-56.0047
-69.6411
-84.6318
-100.343
-115.773
-129.545
-140.049
-145.772
-17.7246
-19.1629
-22.0555
-26.4303
-32.3187
-39.74
-48.6789
-59.0517
-70.6619
-83.1471
-95.9283
-108.183
-118.875
-126.872
-131.171
-24.7408
-26.0521
-28.6798
-32.6307
-37.9048
-44.4817
-52.3017
-61.2399
-71.0748
-81.4558
-91.8776
-101.677
-110.073
-116.259
-119.551
-30.8489
-32.0294
-34.3874
-37.9143
-42.5877
-48.3612
-55.1486
-62.8055
-71.1083
-79.7355
-88.2573
-96.1443
-102.804
-107.654
-110.214
-36.1394
-37.1909
-39.2853
-42.4033
-46.5081
-51.5375
-57.3922
-63.9226
-70.9163
-78.0876
-85.0766
-91.4617
-96.791
-100.635
-102.652
-40.7016
-41.6297
-43.4741
-46.2083
-49.7876
-54.1416
-59.167
-64.7182
-70.6005
-76.5655
-82.3143
-87.5107
-91.8073
-94.8834
-96.49
-44.6206
-45.4338
-47.0461
-49.4278
-52.53
-56.2803
-60.577
-65.284
-70.2271
-75.1931
-79.9347
-84.1835
-87.6697
-90.1507
-91.4414
-47.9763
-48.6842
-50.0851
-52.1479
-54.8233
-58.0401
-61.7023
-65.686
-69.8376
-73.9758
-77.8967
-81.3847
-84.2289
-86.2431
-87.2878
-50.8414
-51.4544
-52.6653
-54.4436
-56.7412
-59.4911
-62.6048
-65.9713
-69.4573
-72.9091
-76.1586
-79.0322
-81.3634
-83.0078
-83.8585
-53.2818
-53.8101
-54.8523
-56.3792
-58.3457
-60.6898
-63.3318
-66.1737
-69.1005
-71.9825
-74.6811
-77.0557
-78.9739
-80.3227
-81.019
-55.3562
-55.8097
-56.7035
-58.0101
-59.6884
-61.6821
-63.9203
-66.3173
-68.7745
-71.183
-73.4281
-75.3955
-76.9792
-78.0899
-78.6623
-57.1161
-57.5043
-58.2684
-59.3835
-60.8124
-62.5049
-64.3985
-66.4191
-68.4823
-70.4968
-72.3674
-74.0012
-75.3125
-76.2301
-76.7024
-58.6071
-58.9384
-59.59
-60.5395
-61.7537
-63.1883
-64.7888
-66.4912
-68.2239
-69.9101
-71.471
-72.8303
-73.9188
-74.679
-75.0699
-59.8684
-60.1506
-60.705
-61.512
-62.5421
-63.7567
-65.1084
-66.5424
-67.9978
-69.4102
-70.7143
-71.8472
-72.7526
-73.384
-73.7083
-60.9342
-61.174
-61.645
-62.3298
-63.2027
-64.23
-65.3709
-66.5786
-67.8015
-68.9854
-70.0761
-71.0219
-71.7764
-72.3019
-72.5716
-61.8337
-62.0373
-62.4369
-63.0173
-63.7562
-64.6246
-65.5872
-66.6043
-67.6321
-68.6253
-69.5385
-70.329
-70.9588
-71.397
-71.6218
-62.5921
-62.7647
-63.1034
-63.595
-64.2201
-64.9537
-65.7658
-66.6225
-67.4867
-68.3205
-69.0859
-69.7476
-70.2741
-70.6402
-70.8278
-63.2308
-63.3771
-63.6639
-64.08
-64.6087
-65.2284
-65.9136
-66.6353
-67.3625
-68.063
-68.7053
-69.2598
-69.7007
-70.0069
-70.1638
-63.7681
-63.892
-64.1349
-64.4871
-64.9341
-65.4577
-66.036
-66.6445
-67.2568
-67.8459
-68.3855
-68.8509
-69.2206
-69.4772
-69.6087
-64.2195
-64.3245
-64.5302
-64.8283
-65.2065
-65.6492
-66.1376
-66.6509
-67.167
-67.6631
-68.1171
-68.5083
-68.8188
-69.0343
-69.1446
-64.5981
-64.6871
-64.8615
-65.1141
-65.4343
-65.8089
-66.2218
-66.6555
-67.0912
-67.5096
-67.8921
-68.2216
-68.483
-68.6642
-68.757
-64.915
-64.9906
-65.1386
-65.3529
-65.6245
-65.9419
-66.2917
-66.6588
-67.0272
-67.3809
-67.704
-67.9821
-68.2026
-68.3555
-68.4338
-65.1795
-65.2438
-65.3697
-65.552
-65.7828
-66.0525
-66.3495
-66.6611
-66.9736
-67.2733
-67.5471
-67.7825
-67.9692
-68.0985
-68.1647
-65.3995
-65.4544
-65.5619
-65.7173
-65.9143
-66.1442
-66.3973
-66.6627
-66.9287
-67.1838
-67.4166
-67.6168
-67.7754
-67.8853
-67.9416
-65.5815
-65.6285
-65.7207
-65.854
-66.0228
-66.2198
-66.4367
-66.6639
-66.8915
-67.1097
-67.3088
-67.4799
-67.6155
-67.7094
-67.7574
-65.7308
-65.7714
-65.851
-65.9661
-66.1118
-66.2818
-66.4688
-66.6647
-66.8609
-67.0489
-67.2203
-67.3677
-67.4844
-67.5652
-67.6065
-65.8519
-65.8873
-65.9567
-66.0569
-66.1839
-66.3319
-66.4947
-66.6652
-66.836
-66.9995
-67.1486
-67.2767
-67.3781
-67.4483
-67.4842
-65.9484
-65.9797
-66.0409
-66.1294
-66.2413
-66.3718
-66.5154
-66.6656
-66.8161
-66.9601
-67.0914
-67.2042
-67.2935
-67.3553
-67.3869
-66.0233
-66.0514
-66.1062
-66.1855
-66.2858
-66.4028
-66.5314
-66.6659
-66.8006
-66.9296
-67.0471
-67.148
-67.2279
-67.2832
-67.3114
-66.0788
-66.1044
-66.1546
-66.2271
-66.3188
-66.4257
-66.5432
-66.6661
-66.7892
-66.9069
-67.0142
-67.1064
-67.1793
-67.2298
-67.2556
-66.1165
-66.1405
-66.1875
-66.2553
-66.3412
-66.4412
-66.5512
-66.6662
-66.7814
-66.8915
-66.9919
-67.0781
-67.1463
-67.1935
-67.2176
-66.1376
-66.1607
-66.2059
-66.2711
-66.3537
-66.4499
-66.5557
-66.6663
-66.777
-66.8829
-66.9794
-67.0623
-67.1278
-67.1732
-67.1964
-66.1427
-66.1656
-66.2103
-66.275
-66.3567
-66.4521
-66.5568
-66.6664
-66.776
-66.8809
-66.9764
-67.0584
-67.1233
-67.1683
-67.1912
-66.132
-66.1553
-66.201
-66.2669
-66.3504
-66.4477
-66.5545
-66.6663
-66.7782
-66.8853
-66.9828
-67.0665
-67.1327
-67.1785
-67.202
-66.1051
-66.1296
-66.1775
-66.2468
-66.3344
-66.4366
-66.5489
-66.6663
-66.7838
-66.8963
-66.9987
-67.0866
-67.1562
-67.2043
-67.229
-66.0612
-66.0876
-66.1392
-66.2139
-66.3084
-66.4186
-66.5396
-66.6662
-66.7929
-66.9142
-67.0246
-67.1195
-67.1945
-67.2465
-67.273
-65.999
-66.0281
-66.085
-66.1674
-66.2715
-66.393
-66.5264
-66.6661
-66.8058
-66.9396
-67.0614
-67.1661
-67.2489
-67.3062
-67.3355
-65.9166
-65.9493
-66.0132
-66.1057
-66.2227
-66.3591
-66.509
-66.6659
-66.8229
-66.9732
-67.1102
-67.2278
-67.3209
-67.3853
-67.4183
-65.8116
-65.8488
-65.9217
-66.027
-66.1603
-66.3158
-66.4867
-66.6656
-66.8447
-67.0161
-67.1723
-67.3065
-67.4127
-67.4863
-67.5239
-65.6808
-65.7237
-65.8076
-65.929
-66.0826
-66.2618
-66.4589
-66.6651
-66.8717
-67.0695
-67.2498
-67.4046
-67.5273
-67.6122
-67.6556
-65.5202
-65.57
-65.6676
-65.8086
-65.9872
-66.1955
-66.4246
-66.6645
-66.9048
-67.135
-67.3448
-67.5251
-67.6679
-67.7668
-67.8173
-65.3251
-65.3834
-65.4974
-65.6623
-65.8711
-66.1148
-66.3828
-66.6636
-66.945
-67.2145
-67.4604
-67.6716
-67.839
-67.9549
-68.0141
-65.0896
-65.158
-65.2919
-65.4856
-65.7309
-66.0172
-66.3322
-66.6624
-66.9933
-67.3105
-67.5998
-67.8486
-68.0457
-68.1822
-68.252
-64.8068
-64.8873
-65.045
-65.2732
-65.5621
-65.8996
-66.2712
-66.6607
-67.0512
-67.4257
-67.7675
-68.0614
-68.2943
-68.4557
-68.5383
-64.4681
-64.5631
-64.7492
-65.0186
-65.3598
-65.7585
-66.1976
-66.6582
-67.1203
-67.5635
-67.9683
-68.3165
-68.5926
-68.7839
-68.8818
-64.0636
-64.1758
-64.3958
-64.7141
-65.1177
-65.5894
-66.1092
-66.6547
-67.2023
-67.728
-68.2083
-68.6217
-68.9495
-69.1768
-69.2931
-63.5812
-63.714
-63.974
-64.3507
-64.8283
-65.3869
-66.0029
-66.6498
-67.2997
-67.9239
-68.4946
-68.9862
-69.3762
-69.6466
-69.7851
-63.0069
-63.1639
-63.4715
-63.9173
-64.4828
-65.1447
-65.8751
-66.6429
-67.4147
-68.1568
-68.8358
-69.4211
-69.8856
-70.208
-70.373
-62.3237
-62.5094
-62.8733
-63.4008
-64.0705
-64.855
-65.7214
-66.6331
-67.5505
-68.4334
-69.242
-69.9396
-70.4937
-70.8783
-71.0753
-61.5119
-61.7314
-62.1617
-62.7858
-63.5788
-64.5084
-65.5364
-66.6192
-67.7103
-68.7614
-69.7252
-70.5575
-71.2191
-71.6787
-71.9142
-60.548
-60.8073
-61.3157
-62.0537
-62.9923
-64.0938
-65.3133
-66.5997
-67.8977
-69.1499
-70.2997
-71.2936
-72.0846
-72.6344
-72.9163
-59.4045
-59.7104
-60.3107
-61.1827
-62.2928
-63.5974
-65.0439
-66.5722
-68.1168
-69.6094
-70.9821
-72.1704
-73.1171
-73.7759
-74.1137
-58.0491
-58.4095
-59.1174
-60.1466
-61.4585
-63.0027
-64.7178
-66.5333
-68.3719
-70.1521
-71.7923
-73.2146
-74.3493
-75.1397
-75.5454
-56.4438
-56.8679
-57.7014
-58.9146
-60.4633
-62.2894
-64.322
-66.4784
-68.6674
-70.7918
-72.7535
-74.458
-75.8202
-76.7702
-77.2582
-54.5446
-55.0427
-56.0223
-57.45
-59.2757
-61.4332
-63.8403
-66.401
-69.0076
-71.5444
-73.893
-75.9386
-77.5767
-78.7209
-79.3092
-52.3002
-52.8838
-54.0327
-55.7095
-57.8583
-60.4038
-63.2522
-66.2918
-69.396
-72.4272
-75.2425
-77.7015
-79.6755
-81.0569
-81.7679
-49.6513
-50.3333
-51.6772
-53.6421
-56.166
-59.1646
-62.5314
-66.1377
-69.8351
-73.4597
-76.8389
-79.8007
-82.1852
-83.8575
-84.7195
-46.53
-47.3242
-48.8913
-51.1872
-54.1445
-57.6702
-61.6445
-65.9203
-70.3245
-74.6622
-78.7246
-82.2998
-85.1884
-87.2197
-88.2685
-42.8582
-43.7797
-45.6003
-48.274
-51.7292
-55.8649
-60.5487
-65.6138
-70.8597
-76.0555
-80.9477
-85.2749
-88.7859
-91.2629
-92.5446
-38.5481
-39.6122
-41.7181
-44.8194
-48.8421
-53.6797
-59.1883
-65.1818
-71.4296
-77.6588
-83.5625
-88.8156
-93.1
-96.1348
-97.709
-33.5007
-34.7229
-37.1462
-40.7263
-45.3901
-51.0293
-57.4917
-64.5732
-72.0121
-79.4877
-86.6279
-93.0277
-98.2803
-102.019
-103.965
-27.6067
-29.0013
-31.7728
-35.8821
-41.2622
-47.8083
-55.3657
-63.7167
-72.5687
-81.5486
-90.2062
-98.0348
-104.51
-109.147
-111.569
-20.7466
-22.326
-25.4726
-30.1574
-36.3261
-43.8861
-52.6894
-62.5123
-73.0362
-83.8323
-94.3588
-103.98
-112.013
-117.81
-120.853
-12.7925
-14.5652
-18.1067
-23.4043
-30.4257
-39.102
-49.3057
-60.8213
-73.3143
-86.3021
-99.1384
-111.025
-121.068
-128.383
-132.246
-3.61065
-5.57913
-9.52432
-15.457
-23.3781
-33.2589
-45.0119
-58.4519
-73.2483
-88.8759
-104.575
-119.348
-132.013
-141.349
-146.319
6.93428
4.77587
0.434733
-6.1319
-14.9723
-26.1177
-39.548
-55.1409
-72.6047
-91.3984
-110.654
-129.132
-145.266
-157.342
-163.837
18.9736
16.6423
11.9352
4.76848
-4.96875
-17.3922
-32.5838
-50.5312
-71.0371
-93.5987
-117.269
-140.54
-161.333
-177.206
-185.861
32.6266
30.1535
25.1389
17.4497
6.8965
-6.74711
-23.7078
-44.1455
-68.0415
-95.0276
-124.158
-153.663
-180.81
-202.076
-213.888
47.9911
45.4236
40.1944
32.1147
20.9036
6.19803
-12.4197
-35.3596
-62.8998
-94.9658
-130.783
-168.421
-204.364
-233.502
-250.11
65.1315
62.5355
57.2231
48.9484
37.3322
21.8558
1.86695
-23.3807
-54.6153
-92.2971
-136.141
-184.348
-232.635
-273.621
-297.854
84.0667
81.526
76.3016
68.0958
56.4354
40.6421
19.8016
-7.24659
-41.8546
-85.3475
-138.465
-200.214
-265.967
-325.361
-362.413
104.757
102.372
97.4419
89.6342
78.4018
62.9272
42.0421
14.1337
-22.9254
-71.7132
-134.792
-213.291
-303.703
-392.601
-452.683
127.094
124.974
120.571
113.542
103.306
88.962
69.1536
41.8637
4.14558
-48.1547
-120.407
-218.087
-342.477
-479.832
-584.654
150.892
149.149
145.514
139.666
131.052
118.783
101.452
76.8283
41.338
-10.7422
-88.3621
-204.326
-372.229
-589.629
-789.388
175.888
174.625
171.982
167.7
161.325
152.107
138.805
119.33
90.0437
44.4018
-29.6883
-154.487
-367.589
-711.645
-1132.8
201.747
201.046
199.574
197.173
193.559
188.254
180.433
168.631
150.097
119.294
64.1974
-43.3194
-271.991
-780.082
-1768.61
228.076
227.988
227.797
227.472
226.953
226.132
224.809
222.593
218.656
211.046
194.479
151.982
17.6579
-514.838
-3090.8
254.45
254.983
256.096
257.889
260.539
264.341
269.787
277.731
289.747
309.002
342.752
411.039
583.807
1169.51
3800.6
280.435
281.558
283.904
287.691
293.306
301.387
313.007
330.019
355.791
396.87
467.016
597.51
863.157
1433.37
2517.25
305.62
307.264
310.69
316.205
324.337
335.952
352.459
376.199
411.179
464.525
549.336
690.079
930.945
1340.42
1987.06
163.119
65.9505
27.1603
7.20755
-4.81139
-12.741
-18.263
-22.2383
-25.1568
-27.3184
-28.9156
-30.0755
-30.883
-31.3936
-31.641
102.934
62.7615
33.5153
14.5546
1.99389
-6.66237
-12.834
-17.3438
-20.6909
-23.191
-25.051
-26.4096
-27.3596
-27.9624
-28.255
70.6471
51.9847
32.7276
17.4572
6.08777
-2.30921
-8.55885
-13.2569
-16.8131
-19.508
-21.5348
-23.0274
-24.0775
-24.7466
-25.0722
51.3201
41.6209
29.1714
17.651
8.11743
0.552731
-5.36128
-9.96285
-13.5334
-16.2889
-18.3897
-19.9524
-21.0601
-21.7693
-22.1155
38.7286
33.1672
24.97
16.465
8.77984
2.26837
-3.07514
-7.38484
-10.8198
-13.5246
-15.6183
-17.1935
-18.3193
-19.0442
-19.3992
29.9992
26.5439
20.9824
14.7096
8.62721
3.17294
-1.50692
-5.41431
-8.61314
-11.1847
-13.207
-14.7468
-15.8569
-16.5761
-16.9294
23.6694
21.3832
17.4889
12.822
8.0384
3.53972
-0.475127
-3.93585
-6.84216
-9.22612
-11.1307
-12.5985
-13.6661
-14.3619
-14.7051
18.9272
17.3395
14.5317
11.0155
7.25173
3.5705
0.171859
-2.84241
-5.43393
-7.6005
-9.3578
-10.7281
-11.7335
-12.3928
-12.719
15.2876
14.1429
12.0666
9.38104
6.40773
3.40505
0.551919
-2.04255
-4.3208
-6.25911
-7.85369
-9.11099
-10.0413
-10.6549
-10.9596
12.4429
11.5933
10.0246
7.94636
5.58413
3.13574
0.752355
-1.46228
-3.44374
-5.15642
-6.58382
-7.721
-8.56908
-9.1315
-9.41169
10.1883
9.54314
8.33655
6.70889
4.82037
2.82129
0.835604
-1.04393
-2.75335
-4.25184
-5.51549
-6.53179
-7.29523
-7.80412
-8.05842
8.38176
7.88283
6.94088
5.65259
4.13338
2.49754
0.84514
-0.743726
-2.20945
-3.51034
-4.61894
-5.51818
-6.19817
-6.65355
-6.88175
6.92168
6.53017
5.78572
4.75665
3.5274
2.18529
0.810558
-0.529037
-1.78
-2.90239
-3.86778
-4.65685
-5.25708
-5.66076
-5.86356
5.73349
5.42262
4.82823
3.99971
2.99982
1.89569
0.751576
-0.375897
-1.43986
-2.40347
-3.23906
-3.92667
-4.45249
-4.80747
-4.98622
4.7612
4.51195
4.03335
3.3618
2.54461