/*--------------------------------*- C++ -*----------------------------------*\
| =========                 |                                                 |
| \\      /  F ield         | OpenFOAM: The Open Source CFD Toolbox           |
|  \\    /   O peration     | Version:  5.x                                   |
|   \\  /    A nd           | Web:      www.OpenFOAM.org                      |
|    \\/     M anipulation  |                                                 |
\*---------------------------------------------------------------------------*/
FoamFile
{
    version     2.0;
    format      ascii;
    class       volScalarField;
    location    "2.1";
    object      gradTy;
}
// * * * * * * * * * * * * * * * * * * * * * * * * * * * * * * * * * * * * * //

dimensions      [0 -1 0 1 0 0 0];

internalField   nonuniform List<scalar> 
6300
(
1148.26
1445.32
1743.96
2045.15
2349.8
2658.65
2972.25
3290.89
3614.56
3942.85
4274.94
4609.52
4944.81
5278.58
5608.22
-0.811899
-2.40787
-3.91883
-5.28271
-6.42996
-7.2822
-7.7526
-7.74882
-7.17955
-5.96495
-4.05106
-1.4265
1.86185
5.69891
9.9027
-1.38407
-4.10778
-6.6951
-9.04541
-11.0445
-12.5613
-13.4477
-13.5426
-12.6821
-10.7173
-7.53988
-3.11356
2.49422
9.09013
16.3535
-2.00059
-5.94372
-9.70795
-13.1589
-16.1408
-18.4703
-19.9338
-20.2913
-19.2887
-16.6824
-12.278
-5.98276
2.1375
11.8122
22.5536
-2.67515
-7.95826
-13.0335
-17.7407
-21.8888
-25.2442
-27.5248
-28.3992
-27.4983
-24.4449
-18.9069
-10.6777
0.225018
13.4658
28.3474
-3.41669
-10.1803
-16.7262
-22.881
-28.4282
-33.0917
-36.5207
-38.2811
-37.8594
-34.6914
-28.2272
-18.0474
-4.02825
13.474
33.4981
-4.22774
-12.6194
-20.8091
-28.6273
-35.8495
-42.1717
-47.1833
-50.343
-50.9651
-48.2327
-41.2627
-29.2574
-11.7671
10.9555
37.6348
-5.10243
-15.2597
-25.2624
-34.9678
-44.1688
-52.5598
-59.695
-64.9397
-67.423
-66.0099
-59.333
-45.9538
-24.7423
4.4733
40.1276
-6.02445
-18.0535
-30.0114
-41.8105
-53.2952
-64.2006
-74.0936
-82.294
-87.7738
-89.0481
-84.1043
-70.4835
-45.7254
-8.4555
39.8283
-6.9659
-20.9171
-34.9172
-48.9646
-62.9974
-76.8494
-90.1799
-102.364
-112.325
-118.3
-117.55
-106.15
-79.2233
-32.4057
34.4197
-7.88741
-23.7305
-39.7733
-56.1297
-72.8761
-90.0146
-107.407
-124.65
-140.857
-154.271
-161.64
-157.341
-132.612
-76.369
18.5391
-8.7401
-26.3424
-44.3129
-62.901
-82.3575
-102.92
-124.775
-147.964
-172.173
-196.279
-217.389
-228.954
-217.512
-158.997
-22.5805
-9.47003
-28.5844
-48.2316
-68.7995
-90.727
-114.526
-140.801
-170.247
-203.581
-241.27
-282.67
-323.56
-349.47
-319.522
-138.302
-10.0249
-30.2916
-51.2261
-73.3333
-97.2181
-123.648
-153.646
-188.63
-230.62
-282.532
-348.442
-433.123
-537.26
-631.301
-526.189
-10.3622
-31.3288
-53.0441
-76.0841
-101.157
-129.193
-161.495
-199.993
-247.72
-309.774
-395.418
-523.196
-735.105
-1142.18
-2097.18
5904
6166.17
6419.96
6663.79
6896.26
7116.16
7322.51
7514.61
7691.96
7854.35
8001.75
8134.35
8252.48
8356.62
8447.35
8525.35
8591.32
8646
8690.15
8724.51
8749.78
8766.66
8775.78
8777.74
8773.07
8762.28
8745.8
8724.02
8697.3
8665.93
8630.17
8590.25
8546.36
8498.64
8447.23
8392.22
8333.7
8271.72
8206.34
8137.59
8065.5
7990.09
7911.39
7829.42
7744.18
7655.7
7563.98
7469.04
7370.88
7269.51
7164.93
7057.15
6946.17
6831.99
6714.64
6594.14
6470.51
6343.79
6214.02
6081.27
5945.6
5807.07
5665.76
5521.75
5375.13
5226.01
5074.49
4920.71
4764.81
4606.98
4447.43
4286.39
4124.14
3961
3797.31
3633.46
3469.86
3306.92
3145.11
2984.89
2826.71
2671.03
2518.31
2368.97
2223.42
2082.01
1945.06
1812.82
1685.5
1563.22
13.879
17.4254
20.7611
23.7621
26.3316
28.4053
29.9514
30.9684
31.4786
31.5229
31.1544
30.4334
29.423
28.1862
26.7832
25.27
23.6971
22.1084
20.5411
19.025
17.5832
16.2323
14.9828
13.8405
12.8073
11.882
11.0615
10.3412
9.71568
9.17884
8.72424
8.34508
8.03415
7.78391
7.58651
7.4339
7.31804
7.23119
7.16621
7.11689
7.0782
7.04645
7.0193
6.99563
6.97525
6.95846
6.94568
6.93696
6.93162
6.92808
6.92378
6.91536
6.899
6.87082
6.82746
6.76643
6.68641
6.58732
6.4701
6.33625
6.18726
6.02388
5.84551
5.64966
5.43171
5.18495
4.90094
4.57018
4.18306
3.73085
3.20671
2.6065
1.92929
1.17759
0.357128
-0.52348
-1.45334
-2.41983
-3.40909
-4.40629
-5.3957
-6.36058
-7.28298
-8.14364
-8.92227
-9.59825
-10.1519
-10.5663
-10.829
-10.9339
23.2388
29.3762
35.1341
40.2902
44.6756
48.1823
50.7627
52.4221
53.2078
53.1972
52.4872
51.1848
49.4005
47.243
44.8154
42.2131
39.5214
36.8145
34.1545
31.5911
29.1619
26.8933
24.8017
22.895
21.1747
19.6378
18.2777
17.086
16.0531
15.1687
14.422
13.8016
13.2954
12.8909
12.5747
12.3331
12.1522
12.0188
11.9203
11.8461
11.7874
11.7382
11.6946
11.6554
11.6209
11.5922
11.5708
11.5572
11.5508
11.5489
11.547
11.539
11.5178
11.4761
11.4078
11.3081
11.1748
11.0082
10.8104
10.5849
10.3354
10.0641
9.77075
9.45169
9.09914
8.70131
8.24305
7.70709
7.07577
6.33296
5.46597
4.46706
3.3344
2.07238
0.691215
-0.793869
-2.36379
-3.99678
-5.66926
-7.35643
-9.03226
-10.6691
-12.2372
-13.704
-15.0347
-16.1927
-17.1424
-17.8527
-18.3004
-18.4737
32.7704
41.8686
50.3679
57.9223
64.2787
69.2871
72.8943
75.1285
76.0785
75.8743
74.6692
72.6271
69.913
66.6865
63.0976
59.2836
55.3669
51.4529
47.6291
43.9647
40.5107
37.3013
34.3563
31.6833
29.2809
27.1417
25.2542
23.6051
22.1798
20.9636
19.9412
19.0968
18.4136
17.8739
17.4586
17.1478
16.9212
16.7588
16.6422
16.5553
16.4854
16.4237
16.3657
16.3105
16.2598
16.2171
16.186
16.1686
16.1647
16.1708
16.18
16.1826
16.1668
16.1207
16.0338
15.8987
15.7118
15.4743
15.1908
14.8686
14.5152
14.1362
13.7332
13.3021
12.8319
12.3048
11.6971
10.9813
10.129
9.11387
7.91516
6.52016
4.92575
3.13867
1.17487
-0.942176
-3.18354
-5.51694
-7.90838
-10.323
-12.725
-15.0768
-17.3373
-19.4607
-21.3958
-23.0869
-24.4779
-25.5175
-26.1669
-26.4062
42.5726
55.2204
66.9583
77.2748
85.8179
92.4036
96.9967
99.6776
100.606
99.9875
98.052
95.0334
91.1603
86.6496
81.7023
76.5013
71.2083
65.962
60.8758
56.0377
51.5101
47.3323
43.5233
40.0864
37.0132
34.2884
31.8932
29.8075
28.0113
26.4853
25.2101
24.1658
23.3313
22.6836
22.1977
21.8467
21.6027
21.4379
21.326
21.2444
21.1754
21.1078
21.0364
20.9621
20.8901
20.8281
20.7839
20.7628
20.7663
20.79
20.8243
20.854
20.8607
20.8252
20.7305
20.5645
20.3225
20.0071
19.6277
19.1977
18.7322
18.2431
17.7364
17.2089
16.6466
16.0242
15.3067
14.4522
13.4167
12.159
10.6469
8.86032
6.79437
4.45929
1.87903
-0.911643
-3.87094
-6.95371
-10.1143
-13.3079
-16.4904
-19.6161
-22.635
-25.4888
-28.1083
-30.4137
-32.3194
-33.7442
-34.6242
-34.9259
52.7763
69.8726
85.5841
99.1682
110.162
118.374
123.836
126.733
127.341
125.98
122.977
118.654
113.311
107.227
100.66
93.8403
86.9729
80.2322
73.7587
67.6583
62.0022
56.83
52.154
47.9663
44.2454
40.9633
38.09
35.5972
33.4589
31.6515
30.1525
28.939
27.9865
27.267
26.7493
26.3984
26.1772
26.0473
25.9726
25.9213
25.8694
25.8026
25.7162
25.615
25.5104
25.4177
25.3522
25.3253
25.3417
25.3972
25.4778
25.561
25.6178
25.6171
25.5314
25.3416
25.0404
24.6336
24.1383
23.5793
22.9839
22.376
21.7701
21.1665
20.5483
19.8811
19.1139
18.1841
17.0242
15.5708
13.7738
11.6028
9.05053
6.13289
2.88611
-0.638407
-4.38066
-8.27859
-12.2729
-16.3092
-20.3376
-24.3093
-28.1705
-31.8544
-35.2734
-38.3161
-40.8536
-42.7554
-43.9145
-44.2731
63.5882
86.5064
107.258
124.775
138.491
148.283
154.345
157.058
156.885
154.306
149.777
143.716
136.502
128.478
119.959
111.227
102.537
94.1011
86.0902
78.6271
71.7879
65.6053
60.0762
55.1706
50.8444
47.0495
43.7408
40.8797
38.4344
36.3789
34.6897
33.3435
32.3136
31.5681
31.0689
30.7721
30.6284
30.586
30.5937
30.6069
30.5927
30.5328
30.4245
30.2794
30.1198
29.9739
29.8702
29.8305
29.8656
29.9723
30.1315
30.3096
30.4608
30.5345
30.4851
30.2814
29.9126
29.3896
28.7425
28.0147
27.2549
26.5073
25.8016
25.1459
24.5215
23.8824
23.1557
22.2478
21.0546
19.4776
17.4395
14.8944
11.8329
8.28044
4.29311
-0.0517028
-4.66634
-9.46487
-14.371
-19.3219
-24.2667
-29.162
-33.9617
-38.6017
-42.9804
-46.9463
-50.3034
-52.8363
-54.3576
-54.7645
75.3586
106.242
133.57
155.83
172.444
183.536
189.65
191.508
189.863
185.409
178.75
170.407
160.828
150.414
139.535
128.531
117.711
107.338
97.6154
88.6826
80.6155
73.43
67.0928
61.5355
56.6756
52.435
48.7484
45.5665
42.8536
40.5848
38.7403
37.3005
36.2397
35.5233
35.1066
34.9347
34.9437
35.0621
35.2164
35.3415
35.3908
35.3412
35.194
34.9723
34.7165
34.4764
34.3023
34.2337
34.2921
34.4767
34.763
35.101
35.4193
35.633
35.6643
35.4619
35.0094
34.3268
33.465
32.4982
31.5101
30.5797
29.7626
29.0811
28.517
28.0106
27.4591
26.7227
25.6382
24.0488
21.8354
18.93
15.3222
11.0542
6.21486
0.923463
-4.68733
-10.4963
-16.405
-22.3437
-28.2673
-34.1526
-39.9831
-45.7255
-51.2821
-56.4535
-60.9404
-64.3742
-66.4058
-66.8432
88.7604
131.077
167.158
194.989
214.319
225.931
231.056
230.98
226.862
219.66
210.126
198.853
186.333
173
159.272
145.553
132.231
119.629
107.996
97.4868
88.171
80.0325
72.9874
66.8989
61.6196
57.0286
53.0364
49.5864
46.6431
44.1904
42.2195
40.7234
39.6816
39.0591
38.8031
38.8484
39.1123
39.497
39.8915
40.1949
40.3407
40.2988
40.0792
39.722
39.2977
38.8902
38.5887
38.4594
38.5419
38.8394
39.324
39.9249
40.5317
40.9972
41.1828
41.0052
40.4396
39.524
38.3405
37.0138
35.6834
34.4898
33.5291
32.848
32.43
32.204
32.0291
31.6994
30.9488
29.5189
27.2277
23.9769
19.7621
14.6507
8.78726
2.35827
-4.42326
-11.3846
-18.396
-25.3874
-32.3237
-39.2222
-46.1318
-53.1172
-60.1389
-66.9466
-73.0942
-77.9314
-80.7498
-81.1721
105.265
164.868
212.603
246.366
267.276
277.636
279.922
276.246
268.28
257.247
243.985
229.078
212.993
196.141
178.985
161.998
145.709
130.522
116.76
104.577
94.0379
85.0695
77.5146
71.1086
65.5851
60.7735
56.5583
52.8916
49.7418
47.1186
45.0314
43.5086
42.5362
42.0825
42.0811
42.4617
43.1202
43.9303
44.7093
45.2861
45.5708
45.5214
45.1708
44.5761
43.8616
43.1578
42.6329
42.3855
42.4866
42.9369
43.7212
44.7437
45.8508
46.7669
47.2265
47.1094
46.3754
45.1086
43.4232
41.5355
39.6605
38.0649
36.8932
36.2363
36.0663
36.324
36.8221
37.2818
37.2373
36.2289
34.0017
30.4114
25.4928
19.3297
12.1736
4.30025
-3.90081
-12.2012
-20.4165
-28.511
-36.4349
-44.2765
-52.1717
-60.457
-69.3041
-78.3907
-87.1352
-94.3959
-98.5444
-98.8117
128.666
215.727
278.139
316.225
335.39
340.926
337.324
327.638
314.06
297.992
280.162
260.95
240.711
219.677
198.415
177.401
157.566
139.337
123.226
109.279
97.6274
88.0593
80.3798
74.0435
68.5246
63.6621
59.2954
55.4598
52.0913
49.2859
47.0432
45.5148
44.6584
44.4701
44.8248
45.6903
46.9255
48.4234
49.8331
50.8121
51.295
51.1903
50.6257
49.6138
48.4204
47.1772
46.2863
45.8178
45.9362
46.5601
47.7818
49.4463
51.4501
53.1988
54.1051
54.1056
53.0822
51.2991
48.7999
46.0414
43.2375
41.0314
39.5176
38.9249
39.088
40.0985
41.6709
43.591
44.9144
44.6943
42.7385
38.7591
33.0156
25.4384
16.5925
6.71398
-3.23567
-13.1405
-22.6115
-31.8804
-40.6652
-49.2542
-57.6502
-66.9883
-78.125
-90.3277
-103.313
-115.342
-121.928
-121.571
170.847
302.045
378.662
413.288
423.086
417.336
403.442
384.59
363.38
341.228
318.286
294.259
269.533
243.503
217.455
191.077
167.086
145.084
126.565
110.668
98.212
88.3286
81.3127
75.8053
70.5254
65.8455
61.2787
57.3695
53.6456
50.6603
48.0444
46.5725
45.8378
46.0948
46.8515
48.4044
50.3695
53.06
55.5924
57.067
57.8791
57.534
56.7366
54.9237
53.0611
50.6983
49.3397
48.4124
48.6649
49.3289
51.2103
53.6656
57.4213
60.8481
62.2921
62.5794
60.8862
58.5231
54.5525
50.6142
45.9555
43.0019
40.8167
40.5259
40.8897
43.0645
46.0192
50.7598
54.814
55.6592
54.3893
49.6469
43.1786
33.374
22.4981
9.22966
-2.63563
-14.705
-25.0984
-35.9473
-45.1781
-54.5104
-61.7725
-70.9302
-85.4115
-101.138
-120.869
-144.127
-155.311
-152.7
277.296
466.917
539.597
546.042
533.11
505.416
476.643
444.884
414.004
385.551
357.923
328.53
300.187
267.315
236.937
201.289
173.724
145.801
126.119
107.102
95.0952
84.4753
80.0828
77.2499
71.6751
67.8812
62.3324
59.0318
54.158
51.5263
47.4228
46.5937
45.6141
47.0239
47.7544
50.5468
52.7888
57.943
62.892
64.2919
66.1443
64.5424
64.3224
60.3165
58.4324
52.7828
51.7805
49.3157
50.8076
50.351
53.8176
56.0175
63.8703
71.3569
72.1484
73.9083
69.6576
68.0644
60.2604
56.2261
46.219
43.8669
39.3884
41.1844
40.0837
44.9077
47.7955
58.917
69.3346
69.6696
71.0403
63.0196
58.1455
42.8516
31.8483
9.72414
-1.74253
-18.6836
-26.9299
-42.3454
-49.5456
-62.7482
-63.1662
-67.2065
-90.9058
-106.18
-133.348
-190.299
-208.56
-198.164
654.709
800.13
795.854
706.633
664.323
594.976
554.071
503.839
461.064
428.612
400.032
361.22
337.297
287.476
263.954
199.818
180.84
134.623
124.698
93.4281
89.9746
71.6536
76.6077
82.6457
70.2667
72.4539
60.1632
62.9767
51.4624
54.5346
42.1114
46.8579
41.976
48.9573
45.7134
53.5053
51.0371
63.1427
75.3221
70.8835
79.4008
69.5768
77.3744
62.6674
69.2382
48.1864
56.3375
44.5304
55.7645
45.7311
58.256
50.2352
70.8526
91.5121
80.6148
93.897
74.6058
86.5526
60.5428
70.441
35.4612
47.7954
28.9257
46.015
30.7467
49.5394
37.7156
68.0879
98.3744
82.1887
101.215
71.8613
88.1169
46.1504
57.2122
-5.1288
7.03292
-35.1833
-18.4389
-60.5742
-45.2704
-89.3966
-59.3442
-35.1748
-108.533
-94.0976
-102.939
-292.184
-303.075
-268.724
2368.54
1348.82
1174.35
799.595
834.395
643.509
644.861
551.988
493.192
466.029
456.809
372.406
411.634
269.712
349.402
133.286
227.149
71.1758
154.003
39.7065
106.269
25.334
71.5837
114.569
47.8994
97.8889
36.2687
87.5763
27.7937
79.8854
12.1117
61.02
21.2888
65.6455
27.81
71.2648
28.3234
68.2585
111.702
58.8375
119.086
49.2518
122.847
34.3913
119.833
1.54777
89.6437
6.57387
91.3539
8.63347
92.2859
3.21899
77.779
157.114
54.2669
160.795
34.5746
159.701
9.11948
149.282
-43.4281
96.658
-33.3181
97.4406
-27.6383
98.2585
-33.127
77.3819
194.334
44.0026
201.056
15.0252
201.928
-26.9124
188.276
-127.267
94.1116
-136.587
74.8379
-161.517
44.5828
-222.863
-47.0518
137.295
-252.581
-48.498
187.251
-650.899
-462.737
-385.453
1434.29
1300.92
1174.64
1055.14
942.003
834.741
732.81
635.636
542.632
453.209
366.786
282.791
200.669
119.874
39.8701
-10.8768
-10.6013
-10.139
-9.52428
-8.79453
-7.98586
-7.1299
-6.25215
-5.37143
-4.50024
-3.64555
-2.80987
-1.9922
-1.18906
-0.39528
-18.3644
-17.8761
-17.0676
-16.0017
-14.7454
-13.3625
-11.9076
-10.4238
-8.94201
-7.48223
-6.05495
-4.66319
-3.30426
-1.97142
-0.655233
-26.2211
-25.4713
-24.2538
-22.6693
-20.823
-18.8113
-16.7144
-14.5934
-12.4906
-10.4317
-8.42886
-6.4837
-4.59024
-2.73711
-0.909469
-34.6256
-33.5343
-31.807
-29.599
-27.066
-24.3452
-21.5452
-18.7449
-15.9954
-13.3252
-10.7451
-8.25252
-5.8359
-3.47733
-1.15501
-43.7938
-42.2336
-39.8409
-36.8536
-33.4971
-29.9583
-26.3765
-22.8455
-19.4209
-16.1287
-12.9737
-9.94542
-7.02352
-4.1813
-1.38824
-53.9997
-51.7654
-48.4694
-44.4775
-40.1106
-35.6145
-31.157
-26.8397
-22.7139
-18.7952
-15.0757
-11.532
-8.13146
-4.83613
-1.60488
-65.6055
-62.3591
-57.7942
-52.4763
-46.8534
-41.2323
-35.7975
-30.6426
-25.7998
-21.2626
-17.0018
-12.9753
-9.13427
-5.4269
-1.80001
-79.1079
-74.2714
-67.8721
-60.7804
-53.5945
-46.6638
-40.1581
-34.1334
-28.5801
-23.4537
-18.6938
-14.2331
-10.0034
-5.9372
-1.9683
-95.1949
-87.7469
-78.6425
-69.1789
-60.0805
-51.6703
-44.0378
-37.153
-30.9334
-25.2786
-20.0864
-15.26
-10.7092
-6.35019
-2.10428
-114.785
-102.879
-89.7724
-77.2122
-65.8783
-55.8995
-47.1699
-39.5074
-32.722
-26.6407
-21.1135
-16.0114
-11.2231
-6.65011
-2.20291
-138.878
-119.212
-100.356
-84.0194
-70.3213
-58.8795
-49.2349
-40.9848
-33.8066
-27.449
-21.7153
-16.449
-11.5217
-6.82426
-2.26019
-167.558
-134.734
-108.422
-88.188
-72.5081
-60.0623
-49.9057
-41.3903
-34.0707
-27.6333
-21.8499
-16.5477
-11.5904
-6.8651
-2.27377
-195.673
-143.747
-110.408
-87.8031
-71.4608
-58.9563
-48.9352
-40.6
-33.4527
-27.1638
-21.5033
-16.3015
-11.427
-6.77202
-2.24356
-196.021
-134.172
-101.66
-81.1558
-66.5761
-55.3669
-46.2789
-38.6219
-31.9762
-26.066
-20.6979
-15.7281
-11.0441
-6.55246
-2.17203
-10.4677
-31.6504
-53.5976
-76.8987
-102.28
-130.699
-163.502
-202.695
-251.455
-315.188
-403.881
-537.971
-764.586
-1207.15
-2227.97
-10.3739
-31.3562
-53.0623
-76.0439
-100.97
-128.705
-160.425
-197.805
-243.339
-300.861
-376.339
-478.604
-616.767
-774.567
-750.356
-10.1166
-30.5579
-51.6383
-73.8345
-97.7053
-123.938
-153.407
-187.242
-226.887
-274.047
-330.174
-394.278
-455.273
-468.337
-298.047
-9.71428
-29.3143
-49.4369
-70.4581
-92.7948
-116.917
-143.349
-172.634
-205.202
-240.993
-278.453
-312.092
-327.032
-289.414
-141.419
-9.1924
-27.7062
-46.6089
-66.1646
-86.6394
-108.286
-131.302
-155.735
-181.267
-206.763
-229.372
-242.878
-235.269
-187.122
-78.4227
-8.58049
-25.8266
-43.3248
-61.2295
-79.6658
-98.6975
-118.265
-138.066
-157.347
-174.526
-186.594
-188.316
-171.645
-126.869
-48.857
-7.90901
-23.7707
-39.7564
-55.9219
-72.2744
-88.732
-105.058
-120.752
-134.88
-145.829
-150.989
-146.513
-127.533
-89.6883
-32.9705
-7.20677
-21.6276
-36.061
-50.4816
-64.8061
-78.8529
-92.2835
-104.517
-114.615
-121.145
-122.068
-114.773
-96.5142
-65.6087
-23.4871
-6.49908
-19.4747
-32.3727
-45.1057
-57.5274
-69.3976
-80.335
-89.7587
-96.8205
-100.349
-98.8486
-90.6402
-74.2725
-49.3144
-17.372
-5.80668
-17.3748
-28.7973
-39.9437
-50.629
-60.5865
-69.4335
-76.6351
-81.4735
-83.0393
-80.2822
-72.1674
-57.9921
-37.8674
-13.2015
-5.14539
-15.375
-25.4123
-35.0997
-44.2337
-52.5438
-59.671
-65.1486
-68.3941
-68.7268
-65.4323
-57.8991
-45.84
-29.5719
-10.2365
-4.52629
-13.5078
-22.2688
-30.6382
-38.4083
-45.3201
-51.0514
-55.2087
-57.3336
-56.9292
-53.5224
-46.7706
-36.6082
-23.405
-8.06076
-3.9563
-11.7929
-19.396
-26.5912
-33.1768
-38.9141
-43.5221
-46.6777
-48.0266
-47.2134
-43.9327
-38.0081
-29.486
-18.7237
-6.42441
-3.43881
-10.2395
-16.8054
-22.9662
-28.5324
-33.2901
-36.9994
-39.3988
-40.2188
-39.2085
-36.1768
-31.0474
-23.918
-15.1086
-5.16935
-2.97453
-8.84862
-14.495
-19.7526
-24.4479
-28.3925
-31.3844
-33.2146
-33.6798
-32.6052
-29.8758
-25.4737
-19.5155
-12.2772
-4.19144
-2.56212
-7.61533
-12.4537
-16.9283
-20.8832
-24.1547
-26.5745
-27.9764
-28.2082
-27.1495
-24.7348
-20.9792
-16.001
-10.0336
-3.41962
-2.19888
-6.5308
-10.6642
-14.464
-17.7918
-20.5069
-22.4699
-23.5493
-23.6312
-22.6338
-20.5236
-17.3327
-13.1724
-8.23855
-2.80402
-1.88124
-5.58371
-9.10588
-12.3267
-15.1248
-17.3801
-18.9777
-19.8134
-19.8024
-18.8896
-17.0617
-14.3583
-10.8802
-6.79075
-2.30873
-1.60514
-4.76151
-7.75625
-10.4822
-12.8337
-14.7091
-16.0134
-16.6645
-16.5988
-15.7799
-14.2068
-11.9211
-9.01192
-5.61518
-1.90738
-1.36639
-4.05127
-6.59284
-8.89706
-10.8727
-12.4336
-13.5019
-14.0123
-13.9171
-13.193
-11.8458
-9.91626
-7.48172
-4.6553
-1.58019
-1.16083
-3.44032
-5.59386
-7.53957
-9.19905
-10.4996
-11.3771
-11.7797
-11.6716
-11.0379
-9.88864
-8.26151
-6.22323
-3.86785
-1.31213
-0.984488
-2.91662
-4.7389
-6.38042
-7.77411
-8.85875
-9.58153
-9.90099
-9.79025
-9.24028
-8.26274
-6.89182
-5.18458
-3.2193
-1.09159
-0.833677
-2.46905
-4.00918
-5.39301
-6.56333
-7.46866
-8.06546
-8.32049
-8.21339
-7.73905
-6.90955
-5.75527
-4.32482
-2.68337
-0.909507
-0.705027
-2.08747
-3.38777
-4.55357
-5.5362
-6.29241
-6.78625
-6.99098
-6.89109
-6.48401
-5.78149
-4.81018
-3.61133
-2.23925
-0.758725
-0.595514
-1.76281
-2.85957
-3.84106
-4.66597
-5.29801
-5.70742
-5.87262
-5.78171
-5.43376
-4.83976
-4.02284
-3.01792
-1.87031
-0.633543
-0.502448
-1.48703
-2.41127
-3.23706
-3.92942
-4.4579
-4.79785
-4.93178
-4.85049
-4.55408
-4.05254
-3.36583
-2.52343
-1.56316
-0.529383
-0.423463
-1.25305
-2.03121
-2.72553
-3.30646
-3.74846
-4.03109
-4.1401
-4.06838
-3.8166
-3.39368
-2.81675
-2.11066
-1.30698
-0.442541
-0.356491
-1.05473
-1.70925
-2.29258
-2.77979
-3.14947
-3.38465
-3.47371
-3.41108
-3.19775
-2.84158
-2.3572
-1.76553
-1.09293
-0.370005
-0.299738
-0.886709
-1.43662
-1.92625
-2.33459
-2.6437
-2.8395
-2.91247
-2.85822
-2.6779
-2.37836
-1.97203
-1.47649
-0.91377
-0.30931
-0.25165
-0.744376
-1.20577
-1.61626
-1.95816
-2.21647
-2.37949
-2.43941
-2.39275
-2.2407
-1.98917
-1.64868
-1.23401
-0.763544
-0.25843
-0.21089
-0.623757
-1.01022
-1.3538
-1.63967
-1.85529
-1.99094
-2.04021
-2.00034
-1.87245
-1.66163
-1.37677
-1.03022
-0.637334
-0.215693
-0.17631
-0.521439
-0.844387
-1.13133
-1.36987
-1.54954
-1.66227
-1.7028
-1.66893
-1.56169
-1.38543
-1.1476
-0.858554
-0.531055
-0.179711
-0.146921
-0.434494
-0.70351
-0.942418
-1.14087
-1.29018
-1.38365
-1.41697
-1.38837
-1.29879
-1.15189
-0.953938
-0.713542
-0.441303
-0.149329
-0.121876
-0.360411
-0.583501
-0.781542
-0.945948
-1.06951
-1.14673
-1.17405
-1.15007
-1.07561
-0.953747
-0.789697
-0.590602
-0.365231
-0.123581
-0.100449
-0.297033
-0.480854
-0.643979
-0.77933
-0.880975
-0.944398
-0.9667
-0.946757
-0.885286
-0.784846
-0.649747
-0.485876
-0.300442
-0.101655
-0.0820109
-0.242503
-0.39255
-0.525668
-0.636074
-0.718931
-0.770564
-0.78863
-0.77223
-0.721975
-0.639969
-0.529742
-0.396097
-0.24491
-0.0828625
-0.0660196
-0.195212
-0.315981
-0.4231
-0.511912
-0.578528
-0.619998
-0.634448
-0.621171
-0.580671
-0.514655
-0.425968
-0.318478
-0.196907
-0.0666192
-0.0520017
-0.153759
-0.248873
-0.333221
-0.403136
-0.455555
-0.488161
-0.499486
-0.488982
-0.457055
-0.405055
-0.335228
-0.25062
-0.154945
-0.0524212
-0.0395404
-0.116912
-0.189226
-0.253348
-0.306486
-0.346315
-0.371076
-0.379656
-0.371643
-0.347351
-0.307812
-0.254734
-0.190433
-0.117731
-0.0398303
-0.0282641
-0.0835697
-0.135258
-0.181087
-0.219062
-0.247521
-0.265206
-0.271326
-0.265588
-0.248218
-0.219954
-0.18202
-0.13607
-0.0841208
-0.0284591
-0.0178354
-0.0527347
-0.0853517
-0.114271
-0.138235
-0.156194
-0.167354
-0.171216
-0.167596
-0.156635
-0.1388
-0.114862
-0.0858661
-0.0530838
-0.0179589
-0.0079416
-0.023482
-0.0380082
-0.0508912
-0.0615707
-0.0695789
-0.0745617
-0.0762943
-0.0746925
-0.069818
-0.0618766
-0.0512111
-0.0382867
-0.023671
-0.00800844
0.00171455
0.00506757
0.00819581
0.010961
0.0132415
0.0149378
0.0159771
0.0163158
0.0159413
0.0148725
0.0131578
0.0108735
0.00811972
0.00501595
0.00169631
0.0114233
0.0337726
0.054651
0.0731484
0.0884575
0.099909
0.107
0.109419
0.107055
0.100009
0.0885861
0.0732828
0.0547681
0.0338521
0.0114515
0.0214768
0.0634968
0.102756
0.137545
0.166346
0.187901
0.201261
0.205835
0.201413
0.188179
0.166703
0.137917
0.10308
0.0637169
0.0215547
0.0321772
0.0951341
0.153958
0.20609
0.249257
0.281571
0.30161
0.308485
0.301878
0.28206
0.249884
0.206745
0.154528
0.0955213
0.0323142
0.043846
0.129636
0.209798
0.280848
0.339689
0.383747
0.411082
0.420479
0.411498
0.384506
0.340661
0.281864
0.210683
0.130236
0.0440585
0.0568334
0.168037
0.271953
0.364067
0.440366
0.497512
0.532987
0.545207
0.533599
0.498632
0.4418
0.365566
0.273258
0.168923
0.0571469
0.0715282
0.211488
0.342286
0.458246
0.554317
0.626295
0.671006
0.686448
0.67189
0.62791
0.556384
0.460407
0.344168
0.212765
0.0719802
0.0883694
0.261287
0.422903
0.566207
0.684965
0.773976
0.829309
0.848481
0.83057
0.77628
0.687913
0.569291
0.425588
0.26311
0.0890142
0.107858
0.31892
0.516209
0.691181
0.836227
0.944995
1.01267
1.03621
1.01446
0.948265
0.840411
0.695557
0.520019
0.321506
0.108773
0.130574
0.386097
0.624981
0.836895
1.01263
1.14449
1.22663
1.25533
1.22916
1.14912
1.01855
0.843088
0.630374
0.389758
0.131869
0.157187
0.464807
0.752443
1.00768
1.21944
1.37844
1.47762
1.51246
1.4812
1.38498
1.22781
1.01643
0.760065
0.46998
0.159017
0.18848
0.557366
0.902358
1.2086
1.46281
1.65385
1.77321
1.81541
1.77827
1.66309
1.47463
1.22096
0.913124
0.564673
0.191065
0.225367
0.666484
1.07913
1.44557
1.74996
1.97894
2.12227
2.17333
2.12941
1.99198
1.76665
1.46303
1.09433
0.676802
0.229017
0.26892
0.795334
1.28791
1.72556
2.08937
2.36338
2.53529
2.59707
2.54537
2.38179
2.11294
1.75021
1.30937
0.809901
0.274073
0.320393
0.947633
1.53476
2.05672
2.49101
2.81857
3.02463
3.09946
3.03886
2.84456
2.52428
2.09151
1.56505
0.968199
0.327667
0.381251
1.12774
1.82676
2.44864
2.96662
3.35796
3.60493
3.6957
3.62501
3.39465
3.01358
2.49775
1.86953
1.15677
0.391521
0.453211
1.34073
2.17221
2.91255
3.52999
3.9974
4.29348
4.40383
4.32183
4.04919
3.59628
2.98188
2.23259
1.38171
0.467708
0.538271
1.59255
2.58083
3.46164
4.19733
4.75557
5.11074
5.24528
5.15075
4.82868
4.29091
3.5595
2.66606
1.65041
0.558736
0.638754
1.89012
3.06392
4.11128
4.98765
5.65446
6.0809
6.24547
6.13738
5.75766
5.11973
4.24943
3.18424
1.97179
0.667646
0.757352
2.24144
3.63462
4.87943
5.92318
6.71993
7.23255
7.43462
7.31226
6.86558
6.10961
5.07443
3.80447
2.35674
0.798141
0.897163
2.65575
4.30813
5.7869
7.02986
7.98231
8.59941
8.8486
8.7119
8.18788
7.29301
6.06217
4.54791
2.81853
0.954752
1.06174
3.14365
5.10194
6.85776
8.33785
9.47708
10.2212
10.53
10.38
9.76719
8.70928
7.24634
5.44046
3.37349
1.14305
1.25511
3.71721
6.03603
8.11968
9.88204
11.2456
12.1448
12.5294
12.3688
11.655
10.4063
8.66822
6.51398
4.04176
1.36994
1.48182
4.39005
7.13306
9.60422
11.7026
13.336
14.4248
14.9067
14.7409
13.9137
12.4424
10.3786
7.80791
4.84838
1.644
1.74691
5.17734
8.41844
11.347
13.8452
15.8036
17.1256
17.7328
17.5713
16.6187
14.8894
12.4402
9.37142
5.82472
1.97602
2.05593
6.0958
9.9203
13.3881
16.3619
18.7122
20.3216
21.0915
20.9502
19.8619
17.8353
14.9313
11.2662
7.01044
2.37967
2.41481
7.16344
11.6693
15.7713
19.3107
22.1342
24.0993
25.0817
24.9855
23.7555
21.3896
17.95
13.5706
8.4561
2.87247
2.82977
8.39925
13.698
18.5441
22.7553
26.151
28.558
29.8193
29.8066
28.4365
25.688
21.6203
16.3847
10.227
3.47713
3.30712
9.82255
16.0401
21.7569
26.7649
30.8527
33.8105
35.4398
35.5687
34.0729
30.901
26.1004
19.838
12.4086
4.22349
3.85287
11.4521
18.7291
25.4604
31.4117
36.3373
39.9836
42.1001
42.4567
40.8711
37.2432
31.5941
24.1006
15.1143
5.15147
4.47235
13.3047
21.7958
29.704
36.7691
42.7079
47.2166
49.9799
50.6911
49.0852
44.9868
38.3666
29.3985
18.4971
6.31539
5.16957
15.3936
25.2658
34.5315
42.9063
50.0691
55.6589
59.2819
60.5314
59.0274
54.479
46.7675
36.0371
22.7681
7.7908
5.94642
17.7257
29.1557
39.9754
49.8826
58.5195
65.4638
70.2287
72.2803
71.0803
66.1648
57.262
44.4367
28.2241
9.68543
6.80181
20.2993
33.4675
46.0507
57.7381
68.1419
76.7782
83.0557
86.283
85.7092
80.6157
70.4772
55.1861
35.2937
12.1574
7.7305
23.1003
38.1836
52.7453
66.4815
78.9878
89.7262
97.996
102.921
103.472
98.5654
87.2665
69.1275
44.6141
15.4472
8.72204
26.0989
43.2597
60.01
76.0751
91.0568
104.383
115.254
122.589
125.018
120.949
108.801
87.4913
57.1633
19.9356
9.75973
29.2461
48.6182
67.7472
86.4166
104.27
120.74
134.96
145.658
151.071
148.935
136.691
112.113
74.5005
26.2583
10.8198
32.4709
54.1427
75.7995
97.32
118.438
138.653
157.103
172.388
182.358
183.93
173.139
145.778
99.215
35.5478
11.8713
35.6796
59.6745
83.9422
108.498
133.226
157.783
181.436
202.801
219.464
227.501
221.083
192.77
135.801
49.9938
12.8765
38.7566
65.0136
91.8804
119.549
148.125
177.533
207.347
236.465
262.547
281.097
284.217
259.649
192.406
74.2844
13.7926
41.5696
69.9256
99.2565
129.964
162.437
196.991
233.729
272.224
310.845
345.389
366.561
356.148
284.331
119.715
14.5747
43.9781
74.1567
105.671
139.146
175.294
214.92
258.876
307.879
361.954
418.947
470.817
495.268
440.682
217.092
15.1795
45.8458
77.4563
110.718
146.464
185.727
229.829
280.503
339.993
411.014
496.037
594.086
689.245
714.371
460.7
15.5702
47.0554
79.605
114.033
151.332
192.787
240.162
295.991
364.078
450.326
564.051
719.327
931.813
1181.62
1167.98
15.7205
47.5233
80.4448
115.349
153.304
195.725
244.608
302.949
375.528
470.529
603.177
804.795
1148.41
1831.75
3487.92
15.6188
47.2118
79.9032
114.54
152.167
194.163
242.472
300.001
371.383
464.562
594.371
791.606
1129
1806.2
3466.85
15.2695
46.135
78.0062
111.648
147.986
188.206
233.919
287.413
352.08
433.131
538.708
681.032
873.556
1097.6
1078.65
14.6929
44.3571
74.8752
106.879
141.1
178.422
219.947
267.048
321.38
384.644
457.494
535.554
596.17
557.665
175.337
-124.46
-100.958
-83.4651
-70.0082
-59.2207
-50.2677
-42.6256
-35.9489
-29.9982
-24.5998
-19.6219
-14.9605
-10.5301
-6.25704
-2.07565
-46.6081
-64.3585
-63.367
-57.6777
-51.0674
-44.5987
-38.5492
-32.9537
-27.7715
-22.9412
-18.399
-14.0844
-9.9413
-5.9178
-1.96483
-21.1627
-40.7743
-46.5314
-45.987
-42.8158
-38.6388
-34.1576
-29.6716
-25.3005
-21.0826
-17.0181
-13.0891
-9.26952
-5.52959
-1.83783
-11.4909
-26.8114
-34.0719
-36.1205
-35.2626
-32.89
-29.7695
-26.3096
-22.7231
-19.1176
-15.5431
-12.0178
-8.54246
-5.10793
-1.69964
-7.13938
-18.4457
-25.2318
-28.2724
-28.7615
-27.6607
-25.6172
-23.0354
-20.159
-17.1311
-14.0338
-10.9118
-7.78708
-4.66805
-1.55519
-4.85212
-13.2189
-18.9928
-22.1963
-23.3644
-23.086
-21.8388
-19.966
-17.7
-15.1929
-12.5418
-9.80774
-7.02775
-4.22391
-1.40902
-3.49366
-9.79275
-14.539
-17.5336
-18.9718
-19.1841
-18.4948
-17.1696
-15.4085
-13.3546
-11.1075
-8.73555
-6.285
-3.78743
-1.26505
-2.61315
-7.44499
-11.3015
-13.9517
-15.4307
-15.9085
-15.5923
-14.676
-13.3203
-11.6504
-9.75992
-7.71795
-5.57492
-3.36818
-1.12644
-2.00656
-5.77452
-8.9019
-11.183
-12.5849
-13.1841
-13.1066
-12.4876
-11.4505
-10.0993
-8.51757
-6.77055
-4.9091
-2.97323
-0.995567
-1.57024
-4.54889
-7.08996
-9.02497
-10.2965
-10.9298
-10.9971
-10.5894
-9.79872
-8.70845
-7.38999
-5.90261
-4.29495
-2.60732
-0.874048
-1.2463
-3.62713
-5.69892
-7.32765
-8.45145
-9.06855
-9.21729
-8.9572
-8.35503
-7.47605
-6.37974
-5.1182
-3.73636
-2.27311
-0.762825
-0.99998
-2.92
-4.61555
-5.98099
-6.95824
-7.53254
-7.72144
-7.5626
-7.10357
-6.39458
-5.48423
-4.41733
-3.23431
-1.97155
-0.662277
-0.809176
-2.36874
-3.76143
-4.90391
-5.74487
-6.26419
-6.46709
-6.37647
-6.0257
-5.45296
-4.69745
-3.79711
-2.78763
-1.7023
-0.57234
-0.659195
-1.93338
-3.08106
-4.03623
-4.75488
-5.21558
-5.41658
-5.37101
-5.10197
-4.63827
-4.01125
-3.25268
-2.39365
-1.46404
-0.492627
-0.539911
-1.58589
-2.53437
-3.33281
-3.94401
-4.34733
-4.5373
-4.52074
-4.31343
-3.93701
-3.4164
-2.77803
-2.04866
-1.25481
-0.422526
-0.444133
-1.30609
-2.09189
-2.75942
-3.27751
-3.62725
-3.80145
-3.80293
-3.64235
-3.33589
-2.90334
-2.36657
-1.74847
-1.07228
-0.36129
-0.366628
-1.07918
-1.73156
-2.2898
-2.72792
-3.02908
-3.18554
-3.19768
-3.07257
-2.82232
-2.46265
-2.0116
-1.48861
-0.913919
-0.308102
-0.303505
-0.894046
-1.43659
-1.90361
-2.27345
-2.5314
-2.66985
-2.68775
-2.58969
-2.38476
-2.08543
-1.70658
-1.26467
-0.777171
-0.262127
-0.251819
-0.742247
-1.19408
-1.5849
-1.89668
-2.11672
-2.23788
-2.25835
-2.18103
-2.01274
-1.76343
-1.44535
-1.07239
-0.659553
-0.22255
-0.209306
-0.617248
-0.993952
-1.32107
-1.58362
-1.7707
-1.87585
-1.89687
-1.83553