/*--------------------------------*- C++ -*----------------------------------*\
| =========                 |                                                 |
| \\      /  F ield         | OpenFOAM: The Open Source CFD Toolbox           |
|  \\    /   O peration     | Version:  5.x                                   |
|   \\  /    A nd           | Web:      www.OpenFOAM.org                      |
|    \\/     M anipulation  |                                                 |
\*---------------------------------------------------------------------------*/
FoamFile
{
    version     2.0;
    format      ascii;
    class       volScalarField;
    location    "10.2";
    object      gradTx;
}
// * * * * * * * * * * * * * * * * * * * * * * * * * * * * * * * * * * * * * //

dimensions      [0 -1 0 1 0 0 0];

internalField   nonuniform List<scalar> 
6300
(
41.0112
41.4137
42.2115
43.3891
44.9223
46.7761
48.9033
51.243
53.7195
56.2423
58.7085
61.0066
63.0232
64.6514
65.8002
40.6074
41.0173
41.8303
43.0323
44.6003
46.5013
48.6895
51.1049
53.6717
56.2975
58.8752
61.2867
63.4102
65.1293
66.3447
39.7924
40.2165
41.059
42.3081
43.9442
45.9379
48.247
50.8141
53.5635
56.3994
59.2065
61.8534
64.1999
66.1094
67.4635
38.5522
38.9959
39.8797
41.1956
42.9293
45.0577
47.5453
50.3397
53.3673
56.5286
59.6967
62.719
65.4252
67.6433
69.2215
36.867
37.334
38.2672
39.6641
41.5184
43.8171
46.5354
49.6308
53.0359
56.6495
60.3313
63.8991
67.137
69.8156
71.7262
34.7137
35.2047
36.1897
37.6738
39.6619
42.1555
45.1469
48.6111
52.4944
56.701
61.0784
65.4077
69.4065
72.7544
75.1461
32.0681
32.5802
33.6121
35.1783
37.2987
39.9948
43.2843
47.1707
51.6283
56.5803
61.8722
67.2452
72.3254
76.648
79.7399
28.9092
29.4347
30.4989
32.1275
34.3585
37.2396
40.8236
45.1579
50.2664
56.1184
62.5832
69.3742
76.0004
81.7705
85.9108
25.2236
25.7496
26.82
28.4731
30.7669
33.7803
37.6113
42.3697
48.1597
55.0421
62.9666
71.6664
80.5298
88.5213
94.3088
21.0111
21.5187
22.5576
24.1768
26.4545
29.5023
33.4703
38.5487
44.9593
52.9223
62.5733
73.7933
85.9295
97.4743
106.036
16.29
16.7556
17.7137
19.2211
21.3709
24.3029
28.2177
33.3943
40.2051
49.1132
60.6093
75.0024
91.9187
109.408
123.096
11.1022
11.499
12.3195
13.6219
15.5042
18.1197
21.7023
26.6044
33.3524
42.7146
55.7468
73.6867
97.3323
125.142
149.493
5.51675
5.81763
6.44253
7.44192
8.9032
10.9685
13.8663
17.9674
23.8844
32.6448
45.9749
66.6634
98.5794
144.333
194.289
-0.370434
-0.18857
0.19021
0.799188
1.69734
2.98386
4.826
7.51367
11.5718
18.0041
28.8431
48.411
85.9871
159.319
281.585
-6.44027
-6.39248
-6.2931
-6.1335
-5.8977
-5.55719
-5.06064
-4.3115
-3.11579
-1.04463
2.98128
12.1488
37.6373
125.368
489.139
66.3965
66.4949
66.1837
65.4721
64.3817
62.9436
61.1955
59.1777
56.9309
54.4939
51.9019
49.1863
46.3739
43.4875
40.5464
37.5669
34.5627
31.5457
28.5265
25.5142
22.5171
19.5429
16.5981
13.6889
10.8204
7.99728
5.22334
2.50174
-0.165052
-2.77521
-5.32752
-7.82128
-10.2562
-12.6324
-14.95
-17.2093
-19.4104
-21.5533
-23.6376
-25.6627
-27.6282
-29.5334
-31.3779
-33.1618
-34.8857
-36.5508
-38.159
-39.7127
-41.2147
-42.6676
-44.0741
-45.4363
-46.7556
-48.0323
-49.2661
-50.456
-51.6003
-52.697
-53.7441
-54.7401
-55.6834
-56.573
-57.408
-58.1876
-58.9104
-59.5742
-60.1755
-60.7095
-61.1696
-61.5474
-61.8335
-62.0173
-62.0877
-62.0339
-61.8459
-61.515
-61.0346
-60.4
-59.6092
-58.6628
-57.5639
-56.3183
-54.9345
-53.4237
-51.7999
-50.0797
-48.2823
-46.4291
-44.543
-42.6479
66.9768
67.0832
66.759
66.0162
64.8808
63.3888
61.5824
59.5061
57.2036
54.7158
52.0789
49.3246
46.4793
43.5653
40.6009
37.6015
34.5803
31.5483
28.5157
25.4915
22.4837
19.4998
16.5465
13.6297
10.7547
7.92613
5.1477
2.4226
-0.246769
-2.85864
-5.41189
-7.90598
-10.3408
-12.7167
-15.0339
-17.293
-19.4941
-21.6374
-23.7223
-25.7484
-27.7147
-29.6203
-31.4648
-33.2478
-34.9698
-36.6322
-38.2369
-39.7867
-41.2846
-42.7338
-44.1373
-45.4975
-46.816
-48.0932
-49.3287
-50.5209
-51.6679
-52.7674
-53.8171
-54.815
-55.7598
-56.6506
-57.487
-58.2685
-58.9945
-59.6631
-60.2716
-60.815
-61.2869
-61.6786
-61.9799
-62.1795
-62.2655
-62.2262
-62.0506
-61.7295
-61.2555
-60.6239
-59.8324
-58.8814
-57.7742
-56.5163
-55.1164
-53.5856
-51.9379
-50.1901
-48.362
-46.4756
-44.5552
-42.6258
68.1692
68.29
67.9354
67.1242
65.8919
64.2853
62.3566
60.1587
57.7419
55.1509
52.4239
49.5926
46.6826
43.7145
40.7048
37.6669
34.6123
31.551
28.4923
25.4444
22.4153
19.4122
16.4418
13.5099
10.6219
7.78236
4.99501
2.26296
-0.411448
-3.02658
-5.58153
-8.07602
-10.5103
-12.8852
-15.2014
-17.4598
-19.661
-21.8051
-23.8917
-25.9197
-27.888
-29.795
-31.6396
-33.4209
-35.1394
-36.7961
-38.3934
-39.9347
-41.4238
-42.865
-44.2621
-45.6181
-46.9351
-48.2135
-49.4525
-50.6501
-51.8032
-52.9087
-53.9636
-54.9654
-55.9129
-56.8056
-57.6438
-58.4284
-59.1599
-59.8378
-60.4601
-61.0226
-61.5186
-61.9387
-62.2717
-62.5043
-62.6229
-62.6136
-62.4638
-62.1629
-61.7025
-61.0771
-60.2842
-59.3242
-58.2002
-56.918
-55.4859
-53.915
-52.2191
-50.4154
-48.5246
-46.5704
-44.5793
-42.5795
70.0424
70.1801
69.7678
68.8371
67.4408
65.6442
63.5168
61.1254
58.5299
55.7805
52.9178
49.9727
46.9686
43.9228
40.8482
37.7553
34.653
31.5494
28.4524
25.3697
22.3089
19.2771
16.2809
13.3265
10.419
7.56307
4.76241
2.02008
-0.661644
-3.28131
-5.83828
-8.33272
-10.7655
-13.138
-15.452
-17.7089
-19.9099
-22.0554
-24.1449
-26.1769
-28.1492
-30.0593
-31.9049
-33.6843
-35.3972
-37.0448
-38.63
-40.1571
-41.6316
-43.0591
-44.4452
-45.7942
-47.1089
-48.3898
-49.6354
-50.8423
-52.0062
-53.122
-54.1855
-55.1934
-56.1441
-57.0381
-57.8771
-58.6639
-59.4015
-60.0916
-60.7338
-61.325
-61.8584
-62.3235
-62.7069
-62.9925
-63.1632
-63.2022
-63.0938
-62.825
-62.3859
-61.7704
-60.9756
-60.0021
-58.8532
-57.5347
-56.0545
-54.4233
-52.6545
-50.7654
-48.7777
-46.7176
-44.6155
-42.5045
72.7115
72.8609
72.3451
71.2188
69.5646
67.4782
65.0558
62.3848
59.538
56.5722
53.529
50.4367
47.3136
44.1713
41.0171
37.8565
34.6948
31.5375
28.3911
25.2628
22.16
19.09
16.0596
13.075
10.1416
7.26383
4.44554
1.68973
-1.00137
-3.62643
-6.18513
-8.6782
-11.1074
-13.4752
-15.7845
-18.0383
-20.2385
-22.3861
-24.4806
-26.5196
-28.4996
-30.4161
-32.2649
-34.0429
-35.7486
-37.383
-38.9497
-40.4548
-41.9061
-43.3121
-44.6809
-46.0191
-47.3306
-48.6161
-49.873
-51.0959
-52.2774
-53.41
-54.4866
-55.5026
-56.4562
-57.3487
-58.1844
-58.9695
-59.7105
-60.4132
-61.0801
-61.7097
-62.2954
-62.8251
-63.2818
-63.6449
-63.8923
-64.0019
-63.9537
-63.7312
-63.3226
-62.7209
-61.9235
-60.9317
-59.7496
-58.3831
-56.8398
-55.1289
-53.2624
-51.2567
-49.1342
-46.9244
-44.6637
-42.3933
76.3568
76.498
75.8002
74.3595
72.3093
69.7946
66.9517
63.896
60.7161
57.4743
54.2098
50.9438
47.6853
44.436
41.1943
37.9586
34.7293
31.509
28.3031
25.1186
21.9633
18.8453
15.7719
12.7495
9.78359
6.87865
4.03843
1.26599
-1.43634
-4.06721
-6.62653
-9.1157
-11.5376
-13.8964
-16.1971
-18.4445
-20.6425
-22.7932
-24.8959
-26.9471
-28.9409
-30.8699
-32.7266
-34.5051
-36.202
-37.8179
-39.3575
-40.8295
-42.2453
-43.6181
-44.9601
-46.2817
-47.5889
-48.8828
-50.1589
-51.4081
-52.6185
-53.7775
-54.8742
-55.9009
-56.8552
-57.7402
-58.5637
-59.3374
-60.074
-60.7853
-61.479
-62.1567
-62.8122
-63.4308
-63.9903
-64.4631
-64.8189
-65.028
-65.0635
-64.9044
-64.5364
-63.9521
-63.1503
-62.1344
-60.9104
-59.4852
-57.8654
-56.0576
-54.07
-51.9154
-49.6156
-47.2037
-44.7253
-42.2347
81.257
81.3415
80.3235
78.3764
75.7215
72.5822
69.1529
65.5847
61.9822
58.4079
54.8915
51.4391
48.0429
44.6887
41.3617
38.0507
34.7499
31.4592
28.1837
24.9316
21.7125
18.5359
15.4102
12.3422
9.33745
6.4
3.53348
0.741114
-1.97435
-4.61112
-7.16901
-9.65004
-12.0586
-14.4013
-16.6862
-18.9216
-21.1145
-23.2691
-25.385
-27.4569
-29.4751
-31.4273
-33.3006
-35.0843
-36.7716
-38.3622
-39.8622
-41.2843
-42.646
-43.9675
-45.2681
-46.5642
-47.8658
-49.1744
-50.4826
-51.7753
-53.0327
-54.2342
-55.3615
-56.4025
-57.3533
-58.2192
-59.014
-59.7577
-60.4731
-61.1817
-61.8999
-62.6347
-63.3811
-64.1205
-64.8226
-65.4486
-65.956
-66.3028
-66.4526
-66.3776
-66.0606
-65.4954
-64.6844
-63.6359
-62.3602
-60.8666
-59.1609
-57.2444
-55.117
-52.7826
-50.2575
-47.5782
-44.8039
-42.0113
87.8496
87.7711
86.1833
83.4108
79.8298
75.7859
71.553
67.3219
63.2063
59.2572
55.4799
51.8524
48.3389
44.9011
41.5053
38.1274
34.755
31.3868
28.03
24.6966
21.3999
18.1526
14.9648
11.8437
8.794
5.81892
2.92151
0.105317
-2.62581
-5.26869
-7.82222
-10.2887
-12.6744
-14.9894
-17.2465
-19.4597
-21.6415
-23.8003
-25.9371
-28.0436
-30.1041
-32.0979
-34.0033
-35.8015
-37.4802
-39.0363
-40.4783
-41.8253
-43.1042
-44.3461
-45.582
-46.8382
-48.1318
-49.4658
-50.8278
-52.1924
-53.5268
-54.7966
-55.9722
-57.0331
-57.9727
-58.7996
-59.5369
-60.2179
-60.8809
-61.5634
-62.2958
-63.0951
-63.959
-64.863
-65.7635
-66.6041
-67.323
-67.8604
-68.1645
-68.198
-67.9412
-67.3916
-66.5597
-65.4636
-64.1228
-62.5525
-60.7588
-58.7343
-56.4614
-53.9234
-51.1208
-48.0888
-44.9079
-41.6959
96.8472
96.3721
93.7475
89.6078
84.6027
79.2602
73.9489
68.8912
64.1898
59.8578
55.8517
52.1003
48.5248
45.052
41.6222
38.1953
34.7531
31.2971
27.842
24.4079
21.0157
17.6831
14.4228
11.242
8.14277
5.12572
2.19237
-0.653149
-3.40446
-6.05499
-8.60081
-11.0436
-13.3919
-15.6607
-17.8699
-20.0426
-22.2014
-24.3632
-26.5323
-28.6963
-30.8287
-32.8952
-34.8599
-36.6905
-38.3645
-39.8741
-41.2307
-42.4638
-43.615
-44.7327
-45.8657
-47.0577
-48.3388
-49.7162
-51.1686
-52.6524
-54.1128
-55.494
-56.747
-57.8376
-58.7534
-59.508
-60.1398
-60.703
-61.2598
-61.8722
-62.5943
-63.4616
-64.4782
-65.6096
-66.7895
-67.9336
-68.9506
-69.7527
-70.265
-70.4355
-70.2424
-69.6931
-68.8145
-67.6427
-66.2147
-64.5594
-62.6879
-60.5809
-58.1868
-55.4443
-52.3137
-48.8129
-45.0563
-41.2419
109.475
108.066
103.491
97.0494
89.8598
82.6872
75.9779
69.9457
64.6399
59.9879
55.8557
52.0938
48.562
45.1399
41.734
38.2842
34.77
31.2056
27.6227
24.0582
20.545
17.109
13.7661
10.5221
7.37293
4.3117
1.33652
-1.54745
-4.32837
-6.99213
-9.52777
-11.9345
-14.2239
-16.4176
-18.5458
-20.6454
-22.7568
-24.915
-27.1345
-29.394
-31.6477
-33.8388
-35.909
-37.8046
-39.4848
-40.9315
-42.1605
-43.2192
-44.1734
-45.0965
-46.0638
-47.148
-48.4062
-49.8578
-51.4632
-53.145
-54.8121
-56.375
-57.7547
-58.893
-59.765
-60.3926
-60.8403
-61.1962
-61.5575
-62.0221
-62.6828
-63.6119
-64.8312
-66.285
-67.8662
-69.4449
-70.8865
-72.0612
-72.8566
-73.1953
-73.0554
-72.4676
-71.4901
-70.1898
-68.6325
-66.8766
-64.9552
-62.8398
-60.4127
-57.5233
-54.0387
-49.9047
-45.2868
-40.5612
128
124.319
115.921
105.566
95.0911
85.4456
77.0301
69.9524
64.147
59.3682
55.3252
51.7548
48.44
45.2035
41.9079
38.4649
34.8585
31.1398
27.3762
23.634
19.9627
16.4001
12.9664
9.66553
6.47605
3.37348
0.349119
-2.59029
-5.42108
-8.11382
-10.6403
-12.9946
-15.1934
-17.2686
-19.2627
-21.2312
-23.2442
-25.3784
-27.6789
-30.0995
-32.5563
-34.9558
-37.209
-39.2284
-40.9407
-42.3018
-43.3347
-44.1247
-44.7759
-45.3957
-46.0931
-46.9867
-48.1944
-49.7771
-51.6467
-53.6581
-55.6605
-57.5189
-59.109
-60.3307
-61.1277
-61.535
-61.6719
-61.6809
-61.7054
-61.8884
-62.3838
-63.3432
-64.8453
-66.7759
-68.9455
-71.1524
-73.2056
-74.9147
-76.1047
-76.6431
-76.5123
-75.8022
-74.6295
-73.1058
-71.3353
-69.4311
-67.5008
-65.5465
-63.3033
-60.4586
-56.6979
-51.6926
-45.6718
-39.4643
157.042
147.359
131.169
114.254
99.1271
86.4318
76.1547
68.126
62.1746
57.688
54.1128
51.0469
48.204
45.3513
42.2932
38.8799
35.1081
31.1379
27.0983
23.107
19.2234
15.505
11.975
8.64827
5.45373
2.32245
-0.760783
-3.78966
-6.71264
-9.47493
-12.0007
-14.2785
-16.3406
-18.2363
-20.0162
-21.7526
-23.5567
-25.6022
-28.05
-30.7524
-33.5472
-36.283
-38.8452
-41.0939
-42.9015
-44.1443
-44.8581
-45.2291
-45.4229
-45.5827
-45.839
-46.3727
-47.4417
-49.2826
-51.6253
-54.1832
-56.7153
-59.0483
-60.9928
-62.3789
-63.0509
-63.0656
-62.687
-62.1421
-61.6243
-61.3038
-61.4157
-62.2923
-64.2413
-66.9215
-69.9702
-73.0798
-76.0194
-78.5143
-80.29
-81.0534
-80.8022
-79.8017
-78.2732
-76.3761
-74.2297
-72.0223
-70.0798
-68.6685
-67.0591
-64.7119
-61.1486
-54.9419
-46.3251
-37.49
207.163
179.77
147.457
120.363
99.6594
83.9338
72.0398
63.3066
58.0915
54.6943
52.1657
50.0169
47.9809
45.794
43.1886
39.8104
35.6423
31.2351
26.75
22.4244
18.2454
14.3384
10.6903
7.44028
4.34001
1.20199
-1.94915
-5.14165
-8.23565
-11.1766
-13.7183
-15.8727
-17.7274
-19.3707
-20.8321
-22.1763
-23.5215
-25.246
-28.0542
-31.2716
-34.6224
-37.8597
-40.9322
-43.5939
-45.6749
-46.7477
-46.8745
-46.588
-46.1182
-45.63
-45.1844
-44.9871
-45.5765
-48.0648
-51.293
-54.7447
-58.0559
-61.1362
-63.6795
-65.4543
-65.9193
-65.1617
-63.9404
-62.563
-61.258
-60.0955
-59.3454
-59.6958
-62.5834
-66.5351
-70.9061
-75.2509
-79.4721
-83.1486
-85.9314
-86.9236
-86.1697
-84.5603
-82.4463
-80.004
-77.2109
-74.2306
-71.8926
-72.0744
-71.8761
-70.7156
-69.4046
-61.6608
-47.2921
-33.404
305.669
219.264
156.228
117.268
93.0218
75.9169
63.3718
53.4201
51.3894
50.4487
49.6707
48.8235
47.9738
46.8385
45.1961
41.8771
36.5201
31.4437
26.1714
21.53
16.8753
12.7984
8.83206
6.01637
3.28039
0.100232
-3.07809
-6.63559
-9.97899
-13.4534
-15.9933
-17.8984
-19.4185
-20.7667
-21.8166
-22.5981
-22.9397
-23.3292
-27.4685
-31.5986
-35.8606
-39.6729
-43.6105
-46.9292
-49.8996
-50.7128
-49.4852
-48.2101
-46.8394
-45.6152
-44.1718
-42.4677
-40.9764
-45.7806
-50.6379
-55.5077
-59.7279
-63.9963
-67.472
-70.4148
-70.5472
-67.9244
-65.4178
-62.8788
-60.6854
-58.2923
-55.6894
-53.4449
-59.3922
-65.544
-71.8788
-77.5985
-83.7082
-89.0684
-94.1501
-95.307
-92.7677
-90.0444
-87.0908
-84.1357
-80.4606
-75.5131
-70.0758
-76.0267
-78.0776
-76.9348
-86.9227
-77.9187
-47.5662
-23.7334
530.998
225.104
130.325
92.9839
76.0992
61.3324
50.9682
32.1263
43.1164
45.9678
47.2742
47.6324
48.3768
48.6121
49.6167
46.8775
36.9929
31.9334
24.6835
20.6539
14.6728
11.0986
5.31661
4.47737
2.86013
-1.00436
-3.66113
-8.43792
-11.5336
-17.0759
-19.1825
-20.4785
-21.3569
-22.5921
-23.1873
-23.6532
-22.2884
-16.0126
-26.8954
-31.7351
-37.7459
-41.3049
-47.1793
-50.7654
-57.2297
-57.6158
-52.1633
-49.9694
-47.3486
-45.9154
-43.5339
-39.6411
-27.3101
-43.4191
-49.9638
-57.2054
-61.3294
-67.9968
-72.0306
-79.421
-79.1416
-70.5184
-66.9408
-62.6958
-60.3993
-56.7904
-51.5163
-35.3968
-55.9056
-64.2882
-73.7361
-79.3832
-89.0222
-95.3878
-108.019
-109.011
-99.6293
-95.8588
-91.7362
-89.3028
-85.5414
-77.4994
-51.859
-85.5937
-88.8769
-67.1247
-131.788
-124.917
-38.4511
0.940734
-40.5826
-38.3835
-36.277
-34.2924
-32.4527
-30.774
-29.2664
-27.9349
-26.7805
-25.8015
-24.9946
-24.3557
-23.8807
-23.5662
-23.4096
-40.5247
-38.2905
-36.1545
-34.147
-32.2911
-30.6024
-29.0898
-27.7573
-26.6046
-25.629
-24.8262
-24.1914
-23.7199
-23.4079
-23.2527
-40.4048
-38.0985
-35.9027
-33.8496
-31.9619
-30.254
-28.7328
-27.3994
-26.2513
-25.2833
-24.4894
-23.8633
-23.3992
-23.0926
-22.9401
-40.214
-37.7953
-35.5078
-33.3861
-31.4524
-29.7185
-28.1873
-26.8558
-25.7173
-24.7632
-23.9845
-23.3728
-22.9208
-22.6227
-22.4746
-39.9375
-37.3604
-34.9466
-32.7339
-30.7427
-28.9798
-27.4418
-26.1189
-24.9985
-24.0672
-23.3122
-22.7222
-22.288
-22.0024
-21.8608
-39.5519
-36.7615
-34.1839
-31.8595
-29.8043
-28.0159
-26.4805
-25.1789
-24.0902
-23.1946
-22.4746
-21.9156
-21.5061
-21.2378
-21.105
-39.0207
-35.9494
-33.1674
-30.7155
-28.5986
-26.7985
-25.2852
-24.0256
-22.9884
-22.146
-21.4755
-20.959
-20.5829
-20.3373
-20.216
-38.2852
-34.8476
-31.8202
-29.236
-27.0758
-25.2938
-23.8356
-22.6497
-21.6915
-20.925
-20.3222
-19.8618
-19.5287
-19.3121
-19.2055
-37.2472
-33.3349
-30.0292
-27.332
-25.1746
-23.4647
-22.1134
-21.0457
-20.2026
-19.5401
-19.0259
-18.6372
-18.3577
-18.1768
-18.0879
-35.7319
-31.2149
-27.6294
-24.8878
-22.8252
-21.2768
-20.1074
-19.2166
-18.5327
-18.0064
-17.604
-17.3028
-17.0878
-16.9492
-16.8812
-33.4087
-28.1629
-24.3851
-21.7642
-19.9614
-18.7093
-17.8227
-17.1802
-16.705
-16.3486
-16.0806
-15.8821
-15.7412
-15.6506
-15.6063
-29.6125
-23.6424
-19.9837
-17.8222
-16.5464
-15.7762
-15.2934
-14.9764
-14.7583
-14.6021
-14.4876
-14.4036
-14.344
-14.3056
-14.2868
-22.9429
-16.8101
-14.0847
-12.9943
-12.6254
-12.5554
-12.5981
-12.6735
-12.7493
-12.8136
-12.8637
-12.9003
-12.9254
-12.9408
-12.9482
-10.3934
-6.57034
-6.55032
-7.44484
-8.40521
-9.22193
-9.86974
-10.3701
-10.7515
-11.0392
-11.2532
-11.4085
-11.5162
-11.584
-11.6167
14.4298
7.47261
1.89866
-1.82935
-4.32856
-6.05716
-7.28869
-8.18545
-8.84734
-9.33841
-9.70107
-9.96401
-10.1467
-10.262
-10.3178
-12.0488
-12.1273
-12.292
-12.559
-12.9564
-13.5302
-14.3556
-15.5613
-17.3827
-20.2986
-25.4394
-36.0533
-63.7396
-158.794
-572.862
-17.0933
-17.2815
-17.6749
-18.3102
-19.2514
-20.604
-22.5419
-25.3612
-29.5931
-36.2576
-47.4759
-68.0176
-109.118
-195.584
-355.836
-22.0075
-22.2937
-22.8902
-23.8493
-25.2611
-27.2718
-30.1165
-34.1806
-40.1146
-49.0546
-63.0379
-85.7049
-122.991
-181.134
-250.093
-26.7234
-27.0908
-27.854
-29.0743
-30.8552
-33.3606
-36.8446
-41.7018
-48.5489
-58.3494
-72.57
-93.2403
-122.378
-159.173
-192.236
-31.1844
-31.6133
-32.5009
-33.9103
-35.9465
-38.7701
-42.6193
-47.8413
-54.9322
-64.5747
-77.623
-94.8958
-116.448
-139.801
-157.34
-35.3479
-35.8176
-36.7856
-38.3113
-40.4911
-43.4675
-47.441
-52.6831
-59.5439
-68.4349
-79.7417
-93.58
-109.265
-124.467
-134.622
-39.1854
-39.6763
-40.6833
-42.2582
-44.4827
-47.4728
-51.3819
-56.4009
-62.7459
-70.6173
-80.1022
-90.9812
-102.419
-112.636
-118.956
-42.6822
-43.1768
-44.1868
-45.7541
-47.9429
-50.8399
-54.552
-59.1981
-64.8882
-71.6793
-79.4943
-87.9937
-96.4211
-103.512
-107.678
-45.8357
-46.3197
-47.3035
-48.8186
-50.9115
-53.6412
-57.0736
-61.2702
-66.2659
-72.0304
-78.4109
-85.0562
-91.3506
-96.4186
-99.2934
-48.6533
-49.1156
-50.0513
-51.482
-53.438
-55.9544
-59.0645
-62.7876
-67.1095
-71.9538
-77.1436
-82.3621
-87.1316
-90.8479
-92.9046
-51.1501
-51.5829
-52.4555
-53.7808
-55.5755
-57.8555
-60.6298
-63.889
-67.5904
-71.6373
-75.8564
-79.9795
-83.644
-86.4294
-87.9439
-53.3465
-53.745
-54.5455
-55.7539
-57.3759
-59.4134
-61.8583
-64.6834
-67.8313
-71.2011
-74.6357
-77.9154
-80.7666
-82.8933
-84.0346
-55.2662
-55.628
-56.3524
-57.4397
-58.8878
-60.6886
-62.8228
-65.2536
-67.9182
-70.72
-73.5224
-76.1487
-78.3923
-80.0415
-80.9178
-56.9347
-57.2594
-57.9073
-58.875
-60.1549
-61.7322
-63.5815
-65.6614
-67.9097
-70.2383
-72.5314
-74.6478
-76.4306
-77.7262
-78.4095
-58.3779
-58.6663
-59.2403
-60.0937
-61.2154
-62.5871
-64.18
-65.9524
-67.8454
-69.7813
-71.6631
-73.3783
-74.8071
-75.8361
-76.3756
-59.6209
-59.8749
-60.3792
-61.1261
-62.1025
-63.2882
-64.654
-66.1595
-67.7513
-69.3618
-70.9105
-72.3078
-73.4611
-74.2859
-74.7162
-60.6876
-60.9097
-61.3498
-61.9993
-62.8443
-63.8643
-65.031
-66.3068
-67.6441
-68.9851
-70.2631
-71.4065
-72.3434
-73.0094
-73.3557
-61.6001
-61.7931
-62.1749
-62.7367
-63.4645
-64.3386
-65.3322
-66.4115
-67.5344
-68.652
-69.7093
-70.6486
-71.4136
-71.9549
-72.2355
-62.3787
-62.5456
-62.8751
-63.3588
-63.9832
-64.7298
-65.5741
-66.4857
-67.4285
-68.3608
-69.2374
-70.0116
-70.6391
-71.0815
-71.3102
-63.0414
-63.185
-63.4684
-63.8832
-64.4172
-65.0531
-65.7691
-66.5384
-67.3298
-68.1083
-68.8364
-69.4765
-69.9932
-70.3563
-70.5437
-63.6043
-63.7275
-63.9703
-64.325
-64.7803
-65.3208
-65.9271
-66.5758
-67.2401
-67.8907
-68.4966
-69.0272
-69.454
-69.7531
-69.9072
-64.0817
-64.1871
-64.3944
-64.6969
-65.0843
-65.5429
-66.0556
-66.6023
-67.16
-67.7042
-68.2091
-68.6498
-69.0033
-69.2506
-69.3778
-64.486
-64.5758
-64.7525
-65.0099
-65.3389
-65.7274
-66.1606
-66.621
-67.0894
-67.5448
-67.9662
-68.3329
-68.6265
-68.8314
-68.9368
-64.8278
-64.9043
-65.0545
-65.2732
-65.5521
-65.8809
-66.2466
-66.6343
-67.0277
-67.4092
-67.7612
-68.0669
-68.3111
-68.4814
-68.5688
-65.1166
-65.1816
-65.3091
-65.4945
-65.7308
-66.0087
-66.3173
-66.6438
-66.9742
-67.2939
-67.5884
-67.8436
-68.0471
-68.1888
-68.2616
-65.3603
-65.4154
-65.5235
-65.6806
-65.8805
-66.1153
-66.3756
-66.6504
-66.9281
-67.1963
-67.4428
-67.6561
-67.826
-67.9442
-68.0048
-65.5657
-65.6124
-65.704
-65.837
-66.006
-66.2043
-66.4238
-66.6552
-66.8886
-67.1137
-67.3203
-67.4988
-67.6408
-67.7395
-67.7901
-65.7387
-65.7782
-65.8558
-65.9682
-66.1111
-66.2785
-66.4636
-66.6585
-66.8548
-67.0439
-67.2172
-67.3668
-67.4857
-67.5683
-67.6106
-65.8842
-65.9177
-65.9833
-66.0784
-66.1992
-66.3406
-66.4967
-66.6609
-66.8261
-66.9851
-67.1306
-67.2561
-67.3558
-67.425
-67.4604
-66.0065
-66.0348
-66.0904
-66.1708
-66.2729
-66.3923
-66.5241
-66.6626
-66.8018
-66.9355
-67.0579
-67.1634
-67.2471
-67.3051
-67.3349
-66.1091
-66.1331
-66.1801
-66.2482
-66.3346
-66.4356
-66.5469
-66.6638
-66.7812
-66.8939
-66.997
-67.0857
-67.1561
-67.2049
-67.2299
-66.195
-66.2154
-66.2552
-66.313
-66.3861
-66.4716
-66.5658
-66.6646
-66.7638
-66.859
-66.946
-67.0208
-67.0801
-67.1213
-67.1423
-66.2668
-66.2841
-66.318
-66.367
-66.4291
-66.5016
-66.5815
-66.6652
-66.7492
-66.8298
-66.9034
-66.9667
-67.0168
-67.0516
-67.0694
-66.3266
-66.3413
-66.3702
-66.4119
-66.4648
-66.5265
-66.5944
-66.6656
-66.737
-66.8055
-66.8679
-66.9216
-66.9642
-66.9937
-67.0088
-66.3762
-66.3888
-66.4134
-66.4491
-66.4943
-66.5471
-66.6051
-66.6659
-66.7269
-66.7853
-66.8386
-66.8844
-66.9206
-66.9458
-66.9586
-66.417
-66.4278
-66.449
-66.4798
-66.5186
-66.564
-66.6139
-66.6661
-66.7185
-66.7686
-66.8144
-66.8537
-66.8848
-66.9064
-66.9174
-66.4502
-66.4597
-66.4781
-66.5047
-66.5384
-66.5778
-66.621
-66.6663
-66.7116
-66.7551
-66.7947
-66.8287
-66.8556
-66.8743
-66.8838
-66.477
-66.4852
-66.5014
-66.5248
-66.5543
-66.5888
-66.6267
-66.6664
-66.7061
-66.7442
-66.7788
-66.8086
-66.8322
-66.8485
-66.8569
-66.498
-66.5053
-66.5197
-66.5405
-66.5668
-66.5975
-66.6312
-66.6665
-66.7018
-66.7356
-66.7664
-66.7929
-66.8138
-66.8283
-66.8357
-66.5139
-66.5206
-66.5336
-66.5524
-66.5763
-66.604
-66.6346
-66.6665
-66.6985
-66.7291
-66.757
-66.7809
-66.7999
-66.813
-66.8197
-66.5252
-66.5314
-66.5434
-66.5609
-66.583
-66.6087
-66.637
-66.6666
-66.6962
-66.7245
-66.7503
-66.7725
-66.79
-66.8021
-66.8083
-66.5322
-66.5381
-66.5496
-66.5661
-66.5871
-66.6116
-66.6385
-66.6666
-66.6947
-66.7216
-66.7462
-66.7672
-66.7839
-66.7954
-66.8013
-66.5351
-66.5409
-66.5521
-66.5683
-66.5889
-66.6128
-66.6391
-66.6666
-66.6941
-66.7204
-66.7444
-66.765
-66.7813
-66.7926
-66.7983
-66.5341
-66.5399
-66.5512
-66.5676
-66.5882
-66.6124
-66.6389
-66.6666
-66.6943
-66.7209
-66.745
-66.7658
-66.7822
-66.7936
-66.7994
-66.529
-66.535
-66.5468
-66.5638
-66.5852
-66.6103
-66.6378
-66.6666
-66.6954
-66.7229
-66.748
-66.7696
-66.7866
-66.7984
-66.8045
-66.5198
-66.5262
-66.5387
-66.5569
-66.5798
-66.6065
-66.6358
-66.6666
-66.6973
-66.7267
-66.7535
-66.7765
-66.7947
-66.8073
-66.8137
-66.5061
-66.5131
-66.5268
-66.5466
-66.5717
-66.6009
-66.6329
-66.6665
-66.7001
-66.7323
-66.7616
-66.7868
-66.8067
-66.8204
-66.8275
-66.4876
-66.4954
-66.5107
-66.5327
-66.5607
-66.5932
-66.629
-66.6665
-66.704
-66.7399
-66.7726
-66.8006
-66.8229
-66.8383
-66.8461
-66.4636
-66.4725
-66.4898
-66.5148
-66.5464
-66.5834
-66.6239
-66.6664
-66.7089
-66.7496
-66.7867
-66.8186
-66.8438
-66.8613
-66.8702
-66.4335
-66.4437
-66.4635
-66.4922
-66.5286
-66.5709
-66.6175
-66.6663
-66.7152
-66.7619
-66.8046
-66.8412
-66.8702
-66.8902
-66.9005
-66.3964
-66.4081
-66.4311
-66.4644
-66.5065
-66.5556
-66.6096
-66.6662
-66.7228
-66.7771
-66.8265
-66.869
-66.9027
-66.926
-66.9379
-66.3511
-66.3648
-66.3916
-66.4304
-66.4795
-66.5369
-66.5999
-66.666
-66.7321
-66.7955
-66.8534
-66.9031
-66.9424
-66.9697
-66.9836
-66.2963
-66.3123
-66.3438
-66.3893
-66.4469
-66.5141
-66.5881
-66.6657
-66.7434
-66.8179
-66.8858
-66.9443
-66.9905
-67.0226
-67.039
-66.2303
-66.2492
-66.2862
-66.3397
-66.4075
-66.4867
-66.5739
-66.6653
-66.7569
-66.8447
-66.9249
-66.9939
-67.0485
-67.0864
-67.1058
-66.1512
-66.1735
-66.2171
-66.2803
-66.3603
-66.4538
-66.5567
-66.6647
-66.773
-66.8769
-66.9718
-67.0535
-67.1182
-67.163
-67.186
-66.0567
-66.083
-66.1345
-66.2091
-66.3037
-66.4142
-66.536
-66.6639
-66.7922
-66.9154
-67.0279
-67.1248
-67.2016
-67.2548
-67.2821
-65.9439
-65.975
-66.0359
-66.1241
-66.236
-66.3669
-66.5112
-66.6627
-66.815
-66.9612
-67.0949
-67.21
-67.3014
-67.3647
-67.3972
-65.8095
-65.8462
-65.9183
-66.0227
-66.1552
-66.3102
-66.4813
-66.6611
-66.8419
-67.0157
-67.1747
-67.3118
-67.4206
-67.4961
-67.5347
-65.6495
-65.693
-65.7782
-65.9018
-66.0587
-66.2424
-66.4453
-66.6588
-66.8737
-67.0805
-67.2698
-67.4332
-67.5629
-67.653
-67.6991
-65.4594
-65.5108
-65.6116
-65.7578
-65.9435
-66.1613
-66.402
-66.6556
-66.9111
-67.1573
-67.383
-67.5779
-67.7328
-67.8404
-67.8956
-65.2336
-65.2943
-65.4134
-65.5863
-65.8061
-66.0641
-66.3498
-66.6511
-66.9551
-67.2483
-67.5176
-67.7503
-67.9355
-68.0643
-68.1303
-64.9656
-65.0373
-65.1779
-65.3822
-65.6422
-65.9478
-66.2867
-66.6446
-67.0064
-67.356
-67.6775
-67.9557
-68.1775
-68.3317
-68.4108
-64.6479
-64.7324
-64.8982
-65.1394
-65.4467
-65.8085
-66.2103
-66.6356
-67.0662
-67.4832
-67.8674
-68.2005
-68.4662
-68.6513
-68.7463
-64.2715
-64.3709
-64.5663
-64.8506
-65.2135
-65.6414
-66.1176
-66.6228
-67.1356
-67.6332
-68.0927
-68.4919
-68.8109
-69.0334
-69.1477
-63.8262
-63.9429
-64.1725
-64.5072
-64.9351
-65.4407
-66.0047
-66.6047
-67.2154
-67.8097
-68.3599
-68.839
-69.2227
-69.4907
-69.6285
-63.2997
-63.4366
-63.7059
-64.099
-64.6027
-65.1994
-65.8669
-66.5793
-67.3067
-68.0169
-68.6764
-69.2524
-69.7148
-70.0383
-70.2049
-62.6783
-62.8382
-63.1534
-63.6141
-64.2059
-64.9089
-65.6981
-66.5433
-67.4098
-68.2592
-69.0509
-69.7447
-70.3033
-70.695
-70.8969
-61.9459
-62.1322
-62.4997
-63.0382
-63.7318
-64.5585
-65.4903
-66.4926
-67.5249
-68.5415
-69.4933
-70.3309
-71.0076
-71.4834
-71.7291
-61.0841
-61.3003
-61.7274
-62.3547
-63.1652
-64.1352
-65.2336
-66.4212
-67.6509
-68.8686
-70.0151
-71.0289
-71.8514
-72.4316
-72.7318
-60.0722
-60.3219
-60.8162
-61.544
-62.4879
-63.6228
-64.9149
-66.3204
-67.7852
-69.2453
-70.6288
-71.8597
-72.8634
-73.5743
-73.943
-58.8869
-59.1739
-59.7428
-60.5833
-61.678
-63.0013
-64.5175
-66.1784
-67.9228
-69.6752
-71.3486
-72.8482
-74.0787
-74.9544
-75.4101
-57.5024
-57.83
-58.481
-59.4461
-60.7093
-62.2459
-64.0195
-65.9786
-68.0546
-70.16
-72.1891
-74.0234
-75.5402
-76.6263
-77.1935
-55.8905
-56.2617
-57.0011
-58.1018
-59.5508
-61.3261
-63.3926
-65.6976
-68.1662
-70.6976
-73.1648
-75.4191
-77.3009
-78.6584
-79.3708
-54.0209
-54.4378
-55.2705
-56.5158
-58.1658
-60.2041
-62.6001
-65.3031
-68.2341
-71.2797
-74.2884
-77.0734
-79.4255
-81.1383
-82.0427
-51.862
-52.3252
-53.2534
-54.6488
-56.5113
-58.8336
-61.5946
-64.7502
-68.2223
-71.8874
-75.5672
-79.0281
-81.9939
-84.1794
-85.3426
-49.3815
-49.8898
-50.9119
-52.4576
-54.5376
-57.1586
-60.3151
-63.9775
-68.0766
-72.4847
-76.9981
-81.3267
-85.1041
-87.9304
-89.45
-46.5481
-47.0977
-48.207
-49.8954
-52.1882
-55.1118
-58.6843
-62.9016
-67.7162
-73.0089
-78.5572
-84.0077
-88.8748
-92.5884
-94.6127
-43.3334
-43.917
-45.1002
-46.9136
-49.401
-52.6145
-56.6059
-61.411
-67.0236
-73.3556
-80.184
-87.0939
-93.4462
-98.4194
-101.181
-39.7135
-40.3203
-41.5558
-43.4639
-46.1097
-49.577
-53.9624
-59.3597
-65.8315
-73.3576
-81.754
-90.567
-98.9752
-105.786
-109.666
-35.6725
-36.2872
-37.5447
-39.5022
-42.2479
-45.9023
-50.6163
-56.5622
-63.9073
-72.7551
-83.0345
-94.3212
-105.613
-115.188
-120.846
-31.2048
-31.8079
-33.0476
-34.9933
-37.7554
-41.4918
-46.4147
-52.7932
-60.9396
-71.1583
-83.6154
-98.0717
-113.443
-127.31
-135.954
-26.3187
-26.8869
-28.0606
-29.9179
-32.5866
-36.2574
-41.2025
-47.7966
-56.5329
-68.0069
-82.8077
-101.187
-122.316
-143.059
-157.064
-21.0382
-21.5459
-22.5991
-24.2792
-26.722
-30.1384
-34.8453
-41.3126
-50.225
-62.5454
-79.515
-102.393
-131.456
-163.487
-187.898
-15.4056
-15.8263
-16.7028
-18.1112
-20.1818
-23.1235
-27.2659
-33.1308
-41.5506
-53.8553
-72.1193
-99.3026
-138.535
-189.205
-235.684
-9.48129
-9.79065
-10.4375
-11.4837
-13.0369
-15.275
-18.4908
-23.1751
-30.1786
-41.027
-58.5296
-87.8452
-137.669
-217.833
-315.746
-3.34263
-3.52108
-3.89548
-4.50451
-5.41675
-6.74815
-8.6961
-11.6091
-16.137
-23.5781
-36.7366
-62.1457
-115.734
-234.135
-463.8
2.91941
2.88403
2.809
2.68475
2.49398
2.20644
1.76823
1.07771
-0.0729962
-2.15909
-6.43661
-16.8775
-48.7885
-173.168
-771.341
9.20545
9.31611
9.5471
9.91967
10.4714
11.2651
12.4072
14.0834
16.6399
20.781
28.1429
43.3003
82.3709
216.823
825.59
15.414
15.664
16.1863
17.0296
18.28
20.0813
22.6744
26.4771
32.2514
41.4837
57.3083
86.8705
147.292
277.425
525.426
21.4482
21.8222
22.6018
23.8562
25.7055
28.3467
32.1007
37.5006
45.4606
57.6075
76.933
109.009
163.799
256.17
397.501
46.7905
19.0772
7.95144
2.1918
-1.29795
-3.6117
-5.2295
-6.39804
-7.25831
-7.89689
-8.36958
-8.71336
-8.95295
-9.10458
-9.17807
29.5765
18.1074
9.72742
4.27107
0.640486
-1.8718
-3.66944
-4.98712
-5.96759
-6.70155
-7.24857
-7.64864
-7.92872
-8.10655
-8.1929
20.3268
14.9923
9.47299
5.08238
1.80233
-0.628175
-2.44264
-3.81031
-4.84801
-5.63594
-6.22951
-6.66718
-6.97542
-7.17194
-7.26762
14.7814
12.0052
8.43465
5.12244
2.37417
0.187658
-1.52609
-2.86262
-3.90183
-4.70524
-5.31866
-5.77552
-6.09963
-6.30729
-6.40869
11.1637
9.56977
7.2168
4.77079
2.5559
0.675174
-0.871478
-2.12137
-3.11934
-3.90643
-4.51649
-4.97597
-5.30462
-5.51638
-5.6201
8.65287
7.66129
6.06348
4.2586
2.50553
0.930689
-0.422941
-1.55504
-2.48328
-3.2305
-3.81883
-4.26723
-4.59074
-4.80042
-4.90348
6.83051
6.1737
5.05389
3.71038
2.33136
1.03257
-0.12824
-1.13027
-1.97288
-2.66488
-3.2183
-3.64516
-3.95585
-4.15845
-4.25838
5.46419
5.00758
4.19959
3.18679
2.10145
1.03863
0.0561936
-0.816188
-1.56707
-2.19547
-2.70562
-3.10372
-3.396
-3.58772
-3.68263
4.41489
4.08542
3.48749
2.71352
1.85586
0.988864
0.164197
-0.586473
-1.24629
-1.80815
-2.27074
-2.63572
-2.90592
-3.0842
-3.17275
3.59436
3.34963
2.89759
2.29836
1.61674
0.909688
0.220811
-0.419844
-0.993521
-1.48976
-1.90361
-2.23352
-2.47966
-2.64295
-2.72432
2.94373
2.75777
2.40988
1.94037
1.39527
0.817877
0.243935
-0.299722
-0.794521
-1.22855
-1.59477
-1.88945
-2.1109
-2.25856
-2.33236
2.42221
2.27832
2.00661
1.63484
1.19622
0.723659
0.246025
-0.213527
-0.637714
-1.01441
-1.33559
-1.59622
-1.79337
-1.92544
-1.99163
2.00059
1.88762
1.67279
1.37572
1.02073
0.632953
0.235554
-0.151888
-0.513881
-0.838821
-1.11843
-1.34705
-1.52101
-1.63804
-1.69683
1.65738
1.56765
1.39606
1.15681
0.867985
0.548925
0.218167
-0.107921
-0.415772