/*--------------------------------*- C++ -*----------------------------------*\
| =========                 |                                                 |
| \\      /  F ield         | OpenFOAM: The Open Source CFD Toolbox           |
|  \\    /   O peration     | Version:  5.x                                   |
|   \\  /    A nd           | Web:      www.OpenFOAM.org                      |
|    \\/     M anipulation  |                                                 |
\*---------------------------------------------------------------------------*/
FoamFile
{
    version     2.0;
    format      ascii;
    class       volScalarField;
    location    "10.2";
    object      T;
}
// * * * * * * * * * * * * * * * * * * * * * * * * * * * * * * * * * * * * * //

dimensions      [0 0 0 1 0 0 0];

internalField   nonuniform List<scalar> 
6300
(
10.2046
10.6157
11.0328
11.4599
11.9006
12.3583
12.8361
13.3364
13.861
14.4108
14.9858
15.585
16.206
16.8454
17.499
10.2025
10.6096
11.0229
11.4462
11.8835
12.3382
12.8135
13.312
13.8356
14.3855
14.9616
15.563
16.1873
16.8312
17.4899
10.1984
10.5974
11.0028
11.4186
11.8489
12.2975
12.7677
13.2624
13.784
14.3337
14.9119
15.5178
16.149
16.8018
17.4712
10.1922
10.5788
10.9721
11.3764
11.796
12.235
12.6972
13.1859
13.704
14.2533
14.8346
15.4472
16.0889
16.7557
17.4418
10.1838
10.5536
10.9304
11.3189
11.7237
12.1493
12.6001
13.08
13.5927
14.1407
14.7257
15.3474
16.0036
16.6901
17.4
10.173
10.5213
10.877
11.2451
11.6305
12.0384
12.4736
12.9413
13.4459
13.9912
14.5799
15.2127
15.888
16.6009
17.3431
10.1597
10.4817
10.8113
11.1539
11.5149
11.8999
12.3148
12.7656
13.2582
13.7981
14.3898
15.0356
15.7347
16.4821
17.2677
10.1439
10.4343
10.7326
11.0443
11.3751
11.7314
12.1199
12.5479
13.0231
13.5532
14.1455
14.8049
15.5329
16.3249
17.1683
10.1255
10.379
10.6405
10.9154
11.2099
11.5307
11.8855
12.283
12.7329
13.2462
13.8338
14.5055
15.2671
16.1161
17.0375
10.1044
10.3158
10.5348
10.7669
11.0183
11.296
11.6084
11.9654
12.3794
12.8646
13.4378
14.1161
14.9137
15.8347
16.8632
10.0809
10.2449
10.416
10.5992
10.8004
11.0266
11.2865
11.591
11.9544
12.3951
12.9366
13.6073
14.4367
15.4456
16.6248
10.055
10.167
10.285
10.4134
10.5574
10.7235
10.9198
11.1575
11.4519
11.8246
12.3062
12.9395
13.7799
14.8862
16.2828
10.0272
10.0831
10.1436
10.212
10.2924
10.39
10.5118
10.6674
10.8711
11.145
11.524
12.0645
12.8573
14.0361
15.7439
9.99792
9.99467
9.99415
9.99847
10.0101
10.0324
10.0698
10.1289
10.2201
10.3604
10.5802
10.9372
11.5484
12.657
14.7348
9.96774
9.90345
9.83989
9.77759
9.71722
9.65964
9.60608
9.55843
9.51985
9.49611
9.49895
9.55574
9.74193
10.3085
12.2493
18.1062
18.6608
19.2145
19.7639
20.3057
20.8369
21.3547
21.8568
22.341
22.8057
23.2493
23.6707
24.069
24.4436
24.7938
25.1194
25.42
25.6954
25.9457
26.1709
26.371
26.5461
26.6967
26.8228
26.9248
27.0031
27.0581
27.0902
27.0998
27.0874
27.0535
26.9986
26.9232
26.8277
26.7126
26.5785
26.4258
26.255
26.0666
25.8611
25.6389
25.4006
25.1467
24.8776
24.594
24.2962
23.9848
23.6602
23.3229
22.9733
22.6118
22.2387
21.8545
21.4595
21.054
20.6384
20.213
19.7784
19.3348
18.8826
18.4224
17.9546
17.4795
16.9978
16.5097
16.0159
15.5168
15.013
14.505
13.9935
13.4792
12.963
12.4456
11.9282
11.4117
10.8974
10.3865
9.88016
9.37979
8.88667
8.40208
7.92727
7.46344
7.0117
6.57305
6.14837
5.73838
5.34366
4.96457
4.60128
18.1024
18.6619
19.2204
19.7745
20.3207
20.8559
21.3772
21.8822
22.369
22.8356
23.2809
23.7036
24.103
24.4783
24.829
25.155
25.4557
25.7313
25.9815
26.2066
26.4064
26.5813
26.7314
26.8571
26.9586
27.0363
27.0907
27.1221
27.131
27.118
27.0834
27.0278
26.9516
26.8554
26.7397
26.6049
26.4515
26.28
26.0908
25.8846
25.6617
25.4227
25.168
24.8983
24.6139
24.3154
24.0034
23.6782
23.3403
22.9901
22.628
22.2545
21.8697
21.4742
21.0682
20.6521
20.2262
19.7909
19.3467
18.894
18.4331
17.9646
17.489
17.0065
16.5178
16.0233
15.5234
15.0188
14.5098
13.9973
13.4819
12.9643
12.4455
11.9266
11.4084
10.8924
10.3796
9.87145
9.36921
8.87424
8.38786
7.91134
7.44592
6.99273
6.55282
6.1271
5.71632
5.32107
4.94173
4.57848
18.0944
18.664
19.2326
19.7963
20.3513
20.8945
21.4228
21.9337
22.4254
22.8961
23.3446
23.7698
24.1711
24.5479
24.8997
25.2263
25.5275
25.8032
26.0533
26.278
26.4774
26.6516
26.8009
26.9257
27.0261
27.1027
27.1558
27.1859
27.1935
27.1791
27.1431
27.0861
27.0085
26.9109
26.7937
26.6575
26.5027
26.3298
26.1393
25.9317
25.7073
25.4669
25.2107
24.9395
24.6537
24.3539
24.0405
23.714
23.3749
23.0236
22.6605
22.2859
21.9002
21.5036
21.0966
20.6794
20.2524
19.816
19.3706
18.9166
18.4545
17.9848
17.5078
17.024
16.534
16.038
15.5367
15.0304
14.5196
14.0051
13.4873
12.9672
12.4456
11.9235
11.402
10.8824
10.366
9.85404
9.34802
8.8493
8.35928
7.8793
7.41065
6.95453
6.51206
6.08421
5.67181
5.27547
4.89563
4.53248
18.0819
18.6674
19.2516
19.8302
20.3989
20.9542
21.493
22.0128
22.5117
22.9883
23.4414
23.8703
24.2743
24.6531
25.0063
25.3339
25.6356
25.9114
26.1614
26.3856
26.5842
26.7574
26.9055
27.0288
27.1276
27.2024
27.2537
27.2818
27.2873
27.2708
27.2327
27.1735
27.0938
26.9941
26.8748
26.7365
26.5797
26.4047
26.2121
26.0023
25.7758
25.5331
25.2748
25.0014
24.7134
24.4114
24.096
23.7676
23.4267
23.0737
22.709
22.333
21.9458
21.5478
21.1393
20.7206
20.2919
19.8538
19.4066
18.9507
18.4867
18.015
17.536
17.0504
16.5583
16.0603
15.5568
15.0481
14.5347
14.0171
13.496
12.972
12.4461
11.9193
11.3927
10.8677
10.3457
9.82796
9.31615
8.8117
8.31611
7.83081
7.3572
6.89657
6.45014
6.019
5.60405
5.20604
4.82543
4.46244
18.0642
18.6722
19.2786
19.878
20.4656
21.0374
21.5902
22.1216
22.6299
23.1139
23.5728
24.0061
24.4134
24.7946
25.1496
25.4783
25.7806
26.0565
26.3062
26.5297
26.7272
26.899
27.0454
27.1667
27.2633
27.3357
27.3844
27.4098
27.4125
27.3931
27.3521
27.29
27.2075
27.1049
26.9829
26.8418
26.6822
26.5045
26.3091
26.0965
25.8671
25.6215
25.3602
25.0838
24.7928
24.488
24.1698
23.8388
23.4955
23.1404
22.7737
22.3957
22.0067
21.6068
21.1964
20.7756
20.3448
19.9043
19.4546
18.9962
18.5296
18.0553
17.5738
17.0855
16.591
16.0904
15.5841
15.0724
14.5556
14.0341
13.5085
12.9794
12.4477
11.9145
11.381
10.8486
10.3189
9.79327
9.27351
8.76121
8.25798
7.76538
7.28493
6.81805
6.36611
5.93035
5.51184
5.11144
4.72976
4.36705
18.0404
18.6791
19.3154
19.9425
20.5547
21.1476
21.7179
22.2635
22.7829
23.2754
23.7408
24.1789
24.5898
24.9737
25.3304
25.6602
25.9631
26.2391
26.4882
26.7108
26.9069
27.0768
27.221
27.3397
27.4335
27.5028
27.5481
27.5701
27.5692
27.5461
27.5014
27.4357
27.3495
27.2434
27.1179
26.9734
26.8105
26.6294
26.4306
26.2145
25.9815
25.7321
25.467
25.1867
24.8919
24.5833
24.2616
23.9273
23.5811
23.2233
22.8541
22.4739
22.0828
21.6808
21.2681
20.8448
20.4113
19.9678
19.515
19.0532
18.5833
18.1057
17.6209
17.1296
16.632
16.1284
15.6189
15.1037
14.583
14.0568
13.5258
12.9903
12.4514
11.91
11.3676
10.8256
10.2858
9.75003
9.21998
8.69752
8.18441
7.68235
7.19299
6.71792
6.25869
5.81676
5.39344
4.98983
4.60671
4.24441
18.0094
18.6894
19.3651
20.0281
20.6714
21.2901
21.8811
22.4427
22.9742
23.4757
23.9477
24.3906
24.805
25.1913
25.5498
25.8806
26.184
26.4598
26.7083
26.9295
27.1238
27.2914
27.4327
27.5482
27.6384
27.7039
27.7451
27.7628
27.7575
27.7299
27.6806
27.6104
27.5198
27.4094
27.2798
27.1313
26.9644
26.7794
26.5766
26.3563
26.119
25.865
25.5952
25.31
25.0104
24.6972
24.3711
24.0328
23.683
23.322
22.9502
22.5676
22.1741
21.7698
21.3546
20.9284
20.4916
20.0446
19.5877
19.1219
18.6477
18.166
17.6774
17.1824
16.6814
16.1745
15.6617
15.1429
14.6178
14.0865
13.5491
13.0061
12.4583
11.9069
11.3533
10.7993
10.247
9.69831
9.15539
8.62024
8.09479
7.5809
7.08035
6.59489
6.12627
5.67627
5.24656
4.83864
4.45359
4.09191
17.9702
18.7054
19.4331
20.1418
20.8233
21.4723
22.0864
22.6648
23.2084
23.7183
24.196
24.6429
25.0602
25.4486
25.8086
26.1403
26.444
26.7196
26.9671
27.1868
27.3787
27.5434
27.6813
27.7928
27.8787
27.9394
27.9757
27.9881
27.9774
27.9443
27.8896
27.814
27.7181
27.6027
27.4683
27.3153
27.144
26.9546
26.7473
26.5223
26.2799
26.0206
25.7449
25.4539
25.1483
24.8292
24.4977
24.1545
23.8006
23.4361
23.0615
22.6764
22.2808
21.8742
21.4564
21.0271
20.5865
20.135
19.6732
19.2021
18.7227
18.2359
17.7427
17.2436
16.7391
16.229
15.713
15.1907
14.6614
14.1247
13.5804
13.0287
12.4703
11.9066
11.3393
10.7705
10.2027
9.63817
9.07947
8.52885
7.98841
7.46013
6.94587
6.44749
5.96696
5.50646
5.06824
4.65445
4.26676
3.90598
17.9219
18.732
19.5281
20.2945
21.0215
21.7045
22.3425
22.937
23.4907
24.0068
24.4884
24.9377
25.3567
25.7465
26.1076
26.4402
26.7442
27.0194
27.2658
27.4834
27.6726
27.8337
27.9673
28.0741
28.1547
28.2098
28.2401
28.2463
28.2292
28.1896
28.1283
28.0462
27.9442
27.823
27.6832
27.5252
27.3492
27.1552
26.9431
26.713
26.4648
26.1991
25.9166
25.6181
25.3051
24.9787
24.6405
24.2916
23.9328
23.5646
23.1872
22.8002
22.4029
21.9946
21.5743
21.1418
20.6968
20.2399
19.7719
19.2941
18.8079
18.3149
17.8161
17.3125
16.8044
16.2915
15.7732
15.2483
14.7155
14.1737
13.622
13.0605
12.4898
11.9113
11.3273
10.7403
10.1533
9.56955
8.99178
8.42264
7.8644
7.31906
6.78841
6.27426
5.77873
5.30448
4.85466
4.43259
4.04111
3.68165
17.8644
18.7788
19.6655
20.5036
21.283
22.0013
22.6611
23.2676
23.8269
24.3449
24.8267
25.2758
25.6949
26.0852
26.4472
26.7808
27.0853
27.3603
27.6054
27.8206
28.0064
28.1631
28.2915
28.3925
28.4669
28.5154
28.5387
28.5377
28.5129
28.4655
28.3964
28.3067
28.1975
28.0697
27.9239
27.7606
27.5798
27.3813
27.1645
26.929
26.6746
26.4016
26.1107
25.8031
25.4806
25.145
24.7984
24.4423
24.0781
23.7061
23.3265
22.9384
22.5407
22.1316
21.7097
21.2739
20.8239
20.3604
19.8844
19.3978
18.9028
18.4017
17.8963
17.3877
16.8763
16.3617
15.8426
15.317
14.7824
14.2365
13.6777
13.1054
12.5203
11.924
11.3192
10.7097
10.0993
9.49209
8.89153
8.30059
7.7217
7.15671
6.60709
6.07412
5.55976
5.06724
4.60103
4.1666
3.76929
3.41182
17.8007
18.8651
19.8726
20.7971
21.6321
22.3819
23.0562
23.6658
24.222
24.7349
25.2115
25.657
26.0741
26.4643
26.8275
27.1628
27.4686
27.7437
27.9876
28.2
28.3815
28.5327
28.6548
28.7488
28.8159
28.8568
28.8721
28.8626
28.8289
28.7722
28.6937
28.5949
28.4771
28.3417
28.1893
28.0206
27.8355
27.6332
27.4125
27.1719
26.9108
26.6293
26.3282
26.0091
25.6744
25.3268
24.9694
24.6046
24.234
23.8583
23.4774
23.0901
22.6943
22.2868
21.8647
21.4261
20.9704
20.4984
20.0117
19.5132
19.0062
18.4944
17.9806
17.4666
16.9526
16.4381
15.9211
15.3984
14.8654
14.3177
13.7525
13.1686
12.5666
11.9485
11.318
10.6801
10.0406
9.40486
8.77728
8.16104
7.55885
6.97211
6.40166
5.8471
5.30922
4.79205
4.30158
3.84708
3.44003
3.08589
17.7433
19.0329
20.1992
21.2191
22.1035
22.8712
23.544
24.1404
24.6794
25.1767
25.6409
26.0786
26.4917
26.882
27.2475
27.5868
27.8955
28.172
28.4145
28.6236
28.7996
28.944
29.058
29.1436
29.2022
29.2345
29.2409
29.2218
29.1777
29.1099
29.0198
28.9099
28.7818
28.6376
28.4779
28.304
28.1154
27.9114
27.6887
27.4439
27.1761
26.8847
26.5714
26.2373
25.8865
25.5223
25.1508
24.7747
24.3969
24.0176
23.6372
23.2536
22.8644
22.4629
22.043
21.6025
21.1399
20.6573
20.1558
19.6407
19.1161
18.5899
18.065
17.5451
17.0293
16.518
16.0076
15.4944
14.9694
14.4237
13.8541
13.2576
12.6361
11.9906
11.3275
10.6524
9.97659
9.30569
8.64656
8.00114
7.37363
6.76398
6.17326
5.59598
5.02878
4.47833
3.95025
3.45919
3.03455
2.6871
17.7404
19.3782
20.7366
21.8358
22.7426
23.4968
24.1415
24.6974
25.1966
25.6656
26.1082
26.5351
26.9418
27.3347
27.7051
28.0545
28.3686
28.6486
28.8892
29.0944
29.2629
29.3985
29.5019
29.5767
29.6259
29.649
29.6459
29.6165
29.5602
29.4793
29.3739
29.2506
29.1094
28.9552
28.7865
28.608
28.4169
28.2159
27.9962
27.7484
27.475
27.1713
26.844
26.4891
26.1174
25.7279
25.3383
24.9466
24.5618
24.178
23.8013
23.4249
23.0515
22.6653
22.2505
21.8104
21.338
20.8428
20.3191
19.7815
19.2282
18.6829
18.1422
17.6172
17.0995
16.5962
16.0979
15.6071
15.1029
14.5641
13.994
13.3823
12.7398
12.0578
11.354
10.6256
9.9053
9.18942
8.49596
7.81532
7.16256
6.52847
5.92538
5.33026
4.72414
4.13232
3.54555
2.97558
2.51787
2.18738
17.9925
20.1254
21.6469
22.7292
23.6014
24.2796
24.8667
25.3358
25.757
26.1923
26.5978
27.0201
27.4115
27.8197
28.1922
28.5729
28.8901
29.1816
29.4142
29.6178
29.773
29.899
29.9863
30.0462
30.0866
30.1009
30.0883
30.0496
29.9777
29.8833
29.7535
29.6167
29.4552
29.2931
29.109
28.9295
28.7324
28.5472
28.3436
28.0894
27.8169
27.4917
27.1557
26.7648
26.3736
25.9332
25.5284
25.1084
24.7249
24.3278
23.9646
23.5916
23.2568
22.9086
22.4938
22.0647
21.5687
21.0692
20.5021
19.9447
19.3285
18.7689
18.1964
17.6786
17.1484
16.6672
16.1769
15.739
15.2862
14.7491
14.1938
13.5512
12.9004
12.156
11.416
10.5869
9.82752
9.04072
8.32678
7.58921
6.92452
6.2482
5.66597
5.08027
4.39886
3.77897
3.11661
2.33026
1.81797
1.53749
19.4378
21.7528
23.1895
23.9248
24.7392
25.1932
25.7614
26.0426
26.2969
26.7612
27.063
27.5491
27.8569
28.3554
28.6671
29.1824
29.4484
29.7989
29.9806
30.2103
30.3248
30.4548
30.5098
30.5435
30.5844
30.5911
30.5677
30.5301
30.427
30.3379
30.1424
30.0182
29.8011
29.6622
29.4246
29.2758
29.0304
28.9043
28.7635
28.456
28.2346
27.8269
27.5462
27.0406
26.7001
26.0868
25.7398
25.2174
24.907
24.4283
24.1417
23.7027
23.4811
23.2475
22.7574
22.4148
21.804
21.3926
20.6707
20.1921
19.347
18.8731
18.1717
17.7574
17.1268
16.7508
16.1803
15.8922
15.5903
14.9604
14.5189
13.7315
13.1958
12.2478
11.606
10.4474
9.78915
8.78696
8.1915
7.25802
6.70312
5.83234
5.41146
4.96802
3.9849
3.48674
2.86616
1.29027
0.784208
0.649422
4.21902
3.82438
3.45135
3.09884
2.7655
2.44978
2.15002
1.86446
1.59132
1.32885
1.07529
0.828955
0.588178
0.35134
0.116853
4.19658
3.80271
3.43077
3.07962
2.74783
2.4338
2.13578
1.852
1.58064
1.31991
1.06806
0.823382
0.584229
0.348984
0.11607
4.15132
3.75904
3.38935
3.04098
2.71236
2.40175
2.10728
1.82709
1.55929
1.30206
1.05363
0.812276
0.576362
0.344291
0.11451
4.08248
3.69271
3.32657
2.98255
2.65885
2.3535
2.06448
1.78976
1.52736
1.27541
1.0321
0.795719
0.564642
0.337304
0.112189
3.98882
3.60268
3.24162
2.90375
2.58694
2.2889
2.00734
1.74006
1.48496
1.24009
1.00362
0.773847
0.549175
0.328088
0.109128
3.86864
3.48753
3.13341
2.80385
2.49621
2.20777
1.9359
1.67816
1.43232
1.19635
0.968427
0.746862
0.530115
0.31674
0.10536
3.71956
3.34535
3.00057
2.682
2.38626
2.11003
1.85029
1.60433
1.36978
1.14456
0.926856
0.715048
0.507675
0.303391
0.100929
3.53842
3.17369
2.84146
2.53729
2.25674
1.99577
1.75087
1.51906
1.29787
1.08523
0.879375
0.678789
0.482138
0.288214
0.095895
3.32096
2.9695
2.65426
2.36891
2.10762
1.86542
1.63832
1.42315
1.21741
1.0191
0.826609
0.638583
0.453866
0.271429
0.0903295
3.06141
2.72903
2.43711
2.17645
1.93936
1.71994
1.51382
1.31779
1.12949
0.947139
0.769363
0.595059
0.423306
0.253303
0.084322
2.75194
2.44807
2.18868
1.96037
1.7534
1.56114
1.37921
1.20469
1.0356
0.870586
0.708632
0.548973
0.390989
0.234149
0.0779766
2.38198
2.12259
1.90913
1.72292
1.55269
1.39199
1.23716
1.08612
0.937636
0.790956
0.645594
0.501205
0.357523
0.214325
0.0714105
1.93851
1.75114
1.60231
1.46945
1.34243
1.21694
1.09132
0.964982
0.837846
0.709996
0.581573
0.452722
0.323567
0.194214
0.0647498
1.4109
1.34113
1.27949
1.21013
1.1306
1.04202
0.946159
0.844628
0.738757
0.629597
0.517973
0.404534
0.289803
0.17421
0.0581237
0.814933
0.922972
0.964385
0.960945
0.927798
0.874374
0.806655
0.7286
0.642946
0.551653
0.456178
0.357632
0.256897
0.154698
0.0516574
9.93985
9.81917
9.69731
9.57333
9.44613
9.3142
9.17552
9.02709
8.8643
8.67944
8.45832
8.17065
7.73726
6.89586
4.56138
9.91476
9.74337
9.56913
9.38987
9.20293
9.00484
8.79085
8.55401
8.28362
7.96214
7.55847
7.01263
6.19812
4.83028
2.28644
9.89031
9.66954
9.44444
9.21173
8.96745
8.70651
8.42202
8.10418
7.73841
7.30189
6.75731
6.04113
5.04322
3.58132
1.42053
9.86683
9.5987
9.32502
9.04162
8.74353
8.42451
8.07632
7.68762
7.24229
6.71665
6.0753
5.26525
4.21049
2.81769
1.02704
9.84461
9.53171
9.21234
8.88169
8.53413
8.16276
7.75873
7.31037
6.80191
6.21173
5.51041
4.65927
3.6125
2.33032
0.816474
9.82384
9.4692
9.10749
8.73349
8.34126
7.92367
7.47191
6.97485
6.41825
5.78397
5.04955
4.18914
3.17795
2.00383
0.688614
9.80468
9.41161
9.01115
8.59795
8.16599
7.70829
7.21653
6.68066
6.08852
5.42574
4.67617
3.82369
2.85655
1.77531
0.603817
9.7872
9.35916
8.92366
8.47542
8.00858
7.51656
6.99178
6.42552
5.80782
5.12776
4.37424
3.53787
2.61436
1.60945
0.544118
9.77142
9.31186
8.84503
8.3658
7.86866
7.34756
6.79583
6.20609
5.57043
4.88078
4.12982
3.31256
2.4287
1.48554
0.500323
9.75731
9.26963
8.775
8.2686
7.74535
7.19984
6.62627
6.01855
5.37051
4.67636
3.93144
3.13349
2.2842
1.39085
0.467239
9.74479
9.23221
8.71313
8.1831
7.63751
7.07159
6.4804
5.85899
5.20262
4.50719
3.76988
2.99006
2.17029
1.31718
0.441698
9.73376
9.19931
8.65886
8.1084
7.54379
6.96088
6.35552
5.72371
5.06185
4.36709
3.63783
2.87437
2.07952
1.25904
0.421653
9.72412
9.17056
8.61156
8.04351
7.46277
6.86575
6.249
5.60929
4.94392
4.25093
3.52952
2.78048
2.00655
1.21264
0.40572
9.71573
9.14557
8.57055
7.98743
7.39304
6.78433
6.1584
5.5127
4.84517
4.1545
3.4404
2.70388
1.94745
1.17526
0.392925
9.70847
9.12397
8.53515
7.93916
7.33327
6.71486
6.08153
5.43126
4.76248
4.07435
3.36686
2.64108
1.89929
1.14494
0.382569
9.70221
9.10537
8.50472
7.89778
7.28219
6.65573
6.01643
5.36265
4.69324
4.00763
3.306
2.58942
1.85985
1.12019
0.374131
9.69684
9.08941
8.47865
7.86241
7.23866
6.60553
5.96138
5.30491
4.63524
3.95202
3.25554
2.54676
1.82741
1.09989
0.36722
9.69224
9.07576
8.45638
7.83226
7.20165
6.56297
5.91487
5.25632
4.58664
3.90563
3.2136
2.51145
1.80063
1.08318
0.361535
9.68832
9.06411
8.43741
7.80661
7.17023
6.52694
5.87563
5.21546
4.54592
3.86689
3.1787
2.48214
1.77847
1.06936
0.356842
9.68497
9.0542
8.42127
7.78483
7.14361
6.49649
5.84255
5.18111
4.51178
3.83451
3.14961
2.45778
1.76008
1.05792
0.352956
9.68213
9.04578
8.40758
7.76638
7.12108
6.47077
5.81467
5.15223
4.48315
3.80742
3.12534
2.43749
1.74479
1.04841
0.349732
9.67972
9.03864
8.39598
7.75075
7.10204
6.44907
5.79119
5.12796
4.45914
3.78475
3.10506
2.42057
1.73206
1.04051
0.347051
9.67768
9.0326
8.38617
7.73755
7.08597
6.43077
5.77142
5.10756
4.439
3.76577
3.0881
2.40645
1.72145
1.03392
0.344817
9.67596
9.02749
8.37787
7.7264
7.07241
6.41535
5.75479
5.09042
4.4221
3.74987
3.07392
2.39464
1.71258
1.02842
0.342955
9.6745
9.02317
8.37087
7.71699
7.06098
6.40237
5.7408
5.07602
4.40793
3.73654
3.06205
2.38477
1.70518
1.02383
0.3414
9.67327
9.01953
8.36496
7.70906
7.05135
6.39145
5.72904
5.06393
4.39603
3.72537
3.05211
2.37652
1.69898
1.02
0.340101
9.67223
9.01646
8.35998
7.70238
7.04324
6.38226
5.71916
5.05378
4.38605
3.71601
3.04378
2.3696
1.69381
1.01679
0.339015
9.67136
9.01387
8.35579
7.69675
7.03643
6.37453
5.71086
5.04526
4.37769
3.70816
3.03681
2.36382
1.68947
1.01411
0.338106
9.67062
9.01169
8.35227
7.69203
7.0307
6.36805
5.70389
5.03811
4.37067
3.70159
3.03097
2.35898
1.68585
1.01186
0.337347
9.67
9.00987
8.34931
7.68806
7.02589
6.3626
5.69804
5.03212
4.36479
3.69608
3.02608
2.35493
1.68281
1.00999
0.336712
9.66948
9.00833
8.34682
7.68473
7.02186
6.35804
5.69315
5.0271
4.35987
3.69148
3.02199
2.35154
1.68028
1.00842
0.336181
9.66905
9.00705
8.34474
7.68194
7.01848
6.35422
5.68905
5.02291
4.35576
3.68763
3.01858
2.34871
1.67816
1.00711
0.335738
9.66869
9.00598
8.34301
7.67962
7.01567
6.35104
5.68563
5.01941
4.35233
3.68442
3.01573
2.34635
1.6764
1.00602
0.335369
9.66839
9.00508
8.34156
7.67768
7.01332
6.34838
5.68279
5.0165
4.34948
3.68175
3.01337
2.3444
1.67494
1.00511
0.335063
9.66814
9.00434
8.34036
7.67607
7.01138
6.34619
5.68044
5.01408
4.34712
3.67955
3.01141
2.34278
1.67372
1.00436
0.334809
9.66793
9.00373
8.33937
7.67475
7.00978
6.34438
5.6785
5.0121
4.34517
3.67773
3.0098
2.34144
1.67273
1.00375
0.334601
9.66776
9.00323
8.33857
7.67367
7.00847
6.3429
5.67692
5.01048
4.34359
3.67625
3.00849
2.34036
1.67192
1.00325
0.334431
9.66763
9.00283
8.33792
7.67281
7.00743
6.34172
5.67565
5.00919
4.34232
3.67506
3.00744
2.33949
1.67127
1.00284
0.334295
9.66752
9.00252
8.33741
7.67213
7.0066
6.34079
5.67465
5.00817
4.34132
3.67413
3.00661
2.3388
1.67075
1.00253
0.334188
9.66744
9.00228
8.33703
7.67161
7.00598
6.34009
5.6739
5.00739
4.34057
3.67342
3.00599
2.33828
1.67037
1.00229
0.334107
9.66738
9.00211
8.33675
7.67125
7.00554
6.33959
5.67336
5.00685
4.34003
3.67292
3.00554
2.33792
1.67009
1.00212
0.33405
9.66735
9.00201
8.33658
7.67102
7.00526
6.33928
5.67303
5.00651
4.3397
3.67261
3.00527
2.33769
1.66992
1.00201
0.334014
9.66733
9.00197
8.33651
7.67092
7.00515
6.33915
5.67289
5.00636
4.33956
3.67248
3.00515
2.33759
1.66985
1.00197
0.333999
9.66734
9.00198
8.33654
7.67096
7.00519
6.33919
5.67294
5.00642
4.33961
3.67253
3.00519
2.33763
1.66988
1.00198
0.334004
9.66736
9.00206
8.33666
7.67112
7.00539
6.33942
5.67318
5.00666
4.33985
3.67275
3.00539
2.33779
1.67
1.00206
0.33403
9.66741
9.00219
8.33689
7.67142
7.00575
6.33982
5.67362
5.00711
4.34029
3.67316
3.00575
2.33809
1.67022
1.0022
0.334077
9.66748
9.0024
8.33722
7.67186
7.00628
6.34043
5.67427
5.00777
4.34094
3.67377
3.00629
2.33854
1.67056
1.0024
0.334146
9.66757
9.00268
8.33766
7.67246
7.00701
6.34125
5.67515
5.00867
4.34182
3.67459
3.00702
2.33914
1.67101
1.00268
0.334241
9.66769
9.00303
8.33824
7.67324
7.00795
6.34231
5.67628
5.00983
4.34295
3.67565
3.00796
2.33992
1.67159
1.00304
0.334362
9.66785
9.00348
8.33897
7.67421
7.00913
6.34364
5.67771
5.01129
4.34438
3.67699
3.00914
2.3409
1.67232
1.00349
0.334516
9.66803
9.00404
8.33987
7.67542
7.01058
6.34529
5.67947
5.0131
4.34615
3.67864
3.01061
2.34211
1.67322
1.00405
0.334705
9.66826
9.00472
8.34097
7.67688
7.01236
6.34729
5.68162
5.0153
4.3483
3.68065
3.01239
2.34359
1.67433
1.00474
0.334936
9.66854
9.00554
8.34229
7.67866
7.01451
6.34972
5.68422
5.01796
4.35091
3.68309
3.01455
2.34537
1.67567
1.00556
0.335216
9.66887
9.00652
8.34389
7.6808
7.01709
6.35265
5.68736
5.02117
4.35405
3.68603
3.01716
2.34753
1.67728
1.00656
0.335553
9.66927
9.0077
8.3458
7.68336
7.0202
6.35615
5.69112
5.02502
4.35783
3.68956
3.02029
2.35012
1.67922
1.00776
0.335959
9.66975
9.00912
8.34809
7.68643
7.02391
6.36035
5.69562
5.02963
4.36234
3.69379
3.02404
2.35323
1.68154
1.0092
0.336445
9.67032
9.0108
8.35082
7.69008
7.02834
6.36536
5.701
5.03514
4.36775
3.69884
3.02852
2.35694
1.68432
1.01092
0.337027
9.671
9.01281
8.35407
7.69445
7.03362
6.37134
5.70742
5.04172
4.37419
3.70488
3.03388
2.36138
1.68764
1.01297
0.337723
9.67181
9.0152
8.35795
7.69964
7.03991
6.37846
5.71506
5.04956
4.38189
3.71208
3.04028
2.36669
1.69161
1.01543
0.338554
9.67277
9.01804
8.36255
7.70581
7.0474
6.38694
5.72417
5.0589
4.39106
3.72068
3.04791
2.37302
1.69636
1.01836
0.339548
9.67391
9.02142
8.36802
7.71315
7.0563
6.39703
5.73501
5.07003
4.40199
3.73093
3.05703
2.38058
1.70202
1.02187
0.340735
9.67526
9.02543
8.37452
7.72187
7.06687
6.40902
5.74792
5.08329
4.41502
3.74316
3.0679
2.38961
1.70879
1.02606
0.342154
9.67687
9.03018
8.38222
7.73221
7.07943
6.42328
5.76326
5.09907
4.43055
3.75775
3.08089
2.4004
1.71688
1.03107
0.343852
9.67877
9.0358
8.39135
7.74448
7.09434
6.44021
5.78151
5.11786
4.44905
3.77514
3.09639
2.41329
1.72655
1.03707
0.345883
9.68102
9.04246
8.40216
7.75901
7.11201
6.46031
5.8032
5.14021
4.47111
3.7959
3.11491
2.42871
1.73813
1.04425
0.348317
9.68367
9.05033
8.41494
7.77621
7.13296
6.48416
5.82897
5.16682
4.49739
3.82069
3.13705
2.44716
1.752
1.05286
0.351236
9.68681
9.05962
8.43004
7.79656
7.15776
6.51244
5.85959
5.19848
4.52872
3.85028
3.16354
2.46926
1.76864
1.0632
0.354741
9.69051
9.07058
8.44786
7.82058
7.1871
6.54595
5.89593
5.23614
4.56607
3.88564
3.19524
2.49578
1.78863
1.07562
0.358957
9.69485
9.08347
8.46885
7.84892
7.22175
6.58561
5.93905
5.28094
4.61062
3.92792
3.23325
2.52762
1.81267
1.0906
0.364041
9.69995
9.0986
8.49351
7.88228
7.26263
6.63252
5.99018
5.33422
4.66377
3.97852
3.27886
2.56594
1.84167
1.10867
0.370184
9.70593
9.11634
8.52245
7.92148
7.31078
6.68792
6.05076
5.39757
4.72719
4.03912
3.33368
2.61214
1.87672
1.13057
0.377632
9.7129
9.13705
8.5563
7.96743
7.36738
6.75325
6.12246
5.47286
4.80289
4.11176
3.39969
2.66798
1.91922
1.15718
0.386693
9.72101
9.16118
8.59578
8.02115
7.43374
6.83014
6.20722
5.56229
4.89327
4.19896
3.47932
2.73567
1.97093
1.18965
0.397767
9.73042
9.18917
8.64166
8.08376
7.51135
6.92044
6.30726
5.66844
5.0012
4.30376
3.57561
2.81799
2.03414
1.22948
0.411376
9.74127
9.22149
8.69477
8.15643
7.60179
7.0262
6.42512
5.79431
5.13011
4.42986
3.69237
2.91852
2.1118
1.27864
0.428215
9.75373
9.25864
8.75593
8.24041
7.70678
7.14966
6.56361
5.94335
5.28406
4.58182
3.83436
3.04186
2.20783
1.33978
0.449223
9.76794
9.30109
8.82599
8.33695
7.82808
7.29319
6.72585
6.1195
5.46781
4.76518
4.00763
3.19404
2.32748
1.41654
0.475712
9.78406
9.34927
8.90572
8.44727
7.96745
7.45925
6.91516
6.32713
5.68694
4.98666
4.21982
3.38298
2.47795
1.51406
0.509557
9.80218
9.40355
8.99578
8.57243
8.1265
7.65024
7.13496
6.57099
5.94777
5.25436
4.48061
3.61928
2.66927
1.63978
0.553549
9.8224
9.46415
9.09665
8.71326
8.30661
7.8683
7.38857
6.85598
6.25732
5.57783
4.80222
3.91714
2.91579
1.80488
0.612033
9.84472
9.53118
9.20856
8.87023
8.50869
8.11512
7.67886
7.18683
6.62299
5.96804
5.19983
4.29573
3.23839
2.02688
0.692195
9.86911
9.60452
9.33137
9.04331
8.73301
8.39158
8.00786
7.56753
7.05193
6.43687
5.69179
4.78072
3.66805
2.3344
0.806871
9.89543
9.6838
9.46451
9.23182
8.97893
8.69738
8.37616
8.00047
7.54991
6.99597
6.299
5.40567
4.25115
2.77656
0.981411
9.92349
9.7684
9.60696
9.43434
9.24474
9.03071
8.78227
8.48539
8.11965
7.65438
7.04255
6.21199
5.05649
3.4413
1.27239
9.95297
9.8574
9.75716
9.64865
9.52749
9.38791
9.22198
9.0181
8.75848
8.41453
7.93794
7.24393
6.18104
4.49055
1.82437
9.9835
9.94964
9.91308
9.87173
9.82299
9.7634
9.68803
9.58948
9.45585
9.26674
8.98429
8.532
7.74137
6.21733
3.05868
10.0146
10.0437
10.0723
10.0999
10.126
10.1498
10.1701
10.1852
10.1917
10.1837
10.1485
10.055
9.81097
9.07921
6.34761
10.0459
10.1382
10.2322
10.3292
10.4306
10.5386
10.6559
10.7867
10.9376
11.1195
11.3532
11.6824
12.2192
13.3298
16.5557
10.0768
10.2315
10.39
10.5552
10.7306
10.9208
11.1323
11.3743
11.6618
12.0194
12.4915
13.1655
14.2289
16.1114
19.7774
10.1068
10.3222
10.5432
10.7742
11.0204
11.2883
11.5873
11.9303
12.3373
12.8396
13.4894
14.3782
15.6696
17.6542
20.793
0.335092
0.600718
0.716636
0.759746
0.760472
0.733787
0.688238
0.629197
0.560277
0.484031
0.402339
0.31664
0.228072
0.137581
0.0459808
0.179814
0.411715
0.541963
0.606264
0.627384
0.619074
0.589948
0.545685
0.490206
0.426333
0.356175
0.281362
0.203202
0.122787
0.0410709
0.113234
0.293302
0.413079
0.482761
0.514727
0.518808
0.502164
0.469955
0.425957
0.372995
0.313239
0.248405
0.179895
0.108896
0.0364561
0.0788754
0.216753
0.31898
0.385446
0.421429
0.432929
0.425182
0.402407
0.36793
0.324371
0.273825
0.217998
0.158315
0.0960051
0.0321687
0.0583169
0.164958
0.249712
0.309294
0.345128
0.360412
0.358632
0.342982
0.316204
0.280595
0.238076
0.190266
0.138556
0.0841732
0.0282288
0.0446974
0.12836
0.197923
0.24963
0.283095
0.29974
0.301709
0.291281
0.270608
0.241616
0.205998
0.165239
0.120654
0.0734245
0.0246451
0.035058
0.101552
0.158532
0.20263
0.23274
0.249257
0.253391
0.246692
0.230786
0.207235
0.177488
0.142869
0.104585
0.0637517
0.021416
0.0279332
0.0813505
0.128085
0.165342
0.191821
0.207371
0.212593
0.208495
0.196269
0.177154
0.15236
0.123041
0.0902857
0.0551214
0.0185312
0.0225089
0.065789
0.104217
0.135539
0.158488
0.172656
0.178265
0.17594
0.166536
0.151014
0.130372
0.105599
0.077658
0.0474809
0.015974
0.0182909
0.0535962
0.0852835
0.111548
0.131251
0.143883
0.149444
0.148299
0.141048
0.128429
0.111252
0.0903564
0.0665821
0.0407632
0.0137231
0.0149594
0.0439152
0.0701147
0.0921128
0.108922
0.120018
0.12528
0.124897
0.119285
0.109007
0.0947142
0.0771112
0.0569252
0.0348932
0.011754
0.0122963
0.0361479
0.0578628
0.07628
0.0905596
0.100204
0.105033
0.105125
0.100762
0.0923707
0.080474
0.065659
0.0485497
0.0297916
0.010041
0.0101478
0.0298639
0.0479003
0.0633197
0.0754148
0.0837342
0.0880738
0.0884453
0.0850361
0.0781677
0.0682596
0.0557991
0.0413186
0.0253788
0.00855784
0.00840167
0.024746
0.0397547
0.0526672
0.062891
0.0700269
0.0738695
0.0743902
0.071711
0.0660748
0.057817
0.0473415
0.0351003
0.0215779
0.00727926
0.00697419
0.0205553
0.0330643
0.0438812
0.0525108
0.0586057
0.0619711
0.0625564
0.0604387
0.0558016
0.0489138
0.0401095
0.0297714
0.0183156
0.00618109
0.00580172
0.0171088
0.0275487
0.0366136
0.0438903
0.0490795
0.0520026
0.052599
0.0509153
0.0470907
0.0413409
0.0339424
0.0252181
0.0155246
0.00524092
0.00483502
0.0142642
0.0229875
0.0305875
0.0367191
0.0411262
0.0436492
0.0442245
0.0428782
0.0397162
0.0349124
0.0286955
0.0213377
0.0131433
0.00443828
0.00403552
0.0119098
0.0192062
0.0255807
0.0307449
0.034481
0.036648
0.0371838
0.0361013
0.0334815
0.0294647
0.0242406
0.0180381
0.0111163
0.00375475
0.00337265
0.00995635
0.0160651
0.0214139
0.0257622
0.0289249
0.0307791
0.0312666
0.0303916
0.0282166
0.0248552
0.0204647
0.0152379
0.00939462
0.00317389
0.00282197
0.00833267
0.0134514
0.0179418
0.0216026
0.0242771
0.025859
0.0262951
0.0255844
0.0237752
0.02096
0.0172694
0.0128656
0.00793492
0.00268124
0.00236378
0.0069811
0.0112739
0.0150456
0.0181277
0.0203878
0.0217344
0.0221197
0.0215398
0.0200322
0.0176725
0.0145693
0.010859
0.00669943
0.00226413
0.00198211
0.00585485
0.00945807
0.012628
0.0152236
0.0171327
0.018277
0.0186144
0.0181391
0.0168807
0.014901
0.0122907
0.00916421
0.00565536
0.00191154
0.00166394
0.00491569
0.00794303
0.0106092
0.0127959
0.0144084
0.0153798
0.0156732
0.0152821
0.0142299
0.0125674
0.0103703
0.00773489
0.0047744
0.00161396
0.00139861
0.00413232
0.0066787
0.00892333
0.0107668
0.0121291
0.0129533
0.0132071
0.0128841
0.0120027
0.0106049
0.00875405
0.00653127
0.00403225
0.00136321
0.00117738
0.003479
0.00562384
0.00751594
0.00907166
0.0102234
0.0109227
0.0111415
0.0108736
0.0101338
0.008957
0.00739603
0.00551941
0.00340812
0.00115231
0.000993036
0.00293452
0.00474442
0.00634206
0.00765695
0.0086319
0.00922554
0.00941383
0.00919081
0.00856844
0.00757572
0.00625712
0.00467044
0.00288431
0.000975275
0.000839641
0.00248139
0.00401234
0.00536447
0.00647821
0.00730508
0.0078098
0.00797166
0.00778519
0.00726012
0.00642067
0.0053043
0.00395994
0.00244583
0.00082706
0.0007123
0.00210518
0.00340439
0.00455238
0.00549861
0.00620189
0.00663206
0.00677129
0.00661463
0.00617003
0.00545785