/*--------------------------------*- C++ -*----------------------------------*\
| =========                 |                                                 |
| \\      /  F ield         | OpenFOAM: The Open Source CFD Toolbox           |
|  \\    /   O peration     | Version:  5.x                                   |
|   \\  /    A nd           | Web:      www.OpenFOAM.org                      |
|    \\/     M anipulation  |                                                 |
\*---------------------------------------------------------------------------*/
FoamFile
{
    version     2.0;
    format      ascii;
    class       volScalarField;
    location    "13.7";
    object      gradTx;
}
// * * * * * * * * * * * * * * * * * * * * * * * * * * * * * * * * * * * * * //

dimensions      [0 -1 0 1 0 0 0];

internalField   nonuniform List<scalar> 
6300
(
8.70486
9.00113
9.58914
10.4595
11.597
12.9798
14.578
16.3528
18.2554
20.227
22.2001
24.1007
25.8528
27.3836
28.6297
8.40795
8.70874
9.3062
10.1917
11.351
12.7636
14.4008
16.2244
18.1857
20.2248
22.2718
24.2485
26.0733
27.6675
28.9618
7.80962
8.11904
8.73461
9.64926
10.8512
12.3223
14.0364
15.9575
18.0373
20.2142
22.413
24.5473
26.5239
28.2503
29.6451
6.90123
7.22257
7.86331
8.81898
10.0815
11.6371
13.4645
15.5313
17.7912
20.1808
22.618
25.0032
27.2237
29.1642
30.7206
5.67088
6.00608
6.67644
7.68126
9.01789
10.6796
12.6525
14.9114
17.4146
20.099
22.8744
25.623
28.2029
30.4614
32.2567
4.10472
4.45381
5.15447
6.21109
7.62861
9.41024
11.5538
14.0463
16.8564
19.9253
23.157
26.4107
29.5027
32.221
34.3602
2.18887
2.54936
3.27594
4.3794
5.87459
7.77831
10.1055
12.8628
16.0386
19.5883
23.4166
27.3595
31.1753
34.5591
37.1951
-0.0880685
0.278211
1.01995
2.15538
3.7114
5.72226
8.22646
11.2604
14.8462
18.9718
23.5609
28.4347
33.2792
37.6441
41.0172
-2.73186
-2.36896
-1.63033
-0.489819
1.09279
3.17225
5.81706
9.10528
13.1132
17.8913
23.4197
29.5386
35.8617
41.7201
46.2385
-5.73909
-5.39242
-4.68306
-3.57768
-2.02327
0.0562778
2.76366
6.22986
10.6094
16.0597
22.6873
30.4373
38.9081
47.1351
53.5581
-9.09351
-8.77911
-8.13233
-7.11512
-5.66501
-3.6881
-1.04917
2.44047
7.03425
13.05
20.8317
30.6144
42.1973
54.3531
64.2482
-12.7628
-12.4987
-11.9525
-11.086
-9.83407
-8.09502
-5.71328
-2.45364
2.03643
8.27383
16.9743
28.9903
44.9127
63.8305
80.8534
-16.6968
-16.5007
-16.0936
-15.4426
-14.4908
-13.1451
-11.2558
-8.57875
-4.70933
1.03386
9.8005
23.4589
44.6316
75.2015
109.138
-20.8272
-20.7143
-20.4791
-20.1006
-19.5417
-18.7394
-17.5866
-15.8967
-13.3295
-9.23021
-2.26585
10.4124
34.9523
83.204
164.442
-25.0709
-25.0506
-25.0081
-24.9395
-24.8365
-24.6844
-24.4549
-24.0926
-23.482
-22.36
-20.0467
-14.4966
1.56039
58.2194
296.21
29.4938
30.0042
30.257
30.2552
30.0098
29.5387
28.8643
28.0113
27.005
25.87
24.6292
23.3029
21.9089
20.4625
18.9766
17.462
15.9279
14.3819
12.8306
11.2795
9.73356
8.19681
6.67287
5.16479
3.67516
2.20614
0.759466
-0.663514
-2.06182
-3.4348
-4.78214
-6.10379
-7.3999
-8.67076
-9.91674
-11.1382
-12.3353
-13.5081
-14.6566
-15.7804
-16.8792
-17.9526
-19.0002
-20.022
-21.018
-21.9887
-22.935
-23.858
-24.759
-25.6391
-26.4996
-27.3411
-28.1642
-28.9685
-29.7534
-30.5176
-31.2596
-31.9776
-32.6698
-33.3347
-33.9706
-34.5764
-35.1509
-35.6928
-36.2008
-36.6729
-37.1062
-37.4973
-37.8413
-38.1326
-38.3646
-38.5303
-38.6222
-38.6331
-38.5563
-38.3862
-38.1182
-37.7496
-37.279
-36.7068
-36.0353
-35.2683
-34.4117
-33.4728
-32.4608
-31.3866
-30.2624
-29.1021
-27.9204
-26.7325
29.8541
30.3743
30.6231
30.6051
30.3341
29.8309
29.1209
28.2313
27.1896
26.0219
24.7517
23.3998
21.9839
20.519
19.0175
17.4898
15.9446
14.3893
12.8299
11.2719
9.72002
8.17815
6.64982
5.13804
3.64534
2.17384
0.725243
-0.699127
-2.09832
-3.47175
-4.81915
-6.14055
-7.43621
-8.70654
-9.95203
-11.1731
-12.3701
-13.5431
-14.6919
-15.8163
-16.9157
-17.9895
-19.0373
-20.0588
-21.0541
-22.0236
-22.9684
-23.8895
-24.7886
-25.6671
-26.5264
-27.3675
-28.1908
-28.9962
-29.7828
-30.5492
-31.2937
-32.0143
-32.7089
-33.3758
-34.0136
-34.621
-35.1972
-35.7413
-36.2521
-36.7281
-37.1667
-37.5645
-37.9167
-38.2174
-38.4598
-38.6361
-38.7383
-38.7588
-38.6902
-38.5265
-38.2628
-37.896
-37.4247
-36.8494
-36.1722
-35.3971
-34.5298
-33.5777
-32.5501
-31.458
-30.314
-29.1326
-27.929
-26.7193
30.5954
31.1344
31.3726
31.3186
30.992
30.4203
29.6352
28.6696
27.5552
26.3207
24.9914
23.5883
22.129
20.6276
19.0956
17.5424
15.9757
14.402
12.8269
11.2554
9.69172
8.13973
6.60274
5.08363
3.58484
2.10843
0.656033
-0.771069
-2.17199
-3.54622
-4.89361
-6.21436
-7.50895
-8.77804
-10.0224
-11.2426
-12.4393
-13.6126
-14.7623
-15.8879
-16.9887
-18.0637
-19.112
-20.1331
-21.127
-22.094
-23.0353
-23.9525
-24.8475
-25.7225
-26.5792
-27.4191
-28.2429
-29.0505
-29.8408
-30.612
-31.3619
-32.0878
-32.7874
-33.4586
-34.0999
-34.7103
-35.2894
-35.8372
-36.3532
-36.8366
-37.2856
-37.6969
-38.0658
-38.3859
-38.6495
-38.8479
-38.9718
-39.0122
-38.9607
-38.8103
-38.5553
-38.1924
-37.7198
-37.1382
-36.4496
-35.6581
-34.7694
-33.7909
-32.7319
-31.6036
-30.4193
-29.1945
-27.9459
-26.6915
31.7619
32.3269
32.5422
32.4239
32.0022
31.3163
30.4089
29.3217
28.093
26.7556
25.3366
23.8572
22.3341
20.7798
19.2039
17.614
16.0164
14.4163
12.8185
11.2272
9.64635
8.07949
6.52972
4.99977
3.49198
2.00829
0.550302
-0.880786
-2.28414
-3.65935
-5.00643
-6.32583
-7.61836
-8.88512
-10.1273
-11.346
-12.5421
-13.7159
-14.8673
-15.9953
-17.0987
-18.176
-19.2256
-20.2465
-21.2382
-22.2012
-23.1368
-24.0471
-24.9351
-25.8037
-26.6558
-27.4935
-28.3181
-29.1293
-29.9259
-30.7053
-31.4641
-32.199
-32.9065
-33.5841
-34.2301
-34.844
-35.4264
-35.9782
-36.5007
-36.9943
-37.4582
-37.8899
-38.2846
-38.6352
-38.9327
-39.1664
-39.3251
-39.3975
-39.3733
-39.2439
-39.0029
-38.646
-38.1717
-37.5804
-36.8747
-36.0586
-35.1379
-34.1196
-33.013
-31.8293
-30.5827
-29.2901
-27.9709
-26.6459
33.428
34.0224
34.1915
33.9652
33.3922
32.5308
31.4406
30.1769
28.7866
27.3076
25.7681
24.1887
22.5837
20.9625
19.3318
17.6964
16.0603
14.427
12.8003
11.1837
9.58062
7.9944
6.42795
4.88384
3.36425
1.87105
0.40573
-1.03051
-2.43687
-3.81301
-5.15912
-6.47596
-7.76485
-9.02753
-10.2659
-11.4819
-12.6769
-13.8516
-15.0056
-16.1378
-17.2461
-18.3278
-19.3804
-20.4017
-21.3907
-22.3476
-23.2742
-24.1737
-25.0502
-25.9084
-26.7527
-27.5866
-28.412
-29.229
-30.0354
-30.8276
-31.6006
-32.3491
-33.0683
-33.7545
-34.406
-35.0228
-35.6069
-36.1612
-36.6894
-37.1942
-37.6768
-38.1357
-38.5664
-38.9606
-39.3071
-39.5925
-39.8021
-39.9213
-39.9369
-39.838
-39.6167
-39.2683
-38.7914
-38.187
-37.4583
-36.6095
-35.6463
-34.5752
-33.4046
-32.1453
-30.812
-29.4238
-28.0037
-26.5777
35.7101
36.3294
36.4094
36.0051
35.1969
34.0739
32.7217
31.2136
29.6076
27.9458
26.2565
24.5567
22.856
21.1586
19.4662
17.7795
16.0996
14.428
12.7673
11.1203
9.4904
7.88063
6.29383
4.73241
3.19841
1.69352
0.219199
-1.22333
-2.63317
-4.00995
-5.35395
-6.66632
-7.94905
-9.20482
-10.4368
-11.6479
-12.8408
-14.0167
-15.1753
-16.3147
-17.4316
-18.5215
-19.5799
-20.6032
-21.589
-22.5373
-23.4504
-24.333
-25.1914
-26.0329
-26.8644
-27.6916
-28.5179
-29.3434
-30.1651
-30.9772
-31.7719
-32.541
-33.2771
-33.9747
-34.6315
-35.2485
-35.8297
-36.3815
-36.9112
-37.4255
-37.9289
-38.4219
-38.9002
-39.3541
-39.7691
-40.1273
-40.4088
-40.5939
-40.665
-40.6078
-40.4129
-40.0752
-39.5942
-38.9723
-38.2141
-37.3248
-36.3096
-35.1738
-33.9234
-32.5674
-31.1201
-29.6029
-28.0446
-26.4794
38.7881
39.4121
39.3239
38.6261
37.454
35.9466
34.2266
32.3908
30.5085
28.6233
26.7592
24.9257
23.123
21.3469
19.5918
17.8526
16.1265
14.4132
12.7141
11.0322
9.37093
7.73357
6.12297
4.54136
2.9905
1.47185
-0.0131982
-1.46326
-2.87713
-4.25409
-5.59434
-6.89935
-8.17199
-9.41637
-10.6374
-11.8402
-13.0291
-14.2065
-15.3724
-16.524
-17.6557
-18.7602
-19.83
-20.8584
-21.8411
-22.7774
-23.6704
-24.5269
-25.3567
-26.1713
-26.9818
-27.7976
-28.6244
-29.4629
-30.3083
-31.1514
-31.9797
-32.7801
-33.5408
-34.2532
-34.9139
-35.5251
-36.0943
-36.633
-37.1547
-37.6723
-38.1956
-38.7289
-39.2687
-39.8031
-40.3126
-40.7721
-41.1538
-41.4303
-41.5771
-41.5756
-41.4141
-41.0881
-40.5994
-39.9535
-39.1583
-38.2208
-37.1462
-35.9369
-34.5938
-33.1206
-31.5285
-29.8409
-28.0951
-26.3393
42.9443
43.5196
43.1157
41.9291
40.1932
38.1248
35.8976
33.6347
31.4127
29.27
27.2176
25.2496
23.3512
21.5047
19.6939
17.9063
16.1348
14.3774
12.6359
10.9142
9.21678
7.54777
5.91017
4.30589
2.73609
1.20169
-0.296049
-1.75538
-3.17428
-4.55111
-5.88546
-7.17896
-8.43556
-9.66144
-10.8643
-12.0525
-13.2336
-14.4126
-15.5901
-16.7618
-17.9187
-19.0487
-20.1393
-21.179
-22.1599
-23.0797
-23.9426
-24.7588
-25.5437
-26.3153
-27.0914
-27.8876
-28.7138
-29.572
-30.4546
-31.3465
-32.2274
-33.0761
-33.8735
-34.6057
-35.2673
-35.8619
-36.4025
-36.9087
-37.4037
-37.9102
-38.4474
-39.0259
-39.6444
-40.2875
-40.9275
-41.5283
-42.0499
-42.4528
-42.7024
-42.7734
-42.6516
-42.335
-41.8301
-41.1495
-40.3068
-39.3139
-38.1765
-36.8921
-35.4512
-33.8447
-32.0742
-30.1622
-28.1596
-26.1398
48.6388
49.0363
48.0335
46.0225
43.4103
40.5308
37.619
34.8191
32.2023
29.786
27.5539
25.4728
23.5041
21.6108
19.7622
17.9365
16.1225
14.3185
12.5288
10.7608
9.02151
7.31654
5.6492
4.02063
2.43056
0.878647
-0.634284
-2.10576
-3.53202
-4.90929
-6.23541
-7.51164
-8.74332
-9.93952
-11.1122
-12.275
-13.4411
-14.6205
-15.816
-17.0208
-18.22
-19.394
-20.5217
-21.5839
-22.5665
-23.4639
-24.2815
-25.0355
-25.7498
-26.4523
-27.1717
-27.9338
-28.7569
-29.6455
-30.5873
-31.5568
-32.5211
-33.4456
-34.2995
-35.0598
-35.7165
-36.276
-36.7598
-37.2002
-37.6354
-38.1037
-38.6393
-39.265
-39.9842
-40.7757
-41.5983
-42.3982
-43.1165
-43.6954
-44.0846
-44.248
-44.1694
-43.8522
-43.3136
-42.5781
-41.6713
-40.6146
-39.4181
-38.072
-36.5465
-34.8047
-32.823
-30.6137
-28.2483
-25.8506
56.6629
56.5683
54.4023
50.9805
47.0116
42.9824
39.1785
35.739
32.7024
30.0361
27.6723
25.5338
23.548
21.6522
19.797
17.9493
16.0954
14.2384
12.3904
10.5658
8.77657
7.03092
5.33221
3.67977
2.06997
0.499366
-1.03229
-2.52129
-3.96036
-5.3411
-6.65718
-7.90845
-9.10208
-10.2514
-11.3743
-12.4925
-13.6293
-14.8052
-16.0284
-17.2877
-18.5575
-19.8056
-20.9981
-22.1032
-23.0954
-23.9625
-24.7117
-25.3691
-25.9725
-26.5645
-27.19
-27.8921
-28.7052
-29.6418
-30.6798
-31.7744
-32.8715
-33.9166
-34.8598
-35.6624
-36.3054
-36.7986
-37.1789
-37.499
-37.8188
-38.1997
-38.701
-39.369
-40.2194
-41.2188
-42.3012
-43.3849
-44.3833
-45.2107
-45.7913
-46.0704
-46.0301
-45.6877
-45.0802
-44.2527
-43.2509
-42.1163
-40.8742
-39.5101
-37.9526
-36.1095
-33.8994
-31.2895
-28.3834
-25.4153
68.4838
67.0818
62.5786
56.7258
50.699
45.1087
40.2122
36.078
32.6686
29.8501
27.4656
25.3745
23.4618
21.6347
19.8205
17.9708
16.0724
14.1452
12.218
10.3194
8.46869
6.67751
4.94839
3.27737
1.65281
0.0639104
-1.49177
-3.00876
-4.47269
-5.86603
-7.17223
-8.38819
-9.52462
-10.6011
-11.6431
-12.683
-13.7613
-14.9213
-16.1888
-17.5391
-18.926
-20.2968
-21.6004
-22.7846
-23.8044
-24.6307
-25.2736
-25.7804
-26.211
-26.6284
-27.0977
-27.6899
-28.4755
-29.4919
-30.6903
-31.988
-33.2964
-34.5339
-35.622
-36.4943
-37.1097
-37.4833
-37.6841
-37.7978
-37.9137
-38.1221
-38.5218
-39.2102
-40.2393
-41.5418
-43.0019
-44.4939
-45.8956
-47.0811
-47.9314
-48.3524
-48.3254
-47.9041
-47.1632
-46.1778
-45.0211
-43.7724
-42.5056
-41.2261
-39.7696
-37.9425
-35.5509
-32.3914
-28.6073
-24.7139
87.0971
82.06
72.697
62.7207
53.7576
46.2354
40.1479
35.3726
31.7833
29.0388
26.8357
24.9577
23.2518
21.5982
19.8948
18.062
16.0905
14.0516
12.004
10.0039
8.07493
6.23458
4.48078
2.80794
1.1842
-0.419438
-2.00701
-3.57263
-5.08668
-6.51641
-7.81718
-8.9824
-10.0334
-11.0004
-11.9146
-12.8184
-13.7752
-14.8824
-16.2299
-17.7378
-19.3174
-20.8848
-22.3741
-23.7025
-24.7917
-25.5628
-26.0313
-26.3011
-26.4681
-26.6173
-26.8281
-27.2091
-27.9129
-29.0795
-30.5577
-32.1855
-33.823
-35.366
-36.6944
-37.696
-38.2616
-38.4163
-38.3142
-38.0933
-37.8747
-37.7686
-37.9266
-38.5601
-39.8652
-41.6372
-43.6563
-45.7323
-47.7186
-49.4335
-50.6891
-51.2787
-51.1881
-50.5802
-49.5975
-48.3493
-46.9233
-45.4539
-44.1549
-43.1963
-42.1198
-40.588
-38.3075
-34.3926
-28.9882
-23.4572
119.373
103.266
83.6972
67.2549
54.7402
45.2951
38.1932
32.9586
29.6807
27.4474
25.7373
24.2927
22.966
21.633
20.1549
18.3524
16.2056
13.97
11.7216
9.5855
7.55335
5.66679
3.89644
2.26768
0.686535
-0.925991
-2.5539
-4.21081
-5.82208
-7.35245
-8.65727
-9.74099
-10.6631
-11.4756
-12.2012
-12.8769
-13.5727
-14.4972
-16.0398
-17.8327
-19.7264
-21.5847
-23.3793
-24.9645
-26.2367
-26.9303
-27.0746
-26.9697
-26.7502
-26.5174
-26.3129
-26.2632
-26.6837
-28.2178
-30.2093
-32.3688
-34.4852
-36.5067
-38.2371
-39.5249
-40.0048
-39.7186
-39.1152
-38.3846
-37.6734
-37.0344
-36.6461
-36.9423
-38.8182
-41.3764
-44.228
-47.0994
-49.932
-52.4468
-54.4052
-55.1841
-54.7948
-53.7956
-52.4134
-50.7762
-48.8871
-46.8895
-45.3133
-45.3357
-45.125
-44.3112
-43.4173
-38.5381
-29.551
-20.8737
183.14
129.459
90.1935
66.1325
51.3019
40.9797
33.5492
27.7263
26.0734
25.102
24.2563
23.4574
22.6886
21.8766
20.8817
19.1381
16.4482
13.9064
11.2772
9.01727
6.82193
4.9315
3.10809
1.65875
0.233992
-1.41045
-3.05904
-4.9147
-6.67394
-8.51324
-9.81566
-10.7322
-11.4506
-12.0756
-12.5597
-12.9065
-13.0405
-13.222
-15.4888
-17.7825
-20.1859
-22.3764
-24.6855
-26.6771
-28.5143
-29.0886
-28.4763
-27.8031
-27.0513
-26.3762
-25.5745
-24.6399
-23.8505
-26.6973
-29.6184
-32.6138
-35.2838
-38.0662
-40.4165
-42.5169
-42.8506
-41.4771
-40.0987
-38.6476
-37.3679
-35.9387
-34.3796
-33.0495
-36.788
-40.6926
-44.7709
-48.5217
-52.6022
-56.2608
-59.819
-60.7709
-59.279
-57.562
-55.5957
-53.5654
-51.0067
-47.7178
-44.1692
-47.8101
-48.9983
-48.1491
-54.2653
-48.5987
-29.6672
-14.7982
329.93
134.889
74.7945
51.7173
41.3709
32.4996
26.5896
16.4886
21.4843
22.575
22.7075
22.5783
22.4728
22.3832
22.6862
21.2861
16.4769
13.9686
10.3007
8.35579
5.65123
4.09957
1.78098
1.01432
0.0977235
-1.88897
-3.26603
-5.75745
-7.41045
-10.4471
-11.5296
-12.0088
-12.3723
-12.8783
-13.1156
-13.2423
-12.4399
-8.94382
-14.8987
-17.5743
-20.9519
-22.9969
-26.4485
-28.6118
-32.6104
-32.9551
-29.9653
-28.7494
-27.2416
-26.4171
-25.027
-22.807
-15.7811
-25.0693
-28.92
-33.327
-35.9201
-40.2474
-42.9551
-48.0524
-48.1544
-43.242
-41.1866
-38.6632
-37.2771
-35.0293
-31.783
-21.8577
-34.5179
-39.7583
-45.7848
-49.4686
-55.8794
-60.2185
-68.9853
-69.8762
-64.0866
-61.6867
-58.8694
-57.1148
-54.1773
-48.9195
-32.6715
-53.8159
-55.8047
-41.9564
-82.0799
-77.7601
-23.9329
0.636721
-25.4375
-24.0583
-22.737
-21.4922
-20.3382
-19.2852
-18.3396
-17.5044
-16.7804
-16.1664
-15.6604
-15.2597
-14.9619
-14.7647
-14.6665
-25.4016
-24.0002
-22.6603
-21.4011
-20.2369
-19.1776
-18.2289
-17.3931
-16.6702
-16.0583
-15.5548
-15.1567
-14.8611
-14.6654
-14.5681
-25.3271
-23.8802
-22.5026
-21.2146
-20.0304
-18.9591
-18.005
-17.1687
-16.4486
-15.8416
-15.3437
-14.9511
-14.6601
-14.4678
-14.3721
-25.2084
-23.6905
-22.2552
-20.924
-19.7109
-18.6233
-17.6629
-16.8278
-16.1138
-15.5155
-15.0272
-14.6436
-14.3602
-14.1732
-14.0804
-25.0357
-23.418
-21.9032
-20.5149
-19.2658
-18.16
-17.1953
-16.3657
-15.6631
-15.0792
-14.6058
-14.2358
-13.9635
-13.7845
-13.6957
-24.7943
-23.0424
-21.4246
-19.9663
-18.677
-17.5554
-16.5925
-15.7763
-15.0937
-14.5321
-14.0807
-13.7302
-13.4735
-13.3052
-13.222
-24.4606
-22.5323
-20.7864
-19.2482
-17.9206
-16.7917
-15.8428
-15.0531
-14.4029
-13.8747
-13.4544
-13.1306
-12.8948
-12.7409
-12.6648
-23.9973
-21.8395
-19.9402
-18.3195
-16.965
-15.8478
-14.9338
-14.1904
-13.5898
-13.1093
-12.7315
-12.443
-12.2341
-12.0984
-12.0315
-23.3424
-20.8879
-18.815
-17.1243
-15.7721
-14.7006
-13.8538
-13.1847
-12.6564
-12.2412
-11.919
-11.6754
-11.5002
-11.3869
-11.3312
-22.3858
-19.5542
-17.3076
-15.5902
-14.2983
-13.3284
-12.5961
-12.0381
-11.6097
-11.28
-11.0279
-10.8392
-10.7044
-10.6176
-10.575
-20.9201
-17.6354
-15.2707
-13.6304
-12.5022
-11.7187
-11.1637
-10.7616
-10.4641
-10.241
-10.0732
-9.94887
-9.8606
-9.80387
-9.77609
-18.5295
-14.7964
-12.5093
-11.1585
-10.3613
-9.8801
-9.5785
-9.38046
-9.24414
-9.14651
-9.07491
-9.02237
-8.98511
-8.96109
-8.94929
-14.3398
-10.5113
-8.81143
-8.1327
-7.90413
-7.86188
-7.88956
-7.93745
-7.98532
-8.02589
-8.05745
-8.08049
-8.09625
-8.10597
-8.11058
-6.47562
-4.09725
-4.09234
-4.65668
-5.26058
-5.77361
-6.18032
-6.49437
-6.7337
-6.91419
-7.04839
-7.14579
-7.21334
-7.25585
-7.27637
9.05374
4.69029
1.19603
-1.14103
-2.70784
-3.79158
-4.56369
-5.1259
-5.54085
-5.8487
-6.07604
-6.24086
-6.35537
-6.42764
-6.4626
-28.98
-29.0461
-29.1842
-29.4068
-29.7355
-30.2054
-30.8729
-31.8333
-33.2579
-35.488
-39.3135
-46.9614
-66.2681
-130.905
-408.542
-32.488
-32.6287
-32.922
-33.3945
-34.0914
-35.0874
-36.5043
-38.5483
-41.5858
-46.3148
-54.1745
-68.3786
-96.4512
-154.92
-262.511
-35.8985
-36.1054
-36.5358
-37.2264
-38.2398
-39.6772
-41.7004
-44.5735
-48.7395
-54.9675
-64.6298
-80.1647
-105.526
-144.821
-191.195
-39.1657
-39.427
-39.9692
-40.8344
-42.094
-43.8602
-46.3065
-49.7011
-54.4612
-61.2356
-71.007
-85.1272
-104.924
-129.805
-152.082
-42.2515
-42.5537
-43.1783
-44.1687
-45.5965
-47.5711
-50.2542
-53.8805
-58.7841
-65.4223
-74.364
-86.1479
-100.79
-116.599
-128.439
-45.1277
-45.4565
-46.1336
-47.1993
-48.7194
-50.7901
-53.5471
-57.173
-61.9025
-68.0094
-75.7472
-85.1838
-95.8451
-106.148
-113.017
-47.7756
-48.1178
-48.8191
-49.9146
-51.4598
-53.5327
-56.2366
-59.6993
-64.0645
-69.4638
-75.9505
-83.3693
-91.149
-98.0827
-102.365
-50.1861
-50.5297
-51.2308
-52.3178
-53.8339
-55.8372
-58.3992
-61.5989
-65.5084
-70.1631
-75.5063
-81.304
-87.0403
-91.8584
-94.6858
-52.3581
-52.6934
-53.3747
-54.4231
-55.8697
-57.7537
-60.119
-63.0056
-66.435
-70.3842
-74.7466
-79.2812
-83.569
-87.0165
-88.9702
-54.2974
-54.617
-55.2638
-56.252
-57.6017
-59.3361
-61.4768
-64.0353
-67.0005
-70.3185
-73.8671
-77.4296
-80.6811
-83.2117
-84.6112
-56.0147
-56.3135
-56.9158
-57.8299
-59.0667
-60.6365
-62.5443
-64.7827
-67.3211
-70.0926
-72.978
-75.794
-78.2939
-80.1924
-81.224
-57.5246
-57.7994
-58.3512
-59.1838
-60.3005
-61.7021
-63.3823
-65.3216
-67.4799
-69.7876
-72.1369
-74.3779
-76.3242
-77.7749
-78.553
-58.8438
-59.093
-59.5918
-60.3403
-61.3365
-62.5744
-64.0403
-65.7083
-67.535
-69.4537
-71.3711
-73.1663
-74.6987
-75.8244
-76.4224
-59.9899
-60.2133
-60.6592
-61.3248
-62.2047
-63.2884
-64.5581
-65.985
-67.526
-69.1208
-70.69
-72.1371
-73.3554
-74.2404
-74.7069
-60.9808
-61.1792
-61.5739
-62.1606
-62.9313
-63.8733
-64.9667
-66.1823
-67.4797
-68.8057
-70.0937
-71.2669
-72.2437
-72.9469
-73.3154
-61.8341
-62.0087
-62.3553
-62.8685
-63.5391
-64.3531
-65.2903
-66.3228
-67.4137
-68.5168
-69.577
-70.533
-71.3218
-71.8857
-72.1799
-62.5662
-62.7188
-63.0211
-63.4672
-64.0474
-64.7474
-65.5478
-66.4227
-67.3392
-68.2577
-69.1328
-69.9153
-70.5562
-71.0117
-71.2485
-63.1924
-63.3249
-63.5871
-63.9728
-64.4723
-65.0721
-65.7537
-66.4936
-67.2632
-68.0288
-68.7528
-69.3958
-69.9193
-70.2896
-70.4816
-63.7265
-63.841
-64.0673
-64.3993
-64.8278
-65.3399
-65.9189
-66.544
-67.1901
-67.8288
-68.4291
-68.9592
-69.3887
-69.6914
-69.8479
-64.181
-64.2796
-64.4741
-64.7588
-65.1251
-65.5613
-66.0523
-66.5797
-67.1221
-67.6554
-68.1541
-68.5925
-68.9462
-69.1947
-69.323
-64.5671
-64.6517
-64.8183
-65.0616
-65.374
-65.7447
-66.1604
-66.605
-67.0603
-67.5061
-67.9211
-68.2845
-68.5767
-68.7815
-68.887
-64.8946
-64.9668
-65.1091
-65.3166
-65.5823
-65.8968
-66.2483
-66.623
-67.0052
-67.3781
-67.724
-68.0258
-68.2679
-68.4372
-68.5244
-65.1718
-65.2334
-65.3546
-65.5311
-65.7567
-66.0231
-66.3201
-66.6357
-66.9567
-67.2688
-67.5574
-67.8086
-68.0097
-68.15
-68.2222
-65.4062
-65.4586
-65.5617
-65.7116
-65.9029
-66.1283
-66.379
-66.6447
-66.9143
-67.1757
-67.4169
-67.6263
-67.7936
-67.9102
-67.9701
-65.6042
-65.6487
-65.7362
-65.8633
-66.0253
-66.2159
-66.4274
-66.6511
-66.8776
-67.0967
-67.2984
-67.4732
-67.6127
-67.7097
-67.7596
-65.7713
-65.809
-65.8832
-65.9909
-66.1279
-66.2889
-66.4673
-66.6557
-66.8459
-67.0297
-67.1986
-67.3447
-67.4611
-67.5421
-67.5836
-65.9121
-65.9441
-66.0069
-66.098
-66.2139
-66.3498
-66.5003
-66.6589
-66.8188
-66.9731
-67.1146
-67.2369
-67.3342
-67.4018
-67.4365
-66.0307
-66.0578
-66.111
-66.188
-66.286
-66.4007
-66.5276
-66.6611
-66.7957
-66.9252
-67.0439
-67.1464
-67.2279
-67.2845
-67.3135
-66.1305
-66.1534
-66.1984
-66.2636
-66.3463
-66.4432
-66.5502
-66.6628
-66.776
-66.8849
-66.9846
-67.0706
-67.1389
-67.1863
-67.2105
-66.2143
-66.2337
-66.2718
-66.3269
-66.3969
-66.4787
-66.569
-66.6639
-66.7593
-66.8509
-66.9347
-67.007
-67.0643
-67.1041
-67.1245
-66.2846
-66.3011
-66.3333
-66.38
-66.4392
-66.5083
-66.5846
-66.6647
-66.7451
-66.8224
-66.893
-66.9538
-67.002
-67.0354
-67.0525
-66.3436
-66.3575
-66.3848
-66.4244
-66.4745
-66.533
-66.5976
-66.6653
-66.7332
-66.7984
-66.858
-66.9093
-66.9499
-66.9781
-66.9925
-66.3928
-66.4047
-66.4278
-66.4614
-66.5039
-66.5536
-66.6083
-66.6657
-66.7232
-66.7784
-66.8288
-66.8721
-66.9065
-66.9303
-66.9425
-66.4338
-66.4439
-66.4637
-66.4922
-66.5284
-66.5707
-66.6172
-66.666
-66.7148
-66.7617
-66.8045
-66.8412
-66.8704
-66.8905
-66.9009
-66.4678
-66.4765
-66.4934
-66.5178
-66.5487
-66.5848
-66.6245
-66.6662
-66.7079
-66.7478
-66.7843
-66.8156
-66.8405
-66.8577
-66.8665
-66.4959
-66.5033
-66.5178
-66.5388
-66.5654
-66.5964
-66.6306
-66.6663
-66.7021
-66.7364
-66.7677
-66.7946
-66.8159
-66.8306
-66.8382
-66.5187
-66.5252
-66.5378
-66.556
-66.579
-66.6059
-66.6355
-66.6664
-66.6974
-66.7271
-66.7542
-66.7774
-66.7958
-66.8086
-66.8151
-66.5371
-66.5428
-66.5538
-66.5698
-66.59
-66.6135
-66.6394
-66.6665
-66.6936
-66.7196
-66.7433
-66.7636
-66.7797
-66.7908
-66.7965
-66.5516
-66.5566
-66.5664
-66.5806
-66.5986
-66.6195
-66.6425
-66.6665
-66.6906
-66.7137
-66.7347
-66.7527
-66.767
-66.7769
-66.782
-66.5626
-66.5672
-66.576
-66.5889
-66.6051
-66.624
-66.6448
-66.6666
-66.6883
-66.7092
-66.7282
-66.7445
-66.7574
-66.7663
-66.7709
-66.5705
-66.5747
-66.5829
-66.5948
-66.6098
-66.6273
-66.6465
-66.6666
-66.6867
-66.706
-66.7235
-66.7386
-66.7505
-66.7588
-66.763
-66.5755
-66.5794
-66.5872
-66.5985
-66.6127
-66.6293
-66.6475
-66.6666
-66.6857
-66.704
-66.7206
-66.7349
-66.7462
-66.754
-66.758
-66.5776
-66.5815
-66.5891
-66.6001
-66.614
-66.6302
-66.648
-66.6666
-66.6852
-66.7031
-66.7193
-66.7332
-66.7443
-66.7519
-66.7558
-66.5771
-66.581
-66.5887
-66.5997
-66.6137
-66.63
-66.6479
-66.6666
-66.6853
-66.7033
-66.7196
-66.7336
-66.7447
-66.7524
-66.7563
-66.5739
-66.578
-66.5859
-66.5973
-66.6118
-66.6287
-66.6472
-66.6666
-66.686
-66.7046
-66.7215
-66.736
-66.7475
-66.7555
-66.7595
-66.5679
-66.5722
-66.5806
-66.5928
-66.6082
-66.6262
-66.6459
-66.6666
-66.6873
-66.707
-66.7251
-66.7405
-66.7528
-66.7613
-66.7656
-66.5589
-66.5636
-66.5728
-66.5861
-66.6029
-66.6225
-66.644
-66.6666
-66.6891
-66.7107
-66.7304
-66.7473
-66.7607
-66.7699
-66.7746
-66.5466
-66.5518
-66.5621
-66.5769
-66.5956
-66.6174
-66.6414
-66.6665
-66.6917
-66.7157
-66.7377
-66.7565
-66.7714
-66.7817
-66.787
-66.5307
-66.5366
-66.5482
-66.5649
-66.5861
-66.6109
-66.638
-66.6665
-66.695
-66.7222
-66.7471
-66.7684
-66.7853
-66.797
-66.803
-66.5106
-66.5174
-66.5307
-66.5499
-66.5742
-66.6026
-66.6338
-66.6664
-66.6991
-66.7304
-66.7589
-66.7835
-66.8029
-66.8163
-66.8232
-66.4859
-66.4937
-66.5091
-66.5314
-66.5595
-66.5924
-66.6285
-66.6663
-66.7042
-66.7405
-66.7736
-66.802
-66.8245
-66.8401
-66.8481
-66.4557
-66.4648
-66.4828
-66.5087
-66.5416
-66.5799
-66.622
-66.6662
-66.7104
-66.7528
-66.7915
-66.8247
-66.851
-66.8692
-66.8786
-66.4191
-66.4299
-66.4509
-66.4813
-66.5198
-66.5647
-66.6142
-66.666
-66.718
-66.7677
-66.8131
-66.8522
-66.8831
-66.9045
-66.9155
-66.3751
-66.3877
-66.4125
-66.4482
-66.4935
-66.5464
-66.6047
-66.6657
-66.727
-66.7857
-66.8392
-66.8853
-66.9218
-66.9471
-66.96
-66.3223
-66.3372
-66.3664
-66.4086
-66.462
-66.5245
-66.5932
-66.6654
-66.7377
-66.8071
-66.8705
-66.9251
-66.9683
-66.9982
-67.0136
-66.2592
-66.2768
-66.3112
-66.3611
-66.4242
-66.4981
-66.5794
-66.6648
-66.7505
-66.8328
-66.908
-66.9727
-67.024
-67.0595
-67.0777
-66.1839
-66.2047
-66.2454
-66.3043
-66.3791
-66.4665
-66.5629
-66.6641
-66.7657
-66.8634
-66.9527
-67.0296
-67.0906
-67.1329
-67.1545
-66.0941
-66.1187
-66.1668
-66.2366
-66.3251
-66.4286
-66.5429
-66.663
-66.7837
-66.8998
-67.006
-67.0975
-67.1701
-67.2206
-67.2464
-65.9873
-66.0164
-66.0733
-66.1559
-66.2606
-66.3834
-66.5189
-66.6615
-66.805
-66.9431
-67.0695
-67.1786
-67.2652
-67.3253
-67.3561
-65.8603
-65.8947
-65.962
-66.0597
-66.1838
-66.3292
-66.49
-66.6594
-66.83
-66.9944
-67.1451
-67.2752
-67.3786
-67.4504
-67.4872
-65.7095
-65.7501
-65.8297
-65.9452
-66.092
-66.2644
-66.4552
-66.6564
-66.8594
-67.0552
-67.2349
-67.3903
-67.5139
-67.5999
-67.6439
-65.5305
-65.5784
-65.6724
-65.8089
-65.9826
-66.1868
-66.4131
-66.6522
-66.8937
-67.1271
-67.3417
-67.5275
-67.6755
-67.7784
-67.8312
-65.3183
-65.3747
-65.4856
-65.6467
-65.8521
-66.0938
-66.3621
-66.6462
-66.9338
-67.2121
-67.4686
-67.6909
-67.8682
-67.9918
-68.0551
-65.0669
-65.1333
-65.2638
-65.4538
-65.6963
-65.9822
-66.3003
-66.6378
-66.9802
-67.3124
-67.6191
-67.8855
-68.0984
-68.2468
-68.3231
-64.7693
-64.8474
-65.0008
-65.2245
-65.5105
-65.8483
-66.2251
-66.6259
-67.0336
-67.4304
-67.7976
-68.1173
-68.3733
-68.5521
-68.644
-64.4175
-64.509
-64.6891
-64.9519
-65.2886
-65.6873
-66.1333
-66.6091
-67.0948
-67.5689
-68.009
-68.3934
-68.7018
-68.9176
-69.0287
-64.0023
-64.1092
-64.32
-64.6281
-65.0237
-65.4935
-66.0208
-66.5854
-67.164
-67.7309
-68.2592
-68.7221
-69.0946
-69.3558
-69.4905
-63.5127
-63.6374
-63.8832
-64.2434
-64.7072
-65.2598
-65.8825
-66.552
-67.2412
-67.9197
-68.5548
-69.1135
-69.5648
-69.882
-70.0457
-62.9366
-63.0813
-63.3672
-63.7869
-64.329
-64.9775
-65.7116
-66.5049
-67.326
-68.1387
-68.9035
-69.5796
-70.1279
-70.5146
-70.7147
-62.2601
-62.4273
-62.7582
-63.2453
-63.8768
-64.6358
-65.4995
-66.4385
-67.4166
-68.391
-69.3138
-70.1344
-70.8033
-71.2769
-71.5225
-61.4674
-61.6597
-62.0408
-62.6035
-63.3362
-64.2215
-65.2351
-66.3449
-67.5097
-68.6791
-69.795
-70.7945
-71.6143
-72.1975
-72.5009
-60.5413
-60.7609
-61.1972
-61.8437
-62.6896
-63.718
-64.904
-66.2133
-67.5995
-69.0042
-70.3571
-71.5793
-72.5895
-73.3124
-73.6899
-59.4627
-59.7117
-60.2077
-60.9456
-61.9164
-63.105
-64.4874
-66.0281
-67.6765
-69.3653
-71.01
-72.5115
-73.764
-74.6672
-75.141
-58.2112
-58.4912
-59.0501
-59.8857
-60.992
-62.3574
-63.961
-65.768
-67.7254
-69.7571
-71.7622
-73.6164
-75.1812
-76.32
-76.9211
-56.7654
-57.0768
-57.7006
-58.6378
-59.8876
-61.4445
-63.2933
-65.4036
-67.7227
-70.1675
-72.6191
-74.9223
-76.8941
-78.3461
-79.1185
-55.1035
-55.4457
-56.1335
-57.1728
-58.5701
-60.3288
-62.4439
-64.8943
-67.6327
-70.573
-73.5791
-76.4582
-78.968
-80.8441
-81.8523
-53.2039
-53.5746
-54.3223
-55.4594
-57.0018
-58.9657
-61.3617
-64.1851
-67.4024
-70.9328
-74.6271
-78.2506
-81.4818
-83.9446
-85.2862
-51.0471
-51.4416
-52.2408
-53.4645
-55.1408
-57.3026
-59.9826
-63.2023
-66.9547
-71.1788
-75.7243
-80.3154
-84.5291
-87.8237
-89.6515
-48.6165
-49.0278
-49.8647
-51.1556
-52.9425
-55.2798
-58.2289
-61.8495
-66.1794
-71.2014
-76.7899
-82.6422
-88.2145
-92.7213
-95.286
-45.9003
-46.3186
-47.1734
-48.5022
-50.3623
-52.832
-56.009
-60.0041
-64.9236
-70.8305
-77.6722
-85.1633
-92.6396
-98.9673
-102.701
-42.8939
-43.3063
-44.1531
-45.4799
-47.3589
-49.8932
-53.2211
-57.5169
-62.982
-69.8105
-78.1035
-87.6946
-97.8623
-107.014
-112.71
-39.6012
-39.9925
-40.7997
-42.0743
-43.9004
-46.4034
-49.761
-54.2178
-60.0936
-67.7733
-77.6333
-89.8253
-103.79
-117.461
-126.673
-36.0369
-36.3901
-37.1218
-38.2858
-39.9722
-42.3201
-45.5378
-49.9332
-55.9527
-64.2221
-75.5437
-90.7245
-109.922
-131.005
-147.033
-32.2275
-32.5251
-33.1439
-34.1348
-35.5848
-37.6328
-40.497
-44.5207
-50.2495
-58.5512
-70.774
-88.8345
-114.744
-148.057
-178.523
-28.2117
-28.4373
-28.9078
-29.6651
-30.7823
-32.3791
-34.6511
-37.9244
-42.7598
-50.1574
-61.9505
-81.4934
-114.425
-167.087
-231.168
-24.0395
-24.1798
-24.4727
-24.9457
-25.6469
-26.6566
-28.1101
-30.2434
-33.4909
-38.7114
-47.7451
-64.8547
-100.402
-178.188
-328.313
-19.7702
-19.8165
-19.9129
-20.0682
-20.2974
-20.6261
-21.0974
-21.789
-22.8521
-24.6177
-27.9316
-35.412
-57.0476
-139.052
-529.709
-15.4691
-15.4186
-15.3126
-15.1396
-14.8793
-14.4968
-13.9321
-13.077
-11.7259
-9.44902
-5.22515
3.86071
28.2294
114.428
509.78
-11.2034
-11.0597
-10.759
-10.2719
-9.54625
-8.49453
-6.96865
-4.70996
-1.24291
4.36713
14.1046
32.5198
70.5684
153.215
311.654
-7.0378
-6.81015
-6.33525
-5.57015
-4.44004
-2.82192
-0.514589
2.81743
7.75131
15.3166
27.4078
47.5438
81.9353
139.368
223.563
29.2935
11.9487
4.98294
1.37561
-0.810612
-2.26034
-3.27412
-4.00641
-4.54553
-4.94573
-5.24195
-5.45739
-5.60754
-5.70256
-5.74861
18.518
11.3395
6.09328
2.67658
0.402693
-1.17104
-2.29722
-3.12279
-3.73712
-4.197
-4.53975
-4.79044
-4.96593
-5.07736
-5.13147
12.7275
9.38837
5.93306
3.1839
1.12978
-0.392513
-1.52908
-2.38585
-3.03594
-3.52957
-3.90145
-4.17566
-4.36878
-4.49191
-4.55185
9.25566
7.51781
5.28241
3.20851
1.48752
0.118152
-0.955228
-1.7924
-2.44338
-2.94666
-3.33095
-3.61715
-3.8202
-3.9503
-4.01382
6.99059
5.99272
4.51957
2.98803
1.60107
0.423267
-0.545399
-1.32825
-1.95335
-2.44638
-2.82852
-3.11636
-3.32223
-3.45488
-3.51986
5.41842
4.79762
3.79723
2.66712
1.56936
0.583142
-0.264601
-0.973645
-1.55503
-2.02306
-2.39158
-2.67245
-2.87509
-3.00644
-3.071
4.27731
3.86609
3.16495
2.32371
1.46018
0.646848
-0.0801207
-0.707678
-1.23542
-1.66884
-2.01547
-2.28283
-2.47745
-2.60435
-2.66694
3.42174
3.13585
2.62994
1.99576
1.31613
0.650573
0.0353244
-0.511022
-0.981293
-1.37487
-1.69439
-1.94373
-2.1268
-2.24689
-2.30633
2.76467
2.55838
2.18398
1.69935
1.16229
0.619358
0.10292
-0.367193
-0.780421
-1.13231
-1.42203
-1.65063
-1.81986
-1.93152
-1.98698
2.25085
2.09761
1.81456
1.43933
1.01251
0.569742
0.138345
-0.262864
-0.622138
-0.932919
-1.19211
-1.39873
-1.55289
-1.65516
-1.70612
1.84342
1.72697
1.50914
1.21513
0.873797
0.512224
0.152806
-0.187655
-0.497525
-0.769341
-0.998698
-1.18325
-1.32195
-1.41442
-1.46064
1.51683
1.42673
1.25659
1.02379
0.74913
0.453206
0.1541
-0.133688
-0.399334
-0.635243
-0.836383
-0.999611
-1.12308
-1.20579
-1.24725
1.2528
1.18207
1.04754
0.861519
0.639221
0.396393
0.147533
-0.0950958
-0.32179
-0.525284