/*--------------------------------*- C++ -*----------------------------------*\
| =========                 |                                                 |
| \\      /  F ield         | OpenFOAM: The Open Source CFD Toolbox           |
|  \\    /   O peration     | Version:  5.x                                   |
|   \\  /    A nd           | Web:      www.OpenFOAM.org                      |
|    \\/     M anipulation  |                                                 |
\*---------------------------------------------------------------------------*/
FoamFile
{
    version     2.0;
    format      ascii;
    class       volScalarField;
    location    "12.9";
    object      gradTx;
}
// * * * * * * * * * * * * * * * * * * * * * * * * * * * * * * * * * * * * * //

dimensions      [0 -1 0 1 0 0 0];

internalField   nonuniform List<scalar> 
6300
(
14.217
14.5312
15.1545
16.0764
17.2804
18.7421
20.4288
22.2978
24.2955
26.3578
28.411
30.3748
32.1666
33.7079
34.9307
13.9021
14.2213
14.855
15.7937
17.0218
18.5164
20.2458
22.1682
24.2301
26.3661
28.4996
30.5458
32.4163
34.0256
35.2996
13.2673
13.596
14.2499
15.2209
16.496
18.055
19.869
21.8983
24.0897
26.3759
28.6747
30.8919
32.9261
34.6776
36.0584
12.3029
12.645
13.3268
14.3434
15.6854
17.3377
19.2763
21.4654
23.8539
26.3722
28.9305
31.4199
33.7179
35.6995
37.2523
10.9958
11.3534
12.0683
13.1395
14.5639
16.3333
18.4322
20.8323
23.4874
26.3277
29.2544
32.1385
34.8254
37.1491
38.9564
9.33048
9.7037
10.4527
11.5819
13.0964
14.9988
17.2862
19.9433
22.9349
26.1958
29.62
33.0534
36.295
39.1143
41.2885
7.2912
7.67752
8.45613
9.63842
11.2401
13.2787
15.7696
18.719
22.1124
25.8998
29.9756
34.1593
38.1861
41.7236
44.4289
4.86491
5.25838
6.05517
7.27482
8.94609
11.1055
13.794
17.0497
20.8951
25.3146
30.2225
35.4211
40.5656
45.1642
48.6593
2.04446
2.43526
3.23068
4.45892
6.16324
8.40253
11.2503
14.79
19.1027
24.2403
30.1777
36.7361
43.4901
49.7072
54.4331
-1.16742
-0.793147
-0.0272653
1.16626
2.84473
5.09037
8.01399
11.7567
16.4846
22.3655
29.511
37.8545
46.9505
55.7402
62.5195
-4.75418
-4.41378
-3.71348
-2.61199
-1.04158
1.09956
3.95787
7.73757
12.7125
19.2254
27.6452
38.2193
50.7161
63.7826
74.318
-8.68192
-8.39492
-7.80147
-6.85978
-5.49922
-3.60907
-1.02031
2.52247
7.40175
14.1777
23.6243
36.6602
53.9108
74.3546
92.6269
-12.8972
-12.683
-12.2383
-11.527
-10.487
-9.01688
-6.95313
-4.02978
0.193648
6.4583
16.0132
30.8853
53.9111
87.0966
123.784
-17.3272
-17.2023
-16.9421
-16.5235
-15.9055
-15.0188
-13.7461
-11.8827
-9.05636
-4.55211
3.08413
16.9556
43.7504
96.335
184.65
-21.8826
-21.8573
-21.8047
-21.7198
-21.5931
-21.4074
-21.1303
-20.6991
-19.9849
-18.6952
-16.0809
-9.89844
7.79885
69.8419
329.582
35.7424
36.1761
36.3261
36.1965
35.8003
35.1578
34.2941
33.2368
32.014
30.6528
29.1784
27.6129
25.976
24.2842
22.5516
20.7899
19.009
17.2173
15.422
13.6292
11.8442
10.0716
8.31548
6.57924
4.8658
3.17761
1.51664
-0.115532
-1.71779
-3.28938
-4.8299
-6.33928
-7.81767
-9.26538
-10.6828
-12.0703
-13.4282
-14.7565
-16.0552
-17.324
-18.5626
-19.7705
-20.9475
-22.0935
-23.2089
-24.2941
-25.3504
-26.3789
-27.3813
-28.3591
-29.3137
-30.2461
-31.1568
-32.0457
-32.9122
-33.7551
-34.5727
-35.3633
-36.125
-36.8561
-37.5551
-38.2207
-38.8516
-39.4467
-40.0043
-40.5224
-40.9979
-41.4269
-41.8042
-42.1236
-42.3778
-42.559
-42.659
-42.67
-42.5845
-42.3963
-42.1006
-41.6939
-41.175
-40.5442
-39.8039
-38.9585
-38.014
-36.9787
-35.8626
-34.6777
-33.4374
-32.1571
-30.853
-29.5418
36.1407
36.5837
36.728
36.5794
36.1541
35.4756
34.5722
33.4744
32.2125
30.8153
29.3087
27.7153
26.0545
24.3425
22.593
20.817
19.0241
17.2222
15.418
13.6176
11.826
10.0477
8.28664
6.54622
4.82929
3.13827
1.4751
-0.158681
-1.76199
-3.33411
-4.87474
-6.38387
-7.86177
-9.30889
-10.7258
-12.1129
-13.4706
-14.799
-16.0981
-17.3674
-18.6065
-19.8148
-20.9918
-22.1375
-23.2518
-24.3356
-25.3899
-26.4162
-27.4164
-28.3922
-29.3453
-30.277
-31.1877
-32.0776
-32.9458
-33.791
-34.6112
-35.4044
-36.1686
-36.9019
-37.6028
-38.2701
-38.9028
-39.5001
-40.0608
-40.5831
-41.0644
-41.5008
-41.8871
-42.2169
-42.4824
-42.6753
-42.7868
-42.8083
-42.7319
-42.5508
-42.2597
-41.8551
-41.3355
-40.7013
-39.9549
-39.1005
-38.1444
-37.0946
-35.9614
-34.7568
-33.4948
-32.1911
-30.8627
-29.5275
36.9599
37.4207
37.5506
37.3601
36.8717
36.1164
35.1294
33.9474
32.6053
31.1347
29.5633
27.9141
26.206
24.4545
22.6718
20.8681
19.0518
17.2298
15.4084
13.593
11.7883
9.99869
8.22789
6.47917
4.75532
3.05868
1.39116
-0.245783
-1.85111
-3.42422
-4.96491
-6.47337
-7.95012
-9.39587
-10.8114
-12.1976
-13.5549
-14.8836
-16.1835
-17.454
-18.6945
-19.9038
-21.0812
-22.2261
-23.3385
-24.4192
-25.4693
-26.4908
-27.4861
-28.4576
-29.4074
-30.3374
-31.2483
-32.1403
-33.0122
-33.8623
-34.6881
-35.4869
-36.2562
-36.9939
-37.6983
-38.3686
-39.0044
-39.6056
-40.1719
-40.7024
-41.1951
-41.6463
-42.051
-42.402
-42.691
-42.9082
-43.0435
-43.087
-43.0295
-42.863
-42.5816
-42.1814
-41.6606
-41.0196
-40.2608
-39.3885
-38.409
-37.3302
-36.1625
-34.9181
-33.6116
-32.2601
-30.8821
-29.4973
38.2485
38.7333
38.8338
38.5689
37.973
37.0898
35.9668
34.6502
33.1822
31.5987
29.9293
28.197
26.4196
24.6107
22.7805
20.9371
19.0871
17.2363
15.3898
13.5525
11.7287
9.92236
8.13713
6.37612
4.64201
2.93706
1.26309
-0.378474
-1.98668
-3.56101
-5.10147
-6.60851
-8.08302
-9.5262
-10.9394
-12.3238
-13.6803
-15.0095
-16.3109
-17.5839
-18.827
-20.0385
-21.2169
-22.3611
-23.4707
-24.5463
-25.5895
-26.6029
-27.5898
-28.5537
-29.4978
-30.4247
-31.3359
-32.2313
-33.1096
-33.9681
-34.8033
-35.6114
-36.389
-37.1332
-37.8425
-38.5164
-39.1554
-39.7609
-40.3342
-40.8757
-41.3847
-41.8584
-42.2915
-42.6761
-43.0023
-43.2584
-43.432
-43.5108
-43.4833
-43.3401
-43.0742
-42.6808
-42.1582
-41.5069
-40.7295
-39.8305
-38.8159
-37.6936
-36.4735
-35.1682
-33.793
-32.3667
-30.9107
-29.448
40.0881
40.5985
40.6422
40.2535
39.4871
38.4079
37.082
35.5704
33.9246
32.1859
30.385
28.5441
26.6781
24.797
22.9077
21.015
19.1232
17.2361
15.3578
13.4923
11.6436
9.81543
8.01129
6.23415
4.48657
2.77069
1.08829
-0.559269
-2.17104
-3.7466
-5.28612
-6.79044
-8.26098
-9.69965
-11.1086
-12.4899
-13.8451
-15.175
-16.4792
-17.7565
-19.0046
-20.2206
-21.4017
-22.5458
-23.6516
-24.7198
-25.7523
-26.7529
-27.7263
-28.6778
-29.6125
-30.5344
-31.4457
-32.3467
-33.2351
-34.1069
-34.957
-35.7795
-36.5692
-37.3224
-38.0372
-38.7137
-39.3542
-39.9622
-40.5415
-41.0953
-41.6248
-42.1285
-42.6011
-43.0337
-43.414
-43.727
-43.9566
-44.0869
-44.1032
-43.9936
-43.7495
-43.3658
-42.8407
-42.1753
-41.373
-40.4383
-39.3774
-38.1972
-36.9069
-35.5184
-34.0477
-32.5159
-30.9484
-29.3741
42.606
43.1348
43.0725
42.4813
41.4509
40.0804
38.4641
36.6829
34.8002
32.8618
30.8979
28.9268
26.9577
24.9948
23.0392
21.0913
19.152
17.2229
15.3069
13.4075
11.5286
9.67371
7.84638
6.04944
4.28532
2.55601
0.863218
-0.791651
-2.40757
-3.98407
-5.52145
-7.02095
-8.48473
-9.91579
-11.3176
-12.6934
-14.0461
-15.3771
-16.6861
-17.9711
-19.2282
-20.4527
-21.6396
-22.785
-23.8865
-24.9442
-25.9607
-26.9416
-27.8939
-28.8258
-29.7453
-30.6589
-31.5701
-32.4796
-33.3839
-34.2768
-35.1499
-35.9942
-36.8016
-37.5666
-38.2864
-38.9625
-39.5994
-40.2042
-40.785
-41.3492
-41.9016
-42.4428
-42.9679
-43.4663
-43.9219
-44.315
-44.6237
-44.8265
-44.9038
-44.8403
-44.6254
-44.2538
-43.7246
-43.0405
-42.2063
-41.2276
-40.1101
-38.8591
-37.4812
-35.9864
-34.39
-32.7159
-30.9957
-29.2674
45.9995
46.5214
46.2635
45.3408
43.9038
42.1061
40.083
37.941
35.7554
33.5737
31.4208
29.3058
27.228
25.1815
23.1591
21.155
19.1656
17.1906
15.2319
13.2932
11.3785
9.49215
7.63749
5.81733
4.0338
2.28864
0.583464
-1.08017
-2.70088
-4.27787
-5.81131
-7.30282
-8.75554
-10.174
-11.5637
-12.9302
-14.2782
-15.6107
-16.9276
-18.2255
-19.4985
-20.7385
-21.9371
-23.0872
-24.1842
-25.2274
-26.2203
-27.171
-28.0904
-28.9914
-29.8864
-30.7861
-31.6968
-32.6194
-33.5488
-34.4748
-35.3838
-36.2614
-37.0949
-37.8751
-38.5983
-39.2673
-39.8903
-40.4803
-41.052
-41.6196
-42.194
-42.7797
-43.3727
-43.9598
-44.5194
-45.024
-45.443
-45.7461
-45.9068
-45.9045
-45.7266
-45.3681
-44.831
-44.1213
-43.2473
-42.2165
-41.0343
-39.7031
-38.2237
-36.6
-34.844
-32.9817
-31.0543
-29.1153
50.5779
51.03
50.411
48.94
46.875
44.4555
41.8725
39.2612
36.7046
34.2435
31.8884
29.6308
27.4526
25.3328
23.2524
21.1968
19.1581
17.1343
15.1278
13.1437
11.1876
9.26467
7.37874
5.53232
3.7269
1.9636
0.243817
-1.43052
-3.05718
-4.63434
-6.16153
-7.64048
-9.07557
-10.4736
-11.8431
-13.1933
-14.5326
-15.8666
-17.1959
-18.5158
-19.8161
-21.0836
-22.3043
-23.4656
-24.5592
-25.5825
-26.5405
-27.445
-28.3132
-29.165
-30.0205
-30.8972
-31.806
-32.749
-33.7182
-34.6967
-35.6624
-36.5919
-37.4644
-38.265
-38.9879
-39.6376
-40.2284
-40.7821
-41.3242
-41.8798
-42.4697
-43.1055
-43.7854
-44.4923
-45.1957
-45.8558
-46.4284
-46.8703
-47.1438
-47.2211
-47.0871
-46.7393
-46.1853
-45.4383
-44.5133
-43.4229
-42.1728
-40.76
-39.1737
-37.4035
-35.4509
-33.3408
-31.1294
-28.8982
56.8451
57.0798
55.7845
53.3934
50.3558
47.0393
43.702
40.5018
37.5155
34.7601
32.215
29.8408
27.5925
25.4272
23.3092
21.214
19.1289
17.0527
14.9913
12.9536
10.9487
8.98367
7.06289
5.18812
3.35924
1.57581
-0.161333
-1.84956
-3.48477
-5.06276
-6.58114
-8.04123
-9.44888
-10.8141
-12.1501
-13.472
-14.7946
-16.1288
-17.4778
-18.8339
-20.1805
-21.4958
-22.7565
-23.9413
-25.0349
-26.0315
-26.9374
-27.771
-28.559
-29.3327
-30.1239
-30.9614
-31.8653
-32.8406
-33.8739
-34.9366
-35.9926
-37.0039
-37.9368
-38.7665
-39.4825
-40.092
-40.6194
-41.1002
-41.5764
-42.0902
-42.6789
-43.3672
-44.1586
-45.0294
-45.9339
-46.8128
-47.6015
-48.2365
-48.6628
-48.8414
-48.7548
-48.4069
-47.8168
-47.0109
-46.0172
-44.8585
-43.5452
-42.0662
-40.3879
-38.4693
-36.284
-33.8453
-31.2326
-28.5829
65.6677
65.3317
62.7348
58.7766
54.2372
49.6517
45.3331
41.4335
37.9933
34.9732
32.2948
29.8691
27.6125
25.4527
23.333
21.2159
19.0864
16.9494
14.8201
12.716
10.6521
8.63871
6.68059
4.7777
2.92598
1.1213
-0.636978
-2.34498
-3.99474
-5.57699
-7.08462
-8.51741
-9.88317
-11.1965
-12.4773
-13.7496
-15.0395
-16.3695
-17.7491
-19.1654
-20.5899
-21.9864
-23.3176
-24.548
-25.65
-26.6105
-27.438
-28.1622
-28.8252
-29.4747
-30.1603
-30.9297
-31.8213
-32.8484
-33.9865
-35.1858
-36.3865
-37.5286
-38.5574
-39.4312
-40.1297
-40.6645
-41.0767
-41.4246
-41.7739
-42.1921
-42.7439
-43.48
-44.4168
-45.5173
-46.7083
-47.8993
-48.9953
-49.9025
-50.538
-50.8429
-50.798
-50.4228
-49.7584
-48.8535
-47.7579
-46.5162
-45.1555
-43.6591
-41.9476
-39.9185
-37.4814
-34.6
-31.3888
-28.1074
78.6517
76.8382
71.644
64.996
58.1845
51.8786
46.3599
41.7029
37.865
34.6938
32.0101
29.6535
27.4923
25.4199
23.3526
21.2353
19.0543
16.8348
14.6121
12.4203
10.2826
8.21388
6.2186
4.29344
2.42489
0.599882
-1.18506
-2.92428
-4.60193
-6.19859
-7.69582
-9.09003
-10.3928
-11.6256
-12.8166
-14.0019
-15.2262
-16.5385
-17.9674
-19.4849
-21.0391
-22.5709
-24.0235
-25.3392
-26.4687
-27.3806
-28.087
-28.6413
-29.1104
-29.5644
-30.0754
-30.7218
-31.5816
-32.6961
-34.0105
-35.4326
-36.8643
-38.2157
-39.4008
-40.3476
-41.0123
-41.4128
-41.626
-41.7463
-41.8717
-42.1013
-42.5429
-43.3032
-44.4389
-45.8745
-47.4819
-49.122
-50.6603
-51.9591
-52.8887
-53.3473
-53.3161
-52.8548
-52.0455
-50.9703
-49.7081
-48.3448
-46.9607
-45.561
-43.964
-41.9548
-39.3183
-35.829
-31.6456
-27.3392
99.0745
93.2112
82.6455
71.4496
61.4035
52.9715
46.1451
40.792
36.7762
33.7117
31.2537
29.1559
27.2437
25.3792
23.444
21.346
19.0771
16.7246
14.3594
12.0464
9.81361
7.68311
5.65551
3.72755
1.86101
0.0207311
-1.79902
-3.5922
-5.32572
-6.96329
-8.45528
-9.79419
-11.003
-12.1149
-13.1641
-14.1975
-15.2863
-16.5394
-18.0579
-19.7514
-21.5201
-23.2693
-24.926
-26.3983
-27.6003
-28.4462
-28.9547
-29.2426
-29.4168
-29.5718
-29.7949
-30.2063
-30.9748
-32.2554
-33.8791
-35.6649
-37.4575
-39.1418
-40.5866
-41.67
-42.2748
-42.4305
-42.3084
-42.0603
-41.819
-41.7045
-41.8826
-42.5854
-44.0283
-45.9838
-48.2081
-50.4906
-52.6698
-54.5467
-55.9168
-56.5566
-56.4531
-55.787
-54.715
-53.3559
-51.8035
-50.2026
-48.7877
-47.7468
-46.5733
-44.8939
-42.3826
-38.0574
-32.079
-25.958
134.446
116.355
94.5526
76.2456
62.2968
51.7509
43.8081
37.9543
34.3169
31.8554
29.9781
28.3906
26.9261
25.4396
23.7692
21.7023
19.2199
16.6323
14.0312
11.5565
9.1971
7.00395
4.94877
3.07306
1.25923
-0.588041
-2.45123
-4.34604
-6.18763
-7.93758
-9.43506
-10.6855
-11.7527
-12.6942
-13.534
-14.3132
-15.1095
-16.1578
-17.896
-19.9094
-22.0286
-24.1007
-26.0936
-27.8461
-29.2443
-29.9973
-30.1395
-30.0074
-29.7505
-29.4807
-29.2429
-29.1761
-29.6301
-31.3201
-33.5136
-35.8872
-38.206
-40.4124
-42.2923
-43.681
-44.1833
-43.8478
-43.1717
-42.3638
-41.5832
-40.886
-40.4661
-40.8012
-42.879
-45.7056
-48.8496
-52.0074
-55.1139
-57.8632
-59.9959
-60.8358
-60.3992
-59.3031
-57.7972
-56.0191
-53.968
-51.792
-50.0754
-50.1228
-49.9105
-49.0303
-48.0585
-42.6659
-32.7173
-23.1098
204.24
144.841
101.426
74.7646
58.2892
46.781
38.4622
31.9244
30.1637
29.1574
28.2846
27.4474
26.6398
25.7644
24.665
22.6564
19.5138
16.5593
13.5206
10.9004
8.34099
6.12597
3.98347
2.32939
0.70556
-1.17392
-3.05792
-5.17646
-7.18145
-9.2753
-10.7704
-11.8407
-12.6833
-13.4199
-13.9909
-14.404
-14.5696
-14.7826
-17.3377
-19.9147
-22.6048
-25.0458
-27.6068
-29.804
-31.8169
-32.4277
-31.7188
-30.9513
-30.1026
-29.343
-28.4443
-27.3955
-26.5051
-29.6594
-32.8884
-36.1878
-39.1157
-42.1529
-44.7046
-46.9681
-47.2976
-45.7551
-44.2242
-42.6276
-41.2268
-39.6678
-37.9617
-36.5072
-40.651
-44.9696
-49.4708
-53.5973
-58.0717
-62.0672
-65.9358
-66.9524
-65.2942
-63.4089
-61.2705
-59.0747
-56.3119
-52.7192
-48.8225
-52.8721
-54.2088
-53.2982
-60.0996
-53.8346
-32.864
-16.3961
364.658
150.307
84.1712
58.6154
47.1279
37.2177
30.5509
19.015
24.9236
26.2664
26.5394
26.4612
26.4504
26.4112
26.8697
25.2429
19.5362
16.6074
12.4069
10.1567
6.98869
5.1434
2.31473
1.54208
0.519971
-1.75332
-3.32683
-6.17036
-8.04721
-11.4751
-12.7173
-13.3235
-13.7664
-14.3836
-14.6751
-14.8512
-13.9609
-10.0346
-16.7478
-19.7565
-23.5395
-25.8179
-29.6434
-32.0268
-36.4079
-36.758
-33.3821
-32.0119
-30.3257
-29.4054
-27.8612
-25.3867
-17.5553
-27.8908
-32.1616
-37.0225
-39.8678
-44.5917
-47.5315
-53.0394
-53.1068
-47.6452
-45.3709
-42.6088
-41.0975
-38.6611
-35.0943
-24.1513
-38.1709
-43.97
-50.6308
-54.6859
-61.7181
-66.4533
-75.9819
-76.9198
-70.5153
-67.8786
-64.8255
-62.9462
-59.8502
-54.0834
-36.1262
-59.5273
-61.7428
-46.4599
-90.9556
-86.1784
-26.5266
0.683751
-28.112
-26.5892
-25.13
-23.7551
-22.4803
-21.3171
-20.2724
-19.3496
-18.5496
-17.8712
-17.312
-16.8692
-16.5401
-16.3221
-16.2136
-28.0727
-26.5252
-25.0454
-23.6546
-22.3686
-21.1983
-20.1501
-19.2266
-18.4278
-17.7517
-17.1954
-16.7554
-16.4287
-16.2125
-16.1049
-27.991
-26.3931
-24.8717
-23.4489
-22.1407
-20.9571
-19.9028
-18.9788
-18.1831
-17.5123
-16.9621
-16.5282
-16.2066
-15.994
-15.8884
-27.8607
-26.1844
-24.5989
-23.1283
-21.7881
-20.5864
-19.5251
-18.6023
-17.8132
-17.152
-16.6123
-16.1884
-15.8751
-15.6686
-15.566
-27.6712
-25.8844
-24.211
-22.677
-21.2968
-20.0748
-19.0087
-18.0918
-17.3153
-16.6699
-16.1467
-15.7378
-15.4368
-15.2389
-15.1408
-27.4062
-25.4708
-23.6833
-22.0717
-20.6469
-19.4071
-18.3429
-17.4407
-16.6862
-16.0654
-15.5664
-15.179
-14.8952
-14.7093
-14.6172
-27.0397
-24.9089
-22.9794
-21.2793
-19.8117
-18.5638
-17.5148
-16.6418
-15.9229
-15.339
-14.8744
-14.5164
-14.2557
-14.0855
-14.0015
-26.5306
-24.1455
-22.0459
-20.2541
-18.7565
-17.5212
-16.5105
-15.6886
-15.0245
-14.4932
-14.0754
-13.7564
-13.5255
-13.3754
-13.3015
-25.8103
-23.0964
-20.8042
-18.9343
-17.4389
-16.2538
-15.3173
-14.5773
-13.993
-13.5338
-13.1775
-12.9081
-12.7144
-12.589
-12.5274
-24.7572
-21.6252
-19.1399
-17.2399
-15.8106
-14.7377
-13.9274
-13.3101
-12.8361
-12.4714
-12.1925
-11.9838
-11.8347
-11.7387
-11.6916
-23.1417
-19.507
-16.8901
-15.0747
-13.8259
-12.9586
-12.3444
-11.8993
-11.57
-11.323
-11.1373
-10.9997
-10.902
-10.8392
-10.8085
-20.5036
-16.3709
-13.8386
-12.3425
-11.4595
-10.9263
-10.592
-10.3725
-10.2214
-10.1131
-10.0338
-9.97551
-9.93421
-9.90759
-9.89451
-15.8748
-11.6343
-9.75046
-8.99735
-8.74292
-8.69505
-8.72486
-8.77724
-8.82975
-8.87431
-8.90897
-8.93429
-8.95161
-8.96228
-8.96735
-7.1783
-4.54079
-4.53156
-5.15336
-5.8197
-6.38599
-6.835
-7.18172
-7.44598
-7.64525
-7.79342
-7.90096
-7.97554
-8.02248
-8.04514
10.004
5.18101
1.31843
-1.26478
-2.99645
-4.19413
-5.04734
-5.66858
-6.12708
-6.46722
-6.7184
-6.9005
-7.02701
-7.10685
-7.14548
-26.0819
-26.1499
-26.2921
-26.5217
-26.8613
-27.3477
-28.0406
-29.0409
-30.5305
-32.8743
-36.9203
-45.0704
-65.8079
-135.667
-436.793
-29.8524
-30.0011
-30.3112
-30.8109
-31.5489
-32.6048
-34.1096
-36.2847
-39.5247
-44.5827
-53.0153
-68.3037
-98.6109
-161.892
-278.547
-33.52
-33.7403
-34.1989
-34.9349
-36.0159
-37.5505
-39.7134
-42.7892
-47.2565
-53.9478
-64.3495
-81.1069
-108.515
-151.05
-201.311
-37.0349
-37.3142
-37.894
-38.8196
-40.168
-42.0601
-44.6833
-48.3275
-53.4442
-60.7364
-71.27
-86.5138
-107.914
-134.844
-158.976
-40.356
-40.6798
-41.3492
-42.411
-43.9426
-46.0621
-48.9444
-52.8434
-58.1212
-65.2739
-74.9195
-87.6452
-103.474
-120.579
-133.399
-43.4525
-43.8054
-44.5321
-45.6763
-47.309
-49.5345
-52.4995
-56.4019
-61.4962
-68.0801
-76.4299
-86.6219
-98.1459
-109.291
-116.724
-46.304
-46.6716
-47.4251
-48.6026
-50.2639
-52.4936
-55.4037
-59.1328
-63.8371
-69.66
-76.6609
-84.6735
-93.0813
-100.579
-105.211
-48.9005
-49.2699
-50.0238
-51.193
-52.8241
-54.9803
-57.7392
-61.1865
-65.4011
-70.422
-76.1891
-82.4504
-88.6486
-93.8571
-96.9144
-51.2406
-51.6013
-52.3344
-53.4626
-55.0198
-57.0485
-59.5965
-62.7075
-66.4053
-70.6657
-75.3742
-80.2709
-84.9031
-88.6288
-90.7407
-53.3303
-53.6743
-54.3705
-55.4345
-56.888
-58.7563
-61.0629
-63.821
-67.0187
-70.5984
-74.4284
-78.275
-81.7871
-84.5212
-86.0335
-55.1811
-55.5029
-56.1514
-57.1359
-58.4682
-60.1596
-62.2159
-64.6291
-67.3669
-70.3571
-73.4712
-76.5114
-79.2111
-81.2618
-82.3763
-56.8086
-57.1046
-57.699
-58.5959
-59.7992
-61.3097
-63.1209
-65.2119
-67.5399
-70.0297
-72.5651
-74.9842
-77.0858
-78.6525
-79.493
-58.2307
-58.4992
-59.0366
-59.8431
-60.9167
-62.2511
-63.8315
-65.6302
-67.6005
-69.6706
-71.7398
-73.6775
-75.3319
-76.5474
-77.1932
-59.4663
-59.707
-60.1875
-60.9049
-61.8533
-63.0216
-64.3906
-65.9294
-67.5917
-69.3123
-71.0056
-72.5675
-73.8826
-74.838
-75.3418
-60.5347
-60.7485
-61.1739
-61.8063
-62.6372
-63.6528
-64.8317
-66.1428
-67.5423
-68.9728
-70.3627
-71.6288
-72.6831
-73.4422
-73.8401
-61.4548
-61.643
-62.0166
-62.5699
-63.2929
-64.1706
-65.1812
-66.2947
-67.4715
-68.6616
-69.8056
-70.8373
-71.6886
-72.2972
-72.6147
-62.2442
-62.4087
-62.7346
-63.2156
-63.8411
-64.596
-65.4592
-66.4028
-67.3914
-68.3824
-69.3265
-70.1709
-70.8626
-71.3542
-71.6098
-62.9194
-63.0624
-63.345
-63.7609
-64.2996
-64.9463
-65.6814
-66.4795
-67.3097
-68.1356
-68.9168
-69.6105
-70.1755
-70.5751
-70.7823
-63.4955
-63.619
-63.8629
-64.2209
-64.683
-65.2353
-65.8598
-66.534
-67.2309
-67.92
-68.5676
-69.1396
-69.6031
-69.9297
-70.0986
-63.9857
-64.092
-64.3017
-64.6087
-65.0038
-65.4742
-66.0037
-66.5726
-67.1577
-67.733
-68.2711
-68.744
-69.1257
-69.3938
-69.5322
-64.4021
-64.4933
-64.6729
-64.9354
-65.2722
-65.672
-66.1204
-66.6
-67.0912
-67.572
-68.0198
-68.4118
-68.7271
-68.9481
-69.0619
-64.7552
-64.8332
-64.9866
-65.2104
-65.4969
-65.8361
-66.2152
-66.6194
-67.0318
-67.434
-67.8071
-68.1328
-68.394
-68.5767
-68.6707
-65.0542
-65.1207
-65.2514
-65.4418
-65.6851
-65.9724
-66.2928
-66.6332
-66.9794
-67.3161
-67.6275
-67.8985
-68.1154
-68.2668
-68.3447
-65.307
-65.3636
-65.4747
-65.6364
-65.8427
-66.0859
-66.3563
-66.643
-66.9337
-67.2157
-67.4759
-67.7018
-67.8823
-68.0081
-68.0727
-65.5206
-65.5687
-65.663
-65.8001
-65.9748
-66.1804
-66.4085
-66.6499
-66.8941
-67.1305
-67.3481
-67.5367
-67.6871
-67.7919
-67.8456
-65.7008
-65.7416
-65.8215
-65.9377
-66.0855
-66.2591
-66.4516
-66.6548
-66.86
-67.0583
-67.2405
-67.3981
-67.5237
-67.611
-67.6558
-65.8527
-65.8872
-65.955
-66.0533
-66.1783
-66.3249
-66.4872
-66.6582
-66.8308
-66.9972
-67.1499
-67.2818
-67.3868
-67.4597
-67.4971
-65.9806
-66.0099
-66.0672
-66.1504
-66.256
-66.3798
-66.5166
-66.6607
-66.8058
-66.9456
-67.0736
-67.1842
-67.2721
-67.3331
-67.3644
-66.0882
-66.113
-66.1615
-66.2318
-66.3211
-66.4256
-66.541
-66.6624
-66.7846
-66.902
-67.0096
-67.1024
-67.176
-67.2272
-67.2534
-66.1787
-66.1996
-66.2407
-66.3002
-66.3756
-66.4639
-66.5613
-66.6637
-66.7665
-66.8654
-66.9559
-67.0338
-67.0957
-67.1386
-67.1605
-66.2545
-66.2723
-66.3071
-66.3574
-66.4212
-66.4959
-66.5781
-66.6645
-66.7513
-66.8346
-66.9108
-66.9764
-67.0284
-67.0645
-67.0829
-66.3181
-66.3331
-66.3626
-66.4053
-66.4593
-66.5225
-66.5921
-66.6652
-66.7385
-66.8088
-66.8731
-66.9284
-66.9722
-67.0026
-67.0182
-66.3712
-66.384
-66.409
-66.4452
-66.4911
-66.5447
-66.6037
-66.6656
-66.7277
-66.7872
-66.8416
-66.8883
-66.9254
-66.9511
-66.9642
-66.4154
-66.4263
-66.4476
-66.4785
-66.5175
-66.5631
-66.6133
-66.6659
-66.7187
-66.7692
-66.8153
-66.855
-66.8865
-66.9082
-66.9194
-66.4521
-66.4614
-66.4796
-66.506
-66.5394
-66.5783
-66.6212
-66.6661
-66.7111
-66.7543
-66.7936
-66.8274
-66.8542
-66.8728
-66.8823
-66.4823
-66.4903
-66.506
-66.5287
-66.5574
-66.5909
-66.6277
-66.6663
-66.7049
-66.742
-66.7757
-66.8047
-66.8277
-66.8436
-66.8518
-66.507
-66.5139
-66.5275
-66.5472
-66.572
-66.6011
-66.633
-66.6664
-66.6999
-66.7319
-66.7611
-66.7862
-66.8061
-66.8198
-66.8269
-66.5268
-66.5329
-66.5448
-66.562
-66.5838
-66.6093
-66.6372
-66.6665
-66.6958
-66.7238
-66.7494
-66.7713
-66.7887
-66.8007
-66.8069
-66.5424
-66.5478
-66.5584
-66.5737
-66.5931
-66.6157
-66.6405
-66.6665
-66.6925
-66.7174
-66.7401
-66.7596
-66.7751
-66.7857
-66.7912
-66.5543
-66.5592
-66.5687
-66.5826
-66.6001
-66.6206
-66.6431
-66.6666
-66.6901
-66.7126
-66.7331
-66.7507
-66.7647
-66.7743
-66.7793
-66.5627
-66.5672
-66.5761
-66.5889
-66.6052
-66.6241
-66.6448
-66.6666
-66.6883
-66.7092
-66.7281
-66.7444
-66.7573
-66.7662
-66.7708
-66.568
-66.5723
-66.5807
-66.5929
-66.6083
-66.6262
-66.646
-66.6666
-66.6872
-66.707
-66.725
-66.7404
-66.7527
-66.7611
-66.7655
-66.5703
-66.5745
-66.5827
-66.5946
-66.6097
-66.6272
-66.6465
-66.6666
-66.6868
-66.7061
-66.7236
-66.7387
-66.7506
-66.7589
-66.7631
-66.5697
-66.5739
-66.5822
-66.5942
-66.6093
-66.627
-66.6463
-66.6666
-66.6869
-66.7063
-66.724
-66.7392
-66.7512
-66.7595
-66.7637
-66.5662
-66.5705
-66.5791
-66.5915
-66.6072
-66.6255
-66.6456
-66.6666
-66.6876
-66.7078
-66.7261
-66.7418
-66.7543
-66.7629
-66.7673
-66.5596
-66.5642
-66.5734
-66.5866
-66.6033
-66.6228
-66.6442
-66.6666
-66.689
-66.7104
-66.73
-66.7468
-66.76
-66.7692
-66.7739
-66.5497
-66.5548
-66.5648
-66.5792
-66.5975
-66.6187
-66.6421
-66.6666
-66.691
-66.7145
-66.7358
-66.7541
-66.7686
-66.7787
-66.7838
-66.5364
-66.542
-66.5531
-66.5692
-66.5895
-66.6132
-66.6393
-66.6665
-66.6938
-66.7199
-66.7437
-66.7641
-66.7803
-66.7915
-66.7972
-66.519
-66.5255
-66.5381
-66.5562
-66.5793
-66.6061
-66.6356
-66.6665
-66.6974
-66.727
-66.754
-66.7771
-66.7955
-66.8082
-66.8146
-66.4973
-66.5046
-66.5191
-66.5399
-66.5663
-66.5971
-66.631
-66.6664
-66.7019
-66.7359
-66.7669
-66.7935
-66.8145
-66.8291
-66.8366
-66.4704
-66.4789
-66.4956
-66.5198
-66.5503
-66.586
-66.6252
-66.6663
-66.7074
-66.7469
-66.7828
-66.8136
-66.8381
-66.855
-66.8637
-66.4375
-66.4475
-66.467
-66.4951
-66.5308
-66.5724
-66.6182
-66.6662
-66.7142
-66.7602
-66.8022
-66.8383
-66.8669
-66.8867
-66.8968
-66.3978
-66.4095
-66.4323
-66.4653
-66.5071
-66.556
-66.6097
-66.666
-66.7224
-66.7764
-66.8258
-66.8682
-66.9017
-66.925
-66.9369
-66.35
-66.3637
-66.3906
-66.4294
-66.4786
-66.5361
-66.5993
-66.6657
-66.7322
-66.7959
-66.8541
-66.9041
-66.9438
-66.9713
-66.9853
-66.2926
-66.3088
-66.3405
-66.3863
-66.4444
-66.5122
-66.5869
-66.6653
-66.7439
-66.8192
-66.8881
-66.9473
-66.9943
-67.0268
-67.0435
-66.2241
-66.2432
-66.2806
-66.3347
-66.4033
-66.4835
-66.5719
-66.6647
-66.7578
-66.8471
-66.9288
-66.9991
-67.0548
-67.0934
-67.1132
-66.1422
-66.1648
-66.209
-66.273
-66.3542
-66.4492
-66.5539
-66.6638
-66.7743
-66.8804
-66.9774
-67.0609
-67.1271
-67.1731
-67.1966
-66.0447
-66.0714
-66.1237
-66.1995
-66.2956
-66.4081
-66.5322
-66.6627
-66.7938
-66.9199
-67.0353
-67.1347
-67.2136
-67.2684
-67.2964
-65.9287
-65.9603
-66.0221
-66.1118
-66.2256
-66.3589
-66.5061
-66.661
-66.8169
-66.9669
-67.1043
-67.2227
-67.3168
-67.3822
-67.4156
-65.7908
-65.8281
-65.9012
-66.0073
-66.1421
-66.3001
-66.4747
-66.6587
-66.8441
-67.0226
-67.1864
-67.3277
-67.4401
-67.5181
-67.5581
-65.6269
-65.671
-65.7574
-65.8829
-66.0424
-66.2296
-66.4369
-66.6555
-66.876
-67.0887
-67.284
-67.4528
-67.5871
-67.6805
-67.7283
-65.4325
-65.4845
-65.5866
-65.7348
-65.9236
-66.1453
-66.3912
-66.6509
-66.9133
-67.1669
-67.4
-67.6018
-67.7626
-67.8744
-67.9318
-65.2019
-65.2633
-65.3836
-65.5587
-65.7817
-66.0443
-66.3358
-66.6444
-66.9568
-67.2592
-67.5378
-67.7793
-67.972
-68.1062
-68.1751
-64.9288
-65.001
-65.1428
-65.3492
-65.6125
-65.9231
-66.2686
-66.6352
-67.0071
-67.3681
-67.7013
-67.9907
-68.222
-68.3833
-68.4662
-64.6056
-64.6904
-64.8571
-65.1
-65.4106
-65.7776
-66.1869
-66.6222
-67.0652
-67.4962
-67.8952
-68.2425
-68.5207
-68.7149
-68.8148
-64.2236
-64.3229
-64.5185
-64.8039
-65.1696
-65.6027
-66.0871
-66.6039
-67.1316
-67.6466
-68.1248
-68.5424
-68.8776
-69.1121
-69.2327
-63.7725
-63.8887
-64.1175
-64.4521
-64.8818
-65.3921
-65.9648
-66.5781
-67.2066
-67.8226
-68.3966
-68.8995
-69.3044
-69.5882
-69.7345
-63.2408
-63.3762
-63.6432
-64.0343
-64.5379
-65.1381
-65.8144
-66.5417
-67.2905
-68.0276
-68.7177
-69.3248
-69.8151
-70.1598
-70.3378
-62.6151
-62.7722
-63.0826
-63.5383
-64.127
-64.8314
-65.6286
-66.4904
-67.3824
-68.2654
-69.0964
-69.8311
-70.427
-70.8473
-71.0647
-61.8804
-62.0619
-62.4212
-62.9501
-63.6358
-64.4601
-65.3981
-66.418
-67.4806
-68.5393
-69.542
-70.4338
-71.1607
-71.6755
-71.9425
-61.0196
-61.2283
-61.642
-62.253
-63.0485
-64.0098
-65.1107
-66.3161
-67.5814
-68.852
-70.0646
-71.1508
-72.0419
-72.6758
-73.0056
-60.0139
-60.2523
-60.7258
-61.4277
-62.346
-63.4626
-64.7506
-66.1726
-67.6786
-69.2048
-70.6751
-72.0034
-73.1014
-73.8873
-74.2977
-58.8427
-59.113
-59.6512
-60.4521
-61.506
-62.7964
-64.2976
-65.9709
-67.7616
-69.5966
-71.3839
-73.016
-74.3777
-75.3596
-75.8748
-57.484
-57.7877
-58.3942
-59.3009
-60.5016
-61.9839
-63.725
-65.6876
-67.8139
-70.0215
-72.2006
-74.2163
-75.9176
-77.1559
-77.8095
-55.9143
-56.2521
-56.9288
-57.9456
-59.3018
-60.9916
-62.9987
-65.2905
-67.8097
-70.4661
-73.1308
-75.6347
-77.7789
-79.358
-80.1982
-54.1103
-54.4813
-55.2272
-56.3546
-57.8705
-59.7789
-62.0748
-64.7356
-67.7101
-70.9051
-74.1726
-77.303
-80.0325
-82.0733
-83.1702
-52.0486
-52.4503
-53.2609
-54.4938
-56.1666
-58.2973
-60.8975
-63.9629
-67.4574
-71.2936
-75.3094
-79.2497
-82.7643
-85.4439
-86.9037
-49.708
-50.1354
-51.0014
-52.3277
-54.1449
-56.4895
-59.3973
-62.8922
-66.9675
-71.5572
-76.4987
-81.4917
-86.076
-89.6614
-91.6509
-47.0708
-47.5162
-48.4224
-49.8207
-51.757
-54.2907
-57.4894
-61.4185
-66.1203
-71.5766
-77.6521
-84.0175
-90.0811
-94.9871
-97.7796
-44.1245
-44.5769
-45.5019
-46.9401
-48.9544
-51.6302
-55.0744
-59.4084
-64.7489
-71.1661
-78.6039
-86.7528
-94.8901
-101.78
-105.847
-40.8641
-41.3098
-42.2251
-43.6597
-45.6925
-48.4361
-52.0414
-56.6993
-62.63
-70.0468
-79.0619
-89.4961
-100.565
-110.533
-116.739
-37.2944
-37.7166
-38.5878
-39.9641
-41.9372
-44.6437
-48.2777
-53.1062
-59.4791
-67.8174
-78.5343
-91.7984
-107.004
-121.899
-131.94
-33.4317
-33.812
-34.6
-35.8543
-37.6729
-40.2073
-43.6847
-48.4408
-54.9634
-63.9363
-76.2377
-92.7524
-113.658
-136.635
-154.113
-29.3052
-29.6244
-30.2885
-31.3527
-32.9116
-35.1161
-38.2038
-42.5488
-48.7463
-57.7438
-71.0152
-90.6569
-118.873
-155.189
-188.424
-24.9572
-25.1977
-25.6995
-26.5079
-27.7021
-29.412
-31.8499
-35.3705
-40.5847
-48.5836
-61.3689
-82.6067
-118.463
-175.883
-245.813
-20.4426
-20.5899
-20.8977
-21.3955
-22.1349
-23.2025
-24.7445
-27.0163
-30.4896
-36.0996
-45.8529
-64.4045
-103.078
-187.889
-351.763
-15.826
-15.8708
-15.9644
-16.1155
-16.3399
-16.6639
-17.1326
-17.8279
-18.9112
-20.7386
-24.2271
-32.229
-55.6519
-144.99
-571.511
-11.1787
-11.1182
-10.9914
-10.7851
-10.4762
-10.025
-9.3636
-8.37067
-6.81649
-4.22437
0.532644
10.6555
37.5485
132.064
564.27
-6.57385
-6.41214
-6.0739
-5.52636
-4.71168
-3.53266
-1.82529
0.696322
4.55691
10.7859
21.5657
41.8934
83.7877
174.609
348.481
-2.08169
-1.82907
-1.30216
-0.453525
0.799425
2.59236
5.14703
8.83286
14.2849
22.6355
35.9677
58.1537
96.0486
159.478
253.447
32.3983
13.2122
5.50817
1.51921
-0.897949
-2.50062
-3.62125
-4.43066
-5.02652
-5.46882
-5.7962
-6.03429
-6.20022
-6.30523
-6.35612
20.4799
12.5395
6.73706
2.95856
0.444181
-1.29582
-2.54088
-3.45353
-4.13262
-4.64095
-5.0198
-5.29688
-5.49085
-5.614
-5.67381
14.0754
10.382
6.56038
3.52003
1.24854
-0.434698
-1.69134
-2.63856
-3.35725
-3.90295
-4.31404
-4.61715
-4.83062
-4.96672
-5.03297
10.2356
8.31344
5.8411
3.54754
1.64438
0.130175
-1.05666
-1.98228
-2.70199
-3.25839
-3.68322
-3.99961
-4.22407
-4.36789
-4.43811
7.73055
6.62689
4.99764
3.30389
1.77011
0.467707
-0.603381
-1.46897
-2.1601
-2.70519
-3.12768
-3.44588
-3.67349
-3.82013
-3.89196
5.99187
5.30529
4.19891
2.94912
1.73516
0.644595
-0.292802
-1.0768
-1.71962
-2.23709
-2.64452
-2.95505
-3.17909
-3.3243
-3.39567
4.72994
4.27515
3.49975
2.56943
1.6145
0.71511
-0.0887484
-0.782657
-1.36618
-1.84539
-2.22864
-2.52425
-2.73941
-2.87971
-2.94891
3.7838
3.46763
2.90814
2.20682
1.45525
0.719278
0.0389517
-0.565167
-1.08515
-1.52032
-1.87361
-2.14929
-2.35169
-2.48446
-2.55019
3.05719
2.82904
2.41501
1.87907
1.28517
0.684795
0.113729
-0.4061
-0.863017
-1.2521
-1.57244
-1.82519
-2.0123
-2.13576
-2.19708
2.48898
2.31952
2.0065
1.59156
1.11957
0.629954
0.152924
-0.290717
-0.687979
-1.03161
-1.31821
-1.54666
-1.71711
-1.83019
-1.88653
2.03843
1.90966
1.66877
1.34365
0.966194
0.566367
0.168929
-0.207539
-0.550175
-0.850729
-1.10433
-1.30839
-1.46174
-1.56399
-1.6151
1.67729
1.57766
1.38951
1.13207
0.828349
0.501117
0.170372
-0.147854
-0.441591
-0.702443
-0.924848
-1.10533
-1.24185
-1.3333
-1.37914
1.38532
1.30711
1.15834
0.952637
0.706819
0.438301
0.163118
-0.105172
-0.35584
-0.58085
-0.77447
-0.932786
-1.05325
-1.13428
-1.175
1.14767
1.08553