/*--------------------------------*- C++ -*----------------------------------*\
| =========                 |                                                 |
| \\      /  F ield         | OpenFOAM: The Open Source CFD Toolbox           |
|  \\    /   O peration     | Version:  5.x                                   |
|   \\  /    A nd           | Web:      www.OpenFOAM.org                      |
|    \\/     M anipulation  |                                                 |
\*---------------------------------------------------------------------------*/
FoamFile
{
    version     2.0;
    format      ascii;
    class       volScalarField;
    location    "3.5";
    object      gradTy;
}
// * * * * * * * * * * * * * * * * * * * * * * * * * * * * * * * * * * * * * //

dimensions      [0 -1 0 1 0 0 0];

internalField   nonuniform List<scalar> 
6300
(
1098.81
1296.92
1496.45
1698.33
1903.42
2112.51
2326.28
2545.26
2769.82
3000.07
3235.89
3476.86
3722.23
3970.98
4221.77
-0.71723
-2.13709
-3.51194
-4.80802
-5.98626
-7.00098
-7.79968
-8.32421
-8.5142
-8.31278
-7.67492
-6.57737
-5.02856
-3.07545
-0.804003
-1.21164
-3.61188
-5.9409
-8.1445
-10.159
-11.9085
-13.3041
-14.2453
-14.6248
-14.3388
-13.3012
-11.4624
-8.82892
-5.47844
-1.56303
-1.72912
-5.15789
-8.49521
-11.67
-14.5965
-17.1698
-19.2629
-20.7277
-21.4007
-21.1162
-19.7284
-17.1418
-13.346
-8.44613
-2.67391
-2.27603
-6.79531
-11.212
-15.4437
-19.3873
-22.9111
-25.8498
-28.0018
-29.1339
-28.9968
-27.3544
-24.0302
-18.9671
-12.2861
-4.31849
-2.85571
-8.53523
-14.1137
-19.5055
-24.5975
-29.2374
-33.2232
-36.2953
-38.136
-38.3824
-36.6617
-32.6571
-26.2058
-17.4121
-6.73106
-3.46727
-10.3762
-17.2019
-23.8669
-30.2596
-36.2176
-41.5101
-45.82
-48.7321
-49.7346
-48.2525
-43.7305
-35.7865
-24.425
-10.2407
-4.10442
-12.3003
-20.4506
-28.5004
-36.3561
-43.8631
-50.7791
-56.7422
-61.2371
-63.5711
-62.8825
-58.2253
-48.7843
-34.2604
-15.3493
-4.75444
-14.2701
-23.7994
-33.3278
-42.801
-52.0991
-61.0006
-69.132
-75.9026
-80.4293
-81.4806
-77.5033
-66.8646
-48.4826
-22.9013
-5.39764
-16.2261
-27.1489
-38.2102
-49.4207
-60.7313
-71.9915
-82.8821
-92.8112
-100.762
-105.106
-103.442
-92.6877
-69.9036
-34.4954
-6.00762
-18.0876
-30.3596
-42.9432
-55.9399
-69.4134
-83.3513
-97.5931
-111.697
-124.702
-134.74
-138.47
-130.54
-103.949
-53.643
-6.55283
-19.7569
-33.2586
-47.2628
-61.9818
-77.6304
-94.4066
-112.442
-131.68
-151.608
-170.681
-185.156
-187.053
-161.707
-89.6253
-6.99955
-21.1286
-35.6547
-50.8671
-67.0937
-84.7191
-104.202
-126.086
-150.971
-179.369
-211.217
-244.418
-270.806
-266.2
-172.588
-7.31626
-22.103
-37.3642
-53.4568
-70.8063
-89.9492
-111.596
-136.73
-166.747
-203.677
-250.4
-310.493
-385.552
-459.694
-421.231
-7.47869
-22.6029
-38.2419
-54.7893
-72.7249
-92.6742
-115.504
-142.487
-175.611
-218.19
-276.212
-361.597
-501.213
-765.79
-1379.16
4452.15
4660.88
4867.93
5072.32
5273.1
5469.42
5660.48
5845.6
6024.16
6195.68
6359.71
6515.92
6664.01
6803.76
6935
7057.58
7171.43
7276.49
7372.74
7460.21
7538.94
7609.02
7670.55
7723.67
7768.53
7805.31
7834.2
7855.39
7869.08
7875.5
7874.85
7867.35
7853.2
7832.63
7805.82
7772.98
7734.3
7689.97
7640.17
7585.08
7524.89
7459.75
7389.86
7315.36
7236.44
7153.25
7065.95
6974.67
6879.55
6780.73
6678.31
6572.42
6463.15
6350.62
6234.92
6116.16
5994.44
5869.87
5742.57
5612.64
5480.21
5345.4
5208.32
5069.11
4927.87
4784.74
4639.86
4493.35
4345.39
4196.15
4045.83
3894.65
3742.86
3590.76
3438.64
3286.84
3135.72
2985.66
2837.03
2690.24
2545.67
2403.72
2264.75
2129.13
1997.18
1869.21
1745.45
1626.13
1511.37
1401.27
1.4625
3.57802
5.67286
7.67981
9.54568
11.2342
12.726
14.0168
15.1138
16.0316
16.7887
17.4042
17.8956
18.2775
18.5614
18.7556
18.8665
18.8988
18.8569
18.7453
18.5688
18.3331
18.0447
17.7104
17.3375
16.9333
16.505
16.0596
15.6035
15.1425
14.6817
14.2254
13.7769
13.3382
12.9105
12.4938
12.0874
11.6901
11.3003
10.917
10.5394
10.1678
9.80349
9.44837
9.10504
8.77621
8.46426
8.17074
7.89602
7.63904
7.39734
7.16726
6.94435
6.72398
6.50193
6.27491
6.041
5.79967
5.55166
5.29856
5.04211
4.7835
4.52268
4.25778
3.9848
3.69764
3.3884
3.04808
2.66745
2.23802
1.75304
1.20827
0.602482
-0.0623776
-0.781352
-1.54688
-2.34935
-3.17771
-4.01988
-4.86313
-5.69406
-6.49858
-7.26167
-7.9673
-8.59856
-9.13832
-9.57021
-9.88022
-10.0583
-10.0996
2.34901
5.99541
9.59386
13.0236
16.1914
19.0365
21.5301
23.6702
25.4751
26.9754
28.2069
29.2049
30.0005
30.6187
31.0781
31.3918
31.5687
31.6157
31.5387
31.3446
31.0414
30.6384
30.1466
29.5779
28.9447
28.2595
27.5347
26.782
26.0125
25.236
24.4612
23.6956
22.9445
22.2116
21.4986
20.8053
20.1301
19.4701
18.8224
18.1844
17.5547
16.9336
16.3232
15.7272
15.1507
14.5989
14.0765
13.5868
13.1306
12.7062
12.3092
11.9328
11.5687
11.2081
10.8433
10.468
10.079
9.67562
9.25984
8.83527
8.40599
7.97513
7.54346
7.10836
6.66316
6.19714
5.69612
5.14366
4.52279
3.81784
3.01632
2.11035
1.09764
-0.0183288
-1.22864
-2.51981
-3.87491
-5.27473
-6.69871
-8.12548
-9.5329
-10.8978
-12.1952
-13.3981
-14.4776
-15.4032
-16.1453
-16.678
-16.9823
-17.0489
3.10651
8.48255
13.7586
18.7453
23.3027
27.3462
30.8441
33.8073
36.2762
38.3076
39.9626
41.2982
42.362
43.1897
43.806
44.2262
44.4595
44.5123
44.3907
44.1027
43.659
43.0731
42.3609
41.5398
40.6282
39.6444
38.6061
37.5304
36.4331
35.3285
34.2294
33.1464
32.0876
31.0581
30.0601
29.0927
28.1524
27.2342
26.3322
25.4416
24.5594
23.6857
22.8237
21.9798
21.1625
20.3809
19.6435
18.9561
18.321
17.7356
17.1931
16.6823
16.1895
15.7001
15.2011
14.6825
14.1392
13.571
12.9822
12.3802
11.7736
11.1693
10.5706
9.97484
9.37285
8.74837
8.07917
7.33902
6.50044
5.53794
4.43116
3.1673
1.74262
0.162661
-1.55845
-3.39966
-5.33506
-7.33599
-9.37259
-11.4148
-13.4322
-15.3932
-17.2638
-19.0061
-20.5774
-21.9315
-23.0213
-23.8041
-24.2479
-24.3366
3.68954
11.1136
18.3399
25.0854
31.1537
36.4415
40.9282
44.6562
47.7076
50.1819
52.1783
53.7831
55.0635
56.0655
56.8166
57.33
57.6105
57.6602
57.4825
57.0853
56.4818
55.6901
54.7322
53.6325
52.4161
51.1079
49.7318
48.3103
46.8645
45.4136
43.9748
42.5629
41.1888
39.8597
38.5779
37.3413
36.1436
34.9753
33.8262
32.6872
31.5524
30.4213
29.2987
28.1947
27.1232
26.0999
25.1389
24.2508
23.4401
22.7039
22.0318
21.4064
20.8057
20.2065
19.5875
18.9332
18.2358
17.4964
16.7238
15.9324
15.1383
14.356
13.5937
12.8507
12.1153
11.3644
10.5648
9.67652
8.65691
7.46619
6.07258
4.45626
2.61159
0.547332
-1.71487
-4.14342
-6.70043
-9.3454
-12.038
-14.7394
-17.4121
-20.0183
-22.5169
-24.8598
-26.9897
-28.84
-30.3388
-31.4181
-32.0243
-32.1301
4.06571
14.03
23.614
32.4012
40.1294
46.6909
52.1053
56.4801
59.9707
62.7453
64.9588
66.7363
68.1668
69.3037
70.1704
70.77
71.095
71.1366
70.8916
70.3663
69.5768
68.5476
67.309
65.8945
64.3376
62.6707
60.9244
59.1268
57.3046
55.4825
53.6832
51.9263
50.2269
48.5946
47.0323
45.5357
44.0938
42.6904
41.3073
39.9281
38.5419
37.1463
35.7484
34.3642
33.0164
31.7305
30.5308
29.4355
28.4534
27.5816
26.8047
26.0962
25.4214
24.7428
24.0263
23.2472
22.3942
21.4709
20.494
19.4895
18.4875
17.5151
16.5903
15.717
14.8814
14.0516
13.1793
12.2042
11.0609
9.6877
8.03577
6.07509
3.79779
1.21806
-1.63074
-4.70117
-7.93814
-11.2853
-14.6897
-18.1042
-21.4868
-24.7976
-27.9931
-31.0192
-33.8037
-36.2535
-38.2598
-39.7123
-40.5205
-40.6365
4.22749
17.4939
30.0357
41.2419
50.7848
58.5918
64.7791
69.5769
73.2645
76.1166
78.3668
80.189
81.693
82.9307
83.9088
84.6055
84.9875
85.0254
84.7043
84.0277
83.0168
81.7065
80.1394
78.3615
76.4174
74.3482
72.1907
69.979
67.7448
65.5189
63.3309
61.207
59.1685
57.229
55.3924
53.6516
51.9887
50.3765
48.7833
47.1795
45.5452
43.8748
42.1787
40.4818
38.8207
37.2375
35.7727
34.4575
33.3084
32.323
31.4796
30.7377
30.0429
29.3341
28.5555
27.6678
26.6542
25.523
24.3041
23.0435
21.7942
20.6057
19.5131
18.5291
17.6391
16.8001
15.9421
14.9744
13.7959
12.3107
10.4437
8.15
5.41969
2.27644
-1.22723
-5.01886
-9.01689
-13.1423
-17.3265
-21.5145
-25.6644
-29.7422
-33.7128
-37.526
-41.0989
-44.3048
-46.9776
-48.9336
-50.0128
-50.1285
4.22595
22.0013
38.3803
52.4775
63.9393
72.8244
79.4524
84.2712
87.7599
90.3529
92.3896
94.0986
95.6011
96.9298
98.0507
98.8927
99.3737
99.4295
99.027
98.1686
96.8864
95.2331
93.2716
91.0662
88.6758
86.1509
83.5337
80.8617
78.1712
75.4994
72.8844
70.3631
67.9661
65.7137
63.6128
61.6538
59.809
58.0339
56.2729
54.4732
52.5991
50.6391
48.6085
46.5464
44.5115
42.5726
40.7976
39.2391
37.926
36.8585
36.0066
35.3102
34.683
34.0243
33.2405
32.268
31.0822
29.6999
28.1727
26.5796
25.0118
23.5567
22.278
21.2044
20.322
19.5744
18.8614
18.0467
16.971
15.4822
13.4646
10.8522
7.63486
3.85255
-0.410268
-5.04046
-9.91322
-14.9157
-19.9584
-24.9805
-29.9463
-34.8415
-39.6594
-44.3789
-48.9227
-53.1238
-56.7274
-59.4169
-60.8921
-60.9888
4.25351
28.5192
50.0099
67.5073
80.8033
90.3058
96.7293
100.879
103.543
105.388
106.881
108.303
109.757
111.225
112.591
113.696
114.369
114.49
114.003
112.916
111.287
109.2
106.751
104.033
101.125
98.083
94.9519
91.7677
88.5672
85.3945
82.2996
79.337
76.5518
73.9771
71.6254
69.4882
67.5257
65.6677
63.8148
61.8705
59.7733
57.5018
55.0804
52.5683
50.0607
47.6685
45.5076
43.6638
42.1868
41.0801
40.3068
39.7795
39.3654
38.8912
38.194
37.1722
35.79
34.082
32.1329
30.0762
28.0638
26.2504
24.7445
23.601
22.8077
22.2953
21.9242
21.4915
20.7378
19.4122
17.3387
14.4227
10.6606
6.1178
0.933028
-4.71531
-10.6251
-16.6336
-22.6219
-28.5294
-34.3316
-40.0535
-45.7489
-51.4859
-57.2405
-62.8037
-67.7936
-71.649
-73.7565
-73.7904
4.88632
39.0325
67.3888
88.5863
103.129
112.221
117.28
119.624
120.505
120.927
121.476
122.458
123.89
125.665
127.507
129.12
130.157
130.426
129.839
128.444
126.344
123.687
120.617
117.274
113.763
110.142
106.445
102.696
98.9216
95.1758
91.523
88.0537
84.8327
81.9177
79.3278
77.0694
75.0905
73.2925
71.4871
69.4866
67.1972
64.5788
61.6814
58.5824
55.4424
52.4298
49.7598
47.5586
45.9133
44.82
44.2512
44.0844
44.1329
44.0779
43.6133
42.594
40.9655
38.8099
36.2466
33.5074
30.8276
28.4999
26.6874
25.4918
24.8873
24.8114
25.0739
25.397
25.3264
24.4176
22.4245
19.2102
14.8094
9.30617
2.9427
-4.01475
-11.1956
-18.3815
-25.4024
-32.2303
-38.8332
-45.3039
-51.7787
-58.5674
-65.8338
-73.3087
-80.4932
-86.3973
-89.606
-89.4513
7.90273
57.8831
95.0762
119.247
133.304
139.941
141.744
140.476
138.128
136.284
135.45
135.967
137.529
140.01
142.756
145.374
147.055
147.596
146.84
144.991
142.207
138.769
134.88
130.76
126.56
122.316
118.016
113.663
109.239
104.826
100.486
96.4163
92.6767
89.3938
86.5563
84.2516
82.3985
80.9314
79.444
77.5226
75.0983
72.0614
68.5763
64.6593
60.6443
56.7016
53.3406
50.6567
48.8484
47.8084
47.6203
48.0827
49.0532
49.8578
49.8349
48.8964
46.9033
44.1284
40.6168
36.8562
33.0878
30.0108
27.7449
26.5344
26.2086
26.8431
28.1394
29.872
31.1249
30.9873
29.2715
25.709
20.5482
13.7361
5.81048
-2.9896
-11.7562
-20.3643
-28.4577
-36.2527
-43.5221
-50.5455
-57.3536
-64.9582
-74.124
-84.2292
-95.0337
-105.024
-110.296
-109.54
19.5164
95.1482
141.516
164.472
174.161
174.62
170.629
162.882
155.024
150.186
147.473
147.971
149.844
153.97
158.187
162.972
165.591
166.633
165.411
162.878
159.011
154.497
149.473
144.359
139.419
134.565
129.663
124.728
119.535
114.372
109.054
104.302
99.8601
96.2256
93.0148
90.7807
89.148
88.597
88.0231
86.2802
83.8788
80.1869
76.0905
70.8749
65.7392
60.1333
55.9436
52.4915
50.6746
49.5676
50.0501
51.3469
54.2096
56.8265
57.3723
56.715
53.9641
50.5048
45.3432
40.2133
34.3497
30.351
27.28
26.3001
26.1443
27.9192
30.5737
35.0351
38.9229
39.8267
38.7753
34.5063
28.6624
19.767
9.93505
-2.01489
-12.5472
-23.0899
-31.9445
-41.0335
-48.5664
-56.0983
-61.7823
-69.1013
-81.0615
-94.1424
-110.746
-130.446
-139.665
-136.889
65.0967
174.553
221.669
228.804
228.309
215.708
204.921
185.445
167.57
161.028
154.871
157.993
158.914
167.796
172.798
183.689
186.399
188.925
185.87
182.685
176.747
170.956
164.196
157.705
152.152
146.881
141.359
136.161
129.79
124.138
116.808
111.738
105.88
102.446
98.0659
96.4432
94.3388
96.2949
98.2849
95.985
94.5169
88.8942
85.2156
76.9747
71.5107
61.5248
57.4836
51.9708
51.4776
49.037
51.3065
52.3551
59.7192
66.7769
66.6414
67.5472
62.0442
59.3318
50.0229
44.6258
32.9251
29.3541
23.8026
24.8782
23.2984
27.7273
30.405
41.0227
51.0165
51.48
52.9109
45.5703
41.1695
27.1452
17.1084
-3.08256
-13.3238
-28.2472
-35.0945
-48.0552
-53.6123
-64.312
-63.8566
-66.5606
-86.3849
-98.9822
-121.999
-170.958
-186.306
-176.709
264.212
343.725
359.391
304.119
299.889
254.182
251.724
205.704
163.794
171.316
148.908
171.183
156.52
187.206
178.931
216.184
207.47
219.255
206.514
206.458
194.268
188.812
178.53
169.699
164.48
159.559
152.586
149.284
139.011
136.32
121.308
120.309
108.411
110.031
99.1463
102.8
93.6833
103.945
114.725
104.493
111.138
94.8029
100.911
79.0767
83.7943
54.357
61.1437
44.2224
55.086
41.7245
54.3219
44.2699
65.6707
87.086
74.4116
87.6087
66.1062
77.6582
49.07
58.1162
19.7943
31.2097
10.7824
27.2805
11.8
30.0573
18.8028
47.9085
76.8335
61.7402
79.6771
52.4009
67.5342
28.7814
38.9039
-18.4773
-7.35774
-45.0335
-29.4402
-65.7369
-51.252
-88.5875
-61.3801
-39.3655
-102.113
-88.8168
-95.8911
-259.867
-268.865
-238.474
1246.13
604.836
599.261
305.931
431.191
230.374
361.252
220.043
88.8329
224.701
78.5966
237.561
88.8218
262.715
119.502
314.865
199.019
284.9
208.885
247.701
202.088
213.613
190.772
176.49
176.376
175.189
158.526
172.439
137.31
166.242
105.628
144.572
91.4699
135.621
79.2882
127.542
65.1209
110.844
161.418
88.6957
160.848
68.39
156.841
42.9407
145.258
-4.97599
98.94
-3.53888
93.5753
-2.97167
89.9495
-9.11056
71.5983
156.481
44.9239
157.634
22.5669
153.783
-6.07948
139.813
-64.9615
78.9156
-55.4137
75.7287
-48.284
74.881
-50.9216
55.0512
166.033
24.4332
171.547
-1.84175
171.491
-39.9661
157.901
-132.516
68.871
-138.529
50.9335
-156.545
25.7285
-205.806
-51.4265
109.886
-227.345
-49.3171
156.155
-571.942
-408.138
-341.048
1285.3
1165.46
1052.08
944.863
843.416
747.281
655.96
568.928
485.652
405.597
328.24
253.065
179.571
107.269
35.6775
-9.99612
-9.70009
-9.24435
-8.65921
-7.97746
-7.23055
-6.44595
-5.64563
-4.84569
-4.05667
-3.28428
-2.53027
-1.79338
-1.07017
-0.355721
-16.8634
-16.344
-15.5509
-14.5393
-13.3682
-12.0929
-10.7609
-9.40909
-8.06413
-6.74275
-5.45344
-4.19813
-2.97381
-1.7739
-0.589529
-24.0473
-23.2612
-22.0755
-20.5788
-18.863
-17.0119
-15.0953
-13.1656
-11.2589
-9.39665
-7.58851
-5.83495
-4.12977
-2.46208
-0.81801
-31.7013
-30.5777
-28.9108
-26.8371
-24.4926
-21.9963
-19.4425
-16.8989
-14.409
-11.9963
-9.6689
-7.42332
-5.24817
-3.12661
-1.03843
-40.0106
-38.4368
-36.1524
-33.3658
-30.2735
-27.0378
-23.7793
-20.5783
-17.4817
-14.5106
-11.6673
-8.94117
-6.3129
-3.75771
-1.24751
-49.2102
-47.0058
-43.8956
-40.1995
-36.1971
-32.1018
-28.0582
-24.153
-20.4286
-16.8968
-13.5484
-10.361
-7.30448
-4.34378
-1.4414
-59.6119
-56.4799
-52.2242
-47.3387
-42.2132
-37.1136
-32.1984
-27.5463
-23.1828
-19.0994
-15.2681
-11.6499
-8.2001
-4.87145
-1.61571
-71.6431
-67.0773
-61.1821
-54.7172
-48.2027
-41.9405
-36.0748
-30.6508
-25.6564
-21.0496
-16.7746
-12.7702
-8.97444
-5.32615
-1.76567
-85.8966
-79.0034
-70.709
-62.1448
-53.9395
-46.3701
-39.509
-33.3252
-27.742
-22.6678
-18.0103
-13.6818
-9.60112
-5.69297
-1.88647
-103.163
-92.3289
-80.5044
-69.2124
-59.0397
-50.0908
-42.2655
-35.3984
-29.3181
-23.869
-18.9166
-14.3453
-10.0552
-5.95805
-1.97366
-124.306
-106.643
-89.7661
-75.1595
-62.9153
-52.6869
-44.0632
-36.6843
-30.2624
-24.5733
-19.4416
-14.7273
-10.3161
-6.11032
-2.02375
-149.385
-120.17
-96.756
-78.743
-64.774
-53.6777
-44.6155
-37.0126
-30.4736
-24.7199
-19.5487
-14.8063
-10.3713
-6.1433
-2.03475
-173.869
-127.895
-98.3432
-78.2814
-63.7592
-52.6336
-43.7078
-36.2764
-29.8989
-24.2836
-19.2266
-14.5775
-10.2194
-6.05675
-2.00665
-173.846
-119.194
-90.4393
-72.2792
-59.3466
-49.389
-41.3049
-34.4858
-28.5616
-23.2888
-18.4964
-14.0575
-9.87204
-5.85751
-1.94173
-7.48756
-22.6291
-38.2843
-54.8462
-72.7952
-92.7585
-115.608
-142.632
-175.851
-218.676
-277.362
-364.624
-509.612
-788.297
-1422.79
-7.36825
-22.2597
-37.6285
-53.8359
-71.3162
-90.6234
-112.503
-138.008
-168.685
-206.885
-256.222
-321.927
-409.008
-505.62
-481.616
-7.14126
-21.5588
-36.3901
-51.9414
-68.5681
-86.7011
-106.88
-129.792
-156.294
-187.359
-223.712
-264.386
-301.784
-306.701
-192.682
-6.82049
-20.5704
-34.6515
-49.2999
-64.7735
-81.3573
-99.3594
-119.083
-140.733
-164.158
-188.202
-209.117
-217.115
-190.375
-92.1813
-6.42407
-19.3518
-32.5188
-46.0851
-60.2077
-75.028
-90.6424
-107.036
-123.937
-140.529
-154.862
-162.816
-156.569
-123.669
-51.5193
-5.97234
-17.967
-30.1086
-42.4839
-55.157
-68.1467
-81.3841
-94.6342
-107.357
-118.467
-125.952
-126.376
-114.531
-84.2199
-32.3074
-5.48588
-16.48
-27.5359
-38.6756
-49.8862
-61.0933
-72.1164
-82.5986
-91.8962
-98.9207
-101.944
-98.4549
-85.317
-59.7708
-21.9164
-4.98387
-14.9501
-24.905
-34.8178
-44.6176
-54.1672
-63.224
-71.385
-78.0135
-82.1527
-82.459
-77.2342
-64.7189
-43.8689
-15.677
-4.48291
-13.4278
-22.3031
-31.0382
-39.5227
-47.5832
-54.9533
-61.2354
-65.8589
-68.0459
-66.8144
-61.076
-49.9083
-33.0654
-11.6333
-3.99644
-11.9539
-19.7985
-27.4324
-34.7219
-41.4785
-47.438
-52.2374
-55.3961
-56.3125
-54.2992
-48.688
-39.0385
-25.4485
-8.86369
-3.53456
-10.5583
-17.4401
-24.0658
-30.2909
-35.927
-40.7281
-44.3787
-46.4902
-46.6134
-44.2822
-39.104
-30.9051
-19.9112
-6.88746
-3.10417
-9.26117
-15.2594
-20.9772
-26.2687
-30.9553
-34.8168
-37.5885
-38.9648
-38.6185
-36.242
-31.6174
-24.7126
-15.7834
-5.43285
-2.70941
-8.07425
-13.2734
-18.1843
-22.6666
-26.5563
-29.6623
-31.7672
-32.6355
-32.0333
-29.7629
-25.7142
-19.9259
-12.6425
-4.33597
-2.35214
-7.00232
-11.4875
-15.6891
-19.4759
-22.7014
-25.2028
-26.8044
-27.3272
-26.6063
-24.5187
-21.0187
-16.1773
-10.2121
-3.49282
-2.03242
-6.04491
-9.8986
-13.4818
-16.6749
-19.3492
-21.3679
-22.5906
-22.8823
-22.1284
-20.2552
-17.2548
-13.209
-8.30528
-2.83463
-1.74902
-5.19775
-8.49744
-11.5453
-14.234
-16.4522
-18.0858
-19.0233
-19.1635
-18.4276
-16.7744
-14.2167
-10.8364
-6.79214
-2.31434
-1.49986
-4.45406
-7.27115
-9.85803
-12.1199
-13.961
-15.2869
-16.0094
-16.0529
-15.3638
-13.9215
-11.7497
-8.92491
-5.58001
-1.89882
-1.2823
-3.80557
-6.20467
-8.39646
-10.2979
-11.8274
-12.9071
-13.4671
-13.451
-12.8229
-11.5752
-9.73608
-7.37454
-4.60138
-1.56415
-1.09345
-3.2433
-5.28211
-7.13645
-8.7342
-10.0061
-10.888
-11.3248
-11.274
-10.7122
-9.63954
-8.0852
-6.10999
-3.80611
-1.29271
-0.930318
-2.7581
-4.48764
-6.0546
-7.39673
-8.45549
-9.17816
-9.52083
-9.45193
-8.95614
-8.03833
-6.72656
-5.07366
-3.15631
-1.07126
-0.789996
-2.34112
-3.80605
-5.12883
-6.25602
-7.13824
-7.73211
-8.00268
-7.92622
-7.49313
-6.71065
-5.60477
-4.22095
-2.62296
-0.889735
-0.66972
-1.98397
-3.22315
-4.33885
-5.2854
-6.0212
-6.51053
-6.72547
-6.64812
-6.27272
-5.60751
-4.67596
-3.51693
-2.1835
-0.740319
-0.566932
-1.67896
-2.72597
-3.66633
-4.46109
-5.07529
-5.47946
-5.65121
-5.57697
-5.25352
-4.6893
-3.90511
-2.93402
-1.82023
-0.616915
-0.479307
-1.41908
-2.30284
-3.09489
-3.76214
-4.27521
-4.60975
-4.74775
-4.67885
-4.40149
-3.92381
-3.26403
-2.45019
-1.51912
-0.514699
-0.40476
-1.1981
-1.94338
-2.61012
-3.17023
-3.59908
-3.8765
-3.98795
-3.92546
-3.68855
-3.28477
-2.72992
-2.04774
-1.26895
-0.429823
-0.341445
-1.01049
-1.63845
-2.19937
-2.66947
-3.02808
-3.2585
-3.34892
-3.29319
-3.09146
-2.75061
-2.28423
-1.71237
-1.06067
-0.359195
-0.287739
-0.851414
-1.38007
-1.85167
-2.24612
-2.54608
-2.7377
-2.81136
-2.76227
-2.59099
-2.3036
-1.91179
-1.43243
-0.886953
-0.30031
-0.242227
-0.716647
-1.16131
-1.55754
-1.88838
-2.1393
-2.2988
-2.35902
-2.31621
-2.17111
-1.9291
-1.60012
-1.19839
-0.741819
-0.251131
-0.203683
-0.60254
-0.976178
-1.3088
-1.58614
-1.796
-1.92884
-1.97821
-1.94117
-1.81854
-1.61498
-1.33897
-1.00244
-0.620369
-0.20999
-0.171046
-0.505943
-0.819521
-1.09846
-1.33074
-1.50618
-1.61683
-1.6574
-1.62556
-1.52214
-1.35117
-1.11982
-0.838126
-0.518571
-0.175513
-0.143405
-0.424147
-0.686916
-0.920498
-1.11481
-1.26134
-1.35347
-1.38686
-1.35966
-1.27264
-1.12928
-0.935631
-0.700094
-0.433091
-0.146569
-0.119977
-0.35483
-0.574576
-0.769804
-0.932071
-1.05426
-1.1309
-1.1584
-1.13528
-1.06227
-0.94232
-0.780521
-0.583909
-0.361165
-0.122218
-0.100092
-0.296002
-0.479261
-0.641994
-0.777154
-0.878816
-0.942438
-0.965076
-0.945542
-0.884487
-0.784411
-0.649583
-0.485869
-0.300488
-0.101679
-0.0831741
-0.245959
-0.398196
-0.533328
-0.645496
-0.729783
-0.782436
-0.801037
-0.784632
-0.733797
-0.650633
-0.5387
-0.402874
-0.249134
-0.0842971
-0.0687304
-0.203238
-0.329006
-0.440607
-0.533195
-0.602714
-0.646076
-0.661303
-0.64763
-0.605554
-0.536829
-0.444407
-0.332315
-0.205484
-0.0695248
-0.0563372
-0.166585
-0.269654
-0.361088
-0.436912
-0.493807
-0.52925
-0.541634
-0.530348
-0.495812
-0.439479
-0.363772
-0.271992
-0.168172
-0.0568984
-0.0456286
-0.134917
-0.21838
-0.292405
-0.353772
-0.399794
-0.428434
-0.4384
-0.429207
-0.401207
-0.35558
-0.294296
-0.220027
-0.136035
-0.0460239
-0.0362871
-0.107293
-0.17366
-0.232511
-0.281286
-0.317849
-0.340584
-0.34847
-0.341126
-0.318838
-0.282553
-0.233836
-0.174814
-0.108076
-0.036564
-0.0280344
-0.0828903
-0.134158
-0.179614
-0.217279
-0.245504
-0.263044
-0.269113
-0.263419
-0.24619
-0.218156
-0.180531
-0.134957
-0.0834323
-0.0282261
-0.0206238
-0.0609785
-0.0986916
-0.132126
-0.159826
-0.180579
-0.19347
-0.197922
-0.193723
-0.181042
-0.160419
-0.132746
-0.0992315
-0.0613449
-0.0207535
-0.0138333
-0.0409007
-0.0661957
-0.0886198
-0.107196
-0.121113
-0.129755
-0.132736
-0.129917
-0.121409
-0.107576
-0.0890171
-0.0665416
-0.0411355
-0.0139164
-0.00745888
-0.0220536
-0.035693
-0.0477849
-0.0578026
-0.0653078
-0.0699695
-0.0715791
-0.0700604
-0.0654739
-0.0580151
-0.0480071
-0.0358865
-0.022185
-0.00750534
-0.0013087
-0.00386989
-0.00626476
-0.00838996
-0.0101532
-0.0114773
-0.0123034
-0.0125937
-0.0123336
-0.0115325
-0.0102239
-0.00846384
-0.00632909
-0.00391355
-0.00132414
0.00480247
0.0141984
0.0229763
0.0307537
0.0371912
0.0420074
0.0449908
0.0460096
0.0450176
0.0420564
0.0372539
0.0308193
0.0230334
0.0142372
0.00481618
0.0110588
0.0326958
0.052912
0.0708277
0.0856615
0.0967647
0.103649
0.106009
0.103736
0.0969238
0.0858651
0.0710406
0.0530974
0.0328217
0.0111033
0.0176487
0.0521798
0.0844451
0.113041
0.136722
0.154451
0.165449
0.169226
0.165606
0.154739
0.137091
0.113427
0.0847811
0.0524078
0.0177293
0.0247705
0.073237
0.118526
0.158668
0.191915
0.216812
0.232262
0.237577
0.232509
0.217264
0.192494
0.159273
0.119053
0.0735946
0.024897
0.0326384
0.0965007
0.15618
0.209083
0.252906
0.285731
0.306112
0.313138
0.306479
0.286401
0.253764
0.20998
0.156961
0.0970308
0.0328259
0.0414883
0.122669
0.198538
0.265802
0.321533
0.363291
0.389234
0.398201
0.389765
0.36426
0.322772
0.267098
0.199667
0.123435
0.0417593
0.0515852
0.152526
0.24687
0.330529
0.399861
0.451832
0.484144
0.495347
0.484902
0.453215
0.401632
0.332381
0.248483
0.15362
0.0519722
0.0632302
0.186962
0.302623
0.405204
0.490244
0.554021
0.593712
0.607524
0.594787
0.555985
0.492758
0.407833
0.304912
0.188516
0.0637798
0.0767695
0.227003
0.367456
0.492057
0.595392
0.672934
0.721246
0.738136
0.722768
0.675715
0.598951
0.495779
0.370697
0.229203
0.0775476
0.0926039
0.273835
0.443296
0.593676
0.718447
0.812142
0.870598
0.891146
0.87275
0.816074
0.723479
0.598938
0.447878
0.276945
0.093704
0.1112
0.328838
0.532384
0.713076
0.863078
0.975818
1.04627
1.0712
1.04931
0.981373
0.870187
0.720509
0.538858
0.333232
0.112754
0.133101
0.393626
0.637341
0.853784
1.03358
1.16886
1.25355
1.28375
1.25785
1.1767
1.04362
0.864282
0.646483
0.399831
0.135296
0.158945
0.470085
0.761234
1.01993
1.235
1.39701
1.49868
1.53525
1.50474
1.40808
1.24918
1.03476
0.774142
0.478846
0.162044
0.189476
0.560424
0.907658
1.21638
1.47327
1.66705
1.789
1.83333
1.79756
1.68269
1.49328
1.2373
0.925883
0.572794
0.193852
0.225566
0.667227
1.08082
1.44881
1.75535
1.98698
2.13321
2.18702
2.14529
2.00905
1.7836
1.47835
1.10655
0.684691
0.231744
0.268232
0.793516
1.28566
1.7239
2.08943
2.3662
2.54159
2.60706
2.55865
2.39737
2.12932
1.76561
1.32198
0.818172
0.276954
0.31866
0.942815
1.52793
2.04947
2.48515
2.81582
3.0263
3.10616
3.05037
2.85981
2.54145
2.10835
1.57921
0.977625
0.330973
0.378229
1.11922
1.81433
2.43465
2.95377
3.34889
3.6017
3.69944
3.63568
3.41098
3.03326
2.51777
1.88673
1.16837
0.395613
0.448533
1.32749
2.15267
2.89008
3.50851
3.98075
4.28477
4.40485
4.33273
4.06841
3.62071
3.00743
2.25489
1.39688
0.473079
0.53141
1.57309
2.55196
3.42812
4.16475
4.72943
5.09554
5.24372
5.16324
4.85315
4.32313
3.59379
2.69627
1.67107
0.56607
0.628963
1.86231
3.02255
4.06303
4.94038
5.61597
6.05762
6.24136
6.15317
5.79059
5.16394
4.29693
3.22631
2.00065
0.677907
0.743579
2.20229
3.57629
4.81122
5.85608
6.66493
7.19878
7.42781
7.33362
6.91138
6.17166
5.14142
3.864
2.39766
0.812702
0.877945
2.60109
4.22659
5.69137
6.93566
7.90482
8.55158
8.83869
8.74183
8.25261
7.38108
6.15755
4.63287
2.87702
0.97558
1.03504
3.06769
4.98848
6.72461
8.20627
9.36857
10.1541
10.5162
10.4225
9.85928
8.83491
7.38277
5.56225
3.45746
1.17298
1.21814
3.61194
5.87858
7.93454
9.69861
11.0939
12.0506
12.5101
12.4292
11.7861
10.5858
8.86376
6.68902
4.16267
1.41308
1.43074
4.24446
6.91496
9.34711
11.447
13.1237
14.2925
14.8791
14.8261
14.1
12.6988
10.6591
8.05992
5.02289
1.70634
1.6765
4.97643
8.11683
10.9904
13.4892
15.5062
16.9385
17.6922
17.6904
16.8825
15.2553
12.8429
9.73483
6.07719
2.06636
1.95909
5.81916
9.50395
12.8938
15.8659
18.2948
20.0557
21.0299
21.1144
20.234
18.3568
15.5098
11.7913
7.37672
2.51103
2.28203
6.78357
11.0958
15.0873
18.6197
21.5471
23.719
24.9854
25.2084
24.2777
22.1318
18.7816
14.3313
8.98947
3.06426
2.64839
7.87939
12.9104
17.5996
21.7934
25.3241
28.0109
29.6654
30.1034
29.165
26.743
22.8175
17.4901
11.0073
3.75867
3.0604
9.11403
14.9623
20.4559
25.4275
29.6869
33.0196
35.19
35.9541
35.0825
32.3982
27.8267
21.4513
13.557
4.63967
3.51903
10.4912
17.2605
23.6746
29.556
34.6932
38.8352
41.6912
42.9405
42.2585
39.3637
34.0885
26.4672
16.8169
5.77206
4.02341
12.0092
19.8053
27.2632
34.2011
40.3904
45.5436
49.3078
51.2679
50.9711
47.982
41.9794
32.892
21.0453
7.25111
4.57016
13.6588
22.5847
31.2127
39.3659
46.8068
53.2165
58.1769
61.1623
61.5531
58.6929
52.0122
41.2327
26.6261
9.2218
5.15276
15.4215
25.571
35.4916
45.0252
53.9391
61.8955
68.4174
72.8583
74.3925
72.0567
64.8912
52.231
34.1497
11.9142
5.7609
17.2668
28.716
40.0393
51.1147
61.7361
71.5704
80.1026
86.5725
89.9191
88.7741
81.5856
66.9937
44.5579
15.7126
6.38005
19.1514
31.9484
44.7587
57.5191
70.0795
82.1493
93.2196
102.455
108.564
109.688
103.421
87.2034
59.4167
21.3027
6.99134
21.0182
35.1714
49.5127
64.0623
78.7631
93.4218
107.61
120.509
130.671
135.734
132.166
115.447
81.4471
30.0115
7.57195
22.7971
38.2635
54.1218
70.5
87.4755
105.021
122.897
140.461
156.32
167.772
170.042
155.69
115.585
44.6837
8.0961
24.4083
41.0832
58.3697
76.5227
95.7921
116.389
138.399
161.597
185.028
206.185
219.461
213.816
171.11
72.1792
8.53685
25.7676
43.478
62.0155
81.7696
103.187
126.774
153.077
182.569
215.314
250.069
282.02
297.678
265.678
131.221
8.86849
26.7938
45.2981
64.8161
85.8616
109.073
135.273
165.541
201.281
244.204
295.9
355.89
414.633
431.397
279.141
9.06929
27.4177
46.4142
66.5556
88.4488
112.884
140.947
174.203
215.003
267.002
335.968
430.626
560.738
714.489
709.023
9.12433
27.5915
46.7349
67.0782
89.2705
114.175
143.014
177.625
220.946
278.014
358.194
480.739
690.425
1108.14
2119.86
9.02757
27.2956
46.2221
66.3164
88.2082
112.733
141.072
174.998
217.343
272.975
350.999
470.333
675.642
1089.3
2104.78
8.78293
26.5423
44.8983
64.306
85.3169
108.642
135.25
166.522
204.511
252.384
315.115
400.222
516.169
652.505
645.472
8.40391
25.3744
42.8439
61.182
80.8179
102.271
126.189
153.38
184.813
221.474
263.69
308.692
342.536
315.273
77.7632
-110.332
-89.6446
-74.2128
-62.3162
-52.7606
-44.8161
-38.0244
-32.0831
-26.7821
-21.9688
-17.5272
-13.3657
-9.40871
-5.59116
-1.85483
-41.3419
-57.1599
-56.3406
-51.3307
-45.4842
-39.7492
-34.3764
-29.3998
-24.7855
-20.4806
-16.4293
-12.5788
-8.87973
-5.28631
-1.75523
-18.7858
-36.2282
-41.3781
-40.9257
-38.1298
-34.4305
-30.4529
-26.4646
-22.5739
-18.816
-15.1919
-11.6865
-8.2773
-4.9381
-1.64131
-10.208
-23.8327
-30.3056
-32.1476
-31.4023
-29.3047
-26.5364
-23.4614
-20.2699
-17.0582
-13.8718
-10.7274
-7.62616
-4.5604
-1.51751
-6.34649
-16.4034
-22.4485
-25.166
-25.6136
-24.6443
-22.8328
-20.5388
-17.9795
-15.2829
-12.5223
-9.73812
-6.95031
-4.16677
-1.38824
-4.3155
-11.7598
-16.9022
-19.7605
-20.8086
-20.5684
-19.4639
-17.8003
-15.7844
-13.5517
-11.1892
-8.75127
-6.27144
-3.76961
-1.25752
-3.10856
-8.71471
-12.9417
-15.612
-16.898
-17.0925
-16.4832
-15.3063
-13.7396
-11.9106
-9.90823
-7.79345
-5.60776
-3.37954
-1.12885
-2.32587
-6.62726
-10.0621
-12.4246
-13.7453
-14.1746
-13.8964
-13.0829
-11.8769
-10.3898
-8.70523
-6.88478
-4.97356
-3.00504
-1.00503
-1.78645
-5.1415
-7.9272
-9.96042
-11.2114
-11.7478
-11.6813
-11.1318
-10.2092
-9.00598
-7.59651
-6.03908
-4.3791
-2.65239
-0.88816
-1.39831
-4.05106
-6.31476
-8.03939
-9.17368
-9.73966
-9.80137
-9.43968
-8.73626
-7.76532
-6.59046
-5.26452
-3.83095
-2.32576
-0.77968
-1.11005
-3.23076
-5.07659
-6.52825
-7.53051
-8.08159
-8.21541
-7.98479
-7.44902
-6.66619
-5.68925
-4.56465
-3.33249
-2.02749
-0.680416
-0.890806
-2.6013
-4.11209
-5.32912
-6.20058
-6.71319
-6.88244
-6.74172
-6.33327
-5.70178
-4.89052
-3.93943
-2.88457
-1.75843
-0.590697
-0.72094
-2.11051
-3.35156
-4.3699
-5.11978
-5.58318
-5.76465
-5.68449
-5.37234
-4.86216
-4.18885
-3.38622
-2.48611
-1.51823
-0.510461
-0.587392
-1.72283
-2.74565
-3.59707
-4.23787
-4.64889
-4.82849
-4.78832
-4.54887
-4.13578
-3.57694
-2.90068
-2.1347
-1.3057
-0.439355
-0.48116
-1.41334
-2.25872
-2.97048
-3.51547
-3.87526
-4.04491
-4.03047
-3.84594
-3.51056
-3.04653
-2.4774
-1.82704
-1.1191
-0.376832
-0.395851
-1.16412
-1.86457
-2.45967
-2.92164
-3.23361
-3.38913
-3.39069
-3.24772
-2.97464
-2.58907
-2.1105
-1.55934
-0.956314
-0.32222
-0.32681
-0.961983
-1.54356
-2.04127
-2.43196
-2.70059
-2.84024
-2.85123
-2.73982
-2.51681
-2.19618
-1.794
-1.32763
-0.815101
-0.274791
-0.270575
-0.797053
-1.28077
-1.69718
-2.027
-2.25709
-2.38066
-2.39674
-2.3094
-2.12675
-1.85988
-1.52206
-1.12796
-0.693171
-0.233798
-0.224527