/*--------------------------------*- C++ -*----------------------------------*\
| =========                 |                                                 |
| \\      /  F ield         | OpenFOAM: The Open Source CFD Toolbox           |
|  \\    /   O peration     | Version:  5.x                                   |
|   \\  /    A nd           | Web:      www.OpenFOAM.org                      |
|    \\/     M anipulation  |                                                 |
\*---------------------------------------------------------------------------*/
FoamFile
{
    version     2.0;
    format      ascii;
    class       volScalarField;
    location    "6.6";
    object      T;
}
// * * * * * * * * * * * * * * * * * * * * * * * * * * * * * * * * * * * * * //

dimensions      [0 0 0 1 0 0 0];

internalField   nonuniform List<scalar> 
6300
(
10.5361
11.6114
12.696
13.7959
14.9167
16.0635
17.2406
18.4516
19.6987
20.9827
22.3027
23.6561
25.0382
26.4424
27.8606
10.533
11.6021
12.6807
13.7749
14.8906
16.0329
17.2066
18.4153
19.6615
20.9463
22.2691
23.6271
25.0156
26.428
27.8557
10.5266
11.5832
12.6497
13.7324
14.8376
15.9709
17.1373
18.3412
19.5855
20.8718
22.1998
23.5671
24.9689
26.398
27.8451
10.517
11.5544
12.6023
13.6674
14.7564
15.8755
17.0305
18.2265
19.4673
20.7553
22.0909
23.4723
24.8944
26.3496
27.8272
10.5038
11.5152
12.5376
13.5784
14.6449
15.744
16.8826
18.0667
19.3016
20.5908
21.9361
23.3362
24.7865
26.2783
27.7993
10.487
11.4648
12.4544
13.4637
14.5005
15.573
16.6889
17.856
19.0812
20.3701
21.7262
23.1497
24.6366
26.1775
27.7573
10.4662
11.4027
12.3516
13.3213
14.3205
15.3583
16.4439
17.5871
18.7969
20.0819
21.4484
22.8995
24.4324
26.0373
27.6955
10.4413
11.3282
12.2278
13.1492
14.1017
15.0955
16.1414
17.2512
18.4372
19.7118
21.0859
22.567
24.156
25.8433
27.606
10.4122
11.2408
12.0823
12.946
13.8417
14.7804
15.7747
16.8388
17.9887
19.2419
20.616
22.1264
23.7809
25.5735
27.4763
10.3788
11.1404
11.9147
12.7106
13.5384
14.4096
15.3381
16.3404
17.4367
18.6508
20.0097
21.5412
23.2675
25.193
27.2876
10.3412
11.0274
11.7253
12.4434
13.1916
13.9814
14.8274
15.748
16.7668
17.9146
19.2305
20.761
22.5544
24.643
27.0066
10.2998
10.9026
11.5155
12.1461
12.8029
13.4969
14.2421
15.057
15.9676
17.0102
18.2364
19.7175
21.5458
23.8175
26.5684
10.2551
10.7677
11.2882
11.8223
12.377
12.9612
13.5868
14.2703
15.0362
15.9221
16.987
18.3265
20.0936
22.5124
25.8182
10.2078
10.6251
11.0472
11.4778
11.9216
12.3841
12.8734
13.401
13.9848
14.6546
15.4626
16.5079
17.9893
20.3199
24.2954
10.159
10.4775
10.7975
11.1203
11.4472
11.7801
12.1215
12.4752
12.8473
13.2488
13.7009
14.2527
15.0357
16.4821
20.2893
29.1646
30.3466
31.5189
32.6755
33.8107
34.9191
35.9959
37.0369
38.0385
38.9978
39.9124
40.7802
41.5998
42.3701
43.0902
43.7597
44.3782
44.9456
45.462
45.9278
46.3432
46.7089
47.0256
47.294
47.5152
47.6901
47.8197
47.9053
47.948
47.9489
47.9094
47.8306
47.7137
47.5599
47.3703
47.1461
46.8883
46.598
46.2762
45.924
45.5422
45.132
44.6942
44.2297
43.7395
43.2245
42.6853
42.123
41.5381
40.9313
40.3033
39.6547
38.9861
38.298
37.5909
36.8654
36.1221
35.3616
34.5845
33.7916
32.9834
32.1608
31.3245
30.4752
29.6138
28.741
27.8578
26.965
26.0638
25.1553
24.2409
23.3219
22.4
21.477
20.555
19.6359
18.722
17.8157
16.9192
16.035
15.1654
14.3127
13.4792
12.6667
11.8773
11.1125
10.3737
9.66205
8.9782
8.32255
29.1692
30.3599
31.5409
32.7059
33.8487
34.964
36.0468
37.0929
38.0988
39.0616
39.9789
40.8488
41.6701
42.4415
43.1624
43.8323
44.4509
45.0182
45.5342
45.9993
46.4139
46.7786
47.0941
47.3613
47.581
47.7543
47.8823
47.9662
48.0072
48.0064
47.9651
47.8846
47.766
47.6105
47.4193
47.1935
46.9342
46.6425
46.3193
45.9656
45.5825
45.1709
44.7318
44.266
43.7746
43.2583
42.7181
42.1547
41.5688
40.9612
40.3324
39.683
39.0135
38.3246
37.6167
36.8904
36.1463
35.3848
34.6068
33.8129
33.0037
32.1801
31.3427
30.4923
29.6296
28.7556
27.871
26.9768
26.0739
25.1636
24.247
23.3257
22.4012
21.4754
20.5504
19.6281
18.7109
17.8012
16.9013
16.0137
15.1409
14.285
13.4485
12.6334
11.8416
11.0748
10.3346
9.62184
8.93746
8.28181
29.178
30.3868
31.5856
32.7674
33.9258
35.055
36.1499
37.2062
38.2206
39.1901
40.1128
40.9869
41.8112
42.5849
43.3072
43.9779
44.5967
45.1636
45.6789
46.1427
46.5556
46.9183
47.2314
47.4959
47.7127
47.8828
48.0076
48.088
48.1255
48.1212
48.0764
47.9924
47.8704
47.7117
47.5173
47.2884
47.0261
46.7314
46.4053
46.0488
45.663
45.2486
44.8068
44.3385
43.8446
43.326
42.7835
42.218
41.6302
41.0208
40.3903
39.7393
39.0684
38.3779
37.6685
36.9405
36.1947
35.4314
34.6515
33.8556
33.0443
32.2186
31.379
30.5264
29.6615
28.785
27.8977
27.0006
26.0944
25.1803
24.2596
23.3336
22.4039
21.4725
20.5414
19.6127
18.6888
17.7722
16.8655
15.971
15.0915
14.2293
13.3868
12.5663
11.7697
10.9989
10.2555
9.54068
8.85523
8.19959
29.1905
30.4276
31.6541
32.8622
34.0445
35.1947
36.3078
37.3793
38.406
39.3855
40.3159
41.1959
42.0246
42.8013
43.5256
44.1973
44.8164
45.3827
45.8967
46.3585
46.7689
47.1284
47.4379
47.6982
47.9105
48.0759
48.1956
48.2709
48.303
48.2934
48.2433
48.1541
48.027
47.8632
47.664
47.4305
47.1637
46.8646
46.5342
46.1736
45.7836
45.3651
44.9193
44.4471
43.9494
43.4272
42.8813
42.3127
41.722
41.11
40.4771
39.8238
39.1507
38.458
37.7463
37.0159
36.2675
35.5015
34.7187
33.9197
33.1054
32.2764
31.4337
30.5778
29.7094
28.8294
27.9383
27.0368
26.1259
25.2063
24.2794
23.3464
22.4089
21.4689
20.5285
19.59
18.6559
17.7288
16.8115
15.9067
15.017
14.145
13.2934
12.4644
11.6605
10.8835
10.1352
9.41705
8.72995
8.07436
29.2059
30.4831
31.7487
32.9933
34.2086
35.3875
36.5248
37.6162
38.6589
39.6508
40.5908
41.478
42.312
43.0924
43.819
44.4919
45.111
45.6764
46.1885
46.6477
47.0545
47.4097
47.7142
47.9689
48.1751
48.3339
48.4468
48.5149
48.5399
48.523
48.4657
48.3694
48.2354
48.065
47.8594
47.6197
47.3469
47.042
46.706
46.3398
45.9442
45.5203
45.0691
44.5915
44.0887
43.5616
43.0113
42.4384
41.844
41.2285
40.5924
39.9363
39.2603
38.5649
37.8502
37.1167
36.3649
35.5952
34.8085
34.0055
33.1869
32.3538
31.5067
30.6465
29.7739
28.8893
27.9933
27.0864
26.1693
25.2427
24.3075
23.3652
22.4172
21.4656
20.5126
19.5606
18.6126
17.6712
16.7394
15.8203
14.9166
14.0312
13.167
12.3265
11.5122
10.7265
9.97139
9.24856
8.55915
7.90371
29.223
30.5548
31.8731
33.1662
34.4244
35.6398
36.8071
37.9226
38.984
39.9903
40.941
41.8361
42.6758
43.46
44.1891
44.863
45.482
46.0462
46.5558
47.0114
47.4136
47.7632
48.0611
48.3086
48.5069
48.6573
48.7613
48.8204
48.8361
48.8099
48.7434
48.6381
48.4954
48.3166
48.103
47.8557
47.5755
47.2635
46.9205
46.5473
46.1449
45.7141
45.256
44.7716
44.2623
43.7289
43.1728
42.5947
41.9955
41.3758
40.7361
40.0766
39.3975
38.6988
37.9807
37.2434
36.4873
35.713
34.9213
34.113
33.2891
32.4505
31.5982
30.7328
29.855
28.9651
28.0635
27.1504
26.226
25.2909
24.3457
23.3917
22.4305
21.464
20.4947
19.5255
18.5593
17.5994
16.649
15.7113
14.7896
13.8869
13.0062
12.1505
11.3226
10.5253
9.76096
9.03181
8.33931
7.68417
29.2408
30.6455
32.0332
33.3889
34.7009
35.9609
37.1635
38.3062
39.3879
40.4091
41.3706
42.2734
43.1185
43.9064
44.6377
45.3125
45.9311
46.4935
47.0001
47.4512
47.8476
48.1901
48.48
48.7184
48.9068
49.0467
49.1397
49.1874
49.1916
49.154
49.0761
48.9598
48.8065
48.6176
48.3944
48.138
47.8492
47.5289
47.1777
46.7963
46.3856
45.9464
45.4798
44.9871
44.4695
43.9284
43.3651
42.7806
42.1758
41.5514
40.9077
40.2446
39.5622
38.8601
38.1382
37.3965
36.6354
35.8554
35.0574
34.2425
33.4118
32.5666
31.7079
30.8366
29.953
29.0575
28.1499
27.2301
26.2978
25.3531
24.3963
23.4284
22.451
21.4661
20.4766
19.4856
18.4968
17.5136
16.5399
15.5793
14.6351
13.7107
12.8094
11.9343
11.0889
10.2763
9.49978
8.76217
8.06556
7.41096
29.258
30.7602
32.2387
33.674
35.052
36.3638
37.6056
38.7767
39.8784
40.9132
41.884
42.7932
43.6426
44.4336
45.1668
45.8423
46.4603
47.0206
47.5233
47.969
48.3582
48.6921
48.972
49.1992
49.3756
49.5027
49.5823
49.6163
49.6066
49.555
49.4635
49.3339
49.1679
48.9671
48.7328
48.466
48.1675
47.8378
47.4774
47.0867
46.6664
46.2173
45.7406
45.2376
44.7099
44.1592
43.5871
42.995
42.3838
41.7542
41.1064
40.44
39.7545
39.0492
38.3235
37.5771
36.8101
36.0232
35.2174
34.3941
33.555
32.7017
31.8355
30.9574
30.0679
29.1668
28.2536
27.3273
26.3872
25.4323
24.4626
23.4785
22.4818
21.4746
20.4602
19.4425
18.4257
17.4141
16.4119
15.4232
14.4518
13.501
12.5744
11.6754
10.8076
9.97523
9.18244
8.43335
7.73118
7.07751
29.2745
30.9082
32.506
34.0412
35.4974
36.8671
38.149
39.3463
40.4643
41.5089
42.4853
43.3981
44.2501
45.0432
45.7779
46.4542
47.0716
47.6296
48.1279
48.567
48.9476
49.271
49.5387
49.7526
49.9144
50.0262
50.0898
50.1073
50.0809
50.0126
49.9048
49.7594
49.5786
49.3641
49.1172
48.8389
48.5298
48.1901
47.8199
47.4191
46.988
46.5273
46.0384
45.5228
44.9826
44.4201
43.8373
43.236
42.6176
41.9826
41.3311
40.6621
39.9746
39.2671
38.5381
37.7868
37.013
36.2176
35.4019
34.5679
33.7181
32.8547
31.9797
31.0943
30.1989
29.2931
28.3755
27.4443
26.4973
25.5325
24.549
23.5467
22.5272
21.4931
20.4484
19.3979
18.3469
17.3006
16.2642
15.2422
14.2384
13.2564
12.2996
11.3712
10.4753
9.61696
8.80204
8.03687
7.32683
6.67468
29.2917
31.1076
32.8628
34.5215
36.067
37.4959
38.8135
40.0295
41.1553
42.2017
43.1777
44.0897
44.9417
45.7359
46.4723
47.1501
47.7676
48.3234
48.8169
49.2483
49.6185
49.9291
50.1822
50.3798
50.5243
50.6179
50.6626
50.6607
50.6145
50.5264
50.399
50.2351
50.0369
49.8066
49.5457
49.2552
48.9353
48.5856
48.2055
47.7941
47.3512
46.8773
46.3737
45.8427
45.2868
44.7093
44.1132
43.5011
42.8745
42.2343
41.58
40.9103
40.223
39.5152
38.7841
38.028
37.2466
36.4406
35.6121
34.7641
33.9002
33.024
32.1384
31.2451
30.3445
29.4358
28.5166
27.5836
26.6325
25.6595
24.662
23.6394
22.5932
21.5265
20.4446
19.3537
18.2608
17.1728
16.0957
15.0345
13.9934
12.9755
11.9836
11.0202
10.0889
9.19597
8.34988
7.56088
6.83901
6.18941
29.317
31.394
33.3579
35.1644
36.8037
38.2842
39.6236
40.8418
41.9597
42.9952
43.9613
44.8667
45.7159
46.5108
47.2504
47.9319
48.5514
49.1061
49.5945
50.0168
50.3742
50.6692
50.9043
51.0826
51.2067
51.279
51.3017
51.277
51.2074
51.0957
50.945
50.759
50.5406
50.2924
50.0161
49.7129
49.3826
49.0242
48.6353
48.2136
47.7582
47.269
46.7479
46.1974
45.6215
45.0245
44.4116
43.786
43.1504
42.5054
41.8504
41.1833
40.5003
39.7961
39.0654
38.3053
37.5148
36.6954
35.8497
34.9827
34.0995
33.2064
32.3076
31.4058
30.5014
29.593
28.6772
27.7485
26.799
25.8212
24.8107
23.7658
22.6882
21.5817
20.4535
19.3119
18.1675
17.029
15.904
14.7977
13.7146
12.657
11.6265
10.6226
9.64696
8.70743
7.81537
6.98813
6.24699
5.60217
29.3756
31.8425
34.0792
36.0474
37.7683
39.2753
40.6076
41.7981
42.8819
43.8879
44.8315
45.7237
46.5674
47.3648
48.1111
48.8021
49.4276
49.9835
50.4664
50.8777
51.2191
51.4944
51.7075
51.8624
51.9627
52.0107
52.0081
51.9572
51.8599
51.7201
51.5411
51.3288
51.0863
50.8177
50.5245
50.2087
49.8695
49.5058
49.1116
48.6811
48.2129
47.706
47.1636
46.5879
45.9856
45.3622
44.7273
44.0849
43.4393
42.7901
42.1377
41.4783
40.8077
40.1146
39.3884
38.6258
37.8242
36.9874
36.1177
35.2239
34.3126
33.3966
32.4807
31.5701
30.6634
29.7606
28.856
27.943
27.006
26.0296
25.0087
23.939
22.8246
21.668
20.4812
19.2739
18.0656
16.8656
15.6852
14.5273
13.3988
12.2994
11.2311
10.1841
9.15292
8.1504
7.18744
6.29129
5.51621
4.88211
29.5564
32.622
35.1866
37.2857
39.0402
40.5172
41.7949
42.9072
43.9152
44.8698
45.7747
46.6499
47.4847
48.2912
49.0507
49.7655
50.403
50.965
51.4404
51.8382
52.1579
52.4084
52.5934
52.7199
52.793
52.814
52.7831
52.703
52.5729
52.3997
52.1844
51.9408
51.6687
51.3776
51.0644
50.7371
50.3909
50.0303
49.6394
49.2018
48.7223
48.1932
47.6264
47.0157
46.3795
45.7156
45.053
44.3874
43.7327
43.0785
42.4344
41.7889
41.1465
40.4803
39.7632
39.0017
38.1838
37.3263
36.4198
35.4896
34.5319
33.5861
32.6456
31.7282
30.8191
29.9306
29.0463
28.1716
27.2692
26.3017
25.2766
24.1761
23.0214
21.7976
20.538
19.2369
17.9515
16.6737
15.434
14.2142
13.0408
11.8968
10.8048
9.72287
8.6174
7.53627
6.4632
5.42003
4.58231
3.97754
30.2157
34.1225
36.9635
39.0198
40.7109
42.0454
43.2197
44.1657
45.0246
45.9223
46.7599
47.6333
48.4418
49.2847
50.0537
50.8393
51.4861
52.0701
52.5254
52.9103
53.1954
53.4157
53.5627
53.6534
53.6974
53.6912
53.6281
53.5197
53.3468
53.1392
52.8677
52.5928
52.2775
51.9684
51.6236
51.2919
50.932
50.5976
50.2337
49.7821
49.3025
48.7338
48.1517
47.4796
46.8123
46.0664
45.3822
44.6737
44.0249
43.3514
42.7326
42.0943
41.5191
40.9186
40.2012
39.4584
38.5995
37.7354
36.7555
35.7943
34.7336
33.7677
32.7765
31.8743
30.9444
30.0944
29.2223
28.4397
27.6259
26.6564
25.6528
24.4909
23.3174
21.9784
20.6542
19.1773
17.8261
16.4268
15.1537
13.8342
12.6401
11.4194
10.3637
9.2954
8.04671
6.91044
5.69581
4.25285
3.3129
2.79806
32.9989
37.1572
39.8695
41.2791
42.8945
43.8034
44.9725
45.549
46.0771
47.0607
47.6928
48.709
49.3487
50.3833
51.032
52.1121
52.6584
53.3598
53.7106
54.1253
54.3249
54.5274
54.612
54.653
54.6729
54.6493
54.5374
54.4282
54.1698
53.9696
53.5548
53.3022
52.8762
52.6098
52.1629
51.8866
51.4357
51.2064
50.9533
50.4019
50.0098
49.2931
48.8056
47.9359
47.3573
46.3278
45.7457
44.8733
44.3517
43.545
43.0584
42.3079
41.9276
41.5244
40.6753
40.0816
39.0222
38.3105
37.0639
36.2416
34.7982
33.9851
32.779
32.0595
30.9545
30.2894
29.2689
28.7523
28.2065
27.0597
26.2567
24.8219
23.8513
22.1378
20.99
18.9363
17.7697
15.9981
14.9398
13.2737
12.2774
10.7044
9.94049
9.1276
7.314
6.39737
5.25712
2.36126
1.4313
1.18256
7.63236
6.91948
6.24536
5.60811
5.00532
4.43426
3.89193
3.3752
2.88088
2.4058
1.94681
1.50085
1.06493
0.636131
0.211573
7.59218
6.88062
6.20841
5.57355
4.97353
4.40547
3.86628
3.35274
2.86161
2.38966
1.93375
1.49079
1.0578
0.631876
0.210159
7.51114
6.80229
6.13402
5.50408
4.90969
4.34774
3.81491
3.30782
2.82311
2.35747
1.9077
1.47074
1.0436
0.623402
0.207343
7.38782
6.68327
6.02122
5.39898
4.81335
4.26082
3.73774
3.24048
2.76549
2.30935
1.86883
1.44084
1.02243
0.610782
0.203149
7.21997
6.52167
5.86851
5.25719
4.68384
4.14439
3.63471
3.15083
2.68897
2.2456
1.81741
1.40134
0.994496
0.594134
0.19762
7.00443
6.31483
5.67389
5.07733
4.52037
3.99811
3.50583
3.03911
2.59393
2.16661
1.75385
1.35259
0.960061
0.57363
0.190811
6.73685
6.05923
5.4348
4.85781
4.32213
3.8218
3.35132
2.90582
2.48098
2.07305
1.67874
1.29511
0.919509
0.549506
0.182805
6.4114
5.75036
5.1482
4.59691
4.08848
3.61557
3.17181
2.75181
2.35108
1.96585
1.59293
1.22957
0.873348
0.522071
0.173704
6.02022
5.38254
4.81065
4.29309
3.81926
3.38014
2.96848
2.5785
2.20565
1.84631
1.49754
1.15688
0.822228
0.49172
0.16364
5.55268
4.94884
4.41869
3.94549
3.51525
3.11722
2.74342
2.38801
2.04667
1.71617
1.39401
1.07816
0.766955
0.458934
0.152774
4.99426
4.44139
3.96973
3.55485
3.17898
2.83002
2.49994
2.18341
1.87683
1.57768
1.28414
0.994782
0.708487
0.424281
0.141293
4.32549
3.85266
3.46393
3.12516
2.81576
2.5239
2.24287
1.96884
1.69953
1.43357
1.17005
0.908332
0.64792
0.388403
0.12941
3.52225
3.17976
2.90813
2.66606
2.43496
2.20691
1.97878
1.7495
1.51886
1.287
1.05415
0.82056
0.586449
0.351996
0.117352
2.56477
2.43596
2.32273
2.19595
2.05106
1.88997
1.71581
1.53149
1.33939
1.14139
0.938973
0.7333
0.52531
0.315775
0.105354
1.48158
1.67654
1.75083
1.74394
1.68332
1.58606
1.46298
1.32125
1.16581
1.00019
0.827035
0.648344
0.465709
0.280434
0.0936426
10.1137
10.3407
10.5661
10.7886
11.0068
11.2186
11.4209
11.6096
11.7776
11.9134
11.9947
11.9732
11.7198
10.7999
7.39692
10.073
10.2175
10.3577
10.4902
10.6109
10.7145
10.7935
10.8369
10.8276
10.7371
10.5148
10.0618
9.1682
7.35836
3.58688
10.0331
10.0972
10.1545
10.1998
10.2269
10.2276
10.1908
10.1008
9.93372
9.6523
9.19497
8.45633
7.25279
5.27904
2.13947
9.99485
9.98169
9.95968
9.92215
9.86112
9.76653
9.625
9.41806
9.11925
8.68959
8.07044
7.17363
5.87218
4.00929
1.48326
9.95855
9.87227
9.77559
9.66075
9.51864
9.33806
9.10458
8.79909
8.39559
7.85841
7.13867
6.1719
4.88138
3.20003
1.13293
9.92461
9.77008
9.6041
9.41825
9.20286
8.94629
8.63415
8.24812
7.76474
7.15395
6.37841
5.39495
4.16196
2.65861
0.920639
9.89325
9.67582
9.44639
9.19626
8.91563
8.59309
8.21498
7.76474
7.22231
6.56385
5.76249
4.79124
3.63027
2.28011
0.780073
9.86463
9.5899
9.30305
8.99543
8.6575
8.27846
7.84587
7.34534
6.76042
6.07297
5.2645
4.31927
3.22991
2.00569
0.68124
9.83876
9.51238
9.17412
8.81563
8.42789
8.00098
7.52391
6.98453
6.36972
5.6661
4.86146
3.94738
2.92319
1.80086
0.608813
9.81562
9.4431
9.05923
8.65612
8.22546
7.75833
7.24521
6.67606
6.04066
5.32936
4.5344
3.65192
2.68462
1.64444
0.554144
9.79507
9.3817
8.95768
8.51575
8.04833
7.54759
7.00541
6.41359
5.7643
5.0507
4.2681
3.41536
2.49664
1.52281
0.511969
9.77698
9.32768
8.86858
8.39305
7.89434
7.36562
6.80005
6.19102
5.53256
4.81994
4.05048
3.22461
2.34691
1.42687
0.478887
9.76114
9.28046
8.79087
8.28644
7.76119
7.20923
6.62485
6.00276
5.33844
4.62864
3.87203
3.06985
2.22659
1.35034
0.452602
9.74736
9.23941
8.72348
8.19427
7.64657
7.07534
6.47583
5.84381
5.17587
4.46985
3.72521
2.9436
2.12916
1.28872
0.431505
9.73543
9.20391
8.6653
8.11493
7.5483
6.96109
6.34937
5.70978
5.03976
4.33785
3.60406
2.84014
2.04979
1.23873
0.414432
9.72514
9.17333
8.61527
8.0469
7.4643
6.86384
6.24226
5.59688
4.92577
4.22799
3.50383
2.75502
1.9848
1.19795
0.400526
9.71631
9.14709
8.57241
7.98873
7.3927
6.78125
6.15168
5.50185
4.8303
4.13644
3.42072
2.68476
1.93136
1.1645
0.389138
9.70874
9.12464
8.53579
7.93913
7.33181
6.71123
6.07516
5.42189
4.75031
4.06006
3.35167
2.6266
1.88725
1.13696
0.379772
9.70229
9.10549
8.50458
7.89694
7.28013
6.65196
6.01059
5.35464
4.68327
3.99628
3.2942
2.57834
1.85075
1.11421
0.372042
9.69679
9.08919
8.47804
7.86112
7.23634
6.60185
5.95614
5.2981
4.62707
3.94297
3.24631
2.53822
1.82047
1.09536
0.365643
9.69212
9.07534
8.45552
7.83076
7.19927
6.55953
5.91026
5.25057
4.57995
3.89838
3.20634
2.50481
1.79529
1.07971
0.360333
9.68816
9.06359
8.43644
7.80505
7.16795
6.52382
5.87162
5.21062
4.54043
3.86106
3.17295
2.47696
1.77433
1.06669
0.355917
9.6848
9.05365
8.42029
7.78332
7.1415
6.49371
5.83909
5.17705
4.50727
3.82981
3.14504
2.4537
1.75685
1.05584
0.35224
9.68196
9.04524
8.40664
7.76497
7.11918
6.46834
5.81172
5.14884
4.47946
3.80363
3.12169
2.43427
1.74226
1.04679
0.349174
9.67956
9.03813
8.39511
7.74949
7.10037
6.44697
5.7887
5.12514
4.45613
3.78169
3.10215
2.41802
1.73007
1.03923
0.346614
9.67753
9.03214
8.38539
7.73644
7.08452
6.42899
5.76934
5.10524
4.43655
3.76331
3.08578
2.40442
1.71987
1.03292
0.344475
9.67583
9.02709
8.3772
7.72545
7.07118
6.41387
5.75308
5.08853
4.42012
3.7479
3.07208
2.39305
1.71135
1.02764
0.342687
9.67439
9.02283
8.3703
7.7162
7.05997
6.40116
5.73941
5.07451
4.40635
3.73498
3.0606
2.38352
1.70421
1.02322
0.341192
9.67318
9.01925
8.3645
7.70842
7.05054
6.39048
5.72794
5.06274
4.3948
3.72416
3.05099
2.37555
1.69825
1.01953
0.339941
9.67216
9.01624
8.35963
7.70189
7.04263
6.38152
5.71833
5.05288
4.38513
3.7151
3.04294
2.36889
1.69325
1.01644
0.338896
9.67131
9.01372
8.35554
7.69641
7.03599
6.37401
5.71027
5.04463
4.37703
3.70752
3.03622
2.36331
1.68908
1.01386
0.338023
9.67059
9.01161
8.35212
7.69182
7.03044
6.36773
5.70353
5.03772
4.37027
3.70119
3.0306
2.35866
1.6856
1.01171
0.337294
9.67
9.00984
8.34926
7.688
7.0258
6.36249
5.69791
5.03196
4.36462
3.69591
3.02592
2.35478
1.6827
1.00991
0.336687
9.6695
9.00837
8.34688
7.68481
7.02194
6.35813
5.69323
5.02717
4.35993
3.69152
3.02202
2.35156
1.68029
1.00842
0.336183
9.66909
9.00715
8.34491
7.68217
7.01875
6.35451
5.68936
5.02321
4.35605
3.68789
3.0188
2.34889
1.6783
1.00719
0.335766
9.66875
9.00615
8.34329
7.67999
7.01612
6.35154
5.68617
5.01995
4.35285
3.68491
3.01616
2.3467
1.67666
1.00618
0.335423
9.66847
9.00533
8.34197
7.67822
7.01397
6.34912
5.68357
5.01729
4.35025
3.68247
3.014
2.34492
1.67533
1.00535
0.335144
9.66825
9.00468
8.3409
7.6768
7.01225
6.34717
5.68149
5.01516
4.34817
3.68052
3.01228
2.34349
1.67426
1.00469
0.33492
9.66808
9.00416
8.34007
7.67568
7.01091
6.34565
5.67986
5.01349
4.34653
3.679
3.01092
2.34237
1.67342
1.00417
0.334745
9.66794
9.00377
8.33944
7.67484
7.00989
6.3445
5.67862
5.01223
4.3453
3.67784
3.0099
2.34152
1.67279
1.00378
0.334613
9.66785
9.0035
8.339
7.67425
7.00917
6.34369
5.67775
5.01134
4.34442
3.67703
3.00917
2.34092
1.67234
1.00351
0.334519
9.66779
9.00333
8.33872
7.67388
7.00872
6.34319
5.67722
5.01079
4.34389
3.67652
3.00873
2.34056
1.67206
1.00334
0.334462
9.66777
9.00326
8.33861
7.67374
7.00855
6.34299
5.677
5.01057
4.34367
3.67632
3.00855
2.34041
1.67195
1.00327
0.334439
9.66778
9.0033
8.33867
7.6738
7.00863
6.34308
5.6771
5.01067
4.34377
3.67642
3.00863
2.34048
1.672
1.0033
0.334449
9.66783
9.00343
8.33888
7.67409
7.00897
6.34346
5.67752
5.01109
4.34419
3.6768
3.00898
2.34076
1.67222
1.00343
0.334494
9.6679
9.00366
8.33926
7.67459
7.00959
6.34416
5.67826
5.01185
4.34493
3.6775
3.00959
2.34127
1.6726
1.00367
0.334573
9.66802
9.00401
8.33982
7.67534
7.01049
6.34518
5.67936
5.01297
4.34603
3.67852
3.0105
2.34202
1.67316
1.00401
0.334691
9.66818
9.00447
8.34057
7.67635
7.01171
6.34656
5.68084
5.01449
4.34751
3.67991
3.01173
2.34304
1.67392
1.00448
0.334849
9.66838
9.00507
8.34155
7.67766
7.01329
6.34835
5.68275
5.01644
4.34942
3.6817
3.01331
2.34435
1.6749
1.00509
0.335054
9.66864
9.00583
8.34277
7.6793
7.01527
6.35058
5.68514
5.0189
4.35182
3.68394
3.0153
2.34599
1.67613
1.00585
0.335311
9.66895
9.00676
8.34428
7.68131
7.01771
6.35334
5.6881
5.02192
4.35478
3.68671
3.01775
2.34802
1.67765
1.00679
0.335629
9.66934
9.0079
8.34611
7.68378
7.02069
6.35671
5.69171
5.02561
4.3584
3.69009
3.02075
2.3505
1.6795
1.00793
0.336017
9.6698
9.00927
8.34834
7.68675
7.0243
6.36078
5.69607
5.03008
4.36277
3.69418
3.02437
2.3535
1.68174
1.00932
0.336486
9.67036
9.01092
8.35101
7.69034
7.02863
6.36568
5.70133
5.03546
4.36804
3.6991
3.02874
2.35712
1.68445
1.01099
0.337052
9.67103
9.0129
8.35422
7.69463
7.03383
6.37156
5.70763
5.04192
4.37437
3.70502
3.03399
2.36146
1.6877
1.013
0.337732
9.67183
9.01527
8.35806
7.69977
7.04005
6.3786
5.71518
5.04964
4.38194
3.7121
3.04027
2.36667
1.69159
1.01541
0.338547
9.67279
9.0181
8.36263
7.7059
7.04748
6.387
5.72419
5.05888
4.39099
3.72058
3.04779
2.37289
1.69625
1.01829
0.339522
9.67393
9.02146
8.36808
7.71321
7.05633
6.39702
5.73494
5.0699
4.4018
3.73069
3.05677
2.38034
1.70182
1.02174
0.340688
9.67528
9.02547
8.37457
7.72191
7.06687
6.40895
5.74776
5.08304
4.41469
3.74277
3.06749
2.38922
1.70847
1.02585
0.342082
9.67689
9.03023
8.38229
7.73225
7.07941
6.42316
5.76302
5.0987
4.43006
3.75717
3.08029
2.39984
1.71642
1.03077
0.343747
9.6788
9.03589
8.39145
7.74455
7.09432
6.44006
5.78119
5.11735
4.44838
3.77436
3.09556
2.41251
1.72591
1.03665
0.345737
9.68107
9.0426
8.40233
7.75915
7.11204
6.46015
5.8028
5.13956
4.47022
3.79485
3.11379
2.42764
1.73726
1.04368
0.348116
9.68376
9.05055
8.41523
7.77648
7.13308
6.48403
5.82852
5.166
4.49624
3.81929
3.13555
2.44572
1.75081
1.05208
0.350961
9.68694
9.05998
8.43053
7.79702
7.15805
6.51239
5.85909
5.19748
4.52724
3.84845
3.16153
2.46733
1.76703
1.06213
0.354367
9.6907
9.07113
8.44863
7.82136
7.18766
6.54607
5.89543
5.23494
4.5642
3.88324
3.19257
2.49317
1.78644
1.07417
0.358446
9.69515
9.08431
8.47004
7.85018
7.22275
6.58602
5.93861
5.27952
4.60824
3.92477
3.22968
2.5241
1.80969
1.0886
0.363339
9.70041
9.09987
8.49533
7.88425
7.26428
6.63339
5.98989
5.33256
4.66074
3.97437
3.27407
2.56115
1.83759
1.10593
0.369216
9.70659
9.11821
8.52516
7.92448
7.31341
6.68951
6.05076
5.39566
4.72333
4.03364
3.32723
2.6056
1.87109
1.12677
0.376287
9.71387
9.13978
8.56029
7.97192
7.37144
6.75595
6.123
5.47072
4.79799
4.1045
3.39094
2.659
1.91142
1.15187
0.384812
9.7224
9.16512
8.60158
8.02776
7.43989
6.8345
6.20864
5.55999
4.88705
4.18931
3.46741
2.72325
1.96005
1.1822
0.395117
9.7324
9.19479
8.65
8.09338
7.52049
6.92726
6.3101
5.66612
4.99332
4.29088
3.55932
2.80074
2.01884
1.21893
0.407611
9.74406
9.22945
8.70663
8.17027
7.61522
7.03663
6.43018
5.79224
5.12018
4.41267
3.67001
2.8944
2.09014
1.26358
0.422817
9.75763
9.26979
8.77267
8.26015
7.72627
7.16535
6.57212
5.94205
5.27165
4.55886
3.80356
3.00795
2.17693
1.31808
0.441406
9.77335
9.31658
8.84939
8.36485
7.85611
7.31648
6.73963
6.11987
5.45254
4.73457
3.96508
3.14609
2.28303
1.38495
0.464259
9.79149
9.37061
8.93815
8.48635
8.00738
7.49344
6.93693
6.3307
5.66859
4.94603
4.16097
3.31484
2.41344
1.46752
0.492547
9.81229
9.43267
9.04035
8.62671
8.18292
7.69997
7.16873
6.58033
5.92659
5.20088
4.39926
3.52195
2.57476
1.57027
0.527858
9.83602
9.50353
9.15733
8.78799
8.38565
7.93999
7.44022
6.87532
6.23455
5.50842
4.69011
3.77756
2.77586
1.69934
0.572407
9.86291
9.58391
9.29038
8.97217
8.61845
8.21758
7.75692
7.22296
6.60178
5.87995
5.04638
4.09508
3.02889
1.86342
0.629371
9.89312
9.67439
9.44057
9.18098
8.88399
8.53666
8.12448
7.63116
7.03887
6.32905
5.48438
4.49236
3.35085
2.07512
0.703478
9.92678
9.77533
9.60864
9.41574
9.18445
8.90077
8.54837
8.10806
7.55754
6.87177
6.02469
4.99341
3.76601
2.35341
0.802103
9.9639
9.88684
9.79488
9.67715
9.52126
9.31256
9.03327
8.66146
8.1701
7.52646
6.69289
5.63064
4.30976
2.72801
0.937458
10.0044
10.0087
9.99902
9.96504
9.89471
9.77334
9.58237
9.29784
8.88836
8.31301
7.51984
6.44743
5.03464
3.24759
1.13139
10.0481
10.1402
10.22
10.2781
10.3036
10.2824
10.1964
10.0209
9.72176
9.25077
8.54066
7.50055
6.01939
3.99571
1.42711
10.0945
10.2803
10.456
10.6139
10.7448
10.8364
10.8725
10.8299
10.6744
10.3545
9.79059
8.85988
7.38083
5.12221
1.92118
10.1432
10.4274
10.7043
10.9685
11.2131
11.429
11.6033
11.7172
11.7412
11.6276
11.2952
10.5999
9.28356
6.90311
2.8606
10.1935
10.5794
10.9614
11.3367
11.7014
12.0504
12.376
12.6667
12.9034
13.0527
13.0516
12.7712
11.9252
9.83815
4.96575
10.2447
10.734
11.2232
11.7122
12.2006
12.6878
13.1729
13.6537
14.1262
14.582
15.0018
15.3352
15.4284
14.7074
10.5841
10.2958
10.8887
11.4852
12.088
12.7005
13.3268
13.9726
14.6463
15.3605
16.1363
17.0118
18.066
19.4969
21.9391
28.0391
10.3462
11.0409
11.7427
12.4571
13.1907
13.952
14.7529
15.6107
16.552
17.6212
18.8974
20.535
22.8628
26.6305
33.5131
10.3949
11.188
11.9914
12.8128
13.6615
14.5497
15.4937
16.5169
17.6545
18.962
20.5319
22.5246
25.2286
29.1583
35.152
0.608941
1.09099
1.30098
1.37882
1.3798
1.33113
1.24831
1.14108
1.01599
0.877658
0.729487
0.574077
0.413488
0.249423
0.0833589
0.326624
0.747585
0.983796
1.10025
1.13834
1.12307
1.07008
0.989681
0.888977
0.773087
0.645828
0.510151
0.368423
0.222619
0.0744628
0.205613
0.532472
0.749767
0.876077
0.933927
0.941193
0.910883
0.85237
0.772503
0.676404
0.568007
0.450421
0.326185
0.197446
0.0661001
0.143188
0.393439
0.578916
0.699442
0.764632
0.7854
0.771262
0.729881
0.667293
0.588254
0.496561
0.395306
0.287071
0.174082
0.0583296
0.105848
0.299386
0.453163
0.561226
0.626179
0.653841
0.65055
0.622111
0.5735
0.508885
0.431751
0.345034
0.251256
0.152635
0.0511882
0.0811176
0.23294
0.359152
0.452941
0.513617
0.543769
0.547297
0.528344
0.490814
0.438206
0.373591
0.299662
0.2188
0.13315
0.0446918
0.0636177
0.184275
0.287655
0.367647
0.422247
0.452182
0.45965
0.447471
0.418595
0.375861
0.321896
0.259102
0.189667
0.115613
0.0388374
0.050685
0.147608
0.232397
0.299981
0.348001
0.376191
0.385642
0.378188
0.355995
0.32131
0.27633
0.22315
0.16374
0.0999656
0.033607
0.0408401
0.119366
0.189083
0.2459
0.287522
0.31321
0.32337
0.319138
0.302067
0.273904
0.236457
0.191521
0.140842
0.0861114
0.0289703
0.0331855
0.0972389
0.154725
0.202369
0.238104
0.26101
0.271088
0.269001
0.255838
0.232942
0.201782
0.163879
0.120757
0.0739299
0.0248886
0.0271399
0.0796719
0.127201
0.167106
0.197594
0.217716
0.227253
0.226551
0.216365
0.197716
0.171789
0.139858
0.103245
0.0632849
0.0213179
0.0223077
0.0655781
0.104971
0.138379
0.16428
0.181771
0.190524
0.190686
0.182768
0.167543
0.145962
0.119088
0.0880554
0.054033
0.0182112
0.0184094
0.0541764
0.0868954
0.114866
0.136804
0.151892
0.15976
0.16043
0.154243
0.141782
0.123808
0.101206
0.074941
0.0460302
0.0155215
0.0152412
0.0448907
0.0721167
0.0955393
0.114084
0.127026
0.133993
0.134935
0.130073
0.119847
0.104868
0.0858663
0.063663
0.0391365
0.0132026
0.0126514
0.0372876
0.0599787
0.0795997
0.0952524
0.106307
0.112409
0.113469
0.109626
0.101213
0.0887191
0.0727493
0.0539978
0.0332198
0.0112108
0.0105242
0.0310348
0.0499721
0.066415
0.0796136
0.0890251
0.094326
0.0954065
0.0923513
0.0854129
0.074983
0.0615633
0.0457393
0.0281575
0.00950561
0.00877038
0.0258742
0.0416974
0.0554826
0.066604
0.0745972
0.0791726
0.080215
0.0777721
0.0720363
0.0633225
0.0520462
0.0387009
0.0238382
0.00804979
0.00731991
0.0216027
0.0348374
0.0463994
0.0557661
0.062542
0.0664719
0.0674431
0.065479
0.0607268
0.0534409
0.0439654
0.0327158
0.0201616
0.00680995
0.00611732
0.0180588
0.0291387
0.0388402
0.0467267
0.0524626
0.0558252
0.0567089
0.0551214
0.0511762
0.0450793
0.0371162
0.0276363
0.0170385
0.00575632
0.00511824
0.015113
0.0243968
0.032541
0.0391804
0.0440308
0.0468995
0.04769
0.0464007
0.0431192
0.0380132
0.0313198
0.0233329
0.0143906
0.00486265
0.00428694
0.0126609
0.0204462
0.0272864
0.032876
0.0369746
0.0394164
0.040115
0.039063
0.0363287
0.0320491
0.0264214
0.0196926
0.0121493
0.00410595
0.00359444
0.0106174
0.0171516
0.0229
0.0276067
0.0310686
0.0331436
0.0337552
0.0328931
0.030611
0.027021
0.0222873
0.0166179
0.0102551
0.00346627
0.00301711
0.00891329
0.0144025
0.0192369
0.0232017
0.0261253
0.0278866
0.0284184
0.0277092
0.0258011
0.0227867
0.0188028
0.0140245
0.00865667
0.00292633
0.0025356
0.00749165
0.0121081
0.0161774
0.0195193
0.021989
0.0234831
0.0239432
0.0233574
0.0217594
0.0192254
0.0158699
0.0118403
0.00730989
0.00247131
0.00213404
0.00630581
0.0101934
0.0136228
0.0164425
0.0185301
0.0197974
0.020194
0.0197083
0.0183674
0.0162343
0.013405
0.0100037
0.00617707
0.0020885
0.00179935
0.00531726
0.00859672
0.0114916
0.013874
0.0156405
0.0167161
0.0170572
0.016653
0.0155253
0.0137265
0.0113373
0.00846236
0.00522607
0.00176709
0.00152074
0.00449425
0.00726706
0.00971599
0.0117331
0.0132307
0.0141447
0.0144378
0.0141
0.013149
0.0116286
0.0096067
0.00717189
0.00442965
0.00149789
0.00128933
0.00381057
0.00616225
0.00824018
0.00995291
0.0112258
0.0120044
0.0122564
0.0119728
0.011168
0.00987888
0.00816276
0.00609483
0.00376481
0.00127314
0.00109778
0.0032446
0.00524748
0.0070179
0.00847801
0.0095642
0.0102297
0.0104468
0.0102073
0.00952322
0.00842556
0.00696305
0.00519972
0.00321218
0.00108631
0.000940056