/*--------------------------------*- C++ -*----------------------------------*\
| =========                 |                                                 |
| \\      /  F ield         | OpenFOAM: The Open Source CFD Toolbox           |
|  \\    /   O peration     | Version:  5.x                                   |
|   \\  /    A nd           | Web:      www.OpenFOAM.org                      |
|    \\/     M anipulation  |                                                 |
\*---------------------------------------------------------------------------*/
FoamFile
{
    version     2.0;
    format      ascii;
    class       volScalarField;
    location    "1";
    object      gradTy;
}
// * * * * * * * * * * * * * * * * * * * * * * * * * * * * * * * * * * * * * //

dimensions      [0 -1 0 1 0 0 0];

internalField   nonuniform List<scalar> 
3200
(
2.26369
-2.25279
-2.20199
1.12899
-2.21891
1.9934
-2.05106
1.98351
-2.2412
0.156131
2.23031
-1.58471
1.76953
-1.55609
1.64213
-1.44768
1.52996
-1.33038
1.41445
-1.20878
1.29447
-1.08464
1.17093
-0.960133
1.04563
-0.837726
0.920877
-0.719938
0.799199
-0.609086
0.683071
-0.507096
0.574689
-0.41536
0.475796
-0.33468
0.387568
-0.265265
0.310583
-0.2068
0.244844
-0.158555
0.189867
-0.119512
0.144794
-0.0885163
0.108461
-0.0646704
0.0783309
-0.0526873
0.0214857
0.0510654
-0.0191602
0.0286835
-0.0140084
0.0189116
-0.00899402
0.0123048
-0.00554779
0.00777238
-0.00331813
0.00476304
-0.00193422
0.00283945
-0.00110564
0.00165412
-0.000623879
0.000946884
-0.000349759
0.000535868
-0.000195687
0.000303172
-0.000102051
0.000164601
-5.1014e-05
9.64058e-05
1.9513e-05
4.5827e-06
1.15928e-06
3.83666e-07
1.59728
-1.58906
-1.59659
0.658699
-1.4811
1.28259
-1.33478
1.27357
-1.51966
0.111734
1.53553
-0.997544
1.16201
-0.99884
1.07471
-0.929503
1.00191
-0.853249
0.927202
-0.774177
0.849524
-0.693557
0.769405
-0.612845
0.687977
-0.533669
0.606724
-0.457668
0.527292
-0.386333
0.451311
-0.320883
0.38024
-0.262186
0.315251
-0.210717
0.257151
-0.16657
0.206354
-0.129502
0.162897
-0.0990066
0.126491
-0.0744038
0.0965936
-0.054936
0.0724376
-0.0400968
0.0520478
-0.0341594
0.0153088
0.0362599
-0.0110071
0.0194207
-0.00844743
0.012754
-0.00540629
0.00831169
-0.00330868
0.00526079
-0.00196205
0.00323002
-0.00113426
0.00192867
-0.00064362
0.00112498
-0.000361064
0.000644561
-0.000201623
0.00036498
-0.000112484
0.000206829
-5.76997e-05
0.000112615
-2.7887e-05
6.77003e-05
1.7024e-05
4.11343e-06
1.04529e-06
3.45616e-07
1.05806
-1.05286
-1.0821
0.363802
-0.93984
0.786601
-0.827937
0.77928
-0.975527
0.0752367
0.998639
-0.598474
0.726923
-0.611335
0.670048
-0.569089
0.624998
-0.521858
0.578926
-0.472864
0.530982
-0.42297
0.481451
-0.373104
0.431014
-0.324289
0.380582
-0.27754
0.331176
-0.233771
0.283817
-0.19372
0.239428
-0.157901
0.198758
-0.126583
0.16233
-0.0998
0.130424
-0.0773786
0.103082
-0.0589886
0.0801407
-0.0441965
0.0612728
-0.03253
0.0459953
-0.0237233
0.032888
-0.0210672
0.0102655
0.0241776
-0.00596626
0.0124864
-0.00485192
0.00816866
-0.00309538
0.00533081
-0.00187822
0.00338008
-0.00110321
0.00207876
-0.000631777
0.00124301
-0.000355459
0.00072585
-0.000198051
0.000416207
-0.000110077
0.000235794
-6.11979e-05
0.000133804
-3.07687e-05
7.30411e-05
-1.42191e-05
4.48332e-05
1.30145e-05
3.24188e-06
8.28881e-07
2.73545e-07
0.60301
-0.600255
-0.62696
0.178533
-0.520144
0.423888
-0.450329
0.419111
-0.543968
0.0434869
0.562225
-0.316635
0.398062
-0.328927
0.365903
-0.306294
0.341441
-0.28064
0.316497
-0.254019
0.290521
-0.226935
0.263651
-0.199903
0.236249
-0.173483
0.208805
-0.148228
0.181875
-0.12463
0.156019
-0.103083
0.131746
-0.0838553
0.109473
-0.0670832
0.089494
-0.0527739
0.0719711
-0.0408241
0.0569357
-0.0310472
0.0443049
-0.0232026
0.0339049
-0.0170324
0.0254699
-0.0124138
0.018142
-0.0113937
0.00591322
0.0138529
-0.00287283
0.00698086
-0.002473
0.00455298
-0.00157347
0.00297424
-0.000947315
0.00188836
-0.000551508
0.00116279
-0.000313018
0.000696033
-0.000174675
0.000406785
-9.66738e-05
0.000233391
-5.34823e-05
0.000132273
-2.96293e-05
7.51342e-05
-1.45948e-05
4.10937e-05
-6.41647e-06
2.55909e-05
8.11478e-06
2.0687e-06
5.31672e-07
1.74768e-07
0.195904
-0.194942
-0.20534
0.0531949
-0.166394
0.133668
-0.142706
0.132007
-0.174662
0.0142578
0.181491
-0.0987548
0.126658
-0.103597
0.116243
-0.0964882
0.108494
-0.0883659
0.100606
-0.0799361
0.0923892
-0.0713637
0.0838837
-0.0628141
0.0752024
-0.0544659
0.0665003
-0.0464937
0.0579538
-0.0390527
0.0497409
-0.0322664
0.0420244
-0.0262182
0.0349376
-0.0209493
0.0285759
-0.0164601
0.0229922
-0.0127164
0.0181978
-0.00965759
0.0141676
-0.00720682
0.0108472
-0.00528217
0.00815175
-0.00384864
0.00579406
-0.00359856
0.00193198
0.00451198
-0.000844848
0.00224584
-0.00075468
0.00146228
-0.000479413
0.000955745
-0.000287242
0.000607236
-0.0001663
0.000374161
-9.38512e-05
0.000224096
-5.20963e-05
0.000131027
-2.87068e-05
7.51998e-05
-1.58328e-05
4.26275e-05
-8.75092e-06
2.42259e-05
-4.25126e-06
1.32638e-05
-1.80257e-06
8.32153e-06
2.75257e-06
7.1047e-07
1.83087e-07
5.91169e-08
-0.19566
0.195066
0.205435
-0.0531059
0.166481
-0.133584
0.142786
-0.13193
0.174735
-0.0141877
-0.181424
0.0988189
-0.126597
0.103655
-0.116187
0.0965401
-0.108446
0.0884113
-0.100564
0.0799751
-0.0923534
0.0713965
-0.0838539
0.0628411
-0.0751782
0.0544875
-0.0664811
0.0465106
-0.057939
0.0390656
-0.0497299
0.0322758
-0.0420164
0.026225
-0.034932
0.0209539
-0.0285722
0.0164631
-0.0229899
0.0127182
-0.0181965
0.00965857
-0.014167
0.00720726
-0.010847
0.00528227
-0.00815178
0.00384848
-0.00579435
0.00359818
-0.00193241
-0.00451239
0.000844516
-0.00224609
0.000754493
-0.00146242
0.000479295
-0.000955843
0.000287161
-0.000607303
0.000166245
-0.000374205
9.38153e-05
-0.000224124
5.20738e-05
-0.000131045
2.86932e-05
-7.52104e-05
1.58246e-05
-4.26339e-05
8.746e-06
-2.42297e-05
4.24835e-06
-1.3266e-05
1.80119e-06
-8.32216e-06
-2.75249e-06
-7.0997e-07
-1.83053e-07
-6.20145e-08
-0.602839
0.600345
0.627029
-0.178467
0.520209
-0.423826
0.450389
-0.419053
0.544023
-0.043434
-0.562174
0.316683
-0.398016
0.328971
-0.365861
0.306334
-0.341404
0.280675
-0.316464
0.254049
-0.290493
0.22696
-0.263628
0.199924
-0.23623
0.1735
-0.208789
0.148242
-0.181863
0.124641
-0.15601
0.103091
-0.13174
0.083861
-0.109468
0.0670873
-0.0894906
0.0527766
-0.0719689
0.0408259
-0.0569343
0.0310483
-0.0443041
0.0232032
-0.0339045
0.0170327
-0.0254698
0.0124138
-0.0181421
0.0113935
-0.00591344
-0.0138531
0.00287265
-0.00698099
0.0024729
-0.00455305
0.00157341
-0.00297429
0.000947271
-0.0018884
0.000551477
-0.00116281
0.000312998
-0.000696049
0.000174663
-0.000406795
9.66661e-05
-0.000233397
5.34776e-05
-0.000132277
2.96265e-05
-7.51364e-05
1.45931e-05
-4.1095e-05
6.41571e-06
-2.55912e-05
-8.1146e-06
-2.06825e-06
-5.3154e-07
-1.76753e-07
-1.05802
1.05288
1.08212
-0.363784
0.939859
-0.786582
0.827955
-0.779262
0.975544
-0.0752202
-0.998623
0.598489
-0.726908
0.611349
-0.670034
0.569102
-0.624985
0.521869
-0.578915
0.472874
-0.530972
0.422979
-0.481443
0.373112
-0.431007
0.324296
-0.380576
0.277546
-0.331171
0.233776
-0.283813
0.193724
-0.239425
0.157904
-0.198755
0.126586
-0.162328
0.0998016
-0.130422
0.0773797
-0.103081
0.0589894
-0.08014
0.0441971
-0.0612724
0.0325304
-0.045995
0.0237235
-0.0328878
0.0210673
-0.0102654
-0.0241775
0.00596631
-0.0124863
0.00485196
-0.00816863
0.0030954
-0.00533079
0.00187823
-0.00338007
0.00110322
-0.00207875
0.00063178
-0.00124301
0.000355461
-0.000725849
0.000198052
-0.000416206
0.000110078
-0.000235793
6.11983e-05
-0.000133804
3.07689e-05
-7.3041e-05
1.42193e-05
-4.4833e-05
-1.30143e-05
-3.24164e-06
-8.28683e-07
-2.73869e-07
-1.59743
1.58899
1.59654
-0.658748
1.48105
-1.28264
1.33473
-1.27361
1.51962
-0.111771
-1.53557
0.99751
-1.16204
0.998809
-1.07474
0.929475
-1.00194
0.853225
-0.927224
0.774156
-0.849542
0.69354
-0.76942
0.612831
-0.687989
0.533658
-0.606734
0.45766
-0.5273
0.386327
-0.451317
0.320879
-0.380244
0.262183
-0.315253
0.210715
-0.257152
0.166569
-0.206354
0.129501
-0.162897
0.0990064
-0.126491
0.0744038
-0.0965935
0.0549361
-0.0724374
0.040097
-0.0520475
0.0341597
-0.0153084
-0.0362596
0.0110074
-0.0194205
0.00844757
-0.0127538
0.00540638
-0.00831162
0.00330874
-0.00526074
0.00196209
-0.00322999
0.00113429
-0.00192865
0.000643636
-0.00112497
0.000361074
-0.000644553
0.000201629
-0.000364975
0.000112487
-0.000206826
5.77017e-05
-0.000112613
2.7888e-05
-6.76998e-05
-1.7024e-05
-4.11364e-06
-1.04522e-06
-3.43848e-07
-2.26399
2.25263
2.20186
-1.12911
2.21879
-1.99352
2.05095
-1.98362
2.24109
-0.156232
-2.23041
1.58461
-1.76962
1.556
-1.64221
1.44761
-1.53004
1.33031
-1.41452
1.20872
-1.29452
1.08459
-1.17097
0.960091
-1.04567
0.837692
-0.920907
0.71991
-0.799223
0.609065
-0.68309
0.507079
-0.574704
0.415348
-0.475806
0.334671
-0.387576
0.265259
-0.310588
0.206796
-0.244847
0.158552
-0.189869
0.11951
-0.144795
0.0885154
-0.108461
0.06467
-0.078331
0.0526874
-0.0214855
-0.0510651
0.0191604
-0.0286833
0.0140085
-0.0189115
0.00899409
-0.0123047
0.00554784
-0.00777233
0.00331817
-0.00476301
0.00193425
-0.00283942
0.00110566
-0.00165411
0.000623889
-0.000946875
0.000349766
-0.000535863
0.000195691
-0.000303169
0.000102053
-0.000164599
5.1015e-05
-9.64056e-05
-1.95136e-05
-4.58368e-06
-1.15971e-06
-3.80228e-07
-0.893503
0.400697
-1.14972
0.959493
-1.19754
1.12408
-1.28166
1.17247
-1.56135
-0.0241891
1.57149
-1.24677
1.33704
-1.26429
1.30103
-1.21435
1.25737
-1.1491
1.19919
-1.07514
1.12999
-0.996066
1.0535
-0.914857
0.973
-0.833943
0.891283
-0.755217
0.810592
-0.680053
0.732633
-0.609352
0.658608
-0.543615
0.589271
-0.483024
0.525001
-0.427529
0.465888
-0.376938
0.411828
-0.330993
0.3626
-0.289428
0.317917
-0.252082
0.277167
-0.22024
0.233808
-0.221481
0.0381918
0.218929
-0.130979
0.157279
-0.119916
0.133633
-0.104049
0.115083
-0.0906121
0.0996675
-0.0797856
0.0870693
-0.071307
0.0770601
-0.0647046
0.069601
-0.0579779
0.0633518
-0.0483418
0.055002
-0.0366017
0.0436691
-0.0265244
0.0355384
-0.00702774
0.0165329
0.00334685
0.000775848
0.000186739
5.47573e-05
-0.650553
0.219094
-0.775156
0.60834
-0.786308
0.721948
-0.839838
0.742931
-1.06926
-0.0163894
1.07376
-0.792723
0.873552
-0.815776
0.848347
-0.782901
0.820877
-0.739703
0.783854
-0.691105
0.739419
-0.639454
0.690013
-0.586643
0.637812
-0.534211
0.58466
-0.483343
0.532054
-0.434892
0.481138
-0.389407
0.432725
-0.347182
0.387329
-0.308308
0.345217
-0.272737
0.306463
-0.240332
0.271005
-0.210919
0.238703
-0.184325
0.209367
-0.160469
0.182506
-0.140562
0.152321
-0.148236
0.0272714
0.152236
-0.0809077
0.104218
-0.0760609
0.0881293
-0.0661359
0.075833
-0.0576575
0.0656155
-0.0508466
0.0572478
-0.0455345
0.0505915
-0.0413911
0.0456953
-0.0370361
0.0417561
-0.0306415
0.0364853
-0.0229145
0.0291175
-0.016338
0.0242426
-0.00334834
0.0116764
0.00292184
0.000696341
0.000168314
4.93832e-05
-0.442677
0.111649
-0.49611
0.367898
-0.491609
0.442208
-0.524204
0.448788
-0.692161
-0.0104719
0.693919
-0.480362
0.543918
-0.50176
0.527131
-0.481197
0.510628
-0.45399
0.488149
-0.423589
0.460935
-0.391452
0.430509
-0.358729
0.398239
-0.326348
0.36529
-0.295018
0.332609
-0.265243
0.300925
-0.237342
0.27076
-0.211478
0.242447
-0.187696
0.216164
-0.165953
0.191963
-0.146158
0.169811
-0.128201
0.149624
-0.111974
0.13128
-0.0974405
0.114418
-0.0855847
0.0945132
-0.0940869
0.0183241
0.0998236
-0.0476072
0.0657358
-0.0460184
0.0553325
-0.0401008
0.0475755
-0.0349974
0.0411311
-0.0309096
0.0358437
-0.0277343
0.0316329
-0.0252529
0.0285713
-0.0225647
0.0262
-0.0185289
0.0230243
-0.0136888
0.0184621
-0.00959534
0.015672
-0.00137461
0.00777051
0.00223531
0.000548727
0.000133396
3.9171e-05
-0.257247
0.0503402
-0.276291
0.19604
-0.268999
0.238122
-0.286497
0.238855
-0.388314
-0.00579814
0.388893
-0.256264
0.296768
-0.271034
0.287104
-0.25979
0.278354
-0.24482
0.266334
-0.22818
0.25168
-0.210662
0.235225
-0.192882
0.21772
-0.175333
0.199807
-0.15839
0.18201
-0.142317
0.164734
-0.127278
0.148269
-0.113353
0.132804
-0.100561
0.118439
-0.0888737
0.105207
-0.0782394
0.0930913
-0.0685964
0.082047
-0.0598864
0.0720066
-0.0520962
0.0627487
-0.0458644
0.0514047
-0.0520229
0.010572
0.0565306
-0.0247721
0.036226
-0.024529
0.0303806
-0.0214144
0.0261058
-0.0187056
0.0225551
-0.016541
0.0196377
-0.0148654
0.0173124
-0.0135537
0.0156365
-0.0120971
0.014377
-0.00987301
0.0126895
-0.00722111
0.0102125
-0.00498756
0.00879273
-0.000449371
0.00445133
0.00139455
0.0003501
8.55309e-05
2.51302e-05
-0.0843188
0.0141673
-0.0886654
0.0614423
-0.0855101
0.075073
-0.09102
0.0747948
-0.125079
-0.00183181
0.125244
-0.0803061
0.0942441
-0.0855478
0.0910821
-0.0819766
0.0883466
-0.0772036
0.0845718
-0.0719128
0.0799519
-0.0663557
0.0747517
-0.0607254
0.0692106
-0.0551762
0.0635335
-0.049825
0.0578881
-0.0447535
0.0524039
-0.0400121
0.0471746
-0.035625
0.0422607
-0.0315967
0.037695
-0.0279178
0.0334884
-0.0245714
0.0296361
-0.0215376
0.0261239
-0.0187981
0.0229302
-0.0163498
0.0199802
-0.0144138
0.0162923
-0.016629
0.00345874
0.0183038
-0.00765118
0.011566
-0.00768481
0.00967976
-0.00671634
0.00831488
-0.0058698
0.00718135
-0.0051943
0.00624927
-0.00467243
0.005506
-0.00426352
0.00497279
-0.003803
0.00457875
-0.00309315
0.00405075
-0.0022494
0.00326653
-0.00154016
0.00283354
-9.03359e-05
0.00145015
0.000473136
0.000120179
2.94361e-05
8.63978e-06
0.0845728
-0.0140437
0.0887545
-0.0613608
0.08559
-0.0749955
0.0910954
-0.0747217
0.125149
0.00190019
-0.125178
0.0803704
-0.0941818
0.0856079
-0.0910242
0.0820322
-0.0882933
0.0772545
-0.0845232
0.0719591
-0.0799079
0.0663975
-0.0747122
0.0607628
-0.0691753
0.0552096
-0.0635021
0.0498546
-0.0578603
0.0447796
-0.0523794
0.040035
-0.0471531
0.0356451
-0.0422418
0.0316142
-0.0376786
0.0279331
-0.0334741
0.0245846
-0.0296238
0.021549
-0.0261133
0.0188079
-0.0229211
0.0163581
-0.0199726
0.0144206
-0.0162863
0.0166342
-0.00345424
-0.0182997
0.00765497
-0.0115625
0.00768813
-0.00967673
0.00671909
-0.00831244
0.00587195
-0.00717948
0.0051959
-0.00624794
0.0046735
-0.00550518
0.00426409
-0.00497245
0.00380314
-0.0045788
0.00309294
-0.00405108
0.00224899
-0.00326699
0.0015397
-0.00283396
9.00004e-05
-0.00145039
-0.000473283
-0.000120255
-2.94737e-05
-8.68833e-06
0.257425
-0.0502519
0.276357
-0.19598
0.269058
-0.238064
0.286554
-0.2388
0.388367
0.00584966
-0.388843
0.256313
-0.296721
0.27108
-0.28706
0.259833
-0.278313
0.244859
-0.266297
0.228215
-0.251646
0.210694
-0.235195
0.192911
-0.217693
0.175359
-0.199783
0.158413
-0.181989
0.142337
-0.164715
0.127296
-0.148252
0.113369
-0.132789
0.100575
-0.118426
0.0888856
-0.105196
0.0782498
-0.0930817
0.0686053
-0.0820387
0.0598941
-0.0719995
0.0521028
-0.0627427
0.0458698
-0.0514
0.0520271
-0.0105684
-0.0565273
0.0247751
-0.0362232
0.0245316
-0.0303782
0.0214166
-0.0261038
0.0187073
-0.0225535
0.0165424
-0.0196366
0.0148663
-0.0173117
0.0135542
-0.0156362
0.0120973
-0.014377
0.00987295
-0.0126896
0.00722088
-0.0102127
0.00498727
-0.00879299
0.000449154
-0.00445148
-0.00139465
-0.000350149
-8.55548e-05
-2.51632e-05
0.442713
-0.111629
0.496129
-0.36788
0.491626
-0.44219
0.524221
-0.448771
0.692178
0.0104879
-0.693903
0.480377
-0.543903
0.501774
-0.527117
0.48121
-0.510615
0.454002
-0.488137
0.423601
-0.460924
0.391463
-0.430499
0.358739
-0.39823
0.326356
-0.365282
0.295025
-0.332601
0.26525
-0.300918
0.237348
-0.270754
0.211484
-0.242442
0.187701
-0.216159
0.165957
-0.191959
0.146162
-0.169808
0.128204
-0.149621
0.111976
-0.131277
0.0974429
-0.114416
0.0855867
-0.0945114
0.0940886
-0.0183226
-0.0998222
0.0476085
-0.0657346
0.0460195
-0.0553315
0.0401017
-0.0475747
0.0349981
-0.0411304
0.0309102
-0.0358432
0.0277347
-0.0316325
0.0252532
-0.028571
0.0225649
-0.0261999
0.018529
-0.0230242
0.0136888
-0.0184621
0.00959533
-0.015672
0.00137459
-0.00777052
-0.00223532
-0.000548731
-0.000133397
-3.9176e-05
0.650404
-0.219164
0.775107
-0.608384
0.786264
-0.72199
0.839798
-0.74297
1.06922
0.0163527
-1.0738
0.792689
-0.873585
0.815744
-0.848378
0.782871
-0.820906
0.739676
-0.78388
0.69108
-0.739443
0.639432
-0.690034
0.586624
-0.63783
0.534193
-0.584677
0.483328
-0.532069
0.434879
-0.481151
0.389395
-0.432736
0.347171
-0.387339
0.308299
-0.345226
0.272729
-0.30647
0.240325
-0.271011
0.210913
-0.238708
0.18432
-0.209371
0.160465
-0.182509
0.140559
-0.152324
0.148234
-0.0272735
-0.152238
0.0809059
-0.10422
0.0760593
-0.0881308
0.0661345
-0.0758342
0.0576565
-0.0656164
0.0508459
-0.0572484
0.045534
-0.0505918
0.0413909
-0.0456953
0.0370361
-0.041756
0.0306417
-0.036485
0.0229148
-0.0291172
0.0163383
-0.0242423
0.00334855
-0.0116763
-0.00292175
-0.000696293
-0.00016829
-4.93535e-05
0.893183
-0.400859
1.1496
-0.959609
1.19742
-1.12419
1.28155
-1.17257
1.56125
0.0240898
-1.57159
1.24668
-1.33713
1.2642
-1.30111
1.21426
-1.25745
1.14903
-1.19926
1.07507
-1.13006
0.996004
-1.05356
0.914801
-0.973053
0.833893
-0.891331
0.755172
-0.810634
0.680013
-0.73267
0.609317
-0.658641
0.543585
-0.5893
0.482997
-0.525026
0.427505
-0.46591
0.376918
-0.411847
0.330976
-0.362616
0.289413
-0.317932
0.252069
-0.277179
0.220229
-0.233818
0.221473
-0.0381993
-0.218936
0.130973
-0.157285
0.119911
-0.133638
0.104044
-0.115087
0.0906085
-0.0996707
0.0797828
-0.0870716
0.071305
-0.0770617
0.0647034
-0.0696019
0.0579773
-0.0633521
0.0483418
-0.0550018
0.036602
-0.0436687
0.0265249
-0.035538
0.00702809
-0.0165326
-0.00334669
-0.000775766
-0.000186701
-5.47005e-05
-0.894024
0.401083
-1.14976
0.959604
-1.19761
1.12415
-1.28177
1.17256
-1.56152
-0.0242184
1.57167
-1.24692
1.33721
-1.26441
1.30118
-1.21442
1.25748
-1.14909
1.19923
-1.07503
1.12995
-0.995849
1.05335
-0.914524
0.972739
-0.833494
0.890905
-0.754656
0.810098
-0.67939
0.73203
-0.608603
0.657908
-0.542797
0.58849
-0.482157
0.524158
-0.426634
0.465004
-0.376038
0.410925
-0.330106
0.361697
-0.28857
0.317035
-0.251267
0.276321
-0.219471
0.233037
-0.220652
0.0381068
0.218105
-0.130432
0.15665
-0.119398
0.133072
-0.103584
0.114581
-0.0901985
0.0992194
-0.0794192
0.0866707
-0.0709862
0.0767077
-0.0644319
0.0692923
-0.0577698
0.0631023
-0.0482008
0.054822
-0.0365098
0.0435422
-0.0264868
0.0354722
-0.00701753
0.016505
0.00334119
0.000774537
0.000186424
5.46652e-05
-0.650926
0.219349
-0.775167
0.608416
-0.786354
0.721995
-0.839913
0.742983
-1.06938
-0.0164101
1.07388
-0.79282
0.873661
-0.815856
0.848447
-0.782942
0.820952
-0.739691
0.783888
-0.691028
0.739398
-0.639305
0.689925
-0.586419
0.637651
-0.533911
0.584423
-0.482972
0.531741
-0.434456
0.480753
-0.388915
0.432276
-0.346646
0.386826
-0.307743
0.344673
-0.272155
0.30589
-0.239748
0.270418
-0.210344
0.238116
-0.183771
0.208791
-0.159944
0.181953
-0.140066
0.151823
-0.147676
0.0272107
0.151667
-0.0805655
0.103803
-0.0757299
0.087761
-0.065839
0.0755032
-0.0573933
0.065321
-0.0506127
0.0569857
-0.04533
0.0503592
-0.041218
0.0454906
-0.0369057
0.0415894
-0.0305548
0.0363644
-0.0228589
0.0290312
-0.0163174
0.0241969
-0.00334409
0.0116567
0.0029169
0.000695165
0.00016803
4.93001e-05
-0.442927
0.111809
-0.49611
0.367948
-0.491637
0.442236
-0.524251
0.448818
-0.692241
-0.0104856
0.693997
-0.48042
0.543987
-0.501808
0.527195
-0.48122
0.510677
-0.453979
0.488174
-0.423538
0.460926
-0.391356
0.430459
-0.358586
0.398144
-0.326158
0.365148
-0.294783
0.332419
-0.264968
0.300691
-0.237034
0.270485
-0.211145
0.242138
-0.187345
0.215828
-0.165592
0.191609
-0.145797
0.169448
-0.127846
0.14926
-0.111633
0.130922
-0.0971177
0.114075
-0.0852794
0.0942072
-0.0937282
0.0182833
0.0994525
-0.0474034
0.0654754
-0.0458168
0.0551021
-0.0399199
0.0473692
-0.0348364
0.0409468
-0.0307672
0.0356795
-0.02761
0.0314872
-0.0251481
0.0284422
-0.0224867
0.0260942
-0.018478
0.0229471
-0.0136567
0.0184065
-0.00958474
0.0156421
-0.00137335
0.00775733
0.00223153
0.0005478
0.000133171
3.9105e-05
-0.257391
0.0504278
-0.276288
0.196068
-0.269014
0.238137
-0.286523
0.23887
-0.388359
-0.00580602
0.388936
-0.256296
0.296805
-0.27106
0.287139
-0.259802
0.278382
-0.244813
0.266349
-0.22815
0.251677
-0.210608
0.2352
-0.192802
0.217671
-0.175228
0.199732
-0.158261
0.181909
-0.142167
0.164608
-0.127109
0.148121
-0.113171
0.132637
-0.10037
0.118258
-0.0886777
0.105015
-0.0780435
0.092894
-0.0684045
0.0818488
-0.0597021
0.0718116
-0.051922
0.0625614
-0.0456994
0.0512395
-0.0518234
0.0105485
0.0563213
-0.0246648
0.0360831
-0.0244209
0.0302545
-0.0213174
0.0259928
-0.0186193
0.0224541
-0.0164647
0.0195477
-0.0147988
0.0172325
-0.0134978
0.0155654
-0.012056
0.0143184
-0.00984659
0.0126466
-0.00720472
0.0101813
-0.00498274
0.00877581
-0.000449268
0.00444376
0.00139219
0.000349508
8.53865e-05
2.50879e-05
-0.0843659
0.0141951
-0.088664
0.0614513
-0.0855148
0.0750778
-0.0910284
0.0747995
-0.125093
-0.00183438
0.125258
-0.080316
0.094256
-0.0855558
0.0910935
-0.0819801
0.0883556
-0.0772011
0.0845767
-0.0719032
0.0799512
-0.0663383
0.0747441
-0.0606999
0.0691953
-0.0551427
0.0635101
-0.0497839
0.0578564
-0.0447056
0.0523645
-0.0399586
0.0471281
-0.0355672
0.0422081
-0.031536
0.0376376
-0.0278557
0.0334277
-0.0245094
0.0295736
-0.021477
0.0260611
-0.0187399
0.0228683
-0.0162948
0.0199207
-0.0143617
0.0162401
-0.016565
0.00345103
0.0182361
-0.00761785
0.0115205
-0.00765086
0.00963964
-0.00668584
0.00827894
-0.00584267
0.00714923
-0.00517032
0.00622064
-0.00465153
0.00548054
-0.004246
0.0049501
-0.00379019
0.00455999
-0.00308499
0.00403701
-0.00224439
0.00325649
-0.00153879
0.00282807
-9.04053e-05
0.00144768
0.000472335
0.000119976
2.93864e-05
8.62523e-06
0.0846198
-0.0140716
0.0887531
-0.0613698
0.0855946
-0.0750003
0.0911037
-0.0747264
0.125164
0.00190276
-0.125192
0.0803803
-0.0941938
0.0856159
-0.0910355
0.0820357
-0.0883024
0.077252
-0.0845282
0.0719495
-0.0799073
0.06638
-0.0747046
0.0607373
-0.06916
0.0551759
-0.0634787
0.0498134
-0.0578287
0.0447317
-0.05234
0.0399815
-0.0471066
0.0355873
-0.0421893
0.0315535
-0.0376213
0.027871
-0.0334135
0.0245226
-0.0295614
0.0214883
-0.0260505
0.0187496
-0.0228593
0.0163031
-0.0199132
0.0143684
-0.0162342
0.0165702
-0.00344655
-0.018232
0.00762162
-0.0115169
0.00765417
-0.00963661
0.00668857
-0.0082765
0.00584481
-0.00714737
0.00517191
-0.00621931
0.0046526
-0.00547972
0.00424657
-0.00494976
0.00379033
-0.00456004
0.00308479
-0.00403733
0.00224398
-0.00325695
0.00153833
-0.00282848
9.00703e-05
-0.00144792
-0.000472482
-0.000120052
-2.9424e-05
-8.67372e-06
0.257569
-0.0503395
0.276354
-0.196007
0.269073
-0.238079
0.28658
-0.238815
0.388412
0.00585753
-0.388886
0.256344
-0.296758
0.271105
-0.287096
0.259844
-0.278341
0.244852
-0.266312
0.228186
-0.251643
0.21064
-0.23517
0.192831
-0.217643
0.175254
-0.199708
0.158284
-0.181888
0.142187
-0.164589
0.127127
-0.148105
0.113187
-0.132623
0.100383
-0.118245
0.0886896
-0.105004
0.0780538
-0.0928844
0.0684134
-0.0818405
0.0597097
-0.0718046
0.0519285
-0.0625554
0.0457047
-0.0512347
0.0518275
-0.0105448
-0.056318
0.0246679
-0.0360802
0.0244236
-0.030252
0.0213196
-0.0259908
0.018621
-0.0224526
0.0164661
-0.0195466
0.0147998
-0.0172318
0.0134983
-0.0155651
0.0120562
-0.0143184
0.00984652
-0.0126468
0.00720449
-0.0101816
0.00498245
-0.00877608
0.00044905
-0.00444392
-0.00139229
-0.000349558
-8.54105e-05
-2.51209e-05
0.442964
-0.111789
0.496129
-0.36793
0.491655
-0.442219
0.524268
-0.448801
0.692257
0.0105017
-0.693981
0.480436
-0.543972
0.501823
-0.527181
0.481234
-0.510664
0.453992
-0.488162
0.423549
-0.460914
0.391367
-0.430449
0.358596
-0.398135
0.326167
-0.365139
0.294791
-0.332412
0.264975
-0.300684
0.23704
-0.270479
0.21115
-0.242133
0.187349
-0.215824
0.165597
-0.191605
0.145801
-0.169445
0.12785
-0.149257
0.111635
-0.13092
0.0971201
-0.114073
0.0852814
-0.0942053
0.0937299
-0.0182817
-0.0994511
0.0474046
-0.0654743
0.0458179
-0.0551011
0.0399208
-0.0473683
0.0348372
-0.0409461
0.0307678
-0.035679
0.0276104
-0.0314868
0.0251484
-0.028442
0.0224869
-0.026094
0.0184781
-0.0229471
0.0136568
-0.0184064
0.00958474
-0.0156421
0.00137333
-0.00775734
-0.00223154
-0.000547804
-0.000133172
-3.911e-05
0.650777
-0.219419
0.775118
-0.60846
0.786311
-0.722037
0.839872
-0.743023
1.06934
0.0163734
-1.07392
0.792786
-0.873695
0.815824
-0.848478
0.782913
-0.820981
0.739664
-0.783914
0.691004
-0.739421
0.639283
-0.689946
0.5864
-0.637669
0.533894
-0.584439
0.482956
-0.531755
0.434442
-0.480766
0.388903
-0.432287
0.346636
-0.386836
0.307734
-0.344681
0.272147
-0.305897
0.239741
-0.270424
0.210339
-0.238121
0.183766
-0.208796
0.15994
-0.181957
0.140062
-0.151826
0.147673
-0.0272128
-0.151669
0.0805637
-0.103805
0.0757283
-0.0877625
0.0658377
-0.0755044
0.0573923
-0.0653219
0.050612
-0.0569863
0.0453295
-0.0503596
0.0412178
-0.0454907
0.0369057
-0.0415893
0.030555
-0.0363642
0.0228592
-0.0290309
0.0163177
-0.0241966
0.0033443
-0.0116565
-0.00291681
-0.000695117
-0.000168006
-4.92705e-05
0.893704
-0.401245
1.14964
-0.95972
1.1975
-1.12426
1.28167
-1.17266
1.56142
0.0241191
-1.57177
1.24683
-1.3373
1.26433
-1.30126
1.21433
-1.25756
1.14902
-1.1993
1.07496
-1.13001
0.995787
-1.05341
0.914468
-0.972792
0.833444
-0.890952
0.754611
-0.81014
0.679351
-0.732067
0.608568
-0.657941
0.542766
-0.588519
0.48213
-0.524183
0.426611
-0.465026
0.376017
-0.410944
0.330088
-0.361714
0.288555
-0.317049
0.251254
-0.276333
0.21946
-0.233046
0.220643
-0.0381143
-0.218112
0.130426
-0.156656
0.119392
-0.133077
0.10358
-0.114585
0.0901948
-0.0992226
0.0794165
-0.086673
0.0709842
-0.0767093
0.0644306
-0.0692932
0.0577692
-0.0631025
0.0482008
-0.0548219
0.0365101
-0.0435418
0.0264873
-0.0354718
0.00701789
-0.0165047
-0.00334103
-0.000774456
-0.000186386
-5.46084e-05
2.26286
-2.25229
-2.2025
1.12959
-2.21903
1.9937
-2.05095
1.98354
-2.2409
0.156247
2.23
-1.5844
1.76922
-1.5558
1.64182
-1.44746
1.5297
-1.33024
1.41426
-1.20873
1.29436
-1.08469
1.17092
-0.960267
1.04571
-0.83793
0.92104
-0.720189
0.799424
-0.609361
0.683335
-0.50737
0.574968
-0.415613
0.476065
-0.334896
0.38781
-0.265436
0.310784
-0.206923
0.244998
-0.158634
0.189974
-0.119554
0.144859
-0.0885297
0.108492
-0.0646646
0.0783379
-0.0526676
0.0214946
0.0510454
-0.0191406
0.0286632
-0.013991
0.0188925
-0.00898018
0.0122887
-0.0055376
0.00775997
-0.00331111
0.00475409
-0.00192968
0.00283338
-0.00110286
0.00165024
-0.000622256
0.000944524
-0.000348863
0.000534498
-0.000195247
0.000302438
-0.000101871
0.000164253
-5.09612e-05
9.62599e-05
1.94834e-05
4.57576e-06
1.15755e-06
3.83119e-07
1.59669
-1.58875
-1.59692
0.659105
-1.48116
1.2828
-1.33468
1.27361
-1.51945
0.111817
1.53533
-0.997346
1.1618
-0.998659
1.07451
-0.929364
1.00174
-0.853166
0.927072
-0.774154
0.84945
-0.693595
0.769393
-0.612938
0.688025
-0.533806
0.606826
-0.457835
0.527436
-0.386513
0.451482
-0.321061
0.380422
-0.262349
0.315428
-0.210855
0.25731
-0.166678
0.206487
-0.129578
0.163
-0.0990545
0.126563
-0.0744279
0.0966382
-0.0549424
0.0724595
-0.0400915
0.0520536
-0.0341449
0.0153151
0.0362467
-0.0109945
0.0194074
-0.00843626
0.0127414
-0.00539755
0.00830103
-0.00330234
0.0052525
-0.00195774
0.003224
-0.00113151
0.00192458
-0.000641956
0.00112235
-0.000360108
0.000642958
-0.000201104
0.000364045
-0.000112238
0.000206325
-5.76063e-05
0.000112374
-2.78653e-05
6.75969e-05
1.69981e-05
4.1072e-06
1.04374e-06
3.45123e-07
1.05766
-1.05267
-1.0823
0.364063
-0.939863
0.786741
-0.827869
0.779311
-0.97538
0.0752925
0.99851
-0.598351
0.726795
-0.611224
0.66992
-0.569005
0.624886
-0.521809
0.578842
-0.472853
0.530932
-0.422997
0.48144
-0.373165
0.431041
-0.324377
0.380642
-0.277645
0.331263
-0.233884
0.283922
-0.19383
0.239541
-0.158001
0.198868
-0.126667
0.16243
-0.0998647
0.130508
-0.0774238
0.103148
-0.0590162
0.0801873
-0.0442097
0.0613018
-0.0325327
0.0460099
-0.0237191
0.0328924
-0.0210572
0.0102698
0.0241693
-0.00595845
0.0124781
-0.0048451
0.00816075
-0.00309012
0.00532407
-0.00187445
0.00337481
-0.00110068
0.00207492
-0.000630182
0.00124039
-0.000354512
0.000724162
-0.000197515
0.000415174
-0.000109792
0.000235189
-6.10684e-05
0.000133476
-3.07243e-05
7.28832e-05
-1.42129e-05
4.47642e-05
1.29946e-05
3.23697e-06
8.27648e-07
2.73154e-07
0.602778
-0.600159
-0.627068
0.178678
-0.520152
0.423969
-0.450288
0.419131
-0.543883
0.043519
0.562154
-0.316568
0.397993
-0.328867
0.365834
-0.30625
0.341379
-0.280615
0.316449
-0.254015
0.290492
-0.226951
0.263644
-0.199937
0.236262
-0.173532
0.208836
-0.148286
0.181922
-0.124692
0.156076
-0.103142
0.131808
-0.083909
0.109534
-0.0671279
0.0895493
-0.0528081
0.072018
-0.0408478
0.0569723
-0.0310614
0.0443309
-0.0232091
0.0339212
-0.0170333
0.0254783
-0.0124111
0.0181447
-0.0113879
0.00591569
0.0138483
-0.00286861
0.00697633
-0.00246934
0.00454864
-0.00157068
0.00297052
-0.000945334
0.00188544
-0.000550193
0.00116065
-0.0003122
0.000694571
-0.000174196
0.000405842
-9.64071e-05
0.000232813
-5.33431e-05
0.000131933
-2.95687e-05
7.49494e-05
-1.45764e-05
4.10042e-05
-6.4162e-06
2.55512e-05
8.10239e-06
2.06556e-06
5.30881e-07
1.74518e-07
0.195828
-0.194912
-0.205374
0.0532417
-0.166396
0.133694
-0.142692
0.132014
-0.174634
0.0142683
0.181469
-0.098734
0.126636
-0.103578
0.11622
-0.0964744
0.108474
-0.0883583
0.100591
-0.0799352
0.0923799
-0.0713692
0.083881
-0.0628253
0.0752063
-0.0544815
0.0665102
-0.0465121
0.0579685
-0.0390722
0.0497589
-0.0322853
0.0420439
-0.0262352
0.0349569
-0.0209634
0.0285936
-0.0164708
0.0230072
-0.0127237
0.0182096
-0.00966192
0.014176
-0.00720874
0.0108525
-0.00528236
0.00815446
-0.00384773
0.00579498
-0.00359666
0.00193278
0.00451053
-0.000843515
0.0022444
-0.000753528
0.0014609
-0.000478539
0.000954557
-0.000286626
0.0006063
-0.000165894
0.000373476
-9.36008e-05
0.000223626
-5.19508e-05
0.000130724
-2.86266e-05
7.50136e-05
-1.57914e-05
4.2518e-05
-8.73344e-06
2.41662e-05
-4.24646e-06
1.32348e-05
-1.80303e-06
8.30859e-06
2.74837e-06
7.09394e-07
1.82815e-07
5.90319e-08
-0.195584
0.195036
0.205469
-0.0531528
0.166482
-0.133611
0.142772
-0.131937
0.174707
-0.0141982
-0.181402
0.0987981
-0.126575
0.103636
-0.116165
0.0965264
-0.108426
0.0884037
-0.100549
0.0799742
-0.092344
0.071402
-0.0838512
0.0628523
-0.0751821
0.0545031
-0.066491
0.046529
-0.0579537
0.0390851
-0.0497479
0.0322947
-0.0420358
0.0262419
-0.0349513
0.0209679
-0.0285898
0.0164738
-0.0230048
0.0127255
-0.0182082
0.00966291
-0.0141753
0.00720919
-0.0108522
0.00528246
-0.0081545
0.00384757
-0.00579526
0.00359628
-0.00193322
-0.00451093
0.000843183
-0.00224466