/*--------------------------------*- C++ -*----------------------------------*\
| =========                 |                                                 |
| \\      /  F ield         | OpenFOAM: The Open Source CFD Toolbox           |
|  \\    /   O peration     | Version:  5.x                                   |
|   \\  /    A nd           | Web:      www.OpenFOAM.org                      |
|    \\/     M anipulation  |                                                 |
\*---------------------------------------------------------------------------*/
FoamFile
{
    version     2.0;
    format      ascii;
    class       volScalarField;
    location    "1";
    object      gradTx;
}
// * * * * * * * * * * * * * * * * * * * * * * * * * * * * * * * * * * * * * //

dimensions      [0 -1 0 1 0 0 0];

internalField   nonuniform List<scalar> 
3200
(
58.241
1.8587
-1.64055
-1.84836
-2.55179
-2.5929
-2.60021
-2.60882
-2.57827
-4.52789
-2.43065
-2.21079
-2.18338
-2.05397
-2.03986
-1.90985
-1.896
-1.76114
-1.74682
-1.60714
-1.5924
-1.4493
-1.43432
-1.29005
-1.27509
-1.13237
-1.11772
-0.979433
-0.965393
-0.834282
-0.821113
-0.699545
-0.687463
-0.577242
-0.566401
-0.468671
-0.459154
-0.374375
-0.366199
-0.294206
-0.287326
-0.227434
-0.221759
-0.172902
-0.168311
-0.1292
-0.125565
-0.0948691
-0.0922882
-0.0702985
-0.107697
-0.0494346
-0.0334641
-0.0318616
-0.0220488
-0.0211604
-0.0142873
-0.0136811
-0.00898732
-0.00857952
-0.00548781
-0.00522292
-0.00326215
-0.00309625
-0.00189642
-0.00179596
-0.00108416
-0.00102504
-0.000613108
-0.000579074
-0.000344952
-0.000325297
-0.000186341
-0.000174933
-9.82554e-05
-8.98753e-05
-5.39167e-06
-9.54698e-07
-2.15607e-07
-0.0001945
58.242
1.48221
-1.36821
-1.84014
-2.47859
-2.57679
-2.60117
-2.62861
-2.7214
-4.16167
-2.56719
-2.25302
-2.18255
-2.0644
-2.03134
-1.91874
-1.88669
-1.77027
-1.73717
-1.61664
-1.58255
-1.45909
-1.42446
-1.29999
-1.26541
-1.14228
-1.10842
-0.989115
-0.956649
-0.843535
-0.813081
-0.708193
-0.680252
-0.585144
-0.56007
-0.475729
-0.453717
-0.380541
-0.361628
-0.299478
-0.283561
-0.231847
-0.218718
-0.176524
-0.165901
-0.132123
-0.123722
-0.0973196
-0.0914779
-0.0747951
-0.0992353
-0.0526533
-0.0354148
-0.0315106
-0.0228474
-0.0207786
-0.0148226
-0.0134182
-0.00935483
-0.00841022
-0.0057322
-0.00511844
-0.00341861
-0.00303407
-0.00199296
-0.00176001
-0.00114183
-0.00100468
-0.000646651
-0.000567668
-0.000363931
-0.000318319
-0.000197647
-0.000171134
-0.000103709
-8.43445e-05
-1.2973e-05
-2.71605e-06
-6.242e-07
-0.00019465
58.2427
1.21993
-1.191
-1.82526
-2.42701
-2.56363
-2.60201
-2.64579
-2.81063
-3.91685
-2.65251
-2.2855
-2.18364
-2.07142
-2.026
-1.92441
-1.88075
-1.77608
-1.73101
-1.62268
-1.57628
-1.46533
-1.41818
-1.30634
-1.25926
-1.14862
-1.10252
-0.995319
-0.951126
-0.849478
-0.808023
-0.713759
-0.675723
-0.59024
-0.556107
-0.480291
-0.450324
-0.384535
-0.358785
-0.302898
-0.281227
-0.234715
-0.216838
-0.178881
-0.164417
-0.134031
-0.122597
-0.0989471
-0.0911007
-0.0776463
-0.0936135
-0.0546978
-0.0368319
-0.0313496
-0.0233821
-0.0205521
-0.0151758
-0.0132616
-0.0095975
-0.00831019
-0.00589397
-0.00505736
-0.00352242
-0.00299813
-0.00205716
-0.00173945
-0.00118025
-0.000993151
-0.000669025
-0.000561246
-0.000376582
-0.00031434
-0.000205184
-0.00016897
-0.000107238
-8.08931e-05
-1.81091e-05
-4.15044e-06
-9.69169e-07
-0.000194778
58.2431
1.05418
-1.08487
-1.81169
-2.39403
-2.55441
-2.60264
-2.65813
-2.86221
-3.76684
-2.70193
-2.30736
-2.18513
-2.07577
-2.02289
-1.92775
-1.87724
-1.77949
-1.72737
-1.62623
-1.57257
-1.469
-1.41449
-1.31008
-1.25564
-1.15237
-1.09907
-0.998996
-0.947895
-0.853007
-0.805071
-0.717071
-0.673088
-0.593278
-0.553807
-0.483014
-0.44836
-0.386923
-0.357144
-0.304946
-0.279883
-0.236435
-0.215759
-0.180297
-0.163568
-0.135179
-0.12196
-0.0999411
-0.0909467
-0.0793196
-0.0901863
-0.0558996
-0.0377531
-0.0312877
-0.023711
-0.0204273
-0.0153902
-0.0131748
-0.00974497
-0.00825522
-0.00599247
-0.00502415
-0.00358576
-0.00297881
-0.00209639
-0.00172852
-0.00120376
-0.000987087
-0.000682734
-0.000557892
-0.000384329
-0.000312233
-0.0002098
-0.000167824
-0.00010935
-7.88978e-05
-2.12912e-05
-5.15317e-06
-1.21787e-06
-0.000194871
58.2432
0.973937
-1.03524
-1.8039
-2.37794
-2.54967
-2.60297
-2.66452
-2.88576
-3.69561
-2.72453
-2.31833
-2.18609
-2.07786
-2.02147
-1.9293
-1.87562
-1.78107
-1.72568
-1.62787
-1.57086
-1.4707
-1.41278
-1.31182
-1.25397
-1.15411
-1.09747
-1.00071
-0.946406
-0.854649
-0.803713
-0.718614
-0.671878
-0.594695
-0.552753
-0.484287
-0.447462
-0.388039
-0.356395
-0.305905
-0.279272
-0.237241
-0.215269
-0.180961
-0.163183
-0.135718
-0.121674
-0.100413
-0.0908967
-0.080092
-0.0885642
-0.056455
-0.0382063
-0.0312697
-0.0238677
-0.0203722
-0.0154915
-0.0131363
-0.00981468
-0.00823103
-0.00603908
-0.00500967
-0.00361577
-0.00297046
-0.00211501
-0.00172385
-0.00121492
-0.000984513
-0.000689248
-0.000556476
-0.00038801
-0.000311334
-0.000211992
-0.000167335
-0.000110339
-7.79868e-05
-2.28135e-05
-5.66707e-06
-1.34795e-06
-0.000194919
58.2433
0.973929
-1.03525
-1.8039
-2.37794
-2.54967
-2.60297
-2.66452
-2.88576
-3.69561
-2.72453
-2.31833
-2.1861
-2.07786
-2.02147
-1.9293
-1.87562
-1.78107
-1.72568
-1.62787
-1.57086
-1.4707
-1.41278
-1.31182
-1.25397
-1.15411
-1.09747
-1.00071
-0.946407
-0.854649
-0.803713
-0.718614
-0.671878
-0.594695
-0.552753
-0.484287
-0.447462
-0.388039
-0.356395
-0.305905
-0.279272
-0.237241
-0.215269
-0.180961
-0.163183
-0.135718
-0.121674
-0.100413
-0.0908967
-0.080092
-0.0885642
-0.056455
-0.0382063
-0.0312697
-0.0238677
-0.0203722
-0.0154915
-0.0131363
-0.00981467
-0.00823103
-0.00603908
-0.00500966
-0.00361577
-0.00297046
-0.00211501
-0.00172385
-0.00121492
-0.000984512
-0.000689248
-0.000556475
-0.000388009
-0.000311333
-0.000211992
-0.000167335
-0.000110339
-7.79867e-05
-2.28134e-05
-5.66707e-06
-1.34814e-06
-0.000194919
58.2431
1.05416
-1.08488
-1.81169
-2.39403
-2.55441
-2.60264
-2.65813
-2.86221
-3.76684
-2.70193
-2.30736
-2.18513
-2.07577
-2.02289
-1.92775
-1.87725
-1.77949
-1.72737
-1.62623
-1.57258
-1.469
-1.41449
-1.31008
-1.25564
-1.15237
-1.09907
-0.998997
-0.947895
-0.853007
-0.805071
-0.717071
-0.673088
-0.593278
-0.553807
-0.483015
-0.448361
-0.386923
-0.357144
-0.304946
-0.279883
-0.236435
-0.215759
-0.180297
-0.163568
-0.135179
-0.12196
-0.0999411
-0.0909468
-0.0793197
-0.0901863
-0.0558996
-0.037753
-0.0312877
-0.023711
-0.0204273
-0.0153902
-0.0131748
-0.00974497
-0.00825521
-0.00599246
-0.00502415
-0.00358576
-0.00297881
-0.00209639
-0.00172852
-0.00120376
-0.000987086
-0.000682733
-0.000557891
-0.000384329
-0.000312233
-0.0002098
-0.000167824
-0.00010935
-7.88976e-05
-2.12911e-05
-5.15318e-06
-1.21836e-06
-0.00019487
58.2428
1.2199
-1.19101
-1.82526
-2.42701
-2.56364
-2.60201
-2.64579
-2.81064
-3.91685
-2.65251
-2.2855
-2.18364
-2.07143
-2.026
-1.92441
-1.88075
-1.77608
-1.73101
-1.62268
-1.57628
-1.46533
-1.41818
-1.30634
-1.25926
-1.14862
-1.10252
-0.99532
-0.951127
-0.849479
-0.808023
-0.71376
-0.675724
-0.590241
-0.556108
-0.480291
-0.450325
-0.384535
-0.358785
-0.302898
-0.281227
-0.234715
-0.216838
-0.178881
-0.164417
-0.134031
-0.122597
-0.0989471
-0.0911008
-0.0776463
-0.0936136
-0.0546978
-0.0368319
-0.0313496
-0.0233821
-0.0205521
-0.0151757
-0.0132616
-0.0095975
-0.00831019
-0.00589396
-0.00505736
-0.00352242
-0.00299812
-0.00205716
-0.00173945
-0.00118024
-0.00099315
-0.000669024
-0.000561246
-0.000376581
-0.00031434
-0.000205184
-0.00016897
-0.000107238
-8.08928e-05
-1.81088e-05
-4.15046e-06
-9.69838e-07
-0.000194778
58.2421
1.48218
-1.36821
-1.84014
-2.47859
-2.57679
-2.60117
-2.62861
-2.7214
-4.16167
-2.56719
-2.25302
-2.18256
-2.0644
-2.03134
-1.91874
-1.88669
-1.77028
-1.73717
-1.61664
-1.58255
-1.45909
-1.42446
-1.29999
-1.26541
-1.14228
-1.10842
-0.989116
-0.956649
-0.843536
-0.813081
-0.708193
-0.680252
-0.585144
-0.560071
-0.475729
-0.453717
-0.380542
-0.361628
-0.299478
-0.283561
-0.231847
-0.218718
-0.176524
-0.165901
-0.132123
-0.123722
-0.0973197
-0.091478
-0.0747952
-0.0992353
-0.0526532
-0.0354148
-0.0315105
-0.0228474
-0.0207786
-0.0148226
-0.0134182
-0.00935482
-0.00841022
-0.0057322
-0.00511844
-0.00341861
-0.00303407
-0.00199296
-0.00176
-0.00114183
-0.00100468
-0.00064665
-0.000567667
-0.000363931
-0.000318319
-0.000197647
-0.000171134
-0.000103709
-8.43443e-05
-1.29728e-05
-2.71607e-06
-6.2481e-07
-0.00019465
58.2411
1.85869
-1.64056
-1.84836
-2.55179
-2.5929
-2.60021
-2.60882
-2.57827
-4.52789
-2.43065
-2.21079
-2.18338
-2.05397
-2.03986
-1.90985
-1.896
-1.76114
-1.74682
-1.60714
-1.5924
-1.4493
-1.43433
-1.29005
-1.27509
-1.13237
-1.11772
-0.979433
-0.965393
-0.834282
-0.821113
-0.699545
-0.687463
-0.577243
-0.566401
-0.468671
-0.459154
-0.374376
-0.366199
-0.294206
-0.287326
-0.227434
-0.221759
-0.172902
-0.168311
-0.1292
-0.125565
-0.0948691
-0.0922882
-0.0702985
-0.107697
-0.0494346
-0.033464
-0.0318616
-0.0220488
-0.0211604
-0.0142873
-0.0136811
-0.00898732
-0.00857952
-0.00548781
-0.00522292
-0.00326215
-0.00309625
-0.00189642
-0.00179596
-0.00108416
-0.00102504
-0.000613108
-0.000579074
-0.000344952
-0.000325297
-0.000186341
-0.000174933
-9.82553e-05
-8.98752e-05
-5.39161e-06
-9.54708e-07
-2.1588e-07
-0.0001945
55.501
-0.754495
-1.2707
-1.30707
-1.46732
-1.48212
-1.5883
-1.60665
-1.73122
-3.15818
-1.75913
-1.68861
-1.67693
-1.64098
-1.63587
-1.58087
-1.57429
-1.50334
-1.49536
-1.413
-1.40404
-1.31444
-1.30491
-1.21168
-1.20193
-1.10808
-1.09839
-1.00633
-0.996917
-0.908425
-0.899449
-0.815758
-0.80732
-0.729166
-0.721322
-0.649042
-0.641812
-0.575444
-0.568821
-0.508204
-0.502167
-0.447031
-0.44155
-0.391594
-0.386642
-0.34159
-0.337196
-0.297044
-0.294314
-0.266623
-0.448405
-0.229949
-0.192517
-0.188349
-0.164201
-0.16183
-0.141649
-0.139719
-0.122969
-0.121385
-0.107783
-0.106511
-0.0957456
-0.0947437
-0.086372
-0.0855174
-0.0776519
-0.076694
-0.0662816
-0.0650676
-0.0521003
-0.0508098
-0.039204
-0.0375342
-0.0169523
-0.0151707
-0.000922752
-0.00016432
-3.70266e-05
-0.0031197
55.4536
-0.771677
-1.22442
-1.30937
-1.45377
-1.48871
-1.58522
-1.63249
-1.82483
-2.90141
-1.85482
-1.71087
-1.67916
-1.64396
-1.63188
-1.58426
-1.56906
-1.5079
-1.48945
-1.41845
-1.39775
-1.32048
-1.29847
-1.21806
-1.19552
-1.11457
-1.09217
-1.01274
-0.990982
-0.91463
-0.893873
-0.821655
-0.80214
-0.734693
-0.716551
-0.654168
-0.637445
-0.58016
-0.564842
-0.512518
-0.498554
-0.450961
-0.438283
-0.395162
-0.383709
-0.344851
-0.334726
-0.300631
-0.294938
-0.281995
-0.412368
-0.243245
-0.198017
-0.187642
-0.16613
-0.160599
-0.143139
-0.138671
-0.124207
-0.120543
-0.108796
-0.105853
-0.0965512
-0.0942308
-0.0869675
-0.0849849
-0.0781386
-0.0759194
-0.0669326
-0.0641286
-0.053
-0.0500084
-0.0398183
-0.0359627
-0.0184769
-0.0143825
-0.00222865
-0.000467701
-0.000107191
-0.00314324
55.4147
-0.779416
-1.19285
-1.3093
-1.4446
-1.49283
-1.58411
-1.65253
-1.88308
-2.72957
-1.9144
-1.72865
-1.68154
-1.64602
-1.6293
-1.58636
-1.56565
-1.51075
-1.48564
-1.42189
-1.39371
-1.32432
-1.29435
-1.22212
-1.19144
-1.11871
-1.08822
-1.01685
-0.987227
-0.918608
-0.890352
-0.825441
-0.798875
-0.738245
-0.713548
-0.657465
-0.634698
-0.583195
-0.56234
-0.515295
-0.496284
-0.453492
-0.436232
-0.397462
-0.381871
-0.346962
-0.333214
-0.303081
-0.295849
-0.291633
-0.38831
-0.251585
-0.202121
-0.18738
-0.167419
-0.159845
-0.144108
-0.138023
-0.125012
-0.120023
-0.109457
-0.105449
-0.0970769
-0.0939151
-0.0873512
-0.0846464
-0.0784397
-0.0754151
-0.0673358
-0.0635222
-0.0535738
-0.0494945
-0.040179
-0.0349362
-0.0194656
-0.0139166
-0.00311877
-0.000715026
-0.000166418
-0.00316324
55.3874
-0.782364
-1.17317
-1.30847
-1.43891
-1.49523
-1.5839
-1.66608
-1.91669
-2.6242
-1.9488
-1.74087
-1.68344
-1.64732
-1.62777
-1.58756
-1.56361
-1.51239
-1.48337
-1.42389
-1.39132
-1.32657
-1.29192
-1.22451
-1.18904
-1.12116
-1.0859
-1.01928
-0.985027
-0.920967
-0.888293
-0.827688
-0.796968
-0.740356
-0.711795
-0.659425
-0.633096
-0.585
-0.560883
-0.516948
-0.494962
-0.454998
-0.435038
-0.398831
-0.380803
-0.348224
-0.332355
-0.304612
-0.296638
-0.297233
-0.373586
-0.256432
-0.204834
-0.187324
-0.168211
-0.159416
-0.14469
-0.137651
-0.125496
-0.119725
-0.109854
-0.105218
-0.0973933
-0.0937345
-0.0875798
-0.0844472
-0.0786129
-0.0751123
-0.0675677
-0.0631606
-0.0539124
-0.0491897
-0.0403763
-0.0343185
-0.0200572
-0.0136605
-0.00367301
-0.000888084
-0.000209103
-0.00317775
55.3733
-0.783224
-1.16371
-1.30784
-1.43618
-1.49633
-1.58396
-1.67289
-1.93201
-2.57413
-1.96449
-1.74707
-1.68449
-1.64795
-1.62705
-1.58811
-1.56266
-1.51315
-1.48231
-1.42482
-1.39021
-1.32761
-1.29079
-1.22562
-1.18793
-1.12229
-1.08483
-1.02041
-0.984012
-0.922063
-0.887345
-0.828734
-0.79609
-0.741338
-0.710989
-0.660338
-0.63236
-0.585841
-0.560213
-0.517718
-0.494355
-0.455701
-0.43449
-0.39947
-0.380313
-0.348813
-0.331968
-0.30535
-0.297081
-0.2998
-0.3666
-0.258653
-0.206182
-0.187331
-0.168588
-0.159222
-0.144963
-0.137481
-0.125723
-0.11959
-0.11004
-0.105114
-0.097542
-0.0936527
-0.0876864
-0.0843551
-0.0786916
-0.0749703
-0.0676733
-0.0629918
-0.0540692
-0.0490478
-0.0404629
-0.0340286
-0.0203338
-0.0135478
-0.00393901
-0.00097683
-0.000231412
-0.00318537
55.3734
-0.783233
-1.16372
-1.30784
-1.43618
-1.49633
-1.58396
-1.67289
-1.93201
-2.57413
-1.96449
-1.74707
-1.68449
-1.64795
-1.62705
-1.58811
-1.56266
-1.51315
-1.48231
-1.42482
-1.39021
-1.32761
-1.2908
-1.22562
-1.18793
-1.12229
-1.08483
-1.02041
-0.984012
-0.922063
-0.887345
-0.828734
-0.79609
-0.741339
-0.710989
-0.660338
-0.632361
-0.585841
-0.560213
-0.517718
-0.494355
-0.455701
-0.43449
-0.39947
-0.380313
-0.348814
-0.331968
-0.30535
-0.297081
-0.2998
-0.3666
-0.258654
-0.206182
-0.187331
-0.168588
-0.159222
-0.144963
-0.137481
-0.125723
-0.11959
-0.11004
-0.105114
-0.097542
-0.0936527
-0.0876865
-0.0843551
-0.0786917
-0.0749703
-0.0676733
-0.0629918
-0.0540692
-0.0490478
-0.0404629
-0.0340286
-0.0203338
-0.0135478
-0.003939
-0.000976824
-0.000231411
-0.00318537
55.3875
-0.782388
-1.17318
-1.30847
-1.43891
-1.49523
-1.5839
-1.66608
-1.91669
-2.6242
-1.9488
-1.74087
-1.68345
-1.64732
-1.62777
-1.58756
-1.56362
-1.5124
-1.48337
-1.42389
-1.39132
-1.32657
-1.29192
-1.22451
-1.18904
-1.12116
-1.0859
-1.01928
-0.985027
-0.920967
-0.888294
-0.827688
-0.796968
-0.740356
-0.711795
-0.659425
-0.633097
-0.585
-0.560883
-0.516948
-0.494963
-0.454998
-0.435038
-0.398831
-0.380803
-0.348224
-0.332355
-0.304613
-0.296638
-0.297233
-0.373586
-0.256432
-0.204834
-0.187324
-0.168211
-0.159416
-0.14469
-0.137651
-0.125496
-0.119725
-0.109854
-0.105218
-0.0973934
-0.0937346
-0.0875799
-0.0844473
-0.0786129
-0.0751123
-0.0675677
-0.0631606
-0.0539124
-0.0491897
-0.0403763
-0.0343185
-0.0200571
-0.0136605
-0.00367298
-0.000888069
-0.000209099
-0.00317774
55.4148
-0.779447
-1.19286
-1.3093
-1.4446
-1.49283
-1.58411
-1.65253
-1.88308
-2.72957
-1.9144
-1.72865
-1.68154
-1.64602
-1.6293
-1.58636
-1.56565
-1.51075
-1.48564
-1.42189
-1.39372
-1.32432
-1.29435
-1.22212
-1.19144
-1.11871
-1.08822
-1.01685
-0.987227
-0.918609
-0.890353
-0.825441
-0.798876
-0.738246
-0.713548
-0.657465
-0.634698
-0.583195
-0.562341
-0.515296
-0.496284
-0.453492
-0.436232
-0.397462
-0.381871
-0.346962
-0.333215
-0.303081
-0.29585
-0.291633
-0.388311
-0.251585
-0.202121
-0.18738
-0.167419
-0.159845
-0.144108
-0.138023
-0.125012
-0.120023
-0.109457
-0.105449
-0.097077
-0.0939152
-0.0873513
-0.0846465
-0.0784398
-0.0754152
-0.0673358
-0.0635222
-0.0535739
-0.0494946
-0.040179
-0.0349362
-0.0194655
-0.0139166
-0.00311874
-0.000715005
-0.000166413
-0.00316322
55.4537
-0.771705
-1.22443
-1.30938
-1.45377
-1.48871
-1.58522
-1.63249
-1.82484
-2.90141
-1.85482
-1.71087
-1.67917
-1.64396
-1.63188
-1.58426
-1.56906
-1.5079
-1.48945
-1.41845
-1.39775
-1.32048
-1.29847
-1.21806
-1.19552
-1.11457
-1.09217
-1.01274
-0.990982
-0.91463
-0.893874
-0.821656
-0.802141
-0.734694
-0.716552
-0.654168
-0.637445
-0.58016
-0.564842
-0.512518
-0.498554
-0.450961
-0.438283
-0.395163
-0.383709
-0.344851
-0.334727
-0.300632
-0.294938
-0.281995
-0.412369
-0.243245
-0.198017
-0.187642
-0.16613
-0.160599
-0.143139
-0.138671
-0.124207
-0.120543
-0.108796
-0.105853
-0.0965513
-0.0942309
-0.0869676
-0.084985
-0.0781387
-0.0759195
-0.0669326
-0.0641286
-0.053
-0.0500084
-0.0398183
-0.0359627
-0.0184768
-0.0143825
-0.00222863
-0.000467684
-0.000107188
-0.00314323
55.501
-0.754506
-1.2707
-1.30707
-1.46732
-1.48212
-1.5883
-1.60665
-1.73122
-3.15818
-1.75913
-1.68861
-1.67693
-1.64098
-1.63588
-1.58087
-1.57429
-1.50334
-1.49536
-1.413
-1.40404
-1.31444
-1.30491
-1.21168
-1.20193
-1.10808
-1.09839
-1.00633
-0.996917
-0.908425
-0.89945
-0.815758
-0.807321
-0.729166
-0.721323
-0.649043
-0.641812
-0.575444
-0.568821
-0.508204
-0.502167
-0.447032
-0.441551
-0.391595
-0.386642
-0.34159
-0.337196
-0.297044
-0.294315
-0.266623
-0.448405
-0.229949
-0.192517
-0.188349
-0.164202
-0.16183
-0.141649
-0.139719
-0.122969
-0.121385
-0.107783
-0.106511
-0.0957457
-0.0947438
-0.0863721
-0.0855175
-0.077652
-0.0766941
-0.0662816
-0.0650676
-0.0521003
-0.0508098
-0.039204
-0.0375341
-0.0169523
-0.0151706
-0.000922742
-0.000164313
-3.70255e-05
-0.0031197
55.4664
-0.754928
-1.27084
-1.30719
-1.46742
-1.48223
-1.58843
-1.60678
-1.73139
-3.15853
-1.75934
-1.68881
-1.67713
-1.64115
-1.63604
-1.58098
-1.5744
-1.50336
-1.49537
-1.4129
-1.40394
-1.31421
-1.30467
-1.2113
-1.20154
-1.10756
-1.09786
-1.00566
-0.996238
-0.907624
-0.898637
-0.81484
-0.806392
-0.728152
-0.7203
-0.647956
-0.64072
-0.574313
-0.567687
-0.507054
-0.501017
-0.445889
-0.44041
-0.390482
-0.385534
-0.340526
-0.336137
-0.296042
-0.293314
-0.265657
-0.446731
-0.229064
-0.191739
-0.187583
-0.163506
-0.161142
-0.141027
-0.139103
-0.122414
-0.120836
-0.107291
-0.106025
-0.0953127
-0.0943164
-0.0859995
-0.0851514
-0.0773564
-0.0764062
-0.0660705
-0.0648636
-0.0519573
-0.0506734
-0.0391311
-0.0374666
-0.0169237
-0.0151453
-0.000921198
-0.000164043
-3.69641e-05
-0.00311379
55.4189
-0.772068
-1.22458
-1.3095
-1.45387
-1.48881
-1.58535
-1.63263
-1.82502
-2.90173
-1.85504
-1.71108
-1.67936
-1.64414
-1.63204
-1.58438
-1.56916
-1.50793
-1.48946
-1.41836
-1.39763
-1.32026
-1.29822
-1.21769
-1.19512
-1.11406
-1.09162
-1.01209
-0.990294
-0.913838
-0.893054
-0.820745
-0.801207
-0.733685
-0.715525
-0.653087
-0.636351
-0.579032
-0.563707
-0.51137
-0.497405
-0.449819
-0.437145
-0.394049
-0.382604
-0.343785
-0.333671
-0.299623
-0.29393
-0.280975
-0.41083
-0.24231
-0.19722
-0.186878
-0.16543
-0.159916
-0.142512
-0.13806
-0.123648
-0.119998
-0.1083
-0.10537
-0.0961145
-0.0938073
-0.0865916
-0.0846241
-0.0778385
-0.0756369
-0.0667159
-0.0639285
-0.0528528
-0.0498762
-0.0397405
-0.0358972
-0.0184451
-0.0143583
-0.00222489
-0.000466911
-0.00010701
-0.00313728
55.3801
-0.779776
-1.19303
-1.30943
-1.44471
-1.49294
-1.58424
-1.65267
-1.88327
-2.72987
-1.91462
-1.72885
-1.68174
-1.6462
-1.62946
-1.58648
-1.56575
-1.51078
-1.48564
-1.4218
-1.39359
-1.3241
-1.29409
-1.22176
-1.19104
-1.1182
-1.08767
-1.0162
-0.986534
-0.917822
-0.889529
-0.824535
-0.797938
-0.737242
-0.712519
-0.656387
-0.633603
-0.582069
-0.561206
-0.514149
-0.495136
-0.45235
-0.435096
-0.396347
-0.380768
-0.345894
-0.332162
-0.302068
-0.294836
-0.290579
-0.386862
-0.250619
-0.201311
-0.186616
-0.166715
-0.159164
-0.143478
-0.137414
-0.124451
-0.11948
-0.108958
-0.104968
-0.0966379
-0.093494
-0.0869732
-0.084289
-0.0781367
-0.075136
-0.0671155
-0.0633245
-0.053424
-0.049365
-0.040098
-0.0348719
-0.0194318
-0.0138931
-0.0031135
-0.000713817
-0.000166137
-0.00315725
55.3527
-0.782705
-1.17335
-1.30861
-1.43902
-1.49534
-1.58403
-1.66623
-1.91688
-2.62449
-1.94902
-1.74108
-1.68364
-1.6475
-1.62793
-1.58768
-1.56371
-1.51243
-1.48337
-1.42381
-1.3912
-1.32636
-1.29166
-1.22415
-1.18864
-1.12066
-1.08535
-1.01863
-0.984331
-0.920184
-0.887467
-0.826786
-0.796029
-0.739355
-0.710765
-0.658349
-0.632001
-0.583876
-0.559748
-0.515802
-0.493815
-0.453856
-0.433903
-0.397716
-0.379701
-0.347154
-0.331304
-0.303596
-0.29562
-0.29616
-0.372193
-0.255448
-0.204016
-0.186561
-0.167504
-0.158736
-0.144058
-0.137043
-0.124932
-0.119184
-0.109354
-0.104739
-0.096953
-0.093315
-0.0872005
-0.0840918
-0.0783081
-0.0748352
-0.0673453
-0.0629642
-0.0537609
-0.0490618
-0.0402934
-0.0342549
-0.0200221
-0.0136374
-0.0036668
-0.000886583
-0.000208749
-0.00317174
55.3387
-0.783556
-1.1639
-1.30798
-1.43629
-1.49644
-1.58409
-1.67304
-1.93221
-2.57442
-1.96472
-1.74728
-1.68469
-1.64813
-1.62721
-1.58823
-1.56275
-1.51318
-1.48231
-1.42474
-1.39009
-1.3274
-1.29053
-1.22526
-1.18753
-1.12179
-1.08428
-1.01976
-0.983315
-0.921282
-0.886518
-0.827833
-0.795151
-0.740338
-0.709959
-0.659263
-0.631265
-0.584718
-0.559079
-0.516573
-0.493208
-0.454559
-0.433355
-0.398355
-0.379212
-0.347744
-0.330917
-0.304332
-0.296061
-0.298717
-0.365233
-0.257661
-0.205359
-0.186567
-0.16788
-0.158543
-0.14433
-0.136874
-0.125158
-0.119049
-0.109539
-0.104635
-0.097101
-0.0932338
-0.0873066
-0.0840006
-0.0783861
-0.0746941
-0.0674499
-0.0627961
-0.053917
-0.0489207
-0.0403791
-0.0339652
-0.0202982
-0.0135248
-0.00393235
-0.000975179
-0.000231021
-0.00317935
55.3387
-0.783565
-1.1639
-1.30798
-1.43629
-1.49644
-1.58409
-1.67304
-1.93221
-2.57442
-1.96472
-1.74728
-1.68469
-1.64813
-1.62721
-1.58823
-1.56275
-1.51318
-1.48231
-1.42474
-1.39009
-1.3274
-1.29053
-1.22526
-1.18753
-1.12179
-1.08428
-1.01976
-0.983316
-0.921282
-0.886518
-0.827833
-0.795151
-0.740339
-0.709959
-0.659263
-0.631265
-0.584718
-0.559079
-0.516573
-0.493209
-0.454559
-0.433355
-0.398355
-0.379212
-0.347744
-0.330917
-0.304333
-0.296061
-0.298717
-0.365233
-0.257661
-0.205359
-0.186567
-0.16788
-0.158543
-0.14433
-0.136874
-0.125158
-0.119049
-0.109539
-0.104635
-0.097101
-0.0932338
-0.0873066
-0.0840007
-0.0783861
-0.0746941
-0.0674499
-0.0627961
-0.053917
-0.0489207
-0.040379
-0.0339652
-0.0202982
-0.0135248
-0.00393234
-0.000975173
-0.00023102
-0.00317934
55.3528
-0.782729
-1.17336
-1.30861
-1.43902
-1.49534
-1.58403
-1.66623
-1.91688
-2.62449
-1.94903
-1.74108
-1.68364
-1.6475
-1.62793
-1.58768
-1.56371
-1.51243
-1.48337
-1.42381
-1.3912
-1.32636
-1.29166
-1.22415
-1.18864
-1.12066
-1.08535
-1.01863
-0.984332
-0.920184
-0.887468
-0.826786
-0.79603
-0.739355
-0.710766
-0.658349
-0.632001
-0.583876
-0.559748
-0.515803
-0.493815
-0.453857
-0.433903
-0.397716
-0.379701
-0.347154
-0.331304
-0.303597
-0.29562
-0.29616
-0.372194
-0.255448
-0.204016
-0.186561
-0.167504
-0.158736
-0.144058
-0.137043
-0.124932
-0.119184
-0.109354
-0.104739
-0.0969531
-0.093315
-0.0872006
-0.0840919
-0.0783081
-0.0748352
-0.0673453
-0.0629642
-0.0537609
-0.0490618
-0.0402934
-0.0342549
-0.0200221
-0.0136373
-0.00366677
-0.000886567
-0.000208745
-0.00317173
55.3801
-0.779808
-1.19303
-1.30943
-1.44471
-1.49294
-1.58424
-1.65268
-1.88327
-2.72988
-1.91462
-1.72885
-1.68174
-1.6462
-1.62946
-1.58648
-1.56575
-1.51078
-1.48564
-1.4218
-1.39359
-1.3241
-1.2941
-1.22176
-1.19104
-1.1182
-1.08767
-1.0162
-0.986535
-0.917823
-0.88953
-0.824536
-0.797939
-0.737242
-0.71252
-0.656387
-0.633603
-0.58207
-0.561206
-0.514149
-0.495137
-0.45235
-0.435096
-0.396348
-0.380768
-0.345894
-0.332162
-0.302068
-0.294836
-0.290579
-0.386862
-0.250619
-0.201311
-0.186616
-0.166715
-0.159164
-0.143478
-0.137414
-0.124451
-0.11948
-0.108958
-0.104968
-0.0966381
-0.0934941
-0.0869733
-0.0842891
-0.0781368
-0.0751361
-0.0671155
-0.0633245
-0.053424
-0.0493651
-0.040098
-0.0348719
-0.0194317
-0.0138931
-0.00311347
-0.000713797
-0.000166132
-0.00315724
55.419
-0.772096
-1.22459
-1.3095
-1.45388
-1.48881
-1.58535
-1.63263
-1.82502
-2.90173
-1.85504
-1.71108
-1.67936
-1.64414
-1.63204
-1.58438
-1.56916
-1.50793
-1.48946
-1.41836
-1.39764
-1.32026
-1.29822
-1.21769
-1.19512
-1.11406
-1.09162
-1.01209
-0.990295
-0.913839
-0.893055
-0.820745
-0.801208
-0.733686
-0.715526
-0.653087
-0.636352
-0.579032
-0.563708
-0.51137
-0.497406
-0.449819
-0.437146
-0.394049
-0.382604
-0.343785
-0.333672
-0.299623
-0.293931
-0.280975
-0.41083
-0.242311
-0.197221
-0.186878
-0.16543
-0.159916
-0.142512
-0.13806
-0.123648
-0.119998
-0.1083
-0.10537
-0.0961146
-0.0938074
-0.0865917
-0.0846242
-0.0778386
-0.075637
-0.0667159
-0.0639285
-0.0528528
-0.0498762
-0.0397405
-0.0358972
-0.0184451
-0.0143583
-0.00222487
-0.000466894
-0.000107007
-0.00313727
55.4664
-0.754939
-1.27084
-1.30719
-1.46742
-1.48223
-1.58843
-1.60678
-1.7314
-3.15853
-1.75934
-1.68881
-1.67713
-1.64115
-1.63604
-1.58098
-1.5744
-1.50336
-1.49537
-1.4129
-1.40394
-1.31421
-1.30467
-1.2113
-1.20154
-1.10756
-1.09786
-1.00566
-0.996238
-0.907625
-0.898638
-0.81484
-0.806392
-0.728152
-0.7203
-0.647956
-0.640721
-0.574313
-0.567687
-0.507055
-0.501017
-0.44589
-0.44041
-0.390482
-0.385534
-0.340526
-0.336137
-0.296042
-0.293314
-0.265657
-0.446731
-0.229064
-0.191739
-0.187583
-0.163506
-0.161142
-0.141027
-0.139103
-0.122414
-0.120836
-0.107291
-0.106025
-0.0953127
-0.0943165
-0.0859995
-0.0851515
-0.0773565
-0.0764062
-0.0660705
-0.0648637
-0.0519573
-0.0506734
-0.0391311
-0.0374666
-0.0169237
-0.0151453
-0.000921188
-0.000164036
-3.69629e-05
-0.00311378
58.2445
1.85802
-1.64121
-1.849
-2.55207
-2.59315
-2.60017
-2.60876
-2.57801
-4.52731
-2.43028
-2.2104
-2.18298
-2.05359
-2.03949
-1.90954
-1.8957
-1.76092
-1.74662
-1.60704
-1.59231
-1.44932
-1.43435
-1.29018
-1.27523
-1.13259
-1.11796
-0.97973
-0.965696
-0.834621
-0.821454
-0.699894
-0.687812
-0.577575
-0.56673
-0.468964
-0.459442
-0.374615
-0.366433
-0.294387
-0.287501
-0.227556
-0.221876
-0.172974
-0.168378
-0.129231
-0.125594
-0.0948721
-0.092289
-0.0702828
-0.107661
-0.0494103
-0.0334387
-0.0318364
-0.0220256
-0.0211374
-0.0142681
-0.0136623
-0.00897262
-0.00856523
-0.00547731
-0.00521277
-0.00325509
-0.00308948
-0.00189194
-0.00179168
-0.00108146
-0.00102247
-0.000611554
-0.000577607
-0.00034413
-0.00032453
-0.000185959
-0.000174581
-9.81059e-05
-8.97429e-05
-5.38355e-06
-9.53245e-07
-2.15279e-07
-0.000194311
58.2455
1.48155
-1.36886
-1.84075
-2.4789
-2.57703
-2.60116
-2.62854
-2.72114
-4.16115
-2.5668
-2.25262
-2.18216
-2.06403
-2.03098
-1.91843
-1.8864
-1.77006
-1.73697
-1.61653
-1.58247
-1.4591
-1.4245
-1.30012
-1.26555
-1.1425
-1.10866
-0.989407
-0.956953
-0.843871
-0.813422
-0.708541
-0.680599
-0.585476
-0.560397
-0.476024
-0.454002
-0.380784
-0.361859
-0.299662
-0.283733
-0.231973
-0.218832
-0.176599
-0.165967
-0.132158
-0.123749
-0.0973246
-0.0914776
-0.0747794
-0.0992018
-0.0526282
-0.0353895
-0.0314855
-0.0228241
-0.020756
-0.0148032
-0.0133997
-0.00933984
-0.00839618
-0.00572142
-0.00510849
-0.00341132
-0.00302743
-0.0019883
-0.00175582
-0.001139
-0.00100217
-0.000645016
-0.000566235
-0.000363058
-0.000317571
-0.000197233
-0.000170792
-0.000103543
-8.42182e-05
-1.29533e-05
-2.71192e-06
-6.23249e-07
-0.000194461
58.2461
1.2193
-1.19164
-1.82585
-2.42733
-2.56386
-2.60201
-2.64571
-2.81037
-3.91635
-2.65211
-2.2851
-2.18325
-2.07105
-2.02564
-1.92409
-1.88046
-1.77586
-1.73082
-1.62256
-1.5762
-1.46533
-1.41822
-1.30645
-1.25941
-1.14883
-1.10276
-0.995608
-0.951431
-0.849811
-0.808363
-0.714106
-0.676069
-0.590573
-0.556432
-0.480587
-0.450607
-0.38478
-0.359013
-0.303084
-0.281396
-0.234844
-0.216951
-0.178959
-0.164481
-0.134067
-0.122623
-0.0989533
-0.0910996
-0.0776305
-0.0935823
-0.0546722
-0.0368066
-0.0313247
-0.0233588
-0.0205297
-0.0151561
-0.0132432
-0.00958233
-0.00829631
-0.005883
-0.00504753
-0.00351498
-0.00299157
-0.00205238
-0.00173531
-0.00117733
-0.000990668
-0.000667336
-0.000559833
-0.000375674
-0.000313604
-0.000204749
-0.000168633
-0.000107061
-8.07702e-05
-1.80815e-05
-4.14412e-06
-9.67694e-07
-0.000194589
58.2465
1.05356
-1.08551
-1.81226
-2.39437
-2.55463
-2.60265
-2.65804
-2.86194
-3.76637
-2.70153
-2.30697
-2.18474
-2.0754
-2.02253
-1.92743
-1.87696
-1.77927
-1.72718
-1.62611
-1.5725
-1.469
-1.41453
-1.3102
-1.2558
-1.15258
-1.09931
-0.999283
-0.948201
-0.853339
-0.805411
-0.717417
-0.673433
-0.593611
-0.55413
-0.483311
-0.448641
-0.387169
-0.35737
-0.305134
-0.280051
-0.236565
-0.215871
-0.180376
-0.163631
-0.135216
-0.121986
-0.0999481
-0.0909452
-0.0793039
-0.0901565
-0.0558738
-0.0377278
-0.0312629
-0.0236876
-0.020405
-0.0153705
-0.0131565
-0.00972969
-0.00824142
-0.0059814
-0.00501439
-0.00357822
-0.0029723
-0.00209155
-0.00172442
-0.0012008
-0.000984622
-0.000681013
-0.00055649
-0.000383401
-0.000311502
-0.000209351
-0.000167489
-0.000109166
-7.87767e-05
-2.12587e-05
-5.14531e-06
-1.21601e-06
-0.000194681
58.2466
0.973326
-1.03588
-1.80447
-2.37828
-2.54989
-2.60298
-2.66443
-2.88549
-3.69515
-2.72413
-2.31793
-2.18571
-2.07748
-2.02111
-1.92898
-1.87533
-1.78084
-1.7255
-1.62776
-1.57079
-1.4707
-1.41282
-1.31193
-1.25413
-1.15432
-1.09771
-1.00099
-0.946712
-0.854981
-0.804053
-0.71896
-0.672223
-0.595028
-0.553075
-0.484584
-0.447743
-0.388286
-0.356621
-0.306093
-0.279439
-0.237372
-0.21538
-0.181041
-0.163246
-0.135756
-0.121699
-0.10042
-0.090895
-0.0800764
-0.0885351
-0.0564291
-0.038181
-0.0312449
-0.0238443
-0.02035
-0.0154718
-0.0131182
-0.00979934
-0.00821728
-0.00602796
-0.00499993
-0.00360819
-0.00296397
-0.00211013
-0.00171975
-0.00121194
-0.000982055
-0.000687512
-0.000555078
-0.000387071
-0.000310605
-0.000211538
-0.000167001
-0.000110152
-7.78665e-05
-2.27786e-05
-5.65842e-06
-1.3459e-06
-0.00019473
58.2466
0.973318
-1.03588
-1.80447
-2.37828
-2.54989
-2.60298
-2.66443
-2.88549
-3.69515
-2.72413
-2.31793
-2.18571
-2.07748
-2.02111
-1.92898
-1.87533
-1.78084
-1.7255
-1.62776
-1.57079
-1.4707
-1.41282
-1.31193
-1.25413
-1.15432
-1.09771
-1.00099
-0.946713
-0.854981
-0.804054
-0.71896
-0.672223
-0.595028
-0.553076
-0.484584
-0.447743
-0.388286
-0.356621
-0.306093
-0.279439
-0.237372
-0.21538
-0.181041
-0.163246
-0.135756
-0.121699
-0.10042
-0.090895
-0.0800764
-0.0885351
-0.0564291
-0.038181
-0.0312449
-0.0238443
-0.02035
-0.0154718
-0.0131182
-0.00979934
-0.00821728
-0.00602796
-0.00499993
-0.00360819
-0.00296397
-0.00211013
-0.00171975
-0.00121194
-0.000982055
-0.000687512
-0.000555078
-0.000387071
-0.000310605
-0.000211538
-0.000167001
-0.000110152
-7.78664e-05
-2.27786e-05
-5.65842e-06
-1.34608e-06
-0.00019473
58.2465
1.05354
-1.08551
-1.81226
-2.39437
-2.55463
-2.60265
-2.65804
-2.86194
-3.76637
-2.70153
-2.30697
-2.18474
-2.0754
-2.02253
-1.92744
-1.87696