/*--------------------------------*- C++ -*----------------------------------*\
| =========                 |                                                 |
| \\      /  F ield         | OpenFOAM: The Open Source CFD Toolbox           |
|  \\    /   O peration     | Version:  5.x                                   |
|   \\  /    A nd           | Web:      www.OpenFOAM.org                      |
|    \\/     M anipulation  |                                                 |
\*---------------------------------------------------------------------------*/
FoamFile
{
    version     2.0;
    format      ascii;
    class       volScalarField;
    location    "1.1001";
    object      gradTy;
}
// * * * * * * * * * * * * * * * * * * * * * * * * * * * * * * * * * * * * * //

dimensions      [0 -1 0 1 0 0 0];

internalField   nonuniform List<scalar> 
2048
(
-27.5699
-27.5367
-27.4714
-27.3759
-27.253
-27.106
-26.9384
-26.7539
-26.5559
-26.3478
-26.1324
-25.9123
-25.6898
-25.4668
-25.2451
-25.0261
-24.8108
-24.6002
-24.3951
-24.1958
-24.0026
-23.8158
-23.6354
-23.4613
-23.2935
-23.1318
-22.9763
-22.8268
-22.6833
-22.5458
-22.4142
-22.2887
-22.1692
-22.0559
-21.949
-21.8485
-21.7547
-21.6678
-21.5879
-21.5151
-21.4498
-21.392
-21.342
-21.3001
-21.2665
-21.2414
-21.225
-21.2176
-21.2192
-21.2297
-21.2489
-21.2764
-21.3114
-21.353
-21.3997
-21.4501
-21.5024
-21.5544
-21.604
-21.6493
-21.6882
-21.7189
-21.7403
-21.7512
-27.5968
-27.5627
-27.4958
-27.398
-27.2725
-27.1226
-26.9521
-26.7647
-26.5641
-26.3536
-26.1361
-25.9141
-25.69
-25.4657
-25.2429
-25.0229
-24.8069
-24.5958
-24.3902
-24.1907
-23.9974
-23.8106
-23.6301
-23.4561
-23.2883
-23.1267
-22.9712
-22.8218
-22.6783
-22.5407
-22.4091
-22.2835
-22.1639
-22.0505
-21.9434
-21.8428
-21.7489
-21.6618
-21.5817
-21.5088
-21.4433
-21.3853
-21.3352
-21.293
-21.2592
-21.2339
-21.2174
-21.2099
-21.2115
-21.2222
-21.2418
-21.2699
-21.3057
-21.3482
-21.3963
-21.4482
-21.502
-21.5557
-21.6071
-21.6539
-21.6942
-21.726
-21.7481
-21.7594
-27.6481
-27.6124
-27.5423
-27.4402
-27.3095
-27.154
-26.9778
-26.7851
-26.5795
-26.3644
-26.1429
-25.9175
-25.6904
-25.4635
-25.2385
-25.0168
-24.7994
-24.5872
-24.3809
-24.1809
-23.9874
-23.8005
-23.6201
-23.4461
-23.2785
-23.117
-22.9616
-22.8122
-22.6688
-22.5312
-22.3995
-22.2738
-22.154
-22.0403
-21.933
-21.8321
-21.7379
-21.6505
-21.5701
-21.4969
-21.431
-21.3727
-21.3221
-21.2796
-21.2453
-21.2196
-21.2028
-21.1952
-21.1969
-21.2079
-21.2281
-21.2572
-21.2946
-21.3391
-21.3896
-21.4443
-21.5013
-21.5583
-21.6129
-21.6628
-21.7057
-21.7397
-21.7633
-21.7754
-27.7219
-27.6837
-27.6089
-27.5003
-27.362
-27.1983
-27.0139
-26.8134
-26.6006
-26.3792
-26.1521
-25.9218
-25.6906
-25.4601
-25.2321
-25.0078
-24.7884
-24.5748
-24.3676
-24.167
-23.9732
-23.7863
-23.606
-23.4322
-23.2647
-23.1034
-22.9482
-22.7989
-22.6555
-22.5178
-22.386
-22.2601
-22.14
-22.026
-21.9182
-21.8169
-21.7223
-21.6345
-21.5537
-21.4801
-21.4138
-21.3549
-21.3038
-21.2606
-21.2257
-21.1995
-21.1822
-21.1743
-21.176
-21.1874
-21.2085
-21.2391
-21.2785
-21.3259
-21.3798
-21.4386
-21.5002
-21.5619
-21.6213
-21.6757
-21.7225
-21.7596
-21.7853
-21.7985
-27.8165
-27.775
-27.6938
-27.5766
-27.4281
-27.2537
-27.0587
-26.8481
-26.6263
-26.3969
-26.1628
-25.9266
-25.6901
-25.4552
-25.2234
-24.9961
-24.7743
-24.5589
-24.3505
-24.1493
-23.9553
-23.7683
-23.5882
-23.4147
-23.2475
-23.0864
-22.9313
-22.7822
-22.6388
-22.5012
-22.3693
-22.243
-22.1226
-22.0081
-21.8998
-21.798
-21.7028
-21.6145
-21.5333
-21.4591
-21.3922
-21.3328
-21.2809
-21.237
-21.2013
-21.1742
-21.1563
-21.1479
-21.1495
-21.1613
-21.1834
-21.2157
-21.2578
-21.3086
-21.367
-21.4311
-21.4985
-21.5665
-21.6321
-21.6923
-21.7442
-21.7853
-21.8138
-21.8285
-27.931
-27.8851
-27.7958
-27.6676
-27.5064
-27.3186
-27.1105
-26.8878
-26.6552
-26.4165
-26.1744
-25.9312
-25.6888
-25.4487
-25.2126
-24.9816
-24.757
-24.5396
-24.3299
-24.128
-23.9339
-23.7471
-23.5673
-23.3942
-23.2273
-23.0665
-22.9117
-22.7627
-22.6195
-22.4819
-22.3498
-22.2232
-22.1023
-21.9872
-21.8783
-21.7758
-21.68
-21.5911
-21.5093
-21.4346
-21.3671
-21.3069
-21.2542
-21.2092
-21.1725
-21.1445
-21.1256
-21.1166
-21.118
-21.1301
-21.1532
-21.1874
-21.2324
-21.2874
-21.3511
-21.4215
-21.4961
-21.5718
-21.6451
-21.7125
-21.7707
-21.8168
-21.8488
-21.8651
-28.0647
-28.0134
-27.9139
-27.7721
-27.5953
-27.3913
-27.1677
-26.931
-26.6861
-26.4369
-26.1859
-25.9351
-25.6862
-25.4404
-25.1993
-24.9643
-24.7366
-24.517
-24.306
-24.1036
-23.9095
-23.7231
-23.5438
-23.3711
-23.2047
-23.0442
-22.8897
-22.741
-22.5979
-22.4603
-22.328
-22.2011
-22.0796
-21.9638
-21.8541
-21.7508
-21.6543
-21.5648
-21.4824
-21.4071
-21.3389
-21.2779
-21.2242
-21.1781
-21.1401
-21.1108
-21.0908
-21.0809
-21.0818
-21.094
-21.1181
-21.1543
-21.2026
-21.2622
-21.332
-21.4099
-21.493
-21.5778
-21.6603
-21.7364
-21.8021
-21.8541
-21.89
-21.9084
-28.2172
-28.1592
-28.0474
-27.8889
-27.6933
-27.4703
-27.2288
-26.9762
-26.7178
-26.4573
-26.1969
-25.9381
-25.6821
-25.4301
-25.1837
-24.9443
-24.7131
-24.4912
-24.2789
-24.0761
-23.8823
-23.6965
-23.518
-23.3459
-23.18
-23.02
-22.8658
-22.7173
-22.5744
-22.4369
-22.3045
-22.1771
-22.055
-21.9383
-21.8276
-21.7235
-21.6262
-21.536
-21.453
-21.3771
-21.3083
-21.2464
-21.1916
-21.1442
-21.1047
-21.0738
-21.0524
-21.0413
-21.0414
-21.0535
-21.0784
-21.1166
-21.1682
-21.2329
-21.3095
-21.3958
-21.4888
-21.5843
-21.6777
-21.7639
-21.8383
-21.8971
-21.9377
-21.9584
-28.3887
-28.3225
-28.1955
-28.0171
-27.7992
-27.554
-27.2922
-27.022
-26.7491
-26.4767
-26.2066
-25.9396
-25.6763
-25.4179
-25.1657
-24.9214
-24.6865
-24.4621
-24.2487
-24.0459
-23.8527
-23.6679
-23.4903
-23.3191
-23.1537
-22.9941
-22.8402
-22.6921
-22.5495
-22.4121
-22.2796
-22.1518
-22.0288
-21.9111
-21.7993
-21.6941
-21.5959
-21.5051
-21.4216
-21.3452
-21.2757
-21.2129
-21.1569
-21.108
-21.0668
-21.0341
-21.0108
-20.9982
-20.9971
-21.0088
-21.0342
-21.0742
-21.1293
-21.1993
-21.2833
-21.3791
-21.4833
-21.5912
-21.697
-21.795
-21.8794
-21.946
-21.9916
-22.0149
-28.5794
-28.5032
-28.3578
-28.1555
-27.9115
-27.6408
-27.3562
-27.0669
-26.7787
-26.4944
-26.2147
-25.9394
-25.6688
-25.4036
-25.1452
-24.8956
-24.6567
-24.4299
-24.2155
-24.013
-23.8209
-23.6375
-23.4612
-23.2909
-23.1262
-22.9669
-22.8134
-22.6656
-22.5235
-22.3864
-22.2538
-22.1254
-22.0015
-21.8826
-21.7694
-21.663
-21.5638
-21.4724
-21.3884
-21.3116
-21.2416
-21.1779
-21.1207
-21.0701
-21.0268
-20.9919
-20.9666
-20.9519
-20.9494
-20.9602
-20.9858
-21.0273
-21.0857
-21.1613
-21.2533
-21.3595
-21.4763
-21.5982
-21.7185
-21.8299
-21.9257
-22.0008
-22.0521
-22.078
-28.7899
-28.7015
-28.534
-28.3033
-28.0288
-27.729
-27.4191
-27.1094
-26.8056
-26.5096
-26.2207
-25.9376
-25.6596
-25.3873
-25.1223
-24.8669
-24.6238
-24.3945
-24.1794
-23.9776
-23.7872
-23.6057
-23.4311
-23.2619
-23.0977
-22.9387
-22.7854
-22.6381
-22.4966
-22.3599
-22.2274
-22.0985
-21.9734
-21.853
-21.7382
-21.6303
-21.5302
-21.4381
-21.3539
-21.2769
-21.2064
-21.1419
-21.0833
-21.0308
-20.9853
-20.9479
-20.92
-20.9031
-20.8986
-20.9081
-20.9334
-20.976
-21.0375
-21.1186
-21.219
-21.3366
-21.4675
-21.6053
-21.742
-21.8687
-21.9773
-22.0618
-22.1189
-22.1477
-29.0209
-28.9179
-28.7238
-28.4595
-28.1495
-27.8168
-27.4792
-27.1481
-26.8288
-26.5217
-26.2244
-25.934
-25.6489
-25.3693
-25.097
-24.8354
-24.5876
-24.3558
-24.1403
-23.9399
-23.7519
-23.573
-23.4004
-23.2324
-23.0687
-22.9097
-22.7566
-22.6098
-22.4691
-22.3332
-22.2008
-22.0713
-21.9449
-21.8226
-21.7059
-21.5964
-21.4952
-21.4025
-21.3182
-21.2413
-21.1706
-21.1054
-21.0453
-20.9907
-20.9427
-20.9024
-20.8716
-20.8519
-20.845
-20.8527
-20.8771
-20.9204
-20.9845
-21.071
-21.1801
-21.31
-21.4564
-21.6121
-21.7675
-21.9116
-22.0344
-22.129
-22.1922
-22.2238
-29.2737
-29.1528
-28.927
-28.6229
-28.2719
-27.9023
-27.5347
-27.1814
-26.8472
-26.5303
-26.2259
-25.929
-25.6369
-25.3497
-25.0696
-24.8009
-24.5481
-24.3136
-24.0981
-23.8999
-23.7152
-23.5397
-23.3695
-23.2028
-23.0394
-22.8802
-22.7269
-22.5808
-22.4412
-22.3064
-22.1743
-22.0442
-21.9163
-21.7917
-21.6727
-21.5612
-21.4588
-21.3658
-21.2817
-21.2051
-21.1345
-21.0686
-21.007
-20.9502
-20.8993
-20.8558
-20.8217
-20.7988
-20.789
-20.7944
-20.8173
-20.8605
-20.9267
-21.0182
-21.1362
-21.2793
-21.4428
-21.6185
-21.7952
-21.9591
-22.0975
-22.2026
-22.2718
-22.306
-29.5494
-29.4071
-29.1434
-28.7925
-28.3942
-27.9835
-27.5838
-27.208
-26.8598
-26.5349
-26.2251
-25.9227
-25.6241
-25.329
-25.0401
-24.7634
-24.505
-24.268
-24.0529
-23.8578
-23.6776
-23.5062
-23.3389
-23.1735
-23.01
-22.8501
-22.6965
-22.5512
-22.4132
-22.2799
-22.1484
-22.0176
-21.8878
-21.7605
-21.6386
-21.525
-21.4213
-21.328
-21.2445
-21.1687
-21.0985
-21.032
-20.9689
-20.9097
-20.8555
-20.8083
-20.7705
-20.7441
-20.731
-20.7334
-20.7542
-20.7965
-20.8641
-20.9601
-21.0869
-21.2439
-21.426
-21.6242
-21.8249
-22.0113
-22.167
-22.2829
-22.3577
-22.394
-29.8498
-29.6816
-29.3729
-28.9669
-28.5144
-28.0584
-27.6246
-27.2262
-26.8659
-26.5355
-26.2224
-25.9158
-25.6108
-25.3075
-25.0087
-24.7229
-24.4583
-24.2186
-24.0045
-23.8136
-23.6392
-23.4731
-23.3091
-23.1449
-22.981
-22.8197
-22.6652
-22.5208
-22.3851
-22.2539
-22.1233
-21.9918
-21.8599
-21.7291
-21.6037
-21.4876
-21.3826
-21.2893
-21.2067
-21.1323
-21.0629
-20.9961
-20.9314
-20.8694
-20.8116
-20.7604
-20.7185
-20.6882
-20.6712
-20.6702
-20.688
-20.7286
-20.7966
-20.8965
-21.0319
-21.2033
-21.4057
-21.6286
-21.8569
-22.069
-22.2435
-22.3701
-22.4495
-22.4873
-30.1767
-29.9773
-29.6153
-29.1448
-28.6302
-28.1248
-27.6554
-27.2347
-26.8646
-26.5319
-26.2184
-25.9086
-25.5978
-25.2858
-24.9757
-24.679
-24.4077
-24.1654
-23.9528
-23.7675
-23.6005
-23.441
-23.2805
-23.1174
-22.9527
-22.7889
-22.6329
-22.4897
-22.3571
-22.2289
-22.0994
-21.9672
-21.8327
-21.6978
-21.5681
-21.4491
-21.3428
-21.2496
-21.1686
-21.0962
-21.0281
-20.961
-20.8946
-20.8298
-20.7679
-20.7122
-20.6659
-20.6313
-20.6102
-20.6051
-20.6192
-20.6571
-20.7243
-20.827
-20.9705
-21.157
-21.3812
-21.6315
-21.8911
-22.1327
-22.3277
-22.4644
-22.547
-22.5852
-30.5322
-30.295
-29.8705
-29.3243
-28.7391
-28.1806
-27.6742
-27.232
-26.8553
-26.5244
-26.2136
-25.902
-25.5855
-25.2647
-24.9411
-24.6316
-24.353
-24.108
-23.8973
-23.7193
-23.5618
-23.4104
-23.2538
-23.0914
-22.9253
-22.7578
-22.5992
-22.4576
-22.3293
-22.2052
-22.0771
-21.944
-21.8068
-21.6667
-21.5316
-21.4095
-21.3017
-21.2088
-21.1301
-21.0606
-20.9944
-20.9272
-20.859
-20.7911
-20.7246
-20.6638
-20.613
-20.5739
-20.5482
-20.5385
-20.5481
-20.5821
-20.6474
-20.7515
-20.9024
-21.1045
-21.3519
-21.632
-21.9275
-22.2036
-22.4205
-22.5659
-22.6496
-22.687
-30.919
-30.6359
-30.1386
-29.5038
-28.838
-28.2237
-27.6796
-27.2164
-26.8374
-26.5131
-26.2091
-25.8967
-25.5746
-25.2449
-24.9053
-24.5801
-24.2941
-24.0463
-23.8378
-23.6692
-23.5236
-23.382
-23.2293
-23.0671
-22.8993
-22.7262
-22.5635
-22.4243
-22.3018
-22.1832
-22.0567
-21.9226
-21.7825
-21.6358
-21.494
-21.3687
-21.2595
-21.167
-21.0914
-21.0258
-20.9623
-20.895
-20.8248
-20.7536
-20.682
-20.6155
-20.5599
-20.5162
-20.4857
-20.4708
-20.4751
-20.504
-20.566
-20.67
-20.8269
-21.0451
-21.3173
-21.6292
-21.9659
-22.2828
-22.5232
-22.675
-22.7568
-22.7914
-31.34
-31.0004
-30.4197
-29.681
-28.9233
-28.2524
-27.6701
-27.1864
-26.8104
-26.4987
-26.2064
-25.8933
-25.5655
-25.2278
-24.8684
-24.5238
-24.2309
-23.9801
-23.7737
-23.6171
-23.4863
-23.3569
-23.2075
-23.045
-22.8753
-22.6941
-22.5251
-22.3893
-22.2747
-22.1636
-22.0384
-21.9031
-21.7603
-21.6053
-21.4551
-21.3266
-21.2159
-21.1238
-21.0525
-20.992
-20.9322
-20.8645
-20.7921
-20.7178
-20.6401
-20.5672
-20.5068
-20.4584
-20.4228
-20.4026
-20.4006
-20.4233
-20.4804
-20.5824
-20.7435
-20.9784
-21.277
-21.622
-22.0061
-22.3721
-22.6371
-22.7918
-22.8678
-22.8974
-31.7985
-31.3889
-30.7146
-29.8538
-28.9907
-28.2651
-27.6449
-27.14
-26.774
-26.4816
-26.2071
-25.8924
-25.5585
-25.215
-24.8306
-24.4614
-24.1634
-23.9096
-23.7042
-23.5631
-23.4504
-23.3361
-23.1888
-23.0249
-22.8541
-22.6614
-22.4828
-22.3523
-22.2482
-22.147
-22.0226
-21.8856
-21.741
-21.5753
-21.4141
-21.2834
-21.1712
-21.0789
-21.0134
-20.9595
-20.9046
-20.8361
-20.761
-20.6839
-20.5993
-20.5188
-20.4539
-20.4009
-20.3601
-20.3341
-20.3252
-20.3402
-20.3909
-20.4886
-20.6515
-20.9039
-21.2306
-21.6085
-22.0473
-22.4739
-22.7641
-22.9163
-22.9814
-23.0035
-32.2986
-31.8004
-31.0247
-30.0194
-29.0345
-28.2614
-27.6033
-27.0747
-26.7281
-26.4626
-26.2138
-25.8944
-25.5532
-25.2088
-24.7922
-24.391
-24.0923
-23.8347
-23.628
-23.507
-23.4162
-23.3212
-23.1734
-23.0068
-22.8372
-22.6279
-22.4352
-22.313
-22.2223
-22.1346
-22.0094
-21.8699
-21.7257
-21.5458
-21.3703
-21.2393
-21.1252
-21.0319
-20.9742
-20.9284
-20.8801
-20.8098
-20.7316
-20.6526
-20.5594
-20.47
-20.4014
-20.344
-20.2977
-20.2659
-20.2493
-20.2553
-20.2982
-20.389
-20.55
-20.8213
-21.1783
-21.5863
-22.0885
-22.5916
-22.9061
-23.0483
-23.0965
-23.1082
-32.8455
-32.2323
-31.3528
-30.175
-29.0473
-28.2419
-27.5456
-26.9871
-26.6729
-26.442
-26.2299
-25.8993
-25.5486
-25.2127
-24.7534
-24.3096
-24.0184
-23.7561
-23.5433
-23.4492
-23.3841
-23.3141
-23.1613
-22.9899
-22.8263
-22.5936
-22.3799
-22.2709
-22.1972
-22.1278
-21.9986
-21.8556
-21.7159
-21.5169
-21.3223
-21.1946
-21.0784
-20.982
-20.935
-20.8989
-20.8596
-20.7857
-20.7034
-20.6244
-20.5207
-20.4205
-20.3495
-20.288
-20.236
-20.1984
-20.1735
-20.1688
-20.2027
-20.2839
-20.4375
-20.7304
-21.121
-21.552
-22.1277
-22.73
-23.0655
-23.1873
-23.2116
-23.2097
-33.4458
-32.6791
-31.7041
-30.3175
-29.0192
-28.2095
-27.473
-26.8727
-26.6097
-26.42
-26.2601
-25.9066
-25.5423
-25.2318
-24.7142
-24.2127
-23.9441
-23.6747
-23.4474
-23.3903
-23.354
-23.3177
-23.152
-22.9727
-22.8246
-22.5584
-22.3139
-22.2263
-22.1725
-22.1289
-21.99
-21.8414
-21.714
-21.4886
-21.268
-21.1503
-21.0309
-20.928
-20.8961
-20.8711
-20.8443
-20.7636
-20.6759
-20.6005
-20.4831
-20.3693
-20.2985
-20.233
-20.175
-20.1322
-20.0984
-20.0811
-20.1054
-20.1741
-20.3122
-20.631
-21.0611
-21.5009
-22.1617
-22.8956
-23.2447
-23.3324
-23.3248
-23.3065
-34.1081
-33.1306
-32.0873
-30.4437
-28.9363
-28.1698
-27.3878
-26.7246
-26.5406
-26.3956
-26.3111
-25.9149
-25.5303
-25.2739
-24.6749
-24.0933
-23.873
-23.5918
-23.3362
-23.3314
-23.3252
-23.3359
-23.1447
-22.9527
-22.8364
-22.5221
-22.2327
-22.1796
-22.1477
-22.1407
-21.9829
-21.8255
-21.7232
-21.461
-21.2042
-21.108
-20.9836
-20.8682
-20.858
-20.8446
-20.8358
-20.7431
-20.6483
-20.5823
-20.4467
-20.3154
-20.2491
-20.1795
-20.1148
-20.0677
-20.0245
-19.9924
-20.007
-20.061
-20.1716
-20.523
-21.0023
-21.4267
-22.1858
-23.0981
-23.446
-23.4821
-23.4344
-23.3969
-34.8443
-33.5699
-32.5167
-30.5501
-28.7792
-28.1333
-27.2936
-26.5326
-26.4703
-26.3659
-26.3926
-25.9217
-25.5054
-25.3499
-24.6355
-23.9412
-23.8113
-23.5098
-23.2035
-23.2752
-23.2959
-23.3745
-23.1378
-22.9257
-22.8684
-22.4848
-22.1303
-22.1326
-22.1214
-22.1678
-21.976
-21.8044
-21.7488
-21.434
-21.1263
-21.0705
-20.9374
-20.7999
-20.8218
-20.8187
-20.8364
-20.7238
-20.6187
-20.5722
-20.4113
-20.2569
-20.2021
-20.1278
-20.0553
-20.0056
-19.9525
-19.9026
-19.9086
-19.9467
-20.0118
-20.4061
-20.9517
-21.3204
-22.1928
-23.3509
-23.6714
-23.6339
-23.5381
-23.4793
-35.6709
-33.9694
-33.0149
-30.633
-28.5212
-28.1165
-27.1959
-26.282
-26.407
-26.3251
-26.5181
-25.9229
-25.4567
-25.4762
-24.5958
-23.7416
-23.7686
-23.4318
-23.0404
-23.2262
-23.2625
-23.4416
-23.1289
-22.8852
-22.9303
-22.4463
-21.9982
-22.0889
-22.0908
-22.2165
-21.9675
-21.7733
-21.7981
-21.4075
-21.0276
-21.0419
-20.8935
-20.7192
-20.7896
-20.792
-20.8494
-20.7046
-20.5849
-20.5735
-20.3768
-20.1915
-20.1589
-20.0781
-19.9962
-19.9464
-19.8833
-19.8113
-19.8114
-19.8347
-19.8272
-20.2797
-20.9201
-21.1705
-22.1722
-23.6728
-23.9214
-23.7848
-23.6338
-23.5523
-36.6109
-34.2866
-33.6163
-30.6885
-28.1248
-28.1454
-27.1017
-25.9512
-26.3642
-26.2621
-26.7072
-25.9129
-25.3678
-25.6758
-24.5556
-23.4736
-23.7595
-23.3619
-22.8338
-23.1924
-23.218
-23.5489
-23.1144
-22.8211
-23.0358
-22.4063
-21.8245
-22.0548
-22.0507
-22.296
-21.9547
-21.7243
-21.8816
-21.3812
-20.8987
-21.0288
-20.8538
-20.6206
-20.7646
-20.7616
-20.8795
-20.6841
-20.543
-20.5909
-20.3428
-20.1155
-20.1219
-20.0307
-19.9368
-19.891
-19.8179
-19.7176
-19.7164
-19.7301
-19.6104
-20.1422
-20.9238
-20.9613
-22.1088
-24.0905
-24.1945
-23.9305
-23.7192
-23.615
-37.6966
-34.4582
-34.3724
-30.7124
-27.5385
-28.2579
-27.02
-25.5095
-26.3644
-26.1582
-26.9873
-25.8835
-25.2145
-25.9811
-24.5141
-23.1076
-23.8054
-23.3054
-22.5652
-23.1865
-23.1512
-23.7129
-23.0893
-22.7193
-23.2043
-22.3643
-21.5934
-22.0409
-21.9925
-22.419
-21.9335
-21.6466
-22.0143
-21.3546
-20.7264
-21.0406
-20.8205
-20.4962
-20.7526
-20.7231
-20.9336
-20.6602
-20.488
-20.6314
-20.3088
-20.0241
-20.0943
-19.9856
-19.8763
-19.8403
-19.7577
-19.6202
-19.6245
-19.6408
-19.3509
-19.9909
-20.9869
-20.6722
-21.9815
-24.6407
-24.4857
-24.0657
-23.7924
-23.6667
-38.9727
-34.392
-35.3572
-30.6995
-26.6923
-28.5085
-26.9617
-24.9137
-26.4419
-25.9833
-27.3969
-25.8236
-24.9629
-26.4367
-24.47
-22.6035
-23.937
-23.269
-22.2085
-23.2289
-23.0439
-23.9566
-23.0468
-22.5595
-23.4627
-22.3191
-21.2831
-22.0638
-21.9022
-22.6036
-21.8989
-21.5245
-22.2165
-21.3271
-20.4927
-21.0912
-20.7964
-20.3348
-20.7621
-20.6688
-21.0209
-20.6301
-20.4124
-20.7044
-20.2736
-19.911
-20.0813
-19.9428
-19.8132
-19.7955
-19.7043
-19.5169
-19.5359
-19.5779
-19.0346
-19.8203
-21.1433
-20.2768
-21.7612
-25.3735
-24.7844
-24.1847
-23.8519
-23.7071
-40.5005
-33.9579
-36.6758
-30.6434
-25.4926
-28.9732
-26.9396
-24.1042
-26.6487
-25.691
-27.9889
-25.7186
-24.5659
-27.1032
-24.4212
-21.9068
-24.1969
-23.2606
-21.7281
-23.3501
-22.8679
-24.312
-22.978
-22.3136
-23.8471
-22.2689
-20.8646
-22.1488
-21.7585
-22.8746
-21.8439
-21.3365
-22.5162
-21.2973
-20.1733
-21.1997
-20.7848
-20.1211
-20.8063
-20.5875
-21.1546
-20.5902
-20.3064
-20.8231
-20.2358
-19.7674
-20.0899
-19.9018
-19.7459
-19.7581
-19.6601
-19.4047
-19.4501
-19.5574
-18.6435
-19.6216
-21.44
-19.7415
-21.4085
-26.3566
-25.0718
-24.2811
-23.8966
-23.7364
-42.3632
-32.9759
-38.473
-30.5356
-23.8158
-29.7552
-26.9676
-23.0002
-27.0607
-25.2125
-28.8351
-25.5498
-23.9604
-28.0607
-24.3644
-20.9461
-24.6432
-23.2894
-21.0753
-23.5949
-22.5821
-24.8224
-22.8715
-21.944
-24.4057
-22.2104
-20.2998
-22.3327
-21.5292
-23.2657
-21.7596
-21.0537
-22.9503
-21.2634
-19.7365
-21.3922
-20.7896
-19.8346
-20.9045
-20.4624
-21.3525
-20.5354
-20.1565
-21.005
-20.1932
-19.5824
-20.1301
-19.8614
-19.6719
-19.7299
-19.6284
-19.2799
-19.3652
-19.601
-18.1543
-19.3811
-21.9401
-19.024
-20.871
-27.68
-25.3179
-24.3495
-23.9266
-23.7553
-44.6714
-31.203
-40.9448
-30.3641
-21.5018
-30.9921
-27.0605
-21.494
-27.7853
-24.4486
-30.0316
-25.2931
-23.0622
-29.4135
-24.2943
-19.6279
-25.3528
-23.3649
-20.1853
-24.0264
-22.1265
-25.5452
-22.7118
-21.4002
-25.2009
-22.1383
-19.5379
-22.6669
-21.1673
-23.8211
-21.6337
-20.6368
-23.5659
-21.2215
-19.1394
-21.7022
-20.8132
-19.4463
-21.0822
-20.2672
-21.6365
-20.4575
-19.9435
-21.2711
-20.1401
-19.3393
-20.2132
-19.8172
-19.5861
-19.7106
-19.6106
-19.1349
-19.2744
-19.7357
-17.535
-19.0751
-22.7237
-18.0689
-20.0774
-29.4587
-25.4743
-24.3827
-23.9393
-23.7618
)
;

boundaryField
{
    left
    {
        type            calculated;
        value           nonuniform List<scalar> 
32
(
-27.5699
-27.5968
-27.6481
-27.7219
-27.8165
-27.931
-28.0647
-28.2172
-28.3887
-28.5794
-28.7899
-29.0209
-29.2737
-29.5494
-29.8498
-30.1767
-30.5322
-30.919
-31.34
-31.7985
-32.2986
-32.8455
-33.4458
-34.1081
-34.8443
-35.6709
-36.6109
-37.6966
-38.9727
-40.5005
-42.3632
-44.6714
)
;
    }
    right
    {
        type            calculated;
        value           nonuniform List<scalar> 
32
(
-21.7512
-21.7594
-21.7754
-21.7985
-21.8285
-21.8651
-21.9084
-21.9584
-22.0149
-22.078
-22.1477
-22.2238
-22.306
-22.394
-22.4873
-22.5852
-22.687
-22.7914
-22.8974
-23.0035
-23.1082
-23.2097
-23.3065
-23.3969
-23.4793
-23.5523
-23.615
-23.6667
-23.7071
-23.7364
-23.7553
-23.7618
)
;
    }
    interface
    {
        type            calculated;
        value           nonuniform List<scalar> 
64
(
-45.9527
-30.0841
-42.3773
-30.2607
-20.163
-31.7437
-27.1251
-20.6251
-28.2414
-23.9808
-30.7311
-25.1394
-22.528
-30.2034
-24.2552
-18.8664
-25.7843
-23.4156
-19.6717
-24.298
-21.8474
-25.9679
-22.6166
-21.0776
-25.6662
-22.0978
-19.1005
-22.879
-20.9462
-24.1461
-21.5584
-20.3891
-23.9256
-21.1978
-18.7947
-21.8911
-20.8298
-19.2223
-21.1944
-20.1481
-21.8031
-20.4115
-19.8181
-21.428
-20.1099
-19.2006
-20.2668
-19.7932
-19.5393
-19.7029
-19.6052
-19.056
-19.2262
-19.8293
-17.1881
-18.9019
-23.1975
-17.524
-19.6061
-30.4777
-25.5225
-24.3894
-23.9408
-23.7613
)
;
    }
    bottom
    {
        type            calculated;
        value           nonuniform List<scalar> 
64
(
-27.563
-27.53
-27.4651
-27.3701
-27.2479
-27.1017
-26.9348
-26.7511
-26.5538
-26.3462
-26.1314
-25.9118
-25.6897
-25.4671
-25.2457
-25.0269
-24.8118
-24.6014
-24.3963
-24.1971
-24.004
-23.8172
-23.6368
-23.4627
-23.2948
-23.1332
-22.9776
-22.8281
-22.6846
-22.5471
-22.4156
-22.29
-22.1706
-22.0573
-21.9504
-21.85
-21.7563
-21.6694
-21.5895
-21.5168
-21.4515
-21.3938
-21.3438
-21.302
-21.2684
-21.2433
-21.227
-21.2196
-21.2212
-21.2317
-21.2508
-21.2781
-21.3129
-21.3542
-21.4006
-21.4507
-21.5024
-21.554
-21.6032
-21.6481
-21.6866
-21.7171
-21.7382
-21.749
)
;
    }
    defaultFaces
    {
        type            empty;
    }
}


// ************************************************************************* //
