/*--------------------------------*- C++ -*----------------------------------*\
| =========                 |                                                 |
| \\      /  F ield         | OpenFOAM: The Open Source CFD Toolbox           |
|  \\    /   O peration     | Version:  5.x                                   |
|   \\  /    A nd           | Web:      www.OpenFOAM.org                      |
|    \\/     M anipulation  |                                                 |
\*---------------------------------------------------------------------------*/
FoamFile
{
    version     2.0;
    format      ascii;
    class       volScalarField;
    location    "11.6";
    object      gradTx;
}
// * * * * * * * * * * * * * * * * * * * * * * * * * * * * * * * * * * * * * //

dimensions      [0 -1 0 1 0 0 0];

internalField   nonuniform List<scalar> 
6300
(
25.3494
25.6997
26.3943
27.4207
28.7589
30.3802
32.2456
34.3048
36.4947
38.7403
40.9554
43.0466
44.9185
46.4806
47.6554
24.9981
25.3544
26.0616
27.1079
28.4748
30.135
32.0509
34.1729
36.438
38.7696
41.0782
43.2649
45.2271
46.8668
48.0991
24.2895
24.6574
25.3886
26.4736
27.8964
29.633
31.6489
33.8967
36.3139
38.8209
41.3217
43.7063
45.8572
47.659
49.0112
23.2121
23.596
24.3609
25.5004
27.0032
28.8507
31.014
33.4502
36.0987
38.8772
41.6803
44.3805
46.8352
48.8998
50.4453
21.7499
22.1526
22.9575
24.163
25.7644
27.7517
30.1051
32.7905
35.7524
38.9079
42.1406
45.2988
48.2023
50.6584
52.4905
19.884
20.306
21.1526
22.4286
24.1388
26.2854
28.8633
31.853
35.2115
38.8604
42.6741
46.4709
50.0156
53.0397
55.2858
17.5953
18.0338
18.9175
20.259
22.0757
24.3868
27.2086
30.5457
34.3791
38.6471
43.2233
47.894
52.3483
56.1978
59.0451
14.8672
15.3156
16.2236
17.6133
19.5173
21.9767
25.0374
28.7412
33.111
38.1245
43.6767
49.5323
55.2844
60.3571
64.1016
11.6898
12.1369
13.047
14.4524
16.4024
18.9645
22.2221
26.2698
31.198
37.0621
43.8258
51.2728
58.8989
65.8431
70.9921
8.06441
8.49439
9.37436
10.7458
12.6748
15.2557
18.6159
22.917
28.3481
35.0989
43.2903
52.8332
63.1936
73.123
80.6269
4.00823
4.40109
5.20941
6.48098
8.29421
10.7668
14.0679
18.4331
24.1775
31.694
41.4023
53.5746
67.9181
82.8267
94.6614
-0.441562
-0.108443
0.580424
1.67369
3.2535
5.44852
8.45497
12.5691
18.2337
26.0963
37.0489
52.1433
72.0758
95.6026
116.404
-5.2252
-4.97445
-4.45369
-3.62088
-2.40317
-0.681966
1.73359
5.15366
10.0911
17.4075
28.5525
45.8727
72.6373
111.102
153.346
-10.2603
-10.1111
-9.80053
-9.30103
-8.56401
-7.50751
-5.99303
-3.77991
-0.431405
4.88915
13.8797
30.1564
61.4974
122.819
225.41
-15.4451
-15.41
-15.3369
-15.2193
-15.045
-14.7917
-14.4189
-13.8496
-12.9267
-11.3001
-8.0804
-0.625358
20.3752
93.266
396.841
48.3602
48.6375
48.5779
48.1876
47.4836
46.4909
45.2401
43.7643
42.0973
40.2712
38.3157
36.257
34.118
31.918
29.6733
27.3976
25.1027
22.7982
20.4928
18.1938
15.9078
13.6403
11.3966
9.18084
6.99696
4.84815
2.73705
0.665798
-1.36402
-3.3513
-5.29539
-7.19605
-9.05334
-10.8676
-12.6392
-14.3685
-16.0559
-17.7015
-19.3052
-20.8667
-22.3856
-23.8615
-25.2942
-26.6838
-28.0307
-29.3359
-30.6008
-31.8274
-33.0177
-34.1739
-35.2979
-36.3912
-37.455
-38.4893
-39.4938
-40.4673
-41.4084
-42.3152
-43.1859
-44.0187
-44.8124
-45.5656
-46.2772
-46.9462
-47.5709
-48.1492
-48.6778
-49.1523
-49.5668
-49.9141
-50.186
-50.3735
-50.4671
-50.4575
-50.3363
-50.0961
-49.7312
-49.2378
-48.6139
-47.8602
-46.9792
-45.9758
-44.8571
-43.6325
-42.3136
-40.9142
-39.4503
-37.9396
-36.401
-34.8543
48.8358
49.1217
49.053
48.6383
47.8982
46.8616
45.5629
44.0388
42.3254
40.4567
38.4634
36.372
34.2051
31.9816
29.7171
27.4249
25.1158
22.7991
20.4831
18.1748
15.8806
13.6059
11.3559
9.13474
6.94628
4.79368
2.67957
0.606055
-1.42531
-3.41349
-5.3579
-7.25841
-9.11524
-10.9288
-12.6998
-14.4287
-16.1159
-17.7616
-19.3656
-20.9277
-22.4471
-23.9234
-25.356
-26.7448
-28.0903
-29.3934
-30.6556
-31.8791
-33.0663
-34.2196
-35.3414
-36.4334
-37.4967
-38.5317
-39.5377
-40.5135
-41.4571
-42.3665
-43.2396
-44.0746
-44.87
-45.6247
-46.338
-47.0092
-47.6371
-48.2201
-48.7551
-49.238
-49.6628
-50.022
-50.307
-50.508
-50.6149
-50.6176
-50.5069
-50.275
-49.9157
-49.4248
-48.8004
-48.0429
-47.1548
-46.1412
-45.009
-43.7677
-42.4288
-41.0066
-39.5172
-37.9791
-36.4122
-34.8373
49.8134
50.1153
50.0249
49.5566
48.7386
47.6086
46.2094
44.5847
42.776
40.8209
38.7515
36.5948
34.3729
32.1034
29.8004
27.4758
25.1391
22.7986
20.4618
18.1352
15.8247
13.5358
11.2733
9.04135
6.84375
4.68361
2.56353
0.485545
-1.54884
-3.53868
-5.48357
-7.38359
-9.23926
-11.0514
-12.8209
-14.5487
-16.2354
-17.8813
-19.4863
-21.0496
-22.5705
-24.0477
-25.4803
-26.8679
-28.2105
-29.5092
-30.7657
-31.9827
-33.1631
-34.3103
-35.4272
-36.5162
-37.5788
-38.6152
-39.6246
-40.6052
-41.5544
-42.4695
-43.3477
-44.1868
-44.9854
-45.7428
-46.4588
-47.1337
-47.7674
-48.3592
-48.9069
-49.4066
-49.8523
-50.2361
-50.5482
-50.7773
-50.9119
-50.9402
-50.8515
-50.6368
-50.2889
-49.8033
-49.1778
-48.4127
-47.5107
-46.4766
-45.3175
-44.0426
-42.6637
-41.195
-39.6538
-38.0596
-36.4344
-34.8014
51.3503
51.6724
51.5399
50.9774
50.0271
48.7422
47.1796
45.3945
43.4367
41.3485
39.1644
36.9109
34.6085
32.2725
29.9144
27.5434
25.1672
22.7924
20.4253
18.0718
15.7375
13.4274
11.1463
8.89829
6.68707
4.51571
2.38674
0.302182
-1.73654
-3.7286
-5.6738
-7.57256
-9.42587
-11.2351
-13.0018
-14.7275
-16.4134
-18.0598
-19.6665
-21.2326
-22.7563
-24.2358
-25.6691
-27.0552
-28.3936
-29.6852
-30.9323
-32.1383
-33.3073
-34.444
-35.5526
-36.6366
-37.6979
-38.7369
-39.7524
-40.7415
-41.7003
-42.6249
-43.5113
-44.3568
-45.1596
-45.9197
-46.6382
-47.3168
-47.9575
-48.5611
-49.127
-49.6521
-50.1304
-50.5529
-50.908
-51.1823
-51.3612
-51.4305
-51.3769
-51.1895
-50.8598
-50.3826
-49.7556
-48.9791
-48.0561
-46.9914
-45.792
-44.4668
-43.0271
-41.4875
-39.866
-38.1842
-36.4675
-34.7428
53.5422
53.883
53.6731
52.9554
51.7965
50.2748
48.4692
46.452
44.2841
42.0136
39.6761
37.2966
34.8918
32.4726
30.0463
27.6181
25.1926
22.7746
20.3688
17.9805
15.6149
13.2769
10.9713
8.70205
6.47282
4.2866
2.14591
0.0527471
-1.99147
-3.98598
-5.93084
-7.82691
-9.67583
-11.4799
-13.2417
-14.9637
-16.6478
-18.295
-19.905
-21.4761
-23.0055
-24.4898
-25.9258
-27.3107
-28.6435
-29.9248
-31.1576
-32.3465
-33.4976
-34.6176
-35.713
-36.7889
-37.8484
-38.892
-39.9176
-40.9206
-41.895
-42.8346
-43.7334
-44.5874
-45.3947
-46.1559
-46.8742
-47.5539
-48.2001
-48.8166
-49.4053
-49.9645
-50.4881
-50.9659
-51.3836
-51.7237
-51.9677
-52.0969
-52.0944
-51.9463
-51.6425
-51.1771
-50.5479
-49.7559
-48.8048
-47.6996
-46.4471
-45.0551
-43.534
-41.8974
-40.1642
-38.3589
-36.5113
-34.6554
56.5389
56.8857
56.5363
55.5675
54.0875
52.2151
50.0626
47.7255
45.2784
42.7742
40.2475
37.7179
35.1951
32.6824
30.1802
27.6882
25.2069
22.7386
20.2867
17.8562
15.4521
13.0796
10.7436
8.44801
6.19644
3.99178
1.83653
-0.267235
-2.31797
-4.31487
-6.2581
-8.14904
-9.99027
-11.7854
-13.5386
-15.2541
-16.9352
-18.5837
-20.1993
-21.7793
-23.3192
-24.8132
-26.2554
-27.6408
-28.9669
-30.234
-31.4456
-32.6086
-33.7321
-34.8262
-35.901
-36.9644
-38.0213
-39.0726
-40.1146
-41.1401
-42.1394
-43.1023
-44.0194
-44.8846
-45.6953
-46.4534
-47.165
-47.8388
-48.4846
-49.1116
-49.7255
-50.3272
-50.9111
-51.4649
-51.9699
-52.403
-52.7388
-52.9523
-53.0208
-52.9266
-52.6573
-52.2067
-51.5738
-50.7613
-49.7746
-48.6196
-47.3023
-45.8289
-44.2064
-42.446
-40.5659
-38.5937
-36.5667
-34.5296
60.5723
60.8897
60.2905
58.9146
56.9426
54.5578
51.9207
49.1567
46.354
43.5666
40.822
38.1286
35.483
32.8765
30.2989
27.7422
25.2021
22.6782
20.1736
17.6933
15.2434
12.8296
10.4573
8.13042
5.85233
3.62569
1.45294
-0.663634
-2.72203
-4.721
-6.6606
-8.54265
-10.371
-12.1511
-13.8898
-15.5938
-17.2692
-18.9194
-20.5443
-22.14
-23.6988
-25.2109
-26.6662
-28.0561
-29.375
-30.6225
-31.8032
-32.9272
-34.0083
-35.0622
-36.1047
-37.1485
-38.2018
-39.2659
-40.3349
-41.3968
-42.4358
-43.435
-44.3797
-45.2596
-46.0709
-46.8174
-47.5096
-48.1631
-48.7957
-49.4246
-50.0625
-50.7148
-51.377
-52.0335
-52.6592
-53.2217
-53.6855
-54.0156
-54.181
-54.1582
-53.9325
-53.4983
-52.8576
-52.0171
-50.986
-49.7724
-48.382
-46.8166
-45.0768
-43.1665
-41.0998
-38.9068
-36.6362
-34.3509
66.006
66.2123
65.162
63.1187
60.3909
57.2628
53.9606
50.643
47.4066
44.2966
41.3222
38.4696
35.7142
33.0281
30.3867
27.7717
25.1733
22.5897
20.025
17.4864
14.9822
12.5198
10.1052
7.7424
5.43397
3.18189
0.988363
-1.14384
-3.21167
-5.2126
-7.14588
-9.01354
-10.8209
-12.5764
-14.2905
-15.9747
-17.6393
-19.2912
-20.9313
-22.5534
-24.1451
-25.6901
-27.171
-28.5729
-29.8856
-31.1065
-32.2421
-33.3071
-34.323
-35.3143
-36.3058
-37.3185
-38.3662
-39.4515
-40.5648
-41.6859
-42.7887
-43.8457
-44.8327
-45.7326
-46.5392
-47.2589
-47.9093
-48.5168
-49.1117
-49.724
-50.378
-51.0875
-51.8502
-52.6459
-53.4387
-54.1819
-54.8241
-55.3152
-55.6116
-55.6813
-55.5072
-55.0867
-54.4282
-53.5469
-52.4594
-51.1795
-49.7128
-48.0549
-46.1922
-44.1118
-41.8151
-39.3311
-36.7262
-34.0966
73.4323
73.3432
71.4619
68.3075
64.4141
60.2171
56.0213
52.0116
48.2761
44.8307
41.646
38.67
35.8446
33.1149
30.4358
27.7767
25.1227
22.4736
19.8382
17.2295
14.6603
12.1409
9.67831
7.27587
4.9343
2.65366
0.435421
-1.7168
-3.79761
-5.80157
-7.72556
-9.57112
-11.3455
-13.061
-14.7341
-16.3835
-18.0274
-19.6796
-21.3438
-23.0103
-24.6584
-26.2609
-27.7893
-29.2177
-30.5278
-31.713
-32.7819
-33.7574
-34.6725
-35.5656
-36.4757
-37.4377
-38.4758
-39.5963
-40.7827
-42.0007
-43.207
-44.3567
-45.4102
-46.3391
-47.1322
-47.7994
-48.3702
-48.8878
-49.4019
-49.9624
-50.6131
-51.3829
-52.2751
-53.2618
-54.2888
-55.2866
-56.1797
-56.8945
-57.3678
-57.5548
-57.4362
-57.0169
-56.3191
-55.3728
-54.2095
-52.8545
-51.3186
-49.5874
-47.6203
-45.3681
-42.7993
-39.9291
-36.8514
-33.728
83.8693
83.0533
79.5934
74.559
68.8733
63.1682
57.8126
52.9841
48.727
44.9886
41.6683
38.6529
35.8365
33.1279
30.4557
27.7735
25.0645
22.3371
19.6126
16.9155
14.2663
11.6799
9.16452
6.72148
4.34671
2.03549
-0.212655
-2.39261
-4.49418
-6.50564
-8.41807
-10.2311
-11.9545
-13.6064
-15.2116
-16.7998
-18.4033
-20.0504
-21.7526
-23.4933
-25.2368
-26.938
-28.5509
-30.0324
-31.3493
-32.4865
-33.4556
-34.2939
-35.0531
-35.7919
-36.5703
-37.4464
-38.4662
-39.6456
-40.9543
-42.3318
-43.7061
-45.0057
-46.1665
-47.1406
-47.9058
-48.4778
-48.907
-49.2632
-49.6246
-50.0703
-50.6761
-51.501
-52.5635
-53.8188
-55.1803
-56.5415
-57.7912
-58.8209
-59.5353
-59.8676
-59.7972
-59.3477
-58.5668
-57.5104
-56.2346
-54.7895
-53.2048
-51.4592
-49.4581
-47.0798
-44.2168
-40.8256
-37.0417
-33.1723
99.2026
96.5688
89.9908
81.7471
73.3596
65.6147
58.8433
53.1326
48.4296
44.5437
41.2504
38.3486
35.6725
33.0877
30.4892
27.8086
25.0321
22.1957
19.3473
16.532
13.7813
11.1166
8.54623
6.06861
3.66746
1.32637
-0.95897
-3.18128
-5.32049
-7.35223
-9.25355
-11.0201
-12.6663
-14.2191
-15.7132
-17.1937
-18.7162
-20.3417
-22.1056
-23.972
-25.8754
-27.742
-29.5014
-31.0835
-32.429
-33.5014
-34.3173
-34.9436
-35.4627
-35.9604
-36.5238
-37.2477
-38.2261
-39.5081
-41.0261
-42.6669
-44.3119
-45.8537
-47.1912
-48.2419
-48.957
-49.3612
-49.548
-49.6306
-49.7249
-49.947
-50.4227
-51.2764
-52.5732
-54.2224
-56.0714
-57.956
-59.7188
-61.2004
-62.2523
-62.7595
-62.7032
-62.1549
-61.2104
-59.9634
-58.5027
-56.9249
-55.3219
-53.6981
-51.8384
-49.4889
-46.3942
-42.287
-37.3547
-32.2736
123.276
115.762
102.785
89.1412
76.9198
66.6588
58.3459
51.8292
46.9549
43.2443
40.2683
37.7185
35.3763
33.0666
30.6402
27.9814
25.0853
22.0713
19.0337
16.0552
13.1724
10.417
7.79426
5.30547
2.90165
0.53693
-1.79606
-4.08959
-6.3015
-8.38651
-10.283
-11.982
-13.5126
-14.9159
-16.2345
-17.5266
-18.8807
-20.4332
-22.3105
-24.3971
-26.5666
-28.7
-30.7067
-32.4749
-33.9015
-34.885
-35.4515
-35.7469
-35.9027
-36.0338
-36.2454
-36.6821
-37.548
-39.0304
-40.9203
-42.9952
-45.0659
-46.995
-48.6284
-49.8258
-50.4552
-50.5569
-50.3383
-49.9807
-49.6406
-49.4577
-49.6246
-50.4131
-52.0748
-54.3375
-56.9107
-59.545
-62.0507
-64.1979
-65.7527
-66.4623
-66.3171
-65.5318
-64.2888
-62.7233
-60.9387
-59.0962
-57.468
-56.276
-54.9236
-52.9704
-50.0289
-44.9359
-37.8817
-30.6543
164.89
142.82
116.537
94.4848
77.655
64.8963
55.2605
48.1597
43.8035
40.8863
38.6713
36.7889
35.0323
33.2131
31.125
28.4952
25.3076
21.9805
18.6346
15.4401
12.3799
9.52582
6.84922
4.41979
2.07943
-0.298275
-2.68999
-5.11537
-7.46518
-9.69218
-11.5965
-13.1865
-14.5418
-15.7345
-16.7935
-17.7698
-18.7592
-20.0568
-22.2133
-24.7027
-27.3091
-29.8399
-32.2548
-34.3577
-36.0113
-36.8686
-36.9754
-36.7508
-36.3775
-35.9908
-35.6421
-35.4978
-35.9816
-37.9652
-40.5476
-43.3287
-46.0233
-48.5612
-50.6926
-52.227
-52.7126
-52.213
-51.3279
-50.3047
-49.3294
-48.4637
-47.9307
-48.2915
-50.7102
-54.0049
-57.6611
-61.3182
-64.8983
-68.0475
-70.4693
-71.3951
-70.8519
-69.5668
-67.8308
-65.7979
-63.4571
-60.9579
-58.9855
-59.0839
-58.8732
-57.8745
-56.7612
-50.4084
-38.6575
-27.3051
246.824
175.945
124.193
92.3072
72.5267
58.6356
48.5238
40.5368
38.5791
37.5164
36.5948
35.6772
34.778
33.7459
32.3894
29.8117
25.7302
21.9162
18.017
14.6315
11.2901
8.37896
5.54808
3.40574
1.31091
-1.11332
-3.53545
-6.2499
-8.8056
-11.4623
-13.3625
-14.7289
-15.8048
-16.7452
-17.4714
-17.9937
-18.1938
-18.4432
-21.6364
-24.8395
-28.1597
-31.1465
-34.2516
-36.8871
-39.2669
-39.9324
-38.9761
-37.968
-36.8712
-35.8924
-34.744
-33.4085
-32.255
-36.0372
-39.8882
-43.786
-47.2059
-50.7118
-53.6157
-56.1379
-56.3876
-54.4237
-52.5158
-50.5592
-48.8597
-46.9899
-44.9492
-43.206
-48.0835
-53.151
-58.4095
-63.2013
-68.3656
-72.9437
-77.3393
-78.4422
-76.4543
-74.2502
-71.7997
-69.315
-66.2027
-62.0605
-57.5201
-62.3363
-63.9568
-62.9427
-71.0377
-63.6538
-38.8587
-19.3898
434.684
181.522
103.241
72.6962
58.9166
46.9315
38.7267
24.2309
32.0653
33.9426
34.5116
34.5381
34.7143
34.7451
35.4114
33.2931
25.7671
21.9738
16.6595
13.7589
9.58034
7.11635
3.25529
2.32317
1.01665
-1.93141
-3.95993
-7.61292
-10.0004
-14.3216
-15.897
-16.6892
-17.2625
-18.0643
-18.4426
-18.6811
-17.5571
-12.5902
-21.0448
-24.807
-29.4902
-32.2819
-36.9241
-39.7842
-44.9905
-45.3306
-41.0508
-39.3125
-37.194
-36.0378
-34.1148
-31.0567
-21.4202
-34.0095
-39.1606
-44.9307
-48.2638
-53.7287
-57.0874
-63.3205
-63.2494
-56.5529
-53.7729
-50.4427
-48.6346
-45.7615
-41.5387
-28.5859
-45.1826
-52.0211
-59.8294
-64.5472
-72.676
-78.1019
-88.9496
-89.9393
-82.3669
-79.2876
-75.8168
-73.735
-70.4304
-63.7358
-42.5805
-70.1897
-72.8332
-54.893
-107.603
-101.97
-31.3897
0.781233
-33.168
-31.3719
-29.6508
-28.0292
-26.5256
-25.1536
-23.9213
-22.8328
-21.8892
-21.0889
-20.4292
-19.9069
-19.5186
-19.2615
-19.1334
-33.1214
-31.2963
-29.5511
-27.9107
-26.3938
-25.0135
-23.7771
-22.6878
-21.7455
-20.9479
-20.2916
-19.7726
-19.3872
-19.1321
-19.0052
-33.0249
-31.1405
-29.3462
-27.6681
-26.1252
-24.7291
-23.4855
-22.3954
-21.4568
-20.6655
-20.0164
-19.5045
-19.1251
-18.8744
-18.7497
-32.8711
-30.8943
-29.0246
-27.2901
-25.7093
-24.2918
-23.04
-21.9514
-21.0205
-20.2405
-19.6038
-19.1037
-18.7341
-18.4904
-18.3693
-32.6477
-30.5407
-28.5672
-26.758
-25.13
-23.6885
-22.4309
-21.3493
-20.4332
-19.6717
-19.0544
-18.572
-18.2169
-17.9834
-17.8676
-32.3354
-30.0533
-27.9452
-26.0443
-24.3636
-22.9011
-21.6456
-20.5812
-19.691
-18.9586
-18.3699
-17.9128
-17.578
-17.3585
-17.2499
-31.904
-29.3914
-27.1156
-25.1101
-23.3788
-21.9065
-20.6689
-19.6388
-18.7906
-18.1017
-17.5534
-17.131
-16.8234
-16.6226
-16.5234
-31.3052
-28.4923
-26.0155
-23.9015
-22.1345
-20.6769
-19.4843
-18.5144
-17.7307
-17.1038
-16.6108
-16.2343
-15.9619
-15.7848
-15.6975
-30.4582
-27.2566
-24.5521
-22.3455
-20.5807
-19.1821
-18.0768
-17.2034
-16.5138
-15.9719
-15.5514
-15.2334
-15.0048
-14.8568
-14.7841
-29.2197
-25.5237
-22.5903
-20.3476
-18.6603
-17.3936
-16.4371
-15.7084
-15.1489
-14.7184
-14.3892
-14.1428
-13.9669
-13.8535
-13.7979
-27.319
-23.0277
-19.9376
-17.7938
-16.3191
-15.2949
-14.5695
-14.0438
-13.655
-13.3633
-13.1441
-12.9816
-12.8663
-12.7921
-12.7559
-24.2122
-19.3303
-16.3385
-14.5708
-13.5271
-12.897
-12.5019
-12.2423
-12.0637
-11.9357
-11.8419
-11.7731
-11.7243
-11.6928
-11.6774
-18.755
-13.7426
-11.5149
-10.6234
-10.3215
-10.264
-10.2985
-10.3598
-10.4215
-10.4739
-10.5146
-10.5444
-10.5647
-10.5773
-10.5833
-8.49212
-5.37013
-5.35489
-6.0864
-6.8714
-7.53883
-8.06814
-8.47691
-8.78847
-9.02344
-9.19815
-9.32496
-9.4129
-9.46825
-9.49497
11.7987
6.10918
1.55193
-1.49579
-3.53876
-4.95168
-5.9582
-6.69106
-7.23193
-7.63317
-7.92947
-8.14429
-8.29352
-8.38771
-8.43328
-20.2305
-20.3025
-20.4532
-20.697
-21.0587
-21.5788
-22.3234
-23.4047
-25.0266
-27.6011
-32.0935
-41.2594
-64.8874
-145.287
-493.796
-24.5313
-24.696
-25.04
-25.5951
-26.4161
-27.5934
-29.2759
-31.716
-35.3654
-41.0885
-50.6785
-68.1563
-102.974
-175.966
-310.907
-28.7179
-28.9653
-29.4807
-30.3087
-31.5262
-33.2575
-35.7025
-39.188
-44.2643
-51.8911
-63.7858
-83.0112
-114.551
-163.625
-221.725
-32.7331
-33.0489
-33.7046
-34.7522
-36.2798
-38.4263
-41.4069
-45.5553
-51.3923
-59.73
-71.8025
-89.3141
-113.952
-145.013
-172.889
-36.5292
-36.8966
-37.6565
-38.8626
-40.6038
-43.016
-46.3004
-50.7502
-56.7837
-64.9752
-76.0419
-90.6685
-108.892
-128.613
-143.41
-40.0705
-40.4719
-41.2989
-42.6017
-44.462
-47
-50.3849
-54.8456
-60.6767
-68.2236
-77.8088
-89.5252
-102.79
-115.633
-124.207
-43.3331
-43.752
-44.611
-45.9538
-47.8496
-50.3961
-53.7225
-57.9895
-63.3784
-70.0566
-78.0954
-87.3063
-96.9819
-105.618
-110.956
-46.3051
-46.7266
-47.5872
-48.9221
-50.7856
-53.2506
-56.4069
-60.3543
-65.1847
-70.9449
-77.5677
-84.7647
-91.8953
-97.8914
-101.413
-48.9845
-49.3966
-50.2341
-51.5235
-53.304
-55.625
-58.5419
-62.1059
-66.3455
-71.2342
-76.6413
-82.269
-87.5963
-91.8835
-94.3146
-51.3779
-51.7712
-52.5673
-53.7841
-55.4471
-57.5857
-60.2276
-63.3884
-67.0556
-71.1635
-75.5617
-79.9817
-84.0195
-87.1643
-88.9044
-53.4983
-53.8664
-54.6083
-55.7349
-57.2601
-59.1971
-61.5529
-64.3193
-67.4595
-70.8911
-74.4668
-77.9597
-81.0627
-83.4206
-84.7024
-55.3632
-55.7019
-56.3823
-57.4091
-58.7871
-60.5175
-62.5932
-64.9907
-67.6611
-70.5185
-73.4295
-76.2083
-78.6232
-80.4241
-81.3903
-56.9929
-57.3004
-57.9158
-58.8395
-60.0694
-61.5984
-63.41
-65.4726
-67.7328
-70.1085
-72.484
-74.7095
-76.6101
-78.007
-78.7491
-58.4093
-58.685
-59.2354
-60.0572
-61.144
-62.483
-64.0525
-65.8172
-67.7242
-69.6988
-71.6427
-73.4363
-74.9468
-76.0444
-76.6232
-59.6341
-59.879
-60.3665
-61.0911
-62.0434
-63.2076
-64.5594
-66.0631
-67.6687
-69.3103
-70.9057
-72.3595
-73.5702
-74.4421
-74.8992
-60.689
-60.9047
-61.3329
-61.9669
-62.7957
-63.802
-64.9609
-66.2381
-67.5882
-68.9539
-70.267
-71.4514
-72.4289
-73.1278
-73.4925
-61.5942
-61.7827
-62.1563
-62.7076
-63.4248
-64.2904
-65.2803
-66.3626
-67.4969
-68.634
-69.7177
-70.6869
-71.481
-72.0455
-72.339
-62.3685
-62.5323
-62.8564
-63.3332
-63.9508
-64.6925
-65.5355
-66.451
-67.4035
-68.3512
-69.2477
-70.044
-70.6926
-71.1514
-71.3893
-63.0291
-63.1707
-63.4504
-63.8609
-64.3907
-65.0241
-65.7404
-66.5138
-67.3134
-68.104
-68.8473
-69.5038
-70.0358
-70.4108
-70.6047
-63.5913
-63.7132
-63.9537
-64.3057
-64.7588
-65.2983
-65.9057
-66.5583
-67.2295
-67.8897
-68.5072
-69.0499
-69.488
-69.7958
-69.9547
-64.0689
-64.1735
-64.3795
-64.6804
-65.0668
-65.5253
-66.0396
-66.5899
-67.1534
-67.7051
-68.2189
-68.6688
-69.0307
-69.2843
-69.415
-64.4739
-64.5633
-64.7393
-64.9959
-65.3246
-65.7136
-66.1486
-66.6122
-67.0853
-67.5468
-67.975
-68.3487
-68.6485
-68.8581
-68.966
-64.8169
-64.8931
-65.043
-65.2614
-65.5405
-65.8701
-66.2375
-66.6281
-67.0253
-67.4116
-67.7689
-68.08
-68.3289
-68.5026
-68.592
-65.1069
-65.1718
-65.2992
-65.4847
-65.7214
-66.0003
-66.3105
-66.6393
-66.973
-67.2965
-67.5951
-67.8543
-68.0614
-68.2058
-68.2799
-65.3519
-65.407
-65.5152
-65.6725
-65.8729
-66.1087
-66.3704
-66.6473
-66.9276
-67.1987
-67.4485
-67.6649
-67.8375
-67.9577
-68.0193
-65.5586
-65.6053
-65.6971
-65.8303
-65.9999
-66.1991
-66.4198
-66.653
-66.8884
-67.1159
-67.325
-67.5059
-67.65
-67.7502
-67.8016
-65.7328
-65.7725
-65.8502
-65.9629
-66.1063
-66.2745
-66.4607
-66.657
-66.8549
-67.0458
-67.221
-67.3724
-67.4929
-67.5766
-67.6195
-65.8796
-65.9131
-65.9789
-66.0743
-66.1955
-66.3375
-66.4945
-66.6598
-66.8263
-66.9866
-67.1336
-67.2605
-67.3613
-67.4313
-67.4672
-66.003
-66.0314
-66.0871
-66.1678
-66.2702
-66.3901
-66.5225
-66.6618
-66.8019
-66.9367
-67.0601
-67.1666
-67.2511
-67.3098
-67.3399
-66.1067
-66.1308
-66.1779
-66.2461
-66.3327
-66.434
-66.5458
-66.6632
-66.7813
-66.8947
-66.9985
-67.0879
-67.1589
-67.2081
-67.2333
-66.1938
-66.2141
-66.254
-66.3118
-66.385
-66.4707
-66.5651
-66.6642
-66.7638
-66.8594
-66.9468
-67.0221
-67.0818
-67.1232
-67.1443
-66.2667
-66.2839
-66.3178
-66.3667
-66.4287
-66.5012
-66.5811
-66.6649
-66.7491
-66.8298
-66.9035
-66.967
-67.0173
-67.0522
-67.0701
-66.3276
-66.3423
-66.371
-66.4125
-66.4652
-66.5267
-66.5944
-66.6654
-66.7367
-66.805
-66.8674
-66.9211
-66.9636
-66.9931
-67.0082
-66.3783
-66.3908
-66.4153
-66.4507
-66.4955
-66.5478
-66.6054
-66.6658
-66.7263
-66.7844
-66.8373
-66.8829
-66.9189
-66.9439
-66.9567
-66.4204
-66.4311
-66.452
-66.4822
-66.5206
-66.5653
-66.6145
-66.666
-66.7177
-66.7672
-66.8124
-66.8512
-66.882
-66.9033
-66.9142
-66.455
-66.4642
-66.4822
-66.5082
-66.5412
-66.5796
-66.6219
-66.6662
-66.7106
-66.7531
-66.7919
-66.8252
-66.8516
-66.8698
-66.8792
-66.4833
-66.4912
-66.5068
-66.5294
-66.558
-66.5913
-66.628
-66.6664
-66.7048
-66.7416
-66.7752
-66.804
-66.8268
-66.8426
-66.8507
-66.506
-66.513
-66.5267
-66.5464
-66.5715
-66.6007
-66.6328
-66.6664
-66.7001
-66.7323
-66.7617
-66.7869
-66.8069
-66.8207
-66.8278
-66.5238
-66.53
-66.5422
-66.5598
-66.5821
-66.6081
-66.6366
-66.6665
-66.6964
-66.725
-66.7511
-66.7735
-66.7913
-66.8035
-66.8098
-66.5374
-66.543
-66.554
-66.57
-66.5901
-66.6137
-66.6395
-66.6665
-66.6936
-66.7195
-66.7431
-66.7634
-66.7794
-66.7905
-66.7962
-66.547
-66.5522
-66.5624
-66.5772
-66.5959
-66.6176
-66.6415
-66.6666
-66.6916
-66.7156
-66.7374
-66.7562
-66.771
-66.7813
-66.7865
-66.553
-66.5579
-66.5676
-66.5817
-66.5994
-66.6201
-66.6428
-66.6666
-66.6904
-66.7131
-66.7339
-66.7517
-66.7658
-66.7755
-66.7805
-66.5555
-66.5604
-66.5699
-66.5836
-66.6009
-66.6211
-66.6434
-66.6666
-66.6899
-66.7121
-66.7324
-66.7498
-66.7635
-66.773
-66.7779
-66.5547
-66.5596
-66.5692
-66.583
-66.6005
-66.6208
-66.6432
-66.6666
-66.69
-66.7124
-66.7328
-66.7504
-66.7642
-66.7738
-66.7787
-66.5505
-66.5556
-66.5655
-66.5798
-66.598
-66.6191
-66.6423
-66.6666
-66.6909
-66.7141
-66.7353
-66.7535
-66.7679
-66.7778
-66.7829
-66.5428
-66.5482
-66.5588
-66.5741
-66.5934
-66.6159
-66.6407
-66.6666
-66.6925
-66.7173
-66.7399
-66.7593
-66.7746
-66.7853
-66.7907
-66.5314
-66.5373
-66.5488
-66.5655
-66.5866
-66.6112
-66.6383
-66.6666
-66.6949
-66.722
-66.7467
-66.7679
-66.7847
-66.7963
-66.8022
-66.5158
-66.5224
-66.5352
-66.5538
-66.5774
-66.6048
-66.635
-66.6665
-66.6981
-66.7283
-66.7559
-66.7795
-66.7983
-66.8112
-66.8178
-66.4957
-66.5031
-66.5177
-66.5388
-66.5654
-66.5965
-66.6307
-66.6665
-66.7023
-66.7365
-66.7678
-66.7946
-66.8159
-66.8306
-66.8381
-66.4704
-66.4789
-66.4956
-66.5198
-66.5504
-66.5861
-66.6253
-66.6664
-66.7075
-66.7469
-66.7828
-66.8136
-66.838
-66.8549
-66.8636
-66.4391
-66.449
-66.4684
-66.4964
-66.5318
-66.5732
-66.6186
-66.6662
-66.7139
-66.7596
-66.8013
-66.837
-66.8654
-66.885
-66.895
-66.401
-66.4126
-66.4352
-66.4678
-66.5092
-66.5574
-66.6105
-66.6661
-66.7218
-66.7751
-66.8238
-66.8656
-66.8988
-66.9217
-66.9334
-66.3549
-66.3685
-66.3949
-66.4332
-66.4817
-66.5383
-66.6006
-66.6658
-66.7312
-66.7939
-66.8511
-66.9003
-66.9392
-66.9662
-66.98
-66.2995
-66.3154
-66.3465
-66.3915
-66.4486
-66.5152
-66.5886
-66.6655
-66.7426
-66.8165
-66.884
-66.942
-66.988
-67.0199
-67.0362
-66.2329
-66.2517
-66.2884
-66.3415
-66.4089
-66.4875
-66.5742
-66.665
-66.7562
-66.8436
-66.9235
-66.9921
-67.0466
-67.0843
-67.1036
-66.1534
-66.1755
-66.2189
-66.2817
-66.3613
-66.4543
-66.5568
-66.6643
-66.7723
-66.8759
-66.9706
-67.0521
-67.1168
-67.1616
-67.1845
-66.0585
-66.0846
-66.1359
-66.2102
-66.3043
-66.4144
-66.5359
-66.6634
-66.7915
-66.9145
-67.027
-67.1239
-67.2007
-67.254
-67.2813
-65.9454
-65.9763
-66.037
-66.1248
-66.2363
-66.3668
-66.5107
-66.662
-66.8141
-66.9604
-67.0942
-67.2095
-67.301
-67.3645
-67.397
-65.8108
-65.8474
-65.9191
-66.0231
-66.1551
-66.3097
-66.4805
-66.6601
-66.8409
-67.0149
-67.1742
-67.3116
-67.4208
-67.4965
-67.5354
-65.6508
-65.6941
-65.7789
-65.9019
-66.0582
-66.2414
-66.444
-66.6574
-66.8724
-67.0795
-67.2694
-67.4334
-67.5637
-67.6542
-67.7006
-65.4608
-65.5119
-65.6121
-65.7576
-65.9426
-66.1597
-66.4001
-66.6536
-66.9094
-67.1561
-67.3826
-67.5784
-67.7343
-67.8426
-67.8981
-65.2353
-65.2956
-65.414
-65.5859
-65.8047
-66.0619
-66.347
-66.6482
-66.9526
-67.2467
-67.5172
-67.7513
-67.9378
-68.0675
-68.1341
-64.9679
-65.039
-65.1786
-65.3816
-65.6403
-65.9447
-66.2828
-66.6407
-67.003
-67.3538
-67.677
-67.9572
-68.1807
-68.3364
-68.4163
-64.6512
-64.7349
-64.8993
-65.1386
-65.444
-65.8041
-66.2048
-66.63
-67.0614
-67.4801
-67.8666
-68.2024
-68.4708
-68.6579
-68.754
-64.2764
-64.3747
-64.568
-64.8496
-65.2098
-65.6353
-66.11
-66.6148
-67.1287
-67.6286
-68.0914
-68.4945
-68.8172
-69.0426
-69.1584
-63.8334
-63.9486
-64.1753
-64.5062
-64.9302
-65.4324
-65.9941
-66.5935
-67.2055
-67.803
-68.3578
-68.8423
-69.2312
-69.5033
-69.6433
-63.3104
-63.445
-63.7103
-64.0982
-64.5963
-65.188
-65.8522
-66.5635
-67.2925
-68.007
-68.6729
-69.2565
-69.7262
-70.0556
-70.2254
-62.6939
-62.8507
-63.1602
-63.6136
-64.1975
-64.8934
-65.6776
-66.521
-67.3895
-68.2447
-69.0453
-69.7497
-70.3187
-70.7188
-70.9253
-61.9685
-62.1505
-62.5103
-63.0384
-63.7208
-64.5374
-65.4618
-66.4612
-67.4959
-68.5202
-69.4844
-70.337
-71.0285
-71.5163
-71.7687
-61.1166
-61.327
-61.7433
-62.3562
-63.151
-64.1065
-65.1941
-66.3769
-67.6093
-68.8375
-70.001
-71.036
-71.8798
-72.4774
-72.7873
-60.1188
-60.3605
-60.8399
-61.5478
-62.4697
-63.5839
-64.8602
-66.2581
-67.7257
-69.1997
-70.6069
-71.8677
-72.902
-73.6381
-74.021
-58.9531
-59.2292
-59.7777
-60.5908
-61.6548
-62.9489
-64.442
-66.0909
-67.8375
-69.6083
-71.3145
-72.8565
-74.1313
-75.0439
-75.5205
-57.5957
-57.9086
-58.5319
-59.4595
-60.6803
-62.1756
-63.9156
-65.8557
-67.9327
-70.0618
-72.1362
-74.0309
-75.6121
-76.7526
-77.351
-56.0212
-56.3727
-57.0748
-58.1246
-59.5152
-61.2324
-63.2502
-65.5255
-67.9916
-70.5531
-73.0825
-75.4229
-77.3989
-78.8375
-79.597
-54.2026
-54.5934
-55.3763
-56.5532
-58.1234
-60.0805
-62.4061
-65.0628
-67.9844
-71.0667
-74.16
-77.0679
-79.5588
-81.3938
-82.3703
-52.1127
-52.5418
-53.4045
-54.7087
-56.463
-58.6726
-61.3321
-64.4161
-67.8655
-71.5727
-75.3662
-79.0023
-82.1741
-84.5463
-85.8215
-49.7249
-50.1892
-51.1261
-52.5516
-54.4866
-56.9524
-59.9635
-63.5155
-67.5676
-72.0188
-76.6815
-81.2592
-85.3445
-88.4603
-90.1583
-47.015
-47.5085
-48.5086
-50.0409
-52.1416
-54.8535
-58.2193
-62.2678
-66.9924
-72.3179
-78.0558
-83.8578
-89.188
-93.3589
-95.6739
-43.9624
-44.4761
-45.5217
-47.1357
-49.3722
-52.3007
-56.0011
-60.5506
-66.0001
-72.3304
-79.3855
-86.7838
-93.8365
-99.5459
-102.797
-40.5534
-41.0746
-42.1403
-43.7984
-46.1223
-49.212
-53.1932
-58.2086
-64.396
-71.8396
-80.4768
-89.9497
-99.4176
-107.44
-112.178
-36.7826
-37.295
-38.3478
-39.999
-42.3406
-45.5044
-49.6672
-55.0526
-61.9196
-70.5197
-80.9878
-93.119
-106.002
-117.614
-124.848
-32.6562
-33.1405
-34.14
-35.7203
-37.9882
-41.1033
-45.2924
-50.8678
-58.2398
-67.9027
-80.3436
-95.7658
-113.469
-130.829
-142.541
-28.1939
-28.6283
-29.5291
-30.9642
-33.0478
-35.9564
-39.9549
-45.4355
-52.969
-63.3566
-77.629
-96.8283
-121.174
-147.967
-168.366
-23.4302
-23.7927
-24.5473
-25.7582
-27.5348
-30.0528
-33.5884
-38.5779
-45.7164
-56.1126
-71.4929
-94.3171
-127.178
-169.543
-208.357
-18.4151
-18.6851
-19.2492
-20.1595
-21.5073
-23.4429
-26.2124
-30.228
-36.2018
-45.4077
-60.1875
-84.8355
-126.582
-193.585
-275.301
-13.2128
-13.3738
-13.7109
-14.2573
-15.0721
-16.2541
-17.9714
-20.5187
-24.4429
-30.8322
-42.0293
-63.4799
-108.445
-207.41
-398.989
-7.89921
-7.94061
-8.02756
-8.16924
-8.38206
-8.69412
-9.15448
-9.85359
-10.9726
-12.9183
-16.7509
-25.7945
-52.8086
-156.918
-655.716
-2.55733
-2.47626
-2.30669
-2.03219
-1.62358
-1.03155
-0.172214
1.10259
3.07111
6.30535
12.1457
24.3702
56.3662
167.665
674.171
2.72775
2.92613
3.34081
4.01124
5.00705
6.44487
8.52094
11.5763
16.2352
23.7186
36.6084
60.804
110.469
217.795
422.813
7.87452
8.17778
8.81017
9.82819
11.3302
13.4775
16.5333
20.9358
27.437
37.3767
53.2192
79.5499
124.526
200.08
313.84
38.2464
15.5939
6.49943
1.79127
-1.06135
-2.95259
-4.27489
-5.22994
-5.933
-6.45485
-6.84111
-7.12202
-7.31779
-7.44168
-7.50172
24.1756
14.8009
7.95104
3.49091
0.523232
-1.5303
-2.99962
-4.0766
-4.87793
-5.47776
-5.9248
-6.25174
-6.48061
-6.62592
-6.69649
16.6149
12.2545
7.74303
4.15411
1.47298
-0.513688
-1.99678
-3.11464
-3.96276
-4.60673
-5.09183
-5.44951
-5.70141
-5.86201
-5.94019
12.0821
9.81287
6.89427
4.18686
1.94044
0.153217
-1.24755
-2.33996
-3.18933
-3.84597
-4.34731
-4.72068
-4.98556
-5.15527
-5.23813
9.125
7.82211
5.8988
3.89944
2.08901
0.551742
-0.712441
-1.73404
-2.54972
-3.19301
-3.69162
-4.06715
-4.33574
-4.5088
-4.59357
7.07262
6.26211
4.95608
3.48079
2.04786
0.760621
-0.345788
-1.27111
-2.02979
-2.64051
-3.12136
-3.48783
-3.75224
-3.9236
-4.00783
5.58303
5.04617
4.13085
3.03269
1.90551
0.843917
-0.104887
-0.923894
-1.6126
-2.17818
-2.6305
-2.97937
-3.2333
-3.39888
-3.48055
4.46621
4.09299
3.43256
2.60472
1.71759
0.848883
0.0458795
-0.667159
-1.28088
-1.79449
-2.21145
-2.53681
-2.77569
-2.93239
-3.00996
3.60854
3.33923
2.8505
2.21789
1.51686
0.808213
0.134169
-0.479387
-1.01868
-1.4779
-1.85599
-2.15429
-2.37513
-2.52083
-2.5932
2.93785
2.73781
2.36833
1.87854
1.32142
0.743503
0.180451
-0.343182
-0.812067
-1.21765
-1.55591
-1.82554
-2.02671
-2.16017
-2.22667
2.40604
2.25404
1.96969
1.58593
1.1404
0.668466
0.199358
-0.244993
-0.649407
-1.00415
-1.30347
-1.54431
-1.72531
-1.84599
-1.90631
1.97977
1.86216
1.64007
1.33621
0.977705
0.591459
0.20107
-0.174537
-0.521237
-0.82912
-1.09162
-1.30464
-1.46577
-1.57371
-1.62781
1.63515
1.54282
1.36723
1.12442
0.834266
0.517323
0.192515
-0.124153
-0.420019
-0.685599
-0.914126
-1.10098
-1.24316
-1.33881
-1.38686
1.35463
1.28129
1.14104
0.945494
0.709424