/*--------------------------------*- C++ -*----------------------------------*\
| =========                 |                                                 |
| \\      /  F ield         | OpenFOAM: The Open Source CFD Toolbox           |
|  \\    /   O peration     | Version:  5.x                                   |
|   \\  /    A nd           | Web:      www.OpenFOAM.org                      |
|    \\/     M anipulation  |                                                 |
\*---------------------------------------------------------------------------*/
FoamFile
{
    version     2.0;
    format      ascii;
    class       volScalarField;
    location    "3.5";
    object      gradTx;
}
// * * * * * * * * * * * * * * * * * * * * * * * * * * * * * * * * * * * * * //

dimensions      [0 -1 0 1 0 0 0];

internalField   nonuniform List<scalar> 
3200
(
9.76386e-09
-1.34337e-09
-1.14252e-09
-1.12654e-09
-9.5123e-10
-9.26789e-10
-6.25649e-10
-6.02663e-10
-4.37284e-10
-6.64566e-10
-3.03769e-10
-2.1439e-10
-2.05466e-10
-1.55028e-10
-1.50437e-10
-1.1517e-10
-1.11977e-10
-8.63689e-11
-8.40367e-11
-6.50883e-11
-6.3355e-11
-4.91695e-11
-4.78682e-11
-3.71717e-11
-3.61888e-11
-2.80886e-11
-2.73436e-11
-2.11956e-11
-2.063e-11
-1.59598e-11
-1.55302e-11
-1.19831e-11
-1.1657e-11
-8.96554e-12
-8.71825e-12
-6.67916e-12
-6.49197e-12
-4.95038e-12
-4.80901e-12
-3.64657e-12
-3.54011e-12
-2.66636e-12
-2.58648e-12
-1.93228e-12
-1.8726e-12
-1.3852e-12
-1.34097e-12
-9.80619e-13
-9.50457e-13
-7.02476e-13
-1.0616e-12
-4.79171e-13
-3.15607e-13
-2.99398e-13
-2.01855e-13
-1.9313e-13
-1.26999e-13
-1.21234e-13
-7.74719e-14
-7.37123e-14
-4.57638e-14
-4.33951e-14
-2.62059e-14
-2.4767e-14
-1.45697e-14
-1.3725e-14
-7.8666e-15
-7.38538e-15
-4.10826e-15
-3.84061e-15
-2.04411e-15
-1.89437e-15
-8.51832e-16
-7.67418e-16
-2.03296e-16
-1.65268e-16
-1.07638e-17
-1.9733e-18
-4.46656e-19
1.02195e-16
9.70651e-09
-1.27484e-09
-1.14625e-09
-1.11208e-09
-9.60325e-10
-9.04103e-10
-6.49454e-10
-5.97319e-10
-4.67859e-10
-6.13275e-10
-3.2479e-10
-2.25917e-10
-2.04025e-10
-1.59206e-10
-1.48493e-10
-1.17889e-10
-1.10487e-10
-8.83201e-11
-8.29192e-11
-6.65257e-11
-6.25125e-11
-5.02428e-11
-4.72303e-11
-3.79798e-11
-3.57045e-11
-2.87e-11
-2.69756e-11
-2.16595e-11
-2.03503e-11
-1.63122e-11
-1.53178e-11
-1.22508e-11
-1.14959e-11
-9.16874e-12
-8.59629e-12
-6.8332e-12
-6.39988e-12
-5.06691e-12
-4.73967e-12
-3.73452e-12
-3.48808e-12
-2.73254e-12
-2.54761e-12
-1.9819e-12
-1.84373e-12
-1.4223e-12
-1.32e-12
-1.00951e-12
-9.40941e-13
-7.48885e-13
-9.7877e-13
-5.11333e-13
-3.35522e-13
-2.96043e-13
-2.09866e-13
-1.89541e-13
-1.32195e-13
-1.18836e-13
-8.09268e-14
-7.22159e-14
-4.79907e-14
-4.25007e-14
-2.75883e-14
-2.42518e-14
-1.53967e-14
-1.34373e-14
-8.34512e-15
-7.22839e-15
-4.37739e-15
-3.75597e-15
-2.19078e-15
-1.84314e-15
-9.37502e-16
-7.41775e-16
-2.53113e-16
-1.64733e-16
-2.64624e-17
-5.62911e-18
-1.29341e-18
1.01917e-16
9.65952e-09
-1.22187e-09
-1.1462e-09
-1.10231e-09
-9.65592e-10
-8.89349e-10
-6.65153e-10
-5.95062e-10
-4.87435e-10
-5.79338e-10
-3.38224e-10
-2.34364e-10
-2.035e-10
-1.62017e-10
-1.47344e-10
-1.19678e-10
-1.09587e-10
-8.95999e-11
-8.22409e-11
-6.74673e-11
-6.19998e-11
-5.09455e-11
-4.68415e-11
-3.85086e-11
-3.54091e-11
-2.91e-11
-2.6751e-11
-2.1963e-11
-2.01796e-11
-1.65427e-11
-1.51881e-11
-1.2426e-11
-1.13976e-11
-9.30168e-12
-8.52189e-12
-6.93398e-12
-6.34372e-12
-5.14317e-12
-4.6974e-12
-3.79209e-12
-3.45639e-12
-2.77587e-12
-2.52395e-12
-2.0144e-12
-1.82619e-12
-1.44663e-12
-1.30734e-12
-1.02871e-12
-9.36357e-13
-7.78409e-13
-9.23831e-13
-5.31826e-13
-3.49981e-13
-2.94554e-13
-2.15241e-13
-1.87431e-13
-1.35631e-13
-1.17419e-13
-8.32131e-14
-7.13394e-14
-4.94678e-14
-4.19828e-14
-2.85073e-14
-2.39572e-14
-1.59477e-14
-1.32748e-14
-8.66454e-15
-7.14071e-15
-4.55728e-15
-3.70905e-15
-2.28872e-15
-1.81421e-15
-9.94765e-16
-7.27842e-16
-2.86914e-16
-1.66192e-16
-3.7462e-17
-8.62435e-18
-2.00874e-18
1.01681e-16
9.62649e-09
-1.18598e-09
-1.14487e-09
-1.09624e-09
-9.68429e-10
-8.80504e-10
-6.74679e-10
-5.943e-10
-4.99023e-10
-5.58715e-10
-3.46163e-10
-2.39886e-10
-2.03396e-10
-1.63755e-10
-1.46712e-10
-1.20763e-10
-1.09082e-10
-9.03734e-11
-8.1858e-11
-6.80359e-11
-6.17098e-11
-5.13695e-11
-4.66213e-11
-3.88276e-11
-3.52417e-11
-2.93413e-11
-2.66236e-11
-2.2146e-11
-2.00828e-11
-1.66817e-11
-1.51146e-11
-1.25315e-11
-1.13419e-11
-9.38185e-12
-8.47972e-12
-6.99477e-12
-6.3119e-12
-5.18918e-12
-4.67347e-12
-3.82682e-12
-3.43845e-12
-2.80202e-12
-2.51057e-12
-2.03401e-12
-1.81628e-12
-1.46133e-12
-1.30024e-12
-1.04044e-12
-9.34385e-13
-7.95789e-13
-8.9038e-13
-5.43905e-13
-3.59377e-13
-2.94016e-13
-2.18552e-13
-1.86278e-13
-1.37721e-13
-1.1664e-13
-8.46049e-14
-7.0862e-14
-5.03686e-14
-4.1704e-14
-2.9069e-14
-2.38007e-14
-1.6285e-14
-1.31896e-14
-8.86038e-15
-7.09531e-15
-4.6677e-15
-3.68495e-15
-2.34878e-15
-1.79905e-15
-1.02991e-15
-7.20857e-16
-3.079e-16
-1.67966e-16
-4.44639e-17
-1.07297e-17
-2.52469e-18
1.01509e-16
9.60951e-09
-1.1679e-09
-1.14382e-09
-1.09333e-09
-9.69659e-10
-8.76362e-10
-6.79177e-10
-5.94124e-10
-5.04404e-10
-5.48974e-10
-3.49845e-10
-2.42613e-10
-2.03415e-10
-1.64585e-10
-1.46434e-10
-1.21274e-10
-1.08856e-10
-9.07377e-11
-8.16862e-11
-6.83035e-11
-6.15794e-11
-5.1569e-11
-4.65222e-11
-3.89776e-11
-3.51663e-11
-2.94547e-11
-2.65663e-11
-2.2232e-11
-2.00392e-11
-1.6747e-11
-1.50815e-11
-1.25812e-11
-1.13167e-11
-9.41956e-12
-8.46073e-12
-7.02336e-12
-6.29757e-12
-5.21082e-12
-4.66269e-12
-3.84316e-12
-3.43038e-12
-2.81432e-12
-2.50455e-12
-2.04325e-12
-1.81182e-12
-1.46826e-12
-1.29707e-12
-1.04601e-12
-9.337e-13
-8.03828e-13
-8.7456e-13
-5.49498e-13
-3.64e-13
-2.93877e-13
-2.20132e-13
-1.85773e-13
-1.3871e-13
-1.16297e-13
-8.52635e-14
-7.06533e-14
-5.07955e-14
-4.15834e-14
-2.93354e-14
-2.37337e-14
-1.64452e-14
-1.31535e-14
-8.95347e-15
-7.07629e-15
-4.72023e-15
-3.67493e-15
-2.37735e-15
-1.79263e-15
-1.04663e-15
-7.18015e-16
-3.17957e-16
-1.69078e-16
-4.78724e-17
-1.18126e-17
-2.79448e-18
1.01419e-16
9.60951e-09
-1.1679e-09
-1.14383e-09
-1.09333e-09
-9.69659e-10
-8.76362e-10
-6.79177e-10
-5.94124e-10
-5.04404e-10
-5.48974e-10
-3.49845e-10
-2.42613e-10
-2.03415e-10
-1.64585e-10
-1.46434e-10
-1.21274e-10
-1.08856e-10
-9.07377e-11
-8.16862e-11
-6.83035e-11
-6.15794e-11
-5.1569e-11
-4.65222e-11
-3.89776e-11
-3.51663e-11
-2.94547e-11
-2.65663e-11
-2.2232e-11
-2.00392e-11
-1.6747e-11
-1.50815e-11
-1.25812e-11
-1.13167e-11
-9.41956e-12
-8.46073e-12
-7.02336e-12
-6.29757e-12
-5.21082e-12
-4.66269e-12
-3.84316e-12
-3.43038e-12
-2.81432e-12
-2.50455e-12
-2.04325e-12
-1.81182e-12
-1.46826e-12
-1.29707e-12
-1.04601e-12
-9.337e-13
-8.03828e-13
-8.7456e-13
-5.49498e-13
-3.64e-13
-2.93877e-13
-2.20132e-13
-1.85773e-13
-1.3871e-13
-1.16297e-13
-8.52635e-14
-7.06533e-14
-5.07955e-14
-4.15833e-14
-2.93354e-14
-2.37337e-14
-1.64452e-14
-1.31535e-14
-8.95347e-15
-7.07629e-15
-4.72022e-15
-3.67493e-15
-2.37735e-15
-1.79263e-15
-1.04663e-15
-7.18014e-16
-3.17956e-16
-1.69078e-16
-4.78722e-17
-1.18124e-17
-2.79435e-18
1.01419e-16
9.62651e-09
-1.18599e-09
-1.14487e-09
-1.09624e-09
-9.6843e-10
-8.80504e-10
-6.74679e-10
-5.943e-10
-4.99023e-10
-5.58715e-10
-3.46163e-10
-2.39886e-10
-2.03396e-10
-1.63755e-10
-1.46712e-10
-1.20763e-10
-1.09082e-10
-9.03734e-11
-8.18581e-11
-6.80359e-11
-6.17098e-11
-5.13695e-11
-4.66213e-11
-3.88276e-11
-3.52417e-11
-2.93413e-11
-2.66236e-11
-2.2146e-11
-2.00828e-11
-1.66817e-11
-1.51146e-11
-1.25316e-11
-1.13419e-11
-9.38186e-12
-8.47972e-12
-6.99477e-12
-6.3119e-12
-5.18918e-12
-4.67347e-12
-3.82682e-12
-3.43845e-12
-2.80202e-12
-2.51057e-12
-2.03402e-12
-1.81628e-12
-1.46133e-12
-1.30024e-12
-1.04044e-12
-9.34386e-13
-7.95789e-13
-8.9038e-13
-5.43905e-13
-3.59377e-13
-2.94016e-13
-2.18552e-13
-1.86278e-13
-1.37721e-13
-1.1664e-13
-8.46048e-14
-7.08619e-14
-5.03686e-14
-4.1704e-14
-2.9069e-14
-2.38007e-14
-1.6285e-14
-1.31896e-14
-8.86037e-15
-7.0953e-15
-4.66769e-15
-3.68495e-15
-2.34878e-15
-1.79904e-15
-1.02991e-15
-7.20855e-16
-3.07899e-16
-1.67965e-16
-4.44633e-17
-1.07293e-17
-2.52434e-18
1.01509e-16
9.65955e-09
-1.22189e-09
-1.1462e-09
-1.10231e-09
-9.65593e-10
-8.8935e-10
-6.65153e-10
-5.95063e-10
-4.87435e-10
-5.79338e-10
-3.38224e-10
-2.34363e-10
-2.035e-10
-1.62017e-10
-1.47344e-10
-1.19678e-10
-1.09587e-10
-8.95999e-11
-8.22409e-11
-6.74674e-11
-6.19998e-11
-5.09455e-11
-4.68415e-11
-3.85086e-11
-3.54092e-11
-2.91e-11
-2.6751e-11
-2.1963e-11
-2.01796e-11
-1.65427e-11
-1.51881e-11
-1.2426e-11
-1.13976e-11
-9.30169e-12
-8.5219e-12
-6.93398e-12
-6.34372e-12
-5.14318e-12
-4.69741e-12
-3.79209e-12
-3.45639e-12
-2.77587e-12
-2.52395e-12
-2.0144e-12
-1.82619e-12
-1.44663e-12
-1.30734e-12
-1.02871e-12
-9.36358e-13
-7.7841e-13
-9.23831e-13
-5.31826e-13
-3.4998e-13
-2.94554e-13
-2.1524e-13
-1.87431e-13
-1.35631e-13
-1.17419e-13
-8.3213e-14
-7.13394e-14
-4.94677e-14
-4.19828e-14
-2.85073e-14
-2.39572e-14
-1.59477e-14
-1.32748e-14
-8.66453e-15
-7.1407e-15
-4.55727e-15
-3.70904e-15
-2.28871e-15
-1.8142e-15
-9.94762e-16
-7.27839e-16
-2.86913e-16
-1.6619e-16
-3.74613e-17
-8.62386e-18
-2.00828e-18
1.01681e-16
9.70654e-09
-1.27486e-09
-1.14626e-09
-1.11208e-09
-9.60326e-10
-9.04104e-10
-6.49454e-10
-5.97319e-10
-4.67859e-10
-6.13276e-10
-3.2479e-10
-2.25917e-10
-2.04025e-10
-1.59206e-10
-1.48493e-10
-1.17889e-10
-1.10487e-10
-8.83201e-11
-8.29193e-11
-6.65257e-11
-6.25125e-11
-5.02429e-11
-4.72303e-11
-3.79798e-11
-3.57045e-11
-2.87e-11
-2.69756e-11
-2.16595e-11
-2.03503e-11
-1.63122e-11
-1.53178e-11
-1.22508e-11
-1.14959e-11
-9.16875e-12
-8.59629e-12
-6.8332e-12
-6.39988e-12
-5.06691e-12
-4.73967e-12
-3.73452e-12
-3.48809e-12
-2.73254e-12
-2.54761e-12
-1.9819e-12
-1.84374e-12
-1.4223e-12
-1.32e-12
-1.00951e-12
-9.40941e-13
-7.48885e-13
-9.7877e-13
-5.11333e-13
-3.35522e-13
-2.96043e-13
-2.09865e-13
-1.89541e-13
-1.32195e-13
-1.18836e-13
-8.09268e-14
-7.22158e-14
-4.79907e-14
-4.25006e-14
-2.75882e-14
-2.42518e-14
-1.53967e-14
-1.34373e-14
-8.34511e-15
-7.22838e-15
-4.37738e-15
-3.75596e-15
-2.19077e-15
-1.84313e-15
-9.375e-16
-7.41773e-16
-2.53112e-16
-1.64732e-16
-2.64617e-17
-5.62869e-18
-1.293e-18
1.01917e-16
9.76387e-09
-1.34338e-09
-1.14253e-09
-1.12654e-09
-9.51231e-10
-9.26789e-10
-6.2565e-10
-6.02664e-10
-4.37285e-10
-6.64566e-10
-3.03769e-10
-2.1439e-10
-2.05466e-10
-1.55028e-10
-1.50437e-10
-1.1517e-10
-1.11977e-10
-8.63689e-11
-8.40367e-11
-6.50883e-11
-6.3355e-11
-4.91695e-11
-4.78682e-11
-3.71717e-11
-3.61888e-11
-2.80886e-11
-2.73436e-11
-2.11956e-11
-2.063e-11
-1.59598e-11
-1.55302e-11
-1.19832e-11
-1.1657e-11
-8.96555e-12
-8.71825e-12
-6.67917e-12
-6.49198e-12
-4.95038e-12
-4.80901e-12
-3.64657e-12
-3.54012e-12
-2.66636e-12
-2.58648e-12
-1.93228e-12
-1.8726e-12
-1.3852e-12
-1.34097e-12
-9.80619e-13
-9.50457e-13
-7.02477e-13
-1.0616e-12
-4.79171e-13
-3.15606e-13
-2.99398e-13
-2.01855e-13
-1.9313e-13
-1.26999e-13
-1.21234e-13
-7.74719e-14
-7.37123e-14
-4.57637e-14
-4.33951e-14
-2.62059e-14
-2.47669e-14
-1.45697e-14
-1.3725e-14
-7.8666e-15
-7.38538e-15
-4.10826e-15
-3.84061e-15
-2.04411e-15
-1.89437e-15
-8.51831e-16
-7.67417e-16
-2.03295e-16
-1.65268e-16
-1.07635e-17
-1.97313e-18
-4.46486e-19
1.02195e-16
1.96032e-05
-1.74756e-05
-1.38276e-06
-5.89072e-07
-9.28738e-08
-4.50704e-08
-7.726e-09
-3.97313e-09
-1.08608e-09
-1.1191e-09
-4.45498e-10
-3.32393e-10
-3.18471e-10
-2.69401e-10
-2.64357e-10
-2.23448e-10
-2.19431e-10
-1.8373e-10
-1.80274e-10
-1.49744e-10
-1.46816e-10
-1.21228e-10
-1.1879e-10
-9.76615e-11
-9.56575e-11
-7.83963e-11
-7.67643e-11
-6.27684e-11
-6.1448e-11
-5.01597e-11
-4.90964e-11
-4.00258e-11
-3.91724e-11
-3.19031e-11
-3.12197e-11
-2.54051e-11
-2.48588e-11
-2.02145e-11
-1.97784e-11
-1.60732e-11
-1.57255e-11
-1.27729e-11
-1.2496e-11
-1.01461e-11
-9.92588e-12
-8.05874e-12
-7.88501e-12
-6.40881e-12
-6.29304e-12
-5.27201e-12
-8.53978e-12
-4.20114e-12
-3.28058e-12
-3.18337e-12
-2.60663e-12
-2.55206e-12
-2.10686e-12
-2.0655e-12
-1.72036e-12
-1.68842e-12
-1.42247e-12
-1.39793e-12
-1.19439e-12
-1.17558e-12
-1.01978e-12
-1.0045e-12
-8.69021e-13
-8.5417e-13
-7.05776e-13
-6.89828e-13
-5.3137e-13
-5.16195e-13
-3.85413e-13
-3.67924e-13
-1.61917e-13
-1.44415e-13
-8.80461e-15
-1.56955e-15
-3.53718e-16
-2.55473e-14
1.91811e-05
-1.54202e-05
-2.62778e-06
-8.46793e-07
-1.92023e-07
-6.6131e-08
-1.56138e-08
-5.66455e-09
-1.73016e-09
-1.18151e-09
-5.21251e-10
-3.56613e-10
-3.20223e-10
-2.73949e-10
-2.62014e-10
-2.26461e-10
-2.17154e-10
-1.86327e-10
-1.78333e-10
-1.51977e-10
-1.45204e-10
-1.23109e-10
-1.17468e-10
-9.922e-11
-9.45833e-11
-7.96728e-11
-7.58966e-11
-6.38053e-11
-6.07501e-11
-5.09971e-11
-4.85367e-11
-4.06993e-11
-3.87244e-11
-3.24432e-11
-3.08617e-11
-2.58373e-11
-2.45731e-11
-2.05598e-11
-1.95506e-11
-1.63488e-11
-1.5544e-11
-1.29926e-11
-1.23517e-11
-1.03211e-11
-9.81147e-12
-8.19855e-12
-7.79718e-12
-6.53175e-12
-6.27505e-12
-5.59174e-12
-7.86016e-12
-4.45597e-12
-3.4043e-12
-3.16481e-12
-2.65315e-12
-2.52596e-12
-2.14044e-12
-2.04466e-12
-1.74631e-12
-1.67239e-12
-1.4425e-12
-1.3857e-12
-1.20972e-12
-1.16616e-12
-1.03114e-12
-9.95708e-13
-8.78148e-13
-8.4376e-13
-7.15731e-13
-6.78885e-13
-5.4273e-13
-5.07559e-13
-3.9295e-13
-3.52557e-13
-1.77385e-13
-1.37144e-13
-2.12786e-14
-4.46776e-15
-1.02402e-15
-2.5772e-14
1.88358e-05
-1.39532e-05
-3.43233e-06
-1.05945e-06
-2.7001e-07
-8.41733e-08
-2.18775e-08
-7.1148e-09
-2.23859e-09
-1.24832e-09
-5.77153e-10
-3.75694e-10
-3.22366e-10
-2.77122e-10
-2.60613e-10
-2.28423e-10
-2.15735e-10
-1.88009e-10
-1.77125e-10
-1.53425e-10
-1.44203e-10
-1.2433e-10
-1.1665e-10
-1.00233e-10
-9.39193e-11
-8.05034e-11
-7.53609e-11
-6.44803e-11
-6.03196e-11
-5.15423e-11
-4.81916e-11
-4.1138e-11
-3.84484e-11
-3.2795e-11
-3.06412e-11
-2.61189e-11
-2.43972e-11
-2.07849e-11
-1.94103e-11
-1.65284e-11
-1.54324e-11
-1.31358e-11
-1.22629e-11
-1.04352e-11
-9.74112e-12
-8.28983e-12
-7.74386e-12
-6.61428e-12
-6.27408e-12
-5.79335e-12
-7.40741e-12
-4.61666e-12
-3.4955e-12
-3.15711e-12
-2.68427e-12
-2.51018e-12
-2.16242e-12
-2.03192e-12
-1.76327e-12
-1.66259e-12
-1.4556e-12
-1.37824e-12
-1.21974e-12
-1.16039e-12
-1.03851e-12
-9.90199e-13
-8.83941e-13
-8.3709e-13
-7.22033e-13
-6.71909e-13
-5.50046e-13
-5.02097e-13
-3.97516e-13
-3.42577e-13
-1.87455e-13
-1.32898e-13
-2.97896e-14
-6.83088e-15
-1.58984e-15
-2.5963e-14
1.85933e-05
-1.301e-05
-3.91094e-06
-1.20876e-06
-3.23842e-07
-9.72688e-08
-2.62376e-08
-8.16872e-09
-2.59127e-09
-1.30225e-09
-6.1423e-10
-3.88835e-10
-3.24179e-10
-2.7914e-10
-2.59837e-10
-2.29602e-10
-2.14916e-10
-1.89015e-10
-1.76427e-10
-1.54292e-10
-1.43627e-10
-1.25062e-10
-1.16179e-10
-1.00841e-10
-9.35383e-11
-8.1002e-11
-7.50539e-11
-6.48857e-11
-6.0073e-11
-5.18699e-11
-4.79941e-11
-4.14015e-11
-3.82905e-11
-3.30065e-11
-3.05151e-11
-2.62882e-11
-2.42965e-11
-2.09201e-11
-1.93301e-11
-1.66364e-11
-1.53685e-11
-1.32219e-11
-1.22121e-11
-1.05037e-11
-9.70095e-12
-8.3448e-12
-7.71379e-12
-6.66515e-12
-6.27865e-12
-5.9111e-12
-7.13078e-12
-4.71051e-12
-3.55534e-12
-3.15474e-12
-2.7034e-12
-2.50131e-12
-2.17567e-12
-2.02467e-12
-1.77349e-12
-1.65703e-12
-1.4635e-12
-1.374e-12
-1.22578e-12
-1.1571e-12
-1.04292e-12
-9.86997e-13
-8.87348e-13
-8.33139e-13
-7.25729e-13
-6.67795e-13
-5.54398e-13
-4.98894e-13
-4.0009e-13
-3.36602e-13
-1.93499e-13
-1.30591e-13
-3.50935e-14
-8.48468e-15
-1.99764e-15
-2.61016e-14
1.84687e-05
-1.25488e-05
-4.13365e-06
-1.28535e-06
-3.51329e-07
-1.04136e-07
-2.84764e-08
-8.72192e-09
-2.77203e-09
-1.332e-09
-6.32755e-10
-3.95528e-10
-3.25198e-10
-2.80124e-10
-2.59493e-10
-2.30155e-10
-2.14542e-10
-1.89485e-10
-1.76109e-10
-1.54698e-10
-1.43364e-10
-1.25405e-10
-1.15965e-10
-1.01126e-10
-9.33652e-11
-8.12358e-11
-7.49145e-11
-6.50758e-11
-5.99611e-11
-5.20236e-11
-4.79045e-11
-4.15252e-11
-3.82189e-11
-3.31057e-11
-3.04579e-11
-2.63676e-11
-2.42509e-11
-2.09836e-11
-1.92938e-11
-1.66871e-11
-1.53396e-11
-1.32623e-11
-1.21891e-11
-1.05359e-11
-9.68276e-12
-8.37062e-12
-7.7003e-12
-6.68943e-12
-6.28236e-12
-5.96526e-12
-6.99966e-12
-4.75369e-12
-3.58494e-12
-3.15435e-12
-2.71252e-12
-2.49734e-12
-2.18191e-12
-2.02141e-12
-1.7783e-12
-1.65451e-12
-1.46721e-12
-1.37209e-12
-1.22862e-12
-1.15562e-12
-1.04499e-12
-9.85528e-13
-8.88923e-13
-8.31303e-13
-7.27435e-13
-6.6589e-13
-5.56426e-13
-4.97416e-13
-4.01246e-13
-3.33806e-13
-1.96332e-13
-1.29585e-13
-3.76405e-14
-9.33286e-15
-2.21078e-15
-2.61743e-14
1.84688e-05
-1.25488e-05
-4.13365e-06
-1.28535e-06
-3.51328e-07
-1.04136e-07
-2.84761e-08
-8.72178e-09
-2.77197e-09
-1.33198e-09
-6.32748e-10
-3.95526e-10
-3.25197e-10
-2.80124e-10
-2.59493e-10
-2.30155e-10
-2.14542e-10
-1.89486e-10
-1.76109e-10
-1.54698e-10
-1.43364e-10
-1.25405e-10
-1.15965e-10
-1.01126e-10
-9.33652e-11
-8.12358e-11
-7.49145e-11
-6.50758e-11
-5.99611e-11
-5.20236e-11
-4.79045e-11
-4.15252e-11
-3.82189e-11
-3.31057e-11
-3.04579e-11
-2.63676e-11
-2.42509e-11
-2.09836e-11
-1.92938e-11
-1.66871e-11
-1.53396e-11
-1.32623e-11
-1.21891e-11
-1.05359e-11
-9.68276e-12
-8.37062e-12
-7.70031e-12
-6.68943e-12
-6.28237e-12
-5.96527e-12
-6.99966e-12
-4.75369e-12
-3.58494e-12
-3.15435e-12
-2.71252e-12
-2.49734e-12
-2.18191e-12
-2.02141e-12
-1.7783e-12
-1.65451e-12
-1.46721e-12
-1.37209e-12
-1.22863e-12
-1.15562e-12
-1.04499e-12
-9.85528e-13
-8.88923e-13
-8.31303e-13
-7.27435e-13
-6.6589e-13
-5.56426e-13
-4.97416e-13
-4.01246e-13
-3.33805e-13
-1.96332e-13
-1.29585e-13
-3.76404e-14
-9.33279e-15
-2.21076e-15
-2.61743e-14
1.85933e-05
-1.30101e-05
-3.91095e-06
-1.20876e-06
-3.2384e-07
-9.72671e-08
-2.62367e-08
-8.16835e-09
-2.59113e-09
-1.3022e-09
-6.14213e-10
-3.8883e-10
-3.24177e-10
-2.7914e-10
-2.59837e-10
-2.29602e-10
-2.14916e-10
-1.89015e-10
-1.76427e-10
-1.54292e-10
-1.43627e-10
-1.25063e-10
-1.16179e-10
-1.00841e-10
-9.35383e-11
-8.1002e-11
-7.50539e-11
-6.48857e-11
-6.0073e-11
-5.187e-11
-4.79941e-11
-4.14016e-11
-3.82905e-11
-3.30065e-11
-3.05151e-11
-2.62882e-11
-2.42965e-11
-2.09202e-11
-1.93301e-11
-1.66364e-11
-1.53685e-11
-1.32219e-11
-1.22121e-11
-1.05037e-11
-9.70095e-12
-8.3448e-12
-7.71379e-12
-6.66516e-12
-6.27866e-12
-5.9111e-12
-7.13078e-12
-4.71052e-12
-3.55534e-12
-3.15474e-12
-2.7034e-12
-2.50131e-12
-2.17567e-12
-2.02467e-12
-1.7735e-12
-1.65703e-12
-1.4635e-12
-1.374e-12
-1.22579e-12
-1.1571e-12
-1.04292e-12
-9.86997e-13
-8.87348e-13
-8.3314e-13
-7.25729e-13
-6.67795e-13
-5.54398e-13
-4.98894e-13
-4.0009e-13
-3.36601e-13
-1.93499e-13
-1.30591e-13
-3.50933e-14
-8.48451e-15
-1.99759e-15
-2.61015e-14
1.88358e-05
-1.39532e-05
-3.43234e-06
-1.05945e-06
-2.70007e-07
-8.41711e-08
-2.18764e-08
-7.11432e-09
-2.2384e-09
-1.24825e-09
-5.77132e-10
-3.75687e-10
-3.22364e-10
-2.77121e-10
-2.60613e-10
-2.28423e-10
-2.15736e-10
-1.88009e-10
-1.77125e-10
-1.53425e-10
-1.44203e-10
-1.2433e-10
-1.1665e-10
-1.00233e-10
-9.39194e-11
-8.05034e-11
-7.5361e-11
-6.44803e-11
-6.03196e-11
-5.15424e-11
-4.81916e-11
-4.1138e-11
-3.84484e-11
-3.27951e-11
-3.06413e-11
-2.61189e-11
-2.43972e-11
-2.07849e-11
-1.94103e-11
-1.65285e-11
-1.54324e-11
-1.31358e-11
-1.22629e-11
-1.04352e-11
-9.74113e-12
-8.28984e-12
-7.74387e-12
-6.61429e-12
-6.27409e-12
-5.79336e-12
-7.40741e-12
-4.61666e-12
-3.4955e-12
-3.15711e-12
-2.68427e-12
-2.51018e-12
-2.16242e-12
-2.03192e-12
-1.76327e-12
-1.6626e-12
-1.4556e-12
-1.37824e-12
-1.21974e-12
-1.16039e-12
-1.03851e-12
-9.902e-13
-8.83942e-13
-8.37091e-13
-7.22034e-13
-6.71909e-13
-5.50046e-13
-5.02097e-13
-3.97515e-13
-3.42577e-13
-1.87455e-13
-1.32897e-13
-2.97893e-14
-6.83065e-15
-1.58978e-15
-2.59629e-14
1.91812e-05
-1.54202e-05
-2.62778e-06
-8.4679e-07
-1.9202e-07
-6.61292e-08
-1.56129e-08
-5.66413e-09
-1.73e-09
-1.18146e-09
-5.21232e-10
-3.56607e-10
-3.20222e-10
-2.73949e-10
-2.62014e-10
-2.26462e-10
-2.17154e-10
-1.86327e-10
-1.78333e-10
-1.51977e-10
-1.45204e-10
-1.23109e-10
-1.17468e-10
-9.92201e-11
-9.45833e-11
-7.96729e-11
-7.58966e-11
-6.38053e-11
-6.07501e-11
-5.09971e-11
-4.85367e-11
-4.06993e-11
-3.87244e-11
-3.24432e-11
-3.08618e-11
-2.58373e-11
-2.45731e-11
-2.05599e-11
-1.95506e-11
-1.63488e-11
-1.5544e-11
-1.29926e-11
-1.23517e-11
-1.03211e-11
-9.81148e-12
-8.19856e-12
-7.79719e-12
-6.53175e-12
-6.27506e-12
-5.59174e-12
-7.86017e-12
-4.45597e-12
-3.4043e-12
-3.16481e-12
-2.65315e-12
-2.52596e-12
-2.14044e-12
-2.04467e-12
-1.74631e-12
-1.6724e-12
-1.4425e-12
-1.38571e-12
-1.20972e-12
-1.16616e-12
-1.03114e-12
-9.95709e-13
-8.78149e-13
-8.43761e-13
-7.15732e-13
-6.78885e-13
-5.4273e-13
-5.07559e-13
-3.9295e-13
-3.52556e-13
-1.77385e-13
-1.37144e-13
-2.12783e-14
-4.46756e-15
-1.02397e-15
-2.57719e-14
1.96032e-05
-1.74756e-05
-1.38276e-06
-5.89071e-07
-9.28727e-08
-4.50697e-08
-7.72562e-09
-3.97296e-09
-1.08602e-09
-1.11908e-09
-4.45491e-10
-3.32391e-10
-3.18471e-10
-2.694e-10
-2.64357e-10
-2.23448e-10
-2.19431e-10
-1.8373e-10
-1.80274e-10
-1.49744e-10
-1.46817e-10
-1.21228e-10
-1.1879e-10
-9.76616e-11
-9.56575e-11
-7.83963e-11
-7.67643e-11
-6.27684e-11
-6.1448e-11
-5.01597e-11
-4.90964e-11
-4.00258e-11
-3.91724e-11
-3.19031e-11
-3.12197e-11
-2.54051e-11
-2.48588e-11
-2.02145e-11
-1.97784e-11
-1.60732e-11
-1.57255e-11
-1.27729e-11
-1.2496e-11
-1.01461e-11
-9.92588e-12
-8.05875e-12
-7.88501e-12
-6.40882e-12
-6.29304e-12
-5.27201e-12
-8.53979e-12
-4.20114e-12
-3.28058e-12
-3.18337e-12
-2.60663e-12
-2.55206e-12
-2.10686e-12
-2.0655e-12
-1.72036e-12
-1.68842e-12
-1.42247e-12
-1.39793e-12
-1.1944e-12
-1.17559e-12
-1.01978e-12
-1.0045e-12
-8.69022e-13
-8.5417e-13
-7.05777e-13
-6.89828e-13
-5.3137e-13
-5.16195e-13
-3.85413e-13
-3.67924e-13
-1.61917e-13
-1.44415e-13
-8.8045e-15
-1.56948e-15
-3.53702e-16
-2.55473e-14
1.96116e-05
-1.74825e-05
-1.38363e-06
-5.89627e-07
-9.29492e-08
-4.51116e-08
-7.72511e-09
-3.96885e-09
-1.0785e-09
-1.10519e-09
-4.38015e-10
-3.25962e-10
-3.12163e-10
-2.63921e-10
-2.58962e-10
-2.18831e-10
-2.14891e-10
-1.79889e-10
-1.76502e-10
-1.4658e-10
-1.43711e-10
-1.18641e-10
-1.16253e-10
-9.55582e-11
-9.35956e-11
-7.66936e-11
-7.50957e-11
-6.13947e-11
-6.01023e-11
-4.90545e-11
-4.8014e-11
-3.91387e-11
-3.83038e-11
-3.11925e-11
-3.0524e-11
-2.48369e-11
-2.43027e-11
-1.97609e-11
-1.93345e-11
-1.57117e-11
-1.53717e-11
-1.24852e-11
-1.22144e-11
-9.91737e-12
-9.7021e-12
-7.87704e-12
-7.70723e-12
-6.26439e-12
-6.15123e-12
-5.15334e-12
-8.3477e-12
-4.10673e-12
-3.20701e-12
-3.11201e-12
-2.54834e-12
-2.49501e-12
-2.05993e-12
-2.01951e-12
-1.68224e-12
-1.65103e-12
-1.39119e-12
-1.36722e-12
-1.16845e-12
-1.15008e-12
-9.98042e-13
-9.83132e-13
-8.51085e-13
-8.36597e-13
-6.91745e-13
-6.76158e-13
-5.21102e-13
-5.06254e-13
-3.78334e-13
-3.61191e-13
-1.58977e-13
-1.41796e-13
-8.64483e-15
-1.54106e-15
-3.47296e-16
-2.50732e-14
1.91894e-05
-1.54263e-05
-2.62911e-06
-8.4742e-07
-1.9216e-07
-6.61837e-08
-1.56194e-08
-5.6615e-09
-1.72273e-09
-1.16888e-09
-5.13415e-10
-3.50035e-10
-3.1395e-10
-2.68407e-10
-2.5667e-10
-2.21789e-10
-2.12659e-10
-1.82435e-10
-1.74599e-10
-1.48769e-10
-1.42132e-10
-1.20484e-10
-1.14958e-10
-9.70848e-11
-9.25438e-11
-7.79437e-11
-7.42464e-11
-6.24098e-11
-5.94193e-11
-4.98741e-11
-4.74664e-11
-3.97977e-11
-3.78656e-11
-3.17209e-11
-3.01739e-11
-2.52597e-11
-2.40233e-11
-2.00987e-11
-1.91118e-11
-1.59812e-11
-1.51944e-11
-1.27e-11
-1.20734e-11
-1.00884e-11
-9.59027e-12
-8.0137e-12
-7.62139e-12
-6.38455e-12
-6.13367e-12
-5.46587e-12
-7.68337e-12
-4.35583e-12
-3.32794e-12
-3.09387e-12
-2.59381e-12
-2.46951e-12
-2.09275e-12
-1.99915e-12
-1.7076e-12
-1.63538e-12
-1.41077e-12
-1.35529e-12
-1.18342e-12
-1.14089e-12
-1.00913e-12
-9.7457e-13
-8.59977e-13
-8.26431e-13
-7.01454e-13
-6.65442e-13
-5.32216e-13
-4.97805e-13
-3.85691e-13
-3.46096e-13
-1.74158e-13
-1.34656e-13
-2.08923e-14
-4.38664e-15
-1.00542e-15
-2.52938e-14
1.88438e-05
-1.39588e-05
-3.43396e-06
-1.06014e-06
-2.70193e-07
-8.42361e-08
-2.1888e-08
-7.11282e-09
-2.23135e-09
-1.23657e-09
-5.69107e-10
-3.69008e-10
-3.1611e-10
-2.71539e-10
-2.55301e-10
-2.23715e-10
-2.11269e-10
-1.84085e-10
-1.73416e-10
-1.50188e-10
-1.41152e-10
-1.21681e-10
-1.14157e-10
-9.80774e-11
-9.18938e-11
-7.8757e-11
-7.37221e-11
-6.30707e-11
-5.8998e-11
-5.04078e-11
-4.71288e-11
-4.0227e-11
-3.75956e-11
-3.20651e-11
-2.99583e-11
-2.55351e-11
-2.38512e-11
-2.03188e-11
-1.89746e-11
-1.61568e-11
-1.50852e-11
-1.284e-11
-1.19866e-11
-1.01999e-11
-9.52151e-12
-8.10293e-12
-7.56928e-12
-6.46522e-12
-6.13273e-12
-5.66295e-12
-7.2408e-12
-4.51292e-12
-3.41708e-12
-3.08634e-12
-2.62422e-12
-2.45409e-12
-2.11423e-12
-1.9867e-12
-1.72418e-12
-1.6258e-12
-1.42357e-12
-1.348e-12
-1.19321e-12
-1.13526e-12
-1.01632e-12
-9.69203e-13
-8.6562e-13
-8.19916e-13
-7.07598e-13
-6.5861e-13
-5.39374e-13
-4.92461e-13
-3.90145e-13
-3.36293e-13
-1.8404e-13
-1.30485e-13
-2.92488e-14
-6.70685e-15
-1.56097e-15
-2.54813e-14
1.86013e-05
-1.30153e-05
-3.91275e-06
-1.2095e-06
-3.24056e-07
-9.73389e-08
-2.62514e-08
-8.16751e-09
-2.58419e-09
-1.29105e-09
-6.06066e-10
-3.82078e-10
-3.17931e-10
-2.73533e-10
-2.54543e-10
-2.24872e-10
-2.10467e-10
-1.85072e-10
-1.72732e-10
-1.51038e-10
-1.40587e-10
-1.22398e-10
-1.13696e-10
-9.86729e-11
-9.15208e-11
-7.92453e-11
-7.34216e-11
-6.34675e-11
-5.87568e-11
-5.07284e-11
-4.69356e-11
-4.04849e-11
-3.74411e-11
-3.2272e-11
-2.9835e-11
-2.57007e-11
-2.37528e-11
-2.0451e-11
-1.88962e-11
-1.62624e-11
-1.50228e-11
-1.29242e-11
-1.1937e-11
-1.0267e-11
-9.48225e-12
-8.15666e-12
-7.53989e-12
-6.51494e-12
-6.1372e-12
-5.77804e-12
-6.97039e-12
-4.60466e-12
-3.47558e-12
-3.08403e-12
-2.64292e-12
-2.44542e-12
-2.12718e-12
-1.97962e-12
-1.73417e-12
-1.62036e-12
-1.43129e-12
-1.34386e-12
-1.19911e-12
-1.13205e-12
-1.02063e-12
-9.66083e-13
-8.68938e-13
-8.16055e-13
-7.11201e-13
-6.5458e-13
-5.43633e-13
-4.89327e-13
-3.92655e-13
-3.30421e-13
-1.89971e-13
-1.28219e-13
-3.44563e-14
-8.33062e-15
-1.96137e-15
-2.56174e-14
1.84767e-05
-1.25538e-05
-4.13554e-06
-1.28611e-06
-3.51557e-07
-1.0421e-07
-2.84919e-08
-8.72111e-09
-2.76504e-09
-1.32107e-09
-6.24539e-10
-3.88736e-10
-3.18953e-10
-2.74504e-10
-2.54208e-10
-2.25415e-10
-2.101e-10
-1.85533e-10
-1.7242e-10
-1.51436e-10
-1.4033e-10
-1.22734e-10
-1.13487e-10
-9.89521e-11
-9.13513e-11
-7.94742e-11
-7.32852e-11
-6.36537e-11
-5.86473e-11
-5.08789e-11
-4.68479e-11
-4.06059e-11
-3.73711e-11
-3.2369e-11
-2.97791e-11
-2.57784e-11
-2.37083e-11
-2.05131e-11
-1.88607e-11
-1.6312e-11
-1.49945e-11
-1.29637e-11
-1.19145e-11
-1.02984e-11
-9.46447e-12
-8.1819e-12
-7.52671e-12
-6.53867e-12
-6.14083e-12
-5.83099e-12
-6.84222e-12
-4.64686e-12
-3.5045e-12
-3.08365e-12
-2.65183e-12
-2.44154e-12
-2.13328e-12
-1.97643e-12
-1.73886e-12
-1.61791e-12
-1.43492e-12
-1.342e-12
-1.20188e-12
-1.13061e-12
-1.02265e-12
-9.64653e-13
-8.70472e-13
-8.14262e-13
-7.12863e-13
-6.52713e-13
-5.45617e-13
-4.87881e-13
-3.93781e-13
-3.27674e-13
-1.92751e-13
-1.27231e-13
-3.6957e-14
-9.1634e-15
-2.17064e-15
-2.56888e-14
1.84767e-05
-1.25538e-05
-4.13554e-06
-1.28611e-06
-3.51556e-07
-1.0421e-07
-2.84916e-08
-8.72097e-09
-2.76498e-09
-1.32105e-09
-6.24533e-10
-3.88734e-10
-3.18953e-10
-2.74504e-10
-2.54208e-10
-2.25415e-10
-2.101e-10
-1.85533e-10
-1.7242e-10
-1.51436e-10
-1.4033e-10
-1.22734e-10
-1.13487e-10
-9.89521e-11
-9.13514e-11
-7.94742e-11
-7.32852e-11
-6.36537e-11
-5.86473e-11
-5.08789e-11
-4.6848e-11
-4.0606e-11
-3.73711e-11
-3.2369e-11
-2.97791e-11
-2.57784e-11
-2.37083e-11
-2.05131e-11
-1.88607e-11
-1.6312e-11
-1.49945e-11
-1.29637e-11
-1.19145e-11
-1.02984e-11
-9.46447e-12
-8.1819e-12
-7.52671e-12
-6.53867e-12
-6.14083e-12
-5.83099e-12
-6.84222e-12
-4.64686e-12
-3.5045e-12
-3.08365e-12
-2.65183e-12
-2.44154e-12
-2.13328e-12
-1.97643e-12
-1.73886e-12
-1.61791e-12
-1.43492e-12
-1.342e-12
-1.20189e-12
-1.13061e-12
-1.02265e-12
-9.64653e-13
-8.70473e-13
-8.14262e-13
-7.12863e-13
-6.52713e-13
-5.45617e-13
-4.87881e-13
-3.93781e-13
-3.27674e-13
-1.92751e-13
-1.27231e-13
-3.69569e-14
-9.16333e-15
-2.17062e-15
-2.56888e-14
1.86013e-05
-1.30153e-05
-3.91275e-06
-1.20949e-06
-3.24053e-07
-9.73372e-08
-2.62505e-08
-8.16714e-09
-2.58405e-09
-1.291e-09
-6.06049e-10
-3.82072e-10
-3.1793e-10
-2.73532e-10
-2.54543e-10
-2.24872e-10
-2.10467e-10
-1.85072e-10
-1.72732e-10
-1.51038e-10
-1.40587e-10
-1.22398e-10
-1.13696e-10
-9.8673e-11
-9.15209e-11
-7.92453e-11
-7.34217e-11
-6.34676e-11
-5.87568e-11
-5.07285e-11
-4.69356e-11
-4.0485e-11
-3.74411e-11
-3.2272e-11
-2.9835e-11
-2.57007e-11
-2.37529e-11
-2.0451e-11
-1.88963e-11
-1.62624e-11
-1.50228e-11
-1.29242e-11
-1.1937e-11
-1.0267e-11
-9.48225e-12
-8.15666e-12
-7.53989e-12
-6.51495e-12
-6.1372e-12
-5.77805e-12
-6.97039e-12
-4.60466e-12
-3.47558e-12
-3.08403e-12
-2.64292e-12
-2.44542e-12
-2.12718e-12
-1.97962e-12
-1.73417e-12
-1.62037e-12
-1.43129e-12
-1.34386e-12
-1.19911e-12
-1.13206e-12
-1.02063e-12
-9.66084e-13
-8.68939e-13
-8.16056e-13
-7.11201e-13
-6.5458e-13
-5.43633e-13
-4.89327e-13
-3.92655e-13
-3.30421e-13
-1.89971e-13
-1.28219e-13
-3.44561e-14
-8.33045e-15
-1.96132e-15
-2.56172e-14
1.88439e-05
-1.39588e-05
-3.43396e-06
-1.06014e-06
-2.7019e-07
-8.42339e-08
-2.18869e-08
-7.11234e-09
-2.23116e-09
-1.2365e-09
-5.69085e-10
-3.69001e-10
-3.16109e-10
-2.71538e-10
-2.55301e-10
-2.23715e-10
-2.11269e-10
-1.84085e-10
-1.73416e-10
-1.50188e-10
-1.41152e-10
-1.21681e-10
-1.14157e-10
-9.80775e-11
-9.18939e-11
-7.87571e-11
-7.37222e-11
-6.30707e-11
-5.89981e-11
-5.04078e-11
-4.71288e-11
-4.0227e-11
-3.75956e-11
-3.20651e-11
-2.99583e-11
-2.55352e-11
-2.38512e-11
-2.03188e-11
-1.89747e-11
-1.61569e-11
-1.50852e-11
-1.284e-11
-1.19866e-11
-1.01999e-11
-9.52152e-12
-8.10294e-12
-7.56928e-12
-6.46523e-12
-6.13273e-12
-5.66295e-12
-7.2408e-12
-4.51292e-12
-3.41708e-12
-3.08634e-12
-2.62422e-12
-2.45409e-12
-2.11423e-12
-1.9867e-12
-1.72418e-12
-1.6258e-12
-1.42357e-12
-1.348e-12
-1.19321e-12
-1.13526e-12
-1.01632e-12
-9.69204e-13
-8.65621e-13
-8.19916e-13
-7.07599e-13
-6.5861e-13
-5.39374e-13
-4.92461e-13
-3.90144e-13
-3.36292e-13
-1.8404e-13
-1.30484e-13
-2.92484e-14
-6.70663e-15
-1.56092e-15
-2.54812e-14
1.91894e-05
-1.54264e-05
-2.62911e-06
-8.47417e-07
-1.92157e-07
-6.61819e-08
-1.56184e-08
-5.66109e-09
-1.72257e-09
-1.16883e-09
-5.13396e-10
-3.50029e-10
-3.13948e-10
-2.68407e-10
-2.5667e-10
-2.21789e-10
-2.12659e-10
-1.82436e-10
-1.746e-10
-1.48769e-10
-1.42132e-10
-1.20484e-10
-1.14958e-10
-9.70849e-11
-9.25439e-11
-7.79437e-11
-7.42465e-11
-6.24099e-11
-5.94193e-11