/*--------------------------------*- C++ -*----------------------------------*\
| =========                 |                                                 |
| \\      /  F ield         | OpenFOAM: The Open Source CFD Toolbox           |
|  \\    /   O peration     | Version:  5.x                                   |
|   \\  /    A nd           | Web:      www.OpenFOAM.org                      |
|    \\/     M anipulation  |                                                 |
\*---------------------------------------------------------------------------*/
FoamFile
{
    version     2.0;
    format      ascii;
    class       volScalarField;
    location    "3.5";
    object      T;
}
// * * * * * * * * * * * * * * * * * * * * * * * * * * * * * * * * * * * * * //

dimensions      [0 0 0 1 0 0 0];

internalField   nonuniform List<scalar> 
3200
(
5.49672e-10
4.26714e-10
4.15335e-10
3.12462e-10
3.0268e-10
2.17339e-10
2.10001e-10
1.54774e-10
1.49735e-10
1.11045e-10
8.32785e-11
8.06684e-11
6.18395e-11
6.01218e-11
4.63367e-11
4.50781e-11
3.48197e-11
3.38805e-11
2.61828e-11
2.54768e-11
1.96739e-11
1.91413e-11
1.4757e-11
1.43545e-11
1.10398e-11
1.07356e-11
8.23097e-12
8.00122e-12
6.11141e-12
5.93822e-12
4.51543e-12
4.3852e-12
3.31711e-12
3.21949e-12
2.42056e-12
2.34767e-12
1.75264e-12
1.69847e-12
1.2576e-12
1.21757e-12
8.92947e-13
8.6356e-13
6.26311e-13
6.04913e-13
4.33083e-13
4.17653e-13
2.94563e-13
2.83556e-13
1.96501e-13
1.8851e-13
1.26254e-13
8.23506e-14
7.83365e-14
5.07899e-14
4.83968e-14
3.06044e-14
2.90838e-14
1.79045e-14
1.69603e-14
1.01574e-14
9.5891e-15
5.58097e-15
5.24959e-15
2.96039e-15
2.7729e-15
1.50342e-15
1.4004e-15
7.16758e-16
6.61859e-16
3.05931e-16
2.77797e-16
1.0152e-16
8.83603e-17
1.63368e-17
1.16185e-17
-3.99278e-18
-4.90834e-18
-5.06917e-18
-5.10567e-18
-5.11383e-18
5.3606e-10
4.34591e-10
4.08576e-10
3.19966e-10
2.97368e-10
2.23933e-10
2.06958e-10
1.58988e-10
1.47226e-10
1.12202e-10
8.58983e-11
7.97232e-11
6.33065e-11
5.93206e-11
4.7386e-11
4.44714e-11
3.55971e-11
3.34227e-11
2.67651e-11
2.51307e-11
2.01126e-11
1.88795e-11
1.50883e-11
1.41565e-11
1.12903e-11
1.0586e-11
8.42029e-12
7.88845e-12
6.25434e-12
5.85342e-12
4.62312e-12
4.32164e-12
3.39803e-12
3.17205e-12
2.48116e-12
2.31242e-12
1.79784e-12
1.67244e-12
1.29115e-12
1.19847e-12
9.17698e-13
8.49662e-13
6.44444e-13
5.94901e-13
4.46254e-13
4.10527e-13
3.04024e-13
2.78528e-13
2.03073e-13
1.84434e-13
1.28185e-13
8.65566e-14
7.70515e-14
5.30044e-14
4.74471e-14
3.20178e-14
2.84931e-14
1.87983e-14
1.66094e-14
1.07056e-14
9.38786e-15
5.90655e-15
5.13779e-15
3.14773e-15
2.71261e-15
1.60806e-15
1.36888e-15
7.73546e-16
6.4604e-16
3.35807e-16
2.70443e-16
1.16729e-16
8.61297e-17
2.29792e-17
1.19522e-17
-2.33211e-18
-4.52111e-18
-4.97834e-18
-5.08402e-18
-5.10768e-18
5.26505e-10
4.39447e-10
4.04318e-10
3.24827e-10
2.94087e-10
2.28268e-10
2.05152e-10
1.61753e-10
1.45646e-10
1.13009e-10
8.77122e-11
7.9187e-11
6.42758e-11
5.8837e-11
4.80741e-11
4.41026e-11
3.61063e-11
3.31439e-11
2.71463e-11
2.49199e-11
2.03996e-11
1.87199e-11
1.5305e-11
1.40357e-11
1.14542e-11
1.04948e-11
8.54419e-12
7.81972e-12
6.34789e-12
5.80176e-12
4.69362e-12
4.28294e-12
3.45102e-12
3.14318e-12
2.52086e-12
2.291e-12
1.82746e-12
1.65662e-12
1.31314e-12
1.18688e-12
9.33931e-13
8.41244e-13
6.56345e-13
5.88849e-13
4.54905e-13
4.0623e-13
3.10242e-13
2.75496e-13
2.07371e-13
1.8186e-13
1.2953e-13
8.94769e-14
7.63474e-14
5.44788e-14
4.6892e-14
3.29548e-14
2.81489e-14
1.93917e-14
1.6407e-14
1.10703e-14
9.27308e-15
6.12357e-15
5.0748e-15
3.27284e-15
2.67907e-15
1.67807e-15
1.3516e-15
8.11612e-16
6.37525e-16
3.55884e-16
2.66621e-16
1.27013e-16
8.52001e-17
2.75361e-17
1.2416e-17
-1.15538e-18
-4.2032e-18
-4.90158e-18
-5.06563e-18
-5.10246e-18
5.20428e-10
4.42221e-10
4.0183e-10
3.27735e-10
2.92206e-10
2.30892e-10
2.04155e-10
1.63424e-10
1.44725e-10
1.13521e-10
8.8854e-11
7.89052e-11
6.48654e-11
5.85656e-11
4.84899e-11
4.38944e-11
3.64137e-11
3.29862e-11
2.73764e-11
2.48004e-11
2.05728e-11
1.86294e-11
1.54358e-11
1.39673e-11
1.15531e-11
1.04431e-11
8.61893e-12
7.78078e-12
6.40433e-12
5.7725e-12
4.73616e-12
4.26104e-12
3.483e-12
3.12686e-12
2.54482e-12
2.27889e-12
1.84534e-12
1.6477e-12
1.32642e-12
1.18035e-12
9.43742e-13
8.36504e-13
6.63541e-13
5.85447e-13
4.60139e-13
4.03819e-13
3.14006e-13
2.73795e-13
2.09961e-13
1.80357e-13
1.30382e-13
9.13189e-14
7.59919e-14
5.53812e-14
4.65902e-14
3.35259e-14
2.79625e-14
1.97538e-14
1.62985e-14
1.12933e-14
9.21227e-15
6.25647e-15
5.04186e-15
3.34957e-15
2.66179e-15
1.72107e-15
1.34283e-15
8.35029e-16
6.33303e-16
3.6826e-16
2.64808e-16
1.33381e-16
8.4903e-17
3.03902e-17
1.28173e-17
-3.99797e-19
-3.97932e-18
-4.84619e-18
-5.05229e-18
-5.09866e-18
5.17474e-10
4.43477e-10
4.00684e-10
3.29094e-10
2.91352e-10
2.32128e-10
2.03715e-10
1.64211e-10
1.44303e-10
1.1377e-10
8.94055e-11
7.87858e-11
6.51443e-11
5.84443e-11
4.86858e-11
4.38009e-11
3.65583e-11
3.29153e-11
2.74846e-11
2.47467e-11
2.06542e-11
1.85887e-11
1.54973e-11
1.39365e-11
1.15996e-11
1.04199e-11
8.65408e-12
7.76325e-12
6.43088e-12
5.75934e-12
4.75617e-12
4.25119e-12
3.49805e-12
3.11952e-12
2.5561e-12
2.27344e-12
1.85376e-12
1.64369e-12
1.33268e-12
1.17742e-12
9.48363e-13
8.3438e-13
6.66931e-13
5.83925e-13
4.62606e-13
4.02743e-13
3.1578e-13
2.73036e-13
2.11179e-13
1.79666e-13
1.30796e-13
9.22097e-14
7.58464e-14
5.58097e-14
4.64586e-14
3.37965e-14
2.78813e-14
1.99255e-14
1.62516e-14
1.13991e-14
9.18628e-15
6.3196e-15
5.02795e-15
3.38606e-15
2.65458e-15
1.74153e-15
1.33923e-15
8.46186e-16
6.31602e-16
3.74164e-16
2.64108e-16
1.36429e-16
8.48452e-17
3.17657e-17
1.30438e-17
-2.9971e-20
-3.86403e-18
-4.81721e-18
-5.04528e-18
-5.09666e-18
5.17475e-10
4.43477e-10
4.00684e-10
3.29094e-10
2.91352e-10
2.32128e-10
2.03715e-10
1.64211e-10
1.44303e-10
1.1377e-10
8.94055e-11
7.87858e-11
6.51443e-11
5.84443e-11
4.86858e-11
4.38009e-11
3.65583e-11
3.29153e-11
2.74846e-11
2.47467e-11
2.06542e-11
1.85887e-11
1.54973e-11
1.39365e-11
1.15996e-11
1.04199e-11
8.65408e-12
7.76325e-12
6.43088e-12
5.75934e-12
4.75617e-12
4.25119e-12
3.49805e-12
3.11952e-12
2.5561e-12
2.27344e-12
1.85376e-12
1.64369e-12
1.33268e-12
1.17742e-12
9.48363e-13
8.3438e-13
6.66931e-13
5.83925e-13
4.62606e-13
4.02743e-13
3.1578e-13
2.73036e-13
2.11179e-13
1.79666e-13
1.30796e-13
9.22097e-14
7.58464e-14
5.58097e-14
4.64586e-14
3.37965e-14
2.78813e-14
1.99255e-14
1.62516e-14
1.13991e-14
9.18628e-15
6.31959e-15
5.02795e-15
3.38605e-15
2.65458e-15
1.74153e-15
1.33923e-15
8.46185e-16
6.31601e-16
3.74163e-16
2.64108e-16
1.36428e-16
8.48451e-17
3.17656e-17
1.30437e-17
-3.00037e-20
-3.86404e-18
-4.81722e-18
-5.04529e-18
-5.09665e-18
5.20429e-10
4.42222e-10
4.0183e-10
3.27735e-10
2.92206e-10
2.30892e-10
2.04155e-10
1.63424e-10
1.44725e-10
1.13521e-10
8.8854e-11
7.89052e-11
6.48654e-11
5.85656e-11
4.849e-11
4.38944e-11
3.64137e-11
3.29862e-11
2.73764e-11
2.48004e-11
2.05728e-11
1.86295e-11
1.54358e-11
1.39673e-11
1.15531e-11
1.04431e-11
8.61893e-12
7.78078e-12
6.40433e-12
5.7725e-12
4.73616e-12
4.26104e-12
3.483e-12
3.12686e-12
2.54482e-12
2.27889e-12
1.84534e-12
1.6477e-12
1.32642e-12
1.18035e-12
9.43742e-13
8.36504e-13
6.63541e-13
5.85447e-13
4.60139e-13
4.03819e-13
3.14006e-13
2.73795e-13
2.09961e-13
1.80357e-13
1.30382e-13
9.13188e-14
7.59918e-14
5.53811e-14
4.65902e-14
3.35259e-14
2.79624e-14
1.97538e-14
1.62984e-14
1.12933e-14
9.21226e-15
6.25646e-15
5.04186e-15
3.34957e-15
2.66179e-15
1.72106e-15
1.34283e-15
8.35028e-16
6.33302e-16
3.68259e-16
2.64807e-16
1.33381e-16
8.49027e-17
3.039e-17
1.28171e-17
-3.99885e-19
-3.97937e-18
-4.84621e-18
-5.0523e-18
-5.09865e-18
5.26507e-10
4.39448e-10
4.04318e-10
3.24827e-10
2.94087e-10
2.28268e-10
2.05152e-10
1.61753e-10
1.45646e-10
1.13009e-10
8.77122e-11
7.9187e-11
6.42759e-11
5.8837e-11
4.80741e-11
4.41027e-11
3.61063e-11
3.3144e-11
2.71463e-11
2.49199e-11
2.03996e-11
1.87199e-11
1.53051e-11
1.40357e-11
1.14542e-11
1.04948e-11
8.54419e-12
7.81972e-12
6.34789e-12
5.80176e-12
4.69362e-12
4.28295e-12
3.45102e-12
3.14319e-12
2.52086e-12
2.291e-12
1.82746e-12
1.65662e-12
1.31314e-12
1.18688e-12
9.33932e-13
8.41244e-13
6.56345e-13
5.88849e-13
4.54905e-13
4.0623e-13
3.10242e-13
2.75496e-13
2.07371e-13
1.8186e-13
1.2953e-13
8.94768e-14
7.63473e-14
5.44788e-14
4.68919e-14
3.29547e-14
2.81489e-14
1.93916e-14
1.6407e-14
1.10703e-14
9.27307e-15
6.12356e-15
5.07479e-15
3.27283e-15
2.67907e-15
1.67806e-15
1.35159e-15
8.1161e-16
6.37524e-16
3.55883e-16
2.6662e-16
1.27012e-16
8.51997e-17
2.75358e-17
1.24158e-17
-1.15549e-18
-4.20326e-18
-4.90162e-18
-5.06565e-18
-5.10245e-18
5.36062e-10
4.34592e-10
4.08576e-10
3.19966e-10
2.97368e-10
2.23934e-10
2.06958e-10
1.58988e-10
1.47226e-10
1.12202e-10
8.58983e-11
7.97232e-11
6.33066e-11
5.93207e-11
4.7386e-11
4.44714e-11
3.55971e-11
3.34227e-11
2.67651e-11
2.51308e-11
2.01126e-11
1.88795e-11
1.50883e-11
1.41565e-11
1.12903e-11
1.0586e-11
8.42029e-12
7.88846e-12
6.25434e-12
5.85342e-12
4.62312e-12
4.32165e-12
3.39804e-12
3.17205e-12
2.48116e-12
2.31243e-12
1.79784e-12
1.67244e-12
1.29115e-12
1.19847e-12
9.17698e-13
8.49662e-13
6.44444e-13
5.94901e-13
4.46254e-13
4.10527e-13
3.04024e-13
2.78528e-13
2.03073e-13
1.84434e-13
1.28185e-13
8.65565e-14
7.70514e-14
5.30044e-14
4.74471e-14
3.20178e-14
2.8493e-14
1.87983e-14
1.66094e-14
1.07056e-14
9.38785e-15
5.90655e-15
5.13779e-15
3.14772e-15
2.7126e-15
1.60806e-15
1.36888e-15
7.73544e-16
6.46039e-16
3.35806e-16
2.70443e-16
1.16729e-16
8.61294e-17
2.29789e-17
1.19521e-17
-2.3322e-18
-4.52117e-18
-4.97837e-18
-5.08404e-18
-5.10768e-18
5.49673e-10
4.26714e-10
4.15335e-10
3.12462e-10
3.0268e-10
2.17339e-10
2.10001e-10
1.54774e-10
1.49735e-10
1.11045e-10
8.32785e-11
8.06684e-11
6.18395e-11
6.01218e-11
4.63367e-11
4.50781e-11
3.48197e-11
3.38805e-11
2.61828e-11
2.54768e-11
1.96739e-11
1.91413e-11
1.4757e-11
1.43545e-11
1.10398e-11
1.07356e-11
8.23097e-12
8.00122e-12
6.11141e-12
5.93822e-12
4.51543e-12
4.3852e-12
3.31711e-12
3.2195e-12
2.42056e-12
2.34767e-12
1.75264e-12
1.69847e-12
1.2576e-12
1.21757e-12
8.92947e-13
8.6356e-13
6.26311e-13
6.04913e-13
4.33083e-13
4.17653e-13
2.94563e-13
2.83556e-13
1.96501e-13
1.8851e-13
1.26254e-13
8.23505e-14
7.83365e-14
5.07899e-14
4.83968e-14
3.06044e-14
2.90838e-14
1.79045e-14
1.69603e-14
1.01573e-14
9.5891e-15
5.58097e-15
5.24959e-15
2.96038e-15
2.77289e-15
1.50342e-15
1.4004e-15
7.16757e-16
6.61858e-16
3.05931e-16
2.77797e-16
1.0152e-16
8.83601e-17
1.63367e-17
1.16184e-17
-3.99282e-18
-4.90837e-18
-5.06918e-18
-5.10568e-18
-5.11383e-18
1.81166e-06
1.48661e-07
6.41e-08
1.03854e-08
5.19277e-09
1.09806e-09
6.8573e-10
3.25461e-10
2.88417e-10
2.16853e-10
1.76507e-10
1.72303e-10
1.43267e-10
1.40456e-10
1.16327e-10
1.1402e-10
9.39824e-11
9.20768e-11
7.56094e-11
7.40494e-11
6.0635e-11
5.93677e-11
4.85122e-11
4.74887e-11
3.8746e-11
3.7923e-11
3.09064e-11
3.02465e-11
2.46295e-11
2.41017e-11
1.96136e-11
1.91921e-11
1.5611e-11
1.52749e-11
1.24207e-11
1.21529e-11
9.88017e-12
9.667e-12
7.85872e-12
7.68916e-12
6.2514e-12
6.11661e-12
4.97411e-12
4.86702e-12
3.9595e-12
3.87443e-12
3.15362e-12
3.08593e-12
2.51274e-12
2.45662e-12
1.98554e-12
1.60265e-12
1.56543e-12
1.27459e-12
1.24709e-12
1.01393e-12
9.91884e-13
8.0324e-13
7.85334e-13
6.31204e-13
6.16492e-13
4.88957e-13
4.76699e-13
3.69518e-13
3.5914e-13
2.6754e-13
2.58691e-13
1.80638e-13
1.73274e-13
1.1006e-13
1.04291e-13
5.6923e-14
5.26715e-14
1.83816e-14
1.5879e-14
2.18997e-15
1.43755e-15
1.3095e-15
1.2806e-15
1.27413e-15
1.63418e-06
2.83938e-07
9.21581e-08
2.11598e-08
7.47887e-09
1.95751e-09
8.65767e-10
3.96129e-10
2.99312e-10
2.23113e-10
1.8116e-10
1.70988e-10
1.45499e-10
1.38966e-10
1.18104e-10
1.12764e-10
9.54581e-11
9.10491e-11
7.68254e-11
7.32158e-11
6.16277e-11
5.86954e-11
4.93168e-11
4.69486e-11
3.93948e-11
3.74902e-11
3.14275e-11
2.99006e-11
2.5047e-11
2.38256e-11
1.99473e-11
1.89719e-11
1.58774e-11
1.50995e-11
1.2633e-11
1.20133e-11
1.00493e-11
9.55597e-12
7.99333e-12
7.60092e-12
6.35845e-12
6.04651e-12
5.05918e-12
4.81135e-12
4.02708e-12
3.8302e-12
3.20722e-12
3.05048e-12
2.55405e-12
2.42298e-12
1.99487e-12
1.63696e-12
1.54928e-12
1.29653e-12
1.23279e-12
1.03122e-12
9.80199e-13
8.17172e-13
7.75732e-13
6.4254e-13
6.08493e-13
4.9829e-13
4.69922e-13
3.77318e-13
3.53306e-13
2.74204e-13
2.53735e-13
1.86389e-13
1.69359e-13
1.14816e-13
1.01471e-13
6.0543e-14
5.07148e-14
2.1248e-14
1.54592e-14
3.50949e-15
1.74475e-15
1.38163e-15
1.29798e-15
1.27923e-15
1.5107e-06
3.72874e-07
1.15384e-07
2.96406e-08
9.43818e-09
2.63961e-09
1.02085e-09
4.51859e-10
3.09373e-10
2.28e-10
1.84541e-10
1.70285e-10
1.46972e-10
1.38048e-10
1.19259e-10
1.11987e-10
9.64171e-11
9.04133e-11
7.76162e-11
7.27008e-11
6.22737e-11
5.82804e-11
4.98407e-11
4.66155e-11
3.98174e-11
3.72235e-11
3.1767e-11
2.96875e-11
2.5319e-11
2.36555e-11
2.01648e-11
1.88363e-11
1.6051e-11
1.49915e-11
1.27715e-11
1.19274e-11
1.01596e-11
9.48766e-12
8.08107e-12
7.54662e-12
6.42823e-12
6.00339e-12
5.11464e-12
4.7771e-12
4.07113e-12
3.80299e-12
3.24214e-12
3.0286e-12
2.58072e-12
2.40119e-12
2.00138e-12
1.66045e-12
1.53972e-12
1.3109e-12
1.224e-12
1.04247e-12
9.72987e-13
8.26233e-13
7.69795e-13
6.49906e-13
6.03535e-13
5.04346e-13
4.65712e-13
3.82371e-13
3.49673e-13
2.78521e-13
2.50653e-13
1.90126e-13
1.66944e-13
1.17923e-13
9.9753e-14
6.29186e-14
4.95433e-14
2.3167e-14
1.52856e-14
4.4215e-15
1.99583e-15
1.44254e-15
1.31274e-15
1.28356e-15
1.43274e-06
4.26593e-07
1.31737e-07
3.54985e-08
1.08607e-08
3.11425e-09
1.13385e-09
4.90491e-10
3.16975e-10
2.31364e-10
1.8675e-10
1.69941e-10
1.47867e-10
1.37523e-10
1.19952e-10
1.1154e-10
9.69923e-11
9.00481e-11
7.80908e-11
7.24054e-11
6.26616e-11
5.80427e-11
5.01553e-11
4.64247e-11
4.00712e-11
3.70709e-11
3.1971e-11
2.95655e-11
2.54824e-11
2.35582e-11
2.02955e-11
1.87588e-11
1.61553e-11
1.49298e-11
1.28547e-11
1.18783e-11
1.02258e-11
9.44861e-12
8.13382e-12
7.5156e-12
6.47018e-12
5.97874e-12
5.14799e-12
4.75753e-12
4.09761e-12
3.78744e-12
3.26314e-12
3.01606e-12
2.59662e-12
2.38819e-12
2.00551e-12
1.67511e-12
1.53446e-12
1.31958e-12
1.21898e-12
1.04924e-12
9.68854e-13
8.31672e-13
7.66386e-13
6.54323e-13
6.00684e-13
5.07973e-13
4.63284e-13
3.85394e-13
3.47574e-13
2.81102e-13
2.48874e-13
1.92367e-13
1.6556e-13
1.19795e-13
9.87806e-14
6.43548e-14
4.88912e-14
2.43457e-14
1.5231e-14
4.99582e-15
2.17192e-15
1.48647e-15
1.32345e-15
1.2867e-15
1.39502e-06
4.51856e-07
1.40142e-07
3.84908e-08
1.16069e-08
3.35792e-09
1.19323e-09
5.10284e-10
3.21043e-10
2.33081e-10
1.87843e-10
1.69805e-10
1.4829e-10
1.37286e-10
1.20277e-10
1.11336e-10
9.72618e-11
8.98821e-11
7.83133e-11
7.22712e-11
6.28435e-11
5.79348e-11
5.03029e-11
4.63382e-11
4.01903e-11
3.70017e-11
3.20667e-11
2.95103e-11
2.55592e-11
2.35141e-11
2.03568e-11
1.87237e-11
1.62043e-11
1.49018e-11
1.28937e-11
1.1856e-11
1.02569e-11
9.43092e-12
8.15858e-12
7.50154e-12
6.48987e-12
5.96758e-12
5.16364e-12
4.74867e-12
4.11005e-12
3.78039e-12
3.27299e-12
3.01036e-12
2.60404e-12
2.38212e-12
2.00752e-12
1.68216e-12
1.53215e-12
1.32366e-12
1.21671e-12
1.05241e-12
9.66978e-13
8.34222e-13
7.64837e-13
6.56392e-13
5.99386e-13
5.09671e-13
4.62177e-13
3.86808e-13
3.46615e-13
2.8231e-13
2.48062e-13
1.93417e-13
1.64932e-13
1.20674e-13
9.83431e-14
6.50313e-14
4.86015e-14
2.49067e-14
1.52209e-14
5.27348e-15
2.26236e-15
1.50943e-15
1.32908e-15
1.28835e-15
1.39502e-06
4.51856e-07
1.40142e-07
3.84906e-08
1.16068e-08
3.35789e-09
1.19322e-09
5.10278e-10
3.21041e-10
2.3308e-10
1.87842e-10
1.69805e-10
1.4829e-10
1.37286e-10
1.20277e-10
1.11336e-10
9.72618e-11
8.98821e-11
7.83133e-11
7.22712e-11
6.28435e-11
5.79348e-11
5.03029e-11
4.63382e-11
4.01903e-11
3.70017e-11
3.20667e-11
2.95103e-11
2.55592e-11
2.35141e-11
2.03568e-11
1.87237e-11
1.62043e-11
1.49018e-11
1.28937e-11
1.1856e-11
1.02569e-11
9.43092e-12
8.15858e-12
7.50154e-12
6.48987e-12
5.96758e-12
5.16364e-12
4.74867e-12
4.11005e-12
3.78039e-12
3.27299e-12
3.01036e-12
2.60404e-12
2.38212e-12
2.00752e-12
1.68216e-12
1.53215e-12
1.32366e-12
1.21671e-12
1.05241e-12
9.66978e-13
8.34222e-13
7.64837e-13
6.56392e-13
5.99386e-13
5.09671e-13
4.62177e-13
3.86808e-13
3.46615e-13
2.8231e-13
2.48062e-13
1.93417e-13
1.64932e-13
1.20674e-13
9.83431e-14
6.50313e-14
4.86014e-14
2.49067e-14
1.52209e-14
5.27347e-15
2.26235e-15
1.50943e-15
1.32908e-15
1.28835e-15
1.43274e-06
4.26593e-07
1.31736e-07
3.54981e-08
1.08605e-08
3.11415e-09
1.1338e-09
4.90475e-10
3.16969e-10
2.31362e-10
1.8675e-10
1.69941e-10
1.47867e-10
1.37523e-10
1.19953e-10
1.1154e-10
9.69923e-11
9.00482e-11
7.80908e-11
7.24054e-11
6.26616e-11
5.80427e-11
5.01554e-11
4.64248e-11
4.00712e-11
3.70709e-11
3.1971e-11
2.95655e-11
2.54825e-11
2.35582e-11
2.02955e-11
1.87588e-11
1.61553e-11
1.49298e-11
1.28547e-11
1.18783e-11
1.02258e-11
9.44861e-12
8.13383e-12
7.5156e-12
6.47018e-12
5.97875e-12
5.14799e-12
4.75753e-12
4.09762e-12
3.78744e-12
3.26314e-12
3.01606e-12
2.59662e-12
2.38819e-12
2.00551e-12
1.67511e-12
1.53446e-12
1.31958e-12
1.21899e-12
1.04924e-12
9.68854e-13
8.31673e-13
7.66387e-13
6.54323e-13
6.00684e-13
5.07973e-13
4.63284e-13
3.85394e-13
3.47574e-13
2.81102e-13
2.48874e-13
1.92367e-13
1.6556e-13
1.19795e-13
9.87805e-14
6.43547e-14
4.88911e-14
2.43457e-14
1.5231e-14
4.99578e-15
2.1719e-15
1.48646e-15
1.32345e-15
1.2867e-15
1.5107e-06
3.72874e-07
1.15383e-07
2.96401e-08
9.43791e-09
2.63947e-09
1.0208e-09
4.51838e-10
3.09365e-10
2.27998e-10
1.8454e-10
1.70285e-10
1.46972e-10
1.38048e-10
1.1926e-10
1.11987e-10
9.64172e-11
9.04133e-11
7.76163e-11
7.27008e-11
6.22737e-11
5.82805e-11
4.98407e-11
4.66155e-11
3.98174e-11
3.72236e-11
3.1767e-11
2.96875e-11
2.5319e-11
2.36555e-11
2.01648e-11
1.88363e-11
1.6051e-11
1.49915e-11
1.27715e-11
1.19274e-11
1.01596e-11
9.48766e-12
8.08108e-12
7.54663e-12
6.42823e-12
6.00339e-12
5.11465e-12
4.7771e-12
4.07113e-12
3.80299e-12
3.24215e-12
3.0286e-12
2.58072e-12
2.40119e-12
2.00138e-12
1.66045e-12
1.53972e-12
1.3109e-12
1.22401e-12
1.04248e-12
9.72987e-13
8.26234e-13
7.69795e-13
6.49906e-13
6.03536e-13
5.04346e-13
4.65712e-13
3.82372e-13
3.49673e-13
2.78521e-13
2.50653e-13
1.90126e-13
1.66944e-13
1.17923e-13
9.97529e-14
6.29185e-14
4.95432e-14
2.31669e-14
1.52855e-14
4.42146e-15
1.9958e-15
1.44253e-15
1.31274e-15
1.28355e-15
1.63418e-06
2.83938e-07
9.21576e-08
2.11594e-08
7.47863e-09
1.9574e-09
8.65719e-10
3.96111e-10
2.99306e-10
2.23111e-10
1.8116e-10
1.70988e-10
1.45499e-10
1.38966e-10
1.18104e-10
1.12765e-10
9.54581e-11
9.10491e-11
7.68254e-11
7.32158e-11
6.16277e-11
5.86954e-11
4.93169e-11
4.69486e-11
3.93948e-11
3.74903e-11
3.14276e-11
2.99006e-11
2.5047e-11
2.38256e-11
1.99473e-11
1.89719e-11
1.58774e-11
1.50995e-11
1.26331e-11
1.20133e-11
1.00493e-11
9.55598e-12
7.99334e-12
7.60092e-12
6.35845e-12
6.04652e-12
5.05919e-12
4.81135e-12
4.02708e-12
3.8302e-12
3.20722e-12
3.05048e-12
2.55405e-12
2.42298e-12
1.99487e-12
1.63696e-12
1.54928e-12
1.29653e-12
1.2328e-12
1.03122e-12
9.80199e-13
8.17172e-13
7.75733e-13
6.42541e-13
6.08493e-13
4.98291e-13
4.69922e-13
3.77318e-13
3.53306e-13
2.74204e-13
2.53735e-13
1.86389e-13
1.69359e-13
1.14816e-13
1.01471e-13
6.0543e-14
5.07148e-14
2.12479e-14
1.54591e-14
3.50945e-15
1.74473e-15
1.38162e-15
1.29797e-15
1.27922e-15
1.81166e-06
1.48661e-07
6.40998e-08
1.03853e-08
5.19268e-09
1.09802e-09
6.8571e-10
3.25454e-10
2.88414e-10
2.16852e-10
1.76506e-10
1.72303e-10
1.43267e-10
1.40456e-10
1.16327e-10
1.1402e-10
9.39824e-11
9.20768e-11
7.56094e-11
7.40494e-11
6.0635e-11
5.93677e-11
4.85122e-11
4.74887e-11
3.8746e-11
3.7923e-11
3.09064e-11
3.02465e-11
2.46296e-11
2.41017e-11
1.96136e-11
1.91921e-11
1.5611e-11
1.52749e-11
1.24207e-11
1.21529e-11
9.88018e-12
9.667e-12
7.85873e-12
7.68916e-12
6.2514e-12
6.11661e-12
4.97411e-12
4.86702e-12
3.9595e-12
3.87443e-12
3.15362e-12
3.08593e-12
2.51274e-12
2.45663e-12
1.98554e-12
1.60265e-12
1.56543e-12
1.27459e-12
1.24709e-12
1.01393e-12
9.91884e-13
8.0324e-13
7.85334e-13
6.31204e-13
6.16492e-13
4.88958e-13
4.76699e-13
3.69518e-13
3.5914e-13
2.6754e-13
2.58691e-13
1.80638e-13
1.73274e-13
1.1006e-13
1.04291e-13
5.69229e-14
5.26714e-14
1.83816e-14
1.5879e-14
2.18995e-15
1.43754e-15
1.3095e-15
1.28059e-15
1.27413e-15
1.81241e-06
1.4875e-07
6.41541e-08
1.03878e-08
5.19139e-09
1.09285e-09
6.80232e-10
3.20344e-10
2.83348e-10
2.12494e-10
1.72828e-10
1.68693e-10
1.40232e-10
1.37476e-10
1.1384e-10
1.1158e-10
9.1957e-11
9.00911e-11
7.39682e-11
7.24409e-11
5.93101e-11
5.80698e-11
4.7446e-11
4.64445e-11
3.78902e-11
3.70849e-11
3.02208e-11
2.95754e-11
2.40814e-11
2.35651e-11
1.91759e-11
1.87637e-11
1.5262e-11
1.49334e-11
1.21428e-11
1.18809e-11
9.65908e-12
9.45068e-12
7.68299e-12
7.51724e-12
6.11182e-12
5.98006e-12
4.8633e-12
4.75862e-12
3.87156e-12
3.78841e-12
3.08386e-12
3.01769e-12
2.45742e-12
2.40256e-12
1.94208e-12
1.56779e-12
1.53141e-12
1.24709e-12
1.22021e-12
9.92259e-13
9.70709e-13
7.86266e-13
7.68758e-13
6.18042e-13
6.03654e-13
4.78923e-13
4.66932e-13
3.62078e-13
3.51924e-13
2.62274e-13
2.53611e-13
1.77166e-13
1.69951e-13
1.07991e-13
1.02335e-13
5.58808e-14
5.17097e-14
1.80474e-14
1.55906e-14
2.1497e-15
1.41094e-15
1.28521e-15
1.25683e-15
1.25048e-15
1.63486e-06
2.8408e-07
9.22208e-08
2.1169e-08
7.47884e-09
1.95297e-09
8.60464e-10
3.91027e-10
2.94314e-10
2.18754e-10
1.77425e-10
1.67413e-10
1.42422e-10
1.36018e-10
1.15581e-10
1.10351e-10
9.34023e-11
8.9085e-11
7.51588e-11
7.1625e-11
6.02819e-11
5.74118e-11
4.82335e-11
4.5916e-11
3.8525e-11
3.66616e-11
3.07307e-11
2.9237e-11
2.44897e-11
2.32951e-11
1.95023e-11
1.85484e-11
1.55225e-11
1.47619e-11
1.23504e-11
1.17445e-11
9.82445e-12
9.34216e-12
7.81458e-12
7.43098e-12
6.21646e-12
5.91155e-12
4.94646e-12
4.70421e-12
3.93762e-12
3.74518e-12
3.13625e-12
2.98304e-12
2.49779e-12
2.36967e-12
1.9512e-12
1.60134e-12
1.51562e-12
1.26854e-12
1.20623e-12
1.00916e-12
9.59283e-13
7.99887e-13
7.59368e-13
6.29127e-13
5.9583e-13
4.8805e-13
4.60302e-13
3.69708e-13
3.46213e-13
2.68795e-13
2.48756e-13
1.82797e-13
1.66113e-13
1.12652e-13
9.95683e-14
5.94302e-14
4.97878e-14
2.08611e-14
1.51782e-14
3.44526e-15
1.71256e-15
1.35603e-15
1.27389e-15
1.25549e-15
1.51133e-06
3.73051e-07
1.15454e-07
2.96549e-08
9.43931e-09
2.63557e-09
1.01571e-09
4.46776e-10
3.04425e-10
2.23641e-10
1.80768e-10
1.66731e-10
1.43867e-10
1.3512e-10
1.16713e-10
1.0959e-10
9.43416e-11
8.84626e-11
7.59331e-11
7.1121e-11
6.09143e-11
5.70058e-11
4.87462e-11
4.55902e-11
3.89385e-11
3.64008e-11
3.10628e-11
2.90286e-11
2.47557e-11
2.31288e-11
1.9715e-11
1.84159e-11
1.56923e-11
1.46563e-11
1.24857e-11
1.16605e-11
9.93223e-12
9.27538e-12
7.90035e-12
7.37791e-12
6.28467e-12
5.86939e-12
5.00067e-12
4.67073e-12
3.98068e-12
3.71858e-12
3.17038e-12
2.96165e-12
2.52386e-12
2.34838e-12
1.95757e-12
1.6243e-12
1.50627e-12
1.28259e-12
1.19764e-12
1.02017e-12
9.52232e-13
8.08747e-13
7.53562e-13
6.36329e-13
5.90981e-13
4.93972e-13
4.56182e-13
3.74651e-13
3.42656e-13
2.73018e-13
2.45735e-13
1.86456e-13
1.63744e-13
1.15697e-13
9.78829e-14
6.17592e-14
4.86368e-14
2.27447e-14
1.50076e-14
4.34071e-15
1.95908e-15
1.41584e-15
1.28839e-15
1.25974e-15
1.43334e-06
4.26791e-07
1.31812e-07
3.55161e-08
1.08627e-08
3.11056e-09
1.12881e-09
4.85425e-10
3.12058e-10
2.27006e-10
1.82953e-10
1.66399e-10
1.44745e-10
1.34606e-10
1.17392e-10
1.09152e-10
9.4905e-11
8.81051e-11
7.63979e-11
7.08319e-11
6.1294e-11
5.67732e-11
4.90542e-11
4.54036e-11
3.91869e-11
3.62515e-11
3.12624e-11
2.89093e-11
2.49156e-11
2.30337e-11
1.98428e-11
1.83401e-11
1.57943e-11
1.4596e-11
1.25671e-11
1.16125e-11
9.99703e-12
9.23721e-12
7.95192e-12
7.34759e-12
6.32568e-12
5.84531e-12
5.03326e-12
4.6516e-12
4.00657e-12
3.70338e-12
3.1909e-12
2.94939e-12
2.53941e-12
2.33567e-12
1.9616e-12
1.63863e-12
1.50114e-12
1.29107e-12
1.19273e-12
1.02678e-12
9.48191e-13
8.14064e-13
7.50229e-13
6.40647e-13
5.88192e-13
4.97519e-13
4.53806e-13
3.77608e-13
3.40601e-13
2.75544e-13
2.43992e-13
1.88651e-13
1.62387e-13
1.1753e-13
9.69288e-14
6.31672e-14
4.7996e-14
2.39017e-14
1.49539e-14
4.90459e-15
2.13197e-15
1.45896e-15
1.29891e-15
1.26283e-15
1.3956e-06
4.52064e-07
1.40221e-07
3.85101e-08
1.16093e-08
3.35442e-09
1.18825e-09
5.05226e-10
3.16142e-10
2.28723e-10
1.84035e-10
1.66269e-10
1.45161e-10
1.34373e-10
1.17711e-10
1.08953e-10
9.5169e-11
8.79426e-11
7.66157e-11
7.07006e-11
6.14721e-11
5.66676e-11
4.91987e-11
4.53189e-11
3.93035e-11
3.61838e-11
3.1356e-11
2.88553e-11
2.49907e-11
2.29906e-11
1.99028e-11
1.83058e-11
1.58422e-11
1.45687e-11
1.26053e-11
1.15907e-11
1.00274e-11
9.21992e-12
7.97613e-12
7.33385e-12
6.34493e-12
5.8344e-12
5.04856e-12
4.64294e-12
4.01872e-12
3.69649e-12
3.20053e-12
2.94382e-12
2.54666e-12
2.32974e-12
1.96356e-12
1.64552e-12
1.49888e-12
1.29507e-12
1.19051e-12
1.02988e-12
9.46356e-13
8.16557e-13
7.48714e-13
6.42671e-13
5.86922e-13
4.99179e-13
4.52723e-13
3.7899e-13
3.39662e-13
2.76726e-13
2.43197e-13
1.89678e-13
1.61771e-13
1.18392e-13
9.64994e-14
6.38304e-14
4.77113e-14
2.44523e-14
1.49439e-14
5.17721e-15
2.22077e-15
1.48151e-15
1.30443e-15
1.26445e-15
1.3956e-06
4.52064e-07
1.4022e-07
3.851e-08
1.16092e-08
3.35438e-09
1.18824e-09
5.0522e-10
3.1614e-10
2.28722e-10
1.84034e-10
1.66269e-10
1.45161e-10
1.34373e-10
1.17711e-10
1.08953e-10
9.5169e-11
8.79426e-11
7.66157e-11
7.07006e-11
6.14721e-11
5.66676e-11
4.91987e-11
4.53189e-11
3.93035e-11
3.61838e-11
3.1356e-11
2.88553e-11
2.49907e-11
2.29906e-11
1.99028e-11
1.83058e-11
1.58422e-11
1.45687e-11
1.26053e-11
1.15907e-11
1.00274e-11
9.21992e-12
7.97613e-12
7.33385e-12
6.34493e-12
5.8344e-12
5.04856e-12
4.64294e-12
4.01872e-12
3.69649e-12
3.20053e-12
2.94382e-12
2.54666e-12
2.32974e-12
1.96356e-12
1.64552e-12
1.49888e-12
1.29507e-12
1.19051e-12
1.02988e-12
9.46356e-13
8.16557e-13
7.48714e-13
6.42671e-13
5.86923e-13
4.99179e-13
4.52723e-13
3.7899e-13
3.39662e-13
2.76726e-13
2.43197e-13
1.89678e-13
1.61771e-13
1.18392e-13
9.64994e-14
6.38304e-14
4.77113e-14
2.44523e-14
1.49439e-14
5.1772e-15
2.22076e-15
1.48151e-15
1.30443e-15
1.26445e-15
1.43334e-06
4.26791e-07
1.31812e-07
3.55158e-08
1.08625e-08
3.11046e-09
1.12877e-09
4.85409e-10
3.12053e-10
2.27004e-10
1.82953e-10
1.66399e-10
1.44745e-10
1.34606e-10
1.17392e-10
1.09152e-10
9.49051e-11
8.81052e-11
7.63979e-11
7.08319e-11
6.12941e-11
5.67732e-11
4.90542e-11
4.54036e-11
3.91869e-11
3.62515e-11
3.12624e-11
2.89093e-11
2.49156e-11
2.30337e-11
1.98428e-11
1.83401e-11
1.57943e-11
1.4596e-11
1.25671e-11
1.16125e-11
9.99703e-12
9.23721e-12
7.95193e-12
7.34759e-12
6.32568e-12
5.84531e-12
5.03327e-12
4.65161e-12
4.00657e-12
3.70338e-12
3.1909e-12
2.94939e-12
2.53941e-12
2.33567e-12
1.9616e-12
1.63863e-12
1.50114e-12
1.29108e-12
1.19273e-12
1.02678e-12
9.48191e-13
8.14064e-13
7.50229e-13
6.40647e-13
5.88192e-13
4.97519e-13
4.53806e-13
3.77608e-13
3.40601e-13
2.75544e-13
2.43992e-13
1.88651e-13
1.62387e-13
1.1753e-13
9.69287e-14
6.31671e-14
4.79959e-14
2.39017e-14
1.49538e-14
4.90456e-15
2.13195e-15
1.45895e-15
1.2989e-15
1.26282e-15
1.51133e-06
3.73051e-07
1.15453e-07
2.96544e-08
9.43904e-09
2.63544e-09
1.01565e-09
4.46756e-10
3.04417e-10
2.23639e-10
1.80767e-10
1.66731e-10
1.43867e-10
1.3512e-10
1.16713e-10
1.0959e-10
9.43417e-11
8.84626e-11
7.59332e-11
7.11211e-11
6.09144e-11
5.70059e-11
4.87463e-11
4.55902e-11
3.89385e-11
3.64008e-11
3.10628e-11
2.90286e-11
2.47558e-11
2.31288e-11
1.9715e-11
1.84159e-11
1.56923e-11
1.46563e-11
1.24858e-11
1.16605e-11
9.93224e-12
9.27538e-12
7.90036e-12
7.37792e-12
6.28467e-12
5.8694e-12
5.00067e-12
4.67073e-12
3.98068e-12
3.71858e-12
3.17038e-12
2.96165e-12
2.52386e-12
2.34838e-12
1.95757e-12
1.6243e-12
1.50628e-12
1.28259e-12
1.19764e-12
1.02017e-12
9.52232e-13
8.08747e-13
7.53562e-13
6.36329e-13
5.90982e-13
4.93972e-13
4.56182e-13
3.74651e-13
3.42656e-13
2.73019e-13
2.45735e-13
1.86456e-13
1.63744e-13
1.15697e-13
9.78829e-14
6.17591e-14
4.86367e-14
2.27447e-14
1.50075e-14
4.34067e-15
1.95905e-15
1.41582e-15
1.28839e-15
1.25973e-15
1.63486e-06
2.8408e-07
9.22203e-08
2.11686e-08
7.4786e-09
1.95285e-09
8.60416e-10
3.91009e-10
2.94308e-10
2.18752e-10
1.77425e-10
1.67413e-10
1.42422e-10
1.36018e-10
1.15581e-10
1.10351e-10
9.34024e-11
8.9085e-11
7.51588e-11
7.16251e-11
6.0282e-11
5.74119e-11
4.82336e-11
4.59161e-11
3.85251e-11
3.66617e-11
3.07307e-11
2.9237e-11
2.44897e-11
2.32951e-11
1.95023e-11
1.85484e-11
1.55225e-11
1.47619e-11
1.23504e-11
1.17445e-11
9.82446e-12
9.34216e-12
7.81459e-12
7.43099e-12
6.21647e-12
5.91155e-12
4.94646e-12
4.70421e-12
3.93762e-12
3.74518e-12
3.13625e-12
2.98304e-12
2.49779e-12
2.36967e-12
1.95121e-12
1.60134e-12
1.51562e-12
1.26854e-12
1.20624e-12
1.00916e-12
9.59284e-13
7.99887e-13
7.59368e-13
6.29127e-13
5.95831e-13
4.8805e-13
4.60302e-13
3.69708e-13
3.46213e-13
2.68795e-13
2.48756e-13
1.82797e-13
1.66112e-13
1.12652e-13
9.95682e-14
5.94301e-14
4.97877e-14
2.0861e-14
1.51781e-14
3.44522e-15
1.71254e-15
1.35602e-15
1.27389e-15
1.25548e-15
1.81241e-06
1.4875e-07
6.41539e-08
1.03876e-08
5.1913e-09
1.09281e-09
6.80213e-10
3.20337e-10
2.83345e-10
2.12493e-10
1.72828e-10
1.68693e-10
1.40232e-10
1.37476e-10
1.1384e-10
1.1158e-10
9.19571e-11
9.00911e-11
7.39682e-11
7.24409e-11
5.93101e-11
5.80698e-11
4.7446e-11
4.64445e-11
3.78902e-11
3.70849e-11
3.02208e-11
2.95754e-11
2.40814e-11
2.35651e-11
1.91759e-11
1.87637e-11
1.5262e-11
1.49334e-11
1.21428e-11
1.1881e-11
9.65909e-12
9.45069e-12
7.68299e-12
7.51724e-12
6.11182e-12
5.98007e-12
4.8633e-12
4.75862e-12
3.87156e-12
3.78841e-12
3.08386e-12
3.01769e-12
2.45742e-12
2.40257e-12
1.94208e-12
1.56779e-12
1.53141e-12
1.24709e-12
1.22021e-12
9.92259e-13
9.70709e-13
7.86266e-13
7.68758e-13
6.18042e-13
6.03654e-13
4.78923e-13
4.66932e-13
3.62078e-13
3.51924e-13
2.62274e-13
2.53611e-13
1.77166e-13
1.69951e-13
1.07991e-13
1.02335e-13
5.58808e-14
5.17096e-14
1.80474e-14
1.55906e-14
2.14968e-15
1.41093e-15
1.28521e-15
1.25683e-15
1.25048e-15
5.42363e-10
4.20014e-10
4.08744e-10
3.07399e-10
2.97762e-10
2.13692e-10
2.06468e-10
1.52139e-10
1.47183e-10
1.09133e-10
8.18339e-11
7.92679e-11
6.07599e-11
5.90715e-11
4.55235e-11
4.42866e-11
3.42058e-11
3.32829e-11
2.57192e-11
2.50256e-11
1.93243e-11
1.8801e-11
1.44937e-11
1.40983e-11
1.08422e-11
1.05433e-11
8.08309e-12
7.85743e-12
6.00123e-12
5.83112e-12
4.43374e-12
4.30584e-12
3.2569e-12
3.16103e-12
2.37647e-12
2.30489e-12
1.72061e-12
1.66742e-12
1.23454e-12
1.19524e-12
8.76519e-13
8.47667e-13
6.14751e-13
5.93744e-13
4.25064e-13
4.09918e-13