/*--------------------------------*- C++ -*----------------------------------*\
| =========                 |                                                 |
| \\      /  F ield         | OpenFOAM: The Open Source CFD Toolbox           |
|  \\    /   O peration     | Version:  5.x                                   |
|   \\  /    A nd           | Web:      www.OpenFOAM.org                      |
|    \\/     M anipulation  |                                                 |
\*---------------------------------------------------------------------------*/
FoamFile
{
    version     2.0;
    format      ascii;
    class       volScalarField;
    location    "16.6";
    object      gradTy;
}
// * * * * * * * * * * * * * * * * * * * * * * * * * * * * * * * * * * * * * //

dimensions      [0 -1 0 1 0 0 0];

internalField   nonuniform List<scalar> 
6300
(
997.017
991.177
985.712
980.867
976.879
973.972
972.351
972.197
973.659
976.843
981.809
988.559
997.033
1007.11
1018.62
-0.188252
-0.562468
-0.92957
-1.284
-1.61901
-1.92639
-2.19629
-2.41738
-2.5774
-2.6642
-2.66728
-2.57978
-2.40048
-2.13538
-1.79816
-0.316307
-0.94538
-1.56341
-2.1616
-2.72909
-3.25233
-3.71473
-4.0968
-4.37695
-4.5332
-4.54591
-4.40138
-4.09589
-3.63892
-3.0545
-0.44789
-1.33933
-2.21708
-3.06991
-3.88343
-4.63911
-5.3135
-5.87814
-6.30041
-6.54576
-6.58177
-6.38396
-5.94276
-5.2699
-4.40165
-0.583817
-1.74694
-2.89567
-4.01749
-5.09559
-6.10714
-7.02197
-7.80181
-8.40073
-8.76761
-8.85141
-8.60989
-8.02124
-7.09621
-5.88585
-0.724256
-2.16896
-3.60114
-5.0088
-6.37427
-7.67187
-8.86542
-9.90638
-10.7331
-11.2725
-11.4463
-11.1829
-10.4361
-9.20784
-7.5665
-0.868499
-2.60347
-4.33112
-6.04224
-7.72081
-9.34059
-10.8614
-12.2251
-13.3526
-14.143
-14.4784
-14.2393
-13.3323
-11.7325
-9.52496
-1.01476
-3.0453
-5.07761
-7.10821
-9.12607
-11.1082
-13.0144
-14.7801
-16.3093
-17.4682
-18.085
-17.9634
-16.9213
-14.8647
-11.8823
-1.15998
-3.48535
-5.82577
-8.1869
-10.567
-12.9518
-15.3078
-17.5714
-19.6361
-21.3354
-22.43
-22.6077
-21.5248
-18.9226
-14.8352
-1.29977
-3.91035
-6.55319
-9.2466
-12.003
-14.8243
-17.6934
-20.5617
-23.328
-25.8074
-27.6918
-28.5126
-27.6475
-24.4654
-18.7414
-1.42851
-4.30307
-7.22999
-10.2432
-13.3742
-16.6488
-20.0798
-23.654
-27.3065
-30.8741
-34.017
-36.1031
-36.0871
-32.5502
-24.3527
-1.53972
-4.64339
-7.82045
-11.122
-14.6019
-18.3166
-22.3227
-26.6679
-31.3699
-36.3653
-41.3989
-45.7954
-48.0476
-45.2957
-33.573
-1.62668
-4.91029
-8.28638
-11.8223
-15.5946
-19.6931
-24.2264
-29.3249
-35.1395
-41.818
-49.4177
-57.6317
-65.0118
-67.0119
-52.3622
-1.68336
-5.0847
-8.59242
-12.2863
-16.2608
-20.6348
-25.5646
-31.2657
-38.045
-46.3491
-56.822
-70.3016
-87.3558
-105.378
-103.53
-1.70542
-5.1527
-8.71225
-12.4695
-16.5276
-21.0204
-26.1313
-32.1282
-39.4256
-48.7111
-61.2193
-79.3966
-108.731
-163.613
-289.388
1030.26
1041.51
1053.27
1065.36
1077.63
1089.93
1102.12
1114.06
1125.66
1136.81
1147.45
1157.5
1166.91
1175.65
1183.67
1190.96
1197.5
1203.26
1208.25
1212.46
1215.88
1218.52
1220.38
1221.46
1221.78
1221.33
1220.13
1218.2
1215.53
1212.14
1208.05
1203.26
1197.79
1191.64
1184.84
1177.38
1169.29
1160.57
1151.22
1141.28
1130.73
1119.6
1107.9
1095.64
1082.82
1069.47
1055.6
1041.22
1026.33
1010.95
995.091
978.758
961.963
944.712
927.017
908.887
890.333
871.368
852.006
832.262
812.151
791.691
770.9
749.795
728.396
706.723
684.797
662.64
640.279
617.741
595.059
572.27
549.414
526.536
503.687
480.92
458.292
435.862
413.69
391.837
370.363
349.324
328.777
308.772
289.354
270.564
252.435
234.991
218.248
202.215
-1.4415
-1.0966
-0.745334
-0.400906
-0.0743671
0.226061
0.495157
0.730486
0.931927
1.10107
1.24063
1.35388
1.44431
1.51523
1.56969
1.61033
1.63939
1.65874
1.6699
1.67413
1.67248
1.66583
1.65491
1.64037
1.6228
1.60272
1.58064
1.55705
1.53242
1.5072
1.48182
1.45662
1.43186
1.40769
1.38413
1.36107
1.33829
1.31548
1.29234
1.26859
1.24406
1.21872
1.19271
1.16634
1.14
1.11418
1.08931
1.06574
1.04362
1.02287
1.00318
0.984005
0.964664
0.944402
0.922502
0.898385
0.871681
0.84227
0.810263
0.775951
0.739704
0.701852
0.662561
0.621726
0.578902
0.533285
0.483759
0.428987
0.367562
0.298177
0.219795
0.131799
0.0340966
-0.0728375
-0.187977
-0.309813
-0.436468
-0.565815
-0.695601
-0.823539
-0.947361
-1.06484
-1.17376
-1.27194
-1.3572
-1.42744
-1.48077
-1.51565
-1.53111
-1.52688
-2.43556
-1.83795
-1.23142
-0.639753
-0.0823888
0.426681
0.879092
1.27154
1.60476
1.88238
2.10973
2.29298
2.43836
2.55173
2.63826
2.70241
2.74786
2.77765
2.79423
2.79961
2.79547
2.78319
2.76395
2.7388
2.70865
2.67438
2.6368
2.59672
2.55495
2.51226
2.46939
2.42697
2.38547
2.34517
2.30608
2.26801
2.2305
2.19299
2.15485
2.11554
2.0747
2.03225
1.98843
1.94381
1.89917
1.85543
1.81346
1.77393
1.73718
1.7031
1.67113
1.64027
1.60924
1.57661
1.54103
1.50142
1.45711
1.40792
1.35412
1.29635
1.23542
1.17207
1.10676
1.03942
0.969325
0.89508
0.814662
0.725615
0.625323
0.511329
0.381672
0.235159
0.0715636
-0.108296
-0.302598
-0.508655
-0.723137
-0.942312
-1.16228
-1.37913
-1.58907
-1.78839
-1.97343
-2.14053
-2.28597
-2.40608
-2.4974
-2.55708
-2.58324
-2.57531
-3.48004
-2.59225
-1.69624
-0.829341
-0.0210145
0.708732
1.34921
1.8977
2.3575
2.73586
3.04215
3.2864
3.47832
3.62663
3.73885
3.82118
3.87867
3.91534
3.93444
3.93858
3.92993
3.91031
3.88127
3.84416
3.80021
3.75056
3.69631
3.63859
3.57855
3.51734
3.45608
3.39576
3.33713
3.28065
3.22635
3.17387
3.12248
3.07117
3.01882
2.96447
2.90743
2.84751
2.78509
2.72108
2.65683
2.59391
2.53387
2.47791
2.42668
2.3801
2.33728
2.2966
2.25592
2.21287
2.16518
2.11105
2.0494
1.98003
1.90352
1.82113
1.73444
1.64497
1.55374
1.46092
1.36558
1.26562
1.15785
1.03831
0.902688
0.74692
0.567708
0.36301
0.132351
-0.123054
-0.40038
-0.695451
-1.00313
-1.31774
-1.6335
-1.94475
-2.24613
-2.53254
-2.79898
-3.04034
-3.25127
-3.42618
-3.55962
-3.64682
-3.68447
-3.67146
-4.5963
-3.35826
-2.11899
-0.934417
0.153688
1.11951
1.95198
2.65176
3.22769
3.69331
4.06407
4.35537
4.58123
4.7537
4.88265
4.97593
5.03965
5.07855
5.09639
5.09618
5.08041
5.05122
5.01042
4.9596
4.9002
4.83357
4.76104
4.68403
4.60406
4.52272
4.44165
4.36232
4.28593
4.2132
4.14422
4.07841
4.01458
3.95104
3.88592
3.81749
3.74452
3.66661
3.58426
3.49891
3.41278
3.32848
3.24861
3.17528
3.10971
3.05189
3.00053
2.95312
2.90622
2.856
2.79878
2.73167
2.65301
2.56258
2.46155
2.35226
2.23764
2.12056
2.00315
1.88619
1.76864
1.64755
1.51815
1.37428
1.2092
1.01639
0.790568
0.528366
0.228889
-0.106134
-0.472499
-0.863986
-1.27302
-1.69143
-2.11111
-2.52447
-2.92465
-3.30536
-3.66055
-3.9839
-4.26834
-4.50594
-4.68835
-4.80781
-4.85862
-4.8385
-5.80719
-4.12604
-2.46297
-0.900556
0.504517
1.72238
2.74587
3.58426
4.25682
4.78741
5.20051
5.51864
5.76111
5.9435
6.07789
6.17331
6.23642
6.27218
6.28441
6.27625
6.25032
6.20894
6.15408
6.0875
6.01071
5.92516
5.83232
5.73384
5.63163
5.52784
5.4248
5.32476
5.22959
5.14046
5.05762
4.98022
4.90637
4.83332
4.7579
4.67714
4.58887
4.49221
4.38785
4.27801
4.16622
4.05678
3.95404
3.86161
3.78167
3.71449
3.65822
3.60901
3.56143
3.5093
3.44672
3.36905
3.2737
3.16048
3.0316
2.89119
2.74448
2.59671
2.45203
2.31239
2.17691
2.04156
1.89934
1.7409
1.55571
1.33352
1.0659
0.747488
0.376703
-0.0439889
-0.508353
-1.00716
-1.52933
-2.06322
-2.59773
-3.12311
-3.63112
-4.11484
-4.56791
-4.98342
-5.35278
-5.66509
-5.90764
-6.06761
-6.13484
-6.10481
-7.1357
-4.86764
-2.66187
-0.63995
1.12514
2.60538
3.80659
4.75586
5.49071
6.05106
6.47404
6.79124
7.02784
7.20279
7.32962
7.41761
7.47298
7.50007
7.50222
7.4823
7.44292
7.38647
7.31508
7.23052
7.13428
7.0277
6.91218
6.78949
6.66192
6.53234
6.40411
6.28067
6.165
6.05914
5.96365
5.8774
5.79749
5.71947
5.63804
5.54807
5.44576
5.32938
5.19977
5.06035
4.91672
4.77589
4.64507
4.53039
4.43569
4.36181
4.30618
4.26295
4.22358
4.17807
4.1168
4.03229
3.92048
3.78131
3.61864
3.43956
3.25318
3.06879
2.89399
2.73293
2.5853
2.44579
2.3042
2.14635
1.95579
1.71632
1.41466
1.04229
0.596643
0.0813006
-0.494358
-1.11646
-1.76853
-2.43386
-3.0973
-3.74655
-4.37238
-4.96828
-5.52917
-6.04923
-6.51921
-6.92456
-7.24572
-7.46079
-7.55101
-7.50719
-8.60235
-5.51943
-2.59592
-0.00939867
2.15605
3.89032
5.23034
6.2365
6.97618
7.51286
7.90022
8.18027
8.38373
8.53175
8.63767
8.70927
8.75065
8.76429
8.75224
8.7168
8.66051
8.58598
8.4955
8.39084
8.27322
8.14357
8.00286
7.85268
7.69558
7.53539
7.37701
7.22586
7.08682
6.96338
6.85687
6.76597
6.68638
6.61103
6.53096
6.4373
6.3234
6.18608
6.02634
5.84925
5.66371
5.48105
5.31336
5.17086
5.06023
4.98331
4.93676
4.91181
4.89502
4.87
4.82078
4.73526
4.60708
4.43642
4.2297
3.99888
3.7594
3.52749
3.31653
3.13453
2.98238
2.85336
2.73283
2.59926
2.42663
2.18902
1.86554
1.44294
0.917239
0.293742
-0.413197
-1.18231
-1.98838
-2.80693
-3.61706
-4.40345
-5.15647
-5.87191
-6.54901
-7.18694
-7.77851
-8.30509
-8.73636
-9.03361
-9.16004
-9.09674
-10.2146
-5.94165
-2.04469
1.22742
3.80767
5.74278
7.13466
8.10076
8.75386
9.18963
9.4809
9.67954
9.81946
9.9213
9.99516
10.0444
10.0683
10.0655
10.0359
9.98131
9.90438
9.80845
9.69634
9.56981
9.42952
9.27538
9.10722
8.92585
8.73372
8.53588
8.33956
8.15368
7.98621
7.84331
7.72765
7.6383
7.56922
7.50947
7.44353
7.35572
7.23483
7.07516
6.87794
6.65041
6.4066
6.16475
5.94546
5.76553
5.6363
5.56118
5.53633
5.54898
5.5784
5.59686
5.57708
5.49976
5.35493
5.14351
4.87553
4.57076
4.25477
3.95611
3.69744
3.49321
3.34625
3.24881
3.18028
3.10851
2.99109
2.78545
2.45921
1.99213
1.37873
0.626413
-0.242432
-1.19484
-2.19016
-3.19202
-4.17087
-5.10831
-5.99453
-6.83062
-7.62512
-8.39126
-9.13125
-9.82272
-10.4198
-10.8523
-11.0421
-10.9496
-11.9313
-5.82254
-0.593898
3.46024
6.38777
8.37676
9.65128
10.4149
10.8437
11.0737
11.1942
11.2626
11.3092
11.3503
11.3872
11.4154
11.4233
11.4044
11.3549
11.277
11.1747
11.0533
10.917
10.7677
10.6049
10.4265
10.2297
10.0136
9.77919
9.53325
9.28619
9.05406
8.84934
8.68309
8.55968
8.48055
8.43776
8.41593
8.38672
8.32093
8.20122
8.01747
7.77233
7.47417
7.14584
6.81516
6.52009
6.28641
6.13366
6.06589
6.08115
6.16128
6.27682
6.37806
6.41554
6.36078
6.19795
5.93139
5.57366
5.15815
4.72456
4.32652
3.99936
3.76884
3.63825
3.60209
3.63188
3.68298
3.6821
3.55507
3.25519
2.75158
2.0398
1.12647
0.0482661
-1.14592
-2.38287
-3.61054
-4.78457
-5.88715
-6.90498
-7.84934
-8.74222
-9.63329
-10.5539
-11.4763
-12.3405
-13.0202
-13.3309
-13.1874
-13.53
-4.43639
2.54775
7.31513
10.319
12.039
12.9028
13.2102
13.2187
13.1143
12.9813
12.8757
12.8059
12.7842
12.7908
12.8142
12.816
12.786
12.7136
12.6068
12.4713
12.3184
12.1552
11.9838
11.8013
11.6027
11.3787
11.1265
10.84
10.531
10.21
9.91371
9.6558
9.45991
9.32667
9.26918
9.27486
9.33176
9.38131
9.36256
9.2586
9.04695
8.74186
8.34018
7.88727
7.41312
7.00514
6.6896
6.50753
6.44994
6.53144
6.72152
6.99473
7.25005
7.38575
7.37642
7.18933
6.84957
6.35401
5.77061
5.14222
4.59393
4.16124
3.89971
3.79343
3.85956
4.05201
4.33153
4.55401
4.57286
4.34385
3.81013
2.99044
1.86333
0.505385
-1.03599
-2.58944
-4.1068
-5.50158
-6.78841
-7.92158
-8.94249
-9.86216
-10.833
-11.9744
-13.2135
-14.527
-15.7194
-16.2738
-16.0185
-14.0558
-0.0130613
8.88094
13.7093
16.0994
16.9347
16.9561
16.4368
15.7569
15.1969
14.7298
14.4382
14.2341
14.1779
14.1712
14.2448
14.2553
14.2294
14.1228
13.9786
13.7939
13.5993
13.4062
13.2168
13.0219
12.8166
12.5695
12.2897
11.9342
11.547
11.0994
10.7192
10.374
10.1476
9.98567
9.96796
10.0393
10.2593
10.4754
10.528
10.4721
10.2121
9.85159
9.28106
8.66038
7.91689
7.35815
6.90168
6.7032
6.63474
6.82638
7.16307
7.7394
8.29524
8.56576
8.64897
8.40149
7.99304
7.26177
6.4488
5.44547
4.69579
4.07751
3.80788
3.70116
3.93594
4.34751
5.06293
5.71987
5.94825
5.87195
5.28118
4.38444
2.93328
1.22731
-0.907995
-2.84734
-4.77891
-6.37344
-7.91035
-9.09928
-10.1809
-10.908
-11.7864
-13.2537
-14.8434
-16.8872
-19.3369
-20.3823
-19.8198
-9.25309
11.8246
21.0683
23.614
24.1178
23.0021
21.7875
19.8942
18.122
17.1458
16.225
15.8743
15.4492
15.5003
15.4357
15.766
15.747
15.7888
15.5859
15.4087
15.1305
14.878
14.6515
14.4577
14.2574
14.0905
13.8071
13.5617
13.074
12.65
11.8913
11.4741
10.921
10.7425
10.4368
10.5384
10.5896
11.1922
11.8047
11.8494
11.9796
11.5217
11.2637
10.294
9.61025
8.15452
7.5638
6.74218
6.71154
6.44495
6.91238
7.25944
8.51349
9.75122
10.0154
10.3976
9.84536
9.60131
8.2871
7.40105
5.3834
4.60838
3.4917
3.4814
3.11712
3.75769
4.20543
5.8785
7.50283
7.76232
8.14085
7.19275
6.57678
4.37011
2.56751
-1.06217
-3.1164
-5.93631
-7.32819
-9.53327
-10.4314
-11.9297
-11.7357
-11.8919
-14.3564
-15.8192
-18.6628
-24.9765
-26.8061
-25.2934
21.6315
40.7034
42.9008
36.459
34.4677
29.2111
27.5956
23.1766
19.3403
19.0141
16.8988
17.417
15.9779
16.9884
16.1309
17.7893
17.1506
17.6996
17.0112
16.9833
16.4292
16.1188
15.8487
15.7073
15.4438
15.5314
14.9894
15.1816
14.1214
14.234
12.191
12.4238
10.9281
11.5196
10.3006
11.1806
10.3452
12.11
13.9511
13.0469
14.3334
12.5429
13.6996
10.8947
11.671
7.14586
8.10128
5.44301
7.05902
5.19751
7.17107
6.04914
9.31047
12.6085
11.2944
13.4913
10.8448
12.75
8.69531
9.98223
3.53137
5.01246
1.31219
3.66419
1.0856
3.85665
2.2984
6.76382
11.2507
9.40451
12.3197
8.62562
11.0593
5.22469
6.53833
-3.48531
-2.28317
-9.15032
-7.11211
-13.0384
-10.8994
-16.1156
-12.0591
-8.67338
-16.9017
-14.8068
-15.4411
-37.0731
-38.0427
-33.7426
188.899
93.8801
77.1732
42.895
49.5194
30.1768
37.4408
25.6202
15.504
23.4588
13.7805
21.7784
12.9794
21.1665
13.2035
23.1206
16.8443
21.3924
17.4857
19.316
17.3771
17.3016
16.8611
17.133
16.125
17.879
15.1149
18.6054
13.4804
18.9225
9.21359
15.8631
7.92966
14.9044
7.1423
14.2933
6.35683
12.9185
20.051
11.0901
21.1182
9.32048
21.8408
6.33863
21.3664
-1.75442
13.8429
-2.01066
12.4146
-1.572
11.8877
-1.47263
10.055
22.1074
7.51808
23.5599
5.29002
24.4813
1.41195
23.7062
-9.74226
12.8781
-9.58219
10.9474
-8.649
10.1901
-8.28235
7.61852
24.1184
4.1906
26.016
1.23476
27.4485
-4.21401
26.8351
-22.0732
10.1701
-25.1877
4.5732
-28.1573
-0.775407
-33.6538
-11.4163
11.2695
-34.3119
-9.86412
18.0173
-78.9228
-56.867
-47.8833
185.357
167.968
151.544
136.035
121.379
107.506
94.3405
81.803
69.8146
58.2965
47.1714
36.3642
25.8015
15.412
5.1259
-1.50118
-1.44771
-1.37248
-1.27996
-1.17486
-1.06161
-0.944012
-0.825079
-0.706965
-0.591036
-0.477981
-0.367938
-0.260626
-0.155463
-0.051665
-2.53013
-2.43699
-2.30665
-2.14724
-1.96716
-1.77418
-1.57485
-1.37423
-1.17586
-0.981877
-0.793295
-0.6102
-0.431992
-0.25759
-0.0855899
-3.60295
-3.46343
-3.26989
-3.03518
-2.77234
-2.49308
-2.20698
-1.92114
-1.64034
-1.36731
-1.10312
-0.847567
-0.599549
-0.357312
-0.118694
-4.7405
-4.54386
-4.27424
-3.95122
-3.5939
-3.21881
-2.8388
-2.46298
-2.09705
-1.74389
-1.40428
-1.07739
-0.761319
-0.45341
-0.150565
-5.96774
-5.6972
-5.33196
-4.9015
-4.43321
-3.94941
-3.46641
-2.99492
-2.54094
-2.10692
-1.6927
-1.2964
-0.914914
-0.54444
-0.180722
-7.31588
-6.94516
-6.45482
-5.88956
-5.28798
-4.67915
-4.08249
-3.50931
-2.96485
-2.4501
-1.96321
-1.50056
-1.05749
-0.628708
-0.2086
-8.82591
-8.31262
-7.65251
-6.91385
-6.14994
-5.39668
-4.67502
-3.99493
-3.35903
-2.7654
-2.20944
-1.68514
-1.18577
-0.704293
-0.23357
-10.5536
-9.82678
-8.92864
-7.96327
-7.00117
-6.08254
-5.22594
-4.43632
-3.71092
-3.04299
-2.42398
-1.84476
-1.29614
-0.76912
-0.254953
-12.5762
-11.5121
-10.2719
-9.00934
-7.80882
-6.70629
-5.70981
-4.81344
-4.00529
-3.27161
-2.59872
-1.97377
-1.38489
-0.821089
-0.27207
-14.9962
-13.3736
-11.6374
-9.99328
-8.5184
-7.22392
-6.09349
-5.10229
-4.22515
-3.4394
-2.72549
-2.06669
-1.44853
-0.858272
-0.284305
-17.9233
-15.3484
-12.9106
-10.8079
-9.04751
-7.57741
-6.33786
-5.27702
-4.35357
-3.53532
-2.79713
-2.11893
-1.48427
-0.879152
-0.291178
-21.3562
-17.1858
-13.8486
-11.2802
-9.28619
-7.70026
-6.40346
-5.31431
-4.37673
-3.55115
-2.80873
-2.1276
-1.49044
-0.882884
-0.29243
-24.6644
-18.1897
-14.0177
-11.1778
-9.11672
-7.53388
-6.26133
-5.19998
-4.28783
-3.48378
-2.75903
-2.09228
-1.46698
-0.869506
-0.288087
-24.5436
-16.8907
-12.8544
-10.2966
-8.46888
-7.05714
-5.90792
-4.93637
-4.09078
-3.33707
-2.65128
-2.0155
-1.41566
-0.840069
-0.278493
-1.69504
-5.12072
-8.65609
-12.3846
-16.4074
-20.8552
-25.9082
-31.8299
-39.0304
-48.1959
-60.5753
-78.6896
-108.282
-164.236
-289.851
-1.65834
-5.0076
-8.45704
-12.082
-15.9722
-20.2409
-25.0388
-30.5764
-37.1591
-45.2461
-55.5323
-68.9995
-86.4979
-105.309
-98.6279
-1.599
-4.82489
-8.13607
-11.5952
-15.2741
-19.2589
-23.6557
-28.5968
-34.2431
-40.7689
-48.2801
-56.5094
-63.8022
-64.0841
-39.7481
-1.5203
-4.58292
-7.71232
-10.9556
-14.3635
-17.9908
-21.8946
-26.1274
-30.7162
-35.6072
-40.5292
-44.6694
-45.9743
-39.9548
-19.1741
-1.42632
-4.29454
-7.20945
-10.2017
-13.3006
-16.5305
-19.9048
-23.4107
-26.9793
-30.4239
-33.3209
-34.7986
-33.2328
-26.076
-10.7997
-1.3215
-3.97372
-6.6528
-9.37384
-12.1465
-14.9699
-17.8234
-20.6503
-23.3283
-25.6205
-27.0981
-27.041
-24.3738
-17.8354
-6.81629
-1.21029
-3.63422
-6.06697
-8.51004
-10.9571
-13.3883
-15.7606
-17.9933
-19.9452
-21.3827
-21.9407
-21.0959
-18.2032
-12.7064
-4.64773
-1.09675
-3.28858
-5.47395
-7.64341
-9.7788
-11.8475
-13.7946
-15.5311
-16.9193
-17.7556
-17.7575
-16.5727
-13.8409
-9.35643
-3.33803
-0.984359
-2.94741
-4.89194
-6.8004
-8.64667
-10.3912
-11.9748
-13.3108
-14.2767
-14.7078
-14.3984
-13.1235
-10.6958
-7.0716
-2.48503
-0.875903
-2.61908
-4.33496
-6.00054
-7.58515
-9.04662
-10.3269
-11.3474
-12.0055
-12.1741
-11.7098
-10.4749
-8.38148
-5.45506
-1.89832
-0.773434
-2.30969
-3.81289
-5.25687
-6.60909
-7.8278
-8.85931
-9.63567
-10.0741
-10.0799
-9.55621
-8.42253
-6.64558
-4.27624
-1.47819
-0.678331
-2.02325
-3.33193
-4.5769
-5.7257
-6.73895
-7.56887
-8.15854
-8.44302
-8.35351
-7.82616
-6.81681
-5.32103
-3.3951
-1.16803
-0.59138
-1.76195
-2.89519
-3.9637
-4.9364
-5.77737
-6.44522
-6.8933
-7.07163
-6.93108
-6.43079
-5.54885
-4.29518
-2.72306
-0.933537
-0.51289
-1.52657
-2.5034
-3.41702
-4.23855
-4.936
-5.47414
-5.81536
-5.92164
-5.75844
-5.30043
-4.53901
-3.49044
-2.202
-0.752896
-0.4428
-1.31677
-2.15548
-2.93426
-3.62685
-4.20522
-4.6398
-4.90052
-4.95876
-4.7905
-4.38073
-3.72856
-2.85228
-1.79248
-0.611619
-0.380785
-1.13145
-1.84918
-2.51134
-3.09446
-3.57427
-3.92618
-4.12628
-4.15313
-3.99025
-3.62933
-3.07374
-2.34153
-1.46703
-0.499766
-0.326342
-0.968996
-1.58146
-2.14329
-2.63378
-3.03212
-3.31795
-3.47233
-3.47924
-3.32751
-3.01311
-2.54154
-1.92959
-1.206
-0.410316
-0.278862
-0.827505
-1.34888
-1.82478
-2.2371
-2.56809
-2.80098
-2.92078
-2.91551
-2.7777
-2.50602
-2.10681
-1.59516
-0.995025
-0.33819
-0.237689
-0.704945
-1.14787
-1.55042
-1.89687
-2.17218
-2.36254
-2.45606
-2.44381
-2.32085
-2.08748
-1.75016
-1.32216
-0.823424
-0.279634
-0.202154
-0.599275
-0.974908
-1.31501
-1.60603
-1.83526
-1.99132
-2.06479
-2.04896
-1.94067
-1.74111
-1.45648
-1.09828
-0.683105
-0.231826
-0.17161
-0.508523
-0.826613
-1.11368
-1.35809
-1.54914
-1.67745
-1.73553
-1.71832
-1.62386
-1.4538
-1.21388
-0.91396
-0.567857
-0.192607
-0.145446
-0.430841
-0.699859
-0.941957
-1.1472
-1.30657
-1.41235
-1.45854
-1.44132
-1.35953
-1.21502
-1.01293
-0.761709
-0.472845
-0.160308
-0.123097
-0.36453
-0.591795
-0.795827
-0.968161
-1.10122
-1.18863
-1.22557
-1.20916
-1.13874
-1.01621
-0.846099
-0.635596
-0.394272
-0.13362
-0.104053
-0.308057
-0.499862
-0.671705
-0.816394
-0.92756
-0.999939
-1.02965
-1.01449
-0.954147
-0.850432
-0.707314
-0.530883
-0.329118
-0.111504
-0.0878583
-0.260054
-0.421789
-0.566438
-0.687901
-0.780832
-0.840876
-0.864893
-0.851183
-0.799669
-0.712014
-0.591661
-0.44376
-0.274969
-0.0931348
-0.0741079
-0.219313
-0.355581
-0.477269
-0.579218
-0.65694
-0.706826
-0.726328
-0.71413
-0.670285
-0.5963
-0.495136
-0.371142
-0.229877
-0.0778448
-0.062448
-0.184778
-0.299494
-0.401807
-0.487355
-0.552376
-0.593874
-0.609773
-0.599048
-0.56183
-0.499455
-0.414462
-0.310516
-0.19226
-0.0650947
-0.0525699
-0.155529
-0.252019
-0.337984
-0.409744
-0.464145
-0.498697
-0.511703
-0.502362
-0.470842
-0.418316
-0.346949
-0.259827
-0.160828
-0.0544445
-0.0442064
-0.13077
-0.211853
-0.284025
-0.344186
-0.389694
-0.418479
-0.429151
-0.421076
-0.394438
-0.350258
-0.290375
-0.217383
-0.134524
-0.0455341
-0.0371268
-0.109817
-0.177874
-0.238405
-0.288803
-0.326854
-0.350839
-0.359614
-0.352678
-0.330214
-0.293104
-0.242903
-0.181791
-0.112475
-0.0380672
-0.0311328
-0.0920799
-0.149121
-0.199821
-0.241991
-0.273781
-0.293759
-0.300986
-0.295062
-0.276161
-0.245038
-0.203007
-0.151896
-0.0939629
-0.0317989
-0.0260545
-0.0770546
-0.124772
-0.16716
-0.202387
-0.228908
-0.245533
-0.251489
-0.246456
-0.230594
-0.204545
-0.169416
-0.126736
-0.0783882
-0.0265262
-0.0217461
-0.064309
-0.104121
-0.139472
-0.168828
-0.190905
-0.204716
-0.209623
-0.205369
-0.192099
-0.170356
-0.141069
-0.105513
-0.0652533
-0.0220801
-0.0180828
-0.0534731
-0.086569
-0.115944
-0.140325
-0.158642
-0.17008
-0.174116
-0.170543
-0.159487
-0.141406
-0.117075
-0.0875539
-0.0541416
-0.0183192
-0.0149578
-0.0442304
-0.0716001
-0.095885
-0.116031
-0.131155
-0.140585
-0.143893
-0.140912
-0.131752
-0.116796
-0.0966851
-0.0722968
-0.0447033
-0.0151251
-0.0122793
-0.0363089
-0.0587729
-0.0786998
-0.0952235
-0.10762
-0.115341
-0.118036
-0.115572
-0.108043
-0.0957641
-0.0792651
-0.0592652
-0.036643
-0.0123975
-0.00996823
-0.0294743
-0.0477074
-0.0638776
-0.0772817
-0.0873327
-0.0935862
-0.0957602
-0.0937491
-0.0876304
-0.0776626
-0.064276
-0.0480543
-0.0297098
-0.0100515
-0.00795591
-0.0235238
-0.0380741
-0.050976
-0.061668
-0.069682
-0.0746641
-0.0763905
-0.0747783
-0.0698907
-0.0619351
-0.0512553
-0.0383173
-0.0236888
-0.00801429
-0.00618242
-0.0182797
-0.0295854
-0.0396089
-0.0479137
-0.0541365
-0.0580026
-0.0593389
-0.0580818
-0.0542812
-0.048099
-0.0398026
-0.029754
-0.0183942
-0.00622292
-0.00459474
-0.0135852
-0.0219869
-0.029435
-0.0356051
-0.0402272
-0.0430976
-0.0440879
-0.0431513
-0.0403254
-0.0357308
-0.0295664
-0.0221013
-0.0136628
-0.00462221
-0.00314527
-0.00929948
-0.0150505
-0.0201485
-0.0243713
-0.0275343
-0.029498
-0.0301747
-0.0295327
-0.0275977
-0.0244525
-0.0202333
-0.0151244
-0.00934964
-0.00316301
-0.00179045
-0.00529375
-0.00856753
-0.0114696
-0.0138735
-0.0156741
-0.0167919
-0.0171772
-0.0168118
-0.0157103
-0.0139199
-0.0115181
-0.00860979
-0.00532243
-0.00180059
-0.000489508
-0.00144737
-0.00234267
-0.00313658
-0.00379458
-0.00428785
-0.00459459
-0.004701
-0.00460196
-0.00430133
-0.00381183
-0.00315462
-0.00235837
-0.00145803
-0.000493278
0.000796744
0.00235555
0.0038118
0.00510203
0.00616994
0.00696884
0.00746365
0.00763255
0.00746786
0.00697653
0.00617979
0.00511233
0.00382076
0.00236164
0.000798897
0.00210708
0.00622967
0.0100815
0.013495
0.0163212
0.0184366
0.0197482
0.0201977
0.0197645
0.0184664
0.0163594
0.0135349
0.0101162
0.00625323
0.00211541
0.00348097
0.0102918
0.0166556
0.0222957
0.0269661
0.0304625
0.0326312
0.0333757
0.0326615
0.030518
0.027037
0.0223699
0.0167202
0.0103356
0.00349649
0.00495981
0.0146642
0.0237322
0.0317696
0.038426
0.0434103
0.046503
0.0475665
0.0465511
0.0434981
0.0385383
0.031887
0.0238345
0.0147337
0.00498436
0.00658805
0.0194786
0.0315244
0.0422023
0.0510469
0.0576714
0.0617838
0.0632006
0.0618553
0.057802
0.0512141
0.0423771
0.0316766
0.0195819
0.0066246
0.00841457
0.0248794
0.0402664
0.0539078
0.0652094
0.0736767
0.0789362
0.0807525
0.0790397
0.0738658
0.0654515
0.0541609
0.0404868
0.025029
0.0084675
0.0104941
0.0310284
0.0502204
0.0672378
0.0813398
0.0919091
0.0984792
0.100755
0.0986272
0.0921796
0.0816858
0.0675997
0.0505356
0.0312423
0.0105697
0.0128887
0.0381096
0.0616843
0.0825919
0.0999229
0.112918
0.121004
0.123814
0.121214
0.113303
0.100414
0.083106
0.062132
0.0384134
0.0129961
0.0156696
0.0463336
0.0750001
0.100429
0.121516
0.137337
0.147191
0.150631
0.147488
0.137881
0.122212
0.101157
0.0756341
0.0467639
0.0158218
0.0189192
0.0559445
0.0905636
0.121282
0.146766
0.165898
0.17783
0.182018
0.178251
0.166668
0.14775
0.122311
0.0914599
0.0565529
0.0191344
0.0227334
0.0672261
0.108835
0.145769
0.176425
0.199459
0.213847
0.218928
0.214442
0.200546
0.177815
0.147223
0.110102
0.0680856
0.0230375
0.0272241
0.0805097
0.130354
0.174615
0.211375
0.239024
0.256326
0.262481
0.257166
0.240559
0.213339
0.176668
0.132142
0.0817235
0.0276534
0.0325219
0.0961828
0.155749
0.208668
0.252652
0.285773
0.306545
0.313998
0.30773
0.287939
0.255425
0.211567
0.158274
0.0978967
0.0331282
0.0387801
0.114699
0.185758
0.248924
0.301472
0.341095
0.36601
0.375041
0.367684
0.344154
0.305387
0.253018
0.189323
0.117119
0.039636
0.0461775
0.13659
0.221248
0.296553
0.359265
0.40663
0.436505
0.447461
0.438868
0.410949
0.364792
0.302333
0.226281
0.140006
0.047386
0.0549236
0.162477
0.263231
0.352926
0.427714
0.484309
0.520135
0.533454
0.523471
0.490405
0.435516
0.361086
0.270336
0.1673
0.0566297
0.0652625
0.193085
0.312891
0.41965
0.508795
0.576408
0.619392
0.635626
0.624101
0.585014
0.519809
0.431169
0.322923
0.199894
0.0676713
0.0774782
0.229258
0.371611
0.498603
0.604826
0.685608
0.737221
0.757071
0.743869
0.697756
0.620374
0.514864
0.385773
0.238871
0.080879
0.0918997
0.271975
0.440995
0.591976
0.71852
0.815061
0.877104
0.901465
0.886487
0.832208
0.740469
0.614933
0.46099
0.285549
0.0967013
0.108907
0.322369
0.522905
0.702315
0.853047
0.968466
1.04315
1.07317
1.05639
0.992669
0.884029
0.734724
0.551135
0.341534
0.115687
0.128934
0.381739
0.619481
0.832567
1.01209
1.15015
1.2402
1.27738
1.25889
1.18431
1.05583
0.87832
0.65934
0.4088
0.138508
0.152478
0.451565
0.733177
0.98612
1.19992
1.36518
1.47396
1.52024
1.50034
1.41339
1.26165
1.05071
0.789457
0.489781
0.165999
0.180098
0.533525
0.866777
1.16685
1.42146
1.61942
1.75112
1.80904
1.78834
1.68745
1.50859
1.25804
0.94625
0.587498
0.199196
0.212416
0.629492
1.02341
1.37914
1.68232
1.91967
2.0795
2.15242
2.13201
2.01566
1.8053
1.50789
1.13565
0.705734
0.239397
0.250119
0.741535
1.20657
1.62793
1.9889
2.27373
2.46824
2.5606
2.54229
2.40915
2.16245
1.8097
1.36509
0.84926
0.288249
0.293948
0.871898
1.42004
1.91864
2.34834
2.6905
2.9279
3.04562
3.0323
2.88149
2.59322
2.17528
1.64399
1.02415
0.347854
0.344684
1.02296
1.6679
2.2572
2.76855
3.18
3.47065
3.62164
3.61776
3.44926
3.11404
2.61957
1.98438
1.23825
0.420934
0.403123
1.19716
1.9544
2.64987
3.25811
3.75339
4.11035
4.30519
4.31751
4.13281
3.74542
3.16157
2.40178
1.50177
0.511061
0.47004
1.3969
2.28378
3.1031
3.8261
4.42281
4.86262
5.11547
5.15407
4.95708
4.51321
3.82574
2.91656
1.82827
0.623
0.546139
1.62439
2.66006
3.62321
4.48177
5.20118
5.74469
6.07449
6.1542
5.95277
5.45013
4.64385
3.55569
2.236
0.763218
0.631978
1.88144
3.0867
4.21594
5.23404
6.10167
6.77512
7.20717
7.34952
7.1576
6.5979
5.65767
4.35559
2.75004
0.94069
0.727878
2.16917
3.5661
4.88583
6.09076
7.13696
7.97317
8.54097
8.77693
8.6178
8.00987
6.92275
5.3662
3.4056
1.16818
0.833818
2.48771
4.09909
5.63541
7.05768
8.31805
9.35758
10.1052
10.4787
10.3896
9.75458
8.51378
6.65738
4.25338
1.46436
0.949298
2.83574
4.6842
6.46415
8.137
9.65244
10.9447
11.9291
12.5015
12.5405
11.9199
10.5323
8.32879
5.36852
1.85754
1.07321
3.21014
5.31685
7.36723
9.3256
11.1418
12.7454
14.0393
14.8946
15.1495
14.6178
13.1173
10.5257
6.86609
2.39243
1.20371
3.60551
5.9886
8.33415
10.6129
12.7788
14.761
16.4538
17.7047
18.3047
17.9885
16.4598
13.4643
8.92893
3.14343
1.33812
4.01385
6.68637
9.34745
11.9784
14.5431
16.9776
19.1753
20.9667
22.0959
22.2011
20.821
17.4721
11.8599
4.24259
1.47286
4.4244
7.39204
10.3816
13.39
16.3979
19.3586
22.1787
24.6883
26.5982
27.4451
26.5491
23.0517
16.1832
5.94441
1.60355
4.82374
8.08246
11.4027
14.8017
18.2854
21.8372
25.3975
28.8264
31.8386
33.8993
34.0838
30.9723
22.8468
8.79209
1.72515
5.19629
8.73014
12.3689
16.1545
20.1255
24.3098
28.7076
33.2537
37.7396
41.6563
43.907
42.3747
33.6276
14.0908
1.83228
5.52528
9.30489
13.2332
17.3785
21.8173
26.634
31.9144
37.7227
44.0357
50.5702
56.357
58.7871
51.9012
25.3926
1.91964
5.79408
9.77636
13.9466
18.3985
23.2466
28.6362
34.7546
41.841
50.1778
60.0029
71.1378
81.6686
83.8015
53.553
1.98259
5.98797
10.1172
14.4645
19.1434
24.2998
30.1321
36.9223
45.0909
55.2861
68.5256
86.3376
110.381
138.188
135.086
2.01761
6.0958
10.3067
14.752
19.5564
24.8837
30.9625
38.1328
46.9331
58.2799
73.8727
97.2093
136.48
214.039
402.084
2.02279
6.11147
10.3332
14.79
19.6063
24.9455
31.0348
38.2112
47.0066
58.3249
73.8415
97.0147
135.991
213.161
401.194
1.99802
6.0347
10.1965
14.5781
19.2931
24.4863
30.3522
37.1651
45.3279
55.4542
68.4928
85.8455
108.976
135.295
131.17
1.94502
5.87101
9.90714
14.1347
18.6478
23.5598
29.0118
35.1813
42.2855
50.5606
60.1478
70.6635
79.7465
78.5688
40.4598
-15.5569
-12.6874
-10.5343
-8.8658
-7.51958
-6.39606
-5.43257
-4.58755
-3.83205
-3.14492
-2.51006
-1.91464
-1.34807
-0.801201
-0.26581
-5.83686
-8.09326
-7.99594
-7.29921
-6.47823
-5.66876
-4.90764
-4.20067
-3.54372
-2.92973
-2.35114
-1.80065
-1.2714
-0.757001
-0.251367
-2.6566
-5.13363
-5.87379
-5.81885
-5.42882
-4.90785
-4.34507
-3.77902
-3.22551
-2.68993
-2.1727
-1.67188
-1.18442
-0.706705
-0.234908
-1.44589
-3.38011
-4.30376
-4.57113
-4.47031
-4.17593
-3.78475
-3.34862
-2.89484
-2.43737
-1.98284
-1.53384
-1.09065
-0.652294
-0.217071
-0.900122
-2.32836
-3.18945
-3.57907
-3.64617
-3.51121
-3.2556
-2.93045
-2.56671
-2.18274
-1.78913
-1.39173
-0.993518
-0.595703
-0.198483
-0.612691
-1.67043
-2.40252
-2.81096
-2.96232
-2.93025
-2.77473
-2.53904
-2.25262
-1.9348
-1.59804
-1.25019
-0.896099
-0.538693
-0.179717
-0.441677
-1.23862
-1.84033
-2.22136
-2.40583
-2.43499
-2.34951
-2.18286
-1.9603
-1.69999
-1.41463
-1.11297
-0.800978
-0.482771
-0.161267
-0.330665
-0.942397
-1.43137
-1.76824
-1.95718
-2.01931
-1.98063
-1.86549
-1.69418
-1.48255
-1.24253
-0.982906
-0.710169
-0.429134
-0.14353
-0.254095
-0.731415
-1.12802
-1.41785
-1.59656
-1.67364
-1.66482
-1.58711
-1.45606
-1.28483
-1.08402
-0.861948
-0.625116
-0.378666
-0.126804
-0.19896
-0.57648
-0.898805
-1.1446
-1.30652
-1.3876
-1.39686
-1.34574
-1.24582
-1.10765
-0.940272
-0.751231
-0.546738
-0.331953
-0.111288
-0.157992
-0.45987
-0.722728
-0.929604
-1.0726
-1.15142
-1.17081
-1.13826
-1.06215
-0.950736
-0.811559
-0.651239
-0.475502
-0.28932
-0.0970981
-0.126817
-0.370352
-0.585523
-0.758953
-0.883252
-0.956493
-0.980838
-0.961003
-0.902974
-0.813096
-0.697523
-0.561947
-0.411517
-0.250878
-0.0842788
-0.102654
-0.300529
-0.477301
-0.622415
-0.729349
-0.795515
-0.821534
-0.810267
-0.765912