/*--------------------------------*- C++ -*----------------------------------*\
| =========                 |                                                 |
| \\      /  F ield         | OpenFOAM: The Open Source CFD Toolbox           |
|  \\    /   O peration     | Version:  5.x                                   |
|   \\  /    A nd           | Web:      www.OpenFOAM.org                      |
|    \\/     M anipulation  |                                                 |
\*---------------------------------------------------------------------------*/
FoamFile
{
    version     2.0;
    format      ascii;
    class       volScalarField;
    location    "5.8";
    object      gradTx;
}
// * * * * * * * * * * * * * * * * * * * * * * * * * * * * * * * * * * * * * //

dimensions      [0 -1 0 1 0 0 0];

internalField   nonuniform List<scalar> 
6300
(
131.882
132.586
133.979
136.028
138.685
141.878
145.51
149.459
153.575
157.676
161.561
165.011
167.806
169.741
170.643
131.175
131.894
133.318
135.418
138.146
141.434
145.189
149.29
153.585
157.89
161.992
165.662
168.662
170.769
171.794
129.745
130.494
131.979
134.176
137.044
140.52
144.519
148.924
153.581
158.301
162.853
166.98
170.408
172.875
174.155
127.564
128.354
129.926
132.261
135.329
139.08
143.44
148.301
153.513
158.875
164.135
168.992
173.112
176.163
177.855
124.59
125.429
127.105
129.61
132.928
137.029
141.857
147.324
153.289
159.548
165.817
171.737
176.882
180.807
183.112
120.773
121.665
123.452
126.142
129.741
134.245
139.633
145.846
152.77
160.206
167.845
175.252
181.868
187.067
190.262
116.062
117.001
118.893
121.763
125.645
130.575
136.579
143.653
151.734
160.656
170.103
179.554
188.266
195.328
199.824
110.409
111.382
113.353
116.368
120.498
125.828
132.452
140.45
149.853
160.58
172.353
184.59
196.31
206.15
212.605
103.779
104.763
106.765
109.857
114.148
119.785
126.948
135.84
146.643
159.452
174.137
190.14
206.229
220.353
229.908
96.1635
97.1221
99.0844
102.144
106.449
112.211
119.714
129.314
141.425
156.445
174.599
195.6
218.108
239.119
253.936
87.5864
88.4751
90.304
93.1827
97.2899
102.894
110.378
120.275
133.293
150.302
172.211
199.548
231.479
264.074
288.698
78.1183
78.8852
80.4715
82.9903
86.6317
91.6933
98.6273
108.114
121.166
139.254
164.39
198.898
244.181
296.996
342.191
67.8809
68.4735
69.7042
71.6727
74.551
78.618
84.3212
92.3842
103.999
121.157
147.194
187.469
249.347
337.53
432.517
57.0489
57.4214
58.197
59.4432
61.2792
63.9044
67.6529
73.1007
81.2849
94.1776
115.754
154.432
228.203
371.256
607.847
45.8423
45.9641
46.2171
46.622
47.2163
48.0653
49.2831
51.0785
53.8602
58.5114
67.2114
86.2981
137.773
311.436
1023.89
170.504
169.451
167.548
164.82
161.314
157.098
152.25
146.852
140.989
134.738
128.172
121.354
114.339
107.176
99.9049
92.5627
85.1816
77.7907
70.417
63.0853
55.8189
48.6392
41.5654
34.615
27.8032
21.1428
14.6442
8.31554
2.16251
-3.81142
-9.60485
-15.2182
-20.6535
-25.9136
-31.0025
-35.924
-40.6823
-45.2809
-49.7228
-54.0106
-58.1464
-62.1324
-65.9708
-69.6646
-73.2178
-76.6351
-79.9226
-83.0869
-86.1353
-89.0747
-91.9115
-94.6506
-97.2955
-99.8478
-102.307
-104.672
-106.939
-109.105
-111.166
-113.12
-114.963
-116.694
-118.312
-119.814
-121.199
-122.463
-123.598
-124.595
-125.442
-126.123
-126.618
-126.909
-126.973
-126.79
-126.341
-125.61
-124.583
-123.253
-121.614
-119.667
-117.418
-114.878
-112.062
-108.993
-105.696
-102.204
-98.5549
-94.7916
-90.9601
-87.1083
171.716
170.67
168.733
165.935
162.334
158.005
153.037
147.52
141.544
135.19
128.532
121.634
114.551
107.328
100.005
92.6167
85.1936
77.7641
70.3546
62.9898
55.6929
48.4853
41.3867
34.4146
27.5845
20.9091
14.3991
8.06235
1.90447
-4.07133
-9.86401
-15.4745
-20.9052
-26.1598
-31.2427
-36.1584
-40.9114
-45.5055
-49.9437
-54.2282
-58.361
-62.3435
-66.1775
-69.8657
-73.4117
-76.8204
-80.0981
-83.2521
-86.2903
-89.2206
-92.05
-94.7842
-97.4268
-99.9794
-102.441
-104.81
-107.083
-109.253
-111.319
-113.276
-115.122
-116.855
-118.475
-119.981
-121.372
-122.645
-123.794
-124.81
-125.679
-126.387
-126.911
-127.232
-127.326
-127.171
-126.746
-126.033
-125.019
-123.695
-122.055
-120.1
-117.836
-115.273
-112.426
-109.318
-105.974
-102.428
-98.7181
-94.8884
-90.9876
-87.0664
174.203
173.167
171.152
168.203
164.397
159.83
154.61
148.846
142.638
136.075
129.234
122.179
114.961
107.622
100.197
92.7182
85.2126
77.7069
70.2262
62.795
55.4367
48.1731
41.0245
34.009
27.142
20.4369
13.904
7.55132
1.3841
-4.59491
-10.3854
-15.9892
-21.41
-26.6526
-31.7228
-36.6264
-41.3685
-45.9535
-50.3845
-54.6632
-58.7905
-62.7668
-66.5927
-70.2699
-73.8015
-77.1924
-80.4498
-83.582
-86.5988
-89.5097
-92.3235
-95.0473
-97.6853
-100.239
-102.707
-105.086
-107.369
-109.551
-111.626
-113.59
-115.44
-117.176
-118.799
-120.311
-121.713
-123.003
-124.179
-125.232
-126.148
-126.91
-127.496
-127.88
-128.036
-127.938
-127.562
-126.888
-125.9
-124.588
-122.947
-120.976
-118.681
-116.073
-113.166
-109.98
-106.543
-102.886
-99.0517
-95.086
-91.0426
-86.9784
178.101
177.07
174.914
171.703
167.551
162.591
156.965
150.808
144.239
137.357
130.243
122.956
115.542
108.035
100.465
92.8557
85.23
77.6116
70.0247
62.4937
55.0426
47.6942
40.4699
33.3884
26.4659
19.7159
13.149
6.77294
0.592608
-5.38996
-11.1755
-16.7673
-22.1709
-27.3933
-32.4423
-37.3259
-42.0509
-46.6224
-51.0434
-55.315
-59.4362
-63.4052
-67.2206
-70.8822
-74.3921
-77.7552
-80.9797
-84.0764
-87.0577
-89.9365
-92.7247
-95.4317
-98.063
-100.62
-103.1
-105.496
-107.799
-110.001
-112.091
-114.065
-115.921
-117.658
-119.282
-120.797
-122.21
-123.525
-124.74
-125.848
-126.837
-127.686
-128.368
-128.853
-129.109
-129.103
-128.805
-128.192
-127.246
-125.954
-124.31
-122.317
-119.977
-117.302
-114.304
-111.004
-107.424
-103.6
-99.5723
-95.394
-91.1262
-86.8361
183.638
182.589
180.189
176.557
171.864
166.307
160.081
153.359
146.286
138.973
131.497
123.912
116.252
108.539
100.788
93.0142
85.2346
77.4692
69.7412
62.0759
54.499
47.0356
39.7085
32.5378
25.5406
18.7307
12.1188
5.71245
-0.48378
-6.46868
-12.2444
-17.8161
-23.1922
-28.3829
-33.3995
-38.2531
-42.9533
-47.5068
-51.9166
-56.1821
-60.2995
-64.2635
-68.0686
-71.7114
-75.1922
-78.5158
-81.692
-84.735
-87.6622
-90.4918
-93.2409
-95.9228
-98.5454
-101.11
-103.611
-106.037
-108.374
-110.607
-112.721
-114.71
-116.568
-118.301
-119.917
-121.428
-122.848
-124.187
-125.45
-126.634
-127.725
-128.698
-129.522
-130.156
-130.557
-130.684
-130.5
-129.975
-129.087
-127.823
-126.177
-124.153
-121.755
-118.992
-115.878
-112.426
-108.658
-104.604
-100.308
-95.8291
-91.2404
-86.6258
191.172
190.049
187.235
182.933
177.418
170.984
163.906
156.413
148.677
140.818
132.905
124.974
117.037
109.094
101.141
93.179
85.2168
77.2711
69.3658
61.5291
53.7908
46.1795
38.7208
31.4367
24.345
17.4599
10.7921
4.34918
-1.86458
-7.84866
-13.6067
-19.1465
-24.4801
-29.6226
-34.5905
-39.4004
-44.0661
-48.5971
-52.9964
-57.2611
-61.3825
-65.349
-69.1486
-72.7724
-76.2171
-79.4869
-82.5942
-85.5587
-88.4053
-91.1611
-93.8517
-96.4972
-99.1093
-101.689
-104.227
-106.705
-109.097
-111.38
-113.532
-115.538
-117.395
-119.111
-120.701
-122.189
-123.6
-124.956
-126.273
-127.552
-128.779
-129.925
-130.947
-131.79
-132.397
-132.712
-132.685
-132.279
-131.467
-130.238
-128.588
-126.524
-124.054
-121.188
-117.934
-114.301
-110.301
-105.955
-101.307
-96.4206
-91.3901
-86.3263
201.254
199.941
196.42
191.052
184.291
176.586
168.327
159.812
151.243
142.736
134.336
126.043
117.829
109.66
101.504
93.3421
85.1733
77.0131
68.8898
60.8392
52.8984
45.1024
37.4808
30.0577
22.8513
15.8756
9.14119
2.65574
-3.57618
-9.55412
-15.2829
-20.7735
-26.0428
-31.1129
-36.0086
-40.7546
-45.3722
-49.8757
-54.2691
-58.5452
-62.6874
-66.6734
-70.4803
-74.0898
-77.4922
-80.6903
-83.7002
-86.5501
-89.2772
-91.9225
-94.5253
-97.1174
-99.7174
-102.327
-104.929
-107.492
-109.977
-112.34
-114.548
-116.578
-118.424
-120.098
-121.629
-123.058
-124.428
-125.781
-127.148
-128.541
-129.947
-131.329
-132.626
-133.762
-134.655
-135.229
-135.414
-135.163
-134.447
-133.256
-131.595
-129.478
-126.923
-123.94
-120.536
-116.704
-112.439
-107.742
-102.645
-97.2189
-91.5862
-85.9048
214.751
213.007
208.259
201.176
192.518
182.981
173.112
163.285
153.719
144.497
135.611
126.993
118.555
110.205
101.873
93.5129
85.1153
76.7
68.3078
59.9896
51.7964
43.773
35.9543
28.3658
21.0248
13.9435
7.13146
0.597047
-5.65354
-11.6182
-17.3019
-22.7186
-27.892
-32.8539
-37.6414
-42.2926
-46.8417
-51.3118
-55.7094
-60.0209
-64.2158
-68.2542
-72.0949
-75.7036
-79.0598
-82.163
-85.0346
-87.7165
-90.265
-92.7431
-95.2124
-97.7241
-100.31
-102.973
-105.685
-108.392
-111.027
-113.522
-115.819
-117.881
-119.697
-121.289
-122.704
-124.008
-125.277
-126.583
-127.983
-129.508
-131.148
-132.853
-134.534
-136.081
-137.373
-138.301
-138.77
-138.716
-138.109
-136.947
-135.255
-133.063
-130.404
-127.299
-123.749
-119.73
-115.195
-110.104
-104.453
-98.3138
-91.851
-85.3086
233.072
230.392
223.459
213.562
202.007
189.851
177.83
166.381
155.695
145.773
136.495
127.683
119.149
110.724
102.278
93.7356
85.0808
76.3516
67.6174
58.9585
50.4488
42.1475
34.0954
26.3168
18.8238
11.6231
4.72176
-1.87045
-8.14256
-14.0869
-19.7051
-25.0136
-30.0451
-34.8454
-39.4696
-43.977
-48.4237
-52.8512
-57.2726
-61.6631
-65.9681
-70.1181
-74.042
-77.6791
-80.9901
-83.9673
-86.6402
-89.0729
-91.352
-93.5743
-95.8362
-98.2221
-100.789
-103.546
-106.444
-109.392
-112.277
-114.987
-117.427
-119.535
-121.292
-122.732
-123.934
-125.007
-126.072
-127.248
-128.637
-130.305
-132.255
-134.409
-136.635
-138.762
-140.615
-142.031
-142.876
-143.064
-142.565
-141.403
-139.631
-137.317
-134.524
-131.296
-127.638
-123.496
-118.752
-113.27
-106.965
-99.8723
-92.2289
-84.4463
258.636
253.895
242.922
228.33
212.356
196.523
181.72
168.374
156.568
146.119
136.704
127.968
119.584
111.271
102.821
94.1173
85.1511
76.0081
66.8169
57.7108
48.7997
40.1618
31.8416
23.8557
16.2013
8.87113
1.86672
-4.79897
-11.1035
-17.0249
-22.5538
-27.7072
-32.5303
-37.0896
-41.4652
-45.7479
-50.0321
-54.3984
-58.879
-63.4267
-67.9423
-72.3059
-76.4002
-80.1222
-83.3994
-86.2077
-88.5897
-90.6484
-92.5185
-94.3462
-96.2791
-98.4574
-100.991
-103.912
-107.13
-110.482
-113.777
-116.837
-119.51
-121.69
-123.341
-124.515
-125.348
-126.014
-126.703
-127.602
-128.887
-130.696
-133.062
-135.862
-138.874
-141.834
-144.484
-146.58
-147.927
-148.399
-147.975
-146.732
-144.785
-142.26
-139.269
-135.909
-132.222
-128.128
-123.367
-117.62
-110.609
-102.222
-92.8057
-83.1409
295.916
286.367
267.591
245.086
222.499
201.705
183.507
168.142
155.485
144.973
135.93
127.745
119.912
112.012
103.727
94.8744
85.474
75.7319
65.8921
56.1809
46.7556
37.7177
29.1055
20.9166
13.1114
5.64977
-1.47625
-8.24763
-14.6158
-20.528
-25.9429
-30.8757
-35.395
-39.5974
-43.5937
-47.5155
-51.5211
-55.7797
-60.3875
-65.2352
-70.1335
-74.88
-79.2928
-83.2038
-86.4818
-89.06
-91.0026
-92.4932
-93.7439
-94.9647
-96.366
-98.1787
-100.634
-103.848
-107.623
-111.649
-115.612
-119.242
-122.3
-124.606
-126.072
-126.787
-126.998
-126.987
-127.03
-127.396
-128.382
-130.281
-133.241
-137.008
-141.183
-145.353
-149.145
-152.207
-154.235
-155.019
-154.564
-153.071
-150.772
-147.869
-144.544
-140.989
-137.39
-133.718
-129.401
-123.788
-116.23
-106.053
-93.7386
-81.0064
354.004
332.119
297.622
261.957
230.055
203.147
181.213
164.009
151.31
141.707
133.916
127.014
120.333
113.304
105.447
96.4184
86.2868
75.5948
64.7808
54.2378
44.1528
34.6595
25.7593
17.4244
9.52645
1.94492
-5.32992
-12.2768
-18.7846
-24.7466
-30.0259
-34.6388
-38.7156
-42.4011
-45.8285
-49.1616
-52.6447
-56.6569
-61.5492
-66.9696
-72.5416
-77.9327
-82.9063
-87.195
-90.57
-92.8254
-94.0643
-94.6816
-95.0102
-95.3211
-95.8586
-96.9723
-99.1832
-102.972
-107.751
-112.904
-117.926
-122.468
-126.171
-128.729
-129.884
-129.782
-128.966
-127.882
-126.887
-126.296
-126.558
-128.338
-132.254
-137.565
-143.498
-149.413
-154.856
-159.32
-162.332
-163.42
-162.646
-160.57
-157.625
-154.085
-150.146
-146.132
-142.663
-140.232
-137.301
-132.755
-125.622
-112.962
-95.2709
-77.0948
453.63
396.029
329.328
273.401
230.414
197.421
172.104
153.383
142.672
135.83
130.618
125.962
121.253
115.786
108.852
99.5476
87.9041
75.6314
63.2769
51.6339
40.6964
30.7463
21.5981
13.3024
5.48546
-2.20178
-9.65586
-16.9382
-23.7389
-29.9479
-35.0679
-39.1732
-42.5988
-45.5755
-48.198
-50.5906
-53.0051
-56.2654
-61.9491
-68.4839
-75.2083
-81.585
-87.5038
-92.5001
-96.268
-98.0524
-98.0189
-97.2835
-96.2994
-95.3487
-94.5193
-94.1832
-95.4571
-100.671
-107.336
-114.344
-120.927
-126.901
-131.686
-134.869
-135.501
-133.803
-131.319
-128.643
-126.16
-123.965
-122.546
-123.315
-129.256
-137.224
-145.835
-154.152
-161.973
-168.521
-173.199
-174.498
-172.6
-169.32
-165.329
-160.875
-155.852
-150.487
-146.441
-147.464
-147.522
-145.445
-142.97
-127.114
-97.5003
-68.8568
648.159
473.035
345.513
266.207
216.379
180.637
153.493
131.218
128.462
127.6
126.517
124.984
123.261
120.375
115.669
106.042
90.4253
75.7839
60.747
48.0126
35.8171
25.6778
16.2086
8.49053
1.25755
-6.6843
-14.229
-22.2928
-29.5449
-36.7168
-41.5703
-44.6855
-47.1279
-49.2587
-50.8978
-51.9871
-52.1465
-52.3829
-61.1217
-69.7239
-78.3741
-85.8946
-93.4278
-99.5721
-104.82
-105.895
-102.982
-100.241
-97.5383
-95.1994
-92.4673
-89.0738
-86.0557
-96.2751
-106.426
-116.395
-124.802
-133.043
-139.506
-144.68
-144.469
-138.954
-133.945
-129.125
-125.014
-120.517
-115.379
-110.843
-123.335
-135.956
-148.594
-159.602
-170.918
-180.414
-188.929
-190.179
-184.539
-179.091
-173.7
-168.48
-162.048
-152.942
-142.916
-156.082
-160.816
-158.708
-179.583
-161.075
-98.3312
-49.1105
1089.9
481.485
292.26
216.56
182.056
151.467
127.867
80.9416
111.519
119.687
123.061
124.278
126.938
127.584
129.567
121.161
91.5388
76.5037
54.9
43.6139
27.9762
19.6434
8.29699
2.97984
-1.94973
-11.7387
-18.0545
-28.8158
-35.466
-46.8234
-50.575
-51.166
-52.1044
-53.6492
-54.3879
-54.7213
-51.176
-36.2555
-60.4898
-70.893
-83.1648
-90.1837
-101.35
-107.932
-119.378
-119.478
-107.693
-103.143
-98.2504
-95.614
-91.3654
-83.4217
-57.59
-91.9758
-105.776
-120.692
-128.915
-141.74
-149.179
-162.242
-161.071
-143.373
-136.297
-128.582
-124.42
-117.992
-107.341
-73.8475
-117.228
-134.66
-153.696
-164.608
-182.482
-193.715
-215.117
-215.777
-196.201
-188.777
-181.822
-177.826
-172.093
-156.718
-105.994
-176.841
-183.957
-138.876
-272.904
-258.732
-79.6876
1.62731
-82.9081
-78.4334
-74.1442
-70.1012
-66.3514
-62.9284
-59.8532
-57.1363
-54.7802
-52.7817
-51.1342
-49.8296
-48.8596
-48.2172
-47.8974
-82.7932
-78.2464
-73.8969
-69.8068
-66.0236
-62.5796
-59.4939
-56.7746
-54.4217
-52.4299
-50.7906
-49.4941
-48.5312
-47.8939
-47.5768
-82.5551
-77.861
-73.3887
-69.2044
-65.3554
-61.8714
-58.7671
-56.0454
-53.7013
-51.7247
-50.1032
-48.8242
-47.8762
-47.2497
-46.9382
-82.1766
-77.2523
-72.5914
-68.2654
-64.321
-60.7825
-57.6567
-54.9378
-52.6124
-50.6634
-49.0725
-47.8227
-46.899
-46.2899
-45.9873
-81.6284
-76.379
-71.458
-66.9438
-62.8797
-59.28
-56.1383
-53.4356
-51.1463
-49.2431
-47.7001
-46.4941
-45.6064
-45.0226
-44.7332
-80.8639
-75.176
-69.9167
-65.171
-60.9728
-57.3183
-54.1801
-51.5192
-49.2933
-47.462
-45.9896
-44.8465
-44.0092
-43.4604
-43.1888
-79.81
-73.543
-67.8608
-62.8497
-58.5213
-54.8395
-51.7438
-49.1669
-47.0448
-45.321
-43.9492
-42.8924
-42.1228
-41.6202
-41.3721
-78.3485
-71.3243
-65.1327
-59.8445
-55.4225
-51.7736
-48.7877
-46.3592
-44.397
-42.8275
-41.593
-40.6505
-39.9684
-39.525
-39.3066
-76.2796
-68.2716
-61.5001
-55.9723
-51.5495
-48.044
-45.2735
-43.0844
-41.356
-39.998
-38.9442
-38.1475
-37.5748
-37.2042
-37.022
-73.246
-63.9814
-56.6227
-50.994
-46.7585
-43.5785
-41.1773
-39.348
-37.944
-36.8637
-36.0378
-35.4198
-34.9785
-34.6942
-34.5547
-68.568
-57.7843
-50.0143
-44.6216
-40.911
-38.3336
-36.5083
-35.1858
-34.2077
-33.4742
-32.923
-32.5146
-32.2248
-32.0386
-31.9475
-60.8741
-48.5728
-41.028
-36.5663
-33.9297
-32.3361
-31.3359
-30.6787
-30.2261
-29.9021
-29.6646
-29.4905
-29.367
-29.2875
-29.2485
-47.2727
-34.6038
-28.9577
-26.6854
-25.9047
-25.7446
-25.8202
-25.9664
-26.1155
-26.2429
-26.3424
-26.4151
-26.4648
-26.4955
-26.51
-21.5571
-13.6114
-13.5133
-15.3126
-17.2586
-18.9169
-20.2334
-21.2507
-22.0263
-22.6113
-23.0464
-23.3622
-23.5813
-23.7191
-23.7857
29.4524
15.2287
3.82892
-3.79276
-8.8999
-12.4309
-14.9456
-16.7763
-18.1272
-19.1294
-19.8693
-20.4058
-20.7785
-21.0137
-21.1275
35.4562
35.3398
35.0947
34.6938
34.0903
33.2064
31.9131
29.9856
27.0053
22.1039
13.1903
-5.84935
-57.1307
-237.295
-1031.8
26.0941
25.7697
25.0904
23.9897
22.3511
19.9817
16.5613
11.5402
3.92469
-8.20865
-28.8884
-67.2297
-144.815
-309.51
-616.651
16.9561
16.4448
15.3778
13.6581
11.1184
7.48602
2.32033
-5.10437
-16.0196
-32.5872
-58.7024
-101.357
-172.004
-282.804
-414.783
8.17223
7.50502
6.11751
3.89522
0.643637
-3.94564
-10.3527
-19.3257
-32.0393
-50.3359
-77.0315
-116.044
-171.308
-241.387
-304.564
-0.149171
-0.935437
-2.56388
-5.15363
-8.90283
-14.1156
-21.2443
-30.9501
-44.1824
-62.2516
-86.8068
-119.446
-160.323
-204.76
-238.215
-7.92533
-8.7918
-10.5784
-13.398
-17.4335
-22.9557
-30.3468
-40.1263
-52.9669
-69.663
-90.9675
-117.126
-146.865
-175.759
-195.097
-15.1005
-16.0098
-17.8763
-20.7984
-24.9321
-30.4983
-37.791
-47.1772
-59.0744
-73.8741
-91.7563
-112.321
-133.993
-153.391
-165.406
-21.6447
-22.5638
-24.4416
-27.3581
-31.4363
-36.8422
-43.7816
-52.4847
-63.1667
-75.9446
-90.682
-106.744
-122.701
-136.149
-144.059
-27.5512
-28.4527
-30.2859
-33.1116
-37.0188
-42.1214
-48.5476
-56.4179
-65.8036
-76.6546
-88.6872
-101.241
-113.151
-122.752
-128.203
-32.8322
-33.6948
-35.4416
-38.1143
-41.7715
-46.4818
-52.3108
-59.2987
-67.4231
-76.5438
-86.3301
-96.1846
-105.203
-112.237
-116.132
-37.5145
-38.3234
-39.9547
-42.4337
-45.7932
-50.0654
-55.2693
-61.3904
-68.3507
-75.9709
-83.9255
-91.7085
-98.6329
-103.901
-106.766
-41.6355
-42.3812
-43.8794
-46.142
-49.1812
-53.0021
-57.5911
-62.8991
-68.8202
-75.1655
-81.6397
-87.8283
-93.2129
-97.232
-99.3898
-45.2389
-45.9166
-47.2736
-49.3113
-52.0266
-55.4057
-59.4135
-63.9822
-68.9949
-74.2706
-79.5523
-84.5061
-88.7409
-91.8556
-93.5113
-48.372
-48.9805
-50.1952
-52.0101
-54.4114
-57.3726
-60.8467
-64.7569
-68.9868
-73.3714
-77.6923
-81.6829
-85.0466
-87.4922
-88.7823
-51.0828
-51.6236
-52.7004
-54.3018
-56.4075
-58.9835
-61.977
-65.3096
-68.8714
-72.5163
-76.0617
-79.2949
-81.9895
-83.9309
-84.949
-53.4182
-53.8948
-54.8413
-56.2435
-58.0771
-60.3047
-62.8719
-65.7032
-68.6982
-71.7303
-74.6477
-77.2808
-79.4553
-81.0107
-81.8225
-55.4228
-55.8397
-56.666
-57.8858
-59.4731
-61.39
-63.5834
-65.983
-68.4994
-71.0238
-73.4309
-75.5851
-77.3509
-78.6066
-79.2595
-57.138
-57.5004
-58.2175
-59.2728
-60.6405
-62.2834
-64.1518
-66.1818
-68.2949
-70.3987
-72.3897
-74.1591
-75.6006
-76.6209
-77.1498
-58.6015
-58.915
-59.5342
-60.4431
-61.6167
-63.0202
-64.6079
-66.3229
-68.097
-69.8519
-71.5024
-72.9607
-74.1428
-74.9763
-75.4073
-59.8475
-60.1174
-60.6499
-61.4297
-62.4334
-63.6291
-64.9757
-66.423
-67.9122
-69.3775
-70.7484
-71.9539
-72.9271
-73.6111
-73.9641
-60.906
-61.1376
-61.5939
-62.2607
-63.1168
-64.1332
-65.2736
-66.494
-67.7442
-68.9687
-70.1093
-71.1083
-71.9121
-72.4756
-72.7659
-61.8038
-62.0019
-62.3917
-62.9604
-63.6889
-64.5514
-65.5158
-66.5443
-67.5939
-68.618
-69.5686
-70.3983
-71.064
-71.5297
-71.7693
-62.5641
-62.7331
-63.0653
-63.5493
-64.168
-64.8987
-65.7136
-66.58
-67.4613
-68.3185
-69.1116
-69.8021
-70.3548
-70.7407
-70.9391
-63.2071
-63.3509
-63.6334
-64.0446
-64.5693
-65.1877
-65.8757
-66.6052
-67.3454
-68.0634
-68.726
-69.3015
-69.7613
-70.0819
-70.2465
-63.7503
-63.8725
-64.1124
-64.4611
-64.9055
-65.4284
-66.0089
-66.6231
-67.2449
-67.8467
-68.4009
-68.8813
-69.2645
-69.5313
-69.6682
-64.2086
-64.3123
-64.5157
-64.8112
-65.1872
-65.629
-66.1187
-66.6358
-67.1583
-67.6631
-68.127
-68.5286
-68.8484
-69.0709
-69.185
-64.595
-64.6829
-64.8552
-65.1053
-65.4233
-65.7964
-66.2094
-66.6448
-67.0841
-67.5077
-67.8965
-68.2326
-68.4999
-68.6858
-68.781
-64.9204
-64.9949
-65.1408
-65.3523
-65.6211
-65.9362
-66.2844
-66.6512
-67.0206
-67.3765
-67.7026
-67.9842
-68.2081
-68.3635
-68.4432
-65.1942
-65.2572
-65.3807
-65.5596
-65.7868
-66.0529
-66.3467
-66.6557
-66.9667
-67.2658
-67.5397
-67.776
-67.9636
-68.0939
-68.1606
-65.4242
-65.4776
-65.5821
-65.7335
-65.9255
-66.1503
-66.3983
-66.6589
-66.9209
-67.1726
-67.403
-67.6015
-67.759
-67.8683
-67.9243
-65.6172
-65.6624
-65.7509
-65.8791
-66.0416
-66.2316
-66.4411
-66.6612
-66.8821
-67.0943
-67.2883
-67.4554
-67.5879
-67.6798
-67.7269
-65.7788
-65.8172
-65.8922
-66.0008
-66.1385
-66.2994
-66.4767
-66.6628
-66.8495
-67.0287
-67.1924
-67.3333
-67.445
-67.5225
-67.5621
-65.9139
-65.9464
-66.0102
-66.1024
-66.2193
-66.3559
-66.5062
-66.6639
-66.8221
-66.9738
-67.1123
-67.2315
-67.3259
-67.3914
-67.4249
-66.0263
-66.054
-66.1084
-66.1869
-66.2865
-66.4027
-66.5306
-66.6647
-66.7991
-66.928
-67.0457
-67.1468
-67.2269
-67.2825
-67.3109
-66.1195
-66.1432
-66.1897
-66.2569
-66.342
-66.4414
-66.5507
-66.6653
-66.7801
-66.8901
-66.9904
-67.0767
-67.145
-67.1924
-67.2166
-66.1962
-66.2166
-66.2566
-66.3145
-66.3877
-66.4732
-66.5672
-66.6657
-66.7643
-66.8588
-66.945
-67.0191
-67.0777
-67.1183
-67.1391
-66.2587
-66.2764
-66.3111
-66.3614
-66.4249
-66.4991
-66.5806
-66.666
-66.7515
-66.8333
-66.908
-66.9721
-67.0229
-67.058
-67.076
-66.3089
-66.3244
-66.3549
-66.399
-66.4548
-66.5198
-66.5913
-66.6662
-66.7411
-66.8129
-66.8783
-66.9344
-66.9789
-67.0097
-67.0255
-66.3482
-66.3621
-66.3893
-66.4285
-66.4782
-66.5361
-66.5997
-66.6663
-66.733
-66.7968
-66.855
-66.9049
-66.9444
-66.9718
-66.9858
-66.378
-66.3906
-66.4152
-66.4508
-66.4958
-66.5483
-66.606
-66.6664
-66.7268
-66.7847
-66.8374
-66.8826
-66.9184
-66.9432
-66.9559
-66.399
-66.4107
-66.4335
-66.4665
-66.5083
-66.557
-66.6105
-66.6665
-66.7225
-66.7761
-66.8249
-66.8668
-66.9
-66.923
-66.9347
-66.4119
-66.423
-66.4448
-66.4762
-66.516
-66.5623
-66.6132
-66.6665
-66.7198
-66.7708
-66.8173
-66.8572
-66.8887
-66.9106
-66.9217
-66.4171
-66.428
-66.4493
-66.4801
-66.519
-66.5644
-66.6143
-66.6665
-66.7187
-66.7687
-66.8142
-66.8533
-66.8842
-66.9056
-66.9165
-66.4148
-66.4257
-66.4473
-66.4783
-66.5177
-66.5635
-66.6138
-66.6665
-66.7192
-66.7697
-66.8156
-66.855
-66.8862
-66.9078
-66.9189
-66.4048
-66.4162
-66.4385
-66.4709
-66.5117
-66.5594
-66.6117
-66.6665
-66.7213
-66.7737
-66.8215
-66.8625
-66.895
-66.9174
-66.9289
-66.3868
-66.399
-66.4229
-66.4574
-66.5011
-66.552
-66.6079
-66.6665
-66.725
-66.7811
-66.8321
-66.8759
-66.9106
-66.9346
-66.9469
-66.3605
-66.3738
-66.3999
-66.4377
-66.4855
-66.5411
-66.6024
-66.6664
-66.7305
-66.7918
-66.8477
-66.8957
-66.9337
-66.96
-66.9734
-66.3248
-66.3397
-66.3688
-66.411
-66.4643
-66.5265
-66.5948
-66.6663
-66.7379
-66.8064
-66.8688
-66.9224
-66.9649
-66.9942
-67.0092
-66.2788
-66.2957
-66.3287
-66.3765
-66.437
-66.5075
-66.585
-66.6662
-66.7474
-66.8252
-66.896
-66.9569
-67.0051
-67.0385
-67.0555
-66.2211
-66.2405
-66.2784
-66.3333
-66.4027
-66.4837
-66.5727
-66.666
-66.7593
-66.8487
-66.9302
-67.0002
-67.0556
-67.094
-67.1136
-66.1499
-66.1723
-66.2163
-66.2799
-66.3604
-66.4543
-66.5575
-66.6657
-66.774
-66.8778
-66.9724
-67.0536
-67.118
-67.1626
-67.1853
-66.0631
-66.0893
-66.1406
-66.2148
-66.3087
-66.4184
-66.539
-66.6653
-66.7919
-66.9131
-67.0237
-67.1188
-67.1941
-67.2462
-67.2729
-65.9581
-65.9889
-66.049
-66.136
-66.2462
-66.3748
-66.5164
-66.6647
-66.8134
-66.9559
-67.0859
-67.1977
-67.2863
-67.3476
-67.379
-65.8318
-65.868
-65.9388
-66.0412
-66.1709
-66.3223
-66.4891
-66.664
-66.8393
-67.0073
-67.1608
-67.2927
-67.3973
-67.4697
-67.5068
-65.6804
-65.7231
-65.8065
-65.9273
-66.0804
-66.2592
-66.4562
-66.6628
-66.8701
-67.069
-67.2506
-67.4068
-67.5306
-67.6165
-67.6604
-65.4995
-65.5498
-65.6484
-65.7911
-65.9721
-66.1836
-66.4166
-66.6613
-66.9068
-67.1425
-67.3579
-67.5433
-67.6904
-67.7923
-67.8445
-65.2835
-65.343
-65.4596
-65.6284
-65.8425
-66.0929
-66.369
-66.659
-66.9504
-67.2302
-67.4861
-67.7065
-67.8814
-68.0027
-68.0647
-65.0263
-65.0967
-65.2345
-65.4343
-65.6877
-65.9844
-66.3118
-66.6559
-67.0019
-67.3345
-67.6389
-67.9013
-68.1096
-68.2541
-68.3281
-64.7202
-64.8034
-64.9665
-65.2029
-65.503
-65.8545
-66.2429
-66.6515
-67.0627
-67.4584
-67.8209
-68.1336
-68.3821
-68.5545
-68.6429
-64.3564
-64.4547
-64.6475
-64.9272
-65.2825
-65.6992
-66.1599
-66.6452
-67.1342
-67.6054
-68.0375
-68.4106
-68.7073
-68.9133
-69.0189
-63.9243
-64.0405
-64.2683
-64.599
-65.0196
-65.5132
-66.0598
-66.6364
-67.2182
-67.7796
-68.295
-68.7407
-69.0953
-69.3419
-69.4683
-63.4117
-63.5487
-63.8177
-64.2084
-64.7058
-65.2905
-65.9388
-66.6239
-67.3163
-67.9855
-68.601
-69.1339
-69.5585
-69.8539
-70.0054
-62.8038
-62.9653
-63.2825
-63.7437
-64.3316
-65.0236
-65.7924
-66.6063
-67.4306
-68.2288
-68.9644
-69.6022
-70.1112
-70.4658
-70.6477
-62.0839
-62.2739
-62.6474
-63.191
-63.885
-64.7035
-65.6146
-66.5814
-67.5629
-68.5157
-69.3955
-70.1601
-70.7712
-71.1974
-71.4164
-61.232
-61.4552
-61.8941
-62.5339
-63.3521
-64.3191
-65.3982
-66.5463
-67.7153
-68.8531
-69.9067
-70.8245
-71.5595
-72.073
-72.337
-60.2252
-60.4867
-61.0015
-61.7529
-62.7159
-63.8569
-65.1338
-66.4969
-67.8892
-69.249
-70.5122
-71.6157
-72.5017
-73.1217
-73.4409
-59.0369
-59.3424
-59.9445
-60.825
-61.9561
-63.3003
-64.8098
-66.427
-68.0856
-69.7119
-71.2284
-72.5579
-73.6284
-74.3793
-74.7664
-57.6365
-57.9923
-58.6943
-59.7231
-61.0484
-62.6289
-64.4108
-66.3285
-68.3044
-70.2511
-72.0746
-73.6799
-74.9771
-75.8895
-76.3606
-55.9891
-56.4018
-57.2174
-58.4153
-59.9637
-61.8175
-63.9177
-66.1897
-68.5435
-70.8756
-73.0723
-75.0157
-76.593
-77.7059
-78.2818
-54.0552
-54.5317
-55.475
-56.8643
-58.6668
-60.8352
-63.3053
-65.9939
-68.7977
-71.5943
-74.2457
-76.6057
-78.5311
-79.8952
-80.6028
-51.7905
-52.3377
-53.4229
-55.0264
-57.116
-59.6435
-62.5413
-65.7181
-69.0569
-72.4137
-75.6213
-78.4975
-80.8589
-82.5402
-83.4151
-49.146
-49.7703
-51.011
-52.8511
-55.2611
-58.1948
-61.5834
-65.3299
-69.3035
-73.3366
-77.2271
-80.7466
-83.6588
-85.745
-86.8349
-46.0683
-46.7749
-48.183
-50.2801
-53.0427
-56.4302
-60.3771
-64.7841
-69.5086
-74.3585
-79.0903
-83.4174
-87.0322
-89.6414
-91.0112
-42.5
-43.2927
-44.8767
-47.2472
-50.3906
-54.2773
-58.8514
-64.0176
-69.6267
-75.4625
-81.2343
-86.5826
-91.1037
-94.3982
-96.1386
-38.3815
-39.2611
-41.0247
-43.6778
-47.2223
-51.6471
-56.9147
-62.9437
-69.5874
-76.6107
-83.6722
-90.3221
-96.0267
-100.234
-102.474
-33.6524
-34.6161
-36.5551
-39.4896
-43.4431
-48.4318
-54.4492
-61.443
-69.2844
-77.7321
-86.3959
-94.7177
-101.989
-107.435
-110.365
-28.2545
-29.2942
-31.3944
-34.5941
-38.9452
-44.5024
-51.3058
-59.3536
-68.5605
-78.7033
-89.357
-99.8422
-109.219
-116.383
-120.291
-22.1349
-23.2364
-25.4707
-28.8994
-33.61
-39.7077
-47.2985
-56.4593
-67.1866
-79.3194
-92.4348
-105.736
-117.986
-127.591
-132.929
-15.251
-16.3922
-18.718
-22.3149
-27.3119
-33.8764
-42.2012
-52.4772
-64.8367
-79.2531
-95.3833
-112.359
-128.59
-141.762
-149.274
-7.57518
-8.72612
-11.0831
-14.7585
-19.9258
-26.8229
-35.7492
-47.0484
-61.0583
-77.9965
-97.7447
-119.497
-141.318
-159.862
-170.834
0.899271
-0.223137
-2.53321
-6.16655
-11.339
-18.3606
-27.6495
-39.7375
-55.2463
-74.7884
-98.7139
-126.587
-156.322
-183.219
-200.013
10.1524
9.10387
6.93489
3.49358
-1.46875
-8.32438
-17.6062
-30.0513
-46.6335
-68.5361
-96.9412
-132.384
-173.296
-213.59
-240.853
20.1328
19.2081
17.2857
14.2092
9.71566
3.39617
-5.3668
-17.4924
-34.3262
-57.7683
-90.2807
-134.383
-190.698
-253.008
-300.624
30.7545
30.0043
28.4372
25.9081
22.1673
16.8129
9.20719
-1.66455
-17.4301
-40.7019
-75.5714
-127.901
-203.935
-302.629
-393.459
41.896
41.3667
40.2557
38.4474
35.7387
31.7922
26.0485
17.5611
4.67806
-15.5819
-48.7371
-104.957
-201.434
-357.708
-549.366
53.4038
53.132
52.5574
51.6108
50.1686
48.0186
44.7942
39.8382
31.9081
18.4921
-5.88569
-54.0568
-157.406
-388.211
-838.364
65.0992
65.1063
65.116
65.1173
65.0889
64.99
64.7411
64.1793
62.9466
60.1771
53.488
35.1613
-24.8639
-266.387
-1439.96
76.7881
77.0775
77.6791
78.6432
80.0568
82.0642
84.9038
88.9846
95.0505
104.583
120.942
153.336
233.717
502.698
1704.19
88.2746
88.8303
89.9892
91.8553
94.611
98.5589
104.203
112.409
124.745
144.245
177.26
238.183
361.323
624.195
1122.04
99.3735
100.163
101.806
104.448
108.336
113.874
121.721
132.964
149.463
174.519
214.195
279.819
391.888
582.508
885.64
95.9507
39.0767
16.2626
4.46214
-2.68244
-7.41662
-10.7253
-13.1143
-14.8726
-16.1775
-17.1433
-17.8456
-18.335
-18.6447
-18.7948
60.6376
37.1037
19.9173
8.73333
1.29591
-3.84805
-7.52719
-10.2231
-12.2285
-13.7294
-14.8478
-15.6657
-16.2382
-16.6017
-16.7782
41.6667
30.7224
19.4033
10.4027
3.68158
-1.29668
-5.01179
-7.81123
-9.93469
-11.5467
-12.7609
-13.656
-14.2864
-14.6883
-14.8839
30.2956
24.6011
17.279
10.4889
4.85689
0.377525
-3.13223
-5.8687
-7.99593
-9.64017
-10.8954
-11.8301
-12.4932
-12.918
-13.1254
22.8787
19.6097
14.785
9.77086
5.23168
1.37838
-1.78964
-4.34921
-6.39247
-8.00367
-9.25231
-10.1927
-10.8652
-11.2985
-11.5107
17.7317
15.6984
12.4225
8.72282
5.1301
1.90334
-0.869567
-3.18821
-5.08898
-6.61885
-7.82324
-8.74108
-9.40323
-9.83237
-10.0433
13.9964
12.6498
10.3542
7.60041
4.7743
2.11311
-0.264949
-2.31737
-4.04301
-5.45999
-6.59308
-7.46696
-8.10299
-8.51769
-8.72225
11.1962
10.2602
8.60394
6.52811
4.30393
2.12624
0.113534
-1.67344
-3.21133
-4.49822
-5.54285
-6.35794
-6.95633
-7.34886
-7.54315
9.04586
8.3705
7.14497
5.55877
3.80123
2.02477
0.335257
-1.20247
-2.55393
-3.70464
-4.65195
-5.39932
-5.95258
-6.31759
-6.49888
7.36441
6.86282
5.93638
4.70834
3.31161
1.86289
0.451568
-0.860829
-2.03591
-3.05227
-3.89984
-4.57543
-5.07947
-5.41383
-5.58044
6.03121
5.6501
4.93715
3.97501
2.85807
1.67503
0.499173
-0.614541
-1.62808
-2.51707
-3.26713
-3.87063
-4.32414
-4.62651
-4.77764
4.96261
4.66774
4.11093
3.34912
2.45039
1.48216
0.503618
-0.437811
-1.30673
-2.07832
-2.73615
-3.26994
-3.67371
-3.94417
-4.07972
4.09871
3.86724
3.42701
2.8183
2.09093
1.29644
0.482282
-0.31143
-1.05296
-1.71855
-2.29126
-2.75952
-3.11581
-3.35548
-3.4759
3.39552
3.21165
2.86005
2.36984
1.77806
1.12437
0.446742
-0.221281
-0.85191
-1.42327
-1.91888
-2.32683
-2.63886
-2.84955
-2.95565
2.81997
2.67251
2.38932
1.99189
1.50816
0.968896
0.404528
-0.157098
-0.692011