/*--------------------------------*- C++ -*----------------------------------*\
| =========                 |                                                 |
| \\      /  F ield         | OpenFOAM: The Open Source CFD Toolbox           |
|  \\    /   O peration     | Version:  5.x                                   |
|   \\  /    A nd           | Web:      www.OpenFOAM.org                      |
|    \\/     M anipulation  |                                                 |
\*---------------------------------------------------------------------------*/
FoamFile
{
    version     2.0;
    format      ascii;
    class       volScalarField;
    location    "5.8";
    object      T;
}
// * * * * * * * * * * * * * * * * * * * * * * * * * * * * * * * * * * * * * //

dimensions      [0 0 0 1 0 0 0];

internalField   nonuniform List<scalar> 
6300
(
10.6585
11.9791
13.3102
14.6587
16.0308
17.4324
18.8684
20.3426
21.8576
23.4141
25.0111
26.6453
28.3113
30.0014
31.7061
10.655
11.9685
13.2929
14.6349
16.0012
17.3978
18.8299
20.3016
21.8157
23.3733
24.9735
26.6132
28.2867
29.9864
31.7021
10.6478
11.9471
13.2577
14.5867
15.9412
17.3276
18.7516
20.218
21.7301
23.2896
24.8961
26.5467
28.2357
29.9548
31.6932
10.6368
11.9145
13.2039
14.513
15.8491
17.2195
18.6307
20.0884
21.5968
23.1586
24.7743
26.4413
28.1541
29.9036
31.6774
10.6219
11.8699
13.1305
14.412
15.7227
17.0706
18.4632
19.9077
21.4097
22.9735
24.6007
26.2898
28.0354
29.8275
31.6516
10.6028
11.8127
13.036
14.2817
15.5589
16.8766
18.2438
19.6692
21.1607
22.7246
24.3648
26.0815
27.8699
29.7189
31.6112
10.5791
11.7421
12.9192
14.12
15.3544
16.6329
17.9659
19.3644
20.839
22.3991
24.0521
25.8012
27.6432
29.5665
31.5497
10.5508
11.6573
12.7785
13.9244
15.1058
16.3344
17.6224
18.9834
20.4314
21.9805
23.643
25.4275
27.3348
29.3537
31.4578
10.5177
11.5579
12.6129
13.6932
14.8101
15.9762
17.2058
18.5151
19.9226
21.448
23.1116
24.9307
26.9144
29.0553
31.3215
10.4796
11.4436
12.4221
13.4253
14.465
15.5543
16.7092
17.9486
19.2955
20.7771
22.4244
24.2691
26.3364
28.6312
31.1187
10.4368
11.3149
12.2063
13.121
14.07
15.0668
16.1279
17.2743
18.5334
19.9402
21.5394
23.3844
25.5304
28.014
30.8119
10.3896
11.1727
11.9674
12.7821
13.6272
14.5148
15.461
16.4873
17.6233
18.9106
20.4084
22.1984
24.3864
27.0821
30.3263
10.3387
11.0189
11.7081
12.413
13.1416
13.904
14.714
15.5905
16.5616
17.6704
18.9848
20.6143
22.7342
25.6013
29.4848
10.2848
10.8562
11.4332
12.0201
12.6221
13.2457
13.9002
14.5988
15.3622
16.2245
17.2457
18.5396
20.3344
23.1036
27.7595
10.2291
10.6878
11.1483
11.6121
12.0808
12.5565
13.0421
13.5421
14.0637
14.6193
15.2339
15.9635
16.9598
18.719
23.1886
33.2719
34.6902
36.0961
37.4827
38.8431
40.1712
41.4614
42.7087
43.909
45.0586
46.1546
47.1948
48.1772
49.1004
49.9634
50.7655
51.5061
52.1852
52.8027
53.3588
53.8541
54.2891
54.6647
54.9819
55.2417
55.4453
55.594
55.6893
55.7326
55.7254
55.6691
55.5653
55.4155
55.2211
54.9836
54.7044
54.3848
54.0263
53.6302
53.1976
52.73
52.2285
51.6944
51.129
50.5334
49.9087
49.2561
48.5767
47.8713
47.1411
46.3867
45.6092
44.8092
43.9876
43.1451
42.2825
41.4006
40.5002
39.5822
38.6474
37.6968
36.7314
35.7519
34.7595
33.755
32.7395
31.714
30.6795
29.6374
28.5888
27.5353
26.4785
25.4202
24.3623
23.307
22.2566
21.2135
20.1802
19.1593
18.1533
17.1649
16.1964
15.2502
14.3287
13.4337
12.5671
11.7303
10.9245
10.1504
9.40849
33.2789
34.7074
36.1234
37.5196
38.889
40.2252
41.5224
42.7758
43.9811
45.1349
46.2343
47.2771
48.2615
49.1862
50.0503
50.853
51.5939
52.2729
52.89
53.4455
53.9398
54.3737
54.7479
55.0635
55.3215
55.5232
55.67
55.7632
55.8043
55.7949
55.7365
55.6305
55.4786
55.2821
55.0426
54.7614
54.4399
54.0795
53.6815
53.2471
52.7777
52.2745
51.7386
51.1715
50.5742
49.948
49.2939
48.613
47.9063
47.1748
46.4193
45.6407
44.8396
44.0169
43.1733
42.3095
41.4264
40.5248
39.6055
38.6695
37.7176
36.7508
35.77
34.7762
33.7703
32.7534
31.7263
30.6901
29.6461
28.5955
27.5397
26.4803
25.4191
24.3582
23.2996
22.2457
21.199
20.1621
19.1375
18.1278
17.1358
16.1639
15.2146
14.2901
13.3926
12.5239
11.6855
10.8786
10.104
9.36214
33.2925
34.742
36.1786
37.5945
38.982
40.3344
41.6459
42.9113
44.1266
45.2886
46.3945
47.4425
48.4309
49.3585
50.2246
51.0285
51.7699
52.4487
53.065
53.6191
54.1116
54.543
54.9144
55.2268
55.4813
55.6792
55.8219
55.9109
55.9477
55.934
55.8711
55.7609
55.6047
55.404
55.1604
54.8753
54.55
54.1858
53.7841
53.3461
52.8731
52.3663
51.827
51.2564
50.6558
50.0264
49.3692
48.6855
47.9762
47.2422
46.4844
45.7035
44.9003
44.0754
43.2296
42.3636
41.4782
40.5741
39.6523
38.7137
37.7592
36.7897
35.8062
34.8097
33.801
32.7812
31.751
30.7115
29.6638
28.609
27.5486
26.4841
25.4173
24.3502
23.285
22.2241
21.1702
20.1258
19.0937
18.0767
17.0774
16.0987
15.1429
14.2126
13.3099
12.4368
11.5951
10.786
10.0103
9.26861
33.3121
34.7943
36.2632
37.7096
39.1249
40.5021
41.8348
43.1181
44.3483
45.5221
46.6375
47.6928
48.6868
49.6185
50.4874
51.293
52.035
52.7135
53.3285
53.8805
54.3701
54.7979
55.165
55.4724
55.7215
55.9135
56.0501
56.1327
56.1629
56.1425
56.0731
55.9563
55.7937
55.5868
55.3371
55.0461
54.715
54.3452
53.938
53.4945
53.016
52.5039
51.9593
51.3835
50.7779
50.1437
49.482
48.794
48.0807
47.343
46.5818
45.7976
44.9913
44.1633
43.3143
42.4449
41.556
40.6483
39.7226
38.7801
37.8216
36.8481
35.8606
34.86
33.8473
32.8232
31.7886
30.7442
29.6911
28.6303
27.563
26.4908
25.4154
24.339
23.2637
22.1922
21.1272
20.0715
19.0279
17.9996
16.9893
16
15.0343
14.0949
13.1843
12.3045
11.4576
10.645
9.86769
9.1262
33.3365
34.8654
36.3797
37.8685
39.3223
40.7329
42.0941
43.4009
44.6501
45.839
46.9663
48.0307
49.0315
49.9682
50.8404
51.648
52.3907
53.0686
53.6818
54.2309
54.7164
55.1392
55.5004
55.801
56.0427
56.2267
56.3548
56.4287
56.45
56.4206
56.3422
56.2166
56.0453
55.83
55.5723
55.2734
54.9347
54.5575
54.1429
53.6922
53.2066
52.6872
52.1355
51.5527
50.9403
50.2995
49.6317
48.938
48.2195
47.477
46.7113
45.9229
45.1125
44.2805
43.4274
42.5537
41.6601
40.7474
39.8166
38.8687
37.9048
36.9259
35.9331
34.9273
33.9093
32.8798
31.8395
30.789
29.729
28.6603
27.584
26.5016
25.4147
24.3256
23.2367
22.1506
21.0704
19.9992
18.94
17.8962
16.8708
15.867
14.8876
13.9357
13.0139
12.1247
11.2705
10.4529
9.6733
8.93223
33.3647
34.9568
36.5322
38.0774
39.5811
41.0344
42.4308
43.7661
45.0377
46.2441
47.3846
48.4592
49.4675
50.4098
51.2858
52.0955
52.8388
53.5157
54.1266
54.6718
55.1521
55.5683
55.9218
56.2137
56.4457
56.6194
56.7367
56.7993
56.8092
56.7682
56.6784
56.5415
56.3593
56.1335
55.8656
55.5569
55.2089
54.8225
54.3989
53.9392
53.4446
52.9162
52.3554
51.7637
51.1426
50.4934
49.8178
49.1169
48.3918
47.6434
46.8724
46.0792
45.2642
44.4274
43.5693
42.6903
41.7909
40.872
39.9346
38.9798
38.009
37.0232
36.0238
35.0115
33.9873
32.9515
31.9047
30.847
29.7788
28.7007
27.6134
26.5182
25.4169
24.3116
23.2051
22.1002
21.0004
19.9091
18.8298
17.766
16.721
15.6984
14.7012
13.7328
12.7962
11.8945
11.0303
10.206
9.42328
8.68285
33.3952
35.0717
36.7275
38.3454
39.9118
41.4169
42.8548
44.2224
45.5184
46.7431
47.8973
48.982
49.998
50.9458
51.8257
52.6376
53.3814
54.0571
54.665
55.2053
55.6789
56.0869
56.4306
56.7116
56.9316
57.0925
57.1962
57.2448
57.2405
57.1852
57.0812
56.9305
56.735
56.4965
56.2165
55.8963
55.5372
55.1401
54.7059
54.2356
53.7302
53.1908
52.619
52.0162
51.3841
50.7246
50.0393
49.3296
48.5968
47.8417
47.0648
46.2663
45.4461
44.6043
43.7407
42.8555
41.9491
41.0225
40.0768
39.1134
38.1338
37.1397
36.1322
35.1125
34.0812
33.0387
31.9849
30.9196
29.8426
28.7538
27.6537
26.5434
25.4244
24.2991
23.1706
22.0422
20.9178
19.8014
18.6969
17.6082
16.5389
15.4928
14.4733
13.4839
12.5282
11.6099
10.7325
9.89915
9.11218
8.37271
33.4268
35.216
36.9769
38.687
40.3299
41.8956
43.3796
44.7808
46.101
47.3428
48.5093
49.603
50.6258
51.5789
52.4626
53.2768
54.0211
54.6954
55.2995
55.8338
56.2993
56.6971
57.0288
57.2963
57.5016
57.6467
57.734
57.7656
57.7439
57.6714
57.5503
57.383
57.1717
56.9181
56.6241
56.2908
55.9192
55.5101
55.064
54.5816
54.0637
53.5113
52.9261
52.3098
51.6644
50.9921
50.295
49.5749
48.8331
48.0704
47.2873
46.4836
45.6586
44.8117
43.9424
43.0503
42.1359
41.1999
40.2438
39.2696
38.2791
37.2746
36.2577
35.2295
34.1909
33.1416
32.0811
31.0085
29.9227
28.8227
27.7084
26.5805
25.4404
24.2909
23.1354
21.9781
20.8235
19.6763
18.541
17.422
16.3233
15.2486
14.2017
13.1862
12.2062
11.2662
10.3711
9.52534
8.73254
7.99449
33.4591
35.4003
37.299
39.1246
40.8584
42.4914
44.0225
45.4553
46.7956
48.0502
49.2251
50.3251
51.3532
52.3109
53.1986
54.0155
54.7608
55.4336
56.0334
56.5605
57.016
57.4013
57.7185
57.9696
58.1571
58.2833
58.3508
58.362
58.3196
58.2263
58.0848
57.8979
57.6679
57.3971
57.0872
56.7393
56.3542
55.9322
55.4734
54.9777
54.4457
53.8782
53.277
52.6442
51.9824
51.2944
50.5829
49.8504
49.0984
48.3278
47.5388
46.7306
45.9018
45.0507
44.176
43.2767
42.3528
41.4054
40.4364
39.4483
38.4441
37.4267
36.3986
35.3612
34.3151
33.26
32.1943
31.116
30.0226
28.9118
27.7824
26.6345
25.4697
24.291
23.1025
21.9097
20.7181
19.5336
18.3614
17.2064
16.0728
14.9644
13.8846
12.8371
11.8263
10.8579
9.93845
9.07511
8.27391
7.53796
33.494
35.6453
37.7256
39.694
41.5311
43.2332
44.8065
46.2619
47.6127
48.8714
50.048
51.1498
52.1808
53.1428
54.0353
54.8565
55.604
56.2757
56.8708
57.3893
57.8326
58.2026
58.502
58.7333
58.8996
59.0034
59.0474
59.0345
58.9674
58.8494
58.6837
58.4735
58.2219
57.9313
57.6037
57.2403
56.8413
56.4064
55.9346
55.4251
54.8775
54.2927
53.6724
53.0194
52.3371
51.6294
50.9003
50.1529
49.3895
48.6109
47.817
47.0063
46.1761
45.3231
44.4442
43.5376
42.6028
41.6413
40.6555
39.6495
38.6274
37.5938
36.5521
35.5046
34.4519
33.3929
32.3252
31.2448
30.1469
29.0271
27.8826
26.7126
25.5187
24.3045
23.0757
21.839
20.6023
19.3728
18.1568
16.9597
15.7858
14.6385
13.5207
12.4348
11.3852
10.3787
9.42488
8.53525
7.72117
6.98849
33.5399
35.9918
38.3127
40.4517
42.3975
44.16
45.7592
47.2184
48.5616
49.8098
50.9778
52.0753
53.1069
54.0739
54.9738
55.8026
56.555
57.2272
57.8172
58.3254
58.7536
59.1047
59.3822
59.5898
59.7308
59.8083
59.825
59.7837
59.6875
59.5401
59.3454
59.1077
58.8308
58.5178
58.1708
57.7912
57.3789
56.9325
56.4492
55.9261
55.362
54.7572
54.114
53.4356
52.7273
51.9943
51.2429
50.4776
49.7014
48.9152
48.1186
47.3091
46.4823
45.6318
44.7515
43.8381
42.8907
41.9113
40.9033
39.8729
38.8266
37.7717
36.7134
35.6551
34.597
33.5379
32.4737
31.3982
30.3024
29.1775
28.0189
26.8245
25.5963
24.3387
23.0596
21.7682
20.4759
19.1921
17.9247
16.6792
15.4602
14.2702
13.1104
11.9803
10.8818
9.82363
8.81866
7.88646
7.0511
6.32415
33.6259
36.5263
39.1613
41.4867
43.5272
45.3209
46.913
48.3412
49.6465
50.863
52.0083
53.0949
54.1252
55.1005
56.0136
56.8579
57.6205
58.296
58.8805
59.3757
59.7844
60.1116
60.3621
60.5409
60.6525
60.6997
60.6849
60.6109
60.4803
60.2978
60.0678
59.7974
59.4905
59.1521
58.7838
58.3883
57.9645
57.5109
57.0202
56.4851
55.904
55.276
54.6052
53.8943
53.1519
52.3848
51.6048
50.817
50.0268
49.2335
48.4381
47.6359
46.8219
45.9828
45.1057
44.187
43.224
42.2216
41.1828
40.1187
39.0374
37.954
36.8743
35.8045
34.743
33.6898
32.638
31.5805
30.4991
29.3762
28.2063
26.9846
25.7161
24.4037
23.0608
21.6981
20.3371
18.9874
17.6609
16.3603
15.0928
13.8579
12.6573
11.4801
10.3201
9.1918
8.10752
7.0981
6.22482
5.51025
33.8544
37.4425
40.4548
42.9313
45.0115
46.7715
48.3019
49.6399
50.8582
52.0178
53.1221
54.1948
55.2214
56.2157
57.1512
58.0299
58.8103
59.4949
60.0709
60.5495
60.9314
61.2278
61.4439
61.5878
61.6656
61.6792
61.6289
61.5183
61.3466
61.1226
60.8474
60.5382
60.1946
59.8282
59.435
59.0249
58.5918
58.1415
57.654
57.109
56.5126
55.8555
55.1529
54.3971
53.6112
52.7926
51.977
51.159
50.3556
49.554
48.7665
47.9787
47.1967
46.3877
45.5189
44.5988
43.6132
42.5833
41.4981
40.3886
39.2503
38.1302
37.0203
35.9416
34.8762
33.8389
32.8101
31.7965
30.7549
29.6422
28.4678
27.2117
25.8986
24.5121
23.0899
21.6255
20.1816
18.7488
17.3596
15.9933
14.6784
13.3958
12.1703
10.9551
9.71254
8.4964
7.28845
6.11357
5.16989
4.48856
34.6355
39.1872
42.5194
44.9458
46.9562
48.5521
49.9668
51.1103
52.1537
53.2513
54.2804
55.36
56.3635
57.4143
58.3698
59.3421
60.1371
60.8492
61.4002
61.8617
62.2004
62.4586
62.6284
62.7288
62.7699
62.7497
62.6585
62.5126
62.2869
62.0201
61.675
61.3273
60.9302
60.5418
60.1092
59.6936
59.2428
58.8244
58.3697
57.8057
57.2077
56.4995
55.7761
54.9424
54.1166
53.1954
52.3516
51.479
50.681
49.8534
49.0943
48.3123
47.6097
46.878
46.0051
45.1042
44.0652
43.0242
41.8479
40.6991
39.4365
38.2913
37.1206
36.0589
34.9685
33.9753
32.9599
32.0523
31.1125
29.9967
28.8466
27.5202
26.1866
24.6715
23.1797
21.5227
20.01
18.4471
17.0252
15.5521
14.2172
12.8513
11.6682
10.4693
9.06678
7.78907
6.42164
4.79602
3.73707
3.15717
37.8628
42.6875
45.8875
47.5585
49.4968
50.5928
52.0213
52.7239
53.3703
54.5826
55.3651
56.6336
57.4364
58.7492
59.5628
60.9087
61.5822
62.4343
62.8572
63.3493
63.5841
63.8156
63.9115
63.9539
63.9612
63.9214
63.7655
63.6205
63.2853
63.0294
62.5049
62.1864
61.6521
61.318
60.7579
60.4116
59.8459
59.5586
59.2417
58.5505
58.0601
57.1644
56.5571
55.4752
54.7582
53.4856
52.7669
51.6907
51.0478
50.0532
49.4543
48.5304
48.0639
47.5706
46.531
45.8077
44.5195
43.6591
42.1571
41.1728
39.4531
38.4883
37.0635
36.2166
34.9205
34.143
32.954
32.3539
31.7232
30.4002
29.4788
27.8385
26.7354
24.7972
23.5068
21.2119
19.9105
17.9419
16.7642
14.9115
13.8005
12.0433
11.1885
10.2767
8.24113
7.2108
5.92653
2.6624
1.61434
1.33428
8.62764
7.82132
7.05898
6.33843
5.65695
5.0114
4.39839
3.81434
3.25566
2.71874
2.20002
1.69605
1.20343
0.71886
0.239088
8.58199
7.7772
7.01707
6.29926
5.62093
4.97879
4.36934
3.78892
3.23385
2.70048
2.18525
1.68467
1.19537
0.714047
0.237488
8.48992
7.6883
6.9327
6.22052
5.54861
4.91342
4.31118
3.73808
3.19028
2.66405
2.15578
1.66199
1.1793
0.704461
0.234303
8.34984
7.55325
6.80479
6.10142
5.43948
4.815
4.22383
3.66187
3.12508
2.60962
2.11181
1.62817
1.15536
0.690187
0.22956
8.15927
7.36993
6.63169
5.94077
5.29282
4.68318
4.10722
3.56041
3.0385
2.53749
2.05364
1.58349
1.12376
0.671358
0.223305
7.91467
7.13541
6.41116
5.73707
5.10774
4.51761
3.96137
3.43401
2.93098
2.44815
1.98174
1.52835
1.08481
0.64817
0.215606
7.61121
6.84574
6.14035
5.48853
4.88335
4.3181
3.78657
3.28322
2.80323
2.34233
1.89681
1.46334
1.03896
0.62089
0.206552
7.24235
6.4959
5.81587
5.19324
4.61898
4.08479
3.58351
3.10904
2.65632
2.2211
1.79977
1.38924
0.986762
0.58987
0.196262
6.79932
6.07952
5.43389
4.84952
4.31444
3.81853
3.35356
2.91306
2.49188
2.08594
1.69192
1.30705
0.928968
0.555556
0.184884
6.27019
5.58887
4.99056
4.45642
3.97068
3.52125
3.09911
2.6977
2.31215
1.93882
1.57488
1.21806
0.866484
0.518494
0.172601
5.63868
5.01511
4.48299
4.01482
3.59056
3.1966
2.82389
2.46643
2.12017
1.78228
1.45069
1.12382
0.800397
0.479325
0.159625
4.88287
4.3498
3.91142
3.52924
3.18009
2.85065
2.53337
2.22393
1.9198
1.61941
1.32175
1.02612
0.731945
0.438776
0.146194
3.97564
3.58974
3.28357
3.01059
2.74986
2.49249
2.23497
1.97609
1.71564
1.45378
1.19078
0.926929
0.662478
0.397633
0.132568
2.8947
2.74989
2.62247
2.47962
2.31622
2.13445
1.93788
1.72978
1.51286
1.28926
1.06064
0.828329
0.593393
0.356703
0.11901
1.67218
1.89261
1.97675
1.96918
1.9009
1.79119
1.65228
1.49227
1.31675
1.12973
0.934167
0.732342
0.526051
0.316772
0.105777
10.1774
10.5317
10.8842
11.2336
11.5781
11.9154
12.2422
12.5537
12.8419
13.0938
13.284
13.3576
13.167
12.215
8.42113
10.1309
10.391
10.6463
10.8928
11.1261
11.3398
11.5257
11.6711
11.7565
11.7496
11.5923
11.1718
10.2477
8.2755
4.05752
10.0854
10.2537
10.4143
10.5613
10.6875
10.7836
10.8372
10.83
10.7351
10.5097
10.0834
9.33561
8.05622
5.89552
2.40014
10.0417
10.1218
10.1918
10.2441
10.2697
10.257
10.1908
10.0499
9.80426
9.40915
8.79754
7.86852
6.47666
4.44235
1.64892
10.0002
9.9968
9.98151
9.94552
9.87844
9.76746
9.59613
9.34258
8.97712
8.45893
7.73209
6.72279
5.34318
3.51633
1.24797
9.96144
9.88005
9.7856
9.66848
9.51764
9.31982
9.05853
8.71288
8.25601
7.65354
6.86275
5.83419
4.52022
2.89689
1.00505
9.92562
9.77237
9.60542
9.41485
9.18945
8.9162
8.57949
8.16038
7.63594
6.9789
6.15846
5.14377
3.91205
2.4639
0.844228
9.89291
9.67419
9.44164
9.18536
8.89447
8.55664
8.15763
7.681
7.10794
6.41767
5.58904
4.60403
3.45415
2.15
0.731173
9.86336
9.58561
9.29431
8.9799
8.63208
8.23952
7.78965
7.26857
6.66129
5.95249
5.1282
4.17875
3.10338
1.91573
0.648332
9.83691
9.50645
9.16301
8.79761
8.40073
7.96218
7.47109
6.91597
6.28512
5.5675
4.75424
3.8409
2.83055
1.73684
0.585809
9.81343
9.43628
9.04697
8.63718
8.19829
7.72132
7.19698
6.61593
5.96918
5.24892
4.44976
3.57041
2.61559
1.59775
0.537577
9.79275
9.37454
8.94513
8.49695
8.02229
7.51333
6.96225
6.3615
5.70426
4.9851
4.20095
3.35231
2.44439
1.48805
0.499748
9.77465
9.32057
8.85632
8.3751
7.87009
7.33457
6.76198
6.14629
5.48234
4.7664
3.99693
3.17535
2.30681
1.40053
0.469693
9.7589
9.27366
8.77929
8.26975
7.73909
7.18153
6.59164
5.96459
5.2965
4.58485
3.82907
3.03101
2.19541
1.33008
0.445569
9.74526
9.23308
8.71279
8.17907
7.62675
7.05092
6.44708
5.81138
5.14089
4.43395
3.69057
2.91272
2.10467
1.27293
0.426049
9.73351
9.19813
8.65561
8.1013
7.53074
6.93976
6.32465
5.68232
5.01058
4.30836
3.57598
2.81541
2.03036
1.2263
0.410149
9.72341
9.16814
8.60662
8.03482
7.4489
6.84535
6.2211
5.57368
4.90144
4.2037
3.48096
2.73508
1.96926
1.18806
0.39713
9.71477
9.14248
8.56476
7.97812
7.3793
6.76532
6.13363
5.48228
4.81
4.11638
3.40202
2.66859
1.91884
1.15657
0.386422
9.70739
9.12058
8.52909
7.9299
7.32022
6.69756
6.05982
5.40541
4.73336
4.04347
3.33632
2.61342
1.87711
1.13056
0.377585
9.7011
9.10195
8.49875
7.88895
7.27016
6.64028
5.99758
5.34077
4.66912
3.98252
3.28157
2.56755
1.84249
1.10901
0.370269
9.69576
9.08612
8.47301
7.85424
7.22779
6.5919
5.94513
5.28643
4.61525
3.93155
3.23588
2.52936
1.81371
1.09112
0.364198
9.69123
9.07269
8.45119
7.82486
7.19198
6.55108
5.90096
5.24077
4.57007
3.88889
3.19771
2.49752
1.78974
1.07624
0.35915
9.68739
9.06133
8.43273
7.80002
7.16175
6.51666
5.86377
5.20239
4.53217
3.85316
3.1658
2.47093
1.76976
1.06383
0.354947
9.68415
9.05171
8.41713
7.77904
7.13624
6.48766
5.83248
5.17014
4.50038
3.82324
3.13911
2.44872
1.75308
1.05349
0.351441
9.6814
9.04359
8.40395
7.76134
7.11473
6.46323
5.80616
5.14306
4.4737
3.79816
3.11677
2.43014
1.73914
1.04485
0.348515
9.67909
9.03674
8.39284
7.74642
7.09662
6.44268
5.78404
5.12031
4.45132
3.77714
3.09806
2.4146
1.72749
1.03763
0.34607
9.67714
9.03096
8.38348
7.73386
7.08137
6.42539
5.76544
5.10121
4.43255
3.75952
3.08239
2.40159
1.71774
1.03159
0.344026
9.67549
9.0261
8.37559
7.72328
7.06855
6.41086
5.74982
5.08517
4.4168
3.74476
3.06927
2.39071
1.70959
1.02655
0.342317
9.67411
9.02201
8.36896
7.71439
7.05777
6.39866
5.73671
5.07172
4.4036
3.73239
3.05828
2.3816
1.70276
1.02232
0.340887
9.67295
9.01857
8.3634
7.70693
7.04873
6.38842
5.72572
5.06045
4.39254
3.72203
3.04909
2.37397
1.69706
1.01879
0.339692
9.67197
9.01568
8.35872
7.70067
7.04114
6.37984
5.71651
5.05101
4.38329
3.71337
3.0414
2.3676
1.69229
1.01584
0.338694
9.67115
9.01327
8.35481
7.69543
7.03479
6.37265
5.70881
5.04312
4.37555
3.70613
3.03498
2.36228
1.68831
1.01338
0.337861
9.67047
9.01125
8.35154
7.69105
7.02949
6.36666
5.70238
5.03654
4.3691
3.7001
3.02962
2.35785
1.68499
1.01133
0.337167
9.6699
9.00957
8.34882
7.6874
7.02508
6.36167
5.69703
5.03106
4.36374
3.69508
3.02518
2.35417
1.68224
1.00963
0.33659
9.66943
9.00818
8.34657
7.68438
7.02143
6.35754
5.6926
5.02653
4.3593
3.69093
3.02149
2.35112
1.67996
1.00822
0.336113
9.66904
9.00703
8.34471
7.6819
7.01842
6.35414
5.68896
5.0228
4.35565
3.68751
3.01847
2.34861
1.67809
1.00706
0.335722
9.66873
9.0061
8.3432
7.67987
7.01597
6.35138
5.68599
5.01976
4.35267
3.68474
3.01601
2.34658
1.67656
1.00612
0.335403
9.66848
9.00535
8.34199
7.67825
7.01401
6.34915
5.68361
5.01733
4.35029
3.68251
3.01403
2.34494
1.67534
1.00536
0.335147
9.66828
9.00476
8.34103
7.67697
7.01246
6.34741
5.68174
5.01542
4.34842
3.68076
3.01248
2.34366
1.67438
1.00477
0.334947
9.66813
9.00431
8.34031
7.67601
7.0113
6.34609
5.68033
5.01397
4.347
3.67944
3.01131
2.34269
1.67366
1.00432
0.334795
9.66802
9.004
8.33981
7.67533
7.01048
6.34516
5.67934
5.01295
4.34601
3.6785
3.01049
2.34201
1.67315
1.00401
0.334688
9.66795
9.00381
8.33949
7.67491
7.00997
6.34459
5.67872
5.01233
4.34539
3.67793
3.00998
2.34159
1.67283
1.00381
0.334623
9.66793
9.00373
8.33937
7.67474
7.00977
6.34436
5.67848
5.01208
4.34515
3.6777
3.00977
2.34142
1.67271
1.00373
0.334596
9.66794
9.00376
8.33943
7.67482
7.00986
6.34447
5.67859
5.01219
4.34526
3.67781
3.00987
2.34149
1.67276
1.00377
0.334608
9.66799
9.00391
8.33967
7.67514
7.01025
6.34491
5.67906
5.01267
4.34573
3.67825
3.01026
2.34182
1.67301
1.00392
0.334659
9.66808
9.00418
8.3401
7.67572
7.01095
6.3457
5.67991
5.01354
4.34658
3.67904
3.01096
2.3424
1.67344
1.00419
0.33475
9.66821
9.00458
8.34074
7.67658
7.01198
6.34687
5.68116
5.01482
4.34783
3.68021
3.012
2.34326
1.67408
1.00458
0.334884
9.66839
9.00511
8.3416
7.67773
7.01338
6.34845
5.68285
5.01655
4.34953
3.68179
3.0134
2.34442
1.67495
1.00512
0.335065
9.66863
9.0058
8.34271
7.67922
7.01518
6.35048
5.68503
5.01878
4.35171
3.68383
3.01521
2.34591
1.67607
1.00581
0.335299
9.66892
9.00666
8.34411
7.68109
7.01744
6.35304
5.68777
5.02158
4.35445
3.6864
3.01748
2.34779
1.67747
1.00668
0.335593
9.66928
9.00772
8.34583
7.6834
7.02023
6.35619
5.69115
5.02504
4.35783
3.68956
3.02028
2.35011
1.67921
1.00775
0.335956
9.66972
9.00902
8.34793
7.68621
7.02364
6.36003
5.69527
5.02925
4.36196
3.69342
3.0237
2.35294
1.68132
1.00906
0.336398
9.67025
9.01059
8.35047
7.68961
7.02775
6.36468
5.70025
5.03436
4.36696
3.69809
3.02784
2.35637
1.68389
1.01064
0.336934
9.67089
9.01248
8.35353
7.6937
7.0327
6.37028
5.70626
5.0405
4.37298
3.70372
3.03283
2.3605
1.68698
1.01256
0.337581
9.67165
9.01474
8.35719
7.69861
7.03864
6.377
5.71346
5.04788
4.3802
3.71047
3.03882
2.36546
1.69069
1.01485
0.338357
9.67257
9.01744
8.36157
7.70448
7.04575
6.38504
5.72208
5.0567
4.38885
3.71857
3.046
2.37141
1.69513
1.0176
0.339288
9.67366
9.02067
8.3668
7.71148
7.05423
6.39463
5.73237
5.06725
4.39919
3.72824
3.05459
2.37852
1.70046
1.02089
0.340402
9.67496
9.02452
8.37302
7.71983
7.06434
6.40607
5.74465
5.07984
4.41153
3.7398
3.06484
2.38702
1.70682
1.02483
0.341734
9.6765
9.02909
8.38044
7.72976
7.07638
6.4197
5.75929
5.09484
4.42626
3.75359
3.07709
2.39717
1.71442
1.02953
0.343326
9.67834
9.03453
8.38925
7.74158
7.0907
6.43593
5.77672
5.11273
4.44382
3.77005
3.09171
2.4093
1.72349
1.03515
0.345228
9.68052
9.04099
8.39972
7.75562
7.10774
6.45523
5.79747
5.13404
4.46474
3.78967
3.10915
2.42377
1.73434
1.04186
0.347501
9.68311
9.04865
8.41214
7.7723
7.12797
6.47818
5.82216
5.15941
4.48968
3.81308
3.12997
2.44106
1.7473
1.04989
0.350219
9.68618
9.05774
8.42688
7.79209
7.152
6.50546
5.85153
5.18961
4.51941
3.841
3.15483
2.46171
1.76278
1.05949
0.353469
9.68982
9.0685
8.44434
7.81555
7.18052
6.53785
5.88645
5.22556
4.55482
3.8743
3.18451
2.48639
1.78131
1.07097
0.357359
9.69412
9.08124
8.46502
7.84336
7.21434
6.57631
5.92796
5.26835
4.59703
3.91404
3.21997
2.51591
1.80348
1.08472
0.36202
9.6992
9.09629
8.48947
7.87626
7.25441
6.62195
5.97727
5.31927
4.64734
3.96149
3.26236
2.55124
1.83004
1.10121
0.367609
9.7052
9.11406
8.51835
7.91517
7.30185
6.67605
6.03585
5.37985
4.70731
4.01814
3.31307
2.59357
1.86191
1.121
0.374323
9.71227
9.135
8.55242
7.96112
7.35796
6.74015
6.10538
5.45193
4.77881
4.08584
3.37379
2.64435
1.90019
1.14481
0.382401
9.72057
9.15964
8.59254
8.0153
7.42423
6.81602
6.18788
5.53767
4.86409
4.1668
3.44657
2.70535
1.94626
1.17349
0.392141
9.73032
9.18857
8.63969
8.07907
7.5024
6.90574
6.2857
5.63963
4.96582
4.26368
3.53393
2.77876
2.00182
1.20814
0.403915
9.74173
9.22246
8.69498
8.154
7.59445
7.01168
6.40158
5.76085
5.08722
4.37972
3.63895
2.86729
2.069
1.25011
0.418192
9.75505
9.26203
8.75965
8.24181
7.70263
7.13659
6.53873
5.90492
5.23213
4.51885
3.7654
2.97431
2.15047
1.30113
0.435567
9.77054
9.30809
8.83505
8.34443
7.82944
7.28358
6.70084
6.07603
5.40516
4.68586
3.91799
3.10406
2.24964
1.36341
0.456812
9.78849
9.36151
8.92264
8.46397
7.97769
7.45616
6.89215
6.27913
5.6118
4.8866
4.10255
3.26191
2.37089
1.43984
0.482931
9.80919
9.42318
9.02397
8.60269
8.15041
7.65824
7.11747
6.51995
5.8586
5.1282
4.32638
3.45475
2.51994
1.53422
0.515264
9.83294
9.49401
9.14062
8.76291
8.35082
7.89405
7.38219
6.80507
6.15333
5.41938
4.59869
3.69146
2.70433
1.65167
0.555632
9.86002
9.57489
9.27414
8.947
8.58225
8.1681
7.69221
7.14198
6.50513
5.77077
4.93107
3.98363
2.93423
1.79924
0.606568
9.89069
9.66661
9.42596
9.1572
8.84798
8.485
8.05382
7.53902
6.92464
6.19529
5.33825
4.3466
3.22353
1.98687
0.671711
9.92516
9.76982
9.59731
9.39546
9.15102
8.84922
8.47349
8.0052
7.42394
6.70847
5.83888
4.8008
3.59171
2.229
0.756477
9.96355
9.88495
9.78902
9.66329
9.49385
9.26477
8.9574
8.54979
8.01643
7.32862
6.4565
5.37373
4.06656
2.54736
0.869319
10.0059
10.0121
10.0014
9.96144
9.87809
9.73466
9.51087
9.18167
8.71612
8.07675
7.22036
6.10247
4.68861
2.97602
1.02423
10.0521
10.151
10.2341
10.2897
10.304
10.2603
10.1375
9.9082
9.53649
8.97553
8.16576
7.0367
5.51808
3.57078
1.24628
10.1018
10.3009
10.486
10.6466
10.7701
10.8409
10.8381
10.7336
10.4882
10.047
9.33285
8.24141
6.64519
4.42745
1.58502
10.1547
10.4604
10.7548
11.0291
11.2729
11.4725
11.6092
11.6566
11.5759
11.308
10.7619
9.7966
8.20384
5.71791
2.15127
10.2101
10.6278
11.0375
11.4329
11.8064
12.1477
12.4423
12.6687
12.7935
12.7622
12.4818
11.7875
10.3827
7.75879
3.22853
10.2673
10.8007
11.33
11.8519
12.3622
12.8552
13.3226
13.7511
14.1193
14.3893
14.4892
14.2716
13.408
11.1235
5.64382
10.3255
10.9765
11.6276
12.2788
12.93
13.5806
14.2298
14.8754
15.5133
16.1344
16.7169
17.2041
17.4201
16.7068
12.0924
10.3836
11.1522
11.9251
12.7058
13.498
14.3069
15.1393
16.005
16.919
17.906
19.0106
20.3248
22.0773
24.9992
32.1313
10.4407
11.3248
12.2173
13.1246
14.0544
15.0168
16.0256
17.1009
18.2738
19.5958
21.1587
23.141
25.9223
30.3674
38.4062
10.4959
11.4916
12.4992
13.5277
14.5881
15.6944
16.8656
18.1288
19.5249
21.1181
23.0152
25.402
28.6116
33.2398
40.2618
0.687355
1.23166
1.46889
1.55691
1.55813
1.50326
1.4098
1.28875
1.14751
0.991302
0.823964
0.648437
0.467052
0.281737
0.0941586
0.368725
0.844026
1.1108
1.24237
1.28547
1.26829
1.20851
1.11775
1.00404
0.873176
0.729455
0.576219
0.416142
0.251455
0.0841083
0.232138
0.601196
0.846586
0.989262
1.05464
1.06289
1.02871
0.962658
0.872482
0.763964
0.641548
0.508746
0.368427
0.223018
0.074661
0.161671
0.444241
0.653693
0.789821
0.863471
0.886958
0.871022
0.824314
0.753648
0.664395
0.560844
0.446488
0.324243
0.196625
0.0658831
0.119518
0.338056
0.511712
0.633757
0.707129
0.73839
0.734696
0.702598
0.647712
0.574748
0.487639
0.389702
0.283786
0.172398
0.0578161
0.0915971
0.263036
0.405565
0.511487
0.580021
0.614089
0.618088
0.596697
0.554324
0.494918
0.421947
0.338453
0.247125
0.150388
0.0504779
0.0718387
0.20809
0.324835
0.415174
0.476843
0.51066
0.519106
0.505361
0.472758
0.424501
0.363558
0.292639
0.214219
0.13058
0.0438652
0.0572362
0.166688
0.262439
0.338767
0.393002
0.424845
0.435526
0.427116
0.402058
0.362889
0.312093
0.252032
0.184934
0.112906
0.0379574
0.0461198
0.134797
0.21353
0.277697
0.324705
0.353721
0.365201
0.360426
0.341151
0.309348
0.267058
0.216309
0.159072
0.0972574
0.0327203
0.0374762
0.109812
0.174733
0.22854
0.268899
0.294772
0.306157
0.303803
0.288941
0.263085
0.227895
0.185088
0.136387
0.0834988
0.0281101
0.0306494
0.0899748
0.143651
0.188718
0.223151
0.245879
0.256652
0.255863
0.244361
0.223301
0.19402
0.157959
0.116607
0.0714757
0.024077
0.0251927
0.0740594
0.118548
0.156278
0.18553
0.205286
0.215173
0.215358
0.206417
0.189223
0.164851
0.1345
0.0994517
0.0610263
0.0205682
0.0207905
0.0611838
0.0981352
0.129724
0.154501
0.171543
0.18043
0.181188
0.174201
0.160129
0.13983
0.114304
0.0846399
0.0519876
0.0175303
0.0172127
0.0506976
0.0814457
0.107899
0.128843
0.14346
0.15133
0.152395
0.146904
0.135356
0.118439
0.0969789
0.0719023
0.0442017
0.0149113
0.014288
0.0421113
0.0677382
0.0898978
0.107576
0.120061
0.126954
0.128152
0.123812
0.114311
0.100201
0.0821644
0.0609863
0.0375192
0.0126618
0.0118858
0.03505
0.0564375
0.075008
0.0899146
0.100544
0.106532
0.107752
0.104302
0.0964664
0.0846871
0.0695308
0.051659
0.0318018
0.0107359
0.00990515
0.029222
0.0470925
0.0626615
0.0752222
0.0842501
0.0894179
0.0905955
0.0878369
0.081359
0.0715178
0.0587822
0.0437098
0.0269236
0.00909166
0.00826708
0.024398
0.0393453
0.0524035
0.0629824
0.0706354
0.0750742
0.0761713
0.0739532
0.0685862
0.0603575
0.0496558
0.0369502
0.0227711
0.00769138
0.00690894
0.0203957
0.0329095
0.0438665
0.0527738
0.0592521
0.0630501
0.0640483
0.0622556
0.0577998
0.050914
0.0419202
0.0312134
0.019244
0.00650141
0.00578064
0.017069
0.0275543
0.0367525
0.0442513
0.0497295
0.0529696
0.0538626
0.0524066
0.0487004
0.0429336
0.0353739
0.0263532
0.0162534
0.00549209
0.00484181
0.0142996
0.0230926
0.0308182
0.0371314
0.0417605
0.0445185
0.0453076
0.0441195
0.0410314
0.0361979
0.0298417
0.0222419
0.0137221
0.00463749
0.00405973
0.0119918
0.0193719
0.0258645
0.0311805
0.0350905
0.0374342
0.038125
0.0371515
0.0345739
0.0305192
0.0251727
0.0187693
0.0115828
0.00391503
0.00340772
0.0100673
0.0162672
0.0217275
0.0262056
0.0295078
0.0314972
0.0320979
0.0312969
0.0291418
0.0257371
0.0212375
0.0158404
0.00977757
0.00330524
0.00286394
0.00846176
0.013676
0.0182722
0.022047
0.0248365
0.0265241
0.0270438
0.0263822
0.0245773
0.0217151
0.0179252
0.0133737
0.00825657
0.00279136
0.00241045
0.00712257
0.0115137
0.0153873
0.0185723
0.0209303
0.0223617
0.0228097
0.0222612
0.0207466
0.0183372
0.0151415
0.0112995
0.00697722
0.00235904
0.00203249
0.00600621
0.00971058
0.0129805
0.0156717
0.0176671
0.0188821
0.0192674
0.0188108
0.017537
0.0155051
0.0128063
0.0095589
0.00590326
0.00199607
0.00171787
0.00507683
0.00820907
0.0109755
0.0132541
0.0149458
0.0159783
0.0163094
0.0159279
0.0148536
0.0131361
0.0108521
0.00810163
0.0050039
0.00169208
0.00145656
0.00430482
0.00696153
0.00930899
0.0112439
0.0126819
0.0135615
0.0138462
0.0135258
0.0126166
0.0111603
0.00922158
0.00688542
0.00425316
0.00143829
0.00124028
0.00366579
0.00592868
0.00792892
0.00957859
0.0108058
0.0115577
0.011803
0.0115324
0.0107595
0.00951937
0.007867
0.00587476
0.00362919
0.00122734
0.00106222