/*--------------------------------*- C++ -*----------------------------------*\
| =========                 |                                                 |
| \\      /  F ield         | OpenFOAM: The Open Source CFD Toolbox           |
|  \\    /   O peration     | Version:  5.x                                   |
|   \\  /    A nd           | Web:      www.OpenFOAM.org                      |
|    \\/     M anipulation  |                                                 |
\*---------------------------------------------------------------------------*/
FoamFile
{
    version     2.0;
    format      ascii;
    class       volScalarField;
    location    "1";
    object      gradTx;
}
// * * * * * * * * * * * * * * * * * * * * * * * * * * * * * * * * * * * * * //

dimensions      [0 -1 0 1 0 0 0];

internalField   nonuniform List<scalar> 
6300
(
589.622
591.868
596.305
602.824
611.248
621.328
632.733
645.036
657.717
670.159
681.673
691.517
698.953
703.3
703.997
587.359
589.659
594.208
600.901
609.574
619.987
631.815
644.64
657.935
671.069
683.321
693.904
702.02
706.927
708.006
582.781
585.184
589.948
596.983
606.142
617.211
629.884
643.755
658.294
672.842
686.616
698.735
708.276
714.358
716.239
575.783
578.332
583.401
590.922
600.785
612.812
626.737
642.183
658.624
675.369
691.546
706.123
717.97
725.964
729.146
566.22
568.945
574.383
582.505
593.247
606.496
622.053
639.596
658.632
678.444
698.055
716.221
731.494
742.362
747.487
553.915
556.828
562.667
571.449
583.186
597.855
615.365
635.5
657.845
681.701
705.988
729.192
749.4
764.478
772.444
538.682
541.77
547.991
557.424
570.176
586.356
606.034
629.174
655.531
684.508
714.982
745.139
772.415
793.684
805.84
520.345
523.566
530.087
540.063
553.722
571.343
593.225
619.613
650.577
685.798
724.274
763.947
801.414
831.982
850.511
498.773
502.047
508.712
519.006
533.291
552.054
575.892
605.461
641.348
683.817
732.347
784.942
837.289
882.294
911.025
473.913
477.123
483.695
493.944
508.366
527.674
552.813
584.975
625.522
675.754
736.338
806.162
880.483
948.856
995.109
445.829
448.824
454.989
464.693
478.544
497.447
522.697
556.088
599.993
657.322
731.069
822.865
929.601
1037.52
1116.77
414.738
417.342
422.729
431.285
443.657
460.859
484.427
516.672
561.023
622.456
707.734
824.607
977.519
1154.81
1303.91
381.032
383.066
387.29
394.048
403.929
417.892
437.469
465.135
504.959
563.729
652.784
790.29
1001.04
1300.25
1619.51
345.282
346.588
349.307
353.676
360.109
369.3
382.41
401.429
429.934
474.704
549.369
682.71
936.089
1425.61
2231.09
308.217
308.688
309.666
311.229
313.52
316.78
321.43
328.227
338.633
355.772
387.266
455.078
634.976
1234.97
3680.77
701.257
695.552
686.932
675.501
661.445
645.012
626.485
606.157
584.315
561.224
537.115
512.186
486.598
460.482
433.94
407.054
379.887
352.493
324.916
297.193
269.359
241.442
213.466
185.453
157.422
129.388
101.365
73.3678
45.4131
17.5195
-10.2894
-37.9843
-65.5289
-92.879
-119.981
-146.774
-173.183
-199.129
-224.521
-249.264
-273.256
-296.397
-318.589
-339.741
-359.771
-378.61
-396.204
-412.513
-427.51
-441.179
-453.515
-464.515
-474.184
-482.526
-489.547
-495.259
-499.676
-502.823
-504.731
-505.449
-505.033
-503.557
-501.1
-497.75
-493.597
-488.728
-483.222
-477.149
-470.563
-463.508
-456.009
-448.085
-439.741
-430.979
-421.797
-412.195
-402.174
-391.74
-380.907
-369.691
-358.119
-346.223
-334.044
-321.631
-309.043
-296.349
-283.629
-270.971
-258.47
-246.226
705.44
699.726
690.954
679.253
664.841
648.002
629.05
608.309
586.086
562.659
538.265
513.102
487.327
461.062
434.403
407.422
380.178
352.719
325.086
297.315
269.438
241.483
213.476
185.436
157.38
129.323
101.278
73.2569
45.2735
17.345
-10.507
-38.2548
-65.8637
-93.2907
-120.483
-147.379
-173.906
-199.98
-225.51
-250.395
-274.531
-297.81
-320.131
-341.397
-361.522
-380.435
-398.082
-414.425
-429.439
-443.113
-455.444
-466.435
-476.091
-484.417
-491.418
-497.102
-501.48
-504.573
-506.411
-507.039
-506.517
-504.92
-502.333
-498.852
-494.571
-489.585
-483.978
-477.823
-471.176
-464.08
-456.558
-448.623
-440.277
-431.517
-422.338
-412.734
-402.705
-392.256
-381.397
-370.147
-358.53
-346.577
-334.328
-321.832
-309.147
-296.341
-283.496
-270.702
-258.061
-245.677
714.03
708.28
699.17
686.882
671.708
654.005
634.164
612.566
589.562
565.455
540.493
514.869
488.728
462.178
435.295
408.135
380.744
353.16
325.418
297.55
269.588
241.56
213.489
185.396
157.294
129.196
101.109
73.0419
45.0042
17.0086
-10.9272
-38.7789
-66.5148
-94.0942
-121.467
-148.571
-175.333
-201.668
-227.478
-252.655
-277.086
-300.651
-323.236
-344.735
-365.053
-384.116
-401.868
-418.273
-433.316
-446.993
-459.311
-470.28
-479.91
-488.206
-495.171
-500.805
-505.111
-508.1
-509.797
-510.245
-509.505
-507.659
-504.805
-501.049
-496.504
-491.276
-485.462
-479.141
-472.374
-465.199
-457.636
-449.687
-441.345
-432.597
-423.426
-413.823
-403.78
-393.3
-382.393
-371.074
-359.367
-347.303
-334.918
-322.257
-309.376
-296.344
-283.244
-270.173
-257.243
-244.57
727.495
721.647
711.936
698.643
682.187
663.062
641.779
618.819
594.598
569.454
543.643
517.348
490.688
463.741
436.55
409.146
381.552
353.792
325.892
297.882
269.794
241.656
213.492
185.323
157.158
129.004
100.862
72.7342
44.6225
16.533
-11.5222
-39.5244
-67.4462
-95.2514
-122.893
-150.311
-177.432
-204.166
-230.41
-256.044
-280.935
-304.949
-327.95
-349.813
-370.43
-389.718
-407.62
-424.108
-439.177
-452.842
-465.127
-476.054
-485.644
-493.902
-500.824
-506.398
-510.61
-513.455
-514.946
-515.119
-514.04
-511.802
-508.521
-504.328
-499.361
-493.751
-487.613
-481.039
-474.094
-466.812
-459.202
-451.251
-442.933
-434.217
-425.074
-415.48
-405.422
-394.9
-383.921
-372.501
-360.664
-348.437
-335.851
-322.948
-309.775
-296.399
-282.905
-269.401
-256.013
-242.883
746.629
740.551
729.835
714.934
696.483
675.199
651.784
626.86
600.935
574.383
547.462
520.32
493.032
465.621
438.08
410.398
382.565
354.589
326.487
298.289
270.031
241.746
213.463
185.199
156.96
128.746
100.547
72.3536
44.1575
15.9559
-12.2473
-40.4398
-68.6008
-96.7
-124.696
-152.533
-180.141
-207.426
-234.275
-260.551
-286.1
-310.754
-334.348
-356.727
-377.759
-397.349
-415.437
-432.008
-447.08
-460.693
-472.902
-483.757
-493.29
-501.511
-508.403
-513.93
-518.049
-520.727
-521.954
-521.754
-520.199
-517.397
-513.496
-508.667
-503.086
-496.925
-490.328
-483.409
-476.235
-468.834
-461.194
-453.277
-445.028
-436.388
-427.305
-417.74
-407.672
-397.096
-386.024
-374.473
-362.467
-350.032
-337.193
-323.977
-310.42
-296.579
-282.539
-268.419
-254.374
-240.581
772.671
766.11
753.736
736.309
714.834
690.379
663.934
636.317
608.144
579.819
551.567
523.473
495.524
467.655
439.782
411.83
383.752
355.531
327.182
298.745
270.266
241.794
213.363
184.993
156.683
128.419
100.176
71.9263
43.6486
15.3276
-13.042
-41.456
-69.9008
-98.3543
-126.784
-155.145
-183.371
-211.371
-239.021
-266.161
-292.603
-318.136
-342.543
-365.623
-387.207
-407.176
-425.471
-442.094
-457.1
-470.58
-482.636
-493.362
-502.819
-511.021
-517.928
-523.464
-527.535
-530.055
-530.974
-530.299
-528.102
-524.522
-519.753
-514.028
-507.587
-500.662
-493.446
-486.079
-478.637
-471.132
-463.519
-455.715
-447.62
-439.132
-430.166
-420.661
-410.589
-399.948
-388.755
-377.041
-364.834
-352.158
-339.027
-325.447
-311.428
-297.002
-282.245
-267.29
-252.332
-237.613
807.544
800.013
784.888
763.488
737.449
708.399
677.741
646.549
615.543
585.12
555.418
526.387
497.871
469.664
441.565
413.413
385.109
356.62
327.97
299.222
270.455
241.741
213.134
184.656
156.296
128.015
99.7632
71.4891
43.1495
14.7152
-13.8287
-42.4847
-71.2464
-100.102
-129.032
-158.01
-186.986
-215.879
-244.557
-272.835
-300.472
-327.191
-352.699
-376.721
-399.024
-419.453
-437.946
-454.537
-469.343
-482.532
-494.293
-504.797
-514.153
-522.381
-529.409
-535.084
-539.221
-541.648
-542.247
-540.986
-537.944
-533.301
-527.329
-520.355
-512.722
-504.753
-496.714
-488.789
-481.063
-473.516
-466.048
-458.505
-450.709
-442.497
-433.733
-424.333
-414.262
-403.53
-392.178
-380.259
-367.819
-354.885
-341.455
-327.499
-312.974
-297.859
-282.194
-266.124
-249.908
-233.897
854.263
844.829
825.048
797.319
764.374
728.707
692.29
656.485
622.075
589.357
558.271
528.531
499.742
471.487
443.393
415.182
386.698
357.906
328.864
299.691
270.526
241.493
212.678
184.107
155.747
127.521
99.3335
71.0943
42.733
14.2047
-14.5118
-43.4207
-72.5184
-101.802
-131.275
-160.94
-190.786
-220.759
-250.735
-280.494
-309.725
-338.049
-365.055
-390.346
-413.589
-434.563
-453.2
-469.587
-483.94
-496.558
-507.775
-517.89
-527.104
-535.46
-542.816
-548.889
-553.336
-555.833
-556.148
-554.188
-550.032
-543.932
-536.283
-527.563
-518.271
-508.872
-499.745
-491.141
-483.155
-475.713
-468.614
-461.583
-454.327
-446.583
-438.148
-428.903
-418.819
-407.94
-396.355
-384.165
-371.456
-358.269
-344.587
-330.32
-315.323
-299.46
-282.685
-265.128
-247.151
-229.308
917.737
904.518
876.625
838.636
795.191
750.069
705.931
664.383
626.141
591.216
559.157
529.277
500.816
473.047
445.357
417.312
388.699
359.516
329.911
300.113
270.368
240.892
211.827
183.21
154.96
126.924
98.9275
70.8222
42.5016
13.9074
-14.9778
-44.1466
-73.5857
-103.296
-133.308
-163.678
-194.469
-225.705
-257.294
-288.981
-320.351
-350.87
-379.945
-406.983
-431.476
-453.089
-471.74
-487.605
-501.064
-512.628
-522.858
-532.285
-541.29
-549.967
-558.048
-565.006
-570.219
-573.115
-573.272
-570.492
-564.854
-556.726
-546.707
-535.519
-523.9
-512.523
-501.942
-492.526
-484.383
-477.338
-471.004
-464.907
-458.572
-451.588
-443.653
-434.609
-424.45
-413.297
-401.336
-388.758
-375.719
-362.309
-348.508
-334.139
-318.87
-302.33
-284.258
-264.695
-244.167
-223.626
1006.38
985.309
942.716
887.784
828.395
769.989
715.815
667.493
625.403
588.919
556.877
527.952
500.864
474.464
447.803
420.23
391.489
361.7
331.202
300.423
269.787
239.66
210.292
181.741
153.821
126.22
98.6279
70.8061
42.6074
13.97
-15.0969
-44.5471
-74.3273
-104.425
-134.893
-165.877
-197.584
-230.212
-263.786
-297.999
-332.273
-365.842
-397.838
-427.352
-453.571
-475.936
-494.339
-509.127
-520.952
-530.64
-539.11
-547.291
-555.943
-565.317
-574.873
-583.601
-590.396
-594.29
-594.566
-590.847
-583.195
-572.168
-558.739
-544.021
-529.101
-514.948
-502.385
-491.996
-483.953
-477.856
-472.974
-468.495
-463.671
-457.883
-450.682
-441.848
-431.44
-419.749
-407.139
-393.95
-380.458
-366.857
-353.191
-339.201
-324.202
-307.359
-287.937
-265.613
-241.165
-216.433
1135.72
1097.06
1026.55
943.319
860.16
783.788
717.25
661.603
616.568
580.202
550.081
523.954
499.895
476.227
451.534
424.799
395.757
364.874
332.865
300.495
268.436
237.298
207.54
179.323
152.179
125.454
98.6086
71.2785
43.2874
14.5909
-14.7275
-44.5376
-74.6799
-105.087
-135.809
-167.107
-199.445
-233.434
-269.435
-307.005
-345.287
-383.158
-419.38
-452.539
-481.282
-504.55
-522.197
-534.961
-543.951
-550.432
-555.79
-561.622
-569.545
-580.387
-592.858
-604.94
-614.7
-620.617
-621.545
-616.797
-606.317
-590.993
-572.545
-552.731
-533.114
-515.004
-499.616
-488.007
-480.639
-476.544
-474.283
-472.497
-470.081
-466.135
-459.985
-451.276
-440.208
-427.457
-413.71
-399.517
-385.295
-371.441
-358.291
-345.667
-332.14
-316.058
-295.757
-269.551
-238.54
-206.811
1337.2
1254.67
1128.66
998.726
882.122
783.399
702.976
640.404
595.223
562.466
537.506
516.953
498.335
479.437
458.177
432.663
402.645
369.641
335.013
300.088
265.724
232.912
202.532
175.318
149.889
124.814
99.2354
72.6472
44.9237
16.0438
-13.7166
-44.1197
-74.7237
-105.371
-135.972
-166.918
-199.01
-233.84
-272.91
-315.077
-358.979
-402.938
-445.421
-484.17
-516.956
-541.334
-557.153
-566.284
-570.611
-571.874
-571.808
-572.953
-578.941
-593.094
-611.374
-629.578
-644.485
-654.064
-656.621
-650.922
-636.326
-614.225
-588.227
-561.063
-534.865
-511.045
-491.312
-477.821
-472.519
-472.501
-474.819
-477.316
-478.605
-477.473
-472.89
-464.022
-451.319
-436.522
-420.854
-405.058
-389.539
-374.952
-362.575
-353.381
-343.709
-330.785
-312.037
-280.369
-236.914
-192.491
1682.24
1474.86
1236.38
1034.91
878.309
756.635
662.97
594.139
555.964
533.476
518.562
507.139
497.154
486.019
470.921
446.984
413.805
376.717
337.559
298.845
260.744
224.99
192.932
168.702
147.045
124.855
101.264
75.594
48.1637
18.6987
-11.8508
-43.4857
-74.7816
-105.8
-135.718
-165.16
-194.718
-228.225
-272.016
-320.741
-372.686
-424.942
-476.941
-524.484
-564.83
-590.528
-601.814
-604.588
-601.733
-595.262
-586.101
-577.316
-576.568
-599.838
-629.961
-658.912
-681.878
-697.545
-703.499
-697.764
-677.043
-642.967
-605.487
-567.901
-533.096
-501.105
-473.929
-455.754
-456.699
-465.006
-475.004
-483.786
-490.522
-493.692
-491.876
-482.204
-465.366
-446.766
-428.11
-410.136
-392.38
-375.224
-362.22
-361.735
-359.912
-353.853
-346.88
-308.123
-236.649
-167.365
2353.76
1739.81
1290.79
1006.46
824.173
689.511
587.18
503.708
494.095
493.554
494.569
495.228
497.606
498.284
496.367
474.585
430.565
386.748
339.439
296.689
252.354
211.715
172.028
158.344
144.927
126.869
106.235
81.0182
54.2697
22.8454
-8.49697
-43.418
-75.3204
-107.894
-136.237
-163.32
-184.826
-207.889
-264.112
-321.871
-386.055
-447.427
-514.995
-575.275
-633.908
-660.576
-658.82
-651.072
-638.117
-622.566
-599.876
-570.112
-539.605
-596.688
-650.195
-696.808
-729.709
-754.926
-767.106
-766.074
-736.871
-676.495
-622.785
-570.625
-527.166
-484.131
-443.487
-406.063
-430.184
-454.978
-476.843
-493.105
-507.475
-516.992
-522.078
-510.617
-481.863
-457.01
-434.312
-414.834
-394.293
-369.46
-343.785
-371.965
-382.166
-378.189
-427.447
-382.947
-233.199
-114.185
3870.14
1767.2
1108
831.03
701.433
575.807
484.214
306.897
419.145
451.367
471.068
480.82
500.48
514.259
550.391
534.185
447.006
401.783
334.729
296.791
238.619
197.04
113.654
147.571
149.456
132.548
117.756
88.5888
67.0424
26.7981
-0.0712698
-47.7818
-74.9793
-116.171
-138.657
-169.601
-172.782
-139.886
-254.097
-313.862
-403.595
-461.122
-563.68
-628.576
-749.151
-771.678
-724.56
-705.136
-678.305
-660.195
-623.862
-563.99
-376.501
-598.661
-680.311
-754.384
-788.52
-830.974
-849.617
-874.815
-841.45
-700.286
-637.718
-560.698
-520.509
-463.608
-408.313
-267.661
-402.604
-449.072
-486.646
-505.046
-531.308
-546.567
-576.003
-563.831
-492.653
-464.071
-435.802
-420.994
-402.329
-364.855
-247.751
-408.034
-424.785
-325.816
-642.972
-609.282
-185.463
13.9323
-233.191
-219.58
-206.768
-194.869
-183.966
-174.112
-165.332
-157.626
-150.979
-145.366
-140.755
-137.113
-134.411
-132.624
-131.735
-232.498
-218.747
-205.823
-193.843
-182.89
-173.013
-164.232
-156.543
-149.923
-144.343
-139.765
-136.153
-133.476
-131.707
-130.827
-231.092
-217.056
-203.903
-191.76
-180.709
-170.792
-162.016
-154.366
-147.806
-142.295
-137.787
-134.239
-131.613
-129.88
-129.019
-228.933
-214.448
-200.943
-188.557
-177.368
-167.403
-158.652
-151.075
-144.618
-139.223
-134.828
-131.382
-128.839
-127.163
-126.331
-225.95
-210.826
-196.835
-184.128
-172.775
-162.777
-154.089
-146.641
-140.348
-135.128
-130.902
-127.603
-125.177
-123.583
-122.792
-222.034
-206.039
-191.413
-178.319
-166.802
-156.815
-148.265
-141.029
-134.986
-130.019
-126.029
-122.933
-120.666
-119.18
-118.445
-217.011
-199.852
-184.431
-170.909
-159.272
-149.396
-141.103
-134.205
-128.526
-123.914
-120.243
-117.415
-115.355
-114.01
-113.345
-210.6
-191.899
-175.521
-161.586
-149.958
-140.37
-132.525
-126.142
-120.981
-116.849
-113.597
-111.112
-109.312
-108.142
-107.565
-202.327
-181.593
-164.142
-149.934
-138.58
-129.582
-122.467
-116.839
-112.389
-108.888
-106.167
-104.106
-102.624
-101.664
-101.192
-191.341
-167.978
-149.498
-135.406
-124.825
-116.891
-110.903
-106.339
-102.832
-100.13
-98.0599
-96.5083
-95.3988
-94.6828
-94.3316
-176.012
-149.456
-130.445
-117.348
-108.405
-102.239
-97.8986
-94.7673
-92.4564
-90.7241
-89.4208
-88.4537
-87.766
-87.3233
-87.1063
-153.029
-123.365
-105.46
-95.1171
-89.1926
-85.7456
-83.6708
-82.3611
-81.4883
-80.8765
-80.4323
-80.1069
-79.8752
-79.7252
-79.6513
-115.366
-85.4994
-72.8989
-68.4546
-67.4898
-67.8676
-68.6658
-69.5061
-70.2474
-70.8495
-71.3134
-71.6545
-71.8912
-72.0394
-72.1106
-47.7738
-30.3563
-32.1716
-38.3031
-44.4348
-49.5594
-53.6086
-56.74
-59.1355
-60.9505
-62.3067
-63.296
-63.985
-64.4201
-64.6306
82.7898
44.0234
12.8762
-8.14601
-22.3804
-32.3196
-39.4615
-44.7017
-48.5954
-51.5012
-53.6581
-55.2285
-56.3233
-57.016
-57.3517
273.8
273.473
272.783
271.645
269.916
267.355
263.556
257.807
248.761
233.585
205.37
143.664
-26.1488
-631.777
-3323.79
242.734
241.708
239.557
236.065
230.849
223.278
212.293
196.074
171.309
131.558
63.2648
-64.3704
-324.521
-879.937
-1919.86
212.374
210.718
207.259
201.676
193.414
181.566
164.661
140.272
104.262
49.3493
-37.632
-180.38
-417.842
-791.621
-1238.08
183.161
180.977
176.432
169.145
158.465
143.361
122.223
92.535
50.3393
-10.5909
-99.8015
-230.615
-416.492
-652.821
-866.316
155.46
152.871
147.505
138.965
126.585
109.344
85.7191
53.4819
9.42473
-50.8928
-133.08
-242.607
-380.101
-529.871
-642.803
129.554
126.689
120.78
111.448
98.0776
79.7559
55.194
22.6354
-20.1984
-76.0079
-147.371
-235.176
-335.181
-432.496
-497.705
105.633
102.619
96.4299
86.734
73.006
54.4995
30.2199
-1.077
-40.8109
-90.3209
-150.244
-219.269
-292.123
-357.41
-397.886
83.8033
80.7507
74.5123
64.8173
51.2507
33.2502
10.1173
-18.9317
-54.6346
-97.4017
-146.795
-200.701
-254.318
-299.549
-326.171
64.0908
61.0924
54.9928
45.5872
32.573
15.5635
-5.87831
-32.1667
-63.5528
-99.8804
-140.21
-182.333
-222.334
-254.607
-272.939
46.4584
43.5858
37.7674
28.8615
16.6684
0.953657
-18.5091
-41.8623
-69.0396
-99.5793
-132.378
-165.436
-195.713
-219.343
-232.435
30.819
28.1229
22.6845
14.417
3.20821
-11.0542
-28.439
-48.9028
-72.1916
-97.7085
-124.366
-150.469
-173.707
-191.394
-201.019
17.0503
14.5631
9.56463
2.01393
-8.1324
-20.8946
-36.231
-53.9819
-73.7961
-95.0448
-116.739
-137.489
-155.554
-169.042
-176.286
5.00744
2.74571
-1.78402
-8.58772
-17.6573
-28.9481
-42.3467
-57.6281
-74.4043
-92.0711
-109.768
-126.374
-140.577
-151.026
-156.582
-5.46594
-7.49777
-11.5546
-17.6168
-25.6404
-35.5383
-47.1552
-60.2365
-74.394
-89.0762
-103.552
-116.927
-128.205
-136.407
-140.734
-14.5293
-16.336
-19.9333
-25.2846
-32.3226
-40.9353
-50.9471
-62.0974
-74.0193
-86.2243
-98.1006
-108.935
-117.968
-124.477
-127.891
-22.3389
-23.9315
-27.0949
-31.7817
-37.9118
-45.361
-53.9486
-63.4225
-73.4478
-83.6003
-93.3721
-102.195
-109.482
-114.695
-117.417
-29.0433
-30.4369
-33.1991
-37.2773
-42.5853
-48.9966
-56.3347
-64.3648
-72.788
-81.2404
-89.3024
-96.5192
-102.436
-106.644
-108.832
-34.7805
-35.9924
-38.3901
-41.9191
-46.4932
-51.9889
-58.2403
-65.0341
-72.1076
-79.1515
-85.8194
-91.7462
-96.5758
-99.9943
-101.767
-39.6766
-40.725
-42.7958
-45.8356
-49.7613
-54.4567
-59.7694
-65.5092
-71.4477
-77.3234
-82.8506
-87.7349
-91.695
-94.4873
-95.9315
-43.845
-44.748
-46.5289
-49.1373
-52.4952
-56.4959
-61.0021
-65.8462
-70.8315
-75.7373
-80.3279
-84.3651
-87.6249
-89.916
-91.0987
-47.3868
-48.1615
-49.6878
-51.9187
-54.783
-58.1842
-62.0004
-66.0852
-70.2702
-74.3699
-78.1894
-81.5349
-84.227
-86.1142
-87.0868
-50.3909
-51.0535
-52.3577
-54.2606
-56.6981
-59.5844
-62.8121
-66.2546
-69.7682
-73.197
-76.3797
-79.1582
-81.3877
-82.9473
-83.7499
-52.935
-53.5003
-54.6119
-56.2314
-58.3019
-60.7474
-63.4748
-66.3747
-69.325
-72.1949
-74.8506
-77.1626
-79.0134
-80.3058
-80.9702
-55.0868
-55.568
-56.5134
-57.8893
-59.6452
-61.715
-64.0177
-66.4598
-68.9376
-71.3414
-73.5601
-75.4871
-77.0267
-78.1002
-78.6515
-56.9046
-57.3135
-58.1163
-59.2834
-60.7707
-62.5208
-64.4639
-66.5201
-68.6017
-70.6164
-72.472
-74.0805
-75.3636
-76.2571
-76.7156
-58.4386
-58.7855
-59.4664
-60.4552
-61.7138
-63.1925
-64.8316
-66.5629
-68.312
-70.0018
-71.5553
-72.8998
-73.9708
-74.7158
-75.0979
-59.7318
-60.0259
-60.6027
-61.4397
-62.5041
-63.753
-65.1354
-66.5931
-68.0636
-69.4819
-70.7838
-71.909
-72.8042
-73.4265
-73.7455
-60.8209
-61.07
-61.5583
-62.2665
-63.1663
-64.2209
-65.3867
-66.6146
-67.8514
-69.0427
-70.1349
-71.0777
-71.8271
-72.3477
-72.6144
-61.7371
-61.948
-62.3613
-62.9604
-63.7209
-64.6116
-65.5951
-66.6298
-67.6708
-68.6724
-69.5896
-70.3806
-71.0089
-71.4451
-71.6684
-62.507
-62.6855
-63.0354
-63.5423
-64.1853
-64.9377
-65.768
-66.6405
-67.5176
-68.3606
-69.1319
-69.7965
-70.3241
-70.6901
-70.8775
-63.1529
-63.3042
-63.6005
-64.0296
-64.5737
-65.21
-65.9115
-66.6481
-67.388
-68.0986
-68.7482
-69.3076
-69.7514
-70.0591
-70.2167
-63.6938
-63.8221
-64.0734
-64.4371
-64.8981
-65.4369
-66.0306
-66.6535
-67.2788
-67.8789
-68.4271
-68.899
-69.2731
-69.5325
-69.6652
-64.1457
-64.2547
-64.4682
-64.7771
-65.1685
-65.6258
-66.1293
-66.6574
-67.1871
-67.6951
-68.159
-68.5581
-68.8744
-69.0936
-69.2058
-64.5219
-64.6149
-64.7968
-65.0599
-65.3933
-65.7825
-66.2109
-66.6601
-67.1103
-67.542
-67.936
-68.2748
-68.5432
-68.7291
-68.8243
-64.8337
-64.9132
-65.0689
-65.2941
-65.5792
-65.912
-66.2783
-66.662
-67.0465
-67.415
-67.7512
-68.0402
-68.2691
-68.4277
-68.5088
-65.0902
-65.1587
-65.2927
-65.4866
-65.732
-66.0184
-66.3334
-66.6633
-66.9939
-67.3105
-67.5993
-67.8474
-68.0439
-68.18
-68.2496
-65.2992
-65.3587
-65.4751
-65.6434
-65.8564
-66.1049
-66.3782
-66.6643
-66.9509
-67.2253
-67.4755
-67.6904
-67.8606
-67.9785
-68.0387
-65.467
-65.5192
-65.6214
-65.7691
-65.9561
-66.1742
-66.414
-66.665
-66.9163
-67.1569
-67.3762
-67.5645
-67.7137
-67.8169
-67.8697
-65.5985
-65.645
-65.736
-65.8677
-66.0342
-66.2285
-66.442
-66.6654
-66.8891
-67.1032
-67.2983
-67.4659
-67.5985
-67.6903
-67.7373
-65.6976
-65.7399
-65.8225
-65.942
-66.0931
-66.2694
-66.4631
-66.6658
-66.8686
-67.0627
-67.2396
-67.3915
-67.5117
-67.5949
-67.6375
-65.7675
-65.8067
-65.8834
-65.9944
-66.1346
-66.2982
-66.4779
-66.666
-66.8541
-67.0342
-67.1983
-67.3391
-67.4506
-67.5277
-67.5672
-65.8102
-65.8475
-65.9206
-66.0263
-66.16
-66.3158
-66.487
-66.6661
-66.8453
-67.0168
-67.173
-67.3071
-67.4133
-67.4867
-67.5243
-65.8269
-65.8635
-65.9352
-66.0388
-66.1699
-66.3227
-66.4905
-66.6662
-66.8419
-67.01
-67.1631
-67.2946
-67.3986
-67.4706
-67.5074
-65.8182
-65.8552
-65.9276
-66.0323
-66.1648
-66.3191
-66.4887
-66.6662
-66.8437
-67.0135
-67.1683
-67.3011
-67.4062
-67.4789
-67.5161
-65.7838
-65.8223
-65.8977
-66.0066
-66.1444
-66.305
-66.4815
-66.6661
-66.8508
-67.0276
-67.1886
-67.3269
-67.4362
-67.5119
-67.5506
-65.7227
-65.7638
-65.8444
-65.9608
-66.1081
-66.2798
-66.4685
-66.666
-66.8635
-67.0526
-67.2248
-67.3726
-67.4896
-67.5706
-67.612
-65.6329
-65.678
-65.7662
-65.8937
-66.0549
-66.2429
-66.4495
-66.6658
-66.8821
-67.0892
-67.2779
-67.4399
-67.5681
-67.6568
-67.7022
-65.5119
-65.5623
-65.6607
-65.803
-65.9831
-66.1931
-66.4239
-66.6654
-66.9072
-67.1386
-67.3495
-67.5305
-67.6739
-67.7731
-67.8238
-65.356
-65.4131
-65.5248
-65.6862
-65.8905
-66.1288
-66.3908
-66.665
-66.9395
-67.2022
-67.4417
-67.6474
-67.8103
-67.923
-67.9806
-65.1605
-65.226
-65.3543
-65.5397
-65.7744
-66.0482
-66.3492
-66.6643
-66.9799
-67.282
-67.5575
-67.7941
-67.9814
-68.1111
-68.1775
-64.9195
-64.9954
-65.144
-65.359
-65.6311
-65.9486
-66.2977
-66.6634
-67.0296
-67.3803
-67.7002
-67.975
-68.1926
-68.3433
-68.4204
-64.6257
-64.7143
-64.8878
-65.1387
-65.4563
-65.827
-66.2348
-66.662
-67.09
-67.5001
-67.8742
-68.1956
-68.4502
-68.6266
-68.7168
-64.2704
-64.3743
-64.5778
-64.872
-65.2446
-65.6797
-66.1584
-66.6601
-67.1629
-67.6449
-68.0846
-68.4627
-68.7622
-68.9696
-69.0758
-63.8431
-63.9653
-64.2046
-64.551
-64.9897
-65.502
-66.066
-66.6574
-67.2504
-67.8189
-68.3379
-68.7843
-69.138
-69.383
-69.5084
-63.3308
-63.475
-63.7573
-64.1659
-64.6836
-65.2885
-65.9547
-66.6536
-67.3547
-68.0273
-68.6417
-69.1702
-69.5892
-69.8795
-70.0281
-62.7185
-62.8888
-63.2222
-63.705
-64.317
-65.0323
-65.8207
-66.6482
-67.4789
-68.2763
-69.0049
-69.6322
-70.1296
-70.4745
-70.651
-61.988
-62.1892
-62.5835
-63.1545
-63.8786
-64.7255
-65.6595
-66.6406
-67.6261
-68.5729
-69.4386
-70.1843
-70.776
-71.1863
-71.3964
-61.1178
-61.3558
-61.822
-62.4976
-63.3549
-64.3583
-65.4657
-66.6298
-67.8004
-68.9257
-69.9557
-70.8434
-71.5481
-72.0372
-72.2876
-60.0825
-60.3638
-60.9153
-61.7147
-62.7298
-63.9189
-65.2324
-66.6147
-68.0059
-69.3448
-70.5714
-71.6295
-72.4701
-73.0537
-73.3526
-58.8518
-59.1843
-59.8363
-60.7821
-61.9839
-63.3931
-64.9515
-66.5933
-68.2478
-69.842
-71.304
-72.5665
-73.5704
-74.2678
-74.6251
-57.3903
-57.783
-58.5535
-59.6718
-61.0941
-62.7638
-64.6126
-66.5631
-68.5315
-70.4309
-72.1751
-73.6832
-74.8835
-75.7179
-76.1457
-55.6562
-56.1196
-57.0291
-58.3503
-60.0327
-62.0101
-64.203
-66.5205
-68.8631
-71.1275
-73.2102
-75.0135
-76.4505
-77.4504
-77.9633
-53.6004
-54.1465
-55.2189
-56.7783
-58.7664
-61.1069
-63.7071
-66.4603
-69.2491
-71.9501
-74.4393
-76.5981
-78.3208
-79.5209
-80.1369
-51.1656
-51.8081
-53.0706
-54.9086
-57.2554
-60.0233
-63.1049
-66.3753
-69.6961
-72.9199
-75.8976
-78.4854
-80.554
-81.997
-82.7382
-48.2848
-49.0392
-50.5229
-52.6857
-55.4521
-58.7221
-62.3717
-66.2555
-70.2103
-74.0606
-77.6265
-80.7331
-83.2216
-84.9601
-85.854
-44.8803
-45.7641
-47.5038
-50.0437
-53.2993
-57.1573
-61.4758
-66.0864
-70.797
-75.3986
-79.6742
-83.41
-86.4098
-88.5095
-89.5904
-40.8624
-41.8947
-43.9293
-46.9049
-50.7283
-55.2727
-60.3773
-65.8477
-71.4593
-76.9631
-82.0966
-86.5978
-90.223
-92.766
-94.0771
-36.1278
-37.3297
-39.7015
-43.1776
-47.6567
-52.9993
-59.0248
-65.5112
-72.1963
-78.7845
-84.9579
-90.3937
-94.7873
-97.8778
-99.4739
-30.5589
-31.9527
-34.7072
-38.754
-43.9858
-50.2517
-57.3524
-65.0365
-73.0006
-80.8939
-88.3311
-94.9131
-100.256
-104.027
-105.979
-24.0224
-25.6312
-28.8159
-33.5078
-39.597
-46.9246
-55.2749
-64.3675
-73.8539
-83.3199
-92.298
-100.292
-106.816
-111.44
-113.838
-16.3693
-18.2158
-21.8783
-27.2917
-34.3485
-42.8877
-52.682
-63.4251
-74.7214
-86.0845
-96.9478
-106.693
-114.696
-120.396
-123.363
-7.43437
-9.53986
-13.7254
-19.9349
-28.0709
-37.9793
-49.4305
-62.0985
-75.5423
-89.1959
-102.374
-114.302
-124.175
-131.25
-134.947
2.96197
0.579904
-4.16764
-11.2408
-20.5628
-31.9999
-45.3343
-60.2332
-76.2174
-92.6373
-108.668
-123.336
-135.597
-144.449
-149.098
15.0117
12.3416
7.0044
-0.985551
-11.5865
-24.7033
-40.1517
-57.6142
-76.5898
-96.3488
-115.907
-134.043
-149.384
-160.567
-166.477
28.9148
25.9544
20.0178
11.0821
-0.863724
-15.7879
-33.5709
-53.9446
-76.4181
-100.199
-124.133
-146.691
-166.056
-180.346
-187.958
44.8725
41.633
35.1129
25.2392
11.9266
-4.88786
-25.1914
-48.8169
-75.338
-103.944
-133.314
-161.555
-186.252
-204.761
-214.724
63.0787
59.5885
52.5357
41.7833
27.1479
8.43447
-14.5054
-41.6785
-72.8104
-107.156
-143.28
-178.877
-210.745
-235.109
-248.407
83.7071
80.0166
72.5264
61.0227
45.2002
24.6909
-0.880106
-31.7913
-68.0511
-109.132
-153.612
-198.787
-240.447
-273.141
-291.322
106.897
103.082
95.3026
83.2597
66.5061
44.4615
16.4529
-18.1901
-59.9438
-108.747
-163.459
-221.138
-276.374
-321.249
-346.861
132.733
128.898
121.038
108.766
91.4848
68.3726
38.3922
0.348424
-46.9412
-104.259
-171.243
-245.184
-319.493
-382.73
-420.183
161.231
157.507
149.835
137.75
120.511
97.0516
65.9301
25.3069
-26.975
-93.057
-174.197
-268.972
-370.3
-462.113
-519.509
192.313
188.855
181.694
170.311
153.855
131.05
100.065
58.3608
2.57392
-71.3982
-167.68
-288.207
-427.709
-565.394
-658.687
225.792
222.772
216.482
206.392
191.605
170.727
141.641
101.193
44.7505
-34.2467
-144.325
-294.264
-486.376
-699.496
-862.646
261.367
258.955
253.907
245.731
233.584
216.1
191.105
155.13
102.588
24.4884
-93.2897
-271.032
-530.448
-868.292
-1179.89
298.613
296.966
293.499
287.825
279.266
266.685
248.192
220.569
178.173
110.776
-0.61207
-191.079
-520.05
-1055.3
-1713.52
336.998
336.238
334.62
331.92
327.736
321.373
311.615
296.263
271.115
227.611
146.98
-14.9416
-366.398
-1156.9
-2704.23
375.906
376.102
376.487
377.04
377.715
378.414
378.92
378.754
376.799
370.226
351.023
292.816
92.1537
-732.929
-4769.43
414.673
415.831
418.233
422.071
427.674
435.582
446.684
462.483
485.685
521.606
582.146
699.496
984.327
1921.2
6069.93
452.632
454.69
458.977
465.87
476.025
490.528
511.18
541.064
585.732
655.881
773.81
989.858
1423.68
2344.85
4082.84
489.156
491.995
497.907
507.399
521.351
541.196
569.258
609.371
668.078
756.968
897.325
1128.97
1524.57
2201.25
3302.82
253.987
105.214
44.8867
13.2767
-6.0984
-19.0763
-28.2314
-34.8949
-39.8329
-43.5191
-46.2605
-48.262
-49.6612
-50.5486
-50.9792
161.097
99.4113
54.0399
24.2541
4.2615
-9.68982
-19.7497
-27.1744
-32.7323
-36.9143
-40.0446
-42.3422
-43.9551
-44.9812
-45.48
111.028
82.2689
52.3642
28.4281
10.4256
-3.00475
-13.096
-20.7477
-26.584
-31.036
-34.403
-36.8936
-38.6521
-39.7752
-40.3226
80.9202
65.9137
46.5384
28.4786
13.4136
1.36176
-8.13528
-15.5795
-21.3943
-25.9082
-29.3666
-31.9497
-33.7864
-34.9651
-35.5412
61.2253
52.5856
39.7943
26.4465
14.3079
3.95392
-4.5993
-11.5412
-17.1061
-21.5106
-24.9351
-27.5209
-29.3741
-30.57
-31.1562
47.5241
42.1353
33.4325
23.5722
13.9612
5.29515
-2.18185
-8.45813
-13.6218
-17.7915
-21.0834
-23.598
-25.4155
-26.595
-27.1752
37.5602
33.9822
27.8714
20.5222
12.9571
5.81005
-0.598029
-6.14681
-10.8266
-14.6802
-17.7694
-20.1568
-21.8973
-23.0336
-23.5944
30.0773
27.5845
23.1674
17.62
11.6613
5.81121
0.389093
-4.43837
-8.60399
-12.0983
-14.9408
-17.1629
-18.7966
-19.8693
-20.4006
24.3226
22.5203
19.2462
15.0015
10.2888
5.51457
0.963202
-3.1891
-6.84676
-9.96767
-12.5417
-14.5757
-16.0834
-17.079
-17.5738
19.8169
18.476
15.997
12.7067
8.95807
5.06259
1.26007
-2.28304
-5.4616
-8.21583
-10.5164
-12.3527
-13.7242
-14.6348
-15.0887
16.2405
15.22
13.3096
10.7287
7.72839
4.54552
1.37664
-1.6299
-4.37057
-6.77819
-8.8124
-10.4511
-11.6837
-12.5061
-12.9174
13.3712
12.5805
11.0866
9.04088
6.62469
4.01827
1.38033
-1.16124
-3.51039
-5.59919
-7.38216
-8.83048
-9.9269
-10.6618
-11.0302
11.0495
10.4281
9.24561
7.60942
5.65242
3.51248
1.31694
-0.826093
-2.83066
-4.632
-6.18357
-7.45331
-8.42012
-9.07082
-9.39786
9.1583
8.66412
7.71879
6.39996
4.80661
3.04494
1.21695
-0.58702
-2.29176
-3.83779
-5.18005
-6.28575
-7.132
-7.70366
-7.99163
7.60932
7.21262
6.45053
5.38047
4.07719
2.62315
1.10015
-0.416796
-1.86285
-3.1847
-4.34027
-5.29771
-6.03383
-6.53273
-6.78455
6.33505
6.0141
5.3955
4.5224
3.45203
2.24899
0.979022
-0.295758
-1.52001
-2.64673
-3.63765
-4.46281
-5.09977
-5.53272
-5.75163
5.28301
5.02168
4.51663