/*--------------------------------*- C++ -*----------------------------------*\
| =========                 |                                                 |
| \\      /  F ield         | OpenFOAM: The Open Source CFD Toolbox           |
|  \\    /   O peration     | Version:  5.x                                   |
|   \\  /    A nd           | Web:      www.OpenFOAM.org                      |
|    \\/     M anipulation  |                                                 |
\*---------------------------------------------------------------------------*/
FoamFile
{
    version     2.0;
    format      ascii;
    class       volScalarField;
    location    "1.1";
    object      gradTx;
}
// * * * * * * * * * * * * * * * * * * * * * * * * * * * * * * * * * * * * * //

dimensions      [0 -1 0 1 0 0 0];

internalField   nonuniform List<scalar> 
3200
(
38.4375
0.660432
-1.76282
-1.90163
-2.26004
-2.27456
-2.13463
-2.12689
-1.98203
-3.37977
-1.75909
-1.51387
-1.48566
-1.32623
-1.30991
-1.16495
-1.15035
-1.01585
-1.00234
-0.877608
-0.865115
-0.750245
-0.738799
-0.634148
-0.623786
-0.529713
-0.520463
-0.43715
-0.429017
-0.356383
-0.349344
-0.287029
-0.281033
-0.228411
-0.223383
-0.179627
-0.175472
-0.139617
-0.136233
-0.107254
-0.104534
-0.0814096
-0.0792498
-0.0610157
-0.0593209
-0.045105
-0.0437944
-0.032853
-0.031935
-0.0241878
-0.0369655
-0.0169176
-0.0113942
-0.010841
-0.00745998
-0.00715443
-0.00479721
-0.00458975
-0.00298894
-0.00285024
-0.00180331
-0.00171391
-0.00105582
-0.00100035
-0.000601947
-0.000568732
-0.000335329
-0.000316036
-0.000182904
-0.000171963
-9.75212e-05
-9.12932e-05
-4.75753e-05
-4.401e-05
-2.0112e-05
-1.79782e-05
-1.0957e-06
-1.95377e-07
-4.41446e-08
-2.96158e-05
38.4091
0.423725
-1.56694
-1.88319
-2.21711
-2.25308
-2.14578
-2.13335
-2.09426
-3.10738
-1.85971
-1.55209
-1.48139
-1.33878
-1.30069
-1.17526
-1.14147
-1.02536
-0.99409
-0.88644
-0.857545
-0.758408
-0.731935
-0.641619
-0.617654
-0.536463
-0.515069
-0.443159
-0.424347
-0.36165
-0.345369
-0.291571
-0.277701
-0.232267
-0.220633
-0.182847
-0.173235
-0.142268
-0.134437
-0.109405
-0.10311
-0.0831324
-0.0781345
-0.062379
-0.0584572
-0.0461743
-0.0431438
-0.033728
-0.0316479
-0.0257449
-0.0340646
-0.0180246
-0.0120681
-0.0107205
-0.00773546
-0.00702389
-0.00498106
-0.00450042
-0.00311449
-0.00279319
-0.00188624
-0.00167907
-0.00110846
-0.000979881
-0.000634096
-0.000557067
-0.000354301
-0.00030954
-0.000193785
-0.000168389
-0.000103575
-8.91194e-05
-5.11491e-05
-4.28725e-05
-2.20078e-05
-1.70667e-05
-2.64777e-06
-5.56142e-07
-1.27808e-07
-2.9646e-05
38.3858
0.261525
-1.43804
-1.86405
-2.1861
-2.23734
-2.15314
-2.14086
-2.16439
-2.92541
-1.92272
-1.58082
-1.48
-1.34714
-1.29496
-1.1819
-1.13588
-1.03147
-0.988897
-0.892119
-0.852781
-0.763662
-0.727622
-0.646433
-0.613807
-0.540818
-0.511692
-0.447042
-0.421431
-0.365059
-0.342891
-0.294515
-0.27563
-0.234768
-0.218927
-0.18494
-0.171851
-0.143992
-0.133329
-0.110806
-0.102234
-0.0842555
-0.077449
-0.0632686
-0.0579275
-0.0468731
-0.0427483
-0.0343094
-0.0315136
-0.0267328
-0.032138
-0.0187282
-0.0125576
-0.0106655
-0.00791993
-0.00694654
-0.00510238
-0.00444727
-0.00319743
-0.00275955
-0.00194116
-0.00165876
-0.00114341
-0.000968087
-0.00065549
-0.000550427
-0.00036695
-0.000305882
-0.000201049
-0.00016639
-0.000107614
-8.78854e-05
-5.35346e-05
-4.22382e-05
-2.32663e-05
-1.65342e-05
-3.70662e-06
-8.50303e-07
-1.98453e-07
-2.96716e-05
38.3693
0.160262
-1.36008
-1.84906
-2.16591
-2.22701
-2.15761
-2.14694
-2.20501
-2.81398
-1.95929
-1.59991
-1.47988
-1.35227
-1.29165
-1.18586
-1.13262
-1.0351
-0.985865
-0.895493
-0.850002
-0.766786
-0.72511
-0.649299
-0.61157
-0.543415
-0.509732
-0.44936
-0.419742
-0.367096
-0.341459
-0.296276
-0.274435
-0.236267
-0.217946
-0.186195
-0.171056
-0.145027
-0.132694
-0.111647
-0.101732
-0.0849308
-0.0770576
-0.0638039
-0.0576258
-0.0472943
-0.042525
-0.0346646
-0.0314583
-0.0273129
-0.0309637
-0.019142
-0.0128757
-0.0106444
-0.00803342
-0.00690395
-0.00517607
-0.00441785
-0.00324785
-0.00274109
-0.00197461
-0.00164774
-0.00116475
-0.000961772
-0.000668572
-0.000546916
-0.000374697
-0.00030397
-0.000205503
-0.000165353
-0.000110088
-8.7235e-05
-5.4997e-05
-4.19102e-05
-2.40347e-05
-1.62452e-05
-4.36643e-06
-1.05617e-06
-2.49389e-07
-2.96902e-05
38.3609
0.111606
-1.32338
-1.84096
-2.15595
-2.22189
-2.15973
-2.15027
-2.22359
-2.76109
-1.97604
-1.60941
-1.48005
-1.35471
-1.29015
-1.1877
-1.13112
-1.03679
-0.984471
-0.897065
-0.848725
-0.768242
-0.723957
-0.650636
-0.610544
-0.544626
-0.508834
-0.450442
-0.418969
-0.368048
-0.340805
-0.2971
-0.27389
-0.236968
-0.217499
-0.186783
-0.170695
-0.145512
-0.132406
-0.112042
-0.101505
-0.0852477
-0.0768805
-0.0640553
-0.0574894
-0.0474922
-0.0424247
-0.0348331
-0.0314402
-0.0275808
-0.030408
-0.0193332
-0.0130323
-0.0106383
-0.0080875
-0.00688519
-0.00521089
-0.00440484
-0.00327168
-0.00273298
-0.00199045
-0.00164295
-0.00117486
-0.000959051
-0.000674782
-0.000545419
-0.000378378
-0.000303163
-0.000207621
-0.000164918
-0.000111265
-8.69583e-05
-5.56922e-05
-4.1773e-05
-2.43991e-05
-1.61193e-05
-4.68326e-06
-1.16176e-06
-2.7603e-07
-2.96999e-05
38.3609
0.111598
-1.32339
-1.84096
-2.15596
-2.22189
-2.15973
-2.15027
-2.22359
-2.76109
-1.97604
-1.60941
-1.48005
-1.35471
-1.29015
-1.1877
-1.13112
-1.03679
-0.984471
-0.897065
-0.848725
-0.768243
-0.723957
-0.650636
-0.610544
-0.544626
-0.508834
-0.450442
-0.41897
-0.368048
-0.340805
-0.2971
-0.27389
-0.236968
-0.217499
-0.186783
-0.170695
-0.145512
-0.132406
-0.112042
-0.101505
-0.0852477
-0.0768805
-0.0640553
-0.0574894
-0.0474922
-0.0424247
-0.0348331
-0.0314402
-0.0275808
-0.030408
-0.0193332
-0.0130323
-0.0106383
-0.0080875
-0.00688519
-0.00521089
-0.00440484
-0.00327168
-0.00273298
-0.00199045
-0.00164295
-0.00117486
-0.00095905
-0.000674781
-0.000545418
-0.000378377
-0.000303163
-0.000207621
-0.000164918
-0.000111265
-8.69583e-05
-5.56921e-05
-4.17729e-05
-2.43991e-05
-1.61193e-05
-4.68325e-06
-1.16175e-06
-2.76057e-07
-2.96999e-05
38.3694
0.160241
-1.36009
-1.84907
-2.16591
-2.22701
-2.15761
-2.14695
-2.20501
-2.81399
-1.95929
-1.59991
-1.47988
-1.35227
-1.29165
-1.18586
-1.13262
-1.0351
-0.985866
-0.895494
-0.850002
-0.766787
-0.725111
-0.6493
-0.61157
-0.543415
-0.509732
-0.44936
-0.419742
-0.367096
-0.34146
-0.296276
-0.274435
-0.236267
-0.217946
-0.186195
-0.171056
-0.145027
-0.132694
-0.111648
-0.101732
-0.0849308
-0.0770577
-0.0638039
-0.0576258
-0.0472943
-0.042525
-0.0346646
-0.0314584
-0.0273129
-0.0309637
-0.0191419
-0.0128757
-0.0106444
-0.00803341
-0.00690395
-0.00517607
-0.00441785
-0.00324785
-0.00274109
-0.00197461
-0.00164774
-0.00116475
-0.000961771
-0.000668572
-0.000546915
-0.000374697
-0.00030397
-0.000205503
-0.000165353
-0.000110088
-8.72349e-05
-5.49969e-05
-4.19102e-05
-2.40346e-05
-1.62451e-05
-4.36639e-06
-1.05616e-06
-2.49464e-07
-2.96901e-05
38.3859
0.261497
-1.43805
-1.86405
-2.1861
-2.23734
-2.15314
-2.14087
-2.16439
-2.92541
-1.92272
-1.58082
-1.48
-1.34714
-1.29496
-1.1819
-1.13588
-1.03147
-0.988898
-0.892119
-0.852781
-0.763662
-0.727623
-0.646434
-0.613807
-0.540819
-0.511692
-0.447043
-0.421432
-0.365059
-0.342892
-0.294515
-0.27563
-0.234768
-0.218928
-0.18494
-0.171851
-0.143992
-0.133329
-0.110806
-0.102234
-0.0842555
-0.077449
-0.0632686
-0.0579276
-0.0468732
-0.0427484
-0.0343094
-0.0315136
-0.0267328
-0.032138
-0.0187282
-0.0125576
-0.0106654
-0.00791993
-0.00694654
-0.00510237
-0.00444727
-0.00319743
-0.00275954
-0.00194116
-0.00165876
-0.00114341
-0.000968086
-0.000655489
-0.000550426
-0.00036695
-0.000305882
-0.000201049
-0.000166389
-0.000107613
-8.78853e-05
-5.35345e-05
-4.22381e-05
-2.32662e-05
-1.65341e-05
-3.70657e-06
-8.50294e-07
-1.98554e-07
-2.96715e-05
38.4092
0.423701
-1.56695
-1.88319
-2.21711
-2.25309
-2.14578
-2.13335
-2.09426
-3.10738
-1.85971
-1.55209
-1.48139
-1.33878
-1.30069
-1.17526
-1.14147
-1.02536
-0.994091
-0.886441
-0.857545
-0.758409
-0.731936
-0.64162
-0.617654
-0.536464
-0.515069
-0.443159
-0.424348
-0.361651
-0.345369
-0.291572
-0.277701
-0.232267
-0.220633
-0.182847
-0.173235
-0.142268
-0.134437
-0.109405
-0.10311
-0.0831325
-0.0781345
-0.0623791
-0.0584572
-0.0461743
-0.0431438
-0.0337281
-0.031648
-0.0257449
-0.0340646
-0.0180246
-0.0120681
-0.0107205
-0.00773546
-0.00702388
-0.00498105
-0.00450042
-0.00311449
-0.00279319
-0.00188624
-0.00167907
-0.00110846
-0.00097988
-0.000634096
-0.000557066
-0.000354301
-0.00030954
-0.000193784
-0.000168388
-0.000103575
-8.91193e-05
-5.11491e-05
-4.28725e-05
-2.20077e-05
-1.70667e-05
-2.64773e-06
-5.56135e-07
-1.27901e-07
-2.96459e-05
38.4375
0.660422
-1.76283
-1.90163
-2.26004
-2.27456
-2.13463
-2.12689
-1.98203
-3.37977
-1.75909
-1.51387
-1.48566
-1.32623
-1.30991
-1.16495
-1.15035
-1.01586
-1.00234
-0.877609
-0.865115
-0.750245
-0.738799
-0.634149
-0.623787
-0.529714
-0.520464
-0.43715
-0.429017
-0.356384
-0.349345
-0.287029
-0.281033
-0.228412
-0.223383
-0.179627
-0.175472
-0.139617
-0.136233
-0.107254
-0.104534
-0.0814096
-0.0792498
-0.0610157
-0.0593209
-0.045105
-0.0437944
-0.032853
-0.031935
-0.0241879
-0.0369655
-0.0169176
-0.0113942
-0.010841
-0.00745998
-0.00715443
-0.00479721
-0.00458975
-0.00298894
-0.00285024
-0.00180331
-0.0017139
-0.00105582
-0.00100035
-0.000601947
-0.000568732
-0.000335329
-0.000316036
-0.000182904
-0.000171963
-9.75212e-05
-9.12932e-05
-4.75753e-05
-4.40099e-05
-2.0112e-05
-1.79782e-05
-1.09568e-06
-1.95375e-07
-4.41862e-08
-2.96158e-05
35.155
-1.05215
-1.05186
-1.05939
-1.15252
-1.1603
-1.21232
-1.22252
-1.28015
-2.29799
-1.25933
-1.17132
-1.1591
-1.09978
-1.09286
-1.02447
-1.01704
-0.943011
-0.935199
-0.859225
-0.851356
-0.776269
-0.768594
-0.696391
-0.689082
-0.621062
-0.614227
-0.551135
-0.544829
-0.486988
-0.48123
-0.428657
-0.423439
-0.375952
-0.371248
-0.328547
-0.324324
-0.286053
-0.282273
-0.248069
-0.244695
-0.214218
-0.211216
-0.184159
-0.181502
-0.157604
-0.155291
-0.134428
-0.132926
-0.118267
-0.197091
-0.100061
-0.0822976
-0.0803478
-0.0688779
-0.0677617
-0.058344
-0.0574492
-0.0497501
-0.0490252
-0.0428366
-0.0422585
-0.0373761
-0.0369209
-0.0331067
-0.032722
-0.0292173
-0.0288079
-0.0244941
-0.024007
-0.0189412
-0.0184443
-0.0140433
-0.0134292
-0.00599506
-0.00535705
-0.000326174
-5.81102e-05
-1.30948e-05
-0.0010197
35.1062
-1.01303
-1.04632
-1.06581
-1.14544
-1.16359
-1.21164
-1.23868
-1.34909
-2.11109
-1.3278
-1.19035
-1.15862
-1.10437
-1.08815
-1.02905
-1.01187
-0.948036
-0.929976
-0.86446
-0.846266
-0.7815
-0.763752
-0.70146
-0.684559
-0.625866
-0.610058
-0.555611
-0.541026
-0.491104
-0.477786
-0.432407
-0.420337
-0.379345
-0.368464
-0.331602
-0.321832
-0.288794
-0.280049
-0.250521
-0.242717
-0.216405
-0.209463
-0.186105
-0.17996
-0.159343
-0.154009
-0.136243
-0.133039
-0.125146
-0.181279
-0.1059
-0.0848292
-0.0799932
-0.0697939
-0.0671916
-0.0590424
-0.0569712
-0.0503211
-0.0486437
-0.0432981
-0.0419603
-0.0377411
-0.036687
-0.0333798
-0.0324878
-0.0294418
-0.0284936
-0.0247715
-0.0236463
-0.019297
-0.0181453
-0.0142849
-0.0128667
-0.006549
-0.00508251
-0.000788002
-0.000165404
-3.79094e-05
-0.00102802
35.0663
-0.98147
-1.04133
-1.06981
-1.14081
-1.16568
-1.2118
-1.2515
-1.39197
-1.98599
-1.37043
-1.20515
-1.15904
-1.10743
-1.08516
-1.03195
-1.00855
-0.951228
-0.926648
-0.8678
-0.843036
-0.784846
-0.760689
-0.704711
-0.681704
-0.628952
-0.607433
-0.558489
-0.538635
-0.493754
-0.475623
-0.434823
-0.41839
-0.381532
-0.366718
-0.333572
-0.32027
-0.290561
-0.278655
-0.252103
-0.241477
-0.217817
-0.208365
-0.187362
-0.178997
-0.16047
-0.153224
-0.137475
-0.133338
-0.129464
-0.170727
-0.109566
-0.0867109
-0.0798528
-0.0704056
-0.066843
-0.0594974
-0.056676
-0.0506929
-0.0484086
-0.043599
-0.0417772
-0.0379792
-0.0365429
-0.0335561
-0.0323396
-0.0295821
-0.0282902
-0.0249449
-0.0234144
-0.0195248
-0.0179546
-0.0144287
-0.0125002
-0.00690883
-0.00492106
-0.00110293
-0.000252879
-5.88559e-05
-0.00103509
35.0383
-0.959554
-1.0376
-1.07211
-1.13803
-1.16691
-1.21221
-1.26029
-1.4167
-1.90928
-1.39504
-1.21518
-1.15967
-1.10931
-1.0834
-1.03364
-1.00659
-0.953105
-0.924685
-0.869771
-0.841138
-0.786827
-0.758894
-0.70664
-0.680035
-0.630785
-0.6059
-0.560201
-0.537241
-0.495331
-0.474363
-0.436262
-0.417257
-0.382835
-0.365702
-0.334745
-0.319362
-0.291615
-0.277845
-0.253046
-0.240757
-0.218659
-0.207728
-0.188111
-0.178438
-0.161144
-0.152777
-0.138241
-0.133626
-0.131974
-0.16427
-0.111698
-0.0879518
-0.0798151
-0.0707813
-0.066645
-0.0597709
-0.0565068
-0.0509162
-0.0482742
-0.04378
-0.0416727
-0.0381226
-0.0364606
-0.0336612
-0.0322527
-0.0296636
-0.0281686
-0.0250454
-0.0232766
-0.0196596
-0.0178419
-0.0145085
-0.01228
-0.00712443
-0.00483276
-0.00129909
-0.000314092
-7.39521e-05
-0.00104022
35.0238
-0.948368
-1.03561
-1.07316
-1.13672
-1.16749
-1.21251
-1.26474
-1.42797
-1.87283
-1.40627
-1.22022
-1.16009
-1.11021
-1.08258
-1.03443
-1.00568
-0.953973
-0.923777
-0.870684
-0.840261
-0.787747
-0.758067
-0.707536
-0.679267
-0.631638
-0.605196
-0.560998
-0.5366
-0.496066
-0.473785
-0.436932
-0.416737
-0.383442
-0.365237
-0.335293
-0.318946
-0.292106
-0.277474
-0.253486
-0.240427
-0.219052
-0.207436
-0.188461
-0.178182
-0.16146
-0.152576
-0.138609
-0.133794
-0.133126
-0.161208
-0.112677
-0.0885673
-0.0798123
-0.0709602
-0.0665558
-0.0598992
-0.05643
-0.051021
-0.0482132
-0.043865
-0.0416255
-0.0381899
-0.0364232
-0.0337103
-0.0322126
-0.0297009
-0.0281117
-0.0250914
-0.0232125
-0.0197222
-0.0177896
-0.0145438
-0.0121768
-0.00722536
-0.00479406
-0.00139326
-0.000345485
-8.18423e-05
-0.00104291
35.0239
-0.948375
-1.03561
-1.07316
-1.13672
-1.16749
-1.21251
-1.26474
-1.42797
-1.87283
-1.40627
-1.22022
-1.16009
-1.11021
-1.08258
-1.03443
-1.00568
-0.953973
-0.923777
-0.870685
-0.840261
-0.787747
-0.758067
-0.707536
-0.679267
-0.631638
-0.605196
-0.560998
-0.536601
-0.496066
-0.473785
-0.436932
-0.416737
-0.383442
-0.365237
-0.335293
-0.318946
-0.292106
-0.277474
-0.253486
-0.240427
-0.219052
-0.207436
-0.188461
-0.178182
-0.16146
-0.152576
-0.138609
-0.133794
-0.133126
-0.161208
-0.112677
-0.0885673
-0.0798123
-0.0709602
-0.0665559
-0.0598992
-0.05643
-0.051021
-0.0482132
-0.043865
-0.0416255
-0.0381899
-0.0364232
-0.0337103
-0.0322126
-0.0297009
-0.0281117
-0.0250914
-0.0232125
-0.0197222
-0.0177896
-0.0145438
-0.0121768
-0.00722536
-0.00479406
-0.00139326
-0.000345482
-8.18416e-05
-0.00104291
35.0383
-0.959574
-1.03761
-1.07212
-1.13803
-1.16692
-1.21221
-1.26029
-1.4167
-1.90928
-1.39504
-1.21518
-1.15967
-1.10931
-1.0834
-1.03364
-1.00659
-0.953105
-0.924686
-0.869771
-0.841138
-0.786828
-0.758895
-0.70664
-0.680035
-0.630785
-0.605901
-0.560201
-0.537241
-0.495331
-0.474363
-0.436262
-0.417257
-0.382835
-0.365703
-0.334745
-0.319362
-0.291615
-0.277845
-0.253046
-0.240757
-0.218659
-0.207728
-0.188111
-0.178438
-0.161144
-0.152777
-0.138241
-0.133626
-0.131975
-0.164271
-0.111698
-0.0879519
-0.0798151
-0.0707814
-0.0666451
-0.0597709
-0.0565068
-0.0509162
-0.0482742
-0.04378
-0.0416728
-0.0381226
-0.0364606
-0.0336613
-0.0322527
-0.0296636
-0.0281686
-0.0250454
-0.0232766
-0.0196596
-0.0178419
-0.0145085
-0.01228
-0.00712442
-0.00483275
-0.00129908
-0.000314087
-7.39505e-05
-0.00104021
35.0664
-0.981497
-1.04134
-1.06981
-1.14081
-1.16568
-1.2118
-1.2515
-1.39197
-1.986
-1.37043
-1.20515
-1.15904
-1.10743
-1.08516
-1.03195
-1.00855
-0.951229
-0.926648
-0.8678
-0.843036
-0.784847
-0.760689
-0.704712
-0.681704
-0.628953
-0.607433
-0.55849
-0.538635
-0.493755
-0.475623
-0.434824
-0.41839
-0.381533
-0.366718
-0.333572
-0.32027
-0.290562
-0.278655
-0.252103
-0.241477
-0.217817
-0.208365
-0.187362
-0.178997
-0.16047
-0.153224
-0.137475
-0.133338
-0.129464
-0.170727
-0.109566
-0.0867109
-0.0798528
-0.0704057
-0.066843
-0.0594975
-0.0566761
-0.0506929
-0.0484087
-0.0435991
-0.0417773
-0.0379793
-0.036543
-0.0335561
-0.0323396
-0.0295822
-0.0282902
-0.0249449
-0.0234144
-0.0195248
-0.0179546
-0.0144287
-0.0125002
-0.00690882
-0.00492105
-0.00110292
-0.000252872
-5.88538e-05
-0.00103508
35.1063
-1.01305
-1.04633
-1.06581
-1.14544
-1.16359
-1.21164
-1.23868
-1.3491
-2.11109
-1.3278
-1.19035
-1.15862
-1.10437
-1.08815
-1.02905
-1.01187
-0.948037
-0.929976
-0.864461
-0.846266
-0.7815
-0.763753
-0.701461
-0.684559
-0.625867
-0.610059
-0.555611
-0.541027
-0.491104
-0.477786
-0.432408
-0.420337
-0.379346
-0.368465
-0.331602
-0.321832
-0.288794
-0.280049
-0.250521
-0.242717
-0.216405
-0.209463
-0.186105
-0.179961
-0.159343
-0.154009
-0.136243
-0.133039
-0.125146
-0.181279
-0.1059
-0.0848292
-0.0799933
-0.069794
-0.0671916
-0.0590425
-0.0569713
-0.0503212
-0.0486437
-0.0432981
-0.0419604
-0.0377411
-0.036687
-0.0333798
-0.0324879
-0.0294418
-0.0284937
-0.0247715
-0.0236463
-0.019297
-0.0181453
-0.0142849
-0.0128667
-0.00654899
-0.0050825
-0.000787993
-0.000165398
-3.79078e-05
-0.00102802
35.155
-1.05216
-1.05186
-1.05939
-1.15252
-1.1603
-1.21232
-1.22252
-1.28015
-2.29799
-1.25933
-1.17132
-1.1591
-1.09978
-1.09286
-1.02447
-1.01704
-0.943011
-0.935199
-0.859226
-0.851356
-0.77627
-0.768595
-0.696391
-0.689083
-0.621063
-0.614227
-0.551135
-0.54483
-0.486988
-0.48123
-0.428657
-0.423439
-0.375952
-0.371248
-0.328547
-0.324324
-0.286053
-0.282273
-0.248069
-0.244695
-0.214218
-0.211217
-0.184159
-0.181502
-0.157604
-0.155291
-0.134428
-0.132927
-0.118267
-0.197091
-0.100062
-0.0822976
-0.0803478
-0.0688779
-0.0677617
-0.058344
-0.0574492
-0.0497502
-0.0490252
-0.0428366
-0.0422585
-0.0373761
-0.0369209
-0.0331067
-0.032722
-0.0292173
-0.0288079
-0.0244941
-0.024007
-0.0189412
-0.0184443
-0.0140433
-0.0134292
-0.00599506
-0.00535704
-0.000326171
-5.81078e-05
-1.30943e-05
-0.0010197
35.1229
-1.053
-1.05208
-1.05957
-1.15261
-1.16038
-1.21235
-1.22255
-1.28013
-2.29788
-1.25924
-1.17116
-1.15893
-1.09953
-1.09259
-1.02411
-1.01668
-0.942544
-0.934722
-0.858651
-0.850772
-0.775593
-0.767909
-0.695624
-0.688308
-0.620219
-0.613378
-0.550234
-0.543924
-0.486048
-0.480287
-0.427699
-0.422479
-0.374994
-0.370291
-0.327608
-0.323387
-0.285148
-0.281371
-0.247211
-0.243842
-0.213416
-0.210421
-0.183421
-0.180771
-0.156934
-0.154628
-0.133826
-0.132328
-0.117712
-0.196149
-0.0995734
-0.0818833
-0.0799419
-0.0685211
-0.0674098
-0.0580352
-0.0571446
-0.0494832
-0.0487619
-0.0426064
-0.0420316
-0.0371789
-0.0367267
-0.0329405
-0.032559
-0.0290867
-0.0286808
-0.0244008
-0.0239168
-0.0188779
-0.0183839
-0.0140092
-0.0133974
-0.00598161
-0.00534513
-0.000325444
-5.79797e-05
-1.30654e-05
-0.00101713
35.0742
-1.01379
-1.04658
-1.06599
-1.14553
-1.16366
-1.21167
-1.2387
-1.34907
-2.11099
-1.3277
-1.19019
-1.15845
-1.10412
-1.08788
-1.0287
-1.01149
-0.947576
-0.929492
-0.863892
-0.845675
-0.78083
-0.763061
-0.700699
-0.68378
-0.625028
-0.609206
-0.554714
-0.540119
-0.490167
-0.476843
-0.43145
-0.419378
-0.378388
-0.367509
-0.330662
-0.320898
-0.287886
-0.27915
-0.24966
-0.241867
-0.2156
-0.208671
-0.185364
-0.179233
-0.158669
-0.15335
-0.135636
-0.132439
-0.12456
-0.180413
-0.105384
-0.0844038
-0.0795888
-0.0694333
-0.0668424
-0.0587305
-0.056669
-0.0500515
-0.0483826
-0.0430656
-0.0417354
-0.0375418
-0.0364946
-0.0332118
-0.0323271
-0.029309
-0.0283688
-0.0246757
-0.0235578
-0.0192319
-0.0180866
-0.0142488
-0.012836
-0.00653409
-0.00507115
-0.000786234
-0.000165032
-3.78243e-05
-0.00102543
35.0342
-0.982172
-1.04162
-1.07
-1.14091
-1.16575
-1.21184
-1.25152
-1.39194
-1.9859
-1.37033
-1.20499
-1.15886
-1.10718
-1.08488
-1.0316
-1.00817
-0.950772
-0.92616
-0.867236
-0.842441
-0.784181
-0.759995
-0.703954
-0.680922
-0.628118
-0.606579
-0.557595
-0.537726
-0.492819
-0.47468
-0.433867
-0.417431
-0.380575
-0.365764
-0.332631
-0.319337
-0.289653
-0.277759
-0.25124
-0.24063
-0.21701
-0.207576
-0.186618
-0.178272
-0.159793
-0.152567
-0.136863
-0.132735
-0.128858
-0.169911
-0.109033
-0.0862773
-0.0794489
-0.0700424
-0.0664955
-0.0591834
-0.0563754
-0.0504215
-0.0481489
-0.043365
-0.0415535
-0.0377786
-0.0363518
-0.0333869
-0.0321804
-0.029448
-0.0281668
-0.0248475
-0.0233269
-0.0194585
-0.017897
-0.0143913
-0.0124701
-0.00689296
-0.00491001
-0.00110045
-0.000252311
-5.87237e-05
-0.00103248
35.0062
-0.960214
-1.03791
-1.0723
-1.13813
-1.16699
-1.21225
-1.26031
-1.41667
-1.90919
-1.39493
-1.21502
-1.15949
-1.10907
-1.08312
-1.0333
-1.00621
-0.952651
-0.924195
-0.86921
-0.840541
-0.786164
-0.758198
-0.705885
-0.679252
-0.629953
-0.605045
-0.559308
-0.536332
-0.494397
-0.47342
-0.435306
-0.416299
-0.381878
-0.364749
-0.333804
-0.31843
-0.290706
-0.27695
-0.252182
-0.239911
-0.21785
-0.20694
-0.187366
-0.177715
-0.160466
-0.152121
-0.137627
-0.133021
-0.131357
-0.163486
-0.111155
-0.0875127
-0.0794114
-0.0704165
-0.0662985
-0.0594557
-0.056207
-0.0506438
-0.0480152
-0.043545
-0.0414497
-0.0379211
-0.0362701
-0.0334914
-0.0320943
-0.0295287
-0.0280461
-0.0249471
-0.0231898
-0.0195926
-0.017785
-0.0144703
-0.0122503
-0.00710797
-0.00482188
-0.00129617
-0.000313387
-7.3786e-05
-0.0010376
34.9917
-0.949008
-1.03593
-1.07335
-1.13683
-1.16757
-1.21254
-1.26475
-1.42794
-1.87275
-1.40616
-1.22007
-1.1599
-1.10997
-1.08231
-1.03408
-1.0053
-0.95352
-0.923285
-0.870125
-0.839663
-0.787085
-0.75737
-0.706782
-0.678483
-0.630807
-0.60434
-0.560106
-0.535691
-0.495133
-0.472841
-0.435977
-0.415779
-0.382485
-0.364283
-0.334351
-0.318014
-0.291197
-0.27658
-0.252622
-0.239582
-0.218243
-0.206649
-0.187715
-0.17746
-0.16078
-0.15192
-0.137994
-0.133188
-0.132504
-0.160438
-0.112129
-0.0881254
-0.0794086
-0.0705947
-0.0662097
-0.0595834
-0.0561306
-0.050748
-0.0479546
-0.0436296
-0.0414028
-0.037988
-0.0362331
-0.0335402
-0.0320546
-0.0295656
-0.0279896
-0.0249926
-0.0231259
-0.0196548
-0.017733
-0.0145053
-0.0121472
-0.00720862
-0.00478325
-0.00139013
-0.000344708
-8.16584e-05
-0.00104028
34.9918
-0.949016
-1.03593
-1.07335
-1.13683
-1.16757
-1.21254
-1.26475
-1.42794
-1.87275
-1.40616
-1.22007
-1.1599
-1.10997
-1.08231
-1.03408
-1.0053
-0.953521
-0.923285
-0.870125
-0.839663
-0.787085
-0.75737
-0.706783
-0.678483
-0.630807
-0.60434
-0.560106
-0.535691
-0.495133
-0.472842
-0.435977
-0.415779
-0.382485
-0.364283
-0.334352
-0.318014
-0.291197
-0.27658
-0.252622
-0.239582
-0.218243
-0.206649
-0.187715
-0.17746
-0.160781
-0.15192
-0.137994
-0.133188
-0.132504
-0.160438
-0.112129
-0.0881254
-0.0794086
-0.0705947
-0.0662097
-0.0595835
-0.0561306
-0.0507481
-0.0479546
-0.0436296
-0.0414028
-0.0379881
-0.0362331
-0.0335402
-0.0320547
-0.0295656
-0.0279896
-0.0249926
-0.0231259
-0.0196548
-0.017733
-0.0145053
-0.0121472
-0.00720862
-0.00478325
-0.00139013
-0.000344706
-8.16578e-05
-0.00104028
35.0062
-0.960235
-1.03791
-1.07231
-1.13813
-1.16699
-1.21225
-1.26031
-1.41667
-1.90919
-1.39494
-1.21502
-1.15949
-1.10907
-1.08312
-1.0333
-1.00621
-0.952652
-0.924195
-0.86921
-0.840541
-0.786165
-0.758199
-0.705885
-0.679252
-0.629953
-0.605045
-0.559308
-0.536332
-0.494397
-0.47342
-0.435307
-0.416299
-0.381878
-0.364749
-0.333804
-0.31843
-0.290706
-0.27695
-0.252182
-0.239911
-0.217851
-0.20694
-0.187366
-0.177715
-0.160466
-0.152121
-0.137627
-0.133021
-0.131357
-0.163486
-0.111155
-0.0875127
-0.0794114
-0.0704165
-0.0662985
-0.0594557
-0.0562071
-0.0506438
-0.0480152
-0.0435451
-0.0414498
-0.0379211
-0.0362702
-0.0334914
-0.0320943
-0.0295287
-0.0280461
-0.0249471
-0.0231898
-0.0195926
-0.017785
-0.0144703
-0.0122503
-0.00710796
-0.00482187
-0.00129616
-0.000313381
-7.37843e-05
-0.00103759
35.0343
-0.982199
-1.04163
-1.07
-1.14091
-1.16576
-1.21184
-1.25152
-1.39194
-1.9859
-1.37033
-1.20499
-1.15886
-1.10718
-1.08488
-1.0316
-1.00817
-0.950773
-0.92616
-0.867237
-0.842442
-0.784181
-0.759996
-0.703955
-0.680923
-0.628118
-0.606579
-0.557595
-0.537727
-0.49282
-0.47468
-0.433868
-0.417432
-0.380575
-0.365764
-0.332631
-0.319338
-0.289653
-0.277759
-0.25124
-0.24063
-0.21701
-0.207576
-0.186618
-0.178272
-0.159793
-0.152567
-0.136864
-0.132736
-0.128858
-0.169911
-0.109033
-0.0862773
-0.079449
-0.0700425
-0.0664955
-0.0591835
-0.0563754
-0.0504215
-0.0481489
-0.043365
-0.0415535
-0.0377786
-0.0363518
-0.0333869
-0.0321804
-0.029448
-0.0281669
-0.0248475
-0.023327
-0.0194585
-0.017897
-0.0143913
-0.0124701
-0.00689295
-0.00491
-0.00110044
-0.000252304
-5.87216e-05
-0.00103247
35.0742
-1.01382
-1.04659
-1.06599
-1.14553
-1.16367
-1.21167
-1.2387
-1.34907
-2.11099
-1.3277
-1.19019
-1.15845
-1.10412
-1.08788
-1.0287
-1.01149
-0.947577
-0.929492
-0.863893
-0.845676
-0.78083
-0.763062
-0.7007
-0.68378
-0.625029
-0.609206
-0.554714
-0.540119
-0.490168
-0.476843
-0.431451
-0.419378
-0.378388
-0.367509
-0.330662
-0.320898
-0.287887
-0.279151
-0.24966
-0.241867
-0.215601
-0.208672
-0.185364
-0.179233
-0.158669
-0.15335
-0.135636
-0.132439
-0.12456
-0.180413
-0.105384
-0.0844039
-0.0795889
-0.0694333
-0.0668425
-0.0587305
-0.0566691
-0.0500515
-0.0483826
-0.0430656
-0.0417354
-0.0375418
-0.0364947
-0.0332118
-0.0323271
-0.029309
-0.0283689
-0.0246757
-0.0235578
-0.0192319
-0.0180866
-0.0142488
-0.012836
-0.00653408
-0.00507114
-0.000786225
-0.000165026
-3.78226e-05
-0.00102542
35.1229
-1.05301
-1.05208
-1.05957
-1.15261
-1.16038
-1.21235
-1.22255
-1.28013
-2.29788
-1.25924
-1.17116
-1.15893
-1.09953
-1.09259
-1.02411
-1.01668
-0.942544
-0.934722
-0.858651
-0.850772
-0.775593
-0.767909
-0.695624
-0.688308
-0.62022
-0.613378
-0.550234
-0.543924
-0.486048
-0.480288
-0.427699
-0.422479
-0.374994
-0.370291
-0.327608
-0.323387
-0.285148
-0.281371
-0.247211
-0.243842
-0.213416
-0.210421
-0.183421
-0.180771
-0.156935
-0.154628
-0.133826
-0.132328
-0.117712
-0.196149
-0.0995734
-0.0818833
-0.0799419
-0.0685211
-0.0674099
-0.0580352
-0.0571446
-0.0494833
-0.048762
-0.0426065
-0.0420316
-0.0371789
-0.0367267
-0.0329405
-0.032559
-0.0290867
-0.0286808
-0.0244008
-0.0239168
-0.0188779
-0.0183839
-0.0140092
-0.0133974
-0.00598161
-0.00534513
-0.00032544
-5.79773e-05
-1.30649e-05
-0.00101712
38.4404
0.660182
-1.76308
-1.90188
-2.26012
-2.27462
-2.13458
-2.12684
-1.98194
-3.37962
-1.75902
-1.51383
-1.48563
-1.32625
-1.30993
-1.16503
-1.15043
-1.01598
-1.00247
-0.877779
-0.865289
-0.750441
-0.738997
-0.634354
-0.623992
-0.529911
-0.52066
-0.437326
-0.429191
-0.356529
-0.349487
-0.287138
-0.281138
-0.228483
-0.223451
-0.179664
-0.175506
-0.139625
-0.136238
-0.10724
-0.104518
-0.0813807
-0.0792198
-0.0609789
-0.0592836
-0.045066
-0.0437553
-0.0328158
-0.0318979
-0.0241539
-0.0369094
-0.0168896
-0.0113729
-0.0108204
-0.00744425
-0.00713917
-0.00478601
-0.00457893
-0.00298128
-0.00284287
-0.00179828
-0.00170909
-0.00105266
-0.000997332
-0.000600035
-0.000566915
-0.000334221
-0.000314988
-0.000182292
-0.000171387
-9.72088e-05
-9.10028e-05
-4.74394e-05
-4.38864e-05
-2.00689e-05
-1.79411e-05
-1.09338e-06
-1.94958e-07
-4.40498e-08
-2.95893e-05
38.4121
0.423485
-1.56719
-1.88343
-2.2172
-2.25314
-2.14575
-2.1333
-2.09417
-3.10724
-1.85963
-1.55205
-1.48137
-1.33879
-1.30072
-1.17533
-1.14155
-1.02549
-0.994227
-0.886608
-0.85772
-0.758603
-0.732133
-0.641824
-0.617858
-0.536661
-0.515263
-0.443337
-0.424519
-0.361798
-0.345508
-0.291683
-0.277804
-0.23234
-0.220699
-0.182887
-0.173267
-0.142278
-0.134442
-0.109392
-0.103094
-0.0831046
-0.0781042
-0.0623428
-0.0584199
-0.0461355
-0.0431049
-0.0336906
-0.0316108
-0.0257091
-0.0340131
-0.0179951
-0.012046
-0.0107001
-0.00771935
-0.00700888
-0.00496956
-0.00448979
-0.00310659
-0.00278596
-0.00188103
-0.00167434
-0.00110517
-0.000976919
-0.000632097
-0.000555288
-0.000353137
-0.000308515
-0.000193138
-0.000167827
-0.000103241
-8.88367e-05
-5.10005e-05
-4.27525e-05
-2.19577e-05
-1.70308e-05
-2.64211e-06
-5.54947e-07
-1.27534e-07
-2.96194e-05
38.3887
0.261292
-1.43828
-1.86427
-2.1862
-2.2374
-2.15311
-2.14081
-2.1643
-2.92529
-1.92264
-1.58078
-1.47997
-1.34715
-1.29499
-1.18197
-1.13597
-1.03159
-0.989034
-0.892284
-0.852956
-0.763855
-0.72782
-0.646637
-0.614011
-0.541016
-0.511885
-0.447221
-0.421602
-0.365207
-0.34303
-0.294628
-0.275731
-0.234844
-0.218992
-0.184981
-0.171882
-0.144003
-0.133333
-0.110794
-0.102217
-0.0842283
-0.0774186
-0.0632328
-0.0578903
-0.0468345
-0.0427096
-0.0342719
-0.0314764
-0.0266959
-0.0320896
-0.0186977
-0.0125348
-0.0106451
-0.00790357
-0.00693169
-0.00509068
-0.00443676
-0.00318938
-0.0027524
-0.00193583
-0.00165409
-0.00114003
-0.000965163
-0.000653432
-0.00054867
-0.000365749
-0.00030487
-0.000200379
-0.000165835
-0.000107266
-8.7607e-05
-5.33775e-05
-4.21201e-05
-2.32116e-05
-1.64988e-05
-3.69867e-06
-8.48475e-07
-1.98027e-07
-2.9645e-05
38.3723
0.160034
-1.36032
-1.84928
-2.16602
-2.22706
-2.15759
-2.14689
-2.20493
-2.81387
-1.95921
-1.59987
-1.47985
-1.35228
-1.29169
-1.18593
-1.1327
-1.03522
-0.986003
-0.895658
-0.850178
-0.766979
-0.725308
-0.649503
-0.611773
-0.543613
-0.509925
-0.449539
-0.419912
-0.367245
-0.341597
-0.29639
-0.274536
-0.236343
-0.21801
-0.186236
-0.171087
-0.145039
-0.132697
-0.111636
-0.101715
-0.084904
-0.0770271
-0.0637684
-0.0575886
-0.0472557
-0.0424863
-0.034627
-0.0314211
-0.0272754
-0.0309172
-0.0191109
-0.0128526
-0.0106241
-0.0080169
-0.00688918
-0.00516425
-0.00440741
-0.0032397
-0.00273399
-0.00196922
-0.00164311
-0.00116132
-0.000958868
-0.00066648
-0.000545172
-0.000373473
-0.000302965
-0.000204819
-0.000164803
-0.000109732
-8.6959e-05
-5.48346e-05
-4.17931e-05
-2.39772e-05
-1.621e-05
-4.35703e-06
-1.0539e-06
-2.48853e-07
-2.96635e-05
38.3638
0.111381
-1.32362
-1.84118
-2.15606
-2.22194
-2.15971
-2.15021
-2.2235
-2.76098
-1.97596
-1.60937
-1.48003
-1.35472
-1.29018
-1.18777
-1.1312
-1.03691
-0.98461
-0.897229
-0.848901
-0.768434
-0.724155
-0.650839
-0.610747
-0.544824
-0.509027
-0.450621
-0.419139
-0.368197
-0.340942
-0.297214
-0.273991
-0.237045
-0.217563
-0.186825
-0.170725
-0.145525
-0.132409
-0.112031
-0.101488
-0.0852212
-0.07685
-0.0640199
-0.0574523
-0.0474537
-0.0423861
-0.0347955
-0.0314029
-0.027543
-0.0303624
-0.0193019
-0.0130089
-0.010618
-0.00807092
-0.00687046
-0.00519902
-0.00439443
-0.00326349
-0.00272591
-0.00198502
-0.00163833
-0.0011714
-0.000956155
-0.000672672
-0.00054368
-0.000377142
-0.000302161
-0.00020693
-0.00016437
-0.000110904
-8.66833e-05
-5.55273e-05
-4.16562e-05
-2.43402e-05
-1.60842e-05
-4.67316e-06
-1.15926e-06
-2.75437e-07
-2.96732e-05
38.3638
0.111374
-1.32363
-1.84118
-2.15606
-2.22195
-2.15971
-2.15021
-2.2235
-2.76098
-1.97596
-1.60937
-1.48003
-1.35472
-1.29018
-1.18777