/*--------------------------------*- C++ -*----------------------------------*\
| =========                 |                                                 |
| \\      /  F ield         | OpenFOAM: The Open Source CFD Toolbox           |
|  \\    /   O peration     | Version:  5.x                                   |
|   \\  /    A nd           | Web:      www.OpenFOAM.org                      |
|    \\/     M anipulation  |                                                 |
\*---------------------------------------------------------------------------*/
FoamFile
{
    version     2.0;
    format      ascii;
    class       volScalarField;
    location    "8.4";
    object      gradTy;
}
// * * * * * * * * * * * * * * * * * * * * * * * * * * * * * * * * * * * * * //

dimensions      [0 -1 0 1 0 0 0];

internalField   nonuniform List<scalar> 
6300
(
1033.36
1100.34
1168.05
1236.99
1307.6
1380.31
1455.47
1533.39
1614.28
1698.24
1785.26
1875.16
1967.63
2062.22
2158.34
-0.373118
-1.11252
-1.83081
-2.51205
-3.13769
-3.68589
-4.13139
-4.44609
-4.60064
-4.56729
-4.32387
-3.85873
-3.17556
-2.29681
-1.264
-0.629477
-1.87767
-3.09256
-4.24861
-5.31562
-6.25734
-7.03101
-7.58801
-7.87632
-7.84519
-7.4523
-6.67287
-5.50933
-3.99872
-2.21446
-0.896606
-2.67613
-4.4131
-6.07416
-7.61874
-8.99674
-10.1472
-10.9985
-11.4713
-11.4847
-10.9671
-9.87096
-8.19003
-5.97415
-3.33513
-1.1774
-3.51711
-5.80951
-8.01616
-10.0884
-11.9636
-13.5624
-14.7874
-15.5256
-15.6551
-15.0603
-13.6537
-11.4056
-8.37269
-4.71468
-1.47325
-4.40536
-7.29158
-10.0924
-12.7549
-15.2068
-17.3512
-19.063
-20.1882
-20.5497
-19.9651
-18.2778
-15.4056
-11.3961
-6.46777
-1.78352
-5.33945
-8.85895
-12.307
-15.632
-18.7571
-21.5724
-23.9251
-25.6141
-26.3902
-25.9722
-24.0866
-20.5429
-15.338
-8.75646
-2.10486
-6.30991
-10.4976
-14.6446
-18.7085
-22.6173
-26.2558
-29.4506
-31.9525
-33.4247
-33.4464
-31.5531
-27.3412
-20.6564
-11.8287
-2.43082
-7.29765
-12.1768
-17.0651
-21.94
-26.7472
-31.3827
-35.6686
-39.3201
-41.9091
-42.8352
-41.3377
-36.6122
-28.1176
-16.1028
-2.75156
-8.27297
-13.8467
-19.4988
-25.239
-31.0484
-36.8589
-42.5205
-47.7498
-52.056
-54.647
-54.3498
-49.652
-39.099
-22.3707
-3.054
-9.19583
-15.4382
-21.8441
-28.4685
-35.3481
-42.4836
-49.804
-57.1019
-63.9176
-69.3465
-71.7621
-68.5464
-56.2558
-32.3693
-3.32257
-10.0181
-16.8658
-23.9708
-31.4423
-39.3915
-47.9228
-57.1095
-66.9357
-77.165
-87.0586
-94.8051
-96.5153
-85.008
-50.678
-3.54076
-10.688
-18.0359
-25.7306
-33.938
-42.8523
-52.7061
-63.7748
-76.3653
-90.7474
-106.917
-123.883
-137.7
-136.582
-92.1151
-3.69322
-11.157
-18.8589
-26.9776
-35.7263
-45.3732
-56.2736
-68.9174
-84.0026
-102.541
-125.976
-156.11
-193.82
-231.502
-214.78
-3.76825
-11.388
-19.2646
-27.5943
-36.6159
-46.6401
-58.0971
-71.6177
-88.1852
-109.438
-138.335
-180.759
-249.963
-380.823
-683.638
2247.2
2328.07
2408.58
2488.28
2566.73
2643.55
2718.39
2790.93
2860.92
2928.14
2992.41
3053.6
3111.58
3166.29
3217.64
3265.61
3310.15
3351.25
3388.9
3423.11
3453.89
3481.26
3505.26
3525.92
3543.29
3557.42
3568.35
3576.16
3580.9
3582.63
3581.42
3577.34
3570.44
3560.81
3548.49
3533.56
3516.08
3496.12
3473.73
3448.97
3421.93
3392.64
3361.19
3327.64
3292.04
3254.46
3214.97
3173.62
3130.47
3085.57
3038.96
2990.7
2940.84
2889.41
2836.46
2782.04
2726.2
2668.99
2610.47
2550.69
2489.71
2427.6
2364.41
2300.21
2235.07
2169.04
2102.21
2034.64
1966.42
1897.64
1828.4
1758.81
1689
1619.11
1549.28
1479.69
1410.5
1341.88
1274.03
1207.13
1141.34
1076.86
1013.85
952.454
892.827
835.089
779.344
725.674
674.132
624.744
-0.228175
0.739789
1.6971
2.61092
3.45523
4.21228
4.87272
5.43467
5.90211
6.28305
6.58764
6.82671
7.01056
7.14826
7.24728
7.31348
7.35128
7.36393
7.35393
7.32325
7.27364
7.20679
7.12444
7.02836
6.92041
6.80246
6.67637
6.54395
6.40692
6.26689
6.12529
5.98332
5.84192
5.70168
5.56284
5.42532
5.28872
5.15251
5.01611
4.87906
4.74122
4.60282
4.46455
4.32748
4.19296
4.06244
3.93719
3.8181
3.70552
3.59906
3.49767
3.39963
3.30287
3.20513
3.10435
2.99889
2.88778
2.77075
2.64821
2.52105
2.3903
2.25682
2.12093
1.98208
1.83873
1.68828
1.52725
1.35158
1.15705
0.939817
0.696873
0.426463
0.12835
-0.196089
-0.543939
-0.910974
-1.29196
-1.68102
-2.07191
-2.45824
-2.83361
-3.19157
-3.52557
-3.8289
-4.09472
-4.31627
-4.48729
-4.60254
-4.65854
-4.65404
-0.422639
1.24939
2.8972
4.46171
5.89726
7.17401
8.27784
9.20813
9.97452
10.5932
11.0836
11.4656
11.7576
11.9751
12.1307
12.2339
12.2917
12.3088
12.2889
12.2349
12.1495
12.0354
11.8952
11.7322
11.5493
11.3497
11.1366
10.9132
10.6822
10.4466
10.2086
9.97055
9.73393
9.49981
9.26856
9.03995
8.81317
8.58708
8.36044
8.13227
7.90215
7.67041
7.43824
7.20765
6.98119
6.76162
6.55144
6.35247
6.16542
5.98971
5.82341
5.66337
5.50567
5.34609
5.18072
5.00653
4.82177
4.62609
4.42049
4.20691
3.98766
3.76475
3.53914
3.31023
3.07546
2.83028
2.56838
2.2823
1.96423
1.60698
1.20488
0.754588
0.255554
-0.289804
-0.876278
-1.49632
-2.14068
-2.79906
-3.46071
-4.11484
-4.75075
-5.35781
-5.92519
-6.44163
-6.89543
-7.27468
-7.56798
-7.76564
-7.86093
-7.8513
-0.678767
1.79436
4.21778
6.49879
8.56856
10.3854
11.9336
13.2184
14.2604
15.0889
15.7366
16.2351
16.6126
16.8919
17.0905
17.2209
17.2915
17.3079
17.2739
17.1929
17.0679
16.9023
16.7001
16.4656
16.2031
15.9174
15.613
15.2943
14.9655
14.6306
14.2933
13.9568
13.6235
13.2949
12.9716
12.6531
12.3378
12.0235
11.7081
11.3894
11.0665
10.7397
10.4108
10.083
9.76057
9.44833
9.15062
8.87069
8.61002
8.36785
8.14113
7.92475
7.71217
7.49634
7.27073
7.03034
6.77239
6.49663
6.20515
5.90181
5.59117
5.27738
4.96292
4.64761
4.32797
3.9971
3.64506
3.2598
2.82854
2.3394
1.78295
1.15354
0.45009
-0.323703
-1.15968
-2.04609
-2.96866
-3.91185
-4.85983
-5.79716
-6.70898
-7.58075
-8.3977
-9.14417
-9.80312
-10.3565
-10.786
-11.0758
-11.2141
-11.1961
-1.01884
2.41084
5.74337
8.84002
11.604
13.9838
15.9686
17.5785
18.8539
19.8452
20.6044
21.1791
21.6091
21.9251
22.1488
22.2942
22.3696
22.3796
22.3271
22.2145
22.0449
21.8224
21.552
21.2394
20.8909
20.5125
20.1103
19.6902
19.2578
18.8185
18.3773
17.9388
17.5065
17.0828
16.6682
16.2619
15.8612
15.4622
15.0607
14.653
14.237
13.8124
13.382
12.9508
12.5257
12.1145
11.7246
11.3616
11.0284
10.7241
10.4444
10.181
9.92372
9.66103
9.3824
9.07981
8.74903
8.39014
8.00726
7.60755
7.19957
6.79134
6.38827
5.99155
5.59698
5.19474
4.7699
4.30384
3.77652
3.16906
2.4664
1.65944
0.746229
-0.267734
-1.37016
-2.54345
-3.76663
-5.01742
-6.27398
-7.51592
-8.72456
-9.88232
-10.9714
-11.9724
-12.8626
-13.6162
-14.2052
-14.6038
-14.792
-14.7609
-1.45912
3.16756
7.60895
11.6606
15.1929
18.1515
20.5438
22.4206
23.857
24.9365
25.7387
26.3323
26.7706
27.092
27.3205
27.469
27.5426
27.5423
27.4676
27.319
27.099
26.8123
26.4654
26.0661
25.6225
25.1428
24.6345
24.1049
23.5611
23.01
22.4585
21.9129
21.3784
20.8584
20.3541
19.8638
19.3831
18.9055
18.4233
17.9299
17.4206
16.8947
16.3556
15.811
15.272
14.7511
14.2608
13.8106
13.4059
13.0462
12.7249
12.4296
12.144
11.8496
11.5295
11.1708
10.7671
10.3191
9.8345
9.32607
8.8092
8.29869
7.80532
7.33319
6.87784
6.42571
5.95482
5.43686
4.84063
4.13649
3.30074
2.31902
1.18811
-0.0837203
-1.47796
-2.96834
-4.5242
-6.11407
-7.70856
-9.28204
-10.8128
-12.2821
-13.6715
-14.9596
-16.1185
-17.1121
-17.8983
-18.4342
-18.6851
-18.6344
-2.00501
4.19106
10.0357
15.2288
19.6078
23.1343
25.861
27.8965
29.3738
30.4267
31.1735
31.7087
32.1006
32.3927
32.6074
32.7517
32.8222
32.812
32.7144
32.5264
32.2493
31.8889
31.4544
30.9565
30.4063
29.8143
29.1895
28.5403
27.875
27.2024
26.5314
25.8712
25.2295
24.6118
24.0201
23.4521
22.9009
22.3554
21.8026
21.2298
20.6285
19.9961
19.3372
18.6635
17.9923
17.3441
16.7394
16.1945
15.719
15.3133
14.9681
14.6647
14.3771
14.0756
13.7324
13.3268
12.849
12.301
11.6963
11.057
10.4099
9.78156
9.19203
8.65091
8.1543
7.68393
7.20777
6.68281
6.06036
5.29366
4.34554
3.19364
1.83316
0.276818
-1.44704
-3.29863
-5.23247
-7.20373
-9.17306
-11.1092
-12.9892
-14.7966
-16.5172
-18.1325
-19.6117
-20.9065
-21.9515
-22.6744
-23.0122
-22.9327
-2.63504
5.72043
13.4001
19.9687
25.2498
29.2677
32.1724
34.1748
35.5004
36.3564
36.9116
37.2902
37.5729
37.8033
37.9947
38.1392
38.2169
38.2061
38.0902
37.8607
37.5182
37.0712
36.5333
35.9208
35.2493
34.5318
33.7784
32.9976
32.1984
31.3911
30.5878
29.8018
29.045
28.3267
27.6509
27.0152
26.4092
25.815
25.2095
24.5699
23.8802
23.1346
22.3392
21.5114
20.6784
19.8736
19.1308
18.4776
17.9307
17.4923
17.1501
16.876
16.6292
16.3607
16.0241
15.586
15.0311
14.3638
13.607
12.7981
11.9829
11.2077
10.5082
9.90374
9.39221
8.94978
8.53027
8.06845
7.48714
6.71145
5.68314
4.36806
2.75972
0.878062
-1.23262
-3.51091
-5.88718
-8.29644
-10.6855
-13.0174
-15.2703
-17.4361
-19.5143
-21.501
-23.3707
-25.06
-26.4685
-27.4688
-27.9398
-27.8175
-3.26188
8.22237
18.3635
26.5617
32.7097
37.0027
39.7814
41.4255
42.3009
42.7169
42.9016
43.0073
43.1181
43.2678
43.4471
43.6204
43.7363
43.7493
43.6268
43.3551
42.9352
42.3817
41.717
40.9673
40.156
39.2984
38.404
37.479
36.5309
35.5714
34.6169
33.6876
32.8026
31.9779
31.2216
30.5331
29.8982
29.2886
28.6631
27.9796
27.21
26.3426
25.3857
24.3643
23.3217
22.3113
21.3909
20.6056
19.9837
19.5307
19.2317
19.046
18.9104
18.7418
18.4599
18.0114
17.3726
16.5537
15.5906
14.5461
13.4965
12.5228
11.6858
11.0208
10.5288
10.1809
9.91194
9.62446
9.19222
8.4914
7.43216
5.96331
4.07845
1.80778
-0.778071
-3.58327
-6.49544
-9.41917
-12.2812
-15.0401
-17.6773
-20.2024
-22.6434
-25.0386
-27.3893
-29.6181
-31.5732
-33.0252
-33.7216
-33.5307
-3.61661
12.6576
26.1238
36.1055
42.84
46.9177
49.0234
49.7823
49.7617
49.409
49.004
48.7155
48.606
48.6881
48.9066
49.1828
49.4023
49.4861
49.377
49.0614
48.543
47.8509
47.0216
46.1013
45.1277
44.1168
43.0722
41.9923
40.8786
39.7434
38.6084
37.5083
36.4724
35.5293
34.6934
33.9726
33.3494
32.7842
32.1988
31.5122
30.6797
29.6784
28.5239
27.2465
25.9178
24.6184
23.4555
22.497
21.7924
21.3465
21.1489
21.1427
21.2383
21.2848
21.1347
20.7097
19.9727
18.9501
17.6903
16.3008
14.8998
13.64
12.615
11.8879
11.4569
11.2974
11.3195
11.3881
11.2833
10.7867
9.77029
8.15696
5.95215
3.19085
-0.00812404
-3.50198
-7.08739
-10.6311
-14.0254
-17.2384
-20.2459
-23.0898
-25.8383
-28.6401
-31.5834
-34.5701
-37.4019
-39.6694
-40.7806
-40.4589
-2.85582
21.1357
38.9013
50.3242
56.7955
59.6725
60.2055
59.2628
57.7021
56.178
54.9402
54.1672
53.8197
53.9134
54.2846
54.8286
55.2655
55.5025
55.4263
55.0616
54.4031
53.5197
52.4594
51.3142
50.1557
48.9861
47.7936
46.5567
45.2595
43.9177
42.552
41.2391
40.0109
38.9291
38.0019
37.2742
36.7194
36.3117
35.8829
35.2573
34.3949
33.2374
31.8413
30.2055
28.4739
26.7317
25.228
24.0254
23.2312
22.807
22.793
23.095
23.6392
24.1135
24.2073
23.8595
22.9863
21.6904
19.979
18.0743
16.1017
14.4214
13.117
12.3308
11.9961
12.1544
12.6619
13.4033
13.9401
13.8325
12.9697
11.2041
8.62894
5.20591
1.18823
-3.28709
-7.73766
-12.0563
-16.0289
-19.7309
-23.0482
-26.1131
-28.9551
-32.0362
-35.7133
-39.7438
-44.0418
-47.9773
-49.9016
-49.2642
1.99274
38.5795
60.8126
71.6727
75.9252
75.8004
73.5105
69.6314
65.5878
62.5326
60.2053
59.0044
58.3963
58.7373
59.4118
60.6267
61.4149
61.9683
61.889
61.4829
60.5854
59.4412
58.0178
56.5443
55.1978
53.8865
52.5771
51.2062
49.703
48.1246
46.4178
44.8467
43.337
42.1046
41.0215
40.3254
39.8761
39.8679
39.8488
39.342
38.5336
37.1385
35.5026
33.3009
31.0438
28.5
26.5658
24.9641
24.1358
23.6755
23.9807
24.6971
26.1393
27.4886
27.9146
27.7645
26.6072
25.0277
22.5448
19.944
16.8816
14.6602
12.8718
12.1222
11.8243
12.5071
13.6666
15.7121
17.524
17.9647
17.468
15.416
12.5258
8.07644
3.04281
-3.1085
-8.5785
-13.9803
-18.4225
-22.7778
-26.214
-29.4574
-31.7277
-34.5736
-39.3344
-44.5317
-51.2032
-59.1808
-62.7108
-61.1459
23.1067
76.6916
99.1005
102.536
101.358
95.0451
89.1026
80.2352
72.0486
67.8379
63.8466
62.9866
61.6048
63.0794
63.7595
67.0378
67.9008
69.3434
68.8211
68.6103
67.1214
65.7634
63.6467
61.5904
60.1877
58.7829
57.4479
56.0451
54.2537
52.5152
50.087
48.3646
46.2626
45.0642
43.4826
43.0203
42.3966
43.4388
44.5162
43.8598
43.5161
41.3853
39.9779
36.475
34.0255
29.3895
27.424
24.788
24.5094
23.441
24.5752
25.2531
28.7723
32.1922
32.4506
33.1187
30.835
29.6651
25.2793
22.4777
16.4495
14.2746
11.13
11.2624
10.2395
12.1725
13.3947
18.3564
23.0814
23.4462
24.2049
20.8344
18.6669
11.7878
6.5063
-3.91139
-9.51792
-17.2861
-20.9413
-27.1481
-29.6575
-34.203
-33.6711
-34.3534
-42.3264
-47.1964
-56.4831
-76.788
-82.8559
-78.3267
117.894
159.694
164.707
140.04
134.181
113.756
108.905
89.858
72.7838
72.8266
62.979
67.7196
60.7
68.5656
64.3655
76.9265
73.552
79.5478
75.3042
77.5781
73.469
73.1781
69.1889
65.6954
65.1808
63.5789
62.4169
61.4437
58.7287
57.8996
52.7402
52.4296
47.8876
48.5763
44.3327
45.948
42.5189
46.9595
51.6807
47.9279
51.0727
44.5909
47.4713
38.1328
40.1566
26.434
29.2484
21.2181
26.0208
20.0354
25.8274
21.7184
31.5489
41.4486
36.3972
42.7238
33.4596
38.9336
25.7331
29.6582
10.4692
15.286
4.66969
12.0668
4.39879
12.862
7.73856
21.3419
34.9176
28.3607
36.8882
24.5209
31.5929
13.1991
17.3664
-11.6416
-7.34379
-26.5138
-19.785
-36.8418
-30.1678
-46.2589
-33.8651
-23.6335
-49.7856
-43.5002
-45.8955
-114.895
-118.259
-104.902
587.985
295.669
273.051
150.456
187.978
110.037
149.148
96.637
48.8678
92.0552
41.1018
89.3849
38.3582
91.4241
40.8329
109.76
65.7073
104.494
72.3997
95.7347
74.3156
85.9158
74.015
65.5082
71.7374
67.7392
67.1116
69.3482
60.486
69.5175
48.4092
62.5859
41.9784
59.1889
36.7438
56.1379
31.3068
50.0742
71.046
42.0616
72.4898
34.313
72.5579
23.427
68.9608
-0.336745
46.6876
-0.832962
43.0655
-0.331605
41.3352
-1.89089
34.2239
72.2327
23.9577
74.7776
14.8594
75.0915
1.52422
70.1213
-30.081
38.5195
-27.7313
34.5637
-24.6723
33.115
-24.8855
24.3656
75.7431
11.552
79.6586
0.213206
81.1883
-17.8789
75.9981
-67.333
28.6233
-73.036
15.6224
-80.7079
2.10331
-99.3327
-30.9455
39.4789
-103.954
-27.3032
60.6022
-247.513
-177.739
-149.269
572.787
519.161
468.486
420.611
375.351
332.492
291.804
253.048
215.979
180.358
145.947
112.514
79.8345
47.6886
15.8609
-4.58398
-4.42836
-4.20451
-3.92609
-3.60761
-3.26282
-2.90362
-2.53941
-2.17702
-1.82081
-1.47302
-1.13419
-0.803545
-0.479373
-0.15932
-7.72779
-7.45628
-7.06808
-6.58798
-6.04193
-5.4541
-4.84497
-4.23039
-3.62155
-3.02535
-2.4451
-1.88123
-1.33206
-0.794382
-0.263966
-11.0082
-10.6007
-10.0234
-9.31567
-8.5179
-7.66658
-6.79166
-5.91555
-5.05338
-4.2139
-3.40074
-2.61354
-1.84908
-1.10211
-0.366126
-14.4907
-13.9148
-13.1089
-12.1332
-11.0473
-9.90254
-8.73944
-7.58669
-6.46242
-5.37607
-4.33036
-3.32307
-2.34856
-1.39885
-0.464543
-18.2539
-17.4586
-16.3638
-15.0609
-13.6352
-12.1567
-10.6767
-9.2292
-7.83343
-6.49751
-5.22147
-3.99978
-2.82319
-1.68016
-0.557737
-22.3968
-21.3016
-19.8265
-18.111
-16.2757
-14.412
-12.5814
-10.8198
-9.14445
-7.55896
-6.05817
-4.6313
-3.26422
-1.94082
-0.643975
-27.0502
-25.5239
-23.5295
-21.2804
-18.9442
-16.6341
-14.4166
-12.324
-10.3654
-8.53558
-6.82083
-5.20297
-3.6615
-2.17491
-0.721304
-32.3923
-30.2142
-27.4867
-24.5366
-21.5863
-18.7631
-16.1268
-13.6941
-11.4575
-9.39695
-7.48647
-5.69815
-4.00385
-2.37598
-0.787623
-38.6702
-35.4534
-31.6661
-27.7928
-24.1008
-20.7051
-17.633
-14.8677
-12.3734
-10.1081
-8.02983
-6.09921
-4.2797
-2.53749
-0.840817
-46.2127
-41.2623
-35.9306
-30.8674
-26.3186
-22.323
-18.8321
-15.7702
-13.0601
-10.6319
-8.42543
-6.38906
-4.47818
-2.65342
-0.878959
-55.3757
-47.4519
-39.9261
-33.4268
-27.9828
-23.4358
-19.6018
-16.3207
-13.4645
-10.9338
-8.65079
-6.5533
-4.59046
-2.719
-0.900544
-66.1671
-53.2429
-42.8944
-34.9304
-28.7495
-23.8353
-19.8184
-16.4458
-13.5433
-10.988
-8.69043
-6.58276
-4.6113
-2.73154
-0.904742
-76.6165
-56.457
-43.4775
-34.6503
-28.249
-23.3369
-19.3904
-16.1006
-13.2745
-10.7842
-8.54004
-6.47591
-4.54033
-2.69108
-0.891606
-76.3673
-52.4901
-39.9076
-31.9435
-26.2589
-21.8727
-18.3052
-15.2914
-12.6698
-10.334
-8.20949
-6.24041
-4.38296
-2.60081
-0.862187
-3.76712
-11.3841
-19.2563
-27.5791
-36.5902
-46.6004
-58.0403
-71.545
-88.1104
-109.414
-138.531
-181.702
-253.229
-390.353
-701.878
-3.70274
-11.185
-18.9038
-27.0378
-35.8015
-45.4683
-56.4052
-69.1291
-84.3988
-103.365
-127.793
-160.23
-203.077
-250.37
-237.797
-3.58499
-10.8216
-18.2626
-26.0589
-34.3854
-43.4538
-53.5285
-64.9447
-78.1192
-93.5221
-111.494
-131.528
-149.835
-151.96
-95.2564
-3.4209
-10.3163
-17.3746
-24.7117
-32.4538
-40.74
-49.7199
-59.5388
-70.2914
-81.894
-93.7607
-104.024
-107.83
-94.3996
-45.6376
-3.21959
-9.69769
-16.2928
-23.0829
-30.1441
-37.5442
-45.3281
-53.484
-61.8727
-70.082
-77.1402
-81.0015
-77.7953
-61.3746
-25.5416
-2.9912
-8.99779
-15.0754
-21.2657
-27.5987
-34.0816
-40.6776
-47.267
-53.5782
-59.069
-62.7395
-62.8866
-56.9359
-41.8301
-16.0356
-2.746
-8.24847
-13.7797
-19.3492
-24.9489
-30.5402
-36.0312
-41.2426
-45.8527
-49.3194
-50.7851
-49.0061
-42.4334
-29.7079
-10.8883
-2.4935
-7.47912
-12.4573
-17.4114
-22.3049
-27.0681
-31.5788
-35.6355
-38.9207
-40.9587
-41.0834
-38.4542
-32.203
-21.8175
-7.79431
-2.24193
-6.71486
-11.1515
-15.5156
-19.7513
-23.771
-27.4414
-30.5638
-32.8543
-33.9264
-33.2935
-30.4174
-24.8434
-16.453
-5.78738
-1.99794
-5.97573
-9.89594
-13.709
-17.3473
-20.7165
-23.6843
-26.0698
-27.6338
-28.0778
-27.0612
-24.2539
-19.4395
-12.6685
-4.4117
-1.7665
-5.27652
-8.7147
-12.0235
-15.1302
-17.9405
-20.3315
-22.146
-23.1908
-23.2432
-22.0721
-19.484
-15.394
-9.91559
-3.42946
-1.55101
-4.62714
-7.62326
-10.4781
-13.1187
-15.4555
-17.3788
-18.7565
-19.437
-19.2579
-18.067
-15.7569
-12.3127
-7.8624
-2.70608
-1.35348
-4.03329
-6.62982
-9.08154
-11.3181
-13.2576
-14.8047
-15.8511
-16.2799
-15.9751
-14.8389
-12.8172
-9.92999
-6.29942
-2.16033
-1.17479
-3.49722
-5.73687
-7.83423
-9.72371
-11.3321
-12.5782
-13.3745
-13.6322
-13.2695
-12.2256
-10.4783
-8.06343
-5.08952
-1.74065
-1.01495
-3.01862
-4.94268
-6.73121
-8.32441
-9.658
-10.6638
-11.2719
-11.4152
-11.0369
-10.1007
-8.60307
-6.58498
-4.13997
-1.41292
-0.873318
-2.59526
-4.24256
-5.76377
-7.1053
-8.21148
-9.0255
-9.49182
-9.56019
-9.19158
-8.36565
-7.08911
-5.40295
-3.38624
-1.15377
-0.748829
-2.2237
-3.62996
-4.92104
-6.04958
-6.96776
-7.62857
-7.98804
-8.00861
-7.66375
-6.94342
-5.85954
-4.45042
-2.7823
-0.946754
-0.640154
-1.89978
-3.0973
-4.19116
-5.13987
-5.90269
-6.44085
-6.71953
-6.71071
-6.3966
-5.77358
-4.85578
-3.67771
-2.2946
-0.779981
-0.545833
-1.61897
-2.6366
-3.56202
-4.35921
-4.99359
-5.43325
-5.65062
-5.62475
-5.34392
-4.80838
-4.03273
-3.04734
-1.8982
-0.644689
-0.464373
-1.3767
-2.23992
-3.0219
-3.69156
-4.21967
-4.57996
-4.75056
-4.71578
-4.46806
-4.00987
-3.35528
-2.53067
-1.57426
-0.534301
-0.394311
-1.16851
-1.89964
-2.55975
-3.12217
-3.56224
-3.85835
-3.99309
-3.95466
-3.73832
-3.34772
-2.79588
-2.10548
-1.30834
-0.443795
-0.334264
-0.99021
-1.60865
-2.16542
-2.6377
-3.00476
-3.24877
-3.35583
-3.31704
-3.12955
-2.79752
-2.33267
-1.75441
-1.0892
-0.369291
-0.282952
-0.83795
-1.36047
-1.82974
-2.22629
-2.5327
-2.73426
-2.81983
-2.78264
-2.62113
-2.33952
-1.94821
-1.4637
-0.90804
-0.307751
-0.239213
-0.708231
-1.14927
-1.54453
-1.87746
-2.13343
-2.30028
-2.36905
-2.33457
-2.19608
-1.95768
-1.62845
-1.22238
-0.757865
-0.256773
-0.202004
-0.597934
-0.969864
-1.30258
-1.58206
-1.79602
-1.9344
-1.98994
-1.95869
-1.84041
-1.63889
-1.36202
-1.02164
-0.633085
-0.214439
-0.170402
-0.504297
-0.817677
-1.09758
-1.33216
-1.51108
-1.62602
-1.67109
-1.64323
-1.54253
-1.37242
-1.13969
-0.85435
-0.529193
-0.179209
-0.143598
-0.424902
-0.688725
-0.924063
-1.12089
-1.27055
-1.36614
-1.40286
-1.37833
-1.29283
-1.14941
-0.953889
-0.714701
-0.442535
-0.149836
-0.120884
-0.357643
-0.579548
-0.777275
-0.942365
-1.06756
-1.14713
-1.17716
-1.15577
-1.08335
-0.962567
-0.798402
-0.597948
-0.370133
-0.125302
-0.101648
-0.300697
-0.487156
-0.653145
-0.791535
-0.896249
-0.962522
-0.987141
-0.968641
-0.90743
-0.805845
-0.66811
-0.500189
-0.309543
-0.104777
-0.0853602
-0.252489
-0.408977
-0.548173
-0.664084
-0.751623
-0.806828
-0.827062
-0.811163
-0.759543
-0.674221
-0.558773
-0.418208
-0.258755
-0.0875766
-0.0715659
-0.211669
-0.342801
-0.459365
-0.556331
-0.629444
-0.675412
-0.692066
-0.678482
-0.635054
-0.563511
-0.466873
-0.349339
-0.216107
-0.0731357
-0.0598743
-0.177076
-0.286738
-0.384163
-0.465137
-0.526109
-0.564346
-0.578063
-0.566521
-0.530082
-0.470222
-0.38948
-0.291369
-0.180219
-0.060986
-0.0499505
-0.147718
-0.239171
-0.320381
-0.387828
-0.438558
-0.470303
-0.481595
-0.471843
-0.441371
-0.391429
-0.324146
-0.24245
-0.149944
-0.0507377
-0.0415075
-0.122744
-0.198716
-0.266152
-0.322126
-0.364186
-0.390458
-0.399738
-0.391548
-0.366178
-0.324675
-0.268817
-0.201037
-0.124319
-0.0420648
-0.0342994
-0.101424
-0.164188
-0.21988
-0.266084
-0.300774
-0.322411
-0.330007
-0.323182
-0.302183
-0.267887
-0.221765
-0.165829
-0.102539
-0.0346936
-0.0281145
-0.0831324
-0.134567
-0.180195
-0.218034
-0.246425
-0.26411
-0.270289
-0.264655
-0.24742
-0.219307
-0.181527
-0.135727
-0.0839196
-0.0283929
-0.0227702
-0.067328
-0.108979
-0.145919
-0.176542
-0.199507
-0.213799
-0.218771
-0.214182
-0.200208
-0.177439
-0.146857
-0.109796
-0.0678825
-0.0229663
-0.0181081
-0.0535416
-0.0866601
-0.116028
-0.140367
-0.158612
-0.169956
-0.17389
-0.170225
-0.159103
-0.140995
-0.116685
-0.0872325
-0.0539301
-0.0182455
-0.0139893
-0.0413625
-0.0669453
-0.0896278
-0.108422
-0.122506
-0.131258
-0.134286
-0.131445
-0.122847
-0.108858
-0.090083
-0.0673418
-0.0416316
-0.0140845
-0.0102907
-0.0304264
-0.0492441
-0.0659268
-0.079748
-0.0901028
-0.0965346
-0.0987555
-0.0966605
-0.0903328
-0.0800424
-0.0662346
-0.0495122
-0.0306084
-0.010355
-0.00690145
-0.0204054
-0.033025
-0.0442123
-0.0534801
-0.0604227
-0.0647341
-0.0662215
-0.0648148
-0.0605702
-0.0536689
-0.0444098
-0.0331969
-0.0205221
-0.00694273
-0.00371978
-0.0109983
-0.0178003
-0.0238305
-0.0288264
-0.0325693
-0.034894
-0.0356967
-0.0349393
-0.032652
-0.0289323
-0.0239413
-0.0178967
-0.0110637
-0.00374293
-0.000649936
-0.0019219
-0.00311129
-0.0041668
-0.00504259
-0.00570032
-0.00611071
-0.00625504
-0.00612599
-0.00572824
-0.00507832
-0.00420416
-0.00314382
-0.00194398
-0.000657744
0.00240053
0.00709711
0.0114847
0.0153721
0.0185898
0.0209969
0.0224879
0.0229969
0.0225008
0.0210205
0.0186199
0.0154037
0.0115122
0.00711576
0.00240713
0.00552354
0.0163306
0.0264279
0.0353761
0.0427848
0.0483301
0.0517681
0.0529464
0.0518108
0.048408
0.0428845
0.0354803
0.0265187
0.0163922
0.00554533
0.00881316
0.0260568
0.0421689
0.0564486
0.0682735
0.0771261
0.0826171
0.0845024
0.0826946
0.0772676
0.0684546
0.056638
0.0423339
0.0261688
0.00885276
0.0123684
0.0365686
0.0591819
0.0792254
0.0958254
0.108256
0.115969
0.118622
0.116091
0.108478
0.0961098
0.0795227
0.0594409
0.0367444
0.0124306
0.0162961
0.0481821
0.077979
0.104393
0.126272
0.14266
0.152834
0.156341
0.153015
0.14299
0.126694
0.104834
0.078363
0.0484427
0.0163883
0.0207142
0.0612458
0.0991249
0.132707
0.160531
0.181378
0.194329
0.198803
0.194589
0.181854
0.161141
0.133345
0.0996801
0.0616226
0.0208475
0.0257548
0.076151
0.123253
0.16502
0.199633
0.225577
0.241707
0.247297
0.242079
0.226258
0.200504
0.165931
0.124046
0.0766892
0.0259452
0.0315683
0.0933426
0.151086
0.202299
0.244753
0.276591
0.296402
0.303294
0.296931
0.277557
0.24599
0.203592
0.152212
0.0941069
0.0318387
0.0383277
0.113332
0.183453
0.245658
0.297244
0.335952
0.360066
0.368492
0.360815
0.33732
0.298995
0.247489
0.185047
0.114414
0.0387104
0.0462329
0.136713
0.221315
0.296389
0.358675
0.405445
0.434621
0.44487
0.435679
0.407379
0.36115
0.298977
0.223569
0.138242
0.046774
0.055517
0.164173
0.265792
0.355997
0.430878
0.487153
0.522313
0.534745
0.523809
0.489885
0.434375
0.359654
0.268976
0.166334
0.0562814
0.0664517
0.196519
0.318192
0.426244
0.515998
0.583517
0.625785
0.640843
0.627897
0.587376
0.520935
0.431408
0.322688
0.199571
0.0675312
0.079355
0.234693
0.380047
0.509194
0.616552
0.697412
0.748146
0.766381
0.751128
0.70286
0.623524
0.516485
0.386396
0.239003
0.0808794
0.0945992
0.279799
0.453153
0.60727
0.735502
0.832222
0.893069
0.915167
0.897278
0.839913
0.745345
0.617564
0.462117
0.285883
0.0967513
0.112619
0.333127
0.539614
0.723316
0.876329
0.991934
1.06489
1.09171
1.07084
1.00279
0.890225
0.737848
0.552269
0.341716
0.115658
0.133924
0.396188
0.641893
0.860667
1.04313
1.18125
1.26875
1.30137
1.27714
1.19658
1.06274
0.881182
0.659759
0.408314
0.138214
0.159107
0.470743
0.762868
1.02323
1.2407
1.40571
1.51071
1.55048
1.52255
1.42735
1.26839
1.05219
0.788091
0.487863
0.165163
0.188857
0.558842
0.905894
1.21557
1.47468
1.67184
1.79794
1.8466
1.81465
1.70239
1.51377
1.25645
0.941503
0.583014
0.197407
0.223972
0.662862
1.07487
1.443
1.75168
1.98731
2.13892
2.19869
2.16251
2.03042
1.80686
1.50072
1.12514
0.696989
0.236044
0.265371
0.785544
1.2743
1.71171
2.07938
2.36111
2.54366
2.61738
2.57696
2.42196
2.15727
1.7932
1.34528
0.833729
0.282418
0.314109
0.930032
1.50938
2.02884
2.46673
2.80378
3.02395
3.11531
3.07094
2.88966
2.57668
2.14387
1.6096
0.998072
0.338181
0.371382
1.09991
1.78604
2.40259
2.92408
3.32757
3.59365
3.70748
3.65996
3.44878
3.07929
2.56499
1.92754
1.19599
0.405377
0.438537
1.29922
2.111
2.84234
3.46335
3.94677
4.26904
4.41166
4.36261
4.11781
3.68241
3.07161
2.31081
1.43492
0.486555
0.517075
1.53246
2.49181
3.35867
4.09814
4.67783
5.06914
5.2489
5.20114
4.91917
4.40731
3.68236
2.77399
1.72415
0.584914
0.608639
1.80461
2.93682
3.96344
4.84384
5.53965
6.01612
6.24407
6.20228
5.88011
5.28016
4.42043
3.33539
2.07546
0.704508
0.714994
2.12101
3.45514
4.6697
5.71769
6.55374
7.13561
7.42651
7.39806
7.03388
6.33335
5.31493
4.01822
2.50383
0.850531
0.837993
2.48731
4.05645
5.49158
6.73867
7.74427
8.4571
8.83064
8.82691
8.42117
7.60724
6.40265
4.85216
3.02863
1.02972
0.979506
2.90926
4.75079
6.44399
7.92728
9.13804
10.0141
10.4967
10.5349
10.0918
9.15236
7.73049
5.87567
3.67521
1.25092
1.14133
3.39244
5.54809
7.54211
9.30507
10.7641
11.8443
12.4712
12.5769
12.1071
11.0324
9.35892
7.13915
4.47718
1.52598
1.32505
3.94187
6.45757
8.8006
10.8938
12.6533
13.9891
14.8077
15.0183
14.5424
13.3281
11.3666
8.70965
5.47997
1.871
1.53187
4.5615
7.4869
10.2325
12.7141
14.8366
16.4928
17.5663
17.9363
17.4904
16.1425
13.8573
10.6778
6.74609
2.30837
1.76238
5.25345
8.641
11.8477
14.7838
17.3434
19.4012
20.8131
21.4207
21.0647
19.6076
16.9689
13.1681
8.3636
2.87005
2.01624
6.01725
9.92063
13.6505
17.1148
20.1985
22.758
24.6183
25.5742
25.4034
23.893
20.8875
16.3552
10.4596
3.60291
2.29195
6.8488
11.3206
15.6377
19.71
23.4173
26.6003
29.0511
30.5099
30.6721
29.2165
25.8662
20.4889
13.2229
4.57821
2.58642
7.7393
12.828
17.7949
22.5583
27.0001
30.9507
34.1726
36.3458
37.0641
35.8554
32.2523
25.934
16.9435
5.90885
2.89471
8.67429
14.4199
20.0931
25.6297
30.9238
35.807
40.022
43.1918
44.7938
44.1569
40.5236
33.2345
22.0835
7.78322
3.20982
9.63282
16.0618
22.486
28.8694
35.1325
41.127
46.5967
51.1263
54.0779
54.5387
51.3333
43.2167
29.4102
10.5368
3.52256
10.5871
17.7069
24.9072
32.1922
39.5275
46.8109
53.824
60.1561
65.0914
67.4661
65.5531
57.1497
40.2552
14.8183
3.82176
11.503
19.2958
27.2692
35.4798
43.9583
52.6822
61.5238
70.1555
77.8823
83.3704
84.2795
76.9787
57.0321
22.0159
4.09476
12.3412
20.7593
29.4663
38.5811
48.2184
58.4711
69.3687
80.7827
92.227
102.454
108.706
105.589
84.2735
35.4741
4.32822
13.0601
22.0219
31.3798
41.3192
52.0506
63.8119
76.8544
91.388
107.416
124.296
139.639
146.835
130.6
64.313
4.50929
13.6191
23.0092
32.8894
43.5069
55.1672
68.2623
83.3039
100.954
122.014
147.205
176.227
204.351
211.685
136.442
4.62697
13.9834
23.656
33.8868
44.9699
57.287
71.3605
87.9408
108.153
133.74
167.452
213.438
276.302
350.113
345.82
4.67344
14.1279
23.9151
34.2919
45.5757
58.1866
72.7172
90.0552
111.616
139.823
179.174
238.925
340.649
542.777
1032.52
4.64515
14.0413
23.7645
34.067
45.2595
57.7525
72.1236
89.236
110.465
138.164
176.727
235.262
335.266
535.702
1026.7
4.54334
13.7274
23.2114
33.2236
44.0397
56.0137
69.6256
85.5571
104.819
128.961
160.409
202.8
260.137
326.841
321.152
4.3739
13.205
22.2913
31.8219
42.0155
53.1371
65.5162
79.5649
95.7815
114.683
136.49
159.957
178.5
168.251
57.6932
-48.4273
-39.445
-32.7193
-27.5167
-23.3253
-19.8316
-16.8386
-14.2158
-11.8723
-9.74203
-7.77452
-5.92981
-4.17485
-2.48115
-0.82314
-18.1618
-25.1587
-24.8371
-22.6585
-20.0996
-17.5809
-15.2155
-13.0202
-10.9817
-9.07761
-7.28402
-5.57804
-3.9383
-2.34479
-0.778586
-8.26176
-15.9544
-18.2441
-18.0641
-16.8458
-15.2236
-13.4738
-11.7156
-9.99771
-8.33633
-6.73257
-5.18021
-3.66959
-2.18944
-0.727751
-4.49422
-10.5018
-13.3659
-14.1905
-13.8723
-12.9547
-11.7379
-10.383
-8.97429
-7.55494
-6.14535
-4.75333
-3.37968
-2.02123
-0.672614
-2.79664
-7.2322
-9.90384
-11.1102
-11.3151
-10.8933
-10.0979
-9.08747
-7.95815
-6.76669
-5.54584
-4.31364
-3.07919
-1.84617
-0.615116
-1.90299
-5.18742
-7.45926
-8.72525
-9.19283
-9.09123
-8.60695
-7.87446
-6.98507
-5.99878
-4.95415
-3.87545
-2.77765
-1.66973
-0.557038
-1.3715
-3.84578
-5.71309
-6.89466
-7.46576
-7.55481
-7.28831
-6.77031
-6.07919
-5.27131
-4.38605
-3.45049
-2.48311
-1.49658
-0.499915
-1.0266
-2.9256
-4.44304
-5.48793
-6.07335
-6.26519
-6.14425
-5.78629
-5.25432
-4.5975
-3.85283
-3.04759
-2.20183
-1.33046
-0.444984
-0.788765
-2.27035
-3.50112
-4.40019
-4.9542
-5.19271
-5.16472
-4.92304
-4.51608
-3.98465
-3.36162
-2.67279
-1.93832
-1.17411
-0.393166
-0.61755
-1.78926
-2.78949
-3.55203
-4.05409
-4.30522
-4.33351
-4.17451
-3.86422
-3.43537
-2.91606
-2.32966
-1.69543
-1.02936
-0.345089
-0.490347
-1.42722
-2.2429
-2.88471
-3.3282
-3.57244
-3.63231
-3.531
-3.29465
-2.94887
-2.51705
-2.01972
-1.47465
-0.897227
-0.301113
-0.393568
-1.14934
-1.81702
-2.35509
-2.74062
-2.96766
-3.04298
-2.98124
-2.80104
-2.52209
-2.16349
-1.74291
-1.2763
-0.778069
-0.261378
-0.318565
-0.932617
-1.48114
-1.93136
-2.26306
-2.46822
-2.54879
-2.51369
-2.37596
-2.15058
-1.85295
-1.49803
-1.0999
-0.67172
-0.225852
-0.259585
-0.761391
-1.21349
-1.58992
-1.87334
-2.05526
-2.13491
-2.11739
-2.01172
-1.82921
-1.58218
-1.28315
-0.944361
-0.577645
-0.194375
-0.21266
-0.624676
-0.998369
-1.31306
-1.55409
-1.7133
-1.78848
-1.78226
-1.70082
-1.55264
-1.34751
-1.09584
-0.808204
-0.495057
-0.166703
-0.174971
-0.514566
-0.824213
-1.08733
-1.29164
-1.42967
-1.49855
-1.49936
-1.43625
-1.31558
-1.14513
-0.933514
-0.689751
-0.423025