/*--------------------------------*- C++ -*----------------------------------*\
| =========                 |                                                 |
| \\      /  F ield         | OpenFOAM: The Open Source CFD Toolbox           |
|  \\    /   O peration     | Version:  5.x                                   |
|   \\  /    A nd           | Web:      www.OpenFOAM.org                      |
|    \\/     M anipulation  |                                                 |
\*---------------------------------------------------------------------------*/
FoamFile
{
    version     2.0;
    format      ascii;
    class       volScalarField;
    location    "8.4";
    object      T;
}
// * * * * * * * * * * * * * * * * * * * * * * * * * * * * * * * * * * * * * //

dimensions      [0 0 0 1 0 0 0];

internalField   nonuniform List<scalar> 
6300
(
10.3349
11.0071
11.6866
12.3782
13.0864
13.8152
14.5683
15.3486
16.1579
16.9974
17.8667
18.7642
19.6867
20.6297
21.5875
10.3324
10.9997
11.6745
12.3616
13.0656
13.7909
14.5411
15.3193
16.1277
16.9674
17.8384
18.7389
19.666
20.6148
21.5793
10.3274
10.9848
11.65
12.328
13.0236
13.7415
14.4857
15.2596
16.0659
16.9061
17.7803
18.687
19.6232
20.5838
21.5622
10.3198
10.9621
11.6126
12.2766
12.9593
13.6657
14.4005
15.1675
15.9702
16.8105
17.6893
18.6055
19.5558
20.5348
21.535
10.3095
10.9313
11.5617
12.2065
12.8713
13.5616
14.2828
15.0397
15.8365
16.6764
17.5609
18.4896
19.4594
20.4643
21.4955
10.2963
10.8918
11.4964
12.1163
12.7576
13.4265
14.1292
14.8718
15.6596
16.4974
17.3881
18.3324
19.3277
20.3673
21.4407
10.28
10.8432
11.4159
12.0046
12.6162
13.2574
13.9357
14.6584
15.4327
16.2654
17.1616
18.124
19.1513
20.2364
21.3662
10.2606
10.785
11.3193
11.8702
12.4449
13.0513
13.6978
14.3933
15.1474
15.9696
16.8687
17.8507
18.9168
20.0606
21.2656
10.2379
10.717
11.2059
11.7117
12.242
12.8051
13.4106
14.0694
14.7937
15.5969
16.4927
17.493
18.6045
19.8233
21.1296
10.212
10.6391
11.0757
11.5289
12.0061
12.5164
13.0701
13.6799
14.361
15.1314
16.012
17.0239
18.1846
19.4982
20.9435
10.1829
10.5515
10.929
11.3218
11.7372
12.1841
12.6734
13.219
13.8387
14.5558
15.3997
16.406
17.6114
19.0413
20.6822
10.1509
10.4551
10.767
11.092
11.4368
11.8094
12.2204
12.6838
13.2189
13.8531
14.6251
15.5887
16.8136
18.3731
20.2961
10.1164
10.3512
10.5917
10.8424
11.1084
11.3963
11.715
12.0768
12.5
13.0125
13.6586
14.5099
15.6811
17.3411
19.6686
10.0801
10.2414
10.4062
10.5774
10.758
10.9524
11.1663
11.4083
11.6916
12.0381
12.4867
13.111
14.0596
15.6415
18.4538
10.0426
10.128
10.2145
10.3028
10.3938
10.4888
10.5895
10.6984
10.8199
10.9616
11.1391
11.3877
11.8047
12.7111
15.373
22.4727
23.2783
24.0802
24.8742
25.6559
26.4217
27.1678
27.8914
28.5897
29.2606
29.9023
30.5133
31.0925
31.6391
32.1523
32.6317
33.077
33.4879
33.8645
34.2067
34.5147
34.7886
35.0289
35.2358
35.4098
35.5515
35.6613
35.7398
35.7876
35.8054
35.7938
35.7534
35.685
35.5891
35.4664
35.3175
35.1432
34.944
34.7205
34.4735
34.2034
33.9111
33.597
33.2619
32.9064
32.5311
32.1366
31.7235
31.2923
30.8437
30.378
29.8957
29.3974
28.8834
28.3543
27.8104
27.2524
26.6807
26.0959
25.4985
24.8892
24.2685
23.637
22.9955
22.3445
21.6848
21.017
20.342
19.6604
18.9733
18.2817
17.5868
16.8896
16.1918
15.4947
14.8
14.1093
13.4245
12.7472
12.0794
11.4229
10.7792
10.1502
9.53724
8.94184
8.36519
7.80831
7.27199
6.75675
6.26286
22.4713
23.2832
24.0914
24.8914
25.6787
26.4494
27.2
27.9273
28.6288
29.3022
29.946
30.5586
31.1391
31.6866
32.2005
32.6804
33.1259
33.537
33.9135
34.2555
34.5631
34.8366
35.0763
35.2826
35.456
35.5968
35.7058
35.7834
35.8303
35.8472
35.8346
35.7933
35.7239
35.6271
35.5035
35.3537
35.1785
34.9784
34.754
34.506
34.2351
33.9418
33.6268
33.2908
32.9344
32.5582
32.1629
31.749
31.3171
30.8677
30.4013
29.9184
29.4194
28.9048
28.375
27.8304
27.2717
26.6992
26.1135
25.5153
24.9051
24.2835
23.6512
23.0087
22.3568
21.696
21.0272
20.3509
19.6681
18.9795
18.2863
17.5895
16.8904
16.1904
15.491
14.7938
14.1007
13.4132
12.7334
12.0631
11.404
10.758
10.1268
9.51184
8.91469
8.33658
7.77857
7.24149
6.72588
6.23202
22.4682
23.2931
24.1142
24.9264
25.725
26.5059
27.2653
28.0001
28.7077
29.3863
30.034
30.6498
31.2327
31.7821
32.2973
32.778
33.224
33.6352
34.0116
34.3532
34.6601
34.9328
35.1714
35.3764
35.5483
35.6875
35.7948
35.8707
35.9157
35.9307
35.9163
35.8731
35.8018
35.7031
35.5776
35.4261
35.249
35.047
34.8209
34.5711
34.2983
34.0031
33.6863
33.3485
32.9903
32.6123
32.2153
31.7999
31.3665
30.9156
30.4479
29.9637
29.4634
28.9475
28.4164
27.8704
27.3102
26.7361
26.1489
25.5489
24.937
24.3136
23.6794
23.0351
22.3813
21.7186
21.0476
20.369
19.6836
18.9921
18.2957
17.5953
16.8922
16.1879
15.4838
14.7817
14.0834
13.3908
12.7058
12.0303
11.3662
10.7154
10.0797
9.46066
8.85995
8.27887
7.71857
7.17993
6.66358
6.16978
22.4628
23.3082
24.1494
24.9806
25.7967
26.5929
27.3656
28.1115
28.8283
29.5141
30.1677
30.788
31.3743
31.9261
32.4431
32.9251
33.3718
33.7831
34.1592
34.5002
34.8061
35.0773
35.3142
35.5173
35.687
35.8238
35.9285
36.0017
36.044
36.0561
36.0388
35.9927
35.9186
35.8171
35.6889
35.5345
35.3547
35.1501
34.9212
34.6687
34.3931
34.0952
33.7756
33.4349
33.074
32.6934
32.2939
31.876
31.4404
30.9875
30.5178
30.0317
29.5295
29.0117
28.4786
27.9306
27.3681
26.7917
26.2019
25.5994
24.9848
24.3588
23.7219
23.0749
22.4183
21.7526
21.0785
20.3966
19.7074
19.0117
18.3104
17.6046
16.8955
16.1846
15.4735
14.7639
14.0578
13.3573
12.6642
11.9808
11.309
10.6509
10.0083
9.38301
8.77678
8.19109
7.62721
7.08618
6.56866
6.075
22.4546
23.329
24.1985
25.0564
25.8964
26.7136
27.5039
28.2644
28.9929
29.688
30.3488
30.9745
31.565
32.1199
32.6391
33.1224
33.5699
33.9814
34.3571
34.697
35.0015
35.2708
35.5054
35.7057
35.8723
36.0059
36.1071
36.1765
36.2151
36.2233
36.2021
36.1522
36.0743
35.969
35.8371
35.6791
35.4957
35.2875
35.055
34.7988
34.5196
34.2179
33.8945
33.5501
33.1855
32.8013
32.3984
31.9773
31.5387
31.083
30.6107
30.1222
29.6177
29.0974
28.5618
28.011
27.4456
26.8661
26.273
25.667
25.0488
24.4191
23.7787
23.1281
22.4679
21.7985
21.1205
20.4342
19.7401
19.0389
18.3313
17.6184
16.9012
16.1814
15.4606
14.7408
14.0241
13.3126
12.6086
11.9143
11.232
10.5638
9.9117
9.27778
8.66389
8.07174
7.50284
6.95842
6.4393
5.94586
22.4425
23.3564
24.2642
25.1574
26.0287
26.8726
27.6849
28.463
29.2053
29.911
30.5798
31.2115
31.8065
32.3646
32.8861
33.371
33.8192
34.2307
34.6058
34.9444
35.247
35.5138
35.7453
35.9421
36.1048
36.2341
36.3307
36.3955
36.4291
36.4325
36.4063
36.3515
36.2687
36.1587
36.0222
35.8598
35.672
35.4593
35.2224
34.9617
34.6778
34.3714
34.0432
33.694
33.3245
32.9357
32.5284
32.1033
31.661
31.202
30.7267
30.2353
29.728
29.2049
28.6662
28.1121
27.5431
26.9595
26.3621
25.7516
25.1288
24.4946
23.8497
23.1947
22.5302
21.8565
21.1739
20.4826
19.7829
19.0751
18.3597
17.6378
16.9105
16.1793
15.4461
14.713
13.9825
13.2569
12.5387
11.8305
11.1345
10.4532
9.78883
9.14356
8.51953
7.91876
7.34311
6.7941
6.27283
5.77978
22.4254
23.3923
24.3507
25.2896
26.2003
27.0766
27.9148
28.7128
29.4701
30.1868
30.8635
31.5012
32.1004
32.6617
33.1855
33.6718
34.1207
34.5322
34.9064
35.2434
35.5435
35.807
36.0347
36.227
36.3848
36.5087
36.5998
36.6586
36.6863
36.6835
36.6513
36.5905
36.5018
36.3862
36.2442
36.0764
35.8834
35.6656
35.4235
35.1574
34.868
34.5558
34.2216
33.8664
33.4909
33.0963
32.6836
32.2535
31.8068
31.3439
30.8652
30.3708
29.8605
29.3344
28.7924
28.2344
27.661
27.0724
26.4696
25.8535
25.225
24.5851
23.9348
23.2748
22.6054
21.927
21.2396
20.5429
19.8369
19.1217
18.3974
17.6647
16.925
16.1797
15.431
14.6814
13.9336
13.1903
12.4544
11.7287
11.0158
10.3181
9.63827
8.97859
8.34152
7.7295
7.14488
6.58974
6.06559
5.57317
22.4024
23.4402
24.4649
25.462
26.4209
27.3353
28.2022
29.021
29.7928
30.5195
31.2032
31.8457
32.4485
33.0125
33.5383
34.026
34.4756
34.887
35.2601
35.595
35.892
36.1516
36.3744
36.5612
36.7129
36.8304
36.9145
36.9663
36.9866
36.9765
36.937
36.8689
36.7733
36.651
36.5026
36.3288
36.13
35.9064
35.6585
35.3863
35.0904
34.7714
34.43
34.0672
33.6844
33.2826
32.8632
32.4272
31.9753
31.5082
31.026
30.5286
30.0155
29.4864
28.9409
28.3787
27.8001
27.2055
26.596
25.9727
25.337
24.6903
24.0335
23.3678
22.6933
22.0102
21.3181
20.6163
19.9041
19.1809
18.4466
17.7017
16.9471
16.1848
15.4171
14.6471
13.8779
13.1128
12.3553
11.6083
10.8747
10.1573
9.45849
8.78091
8.12729
7.50063
6.90408
6.34061
5.81258
5.32113
22.3727
23.5067
24.6187
25.6889
26.7053
27.662
28.5583
29.3963
30.1801
30.9139
31.6018
32.247
32.8519
33.4178
33.9454
34.4346
34.885
35.2963
35.6682
36.0006
36.2938
36.5485
36.7653
36.9454
37.0898
37.1994
37.2753
37.3186
37.3302
37.3114
37.2631
37.1865
37.0827
36.9527
36.7972
36.6167
36.4116
36.1819
35.9277
35.6488
35.3456
35.0185
34.6684
34.2966
33.9045
33.4938
33.0662
32.623
32.1654
31.6938
31.2082
30.7083
30.1931
29.6616
29.1128
28.5462
27.9616
27.3597
26.7418
26.1094
25.4646
24.8093
24.145
23.4728
22.7933
22.106
21.4102
20.7043
19.9867
19.2559
18.511
17.7521
16.9802
16.1973
15.4064
14.6112
13.8158
13.0244
12.2407
11.4683
10.7103
9.96941
9.24799
8.54857
7.8741
7.2283
6.61551
6.04036
5.5068
5.01682
22.3371
23.6047
24.8322
25.9932
27.0751
28.0753
28.9978
29.8495
30.6388
31.3739
32.0613
32.7059
33.3108
33.8778
34.4072
34.8984
35.3503
35.762
36.1326
36.4621
36.7507
36.9992
37.2087
37.3805
37.516
37.6163
37.6826
37.7159
37.7172
37.688
37.6293
37.5427
37.4294
37.2905
37.127
36.9395
36.7279
36.4922
36.2317
35.9459
35.6346
35.2982
34.9377
34.5545
34.1508
33.7288
33.291
32.8393
32.375
31.8988
31.4106
30.9095
30.3937
29.8613
29.3101
28.7389
28.1475
27.5366
26.9078
26.2637
25.607
24.9407
24.2673
23.5882
22.9039
22.2138
21.5163
20.8088
20.0879
19.3508
18.5953
17.8209
17.0287
16.2209
15.4016
14.5754
13.7479
12.9245
12.1097
11.3075
10.5212
9.75324
9.00562
8.28014
7.57951
6.90827
6.27262
5.68011
5.13815
4.65051
22.3004
23.7599
25.1412
26.4111
27.5621
28.6003
29.5387
30.392
31.1753
31.9021
32.5818
33.2213
33.824
34.3916
34.9235
35.4182
35.8731
36.2861
36.6557
36.9818
37.2647
37.5055
37.7058
37.8675
37.9923
38.0817
38.1368
38.1584
38.1478
38.1062
38.0352
37.9367
37.8122
37.6633
37.491
37.2961
37.0786
36.8376
36.5717
36.2791
35.9592
35.6121
35.2389
34.8415
34.4228
33.9862
33.5353
33.073
32.6012
32.1207
31.6312
31.1312
30.6179
30.0873
29.5355
28.9604
28.361
27.7387
27.0956
26.4355
25.7626
25.0821
24.3973
23.7106
23.0224
22.332
21.6366
20.9321
20.2124
19.4716
18.7064
17.9152
17.0992
16.2611
15.4062
14.5412
13.6741
12.8118
11.9602
11.1236
10.3054
9.50761
8.73122
7.97577
7.24244
6.53689
5.86747
5.24697
4.69119
4.20764
22.28
24.0274
25.6102
26.9997
28.211
29.2688
30.2019
31.0347
31.7929
32.4974
33.1601
33.7892
34.3872
34.9561
35.4929
35.995
36.4556
36.872
37.2411
37.5633
37.8387
38.0696
38.2579
38.4068
38.5191
38.596
38.6385
38.647
38.6224
38.5663
38.4803
38.3675
38.2296
38.0691
37.8871
37.685
37.4623
37.2185
36.9494
36.6511
36.3225
35.963
35.5745
35.1586
34.7203
34.2635
33.7956
33.3198
32.8396
32.355
31.8665
31.3714
30.8665
30.3435
29.7942
29.2161
28.6072
27.9704
27.3074
26.6251
25.929
25.2291
24.5296
23.8348
23.1438
22.4569
21.7696
21.0768
20.3667
19.6274
18.8547
18.045
17.2013
16.3251
15.4253
14.5097
13.5932
12.6833
11.7891
10.9129
10.0602
9.23098
8.42652
7.63941
6.86524
6.1134
5.39178
4.72056
4.14012
3.66523
22.3402
24.5315
26.3574
27.8445
29.0806
30.1164
31.0089
31.7846
32.4871
33.1527
33.786
34.4014
34.9919
35.5663
36.1117
36.6308
37.1014
37.5254
37.8935
38.2115
38.4764
38.6943
38.8661
38.9983
39.0963
39.1594
39.1883
39.1826
39.1419
39.0687
38.9636
38.8336
38.6789
38.5054
38.3115
38.1027
37.8761
37.635
37.3686
37.0659
36.7299
36.3549
35.949
35.5075
35.0437
34.5562
34.0666
33.5723
33.084
32.5942
32.1108
31.6251
31.1407
30.6371
30.0938
29.5156
28.8932
28.2393
27.5465
26.8343
26.1003
25.3753
24.6547
23.953
23.2589
22.5821
21.9099
21.2463
20.5628
19.8309
19.0558
18.2236
17.3497
16.4226
15.4671
14.479
13.5025
12.5322
11.5918
10.668
9.78115
8.91846
8.09666
7.28429
6.45575
5.64626
4.84341
4.06336
3.43697
2.98473
22.7421
25.5612
27.5922
29.0504
30.2382
31.1697
31.9839
32.6394
33.2338
33.8542
34.437
35.0489
35.6193
36.2177
36.7681
37.3357
37.8137
38.2589
38.6176
38.9355
39.1812
39.3849
39.5308
39.6386
39.7229
39.7717
39.7874
39.7679
39.7075
39.6166
39.4821
39.3348
39.1548
38.9704
38.7567
38.5454
38.3103
38.0872
37.8397
37.5282
37.1928
36.7907
36.3741
35.8881
35.4008
34.8513
34.344
33.8155
33.3298
32.8238
32.358
31.8764
31.442
30.9874
30.4432
29.8785
29.2239
28.5637
27.813
27.0747
26.258
25.5146
24.7522
24.06
23.3486
22.7004
22.0375
21.444
20.8284
20.0963
19.3388
18.4617
17.5746
16.5608
15.5555
14.4314
13.4028
12.3376
11.3703
10.3699
9.46708
8.54692
7.7531
6.95235
6.01871
5.16947
4.26212
3.18481
2.483
2.09869
24.6981
27.7254
29.6516
30.6453
31.7642
32.3915
33.1871
33.5818
33.9428
34.6093
35.0455
35.7558
36.2059
36.9376
37.3991
38.1693
38.5724
39.1164
39.3996
39.7631
39.9458
40.1579
40.2499
40.3122
40.3999
40.431
40.4366
40.4114
40.3165
40.2267
40.0184
39.8822
39.6367
39.4769
39.1981
39.0216
38.7265
38.5742
38.4022
38.0245
37.7513
37.2467
36.8984
36.2702
35.8468
35.0849
34.6516
33.9966
33.6044
32.9949
32.6274
32.0595
31.7717
31.4661
30.8218
30.3701
29.5624
29.018
28.0612
27.4275
26.3096
25.681
24.7481
24.1944
23.3469
22.8394
22.0647
21.6731
21.2612
20.3981
19.7936
18.714
17.9816
16.6866
15.8144
14.2462
13.3557
12.0019
11.1961
9.93119
9.17779
7.99329
7.41936
6.81163
5.46004
4.77626
3.9255
1.76546
1.07179
0.886689
5.74307
5.2063
4.69881
4.21915
3.7655
3.33578
2.92771
2.53894
2.16706
1.80966
1.46439
1.12893
0.80103
0.478488
0.159142
5.71268
5.17693
4.6709
4.19307
3.74151
3.31406
2.90837
2.52201
2.15253
1.7975
1.45455
1.12135
0.795659
0.475283
0.158077
5.65139
5.11773
4.61472
4.14063
3.69335
3.27052
2.86964
2.48815
2.12352
1.77324
1.43493
1.10625
0.784959
0.4689
0.155955
5.55812
5.0278
4.52954
4.06131
3.62067
3.20498
2.81147
2.4374
2.0801
1.737
1.40565
1.08373
0.769018
0.459396
0.152797
5.43122
4.90572
4.41426
3.95432
3.52299
3.11719
2.73381
2.36984
2.02245
1.68897
1.36691
1.05398
0.747978
0.446858
0.148633
5.26831
4.74951
4.26736
3.81864
3.39973
3.00693
2.63668
2.28567
1.95085
1.62948
1.31904
1.01727
0.722047
0.431419
0.143506
5.06615
4.55655
4.08698
3.6531
3.25029
2.87406
2.52027
2.18526
1.86578
1.55902
1.26248
0.97398
0.691514
0.413255
0.137478
4.82037
4.32347
3.87083
3.45643
3.07422
2.71869
2.38505
2.06927
1.76796
1.4783
1.19788
0.924639
0.656763
0.392602
0.130627
4.52514
4.04607
3.61639
3.22749
2.87141
2.54138
2.23194
1.93878
1.65847
1.3883
1.12607
0.86992
0.618284
0.369757
0.123052
4.17253
3.71919
3.3211
2.96569
2.64249
2.34343
2.06252
1.79539
1.53881
1.29036
1.04815
0.810676
0.576686
0.345083
0.114874
3.75174
3.337
2.98307
2.67164
2.38939
2.12728
1.87928
1.64142
1.411
1.18614
0.965471
0.747936
0.53269
0.319007
0.106236
3.24827
2.89394
2.60249
2.34835
2.11612
1.89697
1.68588
1.47999
1.27761
1.07772
0.879639
0.682895
0.487122
0.292014
0.0972953
2.64422
2.38796
2.18455
2.0031
1.82973
1.65856
1.48725
1.31501
1.14171
0.967467
0.792455
0.61687
0.440881
0.264627
0.0882248
1.92493
1.82909
1.7446
1.64974
1.54113
1.42026
1.28951
1.15107
1.00675
0.85796
0.70583
0.55124
0.394896
0.237383
0.0792004
1.11189
1.25882
1.315
1.31009
1.26475
1.19182
1.09944
0.992998
0.876224
0.751783
0.621654
0.487352
0.350074
0.210805
0.0703927
10.0079
10.0232
10.0371
10.0486
10.0564
10.0587
10.0531
10.0362
10.0022
9.94206
9.83828
9.6535
9.28905
8.41551
5.66372
9.97662
9.92875
9.87744
9.82004
9.75332
9.67306
9.5734
9.44582
9.27708
9.04539
8.71196
8.20167
7.35555
5.81471
2.79237
9.94615
9.83673
9.72201
9.59795
9.45967
9.30087
9.11304
8.88401
8.5956
8.21931
7.70839
6.983
5.90444
4.24267
1.70044
9.91687
9.74839
9.57306
9.38573
9.18023
8.94883
8.68126
8.3634
7.97509
7.48668
6.85372
6.00953
4.8583
3.28205
1.20476
9.88914
9.6648
9.43244
9.18609
8.91877
8.62187
8.28438
7.8917
7.42407
6.85441
6.14571
5.24927
4.10727
2.66934
0.939809
9.86321
9.58676
9.30152
9.00101
8.67783
8.32309
7.92579
7.472
6.94388
6.31865
5.56805
4.65951
3.56171
2.25914
0.779071
9.83928
9.51483
9.18118
8.83166
8.45879
8.05385
7.60642
7.10391
6.5311
5.86993
5.10006
4.20116
3.15834
1.97218
0.672549
9.81745
9.44929
9.07185
8.67853
8.26202
7.81409
7.32527
6.78463
6.17967
5.49666
4.72164
3.84274
2.85449
1.76401
0.5976
9.79772
9.39018
8.97356
8.54147
8.08704
7.60271
7.08011
6.50999
5.88243
5.18728
4.41533
3.56025
2.62162
1.60855
0.542644
9.78008
9.33737
8.886
8.41993
7.93283
7.41791
6.86792
6.27523
5.6321
4.93122
4.16674
3.33578
2.44043
1.48979
0.501143
9.76443
9.29059
8.80863
8.31299
7.79792
7.25744
6.68537
6.07549
5.42186
4.71932
3.96431
3.15602
2.29763
1.39741
0.469115
9.75064
9.24943
8.74075
8.21954
7.68066
7.1189
6.52906
5.90613
5.24559
4.54384
3.79887
3.01105
2.18386
1.32453
0.443986
9.73858
9.21347
8.68157
8.13836
7.57928
6.99985
6.39572
5.76288
5.09791
4.39835
3.6632
2.89341
2.09242
1.26637
0.424014
9.72808
9.18221
8.63025
8.06818
7.49202
6.89794
6.28231
5.64195
4.97425
4.27758
3.55156
2.79743
2.01836
1.21954
0.40798
9.719
9.15518
8.58596
8.00779
7.41722
6.81098
6.18608
5.53998
4.87071
4.17719
3.45944
2.71877
1.95803
1.18155
0.395003
9.71116
9.1319
8.54788
7.95599
7.35328
6.73697
6.10458
5.45408
4.784
4.09364
3.38321
2.65405
1.90861
1.15054
0.384432
9.70444
9.11193
8.51525
7.91172
7.29879
6.67412
6.03566
5.38178
4.71137
4.024
3.32001
2.60062
1.86798
1.12511
0.375774
9.69868
9.09484
8.48738
7.87398
7.25246
6.62084
5.97744
5.32095
4.65052
3.96591
3.26749
2.55639
1.83444
1.10417
0.368652
9.69377
9.08026
8.46363
7.84187
7.21313
6.57574
5.92831
5.26979
4.59953
3.91739
3.22378
2.51969
1.80668
1.08686
0.362774
9.68959
9.06786
8.44343
7.81461
7.1798
6.53761
5.88689
5.22677
4.55678
3.87684
3.18735
2.48918
1.78365
1.07253
0.357908
9.68603
9.05732
8.4263
7.7915
7.1516
6.50541
5.85198
5.19061
4.52093
3.84292
3.15695
2.46377
1.7645
1.06063
0.353869
9.68302
9.04838
8.41177
7.77195
7.12777
6.47824
5.82258
5.16022
4.49087
3.81454
3.13156
2.44258
1.74856
1.05072
0.350511
9.68046
9.04081
8.39948
7.75541
7.10764
6.45533
5.79783
5.13468
4.46565
3.79076
3.11033
2.42489
1.73526
1.04247
0.347714
9.6783
9.03441
8.3891
7.74145
7.09066
6.43603
5.77701
5.11322
4.44449
3.77085
3.09256
2.41011
1.72416
1.03559
0.345382
9.67647
9.02901
8.38033
7.72967
7.07635
6.41978
5.7595
5.0952
4.42674
3.75416
3.0777
2.39775
1.71489
1.02984
0.343435
9.67493
9.02445
8.37293
7.71974
7.06429
6.4061
5.74477
5.08006
4.41184
3.74018
3.06525
2.38741
1.70714
1.02504
0.341808
9.67363
9.0206
8.3667
7.71138
7.05415
6.39459
5.73239
5.06734
4.39935
3.72845
3.05482
2.37875
1.70065
1.02102
0.340448
9.67254
9.01737
8.36146
7.70434
7.04561
6.38492
5.722
5.05667
4.38887
3.71863
3.04609
2.37151
1.69522
1.01766
0.339311
9.67162
9.01464
8.35704
7.69842
7.03844
6.3768
5.71328
5.04772
4.38009
3.7104
3.03878
2.36545
1.69068
1.01485
0.338359
9.67085
9.01236
8.35334
7.69346
7.03242
6.36998
5.70596
5.04022
4.37273
3.70351
3.03266
2.36037
1.68689
1.0125
0.337564
9.6702
9.01044
8.35023
7.68929
7.02737
6.36427
5.69983
5.03394
4.36657
3.69774
3.02754
2.35613
1.68371
1.01054
0.3369
9.66965
9.00883
8.34762
7.6858
7.02315
6.35949
5.6947
5.02869
4.36142
3.69292
3.02327
2.35259
1.68107
1.0089
0.336345
9.6692
9.00748
8.34545
7.68289
7.01962
6.3555
5.69042
5.02431
4.35713
3.6889
3.01971
2.34964
1.67886
1.00754
0.335883
9.66882
9.00637
8.34364
7.68046
7.01669
6.35218
5.68686
5.02066
4.35356
3.68557
3.01675
2.34719
1.67702
1.0064
0.3355
9.66851
9.00544
8.34214
7.67845
7.01425
6.34943
5.68392
5.01764
4.3506
3.6828
3.0143
2.34516
1.67551
1.00547
0.335182
9.66825
9.00468
8.3409
7.6768
7.01225
6.34717
5.68149
5.01516
4.34817
3.68053
3.01228
2.34349
1.67426
1.00469
0.334921
9.66804
9.00405
8.33989
7.67545
7.01062
6.34533
5.67951
5.01314
4.34619
3.67868
3.01064
2.34214
1.67325
1.00407
0.334709
9.66787
9.00355
8.33908
7.67436
7.00931
6.34385
5.67793
5.01151
4.3446
3.67719
3.00932
2.34105
1.67243
1.00356
0.334539
9.66774
9.00316
8.33845
7.67351
7.00828
6.34268
5.67668
5.01024
4.34335
3.67603
3.00829
2.34019
1.67179
1.00317
0.334405
9.66764
9.00286
8.33797
7.67287
7.0075
6.3418
5.67574
5.00928
4.34241
3.67514
3.00751
2.33955
1.67131
1.00287
0.334304
9.66756
9.00265
8.33763
7.67241
7.00695
6.34118
5.67507
5.00859
4.34174
3.67452
3.00696
2.33909
1.67097
1.00266
0.334232
9.66752
9.00252
8.33742
7.67213
7.00661
6.3408
5.67466
5.00817
4.34133
3.67414
3.00661
2.3388
1.67076
1.00253
0.334188
9.6675
9.00247
8.33733
7.67202
7.00647
6.34064
5.67449
5.008
4.34116
3.67398
3.00647
2.33869
1.67067
1.00247
0.33417
9.66751
9.00249
8.33737
7.67206
7.00653
6.3407
5.67456
5.00807
4.34123
3.67404
3.00653
2.33873
1.6707
1.00249
0.334177
9.66754
9.00259
8.33752
7.67227
7.00678
6.34099
5.67487
5.00838
4.34153
3.67433
3.00678
2.33895
1.67086
1.00259
0.33421
9.6676
9.00276
8.33781
7.67265
7.00724
6.34151
5.67542
5.00895
4.34209
3.67485
3.00724
2.33933
1.67115
1.00277
0.33427
9.66769
9.00302
8.33823
7.67321
7.00792
6.34227
5.67624
5.00979
4.34291
3.67561
3.00793
2.33989
1.67157
1.00303
0.334358
9.66781
9.00337
8.33879
7.67397
7.00884
6.34331
5.67735
5.01093
4.34403
3.67665
3.00885
2.34065
1.67214
1.00338
0.334477
9.66796
9.00383
8.33952
7.67495
7.01002
6.34465
5.67879
5.0124
4.34546
3.678
3.01004
2.34164
1.67287
1.00384
0.334631
9.66815
9.00439
8.34044
7.67619
7.01151
6.34634
5.68059
5.01424
4.34727
3.67969
3.01153
2.34287
1.6738
1.00441
0.334824
9.66839
9.0051
8.34158
7.6777
7.01335
6.34841
5.68282
5.01652
4.3495
3.68177
3.01338
2.3444
1.67494
1.00511
0.335063
9.66868
9.00595
8.34296
7.67956
7.01559
6.35095
5.68553
5.0193
4.35222
3.68431
3.01563
2.34627
1.67633
1.00598
0.335355
9.66903
9.00698
8.34464
7.6818
7.0183
6.35401
5.68882
5.02266
4.35551
3.68739
3.01836
2.34853
1.67802
1.00702
0.335708
9.66945
9.00823
8.34665
7.6845
7.02157
6.3577
5.69278
5.02671
4.35948
3.6911
3.02165
2.35125
1.68006
1.00828
0.336135
9.66995
9.00972
8.34907
7.68773
7.02548
6.36213
5.69752
5.03157
4.36424
3.69556
3.0256
2.35452
1.68251
1.00979
0.336646
9.67056
9.0115
8.35195
7.6916
7.03017
6.36743
5.70321
5.03739
4.36994
3.70089
3.03033
2.35844
1.68544
1.01161
0.33726
9.67128
9.01363
8.3554
7.69622
7.03576
6.37375
5.70999
5.04435
4.37676
3.70727
3.03599
2.36313
1.68895
1.01378
0.337994
9.67213
9.01617
8.35951
7.70172
7.04243
6.3813
5.71809
5.05264
4.3849
3.71489
3.04276
2.36873
1.69314
1.01637
0.338873
9.67315
9.01918
8.36439
7.70827
7.05037
6.39029
5.72774
5.06254
4.39461
3.72398
3.05083
2.37543
1.69815
1.01947
0.339922
9.67437
9.02277
8.37021
7.71607
7.05981
6.40099
5.73924
5.07433
4.40618
3.73483
3.06047
2.38342
1.70414
1.02318
0.341176
9.67581
9.02703
8.37711
7.72533
7.07104
6.41371
5.75292
5.08838
4.41998
3.74777
3.07197
2.39296
1.71129
1.0276
0.342675
9.67751
9.03208
8.3853
7.73633
7.08439
6.42885
5.7692
5.10511
4.43643
3.76321
3.0857
2.40436
1.71983
1.03289
0.344466
9.67954
9.03808
8.39502
7.74938
7.10024
6.44684
5.78857
5.12503
4.45602
3.78161
3.10208
2.41798
1.73004
1.03922
0.346609
9.68194
9.04518
8.40654
7.76485
7.11905
6.4682
5.8116
5.14873
4.47938
3.80357
3.12165
2.43425
1.74225
1.04679
0.349173
9.68477
9.05358
8.42018
7.78319
7.14135
6.49357
5.83897
5.17695
4.50721
3.82977
3.14503
2.45371
1.75686
1.05585
0.352245
9.68813
9.06351
8.43631
7.8049
7.16778
6.52366
5.87149
5.21053
4.54038
3.86105
3.17297
2.477
1.77438
1.06672
0.35593
9.69208
9.07523
8.45536
7.83056
7.19907
6.55935
5.91012
5.25048
4.57992
3.8984
3.2064
2.5049
1.79538
1.07977
0.360354
9.69674
9.08905
8.47784
7.86088
7.23608
6.60163
5.95598
5.29801
4.62706
3.94304
3.24643
2.53837
1.82061
1.09546
0.365678
9.70223
9.10531
8.50431
7.89662
7.2798
6.65167
6.01039
5.35454
4.68329
3.99641
3.29441
2.57857
1.85097
1.11436
0.372096
9.70866
9.1244
8.53543
7.9387
7.33138
6.71085
6.0749
5.42178
4.75036
4.06027
3.35199
2.62695
1.88758
1.13719
0.379854
9.71619
9.14676
8.57192
7.98815
7.39212
6.78074
6.15134
5.50172
4.8304
4.13676
3.42119
2.68528
1.93184
1.16484
0.389258
9.72499
9.17289
8.6146
8.0461
7.4635
6.86315
6.24181
5.59673
4.92594
4.22847
3.50452
2.75579
1.98551
1.19844
0.400702
9.73522
9.2033
8.66439
8.11385
7.5472
6.96015
6.34874
5.70958
5.04002
4.33854
3.60507
2.84127
2.05082
1.23946
0.414691
9.74707
9.23859
8.72223
8.19278
7.64506
7.07404
6.47496
5.84352
5.17625
4.47084
3.72666
2.94524
2.13067
1.28977
0.431886
9.76075
9.27933
8.78917
8.28439
7.7591
7.20742
6.62362
6.00235
5.33896
4.63005
3.87411
3.07222
2.22879
1.35189
0.453164
9.77644
9.32614
8.86625
8.39024
7.89146
7.3631
6.79831
6.19041
5.53326
4.82192
4.05345
3.22805
2.35013
1.42917
0.47972
9.79435
9.37962
8.95451
8.5119
8.04435
7.54406
7.00293
6.41265
5.76519
5.05344
4.27232
3.42035
2.50137
1.52622
0.513213
9.81464
9.44029
9.05493
8.65087
8.21996
7.75339
7.24165
6.67459
6.04176
5.33312
4.54039
3.65916
2.69162
1.64955
0.556023
9.83746
9.50861
9.16831
8.80848
8.42032
7.99407
7.51877
6.98219
6.37096
5.67117
4.86991
3.95788
2.9336
1.80861
0.611693
9.86289
9.58486
9.29526
8.98576
8.64712
8.26879
7.83843
7.34162
6.76162
6.07968
5.27634
4.33455
3.24552
2.01761
0.685744
9.89095
9.66915
9.43601
9.18325
8.90148
8.57961
8.20422
7.75881
7.22306
6.57247
5.77889
4.81344
3.65388
2.29878
0.787307
9.9216
9.76131
9.59037
9.40087
9.18366
8.92758
8.61861
8.23869
7.76423
7.16454
6.40078
5.4271
4.19802
2.68853
0.932714
9.95465
9.86087
9.7576
9.63774
9.49281
9.31225
9.08226
8.7842
8.39232
7.87051
7.1684
6.2181
4.93686
3.24931
1.15424
9.98984
9.967
9.93636
9.89198
9.82668
9.73122
9.59313
9.39484
9.1106
8.70166
8.10834
7.23887
5.95783
4.09309
1.52395
10.0268
10.0785
10.1246
10.1607
10.1815
10.1798
10.1458
10.0651
9.91545
9.66079
9.24
8.54541
7.38411
5.42599
2.22612
10.065
10.194
10.3198
10.4401
10.5518
10.6507
10.7308
10.7832
10.7932
10.7352
10.5618
10.176
9.36368
7.62117
3.79798
10.1039
10.3116
10.5189
10.7255
10.931
11.1345
11.3351
11.5308
11.718
11.8898
12.0309
12.1027
11.9891
11.2612
7.9898
10.1429
10.4294
10.7184
11.0117
11.3114
11.6204
11.9428
12.2842
12.6535
13.0656
13.548
14.1581
15.0412
16.6675
21.0067
10.1813
10.5456
10.915
11.2933
11.6853
12.0971
12.5372
13.0181
13.5591
14.1925
14.9763
16.0237
17.5769
20.1896
25.1015
10.2186
10.6582
11.1053
11.5654
12.0454
12.554
13.1032
13.7101
14.4004
15.2149
16.2215
17.5381
19.3768
22.1148
26.3592
0.457112
0.819246
0.97716
1.0358
1.03668
1.00022
0.938074
0.857556
0.763591
0.659655
0.548308
0.431508
0.310807
0.187487
0.0626597
0.245246
0.561442
0.738961
0.826547
0.855265
0.843874
0.804124
0.743755
0.668112
0.58104
0.485411
0.383445
0.276924
0.167333
0.0559707
0.154415
0.399934
0.563208
0.658161
0.70169
0.707208
0.684483
0.640553
0.580562
0.508361
0.426908
0.338541
0.245169
0.148407
0.0496833
0.10755
0.295536
0.434894
0.525479
0.574501
0.590147
0.57956
0.548495
0.501484
0.442101
0.373202
0.297108
0.215764
0.130842
0.0438415
0.0795118
0.224904
0.340444
0.421654
0.470484
0.491297
0.488851
0.467503
0.430991
0.382446
0.324486
0.259319
0.18884
0.11472
0.038473
0.0609392
0.174999
0.26983
0.340309
0.385917
0.408593
0.411263
0.397037
0.368848
0.329323
0.280771
0.225214
0.164444
0.100073
0.0335896
0.0477953
0.138447
0.216123
0.276233
0.31727
0.339777
0.345402
0.336262
0.314573
0.282466
0.241917
0.194728
0.142546
0.0868911
0.0291891
0.0380809
0.110903
0.174612
0.225398
0.261488
0.282679
0.289791
0.284198
0.267528
0.241468
0.20767
0.167706
0.123059
0.0751298
0.0252577
0.0306854
0.0896867
0.142072
0.184767
0.216047
0.235357
0.242998
0.239824
0.227001
0.205841
0.177703
0.143935
0.105849
0.0647168
0.0217727
0.0249348
0.0730638
0.11626
0.152062
0.178917
0.196134
0.203712
0.202148
0.19226
0.175057
0.151643
0.12316
0.0907535
0.0555613
0.0187049
0.0203929
0.0598657
0.0955804
0.125567
0.148479
0.163603
0.170773
0.170249
0.162597
0.148585
0.129102
0.105107
0.0775918
0.0475609
0.0160212
0.0167624
0.0492767
0.0788779
0.103983
0.123448
0.136593
0.143174
0.143298
0.137349
0.125909
0.109692
0.0894976
0.0661761
0.0406075
0.0136863
0.0138334
0.04071
0.0652967
0.0863154
0.102802
0.114142
0.120056
0.120561
0.115913
0.10655
0.0930437
0.0760585
0.0563201
0.034593
0.0116649
0.011453
0.0337331
0.0541923
0.0717938
0.0857299
0.0954565
0.100694
0.101403
0.0977499
0.0900664
0.0788098
0.0645304
0.0478444
0.0294122
0.00992215
0.00950698
0.0280202
0.0450719
0.0598167
0.0715798
0.0798876
0.0844744
0.0852717
0.0823845
0.0760631
0.066674
0.0546727
0.0405808
0.0249656
0.00842529
0.00790863
0.0233218
0.0375529
0.0499095
0.0598284
0.0669015
0.0708857
0.0716983
0.0694029
0.0641891
0.0563513
0.0462663
0.0343743
0.0211613
0.00714377
0.00659079
0.0194441
0.031335
0.0416946
0.0500525
0.0560598
0.0594986
0.0602824
0.058447
0.0541367
0.0475884
0.0391142
0.0290849
0.0179152
0.00604969
0.00550088
0.0162343
0.0261802
0.0348692
0.0419084
0.0470009
0.0499545
0.0506847
0.0492089
0.0456378
0.0401624
0.0330414
0.0245871
0.0151522
0.00511794
0.00459721
0.0135713
0.021898
0.0291889
0.0351158
0.0394266
0.0419539
0.0426182
0.0414254
0.0384606
0.0338787
0.0278943
0.0207698
0.0128052
0.00432613
0.00384646
0.0113578
0.0183348
0.0244553
0.0294451
0.0330904
0.0352465
0.0358408
0.034872
0.0324059
0.0285687
0.0235383
0.0175358
0.0108153
0.00365453
0.00322179
0.00951513
0.0153661
0.0205068
0.0247077
0.027788
0.0296233
0.0301484
0.0293579
0.027303
0.0240868
0.0198572
0.0148002
0.00913096
0.00308588
0.00270142
0.00797957
0.0128904
0.0172107
0.0207481
0.0233499
0.0249095
0.0253692
0.0247214
0.0230063
0.0203082
0.0167506
0.0124896
0.0077075
0.00260517
0.00226759
0.00669902
0.0108246
0.014458
0.0174379
0.0196353
0.0209591
0.0213589
0.0208259
0.0193919
0.0171263
0.0141321
0.0105407
0.00650632
0.00219942
0.00190577
0.00563077
0.00910048
0.012159
0.0146709
0.0165272
0.0176502
0.017996
0.0175558
0.0163547
0.0144501
0.0119282
0.00889941
0.00549428
0.00185749
0.00160404
0.00473972
0.00766178
0.0102395
0.012359
0.0139281
0.0148807
0.0151788
0.0148138
0.0138059
0.0122026
0.010076
0.00751935
0.00464304
0.00156984
0.00135256
0.00399695
0.0064621
0.00863815
0.0104291
0.011757
0.0125655
0.0128219
0.0125181
0.0116704
0.0103183
0.0085223
0.00636121
0.00392847
0.00132834
0.00114324
0.00337861
0.0054631
0.00730412
0.00882054
0.00994636
0.0106335
0.0108539
0.0106
0.00988504
0.00874206
0.00722205
0.00539163
0.0033301
0.00112608
0.000969388
0.00286499
0.00463312
0.00619543
0.00748316
0.00844024
0.00902565
0.0092151
0.00900187
0.0083968
0.00742756
0.00613729
0.00458249
0.00283063
0.000957233
0.000825506
0.00243987
0.00394601
0.00527733
0.00637531
0.00719212
0.00769261