/*--------------------------------*- C++ -*----------------------------------*\
| =========                 |                                                 |
| \\      /  F ield         | OpenFOAM: The Open Source CFD Toolbox           |
|  \\    /   O peration     | Version:  5.x                                   |
|   \\  /    A nd           | Web:      www.OpenFOAM.org                      |
|    \\/     M anipulation  |                                                 |
\*---------------------------------------------------------------------------*/
FoamFile
{
    version     2.0;
    format      ascii;
    class       volScalarField;
    location    "15.5";
    object      gradTy;
}
// * * * * * * * * * * * * * * * * * * * * * * * * * * * * * * * * * * * * * //

dimensions      [0 -1 0 1 0 0 0];

internalField   nonuniform List<scalar> 
6300
(
999.344
998.166
997.387
997.265
998.053
999.985
1003.28
1008.12
1014.66
1023.01
1033.22
1045.28
1059.12
1074.6
1091.5
-0.199986
-0.597373
-0.986738
-1.36185
-1.71519
-2.03768
-2.31847
-2.54514
-2.70434
-2.78293
-2.76967
-2.65741
-2.44527
-2.14034
-1.75814
-0.336193
-1.00457
-1.66045
-2.29396
-2.89299
-3.44251
-3.92424
-4.31683
-4.59673
-4.74011
-4.72589
-4.53971
-4.17828
-3.6529
-2.99086
-0.476397
-1.42424
-2.35653
-3.26057
-4.12029
-4.91511
-5.61916
-6.20121
-6.62563
-6.85489
-6.85408
-6.59729
-6.07521
-5.30213
-4.31927
-0.621553
-1.85946
-3.08082
-4.27146
-5.41246
-6.47844
-7.43604
-8.24318
-8.84961
-9.19968
-9.2382
-8.92009
-8.2231
-7.16106
-5.79215
-0.771912
-2.31123
-3.83585
-5.33196
-6.77963
-8.15012
-9.40336
-10.4858
-11.3299
-11.856
-11.9789
-11.6217
-10.736
-9.32685
-7.47242
-0.926765
-2.77768
-4.61934
-6.44088
-8.22393
-9.939
-11.5414
-12.9668
-14.1283
-14.9153
-15.1997
-14.8518
-13.7723
-11.9378
-9.44645
-1.08423
-3.25334
-5.42294
-7.58824
-9.73616
-11.8405
-13.8562
-15.7117
-17.3009
-18.4772
-19.0526
-18.8134
-17.5636
-15.2054
-11.8434
-1.24104
-3.72851
-6.23079
-8.75296
-11.2919
-13.8307
-16.3312
-18.7226
-20.8865
-22.6399
-23.7199
-23.7854
-22.4632
-19.4766
-14.874
-1.39245
-4.18884
-7.01873
-9.90089
-12.8476
-15.8591
-18.9153
-21.9608
-24.8825
-27.4758
-29.4014
-30.145
-29.0271
-25.3636
-18.924
-1.53237
-4.61566
-7.75436
-10.9843
-14.3383
-17.8428
-21.5099
-25.3226
-29.2066
-32.9794
-36.2647
-38.366
-38.1365
-34.0268
-24.8085
-1.65371
-4.98703
-8.39876
-11.9434
-15.6784
-19.6638
-23.9588
-28.6131
-33.6417
-38.9702
-44.3118
-48.9174
-51.1259
-47.7983
-34.6042
-1.74914
-5.27995
-8.91015
-12.7122
-16.7682
-21.1748
-26.0484
-31.5289
-37.7767
-44.9476
-53.0945
-61.8658
-69.6513
-71.4363
-54.8433
-1.81203
-5.47345
-9.24968
-13.2268
-17.5071
-22.2187
-27.531
-33.677
-40.9885
-49.9486
-61.2525
-75.7996
-94.1767
-113.452
-110.617
-1.83755
-5.5521
-9.38819
-13.4383
-17.8146
-22.6619
-28.1798
-34.6592
-42.5515
-52.6055
-66.1667
-85.903
-117.803
-177.577
-314.759
1108.06
1123.75
1139.88
1156.27
1172.75
1189.15
1205.31
1221.09
1236.39
1251.09
1265.12
1278.41
1290.9
1302.54
1313.3
1323.17
1332.11
1340.12
1347.19
1353.31
1358.48
1362.71
1366
1368.36
1369.8
1370.33
1369.95
1368.69
1366.56
1363.57
1359.73
1355.07
1349.59
1343.31
1336.25
1328.41
1319.82
1310.47
1300.4
1289.61
1278.11
1265.93
1253.07
1239.55
1225.38
1210.58
1195.17
1179.16
1162.56
1145.38
1127.64
1109.35
1090.52
1071.16
1051.28
1030.89
1010.01
988.655
966.834
944.569
921.878
898.78
875.296
851.446
827.254
802.74
777.93
752.851
727.53
702.001
676.301
650.471
624.557
598.613
572.694
546.861
521.18
495.718
470.544
445.726
421.334
397.431
374.083
351.345
329.272
307.909
287.293
267.454
248.411
230.172
-1.35773
-0.972826
-0.5828
-0.202145
0.15712
0.486151
0.779463
1.03466
1.2519
1.43321
1.58179
1.70146
1.79616
1.86961
1.9252
1.96581
1.99385
2.01133
2.01987
2.02081
2.01525
2.00415
1.98831
1.96845
1.94524
1.91926
1.8911
1.8613
1.83039
1.79886
1.76716
1.73566
1.70465
1.67428
1.64455
1.61536
1.58645
1.55751
1.52821
1.49826
1.4675
1.43592
1.4037
1.37118
1.33884
1.30721
1.2768
1.24798
1.22092
1.19552
1.17142
1.14801
1.12452
1.10009
1.07391
1.04533
1.01393
0.97958
0.942393
0.902691
0.86088
0.817316
0.772169
0.725299
0.676182
0.623895
0.567157
0.504449
0.434171
0.354842
0.26529
0.164819
0.0533281
-0.0686447
-0.199938
-0.338847
-0.48325
-0.630748
-0.778796
-0.924808
-1.06622
-1.20049
-1.32512
-1.4376
-1.53545
-1.61626
-1.67784
-1.71843
-1.73689
-1.73289
-2.29631
-1.62967
-0.956509
-0.302904
0.309992
0.86716
1.35987
1.78499
2.14386
2.44094
2.68253
2.8757
3.02755
3.14461
3.23263
3.29643
3.33999
3.36651
3.3786
3.37838
3.36761
3.3478
3.32024
3.2861
3.24644
3.20224
3.15443
3.10393
3.05162
2.99835
2.94492
2.89199
2.84006
2.78941
2.74007
2.69179
2.64411
2.59641
2.54802
2.49838
2.44712
2.39421
2.33995
2.28499
2.23024
2.17674
2.12546
2.07717
2.03221
1.99046
1.95126
1.9135
1.8757
1.83626
1.79367
1.7467
1.6946
1.63715
1.57467
1.50786
1.43761
1.36475
1.28973
1.21245
1.13207
1.04696
0.954821
0.852851
0.73808
0.60773
0.459581
0.292291
0.105612
-0.0995277
-0.321064
-0.555964
-0.800465
-1.05036
-1.30123
-1.54869
-1.78842
-2.01622
-2.22793
-2.41937
-2.58629
-2.72446
-2.82991
-2.89936
-2.9306
-2.92298
-3.28575
-2.29604
-1.30221
-0.345211
0.542932
1.34081
2.03739
2.63051
3.12459
3.52835
3.85272
4.10921
4.30878
4.46118
4.57466
4.65593
4.71037
4.7422
4.75478
4.75086
4.73271
4.7023
4.66136
4.61142
4.5539
4.49011
4.42135
4.34887
4.27393
4.1978
4.12166
4.04657
3.97332
3.90238
3.83376
3.76708
3.70152
3.63601
3.56936
3.50054
3.42886
3.35417
3.27693
3.19823
3.11959
3.0428
2.96959
2.90129
2.83863
2.78147
2.7288
2.67879
2.629
2.57676
2.51951
2.45524
2.38274
2.30176
2.21297
2.11778
2.01793
1.91509
1.81036
1.7039
1.59458
1.47999
1.35648
1.21953
1.06428
0.886105
0.681298
0.447556
0.184357
-0.106913
-0.423057
-0.759355
-1.11001
-1.46863
-1.82868
-2.18377
-2.52787
-2.85517
-3.15999
-3.43651
-3.67857
-3.87979
-4.03387
-4.13532
-4.18033
-4.16753
-4.34725
-2.96816
-1.5947
-0.288168
0.906068
1.96052
2.86414
3.61886
4.23559
4.73031
5.12089
5.4249
5.65815
5.83402
5.96328
6.05432
6.11355
6.14583
6.15498
6.14406
6.11572
6.07224
6.01569
5.94791
5.87063
5.78543
5.69389
5.5976
5.49824
5.39752
5.29718
5.19877
5.10355
5.01225
4.92495
4.84102
4.75914
4.67751
4.59411
4.50709
4.4152
4.31805
4.2163
4.11163
4.00653
3.90398
3.80687
3.71756
3.63737
3.56627
3.50276
3.44398
3.38607
3.32468
3.25569
3.17586
3.08331
2.97782
2.86072
2.7346
2.60274
2.46833
2.33369
2.19962
2.06487
1.92603
1.77764
1.61273
1.42363
1.20299
0.944828
0.645383
0.303666
-0.0783471
-0.495894
-0.941946
-1.40796
-1.88473
-2.36312
-2.83459
-3.29138
-3.72638
-4.13271
-4.50315
-4.82958
-5.10291
-5.31352
-5.4525
-5.51322
-5.49301
-5.50312
-3.63219
-1.79078
-0.0693942
1.47053
2.79752
3.90536
4.80602
5.52241
6.08229
6.51381
6.84257
7.09024
7.27404
7.40701
7.49862
7.55562
7.58288
7.58414
7.56247
7.52063
7.46112
7.38628
7.29822
7.19887
7.09
6.97339
6.8509
6.72462
6.59684
6.47003
6.34652
6.22827
6.1165
6.01143
5.91214
5.81656
5.72171
5.62419
5.5208
5.40926
5.28871
5.16002
5.02577
4.88997
4.75745
4.63307
4.52084
4.42316
4.34027
4.27004
4.20808
4.14828
4.08367
4.00761
3.91491
3.80267
3.67073
3.52157
3.35983
3.19135
3.02201
2.85633
2.69642
2.54118
2.38594
2.22271
2.04088
1.8285
1.57401
1.26792
0.904192
0.481108
0.00149578
-0.527576
-1.09568
-1.69033
-2.2984
-2.90744
-3.50646
-4.08618
-4.63879
-5.15704
-5.63306
-6.05697
-6.41624
-6.69626
-6.88227
-6.96256
-6.93184
-6.775
-4.25354
-1.81386
0.410887
2.34187
3.95038
5.24528
6.2589
7.03498
7.61956
8.05511
8.37745
8.61472
8.7877
8.91074
8.99321
9.04097
9.05786
9.0468
9.01044
8.95147
8.87259
8.77643
8.66532
8.54133
8.40627
8.2619
8.11021
7.95368
7.79534
7.63867
7.48725
7.34421
7.21165
7.09015
6.97847
6.87347
6.77031
6.66327
6.54681
6.41684
6.27164
6.11228
5.9427
5.76923
5.59974
5.4423
5.30369
5.18817
5.09656
5.02591
4.96957
4.91789
4.85964
4.78398
4.68256
4.55086
4.38888
4.20098
3.99518
3.78166
3.57082
3.37106
3.18692
3.01786
2.85774
2.69494
2.51336
2.29436
2.01967
1.67432
1.2488
0.740264
0.152867
-0.502752
-1.21092
-1.95307
-2.71041
-3.46594
-4.20585
-4.91978
-5.60042
-6.24199
-6.83781
-7.37724
-7.84354
-8.21421
-8.4641
-8.57161
-8.52608
-8.18048
-4.75699
-1.52729
1.3143
3.67772
5.55504
6.99048
8.05416
8.82367
9.37183
9.75985
10.0353
10.2323
10.3737
10.4734
10.5382
10.5713
10.5736
10.5464
10.4915
10.4115
10.3095
10.1886
10.0515
9.90032
9.73651
9.56151
9.37709
9.18595
8.99202
8.80034
8.61653
8.44568
8.29148
8.15533
8.03582
7.92831
7.82513
7.71653
7.59286
7.44698
7.27555
7.07988
6.86581
6.64336
6.42526
6.22499
6.05389
5.91933
5.82324
5.76174
5.72489
5.69753
5.6612
5.59797
5.49432
5.34317
5.14484
4.90667
4.64214
4.36858
4.10417
3.86376
3.65615
3.48211
3.33384
3.19464
3.04012
2.84081
2.56747
2.19657
1.71331
1.11334
0.402831
-0.401916
-1.27686
-2.19362
-3.12468
-4.04663
-4.94234
-5.80103
-6.61805
-7.39254
-8.12349
-8.80257
-9.4083
-9.90585
-10.2508
-10.4008
-10.3342
-9.72066
-4.98136
-0.681877
2.90622
5.71332
7.79574
9.27081
10.2729
10.931
11.3546
11.6267
11.8059
11.9297
12.02
12.086
12.1292
12.1457
12.1319
12.0859
12.0086
11.9032
11.7736
11.6242
11.4581
11.2774
11.0829
10.8747
10.6537
10.4223
10.1855
9.95074
9.72719
9.52323
9.34538
9.1966
9.07596
8.97699
8.88783
8.79155
8.67099
8.51398
8.31446
8.07405
7.80106
7.51131
7.22522
6.96575
6.75157
6.59518
6.50021
6.46218
6.46663
6.49017
6.5016
6.47027
6.37458
6.20349
5.95828
5.65039
5.30219
4.94243
4.60305
4.30931
4.07713
3.90936
3.79698
3.7165
3.63148
3.49395
3.25583
2.88069
2.34594
1.64568
0.788579
-0.199902
-1.28249
-2.41345
-3.55195
-4.66497
-5.732
-6.74214
-7.69676
-8.60563
-9.48371
-10.3333
-11.1287
-11.8171
-12.3179
-12.5419
-12.4432
-11.3393
-4.57256
1.1877
5.62241
8.79185
10.9102
12.2313
12.9858
13.375
13.5546
13.6264
13.6554
13.6745
13.7001
13.7307
13.7574
13.7627
13.7355
13.6692
13.5654
13.4284
13.2654
13.0826
12.8846
12.6734
12.4479
12.2053
11.9442
11.6653
11.375
11.0839
10.8086
10.5621
10.3564
10.1963
10.0838
10.0105
9.95975
9.90047
9.8006
9.64116
9.41123
9.11413
8.75947
8.37301
7.98586
7.64037
7.36511
7.18167
7.09429
7.10058
7.18002
7.29939
7.40273
7.4344
7.36258
7.16973
6.86117
6.45136
5.97813
5.48614
5.03549
4.66551
4.40467
4.2562
4.21352
4.24427
4.29785
4.29134
4.14091
3.79409
3.21638
2.40336
1.36301
0.137159
-1.21892
-2.6228
-4.01627
-5.34983
-6.60385
-7.76343
-8.84152
-9.86321
-10.885
-11.9424
-13.0031
-13.9985
-14.7837
-15.1476
-14.9922
-12.7733
-2.71488
4.96554
10.1603
13.3835
15.1719
16.0065
16.2239
16.1194
15.9085
15.6866
15.5177
15.4084
15.3717
15.3797
15.4151
15.425
15.3939
15.3052
15.1685
14.9897
14.7841
14.5611
14.3287
14.0886
13.8358
13.5608
13.2589
12.923
12.5641
12.1928
11.8469
11.5407
11.3
11.126
11.0337
11.01
11.0424
11.0664
11.0145
10.8684
10.6033
10.2356
9.76226
9.23426
8.68515
8.21245
7.84508
7.62848
7.55216
7.63233
7.83461
8.1304
8.40583
8.5463
8.52363
8.3014
7.90869
7.34248
6.67995
5.96922
5.35068
4.86349
4.56937
4.44967
4.52336
4.73818
5.04983
5.29505
5.30793
5.0391
4.42486
3.48759
2.2038
0.661041
-1.0872
-2.84774
-4.56742
-6.14978
-7.61213
-8.90249
-10.0679
-11.1209
-12.2353
-13.5468
-14.9717
-16.4828
-17.8563
-18.5009
-18.2198
-12.9366
2.56663
12.322
17.537
20.0416
20.808
20.6712
19.9263
19.0177
18.2794
17.6712
17.2952
17.0387
16.9797
16.9902
17.1107
17.1475
17.1361
17.0116
16.8331
16.5908
16.3288
16.0547
15.7852
15.5231
15.2571
14.9564
14.6237
14.2151
13.7725
13.2664
12.8291
12.4265
12.149
11.9393
11.8861
11.9301
12.1386
12.3428
12.3653
12.2682
11.9443
11.5108
10.845
10.1272
9.2757
8.63417
8.10923
7.87456
7.78593
7.98946
8.35573
8.99194
9.60443
9.89426
9.97319
9.67969
9.20716
8.37344
7.45228
6.32063
5.47781
4.78448
4.48394
4.36562
4.63092
5.0936
5.89833
6.63418
6.88145
6.78231
6.09931
5.07165
3.41834
1.48162
-0.936953
-3.13076
-5.31556
-7.12181
-8.86741
-10.2209
-11.4553
-12.2898
-13.3011
-14.9873
-16.8156
-19.1645
-21.9783
-23.1866
-22.5566
-7.05932
16.1252
26.2161
28.816
29.202
27.7438
26.2114
23.8639
21.6706
20.4626
19.3211
18.9005
18.3841
18.4876
18.442
18.9263
18.939
19.0412
18.7953
18.5893
18.2202
17.8905
17.5412
17.2309
16.9629
16.728
16.398
16.0976
15.5559
15.0723
14.2408
13.7612
13.132
12.9003
12.5272
12.5982
12.6133
13.2409
13.8806
13.8884
13.9943
13.4432
13.1201
12.0025
11.2127
9.5637
8.8879
7.9553
7.91025
7.59889
8.11216
8.48804
9.88753
11.2676
11.5458
11.9589
11.3157
11.0257
9.53023
8.52765
6.25605
5.3896
4.13981
4.13608
3.72911
4.4542
4.9564
6.84597
8.67681
8.95374
9.36622
8.27001
7.55658
5.04095
2.99605
-1.11036
-3.42668
-6.60874
-8.18108
-10.6872
-11.7105
-13.4185
-13.2041
-13.3947
-16.2231
-17.9096
-21.1765
-28.4118
-30.5192
-28.8053
27.9858
48.5388
50.8977
43.2826
41.0176
34.7856
32.9245
27.5785
22.9037
22.5493
19.9319
20.6428
18.8361
20.2094
19.1299
21.4203
20.6008
21.4464
20.5206
20.5797
19.7919
19.4796
18.9707
18.6146
18.3541
18.3351
17.7961
17.9179
16.8122
16.8721
14.7073
14.9078
13.2642
13.8541
12.4746
13.3899
12.4133
14.3252
16.3271
15.2695
16.6657
14.6129
15.8725
12.6873
13.5346
8.44946
9.51066
6.52251
8.32868
6.22364
8.43197
7.14561
10.8104
14.5166
13.0024
15.4652
12.4422
14.5793
9.9766
11.4297
4.16741
5.85281
1.70019
4.3683
1.46187
4.59789
2.82085
7.87764
12.9565
10.8303
14.1221
9.889
12.6362
5.98525
7.47864
-3.86189
-2.47626
-10.2202
-7.89591
-14.6425
-12.2143
-18.1502
-13.535
-9.69016
-19.1033
-16.7278
-17.474
-42.2294
-43.3541
-38.4535
214.877
107.15
89.9409
50.0446
58.5454
35.5333
44.6556
30.3268
17.9157
27.8948
15.7505
26.0105
14.7093
25.4635
14.9652
28.3927
19.8652
26.4028
20.8279
23.7896
20.6794
21.3519
20.1807
19.861
19.3978
20.6913
18.2431
21.5062
16.3905
21.8756
11.7685
18.7104
10.1805
17.6445
9.11819
16.9062
8.05466
15.2801
23.1799
13.1177
24.3041
11.013
25.0258
7.56594
24.3998
-1.51505
15.965
-1.81357
14.3798
-1.36233
13.7846
-1.32596
11.6741
25.2833
8.73244
26.8716
6.13843
27.8387
1.703
26.8825
-10.8055
14.7232
-10.5608
12.6283
-9.50606
11.8168
-9.15503
8.87784
27.6118
4.90513
29.7141
1.45669
31.2492
-4.79797
30.4424
-24.9387
11.6211
-28.3296
5.45179
-31.8092
-0.673311
-38.0751
-12.7561
13.1061
-38.9587
-11.0504
20.8021
-90.0743
-64.8649
-54.5931
210.992
191.206
172.516
154.865
138.185
122.394
107.407
93.1345
79.4865
66.3735
53.7075
41.4031
29.3769
17.5478
5.83625
-1.70448
-1.64444
-1.55951
-1.45479
-1.33564
-1.20712
-1.07358
-0.938442
-0.804184
-0.672371
-0.543794
-0.418621
-0.296538
-0.176888
-0.0587861
-2.87298
-2.76832
-2.62114
-2.44067
-2.23648
-2.01746
-1.79107
-1.56311
-1.3376
-1.11703
-0.90255
-0.694272
-0.491529
-0.293098
-0.0973893
-4.09158
-3.93471
-3.71604
-3.45024
-3.15214
-2.83514
-2.51014
-2.1853
-1.86608
-1.55559
-1.25509
-0.964382
-0.682204
-0.40658
-0.135061
-5.38415
-5.16284
-4.85804
-4.49205
-4.08668
-3.66077
-3.22903
-2.80186
-2.38578
-1.98415
-1.59784
-1.22595
-0.866317
-0.515953
-0.171336
-6.77922
-6.47439
-6.06118
-5.5732
-5.04171
-4.49219
-3.94331
-3.40728
-2.89103
-2.39736
-1.92614
-1.47524
-1.04116
-0.619573
-0.205663
-8.3125
-7.89423
-7.33899
-6.69779
-6.01471
-5.32293
-4.64467
-3.99291
-3.37366
-2.78808
-2.23411
-1.70768
-1.20348
-0.715515
-0.237404
-10.0309
-9.45087
-8.70266
-7.86417
-6.99631
-6.14009
-5.31949
-4.54597
-3.82257
-3.14715
-2.51453
-1.91788
-1.34956
-0.801591
-0.265839
-11.9983
-11.1756
-10.1565
-9.05981
-7.96616
-6.92153
-5.94718
-5.04885
-4.22346
-3.46339
-2.75894
-2.09972
-1.47529
-0.875436
-0.290196
-14.3031
-13.0965
-11.6877
-10.2523
-8.8869
-7.63261
-6.49876
-5.47873
-4.559
-3.72396
-2.95808
-2.24674
-1.57643
-0.934658
-0.309702
-17.0628
-15.2196
-13.2453
-11.3748
-9.69641
-8.22313
-6.93647
-5.80823
-4.80978
-3.91534
-3.10266
-2.3527
-1.649
-0.977056
-0.323652
-20.4031
-17.4736
-14.6989
-12.305
-10.3007
-8.62694
-7.21566
-6.00786
-4.95649
-4.02491
-3.18448
-2.41236
-1.68981
-1.0009
-0.331501
-24.3231
-19.5728
-15.7713
-12.8456
-10.5744
-8.76814
-7.29128
-6.05099
-4.98335
-4.04329
-3.19796
-2.42242
-1.69696
-1.00522
-0.332949
-28.1036
-20.7229
-15.9677
-12.7315
-10.3831
-8.57982
-7.13025
-5.92139
-4.88256
-3.96691
-3.1416
-2.38237
-1.67036
-0.990049
-0.328024
-27.9738
-19.2471
-14.6451
-11.7294
-9.64636
-8.03772
-6.72843
-5.62169
-4.65854
-3.80013
-3.01911
-2.2951
-1.61203
-0.956588
-0.31712
-1.82782
-5.52208
-9.3354
-13.3584
-17.701
-22.5056
-27.9684
-34.3769
-42.179
-52.1247
-65.5809
-85.3085
-117.603
-178.792
-316.406
-1.78939
-5.40359
-9.12674
-13.0409
-17.2436
-21.8587
-27.0507
-33.0499
-40.191
-48.9777
-60.1743
-74.8637
-93.9969
-114.647
-107.595
-1.72635
-5.20941
-8.78544
-12.5228
-16.4999
-20.811
-25.5724
-30.9296
-37.0599
-44.1569
-52.3418
-61.3322
-69.3363
-69.7403
-43.3233
-1.6422
-4.95065
-8.33208
-11.8381
-15.5241
-19.4505
-23.6803
-28.2722
-33.2575
-38.5805
-43.9499
-48.4852
-49.9529
-43.4584
-20.8778
-1.54136
-4.64117
-7.7922
-11.0282
-14.3814
-17.8791
-21.5367
-25.3415
-29.2202
-32.9716
-36.137
-37.7688
-36.0986
-28.3469
-11.7484
-1.42864
-4.29609
-7.19327
-10.137
-13.1382
-16.1967
-19.2907
-22.3595
-25.2712
-27.7694
-29.3886
-29.3453
-26.4676
-19.3788
-7.40939
-1.30884
-3.93034
-6.56197
-9.20574
-11.8553
-14.4894
-17.0621
-19.4863
-21.6093
-23.1775
-23.7944
-22.8899
-19.761
-13.7997
-5.04909
-1.1864
-3.55755
-5.92219
-8.27044
-10.5829
-12.8248
-14.9366
-16.8223
-18.3326
-19.2463
-19.2564
-17.9791
-15.0213
-10.1576
-3.62457
-1.06508
-3.18925
-5.29378
-7.35991
-9.35964
-11.2504
-12.9681
-14.4189
-15.4701
-15.9425
-15.6126
-14.235
-11.6052
-7.67468
-2.69733
-0.947935
-2.83457
-4.69198
-6.49546
-8.21198
-9.79601
-11.1847
-12.293
-13.0094
-13.1959
-12.6962
-11.3604
-9.09218
-5.91872
-2.05988
-0.837193
-2.50018
-4.12762
-5.69136
-7.15626
-8.47724
-9.59611
-10.4392
-10.9167
-10.9256
-10.3604
-9.13333
-7.2078
-4.63868
-1.60361
-0.734364
-2.19044
-3.60748
-4.95585
-6.20046
-7.29875
-8.19893
-8.83928
-9.14926
-9.05406
-8.48414
-7.39126
-5.77032
-3.68218
-1.26687
-0.640316
-1.9078
-3.13501
-4.29236
-5.34624
-6.25779
-6.98214
-7.4687
-7.66316
-7.5121
-6.971
-6.01586
-4.65725
-2.95288
-1.01237
-0.555395
-1.65312
-2.71104
-3.70069
-4.59082
-5.34679
-5.93044
-6.30091
-6.41695
-6.24097
-5.74535
-4.92062
-3.78427
-2.38754
-0.816366
-0.479543
-1.42606
-2.33448
-3.17811
-3.92855
-4.55544
-5.02673
-5.30978
-5.3735
-5.19178
-4.74821
-4.04174
-3.0921
-1.94331
-0.663105
-0.412416
-1.22546
-2.00289
-2.72022
-3.35206
-3.87211
-4.25371
-4.47093
-4.50047
-4.32439
-3.93361
-3.33171
-2.53822
-1.59034
-0.541786
-0.353475
-1.04958
-1.71302
-2.3217
-2.85317
-3.28491
-3.59483
-3.7624
-3.7702
-3.60607
-3.2656
-2.7547
-2.09154
-1.30727
-0.444781
-0.302066
-0.896372
-1.46117
-1.97677
-2.42354
-2.78228
-3.03478
-3.16479
-3.1593
-3.01018
-2.71593
-2.28341
-1.72895
-1.07852
-0.366573
-0.25748
-0.76365
-1.24349
-1.67962
-2.05502
-2.3534
-2.55978
-2.66126
-2.64814
-2.51505
-2.26227
-1.8968
-1.43299
-0.892471
-0.303086
-0.218996
-0.649207
-1.05616
-1.42464
-1.73998
-1.98841
-2.1576
-2.23731
-2.22027
-2.10302
-1.88685
-1.57846
-1.1903
-0.740355
-0.251257
-0.185914
-0.550913
-0.895532
-1.20656
-1.4714
-1.67844
-1.81754
-1.88054
-1.86197
-1.75968
-1.57547
-1.3155
-0.990503
-0.615425
-0.208744
-0.157573
-0.466769
-0.75823
-1.02054
-1.24294
-1.41565
-1.53031
-1.58041
-1.56181
-1.47323
-1.31667
-1.09771
-0.825479
-0.512439
-0.173733
-0.133364
-0.394938
-0.641167
-0.862235
-1.04897
-1.19316
-1.28791
-1.32798
-1.31023
-1.23396
-1.10121
-0.916895
-0.688791
-0.427275
-0.144805
-0.112735
-0.33376
-0.541574
-0.727767
-0.884547
-1.00501
-1.08346
-1.11569
-1.09928
-1.03392
-0.921556
-0.766484
-0.575302
-0.356659
-0.120836
-0.0951898
-0.281756
-0.456992
-0.613721
-0.745334
-0.846039
-0.911115
-0.937157
-0.922322
-0.86652
-0.771552
-0.641145
-0.480881
-0.297973
-0.100927
-0.0802929
-0.237617
-0.385261
-0.517112
-0.627579
-0.711802
-0.765867
-0.787011
-0.773808
-0.726312
-0.646152
-0.536538
-0.402181
-0.249103
-0.0843559
-0.0676602
-0.200201
-0.324494
-0.435351
-0.528047
-0.598505
-0.643478
-0.660714
-0.649103
-0.608784
-0.541203
-0.449111
-0.336478
-0.208336
-0.0705379
-0.0569576
-0.16851
-0.273056
-0.366199
-0.443954
-0.502902
-0.540346
-0.554445
-0.544331
-0.510183
-0.453274
-0.375946
-0.281545
-0.174272
-0.0589958
-0.0478957
-0.141684
-0.229535
-0.307733
-0.372918
-0.422229
-0.453422
-0.464989
-0.456245
-0.427387
-0.37952
-0.314637
-0.235548
-0.145765
-0.0493393
-0.0402246
-0.11898
-0.192717
-0.2583
-0.312905
-0.354135
-0.380125
-0.389636
-0.382125
-0.357789
-0.317581
-0.26319
-0.196976
-0.12187
-0.0412471
-0.0337295
-0.09976
-0.16156
-0.21649
-0.262179
-0.296622
-0.31827
-0.326102
-0.319686
-0.29921
-0.265491
-0.219954
-0.164576
-0.101807
-0.0344537
-0.0282263
-0.0834777
-0.135173
-0.181095
-0.21926
-0.247993
-0.266007
-0.272461
-0.26701
-0.249826
-0.221606
-0.183549
-0.137309
-0.0849277
-0.0287392
-0.0235571
-0.0696647
-0.112793
-0.151088
-0.182891
-0.206807
-0.221769
-0.227086
-0.22248
-0.208105
-0.184552
-0.152825
-0.114306
-0.0706914
-0.0239202
-0.0195867
-0.0579203
-0.0937689
-0.125588
-0.151996
-0.171838
-0.184229
-0.188601
-0.184732
-0.172757
-0.153172
-0.126817
-0.0948397
-0.0586471
-0.0198438
-0.0161993
-0.0479014
-0.0775429
-0.103844
-0.125662
-0.142042
-0.152256
-0.155839
-0.152612
-0.142692
-0.126494
-0.104714
-0.0783004
-0.0484156
-0.0163811
-0.0132954
-0.0393133
-0.0636363
-0.0852123
-0.103104
-0.116527
-0.124887
-0.127805
-0.125138
-0.116986
-0.103691
-0.0858269
-0.0641715
-0.0396766
-0.0134239
-0.0107893
-0.031902
-0.0516369
-0.0691392
-0.0836476
-0.0945269
-0.101296
-0.103649
-0.101473
-0.0948506
-0.0840618
-0.0695723
-0.052014
-0.032158
-0.0108798
-0.0086065
-0.0254474
-0.0411877
-0.0551448
-0.0667113
-0.075381
-0.0807709
-0.0826387
-0.080895
-0.0756079
-0.0670017
-0.0554484
-0.041452
-0.0256268
-0.00866996
-0.00668208
-0.019757
-0.0319765
-0.0428102
-0.0517864
-0.0585124
-0.0626912
-0.0641357
-0.0627773
-0.0586697
-0.0519878
-0.0430207
-0.0321598
-0.0198814
-0.00672609
-0.00495847
-0.0146606
-0.0237274
-0.0317653
-0.038424
-0.0434122
-0.04651
-0.0475788
-0.0465683
-0.0435188
-0.0385605
-0.031908
-0.0238517
-0.014745
-0.00498831
-0.00338399
-0.0100053
-0.0161929
-0.0216779
-0.0262214
-0.0296246
-0.0317375
-0.0324657
-0.0317751
-0.0296934
-0.0263094
-0.02177
-0.0162731
-0.0100598
-0.00340325
-0.00191135
-0.00565121
-0.00914609
-0.0122442
-0.0148105
-0.0167328
-0.0179263
-0.0183378
-0.0179478
-0.0167721
-0.0148607
-0.0122967
-0.00919182
-0.00568225
-0.00192233
-0.000496211
-0.00146721
-0.00237481
-0.0031797
-0.00384686
-0.00434708
-0.00465825
-0.00476634
-0.00466613
-0.00436147
-0.00386527
-0.00319895
-0.00239157
-0.00147858
-0.000500236
0.000904045
0.00267278
0.00432515
0.00578914
0.00700088
0.00790736
0.00846882
0.00866047
0.00847361
0.0079161
0.00701206
0.00580084
0.00433533
0.00267969
0.000906491
0.00233162
0.00689356
0.0111559
0.0149331
0.0180605
0.0204013
0.0218526
0.0223501
0.0218707
0.0204343
0.0181027
0.0149772
0.0111942
0.00691959
0.00234083
0.00382954
0.0113223
0.0183234
0.0245282
0.0296663
0.0335129
0.0358987
0.0367178
0.0359321
0.0335739
0.0297444
0.0246099
0.0183945
0.0113706
0.00384662
0.0054429
0.0160925
0.0260438
0.034864
0.0421688
0.0476386
0.0510326
0.0521997
0.0510854
0.0477351
0.0422923
0.0349931
0.0261562
0.0161689
0.00546989
0.00722021
0.0213476
0.0345494
0.0462519
0.0559454
0.0632056
0.0677127
0.0692656
0.0677912
0.0633491
0.056129
0.046444
0.0347166
0.0214612
0.00726036
0.00921482
0.0272455
0.0440959
0.0590347
0.0714113
0.080684
0.0864439
0.0884332
0.0865576
0.0808918
0.0716772
0.0593128
0.044338
0.0274098
0.00927296
0.0114865
0.0339627
0.0549697
0.0735964
0.0890322
0.100601
0.107793
0.110284
0.107956
0.100898
0.0894123
0.0739939
0.0553158
0.0341976
0.0115696
0.014103
0.0417001
0.067496
0.0903736
0.109338
0.123558
0.132406
0.135482
0.132637
0.12398
0.109878
0.0909382
0.0679876
0.0420337
0.014221
0.0171422
0.050688
0.0820486
0.109868
0.132937
0.150245
0.161026
0.16479
0.161353
0.150842
0.133701
0.110667
0.0827448
0.0511604
0.0173093
0.0206941
0.061193
0.09906
0.132661
0.160536
0.181464
0.194517
0.199098
0.194979
0.182309
0.161617
0.133791
0.100044
0.061861
0.0209304
0.0248635
0.0735252
0.119034
0.159428
0.192958
0.218152
0.233889
0.239448
0.234542
0.219345
0.194485
0.161025
0.120424
0.074469
0.0251974
0.0297727
0.0880468
0.142558
0.190963
0.231166
0.261406
0.280329
0.287063
0.281252
0.26309
0.233323
0.193218
0.144521
0.0893797
0.0302442
0.0355646
0.105181
0.17032
0.228192
0.276293
0.312515
0.335233
0.343387
0.336535
0.314894
0.279338
0.231376
0.173093
0.107063
0.0362302
0.0424064
0.125425
0.203129
0.272204
0.329668
0.373001
0.40025
0.410129
0.402088
0.37636
0.333967
0.276699
0.207044
0.128082
0.0433462
0.0504939
0.149358
0.24193
0.324277
0.392855
0.444653
0.477326
0.489312
0.479921
0.449395
0.398924
0.330624
0.247457
0.153109
0.0518208
0.0600558
0.177659
0.28783
0.38591
0.467693
0.529584
0.568766
0.583338
0.572429
0.536277
0.47626
0.39487
0.295632
0.182955
0.0619292
0.071359
0.211122
0.342123
0.45886
0.556341
0.630281
0.677292
0.695054
0.682463
0.63973
0.568435
0.471508
0.353138
0.218599
0.0740039
0.0847138
0.250668
0.406319
0.545178
0.661333
0.749675
0.806125
0.827846
0.813425
0.763013
0.678406
0.563034
0.42187
0.261225
0.088448
0.10048
0.297369
0.482174
0.647261
0.785636
0.891211
0.959071
0.985731
0.969374
0.910039
0.809736
0.672468
0.504129
0.312273
0.105752
0.119071
0.352459
0.571719
0.767889
0.932712
1.05893
1.14062
1.17348
1.15516
1.08551
0.966732
0.803475
0.602717
0.373503
0.126516
0.140964
0.417359
0.677294
0.910282
1.10659
1.25758
1.35607
1.39677
1.3766
1.29509
1.15461
0.960521
0.72106
0.447074
0.151477
0.1667
0.493686
0.801578
1.07814
1.31193
1.49266
1.61166
1.66232
1.64062
1.5456
1.37971
1.14907
0.863375
0.535649
0.181547
0.196888
0.583271
0.947612
1.2757
1.55411
1.77061
1.91468
1.9781
1.95555
1.84532
1.64978
1.37583
1.03488
0.642536
0.217859
0.23221
0.688159
1.11882
1.50775
1.83927
2.09885
2.27371
2.35356
2.33137
2.20425
1.9743
1.64912
1.24205
0.771876
0.261837
0.273414
0.810607
1.31898
1.77967
2.17438
2.4859
2.69872
2.79987
2.78003
2.6346
2.36494
1.97926
1.49305
0.928893
0.315282
0.321307
0.95306
1.55227
2.09738
2.56724
2.94148
3.20124
3.3302
3.31587
3.15119
2.83614
2.37919
1.79818
1.12024
0.380497
0.37674
1.11811
1.8231
2.46735
3.02649
3.47654
3.79459
3.96002
3.95612
3.77219
3.40585
2.86525
2.17061
1.35451
0.460466
0.440579
1.30841
2.13611
2.89641
3.56149
4.10324
4.49389
4.70739
4.72136
4.51984
4.09657
3.45828
2.62736
1.6429
0.559102
0.513667
1.52658
2.49591
3.39156
4.18212
4.83483
5.3162
5.5933
5.63621
5.42146
4.93657
4.18504
3.19074
2.00026
0.681628
0.596766
1.77501
2.90687
3.95968
4.89844
5.68539
6.28032
6.64181
6.72995
6.51063
5.96171
5.08037
3.89032
2.44661
0.835136
0.690474
2.05565
3.3727
4.60698
5.72015
6.66926
7.4065
7.88012
8.03716
7.82865
7.21767
6.19005
4.76603
3.00945
1.02947
0.795132
2.36968
3.896
5.33835
6.65575
7.80022
8.71571
9.33822
9.59818
9.42612
8.76292
7.57496
5.87265
3.72742
1.27864
0.9107
2.71719
4.47758
6.15646
7.71139
9.09015
10.2283
11.048
11.4591
11.3646
10.6725
9.31702
7.28682
4.65615
1.60314
1.03661
3.09671
5.11574
7.0606
8.88934
10.5471
11.962
13.0415
13.6712
13.718
13.0428
11.5276
9.11793
5.87817
2.03406
1.17164
3.50473
5.80536
8.04533
10.186
12.1727
13.9285
15.3474
16.288
16.5725
15.9965
14.3591
11.5255
7.51985
2.62054
1.31373
3.93528
6.53707
9.09899
11.5894
13.9584
16.1289
17.9852
19.3602
20.0247
19.6871
18.0213
14.7468
9.78212
3.44433
1.45993
4.37952
7.29644
10.2022
13.0771
15.882
18.5475
20.9572
22.9258
24.1726
24.3
22.8006
19.1419
12.9979
4.65065
1.60631
4.8256
8.06346
11.3269
14.6133
17.9023
21.1436
24.2354
26.9924
29.0977
30.0425
29.0793
25.2627
17.7435
6.5195
1.74803
5.25874
8.81266
12.4357
16.1475
19.9558
23.8433
27.746
31.5116
34.8285
37.1099
37.3395
33.9547
25.0619
9.6487
1.87957
5.66186
9.51384
13.4826
17.6148
21.954
26.5323
31.3515
36.3424
41.2781
45.6019
48.1093
46.4715
36.9081
15.4752
1.99503
6.01654
10.1339
14.4158
18.9382
23.7862
29.0539
34.8378
41.2112
48.1526
55.355
61.7575
64.492
56.9967
27.911
2.08862
6.30462
10.6396
15.182
20.0354
25.3267
31.217
37.9144
45.6854
54.8454
65.6634
77.9524
89.616
92.0783
58.9134
2.15528
6.51006
11.0012
15.7322
20.8285
26.4512
32.8193
40.2453
49.1948
60.3866
74.9498
94.5812
121.129
151.9
148.709
2.19122
6.62081
11.196
16.0286
21.2558
27.0578
33.6869
41.5181
51.1467
63.5862
80.7162
106.406
149.709
235.307
442.826
2.19441
6.6304
11.212
16.051
21.284
27.0901
33.7193
41.5426
51.1464
63.5279
80.5378
105.999
148.917
234.044
441.628
2.16483
6.53882
11.0493
15.7997
20.9139
26.5505
32.9225
40.3305
49.2167
60.2552
74.4901
93.4672
118.813
147.741
143.494
2.10445
6.3524
10.72
15.2955
20.1811
25.5002
31.4061
38.0915
45.7921
54.7623
65.1487
76.5126
86.2206
84.4741
41.7068
-17.7324
-14.4584
-12.0027
-10.1003
-8.56571
-7.28531
-6.18747
-5.22477
-4.36416
-3.58152
-2.85846
-2.18036
-1.53514
-0.912375
-0.302692
-6.65259
-9.22278
-9.11062
-8.3158
-7.37978
-6.45718
-5.58986
-4.78437
-4.03598
-3.3366
-2.6776
-2.05063
-1.44789
-0.862077
-0.286257
-3.02758
-5.84982
-6.69255
-6.62932
-6.18447
-5.5906
-4.94925
-4.30429
-3.67371
-3.06362
-2.47447
-1.90406
-1.34888
-0.804829
-0.267523
-1.64764
-3.85147
-4.90355
-5.2078
-5.09259
-4.75695
-4.31112
-3.81417
-3.29719
-2.77606
-2.25832
-1.7469
-1.24214
-0.742888
-0.247218
-1.02564
-2.65292
-3.63385
-4.07752
-4.15374
-3.99979
-3.70845
-3.33793
-2.92353
-2.48611
-2.03775
-1.5851
-1.13155
-0.678457
-0.226055
-0.69809
-1.9032
-2.7372
-3.2024
-3.37468
-3.338
-3.16072
-2.89215
-2.56582
-2.20375
-1.82014
-1.42393
-1.02062
-0.613544
-0.204688
-0.503217
-1.41118
-2.09664
-2.53066
-2.74071
-2.77383
-2.67637
-2.48647
-2.23289
-1.93634
-1.61128
-1.26766
-0.9123
-0.549864
-0.183678
-0.376725
-1.07365
-1.63069
-2.01442
-2.2296
-2.30032
-2.25618
-2.12497
-1.9298
-1.6887
-1.41528
-1.11955
-0.808886
-0.488782
-0.16348
-0.289481
-0.833267
-1.28508
-1.61523
-1.81878
-1.90654
-1.89645
-1.80788
-1.65857
-1.46351
-1.23475
-0.981789
-0.712023
-0.431307
-0.144431
-0.226664
-0.656745
-1.02394
-1.30393
-1.48836
-1.58069
-1.59121
-1.53295
-1.41911
-1.2617
-1.07103
-0.855691
-0.622758
-0.378106
-0.126761
-0.179988
-0.523891
-0.823337
-1.059
-1.22188
-1.31165
-1.33372
-1.29661
-1.20989
-1.08297
-0.924428
-0.741804
-0.541625
-0.32955
-0.1106
-0.144471
-0.421907
-0.667026
-0.864587
-1.00617
-1.08959
-1.11731
-1.0947
-1.02859
-0.926196
-0.79454
-0.640102
-0.468748
-0.285767
-0.095999
-0.116943
-0.342361
-0.543735
-0.709042
-0.83085
-0.906215
-0.935844
-0.922999
-0.872465
-0.789735
-0.680465
-0.550142
-0.403941
-0.246694