/*--------------------------------*- C++ -*----------------------------------*\
| =========                 |                                                 |
| \\      /  F ield         | OpenFOAM: The Open Source CFD Toolbox           |
|  \\    /   O peration     | Version:  5.x                                   |
|   \\  /    A nd           | Web:      www.OpenFOAM.org                      |
|    \\/     M anipulation  |                                                 |
\*---------------------------------------------------------------------------*/
FoamFile
{
    version     2.0;
    format      ascii;
    class       volScalarField;
    location    "14.6";
    object      gradTy;
}
// * * * * * * * * * * * * * * * * * * * * * * * * * * * * * * * * * * * * * //

dimensions      [0 -1 0 1 0 0 0];

internalField   nonuniform List<scalar> 
6300
(
1001.6
1004.94
1008.71
1013.16
1018.58
1025.21
1033.26
1042.95
1054.41
1067.77
1083.07
1100.28
1119.32
1140.02
1162.15
-0.211359
-0.631205
-1.04215
-1.4373
-1.80841
-2.14554
-2.43686
-2.66893
-2.82732
-2.89792
-2.86879
-2.73248
-2.48845
-2.14485
-1.71896
-0.355468
-1.06194
-1.75451
-2.42225
-3.05184
-3.62681
-4.12727
-4.53003
-4.80964
-4.94051
-4.90014
-4.67351
-4.25776
-3.66596
-2.92854
-0.50403
-1.50655
-2.49169
-3.44537
-4.34986
-5.18261
-5.91539
-6.51428
-6.94073
-7.15433
-7.11776
-6.80369
-6.2031
-5.33272
-4.23856
-0.658132
-1.96853
-3.2603
-4.51762
-5.71959
-6.83831
-7.83735
-8.67092
-9.28458
-9.61827
-9.61281
-9.22033
-8.41817
-7.22313
-5.70031
-0.818106
-2.44914
-4.06336
-5.64522
-7.17254
-8.61368
-9.92475
-11.0474
-11.9084
-12.4213
-12.4948
-12.0466
-11.0261
-9.44133
-7.38008
-0.983248
-2.94654
-4.89874
-6.8273
-8.71163
-10.5191
-12.2004
-13.6857
-14.88
-15.6638
-15.8985
-15.4451
-14.1982
-12.1359
-9.36915
-1.15158
-3.45502
-5.7577
-8.05358
-10.3276
-12.5504
-14.6722
-16.6146
-18.2621
-19.4551
-19.9902
-19.6369
-18.1856
-15.5347
-11.8044
-1.31963
-3.96424
-6.62344
-9.30171
-11.9946
-14.6827
-17.3233
-19.8384
-22.0986
-23.9043
-24.97
-24.9267
-23.3723
-20.0128
-14.9105
-1.4823
-4.45884
-7.47007
-10.5352
-13.6663
-16.8623
-20.0998
-23.317
-26.3894
-29.0932
-31.0586
-31.7273
-30.3641
-26.2336
-19.1
-1.63305
-4.91871
-8.26274
-11.7027
-15.2729
-19.0004
-22.8964
-26.9403
-31.0487
-35.0204
-38.4436
-40.5596
-40.1229
-35.4575
-25.2495
-1.76422
-5.32019
-8.95943
-12.7398
-16.7222
-20.9698
-25.5451
-30.4989
-35.8443
-41.4956
-47.1358
-51.9442
-54.1102
-50.2241
-35.6031
-1.86787
-5.63834
-9.51492
-13.5749
-17.906
-22.6114
-27.815
-33.6656
-40.3336
-47.9819
-56.6592
-65.9708
-74.1493
-75.7255
-57.2478
-1.93678
-5.85035
-9.88692
-14.1388
-18.7154
-23.7545
-29.4376
-36.0148
-43.8424
-53.4386
-65.5481
-81.1303
-100.79
-121.28
-117.488
-1.96566
-5.93933
-10.0436
-14.3777
-19.0623
-24.2534
-30.1658
-37.1132
-45.5824
-56.3815
-70.9637
-92.2117
-126.599
-191.117
-339.359
1183.49
1203.47
1223.85
1244.41
1264.96
1285.33
1305.34
1324.84
1343.72
1361.86
1379.18
1395.59
1411.05
1425.5
1438.91
1451.26
1462.52
1472.69
1481.75
1489.71
1496.56
1502.31
1506.97
1510.54
1513.04
1514.48
1514.87
1514.24
1512.59
1509.95
1506.33
1501.75
1496.23
1489.79
1482.44
1474.19
1465.07
1455.1
1444.28
1432.64
1420.19
1406.95
1392.94
1378.17
1362.66
1346.44
1329.52
1311.91
1293.63
1274.7
1255.12
1234.93
1214.12
1192.71
1170.71
1148.13
1125
1101.33
1077.14
1052.44
1027.26
1001.62
975.543
949.052
922.171
894.927
867.345
839.457
811.293
782.892
754.293
725.544
696.697
667.809
638.944
610.171
581.561
553.191
525.136
497.474
470.281
443.631
417.594
392.236
367.614
343.781
320.779
298.641
277.388
257.031
-1.27604
-0.852258
-0.424551
-0.008647
0.382489
0.739414
1.05638
1.33104
1.56382
1.75714
1.91472
2.04084
2.13991
2.21605
2.27294
2.31371
2.34094
2.35674
2.36284
2.36064
2.3513
2.33585
2.31516
2.29002
2.26115
2.22924
2.19491
2.15878
2.12142
2.08337
2.04513
2.0071
1.96957
1.93272
1.89656
1.86096
1.82567
1.79034
1.75465
1.71828
1.68109
1.64308
1.60447
1.56567
1.52721
1.48969
1.45367
1.41956
1.38754
1.35751
1.32906
1.30151
1.27399
1.24556
1.21531
1.18251
1.14671
1.10775
1.06574
1.02104
0.974076
0.92523
0.874666
0.82221
0.76726
0.708771
0.645306
0.575168
0.496575
0.407879
0.307781
0.195511
0.0709603
-0.0652696
-0.211888
-0.367004
-0.528267
-0.693018
-0.858437
-1.02166
-1.17983
-1.33014
-1.46978
-1.59596
-1.70589
-1.79686
-1.86641
-1.91253
-1.93393
-1.93024
-2.16055
-1.42683
-0.688886
0.0249721
0.691944
1.29602
1.82809
2.28523
2.66934
2.98567
3.24145
3.44467
3.60318
3.72422
3.81403
3.87783
3.91983
3.94342
3.95133
3.94577
3.9286
3.90143
3.86568
3.82262
3.77343
3.71922
3.66104
3.5999
3.53677
3.47258
3.4082
3.34433
3.28153
3.22009
3.16003
3.1011
3.0428
2.98448
2.92545
2.8651
2.80309
2.7394
2.67442
2.60888
2.54383
2.48041
2.41972
2.36259
2.3094
2.26
2.21367
2.16914
2.12478
2.07882
2.02956
1.97564
1.91623
1.85109
1.78054
1.70535
1.62649
1.54482
1.46083
1.37437
1.28446
1.18926
1.0862
0.972133
0.843767
0.698009
0.532399
0.345457
0.136912
-0.0921954
-0.339571
-0.60185
-0.874862
-1.15395
-1.43422
-1.71082
-1.97894
-2.23393
-2.47114
-2.6859
-2.87343
-3.02897
-3.14807
-3.22699
-3.26324
-3.25602
-3.09637
-2.00763
-0.918728
0.125909
1.09177
1.95607
2.70748
3.34434
3.87218
4.30113
4.64361
4.91255
5.12012
5.27705
5.39228
5.47301
5.5249
5.55236
5.55888
5.54728
5.51997
5.47905
5.42638
5.3637
5.29261
5.21459
5.13109
5.04353
4.95329
4.86174
4.77017
4.6797
4.59119
4.50512
4.42154
4.33999
4.25964
4.17933
4.09781
4.01399
3.92718
3.83727
3.74484
3.6511
3.5578
3.46692
3.38037
3.29964
3.22551
3.15781
3.0954
3.03624
2.97762
2.91656
2.85025
2.77643
2.69376
2.60197
2.50178
2.39473
2.28271
2.16753
2.05036
1.9313
1.80906
1.6809
1.54273
1.38952
1.21583
1.01656
0.787583
0.526361
0.232334
-0.092946
-0.44592
-0.821353
-1.21282
-1.61325
-2.01541
-2.41225
-2.79704
-3.16338
-3.5049
-3.81509
-4.08706
-4.3136
-4.48763
-4.60292
-4.65516
-4.64275
-4.10456
-2.58848
-1.0846
0.340518
1.63807
2.77894
3.75209
4.5607
5.21768
5.74134
6.15192
6.46905
6.71026
6.89018
7.02046
7.10999
7.16543
7.19174
7.19279
7.17172
7.13125
7.07385
7.0018
6.91721
6.82205
6.71815
6.60732
6.49133
6.37201
6.25125
6.13087
6.01257
5.89765
5.7869
5.68041
5.57749
5.47674
5.37623
5.27379
5.1675
5.05605
4.93909
4.81743
4.69299
4.56858
4.44748
4.33292
4.22749
4.13263
4.04828
3.97274
3.90283
3.83423
3.76215
3.682
3.59021
3.48469
3.36518
3.23316
3.09148
2.94371
2.79332
2.64282
2.493
2.3424
2.18714
2.02112
1.83656
1.62493
1.37807
1.08937
0.754672
0.372921
-0.0536609
-0.519774
-1.01762
-1.53773
-2.06994
-2.60414
-3.13089
-3.64161
-4.12843
-4.58366
-4.99922
-5.366
-5.67375
-5.91164
-6.06958
-6.14008
-6.12006
-5.20695
-3.15173
-1.13707
0.738863
2.41003
3.84341
5.03372
5.99553
6.75527
7.34451
7.79488
8.13498
8.38872
8.57489
8.70742
8.79618
8.84798
8.86761
8.85867
8.8242
8.76703
8.68989
8.59541
8.48609
8.36419
8.23185
8.09111
7.94406
7.79298
7.64034
7.48875
7.34071
7.19826
7.06272
6.9343
6.81203
6.69367
6.57604
6.45549
6.32862
6.19301
6.04786
5.89421
5.73501
5.57475
5.41878
5.27249
5.14029
5.02479
4.92621
4.84213
4.76768
4.69604
4.6195
4.5307
4.42389
4.29591
4.14656
3.97861
3.79715
3.60862
3.41941
3.23445
3.05596
2.88257
2.70902
2.52635
2.32271
2.08486
1.79996
1.4575
1.05087
0.578191
0.0426722
-0.547811
-1.18169
-1.84512
-2.52363
-3.20347
-3.8725
-4.52051
-5.13884
-5.71945
-6.25348
-6.72983
-7.1344
-7.45069
-7.66205
-7.75525
-7.72425
-6.42383
-3.65639
-0.98955
1.4323
3.5247
5.25826
6.64479
7.72175
8.53887
9.14813
9.59714
9.92577
10.165
10.3374
10.4579
10.5361
10.5774
10.5852
10.5619
10.5099
10.4321
10.3315
10.211
10.0737
9.922
9.75828
9.5846
9.40323
9.21681
9.02857
8.84218
8.66142
8.48958
8.3289
8.18001
8.04157
7.9102
7.78072
7.64694
7.50294
7.34437
7.16948
6.9796
6.7792
6.57535
6.37677
6.19239
6.02965
5.89318
5.78383
5.69826
5.62904
5.56546
5.49506
5.40585
5.28862
5.13841
4.95525
4.744
4.51351
4.275
4.03986
3.81725
3.61203
3.42342
3.24447
3.06216
2.85856
2.61296
2.3051
1.91845
1.44253
0.874313
0.218506
-0.51302
-1.30286
-2.13048
-2.97511
-3.81805
-4.64409
-5.44187
-6.20333
-6.92206
-7.59056
-8.19683
-8.72198
-9.14064
-9.42449
-9.54912
-9.50247
-7.76999
-4.01602
-0.489094
2.60029
5.15625
7.17303
8.70193
9.8225
10.6222
11.183
11.5732
11.8458
12.0382
12.1749
12.27
12.3297
12.3557
12.3481
12.3068
12.2335
12.1308
12.0022
11.8516
11.6825
11.4978
11.2997
11.0899
10.8703
10.644
10.4148
10.1882
9.96998
9.76555
9.57883
9.41135
9.26164
9.1247
8.99228
8.85383
8.69894
8.51994
8.31337
8.08086
7.82903
7.56905
7.31502
7.08179
6.88185
6.7232
6.60789
6.53149
6.48291
6.44534
6.39831
6.32198
6.20145
6.02896
5.80498
5.53768
5.24201
4.93707
4.64284
4.37554
4.14469
3.95089
3.78526
3.62913
3.45535
3.23116
2.92416
2.50837
1.96751
1.29698
0.503784
-0.393856
-1.36924
-2.39095
-3.42866
-4.4566
-5.45602
-6.41517
-7.32903
-8.19669
-9.01695
-9.78034
-10.4626
-11.0245
-11.416
-11.5894
-11.5202
-9.24035
-4.04867
0.64141
4.53631
7.56398
9.79006
11.3468
12.3851
13.0496
13.4632
13.7187
13.8811
13.9914
14.0725
14.1329
14.1718
14.1826
14.1592
14.098
13.9995
13.8667
13.7046
13.5188
13.3138
13.0931
12.858
12.6091
12.3474
12.0751
11.7975
11.5222
11.2588
11.0161
10.8011
10.6172
10.4634
10.3328
10.2126
10.0845
9.92976
9.7353
9.49471
9.21004
8.8907
8.55428
8.22341
7.92338
7.67469
7.49095
7.37602
7.32476
7.32106
7.33895
7.34386
7.30187
7.18919
6.99376
6.7172
6.37231
5.98394
5.58382
5.20712
4.88147
4.62413
4.4379
4.31249
4.22165
4.12481
3.96869
3.69999
3.27847
2.67933
1.89638
0.93956
-0.162633
-1.36879
-2.62827
-3.89612
-5.13606
-6.32579
-7.45354
-8.52108
-9.53939
-10.5251
-11.4805
-12.3764
-13.1536
-13.7212
-13.9789
-13.8752
-10.7641
-3.35921
2.91669
7.72074
11.1253
13.3699
14.7373
15.4846
15.8371
15.9701
15.9972
15.9905
15.9855
15.9987
16.0257
16.0531
16.0574
16.0235
15.9419
15.8135
15.6433
15.4401
15.2121
14.9667
14.7077
14.4349
14.1457
13.8382
13.5127
13.1757
12.8378
12.5164
12.2254
11.9775
11.7785
11.6304
11.5247
11.4432
11.3522
11.2166
11.0159
10.7383
10.388
9.9758
9.53041
9.08625
8.68997
8.37291
8.15858
8.05142
8.04855
8.12712
8.25027
8.35597
8.38259
8.29513
8.07446
7.72686
7.26865
6.74191
6.19598
5.69707
5.28821
5.00036
4.83657
4.7892
4.82207
4.87895
4.86767
4.69523
4.30368
3.65522
2.74555
1.5841
0.217758
-1.29203
-2.85401
-4.40415
-5.8882
-7.2851
-8.57886
-9.78423
-10.9292
-12.0769
-13.2664
-14.4613
-15.5843
-16.4725
-16.8889
-16.7234
-12.0386
-1.04465
7.31083
12.9201
16.3564
18.212
19.0194
19.1512
18.9393
18.6279
18.3227
18.0958
17.9516
17.9037
17.9162
17.966
17.9857
17.9548
17.8513
17.6861
17.4658
17.2094
16.9289
16.6372
16.3403
16.0336
15.7066
15.3532
14.9652
14.5532
14.1278
13.7285
13.3707
13.082
12.8644
12.7349
12.6797
12.6858
12.6824
12.5955
12.4054
12.0851
11.6534
11.107
10.5031
9.87855
9.3409
8.9216
8.67035
8.5751
8.65356
8.86749
9.18527
9.4805
9.62616
9.59148
9.33657
8.89446
8.26233
7.52619
6.73916
6.05611
5.51949
5.19675
5.06644
5.14921
5.38685
5.73018
5.99766
6.00496
5.69788
5.00632
3.95638
2.52281
0.803905
-1.1409
-3.09751
-5.00798
-6.76647
-8.39344
-9.83194
-11.1347
-12.3157
-13.5686
-15.0448
-16.65
-18.3533
-19.9034
-20.6366
-20.3323
-11.8503
5.06868
15.6587
21.2483
23.8641
24.5643
24.2756
23.3136
22.1857
21.2777
20.5366
20.0831
19.78
19.7229
19.7541
19.9235
19.9881
19.992
19.8506
19.6393
19.3418
19.0148
18.663
18.3165
17.9888
17.6627
17.3073
16.9194
16.4539
15.9515
15.3816
14.8825
14.4179
14.0857
13.825
13.7337
13.7483
13.9437
14.1343
14.1246
13.9839
13.5939
13.0853
12.3228
11.507
10.5472
9.82293
9.22979
8.95896
8.8501
9.06488
9.45973
10.1541
10.8218
11.1307
11.2063
10.8695
10.337
9.4071
8.38502
7.13389
6.2055
5.44402
5.11719
4.99062
5.28732
5.80047
6.69162
7.50332
7.76837
7.64668
6.87441
5.7206
3.87336
1.71627
-0.971828
-3.40656
-5.8298
-7.83327
-9.77241
-11.2797
-12.6598
-13.5979
-14.7381
-16.6367
-18.6969
-21.3424
-24.51
-25.8779
-25.185
-4.93066
20.296
31.2066
33.8578
34.1295
32.3397
30.5008
27.7144
25.1152
23.6869
22.3358
21.8535
21.254
21.4145
21.3925
22.0317
22.0775
22.238
21.9504
21.7164
21.2598
20.8557
20.3894
19.9681
19.6349
19.3337
18.9546
18.5971
17.9952
17.4469
16.5335
15.9862
15.2745
14.9862
14.5415
14.5798
14.5561
15.2084
15.8743
15.8424
15.9212
15.2733
14.8826
13.6151
12.7183
10.8766
10.116
9.07372
9.01426
8.65895
9.2168
9.62055
11.1613
12.6794
12.9713
13.4147
12.6844
12.3516
10.6845
9.57361
7.06377
6.1145
4.74256
4.74925
4.30521
5.1137
5.6697
7.76744
9.79606
10.0886
10.5322
9.29187
8.48329
5.67007
3.39327
-1.16759
-3.73208
-7.25602
-8.99258
-11.773
-12.9106
-14.8211
-14.589
-14.815
-17.996
-19.9006
-23.5792
-31.708
-34.0865
-32.181
34.1506
56.1388
58.6481
49.8936
47.3626
40.185
38.0895
31.8447
26.3576
25.9841
22.8829
23.7919
21.6325
23.368
22.0777
24.9933
24.0006
25.1281
23.972
24.113
23.1009
22.7851
22.05
21.4918
21.2337
21.1157
20.5698
20.6255
19.4585
19.4668
17.157
17.3259
15.5202
16.1111
14.5612
15.5143
14.3896
16.4523
18.6182
17.3995
18.904
16.5813
17.9416
14.3726
15.2892
9.64829
10.8137
7.50152
9.49471
7.15198
9.58981
8.14331
12.2001
16.3021
14.5929
17.3124
13.9258
16.2869
11.1601
12.776
4.74569
6.63146
2.05517
5.02971
1.81552
5.30304
3.31819
8.94218
14.5881
12.1908
15.842
11.087
14.1321
6.69377
8.35883
-4.23856
-2.67639
-11.2564
-8.64896
-16.1397
-13.4288
-20.0679
-14.9204
-10.637
-21.1933
-18.5495
-19.4077
-47.1863
-48.464
-42.9858
240.076
120.029
102.309
56.9673
67.2863
40.7121
51.6529
34.8841
20.2366
32.2092
17.6557
30.1489
16.4026
29.6789
16.7069
33.5832
22.871
31.3068
24.1261
28.1702
23.9398
25.3185
23.4563
22.5839
22.6312
23.5142
21.3193
24.4151
19.2298
24.8253
14.2116
21.5095
12.3152
20.3192
10.9773
19.4412
9.63378
17.5481
26.2364
15.0358
27.3986
12.5864
28.0992
8.67137
27.3035
-1.38049
17.9599
-1.70983
16.2195
-1.23838
15.5568
-1.25802
13.1741
28.2935
9.83764
30.0031
6.89133
31.005
1.92699
29.8691
-11.8509
16.4543
-11.5049
14.2224
-10.3241
13.373
-9.98958
10.0857
30.9626
5.58334
33.2572
1.64999
34.8776
-5.3911
33.8627
-27.6988
12.9845
-31.3662
6.23642
-35.196
-0.482421
-42.2871
-14.0068
14.9104
-43.3982
-12.1553
23.5297
-100.825
-72.5692
-61.0526
235.622
213.533
192.666
172.959
154.333
136.699
119.963
104.023
88.7807
74.135
59.9884
46.2453
32.8128
19.6002
6.51887
-1.89929
-1.83302
-1.73885
-1.62247
-1.48989
-1.34675
-1.19792
-1.04725
-0.89751
-0.750455
-0.606982
-0.467284
-0.33102
-0.197462
-0.0656241
-3.20153
-3.08595
-2.92271
-2.72212
-2.49487
-2.25091
-1.9986
-1.74441
-1.49288
-1.24679
-1.00745
-0.774998
-0.548699
-0.327194
-0.10872
-4.55987
-4.38653
-4.14392
-3.84839
-3.51656
-3.1634
-2.80113
-2.43889
-2.08279
-1.73636
-1.40102
-1.07655
-0.761575
-0.453893
-0.150779
-6.00106
-5.75633
-5.41798
-5.01092
-4.55954
-4.08495
-3.60361
-3.12718
-2.66301
-2.21484
-1.7837
-1.3686
-0.967149
-0.576016
-0.191283
-7.55708
-7.21968
-6.76069
-6.21771
-5.6257
-5.0132
-4.40113
-3.8032
-3.22718
-2.67625
-2.15031
-1.64698
-1.16239
-0.691732
-0.229617
-9.268
-8.8045
-8.1873
-7.47344
-6.71226
-5.94097
-5.18445
-4.45727
-3.76622
-3.11265
-2.49429
-1.90661
-1.3437
-0.79889
-0.265069
-11.1864
-10.5429
-9.71043
-8.77636
-7.80885
-6.85388
-5.93836
-5.07515
-4.26775
-3.5138
-2.80756
-2.14143
-1.5069
-0.89505
-0.296835
-13.3842
-12.4699
-11.335
-10.1126
-8.89279
-7.72725
-6.63987
-5.63717
-4.71577
-3.86721
-3.08069
-2.34463
-1.64739
-0.977566
-0.324052
-15.9603
-14.6175
-13.0471
-11.446
-9.92235
-8.52236
-7.25662
-6.11781
-5.09091
-4.15852
-3.30332
-2.50898
-1.76044
-1.04376
-0.345856
-19.0469
-16.9925
-14.7897
-12.7019
-10.8281
-9.18309
-7.74635
-6.48645
-5.37147
-4.37261
-3.46504
-2.62749
-1.84161
-1.09118
-0.361458
-22.7853
-19.5157
-16.4172
-13.7436
-11.505
-9.63545
-8.05913
-6.71011
-5.53583
-4.49535
-3.55668
-2.69431
-1.88731
-1.11788
-0.370246
-27.1752
-21.8674
-17.6195
-14.3503
-11.8126
-9.79447
-8.14452
-6.75895
-5.56631
-4.51624
-3.57199
-2.70573
-1.89541
-1.12277
-0.371885
-31.4118
-23.159
-17.8428
-14.2252
-11.6004
-9.58521
-7.96544
-6.61477
-5.45416
-4.43123
-3.50927
-2.66117
-1.86581
-1.10589
-0.366406
-31.2745
-21.5139
-16.3673
-13.1072
-10.7785
-8.98042
-7.51717
-6.28044
-5.20427
-4.2452
-3.37265
-2.56382
-1.80076
-1.06857
-0.354243
-1.95656
-5.91123
-9.99404
-14.3026
-18.9553
-24.1058
-29.966
-36.8465
-45.2318
-55.9341
-70.4343
-91.7263
-126.641
-192.907
-342.156
-1.91645
-5.78753
-9.77607
-13.9705
-18.4764
-23.4273
-29.0015
-35.4481
-43.1306
-52.5958
-64.6752
-80.5497
-101.268
-123.702
-116.29
-1.84981
-5.58224
-9.41506
-13.4221
-17.6884
-22.3159
-27.4309
-33.1915
-39.7911
-47.442
-56.2801
-66.0085
-74.7025
-75.2248
-46.7901
-1.76039
-5.30719
-8.93299
-12.6936
-16.6494
-20.8658
-25.4118
-30.3519
-35.7215
-41.4634
-47.2666
-52.1852
-53.8107
-46.8556
-22.5299
-1.6529
-4.97726
-8.35724
-11.8296
-15.4294
-19.1868
-23.119
-27.2137
-31.3931
-35.442
-38.8674
-40.6489
-38.8775
-30.5489
-12.6683
-1.53252
-4.60866
-7.7173
-10.8769
-14.0998
-17.3861
-20.7133
-24.0167
-27.1551
-29.8531
-31.6095
-31.5797
-28.4979
-20.8753
-7.98449
-1.4044
-4.21747
-7.04192
-9.88029
-12.7261
-15.5571
-18.3241
-20.934
-23.2228
-24.9179
-25.5917
-24.6295
-21.2716
-14.8598
-5.43827
-1.27332
-3.81834
-6.35682
-8.87842
-11.3627
-13.7723
-16.0439
-18.0743
-19.7029
-20.6918
-20.7098
-19.3428
-16.1659
-10.9345
-3.90241
-1.14336
-3.42374
-5.6834
-7.90242
-10.0509
-12.0834
-13.9311
-15.4934
-16.6272
-17.1397
-16.7899
-15.3127
-12.4869
-8.25945
-2.90319
-1.01778
-3.04352
-5.03816
-6.97534
-8.81976
-10.5226
-12.0165
-13.2099
-13.9828
-14.1866
-13.6526
-12.219
-9.78131
-6.36829
-2.21653
-0.899014
-2.68487
-4.43279
-6.11264
-7.68682
-9.10694
-10.3105
-11.2184
-11.7337
-11.7456
-11.1401
-9.82255
-7.75295
-4.99011
-1.72521
-0.788695
-2.35256
-3.87466
-5.32328
-6.6608
-7.84154
-8.80985
-9.49934
-9.83405
-9.73333
-9.12213
-7.94827
-6.20597
-3.96055
-1.36271
-0.687766
-2.04922
-3.36755
-4.61103
-5.74362
-6.72361
-7.50275
-8.02661
-8.23672
-8.07548
-7.4948
-6.46869
-5.00833
-3.17571
-1.08881
-0.596608
-1.77582
-2.91238
-3.97575
-4.93239
-5.74511
-6.37287
-6.77172
-6.89722
-6.70885
-6.17676
-5.29063
-4.06918
-2.56744
-0.877908
-0.51517
-1.53203
-2.50804
-3.41455
-4.22109
-4.89502
-5.4019
-5.70661
-5.77565
-5.58087
-5.10453
-4.34541
-3.32465
-2.08956
-0.713027
-0.443087
-1.31661
-2.15193
-2.92276
-3.60184
-4.16091
-4.5713
-4.80512
-4.83726
-4.64838
-4.22865
-3.58184
-2.72894
-1.7099
-0.58253
-0.379785
-1.12771
-1.84059
-2.49468
-3.0659
-3.53001
-3.8633
-4.04365
-4.05231
-3.87616
-3.51042
-2.96139
-2.24857
-1.40547
-0.478199
-0.324565
-0.963147
-1.57006
-2.12414
-2.60432
-2.98995
-3.26148
-3.40139
-3.39569
-3.23559
-2.91947
-2.45465
-1.85868
-1.15947
-0.394094
-0.27667
-0.820571
-1.3362
-1.8049
-2.20837
-2.52912
-2.75103
-2.86023
-2.84626
-2.70335
-2.43175
-2.03898
-1.54045
-0.959421
-0.325827
-0.235326
-0.697622
-1.13494
-1.53094
-1.86987
-2.13691
-2.31882
-2.40459
-2.38637
-2.26044
-2.02817
-1.69673
-1.27952
-0.795866
-0.270099
-0.199783
-0.592015
-0.962358
-1.29662
-1.58126
-1.80382
-1.95337
-2.02115
-2.00126
-1.89138
-1.69343
-1.41404
-1.06472
-0.661549
-0.22439
-0.169332
-0.501605
-0.814828
-1.09674
-1.33577
-1.52141
-1.64469
-1.69858
-1.67863
-1.58347
-1.41524
-1.17991
-0.887312
-0.550831
-0.186751
-0.14332
-0.424422
-0.68904
-0.926627
-1.12733
-1.28232
-1.38417
-1.42727
-1.40823
-1.32629
-1.18364
-0.985541
-0.740371
-0.459276
-0.155652
-0.121152
-0.358683
-0.582019
-0.782126
-0.950631
-1.08012
-1.16445
-1.19911
-1.1815
-1.11128
-0.990521
-0.823857
-0.618373
-0.383365
-0.129884
-0.102299
-0.302799
-0.491126
-0.659568
-0.801023
-0.909266
-0.979221
-1.00723
-0.991301
-0.931341
-0.829281
-0.689127
-0.516874
-0.320278
-0.108482
-0.08629
-0.255366
-0.41404
-0.555745
-0.674473
-0.764999
-0.823116
-0.845853
-0.831674
-0.780638
-0.694491
-0.576684
-0.432277
-0.267746
-0.0906694
-0.0727141
-0.215155
-0.348735
-0.467877
-0.567503
-0.643233
-0.691575
-0.710108
-0.697638
-0.654312
-0.581684
-0.482708
-0.361652
-0.223924
-0.0758158
-0.0612121
-0.181097
-0.293454
-0.393558
-0.477125
-0.540482
-0.58073
-0.59589
-0.585025
-0.54833
-0.48717
-0.404064
-0.302603
-0.187308
-0.063409
-0.051473
-0.152266
-0.24668
-0.33072
-0.400778
-0.453776
-0.487304
-0.49974
-0.490347
-0.459336
-0.407894
-0.338162
-0.253161
-0.156665
-0.053029
-0.0432283
-0.127865
-0.207109
-0.277591
-0.336276
-0.380588
-0.408522
-0.418747
-0.410678
-0.384526
-0.341316
-0.282862
-0.211699
-0.13098
-0.0443304
-0.0362473
-0.107207
-0.173621
-0.232652
-0.281753
-0.31877
-0.342036
-0.350456
-0.343563
-0.32156
-0.285323
-0.236385
-0.176872
-0.109414
-0.0370279
-0.0303322
-0.0897058
-0.145258
-0.194608
-0.235621
-0.266499
-0.285859
-0.292796
-0.28694
-0.268475
-0.23815
-0.197252
-0.14756
-0.0912686
-0.030885
-0.0253131
-0.0748578
-0.121201
-0.162351
-0.196526
-0.222226
-0.238305
-0.24402
-0.239071
-0.223625
-0.198316
-0.164224
-0.122832
-0.0759645
-0.0257045
-0.0210449
-0.0622326
-0.10075
-0.134938
-0.163314
-0.184633
-0.197948
-0.202647
-0.19849
-0.185624
-0.164581
-0.136264
-0.101904
-0.0630159
-0.021322
-0.0174031
-0.0514611
-0.0833054
-0.111561
-0.135001
-0.152599
-0.163572
-0.167422
-0.163956
-0.153299
-0.135898
-0.112499
-0.0841219
-0.0520152
-0.0175991
-0.0142806
-0.0422266
-0.0683521
-0.0915272
-0.110745
-0.125163
-0.134143
-0.137278
-0.134414
-0.125658
-0.111378
-0.0921896
-0.0689289
-0.0426181
-0.0144191
-0.0115854
-0.034256
-0.0554472
-0.0742412
-0.0898204
-0.101503
-0.108772
-0.111299
-0.108963
-0.101852
-0.0902668
-0.0747079
-0.0558537
-0.0345319
-0.011683
-0.00923736
-0.0273127
-0.0442068
-0.0591871
-0.0716017
-0.0809071
-0.0866924
-0.0886975
-0.0868262
-0.0811516
-0.0719146
-0.0595143
-0.0444917
-0.0275061
-0.00930575
-0.00716659
-0.0211896
-0.0342951
-0.0459145
-0.0555417
-0.0627555
-0.0672376
-0.0687871
-0.0673304
-0.062925
-0.0557586
-0.0461413
-0.0344926
-0.0213236
-0.00721401
-0.00531118
-0.0157035
-0.0254153
-0.0340249
-0.0411574
-0.0465006
-0.049819
-0.0509641
-0.0498818
-0.0466155
-0.0413044
-0.0341787
-0.0255492
-0.0157943
-0.00534332
-0.0036155
-0.0106898
-0.0173007
-0.023161
-0.0280154
-0.0316516
-0.0339092
-0.0346875
-0.0339497
-0.0317257
-0.0281102
-0.0232601
-0.017387
-0.0107484
-0.00363622
-0.00202861
-0.00599792
-0.00970723
-0.0129955
-0.0157193
-0.0177597
-0.0190266
-0.0194634
-0.0190497
-0.0178018
-0.0157733
-0.0130518
-0.00975633
-0.00603124
-0.00204039
-0.000502747
-0.00148654
-0.00240614
-0.00322173
-0.00389783
-0.00440484
-0.00472032
-0.00483004
-0.00472868
-0.00442011
-0.00391738
-0.00324217
-0.00242394
-0.00149862
-0.000507018
0.00100805
0.00298026
0.00482271
0.00645513
0.00780626
0.00881703
0.00944308
0.00965677
0.00944842
0.00882678
0.00781874
0.00646818
0.00483408
0.00298797
0.00101078
0.0025493
0.00753713
0.0121974
0.0163273
0.0197466
0.022306
0.0238928
0.0244366
0.0239124
0.0223419
0.0197927
0.0163754
0.0122393
0.00756557
0.00255936
0.00416746
0.0123214
0.0199403
0.0266927
0.0322841
0.0364702
0.0390665
0.0399579
0.0391029
0.0365366
0.0323692
0.0267816
0.0200177
0.012374
0.00418606
0.00591125
0.0174773
0.0282848
0.037864
0.0457975
0.051738
0.0554241
0.0566916
0.0554815
0.0518429
0.0459317
0.0380045
0.0284071
0.0175603
0.00594061
0.00783309
0.0231597
0.0374821
0.0501781
0.0606944
0.068571
0.0734608
0.0751456
0.0735462
0.068727
0.0608941
0.0503868
0.0376639
0.0232831
0.00787675
0.00999068
0.0295395
0.0478087
0.0640053
0.0774241
0.0874777
0.0937227
0.0958797
0.0938463
0.0877035
0.0777131
0.0643075
0.0480718
0.0297181
0.0100539
0.0124486
0.0368075
0.0595742
0.0797613
0.0964902
0.109029
0.116823
0.119523
0.117
0.109351
0.0969032
0.0801932
0.0599503
0.0370628
0.0125389
0.0152803
0.0451811
0.0731306
0.0979182
0.118466
0.133873
0.14346
0.146793
0.143711
0.134332
0.119052
0.0985316
0.0736648
0.0455437
0.0154085
0.0185699
0.0549096
0.0888824
0.119019
0.14401
0.16276
0.174439
0.178517
0.174794
0.163409
0.14484
0.119888
0.0896388
0.055423
0.0187515
0.0224149
0.0662814
0.107297
0.143692
0.173886
0.196556
0.210695
0.215658
0.211197
0.197474
0.175061
0.144921
0.108367
0.0670073
0.0226717
0.0269287
0.0796323
0.128921
0.172672
0.208987
0.236275
0.253321
0.259342
0.25403
0.237571
0.210646
0.174407
0.130432
0.0806578
0.0272915
0.0322437
0.0953543
0.154389
0.206813
0.250354
0.283105
0.303601
0.310895
0.304603
0.284936
0.252697
0.209263
0.156523
0.0968025
0.0327559
0.0385144
0.113906
0.184448
0.247121
0.299214
0.338443
0.363048
0.37188
0.364463
0.341028
0.302522
0.250581
0.187461
0.115951
0.0392378
0.0459221
0.135824
0.219971
0.294774
0.357005
0.403934
0.433446
0.444147
0.435443
0.407583
0.361676
0.299659
0.224225
0.138711
0.0469434
0.0546786
0.161737
0.261982
0.351156
0.425421
0.481517
0.516903
0.529888
0.519723
0.486669
0.432015
0.358052
0.267987
0.165813
0.0561204
0.0650315
0.192379
0.311679
0.417889
0.506452
0.573478
0.615914
0.631701
0.619894
0.580751
0.515761
0.427624
0.320157
0.198134
0.0670671
0.0772696
0.22861
0.370463
0.496874
0.602437
0.682511
0.733427
0.752671
0.739046
0.692778
0.615578
0.510618
0.382432
0.236734
0.0801435
0.0917287
0.271427
0.43997
0.590334
0.716118
0.811789
0.872929
0.896463
0.88086
0.826282
0.734669
0.609736
0.456867
0.282897
0.0957863
0.108798
0.321988
0.522097
0.700861
0.850706
0.965041
1.03854
1.06743
1.04974
0.985498
0.876893
0.72825
0.545954
0.338183
0.114527
0.128926
0.381632
0.619044
0.831464
1.00995
1.14664
1.23512
1.27073
1.25092
1.17552
1.04691
0.870131
0.652726
0.404498
0.137015
0.152628
0.451893
0.733344
0.985627
1.19821
1.36172
1.46841
1.51252
1.49071
1.40248
1.25038
1.04022
0.780899
0.484181
0.164051
0.180488
0.534523
0.867893
1.16736
1.42052
1.61626
1.74515
1.80006
1.77662
1.67378
1.49418
1.24442
0.935041
0.580118
0.19662
0.213167
0.6315
1.02598
1.38123
1.68272
1.91719
2.07326
2.14201
2.11767
1.99836
1.78667
1.49003
1.1208
0.695897
0.235953
0.251401
0.745037
1.21131
1.63244
1.99143
2.27257
2.462
2.54857
2.52465
2.3871
2.13815
1.78604
1.34522
0.836002
0.283593
0.295998
0.877572
1.42797
1.92678
2.3542
2.6916
2.92217
3.03185
3.01051
2.85317
2.56126
2.14365
1.61711
1.0061
0.341491
0.347831
1.03175
1.68046
2.27068
2.77947
3.18481
3.46625
3.6061
3.59081
3.41267
3.07164
2.57688
1.94767
1.21341
0.412146
0.407817
1.21036
1.97357
2.6711
3.27657
3.76403
4.10865
4.28807
4.28416
4.08527
3.68877
3.10345
2.35116
1.46723
0.498793
0.476892
1.41628
2.31228
3.13542
3.85562
4.44241
4.86574
5.09733
5.11289
4.89507
4.43701
3.74593
2.84607
1.77973
0.605679
0.555963
1.65231
2.70158
3.67122
4.52727
5.23428
5.75594
6.05656
6.10365
5.87168
5.34703
4.53339
3.45656
2.16701
0.738469
0.645847
1.92104
3.14614
4.28588
5.30239
6.15482
6.79961
7.19183
7.28815
7.05149
6.4577
5.50359
4.21475
2.6508
0.904863
0.747184
2.22454
3.64998
4.98608
6.19142
7.21953
8.01861
8.53255
8.70384
8.47925
7.81856
6.7062
5.16396
3.26096
1.11555
0.860333
2.56407
4.21582
5.77705
7.20349
8.44324
9.43559
10.1111
10.3944
10.2098
9.49302
8.2073
6.36366
4.03943
1.38573
0.985235
2.93967
4.84451
6.6616
8.34515
9.83869
11.0725
11.9621
12.4097
12.3099
11.5625
10.0958
7.89708
5.04666
1.73769
1.12126
3.34971
5.53409
7.63883
9.6187
11.4145
12.9483
14.12
14.8052
14.8595
14.1315
12.4925
9.88304
6.3723
2.20521
1.26706
3.79032
6.27894
8.70271
11.02
13.172
15.0755
16.6155
17.6388
17.9522
17.3332
15.5631
12.4948
8.15372
2.8417
1.42039
4.25497
7.06879
9.84046
12.5361
15.1021
17.4551
19.4699
20.9652
21.6923
21.334
19.5353
15.9903
10.6093
3.73607
1.57802
4.73401
7.88785
11.0309
14.1422
17.18
20.0694
22.6848
24.8251
26.1859
26.3349
24.72
20.7608
14.1012
5.0463
1.73567
5.21452
8.71434
12.2433
15.7992
19.3608
22.874
26.2293
29.2263
31.5209
32.5608
31.5325
27.4065
19.2565
7.07711
1.88808
5.68043
9.52051
13.437
17.4522
21.5751
25.788
30.0227
34.1149
37.7272
40.2226
40.4961
36.8464
27.2097
10.4793
2.02925
6.11315
10.2735
14.5621
19.0304
23.7267
28.6869
33.9147
39.3367
44.7087
49.4273
52.1838
50.4439
40.0889
16.8176
2.15278
6.49272
10.9375
15.5622
20.4502
25.6948
31.3997
37.6717
44.5931
52.1438
59.9941
66.9937
70.0235
61.9375
30.353
2.2524
6.79949
11.4763
16.3795
21.6221
27.343
33.7187
40.9775
49.4123
59.3706
71.1515
84.5598
97.3221
100.104
64.1115
2.32266
7.0161
11.8579
16.9609
22.4618
28.5365
35.4241
43.4665
53.1731
65.3313
81.1782
102.574
131.551
165.197
161.919
2.35948
7.12965
12.058
17.266
22.903
29.1652
36.3275
44.7996
55.2312
68.73
87.3509
115.323
162.536
255.93
482.335
2.36074
7.13333
12.0638
17.2731
22.9099
29.1686
36.3212
44.7716
55.1589
68.5714
87.0292
114.708
161.45
254.293
480.838
2.32648
7.02735
11.8757
16.9834
22.4847
28.551
35.4135
43.3982
52.9856
64.9084
80.3031
100.855
128.349
159.807
155.443
2.25895
6.81887
11.5076
16.4203
21.6669
27.3805
33.7262
40.9117
49.1902
58.8341
69.995
82.1809
92.4943
90.1954
42.9099
-19.826
-16.1623
-13.4151
-11.2875
-9.57163
-8.14028
-6.91321
-5.83734
-4.87567
-4.00119
-3.19333
-2.43576
-1.71495
-1.01923
-0.338142
-7.43754
-10.3094
-10.1828
-9.29349
-8.24672
-7.21524
-6.24576
-5.34552
-4.50919
-3.72772
-2.9914
-2.29092
-1.61754
-0.963076
-0.319793
-3.38452
-6.53879
-7.48007
-7.40878
-6.91112
-6.24709
-5.53015
-4.80928
-4.10459
-3.42284
-2.76456
-2.12725
-1.50698
-0.899151
-0.298874
-1.84174
-4.30489
-5.48044
-5.8201
-5.69099
-5.31564
-4.81722
-4.26177
-3.684
-3.10165
-2.52314
-1.95172
-1.38776
-0.829975
-0.276198
-1.14639
-2.96511
-4.06126
-4.55689
-4.64183
-4.46959
-4.14386
-3.72972
-3.26658
-2.77777
-2.27676
-1.771
-1.26423
-0.75801
-0.252561
-0.78023
-2.12708
-3.05908
-3.57884
-3.77122
-3.73009
-3.53187
-3.23166
-2.86694
-2.46233
-2.03367
-1.59095
-1.14033
-0.685502
-0.228693
-0.562405
-1.57713
-2.34315
-2.8281
-3.06275
-3.09966
-2.99066
-2.77838
-2.49498
-2.16357
-1.80034
-1.41639
-1.01932
-0.614365
-0.205224
-0.421022
-1.19988
-1.82238
-2.25116
-2.49156
-2.57052
-2.52114
-2.37447
-2.15633
-1.8869
-1.58136
-1.25091
-0.903792
-0.546128
-0.182659
-0.323512
-0.931215
-1.43611
-1.80503
-2.03246
-2.13049
-2.11917
-2.02016
-1.85329
-1.6353
-1.37967
-1.09701
-0.795576
-0.481917
-0.161378
-0.253305
-0.733932
-1.14427
-1.45715
-1.66322
-1.76636
-1.77809
-1.71296
-1.58572
-1.40981
-1.19675
-0.956122
-0.695845
-0.422479
-0.141636
-0.20114
-0.585456
-0.920083
-1.18342
-1.36543
-1.46571
-1.49036
-1.44887
-1.35195
-1.21011
-1.03295
-0.828877
-0.605197
-0.368229
-0.12358
-0.161447
-0.471482
-0.745398
-0.966163
-1.12437
-1.21758
-1.24853
-1.22326
-1.14936
-1.03494
-0.887818
-0.715244
-0.523772
-0.31931
-0.107267
-0.130683
-0.382587
-0.607618
-0.79234
-0.92845
-1.01266
-1.04576
-1.03139
-0.974914
-0.882463
-0.760357
-0.614729
-0.451361
-0.275654
-0.0926833
-0.10649
-0.31235
-0.497824