/*--------------------------------*- C++ -*----------------------------------*\
| =========                 |                                                 |
| \\      /  F ield         | OpenFOAM: The Open Source CFD Toolbox           |
|  \\    /   O peration     | Version:  5.x                                   |
|   \\  /    A nd           | Web:      www.OpenFOAM.org                      |
|    \\/     M anipulation  |                                                 |
\*---------------------------------------------------------------------------*/
FoamFile
{
    version     2.0;
    format      ascii;
    class       volScalarField;
    location    "5.2";
    object      T;
}
// * * * * * * * * * * * * * * * * * * * * * * * * * * * * * * * * * * * * * //

dimensions      [0 0 0 1 0 0 0];

internalField   nonuniform List<scalar> 
6300
(
10.7544
12.267
13.7912
15.3344
16.9035
18.5049
20.144
21.825
23.5506
25.3217
27.1371
28.9932
30.884
32.801
34.7337
10.7505
12.2554
13.7722
15.3083
16.8711
18.467
20.1019
21.7801
23.5048
25.2771
27.0961
28.9581
30.8573
32.7848
34.7297
10.7426
12.232
13.7336
15.2555
16.8053
18.3901
20.0161
21.6886
23.4111
25.1856
27.0115
28.8856
30.8018
32.7508
34.7206
10.7306
12.1962
13.6747
15.1747
16.7045
18.2718
19.8838
21.5467
23.2652
25.0423
26.8784
28.7707
30.713
32.6955
34.7044
10.7142
12.1473
13.5943
15.0641
16.5659
18.1086
19.7003
21.3489
23.0605
24.8398
26.6886
28.6053
30.5838
32.6131
34.6775
10.6933
12.0847
13.4908
14.9214
16.3865
17.896
19.4599
21.0877
22.7878
24.5674
26.4307
28.3777
30.4033
32.4954
34.6348
10.6674
12.0073
13.3627
14.7441
16.1624
17.629
19.1555
20.7538
22.4355
24.2111
26.0885
28.0713
30.156
32.3298
34.5693
10.6364
11.9144
13.2085
14.5297
15.89
17.3019
18.7791
20.3363
21.989
23.7526
25.6407
27.6625
29.8191
32.0981
34.4705
10.6
11.8054
13.027
14.2763
15.5658
16.9093
18.3225
19.8232
21.4315
23.1693
25.0587
27.1188
29.3594
31.7725
34.3231
10.5583
11.6801
12.8178
13.9827
15.1875
16.4468
17.7781
19.2022
20.7442
22.434
24.3057
26.3941
28.7267
31.3091
34.1029
10.5114
11.539
12.5812
13.649
14.7544
15.9123
17.1408
18.463
19.9088
21.5167
23.3359
25.4247
27.8439
30.6337
33.7684
10.4596
11.3831
12.3192
13.2775
14.2689
15.3071
16.4097
17.6001
18.911
20.388
22.0959
24.1247
26.5902
29.613
33.2378
10.4038
11.2144
12.035
12.8727
13.7364
14.6374
15.5905
16.6167
17.7468
19.028
20.5349
22.3878
24.7788
27.99
32.3166
10.3447
11.036
11.7335
12.4418
13.1667
13.9154
14.698
15.5291
16.4313
17.4422
18.6276
20.1123
22.1469
25.2511
30.4258
10.2835
10.8513
11.421
11.9944
12.5731
13.1595
13.7569
14.3702
15.0071
15.6816
16.4209
17.2866
18.4452
20.4413
25.4126
36.5086
38.1161
39.7098
41.2818
42.8248
44.3319
45.7967
47.2139
48.5786
49.887
51.1356
52.3218
53.4434
54.4988
55.4867
56.4061
57.2564
58.0373
58.7488
59.391
59.9643
60.4695
60.9074
61.2789
61.5853
61.8279
62.0082
62.1276
62.1878
62.1904
62.1371
62.0296
61.8695
61.6586
61.3983
61.0904
60.7363
60.3376
59.8957
59.4123
58.8886
58.3262
57.7265
57.0909
56.4208
55.7175
54.9824
54.2166
53.4214
52.598
51.7473
50.8703
49.9681
49.0416
48.0918
47.1195
46.1259
45.1119
44.0785
43.0269
41.9581
40.8732
39.7735
38.6599
37.5337
36.3959
35.2479
34.0907
32.9258
31.7547
30.5789
29.4002
28.2206
27.0423
25.8675
24.6989
23.5389
22.3904
21.256
20.1386
19.041
17.9659
16.9158
15.8932
14.9002
13.9387
13.0105
12.1167
11.2581
10.4352
36.5167
38.1355
39.7403
41.3231
42.876
44.3919
45.8647
47.2886
48.6591
49.9721
51.2246
52.4139
53.538
54.5952
55.5844
56.5046
57.3554
58.1364
58.8475
59.4891
60.0615
60.5655
61.0018
61.3716
61.6761
61.9166
62.0947
62.2118
62.2696
62.2698
62.2141
62.1042
61.9418
61.7285
61.4659
61.1557
60.7995
60.3986
59.9546
59.4691
58.9433
58.3789
57.7772
57.1396
56.4675
55.7624
55.0255
54.258
53.4612
52.6363
51.7841
50.9058
50.0022
49.0744
48.1231
47.1495
46.1544
45.1389
44.104
43.0508
41.9804
40.894
39.7926
38.6775
37.5496
36.4102
35.2603
34.1012
32.9343
31.7608
30.5825
29.401
28.2183
27.0366
25.8583
24.6859
23.522
22.3695
21.2311
20.1098
19.0084
17.9295
16.876
15.8502
14.8544
13.8907
12.9607
12.0657
11.2066
10.3837
36.5325
38.1744
39.8021
41.4065
42.9796
44.5136
46.0021
47.4396
48.8213
50.1437
51.4038
52.5991
53.7278
54.7886
55.7803
56.7022
57.5538
58.3349
59.0454
59.6857
60.2562
60.7576
61.191
61.5573
61.8579
62.0942
62.2678
62.3802
62.4332
62.4286
62.368
62.2533
62.0861
61.8681
61.601
61.2863
60.9257
60.5205
60.0723
59.5826
59.0527
58.4841
57.8783
57.2368
56.5608
55.852
55.1115
54.3406
53.5407
52.7127
51.8576
50.9766
50.0703
49.1398
48.1859
47.2095
46.2115
45.193
44.155
43.0987
42.0251
40.9355
39.8309
38.7126
37.5815
36.4387
35.2853
34.1225
32.9514
31.7734
30.59
29.4029
28.214
27.0257
25.8402
24.6602
23.4884
22.3278
21.1814
20.052
18.9427
17.8564
16.7958
15.7637
14.7623
13.7939
12.8602
11.9628
11.1025
10.2799
36.5552
38.2333
39.8966
41.5347
43.1386
44.7001
46.2124
47.6699
49.0684
50.4043
51.6753
52.8792
54.0147
55.0805
56.0759
57.0001
57.8529
58.634
59.3435
59.9818
60.5493
61.0469
61.4755
61.8365
62.1312
62.361
62.5278
62.6331
62.6788
62.6668
62.5988
62.4768
62.3024
62.0773
61.8034
61.4821
61.1149
60.7033
60.2488
59.7528
59.2167
58.642
58.03
57.3824
56.7006
55.986
55.2401
54.4642
53.6595
52.827
51.9678
51.0827
50.1725
49.2381
48.2802
47.2996
46.2973
45.2743
44.2316
43.1705
42.0922
40.9977
39.8884
38.7653
37.6295
36.4818
35.3234
34.1551
32.9779
31.7932
30.6022
29.4067
28.2086
27.01
25.8136
24.622
23.4383
22.2654
21.1066
19.9649
18.8437
17.7459
16.6745
15.6325
14.6224
13.6467
12.7074
11.8062
10.9442
10.1218
36.5837
38.3132
40.0265
41.7117
43.3581
44.9567
46.5007
47.9846
49.4045
50.7578
52.0424
53.2571
54.4009
55.473
56.4728
57.4
58.2541
59.0352
59.7432
60.3786
60.942
61.4343
61.8565
62.2102
62.4967
62.7177
62.8751
62.9707
63.0065
62.9844
62.9065
62.7745
62.5904
62.356
62.0729
61.7427
61.3669
60.9469
60.484
59.9797
59.4353
58.8522
58.232
57.5763
56.8865
56.1642
55.4111
54.6283
53.8172
52.9789
52.1142
51.2239
50.3088
49.3693
48.4062
47.4201
46.4121
45.383
44.334
43.2665
42.1816
41.0807
39.965
38.8357
37.6937
36.5399
35.3749
34.1997
33.0148
31.8214
30.6205
29.4138
28.2032
26.9909
25.7796
24.5722
23.3721
22.1824
21.0066
19.8482
18.7105
17.5969
16.5107
15.455
14.4328
13.4468
12.4995
11.5929
10.7284
9.9066
36.6166
38.4158
40.1965
41.9439
43.6455
45.2915
46.8748
48.3906
49.836
51.2092
52.5094
53.7362
54.8894
55.9686
56.9736
57.9041
58.7597
59.5405
60.2465
60.8782
61.4361
61.9214
62.3354
62.6794
62.9553
63.165
63.3103
63.3934
63.4164
63.3815
63.2907
63.1462
62.9499
62.7036
62.4091
62.0679
61.6815
61.2511
60.7779
60.2633
59.7085
59.115
58.4843
57.8181
57.1181
56.386
55.6236
54.8322
54.0133
53.1678
52.2966
51.4002
50.4791
49.5337
48.5643
47.5716
46.5563
45.5195
44.4625
43.3866
42.2933
41.1842
40.0606
38.9237
37.7743
36.6132
35.4408
34.2574
33.0635
31.8596
30.6467
29.4261
28.1997
26.9698
25.7394
24.5117
23.2903
22.0789
20.8813
19.7012
18.5423
17.4083
16.3027
15.229
14.1907
13.1909
12.2328
11.3188
10.4509
9.62991
36.6523
38.5445
40.4138
42.2414
44.0123
45.7159
47.3454
48.8974
50.3705
51.7649
53.0814
54.3206
55.4835
56.5702
57.5808
58.5149
59.3722
60.1526
60.856
61.4828
62.0339
62.5104
62.9137
63.2457
63.5084
63.7037
63.834
63.9016
63.9087
63.8579
63.7513
63.5914
63.3802
63.1196
62.8115
62.4573
62.0584
61.6157
61.1304
60.6036
60.0364
59.4302
58.7866
58.1075
57.3948
56.6506
55.8767
55.0749
54.2466
53.3928
52.5142
51.6111
50.6836
49.7316
48.7552
47.7547
46.7308
45.6845
44.6173
43.5309
42.4271
41.3079
40.1747
39.0289
37.8713
36.7022
35.5218
34.3298
33.126
31.9104
30.6835
29.4463
28.2006
26.9491
25.6949
24.4417
23.1937
21.9552
20.7303
19.5232
18.338
17.1785
16.0485
14.9519
13.8927
12.8748
11.9022
10.9783
10.1058
9.28588
36.6894
38.7055
40.6907
42.6199
44.4754
46.2461
47.927
49.5169
51.0177
52.4322
53.7635
55.0143
56.1864
57.2806
58.297
59.2353
60.0946
60.8744
61.5747
62.1956
62.7381
63.2036
63.5938
63.9109
64.1572
64.3351
64.447
64.4956
64.4835
64.4134
64.2878
64.1093
63.8804
63.6031
63.2792
62.9101
62.497
62.0407
61.5418
61.001
60.4194
59.7982
59.1392
58.4443
57.7161
56.9569
56.1691
55.3548
54.5157
53.6527
52.7663
51.8564
50.9225
49.9638
48.98
47.9707
46.9366
45.8788
44.7989
43.6994
42.5826
41.4509
40.3063
39.1504
37.984
36.807
35.6189
34.4186
33.2049
31.9769
30.7344
29.478
28.2095
26.9317
25.6483
24.3639
23.0832
21.8114
20.5533
19.3135
18.0963
16.9058
15.7459
14.6208
13.5349
12.4933
11.5012
10.5636
9.68471
8.86641
36.7274
38.9107
41.0474
43.104
45.0598
46.9051
48.6386
50.2641
51.7883
53.2183
54.5607
55.8204
57.0004
58.102
59.125
60.0683
60.9304
61.71
62.4065
63.0202
63.5521
64.004
64.3781
64.677
64.9035
65.0603
65.1502
65.176
65.1408
65.0475
64.8992
64.6989
64.4492
64.1525
63.8108
63.4253
62.9968
62.5258
62.0123
61.4563
60.8584
60.2197
59.5422
58.8282
58.0808
57.3032
56.4986
55.6696
54.8181
53.9453
53.0513
52.1353
51.196
50.2315
49.2404
48.2218
47.1758
46.1038
45.0082
43.892
42.7586
41.6116
40.4536
39.2865
38.1112
36.9271
35.7328
34.526
33.3038
32.0639
30.8048
29.5268
28.2314
26.9219
25.6029
24.2801
22.9596
21.6475
20.3496
19.0709
17.8159
16.5887
15.393
14.2329
13.1133
12.0403
11.0213
10.0644
9.17616
8.36018
36.7682
39.1825
41.5189
43.7327
45.8026
47.7244
49.505
51.1565
52.6935
54.1297
55.4761
56.7403
57.9264
59.0356
60.0668
61.0173
61.8839
62.6641
63.3565
63.9614
64.4802
64.9153
65.2695
65.5463
65.749
65.8806
65.9443
65.9432
65.8805
65.7597
65.5844
65.3582
65.0844
64.7657
64.4041
64.001
63.5568
63.0711
62.5427
61.9707
61.3548
60.6961
59.9965
59.2591
58.488
57.6875
56.8622
56.0156
55.1503
54.2674
53.3668
52.4468
51.5047
50.5367
49.5395
48.5112
47.4515
46.3622
45.2463
44.1084
42.9537
41.7872
40.6131
39.4338
38.2503
37.0613
35.8643
34.6548
33.4276
32.1777
30.9021
29.5999
28.273
26.9251
25.5625
24.1925
22.8234
21.4629
20.1178
18.7937
17.4951
16.2258
14.9887
13.7866
12.6241
11.5091
10.4521
9.46596
8.56341
7.75099
36.8212
39.5656
42.1665
44.5679
46.7577
48.7465
50.5564
52.213
53.743
55.1696
56.509
57.7718
58.9621
60.0806
61.1237
62.086
62.9608
63.7434
64.4315
65.0256
65.5278
65.9417
66.2714
66.5213
66.6955
66.7975
66.8305
66.7977
66.7026
66.5492
66.3418
66.0851
65.7831
65.4394
65.0561
64.6349
64.1755
63.6765
63.1348
62.547
61.912
61.2302
60.5041
59.7376
58.9363
58.1065
57.2553
56.3875
55.5067
54.6141
53.7093
52.7893
51.8497
50.883
49.8826
48.8449
47.7691
46.6578
45.5152
44.3484
43.1648
41.9732
40.7792
39.5867
38.3963
37.2065
36.0129
34.8085
33.5834
32.328
31.037
29.7083
28.3441
26.9492
25.5323
24.1033
22.6745
21.2557
19.8554
18.4792
17.132
15.8163
14.5335
13.2828
12.0665
10.8943
9.78049
8.74702
7.82072
7.01452
36.918
40.1548
43.1007
45.7073
48.0016
50.0253
51.8279
53.4511
54.9404
56.3341
57.6516
58.9065
60.1002
61.2334
62.296
63.2799
64.1692
64.9578
65.6409
66.2211
66.7015
67.0882
67.3871
67.6042
67.7449
67.8127
67.8104
67.741
67.6077
67.4154
67.169
66.876
66.5408
66.1688
65.7618
65.3225
64.85
64.3426
63.7921
63.1903
62.5356
61.827
61.069
60.265
59.4247
58.5556
57.6712
56.7771
55.8794
54.9775
54.0725
53.1594
52.2326
51.2772
50.2784
49.2326
48.1371
46.9977
45.8184
44.6116
43.387
42.1617
40.9424
39.736
38.5407
37.3567
36.1764
34.9916
33.7824
32.5291
31.2257
29.8671
28.459
27.0047
25.519
24.0133
22.5107
21.0214
19.5579
18.1227
16.7234
15.3591
14.0319
12.7295
11.4451
10.1951
8.99309
7.87363
6.90495
6.11224
37.171
41.1624
44.5229
47.2955
49.6344
51.6216
53.3571
54.8809
56.2745
57.6076
58.8832
60.1284
61.3247
62.4865
63.5807
64.6087
65.5218
66.3228
66.9973
67.559
68.0088
68.3601
68.6191
68.796
68.8981
68.9277
68.8855
68.7752
68.5963
68.3582
68.062
67.7262
67.3505
66.9474
66.5125
66.0569
65.5736
65.0695
64.5221
63.9084
63.2358
62.4935
61.699
60.8436
59.9534
59.0255
58.1
57.1707
56.257
55.3442
54.4466
53.548
52.6559
51.7326
50.7409
49.6911
48.5673
47.3944
46.16
44.8998
43.6091
42.341
41.0862
39.8687
38.6681
37.501
36.3455
35.2093
34.044
32.8018
31.4933
30.0966
28.64
27.1051
25.5338
23.9184
22.3275
20.7495
19.2195
17.7141
16.2641
14.8483
13.4941
12.1499
10.7741
9.42638
8.08671
6.78298
5.73563
4.97945
38.0309
43.0777
46.7909
49.5078
51.7727
53.5795
55.1906
56.4972
57.6952
58.9627
60.1579
61.42
62.5976
63.8358
64.9598
66.102
67.0345
67.8691
68.5151
69.0571
69.4567
69.7638
69.9684
70.0942
70.1544
70.1452
70.0572
69.9073
69.6689
69.3835
69.0109
68.6329
68.1984
67.7708
67.292
66.8297
66.3263
65.8575
65.3463
64.7105
64.0351
63.2343
62.4155
61.4712
60.5354
59.4909
58.5332
57.5411
56.6323
55.6881
54.8211
53.9266
53.1231
52.2858
51.2863
50.2554
49.0673
47.8788
46.5379
45.2313
43.798
42.5002
41.1757
39.9764
38.7465
37.628
36.4864
35.4681
34.4161
33.1692
31.8872
30.4121
28.9331
27.2573
25.6115
23.7882
22.125
20.4082
18.8454
17.2253
15.7551
14.2486
12.9418
11.6157
10.0624
8.64597
7.12845
5.32301
4.14691
3.50289
41.5788
46.9129
50.4928
52.3703
54.57
55.8184
57.4617
58.269
59.0148
60.4209
61.3351
62.832
63.7824
65.3486
66.3114
67.8961
68.6873
69.6855
70.1814
70.7591
71.0365
71.3137
71.4301
71.4857
71.5092
71.4748
71.317
71.1654
70.8081
70.5332
69.9662
69.6198
69.0348
68.6669
68.0463
67.6607
67.0277
66.7056
66.3486
65.5683
65.014
63.9998
63.3118
62.0853
61.2726
59.8305
59.0146
57.7904
57.0575
55.9199
55.234
54.1731
53.6379
53.0716
51.8757
51.0454
49.5667
48.5821
46.8654
45.7444
43.791
42.697
41.0844
40.1272
38.6639
37.7875
36.4489
35.7748
35.0681
33.5867
32.5587
30.7326
29.509
27.3659
25.9446
23.4267
21.9995
19.8447
18.5533
16.5204
15.2981
13.3609
12.4172
11.4083
9.15341
8.01099
6.58465
2.95669
1.79194
1.48056
9.56913
8.67484
7.82933
7.03019
6.27437
5.55839
4.87848
4.23071
3.61106
3.01553
2.4402
1.88121
1.33482
0.797343
0.265191
9.51847
8.62589
7.78284
6.98674
6.23441
5.52222
4.84626
4.20251
3.58686
2.99529
2.42381
1.86859
1.32587
0.792005
0.263417
9.41629
8.52725
7.68924
6.89939
6.15419
5.4497
4.78176
4.14612
3.53854
2.95488
2.39113
1.84343
1.30805
0.781373
0.259884
9.26086
8.37742
7.54736
6.76728
6.03315
5.34054
4.68488
4.06159
3.46623
2.89451
2.34236
1.80592
1.2815
0.765541
0.254623
9.04942
8.17406
7.35534
6.58909
5.87047
5.19434
4.55554
3.94907
3.37021
2.81451
2.27785
1.75637
1.24645
0.744658
0.247686
8.77808
7.91392
7.11073
6.36316
5.6652
5.01071
4.39378
3.80888
3.25096
2.71542
2.19811
1.69522
1.20326
0.718939
0.239147
8.44148
7.59264
6.81038
6.0875
5.41634
4.78943
4.19991
3.64164
3.10926
2.59806
2.1039
1.62312
1.1524
0.688683
0.229105
8.03241
7.20466
6.45053
5.76003
5.12313
4.53068
3.9747
3.44846
2.94633
2.4636
1.99628
1.54093
1.09451
0.654278
0.217692
7.54114
6.74293
6.02693
5.37884
4.7854
4.23538
3.71968
3.2311
2.76395
2.31369
1.87666
1.44977
1.03041
0.61622
0.205073
6.95445
6.19886
5.53531
4.94289
4.40416
3.90568
3.43748
2.99225
2.56461
2.15052
1.74685
1.35107
0.961103
0.575113
0.191449
6.25427
5.56264
4.97245
4.45317
3.9826
3.54563
3.13223
2.73575
2.35169
1.9769
1.60911
1.24655
0.887804
0.53167
0.177057
5.41624
4.82488
4.33858
3.91465
3.52736
3.16195
2.81002
2.46679
2.12945
1.79626
1.4661
1.13818
0.811881
0.486696
0.16216
4.41021
3.98198
3.64227
3.33942
3.0502
2.76471
2.47906
2.1919
1.90301
1.61255
1.32083
1.02817
0.734832
0.441062
0.147047
3.21132
3.05048
2.90903
2.75052
2.56923
2.3676
2.14955
1.91872
1.67811
1.43007
1.17648
0.918803
0.658206
0.395665
0.132009
1.85515
2.09953
2.19279
2.18434
2.10857
1.98686
1.83277
1.65528
1.46059
1.25313
1.03621
0.812337
0.583513
0.351374
0.117332
10.2269
10.6801
11.1314
11.5792
12.0217
12.4564
12.8796
13.286
13.667
14.0082
14.2819
14.4278
14.284
13.3049
9.20784
10.1758
10.5258
10.8704
11.2055
11.5259
11.8251
12.0937
12.3179
12.4764
12.5337
12.4261
12.0298
11.0811
8.98241
4.41959
10.126
10.3752
10.616
10.8418
11.0449
11.215
11.3385
11.3954
11.356
11.1735
10.7707
10.0153
8.67664
6.37105
2.60098
10.078
10.2305
10.3719
10.4939
10.5866
10.6374
10.6294
10.5396
10.3349
9.96621
9.36008
8.40574
6.94363
4.77664
1.77671
10.0325
10.0934
10.1413
10.1664
10.1575
10.1004
9.97712
9.76368
9.42751
8.9238
8.19122
7.14877
5.70004
3.76063
1.33678
9.99001
9.96535
9.92637
9.86253
9.76171
9.60935
9.38741
9.07293
8.63645
8.04028
7.2375
6.1739
4.79716
3.08101
1.07025
9.95072
9.84724
9.72873
9.58431
9.40171
9.16662
8.86192
8.46685
7.95624
7.30017
6.46487
5.41645
4.12994
2.60597
0.893812
9.91484
9.73954
9.54907
9.33258
9.07813
8.77219
8.39916
7.94098
7.37702
6.6845
5.84019
4.82432
3.62759
2.26159
0.769778
9.88243
9.64238
9.38746
9.1072
8.7903
8.42433
7.99549
7.48855
6.88705
6.17419
5.33463
4.35777
3.24276
2.00458
0.678894
9.85341
9.55554
9.24344
8.90725
8.53652
8.1201
7.64605
7.10175
6.47439
5.75185
4.92438
3.98713
2.94345
1.80832
0.610301
9.82766
9.47857
9.11614
8.73126
8.31446
7.85588
7.34536
6.77262
6.1278
5.40236
4.59036
3.69039
2.70763
1.65573
0.557389
9.80497
9.41084
9.00444
8.57744
8.12139
7.62772
7.08786
6.49352
5.8372
5.11295
4.31742
3.45113
2.51982
1.53538
0.515889
9.78512
9.35164
8.90702
8.44377
7.95444
7.43163
6.86817
6.25744
5.59375
4.87303
4.0936
3.25701
2.36889
1.43938
0.482917
9.76784
9.30019
8.82252
8.32822
7.81074
7.26375
6.68131
6.05811
5.38988
4.67388
3.90946
3.09866
2.24669
1.36209
0.456453
9.75288
9.25567
8.74957
8.22874
7.68751
7.12049
6.52274
5.89005
5.21919
4.50835
3.75752
2.9689
2.14714
1.2994
0.435039
9.73999
9.21733
8.68685
8.14343
7.58219
6.99855
6.38843
5.74847
5.07624
4.37057
3.63182
2.86215
2.06563
1.24824
0.417598
9.72891
9.18443
8.63311
8.0705
7.49241
6.89499
6.27485
5.6293
4.95651
4.25576
3.52759
2.77403
1.9986
1.20629
0.403315
9.71943
9.15629
8.58719
8.00831
7.41607
6.80719
6.1789
5.52903
4.8562
4.15998
3.441
2.70109
1.94329
1.17175
0.391569
9.71133
9.13227
8.54806
7.95541
7.35126
6.73287
6.09793
5.4447
4.77214
4.07999
3.36893
2.64057
1.89751
1.14322
0.381875
9.70444
9.11183
8.51479
7.91049
7.29635
6.67003
6.02965
5.3738
4.70167
4.01314
3.30886
2.59026
1.85953
1.11958
0.373849
9.69858
9.09446
8.48655
7.87242
7.24987
6.61697
5.97212
5.3142
4.64258
3.95722
3.25874
2.54836
1.82796
1.09995
0.36719
9.69361
9.07974
8.46262
7.84019
7.21059
6.57219
5.92366
5.2641
4.59302
3.91043
3.21687
2.51343
1.80167
1.08363
0.361653
9.6894
9.06727
8.44236
7.81294
7.17742
6.53443
5.88287
5.222
4.55144
3.87124
3.18187
2.48427
1.77975
1.07002
0.357042
9.68584
9.05672
8.42525
7.78993
7.14944
6.50261
5.84855
5.18663
4.51657
3.83841
3.15259
2.4599
1.76145
1.05867
0.353196
9.68283
9.04782
8.4108
7.77052
7.12585
6.47582
5.81968
5.15692
4.4873
3.8109
3.12808
2.43952
1.74616
1.0492
0.349986
9.68029
9.0403
8.39861
7.75415
7.10598
6.45328
5.79541
5.13197
4.46275
3.78785
3.10756
2.42247
1.73338
1.04128
0.347304
9.67815
9.03396
8.38834
7.74037
7.08926
6.43431
5.77501
5.11101
4.44216
3.76852
3.09038
2.40821
1.72269
1.03466
0.345062
9.67635
9.02863
8.37969
7.72877
7.07519
6.41837
5.75788
5.09343
4.42489
3.75233
3.07598
2.39627
1.71375
1.02912
0.343187
9.67483
9.02414
8.37242
7.71902
7.06337
6.40499
5.7435
5.07867
4.41041
3.73876
3.06393
2.38627
1.70626
1.02449
0.341619
9.67355
9.02037
8.36631
7.71083
7.05345
6.39375
5.73144
5.06631
4.39828
3.7274
3.05384
2.37791
1.7
1.02061
0.340308
9.67248
9.0172
8.36118
7.70396
7.04513
6.38434
5.72134
5.05595
4.38812
3.71789
3.04541
2.37092
1.69477
1.01738
0.339213
9.67159
9.01455
8.35689
7.69821
7.03816
6.37646
5.71289
5.0473
4.37964
3.70995
3.03836
2.36509
1.69041
1.01468
0.338299
9.67084
9.01234
8.35331
7.69341
7.03235
6.36989
5.70583
5.04007
4.37256
3.70333
3.03249
2.36022
1.68677
1.01243
0.337538
9.67022
9.0105
8.35032
7.68941
7.02751
6.36442
5.69997
5.03407
4.36668
3.69783
3.02761
2.35618
1.68375
1.01056
0.336905
9.6697
9.00897
8.34785
7.6861
7.0235
6.35988
5.69511
5.02909
4.36181
3.69327
3.02357
2.35284
1.68125
1.00901
0.336382
9.66927
9.00771
8.34581
7.68337
7.0202
6.35616
5.69111
5.025
4.3578
3.68953
3.02025
2.35009
1.67919
1.00774
0.335953
9.66893
9.00669
8.34415
7.68115
7.01752
6.35312
5.68786
5.02167
4.35454
3.68648
3.01755
2.34785
1.67752
1.00671
0.335603
9.66865
9.00586
8.34282
7.67937
7.01536
6.35068
5.68525
5.019
4.35192
3.68403
3.01538
2.34606
1.67618
1.00588
0.335322
9.66843
9.00522
8.34178
7.67797
7.01366
6.34877
5.6832
5.0169
4.34987
3.68212
3.01368
2.34465
1.67513
1.00523
0.335102
9.66827
9.00473
8.34099
7.67691
7.01239
6.34732
5.68165
5.01532
4.34832
3.68067
3.0124
2.34359
1.67433
1.00474
0.334936
9.66815
9.00438
8.34043
7.67616
7.01148
6.3463
5.68055
5.0142
4.34722
3.67964
3.01149
2.34284
1.67377
1.00439
0.334819
9.66808
9.00417
8.34008
7.6757
7.01092
6.34567
5.67988
5.01351
4.34655
3.67901
3.01093
2.34238
1.67343
1.00418
0.334746
9.66805
9.00409
8.33994
7.67552
7.0107
6.34542
5.67961
5.01323
4.34628
3.67876
3.01071
2.34219
1.67329
1.00409
0.334717
9.66806
9.00412
8.34001
7.6756
7.0108
6.34553
5.67973
5.01335
4.3464
3.67887
3.01081
2.34227
1.67335
1.00413
0.33473
9.66812
9.00429
8.34027
7.67595
7.01122
6.34601
5.68024
5.01388
4.34691
3.67935
3.01123
2.34263
1.67361
1.00429
0.334785
9.66822
9.00458
8.34074
7.67658
7.01199
6.34688
5.68117
5.01483
4.34784
3.68022
3.012
2.34326
1.67409
1.00459
0.334884
9.66836
9.00501
8.34144
7.67752
7.01312
6.34815
5.68254
5.01623
4.34921
3.6815
3.01313
2.3442
1.67479
1.00502
0.335031
9.66856
9.00559
8.34238
7.67878
7.01465
6.34988
5.68438
5.01812
4.35106
3.68322
3.01467
2.34547
1.67573
1.0056
0.335229
9.66881
9.00634
8.3436
7.68041
7.01662
6.3521
5.68677
5.02056
4.35345
3.68546
3.01664
2.3471
1.67696
1.00636
0.335485
9.66913
9.00729
8.34513
7.68245
7.01909
6.3549
5.68976
5.02362
4.35645
3.68826
3.01913
2.34916
1.67849
1.00731
0.335806
9.66953
9.00845
8.34701
7.68498
7.02214
6.35835
5.69346
5.0274
4.36015
3.69172
3.02219
2.3517
1.68039
1.00848
0.336203
9.67001
9.00987
8.34931
7.68805
7.02587
6.36255
5.69797
5.03202
4.36466
3.69594
3.02594
2.35479
1.68271
1.00991
0.336688
9.67059
9.01159
8.35209
7.69177
7.03037
6.36764
5.70342
5.0376
4.37013
3.70105
3.03047
2.35854
1.68551
1.01165
0.337274
9.67128
9.01365
8.35543
7.69625
7.03579
6.37377
5.70999
5.04432
4.37672
3.70721
3.03593
2.36306
1.68889
1.01374
0.337982
9.67212
9.01613
8.35944
7.70162
7.04229
6.38112
5.71787
5.05239
4.38462
3.71461
3.04248
2.36849
1.69295
1.01625
0.338831
9.67312
9.01909
8.36423
7.70804
7.05006
6.38991
5.7273
5.06205
4.39409
3.72346
3.05034
2.375
1.69782
1.01926
0.33985
9.67432
9.02262
8.36995
7.71571
7.05934
6.40041
5.73857
5.07359
4.4054
3.73405
3.05973
2.38278
1.70364
1.02286
0.341069
9.67574
9.02683
8.37677
7.72484
7.07041
6.41293
5.75201
5.08737
4.41891
3.7467
3.07096
2.39208
1.7106
1.02717
0.342527
9.67743
9.03183
8.38488
7.73571
7.08358
6.42785
5.76802
5.10379
4.43502
3.76179
3.08436
2.40319
1.71892
1.03232
0.344269
9.67944
9.03779
8.39452
7.74864
7.09926
6.4456
5.7871
5.12336
4.45424
3.7798
3.10036
2.41646
1.72886
1.03847
0.34635
9.68183
9.04485
8.40597
7.76401
7.11789
6.46673
5.80981
5.14668
4.47714
3.80127
3.11945
2.4323
1.74072
1.04581
0.348838
9.68467
9.05324
8.41957
7.78226
7.14004
6.49184
5.83683
5.17444
4.50443
3.82689
3.14224
2.45122
1.7549
1.0546
0.351812
9.68802
9.06318
8.4357
7.80392
7.16634
6.52169
5.86897
5.20749
4.53696
3.85744
3.16944
2.47382
1.77185
1.0651
0.355369
9.692
9.07496
8.45481
7.82959
7.19754
6.55714
5.90718
5.24684
4.57572
3.89389
3.20192
2.50083
1.79213
1.07767
0.359626
9.69671
9.0889
8.47743
7.86002
7.23455
6.59923
5.9526
5.29366
4.62191
3.93738
3.24072
2.53314
1.81639
1.09272
0.364727
9.70227
9.10537
8.50419
7.89602
7.2784
6.64916
6.00657
5.34938
4.67696
3.9893
3.28711
2.57181
1.84546
1.11076
0.370845
9.70883
9.12481
8.53579
7.9386
7.33031
6.70837
6.07067
5.41569
4.74259
4.05131
3.34261
2.61814
1.88034
1.13243
0.378193
9.71656
9.14773
8.57307
7.98888
7.39171
6.77851
6.14676
5.49457
4.82084
4.1254
3.40907
2.67371
1.92224
1.15848
0.387035
9.72565
9.17469
8.61697
8.04816
7.46423
6.86154
6.23704
5.58839
4.91417
4.214
3.48873
2.74048
1.97266
1.18988
0.397696
9.73632
9.20634
8.66856
8.11795
7.54977
6.95971
6.34408
5.69998
5.02551
4.32003
3.58435
2.82083
2.03347
1.2278
0.410583
9.74881
9.24341
8.72906
8.19993
7.65049
7.07564
6.4709
5.83264
5.15837
4.44703
3.69928
2.91772
2.10701
1.27374
0.42621
9.76338
9.28671
8.79981
8.296
7.76885
7.21232
6.62098
5.99029
5.31696
4.59931
3.83769
3.03486
2.19619
1.32959
0.445231
9.78033
9.33711
8.8823
8.40828
7.90761
7.37316
6.79837
6.17756
5.50633
4.78211
4.00471
3.17689
2.30475
1.39777
0.468488
9.79996
9.39554
8.97813
8.53907
8.06981
7.562
7.00771
6.39982
5.73248
5.00182
4.20673
3.3497
2.43749
1.48145
0.497084
9.8226
9.46301
9.08898
8.69082
8.25878
7.7831
7.25427
6.66335
6.00259
5.26626
4.45176
3.56081
2.60067
1.58478
0.532486
9.84858
9.54049
9.21658
8.8661
8.47803
8.0411
7.54393
6.97537
6.32517
5.58498
4.74985
3.81996
2.80257
1.71339
0.576688
9.8782
9.62894
9.36262
9.06746
8.7312
8.34093
7.88315
7.34406
6.71021
5.96962
5.11373
4.13985
3.0543
1.87499
0.63247
9.91174
9.72925
9.52867
9.29736
9.02186
8.6876
8.2788
7.77854
7.16934
6.43432
5.55951
4.53729
3.37112
2.08048
0.703818
9.94943
9.84211
9.71604
9.55793
9.35331
9.08603
8.73794
8.28865
7.7158
6.99608
6.10764
5.03468
3.77436
2.3457
0.796674
9.99139
9.96798
9.92565
9.85079
9.72824
9.54055
9.26732
8.88454
8.36424
7.67496
6.78389
5.66214
4.2945
2.69448
0.920307
10.0377
10.107
10.1578
10.1768
10.1484
10.0544
9.87275
9.57589
9.12998
8.49392
7.62032
6.46031
4.97599
3.16419
1.09007
10.0881
10.2588
10.4122
10.5356
10.614
10.6292
10.5581
10.3707
10.0277
9.4778
8.65558
7.48367
5.88485
3.81603
1.33347
10.1425
10.4225
10.6873
10.9256
11.1235
11.2639
11.3242
11.2735
11.0692
10.6507
9.93364
8.80345
7.12007
4.75517
1.70491
10.2002
10.5967
10.981
11.3435
11.6729
11.9542
12.1672
12.2831
12.2592
12.031
11.4985
10.5073
8.82852
6.17021
2.32602
10.2608
10.7795
11.2896
11.7844
12.2556
12.6919
13.0777
13.3895
13.591
13.6224
13.3819
12.6886
11.2171
8.40872
3.50812
10.3232
10.9682
11.6089
12.2418
12.8624
13.4646
14.0394
14.5726
15.0408
15.4026
15.5796
15.4102
14.5341
12.1001
6.15938
10.3866
11.16
11.9336
12.7076
13.482
14.2564
15.03
15.8007
16.5643
17.311
18.0176
18.6224
18.9327
18.2266
13.2398
10.4499
11.3515
12.2579
13.1731
14.1014
15.0486
16.0224
17.0338
18.0995
19.2471
20.5263
22.0388
24.0371
27.3255
35.2457
10.5122
11.5395
12.5762
13.6294
14.7077
15.8224
16.9886
18.2289
19.5776
21.0918
22.8728
25.1178
28.2453
33.2078
42.1296
10.5722
11.721
12.883
14.0682
15.2888
16.5601
17.9034
19.3486
20.9407
22.7509
24.897
27.5837
31.1789
36.3402
44.1484
0.762538
1.36631
1.62943
1.72704
1.72837
1.66749
1.56382
1.42954
1.27287
1.09959
0.913973
0.719271
0.518072
0.312514
0.104444
0.409043
0.93629
1.2322
1.37813
1.42592
1.40686
1.34054
1.23986
1.11373
0.968566
0.809145
0.639168
0.461603
0.278925
0.0932966
0.257515
0.66691
0.93911
1.09737
1.16988
1.17903
1.1411
1.06783
0.967803
0.847429
0.711637
0.564327
0.408678
0.247382
0.0828177
0.179343
0.492795
0.725134
0.876132
0.957826
0.983875
0.966193
0.914379
0.835991
0.736986
0.622121
0.495269
0.359668
0.218107
0.0730812
0.132581
0.375004
0.567635
0.703015
0.784402
0.819076
0.814976
0.779368
0.718484
0.637547
0.54092
0.432281
0.314793
0.191235
0.0641332
0.101608
0.291784
0.449888
0.567384
0.643406
0.681194
0.685629
0.661899
0.614895
0.548997
0.468052
0.375435
0.274128
0.166821
0.0559935
0.0796901
0.230833
0.360336
0.460547
0.528954
0.566466
0.575833
0.560585
0.524419
0.470888
0.403285
0.324617
0.237627
0.144848
0.0486584
0.0634917
0.184906
0.291122
0.37579
0.435951
0.471274
0.483122
0.473792
0.445994
0.402545
0.346198
0.279574
0.205144
0.125244
0.0421052
0.0511604
0.14953
0.236867
0.308047
0.360192
0.392379
0.405112
0.399816
0.378434
0.343154
0.296243
0.239948
0.176456
0.107886
0.036296
0.0415723
0.121814
0.19383
0.253518
0.298288
0.326988
0.339617
0.337006
0.320519
0.291837
0.252802
0.205316
0.151292
0.0926241
0.0311821
0.0339994
0.099809
0.159352
0.209344
0.247541
0.272753
0.284703
0.283827
0.271068
0.247706
0.215225
0.175222
0.129351
0.0792874
0.0267084
0.0279464
0.0821542
0.131505
0.173359
0.205808
0.227723
0.238691
0.238896
0.228978
0.209905
0.182868
0.149201
0.110321
0.0676962
0.0228163
0.023063
0.0678715
0.108862
0.143903
0.171389
0.190293
0.200151
0.200992
0.193242
0.177631
0.155114
0.126797
0.093891
0.0576698
0.0194464
0.0190942
0.0562393
0.0903484
0.119693
0.142926
0.159141
0.167871
0.169052
0.162962
0.150152
0.131385
0.107579
0.0797616
0.0490331
0.0165412
0.0158498
0.0467146
0.0751427
0.0997246
0.119335
0.133185
0.140831
0.14216
0.137346
0.126807
0.111153
0.0911457
0.0676526
0.0416204
0.0140459
0.0131851
0.0388815
0.062607
0.0832074
0.0997436
0.111535
0.118177
0.119531
0.115704
0.107012
0.0939445
0.0771314
0.057306
0.0352782
0.0119095
0.010988
0.0324165
0.0522406
0.0695116
0.0834454
0.0934601
0.0991929
0.100499
0.097439
0.0902529
0.0793359
0.0652081
0.048488
0.0298668
0.0100855
0.00917086
0.0270653
0.0436466
0.0581323
0.0698678
0.0783574
0.0832814
0.0844984
0.0820379
0.0760841
0.0669559
0.0550842
0.0409896
0.0252605
0.0085322
0.00766427
0.0226255
0.0365073
0.0486623
0.0585433
0.0657299
0.0699431
0.0710504
0.0690617
0.0641188
0.0564801
0.0465032
0.0346258
0.0213478
0.00721217
0.00641263
0.0189351
0.0305668
0.0407706
0.0490892
0.0551664
0.0587607
0.0597513
0.0581361
0.0540247
0.0476275
0.0392413
0.0292343
0.0180304
0.00609253
0.00537118
0.015863
0.0256174
0.0341876
0.041191
0.0463263
0.0493858
0.0502611
0.0489432
0.0455174
0.0401555
0.0331043
0.0246737
0.0152223
0.00514451
0.0045036
0.013303
0.0214899
0.0286923
0.0345896
0.0389271
0.041527
0.0422934
0.0412134
0.038354
0.033856
0.027925
0.0208215
0.0128492
0.00434308
0.00378032
0.011168
0.0180458
0.0241031
0.0290708
0.0327341
0.034941
0.0356074
0.0347188
0.0323281
0.0285511
0.0235595
0.0175724
0.0108466
0.00366663
0.00317709
0.00938697
0.0151713
0.0202701
0.0244576
0.0275522
0.0294242
0.0300007
0.0292668
0.0272645
0.0240894
0.0198851
0.0148359
0.00915933
0.00309656
0.00267401
0.00790135
0.0127726
0.0170698
0.020603
0.0232188
0.0248068
0.0253037
0.0246952
0.023015
0.0203422
0.016797
0.012535
0.00774011
0.00261698
0.00225472
0.00666293
0.0107723
0.0143998
0.0173852
0.0195988
0.0209466
0.0213741
0.0208676
0.0194545
0.0172005
0.0142066
0.0106041
0.00654872
0.00221432
0.0019057
0.00563192
0.00910663
0.0121755
0.0147032
0.0165799
0.0177254
0.0180927
0.0176694
0.0164776
0.0145724
0.0120386
0.00898744
0.00555101
0.00187708
0.00161581
0.00477548
0.00772266
0.0103268
0.0124732
0.0140685
0.0150443
0.01536
0.0150046
0.013996
0.0123805
0.0102298
0.00763822
0.00471817
0.00159554
0.00137588
0.00406655
0.00657683
0.00879575
0.0106258
0.0119871
0.0128213
0.0130933
0.0127932
0.0119358
0.0105601
0.00872705
0.00651701
0.00402595
0.00136152
0.00117834
0.00348285