# vtk DataFile Version 2.0
generated by CFD-lab course output (written by Tobias Neckel) 
ASCII

DATASET STRUCTURED_GRID
DIMENSIONS  99 19 1 
POINTS 1881 float

0.000000 0.000000 0
0.100000 0.000000 0
0.200000 0.000000 0
0.300000 0.000000 0
0.400000 0.000000 0
0.500000 0.000000 0
0.600000 0.000000 0
0.700000 0.000000 0
0.800000 0.000000 0
0.900000 0.000000 0
1.000000 0.000000 0
1.100000 0.000000 0
1.200000 0.000000 0
1.300000 0.000000 0
1.400000 0.000000 0
1.500000 0.000000 0
1.600000 0.000000 0
1.700000 0.000000 0
1.800000 0.000000 0
1.900000 0.000000 0
2.000000 0.000000 0
2.100000 0.000000 0
2.200000 0.000000 0
2.300000 0.000000 0
2.400000 0.000000 0
2.500000 0.000000 0
2.600000 0.000000 0
2.700000 0.000000 0
2.800000 0.000000 0
2.900000 0.000000 0
3.000000 0.000000 0
3.100000 0.000000 0
3.200000 0.000000 0
3.300000 0.000000 0
3.400000 0.000000 0
3.500000 0.000000 0
3.600000 0.000000 0
3.700000 0.000000 0
3.800000 0.000000 0
3.900000 0.000000 0
4.000000 0.000000 0
4.100000 0.000000 0
4.200000 0.000000 0
4.300000 0.000000 0
4.400000 0.000000 0
4.500000 0.000000 0
4.600000 0.000000 0
4.700000 0.000000 0
4.800000 0.000000 0
4.900000 0.000000 0
5.000000 0.000000 0
5.100000 0.000000 0
5.200000 0.000000 0
5.300000 0.000000 0
5.400000 0.000000 0
5.500000 0.000000 0
5.600000 0.000000 0
5.700000 0.000000 0
5.800000 0.000000 0
5.900000 0.000000 0
6.000000 0.000000 0
6.100000 0.000000 0
6.200000 0.000000 0
6.300000 0.000000 0
6.400000 0.000000 0
6.500000 0.000000 0
6.600000 0.000000 0
6.700000 0.000000 0
6.800000 0.000000 0
6.900000 0.000000 0
7.000000 0.000000 0
7.100000 0.000000 0
7.200000 0.000000 0
7.300000 0.000000 0
7.400000 0.000000 0
7.500000 0.000000 0
7.600000 0.000000 0
7.700000 0.000000 0
7.800000 0.000000 0
7.900000 0.000000 0
8.000000 0.000000 0
8.100000 0.000000 0
8.200000 0.000000 0
8.300000 0.000000 0
8.400000 0.000000 0
8.500000 0.000000 0
8.600000 0.000000 0
8.700000 0.000000 0
8.800000 0.000000 0
8.900000 0.000000 0
9.000000 0.000000 0
9.100000 0.000000 0
9.200000 0.000000 0
9.300000 0.000000 0
9.400000 0.000000 0
9.500000 0.000000 0
9.600000 0.000000 0
9.700000 0.000000 0
9.800000 0.000000 0
0.000000 0.100000 0
0.100000 0.100000 0
0.200000 0.100000 0
0.300000 0.100000 0
0.400000 0.100000 0
0.500000 0.100000 0
0.600000 0.100000 0
0.700000 0.100000 0
0.800000 0.100000 0
0.900000 0.100000 0
1.000000 0.100000 0
1.100000 0.100000 0
1.200000 0.100000 0
1.300000 0.100000 0
1.400000 0.100000 0
1.500000 0.100000 0
1.600000 0.100000 0
1.700000 0.100000 0
1.800000 0.100000 0
1.900000 0.100000 0
2.000000 0.100000 0
2.100000 0.100000 0
2.200000 0.100000 0
2.300000 0.100000 0
2.400000 0.100000 0
2.500000 0.100000 0
2.600000 0.100000 0
2.700000 0.100000 0
2.800000 0.100000 0
2.900000 0.100000 0
3.000000 0.100000 0
3.100000 0.100000 0
3.200000 0.100000 0
3.300000 0.100000 0
3.400000 0.100000 0
3.500000 0.100000 0
3.600000 0.100000 0
3.700000 0.100000 0
3.800000 0.100000 0
3.900000 0.100000 0
4.000000 0.100000 0
4.100000 0.100000 0
4.200000 0.100000 0
4.300000 0.100000 0
4.400000 0.100000 0
4.500000 0.100000 0
4.600000 0.100000 0
4.700000 0.100000 0
4.800000 0.100000 0
4.900000 0.100000 0
5.000000 0.100000 0
5.100000 0.100000 0
5.200000 0.100000 0
5.300000 0.100000 0
5.400000 0.100000 0
5.500000 0.100000 0
5.600000 0.100000 0
5.700000 0.100000 0
5.800000 0.100000 0
5.900000 0.100000 0
6.000000 0.100000 0
6.100000 0.100000 0
6.200000 0.100000 0
6.300000 0.100000 0
6.400000 0.100000 0
6.500000 0.100000 0
6.600000 0.100000 0
6.700000 0.100000 0
6.800000 0.100000 0
6.900000 0.100000 0
7.000000 0.100000 0
7.100000 0.100000 0
7.200000 0.100000 0
7.300000 0.100000 0
7.400000 0.100000 0
7.500000 0.100000 0
7.600000 0.100000 0
7.700000 0.100000 0
7.800000 0.100000 0
7.900000 0.100000 0
8.000000 0.100000 0
8.100000 0.100000 0
8.200000 0.100000 0
8.300000 0.100000 0
8.400000 0.100000 0
8.500000 0.100000 0
8.600000 0.100000 0
8.700000 0.100000 0
8.800000 0.100000 0
8.900000 0.100000 0
9.000000 0.100000 0
9.100000 0.100000 0
9.200000 0.100000 0
9.300000 0.100000 0
9.400000 0.100000 0
9.500000 0.100000 0
9.600000 0.100000 0
9.700000 0.100000 0
9.800000 0.100000 0
0.000000 0.200000 0
0.100000 0.200000 0
0.200000 0.200000 0
0.300000 0.200000 0
0.400000 0.200000 0
0.500000 0.200000 0
0.600000 0.200000 0
0.700000 0.200000 0
0.800000 0.200000 0
0.900000 0.200000 0
1.000000 0.200000 0
1.100000 0.200000 0
1.200000 0.200000 0
1.300000 0.200000 0
1.400000 0.200000 0
1.500000 0.200000 0
1.600000 0.200000 0
1.700000 0.200000 0
1.800000 0.200000 0
1.900000 0.200000 0
2.000000 0.200000 0
2.100000 0.200000 0
2.200000 0.200000 0
2.300000 0.200000 0
2.400000 0.200000 0
2.500000 0.200000 0
2.600000 0.200000 0
2.700000 0.200000 0
2.800000 0.200000 0
2.900000 0.200000 0
3.000000 0.200000 0
3.100000 0.200000 0
3.200000 0.200000 0
3.300000 0.200000 0
3.400000 0.200000 0
3.500000 0.200000 0
3.600000 0.200000 0
3.700000 0.200000 0
3.800000 0.200000 0
3.900000 0.200000 0
4.000000 0.200000 0
4.100000 0.200000 0
4.200000 0.200000 0
4.300000 0.200000 0
4.400000 0.200000 0
4.500000 0.200000 0
4.600000 0.200000 0
4.700000 0.200000 0
4.800000 0.200000 0
4.900000 0.200000 0
5.000000 0.200000 0
5.100000 0.200000 0
5.200000 0.200000 0
5.300000 0.200000 0
5.400000 0.200000 0
5.500000 0.200000 0
5.600000 0.200000 0
5.700000 0.200000 0
5.800000 0.200000 0
5.900000 0.200000 0
6.000000 0.200000 0
6.100000 0.200000 0
6.200000 0.200000 0
6.300000 0.200000 0
6.400000 0.200000 0
6.500000 0.200000 0
6.600000 0.200000 0
6.700000 0.200000 0
6.800000 0.200000 0
6.900000 0.200000 0
7.000000 0.200000 0
7.100000 0.200000 0
7.200000 0.200000 0
7.300000 0.200000 0
7.400000 0.200000 0
7.500000 0.200000 0
7.600000 0.200000 0
7.700000 0.200000 0
7.800000 0.200000 0
7.900000 0.200000 0
8.000000 0.200000 0
8.100000 0.200000 0
8.200000 0.200000 0
8.300000 0.200000 0
8.400000 0.200000 0
8.500000 0.200000 0
8.600000 0.200000 0
8.700000 0.200000 0
8.800000 0.200000 0
8.900000 0.200000 0
9.000000 0.200000 0
9.100000 0.200000 0
9.200000 0.200000 0
9.300000 0.200000 0
9.400000 0.200000 0
9.500000 0.200000 0
9.600000 0.200000 0
9.700000 0.200000 0
9.800000 0.200000 0
0.000000 0.300000 0
0.100000 0.300000 0
0.200000 0.300000 0
0.300000 0.300000 0
0.400000 0.300000 0
0.500000 0.300000 0
0.600000 0.300000 0
0.700000 0.300000 0
0.800000 0.300000 0
0.900000 0.300000 0
1.000000 0.300000 0
1.100000 0.300000 0
1.200000 0.300000 0
1.300000 0.300000 0
1.400000 0.300000 0
1.500000 0.300000 0
1.600000 0.300000 0
1.700000 0.300000 0
1.800000 0.300000 0
1.900000 0.300000 0
2.000000 0.300000 0
2.100000 0.300000 0
2.200000 0.300000 0
2.300000 0.300000 0
2.400000 0.300000 0
2.500000 0.300000 0
2.600000 0.300000 0
2.700000 0.300000 0
2.800000 0.300000 0
2.900000 0.300000 0
3.000000 0.300000 0
3.100000 0.300000 0
3.200000 0.300000 0
3.300000 0.300000 0
3.400000 0.300000 0
3.500000 0.300000 0
3.600000 0.300000 0
3.700000 0.300000 0
3.800000 0.300000 0
3.900000 0.300000 0
4.000000 0.300000 0
4.100000 0.300000 0
4.200000 0.300000 0
4.300000 0.300000 0
4.400000 0.300000 0
4.500000 0.300000 0
4.600000 0.300000 0
4.700000 0.300000 0
4.800000 0.300000 0
4.900000 0.300000 0
5.000000 0.300000 0
5.100000 0.300000 0
5.200000 0.300000 0
5.300000 0.300000 0
5.400000 0.300000 0
5.500000 0.300000 0
5.600000 0.300000 0
5.700000 0.300000 0
5.800000 0.300000 0
5.900000 0.300000 0
6.000000 0.300000 0
6.100000 0.300000 0
6.200000 0.300000 0
6.300000 0.300000 0
6.400000 0.300000 0
6.500000 0.300000 0
6.600000 0.300000 0
6.700000 0.300000 0
6.800000 0.300000 0
6.900000 0.300000 0
7.000000 0.300000 0
7.100000 0.300000 0
7.200000 0.300000 0
7.300000 0.300000 0
7.400000 0.300000 0
7.500000 0.300000 0
7.600000 0.300000 0
7.700000 0.300000 0
7.800000 0.300000 0
7.900000 0.300000 0
8.000000 0.300000 0
8.100000 0.300000 0
8.200000 0.300000 0
8.300000 0.300000 0
8.400000 0.300000 0
8.500000 0.300000 0
8.600000 0.300000 0
8.700000 0.300000 0
8.800000 0.300000 0
8.900000 0.300000 0
9.000000 0.300000 0
9.100000 0.300000 0
9.200000 0.300000 0
9.300000 0.300000 0
9.400000 0.300000 0
9.500000 0.300000 0
9.600000 0.300000 0
9.700000 0.300000 0
9.800000 0.300000 0
0.000000 0.400000 0
0.100000 0.400000 0
0.200000 0.400000 0
0.300000 0.400000 0
0.400000 0.400000 0
0.500000 0.400000 0
0.600000 0.400000 0
0.700000 0.400000 0
0.800000 0.400000 0
0.900000 0.400000 0
1.000000 0.400000 0
1.100000 0.400000 0
1.200000 0.400000 0
1.300000 0.400000 0
1.400000 0.400000 0
1.500000 0.400000 0
1.600000 0.400000 0
1.700000 0.400000 0
1.800000 0.400000 0
1.900000 0.400000 0
2.000000 0.400000 0
2.100000 0.400000 0
2.200000 0.400000 0
2.300000 0.400000 0
2.400000 0.400000 0
2.500000 0.400000 0
2.600000 0.400000 0
2.700000 0.400000 0
2.800000 0.400000 0
2.900000 0.400000 0
3.000000 0.400000 0
3.100000 0.400000 0
3.200000 0.400000 0
3.300000 0.400000 0
3.400000 0.400000 0
3.500000 0.400000 0
3.600000 0.400000 0
3.700000 0.400000 0
3.800000 0.400000 0
3.900000 0.400000 0
4.000000 0.400000 0
4.100000 0.400000 0
4.200000 0.400000 0
4.300000 0.400000 0
4.400000 0.400000 0
4.500000 0.400000 0
4.600000 0.400000 0
4.700000 0.400000 0
4.800000 0.400000 0
4.900000 0.400000 0
5.000000 0.400000 0
5.100000 0.400000 0
5.200000 0.400000 0
5.300000 0.400000 0
5.400000 0.400000 0
5.500000 0.400000 0
5.600000 0.400000 0
5.700000 0.400000 0
5.800000 0.400000 0
5.900000 0.400000 0
6.000000 0.400000 0
6.100000 0.400000 0
6.200000 0.400000 0
6.300000 0.400000 0
6.400000 0.400000 0
6.500000 0.400000 0
6.600000 0.400000 0
6.700000 0.400000 0
6.800000 0.400000 0
6.900000 0.400000 0
7.000000 0.400000 0
7.100000 0.400000 0
7.200000 0.400000 0
7.300000 0.400000 0
7.400000 0.400000 0
7.500000 0.400000 0
7.600000 0.400000 0
7.700000 0.400000 0
7.800000 0.400000 0
7.900000 0.400000 0
8.000000 0.400000 0
8.100000 0.400000 0
8.200000 0.400000 0
8.300000 0.400000 0
8.400000 0.400000 0
8.500000 0.400000 0
8.600000 0.400000 0
8.700000 0.400000 0
8.800000 0.400000 0
8.900000 0.400000 0
9.000000 0.400000 0
9.100000 0.400000 0
9.200000 0.400000 0
9.300000 0.400000 0
9.400000 0.400000 0
[...]
POINT_DATA 1881 

VECTORS velocity float
0.500000 0.000000 0
0.502077 0.000000 0
0.506694 0.000000 0
0.514275 0.000000 0
0.525234 0.000000 0
0.539898 0.000000 0
0.558290 0.000000 0
0.579842 0.000000 0
0.603170 0.000000 0
0.625995 0.000000 0
0.646410 0.000000 0
0.663461 0.000000 0
0.677001 0.000000 0
0.687303 0.000000 0
0.694739 0.000000 0
0.699549 0.000000 0
0.701764 0.000000 0
0.701267 0.000000 0
0.697892 0.000000 0
0.691575 0.000000 0
0.682445 0.000000 0
0.670851 0.000000 0
0.657323 0.000000 0
0.642536 0.000000 0
0.627252 0.000000 0
0.612279 0.000000 0
0.598423 0.000000 0
0.586450 0.000000 0
0.577078 0.000000 0
0.570990 0.000000 0
0.568884 0.000000 0
0.571305 0.000000 0
0.578302 0.000000 0
0.589210 0.000000 0
0.602530 0.000000 0
0.616099 0.000000 0
0.627559 0.000000 0
0.635012 0.000000 0
0.637523 0.000000 0
0.635049 0.000000 0
0.628009 0.000000 0
0.617121 0.000000 0
0.603261 0.000000 0
0.587337 0.000000 0
0.570231 0.000000 0
0.552767 0.000000 0
0.535722 0.000000 0
0.519851 0.000000 0
0.505912 0.000000 0
0.494701 0.000000 0
0.487055 0.000000 0
0.483775 0.000000 0
0.485313 0.000000 0
0.491561 0.000000 0
0.502131 0.000000 0
0.516427 0.000000 0
0.533647 0.000000 0
0.552742 0.000000 0
0.572347 0.000000 0
0.590725 0.000000 0
0.605894 0.000000 0
0.616010 0.000000 0
0.619968 0.000000 0
0.617680 0.000000 0
0.609575 0.000000 0
0.596389 0.000000 0
0.579156 0.000000 0
0.559152 0.000000 0
0.537808 0.000000 0
0.516634 0.000000 0
0.497126 0.000000 0
0.480663 0.000000 0
0.468373 0.000000 0
0.460980 0.000000 0
0.458646 0.000000 0
0.460755 0.000000 0
0.466281 0.000000 0
0.474352 0.000000 0
0.484349 0.000000 0
0.495869 0.000000 0
0.508632 0.000000 0
0.522357 0.000000 0
0.536613 0.000000 0
0.550707 0.000000 0
0.563631 0.000000 0
0.574142 0.000000 0
0.581008 0.000000 0
0.583372 0.000000 0
0.580951 0.000000 0
0.573792 0.000000 0
0.562221 0.000000 0
0.546931 0.000000 0
0.529043 0.000000 0
0.510117 0.000000 0
0.492055 0.000000 0
0.476854 0.000000 0
0.466278 0.000000 0
0.461649 0.000000 0
0.464301 0.000000 0
1.000000 -0.002066 0
1.004711 -0.006683 0
1.014575 -0.012198 0
1.030351 -0.018543 0
1.052950 -0.025628 0
1.083216 -0.033062 0
1.121480 -0.039952 0
1.166839 -0.044885 0
1.216576 -0.046154 0
1.264895 -0.043230 0
1.307403 -0.037442 0
1.342385 -0.030560 0
1.369937 -0.023810 0
1.390947 -0.017712 0
1.406382 -0.012231 0
1.416837 -0.007014 0
1.422335 -0.001701 0
1.422448 0.003890 0
1.416707 0.009706 0
1.404893 0.015459 0
1.387247 0.020733 0
1.364490 0.025128 0
1.337740 0.028317 0
1.308393 0.030070 0
1.278024 0.030253 0
1.248290 0.028824 0
1.220839 0.025822 0
1.197219 0.021338 0
1.178840 0.015453 0
1.166982 0.008187 0
1.162873 -0.000319 0
1.167594 -0.009416 0
1.181580 -0.017895 0
1.203912 -0.024213 0
1.231879 -0.026869 0
1.261204 -0.025006 0
1.286923 -0.018889 0
1.304695 -0.009941 0
1.312038 -0.000020 0
1.308685 0.009526 0
1.295667 0.017939 0
1.274630 0.024758 0
1.247480 0.029793 0
1.216144 0.033038 0
1.182444 0.034577 0
1.148061 0.034514 0
1.114560 0.032921 0
1.083432 0.029814 0
1.056112 0.025153 0
1.033964 0.018860 0
1.018185 0.010927 0
1.009675 0.001743 0
1.008987 -0.007784 0
1.016309 -0.016817 0
1.031438 -0.024864 0
1.053775 -0.031511 0
1.082338 -0.036308 0
1.115737 -0.038690 0
1.152003 -0.037970 0
1.188378 -0.033533 0
1.221319 -0.025269 0
1.246893 -0.014057 0
1.261605 -0.001653 0
1.263565 0.010407 0
1.253262 0.021304 0
1.232259 0.030430 0
1.202715 0.037245 0
1.167209 0.041355 0
1.128579 0.042524 0
1.089736 0.040688 0
1.053473 0.035977 0
1.022208 0.028759 0
0.997713 0.019688 0
0.980868 0.009732 0
0.971628 0.000231 0
0.969302 -0.007629 0
0.972832 -0.013592 0
0.981132 -0.018063 0
0.993392 -0.021512 0
1.009128 -0.024277 0
1.028082 -0.026481 0
1.050021 -0.027974 0
1.074438 -0.028343 0
1.100303 -0.027010 0
1.125947 -0.023427 0
1.149130 -0.017370 0
1.167279 -0.009223 0
1.177927 0.000065 0
1.179401 0.009587 0
1.171538 0.018737 0
1.155101 0.026868 0
1.131556 0.033184 0
1.103065 0.036819 0
1.072381 0.036992 0
1.042591 0.033266 0
1.016666 0.025780 0
0.996957 0.015207 0
0.984849 0.001978 0
0.981356 -0.006861 0
1.000000 -0.004698 0
1.004859 -0.014563 0
1.014716 -0.025643 0
1.030357 -0.038380 0
1.053014 -0.052872 0
1.084173 -0.068538 0
1.125155 -0.083630 0
1.175974 -0.095098 0
1.234850 -0.098047 0
1.290140 -0.090800 0
1.335736 -0.077451 0
1.371121 -0.062495 0
1.397883 -0.048530 0
1.417991 -0.036425 0
1.433126 -0.025880 0
1.444247 -0.015936 0
1.451214 -0.005588 0
1.453025 0.005646 0
1.448713 0.017570 0
1.437755 0.029473 0
1.420353 0.040411 0
1.397331 0.049511 0
1.369949 0.056098 0
1.339733 0.059713 0
1.308368 0.060097 0
1.277613 0.057177 0
1.249188 0.051062 0
1.224649 0.041991 0
1.205298 0.030229 0
1.192215 0.015961 0
1.186463 -0.000609 0
1.189393 -0.018697 0
1.202157 -0.036301 0
1.224564 -0.050274 0
1.254505 -0.057263 0
1.288089 -0.055014 0
1.320059 -0.043463 0
1.344727 -0.025093 0
1.357750 -0.003975 0
1.358079 0.016383 0
1.347372 0.034067 0
1.327852 0.048198 0
1.301840 0.058496 0
1.271493 0.065045 0
1.238716 0.068091 0
1.205167 0.067890 0
1.172313 0.064634 0
1.141476 0.058453 0
1.113830 0.049471 0
1.090332 0.037929 0
1.071600 0.024291 0
1.057861 0.009200 0
1.049227 -0.006632 0
1.046032 -0.022448 0
1.048669 -0.037460 0
1.057440 -0.050891 0
1.072623 -0.061950 0
1.094405 -0.069650 0
1.122444 -0.072622 0
1.155371 -0.069295 0
1.190552 -0.058494 0
1.224153 -0.040266 0
1.251485 -0.016653 0
1.268080 0.008359 0
1.271972 0.031318 0
1.264344 0.050557 0
1.247178 0.065059 0
1.222859 0.074145 0
1.193955 0.077481 0
1.163006 0.075113 0
1.132314 0.067536 0
1.103731 0.055768 0
1.078484 0.041347 0
1.057129 0.026092 0
1.039702 0.011573 0
1.026159 -0.001196 0
1.016438 -0.011824 0
1.010358 -0.020554 0
1.007942 -0.027988 0
1.009536 -0.034682 0
1.015687 -0.040885 0
1.026895 -0.046346 0
1.043218 -0.050272 0
1.064026 -0.051500 0
1.087989 -0.048818 0
1.113197 -0.041322 0
1.137271 -0.028788 0
1.157475 -0.012112 0
1.171125 0.006399 0
1.176660 0.024309 0
1.174394 0.039989 0
1.165437 0.052043 0
1.151395 0.059181 0
1.134110 0.060479 0
1.115365 0.055720 0
1.096619 0.045636 0
1.078834 0.031819 0
1.062359 0.015602 0
1.046811 0.004679 0
1.000000 -0.006921 0
1.003873 -0.021397 0
1.012006 -0.037702 0
1.025417 -0.056845 0
1.045862 -0.079448 0
1.075935 -0.105205 0
1.118952 -0.131748 0
1.177359 -0.154570 0
1.254833 -0.160297 0
1.319803 -0.144087 0
1.365638 -0.118404 0
1.396825 -0.092699 0
1.418183 -0.070684 0
1.433354 -0.052967 0
1.445164 -0.038489 0
1.455327 -0.025089 0
1.463581 -0.010471 0
1.467555 0.006394 0
1.464875 0.024978 0
1.454380 0.043818 0
1.436278 0.061155 0
1.411658 0.075528 0
1.382030 0.085912 0
1.349111 0.091647 0
1.314752 0.092369 0
1.280876 0.088002 0
1.249363 0.078785 0
1.221832 0.065226 0
1.199416 0.047888 0
1.182760 0.027029 0
1.172371 0.002515 0
1.169302 -0.025095 0
1.175453 -0.053049 0
1.191685 -0.076544 0
1.217361 -0.090379 0
1.250604 -0.090549 0
1.287648 -0.075522 0
1.322342 -0.047634 0
1.347242 -0.013375 0
1.357017 0.019907 0
1.352634 0.048170 0
1.337351 0.070292 0
1.314236 0.086154 0
1.285907 0.096163 0
1.254488 0.100906 0
1.221679 0.100919 0
1.188863 0.096612 0
1.157189 0.088298 0
1.127619 0.076298 0
1.100895 0.061091 0
1.077457 0.043399 0
1.057313 0.024117 0
1.040007 0.004046 0
1.024992 -0.016254 0
1.012549 -0.036265 0
1.004476 -0.055457 0
1.003223 -0.073262 0
1.011048 -0.088499 0
1.028899 -0.098925 0
1.055929 -0.101631 0
1.089771 -0.094043 0
1.127003 -0.074984 0
1.163452 -0.045577 0
1.194313 -0.010078 0
1.214791 0.025041 0
1.223513 0.055225 0
1.221785 0.078732 0
1.211434 0.094581 0
1.194509 0.102381 0
1.173040 0.102332 0
1.148864 0.095255 0
1.123509 0.082593 0
1.098161 0.066293 0
1.073680 0.048517 0
1.050595 0.031205 0
1.029052 0.015637 0
1.009104 0.002212 0
0.991089 -0.009564 0
0.975947 -0.020685 0
0.965373 -0.032017 0
0.961165 -0.043836 0
0.964393 -0.055500 0
0.975028 -0.065469 0
0.992071 -0.071776 0
1.013926 -0.072594 0
1.038731 -0.066647 0
1.064563 -0.053497 0
1.089495 -0.033786 0
1.111443 -0.009594 0
1.128018 0.015472 0
1.138027 0.038094 0
1.141721 0.056185 0
1.139790 0.068148 0
1.133107 0.073023 0
1.122514 0.070759 0
1.108750 0.062311 0
1.092479 0.049466 0
1.074319 0.034000 0
1.054526 0.023368 0
1.000000 -0.008567 0
1.002462 -0.026568 0
1.007821 -0.047191 0
1.017196 -0.072238 0
1.032753 -0.103390 0
1.058350 -0.141628 0
1.100404 -0.185047 0
1.166839 -0.230962 0
1.280558 -0.240467 0
1.350115 -0.201587 0
1.383663 -0.154468 0
1.400104 -0.115043 0
1.408145 -0.085068 0
1.412116 -0.063410 0
1.415703 -0.047842 0
1.422140 -0.034343 0
1.432192 -0.017813 0
1.441693 0.004355 0
1.443854 0.030746 0
1.436298 0.058068 0
1.419431 0.083130 0
1.394839 0.103756 0
1.364313 0.118641 0
1.329660 0.126988 0
1.292808 0.128330 0
1.255869 0.122564 0
1.221021 0.110106 0
1.190097 0.091939 0
1.163970 0.069307 0
1.142282 0.043017 0
1.123969 0.012861 0
1.108041 -0.021764 0
1.095881 -0.058667 0
1.091966 -0.092168 0
1.099988 -0.116172 0
1.122342 -0.125296 0
1.158144 -0.115202 0
1.202355 -0.084690 0
1.246098 -0.038647 0
1.278542 0.010996 0
1.292966 0.053736 0
1.292418 0.086599 0
1.280730 0.109941 0
1.261066 0.124795 0
1.235929 0.132321 0
1.207300 0.133516 0
1.176764 0.129125 0
1.145609 0.119698 0
1.114874 0.105767 0
1.085270 0.088092 0
1.056906 0.067874 0
1.029004 0.046652 0
1.000210 0.025693 0
0.969960 0.005017 0
0.940078 -0.016936 0
0.915173 -0.041556 0
0.901032 -0.068511 0
0.900697 -0.095315 0
0.913810 -0.117493 0
0.938145 -0.130159 0
0.970829 -0.129562 0
1.008826 -0.113943 0
1.048995 -0.083961 0
1.087901 -0.042979 0
1.121225 0.002120 0
1.144535 0.043565 0
1.157353 0.077141 0
1.160680 0.101424 0
1.155902 0.115878 0
1.144515 0.120762 0
1.127948 0.117071 0
1.107450 0.106475 0
1.084014 0.091179 0
1.058323 0.073660 0
1.030800 0.056204 0
1.001928 0.040297 0
0.972777 0.026143 0
0.945370 0.012607 0
0.922371 -0.002267 0
0.906292 -0.019894 0
0.898891 -0.039899 0
0.900504 -0.060204 0
0.910157 -0.077945 0
0.926238 -0.090393 0
0.947005 -0.095473 0
0.970812 -0.091955 0
0.996167 -0.079547 0
1.021721 -0.058987 0
1.046168 -0.032120 0
1.067929 -0.002272 0
1.084929 0.026290 0
1.096394 0.050283 0
1.102241 0.067798 0
1.102600 0.077757 0
1.097701 0.080077 0
1.087840 0.075671 0
1.073429 0.066250 0
1.055023 0.053555 0
1.033278 0.044424 0
1.000000 -0.009381 0
1.000546 -0.029218 0
1.001914 -0.052437 0
1.004930 -0.081778 0
1.011520 -0.120602 0
1.025968 -0.172851 0
1.057599 -0.240225 0
1.123733 -0.334705 0
1.293835 -0.343557 0
1.335830 -0.247185 0
1.327199 -0.168394 0
1.313167 -0.117190 0
1.298990 -0.082701 0
1.284542 -0.060515 0
1.272233 -0.048500 0
1.267452 -0.041574 0
1.275328 -0.030022 0
1.294574 -0.005268 0
1.311425 0.030372 0
1.315260 0.068239 0
1.307759 0.102611 0
1.291404 0.130643 0
1.267795 0.151088 0
1.238175 0.163151 0
1.204089 0.166159 0
1.167681 0.159788 0
1.131618 0.144557 0
1.098207 0.122281 0
1.067349 0.095712 0
1.035457 0.067042 0
0.998504 0.036769 0
0.956685 0.003008 0
0.915318 -0.036959 0
0.885329 -0.080640 0
0.877205 -0.120749 0
0.892670 -0.148704 0
0.928555 -0.155538 0
0.979680 -0.135587 0
1.039197 -0.089557 0
1.097732 -0.026958 0
1.143168 0.034296 0
1.169754 0.082531 0
1.181015 0.117507 0
1.180176 0.140965 0
1.169849 0.154673 0
1.152219 0.160085 0
1.129116 0.158304 0
1.101963 0.150189 0
1.071569 0.136639 0
1.037799 0.119060 0
0.999607 0.099667 0
0.956179 0.080817 0
0.909063 0.063095 0
0.863330 0.043885 0
0.825857 0.018531 0
0.801869 -0.016401 0
0.793272 -0.058775 0
0.798514 -0.101267 0
0.814665 -0.136365 0
0.839157 -0.158644 0
0.870070 -0.164719 0
0.905729 -0.153147 0
0.944336 -0.124650 0
0.983810 -0.082307 0
1.021622 -0.031591 0
1.053681 0.019100 0
1.076760 0.062590 0
1.090698 0.096035 0
1.096010 0.118548 0
1.093497 0.130289 0
1.084002 0.132324 0
1.068235 0.126530 0
1.046682 0.115423 0
1.019714 0.101735 0
0.988031 0.087602 0
0.953332 0.073664 0
0.918701 0.058774 0
0.888157 0.040846 0
0.865343 0.018399 0
0.852102 -0.008531 0
0.848307 -0.038043 0
0.852593 -0.066761 0
0.863215 -0.091197 0
0.878611 -0.108619 0
0.897528 -0.117163 0
0.918931 -0.115804 0
0.941885 -0.104400 0
0.965488 -0.083782 0
0.988837 -0.055798 0
1.010967 -0.023285 0
1.030355 0.009632 0
1.045341 0.038876 0
1.055228 0.061944 0
1.059600 0.077565 0
1.058226 0.085520 0
1.051045 0.086583 0
1.038226 0.082283 0
1.020275 0.074150 0
0.998177 0.067670 0
1.000000 -0.009112 0
0.998269 -0.028481 0
0.994699 -0.051576 0
0.989239 -0.081844 0
0.982297 -0.124426 0
0.975929 -0.187699 0
0.977396 -0.282799 0
1.008512 -0.467183 0
1.197656 -0.452554 0
1.146383 -0.234949 0
1.056218 -0.131810 0
1.006621 -0.086841 0
0.972408 -0.056438 0
0.940610 -0.036640 0
0.907416 -0.030745 0
0.882179 -0.037435 0
0.880490 -0.044934 0
0.910871 -0.031744 0
0.961884 0.010058 0
1.005206 0.061733 0
1.030034 0.106984 0
1.042363 0.143718 0
1.043205 0.171869 0
1.032363 0.190692 0
1.010133 0.198823 0
0.977125 0.195036 0
0.933695 0.179582 0
0.879938 0.156217 0
0.817328 0.132067 0
0.750930 0.111874 0
0.689260 0.091648 0
0.641948 0.061436 0
0.615812 0.012701 0
0.611300 -0.054048 0
0.625239 -0.123510 0
0.654348 -0.176648 0
0.696333 -0.202214 0
0.749689 -0.195327 0
0.812449 -0.156694 0
0.880946 -0.092972 0
0.947772 -0.018284 0
1.000791 0.048754 0
1.036342 0.099520 0
1.056938 0.135961 0
1.064613 0.160279 0
1.061156 0.174251 0
1.048043 0.179382 0
1.026152 0.177247 0
0.995464 0.169933 0
0.955289 0.160055 0
0.905729 0.149496 0
0.850085 0.137201 0
0.795974 0.118548 0
0.752845 0.088230 0
0.727263 0.044535 0
0.719834 -0.008961 0
0.725528 -0.065146 0
0.738787 -0.116699 0
0.756566 -0.158129 0
0.777972 -0.185559 0
0.803155 -0.196132 0
0.832306 -0.188207 0
0.864999 -0.162040 0
0.900027 -0.120262 0
0.935602 -0.067748 0
0.969335 -0.011569 0
0.997195 0.040127 0
1.017319 0.082177 0
1.029275 0.113082 0
1.033052 0.132773 0
1.028770 0.142336 0
1.016536 0.143798 0
0.996536 0.139702 0
0.969467 0.132313 0
0.937168 0.122590 0
0.902976 0.109632 0
0.871211 0.091322 0
0.845868 0.065971 0
0.829337 0.033794 0
0.821973 -0.002853 0
0.822345 -0.040385 0
0.828382 -0.075107 0
0.838416 -0.103958 0
0.851381 -0.124700 0
0.866673 -0.135787 0
0.883912 -0.136306 0
0.902716 -0.126099 0
0.922574 -0.105934 0
0.942824 -0.077594 0
0.962674 -0.043786 0
0.981161 -0.008082 0
0.996613 0.025413 0
1.007792 0.053542 0
1.013911 0.074760 0
1.014430 0.088632 0
1.009079 0.095672 0
0.997975 0.097020 0
0.981793 0.093603 0
0.962033 0.089654 0
1.000000 -0.007649 0
0.996047 -0.023916 0
0.987520 -0.043407 0
0.973076 -0.069375 0
0.950385 -0.107288 0
0.915711 -0.167941 0
0.863318 -0.272795 0
0.789110 -0.554952 0
0.550989 -0.385046 0
0.492105 0.000000 0
0.421787 -0.019265 0
0.360109 -0.033378 0
0.344943 -0.016678 0
0.339901 0.004486 0
0.327838 0.009936 0
0.319221 -0.014647 0
0.332608 -0.058716 0
0.380261 -0.086662 0
0.462045 -0.063964 0
0.557329 0.000087 0
0.636186 0.065452 0
0.690144 0.117471 0
0.723979 0.161087 0
0.736931 0.196223 0
0.728313 0.221397 0
0.697731 0.236227 0
0.645686 0.241750 0
0.575982 0.238658 0
0.499139 0.224731 0
0.432244 0.195124 0
0.391756 0.145766 0
0.384828 0.076468 0
0.406984 -0.006302 0
0.442973 -0.090062 0
0.479632 -0.163797 0
0.514601 -0.219800 0
0.551175 -0.250876 0
0.593817 -0.251698 0
0.645449 -0.220811 0
0.706025 -0.162278 0
0.772349 -0.085547 0
0.836542 -0.006038 0
0.887547 0.061361 0
0.923228 0.112696 0
0.944469 0.150456 0
0.952037 0.176656 0
0.946472 0.193309 0
0.927940 0.202770 0
0.896598 0.207504 0
0.853923 0.208798 0
0.804551 0.204875 0
0.756689 0.190578 0
0.719409 0.160342 0
0.698323 0.112604 0
0.693420 0.051551 0
0.700481 -0.014655 0
0.713418 -0.077718 0
0.727792 -0.132297 0
0.741846 -0.175544 0
0.755850 -0.205229 0
0.771299 -0.219052 0
0.789964 -0.214989 0
0.812911 -0.192368 0
0.839917 -0.152907 0
0.869591 -0.100896 0
0.899865 -0.042490 0
0.927756 0.014610 0
0.949937 0.063959 0
0.965035 0.102819 0
0.972297 0.130797 0
0.971271 0.148843 0
0.961796 0.158766 0
0.944311 0.162496 0
0.920358 0.161107 0
0.892884 0.154096 0
0.865854 0.139626 0
0.843118 0.115887 0
0.827173 0.082726 0
0.818650 0.042300 0
0.816716 -0.001533 0
0.819753 -0.044447 0
0.825976 -0.082827 0
0.834094 -0.114190 0
0.843436 -0.136870 0
0.853862 -0.149688 0
0.865541 -0.151840 0
0.878673 -0.143057 0
0.893235 -0.123885 0
0.908868 -0.095892 0
0.924908 -0.061618 0
0.940474 -0.024304 0
0.954323 0.012248 0
0.964943 0.044648 0
0.971321 0.070929 0
0.972768 0.090353 0
0.968967 0.103038 0
0.960104 0.109570 0
0.947013 0.110091 0
0.931368 0.108026 0
1.000000 -0.005158 0
0.994456 -0.016000 0
0.982354 -0.028603 0
0.961325 -0.044706 0
0.926749 -0.067056 0
0.869549 -0.100622 0
0.770377 -0.156185 0
0.587141 -0.251218 0
0.000000 -0.155544 0
0.000000 0.000000 0
0.000000 0.000000 0
-0.028822 -0.019548 0
-0.044887 -0.036221 0
-0.062652 -0.019531 0
-0.083044 -0.010063 0
-0.089607 -0.042205 0
-0.069479 -0.105976 0
-0.024418 -0.161182 0
0.047986 -0.167012 0
0.153324 -0.112411 0
0.261891 -0.025832 0
0.347152 0.055924 0
0.404699 0.125081 0
0.435774 0.186359 0
0.440936 0.238025 0
0.422406 0.277666 0
0.386438 0.301339 0
0.344952 0.302774 0
0.313317 0.275818 0
0.303987 0.219272 0
0.320907 0.139077 0
0.358657 0.046219 0
0.402633 -0.045439 0
0.440640 -0.126694 0
0.469119 -0.195139 0
0.488975 -0.248189 0
0.504841 -0.281424 0
0.523518 -0.289598 0
0.551432 -0.268900 0
0.591853 -0.219870 0
0.643566 -0.148801 0
0.701597 -0.066443 0
0.756225 0.012835 0
0.798376 0.079040 0
0.826374 0.131472 0
0.839882 0.172249 0
0.838843 0.203480 0
0.823768 0.227123 0
0.796699 0.243952 0
0.762394 0.252106 0
0.728445 0.246736 0
0.703070 0.222349 0
0.691509 0.176922 0
0.693960 0.114229 0
0.706667 0.042387 0
0.724177 -0.028949 0
0.741187 -0.092448 0
0.754866 -0.145120 0
0.764204 -0.186183 0
0.769815 -0.215009 0
0.773795 -0.230243 0
0.779161 -0.229815 0
0.788734 -0.211991 0
0.803937 -0.176940 0
0.824281 -0.127693 0
0.847804 -0.069732 0
0.871846 -0.009941 0
0.892777 0.044902 0
0.908230 0.090725 0
0.916895 0.126539 0
0.918055 0.152841 0
0.911664 0.170761 0
0.898668 0.181143 0
0.881256 0.183743 0
0.862643 0.177098 0
0.846222 0.159403 0
0.834469 0.130009 0
0.828313 0.090445 0
0.827296 0.044257 0
0.830210 -0.003950 0
0.835518 -0.049640 0
0.841777 -0.089442 0
0.847957 -0.121412 0
0.853571 -0.144462 0
0.858721 -0.157885 0
0.863996 -0.161111 0
0.870199 -0.153788 0
0.877961 -0.136125 0
0.887448 -0.109262 0
0.898279 -0.075387 0
0.909657 -0.037493 0
0.920525 0.000946 0
0.929453 0.036546 0
0.935316 0.066937 0
0.937382 0.090987 0
0.935355 0.108336 0
0.929473 0.118973 0
0.920555 0.122339 0
0.910033 0.121462 0
1.000000 -0.002104 0
0.993940 -0.006267 0
0.980757 -0.010273 0
0.957988 -0.013766 0
0.920945 -0.015504 0
0.860949 -0.011557 0
0.761513 0.009626 0
0.589552 0.112997 0
0.275866 0.099662 0
0.000000 0.000000 0
0.000000 0.000000 0
0.000000 0.000000 0
-0.021502 0.015199 0
-0.107073 0.042644 0
-0.171291 0.036892 0
-0.191704 -0.028214 0
-0.177978 -0.123907 0
-0.154058 -0.204129 0
-0.119831 -0.241708 0
-0.062832 -0.213820 0
0.018239 -0.128378 0
0.104887 -0.025337 0
0.174244 0.072466 0
0.220540 0.159987 0
0.246459 0.234767 0
0.256790 0.290731 0
0.260539 0.319214 0
0.269493 0.311790 0
0.293575 0.265709 0
0.336380 0.187548 0
0.394173 0.091109 0
0.454885 -0.005249 0
0.504141 -0.088281 0
0.538255 -0.156547 0
0.556514 -0.212132 0
0.560003 -0.255519 0
0.552662 -0.285415 0
0.541709 -0.298286 0
0.536370 -0.289145 0
0.544590 -0.254411 0
0.569442 -0.195289 0
0.607950 -0.118697 0
0.652844 -0.035417 0
0.693233 0.042548 0
0.722632 0.108951 0
0.739340 0.164188 0
0.743232 0.209425 0
0.735872 0.244916 0
0.721127 0.268880 0
0.705153 0.277057 0
0.694877 0.264206 0
0.695226 0.227521 0
0.707123 0.169461 0
0.727879 0.097455 0
0.753148 0.021344 0
0.777456 -0.049166 0
0.797058 -0.108399 0
0.810128 -0.155308 0
0.815840 -0.190488 0
0.814497 -0.214818 0
0.807906 -0.228396 0
0.799445 -0.229924 0
0.793335 -0.217141 0
0.793114 -0.188451 0
0.800193 -0.144760 0
0.813537 -0.090052 0
0.830499 -0.030360 0
0.847602 0.027577 0
0.861644 0.078704 0
0.870827 0.120975 0
0.874324 0.154077 0
0.872286 0.178157 0
0.865959 0.192907 0
0.857572 0.197135 0
0.849765 0.189136 0
0.844731 0.167805 0
0.843541 0.133801 0
0.846086 0.089905 0
0.851503 0.040410 0
0.858647 -0.009749 0
0.866126 -0.056009 0
0.872726 -0.095260 0
0.877520 -0.125977 0
0.879997 -0.147627 0