# vtk DataFile Version 2.0
generated by CFD-lab course output (written by Tobias Neckel) 
ASCII

DATASET STRUCTURED_GRID
DIMENSIONS  99 49 1 
POINTS 4851 float

0.000000 0.000000 0
0.020000 0.000000 0
0.040000 0.000000 0
0.060000 0.000000 0
0.080000 0.000000 0
0.100000 0.000000 0
0.120000 0.000000 0
0.140000 0.000000 0
0.160000 0.000000 0
0.180000 0.000000 0
0.200000 0.000000 0
0.220000 0.000000 0
0.240000 0.000000 0
0.260000 0.000000 0
0.280000 0.000000 0
0.300000 0.000000 0
0.320000 0.000000 0
0.340000 0.000000 0
0.360000 0.000000 0
0.380000 0.000000 0
0.400000 0.000000 0
0.420000 0.000000 0
0.440000 0.000000 0
0.460000 0.000000 0
0.480000 0.000000 0
0.500000 0.000000 0
0.520000 0.000000 0
0.540000 0.000000 0
0.560000 0.000000 0
0.580000 0.000000 0
0.600000 0.000000 0
0.620000 0.000000 0
0.640000 0.000000 0
0.660000 0.000000 0
0.680000 0.000000 0
0.700000 0.000000 0
0.720000 0.000000 0
0.740000 0.000000 0
0.760000 0.000000 0
0.780000 0.000000 0
0.800000 0.000000 0
0.820000 0.000000 0
0.840000 0.000000 0
0.860000 0.000000 0
0.880000 0.000000 0
0.900000 0.000000 0
0.920000 0.000000 0
0.940000 0.000000 0
0.960000 0.000000 0
0.980000 0.000000 0
1.000000 0.000000 0
1.020000 0.000000 0
1.040000 0.000000 0
1.060000 0.000000 0
1.080000 0.000000 0
1.100000 0.000000 0
1.120000 0.000000 0
1.140000 0.000000 0
1.160000 0.000000 0
1.180000 0.000000 0
1.200000 0.000000 0
1.220000 0.000000 0
1.240000 0.000000 0
1.260000 0.000000 0
1.280000 0.000000 0
1.300000 0.000000 0
1.320000 0.000000 0
1.340000 0.000000 0
1.360000 0.000000 0
1.380000 0.000000 0
1.400000 0.000000 0
1.420000 0.000000 0
1.440000 0.000000 0
1.460000 0.000000 0
1.480000 0.000000 0
1.500000 0.000000 0
1.520000 0.000000 0
1.540000 0.000000 0
1.560000 0.000000 0
1.580000 0.000000 0
1.600000 0.000000 0
1.620000 0.000000 0
1.640000 0.000000 0
1.660000 0.000000 0
1.680000 0.000000 0
1.700000 0.000000 0
1.720000 0.000000 0
1.740000 0.000000 0
1.760000 0.000000 0
1.780000 0.000000 0
1.800000 0.000000 0
1.820000 0.000000 0
1.840000 0.000000 0
1.860000 0.000000 0
1.880000 0.000000 0
1.900000 0.000000 0
1.920000 0.000000 0
1.940000 0.000000 0
1.960000 0.000000 0
0.000000 0.020000 0
0.020000 0.020000 0
0.040000 0.020000 0
0.060000 0.020000 0
0.080000 0.020000 0
0.100000 0.020000 0
0.120000 0.020000 0
0.140000 0.020000 0
0.160000 0.020000 0
0.180000 0.020000 0
0.200000 0.020000 0
0.220000 0.020000 0
0.240000 0.020000 0
0.260000 0.020000 0
0.280000 0.020000 0
0.300000 0.020000 0
0.320000 0.020000 0
0.340000 0.020000 0
0.360000 0.020000 0
0.380000 0.020000 0
0.400000 0.020000 0
0.420000 0.020000 0
0.440000 0.020000 0
0.460000 0.020000 0
0.480000 0.020000 0
0.500000 0.020000 0
0.520000 0.020000 0
0.540000 0.020000 0
0.560000 0.020000 0
0.580000 0.020000 0
0.600000 0.020000 0
0.620000 0.020000 0
0.640000 0.020000 0
0.660000 0.020000 0
0.680000 0.020000 0
0.700000 0.020000 0
0.720000 0.020000 0
0.740000 0.020000 0
0.760000 0.020000 0
0.780000 0.020000 0
0.800000 0.020000 0
0.820000 0.020000 0
0.840000 0.020000 0
0.860000 0.020000 0
0.880000 0.020000 0
0.900000 0.020000 0
0.920000 0.020000 0
0.940000 0.020000 0
0.960000 0.020000 0
0.980000 0.020000 0
1.000000 0.020000 0
1.020000 0.020000 0
1.040000 0.020000 0
1.060000 0.020000 0
1.080000 0.020000 0
1.100000 0.020000 0
1.120000 0.020000 0
1.140000 0.020000 0
1.160000 0.020000 0
1.180000 0.020000 0
1.200000 0.020000 0
1.220000 0.020000 0
1.240000 0.020000 0
1.260000 0.020000 0
1.280000 0.020000 0
1.300000 0.020000 0
1.320000 0.020000 0
1.340000 0.020000 0
1.360000 0.020000 0
1.380000 0.020000 0
1.400000 0.020000 0
1.420000 0.020000 0
1.440000 0.020000 0
1.460000 0.020000 0
1.480000 0.020000 0
1.500000 0.020000 0
1.520000 0.020000 0
1.540000 0.020000 0
1.560000 0.020000 0
1.580000 0.020000 0
1.600000 0.020000 0
1.620000 0.020000 0
1.640000 0.020000 0
1.660000 0.020000 0
1.680000 0.020000 0
1.700000 0.020000 0
1.720000 0.020000 0
1.740000 0.020000 0
1.760000 0.020000 0
1.780000 0.020000 0
1.800000 0.020000 0
1.820000 0.020000 0
1.840000 0.020000 0
1.860000 0.020000 0
1.880000 0.020000 0
1.900000 0.020000 0
1.920000 0.020000 0
1.940000 0.020000 0
1.960000 0.020000 0
0.000000 0.040000 0
0.020000 0.040000 0
0.040000 0.040000 0
0.060000 0.040000 0
0.080000 0.040000 0
0.100000 0.040000 0
0.120000 0.040000 0
0.140000 0.040000 0
0.160000 0.040000 0
0.180000 0.040000 0
0.200000 0.040000 0
0.220000 0.040000 0
0.240000 0.040000 0
0.260000 0.040000 0
0.280000 0.040000 0
0.300000 0.040000 0
0.320000 0.040000 0
0.340000 0.040000 0
0.360000 0.040000 0
0.380000 0.040000 0
0.400000 0.040000 0
0.420000 0.040000 0
0.440000 0.040000 0
0.460000 0.040000 0
0.480000 0.040000 0
0.500000 0.040000 0
0.520000 0.040000 0
0.540000 0.040000 0
0.560000 0.040000 0
0.580000 0.040000 0
0.600000 0.040000 0
0.620000 0.040000 0
0.640000 0.040000 0
0.660000 0.040000 0
0.680000 0.040000 0
0.700000 0.040000 0
0.720000 0.040000 0
0.740000 0.040000 0
0.760000 0.040000 0
0.780000 0.040000 0
0.800000 0.040000 0
0.820000 0.040000 0
0.840000 0.040000 0
0.860000 0.040000 0
0.880000 0.040000 0
0.900000 0.040000 0
0.920000 0.040000 0
0.940000 0.040000 0
0.960000 0.040000 0
0.980000 0.040000 0
1.000000 0.040000 0
1.020000 0.040000 0
1.040000 0.040000 0
1.060000 0.040000 0
1.080000 0.040000 0
1.100000 0.040000 0
1.120000 0.040000 0
1.140000 0.040000 0
1.160000 0.040000 0
1.180000 0.040000 0
1.200000 0.040000 0
1.220000 0.040000 0
1.240000 0.040000 0
1.260000 0.040000 0
1.280000 0.040000 0
1.300000 0.040000 0
1.320000 0.040000 0
1.340000 0.040000 0
1.360000 0.040000 0
1.380000 0.040000 0
1.400000 0.040000 0
1.420000 0.040000 0
1.440000 0.040000 0
1.460000 0.040000 0
1.480000 0.040000 0
1.500000 0.040000 0
1.520000 0.040000 0
1.540000 0.040000 0
1.560000 0.040000 0
1.580000 0.040000 0
1.600000 0.040000 0
1.620000 0.040000 0
1.640000 0.040000 0
1.660000 0.040000 0
1.680000 0.040000 0
1.700000 0.040000 0
1.720000 0.040000 0
1.740000 0.040000 0
1.760000 0.040000 0
1.780000 0.040000 0
1.800000 0.040000 0
1.820000 0.040000 0
1.840000 0.040000 0
1.860000 0.040000 0
1.880000 0.040000 0
1.900000 0.040000 0
1.920000 0.040000 0
1.940000 0.040000 0
1.960000 0.040000 0
0.000000 0.060000 0
0.020000 0.060000 0
0.040000 0.060000 0
0.060000 0.060000 0
0.080000 0.060000 0
0.100000 0.060000 0
0.120000 0.060000 0
0.140000 0.060000 0
0.160000 0.060000 0
0.180000 0.060000 0
0.200000 0.060000 0
0.220000 0.060000 0
0.240000 0.060000 0
0.260000 0.060000 0
0.280000 0.060000 0
0.300000 0.060000 0
0.320000 0.060000 0
0.340000 0.060000 0
0.360000 0.060000 0
0.380000 0.060000 0
0.400000 0.060000 0
0.420000 0.060000 0
0.440000 0.060000 0
0.460000 0.060000 0
0.480000 0.060000 0
0.500000 0.060000 0
0.520000 0.060000 0
0.540000 0.060000 0
0.560000 0.060000 0
0.580000 0.060000 0
0.600000 0.060000 0
0.620000 0.060000 0
0.640000 0.060000 0
0.660000 0.060000 0
0.680000 0.060000 0
0.700000 0.060000 0
0.720000 0.060000 0
0.740000 0.060000 0
0.760000 0.060000 0
0.780000 0.060000 0
0.800000 0.060000 0
0.820000 0.060000 0
0.840000 0.060000 0
0.860000 0.060000 0
0.880000 0.060000 0
0.900000 0.060000 0
0.920000 0.060000 0
0.940000 0.060000 0
0.960000 0.060000 0
0.980000 0.060000 0
1.000000 0.060000 0
1.020000 0.060000 0
1.040000 0.060000 0
1.060000 0.060000 0
1.080000 0.060000 0
1.100000 0.060000 0
1.120000 0.060000 0
1.140000 0.060000 0
1.160000 0.060000 0
1.180000 0.060000 0
1.200000 0.060000 0
1.220000 0.060000 0
1.240000 0.060000 0
1.260000 0.060000 0
1.280000 0.060000 0
1.300000 0.060000 0
1.320000 0.060000 0
1.340000 0.060000 0
1.360000 0.060000 0
1.380000 0.060000 0
1.400000 0.060000 0
1.420000 0.060000 0
1.440000 0.060000 0
1.460000 0.060000 0
1.480000 0.060000 0
1.500000 0.060000 0
1.520000 0.060000 0
1.540000 0.060000 0
1.560000 0.060000 0
1.580000 0.060000 0
1.600000 0.060000 0
1.620000 0.060000 0
1.640000 0.060000 0
1.660000 0.060000 0
1.680000 0.060000 0
1.700000 0.060000 0
1.720000 0.060000 0
1.740000 0.060000 0
1.760000 0.060000 0
1.780000 0.060000 0
1.800000 0.060000 0
1.820000 0.060000 0
1.840000 0.060000 0
1.860000 0.060000 0
1.880000 0.060000 0
1.900000 0.060000 0
1.920000 0.060000 0
1.940000 0.060000 0
1.960000 0.060000 0
0.000000 0.080000 0
0.020000 0.080000 0
0.040000 0.080000 0
0.060000 0.080000 0
0.080000 0.080000 0
0.100000 0.080000 0
0.120000 0.080000 0
0.140000 0.080000 0
0.160000 0.080000 0
0.180000 0.080000 0
0.200000 0.080000 0
0.220000 0.080000 0
0.240000 0.080000 0
0.260000 0.080000 0
0.280000 0.080000 0
0.300000 0.080000 0
0.320000 0.080000 0
0.340000 0.080000 0
0.360000 0.080000 0
0.380000 0.080000 0
0.400000 0.080000 0
0.420000 0.080000 0
0.440000 0.080000 0
0.460000 0.080000 0
0.480000 0.080000 0
0.500000 0.080000 0
0.520000 0.080000 0
0.540000 0.080000 0
0.560000 0.080000 0
0.580000 0.080000 0
0.600000 0.080000 0
0.620000 0.080000 0
0.640000 0.080000 0
0.660000 0.080000 0
0.680000 0.080000 0
0.700000 0.080000 0
0.720000 0.080000 0
0.740000 0.080000 0
0.760000 0.080000 0
0.780000 0.080000 0
0.800000 0.080000 0
0.820000 0.080000 0
0.840000 0.080000 0
0.860000 0.080000 0
0.880000 0.080000 0
0.900000 0.080000 0
0.920000 0.080000 0
0.940000 0.080000 0
0.960000 0.080000 0
0.980000 0.080000 0
1.000000 0.080000 0
1.020000 0.080000 0
1.040000 0.080000 0
1.060000 0.080000 0
1.080000 0.080000 0
1.100000 0.080000 0
1.120000 0.080000 0
1.140000 0.080000 0
1.160000 0.080000 0
1.180000 0.080000 0
1.200000 0.080000 0
1.220000 0.080000 0
1.240000 0.080000 0
1.260000 0.080000 0
1.280000 0.080000 0
1.300000 0.080000 0
1.320000 0.080000 0
1.340000 0.080000 0
1.360000 0.080000 0
1.380000 0.080000 0
1.400000 0.080000 0
1.420000 0.080000 0
1.440000 0.080000 0
1.460000 0.080000 0
1.480000 0.080000 0
1.500000 0.080000 0
1.520000 0.080000 0
1.540000 0.080000 0
1.560000 0.080000 0
1.580000 0.080000 0
1.600000 0.080000 0
1.620000 0.080000 0
1.640000 0.080000 0
1.660000 0.080000 0
1.680000 0.080000 0
1.700000 0.080000 0
1.720000 0.080000 0
1.740000 0.080000 0
1.760000 0.080000 0
1.780000 0.080000 0
1.800000 0.080000 0
1.820000 0.080000 0
1.840000 0.080000 0
1.860000 0.080000 0
1.880000 0.080000 0
[...]
POINT_DATA 4851 

VECTORS velocity float
0.000000 0.000000 0
0.000037 0.000000 0
0.000096 0.000000 0
0.000147 0.000000 0
0.000179 0.000000 0
0.000193 0.000000 0
0.000194 0.000000 0
0.000188 0.000000 0
0.000178 0.000000 0
0.000169 0.000000 0
0.000162 0.000000 0
0.000156 0.000000 0
0.000152 0.000000 0
0.000150 0.000000 0
0.000148 0.000000 0
0.000147 0.000000 0
0.000147 0.000000 0
0.000146 0.000000 0
0.000146 0.000000 0
0.000145 0.000000 0
0.000144 0.000000 0
0.000143 0.000000 0
0.000142 0.000000 0
0.000140 0.000000 0
0.000139 0.000000 0
0.000137 0.000000 0
0.000135 0.000000 0
0.000132 0.000000 0
0.000129 0.000000 0
0.000124 0.000000 0
0.000116 0.000000 0
0.000104 0.000000 0
0.000086 0.000000 0
0.000063 0.000000 0
0.000036 0.000000 0
0.000011 0.000000 0
0.000000 0.000000 0
0.000000 0.000000 0
0.000000 0.000000 0
0.000000 0.000000 0
0.000000 0.000000 0
0.000005 0.000000 0
0.000045 0.000000 0
0.000114 0.000000 0
0.000194 0.000000 0
0.000271 0.000000 0
0.000334 0.000000 0
0.000377 0.000000 0
0.000399 0.000000 0
0.000403 0.000000 0
0.000393 0.000000 0
0.000373 0.000000 0
0.000348 0.000000 0
0.000321 0.000000 0
0.000295 0.000000 0
0.000272 0.000000 0
0.000253 0.000000 0
0.000238 0.000000 0
0.000227 0.000000 0
0.000220 0.000000 0
0.000217 0.000000 0
0.000216 0.000000 0
0.000217 0.000000 0
0.000220 0.000000 0
0.000223 0.000000 0
0.000226 0.000000 0
0.000230 0.000000 0
0.000233 0.000000 0
0.000235 0.000000 0
0.000237 0.000000 0
0.000238 0.000000 0
0.000240 0.000000 0
0.000240 0.000000 0
0.000241 0.000000 0
0.000241 0.000000 0
0.000242 0.000000 0
0.000243 0.000000 0
0.000243 0.000000 0
0.000244 0.000000 0
0.000245 0.000000 0
0.000247 0.000000 0
0.000249 0.000000 0
0.000251 0.000000 0
0.000254 0.000000 0
0.000257 0.000000 0
0.000262 0.000000 0
0.000267 0.000000 0
0.000274 0.000000 0
0.000283 0.000000 0
0.000295 0.000000 0
0.000312 0.000000 0
0.000335 0.000000 0
0.000369 0.000000 0
0.000420 0.000000 0
0.000491 0.000000 0
0.000580 0.000000 0
0.000639 0.000000 0
0.000500 0.000000 0
0.000000 0.000000 0
0.000000 -0.000037 0
0.000106 -0.000097 0
0.000277 -0.000111 0
0.000431 -0.000084 0
0.000535 -0.000047 0
0.000588 -0.000016 0
0.000602 0.000005 0
0.000592 0.000015 0
0.000570 0.000018 0
0.000546 0.000016 0
0.000524 0.000013 0
0.000507 0.000009 0
0.000495 0.000006 0
0.000487 0.000003 0
0.000483 0.000002 0
0.000480 0.000001 0
0.000477 0.000000 0
0.000475 0.000001 0
0.000473 0.000001 0
0.000470 0.000001 0
0.000466 0.000002 0
0.000461 0.000002 0
0.000456 0.000002 0
0.000451 0.000002 0
0.000444 0.000003 0
0.000437 0.000003 0
0.000428 0.000004 0
0.000417 0.000005 0
0.000402 0.000008 0
0.000381 0.000012 0
0.000351 0.000019 0
0.000310 0.000029 0
0.000253 0.000040 0
0.000182 0.000050 0
0.000104 0.000051 0
0.000034 0.000035 0
0.000000 0.000011 0
0.000000 0.000000 0
0.000000 0.000000 0
0.000000 0.000000 0
0.000000 -0.000004 0
0.000042 -0.000044 0
0.000187 -0.000109 0
0.000411 -0.000150 0
0.000667 -0.000158 0
0.000914 -0.000141 0
0.001119 -0.000106 0
0.001266 -0.000064 0
0.001350 -0.000025 0
0.001376 0.000007 0
0.001357 0.000030 0
0.001304 0.000045 0
0.001232 0.000052 0
0.001150 0.000053 0
0.001068 0.000049 0
0.000993 0.000043 0
0.000928 0.000035 0
0.000877 0.000026 0
0.000838 0.000018 0
0.000813 0.000010 0
0.000798 0.000004 0
0.000793 -0.000000 0
0.000794 -0.000004 0
0.000800 -0.000006 0
0.000808 -0.000006 0
0.000818 -0.000007 0
0.000828 -0.000006 0
0.000836 -0.000005 0
0.000843 -0.000004 0
0.000849 -0.000003 0
0.000854 -0.000002 0
0.000857 -0.000002 0
0.000859 -0.000001 0
0.000860 -0.000001 0
0.000862 -0.000001 0
0.000863 -0.000001 0
0.000865 -0.000001 0
0.000866 -0.000001 0
0.000869 -0.000002 0
0.000872 -0.000002 0
0.000876 -0.000003 0
0.000882 -0.000004 0
0.000889 -0.000005 0
0.000897 -0.000006 0
0.000908 -0.000008 0
0.000922 -0.000010 0
0.000939 -0.000012 0
0.000960 -0.000016 0
0.000988 -0.000021 0
0.001024 -0.000029 0
0.001072 -0.000040 0
0.001136 -0.000058 0
0.001220 -0.000084 0
0.001329 -0.000121 0
0.001456 -0.000160 0
0.001559 -0.000148 0
0.001503 0.000080 0
0.000997 0.000639 0
0.000000 0.000500 0
0.000000 -0.000106 0
0.000149 -0.000278 0
0.000393 -0.000326 0
0.000620 -0.000259 0
0.000784 -0.000158 0
0.000877 -0.000068 0
0.000913 -0.000005 0
0.000910 0.000031 0
0.000887 0.000045 0
0.000857 0.000045 0
0.000828 0.000038 0
0.000804 0.000028 0
0.000787 0.000019 0
0.000775 0.000012 0
0.000767 0.000007 0
0.000761 0.000005 0
0.000757 0.000004 0
0.000752 0.000004 0
0.000747 0.000005 0
0.000741 0.000006 0
0.000733 0.000007 0
0.000724 0.000009 0
0.000714 0.000010 0
0.000703 0.000011 0
0.000690 0.000013 0
0.000674 0.000016 0
0.000656 0.000019 0
0.000633 0.000025 0
0.000603 0.000035 0
0.000564 0.000050 0
0.000512 0.000071 0
0.000443 0.000097 0
0.000356 0.000126 0
0.000253 0.000148 0
0.000144 0.000147 0
0.000049 0.000103 0
0.000000 0.000034 0
0.000000 0.000000 0
0.000000 0.000000 0
0.000000 0.000000 0
0.000000 -0.000040 0
0.000099 -0.000186 0
0.000358 -0.000369 0
0.000726 -0.000481 0
0.001137 -0.000504 0
0.001532 -0.000452 0
0.001867 -0.000352 0
0.002114 -0.000229 0
0.002267 -0.000109 0
0.002332 -0.000006 0
0.002322 0.000072 0
0.002257 0.000125 0
0.002155 0.000154 0
0.002033 0.000164 0
0.001907 0.000157 0
0.001788 0.000140 0
0.001682 0.000117 0
0.001596 0.000090 0
0.001529 0.000064 0
0.001483 0.000040 0
0.001454 0.000020 0
0.001440 0.000004 0
0.001438 -0.000007 0
0.001443 -0.000014 0
0.001453 -0.000018 0
0.001465 -0.000019 0
0.001478 -0.000018 0
0.001490 -0.000015 0
0.001499 -0.000013 0
0.001507 -0.000010 0
0.001512 -0.000007 0
0.001516 -0.000005 0
0.001518 -0.000004 0
0.001520 -0.000003 0
0.001521 -0.000002 0
0.001522 -0.000003 0
0.001523 -0.000003 0
0.001524 -0.000004 0
0.001527 -0.000006 0
0.001531 -0.000007 0
0.001536 -0.000009 0
0.001543 -0.000012 0
0.001553 -0.000015 0
0.001565 -0.000019 0
0.001580 -0.000024 0
0.001599 -0.000030 0
0.001623 -0.000038 0
0.001654 -0.000049 0
0.001692 -0.000064 0
0.001740 -0.000084 0
0.001801 -0.000111 0
0.001874 -0.000148 0
0.001959 -0.000193 0
0.002042 -0.000235 0
0.002088 -0.000230 0
0.002014 -0.000047 0
0.001662 0.000562 0
0.000875 0.001503 0
0.000000 0.000997 0
0.000000 -0.000186 0
0.000160 -0.000490 0
0.000427 -0.000582 0
0.000680 -0.000475 0
0.000868 -0.000304 0
0.000980 -0.000145 0
0.001030 -0.000029 0
0.001036 0.000040 0
0.001018 0.000071 0
0.000990 0.000075 0
0.000962 0.000066 0
0.000937 0.000050 0
0.000919 0.000035 0
0.000905 0.000023 0
0.000895 0.000015 0
0.000888 0.000011 0
0.000881 0.000009 0
0.000874 0.000010 0
0.000866 0.000012 0
0.000856 0.000015 0
0.000845 0.000017 0
0.000832 0.000020 0
0.000817 0.000023 0
0.000800 0.000027 0
0.000781 0.000031 0
0.000758 0.000037 0
0.000732 0.000045 0
0.000699 0.000058 0
0.000659 0.000076 0
0.000608 0.000104 0
0.000543 0.000140 0
0.000462 0.000185 0
0.000364 0.000230 0
0.000254 0.000262 0
0.000142 0.000255 0
0.000047 0.000179 0
0.000000 0.000059 0
0.000000 0.000000 0
0.000000 0.000000 0
0.000000 0.000000 0
0.000000 -0.000103 0
0.000141 -0.000402 0
0.000482 -0.000736 0
0.000946 -0.000929 0
0.001455 -0.000965 0
0.001938 -0.000869 0
0.002349 -0.000686 0
0.002658 -0.000464 0
0.002859 -0.000243 0
0.002955 -0.000048 0
0.002963 0.000105 0
0.002903 0.000212 0
0.002795 0.000275 0
0.002660 0.000300 0
0.002516 0.000295 0
0.002376 0.000268 0
0.002251 0.000227 0
0.002145 0.000179 0
0.002063 0.000131 0
0.002003 0.000086 0
0.001964 0.000047 0
0.001943 0.000016 0
0.001934 -0.000006 0
0.001936 -0.000021 0
0.001943 -0.000029 0
0.001952 -0.000031 0
0.001963 -0.000030 0
0.001972 -0.000026 0
0.001980 -0.000021 0
0.001985 -0.000016 0
0.001988 -0.000011 0
0.001990 -0.000008 0
0.001990 -0.000005 0
0.001989 -0.000003 0
0.001987 -0.000002 0
0.001985 -0.000003 0
0.001984 -0.000004 0
0.001983 -0.000006 0
0.001984 -0.000008 0
0.001986 -0.000012 0
0.001989 -0.000016 0
0.001995 -0.000020 0
0.002002 -0.000026 0
0.002013 -0.000033 0
0.002027 -0.000042 0
0.002044 -0.000053 0
0.002066 -0.000067 0
0.002094 -0.000085 0
0.002128 -0.000108 0
0.002169 -0.000137 0
0.002216 -0.000174 0
0.002264 -0.000215 0
0.002305 -0.000251 0
0.002313 -0.000251 0
0.002240 -0.000133 0
0.001997 0.000279 0
0.001474 0.001220 0
0.000659 0.002301 0
0.000000 0.001375 0
0.000000 -0.000267 0
0.000158 -0.000706 0
0.000422 -0.000846 0
0.000673 -0.000700 0
0.000860 -0.000459 0
0.000974 -0.000230 0
0.001027 -0.000061 0
0.001037 0.000043 0
0.001023 0.000091 0
0.000999 0.000102 0
0.000973 0.000091 0
0.000951 0.000071 0
0.000933 0.000051 0
0.000920 0.000035 0
0.000909 0.000024 0
0.000899 0.000019 0
0.000890 0.000017 0
0.000880 0.000019 0
0.000868 0.000022 0
0.000855 0.000027 0
0.000840 0.000031 0
0.000823 0.000036 0
0.000804 0.000041 0
0.000783 0.000047 0
0.000758 0.000055 0
0.000731 0.000064 0
0.000698 0.000078 0
0.000660 0.000098 0
0.000614 0.000126 0
0.000558 0.000165 0
0.000490 0.000216 0
0.000409 0.000276 0
0.000316 0.000334 0
0.000216 0.000370 0
0.000118 0.000354 0
0.000038 0.000245 0
0.000000 0.000081 0
0.000000 0.000000 0
0.000000 0.000000 0
0.000000 0.000000 0
0.000000 -0.000181 0
0.000167 -0.000668 0
0.000564 -0.001175 0
0.001093 -0.001453 0
0.001660 -0.001495 0
0.002192 -0.001346 0
0.002641 -0.001071 0
0.002980 -0.000739 0
0.003204 -0.000406 0
0.003319 -0.000111 0
0.003340 0.000125 0
0.003288 0.000293 0
0.003186 0.000397 0
0.003052 0.000443 0
0.002907 0.000442 0
0.002764 0.000406 0
0.002634 0.000348 0
0.002524 0.000278 0
0.002437 0.000206 0
0.002372 0.000139 0
0.002328 0.000081 0
0.002301 0.000034 0
0.002287 0.000000 0
0.002283 -0.000022 0
0.002283 -0.000035 0
0.002287 -0.000039 0
0.002290 -0.000037 0
0.002293 -0.000032 0
0.002295 -0.000026 0
0.002294 -0.000018 0
0.002291 -0.000012 0
0.002287 -0.000006 0
0.002282 -0.000002 0
0.002276 0.000000 0
0.002270 0.000001 0
0.002264 0.000001 0
0.002258 -0.000001 0
0.002254 -0.000004 0
0.002250 -0.000008 0
0.002248 -0.000013 0
0.002247 -0.000018 0
0.002248 -0.000025 0
0.002250 -0.000033 0
0.002255 -0.000043 0
0.002263 -0.000055 0
0.002273 -0.000070 0
0.002286 -0.000088 0
0.002303 -0.000111 0
0.002323 -0.000138 0
0.002344 -0.000171 0
0.002364 -0.000207 0
0.002376 -0.000237 0
0.002365 -0.000242 0
0.002302 -0.000170 0
0.002138 0.000087 0
0.001803 0.000719 0
0.001234 0.001901 0
0.000491 0.002977 0
0.000000 0.001656 0
0.000000 -0.000344 0
0.000148 -0.000912 0
0.000396 -0.001098 0
0.000630 -0.000914 0
0.000802 -0.000606 0
0.000906 -0.000312 0
0.000953 -0.000092 0
0.000962 0.000044 0
0.000949 0.000109 0
0.000928 0.000125 0
0.000906 0.000113 0
0.000886 0.000090 0
0.000869 0.000066 0
0.000855 0.000047 0
0.000843 0.000035 0
0.000831 0.000029 0
0.000819 0.000029 0
0.000805 0.000031 0
0.000790 0.000036 0
0.000774 0.000042 0
0.000755 0.000049 0
0.000735 0.000056 0
0.000712 0.000064 0
0.000687 0.000072 0
0.000660 0.000083 0
0.000629 0.000097 0
0.000594 0.000115 0
0.000554 0.000142 0
0.000507 0.000178 0
0.000453 0.000227 0
0.000391 0.000289 0
0.000319 0.000358 0
0.000241 0.000423 0
0.000160 0.000460 0
0.000084 0.000433 0
0.000026 0.000296 0
0.000000 0.000097 0
0.000000 0.000000 0
0.000000 0.000000 0
0.000000 0.000000 0
0.000000 -0.000270 0
0.000184 -0.000967 0
0.000618 -0.001662 0
0.001185 -0.002024 0
0.001783 -0.002064 0
0.002335 -0.001849 0
0.002792 -0.001474 0
0.003135 -0.001028 0
0.003361 -0.000581 0
0.003478 -0.000184 0
0.003503 0.000135 0
0.003458 0.000367 0
0.003362 0.000512 0
0.003237 0.000579 0
0.003101 0.000584 0
0.002966 0.000540 0
0.002843 0.000466 0
0.002739 0.000376 0
0.002656 0.000283 0
0.002593 0.000194 0
0.002548 0.000118 0
0.002518 0.000057 0
0.002499 0.000013 0
0.002487 -0.000016 0
0.002479 -0.000032 0
0.002472 -0.000038 0
0.002465 -0.000036 0
0.002458 -0.000030 0
0.002449 -0.000022 0
0.002439 -0.000013 0
0.002427 -0.000005 0
0.002415 0.000002 0
0.002403 0.000007 0
0.002390 0.000009 0
0.002378 0.000010 0
0.002366 0.000009 0
0.002355 0.000007 0
0.002345 0.000003 0
0.002336 -0.000002 0
0.002328 -0.000008 0
0.002321 -0.000015 0
0.002315 -0.000024 0
0.002311 -0.000034 0
0.002308 -0.000045 0
0.002306 -0.000059 0
0.002305 -0.000076 0
0.002305 -0.000096 0
0.002306 -0.000121 0
0.002307 -0.000148 0
0.002305 -0.000179 0
0.002296 -0.000206 0
0.002274 -0.000216 0
0.002223 -0.000177 0
0.002116 -0.000025 0
0.001910 0.000366 0
0.001553 0.001184 0
0.001008 0.002533 0
0.000368 0.003535 0
0.000000 0.001866 0
0.000000 -0.000416 0
0.000136 -0.001102 0
0.000360 -0.001328 0
0.000567 -0.001106 0
0.000717 -0.000735 0
0.000804 -0.000381 0
0.000840 -0.000117 0
0.000844 0.000046 0
0.000831 0.000125 0
0.000811 0.000145 0
0.000791 0.000133 0
0.000773 0.000107 0
0.000757 0.000081 0
0.000742 0.000061 0
0.000728 0.000048 0
0.000713 0.000043 0
0.000698 0.000043 0
0.000681 0.000047 0
0.000662 0.000054 0
0.000642 0.000061 0
0.000621 0.000070 0
0.000598 0.000079 0
0.000573 0.000089 0
0.000546 0.000100 0
0.000517 0.000113 0
0.000485 0.000130 0
0.000450 0.000153 0
0.000412 0.000184 0
0.000370 0.000226 0
0.000323 0.000282 0
0.000271 0.000350 0
0.000214 0.000425 0
0.000156 0.000493 0
0.000099 0.000526 0
0.000049 0.000487 0
0.000014 0.000329 0
0.000000 0.000107 0
0.000000 0.000000 0
0.000000 0.000000 0
0.000000 0.000000 0
0.000000 -0.000365 0
0.000195 -0.001286 0
0.000652 -0.002177 0
0.001239 -0.002618 0
0.001845 -0.002644 0
0.002391 -0.002354 0
0.002835 -0.001872 0
0.003161 -0.001308 0
0.003370 -0.000749 0
0.003475 -0.000254 0
0.003496 0.000145 0
0.003451 0.000435 0
0.003362 0.000618 0
0.003247 0.000705 0
0.003124 0.000713 0
0.003003 0.000663 0
0.002895 0.000574 0
0.002803 0.000466 0
0.002729 0.000353 0
0.002672 0.000247 0
0.002628 0.000156 0
0.002596 0.000084 0
0.002570 0.000032 0
0.002548 -0.000002 0
0.002528 -0.000020 0
0.002509 -0.000026 0
0.002488 -0.000023 0
0.002467 -0.000016 0
0.002445 -0.000007 0
0.002423 0.000003 0
0.002401 0.000012 0
0.002380 0.000019 0
0.002359 0.000023 0
0.002339 0.000025 0
0.002320 0.000025 0
0.002302 0.000024 0
0.002285 0.000020 0
0.002269 0.000015 0
0.002253 0.000010 0
0.002239 0.000003 0
0.002226 -0.000006 0
0.002213 -0.000015 0
0.002201 -0.000026 0
0.002188 -0.000038 0
0.002176 -0.000052 0
0.002163 -0.000069 0
0.002149 -0.000089 0
0.002133 -0.000112 0
0.002115 -0.000137 0
0.002091 -0.000161 0
0.002060 -0.000176 0
0.002016 -0.000164 0
0.001945 -0.000083 0
0.001826 0.000143 0
0.001622 0.000650 0
0.001289 0.001621 0
0.000807 0.003085 0
0.000274 0.003986 0
0.000000 0.002024 0
0.000000 -0.000481 0
0.000122 -0.001273 0
0.000318 -0.001530 0
0.000496 -0.001271 0
0.000619 -0.000842 0
0.000686 -0.000435 0
0.000710 -0.000133 0
0.000708 0.000053 0
0.000692 0.000141 0
0.000673 0.000164 0
0.000654 0.000151 0
0.000637 0.000124 0
0.000620 0.000097 0
0.000604 0.000076 0
0.000588 0.000064 0
0.000570 0.000059 0
0.000551 0.000061 0
0.000531 0.000066 0
0.000509 0.000074 0
0.000486 0.000084 0
0.000463 0.000094 0
0.000437 0.000104 0
0.000411 0.000115 0
0.000384 0.000128 0
0.000355 0.000143 0
0.000325 0.000163 0
0.000293 0.000188 0
0.000260 0.000222 0
0.000225 0.000267 0
0.000188 0.000326 0
0.000149 0.000397 0
0.000111 0.000473 0
0.000074 0.000538 0
0.000042 0.000566 0
0.000018 0.000517 0
0.000004 0.000345 0
0.000000 0.000111 0
0.000000 0.000000 0
0.000000 0.000000 0
0.000000 0.000000 0
0.000000 -0.000465 0
0.000203 -0.001618 0
0.000671 -0.002705 0
0.001261 -0.003216 0
0.001856 -0.003215 0
0.002378 -0.002840 0
0.002790 -0.002244 0
0.003082 -0.001563 0
0.003261 -0.000896 0
0.003345 -0.000310 0
0.003352 0.000160 0
0.003303 0.000501 0
0.003218 0.000716 0
0.003114 0.000818 0
0.003005 0.000827 0
0.002901 0.000769 0
0.002808 0.000667 0
0.002730 0.000543 0
0.002666 0.000414 0
0.002614 0.000295 0
0.002571 0.000194 0
0.002534 0.000116 0
0.002498 0.000060 0
0.002464 0.000025 0
0.002428 0.000007 0
0.002392 0.000002 0
0.002356 0.000005 0
0.002319 0.000013 0
0.002283 0.000022 0
0.002249 0.000031 0
0.002216 0.000039 0
0.002185 0.000045 0
0.002157 0.000048 0
0.002130 0.000048 0
0.002105 0.000047 0
0.002081 0.000044 0
0.002059 0.000040 0
0.002038 0.000034 0
0.002018 0.000027 0
0.001999 0.000020 0
0.001980 0.000011 0
0.001961 0.000002 0
0.001941 -0.000009 0
0.001921 -0.000021 0
0.001899 -0.000034 0
0.001875 -0.000049 0
0.001849 -0.000067 0
0.001819 -0.000086 0
0.001784 -0.000106 0
0.001746 -0.000124 0
0.001702 -0.000130 0
0.001650 -0.000100 0
0.001582 0.000013 0
0.001480 0.000299 0
0.001309 0.000903 0
0.001030 0.001999 0
0.000627 0.003548 0
0.000197 0.004342 0
0.000000 0.002140 0
0.000000 -0.000538 0
0.000107 -0.001422 0
0.000276 -0.001702 0
0.000422 -0.001407 0
0.000517 -0.000925 0
0.000563 -0.000472 0
0.000574 -0.000139 0
0.000566 0.000063 0
0.000549 0.000159 0
0.000530 0.000183 0
0.000511 0.000169 0
0.000494 0.000141 0
0.000477 0.000113 0
0.000459 0.000093 0
0.000439 0.000082 0
0.000419 0.000079 0
0.000397 0.000082 0
0.000374 0.000089 0
0.000350 0.000098 0
0.000325 0.000108 0
0.000300 0.000119 0
0.000274 0.000130 0
0.000248 0.000142 0
0.000222 0.000156 0
0.000195 0.000172 0
0.000168 0.000192 0
0.000141 0.000218 0
0.000114 0.000252 0
0.000088 0.000298 0
0.000063 0.000357 0
0.000040 0.000427 0
0.000019 0.000500 0
0.000004 0.000561 0
-0.000005 0.000582 0
-0.000007 0.000526 0
-0.000004 0.000347 0
0.000000 0.000111 0
0.000000 0.000000 0
0.000000 0.000000 0
0.000000 0.000000 0
0.000000 -0.000568 0
0.000208 -0.001957 0
0.000677 -0.003234 0
0.001256 -0.003802 0
0.001823 -0.003761 0
0.002305 -0.003289 0
0.002671 -0.002576 0
0.002919 -0.001780 0
0.003060 -0.001012 0
0.003114 -0.000344 0
0.003104 0.000187 0
0.003047 0.000569 0
0.002963 0.000807 0
0.002867 0.000918 0
0.002770 0.000927 0
0.002679 0.000860 0
0.002600 0.000745 0
0.002532 0.000608 0
0.002474 0.000469 0
0.002423 0.000342 0
0.002374 0.000237 0
0.002326 0.000157 0
0.002276 0.000102 0
0.002224 0.000068 0
0.002170 0.000052 0
0.002116 0.000047 0
0.002062 0.000050 0
0.002011 0.000056 0
0.001963 0.000064 0
0.001918 0.000071 0
0.001878 0.000076 0
0.001841 0.000078 0
0.001807 0.000079 0
0.001777 0.000077 0
0.001749 0.000074 0
0.001723 0.000069 0
0.001698 0.000063 0
0.001675 0.000057 0
0.001652 0.000049 0
0.001630 0.000041 0
0.001607 0.000033 0
0.001584 0.000024 0
0.001560 0.000014 0
0.001535 0.000004 0
0.001507 -0.000007 0
0.001475 -0.000019 0
0.001440 -0.000032 0
0.001401 -0.000047 0
0.001357 -0.000064 0
0.001312 -0.000078 0
0.001267 -0.000080 0
0.001223 -0.000044 0
0.001177 0.000087 0
0.001113 0.000416 0
0.000996 0.001100 0
0.000784 0.002303 0
0.000466 0.003918 0
0.000133 0.004613 0
0.000000 0.002221 0
0.000000 -0.000589 0
0.000093 -0.001549 0
0.000234 -0.001845 0
0.000349 -0.001513 0
0.000417 -0.000983 0
0.000443 -0.000493 0
0.000443 -0.000136 0
0.000429 0.000078 0
0.000410 0.000177 0
0.000391 0.000201 0
0.000373 0.000187 0
0.000356 0.000159 0
0.000337 0.000132 0
0.000317 0.000113 0
0.000295 0.000103 0
0.000272 0.000102 0
0.000248 0.000106 0
0.000223 0.000113 0
0.000198 0.000123 0
0.000173 0.000133 0
0.000148 0.000144 0
0.000123 0.000156 0
0.000098 0.000168 0
0.000074 0.000181 0
0.000050 0.000197 0
0.000028 0.000216 0
0.000007 0.000241 0
-0.000012 0.000275 0
-0.000029 0.000319 0
-0.000042 0.000375 0
-0.000051 0.000440 0
-0.000054 0.000508 0
-0.000051 0.000562 0
-0.000041 0.000577 0
-0.000026 0.000517 0
-0.000009 0.000338 0
0.000000 0.000107 0
0.000000 0.000000 0
0.000000 0.000000 0
0.000000 0.000000 0
0.000000 -0.000673 0
0.000209 -0.002295 0
0.000671 -0.003752 0
0.001225 -0.004361 0
0.001752 -0.004265 0
0.002183 -0.003689 0
0.002494 -0.002857 0
0.002690 -0.001951 0
0.002788 -0.001092 0
0.002810 -0.000353 0
0.002778 0.000228 0
0.002711 0.000642 0
0.002625 0.000896 0
0.002532 0.001011 0
0.002441 0.001015 0
0.002357 0.000939 0
0.002282 0.000814 0
0.002215 0.000669 0
0.002153 0.000524 0
0.002091 0.000395 0
0.002027 0.000291 0
0.001959 0.000214 0
0.001888 0.000163 0
0.001815 0.000131 0
0.001743 0.000116 0
0.001672 0.000110 0
0.001606 0.000110 0
0.001545 0.000112 0
0.001491 0.000115 0
0.001443 0.000117 0
0.001400 0.000117 0
0.001363 0.000115 0
0.001330 0.000112 0
0.001301 0.000107 0
0.001274 0.000101 0
0.001250 0.000095 0
0.001227 0.000088 0
0.001205 0.000080 0
0.001183 0.000072 0
0.001162 0.000065 0
0.001140 0.000057 0
0.001117 0.000049 0
0.001093 0.000041 0
0.001066 0.000033 0
0.001037 0.000025 0
0.001003 0.000017 0
0.000965 0.000008 0
0.000923 -0.000003 0
0.000878 -0.000017 0