# vtk DataFile Version 2.0
generated by CFD-lab course output (written by Tobias Neckel) 
ASCII

DATASET STRUCTURED_GRID
DIMENSIONS  99 49 1 
POINTS 4851 float

0.000000 0.000000 0
0.020000 0.000000 0
0.040000 0.000000 0
0.060000 0.000000 0
0.080000 0.000000 0
0.100000 0.000000 0
0.120000 0.000000 0
0.140000 0.000000 0
0.160000 0.000000 0
0.180000 0.000000 0
0.200000 0.000000 0
0.220000 0.000000 0
0.240000 0.000000 0
0.260000 0.000000 0
0.280000 0.000000 0
0.300000 0.000000 0
0.320000 0.000000 0
0.340000 0.000000 0
0.360000 0.000000 0
0.380000 0.000000 0
0.400000 0.000000 0
0.420000 0.000000 0
0.440000 0.000000 0
0.460000 0.000000 0
0.480000 0.000000 0
0.500000 0.000000 0
0.520000 0.000000 0
0.540000 0.000000 0
0.560000 0.000000 0
0.580000 0.000000 0
0.600000 0.000000 0
0.620000 0.000000 0
0.640000 0.000000 0
0.660000 0.000000 0
0.680000 0.000000 0
0.700000 0.000000 0
0.720000 0.000000 0
0.740000 0.000000 0
0.760000 0.000000 0
0.780000 0.000000 0
0.800000 0.000000 0
0.820000 0.000000 0
0.840000 0.000000 0
0.860000 0.000000 0
0.880000 0.000000 0
0.900000 0.000000 0
0.920000 0.000000 0
0.940000 0.000000 0
0.960000 0.000000 0
0.980000 0.000000 0
1.000000 0.000000 0
1.020000 0.000000 0
1.040000 0.000000 0
1.060000 0.000000 0
1.080000 0.000000 0
1.100000 0.000000 0
1.120000 0.000000 0
1.140000 0.000000 0
1.160000 0.000000 0
1.180000 0.000000 0
1.200000 0.000000 0
1.220000 0.000000 0
1.240000 0.000000 0
1.260000 0.000000 0
1.280000 0.000000 0
1.300000 0.000000 0
1.320000 0.000000 0
1.340000 0.000000 0
1.360000 0.000000 0
1.380000 0.000000 0
1.400000 0.000000 0
1.420000 0.000000 0
1.440000 0.000000 0
1.460000 0.000000 0
1.480000 0.000000 0
1.500000 0.000000 0
1.520000 0.000000 0
1.540000 0.000000 0
1.560000 0.000000 0
1.580000 0.000000 0
1.600000 0.000000 0
1.620000 0.000000 0
1.640000 0.000000 0
1.660000 0.000000 0
1.680000 0.000000 0
1.700000 0.000000 0
1.720000 0.000000 0
1.740000 0.000000 0
1.760000 0.000000 0
1.780000 0.000000 0
1.800000 0.000000 0
1.820000 0.000000 0
1.840000 0.000000 0
1.860000 0.000000 0
1.880000 0.000000 0
1.900000 0.000000 0
1.920000 0.000000 0
1.940000 0.000000 0
1.960000 0.000000 0
0.000000 0.020000 0
0.020000 0.020000 0
0.040000 0.020000 0
0.060000 0.020000 0
0.080000 0.020000 0
0.100000 0.020000 0
0.120000 0.020000 0
0.140000 0.020000 0
0.160000 0.020000 0
0.180000 0.020000 0
0.200000 0.020000 0
0.220000 0.020000 0
0.240000 0.020000 0
0.260000 0.020000 0
0.280000 0.020000 0
0.300000 0.020000 0
0.320000 0.020000 0
0.340000 0.020000 0
0.360000 0.020000 0
0.380000 0.020000 0
0.400000 0.020000 0
0.420000 0.020000 0
0.440000 0.020000 0
0.460000 0.020000 0
0.480000 0.020000 0
0.500000 0.020000 0
0.520000 0.020000 0
0.540000 0.020000 0
0.560000 0.020000 0
0.580000 0.020000 0
0.600000 0.020000 0
0.620000 0.020000 0
0.640000 0.020000 0
0.660000 0.020000 0
0.680000 0.020000 0
0.700000 0.020000 0
0.720000 0.020000 0
0.740000 0.020000 0
0.760000 0.020000 0
0.780000 0.020000 0
0.800000 0.020000 0
0.820000 0.020000 0
0.840000 0.020000 0
0.860000 0.020000 0
0.880000 0.020000 0
0.900000 0.020000 0
0.920000 0.020000 0
0.940000 0.020000 0
0.960000 0.020000 0
0.980000 0.020000 0
1.000000 0.020000 0
1.020000 0.020000 0
1.040000 0.020000 0
1.060000 0.020000 0
1.080000 0.020000 0
1.100000 0.020000 0
1.120000 0.020000 0
1.140000 0.020000 0
1.160000 0.020000 0
1.180000 0.020000 0
1.200000 0.020000 0
1.220000 0.020000 0
1.240000 0.020000 0
1.260000 0.020000 0
1.280000 0.020000 0
1.300000 0.020000 0
1.320000 0.020000 0
1.340000 0.020000 0
1.360000 0.020000 0
1.380000 0.020000 0
1.400000 0.020000 0
1.420000 0.020000 0
1.440000 0.020000 0
1.460000 0.020000 0
1.480000 0.020000 0
1.500000 0.020000 0
1.520000 0.020000 0
1.540000 0.020000 0
1.560000 0.020000 0
1.580000 0.020000 0
1.600000 0.020000 0
1.620000 0.020000 0
1.640000 0.020000 0
1.660000 0.020000 0
1.680000 0.020000 0
1.700000 0.020000 0
1.720000 0.020000 0
1.740000 0.020000 0
1.760000 0.020000 0
1.780000 0.020000 0
1.800000 0.020000 0
1.820000 0.020000 0
1.840000 0.020000 0
1.860000 0.020000 0
1.880000 0.020000 0
1.900000 0.020000 0
1.920000 0.020000 0
1.940000 0.020000 0
1.960000 0.020000 0
0.000000 0.040000 0
0.020000 0.040000 0
0.040000 0.040000 0
0.060000 0.040000 0
0.080000 0.040000 0
0.100000 0.040000 0
0.120000 0.040000 0
0.140000 0.040000 0
0.160000 0.040000 0
0.180000 0.040000 0
0.200000 0.040000 0
0.220000 0.040000 0
0.240000 0.040000 0
0.260000 0.040000 0
0.280000 0.040000 0
0.300000 0.040000 0
0.320000 0.040000 0
0.340000 0.040000 0
0.360000 0.040000 0
0.380000 0.040000 0
0.400000 0.040000 0
0.420000 0.040000 0
0.440000 0.040000 0
0.460000 0.040000 0
0.480000 0.040000 0
0.500000 0.040000 0
0.520000 0.040000 0
0.540000 0.040000 0
0.560000 0.040000 0
0.580000 0.040000 0
0.600000 0.040000 0
0.620000 0.040000 0
0.640000 0.040000 0
0.660000 0.040000 0
0.680000 0.040000 0
0.700000 0.040000 0
0.720000 0.040000 0
0.740000 0.040000 0
0.760000 0.040000 0
0.780000 0.040000 0
0.800000 0.040000 0
0.820000 0.040000 0
0.840000 0.040000 0
0.860000 0.040000 0
0.880000 0.040000 0
0.900000 0.040000 0
0.920000 0.040000 0
0.940000 0.040000 0
0.960000 0.040000 0
0.980000 0.040000 0
1.000000 0.040000 0
1.020000 0.040000 0
1.040000 0.040000 0
1.060000 0.040000 0
1.080000 0.040000 0
1.100000 0.040000 0
1.120000 0.040000 0
1.140000 0.040000 0
1.160000 0.040000 0
1.180000 0.040000 0
1.200000 0.040000 0
1.220000 0.040000 0
1.240000 0.040000 0
1.260000 0.040000 0
1.280000 0.040000 0
1.300000 0.040000 0
1.320000 0.040000 0
1.340000 0.040000 0
1.360000 0.040000 0
1.380000 0.040000 0
1.400000 0.040000 0
1.420000 0.040000 0
1.440000 0.040000 0
1.460000 0.040000 0
1.480000 0.040000 0
1.500000 0.040000 0
1.520000 0.040000 0
1.540000 0.040000 0
1.560000 0.040000 0
1.580000 0.040000 0
1.600000 0.040000 0
1.620000 0.040000 0
1.640000 0.040000 0
1.660000 0.040000 0
1.680000 0.040000 0
1.700000 0.040000 0
1.720000 0.040000 0
1.740000 0.040000 0
1.760000 0.040000 0
1.780000 0.040000 0
1.800000 0.040000 0
1.820000 0.040000 0
1.840000 0.040000 0
1.860000 0.040000 0
1.880000 0.040000 0
1.900000 0.040000 0
1.920000 0.040000 0
1.940000 0.040000 0
1.960000 0.040000 0
0.000000 0.060000 0
0.020000 0.060000 0
0.040000 0.060000 0
0.060000 0.060000 0
0.080000 0.060000 0
0.100000 0.060000 0
0.120000 0.060000 0
0.140000 0.060000 0
0.160000 0.060000 0
0.180000 0.060000 0
0.200000 0.060000 0
0.220000 0.060000 0
0.240000 0.060000 0
0.260000 0.060000 0
0.280000 0.060000 0
0.300000 0.060000 0
0.320000 0.060000 0
0.340000 0.060000 0
0.360000 0.060000 0
0.380000 0.060000 0
0.400000 0.060000 0
0.420000 0.060000 0
0.440000 0.060000 0
0.460000 0.060000 0
0.480000 0.060000 0
0.500000 0.060000 0
0.520000 0.060000 0
0.540000 0.060000 0
0.560000 0.060000 0
0.580000 0.060000 0
0.600000 0.060000 0
0.620000 0.060000 0
0.640000 0.060000 0
0.660000 0.060000 0
0.680000 0.060000 0
0.700000 0.060000 0
0.720000 0.060000 0
0.740000 0.060000 0
0.760000 0.060000 0
0.780000 0.060000 0
0.800000 0.060000 0
0.820000 0.060000 0
0.840000 0.060000 0
0.860000 0.060000 0
0.880000 0.060000 0
0.900000 0.060000 0
0.920000 0.060000 0
0.940000 0.060000 0
0.960000 0.060000 0
0.980000 0.060000 0
1.000000 0.060000 0
1.020000 0.060000 0
1.040000 0.060000 0
1.060000 0.060000 0
1.080000 0.060000 0
1.100000 0.060000 0
1.120000 0.060000 0
1.140000 0.060000 0
1.160000 0.060000 0
1.180000 0.060000 0
1.200000 0.060000 0
1.220000 0.060000 0
1.240000 0.060000 0
1.260000 0.060000 0
1.280000 0.060000 0
1.300000 0.060000 0
1.320000 0.060000 0
1.340000 0.060000 0
1.360000 0.060000 0
1.380000 0.060000 0
1.400000 0.060000 0
1.420000 0.060000 0
1.440000 0.060000 0
1.460000 0.060000 0
1.480000 0.060000 0
1.500000 0.060000 0
1.520000 0.060000 0
1.540000 0.060000 0
1.560000 0.060000 0
1.580000 0.060000 0
1.600000 0.060000 0
1.620000 0.060000 0
1.640000 0.060000 0
1.660000 0.060000 0
1.680000 0.060000 0
1.700000 0.060000 0
1.720000 0.060000 0
1.740000 0.060000 0
1.760000 0.060000 0
1.780000 0.060000 0
1.800000 0.060000 0
1.820000 0.060000 0
1.840000 0.060000 0
1.860000 0.060000 0
1.880000 0.060000 0
1.900000 0.060000 0
1.920000 0.060000 0
1.940000 0.060000 0
1.960000 0.060000 0
0.000000 0.080000 0
0.020000 0.080000 0
0.040000 0.080000 0
0.060000 0.080000 0
0.080000 0.080000 0
0.100000 0.080000 0
0.120000 0.080000 0
0.140000 0.080000 0
0.160000 0.080000 0
0.180000 0.080000 0
0.200000 0.080000 0
0.220000 0.080000 0
0.240000 0.080000 0
0.260000 0.080000 0
0.280000 0.080000 0
0.300000 0.080000 0
0.320000 0.080000 0
0.340000 0.080000 0
0.360000 0.080000 0
0.380000 0.080000 0
0.400000 0.080000 0
0.420000 0.080000 0
0.440000 0.080000 0
0.460000 0.080000 0
0.480000 0.080000 0
0.500000 0.080000 0
0.520000 0.080000 0
0.540000 0.080000 0
0.560000 0.080000 0
0.580000 0.080000 0
0.600000 0.080000 0
0.620000 0.080000 0
0.640000 0.080000 0
0.660000 0.080000 0
0.680000 0.080000 0
0.700000 0.080000 0
0.720000 0.080000 0
0.740000 0.080000 0
0.760000 0.080000 0
0.780000 0.080000 0
0.800000 0.080000 0
0.820000 0.080000 0
0.840000 0.080000 0
0.860000 0.080000 0
0.880000 0.080000 0
0.900000 0.080000 0
0.920000 0.080000 0
0.940000 0.080000 0
0.960000 0.080000 0
0.980000 0.080000 0
1.000000 0.080000 0
1.020000 0.080000 0
1.040000 0.080000 0
1.060000 0.080000 0
1.080000 0.080000 0
1.100000 0.080000 0
1.120000 0.080000 0
1.140000 0.080000 0
1.160000 0.080000 0
1.180000 0.080000 0
1.200000 0.080000 0
1.220000 0.080000 0
1.240000 0.080000 0
1.260000 0.080000 0
1.280000 0.080000 0
1.300000 0.080000 0
1.320000 0.080000 0
1.340000 0.080000 0
1.360000 0.080000 0
1.380000 0.080000 0
1.400000 0.080000 0
1.420000 0.080000 0
1.440000 0.080000 0
1.460000 0.080000 0
1.480000 0.080000 0
1.500000 0.080000 0
1.520000 0.080000 0
1.540000 0.080000 0
1.560000 0.080000 0
1.580000 0.080000 0
1.600000 0.080000 0
1.620000 0.080000 0
1.640000 0.080000 0
1.660000 0.080000 0
1.680000 0.080000 0
1.700000 0.080000 0
1.720000 0.080000 0
1.740000 0.080000 0
1.760000 0.080000 0
1.780000 0.080000 0
1.800000 0.080000 0
1.820000 0.080000 0
1.840000 0.080000 0
1.860000 0.080000 0
1.880000 0.080000 0
[...]
POINT_DATA 4851 

VECTORS velocity float
0.000000 0.000000 0
-0.000353 0.000000 0
-0.000488 0.000000 0
-0.000460 0.000000 0
-0.000389 0.000000 0
-0.000324 0.000000 0
-0.000275 0.000000 0
-0.000239 0.000000 0
-0.000213 0.000000 0
-0.000192 0.000000 0
-0.000176 0.000000 0
-0.000162 0.000000 0
-0.000150 0.000000 0
-0.000139 0.000000 0
-0.000130 0.000000 0
-0.000121 0.000000 0
-0.000113 0.000000 0
-0.000106 0.000000 0
-0.000098 0.000000 0
-0.000092 0.000000 0
-0.000085 0.000000 0
-0.000079 0.000000 0
-0.000073 0.000000 0
-0.000068 0.000000 0
-0.000062 0.000000 0
-0.000057 0.000000 0
-0.000052 0.000000 0
-0.000047 0.000000 0
-0.000042 0.000000 0
-0.000038 0.000000 0
-0.000033 0.000000 0
-0.000028 0.000000 0
-0.000023 0.000000 0
-0.000016 0.000000 0
-0.000009 0.000000 0
-0.000003 0.000000 0
0.000000 0.000000 0
0.000000 0.000000 0
0.000000 0.000000 0
0.000000 0.000000 0
0.000000 0.000000 0
-0.000014 0.000000 0
-0.000046 0.000000 0
-0.000080 0.000000 0
-0.000109 0.000000 0
-0.000130 0.000000 0
-0.000144 0.000000 0
-0.000153 0.000000 0
-0.000159 0.000000 0
-0.000163 0.000000 0
-0.000166 0.000000 0
-0.000168 0.000000 0
-0.000170 0.000000 0
-0.000172 0.000000 0
-0.000174 0.000000 0
-0.000175 0.000000 0
-0.000177 0.000000 0
-0.000178 0.000000 0
-0.000179 0.000000 0
-0.000181 0.000000 0
-0.000182 0.000000 0
-0.000183 0.000000 0
-0.000184 0.000000 0
-0.000185 0.000000 0
-0.000186 0.000000 0
-0.000187 0.000000 0
-0.000188 0.000000 0
-0.000189 0.000000 0
-0.000190 0.000000 0
-0.000191 0.000000 0
-0.000191 0.000000 0
-0.000192 0.000000 0
-0.000193 0.000000 0
-0.000194 0.000000 0
-0.000195 0.000000 0
-0.000196 0.000000 0
-0.000196 0.000000 0
-0.000197 0.000000 0
-0.000198 0.000000 0
-0.000198 0.000000 0
-0.000198 0.000000 0
-0.000197 0.000000 0
-0.000196 0.000000 0
-0.000195 0.000000 0
-0.000194 0.000000 0
-0.000194 0.000000 0
-0.000196 0.000000 0
-0.000201 0.000000 0
-0.000211 0.000000 0
-0.000225 0.000000 0
-0.000243 0.000000 0
-0.000263 0.000000 0
-0.000280 0.000000 0
-0.000286 0.000000 0
-0.000272 0.000000 0
-0.000229 0.000000 0
-0.000153 0.000000 0
-0.000060 0.000000 0
0.000000 0.000000 0
0.000000 0.000353 0
-0.000705 0.000489 0
-0.001129 0.000108 0
-0.001198 -0.000098 0
-0.001111 -0.000135 0
-0.000990 -0.000113 0
-0.000877 -0.000084 0
-0.000783 -0.000062 0
-0.000708 -0.000046 0
-0.000646 -0.000036 0
-0.000595 -0.000030 0
-0.000551 -0.000025 0
-0.000512 -0.000022 0
-0.000477 -0.000019 0
-0.000446 -0.000018 0
-0.000417 -0.000016 0
-0.000390 -0.000015 0
-0.000364 -0.000014 0
-0.000340 -0.000013 0
-0.000318 -0.000012 0
-0.000296 -0.000012 0
-0.000275 -0.000011 0
-0.000255 -0.000011 0
-0.000235 -0.000010 0
-0.000216 -0.000010 0
-0.000197 -0.000010 0
-0.000180 -0.000009 0
-0.000162 -0.000009 0
-0.000145 -0.000009 0
-0.000129 -0.000008 0
-0.000112 -0.000009 0
-0.000094 -0.000010 0
-0.000075 -0.000011 0
-0.000053 -0.000013 0
-0.000030 -0.000013 0
-0.000010 -0.000008 0
0.000000 -0.000002 0
0.000000 0.000000 0
0.000000 0.000000 0
0.000000 0.000000 0
0.000000 0.000014 0
-0.000045 0.000045 0
-0.000135 0.000065 0
-0.000235 0.000063 0
-0.000324 0.000050 0
-0.000393 0.000035 0
-0.000443 0.000023 0
-0.000479 0.000014 0
-0.000504 0.000009 0
-0.000522 0.000006 0
-0.000535 0.000005 0
-0.000546 0.000004 0
-0.000556 0.000003 0
-0.000564 0.000003 0
-0.000571 0.000003 0
-0.000578 0.000003 0
-0.000584 0.000002 0
-0.000590 0.000002 0
-0.000595 0.000002 0
-0.000600 0.000002 0
-0.000605 0.000002 0
-0.000609 0.000002 0
-0.000613 0.000002 0
-0.000617 0.000002 0
-0.000621 0.000002 0
-0.000625 0.000001 0
-0.000628 0.000001 0
-0.000631 0.000001 0
-0.000634 0.000001 0
-0.000637 0.000001 0
-0.000640 0.000001 0
-0.000643 0.000001 0
-0.000646 0.000001 0
-0.000648 0.000001 0
-0.000651 0.000001 0
-0.000653 0.000001 0
-0.000656 0.000001 0
-0.000657 0.000001 0
-0.000658 0.000000 0
-0.000658 -0.000000 0
-0.000657 -0.000001 0
-0.000655 -0.000002 0
-0.000651 -0.000003 0
-0.000647 -0.000003 0
-0.000645 -0.000001 0
-0.000646 0.000002 0
-0.000654 0.000007 0
-0.000671 0.000015 0
-0.000700 0.000023 0
-0.000742 0.000032 0
-0.000792 0.000038 0
-0.000842 0.000036 0
-0.000878 0.000022 0
-0.000878 -0.000008 0
-0.000816 -0.000058 0
-0.000670 -0.000120 0
-0.000439 -0.000169 0
-0.000171 -0.000153 0
0.000000 -0.000060 0
0.000000 0.000706 0
-0.000610 0.001130 0
-0.001204 0.000494 0
-0.001478 -0.000016 0
-0.001520 -0.000208 0
-0.001452 -0.000234 0
-0.001348 -0.000205 0
-0.001242 -0.000168 0
-0.001144 -0.000136 0
-0.001059 -0.000112 0
-0.000983 -0.000095 0
-0.000916 -0.000082 0
-0.000856 -0.000072 0
-0.000802 -0.000065 0
-0.000751 -0.000060 0
-0.000704 -0.000055 0
-0.000660 -0.000051 0
-0.000618 -0.000048 0
-0.000579 -0.000046 0
-0.000541 -0.000044 0
-0.000504 -0.000042 0
-0.000469 -0.000040 0
-0.000434 -0.000039 0
-0.000401 -0.000038 0
-0.000369 -0.000037 0
-0.000337 -0.000035 0
-0.000306 -0.000034 0
-0.000276 -0.000033 0
-0.000247 -0.000033 0
-0.000218 -0.000032 0
-0.000188 -0.000034 0
-0.000157 -0.000036 0
-0.000123 -0.000040 0
-0.000087 -0.000044 0
-0.000050 -0.000043 0
-0.000017 -0.000029 0
0.000000 -0.000010 0
0.000000 0.000000 0
0.000000 0.000000 0
0.000000 0.000000 0
0.000000 0.000044 0
-0.000064 0.000134 0
-0.000189 0.000190 0
-0.000330 0.000188 0
-0.000462 0.000157 0
-0.000572 0.000119 0
-0.000658 0.000085 0
-0.000723 0.000060 0
-0.000772 0.000042 0
-0.000810 0.000031 0
-0.000839 0.000024 0
-0.000863 0.000020 0
-0.000883 0.000017 0
-0.000901 0.000015 0
-0.000917 0.000014 0
-0.000931 0.000012 0
-0.000944 0.000011 0
-0.000956 0.000010 0
-0.000967 0.000010 0
-0.000977 0.000009 0
-0.000986 0.000008 0
-0.000994 0.000008 0
-0.001002 0.000008 0
-0.001010 0.000007 0
-0.001017 0.000007 0
-0.001023 0.000006 0
-0.001029 0.000006 0
-0.001035 0.000006 0
-0.001041 0.000006 0
-0.001046 0.000005 0
-0.001051 0.000005 0
-0.001056 0.000005 0
-0.001060 0.000005 0
-0.001064 0.000005 0
-0.001068 0.000005 0
-0.001072 0.000004 0
-0.001075 0.000003 0
-0.001077 0.000002 0
-0.001078 0.000000 0
-0.001078 -0.000002 0
-0.001075 -0.000004 0
-0.001071 -0.000007 0
-0.001065 -0.000008 0
-0.001060 -0.000007 0
-0.001056 -0.000002 0
-0.001059 0.000008 0
-0.001071 0.000024 0
-0.001097 0.000046 0
-0.001139 0.000070 0
-0.001196 0.000091 0
-0.001262 0.000100 0
-0.001323 0.000086 0
-0.001355 0.000035 0
-0.001327 -0.000063 0
-0.001206 -0.000208 0
-0.000969 -0.000377 0
-0.000622 -0.000499 0
-0.000239 -0.000440 0
0.000000 -0.000172 0
0.000000 0.000963 0
-0.000433 0.001693 0
-0.001009 0.000977 0
-0.001387 0.000218 0
-0.001546 -0.000161 0
-0.001565 -0.000285 0
-0.001515 -0.000294 0
-0.001437 -0.000265 0
-0.001352 -0.000229 0
-0.001270 -0.000197 0
-0.001192 -0.000171 0
-0.001120 -0.000152 0
-0.001054 -0.000136 0
-0.000992 -0.000124 0
-0.000933 -0.000115 0
-0.000878 -0.000107 0
-0.000825 -0.000100 0
-0.000775 -0.000095 0
-0.000727 -0.000091 0
-0.000680 -0.000087 0
-0.000635 -0.000083 0
-0.000591 -0.000081 0
-0.000548 -0.000078 0
-0.000506 -0.000076 0
-0.000466 -0.000074 0
-0.000426 -0.000072 0
-0.000387 -0.000070 0
-0.000348 -0.000068 0
-0.000310 -0.000067 0
-0.000272 -0.000067 0
-0.000234 -0.000069 0
-0.000194 -0.000074 0
-0.000152 -0.000080 0
-0.000107 -0.000086 0
-0.000061 -0.000082 0
-0.000021 -0.000058 0
0.000000 -0.000019 0
0.000000 0.000000 0
0.000000 0.000000 0
0.000000 0.000000 0
0.000000 0.000078 0
-0.000064 0.000233 0
-0.000190 0.000331 0
-0.000338 0.000336 0
-0.000482 0.000291 0
-0.000608 0.000231 0
-0.000713 0.000174 0
-0.000797 0.000128 0
-0.000863 0.000095 0
-0.000916 0.000073 0
-0.000960 0.000058 0
-0.000996 0.000048 0
-0.001027 0.000041 0
-0.001054 0.000036 0
-0.001079 0.000032 0
-0.001101 0.000029 0
-0.001120 0.000027 0
-0.001138 0.000025 0
-0.001155 0.000023 0
-0.001170 0.000021 0
-0.001184 0.000019 0
-0.001196 0.000018 0
-0.001208 0.000017 0
-0.001219 0.000016 0
-0.001228 0.000015 0
-0.001238 0.000014 0
-0.001246 0.000013 0
-0.001254 0.000012 0
-0.001262 0.000012 0
-0.001269 0.000011 0
-0.001275 0.000011 0
-0.001281 0.000010 0
-0.001287 0.000010 0
-0.001292 0.000009 0
-0.001297 0.000009 0
-0.001302 0.000008 0
-0.001305 0.000006 0
-0.001308 0.000004 0
-0.001309 0.000000 0
-0.001308 -0.000004 0
-0.001305 -0.000008 0
-0.001300 -0.000012 0
-0.001294 -0.000014 0
-0.001288 -0.000012 0
-0.001285 -0.000002 0
-0.001288 0.000016 0
-0.001301 0.000045 0
-0.001329 0.000082 0
-0.001373 0.000123 0
-0.001432 0.000155 0
-0.001496 0.000164 0
-0.001551 0.000128 0
-0.001568 0.000026 0
-0.001516 -0.000156 0
-0.001359 -0.000416 0
-0.001076 -0.000704 0
-0.000681 -0.000899 0
-0.000258 -0.000776 0
0.000000 -0.000300 0
0.000000 0.001139 0
-0.000294 0.002140 0
-0.000789 0.001448 0
-0.001182 0.000521 0
-0.001402 -0.000029 0
-0.001486 -0.000265 0
-0.001488 -0.000333 0
-0.001449 -0.000330 0
-0.001390 -0.000303 0
-0.001325 -0.000272 0
-0.001258 -0.000244 0
-0.001193 -0.000220 0
-0.001130 -0.000201 0
-0.001070 -0.000186 0
-0.001012 -0.000173 0
-0.000956 -0.000163 0
-0.000901 -0.000154 0
-0.000849 -0.000147 0
-0.000798 -0.000141 0
-0.000748 -0.000135 0
-0.000700 -0.000131 0
-0.000652 -0.000127 0
-0.000605 -0.000123 0
-0.000560 -0.000120 0
-0.000515 -0.000117 0
-0.000471 -0.000114 0
-0.000427 -0.000112 0
-0.000384 -0.000109 0
-0.000342 -0.000108 0
-0.000299 -0.000108 0
-0.000256 -0.000112 0
-0.000212 -0.000118 0
-0.000165 -0.000127 0
-0.000115 -0.000134 0
-0.000066 -0.000128 0
-0.000023 -0.000091 0
0.000000 -0.000031 0
0.000000 0.000000 0
0.000000 0.000000 0
0.000000 0.000000 0
0.000000 0.000108 0
-0.000052 0.000324 0
-0.000161 0.000463 0
-0.000294 0.000480 0
-0.000429 0.000428 0
-0.000553 0.000350 0
-0.000661 0.000274 0
-0.000751 0.000210 0
-0.000827 0.000162 0
-0.000889 0.000127 0
-0.000942 0.000104 0
-0.000988 0.000087 0
-0.001029 0.000075 0
-0.001064 0.000066 0
-0.001097 0.000060 0
-0.001126 0.000054 0
-0.001153 0.000049 0
-0.001177 0.000045 0
-0.001199 0.000041 0
-0.001219 0.000038 0
-0.001237 0.000035 0
-0.001254 0.000032 0
-0.001269 0.000030 0
-0.001283 0.000027 0
-0.001295 0.000026 0
-0.001307 0.000024 0
-0.001318 0.000022 0
-0.001328 0.000021 0
-0.001337 0.000020 0
-0.001345 0.000019 0
-0.001354 0.000018 0
-0.001361 0.000017 0
-0.001368 0.000016 0
-0.001375 0.000015 0
-0.001380 0.000014 0
-0.001386 0.000012 0
-0.001390 0.000009 0
-0.001394 0.000005 0
-0.001395 0.000000 0
-0.001396 -0.000006 0
-0.001394 -0.000012 0
-0.001390 -0.000018 0
-0.001385 -0.000020 0
-0.001380 -0.000016 0
-0.001377 -0.000002 0
-0.001381 0.000025 0
-0.001393 0.000065 0
-0.001419 0.000118 0
-0.001460 0.000173 0
-0.001513 0.000214 0
-0.001571 0.000219 0
-0.001615 0.000158 0
-0.001621 0.000000 0
-0.001554 -0.000272 0
-0.001382 -0.000649 0
-0.001085 -0.001055 0
-0.000681 -0.001317 0
-0.000255 -0.001121 0
0.000000 -0.000430 0
0.000000 0.001258 0
-0.000199 0.002483 0
-0.000604 0.001865 0
-0.000968 0.000832 0
-0.001203 0.000144 0
-0.001321 -0.000198 0
-0.001359 -0.000331 0
-0.001350 -0.000363 0
-0.001317 -0.000353 0
-0.001272 -0.000329 0
-0.001221 -0.000303 0
-0.001169 -0.000279 0
-0.001116 -0.000259 0
-0.001063 -0.000243 0
-0.001010 -0.000229 0
-0.000959 -0.000217 0
-0.000908 -0.000207 0
-0.000857 -0.000198 0
-0.000808 -0.000191 0
-0.000759 -0.000185 0
-0.000711 -0.000179 0
-0.000664 -0.000174 0
-0.000617 -0.000170 0
-0.000571 -0.000166 0
-0.000525 -0.000163 0
-0.000480 -0.000159 0
-0.000435 -0.000156 0
-0.000391 -0.000153 0
-0.000348 -0.000152 0
-0.000304 -0.000152 0
-0.000259 -0.000157 0
-0.000213 -0.000165 0
-0.000165 -0.000176 0
-0.000115 -0.000184 0
-0.000065 -0.000175 0
-0.000022 -0.000124 0
0.000000 -0.000042 0
0.000000 0.000000 0
0.000000 0.000000 0
0.000000 0.000000 0
0.000000 0.000130 0
-0.000037 0.000394 0
-0.000119 0.000572 0
-0.000224 0.000603 0
-0.000336 0.000550 0
-0.000444 0.000462 0
-0.000542 0.000372 0
-0.000629 0.000294 0
-0.000704 0.000233 0
-0.000770 0.000189 0
-0.000827 0.000157 0
-0.000879 0.000134 0
-0.000926 0.000117 0
-0.000969 0.000104 0
-0.001008 0.000094 0
-0.001044 0.000085 0
-0.001077 0.000078 0
-0.001107 0.000071 0
-0.001135 0.000065 0
-0.001160 0.000059 0
-0.001183 0.000054 0
-0.001203 0.000049 0
-0.001222 0.000045 0
-0.001239 0.000042 0
-0.001254 0.000039 0
-0.001268 0.000036 0
-0.001280 0.000034 0
-0.001292 0.000031 0
-0.001303 0.000030 0
-0.001314 0.000028 0
-0.001323 0.000026 0
-0.001332 0.000025 0
-0.001341 0.000023 0
-0.001349 0.000022 0
-0.001356 0.000020 0
-0.001363 0.000017 0
-0.001369 0.000014 0
-0.001374 0.000009 0
-0.001378 0.000002 0
-0.001380 -0.000006 0
-0.001381 -0.000014 0
-0.001380 -0.000021 0
-0.001378 -0.000024 0
-0.001375 -0.000019 0
-0.001375 -0.000002 0
-0.001378 0.000032 0
-0.001390 0.000083 0
-0.001412 0.000149 0
-0.001448 0.000217 0
-0.001494 0.000266 0
-0.001543 0.000266 0
-0.001579 0.000178 0
-0.001577 -0.000035 0
-0.001506 -0.000396 0
-0.001333 -0.000885 0
-0.001043 -0.001405 0
-0.000652 -0.001729 0
-0.000242 -0.001457 0
0.000000 -0.000555 0
0.000000 0.001339 0
-0.000135 0.002745 0
-0.000461 0.002217 0
-0.000781 0.001121 0
-0.001005 0.000324 0
-0.001132 -0.000110 0
-0.001186 -0.000304 0
-0.001197 -0.000372 0
-0.001182 -0.000381 0
-0.001154 -0.000367 0
-0.001120 -0.000346 0
-0.001081 -0.000325 0
-0.001039 -0.000307 0
-0.000996 -0.000291 0
-0.000952 -0.000277 0
-0.000908 -0.000265 0
-0.000863 -0.000255 0
-0.000818 -0.000246 0
-0.000773 -0.000238 0
-0.000728 -0.000232 0
-0.000683 -0.000226 0
-0.000638 -0.000221 0
-0.000594 -0.000216 0
-0.000550 -0.000212 0
-0.000506 -0.000208 0
-0.000462 -0.000204 0
-0.000419 -0.000200 0
-0.000377 -0.000197 0
-0.000334 -0.000195 0
-0.000292 -0.000196 0
-0.000248 -0.000202 0
-0.000204 -0.000212 0
-0.000157 -0.000225 0
-0.000108 -0.000234 0
-0.000061 -0.000221 0
-0.000020 -0.000156 0
0.000000 -0.000053 0
0.000000 0.000000 0
0.000000 0.000000 0
0.000000 0.000000 0
0.000000 0.000144 0
-0.000021 0.000442 0
-0.000074 0.000651 0
-0.000145 0.000696 0
-0.000226 0.000647 0
-0.000308 0.000556 0
-0.000388 0.000458 0
-0.000462 0.000371 0
-0.000530 0.000302 0
-0.000592 0.000251 0
-0.000649 0.000213 0
-0.000702 0.000185 0
-0.000752 0.000164 0
-0.000800 0.000148 0
-0.000844 0.000135 0
-0.000886 0.000123 0
-0.000925 0.000112 0
-0.000961 0.000103 0
-0.000995 0.000094 0
-0.001025 0.000085 0
-0.001053 0.000078 0
-0.001077 0.000071 0
-0.001099 0.000065 0
-0.001119 0.000059 0
-0.001136 0.000054 0
-0.001152 0.000050 0
-0.001167 0.000047 0
-0.001181 0.000044 0
-0.001193 0.000041 0
-0.001206 0.000039 0
-0.001217 0.000036 0
-0.001228 0.000034 0
-0.001238 0.000032 0
-0.001248 0.000030 0
-0.001257 0.000028 0
-0.001266 0.000024 0
-0.001274 0.000020 0
-0.001282 0.000014 0
-0.001289 0.000007 0
-0.001295 -0.000003 0
-0.001299 -0.000013 0
-0.001302 -0.000021 0
-0.001304 -0.000025 0
-0.001306 -0.000020 0
-0.001308 0.000000 0
-0.001313 0.000040 0
-0.001324 0.000099 0
-0.001344 0.000175 0
-0.001374 0.000254 0
-0.001413 0.000310 0
-0.001454 0.000304 0
-0.001483 0.000192 0
-0.001477 -0.000074 0
-0.001408 -0.000516 0
-0.001245 -0.001112 0
-0.000973 -0.001737 0
-0.000608 -0.002118 0
-0.000226 -0.001773 0
0.000000 -0.000672 0
0.000000 0.001394 0
-0.000093 0.002945 0
-0.000354 0.002510 0
-0.000628 0.001376 0
-0.000831 0.000495 0
-0.000951 -0.000017 0
-0.001009 -0.000266 0
-0.001028 -0.000367 0
-0.001024 -0.000395 0
-0.001008 -0.000391 0
-0.000985 -0.000376 0
-0.000957 -0.000359 0
-0.000927 -0.000343 0
-0.000894 -0.000329 0
-0.000859 -0.000317 0
-0.000823 -0.000306 0
-0.000785 -0.000296 0
-0.000747 -0.000288 0
-0.000708 -0.000281 0
-0.000668 -0.000274 0
-0.000628 -0.000268 0
-0.000588 -0.000263 0
-0.000547 -0.000259 0
-0.000507 -0.000254 0
-0.000466 -0.000250 0
-0.000426 -0.000245 0
-0.000386 -0.000241 0
-0.000347 -0.000238 0
-0.000307 -0.000236 0
-0.000268 -0.000238 0
-0.000227 -0.000245 0
-0.000186 -0.000256 0
-0.000142 -0.000271 0
-0.000097 -0.000280 0
-0.000054 -0.000263 0
-0.000018 -0.000184 0
0.000000 -0.000062 0
0.000000 0.000000 0
0.000000 0.000000 0
0.000000 0.000000 0
0.000000 0.000151 0
-0.000008 0.000467 0
-0.000031 0.000696 0
-0.000067 0.000755 0
-0.000113 0.000713 0
-0.000166 0.000624 0
-0.000221 0.000525 0
-0.000276 0.000435 0
-0.000330 0.000363 0
-0.000383 0.000308 0
-0.000435 0.000267 0
-0.000486 0.000237 0
-0.000536 0.000214 0
-0.000585 0.000196 0
-0.000633 0.000180 0
-0.000679 0.000166 0
-0.000723 0.000153 0
-0.000765 0.000140 0
-0.000804 0.000128 0
-0.000840 0.000117 0
-0.000873 0.000106 0
-0.000902 0.000096 0
-0.000928 0.000087 0
-0.000951 0.000079 0
-0.000971 0.000072 0
-0.000989 0.000067 0
-0.001005 0.000062 0
-0.001021 0.000058 0
-0.001035 0.000054 0
-0.001049 0.000051 0
-0.001062 0.000048 0
-0.001075 0.000046 0
-0.001087 0.000043 0
-0.001099 0.000041 0
-0.001111 0.000038 0
-0.001122 0.000034 0
-0.001133 0.000029 0
-0.001144 0.000023 0
-0.001155 0.000015 0
-0.001164 0.000004 0
-0.001174 -0.000007 0
-0.001182 -0.000016 0
-0.001189 -0.000021 0
-0.001195 -0.000016 0
-0.001201 0.000006 0
-0.001209 0.000048 0
-0.001220 0.000114 0
-0.001238 0.000198 0
-0.001262 0.000285 0
-0.001294 0.000346 0
-0.001328 0.000336 0
-0.001351 0.000201 0
-0.001344 -0.000111 0
-0.001281 -0.000628 0
-0.001135 -0.001320 0
-0.000889 -0.002042 0
-0.000557 -0.002477 0
-0.000207 -0.002065 0
0.000000 -0.000781 0
0.000000 0.001432 0
-0.000063 0.003099 0
-0.000274 0.002753 0
-0.000508 0.001598 0
-0.000687 0.000648 0
-0.000794 0.000069 0
-0.000848 -0.000228 0
-0.000867 -0.000357 0
-0.000867 -0.000400 0
-0.000857 -0.000406 0
-0.000842 -0.000396 0
-0.000823 -0.000383 0
-0.000801 -0.000370 0
-0.000777 -0.000358 0
-0.000750 -0.000348 0
-0.000722 -0.000339 0
-0.000691 -0.000331 0
-0.000659 -0.000324 0
-0.000627 -0.000317 0
-0.000593 -0.000311 0
-0.000558 -0.000306 0
-0.000523 -0.000301 0
-0.000487 -0.000297 0
-0.000451 -0.000292 0
-0.000415 -0.000288 0
-0.000379 -0.000283 0
-0.000344 -0.000279 0
-0.000308 -0.000276 0
-0.000273 -0.000274 0
-0.000237 -0.000276 0
-0.000201 -0.000284 0
-0.000163 -0.000297 0
-0.000124 -0.000313 0
-0.000084 -0.000322 0
-0.000045 -0.000300 0
-0.000014 -0.000209 0
0.000000 -0.000070 0
0.000000 0.000000 0
0.000000 0.000000 0
0.000000 0.000000 0
0.000000 0.000151 0
0.000004 0.000472 0
0.000006 0.000710 0
0.000003 0.000779 0
-0.000009 0.000746 0
-0.000030 0.000663 0
-0.000057 0.000568 0
-0.000090 0.000481 0
-0.000127 0.000410 0
-0.000166 0.000355 0
-0.000209 0.000316 0
-0.000253 0.000286 0
-0.000300 0.000263 0
-0.000347 0.000245 0
-0.000395 0.000228 0
-0.000444 0.000213 0
-0.000492 0.000198 0
-0.000539 0.000183 0
-0.000584 0.000169 0
-0.000626 0.000154 0
-0.000665 0.000139 0
-0.000699 0.000126 0
-0.000730 0.000113 0
-0.000757 0.000102 0
-0.000780 0.000092 0
-0.000800 0.000085 0
-0.000818 0.000078 0
-0.000835 0.000073 0
-0.000850 0.000069 0
-0.000865 0.000065 0
-0.000880 0.000062 0
-0.000895 0.000059 0
-0.000910 0.000056 0
-0.000924 0.000053 0
-0.000938 0.000050 0
-0.000952 0.000047 0
-0.000966 0.000042 0
-0.000981 0.000035 0
-0.000995 0.000027 0
-0.001009 0.000016 0
-0.001023 0.000004 0
-0.001036 -0.000006 0
-0.001049 -0.000012 0
-0.001061 -0.000007 0
-0.001071 0.000014 0
-0.001082 0.000058 0
-0.001095 0.000128 0
-0.001110 0.000217 0
-0.001131 0.000311 0
-0.001156 0.000375 0
-0.001183 0.000361 0
-0.001201 0.000208 0
-0.001194 -0.000144 0
-0.001140 -0.000726 0
-0.001013 -0.001504 0
-0.000797 -0.002315 0
-0.000502 -0.002800 0
-0.000188 -0.002330 0
0.000000 -0.000879 0
0.000000 0.001458 0
-0.000043 0.003219 0
-0.000215 0.002955 0
-0.000415 0.001789 0
-0.000571 0.000781 0
-0.000665 0.000144 0
-0.000711 -0.000194 0
-0.000726 -0.000348 0
-0.000726 -0.000404 0
-0.000718 -0.000416 0
-0.000706 -0.000410 0
-0.000693 -0.000400 0
-0.000677 -0.000389 0
-0.000659 -0.000380 0
-0.000639 -0.000372 0
-0.000617 -0.000365 0
-0.000593 -0.000358 0
-0.000568 -0.000353 0
-0.000541 -0.000347 0
-0.000512 -0.000343 0
-0.000483 -0.000338 0
-0.000453 -0.000334 0
-0.000422 -0.000330 0
-0.000391 -0.000326 0
-0.000360 -0.000321 0
-0.000329 -0.000317 0
-0.000298 -0.000312 0
-0.000267 -0.000309 0
-0.000236 -0.000307 0
-0.000205 -0.000310 0
-0.000173 -0.000319 0
-0.000140 -0.000333 0
-0.000105 -0.000350 0
-0.000070 -0.000358 0
-0.000037 -0.000332 0
-0.000011 -0.000229 0
0.000000 -0.000077 0
0.000000 0.000000 0
0.000000 0.000000 0
0.000000 0.000000 0
0.000000 0.000147 0
0.000012 0.000461 0
0.000036 0.000697 0
0.000061 0.000771 0