/*--------------------------------*- C++ -*----------------------------------*\
| =========                 |                                                 |
| \\      /  F ield         | OpenFOAM: The Open Source CFD Toolbox           |
|  \\    /   O peration     | Version:  5.x                                   |
|   \\  /    A nd           | Web:      www.OpenFOAM.org                      |
|    \\/     M anipulation  |                                                 |
\*---------------------------------------------------------------------------*/
FoamFile
{
    version     2.0;
    format      ascii;
    class       volScalarField;
    location    "0.3999";
    object      gradTy;
}
// * * * * * * * * * * * * * * * * * * * * * * * * * * * * * * * * * * * * * //

dimensions      [0 -1 0 1 0 0 0];

internalField   nonuniform List<scalar> 
2048
(
-28.5213
-28.4956
-28.4452
-28.3719
-28.2781
-28.1669
-28.0414
-27.9049
-27.7603
-27.6107
-27.4583
-27.3056
-27.1542
-27.0057
-26.8613
-26.722
-26.5887
-26.4617
-26.3415
-26.2284
-26.1222
-26.023
-25.9307
-25.845
-25.7658
-25.6928
-25.6258
-25.5646
-25.5089
-25.4586
-25.4136
-25.3736
-25.3386
-25.3085
-25.2832
-25.2628
-25.2473
-25.2367
-25.231
-25.2305
-25.2353
-25.2454
-25.2613
-25.2829
-25.3106
-25.3446
-25.3851
-25.4322
-25.486
-25.5464
-25.6131
-25.6858
-25.7635
-25.8452
-25.9295
-26.0146
-26.0986
-26.1791
-26.2538
-26.3204
-26.3767
-26.4207
-26.451
-26.4664
-28.5411
-28.5147
-28.4628
-28.3875
-28.2913
-28.1775
-28.0494
-27.9103
-27.7634
-27.6117
-27.4576
-27.3033
-27.1506
-27.001
-26.8558
-26.7159
-26.582
-26.4548
-26.3344
-26.2211
-26.1149
-26.0158
-25.9236
-25.838
-25.7589
-25.6861
-25.6192
-25.5581
-25.5026
-25.4524
-25.4074
-25.3675
-25.3325
-25.3024
-25.2771
-25.2567
-25.2411
-25.2304
-25.2246
-25.224
-25.2285
-25.2385
-25.2542
-25.2756
-25.3031
-25.337
-25.3773
-25.4244
-25.4782
-25.5388
-25.606
-25.6792
-25.7578
-25.8406
-25.9264
-26.0132
-26.0989
-26.1814
-26.258
-26.3263
-26.3842
-26.4294
-26.4605
-26.4764
-28.5793
-28.5514
-28.4966
-28.4173
-28.3165
-28.1976
-28.0644
-27.9204
-27.7691
-27.6134
-27.4559
-27.2987
-27.1436
-26.9921
-26.8453
-26.7042
-26.5694
-26.4415
-26.3207
-26.2073
-26.1011
-26.0021
-25.9101
-25.8248
-25.746
-25.6734
-25.6068
-25.546
-25.4906
-25.4406
-25.3958
-25.356
-25.321
-25.2909
-25.2656
-25.2451
-25.2293
-25.2184
-25.2125
-25.2116
-25.2158
-25.2255
-25.2408
-25.2618
-25.289
-25.3225
-25.3626
-25.4095
-25.4634
-25.5244
-25.5922
-25.6666
-25.7468
-25.8319
-25.9203
-26.0102
-26.0995
-26.1856
-26.2659
-26.3377
-26.3985
-26.4462
-26.4789
-26.4956
-28.6344
-28.6042
-28.5452
-28.46
-28.3522
-28.2259
-28.0853
-27.9343
-27.7767
-27.6154
-27.4531
-27.2919
-27.1335
-26.9792
-26.8302
-26.6874
-26.5513
-26.4225
-26.3013
-26.1877
-26.0815
-25.9828
-25.8911
-25.8062
-25.7278
-25.6556
-25.5893
-25.5288
-25.4738
-25.4241
-25.3794
-25.3397
-25.3049
-25.2748
-25.2494
-25.2288
-25.2128
-25.2017
-25.1954
-25.1941
-25.198
-25.2072
-25.2219
-25.2424
-25.269
-25.302
-25.3417
-25.3884
-25.4423
-25.5037
-25.5725
-25.6484
-25.7309
-25.819
-25.9113
-26.0058
-26.1001
-26.1916
-26.2772
-26.354
-26.4192
-26.4703
-26.5055
-26.5235
-28.7056
-28.6723
-28.6075
-28.5144
-28.3974
-28.2613
-28.111
-27.9511
-27.7854
-27.6172
-27.4489
-27.2828
-27.1202
-26.9626
-26.8109
-26.6659
-26.5283
-26.3985
-26.2767
-26.1629
-26.0569
-25.9585
-25.8672
-25.7828
-25.705
-25.6333
-25.5675
-25.5075
-25.4528
-25.4034
-25.3591
-25.3196
-25.2848
-25.2547
-25.2292
-25.2084
-25.1923
-25.1808
-25.1741
-25.1724
-25.1757
-25.1843
-25.1983
-25.2181
-25.244
-25.2763
-25.3154
-25.3617
-25.4156
-25.4773
-25.5472
-25.625
-25.7103
-25.8022
-25.8994
-25.9998
-26.1007
-26.1991
-26.2917
-26.3751
-26.446
-26.5017
-26.54
-26.5595
-28.7922
-28.755
-28.6827
-28.5796
-28.451
-28.3027
-28.1406
-27.9698
-27.7945
-27.6181
-27.443
-27.2711
-27.1038
-26.9423
-26.7875
-26.6401
-26.5008
-26.3699
-26.2475
-26.1336
-26.0278
-25.9299
-25.8392
-25.7555
-25.6783
-25.6072
-25.5421
-25.4825
-25.4284
-25.3794
-25.3353
-25.296
-25.2613
-25.2313
-25.2057
-25.1847
-25.1683
-25.1564
-25.1493
-25.1471
-25.1497
-25.1576
-25.1708
-25.1897
-25.2146
-25.246
-25.2843
-25.33
-25.3837
-25.4457
-25.5166
-25.5965
-25.685
-25.7815
-25.8845
-25.9919
-26.1009
-26.208
-26.3092
-26.4007
-26.4786
-26.5399
-26.582
-26.6035
-28.8942
-28.852
-28.7705
-28.6549
-28.512
-28.3491
-28.1729
-27.9894
-27.8031
-27.6175
-27.4348
-27.2567
-27.0843
-26.9186
-26.7604
-26.6104
-26.4692
-26.3371
-26.2142
-26.1002
-25.9949
-25.8976
-25.8077
-25.7248
-25.6483
-25.578
-25.5135
-25.4546
-25.4009
-25.3524
-25.3087
-25.2697
-25.2351
-25.2051
-25.1794
-25.1582
-25.1414
-25.1292
-25.1216
-25.1187
-25.1206
-25.1276
-25.1399
-25.1578
-25.1816
-25.2119
-25.2491
-25.294
-25.3471
-25.4093
-25.4811
-25.563
-25.655
-25.7565
-25.8663
-25.982
-26.1005
-26.2179
-26.3295
-26.4307
-26.517
-26.5849
-26.6316
-26.6554
-29.0117
-28.9633
-28.8704
-28.7396
-28.5796
-28.3993
-28.2068
-28.0089
-27.8105
-27.6149
-27.4242
-27.2395
-27.0617
-26.8915
-26.7297
-26.5768
-26.4336
-26.3003
-26.177
-26.0632
-25.9585
-25.862
-25.7732
-25.6912
-25.6156
-25.5461
-25.4823
-25.4241
-25.3711
-25.3231
-25.2798
-25.241
-25.2066
-25.1766
-25.1508
-25.1293
-25.1122
-25.0995
-25.0914
-25.0878
-25.0889
-25.095
-25.1062
-25.1229
-25.1455
-25.1744
-25.2103
-25.2541
-25.3064
-25.3683
-25.4409
-25.5247
-25.6203
-25.7273
-25.8445
-25.9697
-26.0993
-26.2287
-26.3525
-26.4651
-26.5613
-26.6368
-26.6886
-26.7149
-29.1449
-29.089
-28.9822
-28.8331
-28.6528
-28.4522
-28.2412
-28.0273
-27.8158
-27.6098
-27.4108
-27.2194
-27.0361
-26.8613
-26.6956
-26.5398
-26.3945
-26.26
-26.1364
-26.023
-25.9191
-25.8238
-25.7361
-25.6553
-25.5807
-25.512
-25.4491
-25.3915
-25.3392
-25.2918
-25.249
-25.2106
-25.1763
-25.1462
-25.1203
-25.0985
-25.0811
-25.0679
-25.0592
-25.0549
-25.0552
-25.0603
-25.0703
-25.0857
-25.1068
-25.1342
-25.1685
-25.2107
-25.2619
-25.3232
-25.396
-25.4816
-25.5807
-25.6935
-25.8189
-25.9547
-26.0969
-26.2402
-26.3781
-26.5039
-26.6113
-26.6955
-26.753
-26.7822
-29.2945
-29.2294
-29.1057
-28.9348
-28.7305
-28.5066
-28.2748
-28.0435
-27.8182
-27.6016
-27.3943
-27.1963
-27.0075
-26.828
-26.6584
-26.4994
-26.352
-26.2164
-26.0926
-25.9799
-25.8772
-25.7834
-25.6971
-25.6175
-25.544
-25.4762
-25.4141
-25.3574
-25.3058
-25.2591
-25.2168
-25.1787
-25.1446
-25.1144
-25.0883
-25.0663
-25.0484
-25.0348
-25.0254
-25.0204
-25.0199
-25.0238
-25.0326
-25.0466
-25.066
-25.0916
-25.1241
-25.1645
-25.2139
-25.2741
-25.3468
-25.4336
-25.5361
-25.6548
-25.7891
-25.9366
-26.093
-26.2521
-26.4063
-26.5472
-26.6674
-26.7611
-26.8249
-26.8571
-29.4612
-29.385
-29.241
-29.0441
-28.8118
-28.5613
-28.3063
-28.0564
-27.8169
-27.5898
-27.3746
-27.1704
-26.9762
-26.792
-26.6182
-26.456
-26.3063
-26.1696
-26.0459
-25.9342
-25.8332
-25.7411
-25.6565
-25.5783
-25.5059
-25.4391
-25.3778
-25.3219
-25.2711
-25.2252
-25.1835
-25.1458
-25.1118
-25.0816
-25.0552
-25.0328
-25.0146
-25.0005
-24.9905
-24.9848
-24.9833
-24.9861
-24.9936
-25.006
-25.0237
-25.0473
-25.0777
-25.1157
-25.1631
-25.2215
-25.2933
-25.3809
-25.4863
-25.6109
-25.7545
-25.9148
-26.0871
-26.2642
-26.437
-26.5952
-26.7297
-26.8339
-26.9041
-26.9394
-29.6461
-29.5563
-29.388
-29.1601
-28.8954
-28.6147
-28.3344
-28.0649
-27.8111
-27.574
-27.3516
-27.1417
-26.9424
-26.7535
-26.5754
-26.4096
-26.2576
-26.1199
-25.9966
-25.8863
-25.7873
-25.6974
-25.6148
-25.5382
-25.4669
-25.4009
-25.3404
-25.2854
-25.2356
-25.1905
-25.1495
-25.1121
-25.0783
-25.0479
-25.0213
-24.9986
-24.9799
-24.9653
-24.9547
-24.9482
-24.9458
-24.9475
-24.9536
-24.9644
-24.9802
-25.0017
-25.0296
-25.065
-25.1096
-25.1656
-25.2358
-25.3234
-25.4313
-25.5616
-25.7148
-25.8889
-26.0789
-26.2763
-26.4702
-26.6481
-26.7985
-26.9138
-26.9908
-27.0291
-29.8504
-29.7442
-29.5466
-29.2823
-28.9799
-28.6655
-28.3577
-28.0677
-27.8001
-27.554
-27.3255
-27.1105
-26.9065
-26.7129
-26.5302
-26.3605
-26.206
-26.0675
-25.9447
-25.8364
-25.74
-25.6528
-25.5724
-25.4974
-25.4272
-25.362
-25.3022
-25.2481
-25.1993
-25.1552
-25.115
-25.0781
-25.0443
-25.0138
-24.9868
-24.9637
-24.9445
-24.9295
-24.9184
-24.9112
-24.9078
-24.9083
-24.913
-24.9221
-24.9359
-24.9551
-24.9803
-25.0127
-25.054
-25.1068
-25.1746
-25.2612
-25.3708
-25.5064
-25.6694
-25.8584
-26.0678
-26.288
-26.506
-26.7062
-26.8742
-27.0012
-27.0846
-27.1257
-30.0754
-29.9494
-29.717
-29.4096
-29.064
-28.712
-28.3747
-28.0639
-27.7833
-27.5295
-27.2962
-27.0771
-26.8689
-26.6705
-26.4828
-26.3089
-26.1516
-26.0123
-25.8906
-25.7848
-25.6917
-25.6076
-25.5297
-25.4564
-25.3873
-25.3227
-25.2634
-25.2102
-25.1627
-25.1197
-25.0803
-25.0439
-25.0102
-24.9794
-24.952
-24.9284
-24.9088
-24.8933
-24.8817
-24.8738
-24.8695
-24.8689
-24.8721
-24.8794
-24.8913
-24.908
-24.9303
-24.9592
-24.9967
-25.0455
-25.1098
-25.1944
-25.3047
-25.445
-25.6179
-25.8226
-26.0532
-26.299
-26.5444
-26.77
-26.9573
-27.0962
-27.1856
-27.2289
-30.3229
-30.173
-29.899
-29.5411
-29.1458
-28.7524
-28.3839
-28.0522
-27.7599
-27.5006
-27.2643
-27.0421
-26.8299
-26.6267
-26.4335
-26.2547
-26.0946
-25.9545
-25.8342
-25.7316
-25.6425
-25.5623
-25.4871
-25.4155
-25.3473
-25.283
-25.2242
-25.1719
-25.1258
-25.0842
-25.0457
-25.0097
-24.9761
-24.9449
-24.9169
-24.8928
-24.8728
-24.8569
-24.8448
-24.8363
-24.8312
-24.8294
-24.8311
-24.8367
-24.8465
-24.8607
-24.8799
-24.9052
-24.9382
-24.9821
-25.0417
-25.1232
-25.233
-25.3771
-25.5596
-25.7808
-26.0347
-26.3087
-26.5855
-26.8402
-27.0485
-27.199
-27.2932
-27.3379
-30.5948
-30.4159
-30.0927
-29.6756
-29.2236
-28.7849
-28.3838
-28.0315
-27.7295
-27.4672
-27.2301
-27.0059
-26.7902
-26.5821
-26.3827
-26.1981
-26.0348
-25.8942
-25.7756
-25.677
-25.5929
-25.5172
-25.445
-25.3751
-25.3076
-25.2433
-25.1845
-25.1333
-25.0888
-25.0489
-25.0115
-24.9759
-24.9422
-24.9105
-24.8818
-24.8572
-24.8368
-24.8205
-24.8081
-24.799
-24.793
-24.79
-24.7902
-24.7941
-24.8019
-24.8136
-24.8296
-24.8508
-24.879
-24.9171
-24.9708
-25.0476
-25.1557
-25.3024
-25.4939
-25.7325
-26.0114
-26.3168
-26.6292
-26.9174
-27.1485
-27.3099
-27.4072
-27.452
-30.8932
-30.6791
-30.2982
-29.8115
-29.2949
-28.8078
-28.373
-28.0007
-27.6916
-27.4296
-27.1943
-26.9692
-26.7502
-26.5373
-26.3304
-26.139
-25.9724
-25.8313
-25.7149
-25.6213
-25.5433
-25.4728
-25.4038
-25.3355
-25.2685
-25.2036
-25.1444
-25.0943
-25.0519
-25.014
-24.9777
-24.9426
-24.9088
-24.8763
-24.8468
-24.8216
-24.8008
-24.7843
-24.7716
-24.7621
-24.7553
-24.751
-24.7497
-24.7518
-24.7577
-24.767
-24.7797
-24.7967
-24.8195
-24.8508
-24.8973
-24.9678
-25.0727
-25.2206
-25.4203
-25.677
-25.9829
-26.3223
-26.6756
-27.003
-27.2586
-27.4291
-27.5268
-27.5702
-31.2207
-30.9637
-30.5153
-29.9474
-29.3572
-28.8192
-28.3502
-27.9586
-27.6459
-27.3881
-27.1578
-26.9325
-26.7106
-26.493
-26.2771
-26.0772
-25.9074
-25.7659
-25.652
-25.5646
-25.4939
-25.4297
-25.3639
-25.2969
-25.2303
-25.164
-25.1039
-25.0551
-25.0152
-24.9798
-24.9448
-24.91
-24.8761
-24.8426
-24.8118
-24.7861
-24.7651
-24.7483
-24.7354
-24.7256
-24.718
-24.7126
-24.7097
-24.7101
-24.7141
-24.7212
-24.7305
-24.7433
-24.7602
-24.7838
-24.8216
-24.8842
-24.9842
-25.1316
-25.3381
-25.6136
-25.9484
-26.3242
-26.7245
-27.0983
-27.38
-27.5569
-27.6515
-27.6912
-31.5801
-31.2703
-30.7444
-30.0812
-29.4073
-28.8176
-28.3143
-27.9039
-27.592
-27.3432
-27.1218
-26.8967
-26.6716
-26.4499
-26.223
-26.0124
-25.8397
-25.6981
-25.5866
-25.5069
-25.4452
-25.3884
-25.3255
-25.2595
-25.1932
-25.1246
-25.0626
-25.0155
-24.9789
-24.9466
-24.9127
-24.8782
-24.8442
-24.8093
-24.777
-24.7508
-24.7296
-24.7126
-24.6998
-24.6897
-24.6815
-24.6749
-24.6703
-24.6689
-24.6714
-24.6763
-24.6823
-24.6908
-24.7018
-24.7167
-24.7442
-24.7969
-24.8905
-25.0353
-25.2465
-25.5418
-25.9074
-26.3211
-26.7756
-27.2054
-27.5145
-27.6933
-27.7802
-27.8136
-31.9748
-31.5992
-30.9861
-30.211
-29.4412
-28.8017
-28.2646
-27.8352
-27.53
-27.2956
-27.0877
-26.8621
-26.6335
-26.4094
-26.1683
-25.9439
-25.7697
-25.628
-25.5186
-25.4484
-25.3974
-25.3495
-25.289
-25.2234
-25.1578
-25.0854
-25.0203
-24.9755
-24.9431
-24.9147
-24.8817
-24.8472
-24.8134
-24.7766
-24.7423
-24.7158
-24.6944
-24.6773
-24.6648
-24.6547
-24.6459
-24.6379
-24.6316
-24.6284
-24.6297
-24.6328
-24.6353
-24.6397
-24.6449
-24.6498
-24.6655
-24.7062
-24.7919
-24.9318
-25.1446
-25.461
-25.8598
-26.3109
-26.828
-27.3273
-27.6641
-27.8385
-27.9116
-27.9356
-32.4087
-31.9495
-31.2416
-30.3342
-29.4541
-28.7709
-28.2006
-27.7507
-27.4598
-27.2458
-27.0576
-26.8293
-26.5963
-26.373
-26.1132
-25.8706
-25.6975
-25.5557
-25.4474
-25.3894
-25.351
-25.314
-25.2544
-25.1886
-25.1245
-25.0465
-24.9765
-24.9351
-24.9079
-24.8846
-24.8519
-24.8172
-24.7841
-24.7445
-24.7074
-24.6812
-24.6598
-24.6425
-24.6305
-24.6205
-24.6113
-24.6019
-24.5937
-24.5886
-24.589
-24.5908
-24.5896
-24.5902
-24.5899
-24.5839
-24.586
-24.6121
-24.6889
-24.8213
-25.0311
-25.3709
-25.8059
-26.2909
-26.8805
-27.4677
-27.8312
-27.9922
-28.0443
-28.0556
-32.887
-32.3189
-31.5133
-30.4484
-29.4393
-28.7257
-28.1227
-27.6478
-27.382
-27.1946
-27.0342
-26.7985
-26.5591
-26.3429
-26.058
-25.7908
-25.6238
-25.4818
-25.3722
-25.3299
-25.3061
-25.2828
-25.222
-25.1548
-25.0944
-25.008
-24.9303
-24.8941
-24.8733
-24.8567
-24.8233
-24.7878
-24.7566
-24.7132
-24.6723
-24.647
-24.6257
-24.608
-24.597
-24.5874
-24.5778
-24.5669
-24.5567
-24.5495
-24.5495
-24.5507
-24.5453
-24.5426
-24.5378
-24.5192
-24.5063
-24.5149
-24.5824
-24.7046
-24.9042
-25.2712
-25.7471
-26.257
-26.9307
-27.6324
-28.0185
-28.1539
-28.1767
-28.1714
-33.4158
-32.7022
-31.8057
-30.5505
-29.388
-28.6684
-28.032
-27.5231
-27.2975
-27.142
-27.021
-26.7694
-26.5206
-26.3225
-26.0028
-25.7016
-25.55
-25.4068
-25.2915
-25.2704
-25.2629
-25.2574
-25.1916
-25.1214
-25.0686
-24.9697
-24.8807
-24.8528
-24.8395
-24.8319
-24.7959
-24.759
-24.7315
-24.6826
-24.6364
-24.6135
-24.5923
-24.5739
-24.5645
-24.5553
-24.5455
-24.533
-24.5205
-24.5107
-24.5112
-24.5129
-24.5021
-24.4971
-24.4893
-24.4564
-24.427
-24.4141
-24.4733
-24.5829
-24.7615
-25.1618
-25.6862
-26.2038
-26.9749
-27.8292
-28.2289
-28.3223
-28.3065
-28.2813
-34.0036
-33.0902
-32.1265
-30.6375
-29.2882
-28.6039
-27.9303
-27.3712
-27.2085
-27.0877
-27.0233
-26.7411
-26.4778
-26.3169
-25.9476
-25.5991
-25.4782
-25.3316
-25.2034
-25.2118
-25.2211
-25.2399
-25.1629
-25.0873
-25.0489
-24.9318
-24.8261
-24.8113
-24.8062
-24.8112
-24.7696
-24.7301
-24.7097
-24.6528
-24.5991
-24.5809
-24.5598
-24.54
-24.5331
-24.5244
-24.5148
-24.5003
-24.4853
-24.4722
-24.4742
-24.4778
-24.46
-24.4535
-24.4456
-24.3955
-24.3489
-24.3091
-24.3628
-24.4581
-24.5992
-25.0425
-25.6282
-26.1236
-27.0074
-28.0693
-28.4651
-28.4957
-28.4315
-28.3831
-34.6619
-33.467
-32.4883
-30.706
-29.1229
-28.5407
-27.8208
-27.1842
-27.1188
-27.0298
-27.0481
-26.712
-26.4261
-26.3331
-25.8926
-25.477
-25.412
-25.2576
-25.1046
-25.1554
-25.18
-25.233
-25.1351
-25.0506
-25.0382
-24.894
-24.764
-24.7703
-24.773
-24.796
-24.744
-24.7002
-24.6924
-24.6236
-24.5594
-24.5498
-24.5282
-24.5059
-24.503
-24.4948
-24.4856
-24.4688
-24.4511
-24.4335
-24.4384
-24.4462
-24.4182
-24.4117
-24.4079
-24.3367
-24.2732
-24.1986
-24.2524
-24.3337
-24.412
-24.9132
-25.5819
-26.0058
-27.0197
-28.3685
-28.7293
-28.6713
-28.5492
-28.4751
-35.4063
-33.8071
-32.9114
-30.7523
-28.8688
-28.4931
-27.708
-26.9505
-27.0349
-26.9641
-27.1058
-26.6793
-26.3582
-26.3818
-25.8374
-25.3265
-25.3571
-25.1864
-24.9904
-25.1038
-25.1378
-25.2406
-25.107
-25.0085
-25.0403
-24.8564
-24.6914
-24.7313
-24.7392
-24.7885
-24.7185
-24.668
-24.6814
-24.5951
-24.516
-24.5209
-24.4979
-24.4712
-24.4745
-24.4662
-24.4581
-24.4385
-24.4182
-24.3941
-24.4035
-24.4191
-24.3759
-24.3713
-24.378
-24.2794
-24.2015
-24.0803
-24.1438
-24.2145
-24.1921
-24.7731
-25.5605
-25.8364
-26.9992
-28.7491
-29.022
-28.8452
-28.6569
-28.5557
-36.2587
-34.0713
-33.4266
-30.7724
-28.4935
-28.4831
-27.5974
-26.6531
-26.9681
-26.8827
-27.2106
-26.6387
-26.263
-26.478
-25.7816
-25.1349
-25.3219
-25.1203
-24.8539
-25.0612
-25.0913
-25.2685
-25.077
-24.9566
-25.0611
-24.8185
-24.6038
-24.6964
-24.7031
-24.7915
-24.6922
-24.6314
-24.6794
-24.5669
-24.4669
-24.4955
-24.4689
-24.4351
-24.4479
-24.4386
-24.4326
-24.4093
-24.3868
-24.3532
-24.3694
-24.3981
-24.3318
-24.3313
-24.3583
-24.2226
-24.1365
-23.9507
-24.0391
-24.1083
-23.9286
-24.6207
-25.5845
-25.5963
-26.928
-29.2424
-29.3415
-29.0124
-28.752
-28.6235
-37.2497
-34.2011
-34.0802
-30.7613
-27.9526
-28.5433
-27.4961
-26.2676
-26.9359
-26.7718
-27.3828
-26.5841
-26.1246
-26.6428
-25.7241
-24.8847
-25.319
-25.0621
-24.6852
-25.0343
-25.035
-25.3245
-25.0424
-24.8887
-25.1085
-24.7799
-24.4951
-24.6697
-24.6617
-24.8092
-24.6638
-24.5874
-24.6901
-24.5387
-24.4094
-24.4753
-24.4415
-24.3966
-24.424
-24.4116
-24.4093
-24.381
-24.3574
-24.3098
-24.3355
-24.3853
-24.2841
-24.2906
-24.3523
-24.1641
-24.0819
-23.8045
-23.9402
-24.0262
-23.6064
-24.4529
-25.6831
-25.2605
-26.781
-29.8915
-29.6815
-29.1666
-28.832
-28.6778
-38.4213
-34.1113
-34.9396
-30.7133
-27.186
-28.7204
-27.4123
-25.7597
-26.9658
-26.609
-27.6507
-26.507
-25.9205
-26.9056
-25.6632
-24.5519
-25.3667
-25.0151
-24.4704
-25.0339
-24.9598
-25.4198
-24.9997
-24.7963
-25.1938
-24.7395
-24.3572
-24.6573
-24.6106
-24.8473
-24.6313
-24.532
-24.7188
-24.5099
-24.3397
-24.4631
-24.4158
-24.3542
-24.4038
-24.3848
-24.3887
-24.3534
-24.3306
-24.2626
-24.301
-24.3838
-24.2302
-24.2474
-24.3645
-24.1001
-24.0437
-23.6341
-23.8489
-23.9843
-23.205
-24.2639
-25.8981
-24.7965
-26.5236
-30.7554
-30.0292
-29.3006
-28.895
-28.718
-39.8311
-33.6818
-36.1
-30.6203
-26.1132
-29.0799
-27.3552
-25.0822
-27.0986
-26.3597
-28.0534
-26.3959
-25.62
-27.3062
-25.5959
-24.1042
-25.4902
-24.9828
-24.1905
-25.0759
-24.852
-25.5697
-24.9442
-24.6675
-25.3324
-24.6959
-24.1794
-24.6683
-24.5426
-24.9139
-24.5922
-24.4596
-24.7724
-24.4795
-24.2532
-24.4625
-24.3919
-24.3059
-24.3888
-24.3574
-24.3713
-24.3258
-24.3079
-24.21
-24.2647
-24.398
-24.167
-24.1991
-24.4015
-24.0247
-24.0305
-23.429
-23.7666
-24.0052
-22.6975
-24.0443
-26.2866
-24.1627
-26.1095
-31.9139
-30.3622
-29.4068
-28.9394
-28.7444
-41.5568
-32.7466
-37.6938
-30.4716
-24.6288
-29.7109
-27.3342
-24.1712
-27.3941
-25.9726
-28.6438
-26.2355
-25.1816
-27.8974
-25.5182
-23.4995
-25.7242
-24.9694
-23.8199
-25.1838
-24.6913
-25.7954
-24.8697
-24.4865
-25.5446
-24.6467
-23.9474
-24.7164
-24.447
-25.0201
-24.5431
-24.3629
-24.8608
-24.4462
-24.1435
-24.479
-24.3699
-24.2492
-24.3812
-24.3283
-24.3582
-24.2977
-24.2908
-24.1503
-24.2252
-24.4337
-24.0903
-24.1423
-24.4722
-23.9291
-24.0549
-23.1751
-23.6939
-24.1196
-22.0491
-23.7794
-26.9255
-23.3066
-25.4768
-33.4728
-30.6447
-29.4783
-28.965
-28.7575
-43.7017
-31.0816
-39.9002
-30.252
-22.5961
-30.7323
-27.3583
-22.9417
-27.9366
-25.3733
-29.4933
-26.0062
-24.551
-28.7487
-25.4237
-22.6831
-26.1149
-24.9787
-23.3244
-25.3908
-24.4483
-26.1251
-24.768
-24.2325
-25.8572
-24.5885
-23.6432
-24.8203
-24.3084
-25.1804
-24.4795
-24.2324
-24.9965
-24.4081
-24.0028
-24.5195
-24.3494
-24.1807
-24.3843
-24.2958
-24.3506
-24.2677
-24.2819
-24.0811
-24.1798
-24.4988
-23.9947
-24.0725
-24.5888
-23.8002
-24.1344
-22.8538
-23.6297
-24.3688
-21.2156
-23.4467
-27.9156
-22.1628
-24.545
-35.5709
-30.8224
-29.5099
-28.972
-28.7584
)
;

boundaryField
{
    left
    {
        type            calculated;
        value           nonuniform List<scalar> 
32
(
-28.5213
-28.5411
-28.5793
-28.6344
-28.7056
-28.7922
-28.8942
-29.0117
-29.1449
-29.2945
-29.4612
-29.6461
-29.8504
-30.0754
-30.3229
-30.5948
-30.8932
-31.2207
-31.5801
-31.9748
-32.4087
-32.887
-33.4158
-34.0036
-34.6619
-35.4063
-36.2587
-37.2497
-38.4213
-39.8311
-41.5568
-43.7017
)
;
    }
    right
    {
        type            calculated;
        value           nonuniform List<scalar> 
32
(
-26.4664
-26.4764
-26.4956
-26.5235
-26.5595
-26.6035
-26.6554
-26.7149
-26.7822
-26.8571
-26.9394
-27.0291
-27.1257
-27.2289
-27.3379
-27.452
-27.5702
-27.6912
-27.8136
-27.9356
-28.0556
-28.1714
-28.2813
-28.3831
-28.4751
-28.5557
-28.6235
-28.6778
-28.718
-28.7444
-28.7575
-28.7584
)
;
    }
    interface
    {
        type            calculated;
        value           nonuniform List<scalar> 
64
(
-44.8936
-30.0346
-41.1822
-30.1223
-21.4235
-31.3575
-27.3827
-22.2353
-28.2819
-25.0098
-29.993
-25.8715
-24.1799
-29.2491
-25.3713
-22.2142
-26.356
-24.9895
-23.0406
-25.524
-24.3018
-26.3199
-24.7092
-24.0844
-26.0423
-24.5566
-23.4704
-24.8891
-24.2261
-25.2762
-24.4434
-24.1572
-25.0779
-24.3875
-23.9235
-24.5469
-24.3395
-24.143
-24.389
-24.2785
-24.3484
-24.2521
-24.2799
-24.0437
-24.1552
-24.5398
-23.9414
-24.0335
-24.6602
-23.7255
-24.1905
-22.6737
-23.5993
-24.533
-20.7465
-23.26
-28.5127
-21.5099
-23.9929
-36.7743
-30.877
-29.5152
-28.971
-28.7559
)
;
    }
    bottom
    {
        type            calculated;
        value           nonuniform List<scalar> 
64
(
-28.5161
-28.4906
-28.4406
-28.3678
-28.2747
-28.1642
-28.0393
-27.9034
-27.7595
-27.6104
-27.4585
-27.3062
-27.1551
-27.0069
-26.8627
-26.7236
-26.5904
-26.4635
-26.3434
-26.2302
-26.1241
-26.0249
-25.9325
-25.8468
-25.7676
-25.6946
-25.6275
-25.5663
-25.5106
-25.4603
-25.4152
-25.3752
-25.3402
-25.3101
-25.2848
-25.2644
-25.2489
-25.2383
-25.2327
-25.2322
-25.237
-25.2473
-25.2631
-25.2848
-25.3126
-25.3466
-25.3871
-25.4342
-25.488
-25.5484
-25.615
-25.6875
-25.7649
-25.8464
-25.9303
-26.015
-26.0985
-26.1785
-26.2528
-26.3189
-26.3748
-26.4185
-26.4485
-26.4638
)
;
    }
    defaultFaces
    {
        type            empty;
    }
}


// ************************************************************************* //
