/*--------------------------------*- C++ -*----------------------------------*\
| =========                 |                                                 |
| \\      /  F ield         | OpenFOAM: The Open Source CFD Toolbox           |
|  \\    /   O peration     | Version:  5.x                                   |
|   \\  /    A nd           | Web:      www.OpenFOAM.org                      |
|    \\/     M anipulation  |                                                 |
\*---------------------------------------------------------------------------*/
FoamFile
{
    version     2.0;
    format      ascii;
    class       volScalarField;
    location    "0.3999";
    object      T;
}
// * * * * * * * * * * * * * * * * * * * * * * * * * * * * * * * * * * * * * //

dimensions      [0 0 0 1 0 0 0];

internalField   nonuniform List<scalar> 
2048
(
9.79513
9.79532
9.79567
9.7962
9.79687
9.79766
9.79856
9.79953
9.80057
9.80164
9.80273
9.80383
9.80491
9.80598
9.80701
9.80801
9.80897
9.80988
9.81074
9.81155
9.81232
9.81303
9.81369
9.81431
9.81488
9.8154
9.81589
9.81633
9.81673
9.81709
9.81741
9.8177
9.81795
9.81817
9.81835
9.81849
9.81861
9.81868
9.81872
9.81872
9.81869
9.81862
9.8185
9.81835
9.81815
9.8179
9.81761
9.81727
9.81689
9.81645
9.81597
9.81545
9.8149
9.81431
9.81371
9.8131
9.8125
9.81193
9.81139
9.81092
9.81052
9.8102
9.80999
9.80988
9.39421
9.39476
9.39583
9.39739
9.39939
9.40175
9.40442
9.40733
9.4104
9.41359
9.41682
9.42007
9.42329
9.42645
9.42951
9.43247
9.43531
9.438
9.44055
9.44296
9.44521
9.44732
9.44928
9.4511
9.45278
9.45433
9.45576
9.45706
9.45824
9.4593
9.46026
9.46111
9.46185
9.46249
9.46303
9.46346
9.46379
9.46402
9.46414
9.46415
9.46405
9.46383
9.4635
9.46304
9.46245
9.46173
9.46087
9.45987
9.45873
9.45744
9.45603
9.45448
9.45283
9.45109
9.4493
9.44749
9.4457
9.44399
9.4424
9.44098
9.43978
9.43884
9.4382
9.43787
9.01043
9.01134
9.01313
9.01572
9.01903
9.02295
9.02737
9.03217
9.03724
9.04248
9.04781
9.05315
9.05843
9.06361
9.06863
9.07348
9.07812
9.08253
9.0867
9.09063
9.09431
9.09775
9.10095
9.10391
9.10666
9.10919
9.11151
9.11363
9.11555
9.11729
9.11885
9.12024
9.12145
9.1225
9.12337
9.12408
9.12462
9.12499
9.12519
9.12521
9.12505
9.1247
9.12416
9.12342
9.12246
9.12128
9.11988
9.11825
9.11638
9.11429
9.11196
9.10943
9.10671
9.10385
9.10089
9.09789
9.09494
9.0921
9.08946
9.0871
9.08511
9.08356
9.08248
9.08194
8.64283
8.64411
8.64662
8.65027
8.65491
8.6604
8.66657
8.67326
8.68031
8.68759
8.69496
8.70234
8.70964
8.71678
8.7237
8.73037
8.73675
8.74281
8.74854
8.75392
8.75897
8.76368
8.76806
8.77212
8.77587
8.77933
8.78251
8.78541
8.78804
8.79043
8.79256
8.79446
8.79612
8.79755
8.79875
8.79973
8.80047
8.80098
8.80126
8.80129
8.80108
8.80061
8.79987
8.79886
8.79756
8.79596
8.79404
8.79181
8.78925
8.78636
8.78316
8.77966
8.7759
8.77193
8.76781
8.76364
8.7595
8.75553
8.75183
8.74852
8.74573
8.74354
8.74203
8.74127
8.29053
8.2922
8.29546
8.3002
8.30622
8.31331
8.32126
8.32986
8.33889
8.34818
8.35759
8.36698
8.37624
8.3853
8.39407
8.40251
8.41056
8.41821
8.42543
8.43222
8.43857
8.44449
8.44999
8.4551
8.45981
8.46415
8.46814
8.47178
8.47509
8.47808
8.48077
8.48315
8.48524
8.48704
8.48855
8.48978
8.49072
8.49137
8.49173
8.49178
8.49153
8.49095
8.49003
8.48877
8.48715
8.48514
8.48274
8.47994
8.47671
8.47307
8.46902
8.46457
8.45978
8.45471
8.44943
8.44406
8.43873
8.4336
8.42881
8.42452
8.42089
8.41805
8.4161
8.4151
7.95271
7.95479
7.95885
7.96473
7.97219
7.98095
7.99073
8.00126
8.01229
8.02361
8.03503
8.0464
8.0576
8.06853
8.0791
8.08926
8.09894
8.10812
8.11678
8.1249
8.1325
8.13957
8.14615
8.15224
8.15786
8.16305
8.1678
8.17214
8.17609
8.17966
8.18287
8.18571
8.18821
8.19037
8.19218
8.19365
8.19479
8.19557
8.19601
8.19609
8.19579
8.19512
8.19404
8.19255
8.19063
8.18825
8.1854
8.18205
8.17819
8.17382
8.16894
8.16357
8.15776
8.15158
8.14513
8.13854
8.13199
8.12565
8.11972
8.11442
8.10992
8.10639
8.10396
8.10273
7.6286
7.63112
7.63605
7.64315
7.65212
7.66262
7.6743
7.68681
7.69987
7.71322
7.72665
7.73999
7.7531
7.76587
7.7782
7.79002
7.80128
7.81194
7.82197
7.83138
7.84016
7.84833
7.85592
7.86295
7.86944
7.87542
7.8809
7.88591
7.89047
7.89459
7.89828
7.90157
7.90445
7.90695
7.90905
7.91076
7.91208
7.913
7.91352
7.91363
7.91331
7.91255
7.91133
7.90963
7.90743
7.90471
7.90143
7.89757
7.89311
7.88804
7.88236
7.87608
7.86926
7.86197
7.85432
7.84648
7.83865
7.83106
7.82394
7.81756
7.81214
7.80789
7.80497
7.80348
7.31749
7.32049
7.32635
7.33477
7.34536
7.3577
7.37135
7.38591
7.40103
7.41643
7.43186
7.44715
7.46214
7.47671
7.49076
7.50421
7.517
7.52909
7.54044
7.55107
7.56098
7.5702
7.57875
7.58666
7.59397
7.6007
7.60687
7.61251
7.61764
7.62228
7.62644
7.63015
7.6334
7.63622
7.6386
7.64054
7.64204
7.64309
7.6437
7.64384
7.6435
7.64267
7.64133
7.63945
7.637
7.63395
7.63028
7.62594
7.62092
7.61518
7.60872
7.60155
7.59372
7.58531
7.57645
7.56732
7.55816
7.54924
7.54086
7.53334
7.52694
7.52193
7.51847
7.51672
7.01869
7.02223
7.02911
7.03895
7.05129
7.06557
7.08129
7.09797
7.11519
7.13265
7.15009
7.16731
7.18416
7.2005
7.21623
7.23127
7.24554
7.259
7.27163
7.28342
7.29441
7.30461
7.31407
7.32282
7.3309
7.33833
7.34516
7.35139
7.35706
7.36219
7.3668
7.3709
7.37451
7.37763
7.38028
7.38244
7.38412
7.38531
7.386
7.38618
7.38583
7.38495
7.38349
7.38145
7.37877
7.37544
7.3714
7.36663
7.36107
7.3547
7.34749
7.33945
7.33062
7.32107
7.31097
7.3005
7.28995
7.27963
7.26992
7.26117
7.25373
7.2479
7.24389
7.24184
6.73158
6.73571
6.74371
6.75512
6.76933
6.7857
6.80359
6.82244
6.84182
6.86135
6.88079
6.89992
6.91859
6.93668
6.95406
6.97064
6.98635
7.00114
7.01498
7.02789
7.03989
7.05102
7.06133
7.07087
7.07968
7.08779
7.09523
7.10202
7.10821
7.1138
7.11882
7.1233
7.12724
7.13066
7.13356
7.13594
7.13779
7.13911
7.13989
7.14012
7.13978
7.13884
7.1373
7.13511
7.13223
7.12864
7.12427
7.11909
7.11304
7.10607
7.09814
7.08926
7.07943
7.06875
7.05737
7.04551
7.0335
7.0217
7.01056
7.0005
6.99195
6.98524
6.98064
6.9783
6.45554
6.46033
6.46958
6.4827
6.49896
6.51754
6.53771
6.55883
6.58039
6.60201
6.62343
6.64445
6.66493
6.68472
6.70371
6.72181
6.73891
6.75498
6.76998
6.78395
6.7969
6.80891
6.82003
6.83031
6.8398
6.84854
6.85656
6.86389
6.87055
6.87658
6.882
6.88683
6.8911
6.8948
6.89795
6.90053
6.90255
6.904
6.90487
6.90515
6.90482
6.90385
6.90223
6.89992
6.89687
6.89304
6.88838
6.88283
6.87632
6.86879
6.86018
6.85048
6.83967
6.82785
6.81516
6.80186
6.78831
6.77494
6.76226
6.75081
6.74106
6.73343
6.72819
6.72553
6.18999
6.19552
6.20616
6.22119
6.23966
6.26063
6.2832
6.30665
6.33042
6.35413
6.37752
6.40041
6.42265
6.44412
6.46469
6.48426
6.50272
6.52002
6.53614
6.5511
6.56495
6.57778
6.58965
6.60063
6.61076
6.6201
6.62867
6.63649
6.64361
6.65004
6.65583
6.661
6.66557
6.66955
6.67293
6.67572
6.67791
6.67949
6.68045
6.68078
6.68047
6.67948
6.6778
6.67538
6.67218
6.66815
6.66323
6.65735
6.65042
6.64238
6.63313
6.62263
6.61087
6.5979
6.58388
6.56908
6.5539
6.53885
6.52454
6.51158
6.50056
6.49194
6.48604
6.48305
5.93439
5.94075
5.95296
5.97008
5.99099
6.0145
6.03959
6.06544
6.09146
6.11725
6.14258
6.16729
6.19127
6.21438
6.2365
6.25751
6.27729
6.29577
6.31295
6.32885
6.34355
6.35714
6.36971
6.38133
6.39208
6.40198
6.41106
6.41936
6.4269
6.43372
6.43986
6.44535
6.45021
6.45444
6.45806
6.46104
6.46339
6.4651
6.46616
6.46655
6.46626
6.46526
6.46353
6.46103
6.4577
6.45349
6.44834
6.44217
6.43487
6.42636
6.41652
6.40527
6.39257
6.37846
6.36308
6.34672
6.32983
6.31299
6.29692
6.28234
6.26995
6.26029
6.25371
6.25037
5.6882
5.69551
5.70947
5.72893
5.75249
5.77873
5.80647
5.83479
5.86306
5.8909
5.91813
5.94463
5.97031
5.99503
6.01867
6.04109
6.06215
6.08178
6.09996
6.11674
6.13222
6.14651
6.15973
6.17197
6.18329
6.19372
6.20329
6.21203
6.21996
6.22714
6.23361
6.2394
6.24454
6.24903
6.25286
6.25604
6.25855
6.26039
6.26153
6.26199
6.26173
6.26073
6.25897
6.2564
6.25296
6.24861
6.24327
6.23684
6.22922
6.22028
6.2099
6.19794
6.18434
6.16909
6.15233
6.13436
6.11566
6.09692
6.07894
6.06262
6.04878
6.03803
6.03073
6.02705
5.45093
5.45932
5.47525
5.49731
5.52376
5.55293
5.58344
5.61428
5.6448
5.67467
5.70375
5.73199
5.75931
5.78561
5.81075
5.83455
5.85686
5.87758
5.89672
5.91432
5.93051
5.94545
5.95928
5.97209
5.98394
5.99488
6.00492
6.01407
6.02237
6.02988
6.03665
6.04273
6.04813
6.05286
6.05692
6.06028
6.06295
6.06491
6.06615
6.06667
6.06644
6.06546
6.06368
6.06105
6.05754
6.05306
6.04755
6.04091
6.03301
6.02371
6.01284
6.00023
5.98576
5.96939
5.95123
5.93159
5.91099
5.89021
5.87019
5.85199
5.8366
5.82471
5.81668
5.81265
5.22209
5.2317
5.24986
5.27482
5.30444
5.33672
5.37012
5.40354
5.4363
5.46813
5.49899
5.52891
5.55784
5.58569
5.6123
5.63746
5.66098
5.68276
5.7028
5.72116
5.738
5.75353
5.76791
5.78125
5.79361
5.80504
5.81551
5.82505
5.8337
5.84151
5.84857
5.85492
5.86057
5.86554
5.86981
5.87336
5.87617
5.87825
5.87958
5.88017
5.87999
5.87902
5.87723
5.87457
5.87099
5.86642
5.86078
5.85396
5.84583
5.83622
5.82492
5.81171
5.79642
5.77896
5.75939
5.73802
5.71543
5.69247
5.67025
5.65002
5.63298
5.61991
5.61117
5.6068
5.00121
5.01222
5.0329
5.06108
5.09417
5.12977
5.16617
5.20219
5.23715
5.27088
5.30344
5.33497
5.36547
5.39483
5.4229
5.44941
5.47412
5.49691
5.51778
5.53684
5.55427
5.57032
5.58521
5.59904
5.61189
5.62378
5.63468
5.64458
5.65354
5.66164
5.66896
5.67556
5.68146
5.68665
5.69113
5.69486
5.69782
5.70002
5.70144
5.70209
5.70196
5.70102
5.69923
5.69655
5.69292
5.68827
5.68253
5.67557
5.66726
5.6574
5.64574
5.632
5.61594
5.59741
5.57644
5.55329
5.5286
5.50333
5.47873
5.4563
5.43751
5.42325
5.4138
5.40911
4.78785
4.80046
4.82397
4.85575
4.89263
4.93175
4.97126
5.0099
5.04701
5.08252
5.11669
5.14977
5.18178
5.21262
5.24214
5.27
5.29586
5.31962
5.34129
5.36097
5.37891
5.39543
5.41078
5.42508
5.43839
5.45072
5.46203
5.47227
5.48151
5.48986
5.49743
5.50427
5.5104
5.51583
5.52051
5.52441
5.52752
5.52983
5.53134
5.53206
5.53198
5.53107
5.5293
5.52661
5.52294
5.51824
5.51242
5.50536
5.49691
5.48686
5.4749
5.4607
5.44394
5.42439
5.40203
5.37705
5.35016
5.32244
5.29525
5.27043
5.2498
5.23434
5.22422
5.21924
4.58156
4.59602
4.62271
4.65852
4.69952
4.74236
4.78506
4.82634
4.8655
4.90269
4.93835
4.97291
5.00639
5.03867
5.06964
5.09884
5.12583
5.15052
5.17293
5.19316
5.21155
5.22846
5.24423
5.25897
5.27272
5.28549
5.2972
5.30776
5.31725
5.32583
5.33362
5.34069
5.34704
5.35269
5.35758
5.36165
5.3649
5.36732
5.36892
5.3697
5.36967
5.3688
5.36705
5.36437
5.36068
5.35594
5.35007
5.34294
5.3344
5.32422
5.31205
5.29746
5.28006
5.25955
5.23581
5.20896
5.17977
5.14946
5.11947
5.09203
5.06946
5.05282
5.0421
5.03687
4.38194
4.39852
4.42878
4.46907
4.5146
4.5613
4.60727
4.65118
4.6923
4.73102
4.76803
4.80401
4.83891
4.8726
4.90503
4.93559
4.96367
4.98926
5.01236
5.03306
5.0518
5.06905
5.08521
5.10036
5.11452
5.12774
5.13984
5.15069
5.1604
5.16917
5.17717
5.18446
5.19102
5.19689
5.20199
5.20623
5.20961
5.21214
5.21382
5.21467
5.21469
5.21386
5.21215
5.20948
5.20578
5.20101
5.19512
5.18795
5.17936
5.16911
5.1568
5.14192
5.12395
5.10255
5.07747
5.04869
5.01711
4.98408
4.95106
4.92072
4.89612
4.87836
4.86712
4.86171
4.18856
4.20762
4.24184
4.28715
4.33761
4.3883
4.43759
4.48415
4.52707
4.56714
4.60536
4.64269
4.67898
4.71402
4.74795
4.77991
4.80904
4.83547
4.85923
4.88032
4.89933
4.91684
4.93335
4.9489
4.96345
4.97711
4.98962
5.00073
5.01062
5.01955
5.02775
5.03524
5.04201
5.04811
5.05342
5.05782
5.06133
5.06396
5.06571
5.06662
5.06669
5.06592
5.06426
5.06161
5.05791
5.05312
5.04722
5.04004
5.03143
5.02119
5.00883
4.99374
4.97528
4.95305
4.92669
4.89595
4.86187
4.82602
4.78969
4.75611
4.72941
4.71062
4.699
4.69348
4.00102
4.02299
4.06156
4.1125
4.16836
4.22308
4.27575
4.32495
4.36949
4.41073
4.44996
4.48862
4.52626
4.56257
4.59806
4.63147
4.66158
4.68883
4.71321
4.7346
4.75379
4.77148
4.78833
4.80426
4.81917
4.8333
4.84623
4.85757
4.8676
4.87664
4.88503
4.89272
4.89967
4.90601
4.91155
4.91609
4.91973
4.92246
4.92428
4.92524
4.92537
4.92466
4.92304
4.92043
4.91673
4.91194
4.90605
4.89888
4.89029
4.88011
4.86778
4.85259
4.83371
4.81075
4.7832
4.75044
4.71374
4.67502
4.63508
4.59784
4.56897
4.54932
4.53747
4.53192
3.81893
3.84437
3.88763
3.94489
4.00667
4.06538
4.12145
4.17334
4.21925
4.26144
4.30146
4.34144
4.38042
4.41789
4.45502
4.48998
4.52099
4.54902
4.574
4.59557
4.61486
4.63263
4.64982
4.66612
4.68135
4.69599
4.70937
4.72089
4.73101
4.74012
4.7487
4.75659
4.76371
4.7703
4.77607
4.78075
4.7845
4.78733
4.78921
4.79022
4.79041
4.78976
4.7882
4.78564
4.78193
4.77714
4.7713
4.76415
4.75559
4.74556
4.73334
4.71815
4.69893
4.67533
4.64672
4.61186
4.57243
4.53085
4.48696
4.44551
4.41447
4.39416
4.38228
4.37681
3.64188
3.67151
3.7197
3.78411
3.85244
3.9149
3.97441
4.02908
4.07604
4.11895
4.15949
4.20085
4.24117
4.27961
4.31853
4.35517
4.38692
4.41571
4.44132
4.46294
4.48222
4.49997
4.51753
4.53421
4.54969
4.56488
4.57877
4.5904
4.60058
4.6097
4.61848
4.62657
4.63382
4.64068
4.64671
4.6515
4.65537
4.6583
4.66021
4.66128
4.66151
4.66093
4.65945
4.65694
4.65324
4.64843
4.64266
4.63554
4.62703
4.61721
4.60519
4.59014
4.57062
4.54648
4.51701
4.47995
4.43762
4.39333
4.34511
4.29872
4.26555
4.24489
4.2332
4.22792
3.46946
3.50426
3.55742
3.62996
3.70559
3.77134
3.83433
3.89196
3.93955
3.98298
4.02368
4.06656
4.10824
4.14737
4.18829
4.22682
4.25907
4.28861
4.31491
4.3364
4.35559
4.37317
4.39116
4.40824
4.42386
4.4397
4.45416
4.46584
4.47602
4.48508
4.49408
4.50237
4.50971
4.51688
4.5232
4.52807
4.53204
4.53507
4.53702
4.53812
4.5384
4.53791
4.5365
4.53407
4.53035
4.52552
4.51986
4.51277
4.5043
4.49478
4.48303
4.46826
4.44848
4.4239
4.39384
4.35442
4.30898
4.2623
4.20934
4.15701
4.12189
4.10126
4.09003
4.08506
3.30124
3.34257
3.40039
3.48228
3.56614
3.63434
3.70092
3.76184
3.80946
3.85325
3.89362
3.93827
3.9814
4.02077
4.064
4.10472
4.13712
4.16742
4.19454
4.21566
4.2347
4.25193
4.27045
4.28796
4.30357
4.32017
4.33533
4.34691
4.35706
4.36596
4.37524
4.38376
4.39109
4.39863
4.40529
4.41018
4.41425
4.4174
4.41935
4.42049
4.42082
4.42041
4.4191
4.41676
4.41301
4.40812
4.40263
4.39557
4.3871
4.37798
4.36658
4.35225
4.33221
4.30727
4.27702
4.23504
4.18615
4.13768
4.07951
4.01989
3.98318
3.96307
3.95258
3.94803
3.13673
3.18651
3.2481
3.3409
3.43419
3.5035
3.57386
3.6386
3.68542
3.72951
3.76889
3.81577
3.86046
3.89939
3.94541
3.98873
4.02071
4.05185
4.07999
4.10042
4.11929
4.13591
4.15515
4.17315
4.18849
4.20605
4.22206
4.23336
4.24346
4.25206
4.26172
4.27049
4.2777
4.28568
4.29275
4.29757
4.30175
4.30504
4.30695
4.30814
4.3085
4.30818
4.30697
4.30476
4.30095
4.29597
4.29072
4.28368
4.27515
4.26655
4.25553
4.24189
4.22152
4.19627
4.16641
4.12154
4.06871
4.01942
3.95554
3.88681
3.84912
3.83013
3.82067
3.81664
2.9754
3.03633
3.09997
3.20567
3.30997
3.37831
3.45284
3.52222
3.56704
3.61159
3.64904
3.69882
3.74531
3.78277
3.83225
3.87877
3.9095
3.94161
3.97111
3.99039
4.00915
4.0248
4.04503
4.06362
4.0783
4.09708
4.11416
4.12491
4.135
4.14311
4.15329
4.16235
4.16925
4.1778
4.18535
4.18999
4.1943
4.19775
4.19959
4.20081
4.20119
4.20099
4.19988
4.19785
4.19395
4.18881
4.18391
4.17686
4.16815
4.16024
4.14961
4.13695
4.11612
4.09055
4.0619
4.01371
3.95618
3.90757
3.83745
3.75709
3.71946
3.7023
3.69414
3.69074
2.81664
2.89253
2.95523
3.07648
3.19386
3.25816
3.3375
3.41277
3.45388
3.49938
3.53354
3.58725
3.63588
3.67039
3.72429
3.7748
3.80308
3.83642
3.86779
3.88523
3.90409
3.91824
3.93989
3.95921
3.97267
3.99304
4.01149
4.0213
4.03147
4.03881
4.04972
4.05914
4.06547
4.07475
4.08292
4.08718
4.09166
4.09533
4.09701
4.0983
4.09868
4.0986
4.0976
4.0958
4.09177
4.08636
4.08197
4.07488
4.06582
4.05883
4.04853
4.03726
4.01573
3.98974
3.96346
3.91133
3.84796
3.80225
3.72532
3.62994
3.59402
3.57944
3.57284
3.57014
2.6597
2.75592
2.81287
2.95321
3.08643
3.14226
3.22751
3.31043
3.34539
3.39285
3.42178
3.48093
3.53222
3.56164
3.6213
3.67692
3.701
3.73599
3.76995
3.78461
3.80398
3.81586
3.83954
3.85979
3.87122
3.89372
3.91393
3.92223
3.9327
3.93887
3.95082
3.96069
3.96607
3.97633
3.98528
3.98891
3.99361
3.99756
3.99899
4.00037
4.00072
4.00081
3.99989
3.99841
3.9942
3.98838
3.98473
3.97754
3.96788
3.96213
3.95197
3.94266
3.92007
3.8934
3.87112
3.81425
3.74333
3.7037
3.6194
3.50438
3.47266
3.46146
3.45663
3.45469
2.50369
2.62772
2.67159
2.83578
2.98849
3.02962
3.12248
3.21554
3.24089
3.29215
3.31307
3.37976
3.43447
3.4558
3.52309
3.58529
3.60273
3.64004
3.67761
3.68813
3.70873
3.71727
3.74381
3.7653
3.77356
3.79892
3.82141
3.8274
3.83855
3.84299
3.85641
3.86687
3.87076
3.88233
3.89227
3.8949
3.89993
3.90427
3.9053
3.90684
3.90711
3.90739
3.90653
3.90549
3.90103
3.89459
3.89201
3.88466
3.87402
3.86998
3.85964
3.85308
3.8289
3.80106
3.785
3.72232
3.64138
3.61226
3.52005
3.3792
3.35539
3.3483
3.34537
3.3442
2.3475
2.50967
2.52969
2.72415
2.90116
2.919
3.02205
3.12865
3.13951
3.19759
3.20654
3.28371
3.3429
3.35201
3.42948
3.50022
3.50766
3.54831
3.59087
3.59533
3.61837
3.62199
3.65259
3.67572
3.67923
3.70846
3.73391
3.73646
3.74893
3.75082
3.76633
3.77756
3.77921
3.79257
3.80379
3.80491
3.81042
3.81528
3.81573
3.8175
3.81763
3.81817
3.8173
3.81688
3.8121
3.80472
3.80365
3.79607
3.78394
3.78226
3.77117
3.76844
3.74197
3.71212
3.70532
3.63548
3.54101
3.52843
3.42784
3.25293
3.24234
3.23989
3.23891
3.23853
)
;

boundaryField
{
    left
    {
        type            zeroGradient;
    }
    right
    {
        type            zeroGradient;
    }
    interface
    {
        type            fixedValue;
        value           nonuniform List<scalar> 
64
(
2.26705
2.45593
2.45593
2.67028
2.86296
2.86296
2.97317
3.08906
3.08906
3.15304
3.15304
3.23765
3.29991
3.29991
3.3844
3.46086
3.46086
3.50398
3.55008
3.55008
3.57533
3.57533
3.60886
3.63312
3.63312
3.66505
3.69248
3.69248
3.70617
3.70617
3.7232
3.73496
3.73496
3.74959
3.76167
3.76167
3.76757
3.7728
3.7728
3.77478
3.77478
3.77551
3.7746
3.7746
3.76963
3.76157
3.76157
3.75382
3.74057
3.74057
3.72864
3.72864
3.70051
3.66898
3.66898
3.59462
3.49071
3.49071
3.38565
3.18779
3.18779
3.18779
3.18779
3.18779
)
;
    }
    bottom
    {
        type            fixedValue;
        value           uniform 10;
    }
    defaultFaces
    {
        type            empty;
    }
}


// ************************************************************************* //
