/*--------------------------------*- C++ -*----------------------------------*\
| =========                 |                                                 |
| \\      /  F ield         | OpenFOAM: The Open Source CFD Toolbox           |
|  \\    /   O peration     | Version:  5.x                                   |
|   \\  /    A nd           | Web:      www.OpenFOAM.org                      |
|    \\/     M anipulation  |                                                 |
\*---------------------------------------------------------------------------*/
FoamFile
{
    version     2.0;
    format      ascii;
    class       volScalarField;
    location    "1.2";
    object      gradTx;
}
// * * * * * * * * * * * * * * * * * * * * * * * * * * * * * * * * * * * * * //

dimensions      [0 -1 0 1 0 0 0];

internalField   nonuniform List<scalar> 
2048
(
0.0076277
0.0226445
0.036975
0.0502346
0.0621278
0.072469
0.0811782
0.0882667
0.0938149
0.097947
0.100809
0.102551
0.103319
0.103249
0.102469
0.101098
0.0992516
0.0970368
0.0945539
0.0918915
0.0891237
0.0863079
0.0834849
0.0806801
0.0779064
0.0751674
0.0724605
0.0697781
0.0671094
0.0644402
0.0617542
0.0590337
0.0562617
0.0534232
0.0505073
0.047507
0.0444193
0.041243
0.0379773
0.0346196
0.0311649
0.0276057
0.0239338
0.0201426
0.016231
0.0122062
0.00808809
0.00391137
-0.000271507
-0.00438913
-0.00835086
-0.0120482
-0.0153583
-0.0181499
-0.0202925
-0.0216664
-0.0221757
-0.0217597
-0.0204024
-0.0181383
-0.0150528
-0.0112779
-0.00698336
-0.00236473
0.0227444
0.0675107
0.110196
0.149637
0.184951
0.215588
0.241326
0.262215
0.278514
0.29061
0.298945
0.303975
0.306133
0.305821
0.303415
0.299269
0.293721
0.287091
0.279678
0.271746
0.263516
0.255158
0.246792
0.238489
0.230287
0.222192
0.214196
0.206275
0.198398
0.190521
0.182595
0.174566
0.166384
0.158002
0.149387
0.140521
0.131393
0.122004
0.112352
0.10243
0.092223
0.0817079
0.070858
0.0596514
0.0480813
0.0361668
0.0239636
0.0115726
-0.000852241
-0.0131002
-0.024902
-0.035934
-0.0458281
-0.0541895
-0.0606224
-0.0647637
-0.0663199
-0.0651035
-0.0610629
-0.0542992
-0.0450689
-0.0337697
-0.0209144
-0.00708403
0.0377421
0.111989
0.182672
0.247815
0.30594
0.356157
0.398139
0.432031
0.458319
0.477693
0.490921
0.498768
0.50195
0.501124
0.496896
0.48984
0.480509
0.469432
0.457105
0.443967
0.430386
0.416639
0.402917
0.389331
0.375931
0.362722
0.349686
0.336782
0.323955
0.311135
0.29824
0.285176
0.271854
0.258196
0.244147
0.229677
0.214775
0.199446
0.183691
0.167504
0.150858
0.133711
0.116013
0.0977208
0.0788125
0.0593111
0.0392996
0.0189371
-0.00152923
-0.0217558
-0.0413001
-0.059625
-0.0761144
-0.0901016
-0.100913
-0.107923
-0.110623
-0.108681
-0.101999
-0.0907397
-0.0753338
-0.0564539
-0.0349729
-0.0118511
0.0529341
0.156986
0.255815
0.346556
0.427111
0.496277
0.553693
0.599682
0.635048
0.660851
0.678228
0.688274
0.691982
0.690245
0.683878
0.673659
0.660345
0.644674
0.627343
0.608975
0.590083
0.571052
0.552133
0.533461
0.515086
0.497003
0.479174
0.461543
0.444033
0.426546
0.408962
0.391145
0.372962
0.354298
0.335074
0.315252
0.294827
0.273815
0.252231
0.23007
0.207295
0.183841
0.159626
0.134571
0.10863
0.0818155
0.0542268
0.0260699
-0.00232424
-0.0304873
-0.0578074
-0.0835331
-0.106791
-0.126625
-0.142056
-0.152163
-0.156187
-0.153621
-0.144301
-0.128448
-0.106675
-0.0799497
-0.049537
-0.0167918
0.0686038
0.20332
0.330882
0.447422
0.550188
0.637706
0.709675
0.766727
0.810103
0.841335
0.861989
0.873509
0.877157
0.874032
0.86513
0.851408
0.833818
0.813313
0.790805
0.767111
0.7429
0.718658
0.694683
0.671117
0.64799
0.625269
0.602895
0.580791
0.558866
0.536992
0.515011
0.492735
0.469976
0.446576
0.422428
0.39749
0.371774
0.34532
0.318164
0.290313
0.261719
0.232286
0.201888
0.170396
0.13772
0.10385
0.0688847
0.0330644
-0.00320766
-0.0393477
-0.0745798
-0.107936
-0.138273
-0.164318
-0.184749
-0.198301
-0.203911
-0.200855
-0.188874
-0.168242
-0.139774
-0.104766
-0.0649178
-0.0220094
0.0850225
0.251765
0.409048
0.551845
0.676706
0.781946
0.867468
0.934382
0.984533
1.02005
1.043
1.0552
1.05816
1.05313
1.04126
1.02363
1.00141
0.97575
0.947819
0.918646
0.889069
0.859671
0.830781
0.802518
0.774866
0.747747
0.72107
0.694746
0.668671
0.642697
0.616619
0.590188
0.563146
0.535278
0.506447
0.476612
0.445812
0.414132
0.381647
0.34838
0.314277
0.279202
0.242964
0.205367
0.166259
0.125583
0.0834241
0.0400418
-0.00410214
-0.0483199
-0.0916788
-0.132993
-0.170836
-0.203589
-0.229532
-0.246996
-0.254543
-0.251171
-0.236487
-0.210816
-0.175204
-0.131324
-0.0813694
-0.0275884
0.102463
0.303094
0.491465
0.661189
0.808071
0.930313
1.02821
1.10358
1.15908
1.1976
1.2218
1.23386
1.23548
1.22804
1.21273
1.19077
1.16349
1.1323
1.09864
1.06379
1.02877
0.994268
0.960616
0.927872
0.895936
0.864659
0.833916
0.803611
0.773647
0.743861
0.713999
0.683731
0.652709
0.620642
0.587355
0.552816
0.517111
0.480393
0.442799
0.404384
0.365085
0.324712
0.282995
0.239641
0.19441
0.147181
0.0980059
0.0471472
-0.00488895
-0.0573252
-0.109084
-0.158764
-0.204643
-0.244719
-0.276819
-0.298785
-0.308716
-0.305251
-0.287814
-0.256775
-0.213452
-0.159972
-0.0990964
-0.0335957
0.12121
0.35811
0.579305
0.776801
0.945614
1.08397
1.19282
1.27499
1.33422
1.37433
1.39866
1.40975
1.40944
1.39911
1.37993
1.35319
1.32039
1.28323
1.24346
1.20268
1.16213
1.12259
1.08436
1.04738
1.01142
0.976226
0.94164
0.907579
0.873976
0.840669
0.807349
0.77358
0.738894
0.702897
0.665365
0.626284
0.585818
0.544216
0.501708
0.458403
0.414225
0.368919
0.322103
0.273359
0.222332
0.168811
0.112797
0.0545436
-0.00541624
-0.0662339
-0.126703
-0.185218
-0.239751
-0.287881
-0.326915
-0.354106
-0.366978
-0.363705
-0.343459
-0.30665
-0.254934
-0.190991
-0.118256
-0.0400807
0.141571
0.417666
0.673792
0.900044
1.09061
1.24396
1.36204
1.44905
1.51015
1.55033
1.57364
1.583
1.58025
1.56662
1.54319
1.51121
1.47237
1.42872
1.3824
1.33541
1.28924
1.24474
1.20215
1.16123
1.12153
1.08267
1.04445
1.00683
0.969815
0.93328
0.896846
0.85994
0.821924
0.782268
0.740683
0.697189
0.652058
0.605685
0.558432
0.510481
0.461752
0.411896
0.360389
0.306649
0.250171
0.190632
0.127967
0.0624052
-0.00550812
-0.074875
-0.144386
-0.212247
-0.276126
-0.333152
-0.380033
-0.413317
-0.429812
-0.427088
-0.403978
-0.360921
-0.300001
-0.224596
-0.138954
-0.0470745
0.163883
0.482694
0.776238
1.03233
1.24433
1.41123
1.53643
1.62599
1.68687
1.72545
1.74664
1.75358
1.74799
1.73079
1.70277
1.66511
1.61968
1.56894
1.51557
1.46202
1.41012
1.36081
1.31415
1.26962
1.22651
1.18424
1.14255
1.10152
1.0613
1.02183
0.982654
0.943005
0.902022
0.858983
0.813517
0.765693
0.71594
0.664859
0.612994
0.560636
0.507693
0.4537
0.397942
0.339628
0.278067
0.212799
0.143681
0.0709089
-0.00497428
-0.0830471
-0.16193
-0.239674
-0.313652
-0.380518
-0.4363
-0.476704
-0.497647
-0.495925
-0.4699
-0.420029
-0.348944
-0.260935
-0.161243
-0.0545865
0.188524
0.554225
0.888062
1.17514
1.40801
1.58661
1.71639
1.80581
1.86411
1.89935
1.91734
1.92134
1.9127
1.8918
1.85895
1.81516
1.76252
1.70402
1.64299
1.58251
1.52479
1.47084
1.42048
1.37278
1.32663
1.28117
1.23614
1.19179
1.14854
1.10644
1.06492
1.02297
0.979413
0.933278
0.884075
0.831951
0.777559
0.721773
0.665391
0.608851
0.552052
0.494368
0.434835
0.372404
0.306152
0.235458
0.160095
0.0802266
-0.00361965
-0.0905291
-0.179096
-0.267263
-0.352138
-0.429883
-0.495766
-0.544492
-0.570875
-0.570717
-0.541741
-0.48438
-0.401994
-0.300076
-0.185107
-0.0626009
0.215919
0.633404
1.01082
1.33004
1.58289
1.77084
1.90212
1.9883
2.0414
2.0715
2.08533
2.08606
2.07437
2.04983
2.01202
1.96165
1.90111
1.83407
1.76468
1.69681
1.63319
1.57487
1.52129
1.47093
1.42215
1.37375
1.32544
1.27778
1.23162
1.18717
1.14376
1.10001
1.05433
1.0054
0.952571
0.896116
0.836992
0.776438
0.715588
0.655083
0.594809
0.53392
0.471134
0.405076
0.334549
0.258743
0.177351
0.0905176
-0.00125394
-0.0970899
-0.195615
-0.294727
-0.391321
-0.481073
-0.558406
-0.616845
-0.649851
-0.651963
-0.62002
-0.554363
-0.459315
-0.341994
-0.210454
-0.0710716
0.246546
0.721515
1.14621
1.49869
1.7702
1.96454
2.09369
2.17306
2.21805
2.24116
2.25002
2.24742
2.23296
2.20505
2.16229
2.10491
2.03567
1.95917
1.8806
1.80481
1.73522
1.6729
1.61671
1.56432
1.5134
1.46229
1.41065
1.35958
1.31055
1.26409
1.2193
1.17431
1.12701
1.0756
1.01923
0.958339
0.894306
0.828842
0.763521
0.699261
0.635924
0.572368
0.506894
0.43774
0.363375
0.282773
0.19557
0.101921
0.00229942
-0.102499
-0.211198
-0.321737
-0.430878
-0.533835
-0.624122
-0.693874
-0.734904
-0.740167
-0.705283
-0.630359
-0.520999
-0.386557
-0.237097
-0.0799168
0.280952
0.819992
1.29611
1.68287
1.97115
2.1682
2.29096
2.35946
2.39318
2.40744
2.41077
2.40509
2.38844
2.35771
2.31013
2.24526
2.16642
2.07941
1.99068
1.90637
1.83076
1.76494
1.70691
1.65325
1.60074
1.54712
1.492
1.43726
1.38534
1.3372
1.29162
1.24605
1.19771
1.14418
1.08429
1.01877
0.949555
0.878951
0.809095
0.741282
0.675341
0.609715
0.54217
0.470485
0.392741
0.307656
0.214852
0.114549
0.00719508
-0.106536
-0.225547
-0.347932
-0.470423
-0.587844
-0.692744
-0.77563
-0.826328
-0.835844
-0.798121
-0.712753
-0.58706
-0.433503
-0.264743
-0.0890129
0.31976
0.930437
1.46256
1.88445
2.18691
2.38218
2.49364
2.54671
2.56568
2.56928
2.56682
2.55871
2.54076
2.50805
2.456
2.38311
2.29358
2.19484
2.09481
2.00124
1.91962
1.85096
1.79205
1.738
1.68457
1.62866
1.56973
1.51084
1.45591
1.40649
1.36082
1.3154
1.26669
1.21144
1.148
1.07754
1.00279
0.926712
0.852185
0.781018
0.712989
0.645963
0.57701
0.503403
0.422758
0.333483
0.235266
0.128483
0.0135588
-0.109
-0.238365
-0.372923
-0.509522
-0.642702
-0.76403
-0.862109
-0.92438
-0.939532
-0.8992
-0.801956
-0.657417
-0.482416
-0.292969
-0.0981898
0.363685
1.05463
1.64782
2.10547
2.41858
2.60663
2.70126
2.73384
2.73429
2.72549
2.71739
2.70796
2.68992
2.6564
2.60043
2.51888
2.41737
2.30555
2.19288
2.08916
2.00154
1.93092
1.87234
1.81893
1.76535
1.70737
1.64408
1.58028
1.52212
1.47188
1.42695
1.38254
1.33424
1.27773
1.21063
1.13479
1.05404
0.972054
0.892631
0.818311
0.748789
0.681116
0.611463
0.536583
0.453538
0.36033
0.256846
0.143765
0.0214818
-0.109715
-0.249365
-0.39631
-0.547691
-0.697935
-0.83767
-0.953248
-1.02926
-1.05178
-1.0093
-0.898425
-0.731877
-0.532698
-0.321212
-0.107226
0.413558
1.19453
1.85428
2.34809
2.66716
2.84148
2.91323
2.91974
2.89753
2.87472
2.86168
2.85255
2.83593
2.80314
2.74409
2.65304
2.53798
2.41162
2.28475
2.16977
2.07622
2.00481
1.94802
1.89638
1.84357
1.78381
1.71532
1.6455
1.58376
1.5333
1.49011
1.44761
1.40064
1.34344
1.27243
1.19063
1.10335
1.01489
0.93024
0.852969
0.782659
0.715195
0.645575
0.570112
0.485205
0.38826
0.279591
0.160401
0.0310169
-0.108542
-0.258278
-0.417686
-0.584409
-0.752999
-0.913287
-1.04893
-1.1411
-1.17316
-1.12935
-1.0027
-0.810111
-0.583536
-0.348753
-0.115849
0.470368
1.35229
2.08454
2.61464
2.93351
3.08634
3.12884
3.1032
3.05376
3.0155
2.99889
2.99231
2.97875
2.94866
2.8878
2.7861
2.65557
2.51317
2.37026
2.24264
2.14327
2.0726
2.01938
1.9707
1.91977
1.85866
1.78372
1.70629
1.64049
1.59063
1.5504
1.51075
1.46619
1.40904
1.3337
1.24515
1.15076
1.05514
0.964776
0.884768
0.814518
0.748244
0.679384
0.604076
0.517902
0.417321
0.303455
0.178356
0.0421769
-0.105378
-0.26486
-0.436654
-0.619125
-0.80727
-0.990445
-1.149
-1.25992
-1.30421
-1.26052
-1.11544
-0.891616
-0.63387
-0.374716
-0.123734
0.535323
1.53022
2.3413
2.90774
3.21823
3.34044
3.34734
3.28294
3.20115
3.14621
3.1283
3.12723
3.11832
3.0934
3.03263
2.91856
2.77018
2.61038
2.44928
2.30722
2.20222
2.13429
2.08683
2.04219
1.9945
1.93275
1.84961
1.76234
1.69189
1.64373
1.60798
1.57205
1.53118
1.4751
1.39472
1.29838
1.19636
1.09272
0.995962
0.913443
0.844298
0.780348
0.712915
0.638553
0.551807
0.447544
0.328337
0.19756
0.0549344
-0.100168
-0.268901
-0.452835
-0.651271
-0.860042
-1.06865
-1.25329
-1.38556
-1.44542
-1.40426
-1.23747
-0.975661
-0.682355
-0.398065
-0.130515
0.609957
1.73076
2.62728
3.23034
3.52164
3.6025
3.56809
3.45771
3.33765
3.2651
3.24926
3.25755
3.25445
3.23774
3.17995
3.05091
2.88169
2.70358
2.52171
2.36286
2.25248
2.18991
2.15088
2.11107
2.0683
2.00716
1.91333
1.81319
1.73737
1.69249
1.6631
1.63151
1.59587
1.54232
1.45573
1.35025
1.24026
1.12753
1.02346
0.938682
0.871947
0.811655
0.746155
0.673603
0.587157
0.478949
0.354075
0.217912
0.0692246
-0.0929063
-0.270227
-0.465887
-0.680277
-0.910507
-1.14738
-1.36165
-1.51765
-1.59714
-1.56248
-1.36987
-1.0612
-0.727326
-0.417627
-0.135798
0.696308
1.95644
2.94513
3.58597
3.84361
3.87053
3.79067
3.6263
3.461
3.37021
3.3613
3.38391
3.38669
3.382
3.33161
3.18355
2.98967
2.79327
2.58751
2.40876
2.29333
2.23955
2.21227
2.17741
2.14167
2.08329
1.97523
1.85815
1.77622
1.73679
1.71617
1.68901
1.66048
1.61162
1.51696
1.40057
1.28268
1.15955
1.04687
0.960118
0.897442
0.84241
0.779039
0.709252
0.624283
0.51153
0.380424
0.239295
0.0849483
-0.0836399
-0.268699
-0.475511
-0.705596
-0.957737
-1.22607
-1.47406
-1.65551
-1.75947
-1.73763
-1.51402
-1.14679
-0.766773
-0.432125
-0.139179
0.797195
2.20979
3.29719
3.97904
4.18341
4.14161
4.01521
3.78766
3.56867
3.45942
3.46409
3.50749
3.51419
3.52628
3.49016
3.31675
3.09329
2.88035
2.6467
2.44391
2.32388
2.28337
2.27203
2.24099
2.21499
2.16297
2.0357
1.89632
1.80751
1.77658
1.76786
1.74421
1.7251
1.68426
1.57854
1.44892
1.32401
1.18875
1.06569
0.977314
0.920792
0.873001
0.811401
0.745472
0.663656
0.545253
0.407035
0.261597
0.101978
-0.0724774
-0.264207
-0.481474
-0.726736
-1.00064
-1.30409
-1.59073
-1.79804
-1.93206
-1.93301
-1.67171
-1.23036
-0.798321
-0.440232
-0.140269
0.91665
2.49318
3.68514
4.4153
4.53947
4.41153
4.24273
3.94087
3.65775
3.53032
3.5575
3.63031
3.63544
3.67035
3.65914
3.45046
3.19106
2.96626
2.69941
2.46706
2.34306
2.3216
2.33169
2.30117
2.28841
2.24871
2.09507
1.92644
1.83013
1.81184
1.81919
1.79645
1.78966
1.76195
1.64048
1.49458
1.36486
1.21516
1.07933
0.989757
0.942044
0.904028
0.842923
0.782145
0.705962
0.580033
0.433422
0.284742
0.120162
-0.0595964
-0.256661
-0.483616
-0.743307
-1.03791
-1.38082
-1.71231
-1.94358
-2.11392
-2.15299
-1.84527
-1.30905
-0.819236
-0.440646
-0.138731
1.06056
2.80865
4.10952
4.90254
4.90911
4.67437
4.47569
4.08523
3.72494
3.58025
3.64155
3.75559
3.74795
3.81346
3.84358
3.58419
3.28056
3.05328
2.74585
2.47669
2.34955
2.35452
2.39345
2.35667
2.36175
2.34388
2.15359
1.94689
1.84277
1.84261
1.87178
1.84458
1.85385
1.84711
1.70257
1.53641
1.40626
1.23883
1.08705
0.996838
0.961269
0.936394
0.873053
0.819025
0.752198
0.61571
0.45892
0.308737
0.139326
-0.0452563
-0.245971
-0.48186
-0.755097
-1.06795
-1.45548
-1.84014
-2.08979
-2.30298
-2.40342
-2.03765
-1.37891
-0.826473
-0.432189
-0.134309
1.23762
3.1576
4.56904
5.45162
5.28811
4.92192
4.71873
4.22009
3.76641
3.60622
3.71635
3.88827
3.84781
3.95407
4.05056
3.71677
3.35809
3.14497
2.78621
2.47089
2.3418
2.38243
2.46054
2.40534
2.43432
2.45314
2.21131
1.95563
1.84387
1.86896
1.92805
1.88677
1.91695
1.94314
1.76425
1.57262
1.44982
1.25983
1.08795
0.997853
0.978546
0.971437
0.900905
0.855671
0.803804
0.651997
0.48263
0.333739
0.159276
-0.0298177
-0.23201
-0.476213
-0.762162
-1.08876
-1.52716
-1.97663
-2.23343
-2.49567
-2.69218
-2.25258
-1.43443
-0.816765
-0.413926
-0.126865
1.46061
3.54047
5.05961
6.07784
5.67013
5.14288
4.97972
4.3447
3.77769
3.60492
3.78192
4.03568
3.92913
4.08948
4.29011
3.84596
3.41816
3.24675
2.82062
2.44736
2.31799
2.4055
2.53758
2.44375
2.50472
2.58284
2.26786
1.95009
1.83171
1.89089
1.99158
1.92023
1.9777
2.05482
1.82449
1.60063
1.49799
1.27819
1.08092
0.991999
0.99391
1.0111
0.925114
0.891383
0.862842
0.688416
0.503347
0.360141
0.179785
-0.0137691
-0.214583
-0.46676
-0.76497
-1.09783
-1.59461
-2.12576
-2.37025
-2.68628
-3.02979
-2.49471
-1.4681
-0.786803
-0.385285
-0.116407
1.74824
3.95616
5.57302
6.80274
6.04602
5.32199
5.27102
4.45785
3.75362
3.57276
3.83783
4.20851
3.98331
4.21541
4.5762
3.96806
3.45295
3.36661
2.84886
2.40329
2.27605
2.42363
2.63125
2.4668
2.57054
2.74164
2.32219
1.92717
1.80441
1.9082
2.06757
1.94085
2.03408
2.18883
1.88154
1.61671
1.55443
1.29376
1.06465
0.978388
1.00727
1.05818
0.943663
0.925098
0.932221
0.724204
0.519479
0.388695
0.200579
0.00223637
-0.193361
-0.453635
-0.764574
-1.092
-1.65606
-2.2937
-2.49475
-2.8661
-3.43029
-2.76971
-1.46972
-0.733502
-0.346187
-0.103103
2.12746
4.40146
6.09528
7.65654
6.40283
5.43885
5.6112
4.55725
3.6883
3.50596
3.88277
4.42196
3.99814
4.32544
4.92812
4.07731
3.45155
3.51612
2.87003
2.33543
2.21374
2.43612
2.75092
2.46717
2.62805
2.94126
2.37218
1.88327
1.75999
1.92027
2.16338
1.9428
2.08304
2.35436
1.93267
1.61573
1.62447
1.30612
1.03755
0.95608
1.01828
1.11659
0.95366
0.955284
1.01599
0.758178
0.528946
0.420655
0.221303
0.0173351
-0.167825
-0.436975
-0.762845
-1.06729
-1.70886
-2.48957
-2.60002
-3.02245
-3.91228
-3.08438
-1.42567
-0.654406
-0.297154
-0.0872891
2.63654
4.87019
6.60451
8.68112
6.72261
5.46659
6.02718
4.63863
3.57508
3.40075
3.91373
4.69728
3.9568
4.4103
5.37211
4.16514
3.39919
3.71163
2.88204
2.24001
2.12873
2.44124
2.90961
2.43466
2.67179
3.19739
2.41407
1.81426
1.69656
1.92571
2.28931
1.918
2.12018
2.56391
1.97384
1.59074
1.71565
1.31426
0.997814
0.924139
1.02615
1.19179
0.951066
0.979802
1.11966
0.788566
0.529074
0.45797
0.241472
0.0303957
-0.137185
-0.416839
-0.762761
-1.01871
-1.74904
-2.7264
-2.67761
-3.1374
-4.50017
-3.44671
-1.31789
-0.548237
-0.239383
-0.0694512
3.32884
5.35217
7.06833
9.93369
6.98092
5.3703
6.55673
4.69448
3.40669
3.25367
3.92506
5.0636
3.83655
4.45709
5.94333
4.21933
3.27621
3.97582
2.88084
2.11289
2.01878
2.4356
3.12515
2.35544
2.69413
3.53083
2.44173
1.71568
1.61246
1.92183
2.45942
1.85552
2.13938
2.8342
1.99923
1.5325
1.83845
1.31632
0.943418
0.881729
1.02939
1.29118
0.930377
0.99575
1.25066
0.812794
0.516471
0.503499
0.260399
0.0399541
-0.100298
-0.393095
-0.76875
-0.940189
-1.77075
-3.02224
-2.71742
-3.18626
-5.22569
-3.86589
-1.12292
-0.415629
-0.17475
-0.0501905
4.27737
5.83205
7.44082
11.4912
7.14496
5.10531
7.25162
4.71237
3.17551
3.06205
3.90701
5.56015
3.60733
4.44832
6.68803
4.22286
3.05706
4.3394
2.85948
1.94968
1.88206
2.41335
3.42148
2.21116
2.6847
3.96875
2.44573
1.58292
1.50654
1.90401
2.69268
1.7409
2.13235
3.18727
2.00074
1.42904
2.00708
1.30906
0.872168
0.828237
1.02544
1.42474
0.884246
0.999293
1.41877
0.827213
0.486907
0.561279
0.2771
0.0441421
-0.0555887
-0.365262
-0.78709
-0.824348
-1.76549
-3.40135
-2.70765
-3.13588
-6.12961
-4.35226
-0.810598
-0.260048
-0.105739
-0.0301699
5.58014
6.28789
7.65899
13.4552
7.17142
4.61526
8.181
4.67282
2.87397
2.82464
3.84406
6.23884
3.23019
4.36086
7.66615
4.15279
2.70909
4.84324
2.80683
1.74599
1.71747
2.36512
3.83028
1.97799
2.62987
4.54623
2.41223
1.4115
1.37847
1.86486
3.01414
1.55534
2.08812
3.65163
1.96743
1.26511
2.24049
1.28735
0.781818
0.763454
1.01023
1.60559
0.803066
0.98547
1.63671
0.826792
0.435188
0.636811
0.29017
0.0406145
-0.000964273
-0.332306
-0.826362
-0.662479
-1.72117
-3.89556
-2.63489
-2.94268
-7.26371
-4.91711
-0.342831
-0.0889222
-0.0352541
-0.0100463
)
;

boundaryField
{
    left
    {
        type            calculated;
        value           uniform 0;
    }
    right
    {
        type            calculated;
        value           uniform 0;
    }
    interface
    {
        type            calculated;
        value           nonuniform List<scalar> 
64
(
5.58014
6.28789
7.65899
13.4552
7.17142
4.61526
8.181
4.67282
2.87397
2.82464
3.84406
6.23884
3.23019
4.36086
7.66615
4.15279
2.70909
4.84324
2.80683
1.74599
1.71747
2.36512
3.83028
1.97799
2.62987
4.54623
2.41223
1.4115
1.37847
1.86486
3.01414
1.55534
2.08812
3.65163
1.96743
1.26511
2.24049
1.28735
0.781818
0.763454
1.01023
1.60559
0.803066
0.98547
1.63671
0.826792
0.435188
0.636811
0.29017
0.0406145
-0.000964273
-0.332306
-0.826362
-0.662479
-1.72117
-3.89556
-2.63489
-2.94268
-7.26371
-4.91711
-0.342831
-0.0889222
-0.0352541
-0.0100463
)
;
    }
    bottom
    {
        type            calculated;
        value           nonuniform List<scalar> 
64
(
0.0076277
0.0226445
0.036975
0.0502346
0.0621278
0.072469
0.0811782
0.0882667
0.0938149
0.097947
0.100809
0.102551
0.103319
0.103249
0.102469
0.101098
0.0992516
0.0970368
0.0945539
0.0918915
0.0891237
0.0863079
0.0834849
0.0806801
0.0779064
0.0751674
0.0724605
0.0697781
0.0671094
0.0644402
0.0617542
0.0590337
0.0562617
0.0534232
0.0505073
0.047507
0.0444193
0.041243
0.0379773
0.0346196
0.0311649
0.0276057
0.0239338
0.0201426
0.016231
0.0122062
0.00808809
0.00391137
-0.000271507
-0.00438913
-0.00835086
-0.0120482
-0.0153583
-0.0181499
-0.0202925
-0.0216664
-0.0221757
-0.0217597
-0.0204024
-0.0181383
-0.0150528
-0.0112779
-0.00698336
-0.00236473
)
;
    }
    defaultFaces
    {
        type            empty;
    }
}


// ************************************************************************* //
