/*--------------------------------*- C++ -*----------------------------------*\
| =========                 |                                                 |
| \\      /  F ield         | OpenFOAM: The Open Source CFD Toolbox           |
|  \\    /   O peration     | Version:  5.x                                   |
|   \\  /    A nd           | Web:      www.OpenFOAM.org                      |
|    \\/     M anipulation  |                                                 |
\*---------------------------------------------------------------------------*/
FoamFile
{
    version     2.0;
    format      ascii;
    class       volScalarField;
    location    "1.2";
    object      gradTy;
}
// * * * * * * * * * * * * * * * * * * * * * * * * * * * * * * * * * * * * * //

dimensions      [0 -1 0 1 0 0 0];

internalField   nonuniform List<scalar> 
2048
(
-27.5513
-27.5179
-27.4521
-27.356
-27.2324
-27.0844
-26.9156
-26.7298
-26.5303
-26.3204
-26.1031
-25.8809
-25.6561
-25.4307
-25.2063
-24.9844
-24.7661
-24.5524
-24.3438
-24.1409
-23.944
-23.7532
-23.5685
-23.3901
-23.2176
-23.0512
-22.8907
-22.736
-22.5872
-22.4441
-22.3069
-22.1755
-22.05
-21.9307
-21.8176
-21.7109
-21.6108
-21.5176
-21.4314
-21.3523
-21.2807
-21.2167
-21.1605
-21.1124
-21.0728
-21.0417
-21.0196
-21.0065
-21.0025
-21.0077
-21.0218
-21.0443
-21.0745
-21.1116
-21.1541
-21.2005
-21.2491
-21.2978
-21.3446
-21.3874
-21.4243
-21.4535
-21.4738
-21.4842
-27.5782
-27.544
-27.4767
-27.3783
-27.252
-27.1011
-26.9295
-26.7408
-26.5386
-26.3264
-26.1069
-25.8829
-25.6565
-25.4298
-25.2043
-24.9814
-24.7624
-24.5481
-24.3391
-24.136
-23.9389
-23.7481
-23.5635
-23.385
-23.2127
-23.0463
-22.8858
-22.7312
-22.5823
-22.4393
-22.302
-22.1705
-22.0449
-21.9254
-21.8122
-21.7053
-21.6051
-21.5117
-21.4253
-21.3461
-21.2742
-21.21
-21.1536
-21.1053
-21.0654
-21.0342
-21.0119
-20.9987
-20.9948
-21.0002
-21.0146
-21.0376
-21.0687
-21.1067
-21.1505
-21.1984
-21.2486
-21.299
-21.3474
-21.3918
-21.43
-21.4603
-21.4814
-21.4922
-27.6299
-27.594
-27.5235
-27.4208
-27.2893
-27.1329
-26.9555
-26.7614
-26.5543
-26.3375
-26.1141
-25.8866
-25.6572
-25.4279
-25.2003
-24.9756
-24.7552
-24.5398
-24.3302
-24.1266
-23.9293
-23.7384
-23.5539
-23.3755
-23.2033
-23.037
-22.8766
-22.7221
-22.5732
-22.4301
-22.2927
-22.161
-22.0353
-21.9155
-21.8019
-21.6948
-21.5942
-21.5005
-21.4138
-21.3342
-21.2621
-21.1975
-21.1407
-21.0919
-21.0516
-21.02
-20.9973
-20.984
-20.9801
-20.9857
-21.0008
-21.0249
-21.0574
-21.0974
-21.1435
-21.1942
-21.2475
-21.3011
-21.3528
-21.4002
-21.441
-21.4735
-21.496
-21.5075
-27.7041
-27.6658
-27.5905
-27.4814
-27.3422
-27.1776
-26.9921
-26.7902
-26.5759
-26.3527
-26.1237
-25.8914
-25.6578
-25.4249
-25.1943
-24.9672
-24.7448
-24.528
-24.3173
-24.1132
-23.9157
-23.7247
-23.5403
-23.3621
-23.19
-23.0239
-22.8637
-22.7092
-22.5604
-22.4172
-22.2797
-22.1478
-22.0217
-21.9015
-21.7875
-21.6799
-21.5789
-21.4848
-21.3976
-21.3176
-21.245
-21.1798
-21.1224
-21.0731
-21.0321
-20.9998
-20.9767
-20.963
-20.9591
-20.9651
-20.981
-21.0065
-21.0411
-21.0838
-21.1334
-21.1881
-21.2459
-21.3042
-21.3606
-21.4123
-21.457
-21.4925
-21.5171
-21.5298
-27.7994
-27.7576
-27.6761
-27.5583
-27.409
-27.2336
-27.0374
-26.8255
-26.6021
-26.371
-26.1351
-25.8967
-25.658
-25.4206
-25.1862
-24.956
-24.7312
-24.5127
-24.3009
-24.0961
-23.8984
-23.7075
-23.5232
-23.3453
-23.1735
-23.0076
-22.8476
-22.6932
-22.5445
-22.4012
-22.2635
-22.1313
-22.0048
-21.8841
-21.7695
-21.6614
-21.5598
-21.4651
-21.3774
-21.2969
-21.2236
-21.1578
-21.0996
-21.0494
-21.0076
-20.9745
-20.9507
-20.9366
-20.9325
-20.9389
-20.9557
-20.9829
-21.0201
-21.0662
-21.1202
-21.1801
-21.2436
-21.3081
-21.3705
-21.428
-21.4777
-21.5172
-21.5446
-21.5586
-27.9145
-27.8684
-27.7788
-27.6499
-27.4879
-27.2991
-27.0898
-26.8658
-26.6317
-26.3912
-26.1472
-25.902
-25.6573
-25.4148
-25.176
-24.9422
-24.7146
-24.4941
-24.281
-24.0756
-23.8778
-23.6871
-23.5032
-23.3256
-23.1542
-22.9886
-22.8288
-22.6746
-22.5259
-22.3827
-22.2447
-22.1122
-21.9851
-21.8638
-21.7485
-21.6396
-21.5374
-21.442
-21.3537
-21.2726
-21.1987
-21.1321
-21.073
-21.0218
-20.9789
-20.9447
-20.92
-20.9051
-20.9008
-20.9074
-20.9253
-20.9543
-20.9944
-21.0446
-21.1038
-21.1699
-21.2405
-21.3126
-21.3826
-21.4472
-21.5031
-21.5475
-21.5783
-21.594
-28.049
-27.9975
-27.8976
-27.7552
-27.5775
-27.3726
-27.1478
-26.9097
-26.6634
-26.4124
-26.1596
-25.9067
-25.6555
-25.4073
-25.1636
-24.9257
-24.695
-24.4723
-24.2579
-24.052
-23.8542
-23.6639
-23.4805
-23.3035
-23.1325
-22.9673
-22.8077
-22.6538
-22.5052
-22.3619
-22.2238
-22.0908
-21.9631
-21.841
-21.7248
-21.6151
-21.5121
-21.4161
-21.3272
-21.2454
-21.1708
-21.1033
-21.0432
-20.9908
-20.9465
-20.9111
-20.8851
-20.8693
-20.8644
-20.8711
-20.8899
-20.921
-20.9642
-21.019
-21.0841
-21.1576
-21.2366
-21.3176
-21.3967
-21.4699
-21.5332
-21.5834
-21.6181
-21.6359
-28.2024
-28.1442
-28.0318
-27.8728
-27.6764
-27.4524
-27.2097
-26.9557
-26.6959
-26.4336
-26.1713
-25.9104
-25.6522
-25.3978
-25.1488
-24.9065
-24.6724
-24.4473
-24.2317
-24.0255
-23.828
-23.6384
-23.4557
-23.2794
-23.1089
-22.944
-22.7848
-22.6311
-22.4828
-22.3395
-22.2012
-22.0677
-21.9393
-21.8162
-21.699
-21.5883
-21.4844
-21.3877
-21.2981
-21.2158
-21.1404
-21.0721
-21.0108
-20.957
-20.9112
-20.8741
-20.8465
-20.8295
-20.8238
-20.8304
-20.8499
-20.8829
-20.9295
-20.9893
-21.0611
-21.1428
-21.2315
-21.3231
-21.4129
-21.496
-21.5679
-21.6248
-21.6641
-21.6842
-28.3748
-28.3083
-28.1808
-28.0018
-27.7831
-27.5369
-27.2739
-27.0024
-26.728
-26.4539
-26.1819
-25.9128
-25.6473
-25.3864
-25.1316
-24.8845
-24.6467
-24.4192
-24.2025
-23.9962
-23.7994
-23.6108
-23.4292
-23.2536
-23.0837
-22.9193
-22.7604
-22.607
-22.4589
-22.3158
-22.1773
-22.0433
-21.914
-21.7897
-21.6713
-21.5594
-21.4546
-21.3571
-21.2671
-21.1841
-21.1081
-21.0388
-20.9763
-20.9209
-20.8733
-20.8342
-20.8049
-20.7862
-20.7794
-20.7855
-20.8055
-20.8403
-20.8902
-20.9552
-21.0344
-21.1255
-21.2252
-21.3288
-21.431
-21.5257
-21.6075
-21.672
-21.7163
-21.7389
-28.5664
-28.49
-28.3441
-28.1412
-27.8963
-27.6246
-27.3388
-27.0482
-26.7585
-26.4725
-26.1909
-25.9136
-25.6408
-25.3731
-25.112
-24.8597
-24.6179
-24.388
-24.1703
-23.9644
-23.7687
-23.5815
-23.4012
-23.2267
-23.0574
-22.8933
-22.7347
-22.5817
-22.4341
-22.2912
-22.1526
-22.018
-21.8876
-21.762
-21.6421
-21.5289
-21.423
-21.3248
-21.2343
-21.151
-21.0744
-21.0042
-20.9403
-20.8831
-20.8334
-20.7921
-20.7605
-20.7398
-20.7314
-20.7367
-20.7569
-20.7931
-20.8464
-20.9168
-21.0037
-21.1051
-21.2172
-21.3347
-21.451
-21.559
-21.652
-21.725
-21.7749
-21.8001
-28.7779
-28.6893
-28.5213
-28.2899
-28.0145
-27.7137
-27.4026
-27.0916
-26.7863
-26.4887
-26.1979
-25.9128
-25.6326
-25.3578
-25.0901
-24.832
-24.5859
-24.3535
-24.1352
-23.9301
-23.7362
-23.551
-23.3723
-23.1989
-23.0302
-22.8664
-22.708
-22.5555
-22.4084
-22.266
-22.1274
-21.9921
-21.8605
-21.7332
-21.6116
-21.4968
-21.3898
-21.291
-21.2002
-21.1166
-21.0396
-20.9685
-20.9032
-20.8441
-20.7919
-20.748
-20.7138
-20.6907
-20.6804
-20.6843
-20.7042
-20.7416
-20.7979
-20.8737
-20.9689
-21.0815
-21.2074
-21.3406
-21.4731
-21.5961
-21.7017
-21.784
-21.8397
-21.8677
-29.01
-28.9067
-28.7121
-28.4471
-28.1362
-27.8024
-27.4637
-27.1312
-26.8104
-26.5018
-26.2027
-25.9102
-25.6229
-25.3408
-25.0659
-24.8014
-24.5507
-24.3158
-24.0971
-23.8935
-23.702
-23.5195
-23.3429
-23.1707
-23.0024
-22.8387
-22.6805
-22.5285
-22.3823
-22.2405
-22.102
-21.9661
-21.833
-21.7037
-21.5799
-21.4634
-21.3552
-21.2559
-21.1649
-21.0814
-21.0042
-20.9323
-20.8655
-20.8042
-20.7493
-20.7024
-20.6652
-20.6393
-20.6265
-20.6287
-20.6478
-20.6858
-20.7446
-20.8258
-20.9296
-21.0542
-21.1954
-21.3462
-21.4971
-21.6373
-21.7569
-21.8491
-21.9108
-21.9416
-29.2638
-29.1427
-28.9164
-28.6115
-28.2595
-27.8889
-27.5201
-27.1655
-26.8298
-26.5113
-26.2051
-25.9062
-25.612
-25.3223
-25.0395
-24.7679
-24.5121
-24.2747
-24.0561
-23.8546
-23.6666
-23.4874
-23.3134
-23.1424
-22.9745
-22.8105
-22.6522
-22.5008
-22.3558
-22.2151
-22.0769
-21.9403
-21.8054
-21.6737
-21.5474
-21.4288
-21.3194
-21.2195
-21.1288
-21.0457
-20.9686
-20.896
-20.8277
-20.7639
-20.706
-20.6557
-20.615
-20.5859
-20.5703
-20.5701
-20.5878
-20.6257
-20.6867
-20.7729
-20.8853
-21.0228
-21.1808
-21.3513
-21.5231
-21.6828
-21.8179
-21.9206
-21.9882
-22.0216
-29.5407
-29.3981
-29.1338
-28.7821
-28.3828
-27.971
-27.5701
-27.193
-26.8434
-26.517
-26.2054
-25.9011
-25.6002
-25.3026
-25.011
-24.7314
-24.4701
-24.23
-24.0119
-23.8137
-23.6302
-23.4553
-23.2842
-23.1146
-22.9466
-22.7818
-22.6231
-22.4726
-22.3292
-22.1901
-22.0524
-21.915
-21.7781
-21.6434
-21.514
-21.393
-21.2822
-21.1821
-21.092
-21.0098
-20.9331
-20.86
-20.79
-20.7236
-20.6623
-20.6081
-20.5636
-20.5309
-20.5119
-20.5089
-20.5245
-20.5617
-20.624
-20.7146
-20.8357
-20.9868
-21.1631
-21.3556
-21.5512
-21.7331
-21.8852
-21.9986
-22.0718
-22.1073
-29.8422
-29.6737
-29.3644
-28.9575
-28.504
-28.0468
-27.6118
-27.2121
-26.8504
-26.5186
-26.2038
-25.8952
-25.5881
-25.2822
-24.9807
-24.6918
-24.4243
-24.1816
-23.9646
-23.7707
-23.5931
-23.4236
-23.2558
-23.0874
-22.919
-22.7528
-22.5932
-22.4436
-22.3025
-22.1656
-22.0288
-21.8905
-21.7513
-21.6129
-21.4797
-21.3561
-21.2439
-21.1437
-21.0546
-20.9739
-20.8981
-20.8246
-20.7529
-20.6837
-20.6185
-20.56
-20.5113
-20.4745
-20.4518
-20.4454
-20.4582
-20.4938
-20.5565
-20.6509
-20.7804
-20.9457
-21.1419
-21.3588
-21.5814
-21.7887
-21.9594
-22.0834
-22.1612
-22.1982
-30.1703
-29.9705
-29.6078
-29.1364
-28.6208
-28.1142
-27.6434
-27.2215
-26.8501
-26.516
-26.2008
-25.8892
-25.5761
-25.2616
-24.9486
-24.6489
-24.3746
-24.1293
-23.9138
-23.7256
-23.5557
-23.3929
-23.2288
-23.0614
-22.8921
-22.7234
-22.5622
-22.4139
-22.276
-22.1422
-22.0065
-21.8674
-21.7254
-21.5825
-21.4447
-21.3179
-21.2042
-21.1042
-21.0168
-20.9383
-20.8639
-20.7902
-20.7167
-20.6444
-20.5748
-20.5116
-20.4583
-20.4172
-20.3903
-20.38
-20.3893
-20.4223
-20.4844
-20.5815
-20.719
-20.899
-21.1165
-21.3603
-21.6138
-21.8502
-22.0411
-22.1752
-22.2562
-22.2938
-30.527
-30.2894
-29.8641
-29.3169
-28.7305
-28.1708
-27.6631
-27.2197
-26.8418
-26.5095
-26.1972
-25.8838
-25.565
-25.2416
-24.9151
-24.6024
-24.3208
-24.0728
-23.8593
-23.6786
-23.5183
-23.3638
-23.2035
-23.0369
-22.8662
-22.6936
-22.5298
-22.3832
-22.2498
-22.1202
-21.9859
-21.8457
-21.7008
-21.5523
-21.4087
-21.2786
-21.1634
-21.0636
-20.9787
-20.9033
-20.831
-20.7572
-20.6818
-20.6061
-20.5316
-20.4629
-20.4048
-20.3592
-20.3278
-20.3131
-20.3181
-20.3475
-20.4077
-20.5062
-20.6508
-20.8461
-21.0864
-21.3594
-21.6483
-21.9187
-22.1314
-22.2741
-22.3564
-22.3931
-30.9151
-30.6315
-30.1333
-29.4974
-28.8303
-28.2148
-27.6693
-27.205
-26.8248
-26.4993
-26.1939
-25.8796
-25.5553
-25.223
-24.8803
-24.5518
-24.2628
-24.0119
-23.8007
-23.6296
-23.4815
-23.337
-23.1807
-23.0143
-22.8417
-22.6634
-22.4953
-22.3512
-22.2238
-22.1
-21.9672
-21.826
-21.6779
-21.5224
-21.3716
-21.238
-21.1211
-21.0218
-20.9403
-20.8691
-20.7998
-20.7258
-20.6483
-20.5692
-20.4891
-20.4143
-20.3511
-20.3008
-20.2647
-20.2451
-20.2451
-20.2697
-20.3267
-20.4251
-20.5756
-20.7865
-21.0511
-21.3554
-21.6848
-21.9954
-22.2313
-22.3806
-22.4611
-22.4951
-31.3373
-30.9972
-30.4156
-29.6756
-28.9165
-28.2442
-27.6607
-27.1757
-26.7987
-26.4859
-26.1923
-25.8774
-25.5474
-25.207
-24.8444
-24.4964
-24.2003
-23.9466
-23.7374
-23.5786
-23.4455
-23.3134
-23.1605
-22.9938
-22.8193
-22.6326
-22.4581
-22.3175
-22.1983
-22.0822
-21.9508
-21.8082
-21.6572
-21.4928
-21.333
-21.196
-21.0775
-20.9785
-20.9016
-20.8359
-20.7706
-20.6964
-20.6165
-20.534
-20.4473
-20.3655
-20.2974
-20.2423
-20.2011
-20.1764
-20.1707
-20.1894
-20.2416
-20.3379
-20.4926
-20.7196
-21.01
-21.3468
-21.723
-22.082
-22.3424
-22.4946
-22.5695
-22.5987
-31.7971
-31.3869
-30.7116
-29.8493
-28.9847
-28.2577
-27.6361
-27.13
-26.7632
-26.4699
-26.1942
-25.8777
-25.5416
-25.1954
-24.8076
-24.4347
-24.1336
-23.8767
-23.6686
-23.5255
-23.4109
-23.2943
-23.1436
-22.9755
-22.7998
-22.6011
-22.4168
-22.2817
-22.1735
-22.0676
-21.937
-21.7926
-21.6397
-21.4637
-21.2923
-21.1528
-21.0325
-20.9333
-20.8627
-20.8041
-20.7442
-20.6691
-20.5864
-20.5009
-20.4065
-20.3165
-20.2437
-20.184
-20.1375
-20.1075
-20.0953
-20.1069
-20.1528
-20.2448
-20.4011
-20.6452
-20.9629
-21.3321
-21.7622
-22.181
-22.4662
-22.6162
-22.6806
-22.7025
-32.2985
-31.7997
-31.0228
-30.0159
-29.0292
-28.2547
-27.5952
-27.0654
-26.7181
-26.4519
-26.2022
-25.881
-25.5376
-25.1905
-24.7702
-24.365
-24.0631
-23.8025
-23.5931
-23.4704
-23.3782
-23.2812
-23.1299
-22.959
-22.7845
-22.5689
-22.3699
-22.2435
-22.1492
-22.0574
-21.9258
-21.7789
-21.6262
-21.4352
-21.2485
-21.1085
-20.9862
-20.8858
-20.8236
-20.7738
-20.7211
-20.644
-20.5579
-20.4705
-20.3667
-20.2669
-20.1903
-20.126
-20.0741
-20.0388
-20.0196
-20.0227
-20.0609
-20.146
-20.3003
-20.5627
-20.9099
-21.3088
-21.8013
-22.2955
-22.6049
-22.7453
-22.7933
-22.805
-32.8468
-32.2328
-31.3521
-30.1724
-29.0428
-28.2359
-27.5381
-26.9784
-26.6637
-26.4324
-26.2195
-25.8873
-25.5343
-25.1958
-24.7323
-24.2842
-23.9899
-23.7244
-23.5088
-23.4136
-23.3474
-23.276
-23.1196
-22.9438
-22.7756
-22.5357
-22.3151
-22.2025
-22.1257
-22.053
-21.9173
-21.7665
-21.6186
-21.4072
-21.2002
-21.0637
-20.9389
-20.8351
-20.7844
-20.7452
-20.7022
-20.6212
-20.5308
-20.4436
-20.3281
-20.2162
-20.1375
-20.0688
-20.011
-19.9708
-19.944
-19.9372
-19.9663
-20.0418
-20.189
-20.4721
-20.8519
-21.2735
-21.8384
-22.4303
-22.7607
-22.8813
-22.9059
-22.9045
-33.4485
-32.6808
-31.7046
-30.3158
-29.0152
-28.2041
-27.4661
-26.8645
-26.6012
-26.4114
-26.2511
-25.8958
-25.5293
-25.2165
-24.6941
-24.1876
-23.9162
-23.6434
-23.4132
-23.3555
-23.3187
-23.2816
-23.1121
-22.9283
-22.776
-22.5015
-22.2492
-22.1586
-22.1027
-22.0567
-21.9109
-21.7544
-21.6192
-21.3799
-21.1451
-21.0192
-20.8909
-20.7799
-20.7454
-20.7182
-20.689
-20.6006
-20.5045
-20.4213
-20.2905
-20.1636
-20.0856
-20.0127
-19.9484
-19.904
-19.8691
-19.8508
-19.87
-19.9329
-20.0653
-20.3731
-20.7911
-21.2217
-21.8704
-22.5919
-22.936
-23.0234
-23.017
-22.9994
-34.1122
-33.1337
-32.089
-30.4428
-28.9328
-28.1651
-27.3814
-26.7167
-26.5328
-26.3879
-26.3036
-25.9054
-25.5185
-25.2603
-24.6557
-24.0682
-23.8458
-23.561
-23.3019
-23.2974
-23.2913
-23.3022
-23.1066
-22.91
-22.7903
-22.4662
-22.1675
-22.1127
-22.0795
-22.0717
-21.9061
-21.7403
-21.6317
-21.3533
-21.0799
-20.9769
-20.8429
-20.7183
-20.7072
-20.6926
-20.683
-20.5817
-20.4778
-20.4055
-20.2542
-20.1075
-20.0352
-19.958
-19.8861
-19.8389
-19.7955
-19.7637
-19.7727
-19.8208
-19.9267
-20.2657
-20.7313
-21.1471
-21.8927
-22.7897
-23.1331
-23.17
-23.1244
-23.0881
-34.8499
-33.5742
-32.5198
-30.55
-28.776
-28.1293
-27.2878
-26.5248
-26.4632
-26.3592
-26.3867
-25.9134
-25.4948
-25.3384
-24.6172
-23.9158
-23.7849
-23.4794
-23.1688
-23.242
-23.2633
-23.3435
-23.1016
-22.8844
-22.8253
-22.4298
-22.0638
-22.0664
-22.0547
-22.1025
-21.9014
-21.721
-21.6614
-21.3272
-20.9997
-20.9395
-20.796
-20.6474
-20.671
-20.6675
-20.6869
-20.5638
-20.4489
-20.3985
-20.2188
-20.046
-19.9876
-19.905
-19.824
-19.7762
-19.7238
-19.6761
-19.6755
-19.7072
-19.7697
-20.1495
-20.6791
-21.0411
-21.8981
-23.0368
-23.3538
-23.3189
-23.2262
-23.169
-35.678
-33.9748
-33.0194
-30.6337
-28.5181
-28.1133
-27.1905
-26.2741
-26.4005
-26.3192
-26.5141
-25.9159
-25.447
-25.4672
-24.5785
-23.7154
-23.7432
-23.4018
-23.0046
-23.1939
-23.231
-23.4139
-23.0944
-22.8449
-22.8911
-22.3921
-21.9293
-22.0235
-22.0252
-22.1559
-21.8951
-21.6909
-21.7162
-21.3016
-20.8973
-20.9118
-20.7515
-20.5632
-20.6389
-20.6414
-20.7042
-20.546
-20.4151
-20.4042
-20.1844
-19.9763
-19.9442
-19.8541
-19.7613
-19.7167
-19.6547
-19.5878
-19.5793
-19.5956
-19.589
-20.0239
-20.645
-20.8922
-21.8763
-23.3519
-23.5988
-23.4669
-23.3201
-23.2408
-36.6196
-34.293
-33.6226
-30.69
-28.1214
-28.143
-27.0968
-25.9428
-26.3585
-26.2569
-26.7054
-25.907
-25.3587
-25.67
-24.5392
-23.4457
-23.7355
-23.3324
-22.7963
-23.1611
-23.1875
-23.5253
-23.0814
-22.7812
-23.0017
-22.3529
-21.7518
-21.9904
-21.9859
-22.2412
-21.8841
-21.6421
-21.807
-21.2763
-20.7627
-20.9004
-20.7115
-20.4594
-20.6146
-20.6111
-20.7402
-20.5266
-20.3724
-20.4279
-20.1504
-19.8941
-19.9079
-19.8056
-19.6971
-19.6612
-19.589
-19.4982
-19.4852
-19.4908
-19.3774
-19.8874
-20.645
-20.6851
-21.8125
-23.761
-23.8666
-23.6099
-23.404
-23.3026
-37.707
-34.4654
-34.3805
-30.7146
-27.5344
-28.2567
-27.0156
-25.5001
-26.3595
-26.1534
-26.9884
-25.8785
-25.2055
-25.9795
-24.4987
-23.077
-23.7835
-23.2766
-22.5248
-23.1567
-23.121
-23.6944
-23.0575
-22.6788
-23.1771
-22.3116
-21.5148
-21.9781
-21.9276
-22.3719
-21.8644
-21.5629
-21.9497
-21.2507
-20.5818
-20.9157
-20.6782
-20.3276
-20.604
-20.5717
-20.8021
-20.5033
-20.3148
-20.4774
-20.1163
-19.794
-19.8825
-19.7599
-19.63
-19.6112
-19.5278
-19.4064
-19.3937
-19.4
-19.1251
-19.7371
-20.7024
-20.4
-21.6858
-24.3001
-24.1521
-23.7427
-23.4761
-23.3535
-38.985
-34.3997
-35.3677
-30.7025
-26.6868
-28.5088
-26.958
-24.9026
-26.4382
-25.9785
-27.4014
-25.8193
-24.9531
-26.4407
-24.4556
-22.5683
-23.9183
-23.2413
-22.1639
-23.2013
-23.013
-23.9449
-23.0159
-22.5166
-23.4449
-22.2671
-21.1958
-22.0038
-21.8357
-22.5667
-21.8306
-21.4369
-22.1658
-21.2241
-20.3354
-20.9723
-20.6549
-20.1557
-20.6166
-20.515
-20.9003
-20.4731
-20.2341
-20.5632
-20.0809
-19.6683
-19.8737
-19.7168
-19.5579
-19.5682
-19.4722
-19.3109
-19.305
-19.3338
-18.819
-19.5677
-20.8501
-20.011
-21.4676
-25.0185
-24.445
-23.8595
-23.5346
-23.3933
-40.515
-33.9656
-36.6892
-30.6472
-25.4847
-28.9756
-26.9367
-24.0905
-26.6468
-25.6854
-27.9979
-25.7148
-24.5542
-27.1146
-24.4079
-21.8649
-24.1828
-23.2343
-21.6769
-23.3258
-22.835
-24.3093
-22.9474
-22.2661
-23.8422
-22.2176
-20.7647
-22.0938
-21.6879
-22.8515
-21.7755
-21.2414
-22.4846
-21.1954
-19.9977
-21.0905
-20.6449
-19.9272
-20.6664
-20.4285
-21.0489
-20.432
-20.1192
-20.7
-20.0428
-19.5069
-19.89
-19.6762
-19.4779
-19.5347
-19.4237
-19.2094
-19.2182
-19.3073
-18.4418
-19.3703
-21.1339
-19.4854
-21.119
-25.9825
-24.727
-23.9543
-23.5786
-23.4223
-42.3801
-32.9828
-38.4902
-30.5402
-23.8043
-29.7606
-26.9659
-22.9826
-27.0613
-25.205
-28.8502
-25.5461
-23.9447
-28.082
-24.3523
-20.8942
-24.636
-23.2651
-21.0148
-23.5759
-22.5447
-24.8318
-22.8403
-21.8883
-24.4186
-22.1599
-20.182
-22.2861
-21.4509
-23.2614
-21.6898
-20.9458
-22.9451
-21.1626
-19.5346
-21.2981
-20.6524
-19.6197
-20.7743
-20.2937
-21.2673
-20.3744
-19.9551
-20.9073
-19.9995
-19.2968
-19.9426
-19.637
-19.3864
-19.5135
-19.3844
-19.0994
-19.1311
-19.341
-17.9717
-19.1311
-21.6149
-18.782
-20.5885
-27.2806
-24.9684
-24.0214
-23.608
-23.441
-44.6912
-31.208
-40.9668
-30.3698
-21.4851
-31.0017
-27.0604
-21.4709
-27.7898
-24.4377
-30.0548
-25.2893
-23.0401
-29.4484
-24.2839
-19.5618
-25.3557
-23.3438
-20.1116
-24.0159
-22.0813
-25.5713
-22.6794
-21.3317
-25.2382
-22.0887
-19.3955
-22.6341
-21.0758
-23.8427
-21.5612
-20.509
-23.5971
-21.1221
-18.9009
-21.6311
-20.6808
-19.2024
-20.9683
-20.0828
-21.5802
-20.2922
-19.7205
-21.209
-19.9458
-19.0193
-20.0454
-19.5956
-19.2768
-19.5066
-19.3546
-18.9754
-19.0368
-19.4605
-17.379
-18.8271
-22.3719
-17.8476
-19.806
-29.026
-25.1221
-24.0543
-23.6208
-23.4478
)
;

boundaryField
{
    left
    {
        type            calculated;
        value           nonuniform List<scalar> 
32
(
-27.5513
-27.5782
-27.6299
-27.7041
-27.7994
-27.9145
-28.049
-28.2024
-28.3748
-28.5664
-28.7779
-29.01
-29.2638
-29.5407
-29.8422
-30.1703
-30.527
-30.9151
-31.3373
-31.7971
-32.2985
-32.8468
-33.4485
-34.1122
-34.8499
-35.678
-36.6196
-37.707
-38.985
-40.515
-42.3801
-44.6912
)
;
    }
    right
    {
        type            calculated;
        value           nonuniform List<scalar> 
32
(
-21.4842
-21.4922
-21.5075
-21.5298
-21.5586
-21.594
-21.6359
-21.6842
-21.7389
-21.8001
-21.8677
-21.9416
-22.0216
-22.1073
-22.1982
-22.2938
-22.3931
-22.4951
-22.5987
-22.7025
-22.805
-22.9045
-22.9994
-23.0881
-23.169
-23.2408
-23.3026
-23.3535
-23.3933
-23.4223
-23.441
-23.4478
)
;
    }
    interface
    {
        type            calculated;
        value           nonuniform List<scalar> 
64
(
-45.974
-30.0878
-42.4021
-30.2669
-20.1432
-31.7557
-27.1259
-20.5987
-28.2483
-23.9677
-30.7589
-25.1354
-22.502
-30.2462
-24.2457
-18.7919
-25.7933
-23.3964
-19.5903
-24.2928
-21.7973
-26.0036
-22.5834
-21.0012
-25.7178
-22.0489
-18.9438
-22.8548
-20.8465
-24.1828
-21.4842
-20.2493
-23.978
-21.0993
-18.535
-21.8339
-20.7005
-18.9618
-21.0908
-19.9541
-21.7636
-20.2436
-19.5824
-21.3868
-19.9154
-18.861
-20.1111
-19.5735
-19.2163
-19.5068
-19.3419
-18.9089
-18.9867
-19.5452
-17.0477
-18.6553
-22.8301
-17.3151
-19.3416
-30.0262
-25.1698
-24.0612
-23.6226
-23.4478
)
;
    }
    bottom
    {
        type            calculated;
        value           nonuniform List<scalar> 
64
(
-27.5443
-27.5111
-27.4458
-27.3502
-27.2272
-27.08
-26.912
-26.7269
-26.5281
-26.3188
-26.102
-25.8803
-25.656
-25.4309
-25.2068
-24.9852
-24.7671
-24.5535
-24.345
-24.1422
-23.9453
-23.7545
-23.5699
-23.3914
-23.2189
-23.0525
-22.892
-22.7373
-22.5884
-22.4454
-22.3081
-22.1768
-22.0514
-21.932
-21.819
-21.7124
-21.6123
-21.5191
-21.4329
-21.3539
-21.2824
-21.2184
-21.1623
-21.1143
-21.0747
-21.0437
-21.0216
-21.0085
-21.0046
-21.0097
-21.0236
-21.046
-21.076
-21.1128
-21.155
-21.2011
-21.2492
-21.2975
-21.3439
-21.3863
-21.4228
-21.4518
-21.4718
-21.4821
)
;
    }
    defaultFaces
    {
        type            empty;
    }
}


// ************************************************************************* //
