/*--------------------------------*- C++ -*----------------------------------*\
| =========                 |                                                 |
| \\      /  F ield         | OpenFOAM: The Open Source CFD Toolbox           |
|  \\    /   O peration     | Version:  5.x                                   |
|   \\  /    A nd           | Web:      www.OpenFOAM.org                      |
|    \\/     M anipulation  |                                                 |
\*---------------------------------------------------------------------------*/
FoamFile
{
    version     2.0;
    format      ascii;
    class       volScalarField;
    location    "1.2";
    object      T;
}
// * * * * * * * * * * * * * * * * * * * * * * * * * * * * * * * * * * * * * //

dimensions      [0 0 0 1 0 0 0];

internalField   nonuniform List<scalar> 
2048
(
9.80211
9.80235
9.80282
9.80351
9.80439
9.80545
9.80666
9.80799
9.80942
9.81092
9.81248
9.81407
9.81568
9.8173
9.81891
9.8205
9.82207
9.8236
9.8251
9.82656
9.82797
9.82934
9.83067
9.83195
9.83319
9.83438
9.83554
9.83665
9.83772
9.83875
9.83973
9.84068
9.84158
9.84243
9.84325
9.84401
9.84473
9.8454
9.84602
9.84659
9.8471
9.84756
9.84796
9.84831
9.84859
9.84882
9.84898
9.84907
9.8491
9.84906
9.84896
9.8488
9.84858
9.84832
9.84802
9.84769
9.84734
9.84699
9.84666
9.84636
9.84609
9.84588
9.84574
9.84567
9.4148
9.41551
9.41691
9.41896
9.42159
9.42474
9.42832
9.43228
9.43652
9.44098
9.4456
9.45032
9.4551
9.45989
9.46466
9.46937
9.47401
9.47855
9.48298
9.48729
9.49147
9.49552
9.49945
9.50324
9.5069
9.51043
9.51384
9.51713
9.52029
9.52333
9.52624
9.52903
9.5317
9.53423
9.53663
9.5389
9.54103
9.54301
9.54484
9.54652
9.54804
9.5494
9.55059
9.55161
9.55246
9.55312
9.55359
9.55387
9.55395
9.55384
9.55354
9.55306
9.55242
9.55163
9.55072
9.54973
9.5487
9.54766
9.54666
9.54575
9.54497
9.54434
9.54391
9.54369
9.04389
9.04507
9.04739
9.05078
9.05513
9.06034
9.06626
9.07278
9.07976
9.0871
9.09469
9.10244
9.11028
9.11813
9.12594
9.13366
9.14125
9.14867
9.15592
9.16296
9.16979
9.17641
9.18281
9.189
9.19498
9.20075
9.20631
9.21167
9.21684
9.2218
9.22656
9.23112
9.23547
9.23961
9.24354
9.24724
9.25072
9.25396
9.25695
9.2597
9.26218
9.26441
9.26636
9.26804
9.26942
9.2705
9.27127
9.27173
9.27186
9.27168
9.27118
9.27039
9.26932
9.26801
9.2665
9.26486
9.26313
9.2614
9.25973
9.25821
9.2569
9.25586
9.25513
9.25476
8.68839
8.69004
8.69329
8.69803
8.70412
8.71138
8.71963
8.72868
8.73837
8.74853
8.75902
8.76972
8.78053
8.79135
8.8021
8.81272
8.82315
8.83335
8.8433
8.85296
8.86233
8.8714
8.88017
8.88865
8.89684
8.90475
8.91238
8.91972
8.9268
8.9336
8.94013
8.94638
8.95235
8.95804
8.96342
8.96851
8.97327
8.97772
8.98183
8.9856
8.98902
8.99208
8.99477
8.99707
8.99897
9.00046
9.00153
9.00216
9.00234
9.00208
9.00139
9.00028
8.99878
8.99694
8.99482
8.9925
8.99007
8.98762
8.98527
8.98311
8.98125
8.97978
8.97875
8.97823
8.34738
8.34953
8.35374
8.35987
8.36772
8.37706
8.38765
8.39924
8.41161
8.42455
8.4379
8.45149
8.4652
8.4789
8.49251
8.50594
8.51912
8.53199
8.54453
8.55671
8.5685
8.57992
8.59096
8.60163
8.61193
8.62188
8.63147
8.64072
8.64962
8.65819
8.6664
8.67428
8.6818
8.68897
8.69576
8.70217
8.70818
8.71378
8.71897
8.72373
8.72804
8.73191
8.7353
8.73822
8.74063
8.74252
8.74387
8.74467
8.74491
8.74457
8.74368
8.74224
8.7403
8.73792
8.73517
8.73215
8.72897
8.72577
8.72269
8.71987
8.71744
8.7155
8.71416
8.71348
8.02005
8.02271
8.02792
8.03549
8.04517
8.05664
8.0696
8.08375
8.0988
8.11452
8.13068
8.14711
8.16365
8.18018
8.19657
8.21272
8.22855
8.24401
8.25905
8.27363
8.28775
8.30141
8.31462
8.32738
8.3397
8.35159
8.36306
8.37412
8.38477
8.39502
8.40486
8.41429
8.4233
8.43189
8.44003
8.44771
8.45492
8.46165
8.46787
8.47357
8.47875
8.48339
8.48748
8.49099
8.4939
8.49618
8.49782
8.49879
8.49907
8.49866
8.49756
8.4958
8.49341
8.49046
8.48704
8.48328
8.47932
8.47533
8.47148
8.46794
8.46489
8.46246
8.46078
8.45992
7.70564
7.70884
7.71511
7.7242
7.73577
7.74945
7.76484
7.78158
7.79933
7.8178
7.83676
7.85599
7.87531
7.89459
7.91369
7.93249
7.9509
7.96885
7.98629
8.00318
8.01953
8.03533
8.0506
8.06535
8.0796
8.09335
8.10662
8.11941
8.13173
8.14359
8.15498
8.1659
8.17634
8.1863
8.19574
8.20465
8.21301
8.22081
8.22803
8.23465
8.24066
8.24606
8.25081
8.2549
8.2583
8.26098
8.2629
8.26404
8.26437
8.26389
8.26258
8.26048
8.25762
8.25408
8.24997
8.24543
8.24063
8.23578
8.2311
8.22679
8.22307
8.22012
8.21807
8.21702
7.40343
7.40721
7.41462
7.42532
7.43889
7.45487
7.47277
7.49214
7.51261
7.53384
7.55556
7.57755
7.59961
7.62159
7.64333
7.66471
7.68562
7.70598
7.72572
7.74483
7.76331
7.78115
7.79839
7.81504
7.83112
7.84664
7.86162
7.87607
7.88999
7.90338
7.91626
7.92861
7.94043
7.9517
7.9624
7.97249
7.98197
7.9908
7.99898
8.00648
8.0133
8.01942
8.02483
8.02949
8.03337
8.03644
8.03865
8.03996
8.04035
8.03979
8.03828
8.03583
8.03249
8.02834
8.0235
8.01813
8.01243
8.00666
8.00107
7.99592
7.99148
7.98796
7.98551
7.98426
7.11276
7.11718
7.12581
7.13824
7.15393
7.17232
7.19281
7.21488
7.23809
7.26207
7.28654
7.31125
7.33601
7.36063
7.38497
7.40886
7.43219
7.45487
7.47684
7.49807
7.51857
7.53836
7.55747
7.57593
7.59376
7.61097
7.62759
7.64361
7.65905
7.67392
7.68822
7.70195
7.71509
7.72763
7.73954
7.75078
7.76132
7.77115
7.78025
7.78861
7.7962
7.80303
7.80908
7.8143
7.81866
7.82211
7.82462
7.82611
7.82657
7.82594
7.82423
7.82143
7.81759
7.8128
7.80718
7.80092
7.79427
7.78749
7.78092
7.77487
7.76964
7.76549
7.76262
7.76115
6.83301
6.83813
6.8481
6.86239
6.88036
6.90128
6.92446
6.94929
6.97527
7.002
7.02919
7.05659
7.08399
7.11121
7.13808
7.16442
7.19011
7.21504
7.23914
7.2624
7.28483
7.30647
7.32735
7.34753
7.36703
7.38586
7.40404
7.42157
7.43846
7.45473
7.47039
7.48544
7.49986
7.51363
7.5267
7.53905
7.55063
7.56142
7.57141
7.58058
7.58893
7.59644
7.60311
7.60888
7.61372
7.61757
7.62037
7.62206
7.62259
7.6219
7.61999
7.61684
7.6125
7.60704
7.60061
7.59341
7.58571
7.57786
7.57021
7.56317
7.55709
7.55227
7.54893
7.54723
6.56361
6.5695
6.58093
6.59725
6.61765
6.64125
6.66723
6.69489
6.72366
6.75314
6.78302
6.81306
6.84306
6.87283
6.90218
6.93092
6.9589
6.986
7.01215
7.03735
7.06161
7.085
7.10757
7.12939
7.15047
7.17084
7.19051
7.20947
7.22775
7.24536
7.26233
7.27864
7.29429
7.30925
7.32346
7.33688
7.34946
7.36118
7.37201
7.38197
7.39104
7.39922
7.40649
7.41281
7.41813
7.42238
7.42548
7.42738
7.42799
7.42727
7.42516
7.42167
7.41681
7.41066
7.40338
7.39517
7.38636
7.37733
7.36853
7.3604
7.35339
7.34784
7.34401
7.34206
6.304
6.31074
6.32379
6.34233
6.36535
6.3918
6.42069
6.45124
6.48283
6.51503
6.54756
6.5802
6.61275
6.64502
6.67681
6.7079
6.73811
6.76731
6.79542
6.82245
6.84845
6.87349
6.89766
6.92103
6.94363
6.96547
6.98656
7.00689
7.02649
7.04538
7.06359
7.08112
7.09797
7.11407
7.12938
7.14384
7.15739
7.17
7.18165
7.19236
7.20212
7.21095
7.21881
7.22567
7.23147
7.23612
7.23955
7.24167
7.24238
7.24163
7.23935
7.23551
7.23014
7.22328
7.2151
7.20583
7.19583
7.18553
7.17545
7.16615
7.15813
7.1518
7.14744
7.14522
6.05365
6.06136
6.0762
6.09718
6.12303
6.15249
6.18443
6.21792
6.25233
6.28724
6.32237
6.35755
6.3926
6.42733
6.46151
6.4949
6.52729
6.55852
6.58851
6.61728
6.64491
6.67151
6.69719
6.72203
6.74608
6.76933
6.79177
6.81341
6.83426
6.85436
6.87376
6.89247
6.91046
6.92769
6.94407
6.95954
6.97402
6.98748
6.99992
7.01134
7.02177
7.03122
7.03966
7.04706
7.05334
7.05841
7.06218
7.06452
7.06536
7.0646
7.06216
7.058
7.0521
7.04453
7.03542
7.02503
7.01374
7.00206
6.99061
6.98002
6.97091
6.96374
6.95883
6.95633
5.81208
5.82086
5.8377
5.86136
5.89029
5.92296
5.95805
5.99455
6.03178
6.06934
6.10702
6.14468
6.18218
6.21932
6.25585
6.29151
6.32602
6.35921
6.391
6.42142
6.45057
6.47863
6.50573
6.53197
6.55739
6.58199
6.60574
6.62862
6.65065
6.67191
6.69244
6.71227
6.73138
6.7497
6.76714
6.78358
6.79897
6.81326
6.82644
6.83854
6.8496
6.85965
6.86866
6.87659
6.88336
6.88886
6.89297
6.89558
6.89655
6.8958
6.89323
6.88875
6.88235
6.87405
6.86398
6.8524
6.83974
6.82658
6.81362
6.80164
6.79135
6.78329
6.7778
6.77502
5.5788
5.5888
5.60788
5.6345
5.66677
5.70284
5.74121
5.78077
5.8208
5.86095
5.90109
5.94116
5.98105
6.02056
6.05942
6.09731
6.1339
6.16898
6.20248
6.23444
6.26502
6.29443
6.32287
6.35043
6.37718
6.40308
6.42807
6.45213
6.47529
6.49763
6.51924
6.54015
6.56035
6.57974
6.5982
6.61561
6.63188
6.64695
6.66084
6.67358
6.68524
6.69586
6.70543
6.71389
6.72116
6.7271
6.73158
6.73446
6.7356
6.73488
6.73219
6.72743
6.72054
6.71151
6.70045
6.68763
6.67351
6.65875
6.64415
6.63065
6.61909
6.6101
6.60401
6.60095
5.35337
5.36473
5.38632
5.41623
5.45212
5.49181
5.53358
5.57622
5.61901
5.66167
5.70418
5.74659
5.78881
5.83065
5.87182
5.91191
5.95053
5.98745
6.02258
6.05598
6.08787
6.11853
6.14821
6.17704
6.20505
6.23221
6.25841
6.28358
6.30779
6.33115
6.35379
6.37574
6.39699
6.41744
6.43692
6.45527
6.47238
6.48821
6.50276
6.5161
6.52833
6.5395
6.54962
6.55861
6.56638
6.57278
6.57764
6.58081
6.58214
6.58148
6.57871
6.57369
6.56632
6.55657
6.54451
6.5304
6.51472
6.49823
6.48186
6.46669
6.45378
6.44382
6.43713
6.43378
5.13533
5.14826
5.17266
5.2062
5.24604
5.28955
5.33484
5.38059
5.42608
5.47114
5.51591
5.56057
5.60506
5.64919
5.69265
5.73494
5.77556
5.81425
5.85092
5.88565
5.91873
5.95053
5.98138
6.01141
6.04064
6.06902
6.09639
6.12262
6.14781
6.17212
6.19572
6.21868
6.24096
6.26245
6.28294
6.30222
6.32015
6.3367
6.35187
6.36577
6.37852
6.39022
6.40087
6.4104
6.41869
6.42556
6.43082
6.4343
6.43583
6.43527
6.43244
6.4272
6.41939
6.40893
6.39586
6.38039
6.36308
6.34473
6.32642
6.30944
6.29508
6.28413
6.27685
6.27323
4.92428
4.93898
4.96654
5.00412
5.04825
5.09579
5.14469
5.19357
5.24167
5.289
5.3359
5.38271
5.42941
5.4758
5.52156
5.56604
5.60863
5.64903
5.68716
5.7231
5.75724
5.79008
5.82201
5.85319
5.8836
5.91318
5.94168
5.96892
5.995
6.02018
6.04471
6.06863
6.09192
6.11445
6.13595
6.15613
6.17486
6.19209
6.20784
6.22224
6.23549
6.2477
6.25887
6.26893
6.27775
6.28511
6.29079
6.29459
6.29636
6.29591
6.29307
6.28763
6.27942
6.26829
6.25419
6.23734
6.21829
6.19796
6.17753
6.15857
6.14267
6.13071
6.12287
6.119
4.7198
4.73653
4.76762
4.8097
4.85849
4.91026
4.96288
5.01487
5.06547
5.11491
5.16379
5.21266
5.26151
5.31011
5.35818
5.40488
5.44939
5.49145
5.53096
5.56799
5.60306
5.63681
5.66976
5.70202
5.73358
5.76435
5.79397
5.82215
5.84905
5.87502
5.90041
5.92527
5.94954
5.97312
5.99564
6.01671
6.03621
6.05409
6.07036
6.08522
6.0989
6.1116
6.12329
6.13388
6.14325
6.15112
6.15723
6.16138
6.1634
6.1631
6.16027
6.1547
6.14612
6.13435
6.11925
6.10095
6.08008
6.05765
6.03491
6.01377
5.99624
5.98328
5.97492
5.97084
4.5215
4.54056
4.57558
4.62266
4.67653
4.73271
4.78911
4.84422
4.89716
4.94852
4.9992
5.05006
5.101
5.15176
5.20218
5.25113
5.29752
5.34119
5.382
5.41999
5.45584
5.49038
5.52428
5.55759
5.59025
5.62223
5.65297
5.68202
5.70964
5.73631
5.76253
5.78828
5.81351
5.83816
5.86171
5.88365
5.9039
5.92241
5.93914
5.95439
5.96847
5.98164
5.99384
6.00495
6.01489
6.0233
6.02985
6.03437
6.03666
6.03653
6.03376
6.02809
6.0192
6.00683
5.99075
5.97097
5.9482
5.92355
5.89829
5.87472
5.85548
5.84156
5.83275
5.8285
4.32899
4.35075
4.39013
4.44278
4.50219
4.5629
4.62314
4.68135
4.73646
4.78951
4.84178
4.89455
4.94753
5.00039
5.05322
5.1045
5.1527
5.19793
5.23999
5.27879
5.31527
5.35045
5.38525
5.41959
5.4533
5.48651
5.5184
5.54824
5.57647
5.60375
5.63074
5.65738
5.68352
5.70927
5.73389
5.75667
5.77765
5.79675
5.81389
5.82947
5.84389
5.85751
5.87022
5.88186
5.89238
5.90137
5.90837
5.91326
5.91585
5.91591
5.91323
5.90751
5.89837
5.88546
5.86844
5.84715
5.82238
5.79541
5.7674
5.74111
5.72008
5.70528
5.69612
5.69177
4.14189
4.1668
4.21094
4.26984
4.33529
4.40057
4.46471
4.52604
4.58308
4.63757
4.69119
4.74582
4.80079
4.85564
4.91099
4.9647
5.01464
5.06137
5.10465
5.14408
5.18102
5.2167
5.25238
5.2877
5.32241
5.35692
5.39
5.42054
5.44926
5.47702
5.50478
5.53227
5.55929
5.58617
5.61192
5.6355
5.6572
5.67688
5.69435
5.71018
5.72489
5.73896
5.75217
5.76431
5.77546
5.78505
5.7925
5.79777
5.80068
5.80096
5.79841
5.7927
5.78337
5.76999
5.7521
5.72924
5.70239
5.67305
5.64201
5.61264
5.58977
5.5742
5.56482
5.56044
3.95982
3.98847
4.03773
4.10363
4.17571
4.24549
4.31357
4.37807
4.43672
4.49238
4.54705
4.60355
4.66049
4.71716
4.77519
4.8315
4.88302
4.93122
4.97572
5.01558
5.05281
5.0888
5.12536
5.16167
5.19727
5.23318
5.26754
5.29865
5.32775
5.35584
5.38437
5.41269
5.4405
5.46862
5.49557
5.51988
5.54227
5.56254
5.58024
5.59627
5.61117
5.6257
5.63943
5.65205
5.66387
5.67411
5.68199
5.68765
5.69089
5.69141
5.68903
5.68339
5.67392
5.66016
5.64148
5.61701
5.58797
5.55627
5.52191
5.48899
5.46425
5.44808
5.43865
5.43431
3.78241
3.81555
3.87018
3.94397
4.02338
4.09738
4.16946
4.23725
4.29712
4.35365
4.409
4.46745
4.52636
4.58457
4.64554
4.70469
4.75754
4.8072
4.85296
4.89301
4.93035
4.96643
5.00393
5.04123
5.07758
5.11503
5.15082
5.18233
5.21166
5.23992
5.26925
5.29841
5.32689
5.35635
5.38461
5.40955
5.43262
5.4535
5.47134
5.48747
5.50249
5.51751
5.53175
5.54479
5.55735
5.5683
5.57659
5.58264
5.58623
5.58699
5.58482
5.57931
5.56976
5.55571
5.53639
5.51022
5.47888
5.44492
5.40692
5.36981
5.34324
5.32672
5.31741
5.31322
3.60925
3.64792
3.70792
3.79071
3.87829
3.95596
4.0321
4.10342
4.16397
4.22112
4.27667
4.33726
4.39818
4.4575
4.52174
4.58408
4.63789
4.68902
4.73617
4.77609
4.81339
4.84927
4.88784
4.92616
4.963
5.00224
5.03966
5.07134
5.10078
5.12896
5.15918
5.18921
5.21814
5.24912
5.27887
5.30425
5.32801
5.34956
5.36738
5.38355
5.39856
5.41413
5.42892
5.44229
5.45566
5.46741
5.47604
5.48249
5.48647
5.48747
5.48553
5.48022
5.47065
5.4564
5.43663
5.40867
5.37486
5.33888
5.29687
5.25475
5.22648
5.20992
5.20095
5.19699
3.43992
3.48557
3.55056
3.64368
3.74049
3.82087
3.90121
3.97649
4.03698
4.09454
4.14964
4.21273
4.27575
4.33551
4.40355
4.46958
4.52373
4.57639
4.62519
4.66454
4.70167
4.73698
4.77685
4.81628
4.85321
4.89455
4.93393
4.96542
4.99487
5.02266
5.05396
5.0849
5.11396
5.1467
5.17818
5.20371
5.2282
5.25053
5.26814
5.28431
5.29914
5.31537
5.33074
5.34428
5.35859
5.37124
5.38011
5.38697
5.39136
5.39259
5.39093
5.38588
5.37634
5.36198
5.34204
5.31214
5.27561
5.23807
5.19166
5.14339
5.1137
5.09751
5.08911
5.08547
3.27397
3.3286
3.3976
3.50276
3.61018
3.6917
3.7765
3.85641
3.9158
3.97372
4.02745
4.09365
4.15897
4.21813
4.2907
4.36113
4.4147
4.46904
4.51991
4.55806
4.59501
4.62919
4.67075
4.71142
4.74784
4.79175
4.83351
4.86431
4.89374
4.9207
4.95337
4.98531
5.01402
5.04888
5.08242
5.10768
5.13294
5.15625
5.17337
5.18952
5.20395
5.221
5.23702
5.25049
5.26593
5.27962
5.28856
5.29585
5.3007
5.30212
5.30077
5.29608
5.2866
5.27219
5.25247
5.22044
5.18079
5.14247
5.09123
5.03528
5.00467
4.98935
4.98175
4.97853
3.11085
3.17734
3.2484
3.36781
3.48767
3.5679
3.65763
3.74325
3.80004
3.85851
3.90961
3.97985
4.04779
4.10479
4.18296
4.25879
4.31038
4.36666
4.42026
4.45634
4.49324
4.52552
4.56937
4.61149
4.64647
4.69362
4.73838
4.76775
4.79723
4.82275
4.85724
4.89035
4.91795
4.95545
4.99153
5.01584
5.04202
5.06661
5.08284
5.09903
5.11271
5.13085
5.14761
5.16065
5.17746
5.1924
5.20115
5.20893
5.2143
5.21585
5.21484
5.2106
5.20118
5.18677
5.16783
5.13336
5.09003
5.05211
4.99558
4.92985
4.89919
4.8853
4.87874
4.87602
2.94996
3.03235
3.10215
3.23874
3.37344
3.44882
3.54427
3.63717
3.68923
3.74889
3.7955
3.8712
3.94229
3.99485
4.08011
4.16273
4.21027
4.26895
4.32626
4.35901
4.39626
4.42554
4.47255
4.51646
4.54863
4.59996
4.64855
4.6754
4.70525
4.72841
4.76542
4.79995
4.82536
4.86621
4.90548
4.92789
4.95519
4.98151
4.99627
5.01269
5.02514
5.04476
5.06239
5.07448
5.09301
5.10947
5.11765
5.126
5.13196
5.13355
5.13291
5.12926
5.11988
5.10542
5.08805
5.05076
5.00285
4.96709
4.90481
4.82646
4.7971
4.78527
4.77996
4.77779
2.79053
2.89456
2.95779
3.11544
3.26821
3.3336
3.43604
3.53849
3.58274
3.64495
3.68442
3.76761
3.84265
3.8875
3.98194
4.07323
4.11379
4.17561
4.23803
4.26564
4.30406
4.32873
4.38018
4.42639
4.45378
4.51058
4.56412
4.58688
4.61774
4.63727
4.67779
4.71413
4.73578
4.78099
4.82435
4.84346
4.87224
4.90091
4.91337
4.93039
4.94093
4.96256
4.98128
4.99164
5.01239
5.03072
5.03779
5.04686
5.05353
5.055
5.05478
5.05186
5.04249
5.02784
5.01311
4.9725
4.91867
4.88758
4.8191
4.72428
4.69829
4.68919
4.6853
4.68373
2.63164
2.76531
2.8139
2.99784
3.17299
3.22112
3.33254
3.44773
3.4798
3.54696
3.57549
3.66906
3.74924
3.78179
3.88825
3.99079
4.02022
4.08632
4.15582
4.17568
4.21675
4.2345
4.29217
4.34142
4.36127
4.42531
4.48529
4.50174
4.53476
4.54882
4.59426
4.63297
4.64866
4.6996
4.74826
4.76213
4.79292
4.82485
4.83383
4.8521
4.85971
4.88415
4.90423
4.91178
4.93546
4.95612
4.96131
4.97133
4.97885
4.97999
4.98023
4.97826
4.96882
4.95366
4.94305
4.89849
4.83676
4.81387
4.73877
4.62232
4.60276
4.59699
4.59463
4.59369
2.47215
2.64653
2.66865
2.88587
3.08912
3.10998
3.23335
3.36564
3.37937
3.45545
3.46764
3.57557
3.66261
3.67652
3.79889
3.91608
3.92866
4.00074
4.08001
4.08846
4.13457
4.14213
4.20848
4.26182
4.2703
4.34401
4.41237
4.41939
4.45647
4.46247
4.51475
4.55666
4.56336
4.62191
4.67747
4.68339
4.717
4.75341
4.75723
4.77784
4.78109
4.80941
4.83127
4.83451
4.86206
4.88565
4.8879
4.89925
4.9078
4.90832
4.90907
4.90829
4.89868
4.88247
4.87798
4.82868
4.75625
4.74634
4.66429
4.51935
4.51063
4.50864
4.50785
4.50753
)
;

boundaryField
{
    left
    {
        type            zeroGradient;
    }
    right
    {
        type            zeroGradient;
    }
    interface
    {
        type            fixedValue;
        value           nonuniform List<scalar> 
64
(
2.38958
2.59249
2.59249
2.83152
3.05295
3.05295
3.18464
3.32865
3.32865
3.41241
3.41241
3.53044
3.62221
3.62221
3.75536
3.88235
3.88235
3.95875
4.04485
4.04485
4.09545
4.09545
4.16796
4.22414
4.22414
4.30445
4.37839
4.37839
4.41909
4.41909
4.47622
4.52035
4.52035
4.58409
4.64426
4.64426
4.67991
4.71945
4.71945
4.74211
4.74211
4.77316
4.79621
4.79621
4.82642
4.85191
4.85191
4.86424
4.87344
4.87344
4.87448
4.87448
4.86474
4.84753
4.84753
4.79535
4.71542
4.71542
4.62973
4.46561
4.46561
4.46561
4.46561
4.46561
)
;
    }
    bottom
    {
        type            fixedValue;
        value           uniform 10;
    }
    defaultFaces
    {
        type            empty;
    }
}


// ************************************************************************* //
