/*--------------------------------*- C++ -*----------------------------------*\
| =========                 |                                                 |
| \\      /  F ield         | OpenFOAM: The Open Source CFD Toolbox           |
|  \\    /   O peration     | Version:  5.x                                   |
|   \\  /    A nd           | Web:      www.OpenFOAM.org                      |
|    \\/     M anipulation  |                                                 |
\*---------------------------------------------------------------------------*/
FoamFile
{
    version     2.0;
    format      ascii;
    class       volScalarField;
    location    "10.6";
    object      gradTy;
}
// * * * * * * * * * * * * * * * * * * * * * * * * * * * * * * * * * * * * * //

dimensions      [0 -1 0 1 0 0 0];

internalField   nonuniform List<scalar> 
6300
(
1017.93
1053.97
1090.6
1128.19
1167.1
1207.67
1250.19
1294.9
1341.99
1391.56
1443.62
1498.06
1554.69
1613.17
1673.08
-0.293443
-0.875372
-1.44198
-1.98161
-2.48064
-2.9229
-3.28955
-3.55953
-3.71066
-3.72178
-3.57568
-3.26283
-2.78502
-2.15798
-1.41173
-0.494593
-1.476
-2.4333
-3.34788
-4.19756
-4.95556
-5.59003
-6.06455
-6.33987
-6.37737
-6.14436
-5.6209
-4.80708
-3.72871
-2.43883
-0.703527
-2.10074
-3.4673
-4.779
-6.00611
-7.11168
-8.05038
-8.76868
-9.2068
-9.30337
-9.00337
-8.26921
-7.09359
-5.51084
-3.6016
-0.922284
-2.75611
-4.55615
-6.29466
-7.93617
-9.4346
-10.7311
-11.7529
-12.4152
-12.6259
-12.2965
-11.3589
-9.78718
-7.61942
-4.97051
-1.15177
-3.44523
-5.70646
-7.90725
-10.0092
-11.9594
-13.6862
-15.0966
-16.075
-16.4883
-16.1976
-15.0825
-13.0766
-10.209
-6.6364
-1.39133
-4.16657
-6.91714
-9.61862
-12.2339
-14.7074
-16.9578
-18.872
-20.2999
-21.0544
-20.9229
-19.6969
-17.2275
-13.5034
-8.72699
-1.63832
-4.91251
-8.17686
-11.416
-14.6004
-17.6782
-20.5653
-23.1336
-25.1979
-26.5063
-26.7424
-25.5546
-22.633
-17.8499
-11.4363
-1.88771
-5.66823
-9.46165
-13.2681
-17.0733
-20.8394
-24.4914
-27.8989
-30.8514
-33.03
-33.9856
-33.1456
-29.8997
-23.8268
-15.0888
-2.13199
-6.411
-10.7333
-15.1212
-19.5852
-24.1145
-28.6618
-33.119
-37.2783
-40.7766
-43.0239
-43.1424
-39.9931
-32.4688
-20.2932
-2.36121
-7.11039
-11.9392
-16.8981
-22.0316
-27.3712
-32.922
-38.6365
-44.3659
-49.7736
-54.1908
-56.4064
-54.4614
-45.7621
-28.372
-2.56363
-7.73005
-13.015
-18.5003
-24.2716
-30.4164
-37.0182
-44.1387
-51.7746
-59.7607
-67.5586
-73.8306
-75.6834
-67.7461
-42.7814
-2.72684
-8.23114
-13.8901
-19.8164
-26.1378
-33.0042
-40.5953
-49.1248
-58.8327
-69.9354
-82.4517
-95.6734
-106.695
-106.757
-74.6279
-2.8394
-8.57747
-14.4977
-20.7372
-27.4586
-34.867
-43.2335
-52.932
-64.4952
-78.6959
-96.6384
-119.716
-148.664
-177.956
-167.238
-2.89268
-8.7415
-14.7861
-21.1757
-28.0921
-35.7713
-44.5393
-54.874
-67.5193
-83.7136
-105.689
-137.885
-190.289
-289.164
-517.517
1728.86
1779.85
1830.81
1881.4
1931.3
1980.23
2027.91
2074.11
2118.65
2161.36
2202.1
2240.77
2277.28
2311.57
2343.6
2373.32
2400.72
2425.78
2448.49
2468.87
2486.93
2502.67
2516.12
2527.3
2536.26
2543.01
2547.6
2550.07
2550.46
2548.82
2545.19
2539.61
2532.13
2522.8
2511.66
2498.76
2484.14
2467.84
2449.92
2430.41
2409.36
2386.82
2362.83
2337.44
2310.7
2282.65
2253.34
2222.81
2191.09
2158.24
2124.28
2089.25
2053.18
2016.1
1978.05
1939.05
1899.14
1858.35
1816.73
1774.31
1731.12
1687.22
1642.64
1597.42
1551.61
1505.26
1458.39
1411.08
1363.36
1315.3
1266.96
1218.43
1169.78
1121.11
1072.53
1024.13
976.04
928.379
881.272
834.842
789.213
744.505
700.832
658.299
617.005
577.033
538.453
501.319
465.668
431.515
-0.656649
0.0531198
0.758666
1.43529
2.0632
2.6286
3.12383
3.54678
3.89973
4.18802
4.41877
4.59972
4.73842
4.84167
4.91524
4.9638
4.99102
4.99973
4.99214
4.97001
4.93484
4.88799
4.8307
4.76423
4.68977
4.60853
4.52169
4.43041
4.33583
4.239
4.14091
4.0424
3.94409
3.84641
3.74949
3.65323
3.55729
3.4612
3.3645
3.26681
3.168
3.06824
2.96808
2.86838
2.77025
2.67487
2.58335
2.4965
2.41473
2.33792
2.26541
2.19605
2.12839
2.06082
1.99183
1.9202
1.84518
1.76652
1.68447
1.59961
1.51267
1.42425
1.3346
1.24335
1.14941
1.05095
0.945515
0.830188
0.701949
0.558001
0.396129
0.214995
0.0143314
-0.204981
-0.440958
-0.690663
-0.950428
-1.2161
-1.48325
-1.74736
-2.0039
-2.24834
-2.47608
-2.68248
-2.86283
-3.0125
-3.12723
-3.20349
-3.23894
-3.23278
-1.1319
0.0948582
1.31009
2.46937
3.53794
4.49251
5.32135
6.02269
6.60245
7.07164
7.44386
7.73339
7.95369
8.11653
8.23164
8.30669
8.34751
8.35849
8.34298
8.30369
8.24291
8.16278
8.06533
7.9526
7.82658
7.68929
7.54269
7.38876
7.22941
7.06648
6.90167
6.73645
6.57196
6.40893
6.24758
6.08766
5.92849
5.76912
5.60854
5.44595
5.28097
5.11385
4.94554
4.77763
4.6122
4.4515
4.29765
4.15228
4.0162
3.88924
3.7702
3.65696
3.54675
3.43655
3.3235
3.20534
3.0807
2.94924
2.81156
2.66899
2.52315
2.37545
2.22663
2.07628
1.92264
1.7625
1.5914
1.40402
1.19475
0.958367
0.690722
0.389267
0.0534319
-0.315241
-0.713208
-1.13522
-1.57478
-2.02461
-2.47708
-2.92451
-3.35933
-3.77403
-4.16103
-4.51254
-4.82049
-5.07675
-5.27356
-5.40439
-5.46471
-5.4529
-1.66253
0.153539
1.94245
3.63451
5.17724
6.53798
7.70297
8.6742
9.46498
10.0954
10.5886
10.9674
11.2523
11.4607
11.6064
11.6995
11.7476
11.756
11.7288
11.669
11.5796
11.4632
11.3227
11.1608
10.9804
10.7842
10.575
10.3557
10.1289
9.89743
9.66377
9.43021
9.19851
8.96979
8.74439
8.52179
8.30076
8.07954
7.85624
7.62927
7.39776
7.16192
6.92316
6.68406
6.44805
6.21897
6.00047
5.79538
5.60522
5.42984
5.26731
5.11416
4.96575
4.81701
4.66315
4.50042
4.32666
4.1415
3.94629
3.74367
3.53686
3.32882
3.12137
2.91447
2.70573
2.49032
2.26121
2.00983
1.72702
1.40418
1.03442
0.613451
0.140213
-0.382939
-0.950457
-1.55416
-2.18401
-2.829
-3.47784
-4.11952
-4.74345
-5.33933
-5.89683
-6.40507
-6.85237
-7.22635
-7.51472
-7.70658
-7.79417
-7.77436
-2.2699
0.251294
2.71423
5.01464
7.07862
8.86532
10.3637
11.5856
12.5585
13.3171
13.8983
14.3366
14.6612
14.8955
15.0569
15.1574
15.205
15.2052
15.1615
15.0772
14.9552
14.7986
14.6111
14.396
14.1571
13.898
13.6222
13.3335
13.0354
12.7317
12.426
12.1215
11.821
11.5261
11.2374
10.9539
10.6736
10.3932
10.1095
9.8194
9.52108
9.21447
8.90156
8.58631
8.2742
7.97151
7.68426
7.41727
7.17325
6.95219
6.75121
6.56479
6.38551
6.20511
6.01583
5.81166
5.58929
5.34848
5.09194
4.82463
4.5526
4.28159
4.01557
3.75554
3.49867
3.23811
2.96333
2.66112
2.31715
1.9178
1.45208
0.913113
0.299083
-0.386538
-1.13539
-1.93522
-2.77125
-3.62763
-4.48872
-5.33989
-6.16774
-6.95973
-7.70339
-8.38519
-8.98963
-9.49907
-9.89467
-10.1588
-10.2781
-10.2468
-2.97219
0.433181
3.72029
6.73548
9.37952
11.6082
13.4226
14.8563
15.9608
16.7946
17.4145
17.8699
18.2006
18.4359
18.5956
18.6919
18.7314
18.7179
18.6535
18.5403
18.3811
18.1795
17.9396
17.6661
17.3635
17.0363
16.6889
16.3255
15.9508
15.5697
15.1871
14.8079
14.4361
14.0744
13.7236
13.3823
13.047
12.7125
12.3727
12.0221
11.6571
11.2768
10.8841
10.4847
10.0875
9.70251
9.33958
9.00681
8.70892
8.44633
8.21482
8.00583
7.80755
7.60665
7.39059
7.14976
6.8791
6.57872
6.25371
5.91298
5.56745
5.22773
4.90173
4.5926
4.29746
4.00689
3.70544
3.37306
2.98749
2.52745
1.97565
1.32131
0.561476
-0.29866
-1.2465
-2.26376
-3.32877
-4.41907
-5.5135
-6.59348
-7.64329
-8.64937
-9.59867
-10.4764
-11.2634
-11.9354
-12.4637
-12.8192
-12.9787
-12.9311
-3.7814
0.785354
5.11789
8.99065
12.2785
14.9471
17.0298
18.6007
19.7526
20.5801
21.1673
21.5829
21.8775
22.0851
22.2256
22.3079
22.3343
22.3039
22.2156
22.0695
21.868
21.6153
21.3167
20.9781
20.6055
20.204
19.7785
19.3339
18.8756
18.4098
17.9435
17.4837
17.0368
16.6071
16.1962
15.8022
15.4196
15.0395
14.6516
14.2458
13.8151
13.3574
12.8761
12.3803
11.8835
11.4019
10.9517
10.5463
10.1939
9.89592
9.6462
9.43167
9.23356
9.03024
8.8012
8.53103
8.21189
7.84465
7.43832
7.00845
6.57413
6.15435
5.7638
5.40975
5.08988
4.79157
4.49233
4.16178
3.76531
3.26941
2.6471
1.88163
0.968504
-0.0842783
-1.25745
-2.52331
-3.84963
-5.20433
-6.55885
-7.89027
-9.18155
-10.4205
-11.5968
-12.6978
-13.7026
-14.5784
-15.2811
-15.7617
-15.9774
-15.9067
-4.69255
1.47467
7.1773
12.0878
16.0685
19.1293
21.3731
22.9473
24.0109
24.7105
25.1666
25.4692
25.6787
25.8302
25.9384
26.0037
26.0182
25.9725
25.8598
25.6776
25.4279
25.1162
24.7503
24.3384
23.888
23.4052
22.8946
22.361
21.8101
21.2497
20.6895
20.1402
19.6118
19.1119
18.6436
18.2049
17.7875
17.3772
16.9555
16.5044
16.0112
15.4711
14.8885
14.2767
13.6569
13.0553
12.4985
12.0089
11.6001
11.2753
11.0263
10.8333
10.6665
10.4903
10.2705
9.98226
9.61344
9.16635
8.65635
8.10984
7.55945
7.03842
6.57292
6.17731
5.85088
5.57723
5.32397
5.04511
4.68598
4.19314
3.52444
2.65429
1.5764
0.303247
-1.13513
-2.69593
-4.32979
-5.98994
-7.63751
-9.24487
-10.7952
-12.2817
-13.7034
-15.0576
-16.3274
-17.4704
-18.4184
-19.0852
-19.3883
-19.2845
-5.65651
2.83259
10.3768
16.5233
21.1823
24.4873
26.6793
28.0278
28.7918
29.19
29.3853
29.4878
29.5616
29.636
29.7114
29.7708
29.7868
29.7359
29.6023
29.3811
29.0751
28.6934
28.2481
27.752
27.2154
26.6444
26.042
25.4111
24.7565
24.0874
23.4177
22.7646
22.144
21.5691
21.0464
20.575
20.1435
19.7293
19.2998
18.8218
18.2732
17.6443
16.9411
16.1827
15.4026
14.6423
13.9473
13.3533
12.8837
12.5441
12.3244
12.1956
12.1116
12.0117
11.8371
11.5482
11.1264
10.5774
9.92573
9.2156
8.50132
7.8414
7.28029
6.84419
6.53487
6.33255
6.19154
6.04313
5.79833
5.36926
4.69106
3.72534
2.46477
0.928011
-0.837163
-2.76396
-4.77261
-6.79413
-8.77449
-10.682
-12.501
-14.2366
-15.9071
-17.5392
-19.135
-20.643
-21.9608
-22.9323
-23.3852
-23.2298
-6.49741
5.55064
15.5883
23.1001
28.2454
31.4477
33.1997
33.9496
34.0985
33.9611
33.7365
33.5469
33.4428
33.4392
33.5065
33.5993
33.6508
33.6173
33.47
33.2057
32.8302
32.3612
31.8181
31.2228
30.5912
29.9276
29.2296
28.4943
27.7225
26.9251
26.1212
25.3411
24.6096
23.9503
23.3742
22.8869
22.4736
22.1028
21.7127
21.2402
20.6499
19.9236
19.0723
18.1192
17.119
16.1347
15.2496
14.518
13.9795
13.6394
13.491
13.4927
13.5789
13.6398
13.5678
13.3048
12.8219
12.1356
11.2788
10.3269
9.3644
8.50165
7.80721
7.32807
7.06434
6.99918
7.06936
7.17958
7.17563
6.90379
6.27137
5.22068
3.75059
1.88148
-0.306649
-2.71425
-5.19699
-7.65771
-10.0164
-12.2464
-14.3271
-16.2851
-18.1661
-20.0729
-22.0687
-24.0895
-26.0015
-27.5259
-28.2575
-28.0073
-6.62783
11.1634
24.4368
33.0838
38.1058
40.4968
41.1638
40.7375
39.8184
38.8586
38.0383
37.4839
37.1804
37.1414
37.2659
37.4884
37.6384
37.6637
37.5073
37.1918
36.7214
36.1371
35.4646
34.7473
34.0149
33.2618
32.4723
31.6319
30.7268
29.7739
28.7919
27.8492
26.9728
26.2134
25.5758
25.0938
24.7444
24.5056
24.2463
23.8299
23.2244
22.3844
21.3518
20.1253
18.8144
17.486
16.3328
15.4064
14.7912
14.4603
14.4432
14.6697
15.0843
15.461
15.5752
15.3796
14.8118
13.9411
12.7703
11.4548
10.0854
8.92101
8.02554
7.50316
7.30923
7.47225
7.89077
8.48165
8.9399
8.95868
8.45515
7.32106
5.61211
3.29545
0.541023
-2.55525
-5.65201
-8.66709
-11.4427
-14.0248
-16.329
-18.4436
-20.3869
-22.4776
-24.9658
-27.6915
-30.5998
-33.2603
-34.543
-34.0704
-3.91264
23.2818
39.9477
48.2873
51.7537
52.0272
50.7006
48.2338
45.5958
43.5542
41.9559
41.0583
40.5359
40.607
40.883
41.4806
41.8044
41.9704
41.7723
41.3997
40.7751
40.0387
39.1745
38.292
37.4671
36.6469
35.787
34.8614
33.7987
32.6634
31.4048
30.2606
29.1664
28.2999
27.5521
27.1088
26.8546
26.9367
27.0048
26.6908
26.1355
25.1216
23.9094
22.2521
20.5338
18.584
17.0883
15.8458
15.1924
14.8287
15.0437
15.5751
16.6435
17.6596
18.0277
17.9895
17.2372
16.1781
14.4692
12.6598
10.5105
8.95248
7.70604
7.20472
7.03957
7.5769
8.46349
9.97422
11.3365
11.7653
11.5465
10.2488
8.34831
5.33946
1.88063
-2.39582
-6.22484
-10.0214
-13.1478
-16.2035
-18.6036
-20.8489
-22.3952
-24.3096
-27.5208
-31.0303
-35.5545
-40.9783
-43.3556
-42.241
10.525
50.5606
67.4478
70.5083
69.9989
65.8609
61.8786
55.9759
50.513
47.6106
44.8636
44.0915
43.0358
43.7765
44.036
45.8661
46.1966
46.8002
46.2878
45.9692
44.9886
44.1231
42.9097
41.7526
40.9115
40.0881
39.1951
38.2874
36.9742
35.7292
33.852
32.5989
31.0312
30.2146
29.0888
28.8506
28.4795
29.3872
30.3128
29.8983
29.7059
28.1437
27.1069
24.4658
22.586
19.0274
17.4783
15.4365
15.1758
14.3629
15.1879
15.7068
18.2771
20.7906
21.0646
21.627
20.104
19.3502
16.3121
14.3538
10.0839
8.53479
6.3132
6.42182
5.75801
7.17826
8.1371
11.6802
15.0772
15.5039
16.1911
14.0443
12.6802
8.03122
4.3974
-2.88081
-6.84447
-12.3409
-14.9547
-19.3263
-21.1011
-24.2607
-23.8731
-24.2739
-29.6459
-32.9078
-39.2134
-53.0825
-57.1963
-54.0443
78.7839
111.171
114.856
97.8683
93.4681
79.4697
75.8213
63.0841
51.7431
51.4432
44.9273
47.5329
42.9489
47.6386
44.9274
52.4109
50.1954
53.2367
50.524
51.4917
49.0365
48.7084
46.5637
44.758
44.3306
43.6295
42.6246
42.2972
40.0514
39.7057
35.4008
35.3905
31.8146
32.5748
29.3478
30.7841
28.263
31.8125
35.5506
32.7863
35.249
30.4095
32.6152
25.5833
27.0563
16.5774
18.5785
12.4628
15.9551
11.5391
15.7733
12.8848
19.9931
27.147
23.6867
28.2676
21.8638
25.8119
16.6009
19.3769
5.73978
9.08608
1.56546
6.7518
1.47596
7.44457
4.08997
13.5967
23.0956
18.8675
24.9172
16.713
21.7428
9.26148
12.1625
-8.13822
-5.25635
-18.8107
-14.2297
-26.1877
-21.6037
-32.7799
-24.2153
-17.0792
-34.8086
-30.4017
-31.9803
-79.2336
-81.4984
-72.2965
422.469
213.113
192.032
107.1
130.757
78.1725
102.85
68.18
37.0725
64.2251
31.8546
61.326
29.5065
62.1563
31.1368
72.9204
46.6226
67.9571
49.4585
61.9415
50.0194
55.9074
49.728
45.7767
48.1421
47.6067
45.0766
49.0678
40.3908
49.3817
30.7634
43.3152
26.3521
40.675
22.8901
38.4145
19.3034
33.9647
50.1502
28.1457
51.3059
22.5287
51.4242
14.4524
48.7358
-3.84481
31.3657
-4.34767
28.121
-3.74168
26.6141
-4.33338
21.6422
48.7868
14.7281
50.7252
8.71558
51.2219
-0.372793
48.034
-23.0611
25.285
-21.4809
22.1467
-18.9986
21.1357
-18.478
15.524
50.88
7.43031
54.1681
0.32405
56.0209
-11.6594
53.3377
-46.7788
19.9997
-51.3956
10.3116
-56.8697
0.588536
-69.7255
-22.5002
25.9217
-71.8475
-19.2761
41.0249
-170.167
-122.311
-102.797
395.594
358.528
323.509
290.431
259.165
229.562
201.462
174.698
149.103
124.509
100.751
77.6705
55.1106
32.9197
10.9488
-3.1813
-3.07084
-2.91369
-2.71926
-2.49755
-2.25801
-2.00881
-1.75641
-1.50545
-1.25892
-1.01832
-0.784003
-0.555409
-0.331326
-0.110114
-5.36238
-5.16987
-4.89751
-4.5624
-4.1824
-3.77412
-3.35163
-2.92577
-2.5042
-2.09162
-1.69024
-1.30033
-0.920675
-0.549024
-0.182432
-7.63709
-7.34865
-6.94399
-6.45034
-5.89545
-5.3044
-4.69773
-4.0908
-3.49393
-2.91308
-2.35067
-1.80638
-1.27793
-0.761656
-0.25302
-10.0504
-9.6435
-9.07934
-8.39942
-7.64457
-6.85022
-6.04404
-5.24571
-4.46759
-3.71607
-2.99293
-2.29656
-1.62298
-0.966643
-0.321006
-12.656
-12.0955
-11.3303
-10.4233
-9.43308
-8.40773
-7.38242
-6.38033
-5.41458
-4.49063
-3.60838
-2.76391
-1.95077
-1.16092
-0.385366
-15.5216
-14.7519
-13.7228
-12.5301
-11.2566
-9.96505
-8.69747
-7.4785
-6.3197
-5.22343
-4.18601
-3.19989
-2.25524
-1.34087
-0.444901
-18.7367
-17.6675
-16.2789
-14.7174
-13.098
-11.4983
-9.96377
-8.51639
-7.16217
-5.89731
-4.71226
-3.59436
-2.52938
-1.5024
-0.498263
-22.423
-20.9025
-19.0075
-16.9624
-14.9194
-12.966
-11.1428
-9.46099
-7.91517
-6.49127
-5.17129
-3.93586
-2.76549
-1.64108
-0.544004
-26.7494
-24.5118
-21.8861
-19.2049
-16.6512
-14.3035
-12.1802
-10.2695
-8.54614
-6.98123
-5.5457
-4.21225
-2.9556
-1.75239
-0.580667
-31.9405
-28.5087
-24.8199
-21.3197
-18.1766
-15.4163
-13.005
-10.8903
-9.01857
-7.34168
-5.81796
-4.41175
-3.09223
-1.83221
-0.606926
-38.2395
-32.7622
-27.5645
-23.0772
-19.3189
-16.1799
-13.5331
-11.2679
-9.29604
-7.54887
-5.97263
-4.52449
-3.16932
-1.87724
-0.621749
-45.6502
-36.7355
-29.5984
-24.1053
-19.8416
-16.4511
-13.6794
-11.3519
-9.34871
-7.585
-5.9991
-4.5442
-3.18329
-1.88566
-0.624569
-52.8174
-38.9308
-29.9877
-23.9038
-19.4907
-16.1033
-13.3812
-11.1116
-9.16169
-7.44322
-5.89447
-4.46986
-3.13391
-1.8575
-0.615428
-52.6207
-36.182
-27.5173
-22.0311
-18.1137
-15.0901
-12.6302
-10.5516
-8.74308
-7.13159
-5.66562
-4.3068
-3.02494
-1.79499
-0.595057
-2.88822
-8.72751
-14.7606
-21.1357
-28.0329
-35.6872
-44.4239
-54.7216
-67.3302
-83.511
-105.572
-138.194
-192.087
-295.12
-528.637
-2.83605
-8.56632
-14.4756
-20.6992
-27.399
-34.781
-43.1215
-52.8086
-64.4111
-78.7898
-97.2619
-121.72
-153.92
-189.277
-179.259
-2.74346
-8.28073
-13.9722
-19.9318
-26.2911
-33.209
-40.8837
-49.5652
-59.5634
-71.2253
-84.7945
-99.868
-113.559
-114.941
-71.8955
-2.61589
-7.88797
-13.2826
-18.8868
-24.7951
-31.1112
-37.9463
-45.4069
-53.56
-62.3356
-71.2815
-78.9758
-81.7451
-71.4559
-34.4933
-2.4603
-7.41004
-12.4473
-17.6303
-23.0156
-28.6529
-34.5741
-40.7675
-47.124
-53.3272
-58.6369
-61.5026
-58.9992
-46.4938
-19.3297
-2.28445
-6.87128
-11.5107
-16.2333
-21.0608
-25.9971
-31.0126
-36.0144
-40.7942
-44.9389
-47.6895
-47.7573
-43.1986
-31.7112
-12.1488
-2.09613
-6.29593
-10.5163
-14.7634
-19.0303
-23.2863
-27.4604
-31.4151
-34.905
-37.5182
-38.6049
-37.2247
-32.209
-22.5359
-8.25626
-1.90257
-5.70626
-9.50313
-13.2797
-17.0073
-20.632
-24.0603
-27.1382
-29.6242
-31.1573
-31.2331
-29.2166
-24.4533
-16.5595
-5.91421
-1.70999
-5.1213
-8.50399
-11.8298
-15.0556
-18.1141
-20.9034
-23.2723
-25.0048
-25.808
-25.3138
-23.1157
-18.8714
-12.4936
-4.39375
-1.5234
-4.55615
-7.54426
-10.4494
-13.2198
-15.7831
-18.0384
-19.8481
-21.0306
-21.3596
-20.5777
-18.4356
-14.7709
-9.62348
-3.3508
-1.34657
-4.02198
-6.64205
-9.16253
-11.5278
-13.6658
-15.4828
-16.8593
-17.6488
-17.6825
-16.7858
-14.8128
-11.7001
-7.53468
-2.60569
-1.18203
-3.5262
-5.80894
-7.98334
-9.99352
-11.7712
-13.2328
-14.2781
-14.7919
-14.6513
-13.7414
-11.9812
-9.36022
-5.97607
-2.05666
-1.03128
-3.07305
-5.05101
-6.9181
-8.62061
-10.0961
-11.2719
-12.0659
-12.3893
-12.1544
-11.2872
-9.7473
-7.55027
-4.78913
-1.64228
-0.894982
-2.66417
-4.37003
-5.9671
-7.40531
-8.62887
-9.57602
-10.1804
-10.3744
-10.0963
-9.30024
-7.96963
-6.13199
-3.87001
-1.3235
-0.773099
-2.29925
-3.76457
-5.12636
-6.33901
-7.35356
-8.11814
-8.57964
-8.68724
-8.39793
-7.68435
-6.54402
-5.00834
-3.14846
-1.07448
-0.665135
-1.97654
-3.23096
-4.38914
-5.41021
-6.25178
-6.87064
-7.22463
-7.27562
-6.99409
-6.36476
-5.39289
-4.10977
-2.57557
-0.877528
-0.570262
-1.6934
-2.76417
-3.74708
-4.60602
-5.30459
-5.80704
-6.07996
-6.09487
-5.83172
-5.28299
-4.45786
-3.38554
-2.11644
-0.720156
-0.487458
-1.4466
-2.35837
-3.19109
-3.91316
-4.49355
-4.90278
-5.1144
-5.10716
-4.86762
-4.3931
-3.69445
-2.79794
-1.74561
-0.593354
-0.415605
-1.23269
-2.00745
-2.71191
-3.31865
-3.80133
-4.13569
-4.30079
-4.28073
-4.06666
-3.65883
-3.06841
-2.31852
-1.44416
-0.490472
-0.353557
-1.04815
-1.70533
-2.30058
-2.81025
-3.21209
-3.48612
-3.61572
-3.58899
-3.40022
-3.05133
-2.55307
-1.92552
-1.19778
-0.406516
-0.300198
-0.8896
-1.44619
-1.94866
-2.37671
-2.71158
-2.93681
-3.03918
-3.00975
-2.84493
-2.54754
-2.1275
-1.60208
-0.995501
-0.337675
-0.254472
-0.753828
-1.22461
-1.64841
-2.00786
-2.28717
-2.47279
-2.55415
-2.52449
-2.38168
-2.1289
-1.77508
-1.335
-0.828798
-0.280999
-0.2154
-0.637892
-1.03565
-1.39284
-1.69465
-1.92782
-2.08116
-2.14619
-2.1178
-1.99479
-1.7804
-1.48256
-1.11382
-0.690975
-0.234182
-0.182098
-0.539128
-0.874851
-1.1757
-1.42909
-1.62388
-1.75082
-1.8031
-1.77679
-1.67133
-1.48985
-1.23926
-0.930218
-0.576718
-0.195396
-0.153769
-0.455155
-0.738264
-0.991511
-1.20423
-1.36705
-1.47233
-1.51456
-1.49073
-1.40067
-1.24726
-1.03653
-0.777478
-0.481777
-0.163187
-0.129711
-0.383871
-0.622409
-0.835461
-1.01399
-1.15016
-1.23761
-1.27188
-1.25065
-1.17397
-1.04448
-0.86735
-0.650184
-0.402726
-0.136381
-0.109306
-0.323432
-0.524247
-0.703374
-0.853181
-0.967079
-1.03981
-1.06774
-1.04905
-0.983953
-0.874778
-0.725963
-0.543921
-0.336786
-0.11403
-0.0920161
-0.272234
-0.441143
-0.591643
-0.717296
-0.812578
-0.873128
-0.895963
-0.87967
-0.824532
-0.732595
-0.607643
-0.455078
-0.281693
-0.095362
-0.077374
-0.228888
-0.370818
-0.497161
-0.602495
-0.682191
-0.732624
-0.751352
-0.737259
-0.690659
-0.613332
-0.508495
-0.380688
-0.235588
-0.0797438
-0.0649768
-0.192196
-0.311313
-0.417266
-0.505493
-0.572119
-0.614132
-0.629525
-0.617415
-0.578118
-0.513169
-0.425294
-0.318305
-0.196941
-0.0666554
-0.0544781
-0.161128
-0.260948
-0.349677
-0.423486
-0.479136
-0.514121
-0.526793
-0.516447
-0.483384
-0.428924
-0.355364
-0.2659
-0.164489
-0.0556669
-0.0455803
-0.134802
-0.218283
-0.292447
-0.354086
-0.400498
-0.429602
-0.44004
-0.431249
-0.403507
-0.357938
-0.296474
-0.22179
-0.137182
-0.0464223
-0.0380285
-0.112461
-0.182086
-0.243911
-0.295258
-0.333877
-0.358042
-0.366636
-0.359208
-0.336008
-0.297985
-0.246763
-0.18457
-0.114147
-0.0386247
-0.0316044
-0.0934587
-0.151304
-0.20265
-0.245267
-0.27729
-0.297292
-0.304355
-0.298117
-0.278798
-0.247198
-0.204668
-0.153062
-0.0946518
-0.0320264
-0.0261205
-0.0772389
-0.125036
-0.167447
-0.202632
-0.229049
-0.245524
-0.251307
-0.246108
-0.230116
-0.203997
-0.168875
-0.126279
-0.0780829
-0.026419
-0.021416
-0.0633254
-0.102505
-0.137261
-0.166083
-0.187709
-0.20118
-0.205885
-0.201592
-0.188463
-0.167048
-0.13827
-0.103384
-0.0639216
-0.0216269
-0.0173519
-0.0513067
-0.0830462
-0.111196
-0.134531
-0.152031
-0.16292
-0.166709
-0.163211
-0.152562
-0.135211
-0.111906
-0.083665
-0.0517268
-0.0175004
-0.0138077
-0.0408262
-0.0660793
-0.0884722
-0.107031
-0.120942
-0.129591
-0.132591
-0.129795
-0.121314
-0.107507
-0.0889702
-0.0665129
-0.0411205
-0.0139118
-0.0106778
-0.0315713
-0.0510981
-0.0684109
-0.0827561
-0.0935057
-0.100185
-0.102496
-0.100326
-0.0937634
-0.083086
-0.0687559
-0.0513985
-0.0317752
-0.0107499
-0.00786866
-0.0232652
-0.0376538
-0.0504099
-0.0609778
-0.0688951
-0.0738126
-0.0755104
-0.0739081
-0.0690695
-0.061201
-0.0506433
-0.0378571
-0.0234032
-0.00791746
-0.00529613
-0.0156589
-0.025343
-0.033928
-0.0410397
-0.0463671
-0.0496752
-0.0508163
-0.0497365
-0.0464791
-0.0411831
-0.0340779
-0.0254736
-0.0157475
-0.00532747
-0.00288289
-0.0085238
-0.0137954
-0.0184688
-0.0223404
-0.0252409
-0.0270423
-0.0276641
-0.0270769
-0.025304
-0.0224212
-0.0185532
-0.0138689
-0.00857369
-0.00290053
-0.000556333
-0.00164507
-0.00266302
-0.00356621
-0.00431541
-0.0048778
-0.00522841
-0.00535129
-0.0052403
-0.00489952
-0.00434321
-0.00359528
-0.00268833
-0.00166225
-0.000562408
0.00175361
0.00518449
0.00838966
0.0112294
0.0135799
0.0153383
0.0164274
0.0167991
0.0164367
0.0153553
0.0136017
0.0112522
0.00840952
0.00519797
0.00175838
0.00411654
0.0121708
0.019696
0.0263648
0.0318863
0.0360189
0.0385812
0.0394593
0.0386128
0.0360768
0.0319603
0.0264422
0.0197634
0.0122165
0.00413273
0.00660366
0.0195243
0.0315969
0.0422966
0.0511568
0.0577899
0.0619041
0.0633166
0.0619619
0.0578955
0.0512919
0.0424379
0.03172
0.0196078
0.0066332
0.00928982
0.0274664
0.0444511
0.0595054
0.0719734
0.0813095
0.0871028
0.0890951
0.0871936
0.0814755
0.0721858
0.0597275
0.0446445
0.0275977
0.00933626
0.0122558
0.0362361
0.0586453
0.0785098
0.0949643
0.107289
0.11494
0.117577
0.115075
0.107535
0.0952795
0.0788394
0.0589323
0.0364309
0.0123247
0.0155905
0.0460965
0.074606
0.0998815
0.120822
0.136512
0.146259
0.149626
0.146454
0.136868
0.121278
0.100358
0.0750212
0.0463783
0.0156902
0.0193939
0.0573431
0.0928119
0.124263
0.150326
0.169862
0.182006
0.186215
0.182285
0.170371
0.150977
0.124944
0.093405
0.0577456
0.0195362
0.0237793
0.0703116
0.113807
0.152383
0.184362
0.208342
0.223264
0.228454
0.223659
0.209065
0.185287
0.153351
0.11465
0.0708832
0.0239815
0.0288773
0.085388
0.138219
0.185085
0.22395
0.253111
0.271277
0.277624
0.271837
0.254135
0.225259
0.186454
0.139411
0.0861974
0.0291636
0.0348387
0.103019
0.166771
0.223341
0.270274
0.305515
0.327496
0.335217
0.328288
0.306961
0.272126
0.225277
0.168456
0.104164
0.0352435
0.0418393
0.123726
0.200308
0.268287
0.324716
0.367122
0.393616
0.40298
0.394734
0.369166
0.327332
0.271022
0.202689
0.125342
0.0424111
0.0500842
0.148115
0.239817
0.321252
0.388894
0.439777
0.471627
0.48297
0.473207
0.442663
0.392588
0.325115
0.243181
0.150398
0.0508917
0.0598131
0.176897
0.286454
0.383793
0.464707
0.525646
0.563876
0.577611
0.566106
0.529721
0.469922
0.389247
0.291203
0.180121
0.0609533
0.0713067
0.210905
0.341573
0.457737
0.554386
0.627279
0.673131
0.689774
0.676279
0.633032
0.561749
0.465437
0.348278
0.215456
0.0729166
0.0848936
0.251113
0.406761
0.545229
0.660558
0.747685
0.802663
0.82286
0.807108
0.755807
0.670953
0.556099
0.416227
0.257538
0.0871664
0.100957
0.29866
0.483876
0.648785
0.78631
0.89041
0.956342
0.980903
0.962617
0.901875
0.800984
0.664131
0.497241
0.307731
0.104166
0.119946
0.354875
0.57509
0.771351
0.935266
1.05963
1.13874
1.16869
1.1476
1.07582
0.955981
0.793015
0.593957
0.367682
0.124476
0.142378
0.421305
0.682934
0.916371
1.11168
1.26027
1.35528
1.39191
1.36778
1.28312
1.14092
0.946955
0.709571
0.439386
0.148774
0.168858
0.499744
0.81035
1.08786
1.32053
1.49811
1.61233
1.65732
1.62998
1.53036
1.36181
1.13104
0.847956
0.525272
0.177889
0.200079
0.592261
0.960742
1.29048
1.56761
1.77994
1.91746
1.97293
1.94237
1.82546
1.62588
1.35144
1.01384
0.628305
0.21283
0.236837
0.701231
1.13803
1.52963
1.85969
2.11369
2.27955
2.34828
2.3147
2.17794
1.94194
1.61568
1.21299
0.752127
0.254843
0.280036
0.829361
1.34669
1.8115
2.20458
2.50864
2.70905
2.79467
2.75866
2.59931
2.32068
1.93298
1.45253
0.901235
0.305466
0.330695
0.979706
1.5918
2.14317
2.61126
2.97554
3.21825
3.3255
3.28825
3.10349
2.77513
2.31467
1.74127
1.08122
0.366614
0.38995
1.15568
1.87908
2.53264
3.09003
3.52682
3.82151
3.95663
3.92025
3.70736
3.3213
2.77477
2.09016
1.29907
0.440695
0.459043
1.36103
2.21484
2.98888
3.6525
4.17677
4.53553
4.70684
4.67478
4.43145
3.97889
3.33073
2.51299
1.56363
0.530756
0.539315
1.59982
2.60598
3.52177
4.31172
4.94162
5.37967
5.59822
5.576
5.3008
4.77227
4.00444
3.02718
1.88618
0.6407
0.63217
1.87633
3.05985
4.14202
5.08206
5.83965
6.3762
6.65676
6.65285
6.34601
5.73179
4.82353
3.65506
2.28126
0.775584
0.739033
2.19494
3.58406
4.86093
5.97903
6.89114
7.55045
7.91279
7.94
7.60463
6.89546
5.82329
4.42551
2.76789
0.942057
0.861276
2.55991
4.1862
5.69006
7.01901
8.11811
8.93086
9.40147
9.47889
9.12276
8.31115
7.04912
5.37636
3.37131
1.149
1.00012
2.9751
4.87333
6.6406
8.21854
9.54387
10.5488
11.1631
11.3188
10.9571
10.0396
8.56011
6.55792
4.12558
1.40848
1.1565
3.44355
5.65136
7.72257
9.59342
11.192
12.4379
13.2432
13.5178
13.1774
12.1581
10.4341
8.03813
5.07758
1.73729
1.3309
3.96701
6.52419
8.94359
11.1573
13.0851
14.6327
15.6918
16.1436
15.8691
14.7659
12.7745
9.91038
6.29325
2.15936
1.52312
4.54525
7.49263
10.3074
12.9196
15.2421
17.1668
18.5619
19.2738
19.1362
17.9903
15.7209
12.3055
7.86772
2.70976
1.73208
5.17536
8.5531
11.8118
14.8828
17.6752
20.0684
21.9063
22.9938
23.1033
21.9949
19.463
15.4104
9.94229
3.44179
1.95553
5.85093
9.69613
13.4465
17.0395
20.3853
23.3556
25.7715
27.3929
27.9158
26.9879
24.2611
19.4981
12.7337
4.4398
2.18983
6.56132
10.9049
15.1904
19.3677
23.356
27.0275
30.1881
32.5547
33.7357
33.2299
30.473
24.9755
16.5873
5.84448
2.42978
7.291
12.1541
17.0091
21.8271
26.5466
31.0541
35.156
38.5395
40.7266
41.0348
38.5879
32.4601
22.0759
7.90613
2.66856
8.01933
13.4087
18.8535
24.3547
29.8841
35.3621
40.6225
45.355
49.0219
50.7527
49.2587
42.9003
30.193
11.1083
2.89784
8.72082
14.6246
20.6585
26.8626
33.2569
39.821
46.4552
52.91
58.6614
62.7097
63.3071
57.749
42.7386
16.4855
3.10815
9.36616
15.75
22.3452
29.2383
36.5117
44.2308
52.4121
60.9531
69.483
77.0626
81.6295
79.1613
63.0912
26.5277
3.28946
9.92406
16.7284
23.8249
31.3496
39.4567
48.3193
58.1188
69.0033
80.964
93.507
104.837
110.018
97.675
48.0222
3.43209
10.364
17.5038
25.007
33.0562
41.8768
51.7569
63.0717
76.3055
92.0399
110.793
132.312
153.045
158.167
101.733
3.52768
10.6594
18.0268
25.8098
34.2269
43.5607
54.1976
66.6914
81.8705
101.019
126.157
160.333
206.911
261.405
257.548
3.57019
10.7911
18.2611
26.172
34.7606
44.3394
55.3485
68.4457
84.6785
105.837
135.244
179.739
255.279
405.162
768.388
3.55674
10.7498
18.189
26.0635
34.6064
44.1246
55.0489
68.022
84.0654
104.925
133.852
177.585
252.016
400.762
764.687
3.48797
10.5376
17.8144
25.4907
33.7747
42.9329
53.3261
65.4654
80.107
98.4093
122.178
154.112
197.144
246.928
241.794
3.36799
10.1676
17.1621
24.4958
32.3355
40.8833
50.3901
61.1705
73.6058
88.0969
104.832
122.931
137.582
131.228
51.1584
-33.3647
-27.1865
-22.5578
-18.9754
-16.0879
-13.6802
-11.6169
-9.80823
-8.19189
-6.72233
-5.36489
-4.09205
-2.88104
-1.71225
-0.568055
-12.5145
-17.3407
-17.1231
-15.6243
-13.8621
-12.1267
-10.4962
-8.98259
-7.57676
-6.26335
-5.02601
-3.849
-2.71759
-1.61802
-0.537268
-5.69374
-10.9975
-12.5781
-12.456
-11.6176
-10.5001
-9.29417
-8.08203
-6.89736
-5.75149
-4.64519
-3.57424
-2.532
-1.51072
-0.502155
-3.09776
-7.23963
-9.21524
-9.785
-9.56678
-8.93485
-8.09638
-7.16231
-6.19096
-5.21207
-4.23978
-3.2795
-2.33182
-1.39457
-0.464081
-1.92791
-4.98605
-6.8286
-7.66113
-7.80316
-7.51294
-6.96489
-6.2684
-5.48972
-4.66804
-3.82597
-2.97598
-2.12438
-1.27372
-0.424386
-1.31199
-3.57658
-5.14331
-6.0167
-6.33962
-6.27001
-5.93641
-5.43151
-4.81828
-4.13811
-3.41762
-2.67355
-1.91625
-1.15193
-0.384298
-0.945632
-2.65171
-3.93943
-4.75447
-5.14861
-5.21033
-5.02683
-4.66979
-4.19328
-3.63616
-3.0256
-2.38029
-1.71298
-1.03243
-0.344874
-0.707867
-2.01732
-3.06378
-3.78447
-4.18839
-4.32091
-4.2377
-3.99099
-3.62421
-3.17127
-2.65768
-2.10228
-1.51888
-0.917795
-0.306966
-0.543898
-1.56556
-2.41432
-3.03442
-3.41661
-3.58124
-3.56208
-3.39552
-3.11494
-2.74847
-2.31878
-1.84368
-1.33706
-0.809911
-0.271212
-0.425849
-1.23385
-1.92364
-2.44955
-2.79588
-2.96917
-2.98877
-2.87921
-2.66527
-2.36954
-2.01139
-1.60694
-1.16948
-0.71004
-0.23804
-0.338141
-0.984216
-1.54673
-1.98938
-2.29528
-2.46379
-2.50514
-2.43534
-2.27238
-2.03394
-1.73612
-1.39312
-1.01716
-0.618881
-0.2077
-0.271408
-0.792599
-1.25306
-1.62415
-1.89006
-2.04669
-2.09868
-2.05614
-1.9319
-1.73954
-1.49223
-1.20215
-0.880326
-0.536675
-0.180287
-0.219688
-0.643151
-1.02143
-1.33194
-1.56071
-1.70223
-1.75784
-1.73366
-1.6387
-1.48327
-1.27802
-1.03323
-0.758639
-0.46331
-0.155779
-0.179015
-0.525073
-0.836857
-1.09647
-1.29194
-1.41742
-1.47238
-1.46031
-1.38746
-1.26161
-1.09124
-0.885001
-0.651342
-0.398414
-0.134065
-0.146655
-0.430792
-0.688504
-0.905531
-1.07177
-1.18158
-1.23344
-1.22917
-1.17302
-1.07083
-0.929366
-0.755802
-0.55742
-0.341444
-0.114976