/*--------------------------------*- C++ -*----------------------------------*\
| =========                 |                                                 |
| \\      /  F ield         | OpenFOAM: The Open Source CFD Toolbox           |
|  \\    /   O peration     | Version:  5.x                                   |
|   \\  /    A nd           | Web:      www.OpenFOAM.org                      |
|    \\/     M anipulation  |                                                 |
\*---------------------------------------------------------------------------*/
FoamFile
{
    version     2.0;
    format      ascii;
    class       volScalarField;
    location    "10.6";
    object      T;
}
// * * * * * * * * * * * * * * * * * * * * * * * * * * * * * * * * * * * * * //

dimensions      [0 0 0 1 0 0 0];

internalField   nonuniform List<scalar> 
6300
(
10.1802
10.5426
10.9108
11.2885
11.6792
12.0864
12.5127
12.9608
13.4321
13.9279
14.4479
14.9913
15.556
16.1387
16.7354
10.1783
10.5368
10.9012
11.2754
11.6628
12.0671
12.491
12.9373
13.4077
13.9034
14.4244
14.9699
15.5377
16.1246
16.7262
10.1744
10.5251
10.8819
11.2488
11.6296
12.0279
12.447
12.8896
13.3579
13.8534
14.3764
14.9261
15.5003
16.0956
16.7072
10.1684
10.5073
10.8526
11.2084
11.5789
11.9679
12.3792
12.816
13.2809
13.7758
14.3016
14.8575
15.4416
16.05
16.6774
10.1603
10.4831
10.8126
11.1533
11.5095
11.8857
12.2859
12.7142
13.1738
13.6674
14.1963
14.7607
15.3584
15.9854
16.6352
10.1499
10.4522
10.7614
11.0825
11.4202
11.7792
12.1646
12.5809
13.0326
13.5233
14.0556
14.6303
15.2459
15.8976
16.578
10.1372
10.4142
10.6985
10.9951
11.3093
11.6465
12.0122
12.4123
12.8523
13.3376
13.8724
14.459
15.0969
15.7812
16.5024
10.1221
10.3688
10.6231
10.8901
11.1755
11.4851
11.8255
12.2035
12.6266
13.1022
13.6372
14.2364
14.9013
15.6276
16.4035
10.1045
10.3159
10.5349
10.7668
11.0173
11.2929
11.6009
11.9496
12.3483
12.8075
13.3375
13.9479
14.6442
15.4242
16.2737
10.0844
10.2555
10.4339
10.6248
10.834
11.0683
11.3356
11.6455
12.0096
12.4416
12.9575
13.5735
14.3033
15.151
16.1017
10.0618
10.1877
10.3203
10.4644
10.6256
10.8106
11.0277
11.2872
11.6028
11.9919
12.4771
13.0851
13.8444
14.7748
15.8679
10.0371
10.1133
10.1951
10.2868
10.3934
10.5209
10.6772
10.8728
11.1223
11.4462
11.8736
12.4454
13.2141
14.2358
15.5343
10.0106
10.0331
10.06
10.0944
10.1402
10.2023
10.2873
10.4044
10.5673
10.7967
11.1259
11.6085
12.3307
13.4199
15.0122
9.9826
9.94864
9.91728
9.89048
9.87062
9.8608
9.86528
9.89029
9.94562
10.0475
10.2246
10.5319
11.0802
12.1007
14.0417
9.95378
9.86156
9.77001
9.67962
9.59101
9.50497
9.42264
9.34579
9.27737
9.2228
9.19312
9.21418
9.35741
9.86076
11.6675
17.2907
17.7984
18.3056
18.8093
19.3062
19.7936
20.2688
20.7294
21.1736
21.5997
22.0064
22.3924
22.7571
23.0996
23.4196
23.7167
23.9906
24.2411
24.4683
24.6722
24.8528
25.0104
25.1451
25.2572
25.3469
25.4147
25.4609
25.4859
25.4902
25.4741
25.4381
25.3826
25.3082
25.2152
25.1041
24.9754
24.8295
24.6669
24.488
24.2932
24.083
23.858
23.6184
23.3649
23.0978
22.8176
22.5248
22.2197
21.9029
21.5746
21.2352
20.8852
20.5247
20.1541
19.7738
19.3841
18.9852
18.5776
18.1617
17.7377
17.3062
16.8675
16.422
15.9701
15.5123
15.0491
14.5808
14.108
13.6313
13.1511
12.6683
12.1836
11.6978
11.2118
10.7267
10.2436
9.76357
9.28785
8.81766
8.35423
7.89879
7.45252
7.01654
6.59189
6.17954
5.78031
5.39489
5.02381
4.66741
4.32587
17.2864
17.7987
18.3106
18.8187
19.3198
19.8109
20.2894
20.7529
21.1994
21.6275
22.0357
22.423
22.7886
23.1318
23.4523
23.7497
24.0238
24.2744
24.5016
24.7053
24.8857
25.043
25.1773
25.2889
25.3782
25.4454
25.4911
25.5155
25.5191
25.5023
25.4657
25.4096
25.3345
25.2408
25.1291
24.9998
24.8532
24.69
24.5104
24.315
24.1042
23.8784
23.6382
23.384
23.1163
22.8354
22.542
22.2364
21.919
21.5902
21.2504
20.8998
20.5389
20.1679
19.7871
19.3969
18.9975
18.5894
18.1729
17.7484
17.3163
16.877
16.4309
15.9784
15.52
15.056
14.5871
14.1135
13.6359
13.1548
12.6709
12.185
11.6978
11.2104
10.7238
10.239
9.75722
9.27974
8.80778
8.34261
7.88547
7.43758
7.0001
6.5741
6.16056
5.76034
5.37417
5.00258
4.64595
4.30444
17.2776
17.7994
18.3208
18.838
19.3475
19.8462
20.3312
20.8004
21.2516
21.6835
22.0947
22.4844
22.8518
23.1965
23.5179
23.816
24.0904
24.3411
24.5682
24.7716
24.9515
25.1082
25.2417
25.3524
25.4407
25.5069
25.5514
25.5746
25.5769
25.5588
25.5209
25.4634
25.387
25.2921
25.1791
25.0485
24.9007
24.7361
24.5553
24.3585
24.1464
23.9193
23.6778
23.4222
23.1532
22.8711
22.5764
22.2697
21.9512
21.6214
21.2806
20.9291
20.5673
20.1953
19.8137
19.4225
19.0221
18.613
18.1954
17.7697
17.3364
16.8959
16.4486
15.995
15.5353
15.0701
14.5997
14.1246
13.6453
13.1623
12.6763
12.1879
11.6981
11.2077
10.7179
10.2298
9.74456
9.26353
8.78799
8.31929
7.85872
7.40755
6.96701
6.53824
6.12229
5.72006
5.33235
4.95974
4.60263
4.26121
17.2638
17.8006
18.3368
18.8681
19.3906
19.9008
20.3958
20.8733
21.3315
21.7689
22.1845
22.5776
22.9476
23.2942
23.617
23.9158
24.1907
24.4416
24.6684
24.8714
25.0506
25.2062
25.3386
25.448
25.5347
25.5992
25.6419
25.6633
25.6637
25.6437
25.6037
25.5443
25.4659
25.369
25.2541
25.1215
24.9718
24.8053
24.6226
24.4239
24.2098
23.9807
23.7371
23.4795
23.2085
22.9245
22.628
22.3194
21.9993
21.668
21.3258
20.973
20.6098
20.2366
19.8536
19.461
19.0591
18.6484
18.2291
17.8018
17.3667
16.9245
16.4754
16.0199
15.5584
15.0913
14.6189
14.1416
13.6598
13.174
12.6847
12.1928
11.6989
11.2041
10.7095
10.2163
9.72573
9.23925
8.75824
8.28412
7.81829
7.3621
6.91688
6.48384
6.06415
5.65881
5.26869
4.89449
4.53665
4.19538
17.2443
17.8025
18.3597
18.9107
19.451
19.9769
20.4853
20.9738
21.4409
21.8854
22.3065
22.7038
23.0769
23.4257
23.7501
24.0499
24.3253
24.5762
24.8027
25.005
25.1831
25.3374
25.4681
25.5757
25.6603
25.7226
25.7629
25.7817
25.7795
25.7568
25.7141
25.6521
25.571
25.4715
25.354
25.2189
25.0667
24.8977
24.7124
24.5111
24.2944
24.0626
23.8162
23.5559
23.2821
22.9955
22.6964
22.3856
22.0633
21.73
21.3859
21.0314
20.6666
20.2917
19.9069
19.5125
19.1087
18.6958
18.2743
17.8446
17.4072
16.9625
16.5111
16.0533
15.5894
15.1199
14.6449
14.1648
13.6798
13.1904
12.697
12.2002
11.7009
11.2001
10.6989
10.1987
9.70088
9.20695
8.71844
8.2369
7.76385
7.30077
6.84908
6.41014
5.98524
5.57554
5.18205
4.8056
4.44675
4.10572
17.2184
17.8056
18.3911
18.9684
19.5321
20.0781
20.6031
21.105
21.5827
22.0353
22.4625
22.8644
23.2409
23.5921
23.9181
24.219
24.4948
24.7457
24.9717
25.1729
25.3497
25.5022
25.6308
25.7359
25.8178
25.8772
25.9144
25.9299
25.9244
25.8983
25.8522
25.7867
25.7023
25.5995
25.4788
25.3406
25.1853
25.0132
24.8248
24.6203
24.4002
24.165
23.9151
23.6513
23.374
23.0839
22.7816
22.4678
22.1428
21.807
21.4608
21.1043
20.7375
20.3607
19.9739
19.5772
19.1709
18.7554
18.331
17.8983
17.4578
17.0101
16.5557
16.095
15.6284
15.1561
14.6782
14.1948
13.7061
13.2123
12.7138
12.211
11.7049
11.1964
10.6868
10.1776
9.6703
9.16669
8.66847
8.17732
7.69493
7.22291
6.76281
6.31614
5.88435
5.46883
5.0708
4.69131
4.33109
3.99045
17.1849
17.8112
18.4341
19.0454
19.6386
20.2091
20.7537
21.271
21.7601
22.2213
22.6548
23.0612
23.4409
23.7944
24.122
24.4238
24.7
24.9506
25.1758
25.3758
25.5507
25.701
25.8269
25.929
26.0076
26.0633
26.0966
26.1082
26.0985
26.0682
26.0179
25.9482
25.8597
25.753
25.6285
25.4866
25.3276
25.152
24.9598
24.7516
24.5275
24.2881
24.0339
23.7656
23.4839
23.1895
22.8832
22.5657
22.2375
21.8989
21.5502
21.1915
20.8227
20.4438
20.0547
19.6555
19.2462
18.8274
18.3994
17.9629
17.5185
17.0671
16.6091
16.1451
15.6754
15.2
14.719
14.2323
13.7396
13.2409
12.7365
12.2266
11.7121
11.1941
10.674
10.1534
9.63431
9.11857
8.60817
8.10503
7.61098
7.12778
6.6571
6.20062
5.75997
5.33683
4.93278
4.54922
4.18717
3.8471
17.1428
17.8213
18.4935
19.1482
19.7777
20.377
20.9437
21.477
21.9777
22.4469
22.8859
23.296
23.6784
24.0338
24.3626
24.6651
24.9415
25.1918
25.416
25.6143
25.787
25.9345
26.0571
26.1554
26.23
26.2813
26.3099
26.3166
26.3019
26.2665
26.2111
26.1364
26.0431
25.9317
25.8027
25.6566
25.4937
25.314
25.1178
24.9052
24.6765
24.4321
24.1727
23.8989
23.6116
23.3119
23.0007
22.6787
22.3467
22.005
21.6537
21.2929
20.9222
20.5413
20.1499
19.7478
19.3352
18.9123
18.4797
18.0384
17.5893
17.1332
16.671
16.2032
15.7302
15.2519
14.768
14.278
13.7814
13.2777
12.7667
12.2487
11.7243
11.1947
10.6616
10.1271
9.59331
9.06261
8.53729
8.01952
7.5113
7.0145
6.53087
6.06219
5.6103
5.17726
4.76518
4.37608
4.01154
3.67231
17.091
17.8407
18.5776
19.2871
19.96
20.5917
21.1812
21.7299
22.2404
22.7155
23.1581
23.5706
23.9545
24.311
24.6407
24.9439
25.2203
25.47
25.693
25.8893
26.0593
26.2033
26.3219
26.4157
26.4854
26.5314
26.5545
26.5554
26.5347
26.4932
26.4317
26.351
26.252
26.1352
26.0013
25.8506
25.6834
25.4995
25.2989
25.0817
24.8477
24.5975
24.3317
24.0511
23.757
23.4506
23.1332
22.8059
22.4695
22.1244
21.7707
21.4082
21.0361
20.6536
20.2601
19.8551
19.4385
19.0107
18.5725
18.1251
17.6697
17.2078
16.7406
16.2687
15.7924
15.3116
14.8255
14.3332
13.8333
13.3248
12.807
12.2797
11.7437
11.2002
10.6513
10.0995
9.54771
8.99877
8.45542
7.92013
7.39508
6.88214
6.38304
5.89946
5.43342
4.98742
4.56441
4.16751
3.7994
3.46141
17.0296
17.878
18.701
19.4787
20.2014
20.8668
21.4772
22.0376
22.5535
23.0307
23.4736
23.8858
24.2696
24.6265
24.9568
25.2606
25.5372
25.7865
26.008
26.2019
26.3685
26.5084
26.6221
26.7105
26.7743
26.8142
26.8308
26.8248
26.797
26.7482
26.6794
26.5917
26.4859
26.3631
26.2237
26.0681
25.8965
25.7086
25.5038
25.2816
25.042
24.785
24.5115
24.2225
23.9197
23.6048
23.2796
22.9458
22.6043
22.2558
21.9002
21.5368
21.1644
20.7815
20.3866
19.9788
19.5577
19.1238
18.6783
18.2227
17.7593
17.29
16.8166
16.3401
15.8609
15.3785
14.8918
14.3989
13.8974
13.3851
12.8606
12.3232
11.7736
11.2133
10.6449
10.0718
9.49786
8.92673
8.3618
7.80588
7.26128
6.72977
6.21273
5.7114
5.2276
4.7644
4.32596
3.91744
3.54384
3.20772
16.9611
17.9517
18.8894
19.7492
20.5249
21.2206
21.8452
22.4089
22.9223
23.3947
23.8329
24.2415
24.6233
24.9798
25.3109
25.6158
25.8933
26.1424
26.3624
26.5535
26.7159
26.8506
26.9583
27.0402
27.0972
27.13
27.1391
27.1253
27.0891
27.0317
26.9541
26.8578
26.7442
26.6142
26.4688
26.3084
26.1328
25.9416
25.7332
25.5065
25.2607
24.996
24.7131
24.4135
24.0994
23.7733
23.4382
23.0962
22.749
22.3972
22.0405
21.678
21.3076
20.9264
20.5315
20.1212
19.695
19.2534
18.7981
18.3316
17.857
17.3779
16.8967
16.4152
15.9337
15.4516
14.9669
14.4768
13.9768
13.4629
12.9324
12.3841
11.8187
11.2378
10.6452
10.0452
9.44377
8.84561
8.25509
7.6752
7.10853
6.55644
6.01972
5.49801
4.99205
4.50563
4.04438
3.617
3.23425
2.90126
16.8971
18.1013
19.1897
20.1404
20.9635
21.6767
22.3005
22.8523
23.3499
23.8078
24.2343
24.6355
25.0132
25.3693
25.7021
26.0103
26.29
26.5397
26.7582
26.9458
27.103
27.2311
27.3314
27.4054
27.4546
27.4794
27.4802
27.4575
27.4116
27.3437
27.2553
27.1487
27.0254
26.8873
26.7352
26.57
26.3914
26.1987
25.9887
25.7582
25.5065
25.2327
24.9385
24.625
24.296
23.9545
23.6063
23.2539
22.9002
22.545
22.1891
21.8302
21.4661
21.0908
20.6981
20.2864
19.8539
19.4026
18.9337
18.4518
17.961
17.4684
16.9771
16.4902
16.0071
15.528
15.0497
14.5685
14.0762
13.5643
13.0297
12.4696
11.8858
11.2792
10.6557
10.0207
9.38482
8.75338
8.13295
7.52538
6.9347
6.3609
5.805
5.26185
4.72829
4.21057
3.71397
3.25223
2.85298
2.52631
16.8828
18.4173
19.6883
20.7149
21.56
22.2612
22.8592
23.3736
23.8343
24.2658
24.672
25.0627
25.4341
25.7919
26.1285
26.4455
26.7294
26.9818
27.1979
27.3814
27.5314
27.6513
27.7418
27.806
27.8465
27.8629
27.8549
27.8225
27.7651
27.685
27.5822
27.463
27.3275
27.1802
27.0199
26.8506
26.6699
26.4803
26.2733
26.0403
25.7834
25.4984
25.1913
24.8586
24.5101
24.145
23.78
23.4132
23.0529
22.6937
22.3414
21.9895
21.6405
21.2796
20.892
20.481
20.0397
19.577
19.0875
18.5848
18.0672
17.5569
17.0508
16.5593
16.0745
15.6031
15.1362
14.6762
14.2036
13.6982
13.1633
12.5891
11.9856
11.3446
10.6828
9.99731
9.31928
8.64518
7.99213
7.35113
6.73646
6.13946
5.57181
5.01181
4.44163
3.88502
3.33329
2.79743
2.36714
2.05644
17.1076
19.1125
20.5387
21.5505
22.3634
22.9939
23.5381
23.9719
24.3602
24.76
25.1316
25.5173
25.874
26.2448
26.5829
26.9277
27.2139
27.4758
27.6839
27.8651
28.0027
28.1136
28.1896
28.2405
28.2728
28.2811
28.2641
28.2232
28.151
28.0583
27.9323
27.8006
27.646
27.4916
27.317
27.147
26.961
26.7864
26.595
26.3562
26.1006
25.7956
25.4807
25.1144
24.7477
24.3351
23.9559
23.5626
23.2037
22.8323
22.4928
22.1443
21.8317
21.5066
21.1194
20.7189
20.256
19.7896
19.2599
18.7389
18.1627
17.6391
17.1034
16.6186
16.1222
15.6716
15.2124
14.8021
14.3777
13.8744
13.3535
12.7505
12.1394
11.4398
10.7437
9.9631
9.24793
8.50657
7.83385
7.13886
6.51268
5.87568
5.32753
4.77637
4.13537
3.55241
2.9297
2.19058
1.70905
1.44542
18.4585
20.6407
21.9855
22.6723
23.4294
23.8506
24.3756
24.6353
24.8691
25.2947
25.5705
26.0133
26.293
26.7447
27.0271
27.4937
27.7333
28.0465
28.2083
28.4113
28.5121
28.6255
28.6731
28.7012
28.7331
28.7355
28.7074
28.6685
28.5661
28.4791
28.2902
28.1709
27.9638
27.8317
27.6068
27.4662
27.2352
27.1165
26.9843
26.696
26.4884
26.1066
25.8436
25.3702
25.0512
24.4765
24.1515
23.6624
23.372
22.9245
22.6569
22.2472
22.0404
21.8226
21.3658
21.0464
20.477
20.0932
19.4195
18.9723
18.182
17.7386
17.0821
16.6943
16.104
15.752
15.218
14.9482
14.6655
14.0755
13.6617
12.9234
12.4205
11.5298
10.926
9.83455
9.21415
8.26897
7.70754
6.82738
6.30439
5.48387
5.08751
4.67023
3.74546
3.27699
2.69368
1.21276
0.737174
0.610515
3.96648
3.59546
3.24476
2.91334
2.59995
2.30313
2.02131
1.75284
1.49605
1.24929
1.01091
0.779324
0.552962
0.330304
0.109857
3.9454
3.57509
3.22541
2.89528
2.58334
2.2881
2.00793
1.74113
1.48601
1.24088
1.00411
0.774085
0.54925
0.328089
0.10912
3.90286
3.53405
3.18648
2.85896
2.55
2.25797
1.98113
1.71771
1.46594
1.22411
0.990547
0.763644
0.541854
0.323678
0.107654
3.83815
3.4717
3.12746
2.80403
2.49969
2.21262
1.94089
1.68261
1.43592
1.19905
0.970307
0.748079
0.530836
0.317109
0.105472
3.75012
3.38707
3.0476
2.72995
2.43209
2.15188
1.88718
1.63589
1.39607
1.16585
0.943534
0.727517
0.516295
0.308445
0.102594
3.63714
3.27883
2.94588
2.63604
2.3468
2.07562
1.82001
1.5777
1.34657
1.12473
0.910448
0.702148
0.498377
0.297776
0.0990516
3.497
3.14516
2.821
2.52149
2.24343
1.98373
1.73953
1.50829
1.28777
1.07604
0.871366
0.672238
0.47728
0.285226
0.0948866
3.32671
2.98379
2.67142
2.38544
2.12167
1.87631
1.64606
1.42813
1.22018
1.02026
0.826728
0.63815
0.453272
0.270959
0.0901536
3.12226
2.79181
2.49542
2.22714
1.98147
1.75376
1.54025
1.33796
1.14453
0.958091
0.777121
0.600351
0.426693
0.255178
0.0849213
2.87825
2.56574
2.29127
2.04619
1.82328
1.61699
1.42321
1.23891
1.06187
0.890437
0.723302
0.559433
0.397962
0.238137
0.0792735
2.58728
2.30158
2.0577
1.84304
1.64845
1.46769
1.29665
1.13257
0.973607
0.818467
0.666207
0.516106
0.36758
0.22013
0.073308
2.23944
1.99556
1.79487
1.6198
1.45975
1.30867
1.16311
1.0211
0.881503
0.743603
0.606943
0.471198
0.336117
0.201493
0.067135
1.82249
1.64633
1.50641
1.3815
1.26207
1.1441
1.02599
0.907213
0.787687
0.667489
0.546755
0.425617
0.304194
0.182586
0.060873
1.32643
1.26085
1.20291
1.13769
1.06292
0.979644
0.889518
0.794063
0.694529
0.591903
0.486961
0.380314
0.272452
0.16378
0.0546436
0.766137
0.867717
0.906654
0.90342
0.872257
0.82203
0.758363
0.68498
0.604453
0.518625
0.428865
0.336219
0.241516
0.145436
0.0485645
9.92717
9.78112
9.63393
9.48468
9.3323
9.17534
9.01184
8.8389
8.65208
8.44398
8.20102
7.89419
7.448
6.61266
4.35603
9.90323
9.70879
9.51163
9.30964
9.10027
8.88021
8.6449
8.38769
8.09836
7.76015
7.3434
6.79095
5.98237
4.64681
2.19217
9.8799
9.63835
9.39267
9.1397
8.87565
8.59566
8.29314
7.95875
7.57856
7.13082
6.57998
5.86554
4.88268
3.45805
1.36837
9.8575
9.57078
9.27876
8.97744
8.66209
8.32673
7.9635
7.5616
7.10564
6.57306
5.93016
5.12648
4.08973
2.73113
0.993913
9.8363
9.50689
9.17129
8.82492
8.4624
8.07714
7.66071
7.20197
6.68589
6.09189
5.39196
4.54927
3.52026
2.26712
0.793484
9.8165
9.44728
9.0713
8.6836
8.27849
7.84918
7.38727
6.88214
6.32023
5.68428
4.95288
4.10144
3.10641
1.95623
0.671751
9.79823
9.39236
8.97944
8.55436
8.11139
7.64385
7.14383
6.60173
6.00599
5.34291
4.59713
3.75332
2.80028
1.7386
0.591003
9.78156
9.34235
8.89603
8.43754
7.96132
7.46108
6.9296
6.35856
5.73849
5.05897
4.30946
3.48103
2.56959
1.58063
0.534147
9.76652
9.29726
8.82106
8.33303
7.82793
7.29999
6.74282
6.14943
5.51225
4.82363
4.07658
3.26637
2.39273
1.46261
0.492433
9.75306
9.25699
8.7543
8.24038
7.7104
7.15918
6.58121
5.97069
5.32174
4.62884
3.88756
3.09577
2.25507
1.37241
0.460918
9.74113
9.22132
8.69532
8.15888
7.6076
7.03693
6.44218
5.81862
5.16174
4.46763
3.73362
2.95911
2.14654
1.30222
0.436586
9.73062
9.18996
8.6436
8.08767
7.51827
6.93141
6.32316
5.6897
5.02759
4.33413
3.6078
2.84889
2.06007
1.24683
0.41749
9.72143
9.16255
8.59851
8.02582
7.44104
6.84075
6.22164
5.58066
4.91521
4.22344
3.5046
2.75943
1.99054
1.20262
0.402309
9.71343
9.13874
8.55941
7.97237
7.37459
6.76315
6.13529
5.4886
4.8211
4.13156
3.41968
2.68643
1.93423
1.16701
0.390118
9.70651
9.11815
8.52567
7.92637
7.31762
6.69693
6.06204
5.41098
4.7423
4.05517
3.3496
2.6266
1.88834
1.13812
0.38025
9.70055
9.10042
8.49667
7.88693
7.26894
6.64059
5.99999
5.34561
4.67632
3.99159
3.29161
2.57737
1.85076
1.11454
0.37221
9.69542
9.08521
8.47182
7.85322
7.22745
6.59274
5.94753
5.29057
4.62104
3.9386
3.24352
2.53672
1.81984
1.09519
0.365625
9.69104
9.0722
8.4506
7.82448
7.19217
6.55218
5.90321
5.24427
4.57473
3.8944
3.20356
2.50307
1.79433
1.07926
0.360208
9.6873
9.0611
8.43252
7.80003
7.16223
6.51784
5.86581
5.20533
4.53592
3.85748
3.1703
2.47514
1.77321
1.0661
0.355736
9.68411
9.05165
8.41714
7.77928
7.13686
6.48882
5.83428
5.17259
4.50339
3.82662
3.14258
2.45193
1.75569
1.05519
0.352033
9.68141
9.04363
8.40409
7.76169
7.11539
6.46431
5.80771
5.14507
4.47611
3.80081
3.11944
2.43259
1.74112
1.04614
0.34896
9.67911
9.03683
8.39304
7.7468
7.09725
6.44363
5.78533
5.12194
4.45323
3.7792
3.10012
2.41647
1.72899
1.0386
0.346405
9.67717
9.03107
8.38368
7.73422
7.08193
6.42619
5.7665
5.1025
4.43403
3.76111
3.08396
2.40301
1.71887
1.03232
0.344277
9.67552
9.02619
8.37578
7.72359
7.069
6.4115
5.75065
5.08617
4.41793
3.74596
3.07044
2.39176
1.71042
1.02708
0.342502
9.67413
9.02208
8.3691
7.71462
7.05811
6.39913
5.73732
5.07245
4.40442
3.73326
3.05913
2.38235
1.70337
1.02271
0.341021
9.67296
9.01861
8.36347
7.70706
7.04893
6.38871
5.72611
5.06093
4.39308
3.72261
3.04966
2.37448
1.69746
1.01906
0.339783
9.67197
9.01568
8.35873
7.7007
7.04121
6.37996
5.71669
5.05125
4.38358
3.71369
3.04172
2.3679
1.69253
1.016
0.338748
9.67114
9.01322
8.35474
7.69534
7.03471
6.3726
5.70878
5.04313
4.3756
3.70621
3.03508
2.36239
1.6884
1.01344
0.337882
9.67044
9.01114
8.35138
7.69084
7.02926
6.36641
5.70214
5.03632
4.36891
3.69995
3.02951
2.35777
1.68494
1.0113
0.337158
9.66985
9.0094
8.34856
7.68705
7.02467
6.36123
5.69657
5.03061
4.36331
3.6947
3.02485
2.35391
1.68205
1.00952
0.336553
9.66935
9.00794
8.34619
7.68388
7.02083
6.35688
5.6919
5.02583
4.35862
3.69031
3.02096
2.35068
1.67964
1.00802
0.336047
9.66894
9.00672
8.34421
7.68123
7.01761
6.35324
5.688
5.02183
4.35471
3.68664
3.01771
2.34799
1.67762
1.00677
0.335625
9.66859
9.00569
8.34255
7.67901
7.01493
6.3502
5.68474
5.01849
4.35144
3.68359
3.01499
2.34574
1.67594
1.00573
0.335274
9.6683
9.00484
8.34117
7.67716
7.01269
6.34768
5.68203
5.01572
4.34872
3.68104
3.01274
2.34388
1.67455
1.00487
0.334981
9.66807
9.00414
8.34003
7.67563
7.01084
6.34558
5.67979
5.01342
4.34647
3.67894
3.01087
2.34233
1.67339
1.00416
0.33474
9.66787
9.00356
8.33909
7.67437
7.00932
6.34386
5.67794
5.01153
4.34462
3.67721
3.00934
2.34106
1.67244
1.00357
0.334541
9.66771
9.00308
8.33832
7.67334
7.00807
6.34245
5.67643
5.00999
4.34311
3.6758
3.00809
2.34003
1.67167
1.00309
0.334379
9.66758
9.0027
8.3377
7.67252
7.00707
6.34132
5.67522
5.00875
4.3419
3.67467
3.00709
2.3392
1.67105
1.00271
0.334249
9.66748
9.0024
8.33722
7.67187
7.00629
6.34044
5.67427
5.00778
4.34094
3.67378
3.0063
2.33854
1.67056
1.00241
0.334147
9.6674
9.00217
8.33685
7.67138
7.0057
6.33977
5.67355
5.00704
4.34022
3.6731
3.0057
2.33805
1.67019
1.00218
0.33407
9.66735
9.00201
8.33659
7.67103
7.00527
6.33929
5.67304
5.00652
4.33971
3.67263
3.00528
2.3377
1.66993
1.00202
0.334015
9.66731
9.00191
8.33643
7.67081
7.00501
6.33899
5.67273
5.0062
4.3394
3.67233
3.00501
2.33748
1.66977
1.00192
0.333981
9.6673
9.00187
8.33636
7.67072
7.0049
6.33887
5.67259
5.00606
4.33926
3.6722
3.0049
2.33739
1.6697
1.00187
0.333967
9.6673
9.00189
8.33639
7.67075
7.00494
6.33891
5.67264
5.00611
4.33931
3.67225
3.00494
2.33742
1.66972
1.00189
0.333972
9.66733
9.00196
8.3365
7.67091
7.00513
6.33912
5.67287
5.00634
4.33954
3.67246
3.00513
2.33758
1.66984
1.00196
0.333996
9.66737
9.00209
8.33671
7.67119
7.00547
6.33951
5.67328
5.00676
4.33995
3.67285
3.00548
2.33786
1.67005
1.00209
0.334041
9.66744
9.00228
8.33703
7.67161
7.00598
6.34009
5.6739
5.0074
4.34057
3.67342
3.00599
2.33828
1.67037
1.00229
0.334107
9.66753
9.00255
8.33745
7.67218
7.00667
6.34087
5.67473
5.00825
4.3414
3.67421
3.00668
2.33886
1.6708
1.00255
0.334197
9.66764
9.00289
8.33801
7.67292
7.00756
6.34187
5.67581
5.00935
4.34249
3.67522
3.00757
2.3396
1.67135
1.00289
0.334312
9.66779
9.00332
8.3387
7.67385
7.00868
6.34314
5.67717
5.01074
4.34385
3.67649
3.0087
2.34053
1.67205
1.00332
0.334458
9.66797
9.00384
8.33955
7.67499
7.01007
6.34471
5.67885
5.01246
4.34552
3.67806
3.01009
2.34168
1.67291
1.00386
0.334638
9.66818
9.00449
8.34059
7.67639
7.01176
6.34661
5.68089
5.01455
4.34757
3.67997
3.01179
2.34309
1.67396
1.00451
0.334858
9.66845
9.00527
8.34186
7.67808
7.0138
6.34892
5.68337
5.01709
4.35005
3.68229
3.01384
2.34479
1.67523
1.00529
0.335124
9.66876
9.0062
8.34337
7.68011
7.01626
6.35171
5.68635
5.02014
4.35304
3.68509
3.01632
2.34684
1.67676
1.00624
0.335445
9.66915
9.00733
8.34519
7.68255
7.01921
6.35504
5.68993
5.0238
4.35663
3.68844
3.0193
2.34931
1.67861
1.00738
0.335831
9.6696
9.00867
8.34737
7.68546
7.02274
6.35904
5.69421
5.02819
4.36093
3.69247
3.02287
2.35226
1.68082
1.00875
0.336293
9.67014
9.01028
8.34997
7.68894
7.02696
6.3638
5.69933
5.03343
4.36607
3.69727
3.02713
2.35579
1.68346
1.01038
0.336847
9.67079
9.01219
8.35306
7.69309
7.03198
6.36949
5.70543
5.03968
4.3722
3.70302
3.03223
2.36002
1.68662
1.01234
0.337509
9.67156
9.01446
8.35675
7.69803
7.03797
6.37627
5.71271
5.04714
4.37952
3.70987
3.03831
2.36506
1.6904
1.01468
0.3383
9.67247
9.01717
8.36113
7.70391
7.04509
6.38433
5.72137
5.05603
4.38825
3.71805
3.04558
2.37109
1.69491
1.01747
0.339245
9.67356
9.02038
8.36633
7.71089
7.05355
6.39393
5.73168
5.06662
4.39865
3.7278
3.05425
2.37828
1.7003
1.0208
0.340374
9.67484
9.02419
8.37251
7.71918
7.06362
6.40534
5.74396
5.07923
4.41104
3.73943
3.06459
2.38687
1.70674
1.02479
0.341724
9.67637
9.02871
8.37984
7.72902
7.07556
6.41889
5.75856
5.09424
4.42581
3.75331
3.07694
2.39713
1.71443
1.02956
0.343339
9.67818
9.03406
8.38852
7.74069
7.08974
6.435
5.77592
5.11211
4.44342
3.76986
3.09169
2.40939
1.72363
1.03526
0.345271
9.68032
9.04039
8.39881
7.75451
7.10656
6.45412
5.79655
5.13338
4.46439
3.78961
3.10931
2.42406
1.73465
1.04209
0.347586
9.68285
9.04788
8.41097
7.77088
7.12649
6.47681
5.82107
5.15869
4.48939
3.81318
3.13037
2.44161
1.74784
1.05028
0.350363
9.68583
9.05672
8.42534
7.79023
7.15008
6.50371
5.85019
5.18881
4.5192
3.84133
3.15556
2.46263
1.76367
1.06011
0.353697
9.68934
9.06714
8.44229
7.81309
7.17799
6.53559
5.88476
5.22463
4.55473
3.87497
3.18573
2.48785
1.78268
1.07194
0.357707
9.69348
9.0794
8.46225
7.84005
7.21095
6.57333
5.92578
5.26725
4.59711
3.91519
3.22188
2.51815
1.80555
1.08618
0.362543
9.69833
9.09381
8.48572
7.87179
7.24985
6.61795
5.97442
5.31794
4.64766
3.96331
3.26526
2.5546
1.83313
1.10337
0.368386
9.70402
9.11068
8.51325
7.90908
7.29566
6.67066
6.03205
5.3782
4.70799
4.02095
3.31741
2.59854
1.86647
1.1242
0.375469
9.71065
9.13039
8.54545
7.9528
7.3495
6.7328
6.10026
5.44982
4.78
4.09006
3.38019
2.65165
1.90689
1.1495
0.384087
9.71837
9.15334
8.58302
8.00391
7.41264
6.80596
6.1809
5.53489
4.86597
4.173
3.45593
2.71602
1.95607
1.18038
0.394619
9.72732
9.17997
8.62668
8.06348
7.48647
6.89187
6.27607
5.63587
4.96864
4.27268
3.54751
2.79432
2.01619
1.21826
0.407561
9.73765
9.21073
8.67721
8.13262
7.57253
6.99249
6.38819
5.75561
5.09127
4.39262
3.65856
2.88993
2.09004
1.26501
0.423574
9.7495
9.24609
8.73541
8.21254
7.67243
7.10995
6.51995
5.8974
5.2377
4.53716
3.79361
3.00723
2.18136
1.32315
0.443551
9.76303
9.28649
8.80208
8.30441
7.78786
7.24653
6.67431
6.06498
5.4125
4.71156
3.9584
3.15194
2.29513
1.39614
0.468736
9.77837
9.33235
8.87796
8.4094
7.92048
7.40454
6.85443
6.2625
5.62093
4.92222
4.16019
3.33161
2.4382
1.48886
0.500914
9.79562
9.384
8.96369
8.52852
8.07185
7.58628
7.06357
6.4945
5.86905
5.17682
4.4082
3.55629
2.6201
1.60837
0.542733
9.81487
9.4417
9.05971
8.66257
8.24327
7.79381
7.30488
6.76564
6.16351
5.48448
4.71402
3.83949
2.85446
1.76531
0.598322
9.83612
9.50552
9.16625
8.81201
8.43563
8.02872
7.58113
7.08043
6.51137
5.8556
5.09211
4.19942
3.1611
1.9763
0.674502
9.85934
9.57536
9.28319
8.9768
8.64918
8.29188
7.89425
7.44268
6.91943
6.30151
5.5599
4.66047
3.56946
2.26853
0.783461
9.88442
9.65087
9.41
9.15632
8.88334
8.58301
8.24482
7.85469
7.39321
6.83329
6.13727
5.25454
4.12359
2.68861
0.94926
9.91114
9.73146
9.54569
9.34922
9.13649
8.9004
8.63143
8.31622
7.93531
7.45956
6.84428
6.02097
4.88882
3.32005
1.22559
9.93924
9.81627
9.6888
9.5534
9.40584
9.24062
9.05014
8.82333
8.54326
8.18269
7.69572
7.00182
5.95723
4.31653
1.74963
9.96835
9.90419
9.83742
9.766
9.68743
9.59835
9.49405
9.36741
9.20707
8.99356
8.69083
8.22617
7.43957
5.95616
2.92114
9.99804
9.99393
9.98925
9.98356
9.97628
9.96663
9.95343
9.93486
9.90777
9.86633
9.79834
9.67403
9.40575
8.67328
6.0421
10.0278
10.084
10.1418
10.2022
10.2668
10.3373
10.4165
10.5082
10.6184
10.7575
10.9449
11.2218
11.6942
12.7089
15.7276
10.0573
10.1731
10.2924
10.418
10.5531
10.702
10.8709
11.0686
11.3089
11.6151
12.0292
12.6338
13.606
15.3526
18.7869
10.086
10.2597
10.4387
10.627
10.8297
11.0529
11.3053
11.5993
11.9535
12.3977
12.9812
13.7904
14.98
16.8243
19.7575
0.315029
0.564754
0.673734
0.714264
0.714946
0.689858
0.647034
0.591527
0.526733
0.455051
0.37825
0.297681
0.214416
0.129343
0.0432276
0.169049
0.387067
0.509517
0.569968
0.589824
0.58201
0.554628
0.513014
0.460856
0.400807
0.334849
0.264515
0.191035
0.115435
0.0386117
0.106455
0.275742
0.388349
0.453859
0.48391
0.487747
0.472098
0.441818
0.400454
0.350662
0.294483
0.233531
0.169123
0.102376
0.0342732
0.074153
0.203775
0.299883
0.362369
0.396197
0.407009
0.399725
0.378313
0.3459
0.304949
0.257429
0.204944
0.148835
0.0902564
0.0302425
0.0548253
0.155081
0.234761
0.290775
0.324464
0.338832
0.337159
0.322446
0.297271
0.263794
0.22382
0.178873
0.13026
0.0791329
0.0265385
0.0420212
0.120675
0.186073
0.234683
0.266145
0.281793
0.283643
0.27384
0.254404
0.227148
0.193663
0.155345
0.113429
0.0690278
0.0231694
0.0329588
0.0954716
0.14904
0.190497
0.218804
0.234332
0.238218
0.231921
0.216966
0.194825
0.16686
0.134314
0.0983222
0.0599341
0.0201335
0.0262606
0.0764794
0.120415
0.155442
0.180334
0.194954
0.199863
0.19601
0.184517
0.166545
0.143236
0.115673
0.0848791
0.0518206
0.0174215
0.021161
0.0618496
0.0979766
0.127423
0.148997
0.162317
0.16759
0.165404
0.156563
0.141971
0.122565
0.0992756
0.0730075
0.0446375
0.0150174
0.0171957
0.0503867
0.0801765
0.104868
0.123391
0.135267
0.140495
0.139418
0.132601
0.120738
0.10459
0.0849453
0.0625947
0.0383221
0.0129013
0.0140636
0.0412854
0.065916
0.0865967
0.102399
0.112831
0.117777
0.117417
0.112142
0.102479
0.0890421
0.0724933
0.0535161
0.0328035
0.0110501
0.01156
0.0339831
0.0543977
0.0717119
0.0851364
0.0942036
0.0987427
0.0988293
0.0947278
0.0868388
0.0756546
0.0617267
0.0456421
0.0280074
0.00943961
0.0095401
0.0280754
0.0450317
0.0595276
0.0708983
0.0787196
0.0827992
0.0831484
0.0799433
0.0734863
0.0641716
0.0524573
0.038844
0.0238589
0.00804531
0.0078985
0.023264
0.0373738
0.049513
0.0591245
0.065833
0.0694455
0.069935
0.0674163
0.0621175
0.0543543
0.0445062
0.0329981
0.0202855
0.00684329
0.00655651
0.0193242
0.0310841
0.0412531
0.049366
0.0550958
0.0582596
0.0588099
0.056819
0.0524595
0.0459843
0.0377073
0.0279883
0.0172187
0.00581089
0.00545425
0.0160841
0.0258988
0.0344208
0.0412617
0.04614
0.0488881
0.0494488
0.0478659
0.0442703
0.0388649
0.0319095
0.0237078
0.0145948
0.00492703
0.00454545
0.0134099
0.0216108
0.0287556
0.0345199
0.0386631
0.041035
0.0415758
0.0403101
0.0373375
0.0328214
0.0269769
0.0200598
0.0123561
0.00417246
0.00379383
0.0111965
0.018056
0.0240486
0.0289036
0.0324159
0.0344531
0.0349568
0.0339392
0.0314763
0.0277
0.0227888
0.0169578
0.0104505
0.00352987
0.00317066
0.00936006
0.0151029
0.0201315
0.0242193
0.0271926
0.0289358
0.029394
0.0285715
0.0265267
0.0233666
0.0192391
0.0143253
0.00883196
0.00298381
0.00265297
0.00783364
0.0126458
0.0168673
0.0203089
0.0228232
0.0243104
0.0247204
0.0240522
0.0223514
0.0197048
0.0162352
0.0120951
0.00745971
0.00252067
0.00222223
0.00656305
0.0105987
0.0141446
0.0170422
0.0191669
0.0204328
0.0207951
0.0202499
0.0188326
0.0166142
0.0136968
0.0102087
0.00629824
0.00212854
0.00186342
0.00550427
0.00889174
0.0118719
0.014312
0.0161068
0.0171826
0.0174998
0.017053
0.0158699
0.0140088
0.0115547
0.00861549
0.00531673
0.00179708
0.00156432
0.0046214
0.0074675
0.00997408
0.0120298
0.0135458
0.0144591
0.0147349
0.0143672
0.013378
0.011815
0.00974942
0.00727183
0.00448857
0.00151733
0.0013149
0.00388499
0.00627896
0.00838925
0.0101224
0.0114031
0.012178
0.0124166
0.0121129
0.0112843
0.00997019
0.0082301
0.00614036
0.00379091
0.00128162
0.00110694
0.00327085
0.00528735
0.00706625
0.00852889
0.00961175
0.0102692
0.0104749
0.0102231
0.00952753
0.00842109
0.00695352
0.00518918
0.00320421
0.00108336
0.000933651
0.00275904
0.0044607
0.0059628
0.00719906
0.00811571
0.00867385
0.00885089
0.0086412
0.00805605
0.0071227
0.00588295
0.00439115
0.00271183
0.000916954
0.000789467
0.00233311
0.00377257
0.00504391
0.00609109
0.00686855
0.00734311
0.00749531
0.00731998
0.00682629
0.006037
0.00498734
0.00372331
0.00229967
0.000777639
0.000669779
0.00197951
0.00320117
0.00428062
0.00517037
0.00583167
0.00623616
0.00636709
0.00621978
0.00580172
0.00513205
0.00424055
0.00316627
0.00195582