/*--------------------------------*- C++ -*----------------------------------*\
| =========                 |                                                 |
| \\      /  F ield         | OpenFOAM: The Open Source CFD Toolbox           |
|  \\    /   O peration     | Version:  5.x                                   |
|   \\  /    A nd           | Web:      www.OpenFOAM.org                      |
|    \\/     M anipulation  |                                                 |
\*---------------------------------------------------------------------------*/
FoamFile
{
    version     2.0;
    format      ascii;
    class       volScalarField;
    location    "15.6";
    object      gradTy;
}
// * * * * * * * * * * * * * * * * * * * * * * * * * * * * * * * * * * * * * //

dimensions      [0 -1 0 1 0 0 0];

internalField   nonuniform List<scalar> 
6300
(
999.114
997.476
996.233
995.645
995.961
997.415
1000.22
1004.57
1010.61
1018.45
1028.14
1039.68
1052.99
1067.93
1084.3
-0.198827
-0.593924
-0.981089
-1.35415
-1.70569
-2.02669
-2.3064
-2.53252
-2.6918
-2.7712
-2.75955
-2.64974
-2.44084
-2.13985
-1.7621
-0.334228
-0.99872
-1.65086
-2.28089
-2.8768
-3.42372
-3.90354
-4.29509
-4.57501
-4.71966
-4.7081
-4.52604
-4.17013
-3.65152
-2.99715
-0.473581
-1.41585
-2.34275
-3.24173
-4.09689
-4.88784
-5.58896
-6.16929
-6.59349
-6.82434
-6.82717
-6.5762
-6.06212
-5.29894
-4.3274
-0.617825
-1.84834
-3.06253
-4.24636
-5.38115
-6.44175
-7.39513
-8.19957
-8.80526
-9.15698
-9.19998
-8.88943
-8.20314
-7.15464
-5.8014
-0.767203
-2.29717
-3.81266
-5.30003
-6.73958
-8.10287
-9.35021
-10.4286
-11.271
-11.7983
-11.9263
-11.5784
-10.7064
-9.31507
-7.48169
-0.921009
-2.76046
-4.59087
-6.4015
-8.17422
-9.87988
-11.4742
-12.8935
-14.0516
-14.839
-15.1284
-14.7913
-13.7288
-11.9175
-9.45418
-1.07737
-3.23279
-5.38882
-7.54082
-9.67588
-11.7682
-13.773
-15.6196
-17.203
-18.3775
-18.957
-18.7294
-17.5001
-15.1717
-11.8472
-1.23303
-3.70449
-6.19078
-8.69704
-11.2202
-13.7439
-16.2301
-18.6088
-20.763
-22.511
-23.5924
-23.669
-22.3705
-19.4218
-14.8701
-1.38329
-4.16133
-6.97274
-9.83625
-12.7641
-15.7569
-18.7946
-21.8226
-24.7289
-27.311
-29.2325
-29.9837
-28.8908
-25.2748
-18.9058
-1.52211
-4.58478
-7.70256
-10.911
-14.243
-17.7248
-21.3686
-25.1578
-29.0189
-32.7714
-36.0426
-38.1424
-37.934
-33.8808
-24.7634
-1.64245
-4.95308
-8.34162
-11.8623
-15.5721
-19.5307
-23.7972
-28.4209
-33.4173
-38.7128
-44.024
-48.609
-50.8218
-47.551
-34.5022
-1.73704
-5.24343
-8.84853
-12.6243
-16.6522
-21.0284
-25.8684
-31.3111
-37.5162
-44.6384
-52.7313
-61.4475
-69.1929
-70.9991
-54.598
-1.79932
-5.43504
-9.18475
-13.1339
-17.384
-22.0623
-27.3368
-33.4388
-40.6977
-49.593
-60.8148
-75.2565
-93.5029
-112.654
-109.917
-1.8245
-5.51264
-9.32142
-13.3426
-17.6874
-22.4997
-27.9774
-34.4092
-42.2427
-52.2208
-65.678
-85.2603
-116.907
-176.197
-312.253
1100.38
1115.63
1131.32
1147.29
1163.36
1179.35
1195.11
1210.52
1225.45
1239.81
1253.5
1266.47
1278.65
1290
1300.5
1310.11
1318.82
1326.6
1333.47
1339.4
1344.4
1348.47
1351.62
1353.86
1355.19
1355.62
1355.17
1353.84
1351.66
1348.63
1344.77
1340.09
1334.62
1328.35
1321.32
1313.52
1304.97
1295.7
1285.7
1274.99
1263.59
1251.51
1238.76
1225.37
1211.33
1196.68
1181.42
1165.57
1149.14
1132.14
1114.59
1096.49
1077.86
1058.71
1039.04
1018.88
998.229
977.107
955.529
933.512
911.075
888.237
865.017
841.438
817.52
793.286
768.76
743.967
718.938
693.703
668.3
642.769
617.156
591.513
565.896
540.365
514.985
489.821
464.943
440.417
416.311
392.691
369.618
347.15
325.338
304.229
283.858
264.255
245.438
227.417
-1.36601
-0.985062
-0.59887
-0.2218
0.134224
0.460421
0.75133
1.00455
1.22022
1.40031
1.54799
1.66702
1.76127
1.83447
1.88993
1.93053
1.95867
1.97633
1.98512
1.98638
1.98121
1.97055
1.9552
1.93587
1.91322
1.88785
1.8603
1.83113
1.80086
1.76998
1.73892
1.70807
1.6777
1.64797
1.61888
1.59031
1.56203
1.53372
1.50505
1.47574
1.44562
1.41467
1.38308
1.35118
1.31945
1.28841
1.25855
1.23026
1.20369
1.17875
1.15508
1.13209
1.10901
1.08498
1.05921
1.03106
1.00011
0.966229
0.929536
0.890347
0.849066
0.806046
0.761457
0.715164
0.66665
0.615004
0.558961
0.497021
0.427603
0.349242
0.26078
0.161529
0.0513874
-0.0691112
-0.198819
-0.336051
-0.478711
-0.624423
-0.770674
-0.914906
-1.05458
-1.1872
-1.31028
-1.42134
-1.51795
-1.59771
-1.65848
-1.6985
-1.71665
-1.71263
-2.31008
-1.65026
-0.983687
-0.336211
0.271186
0.823588
1.3123
1.73417
2.09049
2.38563
2.62578
2.81796
2.96914
3.08582
3.17367
3.23748
3.28121
3.30805
3.32058
3.3209
3.31079
3.29172
3.26499
3.23175
3.19305
3.14985
3.10307
3.05363
3.0024
2.95021
2.89786
2.846
2.79515
2.74556
2.69728
2.65005
2.60342
2.55676
2.50942
2.46084
2.41065
2.3588
2.3056
2.25168
2.19796
2.14544
2.0951
2.04768
2.00354
1.96255
1.92407
1.88698
1.84984
1.81106
1.76915
1.72288
1.67152
1.61486
1.55321
1.48726
1.4179
1.34594
1.27185
1.19552
1.11612
1.03206
0.941045
0.840324
0.726959
0.598201
0.451856
0.286598
0.102179
-0.100482
-0.319346
-0.551413
-0.792964
-1.03983
-1.28767
-1.53211
-1.7689
-1.99389
-2.20298
-2.39201
-2.5568
-2.69318
-2.79723
-2.86571
-2.89644
-2.88877
-3.30495
-2.32532
-1.34116
-0.393076
0.487164
1.27829
1.96931
2.55799
3.04865
3.44987
3.77243
4.02767
4.22645
4.37842
4.49174
4.5731
4.62781
4.6601
4.67332
4.67018
4.65297
4.62363
4.58387
4.53522
4.47906
4.4167
4.34941
4.27842
4.20501
4.1304
4.05579
3.98221
3.91047
3.84101
3.77387
3.70865
3.64456
3.5805
3.51532
3.44798
3.37779
3.30461
3.22888
3.15166
3.07448
2.99909
2.92719
2.86014
2.79861
2.74251
2.69081
2.64171
2.5928
2.54145
2.48512
2.42182
2.35036
2.27048
2.18287
2.08889
1.99029
1.88872
1.78528
1.68011
1.57214
1.45895
1.33695
1.20168
1.04833
0.872344
0.670035
0.439133
0.179121
-0.108634
-0.420968
-0.753218
-1.09965
-1.45394
-1.80963
-2.16041
-2.50029
-2.82356
-3.12459
-3.39763
-3.63662
-3.83523
-3.98726
-4.08729
-4.13156
-4.11872
-4.37185
-3.00671
-1.64652
-0.352052
0.831676
1.87735
2.7739
3.52316
4.13583
4.62762
5.0162
5.31891
5.55139
5.72688
5.85607
5.9473
6.00694
6.03986
6.04984
6.03998
6.01287
5.97081
5.91582
5.84974
5.77425
5.69093
5.60131
5.50699
5.4096
5.31087
5.2125
5.11605
5.02277
4.93339
4.84798
4.76591
4.6859
4.60612
4.5246
4.43948
4.34953
4.25434
4.15456
4.05184
3.94867
3.84795
3.75257
3.66487
3.58613
3.51635
3.45404
3.39637
3.33953
3.27921
3.21135
3.13274
3.04152
2.93746
2.82188
2.69737
2.56714
2.43438
2.30138
2.16893
2.03583
1.89869
1.75212
1.58924
1.40247
1.18454
0.929531
0.633729
0.296148
-0.0812574
-0.493782
-0.934475
-1.39489
-1.86592
-2.33854
-2.80428
-3.25549
-3.68514
-4.08642
-4.4522
-4.77447
-5.04426
-5.25208
-5.38911
-5.44883
-5.42861
-5.53315
-3.68098
-1.85721
-0.151542
1.37504
2.69121
3.79068
4.68514
5.39715
5.95408
6.38372
6.71137
6.95847
7.14208
7.27514
7.36708
7.42465
7.45272
7.45504
7.4347
7.39442
7.3367
7.26385
7.17793
7.08084
6.97433
6.86012
6.74008
6.61625
6.49093
6.36656
6.24547
6.1296
6.02017
5.91739
5.82036
5.72702
5.63442
5.53917
5.4381
5.32894
5.21082
5.0846
4.95283
4.81946
4.68926
4.56705
4.45681
4.3609
4.27957
4.21071
4.15
4.09138
4.02798
3.95321
3.86193
3.7513
3.62114
3.47391
3.31419
3.14779
2.98049
2.8168
2.65882
2.50545
2.35212
2.1909
2.01132
1.80157
1.55022
1.24788
0.888591
0.47063
-0.00320444
-0.525926
-1.08723
-1.67475
-2.27553
-2.87724
-3.469
-4.04165
-4.58746
-5.09928
-5.56932
-5.98783
-6.34245
-6.61874
-6.80215
-6.88113
-6.85045
-6.81061
-4.31419
-1.89764
0.30705
2.22162
3.81741
5.103
6.11021
6.88216
7.46428
7.89851
8.22027
8.4574
8.6305
8.75386
8.83681
8.88528
8.90314
8.89336
8.8586
8.80156
8.7249
8.6312
8.52274
8.40153
8.26934
8.12788
7.97915
7.82558
7.67019
7.51644
7.36792
7.22771
7.0979
6.9791
6.87005
6.76763
6.66707
6.56267
6.44892
6.32178
6.17952
6.02318
5.85665
5.6862
5.51959
5.36483
5.22862
5.11518
5.02533
4.95616
4.9011
4.85061
4.79357
4.71928
4.61947
4.48966
4.32984
4.14434
3.94108
3.73014
3.52181
3.32441
3.14245
2.97542
2.81726
2.65648
2.47717
2.26092
1.98966
1.64858
1.22825
0.725877
0.145547
-0.502224
-1.20194
-1.93524
-2.68353
-3.43
-4.16098
-4.86623
-5.53851
-6.17211
-6.76044
-7.29299
-7.75325
-8.11901
-8.36543
-8.47119
-8.4258
-8.22211
-4.83227
-1.63284
1.18353
3.52735
5.39049
6.81645
7.87438
8.64086
9.18781
9.57568
9.85144
10.049
10.191
10.2912
10.3567
10.3904
10.3939
10.3681
10.3151
10.2375
10.1382
10.0203
9.88646
9.7386
9.57823
9.4067
9.22577
9.03811
8.84765
8.65941
8.47897
8.31142
8.16041
8.02733
7.91079
7.80617
7.70587
7.6002
7.47962
7.33701
7.16906
6.97703
6.76671
6.54799
6.33346
6.13646
5.96823
5.83606
5.74187
5.68185
5.64615
5.6198
5.58455
5.52264
5.4207
5.27173
5.07603
4.84085
4.57952
4.3092
4.04787
3.81024
3.60504
3.43306
3.28659
3.14915
2.99663
2.79989
2.53002
2.16375
1.68642
1.09374
0.391762
-0.403385
-1.26794
-2.17382
-3.09382
-4.00477
-4.88972
-5.738
-6.54499
-7.30986
-8.03161
-8.70202
-9.29991
-9.79088
-10.1311
-10.2787
-10.2124
-9.76939
-5.07615
-0.816448
2.7404
5.52506
7.59288
9.05965
10.0581
10.7156
11.1403
11.4142
11.5952
11.7205
11.8118
11.8785
11.9222
11.9393
11.9266
11.8821
11.8071
11.7045
11.5782
11.4325
11.2703
11.0937
10.9032
10.6991
10.4821
10.2547
10.022
9.79118
9.57154
9.37137
9.19716
9.05182
8.93443
8.83857
8.75246
8.6593
8.54212
8.3888
8.19334
7.95732
7.68894
7.40382
7.12219
6.86676
6.65601
6.50232
6.40933
6.3726
6.37783
6.40192
6.41399
6.38373
6.28976
6.12116
5.87916
5.57507
5.23101
4.8754
4.53988
4.24945
4.01989
3.85405
3.74303
3.66364
3.57986
3.44425
3.20928
2.83891
2.31079
1.61905
0.772227
-0.204512
-1.27432
-2.39195
-3.51703
-4.61685
-5.67113
-6.66906
-7.61198
-8.50955
-9.37655
-10.2153
-11.0004
-11.6797
-12.1737
-12.3943
-12.2961
-11.3977
-4.69592
1.01181
5.40891
8.5544
10.6599
11.9763
12.7317
13.1246
13.3091
13.3856
13.4183
13.4399
13.467
13.4981
13.5248
13.5303
13.5038
13.4392
13.3379
13.2043
13.0454
12.8671
12.674
12.4677
12.2468
12.0089
11.7524
11.478
11.1924
10.9058
10.635
10.3929
10.1913
10.035
9.92601
9.85589
9.80815
9.75199
9.65563
9.50026
9.27505
8.98323
8.63429
8.25369
7.87222
7.53178
7.26069
7.08031
6.99488
7.00204
7.08153
7.20048
7.30356
7.33572
7.26548
7.07548
6.77091
6.36607
5.89835
5.41192
4.96626
4.60032
4.3423
4.19544
4.15328
4.18384
4.2371
4.23109
4.08293
3.74069
3.17025
2.36716
1.33928
0.127919
-1.21227
-2.59976
-3.97695
-5.29483
-6.53393
-7.67955
-8.74444
-9.75339
-10.7622
-11.8061
-12.8531
-13.8355
-14.6102
-14.9687
-14.8145
-12.8479
-2.88475
4.72689
9.8794
13.0809
14.8625
15.6998
15.926
15.8325
15.6321
15.4187
15.2559
15.1503
15.1149
15.1226
15.1567
15.1657
15.1346
15.0476
14.9137
14.7392
14.5388
14.3217
14.0953
13.8609
13.6136
13.3437
13.0469
12.7161
12.3624
11.9964
11.6556
11.3545
11.1185
10.9488
10.8601
10.8395
10.8745
10.9011
10.8526
10.7109
10.4512
10.09
9.62383
9.10339
8.56181
8.09559
7.7334
7.52024
7.44578
7.52607
7.72711
8.02064
8.29402
8.43394
8.41248
8.19357
7.80591
7.24647
6.59151
5.88864
5.27678
4.79472
4.50361
4.38506
4.45787
4.67039
4.9788
5.22174
5.23518
4.97024
4.36391
3.4382
2.16979
0.645169
-1.08278
-2.823
-4.52283
-6.08675
-7.53183
-8.80669
-9.9578
-10.9977
-12.0978
-13.3925
-14.7989
-16.2904
-17.646
-18.2815
-18.0029
-13.0469
2.31207
11.9824
17.1592
19.6524
20.4255
20.3043
19.5815
18.6954
17.9745
17.38
17.0121
16.7605
16.7016
16.7101
16.8258
16.8599
16.8471
16.7243
16.5493
16.3127
16.0572
15.791
15.5294
15.2739
15.014
14.7188
14.3915
13.9884
13.5517
13.0517
12.6204
12.2238
11.9517
11.747
11.6975
11.7444
11.9542
12.1596
12.1853
12.0924
11.7751
11.349
10.6929
9.98486
9.14414
8.5109
7.99278
7.7617
7.67506
7.87739
8.24071
8.87097
9.47782
9.76566
9.8449
9.55579
9.08939
8.26552
7.35473
6.23539
5.40143
4.7152
4.41746
4.30007
4.56221
5.01976
5.81564
6.5437
6.7891
6.69221
6.0183
5.00351
3.37007
1.45599
-0.934801
-3.10367
-5.26365
-7.0491
-8.77415
-10.1114
-11.3307
-12.1546
-13.1527
-14.8172
-16.6219
-18.9405
-21.7182
-22.9103
-22.2869
-7.27573
15.7007
25.7081
28.3026
28.7002
27.2757
25.7745
23.4718
21.3199
20.1346
19.0146
18.6005
18.0929
18.1909
18.1432
18.612
18.6215
18.7177
18.4761
18.2731
17.913
17.5908
17.2534
16.9545
16.6931
16.465
16.1398
15.845
15.3091
14.8317
14.008
13.535
12.9138
12.6876
12.3215
12.3957
12.4146
13.0399
13.6768
13.6886
13.7971
13.2555
12.939
11.8365
11.0573
9.42761
8.76031
7.83872
7.79509
7.48813
7.99683
8.36981
9.75492
11.1209
11.3977
11.8077
11.1732
10.8875
9.40964
8.41821
6.17113
5.31331
4.0762
4.07155
3.66851
4.38513
4.88186
6.7501
8.56064
8.83587
9.24504
8.16346
7.45965
4.97443
2.9533
-1.10638
-3.39709
-6.54371
-8.09834
-10.5748
-11.5857
-13.273
-13.0605
-13.2477
-16.0401
-17.7044
-20.9293
-28.0734
-30.1532
-28.4591
27.3586
47.7653
50.1084
42.6093
40.3712
34.2355
32.3983
27.1439
22.5519
22.1998
19.6318
20.323
18.5524
19.8892
18.8314
21.0589
20.2572
21.0737
20.1715
20.2224
19.4577
19.1452
18.6596
18.3244
18.0636
18.0549
17.5161
17.6448
16.5444
16.6096
14.4583
14.662
13.034
13.6241
12.2612
13.1728
12.2109
14.1078
16.0935
15.0517
16.437
14.4109
15.6603
12.5135
13.3538
8.32443
9.37512
6.41965
8.20694
6.12589
8.31097
7.04074
10.6657
14.3317
12.8371
15.2738
12.2876
14.4018
9.85256
11.2892
4.10568
5.77076
1.66186
4.29876
1.42407
4.52416
2.76844
7.76713
12.7879
10.6892
13.9441
9.76411
12.4805
5.91002
7.3857
-3.82569
-2.45832
-10.1165
-7.82041
-14.486
-12.0861
-17.9512
-13.391
-9.59137
-18.8875
-16.5396
-17.2745
-41.7209
-42.8302
-37.9888
212.312
105.84
88.6808
49.3396
57.6545
35.0054
43.9426
29.8623
17.6787
27.4558
15.5563
25.5903
14.5376
25.0361
14.7892
27.8678
19.5629
25.9051
20.4944
23.3466
20.3515
20.9493
19.8497
19.5877
19.0712
20.4086
17.9317
21.2147
16.102
21.5794
11.5179
18.4272
9.96075
17.3731
8.92621
16.6483
7.89076
15.0484
22.8702
12.9203
23.9898
10.8498
24.7127
7.44948
24.1029
-1.53347
15.7593
-1.82845
14.1897
-1.37904
13.6012
-1.33694
11.518
24.9739
8.61603
26.5491
6.05766
27.5119
1.67628
26.5734
-10.7012
14.5432
-10.466
12.4631
-9.42362
11.656
-9.07095
8.75274
27.2673
4.83377
29.3494
1.43426
30.8748
-4.74057
30.0878
-24.658
11.4777
-28.0232
5.36272
-31.4509
-0.684824
-37.6411
-12.6258
12.9231
-38.5018
-10.9351
20.525
-88.9732
-64.0755
-53.931
208.466
188.915
170.448
153.009
136.528
120.926
106.119
92.0175
78.5331
65.5772
53.0632
40.9063
29.0244
17.3373
5.76622
-1.68447
-1.62507
-1.54109
-1.43757
-1.31981
-1.19279
-1.06081
-0.927274
-0.794606
-0.664357
-0.53731
-0.413627
-0.292999
-0.174777
-0.0580844
-2.83924
-2.73571
-2.59018
-2.41177
-2.20996
-1.99349
-1.76978
-1.5445
-1.32167
-1.10371
-0.891785
-0.685988
-0.485663
-0.289599
-0.0962266
-4.04349
-3.88832
-3.67211
-3.40936
-3.11474
-2.80144
-2.48028
-2.15928
-1.84384
-1.53704
-1.24012
-0.952871
-0.67406
-0.401725
-0.133449
-5.3208
-5.1019
-4.80056
-4.43879
-4.03814
-3.61723
-3.19058
-2.76847
-2.35733
-1.96047
-1.57876
-1.21131
-0.855971
-0.50979
-0.169289
-6.69934
-6.39787
-5.98937
-5.50704
-4.98177
-4.43872
-3.89632
-3.36665
-2.85653
-2.36874
-1.90314
-1.45761
-1.02871
-0.612169
-0.203205
-8.21438
-7.80077
-7.25191
-6.61818
-5.94311
-5.2595
-4.58928
-3.94525
-3.33337
-2.75477
-2.20742
-1.68727
-1.1891
-0.70696
-0.234565
-9.91225
-9.33877
-8.59921
-7.77055
-6.91292
-6.06684
-5.25599
-4.49167
-3.77689
-3.10953
-2.48446
-1.89494
-1.33342
-0.792002
-0.262658
-11.856
-11.0427
-10.0355
-8.95176
-7.87107
-6.83885
-5.8761
-4.98848
-4.17295
-3.42196
-2.72592
-2.07459
-1.45763
-0.864958
-0.286722
-14.133
-12.9404
-11.5481
-10.1298
-8.78065
-7.54131
-6.42101
-5.41316
-4.50442
-3.67938
-2.92266
-2.21983
-1.55755
-0.923464
-0.305993
-16.8591
-15.0377
-13.0868
-11.2386
-9.5803
-8.12464
-6.85338
-5.73864
-4.75215
-3.86843
-3.06548
-2.3245
-1.62924
-0.965347
-0.319774
-20.1586
-17.2641
-14.5226
-12.1574
-10.1772
-8.52348
-7.12913
-5.93582
-4.89706
-3.97665
-3.1463
-2.38343
-1.66955
-0.988897
-0.327526
-24.0306
-19.3374
-15.5817
-12.6913
-10.4474
-8.66286
-7.20375
-5.97836
-4.92355
-3.99478
-3.15959
-2.39336
-1.6766
-0.993157
-0.328955
-27.7644
-20.473
-15.7754
-12.5783
-10.2582
-8.47669
-7.04458
-5.85027
-4.82393
-3.91928
-3.10388
-2.35378
-1.65031
-0.978166
-0.324087
-27.6354
-19.0147
-14.4684
-11.5881
-9.53025
-7.94103
-6.64753
-5.55412
-4.60256
-3.75448
-2.98285
-2.26753
-1.59267
-0.945101
-0.313312
-1.8147
-5.48243
-9.26829
-13.2622
-17.5732
-22.3425
-27.7649
-34.1253
-41.868
-51.7366
-65.0864
-84.6547
-116.682
-177.354
-313.783
-1.77644
-5.36447
-9.06059
-12.9461
-17.118
-21.6989
-26.852
-32.8055
-39.8915
-48.6091
-59.7157
-74.2844
-93.2561
-113.725
-106.709
-1.71377
-5.17142
-8.72129
-12.4311
-16.3788
-20.6577
-25.3831
-30.6991
-36.7817
-43.8222
-51.9406
-60.8558
-68.7897
-69.1816
-42.9702
-1.63016
-4.91432
-8.27086
-11.7509
-15.4095
-19.3063
-23.5039
-28.0603
-33.0064
-38.2868
-43.6119
-48.1083
-49.5599
-43.1123
-20.7096
-1.52999
-4.60693
-7.73463
-10.9466
-14.2746
-17.7459
-21.3755
-25.1508
-28.9989
-32.7199
-35.8588
-37.4754
-35.8155
-28.1226
-11.6547
-1.41806
-4.26424
-7.13987
-10.0616
-13.0403
-16.0755
-19.1457
-22.1906
-25.0793
-27.5572
-29.1623
-29.1177
-26.2608
-19.2263
-7.3508
-1.29911
-3.90109
-6.51307
-9.13701
-11.7666
-14.3806
-16.9336
-19.3388
-21.4449
-23.0002
-23.6113
-22.7127
-19.6071
-13.6917
-5.00945
-1.17754
-3.53098
-5.87791
-8.2085
-10.5035
-12.7282
-14.8238
-16.6948
-18.193
-19.0991
-19.1084
-17.8401
-14.9047
-10.0785
-3.59627
-1.05711
-3.16536
-5.25408
-7.30464
-9.28921
-11.1655
-12.8699
-14.3095
-15.3522
-15.8205
-15.4926
-14.1252
-11.5153
-7.61511
-2.67636
-0.94082
-2.81329
-4.65672
-6.44657
-8.15006
-9.72198
-11.1
-12.1996
-12.9102
-13.0949
-12.5988
-11.2729
-9.02198
-5.87292
-2.04392
-0.830894
-2.48136
-4.09653
-5.64843
-7.10221
-8.41308
-9.52333
-10.3598
-10.8334
-10.8421
-10.2809
-9.06312
-7.15226
-4.60287
-1.59122
-0.728829
-2.17392
-3.58026
-4.91841
-6.15356
-7.24345
-8.13669
-8.77203
-9.07949
-8.98485
-8.41914
-7.33452
-5.72594
-3.65383
-1.25711
-0.635482
-1.89339
-3.11132
-4.25989
-5.30575
-6.21033
-6.9291
-7.41186
-7.60472
-7.45471
-6.91764
-5.96973
-4.62149
-2.93018
-1.00458
-0.551196
-1.64062
-2.69053
-3.67267
-4.55602
-5.30621
-5.88536
-6.25295
-6.36802
-6.1933
-5.7014
-4.88292
-3.75525
-2.36921
-0.810096
-0.475914
-1.41527
-2.3168
-3.15402
-3.89875
-4.52084
-4.98851
-5.26935
-5.33253
-5.15214
-4.71191
-4.0108
-3.06841
-1.92841
-0.658019
-0.409292
-1.21617
-1.9877
-2.69959
-3.32661
-3.84269
-4.22136
-4.43689
-4.46616
-4.29138
-3.90355
-3.30622
-2.51879
-1.57816
-0.537635
-0.350795
-1.04162
-1.70002
-2.30407
-2.8315
-3.25994
-3.56748
-3.73374
-3.74146
-3.57855
-3.24066
-2.73364
-2.07554
-1.29727
-0.441376
-0.299774
-0.889569
-1.45008
-1.96175
-2.40512
-2.76112
-3.01168
-3.14069
-3.13522
-2.98721
-2.69519
-2.26597
-1.71573
-1.07027
-0.363769
-0.255525
-0.75785
-1.23405
-1.66686
-2.0394
-2.3355
-2.54029
-2.64099
-2.62795
-2.49586
-2.245
-1.88231
-1.42204
-0.88565
-0.30077
-0.217332
-0.644274
-1.04813
-1.41381
-1.72675
-1.97328
-2.14117
-2.22027
-2.20335
-2.08698
-1.87245
-1.56641
-1.18121
-0.734699
-0.249338
-0.184501
-0.546725
-0.888724
-1.19738
-1.4602
-1.66567
-1.8037
-1.86622
-1.84778
-1.74626
-1.56345
-1.30546
-0.982942
-0.610726
-0.20715
-0.156375
-0.46322
-0.752464
-1.01278
-1.23348
-1.40487
-1.51866
-1.56837
-1.5499
-1.46199
-1.30663
-1.08933
-0.819179
-0.508528
-0.172407
-0.13235
-0.391934
-0.63629
-0.855675
-1.04099
-1.18408
-1.2781
-1.31786
-1.30024
-1.22456
-1.09282
-0.909901
-0.683536
-0.424015
-0.1437
-0.111877
-0.331221
-0.537454
-0.722229
-0.877814
-0.997363
-1.07521
-1.10719
-1.0909
-1.02604
-0.91453
-0.760639
-0.570914
-0.353939
-0.119914
-0.0944656
-0.279612
-0.453515
-0.60905
-0.73966
-0.839598
-0.904176
-0.930019
-0.915295
-0.859916
-0.76567
-0.636257
-0.477214
-0.295701
-0.100157
-0.0796819
-0.235809
-0.382329
-0.513176
-0.622802
-0.706383
-0.760035
-0.781017
-0.767912
-0.720778
-0.641228
-0.532448
-0.399114
-0.247204
-0.0837127
-0.0671453
-0.198677
-0.322024
-0.432037
-0.524027
-0.593948
-0.638577
-0.655682
-0.644158
-0.604145
-0.537079
-0.445689
-0.333914
-0.206748
-0.0700002
-0.0565242
-0.167228
-0.270978
-0.363412
-0.440574
-0.499073
-0.536231
-0.550223
-0.540185
-0.506297
-0.44982
-0.373082
-0.279399
-0.172944
-0.0585462
-0.0475312
-0.140606
-0.227788
-0.305391
-0.37008
-0.419015
-0.44997
-0.461449
-0.452771
-0.424132
-0.376629
-0.31224
-0.233753
-0.144654
-0.0489634
-0.0399185
-0.118075
-0.191251
-0.256335
-0.310524
-0.35144
-0.377232
-0.386671
-0.379216
-0.355065
-0.315163
-0.261186
-0.195476
-0.120942
-0.0409329
-0.033473
-0.0990013
-0.160331
-0.214843
-0.260184
-0.294366
-0.315849
-0.323621
-0.317254
-0.296933
-0.26347
-0.218279
-0.163324
-0.101032
-0.0341915
-0.0280117
-0.0828432
-0.134145
-0.179719
-0.217593
-0.246108
-0.263984
-0.270389
-0.26498
-0.247926
-0.219921
-0.182153
-0.136264
-0.0842816
-0.0285206
-0.0233782
-0.0691356
-0.111936
-0.14994
-0.181501
-0.205236
-0.220085
-0.225361
-0.220789
-0.206524
-0.183149
-0.151664
-0.113437
-0.0701542
-0.0237385
-0.0194381
-0.057481
-0.0930576
-0.124635
-0.150843
-0.170534
-0.182831
-0.18717
-0.18333
-0.171446
-0.15201
-0.125855
-0.09412
-0.0582021
-0.0196932
-0.0160766
-0.0475388
-0.0769558
-0.103058
-0.124711
-0.140966
-0.151103
-0.154659
-0.151456
-0.141611
-0.125536
-0.103921
-0.0777074
-0.0480489
-0.0162571
-0.013195
-0.0390165
-0.0631558
-0.084569
-0.102325
-0.115647
-0.123944
-0.12684
-0.124193
-0.116102
-0.102908
-0.0851787
-0.0636868
-0.0393769
-0.0133225
-0.0107081
-0.0316622
-0.0512487
-0.0686194
-0.0830187
-0.0938162
-0.100534
-0.10287
-0.10071
-0.0941373
-0.0834296
-0.0690491
-0.0516229
-0.0319161
-0.010798
-0.00854223
-0.0252574
-0.0408801
-0.054733
-0.0662131
-0.074818
-0.0801676
-0.0820215
-0.0802907
-0.0750431
-0.0665011
-0.0550341
-0.0411423
-0.0254354
-0.00860519
-0.00663272
-0.0196111
-0.0317402
-0.0424939
-0.0514038
-0.05808
-0.062228
-0.0636618
-0.0623134
-0.0582361
-0.0516036
-0.0427028
-0.0319221
-0.0197345
-0.00667638
-0.00492253
-0.0145544
-0.0235555
-0.031535
-0.0381455
-0.0430975
-0.0461728
-0.0472339
-0.0462307
-0.0432033
-0.0382809
-0.0316766
-0.0236788
-0.0146381
-0.00495214
-0.0033604
-0.00993557
-0.01608
-0.0215267
-0.0260386
-0.029418
-0.0315162
-0.0322393
-0.0315535
-0.0294863
-0.0261259
-0.0216181
-0.0161596
-0.00998958
-0.00337951
-0.0018994
-0.00561587
-0.00908889
-0.0121676
-0.0147179
-0.0166281
-0.0178142
-0.0182231
-0.0178355
-0.0166671
-0.0147677
-0.0122197
-0.00913428
-0.00564668
-0.00191029
-0.000495539
-0.00146522
-0.00237158
-0.00317537
-0.00384161
-0.00434114
-0.00465186
-0.00475979
-0.00465969
-0.00435544
-0.00385991
-0.00319451
-0.00238824
-0.00147652
-0.000499538
0.000893457
0.00264148
0.0042745
0.00572135
0.00691889
0.00781476
0.00836964
0.00855904
0.00837437
0.00782339
0.00692994
0.0057329
0.00428456
0.00264831
0.000895874
0.00230945
0.00682802
0.0110498
0.0147911
0.0178888
0.0202074
0.0216449
0.0221376
0.0216627
0.02024
0.0179306
0.0148348
0.0110878
0.00685381
0.00231858
0.00379512
0.0112206
0.0181587
0.0243078
0.0293997
0.0332117
0.0355761
0.0363878
0.0356092
0.0332722
0.0294771
0.0243888
0.0182292
0.0112684
0.00381205
0.00539519
0.0159515
0.0258155
0.0345584
0.0417992
0.0472211
0.0505854
0.0517422
0.0506377
0.0473167
0.0419216
0.0346864
0.025927
0.0160271
0.00542195
0.00715779
0.0211631
0.0342507
0.045852
0.0554617
0.0626591
0.0671272
0.0686667
0.0672051
0.0628013
0.0556437
0.0460424
0.0344164
0.0212756
0.00719758
0.0091358
0.0270118
0.0437177
0.0585284
0.0707989
0.079992
0.0857025
0.0876747
0.0858152
0.080198
0.0710624
0.058804
0.0439577
0.0271747
0.00919342
0.0113885
0.0336729
0.0545007
0.0729685
0.0882726
0.099743
0.106873
0.109343
0.107034
0.100037
0.0886493
0.0733624
0.0548437
0.0339058
0.0114708
0.013983
0.0413455
0.0669221
0.0896052
0.108408
0.122507
0.13128
0.134329
0.131509
0.122926
0.108943
0.0901647
0.0674094
0.0416762
0.0141
0.0169967
0.050258
0.0813526
0.108936
0.131809
0.14897
0.159659
0.163392
0.159983
0.149562
0.132567
0.109728
0.0820426
0.0507263
0.0171624
0.0205188
0.0606747
0.098221
0.131537
0.159176
0.179927
0.192869
0.197412
0.193327
0.180764
0.160247
0.132657
0.0991965
0.0613368
0.020753
0.0246532
0.0729032
0.118026
0.158079
0.191325
0.216306
0.23191
0.237422
0.232558
0.217489
0.192838
0.159662
0.119405
0.0738386
0.0249841
0.029521
0.0873025
0.141352
0.189348
0.229212
0.259195
0.277959
0.284635
0.278873
0.260865
0.231349
0.191584
0.143299
0.0886236
0.0299883
0.0352641
0.104293
0.168881
0.226264
0.273959
0.309874
0.3324
0.340484
0.333691
0.312232
0.276977
0.22942
0.17163
0.106158
0.0359239
0.0420482
0.124366
0.201414
0.269905
0.326884
0.36985
0.396868
0.406664
0.398691
0.373179
0.331145
0.274361
0.205294
0.126999
0.0429798
0.0500676
0.148097
0.239888
0.321539
0.389538
0.440898
0.473295
0.485179
0.475867
0.445598
0.395553
0.32783
0.245365
0.151815
0.0513828
0.059549
0.17616
0.2854
0.382653
0.463745
0.525113
0.563963
0.578411
0.567594
0.531747
0.472236
0.391534
0.293134
0.181409
0.0614058
0.070757
0.209341
0.339236
0.454988
0.551645
0.624961
0.671574
0.689186
0.6767
0.634326
0.563633
0.467524
0.350154
0.216752
0.0733785
0.0839992
0.248554
0.402892
0.540579
0.655753
0.743348
0.799321
0.820857
0.806556
0.756569
0.672675
0.558277
0.418306
0.259017
0.0877005
0.0996324
0.294861
0.478107
0.641801
0.779008
0.883691
0.950977
0.97741
0.961189
0.902353
0.802896
0.666787
0.499869
0.309634
0.104858
0.118068
0.349488
0.566898
0.761414
0.924845
1.05
1.131
1.16358
1.14541
1.07634
0.958565
0.796686
0.597623
0.370346
0.125447
0.139776
0.413841
0.671585
0.902607
1.09726
1.24697
1.34463
1.38498
1.36497
1.28415
1.14486
0.952403
0.714965
0.443294
0.150196
0.165296
0.489527
0.794823
1.06905
1.30087
1.48007
1.59806
1.64828
1.62677
1.53254
1.36806
1.13935
0.856076
0.531119
0.180011
0.19523
0.578358
0.939629
1.26495
1.54101
1.75568
1.89853
1.9614
1.93904
1.82973
1.63584
1.3642
1.02612
0.637101
0.216016
0.230256
0.682365
1.10939
1.49505
1.82377
2.08115
2.25454
2.3337
2.31168
2.18563
1.95761
1.63517
1.23155
0.765345
0.259621
0.271114
0.803786
1.30788
1.76468
2.15606
2.46495
2.67596
2.77625
2.75655
2.61233
2.34494
1.96251
1.48042
0.921029
0.312612
0.318605
0.945045
1.53921
2.07973
2.54562
2.91669
3.17425
3.3021
3.28787
3.12456
2.81215
2.35905
1.78295
1.11075
0.377274
0.373574
1.10871
1.80778
2.4466
3.00102
3.44725
3.7626
3.9266
3.9227
3.7403
3.37704
2.84099
2.15222
1.34303
0.456562
0.43688
1.29743
2.11817
2.87206
3.53153
4.06869
4.45602
4.66767
4.68148
4.48162
4.06189
3.42897
2.60509
1.62896
0.554358
0.509359
1.51378
2.47497
3.36308
4.14696
4.79414
5.2714
5.54611
5.58859
5.3756
4.89476
4.14956
3.16366
1.98328
0.675838
0.591766
1.76014
2.8825
3.92645
4.85729
5.63757
6.22742
6.58579
6.67309
6.45554
5.91119
5.03726
3.85727
2.42581
0.828034
0.684697
2.03844
3.34446
4.56836
5.67214
6.61321
7.34415
7.81366
7.96925
7.76238
7.15647
6.13747
4.72549
2.98383
1.0207
0.788491
2.34988
3.86342
5.29366
6.59995
7.73472
8.64238
9.25949
9.51708
9.3463
8.68856
7.51055
5.82263
3.69563
1.26773
0.903108
2.69453
4.4402
6.105
7.64684
9.01391
10.1423
10.9549
11.3623
11.2683
10.5819
9.2377
7.22466
4.61638
1.58943
1.02799
3.07094
5.07312
7.0017
8.81505
10.4588
11.8615
12.9317
13.5557
13.6017
12.9319
11.4293
9.04
5.82784
2.01663
1.16192
3.47564
5.75712
7.97837
10.101
12.0709
13.8117
15.2182
16.1504
16.432
15.8603
14.2365
11.4267
7.45529
2.59801
1.30287
3.90272
6.48291
9.02347
11.493
13.842
15.9939
17.834
19.1967
19.8548
19.5194
17.8671
14.6202
9.69786
3.41461
1.4479
4.34341
7.2362
10.1178
12.9686
15.7498
18.3925
20.7812
22.7323
23.9675
24.0927
22.6051
18.977
12.8855
4.61035
1.59313
4.78598
7.99717
11.2336
14.4925
17.7538
20.9673
24.0323
26.7649
28.8508
29.786
28.8295
25.0444
17.5894
6.46271
1.73376
5.21579
8.74056
12.3337
16.0146
19.7908
23.6452
27.5141
31.2465
34.5332
36.7928
37.0179
33.6602
24.8431
9.5641
1.86432
5.61589
9.43645
13.3726
17.4706
21.7735
26.3129
31.0904
36.0374
40.9287
45.2123
47.6943
46.0669
36.5841
15.3385
1.97896
5.96803
10.052
14.2991
18.7842
23.5918
28.815
34.5491
40.8667
47.746
54.8825
61.2242
63.9286
56.4935
27.6622
2.07194
6.25422
10.5544
15.06
19.8738
25.1213
30.9621
37.6024
45.3058
54.3845
65.1044
77.2794
88.8311
91.2609
58.384
2.13823
6.45852
10.9139
15.607
20.6621
26.2388
32.554
39.9172
48.7895
59.8829
74.3154
93.7671
120.068
150.546
147.363
2.17408
6.56898
11.1082
15.9026
21.0881
26.8432
33.4179
41.1839
50.7306
63.0622
80.0404
105.498
148.403
233.206
438.802
2.17747
6.57917
11.1253
15.9265
21.1183
26.8783
33.4543
41.2137
50.7376
63.0142
79.8766
105.111
147.641
231.982
437.634
2.14836
6.48905
10.9651
15.6791
20.7539
26.3467
32.6687
40.0179
48.8327
59.7812
73.8979
92.7146
117.842
146.512
142.277
2.08871
6.30488
10.6397
15.1809
20.0298
25.3086
31.1697
37.8042
45.4459
54.3475
64.655
75.9352
85.5815
83.8912
41.5842
-17.5178
-14.2837
-11.8579
-9.97853
-8.46255
-7.19762
-6.11304
-5.16194
-4.3117
-3.53847
-2.82411
-2.15416
-1.5167
-0.901414
-0.299056
-6.57212
-9.11137
-9.00068
-8.21555
-7.29087
-6.37943
-5.52259
-4.72682
-3.98744
-3.29648
-2.64541
-2.02599
-1.43049
-0.851717
-0.282817
-2.99099
-5.77918
-6.6118
-6.54939
-6.10995
-5.52327
-4.88968
-4.25249
-3.62952
-3.02677
-2.44472
-1.88117
-1.33267
-0.795155
-0.264308
-1.62774
-3.80498
-4.8444
-5.14501
-5.03122
-4.69966
-4.25921
-3.76826
-3.25752
-2.74266
-2.23115
-1.72589
-1.2272
-0.733956
-0.244246
-1.01326
-2.62091
-3.59002
-4.02837
-4.10368
-3.95161
-3.66379
-3.29775
-2.88834
-2.4562
-2.01324
-1.56604
-1.11794
-0.670298
-0.223337
-0.689667
-1.88024
-2.70419
-3.16379
-3.33402
-3.29779
-3.12266
-2.85733
-2.53493
-2.17723
-1.79824
-1.4068
-1.00834
-0.606164
-0.202225
-0.497148
-1.39416
-2.07137
-2.50016
-2.70769
-2.74042
-2.64414
-2.45653
-2.20601
-1.91303
-1.59188
-1.25241
-0.901323
-0.543248
-0.181468
-0.372183
-1.06071
-1.61103
-1.99015
-2.20273
-2.27261
-2.22901
-2.09938
-1.90656
-1.66838
-1.39824
-1.10607
-0.799152
-0.482901
-0.161513
-0.285991
-0.823222
-1.26959
-1.59576
-1.79687
-1.88357
-1.87361
-1.78611
-1.6386
-1.44589
-1.21989
-0.969972
-0.703453
-0.426116
-0.142693
-0.223932
-0.648829
-1.0116
-1.28822
-1.47043
-1.56165
-1.57205
-1.51449
-1.40202
-1.24651
-1.05814
-0.84539
-0.615262
-0.373555
-0.125235
-0.177818
-0.517578
-0.813415
-1.04624
-1.20716
-1.29584
-1.31765
-1.28099
-1.19532
-1.06993
-0.913298
-0.732874
-0.535105
-0.325583
-0.109268
-0.14273
-0.416823
-0.658988
-0.85417
-0.994052
-1.07647
-1.10385
-1.08152
-1.0162
-0.915043
-0.784973
-0.632395
-0.463104
-0.282326
-0.0948433
-0.115534
-0.338236
-0.537184
-0.700499
-0.820841
-0.895299
-0.924572
-0.911883
-0.861957
-0.780225
-0.672271
-0.543518
-0.399077
-0.243724
-0.0819476