# vtk DataFile Version 2.0
generated by CFD-lab course output (written by Tobias Neckel) 
ASCII

DATASET STRUCTURED_GRID
DIMENSIONS  99 49 1 
POINTS 4851 float

0.000000 0.000000 0
0.020000 0.000000 0
0.040000 0.000000 0
0.060000 0.000000 0
0.080000 0.000000 0
0.100000 0.000000 0
0.120000 0.000000 0
0.140000 0.000000 0
0.160000 0.000000 0
0.180000 0.000000 0
0.200000 0.000000 0
0.220000 0.000000 0
0.240000 0.000000 0
0.260000 0.000000 0
0.280000 0.000000 0
0.300000 0.000000 0
0.320000 0.000000 0
0.340000 0.000000 0
0.360000 0.000000 0
0.380000 0.000000 0
0.400000 0.000000 0
0.420000 0.000000 0
0.440000 0.000000 0
0.460000 0.000000 0
0.480000 0.000000 0
0.500000 0.000000 0
0.520000 0.000000 0
0.540000 0.000000 0
0.560000 0.000000 0
0.580000 0.000000 0
0.600000 0.000000 0
0.620000 0.000000 0
0.640000 0.000000 0
0.660000 0.000000 0
0.680000 0.000000 0
0.700000 0.000000 0
0.720000 0.000000 0
0.740000 0.000000 0
0.760000 0.000000 0
0.780000 0.000000 0
0.800000 0.000000 0
0.820000 0.000000 0
0.840000 0.000000 0
0.860000 0.000000 0
0.880000 0.000000 0
0.900000 0.000000 0
0.920000 0.000000 0
0.940000 0.000000 0
0.960000 0.000000 0
0.980000 0.000000 0
1.000000 0.000000 0
1.020000 0.000000 0
1.040000 0.000000 0
1.060000 0.000000 0
1.080000 0.000000 0
1.100000 0.000000 0
1.120000 0.000000 0
1.140000 0.000000 0
1.160000 0.000000 0
1.180000 0.000000 0
1.200000 0.000000 0
1.220000 0.000000 0
1.240000 0.000000 0
1.260000 0.000000 0
1.280000 0.000000 0
1.300000 0.000000 0
1.320000 0.000000 0
1.340000 0.000000 0
1.360000 0.000000 0
1.380000 0.000000 0
1.400000 0.000000 0
1.420000 0.000000 0
1.440000 0.000000 0
1.460000 0.000000 0
1.480000 0.000000 0
1.500000 0.000000 0
1.520000 0.000000 0
1.540000 0.000000 0
1.560000 0.000000 0
1.580000 0.000000 0
1.600000 0.000000 0
1.620000 0.000000 0
1.640000 0.000000 0
1.660000 0.000000 0
1.680000 0.000000 0
1.700000 0.000000 0
1.720000 0.000000 0
1.740000 0.000000 0
1.760000 0.000000 0
1.780000 0.000000 0
1.800000 0.000000 0
1.820000 0.000000 0
1.840000 0.000000 0
1.860000 0.000000 0
1.880000 0.000000 0
1.900000 0.000000 0
1.920000 0.000000 0
1.940000 0.000000 0
1.960000 0.000000 0
0.000000 0.020000 0
0.020000 0.020000 0
0.040000 0.020000 0
0.060000 0.020000 0
0.080000 0.020000 0
0.100000 0.020000 0
0.120000 0.020000 0
0.140000 0.020000 0
0.160000 0.020000 0
0.180000 0.020000 0
0.200000 0.020000 0
0.220000 0.020000 0
0.240000 0.020000 0
0.260000 0.020000 0
0.280000 0.020000 0
0.300000 0.020000 0
0.320000 0.020000 0
0.340000 0.020000 0
0.360000 0.020000 0
0.380000 0.020000 0
0.400000 0.020000 0
0.420000 0.020000 0
0.440000 0.020000 0
0.460000 0.020000 0
0.480000 0.020000 0
0.500000 0.020000 0
0.520000 0.020000 0
0.540000 0.020000 0
0.560000 0.020000 0
0.580000 0.020000 0
0.600000 0.020000 0
0.620000 0.020000 0
0.640000 0.020000 0
0.660000 0.020000 0
0.680000 0.020000 0
0.700000 0.020000 0
0.720000 0.020000 0
0.740000 0.020000 0
0.760000 0.020000 0
0.780000 0.020000 0
0.800000 0.020000 0
0.820000 0.020000 0
0.840000 0.020000 0
0.860000 0.020000 0
0.880000 0.020000 0
0.900000 0.020000 0
0.920000 0.020000 0
0.940000 0.020000 0
0.960000 0.020000 0
0.980000 0.020000 0
1.000000 0.020000 0
1.020000 0.020000 0
1.040000 0.020000 0
1.060000 0.020000 0
1.080000 0.020000 0
1.100000 0.020000 0
1.120000 0.020000 0
1.140000 0.020000 0
1.160000 0.020000 0
1.180000 0.020000 0
1.200000 0.020000 0
1.220000 0.020000 0
1.240000 0.020000 0
1.260000 0.020000 0
1.280000 0.020000 0
1.300000 0.020000 0
1.320000 0.020000 0
1.340000 0.020000 0
1.360000 0.020000 0
1.380000 0.020000 0
1.400000 0.020000 0
1.420000 0.020000 0
1.440000 0.020000 0
1.460000 0.020000 0
1.480000 0.020000 0
1.500000 0.020000 0
1.520000 0.020000 0
1.540000 0.020000 0
1.560000 0.020000 0
1.580000 0.020000 0
1.600000 0.020000 0
1.620000 0.020000 0
1.640000 0.020000 0
1.660000 0.020000 0
1.680000 0.020000 0
1.700000 0.020000 0
1.720000 0.020000 0
1.740000 0.020000 0
1.760000 0.020000 0
1.780000 0.020000 0
1.800000 0.020000 0
1.820000 0.020000 0
1.840000 0.020000 0
1.860000 0.020000 0
1.880000 0.020000 0
1.900000 0.020000 0
1.920000 0.020000 0
1.940000 0.020000 0
1.960000 0.020000 0
0.000000 0.040000 0
0.020000 0.040000 0
0.040000 0.040000 0
0.060000 0.040000 0
0.080000 0.040000 0
0.100000 0.040000 0
0.120000 0.040000 0
0.140000 0.040000 0
0.160000 0.040000 0
0.180000 0.040000 0
0.200000 0.040000 0
0.220000 0.040000 0
0.240000 0.040000 0
0.260000 0.040000 0
0.280000 0.040000 0
0.300000 0.040000 0
0.320000 0.040000 0
0.340000 0.040000 0
0.360000 0.040000 0
0.380000 0.040000 0
0.400000 0.040000 0
0.420000 0.040000 0
0.440000 0.040000 0
0.460000 0.040000 0
0.480000 0.040000 0
0.500000 0.040000 0
0.520000 0.040000 0
0.540000 0.040000 0
0.560000 0.040000 0
0.580000 0.040000 0
0.600000 0.040000 0
0.620000 0.040000 0
0.640000 0.040000 0
0.660000 0.040000 0
0.680000 0.040000 0
0.700000 0.040000 0
0.720000 0.040000 0
0.740000 0.040000 0
0.760000 0.040000 0
0.780000 0.040000 0
0.800000 0.040000 0
0.820000 0.040000 0
0.840000 0.040000 0
0.860000 0.040000 0
0.880000 0.040000 0
0.900000 0.040000 0
0.920000 0.040000 0
0.940000 0.040000 0
0.960000 0.040000 0
0.980000 0.040000 0
1.000000 0.040000 0
1.020000 0.040000 0
1.040000 0.040000 0
1.060000 0.040000 0
1.080000 0.040000 0
1.100000 0.040000 0
1.120000 0.040000 0
1.140000 0.040000 0
1.160000 0.040000 0
1.180000 0.040000 0
1.200000 0.040000 0
1.220000 0.040000 0
1.240000 0.040000 0
1.260000 0.040000 0
1.280000 0.040000 0
1.300000 0.040000 0
1.320000 0.040000 0
1.340000 0.040000 0
1.360000 0.040000 0
1.380000 0.040000 0
1.400000 0.040000 0
1.420000 0.040000 0
1.440000 0.040000 0
1.460000 0.040000 0
1.480000 0.040000 0
1.500000 0.040000 0
1.520000 0.040000 0
1.540000 0.040000 0
1.560000 0.040000 0
1.580000 0.040000 0
1.600000 0.040000 0
1.620000 0.040000 0
1.640000 0.040000 0
1.660000 0.040000 0
1.680000 0.040000 0
1.700000 0.040000 0
1.720000 0.040000 0
1.740000 0.040000 0
1.760000 0.040000 0
1.780000 0.040000 0
1.800000 0.040000 0
1.820000 0.040000 0
1.840000 0.040000 0
1.860000 0.040000 0
1.880000 0.040000 0
1.900000 0.040000 0
1.920000 0.040000 0
1.940000 0.040000 0
1.960000 0.040000 0
0.000000 0.060000 0
0.020000 0.060000 0
0.040000 0.060000 0
0.060000 0.060000 0
0.080000 0.060000 0
0.100000 0.060000 0
0.120000 0.060000 0
0.140000 0.060000 0
0.160000 0.060000 0
0.180000 0.060000 0
0.200000 0.060000 0
0.220000 0.060000 0
0.240000 0.060000 0
0.260000 0.060000 0
0.280000 0.060000 0
0.300000 0.060000 0
0.320000 0.060000 0
0.340000 0.060000 0
0.360000 0.060000 0
0.380000 0.060000 0
0.400000 0.060000 0
0.420000 0.060000 0
0.440000 0.060000 0
0.460000 0.060000 0
0.480000 0.060000 0
0.500000 0.060000 0
0.520000 0.060000 0
0.540000 0.060000 0
0.560000 0.060000 0
0.580000 0.060000 0
0.600000 0.060000 0
0.620000 0.060000 0
0.640000 0.060000 0
0.660000 0.060000 0
0.680000 0.060000 0
0.700000 0.060000 0
0.720000 0.060000 0
0.740000 0.060000 0
0.760000 0.060000 0
0.780000 0.060000 0
0.800000 0.060000 0
0.820000 0.060000 0
0.840000 0.060000 0
0.860000 0.060000 0
0.880000 0.060000 0
0.900000 0.060000 0
0.920000 0.060000 0
0.940000 0.060000 0
0.960000 0.060000 0
0.980000 0.060000 0
1.000000 0.060000 0
1.020000 0.060000 0
1.040000 0.060000 0
1.060000 0.060000 0
1.080000 0.060000 0
1.100000 0.060000 0
1.120000 0.060000 0
1.140000 0.060000 0
1.160000 0.060000 0
1.180000 0.060000 0
1.200000 0.060000 0
1.220000 0.060000 0
1.240000 0.060000 0
1.260000 0.060000 0
1.280000 0.060000 0
1.300000 0.060000 0
1.320000 0.060000 0
1.340000 0.060000 0
1.360000 0.060000 0
1.380000 0.060000 0
1.400000 0.060000 0
1.420000 0.060000 0
1.440000 0.060000 0
1.460000 0.060000 0
1.480000 0.060000 0
1.500000 0.060000 0
1.520000 0.060000 0
1.540000 0.060000 0
1.560000 0.060000 0
1.580000 0.060000 0
1.600000 0.060000 0
1.620000 0.060000 0
1.640000 0.060000 0
1.660000 0.060000 0
1.680000 0.060000 0
1.700000 0.060000 0
1.720000 0.060000 0
1.740000 0.060000 0
1.760000 0.060000 0
1.780000 0.060000 0
1.800000 0.060000 0
1.820000 0.060000 0
1.840000 0.060000 0
1.860000 0.060000 0
1.880000 0.060000 0
1.900000 0.060000 0
1.920000 0.060000 0
1.940000 0.060000 0
1.960000 0.060000 0
0.000000 0.080000 0
0.020000 0.080000 0
0.040000 0.080000 0
0.060000 0.080000 0
0.080000 0.080000 0
0.100000 0.080000 0
0.120000 0.080000 0
0.140000 0.080000 0
0.160000 0.080000 0
0.180000 0.080000 0
0.200000 0.080000 0
0.220000 0.080000 0
0.240000 0.080000 0
0.260000 0.080000 0
0.280000 0.080000 0
0.300000 0.080000 0
0.320000 0.080000 0
0.340000 0.080000 0
0.360000 0.080000 0
0.380000 0.080000 0
0.400000 0.080000 0
0.420000 0.080000 0
0.440000 0.080000 0
0.460000 0.080000 0
0.480000 0.080000 0
0.500000 0.080000 0
0.520000 0.080000 0
0.540000 0.080000 0
0.560000 0.080000 0
0.580000 0.080000 0
0.600000 0.080000 0
0.620000 0.080000 0
0.640000 0.080000 0
0.660000 0.080000 0
0.680000 0.080000 0
0.700000 0.080000 0
0.720000 0.080000 0
0.740000 0.080000 0
0.760000 0.080000 0
0.780000 0.080000 0
0.800000 0.080000 0
0.820000 0.080000 0
0.840000 0.080000 0
0.860000 0.080000 0
0.880000 0.080000 0
0.900000 0.080000 0
0.920000 0.080000 0
0.940000 0.080000 0
0.960000 0.080000 0
0.980000 0.080000 0
1.000000 0.080000 0
1.020000 0.080000 0
1.040000 0.080000 0
1.060000 0.080000 0
1.080000 0.080000 0
1.100000 0.080000 0
1.120000 0.080000 0
1.140000 0.080000 0
1.160000 0.080000 0
1.180000 0.080000 0
1.200000 0.080000 0
1.220000 0.080000 0
1.240000 0.080000 0
1.260000 0.080000 0
1.280000 0.080000 0
1.300000 0.080000 0
1.320000 0.080000 0
1.340000 0.080000 0
1.360000 0.080000 0
1.380000 0.080000 0
1.400000 0.080000 0
1.420000 0.080000 0
1.440000 0.080000 0
1.460000 0.080000 0
1.480000 0.080000 0
1.500000 0.080000 0
1.520000 0.080000 0
1.540000 0.080000 0
1.560000 0.080000 0
1.580000 0.080000 0
1.600000 0.080000 0
1.620000 0.080000 0
1.640000 0.080000 0
1.660000 0.080000 0
1.680000 0.080000 0
1.700000 0.080000 0
1.720000 0.080000 0
1.740000 0.080000 0
1.760000 0.080000 0
1.780000 0.080000 0
1.800000 0.080000 0
1.820000 0.080000 0
1.840000 0.080000 0
1.860000 0.080000 0
1.880000 0.080000 0
[...]
POINT_DATA 4851 

VECTORS velocity float
0.000000 0.000000 0
-0.000444 0.000000 0
-0.000583 0.000000 0
-0.000532 0.000000 0
-0.000444 0.000000 0
-0.000368 0.000000 0
-0.000312 0.000000 0
-0.000270 0.000000 0
-0.000239 0.000000 0
-0.000215 0.000000 0
-0.000196 0.000000 0
-0.000180 0.000000 0
-0.000166 0.000000 0
-0.000154 0.000000 0
-0.000144 0.000000 0
-0.000134 0.000000 0
-0.000125 0.000000 0
-0.000117 0.000000 0
-0.000109 0.000000 0
-0.000102 0.000000 0
-0.000095 0.000000 0
-0.000088 0.000000 0
-0.000082 0.000000 0
-0.000076 0.000000 0
-0.000070 0.000000 0
-0.000064 0.000000 0
-0.000059 0.000000 0
-0.000054 0.000000 0
-0.000049 0.000000 0
-0.000044 0.000000 0
-0.000039 0.000000 0
-0.000032 0.000000 0
-0.000025 0.000000 0
-0.000017 0.000000 0
-0.000009 0.000000 0
-0.000002 0.000000 0
0.000000 0.000000 0
0.000000 0.000000 0
0.000000 0.000000 0
0.000000 0.000000 0
0.000000 0.000000 0
-0.000029 0.000000 0
-0.000085 0.000000 0
-0.000139 0.000000 0
-0.000179 0.000000 0
-0.000205 0.000000 0
-0.000220 0.000000 0
-0.000229 0.000000 0
-0.000235 0.000000 0
-0.000239 0.000000 0
-0.000242 0.000000 0
-0.000245 0.000000 0
-0.000248 0.000000 0
-0.000250 0.000000 0
-0.000252 0.000000 0
-0.000254 0.000000 0
-0.000256 0.000000 0
-0.000257 0.000000 0
-0.000259 0.000000 0
-0.000260 0.000000 0
-0.000262 0.000000 0
-0.000263 0.000000 0
-0.000264 0.000000 0
-0.000265 0.000000 0
-0.000266 0.000000 0
-0.000267 0.000000 0
-0.000268 0.000000 0
-0.000269 0.000000 0
-0.000270 0.000000 0
-0.000270 0.000000 0
-0.000271 0.000000 0
-0.000272 0.000000 0
-0.000272 0.000000 0
-0.000273 0.000000 0
-0.000274 0.000000 0
-0.000275 0.000000 0
-0.000276 0.000000 0
-0.000277 0.000000 0
-0.000278 0.000000 0
-0.000278 0.000000 0
-0.000278 0.000000 0
-0.000278 0.000000 0
-0.000276 0.000000 0
-0.000274 0.000000 0
-0.000270 0.000000 0
-0.000267 0.000000 0
-0.000266 0.000000 0
-0.000268 0.000000 0
-0.000277 0.000000 0
-0.000295 0.000000 0
-0.000322 0.000000 0
-0.000355 0.000000 0
-0.000390 0.000000 0
-0.000414 0.000000 0
-0.000412 0.000000 0
-0.000363 0.000000 0
-0.000256 0.000000 0
-0.000107 0.000000 0
0.000000 0.000000 0
0.000000 0.000445 0
-0.000885 0.000583 0
-0.001359 0.000088 0
-0.001410 -0.000138 0
-0.001295 -0.000163 0
-0.001150 -0.000132 0
-0.001017 -0.000098 0
-0.000907 -0.000072 0
-0.000817 -0.000054 0
-0.000744 -0.000043 0
-0.000683 -0.000035 0
-0.000630 -0.000029 0
-0.000585 -0.000025 0
-0.000545 -0.000022 0
-0.000508 -0.000020 0
-0.000475 -0.000018 0
-0.000444 -0.000017 0
-0.000415 -0.000015 0
-0.000388 -0.000014 0
-0.000362 -0.000014 0
-0.000338 -0.000013 0
-0.000314 -0.000012 0
-0.000292 -0.000012 0
-0.000270 -0.000011 0
-0.000249 -0.000011 0
-0.000230 -0.000010 0
-0.000210 -0.000010 0
-0.000192 -0.000009 0
-0.000173 -0.000009 0
-0.000154 -0.000010 0
-0.000134 -0.000011 0
-0.000112 -0.000013 0
-0.000086 -0.000015 0
-0.000059 -0.000016 0
-0.000031 -0.000014 0
-0.000009 -0.000008 0
0.000000 -0.000002 0
0.000000 0.000000 0
0.000000 0.000000 0
0.000000 0.000000 0
0.000000 0.000029 0
-0.000084 0.000084 0
-0.000238 0.000109 0
-0.000394 0.000094 0
-0.000519 0.000065 0
-0.000608 0.000041 0
-0.000668 0.000024 0
-0.000708 0.000014 0
-0.000735 0.000009 0
-0.000755 0.000007 0
-0.000771 0.000005 0
-0.000785 0.000005 0
-0.000796 0.000004 0
-0.000806 0.000004 0
-0.000816 0.000004 0
-0.000824 0.000003 0
-0.000832 0.000003 0
-0.000839 0.000003 0
-0.000845 0.000002 0
-0.000851 0.000002 0
-0.000857 0.000002 0
-0.000862 0.000002 0
-0.000866 0.000002 0
-0.000871 0.000002 0
-0.000875 0.000002 0
-0.000879 0.000001 0
-0.000882 0.000001 0
-0.000886 0.000001 0
-0.000889 0.000001 0
-0.000891 0.000001 0
-0.000894 0.000001 0
-0.000897 0.000001 0
-0.000899 0.000001 0
-0.000902 0.000001 0
-0.000904 0.000001 0
-0.000907 0.000001 0
-0.000909 0.000001 0
-0.000912 0.000001 0
-0.000914 0.000001 0
-0.000915 0.000000 0
-0.000914 -0.000001 0
-0.000911 -0.000003 0
-0.000906 -0.000005 0
-0.000897 -0.000006 0
-0.000887 -0.000007 0
-0.000879 -0.000005 0
-0.000877 0.000001 0
-0.000887 0.000011 0
-0.000917 0.000026 0
-0.000969 0.000044 0
-0.001045 0.000060 0
-0.001136 0.000068 0
-0.001219 0.000058 0
-0.001263 0.000021 0
-0.001220 -0.000052 0
-0.001045 -0.000157 0
-0.000716 -0.000256 0
-0.000294 -0.000256 0
0.000000 -0.000107 0
0.000000 0.000886 0
-0.000772 0.001360 0
-0.001480 0.000525 0
-0.001787 -0.000063 0
-0.001824 -0.000259 0
-0.001738 -0.000277 0
-0.001612 -0.000242 0
-0.001484 -0.000199 0
-0.001365 -0.000162 0
-0.001260 -0.000134 0
-0.001168 -0.000113 0
-0.001086 -0.000097 0
-0.001013 -0.000085 0
-0.000947 -0.000076 0
-0.000886 -0.000069 0
-0.000830 -0.000063 0
-0.000778 -0.000059 0
-0.000729 -0.000055 0
-0.000682 -0.000052 0
-0.000638 -0.000050 0
-0.000595 -0.000047 0
-0.000554 -0.000045 0
-0.000515 -0.000043 0
-0.000477 -0.000041 0
-0.000440 -0.000040 0
-0.000405 -0.000038 0
-0.000370 -0.000037 0
-0.000336 -0.000036 0
-0.000302 -0.000037 0
-0.000268 -0.000039 0
-0.000231 -0.000042 0
-0.000191 -0.000047 0
-0.000147 -0.000052 0
-0.000101 -0.000054 0
-0.000056 -0.000049 0
-0.000018 -0.000031 0
0.000000 -0.000009 0
0.000000 0.000000 0
0.000000 0.000000 0
0.000000 0.000000 0
0.000000 0.000084 0
-0.000112 0.000237 0
-0.000315 0.000309 0
-0.000531 0.000280 0
-0.000718 0.000214 0
-0.000864 0.000148 0
-0.000972 0.000099 0
-0.001050 0.000067 0
-0.001107 0.000047 0
-0.001151 0.000035 0
-0.001186 0.000029 0
-0.001215 0.000024 0
-0.001240 0.000021 0
-0.001262 0.000019 0
-0.001282 0.000017 0
-0.001300 0.000016 0
-0.001316 0.000014 0
-0.001331 0.000013 0
-0.001345 0.000012 0
-0.001357 0.000011 0
-0.001368 0.000010 0
-0.001379 0.000009 0
-0.001388 0.000009 0
-0.001397 0.000008 0
-0.001406 0.000007 0
-0.001413 0.000007 0
-0.001420 0.000006 0
-0.001427 0.000006 0
-0.001433 0.000005 0
-0.001438 0.000005 0
-0.001444 0.000005 0
-0.001448 0.000004 0
-0.001453 0.000004 0
-0.001457 0.000004 0
-0.001461 0.000005 0
-0.001465 0.000005 0
-0.001469 0.000005 0
-0.001473 0.000004 0
-0.001475 0.000002 0
-0.001476 -0.000000 0
-0.001474 -0.000004 0
-0.001468 -0.000009 0
-0.001459 -0.000015 0
-0.001446 -0.000019 0
-0.001432 -0.000019 0
-0.001421 -0.000011 0
-0.001421 0.000008 0
-0.001439 0.000039 0
-0.001484 0.000082 0
-0.001559 0.000128 0
-0.001663 0.000166 0
-0.001777 0.000173 0
-0.001870 0.000127 0
-0.001891 0.000001 0
-0.001779 -0.000218 0
-0.001481 -0.000505 0
-0.000987 -0.000751 0
-0.000396 -0.000717 0
0.000000 -0.000295 0
0.000000 0.001217 0
-0.000570 0.002064 0
-0.001288 0.001104 0
-0.001740 0.000206 0
-0.001924 -0.000212 0
-0.001943 -0.000343 0
-0.001878 -0.000351 0
-0.001780 -0.000319 0
-0.001673 -0.000278 0
-0.001568 -0.000240 0
-0.001469 -0.000209 0
-0.001378 -0.000184 0
-0.001293 -0.000164 0
-0.001215 -0.000148 0
-0.001142 -0.000136 0
-0.001073 -0.000126 0
-0.001008 -0.000118 0
-0.000947 -0.000111 0
-0.000888 -0.000105 0
-0.000831 -0.000100 0
-0.000777 -0.000096 0
-0.000724 -0.000092 0
-0.000673 -0.000089 0
-0.000623 -0.000085 0
-0.000575 -0.000082 0
-0.000528 -0.000080 0
-0.000482 -0.000078 0
-0.000437 -0.000077 0
-0.000392 -0.000078 0
-0.000345 -0.000081 0
-0.000297 -0.000087 0
-0.000245 -0.000096 0
-0.000189 -0.000104 0
-0.000130 -0.000108 0
-0.000072 -0.000097 0
-0.000024 -0.000063 0
0.000000 -0.000020 0
0.000000 0.000000 0
0.000000 0.000000 0
0.000000 0.000000 0
0.000000 0.000140 0
-0.000103 0.000399 0
-0.000299 0.000528 0
-0.000519 0.000497 0
-0.000722 0.000399 0
-0.000891 0.000294 0
-0.001024 0.000210 0
-0.001127 0.000150 0
-0.001207 0.000110 0
-0.001271 0.000085 0
-0.001323 0.000069 0
-0.001367 0.000059 0
-0.001406 0.000051 0
-0.001440 0.000046 0
-0.001470 0.000041 0
-0.001498 0.000037 0
-0.001523 0.000034 0
-0.001546 0.000031 0
-0.001566 0.000028 0
-0.001585 0.000026 0
-0.001603 0.000024 0
-0.001619 0.000022 0
-0.001634 0.000020 0
-0.001647 0.000019 0
-0.001660 0.000017 0
-0.001671 0.000016 0
-0.001682 0.000015 0
-0.001692 0.000014 0
-0.001701 0.000012 0
-0.001710 0.000011 0
-0.001717 0.000011 0
-0.001725 0.000010 0
-0.001731 0.000010 0
-0.001738 0.000009 0
-0.001743 0.000009 0
-0.001749 0.000009 0
-0.001754 0.000008 0
-0.001759 0.000007 0
-0.001762 0.000004 0
-0.001763 -0.000001 0
-0.001761 -0.000009 0
-0.001755 -0.000018 0
-0.001745 -0.000027 0
-0.001732 -0.000033 0
-0.001718 -0.000032 0
-0.001709 -0.000016 0
-0.001710 0.000018 0
-0.001731 0.000074 0
-0.001779 0.000146 0
-0.001859 0.000223 0
-0.001963 0.000277 0
-0.002073 0.000275 0
-0.002150 0.000172 0
-0.002139 -0.000069 0
-0.001979 -0.000461 0
-0.001617 -0.000949 0
-0.001058 -0.001342 0
-0.000415 -0.001244 0
0.000000 -0.000503 0
0.000000 0.001457 0
-0.000416 0.002649 0
-0.001062 0.001695 0
-0.001554 0.000574 0
-0.001824 -0.000056 0
-0.001925 -0.000323 0
-0.001925 -0.000404 0
-0.001871 -0.000404 0
-0.001792 -0.000374 0
-0.001704 -0.000338 0
-0.001615 -0.000303 0
-0.001528 -0.000273 0
-0.001444 -0.000248 0
-0.001364 -0.000227 0
-0.001288 -0.000210 0
-0.001215 -0.000197 0
-0.001145 -0.000185 0
-0.001078 -0.000176 0
-0.001013 -0.000167 0
-0.000950 -0.000160 0
-0.000889 -0.000154 0
-0.000830 -0.000149 0
-0.000772 -0.000144 0
-0.000715 -0.000139 0
-0.000660 -0.000134 0
-0.000605 -0.000131 0
-0.000552 -0.000128 0
-0.000499 -0.000127 0
-0.000446 -0.000128 0
-0.000392 -0.000133 0
-0.000336 -0.000143 0
-0.000276 -0.000155 0
-0.000213 -0.000167 0
-0.000147 -0.000170 0
-0.000082 -0.000154 0
-0.000027 -0.000102 0
0.000000 -0.000033 0
0.000000 0.000000 0
0.000000 0.000000 0
0.000000 0.000000 0
0.000000 0.000186 0
-0.000078 0.000536 0
-0.000237 0.000725 0
-0.000427 0.000702 0
-0.000613 0.000585 0
-0.000777 0.000451 0
-0.000914 0.000335 0
-0.001025 0.000250 0
-0.001117 0.000190 0
-0.001192 0.000151 0
-0.001256 0.000125 0
-0.001312 0.000107 0
-0.001361 0.000093 0
-0.001406 0.000083 0
-0.001446 0.000075 0
-0.001483 0.000068 0
-0.001516 0.000062 0
-0.001547 0.000056 0
-0.001575 0.000051 0
-0.001601 0.000047 0
-0.001624 0.000043 0
-0.001646 0.000040 0
-0.001666 0.000037 0
-0.001684 0.000034 0
-0.001701 0.000031 0
-0.001717 0.000029 0
-0.001732 0.000027 0
-0.001745 0.000025 0
-0.001758 0.000023 0
-0.001770 0.000021 0
-0.001781 0.000019 0
-0.001791 0.000018 0
-0.001801 0.000017 0
-0.001810 0.000016 0
-0.001818 0.000016 0
-0.001826 0.000015 0
-0.001833 0.000014 0
-0.001839 0.000011 0
-0.001845 0.000006 0
-0.001848 -0.000001 0
-0.001848 -0.000012 0
-0.001846 -0.000025 0
-0.001839 -0.000038 0
-0.001830 -0.000046 0
-0.001820 -0.000043 0
-0.001813 -0.000020 0
-0.001817 0.000030 0
-0.001838 0.000108 0
-0.001884 0.000209 0
-0.001957 0.000312 0
-0.002051 0.000379 0
-0.002147 0.000359 0
-0.002205 0.000193 0
-0.002172 -0.000171 0
-0.001988 -0.000740 0
-0.001607 -0.001425 0
-0.001039 -0.001954 0
-0.000401 -0.001775 0
0.000000 -0.000710 0
0.000000 0.001634 0
-0.000310 0.003127 0
-0.000868 0.002242 0
-0.001343 0.000968 0
-0.001644 0.000159 0
-0.001793 -0.000242 0
-0.001839 -0.000405 0
-0.001824 -0.000451 0
-0.001776 -0.000444 0
-0.001710 -0.000417 0
-0.001638 -0.000385 0
-0.001562 -0.000354 0
-0.001487 -0.000327 0
-0.001413 -0.000304 0
-0.001340 -0.000285 0
-0.001270 -0.000268 0
-0.001201 -0.000255 0
-0.001133 -0.000243 0
-0.001068 -0.000233 0
-0.001004 -0.000224 0
-0.000941 -0.000216 0
-0.000879 -0.000210 0
-0.000818 -0.000203 0
-0.000758 -0.000197 0
-0.000700 -0.000192 0
-0.000642 -0.000187 0
-0.000585 -0.000183 0
-0.000528 -0.000182 0
-0.000471 -0.000184 0
-0.000413 -0.000191 0
-0.000353 -0.000203 0
-0.000290 -0.000219 0
-0.000223 -0.000234 0
-0.000154 -0.000238 0
-0.000086 -0.000216 0
-0.000029 -0.000145 0
0.000000 -0.000047 0
0.000000 0.000000 0
0.000000 0.000000 0
0.000000 0.000000 0
0.000000 0.000217 0
-0.000048 0.000635 0
-0.000158 0.000877 0
-0.000298 0.000872 0
-0.000446 0.000748 0
-0.000585 0.000595 0
-0.000708 0.000458 0
-0.000813 0.000352 0
-0.000903 0.000277 0
-0.000981 0.000225 0
-0.001050 0.000189 0
-0.001113 0.000164 0
-0.001169 0.000145 0
-0.001221 0.000130 0
-0.001270 0.000118 0
-0.001314 0.000107 0
-0.001356 0.000098 0
-0.001394 0.000089 0
-0.001429 0.000082 0
-0.001461 0.000075 0
-0.001491 0.000069 0
-0.001518 0.000063 0
-0.001544 0.000058 0
-0.001567 0.000054 0
-0.001588 0.000050 0
-0.001608 0.000046 0
-0.001627 0.000043 0
-0.001645 0.000040 0
-0.001662 0.000037 0
-0.001678 0.000034 0
-0.001692 0.000032 0
-0.001706 0.000029 0
-0.001720 0.000028 0
-0.001732 0.000026 0
-0.001744 0.000025 0
-0.001755 0.000024 0
-0.001765 0.000022 0
-0.001775 0.000018 0
-0.001784 0.000012 0
-0.001792 0.000002 0
-0.001798 -0.000011 0
-0.001801 -0.000027 0
-0.001801 -0.000043 0
-0.001798 -0.000053 0
-0.001794 -0.000049 0
-0.001793 -0.000020 0
-0.001800 0.000042 0
-0.001820 0.000141 0
-0.001861 0.000265 0
-0.001924 0.000390 0
-0.002005 0.000467 0
-0.002084 0.000428 0
-0.002127 0.000197 0
-0.002082 -0.000287 0
-0.001894 -0.001026 0
-0.001523 -0.001897 0
-0.000979 -0.002548 0
-0.000375 -0.002283 0
0.000000 -0.000905 0
0.000000 0.001768 0
-0.000236 0.003518 0
-0.000711 0.002729 0
-0.001147 0.001350 0
-0.001445 0.000393 0
-0.001612 -0.000128 0
-0.001683 -0.000372 0
-0.001694 -0.000467 0
-0.001669 -0.000488 0
-0.001625 -0.000475 0
-0.001570 -0.000451 0
-0.001509 -0.000423 0
-0.001446 -0.000397 0
-0.001382 -0.000374 0
-0.001318 -0.000353 0
-0.001253 -0.000336 0
-0.001190 -0.000321 0
-0.001126 -0.000308 0
-0.001064 -0.000297 0
-0.001002 -0.000287 0
-0.000941 -0.000279 0
-0.000880 -0.000271 0
-0.000820 -0.000264 0
-0.000761 -0.000257 0
-0.000702 -0.000251 0
-0.000644 -0.000245 0
-0.000586 -0.000241 0
-0.000528 -0.000240 0
-0.000470 -0.000243 0
-0.000412 -0.000251 0
-0.000351 -0.000265 0
-0.000288 -0.000284 0
-0.000222 -0.000302 0
-0.000153 -0.000308 0
-0.000085 -0.000280 0
-0.000028 -0.000188 0
0.000000 -0.000061 0
0.000000 0.000000 0
0.000000 0.000000 0
0.000000 0.000000 0
0.000000 0.000234 0
-0.000020 0.000693 0
-0.000078 0.000975 0
-0.000162 0.000991 0
-0.000261 0.000872 0
-0.000362 0.000712 0
-0.000458 0.000563 0
-0.000545 0.000445 0
-0.000624 0.000359 0
-0.000696 0.000298 0
-0.000763 0.000256 0
-0.000825 0.000225 0
-0.000885 0.000202 0
-0.000941 0.000183 0
-0.000995 0.000168 0
-0.001046 0.000154 0
-0.001093 0.000141 0
-0.001138 0.000129 0
-0.001180 0.000119 0
-0.001219 0.000109 0
-0.001255 0.000100 0
-0.001287 0.000092 0
-0.001318 0.000085 0
-0.001346 0.000078 0
-0.001372 0.000073 0
-0.001396 0.000068 0
-0.001419 0.000063 0
-0.001441 0.000059 0
-0.001462 0.000055 0
-0.001482 0.000051 0
-0.001501 0.000048 0
-0.001520 0.000045 0
-0.001537 0.000042 0
-0.001554 0.000040 0
-0.001570 0.000039 0
-0.001586 0.000037 0
-0.001601 0.000034 0
-0.001615 0.000030 0
-0.001630 0.000023 0
-0.001643 0.000012 0
-0.001656 -0.000004 0
-0.001666 -0.000022 0
-0.001675 -0.000041 0
-0.001681 -0.000052 0
-0.001686 -0.000048 0
-0.001692 -0.000015 0
-0.001702 0.000056 0
-0.001722 0.000169 0
-0.001757 0.000313 0
-0.001809 0.000456 0
-0.001875 0.000539 0
-0.001939 0.000481 0
-0.001969 0.000190 0
-0.001921 -0.000403 0
-0.001743 -0.001299 0
-0.001400 -0.002341 0
-0.000899 -0.003102 0
-0.000344 -0.002754 0
0.000000 -0.001085 0
0.000000 0.001871 0
-0.000183 0.003839 0
-0.000587 0.003154 0
-0.000976 0.001702 0
-0.001254 0.000624 0
-0.001418 -0.000004 0
-0.001497 -0.000323 0
-0.001520 -0.000464 0
-0.001511 -0.000513 0
-0.001482 -0.000516 0
-0.001442 -0.000500 0
-0.001396 -0.000478 0
-0.001346 -0.000454 0
-0.001293 -0.000433 0
-0.001239 -0.000413 0
-0.001183 -0.000396 0
-0.001127 -0.000381 0
-0.001071 -0.000368 0
-0.001014 -0.000357 0
-0.000957 -0.000347 0
-0.000900 -0.000338 0
-0.000843 -0.000330 0
-0.000786 -0.000322 0
-0.000730 -0.000315 0
-0.000673 -0.000309 0
-0.000617 -0.000303 0
-0.000561 -0.000299 0
-0.000505 -0.000297 0
-0.000449 -0.000301 0
-0.000393 -0.000310 0
-0.000335 -0.000326 0
-0.000274 -0.000348 0
-0.000211 -0.000369 0
-0.000145 -0.000375 0
-0.000081 -0.000341 0
-0.000027 -0.000230 0
0.000000 -0.000075 0
0.000000 0.000000 0
0.000000 0.000000 0
0.000000 0.000000 0
0.000000 0.000237 0
0.000003 0.000712 0
-0.000007 0.001019 0
-0.000037 0.001055 0
-0.000083 0.000948 0
-0.000140 0.000791 0
-0.000201 0.000641 0
-0.000262 0.000518 0
-0.000322 0.000427 0
-0.000381 0.000363 0
-0.000439 0.000318 0
-0.000496 0.000286 0
-0.000553 0.000261 0
-0.000610 0.000240 0
-0.000666 0.000222 0
-0.000720 0.000206 0
-0.000773 0.000190 0
-0.000823 0.000176 0
-0.000871 0.000162 0
-0.000916 0.000149 0
-0.000957 0.000137 0
-0.000996 0.000126 0
-0.001031 0.000116 0
-0.001064 0.000108 0
-0.001094 0.000100 0
-0.001123 0.000093 0
-0.001150 0.000088 0
-0.001175 0.000082 0
-0.001200 0.000078 0
-0.001225 0.000073 0
-0.001249 0.000069 0
-0.001272 0.000065 0
-0.001294 0.000062 0
-0.001316 0.000059 0
-0.001337 0.000057 0
-0.001357 0.000054 0
-0.001377 0.000051 0
-0.001397 0.000047 0
-0.001418 0.000040 0
-0.001438 0.000028 0
-0.001458 0.000012 0
-0.001477 -0.000008 0
-0.001495 -0.000029 0
-0.001511 -0.000042 0
-0.001526 -0.000038 0
-0.001539 -0.000004 0
-0.001554 0.000073 0
-0.001575 0.000195 0
-0.001604 0.000353 0
-0.001646 0.000508 0
-0.001697 0.000596 0
-0.001746 0.000521 0
-0.001766 0.000179 0
-0.001720 -0.000513 0
-0.001562 -0.001547 0
-0.001257 -0.002742 0
-0.000810 -0.003604 0
-0.000311 -0.003182 0
0.000000 -0.001248 0
0.000000 0.001952 0
-0.000144 0.004105 0
-0.000488 0.003522 0
-0.000831 0.002017 0
-0.001081 0.000836 0
-0.001231 0.000116 0
-0.001306 -0.000270 0
-0.001331 -0.000453 0
-0.001328 -0.000526 0
-0.001308 -0.000544 0
-0.001279 -0.000537 0
-0.001245 -0.000519 0
-0.001206 -0.000500 0
-0.001165 -0.000480 0
-0.001121 -0.000463 0
-0.001075 -0.000447 0
-0.001028 -0.000433 0
-0.000979 -0.000421 0
-0.000930 -0.000410 0
-0.000880 -0.000401 0
-0.000829 -0.000392 0
-0.000777 -0.000384 0
-0.000726 -0.000377 0
-0.000674 -0.000370 0
-0.000622 -0.000363 0
-0.000569 -0.000357 0
-0.000517 -0.000353 0
-0.000465 -0.000352 0
-0.000413 -0.000355 0
-0.000360 -0.000366 0
-0.000306 -0.000384 0
-0.000250 -0.000408 0
-0.000192 -0.000431 0
-0.000132 -0.000437 0
-0.000073 -0.000398 0
-0.000024 -0.000268 0
0.000000 -0.000088 0
0.000000 0.000000 0
0.000000 0.000000 0
0.000000 0.000000 0
0.000000 0.000230 0
0.000020 0.000700 0
0.000050 0.001014 0
0.000069 0.001067 0
0.000073 0.000975 0
0.000061 0.000830 0
0.000037 0.000685 0
0.000006 0.000566 0
-0.000030 0.000477 0
-0.000071 0.000415 0
-0.000115 0.000371 0
-0.000162 0.000340 0
-0.000212 0.000316 0
-0.000264 0.000296 0
-0.000318 0.000277 0
-0.000372 0.000260 0
-0.000427 0.000244 0
-0.000481 0.000227 0
-0.000534 0.000211 0
-0.000585 0.000195 0
-0.000633 0.000180 0
-0.000677 0.000166 0
-0.000719 0.000153 0
-0.000756 0.000141 0
-0.000790 0.000131 0
-0.000822 0.000123 0
-0.000853 0.000116 0
-0.000882 0.000110 0
-0.000910 0.000104 0
-0.000938 0.000099 0
-0.000966 0.000095 0
-0.000993 0.000090 0
-0.001021 0.000086 0
-0.001047 0.000083 0
-0.001073 0.000080 0
-0.001099 0.000077 0
-0.001125 0.000074 0
-0.001150 0.000070 0
-0.001176 0.000063 0
-0.001202 0.000052 0
-0.001230 0.000036 0
-0.001257 0.000015 0
-0.001285 -0.000007 0
-0.001311 -0.000022 0
-0.001335 -0.000020 0
-0.001357 0.000014 0
-0.001378 0.000092 0
-0.001399 0.000219 0
-0.001424 0.000384 0
-0.001456 0.000549 0
-0.001493 0.000639 0
-0.001529 0.000550 0
-0.001542 0.000165 0
-0.001501 -0.000608 0
-0.001367 -0.001762 0
-0.001107 -0.003093 0
-0.000718 -0.004049 0
-0.000278 -0.003564 0
0.000000 -0.001396 0
0.000000 0.002016 0
-0.000115 0.004327 0
-0.000408 0.003840 0
-0.000709 0.002296 0
-0.000930 0.001024 0
-0.001061 0.000221 0
-0.001123 -0.000223 0
-0.001143 -0.000442 0
-0.001140 -0.000535 0
-0.001124 -0.000564 0
-0.001102 -0.000563 0
-0.001076 -0.000550 0
-0.001047 -0.000534 0
-0.001016 -0.000518 0
-0.000981 -0.000503 0
-0.000945 -0.000489 0
-0.000906 -0.000477 0
-0.000866 -0.000466 0
-0.000824 -0.000457 0
-0.000781 -0.000448 0
-0.000737 -0.000440 0
-0.000692 -0.000433 0
-0.000646 -0.000426 0
-0.000600 -0.000419 0
-0.000553 -0.000413 0
-0.000507 -0.000407 0
-0.000460 -0.000403 0
-0.000413 -0.000402 0
-0.000365 -0.000405 0
-0.000318 -0.000416 0
-0.000270 -0.000436 0
-0.000220 -0.000462 0
-0.000168 -0.000487 0
-0.000115 -0.000493 0
-0.000064 -0.000448 0
-0.000021 -0.000303 0
0.000000 -0.000099 0
0.000000 0.000000 0
0.000000 0.000000 0
0.000000 0.000000 0
0.000000 0.000216 0
0.000032 0.000662 0
0.000092 0.000970 0
0.000152 0.001032 0