# vtk DataFile Version 2.0
generated by CFD-lab course output (written by Tobias Neckel) 
ASCII

DATASET STRUCTURED_GRID
DIMENSIONS  99 49 1 
POINTS 4851 float

0.000000 0.000000 0
0.020000 0.000000 0
0.040000 0.000000 0
0.060000 0.000000 0
0.080000 0.000000 0
0.100000 0.000000 0
0.120000 0.000000 0
0.140000 0.000000 0
0.160000 0.000000 0
0.180000 0.000000 0
0.200000 0.000000 0
0.220000 0.000000 0
0.240000 0.000000 0
0.260000 0.000000 0
0.280000 0.000000 0
0.300000 0.000000 0
0.320000 0.000000 0
0.340000 0.000000 0
0.360000 0.000000 0
0.380000 0.000000 0
0.400000 0.000000 0
0.420000 0.000000 0
0.440000 0.000000 0
0.460000 0.000000 0
0.480000 0.000000 0
0.500000 0.000000 0
0.520000 0.000000 0
0.540000 0.000000 0
0.560000 0.000000 0
0.580000 0.000000 0
0.600000 0.000000 0
0.620000 0.000000 0
0.640000 0.000000 0
0.660000 0.000000 0
0.680000 0.000000 0
0.700000 0.000000 0
0.720000 0.000000 0
0.740000 0.000000 0
0.760000 0.000000 0
0.780000 0.000000 0
0.800000 0.000000 0
0.820000 0.000000 0
0.840000 0.000000 0
0.860000 0.000000 0
0.880000 0.000000 0
0.900000 0.000000 0
0.920000 0.000000 0
0.940000 0.000000 0
0.960000 0.000000 0
0.980000 0.000000 0
1.000000 0.000000 0
1.020000 0.000000 0
1.040000 0.000000 0
1.060000 0.000000 0
1.080000 0.000000 0
1.100000 0.000000 0
1.120000 0.000000 0
1.140000 0.000000 0
1.160000 0.000000 0
1.180000 0.000000 0
1.200000 0.000000 0
1.220000 0.000000 0
1.240000 0.000000 0
1.260000 0.000000 0
1.280000 0.000000 0
1.300000 0.000000 0
1.320000 0.000000 0
1.340000 0.000000 0
1.360000 0.000000 0
1.380000 0.000000 0
1.400000 0.000000 0
1.420000 0.000000 0
1.440000 0.000000 0
1.460000 0.000000 0
1.480000 0.000000 0
1.500000 0.000000 0
1.520000 0.000000 0
1.540000 0.000000 0
1.560000 0.000000 0
1.580000 0.000000 0
1.600000 0.000000 0
1.620000 0.000000 0
1.640000 0.000000 0
1.660000 0.000000 0
1.680000 0.000000 0
1.700000 0.000000 0
1.720000 0.000000 0
1.740000 0.000000 0
1.760000 0.000000 0
1.780000 0.000000 0
1.800000 0.000000 0
1.820000 0.000000 0
1.840000 0.000000 0
1.860000 0.000000 0
1.880000 0.000000 0
1.900000 0.000000 0
1.920000 0.000000 0
1.940000 0.000000 0
1.960000 0.000000 0
0.000000 0.020000 0
0.020000 0.020000 0
0.040000 0.020000 0
0.060000 0.020000 0
0.080000 0.020000 0
0.100000 0.020000 0
0.120000 0.020000 0
0.140000 0.020000 0
0.160000 0.020000 0
0.180000 0.020000 0
0.200000 0.020000 0
0.220000 0.020000 0
0.240000 0.020000 0
0.260000 0.020000 0
0.280000 0.020000 0
0.300000 0.020000 0
0.320000 0.020000 0
0.340000 0.020000 0
0.360000 0.020000 0
0.380000 0.020000 0
0.400000 0.020000 0
0.420000 0.020000 0
0.440000 0.020000 0
0.460000 0.020000 0
0.480000 0.020000 0
0.500000 0.020000 0
0.520000 0.020000 0
0.540000 0.020000 0
0.560000 0.020000 0
0.580000 0.020000 0
0.600000 0.020000 0
0.620000 0.020000 0
0.640000 0.020000 0
0.660000 0.020000 0
0.680000 0.020000 0
0.700000 0.020000 0
0.720000 0.020000 0
0.740000 0.020000 0
0.760000 0.020000 0
0.780000 0.020000 0
0.800000 0.020000 0
0.820000 0.020000 0
0.840000 0.020000 0
0.860000 0.020000 0
0.880000 0.020000 0
0.900000 0.020000 0
0.920000 0.020000 0
0.940000 0.020000 0
0.960000 0.020000 0
0.980000 0.020000 0
1.000000 0.020000 0
1.020000 0.020000 0
1.040000 0.020000 0
1.060000 0.020000 0
1.080000 0.020000 0
1.100000 0.020000 0
1.120000 0.020000 0
1.140000 0.020000 0
1.160000 0.020000 0
1.180000 0.020000 0
1.200000 0.020000 0
1.220000 0.020000 0
1.240000 0.020000 0
1.260000 0.020000 0
1.280000 0.020000 0
1.300000 0.020000 0
1.320000 0.020000 0
1.340000 0.020000 0
1.360000 0.020000 0
1.380000 0.020000 0
1.400000 0.020000 0
1.420000 0.020000 0
1.440000 0.020000 0
1.460000 0.020000 0
1.480000 0.020000 0
1.500000 0.020000 0
1.520000 0.020000 0
1.540000 0.020000 0
1.560000 0.020000 0
1.580000 0.020000 0
1.600000 0.020000 0
1.620000 0.020000 0
1.640000 0.020000 0
1.660000 0.020000 0
1.680000 0.020000 0
1.700000 0.020000 0
1.720000 0.020000 0
1.740000 0.020000 0
1.760000 0.020000 0
1.780000 0.020000 0
1.800000 0.020000 0
1.820000 0.020000 0
1.840000 0.020000 0
1.860000 0.020000 0
1.880000 0.020000 0
1.900000 0.020000 0
1.920000 0.020000 0
1.940000 0.020000 0
1.960000 0.020000 0
0.000000 0.040000 0
0.020000 0.040000 0
0.040000 0.040000 0
0.060000 0.040000 0
0.080000 0.040000 0
0.100000 0.040000 0
0.120000 0.040000 0
0.140000 0.040000 0
0.160000 0.040000 0
0.180000 0.040000 0
0.200000 0.040000 0
0.220000 0.040000 0
0.240000 0.040000 0
0.260000 0.040000 0
0.280000 0.040000 0
0.300000 0.040000 0
0.320000 0.040000 0
0.340000 0.040000 0
0.360000 0.040000 0
0.380000 0.040000 0
0.400000 0.040000 0
0.420000 0.040000 0
0.440000 0.040000 0
0.460000 0.040000 0
0.480000 0.040000 0
0.500000 0.040000 0
0.520000 0.040000 0
0.540000 0.040000 0
0.560000 0.040000 0
0.580000 0.040000 0
0.600000 0.040000 0
0.620000 0.040000 0
0.640000 0.040000 0
0.660000 0.040000 0
0.680000 0.040000 0
0.700000 0.040000 0
0.720000 0.040000 0
0.740000 0.040000 0
0.760000 0.040000 0
0.780000 0.040000 0
0.800000 0.040000 0
0.820000 0.040000 0
0.840000 0.040000 0
0.860000 0.040000 0
0.880000 0.040000 0
0.900000 0.040000 0
0.920000 0.040000 0
0.940000 0.040000 0
0.960000 0.040000 0
0.980000 0.040000 0
1.000000 0.040000 0
1.020000 0.040000 0
1.040000 0.040000 0
1.060000 0.040000 0
1.080000 0.040000 0
1.100000 0.040000 0
1.120000 0.040000 0
1.140000 0.040000 0
1.160000 0.040000 0
1.180000 0.040000 0
1.200000 0.040000 0
1.220000 0.040000 0
1.240000 0.040000 0
1.260000 0.040000 0
1.280000 0.040000 0
1.300000 0.040000 0
1.320000 0.040000 0
1.340000 0.040000 0
1.360000 0.040000 0
1.380000 0.040000 0
1.400000 0.040000 0
1.420000 0.040000 0
1.440000 0.040000 0
1.460000 0.040000 0
1.480000 0.040000 0
1.500000 0.040000 0
1.520000 0.040000 0
1.540000 0.040000 0
1.560000 0.040000 0
1.580000 0.040000 0
1.600000 0.040000 0
1.620000 0.040000 0
1.640000 0.040000 0
1.660000 0.040000 0
1.680000 0.040000 0
1.700000 0.040000 0
1.720000 0.040000 0
1.740000 0.040000 0
1.760000 0.040000 0
1.780000 0.040000 0
1.800000 0.040000 0
1.820000 0.040000 0
1.840000 0.040000 0
1.860000 0.040000 0
1.880000 0.040000 0
1.900000 0.040000 0
1.920000 0.040000 0
1.940000 0.040000 0
1.960000 0.040000 0
0.000000 0.060000 0
0.020000 0.060000 0
0.040000 0.060000 0
0.060000 0.060000 0
0.080000 0.060000 0
0.100000 0.060000 0
0.120000 0.060000 0
0.140000 0.060000 0
0.160000 0.060000 0
0.180000 0.060000 0
0.200000 0.060000 0
0.220000 0.060000 0
0.240000 0.060000 0
0.260000 0.060000 0
0.280000 0.060000 0
0.300000 0.060000 0
0.320000 0.060000 0
0.340000 0.060000 0
0.360000 0.060000 0
0.380000 0.060000 0
0.400000 0.060000 0
0.420000 0.060000 0
0.440000 0.060000 0
0.460000 0.060000 0
0.480000 0.060000 0
0.500000 0.060000 0
0.520000 0.060000 0
0.540000 0.060000 0
0.560000 0.060000 0
0.580000 0.060000 0
0.600000 0.060000 0
0.620000 0.060000 0
0.640000 0.060000 0
0.660000 0.060000 0
0.680000 0.060000 0
0.700000 0.060000 0
0.720000 0.060000 0
0.740000 0.060000 0
0.760000 0.060000 0
0.780000 0.060000 0
0.800000 0.060000 0
0.820000 0.060000 0
0.840000 0.060000 0
0.860000 0.060000 0
0.880000 0.060000 0
0.900000 0.060000 0
0.920000 0.060000 0
0.940000 0.060000 0
0.960000 0.060000 0
0.980000 0.060000 0
1.000000 0.060000 0
1.020000 0.060000 0
1.040000 0.060000 0
1.060000 0.060000 0
1.080000 0.060000 0
1.100000 0.060000 0
1.120000 0.060000 0
1.140000 0.060000 0
1.160000 0.060000 0
1.180000 0.060000 0
1.200000 0.060000 0
1.220000 0.060000 0
1.240000 0.060000 0
1.260000 0.060000 0
1.280000 0.060000 0
1.300000 0.060000 0
1.320000 0.060000 0
1.340000 0.060000 0
1.360000 0.060000 0
1.380000 0.060000 0
1.400000 0.060000 0
1.420000 0.060000 0
1.440000 0.060000 0
1.460000 0.060000 0
1.480000 0.060000 0
1.500000 0.060000 0
1.520000 0.060000 0
1.540000 0.060000 0
1.560000 0.060000 0
1.580000 0.060000 0
1.600000 0.060000 0
1.620000 0.060000 0
1.640000 0.060000 0
1.660000 0.060000 0
1.680000 0.060000 0
1.700000 0.060000 0
1.720000 0.060000 0
1.740000 0.060000 0
1.760000 0.060000 0
1.780000 0.060000 0
1.800000 0.060000 0
1.820000 0.060000 0
1.840000 0.060000 0
1.860000 0.060000 0
1.880000 0.060000 0
1.900000 0.060000 0
1.920000 0.060000 0
1.940000 0.060000 0
1.960000 0.060000 0
0.000000 0.080000 0
0.020000 0.080000 0
0.040000 0.080000 0
0.060000 0.080000 0
0.080000 0.080000 0
0.100000 0.080000 0
0.120000 0.080000 0
0.140000 0.080000 0
0.160000 0.080000 0
0.180000 0.080000 0
0.200000 0.080000 0
0.220000 0.080000 0
0.240000 0.080000 0
0.260000 0.080000 0
0.280000 0.080000 0
0.300000 0.080000 0
0.320000 0.080000 0
0.340000 0.080000 0
0.360000 0.080000 0
0.380000 0.080000 0
0.400000 0.080000 0
0.420000 0.080000 0
0.440000 0.080000 0
0.460000 0.080000 0
0.480000 0.080000 0
0.500000 0.080000 0
0.520000 0.080000 0
0.540000 0.080000 0
0.560000 0.080000 0
0.580000 0.080000 0
0.600000 0.080000 0
0.620000 0.080000 0
0.640000 0.080000 0
0.660000 0.080000 0
0.680000 0.080000 0
0.700000 0.080000 0
0.720000 0.080000 0
0.740000 0.080000 0
0.760000 0.080000 0
0.780000 0.080000 0
0.800000 0.080000 0
0.820000 0.080000 0
0.840000 0.080000 0
0.860000 0.080000 0
0.880000 0.080000 0
0.900000 0.080000 0
0.920000 0.080000 0
0.940000 0.080000 0
0.960000 0.080000 0
0.980000 0.080000 0
1.000000 0.080000 0
1.020000 0.080000 0
1.040000 0.080000 0
1.060000 0.080000 0
1.080000 0.080000 0
1.100000 0.080000 0
1.120000 0.080000 0
1.140000 0.080000 0
1.160000 0.080000 0
1.180000 0.080000 0
1.200000 0.080000 0
1.220000 0.080000 0
1.240000 0.080000 0
1.260000 0.080000 0
1.280000 0.080000 0
1.300000 0.080000 0
1.320000 0.080000 0
1.340000 0.080000 0
1.360000 0.080000 0
1.380000 0.080000 0
1.400000 0.080000 0
1.420000 0.080000 0
1.440000 0.080000 0
1.460000 0.080000 0
1.480000 0.080000 0
1.500000 0.080000 0
1.520000 0.080000 0
1.540000 0.080000 0
1.560000 0.080000 0
1.580000 0.080000 0
1.600000 0.080000 0
1.620000 0.080000 0
1.640000 0.080000 0
1.660000 0.080000 0
1.680000 0.080000 0
1.700000 0.080000 0
1.720000 0.080000 0
1.740000 0.080000 0
1.760000 0.080000 0
1.780000 0.080000 0
1.800000 0.080000 0
1.820000 0.080000 0
1.840000 0.080000 0
1.860000 0.080000 0
1.880000 0.080000 0
[...]
POINT_DATA 4851 

VECTORS velocity float
0.000000 0.000000 0
-0.000454 0.000000 0
-0.000593 0.000000 0
-0.000541 0.000000 0
-0.000452 0.000000 0
-0.000375 0.000000 0
-0.000317 0.000000 0
-0.000274 0.000000 0
-0.000242 0.000000 0
-0.000217 0.000000 0
-0.000197 0.000000 0
-0.000180 0.000000 0
-0.000167 0.000000 0
-0.000155 0.000000 0
-0.000144 0.000000 0
-0.000135 0.000000 0
-0.000126 0.000000 0
-0.000118 0.000000 0
-0.000111 0.000000 0
-0.000104 0.000000 0
-0.000097 0.000000 0
-0.000091 0.000000 0
-0.000085 0.000000 0
-0.000079 0.000000 0
-0.000074 0.000000 0
-0.000068 0.000000 0
-0.000063 0.000000 0
-0.000057 0.000000 0
-0.000051 0.000000 0
-0.000044 0.000000 0
-0.000037 0.000000 0
-0.000029 0.000000 0
-0.000020 0.000000 0
-0.000012 0.000000 0
-0.000005 0.000000 0
-0.000001 0.000000 0
0.000000 0.000000 0
0.000000 0.000000 0
0.000000 0.000000 0
0.000000 0.000000 0
0.000000 0.000000 0
-0.000038 0.000000 0
-0.000105 0.000000 0
-0.000167 0.000000 0
-0.000211 0.000000 0
-0.000237 0.000000 0
-0.000252 0.000000 0
-0.000261 0.000000 0
-0.000266 0.000000 0
-0.000270 0.000000 0
-0.000274 0.000000 0
-0.000277 0.000000 0
-0.000280 0.000000 0
-0.000283 0.000000 0
-0.000286 0.000000 0
-0.000288 0.000000 0
-0.000291 0.000000 0
-0.000293 0.000000 0
-0.000295 0.000000 0
-0.000297 0.000000 0
-0.000299 0.000000 0
-0.000301 0.000000 0
-0.000303 0.000000 0
-0.000304 0.000000 0
-0.000306 0.000000 0
-0.000307 0.000000 0
-0.000308 0.000000 0
-0.000310 0.000000 0
-0.000311 0.000000 0
-0.000312 0.000000 0
-0.000312 0.000000 0
-0.000313 0.000000 0
-0.000314 0.000000 0
-0.000315 0.000000 0
-0.000316 0.000000 0
-0.000317 0.000000 0
-0.000318 0.000000 0
-0.000319 0.000000 0
-0.000320 0.000000 0
-0.000321 0.000000 0
-0.000321 0.000000 0
-0.000320 0.000000 0
-0.000317 0.000000 0
-0.000313 0.000000 0
-0.000308 0.000000 0
-0.000302 0.000000 0
-0.000299 0.000000 0
-0.000301 0.000000 0
-0.000311 0.000000 0
-0.000333 0.000000 0
-0.000367 0.000000 0
-0.000411 0.000000 0
-0.000458 0.000000 0
-0.000493 0.000000 0
-0.000496 0.000000 0
-0.000442 0.000000 0
-0.000315 0.000000 0
-0.000133 0.000000 0
0.000000 0.000000 0
0.000000 0.000454 0
-0.000907 0.000594 0
-0.001390 0.000088 0
-0.001444 -0.000141 0
-0.001330 -0.000166 0
-0.001182 -0.000135 0
-0.001047 -0.000101 0
-0.000933 -0.000075 0
-0.000840 -0.000057 0
-0.000763 -0.000044 0
-0.000699 -0.000036 0
-0.000645 -0.000030 0
-0.000598 -0.000025 0
-0.000557 -0.000022 0
-0.000520 -0.000019 0
-0.000487 -0.000018 0
-0.000456 -0.000016 0
-0.000428 -0.000015 0
-0.000401 -0.000014 0
-0.000376 -0.000013 0
-0.000352 -0.000012 0
-0.000329 -0.000012 0
-0.000308 -0.000011 0
-0.000287 -0.000011 0
-0.000266 -0.000011 0
-0.000246 -0.000010 0
-0.000225 -0.000011 0
-0.000204 -0.000011 0
-0.000181 -0.000012 0
-0.000157 -0.000013 0
-0.000131 -0.000015 0
-0.000103 -0.000016 0
-0.000074 -0.000016 0
-0.000046 -0.000015 0
-0.000021 -0.000011 0
-0.000005 -0.000004 0
0.000000 -0.000000 0
0.000000 0.000000 0
0.000000 0.000000 0
0.000000 0.000000 0
0.000000 0.000037 0
-0.000106 0.000105 0
-0.000291 0.000129 0
-0.000470 0.000105 0
-0.000608 0.000069 0
-0.000702 0.000041 0
-0.000763 0.000023 0
-0.000804 0.000014 0
-0.000832 0.000009 0
-0.000853 0.000007 0
-0.000870 0.000006 0
-0.000886 0.000006 0
-0.000899 0.000005 0
-0.000912 0.000005 0
-0.000923 0.000005 0
-0.000934 0.000005 0
-0.000944 0.000004 0
-0.000953 0.000004 0
-0.000962 0.000004 0
-0.000970 0.000004 0
-0.000978 0.000003 0
-0.000985 0.000003 0
-0.000991 0.000003 0
-0.000997 0.000003 0
-0.001003 0.000002 0
-0.001008 0.000002 0
-0.001013 0.000002 0
-0.001017 0.000002 0
-0.001021 0.000001 0
-0.001024 0.000001 0
-0.001027 0.000001 0
-0.001030 0.000001 0
-0.001033 0.000001 0
-0.001036 0.000001 0
-0.001039 0.000001 0
-0.001042 0.000002 0
-0.001045 0.000002 0
-0.001048 0.000002 0
-0.001051 0.000001 0
-0.001053 0.000000 0
-0.001052 -0.000001 0
-0.001047 -0.000004 0
-0.001038 -0.000007 0
-0.001025 -0.000010 0
-0.001009 -0.000011 0
-0.000994 -0.000009 0
-0.000987 -0.000002 0
-0.000997 0.000012 0
-0.001032 0.000032 0
-0.001099 0.000055 0
-0.001199 0.000078 0
-0.001319 0.000091 0
-0.001435 0.000082 0
-0.001504 0.000038 0
-0.001468 -0.000052 0
-0.001268 -0.000182 0
-0.000876 -0.000309 0
-0.000363 -0.000315 0
0.000000 -0.000134 0
0.000000 0.000908 0
-0.000799 0.001392 0
-0.001531 0.000537 0
-0.001853 -0.000060 0
-0.001897 -0.000261 0
-0.001813 -0.000282 0
-0.001686 -0.000249 0
-0.001554 -0.000206 0
-0.001430 -0.000169 0
-0.001319 -0.000140 0
-0.001222 -0.000117 0
-0.001135 -0.000100 0
-0.001059 -0.000087 0
-0.000990 -0.000077 0
-0.000927 -0.000069 0
-0.000870 -0.000063 0
-0.000816 -0.000058 0
-0.000766 -0.000054 0
-0.000719 -0.000051 0
-0.000675 -0.000048 0
-0.000632 -0.000046 0
-0.000591 -0.000044 0
-0.000552 -0.000042 0
-0.000514 -0.000041 0
-0.000476 -0.000040 0
-0.000439 -0.000040 0
-0.000401 -0.000041 0
-0.000362 -0.000043 0
-0.000322 -0.000046 0
-0.000279 -0.000050 0
-0.000233 -0.000053 0
-0.000185 -0.000056 0
-0.000135 -0.000057 0
-0.000086 -0.000052 0
-0.000043 -0.000040 0
-0.000013 -0.000021 0
0.000000 -0.000005 0
0.000000 0.000000 0
0.000000 0.000000 0
0.000000 0.000000 0
0.000000 0.000105 0
-0.000136 0.000290 0
-0.000378 0.000364 0
-0.000627 0.000316 0
-0.000836 0.000231 0
-0.000995 0.000155 0
-0.001109 0.000101 0
-0.001191 0.000068 0
-0.001251 0.000049 0
-0.001298 0.000038 0
-0.001336 0.000032 0
-0.001369 0.000028 0
-0.001398 0.000025 0
-0.001425 0.000023 0
-0.001448 0.000022 0
-0.001470 0.000020 0
-0.001491 0.000019 0
-0.001509 0.000017 0
-0.001527 0.000016 0
-0.001543 0.000015 0
-0.001557 0.000014 0
-0.001571 0.000013 0
-0.001584 0.000012 0
-0.001595 0.000011 0
-0.001606 0.000010 0
-0.001616 0.000009 0
-0.001625 0.000008 0
-0.001633 0.000007 0
-0.001640 0.000007 0
-0.001647 0.000006 0
-0.001653 0.000005 0
-0.001658 0.000005 0
-0.001664 0.000005 0
-0.001669 0.000005 0
-0.001674 0.000005 0
-0.001679 0.000006 0
-0.001684 0.000006 0
-0.001689 0.000005 0
-0.001692 0.000004 0
-0.001693 -0.000000 0
-0.001691 -0.000006 0
-0.001683 -0.000014 0
-0.001669 -0.000023 0
-0.001649 -0.000030 0
-0.001627 -0.000031 0
-0.001609 -0.000022 0
-0.001603 0.000002 0
-0.001623 0.000044 0
-0.001679 0.000102 0
-0.001778 0.000166 0
-0.001916 0.000219 0
-0.002072 0.000236 0
-0.002205 0.000184 0
-0.002251 0.000032 0
-0.002135 -0.000237 0
-0.001789 -0.000593 0
-0.001199 -0.000905 0
-0.000483 -0.000876 0
0.000000 -0.000364 0
0.000000 0.001254 0
-0.000602 0.002125 0
-0.001357 0.001142 0
-0.001837 0.000226 0
-0.002039 -0.000205 0
-0.002068 -0.000345 0
-0.002006 -0.000360 0
-0.001906 -0.000331 0
-0.001793 -0.000291 0
-0.001681 -0.000252 0
-0.001575 -0.000219 0
-0.001476 -0.000192 0
-0.001385 -0.000171 0
-0.001301 -0.000153 0
-0.001223 -0.000139 0
-0.001151 -0.000128 0
-0.001083 -0.000119 0
-0.001018 -0.000111 0
-0.000957 -0.000105 0
-0.000898 -0.000100 0
-0.000842 -0.000095 0
-0.000788 -0.000092 0
-0.000735 -0.000089 0
-0.000683 -0.000086 0
-0.000633 -0.000085 0
-0.000582 -0.000085 0
-0.000532 -0.000087 0
-0.000480 -0.000090 0
-0.000426 -0.000095 0
-0.000369 -0.000102 0
-0.000310 -0.000109 0
-0.000247 -0.000114 0
-0.000182 -0.000114 0
-0.000119 -0.000106 0
-0.000062 -0.000084 0
-0.000019 -0.000047 0
0.000000 -0.000013 0
0.000000 0.000000 0
0.000000 0.000000 0
0.000000 0.000000 0
0.000000 0.000173 0
-0.000123 0.000482 0
-0.000354 0.000620 0
-0.000606 0.000563 0
-0.000834 0.000437 0
-0.001020 0.000313 0
-0.001164 0.000219 0
-0.001275 0.000156 0
-0.001361 0.000116 0
-0.001430 0.000092 0
-0.001487 0.000077 0
-0.001537 0.000067 0
-0.001581 0.000060 0
-0.001620 0.000055 0
-0.001656 0.000050 0
-0.001689 0.000047 0
-0.001719 0.000043 0
-0.001747 0.000040 0
-0.001773 0.000037 0
-0.001796 0.000034 0
-0.001818 0.000031 0
-0.001838 0.000029 0
-0.001856 0.000027 0
-0.001873 0.000025 0
-0.001889 0.000023 0
-0.001904 0.000021 0
-0.001917 0.000019 0
-0.001929 0.000017 0
-0.001940 0.000015 0
-0.001951 0.000014 0
-0.001960 0.000012 0
-0.001969 0.000012 0
-0.001977 0.000011 0
-0.001984 0.000011 0
-0.001992 0.000011 0
-0.001999 0.000012 0
-0.002006 0.000011 0
-0.002012 0.000010 0
-0.002017 0.000006 0
-0.002019 -0.000001 0
-0.002017 -0.000012 0
-0.002009 -0.000026 0
-0.001995 -0.000041 0
-0.001976 -0.000052 0
-0.001954 -0.000053 0
-0.001938 -0.000034 0
-0.001936 0.000012 0
-0.001961 0.000087 0
-0.002025 0.000187 0
-0.002131 0.000292 0
-0.002274 0.000372 0
-0.002426 0.000379 0
-0.002540 0.000260 0
-0.002548 -0.000032 0
-0.002370 -0.000515 0
-0.001945 -0.001119 0
-0.001276 -0.001615 0
-0.000501 -0.001514 0
0.000000 -0.000617 0
0.000000 0.001511 0
-0.000454 0.002749 0
-0.001148 0.001772 0
-0.001680 0.000622 0
-0.001980 -0.000029 0
-0.002100 -0.000315 0
-0.002109 -0.000410 0
-0.002057 -0.000419 0
-0.001974 -0.000394 0
-0.001878 -0.000358 0
-0.001779 -0.000322 0
-0.001682 -0.000290 0
-0.001589 -0.000262 0
-0.001501 -0.000239 0
-0.001417 -0.000220 0
-0.001337 -0.000204 0
-0.001261 -0.000191 0
-0.001188 -0.000180 0
-0.001118 -0.000171 0
-0.001050 -0.000163 0
-0.000985 -0.000156 0
-0.000922 -0.000151 0
-0.000860 -0.000146 0
-0.000799 -0.000143 0
-0.000739 -0.000141 0
-0.000680 -0.000141 0
-0.000620 -0.000143 0
-0.000560 -0.000148 0
-0.000497 -0.000156 0
-0.000432 -0.000166 0
-0.000363 -0.000176 0
-0.000291 -0.000184 0
-0.000217 -0.000184 0
-0.000143 -0.000172 0
-0.000076 -0.000139 0
-0.000024 -0.000082 0
0.000000 -0.000023 0
0.000000 0.000000 0
0.000000 0.000000 0
0.000000 0.000000 0
0.000000 0.000227 0
-0.000090 0.000643 0
-0.000275 0.000847 0
-0.000492 0.000797 0
-0.000701 0.000645 0
-0.000883 0.000485 0
-0.001032 0.000355 0
-0.001154 0.000264 0
-0.001252 0.000203 0
-0.001335 0.000164 0
-0.001406 0.000139 0
-0.001469 0.000121 0
-0.001525 0.000109 0
-0.001576 0.000099 0
-0.001622 0.000090 0
-0.001665 0.000083 0
-0.001705 0.000077 0
-0.001741 0.000071 0
-0.001775 0.000065 0
-0.001806 0.000060 0
-0.001834 0.000055 0
-0.001861 0.000051 0
-0.001885 0.000047 0
-0.001908 0.000044 0
-0.001928 0.000040 0
-0.001948 0.000037 0
-0.001966 0.000034 0
-0.001983 0.000031 0
-0.001998 0.000028 0
-0.002013 0.000025 0
-0.002026 0.000023 0
-0.002039 0.000021 0
-0.002051 0.000020 0
-0.002062 0.000020 0
-0.002073 0.000020 0
-0.002083 0.000020 0
-0.002093 0.000019 0
-0.002102 0.000016 0
-0.002110 0.000010 0
-0.002116 -0.000000 0
-0.002117 -0.000016 0
-0.002114 -0.000036 0
-0.002104 -0.000056 0
-0.002090 -0.000071 0
-0.002075 -0.000070 0
-0.002064 -0.000041 0
-0.002066 0.000025 0
-0.002094 0.000133 0
-0.002156 0.000272 0
-0.002257 0.000415 0
-0.002388 0.000514 0
-0.002522 0.000503 0
-0.002611 0.000305 0
-0.002587 -0.000139 0
-0.002376 -0.000840 0
-0.001925 -0.001687 0
-0.001245 -0.002349 0
-0.000481 -0.002152 0
0.000000 -0.000865 0
0.000000 0.001708 0
-0.000352 0.003274 0
-0.000966 0.002369 0
-0.001494 0.001058 0
-0.001836 0.000216 0
-0.002014 -0.000215 0
-0.002077 -0.000403 0
-0.002068 -0.000466 0
-0.002018 -0.000469 0
-0.001945 -0.000446 0
-0.001861 -0.000415 0
-0.001774 -0.000382 0
-0.001687 -0.000352 0
-0.001601 -0.000326 0
-0.001518 -0.000303 0
-0.001437 -0.000284 0
-0.001359 -0.000268 0
-0.001283 -0.000254 0
-0.001209 -0.000242 0
-0.001137 -0.000232 0
-0.001067 -0.000224 0
-0.000999 -0.000217 0
-0.000932 -0.000211 0
-0.000866 -0.000206 0
-0.000801 -0.000204 0
-0.000736 -0.000204 0
-0.000671 -0.000207 0
-0.000605 -0.000213 0
-0.000538 -0.000223 0
-0.000468 -0.000236 0
-0.000395 -0.000249 0
-0.000318 -0.000260 0
-0.000238 -0.000262 0
-0.000159 -0.000246 0
-0.000085 -0.000203 0
-0.000027 -0.000123 0
0.000000 -0.000036 0
0.000000 0.000000 0
0.000000 0.000000 0
0.000000 0.000000 0
0.000000 0.000263 0
-0.000054 0.000757 0
-0.000178 0.001021 0
-0.000338 0.000989 0
-0.000504 0.000827 0
-0.000658 0.000644 0
-0.000792 0.000489 0
-0.000907 0.000376 0
-0.001006 0.000298 0
-0.001091 0.000246 0
-0.001168 0.000210 0
-0.001238 0.000186 0
-0.001302 0.000167 0
-0.001361 0.000152 0
-0.001417 0.000140 0
-0.001468 0.000129 0
-0.001516 0.000119 0
-0.001560 0.000110 0
-0.001601 0.000101 0
-0.001639 0.000093 0
-0.001675 0.000086 0
-0.001707 0.000079 0
-0.001737 0.000073 0
-0.001765 0.000068 0
-0.001792 0.000063 0
-0.001816 0.000058 0
-0.001839 0.000053 0
-0.001861 0.000049 0
-0.001882 0.000045 0
-0.001901 0.000041 0
-0.001920 0.000038 0
-0.001937 0.000036 0
-0.001954 0.000034 0
-0.001970 0.000033 0
-0.001985 0.000032 0
-0.002000 0.000032 0
-0.002015 0.000031 0
-0.002029 0.000027 0
-0.002042 0.000019 0
-0.002053 0.000006 0
-0.002061 -0.000014 0
-0.002066 -0.000039 0
-0.002065 -0.000064 0
-0.002061 -0.000082 0
-0.002054 -0.000080 0
-0.002051 -0.000043 0
-0.002059 0.000042 0
-0.002087 0.000176 0
-0.002143 0.000349 0
-0.002231 0.000524 0
-0.002344 0.000637 0
-0.002456 0.000602 0
-0.002522 0.000326 0
-0.002479 -0.000267 0
-0.002260 -0.001177 0
-0.001817 -0.002251 0
-0.001167 -0.003059 0
-0.000446 -0.002759 0
0.000000 -0.001097 0
0.000000 0.001863 0
-0.000280 0.003716 0
-0.000819 0.002914 0
-0.001316 0.001492 0
-0.001665 0.000491 0
-0.001870 -0.000073 0
-0.001966 -0.000356 0
-0.001989 -0.000478 0
-0.001965 -0.000517 0
-0.001914 -0.000514 0
-0.001848 -0.000492 0
-0.001774 -0.000464 0
-0.001696 -0.000435 0
-0.001618 -0.000408 0
-0.001540 -0.000384 0
-0.001462 -0.000363 0
-0.001386 -0.000344 0
-0.001312 -0.000329 0
-0.001239 -0.000316 0
-0.001166 -0.000304 0
-0.001096 -0.000294 0
-0.001026 -0.000286 0
-0.000957 -0.000279 0
-0.000888 -0.000274 0
-0.000821 -0.000271 0
-0.000754 -0.000271 0
-0.000687 -0.000274 0
-0.000620 -0.000281 0
-0.000551 -0.000293 0
-0.000481 -0.000308 0
-0.000407 -0.000325 0
-0.000329 -0.000340 0
-0.000249 -0.000343 0
-0.000167 -0.000325 0
-0.000090 -0.000271 0
-0.000029 -0.000167 0
0.000000 -0.000050 0
0.000000 0.000000 0
0.000000 0.000000 0
0.000000 0.000000 0
0.000000 0.000281 0
-0.000020 0.000821 0
-0.000083 0.001131 0
-0.000177 0.001122 0
-0.000287 0.000964 0
-0.000399 0.000773 0
-0.000503 0.000604 0
-0.000599 0.000477 0
-0.000685 0.000388 0
-0.000764 0.000327 0
-0.000838 0.000285 0
-0.000908 0.000255 0
-0.000975 0.000232 0
-0.001039 0.000213 0
-0.001100 0.000197 0
-0.001157 0.000182 0
-0.001212 0.000169 0
-0.001263 0.000156 0
-0.001311 0.000144 0
-0.001356 0.000133 0
-0.001398 0.000123 0
-0.001437 0.000114 0
-0.001473 0.000105 0
-0.001506 0.000098 0
-0.001538 0.000091 0
-0.001567 0.000084 0
-0.001596 0.000078 0
-0.001623 0.000073 0
-0.001649 0.000068 0
-0.001674 0.000063 0
-0.001698 0.000059 0
-0.001721 0.000055 0
-0.001744 0.000053 0
-0.001765 0.000051 0
-0.001786 0.000050 0
-0.001807 0.000049 0
-0.001827 0.000047 0
-0.001847 0.000043 0
-0.001866 0.000034 0
-0.001885 0.000019 0
-0.001902 -0.000004 0
-0.001917 -0.000032 0
-0.001928 -0.000062 0
-0.001935 -0.000082 0
-0.001940 -0.000079 0
-0.001947 -0.000037 0
-0.001960 0.000060 0
-0.001987 0.000216 0
-0.002036 0.000416 0
-0.002109 0.000616 0
-0.002201 0.000738 0
-0.002290 0.000680 0
-0.002338 0.000329 0
-0.002286 -0.000401 0
-0.002076 -0.001502 0
-0.001665 -0.002781 0
-0.001067 -0.003720 0
-0.000407 -0.003319 0
0.000000 -0.001311 0
0.000000 0.001989 0
-0.000228 0.004093 0
-0.000700 0.003404 0
-0.001156 0.001904 0
-0.001492 0.000771 0
-0.001703 0.000087 0
-0.001814 -0.000284 0
-0.001854 -0.000467 0
-0.001848 -0.000544 0
-0.001814 -0.000563 0
-0.001763 -0.000555 0
-0.001702 -0.000533 0
-0.001636 -0.000508 0
-0.001567 -0.000482 0
-0.001497 -0.000458 0
-0.001426 -0.000437 0
-0.001356 -0.000418 0
-0.001286 -0.000402 0
-0.001216 -0.000387 0
-0.001146 -0.000375 0
-0.001077 -0.000364 0
-0.001009 -0.000355 0
-0.000941 -0.000348 0
-0.000873 -0.000342 0
-0.000807 -0.000338 0
-0.000740 -0.000338 0
-0.000674 -0.000341 0
-0.000608 -0.000349 0
-0.000541 -0.000362 0
-0.000473 -0.000380 0
-0.000402 -0.000400 0
-0.000327 -0.000418 0
-0.000248 -0.000424 0
-0.000168 -0.000405 0
-0.000091 -0.000341 0
-0.000029 -0.000213 0
0.000000 -0.000065 0
0.000000 0.000000 0
0.000000 0.000000 0
0.000000 0.000000 0
0.000000 0.000283 0
0.000007 0.000839 0
0.000001 0.001178 0
-0.000030 0.001193 0
-0.000081 0.001049 0
-0.000143 0.000860 0
-0.000210 0.000689 0
-0.000276 0.000557 0
-0.000341 0.000463 0
-0.000405 0.000399 0
-0.000469 0.000355 0
-0.000533 0.000323 0
-0.000597 0.000298 0
-0.000660 0.000277 0
-0.000722 0.000258 0
-0.000783 0.000241 0
-0.000842 0.000225 0
-0.000899 0.000209 0
-0.000954 0.000194 0
-0.001005 0.000180 0
-0.001053 0.000166 0
-0.001098 0.000154 0
-0.001140 0.000143 0
-0.001179 0.000133 0
-0.001216 0.000124 0
-0.001250 0.000116 0
-0.001283 0.000109 0
-0.001315 0.000102 0
-0.001347 0.000096 0
-0.001377 0.000091 0
-0.001407 0.000085 0
-0.001436 0.000081 0
-0.001465 0.000078 0
-0.001493 0.000075 0
-0.001520 0.000073 0
-0.001546 0.000072 0
-0.001573 0.000070 0
-0.001599 0.000066 0
-0.001626 0.000057 0
-0.001653 0.000041 0
-0.001679 0.000017 0
-0.001705 -0.000014 0
-0.001728 -0.000046 0
-0.001749 -0.000070 0
-0.001766 -0.000068 0
-0.001783 -0.000023 0
-0.001802 0.000082 0
-0.001829 0.000252 0
-0.001870 0.000471 0
-0.001928 0.000689 0
-0.001999 0.000818 0
-0.002067 0.000739 0
-0.002098 0.000321 0
-0.002047 -0.000529 0
-0.001857 -0.001798 0
-0.001492 -0.003260 0
-0.000959 -0.004318 0
-0.000367 -0.003826 0
0.000000 -0.001505 0
0.000000 0.002092 0
-0.000189 0.004417 0
-0.000602 0.003842 0
-0.001015 0.002285 0
-0.001329 0.001039 0
-0.001531 0.000249 0
-0.001642 -0.000204 0
-0.001689 -0.000443 0
-0.001692 -0.000557 0
-0.001668 -0.000599 0
-0.001628 -0.000604 0
-0.001579 -0.000591 0
-0.001523 -0.000570 0
-0.001465 -0.000546 0
-0.001404 -0.000524 0
-0.001342 -0.000503 0
-0.001278 -0.000485 0
-0.001215 -0.000469 0
-0.001150 -0.000455 0
-0.001086 -0.000442 0
-0.001021 -0.000432 0
-0.000956 -0.000422 0
-0.000892 -0.000414 0
-0.000827 -0.000408 0
-0.000763 -0.000404 0
-0.000700 -0.000403 0
-0.000637 -0.000406 0
-0.000575 -0.000414 0
-0.000512 -0.000428 0
-0.000448 -0.000448 0
-0.000381 -0.000471 0
-0.000312 -0.000493 0
-0.000238 -0.000502 0
-0.000162 -0.000482 0
-0.000089 -0.000410 0
-0.000029 -0.000258 0
0.000000 -0.000079 0
0.000000 0.000000 0
0.000000 0.000000 0
0.000000 0.000000 0
0.000000 0.000273 0
0.000027 0.000820 0
0.000066 0.001168 0
0.000093 0.001203 0
0.000098 0.001078 0
0.000086 0.000902 0
0.000060 0.000737 0
0.000027 0.000608 0
-0.000011 0.000517 0
-0.000055 0.000455 0
-0.000102 0.000412 0
-0.000154 0.000382 0
-0.000208 0.000359 0
-0.000266 0.000339 0
-0.000325 0.000320 0
-0.000385 0.000302 0
-0.000446 0.000285 0
-0.000507 0.000267 0
-0.000566 0.000250 0
-0.000624 0.000233 0
-0.000678 0.000216 0
-0.000730 0.000200 0
-0.000778 0.000186 0
-0.000823 0.000173 0
-0.000864 0.000162 0
-0.000903 0.000152 0
-0.000940 0.000143 0
-0.000977 0.000136 0
-0.001012 0.000129 0
-0.001048 0.000123 0
-0.001083 0.000118 0
-0.001118 0.000113 0
-0.001152 0.000109 0
-0.001186 0.000106 0
-0.001219 0.000103 0
-0.001252 0.000102 0
-0.001285 0.000100 0
-0.001318 0.000096 0
-0.001351 0.000088 0
-0.001385 0.000072 0
-0.001421 0.000048 0
-0.001457 0.000016 0
-0.001493 -0.000018 0
-0.001526 -0.000044 0
-0.001556 -0.000045 0
-0.001584 -0.000001 0
-0.001609 0.000107 0
-0.001637 0.000284 0
-0.001670 0.000514 0
-0.001714 0.000744 0
-0.001765 0.000877 0
-0.001814 0.000780 0
-0.001834 0.000309 0
-0.001786 -0.000642 0
-0.001624 -0.002057 0
-0.001311 -0.003679 0
-0.000848 -0.004846 0
-0.000327 -0.004278 0
0.000000 -0.001678 0
0.000000 0.002178 0
-0.000158 0.004696 0
-0.000521 0.004231 0
-0.000893 0.002631 0
-0.001179 0.001286 0
-0.001364 0.000401 0
-0.001467 -0.000126 0
-0.001510 -0.000417 0
-0.001515 -0.000564 0
-0.001496 -0.000627 0
-0.001463 -0.000644 0
-0.001421 -0.000638 0
-0.001375 -0.000621 0
-0.001326 -0.000601 0
-0.001275 -0.000581 0
-0.001221 -0.000562 0
-0.001166 -0.000545 0
-0.001110 -0.000529 0
-0.001053 -0.000516 0
-0.000994 -0.000504 0
-0.000936 -0.000494 0
-0.000876 -0.000484 0
-0.000817 -0.000476 0
-0.000757 -0.000470 0
-0.000698 -0.000465 0
-0.000639 -0.000464 0
-0.000581 -0.000466 0
-0.000524 -0.000474 0
-0.000466 -0.000489 0
-0.000409 -0.000510 0
-0.000349 -0.000536 0
-0.000287 -0.000561 0
-0.000221 -0.000573 0
-0.000151 -0.000554 0
-0.000084 -0.000474 0
-0.000027 -0.000301 0
0.000000 -0.000093 0
0.000000 0.000000 0
0.000000 0.000000 0
0.000000 0.000000 0
0.000000 0.000255 0
0.000041 0.000772 0
0.000114 0.001112 0
0.000187 0.001161 0