# vtk DataFile Version 2.0
generated by CFD-lab course output (written by Tobias Neckel) 
ASCII

DATASET STRUCTURED_GRID
DIMENSIONS  99 49 1 
POINTS 4851 float

0.000000 0.000000 0
0.020000 0.000000 0
0.040000 0.000000 0
0.060000 0.000000 0
0.080000 0.000000 0
0.100000 0.000000 0
0.120000 0.000000 0
0.140000 0.000000 0
0.160000 0.000000 0
0.180000 0.000000 0
0.200000 0.000000 0
0.220000 0.000000 0
0.240000 0.000000 0
0.260000 0.000000 0
0.280000 0.000000 0
0.300000 0.000000 0
0.320000 0.000000 0
0.340000 0.000000 0
0.360000 0.000000 0
0.380000 0.000000 0
0.400000 0.000000 0
0.420000 0.000000 0
0.440000 0.000000 0
0.460000 0.000000 0
0.480000 0.000000 0
0.500000 0.000000 0
0.520000 0.000000 0
0.540000 0.000000 0
0.560000 0.000000 0
0.580000 0.000000 0
0.600000 0.000000 0
0.620000 0.000000 0
0.640000 0.000000 0
0.660000 0.000000 0
0.680000 0.000000 0
0.700000 0.000000 0
0.720000 0.000000 0
0.740000 0.000000 0
0.760000 0.000000 0
0.780000 0.000000 0
0.800000 0.000000 0
0.820000 0.000000 0
0.840000 0.000000 0
0.860000 0.000000 0
0.880000 0.000000 0
0.900000 0.000000 0
0.920000 0.000000 0
0.940000 0.000000 0
0.960000 0.000000 0
0.980000 0.000000 0
1.000000 0.000000 0
1.020000 0.000000 0
1.040000 0.000000 0
1.060000 0.000000 0
1.080000 0.000000 0
1.100000 0.000000 0
1.120000 0.000000 0
1.140000 0.000000 0
1.160000 0.000000 0
1.180000 0.000000 0
1.200000 0.000000 0
1.220000 0.000000 0
1.240000 0.000000 0
1.260000 0.000000 0
1.280000 0.000000 0
1.300000 0.000000 0
1.320000 0.000000 0
1.340000 0.000000 0
1.360000 0.000000 0
1.380000 0.000000 0
1.400000 0.000000 0
1.420000 0.000000 0
1.440000 0.000000 0
1.460000 0.000000 0
1.480000 0.000000 0
1.500000 0.000000 0
1.520000 0.000000 0
1.540000 0.000000 0
1.560000 0.000000 0
1.580000 0.000000 0
1.600000 0.000000 0
1.620000 0.000000 0
1.640000 0.000000 0
1.660000 0.000000 0
1.680000 0.000000 0
1.700000 0.000000 0
1.720000 0.000000 0
1.740000 0.000000 0
1.760000 0.000000 0
1.780000 0.000000 0
1.800000 0.000000 0
1.820000 0.000000 0
1.840000 0.000000 0
1.860000 0.000000 0
1.880000 0.000000 0
1.900000 0.000000 0
1.920000 0.000000 0
1.940000 0.000000 0
1.960000 0.000000 0
0.000000 0.020000 0
0.020000 0.020000 0
0.040000 0.020000 0
0.060000 0.020000 0
0.080000 0.020000 0
0.100000 0.020000 0
0.120000 0.020000 0
0.140000 0.020000 0
0.160000 0.020000 0
0.180000 0.020000 0
0.200000 0.020000 0
0.220000 0.020000 0
0.240000 0.020000 0
0.260000 0.020000 0
0.280000 0.020000 0
0.300000 0.020000 0
0.320000 0.020000 0
0.340000 0.020000 0
0.360000 0.020000 0
0.380000 0.020000 0
0.400000 0.020000 0
0.420000 0.020000 0
0.440000 0.020000 0
0.460000 0.020000 0
0.480000 0.020000 0
0.500000 0.020000 0
0.520000 0.020000 0
0.540000 0.020000 0
0.560000 0.020000 0
0.580000 0.020000 0
0.600000 0.020000 0
0.620000 0.020000 0
0.640000 0.020000 0
0.660000 0.020000 0
0.680000 0.020000 0
0.700000 0.020000 0
0.720000 0.020000 0
0.740000 0.020000 0
0.760000 0.020000 0
0.780000 0.020000 0
0.800000 0.020000 0
0.820000 0.020000 0
0.840000 0.020000 0
0.860000 0.020000 0
0.880000 0.020000 0
0.900000 0.020000 0
0.920000 0.020000 0
0.940000 0.020000 0
0.960000 0.020000 0
0.980000 0.020000 0
1.000000 0.020000 0
1.020000 0.020000 0
1.040000 0.020000 0
1.060000 0.020000 0
1.080000 0.020000 0
1.100000 0.020000 0
1.120000 0.020000 0
1.140000 0.020000 0
1.160000 0.020000 0
1.180000 0.020000 0
1.200000 0.020000 0
1.220000 0.020000 0
1.240000 0.020000 0
1.260000 0.020000 0
1.280000 0.020000 0
1.300000 0.020000 0
1.320000 0.020000 0
1.340000 0.020000 0
1.360000 0.020000 0
1.380000 0.020000 0
1.400000 0.020000 0
1.420000 0.020000 0
1.440000 0.020000 0
1.460000 0.020000 0
1.480000 0.020000 0
1.500000 0.020000 0
1.520000 0.020000 0
1.540000 0.020000 0
1.560000 0.020000 0
1.580000 0.020000 0
1.600000 0.020000 0
1.620000 0.020000 0
1.640000 0.020000 0
1.660000 0.020000 0
1.680000 0.020000 0
1.700000 0.020000 0
1.720000 0.020000 0
1.740000 0.020000 0
1.760000 0.020000 0
1.780000 0.020000 0
1.800000 0.020000 0
1.820000 0.020000 0
1.840000 0.020000 0
1.860000 0.020000 0
1.880000 0.020000 0
1.900000 0.020000 0
1.920000 0.020000 0
1.940000 0.020000 0
1.960000 0.020000 0
0.000000 0.040000 0
0.020000 0.040000 0
0.040000 0.040000 0
0.060000 0.040000 0
0.080000 0.040000 0
0.100000 0.040000 0
0.120000 0.040000 0
0.140000 0.040000 0
0.160000 0.040000 0
0.180000 0.040000 0
0.200000 0.040000 0
0.220000 0.040000 0
0.240000 0.040000 0
0.260000 0.040000 0
0.280000 0.040000 0
0.300000 0.040000 0
0.320000 0.040000 0
0.340000 0.040000 0
0.360000 0.040000 0
0.380000 0.040000 0
0.400000 0.040000 0
0.420000 0.040000 0
0.440000 0.040000 0
0.460000 0.040000 0
0.480000 0.040000 0
0.500000 0.040000 0
0.520000 0.040000 0
0.540000 0.040000 0
0.560000 0.040000 0
0.580000 0.040000 0
0.600000 0.040000 0
0.620000 0.040000 0
0.640000 0.040000 0
0.660000 0.040000 0
0.680000 0.040000 0
0.700000 0.040000 0
0.720000 0.040000 0
0.740000 0.040000 0
0.760000 0.040000 0
0.780000 0.040000 0
0.800000 0.040000 0
0.820000 0.040000 0
0.840000 0.040000 0
0.860000 0.040000 0
0.880000 0.040000 0
0.900000 0.040000 0
0.920000 0.040000 0
0.940000 0.040000 0
0.960000 0.040000 0
0.980000 0.040000 0
1.000000 0.040000 0
1.020000 0.040000 0
1.040000 0.040000 0
1.060000 0.040000 0
1.080000 0.040000 0
1.100000 0.040000 0
1.120000 0.040000 0
1.140000 0.040000 0
1.160000 0.040000 0
1.180000 0.040000 0
1.200000 0.040000 0
1.220000 0.040000 0
1.240000 0.040000 0
1.260000 0.040000 0
1.280000 0.040000 0
1.300000 0.040000 0
1.320000 0.040000 0
1.340000 0.040000 0
1.360000 0.040000 0
1.380000 0.040000 0
1.400000 0.040000 0
1.420000 0.040000 0
1.440000 0.040000 0
1.460000 0.040000 0
1.480000 0.040000 0
1.500000 0.040000 0
1.520000 0.040000 0
1.540000 0.040000 0
1.560000 0.040000 0
1.580000 0.040000 0
1.600000 0.040000 0
1.620000 0.040000 0
1.640000 0.040000 0
1.660000 0.040000 0
1.680000 0.040000 0
1.700000 0.040000 0
1.720000 0.040000 0
1.740000 0.040000 0
1.760000 0.040000 0
1.780000 0.040000 0
1.800000 0.040000 0
1.820000 0.040000 0
1.840000 0.040000 0
1.860000 0.040000 0
1.880000 0.040000 0
1.900000 0.040000 0
1.920000 0.040000 0
1.940000 0.040000 0
1.960000 0.040000 0
0.000000 0.060000 0
0.020000 0.060000 0
0.040000 0.060000 0
0.060000 0.060000 0
0.080000 0.060000 0
0.100000 0.060000 0
0.120000 0.060000 0
0.140000 0.060000 0
0.160000 0.060000 0
0.180000 0.060000 0
0.200000 0.060000 0
0.220000 0.060000 0
0.240000 0.060000 0
0.260000 0.060000 0
0.280000 0.060000 0
0.300000 0.060000 0
0.320000 0.060000 0
0.340000 0.060000 0
0.360000 0.060000 0
0.380000 0.060000 0
0.400000 0.060000 0
0.420000 0.060000 0
0.440000 0.060000 0
0.460000 0.060000 0
0.480000 0.060000 0
0.500000 0.060000 0
0.520000 0.060000 0
0.540000 0.060000 0
0.560000 0.060000 0
0.580000 0.060000 0
0.600000 0.060000 0
0.620000 0.060000 0
0.640000 0.060000 0
0.660000 0.060000 0
0.680000 0.060000 0
0.700000 0.060000 0
0.720000 0.060000 0
0.740000 0.060000 0
0.760000 0.060000 0
0.780000 0.060000 0
0.800000 0.060000 0
0.820000 0.060000 0
0.840000 0.060000 0
0.860000 0.060000 0
0.880000 0.060000 0
0.900000 0.060000 0
0.920000 0.060000 0
0.940000 0.060000 0
0.960000 0.060000 0
0.980000 0.060000 0
1.000000 0.060000 0
1.020000 0.060000 0
1.040000 0.060000 0
1.060000 0.060000 0
1.080000 0.060000 0
1.100000 0.060000 0
1.120000 0.060000 0
1.140000 0.060000 0
1.160000 0.060000 0
1.180000 0.060000 0
1.200000 0.060000 0
1.220000 0.060000 0
1.240000 0.060000 0
1.260000 0.060000 0
1.280000 0.060000 0
1.300000 0.060000 0
1.320000 0.060000 0
1.340000 0.060000 0
1.360000 0.060000 0
1.380000 0.060000 0
1.400000 0.060000 0
1.420000 0.060000 0
1.440000 0.060000 0
1.460000 0.060000 0
1.480000 0.060000 0
1.500000 0.060000 0
1.520000 0.060000 0
1.540000 0.060000 0
1.560000 0.060000 0
1.580000 0.060000 0
1.600000 0.060000 0
1.620000 0.060000 0
1.640000 0.060000 0
1.660000 0.060000 0
1.680000 0.060000 0
1.700000 0.060000 0
1.720000 0.060000 0
1.740000 0.060000 0
1.760000 0.060000 0
1.780000 0.060000 0
1.800000 0.060000 0
1.820000 0.060000 0
1.840000 0.060000 0
1.860000 0.060000 0
1.880000 0.060000 0
1.900000 0.060000 0
1.920000 0.060000 0
1.940000 0.060000 0
1.960000 0.060000 0
0.000000 0.080000 0
0.020000 0.080000 0
0.040000 0.080000 0
0.060000 0.080000 0
0.080000 0.080000 0
0.100000 0.080000 0
0.120000 0.080000 0
0.140000 0.080000 0
0.160000 0.080000 0
0.180000 0.080000 0
0.200000 0.080000 0
0.220000 0.080000 0
0.240000 0.080000 0
0.260000 0.080000 0
0.280000 0.080000 0
0.300000 0.080000 0
0.320000 0.080000 0
0.340000 0.080000 0
0.360000 0.080000 0
0.380000 0.080000 0
0.400000 0.080000 0
0.420000 0.080000 0
0.440000 0.080000 0
0.460000 0.080000 0
0.480000 0.080000 0
0.500000 0.080000 0
0.520000 0.080000 0
0.540000 0.080000 0
0.560000 0.080000 0
0.580000 0.080000 0
0.600000 0.080000 0
0.620000 0.080000 0
0.640000 0.080000 0
0.660000 0.080000 0
0.680000 0.080000 0
0.700000 0.080000 0
0.720000 0.080000 0
0.740000 0.080000 0
0.760000 0.080000 0
0.780000 0.080000 0
0.800000 0.080000 0
0.820000 0.080000 0
0.840000 0.080000 0
0.860000 0.080000 0
0.880000 0.080000 0
0.900000 0.080000 0
0.920000 0.080000 0
0.940000 0.080000 0
0.960000 0.080000 0
0.980000 0.080000 0
1.000000 0.080000 0
1.020000 0.080000 0
1.040000 0.080000 0
1.060000 0.080000 0
1.080000 0.080000 0
1.100000 0.080000 0
1.120000 0.080000 0
1.140000 0.080000 0
1.160000 0.080000 0
1.180000 0.080000 0
1.200000 0.080000 0
1.220000 0.080000 0
1.240000 0.080000 0
1.260000 0.080000 0
1.280000 0.080000 0
1.300000 0.080000 0
1.320000 0.080000 0
1.340000 0.080000 0
1.360000 0.080000 0
1.380000 0.080000 0
1.400000 0.080000 0
1.420000 0.080000 0
1.440000 0.080000 0
1.460000 0.080000 0
1.480000 0.080000 0
1.500000 0.080000 0
1.520000 0.080000 0
1.540000 0.080000 0
1.560000 0.080000 0
1.580000 0.080000 0
1.600000 0.080000 0
1.620000 0.080000 0
1.640000 0.080000 0
1.660000 0.080000 0
1.680000 0.080000 0
1.700000 0.080000 0
1.720000 0.080000 0
1.740000 0.080000 0
1.760000 0.080000 0
1.780000 0.080000 0
1.800000 0.080000 0
1.820000 0.080000 0
1.840000 0.080000 0
1.860000 0.080000 0
1.880000 0.080000 0
[...]
POINT_DATA 4851 

VECTORS velocity float
0.000000 0.000000 0
-0.000456 0.000000 0
-0.000595 0.000000 0
-0.000542 0.000000 0
-0.000451 0.000000 0
-0.000371 0.000000 0
-0.000311 0.000000 0
-0.000266 0.000000 0
-0.000232 0.000000 0
-0.000206 0.000000 0
-0.000185 0.000000 0
-0.000168 0.000000 0
-0.000153 0.000000 0
-0.000140 0.000000 0
-0.000129 0.000000 0
-0.000119 0.000000 0
-0.000109 0.000000 0
-0.000100 0.000000 0
-0.000091 0.000000 0
-0.000083 0.000000 0
-0.000075 0.000000 0
-0.000067 0.000000 0
-0.000059 0.000000 0
-0.000051 0.000000 0
-0.000044 0.000000 0
-0.000036 0.000000 0
-0.000029 0.000000 0
-0.000023 0.000000 0
-0.000017 0.000000 0
-0.000011 0.000000 0
-0.000007 0.000000 0
-0.000003 0.000000 0
-0.000001 0.000000 0
0.000001 0.000000 0
0.000001 0.000000 0
0.000001 0.000000 0
0.000000 0.000000 0
0.000000 0.000000 0
0.000000 0.000000 0
0.000000 0.000000 0
0.000000 0.000000 0
-0.000000 0.000000 0
-0.000001 0.000000 0
-0.000003 0.000000 0
-0.000005 0.000000 0
-0.000007 0.000000 0
-0.000010 0.000000 0
-0.000014 0.000000 0
-0.000018 0.000000 0
-0.000023 0.000000 0
-0.000029 0.000000 0
-0.000036 0.000000 0
-0.000045 0.000000 0
-0.000056 0.000000 0
-0.000070 0.000000 0
-0.000087 0.000000 0
-0.000109 0.000000 0
-0.000138 0.000000 0
-0.000176 0.000000 0
-0.000227 0.000000 0
-0.000296 0.000000 0
-0.000388 0.000000 0
-0.000508 0.000000 0
-0.000652 0.000000 0
-0.000809 0.000000 0
-0.000955 0.000000 0
-0.001064 0.000000 0
-0.001120 0.000000 0
-0.001123 0.000000 0
-0.001088 0.000000 0
-0.001035 0.000000 0
-0.000978 0.000000 0
-0.000925 0.000000 0
-0.000878 0.000000 0
-0.000836 0.000000 0
-0.000797 0.000000 0
-0.000760 0.000000 0
-0.000725 0.000000 0
-0.000691 0.000000 0
-0.000661 0.000000 0
-0.000637 0.000000 0
-0.000621 0.000000 0
-0.000617 0.000000 0
-0.000629 0.000000 0
-0.000661 0.000000 0
-0.000716 0.000000 0
-0.000797 0.000000 0
-0.000904 0.000000 0
-0.001035 0.000000 0
-0.001181 0.000000 0
-0.001329 0.000000 0
-0.001458 0.000000 0
-0.001539 0.000000 0
-0.001536 0.000000 0
-0.001411 0.000000 0
-0.001136 0.000000 0
-0.000726 0.000000 0
-0.000274 0.000000 0
0.000000 0.000000 0
0.000000 0.000456 0
-0.000913 0.000595 0
-0.001397 0.000086 0
-0.001448 -0.000144 0
-0.001330 -0.000170 0
-0.001178 -0.000139 0
-0.001037 -0.000105 0
-0.000918 -0.000079 0
-0.000820 -0.000060 0
-0.000739 -0.000047 0
-0.000671 -0.000038 0
-0.000613 -0.000032 0
-0.000563 -0.000027 0
-0.000519 -0.000024 0
-0.000479 -0.000021 0
-0.000442 -0.000020 0
-0.000407 -0.000018 0
-0.000374 -0.000017 0
-0.000342 -0.000017 0
-0.000312 -0.000016 0
-0.000282 -0.000016 0
-0.000252 -0.000016 0
-0.000223 -0.000015 0
-0.000195 -0.000015 0
-0.000168 -0.000015 0
-0.000141 -0.000014 0
-0.000116 -0.000013 0
-0.000092 -0.000012 0
-0.000069 -0.000011 0
-0.000050 -0.000010 0
-0.000033 -0.000008 0
-0.000019 -0.000006 0
-0.000008 -0.000004 0
-0.000002 -0.000001 0
0.000001 0.000001 0
0.000001 0.000002 0
0.000000 0.000001 0
0.000000 0.000000 0
0.000000 0.000000 0
0.000000 0.000000 0
0.000000 0.000000 0
-0.000002 0.000001 0
-0.000005 0.000002 0
-0.000010 0.000003 0
-0.000017 0.000004 0
-0.000026 0.000005 0
-0.000036 0.000006 0
-0.000047 0.000007 0
-0.000061 0.000009 0
-0.000078 0.000010 0
-0.000098 0.000013 0
-0.000122 0.000016 0
-0.000153 0.000019 0
-0.000190 0.000024 0
-0.000238 0.000031 0
-0.000297 0.000039 0
-0.000374 0.000050 0
-0.000472 0.000066 0
-0.000602 0.000088 0
-0.000774 0.000119 0
-0.001002 0.000160 0
-0.001303 0.000211 0
-0.001681 0.000264 0
-0.002126 0.000301 0
-0.002593 0.000302 0
-0.003016 0.000254 0
-0.003327 0.000164 0
-0.003487 0.000058 0
-0.003504 -0.000032 0
-0.003421 -0.000088 0
-0.003288 -0.000111 0
-0.003139 -0.000110 0
-0.002994 -0.000101 0
-0.002859 -0.000090 0
-0.002733 -0.000082 0
-0.002614 -0.000077 0
-0.002502 -0.000073 0
-0.002397 -0.000069 0
-0.002303 -0.000064 0
-0.002224 -0.000055 0
-0.002169 -0.000041 0
-0.002145 -0.000021 0
-0.002165 0.000007 0
-0.002238 0.000043 0
-0.002373 0.000087 0
-0.002576 0.000136 0
-0.002849 0.000188 0
-0.003185 0.000238 0
-0.003566 0.000276 0
-0.003962 0.000294 0
-0.004325 0.000277 0
-0.004594 0.000210 0
-0.004691 0.000078 0
-0.004529 -0.000128 0
-0.004030 -0.000401 0
-0.003159 -0.000685 0
-0.001983 -0.000862 0
-0.000746 -0.000726 0
0.000000 -0.000274 0
0.000000 0.000913 0
-0.000806 0.001397 0
-0.001544 0.000536 0
-0.001868 -0.000066 0
-0.001911 -0.000269 0
-0.001824 -0.000293 0
-0.001692 -0.000260 0
-0.001553 -0.000217 0
-0.001423 -0.000179 0
-0.001305 -0.000149 0
-0.001201 -0.000125 0
-0.001109 -0.000108 0
-0.001025 -0.000094 0
-0.000950 -0.000084 0
-0.000880 -0.000077 0
-0.000815 -0.000071 0
-0.000753 -0.000067 0
-0.000694 -0.000064 0
-0.000637 -0.000062 0
-0.000582 -0.000060 0
-0.000527 -0.000059 0
-0.000474 -0.000058 0
-0.000422 -0.000057 0
-0.000370 -0.000055 0
-0.000320 -0.000054 0
-0.000272 -0.000052 0
-0.000225 -0.000049 0
-0.000181 -0.000046 0
-0.000141 -0.000041 0
-0.000104 -0.000036 0
-0.000072 -0.000031 0
-0.000046 -0.000024 0
-0.000025 -0.000017 0
-0.000011 -0.000009 0
-0.000003 -0.000002 0
0.000000 0.000002 0
0.000000 0.000001 0
0.000000 0.000000 0
0.000000 0.000000 0
0.000000 0.000000 0
0.000000 0.000001 0
-0.000003 0.000004 0
-0.000009 0.000008 0
-0.000018 0.000012 0
-0.000030 0.000015 0
-0.000043 0.000018 0
-0.000060 0.000021 0
-0.000079 0.000025 0
-0.000102 0.000030 0
-0.000130 0.000036 0
-0.000163 0.000044 0
-0.000205 0.000054 0
-0.000256 0.000067 0
-0.000319 0.000084 0
-0.000399 0.000106 0
-0.000500 0.000135 0
-0.000628 0.000174 0
-0.000793 0.000227 0
-0.001008 0.000301 0
-0.001289 0.000400 0
-0.001656 0.000528 0
-0.002125 0.000678 0
-0.002700 0.000822 0
-0.003353 0.000911 0
-0.004019 0.000890 0
-0.004608 0.000733 0
-0.005036 0.000469 0
-0.005266 0.000176 0
-0.005317 -0.000066 0
-0.005243 -0.000217 0
-0.005100 -0.000283 0
-0.004929 -0.000294 0
-0.004749 -0.000281 0
-0.004570 -0.000262 0
-0.004397 -0.000245 0
-0.004231 -0.000231 0
-0.004075 -0.000217 0
-0.003934 -0.000200 0
-0.003815 -0.000174 0
-0.003727 -0.000135 0
-0.003683 -0.000079 0
-0.003697 -0.000004 0
-0.003781 0.000092 0
-0.003945 0.000207 0
-0.004199 0.000338 0
-0.004542 0.000476 0
-0.004967 0.000608 0
-0.005450 0.000716 0
-0.005956 0.000776 0
-0.006431 0.000759 0
-0.006804 0.000632 0
-0.006991 0.000366 0
-0.006898 -0.000064 0
-0.006433 -0.000661 0
-0.005541 -0.001371 0
-0.004225 -0.002047 0
-0.002597 -0.002413 0
-0.000965 -0.001983 0
0.000000 -0.000746 0
0.000000 0.001263 0
-0.000614 0.002140 0
-0.001381 0.001148 0
-0.001870 0.000223 0
-0.002079 -0.000214 0
-0.002110 -0.000358 0
-0.002048 -0.000376 0
-0.001945 -0.000348 0
-0.001827 -0.000307 0
-0.001708 -0.000268 0
-0.001594 -0.000235 0
-0.001487 -0.000207 0
-0.001387 -0.000186 0
-0.001293 -0.000169 0
-0.001204 -0.000156 0
-0.001120 -0.000146 0
-0.001039 -0.000139 0
-0.000960 -0.000133 0
-0.000884 -0.000129 0
-0.000809 -0.000126 0
-0.000736 -0.000124 0
-0.000664 -0.000121 0
-0.000592 -0.000119 0
-0.000523 -0.000116 0
-0.000454 -0.000113 0
-0.000388 -0.000109 0
-0.000325 -0.000103 0
-0.000265 -0.000096 0
-0.000209 -0.000088 0
-0.000158 -0.000078 0
-0.000114 -0.000066 0
-0.000076 -0.000053 0
-0.000046 -0.000038 0
-0.000023 -0.000024 0
-0.000009 -0.000010 0
-0.000002 -0.000001 0
0.000000 0.000001 0
0.000000 0.000000 0
0.000000 0.000000 0
0.000000 0.000000 0
0.000000 0.000003 0
-0.000004 0.000010 0
-0.000012 0.000017 0
-0.000023 0.000024 0
-0.000037 0.000029 0
-0.000054 0.000035 0
-0.000074 0.000041 0
-0.000098 0.000049 0
-0.000126 0.000059 0
-0.000160 0.000071 0
-0.000202 0.000087 0
-0.000253 0.000108 0
-0.000316 0.000134 0
-0.000395 0.000167 0
-0.000494 0.000211 0
-0.000618 0.000268 0
-0.000776 0.000344 0
-0.000977 0.000446 0
-0.001235 0.000584 0
-0.001566 0.000767 0
-0.001988 0.000996 0
-0.002512 0.001255 0
-0.003136 0.001491 0
-0.003827 0.001620 0
-0.004521 0.001557 0
-0.005133 0.001271 0
-0.005591 0.000822 0
-0.005867 0.000339 0
-0.005979 -0.000056 0
-0.005971 -0.000306 0
-0.005888 -0.000425 0
-0.005762 -0.000462 0
-0.005613 -0.000459 0
-0.005452 -0.000442 0
-0.005289 -0.000422 0
-0.005130 -0.000399 0
-0.004984 -0.000370 0
-0.004858 -0.000329 0
-0.004762 -0.000270 0
-0.004708 -0.000186 0
-0.004709 -0.000072 0
-0.004777 0.000076 0
-0.004921 0.000256 0
-0.005149 0.000462 0
-0.005462 0.000683 0
-0.005852 0.000903 0
-0.006299 0.001096 0
-0.006770 0.001227 0
-0.007219 0.001257 0
-0.007586 0.001142 0
-0.007801 0.000836 0
-0.007785 0.000303 0
-0.007461 -0.000480 0
-0.006774 -0.001485 0
-0.005702 -0.002609 0
-0.004268 -0.003630 0
-0.002582 -0.004123 0
-0.000941 -0.003323 0
0.000000 -0.001238 0
0.000000 0.001527 0
-0.000471 0.002779 0
-0.001186 0.001792 0
-0.001739 0.000632 0
-0.002056 -0.000029 0
-0.002190 -0.000323 0
-0.002207 -0.000425 0
-0.002158 -0.000438 0
-0.002074 -0.000416 0
-0.001974 -0.000381 0
-0.001868 -0.000346 0
-0.001761 -0.000315 0
-0.001656 -0.000288 0
-0.001554 -0.000267 0
-0.001456 -0.000250 0
-0.001360 -0.000236 0
-0.001266 -0.000226 0
-0.001175 -0.000219 0
-0.001085 -0.000213 0
-0.000996 -0.000208 0
-0.000909 -0.000205 0
-0.000822 -0.000201 0
-0.000736 -0.000197 0
-0.000652 -0.000193 0
-0.000570 -0.000188 0
-0.000490 -0.000181 0
-0.000413 -0.000172 0
-0.000340 -0.000161 0
-0.000271 -0.000148 0
-0.000209 -0.000132 0
-0.000153 -0.000113 0
-0.000105 -0.000092 0
-0.000066 -0.000069 0
-0.000036 -0.000046 0
-0.000015 -0.000024 0
-0.000004 -0.000007 0
0.000000 -0.000000 0
0.000000 0.000000 0
0.000000 0.000000 0
0.000000 0.000000 0
0.000000 0.000005 0
-0.000004 0.000016 0
-0.000013 0.000028 0
-0.000025 0.000037 0
-0.000041 0.000045 0
-0.000059 0.000054 0
-0.000080 0.000064 0
-0.000106 0.000077 0
-0.000136 0.000092 0
-0.000173 0.000112 0
-0.000218 0.000137 0
-0.000273 0.000169 0
-0.000341 0.000209 0
-0.000425 0.000262 0
-0.000531 0.000329 0
-0.000664 0.000417 0
-0.000830 0.000533 0
-0.001040 0.000686 0
-0.001303 0.000890 0
-0.001633 0.001152 0
-0.002041 0.001474 0
-0.002532 0.001826 0
-0.003102 0.002137 0
-0.003725 0.002297 0
-0.004353 0.002196 0
-0.004927 0.001802 0
-0.005392 0.001203 0
-0.005722 0.000564 0
-0.005923 0.000037 0
-0.006015 -0.000308 0
-0.006023 -0.000492 0
-0.005973 -0.000570 0
-0.005885 -0.000592 0
-0.005774 -0.000587 0
-0.005653 -0.000567 0
-0.005534 -0.000536 0
-0.005428 -0.000490 0
-0.005344 -0.000421 0
-0.005294 -0.000323 0
-0.005288 -0.000188 0
-0.005335 -0.000011 0
-0.005444 0.000208 0
-0.005621 0.000465 0
-0.005865 0.000748 0
-0.006172 0.001040 0
-0.006525 0.001312 0
-0.006899 0.001526 0
-0.007259 0.001637 0
-0.007558 0.001592 0
-0.007742 0.001340 0
-0.007757 0.000830 0
-0.007546 0.000026 0
-0.007064 -0.001075 0
-0.006292 -0.002420 0
-0.005224 -0.003876 0
-0.003875 -0.005168 0
-0.002329 -0.005740 0
-0.000842 -0.004565 0
0.000000 -0.001687 0
0.000000 0.001734 0
-0.000375 0.003326 0
-0.001022 0.002416 0
-0.001584 0.001093 0
-0.001957 0.000238 0
-0.002163 -0.000207 0
-0.002247 -0.000408 0
-0.002251 -0.000481 0
-0.002206 -0.000491 0
-0.002133 -0.000475 0
-0.002044 -0.000447 0
-0.001947 -0.000419 0
-0.001847 -0.000392 0
-0.001745 -0.000369 0
-0.001643 -0.000350 0
-0.001542 -0.000335 0
-0.001442 -0.000323 0
-0.001343 -0.000314 0
-0.001244 -0.000308 0
-0.001146 -0.000302 0
-0.001048 -0.000298 0
-0.000952 -0.000293 0
-0.000855 -0.000288 0
-0.000760 -0.000283 0
-0.000667 -0.000275 0
-0.000576 -0.000266 0
-0.000488 -0.000253 0
-0.000404 -0.000238 0
-0.000326 -0.000219 0
-0.000253 -0.000196 0
-0.000188 -0.000169 0
-0.000132 -0.000140 0
-0.000084 -0.000107 0
-0.000047 -0.000074 0
-0.000021 -0.000043 0
-0.000005 -0.000016 0
0.000000 -0.000002 0
0.000000 0.000000 0
0.000000 0.000000 0
0.000000 0.000000 0
0.000000 0.000007 0
-0.000004 0.000022 0
-0.000013 0.000038 0
-0.000025 0.000051 0
-0.000040 0.000062 0
-0.000058 0.000074 0
-0.000079 0.000088 0
-0.000104 0.000105 0
-0.000134 0.000126 0
-0.000170 0.000153 0
-0.000213 0.000187 0
-0.000267 0.000231 0
-0.000333 0.000286 0
-0.000416 0.000357 0
-0.000518 0.000449 0
-0.000645 0.000567 0
-0.000804 0.000720 0
-0.000999 0.000919 0
-0.001240 0.001177 0
-0.001531 0.001504 0
-0.001879 0.001895 0
-0.002283 0.002316 0
-0.002740 0.002683 0
-0.003239 0.002872 0
-0.003759 0.002759 0
-0.004269 0.002309 0
-0.004736 0.001618 0
-0.005129 0.000870 0
-0.005430 0.000236 0
-0.005634 -0.000206 0
-0.005746 -0.000467 0
-0.005786 -0.000601 0
-0.005772 -0.000659 0
-0.005726 -0.000674 0
-0.005663 -0.000661 0
-0.005597 -0.000624 0
-0.005541 -0.000560 0
-0.005506 -0.000464 0
-0.005501 -0.000327 0
-0.005535 -0.000145 0
-0.005613 0.000085 0
-0.005739 0.000362 0
-0.005914 0.000676 0
-0.006132 0.001012 0
-0.006383 0.001343 0
-0.006647 0.001631 0
-0.006899 0.001830 0
-0.007105 0.001885 0
-0.007227 0.001741 0
-0.007226 0.001341 0
-0.007067 0.000640 0
-0.006721 -0.000389 0
-0.006177 -0.001733 0
-0.005433 -0.003325 0
-0.004481 -0.005027 0
-0.003321 -0.006525 0
-0.002004 -0.007156 0
-0.000729 -0.005652 0
0.000000 -0.002080 0
0.000000 0.001902 0
-0.000310 0.003802 0
-0.000894 0.003001 0
-0.001439 0.001567 0
-0.001836 0.000551 0
-0.002086 -0.000034 0
-0.002219 -0.000337 0
-0.002268 -0.000478 0
-0.002260 -0.000533 0
-0.002215 -0.000543 0
-0.002147 -0.000532 0
-0.002065 -0.000512 0
-0.001974 -0.000490 0
-0.001877 -0.000470 0
-0.001778 -0.000452 0
-0.001677 -0.000437 0
-0.001574 -0.000426 0
-0.001472 -0.000416 0
-0.001368 -0.000409 0
-0.001264 -0.000404 0
-0.001160 -0.000399 0
-0.001056 -0.000394 0
-0.000953 -0.000388 0
-0.000850 -0.000381 0
-0.000748 -0.000372 0
-0.000649 -0.000360 0
-0.000552 -0.000344 0
-0.000460 -0.000324 0
-0.000373 -0.000299 0
-0.000292 -0.000269 0
-0.000219 -0.000234 0
-0.000155 -0.000195 0
-0.000100 -0.000153 0
-0.000057 -0.000109 0
-0.000026 -0.000066 0
-0.000007 -0.000028 0
0.000000 -0.000005 0
0.000000 0.000000 0
0.000000 0.000000 0
0.000000 0.000000 0
0.000000 0.000008 0
-0.000004 0.000028 0
-0.000012 0.000048 0
-0.000023 0.000064 0
-0.000037 0.000078 0
-0.000053 0.000093 0
-0.000072 0.000110 0
-0.000095 0.000131 0
-0.000122 0.000157 0
-0.000154 0.000191 0
-0.000193 0.000234 0
-0.000241 0.000288 0
-0.000300 0.000358 0
-0.000373 0.000446 0
-0.000463 0.000559 0
-0.000575 0.000703 0
-0.000712 0.000887 0
-0.000877 0.001122 0
-0.001076 0.001421 0
-0.001307 0.001791 0
-0.001572 0.002225 0
-0.001866 0.002687 0
-0.002190 0.003093 0
-0.002544 0.003315 0
-0.002937 0.003226 0
-0.003369 0.002780 0
-0.003822 0.002062 0
-0.004265 0.001258 0
-0.004658 0.000542 0
-0.004972 0.000008 0
-0.005195 -0.000341 0
-0.005333 -0.000544 0
-0.005404 -0.000651 0
-0.005431 -0.000696 0
-0.005431 -0.000697 0
-0.005421 -0.000658 0
-0.005413 -0.000581 0
-0.005420 -0.000462 0
-0.005449 -0.000294 0
-0.005507 -0.000076 0
-0.005595 0.000193 0
-0.005713 0.000508 0
-0.005858 0.000857 0
-0.006022 0.001217 0
-0.006190 0.001556 0
-0.006343 0.001829 0
-0.006458 0.001984 0
-0.006509 0.001965 0
-0.006470 0.001714 0
-0.006317 0.001180 0
-0.006038 0.000325 0
-0.005626 -0.000864 0
-0.005094 -0.002364 0
-0.004443 -0.004116 0
-0.003661 -0.005988 0
-0.002729 -0.007645 0
-0.001666 -0.008333 0
-0.000616 -0.006569 0
0.000000 -0.002416 0
0.000000 0.002044 0
-0.000265 0.004221 0
-0.000793 0.003545 0
-0.001313 0.002036 0
-0.001716 0.000885 0
-0.001990 0.000176 0
-0.002156 -0.000226 0
-0.002239 -0.000439 0
-0.002263 -0.000544 0
-0.002244 -0.000587 0
-0.002197 -0.000598 0
-0.002131 -0.000592 0
-0.002052 -0.000580 0
-0.001964 -0.000565 0
-0.001870 -0.000551 0
-0.001772 -0.000539 0
-0.001671 -0.000529 0
-0.001568 -0.000521 0
-0.001463 -0.000515 0
-0.001356 -0.000510 0
-0.001248 -0.000505 0
-0.001140 -0.000501 0
-0.001031 -0.000495 0
-0.000923 -0.000487 0
-0.000815 -0.000476 0
-0.000710 -0.000461 0
-0.000607 -0.000442 0
-0.000507 -0.000417 0
-0.000413 -0.000386 0
-0.000325 -0.000350 0
-0.000245 -0.000307 0
-0.000174 -0.000258 0
-0.000114 -0.000205 0
-0.000065 -0.000149 0
-0.000030 -0.000093 0
-0.000008 -0.000042 0
0.000000 -0.000009 0
0.000000 0.000000 0
0.000000 0.000000 0
0.000000 0.000000 0
0.000000 0.000010 0
-0.000003 0.000034 0
-0.000010 0.000057 0
-0.000020 0.000076 0
-0.000032 0.000092 0
-0.000045 0.000109 0
-0.000061 0.000129 0
-0.000079 0.000154 0
-0.000101 0.000185 0
-0.000127 0.000224 0
-0.000159 0.000274 0
-0.000197 0.000337 0
-0.000245 0.000418 0
-0.000303 0.000521 0
-0.000375 0.000651 0
-0.000463 0.000815 0
-0.000569 0.001022 0
-0.000696 0.001283 0
-0.000843 0.001607 0
-0.001007 0.002000 0
-0.001183 0.002454 0
-0.001368 0.002933 0
-0.001561 0.003361 0
-0.001776 0.003619 0
-0.002037 0.003583 0
-0.002372 0.003194 0
-0.002785 0.002514 0
-0.003246 0.001706 0
-0.003704 0.000943 0
-0.004112 0.000331 0
-0.004441 -0.000107 0
-0.004683 -0.000392 0
-0.004848 -0.000561 0
-0.004956 -0.000647 0
-0.005024 -0.000672 0
-0.005070 -0.000642 0
-0.005107 -0.000561 0
-0.005147 -0.000428 0
-0.005197 -0.000241 0
-0.005261 0.000000 0
-0.005340 0.000292 0
-0.005432 0.000625 0
-0.005531 0.000985 0
-0.005626 0.001344 0
-0.005702 0.001665 0
-0.005744 0.001900 0
-0.005733 0.001996 0
-0.005651 0.001897 0
-0.005485 0.001549 0
-0.005228 0.000909 0
-0.004883 -0.000052 0
-0.004465 -0.001334 0
-0.003992 -0.002915 0
-0.003463 -0.004758 0
-0.002862 -0.006741 0
-0.002157 -0.008520 0
-0.001340 -0.009269 0
-0.000508 -0.007318 0
0.000000 -0.002696 0
0.000000 0.002167 0
-0.000232 0.004595 0
-0.000714 0.004050 0
-0.001206 0.002490 0
-0.001604 0.001228 0
-0.001890 0.000407 0
-0.002078 -0.000088 0
-0.002186 -0.000372 0
-0.002234 -0.000528 0
-0.002238 -0.000608 0
-0.002210 -0.000645 0
-0.002160 -0.000657 0
-0.002094 -0.000657 0
-0.002016 -0.000652 0
-0.001930 -0.000644 0
-0.001837 -0.000636 0
-0.001740 -0.000630 0
-0.001639 -0.000625 0
-0.001534 -0.000621 0
-0.001427 -0.000618 0
-0.001318 -0.000615 0
-0.001208 -0.000611 0
-0.001096 -0.000605 0
-0.000984 -0.000597 0
-0.000872 -0.000585 0
-0.000761 -0.000568 0
-0.000653 -0.000546 0
-0.000548 -0.000517 0
-0.000448 -0.000481 0
-0.000354 -0.000437 0
-0.000268 -0.000385 0
-0.000191 -0.000326 0
-0.000126 -0.000262 0
-0.000072 -0.000193 0
-0.000033 -0.000123 0
-0.000008 -0.000057 0
0.000000 -0.000013 0
0.000000 0.000000 0
0.000000 0.000000 0
0.000000 0.000000 0
0.000000 0.000012 0
-0.000003 0.000038 0
-0.000008 0.000065 0
-0.000015 0.000085 0
-0.000024 0.000103 0
-0.000034 0.000122 0
-0.000046 0.000144 0
-0.000059 0.000171 0
-0.000075 0.000205 0
-0.000093 0.000248 0
-0.000115 0.000304 0
-0.000141 0.000374 0
-0.000173 0.000463 0
-0.000213 0.000576 0
-0.000262 0.000718 0
-0.000321 0.000897 0
-0.000392 0.001120 0
-0.000475 0.001396 0
-0.000568 0.001732 0
-0.000665 0.002132 0
-0.000761 0.002587 0
-0.000849 0.003065 0
-0.000931 0.003501 0
-0.001023 0.003791 0
-0.001162 0.003823 0
-0.001389 0.003527 0
-0.001729 0.002936 0
-0.002165 0.002177 0
-0.002648 0.001408 0
-0.003118 0.000744 0
-0.003533 0.000231 0
-0.003874 -0.000137 0
-0.004137 -0.000379 0
-0.004332 -0.000521 0
-0.004475 -0.000583 0
-0.004581 -0.000576 0
-0.004663 -0.000505 0
-0.004731 -0.000372 0
-0.004793 -0.000180 0
-0.004854 0.000068 0
-0.004914 0.000365 0
-0.004969 0.000699 0
-0.005014 0.001050 0
-0.005037 0.001388 0
-0.005028 0.001674 0
-0.004972 0.001859 0
-0.004858 0.001891 0
-0.004677 0.001717 0
-0.004427 0.001291 0
-0.004113 0.000578 0
-0.003750 -0.000438 0
-0.003366 -0.001756 0
-0.002972 -0.003366 0
-0.002570 -0.005247 0
-0.002136 -0.007295 0
-0.001634 -0.009167 0
-0.001038 -0.009982 0
-0.000405 -0.007908 0
0.000000 -0.002924 0
0.000000 0.002276 0
-0.000206 0.004935 0
-0.000649 0.004520 0
-0.001116 0.002927 0
-0.001504 0.001570 0
-0.001794 0.000649 0
-0.001994 0.000069 0
-0.002120 -0.000283 0
-0.002187 -0.000491 0
-0.002210 -0.000610 0
-0.002199 -0.000675 0
-0.002164 -0.000708 0
-0.002111 -0.000724 0
-0.002044 -0.000729 0
-0.001966 -0.000730 0
-0.001880 -0.000728 0
-0.001788 -0.000727 0
-0.001691 -0.000726 0
-0.001589 -0.000726 0
-0.001483 -0.000726 0
-0.001374 -0.000725 0
-0.001263 -0.000723 0
-0.001150 -0.000718 0
-0.001035 -0.000711 0
-0.000921 -0.000698 0
-0.000806 -0.000680 0
-0.000694 -0.000655 0
-0.000584 -0.000622 0
-0.000479 -0.000580 0
-0.000379 -0.000529 0
-0.000288 -0.000469 0
-0.000206 -0.000400 0
-0.000136 -0.000323 0
-0.000078 -0.000241 0
-0.000036 -0.000157 0
-0.000009 -0.000074 0
0.000000 -0.000017 0
0.000000 0.000000 0
0.000000 0.000000 0
0.000000 0.000000 0
0.000000 0.000012 0
-0.000002 0.000042 0