# vtk DataFile Version 2.0
generated by CFD-lab course output (written by Tobias Neckel) 
ASCII

DATASET STRUCTURED_GRID
DIMENSIONS  99 49 1 
POINTS 4851 float

0.000000 0.000000 0
0.020000 0.000000 0
0.040000 0.000000 0
0.060000 0.000000 0
0.080000 0.000000 0
0.100000 0.000000 0
0.120000 0.000000 0
0.140000 0.000000 0
0.160000 0.000000 0
0.180000 0.000000 0
0.200000 0.000000 0
0.220000 0.000000 0
0.240000 0.000000 0
0.260000 0.000000 0
0.280000 0.000000 0
0.300000 0.000000 0
0.320000 0.000000 0
0.340000 0.000000 0
0.360000 0.000000 0
0.380000 0.000000 0
0.400000 0.000000 0
0.420000 0.000000 0
0.440000 0.000000 0
0.460000 0.000000 0
0.480000 0.000000 0
0.500000 0.000000 0
0.520000 0.000000 0
0.540000 0.000000 0
0.560000 0.000000 0
0.580000 0.000000 0
0.600000 0.000000 0
0.620000 0.000000 0
0.640000 0.000000 0
0.660000 0.000000 0
0.680000 0.000000 0
0.700000 0.000000 0
0.720000 0.000000 0
0.740000 0.000000 0
0.760000 0.000000 0
0.780000 0.000000 0
0.800000 0.000000 0
0.820000 0.000000 0
0.840000 0.000000 0
0.860000 0.000000 0
0.880000 0.000000 0
0.900000 0.000000 0
0.920000 0.000000 0
0.940000 0.000000 0
0.960000 0.000000 0
0.980000 0.000000 0
1.000000 0.000000 0
1.020000 0.000000 0
1.040000 0.000000 0
1.060000 0.000000 0
1.080000 0.000000 0
1.100000 0.000000 0
1.120000 0.000000 0
1.140000 0.000000 0
1.160000 0.000000 0
1.180000 0.000000 0
1.200000 0.000000 0
1.220000 0.000000 0
1.240000 0.000000 0
1.260000 0.000000 0
1.280000 0.000000 0
1.300000 0.000000 0
1.320000 0.000000 0
1.340000 0.000000 0
1.360000 0.000000 0
1.380000 0.000000 0
1.400000 0.000000 0
1.420000 0.000000 0
1.440000 0.000000 0
1.460000 0.000000 0
1.480000 0.000000 0
1.500000 0.000000 0
1.520000 0.000000 0
1.540000 0.000000 0
1.560000 0.000000 0
1.580000 0.000000 0
1.600000 0.000000 0
1.620000 0.000000 0
1.640000 0.000000 0
1.660000 0.000000 0
1.680000 0.000000 0
1.700000 0.000000 0
1.720000 0.000000 0
1.740000 0.000000 0
1.760000 0.000000 0
1.780000 0.000000 0
1.800000 0.000000 0
1.820000 0.000000 0
1.840000 0.000000 0
1.860000 0.000000 0
1.880000 0.000000 0
1.900000 0.000000 0
1.920000 0.000000 0
1.940000 0.000000 0
1.960000 0.000000 0
0.000000 0.020000 0
0.020000 0.020000 0
0.040000 0.020000 0
0.060000 0.020000 0
0.080000 0.020000 0
0.100000 0.020000 0
0.120000 0.020000 0
0.140000 0.020000 0
0.160000 0.020000 0
0.180000 0.020000 0
0.200000 0.020000 0
0.220000 0.020000 0
0.240000 0.020000 0
0.260000 0.020000 0
0.280000 0.020000 0
0.300000 0.020000 0
0.320000 0.020000 0
0.340000 0.020000 0
0.360000 0.020000 0
0.380000 0.020000 0
0.400000 0.020000 0
0.420000 0.020000 0
0.440000 0.020000 0
0.460000 0.020000 0
0.480000 0.020000 0
0.500000 0.020000 0
0.520000 0.020000 0
0.540000 0.020000 0
0.560000 0.020000 0
0.580000 0.020000 0
0.600000 0.020000 0
0.620000 0.020000 0
0.640000 0.020000 0
0.660000 0.020000 0
0.680000 0.020000 0
0.700000 0.020000 0
0.720000 0.020000 0
0.740000 0.020000 0
0.760000 0.020000 0
0.780000 0.020000 0
0.800000 0.020000 0
0.820000 0.020000 0
0.840000 0.020000 0
0.860000 0.020000 0
0.880000 0.020000 0
0.900000 0.020000 0
0.920000 0.020000 0
0.940000 0.020000 0
0.960000 0.020000 0
0.980000 0.020000 0
1.000000 0.020000 0
1.020000 0.020000 0
1.040000 0.020000 0
1.060000 0.020000 0
1.080000 0.020000 0
1.100000 0.020000 0
1.120000 0.020000 0
1.140000 0.020000 0
1.160000 0.020000 0
1.180000 0.020000 0
1.200000 0.020000 0
1.220000 0.020000 0
1.240000 0.020000 0
1.260000 0.020000 0
1.280000 0.020000 0
1.300000 0.020000 0
1.320000 0.020000 0
1.340000 0.020000 0
1.360000 0.020000 0
1.380000 0.020000 0
1.400000 0.020000 0
1.420000 0.020000 0
1.440000 0.020000 0
1.460000 0.020000 0
1.480000 0.020000 0
1.500000 0.020000 0
1.520000 0.020000 0
1.540000 0.020000 0
1.560000 0.020000 0
1.580000 0.020000 0
1.600000 0.020000 0
1.620000 0.020000 0
1.640000 0.020000 0
1.660000 0.020000 0
1.680000 0.020000 0
1.700000 0.020000 0
1.720000 0.020000 0
1.740000 0.020000 0
1.760000 0.020000 0
1.780000 0.020000 0
1.800000 0.020000 0
1.820000 0.020000 0
1.840000 0.020000 0
1.860000 0.020000 0
1.880000 0.020000 0
1.900000 0.020000 0
1.920000 0.020000 0
1.940000 0.020000 0
1.960000 0.020000 0
0.000000 0.040000 0
0.020000 0.040000 0
0.040000 0.040000 0
0.060000 0.040000 0
0.080000 0.040000 0
0.100000 0.040000 0
0.120000 0.040000 0
0.140000 0.040000 0
0.160000 0.040000 0
0.180000 0.040000 0
0.200000 0.040000 0
0.220000 0.040000 0
0.240000 0.040000 0
0.260000 0.040000 0
0.280000 0.040000 0
0.300000 0.040000 0
0.320000 0.040000 0
0.340000 0.040000 0
0.360000 0.040000 0
0.380000 0.040000 0
0.400000 0.040000 0
0.420000 0.040000 0
0.440000 0.040000 0
0.460000 0.040000 0
0.480000 0.040000 0
0.500000 0.040000 0
0.520000 0.040000 0
0.540000 0.040000 0
0.560000 0.040000 0
0.580000 0.040000 0
0.600000 0.040000 0
0.620000 0.040000 0
0.640000 0.040000 0
0.660000 0.040000 0
0.680000 0.040000 0
0.700000 0.040000 0
0.720000 0.040000 0
0.740000 0.040000 0
0.760000 0.040000 0
0.780000 0.040000 0
0.800000 0.040000 0
0.820000 0.040000 0
0.840000 0.040000 0
0.860000 0.040000 0
0.880000 0.040000 0
0.900000 0.040000 0
0.920000 0.040000 0
0.940000 0.040000 0
0.960000 0.040000 0
0.980000 0.040000 0
1.000000 0.040000 0
1.020000 0.040000 0
1.040000 0.040000 0
1.060000 0.040000 0
1.080000 0.040000 0
1.100000 0.040000 0
1.120000 0.040000 0
1.140000 0.040000 0
1.160000 0.040000 0
1.180000 0.040000 0
1.200000 0.040000 0
1.220000 0.040000 0
1.240000 0.040000 0
1.260000 0.040000 0
1.280000 0.040000 0
1.300000 0.040000 0
1.320000 0.040000 0
1.340000 0.040000 0
1.360000 0.040000 0
1.380000 0.040000 0
1.400000 0.040000 0
1.420000 0.040000 0
1.440000 0.040000 0
1.460000 0.040000 0
1.480000 0.040000 0
1.500000 0.040000 0
1.520000 0.040000 0
1.540000 0.040000 0
1.560000 0.040000 0
1.580000 0.040000 0
1.600000 0.040000 0
1.620000 0.040000 0
1.640000 0.040000 0
1.660000 0.040000 0
1.680000 0.040000 0
1.700000 0.040000 0
1.720000 0.040000 0
1.740000 0.040000 0
1.760000 0.040000 0
1.780000 0.040000 0
1.800000 0.040000 0
1.820000 0.040000 0
1.840000 0.040000 0
1.860000 0.040000 0
1.880000 0.040000 0
1.900000 0.040000 0
1.920000 0.040000 0
1.940000 0.040000 0
1.960000 0.040000 0
0.000000 0.060000 0
0.020000 0.060000 0
0.040000 0.060000 0
0.060000 0.060000 0
0.080000 0.060000 0
0.100000 0.060000 0
0.120000 0.060000 0
0.140000 0.060000 0
0.160000 0.060000 0
0.180000 0.060000 0
0.200000 0.060000 0
0.220000 0.060000 0
0.240000 0.060000 0
0.260000 0.060000 0
0.280000 0.060000 0
0.300000 0.060000 0
0.320000 0.060000 0
0.340000 0.060000 0
0.360000 0.060000 0
0.380000 0.060000 0
0.400000 0.060000 0
0.420000 0.060000 0
0.440000 0.060000 0
0.460000 0.060000 0
0.480000 0.060000 0
0.500000 0.060000 0
0.520000 0.060000 0
0.540000 0.060000 0
0.560000 0.060000 0
0.580000 0.060000 0
0.600000 0.060000 0
0.620000 0.060000 0
0.640000 0.060000 0
0.660000 0.060000 0
0.680000 0.060000 0
0.700000 0.060000 0
0.720000 0.060000 0
0.740000 0.060000 0
0.760000 0.060000 0
0.780000 0.060000 0
0.800000 0.060000 0
0.820000 0.060000 0
0.840000 0.060000 0
0.860000 0.060000 0
0.880000 0.060000 0
0.900000 0.060000 0
0.920000 0.060000 0
0.940000 0.060000 0
0.960000 0.060000 0
0.980000 0.060000 0
1.000000 0.060000 0
1.020000 0.060000 0
1.040000 0.060000 0
1.060000 0.060000 0
1.080000 0.060000 0
1.100000 0.060000 0
1.120000 0.060000 0
1.140000 0.060000 0
1.160000 0.060000 0
1.180000 0.060000 0
1.200000 0.060000 0
1.220000 0.060000 0
1.240000 0.060000 0
1.260000 0.060000 0
1.280000 0.060000 0
1.300000 0.060000 0
1.320000 0.060000 0
1.340000 0.060000 0
1.360000 0.060000 0
1.380000 0.060000 0
1.400000 0.060000 0
1.420000 0.060000 0
1.440000 0.060000 0
1.460000 0.060000 0
1.480000 0.060000 0
1.500000 0.060000 0
1.520000 0.060000 0
1.540000 0.060000 0
1.560000 0.060000 0
1.580000 0.060000 0
1.600000 0.060000 0
1.620000 0.060000 0
1.640000 0.060000 0
1.660000 0.060000 0
1.680000 0.060000 0
1.700000 0.060000 0
1.720000 0.060000 0
1.740000 0.060000 0
1.760000 0.060000 0
1.780000 0.060000 0
1.800000 0.060000 0
1.820000 0.060000 0
1.840000 0.060000 0
1.860000 0.060000 0
1.880000 0.060000 0
1.900000 0.060000 0
1.920000 0.060000 0
1.940000 0.060000 0
1.960000 0.060000 0
0.000000 0.080000 0
0.020000 0.080000 0
0.040000 0.080000 0
0.060000 0.080000 0
0.080000 0.080000 0
0.100000 0.080000 0
0.120000 0.080000 0
0.140000 0.080000 0
0.160000 0.080000 0
0.180000 0.080000 0
0.200000 0.080000 0
0.220000 0.080000 0
0.240000 0.080000 0
0.260000 0.080000 0
0.280000 0.080000 0
0.300000 0.080000 0
0.320000 0.080000 0
0.340000 0.080000 0
0.360000 0.080000 0
0.380000 0.080000 0
0.400000 0.080000 0
0.420000 0.080000 0
0.440000 0.080000 0
0.460000 0.080000 0
0.480000 0.080000 0
0.500000 0.080000 0
0.520000 0.080000 0
0.540000 0.080000 0
0.560000 0.080000 0
0.580000 0.080000 0
0.600000 0.080000 0
0.620000 0.080000 0
0.640000 0.080000 0
0.660000 0.080000 0
0.680000 0.080000 0
0.700000 0.080000 0
0.720000 0.080000 0
0.740000 0.080000 0
0.760000 0.080000 0
0.780000 0.080000 0
0.800000 0.080000 0
0.820000 0.080000 0
0.840000 0.080000 0
0.860000 0.080000 0
0.880000 0.080000 0
0.900000 0.080000 0
0.920000 0.080000 0
0.940000 0.080000 0
0.960000 0.080000 0
0.980000 0.080000 0
1.000000 0.080000 0
1.020000 0.080000 0
1.040000 0.080000 0
1.060000 0.080000 0
1.080000 0.080000 0
1.100000 0.080000 0
1.120000 0.080000 0
1.140000 0.080000 0
1.160000 0.080000 0
1.180000 0.080000 0
1.200000 0.080000 0
1.220000 0.080000 0
1.240000 0.080000 0
1.260000 0.080000 0
1.280000 0.080000 0
1.300000 0.080000 0
1.320000 0.080000 0
1.340000 0.080000 0
1.360000 0.080000 0
1.380000 0.080000 0
1.400000 0.080000 0
1.420000 0.080000 0
1.440000 0.080000 0
1.460000 0.080000 0
1.480000 0.080000 0
1.500000 0.080000 0
1.520000 0.080000 0
1.540000 0.080000 0
1.560000 0.080000 0
1.580000 0.080000 0
1.600000 0.080000 0
1.620000 0.080000 0
1.640000 0.080000 0
1.660000 0.080000 0
1.680000 0.080000 0
1.700000 0.080000 0
1.720000 0.080000 0
1.740000 0.080000 0
1.760000 0.080000 0
1.780000 0.080000 0
1.800000 0.080000 0
1.820000 0.080000 0
1.840000 0.080000 0
1.860000 0.080000 0
1.880000 0.080000 0
[...]
POINT_DATA 4851 

VECTORS velocity float
0.000000 0.000000 0
-0.000453 0.000000 0
-0.000592 0.000000 0
-0.000540 0.000000 0
-0.000451 0.000000 0
-0.000374 0.000000 0
-0.000316 0.000000 0
-0.000273 0.000000 0
-0.000241 0.000000 0
-0.000216 0.000000 0
-0.000196 0.000000 0
-0.000180 0.000000 0
-0.000166 0.000000 0
-0.000154 0.000000 0
-0.000143 0.000000 0
-0.000134 0.000000 0
-0.000125 0.000000 0
-0.000117 0.000000 0
-0.000110 0.000000 0
-0.000103 0.000000 0
-0.000096 0.000000 0
-0.000090 0.000000 0
-0.000084 0.000000 0
-0.000078 0.000000 0
-0.000073 0.000000 0
-0.000067 0.000000 0
-0.000062 0.000000 0
-0.000057 0.000000 0
-0.000051 0.000000 0
-0.000045 0.000000 0
-0.000038 0.000000 0
-0.000030 0.000000 0
-0.000022 0.000000 0
-0.000013 0.000000 0
-0.000006 0.000000 0
-0.000001 0.000000 0
0.000000 0.000000 0
0.000000 0.000000 0
0.000000 0.000000 0
0.000000 0.000000 0
0.000000 0.000000 0
-0.000035 0.000000 0
-0.000100 0.000000 0
-0.000160 0.000000 0
-0.000203 0.000000 0
-0.000230 0.000000 0
-0.000245 0.000000 0
-0.000254 0.000000 0
-0.000260 0.000000 0
-0.000265 0.000000 0
-0.000269 0.000000 0
-0.000272 0.000000 0
-0.000275 0.000000 0
-0.000278 0.000000 0
-0.000281 0.000000 0
-0.000284 0.000000 0
-0.000286 0.000000 0
-0.000288 0.000000 0
-0.000290 0.000000 0
-0.000292 0.000000 0
-0.000294 0.000000 0
-0.000295 0.000000 0
-0.000297 0.000000 0
-0.000298 0.000000 0
-0.000299 0.000000 0
-0.000301 0.000000 0
-0.000302 0.000000 0
-0.000303 0.000000 0
-0.000303 0.000000 0
-0.000304 0.000000 0
-0.000305 0.000000 0
-0.000306 0.000000 0
-0.000306 0.000000 0
-0.000307 0.000000 0
-0.000308 0.000000 0
-0.000309 0.000000 0
-0.000310 0.000000 0
-0.000311 0.000000 0
-0.000312 0.000000 0
-0.000312 0.000000 0
-0.000312 0.000000 0
-0.000311 0.000000 0
-0.000309 0.000000 0
-0.000305 0.000000 0
-0.000301 0.000000 0
-0.000296 0.000000 0
-0.000293 0.000000 0
-0.000295 0.000000 0
-0.000305 0.000000 0
-0.000325 0.000000 0
-0.000357 0.000000 0
-0.000399 0.000000 0
-0.000442 0.000000 0
-0.000475 0.000000 0
-0.000477 0.000000 0
-0.000424 0.000000 0
-0.000301 0.000000 0
-0.000128 0.000000 0
0.000000 0.000000 0
0.000000 0.000453 0
-0.000905 0.000593 0
-0.001387 0.000088 0
-0.001440 -0.000140 0
-0.001325 -0.000166 0
-0.001178 -0.000134 0
-0.001042 -0.000100 0
-0.000928 -0.000074 0
-0.000835 -0.000056 0
-0.000759 -0.000044 0
-0.000695 -0.000036 0
-0.000641 -0.000030 0
-0.000594 -0.000025 0
-0.000552 -0.000022 0
-0.000516 -0.000020 0
-0.000482 -0.000018 0
-0.000451 -0.000016 0
-0.000423 -0.000015 0
-0.000396 -0.000014 0
-0.000371 -0.000013 0
-0.000347 -0.000012 0
-0.000325 -0.000012 0
-0.000303 -0.000011 0
-0.000282 -0.000010 0
-0.000262 -0.000010 0
-0.000243 -0.000010 0
-0.000223 -0.000010 0
-0.000203 -0.000010 0
-0.000182 -0.000011 0
-0.000160 -0.000013 0
-0.000135 -0.000014 0
-0.000108 -0.000016 0
-0.000079 -0.000016 0
-0.000050 -0.000016 0
-0.000024 -0.000012 0
-0.000006 -0.000005 0
0.000000 -0.000001 0
0.000000 0.000000 0
0.000000 0.000000 0
0.000000 0.000000 0
0.000000 0.000035 0
-0.000100 0.000099 0
-0.000277 0.000124 0
-0.000451 0.000102 0
-0.000586 0.000069 0
-0.000680 0.000042 0
-0.000743 0.000024 0
-0.000784 0.000015 0
-0.000814 0.000010 0
-0.000836 0.000008 0
-0.000854 0.000007 0
-0.000870 0.000006 0
-0.000884 0.000006 0
-0.000897 0.000005 0
-0.000908 0.000005 0
-0.000919 0.000004 0
-0.000928 0.000004 0
-0.000937 0.000004 0
-0.000945 0.000003 0
-0.000953 0.000003 0
-0.000960 0.000003 0
-0.000966 0.000003 0
-0.000972 0.000002 0
-0.000977 0.000002 0
-0.000982 0.000002 0
-0.000986 0.000002 0
-0.000990 0.000002 0
-0.000994 0.000001 0
-0.000998 0.000001 0
-0.001001 0.000001 0
-0.001003 0.000001 0
-0.001006 0.000001 0
-0.001008 0.000001 0
-0.001011 0.000001 0
-0.001013 0.000001 0
-0.001016 0.000001 0
-0.001019 0.000002 0
-0.001021 0.000002 0
-0.001024 0.000001 0
-0.001025 0.000000 0
-0.001024 -0.000001 0
-0.001020 -0.000004 0
-0.001012 -0.000006 0
-0.001000 -0.000009 0
-0.000986 -0.000010 0
-0.000972 -0.000008 0
-0.000966 -0.000002 0
-0.000976 0.000011 0
-0.001009 0.000030 0
-0.001072 0.000052 0
-0.001165 0.000073 0
-0.001277 0.000085 0
-0.001385 0.000076 0
-0.001448 0.000034 0
-0.001411 -0.000051 0
-0.001217 -0.000176 0
-0.000840 -0.000297 0
-0.000348 -0.000302 0
0.000000 -0.000128 0
0.000000 0.000906 0
-0.000796 0.001388 0
-0.001524 0.000535 0
-0.001844 -0.000061 0
-0.001886 -0.000261 0
-0.001801 -0.000282 0
-0.001673 -0.000249 0
-0.001540 -0.000206 0
-0.001417 -0.000169 0
-0.001306 -0.000140 0
-0.001209 -0.000117 0
-0.001123 -0.000100 0
-0.001047 -0.000087 0
-0.000978 -0.000077 0
-0.000915 -0.000070 0
-0.000858 -0.000063 0
-0.000805 -0.000059 0
-0.000755 -0.000054 0
-0.000708 -0.000051 0
-0.000664 -0.000048 0
-0.000622 -0.000046 0
-0.000581 -0.000043 0
-0.000542 -0.000042 0
-0.000505 -0.000040 0
-0.000468 -0.000039 0
-0.000433 -0.000038 0
-0.000397 -0.000039 0
-0.000360 -0.000040 0
-0.000322 -0.000043 0
-0.000282 -0.000047 0
-0.000238 -0.000051 0
-0.000191 -0.000055 0
-0.000142 -0.000057 0
-0.000093 -0.000054 0
-0.000048 -0.000043 0
-0.000014 -0.000024 0
0.000000 -0.000006 0
0.000000 0.000000 0
0.000000 0.000000 0
0.000000 0.000000 0
0.000000 0.000099 0
-0.000130 0.000276 0
-0.000362 0.000350 0
-0.000603 0.000308 0
-0.000808 0.000229 0
-0.000965 0.000156 0
-0.001080 0.000103 0
-0.001162 0.000070 0
-0.001224 0.000051 0
-0.001272 0.000040 0
-0.001312 0.000033 0
-0.001345 0.000029 0
-0.001375 0.000026 0
-0.001401 0.000024 0
-0.001424 0.000021 0
-0.001446 0.000020 0
-0.001465 0.000018 0
-0.001483 0.000016 0
-0.001500 0.000015 0
-0.001515 0.000014 0
-0.001528 0.000013 0
-0.001541 0.000011 0
-0.001552 0.000011 0
-0.001563 0.000010 0
-0.001572 0.000009 0
-0.001581 0.000008 0
-0.001589 0.000007 0
-0.001597 0.000006 0
-0.001603 0.000006 0
-0.001609 0.000005 0
-0.001615 0.000005 0
-0.001620 0.000004 0
-0.001624 0.000004 0
-0.001629 0.000004 0
-0.001633 0.000005 0
-0.001638 0.000005 0
-0.001642 0.000005 0
-0.001646 0.000004 0
-0.001649 0.000003 0
-0.001649 -0.000000 0
-0.001647 -0.000006 0
-0.001639 -0.000013 0
-0.001627 -0.000020 0
-0.001609 -0.000027 0
-0.001589 -0.000028 0
-0.001572 -0.000020 0
-0.001567 0.000003 0
-0.001586 0.000042 0
-0.001638 0.000095 0
-0.001730 0.000155 0
-0.001859 0.000205 0
-0.002004 0.000220 0
-0.002127 0.000170 0
-0.002167 0.000025 0
-0.002053 -0.000231 0
-0.001718 -0.000571 0
-0.001151 -0.000870 0
-0.000464 -0.000841 0
0.000000 -0.000348 0
0.000000 0.001249 0
-0.000598 0.002118 0
-0.001347 0.001137 0
-0.001822 0.000222 0
-0.002021 -0.000208 0
-0.002046 -0.000347 0
-0.001983 -0.000361 0
-0.001882 -0.000331 0
-0.001769 -0.000290 0
-0.001657 -0.000252 0
-0.001551 -0.000219 0
-0.001453 -0.000192 0
-0.001363 -0.000170 0
-0.001280 -0.000153 0
-0.001203 -0.000139 0
-0.001130 -0.000128 0
-0.001063 -0.000119 0
-0.000999 -0.000111 0
-0.000938 -0.000105 0
-0.000880 -0.000099 0
-0.000825 -0.000095 0
-0.000771 -0.000090 0
-0.000720 -0.000087 0
-0.000670 -0.000084 0
-0.000620 -0.000082 0
-0.000572 -0.000081 0
-0.000524 -0.000082 0
-0.000475 -0.000085 0
-0.000424 -0.000090 0
-0.000370 -0.000096 0
-0.000313 -0.000104 0
-0.000253 -0.000112 0
-0.000189 -0.000115 0
-0.000125 -0.000109 0
-0.000066 -0.000090 0
-0.000021 -0.000053 0
0.000000 -0.000015 0
0.000000 0.000000 0
0.000000 0.000000 0
0.000000 0.000000 0
0.000000 0.000165 0
-0.000118 0.000461 0
-0.000340 0.000597 0
-0.000586 0.000548 0
-0.000808 0.000430 0
-0.000992 0.000313 0
-0.001135 0.000221 0
-0.001246 0.000159 0
-0.001332 0.000120 0
-0.001402 0.000095 0
-0.001460 0.000079 0
-0.001510 0.000069 0
-0.001554 0.000061 0
-0.001593 0.000055 0
-0.001628 0.000050 0
-0.001660 0.000045 0
-0.001690 0.000041 0
-0.001716 0.000038 0
-0.001741 0.000034 0
-0.001763 0.000031 0
-0.001784 0.000029 0
-0.001802 0.000026 0
-0.001820 0.000024 0
-0.001835 0.000022 0
-0.001850 0.000020 0
-0.001863 0.000018 0
-0.001876 0.000017 0
-0.001887 0.000015 0
-0.001897 0.000014 0
-0.001907 0.000012 0
-0.001916 0.000011 0
-0.001923 0.000010 0
-0.001931 0.000010 0
-0.001938 0.000010 0
-0.001944 0.000010 0
-0.001950 0.000010 0
-0.001956 0.000010 0
-0.001962 0.000008 0
-0.001966 0.000004 0
-0.001967 -0.000002 0
-0.001965 -0.000012 0
-0.001957 -0.000024 0
-0.001944 -0.000037 0
-0.001926 -0.000047 0
-0.001907 -0.000047 0
-0.001892 -0.000030 0
-0.001890 0.000012 0
-0.001914 0.000082 0
-0.001972 0.000174 0
-0.002071 0.000272 0
-0.002202 0.000346 0
-0.002343 0.000352 0
-0.002448 0.000239 0
-0.002452 -0.000040 0
-0.002279 -0.000500 0
-0.001870 -0.001078 0
-0.001227 -0.001552 0
-0.000483 -0.001453 0
0.000000 -0.000592 0
0.000000 0.001504 0
-0.000448 0.002736 0
-0.001135 0.001760 0
-0.001660 0.000613 0
-0.001953 -0.000037 0
-0.002069 -0.000320 0
-0.002075 -0.000413 0
-0.002020 -0.000420 0
-0.001937 -0.000394 0
-0.001841 -0.000357 0
-0.001743 -0.000321 0
-0.001648 -0.000288 0
-0.001556 -0.000261 0
-0.001468 -0.000238 0
-0.001385 -0.000219 0
-0.001307 -0.000203 0
-0.001232 -0.000190 0
-0.001160 -0.000179 0
-0.001091 -0.000169 0
-0.001025 -0.000161 0
-0.000961 -0.000154 0
-0.000899 -0.000148 0
-0.000839 -0.000143 0
-0.000780 -0.000139 0
-0.000722 -0.000136 0
-0.000665 -0.000135 0
-0.000608 -0.000136 0
-0.000550 -0.000140 0
-0.000491 -0.000147 0
-0.000429 -0.000157 0
-0.000363 -0.000168 0
-0.000294 -0.000179 0
-0.000221 -0.000184 0
-0.000148 -0.000176 0
-0.000080 -0.000148 0
-0.000025 -0.000090 0
0.000000 -0.000026 0
0.000000 0.000000 0
0.000000 0.000000 0
0.000000 0.000000 0
0.000000 0.000217 0
-0.000087 0.000616 0
-0.000266 0.000818 0
-0.000477 0.000776 0
-0.000681 0.000635 0
-0.000860 0.000482 0
-0.001008 0.000357 0
-0.001129 0.000267 0
-0.001228 0.000207 0
-0.001310 0.000167 0
-0.001381 0.000141 0
-0.001443 0.000123 0
-0.001499 0.000109 0
-0.001549 0.000098 0
-0.001595 0.000089 0
-0.001637 0.000081 0
-0.001675 0.000074 0
-0.001710 0.000067 0
-0.001742 0.000062 0
-0.001772 0.000056 0
-0.001799 0.000052 0
-0.001824 0.000047 0
-0.001847 0.000043 0
-0.001869 0.000040 0
-0.001888 0.000037 0
-0.001907 0.000034 0
-0.001924 0.000031 0
-0.001940 0.000028 0
-0.001954 0.000025 0
-0.001968 0.000023 0
-0.001981 0.000021 0
-0.001992 0.000019 0
-0.002003 0.000018 0
-0.002013 0.000018 0
-0.002023 0.000017 0
-0.002032 0.000017 0
-0.002041 0.000016 0
-0.002049 0.000013 0
-0.002056 0.000008 0
-0.002060 -0.000002 0
-0.002061 -0.000016 0
-0.002058 -0.000033 0
-0.002049 -0.000051 0
-0.002036 -0.000064 0
-0.002022 -0.000063 0
-0.002012 -0.000037 0
-0.002014 0.000024 0
-0.002039 0.000123 0
-0.002096 0.000252 0
-0.002188 0.000385 0
-0.002309 0.000477 0
-0.002433 0.000466 0
-0.002514 0.000278 0
-0.002489 -0.000144 0
-0.002285 -0.000813 0
-0.001852 -0.001624 0
-0.001199 -0.002257 0
-0.000463 -0.002068 0
0.000000 -0.000831 0
0.000000 0.001698 0
-0.000345 0.003253 0
-0.000950 0.002348 0
-0.001468 0.001041 0
-0.001801 0.000202 0
-0.001973 -0.000225 0
-0.002031 -0.000409 0
-0.002019 -0.000468 0
-0.001967 -0.000469 0
-0.001895 -0.000445 0
-0.001812 -0.000412 0
-0.001727 -0.000379 0
-0.001641 -0.000349 0
-0.001557 -0.000323 0
-0.001476 -0.000300 0
-0.001397 -0.000281 0
-0.001320 -0.000265 0
-0.001246 -0.000251 0
-0.001175 -0.000240 0
-0.001105 -0.000229 0
-0.001036 -0.000220 0
-0.000970 -0.000213 0
-0.000905 -0.000206 0
-0.000841 -0.000200 0
-0.000778 -0.000197 0
-0.000715 -0.000195 0
-0.000653 -0.000197 0
-0.000591 -0.000202 0
-0.000527 -0.000211 0
-0.000460 -0.000223 0
-0.000391 -0.000239 0
-0.000317 -0.000253 0
-0.000240 -0.000260 0
-0.000162 -0.000251 0
-0.000088 -0.000213 0
-0.000028 -0.000132 0
0.000000 -0.000040 0
0.000000 0.000000 0
0.000000 0.000000 0
0.000000 0.000000 0
0.000000 0.000251 0
-0.000052 0.000727 0
-0.000174 0.000987 0
-0.000329 0.000963 0
-0.000491 0.000813 0
-0.000643 0.000639 0
-0.000775 0.000490 0
-0.000889 0.000378 0
-0.000987 0.000301 0
-0.001072 0.000248 0
-0.001148 0.000212 0
-0.001217 0.000186 0
-0.001280 0.000167 0
-0.001338 0.000151 0
-0.001392 0.000137 0
-0.001442 0.000125 0
-0.001489 0.000115 0
-0.001532 0.000105 0
-0.001572 0.000096 0
-0.001608 0.000088 0
-0.001642 0.000081 0
-0.001674 0.000074 0
-0.001702 0.000068 0
-0.001729 0.000063 0
-0.001754 0.000058 0
-0.001778 0.000054 0
-0.001800 0.000049 0
-0.001821 0.000045 0
-0.001840 0.000042 0
-0.001859 0.000038 0
-0.001876 0.000035 0
-0.001893 0.000033 0
-0.001908 0.000031 0
-0.001923 0.000029 0
-0.001937 0.000028 0
-0.001951 0.000028 0
-0.001964 0.000026 0
-0.001976 0.000023 0
-0.001988 0.000015 0
-0.001998 0.000003 0
-0.002005 -0.000014 0
-0.002009 -0.000036 0
-0.002009 -0.000059 0
-0.002005 -0.000074 0
-0.001999 -0.000072 0
-0.001996 -0.000038 0
-0.002003 0.000039 0
-0.002028 0.000163 0
-0.002079 0.000323 0
-0.002160 0.000485 0
-0.002263 0.000590 0
-0.002366 0.000557 0
-0.002426 0.000295 0
-0.002384 -0.000268 0
-0.002174 -0.001137 0
-0.001749 -0.002165 0
-0.001124 -0.002941 0
-0.000430 -0.002652 0
0.000000 -0.001055 0
0.000000 0.001850 0
-0.000273 0.003687 0
-0.000800 0.002883 0
-0.001285 0.001464 0
-0.001623 0.000468 0
-0.001820 -0.000090 0
-0.001909 -0.000366 0
-0.001928 -0.000483 0
-0.001902 -0.000518 0
-0.001851 -0.000512 0
-0.001786 -0.000488 0
-0.001714 -0.000459 0
-0.001639 -0.000430 0
-0.001563 -0.000403 0
-0.001487 -0.000379 0
-0.001413 -0.000358 0
-0.001340 -0.000340 0
-0.001267 -0.000324 0
-0.001196 -0.000311 0
-0.001127 -0.000299 0
-0.001058 -0.000289 0
-0.000990 -0.000280 0
-0.000924 -0.000272 0
-0.000858 -0.000265 0
-0.000793 -0.000261 0
-0.000729 -0.000259 0
-0.000665 -0.000260 0
-0.000601 -0.000266 0
-0.000535 -0.000277 0
-0.000468 -0.000292 0
-0.000398 -0.000311 0
-0.000324 -0.000329 0
-0.000247 -0.000339 0
-0.000167 -0.000329 0
-0.000091 -0.000281 0
-0.000029 -0.000177 0
0.000000 -0.000054 0
0.000000 0.000000 0
0.000000 0.000000 0
0.000000 0.000000 0
0.000000 0.000269 0
-0.000020 0.000789 0
-0.000082 0.001094 0
-0.000174 0.001094 0
-0.000282 0.000948 0
-0.000392 0.000766 0
-0.000495 0.000604 0
-0.000589 0.000479 0
-0.000674 0.000390 0
-0.000752 0.000328 0
-0.000825 0.000285 0
-0.000894 0.000254 0
-0.000959 0.000230 0
-0.001021 0.000210 0
-0.001081 0.000193 0
-0.001137 0.000177 0
-0.001190 0.000163 0
-0.001240 0.000150 0
-0.001286 0.000138 0
-0.001330 0.000127 0
-0.001371 0.000117 0
-0.001408 0.000107 0
-0.001443 0.000099 0
-0.001475 0.000092 0
-0.001505 0.000085 0
-0.001534 0.000079 0
-0.001561 0.000073 0
-0.001587 0.000068 0
-0.001612 0.000063 0
-0.001636 0.000059 0
-0.001659 0.000055 0
-0.001681 0.000051 0
-0.001702 0.000048 0
-0.001722 0.000046 0
-0.001742 0.000045 0
-0.001761 0.000043 0
-0.001779 0.000041 0
-0.001797 0.000037 0
-0.001815 0.000029 0
-0.001832 0.000015 0
-0.001848 -0.000005 0
-0.001862 -0.000030 0
-0.001872 -0.000056 0
-0.001879 -0.000074 0
-0.001884 -0.000071 0
-0.001891 -0.000032 0
-0.001903 0.000056 0
-0.001928 0.000199 0
-0.001971 0.000384 0
-0.002038 0.000569 0
-0.002122 0.000683 0
-0.002204 0.000629 0
-0.002247 0.000296 0
-0.002198 -0.000397 0
-0.001997 -0.001448 0
-0.001604 -0.002673 0
-0.001029 -0.003577 0
-0.000393 -0.003193 0
0.000000 -0.001262 0
0.000000 0.001971 0
-0.000220 0.004054 0
-0.000679 0.003361 0
-0.001121 0.001864 0
-0.001445 0.000737 0
-0.001645 0.000061 0
-0.001747 -0.000301 0
-0.001782 -0.000475 0
-0.001774 -0.000545 0
-0.001740 -0.000561 0
-0.001690 -0.000549 0
-0.001631 -0.000526 0
-0.001568 -0.000500 0
-0.001503 -0.000474 0
-0.001436 -0.000450 0
-0.001369 -0.000429 0
-0.001301 -0.000410 0
-0.001234 -0.000394 0
-0.001167 -0.000380 0
-0.001100 -0.000367 0
-0.001034 -0.000356 0
-0.000968 -0.000346 0
-0.000903 -0.000338 0
-0.000839 -0.000331 0
-0.000774 -0.000326 0
-0.000711 -0.000323 0
-0.000647 -0.000325 0
-0.000584 -0.000331 0
-0.000521 -0.000343 0
-0.000456 -0.000360 0
-0.000388 -0.000382 0
-0.000317 -0.000404 0
-0.000243 -0.000417 0
-0.000165 -0.000406 0
-0.000091 -0.000350 0
-0.000030 -0.000223 0
0.000000 -0.000069 0
0.000000 0.000000 0
0.000000 0.000000 0
0.000000 0.000000 0
0.000000 0.000271 0
0.000006 0.000808 0
-0.000002 0.001140 0
-0.000032 0.001163 0
-0.000082 0.001030 0
-0.000143 0.000852 0
-0.000209 0.000687 0
-0.000274 0.000557 0
-0.000338 0.000464 0
-0.000401 0.000399 0
-0.000464 0.000354 0
-0.000526 0.000320 0
-0.000588 0.000294 0
-0.000650 0.000272 0
-0.000710 0.000252 0
-0.000770 0.000234 0
-0.000827 0.000217 0
-0.000882 0.000201 0
-0.000935 0.000186 0
-0.000985 0.000172 0
-0.001032 0.000159 0
-0.001076 0.000146 0
-0.001117 0.000135 0
-0.001154 0.000125 0
-0.001190 0.000117 0
-0.001223 0.000109 0
-0.001255 0.000102 0
-0.001286 0.000096 0
-0.001316 0.000090 0
-0.001345 0.000085 0
-0.001374 0.000080 0
-0.001402 0.000076 0
-0.001429 0.000072 0
-0.001455 0.000069 0
-0.001480 0.000067 0
-0.001505 0.000065 0
-0.001530 0.000063 0
-0.001554 0.000058 0
-0.001579 0.000050 0
-0.001604 0.000036 0
-0.001629 0.000015 0
-0.001653 -0.000013 0
-0.001675 -0.000041 0
-0.001695 -0.000062 0
-0.001712 -0.000060 0
-0.001728 -0.000020 0
-0.001746 0.000076 0
-0.001770 0.000232 0
-0.001807 0.000433 0
-0.001859 0.000635 0
-0.001924 0.000756 0
-0.001986 0.000682 0
-0.002015 0.000288 0
-0.001966 -0.000519 0
-0.001786 -0.001731 0
-0.001437 -0.003132 0
-0.000925 -0.004152 0
-0.000355 -0.003682 0
0.000000 -0.001449 0
0.000000 0.002070 0
-0.000180 0.004366 0
-0.000580 0.003785 0
-0.000979 0.002231 0
-0.001278 0.000992 0
-0.001467 0.000212 0
-0.001569 -0.000228 0
-0.001609 -0.000456 0
-0.001609 -0.000560 0
-0.001585 -0.000596 0
-0.001547 -0.000596 0
-0.001500 -0.000581 0
-0.001448 -0.000558 0
-0.001393 -0.000535 0
-0.001336 -0.000513 0
-0.001277 -0.000492 0
-0.001218 -0.000474 0
-0.001157 -0.000458 0
-0.001096 -0.000444 0
-0.001035 -0.000432 0
-0.000974 -0.000420 0
-0.000912 -0.000410 0
-0.000850 -0.000402 0
-0.000789 -0.000394 0
-0.000728 -0.000389 0
-0.000667 -0.000386 0
-0.000607 -0.000387 0
-0.000547 -0.000393 0
-0.000487 -0.000405 0
-0.000426 -0.000425 0
-0.000364 -0.000449 0
-0.000298 -0.000475 0
-0.000229 -0.000491 0
-0.000157 -0.000480 0
-0.000087 -0.000417 0
-0.000028 -0.000268 0
0.000000 -0.000084 0
0.000000 0.000000 0
0.000000 0.000000 0
0.000000 0.000000 0
0.000000 0.000263 0
0.000025 0.000790 0
0.000062 0.001132 0
0.000087 0.001174 0
0.000092 0.001059 0
0.000079 0.000892 0
0.000055 0.000734 0
0.000022 0.000608 0
-0.000016 0.000517 0
-0.000058 0.000454 0
-0.000104 0.000410 0
-0.000154 0.000378 0
-0.000207 0.000353 0
-0.000263 0.000332 0
-0.000321 0.000312 0
-0.000379 0.000294 0
-0.000438 0.000276 0
-0.000497 0.000258 0
-0.000555 0.000241 0
-0.000611 0.000223 0
-0.000665 0.000207 0
-0.000715 0.000191 0
-0.000762 0.000177 0
-0.000805 0.000164 0
-0.000845 0.000153 0
-0.000883 0.000144 0
-0.000919 0.000136 0
-0.000954 0.000129 0
-0.000988 0.000122 0
-0.001022 0.000117 0
-0.001056 0.000111 0
-0.001089 0.000106 0
-0.001122 0.000101 0
-0.001154 0.000098 0
-0.001186 0.000095 0
-0.001217 0.000093 0
-0.001248 0.000090 0
-0.001279 0.000086 0
-0.001310 0.000079 0
-0.001342 0.000065 0
-0.001376 0.000044 0
-0.001409 0.000016 0
-0.001443 -0.000014 0
-0.001475 -0.000037 0
-0.001504 -0.000038 0
-0.001530 0.000001 0
-0.001555 0.000099 0
-0.001580 0.000260 0
-0.001610 0.000472 0
-0.001649 0.000685 0
-0.001696 0.000810 0
-0.001740 0.000720 0
-0.001759 0.000276 0
-0.001714 -0.000627 0
-0.001561 -0.001977 0
-0.001262 -0.003534 0
-0.000818 -0.004659 0
-0.000316 -0.004118 0
0.000000 -0.001616 0
0.000000 0.002152 0
-0.000149 0.004634 0
-0.000498 0.004159 0
-0.000855 0.002562 0
-0.001126 0.001225 0
-0.001298 0.000353 0
-0.001390 -0.000159 0
-0.001426 -0.000435 0
-0.001426 -0.000569 0
-0.001407 -0.000623 0
-0.001375 -0.000634 0
-0.001337 -0.000625 0
-0.001295 -0.000606 0
-0.001250 -0.000586 0
-0.001203 -0.000566 0
-0.001153 -0.000547 0
-0.001102 -0.000530 0
-0.001049 -0.000515 0
-0.000996 -0.000502 0
-0.000941 -0.000490 0
-0.000885 -0.000479 0
-0.000829 -0.000470 0
-0.000773 -0.000461 0
-0.000716 -0.000453 0
-0.000660 -0.000447 0
-0.000604 -0.000444 0
-0.000548 -0.000445 0
-0.000493 -0.000450 0
-0.000439 -0.000463 0
-0.000384 -0.000483 0
-0.000328 -0.000510 0
-0.000269 -0.000539 0
-0.000208 -0.000558 0
-0.000143 -0.000548 0
-0.000079 -0.000478 0
-0.000026 -0.000310 0
0.000000 -0.000097 0
0.000000 0.000000 0
0.000000 0.000000 0
0.000000 0.000000 0
0.000000 0.000246 0
0.000039 0.000745 0
0.000109 0.001079 0
0.000178 0.001133 0