# vtk DataFile Version 2.0
generated by CFD-lab course output (written by Tobias Neckel) 
ASCII

DATASET STRUCTURED_GRID
DIMENSIONS  99 49 1 
POINTS 4851 float

0.000000 0.000000 0
0.020000 0.000000 0
0.040000 0.000000 0
0.060000 0.000000 0
0.080000 0.000000 0
0.100000 0.000000 0
0.120000 0.000000 0
0.140000 0.000000 0
0.160000 0.000000 0
0.180000 0.000000 0
0.200000 0.000000 0
0.220000 0.000000 0
0.240000 0.000000 0
0.260000 0.000000 0
0.280000 0.000000 0
0.300000 0.000000 0
0.320000 0.000000 0
0.340000 0.000000 0
0.360000 0.000000 0
0.380000 0.000000 0
0.400000 0.000000 0
0.420000 0.000000 0
0.440000 0.000000 0
0.460000 0.000000 0
0.480000 0.000000 0
0.500000 0.000000 0
0.520000 0.000000 0
0.540000 0.000000 0
0.560000 0.000000 0
0.580000 0.000000 0
0.600000 0.000000 0
0.620000 0.000000 0
0.640000 0.000000 0
0.660000 0.000000 0
0.680000 0.000000 0
0.700000 0.000000 0
0.720000 0.000000 0
0.740000 0.000000 0
0.760000 0.000000 0
0.780000 0.000000 0
0.800000 0.000000 0
0.820000 0.000000 0
0.840000 0.000000 0
0.860000 0.000000 0
0.880000 0.000000 0
0.900000 0.000000 0
0.920000 0.000000 0
0.940000 0.000000 0
0.960000 0.000000 0
0.980000 0.000000 0
1.000000 0.000000 0
1.020000 0.000000 0
1.040000 0.000000 0
1.060000 0.000000 0
1.080000 0.000000 0
1.100000 0.000000 0
1.120000 0.000000 0
1.140000 0.000000 0
1.160000 0.000000 0
1.180000 0.000000 0
1.200000 0.000000 0
1.220000 0.000000 0
1.240000 0.000000 0
1.260000 0.000000 0
1.280000 0.000000 0
1.300000 0.000000 0
1.320000 0.000000 0
1.340000 0.000000 0
1.360000 0.000000 0
1.380000 0.000000 0
1.400000 0.000000 0
1.420000 0.000000 0
1.440000 0.000000 0
1.460000 0.000000 0
1.480000 0.000000 0
1.500000 0.000000 0
1.520000 0.000000 0
1.540000 0.000000 0
1.560000 0.000000 0
1.580000 0.000000 0
1.600000 0.000000 0
1.620000 0.000000 0
1.640000 0.000000 0
1.660000 0.000000 0
1.680000 0.000000 0
1.700000 0.000000 0
1.720000 0.000000 0
1.740000 0.000000 0
1.760000 0.000000 0
1.780000 0.000000 0
1.800000 0.000000 0
1.820000 0.000000 0
1.840000 0.000000 0
1.860000 0.000000 0
1.880000 0.000000 0
1.900000 0.000000 0
1.920000 0.000000 0
1.940000 0.000000 0
1.960000 0.000000 0
0.000000 0.020000 0
0.020000 0.020000 0
0.040000 0.020000 0
0.060000 0.020000 0
0.080000 0.020000 0
0.100000 0.020000 0
0.120000 0.020000 0
0.140000 0.020000 0
0.160000 0.020000 0
0.180000 0.020000 0
0.200000 0.020000 0
0.220000 0.020000 0
0.240000 0.020000 0
0.260000 0.020000 0
0.280000 0.020000 0
0.300000 0.020000 0
0.320000 0.020000 0
0.340000 0.020000 0
0.360000 0.020000 0
0.380000 0.020000 0
0.400000 0.020000 0
0.420000 0.020000 0
0.440000 0.020000 0
0.460000 0.020000 0
0.480000 0.020000 0
0.500000 0.020000 0
0.520000 0.020000 0
0.540000 0.020000 0
0.560000 0.020000 0
0.580000 0.020000 0
0.600000 0.020000 0
0.620000 0.020000 0
0.640000 0.020000 0
0.660000 0.020000 0
0.680000 0.020000 0
0.700000 0.020000 0
0.720000 0.020000 0
0.740000 0.020000 0
0.760000 0.020000 0
0.780000 0.020000 0
0.800000 0.020000 0
0.820000 0.020000 0
0.840000 0.020000 0
0.860000 0.020000 0
0.880000 0.020000 0
0.900000 0.020000 0
0.920000 0.020000 0
0.940000 0.020000 0
0.960000 0.020000 0
0.980000 0.020000 0
1.000000 0.020000 0
1.020000 0.020000 0
1.040000 0.020000 0
1.060000 0.020000 0
1.080000 0.020000 0
1.100000 0.020000 0
1.120000 0.020000 0
1.140000 0.020000 0
1.160000 0.020000 0
1.180000 0.020000 0
1.200000 0.020000 0
1.220000 0.020000 0
1.240000 0.020000 0
1.260000 0.020000 0
1.280000 0.020000 0
1.300000 0.020000 0
1.320000 0.020000 0
1.340000 0.020000 0
1.360000 0.020000 0
1.380000 0.020000 0
1.400000 0.020000 0
1.420000 0.020000 0
1.440000 0.020000 0
1.460000 0.020000 0
1.480000 0.020000 0
1.500000 0.020000 0
1.520000 0.020000 0
1.540000 0.020000 0
1.560000 0.020000 0
1.580000 0.020000 0
1.600000 0.020000 0
1.620000 0.020000 0
1.640000 0.020000 0
1.660000 0.020000 0
1.680000 0.020000 0
1.700000 0.020000 0
1.720000 0.020000 0
1.740000 0.020000 0
1.760000 0.020000 0
1.780000 0.020000 0
1.800000 0.020000 0
1.820000 0.020000 0
1.840000 0.020000 0
1.860000 0.020000 0
1.880000 0.020000 0
1.900000 0.020000 0
1.920000 0.020000 0
1.940000 0.020000 0
1.960000 0.020000 0
0.000000 0.040000 0
0.020000 0.040000 0
0.040000 0.040000 0
0.060000 0.040000 0
0.080000 0.040000 0
0.100000 0.040000 0
0.120000 0.040000 0
0.140000 0.040000 0
0.160000 0.040000 0
0.180000 0.040000 0
0.200000 0.040000 0
0.220000 0.040000 0
0.240000 0.040000 0
0.260000 0.040000 0
0.280000 0.040000 0
0.300000 0.040000 0
0.320000 0.040000 0
0.340000 0.040000 0
0.360000 0.040000 0
0.380000 0.040000 0
0.400000 0.040000 0
0.420000 0.040000 0
0.440000 0.040000 0
0.460000 0.040000 0
0.480000 0.040000 0
0.500000 0.040000 0
0.520000 0.040000 0
0.540000 0.040000 0
0.560000 0.040000 0
0.580000 0.040000 0
0.600000 0.040000 0
0.620000 0.040000 0
0.640000 0.040000 0
0.660000 0.040000 0
0.680000 0.040000 0
0.700000 0.040000 0
0.720000 0.040000 0
0.740000 0.040000 0
0.760000 0.040000 0
0.780000 0.040000 0
0.800000 0.040000 0
0.820000 0.040000 0
0.840000 0.040000 0
0.860000 0.040000 0
0.880000 0.040000 0
0.900000 0.040000 0
0.920000 0.040000 0
0.940000 0.040000 0
0.960000 0.040000 0
0.980000 0.040000 0
1.000000 0.040000 0
1.020000 0.040000 0
1.040000 0.040000 0
1.060000 0.040000 0
1.080000 0.040000 0
1.100000 0.040000 0
1.120000 0.040000 0
1.140000 0.040000 0
1.160000 0.040000 0
1.180000 0.040000 0
1.200000 0.040000 0
1.220000 0.040000 0
1.240000 0.040000 0
1.260000 0.040000 0
1.280000 0.040000 0
1.300000 0.040000 0
1.320000 0.040000 0
1.340000 0.040000 0
1.360000 0.040000 0
1.380000 0.040000 0
1.400000 0.040000 0
1.420000 0.040000 0
1.440000 0.040000 0
1.460000 0.040000 0
1.480000 0.040000 0
1.500000 0.040000 0
1.520000 0.040000 0
1.540000 0.040000 0
1.560000 0.040000 0
1.580000 0.040000 0
1.600000 0.040000 0
1.620000 0.040000 0
1.640000 0.040000 0
1.660000 0.040000 0
1.680000 0.040000 0
1.700000 0.040000 0
1.720000 0.040000 0
1.740000 0.040000 0
1.760000 0.040000 0
1.780000 0.040000 0
1.800000 0.040000 0
1.820000 0.040000 0
1.840000 0.040000 0
1.860000 0.040000 0
1.880000 0.040000 0
1.900000 0.040000 0
1.920000 0.040000 0
1.940000 0.040000 0
1.960000 0.040000 0
0.000000 0.060000 0
0.020000 0.060000 0
0.040000 0.060000 0
0.060000 0.060000 0
0.080000 0.060000 0
0.100000 0.060000 0
0.120000 0.060000 0
0.140000 0.060000 0
0.160000 0.060000 0
0.180000 0.060000 0
0.200000 0.060000 0
0.220000 0.060000 0
0.240000 0.060000 0
0.260000 0.060000 0
0.280000 0.060000 0
0.300000 0.060000 0
0.320000 0.060000 0
0.340000 0.060000 0
0.360000 0.060000 0
0.380000 0.060000 0
0.400000 0.060000 0
0.420000 0.060000 0
0.440000 0.060000 0
0.460000 0.060000 0
0.480000 0.060000 0
0.500000 0.060000 0
0.520000 0.060000 0
0.540000 0.060000 0
0.560000 0.060000 0
0.580000 0.060000 0
0.600000 0.060000 0
0.620000 0.060000 0
0.640000 0.060000 0
0.660000 0.060000 0
0.680000 0.060000 0
0.700000 0.060000 0
0.720000 0.060000 0
0.740000 0.060000 0
0.760000 0.060000 0
0.780000 0.060000 0
0.800000 0.060000 0
0.820000 0.060000 0
0.840000 0.060000 0
0.860000 0.060000 0
0.880000 0.060000 0
0.900000 0.060000 0
0.920000 0.060000 0
0.940000 0.060000 0
0.960000 0.060000 0
0.980000 0.060000 0
1.000000 0.060000 0
1.020000 0.060000 0
1.040000 0.060000 0
1.060000 0.060000 0
1.080000 0.060000 0
1.100000 0.060000 0
1.120000 0.060000 0
1.140000 0.060000 0
1.160000 0.060000 0
1.180000 0.060000 0
1.200000 0.060000 0
1.220000 0.060000 0
1.240000 0.060000 0
1.260000 0.060000 0
1.280000 0.060000 0
1.300000 0.060000 0
1.320000 0.060000 0
1.340000 0.060000 0
1.360000 0.060000 0
1.380000 0.060000 0
1.400000 0.060000 0
1.420000 0.060000 0
1.440000 0.060000 0
1.460000 0.060000 0
1.480000 0.060000 0
1.500000 0.060000 0
1.520000 0.060000 0
1.540000 0.060000 0
1.560000 0.060000 0
1.580000 0.060000 0
1.600000 0.060000 0
1.620000 0.060000 0
1.640000 0.060000 0
1.660000 0.060000 0
1.680000 0.060000 0
1.700000 0.060000 0
1.720000 0.060000 0
1.740000 0.060000 0
1.760000 0.060000 0
1.780000 0.060000 0
1.800000 0.060000 0
1.820000 0.060000 0
1.840000 0.060000 0
1.860000 0.060000 0
1.880000 0.060000 0
1.900000 0.060000 0
1.920000 0.060000 0
1.940000 0.060000 0
1.960000 0.060000 0
0.000000 0.080000 0
0.020000 0.080000 0
0.040000 0.080000 0
0.060000 0.080000 0
0.080000 0.080000 0
0.100000 0.080000 0
0.120000 0.080000 0
0.140000 0.080000 0
0.160000 0.080000 0
0.180000 0.080000 0
0.200000 0.080000 0
0.220000 0.080000 0
0.240000 0.080000 0
0.260000 0.080000 0
0.280000 0.080000 0
0.300000 0.080000 0
0.320000 0.080000 0
0.340000 0.080000 0
0.360000 0.080000 0
0.380000 0.080000 0
0.400000 0.080000 0
0.420000 0.080000 0
0.440000 0.080000 0
0.460000 0.080000 0
0.480000 0.080000 0
0.500000 0.080000 0
0.520000 0.080000 0
0.540000 0.080000 0
0.560000 0.080000 0
0.580000 0.080000 0
0.600000 0.080000 0
0.620000 0.080000 0
0.640000 0.080000 0
0.660000 0.080000 0
0.680000 0.080000 0
0.700000 0.080000 0
0.720000 0.080000 0
0.740000 0.080000 0
0.760000 0.080000 0
0.780000 0.080000 0
0.800000 0.080000 0
0.820000 0.080000 0
0.840000 0.080000 0
0.860000 0.080000 0
0.880000 0.080000 0
0.900000 0.080000 0
0.920000 0.080000 0
0.940000 0.080000 0
0.960000 0.080000 0
0.980000 0.080000 0
1.000000 0.080000 0
1.020000 0.080000 0
1.040000 0.080000 0
1.060000 0.080000 0
1.080000 0.080000 0
1.100000 0.080000 0
1.120000 0.080000 0
1.140000 0.080000 0
1.160000 0.080000 0
1.180000 0.080000 0
1.200000 0.080000 0
1.220000 0.080000 0
1.240000 0.080000 0
1.260000 0.080000 0
1.280000 0.080000 0
1.300000 0.080000 0
1.320000 0.080000 0
1.340000 0.080000 0
1.360000 0.080000 0
1.380000 0.080000 0
1.400000 0.080000 0
1.420000 0.080000 0
1.440000 0.080000 0
1.460000 0.080000 0
1.480000 0.080000 0
1.500000 0.080000 0
1.520000 0.080000 0
1.540000 0.080000 0
1.560000 0.080000 0
1.580000 0.080000 0
1.600000 0.080000 0
1.620000 0.080000 0
1.640000 0.080000 0
1.660000 0.080000 0
1.680000 0.080000 0
1.700000 0.080000 0
1.720000 0.080000 0
1.740000 0.080000 0
1.760000 0.080000 0
1.780000 0.080000 0
1.800000 0.080000 0
1.820000 0.080000 0
1.840000 0.080000 0
1.860000 0.080000 0
1.880000 0.080000 0
[...]
POINT_DATA 4851 

VECTORS velocity float
0.000000 0.000000 0
-0.000415 0.000000 0
-0.000552 0.000000 0
-0.000508 0.000000 0
-0.000425 0.000000 0
-0.000353 0.000000 0
-0.000300 0.000000 0
-0.000261 0.000000 0
-0.000232 0.000000 0
-0.000209 0.000000 0
-0.000191 0.000000 0
-0.000176 0.000000 0
-0.000163 0.000000 0
-0.000152 0.000000 0
-0.000141 0.000000 0
-0.000132 0.000000 0
-0.000123 0.000000 0
-0.000115 0.000000 0
-0.000107 0.000000 0
-0.000100 0.000000 0
-0.000093 0.000000 0
-0.000086 0.000000 0
-0.000080 0.000000 0
-0.000074 0.000000 0
-0.000068 0.000000 0
-0.000062 0.000000 0
-0.000057 0.000000 0
-0.000051 0.000000 0
-0.000046 0.000000 0
-0.000041 0.000000 0
-0.000036 0.000000 0
-0.000031 0.000000 0
-0.000025 0.000000 0
-0.000018 0.000000 0
-0.000010 0.000000 0
-0.000003 0.000000 0
0.000000 0.000000 0
0.000000 0.000000 0
0.000000 0.000000 0
0.000000 0.000000 0
0.000000 0.000000 0
-0.000021 0.000000 0
-0.000065 0.000000 0
-0.000109 0.000000 0
-0.000144 0.000000 0
-0.000167 0.000000 0
-0.000182 0.000000 0
-0.000191 0.000000 0
-0.000197 0.000000 0
-0.000201 0.000000 0
-0.000204 0.000000 0
-0.000206 0.000000 0
-0.000208 0.000000 0
-0.000210 0.000000 0
-0.000212 0.000000 0
-0.000214 0.000000 0
-0.000216 0.000000 0
-0.000217 0.000000 0
-0.000219 0.000000 0
-0.000220 0.000000 0
-0.000221 0.000000 0
-0.000223 0.000000 0
-0.000224 0.000000 0
-0.000225 0.000000 0
-0.000226 0.000000 0
-0.000227 0.000000 0
-0.000228 0.000000 0
-0.000229 0.000000 0
-0.000230 0.000000 0
-0.000231 0.000000 0
-0.000232 0.000000 0
-0.000232 0.000000 0
-0.000233 0.000000 0
-0.000234 0.000000 0
-0.000235 0.000000 0
-0.000236 0.000000 0
-0.000237 0.000000 0
-0.000238 0.000000 0
-0.000238 0.000000 0
-0.000239 0.000000 0
-0.000239 0.000000 0
-0.000238 0.000000 0
-0.000237 0.000000 0
-0.000235 0.000000 0
-0.000233 0.000000 0
-0.000232 0.000000 0
-0.000232 0.000000 0
-0.000236 0.000000 0
-0.000245 0.000000 0
-0.000261 0.000000 0
-0.000283 0.000000 0
-0.000309 0.000000 0
-0.000335 0.000000 0
-0.000350 0.000000 0
-0.000342 0.000000 0
-0.000296 0.000000 0
-0.000204 0.000000 0
-0.000083 0.000000 0
0.000000 0.000000 0
0.000000 0.000415 0
-0.000825 0.000553 0
-0.001280 0.000094 0
-0.001334 -0.000126 0
-0.001227 -0.000154 0
-0.001089 -0.000125 0
-0.000965 -0.000092 0
-0.000862 -0.000067 0
-0.000779 -0.000051 0
-0.000711 -0.000040 0
-0.000654 -0.000033 0
-0.000606 -0.000028 0
-0.000563 -0.000024 0
-0.000525 -0.000021 0
-0.000490 -0.000019 0
-0.000458 -0.000018 0
-0.000428 -0.000016 0
-0.000401 -0.000015 0
-0.000374 -0.000014 0
-0.000349 -0.000014 0
-0.000325 -0.000013 0
-0.000302 -0.000012 0
-0.000280 -0.000012 0
-0.000258 -0.000011 0
-0.000238 -0.000011 0
-0.000218 -0.000011 0
-0.000198 -0.000010 0
-0.000179 -0.000010 0
-0.000161 -0.000009 0
-0.000143 -0.000009 0
-0.000125 -0.000010 0
-0.000105 -0.000011 0
-0.000083 -0.000013 0
-0.000059 -0.000015 0
-0.000033 -0.000014 0
-0.000011 -0.000009 0
0.000000 -0.000002 0
0.000000 0.000000 0
0.000000 0.000000 0
0.000000 0.000000 0
0.000000 0.000021 0
-0.000064 0.000064 0
-0.000185 0.000087 0
-0.000313 0.000078 0
-0.000420 0.000058 0
-0.000499 0.000038 0
-0.000554 0.000023 0
-0.000592 0.000014 0
-0.000618 0.000009 0
-0.000637 0.000006 0
-0.000651 0.000005 0
-0.000664 0.000004 0
-0.000674 0.000004 0
-0.000683 0.000003 0
-0.000692 0.000003 0
-0.000699 0.000003 0
-0.000706 0.000003 0
-0.000713 0.000003 0
-0.000719 0.000002 0
-0.000724 0.000002 0
-0.000730 0.000002 0
-0.000734 0.000002 0
-0.000739 0.000002 0
-0.000743 0.000002 0
-0.000747 0.000002 0
-0.000751 0.000002 0
-0.000755 0.000001 0
-0.000758 0.000001 0
-0.000762 0.000001 0
-0.000765 0.000001 0
-0.000768 0.000001 0
-0.000770 0.000001 0
-0.000773 0.000001 0
-0.000776 0.000001 0
-0.000779 0.000001 0
-0.000781 0.000001 0
-0.000784 0.000001 0
-0.000786 0.000001 0
-0.000788 0.000001 0
-0.000789 0.000000 0
-0.000788 -0.000001 0
-0.000786 -0.000002 0
-0.000781 -0.000004 0
-0.000775 -0.000004 0
-0.000769 -0.000004 0
-0.000765 -0.000001 0
-0.000768 0.000004 0
-0.000782 0.000013 0
-0.000810 0.000024 0
-0.000857 0.000037 0
-0.000919 0.000048 0
-0.000989 0.000051 0
-0.001048 0.000040 0
-0.001069 0.000006 0
-0.001017 -0.000055 0
-0.000857 -0.000138 0
-0.000577 -0.000213 0
-0.000232 -0.000204 0
0.000000 -0.000084 0
0.000000 0.000826 0
-0.000712 0.001282 0
-0.001376 0.000510 0
-0.001666 -0.000052 0
-0.001700 -0.000244 0
-0.001619 -0.000261 0
-0.001502 -0.000226 0
-0.001383 -0.000185 0
-0.001275 -0.000150 0
-0.001180 -0.000124 0
-0.001095 -0.000105 0
-0.001021 -0.000091 0
-0.000954 -0.000080 0
-0.000893 -0.000072 0
-0.000836 -0.000066 0
-0.000784 -0.000061 0
-0.000735 -0.000057 0
-0.000688 -0.000053 0
-0.000644 -0.000051 0
-0.000602 -0.000048 0
-0.000561 -0.000046 0
-0.000522 -0.000044 0
-0.000484 -0.000043 0
-0.000447 -0.000041 0
-0.000411 -0.000040 0
-0.000377 -0.000039 0
-0.000343 -0.000037 0
-0.000310 -0.000036 0
-0.000277 -0.000035 0
-0.000245 -0.000036 0
-0.000212 -0.000037 0
-0.000177 -0.000041 0
-0.000139 -0.000046 0
-0.000098 -0.000049 0
-0.000056 -0.000047 0
-0.000019 -0.000032 0
0.000000 -0.000010 0
0.000000 0.000000 0
0.000000 0.000000 0
0.000000 0.000000 0
0.000000 0.000063 0
-0.000087 0.000184 0
-0.000250 0.000248 0
-0.000428 0.000234 0
-0.000587 0.000186 0
-0.000716 0.000134 0
-0.000812 0.000092 0
-0.000884 0.000063 0
-0.000937 0.000044 0
-0.000977 0.000033 0
-0.001009 0.000026 0
-0.001036 0.000022 0
-0.001058 0.000019 0
-0.001078 0.000017 0
-0.001096 0.000015 0
-0.001112 0.000014 0
-0.001127 0.000013 0
-0.001140 0.000012 0
-0.001153 0.000011 0
-0.001164 0.000010 0
-0.001174 0.000010 0
-0.001184 0.000009 0
-0.001193 0.000008 0
-0.001201 0.000008 0
-0.001209 0.000007 0
-0.001217 0.000007 0
-0.001223 0.000007 0
-0.001230 0.000006 0
-0.001236 0.000006 0
-0.001241 0.000005 0
-0.001247 0.000005 0
-0.001252 0.000005 0
-0.001256 0.000005 0
-0.001261 0.000005 0
-0.001265 0.000005 0
-0.001269 0.000005 0
-0.001273 0.000004 0
-0.001276 0.000003 0
-0.001278 0.000002 0
-0.001278 -0.000001 0
-0.001277 -0.000004 0
-0.001272 -0.000007 0
-0.001265 -0.000011 0
-0.001256 -0.000013 0
-0.001247 -0.000010 0
-0.001243 -0.000002 0
-0.001248 0.000016 0
-0.001269 0.000042 0
-0.001312 0.000074 0
-0.001377 0.000108 0
-0.001460 0.000131 0
-0.001546 0.000128 0
-0.001608 0.000080 0
-0.001605 -0.000031 0
-0.001490 -0.000213 0
-0.001223 -0.000441 0
-0.000804 -0.000625 0
-0.000317 -0.000577 0
0.000000 -0.000233 0
0.000000 0.001128 0
-0.000513 0.001929 0
-0.001172 0.001048 0
-0.001588 0.000199 0
-0.001757 -0.000201 0
-0.001772 -0.000323 0
-0.001712 -0.000327 0
-0.001623 -0.000294 0
-0.001527 -0.000254 0
-0.001434 -0.000219 0
-0.001346 -0.000191 0
-0.001265 -0.000169 0
-0.001189 -0.000152 0
-0.001119 -0.000138 0
-0.001052 -0.000127 0
-0.000990 -0.000119 0
-0.000931 -0.000112 0
-0.000874 -0.000106 0
-0.000820 -0.000100 0
-0.000767 -0.000096 0
-0.000717 -0.000093 0
-0.000667 -0.000089 0
-0.000619 -0.000086 0
-0.000573 -0.000084 0
-0.000527 -0.000081 0
-0.000482 -0.000079 0
-0.000439 -0.000077 0
-0.000396 -0.000075 0
-0.000353 -0.000074 0
-0.000311 -0.000074 0
-0.000268 -0.000078 0
-0.000222 -0.000084 0
-0.000173 -0.000092 0
-0.000122 -0.000097 0
-0.000069 -0.000093 0
-0.000024 -0.000064 0
0.000000 -0.000021 0
0.000000 0.000000 0
0.000000 0.000000 0
0.000000 0.000000 0
0.000000 0.000108 0
-0.000083 0.000313 0
-0.000243 0.000428 0
-0.000426 0.000416 0
-0.000599 0.000345 0
-0.000746 0.000263 0
-0.000865 0.000191 0
-0.000958 0.000138 0
-0.001031 0.000102 0
-0.001089 0.000079 0
-0.001137 0.000063 0
-0.001177 0.000053 0
-0.001211 0.000046 0
-0.001242 0.000041 0
-0.001269 0.000037 0
-0.001294 0.000034 0
-0.001317 0.000031 0
-0.001337 0.000028 0
-0.001356 0.000026 0
-0.001373 0.000024 0
-0.001389 0.000022 0
-0.001403 0.000020 0
-0.001416 0.000019 0
-0.001429 0.000018 0
-0.001440 0.000017 0
-0.001451 0.000016 0
-0.001461 0.000015 0
-0.001470 0.000014 0
-0.001478 0.000013 0
-0.001486 0.000012 0
-0.001494 0.000011 0
-0.001501 0.000011 0
-0.001507 0.000010 0
-0.001513 0.000010 0
-0.001519 0.000010 0
-0.001524 0.000009 0
-0.001528 0.000008 0
-0.001532 0.000006 0
-0.001534 0.000003 0
-0.001535 -0.000002 0
-0.001533 -0.000008 0
-0.001528 -0.000014 0
-0.001520 -0.000020 0
-0.001511 -0.000022 0
-0.001502 -0.000017 0
-0.001498 -0.000001 0
-0.001505 0.000030 0
-0.001528 0.000076 0
-0.001573 0.000132 0
-0.001640 0.000186 0
-0.001723 0.000217 0
-0.001804 0.000199 0
-0.001851 0.000098 0
-0.001820 -0.000112 0
-0.001663 -0.000437 0
-0.001344 -0.000824 0
-0.000869 -0.001118 0
-0.000337 -0.001008 0
0.000000 -0.000401 0
0.000000 0.001340 0
-0.000360 0.002454 0
-0.000938 0.001585 0
-0.001381 0.000533 0
-0.001623 -0.000060 0
-0.001711 -0.000306 0
-0.001710 -0.000375 0
-0.001662 -0.000369 0
-0.001594 -0.000339 0
-0.001518 -0.000305 0
-0.001441 -0.000274 0
-0.001366 -0.000247 0
-0.001293 -0.000226 0
-0.001224 -0.000208 0
-0.001157 -0.000194 0
-0.001093 -0.000182 0
-0.001031 -0.000172 0
-0.000971 -0.000164 0
-0.000913 -0.000157 0
-0.000856 -0.000151 0
-0.000801 -0.000146 0
-0.000747 -0.000141 0
-0.000694 -0.000137 0
-0.000642 -0.000134 0
-0.000592 -0.000130 0
-0.000542 -0.000127 0
-0.000492 -0.000123 0
-0.000444 -0.000121 0
-0.000396 -0.000120 0
-0.000347 -0.000121 0
-0.000298 -0.000126 0
-0.000246 -0.000135 0
-0.000191 -0.000146 0
-0.000134 -0.000153 0
-0.000076 -0.000145 0
-0.000026 -0.000101 0
0.000000 -0.000034 0
0.000000 0.000000 0
0.000000 0.000000 0
0.000000 0.000000 0
0.000000 0.000145 0
-0.000065 0.000426 0
-0.000198 0.000591 0
-0.000358 0.000590 0
-0.000517 0.000506 0
-0.000661 0.000400 0
-0.000783 0.000304 0
-0.000884 0.000229 0
-0.000966 0.000175 0
-0.001035 0.000138 0
-0.001094 0.000114 0
-0.001144 0.000096 0
-0.001189 0.000084 0
-0.001229 0.000075 0
-0.001265 0.000067 0
-0.001298 0.000061 0
-0.001328 0.000056 0
-0.001355 0.000051 0
-0.001380 0.000047 0
-0.001403 0.000043 0
-0.001424 0.000039 0
-0.001443 0.000036 0
-0.001461 0.000034 0
-0.001477 0.000031 0
-0.001492 0.000029 0
-0.001505 0.000027 0
-0.001518 0.000025 0
-0.001530 0.000024 0
-0.001542 0.000022 0
-0.001552 0.000021 0
-0.001562 0.000019 0
-0.001571 0.000018 0
-0.001579 0.000017 0
-0.001587 0.000016 0
-0.001594 0.000016 0
-0.001601 0.000014 0
-0.001607 0.000012 0
-0.001612 0.000009 0
-0.001616 0.000004 0
-0.001618 -0.000002 0
-0.001618 -0.000011 0
-0.001615 -0.000020 0
-0.001609 -0.000028 0
-0.001602 -0.000031 0
-0.001595 -0.000023 0
-0.001593 0.000001 0
-0.001600 0.000045 0
-0.001622 0.000109 0
-0.001664 0.000186 0
-0.001725 0.000258 0
-0.001800 0.000295 0
-0.001869 0.000256 0
-0.001901 0.000096 0
-0.001853 -0.000219 0
-0.001678 -0.000690 0
-0.001343 -0.001235 0
-0.000859 -0.001632 0
-0.000328 -0.001446 0
0.000000 -0.000569 0
0.000000 0.001489 0
-0.000255 0.002868 0
-0.000740 0.002069 0
-0.001158 0.000884 0
-0.001421 0.000130 0
-0.001549 -0.000236 0
-0.001587 -0.000376 0
-0.001574 -0.000410 0
-0.001533 -0.000398 0
-0.001479 -0.000372 0
-0.001420 -0.000343 0
-0.001357 -0.000316 0
-0.001295 -0.000293 0
-0.001233 -0.000274 0
-0.001172 -0.000258 0
-0.001112 -0.000245 0
-0.001053 -0.000233 0
-0.000995 -0.000223 0
-0.000938 -0.000215 0
-0.000882 -0.000208 0
-0.000826 -0.000201 0
-0.000772 -0.000196 0
-0.000718 -0.000191 0
-0.000665 -0.000186 0
-0.000613 -0.000182 0
-0.000561 -0.000178 0
-0.000510 -0.000174 0
-0.000460 -0.000171 0
-0.000409 -0.000170 0
-0.000358 -0.000172 0
-0.000306 -0.000178 0
-0.000252 -0.000190 0
-0.000196 -0.000203 0
-0.000136 -0.000212 0
-0.000077 -0.000200 0
-0.000026 -0.000140 0
0.000000 -0.000047 0
0.000000 0.000000 0
0.000000 0.000000 0
0.000000 0.000000 0
0.000000 0.000172 0
-0.000042 0.000511 0
-0.000137 0.000721 0
-0.000259 0.000735 0
-0.000388 0.000648 0
-0.000510 0.000528 0
-0.000620 0.000414 0
-0.000716 0.000322 0
-0.000798 0.000254 0
-0.000870 0.000205 0
-0.000933 0.000172 0
-0.000989 0.000148 0
-0.001040 0.000131 0
-0.001087 0.000117 0
-0.001131 0.000106 0
-0.001171 0.000096 0
-0.001208 0.000088 0
-0.001242 0.000080 0
-0.001273 0.000073 0
-0.001302 0.000067 0
-0.001328 0.000062 0
-0.001351 0.000057 0
-0.001373 0.000052 0
-0.001393 0.000049 0
-0.001411 0.000045 0
-0.001428 0.000042 0
-0.001444 0.000039 0
-0.001459 0.000037 0
-0.001473 0.000034 0
-0.001486 0.000032 0
-0.001499 0.000030 0
-0.001510 0.000028 0
-0.001521 0.000026 0
-0.001531 0.000025 0
-0.001541 0.000023 0
-0.001550 0.000022 0
-0.001559 0.000019 0
-0.001566 0.000015 0
-0.001573 0.000008 0
-0.001578 -0.000000 0
-0.001582 -0.000011 0
-0.001583 -0.000023 0
-0.001582 -0.000033 0
-0.001579 -0.000036 0
-0.001577 -0.000026 0
-0.001578 0.000004 0
-0.001586 0.000059 0
-0.001606 0.000139 0
-0.001642 0.000234 0
-0.001695 0.000321 0
-0.001758 0.000361 0
-0.001816 0.000300 0
-0.001837 0.000082 0
-0.001781 -0.000336 0
-0.001605 -0.000948 0
-0.001279 -0.001643 0
-0.000814 -0.002133 0
-0.000309 -0.001868 0
0.000000 -0.000729 0
0.000000 0.001596 0
-0.000184 0.003194 0
-0.000584 0.002488 0
-0.000958 0.001215 0
-0.001212 0.000331 0
-0.001352 -0.000139 0
-0.001409 -0.000349 0
-0.001417 -0.000423 0
-0.001398 -0.000434 0
-0.001363 -0.000418 0
-0.001320 -0.000395 0
-0.001273 -0.000372 0
-0.001223 -0.000350 0
-0.001172 -0.000331 0
-0.001119 -0.000315 0
-0.001067 -0.000301 0
-0.001014 -0.000289 0
-0.000962 -0.000279 0
-0.000909 -0.000270 0
-0.000857 -0.000262 0
-0.000805 -0.000255 0
-0.000753 -0.000249 0
-0.000702 -0.000244 0
-0.000651 -0.000239 0
-0.000600 -0.000234 0
-0.000550 -0.000229 0
-0.000500 -0.000225 0
-0.000450 -0.000222 0
-0.000400 -0.000221 0
-0.000350 -0.000224 0
-0.000299 -0.000232 0
-0.000245 -0.000245 0
-0.000189 -0.000261 0
-0.000131 -0.000271 0
-0.000074 -0.000255 0
-0.000025 -0.000178 0
0.000000 -0.000060 0
0.000000 0.000000 0
0.000000 0.000000 0
0.000000 0.000000 0
0.000000 0.000187 0
-0.000021 0.000563 0
-0.000075 0.000808 0
-0.000152 0.000840 0
-0.000240 0.000758 0
-0.000331 0.000633 0
-0.000418 0.000509 0
-0.000498 0.000406 0
-0.000571 0.000329 0
-0.000637 0.000273 0
-0.000699 0.000233 0
-0.000757 0.000204 0
-0.000811 0.000182 0
-0.000862 0.000165 0
-0.000911 0.000151 0
-0.000956 0.000138 0
-0.000999 0.000126 0
-0.001039 0.000116 0
-0.001076 0.000106 0
-0.001110 0.000097 0
-0.001142 0.000089 0
-0.001170 0.000082 0
-0.001196 0.000075 0
-0.001220 0.000069 0
-0.001241 0.000064 0
-0.001261 0.000060 0
-0.001280 0.000056 0
-0.001298 0.000052 0
-0.001315 0.000049 0
-0.001331 0.000046 0
-0.001346 0.000043 0
-0.001361 0.000041 0
-0.001375 0.000038 0
-0.001388 0.000036 0
-0.001401 0.000034 0
-0.001413 0.000032 0
-0.001425 0.000028 0
-0.001436 0.000023 0
-0.001447 0.000016 0
-0.001457 0.000006 0
-0.001465 -0.000007 0
-0.001472 -0.000020 0
-0.001478 -0.000032 0
-0.001482 -0.000036 0
-0.001485 -0.000025 0
-0.001490 0.000009 0
-0.001500 0.000073 0
-0.001518 0.000165 0
-0.001549 0.000275 0
-0.001593 0.000375 0
-0.001646 0.000415 0
-0.001692 0.000334 0
-0.001706 0.000062 0
-0.001650 -0.000451 0
-0.001484 -0.001193 0
-0.001182 -0.002027 0
-0.000752 -0.002602 0
-0.000285 -0.002261 0
0.000000 -0.000878 0
0.000000 0.001674 0
-0.000134 0.003453 0
-0.000464 0.002844 0
-0.000790 0.001512 0
-0.001022 0.000523 0
-0.001155 -0.000038 0
-0.001216 -0.000310 0
-0.001234 -0.000421 0
-0.001226 -0.000452 0
-0.001205 -0.000449 0
-0.001176 -0.000433 0
-0.001141 -0.000413 0
-0.001104 -0.000394 0
-0.001064 -0.000377 0
-0.001022 -0.000363 0
-0.000979 -0.000350 0
-0.000934 -0.000338 0
-0.000889 -0.000328 0
-0.000843 -0.000319 0
-0.000796 -0.000312 0
-0.000749 -0.000305 0
-0.000703 -0.000299 0
-0.000655 -0.000293 0
-0.000608 -0.000288 0
-0.000561 -0.000283 0
-0.000514 -0.000278 0
-0.000468 -0.000274 0
-0.000421 -0.000271 0
-0.000374 -0.000270 0
-0.000326 -0.000273 0
-0.000278 -0.000283 0
-0.000228 -0.000298 0
-0.000175 -0.000317 0
-0.000120 -0.000328 0
-0.000067 -0.000306 0
-0.000022 -0.000214 0
0.000000 -0.000072 0
0.000000 0.000000 0
0.000000 0.000000 0
0.000000 0.000000 0
0.000000 0.000192 0
-0.000002 0.000585 0
-0.000018 0.000852 0
-0.000050 0.000901 0
-0.000095 0.000828 0
-0.000149 0.000706 0
-0.000206 0.000581 0
-0.000264 0.000474 0
-0.000320 0.000393 0
-0.000376 0.000333 0
-0.000430 0.000291 0
-0.000484 0.000260 0
-0.000537 0.000236 0
-0.000589 0.000217 0
-0.000640 0.000200 0
-0.000689 0.000185 0
-0.000737 0.000171 0
-0.000782 0.000157 0
-0.000825 0.000144 0
-0.000865 0.000132 0
-0.000901 0.000121 0
-0.000935 0.000111 0
-0.000965 0.000102 0
-0.000992 0.000094 0
-0.001017 0.000087 0
-0.001040 0.000081 0
-0.001062 0.000076 0
-0.001082 0.000071 0
-0.001102 0.000067 0
-0.001121 0.000063 0
-0.001139 0.000060 0
-0.001157 0.000056 0
-0.001174 0.000053 0
-0.001191 0.000051 0
-0.001207 0.000048 0
-0.001223 0.000045 0
-0.001239 0.000042 0
-0.001254 0.000036 0
-0.001270 0.000029 0
-0.001285 0.000018 0
-0.001299 0.000004 0
-0.001313 -0.000011 0
-0.001326 -0.000024 0
-0.001338 -0.000029 0
-0.001348 -0.000018 0
-0.001358 0.000019 0
-0.001371 0.000087 0
-0.001388 0.000188 0
-0.001414 0.000309 0
-0.001450 0.000418 0
-0.001491 0.000459 0
-0.001528 0.000360 0
-0.001536 0.000040 0
-0.001485 -0.000557 0
-0.001338 -0.001416 0
-0.001068 -0.002375 0
-0.000682 -0.003030 0
-0.000259 -0.002620 0
0.000000 -0.001014 0
0.000000 0.001731 0
-0.000099 0.003659 0
-0.000373 0.003144 0
-0.000654 0.001773 0
-0.000858 0.000696 0
-0.000977 0.000055 0
-0.001032 -0.000271 0
-0.001049 -0.000413 0
-0.001046 -0.000462 0
-0.001032 -0.000469 0
-0.001012 -0.000458 0
-0.000988 -0.000443 0
-0.000961 -0.000427 0
-0.000932 -0.000413 0
-0.000899 -0.000400 0
-0.000865 -0.000389 0
-0.000828 -0.000379 0
-0.000791 -0.000370 0
-0.000752 -0.000362 0
-0.000712 -0.000355 0
-0.000672 -0.000349 0
-0.000631 -0.000343 0
-0.000589 -0.000338 0
-0.000547 -0.000332 0
-0.000505 -0.000328 0
-0.000463 -0.000323 0
-0.000420 -0.000318 0
-0.000378 -0.000315 0
-0.000336 -0.000315 0
-0.000292 -0.000319 0
-0.000248 -0.000330 0
-0.000203 -0.000348 0
-0.000155 -0.000368 0
-0.000106 -0.000379 0
-0.000058 -0.000353 0
-0.000019 -0.000245 0
0.000000 -0.000082 0
0.000000 0.000000 0
0.000000 0.000000 0
0.000000 0.000000 0
0.000000 0.000189 0
0.000012 0.000581 0
0.000028 0.000856 0
0.000037 0.000917 0
0.000034 0.000856 0
0.000019 0.000743 0
-0.000006 0.000624 0
-0.000037 0.000520 0
-0.000073 0.000441 0
-0.000113 0.000382 0
-0.000156 0.000341 0
-0.000201 0.000310 0
-0.000248 0.000287 0
-0.000297 0.000268 0
-0.000347 0.000251 0
-0.000398 0.000235 0
-0.000448 0.000219 0
-0.000498 0.000204 0
-0.000546 0.000188 0
-0.000591 0.000173 0
-0.000633 0.000159 0
-0.000672 0.000145 0
-0.000707 0.000133 0
-0.000739 0.000122 0
-0.000767 0.000112 0
-0.000793 0.000104 0
-0.000817 0.000098 0
-0.000839 0.000092 0
-0.000861 0.000088 0
-0.000883 0.000083 0
-0.000904 0.000079 0
-0.000925 0.000076 0
-0.000946 0.000072 0
-0.000966 0.000069 0
-0.000986 0.000066 0
-0.001006 0.000063 0
-0.001026 0.000059 0
-0.001046 0.000054 0
-0.001066 0.000047 0
-0.001086 0.000036 0
-0.001107 0.000022 0
-0.001128 0.000006 0
-0.001148 -0.000008 0
-0.001167 -0.000014 0
-0.001185 -0.000004 0
-0.001201 0.000032 0
-0.001217 0.000103 0
-0.001235 0.000209 0
-0.001256 0.000337 0
-0.001284 0.000451 0
-0.001315 0.000493 0
-0.001343 0.000379 0
-0.001348 0.000019 0
-0.001304 -0.000650 0
-0.001179 -0.001611 0
-0.000946 -0.002683 0
-0.000608 -0.003411 0
-0.000233 -0.002943 0
0.000000 -0.001137 0
0.000000 0.001774 0
-0.000074 0.003826 0
-0.000302 0.003399 0
-0.000545 0.001998 0
-0.000722 0.000846 0
-0.000823 0.000136 0
-0.000868 -0.000237 0
-0.000880 -0.000407 0
-0.000876 -0.000469 0
-0.000864 -0.000482 0
-0.000849 -0.000476 0
-0.000832 -0.000464 0
-0.000813 -0.000451 0
-0.000791 -0.000439 0
-0.000767 -0.000429 0
-0.000740 -0.000420 0
-0.000712 -0.000412 0
-0.000681 -0.000404 0
-0.000650 -0.000398 0
-0.000616 -0.000392 0
-0.000582 -0.000386 0
-0.000547 -0.000381 0
-0.000512 -0.000376 0
-0.000475 -0.000372 0
-0.000439 -0.000367 0
-0.000402 -0.000362 0
-0.000365 -0.000358 0
-0.000328 -0.000355 0
-0.000290 -0.000355 0
-0.000252 -0.000360 0
-0.000214 -0.000372 0
-0.000173 -0.000392 0
-0.000132 -0.000414 0
-0.000089 -0.000424 0
-0.000048 -0.000393 0
-0.000015 -0.000272 0
0.000000 -0.000091 0
0.000000 0.000000 0
0.000000 0.000000 0
0.000000 0.000000 0
0.000000 0.000180 0
0.000022 0.000556 0
0.000064 0.000826 0
0.000107 0.000895 0