# vtk DataFile Version 2.0
generated by CFD-lab course output (written by Tobias Neckel) 
ASCII

DATASET STRUCTURED_GRID
DIMENSIONS  99 49 1 
POINTS 4851 float

0.000000 0.000000 0
0.020000 0.000000 0
0.040000 0.000000 0
0.060000 0.000000 0
0.080000 0.000000 0
0.100000 0.000000 0
0.120000 0.000000 0
0.140000 0.000000 0
0.160000 0.000000 0
0.180000 0.000000 0
0.200000 0.000000 0
0.220000 0.000000 0
0.240000 0.000000 0
0.260000 0.000000 0
0.280000 0.000000 0
0.300000 0.000000 0
0.320000 0.000000 0
0.340000 0.000000 0
0.360000 0.000000 0
0.380000 0.000000 0
0.400000 0.000000 0
0.420000 0.000000 0
0.440000 0.000000 0
0.460000 0.000000 0
0.480000 0.000000 0
0.500000 0.000000 0
0.520000 0.000000 0
0.540000 0.000000 0
0.560000 0.000000 0
0.580000 0.000000 0
0.600000 0.000000 0
0.620000 0.000000 0
0.640000 0.000000 0
0.660000 0.000000 0
0.680000 0.000000 0
0.700000 0.000000 0
0.720000 0.000000 0
0.740000 0.000000 0
0.760000 0.000000 0
0.780000 0.000000 0
0.800000 0.000000 0
0.820000 0.000000 0
0.840000 0.000000 0
0.860000 0.000000 0
0.880000 0.000000 0
0.900000 0.000000 0
0.920000 0.000000 0
0.940000 0.000000 0
0.960000 0.000000 0
0.980000 0.000000 0
1.000000 0.000000 0
1.020000 0.000000 0
1.040000 0.000000 0
1.060000 0.000000 0
1.080000 0.000000 0
1.100000 0.000000 0
1.120000 0.000000 0
1.140000 0.000000 0
1.160000 0.000000 0
1.180000 0.000000 0
1.200000 0.000000 0
1.220000 0.000000 0
1.240000 0.000000 0
1.260000 0.000000 0
1.280000 0.000000 0
1.300000 0.000000 0
1.320000 0.000000 0
1.340000 0.000000 0
1.360000 0.000000 0
1.380000 0.000000 0
1.400000 0.000000 0
1.420000 0.000000 0
1.440000 0.000000 0
1.460000 0.000000 0
1.480000 0.000000 0
1.500000 0.000000 0
1.520000 0.000000 0
1.540000 0.000000 0
1.560000 0.000000 0
1.580000 0.000000 0
1.600000 0.000000 0
1.620000 0.000000 0
1.640000 0.000000 0
1.660000 0.000000 0
1.680000 0.000000 0
1.700000 0.000000 0
1.720000 0.000000 0
1.740000 0.000000 0
1.760000 0.000000 0
1.780000 0.000000 0
1.800000 0.000000 0
1.820000 0.000000 0
1.840000 0.000000 0
1.860000 0.000000 0
1.880000 0.000000 0
1.900000 0.000000 0
1.920000 0.000000 0
1.940000 0.000000 0
1.960000 0.000000 0
0.000000 0.020000 0
0.020000 0.020000 0
0.040000 0.020000 0
0.060000 0.020000 0
0.080000 0.020000 0
0.100000 0.020000 0
0.120000 0.020000 0
0.140000 0.020000 0
0.160000 0.020000 0
0.180000 0.020000 0
0.200000 0.020000 0
0.220000 0.020000 0
0.240000 0.020000 0
0.260000 0.020000 0
0.280000 0.020000 0
0.300000 0.020000 0
0.320000 0.020000 0
0.340000 0.020000 0
0.360000 0.020000 0
0.380000 0.020000 0
0.400000 0.020000 0
0.420000 0.020000 0
0.440000 0.020000 0
0.460000 0.020000 0
0.480000 0.020000 0
0.500000 0.020000 0
0.520000 0.020000 0
0.540000 0.020000 0
0.560000 0.020000 0
0.580000 0.020000 0
0.600000 0.020000 0
0.620000 0.020000 0
0.640000 0.020000 0
0.660000 0.020000 0
0.680000 0.020000 0
0.700000 0.020000 0
0.720000 0.020000 0
0.740000 0.020000 0
0.760000 0.020000 0
0.780000 0.020000 0
0.800000 0.020000 0
0.820000 0.020000 0
0.840000 0.020000 0
0.860000 0.020000 0
0.880000 0.020000 0
0.900000 0.020000 0
0.920000 0.020000 0
0.940000 0.020000 0
0.960000 0.020000 0
0.980000 0.020000 0
1.000000 0.020000 0
1.020000 0.020000 0
1.040000 0.020000 0
1.060000 0.020000 0
1.080000 0.020000 0
1.100000 0.020000 0
1.120000 0.020000 0
1.140000 0.020000 0
1.160000 0.020000 0
1.180000 0.020000 0
1.200000 0.020000 0
1.220000 0.020000 0
1.240000 0.020000 0
1.260000 0.020000 0
1.280000 0.020000 0
1.300000 0.020000 0
1.320000 0.020000 0
1.340000 0.020000 0
1.360000 0.020000 0
1.380000 0.020000 0
1.400000 0.020000 0
1.420000 0.020000 0
1.440000 0.020000 0
1.460000 0.020000 0
1.480000 0.020000 0
1.500000 0.020000 0
1.520000 0.020000 0
1.540000 0.020000 0
1.560000 0.020000 0
1.580000 0.020000 0
1.600000 0.020000 0
1.620000 0.020000 0
1.640000 0.020000 0
1.660000 0.020000 0
1.680000 0.020000 0
1.700000 0.020000 0
1.720000 0.020000 0
1.740000 0.020000 0
1.760000 0.020000 0
1.780000 0.020000 0
1.800000 0.020000 0
1.820000 0.020000 0
1.840000 0.020000 0
1.860000 0.020000 0
1.880000 0.020000 0
1.900000 0.020000 0
1.920000 0.020000 0
1.940000 0.020000 0
1.960000 0.020000 0
0.000000 0.040000 0
0.020000 0.040000 0
0.040000 0.040000 0
0.060000 0.040000 0
0.080000 0.040000 0
0.100000 0.040000 0
0.120000 0.040000 0
0.140000 0.040000 0
0.160000 0.040000 0
0.180000 0.040000 0
0.200000 0.040000 0
0.220000 0.040000 0
0.240000 0.040000 0
0.260000 0.040000 0
0.280000 0.040000 0
0.300000 0.040000 0
0.320000 0.040000 0
0.340000 0.040000 0
0.360000 0.040000 0
0.380000 0.040000 0
0.400000 0.040000 0
0.420000 0.040000 0
0.440000 0.040000 0
0.460000 0.040000 0
0.480000 0.040000 0
0.500000 0.040000 0
0.520000 0.040000 0
0.540000 0.040000 0
0.560000 0.040000 0
0.580000 0.040000 0
0.600000 0.040000 0
0.620000 0.040000 0
0.640000 0.040000 0
0.660000 0.040000 0
0.680000 0.040000 0
0.700000 0.040000 0
0.720000 0.040000 0
0.740000 0.040000 0
0.760000 0.040000 0
0.780000 0.040000 0
0.800000 0.040000 0
0.820000 0.040000 0
0.840000 0.040000 0
0.860000 0.040000 0
0.880000 0.040000 0
0.900000 0.040000 0
0.920000 0.040000 0
0.940000 0.040000 0
0.960000 0.040000 0
0.980000 0.040000 0
1.000000 0.040000 0
1.020000 0.040000 0
1.040000 0.040000 0
1.060000 0.040000 0
1.080000 0.040000 0
1.100000 0.040000 0
1.120000 0.040000 0
1.140000 0.040000 0
1.160000 0.040000 0
1.180000 0.040000 0
1.200000 0.040000 0
1.220000 0.040000 0
1.240000 0.040000 0
1.260000 0.040000 0
1.280000 0.040000 0
1.300000 0.040000 0
1.320000 0.040000 0
1.340000 0.040000 0
1.360000 0.040000 0
1.380000 0.040000 0
1.400000 0.040000 0
1.420000 0.040000 0
1.440000 0.040000 0
1.460000 0.040000 0
1.480000 0.040000 0
1.500000 0.040000 0
1.520000 0.040000 0
1.540000 0.040000 0
1.560000 0.040000 0
1.580000 0.040000 0
1.600000 0.040000 0
1.620000 0.040000 0
1.640000 0.040000 0
1.660000 0.040000 0
1.680000 0.040000 0
1.700000 0.040000 0
1.720000 0.040000 0
1.740000 0.040000 0
1.760000 0.040000 0
1.780000 0.040000 0
1.800000 0.040000 0
1.820000 0.040000 0
1.840000 0.040000 0
1.860000 0.040000 0
1.880000 0.040000 0
1.900000 0.040000 0
1.920000 0.040000 0
1.940000 0.040000 0
1.960000 0.040000 0
0.000000 0.060000 0
0.020000 0.060000 0
0.040000 0.060000 0
0.060000 0.060000 0
0.080000 0.060000 0
0.100000 0.060000 0
0.120000 0.060000 0
0.140000 0.060000 0
0.160000 0.060000 0
0.180000 0.060000 0
0.200000 0.060000 0
0.220000 0.060000 0
0.240000 0.060000 0
0.260000 0.060000 0
0.280000 0.060000 0
0.300000 0.060000 0
0.320000 0.060000 0
0.340000 0.060000 0
0.360000 0.060000 0
0.380000 0.060000 0
0.400000 0.060000 0
0.420000 0.060000 0
0.440000 0.060000 0
0.460000 0.060000 0
0.480000 0.060000 0
0.500000 0.060000 0
0.520000 0.060000 0
0.540000 0.060000 0
0.560000 0.060000 0
0.580000 0.060000 0
0.600000 0.060000 0
0.620000 0.060000 0
0.640000 0.060000 0
0.660000 0.060000 0
0.680000 0.060000 0
0.700000 0.060000 0
0.720000 0.060000 0
0.740000 0.060000 0
0.760000 0.060000 0
0.780000 0.060000 0
0.800000 0.060000 0
0.820000 0.060000 0
0.840000 0.060000 0
0.860000 0.060000 0
0.880000 0.060000 0
0.900000 0.060000 0
0.920000 0.060000 0
0.940000 0.060000 0
0.960000 0.060000 0
0.980000 0.060000 0
1.000000 0.060000 0
1.020000 0.060000 0
1.040000 0.060000 0
1.060000 0.060000 0
1.080000 0.060000 0
1.100000 0.060000 0
1.120000 0.060000 0
1.140000 0.060000 0
1.160000 0.060000 0
1.180000 0.060000 0
1.200000 0.060000 0
1.220000 0.060000 0
1.240000 0.060000 0
1.260000 0.060000 0
1.280000 0.060000 0
1.300000 0.060000 0
1.320000 0.060000 0
1.340000 0.060000 0
1.360000 0.060000 0
1.380000 0.060000 0
1.400000 0.060000 0
1.420000 0.060000 0
1.440000 0.060000 0
1.460000 0.060000 0
1.480000 0.060000 0
1.500000 0.060000 0
1.520000 0.060000 0
1.540000 0.060000 0
1.560000 0.060000 0
1.580000 0.060000 0
1.600000 0.060000 0
1.620000 0.060000 0
1.640000 0.060000 0
1.660000 0.060000 0
1.680000 0.060000 0
1.700000 0.060000 0
1.720000 0.060000 0
1.740000 0.060000 0
1.760000 0.060000 0
1.780000 0.060000 0
1.800000 0.060000 0
1.820000 0.060000 0
1.840000 0.060000 0
1.860000 0.060000 0
1.880000 0.060000 0
1.900000 0.060000 0
1.920000 0.060000 0
1.940000 0.060000 0
1.960000 0.060000 0
0.000000 0.080000 0
0.020000 0.080000 0
0.040000 0.080000 0
0.060000 0.080000 0
0.080000 0.080000 0
0.100000 0.080000 0
0.120000 0.080000 0
0.140000 0.080000 0
0.160000 0.080000 0
0.180000 0.080000 0
0.200000 0.080000 0
0.220000 0.080000 0
0.240000 0.080000 0
0.260000 0.080000 0
0.280000 0.080000 0
0.300000 0.080000 0
0.320000 0.080000 0
0.340000 0.080000 0
0.360000 0.080000 0
0.380000 0.080000 0
0.400000 0.080000 0
0.420000 0.080000 0
0.440000 0.080000 0
0.460000 0.080000 0
0.480000 0.080000 0
0.500000 0.080000 0
0.520000 0.080000 0
0.540000 0.080000 0
0.560000 0.080000 0
0.580000 0.080000 0
0.600000 0.080000 0
0.620000 0.080000 0
0.640000 0.080000 0
0.660000 0.080000 0
0.680000 0.080000 0
0.700000 0.080000 0
0.720000 0.080000 0
0.740000 0.080000 0
0.760000 0.080000 0
0.780000 0.080000 0
0.800000 0.080000 0
0.820000 0.080000 0
0.840000 0.080000 0
0.860000 0.080000 0
0.880000 0.080000 0
0.900000 0.080000 0
0.920000 0.080000 0
0.940000 0.080000 0
0.960000 0.080000 0
0.980000 0.080000 0
1.000000 0.080000 0
1.020000 0.080000 0
1.040000 0.080000 0
1.060000 0.080000 0
1.080000 0.080000 0
1.100000 0.080000 0
1.120000 0.080000 0
1.140000 0.080000 0
1.160000 0.080000 0
1.180000 0.080000 0
1.200000 0.080000 0
1.220000 0.080000 0
1.240000 0.080000 0
1.260000 0.080000 0
1.280000 0.080000 0
1.300000 0.080000 0
1.320000 0.080000 0
1.340000 0.080000 0
1.360000 0.080000 0
1.380000 0.080000 0
1.400000 0.080000 0
1.420000 0.080000 0
1.440000 0.080000 0
1.460000 0.080000 0
1.480000 0.080000 0
1.500000 0.080000 0
1.520000 0.080000 0
1.540000 0.080000 0
1.560000 0.080000 0
1.580000 0.080000 0
1.600000 0.080000 0
1.620000 0.080000 0
1.640000 0.080000 0
1.660000 0.080000 0
1.680000 0.080000 0
1.700000 0.080000 0
1.720000 0.080000 0
1.740000 0.080000 0
1.760000 0.080000 0
1.780000 0.080000 0
1.800000 0.080000 0
1.820000 0.080000 0
1.840000 0.080000 0
1.860000 0.080000 0
1.880000 0.080000 0
[...]
POINT_DATA 4851 

VECTORS velocity float
0.000000 0.000000 0
-0.000456 0.000000 0
-0.000595 0.000000 0
-0.000542 0.000000 0
-0.000451 0.000000 0
-0.000371 0.000000 0
-0.000310 0.000000 0
-0.000265 0.000000 0
-0.000230 0.000000 0
-0.000203 0.000000 0
-0.000182 0.000000 0
-0.000164 0.000000 0
-0.000149 0.000000 0
-0.000136 0.000000 0
-0.000124 0.000000 0
-0.000114 0.000000 0
-0.000104 0.000000 0
-0.000094 0.000000 0
-0.000085 0.000000 0
-0.000077 0.000000 0
-0.000068 0.000000 0
-0.000060 0.000000 0
-0.000052 0.000000 0
-0.000044 0.000000 0
-0.000037 0.000000 0
-0.000030 0.000000 0
-0.000023 0.000000 0
-0.000017 0.000000 0
-0.000012 0.000000 0
-0.000007 0.000000 0
-0.000003 0.000000 0
-0.000000 0.000000 0
0.000001 0.000000 0
0.000002 0.000000 0
0.000002 0.000000 0
0.000001 0.000000 0
0.000000 0.000000 0
0.000000 0.000000 0
0.000000 0.000000 0
0.000000 0.000000 0
0.000000 0.000000 0
-0.000001 0.000000 0
-0.000003 0.000000 0
-0.000006 0.000000 0
-0.000011 0.000000 0
-0.000017 0.000000 0
-0.000024 0.000000 0
-0.000032 0.000000 0
-0.000042 0.000000 0
-0.000054 0.000000 0
-0.000069 0.000000 0
-0.000088 0.000000 0
-0.000112 0.000000 0
-0.000145 0.000000 0
-0.000188 0.000000 0
-0.000248 0.000000 0
-0.000329 0.000000 0
-0.000436 0.000000 0
-0.000567 0.000000 0
-0.000713 0.000000 0
-0.000853 0.000000 0
-0.000962 0.000000 0
-0.001021 0.000000 0
-0.001030 0.000000 0
-0.001001 0.000000 0
-0.000954 0.000000 0
-0.000905 0.000000 0
-0.000863 0.000000 0
-0.000829 0.000000 0
-0.000803 0.000000 0
-0.000782 0.000000 0
-0.000763 0.000000 0
-0.000745 0.000000 0
-0.000725 0.000000 0
-0.000703 0.000000 0
-0.000678 0.000000 0
-0.000651 0.000000 0
-0.000621 0.000000 0
-0.000590 0.000000 0
-0.000561 0.000000 0
-0.000536 0.000000 0
-0.000518 0.000000 0
-0.000513 0.000000 0
-0.000524 0.000000 0
-0.000555 0.000000 0
-0.000611 0.000000 0
-0.000692 0.000000 0
-0.000801 0.000000 0
-0.000934 0.000000 0
-0.001084 0.000000 0
-0.001238 0.000000 0
-0.001374 0.000000 0
-0.001465 0.000000 0
-0.001475 0.000000 0
-0.001364 0.000000 0
-0.001104 0.000000 0
-0.000709 0.000000 0
-0.000268 0.000000 0
0.000000 0.000000 0
0.000000 0.000456 0
-0.000913 0.000596 0
-0.001397 0.000086 0
-0.001449 -0.000144 0
-0.001330 -0.000171 0
-0.001176 -0.000140 0
-0.001033 -0.000106 0
-0.000912 -0.000080 0
-0.000812 -0.000061 0
-0.000729 -0.000048 0
-0.000660 -0.000039 0
-0.000601 -0.000032 0
-0.000549 -0.000028 0
-0.000504 -0.000024 0
-0.000462 -0.000022 0
-0.000424 -0.000020 0
-0.000389 -0.000019 0
-0.000355 -0.000018 0
-0.000322 -0.000017 0
-0.000291 -0.000017 0
-0.000260 -0.000016 0
-0.000230 -0.000016 0
-0.000201 -0.000016 0
-0.000172 -0.000015 0
-0.000145 -0.000014 0
-0.000119 -0.000013 0
-0.000094 -0.000012 0
-0.000072 -0.000011 0
-0.000052 -0.000010 0
-0.000034 -0.000008 0
-0.000020 -0.000006 0
-0.000009 -0.000004 0
-0.000002 -0.000002 0
0.000002 -0.000000 0
0.000003 0.000002 0
0.000002 0.000002 0
0.000000 0.000001 0
0.000000 0.000000 0
0.000000 0.000000 0
0.000000 0.000000 0
0.000000 0.000000 0
-0.000003 0.000002 0
-0.000011 0.000006 0
-0.000024 0.000008 0
-0.000040 0.000010 0
-0.000060 0.000012 0
-0.000083 0.000015 0
-0.000111 0.000018 0
-0.000145 0.000021 0
-0.000186 0.000026 0
-0.000237 0.000033 0
-0.000302 0.000043 0
-0.000385 0.000056 0
-0.000496 0.000075 0
-0.000644 0.000103 0
-0.000842 0.000140 0
-0.001106 0.000187 0
-0.001445 0.000237 0
-0.001850 0.000277 0
-0.002288 0.000285 0
-0.002697 0.000248 0
-0.003010 0.000167 0
-0.003184 0.000067 0
-0.003221 -0.000021 0
-0.003159 -0.000076 0
-0.003047 -0.000096 0
-0.002924 -0.000092 0
-0.002813 -0.000077 0
-0.002719 -0.000060 0
-0.002640 -0.000048 0
-0.002572 -0.000041 0
-0.002508 -0.000038 0
-0.002446 -0.000039 0
-0.002379 -0.000042 0
-0.002308 -0.000047 0
-0.002230 -0.000053 0
-0.002146 -0.000058 0
-0.002060 -0.000061 0
-0.001976 -0.000061 0
-0.001901 -0.000055 0
-0.001845 -0.000043 0
-0.001818 -0.000023 0
-0.001834 0.000005 0
-0.001903 0.000042 0
-0.002036 0.000086 0
-0.002239 0.000137 0
-0.002516 0.000190 0
-0.002859 0.000241 0
-0.003253 0.000283 0
-0.003667 0.000303 0
-0.004055 0.000290 0
-0.004354 0.000227 0
-0.004487 0.000100 0
-0.004366 -0.000102 0
-0.003908 -0.000371 0
-0.003079 -0.000655 0
-0.001940 -0.000836 0
-0.000732 -0.000709 0
0.000000 -0.000268 0
0.000000 0.000913 0
-0.000807 0.001398 0
-0.001544 0.000536 0
-0.001867 -0.000067 0
-0.001908 -0.000272 0
-0.001819 -0.000296 0
-0.001684 -0.000264 0
-0.001542 -0.000221 0
-0.001409 -0.000183 0
-0.001289 -0.000152 0
-0.001182 -0.000128 0
-0.001087 -0.000110 0
-0.001002 -0.000097 0
-0.000925 -0.000086 0
-0.000853 -0.000079 0
-0.000786 -0.000073 0
-0.000723 -0.000069 0
-0.000662 -0.000066 0
-0.000604 -0.000064 0
-0.000547 -0.000062 0
-0.000491 -0.000061 0
-0.000436 -0.000059 0
-0.000383 -0.000057 0
-0.000331 -0.000055 0
-0.000282 -0.000053 0
-0.000234 -0.000050 0
-0.000189 -0.000047 0
-0.000148 -0.000042 0
-0.000110 -0.000037 0
-0.000078 -0.000031 0
-0.000050 -0.000025 0
-0.000029 -0.000018 0
-0.000013 -0.000011 0
-0.000004 -0.000004 0
0.000001 0.000001 0
0.000001 0.000003 0
0.000000 0.000002 0
0.000000 0.000000 0
0.000000 0.000000 0
0.000000 0.000000 0
0.000000 0.000002 0
-0.000006 0.000010 0
-0.000021 0.000020 0
-0.000042 0.000028 0
-0.000069 0.000036 0
-0.000102 0.000043 0
-0.000141 0.000051 0
-0.000187 0.000061 0
-0.000244 0.000074 0
-0.000312 0.000091 0
-0.000398 0.000115 0
-0.000507 0.000148 0
-0.000647 0.000193 0
-0.000830 0.000257 0
-0.001071 0.000346 0
-0.001389 0.000462 0
-0.001802 0.000602 0
-0.002316 0.000743 0
-0.002915 0.000843 0
-0.003544 0.000846 0
-0.004120 0.000721 0
-0.004559 0.000486 0
-0.004815 0.000210 0
-0.004898 -0.000026 0
-0.004856 -0.000175 0
-0.004749 -0.000235 0
-0.004619 -0.000235 0
-0.004489 -0.000206 0
-0.004369 -0.000174 0
-0.004259 -0.000148 0
-0.004156 -0.000132 0
-0.004056 -0.000127 0
-0.003956 -0.000130 0
-0.003853 -0.000138 0
-0.003744 -0.000150 0
-0.003630 -0.000162 0
-0.003513 -0.000170 0
-0.003400 -0.000171 0
-0.003297 -0.000160 0
-0.003217 -0.000132 0
-0.003174 -0.000083 0
-0.003183 -0.000012 0
-0.003261 0.000084 0
-0.003420 0.000201 0
-0.003672 0.000336 0
-0.004019 0.000480 0
-0.004455 0.000620 0
-0.004959 0.000737 0
-0.005496 0.000808 0
-0.006010 0.000802 0
-0.006432 0.000687 0
-0.006673 0.000431 0
-0.006640 0.000011 0
-0.006236 -0.000579 0
-0.005400 -0.001287 0
-0.004134 -0.001969 0
-0.002548 -0.002347 0
-0.000948 -0.001940 0
0.000000 -0.000732 0
0.000000 0.001263 0
-0.000614 0.002140 0
-0.001380 0.001147 0
-0.001868 0.000220 0
-0.002075 -0.000219 0
-0.002102 -0.000365 0
-0.002037 -0.000383 0
-0.001930 -0.000355 0
-0.001809 -0.000314 0
-0.001687 -0.000275 0
-0.001570 -0.000240 0
-0.001460 -0.000212 0
-0.001358 -0.000190 0
-0.001262 -0.000173 0
-0.001171 -0.000160 0
-0.001085 -0.000150 0
-0.001002 -0.000143 0
-0.000921 -0.000137 0
-0.000843 -0.000133 0
-0.000766 -0.000130 0
-0.000691 -0.000127 0
-0.000617 -0.000124 0
-0.000545 -0.000120 0
-0.000474 -0.000116 0
-0.000406 -0.000112 0
-0.000341 -0.000106 0
-0.000280 -0.000099 0
-0.000222 -0.000090 0
-0.000170 -0.000080 0
-0.000124 -0.000068 0
-0.000085 -0.000055 0
-0.000054 -0.000041 0
-0.000030 -0.000027 0
-0.000013 -0.000014 0
-0.000004 -0.000003 0
-0.000000 0.000003 0
0.000000 0.000002 0
0.000000 0.000000 0
0.000000 0.000000 0
0.000000 0.000000 0
0.000000 0.000006 0
-0.000009 0.000023 0
-0.000027 0.000041 0
-0.000054 0.000056 0
-0.000087 0.000070 0
-0.000128 0.000084 0
-0.000176 0.000100 0
-0.000233 0.000120 0
-0.000302 0.000146 0
-0.000387 0.000181 0
-0.000493 0.000227 0
-0.000625 0.000291 0
-0.000794 0.000379 0
-0.001013 0.000499 0
-0.001295 0.000662 0
-0.001658 0.000871 0
-0.002117 0.001114 0
-0.002675 0.001350 0
-0.003310 0.001504 0
-0.003968 0.001490 0
-0.004572 0.001262 0
-0.005047 0.000862 0
-0.005355 0.000406 0
-0.005505 0.000020 0
-0.005535 -0.000225 0
-0.005492 -0.000334 0
-0.005412 -0.000352 0
-0.005314 -0.000327 0
-0.005210 -0.000291 0
-0.005104 -0.000261 0
-0.004998 -0.000243 0
-0.004892 -0.000237 0
-0.004783 -0.000243 0
-0.004672 -0.000255 0
-0.004558 -0.000271 0
-0.004445 -0.000284 0
-0.004335 -0.000289 0
-0.004236 -0.000278 0
-0.004157 -0.000243 0
-0.004112 -0.000179 0
-0.004114 -0.000077 0
-0.004178 0.000064 0
-0.004319 0.000242 0
-0.004546 0.000453 0
-0.004863 0.000685 0
-0.005265 0.000920 0
-0.005736 0.001130 0
-0.006242 0.001282 0
-0.006738 0.001334 0
-0.007162 0.001239 0
-0.007441 0.000953 0
-0.007494 0.000436 0
-0.007238 -0.000337 0
-0.006612 -0.001341 0
-0.005591 -0.002472 0
-0.004198 -0.003507 0
-0.002544 -0.004022 0
-0.000929 -0.003257 0
0.000000 -0.001217 0
0.000000 0.001527 0
-0.000470 0.002779 0
-0.001185 0.001790 0
-0.001736 0.000627 0
-0.002050 -0.000037 0
-0.002180 -0.000333 0
-0.002194 -0.000436 0
-0.002141 -0.000449 0
-0.002053 -0.000426 0
-0.001950 -0.000391 0
-0.001841 -0.000355 0
-0.001732 -0.000322 0
-0.001625 -0.000295 0
-0.001521 -0.000273 0
-0.001420 -0.000256 0
-0.001322 -0.000243 0
-0.001227 -0.000232 0
-0.001133 -0.000225 0
-0.001041 -0.000219 0
-0.000950 -0.000214 0
-0.000860 -0.000209 0
-0.000772 -0.000205 0
-0.000685 -0.000200 0
-0.000600 -0.000194 0
-0.000517 -0.000186 0
-0.000438 -0.000177 0
-0.000362 -0.000165 0
-0.000292 -0.000151 0
-0.000228 -0.000135 0
-0.000170 -0.000116 0
-0.000120 -0.000096 0
-0.000079 -0.000074 0
-0.000047 -0.000051 0
-0.000024 -0.000030 0
-0.000009 -0.000012 0
-0.000002 -0.000000 0
0.000000 0.000002 0
0.000000 0.000000 0
0.000000 0.000000 0
0.000000 0.000000 0
0.000000 0.000011 0
-0.000010 0.000037 0
-0.000030 0.000066 0
-0.000060 0.000088 0
-0.000096 0.000109 0
-0.000139 0.000131 0
-0.000191 0.000156 0
-0.000252 0.000187 0
-0.000326 0.000228 0
-0.000416 0.000281 0
-0.000527 0.000353 0
-0.000665 0.000450 0
-0.000839 0.000581 0
-0.001059 0.000757 0
-0.001336 0.000991 0
-0.001683 0.001284 0
-0.002109 0.001618 0
-0.002613 0.001936 0
-0.003181 0.002136 0
-0.003774 0.002108 0
-0.004339 0.001800 0
-0.004820 0.001270 0
-0.005182 0.000667 0
-0.005420 0.000153 0
-0.005551 -0.000188 0
-0.005599 -0.000358 0
-0.005592 -0.000413 0
-0.005549 -0.000409 0
-0.005483 -0.000384 0
-0.005404 -0.000360 0
-0.005316 -0.000345 0
-0.005224 -0.000343 0
-0.005130 -0.000350 0
-0.005034 -0.000363 0
-0.004940 -0.000378 0
-0.004852 -0.000386 0
-0.004773 -0.000380 0
-0.004712 -0.000349 0
-0.004677 -0.000284 0
-0.004680 -0.000175 0
-0.004731 -0.000017 0
-0.004842 0.000194 0
-0.005021 0.000451 0
-0.005272 0.000745 0
-0.005593 0.001055 0
-0.005970 0.001353 0
-0.006380 0.001597 0
-0.006787 0.001740 0
-0.007144 0.001728 0
-0.007394 0.001504 0
-0.007478 0.001018 0
-0.007336 0.000229 0
-0.006914 -0.000871 0
-0.006189 -0.002227 0
-0.005156 -0.003701 0
-0.003832 -0.005015 0
-0.002307 -0.005616 0
-0.000834 -0.004484 0
0.000000 -0.001661 0
0.000000 0.001734 0
-0.000374 0.003325 0
-0.001020 0.002413 0
-0.001579 0.001085 0
-0.001950 0.000226 0
-0.002152 -0.000221 0
-0.002232 -0.000422 0
-0.002233 -0.000495 0
-0.002185 -0.000505 0
-0.002109 -0.000487 0
-0.002018 -0.000458 0
-0.001919 -0.000428 0
-0.001816 -0.000401 0
-0.001713 -0.000378 0
-0.001609 -0.000359 0
-0.001506 -0.000344 0
-0.001404 -0.000332 0
-0.001302 -0.000323 0
-0.001201 -0.000316 0
-0.001100 -0.000310 0
-0.001000 -0.000305 0
-0.000901 -0.000299 0
-0.000803 -0.000292 0
-0.000707 -0.000284 0
-0.000613 -0.000274 0
-0.000522 -0.000260 0
-0.000436 -0.000244 0
-0.000354 -0.000224 0
-0.000280 -0.000201 0
-0.000212 -0.000175 0
-0.000153 -0.000146 0
-0.000104 -0.000114 0
-0.000064 -0.000082 0
-0.000034 -0.000052 0
-0.000014 -0.000025 0
-0.000003 -0.000006 0
0.000000 0.000000 0
0.000000 0.000000 0
0.000000 0.000000 0
0.000000 0.000000 0
0.000000 0.000015 0
-0.000010 0.000053 0
-0.000030 0.000091 0
-0.000059 0.000121 0
-0.000095 0.000149 0
-0.000138 0.000179 0
-0.000188 0.000213 0
-0.000248 0.000255 0
-0.000319 0.000310 0
-0.000405 0.000382 0
-0.000510 0.000477 0
-0.000639 0.000603 0
-0.000797 0.000772 0
-0.000993 0.000996 0
-0.001232 0.001286 0
-0.001520 0.001643 0
-0.001861 0.002044 0
-0.002255 0.002422 0
-0.002698 0.002665 0
-0.003177 0.002648 0
-0.003669 0.002308 0
-0.004141 0.001705 0
-0.004557 0.001006 0
-0.004892 0.000389 0
-0.005134 -0.000046 0
-0.005287 -0.000293 0
-0.005364 -0.000403 0
-0.005387 -0.000437 0
-0.005373 -0.000436 0
-0.005334 -0.000428 0
-0.005280 -0.000422 0
-0.005217 -0.000424 0
-0.005150 -0.000433 0
-0.005083 -0.000445 0
-0.005021 -0.000453 0
-0.004969 -0.000451 0
-0.004931 -0.000428 0
-0.004915 -0.000374 0
-0.004926 -0.000276 0
-0.004973 -0.000124 0
-0.005061 0.000085 0
-0.005197 0.000353 0
-0.005383 0.000672 0
-0.005618 0.001025 0
-0.005893 0.001383 0
-0.006191 0.001707 0
-0.006487 0.001947 0
-0.006746 0.002045 0
-0.006929 0.001941 0
-0.006992 0.001574 0
-0.006897 0.000895 0
-0.006607 -0.000128 0
-0.006105 -0.001483 0
-0.005389 -0.003100 0
-0.004454 -0.004829 0
-0.003305 -0.006357 0
-0.001995 -0.007020 0
-0.000726 -0.005564 0
0.000000 -0.002051 0
0.000000 0.001902 0
-0.000310 0.003799 0
-0.000891 0.002996 0
-0.001434 0.001557 0
-0.001829 0.000536 0
-0.002075 -0.000051 0
-0.002204 -0.000355 0
-0.002250 -0.000496 0
-0.002240 -0.000549 0
-0.002193 -0.000558 0
-0.002123 -0.000545 0
-0.002039 -0.000524 0
-0.001946 -0.000501 0
-0.001848 -0.000480 0
-0.001747 -0.000462 0
-0.001644 -0.000448 0
-0.001540 -0.000436 0
-0.001435 -0.000427 0
-0.001329 -0.000420 0
-0.001222 -0.000414 0
-0.001115 -0.000409 0
-0.001009 -0.000402 0
-0.000903 -0.000394 0
-0.000798 -0.000384 0
-0.000695 -0.000371 0
-0.000595 -0.000354 0
-0.000500 -0.000333 0
-0.000409 -0.000307 0
-0.000326 -0.000277 0
-0.000250 -0.000242 0
-0.000183 -0.000204 0
-0.000125 -0.000163 0
-0.000079 -0.000120 0
-0.000043 -0.000079 0
-0.000019 -0.000043 0
-0.000004 -0.000014 0
0.000000 -0.000001 0
0.000000 0.000000 0
0.000000 0.000000 0
0.000000 0.000000 0
0.000000 0.000020 0
-0.000009 0.000067 0
-0.000028 0.000115 0
-0.000055 0.000153 0
-0.000087 0.000187 0
-0.000126 0.000223 0
-0.000171 0.000266 0
-0.000224 0.000318 0
-0.000287 0.000385 0
-0.000361 0.000472 0
-0.000451 0.000587 0
-0.000558 0.000737 0
-0.000688 0.000935 0
-0.000841 0.001192 0
-0.001022 0.001518 0
-0.001229 0.001913 0
-0.001463 0.002354 0
-0.001724 0.002773 0
-0.002020 0.003058 0
-0.002362 0.003080 0
-0.002757 0.002764 0
-0.003198 0.002157 0
-0.003650 0.001418 0
-0.004070 0.000730 0
-0.004419 0.000207 0
-0.004681 -0.000128 0
-0.004855 -0.000313 0
-0.004957 -0.000400 0
-0.005006 -0.000437 0
-0.005019 -0.000453 0
-0.005009 -0.000463 0
-0.004984 -0.000473 0
-0.004952 -0.000483 0
-0.004920 -0.000492 0
-0.004894 -0.000492 0
-0.004879 -0.000476 0
-0.004880 -0.000434 0
-0.004902 -0.000354 0
-0.004950 -0.000226 0
-0.005027 -0.000040 0
-0.005134 0.000208 0
-0.005273 0.000515 0
-0.005440 0.000872 0
-0.005630 0.001255 0
-0.005831 0.001628 0
-0.006024 0.001946 0
-0.006185 0.002151 0
-0.006288 0.002182 0
-0.006304 0.001974 0
-0.006206 0.001472 0
-0.005974 0.000632 0
-0.005598 -0.000563 0
-0.005088 -0.002089 0
-0.004446 -0.003878 0
-0.003666 -0.005785 0
-0.002733 -0.007474 0
-0.001667 -0.008195 0
-0.000617 -0.006479 0
0.000000 -0.002387 0
0.000000 0.002043 0
-0.000264 0.004217 0
-0.000791 0.003537 0
-0.001308 0.002023 0
-0.001708 0.000867 0
-0.001979 0.000155 0
-0.002142 -0.000247 0
-0.002223 -0.000460 0
-0.002244 -0.000562 0
-0.002224 -0.000603 0
-0.002176 -0.000612 0
-0.002109 -0.000605 0
-0.002029 -0.000591 0
-0.001940 -0.000576 0
-0.001845 -0.000562 0
-0.001746 -0.000551 0
-0.001643 -0.000541 0
-0.001537 -0.000534 0
-0.001429 -0.000528 0
-0.001320 -0.000523 0
-0.001209 -0.000518 0
-0.001098 -0.000512 0
-0.000986 -0.000503 0
-0.000875 -0.000491 0
-0.000765 -0.000476 0
-0.000659 -0.000455 0
-0.000555 -0.000430 0
-0.000458 -0.000398 0
-0.000366 -0.000361 0
-0.000283 -0.000318 0
-0.000208 -0.000270 0
-0.000144 -0.000218 0
-0.000092 -0.000165 0
-0.000051 -0.000112 0
-0.000022 -0.000064 0
-0.000005 -0.000025 0
0.000000 -0.000004 0
0.000000 0.000000 0
0.000000 0.000000 0
0.000000 0.000000 0
0.000000 0.000024 0
-0.000007 0.000080 0
-0.000024 0.000137 0
-0.000046 0.000181 0
-0.000074 0.000221 0
-0.000106 0.000262 0
-0.000143 0.000311 0
-0.000186 0.000371 0
-0.000235 0.000447 0
-0.000293 0.000546 0
-0.000360 0.000674 0
-0.000439 0.000840 0
-0.000530 0.001055 0
-0.000633 0.001330 0
-0.000747 0.001674 0
-0.000867 0.002084 0
-0.000992 0.002539 0
-0.001122 0.002979 0
-0.001272 0.003302 0
-0.001469 0.003385 0
-0.001748 0.003143 0
-0.002124 0.002597 0
-0.002575 0.001878 0
-0.003049 0.001159 0
-0.003488 0.000566 0
-0.003854 0.000142 0
-0.004132 -0.000128 0
-0.004328 -0.000286 0
-0.004456 -0.000374 0
-0.004534 -0.000425 0
-0.004578 -0.000458 0
-0.004600 -0.000481 0
-0.004610 -0.000497 0
-0.004615 -0.000503 0
-0.004623 -0.000495 0
-0.004640 -0.000465 0
-0.004672 -0.000405 0
-0.004722 -0.000303 0
-0.004792 -0.000151 0
-0.004882 0.000060 0
-0.004990 0.000331 0
-0.005113 0.000659 0
-0.005244 0.001029 0
-0.005374 0.001415 0
-0.005489 0.001776 0
-0.005573 0.002061 0
-0.005606 0.002212 0
-0.005569 0.002164 0
-0.005446 0.001858 0
-0.005227 0.001244 0
-0.004910 0.000287 0
-0.004504 -0.001015 0
-0.004032 -0.002635 0
-0.003498 -0.004521 0
-0.002887 -0.006543 0
-0.002173 -0.008355 0
-0.001348 -0.009136 0
-0.000510 -0.007231 0
0.000000 -0.002668 0
0.000000 0.002166 0
-0.000231 0.004590 0
-0.000711 0.004040 0
-0.001201 0.002474 0
-0.001597 0.001207 0
-0.001880 0.000383 0
-0.002065 -0.000112 0
-0.002171 -0.000394 0
-0.002218 -0.000548 0
-0.002221 -0.000625 0
-0.002193 -0.000660 0
-0.002143 -0.000671 0
-0.002077 -0.000670 0
-0.001999 -0.000664 0
-0.001912 -0.000657 0
-0.001818 -0.000650 0
-0.001719 -0.000645 0
-0.001616 -0.000641 0
-0.001509 -0.000637 0
-0.001399 -0.000634 0
-0.001286 -0.000631 0
-0.001172 -0.000625 0
-0.001057 -0.000617 0
-0.000941 -0.000604 0
-0.000827 -0.000587 0
-0.000714 -0.000564 0
-0.000605 -0.000534 0
-0.000500 -0.000496 0
-0.000402 -0.000452 0
-0.000312 -0.000400 0
-0.000231 -0.000342 0
-0.000161 -0.000279 0
-0.000103 -0.000214 0
-0.000057 -0.000149 0
-0.000025 -0.000088 0
-0.000006 -0.000036 0
0.000000 -0.000007 0
0.000000 0.000000 0
0.000000 0.000000 0
0.000000 0.000000 0
0.000000 0.000027 0
-0.000006 0.000091 0
-0.000018 0.000154 0
-0.000035 0.000203 0
-0.000056 0.000247 0
-0.000080 0.000292 0
-0.000107 0.000345 0
-0.000136 0.000410 0
-0.000170 0.000492 0
-0.000207 0.000597 0
-0.000249 0.000733 0
-0.000295 0.000907 0
-0.000344 0.001129 0
-0.000394 0.001408 0
-0.000440 0.001752 0
-0.000479 0.002159 0
-0.000504 0.002609 0
-0.000519 0.003053 0
-0.000540 0.003405 0
-0.000601 0.003556 0
-0.000751 0.003419 0
-0.001029 0.002984 0
-0.001432 0.002343 0
-0.001914 0.001643 0
-0.002408 0.001012 0
-0.002859 0.000516 0
-0.003237 0.000161 0
-0.003533 -0.000077 0
-0.003754 -0.000231 0
-0.003913 -0.000330 0
-0.004026 -0.000397 0
-0.004106 -0.000441 0
-0.004164 -0.000469 0
-0.004210 -0.000479 0
-0.004252 -0.000467 0
-0.004297 -0.000427 0
-0.004350 -0.000352 0
-0.004416 -0.000234 0
-0.004494 -0.000066 0
-0.004583 0.000158 0
-0.004677 0.000439 0
-0.004772 0.000769 0
-0.004857 0.001133 0
-0.004922 0.001499 0
-0.004954 0.001827 0
-0.004938 0.002063 0
-0.004862 0.002148 0
-0.004715 0.002022 0
-0.004491 0.001632 0
-0.004195 0.000936 0
-0.003838 -0.000090 0
-0.003446 -0.001441 0
-0.003039 -0.003096 0
-0.002621 -0.005022 0
-0.002172 -0.007110 0
-0.001657 -0.009014 0
-0.001050 -0.009858 0
-0.000409 -0.007827 0
0.000000 -0.002897 0
0.000000 0.002274 0
-0.000205 0.004928 0
-0.000647 0.004508 0
-0.001111 0.002909 0
-0.001497 0.001546 0
-0.001785 0.000623 0
-0.001983 0.000044 0
-0.002107 -0.000307 0
-0.002174 -0.000512 0
-0.002197 -0.000627 0
-0.002187 -0.000690 0
-0.002153 -0.000721 0
-0.002100 -0.000736 0
-0.002033 -0.000741 0
-0.001956 -0.000743 0
-0.001870 -0.000743 0
-0.001777 -0.000744 0
-0.001677 -0.000744 0
-0.001573 -0.000745 0
-0.001464 -0.000746 0
-0.001352 -0.000745 0
-0.001236 -0.000741 0
-0.001119 -0.000734 0
-0.001000 -0.000721 0
-0.000881 -0.000703 0
-0.000764 -0.000677 0
-0.000649 -0.000643 0
-0.000539 -0.000601 0
-0.000434 -0.000549 0
-0.000338 -0.000489 0
-0.000251 -0.000420 0
-0.000175 -0.000346 0
-0.000112 -0.000268 0
-0.000063 -0.000189 0
-0.000028 -0.000115 0
-0.000007 -0.000050 0
0.000000 -0.000010 0
0.000000 0.000000 0
0.000000 0.000000 0
0.000000 0.000000 0