# vtk DataFile Version 2.0
generated by CFD-lab course output (written by Tobias Neckel) 
ASCII

DATASET STRUCTURED_GRID
DIMENSIONS  99 49 1 
POINTS 4851 float

0.000000 0.000000 0
0.020000 0.000000 0
0.040000 0.000000 0
0.060000 0.000000 0
0.080000 0.000000 0
0.100000 0.000000 0
0.120000 0.000000 0
0.140000 0.000000 0
0.160000 0.000000 0
0.180000 0.000000 0
0.200000 0.000000 0
0.220000 0.000000 0
0.240000 0.000000 0
0.260000 0.000000 0
0.280000 0.000000 0
0.300000 0.000000 0
0.320000 0.000000 0
0.340000 0.000000 0
0.360000 0.000000 0
0.380000 0.000000 0
0.400000 0.000000 0
0.420000 0.000000 0
0.440000 0.000000 0
0.460000 0.000000 0
0.480000 0.000000 0
0.500000 0.000000 0
0.520000 0.000000 0
0.540000 0.000000 0
0.560000 0.000000 0
0.580000 0.000000 0
0.600000 0.000000 0
0.620000 0.000000 0
0.640000 0.000000 0
0.660000 0.000000 0
0.680000 0.000000 0
0.700000 0.000000 0
0.720000 0.000000 0
0.740000 0.000000 0
0.760000 0.000000 0
0.780000 0.000000 0
0.800000 0.000000 0
0.820000 0.000000 0
0.840000 0.000000 0
0.860000 0.000000 0
0.880000 0.000000 0
0.900000 0.000000 0
0.920000 0.000000 0
0.940000 0.000000 0
0.960000 0.000000 0
0.980000 0.000000 0
1.000000 0.000000 0
1.020000 0.000000 0
1.040000 0.000000 0
1.060000 0.000000 0
1.080000 0.000000 0
1.100000 0.000000 0
1.120000 0.000000 0
1.140000 0.000000 0
1.160000 0.000000 0
1.180000 0.000000 0
1.200000 0.000000 0
1.220000 0.000000 0
1.240000 0.000000 0
1.260000 0.000000 0
1.280000 0.000000 0
1.300000 0.000000 0
1.320000 0.000000 0
1.340000 0.000000 0
1.360000 0.000000 0
1.380000 0.000000 0
1.400000 0.000000 0
1.420000 0.000000 0
1.440000 0.000000 0
1.460000 0.000000 0
1.480000 0.000000 0
1.500000 0.000000 0
1.520000 0.000000 0
1.540000 0.000000 0
1.560000 0.000000 0
1.580000 0.000000 0
1.600000 0.000000 0
1.620000 0.000000 0
1.640000 0.000000 0
1.660000 0.000000 0
1.680000 0.000000 0
1.700000 0.000000 0
1.720000 0.000000 0
1.740000 0.000000 0
1.760000 0.000000 0
1.780000 0.000000 0
1.800000 0.000000 0
1.820000 0.000000 0
1.840000 0.000000 0
1.860000 0.000000 0
1.880000 0.000000 0
1.900000 0.000000 0
1.920000 0.000000 0
1.940000 0.000000 0
1.960000 0.000000 0
0.000000 0.020000 0
0.020000 0.020000 0
0.040000 0.020000 0
0.060000 0.020000 0
0.080000 0.020000 0
0.100000 0.020000 0
0.120000 0.020000 0
0.140000 0.020000 0
0.160000 0.020000 0
0.180000 0.020000 0
0.200000 0.020000 0
0.220000 0.020000 0
0.240000 0.020000 0
0.260000 0.020000 0
0.280000 0.020000 0
0.300000 0.020000 0
0.320000 0.020000 0
0.340000 0.020000 0
0.360000 0.020000 0
0.380000 0.020000 0
0.400000 0.020000 0
0.420000 0.020000 0
0.440000 0.020000 0
0.460000 0.020000 0
0.480000 0.020000 0
0.500000 0.020000 0
0.520000 0.020000 0
0.540000 0.020000 0
0.560000 0.020000 0
0.580000 0.020000 0
0.600000 0.020000 0
0.620000 0.020000 0
0.640000 0.020000 0
0.660000 0.020000 0
0.680000 0.020000 0
0.700000 0.020000 0
0.720000 0.020000 0
0.740000 0.020000 0
0.760000 0.020000 0
0.780000 0.020000 0
0.800000 0.020000 0
0.820000 0.020000 0
0.840000 0.020000 0
0.860000 0.020000 0
0.880000 0.020000 0
0.900000 0.020000 0
0.920000 0.020000 0
0.940000 0.020000 0
0.960000 0.020000 0
0.980000 0.020000 0
1.000000 0.020000 0
1.020000 0.020000 0
1.040000 0.020000 0
1.060000 0.020000 0
1.080000 0.020000 0
1.100000 0.020000 0
1.120000 0.020000 0
1.140000 0.020000 0
1.160000 0.020000 0
1.180000 0.020000 0
1.200000 0.020000 0
1.220000 0.020000 0
1.240000 0.020000 0
1.260000 0.020000 0
1.280000 0.020000 0
1.300000 0.020000 0
1.320000 0.020000 0
1.340000 0.020000 0
1.360000 0.020000 0
1.380000 0.020000 0
1.400000 0.020000 0
1.420000 0.020000 0
1.440000 0.020000 0
1.460000 0.020000 0
1.480000 0.020000 0
1.500000 0.020000 0
1.520000 0.020000 0
1.540000 0.020000 0
1.560000 0.020000 0
1.580000 0.020000 0
1.600000 0.020000 0
1.620000 0.020000 0
1.640000 0.020000 0
1.660000 0.020000 0
1.680000 0.020000 0
1.700000 0.020000 0
1.720000 0.020000 0
1.740000 0.020000 0
1.760000 0.020000 0
1.780000 0.020000 0
1.800000 0.020000 0
1.820000 0.020000 0
1.840000 0.020000 0
1.860000 0.020000 0
1.880000 0.020000 0
1.900000 0.020000 0
1.920000 0.020000 0
1.940000 0.020000 0
1.960000 0.020000 0
0.000000 0.040000 0
0.020000 0.040000 0
0.040000 0.040000 0
0.060000 0.040000 0
0.080000 0.040000 0
0.100000 0.040000 0
0.120000 0.040000 0
0.140000 0.040000 0
0.160000 0.040000 0
0.180000 0.040000 0
0.200000 0.040000 0
0.220000 0.040000 0
0.240000 0.040000 0
0.260000 0.040000 0
0.280000 0.040000 0
0.300000 0.040000 0
0.320000 0.040000 0
0.340000 0.040000 0
0.360000 0.040000 0
0.380000 0.040000 0
0.400000 0.040000 0
0.420000 0.040000 0
0.440000 0.040000 0
0.460000 0.040000 0
0.480000 0.040000 0
0.500000 0.040000 0
0.520000 0.040000 0
0.540000 0.040000 0
0.560000 0.040000 0
0.580000 0.040000 0
0.600000 0.040000 0
0.620000 0.040000 0
0.640000 0.040000 0
0.660000 0.040000 0
0.680000 0.040000 0
0.700000 0.040000 0
0.720000 0.040000 0
0.740000 0.040000 0
0.760000 0.040000 0
0.780000 0.040000 0
0.800000 0.040000 0
0.820000 0.040000 0
0.840000 0.040000 0
0.860000 0.040000 0
0.880000 0.040000 0
0.900000 0.040000 0
0.920000 0.040000 0
0.940000 0.040000 0
0.960000 0.040000 0
0.980000 0.040000 0
1.000000 0.040000 0
1.020000 0.040000 0
1.040000 0.040000 0
1.060000 0.040000 0
1.080000 0.040000 0
1.100000 0.040000 0
1.120000 0.040000 0
1.140000 0.040000 0
1.160000 0.040000 0
1.180000 0.040000 0
1.200000 0.040000 0
1.220000 0.040000 0
1.240000 0.040000 0
1.260000 0.040000 0
1.280000 0.040000 0
1.300000 0.040000 0
1.320000 0.040000 0
1.340000 0.040000 0
1.360000 0.040000 0
1.380000 0.040000 0
1.400000 0.040000 0
1.420000 0.040000 0
1.440000 0.040000 0
1.460000 0.040000 0
1.480000 0.040000 0
1.500000 0.040000 0
1.520000 0.040000 0
1.540000 0.040000 0
1.560000 0.040000 0
1.580000 0.040000 0
1.600000 0.040000 0
1.620000 0.040000 0
1.640000 0.040000 0
1.660000 0.040000 0
1.680000 0.040000 0
1.700000 0.040000 0
1.720000 0.040000 0
1.740000 0.040000 0
1.760000 0.040000 0
1.780000 0.040000 0
1.800000 0.040000 0
1.820000 0.040000 0
1.840000 0.040000 0
1.860000 0.040000 0
1.880000 0.040000 0
1.900000 0.040000 0
1.920000 0.040000 0
1.940000 0.040000 0
1.960000 0.040000 0
0.000000 0.060000 0
0.020000 0.060000 0
0.040000 0.060000 0
0.060000 0.060000 0
0.080000 0.060000 0
0.100000 0.060000 0
0.120000 0.060000 0
0.140000 0.060000 0
0.160000 0.060000 0
0.180000 0.060000 0
0.200000 0.060000 0
0.220000 0.060000 0
0.240000 0.060000 0
0.260000 0.060000 0
0.280000 0.060000 0
0.300000 0.060000 0
0.320000 0.060000 0
0.340000 0.060000 0
0.360000 0.060000 0
0.380000 0.060000 0
0.400000 0.060000 0
0.420000 0.060000 0
0.440000 0.060000 0
0.460000 0.060000 0
0.480000 0.060000 0
0.500000 0.060000 0
0.520000 0.060000 0
0.540000 0.060000 0
0.560000 0.060000 0
0.580000 0.060000 0
0.600000 0.060000 0
0.620000 0.060000 0
0.640000 0.060000 0
0.660000 0.060000 0
0.680000 0.060000 0
0.700000 0.060000 0
0.720000 0.060000 0
0.740000 0.060000 0
0.760000 0.060000 0
0.780000 0.060000 0
0.800000 0.060000 0
0.820000 0.060000 0
0.840000 0.060000 0
0.860000 0.060000 0
0.880000 0.060000 0
0.900000 0.060000 0
0.920000 0.060000 0
0.940000 0.060000 0
0.960000 0.060000 0
0.980000 0.060000 0
1.000000 0.060000 0
1.020000 0.060000 0
1.040000 0.060000 0
1.060000 0.060000 0
1.080000 0.060000 0
1.100000 0.060000 0
1.120000 0.060000 0
1.140000 0.060000 0
1.160000 0.060000 0
1.180000 0.060000 0
1.200000 0.060000 0
1.220000 0.060000 0
1.240000 0.060000 0
1.260000 0.060000 0
1.280000 0.060000 0
1.300000 0.060000 0
1.320000 0.060000 0
1.340000 0.060000 0
1.360000 0.060000 0
1.380000 0.060000 0
1.400000 0.060000 0
1.420000 0.060000 0
1.440000 0.060000 0
1.460000 0.060000 0
1.480000 0.060000 0
1.500000 0.060000 0
1.520000 0.060000 0
1.540000 0.060000 0
1.560000 0.060000 0
1.580000 0.060000 0
1.600000 0.060000 0
1.620000 0.060000 0
1.640000 0.060000 0
1.660000 0.060000 0
1.680000 0.060000 0
1.700000 0.060000 0
1.720000 0.060000 0
1.740000 0.060000 0
1.760000 0.060000 0
1.780000 0.060000 0
1.800000 0.060000 0
1.820000 0.060000 0
1.840000 0.060000 0
1.860000 0.060000 0
1.880000 0.060000 0
1.900000 0.060000 0
1.920000 0.060000 0
1.940000 0.060000 0
1.960000 0.060000 0
0.000000 0.080000 0
0.020000 0.080000 0
0.040000 0.080000 0
0.060000 0.080000 0
0.080000 0.080000 0
0.100000 0.080000 0
0.120000 0.080000 0
0.140000 0.080000 0
0.160000 0.080000 0
0.180000 0.080000 0
0.200000 0.080000 0
0.220000 0.080000 0
0.240000 0.080000 0
0.260000 0.080000 0
0.280000 0.080000 0
0.300000 0.080000 0
0.320000 0.080000 0
0.340000 0.080000 0
0.360000 0.080000 0
0.380000 0.080000 0
0.400000 0.080000 0
0.420000 0.080000 0
0.440000 0.080000 0
0.460000 0.080000 0
0.480000 0.080000 0
0.500000 0.080000 0
0.520000 0.080000 0
0.540000 0.080000 0
0.560000 0.080000 0
0.580000 0.080000 0
0.600000 0.080000 0
0.620000 0.080000 0
0.640000 0.080000 0
0.660000 0.080000 0
0.680000 0.080000 0
0.700000 0.080000 0
0.720000 0.080000 0
0.740000 0.080000 0
0.760000 0.080000 0
0.780000 0.080000 0
0.800000 0.080000 0
0.820000 0.080000 0
0.840000 0.080000 0
0.860000 0.080000 0
0.880000 0.080000 0
0.900000 0.080000 0
0.920000 0.080000 0
0.940000 0.080000 0
0.960000 0.080000 0
0.980000 0.080000 0
1.000000 0.080000 0
1.020000 0.080000 0
1.040000 0.080000 0
1.060000 0.080000 0
1.080000 0.080000 0
1.100000 0.080000 0
1.120000 0.080000 0
1.140000 0.080000 0
1.160000 0.080000 0
1.180000 0.080000 0
1.200000 0.080000 0
1.220000 0.080000 0
1.240000 0.080000 0
1.260000 0.080000 0
1.280000 0.080000 0
1.300000 0.080000 0
1.320000 0.080000 0
1.340000 0.080000 0
1.360000 0.080000 0
1.380000 0.080000 0
1.400000 0.080000 0
1.420000 0.080000 0
1.440000 0.080000 0
1.460000 0.080000 0
1.480000 0.080000 0
1.500000 0.080000 0
1.520000 0.080000 0
1.540000 0.080000 0
1.560000 0.080000 0
1.580000 0.080000 0
1.600000 0.080000 0
1.620000 0.080000 0
1.640000 0.080000 0
1.660000 0.080000 0
1.680000 0.080000 0
1.700000 0.080000 0
1.720000 0.080000 0
1.740000 0.080000 0
1.760000 0.080000 0
1.780000 0.080000 0
1.800000 0.080000 0
1.820000 0.080000 0
1.840000 0.080000 0
1.860000 0.080000 0
1.880000 0.080000 0
[...]
POINT_DATA 4851 

VECTORS velocity float
0.000000 0.000000 0
-0.000456 0.000000 0
-0.000596 0.000000 0
-0.000543 0.000000 0
-0.000452 0.000000 0
-0.000372 0.000000 0
-0.000311 0.000000 0
-0.000265 0.000000 0
-0.000229 0.000000 0
-0.000201 0.000000 0
-0.000179 0.000000 0
-0.000160 0.000000 0
-0.000144 0.000000 0
-0.000129 0.000000 0
-0.000117 0.000000 0
-0.000106 0.000000 0
-0.000095 0.000000 0
-0.000085 0.000000 0
-0.000076 0.000000 0
-0.000067 0.000000 0
-0.000059 0.000000 0
-0.000051 0.000000 0
-0.000044 0.000000 0
-0.000037 0.000000 0
-0.000030 0.000000 0
-0.000024 0.000000 0
-0.000018 0.000000 0
-0.000013 0.000000 0
-0.000009 0.000000 0
-0.000006 0.000000 0
-0.000003 0.000000 0
-0.000001 0.000000 0
0.000000 0.000000 0
0.000001 0.000000 0
0.000001 0.000000 0
0.000000 0.000000 0
0.000000 0.000000 0
0.000000 0.000000 0
0.000000 0.000000 0
0.000000 0.000000 0
0.000000 0.000000 0
-0.000071 0.000000 0
-0.000232 0.000000 0
-0.000401 0.000000 0
-0.000527 0.000000 0
-0.000595 0.000000 0
-0.000618 0.000000 0
-0.000615 0.000000 0
-0.000603 0.000000 0
-0.000592 0.000000 0
-0.000585 0.000000 0
-0.000582 0.000000 0
-0.000581 0.000000 0
-0.000583 0.000000 0
-0.000584 0.000000 0
-0.000586 0.000000 0
-0.000587 0.000000 0
-0.000587 0.000000 0
-0.000585 0.000000 0
-0.000583 0.000000 0
-0.000580 0.000000 0
-0.000577 0.000000 0
-0.000572 0.000000 0
-0.000568 0.000000 0
-0.000563 0.000000 0
-0.000559 0.000000 0
-0.000555 0.000000 0
-0.000552 0.000000 0
-0.000550 0.000000 0
-0.000548 0.000000 0
-0.000548 0.000000 0
-0.000547 0.000000 0
-0.000546 0.000000 0
-0.000545 0.000000 0
-0.000541 0.000000 0
-0.000533 0.000000 0
-0.000522 0.000000 0
-0.000504 0.000000 0
-0.000482 0.000000 0
-0.000453 0.000000 0
-0.000422 0.000000 0
-0.000388 0.000000 0
-0.000358 0.000000 0
-0.000336 0.000000 0
-0.000327 0.000000 0
-0.000337 0.000000 0
-0.000370 0.000000 0
-0.000431 0.000000 0
-0.000519 0.000000 0
-0.000634 0.000000 0
-0.000767 0.000000 0
-0.000904 0.000000 0
-0.001019 0.000000 0
-0.001080 0.000000 0
-0.001049 0.000000 0
-0.000889 0.000000 0
-0.000596 0.000000 0
-0.000236 0.000000 0
0.000000 0.000000 0
0.000000 0.000456 0
-0.000913 0.000596 0
-0.001399 0.000087 0
-0.001451 -0.000143 0
-0.001333 -0.000170 0
-0.001179 -0.000141 0
-0.001034 -0.000107 0
-0.000910 -0.000081 0
-0.000807 -0.000063 0
-0.000720 -0.000050 0
-0.000646 -0.000041 0
-0.000583 -0.000035 0
-0.000528 -0.000030 0
-0.000479 -0.000026 0
-0.000434 -0.000024 0
-0.000393 -0.000022 0
-0.000355 -0.000020 0
-0.000320 -0.000019 0
-0.000286 -0.000018 0
-0.000254 -0.000017 0
-0.000224 -0.000016 0
-0.000195 -0.000015 0
-0.000167 -0.000014 0
-0.000141 -0.000013 0
-0.000117 -0.000012 0
-0.000095 -0.000011 0
-0.000074 -0.000010 0
-0.000056 -0.000009 0
-0.000040 -0.000007 0
-0.000026 -0.000006 0
-0.000016 -0.000004 0
-0.000008 -0.000003 0
-0.000002 -0.000001 0
0.000001 -0.000000 0
0.000001 0.000001 0
0.000001 0.000001 0
0.000000 0.000001 0
0.000000 0.000000 0
0.000000 0.000000 0
0.000000 0.000000 0
0.000000 0.000070 0
-0.000245 0.000231 0
-0.000719 0.000329 0
-0.001208 0.000294 0
-0.001584 0.000193 0
-0.001810 0.000090 0
-0.001914 0.000019 0
-0.001943 -0.000015 0
-0.001940 -0.000023 0
-0.001931 -0.000019 0
-0.001924 -0.000011 0
-0.001923 -0.000005 0
-0.001926 -0.000000 0
-0.001932 0.000002 0
-0.001938 0.000002 0
-0.001943 0.000002 0
-0.001945 0.000000 0
-0.001945 -0.000002 0
-0.001942 -0.000004 0
-0.001936 -0.000006 0
-0.001927 -0.000007 0
-0.001916 -0.000009 0
-0.001903 -0.000009 0
-0.001890 -0.000010 0
-0.001877 -0.000010 0
-0.001865 -0.000009 0
-0.001855 -0.000007 0
-0.001847 -0.000006 0
-0.001841 -0.000004 0
-0.001837 -0.000003 0
-0.001834 -0.000002 0
-0.001831 -0.000001 0
-0.001826 -0.000003 0
-0.001816 -0.000006 0
-0.001799 -0.000012 0
-0.001770 -0.000020 0
-0.001727 -0.000029 0
-0.001668 -0.000040 0
-0.001593 -0.000052 0
-0.001505 -0.000061 0
-0.001408 -0.000066 0
-0.001313 -0.000064 0
-0.001231 -0.000053 0
-0.001179 -0.000032 0
-0.001172 0.000000 0
-0.001226 0.000043 0
-0.001354 0.000093 0
-0.001562 0.000148 0
-0.001848 0.000203 0
-0.002197 0.000248 0
-0.002577 0.000269 0
-0.002933 0.000251 0
-0.003193 0.000176 0
-0.003267 0.000030 0
-0.003063 -0.000191 0
-0.002514 -0.000454 0
-0.001642 -0.000654 0
-0.000642 -0.000596 0
0.000000 -0.000236 0
0.000000 0.000914 0
-0.000807 0.001400 0
-0.001546 0.000538 0
-0.001870 -0.000066 0
-0.001911 -0.000272 0
-0.001820 -0.000298 0
-0.001681 -0.000268 0
-0.001534 -0.000227 0
-0.001395 -0.000190 0
-0.001268 -0.000160 0
-0.001154 -0.000136 0
-0.001052 -0.000118 0
-0.000960 -0.000104 0
-0.000877 -0.000093 0
-0.000799 -0.000085 0
-0.000728 -0.000078 0
-0.000661 -0.000073 0
-0.000597 -0.000069 0
-0.000536 -0.000065 0
-0.000479 -0.000062 0
-0.000424 -0.000059 0
-0.000371 -0.000056 0
-0.000320 -0.000053 0
-0.000273 -0.000050 0
-0.000228 -0.000046 0
-0.000187 -0.000043 0
-0.000149 -0.000038 0
-0.000115 -0.000034 0
-0.000085 -0.000029 0
-0.000059 -0.000024 0
-0.000038 -0.000018 0
-0.000022 -0.000013 0
-0.000011 -0.000008 0
-0.000004 -0.000003 0
-0.000000 0.000000 0
0.000000 0.000002 0
0.000000 0.000001 0
0.000000 0.000000 0
0.000000 0.000000 0
0.000000 0.000000 0
0.000000 0.000244 0
-0.000378 0.000717 0
-0.001051 0.000962 0
-0.001742 0.000864 0
-0.002297 0.000601 0
-0.002668 0.000328 0
-0.002880 0.000131 0
-0.002989 0.000026 0
-0.003041 -0.000014 0
-0.003068 -0.000018 0
-0.003086 -0.000009 0
-0.003102 0.000001 0
-0.003117 0.000008 0
-0.003132 0.000011 0
-0.003144 0.000010 0
-0.003154 0.000006 0
-0.003159 0.000001 0
-0.003160 -0.000004 0
-0.003157 -0.000010 0
-0.003150 -0.000016 0
-0.003139 -0.000020 0
-0.003125 -0.000024 0
-0.003109 -0.000026 0
-0.003093 -0.000027 0
-0.003077 -0.000026 0
-0.003062 -0.000023 0
-0.003050 -0.000019 0
-0.003040 -0.000015 0
-0.003033 -0.000011 0
-0.003028 -0.000007 0
-0.003023 -0.000006 0
-0.003016 -0.000008 0
-0.003004 -0.000015 0
-0.002982 -0.000028 0
-0.002947 -0.000047 0
-0.002894 -0.000072 0
-0.002820 -0.000102 0
-0.002723 -0.000134 0
-0.002606 -0.000164 0
-0.002473 -0.000186 0
-0.002335 -0.000193 0
-0.002206 -0.000178 0
-0.002105 -0.000135 0
-0.002055 -0.000060 0
-0.002081 0.000047 0
-0.002202 0.000182 0
-0.002433 0.000335 0
-0.002775 0.000494 0
-0.003215 0.000634 0
-0.003717 0.000728 0
-0.004222 0.000735 0
-0.004644 0.000616 0
-0.004879 0.000334 0
-0.004816 -0.000130 0
-0.004353 -0.000754 0
-0.003453 -0.001422 0
-0.002189 -0.001873 0
-0.000835 -0.001642 0
0.000000 -0.000642 0
0.000000 0.001264 0
-0.000614 0.002143 0
-0.001382 0.001150 0
-0.001870 0.000222 0
-0.002075 -0.000220 0
-0.002100 -0.000370 0
-0.002029 -0.000393 0
-0.001915 -0.000368 0
-0.001786 -0.000329 0
-0.001655 -0.000291 0
-0.001529 -0.000257 0
-0.001410 -0.000228 0
-0.001299 -0.000205 0
-0.001195 -0.000187 0
-0.001097 -0.000172 0
-0.001004 -0.000160 0
-0.000916 -0.000151 0
-0.000832 -0.000143 0
-0.000751 -0.000136 0
-0.000674 -0.000129 0
-0.000599 -0.000124 0
-0.000527 -0.000118 0
-0.000459 -0.000112 0
-0.000394 -0.000105 0
-0.000332 -0.000098 0
-0.000275 -0.000091 0
-0.000222 -0.000082 0
-0.000175 -0.000073 0
-0.000132 -0.000063 0
-0.000096 -0.000052 0
-0.000065 -0.000041 0
-0.000041 -0.000030 0
-0.000023 -0.000020 0
-0.000011 -0.000011 0
-0.000004 -0.000003 0
-0.000000 0.000001 0
0.000000 0.000001 0
0.000000 0.000000 0
0.000000 0.000000 0
0.000000 0.000000 0
0.000000 0.000447 0
-0.000385 0.001280 0
-0.001082 0.001693 0
-0.001816 0.001539 0
-0.002437 0.001118 0
-0.002890 0.000673 0
-0.003192 0.000340 0
-0.003383 0.000145 0
-0.003502 0.000055 0
-0.003579 0.000026 0
-0.003632 0.000022 0
-0.003672 0.000026 0
-0.003704 0.000029 0
-0.003730 0.000029 0
-0.003752 0.000024 0
-0.003768 0.000016 0
-0.003780 0.000006 0
-0.003786 -0.000004 0
-0.003788 -0.000015 0
-0.003786 -0.000024 0
-0.003779 -0.000032 0
-0.003770 -0.000038 0
-0.003759 -0.000042 0
-0.003748 -0.000042 0
-0.003736 -0.000040 0
-0.003726 -0.000036 0
-0.003718 -0.000030 0
-0.003712 -0.000023 0
-0.003707 -0.000017 0
-0.003703 -0.000013 0
-0.003697 -0.000014 0
-0.003687 -0.000021 0
-0.003669 -0.000037 0
-0.003639 -0.000063 0
-0.003593 -0.000100 0
-0.003526 -0.000147 0
-0.003437 -0.000200 0
-0.003326 -0.000254 0
-0.003195 -0.000302 0
-0.003053 -0.000332 0
-0.002911 -0.000334 0
-0.002787 -0.000294 0
-0.002704 -0.000204 0
-0.002684 -0.000056 0
-0.002752 0.000147 0
-0.002926 0.000394 0
-0.003215 0.000666 0
-0.003614 0.000930 0
-0.004096 0.001145 0
-0.004612 0.001254 0
-0.005089 0.001196 0
-0.005434 0.000909 0
-0.005544 0.000349 0
-0.005314 -0.000496 0
-0.004670 -0.001555 0
-0.003611 -0.002618 0
-0.002237 -0.003271 0
-0.000831 -0.002786 0
0.000000 -0.001072 0
0.000000 0.001529 0
-0.000471 0.002782 0
-0.001186 0.001794 0
-0.001736 0.000628 0
-0.002047 -0.000042 0
-0.002173 -0.000344 0
-0.002180 -0.000452 0
-0.002118 -0.000470 0
-0.002022 -0.000450 0
-0.001908 -0.000416 0
-0.001789 -0.000381 0
-0.001670 -0.000348 0
-0.001553 -0.000319 0
-0.001440 -0.000295 0
-0.001331 -0.000275 0
-0.001226 -0.000259 0
-0.001125 -0.000245 0
-0.001027 -0.000233 0
-0.000932 -0.000223 0
-0.000841 -0.000214 0
-0.000752 -0.000205 0
-0.000666 -0.000196 0
-0.000583 -0.000187 0
-0.000505 -0.000176 0
-0.000430 -0.000165 0
-0.000359 -0.000153 0
-0.000294 -0.000139 0
-0.000234 -0.000124 0
-0.000181 -0.000107 0
-0.000134 -0.000090 0
-0.000095 -0.000073 0
-0.000063 -0.000055 0
-0.000038 -0.000038 0
-0.000019 -0.000023 0
-0.000008 -0.000010 0
-0.000002 -0.000002 0
0.000000 0.000001 0
0.000000 0.000000 0
0.000000 0.000000 0
0.000000 0.000000 0
0.000000 0.000628 0
-0.000311 0.001797 0
-0.000917 0.002392 0
-0.001595 0.002218 0
-0.002209 0.001675 0
-0.002700 0.001084 0
-0.003062 0.000623 0
-0.003317 0.000335 0
-0.003493 0.000182 0
-0.003614 0.000113 0
-0.003701 0.000084 0
-0.003765 0.000073 0
-0.003814 0.000066 0
-0.003853 0.000058 0
-0.003885 0.000047 0
-0.003911 0.000034 0
-0.003932 0.000019 0
-0.003949 0.000004 0
-0.003961 -0.000011 0
-0.003969 -0.000025 0
-0.003974 -0.000036 0
-0.003977 -0.000044 0
-0.003977 -0.000049 0
-0.003977 -0.000050 0
-0.003976 -0.000047 0
-0.003975 -0.000042 0
-0.003976 -0.000034 0
-0.003977 -0.000026 0
-0.003978 -0.000019 0
-0.003978 -0.000017 0
-0.003975 -0.000022 0
-0.003965 -0.000036 0
-0.003946 -0.000064 0
-0.003914 -0.000105 0
-0.003866 -0.000160 0
-0.003798 -0.000228 0
-0.003710 -0.000303 0
-0.003603 -0.000377 0
-0.003482 -0.000437 0
-0.003355 -0.000470 0
-0.003236 -0.000458 0
-0.003141 -0.000386 0
-0.003091 -0.000239 0
-0.003108 -0.000012 0
-0.003211 0.000289 0
-0.003413 0.000645 0
-0.003716 0.001023 0
-0.004107 0.001374 0
-0.004553 0.001632 0
-0.005000 0.001721 0
-0.005375 0.001558 0
-0.005593 0.001070 0
-0.005564 0.000213 0
-0.005208 -0.001004 0
-0.004486 -0.002456 0
-0.003412 -0.003855 0
-0.002084 -0.004653 0
-0.000761 -0.003880 0
0.000000 -0.001473 0
0.000000 0.001735 0
-0.000374 0.003329 0
-0.001020 0.002416 0
-0.001577 0.001084 0
-0.001944 0.000217 0
-0.002141 -0.000238 0
-0.002213 -0.000447 0
-0.002204 -0.000526 0
-0.002146 -0.000539 0
-0.002060 -0.000523 0
-0.001958 -0.000495 0
-0.001848 -0.000464 0
-0.001735 -0.000435 0
-0.001622 -0.000409 0
-0.001510 -0.000386 0
-0.001401 -0.000366 0
-0.001293 -0.000349 0
-0.001187 -0.000335 0
-0.001084 -0.000322 0
-0.000983 -0.000310 0
-0.000884 -0.000298 0
-0.000788 -0.000286 0
-0.000695 -0.000273 0
-0.000606 -0.000259 0
-0.000520 -0.000244 0
-0.000439 -0.000226 0
-0.000363 -0.000207 0
-0.000293 -0.000185 0
-0.000230 -0.000162 0
-0.000174 -0.000138 0
-0.000125 -0.000113 0
-0.000085 -0.000087 0
-0.000053 -0.000063 0
-0.000029 -0.000040 0
-0.000012 -0.000021 0
-0.000003 -0.000007 0
0.000000 -0.000000 0
0.000000 0.000000 0
0.000000 0.000000 0
0.000000 0.000000 0
0.000000 0.000758 0
-0.000200 0.002196 0
-0.000648 0.002976 0
-0.001205 0.002832 0
-0.001762 0.002223 0
-0.002250 0.001525 0
-0.002641 0.000956 0
-0.002937 0.000575 0
-0.003151 0.000353 0
-0.003304 0.000234 0
-0.003415 0.000172 0
-0.003497 0.000139 0
-0.003559 0.000117 0
-0.003610 0.000100 0
-0.003652 0.000082 0
-0.003689 0.000063 0
-0.003722 0.000044 0
-0.003752 0.000025 0
-0.003779 0.000006 0
-0.003804 -0.000011 0
-0.003826 -0.000025 0
-0.003846 -0.000035 0
-0.003864 -0.000042 0
-0.003880 -0.000044 0
-0.003895 -0.000042 0
-0.003909 -0.000036 0
-0.003922 -0.000028 0
-0.003934 -0.000021 0
-0.003945 -0.000016 0
-0.003952 -0.000017 0
-0.003955 -0.000027 0
-0.003950 -0.000050 0
-0.003936 -0.000088 0
-0.003909 -0.000144 0
-0.003868 -0.000217 0
-0.003811 -0.000303 0
-0.003737 -0.000395 0
-0.003650 -0.000483 0
-0.003555 -0.000550 0
-0.003459 -0.000578 0
-0.003377 -0.000548 0
-0.003321 -0.000439 0
-0.003310 -0.000237 0
-0.003360 0.000064 0
-0.003483 0.000452 0
-0.003687 0.000899 0
-0.003968 0.001360 0
-0.004308 0.001767 0
-0.004672 0.002037 0
-0.005009 0.002076 0
-0.005255 0.001789 0
-0.005340 0.001098 0
-0.005198 -0.000036 0
-0.004775 -0.001574 0
-0.004056 -0.003351 0
-0.003059 -0.005020 0
-0.001860 -0.005922 0
-0.000677 -0.004871 0
0.000000 -0.001833 0
0.000000 0.001903 0
-0.000309 0.003803 0
-0.000890 0.002997 0
-0.001430 0.001552 0
-0.001820 0.000521 0
-0.002060 -0.000076 0
-0.002181 -0.000389 0
-0.002217 -0.000537 0
-0.002196 -0.000594 0
-0.002138 -0.000605 0
-0.002057 -0.000593 0
-0.001963 -0.000570 0
-0.001860 -0.000545 0
-0.001753 -0.000520 0
-0.001644 -0.000497 0
-0.001535 -0.000476 0
-0.001426 -0.000458 0
-0.001317 -0.000442 0
-0.001210 -0.000427 0
-0.001104 -0.000413 0
-0.000999 -0.000399 0
-0.000897 -0.000385 0
-0.000797 -0.000369 0
-0.000699 -0.000351 0
-0.000605 -0.000332 0
-0.000515 -0.000309 0
-0.000430 -0.000285 0
-0.000351 -0.000257 0
-0.000278 -0.000227 0
-0.000213 -0.000195 0
-0.000156 -0.000161 0
-0.000108 -0.000127 0
-0.000069 -0.000094 0
-0.000038 -0.000063 0
-0.000017 -0.000036 0
-0.000004 -0.000014 0
0.000000 -0.000002 0
0.000000 0.000000 0
0.000000 0.000000 0
0.000000 0.000000 0
0.000000 0.000827 0
-0.000083 0.002445 0
-0.000344 0.003397 0
-0.000740 0.003332 0
-0.001197 0.002720 0
-0.001645 0.001963 0
-0.002036 0.001310 0
-0.002348 0.000844 0
-0.002583 0.000550 0
-0.002754 0.000377 0
-0.002879 0.000277 0
-0.002970 0.000217 0
-0.003039 0.000179 0
-0.003096 0.000150 0
-0.003145 0.000126 0
-0.003190 0.000104 0
-0.003234 0.000082 0
-0.003278 0.000061 0
-0.003323 0.000041 0
-0.003368 0.000022 0
-0.003413 0.000006 0
-0.003457 -0.000006 0
-0.003498 -0.000015 0
-0.003537 -0.000019 0
-0.003573 -0.000019 0
-0.003606 -0.000015 0
-0.003637 -0.000009 0
-0.003664 -0.000004 0
-0.003687 -0.000002 0
-0.003706 -0.000007 0
-0.003718 -0.000024 0
-0.003724 -0.000055 0
-0.003720 -0.000104 0
-0.003706 -0.000173 0
-0.003680 -0.000259 0
-0.003642 -0.000359 0
-0.003593 -0.000464 0
-0.003536 -0.000559 0
-0.003476 -0.000628 0
-0.003421 -0.000648 0
-0.003381 -0.000596 0
-0.003367 -0.000452 0
-0.003392 -0.000201 0
-0.003466 0.000161 0
-0.003595 0.000616 0
-0.003780 0.001130 0
-0.004015 0.001644 0
-0.004279 0.002077 0
-0.004540 0.002333 0
-0.004754 0.002304 0
-0.004871 0.001889 0
-0.004840 0.001013 0
-0.004617 -0.000353 0
-0.004176 -0.002145 0
-0.003515 -0.004173 0
-0.002643 -0.006051 0
-0.001612 -0.007035 0
-0.000592 -0.005740 0
0.000000 -0.002150 0
0.000000 0.002045 0
-0.000263 0.004220 0
-0.000789 0.003537 0
-0.001303 0.002014 0
-0.001698 0.000847 0
-0.001962 0.000123 0
-0.002116 -0.000290 0
-0.002187 -0.000510 0
-0.002197 -0.000618 0
-0.002166 -0.000661 0
-0.002108 -0.000670 0
-0.002030 -0.000662 0
-0.001940 -0.000644 0
-0.001843 -0.000624 0
-0.001741 -0.000604 0
-0.001636 -0.000585 0
-0.001529 -0.000567 0
-0.001422 -0.000550 0
-0.001314 -0.000535 0
-0.001207 -0.000520 0
-0.001100 -0.000505 0
-0.000994 -0.000489 0
-0.000889 -0.000471 0
-0.000786 -0.000451 0
-0.000685 -0.000427 0
-0.000588 -0.000401 0
-0.000496 -0.000371 0
-0.000408 -0.000337 0
-0.000327 -0.000300 0
-0.000253 -0.000260 0
-0.000188 -0.000218 0
-0.000131 -0.000175 0
-0.000085 -0.000132 0
-0.000048 -0.000091 0
-0.000022 -0.000055 0
-0.000006 -0.000023 0
0.000000 -0.000005 0
0.000000 0.000000 0
0.000000 0.000000 0
0.000000 0.000000 0
0.000000 0.000840 0
0.000020 0.002540 0
-0.000055 0.003633 0
-0.000267 0.003684 0
-0.000590 0.003128 0
-0.000963 0.002364 0
-0.001323 0.001659 0
-0.001630 0.001123 0
-0.001870 0.000759 0
-0.002047 0.000529 0
-0.002174 0.000387 0
-0.002266 0.000300 0
-0.002334 0.000243 0
-0.002389 0.000205 0
-0.002437 0.000176 0
-0.002485 0.000153 0
-0.002537 0.000132 0
-0.002594 0.000114 0
-0.002657 0.000096 0
-0.002725 0.000079 0
-0.002797 0.000063 0
-0.002870 0.000050 0
-0.002942 0.000039 0
-0.003010 0.000031 0
-0.003074 0.000028 0
-0.003132 0.000027 0
-0.003185 0.000029 0
-0.003231 0.000029 0
-0.003271 0.000026 0
-0.003305 0.000015 0
-0.003332 -0.000009 0
-0.003352 -0.000048 0
-0.003364 -0.000106 0
-0.003367 -0.000185 0
-0.003362 -0.000281 0
-0.003349 -0.000390 0
-0.003331 -0.000501 0
-0.003310 -0.000599 0
-0.003290 -0.000665 0
-0.003279 -0.000674 0
-0.003282 -0.000602 0
-0.003307 -0.000428 0
-0.003362 -0.000138 0
-0.003450 0.000266 0
-0.003573 0.000766 0
-0.003728 0.001319 0
-0.003904 0.001858 0
-0.004083 0.002291 0
-0.004237 0.002512 0
-0.004332 0.002407 0
-0.004333 0.001875 0
-0.004208 0.000844 0
-0.003936 -0.000700 0
-0.003510 -0.002676 0
-0.002935 -0.004885 0
-0.002210 -0.006922 0
-0.001360 -0.007974 0
-0.000507 -0.006483 0
0.000000 -0.002425 0
0.000000 0.002167 0
-0.000230 0.004592 0
-0.000708 0.004037 0
-0.001195 0.002462 0
-0.001585 0.001180 0
-0.001861 0.000343 0
-0.002037 -0.000164 0
-0.002133 -0.000455 0
-0.002169 -0.000614 0
-0.002161 -0.000695 0
-0.002123 -0.000729 0
-0.002063 -0.000737 0
-0.001987 -0.000732 0
-0.001901 -0.000719 0
-0.001808 -0.000704 0
-0.001710 -0.000688 0
-0.001609 -0.000672 0
-0.001506 -0.000657 0
-0.001401 -0.000642 0
-0.001295 -0.000627 0
-0.001188 -0.000612 0
-0.001081 -0.000595 0
-0.000974 -0.000576 0
-0.000868 -0.000555 0
-0.000763 -0.000529 0
-0.000660 -0.000499 0
-0.000561 -0.000465 0
-0.000466 -0.000425 0
-0.000376 -0.000382 0
-0.000294 -0.000334 0
-0.000220 -0.000283 0
-0.000155 -0.000230 0
-0.000101 -0.000177 0
-0.000058 -0.000126 0
-0.000026 -0.000078 0
-0.000007 -0.000035 0
0.000000 -0.000008 0
0.000000 0.000000 0
0.000000 0.000000 0
0.000000 0.000000 0
0.000000 0.000807 0
0.000099 0.002499 0
0.000188 0.003684 0
0.000161 0.003867 0
-0.000005 0.003416 0
-0.000270 0.002696 0
-0.000569 0.001977 0
-0.000848 0.001391 0
-0.001076 0.000967 0
-0.001248 0.000681 0
-0.001370 0.000496 0
-0.001454 0.000377 0
-0.001512 0.000302 0
-0.001555 0.000253 0
-0.001593 0.000223 0
-0.001635 0.000203 0
-0.001685 0.000190 0
-0.001749 0.000181 0
-0.001828 0.000172 0
-0.001920 0.000163 0
-0.002023 0.000151 0
-0.002133 0.000139 0
-0.002243 0.000126 0
-0.002349 0.000113 0
-0.002449 0.000103 0
-0.002539 0.000096 0
-0.002620 0.000089 0
-0.002690 0.000083 0
-0.002751 0.000072 0
-0.002804 0.000054 0
-0.002849 0.000023 0
-0.002887 -0.000024 0
-0.002918 -0.000089 0
-0.002942 -0.000175 0
-0.002962 -0.000277 0
-0.002978 -0.000390 0
-0.002993 -0.000504 0
-0.003009 -0.000600 0
-0.003030 -0.000659 0
-0.003060 -0.000657 0
-0.003103 -0.000568 0
-0.003163 -0.000372 0
-0.003241 -0.000058 0
-0.003336 0.000372 0
-0.003447 0.000894 0
-0.003565 0.001461 0
-0.003681 0.001998 0
-0.003775 0.002409 0
-0.003829 0.002581 0
-0.003818 0.002400 0
-0.003722 0.001766 0
-0.003528 0.000616 0
-0.003231 -0.001050 0
-0.002841 -0.003146 0
-0.002363 -0.005473 0
-0.001787 -0.007627 0
-0.001114 -0.008738 0
-0.000424 -0.007100 0
0.000000 -0.002658 0
0.000000 0.002275 0
-0.000204 0.004928 0
-0.000643 0.004503 0
-0.001104 0.002891 0
-0.001484 0.001513 0
-0.001764 0.000574 0
-0.001953 -0.000018 0
-0.002067 -0.000378 0
-0.002123 -0.000589 0
-0.002135 -0.000707 0
-0.002114 -0.000769 0
-0.002070 -0.000797 0
-0.002009 -0.000805 0
-0.001935 -0.000803 0
-0.001853 -0.000795 0
-0.001764 -0.000784 0
-0.001670 -0.000771 0
-0.001573 -0.000759 0
-0.001473 -0.000746 0
-0.001371 -0.000733 0
-0.001266 -0.000718 0
-0.001161 -0.000702 0
-0.001054 -0.000684 0
-0.000946 -0.000661 0
-0.000838 -0.000635 0
-0.000731 -0.000603 0
-0.000626 -0.000565 0
-0.000524 -0.000521 0
-0.000427 -0.000471 0
-0.000336 -0.000416 0
-0.000254 -0.000356 0
-0.000180 -0.000294 0
-0.000118 -0.000230 0
-0.000068 -0.000166 0
-0.000031 -0.000105 0
-0.000008 -0.000049 0
0.000000 -0.000011 0
0.000000 0.000000 0