# vtk DataFile Version 2.0
generated by CFD-lab course output (written by Tobias Neckel) 
ASCII

DATASET STRUCTURED_GRID
DIMENSIONS  99 49 1 
POINTS 4851 float

0.000000 0.000000 0
0.020000 0.000000 0
0.040000 0.000000 0
0.060000 0.000000 0
0.080000 0.000000 0
0.100000 0.000000 0
0.120000 0.000000 0
0.140000 0.000000 0
0.160000 0.000000 0
0.180000 0.000000 0
0.200000 0.000000 0
0.220000 0.000000 0
0.240000 0.000000 0
0.260000 0.000000 0
0.280000 0.000000 0
0.300000 0.000000 0
0.320000 0.000000 0
0.340000 0.000000 0
0.360000 0.000000 0
0.380000 0.000000 0
0.400000 0.000000 0
0.420000 0.000000 0
0.440000 0.000000 0
0.460000 0.000000 0
0.480000 0.000000 0
0.500000 0.000000 0
0.520000 0.000000 0
0.540000 0.000000 0
0.560000 0.000000 0
0.580000 0.000000 0
0.600000 0.000000 0
0.620000 0.000000 0
0.640000 0.000000 0
0.660000 0.000000 0
0.680000 0.000000 0
0.700000 0.000000 0
0.720000 0.000000 0
0.740000 0.000000 0
0.760000 0.000000 0
0.780000 0.000000 0
0.800000 0.000000 0
0.820000 0.000000 0
0.840000 0.000000 0
0.860000 0.000000 0
0.880000 0.000000 0
0.900000 0.000000 0
0.920000 0.000000 0
0.940000 0.000000 0
0.960000 0.000000 0
0.980000 0.000000 0
1.000000 0.000000 0
1.020000 0.000000 0
1.040000 0.000000 0
1.060000 0.000000 0
1.080000 0.000000 0
1.100000 0.000000 0
1.120000 0.000000 0
1.140000 0.000000 0
1.160000 0.000000 0
1.180000 0.000000 0
1.200000 0.000000 0
1.220000 0.000000 0
1.240000 0.000000 0
1.260000 0.000000 0
1.280000 0.000000 0
1.300000 0.000000 0
1.320000 0.000000 0
1.340000 0.000000 0
1.360000 0.000000 0
1.380000 0.000000 0
1.400000 0.000000 0
1.420000 0.000000 0
1.440000 0.000000 0
1.460000 0.000000 0
1.480000 0.000000 0
1.500000 0.000000 0
1.520000 0.000000 0
1.540000 0.000000 0
1.560000 0.000000 0
1.580000 0.000000 0
1.600000 0.000000 0
1.620000 0.000000 0
1.640000 0.000000 0
1.660000 0.000000 0
1.680000 0.000000 0
1.700000 0.000000 0
1.720000 0.000000 0
1.740000 0.000000 0
1.760000 0.000000 0
1.780000 0.000000 0
1.800000 0.000000 0
1.820000 0.000000 0
1.840000 0.000000 0
1.860000 0.000000 0
1.880000 0.000000 0
1.900000 0.000000 0
1.920000 0.000000 0
1.940000 0.000000 0
1.960000 0.000000 0
0.000000 0.020000 0
0.020000 0.020000 0
0.040000 0.020000 0
0.060000 0.020000 0
0.080000 0.020000 0
0.100000 0.020000 0
0.120000 0.020000 0
0.140000 0.020000 0
0.160000 0.020000 0
0.180000 0.020000 0
0.200000 0.020000 0
0.220000 0.020000 0
0.240000 0.020000 0
0.260000 0.020000 0
0.280000 0.020000 0
0.300000 0.020000 0
0.320000 0.020000 0
0.340000 0.020000 0
0.360000 0.020000 0
0.380000 0.020000 0
0.400000 0.020000 0
0.420000 0.020000 0
0.440000 0.020000 0
0.460000 0.020000 0
0.480000 0.020000 0
0.500000 0.020000 0
0.520000 0.020000 0
0.540000 0.020000 0
0.560000 0.020000 0
0.580000 0.020000 0
0.600000 0.020000 0
0.620000 0.020000 0
0.640000 0.020000 0
0.660000 0.020000 0
0.680000 0.020000 0
0.700000 0.020000 0
0.720000 0.020000 0
0.740000 0.020000 0
0.760000 0.020000 0
0.780000 0.020000 0
0.800000 0.020000 0
0.820000 0.020000 0
0.840000 0.020000 0
0.860000 0.020000 0
0.880000 0.020000 0
0.900000 0.020000 0
0.920000 0.020000 0
0.940000 0.020000 0
0.960000 0.020000 0
0.980000 0.020000 0
1.000000 0.020000 0
1.020000 0.020000 0
1.040000 0.020000 0
1.060000 0.020000 0
1.080000 0.020000 0
1.100000 0.020000 0
1.120000 0.020000 0
1.140000 0.020000 0
1.160000 0.020000 0
1.180000 0.020000 0
1.200000 0.020000 0
1.220000 0.020000 0
1.240000 0.020000 0
1.260000 0.020000 0
1.280000 0.020000 0
1.300000 0.020000 0
1.320000 0.020000 0
1.340000 0.020000 0
1.360000 0.020000 0
1.380000 0.020000 0
1.400000 0.020000 0
1.420000 0.020000 0
1.440000 0.020000 0
1.460000 0.020000 0
1.480000 0.020000 0
1.500000 0.020000 0
1.520000 0.020000 0
1.540000 0.020000 0
1.560000 0.020000 0
1.580000 0.020000 0
1.600000 0.020000 0
1.620000 0.020000 0
1.640000 0.020000 0
1.660000 0.020000 0
1.680000 0.020000 0
1.700000 0.020000 0
1.720000 0.020000 0
1.740000 0.020000 0
1.760000 0.020000 0
1.780000 0.020000 0
1.800000 0.020000 0
1.820000 0.020000 0
1.840000 0.020000 0
1.860000 0.020000 0
1.880000 0.020000 0
1.900000 0.020000 0
1.920000 0.020000 0
1.940000 0.020000 0
1.960000 0.020000 0
0.000000 0.040000 0
0.020000 0.040000 0
0.040000 0.040000 0
0.060000 0.040000 0
0.080000 0.040000 0
0.100000 0.040000 0
0.120000 0.040000 0
0.140000 0.040000 0
0.160000 0.040000 0
0.180000 0.040000 0
0.200000 0.040000 0
0.220000 0.040000 0
0.240000 0.040000 0
0.260000 0.040000 0
0.280000 0.040000 0
0.300000 0.040000 0
0.320000 0.040000 0
0.340000 0.040000 0
0.360000 0.040000 0
0.380000 0.040000 0
0.400000 0.040000 0
0.420000 0.040000 0
0.440000 0.040000 0
0.460000 0.040000 0
0.480000 0.040000 0
0.500000 0.040000 0
0.520000 0.040000 0
0.540000 0.040000 0
0.560000 0.040000 0
0.580000 0.040000 0
0.600000 0.040000 0
0.620000 0.040000 0
0.640000 0.040000 0
0.660000 0.040000 0
0.680000 0.040000 0
0.700000 0.040000 0
0.720000 0.040000 0
0.740000 0.040000 0
0.760000 0.040000 0
0.780000 0.040000 0
0.800000 0.040000 0
0.820000 0.040000 0
0.840000 0.040000 0
0.860000 0.040000 0
0.880000 0.040000 0
0.900000 0.040000 0
0.920000 0.040000 0
0.940000 0.040000 0
0.960000 0.040000 0
0.980000 0.040000 0
1.000000 0.040000 0
1.020000 0.040000 0
1.040000 0.040000 0
1.060000 0.040000 0
1.080000 0.040000 0
1.100000 0.040000 0
1.120000 0.040000 0
1.140000 0.040000 0
1.160000 0.040000 0
1.180000 0.040000 0
1.200000 0.040000 0
1.220000 0.040000 0
1.240000 0.040000 0
1.260000 0.040000 0
1.280000 0.040000 0
1.300000 0.040000 0
1.320000 0.040000 0
1.340000 0.040000 0
1.360000 0.040000 0
1.380000 0.040000 0
1.400000 0.040000 0
1.420000 0.040000 0
1.440000 0.040000 0
1.460000 0.040000 0
1.480000 0.040000 0
1.500000 0.040000 0
1.520000 0.040000 0
1.540000 0.040000 0
1.560000 0.040000 0
1.580000 0.040000 0
1.600000 0.040000 0
1.620000 0.040000 0
1.640000 0.040000 0
1.660000 0.040000 0
1.680000 0.040000 0
1.700000 0.040000 0
1.720000 0.040000 0
1.740000 0.040000 0
1.760000 0.040000 0
1.780000 0.040000 0
1.800000 0.040000 0
1.820000 0.040000 0
1.840000 0.040000 0
1.860000 0.040000 0
1.880000 0.040000 0
1.900000 0.040000 0
1.920000 0.040000 0
1.940000 0.040000 0
1.960000 0.040000 0
0.000000 0.060000 0
0.020000 0.060000 0
0.040000 0.060000 0
0.060000 0.060000 0
0.080000 0.060000 0
0.100000 0.060000 0
0.120000 0.060000 0
0.140000 0.060000 0
0.160000 0.060000 0
0.180000 0.060000 0
0.200000 0.060000 0
0.220000 0.060000 0
0.240000 0.060000 0
0.260000 0.060000 0
0.280000 0.060000 0
0.300000 0.060000 0
0.320000 0.060000 0
0.340000 0.060000 0
0.360000 0.060000 0
0.380000 0.060000 0
0.400000 0.060000 0
0.420000 0.060000 0
0.440000 0.060000 0
0.460000 0.060000 0
0.480000 0.060000 0
0.500000 0.060000 0
0.520000 0.060000 0
0.540000 0.060000 0
0.560000 0.060000 0
0.580000 0.060000 0
0.600000 0.060000 0
0.620000 0.060000 0
0.640000 0.060000 0
0.660000 0.060000 0
0.680000 0.060000 0
0.700000 0.060000 0
0.720000 0.060000 0
0.740000 0.060000 0
0.760000 0.060000 0
0.780000 0.060000 0
0.800000 0.060000 0
0.820000 0.060000 0
0.840000 0.060000 0
0.860000 0.060000 0
0.880000 0.060000 0
0.900000 0.060000 0
0.920000 0.060000 0
0.940000 0.060000 0
0.960000 0.060000 0
0.980000 0.060000 0
1.000000 0.060000 0
1.020000 0.060000 0
1.040000 0.060000 0
1.060000 0.060000 0
1.080000 0.060000 0
1.100000 0.060000 0
1.120000 0.060000 0
1.140000 0.060000 0
1.160000 0.060000 0
1.180000 0.060000 0
1.200000 0.060000 0
1.220000 0.060000 0
1.240000 0.060000 0
1.260000 0.060000 0
1.280000 0.060000 0
1.300000 0.060000 0
1.320000 0.060000 0
1.340000 0.060000 0
1.360000 0.060000 0
1.380000 0.060000 0
1.400000 0.060000 0
1.420000 0.060000 0
1.440000 0.060000 0
1.460000 0.060000 0
1.480000 0.060000 0
1.500000 0.060000 0
1.520000 0.060000 0
1.540000 0.060000 0
1.560000 0.060000 0
1.580000 0.060000 0
1.600000 0.060000 0
1.620000 0.060000 0
1.640000 0.060000 0
1.660000 0.060000 0
1.680000 0.060000 0
1.700000 0.060000 0
1.720000 0.060000 0
1.740000 0.060000 0
1.760000 0.060000 0
1.780000 0.060000 0
1.800000 0.060000 0
1.820000 0.060000 0
1.840000 0.060000 0
1.860000 0.060000 0
1.880000 0.060000 0
1.900000 0.060000 0
1.920000 0.060000 0
1.940000 0.060000 0
1.960000 0.060000 0
0.000000 0.080000 0
0.020000 0.080000 0
0.040000 0.080000 0
0.060000 0.080000 0
0.080000 0.080000 0
0.100000 0.080000 0
0.120000 0.080000 0
0.140000 0.080000 0
0.160000 0.080000 0
0.180000 0.080000 0
0.200000 0.080000 0
0.220000 0.080000 0
0.240000 0.080000 0
0.260000 0.080000 0
0.280000 0.080000 0
0.300000 0.080000 0
0.320000 0.080000 0
0.340000 0.080000 0
0.360000 0.080000 0
0.380000 0.080000 0
0.400000 0.080000 0
0.420000 0.080000 0
0.440000 0.080000 0
0.460000 0.080000 0
0.480000 0.080000 0
0.500000 0.080000 0
0.520000 0.080000 0
0.540000 0.080000 0
0.560000 0.080000 0
0.580000 0.080000 0
0.600000 0.080000 0
0.620000 0.080000 0
0.640000 0.080000 0
0.660000 0.080000 0
0.680000 0.080000 0
0.700000 0.080000 0
0.720000 0.080000 0
0.740000 0.080000 0
0.760000 0.080000 0
0.780000 0.080000 0
0.800000 0.080000 0
0.820000 0.080000 0
0.840000 0.080000 0
0.860000 0.080000 0
0.880000 0.080000 0
0.900000 0.080000 0
0.920000 0.080000 0
0.940000 0.080000 0
0.960000 0.080000 0
0.980000 0.080000 0
1.000000 0.080000 0
1.020000 0.080000 0
1.040000 0.080000 0
1.060000 0.080000 0
1.080000 0.080000 0
1.100000 0.080000 0
1.120000 0.080000 0
1.140000 0.080000 0
1.160000 0.080000 0
1.180000 0.080000 0
1.200000 0.080000 0
1.220000 0.080000 0
1.240000 0.080000 0
1.260000 0.080000 0
1.280000 0.080000 0
1.300000 0.080000 0
1.320000 0.080000 0
1.340000 0.080000 0
1.360000 0.080000 0
1.380000 0.080000 0
1.400000 0.080000 0
1.420000 0.080000 0
1.440000 0.080000 0
1.460000 0.080000 0
1.480000 0.080000 0
1.500000 0.080000 0
1.520000 0.080000 0
1.540000 0.080000 0
1.560000 0.080000 0
1.580000 0.080000 0
1.600000 0.080000 0
1.620000 0.080000 0
1.640000 0.080000 0
1.660000 0.080000 0
1.680000 0.080000 0
1.700000 0.080000 0
1.720000 0.080000 0
1.740000 0.080000 0
1.760000 0.080000 0
1.780000 0.080000 0
1.800000 0.080000 0
1.820000 0.080000 0
1.840000 0.080000 0
1.860000 0.080000 0
1.880000 0.080000 0
[...]
POINT_DATA 4851 

VECTORS velocity float
0.000000 0.000000 0
-0.000446 0.000000 0
-0.000585 0.000000 0
-0.000534 0.000000 0
-0.000446 0.000000 0
-0.000370 0.000000 0
-0.000312 0.000000 0
-0.000271 0.000000 0
-0.000239 0.000000 0
-0.000215 0.000000 0
-0.000196 0.000000 0
-0.000180 0.000000 0
-0.000166 0.000000 0
-0.000154 0.000000 0
-0.000144 0.000000 0
-0.000134 0.000000 0
-0.000125 0.000000 0
-0.000117 0.000000 0
-0.000109 0.000000 0
-0.000102 0.000000 0
-0.000095 0.000000 0
-0.000088 0.000000 0
-0.000082 0.000000 0
-0.000076 0.000000 0
-0.000070 0.000000 0
-0.000065 0.000000 0
-0.000060 0.000000 0
-0.000055 0.000000 0
-0.000050 0.000000 0
-0.000044 0.000000 0
-0.000039 0.000000 0
-0.000032 0.000000 0
-0.000025 0.000000 0
-0.000017 0.000000 0
-0.000008 0.000000 0
-0.000002 0.000000 0
0.000000 0.000000 0
0.000000 0.000000 0
0.000000 0.000000 0
0.000000 0.000000 0
0.000000 0.000000 0
-0.000030 0.000000 0
-0.000087 0.000000 0
-0.000142 0.000000 0
-0.000183 0.000000 0
-0.000209 0.000000 0
-0.000225 0.000000 0
-0.000234 0.000000 0
-0.000240 0.000000 0
-0.000244 0.000000 0
-0.000247 0.000000 0
-0.000250 0.000000 0
-0.000253 0.000000 0
-0.000255 0.000000 0
-0.000257 0.000000 0
-0.000259 0.000000 0
-0.000261 0.000000 0
-0.000262 0.000000 0
-0.000264 0.000000 0
-0.000265 0.000000 0
-0.000267 0.000000 0
-0.000268 0.000000 0
-0.000269 0.000000 0
-0.000270 0.000000 0
-0.000271 0.000000 0
-0.000272 0.000000 0
-0.000273 0.000000 0
-0.000274 0.000000 0
-0.000275 0.000000 0
-0.000275 0.000000 0
-0.000276 0.000000 0
-0.000277 0.000000 0
-0.000277 0.000000 0
-0.000278 0.000000 0
-0.000279 0.000000 0
-0.000280 0.000000 0
-0.000281 0.000000 0
-0.000282 0.000000 0
-0.000283 0.000000 0
-0.000283 0.000000 0
-0.000283 0.000000 0
-0.000283 0.000000 0
-0.000281 0.000000 0
-0.000278 0.000000 0
-0.000275 0.000000 0
-0.000271 0.000000 0
-0.000270 0.000000 0
-0.000272 0.000000 0
-0.000281 0.000000 0
-0.000299 0.000000 0
-0.000327 0.000000 0
-0.000361 0.000000 0
-0.000397 0.000000 0
-0.000423 0.000000 0
-0.000421 0.000000 0
-0.000372 0.000000 0
-0.000262 0.000000 0
-0.000110 0.000000 0
0.000000 0.000000 0
0.000000 0.000447 0
-0.000890 0.000586 0
-0.001365 0.000088 0
-0.001416 -0.000139 0
-0.001301 -0.000164 0
-0.001155 -0.000132 0
-0.001022 -0.000098 0
-0.000911 -0.000072 0
-0.000821 -0.000055 0
-0.000747 -0.000043 0
-0.000685 -0.000035 0
-0.000632 -0.000029 0
-0.000586 -0.000025 0
-0.000546 -0.000022 0
-0.000509 -0.000020 0
-0.000476 -0.000018 0
-0.000445 -0.000017 0
-0.000416 -0.000015 0
-0.000389 -0.000014 0
-0.000363 -0.000014 0
-0.000339 -0.000013 0
-0.000315 -0.000012 0
-0.000293 -0.000012 0
-0.000271 -0.000011 0
-0.000251 -0.000010 0
-0.000231 -0.000010 0
-0.000212 -0.000010 0
-0.000194 -0.000009 0
-0.000175 -0.000009 0
-0.000156 -0.000010 0
-0.000135 -0.000011 0
-0.000112 -0.000013 0
-0.000086 -0.000015 0
-0.000058 -0.000016 0
-0.000031 -0.000014 0
-0.000009 -0.000008 0
0.000000 -0.000002 0
0.000000 0.000000 0
0.000000 0.000000 0
0.000000 0.000000 0
0.000000 0.000030 0
-0.000087 0.000087 0
-0.000244 0.000112 0
-0.000403 0.000095 0
-0.000530 0.000066 0
-0.000621 0.000041 0
-0.000681 0.000024 0
-0.000722 0.000015 0
-0.000750 0.000009 0
-0.000770 0.000007 0
-0.000786 0.000006 0
-0.000800 0.000005 0
-0.000812 0.000004 0
-0.000822 0.000004 0
-0.000831 0.000004 0
-0.000840 0.000003 0
-0.000848 0.000003 0
-0.000855 0.000003 0
-0.000861 0.000002 0
-0.000867 0.000002 0
-0.000873 0.000002 0
-0.000878 0.000002 0
-0.000882 0.000002 0
-0.000887 0.000002 0
-0.000891 0.000002 0
-0.000895 0.000001 0
-0.000898 0.000001 0
-0.000902 0.000001 0
-0.000905 0.000001 0
-0.000907 0.000001 0
-0.000910 0.000001 0
-0.000913 0.000001 0
-0.000915 0.000001 0
-0.000918 0.000001 0
-0.000920 0.000001 0
-0.000923 0.000001 0
-0.000925 0.000001 0
-0.000928 0.000001 0
-0.000930 0.000001 0
-0.000931 0.000000 0
-0.000930 -0.000001 0
-0.000927 -0.000003 0
-0.000921 -0.000005 0
-0.000912 -0.000007 0
-0.000902 -0.000007 0
-0.000893 -0.000005 0
-0.000890 0.000000 0
-0.000900 0.000011 0
-0.000930 0.000026 0
-0.000984 0.000045 0
-0.001062 0.000062 0
-0.001155 0.000070 0
-0.001242 0.000061 0
-0.001289 0.000023 0
-0.001248 -0.000051 0
-0.001070 -0.000159 0
-0.000734 -0.000262 0
-0.000302 -0.000263 0
0.000000 -0.000110 0
0.000000 0.000891 0
-0.000777 0.001366 0
-0.001489 0.000527 0
-0.001798 -0.000063 0
-0.001835 -0.000260 0
-0.001749 -0.000279 0
-0.001623 -0.000243 0
-0.001494 -0.000200 0
-0.001374 -0.000164 0
-0.001268 -0.000135 0
-0.001175 -0.000114 0
-0.001092 -0.000098 0
-0.001018 -0.000086 0
-0.000952 -0.000076 0
-0.000891 -0.000069 0
-0.000834 -0.000064 0
-0.000782 -0.000059 0
-0.000732 -0.000055 0
-0.000686 -0.000052 0
-0.000641 -0.000049 0
-0.000598 -0.000047 0
-0.000557 -0.000045 0
-0.000518 -0.000043 0
-0.000480 -0.000041 0
-0.000444 -0.000039 0
-0.000408 -0.000038 0
-0.000374 -0.000037 0
-0.000340 -0.000036 0
-0.000306 -0.000037 0
-0.000271 -0.000039 0
-0.000233 -0.000043 0
-0.000192 -0.000048 0
-0.000148 -0.000053 0
-0.000101 -0.000055 0
-0.000055 -0.000048 0
-0.000018 -0.000030 0
0.000000 -0.000009 0
0.000000 0.000000 0
0.000000 0.000000 0
0.000000 0.000000 0
0.000000 0.000086 0
-0.000115 0.000243 0
-0.000323 0.000316 0
-0.000543 0.000285 0
-0.000734 0.000217 0
-0.000882 0.000150 0
-0.000992 0.000100 0
-0.001071 0.000068 0
-0.001129 0.000048 0
-0.001173 0.000036 0
-0.001209 0.000029 0
-0.001238 0.000025 0
-0.001264 0.000022 0
-0.001286 0.000019 0
-0.001306 0.000017 0
-0.001324 0.000016 0
-0.001341 0.000014 0
-0.001356 0.000013 0
-0.001369 0.000012 0
-0.001381 0.000011 0
-0.001393 0.000010 0
-0.001403 0.000009 0
-0.001413 0.000009 0
-0.001422 0.000008 0
-0.001430 0.000007 0
-0.001438 0.000007 0
-0.001445 0.000006 0
-0.001452 0.000006 0
-0.001458 0.000005 0
-0.001463 0.000005 0
-0.001468 0.000005 0
-0.001473 0.000004 0
-0.001478 0.000004 0
-0.001482 0.000004 0
-0.001486 0.000005 0
-0.001490 0.000005 0
-0.001494 0.000005 0
-0.001498 0.000004 0
-0.001500 0.000003 0
-0.001501 -0.000000 0
-0.001499 -0.000004 0
-0.001493 -0.000010 0
-0.001483 -0.000015 0
-0.001470 -0.000020 0
-0.001455 -0.000020 0
-0.001444 -0.000012 0
-0.001442 0.000007 0
-0.001460 0.000039 0
-0.001506 0.000083 0
-0.001583 0.000131 0
-0.001690 0.000171 0
-0.001808 0.000180 0
-0.001905 0.000133 0
-0.001929 0.000005 0
-0.001818 -0.000219 0
-0.001515 -0.000514 0
-0.001011 -0.000768 0
-0.000406 -0.000735 0
0.000000 -0.000303 0
0.000000 0.001224 0
-0.000576 0.002075 0
-0.001299 0.001110 0
-0.001755 0.000208 0
-0.001942 -0.000212 0
-0.001961 -0.000344 0
-0.001897 -0.000354 0
-0.001798 -0.000321 0
-0.001689 -0.000280 0
-0.001583 -0.000242 0
-0.001483 -0.000210 0
-0.001390 -0.000185 0
-0.001305 -0.000165 0
-0.001225 -0.000149 0
-0.001151 -0.000137 0
-0.001082 -0.000126 0
-0.001017 -0.000118 0
-0.000955 -0.000111 0
-0.000895 -0.000106 0
-0.000838 -0.000101 0
-0.000783 -0.000096 0
-0.000730 -0.000092 0
-0.000679 -0.000089 0
-0.000629 -0.000085 0
-0.000581 -0.000082 0
-0.000534 -0.000079 0
-0.000488 -0.000078 0
-0.000443 -0.000077 0
-0.000397 -0.000079 0
-0.000350 -0.000083 0
-0.000300 -0.000089 0
-0.000247 -0.000098 0
-0.000190 -0.000106 0
-0.000130 -0.000109 0
-0.000072 -0.000097 0
-0.000024 -0.000062 0
0.000000 -0.000019 0
0.000000 0.000000 0
0.000000 0.000000 0
0.000000 0.000000 0
0.000000 0.000144 0
-0.000105 0.000409 0
-0.000306 0.000540 0
-0.000531 0.000506 0
-0.000737 0.000405 0
-0.000909 0.000299 0
-0.001045 0.000212 0
-0.001149 0.000152 0
-0.001230 0.000112 0
-0.001295 0.000087 0
-0.001348 0.000070 0
-0.001392 0.000060 0
-0.001431 0.000052 0
-0.001466 0.000046 0
-0.001496 0.000041 0
-0.001524 0.000037 0
-0.001550 0.000034 0
-0.001573 0.000031 0
-0.001594 0.000028 0
-0.001613 0.000026 0
-0.001630 0.000024 0
-0.001646 0.000022 0
-0.001661 0.000020 0
-0.001675 0.000019 0
-0.001688 0.000017 0
-0.001699 0.000016 0
-0.001710 0.000015 0
-0.001720 0.000014 0
-0.001730 0.000012 0
-0.001738 0.000012 0
-0.001746 0.000011 0
-0.001753 0.000010 0
-0.001760 0.000010 0
-0.001766 0.000009 0
-0.001772 0.000009 0
-0.001778 0.000009 0
-0.001783 0.000009 0
-0.001788 0.000007 0
-0.001791 0.000004 0
-0.001792 -0.000001 0
-0.001790 -0.000009 0
-0.001784 -0.000019 0
-0.001774 -0.000028 0
-0.001760 -0.000035 0
-0.001746 -0.000034 0
-0.001735 -0.000019 0
-0.001736 0.000017 0
-0.001757 0.000074 0
-0.001807 0.000149 0
-0.001888 0.000229 0
-0.001996 0.000286 0
-0.002110 0.000285 0
-0.002191 0.000182 0
-0.002183 -0.000064 0
-0.002021 -0.000465 0
-0.001654 -0.000966 0
-0.001083 -0.001372 0
-0.000425 -0.001274 0
0.000000 -0.000516 0
0.000000 0.001467 0
-0.000422 0.002667 0
-0.001076 0.001707 0
-0.001573 0.000580 0
-0.001846 -0.000054 0
-0.001949 -0.000324 0
-0.001950 -0.000406 0
-0.001896 -0.000407 0
-0.001816 -0.000378 0
-0.001727 -0.000341 0
-0.001636 -0.000306 0
-0.001547 -0.000276 0
-0.001462 -0.000250 0
-0.001380 -0.000229 0
-0.001303 -0.000212 0
-0.001229 -0.000198 0
-0.001158 -0.000186 0
-0.001090 -0.000177 0
-0.001025 -0.000168 0
-0.000961 -0.000161 0
-0.000900 -0.000155 0
-0.000840 -0.000149 0
-0.000781 -0.000144 0
-0.000724 -0.000139 0
-0.000668 -0.000134 0
-0.000614 -0.000131 0
-0.000560 -0.000128 0
-0.000507 -0.000127 0
-0.000453 -0.000130 0
-0.000398 -0.000136 0
-0.000341 -0.000146 0
-0.000280 -0.000158 0
-0.000215 -0.000170 0
-0.000148 -0.000172 0
-0.000082 -0.000155 0
-0.000027 -0.000101 0
0.000000 -0.000032 0
0.000000 0.000000 0
0.000000 0.000000 0
0.000000 0.000000 0
0.000000 0.000191 0
-0.000079 0.000549 0
-0.000242 0.000741 0
-0.000436 0.000716 0
-0.000625 0.000595 0
-0.000792 0.000458 0
-0.000931 0.000340 0
-0.001044 0.000253 0
-0.001137 0.000193 0
-0.001213 0.000153 0
-0.001278 0.000126 0
-0.001334 0.000108 0
-0.001384 0.000095 0
-0.001429 0.000084 0
-0.001470 0.000076 0
-0.001507 0.000069 0
-0.001541 0.000062 0
-0.001572 0.000057 0
-0.001601 0.000052 0
-0.001627 0.000047 0
-0.001650 0.000043 0
-0.001672 0.000040 0
-0.001693 0.000037 0
-0.001711 0.000034 0
-0.001728 0.000032 0
-0.001744 0.000029 0
-0.001759 0.000027 0
-0.001773 0.000025 0
-0.001786 0.000023 0
-0.001798 0.000021 0
-0.001809 0.000020 0
-0.001820 0.000018 0
-0.001829 0.000017 0
-0.001838 0.000017 0
-0.001847 0.000016 0
-0.001855 0.000015 0
-0.001862 0.000014 0
-0.001869 0.000011 0
-0.001874 0.000007 0
-0.001878 -0.000001 0
-0.001879 -0.000012 0
-0.001876 -0.000026 0
-0.001869 -0.000039 0
-0.001859 -0.000048 0
-0.001849 -0.000045 0
-0.001842 -0.000022 0
-0.001845 0.000028 0
-0.001866 0.000110 0
-0.001913 0.000214 0
-0.001989 0.000321 0
-0.002087 0.000392 0
-0.002186 0.000374 0
-0.002247 0.000206 0
-0.002216 -0.000165 0
-0.002030 -0.000749 0
-0.001642 -0.001452 0
-0.001063 -0.001997 0
-0.000411 -0.001818 0
0.000000 -0.000728 0
0.000000 0.001647 0
-0.000316 0.003151 0
-0.000882 0.002261 0
-0.001365 0.000979 0
-0.001670 0.000164 0
-0.001823 -0.000241 0
-0.001870 -0.000407 0
-0.001855 -0.000455 0
-0.001806 -0.000449 0
-0.001740 -0.000422 0
-0.001665 -0.000390 0
-0.001588 -0.000359 0
-0.001511 -0.000331 0
-0.001435 -0.000308 0
-0.001361 -0.000288 0
-0.001289 -0.000271 0
-0.001219 -0.000257 0
-0.001151 -0.000245 0
-0.001084 -0.000234 0
-0.001019 -0.000226 0
-0.000955 -0.000218 0
-0.000892 -0.000210 0
-0.000831 -0.000204 0
-0.000770 -0.000198 0
-0.000711 -0.000192 0
-0.000652 -0.000187 0
-0.000594 -0.000184 0
-0.000537 -0.000184 0
-0.000479 -0.000187 0
-0.000420 -0.000195 0
-0.000359 -0.000207 0
-0.000295 -0.000223 0
-0.000227 -0.000238 0
-0.000156 -0.000242 0
-0.000087 -0.000218 0
-0.000029 -0.000144 0
0.000000 -0.000046 0
0.000000 0.000000 0
0.000000 0.000000 0
0.000000 0.000000 0
0.000000 0.000223 0
-0.000049 0.000651 0
-0.000160 0.000896 0
-0.000304 0.000889 0
-0.000454 0.000761 0
-0.000595 0.000604 0
-0.000720 0.000465 0
-0.000827 0.000357 0
-0.000918 0.000281 0
-0.000997 0.000228 0
-0.001067 0.000192 0
-0.001130 0.000166 0
-0.001187 0.000147 0
-0.001240 0.000132 0
-0.001289 0.000119 0
-0.001334 0.000108 0
-0.001376 0.000099 0
-0.001415 0.000090 0
-0.001450 0.000082 0
-0.001483 0.000075 0
-0.001513 0.000069 0
-0.001541 0.000064 0
-0.001566 0.000059 0
-0.001590 0.000054 0
-0.001612 0.000050 0
-0.001632 0.000047 0
-0.001652 0.000043 0
-0.001670 0.000040 0
-0.001687 0.000037 0
-0.001703 0.000035 0
-0.001718 0.000032 0
-0.001732 0.000030 0
-0.001746 0.000028 0
-0.001758 0.000027 0
-0.001770 0.000026 0
-0.001782 0.000024 0
-0.001793 0.000022 0
-0.001803 0.000019 0
-0.001813 0.000013 0
-0.001821 0.000003 0
-0.001827 -0.000011 0
-0.001830 -0.000028 0
-0.001830 -0.000045 0
-0.001827 -0.000056 0
-0.001823 -0.000052 0
-0.001822 -0.000023 0
-0.001828 0.000041 0
-0.001849 0.000142 0
-0.001891 0.000272 0
-0.001956 0.000402 0
-0.002040 0.000483 0
-0.002122 0.000446 0
-0.002168 0.000212 0
-0.002124 -0.000282 0
-0.001933 -0.001039 0
-0.001556 -0.001933 0
-0.001000 -0.002604 0
-0.000383 -0.002337 0
0.000000 -0.000927 0
0.000000 0.001784 0
-0.000242 0.003549 0
-0.000726 0.002756 0
-0.001170 0.001368 0
-0.001474 0.000404 0
-0.001645 -0.000124 0
-0.001719 -0.000373 0
-0.001730 -0.000471 0
-0.001705 -0.000494 0
-0.001660 -0.000482 0
-0.001603 -0.000457 0
-0.001541 -0.000429 0
-0.001476 -0.000403 0
-0.001410 -0.000379 0
-0.001344 -0.000358 0
-0.001278 -0.000340 0
-0.001213 -0.000325 0
-0.001148 -0.000311 0
-0.001084 -0.000300 0
-0.001021 -0.000290 0
-0.000958 -0.000281 0
-0.000897 -0.000273 0
-0.000836 -0.000265 0
-0.000775 -0.000258 0
-0.000715 -0.000252 0
-0.000656 -0.000247 0
-0.000597 -0.000243 0
-0.000538 -0.000243 0
-0.000480 -0.000246 0
-0.000420 -0.000256 0
-0.000358 -0.000271 0
-0.000294 -0.000290 0
-0.000226 -0.000308 0
-0.000156 -0.000312 0
-0.000087 -0.000282 0
-0.000029 -0.000188 0
0.000000 -0.000061 0
0.000000 0.000000 0
0.000000 0.000000 0
0.000000 0.000000 0
0.000000 0.000239 0
-0.000020 0.000709 0
-0.000078 0.000996 0
-0.000165 0.001010 0
-0.000265 0.000887 0
-0.000367 0.000723 0
-0.000464 0.000571 0
-0.000553 0.000451 0
-0.000632 0.000363 0
-0.000705 0.000302 0
-0.000773 0.000259 0
-0.000836 0.000228 0
-0.000896 0.000205 0
-0.000953 0.000186 0
-0.001008 0.000170 0
-0.001059 0.000155 0
-0.001107 0.000143 0
-0.001153 0.000131 0
-0.001195 0.000120 0
-0.001235 0.000110 0
-0.001271 0.000101 0
-0.001304 0.000093 0
-0.001335 0.000086 0
-0.001364 0.000079 0
-0.001390 0.000074 0
-0.001415 0.000069 0
-0.001438 0.000064 0
-0.001461 0.000060 0
-0.001482 0.000056 0
-0.001503 0.000052 0
-0.001523 0.000049 0
-0.001541 0.000046 0
-0.001559 0.000043 0
-0.001577 0.000041 0
-0.001593 0.000039 0
-0.001609 0.000038 0
-0.001625 0.000035 0
-0.001640 0.000031 0
-0.001655 0.000024 0
-0.001669 0.000013 0
-0.001682 -0.000003 0
-0.001693 -0.000023 0
-0.001702 -0.000042 0
-0.001708 -0.000055 0
-0.001713 -0.000051 0
-0.001719 -0.000018 0
-0.001730 0.000055 0
-0.001750 0.000172 0
-0.001786 0.000321 0
-0.001840 0.000470 0
-0.001909 0.000558 0
-0.001975 0.000502 0
-0.002007 0.000207 0
-0.001959 -0.000400 0
-0.001779 -0.001317 0
-0.001429 -0.002386 0
-0.000918 -0.003169 0
-0.000351 -0.002818 0
0.000000 -0.001111 0
0.000000 0.001890 0
-0.000190 0.003878 0
-0.000602 0.003189 0
-0.001000 0.001728 0
-0.001284 0.000640 0
-0.001453 0.000004 0
-0.001535 -0.000322 0
-0.001560 -0.000468 0
-0.001550 -0.000519 0
-0.001521 -0.000524 0
-0.001479 -0.000509 0
-0.001431 -0.000486 0
-0.001379 -0.000462 0
-0.001324 -0.000439 0
-0.001268 -0.000419 0
-0.001211 -0.000402 0
-0.001153 -0.000386 0
-0.001095 -0.000373 0
-0.001037 -0.000361 0
-0.000979 -0.000351 0
-0.000920 -0.000342 0
-0.000862 -0.000333 0
-0.000804 -0.000325 0
-0.000746 -0.000318 0
-0.000688 -0.000311 0
-0.000631 -0.000305 0
-0.000574 -0.000302 0
-0.000517 -0.000301 0
-0.000460 -0.000305 0
-0.000402 -0.000316 0
-0.000342 -0.000333 0
-0.000280 -0.000355 0
-0.000215 -0.000376 0
-0.000148 -0.000381 0
-0.000082 -0.000344 0
-0.000027 -0.000230 0
0.000000 -0.000075 0
0.000000 0.000000 0
0.000000 0.000000 0
0.000000 0.000000 0
0.000000 0.000243 0
0.000003 0.000729 0
-0.000006 0.001040 0
-0.000036 0.001075 0
-0.000083 0.000964 0
-0.000140 0.000803 0
-0.000202 0.000650 0
-0.000264 0.000525 0
-0.000324 0.000433 0
-0.000383 0.000368 0
-0.000442 0.000322 0
-0.000500 0.000289 0
-0.000558 0.000264 0
-0.000615 0.000243 0
-0.000671 0.000225 0
-0.000726 0.000208 0
-0.000780 0.000192 0
-0.000831 0.000178 0
-0.000879 0.000164 0
-0.000925 0.000151 0
-0.000967 0.000139 0
-0.001006 0.000128 0
-0.001042 0.000118 0
-0.001076 0.000109 0
-0.001107 0.000102 0
-0.001136 0.000095 0
-0.001163 0.000089 0
-0.001190 0.000084 0
-0.001215 0.000079 0
-0.001240 0.000075 0
-0.001265 0.000070 0
-0.001288 0.000067 0
-0.001311 0.000063 0
-0.001334 0.000060 0
-0.001355 0.000058 0
-0.001376 0.000056 0
-0.001397 0.000053 0
-0.001418 0.000049 0
-0.001439 0.000041 0
-0.001459 0.000030 0
-0.001480 0.000013 0
-0.001500 -0.000008 0
-0.001519 -0.000030 0
-0.001536 -0.000044 0
-0.001551 -0.000041 0
-0.001565 -0.000006 0
-0.001580 0.000072 0
-0.001601 0.000199 0
-0.001632 0.000362 0
-0.001675 0.000524 0
-0.001728 0.000617 0
-0.001778 0.000544 0
-0.001800 0.000196 0
-0.001754 -0.000510 0
-0.001593 -0.001569 0
-0.001283 -0.002794 0
-0.000827 -0.003682 0
-0.000318 -0.003255 0
0.000000 -0.001278 0
0.000000 0.001974 0
-0.000150 0.004152 0
-0.000502 0.003566 0
-0.000854 0.002051 0
-0.001111 0.000858 0
-0.001267 0.000128 0
-0.001345 -0.000266 0
-0.001372 -0.000456 0
-0.001369 -0.000533 0
-0.001349 -0.000553 0
-0.001318 -0.000547 0
-0.001282 -0.000529 0
-0.001242 -0.000509 0
-0.001199 -0.000489 0
-0.001153 -0.000471 0
-0.001105 -0.000455 0
-0.001056 -0.000440 0
-0.001006 -0.000428 0
-0.000955 -0.000416 0
-0.000903 -0.000406 0
-0.000850 -0.000397 0
-0.000798 -0.000389 0
-0.000744 -0.000381 0
-0.000691 -0.000374 0
-0.000637 -0.000367 0
-0.000584 -0.000361 0
-0.000530 -0.000357 0
-0.000477 -0.000357 0
-0.000423 -0.000361 0
-0.000369 -0.000373 0
-0.000314 -0.000392 0
-0.000257 -0.000417 0
-0.000197 -0.000440 0
-0.000135 -0.000445 0
-0.000075 -0.000402 0
-0.000025 -0.000270 0
0.000000 -0.000088 0
0.000000 0.000000 0
0.000000 0.000000 0
0.000000 0.000000 0
0.000000 0.000236 0
0.000021 0.000715 0
0.000052 0.001035 0
0.000073 0.001086 0
0.000076 0.000991 0
0.000064 0.000842 0
0.000041 0.000694 0
0.000010 0.000573 0
-0.000027 0.000483 0
-0.000067 0.000420 0
-0.000111 0.000376 0
-0.000159 0.000344 0
-0.000209 0.000319 0
-0.000262 0.000299 0
-0.000316 0.000281 0
-0.000371 0.000263 0
-0.000427 0.000247 0
-0.000482 0.000230 0
-0.000535 0.000214 0
-0.000587 0.000198 0
-0.000636 0.000183 0
-0.000681 0.000168 0
-0.000723 0.000155 0
-0.000761 0.000143 0
-0.000796 0.000133 0
-0.000829 0.000125 0
-0.000860 0.000118 0
-0.000890 0.000112 0
-0.000919 0.000106 0
-0.000948 0.000101 0
-0.000977 0.000097 0
-0.001005 0.000092 0
-0.001033 0.000088 0
-0.001060 0.000085 0
-0.001087 0.000082 0
-0.001114 0.000079 0
-0.001140 0.000076 0
-0.001166 0.000072 0
-0.001193 0.000065 0
-0.001220 0.000054 0
-0.001248 0.000037 0
-0.001277 0.000016 0
-0.001305 -0.000007 0
-0.001332 -0.000023 0
-0.001357 -0.000022 0
-0.001380 0.000012 0
-0.001401 0.000092 0
-0.001423 0.000223 0
-0.001449 0.000394 0
-0.001482 0.000566 0
-0.001520 0.000661 0
-0.001557 0.000574 0
-0.001571 0.000183 0
-0.001530 -0.000606 0
-0.001394 -0.001788 0
-0.001129 -0.003152 0
-0.000733 -0.004135 0
-0.000284 -0.003646 0
0.000000 -0.001429 0
0.000000 0.002041 0
-0.000120 0.004381 0
-0.000422 0.003893 0
-0.000732 0.002337 0
-0.000959 0.001053 0
-0.001095 0.000238 0
-0.001162 -0.000216 0
-0.001184 -0.000444 0
-0.001180 -0.000542 0
-0.001164 -0.000574 0
-0.001141 -0.000575 0
-0.001113 -0.000562 0
-0.001083 -0.000545 0
-0.001050 -0.000528 0
-0.001014 -0.000512 0
-0.000975 -0.000498 0
-0.000935 -0.000486 0
-0.000893 -0.000474 0
-0.000849 -0.000464 0
-0.000805 -0.000455 0
-0.000759 -0.000447 0
-0.000713 -0.000439 0
-0.000665 -0.000431 0
-0.000618 -0.000424 0
-0.000569 -0.000418 0
-0.000521 -0.000412 0
-0.000473 -0.000408 0
-0.000424 -0.000408 0
-0.000376 -0.000412 0
-0.000327 -0.000425 0
-0.000278 -0.000445 0
-0.000227 -0.000472 0
-0.000174 -0.000497 0
-0.000119 -0.000503 0
-0.000066 -0.000455 0
-0.000022 -0.000305 0
0.000000 -0.000099 0
0.000000 0.000000 0
0.000000 0.000000 0
0.000000 0.000000 0
0.000000 0.000221 0
0.000033 0.000676 0
0.000095 0.000989 0
0.000157 0.001050 0
0.000205 0.000972 0