# vtk DataFile Version 2.0
generated by CFD-lab course output (written by Tobias Neckel) 
ASCII

DATASET STRUCTURED_GRID
DIMENSIONS  99 49 1 
POINTS 4851 float

0.000000 0.000000 0
0.020000 0.000000 0
0.040000 0.000000 0
0.060000 0.000000 0
0.080000 0.000000 0
0.100000 0.000000 0
0.120000 0.000000 0
0.140000 0.000000 0
0.160000 0.000000 0
0.180000 0.000000 0
0.200000 0.000000 0
0.220000 0.000000 0
0.240000 0.000000 0
0.260000 0.000000 0
0.280000 0.000000 0
0.300000 0.000000 0
0.320000 0.000000 0
0.340000 0.000000 0
0.360000 0.000000 0
0.380000 0.000000 0
0.400000 0.000000 0
0.420000 0.000000 0
0.440000 0.000000 0
0.460000 0.000000 0
0.480000 0.000000 0
0.500000 0.000000 0
0.520000 0.000000 0
0.540000 0.000000 0
0.560000 0.000000 0
0.580000 0.000000 0
0.600000 0.000000 0
0.620000 0.000000 0
0.640000 0.000000 0
0.660000 0.000000 0
0.680000 0.000000 0
0.700000 0.000000 0
0.720000 0.000000 0
0.740000 0.000000 0
0.760000 0.000000 0
0.780000 0.000000 0
0.800000 0.000000 0
0.820000 0.000000 0
0.840000 0.000000 0
0.860000 0.000000 0
0.880000 0.000000 0
0.900000 0.000000 0
0.920000 0.000000 0
0.940000 0.000000 0
0.960000 0.000000 0
0.980000 0.000000 0
1.000000 0.000000 0
1.020000 0.000000 0
1.040000 0.000000 0
1.060000 0.000000 0
1.080000 0.000000 0
1.100000 0.000000 0
1.120000 0.000000 0
1.140000 0.000000 0
1.160000 0.000000 0
1.180000 0.000000 0
1.200000 0.000000 0
1.220000 0.000000 0
1.240000 0.000000 0
1.260000 0.000000 0
1.280000 0.000000 0
1.300000 0.000000 0
1.320000 0.000000 0
1.340000 0.000000 0
1.360000 0.000000 0
1.380000 0.000000 0
1.400000 0.000000 0
1.420000 0.000000 0
1.440000 0.000000 0
1.460000 0.000000 0
1.480000 0.000000 0
1.500000 0.000000 0
1.520000 0.000000 0
1.540000 0.000000 0
1.560000 0.000000 0
1.580000 0.000000 0
1.600000 0.000000 0
1.620000 0.000000 0
1.640000 0.000000 0
1.660000 0.000000 0
1.680000 0.000000 0
1.700000 0.000000 0
1.720000 0.000000 0
1.740000 0.000000 0
1.760000 0.000000 0
1.780000 0.000000 0
1.800000 0.000000 0
1.820000 0.000000 0
1.840000 0.000000 0
1.860000 0.000000 0
1.880000 0.000000 0
1.900000 0.000000 0
1.920000 0.000000 0
1.940000 0.000000 0
1.960000 0.000000 0
0.000000 0.020000 0
0.020000 0.020000 0
0.040000 0.020000 0
0.060000 0.020000 0
0.080000 0.020000 0
0.100000 0.020000 0
0.120000 0.020000 0
0.140000 0.020000 0
0.160000 0.020000 0
0.180000 0.020000 0
0.200000 0.020000 0
0.220000 0.020000 0
0.240000 0.020000 0
0.260000 0.020000 0
0.280000 0.020000 0
0.300000 0.020000 0
0.320000 0.020000 0
0.340000 0.020000 0
0.360000 0.020000 0
0.380000 0.020000 0
0.400000 0.020000 0
0.420000 0.020000 0
0.440000 0.020000 0
0.460000 0.020000 0
0.480000 0.020000 0
0.500000 0.020000 0
0.520000 0.020000 0
0.540000 0.020000 0
0.560000 0.020000 0
0.580000 0.020000 0
0.600000 0.020000 0
0.620000 0.020000 0
0.640000 0.020000 0
0.660000 0.020000 0
0.680000 0.020000 0
0.700000 0.020000 0
0.720000 0.020000 0
0.740000 0.020000 0
0.760000 0.020000 0
0.780000 0.020000 0
0.800000 0.020000 0
0.820000 0.020000 0
0.840000 0.020000 0
0.860000 0.020000 0
0.880000 0.020000 0
0.900000 0.020000 0
0.920000 0.020000 0
0.940000 0.020000 0
0.960000 0.020000 0
0.980000 0.020000 0
1.000000 0.020000 0
1.020000 0.020000 0
1.040000 0.020000 0
1.060000 0.020000 0
1.080000 0.020000 0
1.100000 0.020000 0
1.120000 0.020000 0
1.140000 0.020000 0
1.160000 0.020000 0
1.180000 0.020000 0
1.200000 0.020000 0
1.220000 0.020000 0
1.240000 0.020000 0
1.260000 0.020000 0
1.280000 0.020000 0
1.300000 0.020000 0
1.320000 0.020000 0
1.340000 0.020000 0
1.360000 0.020000 0
1.380000 0.020000 0
1.400000 0.020000 0
1.420000 0.020000 0
1.440000 0.020000 0
1.460000 0.020000 0
1.480000 0.020000 0
1.500000 0.020000 0
1.520000 0.020000 0
1.540000 0.020000 0
1.560000 0.020000 0
1.580000 0.020000 0
1.600000 0.020000 0
1.620000 0.020000 0
1.640000 0.020000 0
1.660000 0.020000 0
1.680000 0.020000 0
1.700000 0.020000 0
1.720000 0.020000 0
1.740000 0.020000 0
1.760000 0.020000 0
1.780000 0.020000 0
1.800000 0.020000 0
1.820000 0.020000 0
1.840000 0.020000 0
1.860000 0.020000 0
1.880000 0.020000 0
1.900000 0.020000 0
1.920000 0.020000 0
1.940000 0.020000 0
1.960000 0.020000 0
0.000000 0.040000 0
0.020000 0.040000 0
0.040000 0.040000 0
0.060000 0.040000 0
0.080000 0.040000 0
0.100000 0.040000 0
0.120000 0.040000 0
0.140000 0.040000 0
0.160000 0.040000 0
0.180000 0.040000 0
0.200000 0.040000 0
0.220000 0.040000 0
0.240000 0.040000 0
0.260000 0.040000 0
0.280000 0.040000 0
0.300000 0.040000 0
0.320000 0.040000 0
0.340000 0.040000 0
0.360000 0.040000 0
0.380000 0.040000 0
0.400000 0.040000 0
0.420000 0.040000 0
0.440000 0.040000 0
0.460000 0.040000 0
0.480000 0.040000 0
0.500000 0.040000 0
0.520000 0.040000 0
0.540000 0.040000 0
0.560000 0.040000 0
0.580000 0.040000 0
0.600000 0.040000 0
0.620000 0.040000 0
0.640000 0.040000 0
0.660000 0.040000 0
0.680000 0.040000 0
0.700000 0.040000 0
0.720000 0.040000 0
0.740000 0.040000 0
0.760000 0.040000 0
0.780000 0.040000 0
0.800000 0.040000 0
0.820000 0.040000 0
0.840000 0.040000 0
0.860000 0.040000 0
0.880000 0.040000 0
0.900000 0.040000 0
0.920000 0.040000 0
0.940000 0.040000 0
0.960000 0.040000 0
0.980000 0.040000 0
1.000000 0.040000 0
1.020000 0.040000 0
1.040000 0.040000 0
1.060000 0.040000 0
1.080000 0.040000 0
1.100000 0.040000 0
1.120000 0.040000 0
1.140000 0.040000 0
1.160000 0.040000 0
1.180000 0.040000 0
1.200000 0.040000 0
1.220000 0.040000 0
1.240000 0.040000 0
1.260000 0.040000 0
1.280000 0.040000 0
1.300000 0.040000 0
1.320000 0.040000 0
1.340000 0.040000 0
1.360000 0.040000 0
1.380000 0.040000 0
1.400000 0.040000 0
1.420000 0.040000 0
1.440000 0.040000 0
1.460000 0.040000 0
1.480000 0.040000 0
1.500000 0.040000 0
1.520000 0.040000 0
1.540000 0.040000 0
1.560000 0.040000 0
1.580000 0.040000 0
1.600000 0.040000 0
1.620000 0.040000 0
1.640000 0.040000 0
1.660000 0.040000 0
1.680000 0.040000 0
1.700000 0.040000 0
1.720000 0.040000 0
1.740000 0.040000 0
1.760000 0.040000 0
1.780000 0.040000 0
1.800000 0.040000 0
1.820000 0.040000 0
1.840000 0.040000 0
1.860000 0.040000 0
1.880000 0.040000 0
1.900000 0.040000 0
1.920000 0.040000 0
1.940000 0.040000 0
1.960000 0.040000 0
0.000000 0.060000 0
0.020000 0.060000 0
0.040000 0.060000 0
0.060000 0.060000 0
0.080000 0.060000 0
0.100000 0.060000 0
0.120000 0.060000 0
0.140000 0.060000 0
0.160000 0.060000 0
0.180000 0.060000 0
0.200000 0.060000 0
0.220000 0.060000 0
0.240000 0.060000 0
0.260000 0.060000 0
0.280000 0.060000 0
0.300000 0.060000 0
0.320000 0.060000 0
0.340000 0.060000 0
0.360000 0.060000 0
0.380000 0.060000 0
0.400000 0.060000 0
0.420000 0.060000 0
0.440000 0.060000 0
0.460000 0.060000 0
0.480000 0.060000 0
0.500000 0.060000 0
0.520000 0.060000 0
0.540000 0.060000 0
0.560000 0.060000 0
0.580000 0.060000 0
0.600000 0.060000 0
0.620000 0.060000 0
0.640000 0.060000 0
0.660000 0.060000 0
0.680000 0.060000 0
0.700000 0.060000 0
0.720000 0.060000 0
0.740000 0.060000 0
0.760000 0.060000 0
0.780000 0.060000 0
0.800000 0.060000 0
0.820000 0.060000 0
0.840000 0.060000 0
0.860000 0.060000 0
0.880000 0.060000 0
0.900000 0.060000 0
0.920000 0.060000 0
0.940000 0.060000 0
0.960000 0.060000 0
0.980000 0.060000 0
1.000000 0.060000 0
1.020000 0.060000 0
1.040000 0.060000 0
1.060000 0.060000 0
1.080000 0.060000 0
1.100000 0.060000 0
1.120000 0.060000 0
1.140000 0.060000 0
1.160000 0.060000 0
1.180000 0.060000 0
1.200000 0.060000 0
1.220000 0.060000 0
1.240000 0.060000 0
1.260000 0.060000 0
1.280000 0.060000 0
1.300000 0.060000 0
1.320000 0.060000 0
1.340000 0.060000 0
1.360000 0.060000 0
1.380000 0.060000 0
1.400000 0.060000 0
1.420000 0.060000 0
1.440000 0.060000 0
1.460000 0.060000 0
1.480000 0.060000 0
1.500000 0.060000 0
1.520000 0.060000 0
1.540000 0.060000 0
1.560000 0.060000 0
1.580000 0.060000 0
1.600000 0.060000 0
1.620000 0.060000 0
1.640000 0.060000 0
1.660000 0.060000 0
1.680000 0.060000 0
1.700000 0.060000 0
1.720000 0.060000 0
1.740000 0.060000 0
1.760000 0.060000 0
1.780000 0.060000 0
1.800000 0.060000 0
1.820000 0.060000 0
1.840000 0.060000 0
1.860000 0.060000 0
1.880000 0.060000 0
1.900000 0.060000 0
1.920000 0.060000 0
1.940000 0.060000 0
1.960000 0.060000 0
0.000000 0.080000 0
0.020000 0.080000 0
0.040000 0.080000 0
0.060000 0.080000 0
0.080000 0.080000 0
0.100000 0.080000 0
0.120000 0.080000 0
0.140000 0.080000 0
0.160000 0.080000 0
0.180000 0.080000 0
0.200000 0.080000 0
0.220000 0.080000 0
0.240000 0.080000 0
0.260000 0.080000 0
0.280000 0.080000 0
0.300000 0.080000 0
0.320000 0.080000 0
0.340000 0.080000 0
0.360000 0.080000 0
0.380000 0.080000 0
0.400000 0.080000 0
0.420000 0.080000 0
0.440000 0.080000 0
0.460000 0.080000 0
0.480000 0.080000 0
0.500000 0.080000 0
0.520000 0.080000 0
0.540000 0.080000 0
0.560000 0.080000 0
0.580000 0.080000 0
0.600000 0.080000 0
0.620000 0.080000 0
0.640000 0.080000 0
0.660000 0.080000 0
0.680000 0.080000 0
0.700000 0.080000 0
0.720000 0.080000 0
0.740000 0.080000 0
0.760000 0.080000 0
0.780000 0.080000 0
0.800000 0.080000 0
0.820000 0.080000 0
0.840000 0.080000 0
0.860000 0.080000 0
0.880000 0.080000 0
0.900000 0.080000 0
0.920000 0.080000 0
0.940000 0.080000 0
0.960000 0.080000 0
0.980000 0.080000 0
1.000000 0.080000 0
1.020000 0.080000 0
1.040000 0.080000 0
1.060000 0.080000 0
1.080000 0.080000 0
1.100000 0.080000 0
1.120000 0.080000 0
1.140000 0.080000 0
1.160000 0.080000 0
1.180000 0.080000 0
1.200000 0.080000 0
1.220000 0.080000 0
1.240000 0.080000 0
1.260000 0.080000 0
1.280000 0.080000 0
1.300000 0.080000 0
1.320000 0.080000 0
1.340000 0.080000 0
1.360000 0.080000 0
1.380000 0.080000 0
1.400000 0.080000 0
1.420000 0.080000 0
1.440000 0.080000 0
1.460000 0.080000 0
1.480000 0.080000 0
1.500000 0.080000 0
1.520000 0.080000 0
1.540000 0.080000 0
1.560000 0.080000 0
1.580000 0.080000 0
1.600000 0.080000 0
1.620000 0.080000 0
1.640000 0.080000 0
1.660000 0.080000 0
1.680000 0.080000 0
1.700000 0.080000 0
1.720000 0.080000 0
1.740000 0.080000 0
1.760000 0.080000 0
1.780000 0.080000 0
1.800000 0.080000 0
1.820000 0.080000 0
1.840000 0.080000 0
1.860000 0.080000 0
1.880000 0.080000 0
[...]
POINT_DATA 4851 

VECTORS velocity float
0.000000 0.000000 0
-0.000414 0.000000 0
-0.000551 0.000000 0
-0.000507 0.000000 0
-0.000425 0.000000 0
-0.000353 0.000000 0
-0.000299 0.000000 0
-0.000260 0.000000 0
-0.000231 0.000000 0
-0.000209 0.000000 0
-0.000191 0.000000 0
-0.000176 0.000000 0
-0.000163 0.000000 0
-0.000151 0.000000 0
-0.000141 0.000000 0
-0.000132 0.000000 0
-0.000123 0.000000 0
-0.000115 0.000000 0
-0.000107 0.000000 0
-0.000100 0.000000 0
-0.000093 0.000000 0
-0.000086 0.000000 0
-0.000080 0.000000 0
-0.000074 0.000000 0
-0.000068 0.000000 0
-0.000062 0.000000 0
-0.000056 0.000000 0
-0.000051 0.000000 0
-0.000046 0.000000 0
-0.000041 0.000000 0
-0.000036 0.000000 0
-0.000031 0.000000 0
-0.000025 0.000000 0
-0.000018 0.000000 0
-0.000010 0.000000 0
-0.000003 0.000000 0
0.000000 0.000000 0
0.000000 0.000000 0
0.000000 0.000000 0
0.000000 0.000000 0
0.000000 0.000000 0
-0.000021 0.000000 0
-0.000064 0.000000 0
-0.000108 0.000000 0
-0.000143 0.000000 0
-0.000166 0.000000 0
-0.000181 0.000000 0
-0.000190 0.000000 0
-0.000196 0.000000 0
-0.000200 0.000000 0
-0.000203 0.000000 0
-0.000205 0.000000 0
-0.000208 0.000000 0
-0.000210 0.000000 0
-0.000212 0.000000 0
-0.000213 0.000000 0
-0.000215 0.000000 0
-0.000217 0.000000 0
-0.000218 0.000000 0
-0.000219 0.000000 0
-0.000221 0.000000 0
-0.000222 0.000000 0
-0.000223 0.000000 0
-0.000224 0.000000 0
-0.000225 0.000000 0
-0.000226 0.000000 0
-0.000227 0.000000 0
-0.000228 0.000000 0
-0.000229 0.000000 0
-0.000230 0.000000 0
-0.000231 0.000000 0
-0.000232 0.000000 0
-0.000232 0.000000 0
-0.000233 0.000000 0
-0.000234 0.000000 0
-0.000235 0.000000 0
-0.000236 0.000000 0
-0.000237 0.000000 0
-0.000238 0.000000 0
-0.000238 0.000000 0
-0.000238 0.000000 0
-0.000237 0.000000 0
-0.000236 0.000000 0
-0.000234 0.000000 0
-0.000232 0.000000 0
-0.000231 0.000000 0
-0.000231 0.000000 0
-0.000235 0.000000 0
-0.000245 0.000000 0
-0.000260 0.000000 0
-0.000282 0.000000 0
-0.000309 0.000000 0
-0.000334 0.000000 0
-0.000349 0.000000 0
-0.000340 0.000000 0
-0.000294 0.000000 0
-0.000203 0.000000 0
-0.000083 0.000000 0
0.000000 0.000000 0
0.000000 0.000414 0
-0.000824 0.000552 0
-0.001278 0.000094 0
-0.001332 -0.000126 0
-0.001225 -0.000154 0
-0.001088 -0.000125 0
-0.000963 -0.000092 0
-0.000861 -0.000067 0
-0.000778 -0.000051 0
-0.000710 -0.000040 0
-0.000654 -0.000032 0
-0.000605 -0.000027 0
-0.000562 -0.000024 0
-0.000524 -0.000021 0
-0.000490 -0.000019 0
-0.000458 -0.000018 0
-0.000428 -0.000016 0
-0.000400 -0.000015 0
-0.000374 -0.000014 0
-0.000349 -0.000014 0
-0.000325 -0.000013 0
-0.000302 -0.000012 0
-0.000280 -0.000012 0
-0.000258 -0.000011 0
-0.000237 -0.000011 0
-0.000217 -0.000011 0
-0.000198 -0.000010 0
-0.000179 -0.000010 0
-0.000161 -0.000009 0
-0.000143 -0.000009 0
-0.000125 -0.000010 0
-0.000105 -0.000011 0
-0.000083 -0.000013 0
-0.000059 -0.000014 0
-0.000033 -0.000014 0
-0.000011 -0.000009 0
0.000000 -0.000002 0
0.000000 0.000000 0
0.000000 0.000000 0
0.000000 0.000000 0
0.000000 0.000021 0
-0.000063 0.000064 0
-0.000184 0.000087 0
-0.000311 0.000078 0
-0.000418 0.000058 0
-0.000497 0.000038 0
-0.000552 0.000023 0
-0.000590 0.000014 0
-0.000616 0.000009 0
-0.000634 0.000006 0
-0.000649 0.000005 0
-0.000661 0.000004 0
-0.000672 0.000004 0
-0.000681 0.000003 0
-0.000689 0.000003 0
-0.000697 0.000003 0
-0.000704 0.000003 0
-0.000710 0.000003 0
-0.000716 0.000002 0
-0.000722 0.000002 0
-0.000727 0.000002 0
-0.000732 0.000002 0
-0.000736 0.000002 0
-0.000741 0.000002 0
-0.000745 0.000002 0
-0.000749 0.000002 0
-0.000752 0.000001 0
-0.000756 0.000001 0
-0.000759 0.000001 0
-0.000762 0.000001 0
-0.000765 0.000001 0
-0.000768 0.000001 0
-0.000771 0.000001 0
-0.000773 0.000001 0
-0.000776 0.000001 0
-0.000779 0.000001 0
-0.000782 0.000001 0
-0.000784 0.000001 0
-0.000786 0.000001 0
-0.000786 0.000000 0
-0.000786 -0.000001 0
-0.000783 -0.000002 0
-0.000779 -0.000004 0
-0.000773 -0.000004 0
-0.000767 -0.000004 0
-0.000763 -0.000001 0
-0.000766 0.000004 0
-0.000779 0.000013 0
-0.000808 0.000024 0
-0.000854 0.000037 0
-0.000916 0.000048 0
-0.000986 0.000051 0
-0.001044 0.000040 0
-0.001065 0.000006 0
-0.001013 -0.000055 0
-0.000853 -0.000138 0
-0.000574 -0.000212 0
-0.000231 -0.000203 0
0.000000 -0.000083 0
0.000000 0.000824 0
-0.000711 0.001279 0
-0.001373 0.000509 0
-0.001663 -0.000052 0
-0.001697 -0.000243 0
-0.001616 -0.000261 0
-0.001499 -0.000226 0
-0.001381 -0.000185 0
-0.001273 -0.000150 0
-0.001178 -0.000124 0
-0.001094 -0.000105 0
-0.001019 -0.000090 0
-0.000952 -0.000080 0
-0.000891 -0.000072 0
-0.000835 -0.000066 0
-0.000783 -0.000061 0
-0.000734 -0.000057 0
-0.000687 -0.000053 0
-0.000643 -0.000051 0
-0.000601 -0.000048 0
-0.000560 -0.000046 0
-0.000521 -0.000044 0
-0.000483 -0.000043 0
-0.000446 -0.000041 0
-0.000411 -0.000040 0
-0.000376 -0.000039 0
-0.000342 -0.000037 0
-0.000309 -0.000036 0
-0.000277 -0.000035 0
-0.000245 -0.000036 0
-0.000211 -0.000037 0
-0.000177 -0.000041 0
-0.000139 -0.000045 0
-0.000098 -0.000049 0
-0.000056 -0.000047 0
-0.000019 -0.000032 0
0.000000 -0.000010 0
0.000000 0.000000 0
0.000000 0.000000 0
0.000000 0.000000 0
0.000000 0.000063 0
-0.000087 0.000183 0
-0.000249 0.000247 0
-0.000426 0.000233 0
-0.000585 0.000186 0
-0.000713 0.000134 0
-0.000809 0.000092 0
-0.000881 0.000063 0
-0.000933 0.000044 0
-0.000974 0.000033 0
-0.001006 0.000026 0
-0.001032 0.000022 0
-0.001055 0.000019 0
-0.001075 0.000017 0
-0.001093 0.000015 0
-0.001109 0.000014 0
-0.001123 0.000013 0
-0.001137 0.000012 0
-0.001149 0.000011 0
-0.001160 0.000010 0
-0.001171 0.000009 0
-0.001180 0.000009 0
-0.001189 0.000008 0
-0.001198 0.000008 0
-0.001205 0.000007 0
-0.001213 0.000007 0
-0.001220 0.000007 0
-0.001226 0.000006 0
-0.001232 0.000006 0
-0.001238 0.000005 0
-0.001243 0.000005 0
-0.001248 0.000005 0
-0.001253 0.000005 0
-0.001257 0.000005 0
-0.001261 0.000005 0
-0.001266 0.000005 0
-0.001269 0.000004 0
-0.001272 0.000003 0
-0.001274 0.000002 0
-0.001275 -0.000001 0
-0.001273 -0.000004 0
-0.001268 -0.000007 0
-0.001261 -0.000011 0
-0.001252 -0.000012 0
-0.001243 -0.000010 0
-0.001239 -0.000001 0
-0.001245 0.000016 0
-0.001266 0.000042 0
-0.001308 0.000074 0
-0.001373 0.000108 0
-0.001456 0.000131 0
-0.001542 0.000128 0
-0.001603 0.000079 0
-0.001599 -0.000032 0
-0.001484 -0.000213 0
-0.001218 -0.000439 0
-0.000800 -0.000622 0
-0.000316 -0.000575 0
0.000000 -0.000231 0
0.000000 0.001126 0
-0.000512 0.001926 0
-0.001169 0.001047 0
-0.001585 0.000199 0
-0.001753 -0.000200 0
-0.001768 -0.000322 0
-0.001708 -0.000327 0
-0.001620 -0.000293 0
-0.001524 -0.000254 0
-0.001431 -0.000219 0
-0.001343 -0.000191 0
-0.001262 -0.000169 0
-0.001187 -0.000151 0
-0.001116 -0.000138 0
-0.001050 -0.000127 0
-0.000988 -0.000119 0
-0.000929 -0.000111 0
-0.000872 -0.000105 0
-0.000818 -0.000100 0
-0.000766 -0.000096 0
-0.000715 -0.000092 0
-0.000666 -0.000089 0
-0.000618 -0.000086 0
-0.000572 -0.000084 0
-0.000526 -0.000081 0
-0.000481 -0.000079 0
-0.000438 -0.000076 0
-0.000395 -0.000075 0
-0.000353 -0.000074 0
-0.000310 -0.000074 0
-0.000267 -0.000077 0
-0.000222 -0.000083 0
-0.000173 -0.000091 0
-0.000122 -0.000097 0
-0.000069 -0.000093 0
-0.000024 -0.000064 0
0.000000 -0.000021 0
0.000000 0.000000 0
0.000000 0.000000 0
0.000000 0.000000 0
0.000000 0.000107 0
-0.000082 0.000312 0
-0.000242 0.000426 0
-0.000424 0.000414 0
-0.000596 0.000344 0
-0.000743 0.000262 0
-0.000862 0.000191 0
-0.000955 0.000138 0
-0.001028 0.000102 0
-0.001086 0.000078 0
-0.001133 0.000063 0
-0.001173 0.000053 0
-0.001208 0.000046 0
-0.001238 0.000041 0
-0.001266 0.000037 0
-0.001290 0.000033 0
-0.001313 0.000031 0
-0.001333 0.000028 0
-0.001352 0.000026 0
-0.001369 0.000024 0
-0.001385 0.000022 0
-0.001399 0.000020 0
-0.001412 0.000019 0
-0.001424 0.000018 0
-0.001436 0.000017 0
-0.001446 0.000016 0
-0.001456 0.000015 0
-0.001465 0.000014 0
-0.001474 0.000013 0
-0.001482 0.000012 0
-0.001489 0.000011 0
-0.001496 0.000011 0
-0.001503 0.000010 0
-0.001509 0.000010 0
-0.001514 0.000010 0
-0.001519 0.000009 0
-0.001524 0.000008 0
-0.001528 0.000006 0
-0.001530 0.000003 0
-0.001530 -0.000002 0
-0.001528 -0.000008 0
-0.001523 -0.000014 0
-0.001516 -0.000020 0
-0.001506 -0.000022 0
-0.001498 -0.000017 0
-0.001494 -0.000000 0
-0.001501 0.000031 0
-0.001524 0.000076 0
-0.001569 0.000131 0
-0.001636 0.000185 0
-0.001719 0.000216 0
-0.001799 0.000198 0
-0.001845 0.000097 0
-0.001814 -0.000113 0
-0.001657 -0.000436 0
-0.001338 -0.000822 0
-0.000865 -0.001114 0
-0.000335 -0.001004 0
0.000000 -0.000399 0
0.000000 0.001337 0
-0.000359 0.002449 0
-0.000935 0.001582 0
-0.001377 0.000533 0
-0.001619 -0.000060 0
-0.001707 -0.000305 0
-0.001705 -0.000374 0
-0.001658 -0.000369 0
-0.001589 -0.000339 0
-0.001514 -0.000304 0
-0.001437 -0.000273 0
-0.001362 -0.000247 0
-0.001290 -0.000225 0
-0.001221 -0.000208 0
-0.001154 -0.000194 0
-0.001090 -0.000182 0
-0.001028 -0.000172 0
-0.000969 -0.000164 0
-0.000911 -0.000157 0
-0.000854 -0.000151 0
-0.000799 -0.000146 0
-0.000745 -0.000141 0
-0.000693 -0.000137 0
-0.000641 -0.000133 0
-0.000590 -0.000130 0
-0.000540 -0.000126 0
-0.000491 -0.000123 0
-0.000443 -0.000121 0
-0.000395 -0.000120 0
-0.000346 -0.000121 0
-0.000297 -0.000126 0
-0.000245 -0.000134 0
-0.000191 -0.000145 0
-0.000134 -0.000153 0
-0.000076 -0.000145 0
-0.000026 -0.000101 0
0.000000 -0.000034 0
0.000000 0.000000 0
0.000000 0.000000 0
0.000000 0.000000 0
0.000000 0.000144 0
-0.000064 0.000424 0
-0.000197 0.000589 0
-0.000357 0.000588 0
-0.000516 0.000505 0
-0.000659 0.000399 0
-0.000780 0.000303 0
-0.000881 0.000228 0
-0.000964 0.000175 0
-0.001032 0.000138 0
-0.001090 0.000113 0
-0.001141 0.000096 0
-0.001185 0.000084 0
-0.001225 0.000075 0
-0.001261 0.000067 0
-0.001294 0.000061 0
-0.001324 0.000056 0
-0.001351 0.000051 0
-0.001376 0.000047 0
-0.001399 0.000043 0
-0.001420 0.000039 0
-0.001439 0.000036 0
-0.001457 0.000034 0
-0.001473 0.000031 0
-0.001488 0.000029 0
-0.001501 0.000027 0
-0.001514 0.000025 0
-0.001526 0.000024 0
-0.001537 0.000022 0
-0.001548 0.000021 0
-0.001557 0.000019 0
-0.001566 0.000018 0
-0.001575 0.000017 0
-0.001583 0.000016 0
-0.001590 0.000016 0
-0.001597 0.000014 0
-0.001603 0.000012 0
-0.001608 0.000009 0
-0.001611 0.000004 0
-0.001613 -0.000002 0
-0.001613 -0.000011 0
-0.001610 -0.000020 0
-0.001605 -0.000028 0
-0.001597 -0.000030 0
-0.001591 -0.000023 0
-0.001589 0.000001 0
-0.001596 0.000046 0
-0.001618 0.000109 0
-0.001659 0.000186 0
-0.001721 0.000257 0
-0.001795 0.000293 0
-0.001863 0.000254 0
-0.001895 0.000095 0
-0.001847 -0.000220 0
-0.001672 -0.000689 0
-0.001337 -0.001232 0
-0.000856 -0.001626 0
-0.000327 -0.001440 0
0.000000 -0.000566 0
0.000000 0.001485 0
-0.000254 0.002862 0
-0.000737 0.002065 0
-0.001154 0.000882 0
-0.001417 0.000129 0
-0.001544 -0.000235 0
-0.001582 -0.000376 0
-0.001569 -0.000409 0
-0.001529 -0.000397 0
-0.001475 -0.000371 0
-0.001415 -0.000342 0
-0.001353 -0.000315 0
-0.001291 -0.000293 0
-0.001229 -0.000274 0
-0.001168 -0.000258 0
-0.001108 -0.000244 0
-0.001050 -0.000233 0
-0.000992 -0.000223 0
-0.000935 -0.000214 0
-0.000879 -0.000207 0
-0.000824 -0.000201 0
-0.000770 -0.000195 0
-0.000716 -0.000191 0
-0.000664 -0.000186 0
-0.000611 -0.000182 0
-0.000560 -0.000178 0
-0.000509 -0.000174 0
-0.000458 -0.000171 0
-0.000408 -0.000170 0
-0.000357 -0.000172 0
-0.000306 -0.000178 0
-0.000252 -0.000189 0
-0.000195 -0.000203 0
-0.000136 -0.000212 0
-0.000077 -0.000200 0
-0.000026 -0.000140 0
0.000000 -0.000047 0
0.000000 0.000000 0
0.000000 0.000000 0
0.000000 0.000000 0
0.000000 0.000171 0
-0.000042 0.000508 0
-0.000137 0.000718 0
-0.000258 0.000733 0
-0.000387 0.000646 0
-0.000509 0.000527 0
-0.000619 0.000413 0
-0.000714 0.000321 0
-0.000796 0.000253 0
-0.000867 0.000205 0
-0.000930 0.000172 0
-0.000987 0.000148 0
-0.001038 0.000130 0
-0.001085 0.000117 0
-0.001128 0.000106 0
-0.001168 0.000096 0
-0.001205 0.000088 0
-0.001239 0.000080 0
-0.001270 0.000073 0
-0.001299 0.000067 0
-0.001325 0.000062 0
-0.001348 0.000057 0
-0.001370 0.000052 0
-0.001390 0.000049 0
-0.001408 0.000045 0
-0.001425 0.000042 0
-0.001441 0.000039 0
-0.001456 0.000036 0
-0.001470 0.000034 0
-0.001483 0.000032 0
-0.001495 0.000030 0
-0.001507 0.000028 0
-0.001517 0.000026 0
-0.001528 0.000025 0
-0.001537 0.000023 0
-0.001546 0.000021 0
-0.001555 0.000019 0
-0.001562 0.000015 0
-0.001569 0.000008 0
-0.001574 -0.000000 0
-0.001577 -0.000011 0
-0.001579 -0.000023 0
-0.001578 -0.000033 0
-0.001575 -0.000036 0
-0.001573 -0.000026 0
-0.001573 0.000005 0
-0.001581 0.000060 0
-0.001601 0.000139 0
-0.001638 0.000234 0
-0.001691 0.000320 0
-0.001754 0.000359 0
-0.001811 0.000298 0
-0.001831 0.000080 0
-0.001776 -0.000337 0
-0.001600 -0.000946 0
-0.001274 -0.001638 0
-0.000811 -0.002125 0
-0.000308 -0.001860 0
0.000000 -0.000726 0
0.000000 0.001592 0
-0.000183 0.003186 0
-0.000581 0.002483 0
-0.000954 0.001213 0
-0.001208 0.000330 0
-0.001347 -0.000139 0
-0.001404 -0.000349 0
-0.001412 -0.000422 0
-0.001393 -0.000432 0
-0.001358 -0.000417 0
-0.001315 -0.000394 0
-0.001268 -0.000371 0
-0.001219 -0.000349 0
-0.001168 -0.000330 0
-0.001116 -0.000314 0
-0.001063 -0.000300 0
-0.001011 -0.000288 0
-0.000958 -0.000278 0
-0.000906 -0.000269 0
-0.000854 -0.000261 0
-0.000802 -0.000255 0
-0.000751 -0.000249 0
-0.000700 -0.000243 0
-0.000649 -0.000238 0
-0.000598 -0.000233 0
-0.000548 -0.000229 0
-0.000498 -0.000225 0
-0.000448 -0.000221 0
-0.000399 -0.000220 0
-0.000349 -0.000223 0
-0.000298 -0.000231 0
-0.000244 -0.000244 0
-0.000189 -0.000261 0
-0.000131 -0.000271 0
-0.000074 -0.000254 0
-0.000025 -0.000178 0
0.000000 -0.000060 0
0.000000 0.000000 0
0.000000 0.000000 0
0.000000 0.000000 0
0.000000 0.000186 0
-0.000021 0.000560 0
-0.000075 0.000805 0
-0.000152 0.000837 0
-0.000240 0.000755 0
-0.000331 0.000631 0
-0.000417 0.000508 0
-0.000497 0.000406 0
-0.000570 0.000328 0
-0.000637 0.000272 0
-0.000698 0.000232 0
-0.000755 0.000204 0
-0.000810 0.000182 0
-0.000861 0.000165 0
-0.000909 0.000150 0
-0.000955 0.000138 0
-0.000998 0.000126 0
-0.001038 0.000116 0
-0.001075 0.000106 0
-0.001109 0.000097 0
-0.001140 0.000089 0
-0.001168 0.000081 0
-0.001194 0.000075 0
-0.001217 0.000069 0
-0.001239 0.000064 0
-0.001259 0.000060 0
-0.001278 0.000056 0
-0.001295 0.000052 0
-0.001312 0.000049 0
-0.001328 0.000046 0
-0.001344 0.000043 0
-0.001358 0.000040 0
-0.001372 0.000038 0
-0.001385 0.000036 0
-0.001398 0.000034 0
-0.001410 0.000031 0
-0.001422 0.000028 0
-0.001433 0.000023 0
-0.001443 0.000016 0
-0.001453 0.000006 0
-0.001462 -0.000007 0
-0.001469 -0.000020 0
-0.001474 -0.000032 0
-0.001478 -0.000036 0
-0.001481 -0.000024 0
-0.001486 0.000010 0
-0.001496 0.000073 0
-0.001515 0.000166 0
-0.001545 0.000275 0
-0.001589 0.000373 0
-0.001642 0.000413 0
-0.001687 0.000331 0
-0.001701 0.000059 0
-0.001645 -0.000452 0
-0.001479 -0.001191 0
-0.001177 -0.002021 0
-0.000749 -0.002592 0
-0.000284 -0.002251 0
0.000000 -0.000874 0
0.000000 0.001669 0
-0.000133 0.003444 0
-0.000462 0.002837 0
-0.000787 0.001509 0
-0.001017 0.000522 0
-0.001150 -0.000038 0
-0.001211 -0.000310 0
-0.001228 -0.000420 0
-0.001221 -0.000451 0
-0.001200 -0.000448 0
-0.001171 -0.000431 0
-0.001137 -0.000412 0
-0.001100 -0.000393 0
-0.001060 -0.000376 0
-0.001018 -0.000362 0
-0.000975 -0.000349 0
-0.000930 -0.000337 0
-0.000885 -0.000327 0
-0.000839 -0.000319 0
-0.000793 -0.000311 0
-0.000747 -0.000304 0
-0.000700 -0.000298 0
-0.000653 -0.000292 0
-0.000606 -0.000287 0
-0.000559 -0.000282 0
-0.000512 -0.000277 0
-0.000466 -0.000273 0
-0.000419 -0.000270 0
-0.000372 -0.000269 0
-0.000325 -0.000273 0
-0.000277 -0.000282 0
-0.000227 -0.000298 0
-0.000174 -0.000316 0
-0.000120 -0.000327 0
-0.000067 -0.000306 0
-0.000022 -0.000213 0
0.000000 -0.000072 0
0.000000 0.000000 0
0.000000 0.000000 0
0.000000 0.000000 0
0.000000 0.000191 0
-0.000002 0.000582 0
-0.000018 0.000848 0
-0.000051 0.000898 0
-0.000096 0.000825 0
-0.000149 0.000704 0
-0.000207 0.000580 0
-0.000264 0.000474 0
-0.000321 0.000392 0
-0.000376 0.000333 0
-0.000430 0.000290 0
-0.000484 0.000259 0
-0.000537 0.000235 0
-0.000589 0.000216 0
-0.000639 0.000199 0
-0.000689 0.000184 0
-0.000736 0.000170 0
-0.000782 0.000157 0
-0.000824 0.000144 0
-0.000864 0.000132 0
-0.000900 0.000121 0
-0.000934 0.000111 0
-0.000964 0.000102 0
-0.000991 0.000093 0
-0.001016 0.000087 0
-0.001039 0.000081 0
-0.001060 0.000075 0
-0.001080 0.000071 0
-0.001100 0.000067 0
-0.001119 0.000063 0
-0.001137 0.000059 0
-0.001155 0.000056 0
-0.001172 0.000053 0
-0.001189 0.000050 0
-0.001205 0.000048 0
-0.001221 0.000045 0
-0.001237 0.000041 0
-0.001252 0.000036 0
-0.001267 0.000029 0
-0.001282 0.000018 0
-0.001297 0.000004 0
-0.001311 -0.000011 0
-0.001323 -0.000024 0
-0.001335 -0.000029 0
-0.001345 -0.000017 0
-0.001355 0.000019 0
-0.001367 0.000088 0
-0.001385 0.000188 0
-0.001411 0.000309 0
-0.001446 0.000416 0
-0.001488 0.000457 0
-0.001524 0.000357 0
-0.001532 0.000037 0
-0.001481 -0.000558 0
-0.001333 -0.001414 0
-0.001064 -0.002369 0
-0.000679 -0.003019 0
-0.000258 -0.002609 0
0.000000 -0.001010 0
0.000000 0.001726 0
-0.000099 0.003649 0
-0.000370 0.003136 0
-0.000651 0.001768 0
-0.000854 0.000694 0
-0.000972 0.000055 0
-0.001027 -0.000270 0
-0.001045 -0.000412 0
-0.001041 -0.000461 0
-0.001027 -0.000467 0
-0.001008 -0.000457 0
-0.000984 -0.000441 0
-0.000957 -0.000426 0
-0.000928 -0.000412 0
-0.000895 -0.000399 0
-0.000861 -0.000388 0
-0.000825 -0.000378 0
-0.000787 -0.000369 0
-0.000749 -0.000361 0
-0.000709 -0.000354 0
-0.000669 -0.000348 0
-0.000628 -0.000342 0
-0.000587 -0.000337 0
-0.000545 -0.000332 0
-0.000503 -0.000327 0
-0.000461 -0.000322 0
-0.000419 -0.000318 0
-0.000376 -0.000315 0
-0.000334 -0.000314 0
-0.000291 -0.000318 0
-0.000247 -0.000329 0
-0.000202 -0.000347 0
-0.000154 -0.000367 0
-0.000105 -0.000378 0
-0.000058 -0.000352 0
-0.000019 -0.000244 0
0.000000 -0.000082 0
0.000000 0.000000 0
0.000000 0.000000 0
0.000000 0.000000 0
0.000000 0.000188 0
0.000012 0.000578 0
0.000028 0.000853 0
0.000037 0.000915 0
0.000033 0.000854 0
0.000018 0.000742 0
-0.000007 0.000623 0
-0.000038 0.000520 0
-0.000074 0.000440 0
-0.000114 0.000382 0
-0.000157 0.000340 0
-0.000202 0.000310 0
-0.000249 0.000287 0
-0.000298 0.000267 0
-0.000348 0.000250 0
-0.000399 0.000234 0
-0.000449 0.000219 0
-0.000498 0.000203 0
-0.000546 0.000188 0
-0.000592 0.000173 0
-0.000634 0.000158 0
-0.000673 0.000145 0
-0.000708 0.000132 0
-0.000739 0.000121 0
-0.000767 0.000112 0
-0.000793 0.000104 0
-0.000816 0.000097 0
-0.000839 0.000092 0
-0.000861 0.000087 0
-0.000882 0.000083 0
-0.000903 0.000079 0
-0.000924 0.000075 0
-0.000945 0.000072 0
-0.000965 0.000069 0
-0.000985 0.000066 0
-0.001005 0.000063 0
-0.001025 0.000059 0
-0.001044 0.000054 0
-0.001064 0.000046 0
-0.001084 0.000036 0
-0.001105 0.000022 0
-0.001126 0.000006 0
-0.001146 -0.000008 0
-0.001165 -0.000014 0
-0.001182 -0.000004 0
-0.001198 0.000033 0
-0.001214 0.000103 0
-0.001232 0.000209 0
-0.001253 0.000336 0
-0.001281 0.000450 0
-0.001312 0.000490 0
-0.001339 0.000375 0
-0.001344 0.000016 0
-0.001300 -0.000651 0
-0.001175 -0.001608 0
-0.000943 -0.002675 0
-0.000606 -0.003398 0
-0.000232 -0.002930 0
0.000000 -0.001132 0
0.000000 0.001768 0
-0.000073 0.003814 0
-0.000300 0.003390 0
-0.000542 0.001993 0
-0.000718 0.000843 0
-0.000819 0.000135 0
-0.000864 -0.000237 0
-0.000876 -0.000406 0
-0.000871 -0.000468 0
-0.000860 -0.000481 0
-0.000845 -0.000474 0
-0.000828 -0.000462 0
-0.000809 -0.000450 0
-0.000788 -0.000438 0
-0.000764 -0.000428 0
-0.000737 -0.000419 0
-0.000709 -0.000411 0
-0.000678 -0.000403 0
-0.000647 -0.000397 0
-0.000614 -0.000391 0
-0.000580 -0.000385 0
-0.000545 -0.000380 0
-0.000509 -0.000375 0
-0.000473 -0.000371 0
-0.000437 -0.000366 0
-0.000400 -0.000361 0
-0.000363 -0.000357 0
-0.000326 -0.000354 0
-0.000289 -0.000354 0
-0.000251 -0.000359 0
-0.000213 -0.000371 0
-0.000173 -0.000391 0
-0.000131 -0.000412 0
-0.000089 -0.000423 0
-0.000048 -0.000392 0
-0.000015 -0.000271 0
0.000000 -0.000090 0
0.000000 0.000000 0
0.000000 0.000000 0
0.000000 0.000000 0
0.000000 0.000179 0
0.000022 0.000554 0
0.000063 0.000823 0
0.000106 0.000892 0