# vtk DataFile Version 2.0
generated by CFD-lab course output (written by Tobias Neckel) 
ASCII

DATASET STRUCTURED_GRID
DIMENSIONS  99 49 1 
POINTS 4851 float

0.000000 0.000000 0
0.020000 0.000000 0
0.040000 0.000000 0
0.060000 0.000000 0
0.080000 0.000000 0
0.100000 0.000000 0
0.120000 0.000000 0
0.140000 0.000000 0
0.160000 0.000000 0
0.180000 0.000000 0
0.200000 0.000000 0
0.220000 0.000000 0
0.240000 0.000000 0
0.260000 0.000000 0
0.280000 0.000000 0
0.300000 0.000000 0
0.320000 0.000000 0
0.340000 0.000000 0
0.360000 0.000000 0
0.380000 0.000000 0
0.400000 0.000000 0
0.420000 0.000000 0
0.440000 0.000000 0
0.460000 0.000000 0
0.480000 0.000000 0
0.500000 0.000000 0
0.520000 0.000000 0
0.540000 0.000000 0
0.560000 0.000000 0
0.580000 0.000000 0
0.600000 0.000000 0
0.620000 0.000000 0
0.640000 0.000000 0
0.660000 0.000000 0
0.680000 0.000000 0
0.700000 0.000000 0
0.720000 0.000000 0
0.740000 0.000000 0
0.760000 0.000000 0
0.780000 0.000000 0
0.800000 0.000000 0
0.820000 0.000000 0
0.840000 0.000000 0
0.860000 0.000000 0
0.880000 0.000000 0
0.900000 0.000000 0
0.920000 0.000000 0
0.940000 0.000000 0
0.960000 0.000000 0
0.980000 0.000000 0
1.000000 0.000000 0
1.020000 0.000000 0
1.040000 0.000000 0
1.060000 0.000000 0
1.080000 0.000000 0
1.100000 0.000000 0
1.120000 0.000000 0
1.140000 0.000000 0
1.160000 0.000000 0
1.180000 0.000000 0
1.200000 0.000000 0
1.220000 0.000000 0
1.240000 0.000000 0
1.260000 0.000000 0
1.280000 0.000000 0
1.300000 0.000000 0
1.320000 0.000000 0
1.340000 0.000000 0
1.360000 0.000000 0
1.380000 0.000000 0
1.400000 0.000000 0
1.420000 0.000000 0
1.440000 0.000000 0
1.460000 0.000000 0
1.480000 0.000000 0
1.500000 0.000000 0
1.520000 0.000000 0
1.540000 0.000000 0
1.560000 0.000000 0
1.580000 0.000000 0
1.600000 0.000000 0
1.620000 0.000000 0
1.640000 0.000000 0
1.660000 0.000000 0
1.680000 0.000000 0
1.700000 0.000000 0
1.720000 0.000000 0
1.740000 0.000000 0
1.760000 0.000000 0
1.780000 0.000000 0
1.800000 0.000000 0
1.820000 0.000000 0
1.840000 0.000000 0
1.860000 0.000000 0
1.880000 0.000000 0
1.900000 0.000000 0
1.920000 0.000000 0
1.940000 0.000000 0
1.960000 0.000000 0
0.000000 0.020000 0
0.020000 0.020000 0
0.040000 0.020000 0
0.060000 0.020000 0
0.080000 0.020000 0
0.100000 0.020000 0
0.120000 0.020000 0
0.140000 0.020000 0
0.160000 0.020000 0
0.180000 0.020000 0
0.200000 0.020000 0
0.220000 0.020000 0
0.240000 0.020000 0
0.260000 0.020000 0
0.280000 0.020000 0
0.300000 0.020000 0
0.320000 0.020000 0
0.340000 0.020000 0
0.360000 0.020000 0
0.380000 0.020000 0
0.400000 0.020000 0
0.420000 0.020000 0
0.440000 0.020000 0
0.460000 0.020000 0
0.480000 0.020000 0
0.500000 0.020000 0
0.520000 0.020000 0
0.540000 0.020000 0
0.560000 0.020000 0
0.580000 0.020000 0
0.600000 0.020000 0
0.620000 0.020000 0
0.640000 0.020000 0
0.660000 0.020000 0
0.680000 0.020000 0
0.700000 0.020000 0
0.720000 0.020000 0
0.740000 0.020000 0
0.760000 0.020000 0
0.780000 0.020000 0
0.800000 0.020000 0
0.820000 0.020000 0
0.840000 0.020000 0
0.860000 0.020000 0
0.880000 0.020000 0
0.900000 0.020000 0
0.920000 0.020000 0
0.940000 0.020000 0
0.960000 0.020000 0
0.980000 0.020000 0
1.000000 0.020000 0
1.020000 0.020000 0
1.040000 0.020000 0
1.060000 0.020000 0
1.080000 0.020000 0
1.100000 0.020000 0
1.120000 0.020000 0
1.140000 0.020000 0
1.160000 0.020000 0
1.180000 0.020000 0
1.200000 0.020000 0
1.220000 0.020000 0
1.240000 0.020000 0
1.260000 0.020000 0
1.280000 0.020000 0
1.300000 0.020000 0
1.320000 0.020000 0
1.340000 0.020000 0
1.360000 0.020000 0
1.380000 0.020000 0
1.400000 0.020000 0
1.420000 0.020000 0
1.440000 0.020000 0
1.460000 0.020000 0
1.480000 0.020000 0
1.500000 0.020000 0
1.520000 0.020000 0
1.540000 0.020000 0
1.560000 0.020000 0
1.580000 0.020000 0
1.600000 0.020000 0
1.620000 0.020000 0
1.640000 0.020000 0
1.660000 0.020000 0
1.680000 0.020000 0
1.700000 0.020000 0
1.720000 0.020000 0
1.740000 0.020000 0
1.760000 0.020000 0
1.780000 0.020000 0
1.800000 0.020000 0
1.820000 0.020000 0
1.840000 0.020000 0
1.860000 0.020000 0
1.880000 0.020000 0
1.900000 0.020000 0
1.920000 0.020000 0
1.940000 0.020000 0
1.960000 0.020000 0
0.000000 0.040000 0
0.020000 0.040000 0
0.040000 0.040000 0
0.060000 0.040000 0
0.080000 0.040000 0
0.100000 0.040000 0
0.120000 0.040000 0
0.140000 0.040000 0
0.160000 0.040000 0
0.180000 0.040000 0
0.200000 0.040000 0
0.220000 0.040000 0
0.240000 0.040000 0
0.260000 0.040000 0
0.280000 0.040000 0
0.300000 0.040000 0
0.320000 0.040000 0
0.340000 0.040000 0
0.360000 0.040000 0
0.380000 0.040000 0
0.400000 0.040000 0
0.420000 0.040000 0
0.440000 0.040000 0
0.460000 0.040000 0
0.480000 0.040000 0
0.500000 0.040000 0
0.520000 0.040000 0
0.540000 0.040000 0
0.560000 0.040000 0
0.580000 0.040000 0
0.600000 0.040000 0
0.620000 0.040000 0
0.640000 0.040000 0
0.660000 0.040000 0
0.680000 0.040000 0
0.700000 0.040000 0
0.720000 0.040000 0
0.740000 0.040000 0
0.760000 0.040000 0
0.780000 0.040000 0
0.800000 0.040000 0
0.820000 0.040000 0
0.840000 0.040000 0
0.860000 0.040000 0
0.880000 0.040000 0
0.900000 0.040000 0
0.920000 0.040000 0
0.940000 0.040000 0
0.960000 0.040000 0
0.980000 0.040000 0
1.000000 0.040000 0
1.020000 0.040000 0
1.040000 0.040000 0
1.060000 0.040000 0
1.080000 0.040000 0
1.100000 0.040000 0
1.120000 0.040000 0
1.140000 0.040000 0
1.160000 0.040000 0
1.180000 0.040000 0
1.200000 0.040000 0
1.220000 0.040000 0
1.240000 0.040000 0
1.260000 0.040000 0
1.280000 0.040000 0
1.300000 0.040000 0
1.320000 0.040000 0
1.340000 0.040000 0
1.360000 0.040000 0
1.380000 0.040000 0
1.400000 0.040000 0
1.420000 0.040000 0
1.440000 0.040000 0
1.460000 0.040000 0
1.480000 0.040000 0
1.500000 0.040000 0
1.520000 0.040000 0
1.540000 0.040000 0
1.560000 0.040000 0
1.580000 0.040000 0
1.600000 0.040000 0
1.620000 0.040000 0
1.640000 0.040000 0
1.660000 0.040000 0
1.680000 0.040000 0
1.700000 0.040000 0
1.720000 0.040000 0
1.740000 0.040000 0
1.760000 0.040000 0
1.780000 0.040000 0
1.800000 0.040000 0
1.820000 0.040000 0
1.840000 0.040000 0
1.860000 0.040000 0
1.880000 0.040000 0
1.900000 0.040000 0
1.920000 0.040000 0
1.940000 0.040000 0
1.960000 0.040000 0
0.000000 0.060000 0
0.020000 0.060000 0
0.040000 0.060000 0
0.060000 0.060000 0
0.080000 0.060000 0
0.100000 0.060000 0
0.120000 0.060000 0
0.140000 0.060000 0
0.160000 0.060000 0
0.180000 0.060000 0
0.200000 0.060000 0
0.220000 0.060000 0
0.240000 0.060000 0
0.260000 0.060000 0
0.280000 0.060000 0
0.300000 0.060000 0
0.320000 0.060000 0
0.340000 0.060000 0
0.360000 0.060000 0
0.380000 0.060000 0
0.400000 0.060000 0
0.420000 0.060000 0
0.440000 0.060000 0
0.460000 0.060000 0
0.480000 0.060000 0
0.500000 0.060000 0
0.520000 0.060000 0
0.540000 0.060000 0
0.560000 0.060000 0
0.580000 0.060000 0
0.600000 0.060000 0
0.620000 0.060000 0
0.640000 0.060000 0
0.660000 0.060000 0
0.680000 0.060000 0
0.700000 0.060000 0
0.720000 0.060000 0
0.740000 0.060000 0
0.760000 0.060000 0
0.780000 0.060000 0
0.800000 0.060000 0
0.820000 0.060000 0
0.840000 0.060000 0
0.860000 0.060000 0
0.880000 0.060000 0
0.900000 0.060000 0
0.920000 0.060000 0
0.940000 0.060000 0
0.960000 0.060000 0
0.980000 0.060000 0
1.000000 0.060000 0
1.020000 0.060000 0
1.040000 0.060000 0
1.060000 0.060000 0
1.080000 0.060000 0
1.100000 0.060000 0
1.120000 0.060000 0
1.140000 0.060000 0
1.160000 0.060000 0
1.180000 0.060000 0
1.200000 0.060000 0
1.220000 0.060000 0
1.240000 0.060000 0
1.260000 0.060000 0
1.280000 0.060000 0
1.300000 0.060000 0
1.320000 0.060000 0
1.340000 0.060000 0
1.360000 0.060000 0
1.380000 0.060000 0
1.400000 0.060000 0
1.420000 0.060000 0
1.440000 0.060000 0
1.460000 0.060000 0
1.480000 0.060000 0
1.500000 0.060000 0
1.520000 0.060000 0
1.540000 0.060000 0
1.560000 0.060000 0
1.580000 0.060000 0
1.600000 0.060000 0
1.620000 0.060000 0
1.640000 0.060000 0
1.660000 0.060000 0
1.680000 0.060000 0
1.700000 0.060000 0
1.720000 0.060000 0
1.740000 0.060000 0
1.760000 0.060000 0
1.780000 0.060000 0
1.800000 0.060000 0
1.820000 0.060000 0
1.840000 0.060000 0
1.860000 0.060000 0
1.880000 0.060000 0
1.900000 0.060000 0
1.920000 0.060000 0
1.940000 0.060000 0
1.960000 0.060000 0
0.000000 0.080000 0
0.020000 0.080000 0
0.040000 0.080000 0
0.060000 0.080000 0
0.080000 0.080000 0
0.100000 0.080000 0
0.120000 0.080000 0
0.140000 0.080000 0
0.160000 0.080000 0
0.180000 0.080000 0
0.200000 0.080000 0
0.220000 0.080000 0
0.240000 0.080000 0
0.260000 0.080000 0
0.280000 0.080000 0
0.300000 0.080000 0
0.320000 0.080000 0
0.340000 0.080000 0
0.360000 0.080000 0
0.380000 0.080000 0
0.400000 0.080000 0
0.420000 0.080000 0
0.440000 0.080000 0
0.460000 0.080000 0
0.480000 0.080000 0
0.500000 0.080000 0
0.520000 0.080000 0
0.540000 0.080000 0
0.560000 0.080000 0
0.580000 0.080000 0
0.600000 0.080000 0
0.620000 0.080000 0
0.640000 0.080000 0
0.660000 0.080000 0
0.680000 0.080000 0
0.700000 0.080000 0
0.720000 0.080000 0
0.740000 0.080000 0
0.760000 0.080000 0
0.780000 0.080000 0
0.800000 0.080000 0
0.820000 0.080000 0
0.840000 0.080000 0
0.860000 0.080000 0
0.880000 0.080000 0
0.900000 0.080000 0
0.920000 0.080000 0
0.940000 0.080000 0
0.960000 0.080000 0
0.980000 0.080000 0
1.000000 0.080000 0
1.020000 0.080000 0
1.040000 0.080000 0
1.060000 0.080000 0
1.080000 0.080000 0
1.100000 0.080000 0
1.120000 0.080000 0
1.140000 0.080000 0
1.160000 0.080000 0
1.180000 0.080000 0
1.200000 0.080000 0
1.220000 0.080000 0
1.240000 0.080000 0
1.260000 0.080000 0
1.280000 0.080000 0
1.300000 0.080000 0
1.320000 0.080000 0
1.340000 0.080000 0
1.360000 0.080000 0
1.380000 0.080000 0
1.400000 0.080000 0
1.420000 0.080000 0
1.440000 0.080000 0
1.460000 0.080000 0
1.480000 0.080000 0
1.500000 0.080000 0
1.520000 0.080000 0
1.540000 0.080000 0
1.560000 0.080000 0
1.580000 0.080000 0
1.600000 0.080000 0
1.620000 0.080000 0
1.640000 0.080000 0
1.660000 0.080000 0
1.680000 0.080000 0
1.700000 0.080000 0
1.720000 0.080000 0
1.740000 0.080000 0
1.760000 0.080000 0
1.780000 0.080000 0
1.800000 0.080000 0
1.820000 0.080000 0
1.840000 0.080000 0
1.860000 0.080000 0
1.880000 0.080000 0
[...]
POINT_DATA 4851 

VECTORS velocity float
0.000000 0.000000 0
-0.000424 0.000000 0
-0.000562 0.000000 0
-0.000515 0.000000 0
-0.000431 0.000000 0
-0.000358 0.000000 0
-0.000303 0.000000 0
-0.000264 0.000000 0
-0.000234 0.000000 0
-0.000211 0.000000 0
-0.000193 0.000000 0
-0.000178 0.000000 0
-0.000165 0.000000 0
-0.000153 0.000000 0
-0.000142 0.000000 0
-0.000133 0.000000 0
-0.000124 0.000000 0
-0.000116 0.000000 0
-0.000108 0.000000 0
-0.000101 0.000000 0
-0.000094 0.000000 0
-0.000087 0.000000 0
-0.000080 0.000000 0
-0.000074 0.000000 0
-0.000068 0.000000 0
-0.000063 0.000000 0
-0.000057 0.000000 0
-0.000052 0.000000 0
-0.000047 0.000000 0
-0.000042 0.000000 0
-0.000037 0.000000 0
-0.000031 0.000000 0
-0.000025 0.000000 0
-0.000018 0.000000 0
-0.000010 0.000000 0
-0.000003 0.000000 0
0.000000 0.000000 0
0.000000 0.000000 0
0.000000 0.000000 0
0.000000 0.000000 0
0.000000 0.000000 0
-0.000023 0.000000 0
-0.000069 0.000000 0
-0.000116 0.000000 0
-0.000152 0.000000 0
-0.000176 0.000000 0
-0.000191 0.000000 0
-0.000200 0.000000 0
-0.000206 0.000000 0
-0.000210 0.000000 0
-0.000213 0.000000 0
-0.000215 0.000000 0
-0.000217 0.000000 0
-0.000220 0.000000 0
-0.000221 0.000000 0
-0.000223 0.000000 0
-0.000225 0.000000 0
-0.000227 0.000000 0
-0.000228 0.000000 0
-0.000229 0.000000 0
-0.000231 0.000000 0
-0.000232 0.000000 0
-0.000233 0.000000 0
-0.000234 0.000000 0
-0.000235 0.000000 0
-0.000236 0.000000 0
-0.000237 0.000000 0
-0.000238 0.000000 0
-0.000239 0.000000 0
-0.000240 0.000000 0
-0.000241 0.000000 0
-0.000242 0.000000 0
-0.000242 0.000000 0
-0.000243 0.000000 0
-0.000244 0.000000 0
-0.000245 0.000000 0
-0.000246 0.000000 0
-0.000247 0.000000 0
-0.000248 0.000000 0
-0.000248 0.000000 0
-0.000248 0.000000 0
-0.000248 0.000000 0
-0.000246 0.000000 0
-0.000244 0.000000 0
-0.000242 0.000000 0
-0.000240 0.000000 0
-0.000240 0.000000 0
-0.000244 0.000000 0
-0.000253 0.000000 0
-0.000269 0.000000 0
-0.000292 0.000000 0
-0.000320 0.000000 0
-0.000347 0.000000 0
-0.000365 0.000000 0
-0.000358 0.000000 0
-0.000311 0.000000 0
-0.000216 0.000000 0
-0.000089 0.000000 0
0.000000 0.000000 0
0.000000 0.000425 0
-0.000844 0.000563 0
-0.001304 0.000092 0
-0.001357 -0.000130 0
-0.001247 -0.000157 0
-0.001107 -0.000127 0
-0.000980 -0.000093 0
-0.000875 -0.000068 0
-0.000791 -0.000052 0
-0.000721 -0.000041 0
-0.000663 -0.000033 0
-0.000614 -0.000028 0
-0.000570 -0.000024 0
-0.000531 -0.000022 0
-0.000496 -0.000019 0
-0.000464 -0.000018 0
-0.000434 -0.000016 0
-0.000406 -0.000015 0
-0.000379 -0.000014 0
-0.000353 -0.000014 0
-0.000329 -0.000013 0
-0.000306 -0.000012 0
-0.000283 -0.000012 0
-0.000262 -0.000011 0
-0.000241 -0.000011 0
-0.000221 -0.000011 0
-0.000201 -0.000010 0
-0.000182 -0.000010 0
-0.000164 -0.000009 0
-0.000146 -0.000009 0
-0.000127 -0.000010 0
-0.000107 -0.000011 0
-0.000085 -0.000013 0
-0.000059 -0.000015 0
-0.000033 -0.000014 0
-0.000010 -0.000009 0
0.000000 -0.000002 0
0.000000 0.000000 0
0.000000 0.000000 0
0.000000 0.000000 0
0.000000 0.000023 0
-0.000068 0.000069 0
-0.000197 0.000092 0
-0.000332 0.000082 0
-0.000443 0.000060 0
-0.000525 0.000039 0
-0.000581 0.000023 0
-0.000619 0.000014 0
-0.000645 0.000009 0
-0.000664 0.000006 0
-0.000679 0.000005 0
-0.000691 0.000004 0
-0.000702 0.000004 0
-0.000712 0.000004 0
-0.000720 0.000003 0
-0.000728 0.000003 0
-0.000735 0.000003 0
-0.000742 0.000003 0
-0.000748 0.000002 0
-0.000753 0.000002 0
-0.000759 0.000002 0
-0.000764 0.000002 0
-0.000768 0.000002 0
-0.000773 0.000002 0
-0.000777 0.000002 0
-0.000781 0.000002 0
-0.000784 0.000001 0
-0.000788 0.000001 0
-0.000791 0.000001 0
-0.000794 0.000001 0
-0.000797 0.000001 0
-0.000800 0.000001 0
-0.000802 0.000001 0
-0.000805 0.000001 0
-0.000808 0.000001 0
-0.000811 0.000001 0
-0.000813 0.000001 0
-0.000816 0.000001 0
-0.000818 0.000001 0
-0.000818 0.000000 0
-0.000818 -0.000001 0
-0.000815 -0.000002 0
-0.000811 -0.000004 0
-0.000804 -0.000005 0
-0.000797 -0.000005 0
-0.000793 -0.000002 0
-0.000794 0.000003 0
-0.000807 0.000012 0
-0.000835 0.000025 0
-0.000883 0.000039 0
-0.000948 0.000051 0
-0.001022 0.000055 0
-0.001087 0.000044 0
-0.001114 0.000010 0
-0.001064 -0.000054 0
-0.000900 -0.000142 0
-0.000609 -0.000223 0
-0.000247 -0.000216 0
0.000000 -0.000089 0
0.000000 0.000845 0
-0.000730 0.001306 0
-0.001406 0.000513 0
-0.001700 -0.000057 0
-0.001734 -0.000249 0
-0.001651 -0.000266 0
-0.001532 -0.000230 0
-0.001410 -0.000188 0
-0.001300 -0.000153 0
-0.001202 -0.000126 0
-0.001116 -0.000107 0
-0.001039 -0.000092 0
-0.000971 -0.000082 0
-0.000908 -0.000073 0
-0.000851 -0.000067 0
-0.000797 -0.000062 0
-0.000747 -0.000058 0
-0.000700 -0.000054 0
-0.000655 -0.000051 0
-0.000612 -0.000049 0
-0.000571 -0.000047 0
-0.000531 -0.000045 0
-0.000492 -0.000043 0
-0.000455 -0.000042 0
-0.000419 -0.000040 0
-0.000384 -0.000039 0
-0.000349 -0.000037 0
-0.000316 -0.000036 0
-0.000283 -0.000036 0
-0.000250 -0.000036 0
-0.000217 -0.000038 0
-0.000181 -0.000042 0
-0.000142 -0.000047 0
-0.000099 -0.000051 0
-0.000056 -0.000048 0
-0.000019 -0.000032 0
0.000000 -0.000010 0
0.000000 0.000000 0
0.000000 0.000000 0
0.000000 0.000000 0
0.000000 0.000068 0
-0.000093 0.000197 0
-0.000265 0.000263 0
-0.000452 0.000245 0
-0.000618 0.000193 0
-0.000750 0.000137 0
-0.000850 0.000094 0
-0.000922 0.000064 0
-0.000976 0.000045 0
-0.001017 0.000033 0
-0.001050 0.000027 0
-0.001077 0.000022 0
-0.001100 0.000020 0
-0.001120 0.000017 0
-0.001139 0.000016 0
-0.001155 0.000014 0
-0.001170 0.000013 0
-0.001184 0.000012 0
-0.001197 0.000011 0
-0.001208 0.000010 0
-0.001219 0.000010 0
-0.001229 0.000009 0
-0.001238 0.000008 0
-0.001246 0.000008 0
-0.001254 0.000007 0
-0.001262 0.000007 0
-0.001269 0.000007 0
-0.001275 0.000006 0
-0.001281 0.000006 0
-0.001287 0.000005 0
-0.001292 0.000005 0
-0.001297 0.000005 0
-0.001302 0.000005 0
-0.001306 0.000005 0
-0.001311 0.000005 0
-0.001315 0.000005 0
-0.001319 0.000004 0
-0.001322 0.000004 0
-0.001324 0.000002 0
-0.001324 -0.000000 0
-0.001323 -0.000004 0
-0.001318 -0.000008 0
-0.001310 -0.000012 0
-0.001300 -0.000014 0
-0.001291 -0.000012 0
-0.001285 -0.000004 0
-0.001289 0.000014 0
-0.001309 0.000041 0
-0.001352 0.000076 0
-0.001419 0.000112 0
-0.001506 0.000139 0
-0.001599 0.000138 0
-0.001667 0.000091 0
-0.001670 -0.000024 0
-0.001556 -0.000214 0
-0.001283 -0.000455 0
-0.000847 -0.000654 0
-0.000336 -0.000610 0
0.000000 -0.000247 0
0.000000 0.001155 0
-0.000529 0.001969 0
-0.001203 0.001063 0
-0.001629 0.000198 0
-0.001800 -0.000206 0
-0.001816 -0.000329 0
-0.001754 -0.000334 0
-0.001663 -0.000300 0
-0.001564 -0.000260 0
-0.001468 -0.000224 0
-0.001378 -0.000195 0
-0.001294 -0.000173 0
-0.001216 -0.000155 0
-0.001144 -0.000141 0
-0.001076 -0.000130 0
-0.001012 -0.000121 0
-0.000951 -0.000113 0
-0.000893 -0.000107 0
-0.000838 -0.000102 0
-0.000784 -0.000098 0
-0.000732 -0.000094 0
-0.000682 -0.000091 0
-0.000633 -0.000088 0
-0.000585 -0.000085 0
-0.000539 -0.000082 0
-0.000494 -0.000080 0
-0.000449 -0.000077 0
-0.000406 -0.000075 0
-0.000362 -0.000075 0
-0.000319 -0.000076 0
-0.000275 -0.000079 0
-0.000228 -0.000086 0
-0.000178 -0.000094 0
-0.000124 -0.000100 0
-0.000071 -0.000094 0
-0.000024 -0.000065 0
0.000000 -0.000021 0
0.000000 0.000000 0
0.000000 0.000000 0
0.000000 0.000000 0
0.000000 0.000115 0
-0.000087 0.000333 0
-0.000256 0.000451 0
-0.000447 0.000435 0
-0.000627 0.000358 0
-0.000780 0.000270 0
-0.000902 0.000195 0
-0.000997 0.000141 0
-0.001072 0.000104 0
-0.001131 0.000080 0
-0.001179 0.000065 0
-0.001220 0.000054 0
-0.001256 0.000047 0
-0.001287 0.000042 0
-0.001315 0.000038 0
-0.001341 0.000034 0
-0.001364 0.000031 0
-0.001385 0.000029 0
-0.001404 0.000026 0
-0.001421 0.000024 0
-0.001437 0.000022 0
-0.001452 0.000021 0
-0.001466 0.000019 0
-0.001478 0.000018 0
-0.001490 0.000017 0
-0.001501 0.000016 0
-0.001511 0.000015 0
-0.001521 0.000014 0
-0.001529 0.000013 0
-0.001537 0.000012 0
-0.001545 0.000011 0
-0.001552 0.000011 0
-0.001558 0.000010 0
-0.001565 0.000010 0
-0.001570 0.000010 0
-0.001576 0.000009 0
-0.001580 0.000008 0
-0.001584 0.000006 0
-0.001587 0.000003 0
-0.001587 -0.000001 0
-0.001586 -0.000008 0
-0.001580 -0.000015 0
-0.001572 -0.000021 0
-0.001562 -0.000025 0
-0.001553 -0.000020 0
-0.001547 -0.000004 0
-0.001552 0.000027 0
-0.001575 0.000075 0
-0.001620 0.000134 0
-0.001690 0.000193 0
-0.001777 0.000230 0
-0.001864 0.000216 0
-0.001918 0.000115 0
-0.001893 -0.000102 0
-0.001735 -0.000441 0
-0.001407 -0.000852 0
-0.000913 -0.001170 0
-0.000355 -0.001063 0
0.000000 -0.000425 0
0.000000 0.001375 0
-0.000375 0.002510 0
-0.000970 0.001613 0
-0.001425 0.000541 0
-0.001673 -0.000062 0
-0.001764 -0.000312 0
-0.001762 -0.000383 0
-0.001712 -0.000378 0
-0.001642 -0.000348 0
-0.001563 -0.000313 0
-0.001483 -0.000281 0
-0.001405 -0.000254 0
-0.001330 -0.000231 0
-0.001258 -0.000213 0
-0.001189 -0.000198 0
-0.001123 -0.000186 0
-0.001059 -0.000176 0
-0.000998 -0.000167 0
-0.000938 -0.000160 0
-0.000880 -0.000154 0
-0.000823 -0.000149 0
-0.000768 -0.000144 0
-0.000713 -0.000140 0
-0.000660 -0.000136 0
-0.000608 -0.000132 0
-0.000557 -0.000128 0
-0.000506 -0.000125 0
-0.000457 -0.000123 0
-0.000407 -0.000122 0
-0.000358 -0.000124 0
-0.000307 -0.000129 0
-0.000253 -0.000139 0
-0.000197 -0.000150 0
-0.000137 -0.000157 0
-0.000078 -0.000148 0
-0.000027 -0.000103 0
0.000000 -0.000034 0
0.000000 0.000000 0
0.000000 0.000000 0
0.000000 0.000000 0
0.000000 0.000155 0
-0.000068 0.000452 0
-0.000207 0.000623 0
-0.000374 0.000616 0
-0.000539 0.000525 0
-0.000687 0.000412 0
-0.000813 0.000311 0
-0.000916 0.000233 0
-0.001000 0.000178 0
-0.001071 0.000141 0
-0.001130 0.000116 0
-0.001182 0.000099 0
-0.001227 0.000086 0
-0.001268 0.000077 0
-0.001305 0.000069 0
-0.001339 0.000063 0
-0.001370 0.000057 0
-0.001398 0.000052 0
-0.001424 0.000048 0
-0.001447 0.000044 0
-0.001469 0.000040 0
-0.001489 0.000037 0
-0.001507 0.000034 0
-0.001523 0.000032 0
-0.001539 0.000030 0
-0.001553 0.000028 0
-0.001567 0.000026 0
-0.001579 0.000024 0
-0.001590 0.000022 0
-0.001601 0.000021 0
-0.001611 0.000019 0
-0.001621 0.000018 0
-0.001629 0.000017 0
-0.001637 0.000017 0
-0.001645 0.000016 0
-0.001652 0.000015 0
-0.001658 0.000013 0
-0.001664 0.000010 0
-0.001668 0.000005 0
-0.001670 -0.000002 0
-0.001670 -0.000011 0
-0.001667 -0.000021 0
-0.001662 -0.000030 0
-0.001654 -0.000034 0
-0.001647 -0.000027 0
-0.001643 -0.000004 0
-0.001650 0.000041 0
-0.001671 0.000108 0
-0.001713 0.000190 0
-0.001777 0.000269 0
-0.001855 0.000313 0
-0.001930 0.000279 0
-0.001969 0.000119 0
-0.001925 -0.000207 0
-0.001748 -0.000700 0
-0.001403 -0.001278 0
-0.000901 -0.001706 0
-0.000346 -0.001523 0
0.000000 -0.000602 0
0.000000 0.001531 0
-0.000269 0.002940 0
-0.000771 0.002113 0
-0.001203 0.000902 0
-0.001474 0.000133 0
-0.001606 -0.000240 0
-0.001646 -0.000385 0
-0.001632 -0.000420 0
-0.001589 -0.000409 0
-0.001533 -0.000382 0
-0.001470 -0.000353 0
-0.001405 -0.000325 0
-0.001340 -0.000302 0
-0.001275 -0.000282 0
-0.001211 -0.000265 0
-0.001149 -0.000251 0
-0.001088 -0.000239 0
-0.001027 -0.000228 0
-0.000968 -0.000220 0
-0.000911 -0.000212 0
-0.000854 -0.000206 0
-0.000797 -0.000200 0
-0.000742 -0.000195 0
-0.000687 -0.000190 0
-0.000633 -0.000185 0
-0.000580 -0.000181 0
-0.000528 -0.000177 0
-0.000475 -0.000174 0
-0.000423 -0.000173 0
-0.000371 -0.000176 0
-0.000317 -0.000183 0
-0.000261 -0.000195 0
-0.000202 -0.000210 0
-0.000141 -0.000219 0
-0.000080 -0.000205 0
-0.000027 -0.000142 0
0.000000 -0.000048 0
0.000000 0.000000 0
0.000000 0.000000 0
0.000000 0.000000 0
0.000000 0.000182 0
-0.000043 0.000540 0
-0.000142 0.000757 0
-0.000268 0.000767 0
-0.000401 0.000671 0
-0.000527 0.000543 0
-0.000639 0.000424 0
-0.000737 0.000328 0
-0.000821 0.000258 0
-0.000894 0.000209 0
-0.000958 0.000175 0
-0.001016 0.000151 0
-0.001069 0.000134 0
-0.001117 0.000120 0
-0.001161 0.000108 0
-0.001202 0.000099 0
-0.001240 0.000090 0
-0.001275 0.000082 0
-0.001307 0.000075 0
-0.001337 0.000069 0
-0.001364 0.000063 0
-0.001388 0.000058 0
-0.001411 0.000054 0
-0.001431 0.000050 0
-0.001450 0.000046 0
-0.001468 0.000043 0
-0.001485 0.000040 0
-0.001500 0.000037 0
-0.001515 0.000035 0
-0.001529 0.000033 0
-0.001542 0.000030 0
-0.001554 0.000028 0
-0.001565 0.000027 0
-0.001576 0.000025 0
-0.001586 0.000024 0
-0.001596 0.000022 0
-0.001605 0.000020 0
-0.001613 0.000016 0
-0.001620 0.000010 0
-0.001626 0.000001 0
-0.001630 -0.000011 0
-0.001632 -0.000024 0
-0.001631 -0.000035 0
-0.001629 -0.000040 0
-0.001626 -0.000031 0
-0.001626 -0.000002 0
-0.001633 0.000054 0
-0.001653 0.000138 0
-0.001690 0.000240 0
-0.001745 0.000335 0
-0.001812 0.000384 0
-0.001874 0.000329 0
-0.001901 0.000110 0
-0.001848 -0.000322 0
-0.001670 -0.000963 0
-0.001335 -0.001699 0
-0.000852 -0.002228 0
-0.000324 -0.001964 0
0.000000 -0.000771 0
0.000000 0.001644 0
-0.000196 0.003282 0
-0.000614 0.002548 0
-0.001003 0.001244 0
-0.001266 0.000342 0
-0.001411 -0.000140 0
-0.001471 -0.000357 0
-0.001479 -0.000435 0
-0.001458 -0.000447 0
-0.001421 -0.000432 0
-0.001376 -0.000408 0
-0.001325 -0.000384 0
-0.001273 -0.000361 0
-0.001219 -0.000341 0
-0.001164 -0.000324 0
-0.001109 -0.000310 0
-0.001054 -0.000297 0
-0.000999 -0.000286 0
-0.000944 -0.000277 0
-0.000890 -0.000269 0
-0.000836 -0.000261 0
-0.000782 -0.000255 0
-0.000729 -0.000249 0
-0.000676 -0.000244 0
-0.000624 -0.000239 0
-0.000571 -0.000234 0
-0.000519 -0.000230 0
-0.000468 -0.000227 0
-0.000416 -0.000226 0
-0.000364 -0.000230 0
-0.000311 -0.000239 0
-0.000255 -0.000253 0
-0.000197 -0.000270 0
-0.000136 -0.000280 0
-0.000077 -0.000262 0
-0.000026 -0.000182 0
0.000000 -0.000061 0
0.000000 0.000000 0
0.000000 0.000000 0
0.000000 0.000000 0
0.000000 0.000198 0
-0.000020 0.000593 0
-0.000075 0.000847 0
-0.000153 0.000875 0
-0.000244 0.000784 0
-0.000337 0.000650 0
-0.000426 0.000521 0
-0.000507 0.000415 0
-0.000582 0.000335 0
-0.000649 0.000278 0
-0.000712 0.000238 0
-0.000771 0.000209 0
-0.000826 0.000187 0
-0.000878 0.000169 0
-0.000928 0.000154 0
-0.000975 0.000141 0
-0.001019 0.000130 0
-0.001060 0.000119 0
-0.001098 0.000109 0
-0.001133 0.000100 0
-0.001165 0.000092 0
-0.001195 0.000084 0
-0.001222 0.000077 0
-0.001246 0.000072 0
-0.001269 0.000066 0
-0.001290 0.000062 0
-0.001310 0.000058 0
-0.001329 0.000054 0
-0.001346 0.000051 0
-0.001364 0.000047 0
-0.001380 0.000044 0
-0.001395 0.000042 0
-0.001410 0.000039 0
-0.001424 0.000037 0
-0.001438 0.000035 0
-0.001451 0.000033 0
-0.001463 0.000030 0
-0.001475 0.000025 0
-0.001487 0.000018 0
-0.001497 0.000008 0
-0.001507 -0.000005 0
-0.001515 -0.000020 0
-0.001521 -0.000033 0
-0.001526 -0.000039 0
-0.001529 -0.000030 0
-0.001535 0.000003 0
-0.001544 0.000068 0
-0.001563 0.000165 0
-0.001594 0.000282 0
-0.001640 0.000391 0
-0.001695 0.000442 0
-0.001745 0.000368 0
-0.001763 0.000093 0
-0.001710 -0.000437 0
-0.001543 -0.001214 0
-0.001231 -0.002096 0
-0.000786 -0.002716 0
-0.000299 -0.002376 0
0.000000 -0.000927 0
0.000000 0.001728 0
-0.000146 0.003555 0
-0.000493 0.002920 0
-0.000833 0.001554 0
-0.001074 0.000541 0
-0.001213 -0.000035 0
-0.001277 -0.000316 0
-0.001295 -0.000433 0
-0.001287 -0.000467 0
-0.001264 -0.000465 0
-0.001233 -0.000448 0
-0.001196 -0.000428 0
-0.001156 -0.000408 0
-0.001114 -0.000390 0
-0.001069 -0.000374 0
-0.001023 -0.000360 0
-0.000976 -0.000348 0
-0.000929 -0.000338 0
-0.000880 -0.000328 0
-0.000832 -0.000320 0
-0.000783 -0.000313 0
-0.000734 -0.000307 0
-0.000685 -0.000301 0
-0.000636 -0.000295 0
-0.000587 -0.000290 0
-0.000538 -0.000285 0
-0.000489 -0.000280 0
-0.000440 -0.000277 0
-0.000391 -0.000277 0
-0.000341 -0.000281 0
-0.000291 -0.000292 0
-0.000238 -0.000309 0
-0.000183 -0.000328 0
-0.000126 -0.000339 0
-0.000070 -0.000315 0
-0.000023 -0.000219 0
0.000000 -0.000073 0
0.000000 0.000000 0
0.000000 0.000000 0
0.000000 0.000000 0
0.000000 0.000202 0
-0.000001 0.000614 0
-0.000015 0.000890 0
-0.000046 0.000936 0
-0.000092 0.000855 0
-0.000146 0.000725 0
-0.000204 0.000594 0
-0.000262 0.000484 0
-0.000319 0.000400 0
-0.000375 0.000340 0
-0.000430 0.000297 0
-0.000485 0.000265 0
-0.000539 0.000241 0
-0.000592 0.000222 0
-0.000644 0.000205 0
-0.000694 0.000189 0
-0.000743 0.000175 0
-0.000789 0.000161 0
-0.000833 0.000148 0
-0.000874 0.000136 0
-0.000911 0.000125 0
-0.000946 0.000114 0
-0.000977 0.000105 0
-0.001006 0.000097 0
-0.001032 0.000090 0
-0.001056 0.000084 0
-0.001079 0.000079 0
-0.001101 0.000074 0
-0.001121 0.000070 0
-0.001142 0.000066 0
-0.001161 0.000062 0
-0.001180 0.000059 0
-0.001199 0.000056 0
-0.001217 0.000053 0
-0.001234 0.000050 0
-0.001251 0.000047 0
-0.001268 0.000044 0
-0.001284 0.000039 0
-0.001301 0.000032 0
-0.001317 0.000021 0
-0.001333 0.000007 0
-0.001348 -0.000010 0
-0.001362 -0.000024 0
-0.001375 -0.000032 0
-0.001386 -0.000022 0
-0.001397 0.000013 0
-0.001410 0.000082 0
-0.001428 0.000188 0
-0.001455 0.000317 0
-0.001491 0.000436 0
-0.001535 0.000489 0
-0.001574 0.000397 0
-0.001586 0.000074 0
-0.001536 -0.000543 0
-0.001387 -0.001442 0
-0.001111 -0.002456 0
-0.000711 -0.003161 0
-0.000271 -0.002751 0
0.000000 -0.001069 0
0.000000 0.001790 0
-0.000110 0.003775 0
-0.000399 0.003236 0
-0.000694 0.001826 0
-0.000907 0.000722 0
-0.001031 0.000063 0
-0.001089 -0.000275 0
-0.001108 -0.000425 0
-0.001104 -0.000478 0
-0.001089 -0.000486 0
-0.001067 -0.000476 0
-0.001042 -0.000460 0
-0.001012 -0.000443 0
-0.000980 -0.000428 0
-0.000946 -0.000414 0
-0.000909 -0.000402 0
-0.000871 -0.000391 0
-0.000831 -0.000382 0
-0.000790 -0.000373 0
-0.000748 -0.000366 0
-0.000705 -0.000359 0
-0.000662 -0.000353 0
-0.000619 -0.000347 0
-0.000575 -0.000342 0
-0.000531 -0.000337 0
-0.000486 -0.000331 0
-0.000442 -0.000327 0
-0.000398 -0.000324 0
-0.000353 -0.000324 0
-0.000308 -0.000330 0
-0.000261 -0.000342 0
-0.000213 -0.000361 0
-0.000163 -0.000382 0
-0.000112 -0.000392 0
-0.000062 -0.000364 0
-0.000020 -0.000252 0
0.000000 -0.000084 0
0.000000 0.000000 0
0.000000 0.000000 0
0.000000 0.000000 0
0.000000 0.000198 0
0.000014 0.000608 0
0.000034 0.000892 0
0.000045 0.000951 0
0.000044 0.000883 0
0.000030 0.000762 0
0.000005 0.000637 0
-0.000026 0.000530 0
-0.000062 0.000448 0
-0.000101 0.000389 0
-0.000144 0.000347 0
-0.000190 0.000317 0
-0.000238 0.000293 0
-0.000287 0.000274 0
-0.000338 0.000257 0
-0.000390 0.000240 0
-0.000441 0.000225 0
-0.000491 0.000209 0
-0.000540 0.000193 0
-0.000587 0.000178 0
-0.000630 0.000164 0
-0.000670 0.000150 0
-0.000707 0.000137 0
-0.000739 0.000126 0
-0.000769 0.000117 0
-0.000796 0.000109 0
-0.000821 0.000102 0
-0.000846 0.000096 0
-0.000869 0.000092 0
-0.000892 0.000087 0
-0.000915 0.000083 0
-0.000937 0.000079 0
-0.000960 0.000076 0
-0.000981 0.000072 0
-0.001003 0.000069 0
-0.001024 0.000066 0
-0.001045 0.000063 0
-0.001066 0.000058 0
-0.001088 0.000051 0
-0.001109 0.000040 0
-0.001132 0.000026 0
-0.001154 0.000009 0
-0.001176 -0.000007 0
-0.001197 -0.000016 0
-0.001216 -0.000008 0
-0.001234 0.000027 0
-0.001251 0.000099 0
-0.001269 0.000209 0
-0.001291 0.000345 0
-0.001320 0.000471 0
-0.001352 0.000525 0
-0.001381 0.000418 0
-0.001389 0.000055 0
-0.001346 -0.000635 0
-0.001220 -0.001640 0
-0.000982 -0.002772 0
-0.000634 -0.003556 0
-0.000244 -0.003087 0
0.000000 -0.001198 0
0.000000 0.001838 0
-0.000083 0.003955 0
-0.000326 0.003504 0
-0.000581 0.002062 0
-0.000766 0.000879 0
-0.000872 0.000148 0
-0.000920 -0.000239 0
-0.000932 -0.000418 0
-0.000928 -0.000485 0
-0.000916 -0.000501 0
-0.000900 -0.000495 0
-0.000881 -0.000483 0
-0.000860 -0.000469 0
-0.000837 -0.000456 0
-0.000811 -0.000445 0
-0.000782 -0.000435 0
-0.000752 -0.000426 0
-0.000719 -0.000418 0
-0.000686 -0.000411 0
-0.000651 -0.000405 0
-0.000615 -0.000399 0
-0.000578 -0.000393 0
-0.000540 -0.000388 0
-0.000502 -0.000383 0
-0.000463 -0.000378 0
-0.000424 -0.000373 0
-0.000385 -0.000369 0
-0.000346 -0.000366 0
-0.000307 -0.000367 0
-0.000267 -0.000373 0
-0.000226 -0.000386 0
-0.000184 -0.000407 0
-0.000140 -0.000430 0
-0.000095 -0.000440 0
-0.000052 -0.000407 0
-0.000017 -0.000280 0
0.000000 -0.000093 0
0.000000 0.000000 0
0.000000 0.000000 0
0.000000 0.000000 0
0.000000 0.000188 0
0.000025 0.000580 0
0.000071 0.000858 0
0.000118 0.000926 0