# vtk DataFile Version 2.0
generated by CFD-lab course output (written by Tobias Neckel) 
ASCII

DATASET STRUCTURED_GRID
DIMENSIONS  99 49 1 
POINTS 4851 float

0.000000 0.000000 0
0.020000 0.000000 0
0.040000 0.000000 0
0.060000 0.000000 0
0.080000 0.000000 0
0.100000 0.000000 0
0.120000 0.000000 0
0.140000 0.000000 0
0.160000 0.000000 0
0.180000 0.000000 0
0.200000 0.000000 0
0.220000 0.000000 0
0.240000 0.000000 0
0.260000 0.000000 0
0.280000 0.000000 0
0.300000 0.000000 0
0.320000 0.000000 0
0.340000 0.000000 0
0.360000 0.000000 0
0.380000 0.000000 0
0.400000 0.000000 0
0.420000 0.000000 0
0.440000 0.000000 0
0.460000 0.000000 0
0.480000 0.000000 0
0.500000 0.000000 0
0.520000 0.000000 0
0.540000 0.000000 0
0.560000 0.000000 0
0.580000 0.000000 0
0.600000 0.000000 0
0.620000 0.000000 0
0.640000 0.000000 0
0.660000 0.000000 0
0.680000 0.000000 0
0.700000 0.000000 0
0.720000 0.000000 0
0.740000 0.000000 0
0.760000 0.000000 0
0.780000 0.000000 0
0.800000 0.000000 0
0.820000 0.000000 0
0.840000 0.000000 0
0.860000 0.000000 0
0.880000 0.000000 0
0.900000 0.000000 0
0.920000 0.000000 0
0.940000 0.000000 0
0.960000 0.000000 0
0.980000 0.000000 0
1.000000 0.000000 0
1.020000 0.000000 0
1.040000 0.000000 0
1.060000 0.000000 0
1.080000 0.000000 0
1.100000 0.000000 0
1.120000 0.000000 0
1.140000 0.000000 0
1.160000 0.000000 0
1.180000 0.000000 0
1.200000 0.000000 0
1.220000 0.000000 0
1.240000 0.000000 0
1.260000 0.000000 0
1.280000 0.000000 0
1.300000 0.000000 0
1.320000 0.000000 0
1.340000 0.000000 0
1.360000 0.000000 0
1.380000 0.000000 0
1.400000 0.000000 0
1.420000 0.000000 0
1.440000 0.000000 0
1.460000 0.000000 0
1.480000 0.000000 0
1.500000 0.000000 0
1.520000 0.000000 0
1.540000 0.000000 0
1.560000 0.000000 0
1.580000 0.000000 0
1.600000 0.000000 0
1.620000 0.000000 0
1.640000 0.000000 0
1.660000 0.000000 0
1.680000 0.000000 0
1.700000 0.000000 0
1.720000 0.000000 0
1.740000 0.000000 0
1.760000 0.000000 0
1.780000 0.000000 0
1.800000 0.000000 0
1.820000 0.000000 0
1.840000 0.000000 0
1.860000 0.000000 0
1.880000 0.000000 0
1.900000 0.000000 0
1.920000 0.000000 0
1.940000 0.000000 0
1.960000 0.000000 0
0.000000 0.020000 0
0.020000 0.020000 0
0.040000 0.020000 0
0.060000 0.020000 0
0.080000 0.020000 0
0.100000 0.020000 0
0.120000 0.020000 0
0.140000 0.020000 0
0.160000 0.020000 0
0.180000 0.020000 0
0.200000 0.020000 0
0.220000 0.020000 0
0.240000 0.020000 0
0.260000 0.020000 0
0.280000 0.020000 0
0.300000 0.020000 0
0.320000 0.020000 0
0.340000 0.020000 0
0.360000 0.020000 0
0.380000 0.020000 0
0.400000 0.020000 0
0.420000 0.020000 0
0.440000 0.020000 0
0.460000 0.020000 0
0.480000 0.020000 0
0.500000 0.020000 0
0.520000 0.020000 0
0.540000 0.020000 0
0.560000 0.020000 0
0.580000 0.020000 0
0.600000 0.020000 0
0.620000 0.020000 0
0.640000 0.020000 0
0.660000 0.020000 0
0.680000 0.020000 0
0.700000 0.020000 0
0.720000 0.020000 0
0.740000 0.020000 0
0.760000 0.020000 0
0.780000 0.020000 0
0.800000 0.020000 0
0.820000 0.020000 0
0.840000 0.020000 0
0.860000 0.020000 0
0.880000 0.020000 0
0.900000 0.020000 0
0.920000 0.020000 0
0.940000 0.020000 0
0.960000 0.020000 0
0.980000 0.020000 0
1.000000 0.020000 0
1.020000 0.020000 0
1.040000 0.020000 0
1.060000 0.020000 0
1.080000 0.020000 0
1.100000 0.020000 0
1.120000 0.020000 0
1.140000 0.020000 0
1.160000 0.020000 0
1.180000 0.020000 0
1.200000 0.020000 0
1.220000 0.020000 0
1.240000 0.020000 0
1.260000 0.020000 0
1.280000 0.020000 0
1.300000 0.020000 0
1.320000 0.020000 0
1.340000 0.020000 0
1.360000 0.020000 0
1.380000 0.020000 0
1.400000 0.020000 0
1.420000 0.020000 0
1.440000 0.020000 0
1.460000 0.020000 0
1.480000 0.020000 0
1.500000 0.020000 0
1.520000 0.020000 0
1.540000 0.020000 0
1.560000 0.020000 0
1.580000 0.020000 0
1.600000 0.020000 0
1.620000 0.020000 0
1.640000 0.020000 0
1.660000 0.020000 0
1.680000 0.020000 0
1.700000 0.020000 0
1.720000 0.020000 0
1.740000 0.020000 0
1.760000 0.020000 0
1.780000 0.020000 0
1.800000 0.020000 0
1.820000 0.020000 0
1.840000 0.020000 0
1.860000 0.020000 0
1.880000 0.020000 0
1.900000 0.020000 0
1.920000 0.020000 0
1.940000 0.020000 0
1.960000 0.020000 0
0.000000 0.040000 0
0.020000 0.040000 0
0.040000 0.040000 0
0.060000 0.040000 0
0.080000 0.040000 0
0.100000 0.040000 0
0.120000 0.040000 0
0.140000 0.040000 0
0.160000 0.040000 0
0.180000 0.040000 0
0.200000 0.040000 0
0.220000 0.040000 0
0.240000 0.040000 0
0.260000 0.040000 0
0.280000 0.040000 0
0.300000 0.040000 0
0.320000 0.040000 0
0.340000 0.040000 0
0.360000 0.040000 0
0.380000 0.040000 0
0.400000 0.040000 0
0.420000 0.040000 0
0.440000 0.040000 0
0.460000 0.040000 0
0.480000 0.040000 0
0.500000 0.040000 0
0.520000 0.040000 0
0.540000 0.040000 0
0.560000 0.040000 0
0.580000 0.040000 0
0.600000 0.040000 0
0.620000 0.040000 0
0.640000 0.040000 0
0.660000 0.040000 0
0.680000 0.040000 0
0.700000 0.040000 0
0.720000 0.040000 0
0.740000 0.040000 0
0.760000 0.040000 0
0.780000 0.040000 0
0.800000 0.040000 0
0.820000 0.040000 0
0.840000 0.040000 0
0.860000 0.040000 0
0.880000 0.040000 0
0.900000 0.040000 0
0.920000 0.040000 0
0.940000 0.040000 0
0.960000 0.040000 0
0.980000 0.040000 0
1.000000 0.040000 0
1.020000 0.040000 0
1.040000 0.040000 0
1.060000 0.040000 0
1.080000 0.040000 0
1.100000 0.040000 0
1.120000 0.040000 0
1.140000 0.040000 0
1.160000 0.040000 0
1.180000 0.040000 0
1.200000 0.040000 0
1.220000 0.040000 0
1.240000 0.040000 0
1.260000 0.040000 0
1.280000 0.040000 0
1.300000 0.040000 0
1.320000 0.040000 0
1.340000 0.040000 0
1.360000 0.040000 0
1.380000 0.040000 0
1.400000 0.040000 0
1.420000 0.040000 0
1.440000 0.040000 0
1.460000 0.040000 0
1.480000 0.040000 0
1.500000 0.040000 0
1.520000 0.040000 0
1.540000 0.040000 0
1.560000 0.040000 0
1.580000 0.040000 0
1.600000 0.040000 0
1.620000 0.040000 0
1.640000 0.040000 0
1.660000 0.040000 0
1.680000 0.040000 0
1.700000 0.040000 0
1.720000 0.040000 0
1.740000 0.040000 0
1.760000 0.040000 0
1.780000 0.040000 0
1.800000 0.040000 0
1.820000 0.040000 0
1.840000 0.040000 0
1.860000 0.040000 0
1.880000 0.040000 0
1.900000 0.040000 0
1.920000 0.040000 0
1.940000 0.040000 0
1.960000 0.040000 0
0.000000 0.060000 0
0.020000 0.060000 0
0.040000 0.060000 0
0.060000 0.060000 0
0.080000 0.060000 0
0.100000 0.060000 0
0.120000 0.060000 0
0.140000 0.060000 0
0.160000 0.060000 0
0.180000 0.060000 0
0.200000 0.060000 0
0.220000 0.060000 0
0.240000 0.060000 0
0.260000 0.060000 0
0.280000 0.060000 0
0.300000 0.060000 0
0.320000 0.060000 0
0.340000 0.060000 0
0.360000 0.060000 0
0.380000 0.060000 0
0.400000 0.060000 0
0.420000 0.060000 0
0.440000 0.060000 0
0.460000 0.060000 0
0.480000 0.060000 0
0.500000 0.060000 0
0.520000 0.060000 0
0.540000 0.060000 0
0.560000 0.060000 0
0.580000 0.060000 0
0.600000 0.060000 0
0.620000 0.060000 0
0.640000 0.060000 0
0.660000 0.060000 0
0.680000 0.060000 0
0.700000 0.060000 0
0.720000 0.060000 0
0.740000 0.060000 0
0.760000 0.060000 0
0.780000 0.060000 0
0.800000 0.060000 0
0.820000 0.060000 0
0.840000 0.060000 0
0.860000 0.060000 0
0.880000 0.060000 0
0.900000 0.060000 0
0.920000 0.060000 0
0.940000 0.060000 0
0.960000 0.060000 0
0.980000 0.060000 0
1.000000 0.060000 0
1.020000 0.060000 0
1.040000 0.060000 0
1.060000 0.060000 0
1.080000 0.060000 0
1.100000 0.060000 0
1.120000 0.060000 0
1.140000 0.060000 0
1.160000 0.060000 0
1.180000 0.060000 0
1.200000 0.060000 0
1.220000 0.060000 0
1.240000 0.060000 0
1.260000 0.060000 0
1.280000 0.060000 0
1.300000 0.060000 0
1.320000 0.060000 0
1.340000 0.060000 0
1.360000 0.060000 0
1.380000 0.060000 0
1.400000 0.060000 0
1.420000 0.060000 0
1.440000 0.060000 0
1.460000 0.060000 0
1.480000 0.060000 0
1.500000 0.060000 0
1.520000 0.060000 0
1.540000 0.060000 0
1.560000 0.060000 0
1.580000 0.060000 0
1.600000 0.060000 0
1.620000 0.060000 0
1.640000 0.060000 0
1.660000 0.060000 0
1.680000 0.060000 0
1.700000 0.060000 0
1.720000 0.060000 0
1.740000 0.060000 0
1.760000 0.060000 0
1.780000 0.060000 0
1.800000 0.060000 0
1.820000 0.060000 0
1.840000 0.060000 0
1.860000 0.060000 0
1.880000 0.060000 0
1.900000 0.060000 0
1.920000 0.060000 0
1.940000 0.060000 0
1.960000 0.060000 0
0.000000 0.080000 0
0.020000 0.080000 0
0.040000 0.080000 0
0.060000 0.080000 0
0.080000 0.080000 0
0.100000 0.080000 0
0.120000 0.080000 0
0.140000 0.080000 0
0.160000 0.080000 0
0.180000 0.080000 0
0.200000 0.080000 0
0.220000 0.080000 0
0.240000 0.080000 0
0.260000 0.080000 0
0.280000 0.080000 0
0.300000 0.080000 0
0.320000 0.080000 0
0.340000 0.080000 0
0.360000 0.080000 0
0.380000 0.080000 0
0.400000 0.080000 0
0.420000 0.080000 0
0.440000 0.080000 0
0.460000 0.080000 0
0.480000 0.080000 0
0.500000 0.080000 0
0.520000 0.080000 0
0.540000 0.080000 0
0.560000 0.080000 0
0.580000 0.080000 0
0.600000 0.080000 0
0.620000 0.080000 0
0.640000 0.080000 0
0.660000 0.080000 0
0.680000 0.080000 0
0.700000 0.080000 0
0.720000 0.080000 0
0.740000 0.080000 0
0.760000 0.080000 0
0.780000 0.080000 0
0.800000 0.080000 0
0.820000 0.080000 0
0.840000 0.080000 0
0.860000 0.080000 0
0.880000 0.080000 0
0.900000 0.080000 0
0.920000 0.080000 0
0.940000 0.080000 0
0.960000 0.080000 0
0.980000 0.080000 0
1.000000 0.080000 0
1.020000 0.080000 0
1.040000 0.080000 0
1.060000 0.080000 0
1.080000 0.080000 0
1.100000 0.080000 0
1.120000 0.080000 0
1.140000 0.080000 0
1.160000 0.080000 0
1.180000 0.080000 0
1.200000 0.080000 0
1.220000 0.080000 0
1.240000 0.080000 0
1.260000 0.080000 0
1.280000 0.080000 0
1.300000 0.080000 0
1.320000 0.080000 0
1.340000 0.080000 0
1.360000 0.080000 0
1.380000 0.080000 0
1.400000 0.080000 0
1.420000 0.080000 0
1.440000 0.080000 0
1.460000 0.080000 0
1.480000 0.080000 0
1.500000 0.080000 0
1.520000 0.080000 0
1.540000 0.080000 0
1.560000 0.080000 0
1.580000 0.080000 0
1.600000 0.080000 0
1.620000 0.080000 0
1.640000 0.080000 0
1.660000 0.080000 0
1.680000 0.080000 0
1.700000 0.080000 0
1.720000 0.080000 0
1.740000 0.080000 0
1.760000 0.080000 0
1.780000 0.080000 0
1.800000 0.080000 0
1.820000 0.080000 0
1.840000 0.080000 0
1.860000 0.080000 0
1.880000 0.080000 0
[...]
POINT_DATA 4851 

VECTORS velocity float
0.000000 0.000000 0
-0.000456 0.000000 0
-0.000595 0.000000 0
-0.000542 0.000000 0
-0.000451 0.000000 0
-0.000371 0.000000 0
-0.000311 0.000000 0
-0.000265 0.000000 0
-0.000231 0.000000 0
-0.000204 0.000000 0
-0.000183 0.000000 0
-0.000166 0.000000 0
-0.000151 0.000000 0
-0.000138 0.000000 0
-0.000127 0.000000 0
-0.000116 0.000000 0
-0.000106 0.000000 0
-0.000097 0.000000 0
-0.000088 0.000000 0
-0.000080 0.000000 0
-0.000072 0.000000 0
-0.000063 0.000000 0
-0.000055 0.000000 0
-0.000048 0.000000 0
-0.000040 0.000000 0
-0.000033 0.000000 0
-0.000026 0.000000 0
-0.000020 0.000000 0
-0.000014 0.000000 0
-0.000009 0.000000 0
-0.000005 0.000000 0
-0.000002 0.000000 0
0.000000 0.000000 0
0.000001 0.000000 0
0.000001 0.000000 0
0.000001 0.000000 0
0.000000 0.000000 0
0.000000 0.000000 0
0.000000 0.000000 0
0.000000 0.000000 0
0.000000 0.000000 0
-0.000000 0.000000 0
-0.000002 0.000000 0
-0.000004 0.000000 0
-0.000008 0.000000 0
-0.000011 0.000000 0
-0.000016 0.000000 0
-0.000021 0.000000 0
-0.000028 0.000000 0
-0.000035 0.000000 0
-0.000045 0.000000 0
-0.000056 0.000000 0
-0.000070 0.000000 0
-0.000088 0.000000 0
-0.000112 0.000000 0
-0.000143 0.000000 0
-0.000184 0.000000 0
-0.000240 0.000000 0
-0.000315 0.000000 0
-0.000416 0.000000 0
-0.000544 0.000000 0
-0.000692 0.000000 0
-0.000842 0.000000 0
-0.000969 0.000000 0
-0.001050 0.000000 0
-0.001078 0.000000 0
-0.001061 0.000000 0
-0.001018 0.000000 0
-0.000966 0.000000 0
-0.000917 0.000000 0
-0.000875 0.000000 0
-0.000839 0.000000 0
-0.000809 0.000000 0
-0.000781 0.000000 0
-0.000753 0.000000 0
-0.000724 0.000000 0
-0.000695 0.000000 0
-0.000664 0.000000 0
-0.000634 0.000000 0
-0.000605 0.000000 0
-0.000581 0.000000 0
-0.000565 0.000000 0
-0.000561 0.000000 0
-0.000573 0.000000 0
-0.000606 0.000000 0
-0.000661 0.000000 0
-0.000744 0.000000 0
-0.000853 0.000000 0
-0.000985 0.000000 0
-0.001134 0.000000 0
-0.001285 0.000000 0
-0.001418 0.000000 0
-0.001504 0.000000 0
-0.001508 0.000000 0
-0.001389 0.000000 0
-0.001121 0.000000 0
-0.000718 0.000000 0
-0.000271 0.000000 0
0.000000 0.000000 0
0.000000 0.000456 0
-0.000913 0.000596 0
-0.001397 0.000086 0
-0.001448 -0.000144 0
-0.001330 -0.000170 0
-0.001177 -0.000140 0
-0.001035 -0.000106 0
-0.000915 -0.000079 0
-0.000816 -0.000061 0
-0.000734 -0.000048 0
-0.000665 -0.000038 0
-0.000607 -0.000032 0
-0.000556 -0.000027 0
-0.000511 -0.000024 0
-0.000470 -0.000022 0
-0.000433 -0.000020 0
-0.000398 -0.000019 0
-0.000365 -0.000018 0
-0.000333 -0.000017 0
-0.000301 -0.000017 0
-0.000271 -0.000016 0
-0.000241 -0.000016 0
-0.000212 -0.000015 0
-0.000184 -0.000015 0
-0.000156 -0.000014 0
-0.000130 -0.000014 0
-0.000105 -0.000013 0
-0.000082 -0.000012 0
-0.000061 -0.000010 0
-0.000042 -0.000009 0
-0.000026 -0.000007 0
-0.000014 -0.000005 0
-0.000005 -0.000003 0
0.000000 -0.000001 0
0.000002 0.000001 0
0.000001 0.000002 0
0.000000 0.000001 0
0.000000 0.000000 0
0.000000 0.000000 0
0.000000 0.000000 0
0.000000 0.000000 0
-0.000002 0.000001 0
-0.000008 0.000004 0
-0.000016 0.000005 0
-0.000027 0.000007 0
-0.000039 0.000008 0
-0.000055 0.000009 0
-0.000073 0.000011 0
-0.000094 0.000014 0
-0.000120 0.000016 0
-0.000152 0.000020 0
-0.000191 0.000025 0
-0.000240 0.000032 0
-0.000302 0.000041 0
-0.000383 0.000053 0
-0.000488 0.000071 0
-0.000628 0.000096 0
-0.000815 0.000131 0
-0.001065 0.000176 0
-0.001389 0.000228 0
-0.001788 0.000275 0
-0.002235 0.000297 0
-0.002678 0.000276 0
-0.003044 0.000208 0
-0.003279 0.000109 0
-0.003365 0.000010 0
-0.003332 -0.000061 0
-0.003228 -0.000096 0
-0.003098 -0.000102 0
-0.002969 -0.000092 0
-0.002851 -0.000078 0
-0.002747 -0.000067 0
-0.002651 -0.000060 0
-0.002560 -0.000057 0
-0.002471 -0.000057 0
-0.002381 -0.000059 0
-0.002290 -0.000061 0
-0.002200 -0.000062 0
-0.002116 -0.000059 0
-0.002043 -0.000053 0
-0.001991 -0.000040 0
-0.001969 -0.000021 0
-0.001989 0.000007 0
-0.002062 0.000044 0
-0.002198 0.000088 0
-0.002404 0.000138 0
-0.002681 0.000191 0
-0.003023 0.000241 0
-0.003413 0.000281 0
-0.003820 0.000300 0
-0.004197 0.000284 0
-0.004481 0.000219 0
-0.004596 0.000089 0
-0.004454 -0.000116 0
-0.003974 -0.000387 0
-0.003122 -0.000672 0
-0.001962 -0.000850 0
-0.000739 -0.000718 0
0.000000 -0.000271 0
0.000000 0.000913 0
-0.000806 0.001398 0
-0.001544 0.000536 0
-0.001867 -0.000067 0
-0.001909 -0.000271 0
-0.001821 -0.000294 0
-0.001687 -0.000262 0
-0.001547 -0.000219 0
-0.001415 -0.000181 0
-0.001297 -0.000150 0
-0.001191 -0.000127 0
-0.001098 -0.000109 0
-0.001014 -0.000095 0
-0.000937 -0.000085 0
-0.000867 -0.000078 0
-0.000801 -0.000072 0
-0.000739 -0.000068 0
-0.000679 -0.000065 0
-0.000621 -0.000063 0
-0.000565 -0.000061 0
-0.000510 -0.000060 0
-0.000456 -0.000058 0
-0.000403 -0.000057 0
-0.000352 -0.000055 0
-0.000302 -0.000054 0
-0.000253 -0.000051 0
-0.000208 -0.000048 0
-0.000165 -0.000044 0
-0.000126 -0.000039 0
-0.000091 -0.000034 0
-0.000061 -0.000028 0
-0.000037 -0.000021 0
-0.000019 -0.000014 0
-0.000007 -0.000007 0
-0.000001 -0.000001 0
0.000001 0.000003 0
0.000000 0.000002 0
0.000000 0.000000 0
0.000000 0.000000 0
0.000000 0.000000 0
0.000000 0.000002 0
-0.000004 0.000007 0
-0.000014 0.000013 0
-0.000028 0.000018 0
-0.000046 0.000023 0
-0.000067 0.000028 0
-0.000092 0.000033 0
-0.000122 0.000039 0
-0.000158 0.000047 0
-0.000201 0.000057 0
-0.000255 0.000070 0
-0.000320 0.000087 0
-0.000403 0.000111 0
-0.000508 0.000142 0
-0.000643 0.000185 0
-0.000818 0.000244 0
-0.001048 0.000326 0
-0.001351 0.000436 0
-0.001747 0.000573 0
-0.002246 0.000722 0
-0.002842 0.000846 0
-0.003492 0.000889 0
-0.004117 0.000808 0
-0.004628 0.000600 0
-0.004959 0.000320 0
-0.005102 0.000053 0
-0.005094 -0.000138 0
-0.004995 -0.000235 0
-0.004856 -0.000261 0
-0.004705 -0.000248 0
-0.004556 -0.000223 0
-0.004413 -0.000201 0
-0.004274 -0.000187 0
-0.004138 -0.000181 0
-0.004004 -0.000180 0
-0.003872 -0.000182 0
-0.003744 -0.000181 0
-0.003624 -0.000175 0
-0.003520 -0.000158 0
-0.003442 -0.000126 0
-0.003404 -0.000075 0
-0.003421 -0.000002 0
-0.003506 0.000093 0
-0.003672 0.000209 0
-0.003929 0.000341 0
-0.004278 0.000482 0
-0.004712 0.000619 0
-0.005209 0.000732 0
-0.005734 0.000796 0
-0.006231 0.000783 0
-0.006629 0.000661 0
-0.006844 0.000399 0
-0.006779 -0.000028 0
-0.006343 -0.000623 0
-0.005477 -0.001333 0
-0.004183 -0.002012 0
-0.002573 -0.002382 0
-0.000956 -0.001962 0
0.000000 -0.000739 0
0.000000 0.001263 0
-0.000614 0.002140 0
-0.001381 0.001147 0
-0.001869 0.000221 0
-0.002076 -0.000216 0
-0.002106 -0.000362 0
-0.002042 -0.000380 0
-0.001937 -0.000351 0
-0.001817 -0.000311 0
-0.001697 -0.000271 0
-0.001582 -0.000237 0
-0.001474 -0.000210 0
-0.001373 -0.000188 0
-0.001278 -0.000171 0
-0.001188 -0.000158 0
-0.001103 -0.000148 0
-0.001021 -0.000140 0
-0.000942 -0.000135 0
-0.000865 -0.000131 0
-0.000789 -0.000128 0
-0.000715 -0.000125 0
-0.000642 -0.000122 0
-0.000570 -0.000120 0
-0.000500 -0.000116 0
-0.000432 -0.000112 0
-0.000366 -0.000107 0
-0.000303 -0.000101 0
-0.000244 -0.000093 0
-0.000190 -0.000084 0
-0.000142 -0.000073 0
-0.000100 -0.000061 0
-0.000065 -0.000047 0
-0.000038 -0.000033 0
-0.000018 -0.000019 0
-0.000006 -0.000007 0
-0.000001 0.000001 0
0.000000 0.000002 0
0.000000 0.000000 0
0.000000 0.000000 0
0.000000 0.000000 0
0.000000 0.000004 0
-0.000006 0.000015 0
-0.000018 0.000027 0
-0.000036 0.000037 0
-0.000058 0.000045 0
-0.000084 0.000054 0
-0.000115 0.000064 0
-0.000152 0.000077 0
-0.000196 0.000092 0
-0.000249 0.000113 0
-0.000315 0.000139 0
-0.000397 0.000173 0
-0.000498 0.000219 0
-0.000627 0.000280 0
-0.000791 0.000363 0
-0.001003 0.000477 0
-0.001275 0.000630 0
-0.001627 0.000829 0
-0.002073 0.001071 0
-0.002623 0.001323 0
-0.003262 0.001520 0
-0.003945 0.001572 0
-0.004597 0.001412 0
-0.005137 0.001049 0
-0.005511 0.000582 0
-0.005712 0.000145 0
-0.005772 -0.000167 0
-0.005740 -0.000334 0
-0.005655 -0.000392 0
-0.005542 -0.000392 0
-0.005413 -0.000371 0
-0.005278 -0.000349 0
-0.005139 -0.000334 0
-0.005000 -0.000327 0
-0.004863 -0.000323 0
-0.004730 -0.000320 0
-0.004608 -0.000309 0
-0.004502 -0.000286 0
-0.004422 -0.000241 0
-0.004379 -0.000168 0
-0.004387 -0.000062 0
-0.004459 0.000081 0
-0.004607 0.000259 0
-0.004839 0.000467 0
-0.005159 0.000693 0
-0.005559 0.000920 0
-0.006022 0.001122 0
-0.006515 0.001263 0
-0.006990 0.001302 0
-0.007387 0.001196 0
-0.007634 0.000897 0
-0.007652 0.000369 0
-0.007361 -0.000411 0
-0.006702 -0.001419 0
-0.005653 -0.002547 0
-0.004237 -0.003575 0
-0.002565 -0.004077 0
-0.000935 -0.003291 0
0.000000 -0.001228 0
0.000000 0.001527 0
-0.000470 0.002779 0
-0.001186 0.001791 0
-0.001737 0.000629 0
-0.002053 -0.000034 0
-0.002185 -0.000329 0
-0.002200 -0.000430 0
-0.002149 -0.000444 0
-0.002063 -0.000420 0
-0.001962 -0.000386 0
-0.001854 -0.000350 0
-0.001747 -0.000318 0
-0.001641 -0.000291 0
-0.001539 -0.000269 0
-0.001439 -0.000252 0
-0.001342 -0.000239 0
-0.001248 -0.000229 0
-0.001156 -0.000221 0
-0.001065 -0.000215 0
-0.000975 -0.000211 0
-0.000886 -0.000207 0
-0.000799 -0.000203 0
-0.000713 -0.000199 0
-0.000628 -0.000194 0
-0.000545 -0.000187 0
-0.000465 -0.000179 0
-0.000389 -0.000169 0
-0.000317 -0.000157 0
-0.000250 -0.000142 0
-0.000190 -0.000124 0
-0.000137 -0.000105 0
-0.000092 -0.000083 0
-0.000057 -0.000060 0
-0.000030 -0.000038 0
-0.000012 -0.000018 0
-0.000003 -0.000003 0
0.000000 0.000001 0
0.000000 0.000000 0
0.000000 0.000000 0
0.000000 0.000000 0
0.000000 0.000007 0
-0.000006 0.000024 0
-0.000020 0.000043 0
-0.000039 0.000058 0
-0.000063 0.000071 0
-0.000091 0.000085 0
-0.000124 0.000101 0
-0.000164 0.000120 0
-0.000211 0.000144 0
-0.000269 0.000176 0
-0.000339 0.000217 0
-0.000426 0.000270 0
-0.000534 0.000341 0
-0.000669 0.000435 0
-0.000840 0.000560 0
-0.001057 0.000728 0
-0.001330 0.000950 0
-0.001672 0.001234 0
-0.002095 0.001569 0
-0.002600 0.001910 0
-0.003177 0.002168 0
-0.003792 0.002225 0
-0.004393 0.002000 0
-0.004919 0.001513 0
-0.005327 0.000894 0
-0.005604 0.000314 0
-0.005763 -0.000109 0
-0.005827 -0.000352 0
-0.005823 -0.000459 0
-0.005772 -0.000490 0
-0.005690 -0.000487 0
-0.005590 -0.000475 0
-0.005480 -0.000465 0
-0.005365 -0.000458 0
-0.005252 -0.000450 0
-0.005148 -0.000437 0
-0.005058 -0.000410 0
-0.004990 -0.000361 0
-0.004953 -0.000281 0
-0.004957 -0.000161 0
-0.005013 0.000005 0
-0.005129 0.000218 0
-0.005312 0.000473 0
-0.005566 0.000761 0
-0.005884 0.001061 0
-0.006253 0.001345 0
-0.006649 0.001574 0
-0.007035 0.001699 0
-0.007364 0.001669 0
-0.007582 0.001428 0
-0.007630 0.000926 0
-0.007453 0.000126 0
-0.006999 -0.000978 0
-0.006249 -0.002331 0
-0.005196 -0.003797 0
-0.003857 -0.005100 0
-0.002320 -0.005684 0
-0.000838 -0.004527 0
0.000000 -0.001674 0
0.000000 0.001734 0
-0.000374 0.003326 0
-0.001021 0.002414 0
-0.001581 0.001089 0
-0.001953 0.000231 0
-0.002157 -0.000214 0
-0.002239 -0.000415 0
-0.002242 -0.000488 0
-0.002196 -0.000498 0
-0.002121 -0.000480 0
-0.002031 -0.000452 0
-0.001934 -0.000423 0
-0.001832 -0.000396 0
-0.001730 -0.000373 0
-0.001628 -0.000354 0
-0.001526 -0.000339 0
-0.001425 -0.000327 0
-0.001325 -0.000318 0
-0.001225 -0.000311 0
-0.001126 -0.000306 0
-0.001027 -0.000301 0
-0.000929 -0.000296 0
-0.000832 -0.000291 0
-0.000736 -0.000284 0
-0.000642 -0.000275 0
-0.000551 -0.000264 0
-0.000464 -0.000249 0
-0.000381 -0.000232 0
-0.000304 -0.000211 0
-0.000234 -0.000186 0
-0.000171 -0.000158 0
-0.000118 -0.000128 0
-0.000074 -0.000095 0
-0.000041 -0.000063 0
-0.000018 -0.000034 0
-0.000004 -0.000011 0
0.000000 -0.000001 0
0.000000 0.000000 0
0.000000 0.000000 0
0.000000 0.000000 0
0.000000 0.000010 0
-0.000006 0.000035 0
-0.000020 0.000059 0
-0.000039 0.000079 0
-0.000063 0.000097 0
-0.000090 0.000116 0
-0.000123 0.000137 0
-0.000162 0.000164 0
-0.000208 0.000197 0
-0.000264 0.000240 0
-0.000332 0.000296 0
-0.000415 0.000368 0
-0.000518 0.000462 0
-0.000646 0.000587 0
-0.000805 0.000750 0
-0.001001 0.000966 0
-0.001243 0.001245 0
-0.001536 0.001594 0
-0.001885 0.001998 0
-0.002290 0.002405 0
-0.002746 0.002712 0
-0.003241 0.002788 0
-0.003753 0.002538 0
-0.004247 0.001984 0
-0.004689 0.001267 0
-0.005051 0.000580 0
-0.005318 0.000055 0
-0.005491 -0.000274 0
-0.005580 -0.000447 0
-0.005605 -0.000524 0
-0.005585 -0.000553 0
-0.005536 -0.000560 0
-0.005468 -0.000560 0
-0.005394 -0.000554 0
-0.005320 -0.000541 0
-0.005255 -0.000515 0
-0.005207 -0.000468 0
-0.005183 -0.000391 0
-0.005190 -0.000274 0
-0.005235 -0.000108 0
-0.005324 0.000110 0
-0.005461 0.000380 0
-0.005646 0.000695 0
-0.005878 0.001038 0
-0.006145 0.001381 0
-0.006429 0.001686 0
-0.006705 0.001903 0
-0.006939 0.001977 0
-0.007091 0.001850 0
-0.007122 0.001462 0
-0.006994 0.000768 0
-0.006674 -0.000262 0
-0.006149 -0.001615 0
-0.005417 -0.003222 0
-0.004472 -0.004939 0
-0.003316 -0.006451 0
-0.002001 -0.007096 0
-0.000728 -0.005611 0
0.000000 -0.002066 0
0.000000 0.001902 0
-0.000310 0.003800 0
-0.000892 0.002998 0
-0.001436 0.001561 0
-0.001832 0.000543 0
-0.002081 -0.000043 0
-0.002211 -0.000346 0
-0.002259 -0.000487 0
-0.002250 -0.000541 0
-0.002204 -0.000550 0
-0.002136 -0.000537 0
-0.002053 -0.000517 0
-0.001961 -0.000495 0
-0.001865 -0.000474 0
-0.001765 -0.000456 0
-0.001663 -0.000441 0
-0.001560 -0.000430 0
-0.001456 -0.000421 0
-0.001351 -0.000414 0
-0.001246 -0.000409 0
-0.001141 -0.000403 0
-0.001036 -0.000398 0
-0.000931 -0.000392 0
-0.000827 -0.000383 0
-0.000725 -0.000372 0
-0.000625 -0.000358 0
-0.000529 -0.000339 0
-0.000437 -0.000317 0
-0.000351 -0.000289 0
-0.000272 -0.000257 0
-0.000202 -0.000220 0
-0.000141 -0.000180 0
-0.000090 -0.000137 0
-0.000050 -0.000094 0
-0.000022 -0.000054 0
-0.000005 -0.000021 0
0.000000 -0.000003 0
0.000000 0.000000 0
0.000000 0.000000 0
0.000000 0.000000 0
0.000000 0.000013 0
-0.000006 0.000044 0
-0.000019 0.000075 0
-0.000036 0.000100 0
-0.000057 0.000122 0
-0.000083 0.000145 0
-0.000112 0.000172 0
-0.000147 0.000205 0
-0.000188 0.000246 0
-0.000238 0.000299 0
-0.000298 0.000368 0
-0.000370 0.000457 0
-0.000459 0.000572 0
-0.000568 0.000721 0
-0.000701 0.000915 0
-0.000861 0.001166 0
-0.001052 0.001485 0
-0.001273 0.001876 0
-0.001525 0.002323 0
-0.001807 0.002771 0
-0.002121 0.003119 0
-0.002475 0.003231 0
-0.002876 0.003006 0
-0.003320 0.002449 0
-0.003779 0.001698 0
-0.004214 0.000944 0
-0.004584 0.000331 0
-0.004868 -0.000091 0
-0.005060 -0.000346 0
-0.005173 -0.000485 0
-0.005226 -0.000557 0
-0.005238 -0.000592 0
-0.005224 -0.000607 0
-0.005196 -0.000606 0
-0.005166 -0.000589 0
-0.005142 -0.000550 0
-0.005134 -0.000483 0
-0.005147 -0.000379 0
-0.005186 -0.000229 0
-0.005257 -0.000027 0
-0.005359 0.000231 0
-0.005492 0.000540 0
-0.005653 0.000890 0
-0.005833 0.001259 0
-0.006021 0.001613 0
-0.006196 0.001906 0
-0.006335 0.002083 0
-0.006412 0.002085 0
-0.006399 0.001852 0
-0.006273 0.001330 0
-0.006016 0.000478 0
-0.005620 -0.000719 0
-0.005097 -0.002235 0
-0.004449 -0.004008 0
-0.003667 -0.005898 0
-0.002734 -0.007571 0
-0.001669 -0.008273 0
-0.000617 -0.006528 0
0.000000 -0.002402 0
0.000000 0.002044 0
-0.000264 0.004218 0
-0.000792 0.003540 0
-0.001310 0.002029 0
-0.001712 0.000876 0
-0.001985 0.000165 0
-0.002149 -0.000237 0
-0.002231 -0.000449 0
-0.002254 -0.000552 0
-0.002235 -0.000594 0
-0.002188 -0.000603 0
-0.002121 -0.000597 0
-0.002042 -0.000584 0
-0.001954 -0.000569 0
-0.001860 -0.000555 0
-0.001761 -0.000543 0
-0.001660 -0.000534 0
-0.001556 -0.000526 0
-0.001449 -0.000521 0
-0.001342 -0.000516 0
-0.001232 -0.000511 0
-0.001123 -0.000506 0
-0.001012 -0.000499 0
-0.000903 -0.000490 0
-0.000794 -0.000477 0
-0.000687 -0.000459 0
-0.000584 -0.000437 0
-0.000485 -0.000409 0
-0.000392 -0.000375 0
-0.000306 -0.000335 0
-0.000228 -0.000290 0
-0.000160 -0.000239 0
-0.000103 -0.000185 0
-0.000058 -0.000131 0
-0.000026 -0.000078 0
-0.000007 -0.000033 0
0.000000 -0.000006 0
0.000000 0.000000 0
0.000000 0.000000 0
0.000000 0.000000 0
0.000000 0.000016 0
-0.000005 0.000053 0
-0.000016 0.000089 0
-0.000031 0.000118 0
-0.000049 0.000144 0
-0.000070 0.000170 0
-0.000094 0.000201 0
-0.000123 0.000239 0
-0.000156 0.000288 0
-0.000196 0.000349 0
-0.000243 0.000428 0
-0.000300 0.000530 0
-0.000368 0.000660 0
-0.000450 0.000828 0
-0.000548 0.001043 0
-0.000662 0.001316 0
-0.000792 0.001657 0
-0.000935 0.002068 0
-0.001086 0.002532 0
-0.001246 0.003001 0
-0.001421 0.003380 0
-0.001632 0.003543 0
-0.001911 0.003383 0
-0.002278 0.002886 0
-0.002722 0.002161 0
-0.003198 0.001386 0
-0.003650 0.000710 0
-0.004034 0.000201 0
-0.004332 -0.000143 0
-0.004544 -0.000359 0
-0.004682 -0.000488 0
-0.004768 -0.000563 0
-0.004816 -0.000601 0
-0.004842 -0.000612 0
-0.004857 -0.000595 0
-0.004872 -0.000547 0
-0.004896 -0.000464 0
-0.004934 -0.000338 0
-0.004992 -0.000163 0
-0.005070 0.000064 0
-0.005166 0.000345 0
-0.005277 0.000674 0
-0.005395 0.001037 0
-0.005510 0.001406 0
-0.005608 0.001744 0
-0.005672 0.002000 0
-0.005683 0.002119 0
-0.005622 0.002041 0
-0.005476 0.001710 0
-0.005236 0.001078 0
-0.004902 0.000115 0
-0.004489 -0.001181 0
-0.004015 -0.002785 0
-0.003483 -0.004652 0
-0.002876 -0.006654 0
-0.002167 -0.008449 0
-0.001345 -0.009212 0
-0.000510 -0.007280 0
0.000000 -0.002683 0
0.000000 0.002167 0
-0.000231 0.004592 0
-0.000712 0.004044 0
-0.001204 0.002482 0
-0.001600 0.001217 0
-0.001885 0.000395 0
-0.002071 -0.000099 0
-0.002179 -0.000382 0
-0.002226 -0.000537 0
-0.002230 -0.000615 0
-0.002203 -0.000651 0
-0.002153 -0.000662 0
-0.002087 -0.000662 0
-0.002010 -0.000656 0
-0.001923 -0.000648 0
-0.001831 -0.000641 0
-0.001733 -0.000636 0
-0.001631 -0.000631 0
-0.001525 -0.000628 0
-0.001417 -0.000625 0
-0.001306 -0.000622 0
-0.001194 -0.000618 0
-0.001080 -0.000611 0
-0.000967 -0.000601 0
-0.000853 -0.000587 0
-0.000741 -0.000567 0
-0.000632 -0.000541 0
-0.000527 -0.000508 0
-0.000427 -0.000468 0
-0.000335 -0.000420 0
-0.000251 -0.000366 0
-0.000177 -0.000304 0
-0.000115 -0.000239 0
-0.000065 -0.000171 0
-0.000029 -0.000106 0
-0.000007 -0.000047 0
0.000000 -0.000010 0
0.000000 0.000000 0
0.000000 0.000000 0
0.000000 0.000000 0
0.000000 0.000018 0
-0.000004 0.000060 0
-0.000012 0.000101 0
-0.000024 0.000133 0
-0.000037 0.000161 0
-0.000053 0.000190 0
-0.000071 0.000224 0
-0.000092 0.000266 0
-0.000115 0.000319 0
-0.000142 0.000386 0
-0.000173 0.000472 0
-0.000210 0.000582 0
-0.000254 0.000722 0
-0.000304 0.000901 0
-0.000362 0.001127 0
-0.000426 0.001410 0
-0.000494 0.001758 0
-0.000561 0.002171 0
-0.000621 0.002634 0
-0.000673 0.003105 0
-0.000727 0.003505 0
-0.000809 0.003721 0
-0.000963 0.003652 0
-0.001230 0.003260 0
-0.001617 0.002618 0
-0.002090 0.001871 0
-0.002587 0.001167 0
-0.003048 0.000592 0
-0.003441 0.000164 0
-0.003753 -0.000135 0
-0.003988 -0.000333 0
-0.004158 -0.000459 0
-0.004279 -0.000533 0
-0.004365 -0.000565 0
-0.004430 -0.000558 0
-0.004484 -0.000511 0
-0.004535 -0.000420 0
-0.004591 -0.000282 0
-0.004654 -0.000093 0
-0.004726 0.000147 0
-0.004802 0.000437 0
-0.004878 0.000769 0
-0.004945 0.001124 0
-0.004991 0.001473 0
-0.005003 0.001775 0
-0.004967 0.001980 0
-0.004871 0.002034 0
-0.004705 0.001879 0
-0.004466 0.001466 0
-0.004158 0.000756 0
-0.003796 -0.000269 0
-0.003406 -0.001606 0
-0.003005 -0.003241 0
-0.002595 -0.005146 0
-0.002154 -0.007214 0
-0.001646 -0.009102 0
-0.001045 -0.009930 0
-0.000408 -0.007874 0
0.000000 -0.002912 0
0.000000 0.002275 0
-0.000206 0.004931 0
-0.000648 0.004513 0
-0.001113 0.002917 0
-0.001500 0.001558 0
-0.001789 0.000636 0
-0.001989 0.000057 0
-0.002114 -0.000294 0
-0.002181 -0.000500 0
-0.002204 -0.000617 0
-0.002194 -0.000680 0
-0.002160 -0.000713 0
-0.002107 -0.000727 0
-0.002041 -0.000733 0
-0.001964 -0.000734 0
-0.001878 -0.000734 0
-0.001786 -0.000733 0
-0.001688 -0.000734 0
-0.001585 -0.000734 0
-0.001478 -0.000735 0
-0.001367 -0.000734 0
-0.001254 -0.000732 0
-0.001139 -0.000726 0
-0.001022 -0.000717 0
-0.000905 -0.000702 0
-0.000789 -0.000680 0
-0.000675 -0.000651 0
-0.000565 -0.000614 0
-0.000459 -0.000567 0
-0.000361 -0.000512 0
-0.000271 -0.000447 0
-0.000192 -0.000375 0
-0.000125 -0.000297 0
-0.000071 -0.000216 0
-0.000032 -0.000136 0
-0.000008 -0.000062 0
0.000000 -0.000013 0
0.000000 0.000000 0
0.000000 0.000000 0
0.000000 0.000000 0
0.000000 0.000019 0