# vtk DataFile Version 2.0
generated by CFD-lab course output (written by Tobias Neckel) 
ASCII

DATASET STRUCTURED_GRID
DIMENSIONS  99 49 1 
POINTS 4851 float

0.000000 0.000000 0
0.020000 0.000000 0
0.040000 0.000000 0
0.060000 0.000000 0
0.080000 0.000000 0
0.100000 0.000000 0
0.120000 0.000000 0
0.140000 0.000000 0
0.160000 0.000000 0
0.180000 0.000000 0
0.200000 0.000000 0
0.220000 0.000000 0
0.240000 0.000000 0
0.260000 0.000000 0
0.280000 0.000000 0
0.300000 0.000000 0
0.320000 0.000000 0
0.340000 0.000000 0
0.360000 0.000000 0
0.380000 0.000000 0
0.400000 0.000000 0
0.420000 0.000000 0
0.440000 0.000000 0
0.460000 0.000000 0
0.480000 0.000000 0
0.500000 0.000000 0
0.520000 0.000000 0
0.540000 0.000000 0
0.560000 0.000000 0
0.580000 0.000000 0
0.600000 0.000000 0
0.620000 0.000000 0
0.640000 0.000000 0
0.660000 0.000000 0
0.680000 0.000000 0
0.700000 0.000000 0
0.720000 0.000000 0
0.740000 0.000000 0
0.760000 0.000000 0
0.780000 0.000000 0
0.800000 0.000000 0
0.820000 0.000000 0
0.840000 0.000000 0
0.860000 0.000000 0
0.880000 0.000000 0
0.900000 0.000000 0
0.920000 0.000000 0
0.940000 0.000000 0
0.960000 0.000000 0
0.980000 0.000000 0
1.000000 0.000000 0
1.020000 0.000000 0
1.040000 0.000000 0
1.060000 0.000000 0
1.080000 0.000000 0
1.100000 0.000000 0
1.120000 0.000000 0
1.140000 0.000000 0
1.160000 0.000000 0
1.180000 0.000000 0
1.200000 0.000000 0
1.220000 0.000000 0
1.240000 0.000000 0
1.260000 0.000000 0
1.280000 0.000000 0
1.300000 0.000000 0
1.320000 0.000000 0
1.340000 0.000000 0
1.360000 0.000000 0
1.380000 0.000000 0
1.400000 0.000000 0
1.420000 0.000000 0
1.440000 0.000000 0
1.460000 0.000000 0
1.480000 0.000000 0
1.500000 0.000000 0
1.520000 0.000000 0
1.540000 0.000000 0
1.560000 0.000000 0
1.580000 0.000000 0
1.600000 0.000000 0
1.620000 0.000000 0
1.640000 0.000000 0
1.660000 0.000000 0
1.680000 0.000000 0
1.700000 0.000000 0
1.720000 0.000000 0
1.740000 0.000000 0
1.760000 0.000000 0
1.780000 0.000000 0
1.800000 0.000000 0
1.820000 0.000000 0
1.840000 0.000000 0
1.860000 0.000000 0
1.880000 0.000000 0
1.900000 0.000000 0
1.920000 0.000000 0
1.940000 0.000000 0
1.960000 0.000000 0
0.000000 0.020000 0
0.020000 0.020000 0
0.040000 0.020000 0
0.060000 0.020000 0
0.080000 0.020000 0
0.100000 0.020000 0
0.120000 0.020000 0
0.140000 0.020000 0
0.160000 0.020000 0
0.180000 0.020000 0
0.200000 0.020000 0
0.220000 0.020000 0
0.240000 0.020000 0
0.260000 0.020000 0
0.280000 0.020000 0
0.300000 0.020000 0
0.320000 0.020000 0
0.340000 0.020000 0
0.360000 0.020000 0
0.380000 0.020000 0
0.400000 0.020000 0
0.420000 0.020000 0
0.440000 0.020000 0
0.460000 0.020000 0
0.480000 0.020000 0
0.500000 0.020000 0
0.520000 0.020000 0
0.540000 0.020000 0
0.560000 0.020000 0
0.580000 0.020000 0
0.600000 0.020000 0
0.620000 0.020000 0
0.640000 0.020000 0
0.660000 0.020000 0
0.680000 0.020000 0
0.700000 0.020000 0
0.720000 0.020000 0
0.740000 0.020000 0
0.760000 0.020000 0
0.780000 0.020000 0
0.800000 0.020000 0
0.820000 0.020000 0
0.840000 0.020000 0
0.860000 0.020000 0
0.880000 0.020000 0
0.900000 0.020000 0
0.920000 0.020000 0
0.940000 0.020000 0
0.960000 0.020000 0
0.980000 0.020000 0
1.000000 0.020000 0
1.020000 0.020000 0
1.040000 0.020000 0
1.060000 0.020000 0
1.080000 0.020000 0
1.100000 0.020000 0
1.120000 0.020000 0
1.140000 0.020000 0
1.160000 0.020000 0
1.180000 0.020000 0
1.200000 0.020000 0
1.220000 0.020000 0
1.240000 0.020000 0
1.260000 0.020000 0
1.280000 0.020000 0
1.300000 0.020000 0
1.320000 0.020000 0
1.340000 0.020000 0
1.360000 0.020000 0
1.380000 0.020000 0
1.400000 0.020000 0
1.420000 0.020000 0
1.440000 0.020000 0
1.460000 0.020000 0
1.480000 0.020000 0
1.500000 0.020000 0
1.520000 0.020000 0
1.540000 0.020000 0
1.560000 0.020000 0
1.580000 0.020000 0
1.600000 0.020000 0
1.620000 0.020000 0
1.640000 0.020000 0
1.660000 0.020000 0
1.680000 0.020000 0
1.700000 0.020000 0
1.720000 0.020000 0
1.740000 0.020000 0
1.760000 0.020000 0
1.780000 0.020000 0
1.800000 0.020000 0
1.820000 0.020000 0
1.840000 0.020000 0
1.860000 0.020000 0
1.880000 0.020000 0
1.900000 0.020000 0
1.920000 0.020000 0
1.940000 0.020000 0
1.960000 0.020000 0
0.000000 0.040000 0
0.020000 0.040000 0
0.040000 0.040000 0
0.060000 0.040000 0
0.080000 0.040000 0
0.100000 0.040000 0
0.120000 0.040000 0
0.140000 0.040000 0
0.160000 0.040000 0
0.180000 0.040000 0
0.200000 0.040000 0
0.220000 0.040000 0
0.240000 0.040000 0
0.260000 0.040000 0
0.280000 0.040000 0
0.300000 0.040000 0
0.320000 0.040000 0
0.340000 0.040000 0
0.360000 0.040000 0
0.380000 0.040000 0
0.400000 0.040000 0
0.420000 0.040000 0
0.440000 0.040000 0
0.460000 0.040000 0
0.480000 0.040000 0
0.500000 0.040000 0
0.520000 0.040000 0
0.540000 0.040000 0
0.560000 0.040000 0
0.580000 0.040000 0
0.600000 0.040000 0
0.620000 0.040000 0
0.640000 0.040000 0
0.660000 0.040000 0
0.680000 0.040000 0
0.700000 0.040000 0
0.720000 0.040000 0
0.740000 0.040000 0
0.760000 0.040000 0
0.780000 0.040000 0
0.800000 0.040000 0
0.820000 0.040000 0
0.840000 0.040000 0
0.860000 0.040000 0
0.880000 0.040000 0
0.900000 0.040000 0
0.920000 0.040000 0
0.940000 0.040000 0
0.960000 0.040000 0
0.980000 0.040000 0
1.000000 0.040000 0
1.020000 0.040000 0
1.040000 0.040000 0
1.060000 0.040000 0
1.080000 0.040000 0
1.100000 0.040000 0
1.120000 0.040000 0
1.140000 0.040000 0
1.160000 0.040000 0
1.180000 0.040000 0
1.200000 0.040000 0
1.220000 0.040000 0
1.240000 0.040000 0
1.260000 0.040000 0
1.280000 0.040000 0
1.300000 0.040000 0
1.320000 0.040000 0
1.340000 0.040000 0
1.360000 0.040000 0
1.380000 0.040000 0
1.400000 0.040000 0
1.420000 0.040000 0
1.440000 0.040000 0
1.460000 0.040000 0
1.480000 0.040000 0
1.500000 0.040000 0
1.520000 0.040000 0
1.540000 0.040000 0
1.560000 0.040000 0
1.580000 0.040000 0
1.600000 0.040000 0
1.620000 0.040000 0
1.640000 0.040000 0
1.660000 0.040000 0
1.680000 0.040000 0
1.700000 0.040000 0
1.720000 0.040000 0
1.740000 0.040000 0
1.760000 0.040000 0
1.780000 0.040000 0
1.800000 0.040000 0
1.820000 0.040000 0
1.840000 0.040000 0
1.860000 0.040000 0
1.880000 0.040000 0
1.900000 0.040000 0
1.920000 0.040000 0
1.940000 0.040000 0
1.960000 0.040000 0
0.000000 0.060000 0
0.020000 0.060000 0
0.040000 0.060000 0
0.060000 0.060000 0
0.080000 0.060000 0
0.100000 0.060000 0
0.120000 0.060000 0
0.140000 0.060000 0
0.160000 0.060000 0
0.180000 0.060000 0
0.200000 0.060000 0
0.220000 0.060000 0
0.240000 0.060000 0
0.260000 0.060000 0
0.280000 0.060000 0
0.300000 0.060000 0
0.320000 0.060000 0
0.340000 0.060000 0
0.360000 0.060000 0
0.380000 0.060000 0
0.400000 0.060000 0
0.420000 0.060000 0
0.440000 0.060000 0
0.460000 0.060000 0
0.480000 0.060000 0
0.500000 0.060000 0
0.520000 0.060000 0
0.540000 0.060000 0
0.560000 0.060000 0
0.580000 0.060000 0
0.600000 0.060000 0
0.620000 0.060000 0
0.640000 0.060000 0
0.660000 0.060000 0
0.680000 0.060000 0
0.700000 0.060000 0
0.720000 0.060000 0
0.740000 0.060000 0
0.760000 0.060000 0
0.780000 0.060000 0
0.800000 0.060000 0
0.820000 0.060000 0
0.840000 0.060000 0
0.860000 0.060000 0
0.880000 0.060000 0
0.900000 0.060000 0
0.920000 0.060000 0
0.940000 0.060000 0
0.960000 0.060000 0
0.980000 0.060000 0
1.000000 0.060000 0
1.020000 0.060000 0
1.040000 0.060000 0
1.060000 0.060000 0
1.080000 0.060000 0
1.100000 0.060000 0
1.120000 0.060000 0
1.140000 0.060000 0
1.160000 0.060000 0
1.180000 0.060000 0
1.200000 0.060000 0
1.220000 0.060000 0
1.240000 0.060000 0
1.260000 0.060000 0
1.280000 0.060000 0
1.300000 0.060000 0
1.320000 0.060000 0
1.340000 0.060000 0
1.360000 0.060000 0
1.380000 0.060000 0
1.400000 0.060000 0
1.420000 0.060000 0
1.440000 0.060000 0
1.460000 0.060000 0
1.480000 0.060000 0
1.500000 0.060000 0
1.520000 0.060000 0
1.540000 0.060000 0
1.560000 0.060000 0
1.580000 0.060000 0
1.600000 0.060000 0
1.620000 0.060000 0
1.640000 0.060000 0
1.660000 0.060000 0
1.680000 0.060000 0
1.700000 0.060000 0
1.720000 0.060000 0
1.740000 0.060000 0
1.760000 0.060000 0
1.780000 0.060000 0
1.800000 0.060000 0
1.820000 0.060000 0
1.840000 0.060000 0
1.860000 0.060000 0
1.880000 0.060000 0
1.900000 0.060000 0
1.920000 0.060000 0
1.940000 0.060000 0
1.960000 0.060000 0
0.000000 0.080000 0
0.020000 0.080000 0
0.040000 0.080000 0
0.060000 0.080000 0
0.080000 0.080000 0
0.100000 0.080000 0
0.120000 0.080000 0
0.140000 0.080000 0
0.160000 0.080000 0
0.180000 0.080000 0
0.200000 0.080000 0
0.220000 0.080000 0
0.240000 0.080000 0
0.260000 0.080000 0
0.280000 0.080000 0
0.300000 0.080000 0
0.320000 0.080000 0
0.340000 0.080000 0
0.360000 0.080000 0
0.380000 0.080000 0
0.400000 0.080000 0
0.420000 0.080000 0
0.440000 0.080000 0
0.460000 0.080000 0
0.480000 0.080000 0
0.500000 0.080000 0
0.520000 0.080000 0
0.540000 0.080000 0
0.560000 0.080000 0
0.580000 0.080000 0
0.600000 0.080000 0
0.620000 0.080000 0
0.640000 0.080000 0
0.660000 0.080000 0
0.680000 0.080000 0
0.700000 0.080000 0
0.720000 0.080000 0
0.740000 0.080000 0
0.760000 0.080000 0
0.780000 0.080000 0
0.800000 0.080000 0
0.820000 0.080000 0
0.840000 0.080000 0
0.860000 0.080000 0
0.880000 0.080000 0
0.900000 0.080000 0
0.920000 0.080000 0
0.940000 0.080000 0
0.960000 0.080000 0
0.980000 0.080000 0
1.000000 0.080000 0
1.020000 0.080000 0
1.040000 0.080000 0
1.060000 0.080000 0
1.080000 0.080000 0
1.100000 0.080000 0
1.120000 0.080000 0
1.140000 0.080000 0
1.160000 0.080000 0
1.180000 0.080000 0
1.200000 0.080000 0
1.220000 0.080000 0
1.240000 0.080000 0
1.260000 0.080000 0
1.280000 0.080000 0
1.300000 0.080000 0
1.320000 0.080000 0
1.340000 0.080000 0
1.360000 0.080000 0
1.380000 0.080000 0
1.400000 0.080000 0
1.420000 0.080000 0
1.440000 0.080000 0
1.460000 0.080000 0
1.480000 0.080000 0
1.500000 0.080000 0
1.520000 0.080000 0
1.540000 0.080000 0
1.560000 0.080000 0
1.580000 0.080000 0
1.600000 0.080000 0
1.620000 0.080000 0
1.640000 0.080000 0
1.660000 0.080000 0
1.680000 0.080000 0
1.700000 0.080000 0
1.720000 0.080000 0
1.740000 0.080000 0
1.760000 0.080000 0
1.780000 0.080000 0
1.800000 0.080000 0
1.820000 0.080000 0
1.840000 0.080000 0
1.860000 0.080000 0
1.880000 0.080000 0
[...]
POINT_DATA 4851 

VECTORS velocity float
0.000000 0.000000 0
-0.000427 0.000000 0
-0.000564 0.000000 0
-0.000517 0.000000 0
-0.000432 0.000000 0
-0.000359 0.000000 0
-0.000304 0.000000 0
-0.000265 0.000000 0
-0.000235 0.000000 0
-0.000212 0.000000 0
-0.000194 0.000000 0
-0.000178 0.000000 0
-0.000165 0.000000 0
-0.000153 0.000000 0
-0.000143 0.000000 0
-0.000133 0.000000 0
-0.000124 0.000000 0
-0.000116 0.000000 0
-0.000108 0.000000 0
-0.000101 0.000000 0
-0.000094 0.000000 0
-0.000087 0.000000 0
-0.000081 0.000000 0
-0.000074 0.000000 0
-0.000069 0.000000 0
-0.000063 0.000000 0
-0.000057 0.000000 0
-0.000052 0.000000 0
-0.000047 0.000000 0
-0.000042 0.000000 0
-0.000037 0.000000 0
-0.000032 0.000000 0
-0.000025 0.000000 0
-0.000018 0.000000 0
-0.000010 0.000000 0
-0.000003 0.000000 0
0.000000 0.000000 0
0.000000 0.000000 0
0.000000 0.000000 0
0.000000 0.000000 0
0.000000 0.000000 0
-0.000024 0.000000 0
-0.000071 0.000000 0
-0.000118 0.000000 0
-0.000155 0.000000 0
-0.000179 0.000000 0
-0.000194 0.000000 0
-0.000203 0.000000 0
-0.000208 0.000000 0
-0.000212 0.000000 0
-0.000215 0.000000 0
-0.000218 0.000000 0
-0.000220 0.000000 0
-0.000222 0.000000 0
-0.000224 0.000000 0
-0.000226 0.000000 0
-0.000228 0.000000 0
-0.000229 0.000000 0
-0.000231 0.000000 0
-0.000232 0.000000 0
-0.000233 0.000000 0
-0.000235 0.000000 0
-0.000236 0.000000 0
-0.000237 0.000000 0
-0.000238 0.000000 0
-0.000239 0.000000 0
-0.000240 0.000000 0
-0.000241 0.000000 0
-0.000242 0.000000 0
-0.000243 0.000000 0
-0.000243 0.000000 0
-0.000244 0.000000 0
-0.000245 0.000000 0
-0.000246 0.000000 0
-0.000247 0.000000 0
-0.000248 0.000000 0
-0.000249 0.000000 0
-0.000250 0.000000 0
-0.000250 0.000000 0
-0.000251 0.000000 0
-0.000251 0.000000 0
-0.000250 0.000000 0
-0.000249 0.000000 0
-0.000247 0.000000 0
-0.000245 0.000000 0
-0.000243 0.000000 0
-0.000242 0.000000 0
-0.000246 0.000000 0
-0.000255 0.000000 0
-0.000271 0.000000 0
-0.000295 0.000000 0
-0.000323 0.000000 0
-0.000351 0.000000 0
-0.000369 0.000000 0
-0.000363 0.000000 0
-0.000316 0.000000 0
-0.000220 0.000000 0
-0.000090 0.000000 0
0.000000 0.000000 0
0.000000 0.000427 0
-0.000849 0.000565 0
-0.001311 0.000091 0
-0.001363 -0.000131 0
-0.001252 -0.000158 0
-0.001111 -0.000127 0
-0.000984 -0.000094 0
-0.000879 -0.000069 0
-0.000794 -0.000052 0
-0.000724 -0.000041 0
-0.000666 -0.000033 0
-0.000616 -0.000028 0
-0.000572 -0.000024 0
-0.000533 -0.000022 0
-0.000498 -0.000019 0
-0.000465 -0.000018 0
-0.000435 -0.000016 0
-0.000407 -0.000015 0
-0.000380 -0.000014 0
-0.000355 -0.000014 0
-0.000330 -0.000013 0
-0.000307 -0.000012 0
-0.000284 -0.000012 0
-0.000263 -0.000011 0
-0.000242 -0.000011 0
-0.000221 -0.000010 0
-0.000202 -0.000010 0
-0.000183 -0.000010 0
-0.000165 -0.000009 0
-0.000147 -0.000009 0
-0.000128 -0.000010 0
-0.000108 -0.000011 0
-0.000085 -0.000013 0
-0.000059 -0.000015 0
-0.000033 -0.000014 0
-0.000010 -0.000009 0
0.000000 -0.000002 0
0.000000 0.000000 0
0.000000 0.000000 0
0.000000 0.000000 0
0.000000 0.000023 0
-0.000070 0.000070 0
-0.000201 0.000094 0
-0.000337 0.000083 0
-0.000450 0.000060 0
-0.000532 0.000039 0
-0.000589 0.000023 0
-0.000627 0.000014 0
-0.000653 0.000009 0
-0.000672 0.000006 0
-0.000687 0.000005 0
-0.000700 0.000004 0
-0.000710 0.000004 0
-0.000720 0.000004 0
-0.000729 0.000003 0
-0.000736 0.000003 0
-0.000744 0.000003 0
-0.000750 0.000003 0
-0.000756 0.000002 0
-0.000762 0.000002 0
-0.000767 0.000002 0
-0.000772 0.000002 0
-0.000777 0.000002 0
-0.000781 0.000002 0
-0.000785 0.000002 0
-0.000789 0.000002 0
-0.000793 0.000001 0
-0.000796 0.000001 0
-0.000800 0.000001 0
-0.000803 0.000001 0
-0.000806 0.000001 0
-0.000808 0.000001 0
-0.000811 0.000001 0
-0.000814 0.000001 0
-0.000816 0.000001 0
-0.000819 0.000001 0
-0.000822 0.000001 0
-0.000824 0.000001 0
-0.000826 0.000001 0
-0.000827 0.000000 0
-0.000826 -0.000001 0
-0.000824 -0.000002 0
-0.000819 -0.000004 0
-0.000812 -0.000005 0
-0.000805 -0.000005 0
-0.000800 -0.000003 0
-0.000802 0.000003 0
-0.000814 0.000012 0
-0.000843 0.000025 0
-0.000891 0.000039 0
-0.000957 0.000051 0
-0.001032 0.000056 0
-0.001099 0.000045 0
-0.001127 0.000011 0
-0.001078 -0.000054 0
-0.000913 -0.000144 0
-0.000619 -0.000226 0
-0.000251 -0.000220 0
0.000000 -0.000091 0
0.000000 0.000850 0
-0.000734 0.001312 0
-0.001414 0.000514 0
-0.001710 -0.000058 0
-0.001743 -0.000250 0
-0.001660 -0.000267 0
-0.001540 -0.000232 0
-0.001418 -0.000189 0
-0.001306 -0.000154 0
-0.001208 -0.000127 0
-0.001121 -0.000107 0
-0.001044 -0.000093 0
-0.000975 -0.000082 0
-0.000912 -0.000074 0
-0.000855 -0.000067 0
-0.000801 -0.000062 0
-0.000751 -0.000058 0
-0.000703 -0.000054 0
-0.000658 -0.000051 0
-0.000615 -0.000049 0
-0.000573 -0.000047 0
-0.000533 -0.000045 0
-0.000495 -0.000043 0
-0.000457 -0.000042 0
-0.000421 -0.000040 0
-0.000385 -0.000039 0
-0.000351 -0.000037 0
-0.000318 -0.000036 0
-0.000285 -0.000036 0
-0.000252 -0.000036 0
-0.000218 -0.000038 0
-0.000182 -0.000042 0
-0.000142 -0.000047 0
-0.000100 -0.000051 0
-0.000056 -0.000048 0
-0.000019 -0.000032 0
0.000000 -0.000010 0
0.000000 0.000000 0
0.000000 0.000000 0
0.000000 0.000000 0
0.000000 0.000069 0
-0.000095 0.000200 0
-0.000270 0.000267 0
-0.000459 0.000248 0
-0.000627 0.000194 0
-0.000761 0.000138 0
-0.000861 0.000094 0
-0.000934 0.000064 0
-0.000988 0.000045 0
-0.001029 0.000033 0
-0.001062 0.000027 0
-0.001089 0.000023 0
-0.001112 0.000020 0
-0.001133 0.000018 0
-0.001151 0.000016 0
-0.001168 0.000014 0
-0.001183 0.000013 0
-0.001197 0.000012 0
-0.001210 0.000011 0
-0.001221 0.000010 0
-0.001232 0.000010 0
-0.001242 0.000009 0
-0.001251 0.000008 0
-0.001260 0.000008 0
-0.001268 0.000007 0
-0.001275 0.000007 0
-0.001282 0.000007 0
-0.001288 0.000006 0
-0.001295 0.000006 0
-0.001300 0.000005 0
-0.001305 0.000005 0
-0.001310 0.000005 0
-0.001315 0.000005 0
-0.001320 0.000005 0
-0.001324 0.000005 0
-0.001328 0.000005 0
-0.001332 0.000004 0
-0.001335 0.000004 0
-0.001337 0.000002 0
-0.001338 -0.000000 0
-0.001336 -0.000004 0
-0.001331 -0.000008 0
-0.001323 -0.000012 0
-0.001313 -0.000014 0
-0.001303 -0.000013 0
-0.001297 -0.000004 0
-0.001301 0.000013 0
-0.001321 0.000041 0
-0.001363 0.000076 0
-0.001431 0.000113 0
-0.001520 0.000141 0
-0.001614 0.000141 0
-0.001685 0.000094 0
-0.001689 -0.000021 0
-0.001576 -0.000214 0
-0.001300 -0.000459 0
-0.000859 -0.000662 0
-0.000341 -0.000619 0
0.000000 -0.000251 0
0.000000 0.001162 0
-0.000533 0.001980 0
-0.001212 0.001067 0
-0.001640 0.000199 0
-0.001813 -0.000207 0
-0.001828 -0.000331 0
-0.001766 -0.000336 0
-0.001674 -0.000302 0
-0.001575 -0.000262 0
-0.001478 -0.000226 0
-0.001387 -0.000197 0
-0.001302 -0.000174 0
-0.001224 -0.000156 0
-0.001151 -0.000142 0
-0.001083 -0.000130 0
-0.001018 -0.000121 0
-0.000957 -0.000114 0
-0.000899 -0.000108 0
-0.000843 -0.000102 0
-0.000789 -0.000098 0
-0.000737 -0.000094 0
-0.000686 -0.000091 0
-0.000637 -0.000088 0
-0.000589 -0.000085 0
-0.000542 -0.000082 0
-0.000497 -0.000080 0
-0.000452 -0.000077 0
-0.000408 -0.000076 0
-0.000365 -0.000075 0
-0.000321 -0.000076 0
-0.000277 -0.000080 0
-0.000229 -0.000087 0
-0.000179 -0.000095 0
-0.000125 -0.000101 0
-0.000071 -0.000095 0
-0.000024 -0.000065 0
0.000000 -0.000021 0
0.000000 0.000000 0
0.000000 0.000000 0
0.000000 0.000000 0
0.000000 0.000117 0
-0.000089 0.000339 0
-0.000260 0.000458 0
-0.000454 0.000441 0
-0.000636 0.000362 0
-0.000790 0.000272 0
-0.000913 0.000196 0
-0.001009 0.000141 0
-0.001084 0.000104 0
-0.001143 0.000080 0
-0.001192 0.000065 0
-0.001233 0.000055 0
-0.001269 0.000048 0
-0.001300 0.000042 0
-0.001329 0.000038 0
-0.001354 0.000035 0
-0.001378 0.000031 0
-0.001399 0.000029 0
-0.001418 0.000026 0
-0.001436 0.000024 0
-0.001452 0.000022 0
-0.001467 0.000021 0
-0.001480 0.000019 0
-0.001493 0.000018 0
-0.001505 0.000017 0
-0.001516 0.000016 0
-0.001526 0.000015 0
-0.001536 0.000014 0
-0.001544 0.000013 0
-0.001552 0.000012 0
-0.001560 0.000011 0
-0.001567 0.000011 0
-0.001574 0.000010 0
-0.001580 0.000010 0
-0.001585 0.000010 0
-0.001591 0.000009 0
-0.001596 0.000008 0
-0.001599 0.000006 0
-0.001602 0.000003 0
-0.001603 -0.000001 0
-0.001601 -0.000008 0
-0.001596 -0.000015 0
-0.001588 -0.000022 0
-0.001577 -0.000025 0
-0.001567 -0.000021 0
-0.001562 -0.000005 0
-0.001566 0.000026 0
-0.001589 0.000075 0
-0.001634 0.000135 0
-0.001704 0.000195 0
-0.001793 0.000234 0
-0.001882 0.000221 0
-0.001938 0.000120 0
-0.001914 -0.000099 0
-0.001757 -0.000443 0
-0.001425 -0.000860 0
-0.000926 -0.001185 0
-0.000360 -0.001079 0
0.000000 -0.000432 0
0.000000 0.001384 0
-0.000379 0.002525 0
-0.000979 0.001621 0
-0.001438 0.000543 0
-0.001687 -0.000062 0
-0.001779 -0.000313 0
-0.001777 -0.000385 0
-0.001727 -0.000381 0
-0.001655 -0.000350 0
-0.001576 -0.000315 0
-0.001495 -0.000283 0
-0.001417 -0.000255 0
-0.001341 -0.000233 0
-0.001268 -0.000215 0
-0.001199 -0.000200 0
-0.001132 -0.000187 0
-0.001067 -0.000177 0
-0.001005 -0.000168 0
-0.000945 -0.000161 0
-0.000886 -0.000155 0
-0.000829 -0.000149 0
-0.000773 -0.000144 0
-0.000719 -0.000140 0
-0.000665 -0.000136 0
-0.000613 -0.000132 0
-0.000561 -0.000129 0
-0.000510 -0.000125 0
-0.000460 -0.000123 0
-0.000411 -0.000122 0
-0.000361 -0.000124 0
-0.000309 -0.000130 0
-0.000255 -0.000140 0
-0.000198 -0.000151 0
-0.000138 -0.000159 0
-0.000078 -0.000149 0
-0.000027 -0.000103 0
0.000000 -0.000034 0
0.000000 0.000000 0
0.000000 0.000000 0
0.000000 0.000000 0
0.000000 0.000158 0
-0.000068 0.000460 0
-0.000209 0.000632 0
-0.000378 0.000624 0
-0.000546 0.000530 0
-0.000695 0.000415 0
-0.000822 0.000313 0
-0.000925 0.000234 0
-0.001011 0.000179 0
-0.001081 0.000142 0
-0.001141 0.000116 0
-0.001193 0.000099 0
-0.001239 0.000087 0
-0.001280 0.000077 0
-0.001318 0.000070 0
-0.001352 0.000063 0
-0.001383 0.000057 0
-0.001411 0.000052 0
-0.001437 0.000048 0
-0.001461 0.000044 0
-0.001482 0.000041 0
-0.001502 0.000037 0
-0.001521 0.000035 0
-0.001537 0.000032 0
-0.001553 0.000030 0
-0.001567 0.000028 0
-0.001581 0.000026 0
-0.001593 0.000024 0
-0.001605 0.000022 0
-0.001616 0.000021 0
-0.001626 0.000019 0
-0.001635 0.000018 0
-0.001644 0.000017 0
-0.001652 0.000017 0
-0.001660 0.000016 0
-0.001667 0.000015 0
-0.001673 0.000013 0
-0.001679 0.000010 0
-0.001683 0.000005 0
-0.001686 -0.000002 0
-0.001686 -0.000011 0
-0.001683 -0.000021 0
-0.001677 -0.000031 0
-0.001669 -0.000035 0
-0.001662 -0.000029 0
-0.001658 -0.000005 0
-0.001664 0.000040 0
-0.001685 0.000108 0
-0.001728 0.000191 0
-0.001792 0.000272 0
-0.001872 0.000319 0
-0.001948 0.000286 0
-0.001989 0.000126 0
-0.001946 -0.000203 0
-0.001769 -0.000703 0
-0.001421 -0.001290 0
-0.000913 -0.001728 0
-0.000351 -0.001545 0
0.000000 -0.000612 0
0.000000 0.001542 0
-0.000273 0.002960 0
-0.000780 0.002126 0
-0.001216 0.000907 0
-0.001490 0.000135 0
-0.001623 -0.000241 0
-0.001663 -0.000387 0
-0.001649 -0.000423 0
-0.001606 -0.000413 0
-0.001548 -0.000386 0
-0.001485 -0.000356 0
-0.001419 -0.000328 0
-0.001353 -0.000304 0
-0.001287 -0.000284 0
-0.001223 -0.000267 0
-0.001160 -0.000252 0
-0.001098 -0.000240 0
-0.001037 -0.000230 0
-0.000977 -0.000221 0
-0.000919 -0.000214 0
-0.000861 -0.000207 0
-0.000805 -0.000201 0
-0.000749 -0.000196 0
-0.000694 -0.000191 0
-0.000639 -0.000186 0
-0.000586 -0.000182 0
-0.000533 -0.000178 0
-0.000480 -0.000175 0
-0.000428 -0.000174 0
-0.000375 -0.000177 0
-0.000320 -0.000185 0
-0.000264 -0.000197 0
-0.000204 -0.000212 0
-0.000142 -0.000220 0
-0.000080 -0.000206 0
-0.000027 -0.000143 0
0.000000 -0.000048 0
0.000000 0.000000 0
0.000000 0.000000 0
0.000000 0.000000 0
0.000000 0.000186 0
-0.000044 0.000548 0
-0.000143 0.000768 0
-0.000270 0.000776 0
-0.000404 0.000678 0
-0.000532 0.000548 0
-0.000645 0.000426 0
-0.000744 0.000330 0
-0.000828 0.000260 0
-0.000902 0.000211 0
-0.000966 0.000177 0
-0.001024 0.000152 0
-0.001077 0.000135 0
-0.001126 0.000121 0
-0.001171 0.000109 0
-0.001212 0.000099 0
-0.001250 0.000091 0
-0.001285 0.000083 0
-0.001318 0.000076 0
-0.001347 0.000070 0
-0.001374 0.000064 0
-0.001399 0.000059 0
-0.001422 0.000054 0
-0.001443 0.000050 0
-0.001462 0.000047 0
-0.001480 0.000043 0
-0.001497 0.000040 0
-0.001513 0.000038 0
-0.001527 0.000035 0
-0.001541 0.000033 0
-0.001555 0.000031 0
-0.001567 0.000029 0
-0.001578 0.000027 0
-0.001589 0.000025 0
-0.001600 0.000024 0
-0.001609 0.000022 0
-0.001618 0.000020 0
-0.001627 0.000016 0
-0.001634 0.000010 0
-0.001640 0.000001 0
-0.001644 -0.000011 0
-0.001646 -0.000024 0
-0.001646 -0.000035 0
-0.001643 -0.000041 0
-0.001640 -0.000033 0
-0.001640 -0.000003 0
-0.001648 0.000053 0
-0.001667 0.000138 0
-0.001704 0.000241 0
-0.001760 0.000340 0
-0.001828 0.000391 0
-0.001892 0.000338 0
-0.001920 0.000117 0
-0.001868 -0.000319 0
-0.001690 -0.000968 0
-0.001351 -0.001716 0
-0.000864 -0.002256 0
-0.000329 -0.001993 0
0.000000 -0.000783 0
0.000000 0.001657 0
-0.000200 0.003306 0
-0.000623 0.002565 0
-0.001016 0.001253 0
-0.001282 0.000345 0
-0.001428 -0.000140 0
-0.001489 -0.000359 0
-0.001497 -0.000438 0
-0.001476 -0.000451 0
-0.001438 -0.000436 0
-0.001392 -0.000412 0
-0.001341 -0.000387 0
-0.001288 -0.000364 0
-0.001233 -0.000344 0
-0.001177 -0.000327 0
-0.001122 -0.000312 0
-0.001066 -0.000299 0
-0.001010 -0.000288 0
-0.000955 -0.000279 0
-0.000900 -0.000271 0
-0.000845 -0.000263 0
-0.000791 -0.000257 0
-0.000737 -0.000251 0
-0.000684 -0.000245 0
-0.000630 -0.000240 0
-0.000578 -0.000235 0
-0.000525 -0.000231 0
-0.000473 -0.000228 0
-0.000421 -0.000228 0
-0.000368 -0.000231 0
-0.000314 -0.000241 0
-0.000258 -0.000256 0
-0.000199 -0.000273 0
-0.000138 -0.000282 0
-0.000077 -0.000263 0
-0.000026 -0.000183 0
0.000000 -0.000061 0
0.000000 0.000000 0
0.000000 0.000000 0
0.000000 0.000000 0
0.000000 0.000201 0
-0.000020 0.000602 0
-0.000075 0.000858 0
-0.000154 0.000885 0
-0.000245 0.000791 0
-0.000339 0.000656 0
-0.000428 0.000524 0
-0.000510 0.000417 0
-0.000585 0.000337 0
-0.000653 0.000280 0
-0.000716 0.000239 0
-0.000775 0.000210 0
-0.000831 0.000188 0
-0.000884 0.000170 0
-0.000934 0.000156 0
-0.000981 0.000142 0
-0.001025 0.000131 0
-0.001066 0.000120 0
-0.001105 0.000110 0
-0.001140 0.000101 0
-0.001173 0.000092 0
-0.001202 0.000085 0
-0.001230 0.000078 0
-0.001255 0.000072 0
-0.001277 0.000067 0
-0.001299 0.000062 0
-0.001319 0.000058 0
-0.001338 0.000055 0
-0.001356 0.000051 0
-0.001373 0.000048 0
-0.001390 0.000045 0
-0.001406 0.000042 0
-0.001421 0.000040 0
-0.001435 0.000037 0
-0.001449 0.000035 0
-0.001462 0.000033 0
-0.001474 0.000030 0
-0.001487 0.000026 0
-0.001498 0.000019 0
-0.001509 0.000008 0
-0.001519 -0.000005 0
-0.001528 -0.000020 0
-0.001534 -0.000034 0
-0.001539 -0.000040 0
-0.001543 -0.000032 0
-0.001548 0.000002 0
-0.001558 0.000067 0
-0.001576 0.000164 0
-0.001608 0.000284 0
-0.001654 0.000396 0
-0.001710 0.000450 0
-0.001761 0.000377 0
-0.001780 0.000102 0
-0.001728 -0.000433 0
-0.001560 -0.001220 0
-0.001246 -0.002117 0
-0.000796 -0.002750 0
-0.000303 -0.002409 0
0.000000 -0.000941 0
0.000000 0.001743 0
-0.000149 0.003584 0
-0.000501 0.002942 0
-0.000846 0.001566 0
-0.001090 0.000547 0
-0.001230 -0.000033 0
-0.001296 -0.000318 0
-0.001314 -0.000436 0
-0.001305 -0.000471 0
-0.001282 -0.000469 0
-0.001250 -0.000453 0
-0.001213 -0.000432 0
-0.001172 -0.000412 0
-0.001129 -0.000394 0
-0.001083 -0.000378 0
-0.001037 -0.000364 0
-0.000989 -0.000351 0
-0.000941 -0.000341 0
-0.000892 -0.000331 0
-0.000842 -0.000323 0
-0.000793 -0.000316 0
-0.000743 -0.000309 0
-0.000694 -0.000303 0
-0.000644 -0.000297 0
-0.000594 -0.000292 0
-0.000545 -0.000287 0
-0.000495 -0.000282 0
-0.000446 -0.000279 0
-0.000396 -0.000279 0
-0.000346 -0.000284 0
-0.000295 -0.000295 0
-0.000241 -0.000312 0
-0.000185 -0.000332 0
-0.000128 -0.000342 0
-0.000071 -0.000318 0
-0.000024 -0.000220 0
0.000000 -0.000073 0
0.000000 0.000000 0
0.000000 0.000000 0
0.000000 0.000000 0
0.000000 0.000205 0
-0.000001 0.000623 0
-0.000014 0.000902 0
-0.000045 0.000947 0
-0.000091 0.000863 0
-0.000145 0.000730 0
-0.000203 0.000598 0
-0.000262 0.000487 0
-0.000319 0.000402 0
-0.000375 0.000342 0
-0.000431 0.000298 0
-0.000485 0.000267 0
-0.000539 0.000243 0
-0.000593 0.000223 0
-0.000645 0.000206 0
-0.000696 0.000191 0
-0.000745 0.000176 0
-0.000791 0.000163 0
-0.000836 0.000150 0
-0.000877 0.000137 0
-0.000915 0.000126 0
-0.000950 0.000115 0
-0.000981 0.000106 0
-0.001010 0.000098 0
-0.001037 0.000091 0
-0.001061 0.000085 0
-0.001084 0.000079 0
-0.001106 0.000075 0
-0.001128 0.000070 0
-0.001148 0.000066 0
-0.001168 0.000063 0
-0.001188 0.000059 0
-0.001206 0.000056 0
-0.001225 0.000053 0
-0.001242 0.000051 0
-0.001260 0.000048 0
-0.001277 0.000045 0
-0.001293 0.000040 0
-0.001310 0.000032 0
-0.001327 0.000022 0
-0.001343 0.000007 0
-0.001359 -0.000009 0
-0.001373 -0.000025 0
-0.001386 -0.000032 0
-0.001398 -0.000024 0
-0.001409 0.000011 0
-0.001422 0.000081 0
-0.001440 0.000188 0
-0.001467 0.000319 0
-0.001504 0.000442 0
-0.001548 0.000498 0
-0.001588 0.000408 0
-0.001601 0.000084 0
-0.001552 -0.000539 0
-0.001402 -0.001449 0
-0.001123 -0.002480 0
-0.000720 -0.003199 0
-0.000275 -0.002789 0
0.000000 -0.001085 0
0.000000 0.001807 0
-0.000113 0.003808 0
-0.000407 0.003262 0
-0.000706 0.001842 0
-0.000922 0.000730 0
-0.001047 0.000066 0
-0.001107 -0.000275 0
-0.001126 -0.000428 0
-0.001122 -0.000482 0
-0.001106 -0.000491 0
-0.001084 -0.000481 0
-0.001058 -0.000465 0
-0.001028 -0.000448 0
-0.000995 -0.000433 0
-0.000960 -0.000419 0
-0.000923 -0.000406 0
-0.000884 -0.000395 0
-0.000843 -0.000385 0
-0.000801 -0.000377 0
-0.000759 -0.000369 0
-0.000716 -0.000362 0
-0.000672 -0.000356 0
-0.000628 -0.000350 0
-0.000583 -0.000345 0
-0.000538 -0.000339 0
-0.000493 -0.000334 0
-0.000448 -0.000330 0
-0.000403 -0.000327 0
-0.000358 -0.000327 0
-0.000312 -0.000333 0
-0.000265 -0.000345 0
-0.000216 -0.000364 0
-0.000166 -0.000386 0
-0.000113 -0.000396 0
-0.000063 -0.000367 0
-0.000020 -0.000254 0
0.000000 -0.000084 0
0.000000 0.000000 0
0.000000 0.000000 0
0.000000 0.000000 0
0.000000 0.000201 0
0.000015 0.000616 0
0.000035 0.000903 0
0.000048 0.000961 0
0.000047 0.000891 0
0.000033 0.000768 0
0.000009 0.000641 0
-0.000023 0.000533 0
-0.000059 0.000450 0
-0.000098 0.000391 0
-0.000141 0.000349 0
-0.000187 0.000319 0
-0.000235 0.000295 0
-0.000285 0.000276 0
-0.000336 0.000258 0
-0.000387 0.000242 0
-0.000439 0.000226 0
-0.000490 0.000210 0
-0.000539 0.000195 0
-0.000586 0.000180 0
-0.000630 0.000165 0
-0.000670 0.000151 0
-0.000707 0.000138 0
-0.000740 0.000127 0
-0.000770 0.000118 0
-0.000798 0.000110 0
-0.000823 0.000103 0
-0.000848 0.000098 0
-0.000872 0.000093 0
-0.000895 0.000088 0
-0.000918 0.000084 0
-0.000941 0.000080 0
-0.000964 0.000077 0
-0.000986 0.000073 0
-0.001008 0.000070 0
-0.001030 0.000067 0
-0.001051 0.000064 0
-0.001073 0.000059 0
-0.001094 0.000052 0
-0.001117 0.000041 0
-0.001139 0.000027 0
-0.001162 0.000010 0
-0.001184 -0.000007 0
-0.001206 -0.000016 0
-0.001225 -0.000009 0
-0.001244 0.000026 0
-0.001261 0.000098 0
-0.001279 0.000209 0
-0.001302 0.000347 0
-0.001331 0.000477 0
-0.001364 0.000534 0
-0.001393 0.000430 0
-0.001401 0.000065 0
-0.001359 -0.000632 0
-0.001232 -0.001649 0
-0.000993 -0.002799 0
-0.000641 -0.003599 0
-0.000247 -0.003129 0
0.000000 -0.001216 0
0.000000 0.001856 0
-0.000086 0.003991 0
-0.000333 0.003535 0
-0.000592 0.002081 0
-0.000780 0.000889 0
-0.000887 0.000152 0
-0.000936 -0.000239 0
-0.000949 -0.000421 0
-0.000944 -0.000490 0
-0.000932 -0.000506 0
-0.000915 -0.000501 0
-0.000896 -0.000488 0
-0.000875 -0.000474 0
-0.000851 -0.000462 0
-0.000824 -0.000450 0
-0.000795 -0.000440 0
-0.000764 -0.000431 0
-0.000731 -0.000422 0
-0.000697 -0.000415 0
-0.000661 -0.000408 0
-0.000624 -0.000402 0
-0.000587 -0.000397 0
-0.000549 -0.000391 0
-0.000510 -0.000386 0
-0.000471 -0.000381 0
-0.000431 -0.000376 0
-0.000392 -0.000372 0
-0.000352 -0.000369 0
-0.000312 -0.000370 0
-0.000271 -0.000376 0
-0.000230 -0.000390 0
-0.000187 -0.000411 0
-0.000142 -0.000435 0
-0.000097 -0.000445 0
-0.000053 -0.000410 0
-0.000017 -0.000282 0
0.000000 -0.000094 0
0.000000 0.000000 0
0.000000 0.000000 0
0.000000 0.000000 0
0.000000 0.000190 0
0.000025 0.000587 0
0.000073 0.000868 0
0.000121 0.000935 0