# vtk DataFile Version 2.0
generated by CFD-lab course output (written by Tobias Neckel) 
ASCII

DATASET STRUCTURED_GRID
DIMENSIONS  99 49 1 
POINTS 4851 float

0.000000 0.000000 0
0.020000 0.000000 0
0.040000 0.000000 0
0.060000 0.000000 0
0.080000 0.000000 0
0.100000 0.000000 0
0.120000 0.000000 0
0.140000 0.000000 0
0.160000 0.000000 0
0.180000 0.000000 0
0.200000 0.000000 0
0.220000 0.000000 0
0.240000 0.000000 0
0.260000 0.000000 0
0.280000 0.000000 0
0.300000 0.000000 0
0.320000 0.000000 0
0.340000 0.000000 0
0.360000 0.000000 0
0.380000 0.000000 0
0.400000 0.000000 0
0.420000 0.000000 0
0.440000 0.000000 0
0.460000 0.000000 0
0.480000 0.000000 0
0.500000 0.000000 0
0.520000 0.000000 0
0.540000 0.000000 0
0.560000 0.000000 0
0.580000 0.000000 0
0.600000 0.000000 0
0.620000 0.000000 0
0.640000 0.000000 0
0.660000 0.000000 0
0.680000 0.000000 0
0.700000 0.000000 0
0.720000 0.000000 0
0.740000 0.000000 0
0.760000 0.000000 0
0.780000 0.000000 0
0.800000 0.000000 0
0.820000 0.000000 0
0.840000 0.000000 0
0.860000 0.000000 0
0.880000 0.000000 0
0.900000 0.000000 0
0.920000 0.000000 0
0.940000 0.000000 0
0.960000 0.000000 0
0.980000 0.000000 0
1.000000 0.000000 0
1.020000 0.000000 0
1.040000 0.000000 0
1.060000 0.000000 0
1.080000 0.000000 0
1.100000 0.000000 0
1.120000 0.000000 0
1.140000 0.000000 0
1.160000 0.000000 0
1.180000 0.000000 0
1.200000 0.000000 0
1.220000 0.000000 0
1.240000 0.000000 0
1.260000 0.000000 0
1.280000 0.000000 0
1.300000 0.000000 0
1.320000 0.000000 0
1.340000 0.000000 0
1.360000 0.000000 0
1.380000 0.000000 0
1.400000 0.000000 0
1.420000 0.000000 0
1.440000 0.000000 0
1.460000 0.000000 0
1.480000 0.000000 0
1.500000 0.000000 0
1.520000 0.000000 0
1.540000 0.000000 0
1.560000 0.000000 0
1.580000 0.000000 0
1.600000 0.000000 0
1.620000 0.000000 0
1.640000 0.000000 0
1.660000 0.000000 0
1.680000 0.000000 0
1.700000 0.000000 0
1.720000 0.000000 0
1.740000 0.000000 0
1.760000 0.000000 0
1.780000 0.000000 0
1.800000 0.000000 0
1.820000 0.000000 0
1.840000 0.000000 0
1.860000 0.000000 0
1.880000 0.000000 0
1.900000 0.000000 0
1.920000 0.000000 0
1.940000 0.000000 0
1.960000 0.000000 0
0.000000 0.020000 0
0.020000 0.020000 0
0.040000 0.020000 0
0.060000 0.020000 0
0.080000 0.020000 0
0.100000 0.020000 0
0.120000 0.020000 0
0.140000 0.020000 0
0.160000 0.020000 0
0.180000 0.020000 0
0.200000 0.020000 0
0.220000 0.020000 0
0.240000 0.020000 0
0.260000 0.020000 0
0.280000 0.020000 0
0.300000 0.020000 0
0.320000 0.020000 0
0.340000 0.020000 0
0.360000 0.020000 0
0.380000 0.020000 0
0.400000 0.020000 0
0.420000 0.020000 0
0.440000 0.020000 0
0.460000 0.020000 0
0.480000 0.020000 0
0.500000 0.020000 0
0.520000 0.020000 0
0.540000 0.020000 0
0.560000 0.020000 0
0.580000 0.020000 0
0.600000 0.020000 0
0.620000 0.020000 0
0.640000 0.020000 0
0.660000 0.020000 0
0.680000 0.020000 0
0.700000 0.020000 0
0.720000 0.020000 0
0.740000 0.020000 0
0.760000 0.020000 0
0.780000 0.020000 0
0.800000 0.020000 0
0.820000 0.020000 0
0.840000 0.020000 0
0.860000 0.020000 0
0.880000 0.020000 0
0.900000 0.020000 0
0.920000 0.020000 0
0.940000 0.020000 0
0.960000 0.020000 0
0.980000 0.020000 0
1.000000 0.020000 0
1.020000 0.020000 0
1.040000 0.020000 0
1.060000 0.020000 0
1.080000 0.020000 0
1.100000 0.020000 0
1.120000 0.020000 0
1.140000 0.020000 0
1.160000 0.020000 0
1.180000 0.020000 0
1.200000 0.020000 0
1.220000 0.020000 0
1.240000 0.020000 0
1.260000 0.020000 0
1.280000 0.020000 0
1.300000 0.020000 0
1.320000 0.020000 0
1.340000 0.020000 0
1.360000 0.020000 0
1.380000 0.020000 0
1.400000 0.020000 0
1.420000 0.020000 0
1.440000 0.020000 0
1.460000 0.020000 0
1.480000 0.020000 0
1.500000 0.020000 0
1.520000 0.020000 0
1.540000 0.020000 0
1.560000 0.020000 0
1.580000 0.020000 0
1.600000 0.020000 0
1.620000 0.020000 0
1.640000 0.020000 0
1.660000 0.020000 0
1.680000 0.020000 0
1.700000 0.020000 0
1.720000 0.020000 0
1.740000 0.020000 0
1.760000 0.020000 0
1.780000 0.020000 0
1.800000 0.020000 0
1.820000 0.020000 0
1.840000 0.020000 0
1.860000 0.020000 0
1.880000 0.020000 0
1.900000 0.020000 0
1.920000 0.020000 0
1.940000 0.020000 0
1.960000 0.020000 0
0.000000 0.040000 0
0.020000 0.040000 0
0.040000 0.040000 0
0.060000 0.040000 0
0.080000 0.040000 0
0.100000 0.040000 0
0.120000 0.040000 0
0.140000 0.040000 0
0.160000 0.040000 0
0.180000 0.040000 0
0.200000 0.040000 0
0.220000 0.040000 0
0.240000 0.040000 0
0.260000 0.040000 0
0.280000 0.040000 0
0.300000 0.040000 0
0.320000 0.040000 0
0.340000 0.040000 0
0.360000 0.040000 0
0.380000 0.040000 0
0.400000 0.040000 0
0.420000 0.040000 0
0.440000 0.040000 0
0.460000 0.040000 0
0.480000 0.040000 0
0.500000 0.040000 0
0.520000 0.040000 0
0.540000 0.040000 0
0.560000 0.040000 0
0.580000 0.040000 0
0.600000 0.040000 0
0.620000 0.040000 0
0.640000 0.040000 0
0.660000 0.040000 0
0.680000 0.040000 0
0.700000 0.040000 0
0.720000 0.040000 0
0.740000 0.040000 0
0.760000 0.040000 0
0.780000 0.040000 0
0.800000 0.040000 0
0.820000 0.040000 0
0.840000 0.040000 0
0.860000 0.040000 0
0.880000 0.040000 0
0.900000 0.040000 0
0.920000 0.040000 0
0.940000 0.040000 0
0.960000 0.040000 0
0.980000 0.040000 0
1.000000 0.040000 0
1.020000 0.040000 0
1.040000 0.040000 0
1.060000 0.040000 0
1.080000 0.040000 0
1.100000 0.040000 0
1.120000 0.040000 0
1.140000 0.040000 0
1.160000 0.040000 0
1.180000 0.040000 0
1.200000 0.040000 0
1.220000 0.040000 0
1.240000 0.040000 0
1.260000 0.040000 0
1.280000 0.040000 0
1.300000 0.040000 0
1.320000 0.040000 0
1.340000 0.040000 0
1.360000 0.040000 0
1.380000 0.040000 0
1.400000 0.040000 0
1.420000 0.040000 0
1.440000 0.040000 0
1.460000 0.040000 0
1.480000 0.040000 0
1.500000 0.040000 0
1.520000 0.040000 0
1.540000 0.040000 0
1.560000 0.040000 0
1.580000 0.040000 0
1.600000 0.040000 0
1.620000 0.040000 0
1.640000 0.040000 0
1.660000 0.040000 0
1.680000 0.040000 0
1.700000 0.040000 0
1.720000 0.040000 0
1.740000 0.040000 0
1.760000 0.040000 0
1.780000 0.040000 0
1.800000 0.040000 0
1.820000 0.040000 0
1.840000 0.040000 0
1.860000 0.040000 0
1.880000 0.040000 0
1.900000 0.040000 0
1.920000 0.040000 0
1.940000 0.040000 0
1.960000 0.040000 0
0.000000 0.060000 0
0.020000 0.060000 0
0.040000 0.060000 0
0.060000 0.060000 0
0.080000 0.060000 0
0.100000 0.060000 0
0.120000 0.060000 0
0.140000 0.060000 0
0.160000 0.060000 0
0.180000 0.060000 0
0.200000 0.060000 0
0.220000 0.060000 0
0.240000 0.060000 0
0.260000 0.060000 0
0.280000 0.060000 0
0.300000 0.060000 0
0.320000 0.060000 0
0.340000 0.060000 0
0.360000 0.060000 0
0.380000 0.060000 0
0.400000 0.060000 0
0.420000 0.060000 0
0.440000 0.060000 0
0.460000 0.060000 0
0.480000 0.060000 0
0.500000 0.060000 0
0.520000 0.060000 0
0.540000 0.060000 0
0.560000 0.060000 0
0.580000 0.060000 0
0.600000 0.060000 0
0.620000 0.060000 0
0.640000 0.060000 0
0.660000 0.060000 0
0.680000 0.060000 0
0.700000 0.060000 0
0.720000 0.060000 0
0.740000 0.060000 0
0.760000 0.060000 0
0.780000 0.060000 0
0.800000 0.060000 0
0.820000 0.060000 0
0.840000 0.060000 0
0.860000 0.060000 0
0.880000 0.060000 0
0.900000 0.060000 0
0.920000 0.060000 0
0.940000 0.060000 0
0.960000 0.060000 0
0.980000 0.060000 0
1.000000 0.060000 0
1.020000 0.060000 0
1.040000 0.060000 0
1.060000 0.060000 0
1.080000 0.060000 0
1.100000 0.060000 0
1.120000 0.060000 0
1.140000 0.060000 0
1.160000 0.060000 0
1.180000 0.060000 0
1.200000 0.060000 0
1.220000 0.060000 0
1.240000 0.060000 0
1.260000 0.060000 0
1.280000 0.060000 0
1.300000 0.060000 0
1.320000 0.060000 0
1.340000 0.060000 0
1.360000 0.060000 0
1.380000 0.060000 0
1.400000 0.060000 0
1.420000 0.060000 0
1.440000 0.060000 0
1.460000 0.060000 0
1.480000 0.060000 0
1.500000 0.060000 0
1.520000 0.060000 0
1.540000 0.060000 0
1.560000 0.060000 0
1.580000 0.060000 0
1.600000 0.060000 0
1.620000 0.060000 0
1.640000 0.060000 0
1.660000 0.060000 0
1.680000 0.060000 0
1.700000 0.060000 0
1.720000 0.060000 0
1.740000 0.060000 0
1.760000 0.060000 0
1.780000 0.060000 0
1.800000 0.060000 0
1.820000 0.060000 0
1.840000 0.060000 0
1.860000 0.060000 0
1.880000 0.060000 0
1.900000 0.060000 0
1.920000 0.060000 0
1.940000 0.060000 0
1.960000 0.060000 0
0.000000 0.080000 0
0.020000 0.080000 0
0.040000 0.080000 0
0.060000 0.080000 0
0.080000 0.080000 0
0.100000 0.080000 0
0.120000 0.080000 0
0.140000 0.080000 0
0.160000 0.080000 0
0.180000 0.080000 0
0.200000 0.080000 0
0.220000 0.080000 0
0.240000 0.080000 0
0.260000 0.080000 0
0.280000 0.080000 0
0.300000 0.080000 0
0.320000 0.080000 0
0.340000 0.080000 0
0.360000 0.080000 0
0.380000 0.080000 0
0.400000 0.080000 0
0.420000 0.080000 0
0.440000 0.080000 0
0.460000 0.080000 0
0.480000 0.080000 0
0.500000 0.080000 0
0.520000 0.080000 0
0.540000 0.080000 0
0.560000 0.080000 0
0.580000 0.080000 0
0.600000 0.080000 0
0.620000 0.080000 0
0.640000 0.080000 0
0.660000 0.080000 0
0.680000 0.080000 0
0.700000 0.080000 0
0.720000 0.080000 0
0.740000 0.080000 0
0.760000 0.080000 0
0.780000 0.080000 0
0.800000 0.080000 0
0.820000 0.080000 0
0.840000 0.080000 0
0.860000 0.080000 0
0.880000 0.080000 0
0.900000 0.080000 0
0.920000 0.080000 0
0.940000 0.080000 0
0.960000 0.080000 0
0.980000 0.080000 0
1.000000 0.080000 0
1.020000 0.080000 0
1.040000 0.080000 0
1.060000 0.080000 0
1.080000 0.080000 0
1.100000 0.080000 0
1.120000 0.080000 0
1.140000 0.080000 0
1.160000 0.080000 0
1.180000 0.080000 0
1.200000 0.080000 0
1.220000 0.080000 0
1.240000 0.080000 0
1.260000 0.080000 0
1.280000 0.080000 0
1.300000 0.080000 0
1.320000 0.080000 0
1.340000 0.080000 0
1.360000 0.080000 0
1.380000 0.080000 0
1.400000 0.080000 0
1.420000 0.080000 0
1.440000 0.080000 0
1.460000 0.080000 0
1.480000 0.080000 0
1.500000 0.080000 0
1.520000 0.080000 0
1.540000 0.080000 0
1.560000 0.080000 0
1.580000 0.080000 0
1.600000 0.080000 0
1.620000 0.080000 0
1.640000 0.080000 0
1.660000 0.080000 0
1.680000 0.080000 0
1.700000 0.080000 0
1.720000 0.080000 0
1.740000 0.080000 0
1.760000 0.080000 0
1.780000 0.080000 0
1.800000 0.080000 0
1.820000 0.080000 0
1.840000 0.080000 0
1.860000 0.080000 0
1.880000 0.080000 0
[...]
POINT_DATA 4851 

VECTORS velocity float
0.000000 0.000000 0
-0.000455 0.000000 0
-0.000595 0.000000 0
-0.000543 0.000000 0
-0.000454 0.000000 0
-0.000376 0.000000 0
-0.000317 0.000000 0
-0.000273 0.000000 0
-0.000239 0.000000 0
-0.000213 0.000000 0
-0.000192 0.000000 0
-0.000175 0.000000 0
-0.000160 0.000000 0
-0.000147 0.000000 0
-0.000136 0.000000 0
-0.000126 0.000000 0
-0.000116 0.000000 0
-0.000108 0.000000 0
-0.000100 0.000000 0
-0.000093 0.000000 0
-0.000086 0.000000 0
-0.000080 0.000000 0
-0.000074 0.000000 0
-0.000068 0.000000 0
-0.000063 0.000000 0
-0.000057 0.000000 0
-0.000052 0.000000 0
-0.000046 0.000000 0
-0.000039 0.000000 0
-0.000033 0.000000 0
-0.000026 0.000000 0
-0.000019 0.000000 0
-0.000012 0.000000 0
-0.000006 0.000000 0
-0.000002 0.000000 0
0.000000 0.000000 0
0.000000 0.000000 0
0.000000 0.000000 0
0.000000 0.000000 0
0.000000 0.000000 0
0.000000 0.000000 0
-0.000047 0.000000 0
-0.000126 0.000000 0
-0.000195 0.000000 0
-0.000241 0.000000 0
-0.000268 0.000000 0
-0.000283 0.000000 0
-0.000292 0.000000 0
-0.000298 0.000000 0
-0.000303 0.000000 0
-0.000307 0.000000 0
-0.000311 0.000000 0
-0.000314 0.000000 0
-0.000317 0.000000 0
-0.000320 0.000000 0
-0.000322 0.000000 0
-0.000325 0.000000 0
-0.000327 0.000000 0
-0.000328 0.000000 0
-0.000330 0.000000 0
-0.000331 0.000000 0
-0.000332 0.000000 0
-0.000334 0.000000 0
-0.000335 0.000000 0
-0.000335 0.000000 0
-0.000336 0.000000 0
-0.000337 0.000000 0
-0.000337 0.000000 0
-0.000338 0.000000 0
-0.000338 0.000000 0
-0.000339 0.000000 0
-0.000339 0.000000 0
-0.000340 0.000000 0
-0.000340 0.000000 0
-0.000341 0.000000 0
-0.000343 0.000000 0
-0.000345 0.000000 0
-0.000347 0.000000 0
-0.000348 0.000000 0
-0.000350 0.000000 0
-0.000350 0.000000 0
-0.000349 0.000000 0
-0.000345 0.000000 0
-0.000340 0.000000 0
-0.000332 0.000000 0
-0.000325 0.000000 0
-0.000321 0.000000 0
-0.000324 0.000000 0
-0.000339 0.000000 0
-0.000368 0.000000 0
-0.000412 0.000000 0
-0.000468 0.000000 0
-0.000527 0.000000 0
-0.000571 0.000000 0
-0.000576 0.000000 0
-0.000513 0.000000 0
-0.000364 0.000000 0
-0.000154 0.000000 0
0.000000 0.000000 0
0.000000 0.000456 0
-0.000912 0.000596 0
-0.001397 0.000088 0
-0.001451 -0.000141 0
-0.001337 -0.000166 0
-0.001189 -0.000136 0
-0.001051 -0.000103 0
-0.000933 -0.000077 0
-0.000836 -0.000059 0
-0.000754 -0.000047 0
-0.000686 -0.000038 0
-0.000627 -0.000032 0
-0.000577 -0.000027 0
-0.000532 -0.000024 0
-0.000492 -0.000021 0
-0.000456 -0.000019 0
-0.000423 -0.000017 0
-0.000393 -0.000016 0
-0.000365 -0.000014 0
-0.000339 -0.000013 0
-0.000315 -0.000012 0
-0.000292 -0.000012 0
-0.000270 -0.000011 0
-0.000249 -0.000011 0
-0.000229 -0.000011 0
-0.000208 -0.000011 0
-0.000187 -0.000011 0
-0.000166 -0.000012 0
-0.000144 -0.000012 0
-0.000120 -0.000013 0
-0.000096 -0.000013 0
-0.000072 -0.000013 0
-0.000049 -0.000012 0
-0.000028 -0.000010 0
-0.000012 -0.000006 0
-0.000002 -0.000002 0
0.000000 0.000000 0
0.000000 0.000000 0
0.000000 0.000000 0
0.000000 0.000000 0
0.000000 0.000046 0
-0.000128 0.000126 0
-0.000344 0.000148 0
-0.000545 0.000114 0
-0.000694 0.000072 0
-0.000793 0.000041 0
-0.000858 0.000023 0
-0.000901 0.000015 0
-0.000932 0.000010 0
-0.000957 0.000009 0
-0.000977 0.000007 0
-0.000995 0.000007 0
-0.001010 0.000006 0
-0.001024 0.000005 0
-0.001037 0.000005 0
-0.001048 0.000004 0
-0.001058 0.000004 0
-0.001067 0.000003 0
-0.001075 0.000003 0
-0.001082 0.000002 0
-0.001088 0.000002 0
-0.001093 0.000002 0
-0.001098 0.000002 0
-0.001102 0.000001 0
-0.001106 0.000001 0
-0.001109 0.000001 0
-0.001112 0.000001 0
-0.001114 0.000000 0
-0.001116 0.000000 0
-0.001118 0.000000 0
-0.001119 0.000000 0
-0.001121 0.000000 0
-0.001123 0.000001 0
-0.001126 0.000001 0
-0.001129 0.000002 0
-0.001133 0.000003 0
-0.001138 0.000003 0
-0.001143 0.000003 0
-0.001148 0.000003 0
-0.001151 0.000001 0
-0.001150 -0.000002 0
-0.001144 -0.000005 0
-0.001132 -0.000010 0
-0.001114 -0.000014 0
-0.001093 -0.000015 0
-0.001075 -0.000012 0
-0.001068 -0.000001 0
-0.001084 0.000017 0
-0.001134 0.000043 0
-0.001225 0.000073 0
-0.001355 0.000100 0
-0.001510 0.000114 0
-0.001656 0.000102 0
-0.001743 0.000048 0
-0.001703 -0.000058 0
-0.001469 -0.000212 0
-0.001012 -0.000360 0
-0.000418 -0.000365 0
0.000000 -0.000154 0
0.000000 0.000912 0
-0.000805 0.001398 0
-0.001543 0.000540 0
-0.001869 -0.000059 0
-0.001915 -0.000262 0
-0.001830 -0.000286 0
-0.001699 -0.000255 0
-0.001560 -0.000214 0
-0.001430 -0.000178 0
-0.001311 -0.000149 0
-0.001206 -0.000126 0
-0.001112 -0.000109 0
-0.001027 -0.000095 0
-0.000952 -0.000084 0
-0.000883 -0.000075 0
-0.000821 -0.000068 0
-0.000763 -0.000062 0
-0.000710 -0.000057 0
-0.000660 -0.000053 0
-0.000614 -0.000050 0
-0.000570 -0.000047 0
-0.000528 -0.000044 0
-0.000489 -0.000042 0
-0.000451 -0.000041 0
-0.000413 -0.000040 0
-0.000376 -0.000041 0
-0.000339 -0.000042 0
-0.000300 -0.000043 0
-0.000260 -0.000045 0
-0.000219 -0.000047 0
-0.000177 -0.000048 0
-0.000135 -0.000047 0
-0.000094 -0.000044 0
-0.000057 -0.000036 0
-0.000027 -0.000025 0
-0.000007 -0.000011 0
0.000000 -0.000002 0
0.000000 0.000000 0
0.000000 0.000000 0
0.000000 0.000000 0
0.000000 0.000127 0
-0.000162 0.000343 0
-0.000441 0.000416 0
-0.000722 0.000349 0
-0.000953 0.000247 0
-0.001125 0.000163 0
-0.001248 0.000107 0
-0.001338 0.000074 0
-0.001406 0.000055 0
-0.001460 0.000044 0
-0.001504 0.000037 0
-0.001543 0.000033 0
-0.001576 0.000029 0
-0.001606 0.000026 0
-0.001633 0.000023 0
-0.001657 0.000020 0
-0.001678 0.000018 0
-0.001698 0.000016 0
-0.001715 0.000014 0
-0.001730 0.000013 0
-0.001744 0.000011 0
-0.001756 0.000010 0
-0.001766 0.000008 0
-0.001775 0.000007 0
-0.001784 0.000006 0
-0.001791 0.000005 0
-0.001797 0.000004 0
-0.001802 0.000004 0
-0.001806 0.000003 0
-0.001810 0.000003 0
-0.001814 0.000003 0
-0.001817 0.000003 0
-0.001821 0.000004 0
-0.001825 0.000005 0
-0.001831 0.000007 0
-0.001837 0.000009 0
-0.001844 0.000010 0
-0.001851 0.000009 0
-0.001857 0.000007 0
-0.001859 0.000001 0
-0.001856 -0.000007 0
-0.001846 -0.000019 0
-0.001827 -0.000031 0
-0.001800 -0.000040 0
-0.001772 -0.000040 0
-0.001750 -0.000026 0
-0.001748 0.000009 0
-0.001781 0.000066 0
-0.001862 0.000140 0
-0.001999 0.000220 0
-0.002182 0.000284 0
-0.002384 0.000300 0
-0.002553 0.000233 0
-0.002613 0.000047 0
-0.002477 -0.000274 0
-0.002068 -0.000692 0
-0.001380 -0.001051 0
-0.000554 -0.001013 0
0.000000 -0.000419 0
0.000000 0.001262 0
-0.000611 0.002140 0
-0.001376 0.001152 0
-0.001863 0.000231 0
-0.002070 -0.000205 0
-0.002098 -0.000351 0
-0.002034 -0.000372 0
-0.001927 -0.000346 0
-0.001805 -0.000308 0
-0.001683 -0.000271 0
-0.001566 -0.000237 0
-0.001457 -0.000210 0
-0.001356 -0.000187 0
-0.001262 -0.000168 0
-0.001176 -0.000152 0
-0.001096 -0.000139 0
-0.001021 -0.000128 0
-0.000952 -0.000118 0
-0.000886 -0.000110 0
-0.000825 -0.000103 0
-0.000767 -0.000097 0
-0.000711 -0.000092 0
-0.000658 -0.000089 0
-0.000607 -0.000086 0
-0.000556 -0.000085 0
-0.000506 -0.000085 0
-0.000456 -0.000087 0
-0.000405 -0.000089 0
-0.000353 -0.000093 0
-0.000299 -0.000096 0
-0.000243 -0.000098 0
-0.000187 -0.000096 0
-0.000133 -0.000090 0
-0.000083 -0.000076 0
-0.000041 -0.000055 0
-0.000012 -0.000028 0
0.000000 -0.000007 0
0.000000 0.000000 0
0.000000 0.000000 0
0.000000 0.000000 0
0.000000 0.000207 0
-0.000143 0.000566 0
-0.000409 0.000708 0
-0.000695 0.000626 0
-0.000950 0.000474 0
-0.001155 0.000336 0
-0.001314 0.000237 0
-0.001437 0.000172 0
-0.001534 0.000132 0
-0.001614 0.000107 0
-0.001680 0.000090 0
-0.001738 0.000078 0
-0.001790 0.000069 0
-0.001835 0.000062 0
-0.001876 0.000055 0
-0.001914 0.000049 0
-0.001947 0.000044 0
-0.001977 0.000039 0
-0.002004 0.000035 0
-0.002029 0.000031 0
-0.002050 0.000027 0
-0.002070 0.000024 0
-0.002087 0.000021 0
-0.002102 0.000018 0
-0.002116 0.000016 0
-0.002128 0.000014 0
-0.002138 0.000012 0
-0.002147 0.000010 0
-0.002155 0.000008 0
-0.002162 0.000007 0
-0.002169 0.000007 0
-0.002175 0.000007 0
-0.002181 0.000009 0
-0.002188 0.000011 0
-0.002195 0.000014 0
-0.002203 0.000016 0
-0.002212 0.000017 0
-0.002221 0.000016 0
-0.002228 0.000010 0
-0.002231 0.000000 0
-0.002228 -0.000016 0
-0.002217 -0.000035 0
-0.002197 -0.000055 0
-0.002171 -0.000069 0
-0.002144 -0.000066 0
-0.002126 -0.000036 0
-0.002131 0.000029 0
-0.002174 0.000132 0
-0.002268 0.000261 0
-0.002417 0.000392 0
-0.002607 0.000485 0
-0.002805 0.000485 0
-0.002950 0.000331 0
-0.002960 -0.000028 0
-0.002746 -0.000603 0
-0.002242 -0.001309 0
-0.001462 -0.001874 0
-0.000571 -0.001745 0
0.000000 -0.000708 0
0.000000 0.001524 0
-0.000465 0.002775 0
-0.001173 0.001793 0
-0.001718 0.000635 0
-0.002026 -0.000026 0
-0.002149 -0.000322 0
-0.002157 -0.000426 0
-0.002099 -0.000442 0
-0.002007 -0.000421 0
-0.001900 -0.000388 0
-0.001789 -0.000352 0
-0.001679 -0.000319 0
-0.001573 -0.000289 0
-0.001473 -0.000263 0
-0.001378 -0.000241 0
-0.001288 -0.000222 0
-0.001204 -0.000206 0
-0.001124 -0.000192 0
-0.001049 -0.000180 0
-0.000977 -0.000169 0
-0.000909 -0.000160 0
-0.000843 -0.000153 0
-0.000781 -0.000147 0
-0.000720 -0.000142 0
-0.000661 -0.000140 0
-0.000602 -0.000140 0
-0.000543 -0.000142 0
-0.000484 -0.000146 0
-0.000423 -0.000151 0
-0.000360 -0.000156 0
-0.000295 -0.000159 0
-0.000230 -0.000157 0
-0.000165 -0.000148 0
-0.000105 -0.000128 0
-0.000053 -0.000096 0
-0.000016 -0.000052 0
0.000000 -0.000013 0
0.000000 0.000000 0
0.000000 0.000000 0
0.000000 0.000000 0
0.000000 0.000270 0
-0.000104 0.000751 0
-0.000316 0.000968 0
-0.000563 0.000890 0
-0.000799 0.000707 0
-0.001002 0.000527 0
-0.001170 0.000389 0
-0.001306 0.000294 0
-0.001419 0.000231 0
-0.001514 0.000190 0
-0.001597 0.000162 0
-0.001670 0.000141 0
-0.001736 0.000126 0
-0.001795 0.000112 0
-0.001850 0.000101 0
-0.001899 0.000091 0
-0.001944 0.000082 0
-0.001986 0.000073 0
-0.002023 0.000065 0
-0.002057 0.000058 0
-0.002087 0.000052 0
-0.002115 0.000046 0
-0.002140 0.000041 0
-0.002162 0.000036 0
-0.002182 0.000031 0
-0.002200 0.000027 0
-0.002216 0.000024 0
-0.002230 0.000021 0
-0.002243 0.000018 0
-0.002255 0.000016 0
-0.002266 0.000015 0
-0.002276 0.000015 0
-0.002286 0.000016 0
-0.002296 0.000019 0
-0.002306 0.000022 0
-0.002317 0.000025 0
-0.002329 0.000027 0
-0.002341 0.000024 0
-0.002350 0.000016 0
-0.002357 0.000001 0
-0.002358 -0.000022 0
-0.002352 -0.000049 0
-0.002338 -0.000076 0
-0.002318 -0.000093 0
-0.002298 -0.000086 0
-0.002288 -0.000039 0
-0.002299 0.000057 0
-0.002345 0.000203 0
-0.002438 0.000383 0
-0.002580 0.000560 0
-0.002756 0.000673 0
-0.002929 0.000643 0
-0.003039 0.000387 0
-0.003006 -0.000158 0
-0.002748 -0.000992 0
-0.002211 -0.001976 0
-0.001419 -0.002723 0
-0.000543 -0.002475 0
0.000000 -0.000989 0
0.000000 0.001727 0
-0.000365 0.003313 0
-0.000999 0.002405 0
-0.001544 0.001084 0
-0.001899 0.000227 0
-0.002085 -0.000220 0
-0.002150 -0.000422 0
-0.002137 -0.000496 0
-0.002078 -0.000507 0
-0.001994 -0.000488 0
-0.001897 -0.000458 0
-0.001796 -0.000425 0
-0.001694 -0.000392 0
-0.001594 -0.000363 0
-0.001498 -0.000336 0
-0.001406 -0.000312 0
-0.001317 -0.000292 0
-0.001233 -0.000273 0
-0.001152 -0.000257 0
-0.001075 -0.000243 0
-0.001000 -0.000231 0
-0.000929 -0.000220 0
-0.000861 -0.000212 0
-0.000794 -0.000206 0
-0.000730 -0.000203 0
-0.000666 -0.000202 0
-0.000602 -0.000205 0
-0.000537 -0.000210 0
-0.000472 -0.000216 0
-0.000404 -0.000223 0
-0.000334 -0.000228 0
-0.000262 -0.000226 0
-0.000191 -0.000214 0
-0.000123 -0.000188 0
-0.000063 -0.000144 0
-0.000019 -0.000081 0
0.000000 -0.000022 0
0.000000 0.000000 0
0.000000 0.000000 0
0.000000 0.000000 0
0.000000 0.000311 0
-0.000061 0.000882 0
-0.000204 0.001167 0
-0.000387 0.001108 0
-0.000576 0.000913 0
-0.000750 0.000707 0
-0.000903 0.000540 0
-0.001033 0.000421 0
-0.001146 0.000340 0
-0.001246 0.000284 0
-0.001336 0.000246 0
-0.001418 0.000217 0
-0.001493 0.000194 0
-0.001563 0.000175 0
-0.001628 0.000159 0
-0.001688 0.000144 0
-0.001744 0.000130 0
-0.001796 0.000118 0
-0.001843 0.000106 0
-0.001887 0.000095 0
-0.001927 0.000085 0
-0.001963 0.000076 0
-0.001996 0.000068 0
-0.002026 0.000060 0
-0.002053 0.000054 0
-0.002078 0.000047 0
-0.002101 0.000042 0
-0.002122 0.000037 0
-0.002141 0.000033 0
-0.002159 0.000030 0
-0.002175 0.000028 0
-0.002191 0.000027 0
-0.002206 0.000028 0
-0.002221 0.000031 0
-0.002237 0.000035 0
-0.002252 0.000039 0
-0.002268 0.000040 0
-0.002285 0.000037 0
-0.002300 0.000027 0
-0.002313 0.000007 0
-0.002322 -0.000021 0
-0.002324 -0.000056 0
-0.002320 -0.000089 0
-0.002312 -0.000108 0
-0.002303 -0.000096 0
-0.002301 -0.000036 0
-0.002317 0.000087 0
-0.002362 0.000271 0
-0.002447 0.000495 0
-0.002570 0.000709 0
-0.002720 0.000834 0
-0.002862 0.000768 0
-0.002939 0.000408 0
-0.002878 -0.000319 0
-0.002606 -0.001399 0
-0.002079 -0.002638 0
-0.001323 -0.003542 0
-0.000501 -0.003164 0
0.000000 -0.001251 0
0.000000 0.001890 0
-0.000296 0.003774 0
-0.000858 0.002971 0
-0.001377 0.001535 0
-0.001745 0.000515 0
-0.001964 -0.000071 0
-0.002067 -0.000374 0
-0.002089 -0.000513 0
-0.002059 -0.000564 0
-0.001997 -0.000569 0
-0.001917 -0.000550 0
-0.001828 -0.000522 0
-0.001735 -0.000490 0
-0.001641 -0.000459 0
-0.001548 -0.000430 0
-0.001458 -0.000403 0
-0.001370 -0.000379 0
-0.001285 -0.000357 0
-0.001202 -0.000338 0
-0.001123 -0.000320 0
-0.001047 -0.000305 0
-0.000973 -0.000292 0
-0.000902 -0.000281 0
-0.000833 -0.000273 0
-0.000766 -0.000269 0
-0.000700 -0.000268 0
-0.000634 -0.000270 0
-0.000568 -0.000276 0
-0.000501 -0.000285 0
-0.000431 -0.000294 0
-0.000359 -0.000300 0
-0.000285 -0.000300 0
-0.000209 -0.000287 0
-0.000136 -0.000256 0
-0.000071 -0.000199 0
-0.000021 -0.000114 0
0.000000 -0.000032 0
0.000000 0.000000 0
0.000000 0.000000 0
0.000000 0.000000 0
0.000000 0.000330 0
-0.000022 0.000954 0
-0.000094 0.001294 0
-0.000204 0.001262 0
-0.000332 0.001070 0
-0.000461 0.000854 0
-0.000581 0.000671 0
-0.000690 0.000537 0
-0.000790 0.000444 0
-0.000882 0.000379 0
-0.000969 0.000333 0
-0.001052 0.000299 0
-0.001130 0.000271 0
-0.001206 0.000247 0
-0.001277 0.000226 0
-0.001345 0.000207 0
-0.001410 0.000189 0
-0.001471 0.000172 0
-0.001528 0.000156 0
-0.001581 0.000142 0
-0.001630 0.000128 0
-0.001675 0.000115 0
-0.001717 0.000103 0
-0.001755 0.000093 0
-0.001791 0.000083 0
-0.001823 0.000075 0
-0.001853 0.000067 0
-0.001882 0.000061 0
-0.001908 0.000055 0
-0.001933 0.000050 0
-0.001957 0.000047 0
-0.001980 0.000046 0
-0.002002 0.000046 0
-0.002023 0.000049 0
-0.002045 0.000053 0
-0.002066 0.000057 0
-0.002088 0.000059 0
-0.002111 0.000056 0
-0.002134 0.000044 0
-0.002155 0.000022 0
-0.002174 -0.000011 0
-0.002188 -0.000051 0
-0.002198 -0.000089 0
-0.002203 -0.000111 0
-0.002206 -0.000097 0
-0.002214 -0.000025 0
-0.002234 0.000118 0
-0.002275 0.000332 0
-0.002346 0.000591 0
-0.002447 0.000833 0
-0.002566 0.000964 0
-0.002675 0.000861 0
-0.002725 0.000403 0
-0.002650 -0.000491 0
-0.002387 -0.001792 0
-0.001898 -0.003259 0
-0.001205 -0.004301 0
-0.000455 -0.003798 0
0.000000 -0.001491 0
0.000000 0.002024 0
-0.000246 0.004172 0
-0.000745 0.003487 0
-0.001229 0.001971 0
-0.001590 0.000814 0
-0.001820 0.000102 0
-0.001943 -0.000297 0
-0.001987 -0.000504 0
-0.001978 -0.000598 0
-0.001935 -0.000630 0
-0.001871 -0.000627 0
-0.001794 -0.000607 0
-0.001712 -0.000579 0
-0.001626 -0.000549 0
-0.001540 -0.000519 0
-0.001454 -0.000491 0
-0.001370 -0.000464 0
-0.001288 -0.000440 0
-0.001208 -0.000418 0
-0.001129 -0.000398 0
-0.001054 -0.000380 0
-0.000980 -0.000365 0
-0.000909 -0.000352 0
-0.000840 -0.000342 0
-0.000773 -0.000336 0
-0.000707 -0.000334 0
-0.000643 -0.000336 0
-0.000578 -0.000343 0
-0.000512 -0.000353 0
-0.000444 -0.000364 0
-0.000372 -0.000374 0
-0.000298 -0.000376 0
-0.000221 -0.000363 0
-0.000145 -0.000327 0
-0.000076 -0.000259 0
-0.000023 -0.000151 0
0.000000 -0.000043 0
0.000000 0.000000 0
0.000000 0.000000 0
0.000000 0.000000 0
0.000000 0.000332 0
0.000009 0.000975 0
0.000001 0.001349 0
-0.000038 0.001346 0
-0.000100 0.001169 0
-0.000175 0.000955 0
-0.000253 0.000769 0
-0.000330 0.000629 0
-0.000405 0.000531 0
-0.000480 0.000464 0
-0.000555 0.000415 0
-0.000630 0.000378 0
-0.000705 0.000348 0
-0.000780 0.000322 0
-0.000853 0.000298 0
-0.000925 0.000276 0
-0.000995 0.000255 0
-0.001063 0.000235 0
-0.001129 0.000216 0
-0.001191 0.000197 0
-0.001249 0.000180 0
-0.001304 0.000163 0
-0.001355 0.000148 0
-0.001402 0.000134 0
-0.001445 0.000121 0
-0.001486 0.000110 0
-0.001524 0.000100 0
-0.001560 0.000092 0
-0.001594 0.000084 0
-0.001627 0.000079 0
-0.001659 0.000074 0
-0.001690 0.000072 0
-0.001719 0.000072 0
-0.001748 0.000074 0
-0.001777 0.000078 0
-0.001805 0.000082 0
-0.001834 0.000084 0
-0.001864 0.000082 0
-0.001894 0.000071 0
-0.001925 0.000047 0
-0.001955 0.000012 0
-0.001982 -0.000032 0
-0.002006 -0.000075 0
-0.002025 -0.000100 0
-0.002042 -0.000085 0
-0.002059 -0.000008 0
-0.002083 0.000148 0
-0.002119 0.000383 0
-0.002174 0.000666 0
-0.002251 0.000929 0
-0.002340 0.001062 0
-0.002418 0.000926 0
-0.002445 0.000383 0
-0.002367 -0.000657 0
-0.002128 -0.002151 0
-0.001693 -0.003820 0
-0.001078 -0.004985 0
-0.000409 -0.004370 0
0.000000 -0.001707 0
0.000000 0.002136 0
-0.000209 0.004520 0
-0.000653 0.003954 0
-0.001098 0.002381 0
-0.001442 0.001107 0
-0.001670 0.000282 0
-0.001800 -0.000206 0
-0.001855 -0.000478 0
-0.001859 -0.000616 0
-0.001829 -0.000676 0
-0.001777 -0.000691 0
-0.001712 -0.000681 0
-0.001640 -0.000658 0
-0.001563 -0.000631 0
-0.001485 -0.000601 0
-0.001407 -0.000572 0
-0.001328 -0.000545 0
-0.001251 -0.000519 0
-0.001175 -0.000496 0
-0.001100 -0.000474 0
-0.001027 -0.000454 0
-0.000956 -0.000436 0
-0.000887 -0.000421 0
-0.000820 -0.000409 0
-0.000755 -0.000401 0
-0.000692 -0.000398 0
-0.000630 -0.000400 0
-0.000568 -0.000407 0
-0.000506 -0.000419 0
-0.000441 -0.000433 0
-0.000374 -0.000446 0
-0.000302 -0.000451 0
-0.000226 -0.000439 0
-0.000150 -0.000400 0
-0.000080 -0.000321 0
-0.000025 -0.000190 0
0.000000 -0.000055 0
0.000000 0.000000 0
0.000000 0.000000 0
0.000000 0.000000 0
0.000000 0.000321 0
0.000032 0.000953 0
0.000076 0.001341 0
0.000101 0.001362 0
0.000102 0.001207 0
0.000082 0.001006 0
0.000049 0.000826 0
0.000009 0.000690 0
-0.000036 0.000594 0
-0.000086 0.000529 0
-0.000142 0.000483 0
-0.000202 0.000448 0
-0.000265 0.000420 0
-0.000332 0.000395 0
-0.000401 0.000371 0
-0.000471 0.000349 0
-0.000543 0.000327 0
-0.000615 0.000305 0
-0.000687 0.000284 0
-0.000757 0.000262 0
-0.000825 0.000241 0
-0.000889 0.000220 0
-0.000950 0.000201 0
-0.001006 0.000183 0
-0.001058 0.000167 0
-0.001107 0.000153 0
-0.001152 0.000141 0
-0.001195 0.000131 0
-0.001237 0.000122 0
-0.001278 0.000115 0
-0.001317 0.000109 0
-0.001356 0.000106 0
-0.001394 0.000105 0
-0.001431 0.000106 0
-0.001467 0.000110 0
-0.001502 0.000114 0
-0.001538 0.000117 0
-0.001575 0.000116 0
-0.001613 0.000105 0
-0.001653 0.000083 0
-0.001693 0.000047 0
-0.001733 0.000000 0
-0.001771 -0.000046 0
-0.001805 -0.000075 0
-0.001835 -0.000062 0
-0.001862 0.000015 0
-0.001889 0.000177 0
-0.001921 0.000423 0
-0.001962 0.000722 0
-0.002015 0.000998 0
-0.002075 0.001130 0
-0.002125 0.000966 0
-0.002135 0.000352 0
-0.002060 -0.000808 0
-0.001853 -0.002466 0
-0.001479 -0.004309 0
-0.000948 -0.005585 0
-0.000363 -0.004876 0
0.000000 -0.001900 0
0.000000 0.002233 0
-0.000179 0.004825 0
-0.000576 0.004377 0
-0.000985 0.002761 0
-0.001306 0.001386 0
-0.001523 0.000459 0
-0.001650 -0.000112 0
-0.001708 -0.000444 0
-0.001717 -0.000624 0
-0.001694 -0.000712 0
-0.001651 -0.000744 0
-0.001595 -0.000744 0
-0.001532 -0.000728 0
-0.001465 -0.000703 0
-0.001395 -0.000675 0
-0.001325 -0.000647 0
-0.001253 -0.000620 0
-0.001182 -0.000594 0
-0.001111 -0.000569 0
-0.001042 -0.000546 0
-0.000973 -0.000524 0
-0.000906 -0.000505 0
-0.000840 -0.000487 0
-0.000777 -0.000473 0
-0.000716 -0.000463 0
-0.000657 -0.000458 0
-0.000600 -0.000459 0
-0.000543 -0.000467 0
-0.000486 -0.000480 0
-0.000427 -0.000497 0
-0.000364 -0.000513 0
-0.000297 -0.000523 0
-0.000225 -0.000514 0
-0.000152 -0.000473 0
-0.000081 -0.000384 0
-0.000026 -0.000231 0
0.000000 -0.000068 0
0.000000 0.000000 0
0.000000 0.000000 0
0.000000 0.000000 0
0.000000 0.000300 0
0.000048 0.000899 0
0.000130 0.001280 0
0.000208 0.001320 0
0.000263 0.001189 0