# vtk DataFile Version 2.0
generated by CFD-lab course output (written by Tobias Neckel) 
ASCII

DATASET STRUCTURED_GRID
DIMENSIONS  99 49 1 
POINTS 4851 float

0.000000 0.000000 0
0.020000 0.000000 0
0.040000 0.000000 0
0.060000 0.000000 0
0.080000 0.000000 0
0.100000 0.000000 0
0.120000 0.000000 0
0.140000 0.000000 0
0.160000 0.000000 0
0.180000 0.000000 0
0.200000 0.000000 0
0.220000 0.000000 0
0.240000 0.000000 0
0.260000 0.000000 0
0.280000 0.000000 0
0.300000 0.000000 0
0.320000 0.000000 0
0.340000 0.000000 0
0.360000 0.000000 0
0.380000 0.000000 0
0.400000 0.000000 0
0.420000 0.000000 0
0.440000 0.000000 0
0.460000 0.000000 0
0.480000 0.000000 0
0.500000 0.000000 0
0.520000 0.000000 0
0.540000 0.000000 0
0.560000 0.000000 0
0.580000 0.000000 0
0.600000 0.000000 0
0.620000 0.000000 0
0.640000 0.000000 0
0.660000 0.000000 0
0.680000 0.000000 0
0.700000 0.000000 0
0.720000 0.000000 0
0.740000 0.000000 0
0.760000 0.000000 0
0.780000 0.000000 0
0.800000 0.000000 0
0.820000 0.000000 0
0.840000 0.000000 0
0.860000 0.000000 0
0.880000 0.000000 0
0.900000 0.000000 0
0.920000 0.000000 0
0.940000 0.000000 0
0.960000 0.000000 0
0.980000 0.000000 0
1.000000 0.000000 0
1.020000 0.000000 0
1.040000 0.000000 0
1.060000 0.000000 0
1.080000 0.000000 0
1.100000 0.000000 0
1.120000 0.000000 0
1.140000 0.000000 0
1.160000 0.000000 0
1.180000 0.000000 0
1.200000 0.000000 0
1.220000 0.000000 0
1.240000 0.000000 0
1.260000 0.000000 0
1.280000 0.000000 0
1.300000 0.000000 0
1.320000 0.000000 0
1.340000 0.000000 0
1.360000 0.000000 0
1.380000 0.000000 0
1.400000 0.000000 0
1.420000 0.000000 0
1.440000 0.000000 0
1.460000 0.000000 0
1.480000 0.000000 0
1.500000 0.000000 0
1.520000 0.000000 0
1.540000 0.000000 0
1.560000 0.000000 0
1.580000 0.000000 0
1.600000 0.000000 0
1.620000 0.000000 0
1.640000 0.000000 0
1.660000 0.000000 0
1.680000 0.000000 0
1.700000 0.000000 0
1.720000 0.000000 0
1.740000 0.000000 0
1.760000 0.000000 0
1.780000 0.000000 0
1.800000 0.000000 0
1.820000 0.000000 0
1.840000 0.000000 0
1.860000 0.000000 0
1.880000 0.000000 0
1.900000 0.000000 0
1.920000 0.000000 0
1.940000 0.000000 0
1.960000 0.000000 0
0.000000 0.020000 0
0.020000 0.020000 0
0.040000 0.020000 0
0.060000 0.020000 0
0.080000 0.020000 0
0.100000 0.020000 0
0.120000 0.020000 0
0.140000 0.020000 0
0.160000 0.020000 0
0.180000 0.020000 0
0.200000 0.020000 0
0.220000 0.020000 0
0.240000 0.020000 0
0.260000 0.020000 0
0.280000 0.020000 0
0.300000 0.020000 0
0.320000 0.020000 0
0.340000 0.020000 0
0.360000 0.020000 0
0.380000 0.020000 0
0.400000 0.020000 0
0.420000 0.020000 0
0.440000 0.020000 0
0.460000 0.020000 0
0.480000 0.020000 0
0.500000 0.020000 0
0.520000 0.020000 0
0.540000 0.020000 0
0.560000 0.020000 0
0.580000 0.020000 0
0.600000 0.020000 0
0.620000 0.020000 0
0.640000 0.020000 0
0.660000 0.020000 0
0.680000 0.020000 0
0.700000 0.020000 0
0.720000 0.020000 0
0.740000 0.020000 0
0.760000 0.020000 0
0.780000 0.020000 0
0.800000 0.020000 0
0.820000 0.020000 0
0.840000 0.020000 0
0.860000 0.020000 0
0.880000 0.020000 0
0.900000 0.020000 0
0.920000 0.020000 0
0.940000 0.020000 0
0.960000 0.020000 0
0.980000 0.020000 0
1.000000 0.020000 0
1.020000 0.020000 0
1.040000 0.020000 0
1.060000 0.020000 0
1.080000 0.020000 0
1.100000 0.020000 0
1.120000 0.020000 0
1.140000 0.020000 0
1.160000 0.020000 0
1.180000 0.020000 0
1.200000 0.020000 0
1.220000 0.020000 0
1.240000 0.020000 0
1.260000 0.020000 0
1.280000 0.020000 0
1.300000 0.020000 0
1.320000 0.020000 0
1.340000 0.020000 0
1.360000 0.020000 0
1.380000 0.020000 0
1.400000 0.020000 0
1.420000 0.020000 0
1.440000 0.020000 0
1.460000 0.020000 0
1.480000 0.020000 0
1.500000 0.020000 0
1.520000 0.020000 0
1.540000 0.020000 0
1.560000 0.020000 0
1.580000 0.020000 0
1.600000 0.020000 0
1.620000 0.020000 0
1.640000 0.020000 0
1.660000 0.020000 0
1.680000 0.020000 0
1.700000 0.020000 0
1.720000 0.020000 0
1.740000 0.020000 0
1.760000 0.020000 0
1.780000 0.020000 0
1.800000 0.020000 0
1.820000 0.020000 0
1.840000 0.020000 0
1.860000 0.020000 0
1.880000 0.020000 0
1.900000 0.020000 0
1.920000 0.020000 0
1.940000 0.020000 0
1.960000 0.020000 0
0.000000 0.040000 0
0.020000 0.040000 0
0.040000 0.040000 0
0.060000 0.040000 0
0.080000 0.040000 0
0.100000 0.040000 0
0.120000 0.040000 0
0.140000 0.040000 0
0.160000 0.040000 0
0.180000 0.040000 0
0.200000 0.040000 0
0.220000 0.040000 0
0.240000 0.040000 0
0.260000 0.040000 0
0.280000 0.040000 0
0.300000 0.040000 0
0.320000 0.040000 0
0.340000 0.040000 0
0.360000 0.040000 0
0.380000 0.040000 0
0.400000 0.040000 0
0.420000 0.040000 0
0.440000 0.040000 0
0.460000 0.040000 0
0.480000 0.040000 0
0.500000 0.040000 0
0.520000 0.040000 0
0.540000 0.040000 0
0.560000 0.040000 0
0.580000 0.040000 0
0.600000 0.040000 0
0.620000 0.040000 0
0.640000 0.040000 0
0.660000 0.040000 0
0.680000 0.040000 0
0.700000 0.040000 0
0.720000 0.040000 0
0.740000 0.040000 0
0.760000 0.040000 0
0.780000 0.040000 0
0.800000 0.040000 0
0.820000 0.040000 0
0.840000 0.040000 0
0.860000 0.040000 0
0.880000 0.040000 0
0.900000 0.040000 0
0.920000 0.040000 0
0.940000 0.040000 0
0.960000 0.040000 0
0.980000 0.040000 0
1.000000 0.040000 0
1.020000 0.040000 0
1.040000 0.040000 0
1.060000 0.040000 0
1.080000 0.040000 0
1.100000 0.040000 0
1.120000 0.040000 0
1.140000 0.040000 0
1.160000 0.040000 0
1.180000 0.040000 0
1.200000 0.040000 0
1.220000 0.040000 0
1.240000 0.040000 0
1.260000 0.040000 0
1.280000 0.040000 0
1.300000 0.040000 0
1.320000 0.040000 0
1.340000 0.040000 0
1.360000 0.040000 0
1.380000 0.040000 0
1.400000 0.040000 0
1.420000 0.040000 0
1.440000 0.040000 0
1.460000 0.040000 0
1.480000 0.040000 0
1.500000 0.040000 0
1.520000 0.040000 0
1.540000 0.040000 0
1.560000 0.040000 0
1.580000 0.040000 0
1.600000 0.040000 0
1.620000 0.040000 0
1.640000 0.040000 0
1.660000 0.040000 0
1.680000 0.040000 0
1.700000 0.040000 0
1.720000 0.040000 0
1.740000 0.040000 0
1.760000 0.040000 0
1.780000 0.040000 0
1.800000 0.040000 0
1.820000 0.040000 0
1.840000 0.040000 0
1.860000 0.040000 0
1.880000 0.040000 0
1.900000 0.040000 0
1.920000 0.040000 0
1.940000 0.040000 0
1.960000 0.040000 0
0.000000 0.060000 0
0.020000 0.060000 0
0.040000 0.060000 0
0.060000 0.060000 0
0.080000 0.060000 0
0.100000 0.060000 0
0.120000 0.060000 0
0.140000 0.060000 0
0.160000 0.060000 0
0.180000 0.060000 0
0.200000 0.060000 0
0.220000 0.060000 0
0.240000 0.060000 0
0.260000 0.060000 0
0.280000 0.060000 0
0.300000 0.060000 0
0.320000 0.060000 0
0.340000 0.060000 0
0.360000 0.060000 0
0.380000 0.060000 0
0.400000 0.060000 0
0.420000 0.060000 0
0.440000 0.060000 0
0.460000 0.060000 0
0.480000 0.060000 0
0.500000 0.060000 0
0.520000 0.060000 0
0.540000 0.060000 0
0.560000 0.060000 0
0.580000 0.060000 0
0.600000 0.060000 0
0.620000 0.060000 0
0.640000 0.060000 0
0.660000 0.060000 0
0.680000 0.060000 0
0.700000 0.060000 0
0.720000 0.060000 0
0.740000 0.060000 0
0.760000 0.060000 0
0.780000 0.060000 0
0.800000 0.060000 0
0.820000 0.060000 0
0.840000 0.060000 0
0.860000 0.060000 0
0.880000 0.060000 0
0.900000 0.060000 0
0.920000 0.060000 0
0.940000 0.060000 0
0.960000 0.060000 0
0.980000 0.060000 0
1.000000 0.060000 0
1.020000 0.060000 0
1.040000 0.060000 0
1.060000 0.060000 0
1.080000 0.060000 0
1.100000 0.060000 0
1.120000 0.060000 0
1.140000 0.060000 0
1.160000 0.060000 0
1.180000 0.060000 0
1.200000 0.060000 0
1.220000 0.060000 0
1.240000 0.060000 0
1.260000 0.060000 0
1.280000 0.060000 0
1.300000 0.060000 0
1.320000 0.060000 0
1.340000 0.060000 0
1.360000 0.060000 0
1.380000 0.060000 0
1.400000 0.060000 0
1.420000 0.060000 0
1.440000 0.060000 0
1.460000 0.060000 0
1.480000 0.060000 0
1.500000 0.060000 0
1.520000 0.060000 0
1.540000 0.060000 0
1.560000 0.060000 0
1.580000 0.060000 0
1.600000 0.060000 0
1.620000 0.060000 0
1.640000 0.060000 0
1.660000 0.060000 0
1.680000 0.060000 0
1.700000 0.060000 0
1.720000 0.060000 0
1.740000 0.060000 0
1.760000 0.060000 0
1.780000 0.060000 0
1.800000 0.060000 0
1.820000 0.060000 0
1.840000 0.060000 0
1.860000 0.060000 0
1.880000 0.060000 0
1.900000 0.060000 0
1.920000 0.060000 0
1.940000 0.060000 0
1.960000 0.060000 0
0.000000 0.080000 0
0.020000 0.080000 0
0.040000 0.080000 0
0.060000 0.080000 0
0.080000 0.080000 0
0.100000 0.080000 0
0.120000 0.080000 0
0.140000 0.080000 0
0.160000 0.080000 0
0.180000 0.080000 0
0.200000 0.080000 0
0.220000 0.080000 0
0.240000 0.080000 0
0.260000 0.080000 0
0.280000 0.080000 0
0.300000 0.080000 0
0.320000 0.080000 0
0.340000 0.080000 0
0.360000 0.080000 0
0.380000 0.080000 0
0.400000 0.080000 0
0.420000 0.080000 0
0.440000 0.080000 0
0.460000 0.080000 0
0.480000 0.080000 0
0.500000 0.080000 0
0.520000 0.080000 0
0.540000 0.080000 0
0.560000 0.080000 0
0.580000 0.080000 0
0.600000 0.080000 0
0.620000 0.080000 0
0.640000 0.080000 0
0.660000 0.080000 0
0.680000 0.080000 0
0.700000 0.080000 0
0.720000 0.080000 0
0.740000 0.080000 0
0.760000 0.080000 0
0.780000 0.080000 0
0.800000 0.080000 0
0.820000 0.080000 0
0.840000 0.080000 0
0.860000 0.080000 0
0.880000 0.080000 0
0.900000 0.080000 0
0.920000 0.080000 0
0.940000 0.080000 0
0.960000 0.080000 0
0.980000 0.080000 0
1.000000 0.080000 0
1.020000 0.080000 0
1.040000 0.080000 0
1.060000 0.080000 0
1.080000 0.080000 0
1.100000 0.080000 0
1.120000 0.080000 0
1.140000 0.080000 0
1.160000 0.080000 0
1.180000 0.080000 0
1.200000 0.080000 0
1.220000 0.080000 0
1.240000 0.080000 0
1.260000 0.080000 0
1.280000 0.080000 0
1.300000 0.080000 0
1.320000 0.080000 0
1.340000 0.080000 0
1.360000 0.080000 0
1.380000 0.080000 0
1.400000 0.080000 0
1.420000 0.080000 0
1.440000 0.080000 0
1.460000 0.080000 0
1.480000 0.080000 0
1.500000 0.080000 0
1.520000 0.080000 0
1.540000 0.080000 0
1.560000 0.080000 0
1.580000 0.080000 0
1.600000 0.080000 0
1.620000 0.080000 0
1.640000 0.080000 0
1.660000 0.080000 0
1.680000 0.080000 0
1.700000 0.080000 0
1.720000 0.080000 0
1.740000 0.080000 0
1.760000 0.080000 0
1.780000 0.080000 0
1.800000 0.080000 0
1.820000 0.080000 0
1.840000 0.080000 0
1.860000 0.080000 0
1.880000 0.080000 0
[...]
POINT_DATA 4851 

VECTORS velocity float
0.000000 0.000000 0
-0.000456 0.000000 0
-0.000596 0.000000 0
-0.000542 0.000000 0
-0.000451 0.000000 0
-0.000371 0.000000 0
-0.000310 0.000000 0
-0.000264 0.000000 0
-0.000229 0.000000 0
-0.000202 0.000000 0
-0.000180 0.000000 0
-0.000162 0.000000 0
-0.000146 0.000000 0
-0.000133 0.000000 0
-0.000121 0.000000 0
-0.000110 0.000000 0
-0.000099 0.000000 0
-0.000090 0.000000 0
-0.000080 0.000000 0
-0.000071 0.000000 0
-0.000063 0.000000 0
-0.000054 0.000000 0
-0.000046 0.000000 0
-0.000038 0.000000 0
-0.000031 0.000000 0
-0.000024 0.000000 0
-0.000018 0.000000 0
-0.000012 0.000000 0
-0.000008 0.000000 0
-0.000004 0.000000 0
-0.000001 0.000000 0
0.000001 0.000000 0
0.000002 0.000000 0
0.000002 0.000000 0
0.000002 0.000000 0
0.000001 0.000000 0
0.000000 0.000000 0
0.000000 0.000000 0
0.000000 0.000000 0
0.000000 0.000000 0
0.000000 0.000000 0
-0.000001 0.000000 0
-0.000006 0.000000 0
-0.000014 0.000000 0
-0.000026 0.000000 0
-0.000040 0.000000 0
-0.000057 0.000000 0
-0.000077 0.000000 0
-0.000104 0.000000 0
-0.000139 0.000000 0
-0.000186 0.000000 0
-0.000250 0.000000 0
-0.000335 0.000000 0
-0.000446 0.000000 0
-0.000577 0.000000 0
-0.000715 0.000000 0
-0.000839 0.000000 0
-0.000924 0.000000 0
-0.000961 0.000000 0
-0.000953 0.000000 0
-0.000917 0.000000 0
-0.000870 0.000000 0
-0.000825 0.000000 0
-0.000789 0.000000 0
-0.000763 0.000000 0
-0.000744 0.000000 0
-0.000731 0.000000 0
-0.000722 0.000000 0
-0.000714 0.000000 0
-0.000706 0.000000 0
-0.000697 0.000000 0
-0.000687 0.000000 0
-0.000674 0.000000 0
-0.000657 0.000000 0
-0.000637 0.000000 0
-0.000612 0.000000 0
-0.000584 0.000000 0
-0.000553 0.000000 0
-0.000520 0.000000 0
-0.000488 0.000000 0
-0.000460 0.000000 0
-0.000439 0.000000 0
-0.000430 0.000000 0
-0.000437 0.000000 0
-0.000465 0.000000 0
-0.000516 0.000000 0
-0.000594 0.000000 0
-0.000699 0.000000 0
-0.000830 0.000000 0
-0.000979 0.000000 0
-0.001135 0.000000 0
-0.001278 0.000000 0
-0.001378 0.000000 0
-0.001401 0.000000 0
-0.001308 0.000000 0
-0.001067 0.000000 0
-0.000690 0.000000 0
-0.000263 0.000000 0
0.000000 0.000000 0
0.000000 0.000456 0
-0.000913 0.000596 0
-0.001398 0.000087 0
-0.001449 -0.000144 0
-0.001331 -0.000171 0
-0.001176 -0.000141 0
-0.001032 -0.000107 0
-0.000910 -0.000081 0
-0.000808 -0.000062 0
-0.000723 -0.000049 0
-0.000652 -0.000040 0
-0.000592 -0.000033 0
-0.000539 -0.000029 0
-0.000492 -0.000025 0
-0.000449 -0.000023 0
-0.000410 -0.000021 0
-0.000373 -0.000020 0
-0.000338 -0.000019 0
-0.000304 -0.000018 0
-0.000272 -0.000017 0
-0.000240 -0.000017 0
-0.000209 -0.000016 0
-0.000180 -0.000016 0
-0.000151 -0.000015 0
-0.000124 -0.000014 0
-0.000099 -0.000013 0
-0.000076 -0.000012 0
-0.000055 -0.000010 0
-0.000037 -0.000009 0
-0.000022 -0.000007 0
-0.000010 -0.000005 0
-0.000002 -0.000003 0
0.000003 -0.000001 0
0.000005 0.000001 0
0.000004 0.000002 0
0.000002 0.000002 0
0.000000 0.000001 0
0.000000 0.000000 0
0.000000 0.000000 0
0.000000 0.000000 0
0.000000 0.000001 0
-0.000006 0.000006 0
-0.000025 0.000013 0
-0.000054 0.000020 0
-0.000091 0.000025 0
-0.000138 0.000031 0
-0.000196 0.000037 0
-0.000268 0.000047 0
-0.000358 0.000061 0
-0.000477 0.000081 0
-0.000634 0.000110 0
-0.000844 0.000149 0
-0.001119 0.000195 0
-0.001463 0.000241 0
-0.001861 0.000269 0
-0.002271 0.000261 0
-0.002628 0.000208 0
-0.002876 0.000121 0
-0.002990 0.000028 0
-0.002985 -0.000044 0
-0.002904 -0.000084 0
-0.002792 -0.000092 0
-0.002681 -0.000081 0
-0.002587 -0.000063 0
-0.002513 -0.000046 0
-0.002457 -0.000032 0
-0.002414 -0.000023 0
-0.002380 -0.000018 0
-0.002351 -0.000016 0
-0.002322 -0.000017 0
-0.002291 -0.000020 0
-0.002254 -0.000024 0
-0.002210 -0.000030 0
-0.002156 -0.000037 0
-0.002092 -0.000045 0
-0.002017 -0.000053 0
-0.001932 -0.000060 0
-0.001842 -0.000064 0
-0.001750 -0.000065 0
-0.001666 -0.000061 0
-0.001598 -0.000050 0
-0.001557 -0.000031 0
-0.001558 -0.000003 0
-0.001612 0.000034 0
-0.001730 0.000078 0
-0.001920 0.000129 0
-0.002185 0.000183 0
-0.002522 0.000235 0
-0.002916 0.000280 0
-0.003338 0.000305 0
-0.003744 0.000298 0
-0.004071 0.000243 0
-0.004241 0.000123 0
-0.004167 -0.000071 0
-0.003761 -0.000334 0
-0.002984 -0.000618 0
-0.001891 -0.000804 0
-0.000718 -0.000690 0
0.000000 -0.000263 0
0.000000 0.000914 0
-0.000807 0.001399 0
-0.001545 0.000536 0
-0.001868 -0.000067 0
-0.001908 -0.000273 0
-0.001817 -0.000298 0
-0.001680 -0.000266 0
-0.001536 -0.000224 0
-0.001400 -0.000186 0
-0.001277 -0.000155 0
-0.001168 -0.000131 0
-0.001071 -0.000113 0
-0.000983 -0.000100 0
-0.000903 -0.000089 0
-0.000830 -0.000082 0
-0.000760 -0.000076 0
-0.000695 -0.000072 0
-0.000632 -0.000069 0
-0.000572 -0.000066 0
-0.000513 -0.000064 0
-0.000456 -0.000062 0
-0.000400 -0.000060 0
-0.000346 -0.000058 0
-0.000294 -0.000055 0
-0.000245 -0.000052 0
-0.000199 -0.000048 0
-0.000156 -0.000044 0
-0.000118 -0.000038 0
-0.000084 -0.000033 0
-0.000056 -0.000026 0
-0.000033 -0.000020 0
-0.000016 -0.000013 0
-0.000004 -0.000006 0
0.000001 -0.000001 0
0.000003 0.000003 0
0.000002 0.000004 0
0.000000 0.000002 0
0.000000 0.000000 0
0.000000 0.000000 0
0.000000 0.000000 0
0.000000 0.000006 0
-0.000014 0.000024 0
-0.000047 0.000047 0
-0.000096 0.000067 0
-0.000159 0.000085 0
-0.000237 0.000104 0
-0.000333 0.000128 0
-0.000452 0.000162 0
-0.000603 0.000209 0
-0.000797 0.000275 0
-0.001050 0.000366 0
-0.001380 0.000484 0
-0.001802 0.000619 0
-0.002316 0.000742 0
-0.002894 0.000807 0
-0.003474 0.000766 0
-0.003976 0.000605 0
-0.004331 0.000361 0
-0.004514 0.000108 0
-0.004548 -0.000087 0
-0.004484 -0.000194 0
-0.004376 -0.000224 0
-0.004257 -0.000206 0
-0.004147 -0.000169 0
-0.004054 -0.000131 0
-0.003976 -0.000099 0
-0.003912 -0.000077 0
-0.003858 -0.000064 0
-0.003808 -0.000059 0
-0.003759 -0.000061 0
-0.003706 -0.000069 0
-0.003646 -0.000082 0
-0.003575 -0.000099 0
-0.003493 -0.000119 0
-0.003397 -0.000140 0
-0.003289 -0.000160 0
-0.003171 -0.000176 0
-0.003050 -0.000183 0
-0.002934 -0.000177 0
-0.002836 -0.000154 0
-0.002770 -0.000109 0
-0.002753 -0.000040 0
-0.002804 0.000054 0
-0.002938 0.000171 0
-0.003167 0.000307 0
-0.003496 0.000455 0
-0.003922 0.000602 0
-0.004427 0.000730 0
-0.004978 0.000815 0
-0.005522 0.000827 0
-0.005988 0.000732 0
-0.006286 0.000497 0
-0.006320 0.000095 0
-0.005990 -0.000480 0
-0.005225 -0.001183 0
-0.004024 -0.001870 0
-0.002491 -0.002266 0
-0.000931 -0.001892 0
0.000000 -0.000718 0
0.000000 0.001264 0
-0.000614 0.002141 0
-0.001381 0.001147 0
-0.001868 0.000219 0
-0.002073 -0.000221 0
-0.002099 -0.000369 0
-0.002031 -0.000388 0
-0.001921 -0.000361 0
-0.001796 -0.000321 0
-0.001671 -0.000281 0
-0.001551 -0.000246 0
-0.001438 -0.000218 0
-0.001333 -0.000196 0
-0.001234 -0.000179 0
-0.001140 -0.000166 0
-0.001051 -0.000155 0
-0.000965 -0.000148 0
-0.000882 -0.000142 0
-0.000801 -0.000137 0
-0.000722 -0.000133 0
-0.000645 -0.000130 0
-0.000570 -0.000126 0
-0.000496 -0.000121 0
-0.000426 -0.000116 0
-0.000359 -0.000109 0
-0.000295 -0.000102 0
-0.000236 -0.000093 0
-0.000183 -0.000082 0
-0.000135 -0.000071 0
-0.000094 -0.000058 0
-0.000061 -0.000045 0
-0.000035 -0.000031 0
-0.000017 -0.000018 0
-0.000006 -0.000006 0
-0.000000 0.000002 0
0.000001 0.000005 0
0.000000 0.000002 0
0.000000 0.000000 0
0.000000 0.000000 0
0.000000 0.000000 0
0.000000 0.000014 0
-0.000019 0.000052 0
-0.000062 0.000095 0
-0.000123 0.000131 0
-0.000201 0.000166 0
-0.000297 0.000204 0
-0.000414 0.000252 0
-0.000558 0.000316 0
-0.000738 0.000405 0
-0.000966 0.000528 0
-0.001257 0.000694 0
-0.001626 0.000901 0
-0.002085 0.001131 0
-0.002631 0.001332 0
-0.003234 0.001427 0
-0.003837 0.001343 0
-0.004368 0.001065 0
-0.004767 0.000659 0
-0.005010 0.000244 0
-0.005116 -0.000075 0
-0.005124 -0.000256 0
-0.005075 -0.000319 0
-0.005001 -0.000310 0
-0.004919 -0.000267 0
-0.004839 -0.000217 0
-0.004767 -0.000174 0
-0.004701 -0.000142 0
-0.004642 -0.000123 0
-0.004586 -0.000116 0
-0.004530 -0.000120 0
-0.004470 -0.000133 0
-0.004403 -0.000155 0
-0.004327 -0.000183 0
-0.004240 -0.000216 0
-0.004141 -0.000250 0
-0.004033 -0.000279 0
-0.003921 -0.000299 0
-0.003811 -0.000302 0
-0.003714 -0.000280 0
-0.003644 -0.000225 0
-0.003617 -0.000132 0
-0.003650 0.000004 0
-0.003760 0.000182 0
-0.003959 0.000396 0
-0.004255 0.000636 0
-0.004646 0.000884 0
-0.005119 0.001114 0
-0.005644 0.001292 0
-0.006176 0.001375 0
-0.006652 0.001314 0
-0.006996 0.001062 0
-0.007124 0.000575 0
-0.006950 -0.000173 0
-0.006400 -0.001166 0
-0.005445 -0.002300 0
-0.004107 -0.003352 0
-0.002498 -0.003897 0
-0.000914 -0.003182 0
0.000000 -0.001195 0
0.000000 0.001528 0
-0.000470 0.002780 0
-0.001185 0.001791 0
-0.001735 0.000625 0
-0.002047 -0.000042 0
-0.002175 -0.000340 0
-0.002185 -0.000444 0
-0.002129 -0.000458 0
-0.002038 -0.000436 0
-0.001931 -0.000400 0
-0.001819 -0.000364 0
-0.001706 -0.000332 0
-0.001596 -0.000304 0
-0.001489 -0.000282 0
-0.001385 -0.000265 0
-0.001284 -0.000251 0
-0.001185 -0.000241 0
-0.001088 -0.000232 0
-0.000993 -0.000226 0
-0.000899 -0.000220 0
-0.000807 -0.000214 0
-0.000717 -0.000208 0
-0.000629 -0.000201 0
-0.000543 -0.000193 0
-0.000462 -0.000183 0
-0.000384 -0.000170 0
-0.000311 -0.000156 0
-0.000245 -0.000139 0
-0.000186 -0.000121 0
-0.000134 -0.000100 0
-0.000091 -0.000079 0
-0.000057 -0.000057 0
-0.000031 -0.000036 0
-0.000014 -0.000017 0
-0.000005 -0.000003 0
-0.000000 0.000004 0
0.000000 0.000003 0
0.000000 0.000000 0
0.000000 0.000000 0
0.000000 0.000000 0
0.000000 0.000025 0
-0.000021 0.000086 0
-0.000068 0.000151 0
-0.000135 0.000206 0
-0.000219 0.000258 0
-0.000320 0.000316 0
-0.000443 0.000389 0
-0.000592 0.000485 0
-0.000774 0.000616 0
-0.001000 0.000794 0
-0.001279 0.001027 0
-0.001622 0.001313 0
-0.002036 0.001623 0
-0.002517 0.001890 0
-0.003046 0.002013 0
-0.003588 0.001900 0
-0.004092 0.001534 0
-0.004512 0.001003 0
-0.004823 0.000457 0
-0.005022 0.000026 0
-0.005128 -0.000235 0
-0.005163 -0.000347 0
-0.005154 -0.000363 0
-0.005119 -0.000331 0
-0.005072 -0.000283 0
-0.005021 -0.000237 0
-0.004970 -0.000202 0
-0.004920 -0.000180 0
-0.004871 -0.000172 0
-0.004821 -0.000177 0
-0.004768 -0.000196 0
-0.004710 -0.000225 0
-0.004645 -0.000263 0
-0.004572 -0.000305 0
-0.004493 -0.000347 0
-0.004409 -0.000381 0
-0.004326 -0.000398 0
-0.004252 -0.000390 0
-0.004197 -0.000344 0
-0.004173 -0.000251 0
-0.004195 -0.000103 0
-0.004277 0.000102 0
-0.004429 0.000362 0
-0.004660 0.000666 0
-0.004970 0.000995 0
-0.005350 0.001319 0
-0.005779 0.001600 0
-0.006223 0.001787 0
-0.006633 0.001823 0
-0.006951 0.001648 0
-0.007112 0.001205 0
-0.007050 0.000451 0
-0.006705 -0.000629 0
-0.006043 -0.001985 0
-0.005058 -0.003475 0
-0.003771 -0.004817 0
-0.002274 -0.005459 0
-0.000824 -0.004389 0
0.000000 -0.001632 0
0.000000 0.001734 0
-0.000374 0.003326 0
-0.001020 0.002412 0
-0.001577 0.001082 0
-0.001946 0.000219 0
-0.002145 -0.000231 0
-0.002222 -0.000434 0
-0.002219 -0.000508 0
-0.002168 -0.000518 0
-0.002089 -0.000500 0
-0.001994 -0.000471 0
-0.001892 -0.000441 0
-0.001786 -0.000413 0
-0.001679 -0.000390 0
-0.001572 -0.000371 0
-0.001466 -0.000355 0
-0.001361 -0.000343 0
-0.001256 -0.000334 0
-0.001151 -0.000326 0
-0.001048 -0.000319 0
-0.000945 -0.000312 0
-0.000843 -0.000304 0
-0.000744 -0.000295 0
-0.000647 -0.000283 0
-0.000553 -0.000269 0
-0.000464 -0.000252 0
-0.000380 -0.000231 0
-0.000303 -0.000208 0
-0.000233 -0.000181 0
-0.000172 -0.000152 0
-0.000120 -0.000122 0
-0.000078 -0.000091 0
-0.000046 -0.000060 0
-0.000023 -0.000033 0
-0.000009 -0.000012 0
-0.000002 0.000001 0
0.000000 0.000002 0
0.000000 0.000000 0
0.000000 0.000000 0
0.000000 0.000000 0
0.000000 0.000035 0
-0.000021 0.000120 0
-0.000068 0.000209 0
-0.000133 0.000282 0
-0.000214 0.000351 0
-0.000312 0.000428 0
-0.000427 0.000523 0
-0.000564 0.000647 0
-0.000728 0.000813 0
-0.000924 0.001033 0
-0.001157 0.001316 0
-0.001431 0.001658 0
-0.001749 0.002025 0
-0.002110 0.002343 0
-0.002512 0.002498 0
-0.002944 0.002389 0
-0.003387 0.001989 0
-0.003812 0.001390 0
-0.004186 0.000755 0
-0.004484 0.000231 0
-0.004697 -0.000115 0
-0.004829 -0.000293 0
-0.004897 -0.000354 0
-0.004921 -0.000349 0
-0.004918 -0.000316 0
-0.004900 -0.000276 0
-0.004874 -0.000243 0
-0.004845 -0.000222 0
-0.004814 -0.000215 0
-0.004780 -0.000223 0
-0.004744 -0.000244 0
-0.004705 -0.000278 0
-0.004662 -0.000321 0
-0.004616 -0.000369 0
-0.004568 -0.000413 0
-0.004522 -0.000446 0
-0.004481 -0.000456 0
-0.004453 -0.000431 0
-0.004447 -0.000359 0
-0.004471 -0.000227 0
-0.004536 -0.000029 0
-0.004651 0.000237 0
-0.004820 0.000564 0
-0.005047 0.000936 0
-0.005326 0.001326 0
-0.005642 0.001693 0
-0.005973 0.001987 0
-0.006282 0.002145 0
-0.006529 0.002103 0
-0.006666 0.001794 0
-0.006646 0.001161 0
-0.006429 0.000168 0
-0.005986 -0.001181 0
-0.005311 -0.002813 0
-0.004404 -0.004571 0
-0.003273 -0.006135 0
-0.001977 -0.006845 0
-0.000719 -0.005456 0
0.000000 -0.002018 0
0.000000 0.001902 0
-0.000309 0.003800 0
-0.000890 0.002994 0
-0.001432 0.001552 0
-0.001824 0.000526 0
-0.002068 -0.000064 0
-0.002193 -0.000370 0
-0.002236 -0.000512 0
-0.002222 -0.000566 0
-0.002172 -0.000574 0
-0.002099 -0.000561 0
-0.002012 -0.000540 0
-0.001917 -0.000517 0
-0.001816 -0.000495 0
-0.001712 -0.000477 0
-0.001605 -0.000463 0
-0.001498 -0.000451 0
-0.001389 -0.000442 0
-0.001280 -0.000434 0
-0.001170 -0.000426 0
-0.001060 -0.000418 0
-0.000951 -0.000409 0
-0.000843 -0.000398 0
-0.000737 -0.000383 0
-0.000634 -0.000365 0
-0.000535 -0.000343 0
-0.000442 -0.000317 0
-0.000356 -0.000286 0
-0.000277 -0.000251 0
-0.000207 -0.000213 0
-0.000148 -0.000173 0
-0.000098 -0.000131 0
-0.000060 -0.000091 0
-0.000031 -0.000054 0
-0.000013 -0.000024 0
-0.000003 -0.000005 0
0.000000 0.000001 0
0.000000 0.000000 0
0.000000 0.000000 0
0.000000 0.000000 0
0.000000 0.000045 0
-0.000019 0.000153 0
-0.000061 0.000263 0
-0.000120 0.000352 0
-0.000192 0.000437 0
-0.000277 0.000529 0
-0.000376 0.000642 0
-0.000490 0.000786 0
-0.000621 0.000976 0
-0.000770 0.001223 0
-0.000937 0.001534 0
-0.001122 0.001905 0
-0.001324 0.002302 0
-0.001544 0.002653 0
-0.001794 0.002847 0
-0.002090 0.002776 0
-0.002442 0.002402 0
-0.002840 0.001801 0
-0.003252 0.001129 0
-0.003633 0.000538 0
-0.003949 0.000110 0
-0.004185 -0.000147 0
-0.004344 -0.000271 0
-0.004441 -0.000310 0
-0.004496 -0.000304 0
-0.004522 -0.000281 0
-0.004532 -0.000257 0
-0.004532 -0.000241 0
-0.004526 -0.000237 0
-0.004516 -0.000247 0
-0.004504 -0.000271 0
-0.004489 -0.000307 0
-0.004475 -0.000352 0
-0.004460 -0.000399 0
-0.004449 -0.000441 0
-0.004443 -0.000468 0
-0.004446 -0.000467 0
-0.004464 -0.000424 0
-0.004503 -0.000326 0
-0.004567 -0.000162 0
-0.004662 0.000076 0
-0.004791 0.000386 0
-0.004954 0.000758 0
-0.005150 0.001172 0
-0.005368 0.001590 0
-0.005593 0.001966 0
-0.005799 0.002240 0
-0.005960 0.002343 0
-0.006041 0.002207 0
-0.006011 0.001765 0
-0.005844 0.000968 0
-0.005523 -0.000210 0
-0.005048 -0.001748 0
-0.004427 -0.003567 0
-0.003655 -0.005513 0
-0.002725 -0.007244 0
-0.001661 -0.008013 0
-0.000613 -0.006366 0
0.000000 -0.002351 0
0.000000 0.002043 0
-0.000264 0.004217 0
-0.000789 0.003534 0
-0.001305 0.002016 0
-0.001703 0.000855 0
-0.001971 0.000139 0
-0.002131 -0.000266 0
-0.002209 -0.000479 0
-0.002227 -0.000582 0
-0.002205 -0.000623 0
-0.002154 -0.000631 0
-0.002084 -0.000624 0
-0.002002 -0.000610 0
-0.001910 -0.000595 0
-0.001813 -0.000581 0
-0.001710 -0.000569 0
-0.001604 -0.000560 0
-0.001495 -0.000552 0
-0.001384 -0.000545 0
-0.001271 -0.000539 0
-0.001157 -0.000531 0
-0.001042 -0.000521 0
-0.000928 -0.000508 0
-0.000815 -0.000492 0
-0.000705 -0.000470 0
-0.000599 -0.000443 0
-0.000497 -0.000411 0
-0.000403 -0.000373 0
-0.000316 -0.000330 0
-0.000239 -0.000282 0
-0.000172 -0.000231 0
-0.000116 -0.000179 0
-0.000071 -0.000127 0
-0.000038 -0.000080 0
-0.000016 -0.000040 0
-0.000004 -0.000012 0
0.000000 -0.000001 0
0.000000 0.000000 0
0.000000 0.000000 0
0.000000 0.000000 0
0.000000 0.000054 0
-0.000015 0.000181 0
-0.000050 0.000310 0
-0.000098 0.000413 0
-0.000156 0.000508 0
-0.000224 0.000612 0
-0.000299 0.000736 0
-0.000383 0.000892 0
-0.000473 0.001093 0
-0.000568 0.001350 0
-0.000665 0.001669 0
-0.000757 0.002044 0
-0.000843 0.002447 0
-0.000927 0.002813 0
-0.001025 0.003044 0
-0.001172 0.003036 0
-0.001403 0.002739 0
-0.001732 0.002199 0
-0.002135 0.001547 0
-0.002563 0.000928 0
-0.002962 0.000437 0
-0.003298 0.000101 0
-0.003558 -0.000098 0
-0.003745 -0.000198 0
-0.003875 -0.000235 0
-0.003962 -0.000240 0
-0.004021 -0.000234 0
-0.004061 -0.000228 0
-0.004088 -0.000231 0
-0.004109 -0.000245 0
-0.004125 -0.000271 0
-0.004139 -0.000308 0
-0.004153 -0.000351 0
-0.004170 -0.000395 0
-0.004193 -0.000431 0
-0.004225 -0.000448 0
-0.004268 -0.000434 0
-0.004324 -0.000375 0
-0.004398 -0.000256 0
-0.004489 -0.000068 0
-0.004599 0.000195 0
-0.004726 0.000530 0
-0.004867 0.000924 0
-0.005016 0.001350 0
-0.005160 0.001768 0
-0.005283 0.002124 0
-0.005365 0.002354 0
-0.005385 0.002387 0
-0.005321 0.002154 0
-0.005158 0.001597 0
-0.004887 0.000673 0
-0.004513 -0.000628 0
-0.004054 -0.002277 0
-0.003522 -0.004206 0
-0.002907 -0.006273 0
-0.002184 -0.008129 0
-0.001352 -0.008957 0
-0.000510 -0.007118 0
0.000000 -0.002632 0
0.000000 0.002166 0
-0.000230 0.004589 0
-0.000710 0.004036 0
-0.001198 0.002465 0
-0.001592 0.001193 0
-0.001873 0.000364 0
-0.002055 -0.000133 0
-0.002158 -0.000417 0
-0.002203 -0.000570 0
-0.002204 -0.000647 0
-0.002174 -0.000681 0
-0.002122 -0.000692 0
-0.002054 -0.000691 0
-0.001973 -0.000685 0
-0.001884 -0.000678 0
-0.001788 -0.000671 0
-0.001686 -0.000666 0
-0.001580 -0.000662 0
-0.001469 -0.000658 0
-0.001355 -0.000653 0
-0.001239 -0.000647 0
-0.001121 -0.000638 0
-0.001003 -0.000625 0
-0.000885 -0.000606 0
-0.000769 -0.000582 0
-0.000656 -0.000551 0
-0.000547 -0.000513 0
-0.000446 -0.000467 0
-0.000352 -0.000415 0
-0.000267 -0.000357 0
-0.000194 -0.000296 0
-0.000131 -0.000232 0
-0.000082 -0.000169 0
-0.000044 -0.000110 0
-0.000019 -0.000059 0
-0.000004 -0.000021 0
0.000000 -0.000003 0
0.000000 0.000000 0
0.000000 0.000000 0
0.000000 0.000000 0
0.000000 0.000060 0
-0.000011 0.000203 0
-0.000036 0.000346 0
-0.000071 0.000459 0
-0.000112 0.000562 0
-0.000158 0.000672 0
-0.000207 0.000801 0
-0.000257 0.000960 0
-0.000305 0.001162 0
-0.000346 0.001414 0
-0.000374 0.001723 0
-0.000383 0.002084 0
-0.000367 0.002471 0
-0.000331 0.002835 0
-0.000294 0.003092 0
-0.000297 0.003154 0
-0.000388 0.002962 0
-0.000604 0.002533 0
-0.000942 0.001959 0
-0.001362 0.001364 0
-0.001805 0.000845 0
-0.002219 0.000448 0
-0.002576 0.000176 0
-0.002864 0.000007 0
-0.003087 -0.000088 0
-0.003254 -0.000135 0
-0.003380 -0.000158 0
-0.003475 -0.000173 0
-0.003549 -0.000189 0
-0.003608 -0.000211 0
-0.003658 -0.000241 0
-0.003704 -0.000279 0
-0.003748 -0.000320 0
-0.003795 -0.000359 0
-0.003848 -0.000387 0
-0.003910 -0.000394 0
-0.003983 -0.000367 0
-0.004067 -0.000294 0
-0.004163 -0.000162 0
-0.004269 0.000040 0
-0.004380 0.000313 0
-0.004494 0.000655 0
-0.004603 0.001048 0
-0.004698 0.001464 0
-0.004766 0.001857 0
-0.004793 0.002172 0
-0.004765 0.002342 0
-0.004667 0.002299 0
-0.004490 0.001979 0
-0.004232 0.001331 0
-0.003901 0.000323 0
-0.003516 -0.001043 0
-0.003104 -0.002738 0
-0.002674 -0.004715 0
-0.002211 -0.006852 0
-0.001681 -0.008799 0
-0.001061 -0.009687 0
-0.000412 -0.007718 0
0.000000 -0.002861 0
0.000000 0.002274 0
-0.000205 0.004926 0
-0.000645 0.004503 0
-0.001108 0.002898 0
-0.001492 0.001530 0
-0.001778 0.000602 0
-0.001974 0.000020 0
-0.002096 -0.000331 0
-0.002161 -0.000536 0
-0.002183 -0.000651 0
-0.002172 -0.000713 0
-0.002136 -0.000744 0
-0.002082 -0.000758 0
-0.002014 -0.000764 0
-0.001935 -0.000766 0
-0.001847 -0.000767 0
-0.001751 -0.000768 0
-0.001649 -0.000769 0
-0.001541 -0.000769 0
-0.001428 -0.000768 0
-0.001311 -0.000765 0
-0.001192 -0.000757 0
-0.001071 -0.000745 0
-0.000949 -0.000726 0
-0.000827 -0.000699 0
-0.000709 -0.000665 0
-0.000594 -0.000621 0
-0.000485 -0.000568 0
-0.000384 -0.000508 0
-0.000293 -0.000440 0
-0.000213 -0.000366 0
-0.000145 -0.000290 0
-0.000091 -0.000214 0
-0.000049 -0.000143 0
-0.000021 -0.000080 0
-0.000005 -0.000031 0
0.000000 -0.000005 0
0.000000 0.000000 0
0.000000 0.000000 0