# vtk DataFile Version 2.0
generated by CFD-lab course output (written by Tobias Neckel) 
ASCII

DATASET STRUCTURED_GRID
DIMENSIONS  99 49 1 
POINTS 4851 float

0.000000 0.000000 0
0.020000 0.000000 0
0.040000 0.000000 0
0.060000 0.000000 0
0.080000 0.000000 0
0.100000 0.000000 0
0.120000 0.000000 0
0.140000 0.000000 0
0.160000 0.000000 0
0.180000 0.000000 0
0.200000 0.000000 0
0.220000 0.000000 0
0.240000 0.000000 0
0.260000 0.000000 0
0.280000 0.000000 0
0.300000 0.000000 0
0.320000 0.000000 0
0.340000 0.000000 0
0.360000 0.000000 0
0.380000 0.000000 0
0.400000 0.000000 0
0.420000 0.000000 0
0.440000 0.000000 0
0.460000 0.000000 0
0.480000 0.000000 0
0.500000 0.000000 0
0.520000 0.000000 0
0.540000 0.000000 0
0.560000 0.000000 0
0.580000 0.000000 0
0.600000 0.000000 0
0.620000 0.000000 0
0.640000 0.000000 0
0.660000 0.000000 0
0.680000 0.000000 0
0.700000 0.000000 0
0.720000 0.000000 0
0.740000 0.000000 0
0.760000 0.000000 0
0.780000 0.000000 0
0.800000 0.000000 0
0.820000 0.000000 0
0.840000 0.000000 0
0.860000 0.000000 0
0.880000 0.000000 0
0.900000 0.000000 0
0.920000 0.000000 0
0.940000 0.000000 0
0.960000 0.000000 0
0.980000 0.000000 0
1.000000 0.000000 0
1.020000 0.000000 0
1.040000 0.000000 0
1.060000 0.000000 0
1.080000 0.000000 0
1.100000 0.000000 0
1.120000 0.000000 0
1.140000 0.000000 0
1.160000 0.000000 0
1.180000 0.000000 0
1.200000 0.000000 0
1.220000 0.000000 0
1.240000 0.000000 0
1.260000 0.000000 0
1.280000 0.000000 0
1.300000 0.000000 0
1.320000 0.000000 0
1.340000 0.000000 0
1.360000 0.000000 0
1.380000 0.000000 0
1.400000 0.000000 0
1.420000 0.000000 0
1.440000 0.000000 0
1.460000 0.000000 0
1.480000 0.000000 0
1.500000 0.000000 0
1.520000 0.000000 0
1.540000 0.000000 0
1.560000 0.000000 0
1.580000 0.000000 0
1.600000 0.000000 0
1.620000 0.000000 0
1.640000 0.000000 0
1.660000 0.000000 0
1.680000 0.000000 0
1.700000 0.000000 0
1.720000 0.000000 0
1.740000 0.000000 0
1.760000 0.000000 0
1.780000 0.000000 0
1.800000 0.000000 0
1.820000 0.000000 0
1.840000 0.000000 0
1.860000 0.000000 0
1.880000 0.000000 0
1.900000 0.000000 0
1.920000 0.000000 0
1.940000 0.000000 0
1.960000 0.000000 0
0.000000 0.020000 0
0.020000 0.020000 0
0.040000 0.020000 0
0.060000 0.020000 0
0.080000 0.020000 0
0.100000 0.020000 0
0.120000 0.020000 0
0.140000 0.020000 0
0.160000 0.020000 0
0.180000 0.020000 0
0.200000 0.020000 0
0.220000 0.020000 0
0.240000 0.020000 0
0.260000 0.020000 0
0.280000 0.020000 0
0.300000 0.020000 0
0.320000 0.020000 0
0.340000 0.020000 0
0.360000 0.020000 0
0.380000 0.020000 0
0.400000 0.020000 0
0.420000 0.020000 0
0.440000 0.020000 0
0.460000 0.020000 0
0.480000 0.020000 0
0.500000 0.020000 0
0.520000 0.020000 0
0.540000 0.020000 0
0.560000 0.020000 0
0.580000 0.020000 0
0.600000 0.020000 0
0.620000 0.020000 0
0.640000 0.020000 0
0.660000 0.020000 0
0.680000 0.020000 0
0.700000 0.020000 0
0.720000 0.020000 0
0.740000 0.020000 0
0.760000 0.020000 0
0.780000 0.020000 0
0.800000 0.020000 0
0.820000 0.020000 0
0.840000 0.020000 0
0.860000 0.020000 0
0.880000 0.020000 0
0.900000 0.020000 0
0.920000 0.020000 0
0.940000 0.020000 0
0.960000 0.020000 0
0.980000 0.020000 0
1.000000 0.020000 0
1.020000 0.020000 0
1.040000 0.020000 0
1.060000 0.020000 0
1.080000 0.020000 0
1.100000 0.020000 0
1.120000 0.020000 0
1.140000 0.020000 0
1.160000 0.020000 0
1.180000 0.020000 0
1.200000 0.020000 0
1.220000 0.020000 0
1.240000 0.020000 0
1.260000 0.020000 0
1.280000 0.020000 0
1.300000 0.020000 0
1.320000 0.020000 0
1.340000 0.020000 0
1.360000 0.020000 0
1.380000 0.020000 0
1.400000 0.020000 0
1.420000 0.020000 0
1.440000 0.020000 0
1.460000 0.020000 0
1.480000 0.020000 0
1.500000 0.020000 0
1.520000 0.020000 0
1.540000 0.020000 0
1.560000 0.020000 0
1.580000 0.020000 0
1.600000 0.020000 0
1.620000 0.020000 0
1.640000 0.020000 0
1.660000 0.020000 0
1.680000 0.020000 0
1.700000 0.020000 0
1.720000 0.020000 0
1.740000 0.020000 0
1.760000 0.020000 0
1.780000 0.020000 0
1.800000 0.020000 0
1.820000 0.020000 0
1.840000 0.020000 0
1.860000 0.020000 0
1.880000 0.020000 0
1.900000 0.020000 0
1.920000 0.020000 0
1.940000 0.020000 0
1.960000 0.020000 0
0.000000 0.040000 0
0.020000 0.040000 0
0.040000 0.040000 0
0.060000 0.040000 0
0.080000 0.040000 0
0.100000 0.040000 0
0.120000 0.040000 0
0.140000 0.040000 0
0.160000 0.040000 0
0.180000 0.040000 0
0.200000 0.040000 0
0.220000 0.040000 0
0.240000 0.040000 0
0.260000 0.040000 0
0.280000 0.040000 0
0.300000 0.040000 0
0.320000 0.040000 0
0.340000 0.040000 0
0.360000 0.040000 0
0.380000 0.040000 0
0.400000 0.040000 0
0.420000 0.040000 0
0.440000 0.040000 0
0.460000 0.040000 0
0.480000 0.040000 0
0.500000 0.040000 0
0.520000 0.040000 0
0.540000 0.040000 0
0.560000 0.040000 0
0.580000 0.040000 0
0.600000 0.040000 0
0.620000 0.040000 0
0.640000 0.040000 0
0.660000 0.040000 0
0.680000 0.040000 0
0.700000 0.040000 0
0.720000 0.040000 0
0.740000 0.040000 0
0.760000 0.040000 0
0.780000 0.040000 0
0.800000 0.040000 0
0.820000 0.040000 0
0.840000 0.040000 0
0.860000 0.040000 0
0.880000 0.040000 0
0.900000 0.040000 0
0.920000 0.040000 0
0.940000 0.040000 0
0.960000 0.040000 0
0.980000 0.040000 0
1.000000 0.040000 0
1.020000 0.040000 0
1.040000 0.040000 0
1.060000 0.040000 0
1.080000 0.040000 0
1.100000 0.040000 0
1.120000 0.040000 0
1.140000 0.040000 0
1.160000 0.040000 0
1.180000 0.040000 0
1.200000 0.040000 0
1.220000 0.040000 0
1.240000 0.040000 0
1.260000 0.040000 0
1.280000 0.040000 0
1.300000 0.040000 0
1.320000 0.040000 0
1.340000 0.040000 0
1.360000 0.040000 0
1.380000 0.040000 0
1.400000 0.040000 0
1.420000 0.040000 0
1.440000 0.040000 0
1.460000 0.040000 0
1.480000 0.040000 0
1.500000 0.040000 0
1.520000 0.040000 0
1.540000 0.040000 0
1.560000 0.040000 0
1.580000 0.040000 0
1.600000 0.040000 0
1.620000 0.040000 0
1.640000 0.040000 0
1.660000 0.040000 0
1.680000 0.040000 0
1.700000 0.040000 0
1.720000 0.040000 0
1.740000 0.040000 0
1.760000 0.040000 0
1.780000 0.040000 0
1.800000 0.040000 0
1.820000 0.040000 0
1.840000 0.040000 0
1.860000 0.040000 0
1.880000 0.040000 0
1.900000 0.040000 0
1.920000 0.040000 0
1.940000 0.040000 0
1.960000 0.040000 0
0.000000 0.060000 0
0.020000 0.060000 0
0.040000 0.060000 0
0.060000 0.060000 0
0.080000 0.060000 0
0.100000 0.060000 0
0.120000 0.060000 0
0.140000 0.060000 0
0.160000 0.060000 0
0.180000 0.060000 0
0.200000 0.060000 0
0.220000 0.060000 0
0.240000 0.060000 0
0.260000 0.060000 0
0.280000 0.060000 0
0.300000 0.060000 0
0.320000 0.060000 0
0.340000 0.060000 0
0.360000 0.060000 0
0.380000 0.060000 0
0.400000 0.060000 0
0.420000 0.060000 0
0.440000 0.060000 0
0.460000 0.060000 0
0.480000 0.060000 0
0.500000 0.060000 0
0.520000 0.060000 0
0.540000 0.060000 0
0.560000 0.060000 0
0.580000 0.060000 0
0.600000 0.060000 0
0.620000 0.060000 0
0.640000 0.060000 0
0.660000 0.060000 0
0.680000 0.060000 0
0.700000 0.060000 0
0.720000 0.060000 0
0.740000 0.060000 0
0.760000 0.060000 0
0.780000 0.060000 0
0.800000 0.060000 0
0.820000 0.060000 0
0.840000 0.060000 0
0.860000 0.060000 0
0.880000 0.060000 0
0.900000 0.060000 0
0.920000 0.060000 0
0.940000 0.060000 0
0.960000 0.060000 0
0.980000 0.060000 0
1.000000 0.060000 0
1.020000 0.060000 0
1.040000 0.060000 0
1.060000 0.060000 0
1.080000 0.060000 0
1.100000 0.060000 0
1.120000 0.060000 0
1.140000 0.060000 0
1.160000 0.060000 0
1.180000 0.060000 0
1.200000 0.060000 0
1.220000 0.060000 0
1.240000 0.060000 0
1.260000 0.060000 0
1.280000 0.060000 0
1.300000 0.060000 0
1.320000 0.060000 0
1.340000 0.060000 0
1.360000 0.060000 0
1.380000 0.060000 0
1.400000 0.060000 0
1.420000 0.060000 0
1.440000 0.060000 0
1.460000 0.060000 0
1.480000 0.060000 0
1.500000 0.060000 0
1.520000 0.060000 0
1.540000 0.060000 0
1.560000 0.060000 0
1.580000 0.060000 0
1.600000 0.060000 0
1.620000 0.060000 0
1.640000 0.060000 0
1.660000 0.060000 0
1.680000 0.060000 0
1.700000 0.060000 0
1.720000 0.060000 0
1.740000 0.060000 0
1.760000 0.060000 0
1.780000 0.060000 0
1.800000 0.060000 0
1.820000 0.060000 0
1.840000 0.060000 0
1.860000 0.060000 0
1.880000 0.060000 0
1.900000 0.060000 0
1.920000 0.060000 0
1.940000 0.060000 0
1.960000 0.060000 0
0.000000 0.080000 0
0.020000 0.080000 0
0.040000 0.080000 0
0.060000 0.080000 0
0.080000 0.080000 0
0.100000 0.080000 0
0.120000 0.080000 0
0.140000 0.080000 0
0.160000 0.080000 0
0.180000 0.080000 0
0.200000 0.080000 0
0.220000 0.080000 0
0.240000 0.080000 0
0.260000 0.080000 0
0.280000 0.080000 0
0.300000 0.080000 0
0.320000 0.080000 0
0.340000 0.080000 0
0.360000 0.080000 0
0.380000 0.080000 0
0.400000 0.080000 0
0.420000 0.080000 0
0.440000 0.080000 0
0.460000 0.080000 0
0.480000 0.080000 0
0.500000 0.080000 0
0.520000 0.080000 0
0.540000 0.080000 0
0.560000 0.080000 0
0.580000 0.080000 0
0.600000 0.080000 0
0.620000 0.080000 0
0.640000 0.080000 0
0.660000 0.080000 0
0.680000 0.080000 0
0.700000 0.080000 0
0.720000 0.080000 0
0.740000 0.080000 0
0.760000 0.080000 0
0.780000 0.080000 0
0.800000 0.080000 0
0.820000 0.080000 0
0.840000 0.080000 0
0.860000 0.080000 0
0.880000 0.080000 0
0.900000 0.080000 0
0.920000 0.080000 0
0.940000 0.080000 0
0.960000 0.080000 0
0.980000 0.080000 0
1.000000 0.080000 0
1.020000 0.080000 0
1.040000 0.080000 0
1.060000 0.080000 0
1.080000 0.080000 0
1.100000 0.080000 0
1.120000 0.080000 0
1.140000 0.080000 0
1.160000 0.080000 0
1.180000 0.080000 0
1.200000 0.080000 0
1.220000 0.080000 0
1.240000 0.080000 0
1.260000 0.080000 0
1.280000 0.080000 0
1.300000 0.080000 0
1.320000 0.080000 0
1.340000 0.080000 0
1.360000 0.080000 0
1.380000 0.080000 0
1.400000 0.080000 0
1.420000 0.080000 0
1.440000 0.080000 0
1.460000 0.080000 0
1.480000 0.080000 0
1.500000 0.080000 0
1.520000 0.080000 0
1.540000 0.080000 0
1.560000 0.080000 0
1.580000 0.080000 0
1.600000 0.080000 0
1.620000 0.080000 0
1.640000 0.080000 0
1.660000 0.080000 0
1.680000 0.080000 0
1.700000 0.080000 0
1.720000 0.080000 0
1.740000 0.080000 0
1.760000 0.080000 0
1.780000 0.080000 0
1.800000 0.080000 0
1.820000 0.080000 0
1.840000 0.080000 0
1.860000 0.080000 0
1.880000 0.080000 0
[...]
POINT_DATA 4851 

VECTORS velocity float
0.000000 0.000000 0
-0.000456 0.000000 0
-0.000596 0.000000 0
-0.000544 0.000000 0
-0.000454 0.000000 0
-0.000376 0.000000 0
-0.000315 0.000000 0
-0.000270 0.000000 0
-0.000235 0.000000 0
-0.000207 0.000000 0
-0.000184 0.000000 0
-0.000165 0.000000 0
-0.000149 0.000000 0
-0.000135 0.000000 0
-0.000123 0.000000 0
-0.000113 0.000000 0
-0.000104 0.000000 0
-0.000095 0.000000 0
-0.000088 0.000000 0
-0.000081 0.000000 0
-0.000075 0.000000 0
-0.000070 0.000000 0
-0.000065 0.000000 0
-0.000060 0.000000 0
-0.000055 0.000000 0
-0.000050 0.000000 0
-0.000045 0.000000 0
-0.000039 0.000000 0
-0.000033 0.000000 0
-0.000027 0.000000 0
-0.000021 0.000000 0
-0.000015 0.000000 0
-0.000009 0.000000 0
-0.000004 0.000000 0
-0.000001 0.000000 0
0.000000 0.000000 0
0.000000 0.000000 0
0.000000 0.000000 0
0.000000 0.000000 0
0.000000 0.000000 0
0.000000 0.000000 0
-0.000055 0.000000 0
-0.000143 0.000000 0
-0.000216 0.000000 0
-0.000260 0.000000 0
-0.000284 0.000000 0
-0.000296 0.000000 0
-0.000302 0.000000 0
-0.000306 0.000000 0
-0.000309 0.000000 0
-0.000313 0.000000 0
-0.000316 0.000000 0
-0.000319 0.000000 0
-0.000322 0.000000 0
-0.000325 0.000000 0
-0.000328 0.000000 0
-0.000331 0.000000 0
-0.000333 0.000000 0
-0.000336 0.000000 0
-0.000338 0.000000 0
-0.000340 0.000000 0
-0.000342 0.000000 0
-0.000344 0.000000 0
-0.000346 0.000000 0
-0.000348 0.000000 0
-0.000350 0.000000 0
-0.000351 0.000000 0
-0.000353 0.000000 0
-0.000354 0.000000 0
-0.000356 0.000000 0
-0.000357 0.000000 0
-0.000359 0.000000 0
-0.000361 0.000000 0
-0.000363 0.000000 0
-0.000365 0.000000 0
-0.000368 0.000000 0
-0.000371 0.000000 0
-0.000374 0.000000 0
-0.000377 0.000000 0
-0.000379 0.000000 0
-0.000379 0.000000 0
-0.000377 0.000000 0
-0.000371 0.000000 0
-0.000363 0.000000 0
-0.000352 0.000000 0
-0.000342 0.000000 0
-0.000336 0.000000 0
-0.000338 0.000000 0
-0.000354 0.000000 0
-0.000387 0.000000 0
-0.000436 0.000000 0
-0.000499 0.000000 0
-0.000564 0.000000 0
-0.000612 0.000000 0
-0.000618 0.000000 0
-0.000550 0.000000 0
-0.000390 0.000000 0
-0.000165 0.000000 0
0.000000 0.000000 0
0.000000 0.000456 0
-0.000913 0.000597 0
-0.001399 0.000089 0
-0.001454 -0.000141 0
-0.001338 -0.000168 0
-0.001187 -0.000138 0
-0.001045 -0.000105 0
-0.000923 -0.000080 0
-0.000820 -0.000062 0
-0.000733 -0.000050 0
-0.000660 -0.000041 0
-0.000597 -0.000034 0
-0.000542 -0.000029 0
-0.000494 -0.000025 0
-0.000452 -0.000022 0
-0.000414 -0.000019 0
-0.000381 -0.000017 0
-0.000351 -0.000015 0
-0.000324 -0.000014 0
-0.000300 -0.000012 0
-0.000278 -0.000011 0
-0.000257 -0.000010 0
-0.000238 -0.000010 0
-0.000219 -0.000009 0
-0.000201 -0.000009 0
-0.000183 -0.000010 0
-0.000164 -0.000010 0
-0.000144 -0.000011 0
-0.000123 -0.000011 0
-0.000102 -0.000012 0
-0.000080 -0.000012 0
-0.000058 -0.000011 0
-0.000038 -0.000010 0
-0.000021 -0.000008 0
-0.000008 -0.000004 0
-0.000001 -0.000001 0
0.000000 0.000001 0
0.000000 0.000000 0
0.000000 0.000000 0
0.000000 0.000000 0
0.000000 0.000054 0
-0.000146 0.000142 0
-0.000384 0.000160 0
-0.000596 0.000117 0
-0.000744 0.000068 0
-0.000838 0.000035 0
-0.000894 0.000017 0
-0.000930 0.000010 0
-0.000955 0.000007 0
-0.000976 0.000006 0
-0.000993 0.000006 0
-0.001009 0.000006 0
-0.001024 0.000006 0
-0.001038 0.000006 0
-0.001051 0.000005 0
-0.001064 0.000005 0
-0.001075 0.000005 0
-0.001086 0.000004 0
-0.001097 0.000004 0
-0.001106 0.000004 0
-0.001115 0.000004 0
-0.001124 0.000003 0
-0.001132 0.000003 0
-0.001140 0.000003 0
-0.001147 0.000003 0
-0.001154 0.000003 0
-0.001160 0.000003 0
-0.001166 0.000003 0
-0.001172 0.000002 0
-0.001178 0.000002 0
-0.001184 0.000003 0
-0.001190 0.000003 0
-0.001196 0.000003 0
-0.001203 0.000004 0
-0.001210 0.000005 0
-0.001219 0.000005 0
-0.001228 0.000006 0
-0.001237 0.000005 0
-0.001243 0.000004 0
-0.001247 0.000002 0
-0.001244 -0.000003 0
-0.001234 -0.000008 0
-0.001216 -0.000014 0
-0.001189 -0.000019 0
-0.001158 -0.000021 0
-0.001130 -0.000017 0
-0.001117 -0.000004 0
-0.001132 0.000018 0
-0.001187 0.000048 0
-0.001288 0.000081 0
-0.001435 0.000112 0
-0.001607 0.000127 0
-0.001770 0.000113 0
-0.001866 0.000054 0
-0.001824 -0.000062 0
-0.001572 -0.000228 0
-0.001081 -0.000386 0
-0.000446 -0.000391 0
0.000000 -0.000165 0
0.000000 0.000914 0
-0.000807 0.001400 0
-0.001547 0.000541 0
-0.001873 -0.000060 0
-0.001916 -0.000266 0
-0.001827 -0.000293 0
-0.001691 -0.000264 0
-0.001545 -0.000224 0
-0.001405 -0.000189 0
-0.001278 -0.000159 0
-0.001164 -0.000136 0
-0.001063 -0.000117 0
-0.000972 -0.000102 0
-0.000891 -0.000090 0
-0.000818 -0.000079 0
-0.000753 -0.000070 0
-0.000694 -0.000063 0
-0.000641 -0.000056 0
-0.000593 -0.000051 0
-0.000549 -0.000046 0
-0.000509 -0.000042 0
-0.000471 -0.000039 0
-0.000436 -0.000037 0
-0.000402 -0.000036 0
-0.000368 -0.000036 0
-0.000334 -0.000037 0
-0.000300 -0.000038 0
-0.000264 -0.000040 0
-0.000227 -0.000042 0
-0.000189 -0.000043 0
-0.000150 -0.000043 0
-0.000112 -0.000041 0
-0.000076 -0.000037 0
-0.000045 -0.000029 0
-0.000020 -0.000019 0
-0.000005 -0.000007 0
0.000000 -0.000001 0
0.000000 0.000000 0
0.000000 0.000000 0
0.000000 0.000000 0
0.000000 0.000145 0
-0.000180 0.000383 0
-0.000483 0.000449 0
-0.000779 0.000360 0
-0.001013 0.000241 0
-0.001180 0.000149 0
-0.001295 0.000092 0
-0.001376 0.000061 0
-0.001436 0.000045 0
-0.001484 0.000037 0
-0.001524 0.000033 0
-0.001560 0.000030 0
-0.001593 0.000028 0
-0.001623 0.000026 0
-0.001651 0.000025 0
-0.001678 0.000023 0
-0.001702 0.000022 0
-0.001725 0.000021 0
-0.001746 0.000019 0
-0.001766 0.000018 0
-0.001785 0.000017 0
-0.001802 0.000016 0
-0.001819 0.000015 0
-0.001835 0.000014 0
-0.001849 0.000013 0
-0.001863 0.000013 0
-0.001876 0.000012 0
-0.001888 0.000011 0
-0.001900 0.000011 0
-0.001911 0.000011 0
-0.001922 0.000011 0
-0.001933 0.000011 0
-0.001944 0.000012 0
-0.001956 0.000014 0
-0.001968 0.000016 0
-0.001981 0.000017 0
-0.001994 0.000017 0
-0.002005 0.000015 0
-0.002013 0.000010 0
-0.002015 0.000000 0
-0.002008 -0.000013 0
-0.001989 -0.000029 0
-0.001958 -0.000046 0
-0.001918 -0.000059 0
-0.001874 -0.000059 0
-0.001838 -0.000041 0
-0.001828 0.000001 0
-0.001860 0.000069 0
-0.001950 0.000156 0
-0.002104 0.000247 0
-0.002311 0.000318 0
-0.002538 0.000335 0
-0.002726 0.000258 0
-0.002794 0.000054 0
-0.002647 -0.000295 0
-0.002207 -0.000744 0
-0.001469 -0.001126 0
-0.000588 -0.001082 0
0.000000 -0.000447 0
0.000000 0.001264 0
-0.000613 0.002144 0
-0.001380 0.001154 0
-0.001868 0.000229 0
-0.002074 -0.000213 0
-0.002098 -0.000364 0
-0.002026 -0.000388 0
-0.001911 -0.000365 0
-0.001780 -0.000328 0
-0.001647 -0.000291 0
-0.001520 -0.000257 0
-0.001401 -0.000227 0
-0.001291 -0.000201 0
-0.001191 -0.000179 0
-0.001099 -0.000160 0
-0.001015 -0.000143 0
-0.000939 -0.000129 0
-0.000869 -0.000116 0
-0.000805 -0.000105 0
-0.000747 -0.000096 0
-0.000693 -0.000089 0
-0.000642 -0.000083 0
-0.000594 -0.000079 0
-0.000548 -0.000077 0
-0.000503 -0.000076 0
-0.000457 -0.000077 0
-0.000411 -0.000080 0
-0.000364 -0.000083 0
-0.000314 -0.000086 0
-0.000263 -0.000089 0
-0.000212 -0.000089 0
-0.000160 -0.000086 0
-0.000111 -0.000077 0
-0.000068 -0.000063 0
-0.000033 -0.000043 0
-0.000009 -0.000020 0
0.000000 -0.000004 0
0.000000 0.000000 0
0.000000 0.000000 0
0.000000 0.000000 0
0.000000 0.000233 0
-0.000156 0.000625 0
-0.000440 0.000760 0
-0.000741 0.000646 0
-0.001000 0.000468 0
-0.001203 0.000316 0
-0.001355 0.000213 0
-0.001470 0.000150 0
-0.001560 0.000115 0
-0.001634 0.000094 0
-0.001697 0.000082 0
-0.001752 0.000074 0
-0.001803 0.000068 0
-0.001849 0.000063 0
-0.001893 0.000059 0
-0.001933 0.000055 0
-0.001970 0.000052 0
-0.002005 0.000048 0
-0.002037 0.000045 0
-0.002068 0.000042 0
-0.002096 0.000040 0
-0.002123 0.000037 0
-0.002148 0.000035 0
-0.002172 0.000033 0
-0.002194 0.000031 0
-0.002215 0.000029 0
-0.002235 0.000028 0
-0.002253 0.000026 0
-0.002271 0.000025 0
-0.002288 0.000024 0
-0.002304 0.000024 0
-0.002320 0.000025 0
-0.002335 0.000026 0
-0.002350 0.000028 0
-0.002366 0.000030 0
-0.002382 0.000031 0
-0.002397 0.000030 0
-0.002409 0.000025 0
-0.002417 0.000014 0
-0.002418 -0.000004 0
-0.002409 -0.000029 0
-0.002387 -0.000058 0
-0.002353 -0.000086 0
-0.002310 -0.000104 0
-0.002265 -0.000101 0
-0.002232 -0.000063 0
-0.002228 0.000017 0
-0.002272 0.000140 0
-0.002377 0.000291 0
-0.002546 0.000442 0
-0.002763 0.000545 0
-0.002987 0.000542 0
-0.003149 0.000369 0
-0.003161 -0.000026 0
-0.002929 -0.000650 0
-0.002385 -0.001406 0
-0.001550 -0.002005 0
-0.000603 -0.001860 0
0.000000 -0.000753 0
0.000000 0.001527 0
-0.000468 0.002782 0
-0.001180 0.001797 0
-0.001726 0.000633 0
-0.002033 -0.000036 0
-0.002153 -0.000340 0
-0.002155 -0.000450 0
-0.002088 -0.000471 0
-0.001986 -0.000452 0
-0.001868 -0.000419 0
-0.001745 -0.000382 0
-0.001625 -0.000346 0
-0.001509 -0.000312 0
-0.001400 -0.000282 0
-0.001299 -0.000254 0
-0.001205 -0.000230 0
-0.001118 -0.000208 0
-0.001038 -0.000189 0
-0.000964 -0.000173 0
-0.000895 -0.000158 0
-0.000832 -0.000147 0
-0.000772 -0.000138 0
-0.000715 -0.000131 0
-0.000660 -0.000127 0
-0.000607 -0.000126 0
-0.000553 -0.000128 0
-0.000499 -0.000131 0
-0.000443 -0.000136 0
-0.000385 -0.000142 0
-0.000325 -0.000145 0
-0.000264 -0.000146 0
-0.000202 -0.000141 0
-0.000143 -0.000129 0
-0.000089 -0.000108 0
-0.000044 -0.000077 0
-0.000013 -0.000040 0
0.000000 -0.000010 0
0.000000 0.000000 0
0.000000 0.000000 0
0.000000 0.000000 0
0.000000 0.000300 0
-0.000110 0.000822 0
-0.000334 0.001034 0
-0.000591 0.000919 0
-0.000831 0.000703 0
-0.001033 0.000504 0
-0.001196 0.000359 0
-0.001327 0.000265 0
-0.001434 0.000208 0
-0.001525 0.000173 0
-0.001605 0.000151 0
-0.001677 0.000136 0
-0.001743 0.000125 0
-0.001804 0.000116 0
-0.001860 0.000108 0
-0.001913 0.000101 0
-0.001963 0.000094 0
-0.002009 0.000088 0
-0.002053 0.000082 0
-0.002093 0.000077 0
-0.002131 0.000072 0
-0.002167 0.000067 0
-0.002201 0.000063 0
-0.002233 0.000060 0
-0.002263 0.000056 0
-0.002291 0.000053 0
-0.002318 0.000050 0
-0.002344 0.000048 0
-0.002368 0.000045 0
-0.002391 0.000043 0
-0.002413 0.000042 0
-0.002434 0.000042 0
-0.002454 0.000043 0
-0.002473 0.000045 0
-0.002492 0.000047 0
-0.002511 0.000047 0
-0.002528 0.000044 0
-0.002543 0.000035 0
-0.002553 0.000018 0
-0.002556 -0.000008 0
-0.002549 -0.000044 0
-0.002531 -0.000086 0
-0.002501 -0.000124 0
-0.002464 -0.000147 0
-0.002426 -0.000137 0
-0.002401 -0.000078 0
-0.002404 0.000041 0
-0.002453 0.000218 0
-0.002559 0.000430 0
-0.002722 0.000633 0
-0.002923 0.000758 0
-0.003120 0.000720 0
-0.003243 0.000433 0
-0.003208 -0.000167 0
-0.002926 -0.001071 0
-0.002346 -0.002122 0
-0.001500 -0.002909 0
-0.000571 -0.002632 0
0.000000 -0.001050 0
0.000000 0.001732 0
-0.000369 0.003324 0
-0.001008 0.002413 0
-0.001556 0.001082 0
-0.001912 0.000215 0
-0.002097 -0.000242 0
-0.002157 -0.000453 0
-0.002136 -0.000534 0
-0.002068 -0.000548 0
-0.001973 -0.000531 0
-0.001864 -0.000499 0
-0.001751 -0.000463 0
-0.001639 -0.000425 0
-0.001530 -0.000389 0
-0.001426 -0.000355 0
-0.001328 -0.000324 0
-0.001236 -0.000295 0
-0.001151 -0.000270 0
-0.001071 -0.000248 0
-0.000997 -0.000228 0
-0.000927 -0.000212 0
-0.000862 -0.000199 0
-0.000800 -0.000190 0
-0.000740 -0.000185 0
-0.000681 -0.000183 0
-0.000623 -0.000185 0
-0.000564 -0.000190 0
-0.000503 -0.000196 0
-0.000440 -0.000204 0
-0.000374 -0.000210 0
-0.000307 -0.000212 0
-0.000238 -0.000206 0
-0.000170 -0.000191 0
-0.000107 -0.000162 0
-0.000054 -0.000120 0
-0.000016 -0.000064 0
0.000000 -0.000017 0
0.000000 0.000000 0
0.000000 0.000000 0
0.000000 0.000000 0
0.000000 0.000343 0
-0.000062 0.000958 0
-0.000209 0.001240 0
-0.000398 0.001143 0
-0.000590 0.000910 0
-0.000764 0.000681 0
-0.000913 0.000506 0
-0.001040 0.000388 0
-0.001149 0.000313 0
-0.001246 0.000265 0
-0.001335 0.000234 0
-0.001416 0.000212 0
-0.001493 0.000195 0
-0.001565 0.000181 0
-0.001632 0.000169 0
-0.001696 0.000158 0
-0.001756 0.000147 0
-0.001812 0.000138 0
-0.001866 0.000129 0
-0.001916 0.000121 0
-0.001963 0.000113 0
-0.002008 0.000107 0
-0.002050 0.000100 0
-0.002090 0.000095 0
-0.002128 0.000089 0
-0.002164 0.000085 0
-0.002199 0.000080 0
-0.002232 0.000076 0
-0.002263 0.000072 0
-0.002293 0.000069 0
-0.002322 0.000066 0
-0.002349 0.000065 0
-0.002374 0.000065 0
-0.002399 0.000066 0
-0.002423 0.000067 0
-0.002445 0.000067 0
-0.002466 0.000062 0
-0.002485 0.000049 0
-0.002500 0.000027 0
-0.002509 -0.000008 0
-0.002510 -0.000054 0
-0.002500 -0.000106 0
-0.002481 -0.000154 0
-0.002455 -0.000180 0
-0.002430 -0.000164 0
-0.002415 -0.000085 0
-0.002425 0.000069 0
-0.002473 0.000294 0
-0.002570 0.000560 0
-0.002715 0.000806 0
-0.002889 0.000943 0
-0.003052 0.000862 0
-0.003139 0.000456 0
-0.003071 -0.000344 0
-0.002773 -0.001512 0
-0.002202 -0.002833 0
-0.001395 -0.003780 0
-0.000525 -0.003360 0
0.000000 -0.001324 0
0.000000 0.001897 0
-0.000301 0.003790 0
-0.000870 0.002984 0
-0.001394 0.001538 0
-0.001766 0.000505 0
-0.001986 -0.000095 0
-0.002086 -0.000410 0
-0.002102 -0.000559 0
-0.002064 -0.000616 0
-0.001992 -0.000622 0
-0.001901 -0.000603 0
-0.001799 -0.000571 0
-0.001695 -0.000533 0
-0.001590 -0.000494 0
-0.001489 -0.000456 0
-0.001392 -0.000419 0
-0.001300 -0.000385 0
-0.001213 -0.000354 0
-0.001131 -0.000326 0
-0.001055 -0.000302 0
-0.000983 -0.000281 0
-0.000915 -0.000265 0
-0.000851 -0.000253 0
-0.000789 -0.000246 0
-0.000728 -0.000243 0
-0.000668 -0.000245 0
-0.000607 -0.000251 0
-0.000545 -0.000260 0
-0.000480 -0.000270 0
-0.000411 -0.000279 0
-0.000340 -0.000283 0
-0.000266 -0.000278 0
-0.000193 -0.000259 0
-0.000123 -0.000224 0
-0.000062 -0.000169 0
-0.000018 -0.000093 0
0.000000 -0.000025 0
0.000000 0.000000 0
0.000000 0.000000 0
0.000000 0.000000 0
0.000000 0.000362 0
-0.000019 0.001031 0
-0.000090 0.001370 0
-0.000202 0.001300 0
-0.000331 0.001069 0
-0.000459 0.000827 0
-0.000577 0.000634 0
-0.000684 0.000501 0
-0.000781 0.000414 0
-0.000873 0.000359 0
-0.000959 0.000321 0
-0.001043 0.000294 0
-0.001123 0.000273 0
-0.001200 0.000255 0
-0.001275 0.000239 0
-0.001346 0.000224 0
-0.001414 0.000210 0
-0.001480 0.000198 0
-0.001542 0.000185 0
-0.001601 0.000174 0
-0.001657 0.000164 0
-0.001710 0.000154 0
-0.001760 0.000145 0
-0.001808 0.000137 0
-0.001854 0.000130 0
-0.001897 0.000124 0
-0.001940 0.000118 0
-0.001980 0.000112 0
-0.002019 0.000106 0
-0.002057 0.000102 0
-0.002093 0.000098 0
-0.002127 0.000095 0
-0.002159 0.000093 0
-0.002190 0.000093 0
-0.002219 0.000093 0
-0.002247 0.000091 0
-0.002273 0.000084 0
-0.002298 0.000069 0
-0.002320 0.000042 0
-0.002338 0.000001 0
-0.002349 -0.000054 0
-0.002353 -0.000114 0
-0.002348 -0.000169 0
-0.002338 -0.000199 0
-0.002327 -0.000178 0
-0.002324 -0.000083 0
-0.002340 0.000099 0
-0.002385 0.000363 0
-0.002469 0.000672 0
-0.002590 0.000952 0
-0.002731 0.001095 0
-0.002858 0.000969 0
-0.002914 0.000452 0
-0.002830 -0.000533 0
-0.002539 -0.001940 0
-0.002009 -0.003500 0
-0.001269 -0.004586 0
-0.000477 -0.004027 0
0.000000 -0.001575 0
0.000000 0.002034 0
-0.000252 0.004194 0
-0.000759 0.003506 0
-0.001251 0.001979 0
-0.001618 0.000807 0
-0.001852 0.000078 0
-0.001976 -0.000336 0
-0.002017 -0.000555 0
-0.002002 -0.000658 0
-0.001950 -0.000694 0
-0.001874 -0.000692 0
-0.001786 -0.000668 0
-0.001691 -0.000634 0
-0.001594 -0.000594 0
-0.001498 -0.000553 0
-0.001405 -0.000513 0
-0.001315 -0.000474 0
-0.001230 -0.000438 0
-0.001150 -0.000405 0
-0.001074 -0.000376 0
-0.001002 -0.000352 0
-0.000934 -0.000332 0
-0.000870 -0.000317 0
-0.000809 -0.000307 0
-0.000749 -0.000303 0
-0.000689 -0.000305 0
-0.000630 -0.000313 0
-0.000568 -0.000324 0
-0.000504 -0.000337 0
-0.000436 -0.000349 0
-0.000364 -0.000356 0
-0.000288 -0.000353 0
-0.000211 -0.000334 0
-0.000136 -0.000292 0
-0.000070 -0.000224 0
-0.000021 -0.000126 0
0.000000 -0.000035 0
0.000000 0.000000 0
0.000000 0.000000 0
0.000000 0.000000 0
0.000000 0.000362 0
0.000014 0.001048 0
0.000011 0.001422 0
-0.000025 0.001384 0
-0.000087 0.001168 0
-0.000162 0.000927 0
-0.000239 0.000731 0
-0.000315 0.000592 0
-0.000389 0.000501 0
-0.000464 0.000443 0
-0.000539 0.000404 0
-0.000616 0.000376 0
-0.000692 0.000353 0
-0.000769 0.000333 0
-0.000845 0.000314 0
-0.000920 0.000297 0
-0.000993 0.000281 0
-0.001064 0.000265 0
-0.001134 0.000250 0
-0.001200 0.000236 0
-0.001264 0.000222 0
-0.001325 0.000210 0
-0.001383 0.000198 0
-0.001439 0.000188 0
-0.001492 0.000179 0
-0.001543 0.000171 0
-0.001592 0.000163 0
-0.001640 0.000156 0
-0.001687 0.000149 0
-0.001732 0.000142 0
-0.001776 0.000136 0
-0.001817 0.000131 0
-0.001857 0.000128 0
-0.001894 0.000126 0
-0.001929 0.000124 0
-0.001963 0.000121 0
-0.001996 0.000113 0
-0.002028 0.000096 0
-0.002058 0.000066 0
-0.002086 0.000021 0
-0.002110 -0.000040 0
-0.002129 -0.000107 0
-0.002141 -0.000168 0
-0.002149 -0.000201 0
-0.002154 -0.000178 0
-0.002164 -0.000073 0
-0.002185 0.000130 0
-0.002226 0.000423 0
-0.002294 0.000764 0
-0.002389 0.001068 0
-0.002498 0.001212 0
-0.002591 0.001045 0
-0.002622 0.000428 0
-0.002532 -0.000719 0
-0.002266 -0.002333 0
-0.001792 -0.004103 0
-0.001134 -0.005312 0
-0.000428 -0.004629 0
0.000000 -0.001801 0
0.000000 0.002150 0
-0.000215 0.004549 0
-0.000669 0.003983 0
-0.001125 0.002397 0
-0.001479 0.001107 0
-0.001714 0.000262 0
-0.001848 -0.000245 0
-0.001904 -0.000532 0
-0.001904 -0.000683 0
-0.001866 -0.000750 0
-0.001803 -0.000767 0
-0.001726 -0.000754 0
-0.001641 -0.000725 0
-0.001552 -0.000687 0
-0.001463 -0.000645 0
-0.001375 -0.000602 0
-0.001291 -0.000559 0
-0.001209 -0.000519 0
-0.001132 -0.000482 0
-0.001059 -0.000449 0
-0.000989 -0.000421 0
-0.000924 -0.000397 0
-0.000862 -0.000379 0
-0.000802 -0.000367 0
-0.000745 -0.000362 0
-0.000689 -0.000364 0
-0.000633 -0.000372 0
-0.000575 -0.000385 0
-0.000514 -0.000402 0
-0.000448 -0.000419 0
-0.000378 -0.000430 0
-0.000303 -0.000430 0
-0.000224 -0.000411 0
-0.000146 -0.000365 0
-0.000076 -0.000284 0
-0.000023 -0.000162 0
0.000000 -0.000046 0
0.000000 0.000000 0
0.000000 0.000000 0
0.000000 0.000000 0
0.000000 0.000347 0
0.000039 0.001019 0
0.000091 0.001408 0
0.000121 0.001398 0
0.000123 0.001206 0
0.000103 0.000978 0
0.000070 0.000787 0
0.000030 0.000651 0
-0.000015 0.000563 0
-0.000066 0.000509 0
-0.000122 0.000473 0
-0.000183 0.000447 0
-0.000249 0.000427 0
-0.000317 0.000408 0
-0.000389 0.000389 0
-0.000461 0.000372 0
-0.000535 0.000355 0
-0.000609 0.000338 0
-0.000683 0.000321 0
-0.000756 0.000305 0
-0.000828 0.000288 0
-0.000897 0.000273 0
-0.000963 0.000259 0
-0.001026 0.000246 0
-0.001086 0.000234 0
-0.001143 0.000224 0
-0.001199 0.000215 0
-0.001253 0.000206 0
-0.001306 0.000198 0
-0.001358 0.000190 0
-0.001409 0.000182 0
-0.001458 0.000176 0
-0.001504 0.000170 0
-0.001549 0.000166 0
-0.001591 0.000162 0
-0.001631 0.000157 0
-0.001671 0.000149 0
-0.001709 0.000131 0
-0.001748 0.000100 0
-0.001787 0.000053 0
-0.001824 -0.000011 0
-0.001858 -0.000084 0
-0.001888 -0.000150 0
-0.001914 -0.000186 0
-0.001936 -0.000163 0
-0.001958 -0.000053 0
-0.001986 0.000161 0
-0.002024 0.000473 0
-0.002077 0.000835 0
-0.002148 0.001155 0
-0.002225 0.001296 0
-0.002288 0.001093 0
-0.002300 0.000393 0
-0.002212 -0.000890 0
-0.001977 -0.002681 0
-0.001567 -0.004632 0
-0.000997 -0.005950 0
-0.000380 -0.005162 0
0.000000 -0.002003 0
0.000000 0.002249 0
-0.000186 0.004864 0
-0.000595 0.004417 0
-0.001016 0.002789 0
-0.001350 0.001396 0
-0.001578 0.000447 0
-0.001713 -0.000146 0
-0.001775 -0.000499 0
-0.001783 -0.000696 0
-0.001754 -0.000794 0
-0.001701 -0.000831 0
-0.001633 -0.000830 0
-0.001557 -0.000807 0
-0.001476 -0.000772 0
-0.001394 -0.000730 0
-0.001313 -0.000685 0
-0.001234 -0.000640 0
-0.001157 -0.000597 0
-0.001084 -0.000556 0
-0.001015 -0.000519 0
-0.000949 -0.000486 0
-0.000887 -0.000459 0
-0.000829 -0.000438 0
-0.000773 -0.000423 0
-0.000720 -0.000417 0
-0.000669 -0.000418 0
-0.000617 -0.000427 0
-0.000565 -0.000443 0
-0.000509 -0.000463 0
-0.000449 -0.000485 0
-0.000382 -0.000502 0
-0.000310 -0.000507 0
-0.000232 -0.000490 0
-0.000154 -0.000440 0
-0.000081 -0.000347 0
-0.000025 -0.000202 0
0.000000 -0.000058 0
0.000000 0.000000 0
0.000000 0.000000 0
0.000000 0.000000 0
0.000000 0.000323 0
0.000055 0.000957 0
0.000148 0.001340 0
0.000232 0.001351 0