# vtk DataFile Version 2.0
generated by CFD-lab course output (written by Tobias Neckel) 
ASCII

DATASET STRUCTURED_GRID
DIMENSIONS  99 49 1 
POINTS 4851 float

0.000000 0.000000 0
0.020000 0.000000 0
0.040000 0.000000 0
0.060000 0.000000 0
0.080000 0.000000 0
0.100000 0.000000 0
0.120000 0.000000 0
0.140000 0.000000 0
0.160000 0.000000 0
0.180000 0.000000 0
0.200000 0.000000 0
0.220000 0.000000 0
0.240000 0.000000 0
0.260000 0.000000 0
0.280000 0.000000 0
0.300000 0.000000 0
0.320000 0.000000 0
0.340000 0.000000 0
0.360000 0.000000 0
0.380000 0.000000 0
0.400000 0.000000 0
0.420000 0.000000 0
0.440000 0.000000 0
0.460000 0.000000 0
0.480000 0.000000 0
0.500000 0.000000 0
0.520000 0.000000 0
0.540000 0.000000 0
0.560000 0.000000 0
0.580000 0.000000 0
0.600000 0.000000 0
0.620000 0.000000 0
0.640000 0.000000 0
0.660000 0.000000 0
0.680000 0.000000 0
0.700000 0.000000 0
0.720000 0.000000 0
0.740000 0.000000 0
0.760000 0.000000 0
0.780000 0.000000 0
0.800000 0.000000 0
0.820000 0.000000 0
0.840000 0.000000 0
0.860000 0.000000 0
0.880000 0.000000 0
0.900000 0.000000 0
0.920000 0.000000 0
0.940000 0.000000 0
0.960000 0.000000 0
0.980000 0.000000 0
1.000000 0.000000 0
1.020000 0.000000 0
1.040000 0.000000 0
1.060000 0.000000 0
1.080000 0.000000 0
1.100000 0.000000 0
1.120000 0.000000 0
1.140000 0.000000 0
1.160000 0.000000 0
1.180000 0.000000 0
1.200000 0.000000 0
1.220000 0.000000 0
1.240000 0.000000 0
1.260000 0.000000 0
1.280000 0.000000 0
1.300000 0.000000 0
1.320000 0.000000 0
1.340000 0.000000 0
1.360000 0.000000 0
1.380000 0.000000 0
1.400000 0.000000 0
1.420000 0.000000 0
1.440000 0.000000 0
1.460000 0.000000 0
1.480000 0.000000 0
1.500000 0.000000 0
1.520000 0.000000 0
1.540000 0.000000 0
1.560000 0.000000 0
1.580000 0.000000 0
1.600000 0.000000 0
1.620000 0.000000 0
1.640000 0.000000 0
1.660000 0.000000 0
1.680000 0.000000 0
1.700000 0.000000 0
1.720000 0.000000 0
1.740000 0.000000 0
1.760000 0.000000 0
1.780000 0.000000 0
1.800000 0.000000 0
1.820000 0.000000 0
1.840000 0.000000 0
1.860000 0.000000 0
1.880000 0.000000 0
1.900000 0.000000 0
1.920000 0.000000 0
1.940000 0.000000 0
1.960000 0.000000 0
0.000000 0.020000 0
0.020000 0.020000 0
0.040000 0.020000 0
0.060000 0.020000 0
0.080000 0.020000 0
0.100000 0.020000 0
0.120000 0.020000 0
0.140000 0.020000 0
0.160000 0.020000 0
0.180000 0.020000 0
0.200000 0.020000 0
0.220000 0.020000 0
0.240000 0.020000 0
0.260000 0.020000 0
0.280000 0.020000 0
0.300000 0.020000 0
0.320000 0.020000 0
0.340000 0.020000 0
0.360000 0.020000 0
0.380000 0.020000 0
0.400000 0.020000 0
0.420000 0.020000 0
0.440000 0.020000 0
0.460000 0.020000 0
0.480000 0.020000 0
0.500000 0.020000 0
0.520000 0.020000 0
0.540000 0.020000 0
0.560000 0.020000 0
0.580000 0.020000 0
0.600000 0.020000 0
0.620000 0.020000 0
0.640000 0.020000 0
0.660000 0.020000 0
0.680000 0.020000 0
0.700000 0.020000 0
0.720000 0.020000 0
0.740000 0.020000 0
0.760000 0.020000 0
0.780000 0.020000 0
0.800000 0.020000 0
0.820000 0.020000 0
0.840000 0.020000 0
0.860000 0.020000 0
0.880000 0.020000 0
0.900000 0.020000 0
0.920000 0.020000 0
0.940000 0.020000 0
0.960000 0.020000 0
0.980000 0.020000 0
1.000000 0.020000 0
1.020000 0.020000 0
1.040000 0.020000 0
1.060000 0.020000 0
1.080000 0.020000 0
1.100000 0.020000 0
1.120000 0.020000 0
1.140000 0.020000 0
1.160000 0.020000 0
1.180000 0.020000 0
1.200000 0.020000 0
1.220000 0.020000 0
1.240000 0.020000 0
1.260000 0.020000 0
1.280000 0.020000 0
1.300000 0.020000 0
1.320000 0.020000 0
1.340000 0.020000 0
1.360000 0.020000 0
1.380000 0.020000 0
1.400000 0.020000 0
1.420000 0.020000 0
1.440000 0.020000 0
1.460000 0.020000 0
1.480000 0.020000 0
1.500000 0.020000 0
1.520000 0.020000 0
1.540000 0.020000 0
1.560000 0.020000 0
1.580000 0.020000 0
1.600000 0.020000 0
1.620000 0.020000 0
1.640000 0.020000 0
1.660000 0.020000 0
1.680000 0.020000 0
1.700000 0.020000 0
1.720000 0.020000 0
1.740000 0.020000 0
1.760000 0.020000 0
1.780000 0.020000 0
1.800000 0.020000 0
1.820000 0.020000 0
1.840000 0.020000 0
1.860000 0.020000 0
1.880000 0.020000 0
1.900000 0.020000 0
1.920000 0.020000 0
1.940000 0.020000 0
1.960000 0.020000 0
0.000000 0.040000 0
0.020000 0.040000 0
0.040000 0.040000 0
0.060000 0.040000 0
0.080000 0.040000 0
0.100000 0.040000 0
0.120000 0.040000 0
0.140000 0.040000 0
0.160000 0.040000 0
0.180000 0.040000 0
0.200000 0.040000 0
0.220000 0.040000 0
0.240000 0.040000 0
0.260000 0.040000 0
0.280000 0.040000 0
0.300000 0.040000 0
0.320000 0.040000 0
0.340000 0.040000 0
0.360000 0.040000 0
0.380000 0.040000 0
0.400000 0.040000 0
0.420000 0.040000 0
0.440000 0.040000 0
0.460000 0.040000 0
0.480000 0.040000 0
0.500000 0.040000 0
0.520000 0.040000 0
0.540000 0.040000 0
0.560000 0.040000 0
0.580000 0.040000 0
0.600000 0.040000 0
0.620000 0.040000 0
0.640000 0.040000 0
0.660000 0.040000 0
0.680000 0.040000 0
0.700000 0.040000 0
0.720000 0.040000 0
0.740000 0.040000 0
0.760000 0.040000 0
0.780000 0.040000 0
0.800000 0.040000 0
0.820000 0.040000 0
0.840000 0.040000 0
0.860000 0.040000 0
0.880000 0.040000 0
0.900000 0.040000 0
0.920000 0.040000 0
0.940000 0.040000 0
0.960000 0.040000 0
0.980000 0.040000 0
1.000000 0.040000 0
1.020000 0.040000 0
1.040000 0.040000 0
1.060000 0.040000 0
1.080000 0.040000 0
1.100000 0.040000 0
1.120000 0.040000 0
1.140000 0.040000 0
1.160000 0.040000 0
1.180000 0.040000 0
1.200000 0.040000 0
1.220000 0.040000 0
1.240000 0.040000 0
1.260000 0.040000 0
1.280000 0.040000 0
1.300000 0.040000 0
1.320000 0.040000 0
1.340000 0.040000 0
1.360000 0.040000 0
1.380000 0.040000 0
1.400000 0.040000 0
1.420000 0.040000 0
1.440000 0.040000 0
1.460000 0.040000 0
1.480000 0.040000 0
1.500000 0.040000 0
1.520000 0.040000 0
1.540000 0.040000 0
1.560000 0.040000 0
1.580000 0.040000 0
1.600000 0.040000 0
1.620000 0.040000 0
1.640000 0.040000 0
1.660000 0.040000 0
1.680000 0.040000 0
1.700000 0.040000 0
1.720000 0.040000 0
1.740000 0.040000 0
1.760000 0.040000 0
1.780000 0.040000 0
1.800000 0.040000 0
1.820000 0.040000 0
1.840000 0.040000 0
1.860000 0.040000 0
1.880000 0.040000 0
1.900000 0.040000 0
1.920000 0.040000 0
1.940000 0.040000 0
1.960000 0.040000 0
0.000000 0.060000 0
0.020000 0.060000 0
0.040000 0.060000 0
0.060000 0.060000 0
0.080000 0.060000 0
0.100000 0.060000 0
0.120000 0.060000 0
0.140000 0.060000 0
0.160000 0.060000 0
0.180000 0.060000 0
0.200000 0.060000 0
0.220000 0.060000 0
0.240000 0.060000 0
0.260000 0.060000 0
0.280000 0.060000 0
0.300000 0.060000 0
0.320000 0.060000 0
0.340000 0.060000 0
0.360000 0.060000 0
0.380000 0.060000 0
0.400000 0.060000 0
0.420000 0.060000 0
0.440000 0.060000 0
0.460000 0.060000 0
0.480000 0.060000 0
0.500000 0.060000 0
0.520000 0.060000 0
0.540000 0.060000 0
0.560000 0.060000 0
0.580000 0.060000 0
0.600000 0.060000 0
0.620000 0.060000 0
0.640000 0.060000 0
0.660000 0.060000 0
0.680000 0.060000 0
0.700000 0.060000 0
0.720000 0.060000 0
0.740000 0.060000 0
0.760000 0.060000 0
0.780000 0.060000 0
0.800000 0.060000 0
0.820000 0.060000 0
0.840000 0.060000 0
0.860000 0.060000 0
0.880000 0.060000 0
0.900000 0.060000 0
0.920000 0.060000 0
0.940000 0.060000 0
0.960000 0.060000 0
0.980000 0.060000 0
1.000000 0.060000 0
1.020000 0.060000 0
1.040000 0.060000 0
1.060000 0.060000 0
1.080000 0.060000 0
1.100000 0.060000 0
1.120000 0.060000 0
1.140000 0.060000 0
1.160000 0.060000 0
1.180000 0.060000 0
1.200000 0.060000 0
1.220000 0.060000 0
1.240000 0.060000 0
1.260000 0.060000 0
1.280000 0.060000 0
1.300000 0.060000 0
1.320000 0.060000 0
1.340000 0.060000 0
1.360000 0.060000 0
1.380000 0.060000 0
1.400000 0.060000 0
1.420000 0.060000 0
1.440000 0.060000 0
1.460000 0.060000 0
1.480000 0.060000 0
1.500000 0.060000 0
1.520000 0.060000 0
1.540000 0.060000 0
1.560000 0.060000 0
1.580000 0.060000 0
1.600000 0.060000 0
1.620000 0.060000 0
1.640000 0.060000 0
1.660000 0.060000 0
1.680000 0.060000 0
1.700000 0.060000 0
1.720000 0.060000 0
1.740000 0.060000 0
1.760000 0.060000 0
1.780000 0.060000 0
1.800000 0.060000 0
1.820000 0.060000 0
1.840000 0.060000 0
1.860000 0.060000 0
1.880000 0.060000 0
1.900000 0.060000 0
1.920000 0.060000 0
1.940000 0.060000 0
1.960000 0.060000 0
0.000000 0.080000 0
0.020000 0.080000 0
0.040000 0.080000 0
0.060000 0.080000 0
0.080000 0.080000 0
0.100000 0.080000 0
0.120000 0.080000 0
0.140000 0.080000 0
0.160000 0.080000 0
0.180000 0.080000 0
0.200000 0.080000 0
0.220000 0.080000 0
0.240000 0.080000 0
0.260000 0.080000 0
0.280000 0.080000 0
0.300000 0.080000 0
0.320000 0.080000 0
0.340000 0.080000 0
0.360000 0.080000 0
0.380000 0.080000 0
0.400000 0.080000 0
0.420000 0.080000 0
0.440000 0.080000 0
0.460000 0.080000 0
0.480000 0.080000 0
0.500000 0.080000 0
0.520000 0.080000 0
0.540000 0.080000 0
0.560000 0.080000 0
0.580000 0.080000 0
0.600000 0.080000 0
0.620000 0.080000 0
0.640000 0.080000 0
0.660000 0.080000 0
0.680000 0.080000 0
0.700000 0.080000 0
0.720000 0.080000 0
0.740000 0.080000 0
0.760000 0.080000 0
0.780000 0.080000 0
0.800000 0.080000 0
0.820000 0.080000 0
0.840000 0.080000 0
0.860000 0.080000 0
0.880000 0.080000 0
0.900000 0.080000 0
0.920000 0.080000 0
0.940000 0.080000 0
0.960000 0.080000 0
0.980000 0.080000 0
1.000000 0.080000 0
1.020000 0.080000 0
1.040000 0.080000 0
1.060000 0.080000 0
1.080000 0.080000 0
1.100000 0.080000 0
1.120000 0.080000 0
1.140000 0.080000 0
1.160000 0.080000 0
1.180000 0.080000 0
1.200000 0.080000 0
1.220000 0.080000 0
1.240000 0.080000 0
1.260000 0.080000 0
1.280000 0.080000 0
1.300000 0.080000 0
1.320000 0.080000 0
1.340000 0.080000 0
1.360000 0.080000 0
1.380000 0.080000 0
1.400000 0.080000 0
1.420000 0.080000 0
1.440000 0.080000 0
1.460000 0.080000 0
1.480000 0.080000 0
1.500000 0.080000 0
1.520000 0.080000 0
1.540000 0.080000 0
1.560000 0.080000 0
1.580000 0.080000 0
1.600000 0.080000 0
1.620000 0.080000 0
1.640000 0.080000 0
1.660000 0.080000 0
1.680000 0.080000 0
1.700000 0.080000 0
1.720000 0.080000 0
1.740000 0.080000 0
1.760000 0.080000 0
1.780000 0.080000 0
1.800000 0.080000 0
1.820000 0.080000 0
1.840000 0.080000 0
1.860000 0.080000 0
1.880000 0.080000 0
[...]
POINT_DATA 4851 

VECTORS velocity float
0.000000 0.000000 0
-0.000412 0.000000 0
-0.000549 0.000000 0
-0.000506 0.000000 0
-0.000424 0.000000 0
-0.000352 0.000000 0
-0.000299 0.000000 0
-0.000260 0.000000 0
-0.000231 0.000000 0
-0.000209 0.000000 0
-0.000191 0.000000 0
-0.000176 0.000000 0
-0.000163 0.000000 0
-0.000151 0.000000 0
-0.000141 0.000000 0
-0.000131 0.000000 0
-0.000123 0.000000 0
-0.000114 0.000000 0
-0.000107 0.000000 0
-0.000100 0.000000 0
-0.000093 0.000000 0
-0.000086 0.000000 0
-0.000080 0.000000 0
-0.000073 0.000000 0
-0.000067 0.000000 0
-0.000062 0.000000 0
-0.000056 0.000000 0
-0.000051 0.000000 0
-0.000046 0.000000 0
-0.000041 0.000000 0
-0.000036 0.000000 0
-0.000031 0.000000 0
-0.000025 0.000000 0
-0.000018 0.000000 0
-0.000010 0.000000 0
-0.000003 0.000000 0
0.000000 0.000000 0
0.000000 0.000000 0
0.000000 0.000000 0
0.000000 0.000000 0
0.000000 0.000000 0
-0.000021 0.000000 0
-0.000063 0.000000 0
-0.000107 0.000000 0
-0.000141 0.000000 0
-0.000165 0.000000 0
-0.000180 0.000000 0
-0.000189 0.000000 0
-0.000195 0.000000 0
-0.000198 0.000000 0
-0.000201 0.000000 0
-0.000204 0.000000 0
-0.000206 0.000000 0
-0.000208 0.000000 0
-0.000210 0.000000 0
-0.000212 0.000000 0
-0.000213 0.000000 0
-0.000215 0.000000 0
-0.000216 0.000000 0
-0.000218 0.000000 0
-0.000219 0.000000 0
-0.000220 0.000000 0
-0.000221 0.000000 0
-0.000223 0.000000 0
-0.000224 0.000000 0
-0.000225 0.000000 0
-0.000226 0.000000 0
-0.000227 0.000000 0
-0.000227 0.000000 0
-0.000228 0.000000 0
-0.000229 0.000000 0
-0.000230 0.000000 0
-0.000231 0.000000 0
-0.000232 0.000000 0
-0.000233 0.000000 0
-0.000234 0.000000 0
-0.000234 0.000000 0
-0.000235 0.000000 0
-0.000236 0.000000 0
-0.000236 0.000000 0
-0.000236 0.000000 0
-0.000236 0.000000 0
-0.000235 0.000000 0
-0.000233 0.000000 0
-0.000231 0.000000 0
-0.000229 0.000000 0
-0.000230 0.000000 0
-0.000234 0.000000 0
-0.000243 0.000000 0
-0.000259 0.000000 0
-0.000281 0.000000 0
-0.000307 0.000000 0
-0.000332 0.000000 0
-0.000346 0.000000 0
-0.000338 0.000000 0
-0.000292 0.000000 0
-0.000201 0.000000 0
-0.000082 0.000000 0
0.000000 0.000000 0
0.000000 0.000413 0
-0.000820 0.000550 0
-0.001273 0.000094 0
-0.001328 -0.000125 0
-0.001222 -0.000153 0
-0.001085 -0.000124 0
-0.000961 -0.000092 0
-0.000859 -0.000067 0
-0.000776 -0.000050 0
-0.000708 -0.000040 0
-0.000652 -0.000032 0
-0.000603 -0.000027 0
-0.000561 -0.000024 0
-0.000523 -0.000021 0
-0.000488 -0.000019 0
-0.000456 -0.000018 0
-0.000427 -0.000016 0
-0.000399 -0.000015 0
-0.000373 -0.000014 0
-0.000348 -0.000014 0
-0.000324 -0.000013 0
-0.000301 -0.000012 0
-0.000279 -0.000012 0
-0.000257 -0.000011 0
-0.000237 -0.000011 0
-0.000217 -0.000011 0
-0.000197 -0.000010 0
-0.000179 -0.000010 0
-0.000160 -0.000009 0
-0.000143 -0.000009 0
-0.000124 -0.000010 0
-0.000105 -0.000011 0
-0.000083 -0.000013 0
-0.000059 -0.000014 0
-0.000033 -0.000014 0
-0.000011 -0.000009 0
0.000000 -0.000002 0
0.000000 0.000000 0
0.000000 0.000000 0
0.000000 0.000000 0
0.000000 0.000020 0
-0.000062 0.000063 0
-0.000182 0.000086 0
-0.000308 0.000078 0
-0.000414 0.000057 0
-0.000493 0.000038 0
-0.000548 0.000023 0
-0.000585 0.000014 0
-0.000611 0.000009 0
-0.000630 0.000006 0
-0.000645 0.000005 0
-0.000657 0.000004 0
-0.000667 0.000004 0
-0.000676 0.000003 0
-0.000684 0.000003 0
-0.000692 0.000003 0
-0.000699 0.000003 0
-0.000705 0.000003 0
-0.000711 0.000002 0
-0.000717 0.000002 0
-0.000722 0.000002 0
-0.000727 0.000002 0
-0.000732 0.000002 0
-0.000736 0.000002 0
-0.000740 0.000002 0
-0.000744 0.000002 0
-0.000747 0.000001 0
-0.000751 0.000001 0
-0.000754 0.000001 0
-0.000757 0.000001 0
-0.000760 0.000001 0
-0.000763 0.000001 0
-0.000766 0.000001 0
-0.000768 0.000001 0
-0.000771 0.000001 0
-0.000774 0.000001 0
-0.000777 0.000001 0
-0.000779 0.000001 0
-0.000780 0.000001 0
-0.000781 0.000000 0
-0.000780 -0.000001 0
-0.000778 -0.000002 0
-0.000774 -0.000004 0
-0.000768 -0.000004 0
-0.000762 -0.000004 0
-0.000759 -0.000001 0
-0.000761 0.000004 0
-0.000775 0.000013 0
-0.000804 0.000024 0
-0.000850 0.000037 0
-0.000911 0.000048 0
-0.000980 0.000050 0
-0.001038 0.000039 0
-0.001058 0.000006 0
-0.001005 -0.000055 0
-0.000845 -0.000137 0
-0.000569 -0.000210 0
-0.000229 -0.000201 0
0.000000 -0.000082 0
0.000000 0.000821 0
-0.000707 0.001275 0
-0.001367 0.000509 0
-0.001657 -0.000051 0
-0.001691 -0.000242 0
-0.001610 -0.000260 0
-0.001494 -0.000225 0
-0.001376 -0.000184 0
-0.001269 -0.000149 0
-0.001174 -0.000123 0
-0.001090 -0.000104 0
-0.001016 -0.000090 0
-0.000949 -0.000080 0
-0.000888 -0.000072 0
-0.000832 -0.000066 0
-0.000780 -0.000061 0
-0.000731 -0.000057 0
-0.000685 -0.000053 0
-0.000641 -0.000050 0
-0.000599 -0.000048 0
-0.000559 -0.000046 0
-0.000520 -0.000044 0
-0.000482 -0.000043 0
-0.000445 -0.000041 0
-0.000409 -0.000040 0
-0.000375 -0.000039 0
-0.000341 -0.000037 0
-0.000308 -0.000036 0
-0.000276 -0.000035 0
-0.000244 -0.000035 0
-0.000211 -0.000037 0
-0.000176 -0.000040 0
-0.000138 -0.000045 0
-0.000097 -0.000049 0
-0.000055 -0.000047 0
-0.000019 -0.000032 0
0.000000 -0.000010 0
0.000000 0.000000 0
0.000000 0.000000 0
0.000000 0.000000 0
0.000000 0.000062 0
-0.000086 0.000181 0
-0.000246 0.000245 0
-0.000422 0.000231 0
-0.000580 0.000184 0
-0.000707 0.000133 0
-0.000803 0.000092 0
-0.000874 0.000063 0
-0.000927 0.000044 0
-0.000967 0.000033 0
-0.000999 0.000026 0
-0.001025 0.000022 0
-0.001048 0.000019 0
-0.001068 0.000017 0
-0.001085 0.000015 0
-0.001101 0.000014 0
-0.001116 0.000013 0
-0.001129 0.000012 0
-0.001142 0.000011 0
-0.001153 0.000010 0
-0.001163 0.000009 0
-0.001173 0.000009 0
-0.001182 0.000008 0
-0.001190 0.000008 0
-0.001198 0.000007 0
-0.001205 0.000007 0
-0.001212 0.000007 0
-0.001218 0.000006 0
-0.001224 0.000006 0
-0.001230 0.000005 0
-0.001235 0.000005 0
-0.001240 0.000005 0
-0.001245 0.000005 0
-0.001249 0.000005 0
-0.001254 0.000005 0
-0.001258 0.000005 0
-0.001262 0.000004 0
-0.001265 0.000003 0
-0.001266 0.000002 0
-0.001267 -0.000001 0
-0.001265 -0.000004 0
-0.001260 -0.000007 0
-0.001253 -0.000011 0
-0.001244 -0.000012 0
-0.001236 -0.000010 0
-0.001232 -0.000001 0
-0.001238 0.000016 0
-0.001259 0.000042 0
-0.001302 0.000074 0
-0.001366 0.000107 0
-0.001448 0.000129 0
-0.001533 0.000126 0
-0.001593 0.000077 0
-0.001588 -0.000033 0
-0.001473 -0.000213 0
-0.001208 -0.000437 0
-0.000793 -0.000617 0
-0.000313 -0.000569 0
0.000000 -0.000229 0
0.000000 0.001121 0
-0.000509 0.001918 0
-0.001163 0.001044 0
-0.001577 0.000199 0
-0.001745 -0.000199 0
-0.001760 -0.000321 0
-0.001701 -0.000325 0
-0.001613 -0.000292 0
-0.001518 -0.000253 0
-0.001425 -0.000218 0
-0.001338 -0.000190 0
-0.001257 -0.000168 0
-0.001182 -0.000151 0
-0.001112 -0.000138 0
-0.001046 -0.000127 0
-0.000984 -0.000118 0
-0.000925 -0.000111 0
-0.000869 -0.000105 0
-0.000815 -0.000100 0
-0.000763 -0.000096 0
-0.000712 -0.000092 0
-0.000663 -0.000089 0
-0.000616 -0.000086 0
-0.000569 -0.000084 0
-0.000524 -0.000081 0
-0.000479 -0.000079 0
-0.000436 -0.000076 0
-0.000393 -0.000074 0
-0.000351 -0.000073 0
-0.000309 -0.000074 0
-0.000266 -0.000077 0
-0.000221 -0.000083 0
-0.000172 -0.000091 0
-0.000121 -0.000097 0
-0.000069 -0.000092 0
-0.000024 -0.000064 0
0.000000 -0.000021 0
0.000000 0.000000 0
0.000000 0.000000 0
0.000000 0.000000 0
0.000000 0.000106 0
-0.000081 0.000308 0
-0.000240 0.000422 0
-0.000420 0.000411 0
-0.000592 0.000342 0
-0.000738 0.000261 0
-0.000856 0.000190 0
-0.000948 0.000138 0
-0.001021 0.000102 0
-0.001079 0.000078 0
-0.001126 0.000063 0
-0.001166 0.000053 0
-0.001200 0.000046 0
-0.001231 0.000041 0
-0.001258 0.000037 0
-0.001283 0.000033 0
-0.001305 0.000030 0
-0.001325 0.000028 0
-0.001344 0.000026 0
-0.001361 0.000024 0
-0.001376 0.000022 0
-0.001391 0.000020 0
-0.001404 0.000019 0
-0.001416 0.000018 0
-0.001427 0.000017 0
-0.001438 0.000015 0
-0.001448 0.000014 0
-0.001457 0.000014 0
-0.001465 0.000013 0
-0.001473 0.000012 0
-0.001481 0.000011 0
-0.001488 0.000011 0
-0.001494 0.000010 0
-0.001500 0.000010 0
-0.001506 0.000010 0
-0.001511 0.000009 0
-0.001515 0.000008 0
-0.001519 0.000006 0
-0.001521 0.000003 0
-0.001522 -0.000002 0
-0.001519 -0.000008 0
-0.001514 -0.000014 0
-0.001507 -0.000020 0
-0.001498 -0.000022 0
-0.001489 -0.000016 0
-0.001486 0.000000 0
-0.001493 0.000031 0
-0.001516 0.000076 0
-0.001561 0.000131 0
-0.001628 0.000184 0
-0.001709 0.000214 0
-0.001789 0.000195 0
-0.001834 0.000094 0
-0.001802 -0.000115 0
-0.001645 -0.000436 0
-0.001328 -0.000817 0
-0.000858 -0.001105 0
-0.000332 -0.000994 0
0.000000 -0.000395 0
0.000000 0.001330 0
-0.000357 0.002439 0
-0.000930 0.001577 0
-0.001370 0.000532 0
-0.001610 -0.000059 0
-0.001698 -0.000304 0
-0.001696 -0.000372 0
-0.001649 -0.000367 0
-0.001581 -0.000337 0
-0.001506 -0.000303 0
-0.001430 -0.000272 0
-0.001356 -0.000246 0
-0.001284 -0.000224 0
-0.001215 -0.000207 0
-0.001149 -0.000193 0
-0.001085 -0.000181 0
-0.001024 -0.000171 0
-0.000964 -0.000163 0
-0.000906 -0.000156 0
-0.000850 -0.000150 0
-0.000795 -0.000145 0
-0.000742 -0.000141 0
-0.000689 -0.000137 0
-0.000638 -0.000133 0
-0.000587 -0.000129 0
-0.000538 -0.000126 0
-0.000489 -0.000123 0
-0.000440 -0.000121 0
-0.000393 -0.000119 0
-0.000344 -0.000120 0
-0.000295 -0.000125 0
-0.000244 -0.000134 0
-0.000190 -0.000144 0
-0.000133 -0.000152 0
-0.000076 -0.000144 0
-0.000026 -0.000101 0
0.000000 -0.000034 0
0.000000 0.000000 0
0.000000 0.000000 0
0.000000 0.000000 0
0.000000 0.000143 0
-0.000064 0.000420 0
-0.000196 0.000583 0
-0.000354 0.000583 0
-0.000512 0.000502 0
-0.000654 0.000397 0
-0.000776 0.000302 0
-0.000876 0.000228 0
-0.000958 0.000174 0
-0.001026 0.000138 0
-0.001084 0.000113 0
-0.001135 0.000096 0
-0.001179 0.000084 0
-0.001219 0.000074 0
-0.001255 0.000067 0
-0.001287 0.000061 0
-0.001317 0.000055 0
-0.001344 0.000051 0
-0.001369 0.000046 0
-0.001392 0.000043 0
-0.001413 0.000039 0
-0.001432 0.000036 0
-0.001449 0.000034 0
-0.001465 0.000031 0
-0.001480 0.000029 0
-0.001493 0.000027 0
-0.001506 0.000025 0
-0.001518 0.000024 0
-0.001529 0.000022 0
-0.001540 0.000021 0
-0.001549 0.000019 0
-0.001558 0.000018 0
-0.001566 0.000017 0
-0.001574 0.000016 0
-0.001581 0.000015 0
-0.001588 0.000014 0
-0.001594 0.000012 0
-0.001599 0.000009 0
-0.001603 0.000004 0
-0.001605 -0.000003 0
-0.001604 -0.000011 0
-0.001601 -0.000020 0
-0.001596 -0.000028 0
-0.001589 -0.000030 0
-0.001582 -0.000022 0
-0.001580 0.000002 0
-0.001588 0.000046 0
-0.001610 0.000110 0
-0.001651 0.000185 0
-0.001712 0.000255 0
-0.001786 0.000290 0
-0.001853 0.000250 0
-0.001884 0.000091 0
-0.001835 -0.000222 0
-0.001660 -0.000688 0
-0.001327 -0.001225 0
-0.000849 -0.001613 0
-0.000324 -0.001427 0
0.000000 -0.000561 0
0.000000 0.001478 0
-0.000252 0.002849 0
-0.000731 0.002058 0
-0.001147 0.000880 0
-0.001408 0.000129 0
-0.001535 -0.000234 0
-0.001573 -0.000374 0
-0.001559 -0.000407 0
-0.001519 -0.000395 0
-0.001466 -0.000369 0
-0.001407 -0.000340 0
-0.001345 -0.000314 0
-0.001284 -0.000291 0
-0.001222 -0.000272 0
-0.001162 -0.000256 0
-0.001102 -0.000243 0
-0.001044 -0.000232 0
-0.000986 -0.000222 0
-0.000930 -0.000214 0
-0.000874 -0.000206 0
-0.000820 -0.000200 0
-0.000766 -0.000195 0
-0.000712 -0.000190 0
-0.000660 -0.000185 0
-0.000608 -0.000181 0
-0.000557 -0.000177 0
-0.000506 -0.000173 0
-0.000456 -0.000170 0
-0.000406 -0.000169 0
-0.000355 -0.000171 0
-0.000304 -0.000177 0
-0.000250 -0.000188 0
-0.000194 -0.000202 0
-0.000135 -0.000211 0
-0.000077 -0.000199 0
-0.000026 -0.000140 0
0.000000 -0.000047 0
0.000000 0.000000 0
0.000000 0.000000 0
0.000000 0.000000 0
0.000000 0.000169 0
-0.000042 0.000503 0
-0.000136 0.000712 0
-0.000257 0.000727 0
-0.000385 0.000642 0
-0.000506 0.000524 0
-0.000615 0.000412 0
-0.000710 0.000320 0
-0.000792 0.000252 0
-0.000863 0.000204 0
-0.000926 0.000171 0
-0.000982 0.000147 0
-0.001033 0.000130 0
-0.001080 0.000116 0
-0.001123 0.000105 0
-0.001163 0.000096 0
-0.001200 0.000087 0
-0.001234 0.000080 0
-0.001264 0.000073 0
-0.001293 0.000067 0
-0.001319 0.000061 0
-0.001342 0.000056 0
-0.001364 0.000052 0
-0.001383 0.000048 0
-0.001402 0.000045 0
-0.001418 0.000042 0
-0.001434 0.000039 0
-0.001449 0.000036 0
-0.001463 0.000034 0
-0.001476 0.000032 0
-0.001488 0.000030 0
-0.001499 0.000028 0
-0.001510 0.000026 0
-0.001520 0.000025 0
-0.001530 0.000023 0
-0.001539 0.000021 0
-0.001547 0.000019 0
-0.001554 0.000014 0
-0.001561 0.000008 0
-0.001566 -0.000001 0
-0.001569 -0.000011 0
-0.001571 -0.000023 0
-0.001569 -0.000032 0
-0.001567 -0.000035 0
-0.001565 -0.000025 0
-0.001565 0.000006 0
-0.001573 0.000060 0
-0.001594 0.000140 0
-0.001630 0.000233 0
-0.001682 0.000318 0
-0.001745 0.000355 0
-0.001801 0.000293 0
-0.001821 0.000075 0
-0.001765 -0.000339 0
-0.001589 -0.000944 0
-0.001264 -0.001629 0
-0.000804 -0.002109 0
-0.000305 -0.001843 0
0.000000 -0.000719 0
0.000000 0.001583 0
-0.000181 0.003171 0
-0.000576 0.002472 0
-0.000947 0.001208 0
-0.001199 0.000329 0
-0.001337 -0.000139 0
-0.001394 -0.000347 0
-0.001402 -0.000420 0
-0.001383 -0.000430 0
-0.001349 -0.000415 0
-0.001306 -0.000392 0
-0.001260 -0.000369 0
-0.001210 -0.000347 0
-0.001160 -0.000329 0
-0.001108 -0.000313 0
-0.001056 -0.000299 0
-0.001004 -0.000287 0
-0.000952 -0.000277 0
-0.000900 -0.000268 0
-0.000849 -0.000260 0
-0.000797 -0.000254 0
-0.000746 -0.000248 0
-0.000695 -0.000242 0
-0.000645 -0.000237 0
-0.000594 -0.000232 0
-0.000544 -0.000228 0
-0.000495 -0.000224 0
-0.000445 -0.000221 0
-0.000396 -0.000220 0
-0.000346 -0.000222 0
-0.000295 -0.000230 0
-0.000243 -0.000243 0
-0.000187 -0.000259 0
-0.000130 -0.000269 0
-0.000073 -0.000253 0
-0.000025 -0.000177 0
0.000000 -0.000060 0
0.000000 0.000000 0
0.000000 0.000000 0
0.000000 0.000000 0
0.000000 0.000184 0
-0.000021 0.000555 0
-0.000075 0.000798 0
-0.000151 0.000832 0
-0.000239 0.000751 0
-0.000330 0.000628 0
-0.000416 0.000506 0
-0.000496 0.000404 0
-0.000568 0.000327 0
-0.000635 0.000271 0
-0.000696 0.000232 0
-0.000753 0.000203 0
-0.000807 0.000181 0
-0.000858 0.000164 0
-0.000906 0.000150 0
-0.000952 0.000137 0
-0.000994 0.000126 0
-0.001034 0.000115 0
-0.001071 0.000105 0
-0.001105 0.000096 0
-0.001136 0.000088 0
-0.001164 0.000081 0
-0.001190 0.000075 0
-0.001213 0.000069 0
-0.001235 0.000064 0
-0.001254 0.000059 0
-0.001273 0.000056 0
-0.001290 0.000052 0
-0.001307 0.000049 0
-0.001323 0.000046 0
-0.001338 0.000043 0
-0.001353 0.000040 0
-0.001366 0.000038 0
-0.001379 0.000036 0
-0.001392 0.000034 0
-0.001404 0.000031 0
-0.001415 0.000028 0
-0.001426 0.000023 0
-0.001437 0.000016 0
-0.001446 0.000006 0
-0.001455 -0.000007 0
-0.001462 -0.000020 0
-0.001467 -0.000032 0
-0.001471 -0.000035 0
-0.001474 -0.000023 0
-0.001479 0.000011 0
-0.001489 0.000074 0
-0.001507 0.000166 0
-0.001538 0.000274 0
-0.001582 0.000370 0
-0.001633 0.000409 0
-0.001679 0.000326 0
-0.001691 0.000054 0
-0.001635 -0.000455 0
-0.001470 -0.001188 0
-0.001169 -0.002009 0
-0.000743 -0.002573 0
-0.000281 -0.002232 0
0.000000 -0.000866 0
0.000000 0.001659 0
-0.000132 0.003425 0
-0.000457 0.002824 0
-0.000780 0.001502 0
-0.001009 0.000519 0
-0.001141 -0.000039 0
-0.001201 -0.000309 0
-0.001219 -0.000418 0
-0.001211 -0.000449 0
-0.001190 -0.000445 0
-0.001162 -0.000429 0
-0.001128 -0.000409 0
-0.001091 -0.000391 0
-0.001052 -0.000374 0
-0.001010 -0.000360 0
-0.000968 -0.000347 0
-0.000924 -0.000335 0
-0.000879 -0.000326 0
-0.000833 -0.000317 0
-0.000787 -0.000309 0
-0.000741 -0.000303 0
-0.000695 -0.000297 0
-0.000648 -0.000291 0
-0.000602 -0.000286 0
-0.000555 -0.000281 0
-0.000509 -0.000276 0
-0.000462 -0.000272 0
-0.000416 -0.000269 0
-0.000370 -0.000268 0
-0.000323 -0.000271 0
-0.000275 -0.000280 0
-0.000225 -0.000296 0
-0.000173 -0.000314 0
-0.000119 -0.000325 0
-0.000066 -0.000304 0
-0.000022 -0.000212 0
0.000000 -0.000071 0
0.000000 0.000000 0
0.000000 0.000000 0
0.000000 0.000000 0
0.000000 0.000189 0
-0.000003 0.000577 0
-0.000019 0.000842 0
-0.000051 0.000892 0
-0.000097 0.000821 0
-0.000150 0.000701 0
-0.000207 0.000577 0
-0.000264 0.000472 0
-0.000321 0.000391 0
-0.000376 0.000332 0
-0.000430 0.000289 0
-0.000484 0.000258 0
-0.000536 0.000235 0
-0.000588 0.000215 0
-0.000639 0.000199 0
-0.000688 0.000184 0
-0.000736 0.000169 0
-0.000781 0.000156 0
-0.000823 0.000143 0
-0.000863 0.000131 0
-0.000899 0.000120 0
-0.000932 0.000110 0
-0.000962 0.000101 0
-0.000989 0.000093 0
-0.001014 0.000086 0
-0.001036 0.000080 0
-0.001057 0.000075 0
-0.001078 0.000070 0
-0.001097 0.000066 0
-0.001116 0.000062 0
-0.001134 0.000059 0
-0.001151 0.000056 0
-0.001168 0.000053 0
-0.001185 0.000050 0
-0.001201 0.000048 0
-0.001217 0.000045 0
-0.001232 0.000041 0
-0.001247 0.000036 0
-0.001262 0.000028 0
-0.001277 0.000017 0
-0.001291 0.000004 0
-0.001305 -0.000011 0
-0.001317 -0.000024 0
-0.001328 -0.000028 0
-0.001339 -0.000017 0
-0.001349 0.000020 0
-0.001361 0.000088 0
-0.001379 0.000189 0
-0.001404 0.000308 0
-0.001440 0.000413 0
-0.001481 0.000452 0
-0.001516 0.000351 0
-0.001524 0.000031 0
-0.001472 -0.000561 0
-0.001325 -0.001410 0
-0.001057 -0.002355 0
-0.000674 -0.002997 0
-0.000256 -0.002587 0
0.000000 -0.001000 0
0.000000 0.001715 0
-0.000097 0.003629 0
-0.000366 0.003121 0
-0.000644 0.001760 0
-0.000846 0.000690 0
-0.000963 0.000054 0
-0.001018 -0.000269 0
-0.001035 -0.000410 0
-0.001032 -0.000458 0
-0.001019 -0.000464 0
-0.000999 -0.000454 0
-0.000976 -0.000439 0
-0.000949 -0.000423 0
-0.000920 -0.000409 0
-0.000888 -0.000397 0
-0.000854 -0.000386 0
-0.000818 -0.000376 0
-0.000781 -0.000367 0
-0.000743 -0.000359 0
-0.000703 -0.000352 0
-0.000663 -0.000346 0
-0.000623 -0.000340 0
-0.000582 -0.000335 0
-0.000540 -0.000330 0
-0.000499 -0.000325 0
-0.000457 -0.000320 0
-0.000415 -0.000316 0
-0.000373 -0.000313 0
-0.000331 -0.000313 0
-0.000289 -0.000317 0
-0.000245 -0.000327 0
-0.000200 -0.000345 0
-0.000153 -0.000365 0
-0.000104 -0.000376 0
-0.000057 -0.000350 0
-0.000019 -0.000243 0
0.000000 -0.000081 0
0.000000 0.000000 0
0.000000 0.000000 0
0.000000 0.000000 0
0.000000 0.000187 0
0.000011 0.000574 0
0.000027 0.000847 0
0.000035 0.000909 0
0.000031 0.000850 0
0.000016 0.000739 0
-0.000009 0.000620 0
-0.000040 0.000518 0
-0.000076 0.000439 0
-0.000116 0.000381 0
-0.000159 0.000339 0
-0.000204 0.000309 0
-0.000251 0.000286 0
-0.000300 0.000266 0
-0.000350 0.000249 0
-0.000400 0.000233 0
-0.000450 0.000218 0
-0.000500 0.000202 0
-0.000547 0.000187 0
-0.000592 0.000172 0
-0.000635 0.000158 0
-0.000673 0.000144 0
-0.000708 0.000131 0
-0.000739 0.000120 0
-0.000767 0.000111 0
-0.000792 0.000103 0
-0.000816 0.000097 0
-0.000838 0.000091 0
-0.000860 0.000086 0
-0.000881 0.000082 0
-0.000902 0.000078 0
-0.000922 0.000075 0
-0.000943 0.000071 0
-0.000963 0.000068 0
-0.000983 0.000065 0
-0.001002 0.000062 0
-0.001022 0.000058 0
-0.001041 0.000053 0
-0.001061 0.000045 0
-0.001081 0.000035 0
-0.001101 0.000021 0
-0.001121 0.000006 0
-0.001141 -0.000008 0
-0.001160 -0.000014 0
-0.001177 -0.000003 0
-0.001193 0.000033 0
-0.001209 0.000104 0
-0.001226 0.000209 0
-0.001248 0.000335 0
-0.001275 0.000447 0
-0.001306 0.000485 0
-0.001333 0.000369 0
-0.001338 0.000010 0
-0.001293 -0.000654 0
-0.001168 -0.001604 0
-0.000937 -0.002660 0
-0.000602 -0.003374 0
-0.000230 -0.002906 0
0.000000 -0.001122 0
0.000000 0.001757 0
-0.000072 0.003792 0
-0.000296 0.003372 0
-0.000536 0.001983 0
-0.000711 0.000839 0
-0.000811 0.000133 0
-0.000856 -0.000236 0
-0.000867 -0.000404 0
-0.000863 -0.000465 0
-0.000852 -0.000478 0
-0.000838 -0.000471 0
-0.000821 -0.000459 0
-0.000802 -0.000447 0
-0.000781 -0.000435 0
-0.000757 -0.000425 0
-0.000731 -0.000416 0
-0.000702 -0.000408 0
-0.000672 -0.000401 0
-0.000641 -0.000394 0
-0.000608 -0.000388 0
-0.000575 -0.000383 0
-0.000540 -0.000378 0
-0.000505 -0.000373 0
-0.000469 -0.000369 0
-0.000433 -0.000364 0
-0.000396 -0.000360 0
-0.000360 -0.000355 0
-0.000323 -0.000352 0
-0.000286 -0.000352 0
-0.000249 -0.000357 0
-0.000210 -0.000369 0
-0.000171 -0.000388 0
-0.000130 -0.000410 0
-0.000088 -0.000420 0
-0.000047 -0.000389 0
-0.000015 -0.000269 0
0.000000 -0.000090 0
0.000000 0.000000 0
0.000000 0.000000 0
0.000000 0.000000 0
0.000000 0.000178 0
0.000021 0.000550 0
0.000062 0.000818 0
0.000104 0.000887 0