# vtk DataFile Version 2.0
generated by CFD-lab course output (written by Tobias Neckel) 
ASCII

DATASET STRUCTURED_GRID
DIMENSIONS  99 49 1 
POINTS 4851 float

0.000000 0.000000 0
0.020000 0.000000 0
0.040000 0.000000 0
0.060000 0.000000 0
0.080000 0.000000 0
0.100000 0.000000 0
0.120000 0.000000 0
0.140000 0.000000 0
0.160000 0.000000 0
0.180000 0.000000 0
0.200000 0.000000 0
0.220000 0.000000 0
0.240000 0.000000 0
0.260000 0.000000 0
0.280000 0.000000 0
0.300000 0.000000 0
0.320000 0.000000 0
0.340000 0.000000 0
0.360000 0.000000 0
0.380000 0.000000 0
0.400000 0.000000 0
0.420000 0.000000 0
0.440000 0.000000 0
0.460000 0.000000 0
0.480000 0.000000 0
0.500000 0.000000 0
0.520000 0.000000 0
0.540000 0.000000 0
0.560000 0.000000 0
0.580000 0.000000 0
0.600000 0.000000 0
0.620000 0.000000 0
0.640000 0.000000 0
0.660000 0.000000 0
0.680000 0.000000 0
0.700000 0.000000 0
0.720000 0.000000 0
0.740000 0.000000 0
0.760000 0.000000 0
0.780000 0.000000 0
0.800000 0.000000 0
0.820000 0.000000 0
0.840000 0.000000 0
0.860000 0.000000 0
0.880000 0.000000 0
0.900000 0.000000 0
0.920000 0.000000 0
0.940000 0.000000 0
0.960000 0.000000 0
0.980000 0.000000 0
1.000000 0.000000 0
1.020000 0.000000 0
1.040000 0.000000 0
1.060000 0.000000 0
1.080000 0.000000 0
1.100000 0.000000 0
1.120000 0.000000 0
1.140000 0.000000 0
1.160000 0.000000 0
1.180000 0.000000 0
1.200000 0.000000 0
1.220000 0.000000 0
1.240000 0.000000 0
1.260000 0.000000 0
1.280000 0.000000 0
1.300000 0.000000 0
1.320000 0.000000 0
1.340000 0.000000 0
1.360000 0.000000 0
1.380000 0.000000 0
1.400000 0.000000 0
1.420000 0.000000 0
1.440000 0.000000 0
1.460000 0.000000 0
1.480000 0.000000 0
1.500000 0.000000 0
1.520000 0.000000 0
1.540000 0.000000 0
1.560000 0.000000 0
1.580000 0.000000 0
1.600000 0.000000 0
1.620000 0.000000 0
1.640000 0.000000 0
1.660000 0.000000 0
1.680000 0.000000 0
1.700000 0.000000 0
1.720000 0.000000 0
1.740000 0.000000 0
1.760000 0.000000 0
1.780000 0.000000 0
1.800000 0.000000 0
1.820000 0.000000 0
1.840000 0.000000 0
1.860000 0.000000 0
1.880000 0.000000 0
1.900000 0.000000 0
1.920000 0.000000 0
1.940000 0.000000 0
1.960000 0.000000 0
0.000000 0.020000 0
0.020000 0.020000 0
0.040000 0.020000 0
0.060000 0.020000 0
0.080000 0.020000 0
0.100000 0.020000 0
0.120000 0.020000 0
0.140000 0.020000 0
0.160000 0.020000 0
0.180000 0.020000 0
0.200000 0.020000 0
0.220000 0.020000 0
0.240000 0.020000 0
0.260000 0.020000 0
0.280000 0.020000 0
0.300000 0.020000 0
0.320000 0.020000 0
0.340000 0.020000 0
0.360000 0.020000 0
0.380000 0.020000 0
0.400000 0.020000 0
0.420000 0.020000 0
0.440000 0.020000 0
0.460000 0.020000 0
0.480000 0.020000 0
0.500000 0.020000 0
0.520000 0.020000 0
0.540000 0.020000 0
0.560000 0.020000 0
0.580000 0.020000 0
0.600000 0.020000 0
0.620000 0.020000 0
0.640000 0.020000 0
0.660000 0.020000 0
0.680000 0.020000 0
0.700000 0.020000 0
0.720000 0.020000 0
0.740000 0.020000 0
0.760000 0.020000 0
0.780000 0.020000 0
0.800000 0.020000 0
0.820000 0.020000 0
0.840000 0.020000 0
0.860000 0.020000 0
0.880000 0.020000 0
0.900000 0.020000 0
0.920000 0.020000 0
0.940000 0.020000 0
0.960000 0.020000 0
0.980000 0.020000 0
1.000000 0.020000 0
1.020000 0.020000 0
1.040000 0.020000 0
1.060000 0.020000 0
1.080000 0.020000 0
1.100000 0.020000 0
1.120000 0.020000 0
1.140000 0.020000 0
1.160000 0.020000 0
1.180000 0.020000 0
1.200000 0.020000 0
1.220000 0.020000 0
1.240000 0.020000 0
1.260000 0.020000 0
1.280000 0.020000 0
1.300000 0.020000 0
1.320000 0.020000 0
1.340000 0.020000 0
1.360000 0.020000 0
1.380000 0.020000 0
1.400000 0.020000 0
1.420000 0.020000 0
1.440000 0.020000 0
1.460000 0.020000 0
1.480000 0.020000 0
1.500000 0.020000 0
1.520000 0.020000 0
1.540000 0.020000 0
1.560000 0.020000 0
1.580000 0.020000 0
1.600000 0.020000 0
1.620000 0.020000 0
1.640000 0.020000 0
1.660000 0.020000 0
1.680000 0.020000 0
1.700000 0.020000 0
1.720000 0.020000 0
1.740000 0.020000 0
1.760000 0.020000 0
1.780000 0.020000 0
1.800000 0.020000 0
1.820000 0.020000 0
1.840000 0.020000 0
1.860000 0.020000 0
1.880000 0.020000 0
1.900000 0.020000 0
1.920000 0.020000 0
1.940000 0.020000 0
1.960000 0.020000 0
0.000000 0.040000 0
0.020000 0.040000 0
0.040000 0.040000 0
0.060000 0.040000 0
0.080000 0.040000 0
0.100000 0.040000 0
0.120000 0.040000 0
0.140000 0.040000 0
0.160000 0.040000 0
0.180000 0.040000 0
0.200000 0.040000 0
0.220000 0.040000 0
0.240000 0.040000 0
0.260000 0.040000 0
0.280000 0.040000 0
0.300000 0.040000 0
0.320000 0.040000 0
0.340000 0.040000 0
0.360000 0.040000 0
0.380000 0.040000 0
0.400000 0.040000 0
0.420000 0.040000 0
0.440000 0.040000 0
0.460000 0.040000 0
0.480000 0.040000 0
0.500000 0.040000 0
0.520000 0.040000 0
0.540000 0.040000 0
0.560000 0.040000 0
0.580000 0.040000 0
0.600000 0.040000 0
0.620000 0.040000 0
0.640000 0.040000 0
0.660000 0.040000 0
0.680000 0.040000 0
0.700000 0.040000 0
0.720000 0.040000 0
0.740000 0.040000 0
0.760000 0.040000 0
0.780000 0.040000 0
0.800000 0.040000 0
0.820000 0.040000 0
0.840000 0.040000 0
0.860000 0.040000 0
0.880000 0.040000 0
0.900000 0.040000 0
0.920000 0.040000 0
0.940000 0.040000 0
0.960000 0.040000 0
0.980000 0.040000 0
1.000000 0.040000 0
1.020000 0.040000 0
1.040000 0.040000 0
1.060000 0.040000 0
1.080000 0.040000 0
1.100000 0.040000 0
1.120000 0.040000 0
1.140000 0.040000 0
1.160000 0.040000 0
1.180000 0.040000 0
1.200000 0.040000 0
1.220000 0.040000 0
1.240000 0.040000 0
1.260000 0.040000 0
1.280000 0.040000 0
1.300000 0.040000 0
1.320000 0.040000 0
1.340000 0.040000 0
1.360000 0.040000 0
1.380000 0.040000 0
1.400000 0.040000 0
1.420000 0.040000 0
1.440000 0.040000 0
1.460000 0.040000 0
1.480000 0.040000 0
1.500000 0.040000 0
1.520000 0.040000 0
1.540000 0.040000 0
1.560000 0.040000 0
1.580000 0.040000 0
1.600000 0.040000 0
1.620000 0.040000 0
1.640000 0.040000 0
1.660000 0.040000 0
1.680000 0.040000 0
1.700000 0.040000 0
1.720000 0.040000 0
1.740000 0.040000 0
1.760000 0.040000 0
1.780000 0.040000 0
1.800000 0.040000 0
1.820000 0.040000 0
1.840000 0.040000 0
1.860000 0.040000 0
1.880000 0.040000 0
1.900000 0.040000 0
1.920000 0.040000 0
1.940000 0.040000 0
1.960000 0.040000 0
0.000000 0.060000 0
0.020000 0.060000 0
0.040000 0.060000 0
0.060000 0.060000 0
0.080000 0.060000 0
0.100000 0.060000 0
0.120000 0.060000 0
0.140000 0.060000 0
0.160000 0.060000 0
0.180000 0.060000 0
0.200000 0.060000 0
0.220000 0.060000 0
0.240000 0.060000 0
0.260000 0.060000 0
0.280000 0.060000 0
0.300000 0.060000 0
0.320000 0.060000 0
0.340000 0.060000 0
0.360000 0.060000 0
0.380000 0.060000 0
0.400000 0.060000 0
0.420000 0.060000 0
0.440000 0.060000 0
0.460000 0.060000 0
0.480000 0.060000 0
0.500000 0.060000 0
0.520000 0.060000 0
0.540000 0.060000 0
0.560000 0.060000 0
0.580000 0.060000 0
0.600000 0.060000 0
0.620000 0.060000 0
0.640000 0.060000 0
0.660000 0.060000 0
0.680000 0.060000 0
0.700000 0.060000 0
0.720000 0.060000 0
0.740000 0.060000 0
0.760000 0.060000 0
0.780000 0.060000 0
0.800000 0.060000 0
0.820000 0.060000 0
0.840000 0.060000 0
0.860000 0.060000 0
0.880000 0.060000 0
0.900000 0.060000 0
0.920000 0.060000 0
0.940000 0.060000 0
0.960000 0.060000 0
0.980000 0.060000 0
1.000000 0.060000 0
1.020000 0.060000 0
1.040000 0.060000 0
1.060000 0.060000 0
1.080000 0.060000 0
1.100000 0.060000 0
1.120000 0.060000 0
1.140000 0.060000 0
1.160000 0.060000 0
1.180000 0.060000 0
1.200000 0.060000 0
1.220000 0.060000 0
1.240000 0.060000 0
1.260000 0.060000 0
1.280000 0.060000 0
1.300000 0.060000 0
1.320000 0.060000 0
1.340000 0.060000 0
1.360000 0.060000 0
1.380000 0.060000 0
1.400000 0.060000 0
1.420000 0.060000 0
1.440000 0.060000 0
1.460000 0.060000 0
1.480000 0.060000 0
1.500000 0.060000 0
1.520000 0.060000 0
1.540000 0.060000 0
1.560000 0.060000 0
1.580000 0.060000 0
1.600000 0.060000 0
1.620000 0.060000 0
1.640000 0.060000 0
1.660000 0.060000 0
1.680000 0.060000 0
1.700000 0.060000 0
1.720000 0.060000 0
1.740000 0.060000 0
1.760000 0.060000 0
1.780000 0.060000 0
1.800000 0.060000 0
1.820000 0.060000 0
1.840000 0.060000 0
1.860000 0.060000 0
1.880000 0.060000 0
1.900000 0.060000 0
1.920000 0.060000 0
1.940000 0.060000 0
1.960000 0.060000 0
0.000000 0.080000 0
0.020000 0.080000 0
0.040000 0.080000 0
0.060000 0.080000 0
0.080000 0.080000 0
0.100000 0.080000 0
0.120000 0.080000 0
0.140000 0.080000 0
0.160000 0.080000 0
0.180000 0.080000 0
0.200000 0.080000 0
0.220000 0.080000 0
0.240000 0.080000 0
0.260000 0.080000 0
0.280000 0.080000 0
0.300000 0.080000 0
0.320000 0.080000 0
0.340000 0.080000 0
0.360000 0.080000 0
0.380000 0.080000 0
0.400000 0.080000 0
0.420000 0.080000 0
0.440000 0.080000 0
0.460000 0.080000 0
0.480000 0.080000 0
0.500000 0.080000 0
0.520000 0.080000 0
0.540000 0.080000 0
0.560000 0.080000 0
0.580000 0.080000 0
0.600000 0.080000 0
0.620000 0.080000 0
0.640000 0.080000 0
0.660000 0.080000 0
0.680000 0.080000 0
0.700000 0.080000 0
0.720000 0.080000 0
0.740000 0.080000 0
0.760000 0.080000 0
0.780000 0.080000 0
0.800000 0.080000 0
0.820000 0.080000 0
0.840000 0.080000 0
0.860000 0.080000 0
0.880000 0.080000 0
0.900000 0.080000 0
0.920000 0.080000 0
0.940000 0.080000 0
0.960000 0.080000 0
0.980000 0.080000 0
1.000000 0.080000 0
1.020000 0.080000 0
1.040000 0.080000 0
1.060000 0.080000 0
1.080000 0.080000 0
1.100000 0.080000 0
1.120000 0.080000 0
1.140000 0.080000 0
1.160000 0.080000 0
1.180000 0.080000 0
1.200000 0.080000 0
1.220000 0.080000 0
1.240000 0.080000 0
1.260000 0.080000 0
1.280000 0.080000 0
1.300000 0.080000 0
1.320000 0.080000 0
1.340000 0.080000 0
1.360000 0.080000 0
1.380000 0.080000 0
1.400000 0.080000 0
1.420000 0.080000 0
1.440000 0.080000 0
1.460000 0.080000 0
1.480000 0.080000 0
1.500000 0.080000 0
1.520000 0.080000 0
1.540000 0.080000 0
1.560000 0.080000 0
1.580000 0.080000 0
1.600000 0.080000 0
1.620000 0.080000 0
1.640000 0.080000 0
1.660000 0.080000 0
1.680000 0.080000 0
1.700000 0.080000 0
1.720000 0.080000 0
1.740000 0.080000 0
1.760000 0.080000 0
1.780000 0.080000 0
1.800000 0.080000 0
1.820000 0.080000 0
1.840000 0.080000 0
1.860000 0.080000 0
1.880000 0.080000 0
[...]
POINT_DATA 4851 

VECTORS velocity float
0.000000 0.000000 0
-0.000456 0.000000 0
-0.000596 0.000000 0
-0.000544 0.000000 0
-0.000453 0.000000 0
-0.000373 0.000000 0
-0.000311 0.000000 0
-0.000265 0.000000 0
-0.000229 0.000000 0
-0.000200 0.000000 0
-0.000177 0.000000 0
-0.000159 0.000000 0
-0.000143 0.000000 0
-0.000130 0.000000 0
-0.000119 0.000000 0
-0.000109 0.000000 0
-0.000101 0.000000 0
-0.000093 0.000000 0
-0.000087 0.000000 0
-0.000081 0.000000 0
-0.000075 0.000000 0
-0.000069 0.000000 0
-0.000064 0.000000 0
-0.000058 0.000000 0
-0.000052 0.000000 0
-0.000046 0.000000 0
-0.000040 0.000000 0
-0.000034 0.000000 0
-0.000027 0.000000 0
-0.000021 0.000000 0
-0.000015 0.000000 0
-0.000009 0.000000 0
-0.000005 0.000000 0
-0.000001 0.000000 0
0.000000 0.000000 0
0.000001 0.000000 0
0.000000 0.000000 0
0.000000 0.000000 0
0.000000 0.000000 0
0.000000 0.000000 0
0.000000 0.000000 0
-0.000075 0.000000 0
-0.000189 0.000000 0
-0.000277 0.000000 0
-0.000327 0.000000 0
-0.000350 0.000000 0
-0.000359 0.000000 0
-0.000362 0.000000 0
-0.000363 0.000000 0
-0.000362 0.000000 0
-0.000362 0.000000 0
-0.000361 0.000000 0
-0.000360 0.000000 0
-0.000359 0.000000 0
-0.000359 0.000000 0
-0.000358 0.000000 0
-0.000357 0.000000 0
-0.000357 0.000000 0
-0.000356 0.000000 0
-0.000356 0.000000 0
-0.000355 0.000000 0
-0.000355 0.000000 0
-0.000354 0.000000 0
-0.000354 0.000000 0
-0.000353 0.000000 0
-0.000352 0.000000 0
-0.000350 0.000000 0
-0.000349 0.000000 0
-0.000348 0.000000 0
-0.000346 0.000000 0
-0.000345 0.000000 0
-0.000345 0.000000 0
-0.000345 0.000000 0
-0.000346 0.000000 0
-0.000349 0.000000 0
-0.000352 0.000000 0
-0.000355 0.000000 0
-0.000359 0.000000 0
-0.000361 0.000000 0
-0.000361 0.000000 0
-0.000359 0.000000 0
-0.000352 0.000000 0
-0.000342 0.000000 0
-0.000329 0.000000 0
-0.000316 0.000000 0
-0.000307 0.000000 0
-0.000307 0.000000 0
-0.000322 0.000000 0
-0.000356 0.000000 0
-0.000412 0.000000 0
-0.000490 0.000000 0
-0.000581 0.000000 0
-0.000670 0.000000 0
-0.000733 0.000000 0
-0.000739 0.000000 0
-0.000654 0.000000 0
-0.000458 0.000000 0
-0.000190 0.000000 0
0.000000 0.000000 0
0.000000 0.000457 0
-0.000914 0.000597 0
-0.001400 0.000088 0
-0.001453 -0.000143 0
-0.001334 -0.000170 0
-0.001179 -0.000141 0
-0.001033 -0.000108 0
-0.000908 -0.000082 0
-0.000802 -0.000064 0
-0.000715 -0.000051 0
-0.000641 -0.000041 0
-0.000578 -0.000034 0
-0.000526 -0.000028 0
-0.000480 -0.000024 0
-0.000441 -0.000020 0
-0.000407 -0.000017 0
-0.000377 -0.000015 0
-0.000350 -0.000014 0
-0.000325 -0.000012 0
-0.000302 -0.000011 0
-0.000281 -0.000011 0
-0.000260 -0.000011 0
-0.000239 -0.000011 0
-0.000218 -0.000011 0
-0.000197 -0.000011 0
-0.000175 -0.000012 0
-0.000152 -0.000012 0
-0.000129 -0.000012 0
-0.000105 -0.000012 0
-0.000082 -0.000012 0
-0.000060 -0.000011 0
-0.000040 -0.000010 0
-0.000023 -0.000007 0
-0.000011 -0.000005 0
-0.000003 -0.000002 0
0.000000 0.000001 0
0.000000 0.000001 0
0.000000 0.000000 0
0.000000 0.000000 0
0.000000 0.000000 0
0.000000 0.000074 0
-0.000198 0.000188 0
-0.000505 0.000201 0
-0.000764 0.000137 0
-0.000936 0.000073 0
-0.001035 0.000032 0
-0.001089 0.000012 0
-0.001119 0.000003 0
-0.001135 -0.000001 0
-0.001144 -0.000002 0
-0.001150 -0.000002 0
-0.001154 -0.000002 0
-0.001157 -0.000002 0
-0.001159 -0.000002 0
-0.001161 -0.000002 0
-0.001162 -0.000002 0
-0.001163 -0.000002 0
-0.001164 -0.000002 0
-0.001165 -0.000001 0
-0.001166 -0.000001 0
-0.001166 -0.000001 0
-0.001166 -0.000002 0
-0.001166 -0.000002 0
-0.001165 -0.000002 0
-0.001163 -0.000002 0
-0.001161 -0.000003 0
-0.001158 -0.000003 0
-0.001154 -0.000003 0
-0.001150 -0.000003 0
-0.001147 -0.000003 0
-0.001144 -0.000002 0
-0.001144 -0.000001 0
-0.001146 0.000001 0
-0.001150 0.000003 0
-0.001158 0.000005 0
-0.001167 0.000006 0
-0.001178 0.000006 0
-0.001187 0.000005 0
-0.001193 0.000002 0
-0.001192 -0.000003 0
-0.001181 -0.000010 0
-0.001160 -0.000017 0
-0.001129 -0.000024 0
-0.001092 -0.000027 0
-0.001058 -0.000023 0
-0.001040 -0.000010 0
-0.001053 0.000014 0
-0.001113 0.000049 0
-0.001231 0.000090 0
-0.001410 0.000133 0
-0.001640 0.000168 0
-0.001892 0.000179 0
-0.002116 0.000152 0
-0.002241 0.000069 0
-0.002183 -0.000080 0
-0.001865 -0.000282 0
-0.001268 -0.000464 0
-0.000516 -0.000459 0
0.000000 -0.000191 0
0.000000 0.000914 0
-0.000808 0.001401 0
-0.001547 0.000540 0
-0.001871 -0.000065 0
-0.001911 -0.000273 0
-0.001818 -0.000300 0
-0.001676 -0.000271 0
-0.001526 -0.000230 0
-0.001384 -0.000193 0
-0.001255 -0.000161 0
-0.001142 -0.000135 0
-0.001042 -0.000115 0
-0.000955 -0.000098 0
-0.000878 -0.000084 0
-0.000811 -0.000073 0
-0.000751 -0.000064 0
-0.000697 -0.000057 0
-0.000649 -0.000051 0
-0.000605 -0.000047 0
-0.000563 -0.000044 0
-0.000524 -0.000042 0
-0.000485 -0.000041 0
-0.000447 -0.000041 0
-0.000409 -0.000042 0
-0.000370 -0.000043 0
-0.000329 -0.000044 0
-0.000288 -0.000045 0
-0.000246 -0.000046 0
-0.000203 -0.000046 0
-0.000161 -0.000045 0
-0.000121 -0.000041 0
-0.000085 -0.000036 0
-0.000053 -0.000029 0
-0.000028 -0.000020 0
-0.000011 -0.000010 0
-0.000002 -0.000002 0
0.000000 0.000001 0
0.000000 0.000000 0
0.000000 0.000000 0
0.000000 0.000000 0
0.000000 0.000197 0
-0.000240 0.000504 0
-0.000633 0.000566 0
-0.001000 0.000430 0
-0.001277 0.000270 0
-0.001464 0.000153 0
-0.001584 0.000083 0
-0.001659 0.000044 0
-0.001709 0.000025 0
-0.001743 0.000015 0
-0.001769 0.000009 0
-0.001788 0.000006 0
-0.001804 0.000004 0
-0.001817 0.000003 0
-0.001828 0.000002 0
-0.001838 0.000002 0
-0.001847 0.000001 0
-0.001854 0.000001 0
-0.001861 0.000001 0
-0.001867 0.000000 0
-0.001871 -0.000000 0
-0.001875 -0.000001 0
-0.001878 -0.000002 0
-0.001879 -0.000003 0
-0.001879 -0.000005 0
-0.001877 -0.000006 0
-0.001875 -0.000007 0
-0.001871 -0.000008 0
-0.001867 -0.000008 0
-0.001864 -0.000006 0
-0.001863 -0.000004 0
-0.001864 0.000000 0
-0.001868 0.000006 0
-0.001877 0.000011 0
-0.001890 0.000016 0
-0.001905 0.000019 0
-0.001921 0.000019 0
-0.001934 0.000014 0
-0.001941 0.000004 0
-0.001937 -0.000012 0
-0.001920 -0.000032 0
-0.001888 -0.000053 0
-0.001843 -0.000069 0
-0.001795 -0.000072 0
-0.001756 -0.000053 0
-0.001745 -0.000006 0
-0.001786 0.000072 0
-0.001896 0.000177 0
-0.002089 0.000296 0
-0.002362 0.000408 0
-0.002690 0.000481 0
-0.003021 0.000475 0
-0.003279 0.000348 0
-0.003361 0.000067 0
-0.003164 -0.000376 0
-0.002610 -0.000916 0
-0.001716 -0.001350 0
-0.000677 -0.001269 0
0.000000 -0.000517 0
0.000000 0.001265 0
-0.000614 0.002144 0
-0.001382 0.001151 0
-0.001868 0.000222 0
-0.002071 -0.000223 0
-0.002091 -0.000376 0
-0.002016 -0.000400 0
-0.001897 -0.000374 0
-0.001765 -0.000334 0
-0.001632 -0.000292 0
-0.001506 -0.000254 0
-0.001391 -0.000221 0
-0.001286 -0.000192 0
-0.001192 -0.000168 0
-0.001107 -0.000147 0
-0.001030 -0.000131 0
-0.000960 -0.000117 0
-0.000897 -0.000106 0
-0.000837 -0.000098 0
-0.000782 -0.000092 0
-0.000728 -0.000089 0
-0.000676 -0.000087 0
-0.000624 -0.000087 0
-0.000572 -0.000088 0
-0.000519 -0.000091 0
-0.000464 -0.000093 0
-0.000408 -0.000096 0
-0.000351 -0.000097 0
-0.000293 -0.000097 0
-0.000235 -0.000094 0
-0.000181 -0.000087 0
-0.000130 -0.000077 0
-0.000085 -0.000064 0
-0.000048 -0.000046 0
-0.000021 -0.000028 0
-0.000005 -0.000010 0
0.000000 -0.000001 0
0.000000 0.000000 0
0.000000 0.000000 0
0.000000 0.000000 0
0.000000 0.000314 0
-0.000207 0.000821 0
-0.000577 0.000961 0
-0.000954 0.000781 0
-0.001267 0.000536 0
-0.001500 0.000338 0
-0.001664 0.000207 0
-0.001780 0.000128 0
-0.001864 0.000083 0
-0.001926 0.000057 0
-0.001975 0.000042 0
-0.002016 0.000033 0
-0.002050 0.000027 0
-0.002079 0.000022 0
-0.002105 0.000019 0
-0.002128 0.000016 0
-0.002148 0.000014 0
-0.002166 0.000012 0
-0.002182 0.000011 0
-0.002196 0.000009 0
-0.002209 0.000007 0
-0.002219 0.000004 0
-0.002228 0.000002 0
-0.002234 -0.000001 0
-0.002239 -0.000004 0
-0.002242 -0.000007 0
-0.002243 -0.000010 0
-0.002243 -0.000011 0
-0.002243 -0.000010 0
-0.002243 -0.000008 0
-0.002245 -0.000003 0
-0.002250 0.000005 0
-0.002258 0.000014 0
-0.002271 0.000024 0
-0.002288 0.000032 0
-0.002308 0.000037 0
-0.002328 0.000035 0
-0.002345 0.000025 0
-0.002354 0.000005 0
-0.002351 -0.000024 0
-0.002334 -0.000060 0
-0.002302 -0.000094 0
-0.002258 -0.000117 0
-0.002214 -0.000115 0
-0.002185 -0.000073 0
-0.002191 0.000020 0
-0.002256 0.000165 0
-0.002397 0.000352 0
-0.002624 0.000556 0
-0.002926 0.000733 0
-0.003270 0.000827 0
-0.003592 0.000768 0
-0.003805 0.000492 0
-0.003805 -0.000046 0
-0.003490 -0.000832 0
-0.002805 -0.001731 0
-0.001796 -0.002397 0
-0.000688 -0.002174 0
0.000000 -0.000868 0
0.000000 0.001529 0
-0.000470 0.002783 0
-0.001183 0.001794 0
-0.001730 0.000624 0
-0.002037 -0.000049 0
-0.002156 -0.000355 0
-0.002156 -0.000465 0
-0.002088 -0.000482 0
-0.001986 -0.000458 0
-0.001870 -0.000419 0
-0.001751 -0.000376 0
-0.001636 -0.000335 0
-0.001527 -0.000297 0
-0.001425 -0.000263 0
-0.001332 -0.000234 0
-0.001246 -0.000210 0
-0.001167 -0.000190 0
-0.001093 -0.000174 0
-0.001024 -0.000161 0
-0.000959 -0.000153 0
-0.000896 -0.000147 0
-0.000834 -0.000145 0
-0.000772 -0.000145 0
-0.000710 -0.000147 0
-0.000646 -0.000151 0
-0.000581 -0.000155 0
-0.000513 -0.000159 0
-0.000444 -0.000161 0
-0.000374 -0.000161 0
-0.000304 -0.000156 0
-0.000237 -0.000147 0
-0.000173 -0.000132 0
-0.000116 -0.000110 0
-0.000068 -0.000083 0
-0.000032 -0.000053 0
-0.000008 -0.000023 0
0.000000 -0.000004 0
0.000000 0.000000 0
0.000000 0.000000 0
0.000000 0.000000 0
0.000000 0.000403 0
-0.000146 0.001080 0
-0.000440 0.001313 0
-0.000768 0.001120 0
-0.001062 0.000815 0
-0.001299 0.000550 0
-0.001480 0.000363 0
-0.001617 0.000243 0
-0.001723 0.000170 0
-0.001808 0.000126 0
-0.001879 0.000099 0
-0.001940 0.000080 0
-0.001994 0.000068 0
-0.002042 0.000058 0
-0.002084 0.000051 0
-0.002123 0.000045 0
-0.002157 0.000040 0
-0.002188 0.000035 0
-0.002217 0.000031 0
-0.002242 0.000027 0
-0.002264 0.000022 0
-0.002284 0.000018 0
-0.002301 0.000013 0
-0.002316 0.000008 0
-0.002328 0.000002 0
-0.002338 -0.000003 0
-0.002345 -0.000006 0
-0.002352 -0.000009 0
-0.002358 -0.000008 0
-0.002364 -0.000005 0
-0.002372 0.000003 0
-0.002382 0.000014 0
-0.002396 0.000027 0
-0.002415 0.000041 0
-0.002437 0.000053 0
-0.002462 0.000059 0
-0.002488 0.000056 0
-0.002510 0.000040 0
-0.002525 0.000010 0
-0.002529 -0.000033 0
-0.002518 -0.000082 0
-0.002495 -0.000129 0
-0.002463 -0.000157 0
-0.002432 -0.000146 0
-0.002419 -0.000076 0
-0.002443 0.000065 0
-0.002523 0.000278 0
-0.002675 0.000545 0
-0.002903 0.000825 0
-0.003194 0.001054 0
-0.003509 0.001147 0
-0.003784 0.001011 0
-0.003931 0.000561 0
-0.003855 -0.000249 0
-0.003468 -0.001376 0
-0.002738 -0.002610 0
-0.001722 -0.003467 0
-0.000645 -0.003065 0
0.000000 -0.001204 0
0.000000 0.001735 0
-0.000372 0.003328 0
-0.001014 0.002412 0
-0.001566 0.001075 0
-0.001925 0.000203 0
-0.002112 -0.000257 0
-0.002174 -0.000467 0
-0.002156 -0.000544 0
-0.002091 -0.000552 0
-0.002000 -0.000527 0
-0.001898 -0.000488 0
-0.001792 -0.000445 0
-0.001687 -0.000402 0
-0.001587 -0.000362 0
-0.001492 -0.000326 0
-0.001403 -0.000295 0
-0.001320 -0.000269 0
-0.001242 -0.000248 0
-0.001167 -0.000232 0
-0.001097 -0.000220 0
-0.001028 -0.000213 0
-0.000960 -0.000210 0
-0.000892 -0.000211 0
-0.000823 -0.000214 0
-0.000753 -0.000220 0
-0.000680 -0.000226 0
-0.000605 -0.000232 0
-0.000527 -0.000236 0
-0.000447 -0.000236 0
-0.000368 -0.000231 0
-0.000289 -0.000218 0
-0.000214 -0.000198 0
-0.000146 -0.000168 0
-0.000087 -0.000131 0
-0.000041 -0.000087 0
-0.000011 -0.000041 0
0.000000 -0.000009 0
0.000000 0.000000 0
0.000000 0.000000 0
0.000000 0.000000 0
0.000000 0.000460 0
-0.000082 0.001260 0
-0.000279 0.001583 0
-0.000525 0.001403 0
-0.000766 0.001067 0
-0.000974 0.000755 0
-0.001144 0.000525 0
-0.001281 0.000371 0
-0.001394 0.000274 0
-0.001491 0.000214 0
-0.001577 0.000174 0
-0.001654 0.000147 0
-0.001725 0.000128 0
-0.001790 0.000112 0
-0.001849 0.000100 0
-0.001904 0.000089 0
-0.001954 0.000080 0
-0.002000 0.000072 0
-0.002041 0.000064 0
-0.002079 0.000056 0
-0.002113 0.000049 0
-0.002144 0.000041 0
-0.002171 0.000033 0
-0.002195 0.000025 0
-0.002217 0.000017 0
-0.002236 0.000010 0
-0.002253 0.000005 0
-0.002268 0.000001 0
-0.002283 0.000002 0
-0.002297 0.000006 0
-0.002313 0.000015 0
-0.002331 0.000029 0
-0.002352 0.000046 0
-0.002377 0.000064 0
-0.002406 0.000080 0
-0.002438 0.000087 0
-0.002471 0.000083 0
-0.002502 0.000062 0
-0.002526 0.000023 0
-0.002541 -0.000031 0
-0.002543 -0.000094 0
-0.002535 -0.000150 0
-0.002520 -0.000180 0
-0.002508 -0.000159 0
-0.002513 -0.000063 0
-0.002550 0.000123 0
-0.002636 0.000397 0
-0.002784 0.000733 0
-0.002993 0.001075 0
-0.003248 0.001339 0
-0.003512 0.001416 0
-0.003724 0.001190 0
-0.003807 0.000563 0
-0.003676 -0.000509 0
-0.003263 -0.001949 0
-0.002546 -0.003477 0
-0.001587 -0.004489 0
-0.000588 -0.003897 0
0.000000 -0.001513 0
0.000000 0.001901 0
-0.000306 0.003798 0
-0.000880 0.002988 0
-0.001412 0.001535 0
-0.001790 0.000497 0
-0.002017 -0.000106 0
-0.002123 -0.000420 0
-0.002146 -0.000564 0
-0.002115 -0.000614 0
-0.002051 -0.000612 0
-0.001968 -0.000585 0
-0.001875 -0.000545 0
-0.001780 -0.000501 0
-0.001686 -0.000458 0
-0.001595 -0.000418 0
-0.001507 -0.000382 0
-0.001424 -0.000351 0
-0.001345 -0.000326 0
-0.001270 -0.000306 0
-0.001197 -0.000292 0
-0.001126 -0.000283 0
-0.001056 -0.000280 0
-0.000985 -0.000281 0
-0.000913 -0.000286 0
-0.000839 -0.000294 0
-0.000763 -0.000303 0
-0.000682 -0.000312 0
-0.000599 -0.000318 0
-0.000513 -0.000320 0
-0.000425 -0.000315 0
-0.000338 -0.000300 0
-0.000253 -0.000275 0
-0.000174 -0.000237 0
-0.000106 -0.000188 0
-0.000051 -0.000129 0
-0.000014 -0.000064 0
0.000000 -0.000016 0
0.000000 0.000000 0
0.000000 0.000000 0
0.000000 0.000000 0
0.000000 0.000485 0
-0.000026 0.001359 0
-0.000125 0.001756 0
-0.000277 0.001607 0
-0.000445 0.001264 0
-0.000603 0.000928 0
-0.000741 0.000669 0
-0.000859 0.000494 0
-0.000964 0.000381 0
-0.001060 0.000309 0
-0.001150 0.000261 0
-0.001236 0.000228 0
-0.001318 0.000203 0
-0.001396 0.000182 0
-0.001470 0.000165 0
-0.001539 0.000149 0
-0.001604 0.000135 0
-0.001665 0.000122 0
-0.001721 0.000110 0
-0.001772 0.000098 0
-0.001819 0.000087 0
-0.001862 0.000076 0
-0.001901 0.000064 0
-0.001936 0.000053 0
-0.001968 0.000043 0
-0.001997 0.000033 0
-0.002024 0.000026 0
-0.002050 0.000021 0
-0.002074 0.000021 0
-0.002099 0.000026 0
-0.002124 0.000036 0
-0.002151 0.000053 0
-0.002181 0.000073 0
-0.002215 0.000095 0
-0.002252 0.000114 0
-0.002292 0.000124 0
-0.002334 0.000119 0
-0.002375 0.000095 0
-0.002411 0.000049 0
-0.002440 -0.000016 0
-0.002459 -0.000089 0
-0.002469 -0.000153 0
-0.002475 -0.000184 0
-0.002483 -0.000153 0
-0.002504 -0.000035 0
-0.002551 0.000188 0
-0.002637 0.000511 0
-0.002768 0.000901 0
-0.002945 0.001289 0
-0.003151 0.001573 0
-0.003354 0.001623 0
-0.003502 0.001306 0
-0.003528 0.000513 0
-0.003365 -0.000793 0
-0.002959 -0.002506 0
-0.002296 -0.004286 0
-0.001427 -0.005426 0
-0.000529 -0.004653 0
0.000000 -0.001793 0
0.000000 0.002041 0
-0.000258 0.004209 0
-0.000774 0.003519 0
-0.001276 0.001986 0
-0.001655 0.000808 0
-0.001901 0.000076 0
-0.002036 -0.000337 0
-0.002089 -0.000551 0
-0.002085 -0.000647 0
-0.002044 -0.000675 0
-0.001980 -0.000664 0
-0.001902 -0.000632 0
-0.001819 -0.000591 0
-0.001733 -0.000548 0
-0.001648 -0.000505 0
-0.001565 -0.000466 0
-0.001485 -0.000431 0
-0.001409 -0.000402 0
-0.001335 -0.000380 0
-0.001263 -0.000364 0
-0.001193 -0.000354 0
-0.001123 -0.000351 0
-0.001053 -0.000353 0
-0.000981 -0.000360 0
-0.000907 -0.000370 0
-0.000829 -0.000383 0
-0.000747 -0.000395 0
-0.000660 -0.000405 0
-0.000570 -0.000410 0
-0.000476 -0.000406 0
-0.000382 -0.000390 0
-0.000289 -0.000361 0
-0.000201 -0.000316 0
-0.000123 -0.000254 0
-0.000060 -0.000179 0
-0.000017 -0.000092 0
0.000000 -0.000023 0
0.000000 0.000000 0
0.000000 0.000000 0
0.000000 0.000000 0
0.000000 0.000485 0
0.000019 0.001384 0
0.000007 0.001833 0
-0.000051 0.001723 0
-0.000140 0.001393 0
-0.000238 0.001051 0
-0.000331 0.000781 0
-0.000418 0.000594 0
-0.000500 0.000475 0
-0.000582 0.000399 0
-0.000665 0.000350 0
-0.000749 0.000315 0
-0.000834 0.000287 0
-0.000919 0.000264 0
-0.001003 0.000243 0
-0.001084 0.000224 0
-0.001162 0.000205 0
-0.001237 0.000188 0
-0.001307 0.000171 0
-0.001373 0.000154 0
-0.001434 0.000138 0
-0.001490 0.000122 0
-0.001541 0.000107 0
-0.001588 0.000092 0
-0.001631 0.000079 0
-0.001671 0.000067 0
-0.001708 0.000057 0
-0.001744 0.000051 0
-0.001780 0.000050 0
-0.001815 0.000056 0
-0.001851 0.000067 0
-0.001888 0.000086 0
-0.001928 0.000109 0
-0.001970 0.000135 0
-0.002017 0.000157 0
-0.002066 0.000169 0
-0.002117 0.000165 0
-0.002169 0.000139 0
-0.002218 0.000088 0
-0.002262 0.000016 0
-0.002300 -0.000065 0
-0.002330 -0.000135 0
-0.002356 -0.000167 0
-0.002384 -0.000129 0
-0.002421 0.000006 0
-0.002475 0.000255 0
-0.002554 0.000613 0
-0.002664 0.001041 0
-0.002802 0.001458 0
-0.002955 0.001748 0
-0.003095 0.001766 0
-0.003181 0.001364 0
-0.003161 0.000426 0
-0.002983 -0.001079 0
-0.002606 -0.003019 0
-0.002018 -0.005009 0
-0.001258 -0.006257 0
-0.000470 -0.005325 0
0.000000 -0.002042 0
0.000000 0.002160 0
-0.000223 0.004573 0
-0.000689 0.004006 0
-0.001159 0.002417 0
-0.001528 0.001121 0
-0.001780 0.000275 0
-0.001930 -0.000232 0
-0.002003 -0.000515 0
-0.002019 -0.000658 0
-0.001997 -0.000717 0
-0.001949 -0.000726 0
-0.001885 -0.000706 0
-0.001813 -0.000671 0
-0.001737 -0.000629 0
-0.001659 -0.000585 0
-0.001583 -0.000544 0
-0.001508 -0.000507 0
-0.001436 -0.000476 0
-0.001366 -0.000451 0
-0.001298 -0.000433 0
-0.001231 -0.000423 0
-0.001164 -0.000420 0
-0.001097 -0.000423 0
-0.001027 -0.000432 0
-0.000955 -0.000446 0
-0.000878 -0.000463 0
-0.000797 -0.000480 0
-0.000710 -0.000495 0
-0.000618 -0.000503 0
-0.000521 -0.000502 0
-0.000422 -0.000487 0
-0.000322 -0.000455 0
-0.000226 -0.000403 0
-0.000140 -0.000329 0
-0.000068 -0.000235 0
-0.000019 -0.000124 0
0.000000 -0.000032 0
0.000000 0.000000 0
0.000000 0.000000 0
0.000000 0.000000 0
0.000000 0.000466 0
0.000051 0.001351 0
0.000111 0.001825 0
0.000136 0.001754 0
0.000123 0.001451 0
0.000089 0.001118 0
0.000045 0.000849 0
-0.000003 0.000663 0
-0.000054 0.000545 0
-0.000111 0.000473 0
-0.000176 0.000428 0
-0.000248 0.000397 0
-0.000326 0.000373 0
-0.000409 0.000351 0
-0.000494 0.000329 0
-0.000582 0.000309 0
-0.000669 0.000288 0
-0.000754 0.000267 0
-0.000838 0.000246 0
-0.000919 0.000225 0
-0.000995 0.000204 0
-0.001066 0.000183 0
-0.001131 0.000162 0
-0.001191 0.000143 0
-0.001246 0.000125 0
-0.001297 0.000111 0
-0.001345 0.000099 0
-0.001391 0.000092 0
-0.001436 0.000091 0
-0.001482 0.000096 0
-0.001528 0.000109 0
-0.001575 0.000129 0
-0.001625 0.000156 0
-0.001677 0.000184 0
-0.001732 0.000209 0
-0.001790 0.000224 0
-0.001851 0.000222 0
-0.001913 0.000195 0
-0.001975 0.000142 0
-0.002034 0.000066 0
-0.002090 -0.000021 0
-0.002140 -0.000096 0
-0.002187 -0.000129 0
-0.002234 -0.000089 0
-0.002284 0.000056 0
-0.002342 0.000321 0
-0.002413 0.000700 0
-0.002500 0.001149 0
-0.002598 0.001580 0
-0.002698 0.001865 0
-0.002778 0.001849 0
-0.002809 0.001372 0
-0.002752 0.000315 0
-0.002570 -0.001349 0
-0.002233 -0.003471 0
-0.001731 -0.005633 0
-0.001086 -0.006974 0
-0.000410 -0.005911 0
0.000000 -0.002262 0
0.000000 0.002264 0
-0.000195 0.004898 0
-0.000618 0.004455 0
-0.001057 0.002825 0
-0.001411 0.001429 0
-0.001661 0.000479 0
-0.001818 -0.000113 0
-0.001902 -0.000462 0
-0.001932 -0.000653 0
-0.001923 -0.000745 0
-0.001887 -0.000775 0
-0.001835 -0.000768 0
-0.001774 -0.000740 0
-0.001706 -0.000701 0
-0.001637 -0.000658 0
-0.001567 -0.000616 0
-0.001499 -0.000578 0
-0.001432 -0.000545 0
-0.001367 -0.000518 0
-0.001304 -0.000499 0
-0.001242 -0.000488 0
-0.001180 -0.000485 0
-0.001117 -0.000490 0
-0.001052 -0.000501 0
-0.000984 -0.000519 0
-0.000912 -0.000541 0
-0.000833 -0.000563 0
-0.000749 -0.000584 0
-0.000657 -0.000598 0
-0.000559 -0.000602 0
-0.000457 -0.000589 0
-0.000352 -0.000556 0
-0.000250 -0.000498 0
-0.000155 -0.000412 0
-0.000077 -0.000299 0
-0.000022 -0.000160 0
0.000000 -0.000042 0
0.000000 0.000000 0
0.000000 0.000000 0
0.000000 0.000000 0
0.000000 0.000434 0
0.000073 0.001273 0