# vtk DataFile Version 2.0
generated by CFD-lab course output (written by Tobias Neckel) 
ASCII

DATASET STRUCTURED_GRID
DIMENSIONS  99 49 1 
POINTS 4851 float

0.000000 0.000000 0
0.020000 0.000000 0
0.040000 0.000000 0
0.060000 0.000000 0
0.080000 0.000000 0
0.100000 0.000000 0
0.120000 0.000000 0
0.140000 0.000000 0
0.160000 0.000000 0
0.180000 0.000000 0
0.200000 0.000000 0
0.220000 0.000000 0
0.240000 0.000000 0
0.260000 0.000000 0
0.280000 0.000000 0
0.300000 0.000000 0
0.320000 0.000000 0
0.340000 0.000000 0
0.360000 0.000000 0
0.380000 0.000000 0
0.400000 0.000000 0
0.420000 0.000000 0
0.440000 0.000000 0
0.460000 0.000000 0
0.480000 0.000000 0
0.500000 0.000000 0
0.520000 0.000000 0
0.540000 0.000000 0
0.560000 0.000000 0
0.580000 0.000000 0
0.600000 0.000000 0
0.620000 0.000000 0
0.640000 0.000000 0
0.660000 0.000000 0
0.680000 0.000000 0
0.700000 0.000000 0
0.720000 0.000000 0
0.740000 0.000000 0
0.760000 0.000000 0
0.780000 0.000000 0
0.800000 0.000000 0
0.820000 0.000000 0
0.840000 0.000000 0
0.860000 0.000000 0
0.880000 0.000000 0
0.900000 0.000000 0
0.920000 0.000000 0
0.940000 0.000000 0
0.960000 0.000000 0
0.980000 0.000000 0
1.000000 0.000000 0
1.020000 0.000000 0
1.040000 0.000000 0
1.060000 0.000000 0
1.080000 0.000000 0
1.100000 0.000000 0
1.120000 0.000000 0
1.140000 0.000000 0
1.160000 0.000000 0
1.180000 0.000000 0
1.200000 0.000000 0
1.220000 0.000000 0
1.240000 0.000000 0
1.260000 0.000000 0
1.280000 0.000000 0
1.300000 0.000000 0
1.320000 0.000000 0
1.340000 0.000000 0
1.360000 0.000000 0
1.380000 0.000000 0
1.400000 0.000000 0
1.420000 0.000000 0
1.440000 0.000000 0
1.460000 0.000000 0
1.480000 0.000000 0
1.500000 0.000000 0
1.520000 0.000000 0
1.540000 0.000000 0
1.560000 0.000000 0
1.580000 0.000000 0
1.600000 0.000000 0
1.620000 0.000000 0
1.640000 0.000000 0
1.660000 0.000000 0
1.680000 0.000000 0
1.700000 0.000000 0
1.720000 0.000000 0
1.740000 0.000000 0
1.760000 0.000000 0
1.780000 0.000000 0
1.800000 0.000000 0
1.820000 0.000000 0
1.840000 0.000000 0
1.860000 0.000000 0
1.880000 0.000000 0
1.900000 0.000000 0
1.920000 0.000000 0
1.940000 0.000000 0
1.960000 0.000000 0
0.000000 0.020000 0
0.020000 0.020000 0
0.040000 0.020000 0
0.060000 0.020000 0
0.080000 0.020000 0
0.100000 0.020000 0
0.120000 0.020000 0
0.140000 0.020000 0
0.160000 0.020000 0
0.180000 0.020000 0
0.200000 0.020000 0
0.220000 0.020000 0
0.240000 0.020000 0
0.260000 0.020000 0
0.280000 0.020000 0
0.300000 0.020000 0
0.320000 0.020000 0
0.340000 0.020000 0
0.360000 0.020000 0
0.380000 0.020000 0
0.400000 0.020000 0
0.420000 0.020000 0
0.440000 0.020000 0
0.460000 0.020000 0
0.480000 0.020000 0
0.500000 0.020000 0
0.520000 0.020000 0
0.540000 0.020000 0
0.560000 0.020000 0
0.580000 0.020000 0
0.600000 0.020000 0
0.620000 0.020000 0
0.640000 0.020000 0
0.660000 0.020000 0
0.680000 0.020000 0
0.700000 0.020000 0
0.720000 0.020000 0
0.740000 0.020000 0
0.760000 0.020000 0
0.780000 0.020000 0
0.800000 0.020000 0
0.820000 0.020000 0
0.840000 0.020000 0
0.860000 0.020000 0
0.880000 0.020000 0
0.900000 0.020000 0
0.920000 0.020000 0
0.940000 0.020000 0
0.960000 0.020000 0
0.980000 0.020000 0
1.000000 0.020000 0
1.020000 0.020000 0
1.040000 0.020000 0
1.060000 0.020000 0
1.080000 0.020000 0
1.100000 0.020000 0
1.120000 0.020000 0
1.140000 0.020000 0
1.160000 0.020000 0
1.180000 0.020000 0
1.200000 0.020000 0
1.220000 0.020000 0
1.240000 0.020000 0
1.260000 0.020000 0
1.280000 0.020000 0
1.300000 0.020000 0
1.320000 0.020000 0
1.340000 0.020000 0
1.360000 0.020000 0
1.380000 0.020000 0
1.400000 0.020000 0
1.420000 0.020000 0
1.440000 0.020000 0
1.460000 0.020000 0
1.480000 0.020000 0
1.500000 0.020000 0
1.520000 0.020000 0
1.540000 0.020000 0
1.560000 0.020000 0
1.580000 0.020000 0
1.600000 0.020000 0
1.620000 0.020000 0
1.640000 0.020000 0
1.660000 0.020000 0
1.680000 0.020000 0
1.700000 0.020000 0
1.720000 0.020000 0
1.740000 0.020000 0
1.760000 0.020000 0
1.780000 0.020000 0
1.800000 0.020000 0
1.820000 0.020000 0
1.840000 0.020000 0
1.860000 0.020000 0
1.880000 0.020000 0
1.900000 0.020000 0
1.920000 0.020000 0
1.940000 0.020000 0
1.960000 0.020000 0
0.000000 0.040000 0
0.020000 0.040000 0
0.040000 0.040000 0
0.060000 0.040000 0
0.080000 0.040000 0
0.100000 0.040000 0
0.120000 0.040000 0
0.140000 0.040000 0
0.160000 0.040000 0
0.180000 0.040000 0
0.200000 0.040000 0
0.220000 0.040000 0
0.240000 0.040000 0
0.260000 0.040000 0
0.280000 0.040000 0
0.300000 0.040000 0
0.320000 0.040000 0
0.340000 0.040000 0
0.360000 0.040000 0
0.380000 0.040000 0
0.400000 0.040000 0
0.420000 0.040000 0
0.440000 0.040000 0
0.460000 0.040000 0
0.480000 0.040000 0
0.500000 0.040000 0
0.520000 0.040000 0
0.540000 0.040000 0
0.560000 0.040000 0
0.580000 0.040000 0
0.600000 0.040000 0
0.620000 0.040000 0
0.640000 0.040000 0
0.660000 0.040000 0
0.680000 0.040000 0
0.700000 0.040000 0
0.720000 0.040000 0
0.740000 0.040000 0
0.760000 0.040000 0
0.780000 0.040000 0
0.800000 0.040000 0
0.820000 0.040000 0
0.840000 0.040000 0
0.860000 0.040000 0
0.880000 0.040000 0
0.900000 0.040000 0
0.920000 0.040000 0
0.940000 0.040000 0
0.960000 0.040000 0
0.980000 0.040000 0
1.000000 0.040000 0
1.020000 0.040000 0
1.040000 0.040000 0
1.060000 0.040000 0
1.080000 0.040000 0
1.100000 0.040000 0
1.120000 0.040000 0
1.140000 0.040000 0
1.160000 0.040000 0
1.180000 0.040000 0
1.200000 0.040000 0
1.220000 0.040000 0
1.240000 0.040000 0
1.260000 0.040000 0
1.280000 0.040000 0
1.300000 0.040000 0
1.320000 0.040000 0
1.340000 0.040000 0
1.360000 0.040000 0
1.380000 0.040000 0
1.400000 0.040000 0
1.420000 0.040000 0
1.440000 0.040000 0
1.460000 0.040000 0
1.480000 0.040000 0
1.500000 0.040000 0
1.520000 0.040000 0
1.540000 0.040000 0
1.560000 0.040000 0
1.580000 0.040000 0
1.600000 0.040000 0
1.620000 0.040000 0
1.640000 0.040000 0
1.660000 0.040000 0
1.680000 0.040000 0
1.700000 0.040000 0
1.720000 0.040000 0
1.740000 0.040000 0
1.760000 0.040000 0
1.780000 0.040000 0
1.800000 0.040000 0
1.820000 0.040000 0
1.840000 0.040000 0
1.860000 0.040000 0
1.880000 0.040000 0
1.900000 0.040000 0
1.920000 0.040000 0
1.940000 0.040000 0
1.960000 0.040000 0
0.000000 0.060000 0
0.020000 0.060000 0
0.040000 0.060000 0
0.060000 0.060000 0
0.080000 0.060000 0
0.100000 0.060000 0
0.120000 0.060000 0
0.140000 0.060000 0
0.160000 0.060000 0
0.180000 0.060000 0
0.200000 0.060000 0
0.220000 0.060000 0
0.240000 0.060000 0
0.260000 0.060000 0
0.280000 0.060000 0
0.300000 0.060000 0
0.320000 0.060000 0
0.340000 0.060000 0
0.360000 0.060000 0
0.380000 0.060000 0
0.400000 0.060000 0
0.420000 0.060000 0
0.440000 0.060000 0
0.460000 0.060000 0
0.480000 0.060000 0
0.500000 0.060000 0
0.520000 0.060000 0
0.540000 0.060000 0
0.560000 0.060000 0
0.580000 0.060000 0
0.600000 0.060000 0
0.620000 0.060000 0
0.640000 0.060000 0
0.660000 0.060000 0
0.680000 0.060000 0
0.700000 0.060000 0
0.720000 0.060000 0
0.740000 0.060000 0
0.760000 0.060000 0
0.780000 0.060000 0
0.800000 0.060000 0
0.820000 0.060000 0
0.840000 0.060000 0
0.860000 0.060000 0
0.880000 0.060000 0
0.900000 0.060000 0
0.920000 0.060000 0
0.940000 0.060000 0
0.960000 0.060000 0
0.980000 0.060000 0
1.000000 0.060000 0
1.020000 0.060000 0
1.040000 0.060000 0
1.060000 0.060000 0
1.080000 0.060000 0
1.100000 0.060000 0
1.120000 0.060000 0
1.140000 0.060000 0
1.160000 0.060000 0
1.180000 0.060000 0
1.200000 0.060000 0
1.220000 0.060000 0
1.240000 0.060000 0
1.260000 0.060000 0
1.280000 0.060000 0
1.300000 0.060000 0
1.320000 0.060000 0
1.340000 0.060000 0
1.360000 0.060000 0
1.380000 0.060000 0
1.400000 0.060000 0
1.420000 0.060000 0
1.440000 0.060000 0
1.460000 0.060000 0
1.480000 0.060000 0
1.500000 0.060000 0
1.520000 0.060000 0
1.540000 0.060000 0
1.560000 0.060000 0
1.580000 0.060000 0
1.600000 0.060000 0
1.620000 0.060000 0
1.640000 0.060000 0
1.660000 0.060000 0
1.680000 0.060000 0
1.700000 0.060000 0
1.720000 0.060000 0
1.740000 0.060000 0
1.760000 0.060000 0
1.780000 0.060000 0
1.800000 0.060000 0
1.820000 0.060000 0
1.840000 0.060000 0
1.860000 0.060000 0
1.880000 0.060000 0
1.900000 0.060000 0
1.920000 0.060000 0
1.940000 0.060000 0
1.960000 0.060000 0
0.000000 0.080000 0
0.020000 0.080000 0
0.040000 0.080000 0
0.060000 0.080000 0
0.080000 0.080000 0
0.100000 0.080000 0
0.120000 0.080000 0
0.140000 0.080000 0
0.160000 0.080000 0
0.180000 0.080000 0
0.200000 0.080000 0
0.220000 0.080000 0
0.240000 0.080000 0
0.260000 0.080000 0
0.280000 0.080000 0
0.300000 0.080000 0
0.320000 0.080000 0
0.340000 0.080000 0
0.360000 0.080000 0
0.380000 0.080000 0
0.400000 0.080000 0
0.420000 0.080000 0
0.440000 0.080000 0
0.460000 0.080000 0
0.480000 0.080000 0
0.500000 0.080000 0
0.520000 0.080000 0
0.540000 0.080000 0
0.560000 0.080000 0
0.580000 0.080000 0
0.600000 0.080000 0
0.620000 0.080000 0
0.640000 0.080000 0
0.660000 0.080000 0
0.680000 0.080000 0
0.700000 0.080000 0
0.720000 0.080000 0
0.740000 0.080000 0
0.760000 0.080000 0
0.780000 0.080000 0
0.800000 0.080000 0
0.820000 0.080000 0
0.840000 0.080000 0
0.860000 0.080000 0
0.880000 0.080000 0
0.900000 0.080000 0
0.920000 0.080000 0
0.940000 0.080000 0
0.960000 0.080000 0
0.980000 0.080000 0
1.000000 0.080000 0
1.020000 0.080000 0
1.040000 0.080000 0
1.060000 0.080000 0
1.080000 0.080000 0
1.100000 0.080000 0
1.120000 0.080000 0
1.140000 0.080000 0
1.160000 0.080000 0
1.180000 0.080000 0
1.200000 0.080000 0
1.220000 0.080000 0
1.240000 0.080000 0
1.260000 0.080000 0
1.280000 0.080000 0
1.300000 0.080000 0
1.320000 0.080000 0
1.340000 0.080000 0
1.360000 0.080000 0
1.380000 0.080000 0
1.400000 0.080000 0
1.420000 0.080000 0
1.440000 0.080000 0
1.460000 0.080000 0
1.480000 0.080000 0
1.500000 0.080000 0
1.520000 0.080000 0
1.540000 0.080000 0
1.560000 0.080000 0
1.580000 0.080000 0
1.600000 0.080000 0
1.620000 0.080000 0
1.640000 0.080000 0
1.660000 0.080000 0
1.680000 0.080000 0
1.700000 0.080000 0
1.720000 0.080000 0
1.740000 0.080000 0
1.760000 0.080000 0
1.780000 0.080000 0
1.800000 0.080000 0
1.820000 0.080000 0
1.840000 0.080000 0
1.860000 0.080000 0
1.880000 0.080000 0
[...]
POINT_DATA 4851 

VECTORS velocity float
0.000000 0.000000 0
-0.000456 0.000000 0
-0.000596 0.000000 0
-0.000544 0.000000 0
-0.000454 0.000000 0
-0.000376 0.000000 0
-0.000315 0.000000 0
-0.000269 0.000000 0
-0.000234 0.000000 0
-0.000206 0.000000 0
-0.000183 0.000000 0
-0.000164 0.000000 0
-0.000148 0.000000 0
-0.000134 0.000000 0
-0.000122 0.000000 0
-0.000111 0.000000 0
-0.000102 0.000000 0
-0.000094 0.000000 0
-0.000087 0.000000 0
-0.000080 0.000000 0
-0.000074 0.000000 0
-0.000069 0.000000 0
-0.000063 0.000000 0
-0.000059 0.000000 0
-0.000054 0.000000 0
-0.000049 0.000000 0
-0.000044 0.000000 0
-0.000038 0.000000 0
-0.000032 0.000000 0
-0.000026 0.000000 0
-0.000020 0.000000 0
-0.000014 0.000000 0
-0.000009 0.000000 0
-0.000004 0.000000 0
-0.000001 0.000000 0
0.000000 0.000000 0
0.000000 0.000000 0
0.000000 0.000000 0
0.000000 0.000000 0
0.000000 0.000000 0
0.000000 0.000000 0
-0.000056 0.000000 0
-0.000147 0.000000 0
-0.000221 0.000000 0
-0.000265 0.000000 0
-0.000288 0.000000 0
-0.000299 0.000000 0
-0.000305 0.000000 0
-0.000308 0.000000 0
-0.000311 0.000000 0
-0.000314 0.000000 0
-0.000317 0.000000 0
-0.000320 0.000000 0
-0.000322 0.000000 0
-0.000325 0.000000 0
-0.000328 0.000000 0
-0.000330 0.000000 0
-0.000333 0.000000 0
-0.000335 0.000000 0
-0.000338 0.000000 0
-0.000340 0.000000 0
-0.000342 0.000000 0
-0.000344 0.000000 0
-0.000346 0.000000 0
-0.000348 0.000000 0
-0.000350 0.000000 0
-0.000352 0.000000 0
-0.000354 0.000000 0
-0.000356 0.000000 0
-0.000358 0.000000 0
-0.000359 0.000000 0
-0.000361 0.000000 0
-0.000363 0.000000 0
-0.000365 0.000000 0
-0.000368 0.000000 0
-0.000371 0.000000 0
-0.000374 0.000000 0
-0.000377 0.000000 0
-0.000379 0.000000 0
-0.000381 0.000000 0
-0.000381 0.000000 0
-0.000378 0.000000 0
-0.000372 0.000000 0
-0.000362 0.000000 0
-0.000351 0.000000 0
-0.000340 0.000000 0
-0.000334 0.000000 0
-0.000336 0.000000 0
-0.000353 0.000000 0
-0.000386 0.000000 0
-0.000438 0.000000 0
-0.000502 0.000000 0
-0.000569 0.000000 0
-0.000619 0.000000 0
-0.000625 0.000000 0
-0.000557 0.000000 0
-0.000395 0.000000 0
-0.000167 0.000000 0
0.000000 0.000000 0
0.000000 0.000456 0
-0.000913 0.000597 0
-0.001400 0.000089 0
-0.001454 -0.000141 0
-0.001338 -0.000168 0
-0.001187 -0.000139 0
-0.001044 -0.000106 0
-0.000921 -0.000081 0
-0.000818 -0.000063 0
-0.000730 -0.000050 0
-0.000656 -0.000041 0
-0.000593 -0.000035 0
-0.000538 -0.000030 0
-0.000490 -0.000025 0
-0.000447 -0.000022 0
-0.000410 -0.000019 0
-0.000376 -0.000017 0
-0.000347 -0.000015 0
-0.000320 -0.000013 0
-0.000296 -0.000012 0
-0.000274 -0.000011 0
-0.000254 -0.000010 0
-0.000235 -0.000010 0
-0.000216 -0.000009 0
-0.000198 -0.000009 0
-0.000180 -0.000010 0
-0.000161 -0.000010 0
-0.000141 -0.000011 0
-0.000120 -0.000011 0
-0.000099 -0.000012 0
-0.000077 -0.000012 0
-0.000056 -0.000011 0
-0.000036 -0.000010 0
-0.000019 -0.000007 0
-0.000007 -0.000004 0
-0.000001 -0.000000 0
0.000000 0.000001 0
0.000000 0.000000 0
0.000000 0.000000 0
0.000000 0.000000 0
0.000000 0.000056 0
-0.000151 0.000146 0
-0.000394 0.000164 0
-0.000608 0.000118 0
-0.000758 0.000067 0
-0.000850 0.000033 0
-0.000905 0.000016 0
-0.000939 0.000008 0
-0.000963 0.000006 0
-0.000981 0.000005 0
-0.000997 0.000005 0
-0.001012 0.000005 0
-0.001026 0.000005 0
-0.001039 0.000005 0
-0.001051 0.000005 0
-0.001063 0.000005 0
-0.001074 0.000004 0
-0.001085 0.000004 0
-0.001095 0.000004 0
-0.001105 0.000004 0
-0.001114 0.000004 0
-0.001123 0.000004 0
-0.001132 0.000004 0
-0.001140 0.000004 0
-0.001148 0.000003 0
-0.001156 0.000003 0
-0.001163 0.000003 0
-0.001171 0.000003 0
-0.001177 0.000003 0
-0.001184 0.000003 0
-0.001190 0.000003 0
-0.001197 0.000003 0
-0.001203 0.000004 0
-0.001211 0.000004 0
-0.001218 0.000005 0
-0.001227 0.000005 0
-0.001236 0.000006 0
-0.001244 0.000005 0
-0.001250 0.000004 0
-0.001252 0.000001 0
-0.001248 -0.000004 0
-0.001236 -0.000010 0
-0.001215 -0.000016 0
-0.001186 -0.000021 0
-0.001153 -0.000023 0
-0.001123 -0.000018 0
-0.001110 -0.000004 0
-0.001125 0.000019 0
-0.001183 0.000049 0
-0.001289 0.000084 0
-0.001440 0.000115 0
-0.001619 0.000131 0
-0.001787 0.000116 0
-0.001887 0.000056 0
-0.001846 -0.000062 0
-0.001592 -0.000231 0
-0.001095 -0.000391 0
-0.000452 -0.000396 0
0.000000 -0.000167 0
0.000000 0.000914 0
-0.000807 0.001401 0
-0.001547 0.000541 0
-0.001873 -0.000061 0
-0.001916 -0.000267 0
-0.001827 -0.000294 0
-0.001689 -0.000265 0
-0.001542 -0.000226 0
-0.001402 -0.000190 0
-0.001274 -0.000161 0
-0.001160 -0.000137 0
-0.001057 -0.000118 0
-0.000966 -0.000103 0
-0.000884 -0.000090 0
-0.000811 -0.000079 0
-0.000746 -0.000070 0
-0.000687 -0.000062 0
-0.000634 -0.000056 0
-0.000587 -0.000050 0
-0.000543 -0.000045 0
-0.000503 -0.000042 0
-0.000466 -0.000039 0
-0.000431 -0.000037 0
-0.000397 -0.000036 0
-0.000364 -0.000036 0
-0.000330 -0.000037 0
-0.000296 -0.000038 0
-0.000260 -0.000040 0
-0.000223 -0.000041 0
-0.000185 -0.000043 0
-0.000146 -0.000043 0
-0.000108 -0.000040 0
-0.000073 -0.000036 0
-0.000043 -0.000028 0
-0.000019 -0.000018 0
-0.000005 -0.000007 0
0.000000 -0.000001 0
0.000000 0.000000 0
0.000000 0.000000 0
0.000000 0.000000 0
0.000000 0.000150 0
-0.000184 0.000393 0
-0.000494 0.000457 0
-0.000794 0.000363 0
-0.001030 0.000241 0
-0.001196 0.000146 0
-0.001309 0.000088 0
-0.001388 0.000057 0
-0.001446 0.000042 0
-0.001492 0.000034 0
-0.001530 0.000030 0
-0.001564 0.000028 0
-0.001595 0.000026 0
-0.001624 0.000025 0
-0.001651 0.000024 0
-0.001676 0.000022 0
-0.001700 0.000021 0
-0.001723 0.000020 0
-0.001744 0.000019 0
-0.001764 0.000018 0
-0.001783 0.000018 0
-0.001801 0.000017 0
-0.001819 0.000016 0
-0.001835 0.000016 0
-0.001851 0.000015 0
-0.001866 0.000015 0
-0.001881 0.000014 0
-0.001894 0.000013 0
-0.001907 0.000013 0
-0.001920 0.000012 0
-0.001932 0.000012 0
-0.001943 0.000012 0
-0.001955 0.000013 0
-0.001967 0.000014 0
-0.001979 0.000016 0
-0.001992 0.000017 0
-0.002004 0.000016 0
-0.002014 0.000014 0
-0.002021 0.000008 0
-0.002021 -0.000002 0
-0.002011 -0.000016 0
-0.001990 -0.000034 0
-0.001956 -0.000051 0
-0.001911 -0.000063 0
-0.001865 -0.000063 0
-0.001827 -0.000044 0
-0.001817 0.000001 0
-0.001851 0.000073 0
-0.001946 0.000163 0
-0.002107 0.000257 0
-0.002322 0.000329 0
-0.002558 0.000346 0
-0.002753 0.000268 0
-0.002825 0.000058 0
-0.002678 -0.000296 0
-0.002233 -0.000752 0
-0.001486 -0.001140 0
-0.000595 -0.001096 0
0.000000 -0.000452 0
0.000000 0.001264 0
-0.000614 0.002144 0
-0.001381 0.001154 0
-0.001869 0.000228 0
-0.002074 -0.000214 0
-0.002098 -0.000365 0
-0.002025 -0.000390 0
-0.001909 -0.000367 0
-0.001777 -0.000331 0
-0.001643 -0.000293 0
-0.001515 -0.000258 0
-0.001396 -0.000228 0
-0.001285 -0.000202 0
-0.001184 -0.000180 0
-0.001092 -0.000160 0
-0.001008 -0.000143 0
-0.000932 -0.000128 0
-0.000862 -0.000116 0
-0.000799 -0.000105 0
-0.000741 -0.000095 0
-0.000687 -0.000088 0
-0.000637 -0.000082 0
-0.000589 -0.000078 0
-0.000543 -0.000076 0
-0.000498 -0.000076 0
-0.000453 -0.000077 0
-0.000407 -0.000080 0
-0.000359 -0.000083 0
-0.000310 -0.000086 0
-0.000259 -0.000088 0
-0.000207 -0.000088 0
-0.000156 -0.000084 0
-0.000108 -0.000075 0
-0.000065 -0.000061 0
-0.000031 -0.000042 0
-0.000009 -0.000019 0
0.000000 -0.000004 0
0.000000 0.000000 0
0.000000 0.000000 0
0.000000 0.000000 0
0.000000 0.000240 0
-0.000159 0.000640 0
-0.000449 0.000773 0
-0.000754 0.000653 0
-0.001015 0.000469 0
-0.001218 0.000313 0
-0.001369 0.000208 0
-0.001482 0.000145 0
-0.001570 0.000109 0
-0.001641 0.000089 0
-0.001702 0.000077 0
-0.001756 0.000070 0
-0.001805 0.000065 0
-0.001850 0.000060 0
-0.001892 0.000057 0
-0.001931 0.000053 0
-0.001967 0.000050 0
-0.002002 0.000048 0
-0.002034 0.000045 0
-0.002065 0.000043 0
-0.002094 0.000041 0
-0.002121 0.000039 0
-0.002147 0.000037 0
-0.002172 0.000036 0
-0.002196 0.000034 0
-0.002218 0.000033 0
-0.002240 0.000031 0
-0.002260 0.000030 0
-0.002279 0.000028 0
-0.002297 0.000027 0
-0.002314 0.000026 0
-0.002330 0.000026 0
-0.002346 0.000027 0
-0.002362 0.000028 0
-0.002377 0.000030 0
-0.002392 0.000030 0
-0.002406 0.000028 0
-0.002417 0.000022 0
-0.002424 0.000010 0
-0.002422 -0.000009 0
-0.002410 -0.000035 0
-0.002385 -0.000065 0
-0.002347 -0.000094 0
-0.002300 -0.000112 0
-0.002253 -0.000107 0
-0.002219 -0.000066 0
-0.002216 0.000019 0
-0.002263 0.000148 0
-0.002375 0.000305 0
-0.002553 0.000460 0
-0.002779 0.000566 0
-0.003012 0.000562 0
-0.003182 0.000384 0
-0.003197 -0.000020 0
-0.002963 -0.000655 0
-0.002413 -0.001423 0
-0.001567 -0.002029 0
-0.000609 -0.001882 0
0.000000 -0.000762 0
0.000000 0.001528 0
-0.000468 0.002782 0
-0.001181 0.001797 0
-0.001727 0.000632 0
-0.002034 -0.000038 0
-0.002154 -0.000342 0
-0.002155 -0.000453 0
-0.002088 -0.000474 0
-0.001985 -0.000455 0
-0.001866 -0.000422 0
-0.001742 -0.000385 0
-0.001621 -0.000348 0
-0.001505 -0.000314 0
-0.001395 -0.000283 0
-0.001293 -0.000255 0
-0.001199 -0.000230 0
-0.001112 -0.000208 0
-0.001032 -0.000188 0
-0.000959 -0.000171 0
-0.000890 -0.000157 0
-0.000827 -0.000145 0
-0.000768 -0.000136 0
-0.000711 -0.000130 0
-0.000657 -0.000127 0
-0.000603 -0.000126 0
-0.000550 -0.000128 0
-0.000495 -0.000132 0
-0.000439 -0.000137 0
-0.000381 -0.000142 0
-0.000321 -0.000145 0
-0.000260 -0.000145 0
-0.000198 -0.000139 0
-0.000140 -0.000126 0
-0.000086 -0.000105 0
-0.000042 -0.000074 0
-0.000012 -0.000038 0
0.000000 -0.000009 0
0.000000 0.000000 0
0.000000 0.000000 0
0.000000 0.000000 0
0.000000 0.000308 0
-0.000112 0.000841 0
-0.000340 0.001052 0
-0.000601 0.000929 0
-0.000843 0.000704 0
-0.001045 0.000500 0
-0.001207 0.000352 0
-0.001336 0.000258 0
-0.001441 0.000200 0
-0.001531 0.000166 0
-0.001609 0.000145 0
-0.001679 0.000130 0
-0.001744 0.000120 0
-0.001803 0.000111 0
-0.001859 0.000104 0
-0.001911 0.000098 0
-0.001960 0.000092 0
-0.002006 0.000087 0
-0.002049 0.000082 0
-0.002090 0.000078 0
-0.002128 0.000074 0
-0.002165 0.000070 0
-0.002200 0.000067 0
-0.002233 0.000064 0
-0.002264 0.000061 0
-0.002294 0.000058 0
-0.002322 0.000055 0
-0.002349 0.000052 0
-0.002375 0.000049 0
-0.002399 0.000047 0
-0.002422 0.000045 0
-0.002443 0.000044 0
-0.002463 0.000044 0
-0.002483 0.000045 0
-0.002501 0.000046 0
-0.002519 0.000045 0
-0.002535 0.000041 0
-0.002549 0.000031 0
-0.002557 0.000012 0
-0.002558 -0.000016 0
-0.002548 -0.000054 0
-0.002527 -0.000097 0
-0.002494 -0.000136 0
-0.002453 -0.000158 0
-0.002414 -0.000145 0
-0.002388 -0.000081 0
-0.002393 0.000046 0
-0.002447 0.000231 0
-0.002560 0.000452 0
-0.002732 0.000661 0
-0.002944 0.000789 0
-0.003150 0.000748 0
-0.003280 0.000452 0
-0.003246 -0.000161 0
-0.002960 -0.001081 0
-0.002372 -0.002148 0
-0.001515 -0.002944 0
-0.000576 -0.002663 0
0.000000 -0.001061 0
0.000000 0.001733 0
-0.000370 0.003325 0
-0.001009 0.002414 0
-0.001558 0.001082 0
-0.001915 0.000214 0
-0.002099 -0.000244 0
-0.002159 -0.000456 0
-0.002138 -0.000537 0
-0.002069 -0.000552 0
-0.001973 -0.000535 0
-0.001864 -0.000503 0
-0.001750 -0.000466 0
-0.001637 -0.000428 0
-0.001527 -0.000391 0
-0.001423 -0.000356 0
-0.001325 -0.000324 0
-0.001233 -0.000295 0
-0.001147 -0.000269 0
-0.001068 -0.000246 0
-0.000994 -0.000227 0
-0.000925 -0.000210 0
-0.000860 -0.000198 0
-0.000798 -0.000189 0
-0.000739 -0.000184 0
-0.000680 -0.000183 0
-0.000622 -0.000185 0
-0.000563 -0.000190 0
-0.000501 -0.000197 0
-0.000438 -0.000204 0
-0.000372 -0.000210 0
-0.000304 -0.000210 0
-0.000235 -0.000204 0
-0.000167 -0.000187 0
-0.000105 -0.000158 0
-0.000052 -0.000116 0
-0.000015 -0.000061 0
0.000000 -0.000016 0
0.000000 0.000000 0
0.000000 0.000000 0
0.000000 0.000000 0
0.000000 0.000351 0
-0.000063 0.000979 0
-0.000212 0.001262 0
-0.000403 0.001156 0
-0.000597 0.000913 0
-0.000772 0.000677 0
-0.000920 0.000498 0
-0.001046 0.000379 0
-0.001154 0.000303 0
-0.001250 0.000256 0
-0.001337 0.000226 0
-0.001417 0.000205 0
-0.001493 0.000189 0
-0.001563 0.000176 0
-0.001630 0.000164 0
-0.001693 0.000154 0
-0.001753 0.000145 0
-0.001809 0.000137 0
-0.001862 0.000129 0
-0.001913 0.000122 0
-0.001960 0.000116 0
-0.002006 0.000110 0
-0.002048 0.000105 0
-0.002089 0.000100 0
-0.002129 0.000095 0
-0.002166 0.000091 0
-0.002202 0.000086 0
-0.002236 0.000082 0
-0.002269 0.000077 0
-0.002300 0.000073 0
-0.002329 0.000070 0
-0.002356 0.000067 0
-0.002382 0.000066 0
-0.002406 0.000066 0
-0.002429 0.000066 0
-0.002451 0.000064 0
-0.002471 0.000057 0
-0.002488 0.000043 0
-0.002502 0.000019 0
-0.002509 -0.000018 0
-0.002507 -0.000066 0
-0.002495 -0.000120 0
-0.002473 -0.000168 0
-0.002445 -0.000193 0
-0.002418 -0.000173 0
-0.002404 -0.000087 0
-0.002417 0.000078 0
-0.002471 0.000314 0
-0.002576 0.000590 0
-0.002730 0.000844 0
-0.002914 0.000983 0
-0.003085 0.000898 0
-0.003177 0.000480 0
-0.003109 -0.000339 0
-0.002806 -0.001528 0
-0.002227 -0.002868 0
-0.001409 -0.003826 0
-0.000530 -0.003398 0
0.000000 -0.001339 0
0.000000 0.001898 0
-0.000302 0.003792 0
-0.000871 0.002985 0
-0.001397 0.001538 0
-0.001770 0.000504 0
-0.001990 -0.000097 0
-0.002090 -0.000413 0
-0.002107 -0.000563 0
-0.002069 -0.000620 0
-0.001996 -0.000627 0
-0.001904 -0.000607 0
-0.001802 -0.000575 0
-0.001696 -0.000537 0
-0.001591 -0.000497 0
-0.001489 -0.000457 0
-0.001391 -0.000420 0
-0.001299 -0.000385 0
-0.001212 -0.000353 0
-0.001131 -0.000325 0
-0.001055 -0.000300 0
-0.000983 -0.000279 0
-0.000916 -0.000263 0
-0.000852 -0.000251 0
-0.000790 -0.000244 0
-0.000730 -0.000243 0
-0.000670 -0.000245 0
-0.000609 -0.000252 0
-0.000546 -0.000261 0
-0.000480 -0.000271 0
-0.000411 -0.000279 0
-0.000339 -0.000282 0
-0.000264 -0.000276 0
-0.000191 -0.000256 0
-0.000121 -0.000219 0
-0.000061 -0.000164 0
-0.000018 -0.000090 0
0.000000 -0.000024 0
0.000000 0.000000 0
0.000000 0.000000 0
0.000000 0.000000 0
0.000000 0.000370 0
-0.000019 0.001053 0
-0.000091 0.001392 0
-0.000203 0.001314 0
-0.000334 0.001073 0
-0.000463 0.000823 0
-0.000581 0.000626 0
-0.000686 0.000491 0
-0.000783 0.000404 0
-0.000873 0.000349 0
-0.000959 0.000312 0
-0.001042 0.000286 0
-0.001122 0.000266 0
-0.001199 0.000249 0
-0.001273 0.000234 0
-0.001344 0.000220 0
-0.001412 0.000208 0
-0.001477 0.000196 0
-0.001539 0.000185 0
-0.001598 0.000175 0
-0.001654 0.000166 0
-0.001707 0.000158 0
-0.001758 0.000151 0
-0.001807 0.000144 0
-0.001853 0.000137 0
-0.001898 0.000131 0
-0.001941 0.000125 0
-0.001983 0.000119 0
-0.002023 0.000113 0
-0.002061 0.000107 0
-0.002097 0.000101 0
-0.002131 0.000097 0
-0.002163 0.000094 0
-0.002193 0.000092 0
-0.002222 0.000091 0
-0.002249 0.000087 0
-0.002274 0.000079 0
-0.002298 0.000062 0
-0.002319 0.000032 0
-0.002335 -0.000011 0
-0.002345 -0.000068 0
-0.002346 -0.000131 0
-0.002340 -0.000186 0
-0.002329 -0.000213 0
-0.002318 -0.000186 0
-0.002317 -0.000083 0
-0.002336 0.000112 0
-0.002387 0.000390 0
-0.002479 0.000711 0
-0.002609 0.000999 0
-0.002760 0.001143 0
-0.002894 0.001010 0
-0.002953 0.000476 0
-0.002867 -0.000531 0
-0.002571 -0.001963 0
-0.002031 -0.003545 0
-0.001282 -0.004642 0
-0.000481 -0.004072 0
0.000000 -0.001591 0
0.000000 0.002035 0
-0.000253 0.004197 0
-0.000761 0.003509 0
-0.001254 0.001981 0
-0.001623 0.000807 0
-0.001859 0.000077 0
-0.001983 -0.000339 0
-0.002025 -0.000559 0
-0.002010 -0.000663 0
-0.001958 -0.000699 0
-0.001882 -0.000697 0
-0.001792 -0.000673 0
-0.001696 -0.000638 0
-0.001599 -0.000598 0
-0.001502 -0.000555 0
-0.001408 -0.000514 0
-0.001318 -0.000474 0
-0.001233 -0.000437 0
-0.001152 -0.000403 0
-0.001077 -0.000374 0
-0.001005 -0.000349 0
-0.000938 -0.000329 0
-0.000875 -0.000314 0
-0.000813 -0.000306 0
-0.000754 -0.000303 0
-0.000695 -0.000306 0
-0.000635 -0.000314 0
-0.000573 -0.000326 0
-0.000507 -0.000339 0
-0.000438 -0.000351 0
-0.000365 -0.000357 0
-0.000288 -0.000352 0
-0.000210 -0.000330 0
-0.000135 -0.000287 0
-0.000069 -0.000218 0
-0.000020 -0.000122 0
0.000000 -0.000034 0
0.000000 0.000000 0
0.000000 0.000000 0
0.000000 0.000000 0
0.000000 0.000370 0
0.000015 0.001069 0
0.000013 0.001446 0
-0.000023 0.001399 0
-0.000086 0.001172 0
-0.000161 0.000924 0
-0.000238 0.000722 0
-0.000314 0.000581 0
-0.000388 0.000490 0
-0.000462 0.000432 0
-0.000537 0.000394 0
-0.000613 0.000367 0
-0.000690 0.000345 0
-0.000767 0.000326 0
-0.000843 0.000309 0
-0.000918 0.000293 0
-0.000991 0.000278 0
-0.001062 0.000263 0
-0.001131 0.000250 0
-0.001198 0.000237 0
-0.001262 0.000225 0
-0.001323 0.000214 0
-0.001381 0.000204 0
-0.001437 0.000195 0
-0.001491 0.000187 0
-0.001542 0.000179 0
-0.001592 0.000171 0
-0.001641 0.000163 0
-0.001688 0.000155 0
-0.001733 0.000147 0
-0.001777 0.000140 0
-0.001818 0.000133 0
-0.001857 0.000128 0
-0.001894 0.000124 0
-0.001929 0.000121 0
-0.001962 0.000116 0
-0.001994 0.000107 0
-0.002025 0.000088 0
-0.002055 0.000056 0
-0.002082 0.000007 0
-0.002105 -0.000055 0
-0.002123 -0.000125 0
-0.002135 -0.000186 0
-0.002142 -0.000215 0
-0.002148 -0.000185 0
-0.002160 -0.000069 0
-0.002186 0.000148 0
-0.002233 0.000457 0
-0.002309 0.000812 0
-0.002413 0.001125 0
-0.002530 0.001268 0
-0.002628 0.001091 0
-0.002661 0.000453 0
-0.002569 -0.000721 0
-0.002296 -0.002364 0
-0.001813 -0.004158 0
-0.001146 -0.005377 0
-0.000432 -0.004680 0
0.000000 -0.001819 0
0.000000 0.002151 0
-0.000216 0.004554 0
-0.000672 0.003987 0
-0.001130 0.002401 0
-0.001485 0.001108 0
-0.001722 0.000263 0
-0.001858 -0.000247 0
-0.001915 -0.000536 0
-0.001915 -0.000687 0
-0.001878 -0.000755 0
-0.001815 -0.000773 0
-0.001737 -0.000760 0
-0.001651 -0.000730 0
-0.001561 -0.000691 0
-0.001471 -0.000648 0
-0.001382 -0.000603 0
-0.001297 -0.000560 0
-0.001215 -0.000519 0
-0.001137 -0.000480 0
-0.001064 -0.000446 0
-0.000995 -0.000417 0
-0.000930 -0.000393 0
-0.000869 -0.000376 0
-0.000810 -0.000365 0
-0.000754 -0.000361 0
-0.000698 -0.000364 0
-0.000641 -0.000373 0
-0.000583 -0.000388 0
-0.000521 -0.000405 0
-0.000454 -0.000422 0
-0.000382 -0.000432 0
-0.000305 -0.000430 0
-0.000225 -0.000409 0
-0.000146 -0.000360 0
-0.000075 -0.000278 0
-0.000023 -0.000158 0
0.000000 -0.000044 0
0.000000 0.000000 0
0.000000 0.000000 0
0.000000 0.000000 0
0.000000 0.000355 0
0.000040 0.001039 0
0.000094 0.001431 0
0.000125 0.001413 0
0.000127 0.001210 0
0.000106 0.000975 0
0.000074 0.000778 0
0.000034 0.000640 0
-0.000011 0.000552 0
-0.000061 0.000498 0
-0.000117 0.000464 0
-0.000179 0.000439 0
-0.000245 0.000419 0
-0.000314 0.000402 0
-0.000386 0.000385 0
-0.000459 0.000368 0
-0.000533 0.000352 0
-0.000608 0.000336 0
-0.000682 0.000321 0
-0.000755 0.000306 0
-0.000826 0.000291 0
-0.000895 0.000278 0
-0.000961 0.000265 0
-0.001024 0.000253 0
-0.001084 0.000242 0
-0.001142 0.000233 0
-0.001198 0.000223 0
-0.001252 0.000214 0
-0.001305 0.000205 0
-0.001357 0.000195 0
-0.001407 0.000186 0
-0.001455 0.000177 0
-0.001501 0.000170 0
-0.001545 0.000164 0
-0.001587 0.000158 0
-0.001626 0.000152 0
-0.001665 0.000142 0
-0.001704 0.000122 0
-0.001742 0.000089 0
-0.001781 0.000039 0
-0.001818 -0.000027 0
-0.001853 -0.000101 0
-0.001883 -0.000167 0
-0.001910 -0.000199 0
-0.001934 -0.000168 0
-0.001960 -0.000046 0
-0.001992 0.000185 0
-0.002036 0.000513 0
-0.002097 0.000891 0
-0.002175 0.001220 0
-0.002260 0.001359 0
-0.002327 0.001142 0
-0.002338 0.000417 0
-0.002247 -0.000897 0
-0.002005 -0.002720 0
-0.001586 -0.004696 0
-0.001007 -0.006023 0
-0.000383 -0.005218 0
0.000000 -0.002023 0
0.000000 0.002252 0
-0.000187 0.004870 0
-0.000598 0.004423 0
-0.001022 0.002795 0
-0.001358 0.001400 0
-0.001589 0.000449 0
-0.001726 -0.000146 0
-0.001789 -0.000501 0
-0.001799 -0.000700 0
-0.001770 -0.000800 0
-0.001717 -0.000837 0
-0.001648 -0.000837 0
-0.001571 -0.000814 0
-0.001488 -0.000777 0
-0.001405 -0.000734 0
-0.001323 -0.000688 0
-0.001243 -0.000641 0
-0.001166 -0.000596 0
-0.001092 -0.000554 0
-0.001023 -0.000516 0
-0.000958 -0.000482 0
-0.000897 -0.000455 0
-0.000839 -0.000434 0
-0.000784 -0.000421 0
-0.000732 -0.000415 0
-0.000681 -0.000418 0
-0.000629 -0.000429 0
-0.000576 -0.000446 0
-0.000519 -0.000467 0
-0.000457 -0.000489 0
-0.000389 -0.000505 0
-0.000314 -0.000508 0
-0.000235 -0.000489 0
-0.000155 -0.000437 0
-0.000081 -0.000342 0
-0.000025 -0.000197 0
0.000000 -0.000056 0
0.000000 0.000000 0
0.000000 0.000000 0
0.000000 0.000000 0
0.000000 0.000329 0
0.000057 0.000975 0
0.000152 0.001361 0
0.000238 0.001366 0