# vtk DataFile Version 2.0
generated by CFD-lab course output (written by Tobias Neckel) 
ASCII

DATASET STRUCTURED_GRID
DIMENSIONS  99 49 1 
POINTS 4851 float

0.000000 0.000000 0
0.020000 0.000000 0
0.040000 0.000000 0
0.060000 0.000000 0
0.080000 0.000000 0
0.100000 0.000000 0
0.120000 0.000000 0
0.140000 0.000000 0
0.160000 0.000000 0
0.180000 0.000000 0
0.200000 0.000000 0
0.220000 0.000000 0
0.240000 0.000000 0
0.260000 0.000000 0
0.280000 0.000000 0
0.300000 0.000000 0
0.320000 0.000000 0
0.340000 0.000000 0
0.360000 0.000000 0
0.380000 0.000000 0
0.400000 0.000000 0
0.420000 0.000000 0
0.440000 0.000000 0
0.460000 0.000000 0
0.480000 0.000000 0
0.500000 0.000000 0
0.520000 0.000000 0
0.540000 0.000000 0
0.560000 0.000000 0
0.580000 0.000000 0
0.600000 0.000000 0
0.620000 0.000000 0
0.640000 0.000000 0
0.660000 0.000000 0
0.680000 0.000000 0
0.700000 0.000000 0
0.720000 0.000000 0
0.740000 0.000000 0
0.760000 0.000000 0
0.780000 0.000000 0
0.800000 0.000000 0
0.820000 0.000000 0
0.840000 0.000000 0
0.860000 0.000000 0
0.880000 0.000000 0
0.900000 0.000000 0
0.920000 0.000000 0
0.940000 0.000000 0
0.960000 0.000000 0
0.980000 0.000000 0
1.000000 0.000000 0
1.020000 0.000000 0
1.040000 0.000000 0
1.060000 0.000000 0
1.080000 0.000000 0
1.100000 0.000000 0
1.120000 0.000000 0
1.140000 0.000000 0
1.160000 0.000000 0
1.180000 0.000000 0
1.200000 0.000000 0
1.220000 0.000000 0
1.240000 0.000000 0
1.260000 0.000000 0
1.280000 0.000000 0
1.300000 0.000000 0
1.320000 0.000000 0
1.340000 0.000000 0
1.360000 0.000000 0
1.380000 0.000000 0
1.400000 0.000000 0
1.420000 0.000000 0
1.440000 0.000000 0
1.460000 0.000000 0
1.480000 0.000000 0
1.500000 0.000000 0
1.520000 0.000000 0
1.540000 0.000000 0
1.560000 0.000000 0
1.580000 0.000000 0
1.600000 0.000000 0
1.620000 0.000000 0
1.640000 0.000000 0
1.660000 0.000000 0
1.680000 0.000000 0
1.700000 0.000000 0
1.720000 0.000000 0
1.740000 0.000000 0
1.760000 0.000000 0
1.780000 0.000000 0
1.800000 0.000000 0
1.820000 0.000000 0
1.840000 0.000000 0
1.860000 0.000000 0
1.880000 0.000000 0
1.900000 0.000000 0
1.920000 0.000000 0
1.940000 0.000000 0
1.960000 0.000000 0
0.000000 0.020000 0
0.020000 0.020000 0
0.040000 0.020000 0
0.060000 0.020000 0
0.080000 0.020000 0
0.100000 0.020000 0
0.120000 0.020000 0
0.140000 0.020000 0
0.160000 0.020000 0
0.180000 0.020000 0
0.200000 0.020000 0
0.220000 0.020000 0
0.240000 0.020000 0
0.260000 0.020000 0
0.280000 0.020000 0
0.300000 0.020000 0
0.320000 0.020000 0
0.340000 0.020000 0
0.360000 0.020000 0
0.380000 0.020000 0
0.400000 0.020000 0
0.420000 0.020000 0
0.440000 0.020000 0
0.460000 0.020000 0
0.480000 0.020000 0
0.500000 0.020000 0
0.520000 0.020000 0
0.540000 0.020000 0
0.560000 0.020000 0
0.580000 0.020000 0
0.600000 0.020000 0
0.620000 0.020000 0
0.640000 0.020000 0
0.660000 0.020000 0
0.680000 0.020000 0
0.700000 0.020000 0
0.720000 0.020000 0
0.740000 0.020000 0
0.760000 0.020000 0
0.780000 0.020000 0
0.800000 0.020000 0
0.820000 0.020000 0
0.840000 0.020000 0
0.860000 0.020000 0
0.880000 0.020000 0
0.900000 0.020000 0
0.920000 0.020000 0
0.940000 0.020000 0
0.960000 0.020000 0
0.980000 0.020000 0
1.000000 0.020000 0
1.020000 0.020000 0
1.040000 0.020000 0
1.060000 0.020000 0
1.080000 0.020000 0
1.100000 0.020000 0
1.120000 0.020000 0
1.140000 0.020000 0
1.160000 0.020000 0
1.180000 0.020000 0
1.200000 0.020000 0
1.220000 0.020000 0
1.240000 0.020000 0
1.260000 0.020000 0
1.280000 0.020000 0
1.300000 0.020000 0
1.320000 0.020000 0
1.340000 0.020000 0
1.360000 0.020000 0
1.380000 0.020000 0
1.400000 0.020000 0
1.420000 0.020000 0
1.440000 0.020000 0
1.460000 0.020000 0
1.480000 0.020000 0
1.500000 0.020000 0
1.520000 0.020000 0
1.540000 0.020000 0
1.560000 0.020000 0
1.580000 0.020000 0
1.600000 0.020000 0
1.620000 0.020000 0
1.640000 0.020000 0
1.660000 0.020000 0
1.680000 0.020000 0
1.700000 0.020000 0
1.720000 0.020000 0
1.740000 0.020000 0
1.760000 0.020000 0
1.780000 0.020000 0
1.800000 0.020000 0
1.820000 0.020000 0
1.840000 0.020000 0
1.860000 0.020000 0
1.880000 0.020000 0
1.900000 0.020000 0
1.920000 0.020000 0
1.940000 0.020000 0
1.960000 0.020000 0
0.000000 0.040000 0
0.020000 0.040000 0
0.040000 0.040000 0
0.060000 0.040000 0
0.080000 0.040000 0
0.100000 0.040000 0
0.120000 0.040000 0
0.140000 0.040000 0
0.160000 0.040000 0
0.180000 0.040000 0
0.200000 0.040000 0
0.220000 0.040000 0
0.240000 0.040000 0
0.260000 0.040000 0
0.280000 0.040000 0
0.300000 0.040000 0
0.320000 0.040000 0
0.340000 0.040000 0
0.360000 0.040000 0
0.380000 0.040000 0
0.400000 0.040000 0
0.420000 0.040000 0
0.440000 0.040000 0
0.460000 0.040000 0
0.480000 0.040000 0
0.500000 0.040000 0
0.520000 0.040000 0
0.540000 0.040000 0
0.560000 0.040000 0
0.580000 0.040000 0
0.600000 0.040000 0
0.620000 0.040000 0
0.640000 0.040000 0
0.660000 0.040000 0
0.680000 0.040000 0
0.700000 0.040000 0
0.720000 0.040000 0
0.740000 0.040000 0
0.760000 0.040000 0
0.780000 0.040000 0
0.800000 0.040000 0
0.820000 0.040000 0
0.840000 0.040000 0
0.860000 0.040000 0
0.880000 0.040000 0
0.900000 0.040000 0
0.920000 0.040000 0
0.940000 0.040000 0
0.960000 0.040000 0
0.980000 0.040000 0
1.000000 0.040000 0
1.020000 0.040000 0
1.040000 0.040000 0
1.060000 0.040000 0
1.080000 0.040000 0
1.100000 0.040000 0
1.120000 0.040000 0
1.140000 0.040000 0
1.160000 0.040000 0
1.180000 0.040000 0
1.200000 0.040000 0
1.220000 0.040000 0
1.240000 0.040000 0
1.260000 0.040000 0
1.280000 0.040000 0
1.300000 0.040000 0
1.320000 0.040000 0
1.340000 0.040000 0
1.360000 0.040000 0
1.380000 0.040000 0
1.400000 0.040000 0
1.420000 0.040000 0
1.440000 0.040000 0
1.460000 0.040000 0
1.480000 0.040000 0
1.500000 0.040000 0
1.520000 0.040000 0
1.540000 0.040000 0
1.560000 0.040000 0
1.580000 0.040000 0
1.600000 0.040000 0
1.620000 0.040000 0
1.640000 0.040000 0
1.660000 0.040000 0
1.680000 0.040000 0
1.700000 0.040000 0
1.720000 0.040000 0
1.740000 0.040000 0
1.760000 0.040000 0
1.780000 0.040000 0
1.800000 0.040000 0
1.820000 0.040000 0
1.840000 0.040000 0
1.860000 0.040000 0
1.880000 0.040000 0
1.900000 0.040000 0
1.920000 0.040000 0
1.940000 0.040000 0
1.960000 0.040000 0
0.000000 0.060000 0
0.020000 0.060000 0
0.040000 0.060000 0
0.060000 0.060000 0
0.080000 0.060000 0
0.100000 0.060000 0
0.120000 0.060000 0
0.140000 0.060000 0
0.160000 0.060000 0
0.180000 0.060000 0
0.200000 0.060000 0
0.220000 0.060000 0
0.240000 0.060000 0
0.260000 0.060000 0
0.280000 0.060000 0
0.300000 0.060000 0
0.320000 0.060000 0
0.340000 0.060000 0
0.360000 0.060000 0
0.380000 0.060000 0
0.400000 0.060000 0
0.420000 0.060000 0
0.440000 0.060000 0
0.460000 0.060000 0
0.480000 0.060000 0
0.500000 0.060000 0
0.520000 0.060000 0
0.540000 0.060000 0
0.560000 0.060000 0
0.580000 0.060000 0
0.600000 0.060000 0
0.620000 0.060000 0
0.640000 0.060000 0
0.660000 0.060000 0
0.680000 0.060000 0
0.700000 0.060000 0
0.720000 0.060000 0
0.740000 0.060000 0
0.760000 0.060000 0
0.780000 0.060000 0
0.800000 0.060000 0
0.820000 0.060000 0
0.840000 0.060000 0
0.860000 0.060000 0
0.880000 0.060000 0
0.900000 0.060000 0
0.920000 0.060000 0
0.940000 0.060000 0
0.960000 0.060000 0
0.980000 0.060000 0
1.000000 0.060000 0
1.020000 0.060000 0
1.040000 0.060000 0
1.060000 0.060000 0
1.080000 0.060000 0
1.100000 0.060000 0
1.120000 0.060000 0
1.140000 0.060000 0
1.160000 0.060000 0
1.180000 0.060000 0
1.200000 0.060000 0
1.220000 0.060000 0
1.240000 0.060000 0
1.260000 0.060000 0
1.280000 0.060000 0
1.300000 0.060000 0
1.320000 0.060000 0
1.340000 0.060000 0
1.360000 0.060000 0
1.380000 0.060000 0
1.400000 0.060000 0
1.420000 0.060000 0
1.440000 0.060000 0
1.460000 0.060000 0
1.480000 0.060000 0
1.500000 0.060000 0
1.520000 0.060000 0
1.540000 0.060000 0
1.560000 0.060000 0
1.580000 0.060000 0
1.600000 0.060000 0
1.620000 0.060000 0
1.640000 0.060000 0
1.660000 0.060000 0
1.680000 0.060000 0
1.700000 0.060000 0
1.720000 0.060000 0
1.740000 0.060000 0
1.760000 0.060000 0
1.780000 0.060000 0
1.800000 0.060000 0
1.820000 0.060000 0
1.840000 0.060000 0
1.860000 0.060000 0
1.880000 0.060000 0
1.900000 0.060000 0
1.920000 0.060000 0
1.940000 0.060000 0
1.960000 0.060000 0
0.000000 0.080000 0
0.020000 0.080000 0
0.040000 0.080000 0
0.060000 0.080000 0
0.080000 0.080000 0
0.100000 0.080000 0
0.120000 0.080000 0
0.140000 0.080000 0
0.160000 0.080000 0
0.180000 0.080000 0
0.200000 0.080000 0
0.220000 0.080000 0
0.240000 0.080000 0
0.260000 0.080000 0
0.280000 0.080000 0
0.300000 0.080000 0
0.320000 0.080000 0
0.340000 0.080000 0
0.360000 0.080000 0
0.380000 0.080000 0
0.400000 0.080000 0
0.420000 0.080000 0
0.440000 0.080000 0
0.460000 0.080000 0
0.480000 0.080000 0
0.500000 0.080000 0
0.520000 0.080000 0
0.540000 0.080000 0
0.560000 0.080000 0
0.580000 0.080000 0
0.600000 0.080000 0
0.620000 0.080000 0
0.640000 0.080000 0
0.660000 0.080000 0
0.680000 0.080000 0
0.700000 0.080000 0
0.720000 0.080000 0
0.740000 0.080000 0
0.760000 0.080000 0
0.780000 0.080000 0
0.800000 0.080000 0
0.820000 0.080000 0
0.840000 0.080000 0
0.860000 0.080000 0
0.880000 0.080000 0
0.900000 0.080000 0
0.920000 0.080000 0
0.940000 0.080000 0
0.960000 0.080000 0
0.980000 0.080000 0
1.000000 0.080000 0
1.020000 0.080000 0
1.040000 0.080000 0
1.060000 0.080000 0
1.080000 0.080000 0
1.100000 0.080000 0
1.120000 0.080000 0
1.140000 0.080000 0
1.160000 0.080000 0
1.180000 0.080000 0
1.200000 0.080000 0
1.220000 0.080000 0
1.240000 0.080000 0
1.260000 0.080000 0
1.280000 0.080000 0
1.300000 0.080000 0
1.320000 0.080000 0
1.340000 0.080000 0
1.360000 0.080000 0
1.380000 0.080000 0
1.400000 0.080000 0
1.420000 0.080000 0
1.440000 0.080000 0
1.460000 0.080000 0
1.480000 0.080000 0
1.500000 0.080000 0
1.520000 0.080000 0
1.540000 0.080000 0
1.560000 0.080000 0
1.580000 0.080000 0
1.600000 0.080000 0
1.620000 0.080000 0
1.640000 0.080000 0
1.660000 0.080000 0
1.680000 0.080000 0
1.700000 0.080000 0
1.720000 0.080000 0
1.740000 0.080000 0
1.760000 0.080000 0
1.780000 0.080000 0
1.800000 0.080000 0
1.820000 0.080000 0
1.840000 0.080000 0
1.860000 0.080000 0
1.880000 0.080000 0
[...]
POINT_DATA 4851 

VECTORS velocity float
0.000000 0.000000 0
-0.000384 0.000000 0
-0.000521 0.000000 0
-0.000484 0.000000 0
-0.000407 0.000000 0
-0.000339 0.000000 0
-0.000288 0.000000 0
-0.000250 0.000000 0
-0.000223 0.000000 0
-0.000201 0.000000 0
-0.000184 0.000000 0
-0.000170 0.000000 0
-0.000157 0.000000 0
-0.000146 0.000000 0
-0.000136 0.000000 0
-0.000127 0.000000 0
-0.000119 0.000000 0
-0.000111 0.000000 0
-0.000103 0.000000 0
-0.000096 0.000000 0
-0.000090 0.000000 0
-0.000083 0.000000 0
-0.000077 0.000000 0
-0.000071 0.000000 0
-0.000065 0.000000 0
-0.000060 0.000000 0
-0.000054 0.000000 0
-0.000049 0.000000 0
-0.000044 0.000000 0
-0.000039 0.000000 0
-0.000035 0.000000 0
-0.000030 0.000000 0
-0.000024 0.000000 0
-0.000017 0.000000 0
-0.000009 0.000000 0
-0.000003 0.000000 0
0.000000 0.000000 0
0.000000 0.000000 0
0.000000 0.000000 0
0.000000 0.000000 0
0.000000 0.000000 0
-0.000017 0.000000 0
-0.000054 0.000000 0
-0.000092 0.000000 0
-0.000124 0.000000 0
-0.000146 0.000000 0
-0.000161 0.000000 0
-0.000170 0.000000 0
-0.000176 0.000000 0
-0.000180 0.000000 0
-0.000182 0.000000 0
-0.000185 0.000000 0
-0.000187 0.000000 0
-0.000189 0.000000 0
-0.000191 0.000000 0
-0.000192 0.000000 0
-0.000194 0.000000 0
-0.000195 0.000000 0
-0.000197 0.000000 0
-0.000198 0.000000 0
-0.000199 0.000000 0
-0.000200 0.000000 0
-0.000201 0.000000 0
-0.000203 0.000000 0
-0.000204 0.000000 0
-0.000205 0.000000 0
-0.000206 0.000000 0
-0.000206 0.000000 0
-0.000207 0.000000 0
-0.000208 0.000000 0
-0.000209 0.000000 0
-0.000210 0.000000 0
-0.000211 0.000000 0
-0.000212 0.000000 0
-0.000213 0.000000 0
-0.000213 0.000000 0
-0.000214 0.000000 0
-0.000215 0.000000 0
-0.000216 0.000000 0
-0.000216 0.000000 0
-0.000216 0.000000 0
-0.000215 0.000000 0
-0.000214 0.000000 0
-0.000212 0.000000 0
-0.000211 0.000000 0
-0.000210 0.000000 0
-0.000212 0.000000 0
-0.000217 0.000000 0
-0.000226 0.000000 0
-0.000241 0.000000 0
-0.000261 0.000000 0
-0.000284 0.000000 0
-0.000304 0.000000 0
-0.000314 0.000000 0
-0.000303 0.000000 0
-0.000258 0.000000 0
-0.000175 0.000000 0
-0.000070 0.000000 0
0.000000 0.000000 0
0.000000 0.000385 0
-0.000765 0.000521 0
-0.001205 0.000101 0
-0.001265 -0.000113 0
-0.001168 -0.000145 0
-0.001038 -0.000119 0
-0.000920 -0.000088 0
-0.000822 -0.000064 0
-0.000743 -0.000048 0
-0.000679 -0.000038 0
-0.000625 -0.000031 0
-0.000579 -0.000026 0
-0.000538 -0.000023 0
-0.000502 -0.000020 0
-0.000469 -0.000018 0
-0.000438 -0.000017 0
-0.000410 -0.000016 0
-0.000383 -0.000015 0
-0.000358 -0.000014 0
-0.000334 -0.000013 0
-0.000311 -0.000012 0
-0.000289 -0.000012 0
-0.000268 -0.000011 0
-0.000247 -0.000011 0
-0.000227 -0.000011 0
-0.000208 -0.000010 0
-0.000189 -0.000010 0
-0.000171 -0.000009 0
-0.000153 -0.000009 0
-0.000136 -0.000009 0
-0.000118 -0.000009 0
-0.000100 -0.000010 0
-0.000079 -0.000012 0
-0.000056 -0.000014 0
-0.000032 -0.000013 0
-0.000010 -0.000009 0
0.000000 -0.000002 0
0.000000 0.000000 0
0.000000 0.000000 0
0.000000 0.000000 0
0.000000 0.000017 0
-0.000053 0.000053 0
-0.000156 0.000075 0
-0.000268 0.000070 0
-0.000365 0.000053 0
-0.000439 0.000036 0
-0.000492 0.000023 0
-0.000528 0.000014 0
-0.000554 0.000009 0
-0.000572 0.000006 0
-0.000586 0.000005 0
-0.000598 0.000004 0
-0.000608 0.000004 0
-0.000616 0.000003 0
-0.000624 0.000003 0
-0.000631 0.000003 0
-0.000638 0.000003 0
-0.000644 0.000002 0
-0.000649 0.000002 0
-0.000655 0.000002 0
-0.000659 0.000002 0
-0.000664 0.000002 0
-0.000668 0.000002 0
-0.000673 0.000002 0
-0.000676 0.000002 0
-0.000680 0.000002 0
-0.000684 0.000001 0
-0.000687 0.000001 0
-0.000690 0.000001 0
-0.000693 0.000001 0
-0.000696 0.000001 0
-0.000699 0.000001 0
-0.000702 0.000001 0
-0.000705 0.000001 0
-0.000707 0.000001 0
-0.000710 0.000001 0
-0.000712 0.000001 0
-0.000714 0.000001 0
-0.000716 0.000000 0
-0.000716 -0.000000 0
-0.000715 -0.000001 0
-0.000712 -0.000002 0
-0.000709 -0.000003 0
-0.000704 -0.000003 0
-0.000700 -0.000002 0
-0.000699 0.000000 0
-0.000704 0.000006 0
-0.000720 0.000014 0
-0.000749 0.000024 0
-0.000792 0.000034 0
-0.000848 0.000042 0
-0.000907 0.000043 0
-0.000953 0.000030 0
-0.000962 -0.000002 0
-0.000904 -0.000057 0
-0.000751 -0.000128 0
-0.000499 -0.000188 0
-0.000198 -0.000175 0
0.000000 -0.000070 0
0.000000 0.000766 0
-0.000660 0.001206 0
-0.001287 0.000501 0
-0.001568 -0.000036 0
-0.001605 -0.000226 0
-0.001530 -0.000247 0
-0.001420 -0.000215 0
-0.001308 -0.000176 0
-0.001206 -0.000142 0
-0.001116 -0.000117 0
-0.001037 -0.000099 0
-0.000967 -0.000086 0
-0.000904 -0.000076 0
-0.000846 -0.000069 0
-0.000793 -0.000063 0
-0.000743 -0.000058 0
-0.000697 -0.000054 0
-0.000653 -0.000051 0
-0.000611 -0.000048 0
-0.000571 -0.000046 0
-0.000532 -0.000044 0
-0.000495 -0.000043 0
-0.000459 -0.000041 0
-0.000424 -0.000040 0
-0.000390 -0.000039 0
-0.000356 -0.000037 0
-0.000324 -0.000036 0
-0.000292 -0.000035 0
-0.000261 -0.000034 0
-0.000231 -0.000034 0
-0.000199 -0.000035 0
-0.000166 -0.000038 0
-0.000131 -0.000043 0
-0.000093 -0.000046 0
-0.000053 -0.000045 0
-0.000018 -0.000031 0
0.000000 -0.000010 0
0.000000 0.000000 0
0.000000 0.000000 0
0.000000 0.000000 0
0.000000 0.000052 0
-0.000074 0.000155 0
-0.000215 0.000215 0
-0.000372 0.000208 0
-0.000516 0.000170 0
-0.000634 0.000126 0
-0.000725 0.000089 0
-0.000793 0.000061 0
-0.000844 0.000043 0
-0.000883 0.000032 0
-0.000913 0.000025 0
-0.000939 0.000021 0
-0.000960 0.000018 0
-0.000979 0.000016 0
-0.000995 0.000014 0
-0.001010 0.000013 0
-0.001024 0.000012 0
-0.001037 0.000011 0
-0.001048 0.000010 0
-0.001059 0.000010 0
-0.001068 0.000009 0
-0.001077 0.000008 0
-0.001086 0.000008 0
-0.001094 0.000007 0
-0.001101 0.000007 0
-0.001108 0.000007 0
-0.001115 0.000006 0
-0.001121 0.000006 0
-0.001126 0.000006 0
-0.001132 0.000005 0
-0.001137 0.000005 0
-0.001142 0.000005 0
-0.001146 0.000005 0
-0.001151 0.000005 0
-0.001155 0.000005 0
-0.001159 0.000004 0
-0.001162 0.000004 0
-0.001165 0.000003 0
-0.001166 0.000001 0
-0.001166 -0.000001 0
-0.001164 -0.000004 0
-0.001159 -0.000007 0
-0.001153 -0.000009 0
-0.001146 -0.000009 0
-0.001140 -0.000006 0
-0.001140 0.000004 0
-0.001149 0.000021 0
-0.001173 0.000044 0
-0.001215 0.000072 0
-0.001276 0.000099 0
-0.001349 0.000114 0
-0.001421 0.000104 0
-0.001465 0.000055 0
-0.001448 -0.000050 0
-0.001330 -0.000211 0
-0.001079 -0.000406 0
-0.000701 -0.000554 0
-0.000273 -0.000499 0
0.000000 -0.000198 0
0.000000 0.001045 0
-0.000470 0.001809 0
-0.001085 0.001010 0
-0.001480 0.000206 0
-0.001642 -0.000183 0
-0.001658 -0.000304 0
-0.001603 -0.000309 0
-0.001520 -0.000278 0
-0.001431 -0.000240 0
-0.001344 -0.000207 0
-0.001262 -0.000180 0
-0.001186 -0.000159 0
-0.001116 -0.000143 0
-0.001050 -0.000131 0
-0.000989 -0.000121 0
-0.000930 -0.000113 0
-0.000875 -0.000106 0
-0.000821 -0.000100 0
-0.000770 -0.000095 0
-0.000721 -0.000091 0
-0.000673 -0.000088 0
-0.000627 -0.000085 0
-0.000582 -0.000082 0
-0.000538 -0.000080 0
-0.000495 -0.000078 0
-0.000452 -0.000076 0
-0.000411 -0.000074 0
-0.000370 -0.000072 0
-0.000330 -0.000071 0
-0.000290 -0.000071 0
-0.000250 -0.000073 0
-0.000207 -0.000078 0
-0.000162 -0.000085 0
-0.000114 -0.000091 0
-0.000066 -0.000088 0
-0.000023 -0.000062 0
0.000000 -0.000021 0
0.000000 0.000000 0
0.000000 0.000000 0
0.000000 0.000000 0
0.000000 0.000090 0
-0.000072 0.000267 0
-0.000213 0.000372 0
-0.000376 0.000371 0
-0.000532 0.000316 0
-0.000668 0.000246 0
-0.000779 0.000182 0
-0.000867 0.000133 0
-0.000937 0.000099 0
-0.000992 0.000075 0
-0.001037 0.000060 0
-0.001075 0.000050 0
-0.001108 0.000043 0
-0.001137 0.000038 0
-0.001162 0.000034 0
-0.001185 0.000031 0
-0.001206 0.000029 0
-0.001225 0.000026 0
-0.001243 0.000024 0
-0.001259 0.000022 0
-0.001273 0.000021 0
-0.001287 0.000019 0
-0.001299 0.000018 0
-0.001310 0.000017 0
-0.001321 0.000016 0
-0.001331 0.000015 0
-0.001340 0.000014 0
-0.001348 0.000013 0
-0.001356 0.000012 0
-0.001364 0.000012 0
-0.001371 0.000011 0
-0.001377 0.000011 0
-0.001383 0.000010 0
-0.001389 0.000010 0
-0.001394 0.000009 0
-0.001399 0.000008 0
-0.001403 0.000007 0
-0.001406 0.000005 0
-0.001408 0.000001 0
-0.001408 -0.000003 0
-0.001405 -0.000008 0
-0.001400 -0.000013 0
-0.001393 -0.000017 0
-0.001386 -0.000016 0
-0.001380 -0.000009 0
-0.001380 0.000009 0
-0.001390 0.000039 0
-0.001416 0.000080 0
-0.001460 0.000127 0
-0.001522 0.000168 0
-0.001595 0.000187 0
-0.001661 0.000159 0
-0.001691 0.000057 0
-0.001648 -0.000138 0
-0.001491 -0.000426 0
-0.001192 -0.000757 0
-0.000763 -0.000994 0
-0.000292 -0.000876 0
0.000000 -0.000343 0
0.000000 0.001237 0
-0.000324 0.002291 0
-0.000855 0.001511 0
-0.001270 0.000522 0
-0.001499 -0.000048 0
-0.001584 -0.000286 0
-0.001583 -0.000353 0
-0.001540 -0.000347 0
-0.001477 -0.000319 0
-0.001408 -0.000286 0
-0.001337 -0.000256 0
-0.001268 -0.000232 0
-0.001202 -0.000212 0
-0.001138 -0.000196 0
-0.001076 -0.000183 0
-0.001017 -0.000172 0
-0.000959 -0.000163 0
-0.000903 -0.000155 0
-0.000849 -0.000148 0
-0.000797 -0.000143 0
-0.000745 -0.000138 0
-0.000695 -0.000134 0
-0.000646 -0.000130 0
-0.000597 -0.000127 0
-0.000550 -0.000124 0
-0.000503 -0.000121 0
-0.000457 -0.000118 0
-0.000411 -0.000115 0
-0.000366 -0.000114 0
-0.000321 -0.000114 0
-0.000275 -0.000118 0
-0.000227 -0.000125 0
-0.000177 -0.000135 0
-0.000124 -0.000143 0
-0.000071 -0.000136 0
-0.000024 -0.000096 0
0.000000 -0.000033 0
0.000000 0.000000 0
0.000000 0.000000 0
0.000000 0.000000 0
0.000000 0.000123 0
-0.000058 0.000367 0
-0.000177 0.000519 0
-0.000322 0.000528 0
-0.000468 0.000463 0
-0.000600 0.000373 0
-0.000714 0.000288 0
-0.000809 0.000219 0
-0.000888 0.000168 0
-0.000953 0.000132 0
-0.001009 0.000108 0
-0.001057 0.000091 0
-0.001099 0.000079 0
-0.001136 0.000070 0
-0.001170 0.000063 0
-0.001201 0.000057 0
-0.001229 0.000052 0
-0.001255 0.000047 0
-0.001278 0.000043 0
-0.001299 0.000040 0
-0.001318 0.000037 0
-0.001336 0.000034 0
-0.001352 0.000031 0
-0.001367 0.000029 0
-0.001381 0.000027 0
-0.001393 0.000025 0
-0.001405 0.000024 0
-0.001416 0.000022 0
-0.001426 0.000021 0
-0.001435 0.000020 0
-0.001444 0.000018 0
-0.001452 0.000017 0
-0.001460 0.000017 0
-0.001467 0.000016 0
-0.001474 0.000015 0
-0.001480 0.000013 0
-0.001485 0.000011 0
-0.001489 0.000007 0
-0.001492 0.000002 0
-0.001493 -0.000004 0
-0.001491 -0.000012 0
-0.001488 -0.000019 0
-0.001483 -0.000024 0
-0.001477 -0.000023 0
-0.001472 -0.000012 0
-0.001473 0.000014 0
-0.001483 0.000056 0
-0.001507 0.000114 0
-0.001548 0.000178 0
-0.001604 0.000233 0
-0.001669 0.000252 0
-0.001725 0.000200 0
-0.001742 0.000042 0
-0.001683 -0.000250 0
-0.001510 -0.000667 0
-0.001197 -0.001134 0
-0.000758 -0.001454 0
-0.000287 -0.001262 0
0.000000 -0.000490 0
0.000000 0.001369 0
-0.000223 0.002666 0
-0.000662 0.001957 0
-0.001049 0.000849 0
-0.001295 0.000131 0
-0.001416 -0.000219 0
-0.001452 -0.000353 0
-0.001441 -0.000384 0
-0.001405 -0.000372 0
-0.001357 -0.000346 0
-0.001303 -0.000319 0
-0.001247 -0.000295 0
-0.001190 -0.000274 0
-0.001134 -0.000256 0
-0.001078 -0.000241 0
-0.001023 -0.000229 0
-0.000969 -0.000219 0
-0.000916 -0.000210 0
-0.000863 -0.000202 0
-0.000812 -0.000195 0
-0.000761 -0.000189 0
-0.000711 -0.000184 0
-0.000661 -0.000180 0
-0.000612 -0.000176 0
-0.000564 -0.000172 0
-0.000516 -0.000168 0
-0.000468 -0.000165 0
-0.000421 -0.000162 0
-0.000375 -0.000161 0
-0.000328 -0.000162 0
-0.000280 -0.000166 0
-0.000231 -0.000176 0
-0.000179 -0.000188 0
-0.000125 -0.000197 0
-0.000071 -0.000187 0
-0.000024 -0.000132 0
0.000000 -0.000045 0
0.000000 0.000000 0
0.000000 0.000000 0
0.000000 0.000000 0
0.000000 0.000148 0
-0.000039 0.000444 0
-0.000127 0.000636 0
-0.000240 0.000661 0
-0.000359 0.000594 0
-0.000473 0.000492 0
-0.000577 0.000391 0
-0.000667 0.000307 0
-0.000745 0.000242 0
-0.000814 0.000196 0
-0.000874 0.000163 0
-0.000927 0.000140 0
-0.000976 0.000123 0
-0.001020 0.000110 0
-0.001061 0.000099 0
-0.001099 0.000090 0
-0.001134 0.000082 0
-0.001166 0.000075 0
-0.001195 0.000068 0
-0.001221 0.000063 0
-0.001245 0.000057 0
-0.001267 0.000053 0
-0.001287 0.000049 0
-0.001305 0.000045 0
-0.001322 0.000042 0
-0.001337 0.000039 0
-0.001351 0.000036 0
-0.001364 0.000034 0
-0.001376 0.000032 0
-0.001388 0.000030 0
-0.001399 0.000028 0
-0.001409 0.000026 0
-0.001419 0.000025 0
-0.001428 0.000023 0
-0.001436 0.000021 0
-0.001444 0.000019 0
-0.001451 0.000016 0
-0.001457 0.000012 0
-0.001462 0.000005 0
-0.001466 -0.000003 0
-0.001468 -0.000013 0
-0.001468 -0.000022 0
-0.001466 -0.000028 0
-0.001463 -0.000027 0
-0.001462 -0.000013 0
-0.001464 0.000019 0
-0.001474 0.000072 0
-0.001495 0.000144 0
-0.001530 0.000224 0
-0.001579 0.000290 0
-0.001635 0.000307 0
-0.001680 0.000231 0
-0.001689 0.000016 0
-0.001624 -0.000370 0
-0.001451 -0.000913 0
-0.001145 -0.001509 0
-0.000722 -0.001904 0
-0.000271 -0.001635 0
0.000000 -0.000630 0
0.000000 0.001461 0
-0.000155 0.002954 0
-0.000512 0.002337 0
-0.000854 0.001155 0
-0.001089 0.000319 0
-0.001220 -0.000128 0
-0.001274 -0.000326 0
-0.001283 -0.000394 0
-0.001266 -0.000403 0
-0.001236 -0.000388 0
-0.001198 -0.000366 0
-0.001156 -0.000344 0
-0.001112 -0.000325 0
-0.001066 -0.000308 0
-0.001019 -0.000293 0
-0.000972 -0.000281 0
-0.000924 -0.000270 0
-0.000876 -0.000260 0
-0.000829 -0.000252 0
-0.000781 -0.000245 0
-0.000733 -0.000239 0
-0.000686 -0.000233 0
-0.000639 -0.000228 0
-0.000592 -0.000224 0
-0.000545 -0.000220 0
-0.000499 -0.000216 0
-0.000453 -0.000212 0
-0.000408 -0.000209 0
-0.000362 -0.000207 0
-0.000316 -0.000209 0
-0.000270 -0.000215 0
-0.000221 -0.000226 0
-0.000171 -0.000241 0
-0.000118 -0.000251 0
-0.000067 -0.000237 0
-0.000022 -0.000167 0
0.000000 -0.000057 0
0.000000 0.000000 0
0.000000 0.000000 0
0.000000 0.000000 0
0.000000 0.000162 0
-0.000021 0.000494 0
-0.000074 0.000719 0
-0.000148 0.000759 0
-0.000232 0.000696 0
-0.000319 0.000591 0
-0.000401 0.000481 0
-0.000478 0.000387 0
-0.000548 0.000314 0
-0.000612 0.000260 0
-0.000671 0.000221 0
-0.000726 0.000193 0
-0.000778 0.000172 0
-0.000827 0.000155 0
-0.000873 0.000141 0
-0.000916 0.000129 0
-0.000957 0.000118 0
-0.000994 0.000108 0
-0.001029 0.000099 0
-0.001061 0.000090 0
-0.001090 0.000082 0
-0.001116 0.000075 0
-0.001140 0.000069 0
-0.001161 0.000064 0
-0.001180 0.000059 0
-0.001198 0.000055 0
-0.001215 0.000051 0
-0.001230 0.000048 0
-0.001245 0.000045 0
-0.001258 0.000042 0
-0.001272 0.000039 0
-0.001284 0.000037 0
-0.001296 0.000035 0
-0.001307 0.000033 0
-0.001318 0.000031 0
-0.001328 0.000028 0
-0.001338 0.000024 0
-0.001347 0.000019 0
-0.001356 0.000011 0
-0.001364 0.000001 0
-0.001370 -0.000010 0
-0.001375 -0.000021 0
-0.001378 -0.000028 0
-0.001381 -0.000027 0
-0.001383 -0.000011 0
-0.001388 0.000026 0
-0.001398 0.000087 0
-0.001417 0.000170 0
-0.001447 0.000263 0
-0.001488 0.000338 0
-0.001534 0.000353 0
-0.001571 0.000254 0
-0.001574 -0.000014 0
-0.001511 -0.000488 0
-0.001348 -0.001147 0
-0.001063 -0.001863 0
-0.000670 -0.002328 0
-0.000251 -0.001984 0
0.000000 -0.000761 0
0.000000 0.001525 0
-0.000109 0.003178 0
-0.000399 0.002656 0
-0.000694 0.001427 0
-0.000906 0.000497 0
-0.001030 -0.000034 0
-0.001088 -0.000289 0
-0.001105 -0.000391 0
-0.001099 -0.000418 0
-0.001081 -0.000414 0
-0.001056 -0.000399 0
-0.001027 -0.000381 0
-0.000994 -0.000364 0
-0.000959 -0.000349 0
-0.000921 -0.000336 0
-0.000883 -0.000324 0
-0.000843 -0.000314 0
-0.000802 -0.000305 0
-0.000760 -0.000297 0
-0.000718 -0.000290 0
-0.000676 -0.000284 0
-0.000633 -0.000279 0
-0.000590 -0.000274 0
-0.000547 -0.000269 0
-0.000505 -0.000264 0
-0.000462 -0.000260 0
-0.000419 -0.000256 0
-0.000377 -0.000253 0
-0.000335 -0.000252 0
-0.000292 -0.000254 0
-0.000248 -0.000261 0
-0.000203 -0.000274 0
-0.000156 -0.000291 0
-0.000107 -0.000301 0
-0.000059 -0.000283 0
-0.000020 -0.000199 0
0.000000 -0.000067 0
0.000000 0.000000 0
0.000000 0.000000 0
0.000000 0.000000 0
0.000000 0.000168 0
-0.000005 0.000518 0
-0.000025 0.000763 0
-0.000060 0.000819 0
-0.000106 0.000764 0
-0.000159 0.000661 0
-0.000215 0.000550 0
-0.000271 0.000453 0
-0.000326 0.000376 0
-0.000380 0.000319 0
-0.000433 0.000277 0
-0.000485 0.000247 0
-0.000536 0.000223 0
-0.000586 0.000204 0
-0.000635 0.000188 0
-0.000682 0.000174 0
-0.000728 0.000160 0
-0.000771 0.000147 0
-0.000811 0.000135 0
-0.000849 0.000123 0
-0.000883 0.000112 0
-0.000914 0.000102 0
-0.000942 0.000093 0
-0.000966 0.000085 0
-0.000989 0.000079 0
-0.001009 0.000073 0
-0.001027 0.000068 0
-0.001045 0.000064 0
-0.001061 0.000060 0
-0.001077 0.000056 0
-0.001093 0.000053 0
-0.001108 0.000050 0
-0.001123 0.000048 0
-0.001137 0.000045 0
-0.001150 0.000042 0
-0.001164 0.000039 0
-0.001177 0.000035 0
-0.001189 0.000029 0
-0.001202 0.000021 0
-0.001214 0.000011 0
-0.001226 -0.000002 0
-0.001237 -0.000014 0
-0.001246 -0.000023 0
-0.001255 -0.000022 0
-0.001263 -0.000006 0
-0.001271 0.000034 0
-0.001283 0.000101 0
-0.001300 0.000193 0
-0.001325 0.000295 0
-0.001358 0.000377 0
-0.001395 0.000390 0
-0.001424 0.000271 0
-0.001425 -0.000044 0
-0.001367 -0.000596 0
-0.001221 -0.001361 0
-0.000966 -0.002187 0
-0.000611 -0.002717 0
-0.000230 -0.002305 0
0.000000 -0.000882 0
0.000000 0.001570 0
-0.000077 0.003353 0
-0.000313 0.002922 0
-0.000566 0.001663 0
-0.000753 0.000656 0
-0.000863 0.000053 0
-0.000915 -0.000252 0
-0.000932 -0.000383 0
-0.000930 -0.000426 0
-0.000919 -0.000430 0
-0.000902 -0.000420 0
-0.000882 -0.000406 0
-0.000858 -0.000392 0
-0.000832 -0.000380 0
-0.000804 -0.000369 0
-0.000773 -0.000359 0
-0.000741 -0.000350 0
-0.000708 -0.000343 0
-0.000673 -0.000336 0
-0.000637 -0.000329 0
-0.000600 -0.000324 0
-0.000563 -0.000319 0
-0.000526 -0.000314 0
-0.000488 -0.000309 0
-0.000449 -0.000305 0
-0.000411 -0.000301 0
-0.000373 -0.000296 0
-0.000335 -0.000293 0
-0.000297 -0.000292 0
-0.000259 -0.000295 0
-0.000219 -0.000304 0
-0.000178 -0.000319 0
-0.000136 -0.000337 0
-0.000092 -0.000347 0
-0.000050 -0.000324 0
-0.000016 -0.000226 0
0.000000 -0.000076 0
0.000000 0.000000 0
0.000000 0.000000 0
0.000000 0.000000 0
0.000000 0.000167 0
0.000007 0.000519 0
0.000016 0.000773 0
0.000018 0.000840 0
0.000009 0.000795 0
-0.000009 0.000699 0
-0.000035 0.000593 0
-0.000067 0.000499 0
-0.000103 0.000423 0
-0.000143 0.000367 0
-0.000185 0.000326 0
-0.000230 0.000296 0
-0.000276 0.000273 0
-0.000324 0.000254 0
-0.000373 0.000238 0
-0.000422 0.000222 0
-0.000471 0.000207 0
-0.000519 0.000192 0
-0.000565 0.000177 0
-0.000608 0.000162 0
-0.000648 0.000147 0
-0.000685 0.000134 0
-0.000717 0.000121 0
-0.000746 0.000110 0
-0.000771 0.000101 0
-0.000794 0.000093 0
-0.000814 0.000087 0
-0.000833 0.000082 0
-0.000852 0.000077 0
-0.000870 0.000073 0
-0.000887 0.000070 0
-0.000905 0.000066 0
-0.000922 0.000063 0
-0.000939 0.000060 0
-0.000956 0.000057 0
-0.000972 0.000054 0
-0.000989 0.000050 0
-0.001005 0.000044 0
-0.001022 0.000036 0
-0.001039 0.000025 0
-0.001056 0.000012 0
-0.001073 -0.000001 0
-0.001089 -0.000011 0
-0.001104 -0.000011 0
-0.001117 0.000005 0
-0.001130 0.000046 0
-0.001144 0.000115 0
-0.001160 0.000212 0
-0.001181 0.000321 0
-0.001207 0.000408 0
-0.001236 0.000419 0
-0.001258 0.000283 0
-0.001257 -0.000072 0
-0.001208 -0.000692 0
-0.001083 -0.001549 0
-0.000861 -0.002474 0
-0.000548 -0.003064 0
-0.000207 -0.002595 0
0.000000 -0.000991 0
0.000000 0.001602 0
-0.000055 0.003492 0
-0.000249 0.003145 0
-0.000466 0.001867 0
-0.000628 0.000794 0
-0.000723 0.000128 0
-0.000766 -0.000220 0
-0.000778 -0.000376 0
-0.000776 -0.000431 0
-0.000766 -0.000442 0
-0.000754 -0.000435 0
-0.000739 -0.000424 0
-0.000722 -0.000413 0
-0.000703 -0.000403 0
-0.000682 -0.000394 0
-0.000659 -0.000386 0
-0.000634 -0.000380 0
-0.000607 -0.000373 0
-0.000578 -0.000368 0
-0.000548 -0.000362 0
-0.000517 -0.000358 0
-0.000486 -0.000353 0
-0.000454 -0.000349 0
-0.000421 -0.000345 0
-0.000388 -0.000340 0
-0.000355 -0.000336 0
-0.000321 -0.000332 0
-0.000288 -0.000329 0
-0.000255 -0.000328 0
-0.000222 -0.000331 0
-0.000187 -0.000341 0
-0.000151 -0.000358 0
-0.000114 -0.000377 0
-0.000077 -0.000386 0
-0.000041 -0.000359 0
-0.000013 -0.000249 0
0.000000 -0.000083 0
0.000000 0.000000 0
0.000000 0.000000 0
0.000000 0.000000 0
0.000000 0.000161 0
0.000016 0.000502 0
0.000048 0.000753 0
0.000081 0.000825 0