# vtk DataFile Version 2.0
generated by CFD-lab course output (written by Tobias Neckel) 
ASCII

DATASET STRUCTURED_GRID
DIMENSIONS  99 49 1 
POINTS 4851 float

0.000000 0.000000 0
0.020000 0.000000 0
0.040000 0.000000 0
0.060000 0.000000 0
0.080000 0.000000 0
0.100000 0.000000 0
0.120000 0.000000 0
0.140000 0.000000 0
0.160000 0.000000 0
0.180000 0.000000 0
0.200000 0.000000 0
0.220000 0.000000 0
0.240000 0.000000 0
0.260000 0.000000 0
0.280000 0.000000 0
0.300000 0.000000 0
0.320000 0.000000 0
0.340000 0.000000 0
0.360000 0.000000 0
0.380000 0.000000 0
0.400000 0.000000 0
0.420000 0.000000 0
0.440000 0.000000 0
0.460000 0.000000 0
0.480000 0.000000 0
0.500000 0.000000 0
0.520000 0.000000 0
0.540000 0.000000 0
0.560000 0.000000 0
0.580000 0.000000 0
0.600000 0.000000 0
0.620000 0.000000 0
0.640000 0.000000 0
0.660000 0.000000 0
0.680000 0.000000 0
0.700000 0.000000 0
0.720000 0.000000 0
0.740000 0.000000 0
0.760000 0.000000 0
0.780000 0.000000 0
0.800000 0.000000 0
0.820000 0.000000 0
0.840000 0.000000 0
0.860000 0.000000 0
0.880000 0.000000 0
0.900000 0.000000 0
0.920000 0.000000 0
0.940000 0.000000 0
0.960000 0.000000 0
0.980000 0.000000 0
1.000000 0.000000 0
1.020000 0.000000 0
1.040000 0.000000 0
1.060000 0.000000 0
1.080000 0.000000 0
1.100000 0.000000 0
1.120000 0.000000 0
1.140000 0.000000 0
1.160000 0.000000 0
1.180000 0.000000 0
1.200000 0.000000 0
1.220000 0.000000 0
1.240000 0.000000 0
1.260000 0.000000 0
1.280000 0.000000 0
1.300000 0.000000 0
1.320000 0.000000 0
1.340000 0.000000 0
1.360000 0.000000 0
1.380000 0.000000 0
1.400000 0.000000 0
1.420000 0.000000 0
1.440000 0.000000 0
1.460000 0.000000 0
1.480000 0.000000 0
1.500000 0.000000 0
1.520000 0.000000 0
1.540000 0.000000 0
1.560000 0.000000 0
1.580000 0.000000 0
1.600000 0.000000 0
1.620000 0.000000 0
1.640000 0.000000 0
1.660000 0.000000 0
1.680000 0.000000 0
1.700000 0.000000 0
1.720000 0.000000 0
1.740000 0.000000 0
1.760000 0.000000 0
1.780000 0.000000 0
1.800000 0.000000 0
1.820000 0.000000 0
1.840000 0.000000 0
1.860000 0.000000 0
1.880000 0.000000 0
1.900000 0.000000 0
1.920000 0.000000 0
1.940000 0.000000 0
1.960000 0.000000 0
0.000000 0.020000 0
0.020000 0.020000 0
0.040000 0.020000 0
0.060000 0.020000 0
0.080000 0.020000 0
0.100000 0.020000 0
0.120000 0.020000 0
0.140000 0.020000 0
0.160000 0.020000 0
0.180000 0.020000 0
0.200000 0.020000 0
0.220000 0.020000 0
0.240000 0.020000 0
0.260000 0.020000 0
0.280000 0.020000 0
0.300000 0.020000 0
0.320000 0.020000 0
0.340000 0.020000 0
0.360000 0.020000 0
0.380000 0.020000 0
0.400000 0.020000 0
0.420000 0.020000 0
0.440000 0.020000 0
0.460000 0.020000 0
0.480000 0.020000 0
0.500000 0.020000 0
0.520000 0.020000 0
0.540000 0.020000 0
0.560000 0.020000 0
0.580000 0.020000 0
0.600000 0.020000 0
0.620000 0.020000 0
0.640000 0.020000 0
0.660000 0.020000 0
0.680000 0.020000 0
0.700000 0.020000 0
0.720000 0.020000 0
0.740000 0.020000 0
0.760000 0.020000 0
0.780000 0.020000 0
0.800000 0.020000 0
0.820000 0.020000 0
0.840000 0.020000 0
0.860000 0.020000 0
0.880000 0.020000 0
0.900000 0.020000 0
0.920000 0.020000 0
0.940000 0.020000 0
0.960000 0.020000 0
0.980000 0.020000 0
1.000000 0.020000 0
1.020000 0.020000 0
1.040000 0.020000 0
1.060000 0.020000 0
1.080000 0.020000 0
1.100000 0.020000 0
1.120000 0.020000 0
1.140000 0.020000 0
1.160000 0.020000 0
1.180000 0.020000 0
1.200000 0.020000 0
1.220000 0.020000 0
1.240000 0.020000 0
1.260000 0.020000 0
1.280000 0.020000 0
1.300000 0.020000 0
1.320000 0.020000 0
1.340000 0.020000 0
1.360000 0.020000 0
1.380000 0.020000 0
1.400000 0.020000 0
1.420000 0.020000 0
1.440000 0.020000 0
1.460000 0.020000 0
1.480000 0.020000 0
1.500000 0.020000 0
1.520000 0.020000 0
1.540000 0.020000 0
1.560000 0.020000 0
1.580000 0.020000 0
1.600000 0.020000 0
1.620000 0.020000 0
1.640000 0.020000 0
1.660000 0.020000 0
1.680000 0.020000 0
1.700000 0.020000 0
1.720000 0.020000 0
1.740000 0.020000 0
1.760000 0.020000 0
1.780000 0.020000 0
1.800000 0.020000 0
1.820000 0.020000 0
1.840000 0.020000 0
1.860000 0.020000 0
1.880000 0.020000 0
1.900000 0.020000 0
1.920000 0.020000 0
1.940000 0.020000 0
1.960000 0.020000 0
0.000000 0.040000 0
0.020000 0.040000 0
0.040000 0.040000 0
0.060000 0.040000 0
0.080000 0.040000 0
0.100000 0.040000 0
0.120000 0.040000 0
0.140000 0.040000 0
0.160000 0.040000 0
0.180000 0.040000 0
0.200000 0.040000 0
0.220000 0.040000 0
0.240000 0.040000 0
0.260000 0.040000 0
0.280000 0.040000 0
0.300000 0.040000 0
0.320000 0.040000 0
0.340000 0.040000 0
0.360000 0.040000 0
0.380000 0.040000 0
0.400000 0.040000 0
0.420000 0.040000 0
0.440000 0.040000 0
0.460000 0.040000 0
0.480000 0.040000 0
0.500000 0.040000 0
0.520000 0.040000 0
0.540000 0.040000 0
0.560000 0.040000 0
0.580000 0.040000 0
0.600000 0.040000 0
0.620000 0.040000 0
0.640000 0.040000 0
0.660000 0.040000 0
0.680000 0.040000 0
0.700000 0.040000 0
0.720000 0.040000 0
0.740000 0.040000 0
0.760000 0.040000 0
0.780000 0.040000 0
0.800000 0.040000 0
0.820000 0.040000 0
0.840000 0.040000 0
0.860000 0.040000 0
0.880000 0.040000 0
0.900000 0.040000 0
0.920000 0.040000 0
0.940000 0.040000 0
0.960000 0.040000 0
0.980000 0.040000 0
1.000000 0.040000 0
1.020000 0.040000 0
1.040000 0.040000 0
1.060000 0.040000 0
1.080000 0.040000 0
1.100000 0.040000 0
1.120000 0.040000 0
1.140000 0.040000 0
1.160000 0.040000 0
1.180000 0.040000 0
1.200000 0.040000 0
1.220000 0.040000 0
1.240000 0.040000 0
1.260000 0.040000 0
1.280000 0.040000 0
1.300000 0.040000 0
1.320000 0.040000 0
1.340000 0.040000 0
1.360000 0.040000 0
1.380000 0.040000 0
1.400000 0.040000 0
1.420000 0.040000 0
1.440000 0.040000 0
1.460000 0.040000 0
1.480000 0.040000 0
1.500000 0.040000 0
1.520000 0.040000 0
1.540000 0.040000 0
1.560000 0.040000 0
1.580000 0.040000 0
1.600000 0.040000 0
1.620000 0.040000 0
1.640000 0.040000 0
1.660000 0.040000 0
1.680000 0.040000 0
1.700000 0.040000 0
1.720000 0.040000 0
1.740000 0.040000 0
1.760000 0.040000 0
1.780000 0.040000 0
1.800000 0.040000 0
1.820000 0.040000 0
1.840000 0.040000 0
1.860000 0.040000 0
1.880000 0.040000 0
1.900000 0.040000 0
1.920000 0.040000 0
1.940000 0.040000 0
1.960000 0.040000 0
0.000000 0.060000 0
0.020000 0.060000 0
0.040000 0.060000 0
0.060000 0.060000 0
0.080000 0.060000 0
0.100000 0.060000 0
0.120000 0.060000 0
0.140000 0.060000 0
0.160000 0.060000 0
0.180000 0.060000 0
0.200000 0.060000 0
0.220000 0.060000 0
0.240000 0.060000 0
0.260000 0.060000 0
0.280000 0.060000 0
0.300000 0.060000 0
0.320000 0.060000 0
0.340000 0.060000 0
0.360000 0.060000 0
0.380000 0.060000 0
0.400000 0.060000 0
0.420000 0.060000 0
0.440000 0.060000 0
0.460000 0.060000 0
0.480000 0.060000 0
0.500000 0.060000 0
0.520000 0.060000 0
0.540000 0.060000 0
0.560000 0.060000 0
0.580000 0.060000 0
0.600000 0.060000 0
0.620000 0.060000 0
0.640000 0.060000 0
0.660000 0.060000 0
0.680000 0.060000 0
0.700000 0.060000 0
0.720000 0.060000 0
0.740000 0.060000 0
0.760000 0.060000 0
0.780000 0.060000 0
0.800000 0.060000 0
0.820000 0.060000 0
0.840000 0.060000 0
0.860000 0.060000 0
0.880000 0.060000 0
0.900000 0.060000 0
0.920000 0.060000 0
0.940000 0.060000 0
0.960000 0.060000 0
0.980000 0.060000 0
1.000000 0.060000 0
1.020000 0.060000 0
1.040000 0.060000 0
1.060000 0.060000 0
1.080000 0.060000 0
1.100000 0.060000 0
1.120000 0.060000 0
1.140000 0.060000 0
1.160000 0.060000 0
1.180000 0.060000 0
1.200000 0.060000 0
1.220000 0.060000 0
1.240000 0.060000 0
1.260000 0.060000 0
1.280000 0.060000 0
1.300000 0.060000 0
1.320000 0.060000 0
1.340000 0.060000 0
1.360000 0.060000 0
1.380000 0.060000 0
1.400000 0.060000 0
1.420000 0.060000 0
1.440000 0.060000 0
1.460000 0.060000 0
1.480000 0.060000 0
1.500000 0.060000 0
1.520000 0.060000 0
1.540000 0.060000 0
1.560000 0.060000 0
1.580000 0.060000 0
1.600000 0.060000 0
1.620000 0.060000 0
1.640000 0.060000 0
1.660000 0.060000 0
1.680000 0.060000 0
1.700000 0.060000 0
1.720000 0.060000 0
1.740000 0.060000 0
1.760000 0.060000 0
1.780000 0.060000 0
1.800000 0.060000 0
1.820000 0.060000 0
1.840000 0.060000 0
1.860000 0.060000 0
1.880000 0.060000 0
1.900000 0.060000 0
1.920000 0.060000 0
1.940000 0.060000 0
1.960000 0.060000 0
0.000000 0.080000 0
0.020000 0.080000 0
0.040000 0.080000 0
0.060000 0.080000 0
0.080000 0.080000 0
0.100000 0.080000 0
0.120000 0.080000 0
0.140000 0.080000 0
0.160000 0.080000 0
0.180000 0.080000 0
0.200000 0.080000 0
0.220000 0.080000 0
0.240000 0.080000 0
0.260000 0.080000 0
0.280000 0.080000 0
0.300000 0.080000 0
0.320000 0.080000 0
0.340000 0.080000 0
0.360000 0.080000 0
0.380000 0.080000 0
0.400000 0.080000 0
0.420000 0.080000 0
0.440000 0.080000 0
0.460000 0.080000 0
0.480000 0.080000 0
0.500000 0.080000 0
0.520000 0.080000 0
0.540000 0.080000 0
0.560000 0.080000 0
0.580000 0.080000 0
0.600000 0.080000 0
0.620000 0.080000 0
0.640000 0.080000 0
0.660000 0.080000 0
0.680000 0.080000 0
0.700000 0.080000 0
0.720000 0.080000 0
0.740000 0.080000 0
0.760000 0.080000 0
0.780000 0.080000 0
0.800000 0.080000 0
0.820000 0.080000 0
0.840000 0.080000 0
0.860000 0.080000 0
0.880000 0.080000 0
0.900000 0.080000 0
0.920000 0.080000 0
0.940000 0.080000 0
0.960000 0.080000 0
0.980000 0.080000 0
1.000000 0.080000 0
1.020000 0.080000 0
1.040000 0.080000 0
1.060000 0.080000 0
1.080000 0.080000 0
1.100000 0.080000 0
1.120000 0.080000 0
1.140000 0.080000 0
1.160000 0.080000 0
1.180000 0.080000 0
1.200000 0.080000 0
1.220000 0.080000 0
1.240000 0.080000 0
1.260000 0.080000 0
1.280000 0.080000 0
1.300000 0.080000 0
1.320000 0.080000 0
1.340000 0.080000 0
1.360000 0.080000 0
1.380000 0.080000 0
1.400000 0.080000 0
1.420000 0.080000 0
1.440000 0.080000 0
1.460000 0.080000 0
1.480000 0.080000 0
1.500000 0.080000 0
1.520000 0.080000 0
1.540000 0.080000 0
1.560000 0.080000 0
1.580000 0.080000 0
1.600000 0.080000 0
1.620000 0.080000 0
1.640000 0.080000 0
1.660000 0.080000 0
1.680000 0.080000 0
1.700000 0.080000 0
1.720000 0.080000 0
1.740000 0.080000 0
1.760000 0.080000 0
1.780000 0.080000 0
1.800000 0.080000 0
1.820000 0.080000 0
1.840000 0.080000 0
1.860000 0.080000 0
1.880000 0.080000 0
[...]
POINT_DATA 4851 

VECTORS velocity float
0.000000 0.000000 0
-0.000355 0.000000 0
-0.000490 0.000000 0
-0.000461 0.000000 0
-0.000390 0.000000 0
-0.000325 0.000000 0
-0.000276 0.000000 0
-0.000240 0.000000 0
-0.000213 0.000000 0
-0.000193 0.000000 0
-0.000176 0.000000 0
-0.000162 0.000000 0
-0.000150 0.000000 0
-0.000140 0.000000 0
-0.000130 0.000000 0
-0.000122 0.000000 0
-0.000113 0.000000 0
-0.000106 0.000000 0
-0.000099 0.000000 0
-0.000092 0.000000 0
-0.000086 0.000000 0
-0.000080 0.000000 0
-0.000074 0.000000 0
-0.000068 0.000000 0
-0.000062 0.000000 0
-0.000057 0.000000 0
-0.000052 0.000000 0
-0.000047 0.000000 0
-0.000042 0.000000 0
-0.000038 0.000000 0
-0.000033 0.000000 0
-0.000028 0.000000 0
-0.000023 0.000000 0
-0.000016 0.000000 0
-0.000009 0.000000 0
-0.000003 0.000000 0
0.000000 0.000000 0
0.000000 0.000000 0
0.000000 0.000000 0
0.000000 0.000000 0
0.000000 0.000000 0
-0.000014 0.000000 0
-0.000046 0.000000 0
-0.000081 0.000000 0
-0.000110 0.000000 0
-0.000131 0.000000 0
-0.000145 0.000000 0
-0.000154 0.000000 0
-0.000160 0.000000 0
-0.000164 0.000000 0
-0.000167 0.000000 0
-0.000169 0.000000 0
-0.000171 0.000000 0
-0.000173 0.000000 0
-0.000175 0.000000 0
-0.000176 0.000000 0
-0.000178 0.000000 0
-0.000179 0.000000 0
-0.000180 0.000000 0
-0.000182 0.000000 0
-0.000183 0.000000 0
-0.000184 0.000000 0
-0.000185 0.000000 0
-0.000186 0.000000 0
-0.000187 0.000000 0
-0.000188 0.000000 0
-0.000189 0.000000 0
-0.000190 0.000000 0
-0.000191 0.000000 0
-0.000192 0.000000 0
-0.000192 0.000000 0
-0.000193 0.000000 0
-0.000194 0.000000 0
-0.000195 0.000000 0
-0.000196 0.000000 0
-0.000197 0.000000 0
-0.000197 0.000000 0
-0.000198 0.000000 0
-0.000199 0.000000 0
-0.000199 0.000000 0
-0.000199 0.000000 0
-0.000198 0.000000 0
-0.000197 0.000000 0
-0.000196 0.000000 0
-0.000195 0.000000 0
-0.000195 0.000000 0
-0.000197 0.000000 0
-0.000202 0.000000 0
-0.000212 0.000000 0
-0.000226 0.000000 0
-0.000244 0.000000 0
-0.000264 0.000000 0
-0.000281 0.000000 0
-0.000288 0.000000 0
-0.000274 0.000000 0
-0.000231 0.000000 0
-0.000154 0.000000 0
-0.000061 0.000000 0
0.000000 0.000000 0
0.000000 0.000355 0
-0.000709 0.000491 0
-0.001133 0.000107 0
-0.001202 -0.000099 0
-0.001115 -0.000135 0
-0.000993 -0.000114 0
-0.000879 -0.000085 0
-0.000786 -0.000062 0
-0.000710 -0.000047 0
-0.000648 -0.000036 0
-0.000597 -0.000030 0
-0.000552 -0.000025 0
-0.000513 -0.000022 0
-0.000479 -0.000019 0
-0.000447 -0.000018 0
-0.000418 -0.000016 0
-0.000391 -0.000015 0
-0.000366 -0.000014 0
-0.000342 -0.000013 0
-0.000319 -0.000012 0
-0.000297 -0.000012 0
-0.000276 -0.000011 0
-0.000255 -0.000011 0
-0.000236 -0.000011 0
-0.000217 -0.000010 0
-0.000198 -0.000010 0
-0.000180 -0.000009 0
-0.000163 -0.000009 0
-0.000146 -0.000009 0
-0.000129 -0.000009 0
-0.000112 -0.000009 0
-0.000095 -0.000010 0
-0.000075 -0.000011 0
-0.000054 -0.000013 0
-0.000030 -0.000013 0
-0.000010 -0.000008 0
0.000000 -0.000002 0
0.000000 0.000000 0
0.000000 0.000000 0
0.000000 0.000000 0
0.000000 0.000014 0
-0.000045 0.000046 0
-0.000136 0.000066 0
-0.000237 0.000063 0
-0.000326 0.000050 0
-0.000396 0.000035 0
-0.000446 0.000023 0
-0.000482 0.000014 0
-0.000507 0.000009 0
-0.000525 0.000006 0
-0.000538 0.000005 0
-0.000549 0.000004 0
-0.000559 0.000003 0
-0.000567 0.000003 0
-0.000574 0.000003 0
-0.000581 0.000003 0
-0.000587 0.000002 0
-0.000593 0.000002 0
-0.000598 0.000002 0
-0.000603 0.000002 0
-0.000608 0.000002 0
-0.000612 0.000002 0
-0.000617 0.000002 0
-0.000620 0.000002 0
-0.000624 0.000002 0
-0.000628 0.000001 0
-0.000631 0.000001 0
-0.000634 0.000001 0
-0.000637 0.000001 0
-0.000640 0.000001 0
-0.000643 0.000001 0
-0.000646 0.000001 0
-0.000649 0.000001 0
-0.000652 0.000001 0
-0.000654 0.000001 0
-0.000657 0.000001 0
-0.000659 0.000001 0
-0.000661 0.000001 0
-0.000662 0.000000 0
-0.000662 -0.000000 0
-0.000660 -0.000001 0
-0.000658 -0.000002 0
-0.000654 -0.000003 0
-0.000651 -0.000003 0
-0.000648 -0.000001 0
-0.000649 0.000002 0
-0.000657 0.000007 0
-0.000674 0.000015 0
-0.000703 0.000023 0
-0.000744 0.000032 0
-0.000795 0.000038 0
-0.000846 0.000036 0
-0.000883 0.000023 0
-0.000883 -0.000008 0
-0.000821 -0.000057 0
-0.000675 -0.000120 0
-0.000443 -0.000170 0
-0.000173 -0.000155 0
0.000000 -0.000061 0
0.000000 0.000710 0
-0.000613 0.001135 0
-0.001209 0.000494 0
-0.001484 -0.000018 0
-0.001525 -0.000209 0
-0.001456 -0.000235 0
-0.001352 -0.000206 0
-0.001246 -0.000169 0
-0.001148 -0.000137 0
-0.001062 -0.000113 0
-0.000987 -0.000095 0
-0.000920 -0.000082 0
-0.000859 -0.000073 0
-0.000804 -0.000065 0
-0.000754 -0.000060 0
-0.000707 -0.000055 0
-0.000662 -0.000052 0
-0.000621 -0.000049 0
-0.000581 -0.000046 0
-0.000543 -0.000044 0
-0.000506 -0.000042 0
-0.000470 -0.000041 0
-0.000436 -0.000039 0
-0.000403 -0.000038 0
-0.000370 -0.000037 0
-0.000338 -0.000036 0
-0.000307 -0.000034 0
-0.000277 -0.000033 0
-0.000248 -0.000033 0
-0.000218 -0.000033 0
-0.000189 -0.000034 0
-0.000157 -0.000036 0
-0.000124 -0.000040 0
-0.000088 -0.000044 0
-0.000050 -0.000043 0
-0.000017 -0.000030 0
0.000000 -0.000010 0
0.000000 0.000000 0
0.000000 0.000000 0
0.000000 0.000000 0
0.000000 0.000045 0
-0.000065 0.000135 0
-0.000190 0.000191 0
-0.000332 0.000189 0
-0.000465 0.000158 0
-0.000576 0.000120 0
-0.000662 0.000086 0
-0.000727 0.000060 0
-0.000776 0.000042 0
-0.000814 0.000031 0
-0.000843 0.000024 0
-0.000867 0.000020 0
-0.000888 0.000017 0
-0.000906 0.000015 0
-0.000921 0.000014 0
-0.000936 0.000012 0
-0.000949 0.000011 0
-0.000960 0.000011 0
-0.000971 0.000010 0
-0.000981 0.000009 0
-0.000991 0.000009 0
-0.000999 0.000008 0
-0.001007 0.000008 0
-0.001015 0.000007 0
-0.001022 0.000007 0
-0.001028 0.000006 0
-0.001034 0.000006 0
-0.001040 0.000006 0
-0.001046 0.000006 0
-0.001051 0.000005 0
-0.001056 0.000005 0
-0.001061 0.000005 0
-0.001065 0.000005 0
-0.001069 0.000005 0
-0.001073 0.000005 0
-0.001077 0.000004 0
-0.001080 0.000003 0
-0.001082 0.000002 0
-0.001083 0.000001 0
-0.001083 -0.000002 0
-0.001080 -0.000004 0
-0.001076 -0.000007 0
-0.001070 -0.000008 0
-0.001065 -0.000007 0
-0.001061 -0.000002 0
-0.001063 0.000008 0
-0.001076 0.000024 0
-0.001101 0.000046 0
-0.001143 0.000070 0
-0.001201 0.000092 0
-0.001267 0.000101 0
-0.001328 0.000087 0
-0.001361 0.000036 0
-0.001334 -0.000062 0
-0.001213 -0.000209 0
-0.000975 -0.000379 0
-0.000627 -0.000503 0
-0.000241 -0.000443 0
0.000000 -0.000173 0
0.000000 0.000969 0
-0.000435 0.001701 0
-0.001014 0.000979 0
-0.001392 0.000217 0
-0.001552 -0.000163 0
-0.001570 -0.000286 0
-0.001520 -0.000295 0
-0.001442 -0.000266 0
-0.001357 -0.000230 0
-0.001274 -0.000198 0
-0.001196 -0.000172 0
-0.001124 -0.000152 0
-0.001057 -0.000137 0
-0.000995 -0.000125 0
-0.000936 -0.000115 0
-0.000881 -0.000107 0
-0.000828 -0.000101 0
-0.000778 -0.000095 0
-0.000729 -0.000091 0
-0.000682 -0.000087 0
-0.000637 -0.000084 0
-0.000593 -0.000081 0
-0.000550 -0.000078 0
-0.000508 -0.000076 0
-0.000467 -0.000074 0
-0.000427 -0.000072 0
-0.000388 -0.000070 0
-0.000349 -0.000068 0
-0.000311 -0.000067 0
-0.000274 -0.000067 0
-0.000235 -0.000069 0
-0.000195 -0.000074 0
-0.000152 -0.000081 0
-0.000107 -0.000086 0
-0.000062 -0.000083 0
-0.000021 -0.000058 0
0.000000 -0.000020 0
0.000000 0.000000 0
0.000000 0.000000 0
0.000000 0.000000 0
0.000000 0.000079 0
-0.000064 0.000235 0
-0.000191 0.000333 0
-0.000340 0.000338 0
-0.000485 0.000293 0
-0.000612 0.000232 0
-0.000717 0.000174 0
-0.000801 0.000129 0
-0.000867 0.000096 0
-0.000921 0.000073 0
-0.000964 0.000058 0
-0.001001 0.000048 0
-0.001032 0.000041 0
-0.001059 0.000036 0
-0.001084 0.000033 0
-0.001106 0.000030 0
-0.001125 0.000027 0
-0.001144 0.000025 0
-0.001160 0.000023 0
-0.001175 0.000021 0
-0.001189 0.000020 0
-0.001202 0.000018 0
-0.001213 0.000017 0
-0.001224 0.000016 0
-0.001234 0.000015 0
-0.001243 0.000014 0
-0.001252 0.000013 0
-0.001260 0.000012 0
-0.001267 0.000012 0
-0.001274 0.000011 0
-0.001281 0.000011 0
-0.001287 0.000010 0
-0.001293 0.000010 0
-0.001298 0.000009 0
-0.001303 0.000009 0
-0.001307 0.000008 0
-0.001311 0.000006 0
-0.001313 0.000004 0
-0.001315 0.000000 0
-0.001314 -0.000004 0
-0.001311 -0.000008 0
-0.001306 -0.000012 0
-0.001300 -0.000014 0
-0.001294 -0.000012 0
-0.001290 -0.000003 0
-0.001293 0.000016 0
-0.001306 0.000045 0
-0.001334 0.000082 0
-0.001378 0.000123 0
-0.001437 0.000156 0
-0.001502 0.000165 0
-0.001557 0.000130 0
-0.001575 0.000028 0
-0.001523 -0.000155 0
-0.001366 -0.000417 0
-0.001082 -0.000707 0
-0.000686 -0.000904 0
-0.000260 -0.000782 0
0.000000 -0.000302 0
0.000000 0.001145 0
-0.000296 0.002149 0
-0.000793 0.001452 0
-0.001187 0.000521 0
-0.001408 -0.000030 0
-0.001492 -0.000266 0
-0.001494 -0.000335 0
-0.001454 -0.000331 0
-0.001395 -0.000304 0
-0.001329 -0.000273 0
-0.001263 -0.000244 0
-0.001198 -0.000221 0
-0.001134 -0.000202 0
-0.001074 -0.000186 0
-0.001015 -0.000174 0
-0.000959 -0.000163 0
-0.000905 -0.000155 0
-0.000852 -0.000147 0
-0.000801 -0.000141 0
-0.000751 -0.000136 0
-0.000702 -0.000131 0
-0.000655 -0.000127 0
-0.000608 -0.000124 0
-0.000562 -0.000120 0
-0.000517 -0.000117 0
-0.000472 -0.000115 0
-0.000429 -0.000112 0
-0.000386 -0.000110 0
-0.000343 -0.000108 0
-0.000301 -0.000109 0
-0.000257 -0.000112 0
-0.000213 -0.000119 0
-0.000165 -0.000128 0
-0.000116 -0.000135 0
-0.000066 -0.000128 0
-0.000023 -0.000091 0
0.000000 -0.000031 0
0.000000 0.000000 0
0.000000 0.000000 0
0.000000 0.000000 0
0.000000 0.000108 0
-0.000053 0.000326 0
-0.000162 0.000467 0
-0.000296 0.000482 0
-0.000431 0.000430 0
-0.000556 0.000352 0
-0.000664 0.000274 0
-0.000755 0.000210 0
-0.000830 0.000162 0
-0.000893 0.000128 0
-0.000946 0.000104 0
-0.000992 0.000087 0
-0.001033 0.000075 0
-0.001069 0.000067 0
-0.001101 0.000060 0
-0.001130 0.000054 0
-0.001157 0.000049 0
-0.001182 0.000045 0
-0.001204 0.000041 0
-0.001224 0.000038 0
-0.001242 0.000035 0
-0.001259 0.000032 0
-0.001274 0.000030 0
-0.001288 0.000028 0
-0.001300 0.000026 0
-0.001312 0.000024 0
-0.001323 0.000023 0
-0.001333 0.000021 0
-0.001342 0.000020 0
-0.001351 0.000019 0
-0.001359 0.000018 0
-0.001366 0.000017 0
-0.001373 0.000016 0
-0.001380 0.000015 0
-0.001386 0.000014 0
-0.001391 0.000012 0
-0.001396 0.000009 0
-0.001399 0.000006 0
-0.001401 0.000001 0
-0.001401 -0.000006 0
-0.001399 -0.000012 0
-0.001396 -0.000018 0
-0.001391 -0.000020 0
-0.001386 -0.000017 0
-0.001383 -0.000003 0
-0.001386 0.000024 0
-0.001398 0.000065 0
-0.001424 0.000117 0
-0.001465 0.000173 0
-0.001518 0.000215 0
-0.001576 0.000221 0
-0.001622 0.000160 0
-0.001628 0.000003 0
-0.001561 -0.000271 0
-0.001389 -0.000650 0
-0.001091 -0.001060 0
-0.000685 -0.001325 0
-0.000257 -0.001129 0
0.000000 -0.000433 0
0.000000 0.001265 0
-0.000201 0.002494 0
-0.000607 0.001870 0
-0.000972 0.000833 0
-0.001208 0.000143 0
-0.001326 -0.000200 0
-0.001364 -0.000333 0
-0.001355 -0.000364 0
-0.001322 -0.000354 0
-0.001276 -0.000330 0
-0.001226 -0.000304 0
-0.001173 -0.000280 0
-0.001120 -0.000260 0
-0.001067 -0.000243 0
-0.001014 -0.000229 0
-0.000962 -0.000218 0
-0.000911 -0.000208 0
-0.000861 -0.000199 0
-0.000811 -0.000192 0
-0.000762 -0.000185 0
-0.000714 -0.000180 0
-0.000666 -0.000175 0
-0.000619 -0.000171 0
-0.000573 -0.000167 0
-0.000527 -0.000163 0
-0.000482 -0.000160 0
-0.000437 -0.000156 0
-0.000393 -0.000154 0
-0.000349 -0.000152 0
-0.000305 -0.000153 0
-0.000261 -0.000157 0
-0.000214 -0.000166 0
-0.000166 -0.000177 0
-0.000116 -0.000185 0
-0.000066 -0.000176 0
-0.000022 -0.000124 0
0.000000 -0.000042 0
0.000000 0.000000 0
0.000000 0.000000 0
0.000000 0.000000 0
0.000000 0.000131 0
-0.000037 0.000397 0
-0.000120 0.000576 0
-0.000225 0.000607 0
-0.000338 0.000553 0
-0.000446 0.000464 0
-0.000544 0.000373 0
-0.000631 0.000295 0
-0.000706 0.000234 0
-0.000772 0.000189 0
-0.000830 0.000157 0
-0.000882 0.000134 0
-0.000929 0.000117 0
-0.000972 0.000105 0
-0.001011 0.000094 0
-0.001047 0.000086 0
-0.001080 0.000078 0
-0.001111 0.000071 0
-0.001139 0.000065 0
-0.001164 0.000059 0
-0.001187 0.000054 0
-0.001207 0.000050 0
-0.001226 0.000046 0
-0.001242 0.000042 0
-0.001258 0.000039 0
-0.001272 0.000036 0
-0.001284 0.000034 0
-0.001296 0.000032 0
-0.001307 0.000030 0
-0.001318 0.000028 0
-0.001328 0.000026 0
-0.001337 0.000025 0
-0.001345 0.000023 0
-0.001353 0.000022 0
-0.001361 0.000020 0
-0.001368 0.000017 0
-0.001374 0.000014 0
-0.001379 0.000009 0
-0.001383 0.000002 0
-0.001385 -0.000006 0
-0.001386 -0.000014 0
-0.001385 -0.000021 0
-0.001383 -0.000025 0
-0.001380 -0.000020 0
-0.001380 -0.000002 0
-0.001383 0.000031 0
-0.001395 0.000083 0
-0.001417 0.000148 0
-0.001453 0.000217 0
-0.001499 0.000267 0
-0.001549 0.000268 0
-0.001585 0.000181 0
-0.001584 -0.000032 0
-0.001513 -0.000394 0
-0.001340 -0.000887 0
-0.001049 -0.001411 0
-0.000656 -0.001739 0
-0.000244 -0.001467 0
0.000000 -0.000559 0
0.000000 0.001347 0
-0.000137 0.002757 0
-0.000464 0.002224 0
-0.000785 0.001122 0
-0.001010 0.000324 0
-0.001136 -0.000111 0
-0.001191 -0.000306 0
-0.001201 -0.000373 0
-0.001187 -0.000382 0
-0.001159 -0.000368 0
-0.001124 -0.000347 0
-0.001085 -0.000327 0
-0.001043 -0.000308 0
-0.001000 -0.000292 0
-0.000956 -0.000278 0
-0.000911 -0.000266 0
-0.000866 -0.000256 0
-0.000821 -0.000247 0
-0.000776 -0.000239 0
-0.000731 -0.000233 0
-0.000686 -0.000227 0
-0.000641 -0.000221 0
-0.000596 -0.000217 0
-0.000552 -0.000212 0
-0.000508 -0.000208 0
-0.000464 -0.000204 0
-0.000421 -0.000201 0
-0.000378 -0.000198 0
-0.000336 -0.000196 0
-0.000293 -0.000197 0
-0.000249 -0.000202 0
-0.000205 -0.000213 0
-0.000158 -0.000226 0
-0.000109 -0.000235 0
-0.000061 -0.000222 0
-0.000020 -0.000156 0
0.000000 -0.000053 0
0.000000 0.000000 0
0.000000 0.000000 0
0.000000 0.000000 0
0.000000 0.000145 0
-0.000021 0.000445 0
-0.000074 0.000655 0
-0.000145 0.000700 0
-0.000226 0.000650 0
-0.000309 0.000558 0
-0.000389 0.000459 0
-0.000463 0.000372 0
-0.000531 0.000303 0
-0.000593 0.000251 0
-0.000650 0.000213 0
-0.000704 0.000186 0
-0.000754 0.000165 0
-0.000801 0.000149 0
-0.000846 0.000135 0
-0.000888 0.000123 0
-0.000927 0.000113 0
-0.000963 0.000103 0
-0.000997 0.000094 0
-0.001027 0.000086 0
-0.001055 0.000078 0
-0.001079 0.000071 0
-0.001101 0.000065 0
-0.001121 0.000059 0
-0.001139 0.000055 0
-0.001155 0.000051 0
-0.001170 0.000047 0
-0.001183 0.000044 0
-0.001196 0.000041 0
-0.001209 0.000039 0
-0.001220 0.000036 0
-0.001231 0.000034 0
-0.001241 0.000032 0
-0.001251 0.000030 0
-0.001261 0.000028 0
-0.001270 0.000025 0
-0.001278 0.000020 0
-0.001286 0.000015 0
-0.001293 0.000007 0
-0.001299 -0.000002 0
-0.001303 -0.000013 0
-0.001307 -0.000021 0
-0.001309 -0.000025 0
-0.001310 -0.000020 0
-0.001312 -0.000000 0
-0.001317 0.000039 0
-0.001328 0.000099 0
-0.001348 0.000175 0
-0.001378 0.000255 0
-0.001417 0.000311 0
-0.001458 0.000307 0
-0.001488 0.000195 0
-0.001483 -0.000070 0
-0.001414 -0.000515 0
-0.001251 -0.001114 0
-0.000979 -0.001744 0
-0.000611 -0.002130 0
-0.000227 -0.001785 0
0.000000 -0.000677 0
0.000000 0.001402 0
-0.000093 0.002958 0
-0.000356 0.002518 0
-0.000632 0.001379 0
-0.000835 0.000495 0
-0.000955 -0.000018 0
-0.001013 -0.000268 0
-0.001031 -0.000368 0
-0.001028 -0.000396 0
-0.001011 -0.000392 0
-0.000988 -0.000377 0
-0.000961 -0.000360 0
-0.000930 -0.000344 0
-0.000897 -0.000330 0
-0.000862 -0.000318 0
-0.000826 -0.000307 0
-0.000788 -0.000297 0
-0.000750 -0.000289 0
-0.000710 -0.000282 0
-0.000671 -0.000275 0
-0.000630 -0.000269 0
-0.000590 -0.000264 0
-0.000549 -0.000259 0
-0.000509 -0.000255 0
-0.000468 -0.000251 0
-0.000428 -0.000246 0
-0.000388 -0.000242 0
-0.000348 -0.000239 0
-0.000309 -0.000237 0
-0.000269 -0.000239 0
-0.000228 -0.000245 0
-0.000186 -0.000257 0
-0.000143 -0.000272 0
-0.000098 -0.000281 0
-0.000054 -0.000264 0
-0.000018 -0.000185 0
0.000000 -0.000063 0
0.000000 0.000000 0
0.000000 0.000000 0
0.000000 0.000000 0
0.000000 0.000152 0
-0.000007 0.000470 0
-0.000030 0.000700 0
-0.000067 0.000759 0
-0.000113 0.000716 0
-0.000165 0.000627 0
-0.000220 0.000527 0
-0.000276 0.000436 0
-0.000330 0.000364 0
-0.000383 0.000308 0
-0.000435 0.000268 0
-0.000486 0.000238 0
-0.000536 0.000215 0
-0.000585 0.000196 0
-0.000633 0.000181 0
-0.000679 0.000166 0
-0.000723 0.000153 0
-0.000765 0.000141 0
-0.000805 0.000129 0
-0.000841 0.000117 0
-0.000873 0.000106 0
-0.000903 0.000096 0
-0.000929 0.000087 0
-0.000952 0.000079 0
-0.000972 0.000073 0
-0.000990 0.000067 0
-0.001007 0.000062 0
-0.001022 0.000058 0
-0.001036 0.000055 0
-0.001050 0.000051 0
-0.001064 0.000049 0
-0.001077 0.000046 0
-0.001089 0.000043 0
-0.001101 0.000041 0
-0.001113 0.000038 0
-0.001125 0.000034 0
-0.001136 0.000030 0
-0.001147 0.000023 0
-0.001157 0.000015 0
-0.001167 0.000005 0
-0.001177 -0.000006 0
-0.001185 -0.000016 0
-0.001192 -0.000021 0
-0.001198 -0.000016 0
-0.001205 0.000005 0
-0.001213 0.000047 0
-0.001224 0.000113 0
-0.001241 0.000198 0
-0.001266 0.000286 0
-0.001298 0.000348 0
-0.001332 0.000339 0
-0.001355 0.000205 0
-0.001349 -0.000107 0
-0.001286 -0.000626 0
-0.001140 -0.001322 0
-0.000893 -0.002051 0
-0.000560 -0.002491 0
-0.000208 -0.002079 0
0.000000 -0.000786 0
0.000000 0.001441 0
-0.000064 0.003114 0
-0.000276 0.002763 0
-0.000511 0.001601 0
-0.000690 0.000648 0
-0.000798 0.000068 0
-0.000851 -0.000229 0
-0.000870 -0.000359 0
-0.000870 -0.000402 0
-0.000860 -0.000407 0
-0.000844 -0.000398 0
-0.000826 -0.000384 0
-0.000804 -0.000371 0
-0.000779 -0.000359 0
-0.000753 -0.000349 0
-0.000724 -0.000340 0
-0.000694 -0.000332 0
-0.000662 -0.000325 0
-0.000629 -0.000318 0
-0.000595 -0.000312 0
-0.000560 -0.000307 0
-0.000525 -0.000302 0
-0.000489 -0.000298 0
-0.000453 -0.000293 0
-0.000417 -0.000289 0
-0.000381 -0.000284 0
-0.000345 -0.000280 0
-0.000310 -0.000277 0
-0.000274 -0.000275 0
-0.000238 -0.000277 0
-0.000202 -0.000285 0
-0.000164 -0.000298 0
-0.000124 -0.000315 0
-0.000084 -0.000323 0
-0.000046 -0.000301 0
-0.000014 -0.000210 0
0.000000 -0.000071 0
0.000000 0.000000 0
0.000000 0.000000 0
0.000000 0.000000 0
0.000000 0.000152 0
0.000004 0.000475 0
0.000007 0.000714 0
0.000004 0.000783 0
-0.000008 0.000749 0
-0.000028 0.000665 0
-0.000056 0.000570 0
-0.000089 0.000482 0
-0.000125 0.000410 0
-0.000165 0.000356 0
-0.000207 0.000316 0
-0.000252 0.000287 0
-0.000298 0.000264 0
-0.000346 0.000245 0
-0.000394 0.000229 0
-0.000443 0.000214 0
-0.000491 0.000199 0
-0.000538 0.000184 0
-0.000583 0.000169 0
-0.000625 0.000154 0
-0.000664 0.000140 0
-0.000699 0.000126 0
-0.000729 0.000114 0
-0.000756 0.000102 0
-0.000779 0.000093 0
-0.000800 0.000085 0
-0.000818 0.000079 0
-0.000834 0.000074 0
-0.000850 0.000069 0
-0.000866 0.000066 0
-0.000881 0.000063 0
-0.000896 0.000060 0
-0.000910 0.000057 0
-0.000925 0.000054 0
-0.000939 0.000051 0
-0.000953 0.000047 0
-0.000968 0.000042 0
-0.000982 0.000036 0
-0.000996 0.000027 0
-0.001011 0.000017 0
-0.001025 0.000005 0
-0.001038 -0.000006 0
-0.001051 -0.000012 0
-0.001063 -0.000008 0
-0.001074 0.000014 0
-0.001085 0.000058 0
-0.001097 0.000127 0
-0.001113 0.000217 0
-0.001133 0.000311 0
-0.001159 0.000377 0
-0.001186 0.000364 0
-0.001204 0.000212 0
-0.001198 -0.000140 0
-0.001143 -0.000724 0
-0.001017 -0.001506 0
-0.000801 -0.002324 0
-0.000505 -0.002816 0
-0.000189 -0.002345 0
0.000000 -0.000886 0
0.000000 0.001467 0
-0.000044 0.003235 0
-0.000217 0.002966 0
-0.000418 0.001793 0
-0.000574 0.000781 0
-0.000668 0.000143 0
-0.000713 -0.000196 0
-0.000729 -0.000349 0
-0.000728 -0.000406 0
-0.000720 -0.000417 0
-0.000708 -0.000412 0
-0.000695 -0.000401 0
-0.000679 -0.000390 0
-0.000661 -0.000381 0
-0.000641 -0.000373 0
-0.000619 -0.000366 0
-0.000595 -0.000359 0
-0.000570 -0.000354 0
-0.000542 -0.000348 0
-0.000514 -0.000344 0
-0.000485 -0.000339 0
-0.000454 -0.000335 0
-0.000424 -0.000331 0
-0.000393 -0.000327 0
-0.000361 -0.000322 0
-0.000330 -0.000318 0
-0.000299 -0.000313 0
-0.000268 -0.000310 0
-0.000237 -0.000308 0
-0.000206 -0.000311 0
-0.000173 -0.000320 0
-0.000140 -0.000335 0
-0.000105 -0.000352 0
-0.000070 -0.000360 0
-0.000037 -0.000333 0
-0.000011 -0.000231 0
0.000000 -0.000077 0
0.000000 0.000000 0
0.000000 0.000000 0
0.000000 0.000000 0
0.000000 0.000148 0
0.000012 0.000463 0
0.000036 0.000700 0
0.000062 0.000774 0