# vtk DataFile Version 2.0
generated by CFD-lab course output (written by Tobias Neckel) 
ASCII

DATASET STRUCTURED_GRID
DIMENSIONS  99 49 1 
POINTS 4851 float

0.000000 0.000000 0
0.020000 0.000000 0
0.040000 0.000000 0
0.060000 0.000000 0
0.080000 0.000000 0
0.100000 0.000000 0
0.120000 0.000000 0
0.140000 0.000000 0
0.160000 0.000000 0
0.180000 0.000000 0
0.200000 0.000000 0
0.220000 0.000000 0
0.240000 0.000000 0
0.260000 0.000000 0
0.280000 0.000000 0
0.300000 0.000000 0
0.320000 0.000000 0
0.340000 0.000000 0
0.360000 0.000000 0
0.380000 0.000000 0
0.400000 0.000000 0
0.420000 0.000000 0
0.440000 0.000000 0
0.460000 0.000000 0
0.480000 0.000000 0
0.500000 0.000000 0
0.520000 0.000000 0
0.540000 0.000000 0
0.560000 0.000000 0
0.580000 0.000000 0
0.600000 0.000000 0
0.620000 0.000000 0
0.640000 0.000000 0
0.660000 0.000000 0
0.680000 0.000000 0
0.700000 0.000000 0
0.720000 0.000000 0
0.740000 0.000000 0
0.760000 0.000000 0
0.780000 0.000000 0
0.800000 0.000000 0
0.820000 0.000000 0
0.840000 0.000000 0
0.860000 0.000000 0
0.880000 0.000000 0
0.900000 0.000000 0
0.920000 0.000000 0
0.940000 0.000000 0
0.960000 0.000000 0
0.980000 0.000000 0
1.000000 0.000000 0
1.020000 0.000000 0
1.040000 0.000000 0
1.060000 0.000000 0
1.080000 0.000000 0
1.100000 0.000000 0
1.120000 0.000000 0
1.140000 0.000000 0
1.160000 0.000000 0
1.180000 0.000000 0
1.200000 0.000000 0
1.220000 0.000000 0
1.240000 0.000000 0
1.260000 0.000000 0
1.280000 0.000000 0
1.300000 0.000000 0
1.320000 0.000000 0
1.340000 0.000000 0
1.360000 0.000000 0
1.380000 0.000000 0
1.400000 0.000000 0
1.420000 0.000000 0
1.440000 0.000000 0
1.460000 0.000000 0
1.480000 0.000000 0
1.500000 0.000000 0
1.520000 0.000000 0
1.540000 0.000000 0
1.560000 0.000000 0
1.580000 0.000000 0
1.600000 0.000000 0
1.620000 0.000000 0
1.640000 0.000000 0
1.660000 0.000000 0
1.680000 0.000000 0
1.700000 0.000000 0
1.720000 0.000000 0
1.740000 0.000000 0
1.760000 0.000000 0
1.780000 0.000000 0
1.800000 0.000000 0
1.820000 0.000000 0
1.840000 0.000000 0
1.860000 0.000000 0
1.880000 0.000000 0
1.900000 0.000000 0
1.920000 0.000000 0
1.940000 0.000000 0
1.960000 0.000000 0
0.000000 0.020000 0
0.020000 0.020000 0
0.040000 0.020000 0
0.060000 0.020000 0
0.080000 0.020000 0
0.100000 0.020000 0
0.120000 0.020000 0
0.140000 0.020000 0
0.160000 0.020000 0
0.180000 0.020000 0
0.200000 0.020000 0
0.220000 0.020000 0
0.240000 0.020000 0
0.260000 0.020000 0
0.280000 0.020000 0
0.300000 0.020000 0
0.320000 0.020000 0
0.340000 0.020000 0
0.360000 0.020000 0
0.380000 0.020000 0
0.400000 0.020000 0
0.420000 0.020000 0
0.440000 0.020000 0
0.460000 0.020000 0
0.480000 0.020000 0
0.500000 0.020000 0
0.520000 0.020000 0
0.540000 0.020000 0
0.560000 0.020000 0
0.580000 0.020000 0
0.600000 0.020000 0
0.620000 0.020000 0
0.640000 0.020000 0
0.660000 0.020000 0
0.680000 0.020000 0
0.700000 0.020000 0
0.720000 0.020000 0
0.740000 0.020000 0
0.760000 0.020000 0
0.780000 0.020000 0
0.800000 0.020000 0
0.820000 0.020000 0
0.840000 0.020000 0
0.860000 0.020000 0
0.880000 0.020000 0
0.900000 0.020000 0
0.920000 0.020000 0
0.940000 0.020000 0
0.960000 0.020000 0
0.980000 0.020000 0
1.000000 0.020000 0
1.020000 0.020000 0
1.040000 0.020000 0
1.060000 0.020000 0
1.080000 0.020000 0
1.100000 0.020000 0
1.120000 0.020000 0
1.140000 0.020000 0
1.160000 0.020000 0
1.180000 0.020000 0
1.200000 0.020000 0
1.220000 0.020000 0
1.240000 0.020000 0
1.260000 0.020000 0
1.280000 0.020000 0
1.300000 0.020000 0
1.320000 0.020000 0
1.340000 0.020000 0
1.360000 0.020000 0
1.380000 0.020000 0
1.400000 0.020000 0
1.420000 0.020000 0
1.440000 0.020000 0
1.460000 0.020000 0
1.480000 0.020000 0
1.500000 0.020000 0
1.520000 0.020000 0
1.540000 0.020000 0
1.560000 0.020000 0
1.580000 0.020000 0
1.600000 0.020000 0
1.620000 0.020000 0
1.640000 0.020000 0
1.660000 0.020000 0
1.680000 0.020000 0
1.700000 0.020000 0
1.720000 0.020000 0
1.740000 0.020000 0
1.760000 0.020000 0
1.780000 0.020000 0
1.800000 0.020000 0
1.820000 0.020000 0
1.840000 0.020000 0
1.860000 0.020000 0
1.880000 0.020000 0
1.900000 0.020000 0
1.920000 0.020000 0
1.940000 0.020000 0
1.960000 0.020000 0
0.000000 0.040000 0
0.020000 0.040000 0
0.040000 0.040000 0
0.060000 0.040000 0
0.080000 0.040000 0
0.100000 0.040000 0
0.120000 0.040000 0
0.140000 0.040000 0
0.160000 0.040000 0
0.180000 0.040000 0
0.200000 0.040000 0
0.220000 0.040000 0
0.240000 0.040000 0
0.260000 0.040000 0
0.280000 0.040000 0
0.300000 0.040000 0
0.320000 0.040000 0
0.340000 0.040000 0
0.360000 0.040000 0
0.380000 0.040000 0
0.400000 0.040000 0
0.420000 0.040000 0
0.440000 0.040000 0
0.460000 0.040000 0
0.480000 0.040000 0
0.500000 0.040000 0
0.520000 0.040000 0
0.540000 0.040000 0
0.560000 0.040000 0
0.580000 0.040000 0
0.600000 0.040000 0
0.620000 0.040000 0
0.640000 0.040000 0
0.660000 0.040000 0
0.680000 0.040000 0
0.700000 0.040000 0
0.720000 0.040000 0
0.740000 0.040000 0
0.760000 0.040000 0
0.780000 0.040000 0
0.800000 0.040000 0
0.820000 0.040000 0
0.840000 0.040000 0
0.860000 0.040000 0
0.880000 0.040000 0
0.900000 0.040000 0
0.920000 0.040000 0
0.940000 0.040000 0
0.960000 0.040000 0
0.980000 0.040000 0
1.000000 0.040000 0
1.020000 0.040000 0
1.040000 0.040000 0
1.060000 0.040000 0
1.080000 0.040000 0
1.100000 0.040000 0
1.120000 0.040000 0
1.140000 0.040000 0
1.160000 0.040000 0
1.180000 0.040000 0
1.200000 0.040000 0
1.220000 0.040000 0
1.240000 0.040000 0
1.260000 0.040000 0
1.280000 0.040000 0
1.300000 0.040000 0
1.320000 0.040000 0
1.340000 0.040000 0
1.360000 0.040000 0
1.380000 0.040000 0
1.400000 0.040000 0
1.420000 0.040000 0
1.440000 0.040000 0
1.460000 0.040000 0
1.480000 0.040000 0
1.500000 0.040000 0
1.520000 0.040000 0
1.540000 0.040000 0
1.560000 0.040000 0
1.580000 0.040000 0
1.600000 0.040000 0
1.620000 0.040000 0
1.640000 0.040000 0
1.660000 0.040000 0
1.680000 0.040000 0
1.700000 0.040000 0
1.720000 0.040000 0
1.740000 0.040000 0
1.760000 0.040000 0
1.780000 0.040000 0
1.800000 0.040000 0
1.820000 0.040000 0
1.840000 0.040000 0
1.860000 0.040000 0
1.880000 0.040000 0
1.900000 0.040000 0
1.920000 0.040000 0
1.940000 0.040000 0
1.960000 0.040000 0
0.000000 0.060000 0
0.020000 0.060000 0
0.040000 0.060000 0
0.060000 0.060000 0
0.080000 0.060000 0
0.100000 0.060000 0
0.120000 0.060000 0
0.140000 0.060000 0
0.160000 0.060000 0
0.180000 0.060000 0
0.200000 0.060000 0
0.220000 0.060000 0
0.240000 0.060000 0
0.260000 0.060000 0
0.280000 0.060000 0
0.300000 0.060000 0
0.320000 0.060000 0
0.340000 0.060000 0
0.360000 0.060000 0
0.380000 0.060000 0
0.400000 0.060000 0
0.420000 0.060000 0
0.440000 0.060000 0
0.460000 0.060000 0
0.480000 0.060000 0
0.500000 0.060000 0
0.520000 0.060000 0
0.540000 0.060000 0
0.560000 0.060000 0
0.580000 0.060000 0
0.600000 0.060000 0
0.620000 0.060000 0
0.640000 0.060000 0
0.660000 0.060000 0
0.680000 0.060000 0
0.700000 0.060000 0
0.720000 0.060000 0
0.740000 0.060000 0
0.760000 0.060000 0
0.780000 0.060000 0
0.800000 0.060000 0
0.820000 0.060000 0
0.840000 0.060000 0
0.860000 0.060000 0
0.880000 0.060000 0
0.900000 0.060000 0
0.920000 0.060000 0
0.940000 0.060000 0
0.960000 0.060000 0
0.980000 0.060000 0
1.000000 0.060000 0
1.020000 0.060000 0
1.040000 0.060000 0
1.060000 0.060000 0
1.080000 0.060000 0
1.100000 0.060000 0
1.120000 0.060000 0
1.140000 0.060000 0
1.160000 0.060000 0
1.180000 0.060000 0
1.200000 0.060000 0
1.220000 0.060000 0
1.240000 0.060000 0
1.260000 0.060000 0
1.280000 0.060000 0
1.300000 0.060000 0
1.320000 0.060000 0
1.340000 0.060000 0
1.360000 0.060000 0
1.380000 0.060000 0
1.400000 0.060000 0
1.420000 0.060000 0
1.440000 0.060000 0
1.460000 0.060000 0
1.480000 0.060000 0
1.500000 0.060000 0
1.520000 0.060000 0
1.540000 0.060000 0
1.560000 0.060000 0
1.580000 0.060000 0
1.600000 0.060000 0
1.620000 0.060000 0
1.640000 0.060000 0
1.660000 0.060000 0
1.680000 0.060000 0
1.700000 0.060000 0
1.720000 0.060000 0
1.740000 0.060000 0
1.760000 0.060000 0
1.780000 0.060000 0
1.800000 0.060000 0
1.820000 0.060000 0
1.840000 0.060000 0
1.860000 0.060000 0
1.880000 0.060000 0
1.900000 0.060000 0
1.920000 0.060000 0
1.940000 0.060000 0
1.960000 0.060000 0
0.000000 0.080000 0
0.020000 0.080000 0
0.040000 0.080000 0
0.060000 0.080000 0
0.080000 0.080000 0
0.100000 0.080000 0
0.120000 0.080000 0
0.140000 0.080000 0
0.160000 0.080000 0
0.180000 0.080000 0
0.200000 0.080000 0
0.220000 0.080000 0
0.240000 0.080000 0
0.260000 0.080000 0
0.280000 0.080000 0
0.300000 0.080000 0
0.320000 0.080000 0
0.340000 0.080000 0
0.360000 0.080000 0
0.380000 0.080000 0
0.400000 0.080000 0
0.420000 0.080000 0
0.440000 0.080000 0
0.460000 0.080000 0
0.480000 0.080000 0
0.500000 0.080000 0
0.520000 0.080000 0
0.540000 0.080000 0
0.560000 0.080000 0
0.580000 0.080000 0
0.600000 0.080000 0
0.620000 0.080000 0
0.640000 0.080000 0
0.660000 0.080000 0
0.680000 0.080000 0
0.700000 0.080000 0
0.720000 0.080000 0
0.740000 0.080000 0
0.760000 0.080000 0
0.780000 0.080000 0
0.800000 0.080000 0
0.820000 0.080000 0
0.840000 0.080000 0
0.860000 0.080000 0
0.880000 0.080000 0
0.900000 0.080000 0
0.920000 0.080000 0
0.940000 0.080000 0
0.960000 0.080000 0
0.980000 0.080000 0
1.000000 0.080000 0
1.020000 0.080000 0
1.040000 0.080000 0
1.060000 0.080000 0
1.080000 0.080000 0
1.100000 0.080000 0
1.120000 0.080000 0
1.140000 0.080000 0
1.160000 0.080000 0
1.180000 0.080000 0
1.200000 0.080000 0
1.220000 0.080000 0
1.240000 0.080000 0
1.260000 0.080000 0
1.280000 0.080000 0
1.300000 0.080000 0
1.320000 0.080000 0
1.340000 0.080000 0
1.360000 0.080000 0
1.380000 0.080000 0
1.400000 0.080000 0
1.420000 0.080000 0
1.440000 0.080000 0
1.460000 0.080000 0
1.480000 0.080000 0
1.500000 0.080000 0
1.520000 0.080000 0
1.540000 0.080000 0
1.560000 0.080000 0
1.580000 0.080000 0
1.600000 0.080000 0
1.620000 0.080000 0
1.640000 0.080000 0
1.660000 0.080000 0
1.680000 0.080000 0
1.700000 0.080000 0
1.720000 0.080000 0
1.740000 0.080000 0
1.760000 0.080000 0
1.780000 0.080000 0
1.800000 0.080000 0
1.820000 0.080000 0
1.840000 0.080000 0
1.860000 0.080000 0
1.880000 0.080000 0
[...]
POINT_DATA 4851 

VECTORS velocity float
0.000000 0.000000 0
-0.000456 0.000000 0
-0.000596 0.000000 0
-0.000543 0.000000 0
-0.000452 0.000000 0
-0.000372 0.000000 0
-0.000310 0.000000 0
-0.000264 0.000000 0
-0.000229 0.000000 0
-0.000201 0.000000 0
-0.000179 0.000000 0
-0.000160 0.000000 0
-0.000144 0.000000 0
-0.000130 0.000000 0
-0.000118 0.000000 0
-0.000106 0.000000 0
-0.000096 0.000000 0
-0.000086 0.000000 0
-0.000076 0.000000 0
-0.000067 0.000000 0
-0.000058 0.000000 0
-0.000050 0.000000 0
-0.000041 0.000000 0
-0.000034 0.000000 0
-0.000027 0.000000 0
-0.000020 0.000000 0
-0.000014 0.000000 0
-0.000009 0.000000 0
-0.000005 0.000000 0
-0.000002 0.000000 0
0.000000 0.000000 0
0.000002 0.000000 0
0.000002 0.000000 0
0.000002 0.000000 0
0.000001 0.000000 0
0.000000 0.000000 0
0.000000 0.000000 0
0.000000 0.000000 0
0.000000 0.000000 0
0.000000 0.000000 0
0.000000 0.000000 0
-0.000004 0.000000 0
-0.000026 0.000000 0
-0.000063 0.000000 0
-0.000113 0.000000 0
-0.000180 0.000000 0
-0.000267 0.000000 0
-0.000375 0.000000 0
-0.000503 0.000000 0
-0.000637 0.000000 0
-0.000758 0.000000 0
-0.000846 0.000000 0
-0.000889 0.000000 0
-0.000892 0.000000 0
-0.000867 0.000000 0
-0.000830 0.000000 0
-0.000792 0.000000 0
-0.000760 0.000000 0
-0.000734 0.000000 0
-0.000715 0.000000 0
-0.000700 0.000000 0
-0.000688 0.000000 0
-0.000678 0.000000 0
-0.000669 0.000000 0
-0.000662 0.000000 0
-0.000654 0.000000 0
-0.000647 0.000000 0
-0.000641 0.000000 0
-0.000634 0.000000 0
-0.000627 0.000000 0
-0.000620 0.000000 0
-0.000612 0.000000 0
-0.000601 0.000000 0
-0.000588 0.000000 0
-0.000572 0.000000 0
-0.000551 0.000000 0
-0.000527 0.000000 0
-0.000498 0.000000 0
-0.000466 0.000000 0
-0.000433 0.000000 0
-0.000401 0.000000 0
-0.000374 0.000000 0
-0.000357 0.000000 0
-0.000354 0.000000 0
-0.000369 0.000000 0
-0.000408 0.000000 0
-0.000472 0.000000 0
-0.000565 0.000000 0
-0.000685 0.000000 0
-0.000827 0.000000 0
-0.000981 0.000000 0
-0.001127 0.000000 0
-0.001239 0.000000 0
-0.001281 0.000000 0
-0.001214 0.000000 0
-0.001005 0.000000 0
-0.000658 0.000000 0
-0.000254 0.000000 0
0.000000 0.000000 0
0.000000 0.000456 0
-0.000913 0.000596 0
-0.001399 0.000087 0
-0.001450 -0.000144 0
-0.001332 -0.000171 0
-0.001177 -0.000141 0
-0.001033 -0.000107 0
-0.000909 -0.000081 0
-0.000806 -0.000063 0
-0.000720 -0.000050 0
-0.000648 -0.000041 0
-0.000585 -0.000034 0
-0.000531 -0.000029 0
-0.000482 -0.000026 0
-0.000438 -0.000024 0
-0.000397 -0.000022 0
-0.000359 -0.000020 0
-0.000323 -0.000019 0
-0.000288 -0.000019 0
-0.000254 -0.000018 0
-0.000222 -0.000017 0
-0.000191 -0.000016 0
-0.000162 -0.000015 0
-0.000134 -0.000014 0
-0.000108 -0.000013 0
-0.000084 -0.000012 0
-0.000062 -0.000011 0
-0.000043 -0.000009 0
-0.000028 -0.000007 0
-0.000015 -0.000005 0
-0.000005 -0.000004 0
0.000001 -0.000002 0
0.000004 -0.000000 0
0.000005 0.000001 0
0.000003 0.000002 0
0.000001 0.000002 0
0.000000 0.000001 0
0.000000 0.000000 0
0.000000 0.000000 0
0.000000 0.000000 0
0.000000 0.000004 0
-0.000027 0.000025 0
-0.000105 0.000058 0
-0.000229 0.000087 0
-0.000397 0.000117 0
-0.000614 0.000153 0
-0.000891 0.000194 0
-0.001229 0.000235 0
-0.001617 0.000261 0
-0.002015 0.000255 0
-0.002369 0.000208 0
-0.002627 0.000131 0
-0.002763 0.000045 0
-0.002789 -0.000023 0
-0.002741 -0.000063 0
-0.002656 -0.000076 0
-0.002564 -0.000071 0
-0.002480 -0.000059 0
-0.002410 -0.000046 0
-0.002354 -0.000035 0
-0.002307 -0.000027 0
-0.002269 -0.000022 0
-0.002236 -0.000019 0
-0.002207 -0.000017 0
-0.002181 -0.000016 0
-0.002157 -0.000015 0
-0.002135 -0.000014 0
-0.002113 -0.000014 0
-0.002092 -0.000014 0
-0.002070 -0.000015 0
-0.002045 -0.000016 0
-0.002016 -0.000020 0
-0.001981 -0.000024 0
-0.001938 -0.000030 0
-0.001884 -0.000038 0
-0.001819 -0.000046 0
-0.001741 -0.000054 0
-0.001654 -0.000061 0
-0.001560 -0.000066 0
-0.001466 -0.000066 0
-0.001381 -0.000059 0
-0.001316 -0.000045 0
-0.001285 -0.000021 0
-0.001302 0.000012 0
-0.001380 0.000053 0
-0.001529 0.000102 0
-0.001757 0.000157 0
-0.002062 0.000212 0
-0.002434 0.000261 0
-0.002849 0.000295 0
-0.003265 0.000299 0
-0.003622 0.000257 0
-0.003842 0.000153 0
-0.003835 -0.000026 0
-0.003511 -0.000276 0
-0.002820 -0.000556 0
-0.001806 -0.000751 0
-0.000693 -0.000658 0
0.000000 -0.000254 0
0.000000 0.000914 0
-0.000807 0.001399 0
-0.001545 0.000537 0
-0.001869 -0.000067 0
-0.001909 -0.000273 0
-0.001818 -0.000299 0
-0.001679 -0.000268 0
-0.001533 -0.000226 0
-0.001395 -0.000189 0
-0.001270 -0.000158 0
-0.001158 -0.000134 0
-0.001058 -0.000116 0
-0.000967 -0.000103 0
-0.000885 -0.000092 0
-0.000808 -0.000085 0
-0.000737 -0.000079 0
-0.000669 -0.000074 0
-0.000604 -0.000071 0
-0.000541 -0.000068 0
-0.000481 -0.000065 0
-0.000423 -0.000063 0
-0.000366 -0.000060 0
-0.000313 -0.000057 0
-0.000262 -0.000054 0
-0.000214 -0.000050 0
-0.000170 -0.000045 0
-0.000130 -0.000040 0
-0.000095 -0.000034 0
-0.000065 -0.000028 0
-0.000041 -0.000022 0
-0.000022 -0.000015 0
-0.000009 -0.000009 0
-0.000000 -0.000004 0
0.000003 0.000001 0
0.000003 0.000004 0
0.000002 0.000004 0
0.000000 0.000002 0
0.000000 0.000000 0
0.000000 0.000000 0
0.000000 0.000000 0
0.000000 0.000026 0
-0.000058 0.000104 0
-0.000194 0.000201 0
-0.000397 0.000291 0
-0.000665 0.000385 0
-0.001007 0.000494 0
-0.001431 0.000614 0
-0.001936 0.000725 0
-0.002499 0.000785 0
-0.003067 0.000752 0
-0.003568 0.000611 0
-0.003940 0.000393 0
-0.004158 0.000162 0
-0.004236 -0.000023 0
-0.004217 -0.000134 0
-0.004144 -0.000177 0
-0.004051 -0.000176 0
-0.003956 -0.000154 0
-0.003869 -0.000128 0
-0.003792 -0.000104 0
-0.003726 -0.000085 0
-0.003667 -0.000072 0
-0.003616 -0.000063 0
-0.003571 -0.000056 0
-0.003530 -0.000051 0
-0.003493 -0.000047 0
-0.003459 -0.000045 0
-0.003426 -0.000043 0
-0.003393 -0.000044 0
-0.003359 -0.000047 0
-0.003320 -0.000054 0
-0.003275 -0.000065 0
-0.003219 -0.000079 0
-0.003150 -0.000098 0
-0.003067 -0.000120 0
-0.002967 -0.000143 0
-0.002853 -0.000165 0
-0.002728 -0.000182 0
-0.002598 -0.000189 0
-0.002475 -0.000180 0
-0.002373 -0.000151 0
-0.002310 -0.000097 0
-0.002304 -0.000015 0
-0.002376 0.000094 0
-0.002542 0.000227 0
-0.002813 0.000376 0
-0.003191 0.000532 0
-0.003666 0.000676 0
-0.004209 0.000786 0
-0.004771 0.000831 0
-0.005284 0.000773 0
-0.005656 0.000577 0
-0.005787 0.000213 0
-0.005570 -0.000331 0
-0.004921 -0.001016 0
-0.003829 -0.001706 0
-0.002390 -0.002128 0
-0.000899 -0.001807 0
0.000000 -0.000693 0
0.000000 0.001264 0
-0.000614 0.002142 0
-0.001381 0.001149 0
-0.001868 0.000220 0
-0.002073 -0.000222 0
-0.002098 -0.000371 0
-0.002028 -0.000392 0
-0.001915 -0.000365 0
-0.001788 -0.000326 0
-0.001660 -0.000287 0
-0.001536 -0.000253 0
-0.001420 -0.000225 0
-0.001311 -0.000202 0
-0.001208 -0.000185 0
-0.001111 -0.000172 0
-0.001018 -0.000161 0
-0.000929 -0.000153 0
-0.000843 -0.000147 0
-0.000760 -0.000141 0
-0.000679 -0.000136 0
-0.000600 -0.000131 0
-0.000524 -0.000126 0
-0.000451 -0.000120 0
-0.000381 -0.000113 0
-0.000316 -0.000105 0
-0.000255 -0.000096 0
-0.000200 -0.000085 0
-0.000150 -0.000074 0
-0.000108 -0.000061 0
-0.000073 -0.000049 0
-0.000045 -0.000036 0
-0.000024 -0.000023 0
-0.000010 -0.000012 0
-0.000002 -0.000002 0
0.000001 0.000004 0
0.000001 0.000005 0
0.000000 0.000002 0
0.000000 0.000000 0
0.000000 0.000000 0
0.000000 0.000000 0
0.000000 0.000061 0
-0.000076 0.000219 0
-0.000243 0.000396 0
-0.000484 0.000558 0
-0.000794 0.000727 0
-0.001178 0.000918 0
-0.001641 0.001123 0
-0.002179 0.001303 0
-0.002767 0.001391 0
-0.003358 0.001323 0
-0.003889 0.001082 0
-0.004305 0.000721 0
-0.004583 0.000341 0
-0.004731 0.000035 0
-0.004780 -0.000156 0
-0.004766 -0.000242 0
-0.004716 -0.000259 0
-0.004649 -0.000240 0
-0.004577 -0.000210 0
-0.004506 -0.000179 0
-0.004440 -0.000153 0
-0.004379 -0.000132 0
-0.004325 -0.000116 0
-0.004277 -0.000104 0
-0.004233 -0.000094 0
-0.004195 -0.000086 0
-0.004159 -0.000081 0
-0.004126 -0.000079 0
-0.004092 -0.000081 0
-0.004056 -0.000088 0
-0.004014 -0.000101 0
-0.003964 -0.000121 0
-0.003903 -0.000149 0
-0.003827 -0.000183 0
-0.003737 -0.000221 0
-0.003631 -0.000260 0
-0.003512 -0.000294 0
-0.003386 -0.000316 0
-0.003263 -0.000318 0
-0.003153 -0.000291 0
-0.003075 -0.000225 0
-0.003047 -0.000114 0
-0.003088 0.000045 0
-0.003218 0.000250 0
-0.003449 0.000490 0
-0.003788 0.000751 0
-0.004228 0.001009 0
-0.004746 0.001229 0
-0.005301 0.001367 0
-0.005833 0.001370 0
-0.006263 0.001184 0
-0.006500 0.000761 0
-0.006449 0.000066 0
-0.006026 -0.000891 0
-0.005184 -0.002018 0
-0.003943 -0.003088 0
-0.002412 -0.003680 0
-0.000887 -0.003048 0
0.000000 -0.001154 0
0.000000 0.001528 0
-0.000470 0.002781 0
-0.001185 0.001792 0
-0.001735 0.000626 0
-0.002046 -0.000043 0
-0.002172 -0.000344 0
-0.002180 -0.000450 0
-0.002121 -0.000466 0
-0.002027 -0.000444 0
-0.001916 -0.000410 0
-0.001800 -0.000374 0
-0.001684 -0.000342 0
-0.001569 -0.000314 0
-0.001458 -0.000292 0
-0.001350 -0.000274 0
-0.001245 -0.000260 0
-0.001143 -0.000249 0
-0.001043 -0.000240 0
-0.000944 -0.000232 0
-0.000848 -0.000225 0
-0.000754 -0.000217 0
-0.000663 -0.000209 0
-0.000575 -0.000200 0
-0.000490 -0.000189 0
-0.000410 -0.000176 0
-0.000336 -0.000161 0
-0.000267 -0.000144 0
-0.000206 -0.000126 0
-0.000152 -0.000106 0
-0.000107 -0.000085 0
-0.000070 -0.000064 0
-0.000042 -0.000044 0
-0.000022 -0.000025 0
-0.000009 -0.000010 0
-0.000002 0.000001 0
0.000000 0.000005 0
0.000000 0.000003 0
0.000000 0.000000 0
0.000000 0.000000 0
0.000000 0.000000 0
0.000000 0.000101 0
-0.000078 0.000347 0
-0.000250 0.000609 0
-0.000491 0.000841 0
-0.000792 0.001079 0
-0.001154 0.001341 0
-0.001576 0.001616 0
-0.002053 0.001851 0
-0.002570 0.001964 0
-0.003097 0.001873 0
-0.003592 0.001558 0
-0.004016 0.001087 0
-0.004344 0.000588 0
-0.004571 0.000174 0
-0.004706 -0.000100 0
-0.004769 -0.000242 0
-0.004780 -0.000293 0
-0.004759 -0.000293 0
-0.004720 -0.000271 0
-0.004672 -0.000241 0
-0.004622 -0.000212 0
-0.004574 -0.000187 0
-0.004529 -0.000166 0
-0.004490 -0.000148 0
-0.004455 -0.000133 0
-0.004425 -0.000121 0
-0.004398 -0.000114 0
-0.004373 -0.000111 0
-0.004347 -0.000114 0
-0.004318 -0.000126 0
-0.004284 -0.000146 0
-0.004241 -0.000176 0
-0.004187 -0.000217 0
-0.004121 -0.000265 0
-0.004042 -0.000317 0
-0.003951 -0.000368 0
-0.003852 -0.000410 0
-0.003751 -0.000432 0
-0.003658 -0.000422 0
-0.003586 -0.000368 0
-0.003551 -0.000258 0
-0.003568 -0.000084 0
-0.003655 0.000156 0
-0.003825 0.000455 0
-0.004085 0.000797 0
-0.004435 0.001154 0
-0.004859 0.001489 0
-0.005328 0.001750 0
-0.005796 0.001873 0
-0.006203 0.001792 0
-0.006475 0.001439 0
-0.006539 0.000763 0
-0.006322 -0.000261 0
-0.005772 -0.001596 0
-0.004876 -0.003099 0
-0.003658 -0.004478 0
-0.002214 -0.005184 0
-0.000803 -0.004219 0
0.000000 -0.001580 0
0.000000 0.001734 0
-0.000374 0.003327 0
-0.001020 0.002413 0
-0.001577 0.001082 0
-0.001944 0.000216 0
-0.002141 -0.000237 0
-0.002215 -0.000443 0
-0.002209 -0.000519 0
-0.002154 -0.000531 0
-0.002071 -0.000513 0
-0.001973 -0.000485 0
-0.001866 -0.000455 0
-0.001757 -0.000428 0
-0.001646 -0.000404 0
-0.001535 -0.000384 0
-0.001425 -0.000368 0
-0.001315 -0.000356 0
-0.001206 -0.000345 0
-0.001099 -0.000335 0
-0.000992 -0.000326 0
-0.000887 -0.000317 0
-0.000785 -0.000306 0
-0.000685 -0.000293 0
-0.000589 -0.000277 0
-0.000497 -0.000259 0
-0.000411 -0.000238 0
-0.000331 -0.000215 0
-0.000259 -0.000188 0
-0.000196 -0.000160 0
-0.000141 -0.000130 0
-0.000096 -0.000100 0
-0.000061 -0.000071 0
-0.000035 -0.000045 0
-0.000017 -0.000022 0
-0.000006 -0.000005 0
-0.000001 0.000003 0
0.000000 0.000002 0
0.000000 0.000000 0
0.000000 0.000000 0
0.000000 0.000000 0
0.000000 0.000139 0
-0.000069 0.000469 0
-0.000223 0.000809 0
-0.000434 0.001100 0
-0.000691 0.001390 0
-0.000987 0.001702 0
-0.001319 0.002023 0
-0.001683 0.002298 0
-0.002074 0.002435 0
-0.002485 0.002345 0
-0.002903 0.002001 0
-0.003305 0.001473 0
-0.003664 0.000896 0
-0.003960 0.000397 0
-0.004180 0.000042 0
-0.004326 -0.000168 0
-0.004408 -0.000268 0
-0.004443 -0.000301 0
-0.004448 -0.000297 0
-0.004436 -0.000277 0
-0.004414 -0.000251 0
-0.004389 -0.000225 0
-0.004365 -0.000200 0
-0.004344 -0.000178 0
-0.004327 -0.000159 0
-0.004313 -0.000144 0
-0.004302 -0.000134 0
-0.004292 -0.000130 0
-0.004281 -0.000136 0
-0.004268 -0.000151 0
-0.004249 -0.000179 0
-0.004222 -0.000218 0
-0.004187 -0.000269 0
-0.004142 -0.000328 0
-0.004088 -0.000391 0
-0.004027 -0.000450 0
-0.003962 -0.000494 0
-0.003901 -0.000510 0
-0.003853 -0.000483 0
-0.003828 -0.000399 0
-0.003839 -0.000244 0
-0.003898 -0.000010 0
-0.004017 0.000302 0
-0.004203 0.000679 0
-0.004456 0.001100 0
-0.004771 0.001525 0
-0.005127 0.001903 0
-0.005492 0.002166 0
-0.005823 0.002241 0
-0.006069 0.002049 0
-0.006172 0.001521 0
-0.006079 0.000607 0
-0.005746 -0.000701 0
-0.005154 -0.002338 0
-0.004304 -0.004132 0
-0.003211 -0.005750 0
-0.001942 -0.006535 0
-0.000706 -0.005262 0
0.000000 -0.001957 0
0.000000 0.001902 0
-0.000309 0.003801 0
-0.000890 0.002995 0
-0.001430 0.001550 0
-0.001821 0.000521 0
-0.002062 -0.000073 0
-0.002185 -0.000382 0
-0.002225 -0.000527 0
-0.002207 -0.000582 0
-0.002154 -0.000591 0
-0.002077 -0.000579 0
-0.001986 -0.000558 0
-0.001887 -0.000535 0
-0.001782 -0.000514 0
-0.001674 -0.000495 0
-0.001564 -0.000480 0
-0.001452 -0.000467 0
-0.001340 -0.000456 0
-0.001227 -0.000446 0
-0.001114 -0.000436 0
-0.001002 -0.000425 0
-0.000891 -0.000412 0
-0.000782 -0.000396 0
-0.000677 -0.000377 0
-0.000576 -0.000353 0
-0.000480 -0.000326 0
-0.000391 -0.000295 0
-0.000310 -0.000261 0
-0.000237 -0.000223 0
-0.000174 -0.000184 0
-0.000122 -0.000144 0
-0.000079 -0.000105 0
-0.000047 -0.000069 0
-0.000024 -0.000038 0
-0.000010 -0.000015 0
-0.000002 -0.000001 0
0.000000 0.000002 0
0.000000 0.000000 0
0.000000 0.000000 0
0.000000 0.000000 0
0.000000 0.000171 0
-0.000053 0.000570 0
-0.000173 0.000974 0
-0.000336 0.001309 0
-0.000528 0.001632 0
-0.000738 0.001970 0
-0.000959 0.002311 0
-0.001189 0.002606 0
-0.001432 0.002766 0
-0.001701 0.002702 0
-0.002008 0.002377 0
-0.002350 0.001848 0
-0.002705 0.001242 0
-0.003040 0.000690 0
-0.003327 0.000266 0
-0.003550 -0.000014 0
-0.003707 -0.000176 0
-0.003809 -0.000253 0
-0.003871 -0.000278 0
-0.003905 -0.000276 0
-0.003923 -0.000259 0
-0.003933 -0.000236 0
-0.003939 -0.000211 0
-0.003945 -0.000186 0
-0.003953 -0.000164 0
-0.003962 -0.000147 0
-0.003972 -0.000135 0
-0.003983 -0.000132 0
-0.003992 -0.000139 0
-0.003999 -0.000158 0
-0.004001 -0.000191 0
-0.003998 -0.000238 0
-0.003989 -0.000297 0
-0.003973 -0.000364 0
-0.003952 -0.000433 0
-0.003929 -0.000494 0
-0.003906 -0.000536 0
-0.003891 -0.000542 0
-0.003890 -0.000496 0
-0.003911 -0.000382 0
-0.003964 -0.000187 0
-0.004055 0.000095 0
-0.004189 0.000461 0
-0.004368 0.000894 0
-0.004588 0.001365 0
-0.004838 0.001825 0
-0.005097 0.002210 0
-0.005335 0.002446 0
-0.005516 0.002450 0
-0.005601 0.002140 0
-0.005552 0.001449 0
-0.005339 0.000337 0
-0.004945 -0.001186 0
-0.004374 -0.003039 0
-0.003629 -0.005042 0
-0.002709 -0.006841 0
-0.001650 -0.007689 0
-0.000607 -0.006161 0
0.000000 -0.002285 0
0.000000 0.002044 0
-0.000263 0.004218 0
-0.000789 0.003534 0
-0.001304 0.002013 0
-0.001700 0.000849 0
-0.001966 0.000128 0
-0.002123 -0.000280 0
-0.002197 -0.000497 0
-0.002213 -0.000601 0
-0.002187 -0.000643 0
-0.002133 -0.000652 0
-0.002060 -0.000645 0
-0.001974 -0.000632 0
-0.001879 -0.000617 0
-0.001777 -0.000602 0
-0.001671 -0.000590 0
-0.001561 -0.000579 0
-0.001448 -0.000570 0
-0.001334 -0.000561 0
-0.001218 -0.000551 0
-0.001101 -0.000539 0
-0.000985 -0.000525 0
-0.000870 -0.000507 0
-0.000757 -0.000484 0
-0.000648 -0.000456 0
-0.000544 -0.000423 0
-0.000447 -0.000385 0
-0.000357 -0.000342 0
-0.000276 -0.000295 0
-0.000206 -0.000246 0
-0.000146 -0.000195 0
-0.000097 -0.000146 0
-0.000059 -0.000100 0
-0.000031 -0.000059 0
-0.000013 -0.000027 0
-0.000003 -0.000006 0
0.000000 0.000000 0
0.000000 0.000000 0
0.000000 0.000000 0
0.000000 0.000000 0
0.000000 0.000192 0
-0.000034 0.000642 0
-0.000112 0.001092 0
-0.000219 0.001455 0
-0.000338 0.001792 0
-0.000458 0.002134 0
-0.000569 0.002474 0
-0.000668 0.002770 0
-0.000766 0.002947 0
-0.000886 0.002921 0
-0.001059 0.002650 0
-0.001301 0.002170 0
-0.001603 0.001586 0
-0.001932 0.001019 0
-0.002249 0.000552 0
-0.002525 0.000213 0
-0.002750 -0.000009 0
-0.002923 -0.000138 0
-0.003052 -0.000201 0
-0.003147 -0.000225 0
-0.003219 -0.000224 0
-0.003276 -0.000209 0
-0.003324 -0.000188 0
-0.003367 -0.000165 0
-0.003407 -0.000143 0
-0.003446 -0.000124 0
-0.003483 -0.000113 0
-0.003519 -0.000110 0
-0.003554 -0.000120 0
-0.003585 -0.000142 0
-0.003613 -0.000179 0
-0.003637 -0.000231 0
-0.003657 -0.000294 0
-0.003674 -0.000365 0
-0.003690 -0.000436 0
-0.003707 -0.000496 0
-0.003728 -0.000532 0
-0.003758 -0.000526 0
-0.003801 -0.000463 0
-0.003863 -0.000325 0
-0.003948 -0.000100 0
-0.004058 0.000215 0
-0.004192 0.000615 0
-0.004349 0.001079 0
-0.004520 0.001570 0
-0.004692 0.002034 0
-0.004844 0.002399 0
-0.004954 0.002585 0
-0.004993 0.002507 0
-0.004936 0.002085 0
-0.004765 0.001259 0
-0.004472 0.000000 0
-0.004063 -0.001667 0
-0.003551 -0.003654 0
-0.002936 -0.005797 0
-0.002204 -0.007729 0
-0.001359 -0.008636 0
-0.000511 -0.006912 0
0.000000 -0.002565 0
0.000000 0.002166 0
-0.000230 0.004590 0
-0.000709 0.004035 0
-0.001197 0.002461 0
-0.001588 0.001184 0
-0.001867 0.000351 0
-0.002047 -0.000150 0
-0.002148 -0.000437 0
-0.002189 -0.000592 0
-0.002188 -0.000671 0
-0.002155 -0.000706 0
-0.002100 -0.000717 0
-0.002029 -0.000716 0
-0.001945 -0.000710 0
-0.001853 -0.000703 0
-0.001753 -0.000696 0
-0.001648 -0.000689 0
-0.001538 -0.000683 0
-0.001424 -0.000677 0
-0.001307 -0.000669 0
-0.001189 -0.000658 0
-0.001069 -0.000643 0
-0.000949 -0.000623 0
-0.000831 -0.000598 0
-0.000716 -0.000566 0
-0.000605 -0.000528 0
-0.000500 -0.000482 0
-0.000402 -0.000431 0
-0.000314 -0.000375 0
-0.000236 -0.000315 0
-0.000169 -0.000253 0
-0.000113 -0.000192 0
-0.000070 -0.000135 0
-0.000037 -0.000084 0
-0.000016 -0.000043 0
-0.000004 -0.000014 0
0.000000 -0.000001 0
0.000000 0.000000 0
0.000000 0.000000 0
0.000000 0.000000 0
0.000000 0.000204 0
-0.000014 0.000682 0
-0.000051 0.001159 0
-0.000101 0.001535 0
-0.000150 0.001872 0
-0.000186 0.002201 0
-0.000199 0.002522 0
-0.000186 0.002803 0
-0.000156 0.002984 0
-0.000139 0.002995 0
-0.000171 0.002792 0
-0.000285 0.002393 0
-0.000488 0.001873 0
-0.000756 0.001335 0
-0.001052 0.000860 0
-0.001342 0.000487 0
-0.001605 0.000222 0
-0.001834 0.000049 0
-0.002029 -0.000055 0
-0.002193 -0.000109 0
-0.002333 -0.000130 0
-0.002454 -0.000130 0
-0.002560 -0.000120 0
-0.002655 -0.000103 0
-0.002740 -0.000086 0
-0.002818 -0.000071 0
-0.002891 -0.000062 0
-0.002959 -0.000062 0
-0.003022 -0.000074 0
-0.003081 -0.000099 0
-0.003137 -0.000139 0
-0.003191 -0.000194 0
-0.003242 -0.000259 0
-0.003292 -0.000331 0
-0.003344 -0.000401 0
-0.003399 -0.000457 0
-0.003461 -0.000485 0
-0.003531 -0.000468 0
-0.003612 -0.000390 0
-0.003706 -0.000235 0
-0.003813 0.000007 0
-0.003930 0.000339 0
-0.004054 0.000751 0
-0.004179 0.001222 0
-0.004295 0.001707 0
-0.004386 0.002149 0
-0.004438 0.002472 0
-0.004431 0.002595 0
-0.004349 0.002432 0
-0.004181 0.001913 0
-0.003923 0.000985 0
-0.003586 -0.000365 0
-0.003193 -0.002108 0
-0.002759 -0.004165 0
-0.002278 -0.006390 0
-0.001725 -0.008417 0
-0.001083 -0.009382 0
-0.000417 -0.007520 0
0.000000 -0.002796 0
0.000000 0.002274 0
-0.000205 0.004927 0
-0.000645 0.004501 0
-0.001106 0.002893 0
-0.001489 0.001519 0
-0.001773 0.000587 0
-0.001967 0.000000 0
-0.002087 -0.000354 0
-0.002150 -0.000561 0
-0.002169 -0.000677 0
-0.002156 -0.000740 0
-0.002118 -0.000772 0
-0.002062 -0.000786 0
-0.001991 -0.000792 0
-0.001909 -0.000794 0
-0.001818 -0.000795 0
-0.001719 -0.000795 0
-0.001614 -0.000794 0
-0.001503 -0.000791 0
-0.001387 -0.000786 0
-0.001268 -0.000778 0
-0.001147 -0.000764 0
-0.001024 -0.000744 0
-0.000902 -0.000717 0
-0.000781 -0.000682 0
-0.000663 -0.000639 0
-0.000551 -0.000587 0
-0.000446 -0.000528 0
-0.000350 -0.000462 0
-0.000265 -0.000391 0
-0.000191 -0.000318 0
-0.000129 -0.000245 0
-0.000080 -0.000175 0
-0.000043 -0.000113 0
-0.000018 -0.000061 0
-0.000004 -0.000022 0
0.000000 -0.000003 0