# vtk DataFile Version 2.0
generated by CFD-lab course output (written by Tobias Neckel) 
ASCII

DATASET STRUCTURED_GRID
DIMENSIONS  99 49 1 
POINTS 4851 float

0.000000 0.000000 0
0.020000 0.000000 0
0.040000 0.000000 0
0.060000 0.000000 0
0.080000 0.000000 0
0.100000 0.000000 0
0.120000 0.000000 0
0.140000 0.000000 0
0.160000 0.000000 0
0.180000 0.000000 0
0.200000 0.000000 0
0.220000 0.000000 0
0.240000 0.000000 0
0.260000 0.000000 0
0.280000 0.000000 0
0.300000 0.000000 0
0.320000 0.000000 0
0.340000 0.000000 0
0.360000 0.000000 0
0.380000 0.000000 0
0.400000 0.000000 0
0.420000 0.000000 0
0.440000 0.000000 0
0.460000 0.000000 0
0.480000 0.000000 0
0.500000 0.000000 0
0.520000 0.000000 0
0.540000 0.000000 0
0.560000 0.000000 0
0.580000 0.000000 0
0.600000 0.000000 0
0.620000 0.000000 0
0.640000 0.000000 0
0.660000 0.000000 0
0.680000 0.000000 0
0.700000 0.000000 0
0.720000 0.000000 0
0.740000 0.000000 0
0.760000 0.000000 0
0.780000 0.000000 0
0.800000 0.000000 0
0.820000 0.000000 0
0.840000 0.000000 0
0.860000 0.000000 0
0.880000 0.000000 0
0.900000 0.000000 0
0.920000 0.000000 0
0.940000 0.000000 0
0.960000 0.000000 0
0.980000 0.000000 0
1.000000 0.000000 0
1.020000 0.000000 0
1.040000 0.000000 0
1.060000 0.000000 0
1.080000 0.000000 0
1.100000 0.000000 0
1.120000 0.000000 0
1.140000 0.000000 0
1.160000 0.000000 0
1.180000 0.000000 0
1.200000 0.000000 0
1.220000 0.000000 0
1.240000 0.000000 0
1.260000 0.000000 0
1.280000 0.000000 0
1.300000 0.000000 0
1.320000 0.000000 0
1.340000 0.000000 0
1.360000 0.000000 0
1.380000 0.000000 0
1.400000 0.000000 0
1.420000 0.000000 0
1.440000 0.000000 0
1.460000 0.000000 0
1.480000 0.000000 0
1.500000 0.000000 0
1.520000 0.000000 0
1.540000 0.000000 0
1.560000 0.000000 0
1.580000 0.000000 0
1.600000 0.000000 0
1.620000 0.000000 0
1.640000 0.000000 0
1.660000 0.000000 0
1.680000 0.000000 0
1.700000 0.000000 0
1.720000 0.000000 0
1.740000 0.000000 0
1.760000 0.000000 0
1.780000 0.000000 0
1.800000 0.000000 0
1.820000 0.000000 0
1.840000 0.000000 0
1.860000 0.000000 0
1.880000 0.000000 0
1.900000 0.000000 0
1.920000 0.000000 0
1.940000 0.000000 0
1.960000 0.000000 0
0.000000 0.020000 0
0.020000 0.020000 0
0.040000 0.020000 0
0.060000 0.020000 0
0.080000 0.020000 0
0.100000 0.020000 0
0.120000 0.020000 0
0.140000 0.020000 0
0.160000 0.020000 0
0.180000 0.020000 0
0.200000 0.020000 0
0.220000 0.020000 0
0.240000 0.020000 0
0.260000 0.020000 0
0.280000 0.020000 0
0.300000 0.020000 0
0.320000 0.020000 0
0.340000 0.020000 0
0.360000 0.020000 0
0.380000 0.020000 0
0.400000 0.020000 0
0.420000 0.020000 0
0.440000 0.020000 0
0.460000 0.020000 0
0.480000 0.020000 0
0.500000 0.020000 0
0.520000 0.020000 0
0.540000 0.020000 0
0.560000 0.020000 0
0.580000 0.020000 0
0.600000 0.020000 0
0.620000 0.020000 0
0.640000 0.020000 0
0.660000 0.020000 0
0.680000 0.020000 0
0.700000 0.020000 0
0.720000 0.020000 0
0.740000 0.020000 0
0.760000 0.020000 0
0.780000 0.020000 0
0.800000 0.020000 0
0.820000 0.020000 0
0.840000 0.020000 0
0.860000 0.020000 0
0.880000 0.020000 0
0.900000 0.020000 0
0.920000 0.020000 0
0.940000 0.020000 0
0.960000 0.020000 0
0.980000 0.020000 0
1.000000 0.020000 0
1.020000 0.020000 0
1.040000 0.020000 0
1.060000 0.020000 0
1.080000 0.020000 0
1.100000 0.020000 0
1.120000 0.020000 0
1.140000 0.020000 0
1.160000 0.020000 0
1.180000 0.020000 0
1.200000 0.020000 0
1.220000 0.020000 0
1.240000 0.020000 0
1.260000 0.020000 0
1.280000 0.020000 0
1.300000 0.020000 0
1.320000 0.020000 0
1.340000 0.020000 0
1.360000 0.020000 0
1.380000 0.020000 0
1.400000 0.020000 0
1.420000 0.020000 0
1.440000 0.020000 0
1.460000 0.020000 0
1.480000 0.020000 0
1.500000 0.020000 0
1.520000 0.020000 0
1.540000 0.020000 0
1.560000 0.020000 0
1.580000 0.020000 0
1.600000 0.020000 0
1.620000 0.020000 0
1.640000 0.020000 0
1.660000 0.020000 0
1.680000 0.020000 0
1.700000 0.020000 0
1.720000 0.020000 0
1.740000 0.020000 0
1.760000 0.020000 0
1.780000 0.020000 0
1.800000 0.020000 0
1.820000 0.020000 0
1.840000 0.020000 0
1.860000 0.020000 0
1.880000 0.020000 0
1.900000 0.020000 0
1.920000 0.020000 0
1.940000 0.020000 0
1.960000 0.020000 0
0.000000 0.040000 0
0.020000 0.040000 0
0.040000 0.040000 0
0.060000 0.040000 0
0.080000 0.040000 0
0.100000 0.040000 0
0.120000 0.040000 0
0.140000 0.040000 0
0.160000 0.040000 0
0.180000 0.040000 0
0.200000 0.040000 0
0.220000 0.040000 0
0.240000 0.040000 0
0.260000 0.040000 0
0.280000 0.040000 0
0.300000 0.040000 0
0.320000 0.040000 0
0.340000 0.040000 0
0.360000 0.040000 0
0.380000 0.040000 0
0.400000 0.040000 0
0.420000 0.040000 0
0.440000 0.040000 0
0.460000 0.040000 0
0.480000 0.040000 0
0.500000 0.040000 0
0.520000 0.040000 0
0.540000 0.040000 0
0.560000 0.040000 0
0.580000 0.040000 0
0.600000 0.040000 0
0.620000 0.040000 0
0.640000 0.040000 0
0.660000 0.040000 0
0.680000 0.040000 0
0.700000 0.040000 0
0.720000 0.040000 0
0.740000 0.040000 0
0.760000 0.040000 0
0.780000 0.040000 0
0.800000 0.040000 0
0.820000 0.040000 0
0.840000 0.040000 0
0.860000 0.040000 0
0.880000 0.040000 0
0.900000 0.040000 0
0.920000 0.040000 0
0.940000 0.040000 0
0.960000 0.040000 0
0.980000 0.040000 0
1.000000 0.040000 0
1.020000 0.040000 0
1.040000 0.040000 0
1.060000 0.040000 0
1.080000 0.040000 0
1.100000 0.040000 0
1.120000 0.040000 0
1.140000 0.040000 0
1.160000 0.040000 0
1.180000 0.040000 0
1.200000 0.040000 0
1.220000 0.040000 0
1.240000 0.040000 0
1.260000 0.040000 0
1.280000 0.040000 0
1.300000 0.040000 0
1.320000 0.040000 0
1.340000 0.040000 0
1.360000 0.040000 0
1.380000 0.040000 0
1.400000 0.040000 0
1.420000 0.040000 0
1.440000 0.040000 0
1.460000 0.040000 0
1.480000 0.040000 0
1.500000 0.040000 0
1.520000 0.040000 0
1.540000 0.040000 0
1.560000 0.040000 0
1.580000 0.040000 0
1.600000 0.040000 0
1.620000 0.040000 0
1.640000 0.040000 0
1.660000 0.040000 0
1.680000 0.040000 0
1.700000 0.040000 0
1.720000 0.040000 0
1.740000 0.040000 0
1.760000 0.040000 0
1.780000 0.040000 0
1.800000 0.040000 0
1.820000 0.040000 0
1.840000 0.040000 0
1.860000 0.040000 0
1.880000 0.040000 0
1.900000 0.040000 0
1.920000 0.040000 0
1.940000 0.040000 0
1.960000 0.040000 0
0.000000 0.060000 0
0.020000 0.060000 0
0.040000 0.060000 0
0.060000 0.060000 0
0.080000 0.060000 0
0.100000 0.060000 0
0.120000 0.060000 0
0.140000 0.060000 0
0.160000 0.060000 0
0.180000 0.060000 0
0.200000 0.060000 0
0.220000 0.060000 0
0.240000 0.060000 0
0.260000 0.060000 0
0.280000 0.060000 0
0.300000 0.060000 0
0.320000 0.060000 0
0.340000 0.060000 0
0.360000 0.060000 0
0.380000 0.060000 0
0.400000 0.060000 0
0.420000 0.060000 0
0.440000 0.060000 0
0.460000 0.060000 0
0.480000 0.060000 0
0.500000 0.060000 0
0.520000 0.060000 0
0.540000 0.060000 0
0.560000 0.060000 0
0.580000 0.060000 0
0.600000 0.060000 0
0.620000 0.060000 0
0.640000 0.060000 0
0.660000 0.060000 0
0.680000 0.060000 0
0.700000 0.060000 0
0.720000 0.060000 0
0.740000 0.060000 0
0.760000 0.060000 0
0.780000 0.060000 0
0.800000 0.060000 0
0.820000 0.060000 0
0.840000 0.060000 0
0.860000 0.060000 0
0.880000 0.060000 0
0.900000 0.060000 0
0.920000 0.060000 0
0.940000 0.060000 0
0.960000 0.060000 0
0.980000 0.060000 0
1.000000 0.060000 0
1.020000 0.060000 0
1.040000 0.060000 0
1.060000 0.060000 0
1.080000 0.060000 0
1.100000 0.060000 0
1.120000 0.060000 0
1.140000 0.060000 0
1.160000 0.060000 0
1.180000 0.060000 0
1.200000 0.060000 0
1.220000 0.060000 0
1.240000 0.060000 0
1.260000 0.060000 0
1.280000 0.060000 0
1.300000 0.060000 0
1.320000 0.060000 0
1.340000 0.060000 0
1.360000 0.060000 0
1.380000 0.060000 0
1.400000 0.060000 0
1.420000 0.060000 0
1.440000 0.060000 0
1.460000 0.060000 0
1.480000 0.060000 0
1.500000 0.060000 0
1.520000 0.060000 0
1.540000 0.060000 0
1.560000 0.060000 0
1.580000 0.060000 0
1.600000 0.060000 0
1.620000 0.060000 0
1.640000 0.060000 0
1.660000 0.060000 0
1.680000 0.060000 0
1.700000 0.060000 0
1.720000 0.060000 0
1.740000 0.060000 0
1.760000 0.060000 0
1.780000 0.060000 0
1.800000 0.060000 0
1.820000 0.060000 0
1.840000 0.060000 0
1.860000 0.060000 0
1.880000 0.060000 0
1.900000 0.060000 0
1.920000 0.060000 0
1.940000 0.060000 0
1.960000 0.060000 0
0.000000 0.080000 0
0.020000 0.080000 0
0.040000 0.080000 0
0.060000 0.080000 0
0.080000 0.080000 0
0.100000 0.080000 0
0.120000 0.080000 0
0.140000 0.080000 0
0.160000 0.080000 0
0.180000 0.080000 0
0.200000 0.080000 0
0.220000 0.080000 0
0.240000 0.080000 0
0.260000 0.080000 0
0.280000 0.080000 0
0.300000 0.080000 0
0.320000 0.080000 0
0.340000 0.080000 0
0.360000 0.080000 0
0.380000 0.080000 0
0.400000 0.080000 0
0.420000 0.080000 0
0.440000 0.080000 0
0.460000 0.080000 0
0.480000 0.080000 0
0.500000 0.080000 0
0.520000 0.080000 0
0.540000 0.080000 0
0.560000 0.080000 0
0.580000 0.080000 0
0.600000 0.080000 0
0.620000 0.080000 0
0.640000 0.080000 0
0.660000 0.080000 0
0.680000 0.080000 0
0.700000 0.080000 0
0.720000 0.080000 0
0.740000 0.080000 0
0.760000 0.080000 0
0.780000 0.080000 0
0.800000 0.080000 0
0.820000 0.080000 0
0.840000 0.080000 0
0.860000 0.080000 0
0.880000 0.080000 0
0.900000 0.080000 0
0.920000 0.080000 0
0.940000 0.080000 0
0.960000 0.080000 0
0.980000 0.080000 0
1.000000 0.080000 0
1.020000 0.080000 0
1.040000 0.080000 0
1.060000 0.080000 0
1.080000 0.080000 0
1.100000 0.080000 0
1.120000 0.080000 0
1.140000 0.080000 0
1.160000 0.080000 0
1.180000 0.080000 0
1.200000 0.080000 0
1.220000 0.080000 0
1.240000 0.080000 0
1.260000 0.080000 0
1.280000 0.080000 0
1.300000 0.080000 0
1.320000 0.080000 0
1.340000 0.080000 0
1.360000 0.080000 0
1.380000 0.080000 0
1.400000 0.080000 0
1.420000 0.080000 0
1.440000 0.080000 0
1.460000 0.080000 0
1.480000 0.080000 0
1.500000 0.080000 0
1.520000 0.080000 0
1.540000 0.080000 0
1.560000 0.080000 0
1.580000 0.080000 0
1.600000 0.080000 0
1.620000 0.080000 0
1.640000 0.080000 0
1.660000 0.080000 0
1.680000 0.080000 0
1.700000 0.080000 0
1.720000 0.080000 0
1.740000 0.080000 0
1.760000 0.080000 0
1.780000 0.080000 0
1.800000 0.080000 0
1.820000 0.080000 0
1.840000 0.080000 0
1.860000 0.080000 0
1.880000 0.080000 0
[...]
POINT_DATA 4851 

VECTORS velocity float
0.000000 0.000000 0
-0.000440 0.000000 0
-0.000578 0.000000 0
-0.000528 0.000000 0
-0.000441 0.000000 0
-0.000366 0.000000 0
-0.000310 0.000000 0
-0.000269 0.000000 0
-0.000238 0.000000 0
-0.000214 0.000000 0
-0.000195 0.000000 0
-0.000180 0.000000 0
-0.000166 0.000000 0
-0.000154 0.000000 0
-0.000144 0.000000 0
-0.000134 0.000000 0
-0.000125 0.000000 0
-0.000117 0.000000 0
-0.000109 0.000000 0
-0.000101 0.000000 0
-0.000094 0.000000 0
-0.000088 0.000000 0
-0.000081 0.000000 0
-0.000075 0.000000 0
-0.000069 0.000000 0
-0.000064 0.000000 0
-0.000059 0.000000 0
-0.000053 0.000000 0
-0.000048 0.000000 0
-0.000044 0.000000 0
-0.000038 0.000000 0
-0.000032 0.000000 0
-0.000025 0.000000 0
-0.000017 0.000000 0
-0.000009 0.000000 0
-0.000002 0.000000 0
0.000000 0.000000 0
0.000000 0.000000 0
0.000000 0.000000 0
0.000000 0.000000 0
0.000000 0.000000 0
-0.000027 0.000000 0
-0.000080 0.000000 0
-0.000132 0.000000 0
-0.000171 0.000000 0
-0.000196 0.000000 0
-0.000212 0.000000 0
-0.000221 0.000000 0
-0.000226 0.000000 0
-0.000230 0.000000 0
-0.000233 0.000000 0
-0.000236 0.000000 0
-0.000238 0.000000 0
-0.000241 0.000000 0
-0.000243 0.000000 0
-0.000245 0.000000 0
-0.000246 0.000000 0
-0.000248 0.000000 0
-0.000249 0.000000 0
-0.000251 0.000000 0
-0.000252 0.000000 0
-0.000253 0.000000 0
-0.000254 0.000000 0
-0.000255 0.000000 0
-0.000256 0.000000 0
-0.000257 0.000000 0
-0.000258 0.000000 0
-0.000259 0.000000 0
-0.000260 0.000000 0
-0.000261 0.000000 0
-0.000262 0.000000 0
-0.000262 0.000000 0
-0.000263 0.000000 0
-0.000264 0.000000 0
-0.000265 0.000000 0
-0.000266 0.000000 0
-0.000267 0.000000 0
-0.000267 0.000000 0
-0.000268 0.000000 0
-0.000269 0.000000 0
-0.000269 0.000000 0
-0.000268 0.000000 0
-0.000267 0.000000 0
-0.000265 0.000000 0
-0.000262 0.000000 0
-0.000259 0.000000 0
-0.000258 0.000000 0
-0.000261 0.000000 0
-0.000270 0.000000 0
-0.000287 0.000000 0
-0.000312 0.000000 0
-0.000344 0.000000 0
-0.000376 0.000000 0
-0.000399 0.000000 0
-0.000395 0.000000 0
-0.000347 0.000000 0
-0.000243 0.000000 0
-0.000101 0.000000 0
0.000000 0.000000 0
0.000000 0.000440 0
-0.000876 0.000579 0
-0.001346 0.000089 0
-0.001396 -0.000136 0
-0.001283 -0.000162 0
-0.001138 -0.000131 0
-0.001007 -0.000097 0
-0.000899 -0.000071 0
-0.000811 -0.000054 0
-0.000738 -0.000042 0
-0.000678 -0.000034 0
-0.000626 -0.000029 0
-0.000582 -0.000025 0
-0.000542 -0.000022 0
-0.000505 -0.000020 0
-0.000472 -0.000018 0
-0.000442 -0.000017 0
-0.000413 -0.000015 0
-0.000386 -0.000015 0
-0.000360 -0.000014 0
-0.000335 -0.000013 0
-0.000312 -0.000012 0
-0.000289 -0.000012 0
-0.000268 -0.000011 0
-0.000247 -0.000011 0
-0.000227 -0.000010 0
-0.000208 -0.000010 0
-0.000189 -0.000009 0
-0.000170 -0.000009 0
-0.000152 -0.000010 0
-0.000132 -0.000011 0
-0.000111 -0.000012 0
-0.000086 -0.000014 0
-0.000059 -0.000016 0
-0.000032 -0.000014 0
-0.000010 -0.000008 0
0.000000 -0.000002 0
0.000000 0.000000 0
0.000000 0.000000 0
0.000000 0.000000 0
0.000000 0.000027 0
-0.000080 0.000080 0
-0.000226 0.000104 0
-0.000375 0.000090 0
-0.000496 0.000064 0
-0.000583 0.000040 0
-0.000642 0.000024 0
-0.000681 0.000014 0
-0.000708 0.000009 0
-0.000728 0.000007 0
-0.000743 0.000005 0
-0.000756 0.000005 0
-0.000767 0.000004 0
-0.000777 0.000004 0
-0.000786 0.000003 0
-0.000795 0.000003 0
-0.000802 0.000003 0
-0.000809 0.000003 0
-0.000815 0.000002 0
-0.000821 0.000002 0
-0.000826 0.000002 0
-0.000831 0.000002 0
-0.000836 0.000002 0
-0.000840 0.000002 0
-0.000844 0.000002 0
-0.000848 0.000001 0
-0.000852 0.000001 0
-0.000855 0.000001 0
-0.000858 0.000001 0
-0.000861 0.000001 0
-0.000864 0.000001 0
-0.000866 0.000001 0
-0.000869 0.000001 0
-0.000872 0.000001 0
-0.000874 0.000001 0
-0.000877 0.000001 0
-0.000879 0.000001 0
-0.000882 0.000001 0
-0.000884 0.000001 0
-0.000885 0.000000 0
-0.000884 -0.000001 0
-0.000882 -0.000003 0
-0.000876 -0.000004 0
-0.000868 -0.000006 0
-0.000860 -0.000006 0
-0.000852 -0.000004 0
-0.000851 0.000002 0
-0.000862 0.000012 0
-0.000891 0.000026 0
-0.000942 0.000042 0
-0.001015 0.000057 0
-0.001100 0.000064 0
-0.001177 0.000054 0
-0.001215 0.000018 0
-0.001171 -0.000052 0
-0.001000 -0.000152 0
-0.000683 -0.000246 0
-0.000280 -0.000244 0
0.000000 -0.000102 0
0.000000 0.000877 0
-0.000761 0.001347 0
-0.001461 0.000521 0
-0.001764 -0.000062 0
-0.001799 -0.000257 0
-0.001714 -0.000275 0
-0.001590 -0.000239 0
-0.001463 -0.000196 0
-0.001347 -0.000160 0
-0.001244 -0.000132 0
-0.001153 -0.000111 0
-0.001073 -0.000096 0
-0.001001 -0.000084 0
-0.000936 -0.000075 0
-0.000877 -0.000068 0
-0.000821 -0.000063 0
-0.000770 -0.000059 0
-0.000721 -0.000055 0
-0.000675 -0.000052 0
-0.000631 -0.000050 0
-0.000588 -0.000047 0
-0.000547 -0.000045 0
-0.000508 -0.000044 0
-0.000470 -0.000042 0
-0.000434 -0.000040 0
-0.000398 -0.000038 0
-0.000364 -0.000037 0
-0.000330 -0.000036 0
-0.000296 -0.000036 0
-0.000262 -0.000038 0
-0.000227 -0.000041 0
-0.000188 -0.000045 0
-0.000146 -0.000050 0
-0.000101 -0.000053 0
-0.000056 -0.000049 0
-0.000018 -0.000031 0
0.000000 -0.000009 0
0.000000 0.000000 0
0.000000 0.000000 0
0.000000 0.000000 0
0.000000 0.000079 0
-0.000106 0.000225 0
-0.000300 0.000295 0
-0.000507 0.000270 0
-0.000688 0.000207 0
-0.000830 0.000145 0
-0.000935 0.000097 0
-0.001011 0.000066 0
-0.001067 0.000046 0
-0.001110 0.000035 0
-0.001145 0.000028 0
-0.001173 0.000024 0
-0.001198 0.000021 0
-0.001219 0.000018 0
-0.001238 0.000017 0
-0.001256 0.000015 0
-0.001272 0.000014 0
-0.001286 0.000013 0
-0.001299 0.000011 0
-0.001311 0.000011 0
-0.001322 0.000010 0
-0.001332 0.000009 0
-0.001342 0.000008 0
-0.001351 0.000008 0
-0.001359 0.000007 0
-0.001366 0.000007 0
-0.001373 0.000006 0
-0.001380 0.000006 0
-0.001386 0.000005 0
-0.001391 0.000005 0
-0.001396 0.000005 0
-0.001401 0.000005 0
-0.001406 0.000005 0
-0.001410 0.000005 0
-0.001414 0.000005 0
-0.001418 0.000005 0
-0.001422 0.000005 0
-0.001425 0.000004 0
-0.001428 0.000002 0
-0.001428 -0.000000 0
-0.001426 -0.000004 0
-0.001421 -0.000009 0
-0.001413 -0.000014 0
-0.001401 -0.000017 0
-0.001388 -0.000017 0
-0.001379 -0.000009 0
-0.001380 0.000009 0
-0.001398 0.000039 0
-0.001442 0.000079 0
-0.001515 0.000123 0
-0.001613 0.000157 0
-0.001720 0.000162 0
-0.001805 0.000115 0
-0.001820 -0.000007 0
-0.001708 -0.000216 0
-0.001419 -0.000489 0
-0.000943 -0.000721 0
-0.000377 -0.000683 0
0.000000 -0.000280 0
0.000000 0.001202 0
-0.000559 0.002040 0
-0.001265 0.001092 0
-0.001709 0.000203 0
-0.001889 -0.000212 0
-0.001906 -0.000340 0
-0.001843 -0.000347 0
-0.001746 -0.000313 0
-0.001642 -0.000272 0
-0.001539 -0.000235 0
-0.001443 -0.000205 0
-0.001354 -0.000180 0
-0.001271 -0.000161 0
-0.001194 -0.000146 0
-0.001123 -0.000134 0
-0.001056 -0.000125 0
-0.000992 -0.000117 0
-0.000931 -0.000110 0
-0.000873 -0.000105 0
-0.000818 -0.000100 0
-0.000764 -0.000096 0
-0.000712 -0.000092 0
-0.000661 -0.000089 0
-0.000612 -0.000086 0
-0.000564 -0.000083 0
-0.000517 -0.000080 0
-0.000472 -0.000078 0
-0.000427 -0.000076 0
-0.000382 -0.000076 0
-0.000337 -0.000079 0
-0.000290 -0.000084 0
-0.000240 -0.000092 0
-0.000186 -0.000101 0
-0.000129 -0.000105 0
-0.000072 -0.000097 0
-0.000024 -0.000064 0
0.000000 -0.000020 0
0.000000 0.000000 0
0.000000 0.000000 0
0.000000 0.000000 0
0.000000 0.000133 0
-0.000098 0.000379 0
-0.000286 0.000505 0
-0.000497 0.000478 0
-0.000693 0.000386 0
-0.000857 0.000287 0
-0.000987 0.000205 0
-0.001088 0.000147 0
-0.001166 0.000108 0
-0.001228 0.000084 0
-0.001279 0.000068 0
-0.001322 0.000057 0
-0.001360 0.000050 0
-0.001393 0.000044 0
-0.001423 0.000040 0
-0.001450 0.000036 0
-0.001474 0.000033 0
-0.001496 0.000030 0
-0.001516 0.000027 0
-0.001535 0.000025 0
-0.001552 0.000023 0
-0.001567 0.000021 0
-0.001582 0.000020 0
-0.001595 0.000018 0
-0.001607 0.000017 0
-0.001618 0.000016 0
-0.001629 0.000015 0
-0.001638 0.000013 0
-0.001647 0.000012 0
-0.001656 0.000012 0
-0.001663 0.000011 0
-0.001670 0.000010 0
-0.001677 0.000010 0
-0.001683 0.000010 0
-0.001689 0.000009 0
-0.001694 0.000009 0
-0.001699 0.000008 0
-0.001704 0.000007 0
-0.001707 0.000004 0
-0.001707 -0.000001 0
-0.001706 -0.000008 0
-0.001700 -0.000017 0
-0.001691 -0.000025 0
-0.001679 -0.000030 0
-0.001667 -0.000028 0
-0.001658 -0.000013 0
-0.001661 0.000021 0
-0.001682 0.000074 0
-0.001729 0.000142 0
-0.001805 0.000212 0
-0.001903 0.000262 0
-0.002006 0.000256 0
-0.002075 0.000154 0
-0.002060 -0.000079 0
-0.001901 -0.000454 0
-0.001551 -0.000917 0
-0.001013 -0.001287 0
-0.000396 -0.001187 0
0.000000 -0.000479 0
0.000000 0.001436 0
-0.000405 0.002613 0
-0.001036 0.001672 0
-0.001517 0.000563 0
-0.001780 -0.000060 0
-0.001877 -0.000321 0
-0.001876 -0.000398 0
-0.001823 -0.000397 0
-0.001747 -0.000367 0
-0.001662 -0.000330 0
-0.001575 -0.000296 0
-0.001491 -0.000267 0
-0.001410 -0.000243 0
-0.001332 -0.000223 0
-0.001258 -0.000207 0
-0.001187 -0.000194 0
-0.001119 -0.000183 0
-0.001054 -0.000173 0
-0.000990 -0.000166 0
-0.000929 -0.000159 0
-0.000869 -0.000153 0
-0.000811 -0.000148 0
-0.000754 -0.000143 0
-0.000698 -0.000138 0
-0.000644 -0.000134 0
-0.000590 -0.000130 0
-0.000538 -0.000127 0
-0.000486 -0.000125 0
-0.000434 -0.000126 0
-0.000381 -0.000130 0
-0.000327 -0.000138 0
-0.000269 -0.000149 0
-0.000208 -0.000161 0
-0.000144 -0.000167 0
-0.000081 -0.000153 0
-0.000027 -0.000103 0
0.000000 -0.000033 0
0.000000 0.000000 0
0.000000 0.000000 0
0.000000 0.000000 0
0.000000 0.000177 0
-0.000075 0.000511 0
-0.000228 0.000694 0
-0.000411 0.000676 0
-0.000590 0.000567 0
-0.000749 0.000439 0
-0.000883 0.000328 0
-0.000992 0.000244 0
-0.001081 0.000186 0
-0.001155 0.000148 0
-0.001217 0.000122 0
-0.001272 0.000104 0
-0.001320 0.000091 0
-0.001363 0.000081 0
-0.001403 0.000073 0
-0.001438 0.000066 0
-0.001471 0.000060 0
-0.001501 0.000055 0
-0.001528 0.000050 0
-0.001553 0.000046 0
-0.001576 0.000042 0
-0.001597 0.000039 0
-0.001616 0.000036 0
-0.001634 0.000033 0
-0.001650 0.000031 0
-0.001666 0.000028 0
-0.001680 0.000026 0
-0.001693 0.000024 0
-0.001705 0.000022 0
-0.001717 0.000021 0
-0.001727 0.000019 0
-0.001737 0.000018 0
-0.001746 0.000017 0
-0.001755 0.000016 0
-0.001763 0.000016 0
-0.001771 0.000015 0
-0.001777 0.000014 0
-0.001784 0.000011 0
-0.001788 0.000006 0
-0.001791 -0.000001 0
-0.001792 -0.000011 0
-0.001789 -0.000023 0
-0.001783 -0.000035 0
-0.001774 -0.000042 0
-0.001765 -0.000038 0
-0.001760 -0.000015 0
-0.001764 0.000033 0
-0.001785 0.000107 0
-0.001829 0.000202 0
-0.001899 0.000297 0
-0.001988 0.000357 0
-0.002076 0.000334 0
-0.002128 0.000170 0
-0.002093 -0.000181 0
-0.001911 -0.000726 0
-0.001543 -0.001377 0
-0.000996 -0.001875 0
-0.000384 -0.001696 0
0.000000 -0.000676 0
0.000000 0.001607 0
-0.000298 0.003077 0
-0.000839 0.002205 0
-0.001302 0.000947 0
-0.001593 0.000149 0
-0.001736 -0.000243 0
-0.001780 -0.000400 0
-0.001765 -0.000442 0
-0.001718 -0.000434 0
-0.001655 -0.000407 0
-0.001586 -0.000375 0
-0.001514 -0.000346 0
-0.001441 -0.000320 0
-0.001370 -0.000297 0
-0.001301 -0.000279 0
-0.001232 -0.000263 0
-0.001166 -0.000250 0
-0.001101 -0.000239 0
-0.001037 -0.000229 0
-0.000975 -0.000221 0
-0.000914 -0.000214 0
-0.000854 -0.000207 0
-0.000795 -0.000201 0
-0.000736 -0.000196 0
-0.000679 -0.000190 0
-0.000623 -0.000186 0
-0.000567 -0.000182 0
-0.000511 -0.000180 0
-0.000456 -0.000181 0
-0.000400 -0.000186 0
-0.000342 -0.000196 0
-0.000281 -0.000211 0
-0.000217 -0.000226 0
-0.000150 -0.000232 0
-0.000084 -0.000214 0
-0.000028 -0.000145 0
0.000000 -0.000047 0
0.000000 0.000000 0
0.000000 0.000000 0
0.000000 0.000000 0
0.000000 0.000207 0
-0.000046 0.000606 0
-0.000152 0.000841 0
-0.000289 0.000840 0
-0.000432 0.000725 0
-0.000567 0.000579 0
-0.000686 0.000447 0
-0.000789 0.000345 0
-0.000878 0.000271 0
-0.000954 0.000220 0
-0.001022 0.000185 0
-0.001083 0.000160 0
-0.001138 0.000141 0
-0.001189 0.000127 0
-0.001236 0.000115 0
-0.001280 0.000104 0
-0.001320 0.000095 0
-0.001357 0.000087 0
-0.001391 0.000079 0
-0.001422 0.000073 0
-0.001451 0.000067 0
-0.001477 0.000061 0
-0.001502 0.000056 0
-0.001524 0.000052 0
-0.001545 0.000048 0
-0.001564 0.000045 0
-0.001582 0.000042 0
-0.001599 0.000039 0
-0.001615 0.000036 0
-0.001630 0.000033 0
-0.001644 0.000031 0
-0.001658 0.000029 0
-0.001670 0.000027 0
-0.001682 0.000026 0
-0.001693 0.000025 0
-0.001704 0.000023 0
-0.001714 0.000021 0
-0.001723 0.000018 0
-0.001732 0.000011 0
-0.001739 0.000002 0
-0.001744 -0.000011 0
-0.001747 -0.000026 0
-0.001746 -0.000040 0
-0.001744 -0.000049 0
-0.001740 -0.000043 0
-0.001740 -0.000014 0
-0.001746 0.000046 0
-0.001766 0.000139 0
-0.001805 0.000256 0
-0.001866 0.000371 0
-0.001942 0.000439 0
-0.002015 0.000396 0
-0.002053 0.000170 0
-0.002007 -0.000296 0
-0.001823 -0.001004 0
-0.001463 -0.001833 0
-0.000939 -0.002446 0
-0.000359 -0.002183 0
0.000000 -0.000863 0
0.000000 0.001735 0
-0.000224 0.003453 0
-0.000682 0.002676 0
-0.001103 0.001316 0
-0.001390 0.000375 0
-0.001549 -0.000134 0
-0.001616 -0.000369 0
-0.001626 -0.000458 0
-0.001602 -0.000476 0
-0.001560 -0.000462 0
-0.001508 -0.000438 0
-0.001451 -0.000411 0
-0.001391 -0.000386 0
-0.001330 -0.000364 0
-0.001269 -0.000345 0
-0.001208 -0.000328 0
-0.001147 -0.000314 0
-0.001086 -0.000302 0
-0.001026 -0.000291 0
-0.000967 -0.000282 0
-0.000908 -0.000274 0
-0.000850 -0.000267 0
-0.000792 -0.000260 0
-0.000734 -0.000254 0
-0.000677 -0.000248 0
-0.000621 -0.000242 0
-0.000565 -0.000238 0
-0.000509 -0.000236 0
-0.000453 -0.000237 0
-0.000397 -0.000244 0
-0.000338 -0.000256 0
-0.000278 -0.000274 0
-0.000214 -0.000292 0
-0.000148 -0.000299 0
-0.000083 -0.000275 0
-0.000028 -0.000187 0
0.000000 -0.000061 0
0.000000 0.000000 0
0.000000 0.000000 0
0.000000 0.000000 0
0.000000 0.000223 0
-0.000020 0.000663 0
-0.000076 0.000936 0
-0.000159 0.000956 0
-0.000255 0.000845 0
-0.000354 0.000693 0
-0.000447 0.000550 0
-0.000533 0.000435 0
-0.000610 0.000351 0
-0.000681 0.000292 0
-0.000746 0.000250 0
-0.000808 0.000220 0
-0.000866 0.000197 0
-0.000921 0.000179 0
-0.000974 0.000163 0
-0.001023 0.000150 0
-0.001070 0.000137 0
-0.001113 0.000126 0
-0.001154 0.000115 0
-0.001191 0.000106 0
-0.001226 0.000097 0
-0.001258 0.000089 0
-0.001287 0.000082 0
-0.001314 0.000076 0
-0.001339 0.000070 0
-0.001362 0.000066 0
-0.001384 0.000061 0
-0.001405 0.000057 0
-0.001425 0.000053 0
-0.001444 0.000050 0
-0.001462 0.000047 0
-0.001479 0.000044 0
-0.001496 0.000041 0
-0.001512 0.000039 0
-0.001527 0.000037 0
-0.001542 0.000035 0
-0.001556 0.000033 0
-0.001570 0.000028 0
-0.001583 0.000021 0
-0.001596 0.000011 0
-0.001607 -0.000004 0
-0.001617 -0.000021 0
-0.001625 -0.000038 0
-0.001631 -0.000048 0
-0.001635 -0.000042 0
-0.001641 -0.000009 0
-0.001651 0.000059 0
-0.001670 0.000166 0
-0.001704 0.000301 0
-0.001754 0.000433 0
-0.001816 0.000507 0
-0.001875 0.000445 0
-0.001902 0.000161 0
-0.001852 -0.000412 0
-0.001679 -0.001269 0
-0.001346 -0.002261 0
-0.000863 -0.002980 0
-0.000330 -0.002636 0
0.000000 -0.001036 0
0.000000 0.001832 0
-0.000172 0.003760 0
-0.000558 0.003084 0
-0.000932 0.001655 0
-0.001197 0.000595 0
-0.001353 -0.000016 0
-0.001426 -0.000323 0
-0.001447 -0.000456 0
-0.001438 -0.000499 0
-0.001411 -0.000501 0
-0.001374 -0.000484 0
-0.001331 -0.000462 0
-0.001284 -0.000440 0
-0.001235 -0.000419 0
-0.001184 -0.000401 0
-0.001132 -0.000385 0
-0.001079 -0.000371 0
-0.001025 -0.000359 0
-0.000971 -0.000348 0
-0.000917 -0.000339 0
-0.000863 -0.000331 0
-0.000808 -0.000323 0
-0.000754 -0.000316 0
-0.000700 -0.000310 0
-0.000646 -0.000303 0
-0.000592 -0.000298 0
-0.000538 -0.000293 0
-0.000485 -0.000291 0
-0.000431 -0.000293 0
-0.000376 -0.000300 0
-0.000321 -0.000315 0
-0.000263 -0.000335 0
-0.000202 -0.000356 0
-0.000139 -0.000364 0
-0.000077 -0.000334 0
-0.000026 -0.000227 0
0.000000 -0.000075 0
0.000000 0.000000 0
0.000000 0.000000 0
0.000000 0.000000 0
0.000000 0.000226 0
0.000002 0.000682 0
-0.000009 0.000980 0
-0.000039 0.001019 0
-0.000085 0.000919 0
-0.000141 0.000771 0
-0.000201 0.000626 0
-0.000261 0.000507 0
-0.000320 0.000419 0
-0.000378 0.000356 0
-0.000435 0.000312 0
-0.000492 0.000279 0
-0.000548 0.000255 0
-0.000603 0.000234 0
-0.000658 0.000216 0
-0.000711 0.000200 0
-0.000762 0.000185 0
-0.000811 0.000171 0
-0.000858 0.000157 0
-0.000901 0.000145 0
-0.000942 0.000133 0
-0.000979 0.000122 0
-0.001013 0.000112 0
-0.001044 0.000104 0
-0.001073 0.000096 0
-0.001100 0.000090 0
-0.001126 0.000084 0
-0.001150 0.000079 0
-0.001174 0.000075 0
-0.001197 0.000070 0
-0.001219 0.000066 0
-0.001241 0.000063 0
-0.001262 0.000060 0
-0.001283 0.000057 0
-0.001303 0.000054 0
-0.001322 0.000052 0
-0.001341 0.000049 0
-0.001360 0.000044 0
-0.001379 0.000037 0
-0.001397 0.000026 0
-0.001416 0.000011 0
-0.001434 -0.000008 0
-0.001451 -0.000027 0
-0.001466 -0.000038 0
-0.001480 -0.000033 0
-0.001493 0.000001 0
-0.001507 0.000075 0
-0.001526 0.000191 0
-0.001555 0.000339 0
-0.001595 0.000483 0
-0.001643 0.000560 0
-0.001689 0.000481 0
-0.001707 0.000147 0
-0.001660 -0.000519 0
-0.001506 -0.001510 0
-0.001211 -0.002648 0
-0.000779 -0.003463 0
-0.000299 -0.003047 0
0.000000 -0.001193 0
0.000000 0.001907 0
-0.000134 0.004012 0
-0.000460 0.003436 0
-0.000788 0.001956 0
-0.001025 0.000796 0
-0.001166 0.000095 0
-0.001234 -0.000274 0
-0.001257 -0.000446 0
-0.001253 -0.000512 0
-0.001235 -0.000526 0
-0.001209 -0.000518 0
-0.001177 -0.000501 0
-0.001142 -0.000482 0
-0.001104 -0.000464 0
-0.001063 -0.000448 0
-0.001021 -0.000433 0
-0.000976 -0.000420 0
-0.000931 -0.000409 0
-0.000884 -0.000399 0
-0.000837 -0.000390 0
-0.000789 -0.000382 0
-0.000740 -0.000375 0
-0.000691 -0.000368 0
-0.000642 -0.000362 0
-0.000593 -0.000355 0
-0.000543 -0.000350 0
-0.000493 -0.000345 0
-0.000444 -0.000343 0
-0.000394 -0.000345 0
-0.000343 -0.000354 0
-0.000292 -0.000369 0
-0.000239 -0.000392 0
-0.000183 -0.000415 0
-0.000125 -0.000423 0
-0.000070 -0.000388 0
-0.000023 -0.000264 0
0.000000 -0.000087 0
0.000000 0.000000 0
0.000000 0.000000 0
0.000000 0.000000 0
0.000000 0.000220 0
0.000018 0.000671 0
0.000045 0.000977 0
0.000063 0.001031 0
0.000065 0.000947 0
0.000052 0.000809 0
0.000028 0.000670 0
-0.000003 0.000555 0
-0.000039 0.000468 0
-0.000079 0.000407 0
-0.000123 0.000364 0
-0.000169 0.000333 0
-0.000219 0.000309 0
-0.000270 0.000289 0
-0.000323 0.000271 0
-0.000376 0.000254 0
-0.000430 0.000237 0
-0.000483 0.000221 0
-0.000534 0.000205 0
-0.000584 0.000190 0
-0.000630 0.000174 0
-0.000673 0.000160 0
-0.000713 0.000147 0
-0.000749 0.000136 0
-0.000782 0.000126 0
-0.000812 0.000118 0
-0.000841 0.000111 0
-0.000868 0.000105 0
-0.000895 0.000100 0
-0.000922 0.000095 0
-0.000948 0.000091 0
-0.000974 0.000086 0
-0.000999 0.000083 0
-0.001024 0.000079 0
-0.001049 0.000076 0
-0.001073 0.000074 0
-0.001097 0.000070 0
-0.001121 0.000066 0
-0.001146 0.000059 0
-0.001171 0.000048 0
-0.001196 0.000033 0
-0.001222 0.000013 0
-0.001248 -0.000006 0
-0.001272 -0.000019 0
-0.001295 -0.000016 0
-0.001316 0.000018 0
-0.001335 0.000093 0
-0.001356 0.000214 0
-0.001380 0.000369 0
-0.001410 0.000522 0
-0.001446 0.000601 0
-0.001479 0.000508 0
-0.001491 0.000132 0
-0.001450 -0.000613 0
-0.001319 -0.001719 0
-0.001067 -0.002988 0
-0.000692 -0.003892 0
-0.000267 -0.003415 0
0.000000 -0.001334 0
0.000000 0.001966 0
-0.000105 0.004220 0
-0.000382 0.003739 0
-0.000668 0.002220 0
-0.000877 0.000973 0
-0.000998 0.000193 0
-0.001055 -0.000232 0
-0.001072 -0.000437 0
-0.001068 -0.000521 0
-0.001053 -0.000545 0
-0.001033 -0.000542 0
-0.001010 -0.000529 0
-0.000984 -0.000513 0
-0.000955 -0.000498 0
-0.000924 -0.000484 0
-0.000890 -0.000472 0
-0.000855 -0.000461 0
-0.000817 -0.000451 0
-0.000778 -0.000442 0
-0.000738 -0.000434 0
-0.000697 -0.000427 0
-0.000654 -0.000421 0
-0.000612 -0.000414 0
-0.000568 -0.000408 0
-0.000524 -0.000402 0
-0.000480 -0.000397 0
-0.000436 -0.000392 0
-0.000391 -0.000391 0
-0.000347 -0.000393 0
-0.000302 -0.000402 0
-0.000256 -0.000419 0
-0.000208 -0.000444 0
-0.000159 -0.000468 0
-0.000109 -0.000477 0
-0.000060 -0.000436 0
-0.000019 -0.000297 0
0.000000 -0.000098 0
0.000000 0.000000 0
0.000000 0.000000 0
0.000000 0.000000 0
0.000000 0.000208 0
0.000030 0.000637 0
0.000086 0.000935 0
0.000142 0.000999 0