# vtk DataFile Version 2.0
generated by CFD-lab course output (written by Tobias Neckel) 
ASCII

DATASET STRUCTURED_GRID
DIMENSIONS  99 49 1 
POINTS 4851 float

0.000000 0.000000 0
0.020000 0.000000 0
0.040000 0.000000 0
0.060000 0.000000 0
0.080000 0.000000 0
0.100000 0.000000 0
0.120000 0.000000 0
0.140000 0.000000 0
0.160000 0.000000 0
0.180000 0.000000 0
0.200000 0.000000 0
0.220000 0.000000 0
0.240000 0.000000 0
0.260000 0.000000 0
0.280000 0.000000 0
0.300000 0.000000 0
0.320000 0.000000 0
0.340000 0.000000 0
0.360000 0.000000 0
0.380000 0.000000 0
0.400000 0.000000 0
0.420000 0.000000 0
0.440000 0.000000 0
0.460000 0.000000 0
0.480000 0.000000 0
0.500000 0.000000 0
0.520000 0.000000 0
0.540000 0.000000 0
0.560000 0.000000 0
0.580000 0.000000 0
0.600000 0.000000 0
0.620000 0.000000 0
0.640000 0.000000 0
0.660000 0.000000 0
0.680000 0.000000 0
0.700000 0.000000 0
0.720000 0.000000 0
0.740000 0.000000 0
0.760000 0.000000 0
0.780000 0.000000 0
0.800000 0.000000 0
0.820000 0.000000 0
0.840000 0.000000 0
0.860000 0.000000 0
0.880000 0.000000 0
0.900000 0.000000 0
0.920000 0.000000 0
0.940000 0.000000 0
0.960000 0.000000 0
0.980000 0.000000 0
1.000000 0.000000 0
1.020000 0.000000 0
1.040000 0.000000 0
1.060000 0.000000 0
1.080000 0.000000 0
1.100000 0.000000 0
1.120000 0.000000 0
1.140000 0.000000 0
1.160000 0.000000 0
1.180000 0.000000 0
1.200000 0.000000 0
1.220000 0.000000 0
1.240000 0.000000 0
1.260000 0.000000 0
1.280000 0.000000 0
1.300000 0.000000 0
1.320000 0.000000 0
1.340000 0.000000 0
1.360000 0.000000 0
1.380000 0.000000 0
1.400000 0.000000 0
1.420000 0.000000 0
1.440000 0.000000 0
1.460000 0.000000 0
1.480000 0.000000 0
1.500000 0.000000 0
1.520000 0.000000 0
1.540000 0.000000 0
1.560000 0.000000 0
1.580000 0.000000 0
1.600000 0.000000 0
1.620000 0.000000 0
1.640000 0.000000 0
1.660000 0.000000 0
1.680000 0.000000 0
1.700000 0.000000 0
1.720000 0.000000 0
1.740000 0.000000 0
1.760000 0.000000 0
1.780000 0.000000 0
1.800000 0.000000 0
1.820000 0.000000 0
1.840000 0.000000 0
1.860000 0.000000 0
1.880000 0.000000 0
1.900000 0.000000 0
1.920000 0.000000 0
1.940000 0.000000 0
1.960000 0.000000 0
0.000000 0.020000 0
0.020000 0.020000 0
0.040000 0.020000 0
0.060000 0.020000 0
0.080000 0.020000 0
0.100000 0.020000 0
0.120000 0.020000 0
0.140000 0.020000 0
0.160000 0.020000 0
0.180000 0.020000 0
0.200000 0.020000 0
0.220000 0.020000 0
0.240000 0.020000 0
0.260000 0.020000 0
0.280000 0.020000 0
0.300000 0.020000 0
0.320000 0.020000 0
0.340000 0.020000 0
0.360000 0.020000 0
0.380000 0.020000 0
0.400000 0.020000 0
0.420000 0.020000 0
0.440000 0.020000 0
0.460000 0.020000 0
0.480000 0.020000 0
0.500000 0.020000 0
0.520000 0.020000 0
0.540000 0.020000 0
0.560000 0.020000 0
0.580000 0.020000 0
0.600000 0.020000 0
0.620000 0.020000 0
0.640000 0.020000 0
0.660000 0.020000 0
0.680000 0.020000 0
0.700000 0.020000 0
0.720000 0.020000 0
0.740000 0.020000 0
0.760000 0.020000 0
0.780000 0.020000 0
0.800000 0.020000 0
0.820000 0.020000 0
0.840000 0.020000 0
0.860000 0.020000 0
0.880000 0.020000 0
0.900000 0.020000 0
0.920000 0.020000 0
0.940000 0.020000 0
0.960000 0.020000 0
0.980000 0.020000 0
1.000000 0.020000 0
1.020000 0.020000 0
1.040000 0.020000 0
1.060000 0.020000 0
1.080000 0.020000 0
1.100000 0.020000 0
1.120000 0.020000 0
1.140000 0.020000 0
1.160000 0.020000 0
1.180000 0.020000 0
1.200000 0.020000 0
1.220000 0.020000 0
1.240000 0.020000 0
1.260000 0.020000 0
1.280000 0.020000 0
1.300000 0.020000 0
1.320000 0.020000 0
1.340000 0.020000 0
1.360000 0.020000 0
1.380000 0.020000 0
1.400000 0.020000 0
1.420000 0.020000 0
1.440000 0.020000 0
1.460000 0.020000 0
1.480000 0.020000 0
1.500000 0.020000 0
1.520000 0.020000 0
1.540000 0.020000 0
1.560000 0.020000 0
1.580000 0.020000 0
1.600000 0.020000 0
1.620000 0.020000 0
1.640000 0.020000 0
1.660000 0.020000 0
1.680000 0.020000 0
1.700000 0.020000 0
1.720000 0.020000 0
1.740000 0.020000 0
1.760000 0.020000 0
1.780000 0.020000 0
1.800000 0.020000 0
1.820000 0.020000 0
1.840000 0.020000 0
1.860000 0.020000 0
1.880000 0.020000 0
1.900000 0.020000 0
1.920000 0.020000 0
1.940000 0.020000 0
1.960000 0.020000 0
0.000000 0.040000 0
0.020000 0.040000 0
0.040000 0.040000 0
0.060000 0.040000 0
0.080000 0.040000 0
0.100000 0.040000 0
0.120000 0.040000 0
0.140000 0.040000 0
0.160000 0.040000 0
0.180000 0.040000 0
0.200000 0.040000 0
0.220000 0.040000 0
0.240000 0.040000 0
0.260000 0.040000 0
0.280000 0.040000 0
0.300000 0.040000 0
0.320000 0.040000 0
0.340000 0.040000 0
0.360000 0.040000 0
0.380000 0.040000 0
0.400000 0.040000 0
0.420000 0.040000 0
0.440000 0.040000 0
0.460000 0.040000 0
0.480000 0.040000 0
0.500000 0.040000 0
0.520000 0.040000 0
0.540000 0.040000 0
0.560000 0.040000 0
0.580000 0.040000 0
0.600000 0.040000 0
0.620000 0.040000 0
0.640000 0.040000 0
0.660000 0.040000 0
0.680000 0.040000 0
0.700000 0.040000 0
0.720000 0.040000 0
0.740000 0.040000 0
0.760000 0.040000 0
0.780000 0.040000 0
0.800000 0.040000 0
0.820000 0.040000 0
0.840000 0.040000 0
0.860000 0.040000 0
0.880000 0.040000 0
0.900000 0.040000 0
0.920000 0.040000 0
0.940000 0.040000 0
0.960000 0.040000 0
0.980000 0.040000 0
1.000000 0.040000 0
1.020000 0.040000 0
1.040000 0.040000 0
1.060000 0.040000 0
1.080000 0.040000 0
1.100000 0.040000 0
1.120000 0.040000 0
1.140000 0.040000 0
1.160000 0.040000 0
1.180000 0.040000 0
1.200000 0.040000 0
1.220000 0.040000 0
1.240000 0.040000 0
1.260000 0.040000 0
1.280000 0.040000 0
1.300000 0.040000 0
1.320000 0.040000 0
1.340000 0.040000 0
1.360000 0.040000 0
1.380000 0.040000 0
1.400000 0.040000 0
1.420000 0.040000 0
1.440000 0.040000 0
1.460000 0.040000 0
1.480000 0.040000 0
1.500000 0.040000 0
1.520000 0.040000 0
1.540000 0.040000 0
1.560000 0.040000 0
1.580000 0.040000 0
1.600000 0.040000 0
1.620000 0.040000 0
1.640000 0.040000 0
1.660000 0.040000 0
1.680000 0.040000 0
1.700000 0.040000 0
1.720000 0.040000 0
1.740000 0.040000 0
1.760000 0.040000 0
1.780000 0.040000 0
1.800000 0.040000 0
1.820000 0.040000 0
1.840000 0.040000 0
1.860000 0.040000 0
1.880000 0.040000 0
1.900000 0.040000 0
1.920000 0.040000 0
1.940000 0.040000 0
1.960000 0.040000 0
0.000000 0.060000 0
0.020000 0.060000 0
0.040000 0.060000 0
0.060000 0.060000 0
0.080000 0.060000 0
0.100000 0.060000 0
0.120000 0.060000 0
0.140000 0.060000 0
0.160000 0.060000 0
0.180000 0.060000 0
0.200000 0.060000 0
0.220000 0.060000 0
0.240000 0.060000 0
0.260000 0.060000 0
0.280000 0.060000 0
0.300000 0.060000 0
0.320000 0.060000 0
0.340000 0.060000 0
0.360000 0.060000 0
0.380000 0.060000 0
0.400000 0.060000 0
0.420000 0.060000 0
0.440000 0.060000 0
0.460000 0.060000 0
0.480000 0.060000 0
0.500000 0.060000 0
0.520000 0.060000 0
0.540000 0.060000 0
0.560000 0.060000 0
0.580000 0.060000 0
0.600000 0.060000 0
0.620000 0.060000 0
0.640000 0.060000 0
0.660000 0.060000 0
0.680000 0.060000 0
0.700000 0.060000 0
0.720000 0.060000 0
0.740000 0.060000 0
0.760000 0.060000 0
0.780000 0.060000 0
0.800000 0.060000 0
0.820000 0.060000 0
0.840000 0.060000 0
0.860000 0.060000 0
0.880000 0.060000 0
0.900000 0.060000 0
0.920000 0.060000 0
0.940000 0.060000 0
0.960000 0.060000 0
0.980000 0.060000 0
1.000000 0.060000 0
1.020000 0.060000 0
1.040000 0.060000 0
1.060000 0.060000 0
1.080000 0.060000 0
1.100000 0.060000 0
1.120000 0.060000 0
1.140000 0.060000 0
1.160000 0.060000 0
1.180000 0.060000 0
1.200000 0.060000 0
1.220000 0.060000 0
1.240000 0.060000 0
1.260000 0.060000 0
1.280000 0.060000 0
1.300000 0.060000 0
1.320000 0.060000 0
1.340000 0.060000 0
1.360000 0.060000 0
1.380000 0.060000 0
1.400000 0.060000 0
1.420000 0.060000 0
1.440000 0.060000 0
1.460000 0.060000 0
1.480000 0.060000 0
1.500000 0.060000 0
1.520000 0.060000 0
1.540000 0.060000 0
1.560000 0.060000 0
1.580000 0.060000 0
1.600000 0.060000 0
1.620000 0.060000 0
1.640000 0.060000 0
1.660000 0.060000 0
1.680000 0.060000 0
1.700000 0.060000 0
1.720000 0.060000 0
1.740000 0.060000 0
1.760000 0.060000 0
1.780000 0.060000 0
1.800000 0.060000 0
1.820000 0.060000 0
1.840000 0.060000 0
1.860000 0.060000 0
1.880000 0.060000 0
1.900000 0.060000 0
1.920000 0.060000 0
1.940000 0.060000 0
1.960000 0.060000 0
0.000000 0.080000 0
0.020000 0.080000 0
0.040000 0.080000 0
0.060000 0.080000 0
0.080000 0.080000 0
0.100000 0.080000 0
0.120000 0.080000 0
0.140000 0.080000 0
0.160000 0.080000 0
0.180000 0.080000 0
0.200000 0.080000 0
0.220000 0.080000 0
0.240000 0.080000 0
0.260000 0.080000 0
0.280000 0.080000 0
0.300000 0.080000 0
0.320000 0.080000 0
0.340000 0.080000 0
0.360000 0.080000 0
0.380000 0.080000 0
0.400000 0.080000 0
0.420000 0.080000 0
0.440000 0.080000 0
0.460000 0.080000 0
0.480000 0.080000 0
0.500000 0.080000 0
0.520000 0.080000 0
0.540000 0.080000 0
0.560000 0.080000 0
0.580000 0.080000 0
0.600000 0.080000 0
0.620000 0.080000 0
0.640000 0.080000 0
0.660000 0.080000 0
0.680000 0.080000 0
0.700000 0.080000 0
0.720000 0.080000 0
0.740000 0.080000 0
0.760000 0.080000 0
0.780000 0.080000 0
0.800000 0.080000 0
0.820000 0.080000 0
0.840000 0.080000 0
0.860000 0.080000 0
0.880000 0.080000 0
0.900000 0.080000 0
0.920000 0.080000 0
0.940000 0.080000 0
0.960000 0.080000 0
0.980000 0.080000 0
1.000000 0.080000 0
1.020000 0.080000 0
1.040000 0.080000 0
1.060000 0.080000 0
1.080000 0.080000 0
1.100000 0.080000 0
1.120000 0.080000 0
1.140000 0.080000 0
1.160000 0.080000 0
1.180000 0.080000 0
1.200000 0.080000 0
1.220000 0.080000 0
1.240000 0.080000 0
1.260000 0.080000 0
1.280000 0.080000 0
1.300000 0.080000 0
1.320000 0.080000 0
1.340000 0.080000 0
1.360000 0.080000 0
1.380000 0.080000 0
1.400000 0.080000 0
1.420000 0.080000 0
1.440000 0.080000 0
1.460000 0.080000 0
1.480000 0.080000 0
1.500000 0.080000 0
1.520000 0.080000 0
1.540000 0.080000 0
1.560000 0.080000 0
1.580000 0.080000 0
1.600000 0.080000 0
1.620000 0.080000 0
1.640000 0.080000 0
1.660000 0.080000 0
1.680000 0.080000 0
1.700000 0.080000 0
1.720000 0.080000 0
1.740000 0.080000 0
1.760000 0.080000 0
1.780000 0.080000 0
1.800000 0.080000 0
1.820000 0.080000 0
1.840000 0.080000 0
1.860000 0.080000 0
1.880000 0.080000 0
[...]
POINT_DATA 4851 

VECTORS velocity float
0.000000 0.000000 0
-0.000359 0.000000 0
-0.000494 0.000000 0
-0.000464 0.000000 0
-0.000393 0.000000 0
-0.000327 0.000000 0
-0.000278 0.000000 0
-0.000241 0.000000 0
-0.000215 0.000000 0
-0.000194 0.000000 0
-0.000177 0.000000 0
-0.000163 0.000000 0
-0.000151 0.000000 0
-0.000141 0.000000 0
-0.000131 0.000000 0
-0.000122 0.000000 0
-0.000114 0.000000 0
-0.000107 0.000000 0
-0.000099 0.000000 0
-0.000093 0.000000 0
-0.000086 0.000000 0
-0.000080 0.000000 0
-0.000074 0.000000 0
-0.000068 0.000000 0
-0.000063 0.000000 0
-0.000057 0.000000 0
-0.000052 0.000000 0
-0.000047 0.000000 0
-0.000043 0.000000 0
-0.000038 0.000000 0
-0.000033 0.000000 0
-0.000028 0.000000 0
-0.000023 0.000000 0
-0.000016 0.000000 0
-0.000009 0.000000 0
-0.000003 0.000000 0
0.000000 0.000000 0
0.000000 0.000000 0
0.000000 0.000000 0
0.000000 0.000000 0
0.000000 0.000000 0
-0.000015 0.000000 0
-0.000047 0.000000 0
-0.000082 0.000000 0
-0.000112 0.000000 0
-0.000133 0.000000 0
-0.000147 0.000000 0
-0.000156 0.000000 0
-0.000162 0.000000 0
-0.000166 0.000000 0
-0.000169 0.000000 0
-0.000171 0.000000 0
-0.000173 0.000000 0
-0.000175 0.000000 0
-0.000177 0.000000 0
-0.000178 0.000000 0
-0.000180 0.000000 0
-0.000181 0.000000 0
-0.000182 0.000000 0
-0.000184 0.000000 0
-0.000185 0.000000 0
-0.000186 0.000000 0
-0.000187 0.000000 0
-0.000188 0.000000 0
-0.000189 0.000000 0
-0.000190 0.000000 0
-0.000191 0.000000 0
-0.000192 0.000000 0
-0.000193 0.000000 0
-0.000194 0.000000 0
-0.000195 0.000000 0
-0.000195 0.000000 0
-0.000196 0.000000 0
-0.000197 0.000000 0
-0.000198 0.000000 0
-0.000199 0.000000 0
-0.000200 0.000000 0
-0.000200 0.000000 0
-0.000201 0.000000 0
-0.000201 0.000000 0
-0.000201 0.000000 0
-0.000200 0.000000 0
-0.000199 0.000000 0
-0.000198 0.000000 0
-0.000197 0.000000 0
-0.000197 0.000000 0
-0.000199 0.000000 0
-0.000204 0.000000 0
-0.000214 0.000000 0
-0.000228 0.000000 0
-0.000247 0.000000 0
-0.000267 0.000000 0
-0.000284 0.000000 0
-0.000291 0.000000 0
-0.000278 0.000000 0
-0.000234 0.000000 0
-0.000157 0.000000 0
-0.000062 0.000000 0
0.000000 0.000000 0
0.000000 0.000359 0
-0.000717 0.000495 0
-0.001143 0.000106 0
-0.001211 -0.000101 0
-0.001122 -0.000137 0
-0.000999 -0.000114 0
-0.000885 -0.000085 0
-0.000791 -0.000062 0
-0.000715 -0.000047 0
-0.000652 -0.000037 0
-0.000600 -0.000030 0
-0.000556 -0.000025 0
-0.000517 -0.000022 0
-0.000482 -0.000020 0
-0.000450 -0.000018 0
-0.000421 -0.000016 0
-0.000394 -0.000015 0
-0.000368 -0.000014 0
-0.000344 -0.000013 0
-0.000321 -0.000013 0
-0.000299 -0.000012 0
-0.000278 -0.000011 0
-0.000257 -0.000011 0
-0.000237 -0.000011 0
-0.000218 -0.000010 0
-0.000199 -0.000010 0
-0.000181 -0.000009 0
-0.000164 -0.000009 0
-0.000147 -0.000009 0
-0.000130 -0.000009 0
-0.000113 -0.000009 0
-0.000095 -0.000010 0
-0.000076 -0.000011 0
-0.000054 -0.000013 0
-0.000031 -0.000013 0
-0.000010 -0.000008 0
0.000000 -0.000002 0
0.000000 0.000000 0
0.000000 0.000000 0
0.000000 0.000000 0
0.000000 0.000014 0
-0.000046 0.000047 0
-0.000139 0.000067 0
-0.000241 0.000064 0
-0.000331 0.000050 0
-0.000401 0.000035 0
-0.000452 0.000023 0
-0.000488 0.000014 0
-0.000513 0.000009 0
-0.000531 0.000006 0
-0.000545 0.000005 0
-0.000556 0.000004 0
-0.000565 0.000003 0
-0.000573 0.000003 0
-0.000581 0.000003 0
-0.000588 0.000003 0
-0.000594 0.000002 0
-0.000600 0.000002 0
-0.000605 0.000002 0
-0.000610 0.000002 0
-0.000615 0.000002 0
-0.000619 0.000002 0
-0.000623 0.000002 0
-0.000627 0.000002 0
-0.000631 0.000002 0
-0.000634 0.000001 0
-0.000638 0.000001 0
-0.000641 0.000001 0
-0.000644 0.000001 0
-0.000647 0.000001 0
-0.000650 0.000001 0
-0.000653 0.000001 0
-0.000656 0.000001 0
-0.000658 0.000001 0
-0.000661 0.000001 0
-0.000664 0.000001 0
-0.000666 0.000001 0
-0.000668 0.000001 0
-0.000669 0.000000 0
-0.000669 -0.000000 0
-0.000667 -0.000001 0
-0.000665 -0.000002 0
-0.000661 -0.000003 0
-0.000657 -0.000003 0
-0.000655 -0.000001 0
-0.000655 0.000002 0
-0.000663 0.000007 0
-0.000680 0.000014 0
-0.000709 0.000023 0
-0.000751 0.000032 0
-0.000802 0.000038 0
-0.000854 0.000037 0
-0.000892 0.000024 0
-0.000893 -0.000007 0
-0.000832 -0.000057 0
-0.000685 -0.000121 0
-0.000450 -0.000173 0
-0.000176 -0.000157 0
0.000000 -0.000062 0
0.000000 0.000718 0
-0.000619 0.001145 0
-0.001219 0.000495 0
-0.001495 -0.000020 0
-0.001536 -0.000211 0
-0.001466 -0.000237 0
-0.001361 -0.000207 0
-0.001254 -0.000169 0
-0.001156 -0.000137 0
-0.001069 -0.000113 0
-0.000993 -0.000096 0
-0.000926 -0.000083 0
-0.000865 -0.000073 0
-0.000810 -0.000066 0
-0.000759 -0.000060 0
-0.000712 -0.000056 0
-0.000667 -0.000052 0
-0.000625 -0.000049 0
-0.000585 -0.000046 0
-0.000546 -0.000044 0
-0.000509 -0.000042 0
-0.000474 -0.000041 0
-0.000439 -0.000039 0
-0.000406 -0.000038 0
-0.000373 -0.000037 0
-0.000341 -0.000036 0
-0.000310 -0.000035 0
-0.000279 -0.000034 0
-0.000250 -0.000033 0
-0.000220 -0.000033 0
-0.000190 -0.000034 0
-0.000159 -0.000037 0
-0.000125 -0.000041 0
-0.000088 -0.000044 0
-0.000051 -0.000043 0
-0.000017 -0.000030 0
0.000000 -0.000010 0
0.000000 0.000000 0
0.000000 0.000000 0
0.000000 0.000000 0
0.000000 0.000046 0
-0.000066 0.000138 0
-0.000193 0.000194 0
-0.000337 0.000192 0
-0.000471 0.000160 0
-0.000583 0.000121 0
-0.000670 0.000086 0
-0.000736 0.000060 0
-0.000785 0.000043 0
-0.000823 0.000031 0
-0.000852 0.000024 0
-0.000877 0.000020 0
-0.000897 0.000017 0
-0.000915 0.000015 0
-0.000931 0.000014 0
-0.000945 0.000012 0
-0.000958 0.000011 0
-0.000970 0.000011 0
-0.000981 0.000010 0
-0.000991 0.000009 0
-0.001001 0.000009 0
-0.001009 0.000008 0
-0.001017 0.000008 0
-0.001025 0.000007 0
-0.001032 0.000007 0
-0.001038 0.000006 0
-0.001045 0.000006 0
-0.001051 0.000006 0
-0.001056 0.000006 0
-0.001061 0.000005 0
-0.001066 0.000005 0
-0.001071 0.000005 0
-0.001076 0.000005 0
-0.001080 0.000005 0
-0.001084 0.000005 0
-0.001088 0.000004 0
-0.001091 0.000003 0
-0.001093 0.000002 0
-0.001094 0.000001 0
-0.001093 -0.000002 0
-0.001091 -0.000004 0
-0.001087 -0.000007 0
-0.001081 -0.000008 0
-0.001075 -0.000007 0
-0.001071 -0.000003 0
-0.001073 0.000008 0
-0.001085 0.000024 0
-0.001111 0.000046 0
-0.001153 0.000070 0
-0.001211 0.000092 0
-0.001278 0.000103 0
-0.001340 0.000089 0
-0.001374 0.000039 0
-0.001349 -0.000060 0
-0.001228 -0.000209 0
-0.000988 -0.000383 0
-0.000636 -0.000509 0
-0.000245 -0.000450 0
0.000000 -0.000176 0
0.000000 0.000979 0
-0.000439 0.001715 0
-0.001023 0.000983 0
-0.001404 0.000216 0
-0.001563 -0.000165 0
-0.001582 -0.000288 0
-0.001531 -0.000297 0
-0.001452 -0.000267 0
-0.001366 -0.000231 0
-0.001283 -0.000199 0
-0.001205 -0.000173 0
-0.001132 -0.000153 0
-0.001065 -0.000138 0
-0.001002 -0.000125 0
-0.000943 -0.000116 0
-0.000887 -0.000108 0
-0.000834 -0.000101 0
-0.000783 -0.000096 0
-0.000735 -0.000091 0
-0.000688 -0.000088 0
-0.000642 -0.000084 0
-0.000598 -0.000081 0
-0.000554 -0.000079 0
-0.000512 -0.000077 0
-0.000471 -0.000075 0
-0.000431 -0.000073 0
-0.000391 -0.000071 0
-0.000352 -0.000069 0
-0.000314 -0.000068 0
-0.000276 -0.000068 0
-0.000237 -0.000070 0
-0.000197 -0.000075 0
-0.000154 -0.000081 0
-0.000108 -0.000087 0
-0.000062 -0.000083 0
-0.000022 -0.000059 0
0.000000 -0.000020 0
0.000000 0.000000 0
0.000000 0.000000 0
0.000000 0.000000 0
0.000000 0.000080 0
-0.000065 0.000239 0
-0.000194 0.000338 0
-0.000345 0.000342 0
-0.000491 0.000296 0
-0.000619 0.000234 0
-0.000725 0.000175 0
-0.000809 0.000129 0
-0.000876 0.000096 0
-0.000930 0.000073 0
-0.000974 0.000058 0
-0.001010 0.000048 0
-0.001042 0.000042 0
-0.001069 0.000037 0
-0.001094 0.000033 0
-0.001116 0.000030 0
-0.001136 0.000027 0
-0.001154 0.000025 0
-0.001171 0.000023 0
-0.001186 0.000021 0
-0.001200 0.000020 0
-0.001212 0.000018 0
-0.001224 0.000017 0
-0.001235 0.000016 0
-0.001245 0.000015 0
-0.001254 0.000014 0
-0.001263 0.000013 0
-0.001271 0.000013 0
-0.001279 0.000012 0
-0.001286 0.000011 0
-0.001292 0.000011 0
-0.001298 0.000010 0
-0.001304 0.000010 0
-0.001310 0.000009 0
-0.001315 0.000009 0
-0.001319 0.000008 0
-0.001323 0.000006 0
-0.001325 0.000004 0
-0.001327 0.000001 0
-0.001326 -0.000004 0
-0.001323 -0.000008 0
-0.001318 -0.000012 0
-0.001312 -0.000015 0
-0.001306 -0.000012 0
-0.001302 -0.000003 0
-0.001304 0.000015 0
-0.001317 0.000044 0
-0.001344 0.000082 0
-0.001389 0.000123 0
-0.001448 0.000157 0
-0.001514 0.000168 0
-0.001570 0.000133 0
-0.001590 0.000032 0
-0.001539 -0.000153 0
-0.001382 -0.000418 0
-0.001096 -0.000713 0
-0.000696 -0.000916 0
-0.000264 -0.000794 0
0.000000 -0.000308 0
0.000000 0.001158 0
-0.000300 0.002168 0
-0.000801 0.001460 0
-0.001198 0.000521 0
-0.001419 -0.000033 0
-0.001503 -0.000269 0
-0.001505 -0.000337 0
-0.001465 -0.000333 0
-0.001405 -0.000306 0
-0.001339 -0.000274 0
-0.001272 -0.000246 0
-0.001206 -0.000222 0
-0.001143 -0.000203 0
-0.001082 -0.000187 0
-0.001023 -0.000175 0
-0.000967 -0.000164 0
-0.000912 -0.000156 0
-0.000859 -0.000148 0
-0.000807 -0.000142 0
-0.000757 -0.000137 0
-0.000708 -0.000132 0
-0.000660 -0.000128 0
-0.000613 -0.000124 0
-0.000567 -0.000121 0
-0.000521 -0.000118 0
-0.000476 -0.000115 0
-0.000432 -0.000113 0
-0.000389 -0.000110 0
-0.000346 -0.000109 0
-0.000303 -0.000109 0
-0.000260 -0.000113 0
-0.000214 -0.000119 0
-0.000167 -0.000129 0
-0.000117 -0.000136 0
-0.000067 -0.000129 0
-0.000023 -0.000092 0
0.000000 -0.000031 0
0.000000 0.000000 0
0.000000 0.000000 0
0.000000 0.000000 0
0.000000 0.000110 0
-0.000053 0.000331 0
-0.000164 0.000473 0
-0.000299 0.000488 0
-0.000436 0.000434 0
-0.000562 0.000354 0
-0.000671 0.000276 0
-0.000762 0.000211 0
-0.000838 0.000163 0
-0.000901 0.000128 0
-0.000954 0.000104 0
-0.001001 0.000088 0
-0.001041 0.000076 0
-0.001077 0.000067 0
-0.001110 0.000060 0
-0.001140 0.000054 0
-0.001166 0.000050 0
-0.001191 0.000045 0
-0.001213 0.000041 0
-0.001233 0.000038 0
-0.001252 0.000035 0
-0.001269 0.000032 0
-0.001284 0.000030 0
-0.001298 0.000028 0
-0.001310 0.000026 0
-0.001322 0.000024 0
-0.001333 0.000023 0
-0.001343 0.000021 0
-0.001353 0.000020 0
-0.001361 0.000019 0
-0.001370 0.000018 0
-0.001377 0.000017 0
-0.001384 0.000016 0
-0.001391 0.000015 0
-0.001397 0.000014 0
-0.001402 0.000012 0
-0.001407 0.000010 0
-0.001411 0.000006 0
-0.001413 0.000001 0
-0.001413 -0.000005 0
-0.001411 -0.000012 0
-0.001408 -0.000018 0
-0.001402 -0.000021 0
-0.001397 -0.000017 0
-0.001394 -0.000004 0
-0.001397 0.000023 0
-0.001409 0.000064 0
-0.001435 0.000117 0
-0.001475 0.000174 0
-0.001529 0.000218 0
-0.001588 0.000225 0
-0.001635 0.000165 0
-0.001642 0.000008 0
-0.001577 -0.000268 0
-0.001404 -0.000652 0
-0.001105 -0.001069 0
-0.000695 -0.001342 0
-0.000260 -0.001146 0
0.000000 -0.000440 0
0.000000 0.001279 0
-0.000203 0.002517 0
-0.000614 0.001881 0
-0.000982 0.000834 0
-0.001219 0.000141 0
-0.001337 -0.000202 0
-0.001374 -0.000335 0
-0.001365 -0.000367 0
-0.001332 -0.000356 0
-0.001286 -0.000332 0
-0.001235 -0.000305 0
-0.001182 -0.000282 0
-0.001129 -0.000262 0
-0.001075 -0.000245 0
-0.001022 -0.000231 0
-0.000970 -0.000219 0
-0.000918 -0.000209 0
-0.000868 -0.000200 0
-0.000818 -0.000193 0
-0.000768 -0.000187 0
-0.000720 -0.000181 0
-0.000672 -0.000176 0
-0.000625 -0.000172 0
-0.000578 -0.000168 0
-0.000532 -0.000164 0
-0.000486 -0.000161 0
-0.000441 -0.000158 0
-0.000397 -0.000155 0
-0.000353 -0.000153 0
-0.000308 -0.000154 0
-0.000263 -0.000158 0
-0.000217 -0.000167 0
-0.000168 -0.000179 0
-0.000117 -0.000187 0
-0.000066 -0.000177 0
-0.000023 -0.000125 0
0.000000 -0.000043 0
0.000000 0.000000 0
0.000000 0.000000 0
0.000000 0.000000 0
0.000000 0.000133 0
-0.000038 0.000403 0
-0.000121 0.000584 0
-0.000227 0.000614 0
-0.000340 0.000558 0
-0.000449 0.000468 0
-0.000549 0.000375 0
-0.000636 0.000296 0
-0.000712 0.000235 0
-0.000778 0.000190 0
-0.000836 0.000158 0
-0.000888 0.000135 0
-0.000935 0.000118 0
-0.000978 0.000105 0
-0.001017 0.000095 0
-0.001054 0.000086 0
-0.001087 0.000078 0
-0.001118 0.000071 0
-0.001146 0.000065 0
-0.001171 0.000060 0
-0.001194 0.000055 0
-0.001215 0.000050 0
-0.001234 0.000046 0
-0.001250 0.000042 0
-0.001266 0.000039 0
-0.001280 0.000037 0
-0.001293 0.000034 0
-0.001305 0.000032 0
-0.001316 0.000030 0
-0.001327 0.000028 0
-0.001337 0.000026 0
-0.001346 0.000025 0
-0.001355 0.000023 0
-0.001363 0.000022 0
-0.001370 0.000020 0
-0.001377 0.000018 0
-0.001383 0.000014 0
-0.001389 0.000009 0
-0.001393 0.000003 0
-0.001396 -0.000005 0
-0.001396 -0.000014 0
-0.001396 -0.000021 0
-0.001393 -0.000025 0
-0.001391 -0.000021 0
-0.001390 -0.000004 0
-0.001393 0.000030 0
-0.001405 0.000081 0
-0.001427 0.000148 0
-0.001462 0.000218 0
-0.001509 0.000270 0
-0.001559 0.000273 0
-0.001597 0.000187 0
-0.001597 -0.000026 0
-0.001527 -0.000391 0
-0.001354 -0.000890 0
-0.001061 -0.001423 0
-0.000664 -0.001760 0
-0.000247 -0.001488 0
0.000000 -0.000568 0
0.000000 0.001362 0
-0.000139 0.002783 0
-0.000470 0.002239 0
-0.000793 0.001126 0
-0.001019 0.000322 0
-0.001146 -0.000114 0
-0.001201 -0.000309 0
-0.001211 -0.000376 0
-0.001196 -0.000385 0
-0.001168 -0.000370 0
-0.001132 -0.000350 0
-0.001093 -0.000329 0
-0.001051 -0.000310 0
-0.001008 -0.000294 0
-0.000963 -0.000280 0
-0.000918 -0.000268 0
-0.000873 -0.000258 0
-0.000828 -0.000249 0
-0.000782 -0.000241 0
-0.000737 -0.000234 0
-0.000692 -0.000228 0
-0.000646 -0.000223 0
-0.000602 -0.000218 0
-0.000557 -0.000214 0
-0.000513 -0.000210 0
-0.000469 -0.000206 0
-0.000425 -0.000202 0
-0.000382 -0.000199 0
-0.000339 -0.000197 0
-0.000296 -0.000199 0
-0.000252 -0.000204 0
-0.000207 -0.000215 0
-0.000159 -0.000228 0
-0.000110 -0.000237 0
-0.000062 -0.000224 0
-0.000021 -0.000158 0
0.000000 -0.000054 0
0.000000 0.000000 0
0.000000 0.000000 0
0.000000 0.000000 0
0.000000 0.000147 0
-0.000021 0.000451 0
-0.000074 0.000663 0
-0.000146 0.000708 0
-0.000227 0.000656 0
-0.000310 0.000562 0
-0.000390 0.000462 0
-0.000465 0.000374 0
-0.000533 0.000304 0
-0.000595 0.000252 0
-0.000653 0.000214 0
-0.000707 0.000187 0
-0.000757 0.000166 0
-0.000805 0.000149 0
-0.000849 0.000136 0
-0.000891 0.000124 0
-0.000931 0.000113 0
-0.000967 0.000104 0
-0.001001 0.000095 0
-0.001031 0.000086 0
-0.001059 0.000078 0
-0.001084 0.000072 0
-0.001106 0.000065 0
-0.001126 0.000060 0
-0.001144 0.000055 0
-0.001160 0.000051 0
-0.001175 0.000048 0
-0.001189 0.000044 0
-0.001202 0.000042 0
-0.001215 0.000039 0
-0.001227 0.000037 0
-0.001238 0.000035 0
-0.001248 0.000033 0
-0.001258 0.000030 0
-0.001268 0.000028 0
-0.001277 0.000025 0
-0.001286 0.000021 0
-0.001294 0.000015 0
-0.001301 0.000007 0
-0.001307 -0.000002 0
-0.001312 -0.000012 0
-0.001315 -0.000021 0
-0.001317 -0.000026 0
-0.001319 -0.000021 0
-0.001321 -0.000002 0
-0.001326 0.000037 0
-0.001337 0.000097 0
-0.001357 0.000175 0
-0.001387 0.000256 0
-0.001426 0.000315 0
-0.001468 0.000313 0
-0.001498 0.000203 0
-0.001494 -0.000063 0
-0.001426 -0.000512 0
-0.001263 -0.001118 0
-0.000989 -0.001759 0
-0.000619 -0.002155 0
-0.000230 -0.001811 0
0.000000 -0.000688 0
0.000000 0.001418 0
-0.000095 0.002987 0
-0.000361 0.002536 0
-0.000639 0.001384 0
-0.000843 0.000494 0
-0.000964 -0.000021 0
-0.001022 -0.000271 0
-0.001040 -0.000371 0
-0.001036 -0.000399 0
-0.001019 -0.000395 0
-0.000996 -0.000380 0
-0.000968 -0.000363 0
-0.000938 -0.000347 0
-0.000904 -0.000332 0
-0.000869 -0.000320 0
-0.000832 -0.000309 0
-0.000795 -0.000299 0
-0.000756 -0.000291 0
-0.000716 -0.000284 0
-0.000676 -0.000277 0
-0.000636 -0.000271 0
-0.000595 -0.000266 0
-0.000554 -0.000261 0
-0.000513 -0.000257 0
-0.000473 -0.000252 0
-0.000432 -0.000248 0
-0.000392 -0.000244 0
-0.000352 -0.000241 0
-0.000312 -0.000239 0
-0.000272 -0.000241 0
-0.000231 -0.000248 0
-0.000188 -0.000260 0
-0.000144 -0.000275 0
-0.000099 -0.000284 0
-0.000055 -0.000266 0
-0.000018 -0.000187 0
0.000000 -0.000063 0
0.000000 0.000000 0
0.000000 0.000000 0
0.000000 0.000000 0
0.000000 0.000154 0
-0.000007 0.000476 0
-0.000030 0.000708 0
-0.000066 0.000767 0
-0.000112 0.000723 0
-0.000165 0.000631 0
-0.000220 0.000530 0
-0.000275 0.000439 0
-0.000330 0.000365 0
-0.000383 0.000310 0
-0.000435 0.000269 0
-0.000486 0.000239 0
-0.000536 0.000216 0
-0.000585 0.000197 0
-0.000633 0.000181 0
-0.000680 0.000167 0
-0.000724 0.000154 0
-0.000766 0.000141 0
-0.000805 0.000129 0
-0.000842 0.000118 0
-0.000875 0.000107 0
-0.000904 0.000097 0
-0.000930 0.000088 0
-0.000953 0.000080 0
-0.000974 0.000073 0
-0.000992 0.000068 0
-0.001009 0.000063 0
-0.001025 0.000059 0
-0.001039 0.000055 0
-0.001054 0.000052 0
-0.001067 0.000049 0
-0.001081 0.000046 0
-0.001093 0.000044 0
-0.001106 0.000041 0
-0.001118 0.000039 0
-0.001129 0.000035 0
-0.001141 0.000030 0
-0.001152 0.000024 0
-0.001163 0.000016 0
-0.001173 0.000006 0
-0.001183 -0.000006 0
-0.001191 -0.000016 0
-0.001199 -0.000022 0
-0.001205 -0.000017 0
-0.001212 0.000003 0
-0.001220 0.000045 0
-0.001231 0.000112 0
-0.001248 0.000197 0
-0.001273 0.000287 0
-0.001305 0.000351 0
-0.001340 0.000345 0
-0.001364 0.000213 0
-0.001358 -0.000099 0
-0.001296 -0.000623 0
-0.001150 -0.001327 0
-0.000903 -0.002068 0
-0.000566 -0.002519 0
-0.000211 -0.002107 0
0.000000 -0.000798 0
0.000000 0.001457 0
-0.000066 0.003145 0
-0.000281 0.002783 0
-0.000518 0.001608 0
-0.000697 0.000648 0
-0.000805 0.000065 0
-0.000858 -0.000233 0
-0.000877 -0.000362 0
-0.000876 -0.000405 0
-0.000866 -0.000410 0
-0.000851 -0.000400 0
-0.000832 -0.000387 0
-0.000810 -0.000374 0
-0.000785 -0.000362 0
-0.000758 -0.000351 0
-0.000729 -0.000342 0
-0.000699 -0.000334 0
-0.000667 -0.000327 0
-0.000634 -0.000320 0
-0.000599 -0.000314 0
-0.000565 -0.000309 0
-0.000529 -0.000304 0
-0.000493 -0.000300 0
-0.000457 -0.000295 0
-0.000421 -0.000291 0
-0.000384 -0.000286 0
-0.000348 -0.000282 0
-0.000313 -0.000279 0
-0.000277 -0.000277 0
-0.000241 -0.000280 0
-0.000204 -0.000287 0
-0.000165 -0.000301 0
-0.000126 -0.000317 0
-0.000085 -0.000326 0
-0.000046 -0.000304 0
-0.000015 -0.000212 0
0.000000 -0.000071 0
0.000000 0.000000 0
0.000000 0.000000 0
0.000000 0.000000 0
0.000000 0.000154 0
0.000004 0.000481 0
0.000008 0.000721 0
0.000005 0.000790 0
-0.000006 0.000755 0
-0.000026 0.000670 0
-0.000053 0.000573 0
-0.000086 0.000484 0
-0.000122 0.000412 0
-0.000162 0.000357 0
-0.000205 0.000317 0
-0.000249 0.000288 0
-0.000295 0.000265 0
-0.000343 0.000246 0
-0.000391 0.000230 0
-0.000440 0.000215 0
-0.000488 0.000200 0
-0.000535 0.000185 0
-0.000580 0.000170 0
-0.000623 0.000155 0
-0.000662 0.000141 0
-0.000697 0.000127 0
-0.000728 0.000114 0
-0.000755 0.000103 0
-0.000778 0.000094 0
-0.000799 0.000086 0
-0.000817 0.000080 0
-0.000834 0.000075 0
-0.000850 0.000070 0
-0.000866 0.000067 0
-0.000881 0.000064 0
-0.000897 0.000060 0
-0.000912 0.000058 0
-0.000926 0.000055 0
-0.000941 0.000052 0
-0.000956 0.000048 0
-0.000970 0.000043 0
-0.000985 0.000037 0
-0.000999 0.000028 0
-0.001014 0.000018 0
-0.001029 0.000006 0
-0.001043 -0.000005 0
-0.001056 -0.000012 0
-0.001068 -0.000008 0
-0.001079 0.000012 0
-0.001090 0.000056 0
-0.001103 0.000125 0
-0.001119 0.000217 0
-0.001139 0.000313 0
-0.001165 0.000381 0
-0.001192 0.000371 0
-0.001211 0.000221 0
-0.001205 -0.000131 0
-0.001152 -0.000720 0
-0.001025 -0.001512 0
-0.000809 -0.002343 0
-0.000510 -0.002847 0
-0.000191 -0.002377 0
0.000000 -0.000899 0
0.000000 0.001484 0
-0.000045 0.003268 0
-0.000221 0.002988 0
-0.000423 0.001801 0
-0.000580 0.000782 0
-0.000674 0.000140 0
-0.000719 -0.000199 0
-0.000734 -0.000353 0
-0.000733 -0.000409 0
-0.000724 -0.000420 0
-0.000713 -0.000414 0
-0.000699 -0.000404 0
-0.000683 -0.000393 0
-0.000665 -0.000384 0
-0.000645 -0.000375 0
-0.000623 -0.000368 0
-0.000599 -0.000362 0
-0.000573 -0.000356 0
-0.000546 -0.000351 0
-0.000518 -0.000346 0
-0.000488 -0.000341 0
-0.000458 -0.000337 0
-0.000427 -0.000333 0
-0.000395 -0.000329 0
-0.000364 -0.000325 0
-0.000332 -0.000320 0
-0.000301 -0.000316 0
-0.000270 -0.000312 0
-0.000239 -0.000311 0
-0.000207 -0.000314 0
-0.000175 -0.000322 0
-0.000141 -0.000337 0
-0.000106 -0.000355 0
-0.000071 -0.000363 0
-0.000037 -0.000336 0
-0.000011 -0.000233 0
0.000000 -0.000078 0
0.000000 0.000000 0
0.000000 0.000000 0
0.000000 0.000000 0
0.000000 0.000150 0
0.000013 0.000468 0
0.000038 0.000707 0
0.000065 0.000781 0