# vtk DataFile Version 2.0
generated by CFD-lab course output (written by Tobias Neckel) 
ASCII

DATASET STRUCTURED_GRID
DIMENSIONS  99 49 1 
POINTS 4851 float

0.000000 0.000000 0
0.020000 0.000000 0
0.040000 0.000000 0
0.060000 0.000000 0
0.080000 0.000000 0
0.100000 0.000000 0
0.120000 0.000000 0
0.140000 0.000000 0
0.160000 0.000000 0
0.180000 0.000000 0
0.200000 0.000000 0
0.220000 0.000000 0
0.240000 0.000000 0
0.260000 0.000000 0
0.280000 0.000000 0
0.300000 0.000000 0
0.320000 0.000000 0
0.340000 0.000000 0
0.360000 0.000000 0
0.380000 0.000000 0
0.400000 0.000000 0
0.420000 0.000000 0
0.440000 0.000000 0
0.460000 0.000000 0
0.480000 0.000000 0
0.500000 0.000000 0
0.520000 0.000000 0
0.540000 0.000000 0
0.560000 0.000000 0
0.580000 0.000000 0
0.600000 0.000000 0
0.620000 0.000000 0
0.640000 0.000000 0
0.660000 0.000000 0
0.680000 0.000000 0
0.700000 0.000000 0
0.720000 0.000000 0
0.740000 0.000000 0
0.760000 0.000000 0
0.780000 0.000000 0
0.800000 0.000000 0
0.820000 0.000000 0
0.840000 0.000000 0
0.860000 0.000000 0
0.880000 0.000000 0
0.900000 0.000000 0
0.920000 0.000000 0
0.940000 0.000000 0
0.960000 0.000000 0
0.980000 0.000000 0
1.000000 0.000000 0
1.020000 0.000000 0
1.040000 0.000000 0
1.060000 0.000000 0
1.080000 0.000000 0
1.100000 0.000000 0
1.120000 0.000000 0
1.140000 0.000000 0
1.160000 0.000000 0
1.180000 0.000000 0
1.200000 0.000000 0
1.220000 0.000000 0
1.240000 0.000000 0
1.260000 0.000000 0
1.280000 0.000000 0
1.300000 0.000000 0
1.320000 0.000000 0
1.340000 0.000000 0
1.360000 0.000000 0
1.380000 0.000000 0
1.400000 0.000000 0
1.420000 0.000000 0
1.440000 0.000000 0
1.460000 0.000000 0
1.480000 0.000000 0
1.500000 0.000000 0
1.520000 0.000000 0
1.540000 0.000000 0
1.560000 0.000000 0
1.580000 0.000000 0
1.600000 0.000000 0
1.620000 0.000000 0
1.640000 0.000000 0
1.660000 0.000000 0
1.680000 0.000000 0
1.700000 0.000000 0
1.720000 0.000000 0
1.740000 0.000000 0
1.760000 0.000000 0
1.780000 0.000000 0
1.800000 0.000000 0
1.820000 0.000000 0
1.840000 0.000000 0
1.860000 0.000000 0
1.880000 0.000000 0
1.900000 0.000000 0
1.920000 0.000000 0
1.940000 0.000000 0
1.960000 0.000000 0
0.000000 0.020000 0
0.020000 0.020000 0
0.040000 0.020000 0
0.060000 0.020000 0
0.080000 0.020000 0
0.100000 0.020000 0
0.120000 0.020000 0
0.140000 0.020000 0
0.160000 0.020000 0
0.180000 0.020000 0
0.200000 0.020000 0
0.220000 0.020000 0
0.240000 0.020000 0
0.260000 0.020000 0
0.280000 0.020000 0
0.300000 0.020000 0
0.320000 0.020000 0
0.340000 0.020000 0
0.360000 0.020000 0
0.380000 0.020000 0
0.400000 0.020000 0
0.420000 0.020000 0
0.440000 0.020000 0
0.460000 0.020000 0
0.480000 0.020000 0
0.500000 0.020000 0
0.520000 0.020000 0
0.540000 0.020000 0
0.560000 0.020000 0
0.580000 0.020000 0
0.600000 0.020000 0
0.620000 0.020000 0
0.640000 0.020000 0
0.660000 0.020000 0
0.680000 0.020000 0
0.700000 0.020000 0
0.720000 0.020000 0
0.740000 0.020000 0
0.760000 0.020000 0
0.780000 0.020000 0
0.800000 0.020000 0
0.820000 0.020000 0
0.840000 0.020000 0
0.860000 0.020000 0
0.880000 0.020000 0
0.900000 0.020000 0
0.920000 0.020000 0
0.940000 0.020000 0
0.960000 0.020000 0
0.980000 0.020000 0
1.000000 0.020000 0
1.020000 0.020000 0
1.040000 0.020000 0
1.060000 0.020000 0
1.080000 0.020000 0
1.100000 0.020000 0
1.120000 0.020000 0
1.140000 0.020000 0
1.160000 0.020000 0
1.180000 0.020000 0
1.200000 0.020000 0
1.220000 0.020000 0
1.240000 0.020000 0
1.260000 0.020000 0
1.280000 0.020000 0
1.300000 0.020000 0
1.320000 0.020000 0
1.340000 0.020000 0
1.360000 0.020000 0
1.380000 0.020000 0
1.400000 0.020000 0
1.420000 0.020000 0
1.440000 0.020000 0
1.460000 0.020000 0
1.480000 0.020000 0
1.500000 0.020000 0
1.520000 0.020000 0
1.540000 0.020000 0
1.560000 0.020000 0
1.580000 0.020000 0
1.600000 0.020000 0
1.620000 0.020000 0
1.640000 0.020000 0
1.660000 0.020000 0
1.680000 0.020000 0
1.700000 0.020000 0
1.720000 0.020000 0
1.740000 0.020000 0
1.760000 0.020000 0
1.780000 0.020000 0
1.800000 0.020000 0
1.820000 0.020000 0
1.840000 0.020000 0
1.860000 0.020000 0
1.880000 0.020000 0
1.900000 0.020000 0
1.920000 0.020000 0
1.940000 0.020000 0
1.960000 0.020000 0
0.000000 0.040000 0
0.020000 0.040000 0
0.040000 0.040000 0
0.060000 0.040000 0
0.080000 0.040000 0
0.100000 0.040000 0
0.120000 0.040000 0
0.140000 0.040000 0
0.160000 0.040000 0
0.180000 0.040000 0
0.200000 0.040000 0
0.220000 0.040000 0
0.240000 0.040000 0
0.260000 0.040000 0
0.280000 0.040000 0
0.300000 0.040000 0
0.320000 0.040000 0
0.340000 0.040000 0
0.360000 0.040000 0
0.380000 0.040000 0
0.400000 0.040000 0
0.420000 0.040000 0
0.440000 0.040000 0
0.460000 0.040000 0
0.480000 0.040000 0
0.500000 0.040000 0
0.520000 0.040000 0
0.540000 0.040000 0
0.560000 0.040000 0
0.580000 0.040000 0
0.600000 0.040000 0
0.620000 0.040000 0
0.640000 0.040000 0
0.660000 0.040000 0
0.680000 0.040000 0
0.700000 0.040000 0
0.720000 0.040000 0
0.740000 0.040000 0
0.760000 0.040000 0
0.780000 0.040000 0
0.800000 0.040000 0
0.820000 0.040000 0
0.840000 0.040000 0
0.860000 0.040000 0
0.880000 0.040000 0
0.900000 0.040000 0
0.920000 0.040000 0
0.940000 0.040000 0
0.960000 0.040000 0
0.980000 0.040000 0
1.000000 0.040000 0
1.020000 0.040000 0
1.040000 0.040000 0
1.060000 0.040000 0
1.080000 0.040000 0
1.100000 0.040000 0
1.120000 0.040000 0
1.140000 0.040000 0
1.160000 0.040000 0
1.180000 0.040000 0
1.200000 0.040000 0
1.220000 0.040000 0
1.240000 0.040000 0
1.260000 0.040000 0
1.280000 0.040000 0
1.300000 0.040000 0
1.320000 0.040000 0
1.340000 0.040000 0
1.360000 0.040000 0
1.380000 0.040000 0
1.400000 0.040000 0
1.420000 0.040000 0
1.440000 0.040000 0
1.460000 0.040000 0
1.480000 0.040000 0
1.500000 0.040000 0
1.520000 0.040000 0
1.540000 0.040000 0
1.560000 0.040000 0
1.580000 0.040000 0
1.600000 0.040000 0
1.620000 0.040000 0
1.640000 0.040000 0
1.660000 0.040000 0
1.680000 0.040000 0
1.700000 0.040000 0
1.720000 0.040000 0
1.740000 0.040000 0
1.760000 0.040000 0
1.780000 0.040000 0
1.800000 0.040000 0
1.820000 0.040000 0
1.840000 0.040000 0
1.860000 0.040000 0
1.880000 0.040000 0
1.900000 0.040000 0
1.920000 0.040000 0
1.940000 0.040000 0
1.960000 0.040000 0
0.000000 0.060000 0
0.020000 0.060000 0
0.040000 0.060000 0
0.060000 0.060000 0
0.080000 0.060000 0
0.100000 0.060000 0
0.120000 0.060000 0
0.140000 0.060000 0
0.160000 0.060000 0
0.180000 0.060000 0
0.200000 0.060000 0
0.220000 0.060000 0
0.240000 0.060000 0
0.260000 0.060000 0
0.280000 0.060000 0
0.300000 0.060000 0
0.320000 0.060000 0
0.340000 0.060000 0
0.360000 0.060000 0
0.380000 0.060000 0
0.400000 0.060000 0
0.420000 0.060000 0
0.440000 0.060000 0
0.460000 0.060000 0
0.480000 0.060000 0
0.500000 0.060000 0
0.520000 0.060000 0
0.540000 0.060000 0
0.560000 0.060000 0
0.580000 0.060000 0
0.600000 0.060000 0
0.620000 0.060000 0
0.640000 0.060000 0
0.660000 0.060000 0
0.680000 0.060000 0
0.700000 0.060000 0
0.720000 0.060000 0
0.740000 0.060000 0
0.760000 0.060000 0
0.780000 0.060000 0
0.800000 0.060000 0
0.820000 0.060000 0
0.840000 0.060000 0
0.860000 0.060000 0
0.880000 0.060000 0
0.900000 0.060000 0
0.920000 0.060000 0
0.940000 0.060000 0
0.960000 0.060000 0
0.980000 0.060000 0
1.000000 0.060000 0
1.020000 0.060000 0
1.040000 0.060000 0
1.060000 0.060000 0
1.080000 0.060000 0
1.100000 0.060000 0
1.120000 0.060000 0
1.140000 0.060000 0
1.160000 0.060000 0
1.180000 0.060000 0
1.200000 0.060000 0
1.220000 0.060000 0
1.240000 0.060000 0
1.260000 0.060000 0
1.280000 0.060000 0
1.300000 0.060000 0
1.320000 0.060000 0
1.340000 0.060000 0
1.360000 0.060000 0
1.380000 0.060000 0
1.400000 0.060000 0
1.420000 0.060000 0
1.440000 0.060000 0
1.460000 0.060000 0
1.480000 0.060000 0
1.500000 0.060000 0
1.520000 0.060000 0
1.540000 0.060000 0
1.560000 0.060000 0
1.580000 0.060000 0
1.600000 0.060000 0
1.620000 0.060000 0
1.640000 0.060000 0
1.660000 0.060000 0
1.680000 0.060000 0
1.700000 0.060000 0
1.720000 0.060000 0
1.740000 0.060000 0
1.760000 0.060000 0
1.780000 0.060000 0
1.800000 0.060000 0
1.820000 0.060000 0
1.840000 0.060000 0
1.860000 0.060000 0
1.880000 0.060000 0
1.900000 0.060000 0
1.920000 0.060000 0
1.940000 0.060000 0
1.960000 0.060000 0
0.000000 0.080000 0
0.020000 0.080000 0
0.040000 0.080000 0
0.060000 0.080000 0
0.080000 0.080000 0
0.100000 0.080000 0
0.120000 0.080000 0
0.140000 0.080000 0
0.160000 0.080000 0
0.180000 0.080000 0
0.200000 0.080000 0
0.220000 0.080000 0
0.240000 0.080000 0
0.260000 0.080000 0
0.280000 0.080000 0
0.300000 0.080000 0
0.320000 0.080000 0
0.340000 0.080000 0
0.360000 0.080000 0
0.380000 0.080000 0
0.400000 0.080000 0
0.420000 0.080000 0
0.440000 0.080000 0
0.460000 0.080000 0
0.480000 0.080000 0
0.500000 0.080000 0
0.520000 0.080000 0
0.540000 0.080000 0
0.560000 0.080000 0
0.580000 0.080000 0
0.600000 0.080000 0
0.620000 0.080000 0
0.640000 0.080000 0
0.660000 0.080000 0
0.680000 0.080000 0
0.700000 0.080000 0
0.720000 0.080000 0
0.740000 0.080000 0
0.760000 0.080000 0
0.780000 0.080000 0
0.800000 0.080000 0
0.820000 0.080000 0
0.840000 0.080000 0
0.860000 0.080000 0
0.880000 0.080000 0
0.900000 0.080000 0
0.920000 0.080000 0
0.940000 0.080000 0
0.960000 0.080000 0
0.980000 0.080000 0
1.000000 0.080000 0
1.020000 0.080000 0
1.040000 0.080000 0
1.060000 0.080000 0
1.080000 0.080000 0
1.100000 0.080000 0
1.120000 0.080000 0
1.140000 0.080000 0
1.160000 0.080000 0
1.180000 0.080000 0
1.200000 0.080000 0
1.220000 0.080000 0
1.240000 0.080000 0
1.260000 0.080000 0
1.280000 0.080000 0
1.300000 0.080000 0
1.320000 0.080000 0
1.340000 0.080000 0
1.360000 0.080000 0
1.380000 0.080000 0
1.400000 0.080000 0
1.420000 0.080000 0
1.440000 0.080000 0
1.460000 0.080000 0
1.480000 0.080000 0
1.500000 0.080000 0
1.520000 0.080000 0
1.540000 0.080000 0
1.560000 0.080000 0
1.580000 0.080000 0
1.600000 0.080000 0
1.620000 0.080000 0
1.640000 0.080000 0
1.660000 0.080000 0
1.680000 0.080000 0
1.700000 0.080000 0
1.720000 0.080000 0
1.740000 0.080000 0
1.760000 0.080000 0
1.780000 0.080000 0
1.800000 0.080000 0
1.820000 0.080000 0
1.840000 0.080000 0
1.860000 0.080000 0
1.880000 0.080000 0
[...]
POINT_DATA 4851 

VECTORS velocity float
0.000000 0.000000 0
-0.000369 0.000000 0
-0.000505 0.000000 0
-0.000472 0.000000 0
-0.000398 0.000000 0
-0.000332 0.000000 0
-0.000282 0.000000 0
-0.000245 0.000000 0
-0.000218 0.000000 0
-0.000197 0.000000 0
-0.000180 0.000000 0
-0.000166 0.000000 0
-0.000154 0.000000 0
-0.000143 0.000000 0
-0.000133 0.000000 0
-0.000124 0.000000 0
-0.000116 0.000000 0
-0.000108 0.000000 0
-0.000101 0.000000 0
-0.000094 0.000000 0
-0.000088 0.000000 0
-0.000081 0.000000 0
-0.000075 0.000000 0
-0.000069 0.000000 0
-0.000064 0.000000 0
-0.000058 0.000000 0
-0.000053 0.000000 0
-0.000048 0.000000 0
-0.000043 0.000000 0
-0.000039 0.000000 0
-0.000034 0.000000 0
-0.000029 0.000000 0
-0.000023 0.000000 0
-0.000017 0.000000 0
-0.000009 0.000000 0
-0.000003 0.000000 0
0.000000 0.000000 0
0.000000 0.000000 0
0.000000 0.000000 0
0.000000 0.000000 0
0.000000 0.000000 0
-0.000016 0.000000 0
-0.000050 0.000000 0
-0.000086 0.000000 0
-0.000116 0.000000 0
-0.000138 0.000000 0
-0.000152 0.000000 0
-0.000162 0.000000 0
-0.000167 0.000000 0
-0.000171 0.000000 0
-0.000174 0.000000 0
-0.000176 0.000000 0
-0.000179 0.000000 0
-0.000180 0.000000 0
-0.000182 0.000000 0
-0.000184 0.000000 0
-0.000185 0.000000 0
-0.000187 0.000000 0
-0.000188 0.000000 0
-0.000189 0.000000 0
-0.000190 0.000000 0
-0.000191 0.000000 0
-0.000193 0.000000 0
-0.000194 0.000000 0
-0.000195 0.000000 0
-0.000196 0.000000 0
-0.000197 0.000000 0
-0.000198 0.000000 0
-0.000198 0.000000 0
-0.000199 0.000000 0
-0.000200 0.000000 0
-0.000201 0.000000 0
-0.000202 0.000000 0
-0.000203 0.000000 0
-0.000204 0.000000 0
-0.000204 0.000000 0
-0.000205 0.000000 0
-0.000206 0.000000 0
-0.000206 0.000000 0
-0.000207 0.000000 0
-0.000207 0.000000 0
-0.000206 0.000000 0
-0.000205 0.000000 0
-0.000203 0.000000 0
-0.000202 0.000000 0
-0.000202 0.000000 0
-0.000204 0.000000 0
-0.000209 0.000000 0
-0.000218 0.000000 0
-0.000233 0.000000 0
-0.000252 0.000000 0
-0.000273 0.000000 0
-0.000292 0.000000 0
-0.000300 0.000000 0
-0.000287 0.000000 0
-0.000243 0.000000 0
-0.000164 0.000000 0
-0.000065 0.000000 0
0.000000 0.000000 0
0.000000 0.000369 0
-0.000736 0.000506 0
-0.001168 0.000104 0
-0.001233 -0.000106 0
-0.001140 -0.000140 0
-0.001014 -0.000116 0
-0.000899 -0.000086 0
-0.000803 -0.000063 0
-0.000726 -0.000047 0
-0.000663 -0.000037 0
-0.000610 -0.000030 0
-0.000565 -0.000026 0
-0.000526 -0.000022 0
-0.000490 -0.000020 0
-0.000458 -0.000018 0
-0.000428 -0.000016 0
-0.000400 -0.000015 0
-0.000374 -0.000014 0
-0.000350 -0.000013 0
-0.000326 -0.000013 0
-0.000304 -0.000012 0
-0.000282 -0.000012 0
-0.000261 -0.000011 0
-0.000241 -0.000011 0
-0.000222 -0.000010 0
-0.000203 -0.000010 0
-0.000184 -0.000010 0
-0.000167 -0.000009 0
-0.000149 -0.000009 0
-0.000132 -0.000009 0
-0.000115 -0.000009 0
-0.000097 -0.000010 0
-0.000077 -0.000012 0
-0.000055 -0.000013 0
-0.000031 -0.000013 0
-0.000010 -0.000009 0
0.000000 -0.000002 0
0.000000 0.000000 0
0.000000 0.000000 0
0.000000 0.000000 0
0.000000 0.000015 0
-0.000049 0.000049 0
-0.000145 0.000070 0
-0.000251 0.000066 0
-0.000344 0.000052 0
-0.000416 0.000036 0
-0.000467 0.000023 0
-0.000503 0.000014 0
-0.000528 0.000009 0
-0.000547 0.000006 0
-0.000561 0.000005 0
-0.000572 0.000004 0
-0.000581 0.000003 0
-0.000590 0.000003 0
-0.000597 0.000003 0
-0.000604 0.000003 0
-0.000611 0.000002 0
-0.000616 0.000002 0
-0.000622 0.000002 0
-0.000627 0.000002 0
-0.000632 0.000002 0
-0.000636 0.000002 0
-0.000640 0.000002 0
-0.000645 0.000002 0
-0.000648 0.000002 0
-0.000652 0.000001 0
-0.000655 0.000001 0
-0.000659 0.000001 0
-0.000662 0.000001 0
-0.000665 0.000001 0
-0.000668 0.000001 0
-0.000671 0.000001 0
-0.000673 0.000001 0
-0.000676 0.000001 0
-0.000679 0.000001 0
-0.000681 0.000001 0
-0.000684 0.000001 0
-0.000685 0.000001 0
-0.000687 0.000000 0
-0.000687 -0.000000 0
-0.000686 -0.000001 0
-0.000683 -0.000002 0
-0.000679 -0.000003 0
-0.000675 -0.000003 0
-0.000672 -0.000002 0
-0.000672 0.000001 0
-0.000679 0.000007 0
-0.000695 0.000014 0
-0.000724 0.000024 0
-0.000767 0.000033 0
-0.000819 0.000040 0
-0.000874 0.000039 0
-0.000915 0.000026 0
-0.000919 -0.000005 0
-0.000859 -0.000057 0
-0.000710 -0.000124 0
-0.000468 -0.000179 0
-0.000184 -0.000164 0
0.000000 -0.000065 0
0.000000 0.000737 0
-0.000635 0.001169 0
-0.001246 0.000497 0
-0.001524 -0.000026 0
-0.001563 -0.000217 0
-0.001491 -0.000241 0
-0.001384 -0.000210 0
-0.001275 -0.000172 0
-0.001176 -0.000139 0
-0.001088 -0.000115 0
-0.001011 -0.000097 0
-0.000942 -0.000084 0
-0.000880 -0.000074 0
-0.000824 -0.000067 0
-0.000773 -0.000061 0
-0.000724 -0.000057 0
-0.000679 -0.000053 0
-0.000636 -0.000050 0
-0.000595 -0.000047 0
-0.000556 -0.000045 0
-0.000519 -0.000043 0
-0.000482 -0.000042 0
-0.000447 -0.000040 0
-0.000413 -0.000039 0
-0.000380 -0.000038 0
-0.000347 -0.000036 0
-0.000315 -0.000035 0
-0.000285 -0.000034 0
-0.000254 -0.000033 0
-0.000224 -0.000033 0
-0.000194 -0.000034 0
-0.000162 -0.000037 0
-0.000127 -0.000041 0
-0.000090 -0.000045 0
-0.000052 -0.000044 0
-0.000018 -0.000030 0
0.000000 -0.000010 0
0.000000 0.000000 0
0.000000 0.000000 0
0.000000 0.000000 0
0.000000 0.000048 0
-0.000069 0.000144 0
-0.000201 0.000202 0
-0.000351 0.000198 0
-0.000488 0.000164 0
-0.000603 0.000123 0
-0.000691 0.000087 0
-0.000758 0.000061 0
-0.000808 0.000043 0
-0.000846 0.000032 0
-0.000876 0.000025 0
-0.000900 0.000020 0
-0.000921 0.000017 0
-0.000939 0.000015 0
-0.000956 0.000014 0
-0.000970 0.000013 0
-0.000983 0.000012 0
-0.000996 0.000011 0
-0.001007 0.000010 0
-0.001017 0.000009 0
-0.001027 0.000009 0
-0.001035 0.000008 0
-0.001044 0.000008 0
-0.001051 0.000007 0
-0.001058 0.000007 0
-0.001065 0.000007 0
-0.001071 0.000006 0
-0.001077 0.000006 0
-0.001083 0.000006 0
-0.001088 0.000005 0
-0.001093 0.000005 0
-0.001098 0.000005 0
-0.001103 0.000005 0
-0.001107 0.000005 0
-0.001111 0.000005 0
-0.001115 0.000004 0
-0.001118 0.000004 0
-0.001120 0.000002 0
-0.001122 0.000001 0
-0.001121 -0.000001 0
-0.001119 -0.000004 0
-0.001114 -0.000007 0
-0.001108 -0.000009 0
-0.001102 -0.000008 0
-0.001098 -0.000004 0
-0.001099 0.000006 0
-0.001109 0.000023 0
-0.001134 0.000045 0
-0.001176 0.000071 0
-0.001235 0.000095 0
-0.001305 0.000107 0
-0.001371 0.000095 0
-0.001409 0.000045 0
-0.001387 -0.000056 0
-0.001267 -0.000210 0
-0.001023 -0.000391 0
-0.000661 -0.000526 0
-0.000256 -0.000469 0
0.000000 -0.000184 0
0.000000 0.001005 0
-0.000451 0.001753 0
-0.001047 0.000994 0
-0.001433 0.000211 0
-0.001594 -0.000172 0
-0.001611 -0.000295 0
-0.001558 -0.000302 0
-0.001478 -0.000271 0
-0.001391 -0.000234 0
-0.001307 -0.000202 0
-0.001227 -0.000176 0
-0.001153 -0.000155 0
-0.001085 -0.000140 0
-0.001021 -0.000127 0
-0.000961 -0.000118 0
-0.000904 -0.000110 0
-0.000850 -0.000103 0
-0.000798 -0.000098 0
-0.000749 -0.000093 0
-0.000701 -0.000089 0
-0.000654 -0.000086 0
-0.000609 -0.000083 0
-0.000565 -0.000080 0
-0.000522 -0.000078 0
-0.000480 -0.000076 0
-0.000439 -0.000074 0
-0.000399 -0.000072 0
-0.000359 -0.000070 0
-0.000320 -0.000069 0
-0.000282 -0.000069 0
-0.000242 -0.000071 0
-0.000201 -0.000076 0
-0.000157 -0.000083 0
-0.000111 -0.000089 0
-0.000064 -0.000085 0
-0.000022 -0.000060 0
0.000000 -0.000020 0
0.000000 0.000000 0
0.000000 0.000000 0
0.000000 0.000000 0
0.000000 0.000084 0
-0.000068 0.000250 0
-0.000201 0.000351 0
-0.000356 0.000353 0
-0.000507 0.000303 0
-0.000638 0.000238 0
-0.000746 0.000178 0
-0.000832 0.000131 0
-0.000900 0.000097 0
-0.000954 0.000074 0
-0.000998 0.000059 0
-0.001035 0.000049 0
-0.001067 0.000042 0
-0.001095 0.000037 0
-0.001120 0.000033 0
-0.001142 0.000030 0
-0.001163 0.000028 0
-0.001181 0.000025 0
-0.001198 0.000023 0
-0.001214 0.000022 0
-0.001228 0.000020 0
-0.001241 0.000019 0
-0.001253 0.000017 0
-0.001264 0.000016 0
-0.001274 0.000015 0
-0.001283 0.000014 0
-0.001292 0.000014 0
-0.001301 0.000013 0
-0.001308 0.000012 0
-0.001316 0.000011 0
-0.001322 0.000011 0
-0.001329 0.000010 0
-0.001334 0.000010 0
-0.001340 0.000010 0
-0.001345 0.000009 0
-0.001350 0.000008 0
-0.001354 0.000007 0
-0.001356 0.000004 0
-0.001358 0.000001 0
-0.001357 -0.000003 0
-0.001354 -0.000008 0
-0.001349 -0.000013 0
-0.001343 -0.000016 0
-0.001336 -0.000014 0
-0.001332 -0.000006 0
-0.001333 0.000013 0
-0.001345 0.000042 0
-0.001372 0.000081 0
-0.001416 0.000125 0
-0.001476 0.000162 0
-0.001545 0.000175 0
-0.001605 0.000143 0
-0.001629 0.000041 0
-0.001581 -0.000148 0
-0.001424 -0.000421 0
-0.001133 -0.000730 0
-0.000721 -0.000946 0
-0.000275 -0.000825 0
0.000000 -0.000321 0
0.000000 0.001189 0
-0.000309 0.002217 0
-0.000822 0.001480 0
-0.001225 0.000521 0
-0.001449 -0.000039 0
-0.001534 -0.000276 0
-0.001535 -0.000343 0
-0.001493 -0.000339 0
-0.001432 -0.000311 0
-0.001365 -0.000279 0
-0.001297 -0.000250 0
-0.001230 -0.000226 0
-0.001165 -0.000206 0
-0.001103 -0.000191 0
-0.001043 -0.000178 0
-0.000986 -0.000167 0
-0.000930 -0.000158 0
-0.000876 -0.000151 0
-0.000823 -0.000144 0
-0.000772 -0.000139 0
-0.000722 -0.000134 0
-0.000673 -0.000130 0
-0.000625 -0.000127 0
-0.000578 -0.000123 0
-0.000532 -0.000120 0
-0.000487 -0.000118 0
-0.000442 -0.000115 0
-0.000398 -0.000112 0
-0.000354 -0.000111 0
-0.000310 -0.000111 0
-0.000266 -0.000115 0
-0.000219 -0.000122 0
-0.000171 -0.000131 0
-0.000120 -0.000138 0
-0.000068 -0.000132 0
-0.000024 -0.000094 0
0.000000 -0.000032 0
0.000000 0.000000 0
0.000000 0.000000 0
0.000000 0.000000 0
0.000000 0.000115 0
-0.000055 0.000345 0
-0.000169 0.000491 0
-0.000308 0.000504 0
-0.000448 0.000445 0
-0.000577 0.000362 0
-0.000687 0.000281 0
-0.000780 0.000214 0
-0.000857 0.000165 0
-0.000921 0.000130 0
-0.000975 0.000106 0
-0.001022 0.000089 0
-0.001063 0.000077 0
-0.001100 0.000068 0
-0.001133 0.000061 0
-0.001163 0.000055 0
-0.001190 0.000050 0
-0.001215 0.000046 0
-0.001238 0.000042 0
-0.001259 0.000039 0
-0.001277 0.000036 0
-0.001294 0.000033 0
-0.001310 0.000030 0
-0.001324 0.000028 0
-0.001337 0.000026 0
-0.001349 0.000025 0
-0.001361 0.000023 0
-0.001371 0.000022 0
-0.001381 0.000020 0
-0.001390 0.000019 0
-0.001398 0.000018 0
-0.001406 0.000017 0
-0.001413 0.000016 0
-0.001420 0.000015 0
-0.001426 0.000014 0
-0.001432 0.000012 0
-0.001437 0.000010 0
-0.001440 0.000006 0
-0.001443 0.000001 0
-0.001443 -0.000005 0
-0.001442 -0.000012 0
-0.001438 -0.000018 0
-0.001433 -0.000022 0
-0.001428 -0.000020 0
-0.001424 -0.000007 0
-0.001426 0.000019 0
-0.001437 0.000061 0
-0.001462 0.000116 0
-0.001503 0.000176 0
-0.001558 0.000224 0
-0.001619 0.000235 0
-0.001669 0.000179 0
-0.001680 0.000020 0
-0.001617 -0.000262 0
-0.001444 -0.000658 0
-0.001140 -0.001094 0
-0.000719 -0.001385 0
-0.000270 -0.001190 0
0.000000 -0.000459 0
0.000000 0.001314 0
-0.000211 0.002575 0
-0.000632 0.001910 0
-0.001007 0.000839 0
-0.001248 0.000136 0
-0.001366 -0.000209 0
-0.001403 -0.000342 0
-0.001393 -0.000373 0
-0.001359 -0.000362 0
-0.001312 -0.000337 0
-0.001260 -0.000311 0
-0.001206 -0.000287 0
-0.001152 -0.000266 0
-0.001097 -0.000249 0
-0.001043 -0.000235 0
-0.000990 -0.000223 0
-0.000937 -0.000213 0
-0.000886 -0.000204 0
-0.000835 -0.000196 0
-0.000785 -0.000190 0
-0.000735 -0.000184 0
-0.000687 -0.000179 0
-0.000639 -0.000175 0
-0.000591 -0.000171 0
-0.000544 -0.000167 0
-0.000498 -0.000164 0
-0.000452 -0.000160 0
-0.000406 -0.000158 0
-0.000361 -0.000156 0
-0.000316 -0.000157 0
-0.000270 -0.000162 0
-0.000222 -0.000170 0
-0.000172 -0.000182 0
-0.000120 -0.000191 0
-0.000068 -0.000181 0
-0.000023 -0.000128 0
0.000000 -0.000044 0
0.000000 0.000000 0
0.000000 0.000000 0
0.000000 0.000000 0
0.000000 0.000139 0
-0.000038 0.000419 0
-0.000123 0.000604 0
-0.000232 0.000632 0
-0.000348 0.000572 0
-0.000459 0.000477 0
-0.000559 0.000381 0
-0.000648 0.000300 0
-0.000725 0.000238 0
-0.000792 0.000192 0
-0.000850 0.000160 0
-0.000903 0.000137 0
-0.000951 0.000120 0
-0.000994 0.000107 0
-0.001034 0.000096 0
-0.001071 0.000087 0
-0.001105 0.000080 0
-0.001136 0.000073 0
-0.001164 0.000066 0
-0.001190 0.000061 0
-0.001214 0.000056 0
-0.001235 0.000051 0
-0.001254 0.000047 0
-0.001271 0.000043 0
-0.001287 0.000040 0
-0.001302 0.000037 0
-0.001315 0.000035 0
-0.001327 0.000033 0
-0.001339 0.000031 0
-0.001350 0.000029 0
-0.001360 0.000027 0
-0.001370 0.000025 0
-0.001379 0.000024 0
-0.001387 0.000022 0
-0.001395 0.000021 0
-0.001403 0.000018 0
-0.001409 0.000015 0
-0.001415 0.000010 0
-0.001419 0.000004 0
-0.001422 -0.000005 0
-0.001424 -0.000014 0
-0.001423 -0.000022 0
-0.001421 -0.000026 0
-0.001418 -0.000023 0
-0.001417 -0.000007 0
-0.001420 0.000026 0
-0.001431 0.000078 0
-0.001453 0.000147 0
-0.001488 0.000220 0
-0.001536 0.000278 0
-0.001588 0.000286 0
-0.001629 0.000204 0
-0.001632 -0.000010 0
-0.001564 -0.000383 0
-0.001391 -0.000899 0
-0.001093 -0.001456 0
-0.000686 -0.001815 0
-0.000256 -0.001544 0
0.000000 -0.000592 0
0.000000 0.001400 0
-0.000145 0.002850 0
-0.000485 0.002276 0
-0.000816 0.001136 0
-0.001045 0.000320 0
-0.001173 -0.000120 0
-0.001227 -0.000316 0
-0.001237 -0.000383 0
-0.001221 -0.000391 0
-0.001192 -0.000377 0
-0.001156 -0.000356 0
-0.001116 -0.000334 0
-0.001073 -0.000315 0
-0.001029 -0.000299 0
-0.000984 -0.000285 0
-0.000938 -0.000273 0
-0.000892 -0.000262 0
-0.000846 -0.000253 0
-0.000799 -0.000245 0
-0.000753 -0.000238 0
-0.000707 -0.000232 0
-0.000661 -0.000227 0
-0.000615 -0.000222 0
-0.000570 -0.000218 0
-0.000525 -0.000214 0
-0.000480 -0.000210 0
-0.000436 -0.000206 0
-0.000392 -0.000203 0
-0.000348 -0.000201 0
-0.000304 -0.000203 0
-0.000259 -0.000208 0
-0.000212 -0.000219 0
-0.000164 -0.000233 0
-0.000113 -0.000242 0
-0.000064 -0.000229 0
-0.000021 -0.000161 0
0.000000 -0.000055 0
0.000000 0.000000 0
0.000000 0.000000 0
0.000000 0.000000 0
0.000000 0.000153 0
-0.000021 0.000468 0
-0.000074 0.000684 0
-0.000147 0.000728 0
-0.000229 0.000672 0
-0.000314 0.000573 0
-0.000395 0.000470 0
-0.000470 0.000379 0
-0.000539 0.000308 0
-0.000602 0.000255 0
-0.000660 0.000217 0
-0.000714 0.000189 0
-0.000765 0.000168 0
-0.000813 0.000152 0
-0.000858 0.000138 0
-0.000901 0.000126 0
-0.000941 0.000115 0
-0.000978 0.000105 0
-0.001012 0.000096 0
-0.001043 0.000088 0
-0.001071 0.000080 0
-0.001096 0.000073 0
-0.001119 0.000067 0
-0.001139 0.000061 0
-0.001158 0.000057 0
-0.001175 0.000052 0
-0.001190 0.000049 0
-0.001205 0.000046 0
-0.001218 0.000043 0
-0.001231 0.000040 0
-0.001244 0.000038 0
-0.001255 0.000036 0
-0.001266 0.000033 0
-0.001277 0.000031 0
-0.001287 0.000029 0
-0.001297 0.000026 0
-0.001306 0.000022 0
-0.001314 0.000016 0
-0.001322 0.000009 0
-0.001328 -0.000001 0
-0.001334 -0.000011 0
-0.001338 -0.000021 0
-0.001340 -0.000027 0
-0.001342 -0.000024 0
-0.001345 -0.000006 0
-0.001350 0.000033 0
-0.001360 0.000093 0
-0.001379 0.000173 0
-0.001409 0.000258 0
-0.001449 0.000323 0
-0.001493 0.000328 0
-0.001526 0.000222 0
-0.001524 -0.000045 0
-0.001458 -0.000503 0
-0.001295 -0.001129 0
-0.001017 -0.001799 0
-0.000638 -0.002221 0
-0.000238 -0.001876 0
0.000000 -0.000716 0
0.000000 0.001460 0
-0.000100 0.003061 0
-0.000375 0.002582 0
-0.000659 0.001400 0
-0.000866 0.000494 0
-0.000988 -0.000027 0
-0.001045 -0.000278 0
-0.001063 -0.000379 0
-0.001058 -0.000406 0
-0.001041 -0.000402 0
-0.001017 -0.000387 0
-0.000989 -0.000369 0
-0.000958 -0.000353 0
-0.000924 -0.000338 0
-0.000888 -0.000326 0
-0.000850 -0.000315 0
-0.000812 -0.000305 0
-0.000772 -0.000296 0
-0.000732 -0.000289 0
-0.000691 -0.000282 0
-0.000650 -0.000276 0
-0.000609 -0.000271 0
-0.000567 -0.000266 0
-0.000526 -0.000261 0
-0.000484 -0.000257 0
-0.000443 -0.000253 0
-0.000402 -0.000249 0
-0.000361 -0.000245 0
-0.000320 -0.000244 0
-0.000279 -0.000246 0
-0.000237 -0.000253 0
-0.000194 -0.000265 0
-0.000148 -0.000281 0
-0.000102 -0.000290 0
-0.000056 -0.000273 0
-0.000019 -0.000192 0
0.000000 -0.000065 0
0.000000 0.000000 0
0.000000 0.000000 0
0.000000 0.000000 0
0.000000 0.000160 0
-0.000007 0.000492 0
-0.000028 0.000729 0
-0.000064 0.000787 0
-0.000110 0.000739 0
-0.000162 0.000643 0
-0.000218 0.000538 0
-0.000274 0.000444 0
-0.000328 0.000369 0
-0.000382 0.000313 0
-0.000434 0.000272 0
-0.000486 0.000242 0
-0.000536 0.000219 0
-0.000586 0.000200 0
-0.000634 0.000184 0
-0.000681 0.000170 0
-0.000725 0.000156 0
-0.000768 0.000144 0
-0.000808 0.000131 0
-0.000844 0.000120 0
-0.000878 0.000109 0
-0.000908 0.000099 0
-0.000934 0.000090 0
-0.000958 0.000082 0
-0.000979 0.000075 0
-0.000998 0.000070 0
-0.001016 0.000065 0
-0.001032 0.000061 0
-0.001048 0.000057 0
-0.001063 0.000054 0
-0.001077 0.000051 0
-0.001091 0.000048 0
-0.001104 0.000045 0
-0.001117 0.000043 0
-0.001130 0.000040 0
-0.001142 0.000037 0
-0.001154 0.000032 0
-0.001166 0.000026 0
-0.001178 0.000018 0
-0.001189 0.000007 0
-0.001199 -0.000004 0
-0.001208 -0.000015 0
-0.001217 -0.000022 0
-0.001224 -0.000019 0
-0.001231 -0.000000 0
-0.001239 0.000041 0
-0.001250 0.000107 0
-0.001268 0.000195 0
-0.001292 0.000290 0
-0.001325 0.000361 0
-0.001360 0.000362 0
-0.001387 0.000235 0
-0.001383 -0.000078 0
-0.001323 -0.000613 0
-0.001177 -0.001340 0
-0.000926 -0.002113 0
-0.000583 -0.002594 0
-0.000218 -0.002182 0
0.000000 -0.000830 0
0.000000 0.001501 0
-0.000070 0.003225 0
-0.000293 0.002836 0
-0.000535 0.001628 0
-0.000717 0.000649 0
-0.000826 0.000059 0
-0.000878 -0.000241 0
-0.000896 -0.000370 0
-0.000895 -0.000413 0
-0.000884 -0.000417 0
-0.000868 -0.000408 0
-0.000849 -0.000394 0
-0.000826 -0.000380 0
-0.000801 -0.000368 0
-0.000774 -0.000358 0
-0.000745 -0.000348 0
-0.000714 -0.000340 0
-0.000681 -0.000333 0
-0.000647 -0.000326 0
-0.000613 -0.000320 0
-0.000577 -0.000314 0
-0.000541 -0.000310 0
-0.000505 -0.000305 0
-0.000468 -0.000301 0
-0.000431 -0.000296 0
-0.000394 -0.000292 0
-0.000357 -0.000288 0
-0.000321 -0.000284 0
-0.000284 -0.000283 0
-0.000247 -0.000285 0
-0.000209 -0.000293 0
-0.000170 -0.000308 0
-0.000129 -0.000325 0
-0.000088 -0.000334 0
-0.000048 -0.000312 0
-0.000015 -0.000218 0
0.000000 -0.000073 0
0.000000 0.000000 0
0.000000 0.000000 0
0.000000 0.000000 0
0.000000 0.000159 0
0.000005 0.000495 0
0.000011 0.000741 0
0.000010 0.000809 0
-0.000000 0.000770 0
-0.000019 0.000681 0
-0.000046 0.000581 0
-0.000079 0.000490 0
-0.000115 0.000416 0
-0.000155 0.000361 0
-0.000197 0.000321 0
-0.000242 0.000291 0
-0.000288 0.000268 0
-0.000336 0.000249 0
-0.000384 0.000233 0
-0.000433 0.000217 0
-0.000482 0.000202 0
-0.000529 0.000187 0
-0.000574 0.000172 0
-0.000617 0.000158 0
-0.000656 0.000143 0
-0.000692 0.000130 0
-0.000723 0.000117 0
-0.000751 0.000106 0
-0.000775 0.000097 0
-0.000796 0.000089 0
-0.000816 0.000082 0
-0.000833 0.000077 0
-0.000851 0.000073 0
-0.000867 0.000069 0
-0.000883 0.000066 0
-0.000899 0.000063 0
-0.000915 0.000060 0
-0.000931 0.000057 0
-0.000946 0.000054 0
-0.000962 0.000050 0
-0.000977 0.000046 0
-0.000992 0.000040 0
-0.001008 0.000031 0
-0.001023 0.000021 0
-0.001039 0.000008 0
-0.001054 -0.000004 0
-0.001068 -0.000011 0
-0.001081 -0.000009 0
-0.001093 0.000009 0
-0.001105 0.000052 0
-0.001118 0.000121 0
-0.001134 0.000215 0
-0.001155 0.000316 0
-0.001180 0.000391 0
-0.001208 0.000389 0
-0.001228 0.000245 0
-0.001225 -0.000108 0
-0.001173 -0.000709 0
-0.001047 -0.001526 0
-0.000828 -0.002393 0
-0.000524 -0.002930 0
-0.000197 -0.002460 0
0.000000 -0.000934 0
0.000000 0.001530 0
-0.000048 0.003354 0
-0.000231 0.003048 0
-0.000439 0.001825 0
-0.000597 0.000784 0
-0.000691 0.000134 0
-0.000735 -0.000208 0
-0.000749 -0.000362 0
-0.000747 -0.000417 0
-0.000738 -0.000428 0
-0.000726 -0.000422 0
-0.000712 -0.000411 0
-0.000696 -0.000400 0
-0.000678 -0.000390 0
-0.000658 -0.000382 0
-0.000635 -0.000375 0
-0.000611 -0.000368 0
-0.000584 -0.000362 0
-0.000557 -0.000357 0
-0.000528 -0.000352 0
-0.000498 -0.000347 0
-0.000467 -0.000343 0
-0.000436 -0.000339 0
-0.000404 -0.000335 0
-0.000372 -0.000331 0
-0.000340 -0.000326 0
-0.000308 -0.000322 0
-0.000276 -0.000318 0
-0.000244 -0.000317 0
-0.000212 -0.000320 0
-0.000179 -0.000329 0
-0.000145 -0.000345 0
-0.000109 -0.000363 0
-0.000073 -0.000372 0
-0.000039 -0.000345 0
-0.000012 -0.000239 0
0.000000 -0.000080 0
0.000000 0.000000 0
0.000000 0.000000 0
0.000000 0.000000 0
0.000000 0.000154 0
0.000014 0.000481 0
0.000042 0.000724 0
0.000071 0.000798 0