# vtk DataFile Version 2.0
generated by CFD-lab course output (written by Tobias Neckel) 
ASCII

DATASET STRUCTURED_GRID
DIMENSIONS  99 49 1 
POINTS 4851 float

0.000000 0.000000 0
0.020000 0.000000 0
0.040000 0.000000 0
0.060000 0.000000 0
0.080000 0.000000 0
0.100000 0.000000 0
0.120000 0.000000 0
0.140000 0.000000 0
0.160000 0.000000 0
0.180000 0.000000 0
0.200000 0.000000 0
0.220000 0.000000 0
0.240000 0.000000 0
0.260000 0.000000 0
0.280000 0.000000 0
0.300000 0.000000 0
0.320000 0.000000 0
0.340000 0.000000 0
0.360000 0.000000 0
0.380000 0.000000 0
0.400000 0.000000 0
0.420000 0.000000 0
0.440000 0.000000 0
0.460000 0.000000 0
0.480000 0.000000 0
0.500000 0.000000 0
0.520000 0.000000 0
0.540000 0.000000 0
0.560000 0.000000 0
0.580000 0.000000 0
0.600000 0.000000 0
0.620000 0.000000 0
0.640000 0.000000 0
0.660000 0.000000 0
0.680000 0.000000 0
0.700000 0.000000 0
0.720000 0.000000 0
0.740000 0.000000 0
0.760000 0.000000 0
0.780000 0.000000 0
0.800000 0.000000 0
0.820000 0.000000 0
0.840000 0.000000 0
0.860000 0.000000 0
0.880000 0.000000 0
0.900000 0.000000 0
0.920000 0.000000 0
0.940000 0.000000 0
0.960000 0.000000 0
0.980000 0.000000 0
1.000000 0.000000 0
1.020000 0.000000 0
1.040000 0.000000 0
1.060000 0.000000 0
1.080000 0.000000 0
1.100000 0.000000 0
1.120000 0.000000 0
1.140000 0.000000 0
1.160000 0.000000 0
1.180000 0.000000 0
1.200000 0.000000 0
1.220000 0.000000 0
1.240000 0.000000 0
1.260000 0.000000 0
1.280000 0.000000 0
1.300000 0.000000 0
1.320000 0.000000 0
1.340000 0.000000 0
1.360000 0.000000 0
1.380000 0.000000 0
1.400000 0.000000 0
1.420000 0.000000 0
1.440000 0.000000 0
1.460000 0.000000 0
1.480000 0.000000 0
1.500000 0.000000 0
1.520000 0.000000 0
1.540000 0.000000 0
1.560000 0.000000 0
1.580000 0.000000 0
1.600000 0.000000 0
1.620000 0.000000 0
1.640000 0.000000 0
1.660000 0.000000 0
1.680000 0.000000 0
1.700000 0.000000 0
1.720000 0.000000 0
1.740000 0.000000 0
1.760000 0.000000 0
1.780000 0.000000 0
1.800000 0.000000 0
1.820000 0.000000 0
1.840000 0.000000 0
1.860000 0.000000 0
1.880000 0.000000 0
1.900000 0.000000 0
1.920000 0.000000 0
1.940000 0.000000 0
1.960000 0.000000 0
0.000000 0.020000 0
0.020000 0.020000 0
0.040000 0.020000 0
0.060000 0.020000 0
0.080000 0.020000 0
0.100000 0.020000 0
0.120000 0.020000 0
0.140000 0.020000 0
0.160000 0.020000 0
0.180000 0.020000 0
0.200000 0.020000 0
0.220000 0.020000 0
0.240000 0.020000 0
0.260000 0.020000 0
0.280000 0.020000 0
0.300000 0.020000 0
0.320000 0.020000 0
0.340000 0.020000 0
0.360000 0.020000 0
0.380000 0.020000 0
0.400000 0.020000 0
0.420000 0.020000 0
0.440000 0.020000 0
0.460000 0.020000 0
0.480000 0.020000 0
0.500000 0.020000 0
0.520000 0.020000 0
0.540000 0.020000 0
0.560000 0.020000 0
0.580000 0.020000 0
0.600000 0.020000 0
0.620000 0.020000 0
0.640000 0.020000 0
0.660000 0.020000 0
0.680000 0.020000 0
0.700000 0.020000 0
0.720000 0.020000 0
0.740000 0.020000 0
0.760000 0.020000 0
0.780000 0.020000 0
0.800000 0.020000 0
0.820000 0.020000 0
0.840000 0.020000 0
0.860000 0.020000 0
0.880000 0.020000 0
0.900000 0.020000 0
0.920000 0.020000 0
0.940000 0.020000 0
0.960000 0.020000 0
0.980000 0.020000 0
1.000000 0.020000 0
1.020000 0.020000 0
1.040000 0.020000 0
1.060000 0.020000 0
1.080000 0.020000 0
1.100000 0.020000 0
1.120000 0.020000 0
1.140000 0.020000 0
1.160000 0.020000 0
1.180000 0.020000 0
1.200000 0.020000 0
1.220000 0.020000 0
1.240000 0.020000 0
1.260000 0.020000 0
1.280000 0.020000 0
1.300000 0.020000 0
1.320000 0.020000 0
1.340000 0.020000 0
1.360000 0.020000 0
1.380000 0.020000 0
1.400000 0.020000 0
1.420000 0.020000 0
1.440000 0.020000 0
1.460000 0.020000 0
1.480000 0.020000 0
1.500000 0.020000 0
1.520000 0.020000 0
1.540000 0.020000 0
1.560000 0.020000 0
1.580000 0.020000 0
1.600000 0.020000 0
1.620000 0.020000 0
1.640000 0.020000 0
1.660000 0.020000 0
1.680000 0.020000 0
1.700000 0.020000 0
1.720000 0.020000 0
1.740000 0.020000 0
1.760000 0.020000 0
1.780000 0.020000 0
1.800000 0.020000 0
1.820000 0.020000 0
1.840000 0.020000 0
1.860000 0.020000 0
1.880000 0.020000 0
1.900000 0.020000 0
1.920000 0.020000 0
1.940000 0.020000 0
1.960000 0.020000 0
0.000000 0.040000 0
0.020000 0.040000 0
0.040000 0.040000 0
0.060000 0.040000 0
0.080000 0.040000 0
0.100000 0.040000 0
0.120000 0.040000 0
0.140000 0.040000 0
0.160000 0.040000 0
0.180000 0.040000 0
0.200000 0.040000 0
0.220000 0.040000 0
0.240000 0.040000 0
0.260000 0.040000 0
0.280000 0.040000 0
0.300000 0.040000 0
0.320000 0.040000 0
0.340000 0.040000 0
0.360000 0.040000 0
0.380000 0.040000 0
0.400000 0.040000 0
0.420000 0.040000 0
0.440000 0.040000 0
0.460000 0.040000 0
0.480000 0.040000 0
0.500000 0.040000 0
0.520000 0.040000 0
0.540000 0.040000 0
0.560000 0.040000 0
0.580000 0.040000 0
0.600000 0.040000 0
0.620000 0.040000 0
0.640000 0.040000 0
0.660000 0.040000 0
0.680000 0.040000 0
0.700000 0.040000 0
0.720000 0.040000 0
0.740000 0.040000 0
0.760000 0.040000 0
0.780000 0.040000 0
0.800000 0.040000 0
0.820000 0.040000 0
0.840000 0.040000 0
0.860000 0.040000 0
0.880000 0.040000 0
0.900000 0.040000 0
0.920000 0.040000 0
0.940000 0.040000 0
0.960000 0.040000 0
0.980000 0.040000 0
1.000000 0.040000 0
1.020000 0.040000 0
1.040000 0.040000 0
1.060000 0.040000 0
1.080000 0.040000 0
1.100000 0.040000 0
1.120000 0.040000 0
1.140000 0.040000 0
1.160000 0.040000 0
1.180000 0.040000 0
1.200000 0.040000 0
1.220000 0.040000 0
1.240000 0.040000 0
1.260000 0.040000 0
1.280000 0.040000 0
1.300000 0.040000 0
1.320000 0.040000 0
1.340000 0.040000 0
1.360000 0.040000 0
1.380000 0.040000 0
1.400000 0.040000 0
1.420000 0.040000 0
1.440000 0.040000 0
1.460000 0.040000 0
1.480000 0.040000 0
1.500000 0.040000 0
1.520000 0.040000 0
1.540000 0.040000 0
1.560000 0.040000 0
1.580000 0.040000 0
1.600000 0.040000 0
1.620000 0.040000 0
1.640000 0.040000 0
1.660000 0.040000 0
1.680000 0.040000 0
1.700000 0.040000 0
1.720000 0.040000 0
1.740000 0.040000 0
1.760000 0.040000 0
1.780000 0.040000 0
1.800000 0.040000 0
1.820000 0.040000 0
1.840000 0.040000 0
1.860000 0.040000 0
1.880000 0.040000 0
1.900000 0.040000 0
1.920000 0.040000 0
1.940000 0.040000 0
1.960000 0.040000 0
0.000000 0.060000 0
0.020000 0.060000 0
0.040000 0.060000 0
0.060000 0.060000 0
0.080000 0.060000 0
0.100000 0.060000 0
0.120000 0.060000 0
0.140000 0.060000 0
0.160000 0.060000 0
0.180000 0.060000 0
0.200000 0.060000 0
0.220000 0.060000 0
0.240000 0.060000 0
0.260000 0.060000 0
0.280000 0.060000 0
0.300000 0.060000 0
0.320000 0.060000 0
0.340000 0.060000 0
0.360000 0.060000 0
0.380000 0.060000 0
0.400000 0.060000 0
0.420000 0.060000 0
0.440000 0.060000 0
0.460000 0.060000 0
0.480000 0.060000 0
0.500000 0.060000 0
0.520000 0.060000 0
0.540000 0.060000 0
0.560000 0.060000 0
0.580000 0.060000 0
0.600000 0.060000 0
0.620000 0.060000 0
0.640000 0.060000 0
0.660000 0.060000 0
0.680000 0.060000 0
0.700000 0.060000 0
0.720000 0.060000 0
0.740000 0.060000 0
0.760000 0.060000 0
0.780000 0.060000 0
0.800000 0.060000 0
0.820000 0.060000 0
0.840000 0.060000 0
0.860000 0.060000 0
0.880000 0.060000 0
0.900000 0.060000 0
0.920000 0.060000 0
0.940000 0.060000 0
0.960000 0.060000 0
0.980000 0.060000 0
1.000000 0.060000 0
1.020000 0.060000 0
1.040000 0.060000 0
1.060000 0.060000 0
1.080000 0.060000 0
1.100000 0.060000 0
1.120000 0.060000 0
1.140000 0.060000 0
1.160000 0.060000 0
1.180000 0.060000 0
1.200000 0.060000 0
1.220000 0.060000 0
1.240000 0.060000 0
1.260000 0.060000 0
1.280000 0.060000 0
1.300000 0.060000 0
1.320000 0.060000 0
1.340000 0.060000 0
1.360000 0.060000 0
1.380000 0.060000 0
1.400000 0.060000 0
1.420000 0.060000 0
1.440000 0.060000 0
1.460000 0.060000 0
1.480000 0.060000 0
1.500000 0.060000 0
1.520000 0.060000 0
1.540000 0.060000 0
1.560000 0.060000 0
1.580000 0.060000 0
1.600000 0.060000 0
1.620000 0.060000 0
1.640000 0.060000 0
1.660000 0.060000 0
1.680000 0.060000 0
1.700000 0.060000 0
1.720000 0.060000 0
1.740000 0.060000 0
1.760000 0.060000 0
1.780000 0.060000 0
1.800000 0.060000 0
1.820000 0.060000 0
1.840000 0.060000 0
1.860000 0.060000 0
1.880000 0.060000 0
1.900000 0.060000 0
1.920000 0.060000 0
1.940000 0.060000 0
1.960000 0.060000 0
0.000000 0.080000 0
0.020000 0.080000 0
0.040000 0.080000 0
0.060000 0.080000 0
0.080000 0.080000 0
0.100000 0.080000 0
0.120000 0.080000 0
0.140000 0.080000 0
0.160000 0.080000 0
0.180000 0.080000 0
0.200000 0.080000 0
0.220000 0.080000 0
0.240000 0.080000 0
0.260000 0.080000 0
0.280000 0.080000 0
0.300000 0.080000 0
0.320000 0.080000 0
0.340000 0.080000 0
0.360000 0.080000 0
0.380000 0.080000 0
0.400000 0.080000 0
0.420000 0.080000 0
0.440000 0.080000 0
0.460000 0.080000 0
0.480000 0.080000 0
0.500000 0.080000 0
0.520000 0.080000 0
0.540000 0.080000 0
0.560000 0.080000 0
0.580000 0.080000 0
0.600000 0.080000 0
0.620000 0.080000 0
0.640000 0.080000 0
0.660000 0.080000 0
0.680000 0.080000 0
0.700000 0.080000 0
0.720000 0.080000 0
0.740000 0.080000 0
0.760000 0.080000 0
0.780000 0.080000 0
0.800000 0.080000 0
0.820000 0.080000 0
0.840000 0.080000 0
0.860000 0.080000 0
0.880000 0.080000 0
0.900000 0.080000 0
0.920000 0.080000 0
0.940000 0.080000 0
0.960000 0.080000 0
0.980000 0.080000 0
1.000000 0.080000 0
1.020000 0.080000 0
1.040000 0.080000 0
1.060000 0.080000 0
1.080000 0.080000 0
1.100000 0.080000 0
1.120000 0.080000 0
1.140000 0.080000 0
1.160000 0.080000 0
1.180000 0.080000 0
1.200000 0.080000 0
1.220000 0.080000 0
1.240000 0.080000 0
1.260000 0.080000 0
1.280000 0.080000 0
1.300000 0.080000 0
1.320000 0.080000 0
1.340000 0.080000 0
1.360000 0.080000 0
1.380000 0.080000 0
1.400000 0.080000 0
1.420000 0.080000 0
1.440000 0.080000 0
1.460000 0.080000 0
1.480000 0.080000 0
1.500000 0.080000 0
1.520000 0.080000 0
1.540000 0.080000 0
1.560000 0.080000 0
1.580000 0.080000 0
1.600000 0.080000 0
1.620000 0.080000 0
1.640000 0.080000 0
1.660000 0.080000 0
1.680000 0.080000 0
1.700000 0.080000 0
1.720000 0.080000 0
1.740000 0.080000 0
1.760000 0.080000 0
1.780000 0.080000 0
1.800000 0.080000 0
1.820000 0.080000 0
1.840000 0.080000 0
1.860000 0.080000 0
1.880000 0.080000 0
[...]
POINT_DATA 4851 

VECTORS velocity float
0.000000 0.000000 0
-0.000456 0.000000 0
-0.000595 0.000000 0
-0.000542 0.000000 0
-0.000451 0.000000 0
-0.000372 0.000000 0
-0.000312 0.000000 0
-0.000267 0.000000 0
-0.000234 0.000000 0
-0.000208 0.000000 0
-0.000187 0.000000 0
-0.000170 0.000000 0
-0.000155 0.000000 0
-0.000143 0.000000 0
-0.000131 0.000000 0
-0.000121 0.000000 0
-0.000112 0.000000 0
-0.000103 0.000000 0
-0.000094 0.000000 0
-0.000086 0.000000 0
-0.000078 0.000000 0
-0.000070 0.000000 0
-0.000062 0.000000 0
-0.000054 0.000000 0
-0.000046 0.000000 0
-0.000039 0.000000 0
-0.000032 0.000000 0
-0.000025 0.000000 0
-0.000019 0.000000 0
-0.000014 0.000000 0
-0.000009 0.000000 0
-0.000005 0.000000 0
-0.000002 0.000000 0
0.000000 0.000000 0
0.000001 0.000000 0
0.000001 0.000000 0
0.000000 0.000000 0
0.000000 0.000000 0
0.000000 0.000000 0
0.000000 0.000000 0
0.000000 0.000000 0
-0.000000 0.000000 0
-0.000001 0.000000 0
-0.000002 0.000000 0
-0.000003 0.000000 0
-0.000005 0.000000 0
-0.000007 0.000000 0
-0.000009 0.000000 0
-0.000012 0.000000 0
-0.000015 0.000000 0
-0.000018 0.000000 0
-0.000023 0.000000 0
-0.000029 0.000000 0
-0.000036 0.000000 0
-0.000044 0.000000 0
-0.000055 0.000000 0
-0.000068 0.000000 0
-0.000085 0.000000 0
-0.000105 0.000000 0
-0.000132 0.000000 0
-0.000166 0.000000 0
-0.000211 0.000000 0
-0.000272 0.000000 0
-0.000353 0.000000 0
-0.000460 0.000000 0
-0.000596 0.000000 0
-0.000752 0.000000 0
-0.000912 0.000000 0
-0.001048 0.000000 0
-0.001138 0.000000 0
-0.001170 0.000000 0
-0.001153 0.000000 0
-0.001105 0.000000 0
-0.001043 0.000000 0
-0.000980 0.000000 0
-0.000922 0.000000 0
-0.000869 0.000000 0
-0.000822 0.000000 0
-0.000780 0.000000 0
-0.000744 0.000000 0
-0.000716 0.000000 0
-0.000696 0.000000 0
-0.000689 0.000000 0
-0.000699 0.000000 0
-0.000728 0.000000 0
-0.000781 0.000000 0
-0.000859 0.000000 0
-0.000964 0.000000 0
-0.001090 0.000000 0
-0.001232 0.000000 0
-0.001375 0.000000 0
-0.001498 0.000000 0
-0.001572 0.000000 0
-0.001562 0.000000 0
-0.001430 0.000000 0
-0.001148 0.000000 0
-0.000732 0.000000 0
-0.000276 0.000000 0
0.000000 0.000000 0
0.000000 0.000456 0
-0.000913 0.000595 0
-0.001397 0.000086 0
-0.001448 -0.000144 0
-0.001331 -0.000169 0
-0.001180 -0.000138 0
-0.001040 -0.000104 0
-0.000922 -0.000078 0
-0.000825 -0.000059 0
-0.000744 -0.000047 0
-0.000677 -0.000038 0
-0.000620 -0.000031 0
-0.000570 -0.000027 0
-0.000526 -0.000024 0
-0.000486 -0.000021 0
-0.000449 -0.000019 0
-0.000415 -0.000018 0
-0.000382 -0.000017 0
-0.000351 -0.000017 0
-0.000320 -0.000016 0
-0.000290 -0.000016 0
-0.000261 -0.000015 0
-0.000233 -0.000015 0
-0.000205 -0.000015 0
-0.000177 -0.000015 0
-0.000150 -0.000014 0
-0.000125 -0.000013 0
-0.000100 -0.000013 0
-0.000077 -0.000012 0
-0.000057 -0.000010 0
-0.000039 -0.000009 0
-0.000023 -0.000007 0
-0.000012 -0.000005 0
-0.000004 -0.000002 0
0.000000 0.000000 0
0.000001 0.000001 0
0.000000 0.000001 0
0.000000 0.000000 0
0.000000 0.000000 0
0.000000 0.000000 0
0.000000 -0.000000 0
-0.000001 0.000000 0
-0.000003 0.000001 0
-0.000007 0.000002 0
-0.000011 0.000003 0
-0.000016 0.000003 0
-0.000023 0.000004 0
-0.000030 0.000004 0
-0.000039 0.000005 0
-0.000050 0.000007 0
-0.000062 0.000008 0
-0.000078 0.000010 0
-0.000097 0.000012 0
-0.000121 0.000015 0
-0.000150 0.000019 0
-0.000187 0.000023 0
-0.000232 0.000029 0
-0.000289 0.000037 0
-0.000360 0.000047 0
-0.000451 0.000060 0
-0.000568 0.000079 0
-0.000722 0.000105 0
-0.000925 0.000141 0
-0.001192 0.000188 0
-0.001536 0.000242 0
-0.001958 0.000291 0
-0.002430 0.000315 0
-0.002898 0.000296 0
-0.003287 0.000225 0
-0.003538 0.000121 0
-0.003632 0.000015 0
-0.003594 -0.000066 0
-0.003472 -0.000111 0
-0.003312 -0.000125 0
-0.003145 -0.000122 0
-0.002984 -0.000111 0
-0.002836 -0.000100 0
-0.002701 -0.000089 0
-0.002584 -0.000078 0
-0.002487 -0.000065 0
-0.002417 -0.000049 0
-0.002383 -0.000027 0
-0.002394 0.000002 0
-0.002459 0.000039 0
-0.002587 0.000082 0
-0.002781 0.000131 0
-0.003044 0.000182 0
-0.003368 0.000231 0
-0.003734 0.000268 0
-0.004113 0.000284 0
-0.004457 0.000265 0
-0.004705 0.000197 0
-0.004780 0.000065 0
-0.004597 -0.000142 0
-0.004078 -0.000414 0
-0.003191 -0.000698 0
-0.002000 -0.000873 0
-0.000752 -0.000733 0
0.000000 -0.000276 0
0.000000 0.000913 0
-0.000806 0.001397 0
-0.001544 0.000536 0
-0.001869 -0.000065 0
-0.001913 -0.000268 0
-0.001828 -0.000291 0
-0.001697 -0.000258 0
-0.001560 -0.000215 0
-0.001431 -0.000178 0
-0.001314 -0.000147 0
-0.001211 -0.000124 0
-0.001119 -0.000107 0
-0.001036 -0.000094 0
-0.000961 -0.000084 0
-0.000891 -0.000076 0
-0.000826 -0.000071 0
-0.000765 -0.000067 0
-0.000706 -0.000064 0
-0.000650 -0.000061 0
-0.000595 -0.000060 0
-0.000541 -0.000058 0
-0.000488 -0.000057 0
-0.000436 -0.000056 0
-0.000385 -0.000055 0
-0.000335 -0.000054 0
-0.000286 -0.000052 0
-0.000240 -0.000050 0
-0.000195 -0.000047 0
-0.000154 -0.000043 0
-0.000116 -0.000038 0
-0.000082 -0.000033 0
-0.000054 -0.000026 0
-0.000031 -0.000019 0
-0.000015 -0.000012 0
-0.000005 -0.000004 0
-0.000000 0.000001 0
0.000000 0.000001 0
0.000000 0.000000 0
0.000000 0.000000 0
0.000000 0.000000 0
0.000000 0.000001 0
-0.000002 0.000003 0
-0.000006 0.000005 0
-0.000012 0.000007 0
-0.000019 0.000009 0
-0.000028 0.000011 0
-0.000038 0.000013 0
-0.000050 0.000016 0
-0.000065 0.000019 0
-0.000083 0.000023 0
-0.000104 0.000028 0
-0.000130 0.000034 0
-0.000163 0.000042 0
-0.000203 0.000053 0
-0.000252 0.000065 0
-0.000313 0.000081 0
-0.000390 0.000101 0
-0.000486 0.000127 0
-0.000606 0.000161 0
-0.000759 0.000207 0
-0.000954 0.000270 0
-0.001208 0.000356 0
-0.001537 0.000469 0
-0.001961 0.000611 0
-0.002492 0.000765 0
-0.003121 0.000893 0
-0.003803 0.000939 0
-0.004457 0.000856 0
-0.004989 0.000640 0
-0.005332 0.000344 0
-0.005473 0.000054 0
-0.005451 -0.000161 0
-0.005325 -0.000282 0
-0.005146 -0.000328 0
-0.004948 -0.000329 0
-0.004748 -0.000310 0
-0.004558 -0.000284 0
-0.004385 -0.000253 0
-0.004238 -0.000215 0
-0.004127 -0.000167 0
-0.004064 -0.000104 0
-0.004061 -0.000024 0
-0.004131 0.000076 0
-0.004283 0.000192 0
-0.004523 0.000322 0
-0.004851 0.000457 0
-0.005257 0.000586 0
-0.005718 0.000690 0
-0.006197 0.000744 0
-0.006641 0.000722 0
-0.006980 0.000592 0
-0.007133 0.000323 0
-0.007006 -0.000108 0
-0.006512 -0.000703 0
-0.005595 -0.001407 0
-0.004260 -0.002078 0
-0.002616 -0.002439 0
-0.000972 -0.002000 0
0.000000 -0.000752 0
0.000000 0.001263 0
-0.000614 0.002140 0
-0.001382 0.001149 0
-0.001872 0.000225 0
-0.002083 -0.000210 0
-0.002115 -0.000354 0
-0.002055 -0.000372 0
-0.001953 -0.000344 0
-0.001837 -0.000305 0
-0.001719 -0.000266 0
-0.001605 -0.000233 0
-0.001499 -0.000206 0
-0.001399 -0.000185 0
-0.001305 -0.000168 0
-0.001216 -0.000155 0
-0.001132 -0.000145 0
-0.001051 -0.000138 0
-0.000974 -0.000132 0
-0.000898 -0.000128 0
-0.000824 -0.000125 0
-0.000751 -0.000122 0
-0.000679 -0.000120 0
-0.000609 -0.000118 0
-0.000540 -0.000116 0
-0.000472 -0.000113 0
-0.000406 -0.000109 0
-0.000342 -0.000104 0
-0.000281 -0.000098 0
-0.000224 -0.000091 0
-0.000172 -0.000081 0
-0.000126 -0.000070 0
-0.000086 -0.000058 0
-0.000053 -0.000043 0
-0.000028 -0.000028 0
-0.000011 -0.000014 0
-0.000002 -0.000003 0
0.000000 0.000001 0
0.000000 0.000000 0
0.000000 0.000000 0
0.000000 0.000000 0
0.000000 0.000002 0
-0.000003 0.000006 0
-0.000008 0.000011 0
-0.000015 0.000015 0
-0.000024 0.000018 0
-0.000034 0.000022 0
-0.000047 0.000026 0
-0.000062 0.000031 0
-0.000080 0.000038 0
-0.000102 0.000046 0
-0.000129 0.000056 0
-0.000161 0.000068 0
-0.000201 0.000084 0
-0.000251 0.000104 0
-0.000313 0.000129 0
-0.000389 0.000161 0
-0.000485 0.000201 0
-0.000604 0.000252 0
-0.000753 0.000319 0
-0.000941 0.000408 0
-0.001179 0.000528 0
-0.001481 0.000687 0
-0.001866 0.000894 0
-0.002347 0.001143 0
-0.002933 0.001401 0
-0.003606 0.001601 0
-0.004318 0.001651 0
-0.004991 0.001482 0
-0.005542 0.001100 0
-0.005915 0.000606 0
-0.006105 0.000133 0
-0.006146 -0.000215 0
-0.006086 -0.000416 0
-0.005965 -0.000502 0
-0.005813 -0.000520 0
-0.005649 -0.000502 0
-0.005487 -0.000464 0
-0.005341 -0.000409 0
-0.005224 -0.000336 0
-0.005150 -0.000240 0
-0.005132 -0.000115 0
-0.005182 0.000040 0
-0.005311 0.000224 0
-0.005522 0.000431 0
-0.005816 0.000650 0
-0.006184 0.000864 0
-0.006605 0.001049 0
-0.007046 0.001171 0
-0.007460 0.001191 0
-0.007788 0.001067 0
-0.007962 0.000757 0
-0.007907 0.000223 0
-0.007549 -0.000557 0
-0.006833 -0.001554 0
-0.005742 -0.002666 0
-0.004293 -0.003676 0
-0.002596 -0.004161 0
-0.000947 -0.003349 0
0.000000 -0.001248 0
0.000000 0.001527 0
-0.000471 0.002780 0
-0.001188 0.001794 0
-0.001742 0.000636 0
-0.002060 -0.000024 0
-0.002196 -0.000318 0
-0.002215 -0.000419 0
-0.002167 -0.000434 0
-0.002084 -0.000412 0
-0.001984 -0.000378 0
-0.001879 -0.000344 0
-0.001772 -0.000313 0
-0.001668 -0.000287 0
-0.001566 -0.000266 0
-0.001467 -0.000249 0
-0.001371 -0.000235 0
-0.001278 -0.000225 0
-0.001187 -0.000217 0
-0.001098 -0.000211 0
-0.001010 -0.000206 0
-0.000923 -0.000203 0
-0.000837 -0.000199 0
-0.000753 -0.000196 0
-0.000669 -0.000192 0
-0.000587 -0.000188 0
-0.000508 -0.000182 0
-0.000431 -0.000174 0
-0.000357 -0.000164 0
-0.000288 -0.000152 0
-0.000224 -0.000137 0
-0.000166 -0.000119 0
-0.000116 -0.000099 0
-0.000074 -0.000077 0
-0.000041 -0.000053 0
-0.000018 -0.000030 0
-0.000004 -0.000011 0
0.000000 -0.000001 0
0.000000 0.000000 0
0.000000 0.000000 0
0.000000 0.000000 0
0.000000 0.000003 0
-0.000003 0.000010 0
-0.000008 0.000017 0
-0.000016 0.000023 0
-0.000026 0.000029 0
-0.000037 0.000034 0
-0.000051 0.000041 0
-0.000067 0.000049 0
-0.000087 0.000059 0
-0.000110 0.000071 0
-0.000139 0.000087 0
-0.000174 0.000107 0
-0.000217 0.000132 0
-0.000271 0.000164 0
-0.000338 0.000203 0
-0.000421 0.000253 0
-0.000524 0.000315 0
-0.000653 0.000395 0
-0.000813 0.000498 0
-0.001012 0.000633 0
-0.001260 0.000811 0
-0.001569 0.001043 0
-0.001949 0.001335 0
-0.002410 0.001678 0
-0.002952 0.002023 0
-0.003561 0.002278 0
-0.004199 0.002325 0
-0.004810 0.002079 0
-0.005335 0.001563 0
-0.005733 0.000907 0
-0.005994 0.000285 0
-0.006132 -0.000181 0
-0.006173 -0.000463 0
-0.006144 -0.000600 0
-0.006071 -0.000646 0
-0.005976 -0.000637 0
-0.005875 -0.000592 0
-0.005787 -0.000515 0
-0.005725 -0.000406 0
-0.005704 -0.000259 0
-0.005736 -0.000072 0
-0.005829 0.000155 0
-0.005987 0.000415 0
-0.006211 0.000698 0
-0.006495 0.000984 0
-0.006822 0.001246 0
-0.007166 0.001447 0
-0.007491 0.001544 0
-0.007752 0.001487 0
-0.007898 0.001224 0
-0.007873 0.000711 0
-0.007626 -0.000090 0
-0.007116 -0.001181 0
-0.006324 -0.002510 0
-0.005243 -0.003948 0
-0.003886 -0.005224 0
-0.002335 -0.005785 0
-0.000845 -0.004596 0
0.000000 -0.001699 0
0.000000 0.001734 0
-0.000375 0.003328 0
-0.001024 0.002419 0
-0.001586 0.001098 0
-0.001962 0.000244 0
-0.002169 -0.000200 0
-0.002254 -0.000401 0
-0.002260 -0.000475 0
-0.002216 -0.000487 0
-0.002143 -0.000471 0
-0.002054 -0.000445 0
-0.001957 -0.000417 0
-0.001856 -0.000391 0
-0.001755 -0.000368 0
-0.001653 -0.000349 0
-0.001552 -0.000334 0
-0.001452 -0.000322 0
-0.001353 -0.000313 0
-0.001255 -0.000305 0
-0.001158 -0.000299 0
-0.001061 -0.000295 0
-0.000965 -0.000290 0
-0.000870 -0.000286 0
-0.000776 -0.000281 0
-0.000684 -0.000274 0
-0.000593 -0.000266 0
-0.000505 -0.000255 0
-0.000421 -0.000241 0
-0.000342 -0.000224 0
-0.000268 -0.000203 0
-0.000201 -0.000178 0
-0.000143 -0.000149 0
-0.000093 -0.000118 0
-0.000053 -0.000084 0
-0.000024 -0.000051 0
-0.000006 -0.000021 0
0.000000 -0.000004 0
0.000000 0.000000 0
0.000000 0.000000 0
0.000000 0.000000 0
0.000000 0.000004 0
-0.000003 0.000014 0
-0.000008 0.000024 0
-0.000016 0.000032 0
-0.000026 0.000039 0
-0.000037 0.000047 0
-0.000050 0.000056 0
-0.000066 0.000067 0
-0.000085 0.000080 0
-0.000108 0.000097 0
-0.000136 0.000119 0
-0.000171 0.000147 0
-0.000214 0.000181 0
-0.000267 0.000225 0
-0.000333 0.000279 0
-0.000415 0.000347 0
-0.000517 0.000432 0
-0.000643 0.000541 0
-0.000798 0.000679 0
-0.000990 0.000856 0
-0.001223 0.001084 0
-0.001504 0.001376 0
-0.001838 0.001735 0
-0.002229 0.002146 0
-0.002672 0.002552 0
-0.003159 0.002848 0
-0.003673 0.002901 0
-0.004189 0.002618 0
-0.004676 0.002023 0
-0.005101 0.001264 0
-0.005443 0.000532 0
-0.005691 -0.000036 0
-0.005846 -0.000404 0
-0.005921 -0.000604 0
-0.005939 -0.000689 0
-0.005922 -0.000698 0
-0.005892 -0.000653 0
-0.005866 -0.000559 0
-0.005860 -0.000419 0
-0.005885 -0.000230 0
-0.005950 0.000009 0
-0.006060 0.000291 0
-0.006214 0.000607 0
-0.006410 0.000939 0
-0.006636 0.001261 0
-0.006873 0.001535 0
-0.007094 0.001718 0
-0.007267 0.001756 0
-0.007354 0.001597 0
-0.007320 0.001188 0
-0.007130 0.000486 0
-0.006757 -0.000535 0
-0.006194 -0.001859 0
-0.005439 -0.003427 0
-0.004481 -0.005104 0
-0.003320 -0.006584 0
-0.002003 -0.007202 0
-0.000729 -0.005684 0
0.000000 -0.002093 0
0.000000 0.001903 0
-0.000311 0.003804 0
-0.000895 0.003006 0
-0.001442 0.001574 0
-0.001841 0.000559 0
-0.002092 -0.000025 0
-0.002226 -0.000329 0
-0.002276 -0.000472 0
-0.002268 -0.000528 0
-0.002224 -0.000540 0
-0.002156 -0.000530 0
-0.002073 -0.000511 0
-0.001981 -0.000490 0
-0.001884 -0.000469 0
-0.001784 -0.000451 0
-0.001683 -0.000436 0
-0.001581 -0.000424 0
-0.001478 -0.000414 0
-0.001375 -0.000406 0
-0.001272 -0.000400 0
-0.001169 -0.000395 0
-0.001067 -0.000390 0
-0.000964 -0.000385 0
-0.000863 -0.000378 0
-0.000762 -0.000370 0
-0.000664 -0.000359 0
-0.000568 -0.000345 0
-0.000476 -0.000327 0
-0.000388 -0.000305 0
-0.000307 -0.000277 0
-0.000232 -0.000245 0
-0.000166 -0.000208 0
-0.000109 -0.000166 0
-0.000063 -0.000121 0
-0.000029 -0.000076 0
-0.000008 -0.000034 0
0.000000 -0.000007 0
0.000000 0.000000 0
0.000000 0.000000 0
0.000000 0.000000 0
0.000000 0.000005 0
-0.000003 0.000018 0
-0.000008 0.000030 0
-0.000015 0.000040 0
-0.000024 0.000049 0
-0.000034 0.000059 0
-0.000046 0.000070 0
-0.000060 0.000083 0
-0.000077 0.000100 0
-0.000098 0.000122 0
-0.000123 0.000149 0
-0.000155 0.000184 0
-0.000193 0.000228 0
-0.000241 0.000282 0
-0.000301 0.000351 0
-0.000376 0.000436 0
-0.000469 0.000543 0
-0.000583 0.000677 0
-0.000723 0.000845 0
-0.000891 0.001057 0
-0.001092 0.001325 0
-0.001326 0.001658 0
-0.001594 0.002060 0
-0.001890 0.002511 0
-0.002212 0.002953 0
-0.002558 0.003280 0
-0.002933 0.003355 0
-0.003340 0.003082 0
-0.003774 0.002474 0
-0.004215 0.001674 0
-0.004627 0.000875 0
-0.004978 0.000222 0
-0.005247 -0.000233 0
-0.005429 -0.000508 0
-0.005542 -0.000645 0
-0.005606 -0.000684 0
-0.005645 -0.000648 0
-0.005675 -0.000548 0
-0.005713 -0.000387 0
-0.005767 -0.000169 0
-0.005845 0.000102 0
-0.005947 0.000419 0
-0.006072 0.000766 0
-0.006212 0.001119 0
-0.006355 0.001446 0
-0.006482 0.001704 0
-0.006569 0.001841 0
-0.006593 0.001804 0
-0.006526 0.001540 0
-0.006350 0.001000 0
-0.006049 0.000147 0
-0.005624 -0.001026 0
-0.005085 -0.002499 0
-0.004431 -0.004222 0
-0.003649 -0.006067 0
-0.002720 -0.007702 0
-0.001660 -0.008376 0
-0.000614 -0.006599 0
0.000000 -0.002428 0
0.000000 0.002045 0
-0.000266 0.004224 0
-0.000795 0.003550 0
-0.001316 0.002044 0
-0.001720 0.000895 0
-0.001996 0.000185 0
-0.002163 -0.000217 0
-0.002246 -0.000433 0
-0.002269 -0.000539 0
-0.002250 -0.000584 0
-0.002203 -0.000596 0
-0.002136 -0.000592 0
-0.002056 -0.000580 0
-0.001967 -0.000565 0
-0.001873 -0.000550 0
-0.001774 -0.000538 0
-0.001673 -0.000527 0
-0.001570 -0.000518 0
-0.001465 -0.000511 0
-0.001360 -0.000505 0
-0.001253 -0.000500 0
-0.001146 -0.000495 0
-0.001039 -0.000490 0
-0.000933 -0.000483 0
-0.000827 -0.000473 0
-0.000722 -0.000460 0
-0.000620 -0.000443 0
-0.000521 -0.000421 0
-0.000427 -0.000393 0
-0.000339 -0.000359 0
-0.000258 -0.000319 0
-0.000185 -0.000272 0
-0.000122 -0.000220 0
-0.000071 -0.000164 0
-0.000033 -0.000106 0
-0.000009 -0.000050 0
0.000000 -0.000011 0
0.000000 0.000000 0
0.000000 0.000000 0
0.000000 0.000000 0
0.000000 0.000006 0
-0.000002 0.000021 0
-0.000007 0.000036 0
-0.000013 0.000048 0
-0.000020 0.000058 0
-0.000029 0.000069 0
-0.000039 0.000082 0
-0.000050 0.000098 0
-0.000064 0.000118 0
-0.000081 0.000143 0
-0.000102 0.000176 0
-0.000127 0.000216 0
-0.000159 0.000268 0
-0.000199 0.000333 0
-0.000248 0.000413 0
-0.000310 0.000514 0
-0.000388 0.000639 0
-0.000483 0.000794 0
-0.000598 0.000987 0
-0.000736 0.001225 0
-0.000895 0.001519 0
-0.001074 0.001877 0
-0.001268 0.002299 0
-0.001469 0.002764 0
-0.001674 0.003221 0
-0.001885 0.003569 0
-0.002122 0.003681 0
-0.002412 0.003459 0
-0.002774 0.002898 0
-0.003201 0.002117 0
-0.003654 0.001296 0
-0.004083 0.000583 0
-0.004451 0.000047 0
-0.004739 -0.000309 0
-0.004948 -0.000512 0
-0.005096 -0.000595 0
-0.005201 -0.000584 0
-0.005282 -0.000491 0
-0.005353 -0.000327 0
-0.005422 -0.000098 0
-0.005495 0.000188 0
-0.005573 0.000518 0
-0.005653 0.000872 0
-0.005725 0.001222 0
-0.005779 0.001530 0
-0.005798 0.001750 0
-0.005765 0.001828 0
-0.005664 0.001713 0
-0.005481 0.001354 0
-0.005212 0.000712 0
-0.004858 -0.000240 0
-0.004439 -0.001499 0
-0.003967 -0.003052 0
-0.003442 -0.004863 0
-0.002844 -0.006816 0
-0.002144 -0.008573 0
-0.001332 -0.009307 0
-0.000505 -0.007345 0
0.000000 -0.002707 0
0.000000 0.002169 0
-0.000232 0.004599 0
-0.000715 0.004056 0
-0.001209 0.002499 0
-0.001608 0.001239 0
-0.001895 0.000417 0
-0.002083 -0.000079 0
-0.002191 -0.000365 0
-0.002238 -0.000523 0
-0.002242 -0.000606 0
-0.002213 -0.000644 0
-0.002162 -0.000658 0
-0.002094 -0.000658 0
-0.002015 -0.000653 0
-0.001928 -0.000644 0
-0.001835 -0.000636 0
-0.001737 -0.000628 0
-0.001636 -0.000621 0
-0.001532 -0.000616 0
-0.001426 -0.000612 0
-0.001318 -0.000608 0
-0.001209 -0.000604 0
-0.001099 -0.000599 0
-0.000989 -0.000591 0
-0.000879 -0.000580 0
-0.000770 -0.000566 0
-0.000664 -0.000546 0
-0.000560 -0.000520 0
-0.000460 -0.000487 0
-0.000366 -0.000447 0
-0.000280 -0.000399 0
-0.000201 -0.000343 0
-0.000134 -0.000280 0
-0.000078 -0.000211 0
-0.000036 -0.000139 0
-0.000009 -0.000067 0
0.000000 -0.000016 0
0.000000 0.000000 0
0.000000 0.000000 0
0.000000 0.000000 0
0.000000 0.000007 0
-0.000002 0.000024 0
-0.000005 0.000041 0
-0.000010 0.000054 0
-0.000015 0.000065 0
-0.000022 0.000077 0
-0.000029 0.000091 0
-0.000038 0.000109 0
-0.000048 0.000131 0
-0.000060 0.000159 0
-0.000074 0.000195 0
-0.000092 0.000241 0
-0.000114 0.000299 0
-0.000142 0.000371 0
-0.000178 0.000462 0
-0.000224 0.000576 0
-0.000281 0.000715 0
-0.000352 0.000887 0
-0.000438 0.001098 0
-0.000540 0.001354 0
-0.000655 0.001664 0
-0.000779 0.002031 0
-0.000904 0.002455 0
-0.001021 0.002916 0
-0.001125 0.003369 0
-0.001222 0.003728 0
-0.001336 0.003882 0
-0.001510 0.003735 0
-0.001781 0.003264 0
-0.002157 0.002554 0
-0.002607 0.001757 0
-0.003076 0.001019 0
-0.003515 0.000423 0
-0.003892 -0.000010 0
-0.004196 -0.000288 0
-0.004428 -0.000431 0
-0.004602 -0.000462 0
-0.004733 -0.000396 0
-0.004833 -0.000248 0
-0.004911 -0.000027 0
-0.004974 0.000253 0
-0.005021 0.000576 0
-0.005051 0.000918 0
-0.005056 0.001246 0
-0.005027 0.001519 0
-0.004954 0.001690 0
-0.004825 0.001707 0
-0.004634 0.001521 0
-0.004378 0.001088 0
-0.004065 0.000377 0
-0.003706 -0.000625 0
-0.003328 -0.001917 0
-0.002943 -0.003497 0
-0.002546 -0.005346 0
-0.002118 -0.007365 0
-0.001622 -0.009215 0
-0.001030 -0.010015 0
-0.000402 -0.007931 0
0.000000 -0.002933 0
0.000000 0.002278 0
-0.000207 0.004939 0
-0.000651 0.004527 0
-0.001118 0.002937 0
-0.001508 0.001581 0
-0.001798 0.000660 0
-0.001998 0.000078 0
-0.002123 -0.000277 0
-0.002190 -0.000488 0
-0.002211 -0.000609 0
-0.002199 -0.000676 0
-0.002162 -0.000710 0
-0.002107 -0.000726 0
-0.002038 -0.000731 0
-0.001959 -0.000731 0
-0.001873 -0.000728 0
-0.001780 -0.000725 0
-0.001682 -0.000723 0
-0.001581 -0.000721 0
-0.001476 -0.000719 0
-0.001369 -0.000717 0
-0.001259 -0.000714 0
-0.001148 -0.000710 0
-0.001036 -0.000702 0
-0.000923 -0.000691 0
-0.000811 -0.000675 0
-0.000701 -0.000653 0
-0.000593 -0.000624 0
-0.000489 -0.000586 0
-0.000390 -0.000540 0
-0.000299 -0.000484 0
-0.000216 -0.000418 0
-0.000143 -0.000343 0
-0.000084 -0.000261 0
-0.000039 -0.000174 0
-0.000010 -0.000085 0
0.000000 -0.000021 0
0.000000 0.000000 0
0.000000 0.000000 0
0.000000 0.000000 0
0.000000 0.000008 0
-0.000001 0.000026 0