# vtk DataFile Version 2.0
generated by CFD-lab course output (written by Tobias Neckel) 
ASCII

DATASET STRUCTURED_GRID
DIMENSIONS  99 49 1 
POINTS 4851 float

0.000000 0.000000 0
0.020000 0.000000 0
0.040000 0.000000 0
0.060000 0.000000 0
0.080000 0.000000 0
0.100000 0.000000 0
0.120000 0.000000 0
0.140000 0.000000 0
0.160000 0.000000 0
0.180000 0.000000 0
0.200000 0.000000 0
0.220000 0.000000 0
0.240000 0.000000 0
0.260000 0.000000 0
0.280000 0.000000 0
0.300000 0.000000 0
0.320000 0.000000 0
0.340000 0.000000 0
0.360000 0.000000 0
0.380000 0.000000 0
0.400000 0.000000 0
0.420000 0.000000 0
0.440000 0.000000 0
0.460000 0.000000 0
0.480000 0.000000 0
0.500000 0.000000 0
0.520000 0.000000 0
0.540000 0.000000 0
0.560000 0.000000 0
0.580000 0.000000 0
0.600000 0.000000 0
0.620000 0.000000 0
0.640000 0.000000 0
0.660000 0.000000 0
0.680000 0.000000 0
0.700000 0.000000 0
0.720000 0.000000 0
0.740000 0.000000 0
0.760000 0.000000 0
0.780000 0.000000 0
0.800000 0.000000 0
0.820000 0.000000 0
0.840000 0.000000 0
0.860000 0.000000 0
0.880000 0.000000 0
0.900000 0.000000 0
0.920000 0.000000 0
0.940000 0.000000 0
0.960000 0.000000 0
0.980000 0.000000 0
1.000000 0.000000 0
1.020000 0.000000 0
1.040000 0.000000 0
1.060000 0.000000 0
1.080000 0.000000 0
1.100000 0.000000 0
1.120000 0.000000 0
1.140000 0.000000 0
1.160000 0.000000 0
1.180000 0.000000 0
1.200000 0.000000 0
1.220000 0.000000 0
1.240000 0.000000 0
1.260000 0.000000 0
1.280000 0.000000 0
1.300000 0.000000 0
1.320000 0.000000 0
1.340000 0.000000 0
1.360000 0.000000 0
1.380000 0.000000 0
1.400000 0.000000 0
1.420000 0.000000 0
1.440000 0.000000 0
1.460000 0.000000 0
1.480000 0.000000 0
1.500000 0.000000 0
1.520000 0.000000 0
1.540000 0.000000 0
1.560000 0.000000 0
1.580000 0.000000 0
1.600000 0.000000 0
1.620000 0.000000 0
1.640000 0.000000 0
1.660000 0.000000 0
1.680000 0.000000 0
1.700000 0.000000 0
1.720000 0.000000 0
1.740000 0.000000 0
1.760000 0.000000 0
1.780000 0.000000 0
1.800000 0.000000 0
1.820000 0.000000 0
1.840000 0.000000 0
1.860000 0.000000 0
1.880000 0.000000 0
1.900000 0.000000 0
1.920000 0.000000 0
1.940000 0.000000 0
1.960000 0.000000 0
0.000000 0.020000 0
0.020000 0.020000 0
0.040000 0.020000 0
0.060000 0.020000 0
0.080000 0.020000 0
0.100000 0.020000 0
0.120000 0.020000 0
0.140000 0.020000 0
0.160000 0.020000 0
0.180000 0.020000 0
0.200000 0.020000 0
0.220000 0.020000 0
0.240000 0.020000 0
0.260000 0.020000 0
0.280000 0.020000 0
0.300000 0.020000 0
0.320000 0.020000 0
0.340000 0.020000 0
0.360000 0.020000 0
0.380000 0.020000 0
0.400000 0.020000 0
0.420000 0.020000 0
0.440000 0.020000 0
0.460000 0.020000 0
0.480000 0.020000 0
0.500000 0.020000 0
0.520000 0.020000 0
0.540000 0.020000 0
0.560000 0.020000 0
0.580000 0.020000 0
0.600000 0.020000 0
0.620000 0.020000 0
0.640000 0.020000 0
0.660000 0.020000 0
0.680000 0.020000 0
0.700000 0.020000 0
0.720000 0.020000 0
0.740000 0.020000 0
0.760000 0.020000 0
0.780000 0.020000 0
0.800000 0.020000 0
0.820000 0.020000 0
0.840000 0.020000 0
0.860000 0.020000 0
0.880000 0.020000 0
0.900000 0.020000 0
0.920000 0.020000 0
0.940000 0.020000 0
0.960000 0.020000 0
0.980000 0.020000 0
1.000000 0.020000 0
1.020000 0.020000 0
1.040000 0.020000 0
1.060000 0.020000 0
1.080000 0.020000 0
1.100000 0.020000 0
1.120000 0.020000 0
1.140000 0.020000 0
1.160000 0.020000 0
1.180000 0.020000 0
1.200000 0.020000 0
1.220000 0.020000 0
1.240000 0.020000 0
1.260000 0.020000 0
1.280000 0.020000 0
1.300000 0.020000 0
1.320000 0.020000 0
1.340000 0.020000 0
1.360000 0.020000 0
1.380000 0.020000 0
1.400000 0.020000 0
1.420000 0.020000 0
1.440000 0.020000 0
1.460000 0.020000 0
1.480000 0.020000 0
1.500000 0.020000 0
1.520000 0.020000 0
1.540000 0.020000 0
1.560000 0.020000 0
1.580000 0.020000 0
1.600000 0.020000 0
1.620000 0.020000 0
1.640000 0.020000 0
1.660000 0.020000 0
1.680000 0.020000 0
1.700000 0.020000 0
1.720000 0.020000 0
1.740000 0.020000 0
1.760000 0.020000 0
1.780000 0.020000 0
1.800000 0.020000 0
1.820000 0.020000 0
1.840000 0.020000 0
1.860000 0.020000 0
1.880000 0.020000 0
1.900000 0.020000 0
1.920000 0.020000 0
1.940000 0.020000 0
1.960000 0.020000 0
0.000000 0.040000 0
0.020000 0.040000 0
0.040000 0.040000 0
0.060000 0.040000 0
0.080000 0.040000 0
0.100000 0.040000 0
0.120000 0.040000 0
0.140000 0.040000 0
0.160000 0.040000 0
0.180000 0.040000 0
0.200000 0.040000 0
0.220000 0.040000 0
0.240000 0.040000 0
0.260000 0.040000 0
0.280000 0.040000 0
0.300000 0.040000 0
0.320000 0.040000 0
0.340000 0.040000 0
0.360000 0.040000 0
0.380000 0.040000 0
0.400000 0.040000 0
0.420000 0.040000 0
0.440000 0.040000 0
0.460000 0.040000 0
0.480000 0.040000 0
0.500000 0.040000 0
0.520000 0.040000 0
0.540000 0.040000 0
0.560000 0.040000 0
0.580000 0.040000 0
0.600000 0.040000 0
0.620000 0.040000 0
0.640000 0.040000 0
0.660000 0.040000 0
0.680000 0.040000 0
0.700000 0.040000 0
0.720000 0.040000 0
0.740000 0.040000 0
0.760000 0.040000 0
0.780000 0.040000 0
0.800000 0.040000 0
0.820000 0.040000 0
0.840000 0.040000 0
0.860000 0.040000 0
0.880000 0.040000 0
0.900000 0.040000 0
0.920000 0.040000 0
0.940000 0.040000 0
0.960000 0.040000 0
0.980000 0.040000 0
1.000000 0.040000 0
1.020000 0.040000 0
1.040000 0.040000 0
1.060000 0.040000 0
1.080000 0.040000 0
1.100000 0.040000 0
1.120000 0.040000 0
1.140000 0.040000 0
1.160000 0.040000 0
1.180000 0.040000 0
1.200000 0.040000 0
1.220000 0.040000 0
1.240000 0.040000 0
1.260000 0.040000 0
1.280000 0.040000 0
1.300000 0.040000 0
1.320000 0.040000 0
1.340000 0.040000 0
1.360000 0.040000 0
1.380000 0.040000 0
1.400000 0.040000 0
1.420000 0.040000 0
1.440000 0.040000 0
1.460000 0.040000 0
1.480000 0.040000 0
1.500000 0.040000 0
1.520000 0.040000 0
1.540000 0.040000 0
1.560000 0.040000 0
1.580000 0.040000 0
1.600000 0.040000 0
1.620000 0.040000 0
1.640000 0.040000 0
1.660000 0.040000 0
1.680000 0.040000 0
1.700000 0.040000 0
1.720000 0.040000 0
1.740000 0.040000 0
1.760000 0.040000 0
1.780000 0.040000 0
1.800000 0.040000 0
1.820000 0.040000 0
1.840000 0.040000 0
1.860000 0.040000 0
1.880000 0.040000 0
1.900000 0.040000 0
1.920000 0.040000 0
1.940000 0.040000 0
1.960000 0.040000 0
0.000000 0.060000 0
0.020000 0.060000 0
0.040000 0.060000 0
0.060000 0.060000 0
0.080000 0.060000 0
0.100000 0.060000 0
0.120000 0.060000 0
0.140000 0.060000 0
0.160000 0.060000 0
0.180000 0.060000 0
0.200000 0.060000 0
0.220000 0.060000 0
0.240000 0.060000 0
0.260000 0.060000 0
0.280000 0.060000 0
0.300000 0.060000 0
0.320000 0.060000 0
0.340000 0.060000 0
0.360000 0.060000 0
0.380000 0.060000 0
0.400000 0.060000 0
0.420000 0.060000 0
0.440000 0.060000 0
0.460000 0.060000 0
0.480000 0.060000 0
0.500000 0.060000 0
0.520000 0.060000 0
0.540000 0.060000 0
0.560000 0.060000 0
0.580000 0.060000 0
0.600000 0.060000 0
0.620000 0.060000 0
0.640000 0.060000 0
0.660000 0.060000 0
0.680000 0.060000 0
0.700000 0.060000 0
0.720000 0.060000 0
0.740000 0.060000 0
0.760000 0.060000 0
0.780000 0.060000 0
0.800000 0.060000 0
0.820000 0.060000 0
0.840000 0.060000 0
0.860000 0.060000 0
0.880000 0.060000 0
0.900000 0.060000 0
0.920000 0.060000 0
0.940000 0.060000 0
0.960000 0.060000 0
0.980000 0.060000 0
1.000000 0.060000 0
1.020000 0.060000 0
1.040000 0.060000 0
1.060000 0.060000 0
1.080000 0.060000 0
1.100000 0.060000 0
1.120000 0.060000 0
1.140000 0.060000 0
1.160000 0.060000 0
1.180000 0.060000 0
1.200000 0.060000 0
1.220000 0.060000 0
1.240000 0.060000 0
1.260000 0.060000 0
1.280000 0.060000 0
1.300000 0.060000 0
1.320000 0.060000 0
1.340000 0.060000 0
1.360000 0.060000 0
1.380000 0.060000 0
1.400000 0.060000 0
1.420000 0.060000 0
1.440000 0.060000 0
1.460000 0.060000 0
1.480000 0.060000 0
1.500000 0.060000 0
1.520000 0.060000 0
1.540000 0.060000 0
1.560000 0.060000 0
1.580000 0.060000 0
1.600000 0.060000 0
1.620000 0.060000 0
1.640000 0.060000 0
1.660000 0.060000 0
1.680000 0.060000 0
1.700000 0.060000 0
1.720000 0.060000 0
1.740000 0.060000 0
1.760000 0.060000 0
1.780000 0.060000 0
1.800000 0.060000 0
1.820000 0.060000 0
1.840000 0.060000 0
1.860000 0.060000 0
1.880000 0.060000 0
1.900000 0.060000 0
1.920000 0.060000 0
1.940000 0.060000 0
1.960000 0.060000 0
0.000000 0.080000 0
0.020000 0.080000 0
0.040000 0.080000 0
0.060000 0.080000 0
0.080000 0.080000 0
0.100000 0.080000 0
0.120000 0.080000 0
0.140000 0.080000 0
0.160000 0.080000 0
0.180000 0.080000 0
0.200000 0.080000 0
0.220000 0.080000 0
0.240000 0.080000 0
0.260000 0.080000 0
0.280000 0.080000 0
0.300000 0.080000 0
0.320000 0.080000 0
0.340000 0.080000 0
0.360000 0.080000 0
0.380000 0.080000 0
0.400000 0.080000 0
0.420000 0.080000 0
0.440000 0.080000 0
0.460000 0.080000 0
0.480000 0.080000 0
0.500000 0.080000 0
0.520000 0.080000 0
0.540000 0.080000 0
0.560000 0.080000 0
0.580000 0.080000 0
0.600000 0.080000 0
0.620000 0.080000 0
0.640000 0.080000 0
0.660000 0.080000 0
0.680000 0.080000 0
0.700000 0.080000 0
0.720000 0.080000 0
0.740000 0.080000 0
0.760000 0.080000 0
0.780000 0.080000 0
0.800000 0.080000 0
0.820000 0.080000 0
0.840000 0.080000 0
0.860000 0.080000 0
0.880000 0.080000 0
0.900000 0.080000 0
0.920000 0.080000 0
0.940000 0.080000 0
0.960000 0.080000 0
0.980000 0.080000 0
1.000000 0.080000 0
1.020000 0.080000 0
1.040000 0.080000 0
1.060000 0.080000 0
1.080000 0.080000 0
1.100000 0.080000 0
1.120000 0.080000 0
1.140000 0.080000 0
1.160000 0.080000 0
1.180000 0.080000 0
1.200000 0.080000 0
1.220000 0.080000 0
1.240000 0.080000 0
1.260000 0.080000 0
1.280000 0.080000 0
1.300000 0.080000 0
1.320000 0.080000 0
1.340000 0.080000 0
1.360000 0.080000 0
1.380000 0.080000 0
1.400000 0.080000 0
1.420000 0.080000 0
1.440000 0.080000 0
1.460000 0.080000 0
1.480000 0.080000 0
1.500000 0.080000 0
1.520000 0.080000 0
1.540000 0.080000 0
1.560000 0.080000 0
1.580000 0.080000 0
1.600000 0.080000 0
1.620000 0.080000 0
1.640000 0.080000 0
1.660000 0.080000 0
1.680000 0.080000 0
1.700000 0.080000 0
1.720000 0.080000 0
1.740000 0.080000 0
1.760000 0.080000 0
1.780000 0.080000 0
1.800000 0.080000 0
1.820000 0.080000 0
1.840000 0.080000 0
1.860000 0.080000 0
1.880000 0.080000 0
[...]
POINT_DATA 4851 

VECTORS velocity float
0.000000 0.000000 0
-0.000386 0.000000 0
-0.000523 0.000000 0
-0.000486 0.000000 0
-0.000408 0.000000 0
-0.000340 0.000000 0
-0.000288 0.000000 0
-0.000251 0.000000 0
-0.000223 0.000000 0
-0.000202 0.000000 0
-0.000185 0.000000 0
-0.000170 0.000000 0
-0.000158 0.000000 0
-0.000146 0.000000 0
-0.000136 0.000000 0
-0.000127 0.000000 0
-0.000119 0.000000 0
-0.000111 0.000000 0
-0.000104 0.000000 0
-0.000096 0.000000 0
-0.000090 0.000000 0
-0.000083 0.000000 0
-0.000077 0.000000 0
-0.000071 0.000000 0
-0.000065 0.000000 0
-0.000060 0.000000 0
-0.000054 0.000000 0
-0.000049 0.000000 0
-0.000044 0.000000 0
-0.000040 0.000000 0
-0.000035 0.000000 0
-0.000030 0.000000 0
-0.000024 0.000000 0
-0.000017 0.000000 0
-0.000009 0.000000 0
-0.000003 0.000000 0
0.000000 0.000000 0
0.000000 0.000000 0
0.000000 0.000000 0
0.000000 0.000000 0
0.000000 0.000000 0
-0.000017 0.000000 0
-0.000054 0.000000 0
-0.000093 0.000000 0
-0.000125 0.000000 0
-0.000147 0.000000 0
-0.000162 0.000000 0
-0.000171 0.000000 0
-0.000177 0.000000 0
-0.000181 0.000000 0
-0.000184 0.000000 0
-0.000186 0.000000 0
-0.000188 0.000000 0
-0.000190 0.000000 0
-0.000192 0.000000 0
-0.000193 0.000000 0
-0.000195 0.000000 0
-0.000196 0.000000 0
-0.000198 0.000000 0
-0.000199 0.000000 0
-0.000200 0.000000 0
-0.000202 0.000000 0
-0.000203 0.000000 0
-0.000204 0.000000 0
-0.000205 0.000000 0
-0.000206 0.000000 0
-0.000207 0.000000 0
-0.000208 0.000000 0
-0.000209 0.000000 0
-0.000209 0.000000 0
-0.000210 0.000000 0
-0.000211 0.000000 0
-0.000212 0.000000 0
-0.000213 0.000000 0
-0.000214 0.000000 0
-0.000215 0.000000 0
-0.000216 0.000000 0
-0.000216 0.000000 0
-0.000217 0.000000 0
-0.000217 0.000000 0
-0.000217 0.000000 0
-0.000216 0.000000 0
-0.000215 0.000000 0
-0.000214 0.000000 0
-0.000212 0.000000 0
-0.000212 0.000000 0
-0.000213 0.000000 0
-0.000218 0.000000 0
-0.000227 0.000000 0
-0.000242 0.000000 0
-0.000262 0.000000 0
-0.000285 0.000000 0
-0.000306 0.000000 0
-0.000316 0.000000 0
-0.000305 0.000000 0
-0.000260 0.000000 0
-0.000177 0.000000 0
-0.000071 0.000000 0
0.000000 0.000000 0
0.000000 0.000387 0
-0.000769 0.000524 0
-0.001209 0.000100 0
-0.001270 -0.000114 0
-0.001172 -0.000145 0
-0.001041 -0.000119 0
-0.000923 -0.000088 0
-0.000825 -0.000064 0
-0.000746 -0.000048 0
-0.000681 -0.000038 0
-0.000627 -0.000031 0
-0.000581 -0.000026 0
-0.000540 -0.000023 0
-0.000503 -0.000020 0
-0.000470 -0.000018 0
-0.000440 -0.000017 0
-0.000411 -0.000016 0
-0.000384 -0.000015 0
-0.000359 -0.000014 0
-0.000335 -0.000013 0
-0.000312 -0.000012 0
-0.000290 -0.000012 0
-0.000269 -0.000011 0
-0.000248 -0.000011 0
-0.000228 -0.000011 0
-0.000208 -0.000010 0
-0.000190 -0.000010 0
-0.000171 -0.000009 0
-0.000154 -0.000009 0
-0.000136 -0.000009 0
-0.000119 -0.000009 0
-0.000100 -0.000010 0
-0.000080 -0.000012 0
-0.000056 -0.000014 0
-0.000032 -0.000014 0
-0.000010 -0.000009 0
0.000000 -0.000002 0
0.000000 0.000000 0
0.000000 0.000000 0
0.000000 0.000000 0
0.000000 0.000017 0
-0.000053 0.000054 0
-0.000158 0.000075 0
-0.000270 0.000070 0
-0.000368 0.000054 0
-0.000442 0.000037 0
-0.000495 0.000023 0
-0.000532 0.000014 0
-0.000557 0.000009 0
-0.000576 0.000006 0
-0.000590 0.000005 0
-0.000601 0.000004 0
-0.000611 0.000004 0
-0.000620 0.000003 0
-0.000628 0.000003 0
-0.000635 0.000003 0
-0.000641 0.000003 0
-0.000648 0.000002 0
-0.000653 0.000002 0
-0.000658 0.000002 0
-0.000663 0.000002 0
-0.000668 0.000002 0
-0.000672 0.000002 0
-0.000677 0.000002 0
-0.000680 0.000002 0
-0.000684 0.000002 0
-0.000688 0.000001 0
-0.000691 0.000001 0
-0.000694 0.000001 0
-0.000697 0.000001 0
-0.000700 0.000001 0
-0.000703 0.000001 0
-0.000706 0.000001 0
-0.000709 0.000001 0
-0.000711 0.000001 0
-0.000714 0.000001 0
-0.000716 0.000001 0
-0.000718 0.000001 0
-0.000720 0.000000 0
-0.000720 -0.000000 0
-0.000719 -0.000001 0
-0.000717 -0.000002 0
-0.000713 -0.000003 0
-0.000708 -0.000003 0
-0.000704 -0.000003 0
-0.000702 0.000000 0
-0.000708 0.000006 0
-0.000723 0.000014 0
-0.000752 0.000024 0
-0.000796 0.000035 0
-0.000852 0.000043 0
-0.000911 0.000043 0
-0.000958 0.000030 0
-0.000968 -0.000001 0
-0.000910 -0.000056 0
-0.000757 -0.000129 0
-0.000503 -0.000190 0
-0.000200 -0.000177 0
0.000000 -0.000071 0
0.000000 0.000770 0
-0.000663 0.001211 0
-0.001293 0.000501 0
-0.001574 -0.000037 0
-0.001611 -0.000228 0
-0.001535 -0.000248 0
-0.001425 -0.000216 0
-0.001313 -0.000176 0
-0.001210 -0.000143 0
-0.001120 -0.000118 0
-0.001041 -0.000100 0
-0.000970 -0.000086 0
-0.000907 -0.000076 0
-0.000849 -0.000069 0
-0.000796 -0.000063 0
-0.000746 -0.000058 0
-0.000699 -0.000054 0
-0.000655 -0.000051 0
-0.000613 -0.000048 0
-0.000573 -0.000046 0
-0.000534 -0.000044 0
-0.000497 -0.000043 0
-0.000461 -0.000041 0
-0.000425 -0.000040 0
-0.000391 -0.000039 0
-0.000358 -0.000037 0
-0.000325 -0.000036 0
-0.000294 -0.000035 0
-0.000262 -0.000034 0
-0.000232 -0.000034 0
-0.000200 -0.000035 0
-0.000167 -0.000038 0
-0.000132 -0.000043 0
-0.000093 -0.000047 0
-0.000053 -0.000045 0
-0.000018 -0.000031 0
0.000000 -0.000010 0
0.000000 0.000000 0
0.000000 0.000000 0
0.000000 0.000000 0
0.000000 0.000053 0
-0.000075 0.000157 0
-0.000217 0.000217 0
-0.000375 0.000210 0
-0.000520 0.000171 0
-0.000639 0.000127 0
-0.000730 0.000089 0
-0.000798 0.000061 0
-0.000849 0.000043 0
-0.000888 0.000032 0
-0.000919 0.000025 0
-0.000944 0.000021 0
-0.000965 0.000018 0
-0.000984 0.000016 0
-0.001001 0.000014 0
-0.001016 0.000013 0
-0.001030 0.000012 0
-0.001042 0.000011 0
-0.001054 0.000010 0
-0.001064 0.000010 0
-0.001074 0.000009 0
-0.001083 0.000008 0
-0.001092 0.000008 0
-0.001100 0.000007 0
-0.001107 0.000007 0
-0.001114 0.000007 0
-0.001121 0.000006 0
-0.001127 0.000006 0
-0.001132 0.000006 0
-0.001138 0.000005 0
-0.001143 0.000005 0
-0.001148 0.000005 0
-0.001153 0.000005 0
-0.001157 0.000005 0
-0.001161 0.000005 0
-0.001165 0.000004 0
-0.001168 0.000004 0
-0.001171 0.000003 0
-0.001173 0.000001 0
-0.001172 -0.000001 0
-0.001170 -0.000004 0
-0.001166 -0.000007 0
-0.001159 -0.000009 0
-0.001152 -0.000010 0
-0.001146 -0.000006 0
-0.001145 0.000004 0
-0.001154 0.000020 0
-0.001178 0.000044 0
-0.001220 0.000072 0
-0.001281 0.000099 0
-0.001355 0.000115 0
-0.001428 0.000106 0
-0.001473 0.000056 0
-0.001457 -0.000049 0
-0.001338 -0.000211 0
-0.001087 -0.000408 0
-0.000707 -0.000558 0
-0.000275 -0.000504 0
0.000000 -0.000200 0
0.000000 0.001050 0
-0.000473 0.001817 0
-0.001090 0.001012 0
-0.001486 0.000205 0
-0.001649 -0.000184 0
-0.001665 -0.000305 0
-0.001609 -0.000311 0
-0.001526 -0.000279 0
-0.001437 -0.000241 0
-0.001349 -0.000207 0
-0.001267 -0.000181 0
-0.001191 -0.000160 0
-0.001120 -0.000144 0
-0.001054 -0.000131 0
-0.000992 -0.000121 0
-0.000934 -0.000113 0
-0.000878 -0.000106 0
-0.000825 -0.000100 0
-0.000773 -0.000096 0
-0.000724 -0.000092 0
-0.000676 -0.000088 0
-0.000629 -0.000085 0
-0.000584 -0.000083 0
-0.000540 -0.000080 0
-0.000497 -0.000078 0
-0.000454 -0.000076 0
-0.000413 -0.000074 0
-0.000372 -0.000072 0
-0.000332 -0.000071 0
-0.000292 -0.000071 0
-0.000251 -0.000073 0
-0.000208 -0.000078 0
-0.000163 -0.000086 0
-0.000115 -0.000092 0
-0.000066 -0.000088 0
-0.000023 -0.000062 0
0.000000 -0.000021 0
0.000000 0.000000 0
0.000000 0.000000 0
0.000000 0.000000 0
0.000000 0.000091 0
-0.000072 0.000270 0
-0.000214 0.000375 0
-0.000378 0.000373 0
-0.000536 0.000317 0
-0.000673 0.000247 0
-0.000784 0.000183 0
-0.000872 0.000133 0
-0.000942 0.000099 0
-0.000997 0.000076 0
-0.001043 0.000060 0
-0.001081 0.000050 0
-0.001114 0.000044 0
-0.001142 0.000039 0
-0.001168 0.000035 0
-0.001191 0.000031 0
-0.001212 0.000029 0
-0.001232 0.000026 0
-0.001249 0.000024 0
-0.001265 0.000022 0
-0.001280 0.000021 0
-0.001293 0.000019 0
-0.001305 0.000018 0
-0.001317 0.000017 0
-0.001328 0.000016 0
-0.001337 0.000015 0
-0.001347 0.000014 0
-0.001355 0.000013 0
-0.001363 0.000012 0
-0.001371 0.000012 0
-0.001378 0.000011 0
-0.001384 0.000011 0
-0.001390 0.000010 0
-0.001396 0.000010 0
-0.001401 0.000009 0
-0.001406 0.000008 0
-0.001410 0.000007 0
-0.001413 0.000005 0
-0.001415 0.000002 0
-0.001415 -0.000003 0
-0.001412 -0.000008 0
-0.001407 -0.000013 0
-0.001400 -0.000017 0
-0.001393 -0.000017 0
-0.001387 -0.000009 0
-0.001386 0.000008 0
-0.001397 0.000038 0
-0.001422 0.000079 0
-0.001466 0.000127 0
-0.001529 0.000169 0
-0.001602 0.000189 0
-0.001669 0.000161 0
-0.001700 0.000060 0
-0.001658 -0.000136 0
-0.001501 -0.000427 0
-0.001200 -0.000761 0
-0.000768 -0.001001 0
-0.000294 -0.000884 0
0.000000 -0.000347 0
0.000000 0.001243 0
-0.000326 0.002301 0
-0.000860 0.001515 0
-0.001276 0.000522 0
-0.001506 -0.000049 0
-0.001591 -0.000287 0
-0.001590 -0.000354 0
-0.001547 -0.000349 0
-0.001484 -0.000320 0
-0.001414 -0.000287 0
-0.001343 -0.000257 0
-0.001274 -0.000233 0
-0.001207 -0.000213 0
-0.001143 -0.000197 0
-0.001081 -0.000183 0
-0.001021 -0.000172 0
-0.000963 -0.000163 0
-0.000907 -0.000155 0
-0.000853 -0.000149 0
-0.000800 -0.000143 0
-0.000749 -0.000138 0
-0.000698 -0.000134 0
-0.000648 -0.000131 0
-0.000600 -0.000127 0
-0.000552 -0.000124 0
-0.000505 -0.000121 0
-0.000459 -0.000118 0
-0.000413 -0.000116 0
-0.000368 -0.000114 0
-0.000322 -0.000115 0
-0.000276 -0.000119 0
-0.000228 -0.000126 0
-0.000178 -0.000136 0
-0.000125 -0.000143 0
-0.000071 -0.000137 0
-0.000025 -0.000097 0
0.000000 -0.000033 0
0.000000 0.000000 0
0.000000 0.000000 0
0.000000 0.000000 0
0.000000 0.000125 0
-0.000058 0.000370 0
-0.000178 0.000522 0
-0.000324 0.000531 0
-0.000470 0.000465 0
-0.000604 0.000375 0
-0.000718 0.000289 0
-0.000813 0.000219 0
-0.000892 0.000168 0
-0.000958 0.000133 0
-0.001013 0.000108 0
-0.001061 0.000091 0
-0.001104 0.000079 0
-0.001141 0.000070 0
-0.001175 0.000063 0
-0.001206 0.000057 0
-0.001234 0.000052 0
-0.001260 0.000048 0
-0.001284 0.000044 0
-0.001305 0.000040 0
-0.001324 0.000037 0
-0.001342 0.000034 0
-0.001358 0.000032 0
-0.001373 0.000029 0
-0.001387 0.000027 0
-0.001399 0.000026 0
-0.001411 0.000024 0
-0.001422 0.000022 0
-0.001432 0.000021 0
-0.001442 0.000020 0
-0.001451 0.000019 0
-0.001459 0.000018 0
-0.001467 0.000017 0
-0.001474 0.000016 0
-0.001480 0.000015 0
-0.001486 0.000013 0
-0.001491 0.000011 0
-0.001496 0.000007 0
-0.001499 0.000002 0
-0.001500 -0.000004 0
-0.001498 -0.000012 0
-0.001495 -0.000019 0
-0.001490 -0.000024 0
-0.001484 -0.000023 0
-0.001479 -0.000012 0
-0.001479 0.000013 0
-0.001489 0.000056 0
-0.001513 0.000114 0
-0.001554 0.000179 0
-0.001611 0.000235 0
-0.001676 0.000254 0
-0.001732 0.000203 0
-0.001750 0.000045 0
-0.001693 -0.000248 0
-0.001519 -0.000669 0
-0.001205 -0.001140 0
-0.000764 -0.001464 0
-0.000289 -0.001272 0
0.000000 -0.000494 0
0.000000 0.001376 0
-0.000225 0.002678 0
-0.000666 0.001963 0
-0.001055 0.000851 0
-0.001302 0.000131 0
-0.001423 -0.000220 0
-0.001460 -0.000354 0
-0.001448 -0.000385 0
-0.001412 -0.000373 0
-0.001363 -0.000348 0
-0.001309 -0.000321 0
-0.001253 -0.000296 0
-0.001196 -0.000275 0
-0.001139 -0.000257 0
-0.001083 -0.000242 0
-0.001028 -0.000230 0
-0.000974 -0.000219 0
-0.000920 -0.000210 0
-0.000868 -0.000203 0
-0.000816 -0.000196 0
-0.000765 -0.000190 0
-0.000714 -0.000185 0
-0.000664 -0.000181 0
-0.000615 -0.000176 0
-0.000566 -0.000173 0
-0.000518 -0.000169 0
-0.000471 -0.000165 0
-0.000424 -0.000163 0
-0.000377 -0.000161 0
-0.000330 -0.000162 0
-0.000282 -0.000167 0
-0.000232 -0.000177 0
-0.000180 -0.000189 0
-0.000125 -0.000198 0
-0.000071 -0.000188 0
-0.000024 -0.000133 0
0.000000 -0.000045 0
0.000000 0.000000 0
0.000000 0.000000 0
0.000000 0.000000 0
0.000000 0.000149 0
-0.000040 0.000448 0
-0.000128 0.000641 0
-0.000241 0.000665 0
-0.000360 0.000597 0
-0.000475 0.000494 0
-0.000579 0.000392 0
-0.000670 0.000307 0
-0.000748 0.000243 0
-0.000817 0.000197 0
-0.000877 0.000164 0
-0.000931 0.000140 0
-0.000979 0.000123 0
-0.001024 0.000110 0
-0.001065 0.000099 0
-0.001103 0.000090 0
-0.001138 0.000082 0
-0.001170 0.000075 0
-0.001199 0.000069 0
-0.001226 0.000063 0
-0.001250 0.000058 0
-0.001272 0.000053 0
-0.001292 0.000049 0
-0.001310 0.000045 0
-0.001326 0.000042 0
-0.001342 0.000039 0
-0.001356 0.000036 0
-0.001369 0.000034 0
-0.001382 0.000032 0
-0.001393 0.000030 0
-0.001404 0.000028 0
-0.001415 0.000026 0
-0.001424 0.000025 0
-0.001433 0.000023 0
-0.001442 0.000022 0
-0.001449 0.000019 0
-0.001457 0.000016 0
-0.001463 0.000012 0
-0.001468 0.000005 0
-0.001472 -0.000003 0
-0.001474 -0.000013 0
-0.001474 -0.000022 0
-0.001472 -0.000029 0
-0.001470 -0.000028 0
-0.001468 -0.000014 0
-0.001470 0.000018 0
-0.001480 0.000072 0
-0.001501 0.000144 0
-0.001536 0.000225 0
-0.001586 0.000292 0
-0.001642 0.000310 0
-0.001688 0.000235 0
-0.001697 0.000019 0
-0.001633 -0.000368 0
-0.001459 -0.000915 0
-0.001152 -0.001516 0
-0.000727 -0.001917 0
-0.000273 -0.001648 0
0.000000 -0.000636 0
0.000000 0.001469 0
-0.000157 0.002969 0
-0.000516 0.002346 0
-0.000860 0.001158 0
-0.001096 0.000319 0
-0.001226 -0.000129 0
-0.001281 -0.000328 0
-0.001290 -0.000396 0
-0.001273 -0.000404 0
-0.001242 -0.000389 0
-0.001204 -0.000368 0
-0.001162 -0.000346 0
-0.001118 -0.000326 0
-0.001072 -0.000309 0
-0.001025 -0.000294 0
-0.000977 -0.000282 0
-0.000929 -0.000271 0
-0.000881 -0.000261 0
-0.000833 -0.000253 0
-0.000785 -0.000246 0
-0.000737 -0.000240 0
-0.000690 -0.000234 0
-0.000642 -0.000229 0
-0.000595 -0.000225 0
-0.000548 -0.000220 0
-0.000502 -0.000216 0
-0.000456 -0.000212 0
-0.000410 -0.000209 0
-0.000364 -0.000208 0
-0.000318 -0.000210 0
-0.000271 -0.000216 0
-0.000223 -0.000227 0
-0.000172 -0.000242 0
-0.000119 -0.000252 0
-0.000067 -0.000238 0
-0.000022 -0.000168 0
0.000000 -0.000057 0
0.000000 0.000000 0
0.000000 0.000000 0
0.000000 0.000000 0
0.000000 0.000164 0
-0.000021 0.000498 0
-0.000074 0.000723 0
-0.000148 0.000764 0
-0.000233 0.000700 0
-0.000319 0.000593 0
-0.000402 0.000483 0
-0.000479 0.000388 0
-0.000549 0.000315 0
-0.000613 0.000261 0
-0.000672 0.000222 0
-0.000728 0.000194 0
-0.000779 0.000173 0
-0.000828 0.000156 0
-0.000875 0.000142 0
-0.000918 0.000130 0
-0.000959 0.000119 0
-0.000997 0.000109 0
-0.001032 0.000099 0
-0.001064 0.000091 0
-0.001093 0.000083 0
-0.001119 0.000076 0
-0.001143 0.000069 0
-0.001164 0.000064 0
-0.001184 0.000059 0
-0.001202 0.000055 0
-0.001218 0.000051 0
-0.001234 0.000048 0
-0.001248 0.000045 0
-0.001262 0.000042 0
-0.001276 0.000040 0
-0.001288 0.000037 0
-0.001300 0.000035 0
-0.001312 0.000033 0
-0.001323 0.000031 0
-0.001333 0.000028 0
-0.001343 0.000024 0
-0.001352 0.000019 0
-0.001361 0.000011 0
-0.001369 0.000002 0
-0.001375 -0.000010 0
-0.001380 -0.000021 0
-0.001384 -0.000029 0
-0.001386 -0.000028 0
-0.001389 -0.000012 0
-0.001394 0.000025 0
-0.001404 0.000086 0
-0.001423 0.000170 0
-0.001453 0.000263 0
-0.001494 0.000340 0
-0.001540 0.000356 0
-0.001578 0.000258 0
-0.001581 -0.000010 0
-0.001519 -0.000486 0
-0.001355 -0.001150 0
-0.001070 -0.001872 0
-0.000675 -0.002343 0
-0.000253 -0.002000 0
0.000000 -0.000768 0
0.000000 0.001534 0
-0.000110 0.003194 0
-0.000402 0.002667 0
-0.000699 0.001431 0
-0.000912 0.000498 0
-0.001036 -0.000035 0
-0.001094 -0.000291 0
-0.001111 -0.000393 0
-0.001105 -0.000420 0
-0.001087 -0.000416 0
-0.001062 -0.000400 0
-0.001032 -0.000382 0
-0.000999 -0.000365 0
-0.000964 -0.000350 0
-0.000926 -0.000337 0
-0.000887 -0.000325 0
-0.000847 -0.000315 0
-0.000806 -0.000306 0
-0.000764 -0.000298 0
-0.000722 -0.000291 0
-0.000680 -0.000285 0
-0.000637 -0.000280 0
-0.000594 -0.000275 0
-0.000551 -0.000270 0
-0.000508 -0.000265 0
-0.000465 -0.000261 0
-0.000422 -0.000257 0
-0.000379 -0.000254 0
-0.000337 -0.000253 0
-0.000294 -0.000255 0
-0.000250 -0.000262 0
-0.000204 -0.000276 0
-0.000157 -0.000292 0
-0.000108 -0.000303 0
-0.000060 -0.000284 0
-0.000020 -0.000199 0
0.000000 -0.000067 0
0.000000 0.000000 0
0.000000 0.000000 0
0.000000 0.000000 0
0.000000 0.000170 0
-0.000005 0.000521 0
-0.000025 0.000768 0
-0.000059 0.000823 0
-0.000105 0.000768 0
-0.000158 0.000663 0
-0.000214 0.000552 0
-0.000270 0.000454 0
-0.000326 0.000377 0
-0.000380 0.000320 0
-0.000433 0.000278 0
-0.000485 0.000247 0
-0.000536 0.000224 0
-0.000586 0.000205 0
-0.000635 0.000189 0
-0.000683 0.000174 0
-0.000728 0.000161 0
-0.000771 0.000148 0
-0.000812 0.000135 0
-0.000850 0.000124 0
-0.000884 0.000113 0
-0.000915 0.000103 0
-0.000943 0.000094 0
-0.000968 0.000086 0
-0.000990 0.000079 0
-0.001010 0.000073 0
-0.001029 0.000068 0
-0.001047 0.000064 0
-0.001063 0.000060 0
-0.001080 0.000057 0
-0.001095 0.000054 0
-0.001111 0.000051 0
-0.001125 0.000048 0
-0.001139 0.000045 0
-0.001153 0.000043 0
-0.001167 0.000040 0
-0.001180 0.000035 0
-0.001193 0.000030 0
-0.001206 0.000022 0
-0.001218 0.000011 0
-0.001230 -0.000001 0
-0.001241 -0.000014 0
-0.001250 -0.000023 0
-0.001259 -0.000023 0
-0.001267 -0.000006 0
-0.001276 0.000033 0
-0.001287 0.000100 0
-0.001304 0.000193 0
-0.001330 0.000296 0
-0.001363 0.000379 0
-0.001400 0.000393 0
-0.001430 0.000276 0
-0.001431 -0.000040 0
-0.001374 -0.000594 0
-0.001228 -0.001364 0
-0.000971 -0.002197 0
-0.000614 -0.002734 0
-0.000231 -0.002323 0
0.000000 -0.000889 0
0.000000 0.001580 0
-0.000078 0.003371 0
-0.000316 0.002934 0
-0.000571 0.001669 0
-0.000758 0.000657 0
-0.000868 0.000053 0
-0.000920 -0.000253 0
-0.000937 -0.000385 0
-0.000936 -0.000428 0
-0.000924 -0.000432 0
-0.000907 -0.000422 0
-0.000887 -0.000408 0
-0.000863 -0.000394 0
-0.000837 -0.000382 0
-0.000808 -0.000370 0
-0.000778 -0.000361 0
-0.000745 -0.000352 0
-0.000712 -0.000344 0
-0.000677 -0.000337 0
-0.000641 -0.000331 0
-0.000604 -0.000325 0
-0.000566 -0.000320 0
-0.000529 -0.000315 0
-0.000491 -0.000311 0
-0.000452 -0.000306 0
-0.000414 -0.000302 0
-0.000376 -0.000298 0
-0.000337 -0.000294 0
-0.000299 -0.000293 0
-0.000260 -0.000296 0
-0.000221 -0.000305 0
-0.000180 -0.000320 0
-0.000137 -0.000338 0
-0.000093 -0.000348 0
-0.000051 -0.000325 0
-0.000016 -0.000227 0
0.000000 -0.000076 0
0.000000 0.000000 0
0.000000 0.000000 0
0.000000 0.000000 0
0.000000 0.000169 0
0.000007 0.000522 0
0.000016 0.000777 0
0.000019 0.000844 0
0.000011 0.000798 0
-0.000007 0.000702 0
-0.000033 0.000595 0
-0.000065 0.000500 0
-0.000102 0.000424 0
-0.000141 0.000368 0
-0.000183 0.000327 0
-0.000228 0.000297 0
-0.000275 0.000274 0
-0.000323 0.000255 0
-0.000372 0.000238 0
-0.000421 0.000223 0
-0.000470 0.000207 0
-0.000518 0.000192 0
-0.000564 0.000177 0
-0.000607 0.000162 0
-0.000647 0.000148 0
-0.000684 0.000134 0
-0.000717 0.000122 0
-0.000745 0.000111 0
-0.000771 0.000102 0
-0.000793 0.000094 0
-0.000814 0.000087 0
-0.000833 0.000082 0
-0.000852 0.000078 0
-0.000870 0.000074 0
-0.000888 0.000070 0
-0.000906 0.000067 0
-0.000923 0.000064 0
-0.000940 0.000061 0
-0.000957 0.000058 0
-0.000974 0.000054 0
-0.000991 0.000050 0
-0.001007 0.000044 0
-0.001024 0.000036 0
-0.001041 0.000026 0
-0.001059 0.000013 0
-0.001076 -0.000001 0
-0.001092 -0.000011 0
-0.001107 -0.000011 0
-0.001121 0.000004 0
-0.001134 0.000045 0
-0.001148 0.000115 0
-0.001164 0.000212 0
-0.001185 0.000322 0
-0.001211 0.000410 0
-0.001240 0.000423 0
-0.001263 0.000288 0
-0.001262 -0.000067 0
-0.001213 -0.000689 0
-0.001088 -0.001552 0
-0.000866 -0.002485 0
-0.000551 -0.003084 0
-0.000209 -0.002614 0
0.000000 -0.000999 0
0.000000 0.001612 0
-0.000056 0.003511 0
-0.000252 0.003159 0
-0.000470 0.001873 0
-0.000633 0.000796 0
-0.000727 0.000128 0
-0.000771 -0.000221 0
-0.000783 -0.000377 0
-0.000780 -0.000433 0
-0.000771 -0.000444 0
-0.000758 -0.000437 0
-0.000743 -0.000426 0
-0.000726 -0.000415 0
-0.000707 -0.000405 0
-0.000686 -0.000396 0
-0.000663 -0.000388 0
-0.000637 -0.000381 0
-0.000610 -0.000375 0
-0.000581 -0.000369 0
-0.000551 -0.000364 0
-0.000520 -0.000359 0
-0.000489 -0.000355 0
-0.000456 -0.000350 0
-0.000423 -0.000346 0
-0.000390 -0.000342 0
-0.000357 -0.000338 0
-0.000324 -0.000333 0
-0.000290 -0.000330 0
-0.000257 -0.000329 0
-0.000223 -0.000333 0
-0.000188 -0.000343 0
-0.000153 -0.000359 0
-0.000115 -0.000379 0
-0.000077 -0.000388 0
-0.000041 -0.000361 0
-0.000013 -0.000250 0
0.000000 -0.000084 0
0.000000 0.000000 0
0.000000 0.000000 0
0.000000 0.000000 0
0.000000 0.000162 0
0.000017 0.000505 0
0.000049 0.000757 0
0.000082 0.000829 0