# vtk DataFile Version 2.0
generated by CFD-lab course output (written by Tobias Neckel) 
ASCII

DATASET STRUCTURED_GRID
DIMENSIONS  99 49 1 
POINTS 4851 float

0.000000 0.000000 0
0.020000 0.000000 0
0.040000 0.000000 0
0.060000 0.000000 0
0.080000 0.000000 0
0.100000 0.000000 0
0.120000 0.000000 0
0.140000 0.000000 0
0.160000 0.000000 0
0.180000 0.000000 0
0.200000 0.000000 0
0.220000 0.000000 0
0.240000 0.000000 0
0.260000 0.000000 0
0.280000 0.000000 0
0.300000 0.000000 0
0.320000 0.000000 0
0.340000 0.000000 0
0.360000 0.000000 0
0.380000 0.000000 0
0.400000 0.000000 0
0.420000 0.000000 0
0.440000 0.000000 0
0.460000 0.000000 0
0.480000 0.000000 0
0.500000 0.000000 0
0.520000 0.000000 0
0.540000 0.000000 0
0.560000 0.000000 0
0.580000 0.000000 0
0.600000 0.000000 0
0.620000 0.000000 0
0.640000 0.000000 0
0.660000 0.000000 0
0.680000 0.000000 0
0.700000 0.000000 0
0.720000 0.000000 0
0.740000 0.000000 0
0.760000 0.000000 0
0.780000 0.000000 0
0.800000 0.000000 0
0.820000 0.000000 0
0.840000 0.000000 0
0.860000 0.000000 0
0.880000 0.000000 0
0.900000 0.000000 0
0.920000 0.000000 0
0.940000 0.000000 0
0.960000 0.000000 0
0.980000 0.000000 0
1.000000 0.000000 0
1.020000 0.000000 0
1.040000 0.000000 0
1.060000 0.000000 0
1.080000 0.000000 0
1.100000 0.000000 0
1.120000 0.000000 0
1.140000 0.000000 0
1.160000 0.000000 0
1.180000 0.000000 0
1.200000 0.000000 0
1.220000 0.000000 0
1.240000 0.000000 0
1.260000 0.000000 0
1.280000 0.000000 0
1.300000 0.000000 0
1.320000 0.000000 0
1.340000 0.000000 0
1.360000 0.000000 0
1.380000 0.000000 0
1.400000 0.000000 0
1.420000 0.000000 0
1.440000 0.000000 0
1.460000 0.000000 0
1.480000 0.000000 0
1.500000 0.000000 0
1.520000 0.000000 0
1.540000 0.000000 0
1.560000 0.000000 0
1.580000 0.000000 0
1.600000 0.000000 0
1.620000 0.000000 0
1.640000 0.000000 0
1.660000 0.000000 0
1.680000 0.000000 0
1.700000 0.000000 0
1.720000 0.000000 0
1.740000 0.000000 0
1.760000 0.000000 0
1.780000 0.000000 0
1.800000 0.000000 0
1.820000 0.000000 0
1.840000 0.000000 0
1.860000 0.000000 0
1.880000 0.000000 0
1.900000 0.000000 0
1.920000 0.000000 0
1.940000 0.000000 0
1.960000 0.000000 0
0.000000 0.020000 0
0.020000 0.020000 0
0.040000 0.020000 0
0.060000 0.020000 0
0.080000 0.020000 0
0.100000 0.020000 0
0.120000 0.020000 0
0.140000 0.020000 0
0.160000 0.020000 0
0.180000 0.020000 0
0.200000 0.020000 0
0.220000 0.020000 0
0.240000 0.020000 0
0.260000 0.020000 0
0.280000 0.020000 0
0.300000 0.020000 0
0.320000 0.020000 0
0.340000 0.020000 0
0.360000 0.020000 0
0.380000 0.020000 0
0.400000 0.020000 0
0.420000 0.020000 0
0.440000 0.020000 0
0.460000 0.020000 0
0.480000 0.020000 0
0.500000 0.020000 0
0.520000 0.020000 0
0.540000 0.020000 0
0.560000 0.020000 0
0.580000 0.020000 0
0.600000 0.020000 0
0.620000 0.020000 0
0.640000 0.020000 0
0.660000 0.020000 0
0.680000 0.020000 0
0.700000 0.020000 0
0.720000 0.020000 0
0.740000 0.020000 0
0.760000 0.020000 0
0.780000 0.020000 0
0.800000 0.020000 0
0.820000 0.020000 0
0.840000 0.020000 0
0.860000 0.020000 0
0.880000 0.020000 0
0.900000 0.020000 0
0.920000 0.020000 0
0.940000 0.020000 0
0.960000 0.020000 0
0.980000 0.020000 0
1.000000 0.020000 0
1.020000 0.020000 0
1.040000 0.020000 0
1.060000 0.020000 0
1.080000 0.020000 0
1.100000 0.020000 0
1.120000 0.020000 0
1.140000 0.020000 0
1.160000 0.020000 0
1.180000 0.020000 0
1.200000 0.020000 0
1.220000 0.020000 0
1.240000 0.020000 0
1.260000 0.020000 0
1.280000 0.020000 0
1.300000 0.020000 0
1.320000 0.020000 0
1.340000 0.020000 0
1.360000 0.020000 0
1.380000 0.020000 0
1.400000 0.020000 0
1.420000 0.020000 0
1.440000 0.020000 0
1.460000 0.020000 0
1.480000 0.020000 0
1.500000 0.020000 0
1.520000 0.020000 0
1.540000 0.020000 0
1.560000 0.020000 0
1.580000 0.020000 0
1.600000 0.020000 0
1.620000 0.020000 0
1.640000 0.020000 0
1.660000 0.020000 0
1.680000 0.020000 0
1.700000 0.020000 0
1.720000 0.020000 0
1.740000 0.020000 0
1.760000 0.020000 0
1.780000 0.020000 0
1.800000 0.020000 0
1.820000 0.020000 0
1.840000 0.020000 0
1.860000 0.020000 0
1.880000 0.020000 0
1.900000 0.020000 0
1.920000 0.020000 0
1.940000 0.020000 0
1.960000 0.020000 0
0.000000 0.040000 0
0.020000 0.040000 0
0.040000 0.040000 0
0.060000 0.040000 0
0.080000 0.040000 0
0.100000 0.040000 0
0.120000 0.040000 0
0.140000 0.040000 0
0.160000 0.040000 0
0.180000 0.040000 0
0.200000 0.040000 0
0.220000 0.040000 0
0.240000 0.040000 0
0.260000 0.040000 0
0.280000 0.040000 0
0.300000 0.040000 0
0.320000 0.040000 0
0.340000 0.040000 0
0.360000 0.040000 0
0.380000 0.040000 0
0.400000 0.040000 0
0.420000 0.040000 0
0.440000 0.040000 0
0.460000 0.040000 0
0.480000 0.040000 0
0.500000 0.040000 0
0.520000 0.040000 0
0.540000 0.040000 0
0.560000 0.040000 0
0.580000 0.040000 0
0.600000 0.040000 0
0.620000 0.040000 0
0.640000 0.040000 0
0.660000 0.040000 0
0.680000 0.040000 0
0.700000 0.040000 0
0.720000 0.040000 0
0.740000 0.040000 0
0.760000 0.040000 0
0.780000 0.040000 0
0.800000 0.040000 0
0.820000 0.040000 0
0.840000 0.040000 0
0.860000 0.040000 0
0.880000 0.040000 0
0.900000 0.040000 0
0.920000 0.040000 0
0.940000 0.040000 0
0.960000 0.040000 0
0.980000 0.040000 0
1.000000 0.040000 0
1.020000 0.040000 0
1.040000 0.040000 0
1.060000 0.040000 0
1.080000 0.040000 0
1.100000 0.040000 0
1.120000 0.040000 0
1.140000 0.040000 0
1.160000 0.040000 0
1.180000 0.040000 0
1.200000 0.040000 0
1.220000 0.040000 0
1.240000 0.040000 0
1.260000 0.040000 0
1.280000 0.040000 0
1.300000 0.040000 0
1.320000 0.040000 0
1.340000 0.040000 0
1.360000 0.040000 0
1.380000 0.040000 0
1.400000 0.040000 0
1.420000 0.040000 0
1.440000 0.040000 0
1.460000 0.040000 0
1.480000 0.040000 0
1.500000 0.040000 0
1.520000 0.040000 0
1.540000 0.040000 0
1.560000 0.040000 0
1.580000 0.040000 0
1.600000 0.040000 0
1.620000 0.040000 0
1.640000 0.040000 0
1.660000 0.040000 0
1.680000 0.040000 0
1.700000 0.040000 0
1.720000 0.040000 0
1.740000 0.040000 0
1.760000 0.040000 0
1.780000 0.040000 0
1.800000 0.040000 0
1.820000 0.040000 0
1.840000 0.040000 0
1.860000 0.040000 0
1.880000 0.040000 0
1.900000 0.040000 0
1.920000 0.040000 0
1.940000 0.040000 0
1.960000 0.040000 0
0.000000 0.060000 0
0.020000 0.060000 0
0.040000 0.060000 0
0.060000 0.060000 0
0.080000 0.060000 0
0.100000 0.060000 0
0.120000 0.060000 0
0.140000 0.060000 0
0.160000 0.060000 0
0.180000 0.060000 0
0.200000 0.060000 0
0.220000 0.060000 0
0.240000 0.060000 0
0.260000 0.060000 0
0.280000 0.060000 0
0.300000 0.060000 0
0.320000 0.060000 0
0.340000 0.060000 0
0.360000 0.060000 0
0.380000 0.060000 0
0.400000 0.060000 0
0.420000 0.060000 0
0.440000 0.060000 0
0.460000 0.060000 0
0.480000 0.060000 0
0.500000 0.060000 0
0.520000 0.060000 0
0.540000 0.060000 0
0.560000 0.060000 0
0.580000 0.060000 0
0.600000 0.060000 0
0.620000 0.060000 0
0.640000 0.060000 0
0.660000 0.060000 0
0.680000 0.060000 0
0.700000 0.060000 0
0.720000 0.060000 0
0.740000 0.060000 0
0.760000 0.060000 0
0.780000 0.060000 0
0.800000 0.060000 0
0.820000 0.060000 0
0.840000 0.060000 0
0.860000 0.060000 0
0.880000 0.060000 0
0.900000 0.060000 0
0.920000 0.060000 0
0.940000 0.060000 0
0.960000 0.060000 0
0.980000 0.060000 0
1.000000 0.060000 0
1.020000 0.060000 0
1.040000 0.060000 0
1.060000 0.060000 0
1.080000 0.060000 0
1.100000 0.060000 0
1.120000 0.060000 0
1.140000 0.060000 0
1.160000 0.060000 0
1.180000 0.060000 0
1.200000 0.060000 0
1.220000 0.060000 0
1.240000 0.060000 0
1.260000 0.060000 0
1.280000 0.060000 0
1.300000 0.060000 0
1.320000 0.060000 0
1.340000 0.060000 0
1.360000 0.060000 0
1.380000 0.060000 0
1.400000 0.060000 0
1.420000 0.060000 0
1.440000 0.060000 0
1.460000 0.060000 0
1.480000 0.060000 0
1.500000 0.060000 0
1.520000 0.060000 0
1.540000 0.060000 0
1.560000 0.060000 0
1.580000 0.060000 0
1.600000 0.060000 0
1.620000 0.060000 0
1.640000 0.060000 0
1.660000 0.060000 0
1.680000 0.060000 0
1.700000 0.060000 0
1.720000 0.060000 0
1.740000 0.060000 0
1.760000 0.060000 0
1.780000 0.060000 0
1.800000 0.060000 0
1.820000 0.060000 0
1.840000 0.060000 0
1.860000 0.060000 0
1.880000 0.060000 0
1.900000 0.060000 0
1.920000 0.060000 0
1.940000 0.060000 0
1.960000 0.060000 0
0.000000 0.080000 0
0.020000 0.080000 0
0.040000 0.080000 0
0.060000 0.080000 0
0.080000 0.080000 0
0.100000 0.080000 0
0.120000 0.080000 0
0.140000 0.080000 0
0.160000 0.080000 0
0.180000 0.080000 0
0.200000 0.080000 0
0.220000 0.080000 0
0.240000 0.080000 0
0.260000 0.080000 0
0.280000 0.080000 0
0.300000 0.080000 0
0.320000 0.080000 0
0.340000 0.080000 0
0.360000 0.080000 0
0.380000 0.080000 0
0.400000 0.080000 0
0.420000 0.080000 0
0.440000 0.080000 0
0.460000 0.080000 0
0.480000 0.080000 0
0.500000 0.080000 0
0.520000 0.080000 0
0.540000 0.080000 0
0.560000 0.080000 0
0.580000 0.080000 0
0.600000 0.080000 0
0.620000 0.080000 0
0.640000 0.080000 0
0.660000 0.080000 0
0.680000 0.080000 0
0.700000 0.080000 0
0.720000 0.080000 0
0.740000 0.080000 0
0.760000 0.080000 0
0.780000 0.080000 0
0.800000 0.080000 0
0.820000 0.080000 0
0.840000 0.080000 0
0.860000 0.080000 0
0.880000 0.080000 0
0.900000 0.080000 0
0.920000 0.080000 0
0.940000 0.080000 0
0.960000 0.080000 0
0.980000 0.080000 0
1.000000 0.080000 0
1.020000 0.080000 0
1.040000 0.080000 0
1.060000 0.080000 0
1.080000 0.080000 0
1.100000 0.080000 0
1.120000 0.080000 0
1.140000 0.080000 0
1.160000 0.080000 0
1.180000 0.080000 0
1.200000 0.080000 0
1.220000 0.080000 0
1.240000 0.080000 0
1.260000 0.080000 0
1.280000 0.080000 0
1.300000 0.080000 0
1.320000 0.080000 0
1.340000 0.080000 0
1.360000 0.080000 0
1.380000 0.080000 0
1.400000 0.080000 0
1.420000 0.080000 0
1.440000 0.080000 0
1.460000 0.080000 0
1.480000 0.080000 0
1.500000 0.080000 0
1.520000 0.080000 0
1.540000 0.080000 0
1.560000 0.080000 0
1.580000 0.080000 0
1.600000 0.080000 0
1.620000 0.080000 0
1.640000 0.080000 0
1.660000 0.080000 0
1.680000 0.080000 0
1.700000 0.080000 0
1.720000 0.080000 0
1.740000 0.080000 0
1.760000 0.080000 0
1.780000 0.080000 0
1.800000 0.080000 0
1.820000 0.080000 0
1.840000 0.080000 0
1.860000 0.080000 0
1.880000 0.080000 0
[...]
POINT_DATA 4851 

VECTORS velocity float
0.000000 0.000000 0
-0.000421 0.000000 0
-0.000558 0.000000 0
-0.000513 0.000000 0
-0.000429 0.000000 0
-0.000356 0.000000 0
-0.000302 0.000000 0
-0.000263 0.000000 0
-0.000233 0.000000 0
-0.000211 0.000000 0
-0.000192 0.000000 0
-0.000177 0.000000 0
-0.000164 0.000000 0
-0.000152 0.000000 0
-0.000142 0.000000 0
-0.000132 0.000000 0
-0.000124 0.000000 0
-0.000115 0.000000 0
-0.000108 0.000000 0
-0.000100 0.000000 0
-0.000093 0.000000 0
-0.000087 0.000000 0
-0.000080 0.000000 0
-0.000074 0.000000 0
-0.000068 0.000000 0
-0.000062 0.000000 0
-0.000057 0.000000 0
-0.000052 0.000000 0
-0.000047 0.000000 0
-0.000042 0.000000 0
-0.000037 0.000000 0
-0.000031 0.000000 0
-0.000025 0.000000 0
-0.000018 0.000000 0
-0.000010 0.000000 0
-0.000003 0.000000 0
0.000000 0.000000 0
0.000000 0.000000 0
0.000000 0.000000 0
0.000000 0.000000 0
0.000000 0.000000 0
-0.000022 0.000000 0
-0.000068 0.000000 0
-0.000113 0.000000 0
-0.000149 0.000000 0
-0.000173 0.000000 0
-0.000188 0.000000 0
-0.000197 0.000000 0
-0.000202 0.000000 0
-0.000206 0.000000 0
-0.000209 0.000000 0
-0.000212 0.000000 0
-0.000214 0.000000 0
-0.000216 0.000000 0
-0.000218 0.000000 0
-0.000220 0.000000 0
-0.000221 0.000000 0
-0.000223 0.000000 0
-0.000224 0.000000 0
-0.000226 0.000000 0
-0.000227 0.000000 0
-0.000228 0.000000 0
-0.000230 0.000000 0
-0.000231 0.000000 0
-0.000232 0.000000 0
-0.000233 0.000000 0
-0.000234 0.000000 0
-0.000235 0.000000 0
-0.000236 0.000000 0
-0.000236 0.000000 0
-0.000237 0.000000 0
-0.000238 0.000000 0
-0.000239 0.000000 0
-0.000240 0.000000 0
-0.000241 0.000000 0
-0.000242 0.000000 0
-0.000242 0.000000 0
-0.000243 0.000000 0
-0.000244 0.000000 0
-0.000245 0.000000 0
-0.000245 0.000000 0
-0.000244 0.000000 0
-0.000243 0.000000 0
-0.000241 0.000000 0
-0.000239 0.000000 0
-0.000237 0.000000 0
-0.000237 0.000000 0
-0.000241 0.000000 0
-0.000250 0.000000 0
-0.000266 0.000000 0
-0.000289 0.000000 0
-0.000316 0.000000 0
-0.000343 0.000000 0
-0.000359 0.000000 0
-0.000352 0.000000 0
-0.000305 0.000000 0
-0.000211 0.000000 0
-0.000087 0.000000 0
0.000000 0.000000 0
0.000000 0.000422 0
-0.000837 0.000559 0
-0.001296 0.000093 0
-0.001349 -0.000129 0
-0.001240 -0.000156 0
-0.001100 -0.000126 0
-0.000975 -0.000093 0
-0.000871 -0.000068 0
-0.000787 -0.000051 0
-0.000718 -0.000040 0
-0.000660 -0.000033 0
-0.000611 -0.000028 0
-0.000568 -0.000024 0
-0.000529 -0.000021 0
-0.000494 -0.000019 0
-0.000462 -0.000018 0
-0.000432 -0.000016 0
-0.000404 -0.000015 0
-0.000377 -0.000014 0
-0.000352 -0.000014 0
-0.000328 -0.000013 0
-0.000305 -0.000012 0
-0.000282 -0.000012 0
-0.000261 -0.000011 0
-0.000240 -0.000011 0
-0.000220 -0.000011 0
-0.000200 -0.000010 0
-0.000181 -0.000010 0
-0.000163 -0.000009 0
-0.000145 -0.000009 0
-0.000126 -0.000010 0
-0.000106 -0.000011 0
-0.000084 -0.000013 0
-0.000059 -0.000015 0
-0.000033 -0.000014 0
-0.000011 -0.000009 0
0.000000 -0.000002 0
0.000000 0.000000 0
0.000000 0.000000 0
0.000000 0.000000 0
0.000000 0.000022 0
-0.000067 0.000067 0
-0.000193 0.000090 0
-0.000324 0.000081 0
-0.000434 0.000059 0
-0.000515 0.000038 0
-0.000571 0.000023 0
-0.000609 0.000014 0
-0.000635 0.000009 0
-0.000654 0.000006 0
-0.000669 0.000005 0
-0.000681 0.000004 0
-0.000691 0.000004 0
-0.000701 0.000004 0
-0.000709 0.000003 0
-0.000717 0.000003 0
-0.000724 0.000003 0
-0.000731 0.000003 0
-0.000737 0.000002 0
-0.000742 0.000002 0
-0.000748 0.000002 0
-0.000753 0.000002 0
-0.000757 0.000002 0
-0.000762 0.000002 0
-0.000766 0.000002 0
-0.000770 0.000002 0
-0.000773 0.000001 0
-0.000777 0.000001 0
-0.000780 0.000001 0
-0.000783 0.000001 0
-0.000786 0.000001 0
-0.000789 0.000001 0
-0.000791 0.000001 0
-0.000794 0.000001 0
-0.000797 0.000001 0
-0.000800 0.000001 0
-0.000802 0.000001 0
-0.000805 0.000001 0
-0.000806 0.000001 0
-0.000807 0.000000 0
-0.000807 -0.000001 0
-0.000804 -0.000002 0
-0.000800 -0.000004 0
-0.000793 -0.000005 0
-0.000787 -0.000004 0
-0.000782 -0.000002 0
-0.000784 0.000003 0
-0.000797 0.000012 0
-0.000826 0.000025 0
-0.000873 0.000038 0
-0.000937 0.000050 0
-0.001010 0.000054 0
-0.001072 0.000043 0
-0.001097 0.000009 0
-0.001046 -0.000054 0
-0.000884 -0.000141 0
-0.000597 -0.000219 0
-0.000241 -0.000212 0
0.000000 -0.000087 0
0.000000 0.000838 0
-0.000723 0.001297 0
-0.001395 0.000512 0
-0.001688 -0.000055 0
-0.001722 -0.000247 0
-0.001639 -0.000264 0
-0.001521 -0.000229 0
-0.001401 -0.000187 0
-0.001291 -0.000152 0
-0.001194 -0.000126 0
-0.001108 -0.000106 0
-0.001033 -0.000092 0
-0.000964 -0.000081 0
-0.000903 -0.000073 0
-0.000846 -0.000066 0
-0.000793 -0.000061 0
-0.000743 -0.000057 0
-0.000696 -0.000054 0
-0.000651 -0.000051 0
-0.000609 -0.000049 0
-0.000567 -0.000047 0
-0.000528 -0.000045 0
-0.000489 -0.000043 0
-0.000452 -0.000042 0
-0.000416 -0.000040 0
-0.000381 -0.000039 0
-0.000347 -0.000037 0
-0.000314 -0.000036 0
-0.000281 -0.000036 0
-0.000248 -0.000036 0
-0.000215 -0.000038 0
-0.000179 -0.000041 0
-0.000141 -0.000046 0
-0.000099 -0.000050 0
-0.000056 -0.000048 0
-0.000019 -0.000032 0
0.000000 -0.000010 0
0.000000 0.000000 0
0.000000 0.000000 0
0.000000 0.000000 0
0.000000 0.000066 0
-0.000091 0.000192 0
-0.000259 0.000257 0
-0.000443 0.000241 0
-0.000607 0.000190 0
-0.000737 0.000136 0
-0.000836 0.000093 0
-0.000908 0.000063 0
-0.000961 0.000045 0
-0.001002 0.000033 0
-0.001034 0.000026 0
-0.001061 0.000022 0
-0.001084 0.000019 0
-0.001104 0.000017 0
-0.001123 0.000016 0
-0.001139 0.000014 0
-0.001154 0.000013 0
-0.001167 0.000012 0
-0.001180 0.000011 0
-0.001191 0.000010 0
-0.001202 0.000010 0
-0.001212 0.000009 0
-0.001221 0.000008 0
-0.001229 0.000008 0
-0.001237 0.000007 0
-0.001245 0.000007 0
-0.001252 0.000007 0
-0.001258 0.000006 0
-0.001264 0.000006 0
-0.001270 0.000005 0
-0.001275 0.000005 0
-0.001280 0.000005 0
-0.001285 0.000005 0
-0.001289 0.000005 0
-0.001294 0.000005 0
-0.001298 0.000005 0
-0.001302 0.000004 0
-0.001305 0.000004 0
-0.001307 0.000002 0
-0.001307 -0.000000 0
-0.001305 -0.000004 0
-0.001301 -0.000008 0
-0.001293 -0.000011 0
-0.001284 -0.000013 0
-0.001274 -0.000011 0
-0.001269 -0.000003 0
-0.001274 0.000014 0
-0.001294 0.000041 0
-0.001337 0.000075 0
-0.001403 0.000111 0
-0.001489 0.000136 0
-0.001579 0.000135 0
-0.001645 0.000087 0
-0.001645 -0.000027 0
-0.001531 -0.000214 0
-0.001260 -0.000450 0
-0.000830 -0.000643 0
-0.000329 -0.000598 0
0.000000 -0.000242 0
0.000000 0.001146 0
-0.000523 0.001955 0
-0.001192 0.001057 0
-0.001614 0.000198 0
-0.001784 -0.000204 0
-0.001799 -0.000327 0
-0.001739 -0.000331 0
-0.001648 -0.000298 0
-0.001551 -0.000258 0
-0.001455 -0.000222 0
-0.001366 -0.000194 0
-0.001283 -0.000171 0
-0.001206 -0.000154 0
-0.001135 -0.000140 0
-0.001067 -0.000129 0
-0.001004 -0.000120 0
-0.000944 -0.000113 0
-0.000886 -0.000107 0
-0.000831 -0.000102 0
-0.000778 -0.000097 0
-0.000727 -0.000093 0
-0.000677 -0.000090 0
-0.000628 -0.000087 0
-0.000581 -0.000085 0
-0.000535 -0.000082 0
-0.000489 -0.000079 0
-0.000445 -0.000077 0
-0.000402 -0.000075 0
-0.000359 -0.000074 0
-0.000316 -0.000075 0
-0.000272 -0.000079 0
-0.000226 -0.000085 0
-0.000176 -0.000093 0
-0.000123 -0.000099 0
-0.000070 -0.000094 0
-0.000024 -0.000065 0
0.000000 -0.000021 0
0.000000 0.000000 0
0.000000 0.000000 0
0.000000 0.000000 0
0.000000 0.000112 0
-0.000086 0.000326 0
-0.000251 0.000442 0
-0.000439 0.000428 0
-0.000616 0.000353 0
-0.000767 0.000267 0
-0.000888 0.000194 0
-0.000982 0.000140 0
-0.001056 0.000103 0
-0.001115 0.000079 0
-0.001163 0.000064 0
-0.001204 0.000054 0
-0.001239 0.000047 0
-0.001270 0.000042 0
-0.001298 0.000038 0
-0.001323 0.000034 0
-0.001346 0.000031 0
-0.001367 0.000028 0
-0.001386 0.000026 0
-0.001403 0.000024 0
-0.001419 0.000022 0
-0.001434 0.000021 0
-0.001447 0.000019 0
-0.001460 0.000018 0
-0.001471 0.000017 0
-0.001482 0.000016 0
-0.001492 0.000015 0
-0.001501 0.000014 0
-0.001510 0.000013 0
-0.001518 0.000012 0
-0.001526 0.000011 0
-0.001533 0.000011 0
-0.001539 0.000010 0
-0.001545 0.000010 0
-0.001551 0.000010 0
-0.001556 0.000009 0
-0.001561 0.000008 0
-0.001565 0.000006 0
-0.001567 0.000003 0
-0.001568 -0.000002 0
-0.001566 -0.000008 0
-0.001561 -0.000015 0
-0.001553 -0.000021 0
-0.001543 -0.000024 0
-0.001534 -0.000019 0
-0.001529 -0.000003 0
-0.001535 0.000028 0
-0.001557 0.000075 0
-0.001602 0.000133 0
-0.001671 0.000190 0
-0.001757 0.000226 0
-0.001841 0.000210 0
-0.001893 0.000109 0
-0.001865 -0.000106 0
-0.001708 -0.000440 0
-0.001383 -0.000842 0
-0.000896 -0.001151 0
-0.000348 -0.001043 0
0.000000 -0.000416 0
0.000000 0.001362 0
-0.000369 0.002490 0
-0.000958 0.001603 0
-0.001409 0.000538 0
-0.001654 -0.000061 0
-0.001744 -0.000310 0
-0.001742 -0.000380 0
-0.001694 -0.000375 0
-0.001624 -0.000345 0
-0.001546 -0.000310 0
-0.001467 -0.000278 0
-0.001390 -0.000251 0
-0.001316 -0.000229 0
-0.001245 -0.000211 0
-0.001177 -0.000197 0
-0.001112 -0.000185 0
-0.001049 -0.000175 0
-0.000988 -0.000166 0
-0.000928 -0.000159 0
-0.000871 -0.000153 0
-0.000815 -0.000148 0
-0.000760 -0.000143 0
-0.000706 -0.000139 0
-0.000654 -0.000135 0
-0.000602 -0.000131 0
-0.000551 -0.000128 0
-0.000501 -0.000125 0
-0.000452 -0.000122 0
-0.000403 -0.000121 0
-0.000354 -0.000123 0
-0.000303 -0.000128 0
-0.000251 -0.000137 0
-0.000195 -0.000148 0
-0.000136 -0.000156 0
-0.000077 -0.000147 0
-0.000026 -0.000102 0
0.000000 -0.000034 0
0.000000 0.000000 0
0.000000 0.000000 0
0.000000 0.000000 0
0.000000 0.000151 0
-0.000066 0.000442 0
-0.000203 0.000611 0
-0.000368 0.000606 0
-0.000531 0.000518 0
-0.000677 0.000407 0
-0.000801 0.000308 0
-0.000904 0.000231 0
-0.000987 0.000177 0
-0.001057 0.000140 0
-0.001116 0.000115 0
-0.001167 0.000098 0
-0.001213 0.000085 0
-0.001253 0.000076 0
-0.001290 0.000068 0
-0.001323 0.000062 0
-0.001354 0.000057 0
-0.001382 0.000052 0
-0.001407 0.000047 0
-0.001431 0.000043 0
-0.001452 0.000040 0
-0.001471 0.000037 0
-0.001489 0.000034 0
-0.001506 0.000032 0
-0.001521 0.000030 0
-0.001535 0.000028 0
-0.001548 0.000026 0
-0.001561 0.000024 0
-0.001572 0.000022 0
-0.001583 0.000021 0
-0.001593 0.000019 0
-0.001602 0.000018 0
-0.001610 0.000017 0
-0.001618 0.000017 0
-0.001626 0.000016 0
-0.001633 0.000015 0
-0.001639 0.000013 0
-0.001644 0.000010 0
-0.001648 0.000005 0
-0.001651 -0.000002 0
-0.001650 -0.000011 0
-0.001647 -0.000021 0
-0.001642 -0.000029 0
-0.001634 -0.000033 0
-0.001627 -0.000026 0
-0.001624 -0.000002 0
-0.001631 0.000043 0
-0.001653 0.000109 0
-0.001694 0.000189 0
-0.001757 0.000265 0
-0.001834 0.000306 0
-0.001907 0.000270 0
-0.001943 0.000111 0
-0.001898 -0.000211 0
-0.001722 -0.000696 0
-0.001380 -0.001262 0
-0.000885 -0.001678 0
-0.000339 -0.001494 0
0.000000 -0.000590 0
0.000000 0.001516 0
-0.000264 0.002914 0
-0.000759 0.002097 0
-0.001186 0.000895 0
-0.001454 0.000132 0
-0.001585 -0.000238 0
-0.001624 -0.000382 0
-0.001610 -0.000416 0
-0.001568 -0.000405 0
-0.001513 -0.000378 0
-0.001451 -0.000349 0
-0.001387 -0.000322 0
-0.001323 -0.000299 0
-0.001259 -0.000279 0
-0.001196 -0.000262 0
-0.001135 -0.000248 0
-0.001074 -0.000237 0
-0.001015 -0.000227 0
-0.000957 -0.000218 0
-0.000900 -0.000211 0
-0.000843 -0.000204 0
-0.000788 -0.000198 0
-0.000733 -0.000193 0
-0.000679 -0.000189 0
-0.000626 -0.000184 0
-0.000573 -0.000180 0
-0.000521 -0.000176 0
-0.000470 -0.000173 0
-0.000418 -0.000172 0
-0.000366 -0.000175 0
-0.000313 -0.000181 0
-0.000258 -0.000193 0
-0.000200 -0.000207 0
-0.000139 -0.000216 0
-0.000079 -0.000203 0
-0.000027 -0.000142 0
0.000000 -0.000047 0
0.000000 0.000000 0
0.000000 0.000000 0
0.000000 0.000000 0
0.000000 0.000178 0
-0.000043 0.000529 0
-0.000140 0.000743 0
-0.000264 0.000755 0
-0.000396 0.000663 0
-0.000520 0.000537 0
-0.000632 0.000420 0
-0.000729 0.000326 0
-0.000812 0.000256 0
-0.000885 0.000208 0
-0.000949 0.000174 0
-0.001006 0.000150 0
-0.001058 0.000133 0
-0.001106 0.000119 0
-0.001150 0.000108 0
-0.001190 0.000098 0
-0.001228 0.000089 0
-0.001263 0.000082 0
-0.001294 0.000075 0
-0.001323 0.000068 0
-0.001350 0.000063 0
-0.001374 0.000058 0
-0.001396 0.000053 0
-0.001417 0.000049 0
-0.001436 0.000046 0
-0.001453 0.000043 0
-0.001469 0.000040 0
-0.001485 0.000037 0
-0.001499 0.000035 0
-0.001513 0.000032 0
-0.001525 0.000030 0
-0.001537 0.000028 0
-0.001549 0.000027 0
-0.001559 0.000025 0
-0.001569 0.000024 0
-0.001578 0.000022 0
-0.001587 0.000019 0
-0.001595 0.000015 0
-0.001602 0.000009 0
-0.001608 0.000000 0
-0.001612 -0.000011 0
-0.001613 -0.000023 0
-0.001612 -0.000034 0
-0.001610 -0.000038 0
-0.001607 -0.000029 0
-0.001608 0.000000 0
-0.001615 0.000056 0
-0.001635 0.000138 0
-0.001672 0.000238 0
-0.001726 0.000330 0
-0.001792 0.000375 0
-0.001852 0.000318 0
-0.001877 0.000099 0
-0.001823 -0.000327 0
-0.001646 -0.000957 0
-0.001314 -0.001678 0
-0.000838 -0.002192 0
-0.000319 -0.001928 0
0.000000 -0.000755 0
0.000000 0.001627 0
-0.000192 0.003250 0
-0.000603 0.002526 0
-0.000986 0.001233 0
-0.001246 0.000337 0
-0.001388 -0.000140 0
-0.001447 -0.000354 0
-0.001455 -0.000430 0
-0.001435 -0.000442 0
-0.001399 -0.000427 0
-0.001354 -0.000403 0
-0.001305 -0.000379 0
-0.001254 -0.000357 0
-0.001201 -0.000337 0
-0.001147 -0.000321 0
-0.001093 -0.000306 0
-0.001039 -0.000294 0
-0.000985 -0.000283 0
-0.000931 -0.000274 0
-0.000878 -0.000266 0
-0.000824 -0.000259 0
-0.000771 -0.000253 0
-0.000719 -0.000247 0
-0.000667 -0.000242 0
-0.000615 -0.000237 0
-0.000563 -0.000232 0
-0.000512 -0.000228 0
-0.000461 -0.000225 0
-0.000410 -0.000224 0
-0.000359 -0.000227 0
-0.000306 -0.000236 0
-0.000251 -0.000250 0
-0.000194 -0.000267 0
-0.000134 -0.000277 0
-0.000076 -0.000259 0
-0.000025 -0.000181 0
0.000000 -0.000061 0
0.000000 0.000000 0
0.000000 0.000000 0
0.000000 0.000000 0
0.000000 0.000194 0
-0.000020 0.000582 0
-0.000075 0.000832 0
-0.000153 0.000862 0
-0.000243 0.000774 0
-0.000335 0.000644 0
-0.000423 0.000516 0
-0.000504 0.000411 0
-0.000577 0.000333 0
-0.000645 0.000276 0
-0.000707 0.000236 0
-0.000765 0.000207 0
-0.000820 0.000185 0
-0.000872 0.000168 0
-0.000921 0.000153 0
-0.000968 0.000140 0
-0.001011 0.000128 0
-0.001052 0.000118 0
-0.001090 0.000108 0
-0.001124 0.000099 0
-0.001156 0.000091 0
-0.001185 0.000083 0
-0.001212 0.000077 0
-0.001236 0.000071 0
-0.001258 0.000066 0
-0.001279 0.000061 0
-0.001299 0.000057 0
-0.001317 0.000053 0
-0.001334 0.000050 0
-0.001351 0.000047 0
-0.001367 0.000044 0
-0.001382 0.000041 0
-0.001397 0.000039 0
-0.001410 0.000037 0
-0.001424 0.000035 0
-0.001436 0.000032 0
-0.001448 0.000029 0
-0.001460 0.000025 0
-0.001471 0.000017 0
-0.001482 0.000007 0
-0.001491 -0.000006 0
-0.001499 -0.000020 0
-0.001505 -0.000033 0
-0.001509 -0.000038 0
-0.001513 -0.000028 0
-0.001518 0.000006 0
-0.001527 0.000070 0
-0.001546 0.000165 0
-0.001577 0.000279 0
-0.001622 0.000385 0
-0.001676 0.000432 0
-0.001725 0.000355 0
-0.001741 0.000081 0
-0.001687 -0.000442 0
-0.001521 -0.001206 0
-0.001213 -0.002070 0
-0.000773 -0.002673 0
-0.000294 -0.002332 0
0.000000 -0.000909 0
0.000000 0.001708 0
-0.000141 0.003517 0
-0.000482 0.002891 0
-0.000817 0.001538 0
-0.001054 0.000534 0
-0.001191 -0.000036 0
-0.001254 -0.000314 0
-0.001271 -0.000428 0
-0.001263 -0.000461 0
-0.001241 -0.000459 0
-0.001211 -0.000442 0
-0.001175 -0.000422 0
-0.001136 -0.000403 0
-0.001095 -0.000385 0
-0.001051 -0.000370 0
-0.001006 -0.000356 0
-0.000960 -0.000344 0
-0.000913 -0.000334 0
-0.000866 -0.000325 0
-0.000818 -0.000317 0
-0.000770 -0.000310 0
-0.000722 -0.000304 0
-0.000674 -0.000298 0
-0.000625 -0.000292 0
-0.000577 -0.000287 0
-0.000529 -0.000282 0
-0.000481 -0.000278 0
-0.000433 -0.000275 0
-0.000384 -0.000274 0
-0.000336 -0.000278 0
-0.000286 -0.000288 0
-0.000234 -0.000305 0
-0.000180 -0.000324 0
-0.000124 -0.000335 0
-0.000069 -0.000312 0
-0.000023 -0.000217 0
0.000000 -0.000073 0
0.000000 0.000000 0
0.000000 0.000000 0
0.000000 0.000000 0
0.000000 0.000198 0
-0.000001 0.000603 0
-0.000016 0.000875 0
-0.000048 0.000923 0
-0.000093 0.000844 0
-0.000147 0.000717 0
-0.000205 0.000589 0
-0.000263 0.000480 0
-0.000320 0.000397 0
-0.000375 0.000337 0
-0.000430 0.000294 0
-0.000484 0.000263 0
-0.000538 0.000239 0
-0.000590 0.000220 0
-0.000642 0.000203 0
-0.000692 0.000188 0
-0.000740 0.000173 0
-0.000786 0.000160 0
-0.000830 0.000147 0
-0.000870 0.000135 0
-0.000907 0.000124 0
-0.000941 0.000113 0
-0.000972 0.000104 0
-0.001000 0.000096 0
-0.001026 0.000089 0
-0.001050 0.000083 0
-0.001072 0.000078 0
-0.001093 0.000073 0
-0.001114 0.000069 0
-0.001134 0.000065 0
-0.001153 0.000061 0
-0.001171 0.000058 0
-0.001189 0.000055 0
-0.001207 0.000052 0
-0.001224 0.000049 0
-0.001240 0.000047 0
-0.001257 0.000043 0
-0.001273 0.000038 0
-0.001289 0.000031 0
-0.001305 0.000020 0
-0.001320 0.000006 0
-0.001335 -0.000010 0
-0.001349 -0.000024 0
-0.001361 -0.000031 0
-0.001372 -0.000021 0
-0.001382 0.000015 0
-0.001395 0.000084 0
-0.001413 0.000188 0
-0.001439 0.000314 0
-0.001476 0.000429 0
-0.001518 0.000478 0
-0.001556 0.000383 0
-0.001567 0.000061 0
-0.001517 -0.000548 0
-0.001369 -0.001432 0
-0.001094 -0.002425 0
-0.000700 -0.003111 0
-0.000267 -0.002701 0
0.000000 -0.001049 0
0.000000 0.001769 0
-0.000106 0.003732 0
-0.000389 0.003201 0
-0.000679 0.001805 0
-0.000888 0.000711 0
-0.001010 0.000060 0
-0.001067 -0.000273 0
-0.001085 -0.000420 0
-0.001082 -0.000472 0
-0.001067 -0.000479 0
-0.001046 -0.000469 0
-0.001021 -0.000453 0
-0.000993 -0.000437 0
-0.000961 -0.000422 0
-0.000928 -0.000409 0
-0.000892 -0.000397 0
-0.000854 -0.000387 0
-0.000815 -0.000377 0
-0.000775 -0.000369 0
-0.000734 -0.000362 0
-0.000693 -0.000355 0
-0.000650 -0.000349 0
-0.000607 -0.000344 0
-0.000564 -0.000338 0
-0.000521 -0.000333 0
-0.000477 -0.000328 0
-0.000434 -0.000324 0
-0.000390 -0.000321 0
-0.000346 -0.000321 0
-0.000302 -0.000326 0
-0.000256 -0.000337 0
-0.000209 -0.000356 0
-0.000160 -0.000377 0
-0.000109 -0.000387 0
-0.000060 -0.000360 0
-0.000020 -0.000249 0
0.000000 -0.000083 0
0.000000 0.000000 0
0.000000 0.000000 0
0.000000 0.000000 0
0.000000 0.000195 0
0.000013 0.000597 0
0.000032 0.000878 0
0.000042 0.000938 0
0.000040 0.000873 0
0.000026 0.000755 0
0.000001 0.000632 0
-0.000030 0.000526 0
-0.000066 0.000445 0
-0.000106 0.000386 0
-0.000148 0.000345 0
-0.000194 0.000314 0
-0.000241 0.000291 0
-0.000291 0.000272 0
-0.000341 0.000254 0
-0.000392 0.000238 0
-0.000443 0.000223 0
-0.000494 0.000207 0
-0.000542 0.000192 0
-0.000588 0.000176 0
-0.000631 0.000162 0
-0.000671 0.000148 0
-0.000707 0.000135 0
-0.000739 0.000124 0
-0.000768 0.000115 0
-0.000795 0.000107 0
-0.000819 0.000101 0
-0.000843 0.000095 0
-0.000866 0.000090 0
-0.000888 0.000086 0
-0.000911 0.000082 0
-0.000932 0.000078 0
-0.000954 0.000074 0
-0.000975 0.000071 0
-0.000996 0.000068 0
-0.001017 0.000065 0
-0.001038 0.000061 0
-0.001058 0.000056 0
-0.001079 0.000049 0
-0.001100 0.000038 0
-0.001122 0.000024 0
-0.001144 0.000008 0
-0.001165 -0.000007 0
-0.001185 -0.000015 0
-0.001204 -0.000006 0
-0.001221 0.000029 0
-0.001238 0.000100 0
-0.001256 0.000209 0
-0.001278 0.000342 0
-0.001306 0.000463 0
-0.001338 0.000513 0
-0.001367 0.000403 0
-0.001373 0.000042 0
-0.001330 -0.000641 0
-0.001204 -0.001628 0
-0.000969 -0.002738 0
-0.000624 -0.003501 0
-0.000240 -0.003033 0
0.000000 -0.001175 0
0.000000 0.001814 0
-0.000080 0.003907 0
-0.000316 0.003465 0
-0.000567 0.002038 0
-0.000749 0.000866 0
-0.000853 0.000143 0
-0.000900 -0.000239 0
-0.000912 -0.000414 0
-0.000908 -0.000479 0
-0.000896 -0.000494 0
-0.000880 -0.000488 0
-0.000862 -0.000475 0
-0.000842 -0.000462 0
-0.000819 -0.000450 0
-0.000794 -0.000439 0
-0.000766 -0.000429 0
-0.000736 -0.000421 0
-0.000705 -0.000413 0
-0.000672 -0.000406 0
-0.000637 -0.000400 0
-0.000602 -0.000394 0
-0.000566 -0.000389 0
-0.000529 -0.000384 0
-0.000492 -0.000379 0
-0.000454 -0.000374 0
-0.000416 -0.000369 0
-0.000378 -0.000365 0
-0.000339 -0.000362 0
-0.000300 -0.000362 0
-0.000261 -0.000368 0
-0.000221 -0.000381 0
-0.000180 -0.000401 0
-0.000137 -0.000424 0
-0.000093 -0.000434 0
-0.000050 -0.000401 0
-0.000016 -0.000277 0
0.000000 -0.000092 0
0.000000 0.000000 0
0.000000 0.000000 0
0.000000 0.000000 0
0.000000 0.000185 0
0.000024 0.000571 0
0.000068 0.000846 0
0.000114 0.000914 0