# vtk DataFile Version 2.0
generated by CFD-lab course output (written by Tobias Neckel) 
ASCII

DATASET STRUCTURED_GRID
DIMENSIONS  99 49 1 
POINTS 4851 float

0.000000 0.000000 0
0.020000 0.000000 0
0.040000 0.000000 0
0.060000 0.000000 0
0.080000 0.000000 0
0.100000 0.000000 0
0.120000 0.000000 0
0.140000 0.000000 0
0.160000 0.000000 0
0.180000 0.000000 0
0.200000 0.000000 0
0.220000 0.000000 0
0.240000 0.000000 0
0.260000 0.000000 0
0.280000 0.000000 0
0.300000 0.000000 0
0.320000 0.000000 0
0.340000 0.000000 0
0.360000 0.000000 0
0.380000 0.000000 0
0.400000 0.000000 0
0.420000 0.000000 0
0.440000 0.000000 0
0.460000 0.000000 0
0.480000 0.000000 0
0.500000 0.000000 0
0.520000 0.000000 0
0.540000 0.000000 0
0.560000 0.000000 0
0.580000 0.000000 0
0.600000 0.000000 0
0.620000 0.000000 0
0.640000 0.000000 0
0.660000 0.000000 0
0.680000 0.000000 0
0.700000 0.000000 0
0.720000 0.000000 0
0.740000 0.000000 0
0.760000 0.000000 0
0.780000 0.000000 0
0.800000 0.000000 0
0.820000 0.000000 0
0.840000 0.000000 0
0.860000 0.000000 0
0.880000 0.000000 0
0.900000 0.000000 0
0.920000 0.000000 0
0.940000 0.000000 0
0.960000 0.000000 0
0.980000 0.000000 0
1.000000 0.000000 0
1.020000 0.000000 0
1.040000 0.000000 0
1.060000 0.000000 0
1.080000 0.000000 0
1.100000 0.000000 0
1.120000 0.000000 0
1.140000 0.000000 0
1.160000 0.000000 0
1.180000 0.000000 0
1.200000 0.000000 0
1.220000 0.000000 0
1.240000 0.000000 0
1.260000 0.000000 0
1.280000 0.000000 0
1.300000 0.000000 0
1.320000 0.000000 0
1.340000 0.000000 0
1.360000 0.000000 0
1.380000 0.000000 0
1.400000 0.000000 0
1.420000 0.000000 0
1.440000 0.000000 0
1.460000 0.000000 0
1.480000 0.000000 0
1.500000 0.000000 0
1.520000 0.000000 0
1.540000 0.000000 0
1.560000 0.000000 0
1.580000 0.000000 0
1.600000 0.000000 0
1.620000 0.000000 0
1.640000 0.000000 0
1.660000 0.000000 0
1.680000 0.000000 0
1.700000 0.000000 0
1.720000 0.000000 0
1.740000 0.000000 0
1.760000 0.000000 0
1.780000 0.000000 0
1.800000 0.000000 0
1.820000 0.000000 0
1.840000 0.000000 0
1.860000 0.000000 0
1.880000 0.000000 0
1.900000 0.000000 0
1.920000 0.000000 0
1.940000 0.000000 0
1.960000 0.000000 0
0.000000 0.020000 0
0.020000 0.020000 0
0.040000 0.020000 0
0.060000 0.020000 0
0.080000 0.020000 0
0.100000 0.020000 0
0.120000 0.020000 0
0.140000 0.020000 0
0.160000 0.020000 0
0.180000 0.020000 0
0.200000 0.020000 0
0.220000 0.020000 0
0.240000 0.020000 0
0.260000 0.020000 0
0.280000 0.020000 0
0.300000 0.020000 0
0.320000 0.020000 0
0.340000 0.020000 0
0.360000 0.020000 0
0.380000 0.020000 0
0.400000 0.020000 0
0.420000 0.020000 0
0.440000 0.020000 0
0.460000 0.020000 0
0.480000 0.020000 0
0.500000 0.020000 0
0.520000 0.020000 0
0.540000 0.020000 0
0.560000 0.020000 0
0.580000 0.020000 0
0.600000 0.020000 0
0.620000 0.020000 0
0.640000 0.020000 0
0.660000 0.020000 0
0.680000 0.020000 0
0.700000 0.020000 0
0.720000 0.020000 0
0.740000 0.020000 0
0.760000 0.020000 0
0.780000 0.020000 0
0.800000 0.020000 0
0.820000 0.020000 0
0.840000 0.020000 0
0.860000 0.020000 0
0.880000 0.020000 0
0.900000 0.020000 0
0.920000 0.020000 0
0.940000 0.020000 0
0.960000 0.020000 0
0.980000 0.020000 0
1.000000 0.020000 0
1.020000 0.020000 0
1.040000 0.020000 0
1.060000 0.020000 0
1.080000 0.020000 0
1.100000 0.020000 0
1.120000 0.020000 0
1.140000 0.020000 0
1.160000 0.020000 0
1.180000 0.020000 0
1.200000 0.020000 0
1.220000 0.020000 0
1.240000 0.020000 0
1.260000 0.020000 0
1.280000 0.020000 0
1.300000 0.020000 0
1.320000 0.020000 0
1.340000 0.020000 0
1.360000 0.020000 0
1.380000 0.020000 0
1.400000 0.020000 0
1.420000 0.020000 0
1.440000 0.020000 0
1.460000 0.020000 0
1.480000 0.020000 0
1.500000 0.020000 0
1.520000 0.020000 0
1.540000 0.020000 0
1.560000 0.020000 0
1.580000 0.020000 0
1.600000 0.020000 0
1.620000 0.020000 0
1.640000 0.020000 0
1.660000 0.020000 0
1.680000 0.020000 0
1.700000 0.020000 0
1.720000 0.020000 0
1.740000 0.020000 0
1.760000 0.020000 0
1.780000 0.020000 0
1.800000 0.020000 0
1.820000 0.020000 0
1.840000 0.020000 0
1.860000 0.020000 0
1.880000 0.020000 0
1.900000 0.020000 0
1.920000 0.020000 0
1.940000 0.020000 0
1.960000 0.020000 0
0.000000 0.040000 0
0.020000 0.040000 0
0.040000 0.040000 0
0.060000 0.040000 0
0.080000 0.040000 0
0.100000 0.040000 0
0.120000 0.040000 0
0.140000 0.040000 0
0.160000 0.040000 0
0.180000 0.040000 0
0.200000 0.040000 0
0.220000 0.040000 0
0.240000 0.040000 0
0.260000 0.040000 0
0.280000 0.040000 0
0.300000 0.040000 0
0.320000 0.040000 0
0.340000 0.040000 0
0.360000 0.040000 0
0.380000 0.040000 0
0.400000 0.040000 0
0.420000 0.040000 0
0.440000 0.040000 0
0.460000 0.040000 0
0.480000 0.040000 0
0.500000 0.040000 0
0.520000 0.040000 0
0.540000 0.040000 0
0.560000 0.040000 0
0.580000 0.040000 0
0.600000 0.040000 0
0.620000 0.040000 0
0.640000 0.040000 0
0.660000 0.040000 0
0.680000 0.040000 0
0.700000 0.040000 0
0.720000 0.040000 0
0.740000 0.040000 0
0.760000 0.040000 0
0.780000 0.040000 0
0.800000 0.040000 0
0.820000 0.040000 0
0.840000 0.040000 0
0.860000 0.040000 0
0.880000 0.040000 0
0.900000 0.040000 0
0.920000 0.040000 0
0.940000 0.040000 0
0.960000 0.040000 0
0.980000 0.040000 0
1.000000 0.040000 0
1.020000 0.040000 0
1.040000 0.040000 0
1.060000 0.040000 0
1.080000 0.040000 0
1.100000 0.040000 0
1.120000 0.040000 0
1.140000 0.040000 0
1.160000 0.040000 0
1.180000 0.040000 0
1.200000 0.040000 0
1.220000 0.040000 0
1.240000 0.040000 0
1.260000 0.040000 0
1.280000 0.040000 0
1.300000 0.040000 0
1.320000 0.040000 0
1.340000 0.040000 0
1.360000 0.040000 0
1.380000 0.040000 0
1.400000 0.040000 0
1.420000 0.040000 0
1.440000 0.040000 0
1.460000 0.040000 0
1.480000 0.040000 0
1.500000 0.040000 0
1.520000 0.040000 0
1.540000 0.040000 0
1.560000 0.040000 0
1.580000 0.040000 0
1.600000 0.040000 0
1.620000 0.040000 0
1.640000 0.040000 0
1.660000 0.040000 0
1.680000 0.040000 0
1.700000 0.040000 0
1.720000 0.040000 0
1.740000 0.040000 0
1.760000 0.040000 0
1.780000 0.040000 0
1.800000 0.040000 0
1.820000 0.040000 0
1.840000 0.040000 0
1.860000 0.040000 0
1.880000 0.040000 0
1.900000 0.040000 0
1.920000 0.040000 0
1.940000 0.040000 0
1.960000 0.040000 0
0.000000 0.060000 0
0.020000 0.060000 0
0.040000 0.060000 0
0.060000 0.060000 0
0.080000 0.060000 0
0.100000 0.060000 0
0.120000 0.060000 0
0.140000 0.060000 0
0.160000 0.060000 0
0.180000 0.060000 0
0.200000 0.060000 0
0.220000 0.060000 0
0.240000 0.060000 0
0.260000 0.060000 0
0.280000 0.060000 0
0.300000 0.060000 0
0.320000 0.060000 0
0.340000 0.060000 0
0.360000 0.060000 0
0.380000 0.060000 0
0.400000 0.060000 0
0.420000 0.060000 0
0.440000 0.060000 0
0.460000 0.060000 0
0.480000 0.060000 0
0.500000 0.060000 0
0.520000 0.060000 0
0.540000 0.060000 0
0.560000 0.060000 0
0.580000 0.060000 0
0.600000 0.060000 0
0.620000 0.060000 0
0.640000 0.060000 0
0.660000 0.060000 0
0.680000 0.060000 0
0.700000 0.060000 0
0.720000 0.060000 0
0.740000 0.060000 0
0.760000 0.060000 0
0.780000 0.060000 0
0.800000 0.060000 0
0.820000 0.060000 0
0.840000 0.060000 0
0.860000 0.060000 0
0.880000 0.060000 0
0.900000 0.060000 0
0.920000 0.060000 0
0.940000 0.060000 0
0.960000 0.060000 0
0.980000 0.060000 0
1.000000 0.060000 0
1.020000 0.060000 0
1.040000 0.060000 0
1.060000 0.060000 0
1.080000 0.060000 0
1.100000 0.060000 0
1.120000 0.060000 0
1.140000 0.060000 0
1.160000 0.060000 0
1.180000 0.060000 0
1.200000 0.060000 0
1.220000 0.060000 0
1.240000 0.060000 0
1.260000 0.060000 0
1.280000 0.060000 0
1.300000 0.060000 0
1.320000 0.060000 0
1.340000 0.060000 0
1.360000 0.060000 0
1.380000 0.060000 0
1.400000 0.060000 0
1.420000 0.060000 0
1.440000 0.060000 0
1.460000 0.060000 0
1.480000 0.060000 0
1.500000 0.060000 0
1.520000 0.060000 0
1.540000 0.060000 0
1.560000 0.060000 0
1.580000 0.060000 0
1.600000 0.060000 0
1.620000 0.060000 0
1.640000 0.060000 0
1.660000 0.060000 0
1.680000 0.060000 0
1.700000 0.060000 0
1.720000 0.060000 0
1.740000 0.060000 0
1.760000 0.060000 0
1.780000 0.060000 0
1.800000 0.060000 0
1.820000 0.060000 0
1.840000 0.060000 0
1.860000 0.060000 0
1.880000 0.060000 0
1.900000 0.060000 0
1.920000 0.060000 0
1.940000 0.060000 0
1.960000 0.060000 0
0.000000 0.080000 0
0.020000 0.080000 0
0.040000 0.080000 0
0.060000 0.080000 0
0.080000 0.080000 0
0.100000 0.080000 0
0.120000 0.080000 0
0.140000 0.080000 0
0.160000 0.080000 0
0.180000 0.080000 0
0.200000 0.080000 0
0.220000 0.080000 0
0.240000 0.080000 0
0.260000 0.080000 0
0.280000 0.080000 0
0.300000 0.080000 0
0.320000 0.080000 0
0.340000 0.080000 0
0.360000 0.080000 0
0.380000 0.080000 0
0.400000 0.080000 0
0.420000 0.080000 0
0.440000 0.080000 0
0.460000 0.080000 0
0.480000 0.080000 0
0.500000 0.080000 0
0.520000 0.080000 0
0.540000 0.080000 0
0.560000 0.080000 0
0.580000 0.080000 0
0.600000 0.080000 0
0.620000 0.080000 0
0.640000 0.080000 0
0.660000 0.080000 0
0.680000 0.080000 0
0.700000 0.080000 0
0.720000 0.080000 0
0.740000 0.080000 0
0.760000 0.080000 0
0.780000 0.080000 0
0.800000 0.080000 0
0.820000 0.080000 0
0.840000 0.080000 0
0.860000 0.080000 0
0.880000 0.080000 0
0.900000 0.080000 0
0.920000 0.080000 0
0.940000 0.080000 0
0.960000 0.080000 0
0.980000 0.080000 0
1.000000 0.080000 0
1.020000 0.080000 0
1.040000 0.080000 0
1.060000 0.080000 0
1.080000 0.080000 0
1.100000 0.080000 0
1.120000 0.080000 0
1.140000 0.080000 0
1.160000 0.080000 0
1.180000 0.080000 0
1.200000 0.080000 0
1.220000 0.080000 0
1.240000 0.080000 0
1.260000 0.080000 0
1.280000 0.080000 0
1.300000 0.080000 0
1.320000 0.080000 0
1.340000 0.080000 0
1.360000 0.080000 0
1.380000 0.080000 0
1.400000 0.080000 0
1.420000 0.080000 0
1.440000 0.080000 0
1.460000 0.080000 0
1.480000 0.080000 0
1.500000 0.080000 0
1.520000 0.080000 0
1.540000 0.080000 0
1.560000 0.080000 0
1.580000 0.080000 0
1.600000 0.080000 0
1.620000 0.080000 0
1.640000 0.080000 0
1.660000 0.080000 0
1.680000 0.080000 0
1.700000 0.080000 0
1.720000 0.080000 0
1.740000 0.080000 0
1.760000 0.080000 0
1.780000 0.080000 0
1.800000 0.080000 0
1.820000 0.080000 0
1.840000 0.080000 0
1.860000 0.080000 0
1.880000 0.080000 0
[...]
POINT_DATA 4851 

VECTORS velocity float
0.000000 0.000000 0
-0.000423 0.000000 0
-0.000560 0.000000 0
-0.000514 0.000000 0
-0.000430 0.000000 0
-0.000357 0.000000 0
-0.000303 0.000000 0
-0.000263 0.000000 0
-0.000234 0.000000 0
-0.000211 0.000000 0
-0.000193 0.000000 0
-0.000178 0.000000 0
-0.000164 0.000000 0
-0.000153 0.000000 0
-0.000142 0.000000 0
-0.000133 0.000000 0
-0.000124 0.000000 0
-0.000116 0.000000 0
-0.000108 0.000000 0
-0.000100 0.000000 0
-0.000093 0.000000 0
-0.000087 0.000000 0
-0.000080 0.000000 0
-0.000074 0.000000 0
-0.000068 0.000000 0
-0.000063 0.000000 0
-0.000057 0.000000 0
-0.000052 0.000000 0
-0.000047 0.000000 0
-0.000042 0.000000 0
-0.000037 0.000000 0
-0.000031 0.000000 0
-0.000025 0.000000 0
-0.000018 0.000000 0
-0.000010 0.000000 0
-0.000003 0.000000 0
0.000000 0.000000 0
0.000000 0.000000 0
0.000000 0.000000 0
0.000000 0.000000 0
0.000000 0.000000 0
-0.000023 0.000000 0
-0.000069 0.000000 0
-0.000115 0.000000 0
-0.000150 0.000000 0
-0.000174 0.000000 0
-0.000189 0.000000 0
-0.000198 0.000000 0
-0.000204 0.000000 0
-0.000208 0.000000 0
-0.000211 0.000000 0
-0.000213 0.000000 0
-0.000216 0.000000 0
-0.000218 0.000000 0
-0.000220 0.000000 0
-0.000222 0.000000 0
-0.000223 0.000000 0
-0.000225 0.000000 0
-0.000226 0.000000 0
-0.000228 0.000000 0
-0.000229 0.000000 0
-0.000230 0.000000 0
-0.000231 0.000000 0
-0.000232 0.000000 0
-0.000233 0.000000 0
-0.000234 0.000000 0
-0.000235 0.000000 0
-0.000236 0.000000 0
-0.000237 0.000000 0
-0.000238 0.000000 0
-0.000239 0.000000 0
-0.000240 0.000000 0
-0.000241 0.000000 0
-0.000241 0.000000 0
-0.000242 0.000000 0
-0.000243 0.000000 0
-0.000244 0.000000 0
-0.000245 0.000000 0
-0.000246 0.000000 0
-0.000246 0.000000 0
-0.000246 0.000000 0
-0.000246 0.000000 0
-0.000245 0.000000 0
-0.000243 0.000000 0
-0.000240 0.000000 0
-0.000239 0.000000 0
-0.000239 0.000000 0
-0.000242 0.000000 0
-0.000251 0.000000 0
-0.000267 0.000000 0
-0.000290 0.000000 0
-0.000318 0.000000 0
-0.000345 0.000000 0
-0.000362 0.000000 0
-0.000355 0.000000 0
-0.000308 0.000000 0
-0.000214 0.000000 0
-0.000088 0.000000 0
0.000000 0.000000 0
0.000000 0.000423 0
-0.000841 0.000561 0
-0.001300 0.000092 0
-0.001353 -0.000129 0
-0.001243 -0.000156 0
-0.001104 -0.000127 0
-0.000977 -0.000093 0
-0.000873 -0.000068 0
-0.000789 -0.000051 0
-0.000720 -0.000040 0
-0.000662 -0.000033 0
-0.000612 -0.000028 0
-0.000569 -0.000024 0
-0.000530 -0.000021 0
-0.000495 -0.000019 0
-0.000463 -0.000018 0
-0.000433 -0.000016 0
-0.000405 -0.000015 0
-0.000378 -0.000014 0
-0.000353 -0.000014 0
-0.000328 -0.000013 0
-0.000305 -0.000012 0
-0.000283 -0.000012 0
-0.000261 -0.000011 0
-0.000240 -0.000011 0
-0.000220 -0.000011 0
-0.000201 -0.000010 0
-0.000182 -0.000010 0
-0.000164 -0.000009 0
-0.000145 -0.000009 0
-0.000127 -0.000010 0
-0.000107 -0.000011 0
-0.000084 -0.000013 0
-0.000059 -0.000015 0
-0.000033 -0.000014 0
-0.000011 -0.000009 0
0.000000 -0.000002 0
0.000000 0.000000 0
0.000000 0.000000 0
0.000000 0.000000 0
0.000000 0.000022 0
-0.000068 0.000068 0
-0.000195 0.000091 0
-0.000328 0.000081 0
-0.000439 0.000059 0
-0.000520 0.000038 0
-0.000576 0.000023 0
-0.000614 0.000014 0
-0.000640 0.000009 0
-0.000659 0.000006 0
-0.000674 0.000005 0
-0.000686 0.000004 0
-0.000697 0.000004 0
-0.000706 0.000004 0
-0.000715 0.000003 0
-0.000722 0.000003 0
-0.000730 0.000003 0
-0.000736 0.000003 0
-0.000742 0.000002 0
-0.000748 0.000002 0
-0.000753 0.000002 0
-0.000758 0.000002 0
-0.000763 0.000002 0
-0.000767 0.000002 0
-0.000771 0.000002 0
-0.000775 0.000002 0
-0.000779 0.000001 0
-0.000782 0.000001 0
-0.000785 0.000001 0
-0.000788 0.000001 0
-0.000791 0.000001 0
-0.000794 0.000001 0
-0.000797 0.000001 0
-0.000800 0.000001 0
-0.000802 0.000001 0
-0.000805 0.000001 0
-0.000808 0.000001 0
-0.000810 0.000001 0
-0.000812 0.000001 0
-0.000813 0.000000 0
-0.000812 -0.000001 0
-0.000810 -0.000002 0
-0.000805 -0.000004 0
-0.000799 -0.000005 0
-0.000792 -0.000005 0
-0.000787 -0.000002 0
-0.000789 0.000003 0
-0.000802 0.000012 0
-0.000831 0.000025 0
-0.000878 0.000038 0
-0.000943 0.000050 0
-0.001016 0.000054 0
-0.001080 0.000043 0
-0.001105 0.000009 0
-0.001055 -0.000054 0
-0.000892 -0.000142 0
-0.000603 -0.000221 0
-0.000244 -0.000214 0
0.000000 -0.000088 0
0.000000 0.000842 0
-0.000727 0.001301 0
-0.001400 0.000513 0
-0.001694 -0.000056 0
-0.001728 -0.000248 0
-0.001645 -0.000265 0
-0.001526 -0.000230 0
-0.001406 -0.000188 0
-0.001295 -0.000153 0
-0.001198 -0.000126 0
-0.001112 -0.000106 0
-0.001036 -0.000092 0
-0.000968 -0.000081 0
-0.000905 -0.000073 0
-0.000848 -0.000067 0
-0.000795 -0.000062 0
-0.000745 -0.000057 0
-0.000698 -0.000054 0
-0.000653 -0.000051 0
-0.000610 -0.000049 0
-0.000569 -0.000047 0
-0.000529 -0.000045 0
-0.000491 -0.000043 0
-0.000454 -0.000042 0
-0.000417 -0.000040 0
-0.000382 -0.000039 0
-0.000348 -0.000037 0
-0.000315 -0.000036 0
-0.000282 -0.000036 0
-0.000249 -0.000036 0
-0.000216 -0.000038 0
-0.000180 -0.000042 0
-0.000141 -0.000047 0
-0.000099 -0.000050 0
-0.000056 -0.000048 0
-0.000019 -0.000032 0
0.000000 -0.000010 0
0.000000 0.000000 0
0.000000 0.000000 0
0.000000 0.000000 0
0.000000 0.000067 0
-0.000092 0.000194 0
-0.000262 0.000260 0
-0.000447 0.000243 0
-0.000612 0.000191 0
-0.000744 0.000137 0
-0.000843 0.000093 0
-0.000915 0.000063 0
-0.000969 0.000045 0
-0.001010 0.000033 0
-0.001042 0.000027 0
-0.001069 0.000022 0
-0.001092 0.000019 0
-0.001112 0.000017 0
-0.001131 0.000016 0
-0.001147 0.000014 0
-0.001162 0.000013 0
-0.001176 0.000012 0
-0.001188 0.000011 0
-0.001200 0.000010 0
-0.001210 0.000010 0
-0.001220 0.000009 0
-0.001229 0.000008 0
-0.001238 0.000008 0
-0.001246 0.000007 0
-0.001253 0.000007 0
-0.001260 0.000007 0
-0.001267 0.000006 0
-0.001273 0.000006 0
-0.001278 0.000005 0
-0.001283 0.000005 0
-0.001288 0.000005 0
-0.001293 0.000005 0
-0.001298 0.000005 0
-0.001302 0.000005 0
-0.001306 0.000005 0
-0.001310 0.000004 0
-0.001313 0.000004 0
-0.001315 0.000002 0
-0.001316 -0.000000 0
-0.001314 -0.000004 0
-0.001309 -0.000008 0
-0.001302 -0.000012 0
-0.001292 -0.000014 0
-0.001282 -0.000012 0
-0.001277 -0.000003 0
-0.001281 0.000014 0
-0.001302 0.000041 0
-0.001344 0.000075 0
-0.001411 0.000111 0
-0.001498 0.000137 0
-0.001589 0.000137 0
-0.001656 0.000089 0
-0.001658 -0.000025 0
-0.001543 -0.000214 0
-0.001271 -0.000452 0
-0.000838 -0.000648 0
-0.000332 -0.000604 0
0.000000 -0.000244 0
0.000000 0.001150 0
-0.000526 0.001962 0
-0.001197 0.001060 0
-0.001621 0.000198 0
-0.001792 -0.000205 0
-0.001807 -0.000328 0
-0.001747 -0.000333 0
-0.001656 -0.000299 0
-0.001558 -0.000259 0
-0.001462 -0.000223 0
-0.001372 -0.000195 0
-0.001288 -0.000172 0
-0.001211 -0.000154 0
-0.001139 -0.000140 0
-0.001072 -0.000129 0
-0.001008 -0.000120 0
-0.000948 -0.000113 0
-0.000890 -0.000107 0
-0.000834 -0.000102 0
-0.000781 -0.000097 0
-0.000729 -0.000094 0
-0.000679 -0.000090 0
-0.000631 -0.000087 0
-0.000583 -0.000085 0
-0.000537 -0.000082 0
-0.000491 -0.000079 0
-0.000447 -0.000077 0
-0.000404 -0.000075 0
-0.000361 -0.000074 0
-0.000318 -0.000075 0
-0.000273 -0.000079 0
-0.000227 -0.000086 0
-0.000177 -0.000094 0
-0.000124 -0.000099 0
-0.000070 -0.000094 0
-0.000024 -0.000065 0
0.000000 -0.000021 0
0.000000 0.000000 0
0.000000 0.000000 0
0.000000 0.000000 0
0.000000 0.000114 0
-0.000086 0.000330 0
-0.000253 0.000447 0
-0.000443 0.000431 0
-0.000622 0.000355 0
-0.000773 0.000268 0
-0.000895 0.000194 0
-0.000990 0.000140 0
-0.001064 0.000103 0
-0.001123 0.000080 0
-0.001171 0.000064 0
-0.001212 0.000054 0
-0.001247 0.000047 0
-0.001278 0.000042 0
-0.001306 0.000038 0
-0.001332 0.000034 0
-0.001355 0.000031 0
-0.001375 0.000029 0
-0.001395 0.000026 0
-0.001412 0.000024 0
-0.001428 0.000022 0
-0.001443 0.000021 0
-0.001456 0.000019 0
-0.001469 0.000018 0
-0.001481 0.000017 0
-0.001491 0.000016 0
-0.001502 0.000015 0
-0.001511 0.000014 0
-0.001520 0.000013 0
-0.001528 0.000012 0
-0.001535 0.000011 0
-0.001542 0.000011 0
-0.001549 0.000010 0
-0.001555 0.000010 0
-0.001560 0.000010 0
-0.001566 0.000009 0
-0.001570 0.000008 0
-0.001574 0.000006 0
-0.001577 0.000003 0
-0.001577 -0.000002 0
-0.001576 -0.000008 0
-0.001570 -0.000015 0
-0.001563 -0.000021 0
-0.001553 -0.000024 0
-0.001543 -0.000020 0
-0.001538 -0.000004 0
-0.001543 0.000028 0
-0.001566 0.000075 0
-0.001611 0.000134 0
-0.001680 0.000192 0
-0.001767 0.000228 0
-0.001853 0.000213 0
-0.001905 0.000112 0
-0.001879 -0.000104 0
-0.001722 -0.000441 0
-0.001395 -0.000847 0
-0.000905 -0.001160 0
-0.000351 -0.001053 0
0.000000 -0.000420 0
0.000000 0.001368 0
-0.000372 0.002500 0
-0.000964 0.001608 0
-0.001417 0.000539 0
-0.001663 -0.000062 0
-0.001754 -0.000311 0
-0.001752 -0.000381 0
-0.001703 -0.000377 0
-0.001632 -0.000346 0
-0.001554 -0.000311 0
-0.001475 -0.000279 0
-0.001398 -0.000252 0
-0.001323 -0.000230 0
-0.001252 -0.000212 0
-0.001183 -0.000198 0
-0.001117 -0.000185 0
-0.001054 -0.000175 0
-0.000993 -0.000167 0
-0.000933 -0.000160 0
-0.000875 -0.000153 0
-0.000819 -0.000148 0
-0.000764 -0.000143 0
-0.000710 -0.000139 0
-0.000657 -0.000135 0
-0.000605 -0.000132 0
-0.000554 -0.000128 0
-0.000504 -0.000125 0
-0.000454 -0.000122 0
-0.000405 -0.000121 0
-0.000356 -0.000123 0
-0.000305 -0.000129 0
-0.000252 -0.000138 0
-0.000196 -0.000149 0
-0.000137 -0.000157 0
-0.000078 -0.000147 0
-0.000026 -0.000102 0
0.000000 -0.000034 0
0.000000 0.000000 0
0.000000 0.000000 0
0.000000 0.000000 0
0.000000 0.000153 0
-0.000067 0.000447 0
-0.000205 0.000617 0
-0.000371 0.000611 0
-0.000535 0.000521 0
-0.000682 0.000410 0
-0.000807 0.000309 0
-0.000910 0.000232 0
-0.000994 0.000178 0
-0.001064 0.000140 0
-0.001123 0.000115 0
-0.001175 0.000098 0
-0.001220 0.000086 0
-0.001261 0.000076 0
-0.001298 0.000069 0
-0.001331 0.000062 0
-0.001362 0.000057 0
-0.001390 0.000052 0
-0.001416 0.000048 0
-0.001439 0.000044 0
-0.001460 0.000040 0
-0.001480 0.000037 0
-0.001498 0.000034 0
-0.001514 0.000032 0
-0.001530 0.000030 0
-0.001544 0.000028 0
-0.001557 0.000026 0
-0.001570 0.000024 0
-0.001581 0.000022 0
-0.001592 0.000021 0
-0.001602 0.000019 0
-0.001611 0.000018 0
-0.001620 0.000017 0
-0.001628 0.000017 0
-0.001635 0.000016 0
-0.001642 0.000015 0
-0.001648 0.000013 0
-0.001654 0.000010 0
-0.001658 0.000005 0
-0.001660 -0.000002 0
-0.001660 -0.000011 0
-0.001657 -0.000021 0
-0.001652 -0.000030 0
-0.001644 -0.000033 0
-0.001637 -0.000026 0
-0.001634 -0.000003 0
-0.001640 0.000042 0
-0.001662 0.000108 0
-0.001704 0.000189 0
-0.001767 0.000267 0
-0.001845 0.000310 0
-0.001918 0.000275 0
-0.001956 0.000115 0
-0.001911 -0.000209 0
-0.001735 -0.000698 0
-0.001392 -0.001270 0
-0.000893 -0.001692 0
-0.000342 -0.001508 0
0.000000 -0.000596 0
0.000000 0.001523 0
-0.000266 0.002927 0
-0.000765 0.002105 0
-0.001195 0.000898 0
-0.001464 0.000132 0
-0.001596 -0.000239 0
-0.001635 -0.000383 0
-0.001621 -0.000418 0
-0.001579 -0.000407 0
-0.001523 -0.000380 0
-0.001460 -0.000351 0
-0.001396 -0.000324 0
-0.001331 -0.000300 0
-0.001267 -0.000280 0
-0.001204 -0.000264 0
-0.001142 -0.000249 0
-0.001081 -0.000238 0
-0.001021 -0.000228 0
-0.000963 -0.000219 0
-0.000905 -0.000211 0
-0.000848 -0.000205 0
-0.000793 -0.000199 0
-0.000738 -0.000194 0
-0.000683 -0.000189 0
-0.000630 -0.000185 0
-0.000577 -0.000180 0
-0.000524 -0.000176 0
-0.000472 -0.000174 0
-0.000421 -0.000173 0
-0.000369 -0.000175 0
-0.000315 -0.000182 0
-0.000260 -0.000194 0
-0.000201 -0.000209 0
-0.000140 -0.000217 0
-0.000079 -0.000204 0
-0.000027 -0.000142 0
0.000000 -0.000047 0
0.000000 0.000000 0
0.000000 0.000000 0
0.000000 0.000000 0
0.000000 0.000180 0
-0.000043 0.000534 0
-0.000141 0.000750 0
-0.000266 0.000761 0
-0.000398 0.000667 0
-0.000524 0.000540 0
-0.000636 0.000422 0
-0.000733 0.000327 0
-0.000817 0.000257 0
-0.000889 0.000209 0
-0.000953 0.000175 0
-0.001011 0.000151 0
-0.001063 0.000133 0
-0.001111 0.000119 0
-0.001155 0.000108 0
-0.001196 0.000098 0
-0.001234 0.000090 0
-0.001269 0.000082 0
-0.001301 0.000075 0
-0.001330 0.000069 0
-0.001357 0.000063 0
-0.001381 0.000058 0
-0.001403 0.000054 0
-0.001424 0.000050 0
-0.001443 0.000046 0
-0.001461 0.000043 0
-0.001477 0.000040 0
-0.001492 0.000037 0
-0.001507 0.000035 0
-0.001521 0.000032 0
-0.001533 0.000030 0
-0.001546 0.000028 0
-0.001557 0.000027 0
-0.001568 0.000025 0
-0.001578 0.000024 0
-0.001587 0.000022 0
-0.001596 0.000020 0
-0.001604 0.000016 0
-0.001611 0.000009 0
-0.001617 0.000001 0
-0.001621 -0.000011 0
-0.001622 -0.000023 0
-0.001622 -0.000034 0
-0.001619 -0.000039 0
-0.001617 -0.000030 0
-0.001617 -0.000001 0
-0.001624 0.000055 0
-0.001644 0.000138 0
-0.001681 0.000239 0
-0.001735 0.000333 0
-0.001802 0.000379 0
-0.001863 0.000324 0
-0.001888 0.000104 0
-0.001836 -0.000325 0
-0.001658 -0.000960 0
-0.001324 -0.001688 0
-0.000845 -0.002210 0
-0.000322 -0.001946 0
0.000000 -0.000763 0
0.000000 0.001635 0
-0.000194 0.003266 0
-0.000609 0.002537 0
-0.000994 0.001239 0
-0.001256 0.000339 0
-0.001399 -0.000140 0
-0.001459 -0.000356 0
-0.001467 -0.000432 0
-0.001446 -0.000444 0
-0.001410 -0.000429 0
-0.001365 -0.000406 0
-0.001315 -0.000381 0
-0.001263 -0.000359 0
-0.001210 -0.000339 0
-0.001155 -0.000322 0
-0.001101 -0.000308 0
-0.001046 -0.000296 0
-0.000992 -0.000285 0
-0.000938 -0.000276 0
-0.000884 -0.000267 0
-0.000830 -0.000260 0
-0.000777 -0.000254 0
-0.000724 -0.000248 0
-0.000671 -0.000243 0
-0.000619 -0.000238 0
-0.000567 -0.000233 0
-0.000516 -0.000229 0
-0.000464 -0.000226 0
-0.000413 -0.000225 0
-0.000361 -0.000228 0
-0.000308 -0.000237 0
-0.000253 -0.000252 0
-0.000196 -0.000269 0
-0.000135 -0.000278 0
-0.000076 -0.000260 0
-0.000026 -0.000181 0
0.000000 -0.000061 0
0.000000 0.000000 0
0.000000 0.000000 0
0.000000 0.000000 0
0.000000 0.000196 0
-0.000020 0.000587 0
-0.000075 0.000839 0
-0.000153 0.000868 0
-0.000243 0.000779 0
-0.000336 0.000647 0
-0.000424 0.000519 0
-0.000506 0.000413 0
-0.000579 0.000334 0
-0.000647 0.000277 0
-0.000710 0.000237 0
-0.000768 0.000208 0
-0.000823 0.000186 0
-0.000875 0.000168 0
-0.000925 0.000154 0
-0.000971 0.000141 0
-0.001015 0.000129 0
-0.001056 0.000118 0
-0.001094 0.000108 0
-0.001129 0.000099 0
-0.001161 0.000091 0
-0.001190 0.000084 0
-0.001217 0.000077 0
-0.001241 0.000071 0
-0.001264 0.000066 0
-0.001285 0.000062 0
-0.001304 0.000058 0
-0.001323 0.000054 0
-0.001340 0.000050 0
-0.001357 0.000047 0
-0.001373 0.000044 0
-0.001389 0.000042 0
-0.001403 0.000039 0
-0.001417 0.000037 0
-0.001431 0.000035 0
-0.001443 0.000033 0
-0.001456 0.000030 0
-0.001468 0.000025 0
-0.001479 0.000018 0
-0.001489 0.000008 0
-0.001499 -0.000006 0
-0.001507 -0.000020 0
-0.001513 -0.000033 0
-0.001517 -0.000039 0
-0.001521 -0.000029 0
-0.001526 0.000005 0
-0.001536 0.000069 0
-0.001554 0.000165 0
-0.001586 0.000281 0
-0.001631 0.000388 0
-0.001686 0.000437 0
-0.001735 0.000361 0
-0.001752 0.000087 0
-0.001698 -0.000440 0
-0.001531 -0.001210 0
-0.001222 -0.002083 0
-0.000780 -0.002695 0
-0.000296 -0.002354 0
0.000000 -0.000918 0
0.000000 0.001718 0
-0.000144 0.003536 0
-0.000487 0.002905 0
-0.000825 0.001546 0
-0.001064 0.000538 0
-0.001202 -0.000036 0
-0.001265 -0.000315 0
-0.001283 -0.000430 0
-0.001275 -0.000464 0
-0.001252 -0.000462 0
-0.001221 -0.000445 0
-0.001185 -0.000425 0
-0.001146 -0.000405 0
-0.001104 -0.000388 0
-0.001060 -0.000372 0
-0.001015 -0.000358 0
-0.000968 -0.000346 0
-0.000921 -0.000336 0
-0.000873 -0.000327 0
-0.000825 -0.000319 0
-0.000776 -0.000312 0
-0.000728 -0.000305 0
-0.000679 -0.000299 0
-0.000630 -0.000294 0
-0.000582 -0.000288 0
-0.000533 -0.000283 0
-0.000485 -0.000279 0
-0.000436 -0.000276 0
-0.000388 -0.000276 0
-0.000339 -0.000280 0
-0.000288 -0.000290 0
-0.000236 -0.000307 0
-0.000181 -0.000326 0
-0.000125 -0.000337 0
-0.000070 -0.000314 0
-0.000023 -0.000218 0
0.000000 -0.000073 0
0.000000 0.000000 0
0.000000 0.000000 0
0.000000 0.000000 0
0.000000 0.000200 0
-0.000001 0.000608 0
-0.000016 0.000883 0
-0.000047 0.000929 0
-0.000092 0.000850 0
-0.000146 0.000721 0
-0.000204 0.000591 0
-0.000262 0.000482 0
-0.000319 0.000399 0
-0.000375 0.000338 0
-0.000430 0.000296 0
-0.000485 0.000264 0
-0.000538 0.000240 0
-0.000591 0.000221 0
-0.000643 0.000204 0
-0.000693 0.000188 0
-0.000741 0.000174 0
-0.000788 0.000161 0
-0.000831 0.000148 0
-0.000872 0.000136 0
-0.000909 0.000124 0
-0.000944 0.000114 0
-0.000975 0.000105 0
-0.001003 0.000096 0
-0.001029 0.000089 0
-0.001053 0.000083 0
-0.001075 0.000078 0
-0.001097 0.000073 0
-0.001117 0.000069 0
-0.001137 0.000065 0
-0.001157 0.000062 0
-0.001176 0.000058 0
-0.001194 0.000055 0
-0.001212 0.000052 0
-0.001229 0.000050 0
-0.001246 0.000047 0
-0.001262 0.000044 0
-0.001278 0.000039 0
-0.001295 0.000031 0
-0.001311 0.000020 0
-0.001326 0.000006 0
-0.001341 -0.000010 0
-0.001355 -0.000024 0
-0.001368 -0.000031 0
-0.001379 -0.000022 0
-0.001390 0.000014 0
-0.001403 0.000083 0
-0.001421 0.000188 0
-0.001447 0.000315 0
-0.001483 0.000432 0
-0.001527 0.000483 0
-0.001565 0.000390 0
-0.001576 0.000068 0
-0.001526 -0.000546 0
-0.001378 -0.001436 0
-0.001102 -0.002441 0
-0.000706 -0.003136 0
-0.000269 -0.002726 0
0.000000 -0.001059 0
0.000000 0.001779 0
-0.000108 0.003754 0
-0.000394 0.003218 0
-0.000686 0.001815 0
-0.000898 0.000716 0
-0.001020 0.000061 0
-0.001078 -0.000274 0
-0.001096 -0.000422 0
-0.001093 -0.000475 0
-0.001078 -0.000482 0
-0.001057 -0.000472 0
-0.001031 -0.000457 0
-0.001002 -0.000440 0
-0.000971 -0.000425 0
-0.000937 -0.000412 0
-0.000900 -0.000400 0
-0.000862 -0.000389 0
-0.000823 -0.000380 0
-0.000782 -0.000371 0
-0.000741 -0.000364 0
-0.000699 -0.000357 0
-0.000656 -0.000351 0
-0.000613 -0.000345 0
-0.000569 -0.000340 0
-0.000526 -0.000335 0
-0.000482 -0.000330 0
-0.000438 -0.000325 0
-0.000394 -0.000323 0
-0.000349 -0.000323 0
-0.000305 -0.000328 0
-0.000259 -0.000339 0
-0.000211 -0.000358 0
-0.000162 -0.000379 0
-0.000110 -0.000390 0
-0.000061 -0.000362 0
-0.000020 -0.000251 0
0.000000 -0.000084 0
0.000000 0.000000 0
0.000000 0.000000 0
0.000000 0.000000 0
0.000000 0.000196 0
0.000014 0.000603 0
0.000033 0.000885 0
0.000044 0.000945 0
0.000042 0.000878 0
0.000028 0.000759 0
0.000003 0.000634 0
-0.000028 0.000528 0
-0.000064 0.000447 0
-0.000104 0.000388 0
-0.000146 0.000346 0
-0.000192 0.000316 0
-0.000240 0.000292 0
-0.000289 0.000273 0
-0.000340 0.000256 0
-0.000391 0.000239 0
-0.000442 0.000224 0
-0.000492 0.000208 0
-0.000541 0.000192 0
-0.000587 0.000177 0
-0.000631 0.000163 0
-0.000671 0.000149 0
-0.000707 0.000136 0
-0.000739 0.000125 0
-0.000769 0.000116 0
-0.000795 0.000108 0
-0.000820 0.000101 0
-0.000844 0.000096 0
-0.000867 0.000091 0
-0.000890 0.000086 0
-0.000913 0.000082 0
-0.000935 0.000078 0
-0.000957 0.000075 0
-0.000978 0.000072 0
-0.001000 0.000069 0
-0.001021 0.000066 0
-0.001041 0.000062 0
-0.001062 0.000057 0
-0.001083 0.000050 0
-0.001105 0.000039 0
-0.001127 0.000025 0
-0.001149 0.000008 0
-0.001170 -0.000007 0
-0.001191 -0.000015 0
-0.001210 -0.000007 0
-0.001227 0.000028 0
-0.001244 0.000100 0
-0.001262 0.000209 0
-0.001285 0.000343 0
-0.001313 0.000467 0
-0.001345 0.000519 0
-0.001374 0.000411 0
-0.001381 0.000048 0
-0.001338 -0.000638 0
-0.001212 -0.001634 0
-0.000975 -0.002755 0
-0.000629 -0.003528 0
-0.000242 -0.003060 0
0.000000 -0.001187 0
0.000000 0.001826 0
-0.000081 0.003931 0
-0.000321 0.003484 0
-0.000574 0.002050 0
-0.000758 0.000872 0
-0.000863 0.000145 0
-0.000909 -0.000239 0
-0.000922 -0.000416 0
-0.000918 -0.000482 0
-0.000905 -0.000497 0
-0.000890 -0.000491 0
-0.000871 -0.000479 0
-0.000851 -0.000466 0
-0.000828 -0.000453 0
-0.000802 -0.000442 0
-0.000774 -0.000432 0
-0.000744 -0.000424 0
-0.000712 -0.000416 0
-0.000679 -0.000408 0
-0.000644 -0.000402 0
-0.000608 -0.000396 0
-0.000572 -0.000391 0
-0.000535 -0.000386 0
-0.000497 -0.000381 0
-0.000459 -0.000376 0
-0.000420 -0.000371 0
-0.000381 -0.000367 0
-0.000343 -0.000364 0
-0.000304 -0.000365 0
-0.000264 -0.000370 0
-0.000224 -0.000383 0
-0.000182 -0.000404 0
-0.000138 -0.000427 0
-0.000094 -0.000437 0
-0.000051 -0.000404 0
-0.000016 -0.000279 0
0.000000 -0.000093 0
0.000000 0.000000 0
0.000000 0.000000 0
0.000000 0.000000 0
0.000000 0.000186 0
0.000024 0.000575 0
0.000069 0.000852 0
0.000116 0.000920 0