# vtk DataFile Version 2.0
generated by CFD-lab course output (written by Tobias Neckel) 
ASCII

DATASET STRUCTURED_GRID
DIMENSIONS  99 49 1 
POINTS 4851 float

0.000000 0.000000 0
0.020000 0.000000 0
0.040000 0.000000 0
0.060000 0.000000 0
0.080000 0.000000 0
0.100000 0.000000 0
0.120000 0.000000 0
0.140000 0.000000 0
0.160000 0.000000 0
0.180000 0.000000 0
0.200000 0.000000 0
0.220000 0.000000 0
0.240000 0.000000 0
0.260000 0.000000 0
0.280000 0.000000 0
0.300000 0.000000 0
0.320000 0.000000 0
0.340000 0.000000 0
0.360000 0.000000 0
0.380000 0.000000 0
0.400000 0.000000 0
0.420000 0.000000 0
0.440000 0.000000 0
0.460000 0.000000 0
0.480000 0.000000 0
0.500000 0.000000 0
0.520000 0.000000 0
0.540000 0.000000 0
0.560000 0.000000 0
0.580000 0.000000 0
0.600000 0.000000 0
0.620000 0.000000 0
0.640000 0.000000 0
0.660000 0.000000 0
0.680000 0.000000 0
0.700000 0.000000 0
0.720000 0.000000 0
0.740000 0.000000 0
0.760000 0.000000 0
0.780000 0.000000 0
0.800000 0.000000 0
0.820000 0.000000 0
0.840000 0.000000 0
0.860000 0.000000 0
0.880000 0.000000 0
0.900000 0.000000 0
0.920000 0.000000 0
0.940000 0.000000 0
0.960000 0.000000 0
0.980000 0.000000 0
1.000000 0.000000 0
1.020000 0.000000 0
1.040000 0.000000 0
1.060000 0.000000 0
1.080000 0.000000 0
1.100000 0.000000 0
1.120000 0.000000 0
1.140000 0.000000 0
1.160000 0.000000 0
1.180000 0.000000 0
1.200000 0.000000 0
1.220000 0.000000 0
1.240000 0.000000 0
1.260000 0.000000 0
1.280000 0.000000 0
1.300000 0.000000 0
1.320000 0.000000 0
1.340000 0.000000 0
1.360000 0.000000 0
1.380000 0.000000 0
1.400000 0.000000 0
1.420000 0.000000 0
1.440000 0.000000 0
1.460000 0.000000 0
1.480000 0.000000 0
1.500000 0.000000 0
1.520000 0.000000 0
1.540000 0.000000 0
1.560000 0.000000 0
1.580000 0.000000 0
1.600000 0.000000 0
1.620000 0.000000 0
1.640000 0.000000 0
1.660000 0.000000 0
1.680000 0.000000 0
1.700000 0.000000 0
1.720000 0.000000 0
1.740000 0.000000 0
1.760000 0.000000 0
1.780000 0.000000 0
1.800000 0.000000 0
1.820000 0.000000 0
1.840000 0.000000 0
1.860000 0.000000 0
1.880000 0.000000 0
1.900000 0.000000 0
1.920000 0.000000 0
1.940000 0.000000 0
1.960000 0.000000 0
0.000000 0.020000 0
0.020000 0.020000 0
0.040000 0.020000 0
0.060000 0.020000 0
0.080000 0.020000 0
0.100000 0.020000 0
0.120000 0.020000 0
0.140000 0.020000 0
0.160000 0.020000 0
0.180000 0.020000 0
0.200000 0.020000 0
0.220000 0.020000 0
0.240000 0.020000 0
0.260000 0.020000 0
0.280000 0.020000 0
0.300000 0.020000 0
0.320000 0.020000 0
0.340000 0.020000 0
0.360000 0.020000 0
0.380000 0.020000 0
0.400000 0.020000 0
0.420000 0.020000 0
0.440000 0.020000 0
0.460000 0.020000 0
0.480000 0.020000 0
0.500000 0.020000 0
0.520000 0.020000 0
0.540000 0.020000 0
0.560000 0.020000 0
0.580000 0.020000 0
0.600000 0.020000 0
0.620000 0.020000 0
0.640000 0.020000 0
0.660000 0.020000 0
0.680000 0.020000 0
0.700000 0.020000 0
0.720000 0.020000 0
0.740000 0.020000 0
0.760000 0.020000 0
0.780000 0.020000 0
0.800000 0.020000 0
0.820000 0.020000 0
0.840000 0.020000 0
0.860000 0.020000 0
0.880000 0.020000 0
0.900000 0.020000 0
0.920000 0.020000 0
0.940000 0.020000 0
0.960000 0.020000 0
0.980000 0.020000 0
1.000000 0.020000 0
1.020000 0.020000 0
1.040000 0.020000 0
1.060000 0.020000 0
1.080000 0.020000 0
1.100000 0.020000 0
1.120000 0.020000 0
1.140000 0.020000 0
1.160000 0.020000 0
1.180000 0.020000 0
1.200000 0.020000 0
1.220000 0.020000 0
1.240000 0.020000 0
1.260000 0.020000 0
1.280000 0.020000 0
1.300000 0.020000 0
1.320000 0.020000 0
1.340000 0.020000 0
1.360000 0.020000 0
1.380000 0.020000 0
1.400000 0.020000 0
1.420000 0.020000 0
1.440000 0.020000 0
1.460000 0.020000 0
1.480000 0.020000 0
1.500000 0.020000 0
1.520000 0.020000 0
1.540000 0.020000 0
1.560000 0.020000 0
1.580000 0.020000 0
1.600000 0.020000 0
1.620000 0.020000 0
1.640000 0.020000 0
1.660000 0.020000 0
1.680000 0.020000 0
1.700000 0.020000 0
1.720000 0.020000 0
1.740000 0.020000 0
1.760000 0.020000 0
1.780000 0.020000 0
1.800000 0.020000 0
1.820000 0.020000 0
1.840000 0.020000 0
1.860000 0.020000 0
1.880000 0.020000 0
1.900000 0.020000 0
1.920000 0.020000 0
1.940000 0.020000 0
1.960000 0.020000 0
0.000000 0.040000 0
0.020000 0.040000 0
0.040000 0.040000 0
0.060000 0.040000 0
0.080000 0.040000 0
0.100000 0.040000 0
0.120000 0.040000 0
0.140000 0.040000 0
0.160000 0.040000 0
0.180000 0.040000 0
0.200000 0.040000 0
0.220000 0.040000 0
0.240000 0.040000 0
0.260000 0.040000 0
0.280000 0.040000 0
0.300000 0.040000 0
0.320000 0.040000 0
0.340000 0.040000 0
0.360000 0.040000 0
0.380000 0.040000 0
0.400000 0.040000 0
0.420000 0.040000 0
0.440000 0.040000 0
0.460000 0.040000 0
0.480000 0.040000 0
0.500000 0.040000 0
0.520000 0.040000 0
0.540000 0.040000 0
0.560000 0.040000 0
0.580000 0.040000 0
0.600000 0.040000 0
0.620000 0.040000 0
0.640000 0.040000 0
0.660000 0.040000 0
0.680000 0.040000 0
0.700000 0.040000 0
0.720000 0.040000 0
0.740000 0.040000 0
0.760000 0.040000 0
0.780000 0.040000 0
0.800000 0.040000 0
0.820000 0.040000 0
0.840000 0.040000 0
0.860000 0.040000 0
0.880000 0.040000 0
0.900000 0.040000 0
0.920000 0.040000 0
0.940000 0.040000 0
0.960000 0.040000 0
0.980000 0.040000 0
1.000000 0.040000 0
1.020000 0.040000 0
1.040000 0.040000 0
1.060000 0.040000 0
1.080000 0.040000 0
1.100000 0.040000 0
1.120000 0.040000 0
1.140000 0.040000 0
1.160000 0.040000 0
1.180000 0.040000 0
1.200000 0.040000 0
1.220000 0.040000 0
1.240000 0.040000 0
1.260000 0.040000 0
1.280000 0.040000 0
1.300000 0.040000 0
1.320000 0.040000 0
1.340000 0.040000 0
1.360000 0.040000 0
1.380000 0.040000 0
1.400000 0.040000 0
1.420000 0.040000 0
1.440000 0.040000 0
1.460000 0.040000 0
1.480000 0.040000 0
1.500000 0.040000 0
1.520000 0.040000 0
1.540000 0.040000 0
1.560000 0.040000 0
1.580000 0.040000 0
1.600000 0.040000 0
1.620000 0.040000 0
1.640000 0.040000 0
1.660000 0.040000 0
1.680000 0.040000 0
1.700000 0.040000 0
1.720000 0.040000 0
1.740000 0.040000 0
1.760000 0.040000 0
1.780000 0.040000 0
1.800000 0.040000 0
1.820000 0.040000 0
1.840000 0.040000 0
1.860000 0.040000 0
1.880000 0.040000 0
1.900000 0.040000 0
1.920000 0.040000 0
1.940000 0.040000 0
1.960000 0.040000 0
0.000000 0.060000 0
0.020000 0.060000 0
0.040000 0.060000 0
0.060000 0.060000 0
0.080000 0.060000 0
0.100000 0.060000 0
0.120000 0.060000 0
0.140000 0.060000 0
0.160000 0.060000 0
0.180000 0.060000 0
0.200000 0.060000 0
0.220000 0.060000 0
0.240000 0.060000 0
0.260000 0.060000 0
0.280000 0.060000 0
0.300000 0.060000 0
0.320000 0.060000 0
0.340000 0.060000 0
0.360000 0.060000 0
0.380000 0.060000 0
0.400000 0.060000 0
0.420000 0.060000 0
0.440000 0.060000 0
0.460000 0.060000 0
0.480000 0.060000 0
0.500000 0.060000 0
0.520000 0.060000 0
0.540000 0.060000 0
0.560000 0.060000 0
0.580000 0.060000 0
0.600000 0.060000 0
0.620000 0.060000 0
0.640000 0.060000 0
0.660000 0.060000 0
0.680000 0.060000 0
0.700000 0.060000 0
0.720000 0.060000 0
0.740000 0.060000 0
0.760000 0.060000 0
0.780000 0.060000 0
0.800000 0.060000 0
0.820000 0.060000 0
0.840000 0.060000 0
0.860000 0.060000 0
0.880000 0.060000 0
0.900000 0.060000 0
0.920000 0.060000 0
0.940000 0.060000 0
0.960000 0.060000 0
0.980000 0.060000 0
1.000000 0.060000 0
1.020000 0.060000 0
1.040000 0.060000 0
1.060000 0.060000 0
1.080000 0.060000 0
1.100000 0.060000 0
1.120000 0.060000 0
1.140000 0.060000 0
1.160000 0.060000 0
1.180000 0.060000 0
1.200000 0.060000 0
1.220000 0.060000 0
1.240000 0.060000 0
1.260000 0.060000 0
1.280000 0.060000 0
1.300000 0.060000 0
1.320000 0.060000 0
1.340000 0.060000 0
1.360000 0.060000 0
1.380000 0.060000 0
1.400000 0.060000 0
1.420000 0.060000 0
1.440000 0.060000 0
1.460000 0.060000 0
1.480000 0.060000 0
1.500000 0.060000 0
1.520000 0.060000 0
1.540000 0.060000 0
1.560000 0.060000 0
1.580000 0.060000 0
1.600000 0.060000 0
1.620000 0.060000 0
1.640000 0.060000 0
1.660000 0.060000 0
1.680000 0.060000 0
1.700000 0.060000 0
1.720000 0.060000 0
1.740000 0.060000 0
1.760000 0.060000 0
1.780000 0.060000 0
1.800000 0.060000 0
1.820000 0.060000 0
1.840000 0.060000 0
1.860000 0.060000 0
1.880000 0.060000 0
1.900000 0.060000 0
1.920000 0.060000 0
1.940000 0.060000 0
1.960000 0.060000 0
0.000000 0.080000 0
0.020000 0.080000 0
0.040000 0.080000 0
0.060000 0.080000 0
0.080000 0.080000 0
0.100000 0.080000 0
0.120000 0.080000 0
0.140000 0.080000 0
0.160000 0.080000 0
0.180000 0.080000 0
0.200000 0.080000 0
0.220000 0.080000 0
0.240000 0.080000 0
0.260000 0.080000 0
0.280000 0.080000 0
0.300000 0.080000 0
0.320000 0.080000 0
0.340000 0.080000 0
0.360000 0.080000 0
0.380000 0.080000 0
0.400000 0.080000 0
0.420000 0.080000 0
0.440000 0.080000 0
0.460000 0.080000 0
0.480000 0.080000 0
0.500000 0.080000 0
0.520000 0.080000 0
0.540000 0.080000 0
0.560000 0.080000 0
0.580000 0.080000 0
0.600000 0.080000 0
0.620000 0.080000 0
0.640000 0.080000 0
0.660000 0.080000 0
0.680000 0.080000 0
0.700000 0.080000 0
0.720000 0.080000 0
0.740000 0.080000 0
0.760000 0.080000 0
0.780000 0.080000 0
0.800000 0.080000 0
0.820000 0.080000 0
0.840000 0.080000 0
0.860000 0.080000 0
0.880000 0.080000 0
0.900000 0.080000 0
0.920000 0.080000 0
0.940000 0.080000 0
0.960000 0.080000 0
0.980000 0.080000 0
1.000000 0.080000 0
1.020000 0.080000 0
1.040000 0.080000 0
1.060000 0.080000 0
1.080000 0.080000 0
1.100000 0.080000 0
1.120000 0.080000 0
1.140000 0.080000 0
1.160000 0.080000 0
1.180000 0.080000 0
1.200000 0.080000 0
1.220000 0.080000 0
1.240000 0.080000 0
1.260000 0.080000 0
1.280000 0.080000 0
1.300000 0.080000 0
1.320000 0.080000 0
1.340000 0.080000 0
1.360000 0.080000 0
1.380000 0.080000 0
1.400000 0.080000 0
1.420000 0.080000 0
1.440000 0.080000 0
1.460000 0.080000 0
1.480000 0.080000 0
1.500000 0.080000 0
1.520000 0.080000 0
1.540000 0.080000 0
1.560000 0.080000 0
1.580000 0.080000 0
1.600000 0.080000 0
1.620000 0.080000 0
1.640000 0.080000 0
1.660000 0.080000 0
1.680000 0.080000 0
1.700000 0.080000 0
1.720000 0.080000 0
1.740000 0.080000 0
1.760000 0.080000 0
1.780000 0.080000 0
1.800000 0.080000 0
1.820000 0.080000 0
1.840000 0.080000 0
1.860000 0.080000 0
1.880000 0.080000 0
[...]
POINT_DATA 4851 

VECTORS velocity float
0.000000 0.000000 0
-0.000446 0.000000 0
-0.000584 0.000000 0
-0.000533 0.000000 0
-0.000445 0.000000 0
-0.000369 0.000000 0
-0.000312 0.000000 0
-0.000270 0.000000 0
-0.000239 0.000000 0
-0.000215 0.000000 0
-0.000196 0.000000 0
-0.000180 0.000000 0
-0.000166 0.000000 0
-0.000154 0.000000 0
-0.000144 0.000000 0
-0.000134 0.000000 0
-0.000125 0.000000 0
-0.000117 0.000000 0
-0.000109 0.000000 0
-0.000102 0.000000 0
-0.000095 0.000000 0
-0.000088 0.000000 0
-0.000082 0.000000 0
-0.000076 0.000000 0
-0.000070 0.000000 0
-0.000065 0.000000 0
-0.000059 0.000000 0
-0.000054 0.000000 0
-0.000050 0.000000 0
-0.000044 0.000000 0
-0.000039 0.000000 0
-0.000032 0.000000 0
-0.000025 0.000000 0
-0.000017 0.000000 0
-0.000008 0.000000 0
-0.000002 0.000000 0
0.000000 0.000000 0
0.000000 0.000000 0
0.000000 0.000000 0
0.000000 0.000000 0
0.000000 0.000000 0
-0.000030 0.000000 0
-0.000087 0.000000 0
-0.000141 0.000000 0
-0.000182 0.000000 0
-0.000208 0.000000 0
-0.000224 0.000000 0
-0.000233 0.000000 0
-0.000239 0.000000 0
-0.000243 0.000000 0
-0.000246 0.000000 0
-0.000249 0.000000 0
-0.000251 0.000000 0
-0.000254 0.000000 0
-0.000256 0.000000 0
-0.000258 0.000000 0
-0.000259 0.000000 0
-0.000261 0.000000 0
-0.000263 0.000000 0
-0.000264 0.000000 0
-0.000265 0.000000 0
-0.000266 0.000000 0
-0.000268 0.000000 0
-0.000269 0.000000 0
-0.000270 0.000000 0
-0.000271 0.000000 0
-0.000272 0.000000 0
-0.000273 0.000000 0
-0.000273 0.000000 0
-0.000274 0.000000 0
-0.000275 0.000000 0
-0.000276 0.000000 0
-0.000276 0.000000 0
-0.000277 0.000000 0
-0.000278 0.000000 0
-0.000279 0.000000 0
-0.000280 0.000000 0
-0.000281 0.000000 0
-0.000281 0.000000 0
-0.000282 0.000000 0
-0.000282 0.000000 0
-0.000281 0.000000 0
-0.000280 0.000000 0
-0.000277 0.000000 0
-0.000274 0.000000 0
-0.000270 0.000000 0
-0.000269 0.000000 0
-0.000271 0.000000 0
-0.000280 0.000000 0
-0.000298 0.000000 0
-0.000325 0.000000 0
-0.000360 0.000000 0
-0.000395 0.000000 0
-0.000421 0.000000 0
-0.000419 0.000000 0
-0.000370 0.000000 0
-0.000261 0.000000 0
-0.000109 0.000000 0
0.000000 0.000000 0
0.000000 0.000446 0
-0.000889 0.000585 0
-0.001364 0.000088 0
-0.001414 -0.000138 0
-0.001300 -0.000164 0
-0.001154 -0.000132 0
-0.001021 -0.000098 0
-0.000910 -0.000072 0
-0.000820 -0.000055 0
-0.000746 -0.000043 0
-0.000684 -0.000035 0
-0.000632 -0.000029 0
-0.000586 -0.000025 0
-0.000545 -0.000022 0
-0.000509 -0.000020 0
-0.000476 -0.000018 0
-0.000445 -0.000017 0
-0.000416 -0.000015 0
-0.000389 -0.000014 0
-0.000363 -0.000014 0
-0.000338 -0.000013 0
-0.000315 -0.000012 0
-0.000293 -0.000012 0
-0.000271 -0.000011 0
-0.000251 -0.000011 0
-0.000231 -0.000010 0
-0.000212 -0.000010 0
-0.000193 -0.000009 0
-0.000175 -0.000009 0
-0.000155 -0.000010 0
-0.000135 -0.000011 0
-0.000112 -0.000013 0
-0.000086 -0.000015 0
-0.000058 -0.000016 0
-0.000031 -0.000014 0
-0.000009 -0.000008 0
0.000000 -0.000002 0
0.000000 0.000000 0
0.000000 0.000000 0
0.000000 0.000000 0
0.000000 0.000029 0
-0.000086 0.000086 0
-0.000243 0.000111 0
-0.000401 0.000095 0
-0.000527 0.000066 0
-0.000618 0.000041 0
-0.000678 0.000024 0
-0.000718 0.000015 0
-0.000746 0.000009 0
-0.000766 0.000007 0
-0.000783 0.000006 0
-0.000796 0.000005 0
-0.000808 0.000004 0
-0.000818 0.000004 0
-0.000827 0.000004 0
-0.000836 0.000003 0
-0.000843 0.000003 0
-0.000850 0.000003 0
-0.000857 0.000002 0
-0.000863 0.000002 0
-0.000868 0.000002 0
-0.000874 0.000002 0
-0.000878 0.000002 0
-0.000883 0.000002 0
-0.000887 0.000002 0
-0.000891 0.000001 0
-0.000894 0.000001 0
-0.000897 0.000001 0
-0.000901 0.000001 0
-0.000903 0.000001 0
-0.000906 0.000001 0
-0.000909 0.000001 0
-0.000911 0.000001 0
-0.000914 0.000001 0
-0.000916 0.000001 0
-0.000919 0.000001 0
-0.000921 0.000001 0
-0.000924 0.000001 0
-0.000926 0.000001 0
-0.000927 0.000000 0
-0.000926 -0.000001 0
-0.000923 -0.000003 0
-0.000917 -0.000005 0
-0.000909 -0.000007 0
-0.000898 -0.000007 0
-0.000889 -0.000005 0
-0.000887 0.000001 0
-0.000897 0.000011 0
-0.000927 0.000026 0
-0.000980 0.000044 0
-0.001058 0.000061 0
-0.001150 0.000070 0
-0.001237 0.000060 0
-0.001282 0.000023 0
-0.001241 -0.000051 0
-0.001063 -0.000158 0
-0.000730 -0.000261 0
-0.000300 -0.000261 0
0.000000 -0.000110 0
0.000000 0.000890 0
-0.000776 0.001365 0
-0.001487 0.000526 0
-0.001796 -0.000063 0
-0.001833 -0.000260 0
-0.001746 -0.000278 0
-0.001620 -0.000243 0
-0.001491 -0.000200 0
-0.001372 -0.000163 0
-0.001266 -0.000135 0
-0.001173 -0.000113 0
-0.001091 -0.000097 0
-0.001017 -0.000085 0
-0.000950 -0.000076 0
-0.000890 -0.000069 0
-0.000833 -0.000064 0
-0.000781 -0.000059 0
-0.000732 -0.000055 0
-0.000685 -0.000052 0
-0.000640 -0.000050 0
-0.000598 -0.000047 0
-0.000557 -0.000045 0
-0.000517 -0.000043 0
-0.000479 -0.000041 0
-0.000443 -0.000039 0
-0.000407 -0.000038 0
-0.000373 -0.000037 0
-0.000339 -0.000036 0
-0.000305 -0.000037 0
-0.000270 -0.000039 0
-0.000233 -0.000043 0
-0.000192 -0.000048 0
-0.000148 -0.000053 0
-0.000101 -0.000055 0
-0.000055 -0.000049 0
-0.000018 -0.000030 0
0.000000 -0.000009 0
0.000000 0.000000 0
0.000000 0.000000 0
0.000000 0.000000 0
0.000000 0.000085 0
-0.000114 0.000242 0
-0.000321 0.000314 0
-0.000540 0.000284 0
-0.000730 0.000216 0
-0.000878 0.000150 0
-0.000987 0.000100 0
-0.001065 0.000067 0
-0.001123 0.000048 0
-0.001168 0.000036 0
-0.001203 0.000029 0
-0.001232 0.000024 0
-0.001258 0.000021 0
-0.001280 0.000019 0
-0.001300 0.000017 0
-0.001318 0.000016 0
-0.001334 0.000014 0
-0.001349 0.000013 0
-0.001363 0.000012 0
-0.001375 0.000011 0
-0.001387 0.000010 0
-0.001397 0.000009 0
-0.001407 0.000009 0
-0.001416 0.000008 0
-0.001424 0.000007 0
-0.001432 0.000007 0
-0.001439 0.000006 0
-0.001445 0.000006 0
-0.001451 0.000005 0
-0.001457 0.000005 0
-0.001462 0.000005 0
-0.001467 0.000004 0
-0.001471 0.000004 0
-0.001476 0.000004 0
-0.001480 0.000005 0
-0.001484 0.000005 0
-0.001488 0.000005 0
-0.001492 0.000004 0
-0.001494 0.000003 0
-0.001495 -0.000000 0
-0.001493 -0.000004 0
-0.001487 -0.000010 0
-0.001477 -0.000015 0
-0.001464 -0.000020 0
-0.001449 -0.000020 0
-0.001438 -0.000012 0
-0.001437 0.000007 0
-0.001455 0.000039 0
-0.001500 0.000083 0
-0.001577 0.000131 0
-0.001683 0.000169 0
-0.001800 0.000178 0
-0.001896 0.000131 0
-0.001919 0.000004 0
-0.001808 -0.000219 0
-0.001506 -0.000511 0
-0.001005 -0.000764 0
-0.000403 -0.000730 0
0.000000 -0.000301 0
0.000000 0.001222 0
-0.000574 0.002072 0
-0.001297 0.001109 0
-0.001751 0.000208 0
-0.001937 -0.000212 0
-0.001956 -0.000344 0
-0.001892 -0.000353 0
-0.001793 -0.000321 0
-0.001685 -0.000279 0
-0.001579 -0.000242 0
-0.001479 -0.000210 0
-0.001387 -0.000185 0
-0.001302 -0.000165 0
-0.001223 -0.000149 0
-0.001149 -0.000136 0
-0.001080 -0.000126 0
-0.001015 -0.000118 0
-0.000953 -0.000111 0
-0.000893 -0.000106 0
-0.000836 -0.000101 0
-0.000782 -0.000096 0
-0.000729 -0.000092 0
-0.000677 -0.000089 0
-0.000628 -0.000085 0
-0.000580 -0.000082 0
-0.000533 -0.000079 0
-0.000487 -0.000078 0
-0.000441 -0.000077 0
-0.000396 -0.000078 0
-0.000349 -0.000082 0
-0.000299 -0.000089 0
-0.000246 -0.000098 0
-0.000190 -0.000106 0
-0.000130 -0.000108 0
-0.000072 -0.000097 0
-0.000024 -0.000063 0
0.000000 -0.000019 0
0.000000 0.000000 0
0.000000 0.000000 0
0.000000 0.000000 0
0.000000 0.000143 0
-0.000105 0.000406 0
-0.000305 0.000537 0
-0.000528 0.000504 0
-0.000734 0.000404 0
-0.000905 0.000297 0
-0.001040 0.000212 0
-0.001144 0.000151 0
-0.001224 0.000111 0
-0.001289 0.000086 0
-0.001341 0.000070 0
-0.001386 0.000059 0
-0.001425 0.000052 0
-0.001459 0.000046 0
-0.001490 0.000041 0
-0.001517 0.000037 0
-0.001543 0.000034 0
-0.001566 0.000031 0
-0.001587 0.000028 0
-0.001606 0.000026 0
-0.001623 0.000024 0
-0.001639 0.000022 0
-0.001654 0.000020 0
-0.001668 0.000019 0
-0.001681 0.000017 0
-0.001692 0.000016 0
-0.001703 0.000015 0
-0.001713 0.000014 0
-0.001722 0.000013 0
-0.001731 0.000012 0
-0.001739 0.000011 0
-0.001746 0.000010 0
-0.001753 0.000010 0
-0.001759 0.000009 0
-0.001765 0.000009 0
-0.001771 0.000009 0
-0.001776 0.000009 0
-0.001780 0.000007 0
-0.001783 0.000004 0
-0.001785 -0.000001 0
-0.001783 -0.000009 0
-0.001777 -0.000018 0
-0.001767 -0.000028 0
-0.001753 -0.000035 0
-0.001739 -0.000033 0
-0.001729 -0.000018 0
-0.001729 0.000017 0
-0.001750 0.000074 0
-0.001800 0.000149 0
-0.001881 0.000227 0
-0.001988 0.000284 0
-0.002100 0.000282 0
-0.002180 0.000179 0
-0.002171 -0.000065 0
-0.002010 -0.000464 0
-0.001644 -0.000961 0
-0.001077 -0.001364 0
-0.000423 -0.001266 0
0.000000 -0.000513 0
0.000000 0.001464 0
-0.000421 0.002662 0
-0.001072 0.001704 0
-0.001568 0.000578 0
-0.001841 -0.000055 0
-0.001943 -0.000324 0
-0.001944 -0.000406 0
-0.001890 -0.000406 0
-0.001810 -0.000377 0
-0.001721 -0.000340 0
-0.001631 -0.000305 0
-0.001542 -0.000275 0
-0.001457 -0.000250 0
-0.001376 -0.000229 0
-0.001299 -0.000212 0
-0.001226 -0.000198 0
-0.001155 -0.000186 0
-0.001087 -0.000176 0
-0.001022 -0.000168 0
-0.000958 -0.000161 0
-0.000897 -0.000155 0
-0.000837 -0.000149 0
-0.000779 -0.000144 0
-0.000722 -0.000139 0
-0.000666 -0.000134 0
-0.000612 -0.000131 0
-0.000558 -0.000128 0
-0.000505 -0.000127 0
-0.000451 -0.000129 0
-0.000397 -0.000135 0
-0.000340 -0.000145 0
-0.000279 -0.000157 0
-0.000215 -0.000169 0
-0.000148 -0.000172 0
-0.000082 -0.000155 0
-0.000027 -0.000102 0
0.000000 -0.000032 0
0.000000 0.000000 0
0.000000 0.000000 0
0.000000 0.000000 0
0.000000 0.000190 0
-0.000079 0.000546 0
-0.000241 0.000737 0
-0.000434 0.000713 0
-0.000622 0.000593 0
-0.000788 0.000456 0
-0.000927 0.000339 0
-0.001039 0.000252 0
-0.001131 0.000192 0
-0.001208 0.000153 0
-0.001272 0.000126 0
-0.001328 0.000108 0
-0.001378 0.000094 0
-0.001423 0.000084 0
-0.001464 0.000076 0
-0.001501 0.000068 0
-0.001535 0.000062 0
-0.001566 0.000057 0
-0.001594 0.000052 0
-0.001620 0.000047 0
-0.001644 0.000043 0
-0.001665 0.000040 0
-0.001686 0.000037 0
-0.001704 0.000034 0
-0.001721 0.000032 0
-0.001737 0.000029 0
-0.001752 0.000027 0
-0.001766 0.000025 0
-0.001779 0.000023 0
-0.001791 0.000021 0
-0.001802 0.000020 0
-0.001812 0.000018 0
-0.001822 0.000017 0
-0.001831 0.000016 0
-0.001840 0.000016 0
-0.001847 0.000015 0
-0.001855 0.000014 0
-0.001861 0.000011 0
-0.001867 0.000007 0
-0.001870 -0.000001 0
-0.001871 -0.000012 0
-0.001868 -0.000026 0
-0.001862 -0.000039 0
-0.001852 -0.000048 0
-0.001841 -0.000045 0
-0.001834 -0.000022 0
-0.001838 0.000029 0
-0.001859 0.000109 0
-0.001906 0.000213 0
-0.001981 0.000318 0
-0.002078 0.000389 0
-0.002176 0.000370 0
-0.002236 0.000202 0
-0.002205 -0.000167 0
-0.002019 -0.000746 0
-0.001633 -0.001445 0
-0.001057 -0.001986 0
-0.000408 -0.001807 0
0.000000 -0.000723 0
0.000000 0.001644 0
-0.000315 0.003145 0
-0.000879 0.002257 0
-0.001359 0.000977 0
-0.001664 0.000163 0
-0.001815 -0.000241 0
-0.001862 -0.000407 0
-0.001847 -0.000454 0
-0.001798 -0.000448 0
-0.001732 -0.000421 0
-0.001658 -0.000389 0
-0.001582 -0.000358 0
-0.001505 -0.000330 0
-0.001430 -0.000307 0
-0.001356 -0.000287 0
-0.001284 -0.000270 0
-0.001214 -0.000256 0
-0.001146 -0.000244 0
-0.001080 -0.000234 0
-0.001015 -0.000225 0
-0.000951 -0.000217 0
-0.000889 -0.000210 0
-0.000827 -0.000204 0
-0.000767 -0.000198 0
-0.000708 -0.000192 0
-0.000650 -0.000187 0
-0.000592 -0.000184 0
-0.000535 -0.000183 0
-0.000477 -0.000186 0
-0.000418 -0.000194 0
-0.000357 -0.000206 0
-0.000294 -0.000222 0
-0.000226 -0.000237 0
-0.000156 -0.000241 0
-0.000087 -0.000217 0
-0.000029 -0.000144 0
0.000000 -0.000046 0
0.000000 0.000000 0
0.000000 0.000000 0
0.000000 0.000000 0
0.000000 0.000221 0
-0.000049 0.000647 0
-0.000160 0.000891 0
-0.000303 0.000884 0
-0.000452 0.000758 0
-0.000593 0.000602 0
-0.000717 0.000463 0
-0.000823 0.000356 0
-0.000914 0.000279 0
-0.000993 0.000227 0
-0.001063 0.000191 0
-0.001125 0.000165 0
-0.001183 0.000146 0
-0.001235 0.000131 0
-0.001284 0.000119 0
-0.001329 0.000108 0
-0.001371 0.000098 0
-0.001409 0.000090 0
-0.001445 0.000082 0
-0.001477 0.000075 0
-0.001507 0.000069 0
-0.001535 0.000064 0
-0.001560 0.000059 0
-0.001584 0.000054 0
-0.001606 0.000050 0
-0.001626 0.000047 0
-0.001645 0.000043 0
-0.001663 0.000040 0
-0.001680 0.000037 0
-0.001696 0.000034 0
-0.001711 0.000032 0
-0.001726 0.000030 0
-0.001739 0.000028 0
-0.001752 0.000027 0
-0.001764 0.000026 0
-0.001775 0.000024 0
-0.001786 0.000022 0
-0.001796 0.000019 0
-0.001805 0.000013 0
-0.001813 0.000003 0
-0.001819 -0.000011 0
-0.001822 -0.000028 0
-0.001822 -0.000045 0
-0.001820 -0.000055 0
-0.001816 -0.000051 0
-0.001814 -0.000022 0
-0.001821 0.000041 0
-0.001842 0.000142 0
-0.001883 0.000270 0
-0.001948 0.000399 0
-0.002031 0.000479 0
-0.002112 0.000441 0
-0.002157 0.000208 0
-0.002113 -0.000283 0
-0.001923 -0.001036 0
-0.001547 -0.001924 0
-0.000995 -0.002589 0
-0.000381 -0.002323 0
0.000000 -0.000921 0
0.000000 0.001780 0
-0.000241 0.003542 0
-0.000722 0.002749 0
-0.001164 0.001364 0
-0.001467 0.000401 0
-0.001637 -0.000125 0
-0.001710 -0.000373 0
-0.001721 -0.000470 0
-0.001696 -0.000492 0
-0.001651 -0.000480 0
-0.001595 -0.000456 0
-0.001533 -0.000428 0
-0.001468 -0.000401 0
-0.001403 -0.000377 0
-0.001337 -0.000357 0
-0.001272 -0.000339 0
-0.001207 -0.000324 0
-0.001142 -0.000311 0
-0.001079 -0.000299 0
-0.001016 -0.000289 0
-0.000954 -0.000280 0
-0.000892 -0.000272 0
-0.000832 -0.000265 0
-0.000771 -0.000258 0
-0.000712 -0.000252 0
-0.000653 -0.000246 0
-0.000594 -0.000243 0
-0.000536 -0.000242 0
-0.000477 -0.000245 0
-0.000418 -0.000254 0
-0.000357 -0.000269 0
-0.000292 -0.000289 0
-0.000225 -0.000307 0
-0.000155 -0.000311 0
-0.000086 -0.000281 0
-0.000029 -0.000188 0
0.000000 -0.000061 0
0.000000 0.000000 0
0.000000 0.000000 0
0.000000 0.000000 0
0.000000 0.000238 0
-0.000020 0.000705 0
-0.000078 0.000991 0
-0.000164 0.001005 0
-0.000264 0.000883 0
-0.000366 0.000720 0
-0.000463 0.000569 0
-0.000550 0.000449 0
-0.000630 0.000362 0
-0.000703 0.000301 0
-0.000770 0.000258 0
-0.000833 0.000227 0
-0.000893 0.000204 0
-0.000950 0.000185 0
-0.001004 0.000169 0
-0.001055 0.000155 0
-0.001104 0.000142 0
-0.001149 0.000130 0
-0.001191 0.000120 0
-0.001230 0.000110 0
-0.001266 0.000101 0
-0.001300 0.000093 0
-0.001330 0.000086 0
-0.001359 0.000079 0
-0.001385 0.000074 0
-0.001410 0.000069 0
-0.001433 0.000064 0
-0.001456 0.000060 0
-0.001477 0.000056 0
-0.001498 0.000052 0
-0.001517 0.000049 0
-0.001536 0.000046 0
-0.001554 0.000043 0
-0.001571 0.000041 0
-0.001587 0.000039 0
-0.001603 0.000037 0
-0.001619 0.000035 0
-0.001634 0.000031 0
-0.001648 0.000024 0
-0.001662 0.000012 0
-0.001675 -0.000003 0
-0.001686 -0.000023 0
-0.001695 -0.000042 0
-0.001701 -0.000054 0
-0.001706 -0.000050 0
-0.001712 -0.000017 0
-0.001723 0.000056 0
-0.001743 0.000171 0
-0.001779 0.000319 0
-0.001832 0.000466 0
-0.001900 0.000553 0
-0.001965 0.000496 0
-0.001997 0.000203 0
-0.001949 -0.000401 0
-0.001770 -0.001312 0
-0.001422 -0.002374 0
-0.000913 -0.003152 0
-0.000349 -0.002802 0
0.000000 -0.001104 0
0.000000 0.001885 0
-0.000188 0.003868 0
-0.000598 0.003180 0
-0.000994 0.001721 0
-0.001276 0.000636 0
-0.001444 0.000002 0
-0.001526 -0.000322 0
-0.001550 -0.000467 0
-0.001540 -0.000518 0
-0.001511 -0.000522 0
-0.001470 -0.000507 0
-0.001422 -0.000484 0
-0.001371 -0.000460 0
-0.001316 -0.000438 0
-0.001261 -0.000418 0
-0.001204 -0.000400 0
-0.001147 -0.000385 0
-0.001089 -0.000372 0
-0.001031 -0.000360 0
-0.000973 -0.000350 0
-0.000915 -0.000341 0
-0.000857 -0.000332 0
-0.000799 -0.000324 0
-0.000742 -0.000317 0
-0.000685 -0.000310 0
-0.000627 -0.000305 0
-0.000571 -0.000301 0
-0.000514 -0.000300 0
-0.000457 -0.000304 0
-0.000399 -0.000314 0
-0.000340 -0.000331 0
-0.000279 -0.000353 0
-0.000214 -0.000374 0
-0.000147 -0.000379 0
-0.000082 -0.000343 0
-0.000027 -0.000230 0
0.000000 -0.000075 0
0.000000 0.000000 0
0.000000 0.000000 0
0.000000 0.000000 0
0.000000 0.000241 0
0.000003 0.000724 0
-0.000006 0.001035 0
-0.000036 0.001070 0
-0.000083 0.000960 0
-0.000140 0.000800 0
-0.000202 0.000647 0
-0.000263 0.000523 0
-0.000324 0.000431 0
-0.000383 0.000367 0
-0.000441 0.000321 0
-0.000499 0.000288 0
-0.000557 0.000263 0
-0.000614 0.000242 0
-0.000670 0.000224 0
-0.000725 0.000207 0
-0.000778 0.000192 0
-0.000828 0.000177 0
-0.000877 0.000163 0
-0.000922 0.000151 0
-0.000964 0.000138 0
-0.001003 0.000127 0
-0.001039 0.000118 0
-0.001073 0.000109 0
-0.001103 0.000101 0
-0.001132 0.000095 0
-0.001160 0.000089 0
-0.001186 0.000084 0
-0.001211 0.000079 0
-0.001236 0.000074 0
-0.001260 0.000070 0
-0.001284 0.000066 0
-0.001307 0.000063 0
-0.001329 0.000060 0
-0.001351 0.000058 0
-0.001372 0.000055 0
-0.001392 0.000053 0
-0.001413 0.000048 0
-0.001433 0.000041 0
-0.001454 0.000029 0
-0.001474 0.000012 0
-0.001494 -0.000008 0
-0.001513 -0.000030 0
-0.001529 -0.000044 0
-0.001544 -0.000040 0
-0.001558 -0.000006 0
-0.001574 0.000072 0
-0.001594 0.000198 0
-0.001625 0.000359 0
-0.001667 0.000520 0
-0.001720 0.000612 0
-0.001770 0.000538 0
-0.001791 0.000192 0
-0.001745 -0.000510 0
-0.001585 -0.001564 0
-0.001276 -0.002781 0
-0.000823 -0.003662 0
-0.000316 -0.003237 0
0.000000 -0.001271 0
0.000000 0.001968 0
-0.000149 0.004140 0
-0.000499 0.003555 0
-0.000848 0.002042 0
-0.001104 0.000852 0
-0.001258 0.000125 0
-0.001335 -0.000267 0
-0.001361 -0.000455 0
-0.001358 -0.000531 0
-0.001338 -0.000551 0
-0.001308 -0.000544 0
-0.001273 -0.000527 0
-0.001233 -0.000507 0
-0.001190 -0.000487 0
-0.001145 -0.000469 0
-0.001098 -0.000453 0
-0.001049 -0.000439 0
-0.000999 -0.000426 0
-0.000948 -0.000415 0
-0.000897 -0.000405 0
-0.000845 -0.000396 0
-0.000792 -0.000388 0
-0.000740 -0.000380 0
-0.000687 -0.000373 0
-0.000633 -0.000366 0
-0.000580 -0.000360 0
-0.000527 -0.000356 0
-0.000474 -0.000355 0
-0.000421 -0.000360 0
-0.000367 -0.000371 0
-0.000312 -0.000390 0
-0.000255 -0.000414 0
-0.000196 -0.000438 0
-0.000135 -0.000443 0
-0.000075 -0.000401 0
-0.000025 -0.000270 0
0.000000 -0.000088 0
0.000000 0.000000 0
0.000000 0.000000 0
0.000000 0.000000 0
0.000000 0.000234 0
0.000021 0.000711 0
0.000051 0.001030 0
0.000072 0.001081 0
0.000075 0.000987 0
0.000063 0.000839 0
0.000040 0.000692 0
0.000009 0.000571 0
-0.000028 0.000481 0
-0.000068 0.000418 0
-0.000112 0.000374 0
-0.000160 0.000343 0
-0.000210 0.000318 0
-0.000262 0.000298 0
-0.000316 0.000280 0
-0.000372 0.000263 0
-0.000427 0.000246 0
-0.000482 0.000229 0
-0.000535 0.000213 0
-0.000586 0.000197 0
-0.000635 0.000182 0
-0.000680 0.000168 0
-0.000722 0.000155 0
-0.000760 0.000143 0
-0.000795 0.000133 0
-0.000827 0.000125 0
-0.000858 0.000118 0
-0.000888 0.000111 0
-0.000917 0.000106 0
-0.000945 0.000101 0
-0.000974 0.000096 0
-0.001002 0.000092 0
-0.001030 0.000088 0
-0.001057 0.000084 0
-0.001084 0.000082 0
-0.001110 0.000079 0
-0.001136 0.000076 0
-0.001162 0.000072 0
-0.001188 0.000065 0
-0.001216 0.000053 0
-0.001243 0.000037 0
-0.001272 0.000015 0
-0.001300 -0.000007 0
-0.001327 -0.000023 0
-0.001352 -0.000021 0
-0.001374 0.000012 0
-0.001395 0.000092 0
-0.001417 0.000222 0
-0.001443 0.000392 0
-0.001475 0.000561 0
-0.001513 0.000655 0
-0.001549 0.000568 0
-0.001563 0.000178 0
-0.001523 -0.000607 0
-0.001387 -0.001781 0
-0.001123 -0.003137 0
-0.000729 -0.004113 0
-0.000282 -0.003625 0
0.000000 -0.001420 0
0.000000 0.002034 0
-0.000119 0.004368 0
-0.000419 0.003880 0
-0.000726 0.002326 0
-0.000952 0.001045 0
-0.001087 0.000234 0
-0.001152 -0.000218 0
-0.001173 -0.000443 0
-0.001170 -0.000541 0
-0.001154 -0.000572 0
-0.001131 -0.000572 0
-0.001104 -0.000559 0
-0.001074 -0.000542 0
-0.001041 -0.000526 0
-0.001005 -0.000510 0
-0.000967 -0.000496 0
-0.000928 -0.000483 0
-0.000886 -0.000472 0
-0.000843 -0.000462 0
-0.000799 -0.000453 0
-0.000753 -0.000445 0
-0.000707 -0.000437 0
-0.000660 -0.000430 0
-0.000613 -0.000423 0
-0.000565 -0.000417 0
-0.000517 -0.000411 0
-0.000469 -0.000407 0
-0.000421 -0.000406 0
-0.000373 -0.000411 0
-0.000325 -0.000422 0
-0.000276 -0.000443 0
-0.000225 -0.000469 0
-0.000172 -0.000495 0
-0.000118 -0.000500 0
-0.000065 -0.000453 0
-0.000021 -0.000305 0
0.000000 -0.000099 0
0.000000 0.000000 0
0.000000 0.000000 0
0.000000 0.000000 0
0.000000 0.000220 0
0.000033 0.000673 0
0.000094 0.000984 0
0.000155 0.001046 0
0.000203 0.000968 0