# vtk DataFile Version 2.0
generated by CFD-lab course output (written by Tobias Neckel) 
ASCII

DATASET STRUCTURED_GRID
DIMENSIONS  99 49 1 
POINTS 4851 float

0.000000 0.000000 0
0.020000 0.000000 0
0.040000 0.000000 0
0.060000 0.000000 0
0.080000 0.000000 0
0.100000 0.000000 0
0.120000 0.000000 0
0.140000 0.000000 0
0.160000 0.000000 0
0.180000 0.000000 0
0.200000 0.000000 0
0.220000 0.000000 0
0.240000 0.000000 0
0.260000 0.000000 0
0.280000 0.000000 0
0.300000 0.000000 0
0.320000 0.000000 0
0.340000 0.000000 0
0.360000 0.000000 0
0.380000 0.000000 0
0.400000 0.000000 0
0.420000 0.000000 0
0.440000 0.000000 0
0.460000 0.000000 0
0.480000 0.000000 0
0.500000 0.000000 0
0.520000 0.000000 0
0.540000 0.000000 0
0.560000 0.000000 0
0.580000 0.000000 0
0.600000 0.000000 0
0.620000 0.000000 0
0.640000 0.000000 0
0.660000 0.000000 0
0.680000 0.000000 0
0.700000 0.000000 0
0.720000 0.000000 0
0.740000 0.000000 0
0.760000 0.000000 0
0.780000 0.000000 0
0.800000 0.000000 0
0.820000 0.000000 0
0.840000 0.000000 0
0.860000 0.000000 0
0.880000 0.000000 0
0.900000 0.000000 0
0.920000 0.000000 0
0.940000 0.000000 0
0.960000 0.000000 0
0.980000 0.000000 0
1.000000 0.000000 0
1.020000 0.000000 0
1.040000 0.000000 0
1.060000 0.000000 0
1.080000 0.000000 0
1.100000 0.000000 0
1.120000 0.000000 0
1.140000 0.000000 0
1.160000 0.000000 0
1.180000 0.000000 0
1.200000 0.000000 0
1.220000 0.000000 0
1.240000 0.000000 0
1.260000 0.000000 0
1.280000 0.000000 0
1.300000 0.000000 0
1.320000 0.000000 0
1.340000 0.000000 0
1.360000 0.000000 0
1.380000 0.000000 0
1.400000 0.000000 0
1.420000 0.000000 0
1.440000 0.000000 0
1.460000 0.000000 0
1.480000 0.000000 0
1.500000 0.000000 0
1.520000 0.000000 0
1.540000 0.000000 0
1.560000 0.000000 0
1.580000 0.000000 0
1.600000 0.000000 0
1.620000 0.000000 0
1.640000 0.000000 0
1.660000 0.000000 0
1.680000 0.000000 0
1.700000 0.000000 0
1.720000 0.000000 0
1.740000 0.000000 0
1.760000 0.000000 0
1.780000 0.000000 0
1.800000 0.000000 0
1.820000 0.000000 0
1.840000 0.000000 0
1.860000 0.000000 0
1.880000 0.000000 0
1.900000 0.000000 0
1.920000 0.000000 0
1.940000 0.000000 0
1.960000 0.000000 0
0.000000 0.020000 0
0.020000 0.020000 0
0.040000 0.020000 0
0.060000 0.020000 0
0.080000 0.020000 0
0.100000 0.020000 0
0.120000 0.020000 0
0.140000 0.020000 0
0.160000 0.020000 0
0.180000 0.020000 0
0.200000 0.020000 0
0.220000 0.020000 0
0.240000 0.020000 0
0.260000 0.020000 0
0.280000 0.020000 0
0.300000 0.020000 0
0.320000 0.020000 0
0.340000 0.020000 0
0.360000 0.020000 0
0.380000 0.020000 0
0.400000 0.020000 0
0.420000 0.020000 0
0.440000 0.020000 0
0.460000 0.020000 0
0.480000 0.020000 0
0.500000 0.020000 0
0.520000 0.020000 0
0.540000 0.020000 0
0.560000 0.020000 0
0.580000 0.020000 0
0.600000 0.020000 0
0.620000 0.020000 0
0.640000 0.020000 0
0.660000 0.020000 0
0.680000 0.020000 0
0.700000 0.020000 0
0.720000 0.020000 0
0.740000 0.020000 0
0.760000 0.020000 0
0.780000 0.020000 0
0.800000 0.020000 0
0.820000 0.020000 0
0.840000 0.020000 0
0.860000 0.020000 0
0.880000 0.020000 0
0.900000 0.020000 0
0.920000 0.020000 0
0.940000 0.020000 0
0.960000 0.020000 0
0.980000 0.020000 0
1.000000 0.020000 0
1.020000 0.020000 0
1.040000 0.020000 0
1.060000 0.020000 0
1.080000 0.020000 0
1.100000 0.020000 0
1.120000 0.020000 0
1.140000 0.020000 0
1.160000 0.020000 0
1.180000 0.020000 0
1.200000 0.020000 0
1.220000 0.020000 0
1.240000 0.020000 0
1.260000 0.020000 0
1.280000 0.020000 0
1.300000 0.020000 0
1.320000 0.020000 0
1.340000 0.020000 0
1.360000 0.020000 0
1.380000 0.020000 0
1.400000 0.020000 0
1.420000 0.020000 0
1.440000 0.020000 0
1.460000 0.020000 0
1.480000 0.020000 0
1.500000 0.020000 0
1.520000 0.020000 0
1.540000 0.020000 0
1.560000 0.020000 0
1.580000 0.020000 0
1.600000 0.020000 0
1.620000 0.020000 0
1.640000 0.020000 0
1.660000 0.020000 0
1.680000 0.020000 0
1.700000 0.020000 0
1.720000 0.020000 0
1.740000 0.020000 0
1.760000 0.020000 0
1.780000 0.020000 0
1.800000 0.020000 0
1.820000 0.020000 0
1.840000 0.020000 0
1.860000 0.020000 0
1.880000 0.020000 0
1.900000 0.020000 0
1.920000 0.020000 0
1.940000 0.020000 0
1.960000 0.020000 0
0.000000 0.040000 0
0.020000 0.040000 0
0.040000 0.040000 0
0.060000 0.040000 0
0.080000 0.040000 0
0.100000 0.040000 0
0.120000 0.040000 0
0.140000 0.040000 0
0.160000 0.040000 0
0.180000 0.040000 0
0.200000 0.040000 0
0.220000 0.040000 0
0.240000 0.040000 0
0.260000 0.040000 0
0.280000 0.040000 0
0.300000 0.040000 0
0.320000 0.040000 0
0.340000 0.040000 0
0.360000 0.040000 0
0.380000 0.040000 0
0.400000 0.040000 0
0.420000 0.040000 0
0.440000 0.040000 0
0.460000 0.040000 0
0.480000 0.040000 0
0.500000 0.040000 0
0.520000 0.040000 0
0.540000 0.040000 0
0.560000 0.040000 0
0.580000 0.040000 0
0.600000 0.040000 0
0.620000 0.040000 0
0.640000 0.040000 0
0.660000 0.040000 0
0.680000 0.040000 0
0.700000 0.040000 0
0.720000 0.040000 0
0.740000 0.040000 0
0.760000 0.040000 0
0.780000 0.040000 0
0.800000 0.040000 0
0.820000 0.040000 0
0.840000 0.040000 0
0.860000 0.040000 0
0.880000 0.040000 0
0.900000 0.040000 0
0.920000 0.040000 0
0.940000 0.040000 0
0.960000 0.040000 0
0.980000 0.040000 0
1.000000 0.040000 0
1.020000 0.040000 0
1.040000 0.040000 0
1.060000 0.040000 0
1.080000 0.040000 0
1.100000 0.040000 0
1.120000 0.040000 0
1.140000 0.040000 0
1.160000 0.040000 0
1.180000 0.040000 0
1.200000 0.040000 0
1.220000 0.040000 0
1.240000 0.040000 0
1.260000 0.040000 0
1.280000 0.040000 0
1.300000 0.040000 0
1.320000 0.040000 0
1.340000 0.040000 0
1.360000 0.040000 0
1.380000 0.040000 0
1.400000 0.040000 0
1.420000 0.040000 0
1.440000 0.040000 0
1.460000 0.040000 0
1.480000 0.040000 0
1.500000 0.040000 0
1.520000 0.040000 0
1.540000 0.040000 0
1.560000 0.040000 0
1.580000 0.040000 0
1.600000 0.040000 0
1.620000 0.040000 0
1.640000 0.040000 0
1.660000 0.040000 0
1.680000 0.040000 0
1.700000 0.040000 0
1.720000 0.040000 0
1.740000 0.040000 0
1.760000 0.040000 0
1.780000 0.040000 0
1.800000 0.040000 0
1.820000 0.040000 0
1.840000 0.040000 0
1.860000 0.040000 0
1.880000 0.040000 0
1.900000 0.040000 0
1.920000 0.040000 0
1.940000 0.040000 0
1.960000 0.040000 0
0.000000 0.060000 0
0.020000 0.060000 0
0.040000 0.060000 0
0.060000 0.060000 0
0.080000 0.060000 0
0.100000 0.060000 0
0.120000 0.060000 0
0.140000 0.060000 0
0.160000 0.060000 0
0.180000 0.060000 0
0.200000 0.060000 0
0.220000 0.060000 0
0.240000 0.060000 0
0.260000 0.060000 0
0.280000 0.060000 0
0.300000 0.060000 0
0.320000 0.060000 0
0.340000 0.060000 0
0.360000 0.060000 0
0.380000 0.060000 0
0.400000 0.060000 0
0.420000 0.060000 0
0.440000 0.060000 0
0.460000 0.060000 0
0.480000 0.060000 0
0.500000 0.060000 0
0.520000 0.060000 0
0.540000 0.060000 0
0.560000 0.060000 0
0.580000 0.060000 0
0.600000 0.060000 0
0.620000 0.060000 0
0.640000 0.060000 0
0.660000 0.060000 0
0.680000 0.060000 0
0.700000 0.060000 0
0.720000 0.060000 0
0.740000 0.060000 0
0.760000 0.060000 0
0.780000 0.060000 0
0.800000 0.060000 0
0.820000 0.060000 0
0.840000 0.060000 0
0.860000 0.060000 0
0.880000 0.060000 0
0.900000 0.060000 0
0.920000 0.060000 0
0.940000 0.060000 0
0.960000 0.060000 0
0.980000 0.060000 0
1.000000 0.060000 0
1.020000 0.060000 0
1.040000 0.060000 0
1.060000 0.060000 0
1.080000 0.060000 0
1.100000 0.060000 0
1.120000 0.060000 0
1.140000 0.060000 0
1.160000 0.060000 0
1.180000 0.060000 0
1.200000 0.060000 0
1.220000 0.060000 0
1.240000 0.060000 0
1.260000 0.060000 0
1.280000 0.060000 0
1.300000 0.060000 0
1.320000 0.060000 0
1.340000 0.060000 0
1.360000 0.060000 0
1.380000 0.060000 0
1.400000 0.060000 0
1.420000 0.060000 0
1.440000 0.060000 0
1.460000 0.060000 0
1.480000 0.060000 0
1.500000 0.060000 0
1.520000 0.060000 0
1.540000 0.060000 0
1.560000 0.060000 0
1.580000 0.060000 0
1.600000 0.060000 0
1.620000 0.060000 0
1.640000 0.060000 0
1.660000 0.060000 0
1.680000 0.060000 0
1.700000 0.060000 0
1.720000 0.060000 0
1.740000 0.060000 0
1.760000 0.060000 0
1.780000 0.060000 0
1.800000 0.060000 0
1.820000 0.060000 0
1.840000 0.060000 0
1.860000 0.060000 0
1.880000 0.060000 0
1.900000 0.060000 0
1.920000 0.060000 0
1.940000 0.060000 0
1.960000 0.060000 0
0.000000 0.080000 0
0.020000 0.080000 0
0.040000 0.080000 0
0.060000 0.080000 0
0.080000 0.080000 0
0.100000 0.080000 0
0.120000 0.080000 0
0.140000 0.080000 0
0.160000 0.080000 0
0.180000 0.080000 0
0.200000 0.080000 0
0.220000 0.080000 0
0.240000 0.080000 0
0.260000 0.080000 0
0.280000 0.080000 0
0.300000 0.080000 0
0.320000 0.080000 0
0.340000 0.080000 0
0.360000 0.080000 0
0.380000 0.080000 0
0.400000 0.080000 0
0.420000 0.080000 0
0.440000 0.080000 0
0.460000 0.080000 0
0.480000 0.080000 0
0.500000 0.080000 0
0.520000 0.080000 0
0.540000 0.080000 0
0.560000 0.080000 0
0.580000 0.080000 0
0.600000 0.080000 0
0.620000 0.080000 0
0.640000 0.080000 0
0.660000 0.080000 0
0.680000 0.080000 0
0.700000 0.080000 0
0.720000 0.080000 0
0.740000 0.080000 0
0.760000 0.080000 0
0.780000 0.080000 0
0.800000 0.080000 0
0.820000 0.080000 0
0.840000 0.080000 0
0.860000 0.080000 0
0.880000 0.080000 0
0.900000 0.080000 0
0.920000 0.080000 0
0.940000 0.080000 0
0.960000 0.080000 0
0.980000 0.080000 0
1.000000 0.080000 0
1.020000 0.080000 0
1.040000 0.080000 0
1.060000 0.080000 0
1.080000 0.080000 0
1.100000 0.080000 0
1.120000 0.080000 0
1.140000 0.080000 0
1.160000 0.080000 0
1.180000 0.080000 0
1.200000 0.080000 0
1.220000 0.080000 0
1.240000 0.080000 0
1.260000 0.080000 0
1.280000 0.080000 0
1.300000 0.080000 0
1.320000 0.080000 0
1.340000 0.080000 0
1.360000 0.080000 0
1.380000 0.080000 0
1.400000 0.080000 0
1.420000 0.080000 0
1.440000 0.080000 0
1.460000 0.080000 0
1.480000 0.080000 0
1.500000 0.080000 0
1.520000 0.080000 0
1.540000 0.080000 0
1.560000 0.080000 0
1.580000 0.080000 0
1.600000 0.080000 0
1.620000 0.080000 0
1.640000 0.080000 0
1.660000 0.080000 0
1.680000 0.080000 0
1.700000 0.080000 0
1.720000 0.080000 0
1.740000 0.080000 0
1.760000 0.080000 0
1.780000 0.080000 0
1.800000 0.080000 0
1.820000 0.080000 0
1.840000 0.080000 0
1.860000 0.080000 0
1.880000 0.080000 0
[...]
POINT_DATA 4851 

VECTORS velocity float
0.000000 0.000000 0
-0.000377 0.000000 0
-0.000513 0.000000 0
-0.000479 0.000000 0
-0.000403 0.000000 0
-0.000336 0.000000 0
-0.000285 0.000000 0
-0.000248 0.000000 0
-0.000220 0.000000 0
-0.000199 0.000000 0
-0.000182 0.000000 0
-0.000168 0.000000 0
-0.000156 0.000000 0
-0.000145 0.000000 0
-0.000135 0.000000 0
-0.000126 0.000000 0
-0.000117 0.000000 0
-0.000110 0.000000 0
-0.000102 0.000000 0
-0.000095 0.000000 0
-0.000089 0.000000 0
-0.000082 0.000000 0
-0.000076 0.000000 0
-0.000070 0.000000 0
-0.000065 0.000000 0
-0.000059 0.000000 0
-0.000054 0.000000 0
-0.000049 0.000000 0
-0.000044 0.000000 0
-0.000039 0.000000 0
-0.000034 0.000000 0
-0.000029 0.000000 0
-0.000024 0.000000 0
-0.000017 0.000000 0
-0.000009 0.000000 0
-0.000003 0.000000 0
0.000000 0.000000 0
0.000000 0.000000 0
0.000000 0.000000 0
0.000000 0.000000 0
0.000000 0.000000 0
-0.000016 0.000000 0
-0.000052 0.000000 0
-0.000089 0.000000 0
-0.000120 0.000000 0
-0.000142 0.000000 0
-0.000157 0.000000 0
-0.000166 0.000000 0
-0.000172 0.000000 0
-0.000176 0.000000 0
-0.000178 0.000000 0
-0.000181 0.000000 0
-0.000183 0.000000 0
-0.000185 0.000000 0
-0.000187 0.000000 0
-0.000188 0.000000 0
-0.000190 0.000000 0
-0.000191 0.000000 0
-0.000192 0.000000 0
-0.000194 0.000000 0
-0.000195 0.000000 0
-0.000196 0.000000 0
-0.000197 0.000000 0
-0.000198 0.000000 0
-0.000199 0.000000 0
-0.000200 0.000000 0
-0.000201 0.000000 0
-0.000202 0.000000 0
-0.000203 0.000000 0
-0.000204 0.000000 0
-0.000205 0.000000 0
-0.000206 0.000000 0
-0.000206 0.000000 0
-0.000207 0.000000 0
-0.000208 0.000000 0
-0.000209 0.000000 0
-0.000210 0.000000 0
-0.000211 0.000000 0
-0.000211 0.000000 0
-0.000212 0.000000 0
-0.000211 0.000000 0
-0.000211 0.000000 0
-0.000210 0.000000 0
-0.000208 0.000000 0
-0.000207 0.000000 0
-0.000206 0.000000 0
-0.000208 0.000000 0
-0.000213 0.000000 0
-0.000222 0.000000 0
-0.000237 0.000000 0
-0.000257 0.000000 0
-0.000279 0.000000 0
-0.000298 0.000000 0
-0.000307 0.000000 0
-0.000295 0.000000 0
-0.000251 0.000000 0
-0.000170 0.000000 0
-0.000068 0.000000 0
0.000000 0.000000 0
0.000000 0.000378 0
-0.000752 0.000514 0
-0.001187 0.000102 0
-0.001250 -0.000109 0
-0.001155 -0.000142 0
-0.001027 -0.000118 0
-0.000910 -0.000087 0
-0.000813 -0.000064 0
-0.000735 -0.000048 0
-0.000672 -0.000038 0
-0.000618 -0.000031 0
-0.000572 -0.000026 0
-0.000532 -0.000023 0
-0.000496 -0.000020 0
-0.000464 -0.000018 0
-0.000433 -0.000017 0
-0.000405 -0.000015 0
-0.000379 -0.000014 0
-0.000354 -0.000014 0
-0.000330 -0.000013 0
-0.000308 -0.000012 0
-0.000286 -0.000012 0
-0.000265 -0.000011 0
-0.000244 -0.000011 0
-0.000225 -0.000011 0
-0.000205 -0.000010 0
-0.000187 -0.000010 0
-0.000169 -0.000009 0
-0.000151 -0.000009 0
-0.000134 -0.000009 0
-0.000117 -0.000009 0
-0.000099 -0.000010 0
-0.000078 -0.000012 0
-0.000056 -0.000013 0
-0.000032 -0.000013 0
-0.000010 -0.000009 0
0.000000 -0.000002 0
0.000000 0.000000 0
0.000000 0.000000 0
0.000000 0.000000 0
0.000000 0.000016 0
-0.000051 0.000051 0
-0.000151 0.000072 0
-0.000260 0.000068 0
-0.000355 0.000053 0
-0.000428 0.000036 0
-0.000480 0.000023 0
-0.000516 0.000014 0
-0.000542 0.000009 0
-0.000560 0.000006 0
-0.000574 0.000005 0
-0.000585 0.000004 0
-0.000595 0.000003 0
-0.000604 0.000003 0
-0.000611 0.000003 0
-0.000618 0.000003 0
-0.000625 0.000003 0
-0.000631 0.000002 0
-0.000636 0.000002 0
-0.000641 0.000002 0
-0.000646 0.000002 0
-0.000651 0.000002 0
-0.000655 0.000002 0
-0.000659 0.000002 0
-0.000663 0.000002 0
-0.000667 0.000002 0
-0.000670 0.000001 0
-0.000673 0.000001 0
-0.000677 0.000001 0
-0.000680 0.000001 0
-0.000683 0.000001 0
-0.000685 0.000001 0
-0.000688 0.000001 0
-0.000691 0.000001 0
-0.000694 0.000001 0
-0.000696 0.000001 0
-0.000699 0.000001 0
-0.000701 0.000001 0
-0.000702 0.000000 0
-0.000702 -0.000000 0
-0.000701 -0.000001 0
-0.000698 -0.000002 0
-0.000695 -0.000003 0
-0.000690 -0.000003 0
-0.000686 -0.000002 0
-0.000686 0.000001 0
-0.000692 0.000006 0
-0.000708 0.000014 0
-0.000737 0.000024 0
-0.000780 0.000034 0
-0.000834 0.000041 0
-0.000891 0.000041 0
-0.000935 0.000028 0
-0.000942 -0.000003 0
-0.000882 -0.000057 0
-0.000731 -0.000126 0
-0.000484 -0.000184 0
-0.000191 -0.000170 0
0.000000 -0.000068 0
0.000000 0.000753 0
-0.000648 0.001189 0
-0.001268 0.000499 0
-0.001548 -0.000031 0
-0.001585 -0.000222 0
-0.001512 -0.000244 0
-0.001403 -0.000213 0
-0.001293 -0.000174 0
-0.001192 -0.000141 0
-0.001103 -0.000116 0
-0.001025 -0.000098 0
-0.000955 -0.000085 0
-0.000893 -0.000075 0
-0.000836 -0.000068 0
-0.000783 -0.000062 0
-0.000735 -0.000057 0
-0.000689 -0.000054 0
-0.000645 -0.000050 0
-0.000604 -0.000048 0
-0.000564 -0.000046 0
-0.000526 -0.000044 0
-0.000489 -0.000042 0
-0.000453 -0.000041 0
-0.000419 -0.000039 0
-0.000385 -0.000038 0
-0.000352 -0.000037 0
-0.000320 -0.000036 0
-0.000289 -0.000035 0
-0.000258 -0.000034 0
-0.000228 -0.000034 0
-0.000197 -0.000035 0
-0.000164 -0.000038 0
-0.000129 -0.000042 0
-0.000092 -0.000046 0
-0.000053 -0.000044 0
-0.000018 -0.000031 0
0.000000 -0.000010 0
0.000000 0.000000 0
0.000000 0.000000 0
0.000000 0.000000 0
0.000000 0.000050 0
-0.000072 0.000150 0
-0.000208 0.000209 0
-0.000362 0.000203 0
-0.000503 0.000167 0
-0.000619 0.000125 0
-0.000709 0.000088 0
-0.000776 0.000061 0
-0.000827 0.000043 0
-0.000865 0.000032 0
-0.000896 0.000025 0
-0.000920 0.000020 0
-0.000941 0.000018 0
-0.000960 0.000016 0
-0.000976 0.000014 0
-0.000991 0.000013 0
-0.001005 0.000012 0
-0.001017 0.000011 0
-0.001028 0.000010 0
-0.001039 0.000009 0
-0.001048 0.000009 0
-0.001057 0.000008 0
-0.001066 0.000008 0
-0.001073 0.000007 0
-0.001081 0.000007 0
-0.001087 0.000007 0
-0.001094 0.000006 0
-0.001100 0.000006 0
-0.001106 0.000006 0
-0.001111 0.000005 0
-0.001116 0.000005 0
-0.001121 0.000005 0
-0.001125 0.000005 0
-0.001130 0.000005 0
-0.001134 0.000005 0
-0.001138 0.000004 0
-0.001141 0.000004 0
-0.001144 0.000003 0
-0.001145 0.000001 0
-0.001145 -0.000001 0
-0.001142 -0.000004 0
-0.001138 -0.000007 0
-0.001132 -0.000009 0
-0.001125 -0.000009 0
-0.001120 -0.000005 0
-0.001120 0.000005 0
-0.001130 0.000022 0
-0.001154 0.000045 0
-0.001196 0.000072 0
-0.001256 0.000097 0
-0.001328 0.000111 0
-0.001397 0.000100 0
-0.001438 0.000050 0
-0.001419 -0.000053 0
-0.001300 -0.000211 0
-0.001052 -0.000399 0
-0.000682 -0.000541 0
-0.000265 -0.000485 0
0.000000 -0.000191 0
0.000000 0.001026 0
-0.000461 0.001783 0
-0.001067 0.001002 0
-0.001458 0.000208 0
-0.001619 -0.000178 0
-0.001636 -0.000299 0
-0.001582 -0.000306 0
-0.001500 -0.000275 0
-0.001412 -0.000237 0
-0.001326 -0.000204 0
-0.001246 -0.000178 0
-0.001171 -0.000158 0
-0.001101 -0.000142 0
-0.001036 -0.000129 0
-0.000975 -0.000119 0
-0.000918 -0.000111 0
-0.000863 -0.000105 0
-0.000811 -0.000099 0
-0.000760 -0.000094 0
-0.000712 -0.000090 0
-0.000664 -0.000087 0
-0.000619 -0.000084 0
-0.000574 -0.000081 0
-0.000530 -0.000079 0
-0.000488 -0.000077 0
-0.000446 -0.000075 0
-0.000405 -0.000073 0
-0.000365 -0.000071 0
-0.000326 -0.000070 0
-0.000286 -0.000070 0
-0.000246 -0.000072 0
-0.000204 -0.000077 0
-0.000160 -0.000084 0
-0.000113 -0.000090 0
-0.000065 -0.000086 0
-0.000022 -0.000061 0
0.000000 -0.000020 0
0.000000 0.000000 0
0.000000 0.000000 0
0.000000 0.000000 0
0.000000 0.000087 0
-0.000070 0.000259 0
-0.000207 0.000362 0
-0.000366 0.000362 0
-0.000520 0.000310 0
-0.000654 0.000242 0
-0.000763 0.000180 0
-0.000850 0.000132 0
-0.000919 0.000098 0
-0.000974 0.000075 0
-0.001019 0.000060 0
-0.001056 0.000050 0
-0.001088 0.000043 0
-0.001117 0.000038 0
-0.001142 0.000034 0
-0.001165 0.000031 0
-0.001185 0.000028 0
-0.001204 0.000026 0
-0.001221 0.000024 0
-0.001237 0.000022 0
-0.001251 0.000020 0
-0.001265 0.000019 0
-0.001277 0.000018 0
-0.001288 0.000016 0
-0.001298 0.000015 0
-0.001308 0.000015 0
-0.001317 0.000014 0
-0.001326 0.000013 0
-0.001333 0.000012 0
-0.001341 0.000012 0
-0.001348 0.000011 0
-0.001354 0.000010 0
-0.001360 0.000010 0
-0.001366 0.000010 0
-0.001371 0.000009 0
-0.001375 0.000008 0
-0.001379 0.000007 0
-0.001382 0.000005 0
-0.001384 0.000001 0
-0.001383 -0.000003 0
-0.001381 -0.000008 0
-0.001376 -0.000013 0
-0.001369 -0.000016 0
-0.001362 -0.000015 0
-0.001357 -0.000007 0
-0.001357 0.000011 0
-0.001368 0.000040 0
-0.001395 0.000080 0
-0.001439 0.000126 0
-0.001500 0.000165 0
-0.001571 0.000181 0
-0.001634 0.000151 0
-0.001661 0.000050 0
-0.001616 -0.000143 0
-0.001459 -0.000424 0
-0.001164 -0.000744 0
-0.000743 -0.000971 0
-0.000284 -0.000852 0
0.000000 -0.000333 0
0.000000 0.001215 0
-0.000316 0.002257 0
-0.000839 0.001496 0
-0.001249 0.000521 0
-0.001475 -0.000044 0
-0.001560 -0.000281 0
-0.001560 -0.000348 0
-0.001517 -0.000343 0
-0.001456 -0.000315 0
-0.001387 -0.000282 0
-0.001318 -0.000253 0
-0.001250 -0.000229 0
-0.001184 -0.000209 0
-0.001121 -0.000193 0
-0.001060 -0.000180 0
-0.001002 -0.000170 0
-0.000945 -0.000161 0
-0.000890 -0.000153 0
-0.000837 -0.000147 0
-0.000785 -0.000141 0
-0.000734 -0.000136 0
-0.000685 -0.000132 0
-0.000636 -0.000128 0
-0.000588 -0.000125 0
-0.000541 -0.000122 0
-0.000495 -0.000119 0
-0.000450 -0.000116 0
-0.000405 -0.000114 0
-0.000360 -0.000113 0
-0.000316 -0.000113 0
-0.000270 -0.000117 0
-0.000224 -0.000124 0
-0.000174 -0.000133 0
-0.000122 -0.000141 0
-0.000070 -0.000134 0
-0.000024 -0.000095 0
0.000000 -0.000032 0
0.000000 0.000000 0
0.000000 0.000000 0
0.000000 0.000000 0
0.000000 0.000119 0
-0.000056 0.000356 0
-0.000173 0.000505 0
-0.000315 0.000516 0
-0.000458 0.000454 0
-0.000589 0.000368 0
-0.000701 0.000284 0
-0.000795 0.000217 0
-0.000873 0.000166 0
-0.000938 0.000131 0
-0.000993 0.000107 0
-0.001040 0.000090 0
-0.001082 0.000078 0
-0.001119 0.000069 0
-0.001152 0.000062 0
-0.001183 0.000056 0
-0.001211 0.000051 0
-0.001236 0.000047 0
-0.001259 0.000043 0
-0.001280 0.000039 0
-0.001299 0.000036 0
-0.001316 0.000033 0
-0.001332 0.000031 0
-0.001346 0.000029 0
-0.001360 0.000027 0
-0.001372 0.000025 0
-0.001384 0.000023 0
-0.001394 0.000022 0
-0.001404 0.000021 0
-0.001413 0.000019 0
-0.001422 0.000018 0
-0.001430 0.000017 0
-0.001438 0.000016 0
-0.001445 0.000015 0
-0.001451 0.000014 0
-0.001457 0.000013 0
-0.001462 0.000010 0
-0.001466 0.000007 0
-0.001468 0.000002 0
-0.001469 -0.000004 0
-0.001468 -0.000012 0
-0.001464 -0.000019 0
-0.001459 -0.000023 0
-0.001453 -0.000021 0
-0.001449 -0.000010 0
-0.001450 0.000016 0
-0.001461 0.000059 0
-0.001485 0.000115 0
-0.001526 0.000177 0
-0.001582 0.000229 0
-0.001645 0.000244 0
-0.001698 0.000190 0
-0.001712 0.000032 0
-0.001652 -0.000255 0
-0.001478 -0.000663 0
-0.001169 -0.001115 0
-0.000739 -0.001421 0
-0.000279 -0.001228 0
0.000000 -0.000475 0
0.000000 0.001343 0
-0.000217 0.002623 0
-0.000648 0.001935 0
-0.001029 0.000844 0
-0.001272 0.000133 0
-0.001392 -0.000214 0
-0.001429 -0.000348 0
-0.001418 -0.000379 0
-0.001383 -0.000367 0
-0.001335 -0.000342 0
-0.001282 -0.000315 0
-0.001227 -0.000291 0
-0.001172 -0.000270 0
-0.001116 -0.000253 0
-0.001061 -0.000238 0
-0.001007 -0.000226 0
-0.000954 -0.000216 0
-0.000901 -0.000207 0
-0.000850 -0.000199 0
-0.000799 -0.000193 0
-0.000749 -0.000187 0
-0.000699 -0.000182 0
-0.000650 -0.000178 0
-0.000602 -0.000174 0
-0.000554 -0.000170 0
-0.000507 -0.000166 0
-0.000460 -0.000163 0
-0.000414 -0.000160 0
-0.000368 -0.000158 0
-0.000322 -0.000159 0
-0.000275 -0.000164 0
-0.000227 -0.000173 0
-0.000176 -0.000185 0
-0.000123 -0.000194 0
-0.000070 -0.000184 0
-0.000024 -0.000130 0
0.000000 -0.000044 0
0.000000 0.000000 0
0.000000 0.000000 0
0.000000 0.000000 0
0.000000 0.000143 0
-0.000039 0.000432 0
-0.000125 0.000621 0
-0.000236 0.000647 0
-0.000353 0.000583 0
-0.000466 0.000485 0
-0.000568 0.000387 0
-0.000658 0.000304 0
-0.000736 0.000240 0
-0.000803 0.000194 0
-0.000863 0.000162 0
-0.000916 0.000138 0
-0.000964 0.000121 0
-0.001008 0.000108 0
-0.001048 0.000098 0
-0.001086 0.000089 0
-0.001120 0.000081 0
-0.001151 0.000074 0
-0.001180 0.000067 0
-0.001206 0.000062 0
-0.001230 0.000057 0
-0.001252 0.000052 0
-0.001271 0.000048 0
-0.001289 0.000044 0
-0.001305 0.000041 0
-0.001320 0.000038 0
-0.001334 0.000036 0
-0.001347 0.000033 0
-0.001359 0.000031 0
-0.001370 0.000029 0
-0.001380 0.000027 0
-0.001390 0.000026 0
-0.001400 0.000024 0
-0.001408 0.000023 0
-0.001416 0.000021 0
-0.001424 0.000019 0
-0.001431 0.000016 0
-0.001437 0.000011 0
-0.001442 0.000004 0
-0.001445 -0.000004 0
-0.001447 -0.000013 0
-0.001446 -0.000022 0
-0.001444 -0.000028 0
-0.001442 -0.000025 0
-0.001440 -0.000010 0
-0.001443 0.000022 0
-0.001453 0.000075 0
-0.001475 0.000145 0
-0.001510 0.000222 0
-0.001558 0.000284 0
-0.001612 0.000297 0
-0.001655 0.000218 0
-0.001661 0.000003 0
-0.001595 -0.000377 0
-0.001422 -0.000906 0
-0.001120 -0.001483 0
-0.000705 -0.001862 0
-0.000264 -0.001591 0
0.000000 -0.000612 0
0.000000 0.001432 0
-0.000150 0.002905 0
-0.000499 0.002308 0
-0.000835 0.001146 0
-0.001068 0.000319 0
-0.001197 -0.000124 0
-0.001251 -0.000321 0
-0.001260 -0.000389 0
-0.001244 -0.000397 0
-0.001215 -0.000383 0
-0.001178 -0.000361 0
-0.001137 -0.000339 0
-0.001093 -0.000320 0
-0.001048 -0.000303 0
-0.001002 -0.000289 0
-0.000955 -0.000277 0
-0.000908 -0.000266 0
-0.000861 -0.000257 0
-0.000814 -0.000249 0
-0.000767 -0.000242 0
-0.000721 -0.000236 0
-0.000674 -0.000230 0
-0.000628 -0.000225 0
-0.000581 -0.000221 0
-0.000536 -0.000217 0
-0.000490 -0.000213 0
-0.000445 -0.000209 0
-0.000400 -0.000206 0
-0.000355 -0.000204 0
-0.000310 -0.000206 0
-0.000264 -0.000212 0
-0.000217 -0.000223 0
-0.000167 -0.000237 0
-0.000116 -0.000247 0
-0.000065 -0.000233 0
-0.000022 -0.000164 0
0.000000 -0.000056 0
0.000000 0.000000 0
0.000000 0.000000 0
0.000000 0.000000 0
0.000000 0.000158 0
-0.000021 0.000481 0
-0.000074 0.000702 0
-0.000147 0.000744 0
-0.000231 0.000685 0
-0.000316 0.000582 0
-0.000398 0.000476 0
-0.000474 0.000383 0
-0.000544 0.000311 0
-0.000607 0.000258 0
-0.000666 0.000219 0
-0.000720 0.000191 0
-0.000772 0.000170 0
-0.000820 0.000154 0
-0.000866 0.000140 0
-0.000909 0.000128 0
-0.000949 0.000117 0
-0.000986 0.000107 0
-0.001021 0.000098 0
-0.001052 0.000089 0
-0.001081 0.000081 0
-0.001107 0.000074 0
-0.001130 0.000068 0
-0.001151 0.000063 0
-0.001170 0.000058 0
-0.001187 0.000054 0
-0.001203 0.000050 0
-0.001218 0.000047 0
-0.001232 0.000044 0
-0.001245 0.000041 0
-0.001258 0.000039 0
-0.001270 0.000036 0
-0.001282 0.000034 0
-0.001293 0.000032 0
-0.001303 0.000030 0
-0.001313 0.000027 0
-0.001323 0.000023 0
-0.001331 0.000018 0
-0.001340 0.000010 0
-0.001347 0.000000 0
-0.001353 -0.000011 0
-0.001357 -0.000021 0
-0.001360 -0.000028 0
-0.001362 -0.000026 0
-0.001365 -0.000009 0
-0.001370 0.000029 0
-0.001380 0.000090 0
-0.001399 0.000172 0
-0.001429 0.000261 0
-0.001469 0.000331 0
-0.001514 0.000341 0
-0.001549 0.000239 0
-0.001550 -0.000029 0
-0.001486 -0.000495 0
-0.001323 -0.001139 0
-0.001041 -0.001832 0
-0.000655 -0.002277 0
-0.000245 -0.001933 0
0.000000 -0.000739 0
0.000000 0.001494 0
-0.000105 0.003123 0
-0.000387 0.002620 0
-0.000677 0.001413 0
-0.000887 0.000495 0
-0.001009 -0.000031 0
-0.001067 -0.000284 0
-0.001084 -0.000385 0
-0.001079 -0.000412 0
-0.001061 -0.000408 0
-0.001037 -0.000393 0
-0.001008 -0.000375 0
-0.000976 -0.000358 0
-0.000941 -0.000344 0
-0.000905 -0.000331 0
-0.000867 -0.000319 0
-0.000827 -0.000309 0
-0.000787 -0.000301 0
-0.000746 -0.000293 0
-0.000705 -0.000286 0
-0.000663 -0.000280 0
-0.000621 -0.000275 0
-0.000579 -0.000270 0
-0.000537 -0.000265 0
-0.000495 -0.000261 0
-0.000453 -0.000257 0
-0.000411 -0.000253 0
-0.000369 -0.000249 0
-0.000328 -0.000248 0
-0.000286 -0.000250 0
-0.000243 -0.000257 0
-0.000198 -0.000270 0
-0.000152 -0.000286 0
-0.000104 -0.000296 0
-0.000058 -0.000278 0
-0.000019 -0.000195 0
0.000000 -0.000066 0
0.000000 0.000000 0
0.000000 0.000000 0
0.000000 0.000000 0
0.000000 0.000164 0
-0.000006 0.000505 0
-0.000027 0.000747 0
-0.000062 0.000804 0
-0.000108 0.000752 0
-0.000161 0.000652 0
-0.000216 0.000544 0
-0.000272 0.000449 0
-0.000327 0.000373 0
-0.000381 0.000316 0
-0.000434 0.000275 0
-0.000485 0.000244 0
-0.000536 0.000221 0
-0.000586 0.000202 0
-0.000634 0.000186 0
-0.000681 0.000172 0
-0.000727 0.000158 0
-0.000769 0.000145 0
-0.000810 0.000133 0
-0.000847 0.000122 0
-0.000880 0.000111 0
-0.000911 0.000101 0
-0.000938 0.000092 0
-0.000962 0.000084 0
-0.000984 0.000077 0
-0.001004 0.000071 0
-0.001022 0.000066 0
-0.001039 0.000062 0
-0.001055 0.000058 0
-0.001070 0.000055 0
-0.001085 0.000052 0
-0.001100 0.000049 0
-0.001114 0.000047 0
-0.001127 0.000044 0
-0.001140 0.000041 0
-0.001153 0.000038 0
-0.001166 0.000034 0
-0.001178 0.000028 0
-0.001190 0.000020 0
-0.001202 0.000009 0
-0.001213 -0.000003 0
-0.001223 -0.000015 0
-0.001232 -0.000023 0
-0.001240 -0.000021 0
-0.001247 -0.000003 0
-0.001256 0.000037 0
-0.001267 0.000104 0
-0.001284 0.000194 0
-0.001309 0.000293 0
-0.001342 0.000369 0
-0.001378 0.000377 0
-0.001406 0.000254 0
-0.001405 -0.000061 0
-0.001346 -0.000604 0
-0.001200 -0.001351 0
-0.000947 -0.002151 0
-0.000597 -0.002658 0
-0.000224 -0.002246 0
0.000000 -0.000857 0
0.000000 0.001537 0
-0.000073 0.003293 0
-0.000303 0.002881 0
-0.000551 0.001646 0
-0.000735 0.000652 0
-0.000844 0.000056 0
-0.000897 -0.000247 0
-0.000914 -0.000377 0
-0.000912 -0.000420 0
-0.000901 -0.000424 0
-0.000885 -0.000414 0
-0.000865 -0.000400 0
-0.000842 -0.000387 0
-0.000817 -0.000374 0
-0.000789 -0.000363 0
-0.000759 -0.000354 0
-0.000727 -0.000345 0
-0.000694 -0.000338 0
-0.000660 -0.000331 0
-0.000625 -0.000325 0
-0.000589 -0.000319 0
-0.000552 -0.000314 0
-0.000515 -0.000310 0
-0.000478 -0.000305 0
-0.000440 -0.000301 0
-0.000403 -0.000296 0
-0.000365 -0.000292 0
-0.000328 -0.000289 0
-0.000291 -0.000288 0
-0.000253 -0.000290 0
-0.000214 -0.000299 0
-0.000174 -0.000313 0
-0.000133 -0.000331 0
-0.000090 -0.000341 0
-0.000049 -0.000318 0
-0.000016 -0.000222 0
0.000000 -0.000075 0
0.000000 0.000000 0
0.000000 0.000000 0
0.000000 0.000000 0
0.000000 0.000164 0
0.000006 0.000508 0
0.000013 0.000758 0
0.000014 0.000825 0
0.000005 0.000783 0
-0.000014 0.000691 0
-0.000040 0.000587 0
-0.000072 0.000494 0
-0.000109 0.000420 0
-0.000149 0.000364 0
-0.000191 0.000323 0
-0.000236 0.000294 0
-0.000282 0.000271 0
-0.000330 0.000252 0
-0.000379 0.000235 0
-0.000428 0.000220 0
-0.000476 0.000205 0
-0.000524 0.000190 0
-0.000569 0.000175 0
-0.000612 0.000160 0
-0.000652 0.000145 0
-0.000688 0.000132 0
-0.000720 0.000119 0
-0.000748 0.000108 0
-0.000773 0.000099 0
-0.000795 0.000091 0
-0.000815 0.000085 0
-0.000833 0.000080 0
-0.000851 0.000075 0
-0.000868 0.000071 0
-0.000885 0.000068 0
-0.000902 0.000065 0
-0.000919 0.000062 0
-0.000935 0.000059 0
-0.000951 0.000056 0
-0.000967 0.000052 0
-0.000983 0.000048 0
-0.000999 0.000042 0
-0.001015 0.000034 0
-0.001031 0.000023 0
-0.001048 0.000010 0
-0.001064 -0.000002 0
-0.001079 -0.000011 0
-0.001093 -0.000010 0
-0.001106 0.000007 0
-0.001118 0.000048 0
-0.001131 0.000118 0
-0.001147 0.000214 0
-0.001168 0.000319 0
-0.001194 0.000400 0
-0.001222 0.000405 0
-0.001244 0.000265 0
-0.001242 -0.000089 0
-0.001191 -0.000700 0
-0.001066 -0.001538 0
-0.000845 -0.002435 0
-0.000537 -0.003000 0
-0.000203 -0.002530 0
0.000000 -0.000963 0
0.000000 0.001568 0
-0.000052 0.003426 0
-0.000240 0.003098 0
-0.000452 0.001846 0
-0.000613 0.000788 0
-0.000707 0.000130 0
-0.000750 -0.000215 0
-0.000763 -0.000369 0
-0.000761 -0.000425 0
-0.000752 -0.000435 0
-0.000740 -0.000429 0
-0.000725 -0.000418 0
-0.000709 -0.000407 0
-0.000691 -0.000397 0
-0.000670 -0.000388 0
-0.000647 -0.000381 0
-0.000622 -0.000374 0
-0.000595 -0.000368 0
-0.000567 -0.000362 0
-0.000538 -0.000357 0
-0.000508 -0.000353 0
-0.000476 -0.000348 0
-0.000445 -0.000344 0
-0.000412 -0.000340 0
-0.000380 -0.000336 0
-0.000347 -0.000331 0
-0.000315 -0.000327 0
-0.000282 -0.000324 0
-0.000250 -0.000323 0
-0.000217 -0.000326 0
-0.000183 -0.000336 0
-0.000148 -0.000352 0
-0.000112 -0.000370 0
-0.000075 -0.000379 0
-0.000040 -0.000352 0
-0.000012 -0.000244 0
0.000000 -0.000082 0
0.000000 0.000000 0
0.000000 0.000000 0
0.000000 0.000000 0
0.000000 0.000158 0
0.000015 0.000492 0
0.000045 0.000739 0
0.000076 0.000812 0