# vtk DataFile Version 2.0
generated by CFD-lab course output (written by Tobias Neckel) 
ASCII

DATASET STRUCTURED_GRID
DIMENSIONS  99 49 1 
POINTS 4851 float

0.000000 0.000000 0
0.020000 0.000000 0
0.040000 0.000000 0
0.060000 0.000000 0
0.080000 0.000000 0
0.100000 0.000000 0
0.120000 0.000000 0
0.140000 0.000000 0
0.160000 0.000000 0
0.180000 0.000000 0
0.200000 0.000000 0
0.220000 0.000000 0
0.240000 0.000000 0
0.260000 0.000000 0
0.280000 0.000000 0
0.300000 0.000000 0
0.320000 0.000000 0
0.340000 0.000000 0
0.360000 0.000000 0
0.380000 0.000000 0
0.400000 0.000000 0
0.420000 0.000000 0
0.440000 0.000000 0
0.460000 0.000000 0
0.480000 0.000000 0
0.500000 0.000000 0
0.520000 0.000000 0
0.540000 0.000000 0
0.560000 0.000000 0
0.580000 0.000000 0
0.600000 0.000000 0
0.620000 0.000000 0
0.640000 0.000000 0
0.660000 0.000000 0
0.680000 0.000000 0
0.700000 0.000000 0
0.720000 0.000000 0
0.740000 0.000000 0
0.760000 0.000000 0
0.780000 0.000000 0
0.800000 0.000000 0
0.820000 0.000000 0
0.840000 0.000000 0
0.860000 0.000000 0
0.880000 0.000000 0
0.900000 0.000000 0
0.920000 0.000000 0
0.940000 0.000000 0
0.960000 0.000000 0
0.980000 0.000000 0
1.000000 0.000000 0
1.020000 0.000000 0
1.040000 0.000000 0
1.060000 0.000000 0
1.080000 0.000000 0
1.100000 0.000000 0
1.120000 0.000000 0
1.140000 0.000000 0
1.160000 0.000000 0
1.180000 0.000000 0
1.200000 0.000000 0
1.220000 0.000000 0
1.240000 0.000000 0
1.260000 0.000000 0
1.280000 0.000000 0
1.300000 0.000000 0
1.320000 0.000000 0
1.340000 0.000000 0
1.360000 0.000000 0
1.380000 0.000000 0
1.400000 0.000000 0
1.420000 0.000000 0
1.440000 0.000000 0
1.460000 0.000000 0
1.480000 0.000000 0
1.500000 0.000000 0
1.520000 0.000000 0
1.540000 0.000000 0
1.560000 0.000000 0
1.580000 0.000000 0
1.600000 0.000000 0
1.620000 0.000000 0
1.640000 0.000000 0
1.660000 0.000000 0
1.680000 0.000000 0
1.700000 0.000000 0
1.720000 0.000000 0
1.740000 0.000000 0
1.760000 0.000000 0
1.780000 0.000000 0
1.800000 0.000000 0
1.820000 0.000000 0
1.840000 0.000000 0
1.860000 0.000000 0
1.880000 0.000000 0
1.900000 0.000000 0
1.920000 0.000000 0
1.940000 0.000000 0
1.960000 0.000000 0
0.000000 0.020000 0
0.020000 0.020000 0
0.040000 0.020000 0
0.060000 0.020000 0
0.080000 0.020000 0
0.100000 0.020000 0
0.120000 0.020000 0
0.140000 0.020000 0
0.160000 0.020000 0
0.180000 0.020000 0
0.200000 0.020000 0
0.220000 0.020000 0
0.240000 0.020000 0
0.260000 0.020000 0
0.280000 0.020000 0
0.300000 0.020000 0
0.320000 0.020000 0
0.340000 0.020000 0
0.360000 0.020000 0
0.380000 0.020000 0
0.400000 0.020000 0
0.420000 0.020000 0
0.440000 0.020000 0
0.460000 0.020000 0
0.480000 0.020000 0
0.500000 0.020000 0
0.520000 0.020000 0
0.540000 0.020000 0
0.560000 0.020000 0
0.580000 0.020000 0
0.600000 0.020000 0
0.620000 0.020000 0
0.640000 0.020000 0
0.660000 0.020000 0
0.680000 0.020000 0
0.700000 0.020000 0
0.720000 0.020000 0
0.740000 0.020000 0
0.760000 0.020000 0
0.780000 0.020000 0
0.800000 0.020000 0
0.820000 0.020000 0
0.840000 0.020000 0
0.860000 0.020000 0
0.880000 0.020000 0
0.900000 0.020000 0
0.920000 0.020000 0
0.940000 0.020000 0
0.960000 0.020000 0
0.980000 0.020000 0
1.000000 0.020000 0
1.020000 0.020000 0
1.040000 0.020000 0
1.060000 0.020000 0
1.080000 0.020000 0
1.100000 0.020000 0
1.120000 0.020000 0
1.140000 0.020000 0
1.160000 0.020000 0
1.180000 0.020000 0
1.200000 0.020000 0
1.220000 0.020000 0
1.240000 0.020000 0
1.260000 0.020000 0
1.280000 0.020000 0
1.300000 0.020000 0
1.320000 0.020000 0
1.340000 0.020000 0
1.360000 0.020000 0
1.380000 0.020000 0
1.400000 0.020000 0
1.420000 0.020000 0
1.440000 0.020000 0
1.460000 0.020000 0
1.480000 0.020000 0
1.500000 0.020000 0
1.520000 0.020000 0
1.540000 0.020000 0
1.560000 0.020000 0
1.580000 0.020000 0
1.600000 0.020000 0
1.620000 0.020000 0
1.640000 0.020000 0
1.660000 0.020000 0
1.680000 0.020000 0
1.700000 0.020000 0
1.720000 0.020000 0
1.740000 0.020000 0
1.760000 0.020000 0
1.780000 0.020000 0
1.800000 0.020000 0
1.820000 0.020000 0
1.840000 0.020000 0
1.860000 0.020000 0
1.880000 0.020000 0
1.900000 0.020000 0
1.920000 0.020000 0
1.940000 0.020000 0
1.960000 0.020000 0
0.000000 0.040000 0
0.020000 0.040000 0
0.040000 0.040000 0
0.060000 0.040000 0
0.080000 0.040000 0
0.100000 0.040000 0
0.120000 0.040000 0
0.140000 0.040000 0
0.160000 0.040000 0
0.180000 0.040000 0
0.200000 0.040000 0
0.220000 0.040000 0
0.240000 0.040000 0
0.260000 0.040000 0
0.280000 0.040000 0
0.300000 0.040000 0
0.320000 0.040000 0
0.340000 0.040000 0
0.360000 0.040000 0
0.380000 0.040000 0
0.400000 0.040000 0
0.420000 0.040000 0
0.440000 0.040000 0
0.460000 0.040000 0
0.480000 0.040000 0
0.500000 0.040000 0
0.520000 0.040000 0
0.540000 0.040000 0
0.560000 0.040000 0
0.580000 0.040000 0
0.600000 0.040000 0
0.620000 0.040000 0
0.640000 0.040000 0
0.660000 0.040000 0
0.680000 0.040000 0
0.700000 0.040000 0
0.720000 0.040000 0
0.740000 0.040000 0
0.760000 0.040000 0
0.780000 0.040000 0
0.800000 0.040000 0
0.820000 0.040000 0
0.840000 0.040000 0
0.860000 0.040000 0
0.880000 0.040000 0
0.900000 0.040000 0
0.920000 0.040000 0
0.940000 0.040000 0
0.960000 0.040000 0
0.980000 0.040000 0
1.000000 0.040000 0
1.020000 0.040000 0
1.040000 0.040000 0
1.060000 0.040000 0
1.080000 0.040000 0
1.100000 0.040000 0
1.120000 0.040000 0
1.140000 0.040000 0
1.160000 0.040000 0
1.180000 0.040000 0
1.200000 0.040000 0
1.220000 0.040000 0
1.240000 0.040000 0
1.260000 0.040000 0
1.280000 0.040000 0
1.300000 0.040000 0
1.320000 0.040000 0
1.340000 0.040000 0
1.360000 0.040000 0
1.380000 0.040000 0
1.400000 0.040000 0
1.420000 0.040000 0
1.440000 0.040000 0
1.460000 0.040000 0
1.480000 0.040000 0
1.500000 0.040000 0
1.520000 0.040000 0
1.540000 0.040000 0
1.560000 0.040000 0
1.580000 0.040000 0
1.600000 0.040000 0
1.620000 0.040000 0
1.640000 0.040000 0
1.660000 0.040000 0
1.680000 0.040000 0
1.700000 0.040000 0
1.720000 0.040000 0
1.740000 0.040000 0
1.760000 0.040000 0
1.780000 0.040000 0
1.800000 0.040000 0
1.820000 0.040000 0
1.840000 0.040000 0
1.860000 0.040000 0
1.880000 0.040000 0
1.900000 0.040000 0
1.920000 0.040000 0
1.940000 0.040000 0
1.960000 0.040000 0
0.000000 0.060000 0
0.020000 0.060000 0
0.040000 0.060000 0
0.060000 0.060000 0
0.080000 0.060000 0
0.100000 0.060000 0
0.120000 0.060000 0
0.140000 0.060000 0
0.160000 0.060000 0
0.180000 0.060000 0
0.200000 0.060000 0
0.220000 0.060000 0
0.240000 0.060000 0
0.260000 0.060000 0
0.280000 0.060000 0
0.300000 0.060000 0
0.320000 0.060000 0
0.340000 0.060000 0
0.360000 0.060000 0
0.380000 0.060000 0
0.400000 0.060000 0
0.420000 0.060000 0
0.440000 0.060000 0
0.460000 0.060000 0
0.480000 0.060000 0
0.500000 0.060000 0
0.520000 0.060000 0
0.540000 0.060000 0
0.560000 0.060000 0
0.580000 0.060000 0
0.600000 0.060000 0
0.620000 0.060000 0
0.640000 0.060000 0
0.660000 0.060000 0
0.680000 0.060000 0
0.700000 0.060000 0
0.720000 0.060000 0
0.740000 0.060000 0
0.760000 0.060000 0
0.780000 0.060000 0
0.800000 0.060000 0
0.820000 0.060000 0
0.840000 0.060000 0
0.860000 0.060000 0
0.880000 0.060000 0
0.900000 0.060000 0
0.920000 0.060000 0
0.940000 0.060000 0
0.960000 0.060000 0
0.980000 0.060000 0
1.000000 0.060000 0
1.020000 0.060000 0
1.040000 0.060000 0
1.060000 0.060000 0
1.080000 0.060000 0
1.100000 0.060000 0
1.120000 0.060000 0
1.140000 0.060000 0
1.160000 0.060000 0
1.180000 0.060000 0
1.200000 0.060000 0
1.220000 0.060000 0
1.240000 0.060000 0
1.260000 0.060000 0
1.280000 0.060000 0
1.300000 0.060000 0
1.320000 0.060000 0
1.340000 0.060000 0
1.360000 0.060000 0
1.380000 0.060000 0
1.400000 0.060000 0
1.420000 0.060000 0
1.440000 0.060000 0
1.460000 0.060000 0
1.480000 0.060000 0
1.500000 0.060000 0
1.520000 0.060000 0
1.540000 0.060000 0
1.560000 0.060000 0
1.580000 0.060000 0
1.600000 0.060000 0
1.620000 0.060000 0
1.640000 0.060000 0
1.660000 0.060000 0
1.680000 0.060000 0
1.700000 0.060000 0
1.720000 0.060000 0
1.740000 0.060000 0
1.760000 0.060000 0
1.780000 0.060000 0
1.800000 0.060000 0
1.820000 0.060000 0
1.840000 0.060000 0
1.860000 0.060000 0
1.880000 0.060000 0
1.900000 0.060000 0
1.920000 0.060000 0
1.940000 0.060000 0
1.960000 0.060000 0
0.000000 0.080000 0
0.020000 0.080000 0
0.040000 0.080000 0
0.060000 0.080000 0
0.080000 0.080000 0
0.100000 0.080000 0
0.120000 0.080000 0
0.140000 0.080000 0
0.160000 0.080000 0
0.180000 0.080000 0
0.200000 0.080000 0
0.220000 0.080000 0
0.240000 0.080000 0
0.260000 0.080000 0
0.280000 0.080000 0
0.300000 0.080000 0
0.320000 0.080000 0
0.340000 0.080000 0
0.360000 0.080000 0
0.380000 0.080000 0
0.400000 0.080000 0
0.420000 0.080000 0
0.440000 0.080000 0
0.460000 0.080000 0
0.480000 0.080000 0
0.500000 0.080000 0
0.520000 0.080000 0
0.540000 0.080000 0
0.560000 0.080000 0
0.580000 0.080000 0
0.600000 0.080000 0
0.620000 0.080000 0
0.640000 0.080000 0
0.660000 0.080000 0
0.680000 0.080000 0
0.700000 0.080000 0
0.720000 0.080000 0
0.740000 0.080000 0
0.760000 0.080000 0
0.780000 0.080000 0
0.800000 0.080000 0
0.820000 0.080000 0
0.840000 0.080000 0
0.860000 0.080000 0
0.880000 0.080000 0
0.900000 0.080000 0
0.920000 0.080000 0
0.940000 0.080000 0
0.960000 0.080000 0
0.980000 0.080000 0
1.000000 0.080000 0
1.020000 0.080000 0
1.040000 0.080000 0
1.060000 0.080000 0
1.080000 0.080000 0
1.100000 0.080000 0
1.120000 0.080000 0
1.140000 0.080000 0
1.160000 0.080000 0
1.180000 0.080000 0
1.200000 0.080000 0
1.220000 0.080000 0
1.240000 0.080000 0
1.260000 0.080000 0
1.280000 0.080000 0
1.300000 0.080000 0
1.320000 0.080000 0
1.340000 0.080000 0
1.360000 0.080000 0
1.380000 0.080000 0
1.400000 0.080000 0
1.420000 0.080000 0
1.440000 0.080000 0
1.460000 0.080000 0
1.480000 0.080000 0
1.500000 0.080000 0
1.520000 0.080000 0
1.540000 0.080000 0
1.560000 0.080000 0
1.580000 0.080000 0
1.600000 0.080000 0
1.620000 0.080000 0
1.640000 0.080000 0
1.660000 0.080000 0
1.680000 0.080000 0
1.700000 0.080000 0
1.720000 0.080000 0
1.740000 0.080000 0
1.760000 0.080000 0
1.780000 0.080000 0
1.800000 0.080000 0
1.820000 0.080000 0
1.840000 0.080000 0
1.860000 0.080000 0
1.880000 0.080000 0
[...]
POINT_DATA 4851 

VECTORS velocity float
0.000000 0.000000 0
-0.000431 0.000000 0
-0.000568 0.000000 0
-0.000521 0.000000 0
-0.000435 0.000000 0
-0.000361 0.000000 0
-0.000306 0.000000 0
-0.000266 0.000000 0
-0.000236 0.000000 0
-0.000213 0.000000 0
-0.000194 0.000000 0
-0.000179 0.000000 0
-0.000165 0.000000 0
-0.000154 0.000000 0
-0.000143 0.000000 0
-0.000133 0.000000 0
-0.000124 0.000000 0
-0.000116 0.000000 0
-0.000108 0.000000 0
-0.000101 0.000000 0
-0.000094 0.000000 0
-0.000087 0.000000 0
-0.000081 0.000000 0
-0.000075 0.000000 0
-0.000069 0.000000 0
-0.000063 0.000000 0
-0.000058 0.000000 0
-0.000052 0.000000 0
-0.000047 0.000000 0
-0.000043 0.000000 0
-0.000037 0.000000 0
-0.000032 0.000000 0
-0.000025 0.000000 0
-0.000018 0.000000 0
-0.000009 0.000000 0
-0.000003 0.000000 0
0.000000 0.000000 0
0.000000 0.000000 0
0.000000 0.000000 0
0.000000 0.000000 0
0.000000 0.000000 0
-0.000025 0.000000 0
-0.000073 0.000000 0
-0.000122 0.000000 0
-0.000159 0.000000 0
-0.000183 0.000000 0
-0.000198 0.000000 0
-0.000207 0.000000 0
-0.000213 0.000000 0
-0.000217 0.000000 0
-0.000220 0.000000 0
-0.000223 0.000000 0
-0.000225 0.000000 0
-0.000227 0.000000 0
-0.000229 0.000000 0
-0.000231 0.000000 0
-0.000232 0.000000 0
-0.000234 0.000000 0
-0.000235 0.000000 0
-0.000237 0.000000 0
-0.000238 0.000000 0
-0.000239 0.000000 0
-0.000241 0.000000 0
-0.000242 0.000000 0
-0.000243 0.000000 0
-0.000244 0.000000 0
-0.000245 0.000000 0
-0.000246 0.000000 0
-0.000246 0.000000 0
-0.000247 0.000000 0
-0.000248 0.000000 0
-0.000249 0.000000 0
-0.000250 0.000000 0
-0.000251 0.000000 0
-0.000251 0.000000 0
-0.000252 0.000000 0
-0.000253 0.000000 0
-0.000254 0.000000 0
-0.000255 0.000000 0
-0.000255 0.000000 0
-0.000256 0.000000 0
-0.000255 0.000000 0
-0.000254 0.000000 0
-0.000252 0.000000 0
-0.000249 0.000000 0
-0.000247 0.000000 0
-0.000246 0.000000 0
-0.000250 0.000000 0
-0.000259 0.000000 0
-0.000275 0.000000 0
-0.000299 0.000000 0
-0.000328 0.000000 0
-0.000358 0.000000 0
-0.000377 0.000000 0
-0.000371 0.000000 0
-0.000324 0.000000 0
-0.000226 0.000000 0
-0.000093 0.000000 0
0.000000 0.000000 0
0.000000 0.000431 0
-0.000857 0.000569 0
-0.001321 0.000091 0
-0.001372 -0.000133 0
-0.001261 -0.000159 0
-0.001119 -0.000128 0
-0.000991 -0.000095 0
-0.000885 -0.000069 0
-0.000799 -0.000052 0
-0.000728 -0.000041 0
-0.000669 -0.000033 0
-0.000619 -0.000028 0
-0.000575 -0.000024 0
-0.000536 -0.000022 0
-0.000500 -0.000020 0
-0.000467 -0.000018 0
-0.000437 -0.000017 0
-0.000409 -0.000015 0
-0.000382 -0.000015 0
-0.000356 -0.000014 0
-0.000332 -0.000013 0
-0.000308 -0.000013 0
-0.000286 -0.000012 0
-0.000264 -0.000011 0
-0.000243 -0.000011 0
-0.000223 -0.000010 0
-0.000203 -0.000010 0
-0.000185 -0.000010 0
-0.000166 -0.000009 0
-0.000148 -0.000009 0
-0.000129 -0.000010 0
-0.000108 -0.000012 0
-0.000085 -0.000014 0
-0.000060 -0.000015 0
-0.000033 -0.000014 0
-0.000010 -0.000009 0
0.000000 -0.000002 0
0.000000 0.000000 0
0.000000 0.000000 0
0.000000 0.000000 0
0.000000 0.000024 0
-0.000072 0.000073 0
-0.000208 0.000097 0
-0.000347 0.000085 0
-0.000462 0.000061 0
-0.000546 0.000039 0
-0.000603 0.000024 0
-0.000641 0.000014 0
-0.000667 0.000009 0
-0.000687 0.000006 0
-0.000702 0.000005 0
-0.000714 0.000004 0
-0.000725 0.000004 0
-0.000735 0.000004 0
-0.000743 0.000003 0
-0.000751 0.000003 0
-0.000759 0.000003 0
-0.000765 0.000003 0
-0.000771 0.000002 0
-0.000777 0.000002 0
-0.000782 0.000002 0
-0.000787 0.000002 0
-0.000792 0.000002 0
-0.000796 0.000002 0
-0.000800 0.000002 0
-0.000804 0.000002 0
-0.000808 0.000001 0
-0.000811 0.000001 0
-0.000815 0.000001 0
-0.000818 0.000001 0
-0.000820 0.000001 0
-0.000823 0.000001 0
-0.000826 0.000001 0
-0.000829 0.000001 0
-0.000831 0.000001 0
-0.000834 0.000001 0
-0.000837 0.000001 0
-0.000839 0.000001 0
-0.000841 0.000001 0
-0.000842 0.000000 0
-0.000841 -0.000001 0
-0.000839 -0.000002 0
-0.000834 -0.000004 0
-0.000827 -0.000005 0
-0.000819 -0.000005 0
-0.000814 -0.000003 0
-0.000814 0.000003 0
-0.000827 0.000012 0
-0.000855 0.000025 0
-0.000904 0.000040 0
-0.000971 0.000053 0
-0.001049 0.000058 0
-0.001119 0.000048 0
-0.001149 0.000013 0
-0.001102 -0.000053 0
-0.000935 -0.000146 0
-0.000635 -0.000231 0
-0.000258 -0.000226 0
0.000000 -0.000094 0
0.000000 0.000858 0
-0.000742 0.001322 0
-0.001427 0.000516 0
-0.001725 -0.000059 0
-0.001759 -0.000252 0
-0.001675 -0.000269 0
-0.001554 -0.000234 0
-0.001430 -0.000191 0
-0.001318 -0.000156 0
-0.001218 -0.000128 0
-0.001130 -0.000108 0
-0.001052 -0.000094 0
-0.000983 -0.000083 0
-0.000919 -0.000074 0
-0.000861 -0.000068 0
-0.000807 -0.000062 0
-0.000756 -0.000058 0
-0.000708 -0.000055 0
-0.000663 -0.000052 0
-0.000619 -0.000049 0
-0.000578 -0.000047 0
-0.000537 -0.000045 0
-0.000498 -0.000043 0
-0.000461 -0.000042 0
-0.000424 -0.000040 0
-0.000389 -0.000039 0
-0.000354 -0.000037 0
-0.000321 -0.000036 0
-0.000288 -0.000036 0
-0.000255 -0.000037 0
-0.000220 -0.000039 0
-0.000183 -0.000043 0
-0.000143 -0.000048 0
-0.000100 -0.000052 0
-0.000056 -0.000048 0
-0.000019 -0.000032 0
0.000000 -0.000010 0
0.000000 0.000000 0
0.000000 0.000000 0
0.000000 0.000000 0
0.000000 0.000072 0
-0.000098 0.000207 0
-0.000278 0.000274 0
-0.000472 0.000254 0
-0.000643 0.000198 0
-0.000779 0.000140 0
-0.000880 0.000095 0
-0.000954 0.000064 0
-0.001008 0.000045 0
-0.001050 0.000034 0
-0.001083 0.000027 0
-0.001111 0.000023 0
-0.001134 0.000020 0
-0.001155 0.000018 0
-0.001174 0.000016 0
-0.001190 0.000015 0
-0.001206 0.000013 0
-0.001220 0.000012 0
-0.001232 0.000011 0
-0.001244 0.000010 0
-0.001255 0.000010 0
-0.001265 0.000009 0
-0.001274 0.000008 0
-0.001283 0.000008 0
-0.001291 0.000007 0
-0.001298 0.000007 0
-0.001305 0.000006 0
-0.001312 0.000006 0
-0.001318 0.000006 0
-0.001323 0.000005 0
-0.001329 0.000005 0
-0.001334 0.000005 0
-0.001338 0.000005 0
-0.001343 0.000005 0
-0.001347 0.000005 0
-0.001351 0.000005 0
-0.001355 0.000005 0
-0.001358 0.000004 0
-0.001361 0.000002 0
-0.001361 -0.000000 0
-0.001359 -0.000004 0
-0.001354 -0.000008 0
-0.001346 -0.000012 0
-0.001336 -0.000015 0
-0.001325 -0.000014 0
-0.001318 -0.000006 0
-0.001321 0.000012 0
-0.001341 0.000040 0
-0.001383 0.000077 0
-0.001453 0.000116 0
-0.001544 0.000145 0
-0.001641 0.000147 0
-0.001715 0.000099 0
-0.001723 -0.000018 0
-0.001610 -0.000215 0
-0.001330 -0.000467 0
-0.000881 -0.000677 0
-0.000350 -0.000636 0
0.000000 -0.000259 0
0.000000 0.001174 0
-0.000540 0.001997 0
-0.001227 0.001074 0
-0.001659 0.000199 0
-0.001834 -0.000209 0
-0.001849 -0.000333 0
-0.001787 -0.000339 0
-0.001694 -0.000305 0
-0.001593 -0.000265 0
-0.001494 -0.000228 0
-0.001402 -0.000199 0
-0.001316 -0.000176 0
-0.001237 -0.000157 0
-0.001163 -0.000143 0
-0.001094 -0.000132 0
-0.001028 -0.000122 0
-0.000966 -0.000115 0
-0.000908 -0.000108 0
-0.000851 -0.000103 0
-0.000797 -0.000099 0
-0.000744 -0.000095 0
-0.000693 -0.000091 0
-0.000643 -0.000088 0
-0.000595 -0.000085 0
-0.000548 -0.000083 0
-0.000502 -0.000080 0
-0.000457 -0.000078 0
-0.000413 -0.000076 0
-0.000369 -0.000075 0
-0.000325 -0.000077 0
-0.000280 -0.000081 0
-0.000232 -0.000088 0
-0.000181 -0.000097 0
-0.000126 -0.000102 0
-0.000071 -0.000095 0
-0.000024 -0.000065 0
0.000000 -0.000021 0
0.000000 0.000000 0
0.000000 0.000000 0
0.000000 0.000000 0
0.000000 0.000121 0
-0.000091 0.000350 0
-0.000267 0.000470 0
-0.000465 0.000450 0
-0.000651 0.000368 0
-0.000807 0.000276 0
-0.000932 0.000198 0
-0.001029 0.000142 0
-0.001105 0.000105 0
-0.001165 0.000081 0
-0.001214 0.000066 0
-0.001256 0.000055 0
-0.001292 0.000048 0
-0.001324 0.000043 0
-0.001353 0.000039 0
-0.001379 0.000035 0
-0.001402 0.000032 0
-0.001423 0.000029 0
-0.001443 0.000027 0
-0.001461 0.000025 0
-0.001477 0.000023 0
-0.001492 0.000021 0
-0.001506 0.000019 0
-0.001519 0.000018 0
-0.001531 0.000017 0
-0.001542 0.000016 0
-0.001552 0.000015 0
-0.001562 0.000014 0
-0.001571 0.000013 0
-0.001579 0.000012 0
-0.001586 0.000011 0
-0.001593 0.000011 0
-0.001600 0.000010 0
-0.001606 0.000010 0
-0.001612 0.000010 0
-0.001617 0.000009 0
-0.001622 0.000008 0
-0.001626 0.000007 0
-0.001629 0.000003 0
-0.001630 -0.000001 0
-0.001628 -0.000008 0
-0.001623 -0.000015 0
-0.001614 -0.000023 0
-0.001603 -0.000026 0
-0.001593 -0.000023 0
-0.001586 -0.000007 0
-0.001591 0.000025 0
-0.001612 0.000074 0
-0.001658 0.000137 0
-0.001730 0.000200 0
-0.001821 0.000241 0
-0.001913 0.000230 0
-0.001973 0.000129 0
-0.001951 -0.000093 0
-0.001794 -0.000446 0
-0.001458 -0.000875 0
-0.000948 -0.001211 0
-0.000370 -0.001107 0
0.000000 -0.000444 0
0.000000 0.001399 0
-0.000386 0.002550 0
-0.000995 0.001635 0
-0.001459 0.000548 0
-0.001712 -0.000062 0
-0.001805 -0.000316 0
-0.001803 -0.000389 0
-0.001752 -0.000385 0
-0.001679 -0.000355 0
-0.001598 -0.000319 0
-0.001516 -0.000286 0
-0.001436 -0.000259 0
-0.001359 -0.000236 0
-0.001285 -0.000217 0
-0.001214 -0.000202 0
-0.001146 -0.000189 0
-0.001081 -0.000179 0
-0.001018 -0.000170 0
-0.000957 -0.000162 0
-0.000897 -0.000156 0
-0.000840 -0.000150 0
-0.000783 -0.000146 0
-0.000728 -0.000141 0
-0.000674 -0.000137 0
-0.000621 -0.000133 0
-0.000569 -0.000129 0
-0.000518 -0.000126 0
-0.000467 -0.000124 0
-0.000417 -0.000123 0
-0.000366 -0.000126 0
-0.000314 -0.000132 0
-0.000259 -0.000142 0
-0.000201 -0.000154 0
-0.000140 -0.000161 0
-0.000079 -0.000150 0
-0.000027 -0.000103 0
0.000000 -0.000034 0
0.000000 0.000000 0
0.000000 0.000000 0
0.000000 0.000000 0
0.000000 0.000163 0
-0.000070 0.000473 0
-0.000214 0.000648 0
-0.000387 0.000638 0
-0.000557 0.000540 0
-0.000709 0.000421 0
-0.000837 0.000316 0
-0.000942 0.000237 0
-0.001028 0.000181 0
-0.001100 0.000143 0
-0.001161 0.000118 0
-0.001213 0.000100 0
-0.001260 0.000088 0
-0.001301 0.000078 0
-0.001339 0.000070 0
-0.001374 0.000064 0
-0.001405 0.000058 0
-0.001434 0.000053 0
-0.001460 0.000049 0
-0.001484 0.000044 0
-0.001506 0.000041 0
-0.001526 0.000038 0
-0.001545 0.000035 0
-0.001562 0.000032 0
-0.001578 0.000030 0
-0.001592 0.000028 0
-0.001606 0.000026 0
-0.001619 0.000024 0
-0.001630 0.000022 0
-0.001642 0.000021 0
-0.001652 0.000019 0
-0.001661 0.000018 0
-0.001670 0.000017 0
-0.001678 0.000017 0
-0.001686 0.000016 0
-0.001693 0.000015 0
-0.001700 0.000013 0
-0.001706 0.000010 0
-0.001710 0.000006 0
-0.001713 -0.000002 0
-0.001713 -0.000011 0
-0.001710 -0.000022 0
-0.001704 -0.000032 0
-0.001696 -0.000037 0
-0.001688 -0.000031 0
-0.001684 -0.000008 0
-0.001690 0.000038 0
-0.001711 0.000108 0
-0.001753 0.000194 0
-0.001819 0.000278 0
-0.001901 0.000328 0
-0.001981 0.000298 0
-0.002024 0.000137 0
-0.001983 -0.000197 0
-0.001805 -0.000708 0
-0.001452 -0.001312 0
-0.000935 -0.001766 0
-0.000359 -0.001584 0
0.000000 -0.000628 0
0.000000 0.001560 0
-0.000279 0.002993 0
-0.000796 0.002147 0
-0.001239 0.000917 0
-0.001517 0.000138 0
-0.001653 -0.000242 0
-0.001693 -0.000391 0
-0.001679 -0.000428 0
-0.001635 -0.000418 0
-0.001576 -0.000391 0
-0.001511 -0.000361 0
-0.001443 -0.000333 0
-0.001376 -0.000308 0
-0.001309 -0.000287 0
-0.001243 -0.000270 0
-0.001179 -0.000255 0
-0.001115 -0.000243 0
-0.001054 -0.000232 0
-0.000993 -0.000223 0
-0.000933 -0.000216 0
-0.000875 -0.000209 0
-0.000817 -0.000203 0
-0.000761 -0.000197 0
-0.000705 -0.000192 0
-0.000650 -0.000187 0
-0.000595 -0.000183 0
-0.000541 -0.000179 0
-0.000488 -0.000176 0
-0.000435 -0.000176 0
-0.000381 -0.000179 0
-0.000326 -0.000188 0
-0.000268 -0.000201 0
-0.000208 -0.000215 0
-0.000144 -0.000223 0
-0.000081 -0.000208 0
-0.000027 -0.000144 0
0.000000 -0.000048 0
0.000000 0.000000 0
0.000000 0.000000 0
0.000000 0.000000 0
0.000000 0.000191 0
-0.000044 0.000563 0
-0.000145 0.000787 0
-0.000275 0.000793 0
-0.000411 0.000690 0
-0.000541 0.000556 0
-0.000656 0.000432 0
-0.000755 0.000334 0
-0.000841 0.000262 0
-0.000915 0.000213 0
-0.000980 0.000178 0
-0.001039 0.000154 0
-0.001093 0.000136 0
-0.001142 0.000122 0
-0.001187 0.000111 0
-0.001229 0.000101 0
-0.001268 0.000092 0
-0.001303 0.000084 0
-0.001336 0.000077 0
-0.001366 0.000070 0
-0.001394 0.000065 0
-0.001419 0.000059 0
-0.001442 0.000055 0
-0.001463 0.000051 0
-0.001483 0.000047 0
-0.001501 0.000044 0
-0.001518 0.000041 0
-0.001534 0.000038 0
-0.001550 0.000035 0
-0.001564 0.000033 0
-0.001577 0.000031 0
-0.001590 0.000029 0
-0.001602 0.000027 0
-0.001613 0.000026 0
-0.001623 0.000024 0
-0.001633 0.000023 0
-0.001642 0.000020 0
-0.001651 0.000016 0
-0.001659 0.000010 0
-0.001665 0.000001 0
-0.001670 -0.000011 0
-0.001672 -0.000024 0
-0.001671 -0.000037 0
-0.001669 -0.000043 0
-0.001666 -0.000035 0
-0.001666 -0.000006 0
-0.001673 0.000051 0
-0.001692 0.000138 0
-0.001730 0.000245 0
-0.001787 0.000347 0
-0.001857 0.000403 0
-0.001923 0.000352 0
-0.001953 0.000131 0
-0.001903 -0.000312 0
-0.001723 -0.000976 0
-0.001380 -0.001745 0
-0.000883 -0.002305 0
-0.000337 -0.002042 0
0.000000 -0.000803 0
0.000000 0.001679 0
-0.000206 0.003347 0
-0.000639 0.002595 0
-0.001039 0.001269 0
-0.001310 0.000352 0
-0.001459 -0.000139 0
-0.001521 -0.000362 0
-0.001530 -0.000443 0
-0.001508 -0.000457 0
-0.001469 -0.000443 0
-0.001422 -0.000419 0
-0.001369 -0.000393 0
-0.001314 -0.000370 0
-0.001258 -0.000349 0
-0.001201 -0.000332 0
-0.001144 -0.000316 0
-0.001086 -0.000303 0
-0.001030 -0.000292 0
-0.000973 -0.000282 0
-0.000917 -0.000274 0
-0.000861 -0.000266 0
-0.000806 -0.000260 0
-0.000751 -0.000253 0
-0.000697 -0.000248 0
-0.000642 -0.000242 0
-0.000589 -0.000237 0
-0.000535 -0.000233 0
-0.000482 -0.000230 0
-0.000429 -0.000230 0
-0.000375 -0.000234 0
-0.000320 -0.000244 0
-0.000263 -0.000260 0
-0.000203 -0.000278 0
-0.000141 -0.000287 0
-0.000079 -0.000267 0
-0.000026 -0.000184 0
0.000000 -0.000061 0
0.000000 0.000000 0
0.000000 0.000000 0
0.000000 0.000000 0
0.000000 0.000207 0
-0.000020 0.000618 0
-0.000075 0.000878 0
-0.000155 0.000903 0
-0.000248 0.000805 0
-0.000343 0.000665 0
-0.000433 0.000531 0
-0.000516 0.000421 0
-0.000591 0.000340 0
-0.000660 0.000282 0
-0.000724 0.000242 0
-0.000783 0.000212 0
-0.000839 0.000190 0
-0.000893 0.000172 0
-0.000943 0.000157 0
-0.000991 0.000144 0
-0.001036 0.000132 0
-0.001078 0.000121 0
-0.001117 0.000111 0
-0.001153 0.000102 0
-0.001186 0.000093 0
-0.001216 0.000086 0
-0.001244 0.000079 0
-0.001269 0.000073 0
-0.001293 0.000068 0
-0.001315 0.000063 0
-0.001335 0.000059 0
-0.001355 0.000055 0
-0.001373 0.000052 0
-0.001391 0.000048 0
-0.001408 0.000045 0
-0.001424 0.000043 0
-0.001439 0.000040 0
-0.001454 0.000038 0
-0.001468 0.000036 0
-0.001482 0.000034 0
-0.001495 0.000031 0
-0.001508 0.000026 0
-0.001520 0.000019 0
-0.001531 0.000009 0
-0.001541 -0.000005 0
-0.001550 -0.000020 0
-0.001557 -0.000035 0
-0.001562 -0.000042 0
-0.001566 -0.000034 0
-0.001571 -0.000001 0
-0.001581 0.000065 0
-0.001600 0.000165 0
-0.001632 0.000288 0
-0.001679 0.000405 0
-0.001736 0.000464 0
-0.001790 0.000395 0
-0.001811 0.000117 0
-0.001759 -0.000427 0
-0.001590 -0.001232 0
-0.001272 -0.002153 0
-0.000813 -0.002809 0
-0.000310 -0.002467 0
0.000000 -0.000965 0
0.000000 0.001767 0
-0.000155 0.003632 0
-0.000516 0.002979 0
-0.000868 0.001588 0
-0.001117 0.000559 0
-0.001261 -0.000030 0
-0.001328 -0.000320 0
-0.001347 -0.000441 0
-0.001338 -0.000479 0
-0.001314 -0.000477 0
-0.001281 -0.000461 0
-0.001242 -0.000440 0
-0.001200 -0.000419 0
-0.001155 -0.000400 0
-0.001108 -0.000384 0
-0.001060 -0.000369 0
-0.001011 -0.000357 0
-0.000962 -0.000345 0
-0.000912 -0.000336 0
-0.000861 -0.000327 0
-0.000811 -0.000320 0
-0.000760 -0.000313 0
-0.000709 -0.000307 0
-0.000658 -0.000301 0
-0.000607 -0.000295 0
-0.000557 -0.000290 0
-0.000506 -0.000285 0
-0.000456 -0.000282 0
-0.000405 -0.000283 0
-0.000354 -0.000288 0
-0.000301 -0.000300 0
-0.000247 -0.000318 0
-0.000190 -0.000338 0
-0.000131 -0.000347 0
-0.000073 -0.000322 0
-0.000024 -0.000222 0
0.000000 -0.000074 0
0.000000 0.000000 0
0.000000 0.000000 0
0.000000 0.000000 0
0.000000 0.000211 0
0.000000 0.000638 0
-0.000013 0.000922 0
-0.000043 0.000965 0
-0.000089 0.000877 0
-0.000144 0.000741 0
-0.000202 0.000605 0
-0.000261 0.000492 0
-0.000319 0.000406 0
-0.000376 0.000345 0
-0.000431 0.000302 0
-0.000487 0.000270 0
-0.000541 0.000246 0
-0.000595 0.000226 0
-0.000648 0.000209 0
-0.000699 0.000193 0
-0.000749 0.000178 0
-0.000796 0.000165 0
-0.000841 0.000152 0
-0.000882 0.000139 0
-0.000921 0.000128 0
-0.000957 0.000117 0
-0.000989 0.000108 0
-0.001018 0.000099 0
-0.001045 0.000092 0
-0.001071 0.000086 0
-0.001094 0.000081 0
-0.001117 0.000076 0
-0.001139 0.000071 0
-0.001160 0.000067 0
-0.001181 0.000064 0
-0.001201 0.000060 0
-0.001220 0.000057 0
-0.001239 0.000054 0
-0.001257 0.000052 0
-0.001275 0.000049 0
-0.001292 0.000046 0
-0.001310 0.000041 0
-0.001327 0.000034 0
-0.001344 0.000023 0
-0.001361 0.000008 0
-0.001377 -0.000009 0
-0.001392 -0.000025 0
-0.001406 -0.000034 0
-0.001418 -0.000026 0
-0.001430 0.000009 0
-0.001443 0.000079 0
-0.001462 0.000188 0
-0.001489 0.000324 0
-0.001526 0.000452 0
-0.001572 0.000513 0
-0.001613 0.000426 0
-0.001627 0.000100 0
-0.001579 -0.000533 0
-0.001428 -0.001464 0
-0.001145 -0.002522 0
-0.000735 -0.003267 0
-0.000281 -0.002855 0
0.000000 -0.001113 0
0.000000 0.001834 0
-0.000118 0.003863 0
-0.000420 0.003308 0
-0.000727 0.001870 0
-0.000948 0.000745 0
-0.001077 0.000072 0
-0.001138 -0.000276 0
-0.001158 -0.000433 0
-0.001154 -0.000490 0
-0.001138 -0.000500 0
-0.001115 -0.000490 0
-0.001087 -0.000474 0
-0.001056 -0.000457 0
-0.001022 -0.000440 0
-0.000986 -0.000426 0
-0.000947 -0.000413 0
-0.000907 -0.000402 0
-0.000865 -0.000391 0
-0.000822 -0.000383 0
-0.000778 -0.000375 0
-0.000734 -0.000367 0
-0.000689 -0.000361 0
-0.000644 -0.000355 0
-0.000598 -0.000349 0
-0.000552 -0.000343 0
-0.000506 -0.000338 0
-0.000460 -0.000334 0
-0.000414 -0.000331 0
-0.000367 -0.000332 0
-0.000320 -0.000338 0
-0.000272 -0.000351 0
-0.000222 -0.000371 0
-0.000170 -0.000393 0
-0.000116 -0.000403 0
-0.000064 -0.000373 0
-0.000021 -0.000257 0
0.000000 -0.000085 0
0.000000 0.000000 0
0.000000 0.000000 0
0.000000 0.000000 0
0.000000 0.000206 0
0.000016 0.000630 0
0.000038 0.000922 0
0.000052 0.000979 0
0.000052 0.000905 0
0.000038 0.000778 0
0.000014 0.000648 0
-0.000017 0.000538 0
-0.000053 0.000455 0
-0.000093 0.000395 0
-0.000136 0.000353 0
-0.000182 0.000322 0
-0.000230 0.000298 0
-0.000280 0.000279 0
-0.000332 0.000261 0
-0.000384 0.000245 0
-0.000436 0.000229 0
-0.000487 0.000213 0
-0.000537 0.000197 0
-0.000585 0.000182 0
-0.000629 0.000167 0
-0.000670 0.000153 0
-0.000708 0.000141 0
-0.000742 0.000130 0
-0.000772 0.000120 0
-0.000801 0.000112 0
-0.000827 0.000105 0
-0.000852 0.000100 0
-0.000877 0.000095 0
-0.000901 0.000090 0
-0.000925 0.000086 0
-0.000949 0.000082 0
-0.000972 0.000078 0
-0.000995 0.000075 0
-0.001018 0.000072 0
-0.001040 0.000069 0
-0.001062 0.000066 0
-0.001084 0.000061 0
-0.001107 0.000054 0
-0.001130 0.000043 0
-0.001153 0.000028 0
-0.001177 0.000011 0
-0.001200 -0.000006 0
-0.001222 -0.000017 0
-0.001243 -0.000010 0
-0.001261 0.000024 0
-0.001279 0.000096 0
-0.001298 0.000210 0
-0.001321 0.000352 0
-0.001350 0.000488 0
-0.001384 0.000551 0
-0.001414 0.000450 0
-0.001423 0.000083 0
-0.001382 -0.000626 0
-0.001254 -0.001665 0
-0.001012 -0.002846 0
-0.000654 -0.003673 0
-0.000252 -0.003203 0
0.000000 -0.001246 0
0.000000 0.001886 0
-0.000091 0.004053 0
-0.000345 0.003588 0
-0.000611 0.002116 0
-0.000804 0.000909 0
-0.000915 0.000161 0
-0.000965 -0.000239 0
-0.000979 -0.000426 0
-0.000974 -0.000498 0
-0.000961 -0.000516 0
-0.000944 -0.000511 0
-0.000924 -0.000498 0
-0.000901 -0.000484 0
-0.000876 -0.000471 0
-0.000848 -0.000459 0
-0.000818 -0.000448 0
-0.000786 -0.000438 0
-0.000752 -0.000430 0
-0.000717 -0.000422 0
-0.000680 -0.000415 0
-0.000642 -0.000409 0
-0.000604 -0.000403 0
-0.000564 -0.000397 0
-0.000525 -0.000392 0
-0.000484 -0.000387 0
-0.000444 -0.000382 0
-0.000403 -0.000377 0
-0.000362 -0.000375 0
-0.000320 -0.000376 0
-0.000279 -0.000383 0
-0.000236 -0.000397 0
-0.000192 -0.000419 0
-0.000146 -0.000443 0
-0.000100 -0.000453 0
-0.000055 -0.000417 0
-0.000018 -0.000286 0
0.000000 -0.000095 0
0.000000 0.000000 0
0.000000 0.000000 0
0.000000 0.000000 0
0.000000 0.000195 0
0.000026 0.000600 0
0.000076 0.000885 0
0.000127 0.000951 0