# vtk DataFile Version 2.0
generated by CFD-lab course output (written by Tobias Neckel) 
ASCII

DATASET STRUCTURED_GRID
DIMENSIONS  99 49 1 
POINTS 4851 float

0.000000 0.000000 0
0.020000 0.000000 0
0.040000 0.000000 0
0.060000 0.000000 0
0.080000 0.000000 0
0.100000 0.000000 0
0.120000 0.000000 0
0.140000 0.000000 0
0.160000 0.000000 0
0.180000 0.000000 0
0.200000 0.000000 0
0.220000 0.000000 0
0.240000 0.000000 0
0.260000 0.000000 0
0.280000 0.000000 0
0.300000 0.000000 0
0.320000 0.000000 0
0.340000 0.000000 0
0.360000 0.000000 0
0.380000 0.000000 0
0.400000 0.000000 0
0.420000 0.000000 0
0.440000 0.000000 0
0.460000 0.000000 0
0.480000 0.000000 0
0.500000 0.000000 0
0.520000 0.000000 0
0.540000 0.000000 0
0.560000 0.000000 0
0.580000 0.000000 0
0.600000 0.000000 0
0.620000 0.000000 0
0.640000 0.000000 0
0.660000 0.000000 0
0.680000 0.000000 0
0.700000 0.000000 0
0.720000 0.000000 0
0.740000 0.000000 0
0.760000 0.000000 0
0.780000 0.000000 0
0.800000 0.000000 0
0.820000 0.000000 0
0.840000 0.000000 0
0.860000 0.000000 0
0.880000 0.000000 0
0.900000 0.000000 0
0.920000 0.000000 0
0.940000 0.000000 0
0.960000 0.000000 0
0.980000 0.000000 0
1.000000 0.000000 0
1.020000 0.000000 0
1.040000 0.000000 0
1.060000 0.000000 0
1.080000 0.000000 0
1.100000 0.000000 0
1.120000 0.000000 0
1.140000 0.000000 0
1.160000 0.000000 0
1.180000 0.000000 0
1.200000 0.000000 0
1.220000 0.000000 0
1.240000 0.000000 0
1.260000 0.000000 0
1.280000 0.000000 0
1.300000 0.000000 0
1.320000 0.000000 0
1.340000 0.000000 0
1.360000 0.000000 0
1.380000 0.000000 0
1.400000 0.000000 0
1.420000 0.000000 0
1.440000 0.000000 0
1.460000 0.000000 0
1.480000 0.000000 0
1.500000 0.000000 0
1.520000 0.000000 0
1.540000 0.000000 0
1.560000 0.000000 0
1.580000 0.000000 0
1.600000 0.000000 0
1.620000 0.000000 0
1.640000 0.000000 0
1.660000 0.000000 0
1.680000 0.000000 0
1.700000 0.000000 0
1.720000 0.000000 0
1.740000 0.000000 0
1.760000 0.000000 0
1.780000 0.000000 0
1.800000 0.000000 0
1.820000 0.000000 0
1.840000 0.000000 0
1.860000 0.000000 0
1.880000 0.000000 0
1.900000 0.000000 0
1.920000 0.000000 0
1.940000 0.000000 0
1.960000 0.000000 0
0.000000 0.020000 0
0.020000 0.020000 0
0.040000 0.020000 0
0.060000 0.020000 0
0.080000 0.020000 0
0.100000 0.020000 0
0.120000 0.020000 0
0.140000 0.020000 0
0.160000 0.020000 0
0.180000 0.020000 0
0.200000 0.020000 0
0.220000 0.020000 0
0.240000 0.020000 0
0.260000 0.020000 0
0.280000 0.020000 0
0.300000 0.020000 0
0.320000 0.020000 0
0.340000 0.020000 0
0.360000 0.020000 0
0.380000 0.020000 0
0.400000 0.020000 0
0.420000 0.020000 0
0.440000 0.020000 0
0.460000 0.020000 0
0.480000 0.020000 0
0.500000 0.020000 0
0.520000 0.020000 0
0.540000 0.020000 0
0.560000 0.020000 0
0.580000 0.020000 0
0.600000 0.020000 0
0.620000 0.020000 0
0.640000 0.020000 0
0.660000 0.020000 0
0.680000 0.020000 0
0.700000 0.020000 0
0.720000 0.020000 0
0.740000 0.020000 0
0.760000 0.020000 0
0.780000 0.020000 0
0.800000 0.020000 0
0.820000 0.020000 0
0.840000 0.020000 0
0.860000 0.020000 0
0.880000 0.020000 0
0.900000 0.020000 0
0.920000 0.020000 0
0.940000 0.020000 0
0.960000 0.020000 0
0.980000 0.020000 0
1.000000 0.020000 0
1.020000 0.020000 0
1.040000 0.020000 0
1.060000 0.020000 0
1.080000 0.020000 0
1.100000 0.020000 0
1.120000 0.020000 0
1.140000 0.020000 0
1.160000 0.020000 0
1.180000 0.020000 0
1.200000 0.020000 0
1.220000 0.020000 0
1.240000 0.020000 0
1.260000 0.020000 0
1.280000 0.020000 0
1.300000 0.020000 0
1.320000 0.020000 0
1.340000 0.020000 0
1.360000 0.020000 0
1.380000 0.020000 0
1.400000 0.020000 0
1.420000 0.020000 0
1.440000 0.020000 0
1.460000 0.020000 0
1.480000 0.020000 0
1.500000 0.020000 0
1.520000 0.020000 0
1.540000 0.020000 0
1.560000 0.020000 0
1.580000 0.020000 0
1.600000 0.020000 0
1.620000 0.020000 0
1.640000 0.020000 0
1.660000 0.020000 0
1.680000 0.020000 0
1.700000 0.020000 0
1.720000 0.020000 0
1.740000 0.020000 0
1.760000 0.020000 0
1.780000 0.020000 0
1.800000 0.020000 0
1.820000 0.020000 0
1.840000 0.020000 0
1.860000 0.020000 0
1.880000 0.020000 0
1.900000 0.020000 0
1.920000 0.020000 0
1.940000 0.020000 0
1.960000 0.020000 0
0.000000 0.040000 0
0.020000 0.040000 0
0.040000 0.040000 0
0.060000 0.040000 0
0.080000 0.040000 0
0.100000 0.040000 0
0.120000 0.040000 0
0.140000 0.040000 0
0.160000 0.040000 0
0.180000 0.040000 0
0.200000 0.040000 0
0.220000 0.040000 0
0.240000 0.040000 0
0.260000 0.040000 0
0.280000 0.040000 0
0.300000 0.040000 0
0.320000 0.040000 0
0.340000 0.040000 0
0.360000 0.040000 0
0.380000 0.040000 0
0.400000 0.040000 0
0.420000 0.040000 0
0.440000 0.040000 0
0.460000 0.040000 0
0.480000 0.040000 0
0.500000 0.040000 0
0.520000 0.040000 0
0.540000 0.040000 0
0.560000 0.040000 0
0.580000 0.040000 0
0.600000 0.040000 0
0.620000 0.040000 0
0.640000 0.040000 0
0.660000 0.040000 0
0.680000 0.040000 0
0.700000 0.040000 0
0.720000 0.040000 0
0.740000 0.040000 0
0.760000 0.040000 0
0.780000 0.040000 0
0.800000 0.040000 0
0.820000 0.040000 0
0.840000 0.040000 0
0.860000 0.040000 0
0.880000 0.040000 0
0.900000 0.040000 0
0.920000 0.040000 0
0.940000 0.040000 0
0.960000 0.040000 0
0.980000 0.040000 0
1.000000 0.040000 0
1.020000 0.040000 0
1.040000 0.040000 0
1.060000 0.040000 0
1.080000 0.040000 0
1.100000 0.040000 0
1.120000 0.040000 0
1.140000 0.040000 0
1.160000 0.040000 0
1.180000 0.040000 0
1.200000 0.040000 0
1.220000 0.040000 0
1.240000 0.040000 0
1.260000 0.040000 0
1.280000 0.040000 0
1.300000 0.040000 0
1.320000 0.040000 0
1.340000 0.040000 0
1.360000 0.040000 0
1.380000 0.040000 0
1.400000 0.040000 0
1.420000 0.040000 0
1.440000 0.040000 0
1.460000 0.040000 0
1.480000 0.040000 0
1.500000 0.040000 0
1.520000 0.040000 0
1.540000 0.040000 0
1.560000 0.040000 0
1.580000 0.040000 0
1.600000 0.040000 0
1.620000 0.040000 0
1.640000 0.040000 0
1.660000 0.040000 0
1.680000 0.040000 0
1.700000 0.040000 0
1.720000 0.040000 0
1.740000 0.040000 0
1.760000 0.040000 0
1.780000 0.040000 0
1.800000 0.040000 0
1.820000 0.040000 0
1.840000 0.040000 0
1.860000 0.040000 0
1.880000 0.040000 0
1.900000 0.040000 0
1.920000 0.040000 0
1.940000 0.040000 0
1.960000 0.040000 0
0.000000 0.060000 0
0.020000 0.060000 0
0.040000 0.060000 0
0.060000 0.060000 0
0.080000 0.060000 0
0.100000 0.060000 0
0.120000 0.060000 0
0.140000 0.060000 0
0.160000 0.060000 0
0.180000 0.060000 0
0.200000 0.060000 0
0.220000 0.060000 0
0.240000 0.060000 0
0.260000 0.060000 0
0.280000 0.060000 0
0.300000 0.060000 0
0.320000 0.060000 0
0.340000 0.060000 0
0.360000 0.060000 0
0.380000 0.060000 0
0.400000 0.060000 0
0.420000 0.060000 0
0.440000 0.060000 0
0.460000 0.060000 0
0.480000 0.060000 0
0.500000 0.060000 0
0.520000 0.060000 0
0.540000 0.060000 0
0.560000 0.060000 0
0.580000 0.060000 0
0.600000 0.060000 0
0.620000 0.060000 0
0.640000 0.060000 0
0.660000 0.060000 0
0.680000 0.060000 0
0.700000 0.060000 0
0.720000 0.060000 0
0.740000 0.060000 0
0.760000 0.060000 0
0.780000 0.060000 0
0.800000 0.060000 0
0.820000 0.060000 0
0.840000 0.060000 0
0.860000 0.060000 0
0.880000 0.060000 0
0.900000 0.060000 0
0.920000 0.060000 0
0.940000 0.060000 0
0.960000 0.060000 0
0.980000 0.060000 0
1.000000 0.060000 0
1.020000 0.060000 0
1.040000 0.060000 0
1.060000 0.060000 0
1.080000 0.060000 0
1.100000 0.060000 0
1.120000 0.060000 0
1.140000 0.060000 0
1.160000 0.060000 0
1.180000 0.060000 0
1.200000 0.060000 0
1.220000 0.060000 0
1.240000 0.060000 0
1.260000 0.060000 0
1.280000 0.060000 0
1.300000 0.060000 0
1.320000 0.060000 0
1.340000 0.060000 0
1.360000 0.060000 0
1.380000 0.060000 0
1.400000 0.060000 0
1.420000 0.060000 0
1.440000 0.060000 0
1.460000 0.060000 0
1.480000 0.060000 0
1.500000 0.060000 0
1.520000 0.060000 0
1.540000 0.060000 0
1.560000 0.060000 0
1.580000 0.060000 0
1.600000 0.060000 0
1.620000 0.060000 0
1.640000 0.060000 0
1.660000 0.060000 0
1.680000 0.060000 0
1.700000 0.060000 0
1.720000 0.060000 0
1.740000 0.060000 0
1.760000 0.060000 0
1.780000 0.060000 0
1.800000 0.060000 0
1.820000 0.060000 0
1.840000 0.060000 0
1.860000 0.060000 0
1.880000 0.060000 0
1.900000 0.060000 0
1.920000 0.060000 0
1.940000 0.060000 0
1.960000 0.060000 0
0.000000 0.080000 0
0.020000 0.080000 0
0.040000 0.080000 0
0.060000 0.080000 0
0.080000 0.080000 0
0.100000 0.080000 0
0.120000 0.080000 0
0.140000 0.080000 0
0.160000 0.080000 0
0.180000 0.080000 0
0.200000 0.080000 0
0.220000 0.080000 0
0.240000 0.080000 0
0.260000 0.080000 0
0.280000 0.080000 0
0.300000 0.080000 0
0.320000 0.080000 0
0.340000 0.080000 0
0.360000 0.080000 0
0.380000 0.080000 0
0.400000 0.080000 0
0.420000 0.080000 0
0.440000 0.080000 0
0.460000 0.080000 0
0.480000 0.080000 0
0.500000 0.080000 0
0.520000 0.080000 0
0.540000 0.080000 0
0.560000 0.080000 0
0.580000 0.080000 0
0.600000 0.080000 0
0.620000 0.080000 0
0.640000 0.080000 0
0.660000 0.080000 0
0.680000 0.080000 0
0.700000 0.080000 0
0.720000 0.080000 0
0.740000 0.080000 0
0.760000 0.080000 0
0.780000 0.080000 0
0.800000 0.080000 0
0.820000 0.080000 0
0.840000 0.080000 0
0.860000 0.080000 0
0.880000 0.080000 0
0.900000 0.080000 0
0.920000 0.080000 0
0.940000 0.080000 0
0.960000 0.080000 0
0.980000 0.080000 0
1.000000 0.080000 0
1.020000 0.080000 0
1.040000 0.080000 0
1.060000 0.080000 0
1.080000 0.080000 0
1.100000 0.080000 0
1.120000 0.080000 0
1.140000 0.080000 0
1.160000 0.080000 0
1.180000 0.080000 0
1.200000 0.080000 0
1.220000 0.080000 0
1.240000 0.080000 0
1.260000 0.080000 0
1.280000 0.080000 0
1.300000 0.080000 0
1.320000 0.080000 0
1.340000 0.080000 0
1.360000 0.080000 0
1.380000 0.080000 0
1.400000 0.080000 0
1.420000 0.080000 0
1.440000 0.080000 0
1.460000 0.080000 0
1.480000 0.080000 0
1.500000 0.080000 0
1.520000 0.080000 0
1.540000 0.080000 0
1.560000 0.080000 0
1.580000 0.080000 0
1.600000 0.080000 0
1.620000 0.080000 0
1.640000 0.080000 0
1.660000 0.080000 0
1.680000 0.080000 0
1.700000 0.080000 0
1.720000 0.080000 0
1.740000 0.080000 0
1.760000 0.080000 0
1.780000 0.080000 0
1.800000 0.080000 0
1.820000 0.080000 0
1.840000 0.080000 0
1.860000 0.080000 0
1.880000 0.080000 0
[...]
POINT_DATA 4851 

VECTORS velocity float
0.000000 0.000000 0
-0.000418 0.000000 0
-0.000556 0.000000 0
-0.000511 0.000000 0
-0.000427 0.000000 0
-0.000355 0.000000 0
-0.000301 0.000000 0
-0.000262 0.000000 0
-0.000233 0.000000 0
-0.000210 0.000000 0
-0.000192 0.000000 0
-0.000177 0.000000 0
-0.000164 0.000000 0
-0.000152 0.000000 0
-0.000142 0.000000 0
-0.000132 0.000000 0
-0.000123 0.000000 0
-0.000115 0.000000 0
-0.000107 0.000000 0
-0.000100 0.000000 0
-0.000093 0.000000 0
-0.000086 0.000000 0
-0.000080 0.000000 0
-0.000074 0.000000 0
-0.000068 0.000000 0
-0.000062 0.000000 0
-0.000057 0.000000 0
-0.000052 0.000000 0
-0.000047 0.000000 0
-0.000042 0.000000 0
-0.000037 0.000000 0
-0.000031 0.000000 0
-0.000025 0.000000 0
-0.000018 0.000000 0
-0.000010 0.000000 0
-0.000003 0.000000 0
0.000000 0.000000 0
0.000000 0.000000 0
0.000000 0.000000 0
0.000000 0.000000 0
0.000000 0.000000 0
-0.000022 0.000000 0
-0.000066 0.000000 0
-0.000111 0.000000 0
-0.000147 0.000000 0
-0.000170 0.000000 0
-0.000185 0.000000 0
-0.000194 0.000000 0
-0.000200 0.000000 0
-0.000204 0.000000 0
-0.000207 0.000000 0
-0.000209 0.000000 0
-0.000212 0.000000 0
-0.000214 0.000000 0
-0.000216 0.000000 0
-0.000217 0.000000 0
-0.000219 0.000000 0
-0.000221 0.000000 0
-0.000222 0.000000 0
-0.000223 0.000000 0
-0.000225 0.000000 0
-0.000226 0.000000 0
-0.000227 0.000000 0
-0.000228 0.000000 0
-0.000229 0.000000 0
-0.000230 0.000000 0
-0.000231 0.000000 0
-0.000232 0.000000 0
-0.000233 0.000000 0
-0.000234 0.000000 0
-0.000235 0.000000 0
-0.000236 0.000000 0
-0.000236 0.000000 0
-0.000237 0.000000 0
-0.000238 0.000000 0
-0.000239 0.000000 0
-0.000240 0.000000 0
-0.000241 0.000000 0
-0.000242 0.000000 0
-0.000242 0.000000 0
-0.000242 0.000000 0
-0.000242 0.000000 0
-0.000240 0.000000 0
-0.000238 0.000000 0
-0.000236 0.000000 0
-0.000235 0.000000 0
-0.000235 0.000000 0
-0.000239 0.000000 0
-0.000248 0.000000 0
-0.000264 0.000000 0
-0.000286 0.000000 0
-0.000313 0.000000 0
-0.000339 0.000000 0
-0.000355 0.000000 0
-0.000347 0.000000 0
-0.000301 0.000000 0
-0.000208 0.000000 0
-0.000085 0.000000 0
0.000000 0.000000 0
0.000000 0.000419 0
-0.000832 0.000557 0
-0.001289 0.000093 0
-0.001342 -0.000128 0
-0.001234 -0.000155 0
-0.001096 -0.000126 0
-0.000970 -0.000092 0
-0.000867 -0.000068 0
-0.000784 -0.000051 0
-0.000715 -0.000040 0
-0.000658 -0.000033 0
-0.000609 -0.000028 0
-0.000566 -0.000024 0
-0.000527 -0.000021 0
-0.000492 -0.000019 0
-0.000460 -0.000018 0
-0.000430 -0.000016 0
-0.000402 -0.000015 0
-0.000376 -0.000014 0
-0.000351 -0.000014 0
-0.000327 -0.000013 0
-0.000304 -0.000012 0
-0.000281 -0.000012 0
-0.000260 -0.000011 0
-0.000239 -0.000011 0
-0.000219 -0.000011 0
-0.000199 -0.000010 0
-0.000181 -0.000010 0
-0.000162 -0.000009 0
-0.000144 -0.000009 0
-0.000126 -0.000010 0
-0.000106 -0.000011 0
-0.000084 -0.000013 0
-0.000059 -0.000015 0
-0.000033 -0.000014 0
-0.000011 -0.000009 0
0.000000 -0.000002 0
0.000000 0.000000 0
0.000000 0.000000 0
0.000000 0.000000 0
0.000000 0.000022 0
-0.000065 0.000066 0
-0.000189 0.000089 0
-0.000319 0.000080 0
-0.000428 0.000059 0
-0.000508 0.000038 0
-0.000564 0.000023 0
-0.000601 0.000014 0
-0.000627 0.000009 0
-0.000646 0.000006 0
-0.000661 0.000005 0
-0.000673 0.000004 0
-0.000684 0.000004 0
-0.000693 0.000004 0
-0.000702 0.000003 0
-0.000709 0.000003 0
-0.000716 0.000003 0
-0.000723 0.000003 0
-0.000729 0.000002 0
-0.000735 0.000002 0
-0.000740 0.000002 0
-0.000745 0.000002 0
-0.000749 0.000002 0
-0.000754 0.000002 0
-0.000758 0.000002 0
-0.000762 0.000002 0
-0.000765 0.000001 0
-0.000769 0.000001 0
-0.000772 0.000001 0
-0.000775 0.000001 0
-0.000778 0.000001 0
-0.000781 0.000001 0
-0.000784 0.000001 0
-0.000786 0.000001 0
-0.000789 0.000001 0
-0.000792 0.000001 0
-0.000794 0.000001 0
-0.000797 0.000001 0
-0.000798 0.000001 0
-0.000799 0.000000 0
-0.000799 -0.000001 0
-0.000796 -0.000002 0
-0.000792 -0.000004 0
-0.000785 -0.000005 0
-0.000779 -0.000004 0
-0.000775 -0.000002 0
-0.000777 0.000004 0
-0.000790 0.000013 0
-0.000819 0.000025 0
-0.000866 0.000038 0
-0.000929 0.000049 0
-0.001000 0.000053 0
-0.001062 0.000041 0
-0.001085 0.000008 0
-0.001034 -0.000054 0
-0.000872 -0.000140 0
-0.000588 -0.000216 0
-0.000237 -0.000209 0
0.000000 -0.000085 0
0.000000 0.000833 0
-0.000719 0.001291 0
-0.001387 0.000511 0
-0.001679 -0.000054 0
-0.001712 -0.000246 0
-0.001631 -0.000263 0
-0.001513 -0.000228 0
-0.001393 -0.000186 0
-0.001284 -0.000151 0
-0.001188 -0.000125 0
-0.001103 -0.000105 0
-0.001027 -0.000091 0
-0.000960 -0.000081 0
-0.000898 -0.000073 0
-0.000842 -0.000066 0
-0.000789 -0.000061 0
-0.000739 -0.000057 0
-0.000693 -0.000054 0
-0.000648 -0.000051 0
-0.000606 -0.000048 0
-0.000565 -0.000046 0
-0.000525 -0.000045 0
-0.000487 -0.000043 0
-0.000450 -0.000042 0
-0.000414 -0.000040 0
-0.000379 -0.000039 0
-0.000345 -0.000037 0
-0.000312 -0.000036 0
-0.000279 -0.000035 0
-0.000247 -0.000036 0
-0.000214 -0.000038 0
-0.000178 -0.000041 0
-0.000140 -0.000046 0
-0.000098 -0.000050 0
-0.000056 -0.000048 0
-0.000019 -0.000032 0
0.000000 -0.000010 0
0.000000 0.000000 0
0.000000 0.000000 0
0.000000 0.000000 0
0.000000 0.000065 0
-0.000089 0.000188 0
-0.000255 0.000253 0
-0.000436 0.000238 0
-0.000598 0.000188 0
-0.000728 0.000135 0
-0.000825 0.000093 0
-0.000897 0.000063 0
-0.000951 0.000044 0
-0.000991 0.000033 0
-0.001023 0.000026 0
-0.001050 0.000022 0
-0.001073 0.000019 0
-0.001093 0.000017 0
-0.001111 0.000016 0
-0.001127 0.000014 0
-0.001142 0.000013 0
-0.001156 0.000012 0
-0.001168 0.000011 0
-0.001179 0.000010 0
-0.001190 0.000010 0
-0.001200 0.000009 0
-0.001209 0.000008 0
-0.001217 0.000008 0
-0.001225 0.000007 0
-0.001232 0.000007 0
-0.001239 0.000007 0
-0.001246 0.000006 0
-0.001252 0.000006 0
-0.001257 0.000005 0
-0.001263 0.000005 0
-0.001268 0.000005 0
-0.001272 0.000005 0
-0.001277 0.000005 0
-0.001281 0.000005 0
-0.001285 0.000005 0
-0.001289 0.000004 0
-0.001292 0.000004 0
-0.001294 0.000002 0
-0.001295 -0.000000 0
-0.001293 -0.000004 0
-0.001288 -0.000008 0
-0.001281 -0.000011 0
-0.001271 -0.000013 0
-0.001262 -0.000011 0
-0.001258 -0.000002 0
-0.001263 0.000015 0
-0.001283 0.000041 0
-0.001326 0.000075 0
-0.001392 0.000109 0
-0.001476 0.000134 0
-0.001565 0.000132 0
-0.001629 0.000084 0
-0.001628 -0.000029 0
-0.001513 -0.000213 0
-0.001244 -0.000446 0
-0.000819 -0.000635 0
-0.000324 -0.000589 0
0.000000 -0.000238 0
0.000000 0.001138 0
-0.000519 0.001944 0
-0.001183 0.001053 0
-0.001603 0.000198 0
-0.001772 -0.000203 0
-0.001787 -0.000325 0
-0.001727 -0.000330 0
-0.001637 -0.000296 0
-0.001541 -0.000256 0
-0.001446 -0.000221 0
-0.001357 -0.000193 0
-0.001275 -0.000170 0
-0.001199 -0.000153 0
-0.001128 -0.000139 0
-0.001061 -0.000128 0
-0.000998 -0.000119 0
-0.000938 -0.000112 0
-0.000881 -0.000106 0
-0.000826 -0.000101 0
-0.000773 -0.000097 0
-0.000722 -0.000093 0
-0.000673 -0.000090 0
-0.000624 -0.000087 0
-0.000577 -0.000084 0
-0.000531 -0.000082 0
-0.000486 -0.000079 0
-0.000442 -0.000077 0
-0.000399 -0.000075 0
-0.000357 -0.000074 0
-0.000314 -0.000075 0
-0.000270 -0.000078 0
-0.000224 -0.000084 0
-0.000175 -0.000093 0
-0.000123 -0.000098 0
-0.000070 -0.000093 0
-0.000024 -0.000064 0
0.000000 -0.000021 0
0.000000 0.000000 0
0.000000 0.000000 0
0.000000 0.000000 0
0.000000 0.000110 0
-0.000084 0.000320 0
-0.000247 0.000436 0
-0.000433 0.000423 0
-0.000609 0.000350 0
-0.000758 0.000265 0
-0.000878 0.000193 0
-0.000972 0.000139 0
-0.001045 0.000103 0
-0.001104 0.000079 0
-0.001152 0.000064 0
-0.001192 0.000054 0
-0.001227 0.000047 0
-0.001258 0.000041 0
-0.001285 0.000037 0
-0.001310 0.000034 0
-0.001333 0.000031 0
-0.001354 0.000028 0
-0.001373 0.000026 0
-0.001390 0.000024 0
-0.001406 0.000022 0
-0.001420 0.000021 0
-0.001434 0.000019 0
-0.001446 0.000018 0
-0.001458 0.000017 0
-0.001468 0.000016 0
-0.001478 0.000015 0
-0.001488 0.000014 0
-0.001496 0.000013 0
-0.001504 0.000012 0
-0.001512 0.000011 0
-0.001519 0.000011 0
-0.001525 0.000010 0
-0.001531 0.000010 0
-0.001537 0.000010 0
-0.001542 0.000009 0
-0.001547 0.000008 0
-0.001550 0.000006 0
-0.001553 0.000003 0
-0.001553 -0.000002 0
-0.001551 -0.000008 0
-0.001546 -0.000014 0
-0.001539 -0.000020 0
-0.001529 -0.000023 0
-0.001520 -0.000018 0
-0.001516 -0.000002 0
-0.001522 0.000029 0
-0.001545 0.000076 0
-0.001589 0.000133 0
-0.001657 0.000188 0
-0.001742 0.000222 0
-0.001825 0.000205 0
-0.001874 0.000104 0
-0.001846 -0.000108 0
-0.001689 -0.000438 0
-0.001366 -0.000834 0
-0.000884 -0.001137 0
-0.000343 -0.001028 0
0.000000 -0.000409 0
0.000000 0.001353 0
-0.000366 0.002474 0
-0.000949 0.001595 0
-0.001397 0.000536 0
-0.001641 -0.000061 0
-0.001730 -0.000308 0
-0.001728 -0.000377 0
-0.001680 -0.000372 0
-0.001610 -0.000342 0
-0.001534 -0.000308 0
-0.001456 -0.000276 0
-0.001380 -0.000250 0
-0.001306 -0.000228 0
-0.001236 -0.000210 0
-0.001169 -0.000196 0
-0.001104 -0.000184 0
-0.001041 -0.000174 0
-0.000980 -0.000165 0
-0.000922 -0.000158 0
-0.000865 -0.000152 0
-0.000809 -0.000147 0
-0.000754 -0.000142 0
-0.000701 -0.000138 0
-0.000649 -0.000134 0
-0.000597 -0.000131 0
-0.000547 -0.000127 0
-0.000497 -0.000124 0
-0.000448 -0.000122 0
-0.000400 -0.000121 0
-0.000351 -0.000122 0
-0.000301 -0.000127 0
-0.000249 -0.000136 0
-0.000193 -0.000147 0
-0.000135 -0.000155 0
-0.000077 -0.000146 0
-0.000026 -0.000102 0
0.000000 -0.000034 0
0.000000 0.000000 0
0.000000 0.000000 0
0.000000 0.000000 0
0.000000 0.000148 0
-0.000066 0.000435 0
-0.000201 0.000602 0
-0.000363 0.000599 0
-0.000525 0.000513 0
-0.000670 0.000404 0
-0.000793 0.000306 0
-0.000895 0.000230 0
-0.000978 0.000176 0
-0.001048 0.000139 0
-0.001106 0.000114 0
-0.001157 0.000097 0
-0.001202 0.000085 0
-0.001242 0.000076 0
-0.001279 0.000068 0
-0.001312 0.000062 0
-0.001342 0.000056 0
-0.001370 0.000051 0
-0.001395 0.000047 0
-0.001418 0.000043 0
-0.001440 0.000040 0
-0.001459 0.000037 0
-0.001477 0.000034 0
-0.001493 0.000032 0
-0.001508 0.000029 0
-0.001522 0.000027 0
-0.001535 0.000026 0
-0.001547 0.000024 0
-0.001559 0.000022 0
-0.001569 0.000021 0
-0.001579 0.000019 0
-0.001588 0.000018 0
-0.001597 0.000017 0
-0.001605 0.000016 0
-0.001612 0.000016 0
-0.001619 0.000014 0
-0.001625 0.000013 0
-0.001630 0.000010 0
-0.001634 0.000005 0
-0.001636 -0.000002 0
-0.001636 -0.000011 0
-0.001633 -0.000021 0
-0.001627 -0.000029 0
-0.001620 -0.000032 0
-0.001613 -0.000024 0
-0.001611 -0.000001 0
-0.001617 0.000044 0
-0.001639 0.000109 0
-0.001681 0.000188 0
-0.001743 0.000262 0
-0.001819 0.000301 0
-0.001890 0.000264 0
-0.001925 0.000104 0
-0.001878 -0.000215 0
-0.001702 -0.000693 0
-0.001364 -0.001250 0
-0.000874 -0.001658 0
-0.000334 -0.001473 0
0.000000 -0.000581 0
0.000000 0.001504 0
-0.000260 0.002894 0
-0.000751 0.002085 0
-0.001174 0.000890 0
-0.001440 0.000131 0
-0.001569 -0.000237 0
-0.001608 -0.000379 0
-0.001594 -0.000413 0
-0.001553 -0.000402 0
-0.001498 -0.000375 0
-0.001437 -0.000346 0
-0.001374 -0.000319 0
-0.001311 -0.000296 0
-0.001248 -0.000277 0
-0.001186 -0.000260 0
-0.001125 -0.000247 0
-0.001065 -0.000235 0
-0.001006 -0.000225 0
-0.000948 -0.000217 0
-0.000892 -0.000209 0
-0.000836 -0.000203 0
-0.000781 -0.000197 0
-0.000727 -0.000192 0
-0.000673 -0.000188 0
-0.000620 -0.000183 0
-0.000568 -0.000179 0
-0.000516 -0.000175 0
-0.000465 -0.000172 0
-0.000414 -0.000171 0
-0.000363 -0.000173 0
-0.000310 -0.000180 0
-0.000256 -0.000192 0
-0.000198 -0.000206 0
-0.000138 -0.000215 0
-0.000078 -0.000202 0
-0.000026 -0.000141 0
0.000000 -0.000047 0
0.000000 0.000000 0
0.000000 0.000000 0
0.000000 0.000000 0
0.000000 0.000175 0
-0.000043 0.000521 0
-0.000139 0.000733 0
-0.000262 0.000746 0
-0.000392 0.000656 0
-0.000516 0.000533 0
-0.000627 0.000417 0
-0.000723 0.000324 0
-0.000806 0.000255 0
-0.000878 0.000207 0
-0.000941 0.000173 0
-0.000998 0.000149 0
-0.001050 0.000132 0
-0.001098 0.000118 0
-0.001141 0.000107 0
-0.001182 0.000097 0
-0.001219 0.000089 0
-0.001253 0.000081 0
-0.001285 0.000074 0
-0.001314 0.000068 0
-0.001340 0.000062 0
-0.001364 0.000057 0
-0.001386 0.000053 0
-0.001406 0.000049 0
-0.001425 0.000046 0
-0.001442 0.000042 0
-0.001458 0.000040 0
-0.001474 0.000037 0
-0.001488 0.000034 0
-0.001501 0.000032 0
-0.001514 0.000030 0
-0.001526 0.000028 0
-0.001537 0.000027 0
-0.001547 0.000025 0
-0.001557 0.000024 0
-0.001566 0.000022 0
-0.001575 0.000019 0
-0.001582 0.000015 0
-0.001589 0.000009 0
-0.001595 0.000000 0
-0.001599 -0.000011 0
-0.001600 -0.000023 0
-0.001599 -0.000034 0
-0.001596 -0.000037 0
-0.001594 -0.000028 0
-0.001595 0.000002 0
-0.001602 0.000057 0
-0.001622 0.000139 0
-0.001659 0.000236 0
-0.001712 0.000326 0
-0.001777 0.000369 0
-0.001836 0.000310 0
-0.001859 0.000092 0
-0.001805 -0.000331 0
-0.001628 -0.000953 0
-0.001298 -0.001663 0
-0.000828 -0.002166 0
-0.000314 -0.001902 0
0.000000 -0.000744 0
0.000000 0.001613 0
-0.000188 0.003226 0
-0.000595 0.002509 0
-0.000974 0.001225 0
-0.001231 0.000335 0
-0.001372 -0.000140 0
-0.001430 -0.000352 0
-0.001439 -0.000427 0
-0.001418 -0.000438 0
-0.001383 -0.000423 0
-0.001339 -0.000400 0
-0.001291 -0.000376 0
-0.001240 -0.000354 0
-0.001188 -0.000335 0
-0.001135 -0.000318 0
-0.001082 -0.000304 0
-0.001028 -0.000292 0
-0.000975 -0.000281 0
-0.000921 -0.000272 0
-0.000868 -0.000264 0
-0.000816 -0.000257 0
-0.000763 -0.000251 0
-0.000711 -0.000246 0
-0.000660 -0.000241 0
-0.000608 -0.000236 0
-0.000557 -0.000231 0
-0.000507 -0.000227 0
-0.000456 -0.000224 0
-0.000406 -0.000223 0
-0.000355 -0.000226 0
-0.000303 -0.000234 0
-0.000249 -0.000248 0
-0.000192 -0.000265 0
-0.000133 -0.000274 0
-0.000075 -0.000257 0
-0.000025 -0.000180 0
0.000000 -0.000060 0
0.000000 0.000000 0
0.000000 0.000000 0
0.000000 0.000000 0
0.000000 0.000191 0
-0.000021 0.000573 0
-0.000075 0.000821 0
-0.000152 0.000852 0
-0.000242 0.000767 0
-0.000333 0.000639 0
-0.000421 0.000513 0
-0.000501 0.000409 0
-0.000575 0.000331 0
-0.000642 0.000275 0
-0.000703 0.000235 0
-0.000761 0.000206 0
-0.000816 0.000184 0
-0.000868 0.000167 0
-0.000917 0.000152 0
-0.000963 0.000139 0
-0.001006 0.000128 0
-0.001046 0.000117 0
-0.001084 0.000107 0
-0.001118 0.000098 0
-0.001150 0.000090 0
-0.001179 0.000083 0
-0.001205 0.000076 0
-0.001229 0.000070 0
-0.001251 0.000065 0
-0.001271 0.000061 0
-0.001290 0.000057 0
-0.001309 0.000053 0
-0.001326 0.000050 0
-0.001342 0.000046 0
-0.001358 0.000044 0
-0.001373 0.000041 0
-0.001387 0.000039 0
-0.001401 0.000036 0
-0.001414 0.000034 0
-0.001426 0.000032 0
-0.001438 0.000029 0
-0.001450 0.000024 0
-0.001461 0.000017 0
-0.001471 0.000007 0
-0.001480 -0.000006 0
-0.001487 -0.000020 0
-0.001493 -0.000032 0
-0.001497 -0.000037 0
-0.001501 -0.000027 0
-0.001506 0.000007 0
-0.001515 0.000071 0
-0.001534 0.000165 0
-0.001565 0.000278 0
-0.001609 0.000380 0
-0.001663 0.000425 0
-0.001710 0.000346 0
-0.001726 0.000073 0
-0.001671 -0.000446 0
-0.001505 -0.001200 0
-0.001199 -0.002051 0
-0.000764 -0.002642 0
-0.000290 -0.002301 0
0.000000 -0.000895 0
0.000000 0.001693 0
-0.000138 0.003489 0
-0.000474 0.002871 0
-0.000805 0.001527 0
-0.001040 0.000529 0
-0.001175 -0.000037 0
-0.001237 -0.000313 0
-0.001255 -0.000425 0
-0.001247 -0.000457 0
-0.001225 -0.000454 0
-0.001195 -0.000438 0
-0.001160 -0.000418 0
-0.001122 -0.000399 0
-0.001081 -0.000382 0
-0.001038 -0.000367 0
-0.000994 -0.000353 0
-0.000949 -0.000342 0
-0.000902 -0.000332 0
-0.000856 -0.000323 0
-0.000808 -0.000315 0
-0.000761 -0.000308 0
-0.000713 -0.000301 0
-0.000666 -0.000296 0
-0.000618 -0.000290 0
-0.000570 -0.000285 0
-0.000522 -0.000280 0
-0.000475 -0.000276 0
-0.000427 -0.000273 0
-0.000380 -0.000272 0
-0.000332 -0.000276 0
-0.000282 -0.000286 0
-0.000231 -0.000302 0
-0.000178 -0.000321 0
-0.000122 -0.000332 0
-0.000068 -0.000310 0
-0.000023 -0.000216 0
0.000000 -0.000072 0
0.000000 0.000000 0
0.000000 0.000000 0
0.000000 0.000000 0
0.000000 0.000196 0
-0.000002 0.000595 0
-0.000017 0.000865 0
-0.000049 0.000913 0
-0.000094 0.000837 0
-0.000148 0.000712 0
-0.000205 0.000585 0
-0.000263 0.000478 0
-0.000320 0.000395 0
-0.000376 0.000336 0
-0.000430 0.000293 0
-0.000484 0.000262 0
-0.000537 0.000238 0
-0.000590 0.000218 0
-0.000641 0.000202 0
-0.000691 0.000186 0
-0.000739 0.000172 0
-0.000784 0.000159 0
-0.000827 0.000146 0
-0.000868 0.000134 0
-0.000905 0.000123 0
-0.000938 0.000112 0
-0.000969 0.000103 0
-0.000997 0.000095 0
-0.001022 0.000088 0
-0.001045 0.000082 0
-0.001067 0.000077 0
-0.001088 0.000072 0
-0.001108 0.000068 0
-0.001128 0.000064 0
-0.001147 0.000060 0
-0.001165 0.000057 0
-0.001183 0.000054 0
-0.001200 0.000051 0
-0.001217 0.000049 0
-0.001233 0.000046 0
-0.001249 0.000043 0
-0.001265 0.000037 0
-0.001280 0.000030 0
-0.001296 0.000019 0
-0.001311 0.000005 0
-0.001325 -0.000010 0
-0.001339 -0.000024 0
-0.001350 -0.000030 0
-0.001361 -0.000019 0
-0.001372 0.000017 0
-0.001384 0.000085 0
-0.001402 0.000188 0
-0.001428 0.000312 0
-0.001464 0.000424 0
-0.001506 0.000470 0
-0.001544 0.000373 0
-0.001553 0.000052 0
-0.001503 -0.000552 0
-0.001355 -0.001425 0
-0.001083 -0.002404 0
-0.000692 -0.003076 0
-0.000263 -0.002666 0
0.000000 -0.001034 0
0.000000 0.001752 0
-0.000103 0.003701 0
-0.000382 0.003176 0
-0.000668 0.001791 0
-0.000875 0.000704 0
-0.000995 0.000058 0
-0.001052 -0.000272 0
-0.001069 -0.000417 0
-0.001066 -0.000468 0
-0.001051 -0.000475 0
-0.001031 -0.000464 0
-0.001007 -0.000449 0
-0.000979 -0.000433 0
-0.000948 -0.000418 0
-0.000915 -0.000405 0
-0.000880 -0.000394 0
-0.000843 -0.000383 0
-0.000804 -0.000374 0
-0.000765 -0.000366 0
-0.000724 -0.000359 0
-0.000683 -0.000352 0
-0.000642 -0.000346 0
-0.000599 -0.000341 0
-0.000557 -0.000336 0
-0.000514 -0.000331 0
-0.000471 -0.000326 0
-0.000428 -0.000321 0
-0.000385 -0.000318 0
-0.000342 -0.000318 0
-0.000298 -0.000323 0
-0.000253 -0.000334 0
-0.000206 -0.000352 0
-0.000158 -0.000373 0
-0.000108 -0.000384 0
-0.000059 -0.000357 0
-0.000019 -0.000247 0
0.000000 -0.000083 0
0.000000 0.000000 0
0.000000 0.000000 0
0.000000 0.000000 0
0.000000 0.000192 0
0.000013 0.000590 0
0.000030 0.000868 0
0.000040 0.000929 0
0.000038 0.000866 0
0.000023 0.000750 0
-0.000002 0.000628 0
-0.000033 0.000524 0
-0.000069 0.000443 0
-0.000109 0.000385 0
-0.000152 0.000343 0
-0.000197 0.000313 0
-0.000244 0.000289 0
-0.000294 0.000270 0
-0.000344 0.000253 0
-0.000395 0.000237 0
-0.000445 0.000221 0
-0.000495 0.000206 0
-0.000543 0.000190 0
-0.000589 0.000175 0
-0.000632 0.000161 0
-0.000671 0.000147 0
-0.000707 0.000134 0
-0.000739 0.000123 0
-0.000768 0.000114 0
-0.000794 0.000106 0
-0.000818 0.000099 0
-0.000841 0.000094 0
-0.000864 0.000089 0
-0.000886 0.000085 0
-0.000908 0.000081 0
-0.000929 0.000077 0
-0.000950 0.000073 0
-0.000971 0.000070 0
-0.000992 0.000067 0
-0.001012 0.000064 0
-0.001032 0.000060 0
-0.001053 0.000055 0
-0.001073 0.000048 0
-0.001094 0.000037 0
-0.001115 0.000023 0
-0.001137 0.000007 0
-0.001157 -0.000008 0
-0.001177 -0.000015 0
-0.001195 -0.000005 0
-0.001212 0.000030 0
-0.001229 0.000101 0
-0.001246 0.000209 0
-0.001268 0.000339 0
-0.001296 0.000458 0
-0.001328 0.000504 0
-0.001356 0.000393 0
-0.001362 0.000032 0
-0.001319 -0.000644 0
-0.001193 -0.001620 0
-0.000959 -0.002714 0
-0.000617 -0.003462 0
-0.000237 -0.002993 0
0.000000 -0.001159 0
0.000000 0.001797 0
-0.000077 0.003872 0
-0.000310 0.003436 0
-0.000557 0.002020 0
-0.000737 0.000857 0
-0.000840 0.000139 0
-0.000885 -0.000238 0
-0.000898 -0.000411 0
-0.000893 -0.000475 0
-0.000882 -0.000489 0
-0.000866 -0.000483 0
-0.000849 -0.000470 0
-0.000829 -0.000457 0
-0.000807 -0.000445 0
-0.000782 -0.000435 0
-0.000755 -0.000425 0
-0.000725 -0.000417 0
-0.000694 -0.000409 0
-0.000662 -0.000402 0
-0.000628 -0.000396 0
-0.000593 -0.000390 0
-0.000558 -0.000385 0
-0.000521 -0.000380 0
-0.000484 -0.000376 0
-0.000447 -0.000371 0
-0.000410 -0.000366 0
-0.000372 -0.000362 0
-0.000334 -0.000359 0
-0.000296 -0.000359 0
-0.000257 -0.000365 0
-0.000218 -0.000377 0
-0.000177 -0.000397 0
-0.000134 -0.000419 0
-0.000091 -0.000430 0
-0.000049 -0.000398 0
-0.000016 -0.000275 0
0.000000 -0.000091 0
0.000000 0.000000 0
0.000000 0.000000 0
0.000000 0.000000 0
0.000000 0.000183 0
0.000023 0.000564 0
0.000066 0.000837 0
0.000111 0.000906 0