# vtk DataFile Version 2.0
generated by CFD-lab course output (written by Tobias Neckel) 
ASCII

DATASET STRUCTURED_GRID
DIMENSIONS  99 49 1 
POINTS 4851 float

0.000000 0.000000 0
0.020000 0.000000 0
0.040000 0.000000 0
0.060000 0.000000 0
0.080000 0.000000 0
0.100000 0.000000 0
0.120000 0.000000 0
0.140000 0.000000 0
0.160000 0.000000 0
0.180000 0.000000 0
0.200000 0.000000 0
0.220000 0.000000 0
0.240000 0.000000 0
0.260000 0.000000 0
0.280000 0.000000 0
0.300000 0.000000 0
0.320000 0.000000 0
0.340000 0.000000 0
0.360000 0.000000 0
0.380000 0.000000 0
0.400000 0.000000 0
0.420000 0.000000 0
0.440000 0.000000 0
0.460000 0.000000 0
0.480000 0.000000 0
0.500000 0.000000 0
0.520000 0.000000 0
0.540000 0.000000 0
0.560000 0.000000 0
0.580000 0.000000 0
0.600000 0.000000 0
0.620000 0.000000 0
0.640000 0.000000 0
0.660000 0.000000 0
0.680000 0.000000 0
0.700000 0.000000 0
0.720000 0.000000 0
0.740000 0.000000 0
0.760000 0.000000 0
0.780000 0.000000 0
0.800000 0.000000 0
0.820000 0.000000 0
0.840000 0.000000 0
0.860000 0.000000 0
0.880000 0.000000 0
0.900000 0.000000 0
0.920000 0.000000 0
0.940000 0.000000 0
0.960000 0.000000 0
0.980000 0.000000 0
1.000000 0.000000 0
1.020000 0.000000 0
1.040000 0.000000 0
1.060000 0.000000 0
1.080000 0.000000 0
1.100000 0.000000 0
1.120000 0.000000 0
1.140000 0.000000 0
1.160000 0.000000 0
1.180000 0.000000 0
1.200000 0.000000 0
1.220000 0.000000 0
1.240000 0.000000 0
1.260000 0.000000 0
1.280000 0.000000 0
1.300000 0.000000 0
1.320000 0.000000 0
1.340000 0.000000 0
1.360000 0.000000 0
1.380000 0.000000 0
1.400000 0.000000 0
1.420000 0.000000 0
1.440000 0.000000 0
1.460000 0.000000 0
1.480000 0.000000 0
1.500000 0.000000 0
1.520000 0.000000 0
1.540000 0.000000 0
1.560000 0.000000 0
1.580000 0.000000 0
1.600000 0.000000 0
1.620000 0.000000 0
1.640000 0.000000 0
1.660000 0.000000 0
1.680000 0.000000 0
1.700000 0.000000 0
1.720000 0.000000 0
1.740000 0.000000 0
1.760000 0.000000 0
1.780000 0.000000 0
1.800000 0.000000 0
1.820000 0.000000 0
1.840000 0.000000 0
1.860000 0.000000 0
1.880000 0.000000 0
1.900000 0.000000 0
1.920000 0.000000 0
1.940000 0.000000 0
1.960000 0.000000 0
0.000000 0.020000 0
0.020000 0.020000 0
0.040000 0.020000 0
0.060000 0.020000 0
0.080000 0.020000 0
0.100000 0.020000 0
0.120000 0.020000 0
0.140000 0.020000 0
0.160000 0.020000 0
0.180000 0.020000 0
0.200000 0.020000 0
0.220000 0.020000 0
0.240000 0.020000 0
0.260000 0.020000 0
0.280000 0.020000 0
0.300000 0.020000 0
0.320000 0.020000 0
0.340000 0.020000 0
0.360000 0.020000 0
0.380000 0.020000 0
0.400000 0.020000 0
0.420000 0.020000 0
0.440000 0.020000 0
0.460000 0.020000 0
0.480000 0.020000 0
0.500000 0.020000 0
0.520000 0.020000 0
0.540000 0.020000 0
0.560000 0.020000 0
0.580000 0.020000 0
0.600000 0.020000 0
0.620000 0.020000 0
0.640000 0.020000 0
0.660000 0.020000 0
0.680000 0.020000 0
0.700000 0.020000 0
0.720000 0.020000 0
0.740000 0.020000 0
0.760000 0.020000 0
0.780000 0.020000 0
0.800000 0.020000 0
0.820000 0.020000 0
0.840000 0.020000 0
0.860000 0.020000 0
0.880000 0.020000 0
0.900000 0.020000 0
0.920000 0.020000 0
0.940000 0.020000 0
0.960000 0.020000 0
0.980000 0.020000 0
1.000000 0.020000 0
1.020000 0.020000 0
1.040000 0.020000 0
1.060000 0.020000 0
1.080000 0.020000 0
1.100000 0.020000 0
1.120000 0.020000 0
1.140000 0.020000 0
1.160000 0.020000 0
1.180000 0.020000 0
1.200000 0.020000 0
1.220000 0.020000 0
1.240000 0.020000 0
1.260000 0.020000 0
1.280000 0.020000 0
1.300000 0.020000 0
1.320000 0.020000 0
1.340000 0.020000 0
1.360000 0.020000 0
1.380000 0.020000 0
1.400000 0.020000 0
1.420000 0.020000 0
1.440000 0.020000 0
1.460000 0.020000 0
1.480000 0.020000 0
1.500000 0.020000 0
1.520000 0.020000 0
1.540000 0.020000 0
1.560000 0.020000 0
1.580000 0.020000 0
1.600000 0.020000 0
1.620000 0.020000 0
1.640000 0.020000 0
1.660000 0.020000 0
1.680000 0.020000 0
1.700000 0.020000 0
1.720000 0.020000 0
1.740000 0.020000 0
1.760000 0.020000 0
1.780000 0.020000 0
1.800000 0.020000 0
1.820000 0.020000 0
1.840000 0.020000 0
1.860000 0.020000 0
1.880000 0.020000 0
1.900000 0.020000 0
1.920000 0.020000 0
1.940000 0.020000 0
1.960000 0.020000 0
0.000000 0.040000 0
0.020000 0.040000 0
0.040000 0.040000 0
0.060000 0.040000 0
0.080000 0.040000 0
0.100000 0.040000 0
0.120000 0.040000 0
0.140000 0.040000 0
0.160000 0.040000 0
0.180000 0.040000 0
0.200000 0.040000 0
0.220000 0.040000 0
0.240000 0.040000 0
0.260000 0.040000 0
0.280000 0.040000 0
0.300000 0.040000 0
0.320000 0.040000 0
0.340000 0.040000 0
0.360000 0.040000 0
0.380000 0.040000 0
0.400000 0.040000 0
0.420000 0.040000 0
0.440000 0.040000 0
0.460000 0.040000 0
0.480000 0.040000 0
0.500000 0.040000 0
0.520000 0.040000 0
0.540000 0.040000 0
0.560000 0.040000 0
0.580000 0.040000 0
0.600000 0.040000 0
0.620000 0.040000 0
0.640000 0.040000 0
0.660000 0.040000 0
0.680000 0.040000 0
0.700000 0.040000 0
0.720000 0.040000 0
0.740000 0.040000 0
0.760000 0.040000 0
0.780000 0.040000 0
0.800000 0.040000 0
0.820000 0.040000 0
0.840000 0.040000 0
0.860000 0.040000 0
0.880000 0.040000 0
0.900000 0.040000 0
0.920000 0.040000 0
0.940000 0.040000 0
0.960000 0.040000 0
0.980000 0.040000 0
1.000000 0.040000 0
1.020000 0.040000 0
1.040000 0.040000 0
1.060000 0.040000 0
1.080000 0.040000 0
1.100000 0.040000 0
1.120000 0.040000 0
1.140000 0.040000 0
1.160000 0.040000 0
1.180000 0.040000 0
1.200000 0.040000 0
1.220000 0.040000 0
1.240000 0.040000 0
1.260000 0.040000 0
1.280000 0.040000 0
1.300000 0.040000 0
1.320000 0.040000 0
1.340000 0.040000 0
1.360000 0.040000 0
1.380000 0.040000 0
1.400000 0.040000 0
1.420000 0.040000 0
1.440000 0.040000 0
1.460000 0.040000 0
1.480000 0.040000 0
1.500000 0.040000 0
1.520000 0.040000 0
1.540000 0.040000 0
1.560000 0.040000 0
1.580000 0.040000 0
1.600000 0.040000 0
1.620000 0.040000 0
1.640000 0.040000 0
1.660000 0.040000 0
1.680000 0.040000 0
1.700000 0.040000 0
1.720000 0.040000 0
1.740000 0.040000 0
1.760000 0.040000 0
1.780000 0.040000 0
1.800000 0.040000 0
1.820000 0.040000 0
1.840000 0.040000 0
1.860000 0.040000 0
1.880000 0.040000 0
1.900000 0.040000 0
1.920000 0.040000 0
1.940000 0.040000 0
1.960000 0.040000 0
0.000000 0.060000 0
0.020000 0.060000 0
0.040000 0.060000 0
0.060000 0.060000 0
0.080000 0.060000 0
0.100000 0.060000 0
0.120000 0.060000 0
0.140000 0.060000 0
0.160000 0.060000 0
0.180000 0.060000 0
0.200000 0.060000 0
0.220000 0.060000 0
0.240000 0.060000 0
0.260000 0.060000 0
0.280000 0.060000 0
0.300000 0.060000 0
0.320000 0.060000 0
0.340000 0.060000 0
0.360000 0.060000 0
0.380000 0.060000 0
0.400000 0.060000 0
0.420000 0.060000 0
0.440000 0.060000 0
0.460000 0.060000 0
0.480000 0.060000 0
0.500000 0.060000 0
0.520000 0.060000 0
0.540000 0.060000 0
0.560000 0.060000 0
0.580000 0.060000 0
0.600000 0.060000 0
0.620000 0.060000 0
0.640000 0.060000 0
0.660000 0.060000 0
0.680000 0.060000 0
0.700000 0.060000 0
0.720000 0.060000 0
0.740000 0.060000 0
0.760000 0.060000 0
0.780000 0.060000 0
0.800000 0.060000 0
0.820000 0.060000 0
0.840000 0.060000 0
0.860000 0.060000 0
0.880000 0.060000 0
0.900000 0.060000 0
0.920000 0.060000 0
0.940000 0.060000 0
0.960000 0.060000 0
0.980000 0.060000 0
1.000000 0.060000 0
1.020000 0.060000 0
1.040000 0.060000 0
1.060000 0.060000 0
1.080000 0.060000 0
1.100000 0.060000 0
1.120000 0.060000 0
1.140000 0.060000 0
1.160000 0.060000 0
1.180000 0.060000 0
1.200000 0.060000 0
1.220000 0.060000 0
1.240000 0.060000 0
1.260000 0.060000 0
1.280000 0.060000 0
1.300000 0.060000 0
1.320000 0.060000 0
1.340000 0.060000 0
1.360000 0.060000 0
1.380000 0.060000 0
1.400000 0.060000 0
1.420000 0.060000 0
1.440000 0.060000 0
1.460000 0.060000 0
1.480000 0.060000 0
1.500000 0.060000 0
1.520000 0.060000 0
1.540000 0.060000 0
1.560000 0.060000 0
1.580000 0.060000 0
1.600000 0.060000 0
1.620000 0.060000 0
1.640000 0.060000 0
1.660000 0.060000 0
1.680000 0.060000 0
1.700000 0.060000 0
1.720000 0.060000 0
1.740000 0.060000 0
1.760000 0.060000 0
1.780000 0.060000 0
1.800000 0.060000 0
1.820000 0.060000 0
1.840000 0.060000 0
1.860000 0.060000 0
1.880000 0.060000 0
1.900000 0.060000 0
1.920000 0.060000 0
1.940000 0.060000 0
1.960000 0.060000 0
0.000000 0.080000 0
0.020000 0.080000 0
0.040000 0.080000 0
0.060000 0.080000 0
0.080000 0.080000 0
0.100000 0.080000 0
0.120000 0.080000 0
0.140000 0.080000 0
0.160000 0.080000 0
0.180000 0.080000 0
0.200000 0.080000 0
0.220000 0.080000 0
0.240000 0.080000 0
0.260000 0.080000 0
0.280000 0.080000 0
0.300000 0.080000 0
0.320000 0.080000 0
0.340000 0.080000 0
0.360000 0.080000 0
0.380000 0.080000 0
0.400000 0.080000 0
0.420000 0.080000 0
0.440000 0.080000 0
0.460000 0.080000 0
0.480000 0.080000 0
0.500000 0.080000 0
0.520000 0.080000 0
0.540000 0.080000 0
0.560000 0.080000 0
0.580000 0.080000 0
0.600000 0.080000 0
0.620000 0.080000 0
0.640000 0.080000 0
0.660000 0.080000 0
0.680000 0.080000 0
0.700000 0.080000 0
0.720000 0.080000 0
0.740000 0.080000 0
0.760000 0.080000 0
0.780000 0.080000 0
0.800000 0.080000 0
0.820000 0.080000 0
0.840000 0.080000 0
0.860000 0.080000 0
0.880000 0.080000 0
0.900000 0.080000 0
0.920000 0.080000 0
0.940000 0.080000 0
0.960000 0.080000 0
0.980000 0.080000 0
1.000000 0.080000 0
1.020000 0.080000 0
1.040000 0.080000 0
1.060000 0.080000 0
1.080000 0.080000 0
1.100000 0.080000 0
1.120000 0.080000 0
1.140000 0.080000 0
1.160000 0.080000 0
1.180000 0.080000 0
1.200000 0.080000 0
1.220000 0.080000 0
1.240000 0.080000 0
1.260000 0.080000 0
1.280000 0.080000 0
1.300000 0.080000 0
1.320000 0.080000 0
1.340000 0.080000 0
1.360000 0.080000 0
1.380000 0.080000 0
1.400000 0.080000 0
1.420000 0.080000 0
1.440000 0.080000 0
1.460000 0.080000 0
1.480000 0.080000 0
1.500000 0.080000 0
1.520000 0.080000 0
1.540000 0.080000 0
1.560000 0.080000 0
1.580000 0.080000 0
1.600000 0.080000 0
1.620000 0.080000 0
1.640000 0.080000 0
1.660000 0.080000 0
1.680000 0.080000 0
1.700000 0.080000 0
1.720000 0.080000 0
1.740000 0.080000 0
1.760000 0.080000 0
1.780000 0.080000 0
1.800000 0.080000 0
1.820000 0.080000 0
1.840000 0.080000 0
1.860000 0.080000 0
1.880000 0.080000 0
[...]
POINT_DATA 4851 

VECTORS velocity float
0.000000 0.000000 0
-0.000456 0.000000 0
-0.000595 0.000000 0
-0.000543 0.000000 0
-0.000454 0.000000 0
-0.000376 0.000000 0
-0.000317 0.000000 0
-0.000272 0.000000 0
-0.000238 0.000000 0
-0.000211 0.000000 0
-0.000189 0.000000 0
-0.000171 0.000000 0
-0.000156 0.000000 0
-0.000143 0.000000 0
-0.000131 0.000000 0
-0.000121 0.000000 0
-0.000112 0.000000 0
-0.000103 0.000000 0
-0.000096 0.000000 0
-0.000089 0.000000 0
-0.000082 0.000000 0
-0.000076 0.000000 0
-0.000071 0.000000 0
-0.000065 0.000000 0
-0.000060 0.000000 0
-0.000055 0.000000 0
-0.000049 0.000000 0
-0.000043 0.000000 0
-0.000037 0.000000 0
-0.000031 0.000000 0
-0.000024 0.000000 0
-0.000018 0.000000 0
-0.000011 0.000000 0
-0.000006 0.000000 0
-0.000002 0.000000 0
0.000000 0.000000 0
0.000000 0.000000 0
0.000000 0.000000 0
0.000000 0.000000 0
0.000000 0.000000 0
0.000000 0.000000 0
-0.000049 0.000000 0
-0.000131 0.000000 0
-0.000201 0.000000 0
-0.000246 0.000000 0
-0.000272 0.000000 0
-0.000286 0.000000 0
-0.000294 0.000000 0
-0.000300 0.000000 0
-0.000305 0.000000 0
-0.000309 0.000000 0
-0.000313 0.000000 0
-0.000317 0.000000 0
-0.000320 0.000000 0
-0.000323 0.000000 0
-0.000326 0.000000 0
-0.000329 0.000000 0
-0.000331 0.000000 0
-0.000333 0.000000 0
-0.000335 0.000000 0
-0.000337 0.000000 0
-0.000338 0.000000 0
-0.000340 0.000000 0
-0.000341 0.000000 0
-0.000342 0.000000 0
-0.000342 0.000000 0
-0.000343 0.000000 0
-0.000344 0.000000 0
-0.000344 0.000000 0
-0.000344 0.000000 0
-0.000345 0.000000 0
-0.000345 0.000000 0
-0.000346 0.000000 0
-0.000347 0.000000 0
-0.000349 0.000000 0
-0.000351 0.000000 0
-0.000353 0.000000 0
-0.000355 0.000000 0
-0.000358 0.000000 0
-0.000359 0.000000 0
-0.000360 0.000000 0
-0.000359 0.000000 0
-0.000355 0.000000 0
-0.000349 0.000000 0
-0.000341 0.000000 0
-0.000333 0.000000 0
-0.000329 0.000000 0
-0.000332 0.000000 0
-0.000347 0.000000 0
-0.000377 0.000000 0
-0.000423 0.000000 0
-0.000480 0.000000 0
-0.000541 0.000000 0
-0.000585 0.000000 0
-0.000590 0.000000 0
-0.000525 0.000000 0
-0.000372 0.000000 0
-0.000157 0.000000 0
0.000000 0.000000 0
0.000000 0.000456 0
-0.000912 0.000596 0
-0.001398 0.000088 0
-0.001452 -0.000141 0
-0.001338 -0.000167 0
-0.001188 -0.000137 0
-0.001049 -0.000104 0
-0.000930 -0.000078 0
-0.000830 -0.000060 0
-0.000747 -0.000048 0
-0.000676 -0.000039 0
-0.000616 -0.000033 0
-0.000564 -0.000028 0
-0.000518 -0.000024 0
-0.000477 -0.000021 0
-0.000441 -0.000019 0
-0.000408 -0.000017 0
-0.000378 -0.000015 0
-0.000350 -0.000014 0
-0.000325 -0.000013 0
-0.000301 -0.000012 0
-0.000279 -0.000011 0
-0.000258 -0.000011 0
-0.000238 -0.000010 0
-0.000218 -0.000010 0
-0.000199 -0.000010 0
-0.000179 -0.000011 0
-0.000158 -0.000011 0
-0.000136 -0.000012 0
-0.000114 -0.000012 0
-0.000091 -0.000013 0
-0.000067 -0.000013 0
-0.000045 -0.000011 0
-0.000025 -0.000009 0
-0.000010 -0.000005 0
-0.000002 -0.000001 0
0.000000 0.000000 0
0.000000 0.000000 0
0.000000 0.000000 0
0.000000 0.000000 0
0.000000 0.000048 0
-0.000133 0.000130 0
-0.000355 0.000151 0
-0.000558 0.000115 0
-0.000707 0.000071 0
-0.000805 0.000039 0
-0.000867 0.000022 0
-0.000909 0.000014 0
-0.000940 0.000010 0
-0.000964 0.000008 0
-0.000985 0.000008 0
-0.001003 0.000007 0
-0.001019 0.000007 0
-0.001034 0.000006 0
-0.001048 0.000005 0
-0.001060 0.000005 0
-0.001071 0.000004 0
-0.001081 0.000004 0
-0.001090 0.000003 0
-0.001099 0.000003 0
-0.001106 0.000003 0
-0.001112 0.000002 0
-0.001118 0.000002 0
-0.001122 0.000001 0
-0.001127 0.000001 0
-0.001130 0.000001 0
-0.001133 0.000001 0
-0.001136 0.000000 0
-0.001138 0.000000 0
-0.001140 0.000000 0
-0.001142 0.000000 0
-0.001144 0.000001 0
-0.001147 0.000001 0
-0.001151 0.000002 0
-0.001155 0.000003 0
-0.001161 0.000004 0
-0.001167 0.000004 0
-0.001174 0.000004 0
-0.001180 0.000004 0
-0.001184 0.000002 0
-0.001184 -0.000001 0
-0.001178 -0.000005 0
-0.001165 -0.000010 0
-0.001146 -0.000015 0
-0.001123 -0.000016 0
-0.001103 -0.000013 0
-0.001095 -0.000002 0
-0.001111 0.000018 0
-0.001162 0.000044 0
-0.001256 0.000075 0
-0.001390 0.000103 0
-0.001549 0.000117 0
-0.001699 0.000104 0
-0.001787 0.000049 0
-0.001745 -0.000061 0
-0.001503 -0.000218 0
-0.001035 -0.000368 0
-0.000427 -0.000373 0
0.000000 -0.000158 0
0.000000 0.000913 0
-0.000806 0.001399 0
-0.001544 0.000541 0
-0.001870 -0.000060 0
-0.001915 -0.000263 0
-0.001829 -0.000289 0
-0.001696 -0.000258 0
-0.001555 -0.000218 0
-0.001421 -0.000182 0
-0.001299 -0.000153 0
-0.001190 -0.000130 0
-0.001093 -0.000112 0
-0.001007 -0.000097 0
-0.000929 -0.000086 0
-0.000859 -0.000077 0
-0.000795 -0.000069 0
-0.000737 -0.000062 0
-0.000684 -0.000057 0
-0.000635 -0.000052 0
-0.000589 -0.000048 0
-0.000546 -0.000045 0
-0.000506 -0.000042 0
-0.000468 -0.000040 0
-0.000432 -0.000039 0
-0.000396 -0.000039 0
-0.000360 -0.000039 0
-0.000324 -0.000040 0
-0.000287 -0.000042 0
-0.000248 -0.000044 0
-0.000208 -0.000045 0
-0.000168 -0.000046 0
-0.000127 -0.000045 0
-0.000088 -0.000041 0
-0.000052 -0.000034 0
-0.000024 -0.000023 0
-0.000006 -0.000010 0
0.000000 -0.000001 0
0.000000 0.000000 0
0.000000 0.000000 0
0.000000 0.000000 0
0.000000 0.000132 0
-0.000166 0.000354 0
-0.000452 0.000425 0
-0.000737 0.000352 0
-0.000968 0.000246 0
-0.001139 0.000160 0
-0.001261 0.000104 0
-0.001349 0.000072 0
-0.001416 0.000054 0
-0.001470 0.000044 0
-0.001515 0.000038 0
-0.001554 0.000034 0
-0.001589 0.000031 0
-0.001621 0.000028 0
-0.001649 0.000025 0
-0.001675 0.000023 0
-0.001699 0.000021 0
-0.001720 0.000018 0
-0.001739 0.000016 0
-0.001756 0.000015 0
-0.001772 0.000013 0
-0.001785 0.000011 0
-0.001797 0.000010 0
-0.001808 0.000008 0
-0.001817 0.000007 0
-0.001825 0.000006 0
-0.001832 0.000005 0
-0.001838 0.000004 0
-0.001844 0.000004 0
-0.001849 0.000003 0
-0.001853 0.000004 0
-0.001858 0.000004 0
-0.001863 0.000006 0
-0.001870 0.000007 0
-0.001877 0.000010 0
-0.001886 0.000012 0
-0.001896 0.000013 0
-0.001905 0.000012 0
-0.001913 0.000009 0
-0.001917 0.000003 0
-0.001914 -0.000007 0
-0.001903 -0.000019 0
-0.001882 -0.000033 0
-0.001853 -0.000043 0
-0.001822 -0.000044 0
-0.001797 -0.000029 0
-0.001793 0.000007 0
-0.001825 0.000067 0
-0.001909 0.000144 0
-0.002049 0.000227 0
-0.002238 0.000292 0
-0.002445 0.000308 0
-0.002617 0.000237 0
-0.002677 0.000046 0
-0.002535 -0.000284 0
-0.002115 -0.000711 0
-0.001410 -0.001077 0
-0.000565 -0.001035 0
0.000000 -0.000428 0
0.000000 0.001262 0
-0.000612 0.002141 0
-0.001377 0.001153 0
-0.001865 0.000230 0
-0.002071 -0.000208 0
-0.002098 -0.000356 0
-0.002030 -0.000378 0
-0.001920 -0.000353 0
-0.001795 -0.000316 0
-0.001669 -0.000278 0
-0.001548 -0.000245 0
-0.001435 -0.000216 0
-0.001331 -0.000192 0
-0.001235 -0.000172 0
-0.001146 -0.000155 0
-0.001065 -0.000140 0
-0.000989 -0.000128 0
-0.000920 -0.000118 0
-0.000855 -0.000109 0
-0.000794 -0.000101 0
-0.000738 -0.000094 0
-0.000684 -0.000089 0
-0.000633 -0.000085 0
-0.000583 -0.000083 0
-0.000535 -0.000081 0
-0.000487 -0.000082 0
-0.000439 -0.000084 0
-0.000389 -0.000087 0
-0.000338 -0.000090 0
-0.000286 -0.000093 0
-0.000232 -0.000094 0
-0.000178 -0.000092 0
-0.000125 -0.000085 0
-0.000078 -0.000072 0
-0.000038 -0.000051 0
-0.000011 -0.000025 0
0.000000 -0.000006 0
0.000000 0.000000 0
0.000000 0.000000 0
0.000000 0.000000 0
0.000000 0.000214 0
-0.000146 0.000581 0
-0.000417 0.000721 0
-0.000706 0.000631 0
-0.000962 0.000473 0
-0.001167 0.000332 0
-0.001325 0.000232 0
-0.001447 0.000169 0
-0.001544 0.000130 0
-0.001623 0.000107 0
-0.001691 0.000092 0
-0.001750 0.000081 0
-0.001803 0.000073 0
-0.001851 0.000066 0
-0.001894 0.000060 0
-0.001934 0.000054 0
-0.001970 0.000049 0
-0.002003 0.000044 0
-0.002032 0.000039 0
-0.002059 0.000035 0
-0.002083 0.000031 0
-0.002105 0.000028 0
-0.002124 0.000024 0
-0.002142 0.000021 0
-0.002157 0.000018 0
-0.002170 0.000016 0
-0.002183 0.000014 0
-0.002193 0.000012 0
-0.002203 0.000010 0
-0.002212 0.000010 0
-0.002220 0.000010 0
-0.002228 0.000011 0
-0.002237 0.000013 0
-0.002246 0.000015 0
-0.002256 0.000019 0
-0.002267 0.000022 0
-0.002279 0.000023 0
-0.002290 0.000021 0
-0.002299 0.000015 0
-0.002303 0.000003 0
-0.002300 -0.000015 0
-0.002288 -0.000037 0
-0.002266 -0.000060 0
-0.002237 -0.000075 0
-0.002206 -0.000073 0
-0.002184 -0.000042 0
-0.002186 0.000027 0
-0.002229 0.000134 0
-0.002325 0.000268 0
-0.002478 0.000404 0
-0.002674 0.000499 0
-0.002876 0.000497 0
-0.003023 0.000336 0
-0.003031 -0.000033 0
-0.002808 -0.000623 0
-0.002290 -0.001344 0
-0.001491 -0.001918 0
-0.000581 -0.001783 0
0.000000 -0.000723 0
0.000000 0.001525 0
-0.000466 0.002777 0
-0.001176 0.001794 0
-0.001720 0.000634 0
-0.002028 -0.000030 0
-0.002150 -0.000329 0
-0.002155 -0.000435 0
-0.002093 -0.000453 0
-0.001997 -0.000433 0
-0.001886 -0.000400 0
-0.001771 -0.000363 0
-0.001657 -0.000329 0
-0.001547 -0.000298 0
-0.001444 -0.000270 0
-0.001346 -0.000246 0
-0.001255 -0.000225 0
-0.001170 -0.000207 0
-0.001090 -0.000191 0
-0.001014 -0.000177 0
-0.000944 -0.000165 0
-0.000877 -0.000155 0
-0.000814 -0.000147 0
-0.000753 -0.000141 0
-0.000695 -0.000137 0
-0.000638 -0.000135 0
-0.000582 -0.000135 0
-0.000525 -0.000138 0
-0.000467 -0.000142 0
-0.000408 -0.000147 0
-0.000346 -0.000152 0
-0.000283 -0.000154 0
-0.000220 -0.000151 0
-0.000157 -0.000141 0
-0.000099 -0.000121 0
-0.000050 -0.000089 0
-0.000015 -0.000047 0
0.000000 -0.000012 0
0.000000 0.000000 0
0.000000 0.000000 0
0.000000 0.000000 0
0.000000 0.000278 0
-0.000105 0.000769 0
-0.000320 0.000985 0
-0.000570 0.000897 0
-0.000807 0.000706 0
-0.001010 0.000522 0
-0.001177 0.000384 0
-0.001313 0.000290 0
-0.001425 0.000230 0
-0.001521 0.000191 0
-0.001605 0.000165 0
-0.001680 0.000146 0
-0.001747 0.000131 0
-0.001809 0.000119 0
-0.001866 0.000108 0
-0.001918 0.000098 0
-0.001966 0.000089 0
-0.002010 0.000081 0
-0.002051 0.000073 0
-0.002087 0.000065 0
-0.002121 0.000058 0
-0.002151 0.000052 0
-0.002178 0.000046 0
-0.002203 0.000041 0
-0.002226 0.000036 0
-0.002246 0.000031 0
-0.002264 0.000028 0
-0.002281 0.000024 0
-0.002296 0.000022 0
-0.002310 0.000020 0
-0.002324 0.000020 0
-0.002337 0.000021 0
-0.002349 0.000023 0
-0.002362 0.000027 0
-0.002376 0.000031 0
-0.002390 0.000034 0
-0.002405 0.000035 0
-0.002419 0.000032 0
-0.002431 0.000022 0
-0.002438 0.000004 0
-0.002439 -0.000022 0
-0.002431 -0.000054 0
-0.002414 -0.000084 0
-0.002390 -0.000104 0
-0.002366 -0.000097 0
-0.002351 -0.000049 0
-0.002359 0.000052 0
-0.002405 0.000205 0
-0.002500 0.000393 0
-0.002645 0.000576 0
-0.002825 0.000691 0
-0.003002 0.000658 0
-0.003113 0.000392 0
-0.003076 -0.000170 0
-0.002808 -0.001025 0
-0.002256 -0.002028 0
-0.001446 -0.002786 0
-0.000553 -0.002527 0
0.000000 -0.001009 0
0.000000 0.001729 0
-0.000367 0.003317 0
-0.001002 0.002408 0
-0.001548 0.001083 0
-0.001903 0.000222 0
-0.002088 -0.000229 0
-0.002150 -0.000434 0
-0.002135 -0.000511 0
-0.002072 -0.000523 0
-0.001983 -0.000505 0
-0.001882 -0.000474 0
-0.001776 -0.000439 0
-0.001670 -0.000405 0
-0.001567 -0.000373 0
-0.001468 -0.000343 0
-0.001373 -0.000317 0
-0.001283 -0.000293 0
-0.001199 -0.000272 0
-0.001118 -0.000254 0
-0.001042 -0.000238 0
-0.000969 -0.000224 0
-0.000900 -0.000213 0
-0.000834 -0.000204 0
-0.000770 -0.000198 0
-0.000708 -0.000195 0
-0.000646 -0.000195 0
-0.000585 -0.000198 0
-0.000522 -0.000203 0
-0.000458 -0.000210 0
-0.000391 -0.000217 0
-0.000323 -0.000221 0
-0.000253 -0.000218 0
-0.000183 -0.000206 0
-0.000117 -0.000179 0
-0.000060 -0.000136 0
-0.000018 -0.000075 0
0.000000 -0.000020 0
0.000000 0.000000 0
0.000000 0.000000 0
0.000000 0.000000 0
0.000000 0.000319 0
-0.000061 0.000901 0
-0.000205 0.001185 0
-0.000389 0.001117 0
-0.000579 0.000913 0
-0.000754 0.000702 0
-0.000906 0.000535 0
-0.001036 0.000417 0
-0.001150 0.000339 0
-0.001250 0.000286 0
-0.001341 0.000250 0
-0.001424 0.000223 0
-0.001502 0.000202 0
-0.001574 0.000184 0
-0.001641 0.000169 0
-0.001704 0.000154 0
-0.001763 0.000141 0
-0.001817 0.000128 0
-0.001867 0.000116 0
-0.001914 0.000105 0
-0.001957 0.000095 0
-0.001996 0.000085 0
-0.002032 0.000076 0
-0.002065 0.000068 0
-0.002095 0.000061 0
-0.002123 0.000054 0
-0.002149 0.000048 0
-0.002173 0.000044 0
-0.002195 0.000040 0
-0.002216 0.000037 0
-0.002236 0.000036 0
-0.002255 0.000036 0
-0.002273 0.000038 0
-0.002292 0.000042 0
-0.002310 0.000046 0
-0.002329 0.000050 0
-0.002348 0.000051 0
-0.002366 0.000047 0
-0.002384 0.000034 0
-0.002397 0.000011 0
-0.002405 -0.000023 0
-0.002406 -0.000063 0
-0.002399 -0.000101 0
-0.002386 -0.000123 0
-0.002372 -0.000112 0
-0.002366 -0.000049 0
-0.002379 0.000080 0
-0.002423 0.000274 0
-0.002508 0.000507 0
-0.002634 0.000729 0
-0.002788 0.000855 0
-0.002932 0.000784 0
-0.003008 0.000410 0
-0.002943 -0.000338 0
-0.002661 -0.001443 0
-0.002119 -0.002706 0
-0.001347 -0.003622 0
-0.000509 -0.003229 0
0.000000 -0.001275 0
0.000000 0.001892 0
-0.000298 0.003780 0
-0.000862 0.002976 0
-0.001383 0.001536 0
-0.001752 0.000510 0
-0.001970 -0.000081 0
-0.002071 -0.000389 0
-0.002090 -0.000532 0
-0.002057 -0.000584 0
-0.001991 -0.000589 0
-0.001906 -0.000570 0
-0.001812 -0.000540 0
-0.001715 -0.000507 0
-0.001617 -0.000472 0
-0.001521 -0.000440 0
-0.001428 -0.000409 0
-0.001339 -0.000382 0
-0.001253 -0.000356 0
-0.001171 -0.000334 0
-0.001093 -0.000314 0
-0.001018 -0.000297 0
-0.000946 -0.000282 0
-0.000878 -0.000271 0
-0.000811 -0.000263 0
-0.000747 -0.000258 0
-0.000683 -0.000258 0
-0.000620 -0.000261 0
-0.000556 -0.000268 0
-0.000490 -0.000277 0
-0.000422 -0.000286 0
-0.000350 -0.000292 0
-0.000277 -0.000291 0
-0.000203 -0.000277 0
-0.000131 -0.000244 0
-0.000068 -0.000188 0
-0.000020 -0.000107 0
0.000000 -0.000030 0
0.000000 0.000000 0
0.000000 0.000000 0
0.000000 0.000000 0
0.000000 0.000338 0
-0.000021 0.000974 0
-0.000093 0.001313 0
-0.000203 0.001271 0
-0.000332 0.001071 0
-0.000460 0.000849 0
-0.000580 0.000666 0
-0.000690 0.000534 0
-0.000790 0.000443 0
-0.000883 0.000382 0
-0.000971 0.000339 0
-0.001055 0.000307 0
-0.001136 0.000280 0
-0.001213 0.000258 0
-0.001287 0.000238 0
-0.001357 0.000219 0
-0.001424 0.000202 0
-0.001487 0.000185 0
-0.001547 0.000170 0
-0.001603 0.000155 0
-0.001655 0.000140 0
-0.001703 0.000127 0
-0.001748 0.000115 0
-0.001790 0.000104 0
-0.001828 0.000094 0
-0.001864 0.000085 0
-0.001898 0.000077 0
-0.001930 0.000070 0
-0.001960 0.000065 0
-0.001989 0.000061 0
-0.002016 0.000058 0
-0.002043 0.000058 0
-0.002068 0.000060 0
-0.002093 0.000063 0
-0.002118 0.000068 0
-0.002142 0.000072 0
-0.002167 0.000073 0
-0.002192 0.000068 0
-0.002216 0.000053 0
-0.002238 0.000025 0
-0.002256 -0.000014 0
-0.002268 -0.000060 0
-0.002274 -0.000105 0
-0.002275 -0.000131 0
-0.002273 -0.000117 0
-0.002277 -0.000042 0
-0.002293 0.000109 0
-0.002333 0.000334 0
-0.002403 0.000604 0
-0.002506 0.000855 0
-0.002628 0.000988 0
-0.002739 0.000878 0
-0.002787 0.000403 0
-0.002707 -0.000517 0
-0.002435 -0.001848 0
-0.001933 -0.003342 0
-0.001226 -0.004396 0
-0.000462 -0.003874 0
0.000000 -0.001518 0
0.000000 0.002027 0
-0.000248 0.004180 0
-0.000750 0.003493 0
-0.001236 0.001973 0
-0.001599 0.000810 0
-0.001829 0.000091 0
-0.001952 -0.000314 0
-0.001994 -0.000525 0
-0.001982 -0.000622 0
-0.001935 -0.000655 0
-0.001866 -0.000652 0
-0.001785 -0.000630 0
-0.001698 -0.000600 0
-0.001608 -0.000566 0
-0.001518 -0.000532 0
-0.001430 -0.000499 0
-0.001344 -0.000468 0
-0.001261 -0.000440 0
-0.001180 -0.000414 0
-0.001103 -0.000391 0
-0.001029 -0.000370 0
-0.000957 -0.000353 0
-0.000888 -0.000339 0
-0.000822 -0.000328 0
-0.000758 -0.000323 0
-0.000695 -0.000321 0
-0.000632 -0.000325 0
-0.000569 -0.000333 0
-0.000505 -0.000344 0
-0.000437 -0.000356 0
-0.000367 -0.000365 0
-0.000293 -0.000366 0
-0.000216 -0.000351 0
-0.000142 -0.000314 0
-0.000074 -0.000246 0
-0.000022 -0.000142 0
0.000000 -0.000040 0
0.000000 0.000000 0
0.000000 0.000000 0
0.000000 0.000000 0
0.000000 0.000340 0
0.000010 0.000993 0
0.000003 0.001367 0
-0.000034 0.001355 0
-0.000097 0.001170 0
-0.000172 0.000951 0
-0.000250 0.000764 0
-0.000327 0.000626 0
-0.000403 0.000532 0
-0.000479 0.000467 0
-0.000555 0.000422 0
-0.000631 0.000388 0
-0.000707 0.000360 0
-0.000783 0.000335 0
-0.000858 0.000312 0
-0.000932 0.000291 0
-0.001004 0.000271 0
-0.001074 0.000251 0
-0.001141 0.000232 0
-0.001206 0.000213 0
-0.001267 0.000195 0
-0.001325 0.000178 0
-0.001378 0.000162 0
-0.001429 0.000148 0
-0.001476 0.000135 0
-0.001520 0.000124 0
-0.001562 0.000114 0
-0.001602 0.000105 0
-0.001640 0.000098 0
-0.001677 0.000093 0
-0.001713 0.000089 0
-0.001747 0.000088 0
-0.001781 0.000088 0
-0.001813 0.000091 0
-0.001845 0.000096 0
-0.001876 0.000100 0
-0.001908 0.000101 0
-0.001940 0.000095 0
-0.001971 0.000080 0
-0.002002 0.000050 0
-0.002032 0.000007 0
-0.002057 -0.000045 0
-0.002077 -0.000094 0
-0.002093 -0.000124 0
-0.002105 -0.000110 0
-0.002118 -0.000029 0
-0.002138 0.000136 0
-0.002172 0.000384 0
-0.002227 0.000681 0
-0.002304 0.000953 0
-0.002395 0.001088 0
-0.002473 0.000943 0
-0.002499 0.000379 0
-0.002416 -0.000690 0
-0.002169 -0.002218 0
-0.001722 -0.003916 0
-0.001095 -0.005093 0
-0.000415 -0.004455 0
0.000000 -0.001738 0
0.000000 0.002141 0
-0.000211 0.004530 0
-0.000658 0.003963 0
-0.001107 0.002385 0
-0.001454 0.001104 0
-0.001683 0.000272 0
-0.001813 -0.000224 0
-0.001868 -0.000501 0
-0.001869 -0.000643 0
-0.001836 -0.000705 0
-0.001779 -0.000720 0
-0.001710 -0.000709 0
-0.001633 -0.000683 0
-0.001552 -0.000651 0
-0.001470 -0.000617 0
-0.001388 -0.000583 0
-0.001308 -0.000551 0
-0.001229 -0.000520 0
-0.001153 -0.000491 0
-0.001078 -0.000466 0
-0.001006 -0.000442 0
-0.000937 -0.000422 0
-0.000870 -0.000406 0
-0.000806 -0.000393 0
-0.000744 -0.000385 0
-0.000683 -0.000383 0
-0.000624 -0.000387 0
-0.000564 -0.000396 0
-0.000503 -0.000409 0
-0.000439 -0.000424 0
-0.000372 -0.000437 0
-0.000300 -0.000441 0
-0.000224 -0.000427 0
-0.000148 -0.000387 0
-0.000078 -0.000307 0
-0.000024 -0.000180 0
0.000000 -0.000052 0
0.000000 0.000000 0
0.000000 0.000000 0
0.000000 0.000000 0
0.000000 0.000328 0
0.000034 0.000970 0
0.000079 0.001357 0
0.000106 0.001371 0
0.000107 0.001208 0
0.000086 0.001002 0
0.000054 0.000821 0
0.000013 0.000687 0
-0.000033 0.000595 0
-0.000083 0.000533 0
-0.000139 0.000491 0
-0.000200 0.000459 0
-0.000264 0.000432 0
-0.000332 0.000409 0
-0.000402 0.000386 0
-0.000474 0.000365 0
-0.000546 0.000344 0
-0.000620 0.000323 0
-0.000693 0.000301 0
-0.000765 0.000280 0
-0.000834 0.000259 0
-0.000901 0.000238 0
-0.000965 0.000219 0
-0.001024 0.000201 0
-0.001080 0.000185 0
-0.001132 0.000171 0
-0.001181 0.000159 0
-0.001229 0.000149 0
-0.001275 0.000140 0
-0.001320 0.000133 0
-0.001364 0.000129 0
-0.001406 0.000126 0
-0.001448 0.000125 0
-0.001488 0.000127 0
-0.001527 0.000131 0
-0.001566 0.000134 0
-0.001604 0.000136 0
-0.001643 0.000131 0
-0.001682 0.000115 0
-0.001722 0.000086 0
-0.001762 0.000041 0
-0.001800 -0.000015 0
-0.001835 -0.000069 0
-0.001866 -0.000103 0
-0.001892 -0.000092 0
-0.001915 -0.000009 0
-0.001939 0.000163 0
-0.001968 0.000423 0
-0.002008 0.000736 0
-0.002062 0.001023 0
-0.002122 0.001157 0
-0.002173 0.000982 0
-0.002182 0.000346 0
-0.002103 -0.000847 0
-0.001888 -0.002542 0
-0.001504 -0.004416 0
-0.000963 -0.005704 0
-0.000368 -0.004969 0
0.000000 -0.001933 0
0.000000 0.002239 0
-0.000181 0.004839 0
-0.000582 0.004390 0
-0.000995 0.002769 0
-0.001320 0.001386 0
-0.001540 0.000451 0
-0.001669 -0.000129 0
-0.001727 -0.000468 0
-0.001735 -0.000654 0
-0.001709 -0.000745 0
-0.001661 -0.000778 0
-0.001601 -0.000777 0
-0.001533 -0.000757 0
-0.001461 -0.000728 0
-0.001387 -0.000695 0
-0.001313 -0.000661 0
-0.001239 -0.000627 0
-0.001167 -0.000595 0
-0.001095 -0.000565 0
-0.001025 -0.000537 0
-0.000957 -0.000511 0
-0.000892 -0.000489 0
-0.000829 -0.000469 0
-0.000768 -0.000455 0
-0.000709 -0.000445 0
-0.000653 -0.000441 0
-0.000598 -0.000444 0
-0.000543 -0.000454 0
-0.000487 -0.000469 0
-0.000429 -0.000487 0
-0.000366 -0.000505 0
-0.000298 -0.000513 0
-0.000226 -0.000502 0
-0.000151 -0.000460 0
-0.000081 -0.000370 0
-0.000025 -0.000220 0
0.000000 -0.000064 0
0.000000 0.000000 0
0.000000 0.000000 0
0.000000 0.000000 0
0.000000 0.000306 0
0.000050 0.000913 0
0.000135 0.001295 0
0.000214 0.001328 0
0.000269 0.001189 0