# vtk DataFile Version 2.0
generated by CFD-lab course output (written by Tobias Neckel) 
ASCII

DATASET STRUCTURED_GRID
DIMENSIONS  99 49 1 
POINTS 4851 float

0.000000 0.000000 0
0.020000 0.000000 0
0.040000 0.000000 0
0.060000 0.000000 0
0.080000 0.000000 0
0.100000 0.000000 0
0.120000 0.000000 0
0.140000 0.000000 0
0.160000 0.000000 0
0.180000 0.000000 0
0.200000 0.000000 0
0.220000 0.000000 0
0.240000 0.000000 0
0.260000 0.000000 0
0.280000 0.000000 0
0.300000 0.000000 0
0.320000 0.000000 0
0.340000 0.000000 0
0.360000 0.000000 0
0.380000 0.000000 0
0.400000 0.000000 0
0.420000 0.000000 0
0.440000 0.000000 0
0.460000 0.000000 0
0.480000 0.000000 0
0.500000 0.000000 0
0.520000 0.000000 0
0.540000 0.000000 0
0.560000 0.000000 0
0.580000 0.000000 0
0.600000 0.000000 0
0.620000 0.000000 0
0.640000 0.000000 0
0.660000 0.000000 0
0.680000 0.000000 0
0.700000 0.000000 0
0.720000 0.000000 0
0.740000 0.000000 0
0.760000 0.000000 0
0.780000 0.000000 0
0.800000 0.000000 0
0.820000 0.000000 0
0.840000 0.000000 0
0.860000 0.000000 0
0.880000 0.000000 0
0.900000 0.000000 0
0.920000 0.000000 0
0.940000 0.000000 0
0.960000 0.000000 0
0.980000 0.000000 0
1.000000 0.000000 0
1.020000 0.000000 0
1.040000 0.000000 0
1.060000 0.000000 0
1.080000 0.000000 0
1.100000 0.000000 0
1.120000 0.000000 0
1.140000 0.000000 0
1.160000 0.000000 0
1.180000 0.000000 0
1.200000 0.000000 0
1.220000 0.000000 0
1.240000 0.000000 0
1.260000 0.000000 0
1.280000 0.000000 0
1.300000 0.000000 0
1.320000 0.000000 0
1.340000 0.000000 0
1.360000 0.000000 0
1.380000 0.000000 0
1.400000 0.000000 0
1.420000 0.000000 0
1.440000 0.000000 0
1.460000 0.000000 0
1.480000 0.000000 0
1.500000 0.000000 0
1.520000 0.000000 0
1.540000 0.000000 0
1.560000 0.000000 0
1.580000 0.000000 0
1.600000 0.000000 0
1.620000 0.000000 0
1.640000 0.000000 0
1.660000 0.000000 0
1.680000 0.000000 0
1.700000 0.000000 0
1.720000 0.000000 0
1.740000 0.000000 0
1.760000 0.000000 0
1.780000 0.000000 0
1.800000 0.000000 0
1.820000 0.000000 0
1.840000 0.000000 0
1.860000 0.000000 0
1.880000 0.000000 0
1.900000 0.000000 0
1.920000 0.000000 0
1.940000 0.000000 0
1.960000 0.000000 0
0.000000 0.020000 0
0.020000 0.020000 0
0.040000 0.020000 0
0.060000 0.020000 0
0.080000 0.020000 0
0.100000 0.020000 0
0.120000 0.020000 0
0.140000 0.020000 0
0.160000 0.020000 0
0.180000 0.020000 0
0.200000 0.020000 0
0.220000 0.020000 0
0.240000 0.020000 0
0.260000 0.020000 0
0.280000 0.020000 0
0.300000 0.020000 0
0.320000 0.020000 0
0.340000 0.020000 0
0.360000 0.020000 0
0.380000 0.020000 0
0.400000 0.020000 0
0.420000 0.020000 0
0.440000 0.020000 0
0.460000 0.020000 0
0.480000 0.020000 0
0.500000 0.020000 0
0.520000 0.020000 0
0.540000 0.020000 0
0.560000 0.020000 0
0.580000 0.020000 0
0.600000 0.020000 0
0.620000 0.020000 0
0.640000 0.020000 0
0.660000 0.020000 0
0.680000 0.020000 0
0.700000 0.020000 0
0.720000 0.020000 0
0.740000 0.020000 0
0.760000 0.020000 0
0.780000 0.020000 0
0.800000 0.020000 0
0.820000 0.020000 0
0.840000 0.020000 0
0.860000 0.020000 0
0.880000 0.020000 0
0.900000 0.020000 0
0.920000 0.020000 0
0.940000 0.020000 0
0.960000 0.020000 0
0.980000 0.020000 0
1.000000 0.020000 0
1.020000 0.020000 0
1.040000 0.020000 0
1.060000 0.020000 0
1.080000 0.020000 0
1.100000 0.020000 0
1.120000 0.020000 0
1.140000 0.020000 0
1.160000 0.020000 0
1.180000 0.020000 0
1.200000 0.020000 0
1.220000 0.020000 0
1.240000 0.020000 0
1.260000 0.020000 0
1.280000 0.020000 0
1.300000 0.020000 0
1.320000 0.020000 0
1.340000 0.020000 0
1.360000 0.020000 0
1.380000 0.020000 0
1.400000 0.020000 0
1.420000 0.020000 0
1.440000 0.020000 0
1.460000 0.020000 0
1.480000 0.020000 0
1.500000 0.020000 0
1.520000 0.020000 0
1.540000 0.020000 0
1.560000 0.020000 0
1.580000 0.020000 0
1.600000 0.020000 0
1.620000 0.020000 0
1.640000 0.020000 0
1.660000 0.020000 0
1.680000 0.020000 0
1.700000 0.020000 0
1.720000 0.020000 0
1.740000 0.020000 0
1.760000 0.020000 0
1.780000 0.020000 0
1.800000 0.020000 0
1.820000 0.020000 0
1.840000 0.020000 0
1.860000 0.020000 0
1.880000 0.020000 0
1.900000 0.020000 0
1.920000 0.020000 0
1.940000 0.020000 0
1.960000 0.020000 0
0.000000 0.040000 0
0.020000 0.040000 0
0.040000 0.040000 0
0.060000 0.040000 0
0.080000 0.040000 0
0.100000 0.040000 0
0.120000 0.040000 0
0.140000 0.040000 0
0.160000 0.040000 0
0.180000 0.040000 0
0.200000 0.040000 0
0.220000 0.040000 0
0.240000 0.040000 0
0.260000 0.040000 0
0.280000 0.040000 0
0.300000 0.040000 0
0.320000 0.040000 0
0.340000 0.040000 0
0.360000 0.040000 0
0.380000 0.040000 0
0.400000 0.040000 0
0.420000 0.040000 0
0.440000 0.040000 0
0.460000 0.040000 0
0.480000 0.040000 0
0.500000 0.040000 0
0.520000 0.040000 0
0.540000 0.040000 0
0.560000 0.040000 0
0.580000 0.040000 0
0.600000 0.040000 0
0.620000 0.040000 0
0.640000 0.040000 0
0.660000 0.040000 0
0.680000 0.040000 0
0.700000 0.040000 0
0.720000 0.040000 0
0.740000 0.040000 0
0.760000 0.040000 0
0.780000 0.040000 0
0.800000 0.040000 0
0.820000 0.040000 0
0.840000 0.040000 0
0.860000 0.040000 0
0.880000 0.040000 0
0.900000 0.040000 0
0.920000 0.040000 0
0.940000 0.040000 0
0.960000 0.040000 0
0.980000 0.040000 0
1.000000 0.040000 0
1.020000 0.040000 0
1.040000 0.040000 0
1.060000 0.040000 0
1.080000 0.040000 0
1.100000 0.040000 0
1.120000 0.040000 0
1.140000 0.040000 0
1.160000 0.040000 0
1.180000 0.040000 0
1.200000 0.040000 0
1.220000 0.040000 0
1.240000 0.040000 0
1.260000 0.040000 0
1.280000 0.040000 0
1.300000 0.040000 0
1.320000 0.040000 0
1.340000 0.040000 0
1.360000 0.040000 0
1.380000 0.040000 0
1.400000 0.040000 0
1.420000 0.040000 0
1.440000 0.040000 0
1.460000 0.040000 0
1.480000 0.040000 0
1.500000 0.040000 0
1.520000 0.040000 0
1.540000 0.040000 0
1.560000 0.040000 0
1.580000 0.040000 0
1.600000 0.040000 0
1.620000 0.040000 0
1.640000 0.040000 0
1.660000 0.040000 0
1.680000 0.040000 0
1.700000 0.040000 0
1.720000 0.040000 0
1.740000 0.040000 0
1.760000 0.040000 0
1.780000 0.040000 0
1.800000 0.040000 0
1.820000 0.040000 0
1.840000 0.040000 0
1.860000 0.040000 0
1.880000 0.040000 0
1.900000 0.040000 0
1.920000 0.040000 0
1.940000 0.040000 0
1.960000 0.040000 0
0.000000 0.060000 0
0.020000 0.060000 0
0.040000 0.060000 0
0.060000 0.060000 0
0.080000 0.060000 0
0.100000 0.060000 0
0.120000 0.060000 0
0.140000 0.060000 0
0.160000 0.060000 0
0.180000 0.060000 0
0.200000 0.060000 0
0.220000 0.060000 0
0.240000 0.060000 0
0.260000 0.060000 0
0.280000 0.060000 0
0.300000 0.060000 0
0.320000 0.060000 0
0.340000 0.060000 0
0.360000 0.060000 0
0.380000 0.060000 0
0.400000 0.060000 0
0.420000 0.060000 0
0.440000 0.060000 0
0.460000 0.060000 0
0.480000 0.060000 0
0.500000 0.060000 0
0.520000 0.060000 0
0.540000 0.060000 0
0.560000 0.060000 0
0.580000 0.060000 0
0.600000 0.060000 0
0.620000 0.060000 0
0.640000 0.060000 0
0.660000 0.060000 0
0.680000 0.060000 0
0.700000 0.060000 0
0.720000 0.060000 0
0.740000 0.060000 0
0.760000 0.060000 0
0.780000 0.060000 0
0.800000 0.060000 0
0.820000 0.060000 0
0.840000 0.060000 0
0.860000 0.060000 0
0.880000 0.060000 0
0.900000 0.060000 0
0.920000 0.060000 0
0.940000 0.060000 0
0.960000 0.060000 0
0.980000 0.060000 0
1.000000 0.060000 0
1.020000 0.060000 0
1.040000 0.060000 0
1.060000 0.060000 0
1.080000 0.060000 0
1.100000 0.060000 0
1.120000 0.060000 0
1.140000 0.060000 0
1.160000 0.060000 0
1.180000 0.060000 0
1.200000 0.060000 0
1.220000 0.060000 0
1.240000 0.060000 0
1.260000 0.060000 0
1.280000 0.060000 0
1.300000 0.060000 0
1.320000 0.060000 0
1.340000 0.060000 0
1.360000 0.060000 0
1.380000 0.060000 0
1.400000 0.060000 0
1.420000 0.060000 0
1.440000 0.060000 0
1.460000 0.060000 0
1.480000 0.060000 0
1.500000 0.060000 0
1.520000 0.060000 0
1.540000 0.060000 0
1.560000 0.060000 0
1.580000 0.060000 0
1.600000 0.060000 0
1.620000 0.060000 0
1.640000 0.060000 0
1.660000 0.060000 0
1.680000 0.060000 0
1.700000 0.060000 0
1.720000 0.060000 0
1.740000 0.060000 0
1.760000 0.060000 0
1.780000 0.060000 0
1.800000 0.060000 0
1.820000 0.060000 0
1.840000 0.060000 0
1.860000 0.060000 0
1.880000 0.060000 0
1.900000 0.060000 0
1.920000 0.060000 0
1.940000 0.060000 0
1.960000 0.060000 0
0.000000 0.080000 0
0.020000 0.080000 0
0.040000 0.080000 0
0.060000 0.080000 0
0.080000 0.080000 0
0.100000 0.080000 0
0.120000 0.080000 0
0.140000 0.080000 0
0.160000 0.080000 0
0.180000 0.080000 0
0.200000 0.080000 0
0.220000 0.080000 0
0.240000 0.080000 0
0.260000 0.080000 0
0.280000 0.080000 0
0.300000 0.080000 0
0.320000 0.080000 0
0.340000 0.080000 0
0.360000 0.080000 0
0.380000 0.080000 0
0.400000 0.080000 0
0.420000 0.080000 0
0.440000 0.080000 0
0.460000 0.080000 0
0.480000 0.080000 0
0.500000 0.080000 0
0.520000 0.080000 0
0.540000 0.080000 0
0.560000 0.080000 0
0.580000 0.080000 0
0.600000 0.080000 0
0.620000 0.080000 0
0.640000 0.080000 0
0.660000 0.080000 0
0.680000 0.080000 0
0.700000 0.080000 0
0.720000 0.080000 0
0.740000 0.080000 0
0.760000 0.080000 0
0.780000 0.080000 0
0.800000 0.080000 0
0.820000 0.080000 0
0.840000 0.080000 0
0.860000 0.080000 0
0.880000 0.080000 0
0.900000 0.080000 0
0.920000 0.080000 0
0.940000 0.080000 0
0.960000 0.080000 0
0.980000 0.080000 0
1.000000 0.080000 0
1.020000 0.080000 0
1.040000 0.080000 0
1.060000 0.080000 0
1.080000 0.080000 0
1.100000 0.080000 0
1.120000 0.080000 0
1.140000 0.080000 0
1.160000 0.080000 0
1.180000 0.080000 0
1.200000 0.080000 0
1.220000 0.080000 0
1.240000 0.080000 0
1.260000 0.080000 0
1.280000 0.080000 0
1.300000 0.080000 0
1.320000 0.080000 0
1.340000 0.080000 0
1.360000 0.080000 0
1.380000 0.080000 0
1.400000 0.080000 0
1.420000 0.080000 0
1.440000 0.080000 0
1.460000 0.080000 0
1.480000 0.080000 0
1.500000 0.080000 0
1.520000 0.080000 0
1.540000 0.080000 0
1.560000 0.080000 0
1.580000 0.080000 0
1.600000 0.080000 0
1.620000 0.080000 0
1.640000 0.080000 0
1.660000 0.080000 0
1.680000 0.080000 0
1.700000 0.080000 0
1.720000 0.080000 0
1.740000 0.080000 0
1.760000 0.080000 0
1.780000 0.080000 0
1.800000 0.080000 0
1.820000 0.080000 0
1.840000 0.080000 0
1.860000 0.080000 0
1.880000 0.080000 0
[...]
POINT_DATA 4851 

VECTORS velocity float
0.000000 0.000000 0
-0.000455 0.000000 0
-0.000594 0.000000 0
-0.000542 0.000000 0
-0.000453 0.000000 0
-0.000376 0.000000 0
-0.000318 0.000000 0
-0.000275 0.000000 0
-0.000242 0.000000 0
-0.000217 0.000000 0
-0.000197 0.000000 0
-0.000180 0.000000 0
-0.000166 0.000000 0
-0.000153 0.000000 0
-0.000143 0.000000 0
-0.000133 0.000000 0
-0.000124 0.000000 0
-0.000115 0.000000 0
-0.000108 0.000000 0
-0.000100 0.000000 0
-0.000093 0.000000 0
-0.000087 0.000000 0
-0.000080 0.000000 0
-0.000074 0.000000 0
-0.000068 0.000000 0
-0.000063 0.000000 0
-0.000057 0.000000 0
-0.000050 0.000000 0
-0.000044 0.000000 0
-0.000037 0.000000 0
-0.000030 0.000000 0
-0.000022 0.000000 0
-0.000015 0.000000 0
-0.000008 0.000000 0
-0.000003 0.000000 0
-0.000000 0.000000 0
0.000000 0.000000 0
0.000000 0.000000 0
0.000000 0.000000 0
0.000000 0.000000 0
0.000000 0.000000 0
-0.000043 0.000000 0
-0.000119 0.000000 0
-0.000187 0.000000 0
-0.000232 0.000000 0
-0.000260 0.000000 0
-0.000275 0.000000 0
-0.000284 0.000000 0
-0.000290 0.000000 0
-0.000294 0.000000 0
-0.000297 0.000000 0
-0.000300 0.000000 0
-0.000303 0.000000 0
-0.000305 0.000000 0
-0.000308 0.000000 0
-0.000309 0.000000 0
-0.000311 0.000000 0
-0.000313 0.000000 0
-0.000314 0.000000 0
-0.000316 0.000000 0
-0.000317 0.000000 0
-0.000318 0.000000 0
-0.000319 0.000000 0
-0.000321 0.000000 0
-0.000322 0.000000 0
-0.000323 0.000000 0
-0.000324 0.000000 0
-0.000325 0.000000 0
-0.000326 0.000000 0
-0.000327 0.000000 0
-0.000328 0.000000 0
-0.000329 0.000000 0
-0.000330 0.000000 0
-0.000331 0.000000 0
-0.000332 0.000000 0
-0.000334 0.000000 0
-0.000335 0.000000 0
-0.000337 0.000000 0
-0.000338 0.000000 0
-0.000339 0.000000 0
-0.000339 0.000000 0
-0.000337 0.000000 0
-0.000334 0.000000 0
-0.000328 0.000000 0
-0.000321 0.000000 0
-0.000314 0.000000 0
-0.000310 0.000000 0
-0.000313 0.000000 0
-0.000325 0.000000 0
-0.000352 0.000000 0
-0.000393 0.000000 0
-0.000445 0.000000 0
-0.000501 0.000000 0
-0.000543 0.000000 0
-0.000548 0.000000 0
-0.000489 0.000000 0
-0.000348 0.000000 0
-0.000147 0.000000 0
0.000000 0.000000 0
0.000000 0.000455 0
-0.000911 0.000595 0
-0.001395 0.000088 0
-0.001449 -0.000141 0
-0.001336 -0.000166 0
-0.001189 -0.000135 0
-0.001053 -0.000101 0
-0.000939 -0.000075 0
-0.000844 -0.000057 0
-0.000766 -0.000045 0
-0.000701 -0.000036 0
-0.000645 -0.000030 0
-0.000597 -0.000026 0
-0.000554 -0.000023 0
-0.000516 -0.000020 0
-0.000481 -0.000018 0
-0.000449 -0.000017 0
-0.000419 -0.000016 0
-0.000391 -0.000015 0
-0.000364 -0.000014 0
-0.000339 -0.000013 0
-0.000315 -0.000012 0
-0.000292 -0.000012 0
-0.000270 -0.000011 0
-0.000248 -0.000011 0
-0.000227 -0.000011 0
-0.000205 -0.000012 0
-0.000182 -0.000012 0
-0.000159 -0.000013 0
-0.000134 -0.000014 0
-0.000108 -0.000014 0
-0.000082 -0.000014 0
-0.000056 -0.000014 0
-0.000033 -0.000011 0
-0.000014 -0.000007 0
-0.000003 -0.000002 0
0.000000 0.000000 0
0.000000 0.000000 0
0.000000 0.000000 0
0.000000 0.000000 0
0.000000 0.000043 0
-0.000121 0.000119 0
-0.000327 0.000143 0
-0.000523 0.000113 0
-0.000670 0.000072 0
-0.000770 0.000042 0
-0.000834 0.000024 0
-0.000877 0.000014 0
-0.000907 0.000010 0
-0.000929 0.000007 0
-0.000947 0.000006 0
-0.000962 0.000005 0
-0.000975 0.000004 0
-0.000987 0.000004 0
-0.000997 0.000003 0
-0.001006 0.000003 0
-0.001014 0.000003 0
-0.001021 0.000003 0
-0.001028 0.000002 0
-0.001034 0.000002 0
-0.001040 0.000002 0
-0.001045 0.000002 0
-0.001050 0.000002 0
-0.001055 0.000002 0
-0.001059 0.000002 0
-0.001064 0.000002 0
-0.001068 0.000002 0
-0.001072 0.000002 0
-0.001076 0.000002 0
-0.001079 0.000001 0
-0.001082 0.000001 0
-0.001085 0.000001 0
-0.001088 0.000002 0
-0.001092 0.000002 0
-0.001095 0.000002 0
-0.001099 0.000002 0
-0.001103 0.000003 0
-0.001107 0.000002 0
-0.001110 0.000002 0
-0.001112 0.000000 0
-0.001110 -0.000002 0
-0.001103 -0.000006 0
-0.001091 -0.000010 0
-0.001074 -0.000013 0
-0.001054 -0.000015 0
-0.001035 -0.000012 0
-0.001028 -0.000002 0
-0.001041 0.000015 0
-0.001086 0.000039 0
-0.001169 0.000067 0
-0.001290 0.000093 0
-0.001434 0.000107 0
-0.001573 0.000097 0
-0.001656 0.000047 0
-0.001621 -0.000054 0
-0.001401 -0.000200 0
-0.000967 -0.000342 0
-0.000401 -0.000348 0
0.000000 -0.000148 0
0.000000 0.000911 0
-0.000804 0.001396 0
-0.001540 0.000540 0
-0.001866 -0.000059 0
-0.001912 -0.000260 0
-0.001830 -0.000282 0
-0.001703 -0.000250 0
-0.001570 -0.000208 0
-0.001444 -0.000172 0
-0.001331 -0.000143 0
-0.001231 -0.000120 0
-0.001141 -0.000103 0
-0.001061 -0.000090 0
-0.000989 -0.000080 0
-0.000923 -0.000073 0
-0.000863 -0.000066 0
-0.000806 -0.000061 0
-0.000753 -0.000057 0
-0.000704 -0.000054 0
-0.000656 -0.000051 0
-0.000611 -0.000048 0
-0.000568 -0.000046 0
-0.000527 -0.000045 0
-0.000486 -0.000043 0
-0.000447 -0.000043 0
-0.000408 -0.000043 0
-0.000368 -0.000044 0
-0.000327 -0.000045 0
-0.000286 -0.000047 0
-0.000242 -0.000050 0
-0.000197 -0.000051 0
-0.000152 -0.000051 0
-0.000107 -0.000049 0
-0.000066 -0.000041 0
-0.000032 -0.000029 0
-0.000009 -0.000014 0
0.000000 -0.000003 0
0.000000 0.000000 0
0.000000 0.000000 0
0.000000 0.000000 0
0.000000 0.000120 0
-0.000154 0.000326 0
-0.000423 0.000402 0
-0.000696 0.000342 0
-0.000922 0.000246 0
-0.001092 0.000163 0
-0.001215 0.000107 0
-0.001303 0.000072 0
-0.001368 0.000052 0
-0.001418 0.000040 0
-0.001458 0.000032 0
-0.001492 0.000027 0
-0.001521 0.000024 0
-0.001547 0.000021 0
-0.001569 0.000018 0
-0.001589 0.000016 0
-0.001607 0.000015 0
-0.001624 0.000013 0
-0.001638 0.000012 0
-0.001652 0.000011 0
-0.001664 0.000010 0
-0.001675 0.000010 0
-0.001686 0.000009 0
-0.001696 0.000009 0
-0.001705 0.000008 0
-0.001713 0.000008 0
-0.001721 0.000007 0
-0.001729 0.000007 0
-0.001735 0.000006 0
-0.001741 0.000006 0
-0.001747 0.000006 0
-0.001752 0.000006 0
-0.001758 0.000006 0
-0.001763 0.000006 0
-0.001768 0.000007 0
-0.001774 0.000007 0
-0.001780 0.000007 0
-0.001785 0.000007 0
-0.001789 0.000004 0
-0.001789 -0.000001 0
-0.001784 -0.000009 0
-0.001773 -0.000019 0
-0.001755 -0.000030 0
-0.001729 -0.000038 0
-0.001702 -0.000039 0
-0.001680 -0.000026 0
-0.001677 0.000005 0
-0.001705 0.000058 0
-0.001778 0.000127 0
-0.001903 0.000203 0
-0.002073 0.000265 0
-0.002263 0.000283 0
-0.002423 0.000221 0
-0.002483 0.000047 0
-0.002358 -0.000256 0
-0.001973 -0.000654 0
-0.001320 -0.001001 0
-0.000531 -0.000968 0
0.000000 -0.000401 0
0.000000 0.001259 0
-0.000609 0.002136 0
-0.001372 0.001150 0
-0.001858 0.000232 0
-0.002066 -0.000201 0
-0.002098 -0.000344 0
-0.002037 -0.000361 0
-0.001936 -0.000334 0
-0.001822 -0.000296 0
-0.001706 -0.000258 0
-0.001596 -0.000226 0
-0.001493 -0.000199 0
-0.001397 -0.000178 0
-0.001308 -0.000160 0
-0.001226 -0.000146 0
-0.001148 -0.000135 0
-0.001075 -0.000126 0
-0.001006 -0.000118 0
-0.000941 -0.000111 0
-0.000879 -0.000106 0
-0.000819 -0.000101 0
-0.000761 -0.000097 0
-0.000706 -0.000093 0
-0.000651 -0.000091 0
-0.000598 -0.000090 0
-0.000546 -0.000090 0
-0.000493 -0.000091 0
-0.000439 -0.000094 0
-0.000384 -0.000098 0
-0.000327 -0.000102 0
-0.000268 -0.000105 0
-0.000208 -0.000105 0
-0.000149 -0.000099 0
-0.000094 -0.000086 0
-0.000047 -0.000064 0
-0.000014 -0.000034 0
0.000000 -0.000008 0
0.000000 0.000000 0
0.000000 0.000000 0
0.000000 0.000000 0
0.000000 0.000196 0
-0.000138 0.000541 0
-0.000394 0.000684 0
-0.000673 0.000612 0
-0.000922 0.000469 0
-0.001123 0.000334 0
-0.001279 0.000234 0
-0.001399 0.000167 0
-0.001492 0.000125 0
-0.001566 0.000098 0
-0.001628 0.000080 0
-0.001680 0.000068 0
-0.001726 0.000059 0
-0.001766 0.000052 0
-0.001802 0.000046 0
-0.001834 0.000041 0
-0.001863 0.000037 0
-0.001889 0.000033 0
-0.001913 0.000030 0
-0.001934 0.000028 0
-0.001954 0.000025 0
-0.001972 0.000024 0
-0.001988 0.000022 0
-0.002003 0.000021 0
-0.002017 0.000019 0
-0.002030 0.000018 0
-0.002042 0.000017 0
-0.002053 0.000015 0
-0.002063 0.000014 0
-0.002072 0.000013 0
-0.002081 0.000012 0
-0.002089 0.000012 0
-0.002096 0.000012 0
-0.002103 0.000012 0
-0.002111 0.000013 0
-0.002118 0.000014 0
-0.002125 0.000013 0
-0.002131 0.000011 0
-0.002136 0.000006 0
-0.002137 -0.000004 0
-0.002132 -0.000018 0
-0.002121 -0.000036 0
-0.002102 -0.000054 0
-0.002078 -0.000066 0
-0.002052 -0.000064 0
-0.002034 -0.000037 0
-0.002037 0.000022 0
-0.002075 0.000116 0
-0.002159 0.000237 0
-0.002296 0.000362 0
-0.002474 0.000453 0
-0.002661 0.000457 0
-0.002800 0.000317 0
-0.002814 -0.000019 0
-0.002617 -0.000564 0
-0.002143 -0.001238 0
-0.001401 -0.001785 0
-0.000548 -0.001669 0
0.000000 -0.000679 0
0.000000 0.001521 0
-0.000462 0.002769 0
-0.001168 0.001789 0
-0.001711 0.000636 0
-0.002020 -0.000020 0
-0.002146 -0.000310 0
-0.002158 -0.000410 0
-0.002106 -0.000424 0
-0.002021 -0.000402 0
-0.001922 -0.000368 0
-0.001818 -0.000334 0
-0.001715 -0.000302 0
-0.001616 -0.000275 0
-0.001521 -0.000252 0
-0.001430 -0.000232 0
-0.001344 -0.000216 0
-0.001262 -0.000203 0
-0.001183 -0.000191 0
-0.001108 -0.000181 0
-0.001035 -0.000173 0
-0.000966 -0.000165 0
-0.000898 -0.000159 0
-0.000833 -0.000154 0
-0.000769 -0.000150 0
-0.000706 -0.000148 0
-0.000644 -0.000148 0
-0.000582 -0.000150 0
-0.000520 -0.000154 0
-0.000456 -0.000159 0
-0.000390 -0.000165 0
-0.000321 -0.000170 0
-0.000252 -0.000170 0
-0.000183 -0.000162 0
-0.000117 -0.000143 0
-0.000060 -0.000110 0
-0.000018 -0.000061 0
0.000000 -0.000016 0
0.000000 0.000000 0
0.000000 0.000000 0
0.000000 0.000000 0
0.000000 0.000257 0
-0.000101 0.000720 0
-0.000307 0.000937 0
-0.000547 0.000869 0
-0.000777 0.000697 0
-0.000975 0.000521 0
-0.001139 0.000382 0
-0.001271 0.000284 0
-0.001379 0.000219 0
-0.001469 0.000176 0
-0.001546 0.000146 0
-0.001613 0.000125 0
-0.001672 0.000109 0
-0.001726 0.000097 0
-0.001774 0.000086 0
-0.001818 0.000077 0
-0.001858 0.000070 0
-0.001895 0.000063 0
-0.001928 0.000057 0
-0.001958 0.000052 0
-0.001985 0.000048 0
-0.002010 0.000044 0
-0.002033 0.000041 0
-0.002054 0.000038 0
-0.002074 0.000035 0
-0.002092 0.000033 0
-0.002108 0.000030 0
-0.002124 0.000028 0
-0.002138 0.000026 0
-0.002151 0.000023 0
-0.002163 0.000022 0
-0.002175 0.000021 0
-0.002185 0.000020 0
-0.002196 0.000020 0
-0.002206 0.000021 0
-0.002216 0.000022 0
-0.002225 0.000021 0
-0.002235 0.000017 0
-0.002242 0.000009 0
-0.002247 -0.000005 0
-0.002246 -0.000025 0
-0.002240 -0.000050 0
-0.002227 -0.000074 0
-0.002209 -0.000089 0
-0.002191 -0.000083 0
-0.002181 -0.000042 0
-0.002190 0.000045 0
-0.002232 0.000180 0
-0.002317 0.000349 0
-0.002448 0.000517 0
-0.002612 0.000629 0
-0.002777 0.000608 0
-0.002885 0.000375 0
-0.002861 -0.000136 0
-0.002623 -0.000928 0
-0.002117 -0.001870 0
-0.001363 -0.002595 0
-0.000523 -0.002369 0
0.000000 -0.000950 0
0.000000 0.001722 0
-0.000362 0.003305 0
-0.000992 0.002399 0
-0.001535 0.001084 0
-0.001889 0.000234 0
-0.002077 -0.000205 0
-0.002146 -0.000401 0
-0.002139 -0.000471 0
-0.002087 -0.000480 0
-0.002011 -0.000461 0
-0.001922 -0.000432 0
-0.001828 -0.000401 0
-0.001733 -0.000372 0
-0.001639 -0.000346 0
-0.001548 -0.000323 0
-0.001459 -0.000303 0
-0.001374 -0.000286 0
-0.001291 -0.000272 0
-0.001210 -0.000259 0
-0.001133 -0.000248 0
-0.001057 -0.000238 0
-0.000984 -0.000229 0
-0.000912 -0.000222 0
-0.000843 -0.000217 0
-0.000775 -0.000214 0
-0.000707 -0.000214 0
-0.000640 -0.000216 0
-0.000572 -0.000221 0
-0.000503 -0.000228 0
-0.000432 -0.000236 0
-0.000359 -0.000242 0
-0.000284 -0.000243 0
-0.000208 -0.000234 0
-0.000135 -0.000209 0
-0.000070 -0.000163 0
-0.000021 -0.000093 0
0.000000 -0.000026 0
0.000000 0.000000 0
0.000000 0.000000 0
0.000000 0.000000 0
0.000000 0.000297 0
-0.000060 0.000847 0
-0.000199 0.001130 0
-0.000377 0.001082 0
-0.000561 0.000897 0
-0.000731 0.000696 0
-0.000879 0.000529 0
-0.001005 0.000407 0
-0.001113 0.000322 0
-0.001208 0.000264 0
-0.001291 0.000224 0
-0.001367 0.000195 0
-0.001437 0.000172 0
-0.001501 0.000153 0
-0.001560 0.000138 0
-0.001614 0.000125 0
-0.001664 0.000113 0
-0.001711 0.000102 0
-0.001753 0.000093 0
-0.001792 0.000085 0
-0.001828 0.000078 0
-0.001861 0.000071 0
-0.001891 0.000066 0
-0.001918 0.000061 0
-0.001944 0.000056 0
-0.001968 0.000052 0
-0.001990 0.000049 0
-0.002011 0.000045 0
-0.002030 0.000041 0
-0.002048 0.000038 0
-0.002065 0.000035 0
-0.002081 0.000033 0
-0.002097 0.000032 0
-0.002111 0.000032 0
-0.002126 0.000033 0
-0.002140 0.000033 0
-0.002154 0.000032 0
-0.002168 0.000027 0
-0.002181 0.000017 0
-0.002192 -0.000000 0
-0.002199 -0.000025 0
-0.002202 -0.000055 0
-0.002199 -0.000085 0
-0.002193 -0.000102 0
-0.002186 -0.000092 0
-0.002185 -0.000038 0
-0.002200 0.000073 0
-0.002242 0.000243 0
-0.002320 0.000452 0
-0.002436 0.000657 0
-0.002579 0.000782 0
-0.002715 0.000730 0
-0.002794 0.000400 0
-0.002744 -0.000282 0
-0.002493 -0.001308 0
-0.001995 -0.002498 0
-0.001274 -0.003378 0
-0.000484 -0.003032 0
0.000000 -0.001202 0
0.000000 0.001883 0
-0.000293 0.003762 0
-0.000850 0.002962 0
-0.001366 0.001534 0
-0.001732 0.000523 0
-0.001951 -0.000053 0
-0.002056 -0.000348 0
-0.002083 -0.000482 0
-0.002060 -0.000530 0
-0.002005 -0.000533 0
-0.001933 -0.000516 0
-0.001852 -0.000491 0
-0.001766 -0.000463 0
-0.001678 -0.000436 0
-0.001591 -0.000412 0
-0.001505 -0.000390 0
-0.001420 -0.000371 0
-0.001337 -0.000354 0
-0.001256 -0.000339 0
-0.001177 -0.000326 0
-0.001099 -0.000314 0
-0.001024 -0.000303 0
-0.000950 -0.000295 0
-0.000878 -0.000288 0
-0.000807 -0.000284 0
-0.000737 -0.000283 0
-0.000668 -0.000285 0
-0.000599 -0.000291 0
-0.000528 -0.000299 0
-0.000456 -0.000309 0
-0.000381 -0.000318 0
-0.000304 -0.000320 0
-0.000225 -0.000310 0
-0.000147 -0.000281 0
-0.000077 -0.000223 0
-0.000024 -0.000131 0
0.000000 -0.000037 0
0.000000 0.000000 0
0.000000 0.000000 0
0.000000 0.000000 0
0.000000 0.000316 0
-0.000022 0.000918 0
-0.000093 0.001253 0
-0.000200 0.001231 0
-0.000324 0.001050 0
-0.000449 0.000838 0
-0.000565 0.000656 0
-0.000670 0.000518 0
-0.000765 0.000421 0
-0.000853 0.000354 0
-0.000935 0.000306 0
-0.001012 0.000270 0
-0.001085 0.000242 0
-0.001155 0.000219 0
-0.001221 0.000199 0
-0.001284 0.000182 0
-0.001343 0.000166 0
-0.001399 0.000152 0
-0.001450 0.000139 0
-0.001498 0.000127 0
-0.001543 0.000116 0
-0.001584 0.000106 0
-0.001621 0.000098 0
-0.001656 0.000091 0
-0.001688 0.000084 0
-0.001718 0.000078 0
-0.001746 0.000073 0
-0.001773 0.000068 0
-0.001798 0.000063 0
-0.001822 0.000059 0
-0.001845 0.000055 0
-0.001867 0.000052 0
-0.001889 0.000050 0
-0.001909 0.000049 0
-0.001929 0.000049 0
-0.001949 0.000050 0
-0.001969 0.000049 0
-0.001989 0.000044 0
-0.002009 0.000033 0
-0.002028 0.000013 0
-0.002046 -0.000015 0
-0.002060 -0.000050 0
-0.002071 -0.000083 0
-0.002078 -0.000103 0
-0.002084 -0.000091 0
-0.002094 -0.000027 0
-0.002115 0.000103 0
-0.002155 0.000300 0
-0.002222 0.000542 0
-0.002318 0.000775 0
-0.002434 0.000907 0
-0.002542 0.000824 0
-0.002595 0.000403 0
-0.002532 -0.000437 0
-0.002289 -0.001677 0
-0.001825 -0.003089 0
-0.001163 -0.004106 0
-0.000441 -0.003643 0
0.000000 -0.001433 0
0.000000 0.002016 0
-0.000242 0.004155 0
-0.000735 0.003472 0
-0.001214 0.001966 0
-0.001571 0.000820 0
-0.001800 0.000120 0
-0.001924 -0.000269 0
-0.001972 -0.000467 0
-0.001968 -0.000557 0
-0.001932 -0.000587 0
-0.001875 -0.000585 0
-0.001807 -0.000568 0
-0.001731 -0.000545 0
-0.001653 -0.000520 0
-0.001572 -0.000496 0
-0.001492 -0.000474 0
-0.001411 -0.000454 0
-0.001332 -0.000436 0
-0.001253 -0.000419 0
-0.001175 -0.000404 0
-0.001098 -0.000391 0
-0.001023 -0.000379 0
-0.000950 -0.000368 0
-0.000878 -0.000360 0
-0.000807 -0.000354 0
-0.000738 -0.000352 0
-0.000670 -0.000354 0
-0.000602 -0.000360 0
-0.000533 -0.000370 0
-0.000462 -0.000382 0
-0.000389 -0.000394 0
-0.000312 -0.000399 0
-0.000233 -0.000390 0
-0.000155 -0.000356 0
-0.000082 -0.000287 0
-0.000025 -0.000171 0
0.000000 -0.000050 0
0.000000 0.000000 0
0.000000 0.000000 0
0.000000 0.000000 0
0.000000 0.000319 0
0.000008 0.000939 0
-0.000001 0.001307 0
-0.000038 0.001313 0
-0.000097 0.001146 0
-0.000169 0.000936 0
-0.000244 0.000750 0
-0.000318 0.000607 0
-0.000390 0.000505 0
-0.000461 0.000434 0
-0.000532 0.000383 0
-0.000603 0.000345 0
-0.000674 0.000315 0
-0.000744 0.000289 0
-0.000813 0.000267 0
-0.000880 0.000246 0
-0.000946 0.000227 0
-0.001009 0.000210 0
-0.001069 0.000193 0
-0.001126 0.000177 0
-0.001180 0.000163 0
-0.001229 0.000150 0
-0.001275 0.000138 0
-0.001317 0.000127 0
-0.001356 0.000118 0
-0.001392 0.000110 0
-0.001426 0.000103 0
-0.001459 0.000097 0
-0.001491 0.000091 0
-0.001521 0.000085 0
-0.001551 0.000080 0
-0.001580 0.000076 0
-0.001607 0.000074 0
-0.001634 0.000072 0
-0.001661 0.000072 0
-0.001687 0.000073 0
-0.001714 0.000072 0
-0.001741 0.000068 0
-0.001769 0.000057 0
-0.001797 0.000037 0
-0.001826 0.000007 0
-0.001853 -0.000031 0
-0.001878 -0.000067 0
-0.001899 -0.000089 0
-0.001919 -0.000077 0
-0.001940 -0.000008 0
-0.001965 0.000134 0
-0.002003 0.000350 0
-0.002058 0.000616 0
-0.002134 0.000869 0
-0.002222 0.001005 0
-0.002301 0.000891 0
-0.002334 0.000390 0
-0.002267 -0.000588 0
-0.002046 -0.002015 0
-0.001633 -0.003624 0
-0.001043 -0.004764 0
-0.000397 -0.004195 0
0.000000 -0.001643 0
0.000000 0.002126 0
-0.000204 0.004497 0
-0.000641 0.003933 0
-0.001080 0.002370 0
-0.001419 0.001110 0
-0.001643 0.000299 0
-0.001772 -0.000176 0
-0.001829 -0.000438 0
-0.001837 -0.000570 0
-0.001812 -0.000626 0
-0.001768 -0.000641 0
-0.001710 -0.000634 0
-0.001646 -0.000617 0
-0.001576 -0.000595 0
-0.001504 -0.000573 0
-0.001431 -0.000551 0
-0.001357 -0.000531 0
-0.001283 -0.000513 0
-0.001209 -0.000496 0
-0.001135 -0.000480 0
-0.001062 -0.000465 0
-0.000990 -0.000452 0
-0.000919 -0.000440 0
-0.000849 -0.000430 0
-0.000781 -0.000423 0
-0.000715 -0.000420 0
-0.000649 -0.000421 0
-0.000585 -0.000427 0
-0.000519 -0.000438 0
-0.000453 -0.000453 0
-0.000383 -0.000467 0
-0.000310 -0.000475 0
-0.000234 -0.000468 0
-0.000157 -0.000432 0
-0.000084 -0.000352 0
-0.000026 -0.000212 0
0.000000 -0.000063 0
0.000000 0.000000 0
0.000000 0.000000 0
0.000000 0.000000 0
0.000000 0.000308 0
0.000030 0.000919 0
0.000072 0.001299 0
0.000097 0.001328 0
0.000099 0.001181 0
0.000082 0.000985 0
0.000052 0.000805 0
0.000014 0.000665 0
-0.000029 0.000565 0
-0.000077 0.000496 0
-0.000130 0.000447 0
-0.000187 0.000411 0
-0.000248 0.000383 0
-0.000312 0.000358 0
-0.000378 0.000336 0
-0.000446 0.000315 0
-0.000514 0.000295 0
-0.000582 0.000275 0
-0.000650 0.000256 0
-0.000715 0.000237 0
-0.000777 0.000219 0
-0.000836 0.000201 0
-0.000891 0.000186 0
-0.000941 0.000171 0
-0.000987 0.000159 0
-0.001030 0.000149 0
-0.001070 0.000140 0
-0.001109 0.000132 0
-0.001146 0.000125 0
-0.001182 0.000119 0
-0.001218 0.000113 0
-0.001254 0.000108 0
-0.001288 0.000104 0
-0.001322 0.000102 0
-0.001356 0.000102 0
-0.001389 0.000102 0
-0.001422 0.000102 0
-0.001456 0.000099 0
-0.001492 0.000089 0
-0.001529 0.000070 0
-0.001568 0.000040 0
-0.001607 0.000002 0
-0.001646 -0.000037 0
-0.001682 -0.000061 0
-0.001715 -0.000051 0
-0.001746 0.000019 0
-0.001777 0.000166 0
-0.001812 0.000392 0
-0.001856 0.000673 0
-0.001911 0.000938 0
-0.001973 0.001075 0
-0.002027 0.000936 0
-0.002044 0.000369 0
-0.001980 -0.000726 0
-0.001787 -0.002312 0
-0.001431 -0.004093 0
-0.000920 -0.005343 0
-0.000353 -0.004686 0
0.000000 -0.001830 0
0.000000 0.002220 0
-0.000174 0.004797 0
-0.000563 0.004349 0
-0.000963 0.002744 0
-0.001278 0.001383 0
-0.001489 0.000473 0
-0.001613 -0.000082 0
-0.001670 -0.000402 0
-0.001682 -0.000574 0
-0.001664 -0.000656 0
-0.001627 -0.000687 0
-0.001579 -0.000690 0
-0.001523 -0.000679 0
-0.001463 -0.000661 0
-0.001400 -0.000641 0
-0.001335 -0.000621 0
-0.001268 -0.000602 0
-0.001201 -0.000584 0
-0.001133 -0.000567 0
-0.001065 -0.000551 0
-0.000997 -0.000536 0
-0.000929 -0.000521 0
-0.000862 -0.000508 0
-0.000797 -0.000497 0
-0.000733 -0.000489 0
-0.000671 -0.000484 0
-0.000610 -0.000484 0
-0.000551 -0.000490 0
-0.000491 -0.000502 0
-0.000430 -0.000518 0
-0.000367 -0.000536 0
-0.000299 -0.000548 0
-0.000228 -0.000543 0
-0.000154 -0.000506 0
-0.000084 -0.000417 0
-0.000027 -0.000254 0
0.000000 -0.000076 0
0.000000 0.000000 0
0.000000 0.000000 0
0.000000 0.000000 0
0.000000 0.000288 0
0.000045 0.000867 0
0.000125 0.001240 0
0.000202 0.001285 0