# vtk DataFile Version 2.0
generated by CFD-lab course output (written by Tobias Neckel) 
ASCII

DATASET STRUCTURED_GRID
DIMENSIONS  99 49 1 
POINTS 4851 float

0.000000 0.000000 0
0.020000 0.000000 0
0.040000 0.000000 0
0.060000 0.000000 0
0.080000 0.000000 0
0.100000 0.000000 0
0.120000 0.000000 0
0.140000 0.000000 0
0.160000 0.000000 0
0.180000 0.000000 0
0.200000 0.000000 0
0.220000 0.000000 0
0.240000 0.000000 0
0.260000 0.000000 0
0.280000 0.000000 0
0.300000 0.000000 0
0.320000 0.000000 0
0.340000 0.000000 0
0.360000 0.000000 0
0.380000 0.000000 0
0.400000 0.000000 0
0.420000 0.000000 0
0.440000 0.000000 0
0.460000 0.000000 0
0.480000 0.000000 0
0.500000 0.000000 0
0.520000 0.000000 0
0.540000 0.000000 0
0.560000 0.000000 0
0.580000 0.000000 0
0.600000 0.000000 0
0.620000 0.000000 0
0.640000 0.000000 0
0.660000 0.000000 0
0.680000 0.000000 0
0.700000 0.000000 0
0.720000 0.000000 0
0.740000 0.000000 0
0.760000 0.000000 0
0.780000 0.000000 0
0.800000 0.000000 0
0.820000 0.000000 0
0.840000 0.000000 0
0.860000 0.000000 0
0.880000 0.000000 0
0.900000 0.000000 0
0.920000 0.000000 0
0.940000 0.000000 0
0.960000 0.000000 0
0.980000 0.000000 0
1.000000 0.000000 0
1.020000 0.000000 0
1.040000 0.000000 0
1.060000 0.000000 0
1.080000 0.000000 0
1.100000 0.000000 0
1.120000 0.000000 0
1.140000 0.000000 0
1.160000 0.000000 0
1.180000 0.000000 0
1.200000 0.000000 0
1.220000 0.000000 0
1.240000 0.000000 0
1.260000 0.000000 0
1.280000 0.000000 0
1.300000 0.000000 0
1.320000 0.000000 0
1.340000 0.000000 0
1.360000 0.000000 0
1.380000 0.000000 0
1.400000 0.000000 0
1.420000 0.000000 0
1.440000 0.000000 0
1.460000 0.000000 0
1.480000 0.000000 0
1.500000 0.000000 0
1.520000 0.000000 0
1.540000 0.000000 0
1.560000 0.000000 0
1.580000 0.000000 0
1.600000 0.000000 0
1.620000 0.000000 0
1.640000 0.000000 0
1.660000 0.000000 0
1.680000 0.000000 0
1.700000 0.000000 0
1.720000 0.000000 0
1.740000 0.000000 0
1.760000 0.000000 0
1.780000 0.000000 0
1.800000 0.000000 0
1.820000 0.000000 0
1.840000 0.000000 0
1.860000 0.000000 0
1.880000 0.000000 0
1.900000 0.000000 0
1.920000 0.000000 0
1.940000 0.000000 0
1.960000 0.000000 0
0.000000 0.020000 0
0.020000 0.020000 0
0.040000 0.020000 0
0.060000 0.020000 0
0.080000 0.020000 0
0.100000 0.020000 0
0.120000 0.020000 0
0.140000 0.020000 0
0.160000 0.020000 0
0.180000 0.020000 0
0.200000 0.020000 0
0.220000 0.020000 0
0.240000 0.020000 0
0.260000 0.020000 0
0.280000 0.020000 0
0.300000 0.020000 0
0.320000 0.020000 0
0.340000 0.020000 0
0.360000 0.020000 0
0.380000 0.020000 0
0.400000 0.020000 0
0.420000 0.020000 0
0.440000 0.020000 0
0.460000 0.020000 0
0.480000 0.020000 0
0.500000 0.020000 0
0.520000 0.020000 0
0.540000 0.020000 0
0.560000 0.020000 0
0.580000 0.020000 0
0.600000 0.020000 0
0.620000 0.020000 0
0.640000 0.020000 0
0.660000 0.020000 0
0.680000 0.020000 0
0.700000 0.020000 0
0.720000 0.020000 0
0.740000 0.020000 0
0.760000 0.020000 0
0.780000 0.020000 0
0.800000 0.020000 0
0.820000 0.020000 0
0.840000 0.020000 0
0.860000 0.020000 0
0.880000 0.020000 0
0.900000 0.020000 0
0.920000 0.020000 0
0.940000 0.020000 0
0.960000 0.020000 0
0.980000 0.020000 0
1.000000 0.020000 0
1.020000 0.020000 0
1.040000 0.020000 0
1.060000 0.020000 0
1.080000 0.020000 0
1.100000 0.020000 0
1.120000 0.020000 0
1.140000 0.020000 0
1.160000 0.020000 0
1.180000 0.020000 0
1.200000 0.020000 0
1.220000 0.020000 0
1.240000 0.020000 0
1.260000 0.020000 0
1.280000 0.020000 0
1.300000 0.020000 0
1.320000 0.020000 0
1.340000 0.020000 0
1.360000 0.020000 0
1.380000 0.020000 0
1.400000 0.020000 0
1.420000 0.020000 0
1.440000 0.020000 0
1.460000 0.020000 0
1.480000 0.020000 0
1.500000 0.020000 0
1.520000 0.020000 0
1.540000 0.020000 0
1.560000 0.020000 0
1.580000 0.020000 0
1.600000 0.020000 0
1.620000 0.020000 0
1.640000 0.020000 0
1.660000 0.020000 0
1.680000 0.020000 0
1.700000 0.020000 0
1.720000 0.020000 0
1.740000 0.020000 0
1.760000 0.020000 0
1.780000 0.020000 0
1.800000 0.020000 0
1.820000 0.020000 0
1.840000 0.020000 0
1.860000 0.020000 0
1.880000 0.020000 0
1.900000 0.020000 0
1.920000 0.020000 0
1.940000 0.020000 0
1.960000 0.020000 0
0.000000 0.040000 0
0.020000 0.040000 0
0.040000 0.040000 0
0.060000 0.040000 0
0.080000 0.040000 0
0.100000 0.040000 0
0.120000 0.040000 0
0.140000 0.040000 0
0.160000 0.040000 0
0.180000 0.040000 0
0.200000 0.040000 0
0.220000 0.040000 0
0.240000 0.040000 0
0.260000 0.040000 0
0.280000 0.040000 0
0.300000 0.040000 0
0.320000 0.040000 0
0.340000 0.040000 0
0.360000 0.040000 0
0.380000 0.040000 0
0.400000 0.040000 0
0.420000 0.040000 0
0.440000 0.040000 0
0.460000 0.040000 0
0.480000 0.040000 0
0.500000 0.040000 0
0.520000 0.040000 0
0.540000 0.040000 0
0.560000 0.040000 0
0.580000 0.040000 0
0.600000 0.040000 0
0.620000 0.040000 0
0.640000 0.040000 0
0.660000 0.040000 0
0.680000 0.040000 0
0.700000 0.040000 0
0.720000 0.040000 0
0.740000 0.040000 0
0.760000 0.040000 0
0.780000 0.040000 0
0.800000 0.040000 0
0.820000 0.040000 0
0.840000 0.040000 0
0.860000 0.040000 0
0.880000 0.040000 0
0.900000 0.040000 0
0.920000 0.040000 0
0.940000 0.040000 0
0.960000 0.040000 0
0.980000 0.040000 0
1.000000 0.040000 0
1.020000 0.040000 0
1.040000 0.040000 0
1.060000 0.040000 0
1.080000 0.040000 0
1.100000 0.040000 0
1.120000 0.040000 0
1.140000 0.040000 0
1.160000 0.040000 0
1.180000 0.040000 0
1.200000 0.040000 0
1.220000 0.040000 0
1.240000 0.040000 0
1.260000 0.040000 0
1.280000 0.040000 0
1.300000 0.040000 0
1.320000 0.040000 0
1.340000 0.040000 0
1.360000 0.040000 0
1.380000 0.040000 0
1.400000 0.040000 0
1.420000 0.040000 0
1.440000 0.040000 0
1.460000 0.040000 0
1.480000 0.040000 0
1.500000 0.040000 0
1.520000 0.040000 0
1.540000 0.040000 0
1.560000 0.040000 0
1.580000 0.040000 0
1.600000 0.040000 0
1.620000 0.040000 0
1.640000 0.040000 0
1.660000 0.040000 0
1.680000 0.040000 0
1.700000 0.040000 0
1.720000 0.040000 0
1.740000 0.040000 0
1.760000 0.040000 0
1.780000 0.040000 0
1.800000 0.040000 0
1.820000 0.040000 0
1.840000 0.040000 0
1.860000 0.040000 0
1.880000 0.040000 0
1.900000 0.040000 0
1.920000 0.040000 0
1.940000 0.040000 0
1.960000 0.040000 0
0.000000 0.060000 0
0.020000 0.060000 0
0.040000 0.060000 0
0.060000 0.060000 0
0.080000 0.060000 0
0.100000 0.060000 0
0.120000 0.060000 0
0.140000 0.060000 0
0.160000 0.060000 0
0.180000 0.060000 0
0.200000 0.060000 0
0.220000 0.060000 0
0.240000 0.060000 0
0.260000 0.060000 0
0.280000 0.060000 0
0.300000 0.060000 0
0.320000 0.060000 0
0.340000 0.060000 0
0.360000 0.060000 0
0.380000 0.060000 0
0.400000 0.060000 0
0.420000 0.060000 0
0.440000 0.060000 0
0.460000 0.060000 0
0.480000 0.060000 0
0.500000 0.060000 0
0.520000 0.060000 0
0.540000 0.060000 0
0.560000 0.060000 0
0.580000 0.060000 0
0.600000 0.060000 0
0.620000 0.060000 0
0.640000 0.060000 0
0.660000 0.060000 0
0.680000 0.060000 0
0.700000 0.060000 0
0.720000 0.060000 0
0.740000 0.060000 0
0.760000 0.060000 0
0.780000 0.060000 0
0.800000 0.060000 0
0.820000 0.060000 0
0.840000 0.060000 0
0.860000 0.060000 0
0.880000 0.060000 0
0.900000 0.060000 0
0.920000 0.060000 0
0.940000 0.060000 0
0.960000 0.060000 0
0.980000 0.060000 0
1.000000 0.060000 0
1.020000 0.060000 0
1.040000 0.060000 0
1.060000 0.060000 0
1.080000 0.060000 0
1.100000 0.060000 0
1.120000 0.060000 0
1.140000 0.060000 0
1.160000 0.060000 0
1.180000 0.060000 0
1.200000 0.060000 0
1.220000 0.060000 0
1.240000 0.060000 0
1.260000 0.060000 0
1.280000 0.060000 0
1.300000 0.060000 0
1.320000 0.060000 0
1.340000 0.060000 0
1.360000 0.060000 0
1.380000 0.060000 0
1.400000 0.060000 0
1.420000 0.060000 0
1.440000 0.060000 0
1.460000 0.060000 0
1.480000 0.060000 0
1.500000 0.060000 0
1.520000 0.060000 0
1.540000 0.060000 0
1.560000 0.060000 0
1.580000 0.060000 0
1.600000 0.060000 0
1.620000 0.060000 0
1.640000 0.060000 0
1.660000 0.060000 0
1.680000 0.060000 0
1.700000 0.060000 0
1.720000 0.060000 0
1.740000 0.060000 0
1.760000 0.060000 0
1.780000 0.060000 0
1.800000 0.060000 0
1.820000 0.060000 0
1.840000 0.060000 0
1.860000 0.060000 0
1.880000 0.060000 0
1.900000 0.060000 0
1.920000 0.060000 0
1.940000 0.060000 0
1.960000 0.060000 0
0.000000 0.080000 0
0.020000 0.080000 0
0.040000 0.080000 0
0.060000 0.080000 0
0.080000 0.080000 0
0.100000 0.080000 0
0.120000 0.080000 0
0.140000 0.080000 0
0.160000 0.080000 0
0.180000 0.080000 0
0.200000 0.080000 0
0.220000 0.080000 0
0.240000 0.080000 0
0.260000 0.080000 0
0.280000 0.080000 0
0.300000 0.080000 0
0.320000 0.080000 0
0.340000 0.080000 0
0.360000 0.080000 0
0.380000 0.080000 0
0.400000 0.080000 0
0.420000 0.080000 0
0.440000 0.080000 0
0.460000 0.080000 0
0.480000 0.080000 0
0.500000 0.080000 0
0.520000 0.080000 0
0.540000 0.080000 0
0.560000 0.080000 0
0.580000 0.080000 0
0.600000 0.080000 0
0.620000 0.080000 0
0.640000 0.080000 0
0.660000 0.080000 0
0.680000 0.080000 0
0.700000 0.080000 0
0.720000 0.080000 0
0.740000 0.080000 0
0.760000 0.080000 0
0.780000 0.080000 0
0.800000 0.080000 0
0.820000 0.080000 0
0.840000 0.080000 0
0.860000 0.080000 0
0.880000 0.080000 0
0.900000 0.080000 0
0.920000 0.080000 0
0.940000 0.080000 0
0.960000 0.080000 0
0.980000 0.080000 0
1.000000 0.080000 0
1.020000 0.080000 0
1.040000 0.080000 0
1.060000 0.080000 0
1.080000 0.080000 0
1.100000 0.080000 0
1.120000 0.080000 0
1.140000 0.080000 0
1.160000 0.080000 0
1.180000 0.080000 0
1.200000 0.080000 0
1.220000 0.080000 0
1.240000 0.080000 0
1.260000 0.080000 0
1.280000 0.080000 0
1.300000 0.080000 0
1.320000 0.080000 0
1.340000 0.080000 0
1.360000 0.080000 0
1.380000 0.080000 0
1.400000 0.080000 0
1.420000 0.080000 0
1.440000 0.080000 0
1.460000 0.080000 0
1.480000 0.080000 0
1.500000 0.080000 0
1.520000 0.080000 0
1.540000 0.080000 0
1.560000 0.080000 0
1.580000 0.080000 0
1.600000 0.080000 0
1.620000 0.080000 0
1.640000 0.080000 0
1.660000 0.080000 0
1.680000 0.080000 0
1.700000 0.080000 0
1.720000 0.080000 0
1.740000 0.080000 0
1.760000 0.080000 0
1.780000 0.080000 0
1.800000 0.080000 0
1.820000 0.080000 0
1.840000 0.080000 0
1.860000 0.080000 0
1.880000 0.080000 0
[...]
POINT_DATA 4851 

VECTORS velocity float
0.000000 0.000000 0
-0.000454 0.000000 0
-0.000594 0.000000 0
-0.000542 0.000000 0
-0.000453 0.000000 0
-0.000376 0.000000 0
-0.000318 0.000000 0
-0.000275 0.000000 0
-0.000243 0.000000 0
-0.000218 0.000000 0
-0.000198 0.000000 0
-0.000182 0.000000 0
-0.000168 0.000000 0
-0.000156 0.000000 0
-0.000145 0.000000 0
-0.000136 0.000000 0
-0.000127 0.000000 0
-0.000119 0.000000 0
-0.000111 0.000000 0
-0.000104 0.000000 0
-0.000097 0.000000 0
-0.000090 0.000000 0
-0.000084 0.000000 0
-0.000078 0.000000 0
-0.000072 0.000000 0
-0.000066 0.000000 0
-0.000060 0.000000 0
-0.000054 0.000000 0
-0.000048 0.000000 0
-0.000041 0.000000 0
-0.000033 0.000000 0
-0.000025 0.000000 0
-0.000017 0.000000 0
-0.000009 0.000000 0
-0.000004 0.000000 0
-0.000000 0.000000 0
0.000000 0.000000 0
0.000000 0.000000 0
0.000000 0.000000 0
0.000000 0.000000 0
0.000000 0.000000 0
-0.000041 0.000000 0
-0.000113 0.000000 0
-0.000179 0.000000 0
-0.000223 0.000000 0
-0.000250 0.000000 0
-0.000265 0.000000 0
-0.000274 0.000000 0
-0.000279 0.000000 0
-0.000283 0.000000 0
-0.000286 0.000000 0
-0.000288 0.000000 0
-0.000291 0.000000 0
-0.000293 0.000000 0
-0.000295 0.000000 0
-0.000297 0.000000 0
-0.000299 0.000000 0
-0.000301 0.000000 0
-0.000303 0.000000 0
-0.000305 0.000000 0
-0.000306 0.000000 0
-0.000308 0.000000 0
-0.000310 0.000000 0
-0.000311 0.000000 0
-0.000313 0.000000 0
-0.000314 0.000000 0
-0.000316 0.000000 0
-0.000317 0.000000 0
-0.000319 0.000000 0
-0.000320 0.000000 0
-0.000321 0.000000 0
-0.000322 0.000000 0
-0.000323 0.000000 0
-0.000325 0.000000 0
-0.000326 0.000000 0
-0.000327 0.000000 0
-0.000329 0.000000 0
-0.000330 0.000000 0
-0.000332 0.000000 0
-0.000333 0.000000 0
-0.000333 0.000000 0
-0.000331 0.000000 0
-0.000328 0.000000 0
-0.000323 0.000000 0
-0.000317 0.000000 0
-0.000310 0.000000 0
-0.000306 0.000000 0
-0.000307 0.000000 0
-0.000319 0.000000 0
-0.000343 0.000000 0
-0.000381 0.000000 0
-0.000429 0.000000 0
-0.000481 0.000000 0
-0.000520 0.000000 0
-0.000524 0.000000 0
-0.000468 0.000000 0
-0.000333 0.000000 0
-0.000141 0.000000 0
0.000000 0.000000 0
0.000000 0.000455 0
-0.000909 0.000595 0
-0.001393 0.000088 0
-0.001447 -0.000141 0
-0.001334 -0.000166 0
-0.001187 -0.000134 0
-0.001052 -0.000100 0
-0.000939 -0.000074 0
-0.000846 -0.000056 0
-0.000769 -0.000044 0
-0.000705 -0.000036 0
-0.000651 -0.000030 0
-0.000604 -0.000025 0
-0.000562 -0.000022 0
-0.000525 -0.000020 0
-0.000491 -0.000018 0
-0.000459 -0.000016 0
-0.000430 -0.000015 0
-0.000403 -0.000014 0
-0.000377 -0.000013 0
-0.000352 -0.000013 0
-0.000328 -0.000012 0
-0.000306 -0.000012 0
-0.000283 -0.000011 0
-0.000262 -0.000011 0
-0.000240 -0.000011 0
-0.000218 -0.000012 0
-0.000195 -0.000012 0
-0.000171 -0.000013 0
-0.000146 -0.000014 0
-0.000120 -0.000015 0
-0.000092 -0.000015 0
-0.000064 -0.000015 0
-0.000038 -0.000013 0
-0.000017 -0.000009 0
-0.000004 -0.000003 0
0.000000 0.000000 0
0.000000 0.000000 0
0.000000 0.000000 0
0.000000 0.000000 0
0.000000 0.000040 0
-0.000114 0.000113 0
-0.000312 0.000137 0
-0.000501 0.000109 0
-0.000644 0.000071 0
-0.000741 0.000041 0
-0.000804 0.000023 0
-0.000844 0.000013 0
-0.000872 0.000009 0
-0.000893 0.000006 0
-0.000909 0.000005 0
-0.000923 0.000005 0
-0.000935 0.000004 0
-0.000946 0.000004 0
-0.000955 0.000004 0
-0.000965 0.000003 0
-0.000973 0.000003 0
-0.000981 0.000003 0
-0.000989 0.000003 0
-0.000996 0.000003 0
-0.001003 0.000003 0
-0.001010 0.000003 0
-0.001016 0.000003 0
-0.001022 0.000003 0
-0.001028 0.000003 0
-0.001033 0.000002 0
-0.001039 0.000002 0
-0.001044 0.000002 0
-0.001048 0.000002 0
-0.001053 0.000002 0
-0.001057 0.000002 0
-0.001061 0.000002 0
-0.001065 0.000002 0
-0.001069 0.000002 0
-0.001073 0.000002 0
-0.001077 0.000002 0
-0.001081 0.000003 0
-0.001085 0.000002 0
-0.001089 0.000002 0
-0.001090 0.000000 0
-0.001089 -0.000002 0
-0.001083 -0.000005 0
-0.001072 -0.000009 0
-0.001056 -0.000012 0
-0.001037 -0.000014 0
-0.001020 -0.000011 0
-0.001011 -0.000003 0
-0.001022 0.000013 0
-0.001061 0.000035 0
-0.001136 0.000061 0
-0.001246 0.000086 0
-0.001380 0.000100 0
-0.001508 0.000090 0
-0.001586 0.000043 0
-0.001551 -0.000052 0
-0.001341 -0.000192 0
-0.000927 -0.000327 0
-0.000384 -0.000334 0
0.000000 -0.000142 0
0.000000 0.000910 0
-0.000802 0.001395 0
-0.001537 0.000539 0
-0.001861 -0.000059 0
-0.001908 -0.000259 0
-0.001826 -0.000281 0
-0.001701 -0.000248 0
-0.001569 -0.000206 0
-0.001445 -0.000169 0
-0.001335 -0.000140 0
-0.001237 -0.000118 0
-0.001150 -0.000101 0
-0.001072 -0.000088 0
-0.001002 -0.000078 0
-0.000938 -0.000071 0
-0.000879 -0.000065 0
-0.000824 -0.000060 0
-0.000773 -0.000056 0
-0.000724 -0.000053 0
-0.000678 -0.000050 0
-0.000633 -0.000048 0
-0.000591 -0.000046 0
-0.000550 -0.000044 0
-0.000509 -0.000043 0
-0.000470 -0.000043 0
-0.000430 -0.000043 0
-0.000390 -0.000044 0
-0.000349 -0.000046 0
-0.000307 -0.000048 0
-0.000262 -0.000051 0
-0.000216 -0.000054 0
-0.000168 -0.000055 0
-0.000120 -0.000053 0
-0.000075 -0.000046 0
-0.000037 -0.000034 0
-0.000010 -0.000016 0
0.000000 -0.000003 0
0.000000 0.000000 0
0.000000 0.000000 0
0.000000 0.000000 0
0.000000 0.000113 0
-0.000147 0.000311 0
-0.000404 0.000386 0
-0.000667 0.000332 0
-0.000886 0.000240 0
-0.001051 0.000159 0
-0.001168 0.000102 0
-0.001252 0.000068 0
-0.001313 0.000048 0
-0.001360 0.000036 0
-0.001397 0.000029 0
-0.001428 0.000025 0
-0.001456 0.000022 0
-0.001480 0.000020 0
-0.001502 0.000018 0
-0.001522 0.000017 0
-0.001540 0.000016 0
-0.001557 0.000015 0
-0.001573 0.000014 0
-0.001587 0.000013 0
-0.001601 0.000013 0
-0.001614 0.000012 0
-0.001626 0.000012 0
-0.001638 0.000011 0
-0.001649 0.000011 0
-0.001659 0.000010 0
-0.001669 0.000010 0
-0.001678 0.000009 0
-0.001687 0.000008 0
-0.001695 0.000008 0
-0.001702 0.000007 0
-0.001709 0.000007 0
-0.001716 0.000007 0
-0.001723 0.000007 0
-0.001729 0.000008 0
-0.001736 0.000008 0
-0.001742 0.000008 0
-0.001748 0.000007 0
-0.001752 0.000004 0
-0.001753 -0.000000 0
-0.001749 -0.000008 0
-0.001740 -0.000017 0
-0.001722 -0.000027 0
-0.001699 -0.000036 0
-0.001673 -0.000037 0
-0.001651 -0.000027 0
-0.001645 0.000001 0
-0.001667 0.000049 0
-0.001731 0.000114 0
-0.001843 0.000185 0
-0.001998 0.000243 0
-0.002172 0.000262 0
-0.002321 0.000205 0
-0.002376 0.000042 0
-0.002256 -0.000245 0
-0.001890 -0.000625 0
-0.001266 -0.000957 0
-0.000510 -0.000927 0
0.000000 -0.000385 0
0.000000 0.001257 0
-0.000607 0.002132 0
-0.001367 0.001148 0
-0.001851 0.000231 0
-0.002058 -0.000200 0
-0.002090 -0.000341 0
-0.002031 -0.000358 0
-0.001933 -0.000329 0
-0.001821 -0.000290 0
-0.001708 -0.000253 0
-0.001601 -0.000220 0
-0.001501 -0.000194 0
-0.001409 -0.000173 0
-0.001323 -0.000156 0
-0.001243 -0.000142 0
-0.001168 -0.000131 0
-0.001097 -0.000123 0
-0.001030 -0.000115 0
-0.000966 -0.000109 0
-0.000905 -0.000104 0
-0.000846 -0.000099 0
-0.000789 -0.000096 0
-0.000734 -0.000093 0
-0.000680 -0.000091 0
-0.000627 -0.000090 0
-0.000574 -0.000090 0
-0.000520 -0.000092 0
-0.000466 -0.000095 0
-0.000410 -0.000100 0
-0.000351 -0.000105 0
-0.000290 -0.000109 0
-0.000228 -0.000111 0
-0.000165 -0.000108 0
-0.000106 -0.000096 0
-0.000054 -0.000073 0
-0.000016 -0.000039 0
0.000000 -0.000010 0
0.000000 0.000000 0
0.000000 0.000000 0
0.000000 0.000000 0
0.000000 0.000186 0
-0.000131 0.000516 0
-0.000377 0.000657 0
-0.000645 0.000591 0
-0.000885 0.000454 0
-0.001079 0.000323 0
-0.001228 0.000224 0
-0.001342 0.000158 0
-0.001430 0.000116 0
-0.001499 0.000090 0
-0.001557 0.000074 0
-0.001606 0.000063 0
-0.001648 0.000055 0
-0.001686 0.000050 0
-0.001721 0.000045 0
-0.001752 0.000041 0
-0.001780 0.000038 0
-0.001807 0.000036 0
-0.001831 0.000033 0
-0.001853 0.000031 0
-0.001874 0.000029 0
-0.001894 0.000028 0
-0.001912 0.000026 0
-0.001929 0.000025 0
-0.001945 0.000024 0
-0.001960 0.000022 0
-0.001974 0.000021 0
-0.001987 0.000020 0
-0.002000 0.000018 0
-0.002011 0.000017 0
-0.002022 0.000016 0
-0.002032 0.000015 0
-0.002041 0.000015 0
-0.002051 0.000015 0
-0.002059 0.000015 0
-0.002068 0.000015 0
-0.002076 0.000014 0
-0.002084 0.000012 0
-0.002089 0.000007 0
-0.002091 -0.000002 0
-0.002087 -0.000016 0
-0.002077 -0.000032 0
-0.002060 -0.000049 0
-0.002037 -0.000062 0
-0.002011 -0.000062 0
-0.001992 -0.000040 0
-0.001991 0.000013 0
-0.002021 0.000099 0
-0.002095 0.000210 0
-0.002217 0.000328 0
-0.002378 0.000415 0
-0.002549 0.000423 0
-0.002678 0.000293 0
-0.002691 -0.000022 0
-0.002504 -0.000538 0
-0.002053 -0.001182 0
-0.001345 -0.001707 0
-0.000528 -0.001600 0
0.000000 -0.000652 0
0.000000 0.001517 0
-0.000459 0.002762 0
-0.001161 0.001784 0
-0.001701 0.000633 0
-0.002008 -0.000020 0
-0.002134 -0.000308 0
-0.002147 -0.000405 0
-0.002097 -0.000416 0
-0.002015 -0.000393 0
-0.001919 -0.000359 0
-0.001819 -0.000324 0
-0.001720 -0.000293 0
-0.001625 -0.000266 0
-0.001533 -0.000244 0
-0.001446 -0.000225 0
-0.001363 -0.000210 0
-0.001284 -0.000197 0
-0.001208 -0.000187 0
-0.001134 -0.000178 0
-0.001063 -0.000170 0
-0.000995 -0.000163 0
-0.000928 -0.000158 0
-0.000863 -0.000153 0
-0.000800 -0.000150 0
-0.000737 -0.000149 0
-0.000674 -0.000149 0
-0.000612 -0.000152 0
-0.000548 -0.000156 0
-0.000483 -0.000163 0
-0.000415 -0.000170 0
-0.000345 -0.000177 0
-0.000273 -0.000180 0
-0.000200 -0.000175 0
-0.000130 -0.000157 0
-0.000067 -0.000123 0
-0.000020 -0.000070 0
0.000000 -0.000019 0
0.000000 0.000000 0
0.000000 0.000000 0
0.000000 0.000000 0
0.000000 0.000244 0
-0.000097 0.000688 0
-0.000293 0.000899 0
-0.000524 0.000839 0
-0.000744 0.000673 0
-0.000934 0.000502 0
-0.001090 0.000365 0
-0.001216 0.000269 0
-0.001318 0.000205 0
-0.001402 0.000163 0
-0.001474 0.000136 0
-0.001537 0.000117 0
-0.001593 0.000103 0
-0.001644 0.000092 0
-0.001690 0.000084 0
-0.001732 0.000077 0
-0.001771 0.000071 0
-0.001806 0.000065 0
-0.001839 0.000061 0
-0.001870 0.000057 0
-0.001898 0.000053 0
-0.001923 0.000050 0
-0.001948 0.000047 0
-0.001970 0.000044 0
-0.001991 0.000042 0
-0.002011 0.000039 0
-0.002030 0.000037 0
-0.002048 0.000034 0
-0.002064 0.000032 0
-0.002080 0.000030 0
-0.002095 0.000028 0
-0.002108 0.000026 0
-0.002122 0.000026 0
-0.002134 0.000025 0
-0.002146 0.000025 0
-0.002158 0.000025 0
-0.002169 0.000023 0
-0.002179 0.000019 0
-0.002188 0.000011 0
-0.002193 -0.000002 0
-0.002193 -0.000021 0
-0.002188 -0.000045 0
-0.002176 -0.000068 0
-0.002159 -0.000084 0
-0.002140 -0.000082 0
-0.002128 -0.000047 0
-0.002133 0.000030 0
-0.002166 0.000153 0
-0.002239 0.000309 0
-0.002356 0.000467 0
-0.002505 0.000576 0
-0.002657 0.000562 0
-0.002757 0.000347 0
-0.002735 -0.000133 0
-0.002511 -0.000883 0
-0.002031 -0.001784 0
-0.001310 -0.002483 0
-0.000504 -0.002272 0
0.000000 -0.000912 0
0.000000 0.001717 0
-0.000359 0.003294 0
-0.000984 0.002390 0
-0.001522 0.001078 0
-0.001873 0.000233 0
-0.002060 -0.000202 0
-0.002129 -0.000394 0
-0.002123 -0.000461 0
-0.002074 -0.000468 0
-0.002001 -0.000448 0
-0.001916 -0.000419 0
-0.001827 -0.000388 0
-0.001736 -0.000359 0
-0.001647 -0.000334 0
-0.001559 -0.000312 0
-0.001474 -0.000294 0
-0.001392 -0.000278 0
-0.001312 -0.000264 0
-0.001234 -0.000253 0
-0.001158 -0.000243 0
-0.001084 -0.000234 0
-0.001012 -0.000227 0
-0.000941 -0.000221 0
-0.000872 -0.000217 0
-0.000803 -0.000215 0
-0.000735 -0.000215 0
-0.000667 -0.000218 0
-0.000599 -0.000224 0
-0.000529 -0.000232 0
-0.000456 -0.000242 0
-0.000381 -0.000251 0
-0.000303 -0.000256 0
-0.000224 -0.000250 0
-0.000147 -0.000228 0
-0.000077 -0.000182 0
-0.000024 -0.000106 0
0.000000 -0.000030 0
0.000000 0.000000 0
0.000000 0.000000 0
0.000000 0.000000 0
0.000000 0.000283 0
-0.000057 0.000809 0
-0.000190 0.001084 0
-0.000360 0.001042 0
-0.000535 0.000865 0
-0.000697 0.000669 0
-0.000838 0.000505 0
-0.000958 0.000385 0
-0.001060 0.000302 0
-0.001149 0.000246 0
-0.001228 0.000209 0
-0.001299 0.000182 0
-0.001364 0.000162 0
-0.001424 0.000146 0
-0.001480 0.000133 0
-0.001532 0.000122 0
-0.001580 0.000112 0
-0.001625 0.000104 0
-0.001666 0.000096 0
-0.001704 0.000089 0
-0.001740 0.000083 0
-0.001772 0.000078 0
-0.001803 0.000073 0
-0.001831 0.000069 0
-0.001857 0.000065 0
-0.001883 0.000061 0
-0.001906 0.000057 0
-0.001929 0.000054 0
-0.001950 0.000050 0
-0.001971 0.000047 0
-0.001990 0.000044 0
-0.002009 0.000042 0
-0.002027 0.000040 0
-0.002044 0.000039 0
-0.002060 0.000039 0
-0.002076 0.000038 0
-0.002092 0.000036 0
-0.002107 0.000030 0
-0.002121 0.000020 0
-0.002132 0.000003 0
-0.002140 -0.000021 0
-0.002143 -0.000050 0
-0.002141 -0.000079 0
-0.002134 -0.000098 0
-0.002126 -0.000093 0
-0.002123 -0.000048 0
-0.002133 0.000051 0
-0.002168 0.000205 0
-0.002235 0.000400 0
-0.002338 0.000593 0
-0.002467 0.000716 0
-0.002594 0.000675 0
-0.002668 0.000371 0
-0.002623 -0.000269 0
-0.002388 -0.001243 0
-0.001916 -0.002382 0
-0.001227 -0.003234 0
-0.000467 -0.002910 0
0.000000 -0.001156 0
0.000000 0.001876 0
-0.000289 0.003746 0
-0.000840 0.002947 0
-0.001349 0.001523 0
-0.001711 0.000518 0
-0.001927 -0.000052 0
-0.002031 -0.000341 0
-0.002059 -0.000470 0
-0.002037 -0.000515 0
-0.001986 -0.000517 0
-0.001918 -0.000499 0
-0.001841 -0.000473 0
-0.001760 -0.000446 0
-0.001677 -0.000420 0
-0.001594 -0.000397 0
-0.001512 -0.000377 0
-0.001432 -0.000359 0
-0.001352 -0.000344 0
-0.001274 -0.000331 0
-0.001197 -0.000319 0
-0.001121 -0.000309 0
-0.001047 -0.000300 0
-0.000974 -0.000293 0
-0.000902 -0.000288 0
-0.000831 -0.000285 0
-0.000761 -0.000285 0
-0.000691 -0.000288 0
-0.000621 -0.000295 0
-0.000549 -0.000305 0
-0.000476 -0.000317 0
-0.000400 -0.000329 0
-0.000320 -0.000336 0
-0.000239 -0.000331 0
-0.000158 -0.000304 0
-0.000084 -0.000246 0
-0.000026 -0.000147 0
0.000000 -0.000043 0
0.000000 0.000000 0
0.000000 0.000000 0
0.000000 0.000000 0
0.000000 0.000301 0
-0.000021 0.000877 0
-0.000088 0.001202 0
-0.000189 0.001184 0
-0.000306 0.001011 0
-0.000425 0.000805 0
-0.000535 0.000626 0
-0.000634 0.000490 0
-0.000724 0.000395 0
-0.000806 0.000330 0
-0.000883 0.000285 0
-0.000956 0.000253 0
-0.001025 0.000228 0
-0.001091 0.000208 0
-0.001154 0.000191 0
-0.001213 0.000176 0
-0.001269 0.000163 0
-0.001322 0.000151 0
-0.001372 0.000140 0
-0.001418 0.000130 0
-0.001460 0.000121 0
-0.001500 0.000112 0
-0.001537 0.000105 0
-0.001571 0.000099 0
-0.001603 0.000093 0
-0.001633 0.000088 0
-0.001662 0.000083 0
-0.001690 0.000078 0
-0.001717 0.000074 0
-0.001743 0.000070 0
-0.001768 0.000066 0
-0.001792 0.000063 0
-0.001816 0.000060 0
-0.001838 0.000058 0
-0.001860 0.000057 0
-0.001882 0.000056 0
-0.001903 0.000053 0
-0.001924 0.000048 0
-0.001944 0.000036 0
-0.001964 0.000017 0
-0.001981 -0.000011 0
-0.001995 -0.000044 0
-0.002005 -0.000078 0
-0.002012 -0.000099 0
-0.002017 -0.000093 0
-0.002024 -0.000040 0
-0.002040 0.000074 0
-0.002074 0.000254 0
-0.002132 0.000479 0
-0.002219 0.000700 0
-0.002324 0.000831 0
-0.002425 0.000763 0
-0.002478 0.000376 0
-0.002422 -0.000413 0
-0.002195 -0.001591 0
-0.001755 -0.002946 0
-0.001121 -0.003932 0
-0.000426 -0.003499 0
0.000000 -0.001380 0
0.000000 0.002006 0
-0.000237 0.004134 0
-0.000723 0.003451 0
-0.001194 0.001949 0
-0.001545 0.000811 0
-0.001769 0.000119 0
-0.001891 -0.000262 0
-0.001938 -0.000455 0
-0.001936 -0.000540 0
-0.001902 -0.000567 0
-0.001849 -0.000564 0
-0.001785 -0.000546 0
-0.001715 -0.000523 0
-0.001641 -0.000499 0
-0.001565 -0.000477 0
-0.001489 -0.000456 0
-0.001413 -0.000438 0
-0.001337 -0.000422 0
-0.001262 -0.000408 0
-0.001187 -0.000395 0
-0.001113 -0.000384 0
-0.001040 -0.000374 0
-0.000967 -0.000366 0
-0.000896 -0.000360 0
-0.000826 -0.000356 0
-0.000756 -0.000355 0
-0.000687 -0.000358 0
-0.000618 -0.000366 0
-0.000548 -0.000377 0
-0.000477 -0.000392 0
-0.000402 -0.000407 0
-0.000325 -0.000416 0
-0.000244 -0.000412 0
-0.000163 -0.000383 0
-0.000087 -0.000314 0
-0.000028 -0.000190 0
0.000000 -0.000056 0
0.000000 0.000000 0
0.000000 0.000000 0
0.000000 0.000000 0
0.000000 0.000303 0
0.000008 0.000896 0
0.000000 0.001252 0
-0.000033 0.001260 0
-0.000088 0.001100 0
-0.000155 0.000897 0
-0.000225 0.000715 0
-0.000295 0.000574 0
-0.000363 0.000474 0
-0.000430 0.000406 0
-0.000497 0.000358 0
-0.000564 0.000323 0
-0.000631 0.000297 0
-0.000697 0.000274 0
-0.000762 0.000255 0
-0.000826 0.000238 0
-0.000888 0.000221 0
-0.000948 0.000206 0
-0.001005 0.000191 0
-0.001058 0.000178 0
-0.001109 0.000165 0
-0.001156 0.000154 0
-0.001199 0.000144 0
-0.001239 0.000135 0
-0.001277 0.000127 0
-0.001312 0.000120 0
-0.001346 0.000114 0
-0.001379 0.000108 0
-0.001411 0.000103 0
-0.001443 0.000098 0
-0.001474 0.000093 0
-0.001504 0.000089 0
-0.001534 0.000086 0
-0.001562 0.000084 0
-0.001590 0.000082 0
-0.001618 0.000080 0
-0.001646 0.000078 0
-0.001673 0.000072 0
-0.001701 0.000060 0
-0.001729 0.000040 0
-0.001757 0.000011 0
-0.001783 -0.000026 0
-0.001807 -0.000063 0
-0.001827 -0.000087 0
-0.001846 -0.000081 0
-0.001864 -0.000024 0
-0.001886 0.000101 0
-0.001919 0.000297 0
-0.001968 0.000544 0
-0.002036 0.000785 0
-0.002118 0.000922 0
-0.002194 0.000828 0
-0.002229 0.000368 0
-0.002171 -0.000552 0
-0.001964 -0.001909 0
-0.001573 -0.003456 0
-0.001007 -0.004563 0
-0.000384 -0.004032 0
0.000000 -0.001582 0
0.000000 0.002114 0
-0.000199 0.004470 0
-0.000627 0.003904 0
-0.001058 0.002346 0
-0.001388 0.001094 0
-0.001606 0.000293 0
-0.001730 -0.000172 0
-0.001785 -0.000425 0
-0.001793 -0.000551 0
-0.001771 -0.000603 0
-0.001729 -0.000615 0
-0.001676 -0.000607 0
-0.001616 -0.000590 0
-0.001552 -0.000569 0
-0.001485 -0.000548 0
-0.001417 -0.000529 0
-0.001348 -0.000511 0
-0.001278 -0.000495 0
-0.001208 -0.000481 0
-0.001137 -0.000468 0
-0.001067 -0.000456 0
-0.000997 -0.000446 0
-0.000928 -0.000437 0
-0.000859 -0.000430 0
-0.000792 -0.000425 0
-0.000725 -0.000423 0
-0.000659 -0.000426 0
-0.000593 -0.000433 0
-0.000528 -0.000446 0
-0.000460 -0.000463 0
-0.000391 -0.000481 0
-0.000317 -0.000494 0
-0.000241 -0.000492 0
-0.000162 -0.000461 0
-0.000088 -0.000382 0
-0.000028 -0.000234 0
0.000000 -0.000070 0
0.000000 0.000000 0
0.000000 0.000000 0
0.000000 0.000000 0
0.000000 0.000293 0
0.000029 0.000876 0
0.000070 0.001242 0
0.000097 0.001272 0
0.000102 0.001132 0
0.000087 0.000942 0
0.000060 0.000765 0
0.000024 0.000628 0
-0.000016 0.000531 0
-0.000062 0.000464 0
-0.000112 0.000419 0
-0.000166 0.000386 0
-0.000224 0.000361 0
-0.000285 0.000340 0
-0.000348 0.000320 0
-0.000412 0.000302 0
-0.000476 0.000285 0
-0.000541 0.000267 0
-0.000604 0.000250 0
-0.000665 0.000234 0
-0.000723 0.000218 0
-0.000778 0.000202 0
-0.000828 0.000189 0
-0.000875 0.000176 0
-0.000919 0.000166 0
-0.000959 0.000157 0
-0.000998 0.000150 0
-0.001035 0.000143 0
-0.001072 0.000137 0
-0.001109 0.000132 0
-0.001145 0.000127 0
-0.001181 0.000122 0
-0.001216 0.000118 0
-0.001251 0.000115 0
-0.001286 0.000113 0
-0.001320 0.000111 0
-0.001353 0.000108 0
-0.001388 0.000103 0
-0.001423 0.000092 0
-0.001459 0.000072 0
-0.001496 0.000043 0
-0.001534 0.000005 0
-0.001571 -0.000034 0
-0.001605 -0.000061 0
-0.001637 -0.000057 0
-0.001666 0.000000 0
-0.001695 0.000129 0
-0.001727 0.000335 0
-0.001767 0.000596 0
-0.001819 0.000850 0
-0.001878 0.000989 0
-0.001932 0.000873 0
-0.001952 0.000352 0
-0.001897 -0.000678 0
-0.001719 -0.002189 0
-0.001382 -0.003903 0
-0.000890 -0.005121 0
-0.000342 -0.004506 0
0.000000 -0.001764 0
0.000000 0.002205 0
-0.000168 0.004762 0
-0.000547 0.004310 0
-0.000938 0.002710 0
-0.001243 0.001359 0
-0.001446 0.000461 0
-0.001563 -0.000083 0
-0.001617 -0.000391 0
-0.001627 -0.000554 0
-0.001610 -0.000630 0
-0.001576 -0.000658 0
-0.001532 -0.000659 0
-0.001481 -0.000647 0
-0.001426 -0.000630 0
-0.001368 -0.000611 0
-0.001308 -0.000594 0
-0.001247 -0.000577 0
-0.001184 -0.000562 0
-0.001120 -0.000548 0
-0.001056 -0.000536 0
-0.000991 -0.000524 0
-0.000927 -0.000513 0
-0.000862 -0.000504 0
-0.000798 -0.000496 0
-0.000735 -0.000490 0
-0.000673 -0.000487 0
-0.000612 -0.000489 0
-0.000551 -0.000497 0
-0.000491 -0.000510 0
-0.000430 -0.000529 0
-0.000367 -0.000550 0
-0.000300 -0.000566 0
-0.000229 -0.000567 0
-0.000156 -0.000535 0
-0.000085 -0.000448 0
-0.000027 -0.000278 0
0.000000 -0.000084 0
0.000000 0.000000 0
0.000000 0.000000 0
0.000000 0.000000 0
0.000000 0.000274 0
0.000044 0.000826 0
0.000122 0.001184 0
0.000197 0.001229 0
0.000253 0.001110 0