# vtk DataFile Version 2.0
generated by CFD-lab course output (written by Tobias Neckel) 
ASCII

DATASET STRUCTURED_GRID
DIMENSIONS  99 49 1 
POINTS 4851 float

0.000000 0.000000 0
0.020000 0.000000 0
0.040000 0.000000 0
0.060000 0.000000 0
0.080000 0.000000 0
0.100000 0.000000 0
0.120000 0.000000 0
0.140000 0.000000 0
0.160000 0.000000 0
0.180000 0.000000 0
0.200000 0.000000 0
0.220000 0.000000 0
0.240000 0.000000 0
0.260000 0.000000 0
0.280000 0.000000 0
0.300000 0.000000 0
0.320000 0.000000 0
0.340000 0.000000 0
0.360000 0.000000 0
0.380000 0.000000 0
0.400000 0.000000 0
0.420000 0.000000 0
0.440000 0.000000 0
0.460000 0.000000 0
0.480000 0.000000 0
0.500000 0.000000 0
0.520000 0.000000 0
0.540000 0.000000 0
0.560000 0.000000 0
0.580000 0.000000 0
0.600000 0.000000 0
0.620000 0.000000 0
0.640000 0.000000 0
0.660000 0.000000 0
0.680000 0.000000 0
0.700000 0.000000 0
0.720000 0.000000 0
0.740000 0.000000 0
0.760000 0.000000 0
0.780000 0.000000 0
0.800000 0.000000 0
0.820000 0.000000 0
0.840000 0.000000 0
0.860000 0.000000 0
0.880000 0.000000 0
0.900000 0.000000 0
0.920000 0.000000 0
0.940000 0.000000 0
0.960000 0.000000 0
0.980000 0.000000 0
1.000000 0.000000 0
1.020000 0.000000 0
1.040000 0.000000 0
1.060000 0.000000 0
1.080000 0.000000 0
1.100000 0.000000 0
1.120000 0.000000 0
1.140000 0.000000 0
1.160000 0.000000 0
1.180000 0.000000 0
1.200000 0.000000 0
1.220000 0.000000 0
1.240000 0.000000 0
1.260000 0.000000 0
1.280000 0.000000 0
1.300000 0.000000 0
1.320000 0.000000 0
1.340000 0.000000 0
1.360000 0.000000 0
1.380000 0.000000 0
1.400000 0.000000 0
1.420000 0.000000 0
1.440000 0.000000 0
1.460000 0.000000 0
1.480000 0.000000 0
1.500000 0.000000 0
1.520000 0.000000 0
1.540000 0.000000 0
1.560000 0.000000 0
1.580000 0.000000 0
1.600000 0.000000 0
1.620000 0.000000 0
1.640000 0.000000 0
1.660000 0.000000 0
1.680000 0.000000 0
1.700000 0.000000 0
1.720000 0.000000 0
1.740000 0.000000 0
1.760000 0.000000 0
1.780000 0.000000 0
1.800000 0.000000 0
1.820000 0.000000 0
1.840000 0.000000 0
1.860000 0.000000 0
1.880000 0.000000 0
1.900000 0.000000 0
1.920000 0.000000 0
1.940000 0.000000 0
1.960000 0.000000 0
0.000000 0.020000 0
0.020000 0.020000 0
0.040000 0.020000 0
0.060000 0.020000 0
0.080000 0.020000 0
0.100000 0.020000 0
0.120000 0.020000 0
0.140000 0.020000 0
0.160000 0.020000 0
0.180000 0.020000 0
0.200000 0.020000 0
0.220000 0.020000 0
0.240000 0.020000 0
0.260000 0.020000 0
0.280000 0.020000 0
0.300000 0.020000 0
0.320000 0.020000 0
0.340000 0.020000 0
0.360000 0.020000 0
0.380000 0.020000 0
0.400000 0.020000 0
0.420000 0.020000 0
0.440000 0.020000 0
0.460000 0.020000 0
0.480000 0.020000 0
0.500000 0.020000 0
0.520000 0.020000 0
0.540000 0.020000 0
0.560000 0.020000 0
0.580000 0.020000 0
0.600000 0.020000 0
0.620000 0.020000 0
0.640000 0.020000 0
0.660000 0.020000 0
0.680000 0.020000 0
0.700000 0.020000 0
0.720000 0.020000 0
0.740000 0.020000 0
0.760000 0.020000 0
0.780000 0.020000 0
0.800000 0.020000 0
0.820000 0.020000 0
0.840000 0.020000 0
0.860000 0.020000 0
0.880000 0.020000 0
0.900000 0.020000 0
0.920000 0.020000 0
0.940000 0.020000 0
0.960000 0.020000 0
0.980000 0.020000 0
1.000000 0.020000 0
1.020000 0.020000 0
1.040000 0.020000 0
1.060000 0.020000 0
1.080000 0.020000 0
1.100000 0.020000 0
1.120000 0.020000 0
1.140000 0.020000 0
1.160000 0.020000 0
1.180000 0.020000 0
1.200000 0.020000 0
1.220000 0.020000 0
1.240000 0.020000 0
1.260000 0.020000 0
1.280000 0.020000 0
1.300000 0.020000 0
1.320000 0.020000 0
1.340000 0.020000 0
1.360000 0.020000 0
1.380000 0.020000 0
1.400000 0.020000 0
1.420000 0.020000 0
1.440000 0.020000 0
1.460000 0.020000 0
1.480000 0.020000 0
1.500000 0.020000 0
1.520000 0.020000 0
1.540000 0.020000 0
1.560000 0.020000 0
1.580000 0.020000 0
1.600000 0.020000 0
1.620000 0.020000 0
1.640000 0.020000 0
1.660000 0.020000 0
1.680000 0.020000 0
1.700000 0.020000 0
1.720000 0.020000 0
1.740000 0.020000 0
1.760000 0.020000 0
1.780000 0.020000 0
1.800000 0.020000 0
1.820000 0.020000 0
1.840000 0.020000 0
1.860000 0.020000 0
1.880000 0.020000 0
1.900000 0.020000 0
1.920000 0.020000 0
1.940000 0.020000 0
1.960000 0.020000 0
0.000000 0.040000 0
0.020000 0.040000 0
0.040000 0.040000 0
0.060000 0.040000 0
0.080000 0.040000 0
0.100000 0.040000 0
0.120000 0.040000 0
0.140000 0.040000 0
0.160000 0.040000 0
0.180000 0.040000 0
0.200000 0.040000 0
0.220000 0.040000 0
0.240000 0.040000 0
0.260000 0.040000 0
0.280000 0.040000 0
0.300000 0.040000 0
0.320000 0.040000 0
0.340000 0.040000 0
0.360000 0.040000 0
0.380000 0.040000 0
0.400000 0.040000 0
0.420000 0.040000 0
0.440000 0.040000 0
0.460000 0.040000 0
0.480000 0.040000 0
0.500000 0.040000 0
0.520000 0.040000 0
0.540000 0.040000 0
0.560000 0.040000 0
0.580000 0.040000 0
0.600000 0.040000 0
0.620000 0.040000 0
0.640000 0.040000 0
0.660000 0.040000 0
0.680000 0.040000 0
0.700000 0.040000 0
0.720000 0.040000 0
0.740000 0.040000 0
0.760000 0.040000 0
0.780000 0.040000 0
0.800000 0.040000 0
0.820000 0.040000 0
0.840000 0.040000 0
0.860000 0.040000 0
0.880000 0.040000 0
0.900000 0.040000 0
0.920000 0.040000 0
0.940000 0.040000 0
0.960000 0.040000 0
0.980000 0.040000 0
1.000000 0.040000 0
1.020000 0.040000 0
1.040000 0.040000 0
1.060000 0.040000 0
1.080000 0.040000 0
1.100000 0.040000 0
1.120000 0.040000 0
1.140000 0.040000 0
1.160000 0.040000 0
1.180000 0.040000 0
1.200000 0.040000 0
1.220000 0.040000 0
1.240000 0.040000 0
1.260000 0.040000 0
1.280000 0.040000 0
1.300000 0.040000 0
1.320000 0.040000 0
1.340000 0.040000 0
1.360000 0.040000 0
1.380000 0.040000 0
1.400000 0.040000 0
1.420000 0.040000 0
1.440000 0.040000 0
1.460000 0.040000 0
1.480000 0.040000 0
1.500000 0.040000 0
1.520000 0.040000 0
1.540000 0.040000 0
1.560000 0.040000 0
1.580000 0.040000 0
1.600000 0.040000 0
1.620000 0.040000 0
1.640000 0.040000 0
1.660000 0.040000 0
1.680000 0.040000 0
1.700000 0.040000 0
1.720000 0.040000 0
1.740000 0.040000 0
1.760000 0.040000 0
1.780000 0.040000 0
1.800000 0.040000 0
1.820000 0.040000 0
1.840000 0.040000 0
1.860000 0.040000 0
1.880000 0.040000 0
1.900000 0.040000 0
1.920000 0.040000 0
1.940000 0.040000 0
1.960000 0.040000 0
0.000000 0.060000 0
0.020000 0.060000 0
0.040000 0.060000 0
0.060000 0.060000 0
0.080000 0.060000 0
0.100000 0.060000 0
0.120000 0.060000 0
0.140000 0.060000 0
0.160000 0.060000 0
0.180000 0.060000 0
0.200000 0.060000 0
0.220000 0.060000 0
0.240000 0.060000 0
0.260000 0.060000 0
0.280000 0.060000 0
0.300000 0.060000 0
0.320000 0.060000 0
0.340000 0.060000 0
0.360000 0.060000 0
0.380000 0.060000 0
0.400000 0.060000 0
0.420000 0.060000 0
0.440000 0.060000 0
0.460000 0.060000 0
0.480000 0.060000 0
0.500000 0.060000 0
0.520000 0.060000 0
0.540000 0.060000 0
0.560000 0.060000 0
0.580000 0.060000 0
0.600000 0.060000 0
0.620000 0.060000 0
0.640000 0.060000 0
0.660000 0.060000 0
0.680000 0.060000 0
0.700000 0.060000 0
0.720000 0.060000 0
0.740000 0.060000 0
0.760000 0.060000 0
0.780000 0.060000 0
0.800000 0.060000 0
0.820000 0.060000 0
0.840000 0.060000 0
0.860000 0.060000 0
0.880000 0.060000 0
0.900000 0.060000 0
0.920000 0.060000 0
0.940000 0.060000 0
0.960000 0.060000 0
0.980000 0.060000 0
1.000000 0.060000 0
1.020000 0.060000 0
1.040000 0.060000 0
1.060000 0.060000 0
1.080000 0.060000 0
1.100000 0.060000 0
1.120000 0.060000 0
1.140000 0.060000 0
1.160000 0.060000 0
1.180000 0.060000 0
1.200000 0.060000 0
1.220000 0.060000 0
1.240000 0.060000 0
1.260000 0.060000 0
1.280000 0.060000 0
1.300000 0.060000 0
1.320000 0.060000 0
1.340000 0.060000 0
1.360000 0.060000 0
1.380000 0.060000 0
1.400000 0.060000 0
1.420000 0.060000 0
1.440000 0.060000 0
1.460000 0.060000 0
1.480000 0.060000 0
1.500000 0.060000 0
1.520000 0.060000 0
1.540000 0.060000 0
1.560000 0.060000 0
1.580000 0.060000 0
1.600000 0.060000 0
1.620000 0.060000 0
1.640000 0.060000 0
1.660000 0.060000 0
1.680000 0.060000 0
1.700000 0.060000 0
1.720000 0.060000 0
1.740000 0.060000 0
1.760000 0.060000 0
1.780000 0.060000 0
1.800000 0.060000 0
1.820000 0.060000 0
1.840000 0.060000 0
1.860000 0.060000 0
1.880000 0.060000 0
1.900000 0.060000 0
1.920000 0.060000 0
1.940000 0.060000 0
1.960000 0.060000 0
0.000000 0.080000 0
0.020000 0.080000 0
0.040000 0.080000 0
0.060000 0.080000 0
0.080000 0.080000 0
0.100000 0.080000 0
0.120000 0.080000 0
0.140000 0.080000 0
0.160000 0.080000 0
0.180000 0.080000 0
0.200000 0.080000 0
0.220000 0.080000 0
0.240000 0.080000 0
0.260000 0.080000 0
0.280000 0.080000 0
0.300000 0.080000 0
0.320000 0.080000 0
0.340000 0.080000 0
0.360000 0.080000 0
0.380000 0.080000 0
0.400000 0.080000 0
0.420000 0.080000 0
0.440000 0.080000 0
0.460000 0.080000 0
0.480000 0.080000 0
0.500000 0.080000 0
0.520000 0.080000 0
0.540000 0.080000 0
0.560000 0.080000 0
0.580000 0.080000 0
0.600000 0.080000 0
0.620000 0.080000 0
0.640000 0.080000 0
0.660000 0.080000 0
0.680000 0.080000 0
0.700000 0.080000 0
0.720000 0.080000 0
0.740000 0.080000 0
0.760000 0.080000 0
0.780000 0.080000 0
0.800000 0.080000 0
0.820000 0.080000 0
0.840000 0.080000 0
0.860000 0.080000 0
0.880000 0.080000 0
0.900000 0.080000 0
0.920000 0.080000 0
0.940000 0.080000 0
0.960000 0.080000 0
0.980000 0.080000 0
1.000000 0.080000 0
1.020000 0.080000 0
1.040000 0.080000 0
1.060000 0.080000 0
1.080000 0.080000 0
1.100000 0.080000 0
1.120000 0.080000 0
1.140000 0.080000 0
1.160000 0.080000 0
1.180000 0.080000 0
1.200000 0.080000 0
1.220000 0.080000 0
1.240000 0.080000 0
1.260000 0.080000 0
1.280000 0.080000 0
1.300000 0.080000 0
1.320000 0.080000 0
1.340000 0.080000 0
1.360000 0.080000 0
1.380000 0.080000 0
1.400000 0.080000 0
1.420000 0.080000 0
1.440000 0.080000 0
1.460000 0.080000 0
1.480000 0.080000 0
1.500000 0.080000 0
1.520000 0.080000 0
1.540000 0.080000 0
1.560000 0.080000 0
1.580000 0.080000 0
1.600000 0.080000 0
1.620000 0.080000 0
1.640000 0.080000 0
1.660000 0.080000 0
1.680000 0.080000 0
1.700000 0.080000 0
1.720000 0.080000 0
1.740000 0.080000 0
1.760000 0.080000 0
1.780000 0.080000 0
1.800000 0.080000 0
1.820000 0.080000 0
1.840000 0.080000 0
1.860000 0.080000 0
1.880000 0.080000 0
[...]
POINT_DATA 4851 

VECTORS velocity float
0.000000 0.000000 0
-0.000364 0.000000 0
-0.000500 0.000000 0
-0.000468 0.000000 0
-0.000395 0.000000 0
-0.000329 0.000000 0
-0.000280 0.000000 0
-0.000243 0.000000 0
-0.000216 0.000000 0
-0.000195 0.000000 0
-0.000179 0.000000 0
-0.000165 0.000000 0
-0.000153 0.000000 0
-0.000142 0.000000 0
-0.000132 0.000000 0
-0.000123 0.000000 0
-0.000115 0.000000 0
-0.000107 0.000000 0
-0.000100 0.000000 0
-0.000093 0.000000 0
-0.000087 0.000000 0
-0.000081 0.000000 0
-0.000075 0.000000 0
-0.000069 0.000000 0
-0.000063 0.000000 0
-0.000058 0.000000 0
-0.000053 0.000000 0
-0.000048 0.000000 0
-0.000043 0.000000 0
-0.000038 0.000000 0
-0.000034 0.000000 0
-0.000029 0.000000 0
-0.000023 0.000000 0
-0.000016 0.000000 0
-0.000009 0.000000 0
-0.000003 0.000000 0
0.000000 0.000000 0
0.000000 0.000000 0
0.000000 0.000000 0
0.000000 0.000000 0
0.000000 0.000000 0
-0.000015 0.000000 0
-0.000048 0.000000 0
-0.000084 0.000000 0
-0.000114 0.000000 0
-0.000136 0.000000 0
-0.000150 0.000000 0
-0.000159 0.000000 0
-0.000165 0.000000 0
-0.000169 0.000000 0
-0.000172 0.000000 0
-0.000174 0.000000 0
-0.000176 0.000000 0
-0.000178 0.000000 0
-0.000179 0.000000 0
-0.000181 0.000000 0
-0.000182 0.000000 0
-0.000184 0.000000 0
-0.000185 0.000000 0
-0.000186 0.000000 0
-0.000188 0.000000 0
-0.000189 0.000000 0
-0.000190 0.000000 0
-0.000191 0.000000 0
-0.000192 0.000000 0
-0.000193 0.000000 0
-0.000194 0.000000 0
-0.000195 0.000000 0
-0.000196 0.000000 0
-0.000196 0.000000 0
-0.000197 0.000000 0
-0.000198 0.000000 0
-0.000199 0.000000 0
-0.000200 0.000000 0
-0.000201 0.000000 0
-0.000202 0.000000 0
-0.000202 0.000000 0
-0.000203 0.000000 0
-0.000204 0.000000 0
-0.000204 0.000000 0
-0.000204 0.000000 0
-0.000203 0.000000 0
-0.000202 0.000000 0
-0.000201 0.000000 0
-0.000199 0.000000 0
-0.000199 0.000000 0
-0.000201 0.000000 0
-0.000206 0.000000 0
-0.000216 0.000000 0
-0.000230 0.000000 0
-0.000249 0.000000 0
-0.000270 0.000000 0
-0.000288 0.000000 0
-0.000295 0.000000 0
-0.000282 0.000000 0
-0.000238 0.000000 0
-0.000160 0.000000 0
-0.000063 0.000000 0
0.000000 0.000000 0
0.000000 0.000364 0
-0.000726 0.000500 0
-0.001156 0.000105 0
-0.001222 -0.000103 0
-0.001131 -0.000138 0
-0.001007 -0.000115 0
-0.000892 -0.000086 0
-0.000797 -0.000063 0
-0.000720 -0.000047 0
-0.000658 -0.000037 0
-0.000605 -0.000030 0
-0.000561 -0.000025 0
-0.000521 -0.000022 0
-0.000486 -0.000020 0
-0.000454 -0.000018 0
-0.000424 -0.000016 0
-0.000397 -0.000015 0
-0.000371 -0.000014 0
-0.000347 -0.000013 0
-0.000324 -0.000013 0
-0.000301 -0.000012 0
-0.000280 -0.000012 0
-0.000259 -0.000011 0
-0.000239 -0.000011 0
-0.000220 -0.000010 0
-0.000201 -0.000010 0
-0.000183 -0.000010 0
-0.000165 -0.000009 0
-0.000148 -0.000009 0
-0.000131 -0.000009 0
-0.000114 -0.000009 0
-0.000096 -0.000010 0
-0.000077 -0.000011 0
-0.000054 -0.000013 0
-0.000031 -0.000013 0
-0.000010 -0.000009 0
0.000000 -0.000002 0
0.000000 0.000000 0
0.000000 0.000000 0
0.000000 0.000000 0
0.000000 0.000015 0
-0.000047 0.000048 0
-0.000142 0.000069 0
-0.000246 0.000065 0
-0.000337 0.000051 0
-0.000408 0.000035 0
-0.000460 0.000023 0
-0.000495 0.000014 0
-0.000521 0.000009 0
-0.000539 0.000006 0
-0.000552 0.000005 0
-0.000564 0.000004 0
-0.000573 0.000003 0
-0.000581 0.000003 0
-0.000589 0.000003 0
-0.000596 0.000003 0
-0.000602 0.000002 0
-0.000608 0.000002 0
-0.000613 0.000002 0
-0.000618 0.000002 0
-0.000623 0.000002 0
-0.000628 0.000002 0
-0.000632 0.000002 0
-0.000636 0.000002 0
-0.000639 0.000002 0
-0.000643 0.000001 0
-0.000647 0.000001 0
-0.000650 0.000001 0
-0.000653 0.000001 0
-0.000656 0.000001 0
-0.000659 0.000001 0
-0.000662 0.000001 0
-0.000664 0.000001 0
-0.000667 0.000001 0
-0.000670 0.000001 0
-0.000672 0.000001 0
-0.000675 0.000001 0
-0.000676 0.000001 0
-0.000677 0.000000 0
-0.000678 -0.000000 0
-0.000676 -0.000001 0
-0.000674 -0.000002 0
-0.000670 -0.000003 0
-0.000666 -0.000003 0
-0.000663 -0.000002 0
-0.000664 0.000001 0
-0.000671 0.000007 0
-0.000687 0.000014 0
-0.000716 0.000024 0
-0.000759 0.000033 0
-0.000811 0.000039 0
-0.000864 0.000038 0
-0.000903 0.000025 0
-0.000906 -0.000006 0
-0.000845 -0.000057 0
-0.000697 -0.000122 0
-0.000459 -0.000175 0
-0.000180 -0.000161 0
0.000000 -0.000064 0
0.000000 0.000727 0
-0.000627 0.001157 0
-0.001233 0.000496 0
-0.001510 -0.000023 0
-0.001549 -0.000214 0
-0.001479 -0.000239 0
-0.001373 -0.000209 0
-0.001264 -0.000171 0
-0.001166 -0.000138 0
-0.001079 -0.000114 0
-0.001002 -0.000096 0
-0.000934 -0.000083 0
-0.000873 -0.000074 0
-0.000817 -0.000066 0
-0.000766 -0.000061 0
-0.000718 -0.000056 0
-0.000673 -0.000052 0
-0.000631 -0.000049 0
-0.000590 -0.000047 0
-0.000551 -0.000045 0
-0.000514 -0.000043 0
-0.000478 -0.000041 0
-0.000443 -0.000040 0
-0.000409 -0.000039 0
-0.000376 -0.000037 0
-0.000344 -0.000036 0
-0.000313 -0.000035 0
-0.000282 -0.000034 0
-0.000252 -0.000033 0
-0.000222 -0.000033 0
-0.000192 -0.000034 0
-0.000160 -0.000037 0
-0.000126 -0.000041 0
-0.000089 -0.000045 0
-0.000051 -0.000043 0
-0.000018 -0.000030 0
0.000000 -0.000010 0
0.000000 0.000000 0
0.000000 0.000000 0
0.000000 0.000000 0
0.000000 0.000047 0
-0.000068 0.000141 0
-0.000197 0.000198 0
-0.000344 0.000195 0
-0.000480 0.000162 0
-0.000593 0.000122 0
-0.000681 0.000087 0
-0.000747 0.000060 0
-0.000796 0.000043 0
-0.000834 0.000031 0
-0.000864 0.000024 0
-0.000888 0.000020 0
-0.000909 0.000017 0
-0.000927 0.000015 0
-0.000943 0.000014 0
-0.000958 0.000013 0
-0.000971 0.000012 0
-0.000983 0.000011 0
-0.000994 0.000010 0
-0.001004 0.000009 0
-0.001013 0.000009 0
-0.001022 0.000008 0
-0.001030 0.000008 0
-0.001038 0.000007 0
-0.001045 0.000007 0
-0.001052 0.000006 0
-0.001058 0.000006 0
-0.001064 0.000006 0
-0.001069 0.000006 0
-0.001075 0.000005 0
-0.001080 0.000005 0
-0.001084 0.000005 0
-0.001089 0.000005 0
-0.001093 0.000005 0
-0.001097 0.000005 0
-0.001101 0.000004 0
-0.001104 0.000004 0
-0.001106 0.000002 0
-0.001108 0.000001 0
-0.001107 -0.000002 0
-0.001105 -0.000004 0
-0.001100 -0.000007 0
-0.001094 -0.000008 0
-0.001088 -0.000008 0
-0.001084 -0.000003 0
-0.001086 0.000007 0
-0.001097 0.000023 0
-0.001122 0.000045 0
-0.001164 0.000071 0
-0.001223 0.000094 0
-0.001291 0.000105 0
-0.001355 0.000092 0
-0.001391 0.000042 0
-0.001367 -0.000058 0
-0.001247 -0.000210 0
-0.001005 -0.000387 0
-0.000648 -0.000518 0
-0.000251 -0.000459 0
0.000000 -0.000180 0
0.000000 0.000992 0
-0.000445 0.001734 0
-0.001035 0.000988 0
-0.001418 0.000213 0
-0.001578 -0.000169 0
-0.001596 -0.000292 0
-0.001544 -0.000299 0
-0.001465 -0.000269 0
-0.001379 -0.000233 0
-0.001295 -0.000200 0
-0.001216 -0.000174 0
-0.001143 -0.000154 0
-0.001075 -0.000139 0
-0.001012 -0.000126 0
-0.000952 -0.000117 0
-0.000896 -0.000109 0
-0.000842 -0.000102 0
-0.000791 -0.000097 0
-0.000742 -0.000092 0
-0.000694 -0.000088 0
-0.000648 -0.000085 0
-0.000603 -0.000082 0
-0.000560 -0.000080 0
-0.000517 -0.000077 0
-0.000476 -0.000075 0
-0.000435 -0.000073 0
-0.000395 -0.000071 0
-0.000356 -0.000069 0
-0.000317 -0.000068 0
-0.000279 -0.000068 0
-0.000239 -0.000071 0
-0.000199 -0.000075 0
-0.000155 -0.000082 0
-0.000110 -0.000088 0
-0.000063 -0.000084 0
-0.000022 -0.000059 0
0.000000 -0.000020 0
0.000000 0.000000 0
0.000000 0.000000 0
0.000000 0.000000 0
0.000000 0.000082 0
-0.000066 0.000245 0
-0.000197 0.000345 0
-0.000350 0.000347 0
-0.000499 0.000300 0
-0.000628 0.000236 0
-0.000735 0.000177 0
-0.000820 0.000130 0
-0.000888 0.000096 0
-0.000942 0.000074 0
-0.000986 0.000059 0
-0.001022 0.000049 0
-0.001054 0.000042 0
-0.001082 0.000037 0
-0.001107 0.000033 0
-0.001129 0.000030 0
-0.001149 0.000027 0
-0.001168 0.000025 0
-0.001184 0.000023 0
-0.001200 0.000021 0
-0.001214 0.000020 0
-0.001226 0.000018 0
-0.001238 0.000017 0
-0.001249 0.000016 0
-0.001259 0.000015 0
-0.001269 0.000014 0
-0.001277 0.000013 0
-0.001286 0.000013 0
-0.001293 0.000012 0
-0.001300 0.000011 0
-0.001307 0.000011 0
-0.001313 0.000010 0
-0.001319 0.000010 0
-0.001325 0.000009 0
-0.001330 0.000009 0
-0.001334 0.000008 0
-0.001338 0.000006 0
-0.001341 0.000004 0
-0.001342 0.000001 0
-0.001341 -0.000004 0
-0.001338 -0.000008 0
-0.001334 -0.000013 0
-0.001327 -0.000015 0
-0.001321 -0.000013 0
-0.001316 -0.000004 0
-0.001318 0.000014 0
-0.001331 0.000043 0
-0.001358 0.000082 0
-0.001402 0.000124 0
-0.001462 0.000160 0
-0.001529 0.000172 0
-0.001587 0.000138 0
-0.001609 0.000037 0
-0.001560 -0.000150 0
-0.001403 -0.000420 0
-0.001114 -0.000722 0
-0.000708 -0.000930 0
-0.000269 -0.000809 0
0.000000 -0.000314 0
0.000000 0.001173 0
-0.000304 0.002193 0
-0.000811 0.001470 0
-0.001211 0.000521 0
-0.001434 -0.000036 0
-0.001518 -0.000273 0
-0.001520 -0.000340 0
-0.001479 -0.000336 0
-0.001419 -0.000308 0
-0.001352 -0.000276 0
-0.001284 -0.000248 0
-0.001218 -0.000224 0
-0.001154 -0.000205 0
-0.001092 -0.000189 0
-0.001033 -0.000176 0
-0.000976 -0.000166 0
-0.000921 -0.000157 0
-0.000867 -0.000150 0
-0.000815 -0.000143 0
-0.000764 -0.000138 0
-0.000715 -0.000133 0
-0.000667 -0.000129 0
-0.000619 -0.000126 0
-0.000572 -0.000122 0
-0.000527 -0.000119 0
-0.000481 -0.000116 0
-0.000437 -0.000114 0
-0.000393 -0.000111 0
-0.000350 -0.000110 0
-0.000307 -0.000110 0
-0.000263 -0.000114 0
-0.000217 -0.000121 0
-0.000169 -0.000130 0
-0.000118 -0.000137 0
-0.000068 -0.000131 0
-0.000023 -0.000093 0
0.000000 -0.000031 0
0.000000 0.000000 0
0.000000 0.000000 0
0.000000 0.000000 0
0.000000 0.000113 0
-0.000054 0.000338 0
-0.000167 0.000482 0
-0.000304 0.000496 0
-0.000442 0.000440 0
-0.000569 0.000358 0
-0.000679 0.000278 0
-0.000771 0.000213 0
-0.000847 0.000164 0
-0.000911 0.000129 0
-0.000965 0.000105 0
-0.001011 0.000088 0
-0.001052 0.000076 0
-0.001089 0.000068 0
-0.001121 0.000061 0
-0.001151 0.000055 0
-0.001178 0.000050 0
-0.001203 0.000046 0
-0.001225 0.000042 0
-0.001246 0.000038 0
-0.001264 0.000035 0
-0.001281 0.000033 0
-0.001297 0.000030 0
-0.001311 0.000028 0
-0.001324 0.000026 0
-0.001336 0.000024 0
-0.001347 0.000023 0
-0.001357 0.000021 0
-0.001366 0.000020 0
-0.001375 0.000019 0
-0.001384 0.000018 0
-0.001391 0.000017 0
-0.001399 0.000016 0
-0.001405 0.000015 0
-0.001411 0.000014 0
-0.001417 0.000012 0
-0.001422 0.000010 0
-0.001425 0.000006 0
-0.001428 0.000001 0
-0.001428 -0.000005 0
-0.001426 -0.000012 0
-0.001423 -0.000018 0
-0.001418 -0.000021 0
-0.001412 -0.000019 0
-0.001409 -0.000006 0
-0.001411 0.000021 0
-0.001423 0.000062 0
-0.001448 0.000116 0
-0.001489 0.000175 0
-0.001543 0.000221 0
-0.001603 0.000230 0
-0.001652 0.000172 0
-0.001661 0.000014 0
-0.001597 -0.000265 0
-0.001424 -0.000655 0
-0.001122 -0.001082 0
-0.000707 -0.001363 0
-0.000265 -0.001168 0
0.000000 -0.000450 0
0.000000 0.001297 0
-0.000207 0.002546 0
-0.000623 0.001896 0
-0.000994 0.000837 0
-0.001233 0.000138 0
-0.001351 -0.000206 0
-0.001389 -0.000339 0
-0.001379 -0.000370 0
-0.001345 -0.000359 0
-0.001299 -0.000334 0
-0.001248 -0.000308 0
-0.001194 -0.000284 0
-0.001140 -0.000264 0
-0.001086 -0.000247 0
-0.001032 -0.000233 0
-0.000980 -0.000221 0
-0.000928 -0.000211 0
-0.000877 -0.000202 0
-0.000826 -0.000195 0
-0.000776 -0.000188 0
-0.000728 -0.000183 0
-0.000679 -0.000178 0
-0.000632 -0.000173 0
-0.000584 -0.000170 0
-0.000538 -0.000166 0
-0.000492 -0.000162 0
-0.000446 -0.000159 0
-0.000401 -0.000156 0
-0.000357 -0.000155 0
-0.000312 -0.000156 0
-0.000266 -0.000160 0
-0.000219 -0.000169 0
-0.000170 -0.000180 0
-0.000118 -0.000189 0
-0.000067 -0.000179 0
-0.000023 -0.000127 0
0.000000 -0.000043 0
0.000000 0.000000 0
0.000000 0.000000 0
0.000000 0.000000 0
0.000000 0.000136 0
-0.000038 0.000411 0
-0.000122 0.000594 0
-0.000230 0.000623 0
-0.000344 0.000565 0
-0.000454 0.000473 0
-0.000554 0.000378 0
-0.000642 0.000298 0
-0.000718 0.000236 0
-0.000785 0.000191 0
-0.000843 0.000159 0
-0.000895 0.000136 0
-0.000943 0.000119 0
-0.000986 0.000106 0
-0.001026 0.000096 0
-0.001062 0.000087 0
-0.001096 0.000079 0
-0.001127 0.000072 0
-0.001155 0.000066 0
-0.001181 0.000060 0
-0.001204 0.000055 0
-0.001225 0.000051 0
-0.001244 0.000046 0
-0.001261 0.000043 0
-0.001276 0.000040 0
-0.001291 0.000037 0
-0.001304 0.000035 0
-0.001316 0.000032 0
-0.001328 0.000030 0
-0.001338 0.000028 0
-0.001348 0.000027 0
-0.001358 0.000025 0
-0.001367 0.000024 0
-0.001375 0.000022 0
-0.001383 0.000020 0
-0.001390 0.000018 0
-0.001396 0.000015 0
-0.001402 0.000010 0
-0.001406 0.000003 0
-0.001409 -0.000005 0
-0.001410 -0.000014 0
-0.001409 -0.000022 0
-0.001407 -0.000026 0
-0.001404 -0.000022 0
-0.001403 -0.000006 0
-0.001407 0.000028 0
-0.001417 0.000080 0
-0.001440 0.000147 0
-0.001475 0.000219 0
-0.001522 0.000274 0
-0.001573 0.000279 0
-0.001613 0.000195 0
-0.001614 -0.000018 0
-0.001545 -0.000387 0
-0.001372 -0.000895 0
-0.001077 -0.001439 0
-0.000675 -0.001787 0
-0.000252 -0.001516 0
0.000000 -0.000580 0
0.000000 0.001381 0
-0.000142 0.002816 0
-0.000477 0.002257 0
-0.000804 0.001131 0
-0.001032 0.000321 0
-0.001159 -0.000117 0
-0.001214 -0.000312 0
-0.001223 -0.000379 0
-0.001208 -0.000388 0
-0.001180 -0.000374 0
-0.001144 -0.000353 0
-0.001104 -0.000331 0
-0.001062 -0.000313 0
-0.001018 -0.000296 0
-0.000973 -0.000282 0
-0.000928 -0.000270 0
-0.000882 -0.000260 0
-0.000836 -0.000251 0
-0.000791 -0.000243 0
-0.000745 -0.000236 0
-0.000699 -0.000230 0
-0.000654 -0.000225 0
-0.000608 -0.000220 0
-0.000563 -0.000216 0
-0.000519 -0.000212 0
-0.000474 -0.000208 0
-0.000430 -0.000204 0
-0.000387 -0.000201 0
-0.000343 -0.000199 0
-0.000300 -0.000201 0
-0.000255 -0.000206 0
-0.000209 -0.000217 0
-0.000161 -0.000230 0
-0.000112 -0.000239 0
-0.000063 -0.000226 0
-0.000021 -0.000160 0
0.000000 -0.000054 0
0.000000 0.000000 0
0.000000 0.000000 0
0.000000 0.000000 0
0.000000 0.000150 0
-0.000021 0.000459 0
-0.000074 0.000673 0
-0.000146 0.000718 0
-0.000228 0.000664 0
-0.000312 0.000568 0
-0.000393 0.000466 0
-0.000467 0.000377 0
-0.000536 0.000306 0
-0.000599 0.000254 0
-0.000656 0.000216 0
-0.000710 0.000188 0
-0.000761 0.000167 0
-0.000809 0.000150 0
-0.000854 0.000137 0
-0.000896 0.000125 0
-0.000936 0.000114 0
-0.000972 0.000104 0
-0.001006 0.000095 0
-0.001037 0.000087 0
-0.001065 0.000079 0
-0.001090 0.000072 0
-0.001113 0.000066 0
-0.001133 0.000061 0
-0.001151 0.000056 0
-0.001167 0.000052 0
-0.001183 0.000048 0
-0.001197 0.000045 0
-0.001210 0.000042 0
-0.001223 0.000040 0
-0.001235 0.000037 0
-0.001246 0.000035 0
-0.001257 0.000033 0
-0.001268 0.000031 0
-0.001277 0.000029 0
-0.001287 0.000026 0
-0.001295 0.000021 0
-0.001304 0.000016 0
-0.001311 0.000008 0
-0.001318 -0.000001 0
-0.001323 -0.000012 0
-0.001326 -0.000021 0
-0.001329 -0.000026 0
-0.001330 -0.000022 0
-0.001333 -0.000004 0
-0.001338 0.000035 0
-0.001349 0.000095 0
-0.001368 0.000174 0
-0.001398 0.000257 0
-0.001437 0.000319 0
-0.001480 0.000320 0
-0.001512 0.000212 0
-0.001509 -0.000054 0
-0.001442 -0.000507 0
-0.001279 -0.001124 0
-0.001003 -0.001779 0
-0.000628 -0.002188 0
-0.000234 -0.001843 0
0.000000 -0.000701 0
0.000000 0.001439 0
-0.000098 0.003024 0
-0.000368 0.002559 0
-0.000649 0.001392 0
-0.000855 0.000494 0
-0.000976 -0.000024 0
-0.001033 -0.000275 0
-0.001051 -0.000375 0
-0.001046 -0.000402 0
-0.001030 -0.000398 0
-0.001006 -0.000383 0
-0.000978 -0.000366 0
-0.000947 -0.000350 0
-0.000914 -0.000335 0
-0.000878 -0.000323 0
-0.000841 -0.000312 0
-0.000803 -0.000302 0
-0.000764 -0.000294 0
-0.000724 -0.000286 0
-0.000684 -0.000279 0
-0.000643 -0.000274 0
-0.000602 -0.000268 0
-0.000561 -0.000263 0
-0.000519 -0.000259 0
-0.000478 -0.000255 0
-0.000437 -0.000250 0
-0.000397 -0.000246 0
-0.000356 -0.000243 0
-0.000316 -0.000242 0
-0.000275 -0.000243 0
-0.000234 -0.000250 0
-0.000191 -0.000262 0
-0.000146 -0.000278 0
-0.000100 -0.000287 0
-0.000055 -0.000270 0
-0.000018 -0.000189 0
0.000000 -0.000064 0
0.000000 0.000000 0
0.000000 0.000000 0
0.000000 0.000000 0
0.000000 0.000157 0
-0.000007 0.000484 0
-0.000029 0.000718 0
-0.000065 0.000777 0
-0.000111 0.000730 0
-0.000164 0.000637 0
-0.000219 0.000534 0
-0.000274 0.000441 0
-0.000329 0.000367 0
-0.000382 0.000311 0
-0.000435 0.000270 0
-0.000486 0.000240 0
-0.000536 0.000217 0
-0.000585 0.000199 0
-0.000634 0.000183 0
-0.000680 0.000168 0
-0.000725 0.000155 0
-0.000767 0.000142 0
-0.000806 0.000130 0
-0.000843 0.000119 0
-0.000876 0.000108 0
-0.000906 0.000098 0
-0.000932 0.000089 0
-0.000956 0.000081 0
-0.000977 0.000074 0
-0.000995 0.000069 0
-0.001012 0.000064 0
-0.001028 0.000060 0
-0.001043 0.000056 0
-0.001058 0.000053 0
-0.001072 0.000050 0
-0.001086 0.000047 0
-0.001099 0.000045 0
-0.001111 0.000042 0
-0.001124 0.000039 0
-0.001136 0.000036 0
-0.001147 0.000031 0
-0.001159 0.000025 0
-0.001170 0.000017 0
-0.001181 0.000007 0
-0.001191 -0.000005 0
-0.001200 -0.000016 0
-0.001208 -0.000022 0
-0.001215 -0.000018 0
-0.001221 0.000002 0
-0.001229 0.000043 0
-0.001241 0.000110 0
-0.001258 0.000196 0
-0.001283 0.000289 0
-0.001315 0.000356 0
-0.001350 0.000354 0
-0.001375 0.000224 0
-0.001371 -0.000089 0
-0.001309 -0.000618 0
-0.001163 -0.001333 0
-0.000914 -0.002090 0
-0.000574 -0.002556 0
-0.000214 -0.002144 0
0.000000 -0.000814 0
0.000000 0.001479 0
-0.000068 0.003185 0
-0.000286 0.002809 0
-0.000526 0.001618 0
-0.000707 0.000648 0
-0.000815 0.000062 0
-0.000868 -0.000237 0
-0.000886 -0.000366 0
-0.000885 -0.000409 0
-0.000875 -0.000413 0
-0.000859 -0.000404 0
-0.000840 -0.000390 0
-0.000818 -0.000377 0
-0.000793 -0.000365 0
-0.000766 -0.000355 0
-0.000737 -0.000345 0
-0.000706 -0.000337 0
-0.000674 -0.000330 0
-0.000640 -0.000323 0
-0.000606 -0.000317 0
-0.000571 -0.000312 0
-0.000535 -0.000307 0
-0.000499 -0.000302 0
-0.000462 -0.000298 0
-0.000426 -0.000293 0
-0.000389 -0.000289 0
-0.000353 -0.000285 0
-0.000316 -0.000281 0
-0.000280 -0.000280 0
-0.000244 -0.000282 0
-0.000206 -0.000290 0
-0.000168 -0.000304 0
-0.000127 -0.000321 0
-0.000086 -0.000330 0
-0.000047 -0.000308 0
-0.000015 -0.000215 0
0.000000 -0.000072 0
0.000000 0.000000 0
0.000000 0.000000 0
0.000000 0.000000 0
0.000000 0.000157 0
0.000005 0.000488 0
0.000009 0.000731 0
0.000008 0.000800 0
-0.000003 0.000762 0
-0.000023 0.000676 0
-0.000050 0.000577 0
-0.000082 0.000487 0
-0.000119 0.000414 0
-0.000159 0.000359 0
-0.000201 0.000319 0
-0.000246 0.000289 0
-0.000292 0.000266 0
-0.000340 0.000248 0
-0.000388 0.000231 0
-0.000437 0.000216 0
-0.000485 0.000201 0
-0.000532 0.000186 0
-0.000577 0.000171 0
-0.000620 0.000156 0
-0.000659 0.000142 0
-0.000694 0.000128 0
-0.000726 0.000116 0
-0.000753 0.000105 0
-0.000777 0.000095 0
-0.000798 0.000087 0
-0.000816 0.000081 0
-0.000834 0.000076 0
-0.000850 0.000072 0
-0.000866 0.000068 0
-0.000882 0.000065 0
-0.000898 0.000062 0
-0.000913 0.000059 0
-0.000929 0.000056 0
-0.000944 0.000053 0
-0.000959 0.000049 0
-0.000973 0.000044 0
-0.000988 0.000038 0
-0.001003 0.000030 0
-0.001019 0.000019 0
-0.001034 0.000007 0
-0.001048 -0.000005 0
-0.001062 -0.000012 0
-0.001074 -0.000009 0
-0.001086 0.000011 0
-0.001098 0.000054 0
-0.001110 0.000123 0
-0.001126 0.000216 0
-0.001147 0.000314 0
-0.001172 0.000386 0
-0.001200 0.000380 0
-0.001219 0.000233 0
-0.001215 -0.000120 0
-0.001162 -0.000715 0
-0.001036 -0.001519 0
-0.000818 -0.002368 0
-0.000517 -0.002888 0
-0.000194 -0.002417 0
0.000000 -0.000916 0
0.000000 0.001507 0
-0.000047 0.003311 0
-0.000226 0.003017 0
-0.000431 0.001812 0
-0.000588 0.000783 0
-0.000682 0.000137 0
-0.000727 -0.000204 0
-0.000741 -0.000357 0
-0.000739 -0.000413 0
-0.000731 -0.000424 0
-0.000719 -0.000418 0
-0.000705 -0.000407 0
-0.000689 -0.000396 0
-0.000671 -0.000387 0
-0.000651 -0.000379 0
-0.000629 -0.000371 0
-0.000605 -0.000365 0
-0.000579 -0.000359 0
-0.000551 -0.000354 0
-0.000522 -0.000349 0
-0.000493 -0.000344 0
-0.000462 -0.000340 0
-0.000431 -0.000336 0
-0.000400 -0.000332 0
-0.000368 -0.000327 0
-0.000336 -0.000323 0
-0.000304 -0.000319 0
-0.000273 -0.000315 0
-0.000241 -0.000314 0
-0.000209 -0.000317 0
-0.000177 -0.000326 0
-0.000143 -0.000341 0
-0.000107 -0.000359 0
-0.000072 -0.000367 0
-0.000038 -0.000341 0
-0.000012 -0.000236 0
0.000000 -0.000079 0
0.000000 0.000000 0
0.000000 0.000000 0
0.000000 0.000000 0
0.000000 0.000152 0
0.000013 0.000474 0
0.000040 0.000715 0
0.000068 0.000789 0