# vtk DataFile Version 2.0
generated by CFD-lab course output (written by Tobias Neckel) 
ASCII

DATASET STRUCTURED_GRID
DIMENSIONS  99 49 1 
POINTS 4851 float

0.000000 0.000000 0
0.020000 0.000000 0
0.040000 0.000000 0
0.060000 0.000000 0
0.080000 0.000000 0
0.100000 0.000000 0
0.120000 0.000000 0
0.140000 0.000000 0
0.160000 0.000000 0
0.180000 0.000000 0
0.200000 0.000000 0
0.220000 0.000000 0
0.240000 0.000000 0
0.260000 0.000000 0
0.280000 0.000000 0
0.300000 0.000000 0
0.320000 0.000000 0
0.340000 0.000000 0
0.360000 0.000000 0
0.380000 0.000000 0
0.400000 0.000000 0
0.420000 0.000000 0
0.440000 0.000000 0
0.460000 0.000000 0
0.480000 0.000000 0
0.500000 0.000000 0
0.520000 0.000000 0
0.540000 0.000000 0
0.560000 0.000000 0
0.580000 0.000000 0
0.600000 0.000000 0
0.620000 0.000000 0
0.640000 0.000000 0
0.660000 0.000000 0
0.680000 0.000000 0
0.700000 0.000000 0
0.720000 0.000000 0
0.740000 0.000000 0
0.760000 0.000000 0
0.780000 0.000000 0
0.800000 0.000000 0
0.820000 0.000000 0
0.840000 0.000000 0
0.860000 0.000000 0
0.880000 0.000000 0
0.900000 0.000000 0
0.920000 0.000000 0
0.940000 0.000000 0
0.960000 0.000000 0
0.980000 0.000000 0
1.000000 0.000000 0
1.020000 0.000000 0
1.040000 0.000000 0
1.060000 0.000000 0
1.080000 0.000000 0
1.100000 0.000000 0
1.120000 0.000000 0
1.140000 0.000000 0
1.160000 0.000000 0
1.180000 0.000000 0
1.200000 0.000000 0
1.220000 0.000000 0
1.240000 0.000000 0
1.260000 0.000000 0
1.280000 0.000000 0
1.300000 0.000000 0
1.320000 0.000000 0
1.340000 0.000000 0
1.360000 0.000000 0
1.380000 0.000000 0
1.400000 0.000000 0
1.420000 0.000000 0
1.440000 0.000000 0
1.460000 0.000000 0
1.480000 0.000000 0
1.500000 0.000000 0
1.520000 0.000000 0
1.540000 0.000000 0
1.560000 0.000000 0
1.580000 0.000000 0
1.600000 0.000000 0
1.620000 0.000000 0
1.640000 0.000000 0
1.660000 0.000000 0
1.680000 0.000000 0
1.700000 0.000000 0
1.720000 0.000000 0
1.740000 0.000000 0
1.760000 0.000000 0
1.780000 0.000000 0
1.800000 0.000000 0
1.820000 0.000000 0
1.840000 0.000000 0
1.860000 0.000000 0
1.880000 0.000000 0
1.900000 0.000000 0
1.920000 0.000000 0
1.940000 0.000000 0
1.960000 0.000000 0
0.000000 0.020000 0
0.020000 0.020000 0
0.040000 0.020000 0
0.060000 0.020000 0
0.080000 0.020000 0
0.100000 0.020000 0
0.120000 0.020000 0
0.140000 0.020000 0
0.160000 0.020000 0
0.180000 0.020000 0
0.200000 0.020000 0
0.220000 0.020000 0
0.240000 0.020000 0
0.260000 0.020000 0
0.280000 0.020000 0
0.300000 0.020000 0
0.320000 0.020000 0
0.340000 0.020000 0
0.360000 0.020000 0
0.380000 0.020000 0
0.400000 0.020000 0
0.420000 0.020000 0
0.440000 0.020000 0
0.460000 0.020000 0
0.480000 0.020000 0
0.500000 0.020000 0
0.520000 0.020000 0
0.540000 0.020000 0
0.560000 0.020000 0
0.580000 0.020000 0
0.600000 0.020000 0
0.620000 0.020000 0
0.640000 0.020000 0
0.660000 0.020000 0
0.680000 0.020000 0
0.700000 0.020000 0
0.720000 0.020000 0
0.740000 0.020000 0
0.760000 0.020000 0
0.780000 0.020000 0
0.800000 0.020000 0
0.820000 0.020000 0
0.840000 0.020000 0
0.860000 0.020000 0
0.880000 0.020000 0
0.900000 0.020000 0
0.920000 0.020000 0
0.940000 0.020000 0
0.960000 0.020000 0
0.980000 0.020000 0
1.000000 0.020000 0
1.020000 0.020000 0
1.040000 0.020000 0
1.060000 0.020000 0
1.080000 0.020000 0
1.100000 0.020000 0
1.120000 0.020000 0
1.140000 0.020000 0
1.160000 0.020000 0
1.180000 0.020000 0
1.200000 0.020000 0
1.220000 0.020000 0
1.240000 0.020000 0
1.260000 0.020000 0
1.280000 0.020000 0
1.300000 0.020000 0
1.320000 0.020000 0
1.340000 0.020000 0
1.360000 0.020000 0
1.380000 0.020000 0
1.400000 0.020000 0
1.420000 0.020000 0
1.440000 0.020000 0
1.460000 0.020000 0
1.480000 0.020000 0
1.500000 0.020000 0
1.520000 0.020000 0
1.540000 0.020000 0
1.560000 0.020000 0
1.580000 0.020000 0
1.600000 0.020000 0
1.620000 0.020000 0
1.640000 0.020000 0
1.660000 0.020000 0
1.680000 0.020000 0
1.700000 0.020000 0
1.720000 0.020000 0
1.740000 0.020000 0
1.760000 0.020000 0
1.780000 0.020000 0
1.800000 0.020000 0
1.820000 0.020000 0
1.840000 0.020000 0
1.860000 0.020000 0
1.880000 0.020000 0
1.900000 0.020000 0
1.920000 0.020000 0
1.940000 0.020000 0
1.960000 0.020000 0
0.000000 0.040000 0
0.020000 0.040000 0
0.040000 0.040000 0
0.060000 0.040000 0
0.080000 0.040000 0
0.100000 0.040000 0
0.120000 0.040000 0
0.140000 0.040000 0
0.160000 0.040000 0
0.180000 0.040000 0
0.200000 0.040000 0
0.220000 0.040000 0
0.240000 0.040000 0
0.260000 0.040000 0
0.280000 0.040000 0
0.300000 0.040000 0
0.320000 0.040000 0
0.340000 0.040000 0
0.360000 0.040000 0
0.380000 0.040000 0
0.400000 0.040000 0
0.420000 0.040000 0
0.440000 0.040000 0
0.460000 0.040000 0
0.480000 0.040000 0
0.500000 0.040000 0
0.520000 0.040000 0
0.540000 0.040000 0
0.560000 0.040000 0
0.580000 0.040000 0
0.600000 0.040000 0
0.620000 0.040000 0
0.640000 0.040000 0
0.660000 0.040000 0
0.680000 0.040000 0
0.700000 0.040000 0
0.720000 0.040000 0
0.740000 0.040000 0
0.760000 0.040000 0
0.780000 0.040000 0
0.800000 0.040000 0
0.820000 0.040000 0
0.840000 0.040000 0
0.860000 0.040000 0
0.880000 0.040000 0
0.900000 0.040000 0
0.920000 0.040000 0
0.940000 0.040000 0
0.960000 0.040000 0
0.980000 0.040000 0
1.000000 0.040000 0
1.020000 0.040000 0
1.040000 0.040000 0
1.060000 0.040000 0
1.080000 0.040000 0
1.100000 0.040000 0
1.120000 0.040000 0
1.140000 0.040000 0
1.160000 0.040000 0
1.180000 0.040000 0
1.200000 0.040000 0
1.220000 0.040000 0
1.240000 0.040000 0
1.260000 0.040000 0
1.280000 0.040000 0
1.300000 0.040000 0
1.320000 0.040000 0
1.340000 0.040000 0
1.360000 0.040000 0
1.380000 0.040000 0
1.400000 0.040000 0
1.420000 0.040000 0
1.440000 0.040000 0
1.460000 0.040000 0
1.480000 0.040000 0
1.500000 0.040000 0
1.520000 0.040000 0
1.540000 0.040000 0
1.560000 0.040000 0
1.580000 0.040000 0
1.600000 0.040000 0
1.620000 0.040000 0
1.640000 0.040000 0
1.660000 0.040000 0
1.680000 0.040000 0
1.700000 0.040000 0
1.720000 0.040000 0
1.740000 0.040000 0
1.760000 0.040000 0
1.780000 0.040000 0
1.800000 0.040000 0
1.820000 0.040000 0
1.840000 0.040000 0
1.860000 0.040000 0
1.880000 0.040000 0
1.900000 0.040000 0
1.920000 0.040000 0
1.940000 0.040000 0
1.960000 0.040000 0
0.000000 0.060000 0
0.020000 0.060000 0
0.040000 0.060000 0
0.060000 0.060000 0
0.080000 0.060000 0
0.100000 0.060000 0
0.120000 0.060000 0
0.140000 0.060000 0
0.160000 0.060000 0
0.180000 0.060000 0
0.200000 0.060000 0
0.220000 0.060000 0
0.240000 0.060000 0
0.260000 0.060000 0
0.280000 0.060000 0
0.300000 0.060000 0
0.320000 0.060000 0
0.340000 0.060000 0
0.360000 0.060000 0
0.380000 0.060000 0
0.400000 0.060000 0
0.420000 0.060000 0
0.440000 0.060000 0
0.460000 0.060000 0
0.480000 0.060000 0
0.500000 0.060000 0
0.520000 0.060000 0
0.540000 0.060000 0
0.560000 0.060000 0
0.580000 0.060000 0
0.600000 0.060000 0
0.620000 0.060000 0
0.640000 0.060000 0
0.660000 0.060000 0
0.680000 0.060000 0
0.700000 0.060000 0
0.720000 0.060000 0
0.740000 0.060000 0
0.760000 0.060000 0
0.780000 0.060000 0
0.800000 0.060000 0
0.820000 0.060000 0
0.840000 0.060000 0
0.860000 0.060000 0
0.880000 0.060000 0
0.900000 0.060000 0
0.920000 0.060000 0
0.940000 0.060000 0
0.960000 0.060000 0
0.980000 0.060000 0
1.000000 0.060000 0
1.020000 0.060000 0
1.040000 0.060000 0
1.060000 0.060000 0
1.080000 0.060000 0
1.100000 0.060000 0
1.120000 0.060000 0
1.140000 0.060000 0
1.160000 0.060000 0
1.180000 0.060000 0
1.200000 0.060000 0
1.220000 0.060000 0
1.240000 0.060000 0
1.260000 0.060000 0
1.280000 0.060000 0
1.300000 0.060000 0
1.320000 0.060000 0
1.340000 0.060000 0
1.360000 0.060000 0
1.380000 0.060000 0
1.400000 0.060000 0
1.420000 0.060000 0
1.440000 0.060000 0
1.460000 0.060000 0
1.480000 0.060000 0
1.500000 0.060000 0
1.520000 0.060000 0
1.540000 0.060000 0
1.560000 0.060000 0
1.580000 0.060000 0
1.600000 0.060000 0
1.620000 0.060000 0
1.640000 0.060000 0
1.660000 0.060000 0
1.680000 0.060000 0
1.700000 0.060000 0
1.720000 0.060000 0
1.740000 0.060000 0
1.760000 0.060000 0
1.780000 0.060000 0
1.800000 0.060000 0
1.820000 0.060000 0
1.840000 0.060000 0
1.860000 0.060000 0
1.880000 0.060000 0
1.900000 0.060000 0
1.920000 0.060000 0
1.940000 0.060000 0
1.960000 0.060000 0
0.000000 0.080000 0
0.020000 0.080000 0
0.040000 0.080000 0
0.060000 0.080000 0
0.080000 0.080000 0
0.100000 0.080000 0
0.120000 0.080000 0
0.140000 0.080000 0
0.160000 0.080000 0
0.180000 0.080000 0
0.200000 0.080000 0
0.220000 0.080000 0
0.240000 0.080000 0
0.260000 0.080000 0
0.280000 0.080000 0
0.300000 0.080000 0
0.320000 0.080000 0
0.340000 0.080000 0
0.360000 0.080000 0
0.380000 0.080000 0
0.400000 0.080000 0
0.420000 0.080000 0
0.440000 0.080000 0
0.460000 0.080000 0
0.480000 0.080000 0
0.500000 0.080000 0
0.520000 0.080000 0
0.540000 0.080000 0
0.560000 0.080000 0
0.580000 0.080000 0
0.600000 0.080000 0
0.620000 0.080000 0
0.640000 0.080000 0
0.660000 0.080000 0
0.680000 0.080000 0
0.700000 0.080000 0
0.720000 0.080000 0
0.740000 0.080000 0
0.760000 0.080000 0
0.780000 0.080000 0
0.800000 0.080000 0
0.820000 0.080000 0
0.840000 0.080000 0
0.860000 0.080000 0
0.880000 0.080000 0
0.900000 0.080000 0
0.920000 0.080000 0
0.940000 0.080000 0
0.960000 0.080000 0
0.980000 0.080000 0
1.000000 0.080000 0
1.020000 0.080000 0
1.040000 0.080000 0
1.060000 0.080000 0
1.080000 0.080000 0
1.100000 0.080000 0
1.120000 0.080000 0
1.140000 0.080000 0
1.160000 0.080000 0
1.180000 0.080000 0
1.200000 0.080000 0
1.220000 0.080000 0
1.240000 0.080000 0
1.260000 0.080000 0
1.280000 0.080000 0
1.300000 0.080000 0
1.320000 0.080000 0
1.340000 0.080000 0
1.360000 0.080000 0
1.380000 0.080000 0
1.400000 0.080000 0
1.420000 0.080000 0
1.440000 0.080000 0
1.460000 0.080000 0
1.480000 0.080000 0
1.500000 0.080000 0
1.520000 0.080000 0
1.540000 0.080000 0
1.560000 0.080000 0
1.580000 0.080000 0
1.600000 0.080000 0
1.620000 0.080000 0
1.640000 0.080000 0
1.660000 0.080000 0
1.680000 0.080000 0
1.700000 0.080000 0
1.720000 0.080000 0
1.740000 0.080000 0
1.760000 0.080000 0
1.780000 0.080000 0
1.800000 0.080000 0
1.820000 0.080000 0
1.840000 0.080000 0
1.860000 0.080000 0
1.880000 0.080000 0
[...]
POINT_DATA 4851 

VECTORS velocity float
0.000000 0.000000 0
-0.000456 0.000000 0
-0.000596 0.000000 0
-0.000544 0.000000 0
-0.000454 0.000000 0
-0.000375 0.000000 0
-0.000314 0.000000 0
-0.000268 0.000000 0
-0.000232 0.000000 0
-0.000203 0.000000 0
-0.000180 0.000000 0
-0.000161 0.000000 0
-0.000145 0.000000 0
-0.000131 0.000000 0
-0.000119 0.000000 0
-0.000109 0.000000 0
-0.000100 0.000000 0
-0.000092 0.000000 0
-0.000085 0.000000 0
-0.000078 0.000000 0
-0.000072 0.000000 0
-0.000067 0.000000 0
-0.000062 0.000000 0
-0.000057 0.000000 0
-0.000052 0.000000 0
-0.000047 0.000000 0
-0.000041 0.000000 0
-0.000036 0.000000 0
-0.000030 0.000000 0
-0.000024 0.000000 0
-0.000018 0.000000 0
-0.000012 0.000000 0
-0.000007 0.000000 0
-0.000003 0.000000 0
-0.000000 0.000000 0
0.000000 0.000000 0
0.000000 0.000000 0
0.000000 0.000000 0
0.000000 0.000000 0
0.000000 0.000000 0
0.000000 0.000000 0
-0.000063 0.000000 0
-0.000161 0.000000 0
-0.000238 0.000000 0
-0.000284 0.000000 0
-0.000306 0.000000 0
-0.000315 0.000000 0
-0.000319 0.000000 0
-0.000320 0.000000 0
-0.000322 0.000000 0
-0.000323 0.000000 0
-0.000324 0.000000 0
-0.000326 0.000000 0
-0.000327 0.000000 0
-0.000329 0.000000 0
-0.000331 0.000000 0
-0.000333 0.000000 0
-0.000335 0.000000 0
-0.000336 0.000000 0
-0.000338 0.000000 0
-0.000341 0.000000 0
-0.000343 0.000000 0
-0.000345 0.000000 0
-0.000347 0.000000 0
-0.000349 0.000000 0
-0.000351 0.000000 0
-0.000354 0.000000 0
-0.000356 0.000000 0
-0.000357 0.000000 0
-0.000359 0.000000 0
-0.000361 0.000000 0
-0.000362 0.000000 0
-0.000363 0.000000 0
-0.000365 0.000000 0
-0.000367 0.000000 0
-0.000369 0.000000 0
-0.000372 0.000000 0
-0.000374 0.000000 0
-0.000376 0.000000 0
-0.000376 0.000000 0
-0.000374 0.000000 0
-0.000369 0.000000 0
-0.000361 0.000000 0
-0.000350 0.000000 0
-0.000336 0.000000 0
-0.000325 0.000000 0
-0.000319 0.000000 0
-0.000324 0.000000 0
-0.000344 0.000000 0
-0.000384 0.000000 0
-0.000443 0.000000 0
-0.000516 0.000000 0
-0.000591 0.000000 0
-0.000646 0.000000 0
-0.000655 0.000000 0
-0.000584 0.000000 0
-0.000414 0.000000 0
-0.000174 0.000000 0
0.000000 0.000000 0
0.000000 0.000457 0
-0.000913 0.000597 0
-0.001400 0.000088 0
-0.001454 -0.000142 0
-0.001337 -0.000169 0
-0.001184 -0.000139 0
-0.001040 -0.000107 0
-0.000916 -0.000082 0
-0.000811 -0.000064 0
-0.000723 -0.000051 0
-0.000648 -0.000042 0
-0.000584 -0.000035 0
-0.000529 -0.000030 0
-0.000481 -0.000025 0
-0.000439 -0.000022 0
-0.000402 -0.000019 0
-0.000370 -0.000017 0
-0.000341 -0.000015 0
-0.000315 -0.000013 0
-0.000291 -0.000012 0
-0.000270 -0.000011 0
-0.000250 -0.000010 0
-0.000230 -0.000010 0
-0.000212 -0.000009 0
-0.000193 -0.000010 0
-0.000174 -0.000010 0
-0.000154 -0.000010 0
-0.000134 -0.000011 0
-0.000113 -0.000011 0
-0.000091 -0.000012 0
-0.000070 -0.000011 0
-0.000049 -0.000010 0
-0.000031 -0.000009 0
-0.000016 -0.000006 0
-0.000005 -0.000003 0
-0.000000 0.000000 0
0.000000 0.000001 0
0.000000 0.000000 0
0.000000 0.000000 0
0.000000 0.000000 0
0.000000 0.000062 0
-0.000166 0.000160 0
-0.000429 0.000175 0
-0.000656 0.000122 0
-0.000810 0.000067 0
-0.000901 0.000031 0
-0.000952 0.000012 0
-0.000982 0.000005 0
-0.001000 0.000002 0
-0.001014 0.000002 0
-0.001025 0.000002 0
-0.001036 0.000002 0
-0.001046 0.000003 0
-0.001055 0.000003 0
-0.001064 0.000003 0
-0.001073 0.000003 0
-0.001082 0.000003 0
-0.001091 0.000003 0
-0.001099 0.000003 0
-0.001108 0.000003 0
-0.001117 0.000004 0
-0.001125 0.000004 0
-0.001134 0.000004 0
-0.001143 0.000004 0
-0.001151 0.000004 0
-0.001159 0.000004 0
-0.001167 0.000004 0
-0.001174 0.000003 0
-0.001180 0.000003 0
-0.001186 0.000003 0
-0.001191 0.000002 0
-0.001196 0.000002 0
-0.001200 0.000003 0
-0.001206 0.000003 0
-0.001211 0.000004 0
-0.001218 0.000004 0
-0.001224 0.000004 0
-0.001229 0.000003 0
-0.001232 0.000001 0
-0.001230 -0.000002 0
-0.001222 -0.000007 0
-0.001204 -0.000014 0
-0.001177 -0.000020 0
-0.001142 -0.000025 0
-0.001105 -0.000026 0
-0.001075 -0.000018 0
-0.001065 -0.000002 0
-0.001090 0.000025 0
-0.001163 0.000060 0
-0.001290 0.000098 0
-0.001465 0.000131 0
-0.001669 0.000147 0
-0.001858 0.000130 0
-0.001972 0.000064 0
-0.001934 -0.000063 0
-0.001667 -0.000242 0
-0.001145 -0.000410 0
-0.000472 -0.000414 0
0.000000 -0.000175 0
0.000000 0.000914 0
-0.000808 0.001401 0
-0.001547 0.000541 0
-0.001873 -0.000062 0
-0.001915 -0.000269 0
-0.001824 -0.000297 0
-0.001684 -0.000268 0
-0.001536 -0.000228 0
-0.001394 -0.000192 0
-0.001265 -0.000162 0
-0.001149 -0.000138 0
-0.001047 -0.000118 0
-0.000955 -0.000103 0
-0.000874 -0.000089 0
-0.000802 -0.000078 0
-0.000737 -0.000069 0
-0.000680 -0.000061 0
-0.000628 -0.000054 0
-0.000581 -0.000049 0
-0.000539 -0.000044 0
-0.000499 -0.000041 0
-0.000462 -0.000039 0
-0.000427 -0.000037 0
-0.000392 -0.000037 0
-0.000358 -0.000037 0
-0.000323 -0.000038 0
-0.000288 -0.000039 0
-0.000251 -0.000041 0
-0.000212 -0.000042 0
-0.000174 -0.000043 0
-0.000135 -0.000041 0
-0.000098 -0.000038 0
-0.000065 -0.000033 0
-0.000037 -0.000025 0
-0.000016 -0.000015 0
-0.000004 -0.000005 0
0.000000 -0.000000 0
0.000000 0.000000 0
0.000000 0.000000 0
0.000000 0.000000 0
0.000000 0.000165 0
-0.000201 0.000428 0
-0.000536 0.000490 0
-0.000855 0.000380 0
-0.001099 0.000244 0
-0.001267 0.000142 0
-0.001378 0.000080 0
-0.001451 0.000047 0
-0.001503 0.000032 0
-0.001541 0.000024 0
-0.001573 0.000021 0
-0.001601 0.000019 0
-0.001627 0.000019 0
-0.001650 0.000018 0
-0.001672 0.000017 0
-0.001693 0.000017 0
-0.001713 0.000017 0
-0.001732 0.000017 0
-0.001751 0.000017 0
-0.001770 0.000017 0
-0.001788 0.000017 0
-0.001805 0.000017 0
-0.001822 0.000017 0
-0.001839 0.000016 0
-0.001855 0.000016 0
-0.001870 0.000015 0
-0.001884 0.000014 0
-0.001896 0.000013 0
-0.001908 0.000011 0
-0.001918 0.000010 0
-0.001927 0.000009 0
-0.001935 0.000009 0
-0.001943 0.000009 0
-0.001952 0.000010 0
-0.001960 0.000011 0
-0.001969 0.000012 0
-0.001977 0.000011 0
-0.001983 0.000008 0
-0.001985 0.000001 0
-0.001979 -0.000011 0
-0.001962 -0.000027 0
-0.001933 -0.000045 0
-0.001891 -0.000063 0
-0.001841 -0.000073 0
-0.001791 -0.000068 0
-0.001755 -0.000041 0
-0.001754 0.000015 0
-0.001807 0.000097 0
-0.001929 0.000199 0
-0.002123 0.000302 0
-0.002375 0.000378 0
-0.002646 0.000392 0
-0.002869 0.000303 0
-0.002955 0.000074 0
-0.002805 -0.000306 0
-0.002337 -0.000789 0
-0.001552 -0.001196 0
-0.000620 -0.001146 0
0.000000 -0.000472 0
0.000000 0.001265 0
-0.000614 0.002145 0
-0.001382 0.001154 0
-0.001870 0.000226 0
-0.002074 -0.000217 0
-0.002096 -0.000370 0
-0.002022 -0.000395 0
-0.001904 -0.000372 0
-0.001771 -0.000334 0
-0.001636 -0.000295 0
-0.001507 -0.000260 0
-0.001388 -0.000229 0
-0.001277 -0.000202 0
-0.001177 -0.000178 0
-0.001086 -0.000158 0
-0.001003 -0.000141 0
-0.000928 -0.000126 0
-0.000860 -0.000113 0
-0.000798 -0.000102 0
-0.000741 -0.000094 0
-0.000687 -0.000087 0
-0.000637 -0.000082 0
-0.000590 -0.000079 0
-0.000543 -0.000078 0
-0.000496 -0.000078 0
-0.000449 -0.000080 0
-0.000401 -0.000083 0
-0.000351 -0.000086 0
-0.000300 -0.000088 0
-0.000247 -0.000089 0
-0.000195 -0.000087 0
-0.000145 -0.000081 0
-0.000098 -0.000070 0
-0.000058 -0.000055 0
-0.000027 -0.000036 0
-0.000007 -0.000015 0
0.000000 -0.000003 0
0.000000 0.000000 0
0.000000 0.000000 0
0.000000 0.000000 0
0.000000 0.000263 0
-0.000173 0.000695 0
-0.000485 0.000828 0
-0.000810 0.000685 0
-0.001083 0.000479 0
-0.001290 0.000309 0
-0.001440 0.000196 0
-0.001549 0.000129 0
-0.001631 0.000092 0
-0.001696 0.000073 0
-0.001750 0.000062 0
-0.001798 0.000055 0
-0.001841 0.000051 0
-0.001880 0.000048 0
-0.001917 0.000046 0
-0.001951 0.000044 0
-0.001984 0.000042 0
-0.002015 0.000041 0
-0.002045 0.000040 0
-0.002073 0.000040 0
-0.002100 0.000039 0
-0.002127 0.000038 0
-0.002152 0.000037 0
-0.002176 0.000036 0
-0.002199 0.000035 0
-0.002221 0.000033 0
-0.002241 0.000030 0
-0.002259 0.000027 0
-0.002276 0.000024 0
-0.002290 0.000022 0
-0.002303 0.000020 0
-0.002315 0.000018 0
-0.002326 0.000018 0
-0.002336 0.000019 0
-0.002347 0.000021 0
-0.002357 0.000021 0
-0.002366 0.000018 0
-0.002373 0.000011 0
-0.002374 -0.000003 0
-0.002366 -0.000025 0
-0.002347 -0.000053 0
-0.002315 -0.000085 0
-0.002271 -0.000113 0
-0.002219 -0.000126 0
-0.002171 -0.000111 0
-0.002143 -0.000055 0
-0.002155 0.000050 0
-0.002227 0.000199 0
-0.002373 0.000375 0
-0.002590 0.000544 0
-0.002859 0.000654 0
-0.003129 0.000641 0
-0.003324 0.000439 0
-0.003348 -0.000001 0
-0.003102 -0.000682 0
-0.002522 -0.001494 0
-0.001633 -0.002127 0
-0.000632 -0.001967 0
0.000000 -0.000794 0
0.000000 0.001529 0
-0.000469 0.002783 0
-0.001182 0.001797 0
-0.001729 0.000630 0
-0.002037 -0.000042 0
-0.002156 -0.000348 0
-0.002156 -0.000459 0
-0.002088 -0.000479 0
-0.001984 -0.000460 0
-0.001864 -0.000425 0
-0.001741 -0.000386 0
-0.001619 -0.000348 0
-0.001504 -0.000313 0
-0.001395 -0.000281 0
-0.001294 -0.000252 0
-0.001201 -0.000226 0
-0.001116 -0.000204 0
-0.001037 -0.000185 0
-0.000965 -0.000168 0
-0.000898 -0.000154 0
-0.000835 -0.000144 0
-0.000776 -0.000136 0
-0.000719 -0.000132 0
-0.000663 -0.000130 0
-0.000608 -0.000130 0
-0.000552 -0.000133 0
-0.000495 -0.000137 0
-0.000436 -0.000142 0
-0.000375 -0.000146 0
-0.000312 -0.000147 0
-0.000249 -0.000144 0
-0.000188 -0.000135 0
-0.000130 -0.000119 0
-0.000079 -0.000096 0
-0.000038 -0.000066 0
-0.000011 -0.000032 0
0.000000 -0.000007 0
0.000000 0.000000 0
0.000000 0.000000 0
0.000000 0.000000 0
0.000000 0.000337 0
-0.000121 0.000913 0
-0.000367 0.001126 0
-0.000644 0.000977 0
-0.000898 0.000724 0
-0.001107 0.000499 0
-0.001269 0.000339 0
-0.001396 0.000238 0
-0.001498 0.000179 0
-0.001582 0.000144 0
-0.001655 0.000123 0
-0.001720 0.000110 0
-0.001780 0.000101 0
-0.001835 0.000094 0
-0.001886 0.000088 0
-0.001934 0.000084 0
-0.001979 0.000080 0
-0.002022 0.000077 0
-0.002062 0.000074 0
-0.002100 0.000072 0
-0.002137 0.000070 0
-0.002172 0.000068 0
-0.002205 0.000066 0
-0.002237 0.000063 0
-0.002267 0.000060 0
-0.002295 0.000056 0
-0.002322 0.000052 0
-0.002346 0.000047 0
-0.002368 0.000042 0
-0.002388 0.000037 0
-0.002405 0.000034 0
-0.002421 0.000031 0
-0.002435 0.000030 0
-0.002449 0.000031 0
-0.002462 0.000032 0
-0.002475 0.000031 0
-0.002487 0.000027 0
-0.002496 0.000015 0
-0.002500 -0.000006 0
-0.002496 -0.000038 0
-0.002481 -0.000078 0
-0.002455 -0.000122 0
-0.002417 -0.000159 0
-0.002375 -0.000173 0
-0.002338 -0.000144 0
-0.002323 -0.000057 0
-0.002347 0.000099 0
-0.002429 0.000314 0
-0.002579 0.000562 0
-0.002793 0.000788 0
-0.003046 0.000916 0
-0.003285 0.000857 0
-0.003435 0.000522 0
-0.003403 -0.000147 0
-0.003100 -0.001133 0
-0.002477 -0.002259 0
-0.001576 -0.003085 0
-0.000597 -0.002779 0
0.000000 -0.001105 0
0.000000 0.001734 0
-0.000371 0.003328 0
-0.001012 0.002414 0
-0.001562 0.001081 0
-0.001920 0.000210 0
-0.002105 -0.000250 0
-0.002166 -0.000463 0
-0.002145 -0.000544 0
-0.002077 -0.000557 0
-0.001981 -0.000538 0
-0.001872 -0.000505 0
-0.001758 -0.000466 0
-0.001646 -0.000426 0
-0.001537 -0.000388 0
-0.001433 -0.000352 0
-0.001336 -0.000319 0
-0.001246 -0.000290 0
-0.001162 -0.000264 0
-0.001084 -0.000242 0
-0.001011 -0.000223 0
-0.000943 -0.000208 0
-0.000878 -0.000198 0
-0.000816 -0.000191 0
-0.000755 -0.000188 0
-0.000694 -0.000189 0
-0.000633 -0.000193 0
-0.000570 -0.000199 0
-0.000505 -0.000206 0
-0.000438 -0.000211 0
-0.000368 -0.000214 0
-0.000297 -0.000211 0
-0.000226 -0.000200 0
-0.000159 -0.000179 0
-0.000098 -0.000147 0
-0.000048 -0.000104 0
-0.000014 -0.000053 0
0.000000 -0.000013 0
0.000000 0.000000 0
0.000000 0.000000 0
0.000000 0.000000 0
0.000000 0.000384 0
-0.000067 0.001061 0
-0.000228 0.001351 0
-0.000432 0.001217 0
-0.000637 0.000941 0
-0.000817 0.000680 0
-0.000968 0.000485 0
-0.001093 0.000357 0
-0.001199 0.000278 0
-0.001292 0.000230 0
-0.001376 0.000200 0
-0.001453 0.000180 0
-0.001525 0.000165 0
-0.001593 0.000154 0
-0.001657 0.000145 0
-0.001717 0.000137 0
-0.001773 0.000130 0
-0.001827 0.000124 0
-0.001878 0.000119 0
-0.001926 0.000114 0
-0.001971 0.000110 0
-0.002015 0.000106 0
-0.002056 0.000102 0
-0.002095 0.000098 0
-0.002132 0.000093 0
-0.002167 0.000087 0
-0.002200 0.000080 0
-0.002231 0.000073 0
-0.002259 0.000066 0
-0.002285 0.000059 0
-0.002308 0.000053 0
-0.002330 0.000048 0
-0.002349 0.000046 0
-0.002368 0.000046 0
-0.002385 0.000047 0
-0.002403 0.000045 0
-0.002419 0.000039 0
-0.002434 0.000024 0
-0.002445 -0.000004 0
-0.002449 -0.000044 0
-0.002444 -0.000095 0
-0.002430 -0.000149 0
-0.002407 -0.000193 0
-0.002381 -0.000205 0
-0.002360 -0.000163 0
-0.002359 -0.000046 0
-0.002393 0.000156 0
-0.002477 0.000431 0
-0.002619 0.000739 0
-0.002813 0.001011 0
-0.003034 0.001146 0
-0.003233 0.001030 0
-0.003338 0.000557 0
-0.003265 -0.000337 0
-0.002938 -0.001609 0
-0.002323 -0.003018 0
-0.001463 -0.004007 0
-0.000548 -0.003543 0
0.000000 -0.001391 0
0.000000 0.001900 0
-0.000304 0.003796 0
-0.000876 0.002988 0
-0.001404 0.001539 0
-0.001779 0.000501 0
-0.002002 -0.000102 0
-0.002104 -0.000419 0
-0.002123 -0.000568 0
-0.002086 -0.000624 0
-0.002014 -0.000630 0
-0.001923 -0.000609 0
-0.001822 -0.000574 0
-0.001717 -0.000534 0
-0.001613 -0.000493 0
-0.001512 -0.000452 0
-0.001415 -0.000414 0
-0.001324 -0.000378 0
-0.001239 -0.000346 0
-0.001158 -0.000319 0
-0.001083 -0.000295 0
-0.001013 -0.000277 0
-0.000945 -0.000263 0
-0.000881 -0.000254 0
-0.000818 -0.000251 0
-0.000756 -0.000252 0
-0.000692 -0.000257 0
-0.000627 -0.000265 0
-0.000560 -0.000274 0
-0.000489 -0.000283 0
-0.000414 -0.000287 0
-0.000338 -0.000285 0
-0.000260 -0.000273 0
-0.000185 -0.000247 0
-0.000116 -0.000206 0
-0.000057 -0.000150 0
-0.000016 -0.000079 0
0.000000 -0.000021 0
0.000000 0.000000 0
0.000000 0.000000 0
0.000000 0.000000 0
0.000000 0.000404 0
-0.000020 0.001140 0
-0.000097 0.001491 0
-0.000218 0.001385 0
-0.000356 0.001109 0
-0.000491 0.000830 0
-0.000611 0.000615 0
-0.000718 0.000469 0
-0.000814 0.000377 0
-0.000903 0.000320 0
-0.000987 0.000284 0
-0.001069 0.000259 0
-0.001148 0.000240 0
-0.001224 0.000225 0
-0.001296 0.000212 0
-0.001366 0.000200 0
-0.001433 0.000190 0
-0.001496 0.000181 0
-0.001556 0.000173 0
-0.001613 0.000166 0
-0.001667 0.000159 0
-0.001719 0.000152 0
-0.001767 0.000146 0
-0.001814 0.000139 0
-0.001858 0.000132 0
-0.001899 0.000124 0
-0.001939 0.000116 0
-0.001977 0.000106 0
-0.002012 0.000096 0
-0.002045 0.000086 0
-0.002075 0.000078 0
-0.002103 0.000072 0
-0.002129 0.000068 0
-0.002153 0.000067 0
-0.002177 0.000067 0
-0.002201 0.000065 0
-0.002224 0.000058 0
-0.002247 0.000040 0
-0.002267 0.000009 0
-0.002283 -0.000038 0
-0.002293 -0.000098 0
-0.002296 -0.000160 0
-0.002292 -0.000209 0
-0.002285 -0.000220 0
-0.002283 -0.000166 0
-0.002297 -0.000024 0
-0.002338 0.000216 0
-0.002419 0.000540 0
-0.002545 0.000898 0
-0.002711 0.001203 0
-0.002893 0.001336 0
-0.003048 0.001160 0
-0.003113 0.000554 0
-0.003016 -0.000547 0
-0.002693 -0.002075 0
-0.002117 -0.003734 0
-0.001329 -0.004861 0
-0.000496 -0.004243 0
0.000000 -0.001652 0
0.000000 0.002038 0
-0.000255 0.004204 0
-0.000767 0.003515 0
-0.001264 0.001985 0
-0.001638 0.000808 0
-0.001877 0.000075 0
-0.002005 -0.000342 0
-0.002051 -0.000562 0
-0.002038 -0.000666 0
-0.001988 -0.000701 0
-0.001914 -0.000697 0
-0.001826 -0.000671 0
-0.001731 -0.000635 0
-0.001634 -0.000593 0
-0.001538 -0.000549 0
-0.001445 -0.000506 0
-0.001356 -0.000466 0
-0.001272 -0.000429 0
-0.001192 -0.000397 0
-0.001118 -0.000369 0
-0.001047 -0.000346 0
-0.000981 -0.000329 0
-0.000917 -0.000318 0
-0.000854 -0.000314 0
-0.000793 -0.000315 0
-0.000730 -0.000321 0
-0.000666 -0.000332 0
-0.000598 -0.000344 0
-0.000527 -0.000356 0
-0.000451 -0.000364 0
-0.000371 -0.000365 0
-0.000289 -0.000352 0
-0.000208 -0.000323 0
-0.000131 -0.000274 0
-0.000066 -0.000203 0
-0.000019 -0.000110 0
0.000000 -0.000029 0
0.000000 0.000000 0
0.000000 0.000000 0
0.000000 0.000000 0
0.000000 0.000403 0
0.000017 0.001157 0
0.000015 0.001549 0
-0.000025 0.001477 0
-0.000093 0.001214 0
-0.000172 0.000935 0
-0.000252 0.000712 0
-0.000328 0.000560 0
-0.000402 0.000463 0
-0.000476 0.000403 0
-0.000552 0.000366 0
-0.000629 0.000340 0
-0.000707 0.000319 0
-0.000784 0.000302 0
-0.000861 0.000287 0
-0.000937 0.000273 0
-0.001010 0.000260 0
-0.001082 0.000247 0
-0.001150 0.000236 0
-0.001216 0.000225 0
-0.001278 0.000216 0
-0.001337 0.000206 0
-0.001394 0.000197 0
-0.001447 0.000188 0
-0.001497 0.000178 0
-0.001545 0.000168 0
-0.001591 0.000157 0
-0.001635 0.000146 0
-0.001677 0.000133 0
-0.001717 0.000121 0
-0.001754 0.000111 0
-0.001790 0.000102 0
-0.001823 0.000097 0
-0.001855 0.000094 0
-0.001886 0.000094 0
-0.001917 0.000092 0
-0.001948 0.000085 0
-0.001980 0.000067 0
-0.002012 0.000033 0
-0.002042 -0.000018 0
-0.002069 -0.000083 0
-0.002091 -0.000151 0
-0.002108 -0.000204 0
-0.002122 -0.000214 0
-0.002140 -0.000152 0
-0.002168 0.000009 0
-0.002215 0.000278 0
-0.002290 0.000637 0
-0.002397 0.001031 0
-0.002531 0.001359 0
-0.002672 0.001483 0
-0.002784 0.001250 0
-0.002815 0.000524 0
-0.002706 -0.000758 0
-0.002404 -0.002508 0
-0.001886 -0.004382 0
-0.001186 -0.005628 0
-0.000445 -0.004872 0
0.000000 -0.001888 0
0.000000 0.002156 0
-0.000219 0.004564 0
-0.000679 0.003997 0
-0.001143 0.002409 0
-0.001504 0.001114 0
-0.001747 0.000266 0
-0.001888 -0.000245 0
-0.001950 -0.000535 0
-0.001955 -0.000687 0
-0.001921 -0.000754 0
-0.001860 -0.000771 0
-0.001784 -0.000757 0
-0.001699 -0.000726 0
-0.001610 -0.000685 0
-0.001520 -0.000641 0
-0.001432 -0.000595 0
-0.001347 -0.000551 0
-0.001266 -0.000510 0
-0.001190 -0.000472 0
-0.001118 -0.000440 0
-0.001050 -0.000414 0
-0.000985 -0.000394 0
-0.000924 -0.000380 0
-0.000865 -0.000375 0
-0.000806 -0.000376 0
-0.000747 -0.000384 0
-0.000686 -0.000397 0
-0.000621 -0.000413 0
-0.000552 -0.000430 0
-0.000477 -0.000442 0
-0.000397 -0.000447 0
-0.000313 -0.000436 0
-0.000227 -0.000405 0
-0.000145 -0.000348 0
-0.000074 -0.000262 0
-0.000022 -0.000145 0
0.000000 -0.000039 0
0.000000 0.000000 0
0.000000 0.000000 0
0.000000 0.000000 0
0.000000 0.000386 0
0.000045 0.001125 0
0.000102 0.001534 0
0.000134 0.001493 0
0.000134 0.001256 0
0.000111 0.000989 0
0.000076 0.000771 0
0.000036 0.000620 0
-0.000010 0.000525 0
-0.000061 0.000470 0
-0.000118 0.000436 0
-0.000181 0.000413 0
-0.000250 0.000396 0
-0.000322 0.000380 0
-0.000397 0.000364 0
-0.000473 0.000349 0
-0.000549 0.000335 0
-0.000625 0.000321 0
-0.000701 0.000307 0
-0.000774 0.000294 0
-0.000845 0.000280 0
-0.000913 0.000268 0
-0.000977 0.000255 0
-0.001037 0.000243 0
-0.001093 0.000231 0
-0.001147 0.000218 0
-0.001198 0.000205 0
-0.001247 0.000192 0
-0.001295 0.000178 0
-0.001341 0.000164 0
-0.001386 0.000151 0
-0.001429 0.000140 0
-0.001470 0.000133 0
-0.001509 0.000129 0
-0.001548 0.000128 0
-0.001587 0.000127 0
-0.001627 0.000121 0
-0.001668 0.000104 0
-0.001712 0.000071 0
-0.001756 0.000018 0
-0.001800 -0.000049 0
-0.001842 -0.000121 0
-0.001881 -0.000177 0
-0.001917 -0.000188 0
-0.001954 -0.000121 0
-0.001996 0.000051 0
-0.002048 0.000338 0
-0.002117 0.000722 0
-0.002204 0.001138 0
-0.002306 0.001477 0
-0.002407 0.001589 0
-0.002479 0.001303 0
-0.002482 0.000476 0
-0.002369 -0.000958 0
-0.002097 -0.002895 0
-0.001647 -0.004952 0
-0.001040 -0.006302 0
-0.000394 -0.005429 0
0.000000 -0.002097 0
0.000000 0.002258 0
-0.000191 0.004884 0
-0.000607 0.004439 0
-0.001037 0.002809 0
-0.001381 0.001412 0
-0.001619 0.000460 0
-0.001764 -0.000138 0
-0.001834 -0.000495 0
-0.001850 -0.000695 0
-0.001826 -0.000795 0
-0.001776 -0.000833 0
-0.001709 -0.000833 0
-0.001633 -0.000809 0
-0.001551 -0.000771 0
-0.001468 -0.000727 0
-0.001385 -0.000679 0
-0.001305 -0.000632 0
-0.001229 -0.000587 0
-0.001156 -0.000545 0
-0.001088 -0.000509 0
-0.001023 -0.000478 0
-0.000963 -0.000455 0
-0.000906 -0.000439 0
-0.000851 -0.000431 0
-0.000797 -0.000432 0
-0.000743 -0.000441 0
-0.000688 -0.000457 0
-0.000628 -0.000478 0
-0.000564 -0.000500 0
-0.000493 -0.000519 0
-0.000415 -0.000529 0
-0.000331 -0.000522 0
-0.000243 -0.000491 0
-0.000157 -0.000428 0
-0.000081 -0.000326 0
-0.000024 -0.000184 0
0.000000 -0.000051 0
0.000000 0.000000 0
0.000000 0.000000 0
0.000000 0.000000 0
0.000000 0.000358 0
0.000063 0.001055 0
0.000165 0.001459 0
0.000255 0.001445 0