# vtk DataFile Version 2.0
generated by CFD-lab course output (written by Tobias Neckel) 
ASCII

DATASET STRUCTURED_GRID
DIMENSIONS  99 49 1 
POINTS 4851 float

0.000000 0.000000 0
0.020000 0.000000 0
0.040000 0.000000 0
0.060000 0.000000 0
0.080000 0.000000 0
0.100000 0.000000 0
0.120000 0.000000 0
0.140000 0.000000 0
0.160000 0.000000 0
0.180000 0.000000 0
0.200000 0.000000 0
0.220000 0.000000 0
0.240000 0.000000 0
0.260000 0.000000 0
0.280000 0.000000 0
0.300000 0.000000 0
0.320000 0.000000 0
0.340000 0.000000 0
0.360000 0.000000 0
0.380000 0.000000 0
0.400000 0.000000 0
0.420000 0.000000 0
0.440000 0.000000 0
0.460000 0.000000 0
0.480000 0.000000 0
0.500000 0.000000 0
0.520000 0.000000 0
0.540000 0.000000 0
0.560000 0.000000 0
0.580000 0.000000 0
0.600000 0.000000 0
0.620000 0.000000 0
0.640000 0.000000 0
0.660000 0.000000 0
0.680000 0.000000 0
0.700000 0.000000 0
0.720000 0.000000 0
0.740000 0.000000 0
0.760000 0.000000 0
0.780000 0.000000 0
0.800000 0.000000 0
0.820000 0.000000 0
0.840000 0.000000 0
0.860000 0.000000 0
0.880000 0.000000 0
0.900000 0.000000 0
0.920000 0.000000 0
0.940000 0.000000 0
0.960000 0.000000 0
0.980000 0.000000 0
1.000000 0.000000 0
1.020000 0.000000 0
1.040000 0.000000 0
1.060000 0.000000 0
1.080000 0.000000 0
1.100000 0.000000 0
1.120000 0.000000 0
1.140000 0.000000 0
1.160000 0.000000 0
1.180000 0.000000 0
1.200000 0.000000 0
1.220000 0.000000 0
1.240000 0.000000 0
1.260000 0.000000 0
1.280000 0.000000 0
1.300000 0.000000 0
1.320000 0.000000 0
1.340000 0.000000 0
1.360000 0.000000 0
1.380000 0.000000 0
1.400000 0.000000 0
1.420000 0.000000 0
1.440000 0.000000 0
1.460000 0.000000 0
1.480000 0.000000 0
1.500000 0.000000 0
1.520000 0.000000 0
1.540000 0.000000 0
1.560000 0.000000 0
1.580000 0.000000 0
1.600000 0.000000 0
1.620000 0.000000 0
1.640000 0.000000 0
1.660000 0.000000 0
1.680000 0.000000 0
1.700000 0.000000 0
1.720000 0.000000 0
1.740000 0.000000 0
1.760000 0.000000 0
1.780000 0.000000 0
1.800000 0.000000 0
1.820000 0.000000 0
1.840000 0.000000 0
1.860000 0.000000 0
1.880000 0.000000 0
1.900000 0.000000 0
1.920000 0.000000 0
1.940000 0.000000 0
1.960000 0.000000 0
0.000000 0.020000 0
0.020000 0.020000 0
0.040000 0.020000 0
0.060000 0.020000 0
0.080000 0.020000 0
0.100000 0.020000 0
0.120000 0.020000 0
0.140000 0.020000 0
0.160000 0.020000 0
0.180000 0.020000 0
0.200000 0.020000 0
0.220000 0.020000 0
0.240000 0.020000 0
0.260000 0.020000 0
0.280000 0.020000 0
0.300000 0.020000 0
0.320000 0.020000 0
0.340000 0.020000 0
0.360000 0.020000 0
0.380000 0.020000 0
0.400000 0.020000 0
0.420000 0.020000 0
0.440000 0.020000 0
0.460000 0.020000 0
0.480000 0.020000 0
0.500000 0.020000 0
0.520000 0.020000 0
0.540000 0.020000 0
0.560000 0.020000 0
0.580000 0.020000 0
0.600000 0.020000 0
0.620000 0.020000 0
0.640000 0.020000 0
0.660000 0.020000 0
0.680000 0.020000 0
0.700000 0.020000 0
0.720000 0.020000 0
0.740000 0.020000 0
0.760000 0.020000 0
0.780000 0.020000 0
0.800000 0.020000 0
0.820000 0.020000 0
0.840000 0.020000 0
0.860000 0.020000 0
0.880000 0.020000 0
0.900000 0.020000 0
0.920000 0.020000 0
0.940000 0.020000 0
0.960000 0.020000 0
0.980000 0.020000 0
1.000000 0.020000 0
1.020000 0.020000 0
1.040000 0.020000 0
1.060000 0.020000 0
1.080000 0.020000 0
1.100000 0.020000 0
1.120000 0.020000 0
1.140000 0.020000 0
1.160000 0.020000 0
1.180000 0.020000 0
1.200000 0.020000 0
1.220000 0.020000 0
1.240000 0.020000 0
1.260000 0.020000 0
1.280000 0.020000 0
1.300000 0.020000 0
1.320000 0.020000 0
1.340000 0.020000 0
1.360000 0.020000 0
1.380000 0.020000 0
1.400000 0.020000 0
1.420000 0.020000 0
1.440000 0.020000 0
1.460000 0.020000 0
1.480000 0.020000 0
1.500000 0.020000 0
1.520000 0.020000 0
1.540000 0.020000 0
1.560000 0.020000 0
1.580000 0.020000 0
1.600000 0.020000 0
1.620000 0.020000 0
1.640000 0.020000 0
1.660000 0.020000 0
1.680000 0.020000 0
1.700000 0.020000 0
1.720000 0.020000 0
1.740000 0.020000 0
1.760000 0.020000 0
1.780000 0.020000 0
1.800000 0.020000 0
1.820000 0.020000 0
1.840000 0.020000 0
1.860000 0.020000 0
1.880000 0.020000 0
1.900000 0.020000 0
1.920000 0.020000 0
1.940000 0.020000 0
1.960000 0.020000 0
0.000000 0.040000 0
0.020000 0.040000 0
0.040000 0.040000 0
0.060000 0.040000 0
0.080000 0.040000 0
0.100000 0.040000 0
0.120000 0.040000 0
0.140000 0.040000 0
0.160000 0.040000 0
0.180000 0.040000 0
0.200000 0.040000 0
0.220000 0.040000 0
0.240000 0.040000 0
0.260000 0.040000 0
0.280000 0.040000 0
0.300000 0.040000 0
0.320000 0.040000 0
0.340000 0.040000 0
0.360000 0.040000 0
0.380000 0.040000 0
0.400000 0.040000 0
0.420000 0.040000 0
0.440000 0.040000 0
0.460000 0.040000 0
0.480000 0.040000 0
0.500000 0.040000 0
0.520000 0.040000 0
0.540000 0.040000 0
0.560000 0.040000 0
0.580000 0.040000 0
0.600000 0.040000 0
0.620000 0.040000 0
0.640000 0.040000 0
0.660000 0.040000 0
0.680000 0.040000 0
0.700000 0.040000 0
0.720000 0.040000 0
0.740000 0.040000 0
0.760000 0.040000 0
0.780000 0.040000 0
0.800000 0.040000 0
0.820000 0.040000 0
0.840000 0.040000 0
0.860000 0.040000 0
0.880000 0.040000 0
0.900000 0.040000 0
0.920000 0.040000 0
0.940000 0.040000 0
0.960000 0.040000 0
0.980000 0.040000 0
1.000000 0.040000 0
1.020000 0.040000 0
1.040000 0.040000 0
1.060000 0.040000 0
1.080000 0.040000 0
1.100000 0.040000 0
1.120000 0.040000 0
1.140000 0.040000 0
1.160000 0.040000 0
1.180000 0.040000 0
1.200000 0.040000 0
1.220000 0.040000 0
1.240000 0.040000 0
1.260000 0.040000 0
1.280000 0.040000 0
1.300000 0.040000 0
1.320000 0.040000 0
1.340000 0.040000 0
1.360000 0.040000 0
1.380000 0.040000 0
1.400000 0.040000 0
1.420000 0.040000 0
1.440000 0.040000 0
1.460000 0.040000 0
1.480000 0.040000 0
1.500000 0.040000 0
1.520000 0.040000 0
1.540000 0.040000 0
1.560000 0.040000 0
1.580000 0.040000 0
1.600000 0.040000 0
1.620000 0.040000 0
1.640000 0.040000 0
1.660000 0.040000 0
1.680000 0.040000 0
1.700000 0.040000 0
1.720000 0.040000 0
1.740000 0.040000 0
1.760000 0.040000 0
1.780000 0.040000 0
1.800000 0.040000 0
1.820000 0.040000 0
1.840000 0.040000 0
1.860000 0.040000 0
1.880000 0.040000 0
1.900000 0.040000 0
1.920000 0.040000 0
1.940000 0.040000 0
1.960000 0.040000 0
0.000000 0.060000 0
0.020000 0.060000 0
0.040000 0.060000 0
0.060000 0.060000 0
0.080000 0.060000 0
0.100000 0.060000 0
0.120000 0.060000 0
0.140000 0.060000 0
0.160000 0.060000 0
0.180000 0.060000 0
0.200000 0.060000 0
0.220000 0.060000 0
0.240000 0.060000 0
0.260000 0.060000 0
0.280000 0.060000 0
0.300000 0.060000 0
0.320000 0.060000 0
0.340000 0.060000 0
0.360000 0.060000 0
0.380000 0.060000 0
0.400000 0.060000 0
0.420000 0.060000 0
0.440000 0.060000 0
0.460000 0.060000 0
0.480000 0.060000 0
0.500000 0.060000 0
0.520000 0.060000 0
0.540000 0.060000 0
0.560000 0.060000 0
0.580000 0.060000 0
0.600000 0.060000 0
0.620000 0.060000 0
0.640000 0.060000 0
0.660000 0.060000 0
0.680000 0.060000 0
0.700000 0.060000 0
0.720000 0.060000 0
0.740000 0.060000 0
0.760000 0.060000 0
0.780000 0.060000 0
0.800000 0.060000 0
0.820000 0.060000 0
0.840000 0.060000 0
0.860000 0.060000 0
0.880000 0.060000 0
0.900000 0.060000 0
0.920000 0.060000 0
0.940000 0.060000 0
0.960000 0.060000 0
0.980000 0.060000 0
1.000000 0.060000 0
1.020000 0.060000 0
1.040000 0.060000 0
1.060000 0.060000 0
1.080000 0.060000 0
1.100000 0.060000 0
1.120000 0.060000 0
1.140000 0.060000 0
1.160000 0.060000 0
1.180000 0.060000 0
1.200000 0.060000 0
1.220000 0.060000 0
1.240000 0.060000 0
1.260000 0.060000 0
1.280000 0.060000 0
1.300000 0.060000 0
1.320000 0.060000 0
1.340000 0.060000 0
1.360000 0.060000 0
1.380000 0.060000 0
1.400000 0.060000 0
1.420000 0.060000 0
1.440000 0.060000 0
1.460000 0.060000 0
1.480000 0.060000 0
1.500000 0.060000 0
1.520000 0.060000 0
1.540000 0.060000 0
1.560000 0.060000 0
1.580000 0.060000 0
1.600000 0.060000 0
1.620000 0.060000 0
1.640000 0.060000 0
1.660000 0.060000 0
1.680000 0.060000 0
1.700000 0.060000 0
1.720000 0.060000 0
1.740000 0.060000 0
1.760000 0.060000 0
1.780000 0.060000 0
1.800000 0.060000 0
1.820000 0.060000 0
1.840000 0.060000 0
1.860000 0.060000 0
1.880000 0.060000 0
1.900000 0.060000 0
1.920000 0.060000 0
1.940000 0.060000 0
1.960000 0.060000 0
0.000000 0.080000 0
0.020000 0.080000 0
0.040000 0.080000 0
0.060000 0.080000 0
0.080000 0.080000 0
0.100000 0.080000 0
0.120000 0.080000 0
0.140000 0.080000 0
0.160000 0.080000 0
0.180000 0.080000 0
0.200000 0.080000 0
0.220000 0.080000 0
0.240000 0.080000 0
0.260000 0.080000 0
0.280000 0.080000 0
0.300000 0.080000 0
0.320000 0.080000 0
0.340000 0.080000 0
0.360000 0.080000 0
0.380000 0.080000 0
0.400000 0.080000 0
0.420000 0.080000 0
0.440000 0.080000 0
0.460000 0.080000 0
0.480000 0.080000 0
0.500000 0.080000 0
0.520000 0.080000 0
0.540000 0.080000 0
0.560000 0.080000 0
0.580000 0.080000 0
0.600000 0.080000 0
0.620000 0.080000 0
0.640000 0.080000 0
0.660000 0.080000 0
0.680000 0.080000 0
0.700000 0.080000 0
0.720000 0.080000 0
0.740000 0.080000 0
0.760000 0.080000 0
0.780000 0.080000 0
0.800000 0.080000 0
0.820000 0.080000 0
0.840000 0.080000 0
0.860000 0.080000 0
0.880000 0.080000 0
0.900000 0.080000 0
0.920000 0.080000 0
0.940000 0.080000 0
0.960000 0.080000 0
0.980000 0.080000 0
1.000000 0.080000 0
1.020000 0.080000 0
1.040000 0.080000 0
1.060000 0.080000 0
1.080000 0.080000 0
1.100000 0.080000 0
1.120000 0.080000 0
1.140000 0.080000 0
1.160000 0.080000 0
1.180000 0.080000 0
1.200000 0.080000 0
1.220000 0.080000 0
1.240000 0.080000 0
1.260000 0.080000 0
1.280000 0.080000 0
1.300000 0.080000 0
1.320000 0.080000 0
1.340000 0.080000 0
1.360000 0.080000 0
1.380000 0.080000 0
1.400000 0.080000 0
1.420000 0.080000 0
1.440000 0.080000 0
1.460000 0.080000 0
1.480000 0.080000 0
1.500000 0.080000 0
1.520000 0.080000 0
1.540000 0.080000 0
1.560000 0.080000 0
1.580000 0.080000 0
1.600000 0.080000 0
1.620000 0.080000 0
1.640000 0.080000 0
1.660000 0.080000 0
1.680000 0.080000 0
1.700000 0.080000 0
1.720000 0.080000 0
1.740000 0.080000 0
1.760000 0.080000 0
1.780000 0.080000 0
1.800000 0.080000 0
1.820000 0.080000 0
1.840000 0.080000 0
1.860000 0.080000 0
1.880000 0.080000 0
[...]
POINT_DATA 4851 

VECTORS velocity float
0.000000 0.000000 0
-0.000456 0.000000 0
-0.000596 0.000000 0
-0.000543 0.000000 0
-0.000452 0.000000 0
-0.000373 0.000000 0
-0.000311 0.000000 0
-0.000264 0.000000 0
-0.000228 0.000000 0
-0.000200 0.000000 0
-0.000178 0.000000 0
-0.000159 0.000000 0
-0.000144 0.000000 0
-0.000131 0.000000 0
-0.000120 0.000000 0
-0.000110 0.000000 0
-0.000102 0.000000 0
-0.000094 0.000000 0
-0.000087 0.000000 0
-0.000081 0.000000 0
-0.000074 0.000000 0
-0.000068 0.000000 0
-0.000062 0.000000 0
-0.000056 0.000000 0
-0.000049 0.000000 0
-0.000043 0.000000 0
-0.000036 0.000000 0
-0.000030 0.000000 0
-0.000023 0.000000 0
-0.000017 0.000000 0
-0.000012 0.000000 0
-0.000007 0.000000 0
-0.000003 0.000000 0
-0.000001 0.000000 0
0.000001 0.000000 0
0.000001 0.000000 0
0.000000 0.000000 0
0.000000 0.000000 0
0.000000 0.000000 0
0.000000 0.000000 0
0.000000 0.000000 0
-0.000091 0.000000 0
-0.000226 0.000000 0
-0.000325 0.000000 0
-0.000379 0.000000 0
-0.000402 0.000000 0
-0.000410 0.000000 0
-0.000413 0.000000 0
-0.000413 0.000000 0
-0.000413 0.000000 0
-0.000413 0.000000 0
-0.000412 0.000000 0
-0.000410 0.000000 0
-0.000409 0.000000 0
-0.000407 0.000000 0
-0.000406 0.000000 0
-0.000404 0.000000 0
-0.000402 0.000000 0
-0.000400 0.000000 0
-0.000398 0.000000 0
-0.000395 0.000000 0
-0.000393 0.000000 0
-0.000391 0.000000 0
-0.000389 0.000000 0
-0.000387 0.000000 0
-0.000385 0.000000 0
-0.000384 0.000000 0
-0.000383 0.000000 0
-0.000384 0.000000 0
-0.000385 0.000000 0
-0.000389 0.000000 0
-0.000393 0.000000 0
-0.000399 0.000000 0
-0.000407 0.000000 0
-0.000415 0.000000 0
-0.000423 0.000000 0
-0.000430 0.000000 0
-0.000435 0.000000 0
-0.000436 0.000000 0
-0.000433 0.000000 0
-0.000424 0.000000 0
-0.000409 0.000000 0
-0.000390 0.000000 0
-0.000370 0.000000 0
-0.000352 0.000000 0
-0.000344 0.000000 0
-0.000350 0.000000 0
-0.000376 0.000000 0
-0.000427 0.000000 0
-0.000502 0.000000 0
-0.000598 0.000000 0
-0.000706 0.000000 0
-0.000805 0.000000 0
-0.000869 0.000000 0
-0.000862 0.000000 0
-0.000749 0.000000 0
-0.000514 0.000000 0
-0.000209 0.000000 0
0.000000 0.000000 0
0.000000 0.000457 0
-0.000913 0.000597 0
-0.001399 0.000088 0
-0.001452 -0.000143 0
-0.001334 -0.000170 0
-0.001179 -0.000141 0
-0.001033 -0.000108 0
-0.000908 -0.000082 0
-0.000804 -0.000064 0
-0.000716 -0.000051 0
-0.000643 -0.000041 0
-0.000581 -0.000034 0
-0.000528 -0.000028 0
-0.000483 -0.000024 0
-0.000444 -0.000020 0
-0.000410 -0.000018 0
-0.000379 -0.000016 0
-0.000351 -0.000014 0
-0.000325 -0.000013 0
-0.000301 -0.000012 0
-0.000278 -0.000012 0
-0.000255 -0.000012 0
-0.000232 -0.000012 0
-0.000209 -0.000012 0
-0.000185 -0.000012 0
-0.000161 -0.000013 0
-0.000138 -0.000013 0
-0.000114 -0.000012 0
-0.000091 -0.000012 0
-0.000069 -0.000011 0
-0.000049 -0.000010 0
-0.000032 -0.000008 0
-0.000018 -0.000006 0
-0.000008 -0.000003 0
-0.000002 -0.000001 0
0.000000 0.000001 0
0.000000 0.000001 0
0.000000 0.000000 0
0.000000 0.000000 0
0.000000 0.000000 0
0.000000 0.000091 0
-0.000240 0.000225 0
-0.000602 0.000233 0
-0.000897 0.000152 0
-0.001085 0.000076 0
-0.001189 0.000031 0
-0.001245 0.000010 0
-0.001274 0.000002 0
-0.001291 -0.000000 0
-0.001302 -0.000002 0
-0.001309 -0.000002 0
-0.001313 -0.000003 0
-0.001316 -0.000003 0
-0.001318 -0.000004 0
-0.001319 -0.000004 0
-0.001319 -0.000004 0
-0.001318 -0.000005 0
-0.001317 -0.000005 0
-0.001315 -0.000005 0
-0.001313 -0.000005 0
-0.001310 -0.000005 0
-0.001307 -0.000005 0
-0.001304 -0.000005 0
-0.001301 -0.000005 0
-0.001298 -0.000004 0
-0.001296 -0.000004 0
-0.001296 -0.000003 0
-0.001298 -0.000001 0
-0.001302 0.000001 0
-0.001311 0.000004 0
-0.001323 0.000007 0
-0.001340 0.000010 0
-0.001361 0.000013 0
-0.001385 0.000015 0
-0.001410 0.000016 0
-0.001434 0.000015 0
-0.001453 0.000011 0
-0.001463 0.000006 0
-0.001462 -0.000003 0
-0.001446 -0.000013 0
-0.001414 -0.000024 0
-0.001366 -0.000034 0
-0.001309 -0.000040 0
-0.001251 -0.000038 0
-0.001207 -0.000027 0
-0.001194 -0.000003 0
-0.001229 0.000032 0
-0.001326 0.000076 0
-0.001493 0.000125 0
-0.001727 0.000171 0
-0.002008 0.000204 0
-0.002299 0.000207 0
-0.002539 0.000163 0
-0.002649 0.000056 0
-0.002538 -0.000121 0
-0.002131 -0.000348 0
-0.001424 -0.000540 0
-0.000569 -0.000515 0
0.000000 -0.000210 0
0.000000 0.000914 0
-0.000808 0.001400 0
-0.001547 0.000539 0
-0.001871 -0.000065 0
-0.001911 -0.000272 0
-0.001819 -0.000300 0
-0.001678 -0.000270 0
-0.001529 -0.000229 0
-0.001388 -0.000192 0
-0.001260 -0.000160 0
-0.001147 -0.000135 0
-0.001048 -0.000114 0
-0.000961 -0.000097 0
-0.000885 -0.000084 0
-0.000817 -0.000073 0
-0.000757 -0.000065 0
-0.000702 -0.000058 0
-0.000652 -0.000053 0
-0.000605 -0.000049 0
-0.000561 -0.000047 0
-0.000518 -0.000046 0
-0.000476 -0.000045 0
-0.000433 -0.000046 0
-0.000391 -0.000046 0
-0.000348 -0.000047 0
-0.000305 -0.000047 0
-0.000262 -0.000047 0
-0.000219 -0.000046 0
-0.000177 -0.000044 0
-0.000137 -0.000041 0
-0.000101 -0.000037 0
-0.000068 -0.000031 0
-0.000042 -0.000024 0
-0.000021 -0.000016 0
-0.000008 -0.000007 0
-0.000001 -0.000001 0
0.000000 0.000001 0
0.000000 0.000000 0
0.000000 0.000000 0
0.000000 0.000000 0
0.000000 0.000239 0
-0.000290 0.000601 0
-0.000754 0.000657 0
-0.001175 0.000482 0
-0.001483 0.000291 0
-0.001684 0.000159 0
-0.001810 0.000084 0
-0.001890 0.000046 0
-0.001943 0.000027 0
-0.001981 0.000017 0
-0.002009 0.000011 0
-0.002032 0.000007 0
-0.002051 0.000004 0
-0.002067 0.000002 0
-0.002081 -0.000000 0
-0.002093 -0.000002 0
-0.002103 -0.000003 0
-0.002112 -0.000004 0
-0.002120 -0.000005 0
-0.002126 -0.000006 0
-0.002131 -0.000006 0
-0.002135 -0.000007 0
-0.002138 -0.000007 0
-0.002141 -0.000007 0
-0.002144 -0.000006 0
-0.002148 -0.000003 0
-0.002155 0.000000 0
-0.002164 0.000006 0
-0.002178 0.000012 0
-0.002196 0.000020 0
-0.002221 0.000029 0
-0.002250 0.000037 0
-0.002285 0.000044 0
-0.002323 0.000048 0
-0.002360 0.000048 0
-0.002393 0.000042 0
-0.002417 0.000029 0
-0.002427 0.000009 0
-0.002418 -0.000018 0
-0.002386 -0.000049 0
-0.002332 -0.000081 0
-0.002258 -0.000106 0
-0.002175 -0.000116 0
-0.002098 -0.000102 0
-0.002049 -0.000058 0
-0.002051 0.000021 0
-0.002128 0.000131 0
-0.002297 0.000263 0
-0.002562 0.000400 0
-0.002908 0.000514 0
-0.003298 0.000572 0
-0.003666 0.000531 0
-0.003920 0.000349 0
-0.003953 -0.000001 0
-0.003656 -0.000518 0
-0.002964 -0.001115 0
-0.001918 -0.001563 0
-0.000746 -0.001424 0
0.000000 -0.000569 0
0.000000 0.001265 0
-0.000614 0.002144 0
-0.001382 0.001151 0
-0.001870 0.000222 0
-0.002073 -0.000222 0
-0.002096 -0.000374 0
-0.002022 -0.000397 0
-0.001905 -0.000372 0
-0.001774 -0.000332 0
-0.001642 -0.000291 0
-0.001517 -0.000253 0
-0.001402 -0.000220 0
-0.001298 -0.000191 0
-0.001204 -0.000168 0
-0.001118 -0.000148 0
-0.001040 -0.000132 0
-0.000969 -0.000120 0
-0.000903 -0.000111 0
-0.000841 -0.000104 0
-0.000781 -0.000099 0
-0.000723 -0.000097 0
-0.000665 -0.000096 0
-0.000608 -0.000096 0
-0.000550 -0.000097 0
-0.000492 -0.000098 0
-0.000433 -0.000099 0
-0.000373 -0.000099 0
-0.000315 -0.000097 0
-0.000257 -0.000093 0
-0.000203 -0.000087 0
-0.000152 -0.000078 0
-0.000106 -0.000067 0
-0.000068 -0.000053 0
-0.000038 -0.000037 0
-0.000016 -0.000021 0
-0.000004 -0.000007 0
0.000000 -0.000000 0
0.000000 0.000000 0
0.000000 0.000000 0
0.000000 0.000000 0
0.000000 0.000380 0
-0.000250 0.000978 0
-0.000689 0.001118 0
-0.001125 0.000881 0
-0.001476 0.000584 0
-0.001730 0.000358 0
-0.001906 0.000216 0
-0.002030 0.000135 0
-0.002120 0.000090 0
-0.002189 0.000065 0
-0.002246 0.000049 0
-0.002294 0.000039 0
-0.002337 0.000031 0
-0.002375 0.000026 0
-0.002410 0.000021 0
-0.002442 0.000017 0
-0.002471 0.000014 0
-0.002497 0.000011 0
-0.002522 0.000009 0
-0.002543 0.000006 0
-0.002563 0.000004 0
-0.002580 0.000002 0
-0.002596 0.000001 0
-0.002611 0.000001 0
-0.002625 0.000003 0
-0.002640 0.000006 0
-0.002657 0.000013 0
-0.002676 0.000022 0
-0.002700 0.000033 0
-0.002729 0.000047 0
-0.002763 0.000061 0
-0.002802 0.000075 0
-0.002845 0.000085 0
-0.002890 0.000090 0
-0.002932 0.000086 0
-0.002968 0.000072 0
-0.002992 0.000045 0
-0.002998 0.000006 0
-0.002982 -0.000044 0
-0.002941 -0.000100 0
-0.002878 -0.000153 0
-0.002796 -0.000191 0
-0.002710 -0.000200 0
-0.002637 -0.000165 0
-0.002600 -0.000074 0
-0.002625 0.000076 0
-0.002733 0.000278 0
-0.002938 0.000509 0
-0.003238 0.000736 0
-0.003610 0.000908 0
-0.004002 0.000961 0
-0.004338 0.000829 0
-0.004519 0.000450 0
-0.004437 -0.000208 0
-0.003994 -0.001110 0
-0.003155 -0.002087 0
-0.001991 -0.002759 0
-0.000752 -0.002433 0
0.000000 -0.000955 0
0.000000 0.001529 0
-0.000470 0.002783 0
-0.001185 0.001794 0
-0.001734 0.000626 0
-0.002043 -0.000046 0
-0.002165 -0.000351 0
-0.002167 -0.000460 0
-0.002102 -0.000478 0
-0.002002 -0.000455 0
-0.001887 -0.000416 0
-0.001769 -0.000374 0
-0.001655 -0.000333 0
-0.001546 -0.000296 0
-0.001445 -0.000264 0
-0.001351 -0.000236 0
-0.001264 -0.000213 0
-0.001183 -0.000195 0
-0.001107 -0.000181 0
-0.001034 -0.000171 0
-0.000964 -0.000165 0
-0.000896 -0.000161 0
-0.000827 -0.000160 0
-0.000759 -0.000161 0
-0.000689 -0.000162 0
-0.000619 -0.000164 0
-0.000547 -0.000165 0
-0.000475 -0.000165 0
-0.000403 -0.000162 0
-0.000333 -0.000156 0
-0.000265 -0.000147 0
-0.000201 -0.000133 0
-0.000144 -0.000114 0
-0.000094 -0.000092 0
-0.000054 -0.000067 0
-0.000024 -0.000041 0
-0.000006 -0.000017 0
0.000000 -0.000003 0
0.000000 0.000000 0
0.000000 0.000000 0
0.000000 0.000000 0
0.000000 0.000489 0
-0.000179 0.001289 0
-0.000530 0.001531 0
-0.000913 0.001268 0
-0.001246 0.000895 0
-0.001507 0.000589 0
-0.001703 0.000384 0
-0.001850 0.000259 0
-0.001967 0.000186 0
-0.002063 0.000143 0
-0.002146 0.000116 0
-0.002220 0.000098 0
-0.002289 0.000085 0
-0.002353 0.000074 0
-0.002412 0.000066 0
-0.002468 0.000059 0
-0.002520 0.000052 0
-0.002569 0.000046 0
-0.002613 0.000041 0
-0.002655 0.000035 0
-0.002693 0.000030 0
-0.002728 0.000026 0
-0.002760 0.000023 0
-0.002790 0.000022 0
-0.002819 0.000024 0
-0.002847 0.000028 0
-0.002876 0.000036 0
-0.002907 0.000049 0
-0.002941 0.000064 0
-0.002979 0.000083 0
-0.003021 0.000102 0
-0.003067 0.000119 0
-0.003115 0.000132 0
-0.003163 0.000135 0
-0.003208 0.000126 0
-0.003244 0.000101 0
-0.003267 0.000058 0
-0.003272 -0.000001 0
-0.003254 -0.000075 0
-0.003214 -0.000154 0
-0.003152 -0.000226 0
-0.003078 -0.000273 0
-0.003003 -0.000275 0
-0.002945 -0.000212 0
-0.002926 -0.000070 0
-0.002969 0.000153 0
-0.003091 0.000444 0
-0.003301 0.000769 0
-0.003591 0.001071 0
-0.003932 0.001278 0
-0.004272 0.001300 0
-0.004532 0.001048 0
-0.004620 0.000447 0
-0.004441 -0.000527 0
-0.003919 -0.001800 0
-0.003043 -0.003119 0
-0.001888 -0.003966 0
-0.000699 -0.003415 0
0.000000 -0.001321 0
0.000000 0.001735 0
-0.000374 0.003329 0
-0.001018 0.002415 0
-0.001573 0.001080 0
-0.001936 0.000209 0
-0.002127 -0.000250 0
-0.002193 -0.000460 0
-0.002178 -0.000537 0
-0.002116 -0.000547 0
-0.002027 -0.000523 0
-0.001926 -0.000485 0
-0.001822 -0.000443 0
-0.001718 -0.000401 0
-0.001618 -0.000362 0
-0.001524 -0.000329 0
-0.001434 -0.000300 0
-0.001349 -0.000277 0
-0.001269 -0.000259 0
-0.001191 -0.000246 0
-0.001115 -0.000238 0
-0.001040 -0.000234 0
-0.000965 -0.000233 0
-0.000889 -0.000234 0
-0.000811 -0.000237 0
-0.000732 -0.000240 0
-0.000651 -0.000242 0
-0.000568 -0.000242 0
-0.000486 -0.000239 0
-0.000404 -0.000231 0
-0.000325 -0.000218 0
-0.000249 -0.000199 0
-0.000181 -0.000174 0
-0.000120 -0.000142 0
-0.000070 -0.000107 0
-0.000032 -0.000068 0
-0.000009 -0.000031 0
0.000000 -0.000007 0
0.000000 0.000000 0
0.000000 0.000000 0
0.000000 0.000000 0
0.000000 0.000558 0
-0.000103 0.001508 0
-0.000344 0.001852 0
-0.000637 0.001596 0
-0.000914 0.001178 0
-0.001145 0.000814 0
-0.001330 0.000559 0
-0.001479 0.000399 0
-0.001604 0.000302 0
-0.001715 0.000244 0
-0.001817 0.000207 0
-0.001912 0.000182 0
-0.002004 0.000163 0
-0.002092 0.000149 0
-0.002176 0.000136 0
-0.002256 0.000125 0
-0.002332 0.000115 0
-0.002405 0.000105 0
-0.002472 0.000095 0
-0.002536 0.000085 0
-0.002595 0.000076 0
-0.002649 0.000069 0
-0.002700 0.000063 0
-0.002747 0.000059 0
-0.002791 0.000059 0
-0.002834 0.000063 0
-0.002876 0.000073 0
-0.002919 0.000087 0
-0.002963 0.000105 0
-0.003010 0.000127 0
-0.003059 0.000149 0
-0.003110 0.000169 0
-0.003162 0.000181 0
-0.003212 0.000182 0
-0.003258 0.000167 0
-0.003296 0.000131 0
-0.003320 0.000072 0
-0.003327 -0.000007 0
-0.003314 -0.000102 0
-0.003281 -0.000202 0
-0.003232 -0.000289 0
-0.003173 -0.000341 0
-0.003117 -0.000333 0
-0.003080 -0.000241 0
-0.003078 -0.000050 0
-0.003131 0.000240 0
-0.003251 0.000609 0
-0.003442 0.001009 0
-0.003692 0.001368 0
-0.003974 0.001588 0
-0.004235 0.001561 0
-0.004408 0.001177 0
-0.004412 0.000358 0
-0.004170 -0.000909 0
-0.003630 -0.002508 0
-0.002790 -0.004118 0
-0.001718 -0.005102 0
-0.000631 -0.004321 0
0.000000 -0.001654 0
0.000000 0.001903 0
-0.000308 0.003802 0
-0.000886 0.002994 0
-0.001422 0.001544 0
-0.001806 0.000508 0
-0.002039 -0.000094 0
-0.002151 -0.000409 0
-0.002178 -0.000554 0
-0.002151 -0.000606 0
-0.002090 -0.000606 0
-0.002010 -0.000579 0
-0.001920 -0.000541 0
-0.001827 -0.000499 0
-0.001734 -0.000458 0
-0.001644 -0.000420 0
-0.001557 -0.000387 0
-0.001474 -0.000360 0
-0.001393 -0.000340 0
-0.001314 -0.000325 0
-0.001236 -0.000315 0
-0.001159 -0.000311 0
-0.001080 -0.000311 0
-0.001000 -0.000314 0
-0.000918 -0.000319 0
-0.000832 -0.000324 0
-0.000745 -0.000328 0
-0.000654 -0.000329 0
-0.000563 -0.000326 0
-0.000472 -0.000317 0
-0.000382 -0.000301 0
-0.000296 -0.000276 0
-0.000216 -0.000244 0
-0.000145 -0.000203 0
-0.000086 -0.000155 0
-0.000040 -0.000103 0
-0.000011 -0.000049 0
0.000000 -0.000011 0
0.000000 0.000000 0
0.000000 0.000000 0
0.000000 0.000000 0
0.000000 0.000591 0
-0.000037 0.001633 0
-0.000167 0.002065 0
-0.000356 0.001837 0
-0.000555 0.001404 0
-0.000734 0.001005 0
-0.000886 0.000717 0
-0.001015 0.000533 0
-0.001131 0.000422 0
-0.001241 0.000355 0
-0.001349 0.000313 0
-0.001455 0.000285 0
-0.001562 0.000263 0
-0.001668 0.000246 0
-0.001772 0.000230 0
-0.001874 0.000215 0
-0.001974 0.000201 0
-0.002069 0.000186 0
-0.002160 0.000172 0
-0.002246 0.000157 0
-0.002327 0.000143 0
-0.002403 0.000131 0
-0.002473 0.000121 0
-0.002538 0.000113 0
-0.002600 0.000111 0
-0.002658 0.000113 0
-0.002714 0.000121 0
-0.002768 0.000135 0
-0.002822 0.000155 0
-0.002877 0.000178 0
-0.002932 0.000202 0
-0.002988 0.000222 0
-0.003043 0.000234 0
-0.003096 0.000231 0
-0.003143 0.000209 0
-0.003183 0.000162 0
-0.003211 0.000090 0
-0.003224 -0.000007 0
-0.003221 -0.000121 0
-0.003201 -0.000236 0
-0.003170 -0.000334 0
-0.003133 -0.000388 0
-0.003100 -0.000369 0
-0.003083 -0.000251 0
-0.003096 -0.000019 0
-0.003152 0.000326 0
-0.003257 0.000755 0
-0.003413 0.001210 0
-0.003609 0.001603 0
-0.003816 0.001821 0
-0.003992 0.001734 0
-0.004081 0.001225 0
-0.004018 0.000210 0
-0.003747 -0.001309 0
-0.003232 -0.003180 0
-0.002473 -0.005031 0
-0.001523 -0.006125 0
-0.000561 -0.005134 0
0.000000 -0.001953 0
0.000000 0.002043 0
-0.000261 0.004216 0
-0.000782 0.003530 0
-0.001291 0.002000 0
-0.001677 0.000826 0
-0.001931 0.000095 0
-0.002073 -0.000320 0
-0.002132 -0.000537 0
-0.002134 -0.000635 0
-0.002098 -0.000664 0
-0.002038 -0.000655 0
-0.001965 -0.000625 0
-0.001885 -0.000586 0
-0.001803 -0.000545 0
-0.001720 -0.000505 0
-0.001640 -0.000470 0
-0.001561 -0.000441 0
-0.001484 -0.000418 0
-0.001408 -0.000402 0
-0.001332 -0.000393 0
-0.001255 -0.000390 0
-0.001177 -0.000391 0
-0.001096 -0.000397 0
-0.001011 -0.000405 0
-0.000923 -0.000413 0
-0.000830 -0.000420 0
-0.000734 -0.000424 0
-0.000636 -0.000422 0
-0.000536 -0.000412 0
-0.000437 -0.000394 0
-0.000341 -0.000364 0
-0.000251 -0.000324 0
-0.000170 -0.000273 0
-0.000101 -0.000212 0
-0.000048 -0.000143 0
-0.000013 -0.000071 0
0.000000 -0.000017 0
0.000000 0.000000 0
0.000000 0.000000 0
0.000000 0.000000 0
0.000000 0.000595 0
0.000014 0.001674 0
-0.000016 0.002170 0
-0.000103 0.001984 0
-0.000218 0.001556 0
-0.000333 0.001145 0
-0.000438 0.000840 0
-0.000532 0.000644 0
-0.000623 0.000528 0
-0.000716 0.000461 0
-0.000815 0.000421 0
-0.000919 0.000395 0
-0.001029 0.000376 0
-0.001143 0.000359 0
-0.001259 0.000343 0
-0.001377 0.000326 0
-0.001495 0.000309 0
-0.001610 0.000291 0
-0.001723 0.000272 0
-0.001832 0.000252 0
-0.001936 0.000233 0
-0.002033 0.000214 0
-0.002125 0.000198 0
-0.002210 0.000186 0
-0.002290 0.000178 0
-0.002364 0.000177 0
-0.002434 0.000183 0
-0.002500 0.000195 0
-0.002564 0.000214 0
-0.002627 0.000236 0
-0.002688 0.000260 0
-0.002748 0.000279 0
-0.002806 0.000289 0
-0.002860 0.000283 0
-0.002910 0.000254 0
-0.002953 0.000198 0
-0.002987 0.000113 0
-0.003009 0.000002 0
-0.003018 -0.000125 0
-0.003016 -0.000253 0
-0.003006 -0.000358 0
-0.002993 -0.000411 0
-0.002984 -0.000383 0
-0.002987 -0.000245 0
-0.003011 0.000018 0
-0.003064 0.000401 0
-0.003148 0.000871 0
-0.003263 0.001361 0
-0.003397 0.001770 0
-0.003528 0.001972 0
-0.003622 0.001825 0
-0.003636 0.001203 0
-0.003525 0.000025 0
-0.003249 -0.001695 0
-0.002785 -0.003783 0
-0.002129 -0.005828 0
-0.001319 -0.007014 0
-0.000491 -0.005844 0
0.000000 -0.002216 0
0.000000 0.002164 0
-0.000227 0.004585 0
-0.000699 0.004024 0
-0.001178 0.002439 0
-0.001556 0.001148 0
-0.001818 0.000302 0
-0.001979 -0.000206 0
-0.002060 -0.000493 0
-0.002084 -0.000640 0
-0.002068 -0.000702 0
-0.002027 -0.000712 0
-0.001970 -0.000694 0
-0.001903 -0.000661 0
-0.001833 -0.000622 0
-0.001761 -0.000582 0
-0.001689 -0.000546 0
-0.001617 -0.000516 0
-0.001547 -0.000492 0
-0.001476 -0.000476 0
-0.001405 -0.000468 0
-0.001332 -0.000466 0
-0.001256 -0.000471 0
-0.001177 -0.000480 0
-0.001093 -0.000492 0
-0.001003 -0.000505 0
-0.000909 -0.000516 0
-0.000809 -0.000523 0
-0.000705 -0.000524 0
-0.000599 -0.000516 0
-0.000491 -0.000495 0
-0.000386 -0.000462 0
-0.000286 -0.000414 0
-0.000195 -0.000352 0
-0.000117 -0.000277 0
-0.000055 -0.000191 0
-0.000015 -0.000097 0
0.000000 -0.000024 0
0.000000 0.000000 0
0.000000 0.000000 0
0.000000 0.000000 0
0.000000 0.000577 0
0.000052 0.001649 0
0.000102 0.002182 0
0.000107 0.002039 0
0.000073 0.001634 0
0.000022 0.001225 0
-0.000030 0.000916 0
-0.000083 0.000718 0
-0.000138 0.000605 0
-0.000201 0.000546 0
-0.000275 0.000515 0
-0.000362 0.000499 0
-0.000460 0.000487 0
-0.000568 0.000476 0
-0.000684 0.000464 0
-0.000807 0.000450 0
-0.000934 0.000434 0
-0.001064 0.000415 0
-0.001196 0.000393 0
-0.001326 0.000370 0
-0.001453 0.000345 0
-0.001575 0.000320 0
-0.001691 0.000297 0
-0.001798 0.000278 0
-0.001898 0.000264 0
-0.001990 0.000257 0
-0.002075 0.000258 0
-0.002154 0.000266 0
-0.002228 0.000281 0
-0.002298 0.000301 0
-0.002365 0.000322 0
-0.002428 0.000340 0
-0.002488 0.000346 0
-0.002545 0.000336 0
-0.002597 0.000302 0
-0.002644 0.000239 0
-0.002684 0.000145 0
-0.002716 0.000024 0
-0.002740 -0.000113 0
-0.002757 -0.000249 0
-0.002769 -0.000358 0
-0.002780 -0.000410 0
-0.002795 -0.000375 0
-0.002816 -0.000224 0
-0.002849 0.000058 0
-0.002897 0.000463 0
-0.002958 0.000954 0
-0.003031 0.001459 0
-0.003106 0.001868 0
-0.003165 0.002045 0
-0.003185 0.001842 0
-0.003137 0.001127 0
-0.002992 -0.000178 0
-0.002726 -0.002049 0
-0.002326 -0.004300 0
-0.001782 -0.006497 0
-0.001114 -0.007763 0
-0.000422 -0.006452 0
0.000000 -0.002444 0
0.000000 0.002270 0
-0.000200 0.004916 0
-0.000631 0.004481 0
-0.001080 0.002858 0
-0.001446 0.001466 0
-0.001708 0.000517 0
-0.001878 -0.000078 0
-0.001973 -0.000431 0
-0.002013 -0.000626 0
-0.002013 -0.000721 0
-0.001987 -0.000753 0
-0.001945 -0.000749 0
-0.001891 -0.000723 0
-0.001833 -0.000687 0
-0.001771 -0.000649 0
-0.001709 -0.000614 0
-0.001647 -0.000583 0
-0.001585 -0.000559 0
-0.001522 -0.000544 0
-0.001457 -0.000537 0
-0.001390 -0.000538 0
-0.001319 -0.000546 0
-0.001244 -0.000560 0
-0.001163 -0.000578 0
-0.001075 -0.000597 0
-0.000980 -0.000614 0
-0.000878 -0.000627 0
-0.000771 -0.000632 0
-0.000659 -0.000626 0
-0.000544 -0.000606 0
-0.000430 -0.000569 0
-0.000321 -0.000515 0
-0.000220 -0.000442 0
-0.000132 -0.000351 0
-0.000063 -0.000245 0
-0.000017 -0.000126 0
0.000000 -0.000032 0
0.000000 0.000000 0
0.000000 0.000000 0
0.000000 0.000000 0
0.000000 0.000543 0
0.000077 0.001572 0