# vtk DataFile Version 2.0
generated by CFD-lab course output (written by Tobias Neckel) 
ASCII

DATASET STRUCTURED_GRID
DIMENSIONS  99 49 1 
POINTS 4851 float

0.000000 0.000000 0
0.020000 0.000000 0
0.040000 0.000000 0
0.060000 0.000000 0
0.080000 0.000000 0
0.100000 0.000000 0
0.120000 0.000000 0
0.140000 0.000000 0
0.160000 0.000000 0
0.180000 0.000000 0
0.200000 0.000000 0
0.220000 0.000000 0
0.240000 0.000000 0
0.260000 0.000000 0
0.280000 0.000000 0
0.300000 0.000000 0
0.320000 0.000000 0
0.340000 0.000000 0
0.360000 0.000000 0
0.380000 0.000000 0
0.400000 0.000000 0
0.420000 0.000000 0
0.440000 0.000000 0
0.460000 0.000000 0
0.480000 0.000000 0
0.500000 0.000000 0
0.520000 0.000000 0
0.540000 0.000000 0
0.560000 0.000000 0
0.580000 0.000000 0
0.600000 0.000000 0
0.620000 0.000000 0
0.640000 0.000000 0
0.660000 0.000000 0
0.680000 0.000000 0
0.700000 0.000000 0
0.720000 0.000000 0
0.740000 0.000000 0
0.760000 0.000000 0
0.780000 0.000000 0
0.800000 0.000000 0
0.820000 0.000000 0
0.840000 0.000000 0
0.860000 0.000000 0
0.880000 0.000000 0
0.900000 0.000000 0
0.920000 0.000000 0
0.940000 0.000000 0
0.960000 0.000000 0
0.980000 0.000000 0
1.000000 0.000000 0
1.020000 0.000000 0
1.040000 0.000000 0
1.060000 0.000000 0
1.080000 0.000000 0
1.100000 0.000000 0
1.120000 0.000000 0
1.140000 0.000000 0
1.160000 0.000000 0
1.180000 0.000000 0
1.200000 0.000000 0
1.220000 0.000000 0
1.240000 0.000000 0
1.260000 0.000000 0
1.280000 0.000000 0
1.300000 0.000000 0
1.320000 0.000000 0
1.340000 0.000000 0
1.360000 0.000000 0
1.380000 0.000000 0
1.400000 0.000000 0
1.420000 0.000000 0
1.440000 0.000000 0
1.460000 0.000000 0
1.480000 0.000000 0
1.500000 0.000000 0
1.520000 0.000000 0
1.540000 0.000000 0
1.560000 0.000000 0
1.580000 0.000000 0
1.600000 0.000000 0
1.620000 0.000000 0
1.640000 0.000000 0
1.660000 0.000000 0
1.680000 0.000000 0
1.700000 0.000000 0
1.720000 0.000000 0
1.740000 0.000000 0
1.760000 0.000000 0
1.780000 0.000000 0
1.800000 0.000000 0
1.820000 0.000000 0
1.840000 0.000000 0
1.860000 0.000000 0
1.880000 0.000000 0
1.900000 0.000000 0
1.920000 0.000000 0
1.940000 0.000000 0
1.960000 0.000000 0
0.000000 0.020000 0
0.020000 0.020000 0
0.040000 0.020000 0
0.060000 0.020000 0
0.080000 0.020000 0
0.100000 0.020000 0
0.120000 0.020000 0
0.140000 0.020000 0
0.160000 0.020000 0
0.180000 0.020000 0
0.200000 0.020000 0
0.220000 0.020000 0
0.240000 0.020000 0
0.260000 0.020000 0
0.280000 0.020000 0
0.300000 0.020000 0
0.320000 0.020000 0
0.340000 0.020000 0
0.360000 0.020000 0
0.380000 0.020000 0
0.400000 0.020000 0
0.420000 0.020000 0
0.440000 0.020000 0
0.460000 0.020000 0
0.480000 0.020000 0
0.500000 0.020000 0
0.520000 0.020000 0
0.540000 0.020000 0
0.560000 0.020000 0
0.580000 0.020000 0
0.600000 0.020000 0
0.620000 0.020000 0
0.640000 0.020000 0
0.660000 0.020000 0
0.680000 0.020000 0
0.700000 0.020000 0
0.720000 0.020000 0
0.740000 0.020000 0
0.760000 0.020000 0
0.780000 0.020000 0
0.800000 0.020000 0
0.820000 0.020000 0
0.840000 0.020000 0
0.860000 0.020000 0
0.880000 0.020000 0
0.900000 0.020000 0
0.920000 0.020000 0
0.940000 0.020000 0
0.960000 0.020000 0
0.980000 0.020000 0
1.000000 0.020000 0
1.020000 0.020000 0
1.040000 0.020000 0
1.060000 0.020000 0
1.080000 0.020000 0
1.100000 0.020000 0
1.120000 0.020000 0
1.140000 0.020000 0
1.160000 0.020000 0
1.180000 0.020000 0
1.200000 0.020000 0
1.220000 0.020000 0
1.240000 0.020000 0
1.260000 0.020000 0
1.280000 0.020000 0
1.300000 0.020000 0
1.320000 0.020000 0
1.340000 0.020000 0
1.360000 0.020000 0
1.380000 0.020000 0
1.400000 0.020000 0
1.420000 0.020000 0
1.440000 0.020000 0
1.460000 0.020000 0
1.480000 0.020000 0
1.500000 0.020000 0
1.520000 0.020000 0
1.540000 0.020000 0
1.560000 0.020000 0
1.580000 0.020000 0
1.600000 0.020000 0
1.620000 0.020000 0
1.640000 0.020000 0
1.660000 0.020000 0
1.680000 0.020000 0
1.700000 0.020000 0
1.720000 0.020000 0
1.740000 0.020000 0
1.760000 0.020000 0
1.780000 0.020000 0
1.800000 0.020000 0
1.820000 0.020000 0
1.840000 0.020000 0
1.860000 0.020000 0
1.880000 0.020000 0
1.900000 0.020000 0
1.920000 0.020000 0
1.940000 0.020000 0
1.960000 0.020000 0
0.000000 0.040000 0
0.020000 0.040000 0
0.040000 0.040000 0
0.060000 0.040000 0
0.080000 0.040000 0
0.100000 0.040000 0
0.120000 0.040000 0
0.140000 0.040000 0
0.160000 0.040000 0
0.180000 0.040000 0
0.200000 0.040000 0
0.220000 0.040000 0
0.240000 0.040000 0
0.260000 0.040000 0
0.280000 0.040000 0
0.300000 0.040000 0
0.320000 0.040000 0
0.340000 0.040000 0
0.360000 0.040000 0
0.380000 0.040000 0
0.400000 0.040000 0
0.420000 0.040000 0
0.440000 0.040000 0
0.460000 0.040000 0
0.480000 0.040000 0
0.500000 0.040000 0
0.520000 0.040000 0
0.540000 0.040000 0
0.560000 0.040000 0
0.580000 0.040000 0
0.600000 0.040000 0
0.620000 0.040000 0
0.640000 0.040000 0
0.660000 0.040000 0
0.680000 0.040000 0
0.700000 0.040000 0
0.720000 0.040000 0
0.740000 0.040000 0
0.760000 0.040000 0
0.780000 0.040000 0
0.800000 0.040000 0
0.820000 0.040000 0
0.840000 0.040000 0
0.860000 0.040000 0
0.880000 0.040000 0
0.900000 0.040000 0
0.920000 0.040000 0
0.940000 0.040000 0
0.960000 0.040000 0
0.980000 0.040000 0
1.000000 0.040000 0
1.020000 0.040000 0
1.040000 0.040000 0
1.060000 0.040000 0
1.080000 0.040000 0
1.100000 0.040000 0
1.120000 0.040000 0
1.140000 0.040000 0
1.160000 0.040000 0
1.180000 0.040000 0
1.200000 0.040000 0
1.220000 0.040000 0
1.240000 0.040000 0
1.260000 0.040000 0
1.280000 0.040000 0
1.300000 0.040000 0
1.320000 0.040000 0
1.340000 0.040000 0
1.360000 0.040000 0
1.380000 0.040000 0
1.400000 0.040000 0
1.420000 0.040000 0
1.440000 0.040000 0
1.460000 0.040000 0
1.480000 0.040000 0
1.500000 0.040000 0
1.520000 0.040000 0
1.540000 0.040000 0
1.560000 0.040000 0
1.580000 0.040000 0
1.600000 0.040000 0
1.620000 0.040000 0
1.640000 0.040000 0
1.660000 0.040000 0
1.680000 0.040000 0
1.700000 0.040000 0
1.720000 0.040000 0
1.740000 0.040000 0
1.760000 0.040000 0
1.780000 0.040000 0
1.800000 0.040000 0
1.820000 0.040000 0
1.840000 0.040000 0
1.860000 0.040000 0
1.880000 0.040000 0
1.900000 0.040000 0
1.920000 0.040000 0
1.940000 0.040000 0
1.960000 0.040000 0
0.000000 0.060000 0
0.020000 0.060000 0
0.040000 0.060000 0
0.060000 0.060000 0
0.080000 0.060000 0
0.100000 0.060000 0
0.120000 0.060000 0
0.140000 0.060000 0
0.160000 0.060000 0
0.180000 0.060000 0
0.200000 0.060000 0
0.220000 0.060000 0
0.240000 0.060000 0
0.260000 0.060000 0
0.280000 0.060000 0
0.300000 0.060000 0
0.320000 0.060000 0
0.340000 0.060000 0
0.360000 0.060000 0
0.380000 0.060000 0
0.400000 0.060000 0
0.420000 0.060000 0
0.440000 0.060000 0
0.460000 0.060000 0
0.480000 0.060000 0
0.500000 0.060000 0
0.520000 0.060000 0
0.540000 0.060000 0
0.560000 0.060000 0
0.580000 0.060000 0
0.600000 0.060000 0
0.620000 0.060000 0
0.640000 0.060000 0
0.660000 0.060000 0
0.680000 0.060000 0
0.700000 0.060000 0
0.720000 0.060000 0
0.740000 0.060000 0
0.760000 0.060000 0
0.780000 0.060000 0
0.800000 0.060000 0
0.820000 0.060000 0
0.840000 0.060000 0
0.860000 0.060000 0
0.880000 0.060000 0
0.900000 0.060000 0
0.920000 0.060000 0
0.940000 0.060000 0
0.960000 0.060000 0
0.980000 0.060000 0
1.000000 0.060000 0
1.020000 0.060000 0
1.040000 0.060000 0
1.060000 0.060000 0
1.080000 0.060000 0
1.100000 0.060000 0
1.120000 0.060000 0
1.140000 0.060000 0
1.160000 0.060000 0
1.180000 0.060000 0
1.200000 0.060000 0
1.220000 0.060000 0
1.240000 0.060000 0
1.260000 0.060000 0
1.280000 0.060000 0
1.300000 0.060000 0
1.320000 0.060000 0
1.340000 0.060000 0
1.360000 0.060000 0
1.380000 0.060000 0
1.400000 0.060000 0
1.420000 0.060000 0
1.440000 0.060000 0
1.460000 0.060000 0
1.480000 0.060000 0
1.500000 0.060000 0
1.520000 0.060000 0
1.540000 0.060000 0
1.560000 0.060000 0
1.580000 0.060000 0
1.600000 0.060000 0
1.620000 0.060000 0
1.640000 0.060000 0
1.660000 0.060000 0
1.680000 0.060000 0
1.700000 0.060000 0
1.720000 0.060000 0
1.740000 0.060000 0
1.760000 0.060000 0
1.780000 0.060000 0
1.800000 0.060000 0
1.820000 0.060000 0
1.840000 0.060000 0
1.860000 0.060000 0
1.880000 0.060000 0
1.900000 0.060000 0
1.920000 0.060000 0
1.940000 0.060000 0
1.960000 0.060000 0
0.000000 0.080000 0
0.020000 0.080000 0
0.040000 0.080000 0
0.060000 0.080000 0
0.080000 0.080000 0
0.100000 0.080000 0
0.120000 0.080000 0
0.140000 0.080000 0
0.160000 0.080000 0
0.180000 0.080000 0
0.200000 0.080000 0
0.220000 0.080000 0
0.240000 0.080000 0
0.260000 0.080000 0
0.280000 0.080000 0
0.300000 0.080000 0
0.320000 0.080000 0
0.340000 0.080000 0
0.360000 0.080000 0
0.380000 0.080000 0
0.400000 0.080000 0
0.420000 0.080000 0
0.440000 0.080000 0
0.460000 0.080000 0
0.480000 0.080000 0
0.500000 0.080000 0
0.520000 0.080000 0
0.540000 0.080000 0
0.560000 0.080000 0
0.580000 0.080000 0
0.600000 0.080000 0
0.620000 0.080000 0
0.640000 0.080000 0
0.660000 0.080000 0
0.680000 0.080000 0
0.700000 0.080000 0
0.720000 0.080000 0
0.740000 0.080000 0
0.760000 0.080000 0
0.780000 0.080000 0
0.800000 0.080000 0
0.820000 0.080000 0
0.840000 0.080000 0
0.860000 0.080000 0
0.880000 0.080000 0
0.900000 0.080000 0
0.920000 0.080000 0
0.940000 0.080000 0
0.960000 0.080000 0
0.980000 0.080000 0
1.000000 0.080000 0
1.020000 0.080000 0
1.040000 0.080000 0
1.060000 0.080000 0
1.080000 0.080000 0
1.100000 0.080000 0
1.120000 0.080000 0
1.140000 0.080000 0
1.160000 0.080000 0
1.180000 0.080000 0
1.200000 0.080000 0
1.220000 0.080000 0
1.240000 0.080000 0
1.260000 0.080000 0
1.280000 0.080000 0
1.300000 0.080000 0
1.320000 0.080000 0
1.340000 0.080000 0
1.360000 0.080000 0
1.380000 0.080000 0
1.400000 0.080000 0
1.420000 0.080000 0
1.440000 0.080000 0
1.460000 0.080000 0
1.480000 0.080000 0
1.500000 0.080000 0
1.520000 0.080000 0
1.540000 0.080000 0
1.560000 0.080000 0
1.580000 0.080000 0
1.600000 0.080000 0
1.620000 0.080000 0
1.640000 0.080000 0
1.660000 0.080000 0
1.680000 0.080000 0
1.700000 0.080000 0
1.720000 0.080000 0
1.740000 0.080000 0
1.760000 0.080000 0
1.780000 0.080000 0
1.800000 0.080000 0
1.820000 0.080000 0
1.840000 0.080000 0
1.860000 0.080000 0
1.880000 0.080000 0
[...]
POINT_DATA 4851 

VECTORS velocity float
0.000000 0.000000 0
-0.000456 0.000000 0
-0.000596 0.000000 0
-0.000543 0.000000 0
-0.000452 0.000000 0
-0.000373 0.000000 0
-0.000311 0.000000 0
-0.000265 0.000000 0
-0.000229 0.000000 0
-0.000201 0.000000 0
-0.000178 0.000000 0
-0.000159 0.000000 0
-0.000144 0.000000 0
-0.000131 0.000000 0
-0.000119 0.000000 0
-0.000110 0.000000 0
-0.000101 0.000000 0
-0.000093 0.000000 0
-0.000086 0.000000 0
-0.000079 0.000000 0
-0.000073 0.000000 0
-0.000066 0.000000 0
-0.000060 0.000000 0
-0.000054 0.000000 0
-0.000047 0.000000 0
-0.000041 0.000000 0
-0.000034 0.000000 0
-0.000028 0.000000 0
-0.000022 0.000000 0
-0.000016 0.000000 0
-0.000011 0.000000 0
-0.000007 0.000000 0
-0.000003 0.000000 0
-0.000001 0.000000 0
0.000001 0.000000 0
0.000001 0.000000 0
0.000000 0.000000 0
0.000000 0.000000 0
0.000000 0.000000 0
0.000000 0.000000 0
0.000000 0.000000 0
-0.000094 0.000000 0
-0.000232 0.000000 0
-0.000333 0.000000 0
-0.000386 0.000000 0
-0.000408 0.000000 0
-0.000415 0.000000 0
-0.000417 0.000000 0
-0.000417 0.000000 0
-0.000417 0.000000 0
-0.000417 0.000000 0
-0.000417 0.000000 0
-0.000417 0.000000 0
-0.000417 0.000000 0
-0.000416 0.000000 0
-0.000415 0.000000 0
-0.000414 0.000000 0
-0.000413 0.000000 0
-0.000412 0.000000 0
-0.000411 0.000000 0
-0.000409 0.000000 0
-0.000408 0.000000 0
-0.000406 0.000000 0
-0.000404 0.000000 0
-0.000403 0.000000 0
-0.000402 0.000000 0
-0.000401 0.000000 0
-0.000401 0.000000 0
-0.000402 0.000000 0
-0.000405 0.000000 0
-0.000409 0.000000 0
-0.000414 0.000000 0
-0.000421 0.000000 0
-0.000429 0.000000 0
-0.000437 0.000000 0
-0.000445 0.000000 0
-0.000451 0.000000 0
-0.000455 0.000000 0
-0.000454 0.000000 0
-0.000448 0.000000 0
-0.000436 0.000000 0
-0.000419 0.000000 0
-0.000397 0.000000 0
-0.000375 0.000000 0
-0.000356 0.000000 0
-0.000348 0.000000 0
-0.000355 0.000000 0
-0.000384 0.000000 0
-0.000437 0.000000 0
-0.000515 0.000000 0
-0.000615 0.000000 0
-0.000726 0.000000 0
-0.000827 0.000000 0
-0.000891 0.000000 0
-0.000882 0.000000 0
-0.000764 0.000000 0
-0.000523 0.000000 0
-0.000212 0.000000 0
0.000000 0.000000 0
0.000000 0.000457 0
-0.000913 0.000596 0
-0.001399 0.000088 0
-0.001452 -0.000143 0
-0.001334 -0.000170 0
-0.001179 -0.000141 0
-0.001034 -0.000108 0
-0.000909 -0.000082 0
-0.000805 -0.000064 0
-0.000717 -0.000051 0
-0.000644 -0.000041 0
-0.000582 -0.000034 0
-0.000528 -0.000028 0
-0.000483 -0.000024 0
-0.000443 -0.000021 0
-0.000408 -0.000018 0
-0.000376 -0.000016 0
-0.000348 -0.000015 0
-0.000321 -0.000013 0
-0.000296 -0.000013 0
-0.000272 -0.000012 0
-0.000248 -0.000012 0
-0.000225 -0.000012 0
-0.000202 -0.000012 0
-0.000178 -0.000012 0
-0.000155 -0.000012 0
-0.000131 -0.000012 0
-0.000108 -0.000012 0
-0.000086 -0.000011 0
-0.000065 -0.000011 0
-0.000046 -0.000009 0
-0.000030 -0.000008 0
-0.000016 -0.000006 0
-0.000007 -0.000003 0
-0.000001 -0.000001 0
0.000000 0.000001 0
0.000000 0.000001 0
0.000000 0.000000 0
0.000000 0.000000 0
0.000000 0.000000 0
0.000000 0.000093 0
-0.000247 0.000231 0
-0.000618 0.000238 0
-0.000918 0.000153 0
-0.001106 0.000074 0
-0.001208 0.000029 0
-0.001260 0.000008 0
-0.001288 0.000001 0
-0.001305 -0.000000 0
-0.001317 -0.000001 0
-0.001326 -0.000001 0
-0.001334 -0.000001 0
-0.001340 -0.000001 0
-0.001346 -0.000002 0
-0.001350 -0.000002 0
-0.001353 -0.000002 0
-0.001356 -0.000003 0
-0.001358 -0.000003 0
-0.001359 -0.000003 0
-0.001360 -0.000004 0
-0.001360 -0.000004 0
-0.001359 -0.000004 0
-0.001358 -0.000004 0
-0.001357 -0.000004 0
-0.001356 -0.000003 0
-0.001356 -0.000003 0
-0.001357 -0.000001 0
-0.001361 0.000001 0
-0.001368 0.000003 0
-0.001379 0.000006 0
-0.001394 0.000009 0
-0.001412 0.000011 0
-0.001435 0.000014 0
-0.001459 0.000015 0
-0.001484 0.000016 0
-0.001505 0.000014 0
-0.001521 0.000009 0
-0.001527 0.000002 0
-0.001519 -0.000007 0
-0.001495 -0.000018 0
-0.001454 -0.000030 0
-0.001398 -0.000040 0
-0.001333 -0.000044 0
-0.001270 -0.000041 0
-0.001223 -0.000027 0
-0.001211 -0.000002 0
-0.001251 0.000035 0
-0.001355 0.000081 0
-0.001531 0.000131 0
-0.001774 0.000178 0
-0.002065 0.000210 0
-0.002363 0.000211 0
-0.002605 0.000165 0
-0.002712 0.000054 0
-0.002594 -0.000128 0
-0.002172 -0.000359 0
-0.001447 -0.000552 0
-0.000577 -0.000524 0
0.000000 -0.000213 0
0.000000 0.000914 0
-0.000808 0.001400 0
-0.001547 0.000539 0
-0.001871 -0.000065 0
-0.001912 -0.000272 0
-0.001820 -0.000299 0
-0.001679 -0.000270 0
-0.001531 -0.000229 0
-0.001390 -0.000192 0
-0.001262 -0.000160 0
-0.001149 -0.000135 0
-0.001049 -0.000115 0
-0.000961 -0.000098 0
-0.000884 -0.000085 0
-0.000815 -0.000075 0
-0.000753 -0.000066 0
-0.000697 -0.000060 0
-0.000645 -0.000055 0
-0.000597 -0.000051 0
-0.000551 -0.000049 0
-0.000507 -0.000047 0
-0.000464 -0.000046 0
-0.000421 -0.000046 0
-0.000378 -0.000046 0
-0.000335 -0.000047 0
-0.000292 -0.000046 0
-0.000250 -0.000046 0
-0.000208 -0.000045 0
-0.000167 -0.000043 0
-0.000129 -0.000039 0
-0.000094 -0.000035 0
-0.000064 -0.000029 0
-0.000039 -0.000022 0
-0.000020 -0.000015 0
-0.000007 -0.000007 0
-0.000001 -0.000001 0
0.000000 0.000001 0
0.000000 0.000000 0
0.000000 0.000000 0
0.000000 0.000000 0
0.000000 0.000246 0
-0.000299 0.000617 0
-0.000774 0.000671 0
-0.001203 0.000487 0
-0.001512 0.000289 0
-0.001711 0.000154 0
-0.001835 0.000080 0
-0.001914 0.000044 0
-0.001968 0.000028 0
-0.002008 0.000020 0
-0.002041 0.000016 0
-0.002069 0.000013 0
-0.002094 0.000011 0
-0.002117 0.000009 0
-0.002137 0.000007 0
-0.002155 0.000005 0
-0.002171 0.000004 0
-0.002186 0.000002 0
-0.002199 0.000001 0
-0.002210 -0.000001 0
-0.002219 -0.000002 0
-0.002227 -0.000003 0
-0.002234 -0.000003 0
-0.002240 -0.000003 0
-0.002247 -0.000002 0
-0.002254 0.000001 0
-0.002264 0.000005 0
-0.002276 0.000010 0
-0.002293 0.000017 0
-0.002315 0.000025 0
-0.002342 0.000033 0
-0.002374 0.000040 0
-0.002410 0.000046 0
-0.002448 0.000048 0
-0.002483 0.000045 0
-0.002511 0.000037 0
-0.002529 0.000021 0
-0.002529 -0.000003 0
-0.002509 -0.000032 0
-0.002464 -0.000066 0
-0.002396 -0.000098 0
-0.002309 -0.000122 0
-0.002216 -0.000128 0
-0.002132 -0.000110 0
-0.002080 -0.000059 0
-0.002085 0.000026 0
-0.002170 0.000143 0
-0.002350 0.000280 0
-0.002629 0.000419 0
-0.002989 0.000533 0
-0.003390 0.000588 0
-0.003765 0.000540 0
-0.004019 0.000349 0
-0.004043 -0.000013 0
-0.003731 -0.000541 0
-0.003018 -0.001147 0
-0.001948 -0.001596 0
-0.000756 -0.001448 0
0.000000 -0.000578 0
0.000000 0.001265 0
-0.000614 0.002144 0
-0.001382 0.001151 0
-0.001870 0.000222 0
-0.002074 -0.000221 0
-0.002097 -0.000373 0
-0.002024 -0.000397 0
-0.001908 -0.000371 0
-0.001776 -0.000332 0
-0.001644 -0.000291 0
-0.001519 -0.000254 0
-0.001404 -0.000221 0
-0.001298 -0.000193 0
-0.001202 -0.000170 0
-0.001115 -0.000151 0
-0.001035 -0.000136 0
-0.000962 -0.000123 0
-0.000894 -0.000114 0
-0.000830 -0.000107 0
-0.000768 -0.000102 0
-0.000709 -0.000100 0
-0.000650 -0.000098 0
-0.000591 -0.000098 0
-0.000533 -0.000098 0
-0.000474 -0.000098 0
-0.000416 -0.000098 0
-0.000357 -0.000097 0
-0.000300 -0.000094 0
-0.000244 -0.000090 0
-0.000191 -0.000083 0
-0.000143 -0.000074 0
-0.000100 -0.000063 0
-0.000063 -0.000049 0
-0.000035 -0.000034 0
-0.000015 -0.000019 0
-0.000004 -0.000006 0
0.000000 -0.000000 0
0.000000 0.000000 0
0.000000 0.000000 0
0.000000 0.000000 0
0.000000 0.000392 0
-0.000259 0.001004 0
-0.000709 0.001142 0
-0.001153 0.000890 0
-0.001507 0.000583 0
-0.001761 0.000352 0
-0.001937 0.000211 0
-0.002062 0.000134 0
-0.002154 0.000094 0
-0.002227 0.000072 0
-0.002289 0.000060 0
-0.002344 0.000052 0
-0.002394 0.000046 0
-0.002441 0.000040 0
-0.002484 0.000036 0
-0.002524 0.000032 0
-0.002561 0.000028 0
-0.002595 0.000024 0
-0.002626 0.000020 0
-0.002654 0.000017 0
-0.002679 0.000013 0
-0.002702 0.000010 0
-0.002722 0.000009 0
-0.002741 0.000008 0
-0.002760 0.000010 0
-0.002779 0.000014 0
-0.002799 0.000021 0
-0.002823 0.000030 0
-0.002850 0.000041 0
-0.002882 0.000054 0
-0.002919 0.000068 0
-0.002959 0.000079 0
-0.003003 0.000087 0
-0.003045 0.000088 0
-0.003084 0.000079 0
-0.003112 0.000059 0
-0.003126 0.000027 0
-0.003120 -0.000018 0
-0.003090 -0.000073 0
-0.003034 -0.000131 0
-0.002954 -0.000185 0
-0.002859 -0.000220 0
-0.002762 -0.000222 0
-0.002683 -0.000177 0
-0.002644 -0.000074 0
-0.002674 0.000088 0
-0.002791 0.000300 0
-0.003010 0.000539 0
-0.003325 0.000770 0
-0.003709 0.000939 0
-0.004111 0.000985 0
-0.004450 0.000840 0
-0.004626 0.000443 0
-0.004531 -0.000234 0
-0.004068 -0.001153 0
-0.003206 -0.002142 0
-0.002019 -0.002814 0
-0.000761 -0.002472 0
0.000000 -0.000968 0
0.000000 0.001529 0
-0.000470 0.002783 0
-0.001186 0.001795 0
-0.001735 0.000627 0
-0.002045 -0.000045 0
-0.002167 -0.000349 0
-0.002170 -0.000459 0
-0.002105 -0.000477 0
-0.002006 -0.000454 0
-0.001891 -0.000417 0
-0.001772 -0.000376 0
-0.001657 -0.000336 0
-0.001547 -0.000300 0
-0.001444 -0.000268 0
-0.001348 -0.000241 0
-0.001259 -0.000219 0
-0.001176 -0.000201 0
-0.001097 -0.000187 0
-0.001022 -0.000177 0
-0.000950 -0.000170 0
-0.000879 -0.000165 0
-0.000809 -0.000163 0
-0.000739 -0.000163 0
-0.000669 -0.000163 0
-0.000598 -0.000164 0
-0.000527 -0.000163 0
-0.000456 -0.000162 0
-0.000385 -0.000158 0
-0.000317 -0.000151 0
-0.000251 -0.000140 0
-0.000190 -0.000126 0
-0.000135 -0.000108 0
-0.000088 -0.000087 0
-0.000051 -0.000063 0
-0.000023 -0.000038 0
-0.000006 -0.000016 0
0.000000 -0.000003 0
0.000000 0.000000 0
0.000000 0.000000 0
0.000000 0.000000 0
0.000000 0.000504 0
-0.000185 0.001325 0
-0.000548 0.001564 0
-0.000939 0.001284 0
-0.001278 0.000896 0
-0.001541 0.000584 0
-0.001738 0.000380 0
-0.001888 0.000260 0
-0.002008 0.000193 0
-0.002109 0.000155 0
-0.002198 0.000133 0
-0.002280 0.000118 0
-0.002356 0.000107 0
-0.002429 0.000098 0
-0.002497 0.000090 0
-0.002562 0.000082 0
-0.002623 0.000075 0
-0.002681 0.000067 0
-0.002734 0.000060 0
-0.002783 0.000053 0
-0.002828 0.000046 0
-0.002869 0.000040 0
-0.002906 0.000036 0
-0.002941 0.000034 0
-0.002974 0.000035 0
-0.003007 0.000040 0
-0.003039 0.000048 0
-0.003074 0.000060 0
-0.003111 0.000076 0
-0.003152 0.000093 0
-0.003195 0.000110 0
-0.003241 0.000124 0
-0.003288 0.000132 0
-0.003333 0.000129 0
-0.003371 0.000112 0
-0.003399 0.000079 0
-0.003410 0.000028 0
-0.003401 -0.000039 0
-0.003368 -0.000119 0
-0.003311 -0.000202 0
-0.003234 -0.000273 0
-0.003147 -0.000314 0
-0.003062 -0.000305 0
-0.002999 -0.000228 0
-0.002980 -0.000068 0
-0.003029 0.000173 0
-0.003161 0.000479 0
-0.003383 0.000813 0
-0.003687 0.001118 0
-0.004039 0.001320 0
-0.004383 0.001329 0
-0.004642 0.001055 0
-0.004722 0.000430 0
-0.004526 -0.000571 0
-0.003984 -0.001865 0
-0.003086 -0.003196 0
-0.001911 -0.004041 0
-0.000706 -0.003467 0
0.000000 -0.001338 0
0.000000 0.001735 0
-0.000374 0.003330 0
-0.001019 0.002416 0
-0.001574 0.001081 0
-0.001938 0.000211 0
-0.002130 -0.000247 0
-0.002197 -0.000458 0
-0.002183 -0.000536 0
-0.002121 -0.000546 0
-0.002032 -0.000524 0
-0.001930 -0.000488 0
-0.001824 -0.000447 0
-0.001719 -0.000406 0
-0.001618 -0.000369 0
-0.001521 -0.000336 0
-0.001429 -0.000308 0
-0.001342 -0.000285 0
-0.001258 -0.000267 0
-0.001178 -0.000254 0
-0.001100 -0.000245 0
-0.001022 -0.000240 0
-0.000945 -0.000238 0
-0.000868 -0.000238 0
-0.000789 -0.000239 0
-0.000709 -0.000240 0
-0.000628 -0.000240 0
-0.000547 -0.000238 0
-0.000465 -0.000233 0
-0.000385 -0.000224 0
-0.000309 -0.000209 0
-0.000236 -0.000190 0
-0.000171 -0.000164 0
-0.000113 -0.000134 0
-0.000066 -0.000100 0
-0.000030 -0.000064 0
-0.000008 -0.000029 0
0.000000 -0.000006 0
0.000000 0.000000 0
0.000000 0.000000 0
0.000000 0.000000 0
0.000000 0.000576 0
-0.000109 0.001552 0
-0.000360 0.001895 0
-0.000661 0.001620 0
-0.000945 0.001184 0
-0.001181 0.000812 0
-0.001369 0.000558 0
-0.001522 0.000403 0
-0.001651 0.000313 0
-0.001767 0.000262 0
-0.001875 0.000230 0
-0.001977 0.000210 0
-0.002077 0.000194 0
-0.002173 0.000181 0
-0.002266 0.000169 0
-0.002356 0.000158 0
-0.002442 0.000146 0
-0.002523 0.000134 0
-0.002600 0.000122 0
-0.002671 0.000110 0
-0.002738 0.000099 0
-0.002799 0.000089 0
-0.002855 0.000081 0
-0.002908 0.000076 0
-0.002957 0.000075 0
-0.003004 0.000079 0
-0.003049 0.000088 0
-0.003095 0.000101 0
-0.003142 0.000119 0
-0.003190 0.000138 0
-0.003239 0.000157 0
-0.003289 0.000172 0
-0.003338 0.000178 0
-0.003384 0.000171 0
-0.003422 0.000145 0
-0.003449 0.000098 0
-0.003461 0.000029 0
-0.003453 -0.000061 0
-0.003425 -0.000163 0
-0.003377 -0.000265 0
-0.003314 -0.000349 0
-0.003244 -0.000393 0
-0.003180 -0.000370 0
-0.003139 -0.000258 0
-0.003139 -0.000045 0
-0.003198 0.000268 0
-0.003327 0.000654 0
-0.003528 0.001065 0
-0.003789 0.001425 0
-0.004078 0.001636 0
-0.004340 0.001589 0
-0.004507 0.001178 0
-0.004500 0.000327 0
-0.004241 -0.000971 0
-0.003682 -0.002594 0
-0.002823 -0.004215 0
-0.001736 -0.005193 0
-0.000637 -0.004384 0
0.000000 -0.001675 0
0.000000 0.001903 0
-0.000308 0.003803 0
-0.000887 0.002996 0
-0.001424 0.001547 0
-0.001810 0.000511 0
-0.002043 -0.000091 0
-0.002156 -0.000406 0
-0.002185 -0.000552 0
-0.002158 -0.000605 0
-0.002096 -0.000607 0
-0.002015 -0.000583 0
-0.001924 -0.000546 0
-0.001830 -0.000506 0
-0.001735 -0.000466 0
-0.001643 -0.000430 0
-0.001553 -0.000398 0
-0.001467 -0.000371 0
-0.001383 -0.000350 0
-0.001302 -0.000335 0
-0.001222 -0.000325 0
-0.001142 -0.000320 0
-0.001061 -0.000318 0
-0.000979 -0.000319 0
-0.000895 -0.000322 0
-0.000809 -0.000324 0
-0.000721 -0.000326 0
-0.000632 -0.000324 0
-0.000541 -0.000319 0
-0.000452 -0.000307 0
-0.000364 -0.000289 0
-0.000281 -0.000264 0
-0.000205 -0.000231 0
-0.000137 -0.000191 0
-0.000081 -0.000145 0
-0.000038 -0.000096 0
-0.000010 -0.000046 0
0.000000 -0.000011 0
0.000000 0.000000 0
0.000000 0.000000 0
0.000000 0.000000 0
0.000000 0.000612 0
-0.000041 0.001684 0
-0.000180 0.002117 0
-0.000379 0.001869 0
-0.000586 0.001416 0
-0.000772 0.001008 0
-0.000928 0.000721 0
-0.001062 0.000542 0
-0.001182 0.000438 0
-0.001297 0.000378 0
-0.001409 0.000343 0
-0.001522 0.000320 0
-0.001635 0.000302 0
-0.001749 0.000287 0
-0.001861 0.000272 0
-0.001972 0.000258 0
-0.002080 0.000242 0
-0.002185 0.000225 0
-0.002285 0.000208 0
-0.002380 0.000190 0
-0.002468 0.000173 0
-0.002551 0.000158 0
-0.002628 0.000145 0
-0.002699 0.000135 0
-0.002765 0.000131 0
-0.002827 0.000132 0
-0.002886 0.000139 0
-0.002943 0.000152 0
-0.002998 0.000170 0
-0.003053 0.000190 0
-0.003108 0.000209 0
-0.003161 0.000223 0
-0.003212 0.000226 0
-0.003258 0.000213 0
-0.003298 0.000178 0
-0.003327 0.000118 0
-0.003342 0.000032 0
-0.003341 -0.000075 0
-0.003324 -0.000196 0
-0.003291 -0.000313 0
-0.003248 -0.000406 0
-0.003202 -0.000448 0
-0.003163 -0.000411 0
-0.003144 -0.000269 0
-0.003160 -0.000010 0
-0.003220 0.000361 0
-0.003334 0.000809 0
-0.003498 0.001275 0
-0.003701 0.001667 0
-0.003911 0.001871 0
-0.004085 0.001758 0
-0.004165 0.001215 0
-0.004089 0.000163 0
-0.003801 -0.001389 0
-0.003270 -0.003283 0
-0.002496 -0.005142 0
-0.001535 -0.006227 0
-0.000566 -0.005203 0
0.000000 -0.001975 0
0.000000 0.002044 0
-0.000262 0.004218 0
-0.000784 0.003532 0
-0.001293 0.002004 0
-0.001681 0.000830 0
-0.001936 0.000100 0
-0.002080 -0.000316 0
-0.002141 -0.000534 0
-0.002143 -0.000634 0
-0.002107 -0.000666 0
-0.002046 -0.000659 0
-0.001972 -0.000632 0
-0.001890 -0.000595 0
-0.001806 -0.000556 0
-0.001721 -0.000518 0
-0.001638 -0.000483 0
-0.001557 -0.000455 0
-0.001477 -0.000432 0
-0.001398 -0.000416 0
-0.001319 -0.000405 0
-0.001240 -0.000400 0
-0.001159 -0.000400 0
-0.001076 -0.000403 0
-0.000990 -0.000409 0
-0.000900 -0.000414 0
-0.000807 -0.000418 0
-0.000711 -0.000418 0
-0.000614 -0.000413 0
-0.000516 -0.000400 0
-0.000419 -0.000379 0
-0.000326 -0.000349 0
-0.000239 -0.000308 0
-0.000161 -0.000258 0
-0.000096 -0.000199 0
-0.000045 -0.000134 0
-0.000012 -0.000066 0
0.000000 -0.000016 0
0.000000 0.000000 0
0.000000 0.000000 0
0.000000 0.000000 0
0.000000 0.000617 0
0.000011 0.001732 0
-0.000028 0.002232 0
-0.000124 0.002025 0
-0.000249 0.001577 0
-0.000372 0.001154 0
-0.000483 0.000848 0
-0.000582 0.000657 0
-0.000677 0.000548 0
-0.000774 0.000489 0
-0.000876 0.000456 0
-0.000984 0.000436 0
-0.001098 0.000421 0
-0.001217 0.000407 0
-0.001340 0.000393 0
-0.001465 0.000377 0
-0.001590 0.000359 0
-0.001714 0.000338 0
-0.001835 0.000316 0
-0.001953 0.000293 0
-0.002065 0.000270 0
-0.002171 0.000248 0
-0.002269 0.000228 0
-0.002361 0.000213 0
-0.002445 0.000203 0
-0.002523 0.000200 0
-0.002596 0.000203 0
-0.002664 0.000214 0
-0.002729 0.000229 0
-0.002791 0.000248 0
-0.002850 0.000265 0
-0.002907 0.000276 0
-0.002959 0.000276 0
-0.003007 0.000256 0
-0.003049 0.000213 0
-0.003082 0.000142 0
-0.003104 0.000043 0
-0.003113 -0.000079 0
-0.003110 -0.000213 0
-0.003098 -0.000341 0
-0.003078 -0.000439 0
-0.003058 -0.000478 0
-0.003045 -0.000427 0
-0.003048 -0.000262 0
-0.003075 0.000031 0
-0.003132 0.000442 0
-0.003222 0.000932 0
-0.003342 0.001432 0
-0.003480 0.001837 0
-0.003610 0.002020 0
-0.003699 0.001842 0
-0.003702 0.001181 0
-0.003577 -0.000037 0
-0.003286 -0.001791 0
-0.002809 -0.003899 0
-0.002144 -0.005949 0
-0.001326 -0.007124 0
-0.000494 -0.005919 0
0.000000 -0.002240 0
0.000000 0.002165 0
-0.000227 0.004587 0
-0.000701 0.004027 0
-0.001181 0.002444 0
-0.001561 0.001154 0
-0.001825 0.000309 0
-0.001987 -0.000201 0
-0.002070 -0.000489 0
-0.002095 -0.000639 0
-0.002080 -0.000704 0
-0.002038 -0.000718 0
-0.001979 -0.000702 0
-0.001912 -0.000672 0
-0.001839 -0.000635 0
-0.001765 -0.000597 0
-0.001690 -0.000562 0
-0.001616 -0.000532 0
-0.001543 -0.000509 0
-0.001470 -0.000492 0
-0.001396 -0.000483 0
-0.001320 -0.000480 0
-0.001242 -0.000482 0
-0.001160 -0.000488 0
-0.001074 -0.000497 0
-0.000983 -0.000507 0
-0.000887 -0.000514 0
-0.000787 -0.000518 0
-0.000683 -0.000514 0
-0.000578 -0.000502 0
-0.000473 -0.000479 0
-0.000370 -0.000444 0
-0.000273 -0.000395 0
-0.000185 -0.000334 0
-0.000111 -0.000261 0
-0.000052 -0.000179 0
-0.000014 -0.000091 0
0.000000 -0.000023 0
0.000000 0.000000 0
0.000000 0.000000 0
0.000000 0.000000 0
0.000000 0.000600 0
0.000050 0.001711 0
0.000093 0.002252 0
0.000088 0.002090 0
0.000044 0.001664 0
-0.000017 0.001242 0
-0.000077 0.000930 0
-0.000134 0.000736 0
-0.000192 0.000629 0
-0.000258 0.000577 0
-0.000334 0.000553 0
-0.000422 0.000542 0
-0.000521 0.000536 0
-0.000631 0.000529 0
-0.000750 0.000520 0
-0.000877 0.000507 0
-0.001009 0.000491 0
-0.001146 0.000470 0
-0.001285 0.000447 0
-0.001424 0.000420 0
-0.001560 0.000391 0
-0.001691 0.000362 0
-0.001814 0.000335 0
-0.001929 0.000311 0
-0.002035 0.000294 0
-0.002132 0.000283 0
-0.002220 0.000280 0
-0.002301 0.000285 0
-0.002375 0.000296 0
-0.002444 0.000311 0
-0.002508 0.000325 0
-0.002567 0.000332 0
-0.002622 0.000327 0
-0.002672 0.000302 0
-0.002716 0.000252 0
-0.002753 0.000172 0
-0.002783 0.000064 0
-0.002805 -0.000068 0
-0.002820 -0.000211 0
-0.002828 -0.000346 0
-0.002834 -0.000446 0
-0.002841 -0.000481 0
-0.002853 -0.000421 0
-0.002875 -0.000240 0
-0.002911 0.000074 0
-0.002961 0.000508 0
-0.003027 0.001020 0
-0.003103 0.001533 0
-0.003178 0.001935 0
-0.003234 0.002089 0
-0.003246 0.001850 0
-0.003187 0.001093 0
-0.003028 -0.000254 0
-0.002749 -0.002157 0
-0.002338 -0.004426 0
-0.001788 -0.006625 0
-0.001116 -0.007877 0
-0.000423 -0.006529 0
0.000000 -0.002470 0
0.000000 0.002272 0
-0.000201 0.004919 0
-0.000633 0.004486 0
-0.001084 0.002865 0
-0.001452 0.001474 0
-0.001717 0.000526 0
-0.001888 -0.000071 0
-0.001985 -0.000426 0
-0.002027 -0.000625 0
-0.002028 -0.000723 0
-0.002002 -0.000759 0
-0.001958 -0.000758 0
-0.001903 -0.000735 0
-0.001843 -0.000702 0
-0.001780 -0.000666 0
-0.001715 -0.000632 0
-0.001651 -0.000602 0
-0.001586 -0.000578 0
-0.001520 -0.000563 0
-0.001453 -0.000555 0
-0.001383 -0.000554 0
-0.001310 -0.000560 0
-0.001232 -0.000571 0
-0.001148 -0.000585 0
-0.001058 -0.000600 0
-0.000961 -0.000613 0
-0.000859 -0.000621 0
-0.000751 -0.000622 0
-0.000639 -0.000611 0
-0.000526 -0.000587 0
-0.000414 -0.000548 0
-0.000307 -0.000492 0
-0.000210 -0.000420 0
-0.000126 -0.000332 0
-0.000060 -0.000231 0
-0.000016 -0.000118 0
0.000000 -0.000030 0
0.000000 0.000000 0
0.000000 0.000000 0
0.000000 0.000000 0
0.000000 0.000567 0
0.000077 0.001638 0
0.000184 0.002194 0