# vtk DataFile Version 2.0
generated by CFD-lab course output (written by Tobias Neckel) 
ASCII

DATASET STRUCTURED_GRID
DIMENSIONS  99 49 1 
POINTS 4851 float

0.000000 0.000000 0
0.020000 0.000000 0
0.040000 0.000000 0
0.060000 0.000000 0
0.080000 0.000000 0
0.100000 0.000000 0
0.120000 0.000000 0
0.140000 0.000000 0
0.160000 0.000000 0
0.180000 0.000000 0
0.200000 0.000000 0
0.220000 0.000000 0
0.240000 0.000000 0
0.260000 0.000000 0
0.280000 0.000000 0
0.300000 0.000000 0
0.320000 0.000000 0
0.340000 0.000000 0
0.360000 0.000000 0
0.380000 0.000000 0
0.400000 0.000000 0
0.420000 0.000000 0
0.440000 0.000000 0
0.460000 0.000000 0
0.480000 0.000000 0
0.500000 0.000000 0
0.520000 0.000000 0
0.540000 0.000000 0
0.560000 0.000000 0
0.580000 0.000000 0
0.600000 0.000000 0
0.620000 0.000000 0
0.640000 0.000000 0
0.660000 0.000000 0
0.680000 0.000000 0
0.700000 0.000000 0
0.720000 0.000000 0
0.740000 0.000000 0
0.760000 0.000000 0
0.780000 0.000000 0
0.800000 0.000000 0
0.820000 0.000000 0
0.840000 0.000000 0
0.860000 0.000000 0
0.880000 0.000000 0
0.900000 0.000000 0
0.920000 0.000000 0
0.940000 0.000000 0
0.960000 0.000000 0
0.980000 0.000000 0
1.000000 0.000000 0
1.020000 0.000000 0
1.040000 0.000000 0
1.060000 0.000000 0
1.080000 0.000000 0
1.100000 0.000000 0
1.120000 0.000000 0
1.140000 0.000000 0
1.160000 0.000000 0
1.180000 0.000000 0
1.200000 0.000000 0
1.220000 0.000000 0
1.240000 0.000000 0
1.260000 0.000000 0
1.280000 0.000000 0
1.300000 0.000000 0
1.320000 0.000000 0
1.340000 0.000000 0
1.360000 0.000000 0
1.380000 0.000000 0
1.400000 0.000000 0
1.420000 0.000000 0
1.440000 0.000000 0
1.460000 0.000000 0
1.480000 0.000000 0
1.500000 0.000000 0
1.520000 0.000000 0
1.540000 0.000000 0
1.560000 0.000000 0
1.580000 0.000000 0
1.600000 0.000000 0
1.620000 0.000000 0
1.640000 0.000000 0
1.660000 0.000000 0
1.680000 0.000000 0
1.700000 0.000000 0
1.720000 0.000000 0
1.740000 0.000000 0
1.760000 0.000000 0
1.780000 0.000000 0
1.800000 0.000000 0
1.820000 0.000000 0
1.840000 0.000000 0
1.860000 0.000000 0
1.880000 0.000000 0
1.900000 0.000000 0
1.920000 0.000000 0
1.940000 0.000000 0
1.960000 0.000000 0
0.000000 0.020000 0
0.020000 0.020000 0
0.040000 0.020000 0
0.060000 0.020000 0
0.080000 0.020000 0
0.100000 0.020000 0
0.120000 0.020000 0
0.140000 0.020000 0
0.160000 0.020000 0
0.180000 0.020000 0
0.200000 0.020000 0
0.220000 0.020000 0
0.240000 0.020000 0
0.260000 0.020000 0
0.280000 0.020000 0
0.300000 0.020000 0
0.320000 0.020000 0
0.340000 0.020000 0
0.360000 0.020000 0
0.380000 0.020000 0
0.400000 0.020000 0
0.420000 0.020000 0
0.440000 0.020000 0
0.460000 0.020000 0
0.480000 0.020000 0
0.500000 0.020000 0
0.520000 0.020000 0
0.540000 0.020000 0
0.560000 0.020000 0
0.580000 0.020000 0
0.600000 0.020000 0
0.620000 0.020000 0
0.640000 0.020000 0
0.660000 0.020000 0
0.680000 0.020000 0
0.700000 0.020000 0
0.720000 0.020000 0
0.740000 0.020000 0
0.760000 0.020000 0
0.780000 0.020000 0
0.800000 0.020000 0
0.820000 0.020000 0
0.840000 0.020000 0
0.860000 0.020000 0
0.880000 0.020000 0
0.900000 0.020000 0
0.920000 0.020000 0
0.940000 0.020000 0
0.960000 0.020000 0
0.980000 0.020000 0
1.000000 0.020000 0
1.020000 0.020000 0
1.040000 0.020000 0
1.060000 0.020000 0
1.080000 0.020000 0
1.100000 0.020000 0
1.120000 0.020000 0
1.140000 0.020000 0
1.160000 0.020000 0
1.180000 0.020000 0
1.200000 0.020000 0
1.220000 0.020000 0
1.240000 0.020000 0
1.260000 0.020000 0
1.280000 0.020000 0
1.300000 0.020000 0
1.320000 0.020000 0
1.340000 0.020000 0
1.360000 0.020000 0
1.380000 0.020000 0
1.400000 0.020000 0
1.420000 0.020000 0
1.440000 0.020000 0
1.460000 0.020000 0
1.480000 0.020000 0
1.500000 0.020000 0
1.520000 0.020000 0
1.540000 0.020000 0
1.560000 0.020000 0
1.580000 0.020000 0
1.600000 0.020000 0
1.620000 0.020000 0
1.640000 0.020000 0
1.660000 0.020000 0
1.680000 0.020000 0
1.700000 0.020000 0
1.720000 0.020000 0
1.740000 0.020000 0
1.760000 0.020000 0
1.780000 0.020000 0
1.800000 0.020000 0
1.820000 0.020000 0
1.840000 0.020000 0
1.860000 0.020000 0
1.880000 0.020000 0
1.900000 0.020000 0
1.920000 0.020000 0
1.940000 0.020000 0
1.960000 0.020000 0
0.000000 0.040000 0
0.020000 0.040000 0
0.040000 0.040000 0
0.060000 0.040000 0
0.080000 0.040000 0
0.100000 0.040000 0
0.120000 0.040000 0
0.140000 0.040000 0
0.160000 0.040000 0
0.180000 0.040000 0
0.200000 0.040000 0
0.220000 0.040000 0
0.240000 0.040000 0
0.260000 0.040000 0
0.280000 0.040000 0
0.300000 0.040000 0
0.320000 0.040000 0
0.340000 0.040000 0
0.360000 0.040000 0
0.380000 0.040000 0
0.400000 0.040000 0
0.420000 0.040000 0
0.440000 0.040000 0
0.460000 0.040000 0
0.480000 0.040000 0
0.500000 0.040000 0
0.520000 0.040000 0
0.540000 0.040000 0
0.560000 0.040000 0
0.580000 0.040000 0
0.600000 0.040000 0
0.620000 0.040000 0
0.640000 0.040000 0
0.660000 0.040000 0
0.680000 0.040000 0
0.700000 0.040000 0
0.720000 0.040000 0
0.740000 0.040000 0
0.760000 0.040000 0
0.780000 0.040000 0
0.800000 0.040000 0
0.820000 0.040000 0
0.840000 0.040000 0
0.860000 0.040000 0
0.880000 0.040000 0
0.900000 0.040000 0
0.920000 0.040000 0
0.940000 0.040000 0
0.960000 0.040000 0
0.980000 0.040000 0
1.000000 0.040000 0
1.020000 0.040000 0
1.040000 0.040000 0
1.060000 0.040000 0
1.080000 0.040000 0
1.100000 0.040000 0
1.120000 0.040000 0
1.140000 0.040000 0
1.160000 0.040000 0
1.180000 0.040000 0
1.200000 0.040000 0
1.220000 0.040000 0
1.240000 0.040000 0
1.260000 0.040000 0
1.280000 0.040000 0
1.300000 0.040000 0
1.320000 0.040000 0
1.340000 0.040000 0
1.360000 0.040000 0
1.380000 0.040000 0
1.400000 0.040000 0
1.420000 0.040000 0
1.440000 0.040000 0
1.460000 0.040000 0
1.480000 0.040000 0
1.500000 0.040000 0
1.520000 0.040000 0
1.540000 0.040000 0
1.560000 0.040000 0
1.580000 0.040000 0
1.600000 0.040000 0
1.620000 0.040000 0
1.640000 0.040000 0
1.660000 0.040000 0
1.680000 0.040000 0
1.700000 0.040000 0
1.720000 0.040000 0
1.740000 0.040000 0
1.760000 0.040000 0
1.780000 0.040000 0
1.800000 0.040000 0
1.820000 0.040000 0
1.840000 0.040000 0
1.860000 0.040000 0
1.880000 0.040000 0
1.900000 0.040000 0
1.920000 0.040000 0
1.940000 0.040000 0
1.960000 0.040000 0
0.000000 0.060000 0
0.020000 0.060000 0
0.040000 0.060000 0
0.060000 0.060000 0
0.080000 0.060000 0
0.100000 0.060000 0
0.120000 0.060000 0
0.140000 0.060000 0
0.160000 0.060000 0
0.180000 0.060000 0
0.200000 0.060000 0
0.220000 0.060000 0
0.240000 0.060000 0
0.260000 0.060000 0
0.280000 0.060000 0
0.300000 0.060000 0
0.320000 0.060000 0
0.340000 0.060000 0
0.360000 0.060000 0
0.380000 0.060000 0
0.400000 0.060000 0
0.420000 0.060000 0
0.440000 0.060000 0
0.460000 0.060000 0
0.480000 0.060000 0
0.500000 0.060000 0
0.520000 0.060000 0
0.540000 0.060000 0
0.560000 0.060000 0
0.580000 0.060000 0
0.600000 0.060000 0
0.620000 0.060000 0
0.640000 0.060000 0
0.660000 0.060000 0
0.680000 0.060000 0
0.700000 0.060000 0
0.720000 0.060000 0
0.740000 0.060000 0
0.760000 0.060000 0
0.780000 0.060000 0
0.800000 0.060000 0
0.820000 0.060000 0
0.840000 0.060000 0
0.860000 0.060000 0
0.880000 0.060000 0
0.900000 0.060000 0
0.920000 0.060000 0
0.940000 0.060000 0
0.960000 0.060000 0
0.980000 0.060000 0
1.000000 0.060000 0
1.020000 0.060000 0
1.040000 0.060000 0
1.060000 0.060000 0
1.080000 0.060000 0
1.100000 0.060000 0
1.120000 0.060000 0
1.140000 0.060000 0
1.160000 0.060000 0
1.180000 0.060000 0
1.200000 0.060000 0
1.220000 0.060000 0
1.240000 0.060000 0
1.260000 0.060000 0
1.280000 0.060000 0
1.300000 0.060000 0
1.320000 0.060000 0
1.340000 0.060000 0
1.360000 0.060000 0
1.380000 0.060000 0
1.400000 0.060000 0
1.420000 0.060000 0
1.440000 0.060000 0
1.460000 0.060000 0
1.480000 0.060000 0
1.500000 0.060000 0
1.520000 0.060000 0
1.540000 0.060000 0
1.560000 0.060000 0
1.580000 0.060000 0
1.600000 0.060000 0
1.620000 0.060000 0
1.640000 0.060000 0
1.660000 0.060000 0
1.680000 0.060000 0
1.700000 0.060000 0
1.720000 0.060000 0
1.740000 0.060000 0
1.760000 0.060000 0
1.780000 0.060000 0
1.800000 0.060000 0
1.820000 0.060000 0
1.840000 0.060000 0
1.860000 0.060000 0
1.880000 0.060000 0
1.900000 0.060000 0
1.920000 0.060000 0
1.940000 0.060000 0
1.960000 0.060000 0
0.000000 0.080000 0
0.020000 0.080000 0
0.040000 0.080000 0
0.060000 0.080000 0
0.080000 0.080000 0
0.100000 0.080000 0
0.120000 0.080000 0
0.140000 0.080000 0
0.160000 0.080000 0
0.180000 0.080000 0
0.200000 0.080000 0
0.220000 0.080000 0
0.240000 0.080000 0
0.260000 0.080000 0
0.280000 0.080000 0
0.300000 0.080000 0
0.320000 0.080000 0
0.340000 0.080000 0
0.360000 0.080000 0
0.380000 0.080000 0
0.400000 0.080000 0
0.420000 0.080000 0
0.440000 0.080000 0
0.460000 0.080000 0
0.480000 0.080000 0
0.500000 0.080000 0
0.520000 0.080000 0
0.540000 0.080000 0
0.560000 0.080000 0
0.580000 0.080000 0
0.600000 0.080000 0
0.620000 0.080000 0
0.640000 0.080000 0
0.660000 0.080000 0
0.680000 0.080000 0
0.700000 0.080000 0
0.720000 0.080000 0
0.740000 0.080000 0
0.760000 0.080000 0
0.780000 0.080000 0
0.800000 0.080000 0
0.820000 0.080000 0
0.840000 0.080000 0
0.860000 0.080000 0
0.880000 0.080000 0
0.900000 0.080000 0
0.920000 0.080000 0
0.940000 0.080000 0
0.960000 0.080000 0
0.980000 0.080000 0
1.000000 0.080000 0
1.020000 0.080000 0
1.040000 0.080000 0
1.060000 0.080000 0
1.080000 0.080000 0
1.100000 0.080000 0
1.120000 0.080000 0
1.140000 0.080000 0
1.160000 0.080000 0
1.180000 0.080000 0
1.200000 0.080000 0
1.220000 0.080000 0
1.240000 0.080000 0
1.260000 0.080000 0
1.280000 0.080000 0
1.300000 0.080000 0
1.320000 0.080000 0
1.340000 0.080000 0
1.360000 0.080000 0
1.380000 0.080000 0
1.400000 0.080000 0
1.420000 0.080000 0
1.440000 0.080000 0
1.460000 0.080000 0
1.480000 0.080000 0
1.500000 0.080000 0
1.520000 0.080000 0
1.540000 0.080000 0
1.560000 0.080000 0
1.580000 0.080000 0
1.600000 0.080000 0
1.620000 0.080000 0
1.640000 0.080000 0
1.660000 0.080000 0
1.680000 0.080000 0
1.700000 0.080000 0
1.720000 0.080000 0
1.740000 0.080000 0
1.760000 0.080000 0
1.780000 0.080000 0
1.800000 0.080000 0
1.820000 0.080000 0
1.840000 0.080000 0
1.860000 0.080000 0
1.880000 0.080000 0
[...]
POINT_DATA 4851 

VECTORS velocity float
0.000000 0.000000 0
-0.000408 0.000000 0
-0.000546 0.000000 0
-0.000503 0.000000 0
-0.000421 0.000000 0
-0.000350 0.000000 0
-0.000297 0.000000 0
-0.000259 0.000000 0
-0.000230 0.000000 0
-0.000208 0.000000 0
-0.000190 0.000000 0
-0.000175 0.000000 0
-0.000162 0.000000 0
-0.000151 0.000000 0
-0.000140 0.000000 0
-0.000131 0.000000 0
-0.000122 0.000000 0
-0.000114 0.000000 0
-0.000106 0.000000 0
-0.000099 0.000000 0
-0.000092 0.000000 0
-0.000086 0.000000 0
-0.000079 0.000000 0
-0.000073 0.000000 0
-0.000067 0.000000 0
-0.000062 0.000000 0
-0.000056 0.000000 0
-0.000051 0.000000 0
-0.000046 0.000000 0
-0.000041 0.000000 0
-0.000036 0.000000 0
-0.000031 0.000000 0
-0.000025 0.000000 0
-0.000017 0.000000 0
-0.000010 0.000000 0
-0.000003 0.000000 0
0.000000 0.000000 0
0.000000 0.000000 0
0.000000 0.000000 0
0.000000 0.000000 0
0.000000 0.000000 0
-0.000020 0.000000 0
-0.000062 0.000000 0
-0.000105 0.000000 0
-0.000139 0.000000 0
-0.000162 0.000000 0
-0.000177 0.000000 0
-0.000186 0.000000 0
-0.000192 0.000000 0
-0.000196 0.000000 0
-0.000199 0.000000 0
-0.000201 0.000000 0
-0.000203 0.000000 0
-0.000205 0.000000 0
-0.000207 0.000000 0
-0.000209 0.000000 0
-0.000210 0.000000 0
-0.000212 0.000000 0
-0.000213 0.000000 0
-0.000215 0.000000 0
-0.000216 0.000000 0
-0.000217 0.000000 0
-0.000218 0.000000 0
-0.000220 0.000000 0
-0.000221 0.000000 0
-0.000222 0.000000 0
-0.000223 0.000000 0
-0.000224 0.000000 0
-0.000224 0.000000 0
-0.000225 0.000000 0
-0.000226 0.000000 0
-0.000227 0.000000 0
-0.000228 0.000000 0
-0.000229 0.000000 0
-0.000230 0.000000 0
-0.000230 0.000000 0
-0.000231 0.000000 0
-0.000232 0.000000 0
-0.000233 0.000000 0
-0.000233 0.000000 0
-0.000233 0.000000 0
-0.000233 0.000000 0
-0.000232 0.000000 0
-0.000230 0.000000 0
-0.000228 0.000000 0
-0.000227 0.000000 0
-0.000227 0.000000 0
-0.000231 0.000000 0
-0.000241 0.000000 0
-0.000256 0.000000 0
-0.000278 0.000000 0
-0.000303 0.000000 0
-0.000327 0.000000 0
-0.000341 0.000000 0
-0.000332 0.000000 0
-0.000286 0.000000 0
-0.000197 0.000000 0
-0.000080 0.000000 0
0.000000 0.000000 0
0.000000 0.000409 0
-0.000813 0.000546 0
-0.001264 0.000095 0
-0.001319 -0.000123 0
-0.001214 -0.000152 0
-0.001078 -0.000124 0
-0.000955 -0.000091 0
-0.000854 -0.000067 0
-0.000772 -0.000050 0
-0.000705 -0.000039 0
-0.000648 -0.000032 0
-0.000600 -0.000027 0
-0.000558 -0.000024 0
-0.000520 -0.000021 0
-0.000486 -0.000019 0
-0.000454 -0.000017 0
-0.000425 -0.000016 0
-0.000397 -0.000015 0
-0.000371 -0.000014 0
-0.000346 -0.000013 0
-0.000322 -0.000013 0
-0.000299 -0.000012 0
-0.000277 -0.000012 0
-0.000256 -0.000011 0
-0.000235 -0.000011 0
-0.000215 -0.000010 0
-0.000196 -0.000010 0
-0.000178 -0.000010 0
-0.000159 -0.000009 0
-0.000142 -0.000009 0
-0.000123 -0.000010 0
-0.000104 -0.000011 0
-0.000082 -0.000013 0
-0.000058 -0.000014 0
-0.000033 -0.000014 0
-0.000011 -0.000009 0
0.000000 -0.000002 0
0.000000 0.000000 0
0.000000 0.000000 0
0.000000 0.000000 0
0.000000 0.000020 0
-0.000061 0.000061 0
-0.000178 0.000084 0
-0.000301 0.000076 0
-0.000406 0.000057 0
-0.000484 0.000038 0
-0.000539 0.000023 0
-0.000576 0.000014 0
-0.000602 0.000009 0
-0.000621 0.000006 0
-0.000636 0.000005 0
-0.000648 0.000004 0
-0.000658 0.000004 0
-0.000667 0.000003 0
-0.000675 0.000003 0
-0.000683 0.000003 0
-0.000690 0.000003 0
-0.000696 0.000003 0
-0.000702 0.000002 0
-0.000707 0.000002 0
-0.000713 0.000002 0
-0.000717 0.000002 0
-0.000722 0.000002 0
-0.000726 0.000002 0
-0.000730 0.000002 0
-0.000734 0.000002 0
-0.000738 0.000001 0
-0.000741 0.000001 0
-0.000744 0.000001 0
-0.000747 0.000001 0
-0.000750 0.000001 0
-0.000753 0.000001 0
-0.000756 0.000001 0
-0.000759 0.000001 0
-0.000762 0.000001 0
-0.000764 0.000001 0
-0.000767 0.000001 0
-0.000769 0.000001 0
-0.000771 0.000001 0
-0.000771 -0.000000 0
-0.000771 -0.000001 0
-0.000768 -0.000002 0
-0.000764 -0.000003 0
-0.000758 -0.000004 0
-0.000753 -0.000004 0
-0.000750 -0.000001 0
-0.000753 0.000004 0
-0.000767 0.000013 0
-0.000796 0.000024 0
-0.000841 0.000037 0
-0.000902 0.000047 0
-0.000969 0.000049 0
-0.001025 0.000038 0
-0.001043 0.000004 0
-0.000990 -0.000055 0
-0.000831 -0.000136 0
-0.000558 -0.000207 0
-0.000224 -0.000197 0
0.000000 -0.000080 0
0.000000 0.000814 0
-0.000701 0.001266 0
-0.001356 0.000508 0
-0.001645 -0.000049 0
-0.001679 -0.000240 0
-0.001599 -0.000258 0
-0.001483 -0.000224 0
-0.001366 -0.000183 0
-0.001260 -0.000148 0
-0.001166 -0.000122 0
-0.001083 -0.000103 0
-0.001009 -0.000090 0
-0.000943 -0.000079 0
-0.000883 -0.000071 0
-0.000827 -0.000065 0
-0.000775 -0.000060 0
-0.000727 -0.000056 0
-0.000681 -0.000053 0
-0.000637 -0.000050 0
-0.000595 -0.000048 0
-0.000555 -0.000046 0
-0.000516 -0.000044 0
-0.000479 -0.000043 0
-0.000442 -0.000041 0
-0.000407 -0.000040 0
-0.000372 -0.000038 0
-0.000339 -0.000037 0
-0.000306 -0.000036 0
-0.000274 -0.000035 0
-0.000242 -0.000035 0
-0.000209 -0.000037 0
-0.000175 -0.000040 0
-0.000137 -0.000045 0
-0.000097 -0.000049 0
-0.000055 -0.000047 0
-0.000019 -0.000032 0
0.000000 -0.000010 0
0.000000 0.000000 0
0.000000 0.000000 0
0.000000 0.000000 0
0.000000 0.000060 0
-0.000084 0.000177 0
-0.000241 0.000240 0
-0.000414 0.000228 0
-0.000570 0.000182 0
-0.000696 0.000132 0
-0.000791 0.000091 0
-0.000862 0.000063 0
-0.000914 0.000044 0
-0.000954 0.000033 0
-0.000986 0.000026 0
-0.001012 0.000022 0
-0.001034 0.000019 0
-0.001054 0.000017 0
-0.001072 0.000015 0
-0.001087 0.000014 0
-0.001102 0.000013 0
-0.001115 0.000012 0
-0.001127 0.000011 0
-0.001138 0.000010 0
-0.001149 0.000009 0
-0.001158 0.000009 0
-0.001167 0.000008 0
-0.001175 0.000008 0
-0.001183 0.000007 0
-0.001190 0.000007 0
-0.001197 0.000006 0
-0.001203 0.000006 0
-0.001209 0.000006 0
-0.001215 0.000005 0
-0.001220 0.000005 0
-0.001225 0.000005 0
-0.001230 0.000005 0
-0.001234 0.000005 0
-0.001239 0.000005 0
-0.001243 0.000005 0
-0.001246 0.000004 0
-0.001249 0.000003 0
-0.001251 0.000002 0
-0.001252 -0.000001 0
-0.001250 -0.000004 0
-0.001245 -0.000007 0
-0.001238 -0.000011 0
-0.001229 -0.000012 0
-0.001221 -0.000009 0
-0.001218 -0.000000 0
-0.001224 0.000017 0
-0.001246 0.000042 0
-0.001288 0.000074 0
-0.001352 0.000106 0
-0.001433 0.000127 0
-0.001516 0.000123 0
-0.001573 0.000074 0
-0.001567 -0.000036 0
-0.001451 -0.000213 0
-0.001188 -0.000432 0
-0.000779 -0.000608 0
-0.000307 -0.000558 0
0.000000 -0.000224 0
0.000000 0.001110 0
-0.000503 0.001904 0
-0.001152 0.001039 0
-0.001563 0.000199 0
-0.001730 -0.000197 0
-0.001745 -0.000319 0
-0.001687 -0.000323 0
-0.001599 -0.000290 0
-0.001505 -0.000251 0
-0.001413 -0.000216 0
-0.001327 -0.000188 0
-0.001247 -0.000167 0
-0.001172 -0.000150 0
-0.001103 -0.000137 0
-0.001038 -0.000126 0
-0.000976 -0.000117 0
-0.000918 -0.000110 0
-0.000862 -0.000104 0
-0.000809 -0.000099 0
-0.000757 -0.000095 0
-0.000707 -0.000092 0
-0.000658 -0.000088 0
-0.000611 -0.000086 0
-0.000565 -0.000083 0
-0.000520 -0.000081 0
-0.000476 -0.000078 0
-0.000432 -0.000076 0
-0.000390 -0.000074 0
-0.000348 -0.000073 0
-0.000306 -0.000074 0
-0.000263 -0.000076 0
-0.000219 -0.000082 0
-0.000171 -0.000090 0
-0.000120 -0.000096 0
-0.000069 -0.000092 0
-0.000024 -0.000064 0
0.000000 -0.000021 0
0.000000 0.000000 0
0.000000 0.000000 0
0.000000 0.000000 0
0.000000 0.000103 0
-0.000080 0.000302 0
-0.000235 0.000414 0
-0.000413 0.000405 0
-0.000582 0.000338 0
-0.000727 0.000259 0
-0.000844 0.000189 0
-0.000936 0.000137 0
-0.001008 0.000101 0
-0.001065 0.000078 0
-0.001112 0.000063 0
-0.001152 0.000053 0
-0.001186 0.000046 0
-0.001216 0.000040 0
-0.001243 0.000036 0
-0.001268 0.000033 0
-0.001290 0.000030 0
-0.001310 0.000028 0
-0.001328 0.000025 0
-0.001345 0.000023 0
-0.001361 0.000022 0
-0.001375 0.000020 0
-0.001388 0.000019 0
-0.001400 0.000018 0
-0.001411 0.000016 0
-0.001422 0.000015 0
-0.001431 0.000014 0
-0.001440 0.000013 0
-0.001449 0.000013 0
-0.001457 0.000012 0
-0.001464 0.000011 0
-0.001471 0.000011 0
-0.001477 0.000010 0
-0.001483 0.000010 0
-0.001489 0.000010 0
-0.001494 0.000009 0
-0.001498 0.000008 0
-0.001502 0.000006 0
-0.001504 0.000003 0
-0.001504 -0.000002 0
-0.001502 -0.000008 0
-0.001497 -0.000014 0
-0.001490 -0.000019 0
-0.001481 -0.000021 0
-0.001473 -0.000015 0
-0.001470 0.000002 0
-0.001477 0.000032 0
-0.001501 0.000077 0
-0.001545 0.000130 0
-0.001611 0.000181 0
-0.001692 0.000210 0
-0.001769 0.000189 0
-0.001812 0.000088 0
-0.001779 -0.000118 0
-0.001622 -0.000434 0
-0.001307 -0.000808 0
-0.000843 -0.001088 0
-0.000326 -0.000976 0
0.000000 -0.000387 0
0.000000 0.001318 0
-0.000352 0.002418 0
-0.000919 0.001568 0
-0.001355 0.000530 0
-0.001593 -0.000058 0
-0.001681 -0.000302 0
-0.001679 -0.000370 0
-0.001632 -0.000364 0
-0.001565 -0.000334 0
-0.001491 -0.000300 0
-0.001416 -0.000269 0
-0.001342 -0.000244 0
-0.001271 -0.000222 0
-0.001203 -0.000205 0
-0.001138 -0.000191 0
-0.001075 -0.000180 0
-0.001014 -0.000170 0
-0.000955 -0.000162 0
-0.000898 -0.000155 0
-0.000842 -0.000149 0
-0.000788 -0.000144 0
-0.000735 -0.000140 0
-0.000683 -0.000136 0
-0.000632 -0.000132 0
-0.000582 -0.000129 0
-0.000532 -0.000125 0
-0.000484 -0.000122 0
-0.000436 -0.000120 0
-0.000389 -0.000119 0
-0.000341 -0.000120 0
-0.000292 -0.000124 0
-0.000242 -0.000132 0
-0.000188 -0.000143 0
-0.000132 -0.000151 0
-0.000075 -0.000143 0
-0.000026 -0.000100 0
0.000000 -0.000034 0
0.000000 0.000000 0
0.000000 0.000000 0
0.000000 0.000000 0
0.000000 0.000140 0
-0.000063 0.000412 0
-0.000193 0.000573 0
-0.000349 0.000575 0
-0.000505 0.000496 0
-0.000646 0.000394 0
-0.000766 0.000300 0
-0.000865 0.000226 0
-0.000947 0.000173 0
-0.001015 0.000137 0
-0.001073 0.000112 0
-0.001123 0.000095 0
-0.001167 0.000083 0
-0.001206 0.000074 0
-0.001242 0.000066 0
-0.001274 0.000060 0
-0.001304 0.000055 0
-0.001330 0.000050 0
-0.001355 0.000046 0
-0.001378 0.000042 0
-0.001398 0.000039 0
-0.001417 0.000036 0
-0.001434 0.000033 0
-0.001450 0.000031 0
-0.001464 0.000029 0
-0.001478 0.000027 0
-0.001491 0.000025 0
-0.001502 0.000023 0
-0.001513 0.000022 0
-0.001524 0.000020 0
-0.001533 0.000019 0
-0.001542 0.000018 0
-0.001550 0.000017 0
-0.001558 0.000016 0
-0.001565 0.000015 0
-0.001571 0.000014 0
-0.001577 0.000012 0
-0.001582 0.000009 0
-0.001586 0.000004 0
-0.001588 -0.000003 0
-0.001587 -0.000011 0
-0.001584 -0.000020 0
-0.001578 -0.000027 0
-0.001572 -0.000029 0
-0.001565 -0.000020 0
-0.001564 0.000004 0
-0.001572 0.000048 0
-0.001594 0.000110 0
-0.001635 0.000184 0
-0.001695 0.000252 0
-0.001768 0.000284 0
-0.001833 0.000242 0
-0.001862 0.000083 0
-0.001812 -0.000226 0
-0.001637 -0.000685 0
-0.001307 -0.001211 0
-0.000835 -0.001589 0
-0.000318 -0.001402 0
0.000000 -0.000550 0
0.000000 0.001463 0
-0.000247 0.002823 0
-0.000721 0.002043 0
-0.001132 0.000874 0
-0.001390 0.000129 0
-0.001516 -0.000232 0
-0.001554 -0.000371 0
-0.001541 -0.000403 0
-0.001501 -0.000392 0
-0.001449 -0.000365 0
-0.001391 -0.000337 0
-0.001330 -0.000311 0
-0.001269 -0.000289 0
-0.001209 -0.000270 0
-0.001149 -0.000254 0
-0.001090 -0.000241 0
-0.001032 -0.000230 0
-0.000975 -0.000220 0
-0.000920 -0.000212 0
-0.000865 -0.000205 0
-0.000811 -0.000199 0
-0.000757 -0.000193 0
-0.000705 -0.000188 0
-0.000653 -0.000184 0
-0.000601 -0.000180 0
-0.000550 -0.000176 0
-0.000500 -0.000172 0
-0.000450 -0.000169 0
-0.000401 -0.000168 0
-0.000351 -0.000170 0
-0.000300 -0.000175 0
-0.000247 -0.000186 0
-0.000192 -0.000200 0
-0.000134 -0.000209 0
-0.000076 -0.000197 0
-0.000026 -0.000139 0
0.000000 -0.000047 0
0.000000 0.000000 0
0.000000 0.000000 0
0.000000 0.000000 0
0.000000 0.000166 0
-0.000042 0.000494 0
-0.000135 0.000700 0
-0.000254 0.000717 0
-0.000381 0.000635 0
-0.000501 0.000519 0
-0.000609 0.000408 0
-0.000704 0.000318 0
-0.000785 0.000251 0
-0.000856 0.000203 0
-0.000918 0.000170 0
-0.000974 0.000146 0
-0.001024 0.000129 0
-0.001071 0.000115 0
-0.001114 0.000104 0
-0.001153 0.000095 0
-0.001189 0.000086 0
-0.001223 0.000079 0
-0.001254 0.000072 0
-0.001282 0.000066 0
-0.001307 0.000061 0
-0.001330 0.000056 0
-0.001352 0.000052 0
-0.001371 0.000048 0
-0.001389 0.000044 0
-0.001406 0.000041 0
-0.001421 0.000039 0
-0.001436 0.000036 0
-0.001449 0.000034 0
-0.001462 0.000031 0
-0.001474 0.000029 0
-0.001485 0.000028 0
-0.001496 0.000026 0
-0.001506 0.000025 0
-0.001515 0.000023 0
-0.001524 0.000021 0
-0.001532 0.000018 0
-0.001539 0.000014 0
-0.001546 0.000008 0
-0.001551 -0.000001 0
-0.001554 -0.000012 0
-0.001555 -0.000023 0
-0.001553 -0.000032 0
-0.001551 -0.000034 0
-0.001549 -0.000023 0
-0.001550 0.000008 0
-0.001558 0.000062 0
-0.001578 0.000140 0
-0.001614 0.000232 0
-0.001666 0.000313 0
-0.001728 0.000348 0
-0.001782 0.000283 0
-0.001800 0.000066 0
-0.001743 -0.000344 0
-0.001567 -0.000939 0
-0.001246 -0.001610 0
-0.000792 -0.002077 0
-0.000300 -0.001811 0
0.000000 -0.000705 0
0.000000 0.001566 0
-0.000177 0.003140 0
-0.000566 0.002452 0
-0.000932 0.001199 0
-0.001181 0.000326 0
-0.001318 -0.000138 0
-0.001375 -0.000344 0
-0.001383 -0.000416 0
-0.001364 -0.000426 0
-0.001330 -0.000411 0
-0.001289 -0.000388 0
-0.001243 -0.000365 0
-0.001195 -0.000344 0
-0.001145 -0.000325 0
-0.001094 -0.000310 0
-0.001043 -0.000296 0
-0.000992 -0.000284 0
-0.000940 -0.000274 0
-0.000889 -0.000266 0
-0.000838 -0.000258 0
-0.000787 -0.000251 0
-0.000737 -0.000245 0
-0.000686 -0.000240 0
-0.000636 -0.000235 0
-0.000587 -0.000231 0
-0.000537 -0.000226 0
-0.000488 -0.000222 0
-0.000440 -0.000219 0
-0.000391 -0.000218 0
-0.000342 -0.000220 0
-0.000292 -0.000227 0
-0.000239 -0.000240 0
-0.000185 -0.000256 0
-0.000128 -0.000266 0
-0.000072 -0.000251 0
-0.000024 -0.000176 0
0.000000 -0.000059 0
0.000000 0.000000 0
0.000000 0.000000 0
0.000000 0.000000 0
0.000000 0.000181 0
-0.000021 0.000546 0
-0.000075 0.000786 0
-0.000151 0.000820 0
-0.000238 0.000743 0
-0.000328 0.000622 0
-0.000414 0.000502 0
-0.000493 0.000402 0
-0.000565 0.000325 0
-0.000631 0.000270 0
-0.000692 0.000230 0
-0.000749 0.000201 0
-0.000802 0.000180 0
-0.000853 0.000163 0
-0.000901 0.000148 0
-0.000946 0.000136 0
-0.000988 0.000124 0
-0.001028 0.000114 0
-0.001064 0.000104 0
-0.001098 0.000096 0
-0.001129 0.000087 0
-0.001156 0.000080 0
-0.001182 0.000074 0
-0.001205 0.000068 0
-0.001226 0.000063 0
-0.001245 0.000059 0
-0.001264 0.000055 0
-0.001281 0.000051 0
-0.001297 0.000048 0
-0.001313 0.000045 0
-0.001328 0.000042 0
-0.001342 0.000040 0
-0.001355 0.000037 0
-0.001368 0.000035 0
-0.001380 0.000033 0
-0.001392 0.000031 0
-0.001403 0.000027 0
-0.001414 0.000022 0
-0.001424 0.000015 0
-0.001434 0.000005 0
-0.001442 -0.000007 0
-0.001448 -0.000020 0
-0.001453 -0.000031 0
-0.001457 -0.000034 0
-0.001460 -0.000022 0
-0.001465 0.000013 0
-0.001475 0.000076 0
-0.001493 0.000166 0
-0.001524 0.000272 0
-0.001567 0.000365 0
-0.001618 0.000400 0
-0.001662 0.000315 0
-0.001673 0.000044 0
-0.001616 -0.000459 0
-0.001451 -0.001181 0
-0.001153 -0.001987 0
-0.000732 -0.002536 0
-0.000277 -0.002194 0
0.000000 -0.000850 0
0.000000 0.001640 0
-0.000128 0.003390 0
-0.000448 0.002799 0
-0.000766 0.001490 0
-0.000992 0.000515 0
-0.001123 -0.000039 0
-0.001183 -0.000306 0
-0.001200 -0.000414 0
-0.001192 -0.000444 0
-0.001172 -0.000440 0
-0.001144 -0.000424 0
-0.001111 -0.000405 0
-0.001075 -0.000387 0
-0.001037 -0.000370 0
-0.000996 -0.000356 0
-0.000954 -0.000343 0
-0.000910 -0.000332 0
-0.000866 -0.000322 0
-0.000821 -0.000314 0
-0.000776 -0.000306 0
-0.000731 -0.000300 0
-0.000685 -0.000294 0
-0.000639 -0.000288 0
-0.000593 -0.000283 0
-0.000547 -0.000279 0
-0.000501 -0.000274 0
-0.000455 -0.000270 0
-0.000410 -0.000266 0
-0.000364 -0.000266 0
-0.000318 -0.000269 0
-0.000270 -0.000277 0
-0.000221 -0.000293 0
-0.000170 -0.000311 0
-0.000117 -0.000321 0
-0.000065 -0.000301 0
-0.000022 -0.000210 0
0.000000 -0.000071 0
0.000000 0.000000 0
0.000000 0.000000 0
0.000000 0.000000 0
0.000000 0.000186 0
-0.000003 0.000568 0
-0.000020 0.000830 0
-0.000053 0.000881 0
-0.000098 0.000812 0
-0.000151 0.000695 0
-0.000208 0.000573 0
-0.000265 0.000469 0
-0.000322 0.000389 0
-0.000377 0.000330 0
-0.000431 0.000287 0
-0.000484 0.000256 0
-0.000536 0.000233 0
-0.000588 0.000214 0
-0.000638 0.000197 0
-0.000687 0.000182 0
-0.000734 0.000168 0
-0.000779 0.000155 0
-0.000821 0.000142 0
-0.000860 0.000130 0
-0.000896 0.000119 0
-0.000929 0.000109 0
-0.000958 0.000100 0
-0.000985 0.000092 0
-0.001009 0.000085 0
-0.001032 0.000079 0
-0.001052 0.000074 0
-0.001072 0.000069 0
-0.001091 0.000065 0
-0.001109 0.000062 0
-0.001127 0.000058 0
-0.001144 0.000055 0
-0.001161 0.000052 0
-0.001177 0.000049 0
-0.001193 0.000047 0
-0.001208 0.000044 0
-0.001223 0.000040 0
-0.001238 0.000035 0
-0.001252 0.000027 0
-0.001267 0.000016 0
-0.001281 0.000003 0
-0.001294 -0.000011 0
-0.001306 -0.000024 0
-0.001317 -0.000027 0
-0.001326 -0.000015 0
-0.001336 0.000022 0
-0.001349 0.000090 0
-0.001366 0.000189 0
-0.001392 0.000305 0
-0.001427 0.000408 0
-0.001467 0.000442 0
-0.001502 0.000338 0
-0.001508 0.000020 0
-0.001456 -0.000566 0
-0.001309 -0.001402 0
-0.001043 -0.002329 0
-0.000664 -0.002954 0
-0.000252 -0.002544 0
0.000000 -0.000982 0
0.000000 0.001694 0
-0.000094 0.003588 0
-0.000358 0.003091 0
-0.000632 0.001744 0
-0.000831 0.000683 0
-0.000947 0.000053 0
-0.001001 -0.000267 0
-0.001018 -0.000406 0
-0.001015 -0.000453 0
-0.001001 -0.000459 0
-0.000983 -0.000448 0
-0.000960 -0.000433 0
-0.000934 -0.000418 0
-0.000905 -0.000405 0
-0.000874 -0.000392 0
-0.000840 -0.000381 0
-0.000805 -0.000372 0
-0.000769 -0.000363 0
-0.000731 -0.000355 0
-0.000692 -0.000349 0
-0.000653 -0.000342 0
-0.000613 -0.000337 0
-0.000573 -0.000332 0
-0.000532 -0.000327 0
-0.000491 -0.000322 0
-0.000450 -0.000317 0
-0.000408 -0.000313 0
-0.000367 -0.000310 0
-0.000326 -0.000310 0
-0.000284 -0.000313 0
-0.000241 -0.000324 0
-0.000196 -0.000341 0
-0.000150 -0.000361 0
-0.000102 -0.000371 0
-0.000056 -0.000346 0
-0.000018 -0.000241 0
0.000000 -0.000081 0
0.000000 0.000000 0
0.000000 0.000000 0
0.000000 0.000000 0
0.000000 0.000184 0
0.000011 0.000565 0
0.000025 0.000835 0
0.000032 0.000898 0
0.000028 0.000841 0
0.000012 0.000732 0
-0.000013 0.000616 0
-0.000044 0.000515 0
-0.000080 0.000436 0
-0.000120 0.000378 0
-0.000162 0.000337 0
-0.000207 0.000307 0
-0.000255 0.000284 0
-0.000303 0.000265 0
-0.000353 0.000248 0
-0.000403 0.000232 0
-0.000453 0.000216 0
-0.000502 0.000201 0
-0.000550 0.000186 0
-0.000594 0.000171 0
-0.000636 0.000156 0
-0.000674 0.000142 0
-0.000709 0.000130 0
-0.000740 0.000119 0
-0.000767 0.000110 0
-0.000792 0.000102 0
-0.000815 0.000095 0
-0.000837 0.000090 0
-0.000858 0.000085 0
-0.000879 0.000081 0
-0.000899 0.000077 0
-0.000919 0.000073 0
-0.000939 0.000070 0
-0.000959 0.000067 0
-0.000978 0.000064 0
-0.000997 0.000061 0
-0.001016 0.000057 0
-0.001035 0.000052 0
-0.001054 0.000044 0
-0.001074 0.000033 0
-0.001094 0.000020 0
-0.001113 0.000005 0
-0.001133 -0.000009 0
-0.001151 -0.000014 0
-0.001167 -0.000002 0
-0.001183 0.000035 0
-0.001198 0.000105 0
-0.001215 0.000209 0
-0.001237 0.000332 0
-0.001264 0.000441 0
-0.001295 0.000475 0
-0.001321 0.000356 0
-0.001325 -0.000002 0
-0.001280 -0.000659 0
-0.001155 -0.001595 0
-0.000925 -0.002631 0
-0.000593 -0.003326 0
-0.000227 -0.002858 0
0.000000 -0.001102 0
0.000000 0.001734 0
-0.000069 0.003748 0
-0.000288 0.003337 0
-0.000524 0.001964 0
-0.000697 0.000830 0
-0.000796 0.000131 0
-0.000840 -0.000235 0
-0.000852 -0.000400 0
-0.000848 -0.000460 0
-0.000837 -0.000472 0
-0.000823 -0.000465 0
-0.000807 -0.000453 0
-0.000788 -0.000441 0
-0.000767 -0.000430 0
-0.000744 -0.000420 0
-0.000718 -0.000411 0
-0.000691 -0.000404 0
-0.000661 -0.000396 0
-0.000630 -0.000390 0
-0.000598 -0.000384 0
-0.000565 -0.000379 0
-0.000531 -0.000374 0
-0.000496 -0.000369 0
-0.000461 -0.000365 0
-0.000425 -0.000360 0
-0.000389 -0.000356 0
-0.000353 -0.000352 0
-0.000317 -0.000349 0
-0.000281 -0.000349 0
-0.000244 -0.000353 0
-0.000207 -0.000365 0
-0.000168 -0.000383 0
-0.000127 -0.000405 0
-0.000086 -0.000415 0
-0.000046 -0.000385 0
-0.000015 -0.000266 0
0.000000 -0.000089 0
0.000000 0.000000 0
0.000000 0.000000 0
0.000000 0.000000 0
0.000000 0.000175 0
0.000021 0.000542 0
0.000060 0.000808 0
0.000101 0.000878 0