# vtk DataFile Version 2.0
generated by CFD-lab course output (written by Tobias Neckel) 
ASCII

DATASET STRUCTURED_GRID
DIMENSIONS  99 49 1 
POINTS 4851 float

0.000000 0.000000 0
0.020000 0.000000 0
0.040000 0.000000 0
0.060000 0.000000 0
0.080000 0.000000 0
0.100000 0.000000 0
0.120000 0.000000 0
0.140000 0.000000 0
0.160000 0.000000 0
0.180000 0.000000 0
0.200000 0.000000 0
0.220000 0.000000 0
0.240000 0.000000 0
0.260000 0.000000 0
0.280000 0.000000 0
0.300000 0.000000 0
0.320000 0.000000 0
0.340000 0.000000 0
0.360000 0.000000 0
0.380000 0.000000 0
0.400000 0.000000 0
0.420000 0.000000 0
0.440000 0.000000 0
0.460000 0.000000 0
0.480000 0.000000 0
0.500000 0.000000 0
0.520000 0.000000 0
0.540000 0.000000 0
0.560000 0.000000 0
0.580000 0.000000 0
0.600000 0.000000 0
0.620000 0.000000 0
0.640000 0.000000 0
0.660000 0.000000 0
0.680000 0.000000 0
0.700000 0.000000 0
0.720000 0.000000 0
0.740000 0.000000 0
0.760000 0.000000 0
0.780000 0.000000 0
0.800000 0.000000 0
0.820000 0.000000 0
0.840000 0.000000 0
0.860000 0.000000 0
0.880000 0.000000 0
0.900000 0.000000 0
0.920000 0.000000 0
0.940000 0.000000 0
0.960000 0.000000 0
0.980000 0.000000 0
1.000000 0.000000 0
1.020000 0.000000 0
1.040000 0.000000 0
1.060000 0.000000 0
1.080000 0.000000 0
1.100000 0.000000 0
1.120000 0.000000 0
1.140000 0.000000 0
1.160000 0.000000 0
1.180000 0.000000 0
1.200000 0.000000 0
1.220000 0.000000 0
1.240000 0.000000 0
1.260000 0.000000 0
1.280000 0.000000 0
1.300000 0.000000 0
1.320000 0.000000 0
1.340000 0.000000 0
1.360000 0.000000 0
1.380000 0.000000 0
1.400000 0.000000 0
1.420000 0.000000 0
1.440000 0.000000 0
1.460000 0.000000 0
1.480000 0.000000 0
1.500000 0.000000 0
1.520000 0.000000 0
1.540000 0.000000 0
1.560000 0.000000 0
1.580000 0.000000 0
1.600000 0.000000 0
1.620000 0.000000 0
1.640000 0.000000 0
1.660000 0.000000 0
1.680000 0.000000 0
1.700000 0.000000 0
1.720000 0.000000 0
1.740000 0.000000 0
1.760000 0.000000 0
1.780000 0.000000 0
1.800000 0.000000 0
1.820000 0.000000 0
1.840000 0.000000 0
1.860000 0.000000 0
1.880000 0.000000 0
1.900000 0.000000 0
1.920000 0.000000 0
1.940000 0.000000 0
1.960000 0.000000 0
0.000000 0.020000 0
0.020000 0.020000 0
0.040000 0.020000 0
0.060000 0.020000 0
0.080000 0.020000 0
0.100000 0.020000 0
0.120000 0.020000 0
0.140000 0.020000 0
0.160000 0.020000 0
0.180000 0.020000 0
0.200000 0.020000 0
0.220000 0.020000 0
0.240000 0.020000 0
0.260000 0.020000 0
0.280000 0.020000 0
0.300000 0.020000 0
0.320000 0.020000 0
0.340000 0.020000 0
0.360000 0.020000 0
0.380000 0.020000 0
0.400000 0.020000 0
0.420000 0.020000 0
0.440000 0.020000 0
0.460000 0.020000 0
0.480000 0.020000 0
0.500000 0.020000 0
0.520000 0.020000 0
0.540000 0.020000 0
0.560000 0.020000 0
0.580000 0.020000 0
0.600000 0.020000 0
0.620000 0.020000 0
0.640000 0.020000 0
0.660000 0.020000 0
0.680000 0.020000 0
0.700000 0.020000 0
0.720000 0.020000 0
0.740000 0.020000 0
0.760000 0.020000 0
0.780000 0.020000 0
0.800000 0.020000 0
0.820000 0.020000 0
0.840000 0.020000 0
0.860000 0.020000 0
0.880000 0.020000 0
0.900000 0.020000 0
0.920000 0.020000 0
0.940000 0.020000 0
0.960000 0.020000 0
0.980000 0.020000 0
1.000000 0.020000 0
1.020000 0.020000 0
1.040000 0.020000 0
1.060000 0.020000 0
1.080000 0.020000 0
1.100000 0.020000 0
1.120000 0.020000 0
1.140000 0.020000 0
1.160000 0.020000 0
1.180000 0.020000 0
1.200000 0.020000 0
1.220000 0.020000 0
1.240000 0.020000 0
1.260000 0.020000 0
1.280000 0.020000 0
1.300000 0.020000 0
1.320000 0.020000 0
1.340000 0.020000 0
1.360000 0.020000 0
1.380000 0.020000 0
1.400000 0.020000 0
1.420000 0.020000 0
1.440000 0.020000 0
1.460000 0.020000 0
1.480000 0.020000 0
1.500000 0.020000 0
1.520000 0.020000 0
1.540000 0.020000 0
1.560000 0.020000 0
1.580000 0.020000 0
1.600000 0.020000 0
1.620000 0.020000 0
1.640000 0.020000 0
1.660000 0.020000 0
1.680000 0.020000 0
1.700000 0.020000 0
1.720000 0.020000 0
1.740000 0.020000 0
1.760000 0.020000 0
1.780000 0.020000 0
1.800000 0.020000 0
1.820000 0.020000 0
1.840000 0.020000 0
1.860000 0.020000 0
1.880000 0.020000 0
1.900000 0.020000 0
1.920000 0.020000 0
1.940000 0.020000 0
1.960000 0.020000 0
0.000000 0.040000 0
0.020000 0.040000 0
0.040000 0.040000 0
0.060000 0.040000 0
0.080000 0.040000 0
0.100000 0.040000 0
0.120000 0.040000 0
0.140000 0.040000 0
0.160000 0.040000 0
0.180000 0.040000 0
0.200000 0.040000 0
0.220000 0.040000 0
0.240000 0.040000 0
0.260000 0.040000 0
0.280000 0.040000 0
0.300000 0.040000 0
0.320000 0.040000 0
0.340000 0.040000 0
0.360000 0.040000 0
0.380000 0.040000 0
0.400000 0.040000 0
0.420000 0.040000 0
0.440000 0.040000 0
0.460000 0.040000 0
0.480000 0.040000 0
0.500000 0.040000 0
0.520000 0.040000 0
0.540000 0.040000 0
0.560000 0.040000 0
0.580000 0.040000 0
0.600000 0.040000 0
0.620000 0.040000 0
0.640000 0.040000 0
0.660000 0.040000 0
0.680000 0.040000 0
0.700000 0.040000 0
0.720000 0.040000 0
0.740000 0.040000 0
0.760000 0.040000 0
0.780000 0.040000 0
0.800000 0.040000 0
0.820000 0.040000 0
0.840000 0.040000 0
0.860000 0.040000 0
0.880000 0.040000 0
0.900000 0.040000 0
0.920000 0.040000 0
0.940000 0.040000 0
0.960000 0.040000 0
0.980000 0.040000 0
1.000000 0.040000 0
1.020000 0.040000 0
1.040000 0.040000 0
1.060000 0.040000 0
1.080000 0.040000 0
1.100000 0.040000 0
1.120000 0.040000 0
1.140000 0.040000 0
1.160000 0.040000 0
1.180000 0.040000 0
1.200000 0.040000 0
1.220000 0.040000 0
1.240000 0.040000 0
1.260000 0.040000 0
1.280000 0.040000 0
1.300000 0.040000 0
1.320000 0.040000 0
1.340000 0.040000 0
1.360000 0.040000 0
1.380000 0.040000 0
1.400000 0.040000 0
1.420000 0.040000 0
1.440000 0.040000 0
1.460000 0.040000 0
1.480000 0.040000 0
1.500000 0.040000 0
1.520000 0.040000 0
1.540000 0.040000 0
1.560000 0.040000 0
1.580000 0.040000 0
1.600000 0.040000 0
1.620000 0.040000 0
1.640000 0.040000 0
1.660000 0.040000 0
1.680000 0.040000 0
1.700000 0.040000 0
1.720000 0.040000 0
1.740000 0.040000 0
1.760000 0.040000 0
1.780000 0.040000 0
1.800000 0.040000 0
1.820000 0.040000 0
1.840000 0.040000 0
1.860000 0.040000 0
1.880000 0.040000 0
1.900000 0.040000 0
1.920000 0.040000 0
1.940000 0.040000 0
1.960000 0.040000 0
0.000000 0.060000 0
0.020000 0.060000 0
0.040000 0.060000 0
0.060000 0.060000 0
0.080000 0.060000 0
0.100000 0.060000 0
0.120000 0.060000 0
0.140000 0.060000 0
0.160000 0.060000 0
0.180000 0.060000 0
0.200000 0.060000 0
0.220000 0.060000 0
0.240000 0.060000 0
0.260000 0.060000 0
0.280000 0.060000 0
0.300000 0.060000 0
0.320000 0.060000 0
0.340000 0.060000 0
0.360000 0.060000 0
0.380000 0.060000 0
0.400000 0.060000 0
0.420000 0.060000 0
0.440000 0.060000 0
0.460000 0.060000 0
0.480000 0.060000 0
0.500000 0.060000 0
0.520000 0.060000 0
0.540000 0.060000 0
0.560000 0.060000 0
0.580000 0.060000 0
0.600000 0.060000 0
0.620000 0.060000 0
0.640000 0.060000 0
0.660000 0.060000 0
0.680000 0.060000 0
0.700000 0.060000 0
0.720000 0.060000 0
0.740000 0.060000 0
0.760000 0.060000 0
0.780000 0.060000 0
0.800000 0.060000 0
0.820000 0.060000 0
0.840000 0.060000 0
0.860000 0.060000 0
0.880000 0.060000 0
0.900000 0.060000 0
0.920000 0.060000 0
0.940000 0.060000 0
0.960000 0.060000 0
0.980000 0.060000 0
1.000000 0.060000 0
1.020000 0.060000 0
1.040000 0.060000 0
1.060000 0.060000 0
1.080000 0.060000 0
1.100000 0.060000 0
1.120000 0.060000 0
1.140000 0.060000 0
1.160000 0.060000 0
1.180000 0.060000 0
1.200000 0.060000 0
1.220000 0.060000 0
1.240000 0.060000 0
1.260000 0.060000 0
1.280000 0.060000 0
1.300000 0.060000 0
1.320000 0.060000 0
1.340000 0.060000 0
1.360000 0.060000 0
1.380000 0.060000 0
1.400000 0.060000 0
1.420000 0.060000 0
1.440000 0.060000 0
1.460000 0.060000 0
1.480000 0.060000 0
1.500000 0.060000 0
1.520000 0.060000 0
1.540000 0.060000 0
1.560000 0.060000 0
1.580000 0.060000 0
1.600000 0.060000 0
1.620000 0.060000 0
1.640000 0.060000 0
1.660000 0.060000 0
1.680000 0.060000 0
1.700000 0.060000 0
1.720000 0.060000 0
1.740000 0.060000 0
1.760000 0.060000 0
1.780000 0.060000 0
1.800000 0.060000 0
1.820000 0.060000 0
1.840000 0.060000 0
1.860000 0.060000 0
1.880000 0.060000 0
1.900000 0.060000 0
1.920000 0.060000 0
1.940000 0.060000 0
1.960000 0.060000 0
0.000000 0.080000 0
0.020000 0.080000 0
0.040000 0.080000 0
0.060000 0.080000 0
0.080000 0.080000 0
0.100000 0.080000 0
0.120000 0.080000 0
0.140000 0.080000 0
0.160000 0.080000 0
0.180000 0.080000 0
0.200000 0.080000 0
0.220000 0.080000 0
0.240000 0.080000 0
0.260000 0.080000 0
0.280000 0.080000 0
0.300000 0.080000 0
0.320000 0.080000 0
0.340000 0.080000 0
0.360000 0.080000 0
0.380000 0.080000 0
0.400000 0.080000 0
0.420000 0.080000 0
0.440000 0.080000 0
0.460000 0.080000 0
0.480000 0.080000 0
0.500000 0.080000 0
0.520000 0.080000 0
0.540000 0.080000 0
0.560000 0.080000 0
0.580000 0.080000 0
0.600000 0.080000 0
0.620000 0.080000 0
0.640000 0.080000 0
0.660000 0.080000 0
0.680000 0.080000 0
0.700000 0.080000 0
0.720000 0.080000 0
0.740000 0.080000 0
0.760000 0.080000 0
0.780000 0.080000 0
0.800000 0.080000 0
0.820000 0.080000 0
0.840000 0.080000 0
0.860000 0.080000 0
0.880000 0.080000 0
0.900000 0.080000 0
0.920000 0.080000 0
0.940000 0.080000 0
0.960000 0.080000 0
0.980000 0.080000 0
1.000000 0.080000 0
1.020000 0.080000 0
1.040000 0.080000 0
1.060000 0.080000 0
1.080000 0.080000 0
1.100000 0.080000 0
1.120000 0.080000 0
1.140000 0.080000 0
1.160000 0.080000 0
1.180000 0.080000 0
1.200000 0.080000 0
1.220000 0.080000 0
1.240000 0.080000 0
1.260000 0.080000 0
1.280000 0.080000 0
1.300000 0.080000 0
1.320000 0.080000 0
1.340000 0.080000 0
1.360000 0.080000 0
1.380000 0.080000 0
1.400000 0.080000 0
1.420000 0.080000 0
1.440000 0.080000 0
1.460000 0.080000 0
1.480000 0.080000 0
1.500000 0.080000 0
1.520000 0.080000 0
1.540000 0.080000 0
1.560000 0.080000 0
1.580000 0.080000 0
1.600000 0.080000 0
1.620000 0.080000 0
1.640000 0.080000 0
1.660000 0.080000 0
1.680000 0.080000 0
1.700000 0.080000 0
1.720000 0.080000 0
1.740000 0.080000 0
1.760000 0.080000 0
1.780000 0.080000 0
1.800000 0.080000 0
1.820000 0.080000 0
1.840000 0.080000 0
1.860000 0.080000 0
1.880000 0.080000 0
[...]
POINT_DATA 4851 

VECTORS velocity float
0.000000 0.000000 0
-0.000385 0.000000 0
-0.000522 0.000000 0
-0.000485 0.000000 0
-0.000408 0.000000 0
-0.000339 0.000000 0
-0.000288 0.000000 0
-0.000251 0.000000 0
-0.000223 0.000000 0
-0.000202 0.000000 0
-0.000184 0.000000 0
-0.000170 0.000000 0
-0.000157 0.000000 0
-0.000146 0.000000 0
-0.000136 0.000000 0
-0.000127 0.000000 0
-0.000119 0.000000 0
-0.000111 0.000000 0
-0.000103 0.000000 0
-0.000096 0.000000 0
-0.000090 0.000000 0
-0.000083 0.000000 0
-0.000077 0.000000 0
-0.000071 0.000000 0
-0.000065 0.000000 0
-0.000060 0.000000 0
-0.000054 0.000000 0
-0.000049 0.000000 0
-0.000044 0.000000 0
-0.000040 0.000000 0
-0.000035 0.000000 0
-0.000030 0.000000 0
-0.000024 0.000000 0
-0.000017 0.000000 0
-0.000009 0.000000 0
-0.000003 0.000000 0
0.000000 0.000000 0
0.000000 0.000000 0
0.000000 0.000000 0
0.000000 0.000000 0
0.000000 0.000000 0
-0.000017 0.000000 0
-0.000054 0.000000 0
-0.000093 0.000000 0
-0.000124 0.000000 0
-0.000147 0.000000 0
-0.000161 0.000000 0
-0.000170 0.000000 0
-0.000176 0.000000 0
-0.000180 0.000000 0
-0.000183 0.000000 0
-0.000185 0.000000 0
-0.000188 0.000000 0
-0.000189 0.000000 0
-0.000191 0.000000 0
-0.000193 0.000000 0
-0.000194 0.000000 0
-0.000196 0.000000 0
-0.000197 0.000000 0
-0.000199 0.000000 0
-0.000200 0.000000 0
-0.000201 0.000000 0
-0.000202 0.000000 0
-0.000203 0.000000 0
-0.000204 0.000000 0
-0.000205 0.000000 0
-0.000206 0.000000 0
-0.000207 0.000000 0
-0.000208 0.000000 0
-0.000209 0.000000 0
-0.000210 0.000000 0
-0.000211 0.000000 0
-0.000211 0.000000 0
-0.000212 0.000000 0
-0.000213 0.000000 0
-0.000214 0.000000 0
-0.000215 0.000000 0
-0.000216 0.000000 0
-0.000216 0.000000 0
-0.000217 0.000000 0
-0.000216 0.000000 0
-0.000216 0.000000 0
-0.000215 0.000000 0
-0.000213 0.000000 0
-0.000212 0.000000 0
-0.000211 0.000000 0
-0.000212 0.000000 0
-0.000217 0.000000 0
-0.000227 0.000000 0
-0.000242 0.000000 0
-0.000262 0.000000 0
-0.000284 0.000000 0
-0.000305 0.000000 0
-0.000315 0.000000 0
-0.000304 0.000000 0
-0.000259 0.000000 0
-0.000176 0.000000 0
-0.000070 0.000000 0
0.000000 0.000000 0
0.000000 0.000386 0
-0.000767 0.000523 0
-0.001207 0.000101 0
-0.001268 -0.000113 0
-0.001170 -0.000145 0
-0.001040 -0.000119 0
-0.000921 -0.000088 0
-0.000823 -0.000064 0
-0.000744 -0.000048 0
-0.000680 -0.000038 0
-0.000626 -0.000031 0
-0.000580 -0.000026 0
-0.000539 -0.000023 0
-0.000503 -0.000020 0
-0.000469 -0.000018 0
-0.000439 -0.000017 0
-0.000411 -0.000016 0
-0.000384 -0.000015 0
-0.000359 -0.000014 0
-0.000335 -0.000013 0
-0.000312 -0.000012 0
-0.000289 -0.000012 0
-0.000268 -0.000011 0
-0.000247 -0.000011 0
-0.000227 -0.000011 0
-0.000208 -0.000010 0
-0.000189 -0.000010 0
-0.000171 -0.000009 0
-0.000153 -0.000009 0
-0.000136 -0.000009 0
-0.000119 -0.000009 0
-0.000100 -0.000010 0
-0.000079 -0.000012 0
-0.000056 -0.000014 0
-0.000032 -0.000014 0
-0.000010 -0.000009 0
0.000000 -0.000002 0
0.000000 0.000000 0
0.000000 0.000000 0
0.000000 0.000000 0
0.000000 0.000017 0
-0.000053 0.000053 0
-0.000157 0.000075 0
-0.000269 0.000070 0
-0.000366 0.000054 0
-0.000441 0.000036 0
-0.000494 0.000023 0
-0.000530 0.000014 0
-0.000555 0.000009 0
-0.000574 0.000006 0
-0.000588 0.000005 0
-0.000600 0.000004 0
-0.000609 0.000004 0
-0.000618 0.000003 0
-0.000626 0.000003 0
-0.000633 0.000003 0
-0.000640 0.000003 0
-0.000646 0.000002 0
-0.000651 0.000002 0
-0.000657 0.000002 0
-0.000661 0.000002 0
-0.000666 0.000002 0
-0.000670 0.000002 0
-0.000675 0.000002 0
-0.000678 0.000002 0
-0.000682 0.000002 0
-0.000686 0.000001 0
-0.000689 0.000001 0
-0.000692 0.000001 0
-0.000695 0.000001 0
-0.000698 0.000001 0
-0.000701 0.000001 0
-0.000704 0.000001 0
-0.000707 0.000001 0
-0.000709 0.000001 0
-0.000712 0.000001 0
-0.000714 0.000001 0
-0.000716 0.000001 0
-0.000718 0.000000 0
-0.000718 -0.000000 0
-0.000717 -0.000001 0
-0.000715 -0.000002 0
-0.000711 -0.000003 0
-0.000706 -0.000003 0
-0.000702 -0.000003 0
-0.000701 0.000000 0
-0.000706 0.000006 0
-0.000722 0.000014 0
-0.000751 0.000024 0
-0.000794 0.000034 0
-0.000850 0.000042 0
-0.000909 0.000043 0
-0.000955 0.000030 0
-0.000965 -0.000002 0
-0.000907 -0.000057 0
-0.000754 -0.000128 0
-0.000501 -0.000189 0
-0.000199 -0.000176 0
0.000000 -0.000071 0
0.000000 0.000768 0
-0.000661 0.001208 0
-0.001290 0.000501 0
-0.001571 -0.000036 0
-0.001608 -0.000227 0
-0.001533 -0.000248 0
-0.001422 -0.000215 0
-0.001310 -0.000176 0
-0.001208 -0.000143 0
-0.001118 -0.000118 0
-0.001039 -0.000099 0
-0.000969 -0.000086 0
-0.000905 -0.000076 0
-0.000848 -0.000069 0
-0.000794 -0.000063 0
-0.000745 -0.000058 0
-0.000698 -0.000054 0
-0.000654 -0.000051 0
-0.000612 -0.000048 0
-0.000572 -0.000046 0
-0.000533 -0.000044 0
-0.000496 -0.000043 0
-0.000460 -0.000041 0
-0.000425 -0.000040 0
-0.000390 -0.000039 0
-0.000357 -0.000037 0
-0.000325 -0.000036 0
-0.000293 -0.000035 0
-0.000262 -0.000034 0
-0.000231 -0.000034 0
-0.000200 -0.000035 0
-0.000167 -0.000038 0
-0.000131 -0.000043 0
-0.000093 -0.000047 0
-0.000053 -0.000045 0
-0.000018 -0.000031 0
0.000000 -0.000010 0
0.000000 0.000000 0
0.000000 0.000000 0
0.000000 0.000000 0
0.000000 0.000052 0
-0.000074 0.000156 0
-0.000216 0.000216 0
-0.000373 0.000209 0
-0.000518 0.000171 0
-0.000636 0.000127 0
-0.000728 0.000089 0
-0.000796 0.000061 0
-0.000847 0.000043 0
-0.000886 0.000032 0
-0.000916 0.000025 0
-0.000941 0.000021 0
-0.000963 0.000018 0
-0.000981 0.000016 0
-0.000998 0.000014 0
-0.001013 0.000013 0
-0.001027 0.000012 0
-0.001039 0.000011 0
-0.001051 0.000010 0
-0.001062 0.000010 0
-0.001071 0.000009 0
-0.001080 0.000008 0
-0.001089 0.000008 0
-0.001097 0.000007 0
-0.001104 0.000007 0
-0.001111 0.000007 0
-0.001118 0.000006 0
-0.001124 0.000006 0
-0.001129 0.000006 0
-0.001135 0.000005 0
-0.001140 0.000005 0
-0.001145 0.000005 0
-0.001149 0.000005 0
-0.001154 0.000005 0
-0.001158 0.000005 0
-0.001162 0.000004 0
-0.001165 0.000004 0
-0.001168 0.000003 0
-0.001169 0.000001 0
-0.001169 -0.000001 0
-0.001167 -0.000004 0
-0.001163 -0.000007 0
-0.001156 -0.000009 0
-0.001149 -0.000009 0
-0.001143 -0.000006 0
-0.001143 0.000004 0
-0.001152 0.000020 0
-0.001175 0.000044 0
-0.001218 0.000072 0
-0.001278 0.000099 0
-0.001352 0.000114 0
-0.001424 0.000105 0
-0.001469 0.000055 0
-0.001453 -0.000049 0
-0.001334 -0.000211 0
-0.001083 -0.000407 0
-0.000704 -0.000556 0
-0.000274 -0.000501 0
0.000000 -0.000199 0
0.000000 0.001047 0
-0.000471 0.001813 0
-0.001087 0.001011 0
-0.001483 0.000205 0
-0.001645 -0.000183 0
-0.001661 -0.000304 0
-0.001606 -0.000310 0
-0.001523 -0.000278 0
-0.001434 -0.000240 0
-0.001347 -0.000207 0
-0.001265 -0.000180 0
-0.001189 -0.000160 0
-0.001118 -0.000144 0
-0.001052 -0.000131 0
-0.000990 -0.000121 0
-0.000932 -0.000113 0
-0.000876 -0.000106 0
-0.000823 -0.000100 0
-0.000772 -0.000096 0
-0.000723 -0.000092 0
-0.000675 -0.000088 0
-0.000628 -0.000085 0
-0.000583 -0.000083 0
-0.000539 -0.000080 0
-0.000496 -0.000078 0
-0.000453 -0.000076 0
-0.000412 -0.000074 0
-0.000371 -0.000072 0
-0.000331 -0.000071 0
-0.000291 -0.000071 0
-0.000250 -0.000073 0
-0.000208 -0.000078 0
-0.000163 -0.000086 0
-0.000114 -0.000091 0
-0.000066 -0.000088 0
-0.000023 -0.000062 0
0.000000 -0.000021 0
0.000000 0.000000 0
0.000000 0.000000 0
0.000000 0.000000 0
0.000000 0.000091 0
-0.000072 0.000269 0
-0.000213 0.000374 0
-0.000377 0.000372 0
-0.000534 0.000316 0
-0.000670 0.000246 0
-0.000782 0.000182 0
-0.000870 0.000133 0
-0.000939 0.000099 0
-0.000995 0.000076 0
-0.001040 0.000060 0
-0.001078 0.000050 0
-0.001111 0.000043 0
-0.001139 0.000038 0
-0.001165 0.000035 0
-0.001188 0.000031 0
-0.001209 0.000029 0
-0.001228 0.000026 0
-0.001246 0.000024 0
-0.001262 0.000022 0
-0.001276 0.000021 0
-0.001290 0.000019 0
-0.001302 0.000018 0
-0.001314 0.000017 0
-0.001324 0.000016 0
-0.001334 0.000015 0
-0.001343 0.000014 0
-0.001352 0.000013 0
-0.001360 0.000012 0
-0.001367 0.000012 0
-0.001374 0.000011 0
-0.001381 0.000011 0
-0.001387 0.000010 0
-0.001393 0.000010 0
-0.001398 0.000009 0
-0.001403 0.000008 0
-0.001407 0.000007 0
-0.001410 0.000005 0
-0.001411 0.000002 0
-0.001411 -0.000003 0
-0.001409 -0.000008 0
-0.001404 -0.000013 0
-0.001397 -0.000017 0
-0.001389 -0.000017 0
-0.001383 -0.000009 0
-0.001383 0.000009 0
-0.001393 0.000038 0
-0.001419 0.000079 0
-0.001463 0.000127 0
-0.001526 0.000169 0
-0.001599 0.000188 0
-0.001665 0.000160 0
-0.001695 0.000058 0
-0.001653 -0.000137 0
-0.001496 -0.000426 0
-0.001196 -0.000759 0
-0.000765 -0.000998 0
-0.000293 -0.000880 0
0.000000 -0.000345 0
0.000000 0.001240 0
-0.000325 0.002296 0
-0.000858 0.001513 0
-0.001273 0.000522 0
-0.001502 -0.000048 0
-0.001587 -0.000287 0
-0.001587 -0.000353 0
-0.001543 -0.000348 0
-0.001481 -0.000319 0
-0.001411 -0.000286 0
-0.001340 -0.000257 0
-0.001271 -0.000232 0
-0.001204 -0.000212 0
-0.001140 -0.000196 0
-0.001078 -0.000183 0
-0.001019 -0.000172 0
-0.000961 -0.000163 0
-0.000905 -0.000155 0
-0.000851 -0.000149 0
-0.000798 -0.000143 0
-0.000747 -0.000138 0
-0.000697 -0.000134 0
-0.000647 -0.000130 0
-0.000599 -0.000127 0
-0.000551 -0.000124 0
-0.000504 -0.000121 0
-0.000458 -0.000118 0
-0.000412 -0.000115 0
-0.000367 -0.000114 0
-0.000322 -0.000115 0
-0.000276 -0.000118 0
-0.000228 -0.000126 0
-0.000177 -0.000136 0
-0.000124 -0.000143 0
-0.000071 -0.000137 0
-0.000024 -0.000097 0
0.000000 -0.000033 0
0.000000 0.000000 0
0.000000 0.000000 0
0.000000 0.000000 0
0.000000 0.000124 0
-0.000058 0.000369 0
-0.000178 0.000521 0
-0.000323 0.000530 0
-0.000469 0.000464 0
-0.000602 0.000374 0
-0.000716 0.000288 0
-0.000811 0.000219 0
-0.000890 0.000168 0
-0.000956 0.000132 0
-0.001011 0.000108 0
-0.001059 0.000091 0
-0.001101 0.000079 0
-0.001139 0.000070 0
-0.001173 0.000063 0
-0.001204 0.000057 0
-0.001232 0.000052 0
-0.001257 0.000048 0
-0.001281 0.000044 0
-0.001302 0.000040 0
-0.001321 0.000037 0
-0.001339 0.000034 0
-0.001355 0.000032 0
-0.001370 0.000029 0
-0.001384 0.000027 0
-0.001396 0.000026 0
-0.001408 0.000024 0
-0.001419 0.000022 0
-0.001429 0.000021 0
-0.001439 0.000020 0
-0.001447 0.000019 0
-0.001456 0.000018 0
-0.001463 0.000017 0
-0.001470 0.000016 0
-0.001477 0.000015 0
-0.001483 0.000013 0
-0.001488 0.000011 0
-0.001492 0.000007 0
-0.001495 0.000002 0
-0.001496 -0.000004 0
-0.001495 -0.000012 0
-0.001492 -0.000019 0
-0.001486 -0.000024 0
-0.001480 -0.000023 0
-0.001476 -0.000012 0
-0.001476 0.000014 0
-0.001486 0.000056 0
-0.001510 0.000114 0
-0.001551 0.000179 0
-0.001608 0.000234 0
-0.001673 0.000253 0
-0.001728 0.000202 0
-0.001746 0.000043 0
-0.001688 -0.000249 0
-0.001514 -0.000668 0
-0.001201 -0.001137 0
-0.000761 -0.001459 0
-0.000288 -0.001267 0
0.000000 -0.000492 0
0.000000 0.001373 0
-0.000224 0.002672 0
-0.000664 0.001960 0
-0.001052 0.000850 0
-0.001298 0.000131 0
-0.001419 -0.000219 0
-0.001456 -0.000353 0
-0.001445 -0.000384 0
-0.001409 -0.000373 0
-0.001360 -0.000347 0
-0.001306 -0.000320 0
-0.001250 -0.000295 0
-0.001193 -0.000274 0
-0.001137 -0.000257 0
-0.001081 -0.000242 0
-0.001026 -0.000230 0
-0.000971 -0.000219 0
-0.000918 -0.000210 0
-0.000866 -0.000202 0
-0.000814 -0.000196 0
-0.000763 -0.000190 0
-0.000712 -0.000185 0
-0.000663 -0.000180 0
-0.000613 -0.000176 0
-0.000565 -0.000172 0
-0.000517 -0.000169 0
-0.000469 -0.000165 0
-0.000422 -0.000162 0
-0.000376 -0.000161 0
-0.000329 -0.000162 0
-0.000281 -0.000167 0
-0.000231 -0.000176 0
-0.000179 -0.000189 0
-0.000125 -0.000197 0
-0.000071 -0.000187 0
-0.000024 -0.000133 0
0.000000 -0.000045 0
0.000000 0.000000 0
0.000000 0.000000 0
0.000000 0.000000 0
0.000000 0.000148 0
-0.000039 0.000446 0
-0.000127 0.000639 0
-0.000240 0.000663 0
-0.000360 0.000595 0
-0.000474 0.000493 0
-0.000578 0.000392 0
-0.000668 0.000307 0
-0.000747 0.000243 0
-0.000815 0.000196 0
-0.000875 0.000164 0
-0.000929 0.000140 0
-0.000978 0.000123 0
-0.001022 0.000110 0
-0.001063 0.000099 0
-0.001101 0.000090 0
-0.001136 0.000082 0
-0.001168 0.000075 0
-0.001197 0.000069 0
-0.001223 0.000063 0
-0.001247 0.000057 0
-0.001269 0.000053 0
-0.001289 0.000049 0
-0.001307 0.000045 0
-0.001324 0.000042 0
-0.001339 0.000039 0
-0.001353 0.000036 0
-0.001367 0.000034 0
-0.001379 0.000032 0
-0.001391 0.000030 0
-0.001402 0.000028 0
-0.001412 0.000026 0
-0.001421 0.000025 0
-0.001430 0.000023 0
-0.001439 0.000022 0
-0.001447 0.000019 0
-0.001454 0.000016 0
-0.001460 0.000012 0
-0.001465 0.000005 0
-0.001469 -0.000003 0
-0.001471 -0.000013 0
-0.001471 -0.000022 0
-0.001469 -0.000029 0
-0.001467 -0.000027 0
-0.001465 -0.000013 0
-0.001467 0.000019 0
-0.001477 0.000072 0
-0.001498 0.000144 0
-0.001533 0.000224 0
-0.001583 0.000291 0
-0.001638 0.000308 0
-0.001684 0.000233 0
-0.001693 0.000018 0
-0.001628 -0.000369 0
-0.001455 -0.000914 0
-0.001148 -0.001512 0
-0.000725 -0.001911 0
-0.000272 -0.001641 0
0.000000 -0.000633 0
0.000000 0.001465 0
-0.000156 0.002961 0
-0.000514 0.002341 0
-0.000857 0.001156 0
-0.001093 0.000319 0
-0.001223 -0.000129 0
-0.001277 -0.000327 0
-0.001286 -0.000395 0
-0.001270 -0.000404 0
-0.001239 -0.000389 0
-0.001201 -0.000367 0
-0.001159 -0.000345 0
-0.001115 -0.000325 0
-0.001069 -0.000308 0
-0.001022 -0.000294 0
-0.000974 -0.000281 0
-0.000926 -0.000270 0
-0.000879 -0.000261 0
-0.000831 -0.000253 0
-0.000783 -0.000246 0
-0.000735 -0.000239 0
-0.000688 -0.000234 0
-0.000641 -0.000229 0
-0.000594 -0.000224 0
-0.000547 -0.000220 0
-0.000501 -0.000216 0
-0.000455 -0.000212 0
-0.000409 -0.000209 0
-0.000363 -0.000208 0
-0.000317 -0.000209 0
-0.000271 -0.000215 0
-0.000222 -0.000227 0
-0.000171 -0.000242 0
-0.000119 -0.000251 0
-0.000067 -0.000237 0
-0.000022 -0.000167 0
0.000000 -0.000057 0
0.000000 0.000000 0
0.000000 0.000000 0
0.000000 0.000000 0
0.000000 0.000163 0
-0.000021 0.000496 0
-0.000074 0.000721 0
-0.000148 0.000762 0
-0.000233 0.000698 0
-0.000319 0.000592 0
-0.000402 0.000482 0
-0.000478 0.000388 0
-0.000549 0.000314 0
-0.000613 0.000261 0
-0.000672 0.000222 0
-0.000727 0.000194 0
-0.000779 0.000172 0
-0.000827 0.000156 0
-0.000874 0.000142 0
-0.000917 0.000129 0
-0.000958 0.000118 0
-0.000995 0.000108 0
-0.001030 0.000099 0
-0.001062 0.000091 0
-0.001091 0.000083 0
-0.001118 0.000076 0
-0.001141 0.000069 0
-0.001163 0.000064 0
-0.001182 0.000059 0
-0.001200 0.000055 0
-0.001216 0.000051 0
-0.001232 0.000048 0
-0.001247 0.000045 0
-0.001260 0.000042 0
-0.001274 0.000039 0
-0.001286 0.000037 0
-0.001298 0.000035 0
-0.001310 0.000033 0
-0.001320 0.000031 0
-0.001331 0.000028 0
-0.001341 0.000024 0
-0.001350 0.000019 0
-0.001358 0.000011 0
-0.001366 0.000001 0
-0.001373 -0.000010 0
-0.001378 -0.000021 0
-0.001381 -0.000029 0
-0.001383 -0.000028 0
-0.001386 -0.000012 0
-0.001391 0.000025 0
-0.001401 0.000087 0
-0.001420 0.000170 0
-0.001450 0.000263 0
-0.001491 0.000339 0
-0.001537 0.000354 0
-0.001574 0.000256 0
-0.001578 -0.000012 0
-0.001515 -0.000487 0
-0.001352 -0.001148 0
-0.001066 -0.001867 0
-0.000672 -0.002336 0
-0.000252 -0.001992 0
0.000000 -0.000764 0
0.000000 0.001529 0
-0.000110 0.003186 0
-0.000400 0.002661 0
-0.000696 0.001429 0
-0.000909 0.000497 0
-0.001033 -0.000034 0
-0.001091 -0.000290 0
-0.001108 -0.000392 0
-0.001102 -0.000419 0
-0.001084 -0.000415 0
-0.001059 -0.000399 0
-0.001029 -0.000381 0
-0.000996 -0.000365 0
-0.000961 -0.000349 0
-0.000924 -0.000336 0
-0.000885 -0.000325 0
-0.000845 -0.000315 0
-0.000804 -0.000306 0
-0.000762 -0.000298 0
-0.000720 -0.000291 0
-0.000678 -0.000285 0
-0.000635 -0.000279 0
-0.000592 -0.000274 0
-0.000549 -0.000269 0
-0.000506 -0.000265 0
-0.000463 -0.000261 0
-0.000421 -0.000257 0
-0.000378 -0.000253 0
-0.000336 -0.000252 0
-0.000293 -0.000254 0
-0.000249 -0.000262 0
-0.000204 -0.000275 0
-0.000156 -0.000292 0
-0.000107 -0.000302 0
-0.000059 -0.000283 0
-0.000020 -0.000199 0
0.000000 -0.000067 0
0.000000 0.000000 0
0.000000 0.000000 0
0.000000 0.000000 0
0.000000 0.000169 0
-0.000005 0.000520 0
-0.000025 0.000766 0
-0.000060 0.000821 0
-0.000106 0.000766 0
-0.000158 0.000662 0
-0.000214 0.000551 0
-0.000271 0.000454 0
-0.000326 0.000377 0
-0.000380 0.000319 0
-0.000433 0.000278 0
-0.000485 0.000247 0
-0.000536 0.000224 0
-0.000586 0.000205 0
-0.000635 0.000189 0
-0.000682 0.000174 0
-0.000728 0.000160 0
-0.000771 0.000148 0
-0.000812 0.000135 0
-0.000849 0.000124 0
-0.000884 0.000113 0
-0.000915 0.000103 0
-0.000942 0.000094 0
-0.000967 0.000086 0
-0.000989 0.000079 0
-0.001009 0.000073 0
-0.001028 0.000068 0
-0.001046 0.000064 0
-0.001062 0.000060 0
-0.001079 0.000057 0
-0.001094 0.000053 0
-0.001109 0.000051 0
-0.001124 0.000048 0
-0.001138 0.000045 0
-0.001152 0.000043 0
-0.001165 0.000039 0
-0.001178 0.000035 0
-0.001191 0.000029 0
-0.001204 0.000021 0
-0.001216 0.000011 0
-0.001228 -0.000002 0
-0.001239 -0.000014 0
-0.001248 -0.000023 0
-0.001257 -0.000022 0
-0.001265 -0.000006 0
-0.001273 0.000034 0
-0.001285 0.000101 0
-0.001302 0.000193 0
-0.001327 0.000295 0
-0.001361 0.000378 0
-0.001398 0.000392 0
-0.001427 0.000273 0
-0.001428 -0.000042 0
-0.001370 -0.000595 0
-0.001224 -0.001362 0
-0.000968 -0.002192 0
-0.000612 -0.002725 0
-0.000230 -0.002314 0
0.000000 -0.000885 0
0.000000 0.001575 0
-0.000078 0.003362 0
-0.000315 0.002928 0
-0.000568 0.001666 0
-0.000755 0.000656 0
-0.000865 0.000053 0
-0.000918 -0.000252 0
-0.000935 -0.000384 0
-0.000933 -0.000427 0
-0.000921 -0.000431 0
-0.000904 -0.000421 0
-0.000884 -0.000407 0
-0.000861 -0.000393 0
-0.000835 -0.000381 0
-0.000806 -0.000370 0
-0.000776 -0.000360 0
-0.000743 -0.000351 0
-0.000710 -0.000343 0
-0.000675 -0.000336 0
-0.000639 -0.000330 0
-0.000602 -0.000324 0
-0.000565 -0.000319 0
-0.000527 -0.000315 0
-0.000489 -0.000310 0
-0.000451 -0.000306 0
-0.000413 -0.000301 0
-0.000374 -0.000297 0
-0.000336 -0.000294 0
-0.000298 -0.000293 0
-0.000260 -0.000296 0
-0.000220 -0.000304 0
-0.000179 -0.000319 0
-0.000136 -0.000338 0
-0.000093 -0.000348 0
-0.000051 -0.000325 0
-0.000016 -0.000227 0
0.000000 -0.000076 0
0.000000 0.000000 0
0.000000 0.000000 0
0.000000 0.000000 0
0.000000 0.000168 0
0.000007 0.000521 0
0.000016 0.000775 0
0.000018 0.000842 0
0.000010 0.000797 0
-0.000008 0.000700 0
-0.000034 0.000594 0
-0.000066 0.000499 0
-0.000102 0.000424 0
-0.000142 0.000367 0
-0.000184 0.000326 0
-0.000229 0.000296 0
-0.000276 0.000273 0
-0.000324 0.000255 0
-0.000372 0.000238 0
-0.000422 0.000222 0
-0.000471 0.000207 0
-0.000518 0.000192 0
-0.000564 0.000177 0
-0.000608 0.000162 0
-0.000648 0.000148 0
-0.000684 0.000134 0
-0.000717 0.000122 0
-0.000746 0.000111 0
-0.000771 0.000101 0
-0.000793 0.000094 0
-0.000814 0.000087 0
-0.000833 0.000082 0
-0.000852 0.000077 0
-0.000870 0.000074 0
-0.000888 0.000070 0
-0.000905 0.000067 0
-0.000923 0.000064 0
-0.000940 0.000061 0
-0.000956 0.000058 0
-0.000973 0.000054 0
-0.000990 0.000050 0
-0.001006 0.000044 0
-0.001023 0.000036 0
-0.001040 0.000025 0
-0.001057 0.000012 0
-0.001074 -0.000001 0
-0.001090 -0.000011 0
-0.001105 -0.000011 0
-0.001119 0.000005 0
-0.001132 0.000045 0
-0.001146 0.000115 0
-0.001162 0.000212 0
-0.001183 0.000321 0
-0.001209 0.000409 0
-0.001238 0.000421 0
-0.001261 0.000286 0
-0.001260 -0.000069 0
-0.001211 -0.000690 0
-0.001086 -0.001550 0
-0.000863 -0.002479 0
-0.000549 -0.003074 0
-0.000208 -0.002605 0
0.000000 -0.000995 0
0.000000 0.001607 0
-0.000055 0.003502 0
-0.000250 0.003152 0
-0.000468 0.001870 0
-0.000630 0.000795 0
-0.000725 0.000128 0
-0.000768 -0.000221 0
-0.000781 -0.000377 0
-0.000778 -0.000432 0
-0.000768 -0.000443 0
-0.000756 -0.000436 0
-0.000741 -0.000425 0
-0.000724 -0.000414 0
-0.000705 -0.000404 0
-0.000684 -0.000395 0
-0.000661 -0.000387 0
-0.000635 -0.000380 0
-0.000608 -0.000374 0
-0.000580 -0.000368 0
-0.000550 -0.000363 0
-0.000519 -0.000358 0
-0.000487 -0.000354 0
-0.000455 -0.000350 0
-0.000422 -0.000345 0
-0.000389 -0.000341 0
-0.000356 -0.000337 0
-0.000322 -0.000333 0
-0.000289 -0.000329 0
-0.000256 -0.000329 0
-0.000222 -0.000332 0
-0.000188 -0.000342 0
-0.000152 -0.000359 0
-0.000115 -0.000378 0
-0.000077 -0.000387 0
-0.000041 -0.000360 0
-0.000013 -0.000249 0
0.000000 -0.000083 0
0.000000 0.000000 0
0.000000 0.000000 0
0.000000 0.000000 0
0.000000 0.000162 0
0.000016 0.000503 0
0.000048 0.000755 0
0.000082 0.000827 0