# vtk DataFile Version 2.0
generated by CFD-lab course output (written by Tobias Neckel) 
ASCII

DATASET STRUCTURED_GRID
DIMENSIONS  99 49 1 
POINTS 4851 float

0.000000 0.000000 0
0.020000 0.000000 0
0.040000 0.000000 0
0.060000 0.000000 0
0.080000 0.000000 0
0.100000 0.000000 0
0.120000 0.000000 0
0.140000 0.000000 0
0.160000 0.000000 0
0.180000 0.000000 0
0.200000 0.000000 0
0.220000 0.000000 0
0.240000 0.000000 0
0.260000 0.000000 0
0.280000 0.000000 0
0.300000 0.000000 0
0.320000 0.000000 0
0.340000 0.000000 0
0.360000 0.000000 0
0.380000 0.000000 0
0.400000 0.000000 0
0.420000 0.000000 0
0.440000 0.000000 0
0.460000 0.000000 0
0.480000 0.000000 0
0.500000 0.000000 0
0.520000 0.000000 0
0.540000 0.000000 0
0.560000 0.000000 0
0.580000 0.000000 0
0.600000 0.000000 0
0.620000 0.000000 0
0.640000 0.000000 0
0.660000 0.000000 0
0.680000 0.000000 0
0.700000 0.000000 0
0.720000 0.000000 0
0.740000 0.000000 0
0.760000 0.000000 0
0.780000 0.000000 0
0.800000 0.000000 0
0.820000 0.000000 0
0.840000 0.000000 0
0.860000 0.000000 0
0.880000 0.000000 0
0.900000 0.000000 0
0.920000 0.000000 0
0.940000 0.000000 0
0.960000 0.000000 0
0.980000 0.000000 0
1.000000 0.000000 0
1.020000 0.000000 0
1.040000 0.000000 0
1.060000 0.000000 0
1.080000 0.000000 0
1.100000 0.000000 0
1.120000 0.000000 0
1.140000 0.000000 0
1.160000 0.000000 0
1.180000 0.000000 0
1.200000 0.000000 0
1.220000 0.000000 0
1.240000 0.000000 0
1.260000 0.000000 0
1.280000 0.000000 0
1.300000 0.000000 0
1.320000 0.000000 0
1.340000 0.000000 0
1.360000 0.000000 0
1.380000 0.000000 0
1.400000 0.000000 0
1.420000 0.000000 0
1.440000 0.000000 0
1.460000 0.000000 0
1.480000 0.000000 0
1.500000 0.000000 0
1.520000 0.000000 0
1.540000 0.000000 0
1.560000 0.000000 0
1.580000 0.000000 0
1.600000 0.000000 0
1.620000 0.000000 0
1.640000 0.000000 0
1.660000 0.000000 0
1.680000 0.000000 0
1.700000 0.000000 0
1.720000 0.000000 0
1.740000 0.000000 0
1.760000 0.000000 0
1.780000 0.000000 0
1.800000 0.000000 0
1.820000 0.000000 0
1.840000 0.000000 0
1.860000 0.000000 0
1.880000 0.000000 0
1.900000 0.000000 0
1.920000 0.000000 0
1.940000 0.000000 0
1.960000 0.000000 0
0.000000 0.020000 0
0.020000 0.020000 0
0.040000 0.020000 0
0.060000 0.020000 0
0.080000 0.020000 0
0.100000 0.020000 0
0.120000 0.020000 0
0.140000 0.020000 0
0.160000 0.020000 0
0.180000 0.020000 0
0.200000 0.020000 0
0.220000 0.020000 0
0.240000 0.020000 0
0.260000 0.020000 0
0.280000 0.020000 0
0.300000 0.020000 0
0.320000 0.020000 0
0.340000 0.020000 0
0.360000 0.020000 0
0.380000 0.020000 0
0.400000 0.020000 0
0.420000 0.020000 0
0.440000 0.020000 0
0.460000 0.020000 0
0.480000 0.020000 0
0.500000 0.020000 0
0.520000 0.020000 0
0.540000 0.020000 0
0.560000 0.020000 0
0.580000 0.020000 0
0.600000 0.020000 0
0.620000 0.020000 0
0.640000 0.020000 0
0.660000 0.020000 0
0.680000 0.020000 0
0.700000 0.020000 0
0.720000 0.020000 0
0.740000 0.020000 0
0.760000 0.020000 0
0.780000 0.020000 0
0.800000 0.020000 0
0.820000 0.020000 0
0.840000 0.020000 0
0.860000 0.020000 0
0.880000 0.020000 0
0.900000 0.020000 0
0.920000 0.020000 0
0.940000 0.020000 0
0.960000 0.020000 0
0.980000 0.020000 0
1.000000 0.020000 0
1.020000 0.020000 0
1.040000 0.020000 0
1.060000 0.020000 0
1.080000 0.020000 0
1.100000 0.020000 0
1.120000 0.020000 0
1.140000 0.020000 0
1.160000 0.020000 0
1.180000 0.020000 0
1.200000 0.020000 0
1.220000 0.020000 0
1.240000 0.020000 0
1.260000 0.020000 0
1.280000 0.020000 0
1.300000 0.020000 0
1.320000 0.020000 0
1.340000 0.020000 0
1.360000 0.020000 0
1.380000 0.020000 0
1.400000 0.020000 0
1.420000 0.020000 0
1.440000 0.020000 0
1.460000 0.020000 0
1.480000 0.020000 0
1.500000 0.020000 0
1.520000 0.020000 0
1.540000 0.020000 0
1.560000 0.020000 0
1.580000 0.020000 0
1.600000 0.020000 0
1.620000 0.020000 0
1.640000 0.020000 0
1.660000 0.020000 0
1.680000 0.020000 0
1.700000 0.020000 0
1.720000 0.020000 0
1.740000 0.020000 0
1.760000 0.020000 0
1.780000 0.020000 0
1.800000 0.020000 0
1.820000 0.020000 0
1.840000 0.020000 0
1.860000 0.020000 0
1.880000 0.020000 0
1.900000 0.020000 0
1.920000 0.020000 0
1.940000 0.020000 0
1.960000 0.020000 0
0.000000 0.040000 0
0.020000 0.040000 0
0.040000 0.040000 0
0.060000 0.040000 0
0.080000 0.040000 0
0.100000 0.040000 0
0.120000 0.040000 0
0.140000 0.040000 0
0.160000 0.040000 0
0.180000 0.040000 0
0.200000 0.040000 0
0.220000 0.040000 0
0.240000 0.040000 0
0.260000 0.040000 0
0.280000 0.040000 0
0.300000 0.040000 0
0.320000 0.040000 0
0.340000 0.040000 0
0.360000 0.040000 0
0.380000 0.040000 0
0.400000 0.040000 0
0.420000 0.040000 0
0.440000 0.040000 0
0.460000 0.040000 0
0.480000 0.040000 0
0.500000 0.040000 0
0.520000 0.040000 0
0.540000 0.040000 0
0.560000 0.040000 0
0.580000 0.040000 0
0.600000 0.040000 0
0.620000 0.040000 0
0.640000 0.040000 0
0.660000 0.040000 0
0.680000 0.040000 0
0.700000 0.040000 0
0.720000 0.040000 0
0.740000 0.040000 0
0.760000 0.040000 0
0.780000 0.040000 0
0.800000 0.040000 0
0.820000 0.040000 0
0.840000 0.040000 0
0.860000 0.040000 0
0.880000 0.040000 0
0.900000 0.040000 0
0.920000 0.040000 0
0.940000 0.040000 0
0.960000 0.040000 0
0.980000 0.040000 0
1.000000 0.040000 0
1.020000 0.040000 0
1.040000 0.040000 0
1.060000 0.040000 0
1.080000 0.040000 0
1.100000 0.040000 0
1.120000 0.040000 0
1.140000 0.040000 0
1.160000 0.040000 0
1.180000 0.040000 0
1.200000 0.040000 0
1.220000 0.040000 0
1.240000 0.040000 0
1.260000 0.040000 0
1.280000 0.040000 0
1.300000 0.040000 0
1.320000 0.040000 0
1.340000 0.040000 0
1.360000 0.040000 0
1.380000 0.040000 0
1.400000 0.040000 0
1.420000 0.040000 0
1.440000 0.040000 0
1.460000 0.040000 0
1.480000 0.040000 0
1.500000 0.040000 0
1.520000 0.040000 0
1.540000 0.040000 0
1.560000 0.040000 0
1.580000 0.040000 0
1.600000 0.040000 0
1.620000 0.040000 0
1.640000 0.040000 0
1.660000 0.040000 0
1.680000 0.040000 0
1.700000 0.040000 0
1.720000 0.040000 0
1.740000 0.040000 0
1.760000 0.040000 0
1.780000 0.040000 0
1.800000 0.040000 0
1.820000 0.040000 0
1.840000 0.040000 0
1.860000 0.040000 0
1.880000 0.040000 0
1.900000 0.040000 0
1.920000 0.040000 0
1.940000 0.040000 0
1.960000 0.040000 0
0.000000 0.060000 0
0.020000 0.060000 0
0.040000 0.060000 0
0.060000 0.060000 0
0.080000 0.060000 0
0.100000 0.060000 0
0.120000 0.060000 0
0.140000 0.060000 0
0.160000 0.060000 0
0.180000 0.060000 0
0.200000 0.060000 0
0.220000 0.060000 0
0.240000 0.060000 0
0.260000 0.060000 0
0.280000 0.060000 0
0.300000 0.060000 0
0.320000 0.060000 0
0.340000 0.060000 0
0.360000 0.060000 0
0.380000 0.060000 0
0.400000 0.060000 0
0.420000 0.060000 0
0.440000 0.060000 0
0.460000 0.060000 0
0.480000 0.060000 0
0.500000 0.060000 0
0.520000 0.060000 0
0.540000 0.060000 0
0.560000 0.060000 0
0.580000 0.060000 0
0.600000 0.060000 0
0.620000 0.060000 0
0.640000 0.060000 0
0.660000 0.060000 0
0.680000 0.060000 0
0.700000 0.060000 0
0.720000 0.060000 0
0.740000 0.060000 0
0.760000 0.060000 0
0.780000 0.060000 0
0.800000 0.060000 0
0.820000 0.060000 0
0.840000 0.060000 0
0.860000 0.060000 0
0.880000 0.060000 0
0.900000 0.060000 0
0.920000 0.060000 0
0.940000 0.060000 0
0.960000 0.060000 0
0.980000 0.060000 0
1.000000 0.060000 0
1.020000 0.060000 0
1.040000 0.060000 0
1.060000 0.060000 0
1.080000 0.060000 0
1.100000 0.060000 0
1.120000 0.060000 0
1.140000 0.060000 0
1.160000 0.060000 0
1.180000 0.060000 0
1.200000 0.060000 0
1.220000 0.060000 0
1.240000 0.060000 0
1.260000 0.060000 0
1.280000 0.060000 0
1.300000 0.060000 0
1.320000 0.060000 0
1.340000 0.060000 0
1.360000 0.060000 0
1.380000 0.060000 0
1.400000 0.060000 0
1.420000 0.060000 0
1.440000 0.060000 0
1.460000 0.060000 0
1.480000 0.060000 0
1.500000 0.060000 0
1.520000 0.060000 0
1.540000 0.060000 0
1.560000 0.060000 0
1.580000 0.060000 0
1.600000 0.060000 0
1.620000 0.060000 0
1.640000 0.060000 0
1.660000 0.060000 0
1.680000 0.060000 0
1.700000 0.060000 0
1.720000 0.060000 0
1.740000 0.060000 0
1.760000 0.060000 0
1.780000 0.060000 0
1.800000 0.060000 0
1.820000 0.060000 0
1.840000 0.060000 0
1.860000 0.060000 0
1.880000 0.060000 0
1.900000 0.060000 0
1.920000 0.060000 0
1.940000 0.060000 0
1.960000 0.060000 0
0.000000 0.080000 0
0.020000 0.080000 0
0.040000 0.080000 0
0.060000 0.080000 0
0.080000 0.080000 0
0.100000 0.080000 0
0.120000 0.080000 0
0.140000 0.080000 0
0.160000 0.080000 0
0.180000 0.080000 0
0.200000 0.080000 0
0.220000 0.080000 0
0.240000 0.080000 0
0.260000 0.080000 0
0.280000 0.080000 0
0.300000 0.080000 0
0.320000 0.080000 0
0.340000 0.080000 0
0.360000 0.080000 0
0.380000 0.080000 0
0.400000 0.080000 0
0.420000 0.080000 0
0.440000 0.080000 0
0.460000 0.080000 0
0.480000 0.080000 0
0.500000 0.080000 0
0.520000 0.080000 0
0.540000 0.080000 0
0.560000 0.080000 0
0.580000 0.080000 0
0.600000 0.080000 0
0.620000 0.080000 0
0.640000 0.080000 0
0.660000 0.080000 0
0.680000 0.080000 0
0.700000 0.080000 0
0.720000 0.080000 0
0.740000 0.080000 0
0.760000 0.080000 0
0.780000 0.080000 0
0.800000 0.080000 0
0.820000 0.080000 0
0.840000 0.080000 0
0.860000 0.080000 0
0.880000 0.080000 0
0.900000 0.080000 0
0.920000 0.080000 0
0.940000 0.080000 0
0.960000 0.080000 0
0.980000 0.080000 0
1.000000 0.080000 0
1.020000 0.080000 0
1.040000 0.080000 0
1.060000 0.080000 0
1.080000 0.080000 0
1.100000 0.080000 0
1.120000 0.080000 0
1.140000 0.080000 0
1.160000 0.080000 0
1.180000 0.080000 0
1.200000 0.080000 0
1.220000 0.080000 0
1.240000 0.080000 0
1.260000 0.080000 0
1.280000 0.080000 0
1.300000 0.080000 0
1.320000 0.080000 0
1.340000 0.080000 0
1.360000 0.080000 0
1.380000 0.080000 0
1.400000 0.080000 0
1.420000 0.080000 0
1.440000 0.080000 0
1.460000 0.080000 0
1.480000 0.080000 0
1.500000 0.080000 0
1.520000 0.080000 0
1.540000 0.080000 0
1.560000 0.080000 0
1.580000 0.080000 0
1.600000 0.080000 0
1.620000 0.080000 0
1.640000 0.080000 0
1.660000 0.080000 0
1.680000 0.080000 0
1.700000 0.080000 0
1.720000 0.080000 0
1.740000 0.080000 0
1.760000 0.080000 0
1.780000 0.080000 0
1.800000 0.080000 0
1.820000 0.080000 0
1.840000 0.080000 0
1.860000 0.080000 0
1.880000 0.080000 0
[...]
POINT_DATA 4851 

VECTORS velocity float
0.000000 0.000000 0
-0.000456 0.000000 0
-0.000596 0.000000 0
-0.000543 0.000000 0
-0.000452 0.000000 0
-0.000373 0.000000 0
-0.000311 0.000000 0
-0.000265 0.000000 0
-0.000229 0.000000 0
-0.000201 0.000000 0
-0.000178 0.000000 0
-0.000159 0.000000 0
-0.000144 0.000000 0
-0.000130 0.000000 0
-0.000119 0.000000 0
-0.000109 0.000000 0
-0.000100 0.000000 0
-0.000092 0.000000 0
-0.000084 0.000000 0
-0.000077 0.000000 0
-0.000071 0.000000 0
-0.000064 0.000000 0
-0.000058 0.000000 0
-0.000051 0.000000 0
-0.000045 0.000000 0
-0.000039 0.000000 0
-0.000032 0.000000 0
-0.000026 0.000000 0
-0.000020 0.000000 0
-0.000015 0.000000 0
-0.000010 0.000000 0
-0.000006 0.000000 0
-0.000003 0.000000 0
-0.000001 0.000000 0
0.000001 0.000000 0
0.000000 0.000000 0
0.000000 0.000000 0
0.000000 0.000000 0
0.000000 0.000000 0
0.000000 0.000000 0
0.000000 0.000000 0
-0.000096 0.000000 0
-0.000238 0.000000 0
-0.000341 0.000000 0
-0.000394 0.000000 0
-0.000415 0.000000 0
-0.000421 0.000000 0
-0.000421 0.000000 0
-0.000421 0.000000 0
-0.000422 0.000000 0
-0.000423 0.000000 0
-0.000424 0.000000 0
-0.000425 0.000000 0
-0.000426 0.000000 0
-0.000427 0.000000 0
-0.000428 0.000000 0
-0.000428 0.000000 0
-0.000428 0.000000 0
-0.000428 0.000000 0
-0.000427 0.000000 0
-0.000427 0.000000 0
-0.000426 0.000000 0
-0.000425 0.000000 0
-0.000423 0.000000 0
-0.000422 0.000000 0
-0.000421 0.000000 0
-0.000421 0.000000 0
-0.000422 0.000000 0
-0.000423 0.000000 0
-0.000426 0.000000 0
-0.000430 0.000000 0
-0.000436 0.000000 0
-0.000443 0.000000 0
-0.000451 0.000000 0
-0.000459 0.000000 0
-0.000466 0.000000 0
-0.000471 0.000000 0
-0.000472 0.000000 0
-0.000469 0.000000 0
-0.000460 0.000000 0
-0.000445 0.000000 0
-0.000425 0.000000 0
-0.000401 0.000000 0
-0.000377 0.000000 0
-0.000358 0.000000 0
-0.000350 0.000000 0
-0.000358 0.000000 0
-0.000390 0.000000 0
-0.000446 0.000000 0
-0.000528 0.000000 0
-0.000632 0.000000 0
-0.000745 0.000000 0
-0.000849 0.000000 0
-0.000913 0.000000 0
-0.000901 0.000000 0
-0.000779 0.000000 0
-0.000532 0.000000 0
-0.000215 0.000000 0
0.000000 0.000000 0
0.000000 0.000457 0
-0.000913 0.000596 0
-0.001399 0.000088 0
-0.001452 -0.000143 0
-0.001334 -0.000170 0
-0.001180 -0.000141 0
-0.001035 -0.000108 0
-0.000910 -0.000082 0
-0.000805 -0.000064 0
-0.000718 -0.000051 0
-0.000645 -0.000041 0
-0.000582 -0.000034 0
-0.000529 -0.000029 0
-0.000482 -0.000024 0
-0.000441 -0.000021 0
-0.000405 -0.000019 0
-0.000373 -0.000017 0
-0.000343 -0.000015 0
-0.000316 -0.000014 0
-0.000290 -0.000013 0
-0.000265 -0.000013 0
-0.000241 -0.000013 0
-0.000217 -0.000012 0
-0.000193 -0.000012 0
-0.000170 -0.000012 0
-0.000146 -0.000012 0
-0.000124 -0.000012 0
-0.000101 -0.000012 0
-0.000080 -0.000011 0
-0.000060 -0.000010 0
-0.000042 -0.000009 0
-0.000027 -0.000007 0
-0.000015 -0.000005 0
-0.000006 -0.000003 0
-0.000001 -0.000001 0
0.000000 0.000001 0
0.000000 0.000001 0
0.000000 0.000000 0
0.000000 0.000000 0
0.000000 0.000000 0
0.000000 0.000095 0
-0.000254 0.000237 0
-0.000635 0.000244 0
-0.000941 0.000155 0
-0.001130 0.000073 0
-0.001229 0.000026 0
-0.001279 0.000006 0
-0.001305 0.000000 0
-0.001322 -0.000000 0
-0.001336 0.000001 0
-0.001348 0.000001 0
-0.001360 0.000002 0
-0.001371 0.000001 0
-0.001381 0.000001 0
-0.001390 0.000001 0
-0.001398 0.000000 0
-0.001405 -0.000000 0
-0.001411 -0.000001 0
-0.001416 -0.000001 0
-0.001419 -0.000002 0
-0.001421 -0.000002 0
-0.001423 -0.000003 0
-0.001423 -0.000003 0
-0.001423 -0.000003 0
-0.001424 -0.000003 0
-0.001425 -0.000002 0
-0.001428 -0.000000 0
-0.001433 0.000001 0
-0.001441 0.000004 0
-0.001453 0.000006 0
-0.001469 0.000009 0
-0.001488 0.000012 0
-0.001510 0.000014 0
-0.001533 0.000015 0
-0.001556 0.000014 0
-0.001574 0.000011 0
-0.001584 0.000006 0
-0.001583 -0.000002 0
-0.001567 -0.000012 0
-0.001534 -0.000024 0
-0.001483 -0.000036 0
-0.001418 -0.000045 0
-0.001346 -0.000049 0
-0.001278 -0.000044 0
-0.001231 -0.000028 0
-0.001221 0.000000 0
-0.001266 0.000040 0
-0.001379 0.000087 0
-0.001565 0.000138 0
-0.001820 0.000185 0
-0.002120 0.000217 0
-0.002426 0.000216 0
-0.002672 0.000167 0
-0.002777 0.000052 0
-0.002649 -0.000134 0
-0.002214 -0.000370 0
-0.001472 -0.000564 0
-0.000585 -0.000533 0
0.000000 -0.000216 0
0.000000 0.000914 0
-0.000808 0.001400 0
-0.001547 0.000539 0
-0.001871 -0.000065 0
-0.001912 -0.000272 0
-0.001820 -0.000299 0
-0.001680 -0.000269 0
-0.001532 -0.000229 0
-0.001391 -0.000191 0
-0.001264 -0.000160 0
-0.001150 -0.000135 0
-0.001050 -0.000115 0
-0.000961 -0.000099 0
-0.000882 -0.000087 0
-0.000812 -0.000076 0
-0.000749 -0.000068 0
-0.000691 -0.000062 0
-0.000637 -0.000057 0
-0.000588 -0.000053 0
-0.000540 -0.000050 0
-0.000495 -0.000049 0
-0.000450 -0.000048 0
-0.000407 -0.000047 0
-0.000363 -0.000047 0
-0.000320 -0.000046 0
-0.000278 -0.000046 0
-0.000236 -0.000045 0
-0.000195 -0.000043 0
-0.000156 -0.000041 0
-0.000120 -0.000037 0
-0.000087 -0.000033 0
-0.000059 -0.000027 0
-0.000035 -0.000020 0
-0.000018 -0.000013 0
-0.000007 -0.000006 0
-0.000001 -0.000001 0
0.000000 0.000001 0
0.000000 0.000000 0
0.000000 0.000000 0
0.000000 0.000000 0
0.000000 0.000253 0
-0.000309 0.000633 0
-0.000798 0.000687 0
-0.001235 0.000494 0
-0.001546 0.000287 0
-0.001745 0.000148 0
-0.001868 0.000075 0
-0.001946 0.000042 0
-0.002002 0.000030 0
-0.002046 0.000025 0
-0.002085 0.000023 0
-0.002119 0.000022 0
-0.002151 0.000020 0
-0.002181 0.000018 0
-0.002209 0.000016 0
-0.002235 0.000014 0
-0.002258 0.000012 0
-0.002279 0.000009 0
-0.002297 0.000007 0
-0.002313 0.000005 0
-0.002326 0.000003 0
-0.002337 0.000001 0
-0.002347 -0.000000 0
-0.002356 -0.000000 0
-0.002364 0.000001 0
-0.002373 0.000003 0
-0.002385 0.000007 0
-0.002399 0.000013 0
-0.002418 0.000019 0
-0.002441 0.000027 0
-0.002469 0.000034 0
-0.002501 0.000041 0
-0.002535 0.000045 0
-0.002569 0.000045 0
-0.002599 0.000040 0
-0.002621 0.000028 0
-0.002628 0.000009 0
-0.002617 -0.000018 0
-0.002583 -0.000050 0
-0.002524 -0.000085 0
-0.002441 -0.000117 0
-0.002342 -0.000138 0
-0.002239 -0.000140 0
-0.002149 -0.000116 0
-0.002097 -0.000058 0
-0.002108 0.000035 0
-0.002203 0.000157 0
-0.002397 0.000299 0
-0.002691 0.000440 0
-0.003067 0.000555 0
-0.003481 0.000606 0
-0.003863 0.000551 0
-0.004117 0.000350 0
-0.004134 -0.000023 0
-0.003806 -0.000564 0
-0.003071 -0.001178 0
-0.001978 -0.001629 0
-0.000766 -0.001472 0
0.000000 -0.000586 0
0.000000 0.001264 0
-0.000615 0.002144 0
-0.001383 0.001151 0
-0.001871 0.000223 0
-0.002075 -0.000221 0
-0.002098 -0.000372 0
-0.002026 -0.000396 0
-0.001910 -0.000371 0
-0.001779 -0.000332 0
-0.001647 -0.000291 0
-0.001521 -0.000255 0
-0.001405 -0.000223 0
-0.001298 -0.000196 0
-0.001200 -0.000173 0
-0.001111 -0.000155 0
-0.001030 -0.000140 0
-0.000954 -0.000128 0
-0.000884 -0.000118 0
-0.000817 -0.000111 0
-0.000753 -0.000106 0
-0.000692 -0.000103 0
-0.000632 -0.000100 0
-0.000572 -0.000099 0
-0.000513 -0.000098 0
-0.000454 -0.000098 0
-0.000396 -0.000096 0
-0.000338 -0.000094 0
-0.000282 -0.000091 0
-0.000229 -0.000086 0
-0.000178 -0.000079 0
-0.000133 -0.000070 0
-0.000092 -0.000059 0
-0.000058 -0.000046 0
-0.000032 -0.000031 0
-0.000014 -0.000017 0
-0.000003 -0.000005 0
0.000000 -0.000000 0
0.000000 0.000000 0
0.000000 0.000000 0
0.000000 0.000000 0
0.000000 0.000404 0
-0.000269 0.001034 0
-0.000734 0.001170 0
-0.001188 0.000904 0
-0.001548 0.000583 0
-0.001804 0.000346 0
-0.001982 0.000207 0
-0.002108 0.000134 0
-0.002204 0.000099 0
-0.002283 0.000083 0
-0.002352 0.000074 0
-0.002414 0.000068 0
-0.002473 0.000063 0
-0.002528 0.000059 0
-0.002580 0.000054 0
-0.002629 0.000049 0
-0.002674 0.000043 0
-0.002715 0.000038 0
-0.002753 0.000032 0
-0.002787 0.000027 0
-0.002817 0.000022 0
-0.002844 0.000018 0
-0.002867 0.000015 0
-0.002889 0.000014 0
-0.002910 0.000015 0
-0.002931 0.000019 0
-0.002954 0.000025 0
-0.002978 0.000034 0
-0.003007 0.000045 0
-0.003039 0.000057 0
-0.003076 0.000069 0
-0.003115 0.000078 0
-0.003155 0.000082 0
-0.003193 0.000079 0
-0.003223 0.000066 0
-0.003242 0.000040 0
-0.003244 0.000002 0
-0.003223 -0.000047 0
-0.003176 -0.000106 0
-0.003103 -0.000166 0
-0.003008 -0.000218 0
-0.002899 -0.000248 0
-0.002793 -0.000241 0
-0.002709 -0.000185 0
-0.002672 -0.000070 0
-0.002709 0.000105 0
-0.002839 0.000328 0
-0.003074 0.000575 0
-0.003406 0.000808 0
-0.003806 0.000975 0
-0.004219 0.001012 0
-0.004562 0.000852 0
-0.004734 0.000438 0
-0.004625 -0.000259 0
-0.004142 -0.001197 0
-0.003257 -0.002197 0
-0.002047 -0.002869 0
-0.000770 -0.002511 0
0.000000 -0.000982 0
0.000000 0.001529 0
-0.000471 0.002783 0
-0.001186 0.001795 0
-0.001735 0.000628 0
-0.002046 -0.000044 0
-0.002169 -0.000348 0
-0.002173 -0.000458 0
-0.002109 -0.000476 0
-0.002009 -0.000454 0
-0.001894 -0.000417 0
-0.001775 -0.000377 0
-0.001658 -0.000339 0
-0.001547 -0.000304 0
-0.001442 -0.000273 0
-0.001344 -0.000247 0
-0.001252 -0.000225 0
-0.001166 -0.000207 0
-0.001085 -0.000193 0
-0.001007 -0.000183 0
-0.000933 -0.000175 0
-0.000860 -0.000170 0
-0.000788 -0.000167 0
-0.000716 -0.000165 0
-0.000645 -0.000164 0
-0.000574 -0.000163 0
-0.000503 -0.000161 0
-0.000433 -0.000158 0
-0.000364 -0.000152 0
-0.000298 -0.000144 0
-0.000235 -0.000133 0
-0.000177 -0.000119 0
-0.000126 -0.000101 0
-0.000082 -0.000080 0
-0.000047 -0.000058 0
-0.000021 -0.000035 0
-0.000005 -0.000014 0
0.000000 -0.000002 0
0.000000 0.000000 0
0.000000 0.000000 0
0.000000 0.000000 0
0.000000 0.000521 0
-0.000195 0.001367 0
-0.000572 0.001606 0
-0.000975 0.001307 0
-0.001322 0.000902 0
-0.001591 0.000582 0
-0.001793 0.000379 0
-0.001948 0.000265 0
-0.002072 0.000204 0
-0.002179 0.000172 0
-0.002275 0.000155 0
-0.002365 0.000143 0
-0.002450 0.000134 0
-0.002532 0.000125 0
-0.002609 0.000117 0
-0.002683 0.000108 0
-0.002753 0.000098 0
-0.002818 0.000088 0
-0.002878 0.000078 0
-0.002933 0.000068 0
-0.002983 0.000059 0
-0.003028 0.000051 0
-0.003069 0.000045 0
-0.003107 0.000042 0
-0.003142 0.000042 0
-0.003177 0.000046 0
-0.003211 0.000054 0
-0.003246 0.000066 0
-0.003284 0.000080 0
-0.003324 0.000095 0
-0.003366 0.000110 0
-0.003409 0.000120 0
-0.003452 0.000122 0
-0.003489 0.000113 0
-0.003518 0.000089 0
-0.003534 0.000048 0
-0.003531 -0.000011 0
-0.003506 -0.000085 0
-0.003456 -0.000170 0
-0.003383 -0.000253 0
-0.003291 -0.000321 0
-0.003191 -0.000353 0
-0.003098 -0.000331 0
-0.003033 -0.000236 0
-0.003018 -0.000058 0
-0.003075 0.000202 0
-0.003221 0.000522 0
-0.003459 0.000865 0
-0.003778 0.001173 0
-0.004143 0.001367 0
-0.004495 0.001361 0
-0.004753 0.001065 0
-0.004823 0.000413 0
-0.004611 -0.000615 0
-0.004048 -0.001931 0
-0.003128 -0.003274 0
-0.001934 -0.004116 0
-0.000714 -0.003519 0
0.000000 -0.001356 0
0.000000 0.001735 0
-0.000374 0.003330 0
-0.001019 0.002416 0
-0.001575 0.001083 0
-0.001940 0.000213 0
-0.002133 -0.000245 0
-0.002201 -0.000456 0
-0.002188 -0.000534 0
-0.002126 -0.000546 0
-0.002037 -0.000525 0
-0.001935 -0.000490 0
-0.001827 -0.000451 0
-0.001721 -0.000412 0
-0.001617 -0.000376 0
-0.001517 -0.000344 0
-0.001423 -0.000317 0
-0.001332 -0.000295 0
-0.001246 -0.000277 0
-0.001162 -0.000263 0
-0.001081 -0.000254 0
-0.001001 -0.000247 0
-0.000922 -0.000243 0
-0.000843 -0.000242 0
-0.000763 -0.000240 0
-0.000683 -0.000239 0
-0.000602 -0.000237 0
-0.000521 -0.000233 0
-0.000442 -0.000226 0
-0.000364 -0.000215 0
-0.000290 -0.000199 0
-0.000221 -0.000179 0
-0.000159 -0.000154 0
-0.000105 -0.000125 0
-0.000061 -0.000092 0
-0.000028 -0.000058 0
-0.000007 -0.000026 0
0.000000 -0.000005 0
0.000000 0.000000 0
0.000000 0.000000 0
0.000000 0.000000 0
0.000000 0.000598 0
-0.000116 0.001605 0
-0.000382 0.001950 0
-0.000697 0.001654 0
-0.000992 0.001198 0
-0.001237 0.000817 0
-0.001432 0.000563 0
-0.001591 0.000413 0
-0.001727 0.000331 0
-0.001849 0.000286 0
-0.001963 0.000260 0
-0.002073 0.000243 0
-0.002180 0.000230 0
-0.002284 0.000217 0
-0.002385 0.000205 0
-0.002483 0.000192 0
-0.002577 0.000178 0
-0.002665 0.000163 0
-0.002749 0.000147 0
-0.002827 0.000132 0
-0.002898 0.000117 0
-0.002964 0.000104 0
-0.003024 0.000093 0
-0.003079 0.000087 0
-0.003130 0.000084 0
-0.003178 0.000087 0
-0.003225 0.000095 0
-0.003271 0.000107 0
-0.003317 0.000123 0
-0.003363 0.000139 0
-0.003410 0.000154 0
-0.003456 0.000163 0
-0.003499 0.000162 0
-0.003537 0.000145 0
-0.003565 0.000110 0
-0.003579 0.000053 0
-0.003576 -0.000026 0
-0.003553 -0.000123 0
-0.003509 -0.000230 0
-0.003446 -0.000332 0
-0.003370 -0.000410 0
-0.003290 -0.000441 0
-0.003221 -0.000400 0
-0.003179 -0.000266 0
-0.003184 -0.000027 0
-0.003252 0.000308 0
-0.003394 0.000712 0
-0.003610 0.001133 0
-0.003883 0.001492 0
-0.004180 0.001691 0
-0.004445 0.001622 0
-0.004607 0.001181 0
-0.004587 0.000296 0
-0.004311 -0.001034 0
-0.003733 -0.002680 0
-0.002855 -0.004312 0
-0.001753 -0.005284 0
-0.000642 -0.004445 0
0.000000 -0.001695 0
0.000000 0.001903 0
-0.000308 0.003803 0
-0.000888 0.002997 0
-0.001426 0.001549 0
-0.001812 0.000514 0
-0.002047 -0.000087 0
-0.002161 -0.000402 0
-0.002191 -0.000550 0
-0.002165 -0.000605 0
-0.002103 -0.000609 0
-0.002021 -0.000587 0
-0.001929 -0.000552 0
-0.001832 -0.000514 0
-0.001736 -0.000476 0
-0.001640 -0.000441 0
-0.001548 -0.000410 0
-0.001458 -0.000384 0
-0.001371 -0.000363 0
-0.001287 -0.000347 0
-0.001203 -0.000336 0
-0.001121 -0.000329 0
-0.001037 -0.000326 0
-0.000953 -0.000324 0
-0.000868 -0.000324 0
-0.000781 -0.000324 0
-0.000693 -0.000322 0
-0.000604 -0.000318 0
-0.000516 -0.000309 0
-0.000429 -0.000296 0
-0.000344 -0.000276 0
-0.000265 -0.000250 0
-0.000192 -0.000217 0
-0.000128 -0.000178 0
-0.000075 -0.000135 0
-0.000035 -0.000088 0
-0.000009 -0.000042 0
0.000000 -0.000010 0
0.000000 0.000000 0
0.000000 0.000000 0
0.000000 0.000000 0
0.000000 0.000637 0
-0.000048 0.001748 0
-0.000200 0.002186 0
-0.000414 0.001917 0
-0.000635 0.001441 0
-0.000831 0.001022 0
-0.000997 0.000733 0
-0.001138 0.000559 0
-0.001265 0.000461 0
-0.001385 0.000408 0
-0.001503 0.000378 0
-0.001622 0.000359 0
-0.001740 0.000345 0
-0.001859 0.000330 0
-0.001978 0.000316 0
-0.002095 0.000299 0
-0.002210 0.000280 0
-0.002321 0.000260 0
-0.002427 0.000239 0
-0.002528 0.000217 0
-0.002622 0.000196 0
-0.002709 0.000177 0
-0.002790 0.000160 0
-0.002864 0.000148 0
-0.002932 0.000142 0
-0.002995 0.000141 0
-0.003054 0.000146 0
-0.003111 0.000157 0
-0.003165 0.000172 0
-0.003218 0.000188 0
-0.003268 0.000202 0
-0.003317 0.000208 0
-0.003361 0.000202 0
-0.003399 0.000178 0
-0.003428 0.000131 0
-0.003445 0.000059 0
-0.003446 -0.000037 0
-0.003431 -0.000153 0
-0.003400 -0.000277 0
-0.003355 -0.000393 0
-0.003302 -0.000477 0
-0.003249 -0.000503 0
-0.003207 -0.000442 0
-0.003189 -0.000273 0
-0.003210 0.000015 0
-0.003280 0.000411 0
-0.003404 0.000879 0
-0.003580 0.001354 0
-0.003791 0.001743 0
-0.004006 0.001929 0
-0.004178 0.001788 0
-0.004249 0.001207 0
-0.004159 0.000117 0
-0.003854 -0.001469 0
-0.003306 -0.003387 0
-0.002518 -0.005254 0
-0.001547 -0.006330 0
-0.000569 -0.005272 0
0.000000 -0.001998 0
0.000000 0.002044 0
-0.000262 0.004219 0
-0.000785 0.003534 0
-0.001296 0.002007 0
-0.001685 0.000834 0
-0.001942 0.000104 0
-0.002087 -0.000312 0
-0.002149 -0.000531 0
-0.002152 -0.000634 0
-0.002116 -0.000668 0
-0.002055 -0.000664 0
-0.001979 -0.000640 0
-0.001895 -0.000605 0
-0.001809 -0.000568 0
-0.001721 -0.000532 0
-0.001635 -0.000499 0
-0.001550 -0.000471 0
-0.001467 -0.000448 0
-0.001384 -0.000431 0
-0.001302 -0.000420 0
-0.001220 -0.000413 0
-0.001136 -0.000410 0
-0.001051 -0.000411 0
-0.000963 -0.000412 0
-0.000872 -0.000414 0
-0.000779 -0.000414 0
-0.000684 -0.000410 0
-0.000587 -0.000402 0
-0.000491 -0.000386 0
-0.000397 -0.000363 0
-0.000308 -0.000331 0
-0.000225 -0.000290 0
-0.000151 -0.000241 0
-0.000089 -0.000185 0
-0.000042 -0.000124 0
-0.000011 -0.000061 0
0.000000 -0.000015 0
0.000000 0.000000 0
0.000000 0.000000 0
0.000000 0.000000 0
0.000000 0.000645 0
0.000007 0.001804 0
-0.000044 0.002316 0
-0.000156 0.002088 0
-0.000296 0.001616 0
-0.000433 0.001179 0
-0.000555 0.000870 0
-0.000663 0.000682 0
-0.000764 0.000578 0
-0.000865 0.000524 0
-0.000971 0.000496 0
-0.001082 0.000480 0
-0.001199 0.000467 0
-0.001320 0.000455 0
-0.001446 0.000441 0
-0.001575 0.000424 0
-0.001704 0.000403 0
-0.001833 0.000380 0
-0.001960 0.000354 0
-0.002083 0.000326 0
-0.002200 0.000298 0
-0.002311 0.000271 0
-0.002414 0.000248 0
-0.002509 0.000229 0
-0.002596 0.000216 0
-0.002675 0.000209 0
-0.002749 0.000210 0
-0.002816 0.000217 0
-0.002879 0.000229 0
-0.002938 0.000243 0
-0.002993 0.000253 0
-0.003044 0.000256 0
-0.003090 0.000244 0
-0.003130 0.000212 0
-0.003161 0.000155 0
-0.003183 0.000071 0
-0.003193 -0.000039 0
-0.003191 -0.000169 0
-0.003177 -0.000306 0
-0.003155 -0.000430 0
-0.003128 -0.000517 0
-0.003104 -0.000536 0
-0.003091 -0.000459 0
-0.003096 -0.000262 0
-0.003128 0.000063 0
-0.003193 0.000502 0
-0.003292 0.001012 0
-0.003420 0.001519 0
-0.003563 0.001917 0
-0.003694 0.002078 0
-0.003777 0.001865 0
-0.003770 0.001162 0
-0.003629 -0.000099 0
-0.003322 -0.001887 0
-0.002832 -0.004016 0
-0.002157 -0.006071 0
-0.001333 -0.007233 0
-0.000496 -0.005993 0
0.000000 -0.002265 0
0.000000 0.002166 0
-0.000228 0.004589 0
-0.000703 0.004031 0
-0.001184 0.002449 0
-0.001566 0.001160 0
-0.001832 0.000315 0
-0.001996 -0.000195 0
-0.002081 -0.000485 0
-0.002106 -0.000638 0
-0.002091 -0.000706 0
-0.002049 -0.000723 0
-0.001990 -0.000711 0
-0.001920 -0.000684 0
-0.001845 -0.000650 0
-0.001768 -0.000614 0
-0.001690 -0.000581 0
-0.001613 -0.000552 0
-0.001536 -0.000529 0
-0.001459 -0.000511 0
-0.001381 -0.000500 0
-0.001302 -0.000495 0
-0.001221 -0.000495 0
-0.001137 -0.000498 0
-0.001048 -0.000503 0
-0.000956 -0.000508 0
-0.000859 -0.000511 0
-0.000759 -0.000509 0
-0.000657 -0.000501 0
-0.000553 -0.000485 0
-0.000450 -0.000459 0
-0.000351 -0.000422 0
-0.000258 -0.000373 0
-0.000175 -0.000313 0
-0.000104 -0.000244 0
-0.000049 -0.000166 0
-0.000013 -0.000084 0
0.000000 -0.000021 0
0.000000 0.000000 0
0.000000 0.000000 0
0.000000 0.000000 0
0.000000 0.000630 0
0.000047 0.001791 0
0.000082 0.002349 0
0.000062 0.002169 0
0.000001 0.001719 0
-0.000075 0.001281 0
-0.000148 0.000962 0
-0.000214 0.000768 0
-0.000279 0.000664 0
-0.000348 0.000615 0
-0.000425 0.000595 0
-0.000513 0.000587 0
-0.000611 0.000583 0
-0.000720 0.000578 0
-0.000838 0.000570 0
-0.000965 0.000557 0
-0.001098 0.000539 0
-0.001237 0.000516 0
-0.001380 0.000489 0
-0.001523 0.000457 0
-0.001665 0.000424 0
-0.001802 0.000390 0
-0.001931 0.000358 0
-0.002051 0.000330 0
-0.002160 0.000308 0
-0.002260 0.000294 0
-0.002349 0.000287 0
-0.002430 0.000288 0
-0.002502 0.000294 0
-0.002568 0.000302 0
-0.002628 0.000308 0
-0.002681 0.000305 0
-0.002730 0.000288 0
-0.002772 0.000249 0
-0.002807 0.000184 0
-0.002836 0.000091 0
-0.002856 -0.000029 0
-0.002869 -0.000169 0
-0.002876 -0.000313 0
-0.002878 -0.000441 0
-0.002880 -0.000527 0
-0.002885 -0.000541 0
-0.002899 -0.000451 0
-0.002924 -0.000236 0
-0.002965 0.000112 0
-0.003022 0.000575 0
-0.003093 0.001107 0
-0.003174 0.001625 0
-0.003250 0.002016 0
-0.003304 0.002143 0
-0.003309 0.001864 0
-0.003237 0.001060 0
-0.003063 -0.000331 0
-0.002770 -0.002267 0
-0.002349 -0.004552 0
-0.001793 -0.006753 0
-0.001119 -0.007990 0
-0.000424 -0.006605 0
0.000000 -0.002495 0
0.000000 0.002273 0
-0.000201 0.004922 0
-0.000635 0.004491 0
-0.001088 0.002871 0
-0.001458 0.001483 0
-0.001725 0.000535 0
-0.001899 -0.000063 0
-0.001998 -0.000421 0
-0.002041 -0.000623 0
-0.002043 -0.000725 0
-0.002016 -0.000766 0
-0.001971 -0.000769 0
-0.001915 -0.000750 0
-0.001852 -0.000720 0
-0.001786 -0.000687 0
-0.001719 -0.000654 0
-0.001651 -0.000625 0
-0.001582 -0.000602 0
-0.001513 -0.000585 0
-0.001442 -0.000576 0
-0.001369 -0.000573 0
-0.001293 -0.000576 0
-0.001212 -0.000583 0
-0.001126 -0.000593 0
-0.001034 -0.000603 0
-0.000936 -0.000610 0
-0.000832 -0.000613 0
-0.000725 -0.000608 0
-0.000614 -0.000592 0
-0.000503 -0.000565 0
-0.000395 -0.000523 0
-0.000292 -0.000466 0
-0.000198 -0.000395 0
-0.000119 -0.000311 0
-0.000056 -0.000214 0
-0.000015 -0.000110 0
0.000000 -0.000028 0
0.000000 0.000000 0
0.000000 0.000000 0
0.000000 0.000000 0
0.000000 0.000597 0
0.000077 0.001722 0
0.000179 0.002301 0