# vtk DataFile Version 2.0
generated by CFD-lab course output (written by Tobias Neckel) 
ASCII

DATASET STRUCTURED_GRID
DIMENSIONS  99 49 1 
POINTS 4851 float

0.000000 0.000000 0
0.020000 0.000000 0
0.040000 0.000000 0
0.060000 0.000000 0
0.080000 0.000000 0
0.100000 0.000000 0
0.120000 0.000000 0
0.140000 0.000000 0
0.160000 0.000000 0
0.180000 0.000000 0
0.200000 0.000000 0
0.220000 0.000000 0
0.240000 0.000000 0
0.260000 0.000000 0
0.280000 0.000000 0
0.300000 0.000000 0
0.320000 0.000000 0
0.340000 0.000000 0
0.360000 0.000000 0
0.380000 0.000000 0
0.400000 0.000000 0
0.420000 0.000000 0
0.440000 0.000000 0
0.460000 0.000000 0
0.480000 0.000000 0
0.500000 0.000000 0
0.520000 0.000000 0
0.540000 0.000000 0
0.560000 0.000000 0
0.580000 0.000000 0
0.600000 0.000000 0
0.620000 0.000000 0
0.640000 0.000000 0
0.660000 0.000000 0
0.680000 0.000000 0
0.700000 0.000000 0
0.720000 0.000000 0
0.740000 0.000000 0
0.760000 0.000000 0
0.780000 0.000000 0
0.800000 0.000000 0
0.820000 0.000000 0
0.840000 0.000000 0
0.860000 0.000000 0
0.880000 0.000000 0
0.900000 0.000000 0
0.920000 0.000000 0
0.940000 0.000000 0
0.960000 0.000000 0
0.980000 0.000000 0
1.000000 0.000000 0
1.020000 0.000000 0
1.040000 0.000000 0
1.060000 0.000000 0
1.080000 0.000000 0
1.100000 0.000000 0
1.120000 0.000000 0
1.140000 0.000000 0
1.160000 0.000000 0
1.180000 0.000000 0
1.200000 0.000000 0
1.220000 0.000000 0
1.240000 0.000000 0
1.260000 0.000000 0
1.280000 0.000000 0
1.300000 0.000000 0
1.320000 0.000000 0
1.340000 0.000000 0
1.360000 0.000000 0
1.380000 0.000000 0
1.400000 0.000000 0
1.420000 0.000000 0
1.440000 0.000000 0
1.460000 0.000000 0
1.480000 0.000000 0
1.500000 0.000000 0
1.520000 0.000000 0
1.540000 0.000000 0
1.560000 0.000000 0
1.580000 0.000000 0
1.600000 0.000000 0
1.620000 0.000000 0
1.640000 0.000000 0
1.660000 0.000000 0
1.680000 0.000000 0
1.700000 0.000000 0
1.720000 0.000000 0
1.740000 0.000000 0
1.760000 0.000000 0
1.780000 0.000000 0
1.800000 0.000000 0
1.820000 0.000000 0
1.840000 0.000000 0
1.860000 0.000000 0
1.880000 0.000000 0
1.900000 0.000000 0
1.920000 0.000000 0
1.940000 0.000000 0
1.960000 0.000000 0
0.000000 0.020000 0
0.020000 0.020000 0
0.040000 0.020000 0
0.060000 0.020000 0
0.080000 0.020000 0
0.100000 0.020000 0
0.120000 0.020000 0
0.140000 0.020000 0
0.160000 0.020000 0
0.180000 0.020000 0
0.200000 0.020000 0
0.220000 0.020000 0
0.240000 0.020000 0
0.260000 0.020000 0
0.280000 0.020000 0
0.300000 0.020000 0
0.320000 0.020000 0
0.340000 0.020000 0
0.360000 0.020000 0
0.380000 0.020000 0
0.400000 0.020000 0
0.420000 0.020000 0
0.440000 0.020000 0
0.460000 0.020000 0
0.480000 0.020000 0
0.500000 0.020000 0
0.520000 0.020000 0
0.540000 0.020000 0
0.560000 0.020000 0
0.580000 0.020000 0
0.600000 0.020000 0
0.620000 0.020000 0
0.640000 0.020000 0
0.660000 0.020000 0
0.680000 0.020000 0
0.700000 0.020000 0
0.720000 0.020000 0
0.740000 0.020000 0
0.760000 0.020000 0
0.780000 0.020000 0
0.800000 0.020000 0
0.820000 0.020000 0
0.840000 0.020000 0
0.860000 0.020000 0
0.880000 0.020000 0
0.900000 0.020000 0
0.920000 0.020000 0
0.940000 0.020000 0
0.960000 0.020000 0
0.980000 0.020000 0
1.000000 0.020000 0
1.020000 0.020000 0
1.040000 0.020000 0
1.060000 0.020000 0
1.080000 0.020000 0
1.100000 0.020000 0
1.120000 0.020000 0
1.140000 0.020000 0
1.160000 0.020000 0
1.180000 0.020000 0
1.200000 0.020000 0
1.220000 0.020000 0
1.240000 0.020000 0
1.260000 0.020000 0
1.280000 0.020000 0
1.300000 0.020000 0
1.320000 0.020000 0
1.340000 0.020000 0
1.360000 0.020000 0
1.380000 0.020000 0
1.400000 0.020000 0
1.420000 0.020000 0
1.440000 0.020000 0
1.460000 0.020000 0
1.480000 0.020000 0
1.500000 0.020000 0
1.520000 0.020000 0
1.540000 0.020000 0
1.560000 0.020000 0
1.580000 0.020000 0
1.600000 0.020000 0
1.620000 0.020000 0
1.640000 0.020000 0
1.660000 0.020000 0
1.680000 0.020000 0
1.700000 0.020000 0
1.720000 0.020000 0
1.740000 0.020000 0
1.760000 0.020000 0
1.780000 0.020000 0
1.800000 0.020000 0
1.820000 0.020000 0
1.840000 0.020000 0
1.860000 0.020000 0
1.880000 0.020000 0
1.900000 0.020000 0
1.920000 0.020000 0
1.940000 0.020000 0
1.960000 0.020000 0
0.000000 0.040000 0
0.020000 0.040000 0
0.040000 0.040000 0
0.060000 0.040000 0
0.080000 0.040000 0
0.100000 0.040000 0
0.120000 0.040000 0
0.140000 0.040000 0
0.160000 0.040000 0
0.180000 0.040000 0
0.200000 0.040000 0
0.220000 0.040000 0
0.240000 0.040000 0
0.260000 0.040000 0
0.280000 0.040000 0
0.300000 0.040000 0
0.320000 0.040000 0
0.340000 0.040000 0
0.360000 0.040000 0
0.380000 0.040000 0
0.400000 0.040000 0
0.420000 0.040000 0
0.440000 0.040000 0
0.460000 0.040000 0
0.480000 0.040000 0
0.500000 0.040000 0
0.520000 0.040000 0
0.540000 0.040000 0
0.560000 0.040000 0
0.580000 0.040000 0
0.600000 0.040000 0
0.620000 0.040000 0
0.640000 0.040000 0
0.660000 0.040000 0
0.680000 0.040000 0
0.700000 0.040000 0
0.720000 0.040000 0
0.740000 0.040000 0
0.760000 0.040000 0
0.780000 0.040000 0
0.800000 0.040000 0
0.820000 0.040000 0
0.840000 0.040000 0
0.860000 0.040000 0
0.880000 0.040000 0
0.900000 0.040000 0
0.920000 0.040000 0
0.940000 0.040000 0
0.960000 0.040000 0
0.980000 0.040000 0
1.000000 0.040000 0
1.020000 0.040000 0
1.040000 0.040000 0
1.060000 0.040000 0
1.080000 0.040000 0
1.100000 0.040000 0
1.120000 0.040000 0
1.140000 0.040000 0
1.160000 0.040000 0
1.180000 0.040000 0
1.200000 0.040000 0
1.220000 0.040000 0
1.240000 0.040000 0
1.260000 0.040000 0
1.280000 0.040000 0
1.300000 0.040000 0
1.320000 0.040000 0
1.340000 0.040000 0
1.360000 0.040000 0
1.380000 0.040000 0
1.400000 0.040000 0
1.420000 0.040000 0
1.440000 0.040000 0
1.460000 0.040000 0
1.480000 0.040000 0
1.500000 0.040000 0
1.520000 0.040000 0
1.540000 0.040000 0
1.560000 0.040000 0
1.580000 0.040000 0
1.600000 0.040000 0
1.620000 0.040000 0
1.640000 0.040000 0
1.660000 0.040000 0
1.680000 0.040000 0
1.700000 0.040000 0
1.720000 0.040000 0
1.740000 0.040000 0
1.760000 0.040000 0
1.780000 0.040000 0
1.800000 0.040000 0
1.820000 0.040000 0
1.840000 0.040000 0
1.860000 0.040000 0
1.880000 0.040000 0
1.900000 0.040000 0
1.920000 0.040000 0
1.940000 0.040000 0
1.960000 0.040000 0
0.000000 0.060000 0
0.020000 0.060000 0
0.040000 0.060000 0
0.060000 0.060000 0
0.080000 0.060000 0
0.100000 0.060000 0
0.120000 0.060000 0
0.140000 0.060000 0
0.160000 0.060000 0
0.180000 0.060000 0
0.200000 0.060000 0
0.220000 0.060000 0
0.240000 0.060000 0
0.260000 0.060000 0
0.280000 0.060000 0
0.300000 0.060000 0
0.320000 0.060000 0
0.340000 0.060000 0
0.360000 0.060000 0
0.380000 0.060000 0
0.400000 0.060000 0
0.420000 0.060000 0
0.440000 0.060000 0
0.460000 0.060000 0
0.480000 0.060000 0
0.500000 0.060000 0
0.520000 0.060000 0
0.540000 0.060000 0
0.560000 0.060000 0
0.580000 0.060000 0
0.600000 0.060000 0
0.620000 0.060000 0
0.640000 0.060000 0
0.660000 0.060000 0
0.680000 0.060000 0
0.700000 0.060000 0
0.720000 0.060000 0
0.740000 0.060000 0
0.760000 0.060000 0
0.780000 0.060000 0
0.800000 0.060000 0
0.820000 0.060000 0
0.840000 0.060000 0
0.860000 0.060000 0
0.880000 0.060000 0
0.900000 0.060000 0
0.920000 0.060000 0
0.940000 0.060000 0
0.960000 0.060000 0
0.980000 0.060000 0
1.000000 0.060000 0
1.020000 0.060000 0
1.040000 0.060000 0
1.060000 0.060000 0
1.080000 0.060000 0
1.100000 0.060000 0
1.120000 0.060000 0
1.140000 0.060000 0
1.160000 0.060000 0
1.180000 0.060000 0
1.200000 0.060000 0
1.220000 0.060000 0
1.240000 0.060000 0
1.260000 0.060000 0
1.280000 0.060000 0
1.300000 0.060000 0
1.320000 0.060000 0
1.340000 0.060000 0
1.360000 0.060000 0
1.380000 0.060000 0
1.400000 0.060000 0
1.420000 0.060000 0
1.440000 0.060000 0
1.460000 0.060000 0
1.480000 0.060000 0
1.500000 0.060000 0
1.520000 0.060000 0
1.540000 0.060000 0
1.560000 0.060000 0
1.580000 0.060000 0
1.600000 0.060000 0
1.620000 0.060000 0
1.640000 0.060000 0
1.660000 0.060000 0
1.680000 0.060000 0
1.700000 0.060000 0
1.720000 0.060000 0
1.740000 0.060000 0
1.760000 0.060000 0
1.780000 0.060000 0
1.800000 0.060000 0
1.820000 0.060000 0
1.840000 0.060000 0
1.860000 0.060000 0
1.880000 0.060000 0
1.900000 0.060000 0
1.920000 0.060000 0
1.940000 0.060000 0
1.960000 0.060000 0
0.000000 0.080000 0
0.020000 0.080000 0
0.040000 0.080000 0
0.060000 0.080000 0
0.080000 0.080000 0
0.100000 0.080000 0
0.120000 0.080000 0
0.140000 0.080000 0
0.160000 0.080000 0
0.180000 0.080000 0
0.200000 0.080000 0
0.220000 0.080000 0
0.240000 0.080000 0
0.260000 0.080000 0
0.280000 0.080000 0
0.300000 0.080000 0
0.320000 0.080000 0
0.340000 0.080000 0
0.360000 0.080000 0
0.380000 0.080000 0
0.400000 0.080000 0
0.420000 0.080000 0
0.440000 0.080000 0
0.460000 0.080000 0
0.480000 0.080000 0
0.500000 0.080000 0
0.520000 0.080000 0
0.540000 0.080000 0
0.560000 0.080000 0
0.580000 0.080000 0
0.600000 0.080000 0
0.620000 0.080000 0
0.640000 0.080000 0
0.660000 0.080000 0
0.680000 0.080000 0
0.700000 0.080000 0
0.720000 0.080000 0
0.740000 0.080000 0
0.760000 0.080000 0
0.780000 0.080000 0
0.800000 0.080000 0
0.820000 0.080000 0
0.840000 0.080000 0
0.860000 0.080000 0
0.880000 0.080000 0
0.900000 0.080000 0
0.920000 0.080000 0
0.940000 0.080000 0
0.960000 0.080000 0
0.980000 0.080000 0
1.000000 0.080000 0
1.020000 0.080000 0
1.040000 0.080000 0
1.060000 0.080000 0
1.080000 0.080000 0
1.100000 0.080000 0
1.120000 0.080000 0
1.140000 0.080000 0
1.160000 0.080000 0
1.180000 0.080000 0
1.200000 0.080000 0
1.220000 0.080000 0
1.240000 0.080000 0
1.260000 0.080000 0
1.280000 0.080000 0
1.300000 0.080000 0
1.320000 0.080000 0
1.340000 0.080000 0
1.360000 0.080000 0
1.380000 0.080000 0
1.400000 0.080000 0
1.420000 0.080000 0
1.440000 0.080000 0
1.460000 0.080000 0
1.480000 0.080000 0
1.500000 0.080000 0
1.520000 0.080000 0
1.540000 0.080000 0
1.560000 0.080000 0
1.580000 0.080000 0
1.600000 0.080000 0
1.620000 0.080000 0
1.640000 0.080000 0
1.660000 0.080000 0
1.680000 0.080000 0
1.700000 0.080000 0
1.720000 0.080000 0
1.740000 0.080000 0
1.760000 0.080000 0
1.780000 0.080000 0
1.800000 0.080000 0
1.820000 0.080000 0
1.840000 0.080000 0
1.860000 0.080000 0
1.880000 0.080000 0
[...]
POINT_DATA 4851 

VECTORS velocity float
0.000000 0.000000 0
-0.000456 0.000000 0
-0.000596 0.000000 0
-0.000543 0.000000 0
-0.000452 0.000000 0
-0.000372 0.000000 0
-0.000311 0.000000 0
-0.000264 0.000000 0
-0.000229 0.000000 0
-0.000201 0.000000 0
-0.000179 0.000000 0
-0.000160 0.000000 0
-0.000144 0.000000 0
-0.000130 0.000000 0
-0.000117 0.000000 0
-0.000106 0.000000 0
-0.000095 0.000000 0
-0.000085 0.000000 0
-0.000075 0.000000 0
-0.000066 0.000000 0
-0.000057 0.000000 0
-0.000049 0.000000 0
-0.000041 0.000000 0
-0.000033 0.000000 0
-0.000027 0.000000 0
-0.000020 0.000000 0
-0.000015 0.000000 0
-0.000010 0.000000 0
-0.000006 0.000000 0
-0.000003 0.000000 0
-0.000000 0.000000 0
0.000001 0.000000 0
0.000002 0.000000 0
0.000002 0.000000 0
0.000001 0.000000 0
0.000000 0.000000 0
0.000000 0.000000 0
0.000000 0.000000 0
0.000000 0.000000 0
0.000000 0.000000 0
0.000000 0.000000 0
-0.000018 0.000000 0
-0.000085 0.000000 0
-0.000189 0.000000 0
-0.000320 0.000000 0
-0.000465 0.000000 0
-0.000606 0.000000 0
-0.000721 0.000000 0
-0.000795 0.000000 0
-0.000824 0.000000 0
-0.000819 0.000000 0
-0.000795 0.000000 0
-0.000766 0.000000 0
-0.000738 0.000000 0
-0.000716 0.000000 0
-0.000699 0.000000 0
-0.000686 0.000000 0
-0.000676 0.000000 0
-0.000667 0.000000 0
-0.000659 0.000000 0
-0.000652 0.000000 0
-0.000644 0.000000 0
-0.000636 0.000000 0
-0.000628 0.000000 0
-0.000621 0.000000 0
-0.000614 0.000000 0
-0.000607 0.000000 0
-0.000602 0.000000 0
-0.000596 0.000000 0
-0.000591 0.000000 0
-0.000587 0.000000 0
-0.000581 0.000000 0
-0.000575 0.000000 0
-0.000566 0.000000 0
-0.000554 0.000000 0
-0.000538 0.000000 0
-0.000518 0.000000 0
-0.000493 0.000000 0
-0.000463 0.000000 0
-0.000430 0.000000 0
-0.000397 0.000000 0
-0.000366 0.000000 0
-0.000342 0.000000 0
-0.000331 0.000000 0
-0.000336 0.000000 0
-0.000363 0.000000 0
-0.000416 0.000000 0
-0.000496 0.000000 0
-0.000605 0.000000 0
-0.000738 0.000000 0
-0.000885 0.000000 0
-0.001030 0.000000 0
-0.001145 0.000000 0
-0.001197 0.000000 0
-0.001147 0.000000 0
-0.000958 0.000000 0
-0.000633 0.000000 0
-0.000247 0.000000 0
0.000000 0.000000 0
0.000000 0.000456 0
-0.000913 0.000596 0
-0.001399 0.000087 0
-0.001451 -0.000144 0
-0.001332 -0.000170 0
-0.001178 -0.000141 0
-0.001033 -0.000107 0
-0.000909 -0.000081 0
-0.000806 -0.000063 0
-0.000720 -0.000050 0
-0.000647 -0.000041 0
-0.000584 -0.000034 0
-0.000529 -0.000030 0
-0.000480 -0.000026 0
-0.000435 -0.000024 0
-0.000394 -0.000022 0
-0.000355 -0.000020 0
-0.000319 -0.000019 0
-0.000284 -0.000018 0
-0.000250 -0.000018 0
-0.000218 -0.000017 0
-0.000188 -0.000016 0
-0.000159 -0.000015 0
-0.000131 -0.000014 0
-0.000106 -0.000013 0
-0.000083 -0.000012 0
-0.000062 -0.000010 0
-0.000044 -0.000009 0
-0.000029 -0.000007 0
-0.000016 -0.000005 0
-0.000007 -0.000003 0
-0.000001 -0.000002 0
0.000003 -0.000000 0
0.000004 0.000001 0
0.000003 0.000002 0
0.000001 0.000002 0
0.000000 0.000001 0
0.000000 0.000000 0
0.000000 0.000000 0
0.000000 0.000000 0
0.000000 0.000017 0
-0.000087 0.000083 0
-0.000313 0.000171 0
-0.000642 0.000235 0
-0.001045 0.000276 0
-0.001482 0.000285 0
-0.001899 0.000255 0
-0.002239 0.000188 0
-0.002463 0.000102 0
-0.002566 0.000023 0
-0.002577 -0.000029 0
-0.002534 -0.000054 0
-0.002470 -0.000058 0
-0.002405 -0.000050 0
-0.002349 -0.000040 0
-0.002303 -0.000030 0
-0.002265 -0.000024 0
-0.002232 -0.000019 0
-0.002203 -0.000017 0
-0.002177 -0.000016 0
-0.002150 -0.000016 0
-0.002125 -0.000016 0
-0.002100 -0.000016 0
-0.002075 -0.000016 0
-0.002052 -0.000015 0
-0.002031 -0.000014 0
-0.002011 -0.000013 0
-0.001993 -0.000012 0
-0.001977 -0.000011 0
-0.001961 -0.000010 0
-0.001944 -0.000011 0
-0.001925 -0.000012 0
-0.001902 -0.000016 0
-0.001871 -0.000021 0
-0.001830 -0.000028 0
-0.001777 -0.000037 0
-0.001710 -0.000046 0
-0.001631 -0.000056 0
-0.001540 -0.000063 0
-0.001443 -0.000067 0
-0.001348 -0.000065 0
-0.001267 -0.000055 0
-0.001212 -0.000036 0
-0.001198 -0.000007 0
-0.001242 0.000032 0
-0.001354 0.000079 0
-0.001544 0.000132 0
-0.001814 0.000188 0
-0.002157 0.000241 0
-0.002552 0.000280 0
-0.002961 0.000292 0
-0.003326 0.000260 0
-0.003570 0.000167 0
-0.003602 0.000001 0
-0.003331 -0.000239 0
-0.002698 -0.000514 0
-0.001742 -0.000712 0
-0.000673 -0.000634 0
0.000000 -0.000247 0
0.000000 0.000914 0
-0.000807 0.001399 0
-0.001546 0.000538 0
-0.001869 -0.000066 0
-0.001910 -0.000273 0
-0.001818 -0.000299 0
-0.001680 -0.000268 0
-0.001533 -0.000227 0
-0.001394 -0.000189 0
-0.001268 -0.000159 0
-0.001155 -0.000136 0
-0.001054 -0.000117 0
-0.000963 -0.000104 0
-0.000879 -0.000093 0
-0.000802 -0.000085 0
-0.000730 -0.000079 0
-0.000661 -0.000075 0
-0.000596 -0.000071 0
-0.000533 -0.000068 0
-0.000473 -0.000065 0
-0.000415 -0.000062 0
-0.000359 -0.000059 0
-0.000307 -0.000056 0
-0.000257 -0.000052 0
-0.000210 -0.000048 0
-0.000167 -0.000044 0
-0.000129 -0.000038 0
-0.000095 -0.000033 0
-0.000066 -0.000027 0
-0.000042 -0.000021 0
-0.000024 -0.000015 0
-0.000011 -0.000009 0
-0.000003 -0.000004 0
0.000002 0.000000 0
0.000002 0.000003 0
0.000001 0.000003 0
0.000000 0.000001 0
0.000000 0.000000 0
0.000000 0.000000 0
0.000000 0.000000 0
0.000000 0.000085 0
-0.000166 0.000311 0
-0.000530 0.000555 0
-0.001032 0.000731 0
-0.001627 0.000838 0
-0.002260 0.000853 0
-0.002858 0.000756 0
-0.003349 0.000563 0
-0.003689 0.000326 0
-0.003876 0.000113 0
-0.003942 -0.000033 0
-0.003932 -0.000108 0
-0.003884 -0.000129 0
-0.003824 -0.000122 0
-0.003762 -0.000103 0
-0.003705 -0.000085 0
-0.003654 -0.000071 0
-0.003606 -0.000062 0
-0.003562 -0.000056 0
-0.003519 -0.000054 0
-0.003479 -0.000052 0
-0.003439 -0.000051 0
-0.003401 -0.000050 0
-0.003365 -0.000048 0
-0.003331 -0.000045 0
-0.003300 -0.000042 0
-0.003272 -0.000038 0
-0.003246 -0.000035 0
-0.003222 -0.000033 0
-0.003198 -0.000033 0
-0.003172 -0.000036 0
-0.003140 -0.000043 0
-0.003100 -0.000055 0
-0.003048 -0.000073 0
-0.002981 -0.000095 0
-0.002896 -0.000120 0
-0.002793 -0.000147 0
-0.002673 -0.000171 0
-0.002541 -0.000188 0
-0.002407 -0.000192 0
-0.002282 -0.000177 0
-0.002185 -0.000138 0
-0.002137 -0.000069 0
-0.002157 0.000029 0
-0.002267 0.000155 0
-0.002481 0.000301 0
-0.002806 0.000459 0
-0.003236 0.000612 0
-0.003749 0.000738 0
-0.004301 0.000804 0
-0.004823 0.000773 0
-0.005229 0.000608 0
-0.005412 0.000275 0
-0.005265 -0.000240 0
-0.004696 -0.000904 0
-0.003681 -0.001589 0
-0.002312 -0.002026 0
-0.000875 -0.001742 0
0.000000 -0.000673 0
0.000000 0.001264 0
-0.000614 0.002142 0
-0.001382 0.001149 0
-0.001869 0.000221 0
-0.002074 -0.000221 0
-0.002098 -0.000371 0
-0.002028 -0.000393 0
-0.001914 -0.000367 0
-0.001786 -0.000328 0
-0.001657 -0.000289 0
-0.001532 -0.000255 0
-0.001414 -0.000227 0
-0.001304 -0.000205 0
-0.001200 -0.000187 0
-0.001101 -0.000173 0
-0.001008 -0.000163 0
-0.000918 -0.000154 0
-0.000831 -0.000147 0
-0.000748 -0.000141 0
-0.000667 -0.000136 0
-0.000589 -0.000130 0
-0.000514 -0.000124 0
-0.000442 -0.000118 0
-0.000373 -0.000110 0
-0.000310 -0.000102 0
-0.000250 -0.000093 0
-0.000197 -0.000082 0
-0.000149 -0.000071 0
-0.000108 -0.000059 0
-0.000074 -0.000047 0
-0.000047 -0.000035 0
-0.000026 -0.000023 0
-0.000012 -0.000013 0
-0.000004 -0.000004 0
-0.000000 0.000002 0
0.000001 0.000004 0
0.000000 0.000002 0
0.000000 0.000000 0
0.000000 0.000000 0
0.000000 0.000000 0
0.000000 0.000182 0
-0.000195 0.000612 0
-0.000606 0.001036 0
-0.001155 0.001332 0
-0.001791 0.001503 0
-0.002460 0.001516 0
-0.003095 0.001344 0
-0.003633 0.001019 0
-0.004033 0.000628 0
-0.004292 0.000276 0
-0.004432 0.000026 0
-0.004489 -0.000112 0
-0.004493 -0.000166 0
-0.004469 -0.000172 0
-0.004430 -0.000158 0
-0.004385 -0.000139 0
-0.004338 -0.000123 0
-0.004290 -0.000112 0
-0.004244 -0.000104 0
-0.004200 -0.000100 0
-0.004156 -0.000097 0
-0.004115 -0.000094 0
-0.004076 -0.000090 0
-0.004040 -0.000086 0
-0.004007 -0.000080 0
-0.003977 -0.000073 0
-0.003950 -0.000067 0
-0.003925 -0.000062 0
-0.003901 -0.000059 0
-0.003876 -0.000061 0
-0.003847 -0.000069 0
-0.003811 -0.000084 0
-0.003765 -0.000108 0
-0.003704 -0.000141 0
-0.003627 -0.000181 0
-0.003531 -0.000225 0
-0.003418 -0.000270 0
-0.003290 -0.000308 0
-0.003155 -0.000330 0
-0.003024 -0.000326 0
-0.002912 -0.000286 0
-0.002839 -0.000201 0
-0.002825 -0.000065 0
-0.002894 0.000123 0
-0.003062 0.000355 0
-0.003342 0.000618 0
-0.003731 0.000888 0
-0.004215 0.001131 0
-0.004757 0.001305 0
-0.005299 0.001354 0
-0.005764 0.001220 0
-0.006059 0.000848 0
-0.006083 0.000203 0
-0.005744 -0.000716 0
-0.004984 -0.001824 0
-0.003815 -0.002898 0
-0.002345 -0.003518 0
-0.000865 -0.002946 0
0.000000 -0.001122 0
0.000000 0.001528 0
-0.000470 0.002781 0
-0.001185 0.001793 0
-0.001735 0.000626 0
-0.002046 -0.000043 0
-0.002172 -0.000344 0
-0.002179 -0.000451 0
-0.002119 -0.000468 0
-0.002024 -0.000447 0
-0.001912 -0.000413 0
-0.001794 -0.000378 0
-0.001676 -0.000346 0
-0.001560 -0.000318 0
-0.001448 -0.000295 0
-0.001338 -0.000277 0
-0.001232 -0.000263 0
-0.001129 -0.000251 0
-0.001028 -0.000241 0
-0.000930 -0.000232 0
-0.000834 -0.000224 0
-0.000741 -0.000215 0
-0.000651 -0.000206 0
-0.000564 -0.000196 0
-0.000481 -0.000184 0
-0.000403 -0.000171 0
-0.000330 -0.000156 0
-0.000264 -0.000139 0
-0.000204 -0.000121 0
-0.000152 -0.000102 0
-0.000108 -0.000082 0
-0.000072 -0.000063 0
-0.000044 -0.000044 0
-0.000024 -0.000026 0
-0.000011 -0.000012 0
-0.000003 -0.000001 0
-0.000000 0.000003 0
0.000000 0.000002 0
0.000000 0.000000 0
0.000000 0.000000 0
0.000000 0.000000 0
0.000000 0.000280 0
-0.000179 0.000916 0
-0.000557 0.001514 0
-0.001056 0.001916 0
-0.001628 0.002143 0
-0.002231 0.002158 0
-0.002819 0.001930 0
-0.003344 0.001501 0
-0.003773 0.000985 0
-0.004092 0.000512 0
-0.004309 0.000163 0
-0.004441 -0.000047 0
-0.004509 -0.000150 0
-0.004532 -0.000185 0
-0.004528 -0.000188 0
-0.004507 -0.000178 0
-0.004477 -0.000165 0
-0.004443 -0.000155 0
-0.004407 -0.000147 0
-0.004372 -0.000142 0
-0.004338 -0.000137 0
-0.004306 -0.000132 0
-0.004276 -0.000125 0
-0.004250 -0.000118 0
-0.004226 -0.000109 0
-0.004206 -0.000099 0
-0.004187 -0.000090 0
-0.004171 -0.000084 0
-0.004154 -0.000082 0
-0.004134 -0.000087 0
-0.004110 -0.000101 0
-0.004078 -0.000126 0
-0.004035 -0.000163 0
-0.003979 -0.000211 0
-0.003907 -0.000268 0
-0.003819 -0.000329 0
-0.003717 -0.000388 0
-0.003606 -0.000434 0
-0.003494 -0.000455 0
-0.003392 -0.000436 0
-0.003316 -0.000363 0
-0.003283 -0.000225 0
-0.003313 -0.000014 0
-0.003423 0.000266 0
-0.003626 0.000602 0
-0.003926 0.000970 0
-0.004316 0.001333 0
-0.004771 0.001638 0
-0.005249 0.001822 0
-0.005690 0.001811 0
-0.006020 0.001533 0
-0.006158 0.000927 0
-0.006025 -0.000040 0
-0.005556 -0.001339 0
-0.004728 -0.002833 0
-0.003566 -0.004229 0
-0.002165 -0.004976 0
-0.000787 -0.004087 0
0.000000 -0.001538 0
0.000000 0.001735 0
-0.000374 0.003328 0
-0.001020 0.002414 0
-0.001577 0.001082 0
-0.001944 0.000216 0
-0.002141 -0.000238 0
-0.002214 -0.000445 0
-0.002207 -0.000522 0
-0.002150 -0.000535 0
-0.002066 -0.000518 0
-0.001966 -0.000491 0
-0.001857 -0.000461 0
-0.001746 -0.000433 0
-0.001633 -0.000409 0
-0.001521 -0.000388 0
-0.001410 -0.000372 0
-0.001299 -0.000358 0
-0.001190 -0.000346 0
-0.001083 -0.000335 0
-0.000977 -0.000325 0
-0.000873 -0.000313 0
-0.000771 -0.000301 0
-0.000673 -0.000287 0
-0.000579 -0.000271 0
-0.000489 -0.000253 0
-0.000405 -0.000232 0
-0.000328 -0.000208 0
-0.000258 -0.000182 0
-0.000196 -0.000155 0
-0.000143 -0.000127 0
-0.000099 -0.000098 0
-0.000063 -0.000071 0
-0.000037 -0.000046 0
-0.000019 -0.000024 0
-0.000007 -0.000008 0
-0.000001 0.000001 0
0.000000 0.000002 0
0.000000 0.000000 0
0.000000 0.000000 0
0.000000 0.000000 0
0.000000 0.000361 0
-0.000134 0.001169 0
-0.000426 0.001913 0
-0.000813 0.002403 0
-0.001258 0.002679 0
-0.001735 0.002707 0
-0.002221 0.002457 0
-0.002691 0.001972 0
-0.003118 0.001376 0
-0.003478 0.000812 0
-0.003758 0.000375 0
-0.003959 0.000087 0
-0.004090 -0.000075 0
-0.004165 -0.000153 0
-0.004201 -0.000183 0
-0.004212 -0.000190 0
-0.004208 -0.000187 0
-0.004196 -0.000182 0
-0.004180 -0.000176 0
-0.004164 -0.000170 0
-0.004148 -0.000163 0
-0.004134 -0.000155 0
-0.004123 -0.000146 0
-0.004114 -0.000136 0
-0.004107 -0.000124 0
-0.004103 -0.000112 0
-0.004100 -0.000102 0
-0.004097 -0.000096 0
-0.004093 -0.000096 0
-0.004086 -0.000105 0
-0.004073 -0.000125 0
-0.004053 -0.000159 0
-0.004023 -0.000208 0
-0.003981 -0.000269 0
-0.003927 -0.000341 0
-0.003861 -0.000415 0
-0.003787 -0.000483 0
-0.003708 -0.000531 0
-0.003634 -0.000544 0
-0.003574 -0.000505 0
-0.003543 -0.000395 0
-0.003554 -0.000204 0
-0.003622 0.000076 0
-0.003758 0.000436 0
-0.003969 0.000858 0
-0.004252 0.001308 0
-0.004594 0.001732 0
-0.004968 0.002064 0
-0.005331 0.002223 0
-0.005631 0.002125 0
-0.005806 0.001688 0
-0.005794 0.000853 0
-0.005542 -0.000399 0
-0.005017 -0.002013 0
-0.004216 -0.003814 0
-0.003157 -0.005461 0
-0.001912 -0.006297 0
-0.000695 -0.005111 0
0.000000 -0.001909 0
0.000000 0.001903 0
-0.000309 0.003802 0
-0.000890 0.002996 0
-0.001430 0.001551 0
-0.001821 0.000521 0
-0.002061 -0.000075 0
-0.002183 -0.000385 0
-0.002221 -0.000531 0
-0.002203 -0.000588 0
-0.002147 -0.000598 0
-0.002069 -0.000586 0
-0.001976 -0.000565 0
-0.001875 -0.000542 0
-0.001769 -0.000520 0
-0.001659 -0.000501 0
-0.001548 -0.000484 0
-0.001436 -0.000470 0
-0.001323 -0.000457 0
-0.001210 -0.000446 0
-0.001098 -0.000434 0
-0.000987 -0.000421 0
-0.000878 -0.000406 0
-0.000771 -0.000389 0
-0.000668 -0.000368 0
-0.000569 -0.000344 0
-0.000476 -0.000317 0
-0.000389 -0.000287 0
-0.000310 -0.000253 0
-0.000239 -0.000217 0
-0.000177 -0.000180 0
-0.000125 -0.000142 0
-0.000083 -0.000105 0
-0.000050 -0.000071 0
-0.000026 -0.000041 0
-0.000011 -0.000018 0
-0.000003 -0.000004 0
0.000000 0.000001 0
0.000000 0.000000 0
0.000000 0.000000 0
0.000000 0.000000 0
0.000000 0.000413 0
-0.000076 0.001341 0
-0.000258 0.002193 0
-0.000507 0.002749 0
-0.000796 0.003065 0
-0.001116 0.003121 0
-0.001466 0.002886 0
-0.001844 0.002397 0
-0.002230 0.001771 0
-0.002596 0.001152 0
-0.002914 0.000645 0
-0.003167 0.000284 0
-0.003352 0.000056 0
-0.003479 -0.000074 0
-0.003559 -0.000140 0
-0.003607 -0.000171 0
-0.003635 -0.000182 0
-0.003652 -0.000183 0
-0.003664 -0.000180 0
-0.003674 -0.000174 0
-0.003684 -0.000167 0
-0.003696 -0.000157 0
-0.003710 -0.000146 0
-0.003726 -0.000133 0
-0.003743 -0.000120 0
-0.003760 -0.000107 0
-0.003778 -0.000096 0
-0.003794 -0.000091 0
-0.003808 -0.000094 0
-0.003818 -0.000107 0
-0.003823 -0.000134 0
-0.003821 -0.000176 0
-0.003811 -0.000235 0
-0.003792 -0.000307 0
-0.003765 -0.000388 0
-0.003730 -0.000470 0
-0.003692 -0.000542 0
-0.003655 -0.000587 0
-0.003625 -0.000589 0
-0.003613 -0.000527 0
-0.003627 -0.000383 0
-0.003677 -0.000145 0
-0.003773 0.000190 0
-0.003917 0.000612 0
-0.004112 0.001095 0
-0.004352 0.001595 0
-0.004618 0.002048 0
-0.004885 0.002375 0
-0.005116 0.002485 0
-0.005267 0.002285 0
-0.005296 0.001696 0
-0.005161 0.000663 0
-0.004835 -0.000817 0
-0.004312 -0.002666 0
-0.003594 -0.004693 0
-0.002689 -0.006532 0
-0.001638 -0.007437 0
-0.000602 -0.006000 0
0.000000 -0.002234 0
0.000000 0.002044 0
-0.000263 0.004218 0
-0.000789 0.003535 0
-0.001303 0.002013 0
-0.001699 0.000847 0
-0.001964 0.000125 0
-0.002121 -0.000285 0
-0.002194 -0.000503 0
-0.002207 -0.000609 0
-0.002180 -0.000652 0
-0.002124 -0.000661 0
-0.002049 -0.000654 0
-0.001961 -0.000640 0
-0.001864 -0.000624 0
-0.001762 -0.000609 0
-0.001654 -0.000595 0
-0.001544 -0.000583 0
-0.001431 -0.000571 0
-0.001317 -0.000560 0
-0.001202 -0.000547 0
-0.001087 -0.000534 0
-0.000973 -0.000517 0
-0.000860 -0.000497 0
-0.000750 -0.000473 0
-0.000644 -0.000445 0
-0.000543 -0.000412 0
-0.000447 -0.000374 0
-0.000360 -0.000332 0
-0.000281 -0.000287 0
-0.000211 -0.000240 0
-0.000151 -0.000193 0
-0.000102 -0.000146 0
-0.000063 -0.000102 0
-0.000034 -0.000063 0
-0.000015 -0.000032 0
-0.000004 -0.000010 0
0.000000 -0.000001 0
0.000000 0.000000 0
0.000000 0.000000 0
0.000000 0.000000 0
0.000000 0.000437 0
-0.000022 0.001427 0
-0.000093 0.002343 0
-0.000201 0.002940 0
-0.000332 0.003288 0
-0.000489 0.003377 0
-0.000687 0.003185 0
-0.000940 0.002736 0
-0.001245 0.002129 0
-0.001574 0.001496 0
-0.001892 0.000945 0
-0.002168 0.000525 0
-0.002389 0.000237 0
-0.002556 0.000053 0
-0.002677 -0.000055 0
-0.002764 -0.000114 0
-0.002828 -0.000142 0
-0.002880 -0.000153 0
-0.002926 -0.000154 0
-0.002971 -0.000149 0
-0.003016 -0.000140 0
-0.003063 -0.000129 0
-0.003110 -0.000117 0
-0.003158 -0.000103 0
-0.003205 -0.000090 0
-0.003250 -0.000077 0
-0.003293 -0.000068 0
-0.003333 -0.000065 0
-0.003370 -0.000072 0
-0.003402 -0.000090 0
-0.003429 -0.000122 0
-0.003450 -0.000172 0
-0.003465 -0.000237 0
-0.003474 -0.000316 0
-0.003478 -0.000402 0
-0.003480 -0.000488 0
-0.003482 -0.000559 0
-0.003489 -0.000598 0
-0.003505 -0.000586 0
-0.003538 -0.000503 0
-0.003592 -0.000331 0
-0.003673 -0.000058 0
-0.003783 0.000315 0
-0.003923 0.000776 0
-0.004088 0.001293 0
-0.004269 0.001813 0
-0.004448 0.002265 0
-0.004602 0.002561 0
-0.004701 0.002605 0
-0.004717 0.002304 0
-0.004621 0.001582 0
-0.004396 0.000393 0
-0.004036 -0.001249 0
-0.003552 -0.003254 0
-0.002946 -0.005437 0
-0.002212 -0.007418 0
-0.001362 -0.008384 0
-0.000510 -0.006749 0
0.000000 -0.002512 0
0.000000 0.002166 0
-0.000230 0.004591 0
-0.000709 0.004036 0
-0.001196 0.002461 0
-0.001587 0.001182 0
-0.001865 0.000347 0
-0.002044 -0.000156 0
-0.002143 -0.000444 0
-0.002183 -0.000602 0
-0.002180 -0.000681 0
-0.002145 -0.000716 0
-0.002089 -0.000728 0
-0.002015 -0.000726 0
-0.001930 -0.000719 0
-0.001837 -0.000711 0
-0.001736 -0.000701 0
-0.001631 -0.000693 0
-0.001521 -0.000684 0
-0.001408 -0.000674 0
-0.001293 -0.000663 0
-0.001176 -0.000650 0
-0.001059 -0.000633 0
-0.000943 -0.000611 0
-0.000827 -0.000584 0
-0.000715 -0.000552 0
-0.000607 -0.000514 0
-0.000504 -0.000469 0
-0.000409 -0.000420 0
-0.000322 -0.000366 0
-0.000244 -0.000309 0
-0.000177 -0.000251 0
-0.000121 -0.000193 0
-0.000076 -0.000139 0
-0.000042 -0.000090 0
-0.000018 -0.000049 0
-0.000004 -0.000018 0
0.000000 -0.000003 0
0.000000 0.000000 0
0.000000 0.000000 0
0.000000 0.000000 0
0.000000 0.000435 0
0.000024 0.001434 0
0.000048 0.002372 0
0.000065 0.002987 0
0.000074 0.003353 0
0.000067 0.003475 0
0.000020 0.003337 0
-0.000093 0.002955 0
-0.000282 0.002405 0
-0.000531 0.001799 0
-0.000804 0.001238 0
-0.001066 0.000782 0
-0.001294 0.000444 0
-0.001478 0.000214 0
-0.001625 0.000067 0
-0.001741 -0.000020 0
-0.001838 -0.000066 0
-0.001925 -0.000086 0
-0.002010 -0.000089 0
-0.002096 -0.000084 0
-0.002185 -0.000075 0
-0.002277 -0.000063 0
-0.002369 -0.000051 0
-0.002459 -0.000039 0
-0.002545 -0.000027 0
-0.002626 -0.000018 0
-0.002701 -0.000013 0
-0.002770 -0.000015 0
-0.002834 -0.000025 0
-0.002891 -0.000048 0
-0.002944 -0.000086 0
-0.002991 -0.000141 0
-0.003034 -0.000210 0
-0.003073 -0.000293 0
-0.003111 -0.000382 0
-0.003150 -0.000466 0
-0.003192 -0.000533 0
-0.003241 -0.000564 0
-0.003300 -0.000540 0
-0.003372 -0.000440 0
-0.003459 -0.000248 0
-0.003561 0.000046 0
-0.003677 0.000440 0
-0.003802 0.000917 0
-0.003930 0.001441 0
-0.004047 0.001955 0
-0.004140 0.002381 0
-0.004187 0.002628 0
-0.004170 0.002600 0
-0.004071 0.002205 0
-0.003879 0.001375 0
-0.003595 0.000078 0
-0.003231 -0.001662 0
-0.002807 -0.003756 0
-0.002321 -0.006033 0
-0.001754 -0.008116 0
-0.001097 -0.009139 0
-0.000421 -0.007362 0
0.000000 -0.002744 0
0.000000 0.002274 0
-0.000204 0.004927 0
-0.000644 0.004502 0
-0.001106 0.002892 0
-0.001488 0.001517 0
-0.001771 0.000582 0
-0.001963 -0.000007 0
-0.002082 -0.000363 0
-0.002143 -0.000572 0
-0.002160 -0.000689 0
-0.002145 -0.000753 0
-0.002105 -0.000784 0
-0.002047 -0.000798 0
-0.001975 -0.000803 0
-0.001891 -0.000803 0
-0.001800 -0.000801 0
-0.001701 -0.000798 0
-0.001596 -0.000793 0
-0.001487 -0.000787 0
-0.001373 -0.000779 0
-0.001257 -0.000767 0
-0.001139 -0.000751 0
-0.001020 -0.000729 0
-0.000901 -0.000701 0
-0.000784 -0.000665 0
-0.000670 -0.000622 0
-0.000561 -0.000572 0
-0.000458 -0.000515 0
-0.000363 -0.000452 0
-0.000278 -0.000385 0
-0.000203 -0.000316 0
-0.000140 -0.000247 0
-0.000088 -0.000181 0
-0.000049 -0.000121 0
-0.000021 -0.000069 0
-0.000005 -0.000028 0