# vtk DataFile Version 2.0
generated by CFD-lab course output (written by Tobias Neckel) 
ASCII

DATASET STRUCTURED_GRID
DIMENSIONS  99 49 1 
POINTS 4851 float

0.000000 0.000000 0
0.020000 0.000000 0
0.040000 0.000000 0
0.060000 0.000000 0
0.080000 0.000000 0
0.100000 0.000000 0
0.120000 0.000000 0
0.140000 0.000000 0
0.160000 0.000000 0
0.180000 0.000000 0
0.200000 0.000000 0
0.220000 0.000000 0
0.240000 0.000000 0
0.260000 0.000000 0
0.280000 0.000000 0
0.300000 0.000000 0
0.320000 0.000000 0
0.340000 0.000000 0
0.360000 0.000000 0
0.380000 0.000000 0
0.400000 0.000000 0
0.420000 0.000000 0
0.440000 0.000000 0
0.460000 0.000000 0
0.480000 0.000000 0
0.500000 0.000000 0
0.520000 0.000000 0
0.540000 0.000000 0
0.560000 0.000000 0
0.580000 0.000000 0
0.600000 0.000000 0
0.620000 0.000000 0
0.640000 0.000000 0
0.660000 0.000000 0
0.680000 0.000000 0
0.700000 0.000000 0
0.720000 0.000000 0
0.740000 0.000000 0
0.760000 0.000000 0
0.780000 0.000000 0
0.800000 0.000000 0
0.820000 0.000000 0
0.840000 0.000000 0
0.860000 0.000000 0
0.880000 0.000000 0
0.900000 0.000000 0
0.920000 0.000000 0
0.940000 0.000000 0
0.960000 0.000000 0
0.980000 0.000000 0
1.000000 0.000000 0
1.020000 0.000000 0
1.040000 0.000000 0
1.060000 0.000000 0
1.080000 0.000000 0
1.100000 0.000000 0
1.120000 0.000000 0
1.140000 0.000000 0
1.160000 0.000000 0
1.180000 0.000000 0
1.200000 0.000000 0
1.220000 0.000000 0
1.240000 0.000000 0
1.260000 0.000000 0
1.280000 0.000000 0
1.300000 0.000000 0
1.320000 0.000000 0
1.340000 0.000000 0
1.360000 0.000000 0
1.380000 0.000000 0
1.400000 0.000000 0
1.420000 0.000000 0
1.440000 0.000000 0
1.460000 0.000000 0
1.480000 0.000000 0
1.500000 0.000000 0
1.520000 0.000000 0
1.540000 0.000000 0
1.560000 0.000000 0
1.580000 0.000000 0
1.600000 0.000000 0
1.620000 0.000000 0
1.640000 0.000000 0
1.660000 0.000000 0
1.680000 0.000000 0
1.700000 0.000000 0
1.720000 0.000000 0
1.740000 0.000000 0
1.760000 0.000000 0
1.780000 0.000000 0
1.800000 0.000000 0
1.820000 0.000000 0
1.840000 0.000000 0
1.860000 0.000000 0
1.880000 0.000000 0
1.900000 0.000000 0
1.920000 0.000000 0
1.940000 0.000000 0
1.960000 0.000000 0
0.000000 0.020000 0
0.020000 0.020000 0
0.040000 0.020000 0
0.060000 0.020000 0
0.080000 0.020000 0
0.100000 0.020000 0
0.120000 0.020000 0
0.140000 0.020000 0
0.160000 0.020000 0
0.180000 0.020000 0
0.200000 0.020000 0
0.220000 0.020000 0
0.240000 0.020000 0
0.260000 0.020000 0
0.280000 0.020000 0
0.300000 0.020000 0
0.320000 0.020000 0
0.340000 0.020000 0
0.360000 0.020000 0
0.380000 0.020000 0
0.400000 0.020000 0
0.420000 0.020000 0
0.440000 0.020000 0
0.460000 0.020000 0
0.480000 0.020000 0
0.500000 0.020000 0
0.520000 0.020000 0
0.540000 0.020000 0
0.560000 0.020000 0
0.580000 0.020000 0
0.600000 0.020000 0
0.620000 0.020000 0
0.640000 0.020000 0
0.660000 0.020000 0
0.680000 0.020000 0
0.700000 0.020000 0
0.720000 0.020000 0
0.740000 0.020000 0
0.760000 0.020000 0
0.780000 0.020000 0
0.800000 0.020000 0
0.820000 0.020000 0
0.840000 0.020000 0
0.860000 0.020000 0
0.880000 0.020000 0
0.900000 0.020000 0
0.920000 0.020000 0
0.940000 0.020000 0
0.960000 0.020000 0
0.980000 0.020000 0
1.000000 0.020000 0
1.020000 0.020000 0
1.040000 0.020000 0
1.060000 0.020000 0
1.080000 0.020000 0
1.100000 0.020000 0
1.120000 0.020000 0
1.140000 0.020000 0
1.160000 0.020000 0
1.180000 0.020000 0
1.200000 0.020000 0
1.220000 0.020000 0
1.240000 0.020000 0
1.260000 0.020000 0
1.280000 0.020000 0
1.300000 0.020000 0
1.320000 0.020000 0
1.340000 0.020000 0
1.360000 0.020000 0
1.380000 0.020000 0
1.400000 0.020000 0
1.420000 0.020000 0
1.440000 0.020000 0
1.460000 0.020000 0
1.480000 0.020000 0
1.500000 0.020000 0
1.520000 0.020000 0
1.540000 0.020000 0
1.560000 0.020000 0
1.580000 0.020000 0
1.600000 0.020000 0
1.620000 0.020000 0
1.640000 0.020000 0
1.660000 0.020000 0
1.680000 0.020000 0
1.700000 0.020000 0
1.720000 0.020000 0
1.740000 0.020000 0
1.760000 0.020000 0
1.780000 0.020000 0
1.800000 0.020000 0
1.820000 0.020000 0
1.840000 0.020000 0
1.860000 0.020000 0
1.880000 0.020000 0
1.900000 0.020000 0
1.920000 0.020000 0
1.940000 0.020000 0
1.960000 0.020000 0
0.000000 0.040000 0
0.020000 0.040000 0
0.040000 0.040000 0
0.060000 0.040000 0
0.080000 0.040000 0
0.100000 0.040000 0
0.120000 0.040000 0
0.140000 0.040000 0
0.160000 0.040000 0
0.180000 0.040000 0
0.200000 0.040000 0
0.220000 0.040000 0
0.240000 0.040000 0
0.260000 0.040000 0
0.280000 0.040000 0
0.300000 0.040000 0
0.320000 0.040000 0
0.340000 0.040000 0
0.360000 0.040000 0
0.380000 0.040000 0
0.400000 0.040000 0
0.420000 0.040000 0
0.440000 0.040000 0
0.460000 0.040000 0
0.480000 0.040000 0
0.500000 0.040000 0
0.520000 0.040000 0
0.540000 0.040000 0
0.560000 0.040000 0
0.580000 0.040000 0
0.600000 0.040000 0
0.620000 0.040000 0
0.640000 0.040000 0
0.660000 0.040000 0
0.680000 0.040000 0
0.700000 0.040000 0
0.720000 0.040000 0
0.740000 0.040000 0
0.760000 0.040000 0
0.780000 0.040000 0
0.800000 0.040000 0
0.820000 0.040000 0
0.840000 0.040000 0
0.860000 0.040000 0
0.880000 0.040000 0
0.900000 0.040000 0
0.920000 0.040000 0
0.940000 0.040000 0
0.960000 0.040000 0
0.980000 0.040000 0
1.000000 0.040000 0
1.020000 0.040000 0
1.040000 0.040000 0
1.060000 0.040000 0
1.080000 0.040000 0
1.100000 0.040000 0
1.120000 0.040000 0
1.140000 0.040000 0
1.160000 0.040000 0
1.180000 0.040000 0
1.200000 0.040000 0
1.220000 0.040000 0
1.240000 0.040000 0
1.260000 0.040000 0
1.280000 0.040000 0
1.300000 0.040000 0
1.320000 0.040000 0
1.340000 0.040000 0
1.360000 0.040000 0
1.380000 0.040000 0
1.400000 0.040000 0
1.420000 0.040000 0
1.440000 0.040000 0
1.460000 0.040000 0
1.480000 0.040000 0
1.500000 0.040000 0
1.520000 0.040000 0
1.540000 0.040000 0
1.560000 0.040000 0
1.580000 0.040000 0
1.600000 0.040000 0
1.620000 0.040000 0
1.640000 0.040000 0
1.660000 0.040000 0
1.680000 0.040000 0
1.700000 0.040000 0
1.720000 0.040000 0
1.740000 0.040000 0
1.760000 0.040000 0
1.780000 0.040000 0
1.800000 0.040000 0
1.820000 0.040000 0
1.840000 0.040000 0
1.860000 0.040000 0
1.880000 0.040000 0
1.900000 0.040000 0
1.920000 0.040000 0
1.940000 0.040000 0
1.960000 0.040000 0
0.000000 0.060000 0
0.020000 0.060000 0
0.040000 0.060000 0
0.060000 0.060000 0
0.080000 0.060000 0
0.100000 0.060000 0
0.120000 0.060000 0
0.140000 0.060000 0
0.160000 0.060000 0
0.180000 0.060000 0
0.200000 0.060000 0
0.220000 0.060000 0
0.240000 0.060000 0
0.260000 0.060000 0
0.280000 0.060000 0
0.300000 0.060000 0
0.320000 0.060000 0
0.340000 0.060000 0
0.360000 0.060000 0
0.380000 0.060000 0
0.400000 0.060000 0
0.420000 0.060000 0
0.440000 0.060000 0
0.460000 0.060000 0
0.480000 0.060000 0
0.500000 0.060000 0
0.520000 0.060000 0
0.540000 0.060000 0
0.560000 0.060000 0
0.580000 0.060000 0
0.600000 0.060000 0
0.620000 0.060000 0
0.640000 0.060000 0
0.660000 0.060000 0
0.680000 0.060000 0
0.700000 0.060000 0
0.720000 0.060000 0
0.740000 0.060000 0
0.760000 0.060000 0
0.780000 0.060000 0
0.800000 0.060000 0
0.820000 0.060000 0
0.840000 0.060000 0
0.860000 0.060000 0
0.880000 0.060000 0
0.900000 0.060000 0
0.920000 0.060000 0
0.940000 0.060000 0
0.960000 0.060000 0
0.980000 0.060000 0
1.000000 0.060000 0
1.020000 0.060000 0
1.040000 0.060000 0
1.060000 0.060000 0
1.080000 0.060000 0
1.100000 0.060000 0
1.120000 0.060000 0
1.140000 0.060000 0
1.160000 0.060000 0
1.180000 0.060000 0
1.200000 0.060000 0
1.220000 0.060000 0
1.240000 0.060000 0
1.260000 0.060000 0
1.280000 0.060000 0
1.300000 0.060000 0
1.320000 0.060000 0
1.340000 0.060000 0
1.360000 0.060000 0
1.380000 0.060000 0
1.400000 0.060000 0
1.420000 0.060000 0
1.440000 0.060000 0
1.460000 0.060000 0
1.480000 0.060000 0
1.500000 0.060000 0
1.520000 0.060000 0
1.540000 0.060000 0
1.560000 0.060000 0
1.580000 0.060000 0
1.600000 0.060000 0
1.620000 0.060000 0
1.640000 0.060000 0
1.660000 0.060000 0
1.680000 0.060000 0
1.700000 0.060000 0
1.720000 0.060000 0
1.740000 0.060000 0
1.760000 0.060000 0
1.780000 0.060000 0
1.800000 0.060000 0
1.820000 0.060000 0
1.840000 0.060000 0
1.860000 0.060000 0
1.880000 0.060000 0
1.900000 0.060000 0
1.920000 0.060000 0
1.940000 0.060000 0
1.960000 0.060000 0
0.000000 0.080000 0
0.020000 0.080000 0
0.040000 0.080000 0
0.060000 0.080000 0
0.080000 0.080000 0
0.100000 0.080000 0
0.120000 0.080000 0
0.140000 0.080000 0
0.160000 0.080000 0
0.180000 0.080000 0
0.200000 0.080000 0
0.220000 0.080000 0
0.240000 0.080000 0
0.260000 0.080000 0
0.280000 0.080000 0
0.300000 0.080000 0
0.320000 0.080000 0
0.340000 0.080000 0
0.360000 0.080000 0
0.380000 0.080000 0
0.400000 0.080000 0
0.420000 0.080000 0
0.440000 0.080000 0
0.460000 0.080000 0
0.480000 0.080000 0
0.500000 0.080000 0
0.520000 0.080000 0
0.540000 0.080000 0
0.560000 0.080000 0
0.580000 0.080000 0
0.600000 0.080000 0
0.620000 0.080000 0
0.640000 0.080000 0
0.660000 0.080000 0
0.680000 0.080000 0
0.700000 0.080000 0
0.720000 0.080000 0
0.740000 0.080000 0
0.760000 0.080000 0
0.780000 0.080000 0
0.800000 0.080000 0
0.820000 0.080000 0
0.840000 0.080000 0
0.860000 0.080000 0
0.880000 0.080000 0
0.900000 0.080000 0
0.920000 0.080000 0
0.940000 0.080000 0
0.960000 0.080000 0
0.980000 0.080000 0
1.000000 0.080000 0
1.020000 0.080000 0
1.040000 0.080000 0
1.060000 0.080000 0
1.080000 0.080000 0
1.100000 0.080000 0
1.120000 0.080000 0
1.140000 0.080000 0
1.160000 0.080000 0
1.180000 0.080000 0
1.200000 0.080000 0
1.220000 0.080000 0
1.240000 0.080000 0
1.260000 0.080000 0
1.280000 0.080000 0
1.300000 0.080000 0
1.320000 0.080000 0
1.340000 0.080000 0
1.360000 0.080000 0
1.380000 0.080000 0
1.400000 0.080000 0
1.420000 0.080000 0
1.440000 0.080000 0
1.460000 0.080000 0
1.480000 0.080000 0
1.500000 0.080000 0
1.520000 0.080000 0
1.540000 0.080000 0
1.560000 0.080000 0
1.580000 0.080000 0
1.600000 0.080000 0
1.620000 0.080000 0
1.640000 0.080000 0
1.660000 0.080000 0
1.680000 0.080000 0
1.700000 0.080000 0
1.720000 0.080000 0
1.740000 0.080000 0
1.760000 0.080000 0
1.780000 0.080000 0
1.800000 0.080000 0
1.820000 0.080000 0
1.840000 0.080000 0
1.860000 0.080000 0
1.880000 0.080000 0
[...]
POINT_DATA 4851 

VECTORS velocity float
0.000000 0.000000 0
-0.000440 0.000000 0
-0.000547 0.000000 0
-0.000481 0.000000 0
-0.000385 0.000000 0
-0.000304 0.000000 0
-0.000243 0.000000 0
-0.000198 0.000000 0
-0.000166 0.000000 0
-0.000141 0.000000 0
-0.000123 0.000000 0
-0.000108 0.000000 0
-0.000096 0.000000 0
-0.000085 0.000000 0
-0.000077 0.000000 0
-0.000069 0.000000 0
-0.000063 0.000000 0
-0.000057 0.000000 0
-0.000051 0.000000 0
-0.000046 0.000000 0
-0.000042 0.000000 0
-0.000038 0.000000 0
-0.000034 0.000000 0
-0.000031 0.000000 0
-0.000027 0.000000 0
-0.000024 0.000000 0
-0.000021 0.000000 0
-0.000018 0.000000 0
-0.000016 0.000000 0
-0.000013 0.000000 0
-0.000010 0.000000 0
-0.000008 0.000000 0
-0.000006 0.000000 0
-0.000003 0.000000 0
-0.000002 0.000000 0
-0.000000 0.000000 0
0.000000 0.000000 0
0.000000 0.000000 0
0.000000 0.000000 0
0.000000 0.000000 0
0.000000 0.000000 0
-0.000000 0.000000 0
-0.000000 0.000000 0
-0.000000 0.000000 0
-0.000000 0.000000 0
-0.000000 0.000000 0
-0.000000 0.000000 0
-0.000001 0.000000 0
-0.000001 0.000000 0
-0.000001 0.000000 0
-0.000001 0.000000 0
-0.000001 0.000000 0
-0.000002 0.000000 0
-0.000002 0.000000 0
-0.000002 0.000000 0
-0.000003 0.000000 0
-0.000003 0.000000 0
-0.000004 0.000000 0
-0.000004 0.000000 0
-0.000005 0.000000 0
-0.000006 0.000000 0
-0.000007 0.000000 0
-0.000008 0.000000 0
-0.000009 0.000000 0
-0.000010 0.000000 0
-0.000012 0.000000 0
-0.000014 0.000000 0
-0.000015 0.000000 0
-0.000017 0.000000 0
-0.000019 0.000000 0
-0.000021 0.000000 0
-0.000024 0.000000 0
-0.000026 0.000000 0
-0.000029 0.000000 0
-0.000032 0.000000 0
-0.000035 0.000000 0
-0.000039 0.000000 0
-0.000043 0.000000 0
-0.000047 0.000000 0
-0.000052 0.000000 0
-0.000057 0.000000 0
-0.000063 0.000000 0
-0.000070 0.000000 0
-0.000078 0.000000 0
-0.000087 0.000000 0
-0.000098 0.000000 0
-0.000111 0.000000 0
-0.000128 0.000000 0
-0.000149 0.000000 0
-0.000178 0.000000 0
-0.000219 0.000000 0
-0.000279 0.000000 0
-0.000368 0.000000 0
-0.000495 0.000000 0
-0.000653 0.000000 0
-0.000791 0.000000 0
-0.000788 0.000000 0
-0.000499 0.000000 0
0.000000 0.000000 0
0.000000 0.000441 0
-0.000858 0.000548 0
-0.001248 0.000041 0
-0.001232 -0.000162 0
-0.001072 -0.000176 0
-0.000894 -0.000142 0
-0.000740 -0.000105 0
-0.000617 -0.000077 0
-0.000522 -0.000056 0
-0.000449 -0.000043 0
-0.000391 -0.000033 0
-0.000344 -0.000027 0
-0.000306 -0.000022 0
-0.000273 -0.000019 0
-0.000246 -0.000016 0
-0.000221 -0.000014 0
-0.000200 -0.000012 0
-0.000181 -0.000011 0
-0.000164 -0.000010 0
-0.000149 -0.000009 0
-0.000135 -0.000008 0
-0.000121 -0.000008 0
-0.000109 -0.000007 0
-0.000098 -0.000007 0
-0.000088 -0.000006 0
-0.000078 -0.000006 0
-0.000068 -0.000006 0
-0.000059 -0.000005 0
-0.000050 -0.000005 0
-0.000042 -0.000005 0
-0.000034 -0.000005 0
-0.000026 -0.000005 0
-0.000019 -0.000004 0
-0.000012 -0.000004 0
-0.000006 -0.000003 0
-0.000002 -0.000001 0
0.000000 -0.000000 0
0.000000 0.000000 0
0.000000 0.000000 0
0.000000 0.000000 0
0.000000 -0.000000 0
-0.000000 -0.000000 0
-0.000000 0.000000 0
-0.000000 0.000000 0
-0.000001 0.000000 0
-0.000001 0.000000 0
-0.000001 0.000000 0
-0.000002 0.000000 0
-0.000002 0.000000 0
-0.000003 0.000000 0
-0.000003 0.000000 0
-0.000004 0.000000 0
-0.000005 0.000001 0
-0.000006 0.000001 0
-0.000007 0.000001 0
-0.000009 0.000001 0
-0.000010 0.000001 0
-0.000012 0.000001 0
-0.000014 0.000001 0
-0.000017 0.000002 0
-0.000019 0.000002 0
-0.000022 0.000002 0
-0.000026 0.000002 0
-0.000030 0.000002 0
-0.000034 0.000003 0
-0.000038 0.000003 0
-0.000043 0.000003 0
-0.000049 0.000003 0
-0.000055 0.000004 0
-0.000061 0.000004 0
-0.000068 0.000004 0
-0.000076 0.000005 0
-0.000084 0.000005 0
-0.000093 0.000006 0
-0.000102 0.000006 0
-0.000113 0.000007 0
-0.000124 0.000007 0
-0.000137 0.000008 0
-0.000150 0.000009 0
-0.000166 0.000010 0
-0.000183 0.000011 0
-0.000202 0.000013 0
-0.000223 0.000014 0
-0.000248 0.000017 0
-0.000277 0.000020 0
-0.000312 0.000024 0
-0.000353 0.000029 0
-0.000405 0.000037 0
-0.000471 0.000049 0
-0.000557 0.000069 0
-0.000675 0.000099 0
-0.000837 0.000147 0
-0.001059 0.000214 0
-0.001341 0.000284 0
-0.001645 0.000295 0
-0.001840 0.000133 0
-0.001693 -0.000294 0
-0.000986 -0.000789 0
0.000000 -0.000500 0
0.000000 0.000859 0
-0.000714 0.001250 0
-0.001298 0.000375 0
-0.001478 -0.000176 0
-0.001413 -0.000338 0
-0.001255 -0.000331 0
-0.001083 -0.000276 0
-0.000929 -0.000217 0
-0.000800 -0.000168 0
-0.000695 -0.000131 0
-0.000610 -0.000104 0
-0.000539 -0.000085 0
-0.000481 -0.000070 0
-0.000431 -0.000060 0
-0.000387 -0.000051 0
-0.000350 -0.000045 0
-0.000316 -0.000040 0
-0.000287 -0.000036 0
-0.000260 -0.000032 0
-0.000235 -0.000029 0
-0.000213 -0.000027 0
-0.000193 -0.000025 0
-0.000173 -0.000023 0
-0.000156 -0.000022 0
-0.000139 -0.000020 0
-0.000123 -0.000019 0
-0.000108 -0.000018 0
-0.000094 -0.000017 0
-0.000080 -0.000017 0
-0.000067 -0.000016 0
-0.000054 -0.000016 0
-0.000042 -0.000015 0
-0.000030 -0.000014 0
-0.000020 -0.000013 0
-0.000010 -0.000010 0
-0.000003 -0.000006 0
0.000000 -0.000002 0
0.000000 0.000000 0
0.000000 0.000000 0
0.000000 0.000000 0
0.000000 0.000000 0
-0.000000 0.000000 0
-0.000000 0.000000 0
-0.000001 0.000000 0
-0.000001 0.000001 0
-0.000002 0.000001 0
-0.000002 0.000001 0
-0.000003 0.000001 0
-0.000004 0.000001 0
-0.000005 0.000001 0
-0.000006 0.000001 0
-0.000007 0.000002 0
-0.000008 0.000002 0
-0.000010 0.000002 0
-0.000012 0.000002 0
-0.000014 0.000003 0
-0.000016 0.000003 0
-0.000019 0.000004 0
-0.000023 0.000004 0
-0.000026 0.000005 0
-0.000031 0.000006 0
-0.000036 0.000006 0
-0.000041 0.000007 0
-0.000047 0.000008 0
-0.000054 0.000009 0
-0.000061 0.000010 0
-0.000069 0.000010 0
-0.000078 0.000011 0
-0.000087 0.000012 0
-0.000097 0.000013 0
-0.000108 0.000014 0
-0.000120 0.000015 0
-0.000133 0.000017 0
-0.000147 0.000018 0
-0.000162 0.000020 0
-0.000178 0.000022 0
-0.000196 0.000024 0
-0.000216 0.000026 0
-0.000237 0.000029 0
-0.000261 0.000032 0
-0.000288 0.000036 0
-0.000317 0.000040 0
-0.000351 0.000046 0
-0.000390 0.000053 0
-0.000434 0.000063 0
-0.000487 0.000075 0
-0.000550 0.000092 0
-0.000627 0.000116 0
-0.000723 0.000151 0
-0.000845 0.000203 0
-0.001001 0.000278 0
-0.001198 0.000382 0
-0.001436 0.000502 0
-0.001691 0.000584 0
-0.001894 0.000497 0
-0.001914 0.000047 0
-0.001582 -0.000856 0
-0.000814 -0.001695 0
0.000000 -0.000987 0
0.000000 0.001156 0
-0.000496 0.001847 0
-0.001054 0.000806 0
-0.001335 -0.000046 0
-0.001377 -0.000399 0
-0.001294 -0.000471 0
-0.001165 -0.000431 0
-0.001030 -0.000359 0
-0.000906 -0.000290 0
-0.000799 -0.000233 0
-0.000709 -0.000189 0
-0.000631 -0.000156 0
-0.000565 -0.000131 0
-0.000509 -0.000112 0
-0.000459 -0.000097 0
-0.000415 -0.000085 0
-0.000376 -0.000075 0
-0.000342 -0.000067 0
-0.000310 -0.000061 0
-0.000281 -0.000056 0
-0.000255 -0.000051 0
-0.000230 -0.000047 0
-0.000208 -0.000044 0
-0.000186 -0.000041 0
-0.000167 -0.000039 0
-0.000148 -0.000037 0
-0.000130 -0.000035 0
-0.000113 -0.000033 0
-0.000096 -0.000032 0
-0.000081 -0.000031 0
-0.000066 -0.000030 0
-0.000051 -0.000029 0
-0.000037 -0.000027 0
-0.000024 -0.000024 0
-0.000013 -0.000019 0
-0.000004 -0.000011 0
0.000000 -0.000003 0
0.000000 0.000000 0
0.000000 0.000000 0
0.000000 0.000000 0
0.000000 0.000000 0
-0.000000 0.000000 0
-0.000001 0.000001 0
-0.000001 0.000001 0
-0.000002 0.000001 0
-0.000002 0.000001 0
-0.000003 0.000001 0
-0.000004 0.000002 0
-0.000005 0.000002 0
-0.000006 0.000002 0
-0.000007 0.000002 0
-0.000008 0.000003 0
-0.000010 0.000003 0
-0.000012 0.000004 0
-0.000014 0.000005 0
-0.000016 0.000006 0
-0.000019 0.000006 0
-0.000023 0.000007 0
-0.000027 0.000008 0
-0.000032 0.000010 0
-0.000037 0.000011 0
-0.000043 0.000012 0
-0.000049 0.000014 0
-0.000056 0.000015 0
-0.000064 0.000017 0
-0.000073 0.000018 0
-0.000083 0.000020 0
-0.000093 0.000022 0
-0.000104 0.000023 0
-0.000117 0.000025 0
-0.000130 0.000027 0
-0.000144 0.000029 0
-0.000159 0.000032 0
-0.000176 0.000034 0
-0.000194 0.000037 0
-0.000213 0.000041 0
-0.000234 0.000045 0
-0.000257 0.000049 0
-0.000283 0.000054 0
-0.000311 0.000060 0
-0.000342 0.000067 0
-0.000377 0.000076 0
-0.000416 0.000087 0
-0.000460 0.000100 0
-0.000511 0.000117 0
-0.000571 0.000139 0
-0.000640 0.000169 0
-0.000724 0.000210 0
-0.000823 0.000267 0
-0.000944 0.000346 0
-0.001087 0.000452 0
-0.001249 0.000582 0
-0.001417 0.000707 0
-0.001554 0.000741 0
-0.001601 0.000517 0
-0.001480 -0.000180 0
-0.001120 -0.001394 0
-0.000525 -0.002372 0
0.000000 -0.001314 0
0.000000 0.001355 0
-0.000333 0.002305 0
-0.000794 0.001215 0
-0.001088 0.000148 0
-0.001194 -0.000378 0
-0.001179 -0.000544 0
-0.001103 -0.000540 0
-0.001005 -0.000475 0
-0.000906 -0.000398 0
-0.000813 -0.000329 0
-0.000730 -0.000272 0
-0.000657 -0.000228 0
-0.000593 -0.000193 0
-0.000536 -0.000166 0
-0.000486 -0.000145 0
-0.000441 -0.000127 0
-0.000401 -0.000114 0
-0.000364 -0.000102 0
-0.000331 -0.000093 0
-0.000301 -0.000084 0
-0.000273 -0.000078 0
-0.000247 -0.000072 0
-0.000223 -0.000067 0
-0.000200 -0.000063 0
-0.000179 -0.000059 0
-0.000159 -0.000056 0
-0.000140 -0.000053 0
-0.000122 -0.000051 0
-0.000104 -0.000049 0
-0.000087 -0.000047 0
-0.000071 -0.000045 0
-0.000055 -0.000044 0
-0.000040 -0.000041 0
-0.000026 -0.000037 0
-0.000014 -0.000030 0
-0.000004 -0.000018 0
0.000000 -0.000005 0
0.000000 0.000000 0
0.000000 0.000000 0
0.000000 0.000000 0
0.000000 0.000000 0
-0.000000 0.000001 0
-0.000001 0.000001 0
-0.000001 0.000001 0
-0.000002 0.000002 0
-0.000002 0.000002 0
-0.000003 0.000002 0
-0.000004 0.000002 0
-0.000005 0.000003 0
-0.000006 0.000003 0
-0.000007 0.000004 0
-0.000009 0.000004 0
-0.000010 0.000005 0
-0.000012 0.000006 0
-0.000015 0.000007 0
-0.000017 0.000008 0
-0.000020 0.000010 0
-0.000024 0.000011 0
-0.000028 0.000013 0
-0.000033 0.000015 0
-0.000039 0.000017 0
-0.000045 0.000019 0
-0.000052 0.000021 0
-0.000060 0.000023 0
-0.000069 0.000025 0
-0.000078 0.000028 0
-0.000089 0.000030 0
-0.000100 0.000033 0
-0.000112 0.000036 0
-0.000125 0.000038 0
-0.000139 0.000042 0
-0.000154 0.000045 0
-0.000171 0.000048 0
-0.000189 0.000052 0
-0.000208 0.000057 0
-0.000228 0.000062 0
-0.000251 0.000068 0
-0.000275 0.000074 0
-0.000302 0.000082 0
-0.000331 0.000091 0
-0.000364 0.000101 0
-0.000400 0.000114 0
-0.000440 0.000130 0
-0.000485 0.000149 0
-0.000537 0.000173 0
-0.000595 0.000204 0
-0.000662 0.000245 0
-0.000739 0.000299 0
-0.000827 0.000371 0
-0.000927 0.000466 0
-0.001034 0.000583 0
-0.001141 0.000711 0
-0.001227 0.000806 0
-0.001261 0.000768 0
-0.001206 0.000423 0
-0.001030 -0.000435 0
-0.000723 -0.001812 0
-0.000315 -0.002815 0
0.000000 -0.001512 0
0.000000 0.001490 0
-0.000225 0.002642 0
-0.000583 0.001560 0
-0.000848 0.000354 0
-0.000980 -0.000308 0
-0.001009 -0.000562 0
-0.000979 -0.000604 0
-0.000918 -0.000556 0
-0.000847 -0.000482 0
-0.000775 -0.000408 0
-0.000706 -0.000345 0
-0.000642 -0.000293 0
-0.000585 -0.000251 0
-0.000532 -0.000218 0
-0.000485 -0.000191 0
-0.000442 -0.000170 0
-0.000403 -0.000152 0
-0.000368 -0.000137 0
-0.000335 -0.000124 0
-0.000305 -0.000114 0
-0.000277 -0.000105 0
-0.000251 -0.000097 0
-0.000227 -0.000090 0
-0.000204 -0.000085 0
-0.000183 -0.000080 0
-0.000162 -0.000076 0
-0.000143 -0.000072 0
-0.000124 -0.000069 0
-0.000107 -0.000066 0
-0.000089 -0.000064 0
-0.000073 -0.000062 0
-0.000057 -0.000059 0
-0.000041 -0.000056 0
-0.000027 -0.000050 0
-0.000014 -0.000041 0
-0.000005 -0.000025 0
0.000000 -0.000008 0
0.000000 0.000000 0
0.000000 0.000000 0
0.000000 0.000000 0
0.000000 0.000000 0
-0.000000 0.000001 0
-0.000001 0.000001 0
-0.000001 0.000002 0
-0.000002 0.000002 0
-0.000002 0.000003 0
-0.000003 0.000003 0
-0.000004 0.000003 0
-0.000005 0.000004 0
-0.000006 0.000004 0
-0.000007 0.000005 0
-0.000008 0.000006 0
-0.000010 0.000007 0
-0.000012 0.000008 0
-0.000014 0.000010 0
-0.000017 0.000011 0
-0.000020 0.000013 0
-0.000024 0.000015 0
-0.000028 0.000018 0
-0.000033 0.000020 0
-0.000038 0.000023 0
-0.000045 0.000026 0
-0.000052 0.000029 0
-0.000060 0.000032 0
-0.000069 0.000035 0
-0.000079 0.000038 0
-0.000090 0.000041 0
-0.000101 0.000045 0
-0.000114 0.000048 0
-0.000127 0.000052 0
-0.000142 0.000056 0
-0.000157 0.000061 0
-0.000174 0.000066 0
-0.000192 0.000071 0
-0.000211 0.000077 0
-0.000232 0.000084 0
-0.000254 0.000091 0
-0.000279 0.000100 0
-0.000305 0.000110 0
-0.000335 0.000122 0
-0.000366 0.000136 0
-0.000401 0.000152 0
-0.000440 0.000172 0
-0.000483 0.000196 0
-0.000530 0.000226 0
-0.000583 0.000264 0
-0.000642 0.000312 0
-0.000707 0.000375 0
-0.000777 0.000454 0
-0.000850 0.000552 0
-0.000919 0.000666 0
-0.000974 0.000774 0
-0.000997 0.000827 0
-0.000968 0.000720 0
-0.000868 0.000285 0
-0.000692 -0.000664 0
-0.000455 -0.002110 0
-0.000186 -0.003095 0
0.000000 -0.001629 0
0.000000 0.001581 0
-0.000154 0.002889 0
-0.000426 0.001838 0
-0.000651 0.000544 0
-0.000783 -0.000217 0
-0.000837 -0.000544 0
-0.000839 -0.000631 0
-0.000809 -0.000606 0
-0.000763 -0.000541 0
-0.000711 -0.000470 0
-0.000658 -0.000404 0
-0.000606 -0.000349 0
-0.000557 -0.000303 0
-0.000511 -0.000265 0
-0.000469 -0.000235 0
-0.000430 -0.000209 0
-0.000394 -0.000188 0
-0.000360 -0.000170 0
-0.000329 -0.000155 0
-0.000300 -0.000142 0
-0.000273 -0.000131 0
-0.000248 -0.000122 0
-0.000225 -0.000114 0
-0.000202 -0.000107 0
-0.000181 -0.000101 0
-0.000161 -0.000095 0
-0.000142 -0.000091 0
-0.000124 -0.000087 0
-0.000106 -0.000084 0
-0.000089 -0.000081 0
-0.000072 -0.000078 0
-0.000056 -0.000075 0
-0.000041 -0.000071 0
-0.000027 -0.000064 0
-0.000014 -0.000052 0
-0.000004 -0.000032 0
0.000000 -0.000010 0
0.000000 0.000000 0
0.000000 0.000000 0
0.000000 0.000000 0
0.000000 0.000000 0
-0.000000 0.000001 0
-0.000001 0.000002 0
-0.000001 0.000002 0
-0.000001 0.000003 0
-0.000002 0.000003 0
-0.000003 0.000004 0
-0.000003 0.000004 0
-0.000004 0.000005 0
-0.000005 0.000005 0
-0.000006 0.000006 0
-0.000007 0.000007 0
-0.000009 0.000009 0
-0.000011 0.000010 0
-0.000013 0.000012 0
-0.000015 0.000014 0
-0.000018 0.000017 0
-0.000022 0.000019 0
-0.000026 0.000022 0
-0.000031 0.000025 0
-0.000036 0.000029 0
-0.000043 0.000032 0
-0.000050 0.000036 0
-0.000058 0.000040 0
-0.000067 0.000044 0
-0.000077 0.000048 0
-0.000088 0.000053 0
-0.000099 0.000057 0
-0.000112 0.000061 0
-0.000125 0.000066 0
-0.000140 0.000071 0
-0.000155 0.000077 0
-0.000172 0.000083 0
-0.000189 0.000090 0
-0.000208 0.000097 0
-0.000229 0.000105 0
-0.000250 0.000115 0
-0.000274 0.000125 0
-0.000300 0.000137 0
-0.000327 0.000152 0
-0.000357 0.000168 0
-0.000390 0.000188 0
-0.000425 0.000211 0
-0.000464 0.000239 0
-0.000506 0.000273 0
-0.000551 0.000316 0
-0.000600 0.000368 0
-0.000651 0.000433 0
-0.000702 0.000513 0
-0.000749 0.000607 0
-0.000786 0.000707 0
-0.000804 0.000790 0
-0.000788 0.000800 0
-0.000729 0.000638 0
-0.000619 0.000146 0
-0.000466 -0.000849 0
-0.000290 -0.002319 0
-0.000112 -0.003271 0
0.000000 -0.001698 0
0.000000 0.001644 0
-0.000108 0.003069 0
-0.000313 0.002057 0
-0.000497 0.000711 0
-0.000620 -0.000121 0
-0.000685 -0.000506 0
-0.000706 -0.000632 0
-0.000698 -0.000631 0
-0.000673 -0.000579 0
-0.000639 -0.000514 0
-0.000600 -0.000450 0
-0.000559 -0.000394 0
-0.000519 -0.000346 0
-0.000481 -0.000306 0
-0.000444 -0.000273 0
-0.000409 -0.000245 0
-0.000376 -0.000221 0
-0.000346 -0.000201 0
-0.000317 -0.000184 0
-0.000290 -0.000169 0
-0.000265 -0.000157 0
-0.000241 -0.000146 0
-0.000218 -0.000136 0
-0.000197 -0.000128 0
-0.000177 -0.000121 0
-0.000157 -0.000115 0
-0.000139 -0.000109 0
-0.000121 -0.000105 0
-0.000104 -0.000101 0
-0.000087 -0.000097 0
-0.000071 -0.000094 0
-0.000055 -0.000090 0
-0.000040 -0.000085 0
-0.000026 -0.000077 0
-0.000014 -0.000063 0
-0.000004 -0.000039 0
0.000000 -0.000012 0
0.000000 0.000000 0
0.000000 0.000000 0
0.000000 0.000000 0
0.000000 0.000000 0
-0.000000 0.000001 0
-0.000000 0.000002 0
-0.000001 0.000003 0
-0.000001 0.000003 0
-0.000002 0.000004 0
-0.000002 0.000004 0
-0.000003 0.000005 0
-0.000004 0.000006 0
-0.000004 0.000006 0
-0.000005 0.000007 0
-0.000006 0.000009 0
-0.000008 0.000010 0
-0.000009 0.000012 0
-0.000011 0.000014 0
-0.000013 0.000017 0
-0.000016 0.000020 0
-0.000019 0.000023 0
-0.000023 0.000027 0
-0.000027 0.000031 0
-0.000033 0.000035 0
-0.000039 0.000039 0
-0.000046 0.000044 0
-0.000054 0.000049 0
-0.000063 0.000054 0
-0.000073 0.000059 0
-0.000084 0.000064 0
-0.000095 0.000069 0
-0.000108 0.000074 0
-0.000121 0.000080 0
-0.000135 0.000086 0
-0.000150 0.000093 0
-0.000166 0.000100 0
-0.000183 0.000108 0
-0.000202 0.000116 0
-0.000221 0.000126 0
-0.000242 0.000137 0
-0.000264 0.000149 0
-0.000288 0.000163 0
-0.000314 0.000179 0
-0.000341 0.000198 0
-0.000371 0.000220 0
-0.000403 0.000246 0
-0.000436 0.000277 0
-0.000472 0.000313 0
-0.000509 0.000358 0
-0.000547 0.000411 0
-0.000585 0.000476 0
-0.000619 0.000552 0
-0.000646 0.000637 0
-0.000659 0.000720 0
-0.000653 0.000776 0
-0.000618 0.000751 0
-0.000549 0.000550 0
-0.000446 0.000023 0
-0.000321 -0.000993 0
-0.000190 -0.002465 0
-0.000070 -0.003385 0
0.000000 -0.001741 0
0.000000 0.001689 0
-0.000077 0.003203 0
-0.000233 0.002228 0
-0.000382 0.000851 0
-0.000491 -0.000029 0
-0.000557 -0.000459 0
-0.000589 -0.000617 0
-0.000596 -0.000639 0
-0.000586 -0.000601 0
-0.000566 -0.000543 0
-0.000539 -0.000483 0
-0.000509 -0.000429 0
-0.000477 -0.000381 0
-0.000445 -0.000341 0
-0.000414 -0.000306 0
-0.000384 -0.000276 0
-0.000355 -0.000251 0
-0.000328 -0.000229 0
-0.000302 -0.000211 0
-0.000277 -0.000195 0
-0.000253 -0.000181 0
-0.000231 -0.000168 0
-0.000210 -0.000158 0
-0.000189 -0.000148 0
-0.000170 -0.000140 0
-0.000152 -0.000133 0
-0.000134 -0.000127 0
-0.000117 -0.000122 0
-0.000100 -0.000117 0
-0.000084 -0.000113 0
-0.000069 -0.000110 0
-0.000054 -0.000105 0
-0.000039 -0.000100 0
-0.000025 -0.000090 0
-0.000013 -0.000074 0
-0.000004 -0.000046 0
0.000000 -0.000014 0
0.000000 0.000000 0
0.000000 0.000000 0
0.000000 0.000000 0
0.000000 0.000000 0
-0.000000 0.000001 0
-0.000000 0.000002 0
-0.000001 0.000003 0
-0.000001 0.000004 0
-0.000001 0.000004 0
-0.000002 0.000005 0
-0.000002 0.000005 0
-0.000003 0.000006 0
-0.000003 0.000007 0
-0.000004 0.000008 0
-0.000005 0.000010 0
-0.000006 0.000011 0
-0.000007 0.000014 0
-0.000008 0.000016 0
-0.000010 0.000019 0
-0.000012 0.000022 0
-0.000015 0.000026 0
-0.000019 0.000031 0
-0.000023 0.000035 0
-0.000028 0.000041 0
-0.000034 0.000046 0
-0.000041 0.000051 0
-0.000049 0.000057 0
-0.000058 0.000063 0
-0.000068 0.000069 0
-0.000079 0.000075 0
-0.000090 0.000081 0
-0.000102 0.000087 0
-0.000115 0.000094 0
-0.000129 0.000101 0
-0.000143 0.000108 0
-0.000159 0.000116 0
-0.000175 0.000125 0
-0.000193 0.000135 0
-0.000211 0.000146 0
-0.000231 0.000158 0
-0.000251 0.000171 0
-0.000274 0.000187 0
-0.000297 0.000205 0
-0.000322 0.000225 0
-0.000348 0.000249 0
-0.000375 0.000276 0
-0.000404 0.000308 0
-0.000433 0.000346 0
-0.000463 0.000391 0
-0.000491 0.000443 0
-0.000517 0.000505 0
-0.000538 0.000574 0
-0.000550 0.000648 0
-0.000548 0.000714 0
-0.000529 0.000748 0
-0.000486 0.000696 0
-0.000418 0.000466 0
-0.000329 -0.000081 0
-0.000229 -0.001105 0
-0.000131 -0.002570 0
-0.000046 -0.003461 0
0.000000 -0.001769 0
0.000000 0.001722 0
-0.000057 0.003303 0
-0.000176 0.002362 0
-0.000296 0.000968 0
-0.000390 0.000054 0
-0.000454 -0.000408 0
-0.000490 -0.000593 0
-0.000506 -0.000634 0
-0.000507 -0.000610 0
-0.000497 -0.000561 0
-0.000479 -0.000507 0
-0.000458 -0.000455 0
-0.000434 -0.000409 0
-0.000409 -0.000369 0
-0.000383 -0.000334 0
-0.000357 -0.000304 0
-0.000332 -0.000277 0
-0.000308 -0.000255 0
-0.000284 -0.000235 0
-0.000262 -0.000218 0
-0.000240 -0.000203 0
-0.000219 -0.000189 0
-0.000200 -0.000178 0
-0.000181 -0.000168 0
-0.000162 -0.000159 0
-0.000145 -0.000151 0
-0.000128 -0.000144 0
-0.000112 -0.000138 0
-0.000096 -0.000133 0
-0.000081 -0.000129 0
-0.000066 -0.000125 0
-0.000051 -0.000120 0
-0.000038 -0.000113 0
-0.000024 -0.000103 0
-0.000013 -0.000084 0
-0.000004 -0.000053 0
0.000000 -0.000016 0
0.000000 0.000000 0
0.000000 0.000000 0
0.000000 0.000000 0
0.000000 0.000000 0
-0.000000 0.000002 0
-0.000000 0.000003 0
-0.000000 0.000003 0
-0.000001 0.000004 0
-0.000001 0.000005 0