# vtk DataFile Version 2.0
generated by CFD-lab course output (written by Tobias Neckel) 
ASCII

DATASET STRUCTURED_GRID
DIMENSIONS  99 49 1 
POINTS 4851 float

0.000000 0.000000 0
0.020000 0.000000 0
0.040000 0.000000 0
0.060000 0.000000 0
0.080000 0.000000 0
0.100000 0.000000 0
0.120000 0.000000 0
0.140000 0.000000 0
0.160000 0.000000 0
0.180000 0.000000 0
0.200000 0.000000 0
0.220000 0.000000 0
0.240000 0.000000 0
0.260000 0.000000 0
0.280000 0.000000 0
0.300000 0.000000 0
0.320000 0.000000 0
0.340000 0.000000 0
0.360000 0.000000 0
0.380000 0.000000 0
0.400000 0.000000 0
0.420000 0.000000 0
0.440000 0.000000 0
0.460000 0.000000 0
0.480000 0.000000 0
0.500000 0.000000 0
0.520000 0.000000 0
0.540000 0.000000 0
0.560000 0.000000 0
0.580000 0.000000 0
0.600000 0.000000 0
0.620000 0.000000 0
0.640000 0.000000 0
0.660000 0.000000 0
0.680000 0.000000 0
0.700000 0.000000 0
0.720000 0.000000 0
0.740000 0.000000 0
0.760000 0.000000 0
0.780000 0.000000 0
0.800000 0.000000 0
0.820000 0.000000 0
0.840000 0.000000 0
0.860000 0.000000 0
0.880000 0.000000 0
0.900000 0.000000 0
0.920000 0.000000 0
0.940000 0.000000 0
0.960000 0.000000 0
0.980000 0.000000 0
1.000000 0.000000 0
1.020000 0.000000 0
1.040000 0.000000 0
1.060000 0.000000 0
1.080000 0.000000 0
1.100000 0.000000 0
1.120000 0.000000 0
1.140000 0.000000 0
1.160000 0.000000 0
1.180000 0.000000 0
1.200000 0.000000 0
1.220000 0.000000 0
1.240000 0.000000 0
1.260000 0.000000 0
1.280000 0.000000 0
1.300000 0.000000 0
1.320000 0.000000 0
1.340000 0.000000 0
1.360000 0.000000 0
1.380000 0.000000 0
1.400000 0.000000 0
1.420000 0.000000 0
1.440000 0.000000 0
1.460000 0.000000 0
1.480000 0.000000 0
1.500000 0.000000 0
1.520000 0.000000 0
1.540000 0.000000 0
1.560000 0.000000 0
1.580000 0.000000 0
1.600000 0.000000 0
1.620000 0.000000 0
1.640000 0.000000 0
1.660000 0.000000 0
1.680000 0.000000 0
1.700000 0.000000 0
1.720000 0.000000 0
1.740000 0.000000 0
1.760000 0.000000 0
1.780000 0.000000 0
1.800000 0.000000 0
1.820000 0.000000 0
1.840000 0.000000 0
1.860000 0.000000 0
1.880000 0.000000 0
1.900000 0.000000 0
1.920000 0.000000 0
1.940000 0.000000 0
1.960000 0.000000 0
0.000000 0.020000 0
0.020000 0.020000 0
0.040000 0.020000 0
0.060000 0.020000 0
0.080000 0.020000 0
0.100000 0.020000 0
0.120000 0.020000 0
0.140000 0.020000 0
0.160000 0.020000 0
0.180000 0.020000 0
0.200000 0.020000 0
0.220000 0.020000 0
0.240000 0.020000 0
0.260000 0.020000 0
0.280000 0.020000 0
0.300000 0.020000 0
0.320000 0.020000 0
0.340000 0.020000 0
0.360000 0.020000 0
0.380000 0.020000 0
0.400000 0.020000 0
0.420000 0.020000 0
0.440000 0.020000 0
0.460000 0.020000 0
0.480000 0.020000 0
0.500000 0.020000 0
0.520000 0.020000 0
0.540000 0.020000 0
0.560000 0.020000 0
0.580000 0.020000 0
0.600000 0.020000 0
0.620000 0.020000 0
0.640000 0.020000 0
0.660000 0.020000 0
0.680000 0.020000 0
0.700000 0.020000 0
0.720000 0.020000 0
0.740000 0.020000 0
0.760000 0.020000 0
0.780000 0.020000 0
0.800000 0.020000 0
0.820000 0.020000 0
0.840000 0.020000 0
0.860000 0.020000 0
0.880000 0.020000 0
0.900000 0.020000 0
0.920000 0.020000 0
0.940000 0.020000 0
0.960000 0.020000 0
0.980000 0.020000 0
1.000000 0.020000 0
1.020000 0.020000 0
1.040000 0.020000 0
1.060000 0.020000 0
1.080000 0.020000 0
1.100000 0.020000 0
1.120000 0.020000 0
1.140000 0.020000 0
1.160000 0.020000 0
1.180000 0.020000 0
1.200000 0.020000 0
1.220000 0.020000 0
1.240000 0.020000 0
1.260000 0.020000 0
1.280000 0.020000 0
1.300000 0.020000 0
1.320000 0.020000 0
1.340000 0.020000 0
1.360000 0.020000 0
1.380000 0.020000 0
1.400000 0.020000 0
1.420000 0.020000 0
1.440000 0.020000 0
1.460000 0.020000 0
1.480000 0.020000 0
1.500000 0.020000 0
1.520000 0.020000 0
1.540000 0.020000 0
1.560000 0.020000 0
1.580000 0.020000 0
1.600000 0.020000 0
1.620000 0.020000 0
1.640000 0.020000 0
1.660000 0.020000 0
1.680000 0.020000 0
1.700000 0.020000 0
1.720000 0.020000 0
1.740000 0.020000 0
1.760000 0.020000 0
1.780000 0.020000 0
1.800000 0.020000 0
1.820000 0.020000 0
1.840000 0.020000 0
1.860000 0.020000 0
1.880000 0.020000 0
1.900000 0.020000 0
1.920000 0.020000 0
1.940000 0.020000 0
1.960000 0.020000 0
0.000000 0.040000 0
0.020000 0.040000 0
0.040000 0.040000 0
0.060000 0.040000 0
0.080000 0.040000 0
0.100000 0.040000 0
0.120000 0.040000 0
0.140000 0.040000 0
0.160000 0.040000 0
0.180000 0.040000 0
0.200000 0.040000 0
0.220000 0.040000 0
0.240000 0.040000 0
0.260000 0.040000 0
0.280000 0.040000 0
0.300000 0.040000 0
0.320000 0.040000 0
0.340000 0.040000 0
0.360000 0.040000 0
0.380000 0.040000 0
0.400000 0.040000 0
0.420000 0.040000 0
0.440000 0.040000 0
0.460000 0.040000 0
0.480000 0.040000 0
0.500000 0.040000 0
0.520000 0.040000 0
0.540000 0.040000 0
0.560000 0.040000 0
0.580000 0.040000 0
0.600000 0.040000 0
0.620000 0.040000 0
0.640000 0.040000 0
0.660000 0.040000 0
0.680000 0.040000 0
0.700000 0.040000 0
0.720000 0.040000 0
0.740000 0.040000 0
0.760000 0.040000 0
0.780000 0.040000 0
0.800000 0.040000 0
0.820000 0.040000 0
0.840000 0.040000 0
0.860000 0.040000 0
0.880000 0.040000 0
0.900000 0.040000 0
0.920000 0.040000 0
0.940000 0.040000 0
0.960000 0.040000 0
0.980000 0.040000 0
1.000000 0.040000 0
1.020000 0.040000 0
1.040000 0.040000 0
1.060000 0.040000 0
1.080000 0.040000 0
1.100000 0.040000 0
1.120000 0.040000 0
1.140000 0.040000 0
1.160000 0.040000 0
1.180000 0.040000 0
1.200000 0.040000 0
1.220000 0.040000 0
1.240000 0.040000 0
1.260000 0.040000 0
1.280000 0.040000 0
1.300000 0.040000 0
1.320000 0.040000 0
1.340000 0.040000 0
1.360000 0.040000 0
1.380000 0.040000 0
1.400000 0.040000 0
1.420000 0.040000 0
1.440000 0.040000 0
1.460000 0.040000 0
1.480000 0.040000 0
1.500000 0.040000 0
1.520000 0.040000 0
1.540000 0.040000 0
1.560000 0.040000 0
1.580000 0.040000 0
1.600000 0.040000 0
1.620000 0.040000 0
1.640000 0.040000 0
1.660000 0.040000 0
1.680000 0.040000 0
1.700000 0.040000 0
1.720000 0.040000 0
1.740000 0.040000 0
1.760000 0.040000 0
1.780000 0.040000 0
1.800000 0.040000 0
1.820000 0.040000 0
1.840000 0.040000 0
1.860000 0.040000 0
1.880000 0.040000 0
1.900000 0.040000 0
1.920000 0.040000 0
1.940000 0.040000 0
1.960000 0.040000 0
0.000000 0.060000 0
0.020000 0.060000 0
0.040000 0.060000 0
0.060000 0.060000 0
0.080000 0.060000 0
0.100000 0.060000 0
0.120000 0.060000 0
0.140000 0.060000 0
0.160000 0.060000 0
0.180000 0.060000 0
0.200000 0.060000 0
0.220000 0.060000 0
0.240000 0.060000 0
0.260000 0.060000 0
0.280000 0.060000 0
0.300000 0.060000 0
0.320000 0.060000 0
0.340000 0.060000 0
0.360000 0.060000 0
0.380000 0.060000 0
0.400000 0.060000 0
0.420000 0.060000 0
0.440000 0.060000 0
0.460000 0.060000 0
0.480000 0.060000 0
0.500000 0.060000 0
0.520000 0.060000 0
0.540000 0.060000 0
0.560000 0.060000 0
0.580000 0.060000 0
0.600000 0.060000 0
0.620000 0.060000 0
0.640000 0.060000 0
0.660000 0.060000 0
0.680000 0.060000 0
0.700000 0.060000 0
0.720000 0.060000 0
0.740000 0.060000 0
0.760000 0.060000 0
0.780000 0.060000 0
0.800000 0.060000 0
0.820000 0.060000 0
0.840000 0.060000 0
0.860000 0.060000 0
0.880000 0.060000 0
0.900000 0.060000 0
0.920000 0.060000 0
0.940000 0.060000 0
0.960000 0.060000 0
0.980000 0.060000 0
1.000000 0.060000 0
1.020000 0.060000 0
1.040000 0.060000 0
1.060000 0.060000 0
1.080000 0.060000 0
1.100000 0.060000 0
1.120000 0.060000 0
1.140000 0.060000 0
1.160000 0.060000 0
1.180000 0.060000 0
1.200000 0.060000 0
1.220000 0.060000 0
1.240000 0.060000 0
1.260000 0.060000 0
1.280000 0.060000 0
1.300000 0.060000 0
1.320000 0.060000 0
1.340000 0.060000 0
1.360000 0.060000 0
1.380000 0.060000 0
1.400000 0.060000 0
1.420000 0.060000 0
1.440000 0.060000 0
1.460000 0.060000 0
1.480000 0.060000 0
1.500000 0.060000 0
1.520000 0.060000 0
1.540000 0.060000 0
1.560000 0.060000 0
1.580000 0.060000 0
1.600000 0.060000 0
1.620000 0.060000 0
1.640000 0.060000 0
1.660000 0.060000 0
1.680000 0.060000 0
1.700000 0.060000 0
1.720000 0.060000 0
1.740000 0.060000 0
1.760000 0.060000 0
1.780000 0.060000 0
1.800000 0.060000 0
1.820000 0.060000 0
1.840000 0.060000 0
1.860000 0.060000 0
1.880000 0.060000 0
1.900000 0.060000 0
1.920000 0.060000 0
1.940000 0.060000 0
1.960000 0.060000 0
0.000000 0.080000 0
0.020000 0.080000 0
0.040000 0.080000 0
0.060000 0.080000 0
0.080000 0.080000 0
0.100000 0.080000 0
0.120000 0.080000 0
0.140000 0.080000 0
0.160000 0.080000 0
0.180000 0.080000 0
0.200000 0.080000 0
0.220000 0.080000 0
0.240000 0.080000 0
0.260000 0.080000 0
0.280000 0.080000 0
0.300000 0.080000 0
0.320000 0.080000 0
0.340000 0.080000 0
0.360000 0.080000 0
0.380000 0.080000 0
0.400000 0.080000 0
0.420000 0.080000 0
0.440000 0.080000 0
0.460000 0.080000 0
0.480000 0.080000 0
0.500000 0.080000 0
0.520000 0.080000 0
0.540000 0.080000 0
0.560000 0.080000 0
0.580000 0.080000 0
0.600000 0.080000 0
0.620000 0.080000 0
0.640000 0.080000 0
0.660000 0.080000 0
0.680000 0.080000 0
0.700000 0.080000 0
0.720000 0.080000 0
0.740000 0.080000 0
0.760000 0.080000 0
0.780000 0.080000 0
0.800000 0.080000 0
0.820000 0.080000 0
0.840000 0.080000 0
0.860000 0.080000 0
0.880000 0.080000 0
0.900000 0.080000 0
0.920000 0.080000 0
0.940000 0.080000 0
0.960000 0.080000 0
0.980000 0.080000 0
1.000000 0.080000 0
1.020000 0.080000 0
1.040000 0.080000 0
1.060000 0.080000 0
1.080000 0.080000 0
1.100000 0.080000 0
1.120000 0.080000 0
1.140000 0.080000 0
1.160000 0.080000 0
1.180000 0.080000 0
1.200000 0.080000 0
1.220000 0.080000 0
1.240000 0.080000 0
1.260000 0.080000 0
1.280000 0.080000 0
1.300000 0.080000 0
1.320000 0.080000 0
1.340000 0.080000 0
1.360000 0.080000 0
1.380000 0.080000 0
1.400000 0.080000 0
1.420000 0.080000 0
1.440000 0.080000 0
1.460000 0.080000 0
1.480000 0.080000 0
1.500000 0.080000 0
1.520000 0.080000 0
1.540000 0.080000 0
1.560000 0.080000 0
1.580000 0.080000 0
1.600000 0.080000 0
1.620000 0.080000 0
1.640000 0.080000 0
1.660000 0.080000 0
1.680000 0.080000 0
1.700000 0.080000 0
1.720000 0.080000 0
1.740000 0.080000 0
1.760000 0.080000 0
1.780000 0.080000 0
1.800000 0.080000 0
1.820000 0.080000 0
1.840000 0.080000 0
1.860000 0.080000 0
1.880000 0.080000 0
[...]
POINT_DATA 4851 

VECTORS velocity float
0.000000 0.000000 0
-0.000438 0.000000 0
-0.000576 0.000000 0
-0.000527 0.000000 0
-0.000440 0.000000 0
-0.000365 0.000000 0
-0.000309 0.000000 0
-0.000268 0.000000 0
-0.000238 0.000000 0
-0.000214 0.000000 0
-0.000195 0.000000 0
-0.000179 0.000000 0
-0.000166 0.000000 0
-0.000154 0.000000 0
-0.000143 0.000000 0
-0.000134 0.000000 0
-0.000125 0.000000 0
-0.000117 0.000000 0
-0.000109 0.000000 0
-0.000101 0.000000 0
-0.000094 0.000000 0
-0.000088 0.000000 0
-0.000081 0.000000 0
-0.000075 0.000000 0
-0.000069 0.000000 0
-0.000064 0.000000 0
-0.000058 0.000000 0
-0.000053 0.000000 0
-0.000048 0.000000 0
-0.000043 0.000000 0
-0.000038 0.000000 0
-0.000032 0.000000 0
-0.000025 0.000000 0
-0.000017 0.000000 0
-0.000009 0.000000 0
-0.000002 0.000000 0
0.000000 0.000000 0
0.000000 0.000000 0
0.000000 0.000000 0
0.000000 0.000000 0
0.000000 0.000000 0
-0.000027 0.000000 0
-0.000079 0.000000 0
-0.000130 0.000000 0
-0.000169 0.000000 0
-0.000194 0.000000 0
-0.000209 0.000000 0
-0.000218 0.000000 0
-0.000224 0.000000 0
-0.000228 0.000000 0
-0.000231 0.000000 0
-0.000234 0.000000 0
-0.000236 0.000000 0
-0.000238 0.000000 0
-0.000240 0.000000 0
-0.000242 0.000000 0
-0.000244 0.000000 0
-0.000246 0.000000 0
-0.000247 0.000000 0
-0.000248 0.000000 0
-0.000250 0.000000 0
-0.000251 0.000000 0
-0.000252 0.000000 0
-0.000253 0.000000 0
-0.000254 0.000000 0
-0.000255 0.000000 0
-0.000256 0.000000 0
-0.000257 0.000000 0
-0.000258 0.000000 0
-0.000259 0.000000 0
-0.000259 0.000000 0
-0.000260 0.000000 0
-0.000261 0.000000 0
-0.000262 0.000000 0
-0.000263 0.000000 0
-0.000263 0.000000 0
-0.000264 0.000000 0
-0.000265 0.000000 0
-0.000266 0.000000 0
-0.000267 0.000000 0
-0.000267 0.000000 0
-0.000266 0.000000 0
-0.000265 0.000000 0
-0.000262 0.000000 0
-0.000260 0.000000 0
-0.000257 0.000000 0
-0.000256 0.000000 0
-0.000259 0.000000 0
-0.000268 0.000000 0
-0.000285 0.000000 0
-0.000310 0.000000 0
-0.000342 0.000000 0
-0.000373 0.000000 0
-0.000395 0.000000 0
-0.000391 0.000000 0
-0.000343 0.000000 0
-0.000240 0.000000 0
-0.000100 0.000000 0
0.000000 0.000000 0
0.000000 0.000439 0
-0.000873 0.000577 0
-0.001342 0.000089 0
-0.001393 -0.000136 0
-0.001280 -0.000161 0
-0.001136 -0.000130 0
-0.001005 -0.000096 0
-0.000897 -0.000071 0
-0.000809 -0.000053 0
-0.000737 -0.000042 0
-0.000677 -0.000034 0
-0.000625 -0.000029 0
-0.000581 -0.000025 0
-0.000541 -0.000022 0
-0.000505 -0.000020 0
-0.000472 -0.000018 0
-0.000441 -0.000017 0
-0.000412 -0.000015 0
-0.000385 -0.000015 0
-0.000359 -0.000014 0
-0.000335 -0.000013 0
-0.000311 -0.000012 0
-0.000289 -0.000012 0
-0.000267 -0.000011 0
-0.000246 -0.000011 0
-0.000226 -0.000010 0
-0.000207 -0.000010 0
-0.000188 -0.000009 0
-0.000170 -0.000009 0
-0.000151 -0.000010 0
-0.000132 -0.000011 0
-0.000110 -0.000012 0
-0.000086 -0.000014 0
-0.000059 -0.000016 0
-0.000032 -0.000014 0
-0.000010 -0.000008 0
0.000000 -0.000002 0
0.000000 0.000000 0
0.000000 0.000000 0
0.000000 0.000000 0
0.000000 0.000027 0
-0.000078 0.000079 0
-0.000223 0.000103 0
-0.000371 0.000089 0
-0.000491 0.000063 0
-0.000577 0.000040 0
-0.000635 0.000024 0
-0.000675 0.000014 0
-0.000701 0.000009 0
-0.000721 0.000007 0
-0.000737 0.000005 0
-0.000749 0.000005 0
-0.000761 0.000004 0
-0.000770 0.000004 0
-0.000779 0.000003 0
-0.000788 0.000003 0
-0.000795 0.000003 0
-0.000802 0.000003 0
-0.000808 0.000002 0
-0.000814 0.000002 0
-0.000819 0.000002 0
-0.000824 0.000002 0
-0.000829 0.000002 0
-0.000833 0.000002 0
-0.000837 0.000002 0
-0.000841 0.000001 0
-0.000845 0.000001 0
-0.000848 0.000001 0
-0.000851 0.000001 0
-0.000854 0.000001 0
-0.000857 0.000001 0
-0.000859 0.000001 0
-0.000862 0.000001 0
-0.000865 0.000001 0
-0.000867 0.000001 0
-0.000870 0.000001 0
-0.000872 0.000001 0
-0.000875 0.000001 0
-0.000877 0.000001 0
-0.000878 0.000000 0
-0.000877 -0.000001 0
-0.000875 -0.000002 0
-0.000869 -0.000004 0
-0.000862 -0.000006 0
-0.000853 -0.000006 0
-0.000846 -0.000004 0
-0.000845 0.000002 0
-0.000857 0.000012 0
-0.000886 0.000025 0
-0.000936 0.000042 0
-0.001007 0.000056 0
-0.001091 0.000063 0
-0.001168 0.000053 0
-0.001204 0.000017 0
-0.001160 -0.000052 0
-0.000989 -0.000151 0
-0.000675 -0.000243 0
-0.000276 -0.000241 0
0.000000 -0.000100 0
0.000000 0.000874 0
-0.000758 0.001343 0
-0.001456 0.000521 0
-0.001758 -0.000062 0
-0.001793 -0.000256 0
-0.001708 -0.000274 0
-0.001584 -0.000238 0
-0.001458 -0.000195 0
-0.001343 -0.000159 0
-0.001240 -0.000131 0
-0.001150 -0.000111 0
-0.001070 -0.000095 0
-0.000999 -0.000084 0
-0.000934 -0.000075 0
-0.000874 -0.000068 0
-0.000819 -0.000063 0
-0.000768 -0.000059 0
-0.000719 -0.000055 0
-0.000673 -0.000052 0
-0.000629 -0.000049 0
-0.000587 -0.000047 0
-0.000546 -0.000045 0
-0.000507 -0.000044 0
-0.000469 -0.000042 0
-0.000432 -0.000040 0
-0.000396 -0.000039 0
-0.000362 -0.000037 0
-0.000328 -0.000036 0
-0.000295 -0.000036 0
-0.000261 -0.000037 0
-0.000226 -0.000040 0
-0.000187 -0.000045 0
-0.000146 -0.000050 0
-0.000101 -0.000053 0
-0.000056 -0.000049 0
-0.000019 -0.000032 0
0.000000 -0.000009 0
0.000000 0.000000 0
0.000000 0.000000 0
0.000000 0.000000 0
0.000000 0.000078 0
-0.000105 0.000222 0
-0.000296 0.000292 0
-0.000501 0.000267 0
-0.000681 0.000206 0
-0.000822 0.000144 0
-0.000926 0.000097 0
-0.001002 0.000065 0
-0.001058 0.000046 0
-0.001101 0.000035 0
-0.001135 0.000028 0
-0.001163 0.000023 0
-0.001187 0.000020 0
-0.001209 0.000018 0
-0.001228 0.000017 0
-0.001245 0.000015 0
-0.001261 0.000014 0
-0.001275 0.000012 0
-0.001288 0.000011 0
-0.001300 0.000011 0
-0.001311 0.000010 0
-0.001321 0.000009 0
-0.001331 0.000008 0
-0.001339 0.000008 0
-0.001347 0.000007 0
-0.001355 0.000007 0
-0.001362 0.000006 0
-0.001368 0.000006 0
-0.001374 0.000005 0
-0.001380 0.000005 0
-0.001385 0.000005 0
-0.001390 0.000005 0
-0.001394 0.000005 0
-0.001399 0.000005 0
-0.001403 0.000005 0
-0.001407 0.000005 0
-0.001411 0.000005 0
-0.001414 0.000004 0
-0.001417 0.000002 0
-0.001417 -0.000000 0
-0.001415 -0.000004 0
-0.001410 -0.000009 0
-0.001402 -0.000013 0
-0.001390 -0.000017 0
-0.001378 -0.000016 0
-0.001369 -0.000008 0
-0.001370 0.000010 0
-0.001389 0.000040 0
-0.001433 0.000079 0
-0.001505 0.000121 0
-0.001601 0.000155 0
-0.001707 0.000160 0
-0.001790 0.000113 0
-0.001804 -0.000009 0
-0.001692 -0.000216 0
-0.001404 -0.000485 0
-0.000933 -0.000713 0
-0.000373 -0.000676 0
0.000000 -0.000276 0
0.000000 0.001198 0
-0.000556 0.002034 0
-0.001259 0.001089 0
-0.001701 0.000202 0
-0.001881 -0.000211 0
-0.001897 -0.000339 0
-0.001834 -0.000346 0
-0.001738 -0.000312 0
-0.001634 -0.000271 0
-0.001532 -0.000234 0
-0.001436 -0.000204 0
-0.001348 -0.000180 0
-0.001266 -0.000161 0
-0.001190 -0.000146 0
-0.001118 -0.000134 0
-0.001051 -0.000124 0
-0.000988 -0.000116 0
-0.000928 -0.000110 0
-0.000870 -0.000104 0
-0.000814 -0.000100 0
-0.000761 -0.000096 0
-0.000709 -0.000092 0
-0.000658 -0.000089 0
-0.000609 -0.000086 0
-0.000561 -0.000083 0
-0.000515 -0.000080 0
-0.000470 -0.000078 0
-0.000425 -0.000076 0
-0.000380 -0.000076 0
-0.000335 -0.000079 0
-0.000288 -0.000084 0
-0.000238 -0.000092 0
-0.000185 -0.000100 0
-0.000128 -0.000105 0
-0.000072 -0.000097 0
-0.000024 -0.000064 0
0.000000 -0.000020 0
0.000000 0.000000 0
0.000000 0.000000 0
0.000000 0.000000 0
0.000000 0.000131 0
-0.000097 0.000374 0
-0.000283 0.000500 0
-0.000492 0.000474 0
-0.000686 0.000383 0
-0.000849 0.000285 0
-0.000978 0.000204 0
-0.001078 0.000146 0
-0.001156 0.000108 0
-0.001218 0.000083 0
-0.001269 0.000067 0
-0.001312 0.000057 0
-0.001349 0.000050 0
-0.001382 0.000044 0
-0.001411 0.000040 0
-0.001438 0.000036 0
-0.001462 0.000033 0
-0.001484 0.000030 0
-0.001504 0.000027 0
-0.001523 0.000025 0
-0.001539 0.000023 0
-0.001555 0.000021 0
-0.001569 0.000020 0
-0.001582 0.000018 0
-0.001594 0.000017 0
-0.001606 0.000016 0
-0.001616 0.000015 0
-0.001626 0.000014 0
-0.001635 0.000013 0
-0.001643 0.000012 0
-0.001651 0.000011 0
-0.001658 0.000010 0
-0.001664 0.000010 0
-0.001670 0.000010 0
-0.001676 0.000009 0
-0.001682 0.000009 0
-0.001687 0.000008 0
-0.001691 0.000007 0
-0.001694 0.000004 0
-0.001695 -0.000001 0
-0.001693 -0.000008 0
-0.001687 -0.000016 0
-0.001678 -0.000025 0
-0.001667 -0.000030 0
-0.001654 -0.000027 0
-0.001646 -0.000012 0
-0.001649 0.000021 0
-0.001670 0.000074 0
-0.001717 0.000141 0
-0.001792 0.000210 0
-0.001890 0.000258 0
-0.001990 0.000251 0
-0.002058 0.000150 0
-0.002042 -0.000081 0
-0.001883 -0.000452 0
-0.001536 -0.000910 0
-0.001002 -0.001275 0
-0.000392 -0.001174 0
0.000000 -0.000473 0
0.000000 0.001431 0
-0.000402 0.002603 0
-0.001030 0.001666 0
-0.001508 0.000560 0
-0.001769 -0.000060 0
-0.001866 -0.000320 0
-0.001864 -0.000397 0
-0.001812 -0.000395 0
-0.001736 -0.000365 0
-0.001652 -0.000329 0
-0.001566 -0.000295 0
-0.001482 -0.000266 0
-0.001402 -0.000242 0
-0.001325 -0.000222 0
-0.001251 -0.000206 0
-0.001181 -0.000193 0
-0.001113 -0.000182 0
-0.001048 -0.000173 0
-0.000985 -0.000165 0
-0.000924 -0.000158 0
-0.000864 -0.000153 0
-0.000806 -0.000147 0
-0.000750 -0.000143 0
-0.000694 -0.000138 0
-0.000640 -0.000134 0
-0.000587 -0.000130 0
-0.000534 -0.000127 0
-0.000483 -0.000125 0
-0.000431 -0.000125 0
-0.000379 -0.000129 0
-0.000325 -0.000137 0
-0.000268 -0.000148 0
-0.000207 -0.000160 0
-0.000144 -0.000166 0
-0.000081 -0.000153 0
-0.000027 -0.000103 0
0.000000 -0.000033 0
0.000000 0.000000 0
0.000000 0.000000 0
0.000000 0.000000 0
0.000000 0.000174 0
-0.000074 0.000505 0
-0.000226 0.000687 0
-0.000407 0.000670 0
-0.000585 0.000563 0
-0.000743 0.000436 0
-0.000875 0.000326 0
-0.000984 0.000243 0
-0.001072 0.000185 0
-0.001146 0.000147 0
-0.001208 0.000121 0
-0.001262 0.000103 0
-0.001310 0.000090 0
-0.001353 0.000081 0
-0.001392 0.000072 0
-0.001428 0.000066 0
-0.001460 0.000060 0
-0.001490 0.000054 0
-0.001517 0.000050 0
-0.001542 0.000046 0
-0.001564 0.000042 0
-0.001585 0.000038 0
-0.001604 0.000036 0
-0.001622 0.000033 0
-0.001638 0.000031 0
-0.001654 0.000028 0
-0.001668 0.000026 0
-0.001681 0.000024 0
-0.001693 0.000023 0
-0.001704 0.000021 0
-0.001715 0.000019 0
-0.001725 0.000018 0
-0.001734 0.000017 0
-0.001742 0.000016 0
-0.001750 0.000016 0
-0.001758 0.000015 0
-0.001765 0.000013 0
-0.001771 0.000011 0
-0.001776 0.000006 0
-0.001778 -0.000001 0
-0.001779 -0.000011 0
-0.001776 -0.000023 0
-0.001770 -0.000034 0
-0.001761 -0.000041 0
-0.001752 -0.000037 0
-0.001747 -0.000014 0
-0.001751 0.000034 0
-0.001772 0.000107 0
-0.001816 0.000201 0
-0.001885 0.000294 0
-0.001973 0.000352 0
-0.002060 0.000328 0
-0.002111 0.000164 0
-0.002074 -0.000183 0
-0.001894 -0.000723 0
-0.001528 -0.001367 0
-0.000986 -0.001857 0
-0.000380 -0.001678 0
0.000000 -0.000668 0
0.000000 0.001600 0
-0.000295 0.003064 0
-0.000833 0.002196 0
-0.001292 0.000942 0
-0.001581 0.000147 0
-0.001723 -0.000243 0
-0.001766 -0.000399 0
-0.001751 -0.000440 0
-0.001704 -0.000431 0
-0.001642 -0.000404 0
-0.001573 -0.000373 0
-0.001502 -0.000344 0
-0.001431 -0.000318 0
-0.001360 -0.000296 0
-0.001291 -0.000277 0
-0.001224 -0.000262 0
-0.001158 -0.000249 0
-0.001093 -0.000238 0
-0.001030 -0.000228 0
-0.000968 -0.000220 0
-0.000908 -0.000213 0
-0.000848 -0.000207 0
-0.000789 -0.000201 0
-0.000731 -0.000195 0
-0.000674 -0.000190 0
-0.000618 -0.000185 0
-0.000563 -0.000181 0
-0.000507 -0.000179 0
-0.000452 -0.000180 0
-0.000397 -0.000185 0
-0.000339 -0.000195 0
-0.000279 -0.000209 0
-0.000216 -0.000224 0
-0.000149 -0.000231 0
-0.000084 -0.000213 0
-0.000028 -0.000145 0
0.000000 -0.000047 0
0.000000 0.000000 0
0.000000 0.000000 0
0.000000 0.000000 0
0.000000 0.000204 0
-0.000046 0.000600 0
-0.000151 0.000832 0
-0.000286 0.000832 0
-0.000428 0.000719 0
-0.000562 0.000575 0
-0.000681 0.000445 0
-0.000784 0.000343 0
-0.000872 0.000269 0
-0.000948 0.000219 0
-0.001015 0.000184 0
-0.001075 0.000159 0
-0.001131 0.000140 0
-0.001181 0.000126 0
-0.001228 0.000114 0
-0.001271 0.000104 0
-0.001311 0.000094 0
-0.001348 0.000086 0
-0.001382 0.000079 0
-0.001413 0.000072 0
-0.001442 0.000066 0
-0.001468 0.000061 0
-0.001492 0.000056 0
-0.001514 0.000052 0
-0.001534 0.000048 0
-0.001554 0.000045 0
-0.001572 0.000042 0
-0.001588 0.000039 0
-0.001604 0.000036 0
-0.001619 0.000033 0
-0.001633 0.000031 0
-0.001646 0.000029 0
-0.001659 0.000027 0
-0.001671 0.000026 0
-0.001682 0.000025 0
-0.001692 0.000023 0
-0.001702 0.000021 0
-0.001711 0.000017 0
-0.001720 0.000011 0
-0.001727 0.000002 0
-0.001732 -0.000011 0
-0.001734 -0.000025 0
-0.001734 -0.000040 0
-0.001731 -0.000048 0
-0.001728 -0.000042 0
-0.001727 -0.000013 0
-0.001734 0.000046 0
-0.001754 0.000138 0
-0.001793 0.000254 0
-0.001852 0.000367 0
-0.001927 0.000433 0
-0.002000 0.000389 0
-0.002036 0.000164 0
-0.001989 -0.000298 0
-0.001806 -0.000999 0
-0.001450 -0.001818 0
-0.000930 -0.002423 0
-0.000356 -0.002160 0
0.000000 -0.000853 0
0.000000 0.001726 0
-0.000221 0.003437 0
-0.000675 0.002663 0
-0.001093 0.001308 0
-0.001377 0.000371 0
-0.001534 -0.000135 0
-0.001601 -0.000368 0
-0.001610 -0.000456 0
-0.001587 -0.000473 0
-0.001545 -0.000459 0
-0.001494 -0.000435 0
-0.001437 -0.000408 0
-0.001379 -0.000383 0
-0.001318 -0.000361 0
-0.001258 -0.000342 0
-0.001197 -0.000326 0
-0.001137 -0.000312 0
-0.001077 -0.000300 0
-0.001018 -0.000290 0
-0.000959 -0.000281 0
-0.000900 -0.000273 0
-0.000842 -0.000266 0
-0.000785 -0.000259 0
-0.000728 -0.000253 0
-0.000672 -0.000247 0
-0.000616 -0.000242 0
-0.000560 -0.000237 0
-0.000505 -0.000235 0
-0.000449 -0.000236 0
-0.000393 -0.000242 0
-0.000335 -0.000254 0
-0.000275 -0.000271 0
-0.000212 -0.000289 0
-0.000147 -0.000297 0
-0.000082 -0.000274 0
-0.000027 -0.000187 0
0.000000 -0.000061 0
0.000000 0.000000 0
0.000000 0.000000 0
0.000000 0.000000 0
0.000000 0.000220 0
-0.000020 0.000655 0
-0.000076 0.000927 0
-0.000158 0.000947 0
-0.000254 0.000838 0
-0.000352 0.000688 0
-0.000445 0.000547 0
-0.000530 0.000433 0
-0.000607 0.000349 0
-0.000677 0.000290 0
-0.000743 0.000249 0
-0.000804 0.000219 0
-0.000862 0.000196 0
-0.000916 0.000178 0
-0.000969 0.000162 0
-0.001018 0.000149 0
-0.001064 0.000136 0
-0.001107 0.000125 0
-0.001148 0.000115 0
-0.001185 0.000105 0
-0.001219 0.000096 0
-0.001251 0.000088 0
-0.001280 0.000082 0
-0.001306 0.000075 0
-0.001331 0.000070 0
-0.001354 0.000065 0
-0.001376 0.000061 0
-0.001396 0.000057 0
-0.001416 0.000053 0
-0.001435 0.000050 0
-0.001453 0.000046 0
-0.001470 0.000044 0
-0.001487 0.000041 0
-0.001502 0.000039 0
-0.001517 0.000037 0
-0.001532 0.000035 0
-0.001546 0.000032 0
-0.001559 0.000028 0
-0.001572 0.000021 0
-0.001585 0.000011 0
-0.001596 -0.000004 0
-0.001606 -0.000021 0
-0.001614 -0.000037 0
-0.001619 -0.000047 0
-0.001624 -0.000041 0
-0.001629 -0.000008 0
-0.001639 0.000060 0
-0.001658 0.000166 0
-0.001692 0.000299 0
-0.001741 0.000428 0
-0.001802 0.000500 0
-0.001861 0.000436 0
-0.001886 0.000154 0
-0.001837 -0.000414 0
-0.001664 -0.001263 0
-0.001334 -0.002243 0
-0.000855 -0.002951 0
-0.000326 -0.002608 0
0.000000 -0.001024 0
0.000000 0.001822 0
-0.000169 0.003740 0
-0.000551 0.003068 0
-0.000921 0.001644 0
-0.001184 0.000589 0
-0.001337 -0.000019 0
-0.001410 -0.000323 0
-0.001431 -0.000454 0
-0.001421 -0.000496 0
-0.001395 -0.000497 0
-0.001358 -0.000480 0
-0.001316 -0.000459 0
-0.001270 -0.000437 0
-0.001222 -0.000416 0
-0.001171 -0.000398 0
-0.001120 -0.000383 0
-0.001067 -0.000369 0
-0.001015 -0.000357 0
-0.000961 -0.000346 0
-0.000908 -0.000337 0
-0.000854 -0.000329 0
-0.000800 -0.000322 0
-0.000747 -0.000315 0
-0.000693 -0.000308 0
-0.000640 -0.000302 0
-0.000586 -0.000297 0
-0.000533 -0.000292 0
-0.000480 -0.000290 0
-0.000427 -0.000291 0
-0.000373 -0.000298 0
-0.000317 -0.000312 0
-0.000260 -0.000332 0
-0.000200 -0.000353 0
-0.000138 -0.000361 0
-0.000077 -0.000332 0
-0.000025 -0.000227 0
0.000000 -0.000075 0
0.000000 0.000000 0
0.000000 0.000000 0
0.000000 0.000000 0
0.000000 0.000224 0
0.000002 0.000675 0
-0.000010 0.000970 0
-0.000040 0.001010 0
-0.000086 0.000912 0
-0.000141 0.000766 0
-0.000201 0.000622 0
-0.000261 0.000505 0
-0.000320 0.000417 0
-0.000378 0.000354 0
-0.000435 0.000310 0
-0.000491 0.000278 0
-0.000547 0.000253 0
-0.000602 0.000233 0
-0.000656 0.000215 0
-0.000709 0.000199 0
-0.000760 0.000184 0
-0.000809 0.000170 0
-0.000855 0.000156 0
-0.000898 0.000144 0
-0.000938 0.000132 0
-0.000975 0.000121 0
-0.001009 0.000112 0
-0.001040 0.000103 0
-0.001069 0.000096 0
-0.001095 0.000089 0
-0.001121 0.000084 0
-0.001145 0.000079 0
-0.001168 0.000074 0
-0.001191 0.000070 0
-0.001213 0.000066 0
-0.001234 0.000062 0
-0.001255 0.000059 0
-0.001275 0.000056 0
-0.001295 0.000054 0
-0.001314 0.000051 0
-0.001333 0.000048 0
-0.001351 0.000044 0
-0.001370 0.000037 0
-0.001388 0.000026 0
-0.001407 0.000010 0
-0.001425 -0.000008 0
-0.001441 -0.000026 0
-0.001456 -0.000038 0
-0.001469 -0.000032 0
-0.001482 0.000002 0
-0.001496 0.000075 0
-0.001516 0.000190 0
-0.001544 0.000336 0
-0.001583 0.000478 0
-0.001631 0.000552 0
-0.001676 0.000472 0
-0.001693 0.000139 0
-0.001646 -0.000521 0
-0.001493 -0.001502 0
-0.001200 -0.002627 0
-0.000772 -0.003431 0
-0.000296 -0.003016 0
0.000000 -0.001180 0
0.000000 0.001896 0
-0.000131 0.003988 0
-0.000454 0.003416 0
-0.000778 0.001942 0
-0.001013 0.000787 0
-0.001151 0.000091 0
-0.001218 -0.000275 0
-0.001240 -0.000444 0
-0.001236 -0.000509 0
-0.001219 -0.000522 0
-0.001193 -0.000513 0
-0.001162 -0.000496 0
-0.001128 -0.000478 0
-0.001090 -0.000460 0
-0.001050 -0.000444 0
-0.001008 -0.000430 0
-0.000965 -0.000417 0
-0.000920 -0.000406 0
-0.000874 -0.000396 0
-0.000827 -0.000388 0
-0.000780 -0.000380 0
-0.000732 -0.000373 0
-0.000683 -0.000366 0
-0.000635 -0.000360 0
-0.000586 -0.000354 0
-0.000537 -0.000348 0
-0.000488 -0.000343 0
-0.000439 -0.000341 0
-0.000389 -0.000343 0
-0.000340 -0.000351 0
-0.000289 -0.000366 0
-0.000236 -0.000388 0
-0.000181 -0.000411 0
-0.000124 -0.000420 0
-0.000069 -0.000386 0
-0.000023 -0.000263 0
0.000000 -0.000087 0
0.000000 0.000000 0
0.000000 0.000000 0
0.000000 0.000000 0
0.000000 0.000218 0
0.000018 0.000665 0
0.000044 0.000968 0
0.000061 0.001023 0
0.000063 0.000940 0
0.000050 0.000804 0
0.000026 0.000666 0
-0.000005 0.000552 0
-0.000041 0.000466 0
-0.000081 0.000405 0
-0.000125 0.000362 0
-0.000171 0.000331 0
-0.000220 0.000307 0
-0.000271 0.000287 0
-0.000324 0.000269 0
-0.000377 0.000252 0
-0.000431 0.000236 0
-0.000483 0.000220 0
-0.000535 0.000204 0
-0.000584 0.000188 0
-0.000630 0.000173 0
-0.000673 0.000159 0
-0.000712 0.000146 0
-0.000747 0.000135 0
-0.000780 0.000125 0
-0.000810 0.000117 0
-0.000838 0.000110 0
-0.000865 0.000104 0
-0.000892 0.000099 0
-0.000918 0.000094 0
-0.000944 0.000090 0
-0.000969 0.000086 0
-0.000994 0.000082 0
-0.001019 0.000079 0
-0.001043 0.000076 0
-0.001067 0.000073 0
-0.001091 0.000070 0
-0.001115 0.000065 0
-0.001139 0.000058 0
-0.001164 0.000047 0
-0.001189 0.000032 0
-0.001214 0.000013 0
-0.001240 -0.000006 0
-0.001264 -0.000019 0
-0.001286 -0.000015 0
-0.001307 0.000019 0
-0.001326 0.000093 0
-0.001346 0.000213 0
-0.001370 0.000366 0
-0.001400 0.000516 0
-0.001435 0.000592 0
-0.001468 0.000498 0
-0.001479 0.000124 0
-0.001438 -0.000614 0
-0.001308 -0.001709 0
-0.001058 -0.002964 0
-0.000685 -0.003855 0
-0.000265 -0.003380 0
0.000000 -0.001320 0
0.000000 0.001954 0
-0.000102 0.004194 0
-0.000376 0.003715 0
-0.000659 0.002203 0
-0.000865 0.000962 0
-0.000984 0.000187 0
-0.001040 -0.000234 0
-0.001056 -0.000435 0
-0.001052 -0.000517 0
-0.001037 -0.000540 0
-0.001018 -0.000537 0
-0.000995 -0.000524 0
-0.000970 -0.000508 0
-0.000942 -0.000493 0
-0.000911 -0.000480 0
-0.000878 -0.000468 0
-0.000843 -0.000457 0
-0.000806 -0.000448 0
-0.000768 -0.000439 0
-0.000728 -0.000431 0
-0.000687 -0.000424 0
-0.000646 -0.000418 0
-0.000604 -0.000412 0
-0.000561 -0.000406 0
-0.000518 -0.000400 0
-0.000474 -0.000394 0
-0.000430 -0.000390 0
-0.000386 -0.000388 0
-0.000342 -0.000390 0
-0.000298 -0.000399 0
-0.000252 -0.000415 0
-0.000206 -0.000439 0
-0.000157 -0.000464 0
-0.000107 -0.000473 0
-0.000059 -0.000433 0
-0.000019 -0.000295 0
0.000000 -0.000097 0
0.000000 0.000000 0
0.000000 0.000000 0
0.000000 0.000000 0
0.000000 0.000205 0
0.000029 0.000631 0
0.000084 0.000927 0
0.000140 0.000991 0