# vtk DataFile Version 2.0
generated by CFD-lab course output (written by Tobias Neckel) 
ASCII

DATASET STRUCTURED_GRID
DIMENSIONS  99 49 1 
POINTS 4851 float

0.000000 0.000000 0
0.020000 0.000000 0
0.040000 0.000000 0
0.060000 0.000000 0
0.080000 0.000000 0
0.100000 0.000000 0
0.120000 0.000000 0
0.140000 0.000000 0
0.160000 0.000000 0
0.180000 0.000000 0
0.200000 0.000000 0
0.220000 0.000000 0
0.240000 0.000000 0
0.260000 0.000000 0
0.280000 0.000000 0
0.300000 0.000000 0
0.320000 0.000000 0
0.340000 0.000000 0
0.360000 0.000000 0
0.380000 0.000000 0
0.400000 0.000000 0
0.420000 0.000000 0
0.440000 0.000000 0
0.460000 0.000000 0
0.480000 0.000000 0
0.500000 0.000000 0
0.520000 0.000000 0
0.540000 0.000000 0
0.560000 0.000000 0
0.580000 0.000000 0
0.600000 0.000000 0
0.620000 0.000000 0
0.640000 0.000000 0
0.660000 0.000000 0
0.680000 0.000000 0
0.700000 0.000000 0
0.720000 0.000000 0
0.740000 0.000000 0
0.760000 0.000000 0
0.780000 0.000000 0
0.800000 0.000000 0
0.820000 0.000000 0
0.840000 0.000000 0
0.860000 0.000000 0
0.880000 0.000000 0
0.900000 0.000000 0
0.920000 0.000000 0
0.940000 0.000000 0
0.960000 0.000000 0
0.980000 0.000000 0
1.000000 0.000000 0
1.020000 0.000000 0
1.040000 0.000000 0
1.060000 0.000000 0
1.080000 0.000000 0
1.100000 0.000000 0
1.120000 0.000000 0
1.140000 0.000000 0
1.160000 0.000000 0
1.180000 0.000000 0
1.200000 0.000000 0
1.220000 0.000000 0
1.240000 0.000000 0
1.260000 0.000000 0
1.280000 0.000000 0
1.300000 0.000000 0
1.320000 0.000000 0
1.340000 0.000000 0
1.360000 0.000000 0
1.380000 0.000000 0
1.400000 0.000000 0
1.420000 0.000000 0
1.440000 0.000000 0
1.460000 0.000000 0
1.480000 0.000000 0
1.500000 0.000000 0
1.520000 0.000000 0
1.540000 0.000000 0
1.560000 0.000000 0
1.580000 0.000000 0
1.600000 0.000000 0
1.620000 0.000000 0
1.640000 0.000000 0
1.660000 0.000000 0
1.680000 0.000000 0
1.700000 0.000000 0
1.720000 0.000000 0
1.740000 0.000000 0
1.760000 0.000000 0
1.780000 0.000000 0
1.800000 0.000000 0
1.820000 0.000000 0
1.840000 0.000000 0
1.860000 0.000000 0
1.880000 0.000000 0
1.900000 0.000000 0
1.920000 0.000000 0
1.940000 0.000000 0
1.960000 0.000000 0
0.000000 0.020000 0
0.020000 0.020000 0
0.040000 0.020000 0
0.060000 0.020000 0
0.080000 0.020000 0
0.100000 0.020000 0
0.120000 0.020000 0
0.140000 0.020000 0
0.160000 0.020000 0
0.180000 0.020000 0
0.200000 0.020000 0
0.220000 0.020000 0
0.240000 0.020000 0
0.260000 0.020000 0
0.280000 0.020000 0
0.300000 0.020000 0
0.320000 0.020000 0
0.340000 0.020000 0
0.360000 0.020000 0
0.380000 0.020000 0
0.400000 0.020000 0
0.420000 0.020000 0
0.440000 0.020000 0
0.460000 0.020000 0
0.480000 0.020000 0
0.500000 0.020000 0
0.520000 0.020000 0
0.540000 0.020000 0
0.560000 0.020000 0
0.580000 0.020000 0
0.600000 0.020000 0
0.620000 0.020000 0
0.640000 0.020000 0
0.660000 0.020000 0
0.680000 0.020000 0
0.700000 0.020000 0
0.720000 0.020000 0
0.740000 0.020000 0
0.760000 0.020000 0
0.780000 0.020000 0
0.800000 0.020000 0
0.820000 0.020000 0
0.840000 0.020000 0
0.860000 0.020000 0
0.880000 0.020000 0
0.900000 0.020000 0
0.920000 0.020000 0
0.940000 0.020000 0
0.960000 0.020000 0
0.980000 0.020000 0
1.000000 0.020000 0
1.020000 0.020000 0
1.040000 0.020000 0
1.060000 0.020000 0
1.080000 0.020000 0
1.100000 0.020000 0
1.120000 0.020000 0
1.140000 0.020000 0
1.160000 0.020000 0
1.180000 0.020000 0
1.200000 0.020000 0
1.220000 0.020000 0
1.240000 0.020000 0
1.260000 0.020000 0
1.280000 0.020000 0
1.300000 0.020000 0
1.320000 0.020000 0
1.340000 0.020000 0
1.360000 0.020000 0
1.380000 0.020000 0
1.400000 0.020000 0
1.420000 0.020000 0
1.440000 0.020000 0
1.460000 0.020000 0
1.480000 0.020000 0
1.500000 0.020000 0
1.520000 0.020000 0
1.540000 0.020000 0
1.560000 0.020000 0
1.580000 0.020000 0
1.600000 0.020000 0
1.620000 0.020000 0
1.640000 0.020000 0
1.660000 0.020000 0
1.680000 0.020000 0
1.700000 0.020000 0
1.720000 0.020000 0
1.740000 0.020000 0
1.760000 0.020000 0
1.780000 0.020000 0
1.800000 0.020000 0
1.820000 0.020000 0
1.840000 0.020000 0
1.860000 0.020000 0
1.880000 0.020000 0
1.900000 0.020000 0
1.920000 0.020000 0
1.940000 0.020000 0
1.960000 0.020000 0
0.000000 0.040000 0
0.020000 0.040000 0
0.040000 0.040000 0
0.060000 0.040000 0
0.080000 0.040000 0
0.100000 0.040000 0
0.120000 0.040000 0
0.140000 0.040000 0
0.160000 0.040000 0
0.180000 0.040000 0
0.200000 0.040000 0
0.220000 0.040000 0
0.240000 0.040000 0
0.260000 0.040000 0
0.280000 0.040000 0
0.300000 0.040000 0
0.320000 0.040000 0
0.340000 0.040000 0
0.360000 0.040000 0
0.380000 0.040000 0
0.400000 0.040000 0
0.420000 0.040000 0
0.440000 0.040000 0
0.460000 0.040000 0
0.480000 0.040000 0
0.500000 0.040000 0
0.520000 0.040000 0
0.540000 0.040000 0
0.560000 0.040000 0
0.580000 0.040000 0
0.600000 0.040000 0
0.620000 0.040000 0
0.640000 0.040000 0
0.660000 0.040000 0
0.680000 0.040000 0
0.700000 0.040000 0
0.720000 0.040000 0
0.740000 0.040000 0
0.760000 0.040000 0
0.780000 0.040000 0
0.800000 0.040000 0
0.820000 0.040000 0
0.840000 0.040000 0
0.860000 0.040000 0
0.880000 0.040000 0
0.900000 0.040000 0
0.920000 0.040000 0
0.940000 0.040000 0
0.960000 0.040000 0
0.980000 0.040000 0
1.000000 0.040000 0
1.020000 0.040000 0
1.040000 0.040000 0
1.060000 0.040000 0
1.080000 0.040000 0
1.100000 0.040000 0
1.120000 0.040000 0
1.140000 0.040000 0
1.160000 0.040000 0
1.180000 0.040000 0
1.200000 0.040000 0
1.220000 0.040000 0
1.240000 0.040000 0
1.260000 0.040000 0
1.280000 0.040000 0
1.300000 0.040000 0
1.320000 0.040000 0
1.340000 0.040000 0
1.360000 0.040000 0
1.380000 0.040000 0
1.400000 0.040000 0
1.420000 0.040000 0
1.440000 0.040000 0
1.460000 0.040000 0
1.480000 0.040000 0
1.500000 0.040000 0
1.520000 0.040000 0
1.540000 0.040000 0
1.560000 0.040000 0
1.580000 0.040000 0
1.600000 0.040000 0
1.620000 0.040000 0
1.640000 0.040000 0
1.660000 0.040000 0
1.680000 0.040000 0
1.700000 0.040000 0
1.720000 0.040000 0
1.740000 0.040000 0
1.760000 0.040000 0
1.780000 0.040000 0
1.800000 0.040000 0
1.820000 0.040000 0
1.840000 0.040000 0
1.860000 0.040000 0
1.880000 0.040000 0
1.900000 0.040000 0
1.920000 0.040000 0
1.940000 0.040000 0
1.960000 0.040000 0
0.000000 0.060000 0
0.020000 0.060000 0
0.040000 0.060000 0
0.060000 0.060000 0
0.080000 0.060000 0
0.100000 0.060000 0
0.120000 0.060000 0
0.140000 0.060000 0
0.160000 0.060000 0
0.180000 0.060000 0
0.200000 0.060000 0
0.220000 0.060000 0
0.240000 0.060000 0
0.260000 0.060000 0
0.280000 0.060000 0
0.300000 0.060000 0
0.320000 0.060000 0
0.340000 0.060000 0
0.360000 0.060000 0
0.380000 0.060000 0
0.400000 0.060000 0
0.420000 0.060000 0
0.440000 0.060000 0
0.460000 0.060000 0
0.480000 0.060000 0
0.500000 0.060000 0
0.520000 0.060000 0
0.540000 0.060000 0
0.560000 0.060000 0
0.580000 0.060000 0
0.600000 0.060000 0
0.620000 0.060000 0
0.640000 0.060000 0
0.660000 0.060000 0
0.680000 0.060000 0
0.700000 0.060000 0
0.720000 0.060000 0
0.740000 0.060000 0
0.760000 0.060000 0
0.780000 0.060000 0
0.800000 0.060000 0
0.820000 0.060000 0
0.840000 0.060000 0
0.860000 0.060000 0
0.880000 0.060000 0
0.900000 0.060000 0
0.920000 0.060000 0
0.940000 0.060000 0
0.960000 0.060000 0
0.980000 0.060000 0
1.000000 0.060000 0
1.020000 0.060000 0
1.040000 0.060000 0
1.060000 0.060000 0
1.080000 0.060000 0
1.100000 0.060000 0
1.120000 0.060000 0
1.140000 0.060000 0
1.160000 0.060000 0
1.180000 0.060000 0
1.200000 0.060000 0
1.220000 0.060000 0
1.240000 0.060000 0
1.260000 0.060000 0
1.280000 0.060000 0
1.300000 0.060000 0
1.320000 0.060000 0
1.340000 0.060000 0
1.360000 0.060000 0
1.380000 0.060000 0
1.400000 0.060000 0
1.420000 0.060000 0
1.440000 0.060000 0
1.460000 0.060000 0
1.480000 0.060000 0
1.500000 0.060000 0
1.520000 0.060000 0
1.540000 0.060000 0
1.560000 0.060000 0
1.580000 0.060000 0
1.600000 0.060000 0
1.620000 0.060000 0
1.640000 0.060000 0
1.660000 0.060000 0
1.680000 0.060000 0
1.700000 0.060000 0
1.720000 0.060000 0
1.740000 0.060000 0
1.760000 0.060000 0
1.780000 0.060000 0
1.800000 0.060000 0
1.820000 0.060000 0
1.840000 0.060000 0
1.860000 0.060000 0
1.880000 0.060000 0
1.900000 0.060000 0
1.920000 0.060000 0
1.940000 0.060000 0
1.960000 0.060000 0
0.000000 0.080000 0
0.020000 0.080000 0
0.040000 0.080000 0
0.060000 0.080000 0
0.080000 0.080000 0
0.100000 0.080000 0
0.120000 0.080000 0
0.140000 0.080000 0
0.160000 0.080000 0
0.180000 0.080000 0
0.200000 0.080000 0
0.220000 0.080000 0
0.240000 0.080000 0
0.260000 0.080000 0
0.280000 0.080000 0
0.300000 0.080000 0
0.320000 0.080000 0
0.340000 0.080000 0
0.360000 0.080000 0
0.380000 0.080000 0
0.400000 0.080000 0
0.420000 0.080000 0
0.440000 0.080000 0
0.460000 0.080000 0
0.480000 0.080000 0
0.500000 0.080000 0
0.520000 0.080000 0
0.540000 0.080000 0
0.560000 0.080000 0
0.580000 0.080000 0
0.600000 0.080000 0
0.620000 0.080000 0
0.640000 0.080000 0
0.660000 0.080000 0
0.680000 0.080000 0
0.700000 0.080000 0
0.720000 0.080000 0
0.740000 0.080000 0
0.760000 0.080000 0
0.780000 0.080000 0
0.800000 0.080000 0
0.820000 0.080000 0
0.840000 0.080000 0
0.860000 0.080000 0
0.880000 0.080000 0
0.900000 0.080000 0
0.920000 0.080000 0
0.940000 0.080000 0
0.960000 0.080000 0
0.980000 0.080000 0
1.000000 0.080000 0
1.020000 0.080000 0
1.040000 0.080000 0
1.060000 0.080000 0
1.080000 0.080000 0
1.100000 0.080000 0
1.120000 0.080000 0
1.140000 0.080000 0
1.160000 0.080000 0
1.180000 0.080000 0
1.200000 0.080000 0
1.220000 0.080000 0
1.240000 0.080000 0
1.260000 0.080000 0
1.280000 0.080000 0
1.300000 0.080000 0
1.320000 0.080000 0
1.340000 0.080000 0
1.360000 0.080000 0
1.380000 0.080000 0
1.400000 0.080000 0
1.420000 0.080000 0
1.440000 0.080000 0
1.460000 0.080000 0
1.480000 0.080000 0
1.500000 0.080000 0
1.520000 0.080000 0
1.540000 0.080000 0
1.560000 0.080000 0
1.580000 0.080000 0
1.600000 0.080000 0
1.620000 0.080000 0
1.640000 0.080000 0
1.660000 0.080000 0
1.680000 0.080000 0
1.700000 0.080000 0
1.720000 0.080000 0
1.740000 0.080000 0
1.760000 0.080000 0
1.780000 0.080000 0
1.800000 0.080000 0
1.820000 0.080000 0
1.840000 0.080000 0
1.860000 0.080000 0
1.880000 0.080000 0
[...]
POINT_DATA 4851 

VECTORS velocity float
0.000000 0.000000 0
-0.000451 0.000000 0
-0.000590 0.000000 0
-0.000538 0.000000 0
-0.000449 0.000000 0
-0.000373 0.000000 0
-0.000315 0.000000 0
-0.000272 0.000000 0
-0.000240 0.000000 0
-0.000216 0.000000 0
-0.000196 0.000000 0
-0.000180 0.000000 0
-0.000166 0.000000 0
-0.000154 0.000000 0
-0.000143 0.000000 0
-0.000134 0.000000 0
-0.000125 0.000000 0
-0.000117 0.000000 0
-0.000109 0.000000 0
-0.000102 0.000000 0
-0.000095 0.000000 0
-0.000089 0.000000 0
-0.000083 0.000000 0
-0.000077 0.000000 0
-0.000071 0.000000 0
-0.000066 0.000000 0
-0.000061 0.000000 0
-0.000056 0.000000 0
-0.000051 0.000000 0
-0.000045 0.000000 0
-0.000039 0.000000 0
-0.000032 0.000000 0
-0.000024 0.000000 0
-0.000015 0.000000 0
-0.000007 0.000000 0
-0.000001 0.000000 0
0.000000 0.000000 0
0.000000 0.000000 0
0.000000 0.000000 0
0.000000 0.000000 0
0.000000 0.000000 0
-0.000033 0.000000 0
-0.000095 0.000000 0
-0.000153 0.000000 0
-0.000195 0.000000 0
-0.000222 0.000000 0
-0.000238 0.000000 0
-0.000247 0.000000 0
-0.000254 0.000000 0
-0.000258 0.000000 0
-0.000262 0.000000 0
-0.000265 0.000000 0
-0.000268 0.000000 0
-0.000271 0.000000 0
-0.000273 0.000000 0
-0.000275 0.000000 0
-0.000278 0.000000 0
-0.000279 0.000000 0
-0.000281 0.000000 0
-0.000283 0.000000 0
-0.000284 0.000000 0
-0.000286 0.000000 0
-0.000287 0.000000 0
-0.000288 0.000000 0
-0.000289 0.000000 0
-0.000290 0.000000 0
-0.000291 0.000000 0
-0.000292 0.000000 0
-0.000292 0.000000 0
-0.000293 0.000000 0
-0.000294 0.000000 0
-0.000294 0.000000 0
-0.000295 0.000000 0
-0.000295 0.000000 0
-0.000296 0.000000 0
-0.000297 0.000000 0
-0.000298 0.000000 0
-0.000299 0.000000 0
-0.000300 0.000000 0
-0.000301 0.000000 0
-0.000301 0.000000 0
-0.000300 0.000000 0
-0.000298 0.000000 0
-0.000295 0.000000 0
-0.000290 0.000000 0
-0.000286 0.000000 0
-0.000284 0.000000 0
-0.000286 0.000000 0
-0.000295 0.000000 0
-0.000315 0.000000 0
-0.000345 0.000000 0
-0.000383 0.000000 0
-0.000424 0.000000 0
-0.000453 0.000000 0
-0.000454 0.000000 0
-0.000403 0.000000 0
-0.000285 0.000000 0
-0.000120 0.000000 0
0.000000 0.000000 0
0.000000 0.000451 0
-0.000901 0.000591 0
-0.001380 0.000088 0
-0.001432 -0.000140 0
-0.001317 -0.000165 0
-0.001170 -0.000134 0
-0.001035 -0.000100 0
-0.000922 -0.000074 0
-0.000830 -0.000056 0
-0.000754 -0.000044 0
-0.000691 -0.000035 0
-0.000637 -0.000029 0
-0.000591 -0.000025 0
-0.000550 -0.000022 0
-0.000513 -0.000020 0
-0.000479 -0.000018 0
-0.000448 -0.000016 0
-0.000419 -0.000015 0
-0.000392 -0.000014 0
-0.000367 -0.000013 0
-0.000343 -0.000013 0
-0.000320 -0.000012 0
-0.000298 -0.000011 0
-0.000277 -0.000011 0
-0.000257 -0.000010 0
-0.000238 -0.000010 0
-0.000219 -0.000010 0
-0.000200 -0.000010 0
-0.000180 -0.000010 0
-0.000159 -0.000011 0
-0.000137 -0.000013 0
-0.000111 -0.000015 0
-0.000083 -0.000016 0
-0.000054 -0.000016 0
-0.000027 -0.000013 0
-0.000007 -0.000006 0
0.000000 -0.000001 0
0.000000 0.000000 0
0.000000 0.000000 0
0.000000 0.000000 0
0.000000 0.000033 0
-0.000094 0.000094 0
-0.000264 0.000119 0
-0.000432 0.000100 0
-0.000565 0.000069 0
-0.000658 0.000042 0
-0.000721 0.000025 0
-0.000763 0.000015 0
-0.000792 0.000010 0
-0.000815 0.000008 0
-0.000832 0.000007 0
-0.000847 0.000006 0
-0.000861 0.000005 0
-0.000872 0.000005 0
-0.000883 0.000004 0
-0.000893 0.000004 0
-0.000901 0.000003 0
-0.000909 0.000003 0
-0.000917 0.000003 0
-0.000923 0.000003 0
-0.000929 0.000002 0
-0.000935 0.000002 0
-0.000940 0.000002 0
-0.000944 0.000002 0
-0.000948 0.000002 0
-0.000952 0.000001 0
-0.000956 0.000001 0
-0.000959 0.000001 0
-0.000962 0.000001 0
-0.000965 0.000001 0
-0.000967 0.000001 0
-0.000969 0.000001 0
-0.000971 0.000001 0
-0.000974 0.000001 0
-0.000976 0.000001 0
-0.000979 0.000001 0
-0.000981 0.000001 0
-0.000984 0.000001 0
-0.000986 0.000001 0
-0.000987 0.000000 0
-0.000986 -0.000001 0
-0.000983 -0.000003 0
-0.000976 -0.000006 0
-0.000965 -0.000008 0
-0.000953 -0.000009 0
-0.000941 -0.000007 0
-0.000937 -0.000001 0
-0.000946 0.000011 0
-0.000978 0.000028 0
-0.001037 0.000049 0
-0.001123 0.000068 0
-0.001227 0.000079 0
-0.001326 0.000070 0
-0.001382 0.000030 0
-0.001344 -0.000051 0
-0.001157 -0.000169 0
-0.000797 -0.000283 0
-0.000330 -0.000286 0
0.000000 -0.000121 0
0.000000 0.000901 0
-0.000790 0.001382 0
-0.001513 0.000532 0
-0.001829 -0.000062 0
-0.001869 -0.000261 0
-0.001783 -0.000281 0
-0.001656 -0.000247 0
-0.001524 -0.000204 0
-0.001401 -0.000167 0
-0.001292 -0.000138 0
-0.001196 -0.000116 0
-0.001111 -0.000100 0
-0.001036 -0.000087 0
-0.000967 -0.000077 0
-0.000905 -0.000070 0
-0.000848 -0.000064 0
-0.000795 -0.000059 0
-0.000745 -0.000055 0
-0.000698 -0.000052 0
-0.000653 -0.000049 0
-0.000611 -0.000046 0
-0.000570 -0.000044 0
-0.000531 -0.000042 0
-0.000493 -0.000040 0
-0.000457 -0.000039 0
-0.000422 -0.000038 0
-0.000387 -0.000037 0
-0.000352 -0.000038 0
-0.000317 -0.000040 0
-0.000279 -0.000043 0
-0.000238 -0.000047 0
-0.000194 -0.000052 0
-0.000146 -0.000056 0
-0.000098 -0.000055 0
-0.000052 -0.000046 0
-0.000016 -0.000027 0
0.000000 -0.000007 0
0.000000 0.000000 0
0.000000 0.000000 0
0.000000 0.000000 0
0.000000 0.000094 0
-0.000124 0.000263 0
-0.000346 0.000337 0
-0.000580 0.000300 0
-0.000780 0.000226 0
-0.000935 0.000156 0
-0.001049 0.000104 0
-0.001131 0.000071 0
-0.001193 0.000051 0
-0.001240 0.000039 0
-0.001279 0.000032 0
-0.001311 0.000028 0
-0.001339 0.000024 0
-0.001364 0.000022 0
-0.001386 0.000020 0
-0.001406 0.000018 0
-0.001424 0.000016 0
-0.001440 0.000015 0
-0.001455 0.000013 0
-0.001468 0.000012 0
-0.001481 0.000011 0
-0.001492 0.000010 0
-0.001502 0.000009 0
-0.001512 0.000008 0
-0.001520 0.000007 0
-0.001528 0.000007 0
-0.001535 0.000006 0
-0.001542 0.000006 0
-0.001548 0.000005 0
-0.001553 0.000004 0
-0.001558 0.000004 0
-0.001563 0.000004 0
-0.001567 0.000004 0
-0.001571 0.000004 0
-0.001575 0.000004 0
-0.001579 0.000005 0
-0.001583 0.000005 0
-0.001587 0.000004 0
-0.001589 0.000003 0
-0.001590 -0.000000 0
-0.001588 -0.000005 0
-0.001581 -0.000011 0
-0.001570 -0.000018 0
-0.001554 -0.000024 0
-0.001536 -0.000025 0
-0.001522 -0.000017 0
-0.001518 0.000004 0
-0.001537 0.000041 0
-0.001586 0.000090 0
-0.001671 0.000145 0
-0.001790 0.000190 0
-0.001924 0.000203 0
-0.002035 0.000155 0
-0.002069 0.000017 0
-0.001957 -0.000226 0
-0.001635 -0.000547 0
-0.001094 -0.000828 0
-0.000441 -0.000798 0
0.000000 -0.000330 0
0.000000 0.001242 0
-0.000591 0.002104 0
-0.001331 0.001127 0
-0.001799 0.000216 0
-0.001993 -0.000210 0
-0.002016 -0.000347 0
-0.001952 -0.000359 0
-0.001851 -0.000328 0
-0.001740 -0.000287 0
-0.001629 -0.000249 0
-0.001526 -0.000216 0
-0.001429 -0.000190 0
-0.001340 -0.000169 0
-0.001258 -0.000152 0
-0.001182 -0.000139 0
-0.001111 -0.000128 0
-0.001044 -0.000119 0
-0.000980 -0.000112 0
-0.000920 -0.000106 0
-0.000862 -0.000100 0
-0.000806 -0.000096 0
-0.000753 -0.000091 0
-0.000701 -0.000087 0
-0.000652 -0.000084 0
-0.000603 -0.000081 0
-0.000556 -0.000079 0
-0.000509 -0.000079 0
-0.000462 -0.000080 0
-0.000414 -0.000083 0
-0.000364 -0.000089 0
-0.000310 -0.000098 0
-0.000253 -0.000106 0
-0.000192 -0.000112 0
-0.000129 -0.000110 0
-0.000070 -0.000094 0
-0.000022 -0.000058 0
0.000000 -0.000017 0
0.000000 0.000000 0
0.000000 0.000000 0
0.000000 0.000000 0
0.000000 0.000156 0
-0.000113 0.000439 0
-0.000327 0.000575 0
-0.000565 0.000534 0
-0.000782 0.000424 0
-0.000962 0.000311 0
-0.001104 0.000221 0
-0.001213 0.000159 0
-0.001299 0.000119 0
-0.001367 0.000093 0
-0.001424 0.000077 0
-0.001472 0.000066 0
-0.001514 0.000058 0
-0.001551 0.000051 0
-0.001585 0.000046 0
-0.001615 0.000042 0
-0.001643 0.000038 0
-0.001668 0.000034 0
-0.001690 0.000031 0
-0.001711 0.000028 0
-0.001730 0.000026 0
-0.001747 0.000023 0
-0.001763 0.000021 0
-0.001777 0.000019 0
-0.001791 0.000018 0
-0.001803 0.000016 0
-0.001814 0.000015 0
-0.001825 0.000013 0
-0.001834 0.000012 0
-0.001843 0.000011 0
-0.001851 0.000010 0
-0.001858 0.000009 0
-0.001865 0.000009 0
-0.001871 0.000009 0
-0.001877 0.000009 0
-0.001883 0.000009 0
-0.001888 0.000009 0
-0.001893 0.000007 0
-0.001896 0.000004 0
-0.001897 -0.000002 0
-0.001895 -0.000010 0
-0.001888 -0.000021 0
-0.001877 -0.000033 0
-0.001861 -0.000042 0
-0.001844 -0.000041 0
-0.001830 -0.000025 0
-0.001830 0.000014 0
-0.001852 0.000078 0
-0.001906 0.000163 0
-0.001997 0.000253 0
-0.002118 0.000320 0
-0.002248 0.000324 0
-0.002342 0.000215 0
-0.002341 -0.000049 0
-0.002173 -0.000485 0
-0.001782 -0.001031 0
-0.001169 -0.001478 0
-0.000460 -0.001381 0
0.000000 -0.000561 0
0.000000 0.001492 0
-0.000439 0.002713 0
-0.001114 0.001741 0
-0.001629 0.000600 0
-0.001915 -0.000044 0
-0.002025 -0.000323 0
-0.002028 -0.000412 0
-0.001974 -0.000416 0
-0.001891 -0.000389 0
-0.001798 -0.000352 0
-0.001702 -0.000316 0
-0.001609 -0.000284 0
-0.001519 -0.000257 0
-0.001434 -0.000235 0
-0.001353 -0.000217 0
-0.001276 -0.000202 0
-0.001202 -0.000189 0
-0.001131 -0.000179 0
-0.001064 -0.000170 0
-0.000998 -0.000162 0
-0.000935 -0.000155 0
-0.000873 -0.000149 0
-0.000814 -0.000143 0
-0.000756 -0.000138 0
-0.000699 -0.000134 0
-0.000643 -0.000132 0
-0.000588 -0.000131 0
-0.000532 -0.000133 0
-0.000476 -0.000138 0
-0.000417 -0.000146 0
-0.000356 -0.000158 0
-0.000290 -0.000170 0
-0.000221 -0.000179 0
-0.000150 -0.000177 0
-0.000082 -0.000153 0
-0.000026 -0.000096 0
0.000000 -0.000029 0
0.000000 0.000000 0
0.000000 0.000000 0
0.000000 0.000000 0
0.000000 0.000206 0
-0.000084 0.000589 0
-0.000257 0.000788 0
-0.000462 0.000755 0
-0.000661 0.000623 0
-0.000836 0.000477 0
-0.000982 0.000355 0
-0.001101 0.000266 0
-0.001198 0.000205 0
-0.001279 0.000164 0
-0.001348 0.000137 0
-0.001408 0.000118 0
-0.001461 0.000104 0
-0.001510 0.000092 0
-0.001553 0.000083 0
-0.001593 0.000075 0
-0.001630 0.000068 0
-0.001663 0.000062 0
-0.001694 0.000056 0
-0.001722 0.000051 0
-0.001747 0.000047 0
-0.001771 0.000043 0
-0.001792 0.000039 0
-0.001812 0.000036 0
-0.001830 0.000033 0
-0.001847 0.000030 0
-0.001863 0.000027 0
-0.001878 0.000025 0
-0.001891 0.000023 0
-0.001904 0.000021 0
-0.001916 0.000019 0
-0.001926 0.000018 0
-0.001936 0.000017 0
-0.001946 0.000016 0
-0.001955 0.000016 0
-0.001963 0.000016 0
-0.001971 0.000015 0
-0.001978 0.000012 0
-0.001984 0.000007 0
-0.001988 -0.000002 0
-0.001989 -0.000014 0
-0.001986 -0.000030 0
-0.001978 -0.000046 0
-0.001967 -0.000057 0
-0.001954 -0.000055 0
-0.001945 -0.000030 0
-0.001948 0.000026 0
-0.001971 0.000117 0
-0.002023 0.000235 0
-0.002108 0.000357 0
-0.002218 0.000440 0
-0.002331 0.000426 0
-0.002404 0.000248 0
-0.002376 -0.000152 0
-0.002181 -0.000785 0
-0.001767 -0.001552 0
-0.001144 -0.002151 0
-0.000442 -0.001967 0
0.000000 -0.000789 0
0.000000 0.001681 0
-0.000335 0.003219 0
-0.000926 0.002318 0
-0.001430 0.001017 0
-0.001753 0.000186 0
-0.001916 -0.000233 0
-0.001970 -0.000410 0
-0.001957 -0.000465 0
-0.001905 -0.000463 0
-0.001835 -0.000437 0
-0.001755 -0.000405 0
-0.001673 -0.000373 0
-0.001590 -0.000343 0
-0.001509 -0.000318 0
-0.001430 -0.000297 0
-0.001354 -0.000279 0
-0.001280 -0.000263 0
-0.001208 -0.000250 0
-0.001137 -0.000239 0
-0.001069 -0.000229 0
-0.001002 -0.000220 0
-0.000937 -0.000212 0
-0.000873 -0.000205 0
-0.000811 -0.000199 0
-0.000749 -0.000194 0
-0.000688 -0.000190 0
-0.000628 -0.000189 0
-0.000568 -0.000191 0
-0.000507 -0.000198 0
-0.000444 -0.000209 0
-0.000379 -0.000224 0
-0.000310 -0.000241 0
-0.000236 -0.000252 0
-0.000161 -0.000250 0
-0.000088 -0.000218 0
-0.000029 -0.000139 0
0.000000 -0.000043 0
0.000000 0.000000 0
0.000000 0.000000 0
0.000000 0.000000 0
0.000000 0.000240 0
-0.000051 0.000696 0
-0.000169 0.000952 0
-0.000321 0.000937 0
-0.000479 0.000798 0
-0.000627 0.000631 0
-0.000758 0.000486 0
-0.000869 0.000375 0
-0.000965 0.000297 0
-0.001048 0.000243 0
-0.001122 0.000206 0
-0.001189 0.000179 0
-0.001250 0.000159 0
-0.001306 0.000143 0
-0.001358 0.000130 0
-0.001406 0.000118 0
-0.001450 0.000107 0
-0.001492 0.000098 0
-0.001530 0.000089 0
-0.001565 0.000082 0
-0.001597 0.000074 0
-0.001627 0.000068 0
-0.001654 0.000063 0
-0.001679 0.000057 0
-0.001703 0.000053 0
-0.001725 0.000049 0
-0.001746 0.000045 0
-0.001765 0.000041 0
-0.001783 0.000038 0
-0.001801 0.000035 0
-0.001817 0.000032 0
-0.001832 0.000030 0
-0.001847 0.000028 0
-0.001860 0.000027 0
-0.001873 0.000026 0
-0.001886 0.000025 0
-0.001898 0.000024 0
-0.001909 0.000020 0
-0.001919 0.000014 0
-0.001928 0.000003 0
-0.001935 -0.000013 0
-0.001938 -0.000033 0
-0.001938 -0.000052 0
-0.001935 -0.000066 0
-0.001930 -0.000063 0
-0.001928 -0.000031 0
-0.001935 0.000040 0
-0.001957 0.000153 0
-0.002004 0.000300 0
-0.002078 0.000448 0
-0.002172 0.000543 0
-0.002266 0.000509 0
-0.002319 0.000260 0
-0.002277 -0.000273 0
-0.002075 -0.001095 0
-0.001670 -0.002068 0
-0.001074 -0.002802 0
-0.000412 -0.002525 0
0.000000 -0.001004 0
0.000000 0.001828 0
-0.000262 0.003640 0
-0.000773 0.002837 0
-0.001242 0.001428 0
-0.001567 0.000442 0
-0.001753 -0.000105 0
-0.001836 -0.000371 0
-0.001851 -0.000481 0
-0.001825 -0.000510 0
-0.001776 -0.000502 0
-0.001714 -0.000478 0
-0.001646 -0.000449 0
-0.001575 -0.000421 0
-0.001502 -0.000395 0
-0.001430 -0.000372 0
-0.001359 -0.000352 0
-0.001289 -0.000336 0
-0.001219 -0.000321 0
-0.001151 -0.000308 0
-0.001083 -0.000297 0
-0.001017 -0.000287 0
-0.000951 -0.000278 0
-0.000887 -0.000269 0
-0.000823 -0.000262 0
-0.000760 -0.000256 0
-0.000698 -0.000252 0
-0.000636 -0.000251 0
-0.000574 -0.000253 0
-0.000512 -0.000261 0
-0.000448 -0.000274 0
-0.000382 -0.000293 0
-0.000313 -0.000313 0
-0.000239 -0.000328 0
-0.000164 -0.000325 0
-0.000090 -0.000285 0
-0.000029 -0.000184 0
0.000000 -0.000058 0
0.000000 0.000000 0
0.000000 0.000000 0
0.000000 0.000000 0
0.000000 0.000257 0
-0.000021 0.000758 0
-0.000081 0.001057 0
-0.000172 0.001065 0
-0.000277 0.000930 0
-0.000385 0.000755 0
-0.000486 0.000597 0
-0.000578 0.000473 0
-0.000661 0.000384 0
-0.000738 0.000321 0
-0.000809 0.000277 0
-0.000875 0.000245 0
-0.000939 0.000220 0
-0.000999 0.000200 0
-0.001056 0.000183 0
-0.001110 0.000168 0
-0.001162 0.000154 0
-0.001210 0.000141 0
-0.001255 0.000129 0
-0.001297 0.000119 0
-0.001336 0.000109 0
-0.001372 0.000100 0
-0.001405 0.000092 0
-0.001436 0.000084 0
-0.001464 0.000078 0
-0.001491 0.000072 0
-0.001517 0.000067 0
-0.001541 0.000063 0
-0.001565 0.000058 0
-0.001587 0.000054 0
-0.001608 0.000050 0
-0.001629 0.000047 0
-0.001649 0.000045 0
-0.001668 0.000043 0
-0.001686 0.000041 0
-0.001703 0.000040 0
-0.001720 0.000038 0
-0.001737 0.000034 0
-0.001753 0.000026 0
-0.001769 0.000014 0
-0.001783 -0.000004 0
-0.001796 -0.000027 0
-0.001805 -0.000050 0
-0.001812 -0.000065 0
-0.001817 -0.000062 0
-0.001823 -0.000026 0
-0.001835 0.000055 0
-0.001857 0.000186 0
-0.001897 0.000355 0
-0.001958 0.000524 0
-0.002035 0.000628 0
-0.002109 0.000574 0
-0.002147 0.000259 0
-0.002099 -0.000397 0
-0.001907 -0.001392 0
-0.001532 -0.002553 0
-0.000984 -0.003409 0
-0.000376 -0.003041 0
0.000000 -0.001201 0
0.000000 0.001944 0
-0.000209 0.003993 0
-0.000650 0.003298 0
-0.001075 0.001812 0
-0.001383 0.000697 0
-0.001570 0.000036 0
-0.001664 -0.000312 0
-0.001694 -0.000475 0
-0.001685 -0.000537 0
-0.001652 -0.000548 0
-0.001606 -0.000535 0
-0.001552 -0.000512 0
-0.001493 -0.000486 0
-0.001432 -0.000462 0
-0.001369 -0.000440 0
-0.001306 -0.000420 0
-0.001242 -0.000403 0
-0.001178 -0.000388 0
-0.001114 -0.000374 0
-0.001051 -0.000362 0
-0.000988 -0.000352 0
-0.000925 -0.000342 0
-0.000862 -0.000333 0
-0.000800 -0.000325 0
-0.000738 -0.000319 0
-0.000677 -0.000314 0
-0.000616 -0.000313 0
-0.000555 -0.000315 0
-0.000494 -0.000324 0
-0.000432 -0.000339 0
-0.000369 -0.000360 0
-0.000302 -0.000383 0
-0.000231 -0.000401 0
-0.000159 -0.000398 0
-0.000088 -0.000351 0
-0.000029 -0.000229 0
0.000000 -0.000073 0
0.000000 0.000000 0
0.000000 0.000000 0
0.000000 0.000000 0
0.000000 0.000260 0
0.000005 0.000777 0
-0.000004 0.001103 0
-0.000035 0.001133 0
-0.000084 0.001010 0
-0.000144 0.000840 0
-0.000208 0.000679 0
-0.000272 0.000550 0
-0.000335 0.000456 0
-0.000396 0.000390 0
-0.000457 0.000343 0
-0.000518 0.000309 0
-0.000578 0.000282 0
-0.000638 0.000260 0
-0.000697 0.000241 0
-0.000754 0.000223 0
-0.000810 0.000207 0
-0.000864 0.000191 0
-0.000916 0.000176 0
-0.000964 0.000162 0
-0.001009 0.000149 0
-0.001052 0.000137 0
-0.001091 0.000126 0
-0.001127 0.000117 0
-0.001161 0.000108 0
-0.001192 0.000101 0
-0.001223 0.000095 0
-0.001252 0.000089 0
-0.001280 0.000084 0
-0.001307 0.000079 0
-0.001334 0.000074 0
-0.001360 0.000070 0
-0.001385 0.000067 0
-0.001410 0.000064 0
-0.001434 0.000062 0
-0.001457 0.000060 0
-0.001480 0.000057 0
-0.001503 0.000053 0
-0.001525 0.000045 0
-0.001548 0.000032 0
-0.001571 0.000013 0
-0.001593 -0.000011 0
-0.001614 -0.000036 0
-0.001632 -0.000054 0
-0.001649 -0.000052 0
-0.001664 -0.000014 0
-0.001681 0.000073 0
-0.001703 0.000216 0
-0.001737 0.000400 0
-0.001784 0.000585 0
-0.001843 0.000694 0
-0.001900 0.000622 0
-0.001925 0.000249 0
-0.001877 -0.000514 0
-0.001706 -0.001662 0
-0.001374 -0.002991 0
-0.000885 -0.003959 0
-0.000340 -0.003509 0
0.000000 -0.001380 0
0.000000 0.002037 0
-0.000169 0.004290 0
-0.000550 0.003704 0
-0.000930 0.002161 0
-0.001212 0.000937 0
-0.001388 0.000176 0
-0.001479 -0.000246 0
-0.001514 -0.000459 0
-0.001512 -0.000552 0
-0.001489 -0.000581 0
-0.001454 -0.000578 0
-0.001412 -0.000562 0
-0.001365 -0.000540 0
-0.001315 -0.000518 0
-0.001263 -0.000498 0
-0.001208 -0.000479 0
-0.001153 -0.000463 0
-0.001097 -0.000448 0
-0.001039 -0.000435 0
-0.000982 -0.000423 0
-0.000924 -0.000413 0
-0.000865 -0.000403 0
-0.000807 -0.000394 0
-0.000748 -0.000386 0
-0.000690 -0.000379 0
-0.000632 -0.000374 0
-0.000574 -0.000372 0
-0.000516 -0.000375 0
-0.000459 -0.000384 0
-0.000401 -0.000400 0
-0.000342 -0.000423 0
-0.000280 -0.000449 0
-0.000215 -0.000470 0
-0.000148 -0.000468 0
-0.000082 -0.000414 0
-0.000027 -0.000272 0
0.000000 -0.000087 0
0.000000 0.000000 0
0.000000 0.000000 0
0.000000 0.000000 0
0.000000 0.000252 0
0.000023 0.000762 0
0.000057 0.001097 0
0.000080 0.001144 0
0.000085 0.001039 0
0.000073 0.000879 0
0.000049 0.000725 0
0.000017 0.000600 0
-0.000020 0.000508 0
-0.000062 0.000443 0
-0.000107 0.000398 0
-0.000156 0.000366 0
-0.000208 0.000340 0
-0.000262 0.000319 0
-0.000319 0.000300 0
-0.000376 0.000281 0
-0.000434 0.000264 0
-0.000491 0.000246 0
-0.000548 0.000229 0
-0.000602 0.000212 0
-0.000654 0.000196 0
-0.000703 0.000181 0
-0.000748 0.000167 0
-0.000790 0.000154 0
-0.000829 0.000143 0
-0.000865 0.000134 0
-0.000899 0.000126 0
-0.000932 0.000120 0
-0.000964 0.000114 0
-0.000996 0.000108 0
-0.001028 0.000103 0
-0.001059 0.000098 0
-0.001090 0.000094 0
-0.001120 0.000091 0
-0.001150 0.000088 0
-0.001179 0.000086 0
-0.001208 0.000083 0
-0.001237 0.000079 0
-0.001266 0.000072 0
-0.001296 0.000059 0
-0.001327 0.000040 0
-0.001358 0.000016 0
-0.001390 -0.000011 0
-0.001419 -0.000031 0
-0.001447 -0.000031 0
-0.001471 0.000006 0
-0.001494 0.000095 0
-0.001518 0.000242 0
-0.001546 0.000436 0
-0.001581 0.000630 0
-0.001623 0.000743 0
-0.001663 0.000656 0
-0.001679 0.000236 0
-0.001636 -0.000617 0
-0.001491 -0.001896 0
-0.001207 -0.003374 0
-0.000783 -0.004443 0
-0.000303 -0.003926 0
0.000000 -0.001541 0
0.000000 0.002113 0
-0.000138 0.004543 0
-0.000468 0.004060 0
-0.000806 0.002474 0
-0.001059 0.001155 0
-0.001216 0.000304 0
-0.001297 -0.000186 0
-0.001326 -0.000442 0
-0.001325 -0.000561 0
-0.001307 -0.000606 0
-0.001279 -0.000612 0
-0.001246 -0.000601 0
-0.001209 -0.000583 0
-0.001169 -0.000564 0
-0.001126 -0.000546 0
-0.001082 -0.000529 0
-0.001035 -0.000514 0
-0.000987 -0.000501 0
-0.000937 -0.000489 0
-0.000886 -0.000478 0
-0.000835 -0.000468 0
-0.000782 -0.000459 0
-0.000729 -0.000450 0
-0.000676 -0.000442 0
-0.000622 -0.000435 0
-0.000569 -0.000430 0
-0.000516 -0.000428 0
-0.000463 -0.000430 0
-0.000411 -0.000439 0
-0.000358 -0.000456 0
-0.000305 -0.000480 0
-0.000250 -0.000510 0
-0.000192 -0.000533 0
-0.000132 -0.000531 0
-0.000074 -0.000472 0
-0.000024 -0.000311 0
0.000000 -0.000099 0
0.000000 0.000000 0
0.000000 0.000000 0
0.000000 0.000000 0
0.000000 0.000236 0
0.000036 0.000719 0
0.000103 0.001046 0
0.000169 0.001105 0