# vtk DataFile Version 2.0
generated by CFD-lab course output (written by Tobias Neckel) 
ASCII

DATASET STRUCTURED_GRID
DIMENSIONS  99 49 1 
POINTS 4851 float

0.000000 0.000000 0
0.020000 0.000000 0
0.040000 0.000000 0
0.060000 0.000000 0
0.080000 0.000000 0
0.100000 0.000000 0
0.120000 0.000000 0
0.140000 0.000000 0
0.160000 0.000000 0
0.180000 0.000000 0
0.200000 0.000000 0
0.220000 0.000000 0
0.240000 0.000000 0
0.260000 0.000000 0
0.280000 0.000000 0
0.300000 0.000000 0
0.320000 0.000000 0
0.340000 0.000000 0
0.360000 0.000000 0
0.380000 0.000000 0
0.400000 0.000000 0
0.420000 0.000000 0
0.440000 0.000000 0
0.460000 0.000000 0
0.480000 0.000000 0
0.500000 0.000000 0
0.520000 0.000000 0
0.540000 0.000000 0
0.560000 0.000000 0
0.580000 0.000000 0
0.600000 0.000000 0
0.620000 0.000000 0
0.640000 0.000000 0
0.660000 0.000000 0
0.680000 0.000000 0
0.700000 0.000000 0
0.720000 0.000000 0
0.740000 0.000000 0
0.760000 0.000000 0
0.780000 0.000000 0
0.800000 0.000000 0
0.820000 0.000000 0
0.840000 0.000000 0
0.860000 0.000000 0
0.880000 0.000000 0
0.900000 0.000000 0
0.920000 0.000000 0
0.940000 0.000000 0
0.960000 0.000000 0
0.980000 0.000000 0
1.000000 0.000000 0
1.020000 0.000000 0
1.040000 0.000000 0
1.060000 0.000000 0
1.080000 0.000000 0
1.100000 0.000000 0
1.120000 0.000000 0
1.140000 0.000000 0
1.160000 0.000000 0
1.180000 0.000000 0
1.200000 0.000000 0
1.220000 0.000000 0
1.240000 0.000000 0
1.260000 0.000000 0
1.280000 0.000000 0
1.300000 0.000000 0
1.320000 0.000000 0
1.340000 0.000000 0
1.360000 0.000000 0
1.380000 0.000000 0
1.400000 0.000000 0
1.420000 0.000000 0
1.440000 0.000000 0
1.460000 0.000000 0
1.480000 0.000000 0
1.500000 0.000000 0
1.520000 0.000000 0
1.540000 0.000000 0
1.560000 0.000000 0
1.580000 0.000000 0
1.600000 0.000000 0
1.620000 0.000000 0
1.640000 0.000000 0
1.660000 0.000000 0
1.680000 0.000000 0
1.700000 0.000000 0
1.720000 0.000000 0
1.740000 0.000000 0
1.760000 0.000000 0
1.780000 0.000000 0
1.800000 0.000000 0
1.820000 0.000000 0
1.840000 0.000000 0
1.860000 0.000000 0
1.880000 0.000000 0
1.900000 0.000000 0
1.920000 0.000000 0
1.940000 0.000000 0
1.960000 0.000000 0
0.000000 0.020000 0
0.020000 0.020000 0
0.040000 0.020000 0
0.060000 0.020000 0
0.080000 0.020000 0
0.100000 0.020000 0
0.120000 0.020000 0
0.140000 0.020000 0
0.160000 0.020000 0
0.180000 0.020000 0
0.200000 0.020000 0
0.220000 0.020000 0
0.240000 0.020000 0
0.260000 0.020000 0
0.280000 0.020000 0
0.300000 0.020000 0
0.320000 0.020000 0
0.340000 0.020000 0
0.360000 0.020000 0
0.380000 0.020000 0
0.400000 0.020000 0
0.420000 0.020000 0
0.440000 0.020000 0
0.460000 0.020000 0
0.480000 0.020000 0
0.500000 0.020000 0
0.520000 0.020000 0
0.540000 0.020000 0
0.560000 0.020000 0
0.580000 0.020000 0
0.600000 0.020000 0
0.620000 0.020000 0
0.640000 0.020000 0
0.660000 0.020000 0
0.680000 0.020000 0
0.700000 0.020000 0
0.720000 0.020000 0
0.740000 0.020000 0
0.760000 0.020000 0
0.780000 0.020000 0
0.800000 0.020000 0
0.820000 0.020000 0
0.840000 0.020000 0
0.860000 0.020000 0
0.880000 0.020000 0
0.900000 0.020000 0
0.920000 0.020000 0
0.940000 0.020000 0
0.960000 0.020000 0
0.980000 0.020000 0
1.000000 0.020000 0
1.020000 0.020000 0
1.040000 0.020000 0
1.060000 0.020000 0
1.080000 0.020000 0
1.100000 0.020000 0
1.120000 0.020000 0
1.140000 0.020000 0
1.160000 0.020000 0
1.180000 0.020000 0
1.200000 0.020000 0
1.220000 0.020000 0
1.240000 0.020000 0
1.260000 0.020000 0
1.280000 0.020000 0
1.300000 0.020000 0
1.320000 0.020000 0
1.340000 0.020000 0
1.360000 0.020000 0
1.380000 0.020000 0
1.400000 0.020000 0
1.420000 0.020000 0
1.440000 0.020000 0
1.460000 0.020000 0
1.480000 0.020000 0
1.500000 0.020000 0
1.520000 0.020000 0
1.540000 0.020000 0
1.560000 0.020000 0
1.580000 0.020000 0
1.600000 0.020000 0
1.620000 0.020000 0
1.640000 0.020000 0
1.660000 0.020000 0
1.680000 0.020000 0
1.700000 0.020000 0
1.720000 0.020000 0
1.740000 0.020000 0
1.760000 0.020000 0
1.780000 0.020000 0
1.800000 0.020000 0
1.820000 0.020000 0
1.840000 0.020000 0
1.860000 0.020000 0
1.880000 0.020000 0
1.900000 0.020000 0
1.920000 0.020000 0
1.940000 0.020000 0
1.960000 0.020000 0
0.000000 0.040000 0
0.020000 0.040000 0
0.040000 0.040000 0
0.060000 0.040000 0
0.080000 0.040000 0
0.100000 0.040000 0
0.120000 0.040000 0
0.140000 0.040000 0
0.160000 0.040000 0
0.180000 0.040000 0
0.200000 0.040000 0
0.220000 0.040000 0
0.240000 0.040000 0
0.260000 0.040000 0
0.280000 0.040000 0
0.300000 0.040000 0
0.320000 0.040000 0
0.340000 0.040000 0
0.360000 0.040000 0
0.380000 0.040000 0
0.400000 0.040000 0
0.420000 0.040000 0
0.440000 0.040000 0
0.460000 0.040000 0
0.480000 0.040000 0
0.500000 0.040000 0
0.520000 0.040000 0
0.540000 0.040000 0
0.560000 0.040000 0
0.580000 0.040000 0
0.600000 0.040000 0
0.620000 0.040000 0
0.640000 0.040000 0
0.660000 0.040000 0
0.680000 0.040000 0
0.700000 0.040000 0
0.720000 0.040000 0
0.740000 0.040000 0
0.760000 0.040000 0
0.780000 0.040000 0
0.800000 0.040000 0
0.820000 0.040000 0
0.840000 0.040000 0
0.860000 0.040000 0
0.880000 0.040000 0
0.900000 0.040000 0
0.920000 0.040000 0
0.940000 0.040000 0
0.960000 0.040000 0
0.980000 0.040000 0
1.000000 0.040000 0
1.020000 0.040000 0
1.040000 0.040000 0
1.060000 0.040000 0
1.080000 0.040000 0
1.100000 0.040000 0
1.120000 0.040000 0
1.140000 0.040000 0
1.160000 0.040000 0
1.180000 0.040000 0
1.200000 0.040000 0
1.220000 0.040000 0
1.240000 0.040000 0
1.260000 0.040000 0
1.280000 0.040000 0
1.300000 0.040000 0
1.320000 0.040000 0
1.340000 0.040000 0
1.360000 0.040000 0
1.380000 0.040000 0
1.400000 0.040000 0
1.420000 0.040000 0
1.440000 0.040000 0
1.460000 0.040000 0
1.480000 0.040000 0
1.500000 0.040000 0
1.520000 0.040000 0
1.540000 0.040000 0
1.560000 0.040000 0
1.580000 0.040000 0
1.600000 0.040000 0
1.620000 0.040000 0
1.640000 0.040000 0
1.660000 0.040000 0
1.680000 0.040000 0
1.700000 0.040000 0
1.720000 0.040000 0
1.740000 0.040000 0
1.760000 0.040000 0
1.780000 0.040000 0
1.800000 0.040000 0
1.820000 0.040000 0
1.840000 0.040000 0
1.860000 0.040000 0
1.880000 0.040000 0
1.900000 0.040000 0
1.920000 0.040000 0
1.940000 0.040000 0
1.960000 0.040000 0
0.000000 0.060000 0
0.020000 0.060000 0
0.040000 0.060000 0
0.060000 0.060000 0
0.080000 0.060000 0
0.100000 0.060000 0
0.120000 0.060000 0
0.140000 0.060000 0
0.160000 0.060000 0
0.180000 0.060000 0
0.200000 0.060000 0
0.220000 0.060000 0
0.240000 0.060000 0
0.260000 0.060000 0
0.280000 0.060000 0
0.300000 0.060000 0
0.320000 0.060000 0
0.340000 0.060000 0
0.360000 0.060000 0
0.380000 0.060000 0
0.400000 0.060000 0
0.420000 0.060000 0
0.440000 0.060000 0
0.460000 0.060000 0
0.480000 0.060000 0
0.500000 0.060000 0
0.520000 0.060000 0
0.540000 0.060000 0
0.560000 0.060000 0
0.580000 0.060000 0
0.600000 0.060000 0
0.620000 0.060000 0
0.640000 0.060000 0
0.660000 0.060000 0
0.680000 0.060000 0
0.700000 0.060000 0
0.720000 0.060000 0
0.740000 0.060000 0
0.760000 0.060000 0
0.780000 0.060000 0
0.800000 0.060000 0
0.820000 0.060000 0
0.840000 0.060000 0
0.860000 0.060000 0
0.880000 0.060000 0
0.900000 0.060000 0
0.920000 0.060000 0
0.940000 0.060000 0
0.960000 0.060000 0
0.980000 0.060000 0
1.000000 0.060000 0
1.020000 0.060000 0
1.040000 0.060000 0
1.060000 0.060000 0
1.080000 0.060000 0
1.100000 0.060000 0
1.120000 0.060000 0
1.140000 0.060000 0
1.160000 0.060000 0
1.180000 0.060000 0
1.200000 0.060000 0
1.220000 0.060000 0
1.240000 0.060000 0
1.260000 0.060000 0
1.280000 0.060000 0
1.300000 0.060000 0
1.320000 0.060000 0
1.340000 0.060000 0
1.360000 0.060000 0
1.380000 0.060000 0
1.400000 0.060000 0
1.420000 0.060000 0
1.440000 0.060000 0
1.460000 0.060000 0
1.480000 0.060000 0
1.500000 0.060000 0
1.520000 0.060000 0
1.540000 0.060000 0
1.560000 0.060000 0
1.580000 0.060000 0
1.600000 0.060000 0
1.620000 0.060000 0
1.640000 0.060000 0
1.660000 0.060000 0
1.680000 0.060000 0
1.700000 0.060000 0
1.720000 0.060000 0
1.740000 0.060000 0
1.760000 0.060000 0
1.780000 0.060000 0
1.800000 0.060000 0
1.820000 0.060000 0
1.840000 0.060000 0
1.860000 0.060000 0
1.880000 0.060000 0
1.900000 0.060000 0
1.920000 0.060000 0
1.940000 0.060000 0
1.960000 0.060000 0
0.000000 0.080000 0
0.020000 0.080000 0
0.040000 0.080000 0
0.060000 0.080000 0
0.080000 0.080000 0
0.100000 0.080000 0
0.120000 0.080000 0
0.140000 0.080000 0
0.160000 0.080000 0
0.180000 0.080000 0
0.200000 0.080000 0
0.220000 0.080000 0
0.240000 0.080000 0
0.260000 0.080000 0
0.280000 0.080000 0
0.300000 0.080000 0
0.320000 0.080000 0
0.340000 0.080000 0
0.360000 0.080000 0
0.380000 0.080000 0
0.400000 0.080000 0
0.420000 0.080000 0
0.440000 0.080000 0
0.460000 0.080000 0
0.480000 0.080000 0
0.500000 0.080000 0
0.520000 0.080000 0
0.540000 0.080000 0
0.560000 0.080000 0
0.580000 0.080000 0
0.600000 0.080000 0
0.620000 0.080000 0
0.640000 0.080000 0
0.660000 0.080000 0
0.680000 0.080000 0
0.700000 0.080000 0
0.720000 0.080000 0
0.740000 0.080000 0
0.760000 0.080000 0
0.780000 0.080000 0
0.800000 0.080000 0
0.820000 0.080000 0
0.840000 0.080000 0
0.860000 0.080000 0
0.880000 0.080000 0
0.900000 0.080000 0
0.920000 0.080000 0
0.940000 0.080000 0
0.960000 0.080000 0
0.980000 0.080000 0
1.000000 0.080000 0
1.020000 0.080000 0
1.040000 0.080000 0
1.060000 0.080000 0
1.080000 0.080000 0
1.100000 0.080000 0
1.120000 0.080000 0
1.140000 0.080000 0
1.160000 0.080000 0
1.180000 0.080000 0
1.200000 0.080000 0
1.220000 0.080000 0
1.240000 0.080000 0
1.260000 0.080000 0
1.280000 0.080000 0
1.300000 0.080000 0
1.320000 0.080000 0
1.340000 0.080000 0
1.360000 0.080000 0
1.380000 0.080000 0
1.400000 0.080000 0
1.420000 0.080000 0
1.440000 0.080000 0
1.460000 0.080000 0
1.480000 0.080000 0
1.500000 0.080000 0
1.520000 0.080000 0
1.540000 0.080000 0
1.560000 0.080000 0
1.580000 0.080000 0
1.600000 0.080000 0
1.620000 0.080000 0
1.640000 0.080000 0
1.660000 0.080000 0
1.680000 0.080000 0
1.700000 0.080000 0
1.720000 0.080000 0
1.740000 0.080000 0
1.760000 0.080000 0
1.780000 0.080000 0
1.800000 0.080000 0
1.820000 0.080000 0
1.840000 0.080000 0
1.860000 0.080000 0
1.880000 0.080000 0
[...]
POINT_DATA 4851 

VECTORS velocity float
0.000000 0.000000 0
-0.000455 0.000000 0
-0.000593 0.000000 0
-0.000540 0.000000 0
-0.000451 0.000000 0
-0.000374 0.000000 0
-0.000317 0.000000 0
-0.000274 0.000000 0
-0.000241 0.000000 0
-0.000215 0.000000 0
-0.000194 0.000000 0
-0.000176 0.000000 0
-0.000161 0.000000 0
-0.000148 0.000000 0
-0.000136 0.000000 0
-0.000125 0.000000 0
-0.000115 0.000000 0
-0.000105 0.000000 0
-0.000097 0.000000 0
-0.000088 0.000000 0
-0.000080 0.000000 0
-0.000073 0.000000 0
-0.000065 0.000000 0
-0.000058 0.000000 0
-0.000051 0.000000 0
-0.000044 0.000000 0
-0.000037 0.000000 0
-0.000031 0.000000 0
-0.000025 0.000000 0
-0.000019 0.000000 0
-0.000013 0.000000 0
-0.000009 0.000000 0
-0.000005 0.000000 0
-0.000002 0.000000 0
0.000000 0.000000 0
0.000000 0.000000 0
0.000000 0.000000 0
0.000000 0.000000 0
0.000000 0.000000 0
0.000000 0.000000 0
0.000000 0.000000 0
-0.000000 0.000000 0
-0.000000 0.000000 0
-0.000000 0.000000 0
-0.000000 0.000000 0
-0.000000 0.000000 0
-0.000001 0.000000 0
-0.000001 0.000000 0
-0.000001 0.000000 0
-0.000001 0.000000 0
-0.000002 0.000000 0
-0.000002 0.000000 0
-0.000003 0.000000 0
-0.000004 0.000000 0
-0.000005 0.000000 0
-0.000007 0.000000 0
-0.000008 0.000000 0
-0.000011 0.000000 0
-0.000013 0.000000 0
-0.000016 0.000000 0
-0.000020 0.000000 0
-0.000025 0.000000 0
-0.000030 0.000000 0
-0.000036 0.000000 0
-0.000042 0.000000 0
-0.000050 0.000000 0
-0.000059 0.000000 0
-0.000070 0.000000 0
-0.000082 0.000000 0
-0.000096 0.000000 0
-0.000113 0.000000 0
-0.000133 0.000000 0
-0.000157 0.000000 0
-0.000188 0.000000 0
-0.000227 0.000000 0
-0.000278 0.000000 0
-0.000347 0.000000 0
-0.000441 0.000000 0
-0.000563 0.000000 0
-0.000715 0.000000 0
-0.000887 0.000000 0
-0.001055 0.000000 0
-0.001194 0.000000 0
-0.001288 0.000000 0
-0.001343 0.000000 0
-0.001378 0.000000 0
-0.001418 0.000000 0
-0.001476 0.000000 0
-0.001558 0.000000 0
-0.001659 0.000000 0
-0.001764 0.000000 0
-0.001850 0.000000 0
-0.001884 0.000000 0
-0.001825 0.000000 0
-0.001629 0.000000 0
-0.001276 0.000000 0
-0.000795 0.000000 0
-0.000294 0.000000 0
0.000000 0.000000 0
0.000000 0.000455 0
-0.000911 0.000593 0
-0.001394 0.000085 0
-0.001447 -0.000142 0
-0.001335 -0.000166 0
-0.001191 -0.000134 0
-0.001057 -0.000100 0
-0.000943 -0.000076 0
-0.000848 -0.000058 0
-0.000768 -0.000047 0
-0.000699 -0.000039 0
-0.000640 -0.000033 0
-0.000587 -0.000029 0
-0.000539 -0.000025 0
-0.000497 -0.000023 0
-0.000457 -0.000021 0
-0.000421 -0.000019 0
-0.000387 -0.000018 0
-0.000355 -0.000017 0
-0.000325 -0.000016 0
-0.000296 -0.000015 0
-0.000268 -0.000015 0
-0.000241 -0.000014 0
-0.000214 -0.000014 0
-0.000189 -0.000014 0
-0.000164 -0.000013 0
-0.000140 -0.000013 0
-0.000116 -0.000013 0
-0.000094 -0.000012 0
-0.000073 -0.000011 0
-0.000053 -0.000010 0
-0.000036 -0.000009 0
-0.000021 -0.000007 0
-0.000010 -0.000005 0
-0.000003 -0.000002 0
0.000000 0.000000 0
0.000000 0.000001 0
0.000000 0.000000 0
0.000000 0.000000 0
0.000000 0.000000 0
0.000000 -0.000000 0
-0.000000 -0.000000 0
-0.000000 -0.000000 0
-0.000000 0.000000 0
-0.000001 0.000000 0
-0.000001 0.000000 0
-0.000002 0.000000 0
-0.000003 0.000000 0
-0.000004 0.000001 0
-0.000005 0.000001 0
-0.000007 0.000001 0
-0.000009 0.000001 0
-0.000012 0.000002 0
-0.000015 0.000002 0
-0.000019 0.000002 0
-0.000024 0.000003 0
-0.000030 0.000004 0
-0.000038 0.000005 0
-0.000047 0.000006 0
-0.000058 0.000007 0
-0.000072 0.000008 0
-0.000087 0.000009 0
-0.000105 0.000011 0
-0.000126 0.000013 0
-0.000150 0.000015 0
-0.000178 0.000017 0
-0.000209 0.000019 0
-0.000246 0.000022 0
-0.000288 0.000026 0
-0.000337 0.000030 0
-0.000395 0.000036 0
-0.000464 0.000044 0
-0.000547 0.000054 0
-0.000651 0.000069 0
-0.000784 0.000090 0
-0.000956 0.000120 0
-0.001184 0.000162 0
-0.001482 0.000215 0
-0.001863 0.000274 0
-0.002319 0.000323 0
-0.002816 0.000339 0
-0.003292 0.000307 0
-0.003684 0.000233 0
-0.003963 0.000148 0
-0.004152 0.000089 0
-0.004305 0.000074 0
-0.004474 0.000097 0
-0.004688 0.000140 0
-0.004947 0.000182 0
-0.005225 0.000205 0
-0.005473 0.000191 0
-0.005621 0.000120 0
-0.005580 -0.000027 0
-0.005254 -0.000257 0
-0.004565 -0.000549 0
-0.003498 -0.000834 0
-0.002145 -0.000983 0
-0.000788 -0.000796 0
0.000000 -0.000294 0
0.000000 0.000912 0
-0.000806 0.001394 0
-0.001543 0.000536 0
-0.001872 -0.000059 0
-0.001924 -0.000256 0
-0.001848 -0.000278 0
-0.001725 -0.000247 0
-0.001593 -0.000209 0
-0.001466 -0.000175 0
-0.001348 -0.000149 0
-0.001241 -0.000128 0
-0.001144 -0.000113 0
-0.001056 -0.000100 0
-0.000975 -0.000090 0
-0.000900 -0.000082 0
-0.000831 -0.000075 0
-0.000766 -0.000070 0
-0.000705 -0.000066 0
-0.000648 -0.000062 0
-0.000593 -0.000059 0
-0.000541 -0.000057 0
-0.000490 -0.000055 0
-0.000441 -0.000053 0
-0.000394 -0.000052 0
-0.000347 -0.000050 0
-0.000303 -0.000049 0
-0.000259 -0.000047 0
-0.000217 -0.000046 0
-0.000177 -0.000043 0
-0.000139 -0.000040 0
-0.000104 -0.000037 0
-0.000073 -0.000032 0
-0.000046 -0.000026 0
-0.000025 -0.000018 0
-0.000010 -0.000010 0
-0.000002 -0.000003 0
0.000000 0.000000 0
0.000000 0.000000 0
0.000000 0.000000 0
0.000000 0.000000 0
0.000000 -0.000000 0
-0.000000 0.000000 0
-0.000000 0.000000 0
-0.000001 0.000001 0
-0.000002 0.000001 0
-0.000003 0.000001 0
-0.000004 0.000001 0
-0.000005 0.000002 0
-0.000007 0.000002 0
-0.000009 0.000003 0
-0.000012 0.000004 0
-0.000016 0.000005 0
-0.000021 0.000006 0
-0.000027 0.000007 0
-0.000034 0.000009 0
-0.000043 0.000011 0
-0.000054 0.000014 0
-0.000067 0.000017 0
-0.000084 0.000020 0
-0.000103 0.000024 0
-0.000126 0.000028 0
-0.000153 0.000033 0
-0.000185 0.000039 0
-0.000221 0.000045 0
-0.000263 0.000051 0
-0.000311 0.000059 0
-0.000366 0.000068 0
-0.000430 0.000078 0
-0.000502 0.000091 0
-0.000587 0.000106 0
-0.000686 0.000126 0
-0.000804 0.000152 0
-0.000946 0.000187 0
-0.001121 0.000236 0
-0.001340 0.000304 0
-0.001620 0.000399 0
-0.001979 0.000525 0
-0.002436 0.000678 0
-0.002998 0.000836 0
-0.003647 0.000953 0
-0.004329 0.000972 0
-0.004970 0.000867 0
-0.005504 0.000670 0
-0.005917 0.000467 0
-0.006244 0.000341 0
-0.006545 0.000321 0
-0.006868 0.000383 0
-0.007226 0.000473 0
-0.007601 0.000536 0
-0.007942 0.000525 0
-0.008174 0.000395 0
-0.008206 0.000106 0
-0.007931 -0.000368 0
-0.007260 -0.001016 0
-0.006143 -0.001757 0
-0.004600 -0.002421 0
-0.002770 -0.002711 0
-0.001002 -0.002146 0
0.000000 -0.000789 0
0.000000 0.001261 0
-0.000614 0.002137 0
-0.001384 0.001151 0
-0.001880 0.000238 0
-0.002099 -0.000190 0
-0.002141 -0.000333 0
-0.002088 -0.000355 0
-0.001989 -0.000335 0
-0.001873 -0.000303 0
-0.001751 -0.000271 0
-0.001632 -0.000243 0
-0.001517 -0.000219 0
-0.001409 -0.000198 0
-0.001307 -0.000181 0
-0.001212 -0.000167 0
-0.001122 -0.000155 0
-0.001037 -0.000145 0
-0.000956 -0.000136 0
-0.000879 -0.000129 0
-0.000806 -0.000123 0
-0.000736 -0.000118 0
-0.000668 -0.000114 0
-0.000602 -0.000111 0
-0.000538 -0.000108 0
-0.000476 -0.000105 0
-0.000415 -0.000102 0
-0.000357 -0.000098 0
-0.000301 -0.000095 0
-0.000247 -0.000090 0
-0.000196 -0.000084 0
-0.000149 -0.000076 0
-0.000106 -0.000067 0
-0.000070 -0.000055 0
-0.000040 -0.000040 0
-0.000018 -0.000025 0
-0.000005 -0.000010 0
0.000000 -0.000001 0
0.000000 0.000000 0
0.000000 0.000000 0
0.000000 0.000000 0
0.000000 0.000000 0
-0.000000 0.000000 0
-0.000001 0.000001 0
-0.000001 0.000001 0
-0.000002 0.000002 0
-0.000003 0.000002 0
-0.000005 0.000003 0
-0.000007 0.000004 0
-0.000009 0.000005 0
-0.000012 0.000006 0
-0.000016 0.000008 0
-0.000021 0.000010 0
-0.000027 0.000012 0
-0.000035 0.000015 0
-0.000044 0.000019 0
-0.000056 0.000023 0
-0.000071 0.000028 0
-0.000088 0.000034 0
-0.000110 0.000041 0
-0.000135 0.000049 0
-0.000165 0.000058 0
-0.000201 0.000068 0
-0.000242 0.000079 0
-0.000290 0.000091 0
-0.000345 0.000105 0
-0.000407 0.000120 0
-0.000479 0.000138 0
-0.000561 0.000158 0
-0.000656 0.000183 0
-0.000764 0.000214 0
-0.000891 0.000253 0
-0.001040 0.000303 0
-0.001218 0.000371 0
-0.001433 0.000463 0
-0.001697 0.000589 0
-0.002025 0.000759 0
-0.002433 0.000978 0
-0.002932 0.001234 0
-0.003523 0.001484 0
-0.004182 0.001654 0
-0.004862 0.001662 0
-0.005503 0.001482 0
-0.006064 0.001180 0
-0.006538 0.000887 0
-0.006957 0.000718 0
-0.007357 0.000698 0
-0.007760 0.000778 0
-0.008160 0.000872 0
-0.008525 0.000897 0
-0.008799 0.000779 0
-0.008909 0.000455 0
-0.008772 -0.000124 0
-0.008307 -0.000973 0
-0.007460 -0.002045 0
-0.006212 -0.003209 0
-0.004590 -0.004208 0
-0.002731 -0.004582 0
-0.000970 -0.003566 0
0.000000 -0.001296 0
0.000000 0.001526 0
-0.000472 0.002778 0
-0.001192 0.001801 0
-0.001752 0.000656 0
-0.002080 0.000005 0
-0.002223 -0.000289 0
-0.002246 -0.000398 0
-0.002199 -0.000424 0
-0.002113 -0.000413 0
-0.002006 -0.000390 0
-0.001891 -0.000362 0
-0.001774 -0.000335 0
-0.001659 -0.000310 0
-0.001547 -0.000287 0
-0.001439 -0.000268 0
-0.001337 -0.000250 0
-0.001239 -0.000236 0
-0.001145 -0.000223 0
-0.001055 -0.000212 0
-0.000968 -0.000203 0
-0.000885 -0.000195 0
-0.000804 -0.000189 0
-0.000726 -0.000183 0
-0.000650 -0.000178 0
-0.000576 -0.000173 0
-0.000504 -0.000168 0
-0.000434 -0.000162 0
-0.000367 -0.000156 0
-0.000303 -0.000148 0
-0.000242 -0.000138 0
-0.000186 -0.000126 0
-0.000135 -0.000111 0
-0.000090 -0.000092 0
-0.000053 -0.000070 0
-0.000025 -0.000045 0
-0.000007 -0.000021 0
0.000000 -0.000004 0
0.000000 0.000000 0
0.000000 0.000000 0
0.000000 0.000000 0
0.000000 0.000000 0
-0.000000 0.000001 0
-0.000001 0.000001 0
-0.000002 0.000002 0
-0.000003 0.000003 0
-0.000004 0.000004 0
-0.000006 0.000005 0
-0.000008 0.000006 0
-0.000011 0.000008 0
-0.000014 0.000010 0
-0.000019 0.000012 0
-0.000024 0.000016 0
-0.000031 0.000019 0
-0.000040 0.000024 0
-0.000050 0.000030 0
-0.000064 0.000037 0
-0.000080 0.000046 0
-0.000100 0.000056 0
-0.000125 0.000067 0
-0.000154 0.000080 0
-0.000189 0.000094 0
-0.000231 0.000110 0
-0.000279 0.000128 0
-0.000334 0.000147 0
-0.000398 0.000169 0
-0.000471 0.000194 0
-0.000554 0.000222 0
-0.000648 0.000254 0
-0.000756 0.000294 0
-0.000879 0.000341 0
-0.001021 0.000401 0
-0.001187 0.000479 0
-0.001380 0.000580 0
-0.001610 0.000715 0
-0.001884 0.000897 0
-0.002212 0.001134 0
-0.002603 0.001432 0
-0.003062 0.001768 0
-0.003584 0.002086 0
-0.004152 0.002292 0
-0.004738 0.002294 0
-0.005310 0.002069 0
-0.005847 0.001705 0
-0.006341 0.001361 0
-0.006800 0.001160 0
-0.007230 0.001125 0
-0.007633 0.001186 0
-0.007993 0.001237 0
-0.008278 0.001175 0
-0.008442 0.000909 0
-0.008427 0.000368 0
-0.008175 -0.000497 0
-0.007640 -0.001680 0
-0.006794 -0.003111 0
-0.005622 -0.004627 0
-0.004143 -0.005902 0
-0.002463 -0.006331 0
-0.000872 -0.004877 0
0.000000 -0.001759 0
0.000000 0.001734 0
-0.000377 0.003329 0
-0.001030 0.002431 0
-0.001598 0.001126 0
-0.001981 0.000281 0
-0.002194 -0.000166 0
-0.002280 -0.000379 0
-0.002282 -0.000468 0
-0.002231 -0.000496 0
-0.002148 -0.000492 0
-0.002046 -0.000475 0
-0.001935 -0.000451 0
-0.001821 -0.000425 0
-0.001707 -0.000400 0
-0.001595 -0.000377 0
-0.001486 -0.000356 0
-0.001381 -0.000337 0
-0.001279 -0.000320 0
-0.001180 -0.000306 0
-0.001085 -0.000293 0
-0.000993 -0.000283 0
-0.000904 -0.000273 0
-0.000817 -0.000265 0
-0.000732 -0.000257 0
-0.000650 -0.000250 0
-0.000570 -0.000243 0
-0.000493 -0.000235 0
-0.000418 -0.000226 0
-0.000346 -0.000215 0
-0.000278 -0.000201 0
-0.000215 -0.000184 0
-0.000157 -0.000162 0
-0.000106 -0.000136 0
-0.000063 -0.000106 0
-0.000030 -0.000071 0
-0.000008 -0.000034 0
0.000000 -0.000008 0
0.000000 0.000000 0
0.000000 0.000000 0
0.000000 0.000000 0
0.000000 0.000000 0
-0.000000 0.000001 0
-0.000001 0.000002 0
-0.000002 0.000003 0
-0.000003 0.000004 0
-0.000004 0.000005 0
-0.000006 0.000007 0
-0.000008 0.000009 0
-0.000011 0.000011 0
-0.000015 0.000014 0
-0.000019 0.000017 0
-0.000025 0.000022 0
-0.000032 0.000027 0
-0.000040 0.000034 0
-0.000052 0.000043 0
-0.000066 0.000053 0
-0.000083 0.000065 0
-0.000104 0.000079 0
-0.000130 0.000095 0
-0.000162 0.000114 0
-0.000200 0.000134 0
-0.000245 0.000157 0
-0.000297 0.000182 0
-0.000357 0.000210 0
-0.000426 0.000241 0
-0.000505 0.000276 0
-0.000595 0.000315 0
-0.000696 0.000360 0
-0.000810 0.000414 0
-0.000940 0.000479 0
-0.001088 0.000560 0
-0.001257 0.000662 0
-0.001451 0.000794 0
-0.001674 0.000966 0
-0.001932 0.001191 0
-0.002227 0.001479 0
-0.002563 0.001828 0
-0.002936 0.002214 0
-0.003343 0.002574 0
-0.003777 0.002808 0
-0.004233 0.002821 0
-0.004706 0.002591 0
-0.005189 0.002211 0
-0.005665 0.001840 0
-0.006115 0.001607 0
-0.006522 0.001532 0
-0.006872 0.001541 0
-0.007151 0.001517 0
-0.007337 0.001346 0
-0.007398 0.000928 0
-0.007300 0.000189 0
-0.007008 -0.000911 0
-0.006504 -0.002354 0
-0.005769 -0.004063 0
-0.004784 -0.005860 0
-0.003549 -0.007367 0
-0.002131 -0.007853 0
-0.000765 -0.006029 0
0.000000 -0.002168 0
0.000000 0.001903 0
-0.000313 0.003808 0
-0.000901 0.003022 0
-0.001453 0.001608 0
-0.001858 0.000601 0
-0.002112 0.000011 0
-0.002244 -0.000310 0
-0.002286 -0.000473 0
-0.002267 -0.000548 0
-0.002208 -0.000575 0
-0.002123 -0.000574 0
-0.002023 -0.000560 0
-0.001916 -0.000538 0
-0.001804 -0.000513 0
-0.001693 -0.000489 0
-0.001582 -0.000465 0
-0.001474 -0.000443 0
-0.001368 -0.000423 0
-0.001265 -0.000406 0
-0.001165 -0.000390 0
-0.001068 -0.000377 0
-0.000973 -0.000365 0
-0.000881 -0.000354 0
-0.000791 -0.000344 0
-0.000703 -0.000335 0
-0.000618 -0.000325 0
-0.000535 -0.000314 0
-0.000455 -0.000302 0
-0.000378 -0.000288 0
-0.000305 -0.000270 0
-0.000236 -0.000247 0
-0.000173 -0.000220 0
-0.000118 -0.000186 0
-0.000070 -0.000146 0
-0.000034 -0.000100 0
-0.000009 -0.000050 0
0.000000 -0.000012 0
0.000000 0.000000 0
0.000000 0.000000 0
0.000000 0.000000 0
0.000000 0.000000 0
-0.000000 0.000001 0
-0.000001 0.000003 0
-0.000002 0.000004 0
-0.000003 0.000005 0
-0.000004 0.000007 0
-0.000006 0.000009 0
-0.000008 0.000011 0
-0.000010 0.000014 0
-0.000014 0.000018 0
-0.000018 0.000022 0
-0.000023 0.000028 0
-0.000029 0.000035 0
-0.000038 0.000044 0
-0.000048 0.000055 0
-0.000062 0.000069 0
-0.000079 0.000085 0
-0.000100 0.000103 0
-0.000126 0.000125 0
-0.000159 0.000149 0
-0.000197 0.000176 0
-0.000244 0.000207 0
-0.000298 0.000240 0
-0.000360 0.000277 0
-0.000432 0.000317 0
-0.000514 0.000362 0
-0.000606 0.000412 0
-0.000710 0.000470 0
-0.000826 0.000538 0
-0.000955 0.000619 0
-0.001101 0.000718 0
-0.001264 0.000841 0
-0.001446 0.000997 0
-0.001650 0.001196 0
-0.001875 0.001450 0
-0.002121 0.001766 0
-0.002383 0.002141 0
-0.002657 0.002548 0
-0.002939 0.002927 0
-0.003232 0.003182 0
-0.003550 0.003223 0
-0.003908 0.003025 0
-0.004310 0.002664 0
-0.004733 0.002287 0
-0.005141 0.002017 0
-0.005496 0.001882 0
-0.005776 0.001815 0
-0.005968 0.001702 0
-0.006063 0.001422 0
-0.006048 0.000872 0
-0.005909 -0.000022 0
-0.005635 -0.001292 0
-0.005218 -0.002919 0
-0.004642 -0.004831 0
-0.003883 -0.006847 0
-0.002920 -0.008555 0
-0.001787 -0.009115 0
-0.000658 -0.007008 0
0.000000 -0.002524 0
0.000000 0.002047 0
-0.000268 0.004230 0
-0.000800 0.003571 0
-0.001326 0.002083 0
-0.001734 0.000940 0
-0.002010 0.000220 0
-0.002171 -0.000205 0
-0.002243 -0.000445 0
-0.002250 -0.000574 0
-0.002213 -0.000636 0
-0.002145 -0.000659 0
-0.002058 -0.000658 0
-0.001959 -0.000644 0
-0.001853 -0.000623 0
-0.001745 -0.000599 0
-0.001636 -0.000574 0
-0.001528 -0.000551 0
-0.001422 -0.000529 0
-0.001317 -0.000509 0
-0.001215 -0.000491 0
-0.001115 -0.000475 0
-0.001018 -0.000460 0
-0.000923 -0.000447 0
-0.000829 -0.000435 0
-0.000739 -0.000423 0
-0.000650 -0.000411 0
-0.000564 -0.000398 0
-0.000480 -0.000383 0
-0.000400 -0.000365 0
-0.000323 -0.000343 0
-0.000251 -0.000315 0
-0.000185 -0.000281 0
-0.000126 -0.000239 0
-0.000076 -0.000190 0
-0.000036 -0.000132 0
-0.000010 -0.000068 0
0.000000 -0.000017 0
0.000000 0.000000 0
0.000000 0.000000 0
0.000000 0.000000 0
0.000000 0.000000 0
-0.000000 0.000002 0
-0.000001 0.000003 0
-0.000001 0.000005 0
-0.000002 0.000006 0
-0.000004 0.000008 0
-0.000005 0.000011 0
-0.000007 0.000013 0
-0.000009 0.000017 0
-0.000012 0.000021 0
-0.000015 0.000027 0
-0.000019 0.000034 0
-0.000025 0.000042 0
-0.000032 0.000053 0
-0.000041 0.000067 0
-0.000053 0.000083 0
-0.000069 0.000103 0
-0.000089 0.000127 0
-0.000114 0.000154 0
-0.000145 0.000185 0
-0.000183 0.000219 0
-0.000229 0.000257 0
-0.000283 0.000299 0
-0.000346 0.000345 0
-0.000419 0.000394 0
-0.000500 0.000449 0
-0.000592 0.000510 0
-0.000694 0.000580 0
-0.000808 0.000660 0
-0.000933 0.000754 0
-0.001070 0.000868 0
-0.001221 0.001007 0
-0.001384 0.001180 0
-0.001560 0.001395 0
-0.001746 0.001662 0
-0.001937 0.001987 0
-0.002126 0.002365 0
-0.002305 0.002770 0
-0.002473 0.003149 0
-0.002639 0.003419 0
-0.002825 0.003497 0
-0.003062 0.003351 0
-0.003362 0.003036 0
-0.003706 0.002672 0
-0.004049 0.002370 0
-0.004342 0.002167 0
-0.004555 0.002013 0
-0.004675 0.001805 0
-0.004704 0.001426 0
-0.004642 0.000774 0
-0.004494 -0.000225 0
-0.004266 -0.001602 0
-0.003955 -0.003347 0
-0.003545 -0.005399 0
-0.003007 -0.007581 0
-0.002307 -0.009463 0
-0.001447 -0.010116 0
-0.000550 -0.007815 0
0.000000 -0.002826 0
0.000000 0.002171 0
-0.000234 0.004608 0
-0.000720 0.004081 0
-0.001218 0.002541 0
-0.001619 0.001284 0
-0.001904 0.000447 0
-0.002082 -0.000076 0
-0.002175 -0.000393 0
-0.002203 -0.000578 0
-0.002183 -0.000680 0
-0.002130 -0.000729 0
-0.002055 -0.000746 0
-0.001966 -0.000742 0
-0.001868 -0.000727 0
-0.001765 -0.000706 0
-0.001659 -0.000682 0
-0.001554 -0.000657 0
-0.001448 -0.000634 0
-0.001345 -0.000612 0
-0.001242 -0.000592 0
-0.001142 -0.000574 0
-0.001043 -0.000558 0
-0.000947 -0.000542 0
-0.000852 -0.000528 0
-0.000760 -0.000514 0
-0.000670 -0.000500 0
-0.000582 -0.000484 0
-0.000496 -0.000466 0
-0.000414 -0.000445 0
-0.000335 -0.000418 0
-0.000261 -0.000385 0
-0.000193 -0.000345 0
-0.000131 -0.000295 0
-0.000079 -0.000236 0
-0.000038 -0.000166 0
-0.000010 -0.000087 0
0.000000 -0.000022 0
0.000000 0.000000 0
0.000000 0.000000 0
0.000000 0.000000 0
0.000000 0.000001 0
-0.000000 0.000002 0
-0.000001 0.000004 0
-0.000001 0.000006 0
-0.000002 0.000007 0
-0.000003 0.000009 0
-0.000004 0.000012 0
-0.000005 0.000015 0
-0.000006 0.000019 0
-0.000008 0.000024 0
-0.000011 0.000030 0
-0.000014 0.000038 0
-0.000018 0.000048 0
-0.000023 0.000061 0
-0.000031 0.000077 0
-0.000040 0.000096 0
-0.000053 0.000120 0
-0.000070 0.000148 0
-0.000093 0.000181 0
-0.000122 0.000218 0
-0.000158 0.000260 0
-0.000202 0.000307 0
-0.000255 0.000357 0
-0.000317 0.000412 0
-0.000388 0.000471 0
-0.000468 0.000535 0
-0.000557 0.000606 0
-0.000656 0.000686 0
-0.000763 0.000776 0
-0.000880 0.000881 0
-0.001006 0.001006 0
-0.001140 0.001155 0
-0.001281 0.001337 0
-0.001427 0.001558 0
-0.001572 0.001827 0
-0.001711 0.002145 0
-0.001834 0.002509 0
-0.001934 0.002896 0
-0.002009 0.003260 0
-0.002070 0.003534 0
-0.002143 0.003647 0
-0.002263 0.003562 0
-0.002452 0.003308 0
-0.002699 0.002974 0
-0.002963 0.002653 0
-0.003191 0.002388 0
-0.003348 0.002149 0
-0.003418 0.001851 0
-0.003407 0.001388 0
-0.003327 0.000663 0
-0.003194 -0.000398 0
-0.003021 -0.001831 0
-0.002811 -0.003640 0
-0.002551 -0.005780 0
-0.002207 -0.008085 0
-0.001738 -0.010115 0
-0.001125 -0.010872 0
-0.000444 -0.008455 0
0.000000 -0.003074 0
0.000000 0.002281 0
-0.000209 0.004951 0
-0.000656 0.004555 0
-0.001126 0.002982 0
-0.001517 0.001625 0
-0.001802 0.000683 0
-0.001990 0.000067 0
-0.002097 -0.000324 0
-0.002139 -0.000566 0
-0.002134 -0.000709 0
-0.002094 -0.000787 0
-0.002029 -0.000823 0
-0.001949 -0.000832 0
-0.001858 -0.000824 0
-0.001761 -0.000807 0
-0.001660 -0.000785 0
-0.001558 -0.000761 0
-0.001455 -0.000738 0
-0.001353 -0.000715 0
-0.001252 -0.000693 0
-0.001153 -0.000673 0
-0.001055 -0.000655 0
-0.000958 -0.000638 0
-0.000864 -0.000622 0
-0.000771 -0.000606 0
-0.000680 -0.000589 0
-0.000591 -0.000571 0
-0.000505 -0.000551 0
-0.000422 -0.000526 0
-0.000342 -0.000495 0
-0.000267 -0.000457 0
-0.000197 -0.000411 0
-0.000135 -0.000353 0
-0.000081 -0.000283 0
-0.000039 -0.000201 0
-0.000011 -0.000106 0
0.000000 -0.000028 0
0.000000 0.000000 0
0.000000 0.000000 0
0.000000 0.000000 0
0.000000 0.000001 0
-0.000000 0.000002 0
-0.000000 0.000004 0
-0.000001 0.000006 0
-0.000001 0.000008 0
-0.000002 0.000010 0