# vtk DataFile Version 2.0
generated by CFD-lab course output (written by Tobias Neckel) 
ASCII

DATASET STRUCTURED_GRID
DIMENSIONS  99 49 1 
POINTS 4851 float

0.000000 0.000000 0
0.020000 0.000000 0
0.040000 0.000000 0
0.060000 0.000000 0
0.080000 0.000000 0
0.100000 0.000000 0
0.120000 0.000000 0
0.140000 0.000000 0
0.160000 0.000000 0
0.180000 0.000000 0
0.200000 0.000000 0
0.220000 0.000000 0
0.240000 0.000000 0
0.260000 0.000000 0
0.280000 0.000000 0
0.300000 0.000000 0
0.320000 0.000000 0
0.340000 0.000000 0
0.360000 0.000000 0
0.380000 0.000000 0
0.400000 0.000000 0
0.420000 0.000000 0
0.440000 0.000000 0
0.460000 0.000000 0
0.480000 0.000000 0
0.500000 0.000000 0
0.520000 0.000000 0
0.540000 0.000000 0
0.560000 0.000000 0
0.580000 0.000000 0
0.600000 0.000000 0
0.620000 0.000000 0
0.640000 0.000000 0
0.660000 0.000000 0
0.680000 0.000000 0
0.700000 0.000000 0
0.720000 0.000000 0
0.740000 0.000000 0
0.760000 0.000000 0
0.780000 0.000000 0
0.800000 0.000000 0
0.820000 0.000000 0
0.840000 0.000000 0
0.860000 0.000000 0
0.880000 0.000000 0
0.900000 0.000000 0
0.920000 0.000000 0
0.940000 0.000000 0
0.960000 0.000000 0
0.980000 0.000000 0
1.000000 0.000000 0
1.020000 0.000000 0
1.040000 0.000000 0
1.060000 0.000000 0
1.080000 0.000000 0
1.100000 0.000000 0
1.120000 0.000000 0
1.140000 0.000000 0
1.160000 0.000000 0
1.180000 0.000000 0
1.200000 0.000000 0
1.220000 0.000000 0
1.240000 0.000000 0
1.260000 0.000000 0
1.280000 0.000000 0
1.300000 0.000000 0
1.320000 0.000000 0
1.340000 0.000000 0
1.360000 0.000000 0
1.380000 0.000000 0
1.400000 0.000000 0
1.420000 0.000000 0
1.440000 0.000000 0
1.460000 0.000000 0
1.480000 0.000000 0
1.500000 0.000000 0
1.520000 0.000000 0
1.540000 0.000000 0
1.560000 0.000000 0
1.580000 0.000000 0
1.600000 0.000000 0
1.620000 0.000000 0
1.640000 0.000000 0
1.660000 0.000000 0
1.680000 0.000000 0
1.700000 0.000000 0
1.720000 0.000000 0
1.740000 0.000000 0
1.760000 0.000000 0
1.780000 0.000000 0
1.800000 0.000000 0
1.820000 0.000000 0
1.840000 0.000000 0
1.860000 0.000000 0
1.880000 0.000000 0
1.900000 0.000000 0
1.920000 0.000000 0
1.940000 0.000000 0
1.960000 0.000000 0
0.000000 0.020000 0
0.020000 0.020000 0
0.040000 0.020000 0
0.060000 0.020000 0
0.080000 0.020000 0
0.100000 0.020000 0
0.120000 0.020000 0
0.140000 0.020000 0
0.160000 0.020000 0
0.180000 0.020000 0
0.200000 0.020000 0
0.220000 0.020000 0
0.240000 0.020000 0
0.260000 0.020000 0
0.280000 0.020000 0
0.300000 0.020000 0
0.320000 0.020000 0
0.340000 0.020000 0
0.360000 0.020000 0
0.380000 0.020000 0
0.400000 0.020000 0
0.420000 0.020000 0
0.440000 0.020000 0
0.460000 0.020000 0
0.480000 0.020000 0
0.500000 0.020000 0
0.520000 0.020000 0
0.540000 0.020000 0
0.560000 0.020000 0
0.580000 0.020000 0
0.600000 0.020000 0
0.620000 0.020000 0
0.640000 0.020000 0
0.660000 0.020000 0
0.680000 0.020000 0
0.700000 0.020000 0
0.720000 0.020000 0
0.740000 0.020000 0
0.760000 0.020000 0
0.780000 0.020000 0
0.800000 0.020000 0
0.820000 0.020000 0
0.840000 0.020000 0
0.860000 0.020000 0
0.880000 0.020000 0
0.900000 0.020000 0
0.920000 0.020000 0
0.940000 0.020000 0
0.960000 0.020000 0
0.980000 0.020000 0
1.000000 0.020000 0
1.020000 0.020000 0
1.040000 0.020000 0
1.060000 0.020000 0
1.080000 0.020000 0
1.100000 0.020000 0
1.120000 0.020000 0
1.140000 0.020000 0
1.160000 0.020000 0
1.180000 0.020000 0
1.200000 0.020000 0
1.220000 0.020000 0
1.240000 0.020000 0
1.260000 0.020000 0
1.280000 0.020000 0
1.300000 0.020000 0
1.320000 0.020000 0
1.340000 0.020000 0
1.360000 0.020000 0
1.380000 0.020000 0
1.400000 0.020000 0
1.420000 0.020000 0
1.440000 0.020000 0
1.460000 0.020000 0
1.480000 0.020000 0
1.500000 0.020000 0
1.520000 0.020000 0
1.540000 0.020000 0
1.560000 0.020000 0
1.580000 0.020000 0
1.600000 0.020000 0
1.620000 0.020000 0
1.640000 0.020000 0
1.660000 0.020000 0
1.680000 0.020000 0
1.700000 0.020000 0
1.720000 0.020000 0
1.740000 0.020000 0
1.760000 0.020000 0
1.780000 0.020000 0
1.800000 0.020000 0
1.820000 0.020000 0
1.840000 0.020000 0
1.860000 0.020000 0
1.880000 0.020000 0
1.900000 0.020000 0
1.920000 0.020000 0
1.940000 0.020000 0
1.960000 0.020000 0
0.000000 0.040000 0
0.020000 0.040000 0
0.040000 0.040000 0
0.060000 0.040000 0
0.080000 0.040000 0
0.100000 0.040000 0
0.120000 0.040000 0
0.140000 0.040000 0
0.160000 0.040000 0
0.180000 0.040000 0
0.200000 0.040000 0
0.220000 0.040000 0
0.240000 0.040000 0
0.260000 0.040000 0
0.280000 0.040000 0
0.300000 0.040000 0
0.320000 0.040000 0
0.340000 0.040000 0
0.360000 0.040000 0
0.380000 0.040000 0
0.400000 0.040000 0
0.420000 0.040000 0
0.440000 0.040000 0
0.460000 0.040000 0
0.480000 0.040000 0
0.500000 0.040000 0
0.520000 0.040000 0
0.540000 0.040000 0
0.560000 0.040000 0
0.580000 0.040000 0
0.600000 0.040000 0
0.620000 0.040000 0
0.640000 0.040000 0
0.660000 0.040000 0
0.680000 0.040000 0
0.700000 0.040000 0
0.720000 0.040000 0
0.740000 0.040000 0
0.760000 0.040000 0
0.780000 0.040000 0
0.800000 0.040000 0
0.820000 0.040000 0
0.840000 0.040000 0
0.860000 0.040000 0
0.880000 0.040000 0
0.900000 0.040000 0
0.920000 0.040000 0
0.940000 0.040000 0
0.960000 0.040000 0
0.980000 0.040000 0
1.000000 0.040000 0
1.020000 0.040000 0
1.040000 0.040000 0
1.060000 0.040000 0
1.080000 0.040000 0
1.100000 0.040000 0
1.120000 0.040000 0
1.140000 0.040000 0
1.160000 0.040000 0
1.180000 0.040000 0
1.200000 0.040000 0
1.220000 0.040000 0
1.240000 0.040000 0
1.260000 0.040000 0
1.280000 0.040000 0
1.300000 0.040000 0
1.320000 0.040000 0
1.340000 0.040000 0
1.360000 0.040000 0
1.380000 0.040000 0
1.400000 0.040000 0
1.420000 0.040000 0
1.440000 0.040000 0
1.460000 0.040000 0
1.480000 0.040000 0
1.500000 0.040000 0
1.520000 0.040000 0
1.540000 0.040000 0
1.560000 0.040000 0
1.580000 0.040000 0
1.600000 0.040000 0
1.620000 0.040000 0
1.640000 0.040000 0
1.660000 0.040000 0
1.680000 0.040000 0
1.700000 0.040000 0
1.720000 0.040000 0
1.740000 0.040000 0
1.760000 0.040000 0
1.780000 0.040000 0
1.800000 0.040000 0
1.820000 0.040000 0
1.840000 0.040000 0
1.860000 0.040000 0
1.880000 0.040000 0
1.900000 0.040000 0
1.920000 0.040000 0
1.940000 0.040000 0
1.960000 0.040000 0
0.000000 0.060000 0
0.020000 0.060000 0
0.040000 0.060000 0
0.060000 0.060000 0
0.080000 0.060000 0
0.100000 0.060000 0
0.120000 0.060000 0
0.140000 0.060000 0
0.160000 0.060000 0
0.180000 0.060000 0
0.200000 0.060000 0
0.220000 0.060000 0
0.240000 0.060000 0
0.260000 0.060000 0
0.280000 0.060000 0
0.300000 0.060000 0
0.320000 0.060000 0
0.340000 0.060000 0
0.360000 0.060000 0
0.380000 0.060000 0
0.400000 0.060000 0
0.420000 0.060000 0
0.440000 0.060000 0
0.460000 0.060000 0
0.480000 0.060000 0
0.500000 0.060000 0
0.520000 0.060000 0
0.540000 0.060000 0
0.560000 0.060000 0
0.580000 0.060000 0
0.600000 0.060000 0
0.620000 0.060000 0
0.640000 0.060000 0
0.660000 0.060000 0
0.680000 0.060000 0
0.700000 0.060000 0
0.720000 0.060000 0
0.740000 0.060000 0
0.760000 0.060000 0
0.780000 0.060000 0
0.800000 0.060000 0
0.820000 0.060000 0
0.840000 0.060000 0
0.860000 0.060000 0
0.880000 0.060000 0
0.900000 0.060000 0
0.920000 0.060000 0
0.940000 0.060000 0
0.960000 0.060000 0
0.980000 0.060000 0
1.000000 0.060000 0
1.020000 0.060000 0
1.040000 0.060000 0
1.060000 0.060000 0
1.080000 0.060000 0
1.100000 0.060000 0
1.120000 0.060000 0
1.140000 0.060000 0
1.160000 0.060000 0
1.180000 0.060000 0
1.200000 0.060000 0
1.220000 0.060000 0
1.240000 0.060000 0
1.260000 0.060000 0
1.280000 0.060000 0
1.300000 0.060000 0
1.320000 0.060000 0
1.340000 0.060000 0
1.360000 0.060000 0
1.380000 0.060000 0
1.400000 0.060000 0
1.420000 0.060000 0
1.440000 0.060000 0
1.460000 0.060000 0
1.480000 0.060000 0
1.500000 0.060000 0
1.520000 0.060000 0
1.540000 0.060000 0
1.560000 0.060000 0
1.580000 0.060000 0
1.600000 0.060000 0
1.620000 0.060000 0
1.640000 0.060000 0
1.660000 0.060000 0
1.680000 0.060000 0
1.700000 0.060000 0
1.720000 0.060000 0
1.740000 0.060000 0
1.760000 0.060000 0
1.780000 0.060000 0
1.800000 0.060000 0
1.820000 0.060000 0
1.840000 0.060000 0
1.860000 0.060000 0
1.880000 0.060000 0
1.900000 0.060000 0
1.920000 0.060000 0
1.940000 0.060000 0
1.960000 0.060000 0
0.000000 0.080000 0
0.020000 0.080000 0
0.040000 0.080000 0
0.060000 0.080000 0
0.080000 0.080000 0
0.100000 0.080000 0
0.120000 0.080000 0
0.140000 0.080000 0
0.160000 0.080000 0
0.180000 0.080000 0
0.200000 0.080000 0
0.220000 0.080000 0
0.240000 0.080000 0
0.260000 0.080000 0
0.280000 0.080000 0
0.300000 0.080000 0
0.320000 0.080000 0
0.340000 0.080000 0
0.360000 0.080000 0
0.380000 0.080000 0
0.400000 0.080000 0
0.420000 0.080000 0
0.440000 0.080000 0
0.460000 0.080000 0
0.480000 0.080000 0
0.500000 0.080000 0
0.520000 0.080000 0
0.540000 0.080000 0
0.560000 0.080000 0
0.580000 0.080000 0
0.600000 0.080000 0
0.620000 0.080000 0
0.640000 0.080000 0
0.660000 0.080000 0
0.680000 0.080000 0
0.700000 0.080000 0
0.720000 0.080000 0
0.740000 0.080000 0
0.760000 0.080000 0
0.780000 0.080000 0
0.800000 0.080000 0
0.820000 0.080000 0
0.840000 0.080000 0
0.860000 0.080000 0
0.880000 0.080000 0
0.900000 0.080000 0
0.920000 0.080000 0
0.940000 0.080000 0
0.960000 0.080000 0
0.980000 0.080000 0
1.000000 0.080000 0
1.020000 0.080000 0
1.040000 0.080000 0
1.060000 0.080000 0
1.080000 0.080000 0
1.100000 0.080000 0
1.120000 0.080000 0
1.140000 0.080000 0
1.160000 0.080000 0
1.180000 0.080000 0
1.200000 0.080000 0
1.220000 0.080000 0
1.240000 0.080000 0
1.260000 0.080000 0
1.280000 0.080000 0
1.300000 0.080000 0
1.320000 0.080000 0
1.340000 0.080000 0
1.360000 0.080000 0
1.380000 0.080000 0
1.400000 0.080000 0
1.420000 0.080000 0
1.440000 0.080000 0
1.460000 0.080000 0
1.480000 0.080000 0
1.500000 0.080000 0
1.520000 0.080000 0
1.540000 0.080000 0
1.560000 0.080000 0
1.580000 0.080000 0
1.600000 0.080000 0
1.620000 0.080000 0
1.640000 0.080000 0
1.660000 0.080000 0
1.680000 0.080000 0
1.700000 0.080000 0
1.720000 0.080000 0
1.740000 0.080000 0
1.760000 0.080000 0
1.780000 0.080000 0
1.800000 0.080000 0
1.820000 0.080000 0
1.840000 0.080000 0
1.860000 0.080000 0
1.880000 0.080000 0
[...]
POINT_DATA 4851 

VECTORS velocity float
0.000000 0.000000 0
-0.000456 0.000000 0
-0.000596 0.000000 0
-0.000543 0.000000 0
-0.000451 0.000000 0
-0.000372 0.000000 0
-0.000310 0.000000 0
-0.000264 0.000000 0
-0.000229 0.000000 0
-0.000201 0.000000 0
-0.000179 0.000000 0
-0.000161 0.000000 0
-0.000145 0.000000 0
-0.000132 0.000000 0
-0.000119 0.000000 0
-0.000108 0.000000 0
-0.000098 0.000000 0
-0.000088 0.000000 0
-0.000079 0.000000 0
-0.000070 0.000000 0
-0.000061 0.000000 0
-0.000052 0.000000 0
-0.000044 0.000000 0
-0.000036 0.000000 0
-0.000029 0.000000 0
-0.000022 0.000000 0
-0.000016 0.000000 0
-0.000011 0.000000 0
-0.000006 0.000000 0
-0.000003 0.000000 0
-0.000000 0.000000 0
0.000002 0.000000 0
0.000002 0.000000 0
0.000002 0.000000 0
0.000002 0.000000 0
0.000001 0.000000 0
0.000000 0.000000 0
0.000000 0.000000 0
0.000000 0.000000 0
0.000000 0.000000 0
0.000000 0.000000 0
-0.000001 0.000000 0
-0.000009 0.000000 0
-0.000022 0.000000 0
-0.000040 0.000000 0
-0.000063 0.000000 0
-0.000091 0.000000 0
-0.000127 0.000000 0
-0.000176 0.000000 0
-0.000240 0.000000 0
-0.000326 0.000000 0
-0.000436 0.000000 0
-0.000566 0.000000 0
-0.000701 0.000000 0
-0.000821 0.000000 0
-0.000903 0.000000 0
-0.000937 0.000000 0
-0.000929 0.000000 0
-0.000895 0.000000 0
-0.000850 0.000000 0
-0.000807 0.000000 0
-0.000772 0.000000 0
-0.000746 0.000000 0
-0.000727 0.000000 0
-0.000714 0.000000 0
-0.000704 0.000000 0
-0.000697 0.000000 0
-0.000690 0.000000 0
-0.000684 0.000000 0
-0.000677 0.000000 0
-0.000668 0.000000 0
-0.000658 0.000000 0
-0.000645 0.000000 0
-0.000629 0.000000 0
-0.000610 0.000000 0
-0.000586 0.000000 0
-0.000558 0.000000 0
-0.000527 0.000000 0
-0.000495 0.000000 0
-0.000462 0.000000 0
-0.000433 0.000000 0
-0.000410 0.000000 0
-0.000398 0.000000 0
-0.000403 0.000000 0
-0.000427 0.000000 0
-0.000475 0.000000 0
-0.000549 0.000000 0
-0.000651 0.000000 0
-0.000779 0.000000 0
-0.000927 0.000000 0
-0.001083 0.000000 0
-0.001227 0.000000 0
-0.001332 0.000000 0
-0.001362 0.000000 0
-0.001278 0.000000 0
-0.001048 0.000000 0
-0.000680 0.000000 0
-0.000260 0.000000 0
0.000000 0.000000 0
0.000000 0.000456 0
-0.000913 0.000596 0
-0.001398 0.000087 0
-0.001450 -0.000144 0
-0.001331 -0.000171 0
-0.001176 -0.000141 0
-0.001032 -0.000107 0
-0.000909 -0.000081 0
-0.000807 -0.000062 0
-0.000722 -0.000049 0
-0.000650 -0.000040 0
-0.000589 -0.000034 0
-0.000535 -0.000029 0
-0.000488 -0.000026 0
-0.000445 -0.000023 0
-0.000405 -0.000021 0
-0.000367 -0.000020 0
-0.000331 -0.000019 0
-0.000297 -0.000018 0
-0.000264 -0.000018 0
-0.000232 -0.000017 0
-0.000201 -0.000016 0
-0.000172 -0.000016 0
-0.000143 -0.000015 0
-0.000117 -0.000014 0
-0.000092 -0.000013 0
-0.000069 -0.000011 0
-0.000049 -0.000010 0
-0.000032 -0.000008 0
-0.000018 -0.000006 0
-0.000008 -0.000004 0
-0.000000 -0.000002 0
0.000004 -0.000000 0
0.000005 0.000001 0
0.000004 0.000002 0
0.000002 0.000002 0
0.000000 0.000001 0
0.000000 0.000000 0
0.000000 0.000000 0
0.000000 0.000000 0
0.000000 0.000001 0
-0.000010 0.000009 0
-0.000038 0.000021 0
-0.000083 0.000031 0
-0.000143 0.000040 0
-0.000219 0.000050 0
-0.000315 0.000064 0
-0.000438 0.000084 0
-0.000599 0.000112 0
-0.000811 0.000150 0
-0.001086 0.000195 0
-0.001428 0.000239 0
-0.001820 0.000264 0
-0.002220 0.000254 0
-0.002566 0.000201 0
-0.002805 0.000116 0
-0.002914 0.000026 0
-0.002910 -0.000043 0
-0.002833 -0.000080 0
-0.002727 -0.000088 0
-0.002620 -0.000079 0
-0.002528 -0.000062 0
-0.002455 -0.000046 0
-0.002399 -0.000033 0
-0.002357 -0.000024 0
-0.002324 -0.000018 0
-0.002297 -0.000015 0
-0.002273 -0.000014 0
-0.002250 -0.000014 0
-0.002225 -0.000016 0
-0.002197 -0.000019 0
-0.002162 -0.000024 0
-0.002120 -0.000029 0
-0.002068 -0.000036 0
-0.002005 -0.000044 0
-0.001931 -0.000052 0
-0.001848 -0.000059 0
-0.001757 -0.000064 0
-0.001664 -0.000066 0
-0.001575 -0.000063 0
-0.001501 -0.000053 0
-0.001454 -0.000035 0
-0.001445 -0.000008 0
-0.001488 0.000028 0
-0.001595 0.000071 0
-0.001774 0.000122 0
-0.002030 0.000176 0
-0.002360 0.000229 0
-0.002749 0.000276 0
-0.003172 0.000304 0
-0.003584 0.000300 0
-0.003923 0.000249 0
-0.004111 0.000134 0
-0.004060 -0.000055 0
-0.003682 -0.000315 0
-0.002932 -0.000598 0
-0.001865 -0.000787 0
-0.000710 -0.000680 0
0.000000 -0.000261 0
0.000000 0.000914 0
-0.000807 0.001399 0
-0.001545 0.000537 0
-0.001868 -0.000067 0
-0.001909 -0.000273 0
-0.001817 -0.000298 0
-0.001680 -0.000267 0
-0.001534 -0.000225 0
-0.001398 -0.000187 0
-0.001274 -0.000156 0
-0.001164 -0.000133 0
-0.001065 -0.000114 0
-0.000976 -0.000101 0
-0.000895 -0.000091 0
-0.000821 -0.000083 0
-0.000751 -0.000077 0
-0.000684 -0.000073 0
-0.000620 -0.000070 0
-0.000559 -0.000067 0
-0.000499 -0.000065 0
-0.000442 -0.000063 0
-0.000386 -0.000060 0
-0.000332 -0.000058 0
-0.000280 -0.000055 0
-0.000231 -0.000051 0
-0.000186 -0.000047 0
-0.000144 -0.000042 0
-0.000107 -0.000037 0
-0.000075 -0.000031 0
-0.000048 -0.000024 0
-0.000027 -0.000018 0
-0.000012 -0.000011 0
-0.000002 -0.000005 0
0.000003 0.000000 0
0.000003 0.000004 0
0.000002 0.000004 0
0.000000 0.000002 0
0.000000 0.000000 0
0.000000 0.000000 0
0.000000 0.000000 0
0.000000 0.000009 0
-0.000021 0.000038 0
-0.000073 0.000073 0
-0.000149 0.000105 0
-0.000249 0.000135 0
-0.000374 0.000171 0
-0.000532 0.000218 0
-0.000732 0.000283 0
-0.000991 0.000372 0
-0.001323 0.000487 0
-0.001744 0.000617 0
-0.002252 0.000733 0
-0.002819 0.000791 0
-0.003385 0.000745 0
-0.003872 0.000585 0
-0.004216 0.000348 0
-0.004394 0.000104 0
-0.004430 -0.000082 0
-0.004372 -0.000184 0
-0.004269 -0.000214 0
-0.004155 -0.000200 0
-0.004048 -0.000166 0
-0.003956 -0.000130 0
-0.003879 -0.000099 0
-0.003817 -0.000076 0
-0.003765 -0.000060 0
-0.003722 -0.000051 0
-0.003682 -0.000048 0
-0.003643 -0.000049 0
-0.003602 -0.000054 0
-0.003555 -0.000064 0
-0.003500 -0.000078 0
-0.003434 -0.000095 0
-0.003354 -0.000115 0
-0.003260 -0.000137 0
-0.003153 -0.000158 0
-0.003034 -0.000175 0
-0.002909 -0.000185 0
-0.002788 -0.000182 0
-0.002681 -0.000163 0
-0.002603 -0.000123 0
-0.002572 -0.000057 0
-0.002606 0.000034 0
-0.002722 0.000150 0
-0.002934 0.000285 0
-0.003248 0.000434 0
-0.003663 0.000585 0
-0.004163 0.000718 0
-0.004716 0.000812 0
-0.005270 0.000834 0
-0.005755 0.000750 0
-0.006081 0.000527 0
-0.006148 0.000137 0
-0.005856 -0.000430 0
-0.005129 -0.001128 0
-0.003963 -0.001817 0
-0.002460 -0.002222 0
-0.000921 -0.001865 0
0.000000 -0.000710 0
0.000000 0.001264 0
-0.000614 0.002141 0
-0.001381 0.001148 0
-0.001868 0.000220 0
-0.002073 -0.000222 0
-0.002098 -0.000370 0
-0.002029 -0.000390 0
-0.001918 -0.000363 0
-0.001792 -0.000323 0
-0.001666 -0.000283 0
-0.001545 -0.000249 0
-0.001430 -0.000221 0
-0.001323 -0.000199 0
-0.001223 -0.000181 0
-0.001128 -0.000168 0
-0.001037 -0.000158 0
-0.000950 -0.000150 0
-0.000866 -0.000144 0
-0.000784 -0.000139 0
-0.000704 -0.000135 0
-0.000626 -0.000131 0
-0.000550 -0.000126 0
-0.000477 -0.000121 0
-0.000407 -0.000115 0
-0.000340 -0.000108 0
-0.000277 -0.000100 0
-0.000220 -0.000090 0
-0.000168 -0.000079 0
-0.000122 -0.000067 0
-0.000084 -0.000054 0
-0.000053 -0.000041 0
-0.000029 -0.000027 0
-0.000013 -0.000015 0
-0.000003 -0.000004 0
0.000001 0.000003 0
0.000001 0.000005 0
0.000000 0.000002 0
0.000000 0.000000 0
0.000000 0.000000 0
0.000000 0.000000 0
0.000000 0.000022 0
-0.000029 0.000081 0
-0.000095 0.000148 0
-0.000190 0.000206 0
-0.000312 0.000265 0
-0.000463 0.000333 0
-0.000652 0.000422 0
-0.000887 0.000543 0
-0.001182 0.000703 0
-0.001553 0.000904 0
-0.002009 0.001124 0
-0.002546 0.001314 0
-0.003136 0.001397 0
-0.003723 0.001307 0
-0.004238 0.001032 0
-0.004627 0.000638 0
-0.004866 0.000240 0
-0.004974 -0.000066 0
-0.004985 -0.000241 0
-0.004941 -0.000306 0
-0.004869 -0.000300 0
-0.004789 -0.000261 0
-0.004711 -0.000215 0
-0.004639 -0.000172 0
-0.004577 -0.000138 0
-0.004522 -0.000114 0
-0.004474 -0.000099 0
-0.004430 -0.000093 0
-0.004386 -0.000094 0
-0.004340 -0.000104 0
-0.004289 -0.000121 0
-0.004229 -0.000145 0
-0.004158 -0.000176 0
-0.004074 -0.000210 0
-0.003976 -0.000246 0
-0.003867 -0.000279 0
-0.003751 -0.000303 0
-0.003634 -0.000311 0
-0.003526 -0.000295 0
-0.003443 -0.000248 0
-0.003399 -0.000162 0
-0.003414 -0.000032 0
-0.003504 0.000142 0
-0.003684 0.000355 0
-0.003963 0.000597 0
-0.004342 0.000850 0
-0.004809 0.001090 0
-0.005338 0.001282 0
-0.005883 0.001383 0
-0.006381 0.001343 0
-0.006757 0.001111 0
-0.006924 0.000642 0
-0.006791 -0.000091 0
-0.006283 -0.001074 0
-0.005364 -0.002208 0
-0.004056 -0.003267 0
-0.002471 -0.003829 0
-0.000906 -0.003140 0
0.000000 -0.001182 0
0.000000 0.001528 0
-0.000470 0.002780 0
-0.001185 0.001791 0
-0.001734 0.000625 0
-0.002047 -0.000043 0
-0.002173 -0.000342 0
-0.002183 -0.000447 0
-0.002125 -0.000462 0
-0.002033 -0.000439 0
-0.001925 -0.000404 0
-0.001811 -0.000368 0
-0.001697 -0.000336 0
-0.001585 -0.000308 0
-0.001476 -0.000286 0
-0.001371 -0.000268 0
-0.001268 -0.000255 0
-0.001168 -0.000244 0
-0.001070 -0.000236 0
-0.000973 -0.000229 0
-0.000878 -0.000222 0
-0.000785 -0.000216 0
-0.000694 -0.000209 0
-0.000606 -0.000201 0
-0.000521 -0.000192 0
-0.000439 -0.000180 0
-0.000363 -0.000167 0
-0.000292 -0.000152 0
-0.000227 -0.000134 0
-0.000170 -0.000115 0
-0.000121 -0.000094 0
-0.000081 -0.000072 0
-0.000049 -0.000051 0
-0.000026 -0.000031 0
-0.000011 -0.000013 0
-0.000003 -0.000001 0
-0.000000 0.000005 0
0.000000 0.000003 0
0.000000 0.000000 0
0.000000 0.000000 0
0.000000 0.000000 0
0.000000 0.000038 0
-0.000032 0.000133 0
-0.000104 0.000234 0
-0.000206 0.000321 0
-0.000334 0.000409 0
-0.000491 0.000511 0
-0.000682 0.000641 0
-0.000914 0.000814 0
-0.001197 0.001039 0
-0.001541 0.001314 0
-0.001950 0.001609 0
-0.002421 0.001860 0
-0.002936 0.001967 0
-0.003460 0.001848 0
-0.003948 0.001489 0
-0.004356 0.000975 0
-0.004660 0.000451 0
-0.004859 0.000037 0
-0.004965 -0.000217 0
-0.005002 -0.000331 0
-0.004994 -0.000352 0
-0.004960 -0.000325 0
-0.004913 -0.000280 0
-0.004864 -0.000233 0
-0.004816 -0.000193 0
-0.004772 -0.000163 0
-0.004732 -0.000144 0
-0.004694 -0.000136 0
-0.004657 -0.000138 0
-0.004618 -0.000152 0
-0.004574 -0.000176 0
-0.004523 -0.000209 0
-0.004463 -0.000251 0
-0.004393 -0.000297 0
-0.004313 -0.000344 0
-0.004226 -0.000384 0
-0.004136 -0.000409 0
-0.004052 -0.000409 0
-0.003983 -0.000373 0
-0.003944 -0.000291 0
-0.003948 -0.000152 0
-0.004010 0.000047 0
-0.004144 0.000304 0
-0.004359 0.000608 0
-0.004658 0.000944 0
-0.005033 0.001281 0
-0.005467 0.001580 0
-0.005924 0.001791 0
-0.006358 0.001855 0
-0.006709 0.001709 0
-0.006910 0.001293 0
-0.006890 0.000561 0
-0.006587 -0.000504 0
-0.005960 -0.001857 0
-0.005002 -0.003354 0
-0.003737 -0.004710 0
-0.002256 -0.005373 0
-0.000817 -0.004337 0
0.000000 -0.001616 0
0.000000 0.001734 0
-0.000374 0.003326 0
-0.001020 0.002412 0
-0.001577 0.001081 0
-0.001945 0.000218 0
-0.002143 -0.000233 0
-0.002219 -0.000438 0
-0.002215 -0.000513 0
-0.002162 -0.000523 0
-0.002081 -0.000505 0
-0.001985 -0.000477 0
-0.001881 -0.000447 0
-0.001774 -0.000419 0
-0.001666 -0.000395 0
-0.001557 -0.000376 0
-0.001449 -0.000361 0
-0.001342 -0.000348 0
-0.001236 -0.000339 0
-0.001130 -0.000330 0
-0.001025 -0.000323 0
-0.000921 -0.000315 0
-0.000819 -0.000305 0
-0.000719 -0.000295 0
-0.000622 -0.000282 0
-0.000529 -0.000266 0
-0.000441 -0.000247 0
-0.000358 -0.000225 0
-0.000283 -0.000200 0
-0.000216 -0.000173 0
-0.000158 -0.000143 0
-0.000109 -0.000112 0
-0.000070 -0.000082 0
-0.000040 -0.000053 0
-0.000020 -0.000027 0
-0.000007 -0.000008 0
-0.000001 0.000002 0
0.000000 0.000002 0
0.000000 0.000000 0
0.000000 0.000000 0
0.000000 0.000000 0
0.000000 0.000054 0
-0.000031 0.000185 0
-0.000101 0.000321 0
-0.000199 0.000436 0
-0.000320 0.000550 0
-0.000465 0.000681 0
-0.000637 0.000845 0
-0.000839 0.001059 0
-0.001076 0.001330 0
-0.001350 0.001656 0
-0.001662 0.002004 0
-0.002013 0.002299 0
-0.002399 0.002436 0
-0.002813 0.002319 0
-0.003237 0.001928 0
-0.003644 0.001351 0
-0.004005 0.000743 0
-0.004294 0.000239 0
-0.004503 -0.000098 0
-0.004633 -0.000277 0
-0.004701 -0.000342 0
-0.004725 -0.000342 0
-0.004723 -0.000311 0
-0.004707 -0.000270 0
-0.004685 -0.000230 0
-0.004662 -0.000198 0
-0.004639 -0.000177 0
-0.004617 -0.000167 0
-0.004596 -0.000170 0
-0.004572 -0.000187 0
-0.004545 -0.000216 0
-0.004514 -0.000257 0
-0.004476 -0.000306 0
-0.004431 -0.000361 0
-0.004382 -0.000413 0
-0.004330 -0.000456 0
-0.004281 -0.000477 0
-0.004242 -0.000464 0
-0.004222 -0.000404 0
-0.004230 -0.000284 0
-0.004279 -0.000095 0
-0.004378 0.000165 0
-0.004535 0.000491 0
-0.004752 0.000868 0
-0.005028 0.001271 0
-0.005349 0.001660 0
-0.005693 0.001981 0
-0.006025 0.002174 0
-0.006304 0.002168 0
-0.006479 0.001894 0
-0.006501 0.001292 0
-0.006324 0.000319 0
-0.005915 -0.001021 0
-0.005264 -0.002659 0
-0.004374 -0.004431 0
-0.003254 -0.006014 0
-0.001966 -0.006748 0
-0.000715 -0.005396 0
0.000000 -0.001999 0
0.000000 0.001902 0
-0.000309 0.003800 0
-0.000890 0.002994 0
-0.001431 0.001551 0
-0.001822 0.000524 0
-0.002065 -0.000068 0
-0.002190 -0.000375 0
-0.002231 -0.000518 0
-0.002216 -0.000573 0
-0.002164 -0.000581 0
-0.002090 -0.000568 0
-0.002002 -0.000547 0
-0.001905 -0.000524 0
-0.001802 -0.000503 0
-0.001697 -0.000484 0
-0.001589 -0.000470 0
-0.001480 -0.000458 0
-0.001369 -0.000448 0
-0.001258 -0.000439 0
-0.001147 -0.000431 0
-0.001036 -0.000422 0
-0.000926 -0.000411 0
-0.000817 -0.000398 0
-0.000711 -0.000382 0
-0.000609 -0.000362 0
-0.000511 -0.000337 0
-0.000419 -0.000309 0
-0.000334 -0.000276 0
-0.000258 -0.000240 0
-0.000191 -0.000201 0
-0.000135 -0.000160 0
-0.000089 -0.000119 0
-0.000053 -0.000080 0
-0.000027 -0.000046 0
-0.000011 -0.000019 0
-0.000002 -0.000002 0
0.000000 0.000001 0
0.000000 0.000000 0
0.000000 0.000000 0
0.000000 0.000000 0
0.000000 0.000069 0
-0.000027 0.000233 0
-0.000089 0.000402 0
-0.000174 0.000540 0
-0.000278 0.000675 0
-0.000400 0.000828 0
-0.000538 0.001015 0
-0.000693 0.001253 0
-0.000864 0.001549 0
-0.001049 0.001900 0
-0.001245 0.002273 0
-0.001456 0.002596 0
-0.001691 0.002767 0
-0.001966 0.002686 0
-0.002293 0.002320 0
-0.002665 0.001743 0
-0.003052 0.001101 0
-0.003413 0.000535 0
-0.003716 0.000122 0
-0.003945 -0.000133 0
-0.004101 -0.000260 0
-0.004198 -0.000303 0
-0.004254 -0.000298 0
-0.004283 -0.000272 0
-0.004298 -0.000239 0
-0.004305 -0.000209 0
-0.004308 -0.000189 0
-0.004309 -0.000179 0
-0.004309 -0.000184 0
-0.004307 -0.000202 0
-0.004302 -0.000235 0
-0.004296 -0.000279 0
-0.004286 -0.000333 0
-0.004274 -0.000391 0
-0.004261 -0.000445 0
-0.004251 -0.000485 0
-0.004247 -0.000497 0
-0.004255 -0.000469 0
-0.004281 -0.000385 0
-0.004333 -0.000233 0
-0.004416 -0.000004 0
-0.004535 0.000302 0
-0.004692 0.000677 0
-0.004887 0.001101 0
-0.005110 0.001541 0
-0.005348 0.001946 0
-0.005576 0.002257 0
-0.005764 0.002402 0
-0.005880 0.002309 0
-0.005889 0.001906 0
-0.005759 0.001138 0
-0.005472 -0.000025 0
-0.005021 -0.001564 0
-0.004413 -0.003398 0
-0.003649 -0.005364 0
-0.002721 -0.007118 0
-0.001658 -0.007913 0
-0.000612 -0.006303 0
0.000000 -0.002331 0
0.000000 0.002043 0
-0.000264 0.004217 0
-0.000789 0.003534 0
-0.001305 0.002014 0
-0.001701 0.000852 0
-0.001969 0.000134 0
-0.002128 -0.000272 0
-0.002204 -0.000487 0
-0.002221 -0.000590 0
-0.002197 -0.000631 0
-0.002145 -0.000639 0
-0.002074 -0.000632 0
-0.001991 -0.000618 0
-0.001898 -0.000603 0
-0.001798 -0.000589 0
-0.001695 -0.000578 0
-0.001587 -0.000568 0
-0.001476 -0.000560 0
-0.001364 -0.000552 0
-0.001249 -0.000545 0
-0.001134 -0.000536 0
-0.001018 -0.000524 0
-0.000903 -0.000509 0
-0.000790 -0.000490 0
-0.000680 -0.000466 0
-0.000574 -0.000436 0
-0.000474 -0.000401 0
-0.000381 -0.000361 0
-0.000297 -0.000315 0
-0.000222 -0.000266 0
-0.000159 -0.000215 0
-0.000106 -0.000163 0
-0.000065 -0.000114 0
-0.000034 -0.000069 0
-0.000014 -0.000033 0
-0.000003 -0.000009 0
0.000000 0.000000 0
0.000000 0.000000 0
0.000000 0.000000 0
0.000000 0.000000 0
0.000000 0.000081 0
-0.000021 0.000274 0
-0.000070 0.000468 0
-0.000137 0.000626 0
-0.000217 0.000776 0
-0.000307 0.000941 0
-0.000405 0.001139 0
-0.000506 0.001385 0
-0.000606 0.001686 0
-0.000699 0.002037 0
-0.000782 0.002411 0
-0.000857 0.002744 0
-0.000941 0.002946 0
-0.001066 0.002921 0
-0.001267 0.002627 0
-0.001559 0.002109 0
-0.001922 0.001491 0
-0.002313 0.000903 0
-0.002684 0.000434 0
-0.003003 0.000108 0
-0.003254 -0.000090 0
-0.003440 -0.000189 0
-0.003572 -0.000225 0
-0.003665 -0.000226 0
-0.003730 -0.000209 0
-0.003779 -0.000189 0
-0.003817 -0.000173 0
-0.003848 -0.000166 0
-0.003875 -0.000173 0
-0.003899 -0.000193 0
-0.003921 -0.000227 0
-0.003942 -0.000274 0
-0.003962 -0.000328 0
-0.003983 -0.000386 0
-0.004008 -0.000437 0
-0.004037 -0.000470 0
-0.004076 -0.000473 0
-0.004126 -0.000430 0
-0.004192 -0.000326 0
-0.004276 -0.000149 0
-0.004380 0.000107 0
-0.004504 0.000441 0
-0.004647 0.000843 0
-0.004802 0.001286 0
-0.004958 0.001732 0
-0.005100 0.002125 0
-0.005208 0.002398 0
-0.005259 0.002479 0
-0.005229 0.002292 0
-0.005099 0.001773 0
-0.004858 0.000875 0
-0.004507 -0.000419 0
-0.004061 -0.002080 0
-0.003534 -0.004031 0
-0.002917 -0.006124 0
-0.002191 -0.008005 0
-0.001354 -0.008858 0
-0.000510 -0.007054 0
0.000000 -0.002611 0
0.000000 0.002166 0
-0.000230 0.004589 0
-0.000709 0.004035 0
-0.001198 0.002463 0
-0.001590 0.001188 0
-0.001870 0.000358 0
-0.002051 -0.000140 0
-0.002154 -0.000425 0
-0.002197 -0.000579 0
-0.002197 -0.000657 0
-0.002166 -0.000691 0
-0.002113 -0.000701 0
-0.002044 -0.000700 0
-0.001963 -0.000694 0
-0.001872 -0.000688 0
-0.001775 -0.000681 0
-0.001671 -0.000676 0
-0.001563 -0.000671 0
-0.001451 -0.000666 0
-0.001336 -0.000661 0
-0.001218 -0.000653 0
-0.001099 -0.000642 0
-0.000980 -0.000626 0
-0.000861 -0.000605 0
-0.000745 -0.000578 0
-0.000632 -0.000543 0
-0.000525 -0.000502 0
-0.000424 -0.000453 0
-0.000333 -0.000399 0
-0.000251 -0.000339 0
-0.000180 -0.000277 0
-0.000121 -0.000213 0
-0.000075 -0.000152 0
-0.000040 -0.000096 0
-0.000017 -0.000050 0
-0.000004 -0.000016 0
0.000000 -0.000002 0
0.000000 0.000000 0
0.000000 0.000000 0
0.000000 0.000000 0
0.000000 0.000090 0
-0.000014 0.000303 0
-0.000047 0.000517 0
-0.000093 0.000687 0
-0.000145 0.000846 0
-0.000201 0.001016 0
-0.000256 0.001214 0
-0.000303 0.001454 0
-0.000335 0.001743 0
-0.000346 0.002076 0
-0.000329 0.002430 0
-0.000288 0.002756 0
-0.000239 0.002977 0
-0.000221 0.003012 0
-0.000279 0.002812 0
-0.000449 0.002398 0
-0.000733 0.001856 0
-0.001096 0.001298 0
-0.001489 0.000811 0
-0.001867 0.000436 0
-0.002203 0.000177 0
-0.002483 0.000016 0
-0.002708 -0.000074 0
-0.002883 -0.000113 0
-0.003019 -0.000125 0
-0.003127 -0.000123 0
-0.003213 -0.000120 0
-0.003285 -0.000121 0
-0.003348 -0.000133 0
-0.003404 -0.000156 0
-0.003456 -0.000192 0
-0.003506 -0.000239 0
-0.003556 -0.000292 0
-0.003608 -0.000346 0
-0.003666 -0.000391 0
-0.003730 -0.000417 0
-0.003804 -0.000409 0
-0.003887 -0.000353 0
-0.003982 -0.000235 0
-0.004087 -0.000045 0
-0.004200 0.000224 0
-0.004318 0.000569 0
-0.004435 0.000974 0
-0.004542 0.001413 0
-0.004628 0.001839 0
-0.004679 0.002196 0
-0.004677 0.002415 0
-0.004609 0.002423 0
-0.004461 0.002149 0
-0.004230 0.001535 0
-0.003919 0.000546 0
-0.003545 -0.000822 0
-0.003136 -0.002537 0
-0.002702 -0.004542 0
-0.002232 -0.006708 0
-0.001695 -0.008681 0
-0.001068 -0.009593 0
-0.000413 -0.007657 0
0.000000 -0.002841 0
0.000000 0.002274 0
-0.000205 0.004926 0
-0.000645 0.004502 0
-0.001107 0.002895 0
-0.001491 0.001525 0
-0.001776 0.000595 0
-0.001971 0.000011 0
-0.002092 -0.000341 0
-0.002157 -0.000546 0
-0.002177 -0.000661 0
-0.002166 -0.000723 0
-0.002129 -0.000754 0
-0.002075 -0.000769 0
-0.002006 -0.000775 0
-0.001926 -0.000777 0
-0.001836 -0.000778 0
-0.001739 -0.000779 0
-0.001635 -0.000780 0
-0.001526 -0.000780 0
-0.001411 -0.000777 0
-0.001293 -0.000772 0
-0.001172 -0.000763 0
-0.001050 -0.000747 0
-0.000927 -0.000725 0
-0.000805 -0.000695 0
-0.000686 -0.000656 0
-0.000572 -0.000609 0
-0.000465 -0.000553 0
-0.000366 -0.000489 0
-0.000277 -0.000419 0
-0.000200 -0.000344 0
-0.000135 -0.000269 0
-0.000084 -0.000195 0
-0.000045 -0.000127 0
-0.000019 -0.000069 0
-0.000004 -0.000025 0
0.000000 -0.000004 0
0.000000 0.000000 0