# vtk DataFile Version 2.0
generated by CFD-lab course output (written by Tobias Neckel) 
ASCII

DATASET STRUCTURED_GRID
DIMENSIONS  99 49 1 
POINTS 4851 float

0.000000 0.000000 0
0.020000 0.000000 0
0.040000 0.000000 0
0.060000 0.000000 0
0.080000 0.000000 0
0.100000 0.000000 0
0.120000 0.000000 0
0.140000 0.000000 0
0.160000 0.000000 0
0.180000 0.000000 0
0.200000 0.000000 0
0.220000 0.000000 0
0.240000 0.000000 0
0.260000 0.000000 0
0.280000 0.000000 0
0.300000 0.000000 0
0.320000 0.000000 0
0.340000 0.000000 0
0.360000 0.000000 0
0.380000 0.000000 0
0.400000 0.000000 0
0.420000 0.000000 0
0.440000 0.000000 0
0.460000 0.000000 0
0.480000 0.000000 0
0.500000 0.000000 0
0.520000 0.000000 0
0.540000 0.000000 0
0.560000 0.000000 0
0.580000 0.000000 0
0.600000 0.000000 0
0.620000 0.000000 0
0.640000 0.000000 0
0.660000 0.000000 0
0.680000 0.000000 0
0.700000 0.000000 0
0.720000 0.000000 0
0.740000 0.000000 0
0.760000 0.000000 0
0.780000 0.000000 0
0.800000 0.000000 0
0.820000 0.000000 0
0.840000 0.000000 0
0.860000 0.000000 0
0.880000 0.000000 0
0.900000 0.000000 0
0.920000 0.000000 0
0.940000 0.000000 0
0.960000 0.000000 0
0.980000 0.000000 0
1.000000 0.000000 0
1.020000 0.000000 0
1.040000 0.000000 0
1.060000 0.000000 0
1.080000 0.000000 0
1.100000 0.000000 0
1.120000 0.000000 0
1.140000 0.000000 0
1.160000 0.000000 0
1.180000 0.000000 0
1.200000 0.000000 0
1.220000 0.000000 0
1.240000 0.000000 0
1.260000 0.000000 0
1.280000 0.000000 0
1.300000 0.000000 0
1.320000 0.000000 0
1.340000 0.000000 0
1.360000 0.000000 0
1.380000 0.000000 0
1.400000 0.000000 0
1.420000 0.000000 0
1.440000 0.000000 0
1.460000 0.000000 0
1.480000 0.000000 0
1.500000 0.000000 0
1.520000 0.000000 0
1.540000 0.000000 0
1.560000 0.000000 0
1.580000 0.000000 0
1.600000 0.000000 0
1.620000 0.000000 0
1.640000 0.000000 0
1.660000 0.000000 0
1.680000 0.000000 0
1.700000 0.000000 0
1.720000 0.000000 0
1.740000 0.000000 0
1.760000 0.000000 0
1.780000 0.000000 0
1.800000 0.000000 0
1.820000 0.000000 0
1.840000 0.000000 0
1.860000 0.000000 0
1.880000 0.000000 0
1.900000 0.000000 0
1.920000 0.000000 0
1.940000 0.000000 0
1.960000 0.000000 0
0.000000 0.020000 0
0.020000 0.020000 0
0.040000 0.020000 0
0.060000 0.020000 0
0.080000 0.020000 0
0.100000 0.020000 0
0.120000 0.020000 0
0.140000 0.020000 0
0.160000 0.020000 0
0.180000 0.020000 0
0.200000 0.020000 0
0.220000 0.020000 0
0.240000 0.020000 0
0.260000 0.020000 0
0.280000 0.020000 0
0.300000 0.020000 0
0.320000 0.020000 0
0.340000 0.020000 0
0.360000 0.020000 0
0.380000 0.020000 0
0.400000 0.020000 0
0.420000 0.020000 0
0.440000 0.020000 0
0.460000 0.020000 0
0.480000 0.020000 0
0.500000 0.020000 0
0.520000 0.020000 0
0.540000 0.020000 0
0.560000 0.020000 0
0.580000 0.020000 0
0.600000 0.020000 0
0.620000 0.020000 0
0.640000 0.020000 0
0.660000 0.020000 0
0.680000 0.020000 0
0.700000 0.020000 0
0.720000 0.020000 0
0.740000 0.020000 0
0.760000 0.020000 0
0.780000 0.020000 0
0.800000 0.020000 0
0.820000 0.020000 0
0.840000 0.020000 0
0.860000 0.020000 0
0.880000 0.020000 0
0.900000 0.020000 0
0.920000 0.020000 0
0.940000 0.020000 0
0.960000 0.020000 0
0.980000 0.020000 0
1.000000 0.020000 0
1.020000 0.020000 0
1.040000 0.020000 0
1.060000 0.020000 0
1.080000 0.020000 0
1.100000 0.020000 0
1.120000 0.020000 0
1.140000 0.020000 0
1.160000 0.020000 0
1.180000 0.020000 0
1.200000 0.020000 0
1.220000 0.020000 0
1.240000 0.020000 0
1.260000 0.020000 0
1.280000 0.020000 0
1.300000 0.020000 0
1.320000 0.020000 0
1.340000 0.020000 0
1.360000 0.020000 0
1.380000 0.020000 0
1.400000 0.020000 0
1.420000 0.020000 0
1.440000 0.020000 0
1.460000 0.020000 0
1.480000 0.020000 0
1.500000 0.020000 0
1.520000 0.020000 0
1.540000 0.020000 0
1.560000 0.020000 0
1.580000 0.020000 0
1.600000 0.020000 0
1.620000 0.020000 0
1.640000 0.020000 0
1.660000 0.020000 0
1.680000 0.020000 0
1.700000 0.020000 0
1.720000 0.020000 0
1.740000 0.020000 0
1.760000 0.020000 0
1.780000 0.020000 0
1.800000 0.020000 0
1.820000 0.020000 0
1.840000 0.020000 0
1.860000 0.020000 0
1.880000 0.020000 0
1.900000 0.020000 0
1.920000 0.020000 0
1.940000 0.020000 0
1.960000 0.020000 0
0.000000 0.040000 0
0.020000 0.040000 0
0.040000 0.040000 0
0.060000 0.040000 0
0.080000 0.040000 0
0.100000 0.040000 0
0.120000 0.040000 0
0.140000 0.040000 0
0.160000 0.040000 0
0.180000 0.040000 0
0.200000 0.040000 0
0.220000 0.040000 0
0.240000 0.040000 0
0.260000 0.040000 0
0.280000 0.040000 0
0.300000 0.040000 0
0.320000 0.040000 0
0.340000 0.040000 0
0.360000 0.040000 0
0.380000 0.040000 0
0.400000 0.040000 0
0.420000 0.040000 0
0.440000 0.040000 0
0.460000 0.040000 0
0.480000 0.040000 0
0.500000 0.040000 0
0.520000 0.040000 0
0.540000 0.040000 0
0.560000 0.040000 0
0.580000 0.040000 0
0.600000 0.040000 0
0.620000 0.040000 0
0.640000 0.040000 0
0.660000 0.040000 0
0.680000 0.040000 0
0.700000 0.040000 0
0.720000 0.040000 0
0.740000 0.040000 0
0.760000 0.040000 0
0.780000 0.040000 0
0.800000 0.040000 0
0.820000 0.040000 0
0.840000 0.040000 0
0.860000 0.040000 0
0.880000 0.040000 0
0.900000 0.040000 0
0.920000 0.040000 0
0.940000 0.040000 0
0.960000 0.040000 0
0.980000 0.040000 0
1.000000 0.040000 0
1.020000 0.040000 0
1.040000 0.040000 0
1.060000 0.040000 0
1.080000 0.040000 0
1.100000 0.040000 0
1.120000 0.040000 0
1.140000 0.040000 0
1.160000 0.040000 0
1.180000 0.040000 0
1.200000 0.040000 0
1.220000 0.040000 0
1.240000 0.040000 0
1.260000 0.040000 0
1.280000 0.040000 0
1.300000 0.040000 0
1.320000 0.040000 0
1.340000 0.040000 0
1.360000 0.040000 0
1.380000 0.040000 0
1.400000 0.040000 0
1.420000 0.040000 0
1.440000 0.040000 0
1.460000 0.040000 0
1.480000 0.040000 0
1.500000 0.040000 0
1.520000 0.040000 0
1.540000 0.040000 0
1.560000 0.040000 0
1.580000 0.040000 0
1.600000 0.040000 0
1.620000 0.040000 0
1.640000 0.040000 0
1.660000 0.040000 0
1.680000 0.040000 0
1.700000 0.040000 0
1.720000 0.040000 0
1.740000 0.040000 0
1.760000 0.040000 0
1.780000 0.040000 0
1.800000 0.040000 0
1.820000 0.040000 0
1.840000 0.040000 0
1.860000 0.040000 0
1.880000 0.040000 0
1.900000 0.040000 0
1.920000 0.040000 0
1.940000 0.040000 0
1.960000 0.040000 0
0.000000 0.060000 0
0.020000 0.060000 0
0.040000 0.060000 0
0.060000 0.060000 0
0.080000 0.060000 0
0.100000 0.060000 0
0.120000 0.060000 0
0.140000 0.060000 0
0.160000 0.060000 0
0.180000 0.060000 0
0.200000 0.060000 0
0.220000 0.060000 0
0.240000 0.060000 0
0.260000 0.060000 0
0.280000 0.060000 0
0.300000 0.060000 0
0.320000 0.060000 0
0.340000 0.060000 0
0.360000 0.060000 0
0.380000 0.060000 0
0.400000 0.060000 0
0.420000 0.060000 0
0.440000 0.060000 0
0.460000 0.060000 0
0.480000 0.060000 0
0.500000 0.060000 0
0.520000 0.060000 0
0.540000 0.060000 0
0.560000 0.060000 0
0.580000 0.060000 0
0.600000 0.060000 0
0.620000 0.060000 0
0.640000 0.060000 0
0.660000 0.060000 0
0.680000 0.060000 0
0.700000 0.060000 0
0.720000 0.060000 0
0.740000 0.060000 0
0.760000 0.060000 0
0.780000 0.060000 0
0.800000 0.060000 0
0.820000 0.060000 0
0.840000 0.060000 0
0.860000 0.060000 0
0.880000 0.060000 0
0.900000 0.060000 0
0.920000 0.060000 0
0.940000 0.060000 0
0.960000 0.060000 0
0.980000 0.060000 0
1.000000 0.060000 0
1.020000 0.060000 0
1.040000 0.060000 0
1.060000 0.060000 0
1.080000 0.060000 0
1.100000 0.060000 0
1.120000 0.060000 0
1.140000 0.060000 0
1.160000 0.060000 0
1.180000 0.060000 0
1.200000 0.060000 0
1.220000 0.060000 0
1.240000 0.060000 0
1.260000 0.060000 0
1.280000 0.060000 0
1.300000 0.060000 0
1.320000 0.060000 0
1.340000 0.060000 0
1.360000 0.060000 0
1.380000 0.060000 0
1.400000 0.060000 0
1.420000 0.060000 0
1.440000 0.060000 0
1.460000 0.060000 0
1.480000 0.060000 0
1.500000 0.060000 0
1.520000 0.060000 0
1.540000 0.060000 0
1.560000 0.060000 0
1.580000 0.060000 0
1.600000 0.060000 0
1.620000 0.060000 0
1.640000 0.060000 0
1.660000 0.060000 0
1.680000 0.060000 0
1.700000 0.060000 0
1.720000 0.060000 0
1.740000 0.060000 0
1.760000 0.060000 0
1.780000 0.060000 0
1.800000 0.060000 0
1.820000 0.060000 0
1.840000 0.060000 0
1.860000 0.060000 0
1.880000 0.060000 0
1.900000 0.060000 0
1.920000 0.060000 0
1.940000 0.060000 0
1.960000 0.060000 0
0.000000 0.080000 0
0.020000 0.080000 0
0.040000 0.080000 0
0.060000 0.080000 0
0.080000 0.080000 0
0.100000 0.080000 0
0.120000 0.080000 0
0.140000 0.080000 0
0.160000 0.080000 0
0.180000 0.080000 0
0.200000 0.080000 0
0.220000 0.080000 0
0.240000 0.080000 0
0.260000 0.080000 0
0.280000 0.080000 0
0.300000 0.080000 0
0.320000 0.080000 0
0.340000 0.080000 0
0.360000 0.080000 0
0.380000 0.080000 0
0.400000 0.080000 0
0.420000 0.080000 0
0.440000 0.080000 0
0.460000 0.080000 0
0.480000 0.080000 0
0.500000 0.080000 0
0.520000 0.080000 0
0.540000 0.080000 0
0.560000 0.080000 0
0.580000 0.080000 0
0.600000 0.080000 0
0.620000 0.080000 0
0.640000 0.080000 0
0.660000 0.080000 0
0.680000 0.080000 0
0.700000 0.080000 0
0.720000 0.080000 0
0.740000 0.080000 0
0.760000 0.080000 0
0.780000 0.080000 0
0.800000 0.080000 0
0.820000 0.080000 0
0.840000 0.080000 0
0.860000 0.080000 0
0.880000 0.080000 0
0.900000 0.080000 0
0.920000 0.080000 0
0.940000 0.080000 0
0.960000 0.080000 0
0.980000 0.080000 0
1.000000 0.080000 0
1.020000 0.080000 0
1.040000 0.080000 0
1.060000 0.080000 0
1.080000 0.080000 0
1.100000 0.080000 0
1.120000 0.080000 0
1.140000 0.080000 0
1.160000 0.080000 0
1.180000 0.080000 0
1.200000 0.080000 0
1.220000 0.080000 0
1.240000 0.080000 0
1.260000 0.080000 0
1.280000 0.080000 0
1.300000 0.080000 0
1.320000 0.080000 0
1.340000 0.080000 0
1.360000 0.080000 0
1.380000 0.080000 0
1.400000 0.080000 0
1.420000 0.080000 0
1.440000 0.080000 0
1.460000 0.080000 0
1.480000 0.080000 0
1.500000 0.080000 0
1.520000 0.080000 0
1.540000 0.080000 0
1.560000 0.080000 0
1.580000 0.080000 0
1.600000 0.080000 0
1.620000 0.080000 0
1.640000 0.080000 0
1.660000 0.080000 0
1.680000 0.080000 0
1.700000 0.080000 0
1.720000 0.080000 0
1.740000 0.080000 0
1.760000 0.080000 0
1.780000 0.080000 0
1.800000 0.080000 0
1.820000 0.080000 0
1.840000 0.080000 0
1.860000 0.080000 0
1.880000 0.080000 0
[...]
POINT_DATA 4851 

VECTORS velocity float
0.000000 0.000000 0
-0.000410 0.000000 0
-0.000547 0.000000 0
-0.000504 0.000000 0
-0.000423 0.000000 0
-0.000351 0.000000 0
-0.000298 0.000000 0
-0.000259 0.000000 0
-0.000230 0.000000 0
-0.000208 0.000000 0
-0.000190 0.000000 0
-0.000175 0.000000 0
-0.000162 0.000000 0
-0.000151 0.000000 0
-0.000141 0.000000 0
-0.000131 0.000000 0
-0.000122 0.000000 0
-0.000114 0.000000 0
-0.000107 0.000000 0
-0.000099 0.000000 0
-0.000092 0.000000 0
-0.000086 0.000000 0
-0.000079 0.000000 0
-0.000073 0.000000 0
-0.000067 0.000000 0
-0.000062 0.000000 0
-0.000056 0.000000 0
-0.000051 0.000000 0
-0.000046 0.000000 0
-0.000041 0.000000 0
-0.000036 0.000000 0
-0.000031 0.000000 0
-0.000025 0.000000 0
-0.000017 0.000000 0
-0.000010 0.000000 0
-0.000003 0.000000 0
0.000000 0.000000 0
0.000000 0.000000 0
0.000000 0.000000 0
0.000000 0.000000 0
0.000000 0.000000 0
-0.000021 0.000000 0
-0.000063 0.000000 0
-0.000106 0.000000 0
-0.000140 0.000000 0
-0.000164 0.000000 0
-0.000178 0.000000 0
-0.000187 0.000000 0
-0.000193 0.000000 0
-0.000197 0.000000 0
-0.000200 0.000000 0
-0.000202 0.000000 0
-0.000205 0.000000 0
-0.000207 0.000000 0
-0.000209 0.000000 0
-0.000210 0.000000 0
-0.000212 0.000000 0
-0.000213 0.000000 0
-0.000215 0.000000 0
-0.000216 0.000000 0
-0.000218 0.000000 0
-0.000219 0.000000 0
-0.000220 0.000000 0
-0.000221 0.000000 0
-0.000222 0.000000 0
-0.000223 0.000000 0
-0.000224 0.000000 0
-0.000225 0.000000 0
-0.000226 0.000000 0
-0.000227 0.000000 0
-0.000228 0.000000 0
-0.000228 0.000000 0
-0.000229 0.000000 0
-0.000230 0.000000 0
-0.000231 0.000000 0
-0.000232 0.000000 0
-0.000233 0.000000 0
-0.000234 0.000000 0
-0.000234 0.000000 0
-0.000235 0.000000 0
-0.000235 0.000000 0
-0.000234 0.000000 0
-0.000233 0.000000 0
-0.000231 0.000000 0
-0.000229 0.000000 0
-0.000228 0.000000 0
-0.000229 0.000000 0
-0.000233 0.000000 0
-0.000242 0.000000 0
-0.000257 0.000000 0
-0.000279 0.000000 0
-0.000305 0.000000 0
-0.000329 0.000000 0
-0.000344 0.000000 0
-0.000335 0.000000 0
-0.000289 0.000000 0
-0.000199 0.000000 0
-0.000081 0.000000 0
0.000000 0.000000 0
0.000000 0.000411 0
-0.000816 0.000548 0
-0.001269 0.000095 0
-0.001324 -0.000124 0
-0.001218 -0.000153 0
-0.001081 -0.000124 0
-0.000958 -0.000091 0
-0.000856 -0.000067 0
-0.000774 -0.000050 0
-0.000706 -0.000039 0
-0.000650 -0.000032 0
-0.000602 -0.000027 0
-0.000559 -0.000024 0
-0.000522 -0.000021 0
-0.000487 -0.000019 0
-0.000455 -0.000017 0
-0.000426 -0.000016 0
-0.000398 -0.000015 0
-0.000372 -0.000014 0
-0.000347 -0.000014 0
-0.000323 -0.000013 0
-0.000300 -0.000012 0
-0.000278 -0.000012 0
-0.000257 -0.000011 0
-0.000236 -0.000011 0
-0.000216 -0.000011 0
-0.000197 -0.000010 0
-0.000178 -0.000010 0
-0.000160 -0.000009 0
-0.000142 -0.000009 0
-0.000124 -0.000010 0
-0.000104 -0.000011 0
-0.000083 -0.000013 0
-0.000058 -0.000014 0
-0.000033 -0.000014 0
-0.000011 -0.000009 0
0.000000 -0.000002 0
0.000000 0.000000 0
0.000000 0.000000 0
0.000000 0.000000 0
0.000000 0.000020 0
-0.000062 0.000062 0
-0.000180 0.000085 0
-0.000305 0.000077 0
-0.000410 0.000057 0
-0.000489 0.000038 0
-0.000543 0.000023 0
-0.000581 0.000014 0
-0.000607 0.000009 0
-0.000625 0.000006 0
-0.000640 0.000005 0
-0.000652 0.000004 0
-0.000662 0.000004 0
-0.000671 0.000003 0
-0.000680 0.000003 0
-0.000687 0.000003 0
-0.000694 0.000003 0
-0.000701 0.000003 0
-0.000707 0.000002 0
-0.000712 0.000002 0
-0.000717 0.000002 0
-0.000722 0.000002 0
-0.000727 0.000002 0
-0.000731 0.000002 0
-0.000735 0.000002 0
-0.000739 0.000002 0
-0.000742 0.000001 0
-0.000746 0.000001 0
-0.000749 0.000001 0
-0.000752 0.000001 0
-0.000755 0.000001 0
-0.000758 0.000001 0
-0.000761 0.000001 0
-0.000764 0.000001 0
-0.000766 0.000001 0
-0.000769 0.000001 0
-0.000772 0.000001 0
-0.000774 0.000001 0
-0.000776 0.000001 0
-0.000776 -0.000000 0
-0.000775 -0.000001 0
-0.000773 -0.000002 0
-0.000769 -0.000003 0
-0.000763 -0.000004 0
-0.000757 -0.000004 0
-0.000754 -0.000001 0
-0.000757 0.000004 0
-0.000771 0.000013 0
-0.000800 0.000024 0
-0.000846 0.000037 0
-0.000907 0.000047 0
-0.000974 0.000050 0
-0.001031 0.000038 0
-0.001050 0.000005 0
-0.000997 -0.000055 0
-0.000838 -0.000136 0
-0.000563 -0.000208 0
-0.000226 -0.000199 0
0.000000 -0.000081 0
0.000000 0.000817 0
-0.000704 0.001270 0
-0.001362 0.000508 0
-0.001651 -0.000050 0
-0.001685 -0.000241 0
-0.001605 -0.000259 0
-0.001489 -0.000224 0
-0.001371 -0.000183 0
-0.001264 -0.000149 0
-0.001170 -0.000123 0
-0.001086 -0.000104 0
-0.001012 -0.000090 0
-0.000946 -0.000079 0
-0.000885 -0.000072 0
-0.000830 -0.000065 0
-0.000778 -0.000060 0
-0.000729 -0.000056 0
-0.000683 -0.000053 0
-0.000639 -0.000050 0
-0.000597 -0.000048 0
-0.000557 -0.000046 0
-0.000518 -0.000044 0
-0.000480 -0.000043 0
-0.000444 -0.000041 0
-0.000408 -0.000040 0
-0.000373 -0.000038 0
-0.000340 -0.000037 0
-0.000307 -0.000036 0
-0.000275 -0.000035 0
-0.000243 -0.000035 0
-0.000210 -0.000037 0
-0.000175 -0.000040 0
-0.000138 -0.000045 0
-0.000097 -0.000049 0
-0.000055 -0.000047 0
-0.000019 -0.000032 0
0.000000 -0.000010 0
0.000000 0.000000 0
0.000000 0.000000 0
0.000000 0.000000 0
0.000000 0.000061 0
-0.000085 0.000179 0
-0.000243 0.000242 0
-0.000418 0.000230 0
-0.000575 0.000183 0
-0.000701 0.000133 0
-0.000797 0.000092 0
-0.000868 0.000063 0
-0.000920 0.000044 0
-0.000960 0.000033 0
-0.000992 0.000026 0
-0.001019 0.000022 0
-0.001041 0.000019 0
-0.001061 0.000017 0
-0.001078 0.000015 0
-0.001094 0.000014 0
-0.001109 0.000013 0
-0.001122 0.000012 0
-0.001134 0.000011 0
-0.001146 0.000010 0
-0.001156 0.000009 0
-0.001165 0.000009 0
-0.001174 0.000008 0
-0.001183 0.000008 0
-0.001190 0.000007 0
-0.001198 0.000007 0
-0.001204 0.000007 0
-0.001211 0.000006 0
-0.001217 0.000006 0
-0.001222 0.000005 0
-0.001228 0.000005 0
-0.001233 0.000005 0
-0.001237 0.000005 0
-0.001242 0.000005 0
-0.001246 0.000005 0
-0.001250 0.000005 0
-0.001254 0.000004 0
-0.001257 0.000003 0
-0.001259 0.000002 0
-0.001259 -0.000001 0
-0.001257 -0.000004 0
-0.001253 -0.000007 0
-0.001245 -0.000011 0
-0.001237 -0.000012 0
-0.001229 -0.000009 0
-0.001225 -0.000001 0
-0.001231 0.000016 0
-0.001253 0.000042 0
-0.001295 0.000074 0
-0.001359 0.000106 0
-0.001441 0.000128 0
-0.001525 0.000124 0
-0.001583 0.000076 0
-0.001577 -0.000035 0
-0.001462 -0.000213 0
-0.001198 -0.000435 0
-0.000786 -0.000612 0
-0.000310 -0.000564 0
0.000000 -0.000227 0
0.000000 0.001116 0
-0.000506 0.001911 0
-0.001157 0.001042 0
-0.001570 0.000199 0
-0.001738 -0.000198 0
-0.001753 -0.000320 0
-0.001694 -0.000324 0
-0.001606 -0.000291 0
-0.001511 -0.000252 0
-0.001419 -0.000217 0
-0.001332 -0.000189 0
-0.001252 -0.000167 0
-0.001177 -0.000150 0
-0.001107 -0.000137 0
-0.001042 -0.000126 0
-0.000980 -0.000118 0
-0.000922 -0.000111 0
-0.000866 -0.000105 0
-0.000812 -0.000100 0
-0.000760 -0.000095 0
-0.000710 -0.000092 0
-0.000661 -0.000089 0
-0.000613 -0.000086 0
-0.000567 -0.000083 0
-0.000522 -0.000081 0
-0.000477 -0.000078 0
-0.000434 -0.000076 0
-0.000392 -0.000074 0
-0.000350 -0.000073 0
-0.000308 -0.000074 0
-0.000265 -0.000077 0
-0.000220 -0.000083 0
-0.000172 -0.000090 0
-0.000121 -0.000096 0
-0.000069 -0.000092 0
-0.000024 -0.000064 0
0.000000 -0.000021 0
0.000000 0.000000 0
0.000000 0.000000 0
0.000000 0.000000 0
0.000000 0.000105 0
-0.000081 0.000305 0
-0.000237 0.000418 0
-0.000417 0.000408 0
-0.000587 0.000340 0
-0.000732 0.000260 0
-0.000850 0.000190 0
-0.000942 0.000138 0
-0.001014 0.000102 0
-0.001072 0.000078 0
-0.001119 0.000063 0
-0.001159 0.000053 0
-0.001193 0.000046 0
-0.001223 0.000041 0
-0.001251 0.000037 0
-0.001275 0.000033 0
-0.001297 0.000030 0
-0.001317 0.000028 0
-0.001336 0.000025 0
-0.001353 0.000024 0
-0.001368 0.000022 0
-0.001383 0.000020 0
-0.001396 0.000019 0
-0.001408 0.000018 0
-0.001419 0.000016 0
-0.001430 0.000015 0
-0.001439 0.000014 0
-0.001449 0.000014 0
-0.001457 0.000013 0
-0.001465 0.000012 0
-0.001472 0.000011 0
-0.001479 0.000011 0
-0.001485 0.000010 0
-0.001491 0.000010 0
-0.001497 0.000010 0
-0.001502 0.000009 0
-0.001507 0.000008 0
-0.001510 0.000006 0
-0.001513 0.000003 0
-0.001513 -0.000002 0
-0.001511 -0.000008 0
-0.001506 -0.000014 0
-0.001498 -0.000019 0
-0.001489 -0.000021 0
-0.001481 -0.000016 0
-0.001478 0.000001 0
-0.001485 0.000032 0
-0.001509 0.000077 0
-0.001553 0.000131 0
-0.001619 0.000183 0
-0.001701 0.000212 0
-0.001779 0.000192 0
-0.001823 0.000091 0
-0.001790 -0.000117 0
-0.001633 -0.000435 0
-0.001317 -0.000812 0
-0.000850 -0.001097 0
-0.000329 -0.000985 0
0.000000 -0.000391 0
0.000000 0.001324 0
-0.000354 0.002428 0
-0.000924 0.001573 0
-0.001362 0.000530 0
-0.001601 -0.000059 0
-0.001689 -0.000303 0
-0.001688 -0.000371 0
-0.001641 -0.000366 0
-0.001573 -0.000336 0
-0.001499 -0.000302 0
-0.001423 -0.000271 0
-0.001349 -0.000245 0
-0.001278 -0.000223 0
-0.001209 -0.000206 0
-0.001143 -0.000192 0
-0.001080 -0.000181 0
-0.001019 -0.000171 0
-0.000960 -0.000163 0
-0.000902 -0.000156 0
-0.000846 -0.000150 0
-0.000792 -0.000145 0
-0.000738 -0.000140 0
-0.000686 -0.000136 0
-0.000635 -0.000133 0
-0.000585 -0.000129 0
-0.000535 -0.000126 0
-0.000486 -0.000123 0
-0.000438 -0.000120 0
-0.000391 -0.000119 0
-0.000343 -0.000120 0
-0.000294 -0.000125 0
-0.000243 -0.000133 0
-0.000189 -0.000144 0
-0.000132 -0.000151 0
-0.000075 -0.000144 0
-0.000026 -0.000101 0
0.000000 -0.000034 0
0.000000 0.000000 0
0.000000 0.000000 0
0.000000 0.000000 0
0.000000 0.000141 0
-0.000063 0.000416 0
-0.000194 0.000578 0
-0.000352 0.000579 0
-0.000509 0.000499 0
-0.000650 0.000396 0
-0.000771 0.000301 0
-0.000871 0.000227 0
-0.000953 0.000174 0
-0.001021 0.000137 0
-0.001079 0.000113 0
-0.001129 0.000096 0
-0.001173 0.000083 0
-0.001212 0.000074 0
-0.001248 0.000067 0
-0.001281 0.000060 0
-0.001310 0.000055 0
-0.001337 0.000050 0
-0.001362 0.000046 0
-0.001385 0.000042 0
-0.001405 0.000039 0
-0.001424 0.000036 0
-0.001441 0.000033 0
-0.001457 0.000031 0
-0.001472 0.000029 0
-0.001486 0.000027 0
-0.001498 0.000025 0
-0.001510 0.000023 0
-0.001521 0.000022 0
-0.001531 0.000020 0
-0.001541 0.000019 0
-0.001550 0.000018 0
-0.001558 0.000017 0
-0.001566 0.000016 0
-0.001573 0.000015 0
-0.001580 0.000014 0
-0.001585 0.000012 0
-0.001590 0.000009 0
-0.001594 0.000004 0
-0.001596 -0.000003 0
-0.001596 -0.000011 0
-0.001592 -0.000020 0
-0.001587 -0.000027 0
-0.001580 -0.000029 0
-0.001574 -0.000021 0
-0.001572 0.000003 0
-0.001580 0.000047 0
-0.001602 0.000110 0
-0.001643 0.000185 0
-0.001704 0.000254 0
-0.001776 0.000287 0
-0.001843 0.000246 0
-0.001873 0.000087 0
-0.001823 -0.000224 0
-0.001648 -0.000686 0
-0.001317 -0.001218 0
-0.000842 -0.001601 0
-0.000321 -0.001414 0
0.000000 -0.000555 0
0.000000 0.001470 0
-0.000250 0.002836 0
-0.000726 0.002050 0
-0.001139 0.000877 0
-0.001399 0.000129 0
-0.001525 -0.000233 0
-0.001563 -0.000373 0
-0.001550 -0.000405 0
-0.001510 -0.000393 0
-0.001457 -0.000367 0
-0.001399 -0.000339 0
-0.001338 -0.000312 0
-0.001276 -0.000290 0
-0.001215 -0.000271 0
-0.001155 -0.000255 0
-0.001096 -0.000242 0
-0.001038 -0.000231 0
-0.000981 -0.000221 0
-0.000925 -0.000213 0
-0.000869 -0.000206 0
-0.000815 -0.000199 0
-0.000761 -0.000194 0
-0.000708 -0.000189 0
-0.000656 -0.000185 0
-0.000605 -0.000180 0
-0.000554 -0.000176 0
-0.000503 -0.000173 0
-0.000453 -0.000170 0
-0.000403 -0.000169 0
-0.000353 -0.000170 0
-0.000302 -0.000176 0
-0.000249 -0.000187 0
-0.000193 -0.000201 0
-0.000134 -0.000210 0
-0.000076 -0.000198 0
-0.000026 -0.000139 0
0.000000 -0.000047 0
0.000000 0.000000 0
0.000000 0.000000 0
0.000000 0.000000 0
0.000000 0.000167 0
-0.000042 0.000499 0
-0.000135 0.000706 0
-0.000256 0.000722 0
-0.000383 0.000639 0
-0.000504 0.000522 0
-0.000612 0.000410 0
-0.000707 0.000319 0
-0.000789 0.000252 0
-0.000860 0.000204 0
-0.000922 0.000170 0
-0.000978 0.000147 0
-0.001029 0.000129 0
-0.001075 0.000116 0
-0.001118 0.000105 0
-0.001158 0.000095 0
-0.001195 0.000087 0
-0.001228 0.000079 0
-0.001259 0.000073 0
-0.001287 0.000067 0
-0.001313 0.000061 0
-0.001336 0.000056 0
-0.001358 0.000052 0
-0.001377 0.000048 0
-0.001395 0.000045 0
-0.001412 0.000042 0
-0.001428 0.000039 0
-0.001442 0.000036 0
-0.001456 0.000034 0
-0.001469 0.000032 0
-0.001481 0.000029 0
-0.001492 0.000028 0
-0.001503 0.000026 0
-0.001513 0.000025 0
-0.001522 0.000023 0
-0.001531 0.000021 0
-0.001539 0.000018 0
-0.001547 0.000014 0
-0.001553 0.000008 0
-0.001558 -0.000001 0
-0.001562 -0.000011 0
-0.001563 -0.000023 0
-0.001561 -0.000032 0
-0.001559 -0.000035 0
-0.001557 -0.000024 0
-0.001557 0.000007 0
-0.001566 0.000061 0
-0.001586 0.000140 0
-0.001622 0.000232 0
-0.001674 0.000316 0
-0.001736 0.000351 0
-0.001791 0.000288 0
-0.001810 0.000071 0
-0.001754 -0.000341 0
-0.001578 -0.000941 0
-0.001255 -0.001619 0
-0.000798 -0.002093 0
-0.000302 -0.001827 0
0.000000 -0.000712 0
0.000000 0.001574 0
-0.000179 0.003155 0
-0.000571 0.002462 0
-0.000939 0.001203 0
-0.001190 0.000328 0
-0.001327 -0.000138 0
-0.001384 -0.000346 0
-0.001392 -0.000418 0
-0.001373 -0.000428 0
-0.001339 -0.000413 0
-0.001297 -0.000390 0
-0.001251 -0.000367 0
-0.001202 -0.000345 0
-0.001152 -0.000327 0
-0.001101 -0.000311 0
-0.001050 -0.000298 0
-0.000998 -0.000286 0
-0.000946 -0.000276 0
-0.000895 -0.000267 0
-0.000843 -0.000259 0
-0.000792 -0.000252 0
-0.000741 -0.000247 0
-0.000691 -0.000241 0
-0.000640 -0.000236 0
-0.000590 -0.000231 0
-0.000541 -0.000227 0
-0.000492 -0.000223 0
-0.000442 -0.000220 0
-0.000393 -0.000219 0
-0.000344 -0.000221 0
-0.000293 -0.000229 0
-0.000241 -0.000242 0
-0.000186 -0.000258 0
-0.000129 -0.000268 0
-0.000073 -0.000252 0
-0.000024 -0.000177 0
0.000000 -0.000060 0
0.000000 0.000000 0
0.000000 0.000000 0
0.000000 0.000000 0
0.000000 0.000183 0
-0.000021 0.000551 0
-0.000075 0.000792 0
-0.000151 0.000826 0
-0.000239 0.000747 0
-0.000329 0.000625 0
-0.000415 0.000504 0
-0.000494 0.000403 0
-0.000567 0.000326 0
-0.000633 0.000270 0
-0.000694 0.000231 0
-0.000751 0.000202 0
-0.000805 0.000181 0
-0.000855 0.000163 0
-0.000904 0.000149 0
-0.000949 0.000136 0
-0.000991 0.000125 0
-0.001031 0.000115 0
-0.001068 0.000105 0
-0.001101 0.000096 0
-0.001132 0.000088 0
-0.001160 0.000081 0
-0.001186 0.000074 0
-0.001209 0.000068 0
-0.001230 0.000064 0
-0.001250 0.000059 0
-0.001268 0.000055 0
-0.001286 0.000052 0
-0.001302 0.000048 0
-0.001318 0.000045 0
-0.001333 0.000043 0
-0.001347 0.000040 0
-0.001361 0.000038 0
-0.001374 0.000036 0
-0.001386 0.000033 0
-0.001398 0.000031 0
-0.001409 0.000028 0
-0.001420 0.000023 0
-0.001430 0.000015 0
-0.001440 0.000005 0
-0.001448 -0.000007 0
-0.001455 -0.000020 0
-0.001460 -0.000031 0
-0.001464 -0.000034 0
-0.001467 -0.000023 0
-0.001472 0.000012 0
-0.001482 0.000075 0
-0.001500 0.000166 0
-0.001531 0.000273 0
-0.001574 0.000368 0
-0.001626 0.000404 0
-0.001670 0.000320 0
-0.001682 0.000049 0
-0.001625 -0.000457 0
-0.001460 -0.001185 0
-0.001161 -0.001998 0
-0.000738 -0.002554 0
-0.000279 -0.002213 0
0.000000 -0.000858 0
0.000000 0.001650 0
-0.000130 0.003407 0
-0.000452 0.002811 0
-0.000773 0.001496 0
-0.001000 0.000517 0
-0.001131 -0.000039 0
-0.001192 -0.000307 0
-0.001209 -0.000416 0
-0.001202 -0.000446 0
-0.001181 -0.000443 0
-0.001153 -0.000426 0
-0.001120 -0.000407 0
-0.001083 -0.000389 0
-0.001044 -0.000372 0
-0.001003 -0.000358 0
-0.000961 -0.000345 0
-0.000917 -0.000334 0
-0.000872 -0.000324 0
-0.000827 -0.000315 0
-0.000782 -0.000308 0
-0.000736 -0.000301 0
-0.000690 -0.000295 0
-0.000644 -0.000290 0
-0.000597 -0.000285 0
-0.000551 -0.000280 0
-0.000505 -0.000275 0
-0.000459 -0.000271 0
-0.000413 -0.000268 0
-0.000367 -0.000267 0
-0.000320 -0.000270 0
-0.000273 -0.000279 0
-0.000223 -0.000294 0
-0.000171 -0.000313 0
-0.000118 -0.000323 0
-0.000066 -0.000302 0
-0.000022 -0.000211 0
0.000000 -0.000071 0
0.000000 0.000000 0
0.000000 0.000000 0
0.000000 0.000000 0
0.000000 0.000188 0
-0.000003 0.000573 0
-0.000019 0.000836 0
-0.000052 0.000886 0
-0.000097 0.000816 0
-0.000151 0.000698 0
-0.000208 0.000575 0
-0.000265 0.000471 0
-0.000321 0.000390 0
-0.000376 0.000331 0
-0.000430 0.000288 0
-0.000484 0.000257 0
-0.000536 0.000234 0
-0.000588 0.000214 0
-0.000639 0.000198 0
-0.000688 0.000183 0
-0.000735 0.000169 0
-0.000780 0.000155 0
-0.000822 0.000143 0
-0.000861 0.000131 0
-0.000897 0.000120 0
-0.000930 0.000110 0
-0.000960 0.000100 0
-0.000987 0.000092 0
-0.001011 0.000085 0
-0.001034 0.000079 0
-0.001055 0.000074 0
-0.001075 0.000070 0
-0.001094 0.000066 0
-0.001112 0.000062 0
-0.001130 0.000059 0
-0.001148 0.000055 0
-0.001165 0.000052 0
-0.001181 0.000050 0
-0.001197 0.000047 0
-0.001212 0.000044 0
-0.001227 0.000041 0
-0.001242 0.000035 0
-0.001257 0.000028 0
-0.001272 0.000017 0
-0.001286 0.000003 0
-0.001299 -0.000011 0
-0.001312 -0.000024 0
-0.001323 -0.000028 0
-0.001332 -0.000016 0
-0.001342 0.000021 0
-0.001355 0.000089 0
-0.001372 0.000189 0
-0.001398 0.000306 0
-0.001433 0.000410 0
-0.001474 0.000447 0
-0.001509 0.000344 0
-0.001516 0.000026 0
-0.001464 -0.000564 0
-0.001317 -0.001406 0
-0.001050 -0.002342 0
-0.000669 -0.002975 0
-0.000254 -0.002565 0
0.000000 -0.000991 0
0.000000 0.001705 0
-0.000095 0.003608 0
-0.000362 0.003106 0
-0.000638 0.001752 0
-0.000838 0.000687 0
-0.000955 0.000053 0
-0.001009 -0.000268 0
-0.001026 -0.000408 0
-0.001023 -0.000456 0
-0.001010 -0.000462 0
-0.000991 -0.000451 0
-0.000968 -0.000436 0
-0.000941 -0.000421 0
-0.000912 -0.000407 0
-0.000881 -0.000394 0
-0.000847 -0.000384 0
-0.000812 -0.000374 0
-0.000775 -0.000365 0
-0.000737 -0.000357 0
-0.000698 -0.000350 0
-0.000658 -0.000344 0
-0.000618 -0.000339 0
-0.000577 -0.000333 0
-0.000536 -0.000328 0
-0.000495 -0.000324 0
-0.000453 -0.000319 0
-0.000412 -0.000315 0
-0.000370 -0.000312 0
-0.000328 -0.000311 0
-0.000286 -0.000315 0
-0.000243 -0.000325 0
-0.000198 -0.000343 0
-0.000151 -0.000363 0
-0.000103 -0.000373 0
-0.000057 -0.000348 0
-0.000018 -0.000242 0
0.000000 -0.000081 0
0.000000 0.000000 0
0.000000 0.000000 0
0.000000 0.000000 0
0.000000 0.000185 0
0.000011 0.000570 0
0.000026 0.000841 0
0.000034 0.000904 0
0.000030 0.000845 0
0.000014 0.000735 0
-0.000011 0.000618 0
-0.000042 0.000517 0
-0.000078 0.000437 0
-0.000118 0.000380 0
-0.000161 0.000338 0
-0.000206 0.000308 0
-0.000253 0.000285 0
-0.000301 0.000265 0
-0.000351 0.000248 0
-0.000402 0.000232 0
-0.000452 0.000217 0
-0.000501 0.000202 0
-0.000548 0.000186 0
-0.000593 0.000171 0
-0.000635 0.000157 0
-0.000674 0.000143 0
-0.000708 0.000131 0
-0.000739 0.000120 0
-0.000767 0.000110 0
-0.000792 0.000102 0
-0.000815 0.000096 0
-0.000837 0.000091 0
-0.000859 0.000086 0
-0.000880 0.000082 0
-0.000900 0.000078 0
-0.000921 0.000074 0
-0.000941 0.000071 0
-0.000961 0.000068 0
-0.000980 0.000065 0
-0.001000 0.000061 0
-0.001019 0.000058 0
-0.001038 0.000052 0
-0.001057 0.000045 0
-0.001077 0.000034 0
-0.001097 0.000020 0
-0.001117 0.000005 0
-0.001137 -0.000008 0
-0.001155 -0.000014 0
-0.001172 -0.000003 0
-0.001188 0.000034 0
-0.001203 0.000105 0
-0.001221 0.000209 0
-0.001242 0.000334 0
-0.001270 0.000444 0
-0.001301 0.000480 0
-0.001327 0.000362 0
-0.001331 0.000004 0
-0.001286 -0.000656 0
-0.001161 -0.001599 0
-0.000931 -0.002646 0
-0.000598 -0.003350 0
-0.000228 -0.002882 0
0.000000 -0.001112 0
0.000000 0.001745 0
-0.000070 0.003770 0
-0.000292 0.003354 0
-0.000530 0.001973 0
-0.000704 0.000834 0
-0.000803 0.000132 0
-0.000848 -0.000236 0
-0.000860 -0.000402 0
-0.000855 -0.000462 0
-0.000844 -0.000475 0
-0.000830 -0.000468 0
-0.000814 -0.000456 0
-0.000795 -0.000444 0
-0.000774 -0.000433 0
-0.000750 -0.000423 0
-0.000724 -0.000414 0
-0.000696 -0.000406 0
-0.000667 -0.000399 0
-0.000635 -0.000392 0
-0.000603 -0.000386 0
-0.000570 -0.000381 0
-0.000535 -0.000376 0
-0.000500 -0.000371 0
-0.000465 -0.000367 0
-0.000429 -0.000362 0
-0.000393 -0.000358 0
-0.000356 -0.000354 0
-0.000320 -0.000351 0
-0.000284 -0.000351 0
-0.000246 -0.000355 0
-0.000209 -0.000367 0
-0.000169 -0.000386 0
-0.000128 -0.000407 0
-0.000087 -0.000417 0
-0.000047 -0.000387 0
-0.000015 -0.000268 0
0.000000 -0.000089 0
0.000000 0.000000 0
0.000000 0.000000 0
0.000000 0.000000 0
0.000000 0.000176 0
0.000021 0.000546 0
0.000061 0.000813 0
0.000103 0.000882 0