# vtk DataFile Version 2.0
generated by CFD-lab course output (written by Tobias Neckel) 
ASCII

DATASET STRUCTURED_GRID
DIMENSIONS  99 49 1 
POINTS 4851 float

0.000000 0.000000 0
0.020000 0.000000 0
0.040000 0.000000 0
0.060000 0.000000 0
0.080000 0.000000 0
0.100000 0.000000 0
0.120000 0.000000 0
0.140000 0.000000 0
0.160000 0.000000 0
0.180000 0.000000 0
0.200000 0.000000 0
0.220000 0.000000 0
0.240000 0.000000 0
0.260000 0.000000 0
0.280000 0.000000 0
0.300000 0.000000 0
0.320000 0.000000 0
0.340000 0.000000 0
0.360000 0.000000 0
0.380000 0.000000 0
0.400000 0.000000 0
0.420000 0.000000 0
0.440000 0.000000 0
0.460000 0.000000 0
0.480000 0.000000 0
0.500000 0.000000 0
0.520000 0.000000 0
0.540000 0.000000 0
0.560000 0.000000 0
0.580000 0.000000 0
0.600000 0.000000 0
0.620000 0.000000 0
0.640000 0.000000 0
0.660000 0.000000 0
0.680000 0.000000 0
0.700000 0.000000 0
0.720000 0.000000 0
0.740000 0.000000 0
0.760000 0.000000 0
0.780000 0.000000 0
0.800000 0.000000 0
0.820000 0.000000 0
0.840000 0.000000 0
0.860000 0.000000 0
0.880000 0.000000 0
0.900000 0.000000 0
0.920000 0.000000 0
0.940000 0.000000 0
0.960000 0.000000 0
0.980000 0.000000 0
1.000000 0.000000 0
1.020000 0.000000 0
1.040000 0.000000 0
1.060000 0.000000 0
1.080000 0.000000 0
1.100000 0.000000 0
1.120000 0.000000 0
1.140000 0.000000 0
1.160000 0.000000 0
1.180000 0.000000 0
1.200000 0.000000 0
1.220000 0.000000 0
1.240000 0.000000 0
1.260000 0.000000 0
1.280000 0.000000 0
1.300000 0.000000 0
1.320000 0.000000 0
1.340000 0.000000 0
1.360000 0.000000 0
1.380000 0.000000 0
1.400000 0.000000 0
1.420000 0.000000 0
1.440000 0.000000 0
1.460000 0.000000 0
1.480000 0.000000 0
1.500000 0.000000 0
1.520000 0.000000 0
1.540000 0.000000 0
1.560000 0.000000 0
1.580000 0.000000 0
1.600000 0.000000 0
1.620000 0.000000 0
1.640000 0.000000 0
1.660000 0.000000 0
1.680000 0.000000 0
1.700000 0.000000 0
1.720000 0.000000 0
1.740000 0.000000 0
1.760000 0.000000 0
1.780000 0.000000 0
1.800000 0.000000 0
1.820000 0.000000 0
1.840000 0.000000 0
1.860000 0.000000 0
1.880000 0.000000 0
1.900000 0.000000 0
1.920000 0.000000 0
1.940000 0.000000 0
1.960000 0.000000 0
0.000000 0.020000 0
0.020000 0.020000 0
0.040000 0.020000 0
0.060000 0.020000 0
0.080000 0.020000 0
0.100000 0.020000 0
0.120000 0.020000 0
0.140000 0.020000 0
0.160000 0.020000 0
0.180000 0.020000 0
0.200000 0.020000 0
0.220000 0.020000 0
0.240000 0.020000 0
0.260000 0.020000 0
0.280000 0.020000 0
0.300000 0.020000 0
0.320000 0.020000 0
0.340000 0.020000 0
0.360000 0.020000 0
0.380000 0.020000 0
0.400000 0.020000 0
0.420000 0.020000 0
0.440000 0.020000 0
0.460000 0.020000 0
0.480000 0.020000 0
0.500000 0.020000 0
0.520000 0.020000 0
0.540000 0.020000 0
0.560000 0.020000 0
0.580000 0.020000 0
0.600000 0.020000 0
0.620000 0.020000 0
0.640000 0.020000 0
0.660000 0.020000 0
0.680000 0.020000 0
0.700000 0.020000 0
0.720000 0.020000 0
0.740000 0.020000 0
0.760000 0.020000 0
0.780000 0.020000 0
0.800000 0.020000 0
0.820000 0.020000 0
0.840000 0.020000 0
0.860000 0.020000 0
0.880000 0.020000 0
0.900000 0.020000 0
0.920000 0.020000 0
0.940000 0.020000 0
0.960000 0.020000 0
0.980000 0.020000 0
1.000000 0.020000 0
1.020000 0.020000 0
1.040000 0.020000 0
1.060000 0.020000 0
1.080000 0.020000 0
1.100000 0.020000 0
1.120000 0.020000 0
1.140000 0.020000 0
1.160000 0.020000 0
1.180000 0.020000 0
1.200000 0.020000 0
1.220000 0.020000 0
1.240000 0.020000 0
1.260000 0.020000 0
1.280000 0.020000 0
1.300000 0.020000 0
1.320000 0.020000 0
1.340000 0.020000 0
1.360000 0.020000 0
1.380000 0.020000 0
1.400000 0.020000 0
1.420000 0.020000 0
1.440000 0.020000 0
1.460000 0.020000 0
1.480000 0.020000 0
1.500000 0.020000 0
1.520000 0.020000 0
1.540000 0.020000 0
1.560000 0.020000 0
1.580000 0.020000 0
1.600000 0.020000 0
1.620000 0.020000 0
1.640000 0.020000 0
1.660000 0.020000 0
1.680000 0.020000 0
1.700000 0.020000 0
1.720000 0.020000 0
1.740000 0.020000 0
1.760000 0.020000 0
1.780000 0.020000 0
1.800000 0.020000 0
1.820000 0.020000 0
1.840000 0.020000 0
1.860000 0.020000 0
1.880000 0.020000 0
1.900000 0.020000 0
1.920000 0.020000 0
1.940000 0.020000 0
1.960000 0.020000 0
0.000000 0.040000 0
0.020000 0.040000 0
0.040000 0.040000 0
0.060000 0.040000 0
0.080000 0.040000 0
0.100000 0.040000 0
0.120000 0.040000 0
0.140000 0.040000 0
0.160000 0.040000 0
0.180000 0.040000 0
0.200000 0.040000 0
0.220000 0.040000 0
0.240000 0.040000 0
0.260000 0.040000 0
0.280000 0.040000 0
0.300000 0.040000 0
0.320000 0.040000 0
0.340000 0.040000 0
0.360000 0.040000 0
0.380000 0.040000 0
0.400000 0.040000 0
0.420000 0.040000 0
0.440000 0.040000 0
0.460000 0.040000 0
0.480000 0.040000 0
0.500000 0.040000 0
0.520000 0.040000 0
0.540000 0.040000 0
0.560000 0.040000 0
0.580000 0.040000 0
0.600000 0.040000 0
0.620000 0.040000 0
0.640000 0.040000 0
0.660000 0.040000 0
0.680000 0.040000 0
0.700000 0.040000 0
0.720000 0.040000 0
0.740000 0.040000 0
0.760000 0.040000 0
0.780000 0.040000 0
0.800000 0.040000 0
0.820000 0.040000 0
0.840000 0.040000 0
0.860000 0.040000 0
0.880000 0.040000 0
0.900000 0.040000 0
0.920000 0.040000 0
0.940000 0.040000 0
0.960000 0.040000 0
0.980000 0.040000 0
1.000000 0.040000 0
1.020000 0.040000 0
1.040000 0.040000 0
1.060000 0.040000 0
1.080000 0.040000 0
1.100000 0.040000 0
1.120000 0.040000 0
1.140000 0.040000 0
1.160000 0.040000 0
1.180000 0.040000 0
1.200000 0.040000 0
1.220000 0.040000 0
1.240000 0.040000 0
1.260000 0.040000 0
1.280000 0.040000 0
1.300000 0.040000 0
1.320000 0.040000 0
1.340000 0.040000 0
1.360000 0.040000 0
1.380000 0.040000 0
1.400000 0.040000 0
1.420000 0.040000 0
1.440000 0.040000 0
1.460000 0.040000 0
1.480000 0.040000 0
1.500000 0.040000 0
1.520000 0.040000 0
1.540000 0.040000 0
1.560000 0.040000 0
1.580000 0.040000 0
1.600000 0.040000 0
1.620000 0.040000 0
1.640000 0.040000 0
1.660000 0.040000 0
1.680000 0.040000 0
1.700000 0.040000 0
1.720000 0.040000 0
1.740000 0.040000 0
1.760000 0.040000 0
1.780000 0.040000 0
1.800000 0.040000 0
1.820000 0.040000 0
1.840000 0.040000 0
1.860000 0.040000 0
1.880000 0.040000 0
1.900000 0.040000 0
1.920000 0.040000 0
1.940000 0.040000 0
1.960000 0.040000 0
0.000000 0.060000 0
0.020000 0.060000 0
0.040000 0.060000 0
0.060000 0.060000 0
0.080000 0.060000 0
0.100000 0.060000 0
0.120000 0.060000 0
0.140000 0.060000 0
0.160000 0.060000 0
0.180000 0.060000 0
0.200000 0.060000 0
0.220000 0.060000 0
0.240000 0.060000 0
0.260000 0.060000 0
0.280000 0.060000 0
0.300000 0.060000 0
0.320000 0.060000 0
0.340000 0.060000 0
0.360000 0.060000 0
0.380000 0.060000 0
0.400000 0.060000 0
0.420000 0.060000 0
0.440000 0.060000 0
0.460000 0.060000 0
0.480000 0.060000 0
0.500000 0.060000 0
0.520000 0.060000 0
0.540000 0.060000 0
0.560000 0.060000 0
0.580000 0.060000 0
0.600000 0.060000 0
0.620000 0.060000 0
0.640000 0.060000 0
0.660000 0.060000 0
0.680000 0.060000 0
0.700000 0.060000 0
0.720000 0.060000 0
0.740000 0.060000 0
0.760000 0.060000 0
0.780000 0.060000 0
0.800000 0.060000 0
0.820000 0.060000 0
0.840000 0.060000 0
0.860000 0.060000 0
0.880000 0.060000 0
0.900000 0.060000 0
0.920000 0.060000 0
0.940000 0.060000 0
0.960000 0.060000 0
0.980000 0.060000 0
1.000000 0.060000 0
1.020000 0.060000 0
1.040000 0.060000 0
1.060000 0.060000 0
1.080000 0.060000 0
1.100000 0.060000 0
1.120000 0.060000 0
1.140000 0.060000 0
1.160000 0.060000 0
1.180000 0.060000 0
1.200000 0.060000 0
1.220000 0.060000 0
1.240000 0.060000 0
1.260000 0.060000 0
1.280000 0.060000 0
1.300000 0.060000 0
1.320000 0.060000 0
1.340000 0.060000 0
1.360000 0.060000 0
1.380000 0.060000 0
1.400000 0.060000 0
1.420000 0.060000 0
1.440000 0.060000 0
1.460000 0.060000 0
1.480000 0.060000 0
1.500000 0.060000 0
1.520000 0.060000 0
1.540000 0.060000 0
1.560000 0.060000 0
1.580000 0.060000 0
1.600000 0.060000 0
1.620000 0.060000 0
1.640000 0.060000 0
1.660000 0.060000 0
1.680000 0.060000 0
1.700000 0.060000 0
1.720000 0.060000 0
1.740000 0.060000 0
1.760000 0.060000 0
1.780000 0.060000 0
1.800000 0.060000 0
1.820000 0.060000 0
1.840000 0.060000 0
1.860000 0.060000 0
1.880000 0.060000 0
1.900000 0.060000 0
1.920000 0.060000 0
1.940000 0.060000 0
1.960000 0.060000 0
0.000000 0.080000 0
0.020000 0.080000 0
0.040000 0.080000 0
0.060000 0.080000 0
0.080000 0.080000 0
0.100000 0.080000 0
0.120000 0.080000 0
0.140000 0.080000 0
0.160000 0.080000 0
0.180000 0.080000 0
0.200000 0.080000 0
0.220000 0.080000 0
0.240000 0.080000 0
0.260000 0.080000 0
0.280000 0.080000 0
0.300000 0.080000 0
0.320000 0.080000 0
0.340000 0.080000 0
0.360000 0.080000 0
0.380000 0.080000 0
0.400000 0.080000 0
0.420000 0.080000 0
0.440000 0.080000 0
0.460000 0.080000 0
0.480000 0.080000 0
0.500000 0.080000 0
0.520000 0.080000 0
0.540000 0.080000 0
0.560000 0.080000 0
0.580000 0.080000 0
0.600000 0.080000 0
0.620000 0.080000 0
0.640000 0.080000 0
0.660000 0.080000 0
0.680000 0.080000 0
0.700000 0.080000 0
0.720000 0.080000 0
0.740000 0.080000 0
0.760000 0.080000 0
0.780000 0.080000 0
0.800000 0.080000 0
0.820000 0.080000 0
0.840000 0.080000 0
0.860000 0.080000 0
0.880000 0.080000 0
0.900000 0.080000 0
0.920000 0.080000 0
0.940000 0.080000 0
0.960000 0.080000 0
0.980000 0.080000 0
1.000000 0.080000 0
1.020000 0.080000 0
1.040000 0.080000 0
1.060000 0.080000 0
1.080000 0.080000 0
1.100000 0.080000 0
1.120000 0.080000 0
1.140000 0.080000 0
1.160000 0.080000 0
1.180000 0.080000 0
1.200000 0.080000 0
1.220000 0.080000 0
1.240000 0.080000 0
1.260000 0.080000 0
1.280000 0.080000 0
1.300000 0.080000 0
1.320000 0.080000 0
1.340000 0.080000 0
1.360000 0.080000 0
1.380000 0.080000 0
1.400000 0.080000 0
1.420000 0.080000 0
1.440000 0.080000 0
1.460000 0.080000 0
1.480000 0.080000 0
1.500000 0.080000 0
1.520000 0.080000 0
1.540000 0.080000 0
1.560000 0.080000 0
1.580000 0.080000 0
1.600000 0.080000 0
1.620000 0.080000 0
1.640000 0.080000 0
1.660000 0.080000 0
1.680000 0.080000 0
1.700000 0.080000 0
1.720000 0.080000 0
1.740000 0.080000 0
1.760000 0.080000 0
1.780000 0.080000 0
1.800000 0.080000 0
1.820000 0.080000 0
1.840000 0.080000 0
1.860000 0.080000 0
1.880000 0.080000 0
[...]
POINT_DATA 4851 

VECTORS velocity float
0.000000 0.000000 0
-0.000407 0.000000 0
-0.000544 0.000000 0
-0.000502 0.000000 0
-0.000420 0.000000 0
-0.000349 0.000000 0
-0.000296 0.000000 0
-0.000258 0.000000 0
-0.000229 0.000000 0
-0.000207 0.000000 0
-0.000189 0.000000 0
-0.000175 0.000000 0
-0.000162 0.000000 0
-0.000150 0.000000 0
-0.000140 0.000000 0
-0.000131 0.000000 0
-0.000122 0.000000 0
-0.000114 0.000000 0
-0.000106 0.000000 0
-0.000099 0.000000 0
-0.000092 0.000000 0
-0.000085 0.000000 0
-0.000079 0.000000 0
-0.000073 0.000000 0
-0.000067 0.000000 0
-0.000061 0.000000 0
-0.000056 0.000000 0
-0.000051 0.000000 0
-0.000046 0.000000 0
-0.000041 0.000000 0
-0.000036 0.000000 0
-0.000031 0.000000 0
-0.000025 0.000000 0
-0.000017 0.000000 0
-0.000010 0.000000 0
-0.000003 0.000000 0
0.000000 0.000000 0
0.000000 0.000000 0
0.000000 0.000000 0
0.000000 0.000000 0
0.000000 0.000000 0
-0.000020 0.000000 0
-0.000061 0.000000 0
-0.000104 0.000000 0
-0.000137 0.000000 0
-0.000161 0.000000 0
-0.000175 0.000000 0
-0.000185 0.000000 0
-0.000190 0.000000 0
-0.000194 0.000000 0
-0.000197 0.000000 0
-0.000200 0.000000 0
-0.000202 0.000000 0
-0.000204 0.000000 0
-0.000206 0.000000 0
-0.000207 0.000000 0
-0.000209 0.000000 0
-0.000211 0.000000 0
-0.000212 0.000000 0
-0.000213 0.000000 0
-0.000215 0.000000 0
-0.000216 0.000000 0
-0.000217 0.000000 0
-0.000218 0.000000 0
-0.000219 0.000000 0
-0.000220 0.000000 0
-0.000221 0.000000 0
-0.000222 0.000000 0
-0.000223 0.000000 0
-0.000224 0.000000 0
-0.000225 0.000000 0
-0.000226 0.000000 0
-0.000226 0.000000 0
-0.000227 0.000000 0
-0.000228 0.000000 0
-0.000229 0.000000 0
-0.000230 0.000000 0
-0.000231 0.000000 0
-0.000231 0.000000 0
-0.000232 0.000000 0
-0.000232 0.000000 0
-0.000231 0.000000 0
-0.000230 0.000000 0
-0.000228 0.000000 0
-0.000226 0.000000 0
-0.000225 0.000000 0
-0.000226 0.000000 0
-0.000230 0.000000 0
-0.000239 0.000000 0
-0.000255 0.000000 0
-0.000276 0.000000 0
-0.000302 0.000000 0
-0.000325 0.000000 0
-0.000339 0.000000 0
-0.000330 0.000000 0
-0.000284 0.000000 0
-0.000195 0.000000 0
-0.000079 0.000000 0
0.000000 0.000000 0
0.000000 0.000407 0
-0.000809 0.000545 0
-0.001260 0.000096 0
-0.001315 -0.000123 0
-0.001211 -0.000151 0
-0.001075 -0.000123 0
-0.000952 -0.000091 0
-0.000851 -0.000066 0
-0.000769 -0.000050 0
-0.000703 -0.000039 0
-0.000647 -0.000032 0
-0.000599 -0.000027 0
-0.000556 -0.000024 0
-0.000519 -0.000021 0
-0.000485 -0.000019 0
-0.000453 -0.000017 0
-0.000424 -0.000016 0
-0.000396 -0.000015 0
-0.000370 -0.000014 0
-0.000345 -0.000013 0
-0.000322 -0.000013 0
-0.000299 -0.000012 0
-0.000277 -0.000012 0
-0.000255 -0.000011 0
-0.000235 -0.000011 0
-0.000215 -0.000010 0
-0.000196 -0.000010 0
-0.000177 -0.000010 0
-0.000159 -0.000009 0
-0.000141 -0.000009 0
-0.000123 -0.000010 0
-0.000104 -0.000011 0
-0.000082 -0.000013 0
-0.000058 -0.000014 0
-0.000033 -0.000014 0
-0.000011 -0.000009 0
0.000000 -0.000002 0
0.000000 0.000000 0
0.000000 0.000000 0
0.000000 0.000000 0
0.000000 0.000020 0
-0.000060 0.000061 0
-0.000176 0.000083 0
-0.000298 0.000076 0
-0.000403 0.000057 0
-0.000480 0.000038 0
-0.000535 0.000023 0
-0.000572 0.000014 0
-0.000598 0.000009 0
-0.000617 0.000006 0
-0.000631 0.000005 0
-0.000643 0.000004 0
-0.000653 0.000004 0
-0.000662 0.000003 0
-0.000671 0.000003 0
-0.000678 0.000003 0
-0.000685 0.000003 0
-0.000691 0.000002 0
-0.000697 0.000002 0
-0.000703 0.000002 0
-0.000708 0.000002 0
-0.000713 0.000002 0
-0.000717 0.000002 0
-0.000722 0.000002 0
-0.000726 0.000002 0
-0.000729 0.000002 0
-0.000733 0.000001 0
-0.000736 0.000001 0
-0.000740 0.000001 0
-0.000743 0.000001 0
-0.000746 0.000001 0
-0.000749 0.000001 0
-0.000751 0.000001 0
-0.000754 0.000001 0
-0.000757 0.000001 0
-0.000760 0.000001 0
-0.000762 0.000001 0
-0.000764 0.000001 0
-0.000766 0.000001 0
-0.000767 -0.000000 0
-0.000766 -0.000001 0
-0.000763 -0.000002 0
-0.000759 -0.000003 0
-0.000753 -0.000004 0
-0.000748 -0.000004 0
-0.000745 -0.000001 0
-0.000749 0.000005 0
-0.000763 0.000013 0
-0.000792 0.000024 0
-0.000837 0.000036 0
-0.000897 0.000046 0
-0.000963 0.000049 0
-0.001019 0.000037 0
-0.001036 0.000004 0
-0.000982 -0.000055 0
-0.000824 -0.000135 0
-0.000553 -0.000205 0
-0.000222 -0.000195 0
0.000000 -0.000079 0
0.000000 0.000810 0
-0.000697 0.001261 0
-0.001351 0.000507 0
-0.001638 -0.000048 0
-0.001673 -0.000239 0
-0.001593 -0.000258 0
-0.001478 -0.000223 0
-0.001362 -0.000182 0
-0.001255 -0.000148 0
-0.001162 -0.000122 0
-0.001079 -0.000103 0
-0.001006 -0.000089 0
-0.000940 -0.000079 0
-0.000880 -0.000071 0
-0.000824 -0.000065 0
-0.000773 -0.000060 0
-0.000724 -0.000056 0
-0.000679 -0.000053 0
-0.000635 -0.000050 0
-0.000593 -0.000048 0
-0.000553 -0.000046 0
-0.000515 -0.000044 0
-0.000477 -0.000042 0
-0.000441 -0.000041 0
-0.000405 -0.000040 0
-0.000371 -0.000038 0
-0.000337 -0.000037 0
-0.000305 -0.000036 0
-0.000273 -0.000035 0
-0.000241 -0.000035 0
-0.000208 -0.000037 0
-0.000174 -0.000040 0
-0.000137 -0.000045 0
-0.000096 -0.000049 0
-0.000055 -0.000047 0
-0.000019 -0.000032 0
0.000000 -0.000010 0
0.000000 0.000000 0
0.000000 0.000000 0
0.000000 0.000000 0
0.000000 0.000059 0
-0.000083 0.000175 0
-0.000239 0.000238 0
-0.000410 0.000226 0
-0.000565 0.000181 0
-0.000690 0.000132 0
-0.000785 0.000091 0
-0.000856 0.000062 0
-0.000908 0.000044 0
-0.000948 0.000033 0
-0.000979 0.000026 0
-0.001005 0.000022 0
-0.001028 0.000019 0
-0.001047 0.000017 0
-0.001065 0.000015 0
-0.001081 0.000014 0
-0.001095 0.000013 0
-0.001108 0.000012 0
-0.001120 0.000011 0
-0.001131 0.000010 0
-0.001142 0.000009 0
-0.001151 0.000009 0
-0.001160 0.000008 0
-0.001168 0.000008 0
-0.001176 0.000007 0
-0.001183 0.000007 0
-0.001190 0.000006 0
-0.001196 0.000006 0
-0.001202 0.000006 0
-0.001208 0.000005 0
-0.001213 0.000005 0
-0.001218 0.000005 0
-0.001223 0.000005 0
-0.001227 0.000005 0
-0.001231 0.000005 0
-0.001236 0.000005 0
-0.001239 0.000004 0
-0.001242 0.000003 0
-0.001244 0.000002 0
-0.001244 -0.000001 0
-0.001242 -0.000004 0
-0.001238 -0.000007 0
-0.001231 -0.000010 0
-0.001222 -0.000012 0
-0.001214 -0.000009 0
-0.001211 0.000000 0
-0.001218 0.000017 0
-0.001240 0.000042 0
-0.001282 0.000074 0
-0.001346 0.000105 0
-0.001426 0.000126 0
-0.001508 0.000121 0
-0.001564 0.000072 0
-0.001556 -0.000037 0
-0.001440 -0.000213 0
-0.001178 -0.000430 0
-0.000772 -0.000603 0
-0.000304 -0.000553 0
0.000000 -0.000222 0
0.000000 0.001105 0
-0.000501 0.001896 0
-0.001146 0.001037 0
-0.001556 0.000200 0
-0.001723 -0.000196 0
-0.001738 -0.000318 0
-0.001679 -0.000322 0
-0.001592 -0.000289 0
-0.001498 -0.000250 0
-0.001407 -0.000215 0
-0.001321 -0.000188 0
-0.001242 -0.000166 0
-0.001168 -0.000149 0
-0.001099 -0.000136 0
-0.001034 -0.000126 0
-0.000973 -0.000117 0
-0.000914 -0.000110 0
-0.000859 -0.000104 0
-0.000806 -0.000099 0
-0.000754 -0.000095 0
-0.000704 -0.000091 0
-0.000656 -0.000088 0
-0.000609 -0.000085 0
-0.000563 -0.000083 0
-0.000518 -0.000080 0
-0.000474 -0.000078 0
-0.000431 -0.000076 0
-0.000388 -0.000074 0
-0.000347 -0.000073 0
-0.000305 -0.000073 0
-0.000262 -0.000076 0
-0.000218 -0.000082 0
-0.000170 -0.000090 0
-0.000120 -0.000096 0
-0.000068 -0.000091 0
-0.000024 -0.000064 0
0.000000 -0.000021 0
0.000000 0.000000 0
0.000000 0.000000 0
0.000000 0.000000 0
0.000000 0.000102 0
-0.000079 0.000299 0
-0.000233 0.000410 0
-0.000410 0.000402 0
-0.000578 0.000336 0
-0.000722 0.000258 0
-0.000838 0.000189 0
-0.000930 0.000137 0
-0.001002 0.000101 0
-0.001059 0.000078 0
-0.001106 0.000062 0
-0.001145 0.000052 0
-0.001179 0.000045 0
-0.001209 0.000040 0
-0.001236 0.000036 0
-0.001260 0.000033 0
-0.001282 0.000030 0
-0.001302 0.000027 0
-0.001321 0.000025 0
-0.001338 0.000023 0
-0.001353 0.000022 0
-0.001367 0.000020 0
-0.001380 0.000019 0
-0.001392 0.000017 0
-0.001403 0.000016 0
-0.001414 0.000015 0
-0.001423 0.000014 0
-0.001432 0.000013 0
-0.001441 0.000013 0
-0.001449 0.000012 0
-0.001456 0.000011 0
-0.001463 0.000011 0
-0.001469 0.000010 0
-0.001475 0.000010 0
-0.001480 0.000010 0
-0.001485 0.000009 0
-0.001490 0.000008 0
-0.001493 0.000006 0
-0.001496 0.000002 0
-0.001496 -0.000002 0
-0.001494 -0.000008 0
-0.001489 -0.000014 0
-0.001481 -0.000019 0
-0.001472 -0.000020 0
-0.001465 -0.000015 0
-0.001462 0.000002 0
-0.001470 0.000033 0
-0.001493 0.000077 0
-0.001538 0.000130 0
-0.001604 0.000180 0
-0.001683 0.000208 0
-0.001759 0.000187 0
-0.001801 0.000086 0
-0.001767 -0.000120 0
-0.001610 -0.000434 0
-0.001297 -0.000803 0
-0.000836 -0.001080 0
-0.000323 -0.000968 0
0.000000 -0.000383 0
0.000000 0.001311 0
-0.000349 0.002408 0
-0.000913 0.001563 0
-0.001348 0.000529 0
-0.001585 -0.000057 0
-0.001672 -0.000301 0
-0.001671 -0.000368 0
-0.001624 -0.000363 0
-0.001558 -0.000333 0
-0.001484 -0.000299 0
-0.001409 -0.000268 0
-0.001336 -0.000243 0
-0.001265 -0.000222 0
-0.001198 -0.000205 0
-0.001133 -0.000191 0
-0.001070 -0.000179 0
-0.001009 -0.000170 0
-0.000951 -0.000161 0
-0.000894 -0.000155 0
-0.000838 -0.000149 0
-0.000784 -0.000144 0
-0.000732 -0.000139 0
-0.000680 -0.000135 0
-0.000629 -0.000132 0
-0.000579 -0.000128 0
-0.000530 -0.000125 0
-0.000482 -0.000122 0
-0.000434 -0.000120 0
-0.000387 -0.000118 0
-0.000339 -0.000119 0
-0.000291 -0.000124 0
-0.000240 -0.000132 0
-0.000187 -0.000142 0
-0.000131 -0.000150 0
-0.000075 -0.000143 0
-0.000026 -0.000100 0
0.000000 -0.000034 0
0.000000 0.000000 0
0.000000 0.000000 0
0.000000 0.000000 0
0.000000 0.000138 0
-0.000062 0.000408 0
-0.000191 0.000568 0
-0.000347 0.000571 0
-0.000502 0.000493 0
-0.000642 0.000392 0
-0.000761 0.000299 0
-0.000860 0.000226 0
-0.000942 0.000173 0
-0.001010 0.000136 0
-0.001067 0.000112 0
-0.001117 0.000095 0
-0.001161 0.000083 0
-0.001200 0.000073 0
-0.001235 0.000066 0
-0.001268 0.000060 0
-0.001297 0.000055 0
-0.001324 0.000050 0
-0.001348 0.000046 0
-0.001371 0.000042 0
-0.001391 0.000039 0
-0.001410 0.000036 0
-0.001427 0.000033 0
-0.001443 0.000031 0
-0.001457 0.000029 0
-0.001471 0.000027 0
-0.001483 0.000025 0
-0.001495 0.000023 0
-0.001506 0.000022 0
-0.001516 0.000020 0
-0.001525 0.000019 0
-0.001534 0.000018 0
-0.001542 0.000017 0
-0.001550 0.000016 0
-0.001557 0.000015 0
-0.001563 0.000014 0
-0.001569 0.000012 0
-0.001574 0.000009 0
-0.001577 0.000004 0
-0.001579 -0.000003 0
-0.001579 -0.000011 0
-0.001576 -0.000020 0
-0.001570 -0.000027 0
-0.001563 -0.000028 0
-0.001557 -0.000020 0
-0.001556 0.000005 0
-0.001564 0.000048 0
-0.001586 0.000111 0
-0.001627 0.000184 0
-0.001687 0.000250 0
-0.001759 0.000282 0
-0.001824 0.000239 0
-0.001851 0.000080 0
-0.001800 -0.000228 0
-0.001626 -0.000683 0
-0.001297 -0.001204 0
-0.000828 -0.001577 0
-0.000316 -0.001389 0
0.000000 -0.000545 0
0.000000 0.001455 0
-0.000245 0.002810 0
-0.000716 0.002035 0
-0.001124 0.000872 0
-0.001382 0.000128 0
-0.001507 -0.000231 0
-0.001544 -0.000370 0
-0.001532 -0.000402 0
-0.001493 -0.000390 0
-0.001441 -0.000364 0
-0.001383 -0.000335 0
-0.001323 -0.000309 0
-0.001262 -0.000287 0
-0.001202 -0.000269 0
-0.001143 -0.000253 0
-0.001084 -0.000240 0
-0.001027 -0.000229 0
-0.000970 -0.000219 0
-0.000915 -0.000211 0
-0.000860 -0.000204 0
-0.000806 -0.000198 0
-0.000753 -0.000193 0
-0.000701 -0.000188 0
-0.000649 -0.000183 0
-0.000598 -0.000179 0
-0.000547 -0.000175 0
-0.000497 -0.000172 0
-0.000448 -0.000169 0
-0.000399 -0.000167 0
-0.000349 -0.000169 0
-0.000298 -0.000175 0
-0.000246 -0.000185 0
-0.000191 -0.000199 0
-0.000133 -0.000208 0
-0.000075 -0.000196 0
-0.000026 -0.000138 0
0.000000 -0.000047 0
0.000000 0.000000 0
0.000000 0.000000 0
0.000000 0.000000 0
0.000000 0.000164 0
-0.000041 0.000490 0
-0.000134 0.000694 0
-0.000253 0.000712 0
-0.000379 0.000631 0
-0.000499 0.000517 0
-0.000607 0.000407 0
-0.000700 0.000317 0
-0.000782 0.000250 0
-0.000852 0.000203 0
-0.000914 0.000169 0
-0.000970 0.000146 0
-0.001020 0.000128 0
-0.001066 0.000115 0
-0.001109 0.000104 0
-0.001148 0.000094 0
-0.001184 0.000086 0
-0.001218 0.000079 0
-0.001248 0.000072 0
-0.001276 0.000066 0
-0.001302 0.000060 0
-0.001325 0.000056 0
-0.001346 0.000051 0
-0.001365 0.000048 0
-0.001383 0.000044 0
-0.001400 0.000041 0
-0.001415 0.000038 0
-0.001429 0.000036 0
-0.001443 0.000033 0
-0.001456 0.000031 0
-0.001467 0.000029 0
-0.001479 0.000027 0
-0.001489 0.000026 0
-0.001499 0.000024 0
-0.001508 0.000023 0
-0.001517 0.000021 0
-0.001525 0.000018 0
-0.001532 0.000014 0
-0.001538 0.000008 0
-0.001543 -0.000001 0
-0.001546 -0.000012 0
-0.001547 -0.000023 0
-0.001546 -0.000032 0
-0.001543 -0.000033 0
-0.001541 -0.000022 0
-0.001542 0.000009 0
-0.001550 0.000063 0
-0.001571 0.000141 0
-0.001607 0.000231 0
-0.001658 0.000311 0
-0.001719 0.000344 0
-0.001773 0.000279 0
-0.001790 0.000062 0
-0.001732 -0.000346 0
-0.001557 -0.000937 0
-0.001237 -0.001601 0
-0.000786 -0.002062 0
-0.000297 -0.001796 0
0.000000 -0.000699 0
0.000000 0.001557 0
-0.000175 0.003124 0
-0.000561 0.002442 0
-0.000925 0.001195 0
-0.001173 0.000325 0
-0.001309 -0.000137 0
-0.001365 -0.000343 0
-0.001373 -0.000414 0
-0.001355 -0.000424 0
-0.001322 -0.000409 0
-0.001280 -0.000386 0
-0.001235 -0.000363 0
-0.001187 -0.000342 0
-0.001138 -0.000324 0
-0.001087 -0.000308 0
-0.001036 -0.000295 0
-0.000985 -0.000283 0
-0.000934 -0.000273 0
-0.000883 -0.000265 0
-0.000833 -0.000257 0
-0.000782 -0.000250 0
-0.000732 -0.000244 0
-0.000682 -0.000239 0
-0.000632 -0.000234 0
-0.000583 -0.000230 0
-0.000534 -0.000225 0
-0.000485 -0.000221 0
-0.000437 -0.000218 0
-0.000388 -0.000217 0
-0.000339 -0.000219 0
-0.000290 -0.000226 0
-0.000238 -0.000239 0
-0.000184 -0.000255 0
-0.000127 -0.000265 0
-0.000072 -0.000250 0
-0.000024 -0.000175 0
0.000000 -0.000059 0
0.000000 0.000000 0
0.000000 0.000000 0
0.000000 0.000000 0
0.000000 0.000179 0
-0.000021 0.000541 0
-0.000075 0.000780 0
-0.000151 0.000815 0
-0.000238 0.000739 0
-0.000327 0.000620 0
-0.000413 0.000501 0
-0.000492 0.000401 0
-0.000564 0.000324 0
-0.000629 0.000269 0
-0.000690 0.000229 0
-0.000747 0.000201 0
-0.000800 0.000179 0
-0.000851 0.000162 0
-0.000898 0.000148 0
-0.000943 0.000135 0
-0.000985 0.000124 0
-0.001025 0.000114 0
-0.001061 0.000104 0
-0.001094 0.000095 0
-0.001125 0.000087 0
-0.001153 0.000080 0
-0.001178 0.000073 0
-0.001201 0.000068 0
-0.001222 0.000063 0
-0.001241 0.000058 0
-0.001259 0.000055 0
-0.001276 0.000051 0
-0.001292 0.000048 0
-0.001308 0.000045 0
-0.001323 0.000042 0
-0.001337 0.000040 0
-0.001350 0.000037 0
-0.001363 0.000035 0
-0.001375 0.000033 0
-0.001386 0.000031 0
-0.001397 0.000027 0
-0.001408 0.000022 0
-0.001418 0.000015 0
-0.001427 0.000005 0
-0.001435 -0.000008 0
-0.001442 -0.000021 0
-0.001447 -0.000031 0
-0.001450 -0.000033 0
-0.001453 -0.000021 0
-0.001458 0.000014 0
-0.001468 0.000077 0
-0.001486 0.000167 0
-0.001517 0.000271 0
-0.001560 0.000363 0
-0.001610 0.000396 0
-0.001654 0.000309 0
-0.001664 0.000039 0
-0.001606 -0.000462 0
-0.001442 -0.001178 0
-0.001145 -0.001976 0
-0.000727 -0.002517 0
-0.000274 -0.002175 0
0.000000 -0.000842 0
0.000000 0.001630 0
-0.000126 0.003372 0
-0.000443 0.002786 0
-0.000760 0.001484 0
-0.000984 0.000512 0
-0.001114 -0.000039 0
-0.001174 -0.000305 0
-0.001191 -0.000412 0
-0.001184 -0.000442 0
-0.001163 -0.000438 0
-0.001136 -0.000422 0
-0.001103 -0.000403 0
-0.001068 -0.000384 0
-0.001029 -0.000368 0
-0.000989 -0.000354 0
-0.000947 -0.000341 0
-0.000904 -0.000331 0
-0.000860 -0.000321 0
-0.000816 -0.000312 0
-0.000771 -0.000305 0
-0.000726 -0.000298 0
-0.000680 -0.000293 0
-0.000634 -0.000287 0
-0.000589 -0.000282 0
-0.000543 -0.000277 0
-0.000498 -0.000273 0
-0.000452 -0.000268 0
-0.000407 -0.000265 0
-0.000361 -0.000264 0
-0.000315 -0.000267 0
-0.000268 -0.000276 0
-0.000220 -0.000291 0
-0.000169 -0.000309 0
-0.000116 -0.000320 0
-0.000065 -0.000299 0
-0.000021 -0.000209 0
0.000000 -0.000071 0
0.000000 0.000000 0
0.000000 0.000000 0
0.000000 0.000000 0
0.000000 0.000185 0
-0.000003 0.000564 0
-0.000020 0.000824 0
-0.000053 0.000875 0
-0.000099 0.000808 0
-0.000152 0.000692 0
-0.000209 0.000571 0
-0.000266 0.000468 0
-0.000322 0.000388 0
-0.000377 0.000329 0
-0.000431 0.000287 0
-0.000484 0.000256 0
-0.000536 0.000232 0
-0.000587 0.000213 0
-0.000638 0.000196 0
-0.000686 0.000181 0
-0.000733 0.000167 0
-0.000778 0.000154 0
-0.000820 0.000142 0
-0.000859 0.000130 0
-0.000895 0.000119 0
-0.000927 0.000108 0
-0.000957 0.000099 0
-0.000983 0.000091 0
-0.001007 0.000084 0
-0.001029 0.000078 0
-0.001050 0.000073 0
-0.001069 0.000069 0
-0.001088 0.000065 0
-0.001106 0.000061 0
-0.001124 0.000058 0
-0.001141 0.000055 0
-0.001157 0.000052 0
-0.001173 0.000049 0
-0.001189 0.000046 0
-0.001204 0.000043 0
-0.001219 0.000040 0
-0.001233 0.000034 0
-0.001248 0.000027 0
-0.001262 0.000016 0
-0.001276 0.000003 0
-0.001289 -0.000012 0
-0.001301 -0.000024 0
-0.001311 -0.000027 0
-0.001321 -0.000014 0
-0.001330 0.000023 0
-0.001343 0.000091 0
-0.001360 0.000189 0
-0.001386 0.000304 0
-0.001420 0.000405 0
-0.001460 0.000438 0
-0.001495 0.000333 0
-0.001501 0.000014 0
-0.001448 -0.000569 0
-0.001301 -0.001398 0
-0.001036 -0.002317 0
-0.000660 -0.002933 0
-0.000250 -0.002523 0
0.000000 -0.000973 0
0.000000 0.001684 0
-0.000092 0.003568 0
-0.000353 0.003076 0
-0.000626 0.001736 0
-0.000824 0.000680 0
-0.000939 0.000052 0
-0.000992 -0.000266 0
-0.001009 -0.000404 0
-0.001006 -0.000451 0
-0.000993 -0.000456 0
-0.000975 -0.000446 0
-0.000952 -0.000431 0
-0.000926 -0.000416 0
-0.000898 -0.000402 0
-0.000867 -0.000390 0
-0.000834 -0.000379 0
-0.000799 -0.000370 0
-0.000763 -0.000361 0
-0.000725 -0.000354 0
-0.000687 -0.000347 0
-0.000648 -0.000341 0
-0.000608 -0.000335 0
-0.000568 -0.000330 0
-0.000528 -0.000325 0
-0.000487 -0.000321 0
-0.000446 -0.000316 0
-0.000405 -0.000312 0
-0.000364 -0.000309 0
-0.000323 -0.000308 0
-0.000282 -0.000312 0
-0.000239 -0.000322 0
-0.000195 -0.000339 0
-0.000149 -0.000358 0
-0.000101 -0.000369 0
-0.000056 -0.000344 0
-0.000018 -0.000240 0
0.000000 -0.000080 0
0.000000 0.000000 0
0.000000 0.000000 0
0.000000 0.000000 0
0.000000 0.000182 0
0.000010 0.000561 0
0.000024 0.000830 0
0.000031 0.000893 0
0.000026 0.000837 0
0.000010 0.000730 0
-0.000015 0.000614 0
-0.000046 0.000514 0
-0.000082 0.000435 0
-0.000122 0.000377 0
-0.000164 0.000336 0
-0.000209 0.000306 0
-0.000256 0.000283 0
-0.000305 0.000264 0
-0.000355 0.000247 0
-0.000405 0.000231 0
-0.000455 0.000215 0
-0.000504 0.000200 0
-0.000551 0.000185 0
-0.000595 0.000170 0
-0.000637 0.000155 0
-0.000675 0.000142 0
-0.000709 0.000129 0
-0.000740 0.000118 0
-0.000767 0.000109 0
-0.000792 0.000101 0
-0.000815 0.000095 0
-0.000836 0.000089 0
-0.000857 0.000084 0
-0.000878 0.000080 0
-0.000898 0.000076 0
-0.000918 0.000073 0
-0.000937 0.000070 0
-0.000957 0.000066 0
-0.000976 0.000063 0
-0.000995 0.000060 0
-0.001013 0.000056 0
-0.001032 0.000051 0
-0.001051 0.000043 0
-0.001070 0.000033 0
-0.001090 0.000019 0
-0.001110 0.000004 0
-0.001129 -0.000009 0
-0.001146 -0.000013 0
-0.001163 -0.000002 0
-0.001178 0.000036 0
-0.001193 0.000106 0
-0.001210 0.000209 0
-0.001232 0.000331 0
-0.001259 0.000438 0
-0.001290 0.000470 0
-0.001315 0.000349 0
-0.001319 -0.000008 0
-0.001273 -0.000662 0
-0.001148 -0.001590 0
-0.000919 -0.002617 0
-0.000589 -0.003303 0
-0.000225 -0.002835 0
0.000000 -0.001092 0
0.000000 0.001723 0
-0.000068 0.003726 0
-0.000285 0.003320 0
-0.000519 0.001954 0
-0.000691 0.000826 0
-0.000789 0.000130 0
-0.000833 -0.000234 0
-0.000845 -0.000398 0
-0.000841 -0.000457 0
-0.000830 -0.000469 0
-0.000816 -0.000463 0
-0.000800 -0.000451 0
-0.000782 -0.000438 0
-0.000761 -0.000427 0
-0.000738 -0.000418 0
-0.000712 -0.000409 0
-0.000685 -0.000401 0
-0.000656 -0.000394 0
-0.000625 -0.000388 0
-0.000593 -0.000382 0
-0.000560 -0.000377 0
-0.000526 -0.000372 0
-0.000492 -0.000368 0
-0.000457 -0.000363 0
-0.000422 -0.000359 0
-0.000386 -0.000354 0
-0.000350 -0.000350 0
-0.000314 -0.000347 0
-0.000279 -0.000347 0
-0.000242 -0.000351 0
-0.000205 -0.000363 0
-0.000166 -0.000381 0
-0.000126 -0.000402 0
-0.000085 -0.000412 0
-0.000046 -0.000383 0
-0.000015 -0.000265 0
0.000000 -0.000088 0
0.000000 0.000000 0
0.000000 0.000000 0
0.000000 0.000000 0
0.000000 0.000174 0
0.000020 0.000539 0
0.000059 0.000803 0
0.000099 0.000873 0