/*--------------------------------*- C++ -*----------------------------------*\
| =========                 |                                                 |
| \\      /  F ield         | OpenFOAM: The Open Source CFD Toolbox           |
|  \\    /   O peration     | Version:  5.x                                   |
|   \\  /    A nd           | Web:      www.OpenFOAM.org                      |
|    \\/     M anipulation  |                                                 |
\*---------------------------------------------------------------------------*/
FoamFile
{
    version     2.0;
    format      ascii;
    class       volScalarField;
    location    "7.5";
    object      gradTx;
}
// * * * * * * * * * * * * * * * * * * * * * * * * * * * * * * * * * * * * * //

dimensions      [0 -1 0 1 0 0 0];

internalField   nonuniform List<scalar> 
6300
(
84.5065
85.0529
86.1345
87.7283
89.7976
92.29
95.1352
98.2428
101.501
104.777
107.92
110.768
113.159
114.938
115.977
83.9579
84.5155
85.6202
87.2506
89.3722
91.9349
94.8706
98.0899
101.481
104.907
108.212
111.224
113.767
115.675
116.806
82.8496
83.4285
84.5779
86.2795
88.5032
91.2044
94.3198
97.7633
101.422
105.156
108.795
112.147
115.009
117.185
118.507
81.1601
81.7691
82.9813
84.7839
87.1546
90.0576
93.4385
97.2185
101.287
105.497
109.661
113.556
116.934
119.547
121.178
78.8594
79.5042
80.7921
82.7181
85.2714
88.4304
92.1559
96.3827
101.008
105.882
110.795
115.48
119.621
122.887
124.978
75.9117
76.5941
77.9625
80.0229
82.7804
86.2343
90.3697
95.1456
100.479
106.224
112.154
117.945
123.182
127.4
130.159
72.2796
72.9959
74.4389
76.6284
79.5908
83.3544
87.9405
93.3489
99.5352
106.38
113.65
120.96
127.76
133.369
137.105
67.9292
68.6689
70.1667
72.4588
75.5978
79.6498
84.6869
90.7717
97.9305
106.108
115.103
124.484
133.524
141.209
146.415
62.837
63.582
65.0984
67.4401
70.6896
74.9581
80.3834
87.1182
95.3044
105.018
116.168
128.346
140.64
151.525
159.058
56.9979
57.7216
59.2027
61.5117
64.7603
69.1078
74.7681
82.011
91.1489
102.487
116.201
132.089
149.162
165.191
176.671
50.4334
51.1018
52.4774
54.642
57.73
61.9426
67.5681
75.0067
84.7908
97.5786
114.059
134.642
158.727
183.401
202.232
43.1988
43.7732
44.9611
46.8471
49.5734
53.3626
58.5531
65.6547
75.4269
88.975
107.811
133.692
167.697
207.451
241.686
35.3883
35.8293
36.7452
38.2102
40.3523
43.3794
47.6252
53.6302
62.285
75.0808
94.516
124.613
170.914
237.015
308.484
27.1352
27.4088
27.9787
28.8947
30.2446
32.1759
34.9365
38.954
45.0001
54.5448
70.5563
99.3274
154.329
261.207
438.405
18.607
18.6908
18.8649
19.1437
19.5539
20.1419
20.9894
22.2476
24.2148
27.54
33.8349
47.8088
85.8632
215.074
746.956
116.234
115.799
114.75
113.105
110.9
108.183
105.012
101.45
97.5582
93.3942
89.0112
84.4557
79.7676
74.9811
70.1247
65.2229
60.2969
55.3651
50.444
45.5484
40.692
35.887
31.1444
26.4741
21.8843
17.3822
12.9734
8.66236
4.45197
0.344034
-3.6608
-7.56288
-11.3634
-15.064
-18.6669
-22.1743
-25.5882
-28.9106
-32.1429
-35.2864
-38.3419
-41.3106
-44.1933
-46.9919
-49.7082
-52.3454
-54.9067
-57.3962
-59.8182
-62.1767
-64.4752
-66.7164
-68.9016
-71.031
-73.1033
-75.116
-77.0658
-78.9492
-80.7623
-82.5015
-84.1639
-85.7468
-87.2476
-88.6637
-89.9916
-91.2265
-92.3616
-93.3879
-94.2939
-95.0657
-95.6874
-96.1416
-96.4106
-96.477
-96.3249
-95.9405
-95.3131
-94.4355
-93.3044
-91.9205
-90.2884
-88.4171
-86.3199
-84.0143
-81.5223
-78.8699
-76.0878
-73.2099
-70.273
-67.3154
117.109
116.68
115.606
113.91
111.634
108.833
105.574
101.924
97.9477
93.7078
89.2579
84.6449
79.908
75.0802
70.1887
65.2568
60.3042
55.3488
50.4063
45.4913
40.6174
35.7966
31.0401
26.3577
21.7579
17.2477
12.8327
8.5174
4.30452
0.195741
-3.80852
-7.70887
-11.5068
-15.2043
-18.804
-22.3083
-25.7195
-29.0396
-32.2702
-35.4122
-38.4664
-41.4334
-44.3139
-47.1093
-49.8216
-52.4536
-55.0091
-57.4925
-59.9086
-62.262
-64.5567
-66.7958
-68.981
-71.1122
-73.1879
-75.2053
-77.1605
-79.0492
-80.8673
-82.611
-84.2772
-85.8636
-87.3683
-88.7894
-90.1242
-91.3687
-92.5168
-93.5597
-94.4858
-95.2805
-95.927
-96.4069
-96.7009
-96.7903
-96.6578
-96.2889
-95.6719
-94.7992
-93.6672
-92.2763
-90.6313
-88.7411
-86.6187
-84.2816
-81.7517
-79.0556
-76.2245
-73.2938
-70.3019
-67.2892
118.906
118.486
117.356
115.548
113.12
110.143
106.697
102.863
98.7155
94.3216
89.7377
85.0107
80.1779
75.2695
70.3098
65.319
60.3147
55.3128
50.3281
45.3746
40.4654
35.6131
30.8286
26.1221
21.5021
16.9757
12.5486
8.22491
4.00731
-0.102866
-4.1056
-8.00204
-11.7943
-15.4852
-19.0779
-22.5757
-25.9813
-29.297
-32.5243
-35.6638
-38.7157
-41.6798
-44.5562
-47.3455
-50.0495
-52.6711
-55.2144
-57.6849
-60.0883
-62.4307
-64.7173
-66.952
-69.1369
-71.2721
-73.3554
-75.3829
-77.3495
-79.2497
-81.0782
-82.8307
-84.5041
-86.0967
-87.608
-89.0378
-90.3854
-91.6484
-92.8221
-93.8984
-94.8652
-95.7071
-96.4052
-96.9382
-97.2842
-97.4214
-97.3299
-96.9929
-96.3974
-95.5348
-94.401
-92.9965
-91.3259
-89.3979
-87.2253
-84.825
-82.219
-79.4343
-76.5035
-73.4644
-70.3594
-67.2335
121.726
121.312
120.078
118.078
115.393
112.124
108.377
104.251
99.8363
95.2069
90.4221
85.527
80.5551
75.5312
70.4742
65.3995
60.3207
55.2512
50.2042
45.1931
40.2313
35.3312
30.5045
25.7617
21.1113
16.5608
12.1156
7.77967
3.55551
-0.556008
-4.55549
-8.44491
-12.2274
-15.907
-19.4882
-22.9752
-26.372
-29.6811
-32.9041
-36.0409
-39.0907
-42.0519
-44.9231
-47.7039
-50.3952
-53.0002
-55.5238
-57.9727
-60.355
-62.6788
-64.9515
-67.1787
-69.3634
-71.5056
-73.602
-75.647
-77.6331
-79.5523
-81.3974
-83.163
-84.8459
-86.4456
-87.9639
-89.4034
-90.7669
-92.0553
-93.2663
-94.393
-95.4232
-96.3394
-97.1194
-97.7375
-98.1667
-98.3802
-98.354
-98.0676
-97.506
-96.6593
-95.5233
-94.0985
-92.3897
-90.4056
-88.1581
-85.6634
-82.9425
-80.0223
-76.937
-73.7287
-70.4458
-67.1415
125.739
125.314
123.903
121.591
118.506
114.794
110.599
106.054
101.264
96.314
91.2634
86.1521
81.0057
75.8393
70.663
65.4846
60.3123
55.1562
50.0277
44.9402
39.9075
34.943
30.0594
25.2676
20.5767
15.994
11.5251
7.17357
2.94165
-1.17028
-5.1636
-9.04139
-12.8083
-16.4702
-20.0334
-23.5043
-26.8882
-30.1887
-33.4071
-36.5427
-39.5925
-42.5527
-45.4194
-48.1901
-50.8645
-53.4456
-55.9396
-58.3557
-60.705
-62.9995
-65.2501
-67.4655
-69.65
-71.8038
-73.9217
-75.9948
-78.0117
-79.9603
-81.83
-83.613
-85.3061
-86.9106
-88.4317
-89.8771
-91.2552
-92.5724
-93.8305
-95.0251
-96.1439
-97.1665
-98.0652
-98.8074
-99.3581
-99.6829
-99.751
-99.5372
-99.0235
-98.199
-97.0599
-95.6079
-93.8487
-91.7909
-89.4456
-86.8264
-83.9515
-80.8465
-77.5467
-74.0991
-70.5621
-67.0017
131.211
130.736
129.021
126.214
122.519
118.155
113.326
108.205
102.921
97.5643
92.1901
86.8265
81.4833
76.1604
70.8535
65.5597
60.2799
55.0203
49.7915
44.6078
39.4848
34.438
29.4818
24.6279
19.8861
15.2635
10.7654
6.39533
2.15516
-1.95517
-5.9378
-9.79721
-13.5401
-17.1749
-20.7111
-24.1581
-27.5239
-30.8137
-34.029
-37.1672
-40.2227
-43.1873
-46.0532
-48.814
-51.4674
-54.0156
-56.4668
-58.8337
-61.1329
-63.3822
-65.5987
-67.7955
-69.9801
-72.1524
-74.3046
-76.4225
-78.4876
-80.4809
-82.3859
-84.1913
-85.8928
-87.4945
-89.0071
-90.4465
-91.83
-93.173
-94.4847
-95.765
-97.0018
-98.1704
-99.2349
-100.152
-100.873
-101.354
-101.553
-101.437
-100.987
-100.19
-99.0458
-97.5582
-95.7362
-93.5891
-91.126
-88.3561
-85.2908
-81.9501
-78.3678
-74.5972
-70.7111
-66.7968
138.552
137.944
135.708
132.113
127.493
122.183
116.474
110.589
104.68
98.838
93.0999
87.4697
81.9305
76.4569
71.0239
65.6134
60.2175
54.839
49.4898
44.1873
38.9517
33.8024
28.7563
23.8268
19.0236
14.3536
9.82132
5.43016
1.18185
-2.92369
-6.88916
-10.7205
-14.427
-18.0211
-21.5168
-24.9284
-28.2685
-31.5454
-34.761
-37.9104
-40.9828
-43.9635
-46.8373
-49.5919
-52.2206
-54.7246
-57.1144
-59.4084
-61.6316
-63.8114
-65.9744
-68.1421
-70.3268
-72.529
-74.7361
-76.9248
-79.0656
-81.1276
-83.0842
-84.9177
-86.6221
-88.2052
-89.6867
-91.0949
-92.4618
-93.8172
-95.1828
-96.5662
-97.9566
-99.3228
-100.616
-101.775
-102.734
-103.429
-103.805
-103.819
-103.447
-102.681
-101.524
-99.9889
-98.0902
-95.8407
-93.2472
-90.3096
-87.0255
-83.4001
-79.459
-75.2604
-70.8995
-66.4999
148.409
147.49
144.352
139.485
133.457
126.784
119.872
113.004
106.344
99.9599
93.8527
87.9803
82.2818
76.6935
71.1606
65.645
60.129
54.6149
49.1199
43.67
38.2939
33.0177
27.8626
22.8435
17.9693
13.2451
8.6742
4.2594
0.00315176
-4.09365
-8.03333
-11.8231
-15.4756
-19.0084
-22.4428
-25.8012
-29.1037
-32.3646
-35.5875
-38.7639
-41.8742
-44.8927
-47.7924
-50.5504
-53.1524
-55.5974
-57.8988
-60.0843
-62.1918
-64.2638
-66.3425
-68.4631
-70.6474
-72.8974
-75.1928
-77.4952
-79.756
-81.9249
-83.9588
-85.8286
-87.525
-89.0611
-90.4706
-91.8015
-93.1087
-94.4453
-95.8538
-97.3561
-98.9448
-100.579
-102.188
-103.685
-104.974
-105.963
-106.575
-106.755
-106.475
-105.733
-104.546
-102.941
-100.948
-98.5865
-95.8623
-92.7607
-89.2506
-85.3035
-80.9198
-76.1563
-71.1426
-66.0683
161.83
160.232
155.48
148.528
140.347
131.724
123.205
115.117
107.607
100.682
94.2658
88.2389
82.4728
76.849
71.2713
65.6761
60.0369
54.3623
48.6842
43.0461
37.4915
32.0581
26.7729
21.6514
16.6991
11.916
7.30239
2.86053
-1.40488
-5.48949
-9.39301
-13.1229
-16.6959
-20.137
-23.4779
-26.7536
-29.9982
-33.2377
-36.4805
-39.7116
-42.897
-45.9921
-48.9508
-51.7324
-54.3096
-56.6758
-58.8491
-60.8718
-62.8019
-64.7055
-66.6491
-68.6914
-70.8724
-73.1992
-75.6383
-78.1245
-80.5773
-82.9154
-85.0684
-86.9879
-88.6573
-90.098
-91.3662
-92.541
-93.712
-94.9686
-96.3882
-98.0202
-99.8662
-101.869
-103.922
-105.894
-107.644
-109.038
-109.966
-110.351
-110.165
-109.423
-108.167
-106.453
-104.334
-101.853
-99.0196
-95.7987
-92.1035
-87.834
-82.9265
-77.411
-71.4721
-65.4289
180.618
177.513
169.771
159.337
147.872
136.511
125.915
116.397
108.024
100.67
94.1164
88.1203
82.4577
76.9366
71.4062
65.7691
59.9948
54.1137
48.1904
42.301
36.5143
30.8848
25.4472
20.2156
15.1849
10.3431
5.68341
1.20784
-3.07291
-7.14571
-11.0022
-14.6481
-18.1053
-21.4094
-24.6062
-27.75
-30.8994
-34.1053
-37.3896
-40.7244
-44.0488
-47.2873
-50.3633
-53.2077
-55.77
-58.0307
-60.0154
-61.7915
-63.4493
-65.0887
-66.8124
-68.7189
-70.8863
-73.3384
-76.0147
-78.8007
-81.5628
-84.1712
-86.5129
-88.506
-90.1176
-91.3821
-92.395
-93.2843
-94.1906
-95.2558
-96.6154
-98.3745
-100.561
-103.083
-105.771
-108.42
-110.823
-112.784
-114.136
-114.768
-114.656
-113.851
-112.447
-110.544
-108.242
-105.624
-102.734
-99.518
-95.7818
-91.2819
-85.8072
-79.274
-71.9505
-64.4416
208.11
201.464
187.938
171.627
155.245
140.195
127.067
116.026
106.971
99.5054
93.1618
87.5198
82.2373
77.0361
71.6933
66.0589
60.1054
53.9249
47.6473
41.4075
35.3103
29.4349
23.8247
18.4906
13.3988
8.50823
3.79951
-0.725056
-5.03997
-9.11292
-12.9142
-16.4445
-19.7348
-22.8356
-25.8099
-28.7378
-31.7183
-34.8595
-38.225
-41.7513
-45.3237
-48.8154
-52.1082
-55.0884
-57.6636
-59.7821
-61.4813
-62.8805
-64.1219
-65.3498
-66.7113
-68.3696
-70.4891
-73.1539
-76.232
-79.5102
-82.7681
-85.8101
-88.4581
-90.572
-92.0764
-93.0271
-93.6003
-94.0021
-94.4388
-95.1176
-96.2659
-98.1117
-100.771
-104.059
-107.674
-111.298
-114.638
-117.405
-119.34
-120.257
-120.141
-119.142
-117.442
-115.21
-112.601
-109.784
-106.916
-103.985
-100.558
-96.1321
-90.2105
-82.2738
-72.6948
-62.8037
251.09
235.317
210.113
184.013
160.702
141.108
125.213
112.793
103.626
96.7239
91.1951
86.4002
81.8984
77.3384
72.3993
66.8073
60.5419
53.8753
47.0492
40.3082
33.7864
27.6031
21.8047
16.4164
11.3232
6.41166
1.65074
-2.95944
-7.355
-11.4709
-15.2157
-18.5858
-21.6366
-24.4432
-27.08
-29.6491
-32.3052
-35.29
-38.8279
-42.7111
-46.714
-50.6289
-54.3025
-57.5515
-60.2139
-62.1364
-63.3781
-64.1959
-64.8133
-65.4173
-66.182
-67.3552
-69.3056
-72.3731
-76.16
-80.2479
-84.2832
-88.0151
-91.1713
-93.5146
-94.8314
-95.2146
-95.051
-94.6683
-94.3372
-94.3019
-94.9107
-96.6761
-100.075
-104.561
-109.56
-114.585
-119.277
-123.221
-126.011
-127.229
-126.897
-125.439
-123.201
-120.416
-117.261
-114.016
-111.185
-109.167
-106.771
-103.135
-97.5141
-87.6375
-73.8872
-59.7775
325.042
282.748
233.573
192.378
160.802
136.691
118.35
104.874
97.0161
91.9634
88.1697
84.8571
81.6417
78.1851
74.0443
68.5241
61.5554
54.0544
46.3277
38.8928
31.775
25.2168
19.1939
13.9174
8.98637
4.09845
-0.714689
-5.50235
-10.0722
-14.3625
-18.0562
-21.1861
-23.8892
-26.2947
-28.4467
-30.4345
-32.4179
-34.9234
-38.9327
-43.4976
-48.2303
-52.789
-57.1071
-60.8583
-63.8285
-65.4701
-65.8843
-65.7986
-65.523
-65.2526
-65.0632
-65.2206
-66.5125
-70.5553
-75.6534
-81.0603
-86.234
-91.0476
-95.0539
-97.9338
-98.9293
-98.1879
-96.8161
-95.2586
-93.808
-92.5575
-91.8883
-92.8869
-97.811
-104.324
-111.409
-118.349
-124.993
-130.695
-134.943
-136.433
-135.27
-132.86
-129.743
-126.155
-122.046
-117.651
-114.282
-114.89
-114.767
-112.994
-110.944
-98.5778
-75.596
-53.3855
469.899
340.082
245.538
186.888
150.152
123.96
104.482
88.8618
86.3653
85.3883
84.4501
83.1726
81.7309
80.0158
77.6744
72.3259
63.3345
54.558
45.1857
37.0206
28.9574
22.0596
15.5086
10.9212
6.58768
1.67799
-3.11629
-8.35838
-13.191
-18.1125
-21.708
-24.4002
-26.5694
-28.5107
-30.0491
-31.2253
-31.7779
-32.3906
-38.2366
-44.0416
-49.9961
-55.2946
-60.7271
-65.2886
-69.3555
-70.5702
-69.1093
-67.6737
-66.2243
-64.9705
-63.4439
-61.4515
-59.7571
-67.2169
-74.7011
-82.2074
-88.702
-95.2418
-100.557
-105.066
-105.527
-102.068
-98.847
-95.6937
-92.9897
-89.9746
-86.463
-83.4437
-93.2576
-103.262
-113.463
-122.538
-132.066
-140.258
-147.845
-149.454
-145.437
-141.298
-136.962
-132.643
-127.243
-119.804
-111.652
-121.664
-125.138
-123.251
-139.228
-124.803
-76.1929
-38.0666
799.952
346.618
205.811
149.84
124.313
101.56
85.0575
53.9492
73.5247
78.7555
81.2175
81.7229
82.2121
82.7471
85.6332
81.3726
64.8031
55.9187
42.3051
35.0013
24.4614
18.4032
8.9957
7.55948
5.01917
-0.908104
-4.8724
-11.8032
-16.1812
-23.7711
-26.6594
-28.3666
-29.577
-31.3058
-32.1723
-32.9133
-31.0508
-22.3209
-37.5989
-44.3693
-52.7058
-57.6062
-65.6003
-70.4299
-78.9887
-79.522
-72.2971
-69.5674
-66.643
-65.0803
-62.4943
-57.2526
-39.8188
-63.8425
-73.7157
-84.8102
-91.1038
-101.198
-107.22
-118.024
-117.769
-105.604
-100.779
-95.4805
-92.6179
-88.1055
-80.3276
-55.5193
-88.4285
-101.916
-117.135
-126.075
-141.059
-150.692
-169.354
-170.575
-155.779
-150.016
-144.156
-140.685
-135.372
-122.982
-82.8659
-137.85
-143.226
-107.782
-211.29
-200.252
-61.6918
1.25618
-64.0851
-60.6396
-57.3337
-54.2151
-51.3211
-48.678
-46.3027
-44.2036
-42.3828
-40.8382
-39.5647
-38.556
-37.8061
-37.3094
-37.0621
-64.0013
-60.499
-57.1454
-53.9898
-51.0693
-48.4095
-46.0258
-43.9245
-42.1061
-40.5664
-39.2991
-38.2968
-37.5522
-37.0595
-36.8143
-63.8272
-60.2086
-56.7584
-53.5284
-50.5558
-47.8643
-45.4655
-43.3619
-41.5498
-40.0217
-38.768
-37.7791
-37.046
-36.5615
-36.3206
-63.5488
-59.749
-56.1502
-52.8085
-49.7606
-47.0257
-44.6092
-42.5071
-40.709
-39.2018
-37.9715
-37.0049
-36.2905
-35.8194
-35.5854
-63.1429
-59.0874
-55.2841
-51.7941
-48.6516
-45.8678
-43.438
-41.3475
-39.5767
-38.1045
-36.9108
-35.9779
-35.2912
-34.8396
-34.6156
-62.5725
-58.1726
-54.1036
-50.4316
-47.183
-44.3551
-41.9267
-39.8676
-38.1451
-36.728
-35.5887
-34.7041
-34.0562
-33.6315
-33.4214
-61.7796
-56.9261
-52.5254
-48.6448
-45.2931
-42.4423
-40.0454
-38.0504
-36.4075
-35.0731
-34.0112
-33.1932
-32.5974
-32.2085
-32.0164
-60.6713
-55.2256
-50.4265
-46.3283
-42.9017
-40.0747
-37.7616
-35.8806
-34.3608
-33.1453
-32.1893
-31.4595
-30.9314
-30.588
-30.4189
-59.0907
-52.8779
-47.6258
-43.3392
-39.9102
-37.1927
-35.0453
-33.3488
-32.0095
-30.9572
-30.1408
-29.5236
-29.08
-28.7929
-28.6518
-56.759
-49.5685
-43.8587
-39.492
-36.2064
-33.74
-31.8777
-30.4592
-29.3705
-28.5329
-27.8927
-27.4136
-27.0716
-26.8512
-26.7432
-53.1473
-44.7778
-38.7479
-34.5628
-31.683
-29.6825
-28.2657
-27.2392
-26.48
-25.9108
-25.483
-25.1661
-24.9413
-24.7968
-24.7261
-47.1914
-37.6469
-31.7917
-28.3278
-26.2797
-25.041
-24.2631
-23.7515
-23.3992
-23.1468
-22.9618
-22.8262
-22.7301
-22.6682
-22.6379
-36.6511
-26.826
-22.4437
-20.6767
-20.0665
-19.9383
-19.9936
-20.1043
-20.2179
-20.3151
-20.391
-20.4465
-20.4844
-20.5078
-20.5189
-16.7217
-10.5618
-10.48
-11.8683
-13.3711
-14.6518
-15.6684
-16.4539
-17.0527
-17.5044
-17.8402
-18.0839
-18.253
-18.3594
-18.4107
22.7973
11.7805
2.95412
-2.94534
-6.89741
-9.62911
-11.5742
-12.9899
-14.0345
-14.8092
-15.3812
-15.7958
-16.0839
-16.2656
-16.3536
10.7115
10.6153
10.4132
10.0838
9.59019
8.87148
7.82688
6.28235
3.91542
0.0619548
-6.86713
-21.4921
-60.459
-196.335
-793.218
3.59977
3.34678
2.81748
1.96083
0.687794
-1.14875
-3.79265
-7.66127
-13.5071
-22.7831
-38.525
-67.5889
-126.181
-250.2
-481.025
-3.33704
-3.73063
-4.55164
-5.8737
-7.82393
-10.6089
-14.5623
-20.2325
-28.5485
-41.1384
-60.9318
-93.1789
-146.469
-229.891
-329.122
-10.0012
-10.5119
-11.5734
-13.2726
-15.7565
-19.2583
-24.1403
-30.9668
-40.6222
-54.4919
-74.6907
-104.156
-145.829
-198.602
-246.127
-16.3113
-16.9111
-18.1531
-20.1271
-22.9827
-26.9496
-32.3684
-39.7372
-49.7695
-63.4498
-82.0141
-106.656
-137.481
-170.954
-196.135
-22.2055
-22.8651
-24.2248
-26.3697
-29.4377
-33.6329
-39.2429
-46.6582
-56.384
-69.0158
-85.1161
-104.864
-127.292
-149.064
-163.628
-27.642
-28.3333
-29.7517
-31.9716
-35.1103
-39.334
-44.8638
-51.9752
-60.9809
-72.1733
-85.6846
-101.209
-117.557
-132.18
-141.233
-32.599
-33.2969
-34.7224
-36.9359
-40.0296
-44.1284
-49.3866
-55.9767
-64.0594
-73.7205
-84.8548
-96.9817
-109.021
-119.162
-125.125
-37.0717
-37.7556
-39.1463
-41.2892
-44.2512
-48.1177
-52.9846
-58.9418
-66.0418
-74.2448
-83.3356
-92.8147
-101.803
-109.046
-113.157
-41.0698
-41.7239
-43.0481
-45.0739
-47.8449
-51.4125
-55.8256
-61.1134
-67.2581
-74.1527
-81.5465
-88.9884
-95.7959
-101.104
-104.043
-44.614
-45.227
-46.4631
-48.3412
-50.8856
-54.1203
-58.0591
-62.69
-67.9537
-73.7137
-79.724
-85.6023
-90.8303
-94.8065
-96.9691
-47.7328
-48.2976
-49.4325
-51.146
-53.4472
-56.3394
-59.8119
-63.8272
-68.3045
-73.1009
-77.993
-82.6677
-86.7339
-89.7683
-91.3971
-50.4595
-50.9727
-52.0002
-53.5429
-55.5984
-58.1556
-61.1879
-64.6435
-68.4337
-72.4217
-76.4129
-80.1553
-83.3538
-85.7059
-86.956
-52.83
-53.2907
-54.2103
-55.584
-57.4013
-59.642
-62.2701
-65.2274
-68.4257
-71.74
-75.0054
-78.0205
-80.5614
-82.4085
-83.3829
-54.8808
-55.2901
-56.1051
-57.317
-58.9104
-60.8593
-63.1236
-65.6439
-68.337
-71.0923
-73.7717
-76.2148
-78.2506
-79.7172
-80.4862
-56.6474
-57.0081
-57.7244
-58.7854
-60.1726
-61.8577
-63.7995
-65.9405
-68.2051
-70.4971
-72.7021
-74.6919
-76.3349
-77.51
-78.1233
-58.1637
-58.4791
-59.1043
-60.0272
-61.2281
-62.678
-64.3369
-66.1515
-68.054
-69.9624
-71.7818
-73.4098
-74.7441
-75.6929
-76.1862
-59.461
-59.7352
-60.2777
-61.0761
-62.1106
-63.3532
-64.7662
-66.3013
-67.8989
-69.4893
-70.9943
-72.3316
-73.421
-74.192
-74.5917
-60.5679
-60.8051
-61.2735
-61.961
-62.8487
-63.9101
-65.1108
-66.4076
-67.7489
-69.0756
-70.3232
-71.4255
-72.3189
-72.9488
-73.2745
-61.5102
-61.7144
-62.1171
-62.7069
-63.4661
-64.3704
-65.3887
-66.483
-67.609
-68.7168
-69.7531
-70.6642
-71.3998
-71.9168
-72.1836
-62.3107
-62.4859
-62.831
-63.3353
-63.9828
-64.7514
-65.6137
-66.5365
-67.4818
-68.4075
-69.2698
-70.0249
-70.6325
-71.0584
-71.2778
-62.9896
-63.1394
-63.4343
-63.8644
-64.4153
-65.0675
-65.7968
-66.5745
-67.368
-68.1423
-68.8609
-69.4881
-69.9913
-70.3433
-70.5244
-63.5646
-63.6924
-63.9436
-64.3096
-64.7775
-65.3301
-65.9463
-66.6013
-67.2677
-67.9157
-68.5154
-69.0373
-69.4551
-69.7468
-69.8967
-64.0508
-64.1596
-64.3732
-64.6841
-65.0809
-65.5485
-66.0688
-66.6204
-67.18
-67.7228
-68.2238
-68.6588
-69.0064
-69.2487
-69.3732
-64.4615
-64.5539
-64.7354
-64.9991
-65.3351
-65.7305
-66.1694
-66.6339
-67.104
-67.559
-67.9779
-68.3411
-68.6308
-68.8325
-68.936
-64.8081
-64.8865
-65.0404
-65.2638
-65.5481
-65.8822
-66.2524
-66.6434
-67.0385
-67.4201
-67.7709
-68.0744
-68.3162
-68.4844
-68.5707
-65.1003
-65.1668
-65.2971
-65.4862
-65.7266
-66.0087
-66.321
-66.6502
-66.9823
-67.3026
-67.5965
-67.8506
-68.0527
-68.1932
-68.2652
-65.3464
-65.4026
-65.513
-65.6729
-65.8762
-66.1144
-66.3777
-66.655
-66.9343
-67.2033
-67.45
-67.6628
-67.832
-67.9496
-68.0098
-65.5534
-65.601
-65.6944
-65.8297
-66.0015
-66.2026
-66.4247
-66.6584
-66.8935
-67.1197
-67.3268
-67.5054
-67.6472
-67.7457
-67.7961
-65.7273
-65.7676
-65.8466
-65.9611
-66.1063
-66.2763
-66.4638
-66.6608
-66.8589
-67.0492
-67.2234
-67.3734
-67.4925
-67.5752
-67.6175
-65.8732
-65.9074
-65.9743
-66.0712
-66.1941
-66.3378
-66.4962
-66.6625
-66.8296
-66.99
-67.1367
-67.263
-67.3632
-67.4327
-67.4682
-65.9954
-66.0244
-66.0811
-66.1633
-66.2674
-66.389
-66.5231
-66.6637
-66.8049
-66.9404
-67.0641
-67.1707
-67.2551
-67.3137
-67.3436
-66.0975
-66.1222
-66.1704
-66.2401
-66.3285
-66.4317
-66.5454
-66.6646
-66.7842
-66.8989
-67.0036
-67.0937
-67.1651
-67.2145
-67.2399
-66.1826
-66.2035
-66.2446
-66.304
-66.3793
-66.4671
-66.5638
-66.6652
-66.7668
-66.8642
-66.9532
-67.0296
-67.0902
-67.1322
-67.1537
-66.253
-66.271
-66.3061
-66.3569
-66.4213
-66.4964
-66.579
-66.6656
-66.7524
-66.8356
-66.9114
-66.9766
-67.0283
-67.0641
-67.0824
-66.311
-66.3265
-66.3567
-66.4005
-66.4558
-66.5204
-66.5915
-66.6659
-66.7405
-66.8119
-66.8771
-66.933
-66.9774
-67.0081
-67.0238
-66.3583
-66.3717
-66.398
-66.4359
-66.4839
-66.54
-66.6016
-66.6661
-66.7308
-66.7926
-66.8491
-66.8975
-66.9359
-66.9625
-66.9761
-66.3963
-66.408
-66.4311
-66.4644
-66.5065
-66.5557
-66.6097
-66.6663
-66.7229
-66.7772
-66.8266
-66.869
-66.9026
-66.9259
-66.9378
-66.4261
-66.4365
-66.4571
-66.4867
-66.5242
-66.568
-66.6161
-66.6664
-66.7168
-66.765
-66.8089
-66.8467
-66.8766
-66.8972
-66.9078
-66.4486
-66.4581
-66.4767
-66.5036
-66.5376
-66.5773
-66.6208
-66.6665
-66.7121
-66.7558
-66.7956
-66.8298
-66.8568
-66.8756
-66.8851
-66.4645
-66.4733
-66.4906
-66.5155
-66.547
-66.5838
-66.6242
-66.6665
-66.7088
-66.7493
-66.7862
-66.8179
-66.8429
-66.8603
-66.8691
-66.4743
-66.4827
-66.4991
-66.5228
-66.5529
-66.5879
-66.6263
-66.6665
-66.7068
-66.7453
-66.7804
-66.8105
-66.8343
-66.8508
-66.8593
-66.4783
-66.4865
-66.5026
-66.5258
-66.5552
-66.5895
-66.6272
-66.6666
-66.706
-66.7437
-66.778
-66.8075
-66.8309
-66.847
-66.8553
-66.4766
-66.4848
-66.5011
-66.5245
-66.5542
-66.5888
-66.6268
-66.6666
-66.7063
-66.7444
-66.7791
-66.8088
-66.8324
-66.8487
-66.857
-66.4691
-66.4777
-66.4946
-66.5189
-66.5498
-66.5857
-66.6252
-66.6665
-66.7079
-66.7474
-66.7835
-66.8144
-66.8389
-66.8558
-66.8645
-66.4556
-66.4648
-66.4828
-66.5089
-66.5418
-66.5802
-66.6224
-66.6665
-66.7107
-66.7529
-66.7915
-66.8245
-66.8507
-66.8688
-66.878
-66.4357
-66.4458
-66.4655
-66.494
-66.53
-66.572
-66.6182
-66.6665
-66.7148
-66.7611
-66.8032
-66.8394
-66.868
-66.8879
-66.898
-66.4089
-66.4201
-66.4421
-66.4739
-66.5141
-66.561
-66.6125
-66.6664
-66.7204
-66.772
-66.8191
-66.8595
-66.8915
-66.9137
-66.925
-66.3742
-66.387
-66.4119
-66.4479
-66.4935
-66.5467
-66.6051
-66.6663
-66.7275
-66.7862
-66.8396
-66.8855
-66.9218
-66.947
-66.9598
-66.3307
-66.3454
-66.374
-66.4153
-66.4677
-66.5287
-66.5959
-66.6661
-66.7365
-66.8039
-66.8653
-66.9181
-66.9599
-66.9888
-67.0036
-66.2771
-66.294
-66.3272
-66.3751
-66.4358
-66.5066
-66.5844
-66.6659
-66.7476
-66.8258
-66.8971
-66.9584
-67.0069
-67.0405
-67.0576
-66.2117
-66.2315
-66.2701
-66.3261
-66.3969
-66.4795
-66.5704
-66.6656
-66.761
-66.8525
-66.9358
-67.0075
-67.0642
-67.1035
-67.1236
-66.1326
-66.1558
-66.2011
-66.2667
-66.3498
-66.4467
-66.5534
-66.6652
-66.7773
-66.8847
-66.9827
-67.0669
-67.1337
-67.1799
-67.2035
-66.0374
-66.0647
-66.118
-66.1952
-66.293
-66.4072
-66.5329
-66.6646
-66.7968
-66.9234
-67.0391
-67.1385
-67.2173
-67.2719
-67.2999
-65.9233
-65.9555
-66.0184
-66.1094
-66.2248
-66.3596
-66.5081
-66.6638
-66.82
-66.9699
-67.1067
-67.2245
-67.3178
-67.3825
-67.4156
-65.7869
-65.8249
-65.8992
-66.0068
-66.1432
-66.3026
-66.4782
-66.6626
-66.8477
-67.0253
-67.1877
-67.3274
-67.4382
-67.515
-67.5543
-65.6242
-65.6691
-65.7569
-65.8842
-66.0455
-66.2343
-66.4424
-66.6609
-66.8805
-67.0914
-67.2843
-67.4504
-67.5821
-67.6735
-67.7203
-65.4303
-65.4834
-65.5873
-65.7379
-65.9289
-66.1525
-66.3992
-66.6586
-66.9194
-67.17
-67.3994
-67.5972
-67.7541
-67.863
-67.9188
-65.1997
-65.2624
-65.3853
-65.5634
-65.7897
-66.0546
-66.3473
-66.6553
-66.9652
-67.2634
-67.5366
-67.7723
-67.9595
-68.0894
-68.156
-64.9254
-64.9996
-65.1449
-65.3557
-65.6235
-65.9376
-66.2848
-66.6506
-67.0191
-67.3742
-67.6998
-67.981
-68.2045
-68.3598
-68.4394
-64.5998
-64.6873
-64.8591
-65.1083
-65.4254
-65.7974
-66.2094
-66.644
-67.0824
-67.5055
-67.8939
-68.2297
-68.497
-68.6828
-68.778
-64.2133
-64.3166
-64.5194
-64.8139
-65.1889
-65.6297
-66.1183
-66.6346
-67.1565
-67.6608
-68.1246
-68.5261
-68.846
-69.0686
-69.1827
-63.7552
-63.8769
-64.116
-64.4637
-64.9069
-65.4286
-66.008
-66.6214
-67.2427
-67.8442
-68.3984
-68.879
-69.2625
-69.5296
-69.6667
-63.2125
-63.3558
-63.6373
-64.0472
-64.5704
-65.1874
-65.8742
-66.6028
-67.3425
-68.0604
-68.7234
-69.2995
-69.7599
-70.081
-70.2459
-62.5703
-62.7386
-63.0696
-63.5519
-64.1688
-64.8978
-65.7112
-66.5765
-67.4575
-68.3149
-69.1087
-69.8002
-70.3539
-70.7407
-70.9396
-61.8113
-62.0085
-62.3967
-62.9633
-63.6894
-64.5496
-65.5122
-66.5395
-67.5887
-68.6134
-69.5651
-70.3964
-71.0638
-71.5309
-71.7713
-60.9154
-61.1459
-61.6
-62.2639
-63.1168
-64.1303
-65.2682
-66.4872
-67.7371
-68.9625
-70.1051
-71.1065
-71.9129
-72.4784
-72.7699
-59.8596
-60.128
-60.6575
-61.4334
-62.4329
-63.6245
-64.968
-66.4134
-67.9024
-69.3692
-70.7429
-71.9521
-72.9291
-73.6161
-73.9709
-58.6175
-58.9288
-59.5441
-60.4477
-61.6155
-63.0135
-64.5969
-66.3094
-68.0833
-69.8404
-71.4951
-72.9588
-74.1465
-74.9845
-75.4181
-57.1592
-57.5188
-58.2305
-59.2786
-60.6383
-62.2737
-64.1361
-66.1628
-68.2757
-70.3827
-72.3798
-74.1571
-75.6068
-76.6337
-77.1664
-55.4513
-55.8643
-56.6833
-57.8933
-59.4698
-61.3763
-63.5614
-65.9562
-68.4723
-71.0013
-73.4171
-75.5828
-77.3605
-78.6259
-79.2844
-53.4567
-53.928
-54.8646
-56.2535
-58.0722
-60.2854
-62.841
-65.6654
-68.6599
-71.6983
-74.6281
-77.2778
-79.4697
-81.0396
-81.8596
-51.1349
-51.6687
-52.7321
-54.3155
-56.4008
-58.9569
-61.9339
-65.2566
-68.8171
-72.4706
-76.0336
-79.2907
-82.0108
-83.9737
-85.0041
-48.4427
-49.0417
-50.2385
-52.029
-54.4025
-57.3361
-60.7869
-64.6825
-68.9098
-73.3057
-77.6513
-81.6764
-85.0776
-87.5553
-88.864
-45.3348
-45.9998
-47.3329
-49.3379
-52.0154
-55.3562
-59.3311
-63.878
-68.8854
-74.1756
-79.4916
-84.495
-88.7854
-91.9485
-93.6325
-41.7652
-42.4943
-43.9609
-46.1798
-49.1678
-52.936
-57.4783
-62.7538
-68.6645
-75.0275
-81.5488
-87.8087
-93.2758
-97.3685
-99.57
-37.6896
-38.4769
-40.0668
-42.488
-45.7786
-49.9785
-55.1163
-61.1886
-68.1295
-75.7693
-83.7873
-91.6727
-98.7203
-104.102
-107.036
-33.0676
-33.9025
-35.5956
-38.1926
-41.7582
-46.3698
-52.1054
-59.0203
-67.1091
-76.2483
-86.1178
-96.1182
-105.322
-112.533
-116.54
-27.8661
-28.7324
-30.4972
-33.225
-37.0115
-41.9809
-48.2758
-56.0367
-65.3593
-76.22
-88.3573
-101.117
-113.306
-123.19
-128.825
-22.0635
-22.9388
-24.7305
-27.5224
-31.4438
-36.6717
-43.4284
-51.9687
-62.5415
-75.3049
-90.1644
-106.511
-122.891
-136.798
-145.022
-15.6535
-16.5093
-18.2696
-21.0359
-24.9693
-30.301
-37.3425
-46.4893
-58.2024
-72.9343
-90.9388
-111.881
-134.192
-154.351
-166.93
-8.64982
-9.45217
-11.1108
-13.7394
-17.5242
-22.7434
-29.7949
-39.2279
-51.7671
-68.2908
-89.6729
-116.301
-146.986
-177.168
-197.572
-1.0896
-1.80106
-3.27886
-5.64054
-9.08338
-13.9138
-20.5938
-29.8097
-42.5649
-60.2734
-84.7641
-117.902
-160.128
-206.775
-242.382
6.96397
6.38151
5.16617
3.20848
0.320418
-3.80029
-9.63198
-17.9342
-29.9231
-47.5465
-73.8503
-113.192
-170.198
-244.046
-311.918
15.4212
15.0028
14.126
12.7029
10.5795
7.50078
3.0449
-3.49918
-13.3688
-28.7917
-53.8826
-96.2141
-168.573
-285.463
-428.585
24.1681
23.9415
23.4643
22.6827
21.5014
19.7574
17.1712
13.2446
7.04105
-3.3237
-21.9424
-58.3836
-136.022
-308.662
-644.638
33.0714
33.0534
33.0129
32.9393
32.8131
32.5981
32.2274
31.5685
30.3397
27.8753
22.3739
8.05604
-37.4959
-218.431
-1094
41.9861
42.1799
42.5834
43.2316
44.1853
45.546
47.4826
50.287
54.4949
61.1821
72.8119
96.1853
155.046
354.187
1248.48
50.765
51.1596
51.983
53.3105
55.2739
58.0928
62.1338
68.0293
76.9269
91.0552
115.093
159.669
250.169
444.051
812.16
59.2687
59.8403
61.0314
62.9466
65.7671
69.7894
75.4957
83.6849
95.7247
114.045
143.111
191.257
273.495
412.919
631.497
74.2986
30.2527
12.5857
3.44899
-2.08179
-5.7459
-8.30625
-10.1546
-11.5148
-12.5242
-13.2711
-13.8142
-14.1927
-14.4322
-14.5482
46.9521
28.7267
15.4177
6.75787
0.999771
-2.98214
-5.82973
-7.91602
-9.4678
-10.629
-11.4943
-12.127
-12.5698
-12.8509
-12.9875
32.2616
23.7862
15.0209
8.0516
2.84785
-1.00608
-3.88182
-6.04852
-7.69187
-8.93929
-9.87879
-10.5714
-11.0591
-11.37
-11.5214
23.4565
19.0467
13.3768
8.11914
3.75854
0.290694
-2.42625
-4.54439
-6.1908
-7.4633
-8.43467
-9.15796
-9.67103
-9.99974
-10.1602
17.7135
15.1821
11.4462
7.56368
4.04921
1.066
-1.38649
-3.3678
-4.94933
-6.19636
-7.16272
-7.89044
-8.41088
-8.74618
-8.91042
13.7282
12.1538
9.61719
6.75256
3.9709
1.47274
-0.673918
-2.46879
-3.9401
-5.12424
-6.05641
-6.76677
-7.27922
-7.61133
-7.77457
10.8361
9.79344
8.01594
5.88375
3.69567
1.63537
-0.205637
-1.79446
-3.13025
-4.22706
-5.10408
-5.78045
-6.27271
-6.59367
-6.75199
8.66807
7.9433
6.66092
5.05369
3.33166
1.64569
0.0875198
-1.29584
-2.48632
-3.48246
-4.29104
-4.92193
-5.38509
-5.68889
-5.83927
7.0032
6.48029
5.5314
4.3033
2.94257
1.56724
0.259277
-0.931137
-1.97732
-2.86807
-3.60134
-4.17983
-4.60807
-4.89059
-5.03092
5.70139
5.31303
4.59573
3.64495
2.56358
1.442
0.349396
-0.666588
-1.57624
-2.363
-3.01909
-3.54204
-3.93219
-4.19099
-4.31995
4.66922
4.37414
3.82216
3.07724
2.2125
1.29661
0.386304
-0.475874
-1.26048
-1.94865
-2.52926
-2.99642
-3.34747
-3.58152
-3.6985
3.8419
3.61361
3.18251
2.59272
1.89692
1.14734
0.389783
-0.339022
-1.01168
-1.60898
-2.1182
-2.53141
-2.84395
-3.05331
-3.15823
3.17308
2.99387
2.65304
2.18178
1.61866
1.00358
0.373292
-0.241158
-0.815201
-1.33045
-1.77378
-2.13626
-2.41206
-2.59758
-2.6908
2.62868
2.48633
2.21412
1.8346
1.37646
0.870386
0.345797
-0.171351
-0.659542
-1.10184
-1.4855
-1.8013
-2.04284
-2.20593
-2.28806
2.1831
2.06893
1.84969
1.54201
1.16752
0.750039
0.31313
-0.12165