/*--------------------------------*- C++ -*----------------------------------*\
| =========                 |                                                 |
| \\      /  F ield         | OpenFOAM: The Open Source CFD Toolbox           |
|  \\    /   O peration     | Version:  5.x                                   |
|   \\  /    A nd           | Web:      www.OpenFOAM.org                      |
|    \\/     M anipulation  |                                                 |
\*---------------------------------------------------------------------------*/
FoamFile
{
    version     2.0;
    format      ascii;
    class       volScalarField;
    location    "8.7";
    object      gradTx;
}
// * * * * * * * * * * * * * * * * * * * * * * * * * * * * * * * * * * * * * //

dimensions      [0 -1 0 1 0 0 0];

internalField   nonuniform List<scalar> 
6300
(
62.152
62.626
63.5649
64.9497
66.7503
68.9236
71.4115
74.1391
77.0137
79.9249
82.7472
85.3452
87.5815
89.3275
90.4743
61.6764
62.1596
63.1174
64.5323
66.3759
68.6073
71.17
73.9904
76.9754
80.012
82.9697
85.7049
88.07
89.9248
91.1502
60.7161
61.2168
62.2112
63.6845
65.6123
67.9578
70.6692
73.6755
76.8835
80.1763
83.4128
86.433
89.0668
91.1494
92.5388
59.2535
59.7787
60.8245
62.3806
64.4291
66.9409
69.8718
73.1569
76.7053
80.3949
84.0704
87.5454
90.6132
93.0654
94.7196
57.2642
57.8185
58.9259
60.5828
62.781
65.5033
68.7184
72.3733
76.384
80.6259
84.9266
89.0633
92.773
95.7775
97.8251
54.719
55.3036
56.4762
58.2423
60.6071
63.5712
67.1237
71.2323
75.8296
80.7964
85.9448
91.0063
95.6361
99.4446
102.062
51.5877
52.1993
53.4315
55.3014
57.8323
61.049
64.9712
69.6008
74.9039
80.7836
87.0481
93.3792
99.3187
104.3
107.75
47.8433
48.4728
49.7475
51.6982
54.37
57.8198
62.1095
67.2944
73.3998
80.3841
88.083
96.1417
103.957
110.685
115.385
43.4679
44.0998
45.386
47.3723
50.1284
53.749
58.3512
64.0657
71.0152
79.2682
88.7561
99.1453
109.682
119.097
125.767
38.4592
39.071
40.3232
42.2751
45.0209
48.6952
53.4789
59.6004
67.3255
76.9155
88.5262
102
116.525
130.25
140.254
32.8375
33.4006
34.5594
36.3827
38.9834
42.5306
47.2672
53.5302
61.769
72.5405
86.4313
103.8
124.167
145.123
161.314
26.6513
27.1332
28.1297
29.7116
31.998
35.1754
39.5277
45.4826
53.6783
65.0445
80.8563
102.601
131.215
164.76
193.877
19.9822
20.3499
21.1135
22.3348
24.1204
26.644
30.1842
35.1929
42.4154
53.1012
69.3463
94.5309
133.327
188.824
249.101
12.9444
13.1696
13.6385
14.3924
15.5038
17.0949
19.3711
22.6879
27.6878
35.597
48.895
72.8466
118.738
208.103
356.661
5.68031
5.74444
5.87771
6.09146
6.40653
6.85966
7.5164
8.49878
10.0498
12.7024
17.7886
29.2207
60.6725
168.185
612.341
90.9584
90.8501
90.2377
89.1337
87.5661
85.5744
83.2052
80.5085
77.5343
74.3298
70.9379
67.3961
63.7369
59.9874
56.1706
52.3059
48.41
44.4972
40.5805
36.6715
32.7808
28.918
25.0918
21.31
17.5796
13.9064
10.2955
6.75072
3.27535
-0.128392
-3.45901
-6.71568
-9.89814
-13.0065
-16.0411
-19.0023
-21.8904
-24.7055
-27.4472
-30.1153
-32.7092
-35.2283
-37.6724
-40.0418
-42.3373
-44.5606
-46.714
-48.8002
-50.8227
-52.7845
-54.6886
-56.537
-58.3311
-60.0711
-61.7559
-63.3839
-64.9524
-66.4587
-67.9
-69.2738
-70.578
-71.811
-72.9714
-74.0577
-75.0679
-75.9989
-76.8461
-77.6028
-78.2605
-78.8084
-79.2342
-79.5243
-79.6645
-79.6412
-79.4416
-79.0548
-78.4722
-77.6884
-76.7007
-75.5099
-74.1203
-72.5393
-70.7778
-68.8504
-66.775
-64.5731
-62.2693
-59.8915
-57.4693
-55.0337
91.6754
91.5744
90.9436
89.7995
88.1752
86.1163
83.675
80.9065
77.8643
74.5982
71.1522
67.564
63.8655
60.0831
56.2384
52.3499
48.4332
44.5019
40.5686
36.6444
32.7399
28.8645
25.0272
21.2356
17.4967
13.8164
10.1997
6.65054
3.17196
-0.23388
-3.56562
-6.82264
-10.0049
-13.1127
-16.1467
-19.1075
-21.9955
-24.8107
-27.5531
-30.222
-32.8165
-35.3359
-37.7796
-40.1477
-42.4409
-44.6608
-46.8099
-48.8916
-50.9094
-52.867
-54.7679
-56.6145
-58.4083
-60.1495
-61.837
-63.4685
-65.0411
-66.5514
-67.9963
-69.373
-70.6795
-71.9144
-73.0769
-74.1662
-75.1808
-76.1185
-76.9751
-77.7442
-78.4172
-78.983
-79.4283
-79.7386
-79.8988
-79.8938
-79.7098
-79.3352
-78.7608
-77.9806
-76.9918
-75.7951
-74.3946
-72.7978
-71.0156
-69.0623
-66.956
-64.7185
-62.375
-59.9543
-57.4876
-55.0076
93.1482
93.0598
92.3868
91.1547
89.4085
87.2067
84.6144
81.6968
78.5152
75.1241
71.5695
67.8893
64.1138
60.267
56.3683
52.4334
48.4762
44.5088
40.5425
36.5882
32.6561
28.7558
24.896
21.0847
17.3289
13.6345
10.0063
6.4484
2.96356
-0.446257
-3.77998
-7.03736
-10.2188
-13.3252
-16.3577
-19.3174
-22.205
-25.0208
-27.7646
-30.4353
-33.0316
-35.552
-37.9953
-40.361
-42.6494
-44.8623
-47.0025
-49.0742
-51.0819
-53.0306
-54.9245
-56.7672
-58.5605
-60.3045
-61.9978
-63.6371
-65.2184
-66.7372
-68.1896
-69.5722
-70.8829
-72.121
-73.2868
-74.3807
-75.4033
-76.3536
-77.2286
-78.0228
-78.7271
-79.3295
-79.8154
-80.1679
-80.3694
-80.4025
-80.2512
-79.902
-79.3444
-78.5717
-77.5808
-76.3723
-74.9502
-73.322
-71.4983
-69.4933
-67.3249
-65.0151
-62.5906
-60.0821
-57.524
-54.9525
95.4609
95.3849
94.6335
93.2483
91.2959
88.8579
86.0204
82.8655
79.4663
75.8839
72.1664
68.3505
64.4634
60.5246
56.5489
52.5482
48.5329
44.5129
40.4984
36.4993
32.5259
28.5879
24.6943
20.8534
17.0722
13.3566
9.71154
6.14073
2.64686
-0.768394
-4.10441
-7.3615
-10.5408
-13.6441
-16.6735
-19.6309
-22.5177
-25.3345
-28.081
-30.7555
-33.3557
-35.8788
-38.3225
-40.685
-42.9662
-45.1678
-47.2934
-49.3483
-51.3389
-53.2722
-55.1543
-56.9903
-58.7827
-60.5319
-62.2353
-63.8882
-65.4846
-67.0179
-68.4824
-69.8738
-71.1898
-72.4308
-73.5987
-74.697
-75.7287
-76.6958
-77.5975
-78.4293
-79.1822
-79.8427
-80.3932
-80.8133
-81.0813
-81.1755
-81.0763
-80.7674
-80.2364
-79.4757
-78.4818
-77.2556
-75.8013
-74.1264
-72.2409
-70.1584
-67.896
-65.476
-62.9261
-60.2805
-57.5785
-54.8628
98.7544
98.6804
97.7912
96.1568
93.8809
91.0829
87.8816
84.3843
80.6798
76.8365
72.9034
68.9131
64.886
60.8339
56.7644
52.6829
48.5953
44.5084
40.431
36.3727
32.344
28.3553
24.4163
20.5356
16.7204
12.9768
9.30946
5.72194
2.21674
-1.20482
-4.54261
-7.7977
-10.9723
-14.0695
-17.0929
-20.0458
-22.9309
-25.7494
-28.5008
-31.1824
-33.7904
-36.3198
-38.766
-41.1255
-43.3971
-45.5822
-47.6855
-49.7143
-51.678
-53.5867
-55.4499
-57.2751
-59.0665
-60.8243
-62.5446
-64.2198
-65.8406
-67.3968
-68.8795
-70.2827
-71.6038
-72.8445
-74.01
-75.1078
-76.1459
-77.1309
-78.0658
-78.9483
-79.7692
-80.5129
-81.1574
-81.6765
-82.0419
-82.2254
-82.2021
-81.9512
-81.458
-80.7139
-79.716
-78.466
-76.969
-75.2325
-73.266
-71.0811
-68.693
-66.1225
-63.3985
-60.5591
-57.6515
-54.729
103.249
103.148
102.02
99.9873
97.2161
93.8868
90.1676
86.1999
82.0916
77.917
73.7212
69.5274
65.3431
61.1674
56.996
52.8255
48.6555
44.4895
40.3351
36.2027
32.1039
28.0506
24.0538
20.1229
16.2653
12.4868
8.79207
5.18435
1.66593
-1.76207
-5.10001
-8.34986
-11.5153
-14.6013
-17.6137
-20.5584
-23.4399
-26.2609
-29.0206
-31.7151
-34.3378
-36.8802
-39.334
-41.6924
-43.952
-46.1139
-48.1842
-50.1734
-52.0955
-53.966
-55.7995
-57.6079
-59.398
-61.17
-62.9177
-64.6291
-66.2887
-67.8804
-69.3902
-70.8086
-72.1325
-73.3656
-74.5177
-75.6033
-76.6383
-77.6369
-78.6085
-79.5544
-80.4662
-81.3246
-82.1009
-82.7599
-83.2629
-83.5721
-83.6541
-83.4824
-83.0395
-82.3164
-81.312
-80.0308
-78.4802
-76.6687
-74.6044
-72.2953
-69.7514
-66.989
-64.0358
-60.9348
-57.745
-54.5367
109.286
109.092
107.551
104.879
101.353
97.2504
92.8098
88.2167
83.5976
79.0264
74.5351
70.1265
65.7865
61.4933
57.2253
52.9665
48.7088
44.453
40.2069
35.9834
31.7975
27.664
23.596
19.604
15.6956
11.876
8.14905
4.51787
0.98473
-2.44918
-5.78436
-9.02368
-12.1726
-15.2389
-18.232
-21.1616
-24.0361
-26.8603
-29.6339
-32.3511
-35.0005
-37.568
-40.0389
-42.401
-44.647
-46.7771
-48.7991
-50.7286
-52.5868
-54.3977
-56.1846
-57.9664
-59.7546
-61.55
-63.3423
-65.1119
-66.8336
-68.4811
-70.0315
-71.4697
-72.7909
-74.0019
-75.1202
-76.1707
-77.1819
-78.1806
-79.1868
-80.2086
-81.2388
-82.2531
-83.2122
-84.0664
-84.7615
-85.2446
-85.47
-85.403
-85.0229
-84.3225
-83.3054
-81.9821
-80.3657
-78.4675
-76.2941
-73.8465
-71.1233
-68.1291
-64.8849
-61.4375
-57.8639
-54.2638
117.402
116.976
114.706
110.999
106.32
101.098
95.6701
90.2694
85.0333
80.0194
75.2283
70.6258
66.1613
61.7816
57.4403
53.1047
48.7586
44.4015
40.0454
35.7093
31.4148
27.1823
23.0283
18.9645
14.9976
11.1312
7.36786
3.70998
0.160428
-3.27858
-6.60687
-9.82775
-12.9488
-15.9818
-18.9416
-21.8442
-24.7045
-27.5322
-30.3285
-33.0841
-35.7807
-38.3944
-40.9001
-43.2761
-45.5087
-47.5953
-49.5465
-51.3858
-53.1456
-54.8634
-56.5761
-58.3151
-60.1001
-61.9335
-63.7986
-65.6629
-67.4845
-69.2205
-70.8335
-72.2983
-73.607
-74.7707
-75.8189
-76.7935
-77.7424
-78.7124
-79.7412
-80.8495
-82.0331
-83.2598
-84.4731
-85.6007
-86.5639
-87.287
-87.7055
-87.7731
-87.4663
-86.7833
-85.7382
-84.3542
-82.6557
-80.6614
-78.3775
-75.7931
-72.8842
-69.6281
-66.0253
-62.121
-58.0201
-53.8753
128.468
127.511
123.93
118.515
112.067
105.241
98.4888
92.0836
86.1477
80.6903
75.6486
70.925
66.4129
62.0133
57.646
53.2571
48.823
44.3478
39.8543
35.3746
30.9423
26.5868
22.3302
18.1849
14.1544
10.2379
6.43445
2.74588
-0.823237
-4.26756
-7.5841
-10.7756
-13.8519
-16.8302
-19.7333
-22.5877
-25.4196
-28.2491
-31.0813
-33.9019
-36.6801
-39.3759
-41.9474
-44.3575
-46.5802
-48.6077
-50.4546
-52.1567
-53.7644
-55.3357
-56.9291
-58.5969
-60.3749
-62.2705
-64.2554
-66.2743
-68.2579
-70.136
-71.8477
-73.3508
-74.6304
-75.7049
-76.6226
-77.4521
-78.2714
-79.1582
-80.18
-81.3807
-82.7641
-84.2845
-85.8561
-87.3702
-88.7107
-89.7667
-90.4447
-90.6808
-90.4501
-89.7638
-88.6575
-87.1776
-85.3702
-83.2711
-80.8921
-78.2059
-75.1438
-71.6254
-67.5985
-63.0866
-58.2384
-53.3115
143.987
141.821
135.794
127.513
118.359
109.273
100.806
93.2198
86.5713
80.7609
75.6096
70.9185
66.5012
62.1973
57.8815
53.4734
48.9457
44.3195
39.6424
34.9709
30.3582
25.8485
21.4714
17.2393
13.1467
9.18134
5.33537
1.60956
-1.98678
-5.44066
-8.74152
-11.8892
-14.8962
-17.7869
-20.5951
-23.3632
-26.1382
-28.9617
-31.8506
-34.7805
-37.6978
-40.536
-43.2269
-45.708
-47.9322
-49.8797
-51.5707
-53.0629
-54.435
-55.7753
-57.1742
-58.7192
-60.4797
-62.4778
-64.6624
-66.9355
-69.1821
-71.2901
-73.1612
-74.7238
-75.9483
-76.8636
-77.5519
-78.1241
-78.7019
-79.4083
-80.3599
-81.6473
-83.2965
-85.2339
-87.3203
-89.3881
-91.2657
-92.7891
-93.8184
-94.2593
-94.0882
-93.3475
-92.1133
-90.4709
-88.5031
-86.2823
-83.8476
-81.1583
-78.0591
-74.3534
-69.8687
-64.5354
-58.569
-52.4584
166.733
161.689
150.902
137.768
124.55
112.413
101.852
93.0036
85.7864
79.8809
74.9063
70.5164
66.4248
62.397
58.2491
53.8607
49.2091
44.3639
39.4214
34.4816
29.6252
24.9187
20.4031
16.0924
11.9554
7.95253
4.06303
0.286562
-3.35559
-6.83419
-10.1196
-13.2053
-16.108
-18.8621
-21.5144
-24.1288
-26.7868
-29.5796
-32.5608
-35.6768
-38.8291
-41.9077
-44.8081
-47.4279
-49.682
-51.5205
-52.9726
-54.1412
-55.151
-56.1297
-57.2081
-58.5305
-60.2416
-62.4158
-64.941
-67.6339
-70.3048
-72.7844
-74.9179
-76.5824
-77.7103
-78.348
-78.6472
-78.7867
-78.946
-79.304
-80.0549
-81.3914
-83.4124
-85.9675
-88.8098
-91.6784
-94.3292
-96.5214
-98.0379
-98.7174
-98.5449
-97.6404
-96.1552
-94.231
-91.9988
-89.5999
-87.168
-84.6996
-81.8464
-78.2019
-73.3594
-66.8945
-59.1062
-51.0708
202.363
189.823
169.384
148.144
129.183
113.282
100.431
90.4373
83.1111
77.6591
73.3597
69.6835
66.2554
62.7688
58.9617
54.6259
49.7507
44.5474
39.1957
33.8717
28.6761
23.7133
19.0395
14.6948
10.5709
6.56015
2.62771
-1.23
-4.96
-8.50598
-11.7854
-14.7848
-17.5337
-20.0837
-22.4885
-24.8311
-27.2413
-29.9258
-33.0767
-36.5203
-40.0662
-43.5354
-46.793
-49.674
-52.0298
-53.7171
-54.782
-55.4477
-55.911
-56.3399
-56.89
-57.7815
-59.3355
-61.8478
-64.9771
-68.3632
-71.7019
-74.776
-77.3491
-79.2126
-80.1769
-80.3187
-79.9715
-79.4198
-78.9029
-78.6325
-78.9056
-80.1487
-82.7579
-86.286
-90.2602
-94.2807
-98.0513
-101.225
-103.461
-104.401
-104.054
-102.768
-100.828
-98.4332
-95.7332
-92.9638
-90.5394
-88.7937
-86.772
-83.7742
-79.1853
-71.1582
-59.9983
-48.5509
263.79
229.332
189.014
155.235
129.404
109.759
94.8913
84.0285
77.735
73.7763
70.9143
68.4918
66.1688
63.601
60.4346
56.1666
50.7636
44.9436
38.9296
33.0759
27.391
22.091
17.2016
12.9787
9.02336
5.05466
1.08457
-2.9306
-6.8295
-10.5617
-13.8543
-16.7249
-19.2458
-21.5143
-23.5517
-25.436
-27.3006
-29.5999
-33.1709
-37.216
-41.4135
-45.4673
-49.3197
-52.6757
-55.3398
-56.8093
-57.1659
-57.0447
-56.7201
-56.3746
-56.0796
-56.0777
-57.0488
-60.3903
-64.6426
-69.1599
-73.4789
-77.4878
-80.8012
-83.1362
-83.827
-82.9923
-81.5887
-80.0016
-78.5032
-77.1773
-76.3579
-76.9375
-80.7788
-85.9605
-91.6422
-97.2412
-102.631
-107.278
-110.748
-111.936
-110.913
-108.836
-106.152
-103.074
-99.5655
-95.8289
-92.9319
-93.2833
-93.1015
-91.6359
-89.9608
-79.9319
-61.3034
-43.2973
384.354
277.275
199.226
150.88
120.715
99.3527
83.5841
71.0382
68.9956
68.313
67.8345
67.1559
66.4335
65.2941
63.4927
59.3407
52.376
45.6183
38.4318
32.0365
25.5509
19.8772
14.4037
10.8768
7.49483
3.55097
-0.393802
-4.7987
-8.93913
-13.2504
-16.5311
-19.1682
-21.3215
-23.2777
-24.8351
-26.0692
-26.7337
-27.4426
-32.5821
-37.692
-42.9673
-47.6888
-52.5605
-56.6734
-60.3694
-61.5035
-60.2372
-58.9338
-57.5588
-56.3361
-54.8466
-52.9719
-51.3482
-57.6203
-63.9256
-70.2413
-75.7012
-81.2001
-85.6613
-89.4262
-89.6723
-86.4841
-83.4692
-80.4543
-77.854
-74.9917
-71.7942
-69.0284
-76.8682
-84.9139
-93.1416
-100.501
-108.28
-115.022
-121.322
-122.65
-119.289
-115.776
-112.042
-108.331
-103.725
-97.4835
-90.645
-98.5392
-101.278
-99.7978
-112.764
-101.088
-61.711
-30.8047
659.626
283.411
166.66
120.343
99.3495
80.8895
67.6347
42.9218
58.2965
62.5547
65.0414
65.8818
67.2975
67.9391
69.9346
66.5641
53.6891
46.9095
36.7939
31.1265
22.5413
17.3746
8.80241
8.5659
6.77523
2.04845
-1.20972
-7.04768
-10.8028
-17.423
-20.1345
-22.3083
-23.6806
-25.6152
-26.5838
-27.5225
-26.1027
-18.9051
-32.0355
-37.9296
-45.3181
-49.6937
-56.8936
-61.2706
-69.0876
-69.6537
-63.3611
-60.9254
-58.1776
-56.6811
-54.1674
-49.5039
-34.277
-54.8016
-63.1929
-72.5541
-77.8664
-86.4053
-91.5227
-100.782
-100.462
-89.7248
-85.3484
-80.3087
-77.5809
-73.2875
-66.6078
-45.846
-72.6597
-83.6036
-95.89
-103.154
-115.42
-123.403
-139.052
-140.115
-127.882
-123.032
-117.899
-114.875
-110.239
-99.9957
-67.1416
-111.217
-115.528
-87.1552
-171.05
-162.13
-49.9201
1.14539
-52.3774
-49.5474
-46.835
-44.2784
-41.9075
-39.7435
-37.7996
-36.0824
-34.5934
-33.3304
-32.2894
-31.465
-30.8521
-30.4462
-30.2442
-52.3048
-49.429
-46.6782
-44.0919
-41.6999
-39.5227
-37.5722
-35.8536
-34.3666
-33.108
-32.0721
-31.2529
-30.6445
-30.2419
-30.0416
-52.1541
-49.1847
-46.3562
-43.7103
-41.2768
-39.0744
-37.1124
-35.3923
-33.911
-32.6621
-31.6376
-30.8296
-30.2306
-29.8349
-29.638
-51.9141
-48.7987
-45.8508
-43.1154
-40.6218
-38.3852
-36.4098
-34.6917
-33.2225
-31.9911
-30.9861
-30.1965
-29.6131
-29.2283
-29.0372
-51.5656
-48.2443
-45.132
-42.2779
-39.709
-37.4342
-35.4491
-33.7416
-32.2955
-31.0933
-30.1186
-29.3569
-28.7962
-28.4275
-28.2447
-51.0786
-47.4799
-44.1542
-41.1545
-38.5015
-36.1927
-34.2103
-32.5297
-31.1238
-29.9673
-29.0376
-28.3157
-27.787
-27.4404
-27.2689
-50.4057
-46.4418
-42.8498
-39.6834
-36.9493
-34.624
-32.6692
-31.0422
-29.7024
-28.6141
-27.7481
-27.0809
-26.595
-26.2778
-26.1211
-49.4715
-45.0309
-41.1191
-37.7795
-34.9876
-32.6844
-30.7998
-29.2671
-28.0288
-27.0382
-26.2592
-25.6644
-25.2339
-24.9541
-24.8163
-48.1485
-43.0902
-38.8155
-35.3272
-32.5368
-30.3254
-28.5779
-27.197
-26.1069
-25.2503
-24.5856
-24.083
-23.7218
-23.488
-23.3731
-46.2106
-40.3653
-35.7247
-32.1761
-29.5064
-27.5021
-25.9888
-24.8359
-23.951
-23.2701
-22.7495
-22.3599
-22.0818
-21.9025
-21.8146
-43.2293
-36.4349
-31.5412
-28.1457
-25.8098
-24.1875
-23.0387
-22.2063
-21.5907
-21.129
-20.782
-20.525
-20.3425
-20.2253
-20.1679
-38.3421
-30.6034
-25.8592
-23.0552
-21.3992
-20.399
-19.7717
-19.3596
-19.076
-18.873
-18.7242
-18.6151
-18.5377
-18.4878
-18.4634
-29.7328
-21.7766
-18.2364
-16.8162
-16.3323
-16.2372
-16.289
-16.3842
-16.4805
-16.5624
-16.6263
-16.673
-16.705
-16.7247
-16.7341
-13.5042
-8.53357
-8.49307
-9.64071
-10.8765
-11.9282
-12.7628
-13.4074
-13.8989
-14.2697
-14.5453
-14.7455
-14.8843
-14.9717
-15.0138
18.6276
9.63972
2.4385
-2.37691
-5.60438
-7.83626
-9.42608
-10.5836
-11.4379
-12.0716
-12.5397
-12.879
-13.1147
-13.2635
-13.3355
-1.03804
-1.12614
-1.31099
-1.61143
-2.06001
-2.71014
-3.64981
-5.0301
-7.12918
-10.5162
-16.5439
-29.1223
-62.278
-176.999
-678.875
-7.08504
-7.30551
-7.76648
-8.51172
-9.61745
-11.2094
-13.4955
-16.8305
-21.8527
-29.7907
-43.2063
-67.8718
-117.409
-221.945
-416.103
-12.9795
-13.3184
-14.0251
-15.1622
-16.8377
-19.2271
-22.6131
-27.4598
-34.5517
-45.262
-62.0565
-89.3486
-134.346
-204.652
-288.16
-18.639
-19.0764
-19.9852
-21.4391
-23.5626
-26.5531
-30.7168
-36.5302
-44.7385
-56.5082
-73.6171
-98.5302
-133.707
-178.19
-218.207
-23.9953
-24.5074
-25.5674
-27.2514
-29.6858
-33.0646
-37.6754
-43.9376
-52.4522
-64.0466
-79.758
-100.585
-126.603
-154.828
-176.043
-28.9963
-29.5583
-30.7165
-32.5428
-35.1536
-38.7209
-43.4872
-49.7813
-58.0276
-68.7257
-82.346
-99.0337
-117.968
-136.333
-148.61
-33.6074
-34.1955
-35.402
-37.2896
-39.9572
-43.5448
-48.2384
-54.2695
-61.9005
-71.3757
-82.8035
-95.9224
-109.727
-122.066
-129.701
-37.8104
-38.4035
-39.6148
-41.4952
-44.1222
-47.6008
-52.0609
-57.6468
-64.4928
-72.6697
-82.0863
-92.3349
-102.503
-111.064
-116.095
-41.6018
-42.1825
-43.3633
-45.1823
-47.6959
-50.9755
-55.1015
-60.149
-66.1611
-73.1029
-80.7911
-88.803
-96.3959
-102.512
-105.982
-44.99
-45.5451
-46.6689
-48.3875
-50.7377
-53.7624
-57.5023
-61.9814
-67.1836
-73.0177
-79.271
-85.5618
-91.314
-95.7974
-98.2792
-47.993
-48.513
-49.5615
-51.1541
-53.3113
-56.0528
-59.3898
-63.3117
-67.7675
-72.6413
-77.7247
-82.6945
-87.113
-90.4724
-92.2994
-50.6351
-51.1141
-52.0763
-53.5289
-55.4792
-57.9298
-60.8712
-64.2711
-68.061
-72.1194
-76.2573
-80.2099
-83.6472
-86.2116
-87.588
-52.9448
-53.3798
-54.2507
-55.5581
-57.2998
-59.466
-62.0341
-64.9598
-68.1679
-71.5423
-74.9184
-78.0832
-80.7874
-82.7756
-83.8322
-54.9524
-55.3428
-56.1221
-57.286
-58.8256
-60.7233
-62.9488
-65.4524
-68.1594
-70.9638
-73.7262
-76.2761
-78.4247
-79.9864
-80.81
-56.6891
-57.036
-57.7264
-58.7531
-60.1026
-61.7531
-63.6703
-65.8039
-68.0831
-70.4145
-72.6813
-74.7478
-76.4694
-77.7095
-78.3597
-58.1851
-58.4906
-59.0973
-59.996
-61.1708
-62.5977
-64.2417
-66.0541
-67.9706
-69.9101
-71.7756
-73.4588
-74.8485
-75.8422
-76.3608
-59.4689
-59.7361
-60.2656
-61.0471
-62.064
-63.2917
-64.6961
-66.232
-67.8422
-69.457
-70.9964
-72.3737
-73.5023
-74.3048
-74.722
-60.5672
-60.7995
-61.2589
-61.9349
-62.8109
-63.8629
-65.0591
-66.3584
-67.7106
-69.0564
-70.3297
-71.4611
-72.3827
-73.0348
-73.3729
-61.5044
-61.7052
-62.1018
-62.684
-63.4355
-64.3341
-65.3505
-66.4481
-67.5833
-68.706
-69.7616
-70.6942
-71.45
-71.9829
-72.2584
-62.3021
-62.475
-62.816
-63.3153
-63.958
-64.7235
-65.5855
-66.5118
-67.4647
-68.4021
-69.279
-70.0499
-70.6722
-71.1096
-71.3353
-62.9798
-63.1281
-63.4202
-63.8472
-64.3953
-65.046
-65.7759
-66.5569
-67.3568
-68.1402
-68.8699
-69.5088
-70.0229
-70.3832
-70.5689
-63.5545
-63.6813
-63.9309
-64.295
-64.7613
-65.3134
-65.9307
-66.5889
-67.2605
-67.9157
-68.5238
-69.0545
-69.4803
-69.7781
-69.9313
-64.0411
-64.1493
-64.362
-64.6718
-65.0679
-65.5356
-66.0571
-66.6115
-67.1755
-67.7239
-68.2313
-68.673
-69.0265
-69.2733
-69.4002
-64.4527
-64.5448
-64.7256
-64.9888
-65.3246
-65.7205
-66.1608
-66.6276
-67.1012
-67.5606
-67.9845
-68.3527
-68.6467
-68.8518
-68.9571
-64.8004
-64.8786
-65.0321
-65.2554
-65.5398
-65.8744
-66.2459
-66.639
-67.0368
-67.4219
-67.7764
-68.0837
-68.3289
-68.4995
-68.5871
-65.0937
-65.1601
-65.2903
-65.4794
-65.7201
-66.0028
-66.3161
-66.6471
-66.9814
-67.3043
-67.6012
-67.858
-68.0626
-68.205
-68.278
-65.341
-65.3973
-65.5076
-65.6676
-65.8711
-66.1099
-66.3741
-66.6528
-66.9338
-67.2049
-67.4536
-67.6686
-67.8396
-67.9585
-68.0195
-65.5493
-65.5969
-65.6903
-65.8257
-65.9977
-66.1993
-66.4222
-66.6568
-66.8932
-67.1209
-67.3295
-67.5097
-67.6529
-67.7523
-67.8033
-65.7245
-65.7648
-65.8438
-65.9584
-66.1037
-66.274
-66.462
-66.6597
-66.8586
-67.05
-67.2253
-67.3764
-67.4965
-67.5798
-67.6225
-65.8717
-65.9059
-65.9727
-66.0696
-66.1925
-66.3363
-66.495
-66.6617
-66.8293
-66.9904
-67.1378
-67.2648
-67.3655
-67.4355
-67.4713
-65.9952
-66.0242
-66.0808
-66.1628
-66.2668
-66.3884
-66.5224
-66.6632
-66.8045
-66.9403
-67.0644
-67.1713
-67.256
-67.3148
-67.3449
-66.0987
-66.1232
-66.1712
-66.2407
-66.3288
-66.4317
-66.5452
-66.6642
-66.7836
-66.8983
-67.003
-67.0931
-67.1646
-67.2141
-67.2395
-66.1851
-66.206
-66.2467
-66.3058
-66.3805
-66.4679
-66.564
-66.6649
-66.7661
-66.8631
-66.9517
-67.0279
-67.0884
-67.1302
-67.1516
-66.2571
-66.2748
-66.3096
-66.3598
-66.4235
-66.4978
-66.5797
-66.6654
-66.7514
-66.8338
-66.9091
-66.9737
-67.025
-67.0605
-67.0787
-66.3168
-66.3319
-66.3617
-66.4046
-66.4591
-66.5226
-66.5925
-66.6658
-66.7392
-66.8095
-66.8737
-66.9289
-66.9726
-67.0028
-67.0183
-66.3659
-66.3789
-66.4045
-66.4415
-66.4883
-66.543
-66.6031
-66.666
-66.7291
-66.7895
-66.8446
-66.892
-66.9294
-66.9554
-66.9687
-66.4059
-66.4173
-66.4394
-66.4715
-66.5122
-66.5595
-66.6117
-66.6662
-66.7209
-66.7732
-66.8209
-66.8619
-66.8943
-66.9168
-66.9283
-66.4381
-66.448
-66.4675
-66.4957
-66.5313
-66.5728
-66.6185
-66.6663
-66.7142
-66.7601
-66.8019
-66.8377
-66.8661
-66.8858
-66.8959
-66.4633
-66.4722
-66.4895
-66.5146
-66.5463
-66.5833
-66.6239
-66.6664
-66.709
-66.7498
-66.7869
-66.8188
-66.844
-66.8615
-66.8704
-66.4825
-66.4905
-66.5062
-66.5289
-66.5576
-66.5911
-66.628
-66.6665
-66.7051
-66.742
-66.7756
-66.8045
-66.8273
-66.8431
-66.8512
-66.496
-66.5034
-66.518
-66.5391
-66.5657
-66.5967
-66.6308
-66.6665
-66.7023
-66.7364
-66.7676
-66.7943
-66.8155
-66.8301
-66.8376
-66.5044
-66.5115
-66.5253
-66.5453
-66.5707
-66.6002
-66.6326
-66.6666
-66.7005
-66.733
-66.7626
-66.788
-66.8081
-66.8221
-66.8292
-66.5078
-66.5148
-66.5283
-66.5479
-66.5727
-66.6016
-66.6334
-66.6666
-66.6998
-66.7316
-66.7606
-66.7854
-66.8051
-66.8187
-66.8257
-66.5065
-66.5135
-66.5271
-66.5469
-66.5719
-66.6011
-66.6331
-66.6666
-66.7001
-66.7322
-66.7614
-66.7864
-66.8063
-66.82
-66.827
-66.5003
-66.5075
-66.5217
-66.5423
-66.5682
-66.5985
-66.6318
-66.6666
-66.7014
-66.7347
-66.765
-66.7911
-66.8117
-66.826
-66.8333
-66.489
-66.4968
-66.5119
-66.5338
-66.5616
-66.5939
-66.6294
-66.6665
-66.7037
-66.7393
-66.7717
-66.7995
-66.8215
-66.8368
-66.8446
-66.4724
-66.4809
-66.4974
-66.5214
-66.5517
-66.587
-66.6259
-66.6665
-66.7072
-66.7461
-66.7815
-66.812
-66.8361
-66.8527
-66.8613
-66.4499
-66.4593
-66.4778
-66.5046
-66.5384
-66.5778
-66.6211
-66.6664
-66.7118
-66.7553
-66.7948
-66.8288
-66.8557
-66.8743
-66.8839
-66.4208
-66.4315
-66.4525
-66.4828
-66.5211
-66.5658
-66.6149
-66.6664
-66.7178
-66.7671
-66.812
-66.8506
-66.8811
-66.9023
-66.9131
-66.3844
-66.3966
-66.4207
-66.4554
-66.4994
-66.5507
-66.6072
-66.6662
-66.7254
-66.782
-66.8336
-66.878
-66.9131
-66.9374
-66.9498
-66.3393
-66.3536
-66.3814
-66.4217
-66.4727
-66.5321
-66.5976
-66.6661
-66.7347
-66.8004
-66.8603
-66.9118
-66.9525
-66.9808
-66.9952
-66.2844
-66.301
-66.3335
-66.3805
-66.44
-66.5094
-66.5858
-66.6658
-66.746
-66.8228
-66.8928
-66.953
-67.0007
-67.0337
-67.0506
-66.218
-66.2375
-66.2756
-66.3307
-66.4004
-66.4819
-66.5715
-66.6655
-66.7596
-66.8498
-66.9321
-67.0029
-67.059
-67.0978
-67.1177
-66.1381
-66.161
-66.2058
-66.2706
-66.3528
-66.4487
-66.5543
-66.665
-66.776
-66.8824
-66.9795
-67.0631
-67.1292
-67.1751
-67.1986
-66.0423
-66.0693
-66.1221
-66.1986
-66.2955
-66.4087
-66.5335
-66.6643
-66.7955
-66.9214
-67.0363
-67.1352
-67.2136
-67.268
-67.2958
-65.9277
-65.9596
-66.022
-66.1124
-66.2269
-66.3609
-66.5084
-66.6633
-66.8187
-66.9679
-67.1043
-67.2216
-67.3147
-67.3792
-67.4123
-65.791
-65.8287
-65.9025
-66.0094
-66.1449
-66.3035
-66.4783
-66.6619
-66.8463
-67.0235
-67.1854
-67.3249
-67.4356
-67.5124
-67.5517
-65.6282
-65.6727
-65.76
-65.8865
-66.047
-66.2348
-66.4421
-66.6599
-66.8789
-67.0895
-67.2822
-67.4482
-67.5801
-67.6715
-67.7184
-65.4344
-65.4871
-65.5904
-65.74
-65.9301
-66.1526
-66.3985
-66.6571
-66.9174
-67.1679
-67.3974
-67.5953
-67.7525
-67.8617
-67.9176
-65.2041
-65.2664
-65.3884
-65.5655
-65.7905
-66.0543
-66.346
-66.6532
-66.9628
-67.261
-67.5345
-67.7706
-67.9583
-68.0887
-68.1556
-64.9305
-65.0041
-65.1484
-65.3578
-65.6241
-65.9366
-66.2827
-66.6477
-67.016
-67.3713
-67.6975
-67.9795
-68.204
-68.36
-68.44
-64.6059
-64.6927
-64.8631
-65.1105
-65.4255
-65.7957
-66.2062
-66.6398
-67.0782
-67.5017
-67.8912
-68.2284
-68.4971
-68.684
-68.7799
-64.2211
-64.3234
-64.5242
-64.8163
-65.1886
-65.6268
-66.1136
-66.6288
-67.1506
-67.6558
-68.1213
-68.5249
-68.8469
-69.0713
-69.1864
-63.7652
-63.8856
-64.1221
-64.4664
-64.906
-65.4243
-66.0012
-66.6132
-67.2345
-67.8375
-68.3943
-68.878
-69.2647
-69.5343
-69.6728
-63.2257
-63.3671
-63.6452
-64.0504
-64.5687
-65.1811
-65.8644
-66.5913
-67.3311
-68.0512
-68.7179
-69.2986
-69.7636
-70.0884
-70.2554
-62.5881
-62.7538
-63.0799
-63.556
-64.166
-64.8887
-65.6973
-66.5602
-67.4415
-68.3021
-69.1013
-69.7994
-70.3598
-70.752
-70.9538
-61.8354
-62.0291
-62.4106
-62.9685
-63.6851
-64.5366
-65.4925
-66.5165
-67.5663
-68.5955
-69.5549
-70.3959
-71.0729
-71.5477
-71.7925
-60.9483
-61.1739
-61.6189
-62.2709
-63.1107
-64.1119
-65.2405
-66.4547
-67.7054
-68.9372
-70.0908
-71.1061
-71.9264
-72.5032
-72.801
-59.9047
-60.1664
-60.6835
-61.4429
-62.4242
-63.5988
-64.9291
-66.3677
-67.8576
-69.3333
-70.7227
-71.9517
-72.9488
-73.6523
-74.0163
-58.6793
-58.9816
-59.5798
-60.4608
-61.6035
-62.9777
-64.5425
-66.245
-68.0197
-69.7891
-71.4661
-72.9582
-74.1752
-75.0372
-75.4843
-57.2442
-57.5914
-58.2799
-59.297
-60.6221
-62.2242
-64.0602
-66.0721
-68.1855
-70.3092
-72.3377
-74.1558
-75.648
-76.7101
-77.2628
-55.5679
-55.9642
-56.7518
-57.9195
-59.4483
-61.3084
-63.4559
-65.8288
-68.344
-70.8955
-73.3553
-75.5796
-77.4193
-78.7367
-79.4249
-53.6166
-54.0655
-54.9598
-56.2913
-58.0445
-60.1931
-62.695
-65.4866
-68.4773
-71.5453
-74.5365
-77.2704
-79.5532
-81.2002
-82.0647
-51.3537
-51.8576
-52.8644
-54.3703
-56.3662
-58.8325
-61.7329
-65.0061
-68.557
-72.2483
-75.8964
-79.2745
-82.1283
-84.207
-85.3048
-48.7409
-49.3006
-50.4224
-52.1092
-54.3613
-57.1706
-60.512
-64.3329
-68.5391
-72.9813
-77.4437
-81.6424
-85.2417
-87.8948
-89.3071
-45.7397
-46.3535
-47.5881
-49.4556
-51.9697
-55.1392
-58.9582
-63.392
-68.3573
-73.7003
-79.174
-84.4263
-89.012
-92.444
-94.2899
-42.3124
-42.9755
-44.3146
-46.3532
-49.123
-52.6568
-56.9777
-62.0819
-67.9133
-74.3284
-81.0579
-87.6731
-93.5832
-98.0946
-100.554
-38.4247
-39.1285
-40.5554
-42.7433
-45.746
-49.6279
-54.4532
-60.267
-67.0637
-74.7382
-83.0211
-91.4093
-99.1256
-105.17
-108.527
-34.0486
-34.7795
-36.2679
-38.5677
-41.7587
-45.944
-51.2422
-57.7696
-65.6046
-74.7254
-84.9111
-95.6119
-105.829
-114.11
-118.83
-29.1654
-29.9046
-31.4173
-33.7735
-37.0811
-41.4874
-47.1779
-54.3642
-63.2526
-73.973
-86.4431
-100.15
-113.876
-125.524
-132.41
-23.7691
-24.4929
-25.9813
-28.319
-31.6407
-36.1394
-42.0749
-49.7767
-59.6285
-72.0054
-87.1159
-104.675
-123.366
-140.244
-150.771
-17.8706
-18.5507
-19.9559
-22.1815
-25.3832
-29.7938
-35.7454
-43.6964
-54.2508
-68.1396
-86.0882
-108.413
-134.114
-159.375
-176.442
-11.5004
-12.1053
-13.3611
-15.3665
-18.2867
-22.3783
-28.0278
-35.8085
-46.5577
-61.4543
-82.0211
-109.807
-145.168
-184.194
-213.964
-4.71052
-5.20832
-6.24634
-7.91664
-10.3771
-13.8814
-18.8303
-25.8593
-35.9845
-50.8317
-72.9405
-105.94
-153.677
-215.439
-272.157
2.42443
2.06322
1.30696
0.0814645
-1.74317
-4.38181
-8.18879
-13.7605
-22.1325
-35.1666
-56.297
-91.8382
-152.445
-250.185
-369.737
9.80959
9.60846
9.18554
8.49506
7.45554
5.92866
3.67769
0.282615
-5.04353
-13.8794
-29.6462
-60.3299
-125.424
-269.783
-550.337
17.3337
17.307
17.2493
17.1504
16.9921
16.7413
16.3381
15.666
14.4821
12.2202
7.3633
-4.92551
-43.3571
-194.801
-925.76
24.8757
25.0265
25.3408
25.8464
26.5921
27.6592
29.1843
31.404
34.7554
40.1209
49.5332
68.6331
117.19
282.625
1028.1
32.312
32.6316
33.2987
34.3748
35.968
38.2583
41.5471
46.355
53.6288
65.2105
84.9745
121.734
196.57
357.244
662.775
39.5256
39.9945
40.9717
42.5434
44.859
48.1631
52.854
59.5923
69.5093
84.6167
108.612
148.392
216.337
331.263
509.649
60.5126
24.6606
10.2721
2.826
-1.68417
-4.6737
-6.7636
-8.2729
-9.3839
-10.2085
-10.8189
-11.2628
-11.5721
-11.7679
-11.8628
38.2469
23.4105
12.5723
5.51704
0.823683
-2.42333
-4.74627
-6.44875
-7.7154
-8.66348
-9.37004
-9.88678
-10.2485
-10.4782
-10.5897
26.2838
19.3835
12.2453
6.56781
2.32712
-0.814661
-3.15976
-4.92718
-6.26802
-7.28604
-8.0529
-8.6183
-9.01649
-9.27035
-9.39393
19.1123
15.5216
10.9038
6.62071
3.0674
0.240773
-1.97439
-3.70178
-5.04475
-6.08293
-6.87555
-7.46583
-7.88458
-8.15288
-8.28387
14.4341
12.3726
9.32968
6.16675
3.303
0.871577
-1.12774
-2.74328
-4.03309
-5.05027
-5.83863
-6.43238
-6.85704
-7.13066
-7.26468
11.1874
9.90504
7.8388
5.50496
3.23831
1.2023
-0.547575
-2.01095
-3.21071
-4.17645
-4.93679
-5.51626
-5.93433
-6.20529
-6.33847
8.83107
7.9817
6.53365
4.79644
3.01343
1.33429
-0.166364
-1.46166
-2.55081
-3.44523
-4.16049
-4.71216
-5.1137
-5.37552
-5.50466
7.06446
6.47402
5.42923
4.11966
2.71638
1.34231
0.0722348
-1.0555
-2.02611
-2.83837
-3.49775
-4.01227
-4.39002
-4.63782
-4.76047
5.7078
5.28176
4.50863
3.5079
2.39901
1.27811
0.21198
-0.758433
-1.61136
-2.33763
-2.93556
-3.40731
-3.75654
-3.98696
-4.1014
4.64693
4.33049
3.74601
2.97122
2.08996
1.17584
0.285256
-0.542949
-1.28454
-1.926
-2.46095
-2.88738
-3.20553
-3.41659
-3.52175
3.80574
3.5653
3.11549
2.50844
1.80369
1.05721
0.315211
-0.387608
-1.02724
-1.5883
-2.06169
-2.4426
-2.72885
-2.9197
-3.01509
3.13149
2.94545
2.59414
2.11348
1.54639
0.935444
0.317955
-0.276139
-0.8245
-1.31146
-1.72663
-2.06353
-2.31837
-2.48908
-2.57464
2.58639
2.44034
2.16258
1.7785
1.31954
0.81821
0.304449
-0.196427
-0.66439
-1.08445
-1.44589
-1.74143
-1.9663
-2.11756
-2.19357
2.14268
2.02667
1.80482
1.4955
1.12209
0.709597
0.281992
-0.139568
-0.537542
-0.898122
-1.21091
-1.46837
-1.66531
-1.79828
-1.86525
1.77951
1.68647
1.50778
1.257
0.951762
0.611472
0.255333
-0.099086