/*--------------------------------*- C++ -*----------------------------------*\
| =========                 |                                                 |
| \\      /  F ield         | OpenFOAM: The Open Source CFD Toolbox           |
|  \\    /   O peration     | Version:  5.x                                   |
|   \\  /    A nd           | Web:      www.OpenFOAM.org                      |
|    \\/     M anipulation  |                                                 |
\*---------------------------------------------------------------------------*/
FoamFile
{
    version     2.0;
    format      ascii;
    class       volScalarField;
    location    "8.7";
    object      gradTy;
}
// * * * * * * * * * * * * * * * * * * * * * * * * * * * * * * * * * * * * * //

dimensions      [0 -1 0 1 0 0 0];

internalField   nonuniform List<scalar> 
6300
(
1030.9
1092.93
1155.68
1219.61
1285.16
1352.74
1422.7
1495.32
1570.83
1649.31
1730.76
1815.03
1901.81
1990.68
2081.06
-0.360614
-1.07532
-1.76987
-2.42903
-3.03506
-3.56705
-4.00079
-4.30932
-4.46446
-4.43951
-4.21311
-3.77392
-3.1253
-2.28858
-1.30336
-0.608292
-1.81461
-2.98914
-4.1075
-5.14079
-6.05433
-6.80714
-7.35257
-7.64068
-7.62268
-7.25779
-6.52199
-5.41729
-3.97883
-2.27666
-0.866245
-2.58568
-4.26454
-5.87098
-7.3662
-8.70225
-9.82074
-10.653
-11.1229
-11.1526
-10.6732
-9.63882
-8.04289
-5.93266
-3.4148
-1.13723
-3.39731
-5.61234
-7.74563
-9.75071
-11.5677
-13.1205
-14.3158
-15.0451
-15.1915
-14.6436
-13.3171
-11.1827
-8.2941
-4.80356
-1.42255
-4.25396
-7.04178
-9.7484
-12.3232
-14.6971
-16.7775
-18.4444
-19.55
-19.9245
-19.3923
-17.8029
-15.0764
-11.2572
-6.55379
-1.72155
-5.15418
-8.55236
-11.8829
-15.0965
-18.1199
-20.8478
-23.1341
-24.7858
-25.5638
-25.1981
-23.4257
-20.0627
-15.1045
-8.82204
-2.03101
-6.08877
-10.1305
-14.1342
-18.0596
-21.838
-25.3596
-28.4581
-30.8948
-32.3467
-32.4101
-30.6387
-26.644
-20.2757
-11.8476
-2.3447
-7.03932
-11.7465
-16.4636
-21.1696
-25.8128
-30.2941
-34.4434
-37.9881
-40.5178
-41.4566
-40.0746
-35.5986
-27.5067
-16.0334
-2.65316
-7.97726
-13.3524
-18.8039
-24.342
-29.949
-35.5604
-41.033
-46.0959
-50.2792
-52.8235
-52.604
-48.1686
-38.1192
-22.1418
-2.94379
-8.86409
-14.8816
-21.0576
-27.4452
-34.0805
-40.965
-48.0317
-55.0828
-61.6789
-66.9538
-69.3487
-66.3526
-54.6594
-31.8425
-3.20166
-9.65356
-16.2523
-23.0994
-30.3003
-37.9624
-46.1869
-55.0453
-64.5242
-74.3989
-83.9635
-91.4839
-93.2328
-82.3231
-49.5327
-3.41092
-10.2961
-17.3745
-24.7872
-32.6937
-41.2814
-50.7742
-61.4379
-73.5688
-87.4283
-103.016
-119.39
-132.771
-131.866
-89.4286
-3.55686
-10.7451
-18.1623
-25.9808
-34.4056
-43.6947
-54.19
-66.3626
-80.884
-98.7282
-121.283
-150.286
-186.593
-222.941
-207.232
-3.62827
-10.9649
-18.5486
-26.568
-35.2527
-44.9015
-55.9277
-68.9375
-84.8756
-105.316
-133.1
-173.876
-240.372
-366.069
-656.855
2164.7
2240.86
2316.72
2391.85
2465.83
2538.3
2608.91
2677.36
2743.42
2806.86
2867.53
2925.27
2979.99
3031.61
3080.05
3125.28
3167.27
3205.98
3241.43
3273.61
3302.53
3328.21
3350.68
3369.97
3386.13
3399.2
3409.24
3416.28
3420.4
3421.66
3420.1
3415.8
3408.82
3399.22
3387.05
3372.39
3355.3
3335.82
3314.03
3289.99
3263.75
3235.38
3204.95
3172.51
3138.12
3101.86
3063.77
3023.92
2982.36
2939.15
2894.32
2847.93
2800.03
2750.65
2699.84
2647.66
2594.13
2539.33
2483.29
2426.08
2367.75
2308.37
2247.98
2186.66
2124.46
2061.45
1997.7
1933.27
1868.24
1802.7
1736.75
1670.48
1604.03
1537.51
1471.08
1404.89
1339.09
1273.86
1209.37
1145.78
1083.28
1022.02
962.165
903.86
847.238
792.417
739.495
688.547
639.624
592.75
-0.313964
0.61144
1.5274
2.40243
3.21155
3.93771
4.57184
5.11205
5.56208
5.92952
6.22402
6.45592
6.63503
6.77002
6.86806
6.93474
6.97432
6.98993
6.98395
6.95826
6.91454
6.85438
6.77938
6.69122
6.59161
6.48229
6.36498
6.24136
6.11305
5.98153
5.84816
5.71406
5.5801
5.44684
5.31451
5.183
5.05196
4.92086
4.78914
4.6564
4.5225
4.3877
4.25271
4.1186
3.98673
3.85855
3.73534
3.61805
3.50704
3.40202
3.30199
3.20537
3.11016
3.01423
2.9156
2.8127
2.70461
2.59108
2.47252
2.34978
2.22389
2.0957
1.96553
1.83291
1.69636
1.55344
1.40083
1.23465
1.05088
0.845829
0.616594
0.361471
0.080199
-0.225947
-0.554225
-0.90064
-1.26024
-1.62744
-1.99633
-2.36085
-2.71492
-3.05243
-3.36718
-3.65284
-3.90293
-4.11107
-4.27134
-4.37882
-4.43021
-4.42436
-0.565035
1.03359
2.61031
4.10851
5.48434
6.7091
7.76909
8.66357
9.40159
9.99857
10.473
10.8438
11.1284
11.342
11.4963
11.6007
11.6616
11.6838
11.6707
11.6253
11.5498
11.447
11.3193
11.1696
11.0008
10.8159
10.6176
10.409
10.1928
9.97147
9.74737
9.52248
9.29832
9.07586
8.85546
8.63687
8.41931
8.20167
7.9828
7.76177
7.53818
7.31242
7.0857
6.86004
6.63798
6.42228
6.21547
6.01941
5.83488
5.66142
5.49724
5.33939
5.18411
5.02739
4.86548
4.6955
4.51574
4.32591
4.12696
3.9208
3.70967
3.49553
3.27938
3.06068
2.83704
2.60413
2.35597
2.08543
1.78504
1.44791
1.06858
0.643805
0.173001
-0.341594
-0.895078
-1.48032
-2.08854
-2.70998
-3.33444
-3.95168
-4.55155
-5.12397
-5.65869
-6.14508
-6.57206
-6.92839
-7.20332
-7.3877
-7.47518
-7.46339
-0.877058
1.48772
3.80682
5.99136
7.97526
9.7184
11.2054
12.4411
13.445
14.2449
14.872
15.3564
15.7251
15.9999
16.1976
16.33
16.4055
16.4293
16.4052
16.3363
16.2256
16.0762
15.8919
15.6765
15.4343
15.1695
14.8863
14.5888
14.2809
13.9664
13.6488
13.3309
13.0152
12.703
12.3949
12.0903
11.7878
11.4853
11.1806
10.8719
10.5581
10.2396
9.91824
9.59732
9.28109
8.97424
8.68115
8.40514
8.14777
7.90846
7.68436
7.47065
7.26109
7.04894
6.82793
6.59327
6.34228
6.07473
5.79267
5.4998
5.20059
4.89906
4.59767
4.29633
3.9918
3.67753
3.34405
2.97988
2.57279
2.1114
1.58664
0.993042
0.329464
-0.400653
-1.18963
-2.02634
-2.89727
-3.78766
-4.68247
-5.56704
-6.42727
-7.24937
-8.01939
-8.72247
-9.34257
-9.86257
-10.2654
-10.5358
-10.6628
-10.642
-1.27228
2.00756
5.19703
8.16311
10.8129
13.0966
15.0035
16.5526
17.7822
18.7404
19.4765
20.0361
20.4572
20.7692
20.9928
21.1418
21.2239
21.2439
21.2044
21.1079
20.9572
20.7562
20.5095
20.2224
19.9007
19.55
19.1759
18.7838
18.3789
17.9663
17.5508
17.1367
16.7272
16.3246
15.9296
15.5411
15.1567
14.7726
14.3847
13.9896
13.5851
13.1712
12.7506
12.3282
11.9111
11.5067
11.1226
10.7644
10.435
10.1339
9.85689
9.59629
9.34217
9.08359
8.8104
8.5149
8.19301
7.84481
7.47426
7.0883
6.69519
6.30273
5.91623
5.53692
5.16091
4.77889
4.37665
3.93643
3.43905
2.86645
2.20415
1.44335
0.582051
-0.374642
-1.41515
-2.52279
-3.67768
-4.85865
-6.04493
-7.21716
-8.35757
-9.44951
-10.4762
-11.4191
-12.257
-12.9653
-13.5178
-13.89
-14.0631
-14.0287
-1.76737
2.65786
6.90925
10.7907
14.1778
17.0178
19.3174
21.1246
22.511
23.5561
24.3359
24.9158
25.3471
25.6663
25.8965
26.0503
26.1328
26.145
26.0866
25.9583
25.7622
25.5028
25.1861
24.8192
24.4097
23.9651
23.4924
22.9981
22.489
21.9714
21.452
20.9367
20.4304
19.9364
19.4559
18.9872
18.5261
18.0662
17.6004
17.1219
16.6265
16.1135
15.5864
15.0528
14.5235
14.0112
13.5278
13.0832
12.6826
12.3258
12.0067
11.7136
11.4306
11.1402
10.8259
10.4754
10.0825
9.64791
9.17893
8.6879
8.1897
7.69864
7.22522
6.77353
6.33945
5.91014
5.46466
4.976
4.41435
3.75132
2.96418
2.03903
0.972644
-0.227309
-1.54335
-2.95059
-4.41991
-5.92139
-7.42705
-8.91249
-10.3571
-11.7431
-13.053
-14.2665
-15.3574
-16.2917
-17.0296
-17.5304
-17.7616
-17.7074
-2.3689
3.55848
9.15407
14.1301
18.3302
21.7169
24.3398
26.3023
27.731
28.7537
29.4831
30.0095
30.3984
30.6914
30.9103
31.0617
31.1429
31.1476
31.0696
30.9061
30.6585
30.3319
29.9349
29.4773
28.9695
28.4209
27.8399
27.2341
26.6112
25.9795
25.3475
24.7238
24.1159
23.5291
22.9654
22.4226
21.8939
21.3688
20.8344
20.2788
19.6936
19.0764
18.4318
17.7713
17.112
16.474
15.8775
15.3387
14.8672
14.4636
14.1193
13.8164
13.53
13.2314
12.8938
12.4973
12.0323
11.5008
10.9156
10.2981
9.67417
9.06936
8.50317
7.98501
7.51136
7.06489
6.61509
6.12092
5.53585
4.81515
3.92316
2.83834
1.55581
0.0874508
-1.53996
-3.28871
-5.11553
-6.97777
-8.83793
-10.6662
-12.4408
-14.1458
-15.7681
-17.2901
-18.6829
-19.9008
-20.8822
-21.5587
-21.8707
-21.7879
-3.05814
4.93667
12.2907
18.5863
23.6536
27.5147
30.3122
32.2472
33.5347
34.3723
34.9212
35.3003
35.5867
35.8222
36.02
36.1728
36.2622
36.268
36.1745
35.9741
35.6672
35.2614
34.7696
34.2066
33.5869
32.9223
32.2218
31.4934
30.7452
29.9868
29.2299
28.487
27.77
27.0876
26.4438
25.8365
25.2555
24.6835
24.0981
23.4774
22.8057
22.0776
21.2991
20.4872
19.6687
18.8762
18.1431
17.4966
16.953
16.5152
16.1714
15.8948
15.646
15.3778
15.0456
14.6169
14.0769
13.43
12.6979
11.9166
11.1304
10.3837
9.71121
9.13166
8.64339
8.22377
7.82874
7.39607
6.85204
6.12502
5.15924
3.92179
2.40609
0.630769
-1.36228
-3.51478
-5.76046
-8.03741
-10.2949
-12.4975
-14.6244
-16.6679
-18.6274
-20.4996
-22.2602
-23.85
-25.1738
-26.1113
-26.548
-26.4234
-3.75407
7.23708
16.9506
24.8105
30.7128
34.8428
37.5253
39.1227
39.9839
40.4043
40.6019
40.7221
40.8458
41.0053
41.1922
41.373
41.4994
41.5289
41.431
41.193
40.8156
40.3125
39.7042
39.015
38.2665
37.4726
36.6416
35.7789
34.8912
33.9896
33.0895
32.2107
31.3717
30.5879
29.8675
29.21
28.6017
28.0152
27.4104
26.7468
25.9968
25.1492
24.2122
23.2102
22.1856
21.1906
20.2819
19.5038
18.8843
18.4293
18.1244
17.9309
17.7877
17.6145
17.3341
16.8947
16.2736
15.4801
14.5489
13.5403
12.5277
11.5892
10.7836
10.1451
9.67483
9.34551
9.09493
8.82998
8.43016
7.7772
6.78507
5.40453
3.62888
1.48637
-0.956181
-3.60774
-6.36135
-9.12598
-11.8316
-14.4386
-16.9288
-19.3114
-21.6129
-23.8698
-26.0839
-28.1822
-30.0216
-31.3851
-32.0335
-31.8425
-4.20295
11.3766
24.2786
33.8526
40.3235
44.2547
46.3003
47.0573
47.067
46.7562
46.3925
46.1376
46.052
46.1475
46.3718
46.6501
46.8748
46.9719
46.8881
46.6111
46.144
45.5136
44.7538
43.9077
43.0101
42.0752
41.1056
40.099
39.0562
37.9887
36.9173
35.8758
34.8926
33.9958
33.1994
32.5115
31.9152
31.3722
30.8064
30.1393
29.3274
28.3485
27.2176
25.9646
24.6589
23.3798
22.2316
21.2815
20.5779
20.126
19.9162
19.8935
19.9715
20.0046
19.8504
19.4333
18.7173
17.7275
16.5103
15.169
13.8173
12.6025
11.6147
10.9152
10.5025
10.3531
10.381
10.4573
10.3721
9.91705
8.96956
7.45559
5.3794
2.77355
-0.249529
-3.55414
-6.94667
-10.2998
-13.5105
-16.5478
-19.3884
-22.0717
-24.6624
-27.3016
-30.0739
-32.8872
-35.5543
-37.688
-38.7276
-38.4111
-3.60321
19.3713
36.3985
47.3624
53.5907
56.382
56.9315
56.0693
54.6127
53.1857
52.0279
51.3108
50.9987
51.106
51.4751
52.0061
52.4355
52.677
52.6253
52.3048
51.7093
50.903
49.93
48.8764
47.8096
46.73
45.6252
44.4736
43.2589
41.9959
40.7045
39.4594
38.2915
37.2614
36.3775
35.6836
35.1542
34.7644
34.3508
33.7427
32.901
31.769
30.4015
28.7973
27.0965
25.3826
23.8987
22.7065
21.9113
21.4765
21.4409
21.7133
22.2223
22.6668
22.7473
22.4045
21.5575
20.3047
18.6526
16.8147
14.912
13.2908
12.0327
11.2745
10.9529
11.1071
11.5994
12.319
12.8482
12.7678
11.9715
10.3179
7.89431
4.66322
0.864252
-3.37225
-7.58704
-11.677
-15.4374
-18.9389
-22.0727
-24.964
-27.6406
-30.5405
-34.0033
-37.8012
-41.854
-45.5651
-47.373
-46.7562
0.88083
35.9304
57.2498
67.6907
71.8056
71.7357
69.5936
65.9352
62.1143
59.2257
57.0272
55.899
55.3401
55.6857
56.3434
57.507
58.265
58.8024
58.7481
58.3926
57.5767
56.5306
55.2203
53.8627
52.6255
51.4193
50.2107
48.9373
47.5297
46.0424
44.4234
42.9301
41.4904
40.3152
39.2802
38.6175
38.1908
38.1893
38.1738
37.6809
36.8911
35.5272
33.9247
31.7676
29.5516
27.0527
25.1442
23.5583
22.7247
22.2507
22.5205
23.1911
24.5646
25.8517
26.2526
26.1004
24.9809
23.4553
21.0614
18.5525
15.5999
13.4553
11.7296
11.004
10.7172
11.373
12.4894
14.4539
16.201
16.6486
16.2068
14.2883
11.5711
7.36987
2.60737
-3.22223
-8.40774
-13.5291
-17.7374
-21.8598
-25.1062
-28.1653
-30.2971
-32.9686
-37.4501
-42.3478
-48.6451
-56.1822
-59.5096
-58.0132
20.8891
72.2599
93.7658
97.1284
96.046
90.0724
84.4381
76.0336
68.2722
64.2707
60.4837
59.6664
58.3774
59.8148
60.4818
63.5907
64.4109
65.7784
65.3033
65.1418
63.774
62.5375
60.5773
58.6744
57.3956
56.111
54.888
53.593
51.9141
50.2771
47.9604
46.3223
44.3075
43.1659
41.6458
41.2103
40.6141
41.6333
42.6834
42.0455
41.7069
39.6279
38.2457
34.8216
32.4128
27.8719
25.9242
23.326
23.019
21.9529
23.0222
23.6557
27.0302
30.3119
30.5532
31.1881
28.9881
27.8553
23.6347
20.9285
15.1233
13.0157
9.9855
10.1009
9.12341
10.975
12.1574
16.9011
21.4244
21.8092
22.5678
19.408
17.3843
10.8841
5.88662
-4.00005
-9.32115
-16.6961
-20.1613
-26.0419
-28.4096
-32.7019
-32.176
-32.7899
-40.2973
-44.8783
-53.6504
-72.8605
-78.5916
-74.2878
111.338
151.593
156.405
132.965
127.328
107.919
103.271
85.2056
69.0152
69.0068
59.6638
64.1127
57.4887
65.0533
61.1038
72.9699
69.7683
75.4078
71.4066
73.6281
69.7821
69.5868
65.8517
62.5874
62.1744
60.714
59.6693
58.8021
56.2384
55.491
50.5206
50.2575
45.8678
46.5618
42.4504
44.0351
40.7117
45.0334
49.6241
45.9796
49.0294
42.7258
45.5074
36.4142
38.345
24.9577
27.6413
19.795
24.4073
18.5805
24.1519
20.174
29.6301
39.1506
34.2873
40.3586
31.4588
36.7023
24.0275
27.7677
9.32268
13.9053
3.71228
10.7722
3.45631
11.5409
6.69783
19.6659
32.6075
26.4319
34.5716
22.892
29.644
12.2351
16.2067
-11.3516
-7.27619
-25.4925
-19.1061
-35.2815
-28.9406
-44.1757
-32.4128
-22.6837
-47.3575
-41.3726
-43.6235
-108.947
-112.122
-99.4611
560.857
281.959
259.725
143.161
178.44
104.509
141.421
91.6752
46.4542
87.1822
38.9816
84.5019
36.1665
86.8697
38.9492
104.044
62.3923
98.9174
68.5467
90.8493
70.5308
81.7307
70.446
62.3923
68.4593
64.7162
64.1927
66.452
57.945
66.7839
46.3004
60.1329
40.1054
56.8758
35.0503
53.9257
29.7983
48.0443
68.4214
40.2719
69.819
32.739
69.8671
22.1303
66.3333
-1.10035
44.5196
-1.67792
40.8261
-1.20701
39.031
-2.65432
32.1353
68.7
22.2738
71.0857
13.5612
71.35
0.781118
66.5521
-29.6392
36.0702
-27.4065
32.1435
-24.3887
30.7211
-24.4111
22.4677
71.3176
10.4391
75.1136
-0.1667
76.6941
-17.2031
71.929
-64.2562
26.8682
-69.717
14.4379
-76.9445
1.59783
-94.5262
-29.721
36.9626
-98.5657
-26.0069
57.2285
-234.526
-168.455
-141.5
543.44
492.55
444.463
399.037
356.093
315.429
276.827
240.057
204.891
171.097
138.452
106.736
75.7345
45.2394
15.0463
-4.35632
-4.20722
-3.99362
-3.72846
-3.42548
-3.09772
-2.75641
-2.41048
-2.06635
-1.72815
-1.398
-1.07639
-0.762584
-0.45493
-0.151196
-7.3436
-7.08358
-6.71325
-6.2561
-5.7367
-5.17795
-4.59921
-4.0155
-3.43737
-2.87135
-2.32054
-1.78534
-1.26414
-0.753866
-0.250502
-10.46
-10.0701
-9.51954
-8.84584
-8.08717
-7.27807
-6.4469
-5.61485
-4.79622
-3.99928
-3.22741
-2.48027
-1.75475
-1.04588
-0.347442
-13.7676
-13.2169
-12.4488
-11.5204
-10.4879
-9.40015
-8.29536
-7.2007
-6.1333
-5.10206
-4.10951
-3.15352
-2.22869
-1.32744
-0.440826
-17.3406
-16.5809
-15.5381
-14.2988
-12.9437
-11.5391
-10.1335
-8.75916
-7.43412
-6.16608
-4.95499
-3.79556
-2.679
-1.59433
-0.529244
-21.2727
-20.2277
-18.8237
-17.1926
-15.4487
-13.6787
-11.9404
-10.2681
-8.67783
-7.17302
-5.74872
-4.39465
-3.09738
-1.84161
-0.611054
-25.6875
-24.233
-22.336
-20.1987
-17.9797
-15.7862
-13.6811
-11.6948
-9.83592
-8.09934
-6.4721
-4.93689
-3.47422
-2.06365
-0.684403
-30.7538
-28.6806
-26.0883
-23.2862
-20.4849
-17.805
-15.3027
-12.9939
-10.8715
-8.91617
-7.10335
-5.40649
-3.79889
-2.25434
-0.747298
-36.7052
-33.647
-30.0499
-26.3728
-22.8684
-19.6458
-16.7305
-14.1065
-11.7398
-9.59035
-7.6185
-5.78674
-4.06043
-2.40748
-0.797735
-43.8528
-39.1515
-34.0908
-29.286
-24.9699
-21.1788
-17.8667
-14.9617
-12.3905
-10.0868
-7.99342
-6.06145
-4.24855
-2.51736
-0.833888
-52.5336
-45.0148
-37.8753
-31.71
-26.5458
-22.2325
-18.5955
-15.4829
-12.7734
-10.3727
-8.20682
-6.21699
-4.35489
-2.57947
-0.854331
-62.7546
-50.4983
-40.6848
-33.1322
-27.2704
-22.6095
-18.7996
-15.6006
-12.8474
-10.4235
-8.24405
-6.24467
-4.37448
-2.59127
-0.85828
-72.6491
-53.5381
-41.2327
-32.8632
-26.7934
-22.1353
-18.3925
-15.2723
-12.5918
-10.2297
-8.10105
-6.14307
-4.307
-2.55279
-0.845788
-72.4037
-49.7713
-37.844
-30.294
-24.9043
-20.7453
-17.3623
-14.5041
-12.0177
-9.80234
-7.7872
-5.91946
-4.15757
-2.46707
-0.817854
-3.6265
-10.959
-18.5369
-26.5478
-35.2204
-44.853
-55.8593
-68.8491
-84.7786
-105.258
-133.237
-174.706
-243.384
-374.991
-673.883
-3.56398
-10.7657
-18.1947
-26.0226
-34.4556
-43.7559
-54.2759
-66.5118
-81.1915
-99.4189
-122.886
-154.034
-195.158
-240.516
-228.342
-3.45018
-10.4146
-17.5752
-25.0771
-33.0881
-41.8113
-51.5005
-62.477
-75.1401
-89.9399
-107.201
-126.433
-143.991
-145.99
-91.4852
-3.29188
-9.92707
-16.7187
-23.7778
-31.2257
-39.1956
-47.8307
-57.2702
-67.6041
-78.7508
-90.1457
-99.9925
-103.629
-90.7011
-43.8398
-3.09784
-9.33088
-15.6761
-22.2084
-29.0005
-36.1175
-43.6019
-51.442
-59.5033
-67.3889
-74.1643
-77.8635
-74.7685
-58.9769
-24.5401
-2.87784
-8.65669
-14.5036
-20.4583
-26.5495
-32.7839
-39.1258
-45.4596
-51.524
-56.7975
-60.3189
-60.4521
-54.7242
-40.2002
-15.4094
-2.64173
-7.93518
-13.256
-18.6132
-23.9989
-29.3755
-34.6548
-39.6639
-44.0933
-47.4222
-48.8261
-47.1105
-40.7876
-28.5531
-10.4644
-2.39866
-7.19459
-11.9831
-16.7482
-21.4544
-26.0345
-30.3711
-34.2702
-37.4266
-39.383
-39.4992
-36.9681
-30.9559
-20.9711
-7.49163
-2.15654
-6.45904
-10.7265
-14.9239
-18.9972
-22.8625
-26.3911
-29.3922
-31.5927
-32.6212
-32.0103
-29.2429
-23.8826
-15.8159
-5.56308
-1.92175
-5.7478
-9.51832
-13.1855
-16.6844
-19.924
-22.7772
-25.07
-26.5724
-26.9977
-26.0186
-23.3181
-18.6884
-12.1785
-4.24099
-1.69907
-5.07505
-8.38184
-11.564
-14.5515
-17.2538
-19.5524
-21.2964
-22.3001
-22.3492
-21.2221
-18.7327
-14.7999
-9.53258
-3.29693
-1.49175
-4.45032
-7.33184
-10.0774
-12.6167
-14.8636
-16.7126
-18.0368
-18.6904
-18.5173
-17.3715
-15.1497
-11.8379
-7.55899
-2.60161
-1.30173
-3.87904
-6.3762
-8.73398
-10.8847
-12.7496
-14.237
-15.2428
-15.6546
-15.3609
-14.2679
-12.3235
-9.54729
-6.05652
-2.07701
-1.12984
-3.3634
-5.51728
-7.53425
-9.3512
-10.8977
-12.0957
-12.8611
-13.1085
-12.7594
-11.7553
-10.075
-7.75285
-4.89341
-1.67356
-0.976095
-2.90304
-4.75339
-6.47335
-8.00538
-9.28768
-10.2547
-10.8391
-10.9767
-10.6127
-9.71224
-8.272
-6.33147
-3.98053
-1.35849
-0.839869
-2.49584
-4.08002
-5.54288
-6.83291
-7.89654
-8.67918
-9.12741
-9.19297
-8.83832
-8.04397
-6.81639
-5.19502
-3.25589
-1.10935
-0.720136
-2.13849
-3.49084
-4.73239
-5.81759
-6.70047
-7.33581
-7.68135
-7.70099
-7.36925
-6.67648
-5.63419
-4.27921
-2.67524
-0.91032
-0.615617
-1.82696
-2.97856
-4.03044
-4.94273
-5.67622
-6.19364
-6.46153
-6.45295
-6.15081
-5.55165
-4.66908
-3.53626
-2.20633
-0.749975
-0.524905
-1.5569
-2.5355
-3.4254
-4.19197
-4.80197
-5.22469
-5.43365
-5.4087
-5.13859
-4.62358
-3.8777
-2.93017
-1.8252
-0.619895
-0.446564
-1.3239
-2.154
-2.90597
-3.54991
-4.05772
-4.40414
-4.56815
-4.53466
-4.2964
-3.85578
-3.22632
-2.43338
-1.51373
-0.513756
-0.379186
-1.12368
-1.82676
-2.46153
-3.00235
-3.42551
-3.71023
-3.83976
-3.80277
-3.5947
-3.21909
-2.68843
-2.02455
-1.25804
-0.426734
-0.32144
-0.952218
-1.54692
-2.08232
-2.53647
-2.88942
-3.12404
-3.22697
-3.18964
-3.00933
-2.69003
-2.24304
-1.68698
-1.04734
-0.355097
-0.272095
-0.805795
-1.30827
-1.75951
-2.14084
-2.43547
-2.62928
-2.71155
-2.67577
-2.52044
-2.24964
-1.87335
-1.40745
-0.873144
-0.295924
-0.230033
-0.681051
-1.10517
-1.48524
-1.80539
-2.05152
-2.21196
-2.27807
-2.2449
-2.11173
-1.88247
-1.56588
-1.17541
-0.728744
-0.246906
-0.194251
-0.574984
-0.932637
-1.25258
-1.52133
-1.72706
-1.86012
-1.91352
-1.88346
-1.76972
-1.57594
-1.3097
-0.982391
-0.60876
-0.2062
-0.163862
-0.48494
-0.786289
-1.05545
-1.28102
-1.45306
-1.56358
-1.60691
-1.58012
-1.48328
-1.3197
-1.09591
-0.821529
-0.508862
-0.172324
-0.138086
-0.408592
-0.662287
-0.888589
-1.07786
-1.22177
-1.31368
-1.34899
-1.3254
-1.24318
-1.10526
-0.917248
-0.687247
-0.425535
-0.14408
-0.116244
-0.343915
-0.557301
-0.747436
-0.906187
-1.02658
-1.10309
-1.13196
-1.11139
-1.04174
-0.925598
-0.767737
-0.574981
-0.355915
-0.120489
-0.0977462
-0.289154
-0.468456
-0.628072
-0.761149
-0.861841
-0.925567
-0.949239
-0.931447
-0.872584
-0.774899
-0.642452
-0.480979
-0.297654
-0.100753
-0.0820838
-0.242798
-0.393278
-0.527131
-0.638592
-0.72277
-0.775854
-0.795309
-0.780019
-0.73038
-0.648332
-0.537317
-0.402149
-0.248818
-0.0842135
-0.0688193
-0.203545
-0.329644
-0.441734
-0.534978
-0.605284
-0.649487
-0.665501
-0.652437
-0.610675
-0.541877
-0.448949
-0.335927
-0.20781
-0.0703277
-0.0575769
-0.170282
-0.275736
-0.369422
-0.447288
-0.50592
-0.542689
-0.555879
-0.544779
-0.509738
-0.452174
-0.374531
-0.280185
-0.173302
-0.0586451
-0.0480345
-0.142052
-0.229997
-0.308091
-0.372951
-0.421734
-0.452261
-0.46312
-0.453741
-0.424438
-0.376411
-0.311709
-0.233148
-0.144191
-0.0487909
-0.0399162
-0.118038
-0.191098
-0.255948
-0.309775
-0.350222
-0.375487
-0.38441
-0.376534
-0.352136
-0.312225
-0.258509
-0.193328
-0.119552
-0.0404516
-0.0329854
-0.0975386
-0.157897
-0.211456
-0.255889
-0.289251
-0.310058
-0.317363
-0.310799
-0.290604
-0.257622
-0.213268
-0.159475
-0.0986094
-0.0333641
-0.0270386
-0.0799511
-0.129418
-0.1733
-0.20969
-0.236994
-0.254003
-0.259945
-0.254526
-0.23795
-0.210914
-0.174579
-0.130532
-0.0807076
-0.0273061
-0.0219003
-0.0647559
-0.104815
-0.140344
-0.169798
-0.191885
-0.20563
-0.210413
-0.205999
-0.192559
-0.17066
-0.141246
-0.105601
-0.0652887
-0.0220888
-0.0174182
-0.0515017
-0.0833583
-0.111607
-0.135019
-0.152568
-0.16348
-0.167265
-0.163739
-0.15304
-0.135623
-0.112239
-0.0839083
-0.051875
-0.0175502
-0.0134586
-0.0397936
-0.0644059
-0.0862279
-0.104309
-0.117859
-0.126279
-0.129192
-0.126458
-0.118186
-0.104728
-0.0866654
-0.0647869
-0.0400521
-0.0135501
-0.00990337
-0.0292813
-0.0473907
-0.0634454
-0.0767464
-0.0867114
-0.092901
-0.0950383
-0.093022
-0.0869325
-0.0770293
-0.0637413
-0.0476483
-0.0294561
-0.00996523
-0.00664584
-0.0196496
-0.0318018
-0.0425747
-0.0514992
-0.0581846
-0.0623362
-0.0637685
-0.0624138
-0.0583264
-0.0516807
-0.0427646
-0.0319671
-0.0197618
-0.00668552
-0.00358818
-0.0106092
-0.0171705
-0.0229874
-0.0278065
-0.0314168
-0.0336593
-0.0344335
-0.0337029
-0.0314965
-0.0279083
-0.0230939
-0.0172633
-0.0106721
-0.00361045
-0.000638399
-0.00188778
-0.00305602
-0.00409272
-0.00495287
-0.00559878
-0.00600174
-0.00614336
-0.00601649
-0.00562572
-0.00498735
-0.00412877
-0.00308741
-0.00190908
-0.000645933
0.00229235
0.00677726
0.0109671
0.0146793
0.017752
0.0200506
0.0214744
0.0219604
0.0214867
0.0200731
0.0177807
0.0147095
0.0109933
0.00679505
0.00229864
0.00529236
0.0156471
0.0253218
0.0338954
0.0409941
0.0463073
0.0496015
0.0507304
0.0496423
0.0463819
0.0410896
0.0339953
0.0254088
0.0157061
0.00531324
0.00845201
0.0249891
0.0404409
0.0541355
0.0654758
0.0739656
0.0792316
0.0810397
0.0793059
0.0741013
0.0656494
0.0543171
0.0405991
0.0250964
0.00848998
0.0118664
0.0350845
0.05678
0.0760099
0.0919362
0.103862
0.111262
0.113808
0.111379
0.104075
0.0922089
0.076295
0.0570283
0.035253
0.011926
0.0156382
0.0462368
0.0748307
0.100178
0.121174
0.1369
0.146664
0.150029
0.146837
0.137216
0.121578
0.100601
0.0751989
0.0464867
0.0157266
0.0198805
0.0587808
0.0951354
0.127366
0.15407
0.174078
0.186507
0.190802
0.186757
0.174535
0.154655
0.127978
0.0956678
0.0591422
0.0200083
0.0247203
0.0730923
0.118303
0.158392
0.191614
0.216516
0.231998
0.237363
0.232355
0.217169
0.19245
0.159265
0.119063
0.0736085
0.0249029
0.030302
0.0895984
0.145026
0.194184
0.234935
0.265495
0.284512
0.291127
0.285019
0.266422
0.236121
0.195424
0.146106
0.0903314
0.0305613
0.0367916
0.10879
0.176101
0.235813
0.285331
0.322488
0.345635
0.353723
0.346353
0.3238
0.28701
0.237569
0.17763
0.109828
0.0371587
0.0443813
0.131237
0.212451
0.284518
0.344309
0.389206
0.417212
0.427051
0.418227
0.39106
0.346683
0.287
0.214613
0.132704
0.0449002
0.0532945
0.157601
0.255151
0.341745
0.413628
0.467649
0.501401
0.513335
0.502835
0.470269
0.416981
0.345252
0.258205
0.159674
0.0540277
0.0637923
0.188655
0.305458
0.409185
0.495346
0.560163
0.600738
0.615192
0.602763
0.563863
0.500082
0.414138
0.30977
0.191582
0.0648277
0.0761801
0.225303
0.364841
0.488821
0.591883
0.669506
0.718209
0.735712
0.721068
0.674731
0.598569
0.495813
0.370931
0.229436
0.0776421
0.0908151
0.268606
0.435026
0.582977
0.706079
0.798927
0.857339
0.87855
0.861376
0.806304
0.715519
0.59285
0.443623
0.274442
0.0928792
0.108115
0.319803
0.518032
0.694386
0.841277
0.952255
1.02229
1.04804
1.02799
0.962668
0.854604
0.708323
0.530169
0.328042
0.111029
0.128569
0.380344
0.616224
0.826247
1.00141
1.134
1.218
1.24931
1.22605
1.1487
1.02022
0.845924
0.633359
0.391975
0.132683
0.152746
0.451921
0.732365
0.982313
1.19108
1.34949
1.45028
1.48846
1.46164
1.37025
1.21764
1.01009
0.756556
0.468341
0.158554
0.181307
0.536501
0.869677
1.16697
1.41572
1.60499
1.72603
1.77274
1.74206
1.63428
1.45321
1.20618
0.903829
0.559684
0.189508
0.215019
0.636365
1.0319
1.38531
1.68164
1.90785
2.05338
2.11075
2.07601
1.9492
1.73457
1.44067
1.08012
0.669097
0.226598
0.254766
0.754148
1.22337
1.64329
1.99625
2.26671
2.44194
2.5127
2.47388
2.32507
2.07096
1.72144
1.29145
0.800363
0.271115
0.301557
0.892867
1.44906
1.94775
2.36813
2.69168
2.90303
2.99073
2.94811
2.77406
2.47359
2.05808
1.54518
0.958125
0.324645
0.356544
1.05596
1.71468
2.30658
2.80721
3.19456
3.44997
3.55922
3.51357
3.31081
2.95607
2.46234
1.85039
1.14812
0.38915
0.421021
1.24732
2.02667
2.72877
3.32495
3.78901
4.09836
4.23524
4.18811
3.95307
3.53506
2.94867
2.21831
1.37747
0.467075
0.496426
1.47126
2.39229
3.2245
3.93439
4.49088
4.8665
5.03901
4.9931
4.72235
4.23093
3.53495
2.66293
1.65512
0.561491
0.58434
1.73256
2.81955
3.80514
4.65034
5.31829
5.77564
5.9944
5.95419
5.64482
5.06882
4.24346
3.20183
1.99233
0.67629
0.686459
2.03635
3.31721
4.48324
5.48933
6.2919
6.85042
7.12957
7.10214
6.75241
6.07982
5.1021
3.85727
2.40352
0.816455
0.804561
2.38807
3.89457
5.27238
6.4696
7.43493
8.11913
8.47758
8.47382
8.08415
7.30266
6.1462
4.65775
2.90726
0.988448
0.940446
2.79323
4.56128
6.18686
7.61084
8.7731
9.61398
10.077
10.1134
9.68789
8.78584
7.42077
5.64017
3.52787
1.20077
1.09584
3.25721
5.32688
7.24129
8.93376
10.3344
11.3711
11.9727
12.0737
11.6225
10.5905
8.98383
6.85289
4.2976
1.46476
1.27227
3.78484
6.20025
8.44977
10.4593
12.1483
13.4303
14.2158
14.4175
13.9602
12.7941
10.9109
8.36024
5.26004
1.79589
1.4709
4.37991
7.18875
9.82483
12.2073
14.2446
15.8343
16.8642
17.2187
16.79
15.4955
13.3014
10.2491
6.47517
2.21564
1.69229
5.04449
8.29716
11.376
14.1948
16.6518
18.6268
19.9814
20.5638
20.221
18.8214
16.2879
12.6391
8.02745
2.75466
1.93614
5.77814
9.52624
13.1075
16.4334
19.3935
21.85
23.6347
24.5511
24.3857
22.9345
20.0486
15.6977
10.0388
3.4579
2.201
6.57696
10.8711
15.0163
18.9259
22.4847
25.5394
27.8908
29.2894
29.4431
28.0439
24.8266
19.6644
12.6903
4.39372
2.48393
7.43253
12.3192
17.0885
21.6619
25.9257
29.7172
32.8082
34.892
35.5786
34.4156
30.9549
24.8891
16.2601
5.67037
2.7802
8.33102
13.8488
19.2967
24.6125
29.6946
34.3811
38.4249
41.4645
42.9983
42.3828
38.8919
31.8938
21.1913
7.46852
3.08309
9.25235
15.4269
21.5963
27.7254
33.7379
39.4909
44.7387
49.0824
51.9101
52.3463
49.2643
41.4706
28.2197
10.1098
3.3838
10.1699
17.0085
23.9236
30.919
37.9611
44.9513
51.68
57.7526
62.4822
64.7527
62.9081
54.8369
38.6221
14.2162
3.67163
11.0509
18.5368
26.1951
34.0798
42.2199
50.5931
59.0764
67.355
74.7614
80.0163
80.8752
73.8577
54.7126
21.1185
3.93442
11.8577
19.9452
28.3091
37.063
46.3165
56.1579
66.6146
77.5624
88.5341
98.3318
104.311
101.3
80.8364
34.0226
4.15939
12.5504
21.1616
30.1521
39.6991
50.0043
61.2949
73.8111
87.7526
103.121
119.298
133.99
140.86
125.258
61.6703
4.33418
13.09
22.1143
31.6082
41.8084
53.0074
65.5805
80.0171
96.9508
117.146
141.294
169.099
196.026
203.003
130.812
4.44823
13.4429
22.7408
32.5737
43.2236
55.056
68.5713
84.4882
103.883
128.426
160.747
204.818
265.042
335.723
331.504
4.49402
13.5853
22.9956
32.9715
43.8172
55.9354
69.8939
86.5433
107.24
134.302
172.04
229.317
326.796
520.454
989.686
4.46809
13.5058
22.8575
32.7651
43.5268
55.5363
69.3472
85.7872
106.174
132.763
169.762
225.897
321.754
513.809
984.208
4.3716
13.2083
22.3332
31.9654
42.3696
53.8857
66.9742
82.2894
100.8
123.994
154.195
194.889
249.905
313.866
308.271
4.21015
12.7105
21.4564
30.6293
40.4398
51.1426
63.0544
76.5715
92.1731
110.358
131.34
153.934
171.843
162.222
56.6017
-45.9126
-37.4007
-31.0263
-26.0948
-22.1212
-18.8087
-15.9707
-13.4834
-11.2609
-9.2405
-7.37438
-5.62467
-3.96004
-2.3535
-0.780794
-17.2193
-23.8552
-23.5518
-21.4873
-19.0617
-16.6737
-14.4308
-12.3491
-10.416
-8.61009
-6.90896
-5.29088
-3.73558
-2.22411
-0.738515
-7.83342
-15.1281
-17.3001
-17.1303
-15.9757
-14.4379
-12.7788
-11.1116
-9.48244
-7.90683
-6.38578
-4.91343
-3.48064
-2.07671
-0.690283
-4.26142
-9.95822
-12.6745
-13.457
-13.1558
-12.2859
-11.1323
-9.84749
-8.51163
-7.16558
-5.82871
-4.50846
-3.2056
-1.91713
-0.637974
-2.65188
-6.85801
-9.39171
-10.536
-10.7306
-10.3309
-9.57678
-8.61871
-7.54778
-6.41787
-5.26001
-4.09136
-2.92054
-1.75106
-0.583427
-1.80454
-4.91915
-7.07364
-8.27438
-8.71802
-8.62186
-8.16276
-7.46821
-6.62481
-5.68947
-4.69876
-3.6757
-2.6345
-1.58369
-0.528334
-1.30058
-3.64696
-5.41781
-6.53844
-7.08017
-7.16476
-6.91215
-6.42099
-5.76561
-4.99946
-4.1599
-3.27261
-2.35511
-1.41944
-0.474149
-0.973533
-2.77439
-4.21346
-5.20443
-5.7597
-5.94173
-5.82712
-5.48772
-4.98326
-4.36037
-3.65414
-2.89045
-2.08832
-1.26187
-0.422044
-0.748005
-2.15304
-3.32024
-4.17291
-4.69837
-4.92462
-4.89814
-4.669
-4.28308
-3.77911
-3.18824
-2.53496
-1.83837
-1.11357
-0.372895
-0.585644
-1.69682
-2.6454
-3.36858
-3.84476
-4.08297
-4.10984
-3.95909
-3.66484
-3.25815
-2.76564
-2.20951
-1.608
-0.976275
-0.327294
-0.465018
-1.35351
-2.12706
-2.73574
-3.15635
-3.38802
-3.44482
-3.34878
-3.12465
-2.79673
-2.3872
-1.91554
-1.39859
-0.850953
-0.285584
-0.373241
-1.08998
-1.72319
-2.23348
-2.59912
-2.81447
-2.88592
-2.82738
-2.6565
-2.39196
-2.05188
-1.653
-1.21047
-0.737936
-0.247897
-0.302114
-0.884457
-1.40465
-1.83164
-2.14622
-2.34081
-2.41724
-2.38396
-2.25335
-2.03961
-1.75735
-1.42075
-1.04316
-0.63707
-0.214202
-0.246181
-0.722076
-1.15083
-1.50784
-1.77663
-1.94917
-2.02472
-2.00811
-1.90791
-1.73483
-1.50055
-1.21694
-0.89564
-0.547844
-0.184348
-0.20168
-0.592423
-0.946823
-1.24527
-1.47386
-1.62486
-1.69617
-1.69028
-1.61305
-1.47252
-1.27798
-1.0393
-0.766505
-0.469516
-0.158102
-0.165937
-0.487999
-0.78166
-1.03119
-1.22496
-1.35587
-1.4212
-1.42197
-1.36213
-1.24769
-1.08604
-0.885344
-0.654161
-0.401198