/*--------------------------------*- C++ -*----------------------------------*\
| =========                 |                                                 |
| \\      /  F ield         | OpenFOAM: The Open Source CFD Toolbox           |
|  \\    /   O peration     | Version:  5.x                                   |
|   \\  /    A nd           | Web:      www.OpenFOAM.org                      |
|    \\/     M anipulation  |                                                 |
\*---------------------------------------------------------------------------*/
FoamFile
{
    version     2.0;
    format      ascii;
    class       volScalarField;
    location    "0.6";
    object      gradTx;
}
// * * * * * * * * * * * * * * * * * * * * * * * * * * * * * * * * * * * * * //

dimensions      [0 -1 0 1 0 0 0];

internalField   nonuniform List<scalar> 
2048
(
0.00681044
0.0202066
0.032934
0.0446168
0.0549785
0.0638366
0.0711144
0.076826
0.0810533
0.0839224
0.0855816
0.0861845
0.08588
0.0848072
0.083095
0.0808631
0.0782229
0.0752782
0.0721234
0.0688414
0.065502
0.0621596
0.0588542
0.0556118
0.0524471
0.0493664
0.0463692
0.0434507
0.0406026
0.0378135
0.0350699
0.0323563
0.029657
0.0269561
0.0242393
0.021494
0.018709
0.0158747
0.0129818
0.0100215
0.00698457
0.00386231
0.000647424
-0.00266419
-0.00607112
-0.00956355
-0.0131201
-0.0167046
-0.0202624
-0.0237185
-0.0269759
-0.0299163
-0.0324039
-0.0342924
-0.0354349
-0.0356973
-0.0349721
-0.0331921
-0.0303416
-0.0264618
-0.0216513
-0.0160603
-0.00988085
-0.00333515
0.0203238
0.0602863
0.0982236
0.133
0.163781
0.190032
0.211537
0.228355
0.240748
0.249108
0.253887
0.255547
0.254532
0.251255
0.246095
0.239404
0.231514
0.222731
0.213336
0.203576
0.193658
0.183745
0.173951
0.164353
0.154993
0.145885
0.137029
0.128408
0.119997
0.111763
0.103665
0.0956557
0.0876883
0.0797155
0.0716943
0.0635871
0.0553618
0.0469899
0.0384451
0.0297007
0.0207296
0.0115051
0.00200407
-0.00778749
-0.0178678
-0.0282104
-0.038755
-0.0493969
-0.0599774
-0.0702753
-0.0800031
-0.0888084
-0.096284
-0.101989
-0.105478
-0.106343
-0.104255
-0.0990064
-0.090546
-0.0789955
-0.064651
-0.0479643
-0.0295117
-0.00996139
0.0337733
0.100143
0.163048
0.220558
0.27127
0.314316
0.349384
0.376627
0.396536
0.409808
0.417222
0.419559
0.417555
0.411883
0.40316
0.391958
0.378815
0.364237
0.348687
0.332577
0.316247
0.299961
0.283906
0.2682
0.252902
0.238033
0.223584
0.209529
0.195824
0.182413
0.169228
0.156191
0.143221
0.130239
0.117173
0.103962
0.090555
0.076907
0.0629766
0.0487208
0.0340944
0.0190509
0.00354842
-0.0124421
-0.0289247
-0.0458647
-0.0631719
-0.0806839
-0.0981481
-0.115207
-0.13139
-0.146113
-0.158693
-0.168385
-0.174428
-0.17612
-0.172886
-0.164362
-0.150446
-0.131338
-0.107537
-0.0798061
-0.049109
-0.0165749
0.0474621
0.140655
0.228772
0.309013
0.379385
0.438712
0.486647
0.523522
0.550143
0.567574
0.57697
0.57945
0.576036
0.56765
0.555126
0.539238
0.520724
0.500284
0.478567
0.456148
0.433503
0.410995
0.388871
0.367281
0.346291
0.325917
0.30614
0.286917
0.268188
0.249874
0.231877
0.214088
0.196387
0.178663
0.160814
0.142757
0.124424
0.105759
0.0867064
0.0672104
0.0472066
0.0266264
0.0054035
-0.0165134
-0.0391441
-0.0624566
-0.0863448
-0.110603
-0.134898
-0.158751
-0.181512
-0.202367
-0.220347
-0.234377
-0.243352
-0.246232
-0.242159
-0.230573
-0.211305
-0.184629
-0.15126
-0.112298
-0.0691126
-0.023324
0.0616638
0.182612
0.296608
0.399874
0.489788
0.564906
0.624942
0.670526
0.702893
0.723578
0.734166
0.736136
0.730796
0.71929
0.702642
0.68181
0.657719
0.631263
0.603285
0.574532
0.545619
0.517003
0.488983
0.461722
0.43528
0.409654
0.384806
0.360679
0.337195
0.314252
0.291725
0.269463
0.24731
0.225114
0.202743
0.180093
0.157084
0.133652
0.109737
0.0852687
0.0601646
0.0343299
0.00766744
-0.019906
-0.0484378
-0.0779135
-0.108227
-0.139147
-0.170282
-0.201042
-0.230613
-0.257946
-0.28177
-0.300653
-0.313091
-0.317651
-0.313131
-0.298728
-0.274173
-0.239811
-0.1966
-0.146018
-0.0898774
-0.0303288
0.07664
0.226761
0.367691
0.494521
0.603956
0.694346
0.765594
0.818796
0.855778
0.878662
0.889539
0.89027
0.88243
0.86735
0.846208
0.820115
0.790173
0.757479
0.723082
0.687917
0.652746
0.618117
0.584365
0.551645
0.51999
0.489363
0.4597
0.430926
0.402952
0.375656
0.34888
0.322433
0.296107
0.269709
0.243072
0.216075
0.18863
0.160675
0.132147
0.10297
0.0730413
0.0422362
0.0104181
-0.0225393
-0.0567246
-0.0921573
-0.128751
-0.166272
-0.20429
-0.242128
-0.278821
-0.313084
-0.34333
-0.367724
-0.384305
-0.39117
-0.386691
-0.369752
-0.339946
-0.297688
-0.244215
-0.181445
-0.111692
-0.0376857
0.092654
0.273848
0.443132
0.594267
0.723244
0.828292
0.909692
0.96922
1.0095
1.03338
1.04356
1.04227
1.03134
1.01223
0.986202
0.954497
0.918382
0.87917
0.83814
0.796441
0.754996
0.714439
0.675122
0.637165
0.600544
0.565167
0.530938
0.497769
0.465563
0.434187
0.403449
0.373106
0.342894
0.312562
0.28191
0.250799
0.219144
0.186893
0.153993
0.120365
0.0858873
0.0503992
0.0137154
-0.0243458
-0.0639294
-0.105107
-0.147833
-0.191896
-0.236856
-0.281977
-0.32616
-0.367895
-0.405254
-0.435957
-0.45751
-0.467442
-0.463596
-0.444452
-0.40941
-0.358957
-0.294661
-0.218972
-0.134786
-0.04547
0.109981
0.324648
0.524059
0.700411
0.848931
0.967865
1.05812
1.12244
1.16449
1.18804
1.19646
1.19238
1.17779
1.1542
1.12291
1.08523
1.04258
0.996517
0.948589
0.900197
0.852444
0.806049
0.761352
0.7184
0.677072
0.6372
0.598646
0.561318
0.52513
0.489944
0.455533
0.421592
0.38778
0.353784
0.319358
0.284352
0.248694
0.212359
0.175314
0.137485
0.0987332
0.0588542
0.0176031
-0.0252709
-0.0699847
-0.11668
-0.165375
-0.215909
-0.267867
-0.320487
-0.372567
-0.42238
-0.467648
-0.505591
-0.533099
-0.54701
-0.544506
-0.523548
-0.483271
-0.424232
-0.348413
-0.258918
-0.159334
-0.0537364
0.128918
0.379985
0.611657
0.814267
0.982251
1.11407
1.21159
1.27887
1.32094
1.34272
1.34828
1.34066
1.32191
1.29347
1.25658
1.21254
1.16296
1.10966
1.05452
0.999237
0.945135
0.893006
0.843143
0.795466
0.74971
0.7056
0.66295
0.621683
0.581747
0.543017
0.505227
0.467993
0.430879
0.393483
0.355513
0.316811
0.277337
0.237106
0.196128
0.154343
0.111591
0.0676195
0.0221093
-0.0252735
-0.0748331
-0.126799
-0.181276
-0.238186
-0.297174
-0.3575
-0.417898
-0.476447
-0.530508
-0.576755
-0.611357
-0.630323
-0.630008
-0.607702
-0.562178
-0.494066
-0.405871
-0.301523
-0.185453
-0.0625177
0.14979
0.440759
0.707188
0.937195
1.12441
1.2678
1.37062
1.43872
1.47885
1.49726
1.49889
1.48704
1.46373
1.43017
1.38738
1.33663
1.27969
1.21871
1.15597
1.09358
1.03308
0.975349
0.920578
0.868489
0.818611
0.770521
0.723986
0.678969
0.6355
0.593486
0.55262
0.512413
0.4723
0.431772
0.390474
0.348252
0.305118
0.261158
0.216441
0.170933
0.124458
0.0766982
0.0272481
-0.0243259
-0.0784293
-0.135395
-0.195438
-0.258588
-0.324602
-0.392813
-0.461944
-0.529918
-0.593736
-0.649476
-0.692478
-0.717754
-0.720631
-0.697537
-0.646749
-0.568963
-0.467359
-0.346944
-0.213192
-0.0718215
0.172964
0.507966
0.812024
1.07062
1.27661
1.42987
1.53561
1.602
1.63794
1.65133
1.64797
1.63136
1.60323
1.5644
1.51551
1.4577
1.39291
1.32373
1.25298
1.18319
1.11626
1.0531
0.99374
0.937605
0.883942
0.832132
0.781892
0.73328
0.686464
0.641422
0.597795
0.554951
0.512159
0.468764
0.424339
0.378745
0.332077
0.284523
0.236239
0.187235
0.137313
0.08608
0.0330201
-0.0224141
-0.0807419
-0.142413
-0.207768
-0.276981
-0.349963
-0.426189
-0.504441
-0.582541
-0.657142
-0.723686
-0.776569
-0.809609
-0.816864
-0.793655
-0.737585
-0.649388
-0.533131
-0.395246
-0.242524
-0.0816255
0.19885
0.582715
0.927662
1.21605
1.44003
1.60096
1.70675
1.7685
1.79778
1.80441
1.7951
1.77334
1.74035
1.69626
1.64115
1.57593
1.50277
1.42481
1.34552
1.26804
1.19463
1.12628
1.06272
1.00297
0.945893
0.890621
0.836818
0.784709
0.7347
0.686882
0.640826
0.595707
0.550572
0.50458
0.457208
0.408357
0.358242
0.307196
0.255496
0.203213
0.150127
0.0957435
0.0394147
-0.0195374
-0.0817555
-0.147814
-0.218193
-0.293236
-0.373063
-0.457368
-0.545083
-0.633999
-0.720456
-0.799229
-0.863654
-0.906132
-0.919158
-0.896653
-0.83529
-0.73578
-0.603362
-0.446386
-0.273331
-0.0918723
0.227913
0.666247
1.05575
1.37508
1.61586
1.78169
1.88408
1.93783
1.95771
1.9558
1.93973
1.91269
1.875
1.82586
1.76453
1.69155
1.60941
1.52199
1.43355
1.34801
1.26812
1.19488
1.1276
1.06475
1.00468
0.946199
0.888917
0.833339
0.780245
0.729906
0.681782
0.63478
0.587664
0.539348
0.489187
0.437151
0.383636
0.329162
0.27417
0.218819
0.162857
0.105659
0.0464122
-0.0157077
-0.0814705
-0.151579
-0.226658
-0.307243
-0.393714
-0.486076
-0.583527
-0.683921
-0.783334
-0.875865
-0.953679
-1.0075
-1.02793
-1.00713
-0.940497
-0.828568
-0.678141
-0.500193
-0.305386
-0.102463
0.260684
0.759954
1.19809
1.54941
1.80523
1.97249
2.06747
2.1094
2.11688
2.10466
2.08121
2.04904
2.0071
1.95333
1.88591
1.80481
1.71298
1.61531
1.51702
1.42299
1.33662
1.25888
1.1885
1.12314
1.06055
0.999107
0.938354
0.879236
0.823116
0.770516
0.720723
0.672269
0.623565
0.573207
0.520385
0.46519
0.408273
0.350395
0.292207
0.233991
0.175454
0.115792
0.0539859
-0.0109477
-0.079904
-0.153711
-0.233137
-0.318917
-0.411742
-0.512041
-0.619411
-0.731892
-0.845366
-0.953271
-1.04651
-1.11385
-1.14358
-1.12572
-1.05389
-0.928182
-0.757463
-0.556346
-0.338334
-0.113249
0.297768
0.86539
1.35667
1.74087
2.00928
2.1737
2.25663
2.28244
2.27426
2.24999
2.21885
2.18204
2.13657
2.07886
2.00561
1.91598
1.81365
1.7048
1.59584
1.49281
1.39999
1.31829
1.24554
1.17835
1.11377
1.04962
0.985302
0.922445
0.863294
0.808716
0.757706
0.708273
0.658412
0.606309
0.550919
0.49253
0.432162
0.370857
0.309538
0.248656
0.187861
0.126107
0.0621049
-0.00528961
-0.0770878
-0.154236
-0.237631
-0.328203
-0.426998
-0.534992
-0.652358
-0.777465
-0.906084
-1.03104
-1.14195
-1.22524
-1.26644
-1.25304
-1.17623
-1.03508
-0.841208
-0.614342
-0.371675
-0.124031
0.339864
0.984288
1.53366
1.95138
2.22903
2.38543
2.45107
2.45601
2.42863
2.39065
2.3519
2.31136
2.26336
2.20267
2.12406
2.0254
1.91154
1.79051
1.6699
1.55727
1.45806
1.37308
1.29887
1.23063
1.16467
1.09806
1.02994
0.962979
0.900723
0.844491
0.792787
0.74289
0.692351
0.638827
0.580909
0.519225
0.455305
0.390503
0.32608
0.26273
0.200022
0.136569
0.0707369
0.00122638
-0.0730678
-0.153201
-0.240175
-0.335086
-0.439361
-0.554676
-0.68199
-0.820174
-0.964973
-1.1087
-1.23971
-1.34169
-1.3968
-1.38976
-1.30841
-1.14976
-0.929131
-0.673469
-0.404746
-0.134547
0.387786
1.11856
1.73139
2.18303
2.46544
2.60758
2.65019
2.62903
2.57862
2.5254
2.47959
2.43672
2.38744
2.32502
2.24175
2.13341
2.00681
1.87248
1.73909
1.61609
1.5106
1.42323
1.34866
1.28023
1.21356
1.14479
1.07247
1.00081
0.935299
0.877807
0.826027
0.776217
0.725536
0.670954
0.610482
0.545313
0.477703
0.40928
0.341737
0.276117
0.211879
0.147152
0.0798505
0.00855375
-0.0679011
-0.150676
-0.240837
-0.339592
-0.448748
-0.570861
-0.707933
-0.859544
-1.02148
-1.18568
-1.33943
-1.46314
-1.53487
-1.53654
-1.45149
-1.27284
-1.02082
-0.732766
-0.436703
-0.144478
0.442503
1.27031
1.95236
2.43806
2.71929
2.83975
2.85326
2.80034
2.72266
2.65287
2.60118
2.55794
2.50878
2.44624
2.35935
2.2404
2.09952
1.95077
1.80329
1.66897
1.55736
1.46875
1.39515
1.32739
1.26083
1.19027
1.1131
1.03585
0.966859
0.908618
0.857505
0.80834
0.75812
0.702921
0.639768
0.570817
0.499354
0.427132
0.356395
0.288711
0.223376
0.157844
0.0894165
0.0166403
-0.0616527
-0.146744
-0.239719
-0.341795
-0.455117
-0.583336
-0.729827
-0.895112
-1.07503
-1.26132
-1.4407
-1.58952
-1.68073
-1.69401
-1.60681
-1.40503
-1.11567
-0.790986
-0.466521
-0.153448
0.505201
1.44179
2.19918
2.71896
2.99114
3.08114
3.05953
2.96869
2.85903
2.77155
2.716
2.67502
2.62731
2.56664
2.47769
2.34677
2.1897
2.0255
1.86239
1.71551
1.59799
1.50965
1.43863
1.37237
1.30683
1.23503
1.15204
1.06795
0.995174
0.93687
0.887332
0.839327
0.790256
0.735005
0.668896
0.595733
0.520264
0.444
0.369924
0.300389
0.234467
0.168652
0.099409
0.0254281
-0.0543927
-0.141506
-0.236955
-0.341821
-0.458469
-0.591922
-0.747327
-0.926443
-1.12505
-1.33487
-1.54303
-1.72076
-1.83428
-1.86274
-1.77603
-1.54728
-1.2128
-0.846555
-0.492999
-0.161033
0.577394
1.63543
2.47452
3.02856
3.28128
3.33048
3.26826
3.13284
2.98583
2.87983
2.82346
2.78815
2.74287
2.68654
2.59789
2.4529
2.2772
2.09686
1.91631
1.75525
1.6321
1.54598
1.4795
1.41534
1.35193
1.27977
1.18954
1.09685
1.01993
0.962511
0.915675
0.869208
0.822083
0.767553
0.697988
0.620008
0.540456
0.459831
0.38217
0.311018
0.245112
0.17961
0.109804
0.0348522
-0.0461908
-0.135067
-0.232706
-0.339853
-0.458856
-0.596464
-0.760106
-0.953146
-1.171
-1.40545
-1.64589
-1.85685
-1.99514
-2.04311
-1.96131
-1.70079
-1.31099
-0.89753
-0.514774
-0.166776
0.661088
1.85374
2.78093
3.37023
3.58955
3.5858
3.47899
3.29163
3.10094
2.97593
2.9231
2.89792
2.85513
2.80616
2.72143
2.55911
2.36166
2.16521
1.965
1.78759
1.65919
1.57783
1.51831
1.45639
1.39646
1.32536
1.22584
1.12218
1.04072
0.9855
0.942792
0.897952
0.853708
0.801022
0.727148
0.643525
0.55999
0.474581
0.392953
0.320444
0.255285
0.190793
0.120575
0.0448377
-0.0371118
-0.127535
-0.22716
-0.336136
-0.456373
-0.596835
-0.767847
-0.974896
-1.2124
-1.472
-1.74867
-1.99795
-2.1626
-2.23518
-2.16548
-1.86713
-1.4085
-0.941572
-0.530371
-0.170214
0.759062
2.09922
3.12067
3.74815
3.91522
3.84426
3.69169
3.44397
3.20199
3.0579
3.01463
3.0054
2.96341
2.92557
2.85037
2.66561
2.44236
2.23117
2.00848
1.81182
1.67866
1.60533
1.55582
1.49544
1.44067
1.37296
1.2612
1.14339
1.05705
1.00582
0.969084
0.925423
0.885185
0.836024
0.756446
0.666062
0.578987
0.488219
0.402055
0.328491
0.264972
0.202329
0.13169
0.0552952
-0.0272091
-0.119015
-0.22052
-0.330984
-0.451165
-0.592933
-0.770235
-0.991455
-1.2489
-1.53326
-1.85072
-2.14456
-2.33544
-2.4385
-2.39231
-2.04835
-1.50295
-0.975923
-0.538258
-0.170904
0.875281
2.37428
3.49539
4.16781
4.25678
4.10177
3.90715
3.58898
3.2863
3.12359
3.0979
3.11237
3.0665
3.04456
2.9876
2.7724
2.51808
2.29577
2.04685
1.82702
1.68978
1.62869
1.59314
1.53214
1.48464
1.42412
1.29584
1.15976
1.06828
1.02348
0.995163
0.951322
0.916476
0.873404
0.785891
0.687253
0.597675
0.500731
0.409214
0.334964
0.274171
0.214419
0.143093
0.0661152
-0.0165165
-0.109595
-0.212997
-0.324792
-0.443421
-0.584678
-0.766936
-1.00268
-1.28038
-1.58762
-1.95127
-2.29774
-2.51181
-2.65177
-2.64686
-2.24711
-1.59099
-0.997416
-0.53694
-0.168462
1.01553
2.68102
3.90561
4.63661
4.61165
4.35263
4.12753
3.72589
3.35077
3.17061
3.17295
3.22171
3.16237
3.16246
3.13721
2.87912
2.58686
2.36069
2.08023
1.83207
1.69167
1.64813
1.63184
1.56575
1.52826
1.48094
1.32993
1.17032
1.07367
1.03852
1.02196
0.975108
0.947408
0.914349
0.815393
0.706524
0.61645
0.512118
0.414109
0.339642
0.282892
0.227363
0.154697
0.0771602
-0.00503904
-0.0993523
-0.204794
-0.318044
-0.433366
-0.572014
-0.757571
-1.00854
-1.30705
-1.63306
-2.04938
-2.45951
-2.689
-2.87244
-2.93589
-2.46683
-1.668
-1.00253
-0.525072
-0.162604
1.18833
3.02099
4.35009
5.16489
4.97578
4.58897
4.35697
3.85406
3.39186
3.19632
3.23985
3.33775
3.24783
3.27796
3.30495
2.98486
2.64571
2.42857
2.10881
1.82557
1.68329
1.6639
1.67417
1.59492
1.57107
1.5463
1.36349
1.17381
1.07239
1.05098
1.05083
0.995885
0.97761
0.960528
0.844707
0.723015
0.635958
0.522383
0.41634
0.342282
0.291143
0.241595
0.16635
0.0882567
0.00725955
-0.0883406
-0.19609
-0.311341
-0.421256
-0.554919
-0.741676
-1.00909
-1.32961
-1.66694
-2.14383
-2.63328
-2.86328
-3.09613
-3.26856
-2.71179
-1.72759
-0.987481
-0.501589
-0.153182
1.40619
3.39478
4.82488
5.76716
5.34315
4.80004
4.6026
3.97272
3.4054
3.19784
3.29862
3.46692
3.318
3.38876
3.49899
3.08788
2.69024
2.50347
2.13265
1.80576
1.66344
1.67617
1.72335
1.61751
1.61215
1.62414
1.39631
1.16866
1.06346
1.0609
1.08379
1.01226
1.00643
1.01429
0.87336
0.735482
0.657222
0.531513
0.415418
0.342626
0.298917
0.257727
0.177809
0.0991872
0.0204721
-0.0765981
-0.18701
-0.305416
-0.407351
-0.533416
-0.718656
-1.00446
-1.34954
-1.68582
-2.23291
-2.82452
-3.02965
-3.31585
-3.65717
-2.98736
-1.76102
-0.948465
-0.465854
-0.140216
1.68738
3.80163
5.32204
6.46394
5.705
4.97135
4.87576
4.0807
3.38658
3.17206
3.3489
3.61854
3.36573
3.49129
3.73069
3.18526
2.71424
2.59142
2.15163
1.77056
1.6308
1.6849
1.78397
1.63028
1.64995
1.71984
1.42773
1.15295
1.0459
1.06817
1.12371
1.02215
1.03282
1.0789
0.900538
0.742175
0.681791
0.539433
0.410739
0.340416
0.306163
0.276613
0.188688
0.109684
0.0347673
-0.0641542
-0.17759
-0.301179
-0.391896
-0.507601
-0.687732
-0.994776
-1.36936
-1.68521
-2.31414
-3.04154
-3.18155
-3.52106
-4.11815
-3.30008
-1.75646
-0.881934
-0.417807
-0.123917
2.05821
4.2387
5.82806
7.28395
6.04902
5.08362
5.19356
4.17583
3.32984
3.11581
3.38951
3.80582
3.38084
3.58018
4.01578
3.27243
2.70909
2.7012
2.16508
1.71741
1.58395
1.68967
1.86241
1.62853
1.68209
1.84066
1.45641
1.12441
1.01868
1.07248
1.17462
1.02259
1.05524
1.15888
0.924956
0.74069
0.711951
0.545937
0.401574
0.335414
0.312743
0.299426
0.198403
0.119423
0.0504139
-0.051048
-0.167736
-0.29976
-0.375072
-0.477689
-0.647884
-0.980035
-1.39304
-1.65931
-2.38385
-3.29654
-3.31067
-3.69646
-4.67336
-3.65777
-1.69805
-0.785081
-0.358084
-0.104688
2.55597
4.70038
6.32183
8.26708
6.3581
5.11149
5.58086
4.25414
3.22888
3.02598
3.41784
4.04714
3.34917
3.64776
4.37561
3.34254
2.66314
2.84529
2.17144
1.6434
1.52151
1.6893
1.96753
1.60565
1.70509
1.99639
1.48003
1.08041
0.980888
1.07306
1.24214
1.00938
1.07147
1.26037
0.944678
0.727805
0.750975
0.550589
0.387052
0.32744
0.318372
0.327756
0.206094
0.128029
0.06781
-0.0373578
-0.157155
-0.302573
-0.356944
-0.444074
-0.59779
-0.959944
-1.42652
-1.60063
-2.43658
-3.6068
-3.40663
-3.82046
-5.35158
-4.06961
-1.56486
-0.656483
-0.288107
-0.0831122
3.23261
5.17723
6.77213
9.46781
6.6089
5.02216
6.07267
4.30867
3.07676
2.89989
3.42892
4.36769
3.25156
3.68342
4.83882
3.38572
2.561
3.04098
2.16771
1.5452
1.44224
1.68153
2.11138
1.55262
1.71417
2.19996
1.49476
1.01808
0.931817
1.06845
1.33391
0.976863
1.07846
1.39158
0.956898
0.699285
0.803438
0.552578
0.366161
0.316418
0.322535
0.363737
0.210531
0.135082
0.0875185
-0.023247
-0.145283
-0.311396
-0.337374
-0.407414
-0.535782
-0.933658
-1.47829
-1.49977
-2.46438
-3.99612
-3.45688
-3.86349
-6.1903
-4.5461
-1.32961
-0.496946
-0.210101
-0.0599095
4.15917
5.65487
7.13469
10.9595
6.77012
4.77372
6.71702
4.32795
2.86608
2.73571
3.41421
4.80129
3.06255
3.67283
5.4431
3.38822
2.38271
3.31183
2.14869
1.4192
1.34531
1.66235
2.31009
1.45742
1.70284
2.4683
1.49476
0.934356
0.871137
1.05611
1.46019
0.917445
1.0721
1.56333
0.957678
0.649679
0.875589
0.550526
0.337753
0.302445
0.324372
0.410193
0.209993
0.14013
0.110309
-0.0090261
-0.131184
-0.328475
-0.315915
-0.36874
-0.459813
-0.899434
-1.56013
-1.34499
-2.4559
-4.49643
-3.44644
-3.78591
-7.23781
-5.09894
-0.957318
-0.310587
-0.127009
-0.0358876
5.43094
6.11256
7.34885
12.839
6.80035
4.31345
7.57813
4.294
2.58937
2.53299
3.36012
5.39269
2.74905
3.59717
6.23728
3.33134
2.10289
3.68916
2.10602
1.26167
1.23054
1.62536
2.58498
1.30434
1.66265
2.82329
1.47146
0.826218
0.799104
1.03196
1.63451
0.821235
1.04703
1.78963
0.941641
0.57209
0.975771
0.542248
0.300576
0.285866
0.322543
0.47082
0.202139
0.142725
0.137204
0.00476514
-0.113431
-0.356644
-0.291678
-0.329581
-0.367451
-0.854195
-1.68788
-1.122
-2.39521
-5.14955
-3.35788
-3.53574
-8.55555
-5.74081
-0.403755
-0.106139
-0.0422873
-0.0118718
)
;

boundaryField
{
    left
    {
        type            calculated;
        value           uniform 0;
    }
    right
    {
        type            calculated;
        value           uniform 0;
    }
    interface
    {
        type            calculated;
        value           nonuniform List<scalar> 
64
(
5.43094
6.11256
7.34885
12.839
6.80035
4.31345
7.57813
4.294
2.58937
2.53299
3.36012
5.39269
2.74905
3.59717
6.23728
3.33134
2.10289
3.68916
2.10602
1.26167
1.23054
1.62536
2.58498
1.30434
1.66265
2.82329
1.47146
0.826218
0.799104
1.03196
1.63451
0.821235
1.04703
1.78963
0.941641
0.57209
0.975771
0.542248
0.300576
0.285866
0.322543
0.47082
0.202139
0.142725
0.137204
0.00476514
-0.113431
-0.356644
-0.291678
-0.329581
-0.367451
-0.854195
-1.68788
-1.122
-2.39521
-5.14955
-3.35788
-3.53574
-8.55555
-5.74081
-0.403755
-0.106139
-0.0422873
-0.0118718
)
;
    }
    bottom
    {
        type            calculated;
        value           nonuniform List<scalar> 
64
(
0.00681044
0.0202066
0.032934
0.0446168
0.0549785
0.0638366
0.0711144
0.076826
0.0810533
0.0839224
0.0855816
0.0861845
0.08588
0.0848072
0.083095
0.0808631
0.0782229
0.0752782
0.0721234
0.0688414
0.065502
0.0621596
0.0588542
0.0556118
0.0524471
0.0493664
0.0463692
0.0434507
0.0406026
0.0378135
0.0350699
0.0323563
0.029657
0.0269561
0.0242393
0.021494
0.018709
0.0158747
0.0129818
0.0100215
0.00698457
0.00386231
0.000647424
-0.00266419
-0.00607112
-0.00956355
-0.0131201
-0.0167046
-0.0202624
-0.0237185
-0.0269759
-0.0299163
-0.0324039
-0.0342924
-0.0354349
-0.0356973
-0.0349721
-0.0331921
-0.0303416
-0.0264618
-0.0216513
-0.0160603
-0.00988085
-0.00333515
)
;
    }
    defaultFaces
    {
        type            empty;
    }
}


// ************************************************************************* //
