/*--------------------------------*- C++ -*----------------------------------*\
| =========                 |                                                 |
| \\      /  F ield         | OpenFOAM: The Open Source CFD Toolbox           |
|  \\    /   O peration     | Version:  5.x                                   |
|   \\  /    A nd           | Web:      www.OpenFOAM.org                      |
|    \\/     M anipulation  |                                                 |
\*---------------------------------------------------------------------------*/
FoamFile
{
    version     2.0;
    format      ascii;
    class       volScalarField;
    location    "0.6";
    object      gradTy;
}
// * * * * * * * * * * * * * * * * * * * * * * * * * * * * * * * * * * * * * //

dimensions      [0 -1 0 1 0 0 0];

internalField   nonuniform List<scalar> 
2048
(
-27.9397
-27.9098
-27.8511
-27.7656
-27.6559
-27.5251
-27.3767
-27.2143
-27.0412
-26.8605
-26.675
-26.4872
-26.2993
-26.1129
-25.9298
-25.751
-25.5776
-25.4105
-25.25
-25.0966
-24.9505
-24.8117
-24.6801
-24.5557
-24.4383
-24.3276
-24.2236
-24.126
-24.0346
-23.9494
-23.8702
-23.7969
-23.7294
-23.6679
-23.6122
-23.5624
-23.5186
-23.4809
-23.4495
-23.4244
-23.4058
-23.3939
-23.3889
-23.391
-23.4004
-23.4173
-23.4419
-23.4744
-23.5146
-23.5626
-23.618
-23.6802
-23.7485
-23.8217
-23.8984
-23.9766
-24.0545
-24.1297
-24.1999
-24.2627
-24.3158
-24.3576
-24.3862
-24.4009
-27.9634
-27.9328
-27.8725
-27.7848
-27.6725
-27.5389
-27.3877
-27.2225
-27.0469
-26.8639
-26.6764
-26.4869
-26.2974
-26.1098
-25.9256
-25.746
-25.572
-25.4043
-25.2435
-25.09
-24.9438
-24.805
-24.6735
-24.5492
-24.4319
-24.3213
-24.2174
-24.1199
-24.0287
-23.9435
-23.8643
-23.791
-23.7236
-23.6619
-23.6062
-23.5563
-23.5124
-23.4746
-23.4431
-23.4178
-23.3991
-23.387
-23.3818
-23.3837
-23.3929
-23.4097
-23.4342
-23.4665
-23.5069
-23.5551
-23.6109
-23.6738
-23.743
-23.8174
-23.8954
-23.9754
-24.0551
-24.1322
-24.2042
-24.2688
-24.3235
-24.3664
-24.396
-24.411
-28.0091
-27.9768
-27.9135
-27.8215
-27.7041
-27.5651
-27.4084
-27.238
-27.0574
-26.8701
-26.6788
-26.486
-26.2937
-26.1038
-25.9176
-25.7364
-25.5612
-25.3926
-25.2313
-25.0774
-24.9311
-24.7923
-24.6609
-24.5368
-24.4198
-24.3095
-24.2058
-24.1085
-24.0174
-23.9323
-23.8532
-23.7799
-23.7125
-23.6507
-23.5948
-23.5448
-23.5007
-23.4627
-23.4309
-23.4054
-23.3863
-23.3739
-23.3683
-23.3698
-23.3787
-23.3951
-23.4194
-23.4517
-23.4921
-23.5407
-23.5973
-23.6614
-23.7323
-23.8089
-23.8897
-23.9729
-24.0561
-24.1369
-24.2126
-24.2805
-24.3382
-24.3835
-24.4147
-24.4306
-28.0747
-28.04
-27.9721
-27.8739
-27.7491
-27.6021
-27.4374
-27.2594
-27.0719
-26.8784
-26.6818
-26.4843
-26.2882
-26.0949
-25.906
-25.7226
-25.5457
-25.3759
-25.2137
-25.0594
-24.913
-24.7743
-24.6432
-24.5194
-24.4027
-24.2928
-24.1894
-24.0924
-24.0015
-23.9167
-23.8377
-23.7644
-23.6969
-23.635
-23.5789
-23.5287
-23.4843
-23.446
-23.4138
-23.3878
-23.3683
-23.3554
-23.3493
-23.3503
-23.3586
-23.3745
-23.3984
-23.4305
-23.4711
-23.5202
-23.5778
-23.6435
-23.7168
-23.7966
-23.8813
-23.9691
-24.0574
-24.1435
-24.2245
-24.2974
-24.3595
-24.4082
-24.4418
-24.4589
-28.1592
-28.1212
-28.0471
-27.9405
-27.8058
-27.6483
-27.4733
-27.2855
-27.0892
-26.888
-26.6847
-26.4816
-26.2806
-26.0832
-25.8909
-25.7048
-25.5258
-25.3545
-25.1915
-25.0367
-24.8902
-24.7517
-24.621
-24.4976
-24.3814
-24.2719
-24.1689
-24.0723
-23.9818
-23.8971
-23.8183
-23.7451
-23.6774
-23.6154
-23.5591
-23.5085
-23.4638
-23.4251
-23.3924
-23.366
-23.3459
-23.3324
-23.3256
-23.3258
-23.3334
-23.3487
-23.372
-23.4038
-23.4444
-23.494
-23.5528
-23.6205
-23.6967
-23.7804
-23.8702
-23.9638
-24.0587
-24.1518
-24.2398
-24.3192
-24.3869
-24.4401
-24.4769
-24.4955
-28.2617
-28.2195
-28.1375
-28.0201
-27.873
-27.7024
-27.5147
-27.3151
-27.1084
-26.8981
-26.6871
-26.4774
-26.2708
-26.0688
-25.8726
-25.6833
-25.5018
-25.3289
-25.1648
-25.0097
-24.8632
-24.7251
-24.5949
-24.4721
-24.3564
-24.2475
-24.145
-24.0489
-23.9587
-23.8744
-23.7957
-23.7225
-23.6548
-23.5926
-23.5359
-23.485
-23.4398
-23.4006
-23.3675
-23.3404
-23.3197
-23.3055
-23.2979
-23.2972
-23.3039
-23.3183
-23.3408
-23.3721
-23.4125
-23.4626
-23.5225
-23.5925
-23.6721
-23.7604
-23.8561
-23.9569
-24.0599
-24.1616
-24.2582
-24.3456
-24.4203
-24.4791
-24.5196
-24.5402
-28.3817
-28.3343
-28.2424
-28.1117
-27.9494
-27.7631
-27.5602
-27.347
-27.1283
-26.9079
-26.6883
-26.4715
-26.2588
-26.0515
-25.8509
-25.6581
-25.474
-25.2993
-25.1342
-24.9787
-24.8325
-24.6949
-24.5654
-24.4433
-24.3284
-24.2201
-24.1182
-24.0226
-23.9329
-23.8489
-23.7705
-23.6973
-23.6295
-23.567
-23.51
-23.4586
-23.4129
-23.3732
-23.3395
-23.3118
-23.2904
-23.2753
-23.2668
-23.2651
-23.2706
-23.2839
-23.3054
-23.3359
-23.376
-23.4263
-23.4874
-23.5596
-23.6428
-23.7364
-23.8389
-23.9481
-24.0606
-24.1726
-24.2795
-24.3766
-24.4596
-24.5249
-24.5698
-24.5927
-28.5193
-28.4653
-28.3613
-28.2144
-28.0338
-27.829
-27.6086
-27.3799
-27.148
-26.9166
-26.688
-26.4635
-26.2443
-26.0315
-25.8261
-25.6295
-25.4425
-25.2659
-25.0999
-24.9442
-24.7984
-24.6616
-24.533
-24.4119
-24.2978
-24.1902
-24.089
-23.994
-23.9049
-23.8213
-23.7431
-23.67
-23.6021
-23.5392
-23.4818
-23.4298
-23.3836
-23.3433
-23.309
-23.2807
-23.2585
-23.2424
-23.2328
-23.2299
-23.2342
-23.2461
-23.2664
-23.2958
-23.3352
-23.3854
-23.4474
-23.5218
-23.6089
-23.7081
-23.8183
-23.937
-24.0607
-24.1846
-24.3036
-24.412
-24.5047
-24.5775
-24.6275
-24.6529
-28.6745
-28.6125
-28.4937
-28.3274
-28.1251
-27.8987
-27.6584
-27.4125
-27.1664
-26.9236
-26.6856
-26.4533
-26.2274
-26.0087
-25.7983
-25.5975
-25.4074
-25.2289
-25.062
-24.9065
-24.7615
-24.6258
-24.4983
-24.3783
-24.2651
-24.1583
-24.0578
-23.9635
-23.875
-23.7919
-23.714
-23.641
-23.5729
-23.5097
-23.4516
-23.3991
-23.3523
-23.3114
-23.2764
-23.2474
-23.2244
-23.2074
-23.1967
-23.1924
-23.1952
-23.2055
-23.2242
-23.2522
-23.2905
-23.3404
-23.4029
-23.4793
-23.5702
-23.6754
-23.794
-23.9234
-24.0597
-24.1975
-24.3304
-24.4519
-24.5557
-24.637
-24.6927
-24.7208
-28.8478
-28.776
-28.6394
-28.4498
-28.2221
-27.9708
-27.7082
-27.4436
-27.1826
-26.928
-26.6807
-26.4407
-26.208
-25.9833
-25.7675
-25.5623
-25.3689
-25.1884
-25.0209
-24.8658
-24.7219
-24.5877
-24.4617
-24.3429
-24.2307
-24.1248
-24.025
-23.9314
-23.8437
-23.7612
-23.6837
-23.6108
-23.5424
-23.4787
-23.42
-23.3668
-23.3193
-23.2778
-23.2422
-23.2126
-23.1887
-23.1707
-23.1587
-23.153
-23.154
-23.1625
-23.1793
-23.2055
-23.2424
-23.2913
-23.354
-23.432
-23.5265
-23.638
-23.7655
-23.9067
-24.0573
-24.2108
-24.3599
-24.4963
-24.6127
-24.7034
-24.7652
-24.7963
-29.0398
-28.9563
-28.7981
-28.5809
-28.3234
-28.0437
-27.7565
-27.4718
-27.1955
-26.9294
-26.6732
-26.4257
-26.1864
-25.9554
-25.7339
-25.5239
-25.3271
-25.1446
-24.9767
-24.8224
-24.6802
-24.5479
-24.4237
-24.3063
-24.1951
-24.09
-23.991
-23.8982
-23.8113
-23.7296
-23.6525
-23.5797
-23.5109
-23.4466
-23.3871
-23.3331
-23.285
-23.2428
-23.2067
-23.1764
-23.1518
-23.1328
-23.1194
-23.1121
-23.1112
-23.1177
-23.1323
-23.1563
-23.1911
-23.2386
-23.3008
-23.3799
-23.4778
-23.5954
-23.7325
-23.8867
-24.0531
-24.2245
-24.392
-24.5454
-24.6759
-24.7769
-24.8451
-24.8792
-29.2515
-29.1537
-28.9697
-28.7197
-28.4277
-28.1159
-27.8016
-27.4959
-27.2043
-26.9272
-26.6628
-26.4085
-26.1626
-25.9252
-25.6977
-25.4824
-25.2819
-25.0975
-24.9295
-24.7766
-24.6366
-24.5067
-24.3846
-24.2688
-24.1586
-24.0542
-23.9559
-23.864
-23.778
-23.6973
-23.6208
-23.548
-23.4789
-23.4138
-23.3534
-23.2985
-23.2495
-23.2068
-23.1702
-23.1394
-23.114
-23.0939
-23.0792
-23.0701
-23.0672
-23.0713
-23.0835
-23.1049
-23.1372
-23.1826
-23.2436
-23.3231
-23.4238
-23.5475
-23.6945
-23.8626
-24.0467
-24.2383
-24.4266
-24.5994
-24.7455
-24.8575
-24.9323
-24.9694
-29.4841
-29.369
-29.1541
-28.8654
-28.5334
-28.1857
-27.8421
-27.5146
-27.208
-26.9211
-26.6497
-26.3891
-26.1371
-25.8932
-25.659
-25.438
-25.2335
-25.0472
-24.8794
-24.7284
-24.5914
-24.4646
-24.345
-24.2308
-24.1216
-24.0177
-23.92
-23.829
-23.7443
-23.6646
-23.5888
-23.5161
-23.4465
-23.3804
-23.3189
-23.263
-23.2133
-23.17
-23.1329
-23.1017
-23.0757
-23.0546
-23.0384
-23.0275
-23.0224
-23.024
-23.0333
-23.0517
-23.081
-23.1235
-23.1825
-23.2617
-23.3645
-23.4939
-23.651
-23.8341
-24.0376
-24.2518
-24.4639
-24.6587
-24.822
-24.9455
-25.0266
-25.0664
-29.7389
-29.6029
-29.3511
-29.0169
-28.639
-28.2511
-27.8761
-27.5264
-27.2058
-26.9108
-26.6338
-26.3681
-26.1101
-25.8595
-25.6182
-25.3907
-25.1818
-24.9936
-24.8264
-24.6782
-24.545
-24.422
-24.3052
-24.1928
-24.0844
-23.9807
-23.8833
-23.7934
-23.7102
-23.632
-23.557
-23.4844
-23.4141
-23.3468
-23.2839
-23.2268
-23.1763
-23.1325
-23.0952
-23.0637
-23.0372
-23.0151
-22.9974
-22.9846
-22.9771
-22.976
-22.9822
-22.9972
-23.0229
-23.0618
-23.1179
-23.1956
-23.2997
-23.4343
-23.6015
-23.8005
-24.0252
-24.2647
-24.5038
-24.7235
-24.9058
-25.0409
-25.1279
-25.1698
-30.0176
-29.8564
-29.5608
-29.173
-28.7424
-28.3104
-27.9021
-27.53
-27.1971
-26.8961
-26.6157
-26.3458
-26.0823
-25.8248
-25.5753
-25.3405
-25.1268
-24.9368
-24.7706
-24.6261
-24.4978
-24.3793
-24.2657
-24.155
-24.0472
-23.9434
-23.8461
-23.7572
-23.6759
-23.5995
-23.5256
-23.453
-23.382
-23.3132
-23.2486
-23.1901
-23.1387
-23.0945
-23.0572
-23.0256
-22.9987
-22.9757
-22.9565
-22.9416
-22.9317
-22.9276
-22.9306
-22.9419
-22.9634
-22.9979
-23.0499
-23.125
-23.2293
-23.3682
-23.5454
-23.7612
-24.009
-24.2766
-24.5465
-24.7946
-24.9975
-25.144
-25.2357
-25.279
-30.3221
-30.1304
-29.7829
-29.3324
-28.8415
-28.3615
-27.9183
-27.5242
-27.1811
-26.8771
-26.5957
-26.3229
-26.0542
-25.7894
-25.5307
-25.2873
-25.0684
-24.8766
-24.7119
-24.5721
-24.45
-24.3371
-24.227
-24.118
-24.0105
-23.9059
-23.8082
-23.7206
-23.6416
-23.5676
-23.4948
-23.4224
-23.3504
-23.2796
-23.2129
-23.153
-23.1007
-23.0562
-23.019
-22.9877
-22.9606
-22.9366
-22.9159
-22.8989
-22.8864
-22.8793
-22.8787
-22.886
-22.9028
-22.9321
-22.979
-23.0502
-23.1534
-23.2955
-23.4822
-23.7156
-23.9884
-24.2868
-24.5918
-24.8728
-25.0979
-25.255
-25.3498
-25.3932
-30.6546
-30.4259
-30.0176
-29.4936
-28.934
-28.4024
-27.9231
-27.5076
-27.1573
-26.854
-26.5745
-26.2999
-26.0263
-25.7542
-25.4846
-25.2309
-25.0065
-24.8129
-24.6503
-24.5165
-24.4021
-24.296
-24.1896
-24.082
-23.9745
-23.8682
-23.7695
-23.6834
-23.6075
-23.5364
-23.465
-23.3926
-23.3195
-23.2463
-23.177
-23.1154
-23.0623
-23.0175
-22.9808
-22.9501
-22.9231
-22.8982
-22.8758
-22.8566
-22.8415
-22.8312
-22.827
-22.8301
-22.8418
-22.865
-22.9054
-22.9712
-23.0719
-23.2158
-23.4112
-23.6629
-23.9627
-24.2948
-24.6399
-24.9591
-25.2081
-25.3741
-25.4694
-25.5114
-31.0175
-30.744
-30.2647
-29.6547
-29.0169
-28.4311
-27.915
-27.4789
-27.1252
-26.8271
-26.5532
-26.2776
-25.9992
-25.7199
-25.4373
-25.1711
-24.9411
-24.7458
-24.5854
-24.4593
-24.3545
-24.2564
-24.1537
-24.0473
-23.9395
-23.8305
-23.7297
-23.6455
-23.5737
-23.5064
-23.4365
-23.3639
-23.2897
-23.2134
-23.1408
-23.0776
-23.0235
-22.9786
-22.9428
-22.9131
-22.8864
-22.8606
-22.8364
-22.8151
-22.7971
-22.7836
-22.7757
-22.7745
-22.7808
-22.797
-22.8296
-22.8884
-22.985
-23.1291
-23.3318
-23.6026
-23.9313
-24.2994
-24.6905
-25.0549
-25.3294
-25.5015
-25.5939
-25.6323
-31.4139
-31.0853
-30.5246
-29.8138
-29.0869
-28.4459
-27.8929
-27.4364
-27.0844
-26.7969
-26.533
-26.2567
-25.9733
-25.6875
-25.3889
-25.1072
-24.8721
-24.6752
-24.517
-24.4006
-24.3075
-24.2192
-24.1199
-24.0142
-23.9061
-23.7926
-23.6884
-23.6068
-23.5402
-23.4779
-23.4093
-23.3365
-23.2613
-23.181
-23.1041
-23.0394
-22.9845
-22.9394
-22.905
-22.8768
-22.8508
-22.824
-22.7979
-22.7744
-22.7536
-22.7367
-22.7251
-22.7196
-22.7203
-22.7285
-22.752
-22.8019
-22.8929
-23.0351
-23.2432
-23.5342
-23.8937
-24.2993
-24.7434
-25.1623
-25.4633
-25.6374
-25.7222
-25.7545
-31.8471
-31.4499
-30.7979
-29.9686
-29.1397
-28.4456
-27.8558
-27.3786
-27.0348
-26.764
-26.5156
-26.2377
-25.9489
-25.6584
-25.3397
-25.0383
-24.7997
-24.6011
-24.4445
-24.3405
-24.2616
-24.1852
-24.0884
-23.9827
-23.8749
-23.7547
-23.6451
-23.5671
-23.5073
-23.4515
-23.3838
-23.3105
-23.2348
-23.1491
-23.0668
-23.0009
-22.9453
-22.8999
-22.8676
-22.8415
-22.8166
-22.7885
-22.7603
-22.7347
-22.7109
-22.6907
-22.6753
-22.6657
-22.6608
-22.6602
-22.673
-22.7121
-22.796
-22.934
-23.1445
-23.457
-23.8498
-24.2925
-24.7977
-25.2841
-25.612
-25.7818
-25.8532
-25.8765
-32.3211
-31.8371
-31.086
-30.1165
-29.1699
-28.4294
-27.8033
-27.3031
-26.9761
-26.7291
-26.5034
-26.2211
-25.9257
-25.6348
-25.29
-24.9629
-24.7242
-24.5239
-24.3671
-24.279
-24.2171
-24.1556
-24.0595
-23.9527
-23.8466
-23.7167
-23.5986
-23.5262
-23.4751
-23.4277
-23.3601
-23.2857
-23.2106
-23.1179
-23.0284
-22.9624
-22.906
-22.86
-22.8305
-22.8072
-22.7841
-22.7544
-22.7237
-22.6961
-22.6693
-22.6456
-22.6265
-22.6131
-22.6029
-22.5925
-22.5932
-22.6191
-22.6948
-22.8261
-23.0344
-23.3708
-23.8
-24.2762
-24.8523
-25.4239
-25.7776
-25.9343
-25.9855
-25.9963
-32.8412
-32.2443
-31.3915
-30.255
-29.1706
-28.3982
-27.7356
-27.2071
-26.909
-26.6926
-26.4993
-26.207
-25.9029
-25.6194
-25.2399
-24.8786
-24.6466
-24.4438
-24.2835
-24.2165
-24.1744
-24.1319
-24.0332
-23.9238
-23.8227
-23.6786
-23.5478
-23.4839
-23.4435
-23.4076
-23.3381
-23.262
-23.1897
-23.0874
-22.9883
-22.924
-22.8667
-22.8192
-22.7941
-22.7741
-22.7538
-22.7216
-22.688
-22.6589
-22.6288
-22.6016
-22.5789
-22.5622
-22.5472
-22.526
-22.5132
-22.5231
-22.5901
-22.7119
-22.9113
-23.2753
-23.7455
-24.2467
-24.9048
-25.5873
-25.9627
-26.0945
-26.1173
-26.1122
-33.4136
-32.6661
-31.7194
-30.3808
-29.132
-28.3543
-27.6539
-27.0863
-26.8344
-26.6549
-26.5078
-26.1949
-25.8785
-25.6167
-25.1895
-24.7816
-24.5685
-24.3618
-24.1918
-24.1534
-24.1336
-24.1162
-24.0093
-23.895
-23.805
-23.6403
-23.4906
-23.4404
-23.4127
-23.3924
-23.3177
-23.2386
-23.1734
-23.0577
-22.9453
-22.8862
-22.8278
-22.7772
-22.7583
-22.7423
-22.726
-22.6902
-22.6531
-22.6233
-22.5895
-22.5588
-22.5323
-22.513
-22.4946
-22.4611
-22.4335
-22.4238
-22.4828
-22.5926
-22.7725
-23.1703
-23.6891
-24.1987
-24.9517
-25.7819
-26.1703
-26.2612
-26.2466
-26.2222
-34.0472
-33.0928
-32.0779
-30.4908
-29.0412
-28.3033
-27.5603
-26.9345
-26.7546
-26.615
-26.5348
-26.1838
-25.8489
-25.633
-25.1392
-24.6665
-24.493
-24.279
-24.0889
-24.0909
-24.0941
-24.1113
-23.9873
-23.8647
-23.7966
-23.6018
-23.4244
-23.3961
-23.3822
-23.3841
-23.2987
-23.2146
-23.1634
-23.0287
-22.898
-22.8498
-22.7894
-22.7333
-22.7237
-22.7118
-22.7015
-22.6603
-22.6188
-22.5895
-22.5514
-22.5171
-22.4867
-22.4657
-22.4458
-22.3981
-22.355
-22.3209
-22.3742
-22.4703
-22.6146
-23.0557
-23.636
-24.1246
-24.9877
-26.0185
-26.4028
-26.4328
-26.3712
-26.3245
-34.7534
-33.5077
-32.4808
-30.5816
-28.8796
-28.2547
-27.4583
-26.7425
-26.6739
-26.5707
-26.589
-26.1716
-25.8081
-25.6777
-25.0887
-24.5251
-24.4249
-24.1973
-23.9703
-24.0309
-24.0549
-24.1215
-23.966
-23.8299
-23.8018
-23.5632
-23.3454
-23.3521
-23.3513
-23.3851
-23.2803
-23.1882
-23.1625
-23.0005
-22.8441
-22.8162
-22.7522
-22.6864
-22.6906
-22.6825
-22.6813
-22.6315
-22.5846
-22.558
-22.5145
-22.4768
-22.4421
-22.4202
-22.402
-22.3373
-22.2789
-22.2131
-22.2656
-22.348
-22.4323
-22.9314
-23.5945
-24.0144
-25.0046
-26.3125
-26.6624
-26.6065
-26.4887
-26.4173
-35.5486
-33.884
-32.9497
-30.6495
-28.6218
-28.2245
-27.3529
-26.4968
-26.5999
-26.5168
-26.6826
-26.1547
-25.747
-25.7642
-25.038
-24.3454
-24.3719
-24.1189
-23.8292
-23.9769
-24.0134
-24.1524
-23.9438
-23.7863
-23.8269
-23.5242
-23.2483
-23.3106
-23.3185
-23.3994
-23.2615
-23.1565
-23.1746
-22.973
-22.7801
-22.7874
-22.7168
-22.6347
-22.6602
-22.6536
-22.6666
-22.6037
-22.5499
-22.5295
-22.4787
-22.4379
-22.3982
-22.3763
-22.3645
-22.2786
-22.2068
-22.0986
-22.1588
-22.2308
-22.2181
-22.7967
-23.578
-23.8542
-24.9903
-26.6854
-26.9498
-26.7786
-26.5966
-26.4991
-36.4554
-34.1806
-33.5177
-30.6906
-28.2324
-28.2367
-27.2506
-26.1778
-26.5452
-26.4436
-26.8329
-26.1282
-25.6513
-25.9121
-24.9866
-24.1105
-24.3455
-24.0472
-23.656
-23.9348
-23.9647
-24.2124
-23.9181
-23.7273
-23.8809
-23.4845
-23.1258
-23.2757
-23.2807
-23.4322
-23.2407
-23.1154
-23.2055
-22.946
-22.7014
-22.7667
-22.6839
-22.5759
-22.6338
-22.6244
-22.6591
-22.5764
-22.5138
-22.5048
-22.4434
-22.4006
-22.3545
-22.3335
-22.3351
-22.2211
-22.1409
-21.9743
-22.0556
-22.1259
-21.9614
-22.65
-23.6061
-23.6256
-24.9277
-27.1676
-27.263
-26.9444
-26.6924
-26.5686
-37.5054
-34.3357
-34.2344
-30.7001
-27.6625
-28.3275
-27.1596
-25.7571
-26.5301
-26.3344
-27.0642
-26.0846
-25.5009
-26.1486
-24.9335
-23.7968
-24.3628
-23.986
-23.4366
-23.9145
-23.9008
-24.3133
-23.8852
-23.6434
-23.9766
-23.4436
-22.9678
-23.2538
-23.2329
-23.4911
-23.2154
-23.0589
-23.263
-22.9189
-22.6012
-22.7587
-22.6544
-22.5063
-22.614
-22.5929
-22.6614
-22.5486
-22.4749
-22.4854
-22.4083
-22.3651
-22.3108
-22.2907
-22.3162
-22.1635
-22.0848
-21.8355
-21.9577
-22.0442
-21.6474
-22.4882
-23.7079
-23.3042
-24.7927
-27.8006
-27.5962
-27.0976
-26.7736
-26.625
-38.7423
-34.26
-35.1711
-30.6728
-26.8459
-28.5481
-27.0896
-25.1954
-26.5864
-26.1623
-27.4108
-26.0139
-25.2668
-26.5113
-24.8769
-23.3719
-24.4483
-23.94
-23.1515
-23.9308
-23.8086
-24.4713
-23.8402
-23.521
-24.1315
-23.4002
-22.7608
-23.255
-23.1668
-23.5864
-23.1825
-22.9785
-23.3581
-22.8909
-22.4705
-22.7701
-22.6293
-22.4209
-22.6042
-22.5562
-22.6768
-22.5191
-22.4315
-22.4732
-22.3721
-22.3319
-22.2663
-22.2464
-22.3111
-22.1029
-22.0435
-21.6754
-21.8666
-22.0013
-21.2561
-22.3055
-23.9239
-22.8577
-24.5523
-28.6413
-27.9367
-27.2312
-26.8381
-26.6677
-40.2261
-33.8269
-36.4293
-30.6015
-25.6942
-28.9705
-27.0518
-24.4378
-26.7614
-25.886
-27.9194
-25.9028
-24.9096
-27.051
-24.814
-22.7923
-24.6359
-23.9146
-22.7735
-24.0065
-23.6678
-24.7089
-23.776
-23.3415
-24.3693
-23.3522
-22.4865
-23.2949
-23.0693
-23.7325
-23.1374
-22.8621
-23.5055
-22.8608
-22.2969
-22.8101
-22.6095
-22.3127
-22.6101
-22.5095
-22.7098
-22.4858
-22.381
-22.4708
-22.333
-22.3014
-22.2203
-22.1979
-22.3241
-22.0346
-22.0242
-21.4845
-21.7828
-22.0186
-20.7612
-22.0922
-24.3097
-22.2452
-24.1615
-29.7665
-28.2626
-27.3377
-26.8844
-26.6964
-42.0378
-32.8617
-38.1491
-30.4766
-24.0905
-29.6925
-27.0581
-23.4103
-27.1241
-25.4437
-28.6538
-25.7335
-24.3756
-27.8353
-24.7404
-22.0007
-24.9721
-23.9157
-22.2661
-24.1745
-23.4483
-25.0568
-23.6836
-23.0797
-24.7217
-23.2967
-22.1209
-23.3958
-22.9212
-23.9488
-23.0741
-22.694
-23.7249
-22.8265
-22.0641
-22.8915
-22.5958
-22.172
-22.6393
-22.4457
-22.7666
-22.446
-22.3199
-22.4816
-22.2883
-22.2745
-22.1719
-22.1417
-22.3611
-21.9513
-22.0373
-21.2496
-21.7058
-22.1257
-20.1281
-21.8331
-24.9401
-21.4141
-23.5607
-31.2776
-28.5385
-27.4096
-26.9112
-26.7114
-44.2855
-31.1286
-40.5203
-30.285
-21.8843
-30.8444
-27.1211
-22.0148
-27.7729
-24.7471
-29.7001
-25.4841
-23.5949
-28.9531
-24.6502
-20.9233
-25.5194
-23.9502
-21.5813
-24.4828
-23.1079
-25.5567
-23.5523
-22.7035
-25.2309
-23.2296
-21.6339
-23.5902
-22.6957
-24.2625
-22.986
-22.4542
-24.043
-22.7861
-21.7524
-23.0324
-22.59
-21.9877
-22.7044
-22.356
-22.8572
-22.3971
-22.2456
-22.512
-22.2358
-22.2539
-22.1217
-22.0741
-22.432
-21.8442
-22.0989
-20.9555
-21.6343
-22.3637
-19.315
-21.507
-25.9149
-20.301
-22.674
-33.3095
-28.713
-27.4429
-26.9202
-26.7148
)
;

boundaryField
{
    left
    {
        type            calculated;
        value           nonuniform List<scalar> 
32
(
-27.9397
-27.9634
-28.0091
-28.0747
-28.1592
-28.2617
-28.3817
-28.5193
-28.6745
-28.8478
-29.0398
-29.2515
-29.4841
-29.7389
-30.0176
-30.3221
-30.6546
-31.0175
-31.4139
-31.8471
-32.3211
-32.8412
-33.4136
-34.0472
-34.7534
-35.5486
-36.4554
-37.5054
-38.7423
-40.2261
-42.0378
-44.2855
)
;
    }
    right
    {
        type            calculated;
        value           nonuniform List<scalar> 
32
(
-24.4009
-24.411
-24.4306
-24.4589
-24.4955
-24.5402
-24.5927
-24.6529
-24.7208
-24.7963
-24.8792
-24.9694
-25.0664
-25.1698
-25.279
-25.3932
-25.5114
-25.6323
-25.7545
-25.8765
-25.9963
-26.1122
-26.2222
-26.3245
-26.4173
-26.4991
-26.5686
-26.625
-26.6677
-26.6964
-26.7114
-26.7148
)
;
    }
    interface
    {
        type            calculated;
        value           nonuniform List<scalar> 
64
(
-45.5337
-30.0363
-41.8959
-30.1706
-20.6094
-31.5464
-27.1684
-21.2111
-28.1832
-24.3223
-30.3134
-25.3364
-23.1331
-29.608
-24.6001
-20.3029
-25.8548
-23.9767
-21.1879
-24.679
-22.9014
-25.8508
-23.4754
-22.4824
-25.5308
-23.1928
-21.3559
-23.7157
-22.5597
-24.4477
-22.9349
-22.3138
-24.2307
-22.7643
-21.5743
-23.1205
-22.5895
-21.8832
-22.7479
-22.3036
-22.9124
-22.3703
-22.2048
-22.5332
-22.2073
-22.2457
-22.0964
-22.0371
-22.4775
-21.7836
-22.1444
-20.7916
-21.6
-22.5215
-18.8578
-21.3242
-26.5028
-19.6654
-22.1487
-34.4749
-28.7675
-27.4499
-26.9207
-26.7142
)
;
    }
    bottom
    {
        type            calculated;
        value           nonuniform List<scalar> 
64
(
-27.9335
-27.9039
-27.8456
-27.7606
-27.6515
-27.5215
-27.3738
-27.2121
-27.0397
-26.8596
-26.6746
-26.4873
-26.2997
-26.1137
-25.9308
-25.7523
-25.5791
-25.412
-25.2517
-25.0983
-24.9522
-24.8134
-24.6818
-24.5574
-24.4399
-24.3293
-24.2252
-24.1276
-24.0362
-23.951
-23.8717
-23.7984
-23.731
-23.6694
-23.6137
-23.564
-23.5202
-23.4826
-23.4512
-23.4261
-23.4076
-23.3957
-23.3908
-23.3929
-23.4024
-23.4193
-23.444
-23.4764
-23.5166
-23.5645
-23.6198
-23.6819
-23.7499
-23.8228
-23.8991
-23.977
-24.0544
-24.1291
-24.1988
-24.2611
-24.3139
-24.3552
-24.3837
-24.3982
)
;
    }
    defaultFaces
    {
        type            empty;
    }
}


// ************************************************************************* //
