/*--------------------------------*- C++ -*----------------------------------*\
| =========                 |                                                 |
| \\      /  F ield         | OpenFOAM: The Open Source CFD Toolbox           |
|  \\    /   O peration     | Version:  5.x                                   |
|   \\  /    A nd           | Web:      www.OpenFOAM.org                      |
|    \\/     M anipulation  |                                                 |
\*---------------------------------------------------------------------------*/
FoamFile
{
    version     2.0;
    format      ascii;
    class       volScalarField;
    location    "0.6";
    object      T;
}
// * * * * * * * * * * * * * * * * * * * * * * * * * * * * * * * * * * * * * //

dimensions      [0 0 0 1 0 0 0];

internalField   nonuniform List<scalar> 
2048
(
9.79932
9.79953
9.79995
9.80056
9.80134
9.80228
9.80334
9.8045
9.80574
9.80703
9.80836
9.80971
9.81106
9.81239
9.81371
9.81499
9.81623
9.81743
9.81859
9.81969
9.82074
9.82173
9.82268
9.82357
9.82442
9.82521
9.82596
9.82666
9.82732
9.82793
9.8285
9.82903
9.82951
9.82995
9.83035
9.83071
9.83102
9.83129
9.83152
9.8317
9.83183
9.83192
9.83195
9.83194
9.83187
9.83175
9.83157
9.83134
9.83105
9.83071
9.83031
9.82986
9.82937
9.82885
9.8283
9.82774
9.82719
9.82665
9.82615
9.8257
9.82532
9.82503
9.82482
9.82472
9.40656
9.40719
9.40844
9.41026
9.4126
9.41538
9.41854
9.42199
9.42567
9.42951
9.43346
9.43745
9.44144
9.4454
9.4493
9.45309
9.45678
9.46033
9.46374
9.46699
9.4701
9.47305
9.47584
9.47848
9.48098
9.48333
9.48554
9.48761
9.48955
9.49136
9.49304
9.4946
9.49603
9.49734
9.49852
9.49958
9.50051
9.50131
9.50198
9.50251
9.5029
9.50316
9.50326
9.50322
9.50302
9.50266
9.50214
9.50145
9.5006
9.49958
9.4984
9.49708
9.49562
9.49407
9.49244
9.49077
9.48911
9.48751
9.48602
9.48468
9.48355
9.48266
9.48205
9.48174
9.0305
9.03156
9.03363
9.03665
9.04052
9.04513
9.05035
9.05605
9.06212
9.06844
9.07492
9.08148
9.08803
9.09453
9.1009
9.10712
9.11315
9.11896
9.12454
9.12986
9.13493
9.13974
9.1443
9.14861
9.15268
9.15652
9.16012
9.1635
9.16667
9.16962
9.17237
9.17491
9.17725
9.17939
9.18132
9.18305
9.18457
9.18588
9.18697
9.18785
9.1885
9.18891
9.18909
9.18902
9.1887
9.18812
9.18727
9.18615
9.18475
9.18308
9.18115
9.17897
9.17658
9.17401
9.17132
9.16856
9.16582
9.16316
9.16068
9.15846
9.15658
9.1551
9.15408
9.15356
8.67017
8.67165
8.67457
8.6788
8.68422
8.69066
8.69793
8.70587
8.71429
8.72306
8.73203
8.74109
8.75014
8.75909
8.76788
8.77644
8.78473
8.79271
8.80036
8.80767
8.81462
8.82121
8.82746
8.83337
8.83894
8.84419
8.84912
8.85375
8.85809
8.86213
8.8659
8.86938
8.87259
8.87552
8.87817
8.88054
8.88263
8.88443
8.88594
8.88714
8.88804
8.88862
8.88887
8.88879
8.88835
8.88756
8.8864
8.88486
8.88295
8.88065
8.87798
8.87498
8.87166
8.86809
8.86434
8.86049
8.85664
8.85292
8.84944
8.84631
8.84367
8.84159
8.84016
8.83943
8.32467
8.3266
8.33038
8.33587
8.34288
8.35118
8.36053
8.37071
8.38148
8.39267
8.4041
8.41561
8.4271
8.43845
8.44958
8.46041
8.47088
8.48096
8.49061
8.49982
8.50857
8.51687
8.52472
8.53215
8.53915
8.54575
8.55195
8.55777
8.56322
8.56831
8.57304
8.57743
8.58147
8.58516
8.5885
8.59149
8.59413
8.5964
8.5983
8.59983
8.60097
8.60171
8.60204
8.60195
8.60142
8.60044
8.59899
8.59705
8.59464
8.59173
8.58835
8.58453
8.58029
8.57572
8.5709
8.56594
8.56097
8.55615
8.55164
8.54758
8.54414
8.54144
8.53958
8.53863
7.99319
7.99558
8.00027
8.00707
8.01573
8.02595
8.03743
8.04987
8.06301
8.07661
8.09047
8.10441
8.11829
8.13199
8.1454
8.15843
8.17103
8.18313
8.1947
8.20572
8.21619
8.22612
8.23551
8.24438
8.25275
8.26063
8.26804
8.275
8.28151
8.28759
8.29325
8.29849
8.30332
8.30774
8.31175
8.31534
8.3185
8.32124
8.32353
8.32536
8.32674
8.32765
8.32806
8.32797
8.32736
8.3262
8.32448
8.32218
8.31928
8.31579
8.31172
8.30708
8.30193
8.29635
8.29044
8.28434
8.27822
8.27226
8.26666
8.26163
8.25736
8.254
8.25169
8.25051
7.67495
7.67784
7.6835
7.69169
7.70207
7.71429
7.72796
7.74272
7.75825
7.77427
7.79054
7.80688
7.82311
7.83911
7.85474
7.86993
7.88457
7.89862
7.91205
7.92482
7.93693
7.94841
7.95926
7.96951
7.97917
7.98827
7.99683
8.00487
8.01239
8.01942
8.02596
8.03202
8.03762
8.04274
8.04738
8.05155
8.05522
8.0584
8.06106
8.06321
8.06482
8.06589
8.0664
8.06632
8.06564
8.06432
8.06235
8.0597
8.05636
8.0523
8.04754
8.04211
8.03605
8.02945
8.02242
8.01515
8.00782
8.00066
7.99393
7.98787
7.98271
7.97866
7.97587
7.97445
7.36924
7.37268
7.37938
7.38905
7.40127
7.41558
7.43152
7.44865
7.46659
7.48504
7.50372
7.52243
7.54098
7.55923
7.57705
7.59432
7.61096
7.62691
7.64211
7.65655
7.67024
7.68319
7.69543
7.70698
7.71788
7.72814
7.73779
7.74685
7.75533
7.76326
7.77064
7.77749
7.78382
7.78961
7.79487
7.79959
7.80376
7.80736
7.81039
7.81284
7.81469
7.81593
7.81653
7.81648
7.81574
7.81429
7.81209
7.80912
7.80535
7.80075
7.79533
7.78911
7.78213
7.77449
7.76633
7.75783
7.74924
7.74082
7.73288
7.72572
7.71962
7.71483
7.71153
7.70985
7.0754
7.07943
7.08727
7.09854
7.11272
7.12924
7.14753
7.1671
7.1875
7.20838
7.22946
7.25051
7.27135
7.29182
7.31177
7.33109
7.34967
7.36743
7.38434
7.40039
7.41557
7.42992
7.44348
7.45627
7.46833
7.4797
7.49038
7.50042
7.50981
7.51859
7.52678
7.53438
7.54141
7.54785
7.5537
7.55896
7.5636
7.56762
7.57101
7.57375
7.57584
7.57724
7.57795
7.57793
7.57716
7.57559
7.5732
7.56993
7.56575
7.56064
7.55458
7.54758
7.53969
7.531
7.52167
7.5119
7.50197
7.49221
7.48298
7.47464
7.46754
7.46196
7.45812
7.45616
6.7928
6.79748
6.80657
6.81958
6.83586
6.85471
6.87548
6.89755
6.92044
6.94376
6.96722
6.9906
7.01369
7.03634
7.05839
7.0797
7.10016
7.11969
7.13824
7.15581
7.17242
7.1881
7.2029
7.21686
7.23004
7.24244
7.25411
7.26507
7.27533
7.28493
7.29388
7.3022
7.30989
7.31696
7.32338
7.32916
7.33427
7.33869
7.34243
7.34546
7.34777
7.34935
7.35017
7.3502
7.34941
7.34775
7.34518
7.34164
7.3371
7.3315
7.32482
7.31706
7.30826
7.29851
7.28796
7.27687
7.26553
7.25435
7.24374
7.23414
7.22596
7.21953
7.21511
7.21287
6.52084
6.52624
6.53671
6.55162
6.57017
6.59151
6.61485
6.6395
6.66491
6.69069
6.71652
6.74218
6.7675
6.79229
6.81639
6.83965
6.86194
6.88317
6.9033
6.92233
6.94028
6.95721
6.97319
6.98827
7.00249
7.01589
7.02849
7.04032
7.05141
7.06178
7.07145
7.08046
7.0888
7.09646
7.10344
7.10972
7.11528
7.1201
7.12417
7.12748
7.13002
7.13177
7.13271
7.13281
7.13201
7.13028
7.12756
7.12379
7.11891
7.11285
7.10559
7.09709
7.08738
7.07655
7.06477
7.05229
7.03947
7.02676
7.01467
7.00371
6.99437
6.98705
6.98202
6.97947
6.25896
6.26517
6.27717
6.29416
6.31517
6.33917
6.3652
6.3925
6.42047
6.44868
6.47686
6.50478
6.53227
6.55916
6.58528
6.61045
6.63453
6.65741
6.67905
6.69946
6.71868
6.73679
6.75388
6.77
6.78522
6.79956
6.81305
6.82571
6.83757
6.84867
6.85904
6.8687
6.87765
6.8859
6.89342
6.90019
6.90618
6.91138
6.91578
6.91937
6.92213
6.92406
6.92513
6.92529
6.92451
6.92274
6.9199
6.91592
6.91073
6.90426
6.89644
6.88723
6.87663
6.86471
6.85165
6.83772
6.82333
6.809
6.79531
6.7829
6.77232
6.76404
6.75837
6.7555
6.00663
6.01375
6.02745
6.04675
6.07042
6.09724
6.1261
6.15612
6.18666
6.2173
6.24778
6.27791
6.30755
6.33651
6.36461
6.39165
6.41747
6.44194
6.46503
6.48674
6.50715
6.52637
6.54449
6.56161
6.57777
6.593
6.60734
6.62078
6.63338
6.64517
6.65619
6.66647
6.67602
6.68484
6.69288
6.70012
6.70654
6.71211
6.71683
6.72068
6.72366
6.72577
6.72697
6.72722
6.72647
6.72467
6.72174
6.71759
6.71214
6.70529
6.69695
6.68705
6.67557
6.66257
6.6482
6.63277
6.61672
6.60065
6.58525
6.57126
6.55935
6.55006
6.54372
6.54052
5.76334
5.77148
5.78709
5.80892
5.8355
5.86534
5.89714
5.92995
5.96306
5.9961
6.02883
6.06114
6.09287
6.12386
6.15391
6.18279
6.21031
6.23632
6.26079
6.28373
6.30526
6.3255
6.3446
6.36264
6.37969
6.39578
6.41092
6.42511
6.43839
6.45083
6.46247
6.47335
6.48348
6.49284
6.50139
6.5091
6.51593
6.52186
6.52688
6.53099
6.53419
6.53647
6.53781
6.53816
6.53747
6.53566
6.53266
6.52838
6.5227
6.51551
6.5067
6.49615
6.48382
6.46974
6.45403
6.43703
6.41923
6.4013
6.38405
6.36836
6.35504
6.34469
6.33766
6.33412
5.52859
5.5379
5.55563
5.58029
5.61004
5.64308
5.67796
5.7136
5.74929
5.78467
5.8196
5.85401
5.88779
5.92078
5.95276
5.98345
6.01263
6.04013
6.0659
6.09
6.11256
6.13375
6.15375
6.17267
6.19058
6.20748
6.22338
6.23827
6.2522
6.26525
6.27747
6.28893
6.29961
6.3095
6.31856
6.32672
6.33395
6.34022
6.34554
6.3499
6.35331
6.35577
6.35725
6.35771
6.35708
6.3553
6.35226
6.34787
6.34201
6.33453
6.32529
6.31414
6.30099
6.28583
6.26877
6.25014
6.23048
6.21056
6.19133
6.17381
6.15898
6.14752
6.13978
6.13591
5.30192
5.31254
5.33268
5.36047
5.39366
5.43013
5.46821
5.50672
5.54496
5.58262
5.61967
5.65612
5.6919
5.72685
5.76073
5.79322
5.82402
5.85296
5.87998
5.90514
5.92864
5.95071
5.97155
5.9913
6.01001
6.02769
6.04432
6.05988
6.07441
6.08803
6.1008
6.1128
6.12402
6.13444
6.14398
6.15259
6.16021
6.16682
6.17241
6.17701
6.18062
6.18326
6.18489
6.18547
6.18493
6.18319
6.18014
6.17568
6.16967
6.16195
6.15234
6.14064
6.12671
6.11048
6.09206
6.07174
6.05013
6.02809
6.0067
5.9872
5.97077
5.95817
5.94972
5.94552
5.08288
5.095
5.11784
5.14911
5.18606
5.22615
5.26755
5.30897
5.3497
5.38955
5.42862
5.46704
5.50477
5.54165
5.57743
5.6117
5.6441
5.67442
5.70261
5.72876
5.75311
5.77597
5.79759
5.81811
5.8376
5.85604
5.87337
5.88955
5.90465
5.91878
5.93208
5.94459
5.95633
5.96727
5.9773
5.98634
5.99434
6.00127
6.00713
6.01195
6.01576
6.01857
6.02036
6.02107
6.02063
6.01895
6.01592
6.01142
6.00531
5.9974
5.98747
5.97527
5.96061
5.94335
5.92355
5.9015
5.87783
5.85353
5.82981
5.80817
5.79004
5.77627
5.76714
5.76262
4.87104
4.88487
4.91074
4.94588
4.98693
5.03086
5.07567
5.12002
5.16318
5.2051
5.24608
5.28639
5.32602
5.36479
5.40246
5.43852
5.47247
5.50413
5.53344
5.56048
5.58559
5.60915
5.63149
5.65275
5.67297
5.69215
5.71017
5.72693
5.74254
5.75715
5.77093
5.78395
5.79619
5.80764
5.81816
5.82763
5.836
5.84323
5.84934
5.85437
5.85837
5.86135
5.8633
5.86415
5.86382
5.86222
5.85923
5.85473
5.84855
5.84051
5.83032
5.8177
5.80235
5.7841
5.76293
5.73908
5.71326
5.68656
5.66032
5.63635
5.61642
5.60148
5.5917
5.5869
4.66597
4.68176
4.71103
4.75048
4.79599
4.84396
4.89228
4.93957
4.98505
5.02891
5.07166
5.11379
5.15526
5.19589
5.23546
5.27332
5.3088
5.34175
5.3721
5.39995
5.42571
5.44988
5.47288
5.49484
5.51577
5.53568
5.55437
5.57168
5.58774
5.60278
5.61702
5.63051
5.64325
5.6552
5.66621
5.67611
5.68483
5.69236
5.69871
5.70392
5.70809
5.71125
5.71336
5.71436
5.71416
5.71266
5.70974
5.70525
5.69905
5.69093
5.68056
5.66757
5.65161
5.63241
5.60989
5.58419
5.55612
5.52687
5.49791
5.47137
5.44955
5.43347
5.4231
5.41807
4.46727
4.48531
4.51838
4.56264
4.61302
4.66518
4.7171
4.76732
4.815
4.86062
4.90499
4.94886
4.99212
5.03457
5.07608
5.11575
5.15273
5.18692
5.21826
5.2468
5.27311
5.2978
5.32142
5.34404
5.36565
5.38629
5.40564
5.42346
5.43992
5.45533
5.47
5.48395
5.49716
5.50964
5.52115
5.53145
5.54052
5.54834
5.55489
5.56028
5.56461
5.56794
5.57022
5.57137
5.57131
5.56993
5.56709
5.56266
5.55647
5.54832
5.53783
5.52456
5.50805
5.48797
5.46413
5.43654
5.4061
5.37419
5.34225
5.3129
5.2891
5.27193
5.26105
5.25584
4.27454
4.2952
4.33247
4.3821
4.43779
4.49428
4.54984
4.60299
4.65271
4.6999
4.74571
4.79125
4.83627
4.88047
4.92396
4.96551
5.00393
5.03932
5.07159
5.10072
5.12746
5.15257
5.17676
5.20002
5.22227
5.24366
5.26369
5.28197
5.29876
5.31449
5.32956
5.34395
5.35762
5.37063
5.38265
5.39335
5.40276
5.41085
5.41759
5.42313
5.42761
5.43111
5.43357
5.43488
5.43497
5.43372
5.43098
5.42662
5.42048
5.41236
5.40183
5.38836
5.37136
5.35047
5.32536
5.29583
5.26293
5.22825
5.19308
5.16058
5.13473
5.11656
5.1053
5.09999
4.08739
4.11111
4.15299
4.20863
4.27012
4.33098
4.39025
4.44635
4.49788
4.54641
4.59344
4.64062
4.68736
4.73322
4.77878
4.8223
4.86208
4.89862
4.9318
4.96139
4.98842
5.01384
5.03859
5.06246
5.08532
5.10748
5.12823
5.1469
5.16396
5.17993
5.19539
5.21021
5.22431
5.23788
5.25044
5.26151
5.27125
5.27961
5.28651
5.29217
5.29677
5.30045
5.30309
5.30457
5.30482
5.30372
5.3011
5.29683
5.29076
5.28273
5.27223
5.25866
5.24125
5.21963
5.19333
5.16179
5.12632
5.08881
5.05011
5.01405
4.9861
4.96708
4.9556
4.95026
3.90543
3.93279
3.97963
4.04202
4.10987
4.17504
4.23805
4.29714
4.35021
4.39984
4.44782
4.49665
4.54508
4.59247
4.64023
4.68584
4.72686
4.76453
4.79861
4.82849
4.8557
4.8813
4.9066
4.93108
4.95448
4.97748
4.99898
5.01797
5.03522
5.05136
5.06721
5.08245
5.09694
5.11109
5.12423
5.13565
5.14571
5.15433
5.16135
5.16712
5.17182
5.17569
5.17852
5.18016
5.18059
5.17964
5.17716
5.17299
5.16701
5.15913
5.14874
5.13516
5.11741
5.09515
5.0678
5.03417
4.99599
4.95568
4.91312
4.87297
4.8429
4.82325
4.81173
4.80647
3.72828
3.76002
3.81206
3.88207
3.95696
4.02618
4.09298
4.15516
4.20941
4.25988
4.30849
4.35903
4.40917
4.45786
4.508
4.55589
4.59797
4.63673
4.67174
4.70174
4.72899
4.7546
4.7805
4.8056
4.82943
4.85336
4.87571
4.89492
4.91228
4.92847
4.94473
4.96041
4.9752
4.99001
5.00378
5.01549
5.02586
5.03476
5.04186
5.0477
5.05247
5.05654
5.05958
5.06137
5.06199
5.06122
5.05889
5.05482
5.04895
5.04127
5.03107
5.0176
4.99955
4.97675
4.94852
4.91271
4.87166
4.82868
4.7819
4.73693
4.70481
4.68481
4.67348
4.6684
3.55552
3.59266
3.64993
3.7286
3.81133
3.88409
3.95474
4.02025
4.07518
4.12624
4.17506
4.22749
4.27937
4.32898
4.3818
4.43226
4.47508
4.51494
4.55097
4.58084
4.60802
4.63345
4.66002
4.68576
4.70986
4.73486
4.75818
4.77747
4.79486
4.81098
4.82771
4.84382
4.85883
4.87437
4.88884
4.90077
4.91144
4.92064
4.92776
4.93365
4.93846
4.94275
4.94601
4.94795
4.94877
4.94817
4.94601
4.94205
4.93628
4.92888
4.91894
4.9057
4.8874
4.86415
4.83531
4.79716
4.75302
4.70768
4.65627
4.60554
4.57152
4.55155
4.54066
4.53588
3.38674
3.43068
3.49283
3.58146
3.67305
3.74843
3.82305
3.89226
3.9472
3.99868
4.04713
4.10177
4.15547
4.20545
4.26137
4.3148
4.35787
4.39887
4.4361
4.46551
4.49253
4.51749
4.54491
4.57135
4.59546
4.62173
4.64621
4.66536
4.68273
4.6986
4.71589
4.73247
4.74752
4.76392
4.77922
4.79121
4.8022
4.81175
4.81881
4.82473
4.82952
4.83407
4.83757
4.83963
4.84067
4.84027
4.83828
4.83442
4.82873
4.82169
4.81206
4.79923
4.78067
4.75706
4.72799
4.68728
4.63973
4.59261
4.53611
4.47832
4.44275
4.42329
4.41311
4.40873
3.22146
3.27419
3.34026
3.4405
3.54225
3.61878
3.69761
3.77115
3.82513
3.87698
3.92426
3.98163
4.03734
4.08681
4.14644
4.2034
4.24598
4.28822
4.32696
4.35545
4.38229
4.40642
4.43495
4.46217
4.48589
4.51373
4.53964
4.55834
4.57567
4.59103
4.60905
4.62614
4.64099
4.65842
4.6747
4.68656
4.6979
4.70787
4.71476
4.7207
4.72539
4.73027
4.73404
4.73617
4.73746
4.73725
4.73546
4.7317
4.72605
4.71946
4.71019
4.69797
4.6791
4.65517
4.62644
4.58286
4.53139
4.48343
4.42135
4.35474
4.31823
4.29985
4.29067
4.28679
3.05914
3.12346
3.1916
3.30559
3.41923
3.49462
3.57809
3.65692
3.70858
3.76098
3.80595
3.8669
3.92488
3.97255
4.03676
4.09804
4.13903
4.1827
4.22344
4.25036
4.27711
4.29986
4.32991
4.35806
4.3808
4.41063
4.43832
4.45614
4.47346
4.48797
4.50698
4.52468
4.53893
4.55765
4.57515
4.58656
4.59829
4.60881
4.61536
4.62136
4.62584
4.63113
4.63519
4.63733
4.63893
4.63891
4.63733
4.63366
4.62796
4.62194
4.61304
4.6017
4.58241
4.55816
4.53056
4.48367
4.42754
4.38021
4.31202
4.23417
4.19772
4.1811
4.17319
4.16991
2.89918
2.97905
3.04606
3.17661
3.30441
3.3753
3.46414
3.5497
3.59709
3.6506
3.69165
3.75741
3.81812
3.86207
3.93211
3.99881
4.03657
4.08203
4.12548
4.14989
4.17684
4.19744
4.22963
4.25892
4.27981
4.31221
4.34219
4.35846
4.37596
4.38911
4.40949
4.42793
4.44103
4.46141
4.48042
4.49093
4.50316
4.5144
4.52037
4.5265
4.5306
4.53645
4.54084
4.54289
4.54484
4.545
4.54368
4.54009
4.53422
4.52894
4.52034
4.51026
4.49035
4.46568
4.44033
4.38954
4.32761
4.28308
4.20822
4.11584
4.08105
4.06694
4.06053
4.05794
2.74081
2.84183
2.9026
3.05346
3.19847
3.25999
3.35541
3.44976
3.49006
3.54591
3.58068
3.65306
3.71717
3.75467
3.83228
3.90589
3.93808
3.98592
4.03311
4.05366
4.0814
4.09873
4.13394
4.16471
4.18246
4.21828
4.25121
4.26499
4.28303
4.29411
4.31642
4.33579
4.34694
4.36949
4.39043
4.3994
4.41228
4.4245
4.42955
4.43595
4.43944
4.44602
4.45081
4.4526
4.45503
4.45534
4.4543
4.4508
4.44457
4.44026
4.43184
4.42351
4.40266
4.37732
4.35579
4.3003
4.23091
4.19228
4.11018
3.99883
3.96812
3.95728
3.95259
3.95071
2.58313
2.7131
2.75984
2.93606
3.10233
3.14763
3.25151
3.35753
3.38675
3.4471
3.47224
3.55379
3.62228
3.6495
3.73706
3.8196
3.84294
3.89406
3.94644
3.9612
3.99079
4.00324
4.04274
4.07543
4.08828
4.12865
4.16541
4.17536
4.19461
4.20258
4.22762
4.24821
4.25629
4.28171
4.30514
4.31164
4.32544
4.339
4.34265
4.34956
4.3521
4.3597
4.36492
4.36626
4.3693
4.36971
4.36901
4.36561
4.35875
4.35573
4.34723
4.34136
4.31912
4.29261
4.27709
4.21586
4.13657
4.10816
4.01826
3.88198
3.85892
3.85206
3.84922
3.8481
2.425
2.59471
2.61601
2.82437
3.01723
3.03688
3.15203
3.27369
3.28622
3.35461
3.36537
3.45962
3.53389
3.54552
3.64631
3.74044
3.75041
3.80615
3.8657
3.87197
3.90512
3.91042
3.95592
3.9912
3.99668
4.04316
4.0849
4.08914
4.11072
4.11411
4.14297
4.16519
4.16864
4.19791
4.22456
4.22734
4.24244
4.25783
4.25938
4.26722
4.26832
4.2773
4.28303
4.28362
4.28749
4.28791
4.28764
4.28436
4.27649
4.27525
4.2662
4.26377
4.2395
4.21102
4.20444
4.13617
4.04352
4.03124
3.93302
3.76387
3.75362
3.75126
3.75031
3.74994
)
;

boundaryField
{
    left
    {
        type            zeroGradient;
    }
    right
    {
        type            zeroGradient;
    }
    interface
    {
        type            fixedValue;
        value           nonuniform List<scalar> 
64
(
2.34328
2.54084
2.54084
2.77027
2.98032
2.98032
3.10335
3.23573
3.23573
3.31107
3.31107
3.41427
3.49252
3.49252
3.60233
3.70421
3.70421
3.76335
3.82792
3.82792
3.86428
3.86428
3.91407
3.95115
3.95115
4.00186
4.04693
4.04693
4.0706
4.0706
4.10219
4.12554
4.12554
4.15747
4.18628
4.18628
4.20235
4.21903
4.21903
4.22767
4.22767
4.23765
4.24368
4.24368
4.24816
4.24852
4.24852
4.24536
4.23671
4.23671
4.22702
4.22702
4.20131
4.17118
4.17118
4.09849
3.99654
3.99654
3.89388
3.7026
3.7026
3.7026
3.7026
3.7026
)
;
    }
    bottom
    {
        type            fixedValue;
        value           uniform 10;
    }
    defaultFaces
    {
        type            empty;
    }
}


// ************************************************************************* //
