/*--------------------------------*- C++ -*----------------------------------*\
| =========                 |                                                 |
| \\      /  F ield         | OpenFOAM: The Open Source CFD Toolbox           |
|  \\    /   O peration     | Version:  5.x                                   |
|   \\  /    A nd           | Web:      www.OpenFOAM.org                      |
|    \\/     M anipulation  |                                                 |
\*---------------------------------------------------------------------------*/
FoamFile
{
    version     2.0;
    format      ascii;
    class       volScalarField;
    location    "13.2";
    object      gradTy;
}
// * * * * * * * * * * * * * * * * * * * * * * * * * * * * * * * * * * * * * //

dimensions      [0 -1 0 1 0 0 0];

internalField   nonuniform List<scalar> 
6300
(
1005.91
1017.88
1030.32
1043.52
1057.77
1073.35
1090.5
1109.42
1130.29
1153.2
1178.19
1205.21
1234.16
1264.82
1296.91
-0.232937
-0.695388
-1.14723
-1.58031
-1.98496
-2.34958
-2.66051
-2.90228
-3.05843
-3.11298
-3.05263
-2.8694
-2.56341
-2.14483
-1.63438
-0.392043
-1.17079
-1.93293
-2.6655
-3.35281
-3.97568
-4.51106
-4.93225
-5.21017
-5.3158
-5.22397
-4.91842
-4.3971
-3.67654
-2.79323
-0.556493
-1.66279
-2.74819
-3.79591
-4.78506
-5.68924
-6.47574
-7.10542
-7.53415
-7.71599
-7.60898
-7.18314
-6.42997
-5.37095
-4.06138
-0.72762
-2.17569
-3.60111
-4.98488
-6.30224
-7.52047
-8.5972
-9.47953
-10.105
-10.405
-10.3128
-9.77515
-8.76866
-7.3159
-5.49528
-0.905903
-2.71123
-4.49564
-6.24022
-7.91848
-9.49314
-10.913
-12.1104
-13.0011
-13.4862
-13.4619
-12.8359
-11.5535
-9.62858
-7.16734
-1.09067
-3.26767
-5.42996
-7.56183
-9.63829
-11.6206
-13.451
-15.0481
-16.3025
-17.0767
-17.2126
-16.5529
-14.9809
-12.4775
-9.17847
-1.27975
-3.83881
-6.39466
-8.93878
-11.4522
-13.8997
-16.2223
-18.3284
-20.0841
-21.3053
-21.7588
-21.1822
-19.3393
-16.1221
-11.6805
-1.46928
-4.4131
-7.37103
-10.3464
-13.332
-16.3036
-19.2099
-21.959
-24.3999
-26.3015
-27.335
-27.0775
-25.072
-20.9912
-14.9242
-1.65351
-4.97327
-8.32995
-11.7435
-15.2256
-18.7726
-22.3546
-25.8976
-29.2548
-32.1657
-34.2019
-34.7207
-32.88
-27.8463
-19.3737
-1.825
-5.49646
-9.23187
-13.0721
-17.0543
-21.2064
-25.5382
-30.0216
-34.5559
-38.9041
-42.5861
-44.7231
-43.8808
-38.1402
-26.0234
-1.97503
-5.95567
-10.0289
-14.2588
-18.7128
-23.4605
-28.5698
-34.0944
-40.0429
-46.3085
-52.5149
-57.7046
-59.7795
-54.8103
-37.438
-2.09445
-6.32227
-10.669
-15.2213
-20.0773
-25.3527
-31.186
-37.7431
-45.2126
-53.7715
-63.4602
-73.8003
-82.7219
-83.8831
-61.7699
-2.17494
-6.56992
-11.1035
-15.8798
-21.0224
-26.6867
-33.078
-40.479
-49.2926
-60.1042
-73.7535
-91.314
-113.424
-136.23
-130.573
-2.21032
-6.67888
-11.2952
-16.1719
-21.4457
-27.2936
-33.96
-41.8019
-51.3741
-63.5987
-80.135
-104.277
-143.43
-217.037
-386.481
1327.32
1355.47
1383.9
1412.36
1440.64
1468.53
1495.82
1522.36
1547.99
1572.6
1596.09
1618.37
1639.39
1659.08
1677.42
1694.38
1709.93
1724.08
1736.8
1748.1
1757.99
1766.48
1773.56
1779.27
1783.61
1786.6
1788.27
1788.64
1787.72
1785.55
1782.15
1777.53
1771.74
1764.78
1756.69
1747.48
1737.19
1725.82
1713.42
1699.99
1685.56
1670.15
1653.8
1636.51
1618.33
1599.26
1579.34
1558.59
1537.02
1514.67
1491.54
1467.65
1443.02
1417.67
1391.61
1364.87
1337.45
1309.39
1280.7
1251.41
1221.54
1191.12
1160.17
1128.74
1096.83
1064.49
1031.75
998.635
965.193
931.464
897.498
863.35
829.081
794.76
760.463
726.271
692.27
658.548
625.197
592.309
559.973
528.279
497.309
467.141
437.845
409.484
382.108
355.756
330.454
306.216
-1.10921
-0.610242
-0.109696
0.374311
0.827002
1.23779
1.60042
1.91263
2.17535
2.3918
2.56662
2.70505
2.81236
2.89343
2.95253
2.99323
3.01846
3.03056
3.03141
3.02256
3.00528
2.98071
2.94984
2.91359
2.87282
2.82832
2.78088
2.73122
2.68003
2.62797
2.57563
2.52348
2.47189
2.42107
2.37106
2.32171
2.27276
2.22383
2.17456
2.12463
2.07388
2.02238
1.97041
1.91849
1.86727
1.81748
1.76981
1.72475
1.68251
1.64297
1.60564
1.5697
1.53412
1.49777
1.45957
1.41867
1.3745
1.32686
1.27588
1.22196
1.16557
1.10714
1.04681
0.98435
0.919002
0.849498
0.774114
0.690819
0.597498
0.492196
0.373377
0.240138
0.0923516
-0.0692689
-0.243203
-0.427227
-0.61858
-0.81414
-1.0106
-1.20459
-1.39275
-1.57176
-1.73829
-1.889
-2.02056
-2.1297
-2.21345
-2.26937
-2.29589
-2.29251
-1.88323
-1.01987
-0.156773
0.673473
1.44488
2.13952
2.7476
3.2665
3.69924
4.05264
4.33564
4.55796
4.72902
4.8573
4.95006
5.01322
5.05151
5.06865
5.0676
5.05076
5.02017
4.97761
4.92469
4.8629
4.79366
4.71828
4.63803
4.55415
4.4678
4.38011
4.29208
4.20459
4.11828
4.03353
3.95039
3.86859
3.78758
3.70664
3.625
3.54203
3.45737
3.37108
3.28366
3.19606
3.10953
3.0255
2.94526
2.86982
2.79964
2.73452
2.67359
2.61535
2.55785
2.49897
2.43669
2.36942
2.29613
2.21652
2.13097
2.04034
1.94572
1.84808
1.74795
1.64505
1.53817
1.42508
1.30268
1.16723
1.01481
0.841757
0.645169
0.423307
0.175866
-0.0959205
-0.389347
-0.700455
-1.02435
-1.35556
-1.68837
-2.01705
-2.33597
-2.63963
-2.92251
-3.17903
-3.40347
-3.59012
-3.73357
-3.8293
-3.87425
-3.86739
-2.70905
-1.42892
-0.156323
1.0576
2.17357
3.16618
4.02347
4.74478
5.33773
5.81517
6.1924
6.48505
6.70763
6.8727
6.99058
7.0694
7.11539
7.13332
7.12692
7.09918
7.05272
6.98984
6.91272
6.82339
6.72376
6.61567
6.50087
6.38107
6.25796
6.13316
6.00821
5.88444
5.76288
5.64412
5.52824
5.41476
5.30274
5.19089
5.07781
4.96231
4.84366
4.72183
4.5976
4.47249
4.34865
4.22846
4.11423
4.00773
3.90986
3.82044
3.73807
3.66031
3.58395
3.50542
3.42139
3.32918
3.2272
3.1151
2.99371
2.86479
2.73052
2.59295
2.45337
2.31178
2.16656
2.01437
1.85031
1.66836
1.46209
1.22546
0.953599
0.643548
0.294669
-0.0911869
-0.509816
-0.95506
-1.41938
-1.89449
-2.3719
-2.84338
-3.30101
-3.73724
-4.14453
-4.5151
-4.84068
-5.11259
-5.32228
-5.46221
-5.52708
-5.5149
-3.60795
-1.82717
-0.0714075
1.58276
3.07987
4.3877
5.4952
6.40793
7.14262
7.72209
8.17104
8.51312
8.76913
8.95614
9.08744
9.17293
9.21976
9.23314
9.21703
9.17468
9.10899
9.0227
8.91846
8.79882
8.66618
8.52285
8.37103
8.2129
8.05067
7.88657
7.72278
7.56126
7.4036
7.25072
7.10277
6.95899
6.81782
6.67705
6.53426
6.38727
6.23467
6.0762
5.91294
5.74728
5.58265
5.423
5.27222
5.13335
5.0081
4.89635
4.79606
4.70342
4.6133
4.51996
4.41801
4.30317
4.173
4.02719
3.86744
3.69707
3.52021
3.34086
3.16182
2.98387
2.80513
2.62089
2.42381
2.20462
1.95323
1.66
1.31714
0.919822
0.466837
-0.0391417
-0.59184
-1.18208
-1.79876
-2.42996
-3.06389
-3.68951
-4.29677
-4.87641
-5.41932
-5.91585
-6.35506
-6.72459
-7.01135
-7.20312
-7.29079
-7.27051
-4.60035
-2.18924
0.159925
2.33424
4.25887
5.89782
7.24756
8.32765
9.17128
9.81721
10.3038
10.6654
10.9303
11.1201
11.2506
11.3325
11.3726
11.3758
11.3453
11.2841
11.1953
11.0818
10.9468
10.7933
10.6244
10.4426
10.2507
10.051
9.84649
9.63996
9.43448
9.23296
9.03784
8.85065
8.67171
8.49991
8.33274
8.16656
7.99717
7.82073
7.63457
7.4379
7.23216
7.021
6.80987
6.60522
6.41345
6.23979
6.08729
5.95614
5.84344
5.74331
5.64765
5.5473
5.43354
5.29958
5.1417
4.95969
4.75681
4.53903
4.31384
4.08863
3.86903
3.65741
3.45193
3.24619
3.02942
2.78756
2.50488
2.16626
1.75938
1.2765
0.71556
0.080423
-0.619569
-1.37078
-2.157
-2.96128
-3.76761
-4.56185
-5.33211
-6.06824
-6.76072
-7.39895
-7.96959
-8.45559
-8.83704
-9.09378
-9.20978
-9.17757
-5.70433
-2.46214
0.643002
3.44517
5.84912
7.82425
9.38804
10.5877
11.4845
12.1416
12.6166
12.9571
13.1994
13.3695
13.4838
13.552
13.5788
13.5668
13.5177
13.4335
13.3171
13.1718
13.0016
12.8102
12.6011
12.3772
12.1414
11.8963
11.6452
11.3919
11.1405
10.8955
10.6607
10.4388
10.2304
10.0342
9.84634
9.66075
9.47035
9.2683
9.04971
8.81275
8.55928
8.29479
8.02788
7.76899
7.52871
7.31587
7.13584
6.98952
6.87282
6.77686
6.68888
6.59407
6.47825
6.33057
6.14524
5.92236
5.66773
5.39177
5.1076
4.82846
4.56485
4.3222
4.09924
3.88747
3.67128
3.42936
3.1372
2.77093
2.31115
1.7457
1.07123
0.293485
-0.573423
-1.50898
-2.48909
-3.48954
-4.48858
-5.46859
-6.41645
-7.32279
-8.18006
-8.97924
-9.70583
-10.337
-10.8421
-11.187
-11.342
-11.2926
-6.92913
-2.5378
1.56219
5.1293
8.05657
10.3426
12.0523
13.2834
14.1422
14.7278
15.1226
15.3894
15.5722
15.6986
15.7829
15.8304
15.8405
15.8108
15.74
15.6287
15.4797
15.2973
15.0865
14.8521
14.5984
14.3285
14.0448
13.7497
13.4467
13.1404
12.8369
12.5429
12.2647
12.0068
11.7712
11.5562
11.3562
11.1615
10.9598
10.7392
10.4909
10.211
9.90185
9.57168
9.23397
8.90557
8.60412
8.34432
8.13551
7.97988
7.87202
7.79861
7.73962
7.67076
7.56855
7.41547
7.20253
6.93047
6.60909
6.25607
5.89383
5.54566
5.23026
4.95837
4.73021
4.53488
4.35
4.1433
3.87605
3.51006
3.0149
2.37171
1.57546
0.63479
-0.428567
-1.58311
-2.79201
-4.01991
-5.23699
-6.42168
-7.56056
-8.648
-9.683
-10.664
-11.5794
-12.3998
-13.0779
-13.5533
-13.7687
-13.6941
-8.25762
-2.1942
3.24839
7.73437
11.187
13.6902
15.4052
16.5142
17.1924
17.5878
17.8118
17.9418
18.0252
18.087
18.1342
18.1618
18.1582
18.113
18.0196
17.8773
17.6895
17.4626
17.204
16.9208
16.6181
16.2986
15.9634
15.6136
15.2519
14.884
14.5185
14.1665
13.8382
13.5418
13.2812
13.0556
12.8572
12.6711
12.4757
12.2492
11.9764
11.6503
11.2738
10.8585
10.4257
10.0024
9.61867
9.29849
9.05774
8.90063
8.82077
8.7988
8.8038
8.79469
8.73134
8.58582
8.34423
8.00889
7.5953
7.13294
6.65914
6.21498
5.83238
5.53096
5.31331
5.16665
5.05956
4.94387
4.75653
4.4347
3.93129
3.21765
2.28719
1.15234
-0.152808
-1.57934
-3.0679
-4.56617
-6.03233
-7.44096
-8.77896
-10.0489
-11.2638
-12.4433
-13.5898
-14.6677
-15.6055
-16.2941
-16.6127
-16.4991
-9.59047
-0.956963
6.31165
11.8269
15.6843
18.1726
19.6303
20.3652
20.6491
20.6939
20.6359
20.5608
20.5086
20.4961
20.5128
20.5375
20.5354
20.4839
20.3689
20.1907
19.9549
19.673
19.3565
19.0169
18.6613
18.2907
17.9024
17.494
17.0653
16.6234
16.1802
15.7555
15.3653
15.0246
14.7402
14.5154
14.3402
14.1936
14.0358
13.8253
13.5384
13.1618
12.7011
12.1701
11.6034
11.042
10.5413
10.1379
9.85916
9.70974
9.68578
9.7598
9.88792
9.99636
10.0121
9.89417
9.62059
9.19967
8.65142
8.02599
7.3815
6.79537
6.31732
5.98266
5.7939
5.74119
5.78127
5.84738
5.83041
5.62061
5.15021
4.3756
3.29307
1.91497
0.297617
-1.48636
-3.32989
-5.15874
-6.91054
-8.56197
-10.0954
-11.5289
-12.8956
-14.2702
-15.6988
-17.1371
-18.4919
-19.5674
-20.079
-19.8944
-10.5486
2.24555
11.8995
18.3063
22.153
24.1391
24.8964
24.8662
24.4508
23.9486
23.4853
23.1474
22.9354
22.8638
22.8808
22.9525
22.9843
22.947
22.81
22.5879
22.2875
21.934
21.5433
21.1368
20.7271
20.3091
19.8713
19.4044
18.8989
18.3656
17.8163
17.2959
16.822
16.4273
16.1145
15.9049
15.7828
15.7334
15.6726
15.5126
15.2305
14.7953
14.2308
13.5341
12.7743
11.9953
11.3247
10.7987
10.4754
10.3392
10.4106
10.6439
11.0013
11.3324
11.4863
11.4275
11.11
10.5747
9.81952
8.94736
8.02065
7.22098
6.5966
6.22504
6.07934
6.18285
6.4662
6.87121
7.18266
7.18243
6.80786
5.97758
4.72521
3.02277
0.988622
-1.30697
-3.6124
-5.86165
-7.93264
-9.85231
-11.5552
-13.1044
-14.5156
-16.0187
-17.7933
-19.7263
-21.78
-23.6523
-24.5474
-24.2003
-9.67233
9.97001
22.1633
28.4718
31.3003
31.8741
31.2956
29.921
28.3768
27.1466
26.1531
25.5519
25.1594
25.103
25.1692
25.4242
25.5318
25.553
25.373
25.097
24.6956
24.2477
23.752
23.2604
22.8042
22.3554
21.8811
21.3698
20.7718
20.13
19.4101
18.7685
18.164
17.7112
17.3398
17.1675
17.1201
17.289
17.4518
17.3747
17.1426
16.6145
15.9501
14.9884
13.9721
12.792
11.8993
11.1673
10.8215
10.6691
10.902
11.3486
12.1521
12.9232
13.2662
13.3331
12.9125
12.2659
11.1557
9.94684
8.47646
7.39375
6.51145
6.14181
6.00557
6.36522
6.97557
8.02944
8.98342
9.28296
9.12141
8.18709
6.80516
4.60795
2.05588
-1.11363
-3.97598
-6.82136
-9.17276
-11.4548
-13.2364
-14.8787
-16.0033
-17.376
-19.6597
-22.1417
-25.3289
-29.1443
-30.8045
-29.9964
-0.733408
28.4206
40.9011
43.6482
43.6943
41.2678
38.8408
35.2194
31.85
30.0032
28.2554
27.6553
26.8988
27.1649
27.1853
28.1075
28.203
28.4482
28.0738
27.786
27.1702
26.6297
25.9543
25.3324
24.8703
24.4376
23.9437
23.4595
22.7073
22.0065
20.8904
20.1874
19.2872
18.8773
18.2779
18.2498
18.1455
18.8527
19.5761
19.4597
19.4805
18.6295
18.0972
16.521
15.4054
13.1745
12.242
10.9796
10.8889
10.444
11.0854
11.5389
13.3492
15.1302
15.4432
15.9403
15.04
14.6245
12.6334
11.3227
8.37379
7.27767
5.68786
5.72227
5.21751
6.18633
6.84609
9.33125
11.7264
12.0472
12.5475
11.041
10.0589
6.70397
4.01211
-1.36269
-4.36408
-8.49244
-10.5127
-13.7781
-15.1179
-17.3986
-17.1335
-17.4212
-21.2406
-23.5412
-27.9732
-37.7394
-40.6154
-38.3596
46.1257
70.88
73.6536
62.7133
59.6478
50.662
48.1053
40.1547
33.1303
32.717
28.7051
29.9836
27.1658
29.5806
27.9026
31.9812
30.6584
32.2356
30.6496
30.9473
29.5363
29.2059
28.0795
27.1742
26.894
26.6082
25.9922
25.9355
24.5686
24.4814
21.7759
21.8903
19.7046
20.3165
18.3934
19.4421
18.0024
20.3931
22.9101
21.3473
23.0741
20.1857
21.7476
17.3907
18.445
11.6878
13.06
9.10491
11.4666
8.65495
11.5395
9.77599
14.5887
19.4514
17.3555
20.56
16.4697
19.2521
13.1319
15.0577
5.60341
7.8728
2.52569
6.07941
2.30778
6.45275
4.08828
10.7629
17.4564
14.5532
18.8636
13.1397
16.7297
7.84538
9.83196
-5.02914
-3.12906
-13.1988
-10.0593
-18.8741
-15.644
-23.5839
-17.4675
-12.3802
-25.0084
-21.8708
-22.9361
-56.2555
-57.8156
-51.281
288.653
144.991
126.153
70.4372
84.1251
50.7972
65.1355
43.7553
24.8897
40.612
21.5354
38.2098
19.897
37.8888
20.3293
43.632
28.9367
40.5769
30.5121
36.5679
30.3451
32.9273
29.8853
28.1148
28.9249
29.2531
27.2343
30.297
24.5864
30.7255
18.5998
26.9044
16.0925
25.4053
14.2284
24.217
12.3429
21.7507
32.1181
18.4971
33.3126
15.3325
33.9202
10.4676
32.7322
-1.50586
21.5486
-1.86651
19.4932
-1.33711
18.6861
-1.45725
15.7556
33.7923
11.6345
35.6836
8.0022
36.6989
2.04327
35.1796
-14.0496
19.4353
-13.4541
16.9846
-12.0022
16.0924
-11.6863
12.1671
37.0049
6.6713
39.6286
1.82604
41.3631
-6.66768
39.9121
-32.8319
15.3424
-36.9267
7.60833
-41.3148
-0.0851063
-50.0102
-16.3197
18.1711
-51.4786
-14.1482
28.5473
-120.505
-86.6713
-72.876
280.723
254.416
229.563
206.088
183.9
162.892
142.951
123.959
105.797
88.3452
71.4876
55.1104
39.1031
23.3577
7.7686
-2.25674
-2.17887
-2.06765
-1.92982
-1.77255
-1.60258
-1.42572
-1.24657
-1.06845
-0.893473
-0.722711
-0.55641
-0.394172
-0.23514
-0.0781472
-3.80431
-3.66846
-3.4756
-3.23798
-2.96838
-2.67865
-2.37878
-2.07652
-1.77729
-1.48446
-1.19958
-0.922844
-0.653399
-0.389638
-0.12947
-5.41885
-5.21499
-4.92824
-4.57807
-4.18431
-3.7648
-3.33419
-2.90339
-2.47973
-2.06746
-1.66828
-1.28198
-0.906934
-0.540538
-0.179564
-7.13239
-6.84435
-6.44423
-5.96171
-5.42591
-4.86203
-4.28976
-3.72307
-3.17075
-2.63734
-2.12409
-1.62985
-1.15181
-0.686009
-0.227812
-8.98317
-8.58566
-8.0425
-7.39854
-6.69552
-5.96757
-5.23969
-4.52834
-3.84283
-3.18703
-2.56085
-1.96151
-1.38442
-0.823871
-0.273483
-11.0193
-10.4725
-9.74146
-8.8943
-7.98997
-7.07295
-6.17303
-5.30771
-4.48516
-3.70705
-2.97074
-2.27088
-1.60047
-0.951567
-0.315729
-13.3038
-12.5434
-11.5564
-10.4471
-9.29701
-8.16111
-7.0717
-6.04424
-5.08299
-4.18522
-3.34416
-2.55079
-1.79499
-1.06618
-0.353592
-15.9229
-14.8408
-13.4936
-12.0406
-10.5897
-9.2027
-7.90831
-6.71447
-5.61726
-4.60665
-3.66984
-2.79308
-1.96251
-1.16457
-0.386044
-18.9956
-17.403
-15.5366
-13.6319
-11.8184
-10.1516
-8.64429
-7.28799
-6.06485
-4.95421
-3.93544
-2.98914
-2.09737
-1.24354
-0.412052
-22.6798
-20.2387
-17.6176
-15.1318
-12.9002
-10.9407
-9.2292
-7.72825
-6.39988
-5.20983
-4.12852
-3.13062
-2.19427
-1.30014
-0.430676
-27.1464
-23.254
-19.563
-16.3774
-13.7097
-11.4818
-9.6034
-7.99583
-6.59651
-5.35666
-4.23813
-3.21053
-2.24891
-1.33206
-0.441182
-32.3958
-26.0678
-21.0028
-17.1048
-14.0793
-11.6734
-9.70661
-8.05507
-6.63359
-5.38209
-4.25677
-3.22441
-2.25875
-1.33799
-0.44317
-37.4669
-27.6183
-21.2752
-16.9596
-13.8289
-11.4258
-9.49443
-7.88415
-6.50061
-5.28128
-4.18238
-3.17156
-2.22364
-1.31798
-0.436672
-37.3161
-25.6631
-19.5197
-15.6293
-12.8509
-10.7061
-8.96108
-7.48639
-6.20332
-5.05998
-4.01987
-3.05577
-2.14626
-1.27359
-0.422206
-2.20249
-6.65465
-11.2523
-16.1064
-21.3518
-27.1635
-33.7834
-41.5667
-51.0682
-63.2187
-79.7183
-104.008
-143.946
-219.949
-391.523
-2.15923
-6.52117
-11.0169
-15.7471
-20.8324
-26.4254
-32.7304
-40.0334
-48.7521
-59.5167
-73.2871
-91.4332
-115.192
-141.051
-132.958
-2.08578
-6.29478
-10.6184
-15.1411
-19.9602
-25.1928
-30.9842
-37.5168
-45.0151
-53.7268
-63.8169
-74.9603
-84.9782
-85.7315
-53.434
-1.98631
-5.98873
-10.0817
-14.3293
-18.8008
-23.572
-28.723
-34.3293
-40.435
-46.9794
-53.6145
-59.2685
-61.198
-53.3627
-25.6952
-1.86614
-5.61978
-9.4375
-13.3617
-17.4332
-21.6874
-26.1454
-30.7949
-35.55
-40.1688
-44.0931
-46.1623
-44.1985
-34.766
-14.4304
-1.73112
-5.20629
-8.7193
-12.2918
-15.9387
-19.6611
-23.4345
-27.1869
-30.7595
-33.8402
-35.8599
-35.8566
-32.385
-23.7408
-9.08586
-1.58712
-4.7665
-7.9597
-11.1703
-14.3916
-17.5992
-20.7381
-23.7036
-26.3102
-28.2482
-29.0315
-27.9592
-24.1634
-16.8896
-6.18346
-1.43955
-4.31708
-7.188
-10.0412
-12.854
-15.5848
-18.1621
-20.4695
-22.3249
-23.4579
-23.4915
-21.9529
-18.3569
-12.4217
-4.43436
-1.29305
-3.87221
-6.42857
-8.94004
-11.3732
-13.6768
-15.7735
-17.549
-18.8413
-19.4309
-19.043
-17.3754
-14.1748
-9.37888
-3.29728
-1.15136
-3.44315
-5.70027
-7.89323
-9.98234
-11.9126
-13.6078
-14.9641
-15.8454
-16.0824
-15.4831
-13.8623
-11.1003
-7.22885
-2.5164
-1.01726
-3.03815
-5.0165
-6.91847
-8.7017
-10.3115
-11.6773
-12.7091
-13.297
-13.3147
-12.6324
-11.1416
-8.79634
-5.66277
-1.95797
-0.892619
-2.66265
-4.38574
-6.02613
-7.54141
-8.87992
-9.97863
-10.7622
-11.1443
-11.0331
-10.343
-9.01425
-7.03973
-4.49333
-1.54615
-0.778531
-2.31974
-3.81236
-5.22063
-6.50384
-7.61476
-8.49876
-9.09405
-9.33416
-9.15348
-8.49714
-7.33526
-5.68021
-3.60218
-1.23511
-0.675447
-2.01055
-3.29754
-4.50194
-5.58585
-6.50714
-7.21932
-7.67251
-7.81615
-7.60411
-7.00228
-5.9987
-4.6144
-2.91173
-0.995685
-0.583324
-1.73476
-2.84006
-3.86688
-4.78074
-5.5447
-6.11969
-6.46586
-6.54511
-6.32537
-5.78635
-4.92649
-3.76965
-2.36944
-0.808563
-0.50176
-1.49099
-2.43706
-3.31025
-4.0797
-4.71343
-5.17893
-5.44452
-5.48165
-5.2683
-4.79319
-4.06049
-3.09389
-1.9387
-0.660498
-0.430117
-1.27719
-2.08464
-2.82563
-3.47288
-3.99896
-4.37696
-4.58178
-4.59211
-4.39297
-3.97888
-3.35689
-2.54907
-1.59337
-0.542147
-0.367609
-1.0909
-1.77837
-2.40608
-2.95018
-3.38729
-3.69521
-3.85408
-3.84798
-3.6669
-3.30892
-2.78231
-2.10691
-1.31438
-0.446757
-0.313383
-0.929474
-1.51358
-2.04458
-2.50177
-2.86532
-3.11694
-3.24092
-3.22535
-3.06364
-2.75604
-2.31104
-1.74608
-1.08753
-0.36934
-0.266569
-0.790251
-1.28567
-1.73432
-2.11837
-2.42104
-2.6273
-2.72465
-2.70419
-2.56166
-2.29857
-1.92304
-1.45025
-0.902084
-0.306152
-0.226318
-0.670653
-1.09021
-1.46892
-1.79147
-2.0437
-2.21326
-2.29018
-2.26777
-2.14338
-1.91915
-1.60259
-1.20673
-0.749806
-0.254329
-0.191831
-0.568257
-0.923116
-1.24252
-1.51337
-1.72378
-1.86352
-1.92468
-1.90217
-1.79442
-1.60384
-1.3372
-1.00563
-0.624291
-0.211658
-0.162368
-0.480833
-0.780634
-1.04983
-1.27725
-1.4529
-1.56836
-1.61726
-1.59575
-1.50296
-1.34134
-1.11689
-0.839065
-0.520508
-0.176405
-0.137257
-0.406366
-0.659402
-0.886131
-1.07707
-1.22381
-1.31941
-1.35872
-1.33881
-1.25928
-1.12248
-0.933635
-0.700784
-0.434462
-0.147197
-0.1159
-0.34306
-0.556434
-0.747286
-0.907572
-1.03024
-1.10953
-1.1413
-1.12328
-1.05537
-0.93974
-0.780934
-0.585743
-0.362957
-0.122939
-0.0977642
-0.289324
-0.469102
-0.629662
-0.764193
-0.866779
-0.932649
-0.958435
-0.942392
-0.884582
-0.786981
-0.653496
-0.489862
-0.303416
-0.102749
-0.0823837
-0.243768
-0.395115
-0.530108
-0.642994
-0.728811
-0.783599
-0.804615
-0.790501
-0.741423
-0.659137
-0.546991
-0.409819
-0.253749
-0.0859144
-0.0693521
-0.20518
-0.332481
-0.445902
-0.54059
-0.612384
-0.657997
-0.675185
-0.662887
-0.621318
-0.552025
-0.457861
-0.342896
-0.21225
-0.0718528
-0.0583172
-0.172513
-0.279483
-0.374702
-0.454081
-0.514134
-0.552129
-0.566228
-0.555593
-0.520463
-0.462181
-0.383173
-0.28686
-0.177521
-0.0600885
-0.0489751
-0.144864
-0.234644
-0.314499
-0.38099
-0.431198
-0.462853
-0.474444
-0.465307
-0.435682
-0.386728
-0.320499
-0.239869
-0.14841
-0.0502297
-0.0410645
-0.121455
-0.196695
-0.263574
-0.319204
-0.361144
-0.387507
-0.39705
-0.389245
-0.36432
-0.323268
-0.267824
-0.200396
-0.123967
-0.0419531
-0.034361
-0.101621
-0.164553
-0.220459
-0.266922
-0.301905
-0.323839
-0.331702
-0.32507
-0.304154
-0.269801
-0.223469
-0.167174
-0.1034
-0.0349903
-0.0286726
-0.0847929
-0.137287
-0.1839
-0.222612
-0.251725
-0.269941
-0.276416
-0.270812
-0.253318
-0.22465
-0.186031
-0.139143
-0.0860527
-0.0291182
-0.0238345
-0.070482
-0.114106
-0.152827
-0.184965
-0.209112
-0.224193
-0.229517
-0.22481
-0.210239
-0.186408
-0.154335
-0.11542
-0.0713738
-0.02415
-0.0197058
-0.0582703
-0.0943284
-0.126323
-0.152866
-0.172793
-0.18522
-0.189581
-0.185657
-0.173591
-0.153887
-0.127391
-0.0952579
-0.0589012
-0.0199289
-0.0161651
-0.0477988
-0.077372
-0.103606
-0.12536
-0.141682
-0.151848
-0.155397
-0.152156
-0.142245
-0.126081
-0.10436
-0.0780286
-0.0482445
-0.0163227
-0.0131079
-0.0387579
-0.0627341
-0.0839983
-0.101625
-0.114844
-0.123069
-0.125929
-0.123286
-0.115241
-0.102133
-0.0845296
-0.0631968
-0.0390719
-0.013219
-0.0104435
-0.0308791
-0.0499793
-0.0669159
-0.0809519
-0.0914729
-0.0980142
-0.100282
-0.0981664
-0.0917512
-0.081308
-0.0672882
-0.0503035
-0.0310992
-0.0105214
-0.00809258
-0.0239275
-0.0387265
-0.0518474
-0.0627189
-0.0708652
-0.0759269
-0.0776771
-0.0760325
-0.0710581
-0.0629657
-0.0521055
-0.0389513
-0.0240801
-0.00814654
-0.0059848
-0.0176952
-0.0286388
-0.0383406
-0.046378
-0.0523992
-0.0561388
-0.0574295
-0.0562103
-0.0525298
-0.0465452
-0.0385154
-0.0287911
-0.0177985
-0.00602135
-0.00405699
-0.0119952
-0.0194134
-0.0259894
-0.0314369
-0.0355173
-0.0380509
-0.0389245
-0.0380969
-0.0356014
-0.0315445
-0.026102
-0.0195114
-0.0120617
-0.00408052
-0.00225123
-0.00665616
-0.0107726
-0.0144218
-0.0174448
-0.0197094
-0.0211156
-0.0216007
-0.0211417
-0.019757
-0.0175059
-0.0144856
-0.0108282
-0.00669387
-0.00226457
-0.000513193
-0.00151746
-0.00245626
-0.00328899
-0.00397943
-0.00449736
-0.00481983
-0.00493226
-0.00482912
-0.00451434
-0.00400116
-0.0033117
-0.00247604
-0.00153088
-0.000517941
0.00120948
0.0035758
0.00578643
0.00774504
0.00936617
0.0105789
0.0113301
0.0115865
0.0113365
0.0105906
0.00938113
0.00776068
0.00580005
0.00358504
0.00121275
0.00296871
0.00877713
0.0142041
0.0190134
0.0229953
0.0259756
0.0278234
0.0284567
0.0278463
0.0260174
0.0230487
0.0190692
0.0142527
0.00881015
0.00298039
0.00481749
0.0142433
0.0230505
0.0308561
0.0373197
0.0421586
0.04516
0.0461904
0.0452021
0.0422355
0.037418
0.0309589
0.0231401
0.0143041
0.00483899
0.00681149
0.0201389
0.0325924
0.0436305
0.0527721
0.0596174
0.063865
0.0653256
0.0639313
0.0597385
0.0529272
0.0437926
0.0327335
0.0202348
0.00684538
0.00901065
0.0266414
0.0431169
0.0577215
0.0698189
0.0788797
0.0845048
0.086443
0.0846033
0.0790597
0.0700492
0.0579623
0.0433266
0.0267837
0.009061
0.011481
0.0339458
0.0549403
0.0735532
0.0889738
0.100527
0.107704
0.110183
0.107847
0.100788
0.0893071
0.0739017
0.0552438
0.0341518
0.0115538
0.0142964
0.0422712
0.0684173
0.0916011
0.110814
0.125214
0.134165
0.137267
0.134369
0.125586
0.11129
0.0920991
0.0688509
0.0425655
0.0144005
0.0175411
0.051866
0.0839509
0.112406
0.135994
0.153682
0.164688
0.168515
0.164977
0.154211
0.136671
0.113114
0.0845668
0.052284
0.0176889
0.0213113
0.063016
0.102004
0.136591
0.165271
0.186791
0.200195
0.204877
0.200605
0.187539
0.166229
0.137592
0.102877
0.0636079
0.0215207
0.025719
0.0760518
0.123114
0.164875
0.19952
0.225533
0.241758
0.247454
0.242337
0.226591
0.200874
0.166291
0.124347
0.0768887
0.026015
0.030894
0.0913583
0.147905
0.198099
0.239763
0.271071
0.29063
0.29754
0.291448
0.272566
0.241676
0.200099
0.149647
0.0925406
0.0313122
0.0369879
0.109384
0.177107
0.237245
0.287195
0.324767
0.348283
0.356653
0.349438
0.326878
0.289896
0.24007
0.179567
0.111054
0.0375785
0.0441781
0.130656
0.211573
0.283464
0.343221
0.388222
0.41645
0.426586
0.418082
0.391203
0.347035
0.287453
0.215047
0.133014
0.045012
0.0526722
0.155789
0.252306
0.338108
0.409491
0.463323
0.497179
0.509461
0.499482
0.467531
0.414876
0.343739
0.257211
0.159117
0.0538496
0.062713
0.185502
0.30048
0.402761
0.487946
0.552292
0.592888
0.607789
0.596139
0.558232
0.495548
0.410712
0.307403
0.190202
0.0643754
0.0745845
0.22064
0.357467
0.479285
0.580868
0.657751
0.706434
0.724553
0.711023
0.666137
0.5916
0.49051
0.367242
0.227275
0.0769314
0.0886174
0.262184
0.424875
0.569859
0.690937
0.782788
0.8412
0.86329
0.847679
0.794626
0.706088
0.585704
0.438675
0.271552
0.0919309
0.105197
0.31128
0.504575
0.677029
0.821299
0.93104
1.00118
1.0282
1.01033
0.94775
0.842687
0.699398
0.524058
0.324505
0.109875
0.124768
0.369255
0.598745
0.803766
0.975633
1.10678
1.19111
1.22428
1.20402
1.13037
1.00583
0.835345
0.626251
0.387926
0.131374
0.147846
0.43764
0.709904
0.95352
1.15823
1.31504
1.41656
1.45745
1.43477
1.34833
1.20085
0.998102
0.748738
0.464004
0.157173
0.17502
0.518195
0.840953
1.13028
1.3741
1.56167
1.68409
1.73474
1.7098
1.60866
1.43426
1.19322
0.895783
0.555421
0.18819
0.206959
0.612925
0.99521
1.33864
1.62901
1.85354
2.00145
2.06452
2.03774
1.91986
1.71393
1.4275
1.07263
0.665495
0.225559
0.24442
0.724094
1.17644
1.58384
1.92963
2.19861
2.37772
2.45669
2.42891
2.2922
2.04948
1.70928
1.28577
0.798341
0.270692
0.288244
0.854235
1.38888
1.87182
2.28356
2.60608
2.8235
2.92297
2.89572
2.73813
2.45272
2.04892
1.54327
0.959115
0.32536
0.339356
1.00614
1.63722
2.20921
2.69944
3.08652
3.35116
3.47722
3.45302
3.2728
2.93817
2.45925
1.85529
1.15432
0.391808
0.398753
1.18282
1.92659
2.60337
3.18693
3.65196
3.97504
4.1358
4.11864
3.91468
3.52379
2.95641
2.23466
1.39226
0.472907
0.467482
1.38747
2.26245
3.06226
3.75669
4.31597
4.7116
4.91789
4.91396
4.68634
4.23194
3.56074
2.6978
1.68363
0.572376
0.546609
1.62336
2.65051
3.5943
4.42029
5.09357
5.57962
5.84594
5.86457
5.61546
5.09061
4.2982
3.26595
2.04242
0.695099
0.637165
1.8937
3.09642
4.20812
5.18991
6.00116
6.60019
6.94596
7.00106
6.73603
6.13505
5.20218
3.96691
2.48714
0.847596
0.740075
2.20139
3.60552
4.91213
6.07792
7.05607
7.79657
8.24779
8.35981
8.08985
7.40993
6.31612
4.83762
3.04282
1.03873
0.856058
2.54878
4.1823
5.7139
7.0962
8.27597
9.19378
9.78511
9.98376
9.7283
8.97218
7.69715
5.92794
3.74382
1.28081
0.985507
2.93725
4.82983
6.6193
8.25506
9.67773
10.8176
11.5951
11.923
11.7144
10.8947
9.42132
7.30637
4.63846
1.59135
1.12833
3.36679
5.54894
7.63138
9.56186
11.2758
12.6932
13.7171
14.2348
14.1247
13.2712
11.5909
9.06874
5.7964
1.99603
1.28377
3.83542
6.33726
8.74893
11.019
13.0797
14.8419
16.1905
16.9824
17.0511
16.2217
14.3452
11.352
7.321
2.53381
1.45025
4.33861
7.18814
9.96479
12.6214
15.0907
17.2777
19.0503
20.2323
20.6009
19.8994
17.8748
14.3558
9.37069
3.26631
1.62515
4.86872
8.08958
11.264
14.3537
17.2978
20.0012
22.3202
24.0467
24.8939
24.4958
22.442
18.3778
12.1976
4.29619
1.80473
5.41457
9.02326
12.6218
16.187
19.6719
22.9914
26.0015
28.4717
30.0514
30.2419
28.405
23.869
16.2196
5.80591
1.98402
5.96117
9.96391
14.0027
18.0761
22.1609
26.1962
30.0575
33.515
36.1734
37.3956
36.2424
31.5222
22.1611
8.14762
2.15696
6.48998
10.8794
15.3595
19.9571
24.684
29.5218
34.3937
39.113
43.2924
46.1988
46.5564
42.3981
31.3331
12.0739
2.31661
6.97954
11.732
16.6346
21.7481
27.1298
32.8234
38.8358
45.0857
51.2951
56.7715
60.0061
58.0699
46.1954
19.3948
2.45563
7.4069
12.4802
17.7631
23.3529
29.359
35.9035
43.1126
51.0861
59.8066
68.9005
77.0462
80.643
71.4228
35.0412
2.56683
7.74951
13.0826
18.6784
24.6683
31.2141
38.5217
46.8584
56.5674
68.0583
81.6876
97.2446
112.116
115.512
74.0906
2.64399
7.98757
13.5027
19.3199
25.5976
32.5399
40.425
49.6508
60.811
74.8244
93.1354
117.918
151.558
190.723
187.278
2.6825
8.10649
13.7127
19.6415
26.0652
33.2108
41.3972
51.0994
63.0728
78.6054
100.088
132.441
187.161
295.522
558.182
2.68003
8.09878
13.6988
19.6193
26.0312
33.1588
41.3162
50.9706
62.8624
78.2538
99.4914
131.429
185.512
293.168
556.111
2.63679
7.96514
13.4622
19.2558
25.5
32.3914
40.1955
49.2876
60.2212
73.8417
91.4632
115.039
146.658
182.973
178.385
2.5555
7.71429
13.0195
18.5794
24.5191
30.99
38.1801
46.3255
55.7135
66.6508
79.2992
93.0638
104.54
101.183
45.228
-23.6583
-19.2811
-16.0005
-13.4606
-11.413
-9.70536
-8.24176
-6.95873
-5.81205
-4.76946
-3.80638
-2.90331
-2.04411
-1.21485
-0.403038
-8.87432
-12.2985
-12.1454
-11.0831
-9.83368
-8.60292
-7.44643
-6.37277
-5.37547
-4.4437
-3.56586
-2.73081
-1.92809
-1.14797
-0.381186
-4.03787
-7.79991
-8.9216
-8.83557
-8.24127
-7.44882
-6.59352
-5.73372
-4.89334
-4.08045
-3.2956
-2.53581
-1.79638
-1.07182
-0.356266
-2.19702
-5.13484
-6.53643
-6.9409
-6.78638
-6.33832
-5.74366
-5.08113
-4.39209
-3.69768
-3.00791
-2.32666
-1.65433
-0.989394
-0.329248
-1.3674
-3.53655
-4.84363
-5.43436
-5.53528
-5.32956
-4.9409
-4.44689
-3.89454
-3.31166
-2.71429
-2.11129
-1.50713
-0.903637
-0.30108
-0.930583
-2.53689
-3.64827
-4.2679
-4.49708
-4.44781
-4.21124
-3.85313
-3.41815
-2.93567
-2.42455
-1.8967
-1.35945
-0.817222
-0.272635
-0.670746
-1.8809
-2.79436
-3.37256
-3.65222
-3.69607
-3.56596
-3.31273
-2.97473
-2.57953
-2.14641
-1.68863
-1.21523
-0.732435
-0.244663
-0.502106
-1.43094
-2.17325
-2.68451
-2.97108
-3.06512
-3.00614
-2.83116
-2.571
-2.24971
-1.88538
-1.49138
-1.07752
-0.651098
-0.217767
-0.385803
-1.11051
-1.71258
-2.15247
-2.4236
-2.54041
-2.52685
-2.40872
-2.2097
-1.94975
-1.64494
-1.30791
-0.948518
-0.574557
-0.1924
-0.30207
-0.875217
-1.36452
-1.73759
-1.98328
-2.10622
-2.12015
-2.04244
-1.8907
-1.68092
-1.42686
-1.13996
-0.829627
-0.503701
-0.168865
-0.239857
-0.698145
-1.09717
-1.41117
-1.62817
-1.74772
-1.77707
-1.72756
-1.61198
-1.44284
-1.23158
-0.988258
-0.721562
-0.439028
-0.14734
-0.192521
-0.562225
-0.888851
-1.15209
-1.34072
-1.45184
-1.48873
-1.45856
-1.37043
-1.23398
-1.05855
-0.852785
-0.624488
-0.380709
-0.127893
-0.155834
-0.456215
-0.724547
-0.944807
-1.10709
-1.20749
-1.24694
-1.22979
-1.16244
-1.05219
-0.906589
-0.732948
-0.538159
-0.328661
-0.110506
-0.126983
-0.372457
-0.593619
-0.777776
-0.916438
-1.00545
-1.04444
-1.03589
-0.98421
-0.894936
-0.774088
-0.627791
-0.462041
-0.282622
-0.0951017
-0.104028
-0.305578
-0.488385