/*--------------------------------*- C++ -*----------------------------------*\
| =========                 |                                                 |
| \\      /  F ield         | OpenFOAM: The Open Source CFD Toolbox           |
|  \\    /   O peration     | Version:  5.x                                   |
|   \\  /    A nd           | Web:      www.OpenFOAM.org                      |
|    \\/     M anipulation  |                                                 |
\*---------------------------------------------------------------------------*/
FoamFile
{
    version     2.0;
    format      ascii;
    class       volScalarField;
    location    "11.3";
    object      gradTy;
}
// * * * * * * * * * * * * * * * * * * * * * * * * * * * * * * * * * * * * * //

dimensions      [0 -1 0 1 0 0 0];

internalField   nonuniform List<scalar> 
6300
(
1014.05
1042.34
1071.17
1100.9
1131.86
1164.36
1198.7
1235.09
1273.71
1314.66
1357.97
1403.54
1451.2
1500.66
1551.55
-0.273657
-0.816495
-1.34549
-1.8501
-2.31793
-2.73427
-3.08193
-3.34162
-3.49299
-3.51653
-3.39632
-3.12335
-2.69891
-2.13703
-1.46481
-0.46108
-1.37623
-2.26962
-3.12442
-3.92051
-4.6335
-5.23433
-5.68968
-5.96354
-6.02038
-5.82993
-5.37348
-4.65051
-3.68396
-2.52172
-0.655522
-1.95771
-3.2323
-4.45743
-5.60614
-6.64481
-7.53213
-8.21914
-8.65104
-8.77141
-8.52944
-7.89002
-6.84559
-5.42651
-3.70553
-0.858801
-2.56678
-4.24444
-5.86681
-7.40176
-8.80744
-10.0302
-11.0037
-11.65
-11.8847
-11.6263
-10.8115
-9.41526
-7.47096
-5.08206
-1.07169
-3.20612
-5.31183
-7.36354
-9.32656
-11.1529
-12.7774
-14.1152
-15.0604
-15.4911
-15.2795
-14.3142
-12.5328
-9.95983
-6.73614
-1.29355
-3.87417
-6.43319
-8.94888
-11.388
-13.7001
-15.8114
-17.6189
-18.9854
-19.7395
-19.6861
-18.633
-16.4419
-13.0993
-8.78674
-1.52187
-4.56376
-7.5978
-10.6107
-13.5763
-16.4478
-19.1491
-21.5636
-23.5224
-24.7952
-25.092
-24.0897
-21.5023
-17.2085
-11.4142
-1.75202
-5.26115
-8.78343
-12.3199
-15.8585
-19.3654
-22.7733
-25.9638
-28.7452
-30.8266
-31.7969
-31.1314
-28.2687
-22.8183
-14.9194
-1.97703
-5.94535
-9.95478
-14.0268
-18.1721
-22.382
-26.6148
-30.7728
-34.6677
-37.9687
-40.1372
-40.37
-37.6229
-30.8763
-19.8646
-2.18778
-6.58837
-11.0635
-15.6603
-20.4209
-25.3755
-30.5306
-35.8446
-41.1837
-46.2429
-50.4128
-52.5881
-50.9764
-43.1993
-27.4674
-2.37348
-7.15683
-12.0502
-17.1299
-22.4754
-28.1683
-34.2872
-40.8908
-47.9794
-55.4058
-62.6827
-68.5928
-70.4949
-63.4768
-40.8999
-2.52277
-7.61515
-12.8507
-18.3335
-24.182
-30.535
-37.5588
-45.4516
-54.4367
-64.7176
-76.3189
-88.6047
-98.9332
-99.3125
-70.329
-2.62519
-7.93027
-13.4035
-19.1714
-25.384
-32.2305
-39.9608
-48.9196
-59.5978
-72.7082
-89.27
-110.573
-137.32
-164.51
-155.342
-2.67288
-8.07711
-13.6617
-19.5642
-25.9518
-33.0418
-41.134
-50.6676
-62.3261
-77.2467
-97.479
-127.096
-175.261
-266.063
-475.611
1599.07
1642.63
1686.25
1729.61
1772.44
1814.46
1855.44
1895.17
1933.47
1970.18
2005.19
2038.4
2069.73
2099.12
2126.54
2151.94
2175.32
2196.65
2215.94
2233.19
2248.41
2261.61
2272.81
2282.04
2289.32
2294.68
2298.17
2299.8
2299.62
2297.66
2293.98
2288.59
2281.55
2272.89
2262.65
2250.87
2237.58
2222.83
2206.66
2189.09
2170.17
2149.93
2128.42
2105.68
2081.73
2056.64
2030.42
2003.11
1974.76
1945.39
1915.02
1883.7
1851.44
1818.27
1784.23
1749.32
1713.59
1677.06
1639.76
1601.73
1563
1523.61
1483.59
1442.98
1401.81
1360.13
1317.98
1275.39
1232.42
1189.13
1145.57
1101.81
1057.92
1014
970.142
926.438
882.999
839.934
797.359
755.386
714.13
673.698
634.197
595.724
558.366
522.201
487.294
453.693
421.431
390.526
-0.782178
-0.139042
0.501491
1.1168
1.68865
2.20427
2.65643
3.04298
3.36575
3.62943
3.84037
4.00552
4.13176
4.22532
4.29153
4.33477
4.35853
4.36553
4.35792
4.33745
4.30556
4.26355
4.21261
4.15388
4.08845
4.01738
3.94171
3.86247
3.78063
3.69713
3.61281
3.52839
3.44444
3.36129
3.27905
3.19759
3.11661
3.03568
2.95433
2.87221
2.78918
2.70538
2.62125
2.53755
2.45524
2.37535
2.29884
2.22644
2.15848
2.09485
2.03494
1.97773
1.92187
1.86593
1.80853
1.74855
1.68529
1.61849
1.54835
1.47536
1.40014
1.32321
1.24474
1.16439
1.08116
0.993403
0.898865
0.794926
0.678852
0.54812
0.400739
0.235513
0.0522256
-0.14829
-0.364193
-0.592768
-0.830628
-1.07394
-1.31863
-1.56053
-1.79548
-2.0193
-2.22782
-2.41679
-2.58193
-2.71905
-2.82431
-2.89452
-2.92758
-2.9228
-1.33987
-0.227961
0.875622
1.93019
2.90372
3.77463
4.53177
5.17311
5.70363
6.13303
6.47346
6.73777
6.93821
7.08559
7.18891
7.25539
7.29061
7.29883
7.28336
7.24688
7.19165
7.11972
7.03301
6.93337
6.82261
6.7025
6.57477
6.44112
6.30324
6.16271
6.02103
5.87946
5.73899
5.60024
5.46336
5.32811
5.19383
5.05966
4.92464
4.78802
4.64942
4.50903
4.36763
4.22661
4.08778
3.95311
3.82447
3.70326
3.5902
3.48512
3.38692
3.29368
3.20291
3.11186
3.01796
2.91914
2.81411
2.70251
2.58484
2.46222
2.33605
2.20756
2.07735
1.94503
1.80899
1.6663
1.51293
1.34405
1.15462
0.939911
0.696184
0.421159
0.114361
-0.22276
-0.586916
-0.973266
-1.37581
-1.78783
-2.20229
-2.61213
-3.01035
-3.39008
-3.74438
-4.06615
-4.34806
-4.58274
-4.76321
-4.88356
-4.93975
-4.93035
-1.95132
-0.304596
1.32067
2.86062
4.26695
5.50925
6.57432
7.46328
8.18764
8.76524
9.21667
9.56254
9.82162
10.0098
10.1399
10.2216
10.2621
10.2668
10.2397
10.1839
10.1024
9.9978
9.87266
9.72952
9.5709
9.39924
9.21698
9.02654
8.8303
8.63063
8.42974
8.2296
8.03174
7.83713
7.646
7.45787
7.27157
7.0855
6.8979
6.70731
6.51289
6.31475
6.1141
5.91316
5.71494
5.52281
5.33998
5.16895
5.01103
4.86606
4.73231
4.60664
4.48488
4.36245
4.23502
4.09918
3.9529
3.79578
3.62895
3.45468
3.27578
3.09484
2.91344
2.73148
2.5468
2.35499
2.1497
1.92318
1.66715
1.37385
1.03705
0.652896
0.220486
-0.257981
-0.777376
-1.33015
-1.90706
-2.49793
-3.09236
-3.68018
-4.25163
-4.79725
-5.30758
-5.7727
-6.182
-6.52431
-6.78851
-6.96481
-7.04623
-7.03001
-2.63767
-0.350368
1.88852
3.98346
5.86636
7.49907
8.87049
9.99054
10.8831
11.5792
12.112
12.5124
12.8072
13.0179
13.1607
13.2472
13.2854
13.2808
13.2373
13.1582
13.0466
12.9056
12.7384
12.5482
12.3381
12.1114
11.8712
11.6205
11.3625
11.1005
10.8376
10.5767
10.32
10.0692
9.82456
9.58521
9.34921
9.11376
8.87572
8.63235
8.38194
8.12433
7.86121
7.59602
7.33357
7.07937
6.83876
6.61599
6.41344
6.23107
6.06631
5.91419
5.76805
5.62046
5.46442
5.29447
5.10752
4.90326
4.68398
4.45401
4.21866
3.983
3.75052
3.52207
3.29506
3.06328
2.81723
2.54497
2.23353
1.87061
1.44627
0.954303
0.393107
-0.234091
-0.919593
-1.65211
-2.41803
-3.20274
-3.99178
-4.77164
-5.52992
-6.2551
-6.93572
-7.55947
-8.11229
-8.57821
-8.94027
-9.18256
-9.29316
-9.26685
-3.41758
-0.32622
2.66385
5.41184
7.82624
9.86536
11.5289
12.8457
13.8617
14.6289
15.1984
15.6148
15.9143
16.1242
16.263
16.3429
16.3709
16.3512
16.2866
16.1798
16.0337
15.8517
15.6378
15.3959
15.1299
14.8437
14.541
14.2255
13.9012
13.5723
13.2432
12.9181
12.6006
12.2931
11.9961
11.7084
11.4267
11.1464
10.8618
10.5682
10.262
9.94248
9.61193
9.27554
8.94092
8.61697
8.31246
8.03452
7.78736
7.57134
7.38268
7.21371
7.05387
6.89119
6.71439
6.51476
6.28761
6.03287
5.75492
5.46157
5.16247
4.86704
4.5823
4.31104
4.05063
3.79258
3.52293
3.22359
2.87444
2.4562
1.95324
1.35577
0.661129
-0.125897
-0.993758
-1.92565
-2.90163
-3.90097
-4.90412
-5.89385
-6.85559
-7.7768
-8.64548
-9.44811
-10.1674
-10.7814
-11.2642
-11.5897
-11.737
-11.6961
-4.30471
-0.15624
3.78772
7.32049
10.3264
12.7723
14.6863
16.134
17.1982
17.9633
18.505
18.8854
19.1507
19.3326
19.4503
19.5133
19.525
19.4861
19.3967
19.2579
19.0724
18.8439
18.5775
18.2782
17.9508
17.5999
17.2293
16.8433
16.4465
16.0444
15.643
15.2488
14.8671
14.5018
14.1544
13.8229
13.5024
13.1851
12.8613
12.5222
12.1613
11.7767
11.3712
10.9527
10.5331
10.1267
9.74805
9.40893
9.11664
8.87241
8.67086
8.50029
8.34394
8.18245
7.99741
7.77486
7.50759
7.19611
6.84821
6.47759
6.10118
5.73588
5.39485
5.08457
4.80298
4.53875
4.27159
3.97411
3.61501
3.16397
2.59648
1.89732
1.06236
0.0988708
-0.97555
-2.1355
-3.35137
-4.59354
-5.83558
-7.05617
-8.23942
-9.37391
-10.4501
-11.4565
-12.3741
-13.1733
-13.8145
-14.2534
-14.4516
-14.3898
-5.2983
0.308091
5.50346
9.98755
13.6324
16.4445
18.5144
19.9738
20.9646
21.6184
22.0433
22.3208
22.5063
22.6328
22.7155
22.7566
22.7513
22.6931
22.5772
22.4027
22.1719
21.89
21.5638
21.2
20.805
20.3834
19.939
19.4758
18.9987
18.5146
18.032
17.5605
17.1091
16.6842
16.2888
15.9209
15.573
15.2323
14.8822
14.5067
14.0943
13.6403
13.1486
12.6308
12.1056
11.5961
11.1261
10.7154
10.3762
10.1115
9.91396
9.76594
9.64097
9.50719
9.33402
9.09894
8.79084
8.41137
7.97385
7.50157
7.02354
6.56945
6.16278
5.81649
5.53007
5.28884
5.06368
4.81311
4.48774
4.03918
3.42913
2.6342
1.64849
0.483203
-0.834332
-2.26497
-3.76336
-5.28638
-6.79795
-8.27228
-9.69346
-11.0549
-12.3554
-13.5925
-14.751
-15.7926
-16.656
-17.2634
-17.5404
-17.4483
-6.35897
1.36393
8.24295
13.8625
18.1371
21.1846
23.2206
24.4869
25.2152
25.6016
25.7924
25.8873
25.9452
25.9947
26.0389
26.0652
26.0522
25.9814
25.8405
25.6267
25.3433
24.9984
24.6022
24.1653
23.6957
23.1979
22.6742
22.1267
21.5595
20.9809
20.4032
19.8418
19.3111
18.8226
18.3821
17.9886
17.6318
17.2914
16.9383
16.543
16.0855
15.5568
14.9621
14.3181
13.6542
13.0072
12.4176
11.9174
11.5273
11.2527
11.0846
10.9972
10.9495
10.8875
10.7587
10.5271
10.1758
9.70919
9.14855
8.53287
7.9105
7.33383
6.84286
6.46137
6.19127
6.01501
5.89158
5.75909
5.53717
5.14626
4.52734
3.64518
2.49262
1.08622
-0.530763
-2.29734
-4.14034
-5.99608
-7.81431
-9.56521
-11.2338
-12.8238
-14.3519
-15.842
-17.2963
-18.6686
-19.8663
-20.7488
-21.1608
-21.0214
-7.33449
3.63446
12.7954
19.6735
24.4083
27.3809
29.035
29.774
29.9572
29.8659
29.6786
29.506
29.3956
29.3634
29.387
29.4296
29.4357
29.3694
29.208
28.9502
28.6022
28.1796
27.6986
27.1767
26.626
26.0489
25.4428
24.8049
24.1356
23.445
22.75
22.0782
21.4515
20.8912
20.4067
20.0027
19.666
19.3681
19.0543
18.6683
18.1783
17.5678
16.8461
16.0333
15.1777
14.3351
13.5798
12.9601
12.5117
12.2398
12.1384
12.1707
12.2783
12.3636
12.3307
12.1272
11.7264
11.142
10.4021
9.57342
8.73127
7.97446
7.36493
6.94553
6.71701
6.66478
6.73222
6.83355
6.82965
6.58142
6.00437
5.04532
3.70209
1.9923
-0.0119184
-2.2198
-4.49906
-6.75984
-8.92768
-10.9767
-12.8871
-14.6821
-16.4029
-18.143
-19.9597
-21.7956
-23.5302
-24.9118
-25.5747
-25.3483
-7.70256
8.50831
20.6348
28.5701
33.2166
35.4759
36.1675
35.8622
35.0956
34.269
33.5447
33.0361
32.7341
32.6527
32.7088
32.8475
32.9243
32.8955
32.7154
32.4048
31.9699
31.4461
30.8551
30.2308
29.5955
28.943
28.2587
27.5298
26.744
25.9168
25.0651
24.2508
23.498
22.852
22.3167
21.9216
21.6458
21.4693
21.2759
20.9446
20.4463
19.7403
18.8626
17.8118
16.6841
15.539
14.548
13.7576
13.2436
12.9827
13.0012
13.2371
13.6405
14.0113
14.1497
14.0126
13.5428
12.7999
11.7847
10.6347
9.43041
8.40421
7.61445
7.15596
6.99005
7.14331
7.52509
8.06058
8.47493
8.49101
8.03243
6.99956
5.44034
3.32327
0.801114
-2.03857
-4.8835
-7.65655
-10.2113
-12.5871
-14.7057
-16.6464
-18.4256
-20.3326
-22.5949
-25.0676
-27.7018
-30.1091
-31.2685
-30.8392
-5.54046
19.2638
34.5097
42.2022
45.4615
45.8269
44.7344
42.6135
40.3192
38.5235
37.0991
36.2678
35.7537
35.7431
35.9106
36.3532
36.5639
36.6385
36.4094
36.037
35.4643
34.8082
34.0582
33.2996
32.5886
31.882
31.1373
30.3356
29.4108
28.4228
27.3253
26.3335
25.3898
24.6524
24.0237
23.6678
23.4814
23.5938
23.6952
23.4604
23.0124
22.1589
21.1277
19.7002
18.2145
16.5203
15.2264
14.1566
13.61
13.3226
13.5504
14.0614
15.0492
15.9929
16.365
16.3762
15.752
14.8492
13.3611
11.7733
9.87265
8.49299
7.38646
6.94465
6.80305
7.29235
8.09625
9.46164
10.6933
11.0838
10.8871
9.71138
7.98158
5.23727
2.07111
-1.84999
-5.37164
-8.86782
-11.7524
-14.5682
-16.7802
-18.8434
-20.2639
-22.0107
-24.9269
-28.107
-32.1998
-37.1031
-39.2496
-38.2371
7.19193
43.7827
59.2613
62.2179
61.8733
58.2768
54.7814
49.6135
44.824
42.2425
39.7987
39.0418
38.0473
38.576
38.7153
40.1917
40.3988
40.8176
40.309
39.9568
39.0778
38.3044
37.273
36.2987
35.5744
34.8747
34.097
33.3179
32.1676
31.0856
29.4322
28.3465
26.9834
26.2957
25.3372
25.169
24.8861
25.7334
26.5978
26.2825
26.1617
24.833
23.9626
21.6719
20.0445
16.9248
15.5814
13.8018
13.6026
12.9202
13.6914
14.1984
16.521
18.7973
19.0993
19.6545
18.3619
17.741
15.0806
13.3622
9.56427
8.18817
6.20099
6.30075
5.70729
6.98814
7.85859
11.0549
14.123
14.5216
15.1515
13.2208
11.9835
7.75854
4.42808
-2.23673
-5.89652
-10.9598
-13.3926
-17.4187
-19.069
-21.9657
-21.6321
-22.0048
-26.8786
-29.8318
-35.5305
-48.0665
-51.7793
-48.921
68.715
98.7014
102.043
86.9859
82.9667
70.5804
67.2362
56.0681
46.1489
45.7633
40.0688
42.1578
38.1475
41.9694
39.5945
45.8581
43.9284
46.3323
43.983
44.635
42.539
42.1723
40.4054
38.9379
38.5248
37.98
37.0589
36.8349
34.826
34.5714
30.722
30.7589
27.6046
28.3291
25.5129
26.8356
24.6638
27.8484
31.1995
28.8249
31.0508
26.8472
28.8431
22.6887
24.0237
14.7718
16.5648
11.172
14.2912
10.4252
14.2134
11.7215
18.0598
24.4452
21.4692
25.594
20.005
23.5701
15.4441
17.9461
5.76893
8.7638
2.01087
6.65556
1.91304
7.27534
4.27204
12.8334
21.3968
17.6266
23.1032
15.7322
20.2878
8.99212
11.5869
-6.95026
-4.39991
-16.8392
-12.7377
-23.69
-19.5625
-29.7389
-21.9828
-15.5169
-31.5951
-27.6028
-29.0146
-71.7346
-73.7706
-65.4379
380.367
191.987
171.316
95.8576
116.107
69.8615
90.9556
60.723
33.7438
56.9273
29.1293
54.0556
26.968
54.2847
28.0327
63.3212
41.2161
58.6899
43.3334
53.2687
43.5086
48.0545
43.1052
40.0571
41.6634
41.6253
39.0153
42.9206
34.9566
43.2321
26.4142
37.7653
22.6392
35.4597
19.7272
33.5331
16.7268
29.7225
44.0448
24.7411
45.1971
19.9327
45.459
12.9195
43.2471
-3.28674
27.8946
-3.71584
25.0379
-3.09287
23.7777
-3.47165
19.5301
43.5724
13.613
45.5203
8.46549
46.2334
0.502637
43.6672
-19.8747
23.3757
-18.5923
20.5275
-16.4326
19.6085
-15.9681
14.6085
46.4304
7.41549
49.555
1.0689
51.4171
-9.77686
49.1751
-42.0299
18.6816
-46.5373
9.5943
-51.676
0.541817
-63.3347
-20.4756
23.4346
-65.2131
-17.5915
36.9853
-153.987
-110.692
-93.0364
358.018
324.474
292.781
262.845
234.549
207.757
182.326
158.105
134.94
112.682
91.1811
70.2927
49.8757
29.7926
9.90881
-2.87691
-2.77753
-2.63574
-2.46009
-2.25968
-2.04307
-1.81766
-1.58932
-1.36227
-1.1392
-0.921495
-0.709464
-0.502606
-0.299828
-0.0996463
-4.84956
-4.67626
-4.43046
-4.12768
-3.78414
-3.41491
-3.03274
-2.64747
-2.26605
-1.89273
-1.52954
-1.17671
-0.833152
-0.496833
-0.16509
-6.90727
-6.64742
-6.28208
-5.83595
-5.33423
-4.79966
-4.25085
-3.70174
-3.1617
-2.63611
-2.12719
-1.63466
-1.15645
-0.689257
-0.228969
-9.0908
-8.72396
-8.21438
-7.59974
-6.9171
-6.19856
-5.46922
-4.74691
-4.04284
-3.3628
-2.70843
-2.07826
-1.46872
-0.874766
-0.290496
-11.4489
-10.9431
-10.2516
-9.43141
-8.53577
-7.60816
-6.68049
-5.77376
-4.89988
-4.06379
-3.26542
-2.50122
-1.76537
-1.05058
-0.348741
-14.043
-13.3477
-12.4173
-11.3384
-10.1863
-9.0177
-7.87073
-6.76769
-5.71906
-4.72701
-3.7882
-2.8958
-2.04092
-1.21345
-0.402623
-16.954
-15.9873
-14.7312
-13.3184
-11.8531
-10.4055
-9.01691
-7.70711
-6.48159
-5.33693
-4.2645
-3.25283
-2.28904
-1.35965
-0.450919
-20.292
-18.9164
-17.2016
-15.3508
-13.502
-11.7342
-10.0842
-8.56213
-7.16317
-5.87455
-4.67998
-3.56192
-2.50275
-1.48516
-0.492318
-24.2097
-22.1844
-19.8078
-17.3811
-15.0697
-12.9449
-11.0233
-9.29396
-7.73432
-6.31804
-5.01888
-3.81209
-2.67482
-1.58592
-0.525503
-28.9102
-25.8031
-22.4639
-19.2957
-16.4507
-13.9524
-11.77
-9.85597
-8.16199
-6.64434
-5.26533
-3.99268
-2.7985
-1.65816
-0.549272
-34.6128
-29.6538
-24.9486
-20.8867
-17.4849
-14.6437
-12.2481
-10.1978
-8.4132
-6.83192
-5.40536
-4.09475
-2.86829
-1.69893
-0.562692
-41.3205
-33.2502
-26.7896
-21.8174
-17.9581
-14.8893
-12.3806
-10.274
-8.46093
-6.86467
-5.42935
-4.11262
-2.88094
-1.70656
-0.565247
-47.8061
-35.2366
-27.1418
-21.635
-17.6405
-14.5746
-12.1107
-10.0566
-8.29173
-6.73639
-5.33469
-4.04536
-2.83627
-1.68109
-0.556977
-47.626
-32.7479
-24.9056
-19.9399
-16.3943
-13.6576
-11.4311
-9.54972
-7.91289
-6.45438
-5.12759
-3.8978
-2.73767
-1.62452
-0.538543
-2.66749
-8.06028
-13.6314
-19.5171
-25.8831
-32.9451
-41.0018
-50.4925
-62.1047
-76.9944
-97.2759
-127.235
-176.675
-271.092
-484.882
-2.6183
-7.90837
-13.363
-19.1064
-25.2873
-32.0947
-39.7818
-48.7042
-59.3827
-72.6047
-89.5738
-112.016
-141.526
-173.862
-164.478
-2.53197
-7.64212
-12.8939
-18.3917
-24.2562
-30.633
-37.7035
-45.6962
-54.8939
-65.6122
-78.07
-91.89
-104.412
-105.602
-65.9987
-2.41351
-7.27749
-12.2538
-17.4222
-22.8691
-28.6895
-34.9844
-41.851
-49.3487
-57.411
-65.6192
-72.6638
-75.1688
-65.669
-31.6813
-2.26938
-6.8348
-11.4803
-16.259
-21.2226
-26.4161
-31.8682
-37.5671
-43.4112
-49.1081
-53.976
-56.5891
-54.2612
-42.7415
-17.7629
-2.1067
-6.33645
-10.6141
-14.9675
-19.4161
-23.963
-28.5804
-33.1821
-37.5757
-41.3805
-43.8985
-43.9452
-39.7362
-29.1602
-11.1688
-1.93266
-5.80477
-9.69532
-13.6097
-17.5412
-21.4609
-25.3033
-28.9412
-32.1486
-34.5463
-35.5368
-34.2564
-29.6324
-20.7282
-7.59276
-1.7539
-5.26024
-8.75986
-12.2401
-15.6742
-19.0123
-22.1679
-24.9991
-27.2834
-28.6889
-28.7519
-26.8893
-22.5006
-15.2344
-5.44036
-1.57614
-4.72033
-7.83781
-10.9023
-13.8738
-16.6904
-19.2577
-21.4366
-23.0283
-23.7636
-23.304
-21.2763
-17.3668
-11.4959
-4.04257
-1.40399
-4.19893
-6.95245
-9.62912
-12.181
-14.5413
-16.6172
-18.2817
-19.3679
-19.6678
-18.9447
-16.97
-13.5948
-8.85631
-3.0835
-1.24089
-3.70625
-6.12042
-8.44247
-10.6211
-12.5897
-14.2621
-15.5283
-16.2534
-16.2822
-15.4545
-13.6362
-10.7696
-6.93488
-2.39816
-1.08916
-3.24911
-5.35229
-7.35539
-9.20686
-10.8437
-12.1891
-13.1506
-13.6223
-13.4913
-12.652
-11.0302
-8.61654
-5.50091
-1.89307
-0.950189
-2.83135
-4.65361
-6.37353
-7.94158
-9.30016
-10.3825
-11.1129
-11.4097
-11.1922
-10.3928
-8.97413
-6.95089
-4.40872
-1.51178
-0.824551
-2.45448
-4.02597
-5.49709
-6.82168
-7.94834
-8.82019
-9.37612
-9.55409
-9.29727
-8.56353
-7.33783
-5.64554
-3.56286
-1.21843
-0.71222
-2.11816
-3.468
-4.72236
-5.83919
-6.7734
-7.47722
-7.90179
-8.00036
-7.73341
-7.07585
-6.02547
-4.61127
-2.89875
-0.989245
-0.612728
-1.82079
-2.97631
-4.04308
-4.98347
-5.7584
-6.32811
-6.65379
-6.70038
-6.44075
-5.8609
-4.96573
-3.78411
-2.37141
-0.807957
-0.525309
-1.5599
-2.54621
-3.45154
-4.24259
-4.88586
-5.34842
-5.59953
-5.613
-5.37041
-4.86487
-4.10489
-3.11738
-1.94876
-0.663091
-0.449018
-1.33251
-2.17235
-2.93932
-3.60432
-4.13877
-4.51553
-4.71025
-4.7034
-4.48262
-4.04549
-3.40201
-2.5764
-1.60736
-0.546357
-0.382819
-1.13544
-1.84906
-2.49789
-3.05667
-3.50116
-3.809
-3.96092
-3.94232
-3.74505
-3.36937
-2.82558
-2.13499
-1.32982
-0.451637
-0.325658
-0.96544
-1.57074
-2.11898
-2.58837
-2.95841
-3.21071
-3.32998
-3.30527
-3.13134
-2.80997
-2.35107
-1.77314
-1.10298
-0.374338
-0.276504
-0.819382
-1.33202
-1.79481
-2.18903
-2.4974
-2.70478
-2.799
-2.77183
-2.61998
-2.34605
-1.9592
-1.47533
-0.916726
-0.310953
-0.234383
-0.694315
-1.12792
-1.51825
-1.84929
-2.1065
-2.27742
-2.3523
-2.32494
-2.19338
-1.96054
-1.63468
-1.22939
-0.763228
-0.258767
-0.198393
-0.587524
-0.953867
-1.28284
-1.5608
-1.77552
-1.91672
-1.97658
-1.9504
-1.83708
-1.63962
-1.36531
-1.02573
-0.636318
-0.215657
-0.167718
-0.496553
-0.805759
-1.08284
-1.31621
-1.49559
-1.61248
-1.6606
-1.63635
-1.53921
-1.37205
-1.14126
-0.856652
-0.531106
-0.179942
-0.141625
-0.419208
-0.679954
-0.913193
-1.1091
-1.25904
-1.35599
-1.39487
-1.3729
-1.28994
-1.14866
-0.954574
-0.716
-0.443678
-0.150282
-0.119466
-0.353551
-0.573246
-0.769465
-0.933889
-1.05928
-1.13982
-1.17137
-1.1518
-1.08118
-0.961914
-0.798778
-0.598777
-0.370882
-0.125597
-0.100673
-0.297885
-0.482837
-0.647811
-0.785778
-0.890672
-0.957654
-0.983365
-0.966142
-0.906183
-0.805631
-0.668574
-0.50092
-0.31016
-0.105015
-0.0847481
-0.250731
-0.406296
-0.544906
-0.660629
-0.74838
-0.804141
-0.825166
-0.810154
-0.759368
-0.674693
-0.559614
-0.419105
-0.259425
-0.0878236
-0.0712626
-0.210809
-0.341528
-0.45789
-0.5549
-0.628298
-0.674743
-0.691986
-0.679003
-0.636081
-0.564862
-0.468308
-0.3506
-0.216967
-0.073441
-0.059845
-0.177016
-0.286725
-0.384309
-0.465565
-0.526927
-0.565618
-0.579792
-0.568636
-0.53244
-0.472622
-0.391688
-0.293152
-0.181378
-0.061388
-0.0501761
-0.148404
-0.240341
-0.322063
-0.390042
-0.441295
-0.473515
-0.485183
-0.475653
-0.4452
-0.39504
-0.32729
-0.244893
-0.151494
-0.0512689
-0.0419819
-0.12416
-0.20105
-0.269358
-0.32613
-0.368876
-0.395681
-0.405292
-0.397194
-0.371642
-0.32967
-0.27306
-0.204273
-0.126348
-0.0427558
-0.0350274
-0.103586
-0.167716
-0.224661
-0.271956
-0.307525
-0.329782
-0.337697
-0.330854
-0.309484
-0.274462
-0.227283
-0.169999
-0.105136
-0.0355755
-0.0291117
-0.0860873
-0.13937
-0.186666
-0.225921
-0.255417
-0.273841
-0.280346
-0.274599
-0.256804
-0.227696
-0.188521
-0.140986
-0.0871841
-0.0294996
-0.0240621
-0.0711521
-0.115182
-0.154251
-0.186662
-0.210997
-0.226173
-0.2315
-0.22671
-0.211978
-0.187918
-0.155564
-0.116325
-0.0719279
-0.0243365
-0.0197304
-0.0583414
-0.0944376
-0.126458
-0.153011
-0.172934
-0.185344
-0.189679
-0.185724
-0.173627
-0.153898
-0.127385
-0.095245
-0.0588894
-0.0199243
-0.0159889
-0.0472765
-0.0765227
-0.102461
-0.123963
-0.140088
-0.150122
-0.153612
-0.150389
-0.140576
-0.124588
-0.103114
-0.0770916
-0.0476626
-0.0161254
-0.0127264
-0.037629
-0.0609044
-0.0815436
-0.0986484
-0.11147
-0.119442
-0.122206
-0.119629
-0.111812
-0.0990862
-0.0820014
-0.061303
-0.0378995
-0.0128221
-0.00984574
-0.0291112
-0.0471163
-0.06308
-0.0763073
-0.086219
-0.092378
-0.094508
-0.0925077
-0.086456
-0.0766106
-0.0633972
-0.0473925
-0.0292986
-0.00991205
-0.00726092
-0.0214683
-0.0347456
-0.0465163
-0.0562679
-0.0635735
-0.0681111
-0.0696776
-0.0681989
-0.0637339
-0.0564732
-0.046731
-0.0349325
-0.0215952
-0.0073058
-0.00489441
-0.0144712
-0.0234207
-0.0313544
-0.0379266
-0.0428497
-0.0459068
-0.0469612
-0.0459633
-0.0429528
-0.0380585
-0.0314923
-0.0235408
-0.0145527
-0.00492325
-0.00267512
-0.00790948
-0.0128011
-0.0171377
-0.0207302
-0.0234215
-0.025093
-0.0256698
-0.0251248
-0.0234797
-0.0208046
-0.0172155
-0.0128689
-0.00795546
-0.00269138
-0.000536275
-0.00158575
-0.00256694
-0.00343746
-0.00415948
-0.00470138
-0.00503911
-0.00515733
-0.00505016
-0.00472156
-0.0041853
-0.00346445
-0.00259045
-0.0016017
-0.000541917
0.00158655
0.00469058
0.00759039
0.0101596
0.0122862
0.013877
0.0148623
0.0151987
0.0148707
0.0138924
0.0123058
0.0101802
0.0076083
0.00470274
0.00159085
0.00375731
0.0111087
0.0179772
0.024064
0.0291037
0.0328757
0.0352143
0.0360158
0.0352432
0.0329285
0.0291712
0.0241346
0.0180387
0.0111504
0.00377207
0.00604142
0.017862
0.0289068
0.0386954
0.0468012
0.0528696
0.0566335
0.0579257
0.0566863
0.052966
0.0469247
0.0388245
0.0290192
0.0179383
0.00606841
0.00850763
0.0251538
0.0407083
0.0544951
0.0659133
0.0744632
0.0797686
0.0815931
0.0798516
0.074615
0.0661075
0.0546982
0.0408852
0.0252738
0.00855009
0.0112301
0.0332035
0.0537372
0.0719392
0.0870165
0.0983094
0.10532
0.107736
0.105444
0.0985346
0.0873048
0.0722406
0.0539997
0.0333817
0.0112931
0.0142905
0.0422527
0.0683848
0.0915525
0.110747
0.125128
0.134062
0.137148
0.13424
0.125454
0.111164
0.0919886
0.0687645
0.0425104
0.0143816
0.0177804
0.0525724
0.0850903
0.113924
0.137819
0.155729
0.166863
0.170721
0.167118
0.156195
0.138415
0.114547
0.0856328
0.0529406
0.0179106
0.021804
0.0644709
0.104354
0.139725
0.169046
0.191034
0.204716
0.209474
0.205078
0.191695
0.169892
0.140609
0.105124
0.0649937
0.0219889
0.026481
0.0783023
0.126749
0.169725
0.205365
0.232106
0.248764
0.254583
0.249276
0.233042
0.206563
0.170978
0.127839
0.0790426
0.0267428
0.0319498
0.0944766
0.152941
0.20482
0.247861
0.280178
0.300336
0.307415
0.30106
0.281501
0.249554
0.206591
0.154483
0.0955233
0.03232
0.0383717
0.113471
0.183706
0.24605
0.297802
0.336692
0.360988
0.369575
0.362011
0.338561
0.300194
0.248552
0.185884
0.11495
0.0388947
0.0459347
0.135843
0.219948
0.294635
0.356671
0.403337
0.432546
0.442946
0.433991
0.405977
0.36005
0.298168
0.223024
0.137932
0.0466733
0.0548589
0.162245
0.262727
0.352003
0.426212
0.482101
0.517162
0.529756
0.519202
0.485828
0.430982
0.356991
0.267071
0.165194
0.0559019
0.0654019
0.19344
0.313287
0.419829
0.508472
0.575325
0.617375
0.632636
0.620255
0.580587
0.515207
0.426872
0.31942
0.197603
0.0668745
0.077865
0.230322
0.373082
0.500083
0.60586
0.685767
0.736187
0.754706
0.740253
0.693196
0.615367
0.510026
0.381741
0.236199
0.0799439
0.0926001
0.273936
0.443818
0.595072
0.721206
0.816681
0.877147
0.899665
0.882886
0.827168
0.734629
0.609109
0.456043
0.282234
0.0955352
0.110018
0.325502
0.527488
0.707498
0.857839
0.9719
1.04445
1.07191
1.05255
0.986704
0.876787
0.727315
0.544746
0.337216
0.114162
0.130595
0.386438
0.626412
0.840523
1.01966
1.15594
1.24306
1.27665
1.2545
1.17683
1.04641
0.868498
0.650777
0.402977
0.136446
0.154886
0.458392
0.743293
0.997831
1.21123
1.3741
1.47884
1.52008
1.49499
1.40359
1.24899
1.03732
0.777691
0.481743
0.163146
0.183526
0.543261
0.881251
1.1837
1.43788
1.63261
1.75872
1.80957
1.7815
1.67424
1.49118
1.23945
0.929816
0.576232
0.19519
0.217247
0.643227
1.04388
1.40308
1.7058
1.93875
2.09084
2.15384
2.12299
1.99752
1.78104
1.48179
1.11245
0.689782
0.233718
0.256878
0.760773
1.2353
1.66165
2.02218
2.30103
2.4848
2.56327
2.53018
2.38397
2.12837
1.77277
1.33212
0.826517
0.280139
0.303355
0.898704
1.46018
1.96592
2.39525
2.72932
2.95187
3.05015
3.0159
2.84636
2.54514
2.12279
1.59689
0.991556
0.336211
0.35772
1.06015
1.72374
2.32323
2.83445
3.23503
3.50522
3.62903
3.59554
3.40017
3.04601
2.54471
1.91682
1.19131
0.404138
0.421116
1.24857
2.0318
2.74181
3.35048
3.83126
4.16018
4.31713
4.28756
4.06422
3.64902
3.0545
2.30451
1.43389
0.486713
0.494774
1.46768
2.39069
3.23074
3.95528
4.53292
4.93452
5.13473
5.1141
4.86146
4.37654
3.67224
2.77597
1.72961
0.587511
0.579986
1.72142
2.80717
3.79986
4.66206
5.35679
5.84866
6.10566
6.10171
5.81996
5.25638
4.42325
3.35162
2.09181
0.711167
0.678062
2.01383
3.28825
4.45957
5.48509
6.32149
6.92586
7.25774
7.28219
6.97413
6.32336
5.33984
4.05792
2.5379
0.863767
0.790268
2.34882
3.8409
5.22048
6.43941
7.44726
8.19224
8.62324
8.69353
8.36623
7.62134
6.46362
4.92953
3.091
1.05344
0.917731
2.72996
4.47163
6.09293
7.54024
8.75551
9.67658
10.2392
10.3809
10.0482
9.20596
7.84872
6.01252
3.78229
1.29125
1.06132
3.16007
5.18592
7.08614
8.80216
10.268
11.4098
12.1472
12.3976
12.0841
11.1481
9.56635
7.36908
4.65468
1.59255
1.22148
3.64079
5.9874
8.2072
10.2377
12.0054
13.4237
14.3934
14.8059
14.5521
13.5386
11.7114
9.0847
5.76852
1.97924
1.39807
4.17195
6.87691
9.45963
11.8557
13.9853
15.7491
17.0264
17.6766
17.5475
16.4942
14.4114
11.2791
7.21085
2.48341
1.59009
4.75095
7.85122
10.8416
13.6588
16.2191
18.4122
20.0948
21.0884
21.1846
20.1645
17.8402
14.1233
9.11092
3.1538
1.79551
5.37198
8.90181
12.3437
15.64
18.7079
21.4297
23.6414
25.1232
25.5968
24.7403
22.2358
17.8671
11.667
4.06755
2.01103
6.02535
10.0134
13.9469
17.7796
21.4369
24.8013
27.6948
29.858
30.9326
30.4604
27.9259
22.8826
15.1947
5.35325
2.23189
6.69691
11.1628
15.6199
20.0409
24.369
28.4997
32.2551
35.3485
37.3422
37.6123
35.3581
29.7346
20.2176
7.23966
2.45188
7.36784
12.3182
17.3177
22.3666
27.4381
32.4586
37.2749
41.6024
44.9485
46.5168
45.1297
39.29
27.6439
10.1686
2.66339
8.01485
13.4393
18.9812
24.6765
30.5423
36.5589
42.6339
48.5375
53.789
57.4734
57.9929
52.8773
39.1181
15.0848
2.85774
8.6111
14.4787
20.5381
26.8677
33.5417
40.6185
48.1116
55.925
63.7173
70.6274
74.7689
72.4667
57.7265
24.2622
3.02577
9.12798
15.3847
21.9073
28.8194
36.261
44.3887
53.3665
63.3266
74.2576
85.7034
96.0188
100.693
89.3374
43.898
3.15857
9.53747
16.106
23.0058
30.4033
38.5035
47.5684
57.9387
70.0536
84.4398
101.564
121.185
140.05
144.617
92.9476
3.24847
9.81519
16.5972
23.7586
31.4989
40.0758
49.8411
61.2988
75.2027
92.7201
115.688
146.876
189.336
238.947
235.209
3.28988
9.94335
16.8246
24.1092
32.0134
40.8226
50.9381
62.9597
77.8418
97.2142
124.104
164.738
233.654
370.325
701.55
3.28009
9.91323
16.7719
24.0295
31.8992
40.6618
50.711
62.6336
77.3618
96.4872
122.974
162.959
230.919
366.59
698.379
3.21959
9.72646
16.442
23.5244
31.1647
39.6073
49.1826
60.3588
73.8274
90.6475
112.468
141.751
181.16
226.661
221.68
3.11205
9.39475
15.8571
22.6318
29.8728
37.7658
46.5421
56.4913
67.965
81.3344
96.7797
113.512
127.168
121.786
49.4107
-30.1972
-24.6059
-20.4166
-17.1742
-14.5607
-12.3815
-10.514
-8.87698
-7.41405
-6.084
-4.85544
-3.70345
-2.60744
-1.54964
-0.514108
-11.3264
-15.6946
-15.4977
-14.1411
-12.5462
-10.9754
-9.49965
-8.12973
-6.85733
-5.66861
-4.54875
-3.48349
-2.45951
-1.46437
-0.486245
-5.15322
-9.9535
-11.384
-11.2735
-10.5147
-9.50325
-8.41176
-7.31466
-6.24245
-5.20535
-4.20409
-3.23482
-2.29155
-1.36725
-0.454467
-2.80369
-6.55236
-8.34042
-8.85608
-8.65854
-8.08658
-7.32767
-6.48226
-5.60311
-4.71716
-3.83717
-2.96807
-2.11038
-1.26214
-0.42001
-1.74489
-4.51271
-6.18033
-6.93381
-7.06233
-6.79964
-6.3036
-5.67322
-4.96845
-4.22478
-3.46266
-2.69338
-1.92264
-1.15276
-0.384084
-1.18744
-3.23703
-4.65501
-5.44547
-5.73772
-5.6747
-5.37276
-4.91578
-4.36076
-3.74517
-3.09308
-2.41967
-1.73428
-1.04254
-0.347803
-0.855854
-2.39995
-3.56542
-4.30306
-4.65977
-4.71562
-4.54953
-4.22638
-3.7951
-3.29087
-2.73828
-2.15425
-1.55031
-0.934388
-0.312123
-0.64066
-1.82579
-2.77289
-3.42515
-3.79071
-3.91063
-3.83532
-3.61202
-3.28006
-2.87013
-2.4053
-1.90264
-1.37464
-0.830636
-0.277815
-0.492257
-1.41691
-2.18509
-2.7463
-3.0922
-3.24119
-3.22384
-3.07309
-2.81914
-2.48747
-2.09858
-1.66859
-1.21008
-0.732996
-0.245455
-0.385414
-1.11669
-1.74099
-2.21696
-2.5304
-2.68723
-2.70496
-2.6058
-2.41217
-2.14452
-1.82038
-1.45434
-1.05842
-0.642608
-0.215434
-0.306033
-0.89076
-1.39986
-1.80047
-2.07732
-2.22983
-2.26725
-2.20407
-2.05659
-1.84078
-1.57125
-1.26081
-0.92056
-0.560106
-0.187975
-0.245635
-0.717336
-1.13407
-1.46992
-1.71058
-1.85233
-1.89938
-1.86088
-1.74843
-1.57434
-1.35051
-1.08799
-0.796721
-0.485706
-0.163165
-0.198826
-0.582076
-0.924433
-1.20545
-1.4125
-1.54058
-1.5909
-1.56902
-1.48307
-1.34241
-1.15664
-0.935104
-0.686588
-0.419308
-0.140984
-0.162015
-0.475209
-0.757384
-0.992341
-1.16925
-1.28281
-1.33255
-1.32163
-1.25569
-1.14179
-0.987601
-0.800948
-0.589481
-0.360574
-0.121332
-0.132727
-0.38988
-0.623117
-0.819533
-0.96998
-1.06936
-1.1163
-1.11243
-1.06161
-0.969127
-0.841098