# vtk DataFile Version 2.0
generated by CFD-lab course output (written by Tobias Neckel) 
ASCII

DATASET STRUCTURED_GRID
DIMENSIONS  42 42 1 
POINTS 1764 float

0.150000 0.150000 0
0.167857 0.150000 0
0.185714 0.150000 0
0.203571 0.150000 0
0.221429 0.150000 0
0.239286 0.150000 0
0.257143 0.150000 0
0.275000 0.150000 0
0.292857 0.150000 0
0.310714 0.150000 0
0.328571 0.150000 0
0.346429 0.150000 0
0.364286 0.150000 0
0.382143 0.150000 0
0.400000 0.150000 0
0.417857 0.150000 0
0.435714 0.150000 0
0.453571 0.150000 0
0.471429 0.150000 0
0.489286 0.150000 0
0.507143 0.150000 0
0.525000 0.150000 0
0.542857 0.150000 0
0.560714 0.150000 0
0.578571 0.150000 0
0.596429 0.150000 0
0.614286 0.150000 0
0.632143 0.150000 0
0.650000 0.150000 0
0.667857 0.150000 0
0.685714 0.150000 0
0.703571 0.150000 0
0.721429 0.150000 0
0.739286 0.150000 0
0.757143 0.150000 0
0.775000 0.150000 0
0.792857 0.150000 0
0.810714 0.150000 0
0.828571 0.150000 0
0.846429 0.150000 0
0.864286 0.150000 0
0.882143 0.150000 0
0.150000 0.167857 0
0.167857 0.167857 0
0.185714 0.167857 0
0.203571 0.167857 0
0.221429 0.167857 0
0.239286 0.167857 0
0.257143 0.167857 0
0.275000 0.167857 0
0.292857 0.167857 0
0.310714 0.167857 0
0.328571 0.167857 0
0.346429 0.167857 0
0.364286 0.167857 0
0.382143 0.167857 0
0.400000 0.167857 0
0.417857 0.167857 0
0.435714 0.167857 0
0.453571 0.167857 0
0.471429 0.167857 0
0.489286 0.167857 0
0.507143 0.167857 0
0.525000 0.167857 0
0.542857 0.167857 0
0.560714 0.167857 0
0.578571 0.167857 0
0.596429 0.167857 0
0.614286 0.167857 0
0.632143 0.167857 0
0.650000 0.167857 0
0.667857 0.167857 0
0.685714 0.167857 0
0.703571 0.167857 0
0.721429 0.167857 0
0.739286 0.167857 0
0.757143 0.167857 0
0.775000 0.167857 0
0.792857 0.167857 0
0.810714 0.167857 0
0.828571 0.167857 0
0.846429 0.167857 0
0.864286 0.167857 0
0.882143 0.167857 0
0.150000 0.185714 0
0.167857 0.185714 0
0.185714 0.185714 0
0.203571 0.185714 0
0.221429 0.185714 0
0.239286 0.185714 0
0.257143 0.185714 0
0.275000 0.185714 0
0.292857 0.185714 0
0.310714 0.185714 0
0.328571 0.185714 0
0.346429 0.185714 0
0.364286 0.185714 0
0.382143 0.185714 0
0.400000 0.185714 0
0.417857 0.185714 0
0.435714 0.185714 0
0.453571 0.185714 0
0.471429 0.185714 0
0.489286 0.185714 0
0.507143 0.185714 0
0.525000 0.185714 0
0.542857 0.185714 0
0.560714 0.185714 0
0.578571 0.185714 0
0.596429 0.185714 0
0.614286 0.185714 0
0.632143 0.185714 0
0.650000 0.185714 0
0.667857 0.185714 0
0.685714 0.185714 0
0.703571 0.185714 0
0.721429 0.185714 0
0.739286 0.185714 0
0.757143 0.185714 0
0.775000 0.185714 0
0.792857 0.185714 0
0.810714 0.185714 0
0.828571 0.185714 0
0.846429 0.185714 0
0.864286 0.185714 0
0.882143 0.185714 0
0.150000 0.203571 0
0.167857 0.203571 0
0.185714 0.203571 0
0.203571 0.203571 0
0.221429 0.203571 0
0.239286 0.203571 0
0.257143 0.203571 0
0.275000 0.203571 0
0.292857 0.203571 0
0.310714 0.203571 0
0.328571 0.203571 0
0.346429 0.203571 0
0.364286 0.203571 0
0.382143 0.203571 0
0.400000 0.203571 0
0.417857 0.203571 0
0.435714 0.203571 0
0.453571 0.203571 0
0.471429 0.203571 0
0.489286 0.203571 0
0.507143 0.203571 0
0.525000 0.203571 0
0.542857 0.203571 0
0.560714 0.203571 0
0.578571 0.203571 0
0.596429 0.203571 0
0.614286 0.203571 0
0.632143 0.203571 0
0.650000 0.203571 0
0.667857 0.203571 0
0.685714 0.203571 0
0.703571 0.203571 0
0.721429 0.203571 0
0.739286 0.203571 0
0.757143 0.203571 0
0.775000 0.203571 0
0.792857 0.203571 0
0.810714 0.203571 0
0.828571 0.203571 0
0.846429 0.203571 0
0.864286 0.203571 0
0.882143 0.203571 0
0.150000 0.221429 0
0.167857 0.221429 0
0.185714 0.221429 0
0.203571 0.221429 0
0.221429 0.221429 0
0.239286 0.221429 0
0.257143 0.221429 0
0.275000 0.221429 0
0.292857 0.221429 0
0.310714 0.221429 0
0.328571 0.221429 0
0.346429 0.221429 0
0.364286 0.221429 0
0.382143 0.221429 0
0.400000 0.221429 0
0.417857 0.221429 0
0.435714 0.221429 0
0.453571 0.221429 0
0.471429 0.221429 0
0.489286 0.221429 0
0.507143 0.221429 0
0.525000 0.221429 0
0.542857 0.221429 0
0.560714 0.221429 0
0.578571 0.221429 0
0.596429 0.221429 0
0.614286 0.221429 0
0.632143 0.221429 0
0.650000 0.221429 0
0.667857 0.221429 0
0.685714 0.221429 0
0.703571 0.221429 0
0.721429 0.221429 0
0.739286 0.221429 0
0.757143 0.221429 0
0.775000 0.221429 0
0.792857 0.221429 0
0.810714 0.221429 0
0.828571 0.221429 0
0.846429 0.221429 0
0.864286 0.221429 0
0.882143 0.221429 0
0.150000 0.239286 0
0.167857 0.239286 0
0.185714 0.239286 0
0.203571 0.239286 0
0.221429 0.239286 0
0.239286 0.239286 0
0.257143 0.239286 0
0.275000 0.239286 0
0.292857 0.239286 0
0.310714 0.239286 0
0.328571 0.239286 0
0.346429 0.239286 0
0.364286 0.239286 0
0.382143 0.239286 0
0.400000 0.239286 0
0.417857 0.239286 0
0.435714 0.239286 0
0.453571 0.239286 0
0.471429 0.239286 0
0.489286 0.239286 0
0.507143 0.239286 0
0.525000 0.239286 0
0.542857 0.239286 0
0.560714 0.239286 0
0.578571 0.239286 0
0.596429 0.239286 0
0.614286 0.239286 0
0.632143 0.239286 0
0.650000 0.239286 0
0.667857 0.239286 0
0.685714 0.239286 0
0.703571 0.239286 0
0.721429 0.239286 0
0.739286 0.239286 0
0.757143 0.239286 0
0.775000 0.239286 0
0.792857 0.239286 0
0.810714 0.239286 0
0.828571 0.239286 0
0.846429 0.239286 0
0.864286 0.239286 0
0.882143 0.239286 0
0.150000 0.257143 0
0.167857 0.257143 0
0.185714 0.257143 0
0.203571 0.257143 0
0.221429 0.257143 0
0.239286 0.257143 0
0.257143 0.257143 0
0.275000 0.257143 0
0.292857 0.257143 0
0.310714 0.257143 0
0.328571 0.257143 0
0.346429 0.257143 0
0.364286 0.257143 0
0.382143 0.257143 0
0.400000 0.257143 0
0.417857 0.257143 0
0.435714 0.257143 0
0.453571 0.257143 0
0.471429 0.257143 0
0.489286 0.257143 0
0.507143 0.257143 0
0.525000 0.257143 0
0.542857 0.257143 0
0.560714 0.257143 0
0.578571 0.257143 0
0.596429 0.257143 0
0.614286 0.257143 0
0.632143 0.257143 0
0.650000 0.257143 0
0.667857 0.257143 0
0.685714 0.257143 0
0.703571 0.257143 0
0.721429 0.257143 0
0.739286 0.257143 0
0.757143 0.257143 0
0.775000 0.257143 0
0.792857 0.257143 0
0.810714 0.257143 0
0.828571 0.257143 0
0.846429 0.257143 0
0.864286 0.257143 0
0.882143 0.257143 0
0.150000 0.275000 0
0.167857 0.275000 0
0.185714 0.275000 0
0.203571 0.275000 0
0.221429 0.275000 0
0.239286 0.275000 0
0.257143 0.275000 0
0.275000 0.275000 0
0.292857 0.275000 0
0.310714 0.275000 0
0.328571 0.275000 0
0.346429 0.275000 0
0.364286 0.275000 0
0.382143 0.275000 0
0.400000 0.275000 0
0.417857 0.275000 0
0.435714 0.275000 0
0.453571 0.275000 0
0.471429 0.275000 0
0.489286 0.275000 0
0.507143 0.275000 0
0.525000 0.275000 0
0.542857 0.275000 0
0.560714 0.275000 0
0.578571 0.275000 0
0.596429 0.275000 0
0.614286 0.275000 0
0.632143 0.275000 0
0.650000 0.275000 0
0.667857 0.275000 0
0.685714 0.275000 0
0.703571 0.275000 0
0.721429 0.275000 0
0.739286 0.275000 0
0.757143 0.275000 0
0.775000 0.275000 0
0.792857 0.275000 0
0.810714 0.275000 0
0.828571 0.275000 0
0.846429 0.275000 0
0.864286 0.275000 0
0.882143 0.275000 0
0.150000 0.292857 0
0.167857 0.292857 0
0.185714 0.292857 0
0.203571 0.292857 0
0.221429 0.292857 0
0.239286 0.292857 0
0.257143 0.292857 0
0.275000 0.292857 0
0.292857 0.292857 0
0.310714 0.292857 0
0.328571 0.292857 0
0.346429 0.292857 0
0.364286 0.292857 0
0.382143 0.292857 0
0.400000 0.292857 0
0.417857 0.292857 0
0.435714 0.292857 0
0.453571 0.292857 0
0.471429 0.292857 0
0.489286 0.292857 0
0.507143 0.292857 0
0.525000 0.292857 0
0.542857 0.292857 0
0.560714 0.292857 0
0.578571 0.292857 0
0.596429 0.292857 0
0.614286 0.292857 0
0.632143 0.292857 0
0.650000 0.292857 0
0.667857 0.292857 0
0.685714 0.292857 0
0.703571 0.292857 0
0.721429 0.292857 0
0.739286 0.292857 0
0.757143 0.292857 0
0.775000 0.292857 0
0.792857 0.292857 0
0.810714 0.292857 0
0.828571 0.292857 0
0.846429 0.292857 0
0.864286 0.292857 0
0.882143 0.292857 0
0.150000 0.310714 0
0.167857 0.310714 0
0.185714 0.310714 0
0.203571 0.310714 0
0.221429 0.310714 0
0.239286 0.310714 0
0.257143 0.310714 0
0.275000 0.310714 0
0.292857 0.310714 0
0.310714 0.310714 0
0.328571 0.310714 0
0.346429 0.310714 0
0.364286 0.310714 0
0.382143 0.310714 0
0.400000 0.310714 0
0.417857 0.310714 0
0.435714 0.310714 0
0.453571 0.310714 0
0.471429 0.310714 0
0.489286 0.310714 0
0.507143 0.310714 0
0.525000 0.310714 0
0.542857 0.310714 0
0.560714 0.310714 0
0.578571 0.310714 0
0.596429 0.310714 0
0.614286 0.310714 0
0.632143 0.310714 0
0.650000 0.310714 0
0.667857 0.310714 0
0.685714 0.310714 0
0.703571 0.310714 0
0.721429 0.310714 0
0.739286 0.310714 0
0.757143 0.310714 0
0.775000 0.310714 0
0.792857 0.310714 0
0.810714 0.310714 0
0.828571 0.310714 0
0.846429 0.310714 0
0.864286 0.310714 0
0.882143 0.310714 0
0.150000 0.328571 0
0.167857 0.328571 0
0.185714 0.328571 0
0.203571 0.328571 0
0.221429 0.328571 0
0.239286 0.328571 0
0.257143 0.328571 0
0.275000 0.328571 0
0.292857 0.328571 0
0.310714 0.328571 0
0.328571 0.328571 0
0.346429 0.328571 0
0.364286 0.328571 0
0.382143 0.328571 0
0.400000 0.328571 0
0.417857 0.328571 0
0.435714 0.328571 0
0.453571 0.328571 0
0.471429 0.328571 0
0.489286 0.328571 0
0.507143 0.328571 0
0.525000 0.328571 0
0.542857 0.328571 0
0.560714 0.328571 0
0.578571 0.328571 0
0.596429 0.328571 0
0.614286 0.328571 0
0.632143 0.328571 0
0.650000 0.328571 0
0.667857 0.328571 0
0.685714 0.328571 0
0.703571 0.328571 0
0.721429 0.328571 0
0.739286 0.328571 0
0.757143 0.328571 0
0.775000 0.328571 0
0.792857 0.328571 0
0.810714 0.328571 0
0.828571 0.328571 0
0.846429 0.328571 0
0.864286 0.328571 0
0.882143 0.328571 0
0.150000 0.346429 0
0.167857 0.346429 0
0.185714 0.346429 0
0.203571 0.346429 0
0.221429 0.346429 0
0.239286 0.346429 0
0.257143 0.346429 0
0.275000 0.346429 0
0.292857 0.346429 0
0.310714 0.346429 0
0.328571 0.346429 0
0.346429 0.346429 0
0.364286 0.346429 0
0.382143 0.346429 0
0.400000 0.346429 0
0.417857 0.346429 0
0.435714 0.346429 0
0.453571 0.346429 0
0.471429 0.346429 0
0.489286 0.346429 0
0.507143 0.346429 0
0.525000 0.346429 0
0.542857 0.346429 0
0.560714 0.346429 0
0.578571 0.346429 0
0.596429 0.346429 0
0.614286 0.346429 0
0.632143 0.346429 0
0.650000 0.346429 0
[...]
POINT_DATA 1764 

VECTORS velocity float
0.000000 0.000000 0
-0.000003 0.000000 0
-0.000004 0.000000 0
-0.000004 0.000000 0
-0.000003 0.000000 0
-0.000002 0.000000 0
-0.000001 0.000000 0
-0.000005 0.000000 0
-0.000002 0.000000 0
0.000006 0.000000 0
0.000011 0.000000 0
0.000012 0.000000 0
0.000014 0.000000 0
0.000015 0.000000 0
0.000015 0.000000 0
0.000015 0.000000 0
0.000015 0.000000 0
0.000015 0.000000 0
0.000015 0.000000 0
0.000015 0.000000 0
0.000014 0.000000 0
0.000014 0.000000 0
0.000014 0.000000 0
0.000014 0.000000 0
0.000014 0.000000 0
0.000014 0.000000 0
0.000015 0.000000 0
0.000015 0.000000 0
0.000015 0.000000 0
0.000016 0.000000 0
0.000016 0.000000 0
0.000017 0.000000 0
0.000017 0.000000 0
0.000017 0.000000 0
0.000017 0.000000 0
0.000016 0.000000 0
0.000014 0.000000 0
0.000011 0.000000 0
0.000007 0.000000 0
-0.000001 0.000000 0
-0.000000 0.000000 0
0.000000 0.000000 0
0.000000 0.000003 0
0.040549 -0.037124 0
0.070655 -0.020842 0
0.081474 -0.001784 0
0.075310 0.009679 0
0.064307 0.014156 0
0.051340 0.008538 0
0.028932 -0.008288 0
-0.001651 0.001608 0
-0.039965 0.033311 0
-0.086527 0.047676 0
-0.134993 0.049726 0
-0.181595 0.047663 0
-0.224348 0.043942 0
-0.262216 0.039230 0
-0.294868 0.034235 0
-0.322436 0.029387 0
-0.345320 0.024933 0
-0.364049 0.020984 0
-0.379172 0.017552 0
-0.391201 0.014592 0
-0.400565 0.012022 0
-0.407592 0.009741 0
-0.412494 0.007619 0
-0.415355 0.005508 0
-0.416127 0.003259 0
-0.414626 0.000714 0
-0.410625 -0.002288 0
-0.403711 -0.005878 0
-0.393329 -0.010166 0
-0.378766 -0.015317 0
-0.359150 -0.021513 0
-0.333472 -0.028881 0
-0.300638 -0.037457 0
-0.259608 -0.047033 0
-0.209694 -0.056878 0
-0.151243 -0.065067 0
-0.087087 -0.067015 0
-0.025437 -0.047740 0
0.014909 0.001759 0
0.000055 -0.000001 0
0.000000 -0.016685 0
0.000000 0.000004 0
0.031756 -0.070655 0
0.053057 -0.040925 0
0.061754 -0.004655 0
0.049181 0.017166 0
0.026328 0.023970 0
-0.004998 0.035375 0
-0.053909 0.052991 0
-0.121069 0.068897 0
-0.173369 0.084875 0
-0.217429 0.095028 0
-0.257877 0.095068 0
-0.294566 0.089355 0
-0.326425 0.080621 0
-0.353248 0.070520 0
-0.375198 0.060220 0
-0.392692 0.050452 0
-0.406273 0.041613 0
-0.416505 0.033852 0
-0.423915 0.027153 0
-0.428951 0.021393 0
-0.431966 0.016390 0
-0.433215 0.011929 0
-0.432844 0.007764 0
-0.430915 0.003633 0
-0.427383 -0.000730 0
-0.422237 -0.005502 0
-0.415246 -0.010915 0
-0.406114 -0.017296 0
-0.394383 -0.024945 0
-0.379451 -0.034179 0
-0.360622 -0.045294 0
-0.337101 -0.058512 0
-0.308052 -0.073864 0
-0.272678 -0.090945 0
-0.230422 -0.108364 0
-0.181416 -0.122606 0
-0.127334 -0.125806 0
-0.072798 -0.101996 0
-0.022226 -0.025437 0
0.000011 0.000006 0
0.000000 -0.014903 0
0.000000 0.000004 0
0.014450 -0.090181 0
0.016476 -0.050841 0
0.003891 0.002092 0
-0.018939 0.045105 0
-0.056133 0.068335 0
-0.104895 0.088775 0
-0.154647 0.107783 0
-0.202584 0.121069 0
-0.245264 0.129671 0
-0.279111 0.132184 0
-0.306760 0.126863 0
-0.329307 0.116211 0
-0.347185 0.102623 0
-0.360928 0.088003 0
-0.371131 0.073679 0
-0.378407 0.060462 0
-0.383325 0.048746 0
-0.386376 0.038626 0
-0.387955 0.029998 0
-0.388359 0.022644 0
-0.387796 0.016286 0
-0.386391 0.010619 0
-0.384203 0.005319 0
-0.381246 0.000046 0
-0.377516 -0.005419 0
-0.372927 -0.011423 0
-0.367209 -0.018411 0
-0.360061 -0.026742 0
-0.351085 -0.036829 0
-0.339797 -0.049078 0
-0.325648 -0.063863 0
-0.308041 -0.081451 0
-0.286369 -0.101880 0
-0.260028 -0.124662 0
-0.228437 -0.148139 0
-0.191117 -0.168155 0
-0.147901 -0.175633 0
-0.099326 -0.152848 0
-0.047376 -0.071039 0
-0.000057 0.000012 0
0.000000 0.005553 0
0.000000 0.000002 0
-0.009727 -0.087131 0
-0.031519 -0.030365 0
-0.064120 0.030760 0
-0.093347 0.077190 0
-0.129587 0.109926 0
-0.170423 0.133889 0
-0.209492 0.150680 0
-0.244320 0.159514 0
-0.273585 0.161403 0
-0.295231 0.156525 0
-0.310618 0.145264 0
-0.321048 0.129779 0
-0.327612 0.112241 0
-0.331260 0.094467 0
-0.332798 0.077699 0
-0.332878 0.062645 0
-0.332006 0.049581 0
-0.330541 0.038482 0
-0.328726 0.029136 0
-0.326704 0.021234 0
-0.324544 0.014422 0
-0.322261 0.008336 0
-0.319832 0.002619 0
-0.317209 -0.003054 0
-0.314417 -0.009049 0
-0.311170 -0.015809 0
-0.307314 -0.023781 0
-0.302580 -0.033421 0
-0.296640 -0.045209 0
-0.289090 -0.059616 0
-0.279479 -0.077050 0
-0.267353 -0.097790 0
-0.252292 -0.121878 0
-0.233879 -0.148877 0
-0.211542 -0.177275 0
-0.184302 -0.203142 0
-0.150538 -0.217597 0
-0.107988 -0.202521 0
-0.055158 -0.124764 0
-0.000116 0.000015 0
0.000000 0.032482 0
0.000000 -0.000001 0
-0.031959 -0.058662 0
-0.071192 0.003553 0
-0.105884 0.063920 0
-0.138545 0.110572 0
-0.171459 0.145411 0
-0.203666 0.168679 0
-0.232198 0.181681 0
-0.255530 0.185162 0
-0.272888 0.180582 0
-0.283696 0.169217 0
-0.289057 0.152680 0
-0.290295 0.133205 0
-0.288681 0.112836 0
-0.285291 0.093189 0
-0.280965 0.075297 0
-0.276316 0.059670 0
-0.271755 0.046409 0
-0.267526 0.035346 0
-0.263747 0.026160 0
-0.260449 0.018462 0
-0.257601 0.011843 0
-0.255143 0.005907 0
-0.253001 0.000267 0
-0.251103 -0.005369 0
-0.249314 -0.011459 0
-0.247476 -0.018526 0
-0.245445 -0.027001 0
-0.243013 -0.037416 0
-0.239892 -0.050319 0
-0.235704 -0.066239 0
-0.230007 -0.085600 0
-0.222382 -0.108638 0
-0.212520 -0.135354 0
-0.200196 -0.165413 0
-0.184986 -0.197716 0
-0.165778 -0.229158 0
-0.140222 -0.251948 0
-0.104490 -0.248228 0
-0.055107 -0.179027 0
-0.000157 0.000017 0
0.000000 0.060717 0
0.000000 -0.000003 0
-0.044583 -0.015938 0
-0.088944 0.043560 0
-0.125224 0.098113 0
-0.158100 0.142765 0
-0.187185 0.175047 0
-0.212215 0.194628 0
-0.232025 0.202544 0
-0.246016 0.200205 0
-0.254055 0.189569 0
-0.256453 0.172694 0
-0.254371 0.151863 0
-0.249129 0.129403 0
-0.242000 0.107238 0
-0.234039 0.086751 0
-0.226040 0.068724 0
-0.218543 0.053435 0
-0.211867 0.040791 0
-0.206159 0.030475 0
-0.201440 0.022060 0
-0.197648 0.015088 0
-0.194677 0.009116 0
-0.192406 0.003735 0
-0.190724 -0.001421 0
-0.189553 -0.006742 0
-0.188659 -0.012676 0
-0.188017 -0.019677 0
-0.187533 -0.028244 0
-0.187074 -0.038974 0
-0.186396 -0.052519 0
-0.185109 -0.069502 0
-0.182695 -0.090372 0
-0.178639 -0.115277 0
-0.172627 -0.144063 0
-0.164596 -0.176411 0
-0.154383 -0.211694 0
-0.141110 -0.247907 0
-0.122423 -0.278885 0
-0.093922 -0.287636 0
-0.050836 -0.229253 0
-0.000181 0.000019 0
0.000000 0.087593 0
0.000000 -0.000006 0
-0.047807 0.030282 0
-0.091060 0.084194 0
-0.128108 0.133076 0
-0.159283 0.172532 0
-0.184463 0.199526 0
-0.203695 0.213519 0
-0.216749 0.215482 0
-0.223715 0.207193 0
-0.225019 0.191019 0
-0.221479 0.169532 0
-0.214347 0.145356 0
-0.204929 0.120835 0
-0.194440 0.097746 0
-0.183863 0.077229 0
-0.173913 0.059801 0
-0.165046 0.045497 0
-0.157498 0.034025 0
-0.151336 0.024919 0
-0.146499 0.017649 0
-0.142845 0.011699 0
-0.140191 0.006601 0
-0.138347 0.001955 0
-0.137152 -0.002585 0
-0.136488 -0.007434 0
-0.136220 -0.012995 0
-0.136350 -0.019653 0
-0.136889 -0.027944 0
-0.137816 -0.038552 0
-0.138978 -0.052284 0
-0.139996 -0.069941 0
-0.140242 -0.092069 0
-0.139001 -0.118706 0
-0.135835 -0.149398 0
-0.130767 -0.183657 0
-0.123902 -0.221202 0
-0.114777 -0.261118 0
-0.101527 -0.299136 0
-0.079908 -0.319815 0
-0.044325 -0.272949 0
-0.000187 0.000020 0
0.000000 0.111556 0
0.000000 -0.000007 0
-0.044109 0.075121 0
-0.085400 0.123861 0
-0.120438 0.166336 0
-0.148684 0.199119 0
-0.169997 0.219459 0
-0.184549 0.226914 0
-0.192574 0.222564 0
-0.194591 0.208475 0
-0.191391 0.187333 0
-0.184058 0.162022 0
-0.173884 0.135313 0
-0.162136 0.109496 0
-0.149942 0.086171 0
-0.138187 0.066223 0
-0.127492 0.049908 0
-0.118232 0.037021 0
-0.110585 0.027080 0
-0.104583 0.019475 0
-0.100133 0.013569 0
-0.097041 0.008780 0
-0.095060 0.004617 0
-0.093928 0.000697 0
-0.093403 -0.003279 0
-0.093293 -0.007673 0
-0.093535 -0.012814 0
-0.094144 -0.019008 0
-0.095216 -0.026778 0
-0.096860 -0.036885 0
-0.099086 -0.050338 0
-0.101618 -0.068237 0
-0.103764 -0.091367 0
-0.104596 -0.119684 0
-0.103498 -0.152297 0
-0.100521 -0.188344 0
-0.095940 -0.227683 0
-0.089686 -0.270282 0
-0.080571 -0.313754 0
-0.064997 -0.344838 0
-0.037021 -0.309161 0
-0.000179 0.000020 0
0.000000 0.131919 0
0.000000 -0.000008 0
-0.038023 0.115681 0
-0.075376 0.160523 0
-0.106730 0.196361 0
-0.131318 0.222091 0
-0.148909 0.235390 0
-0.159696 0.236096 0
-0.164111 0.225523 0
-0.162881 0.206009 0
-0.156977 0.180487 0
-0.147575 0.152026 0
-0.135939 0.123434 0
-0.123255 0.096892 0
-0.110537 0.073797 0
-0.098546 0.054779 0
-0.087787 0.039846 0
-0.078559 0.028590 0
-0.071033 0.020376 0
-0.065300 0.014466 0
-0.061320 0.010107 0
-0.058908 0.006626 0
-0.057774 0.003488 0
-0.057587 0.000298 0
-0.058007 -0.003220 0
-0.058750 -0.007302 0
-0.059738 -0.012144 0
-0.060959 -0.017972 0
-0.062503 -0.025228 0
-0.064544 -0.034681 0
-0.067242 -0.047526 0
-0.070495 -0.065263 0
-0.073667 -0.089092 0
-0.075717 -0.118972 0
-0.075944 -0.153472 0
-0.074422 -0.191216 0
-0.071482 -0.232037 0
-0.067299 -0.276488 0
-0.061304 -0.323825 0
-0.050769 -0.363365 0
-0.029842 -0.337946 0
-0.000163 0.000020 0
0.000000 0.148576 0
0.000000 -0.000008 0
-0.031249 0.150498 0
-0.063268 0.192568 0
-0.090053 0.222277 0
-0.110669 0.241299 0
-0.124799 0.247837 0
-0.132595 0.242115 0
-0.134539 0.225749 0
-0.131406 0.201341 0
-0.124196 0.172027 0
-0.114057 0.140984 0
-0.102162 0.110993 0
-0.089577 0.084095 0
-0.077170 0.061462 0
-0.065549 0.043474 0
-0.055080 0.029921 0
-0.045987 0.020266 0
-0.038481 0.013821 0
-0.032859 0.009762 0
-0.029197 0.007177 0
-0.027331 0.005234 0
-0.026935 0.003297 0
-0.027643 0.000930 0
-0.029093 -0.002117 0
-0.030878 -0.005943 0
-0.032884 -0.010605 0
-0.035043 -0.016242 0
-0.037351 -0.023192 0
-0.039923 -0.032147 0
-0.042946 -0.044388 0
-0.046423 -0.061812 0
-0.049835 -0.086145 0
-0.052214 -0.117407 0
-0.053019 -0.153593 0
-0.052403 -0.192807 0
-0.050673 -0.234806 0
-0.048082 -0.280460 0
-0.044489 -0.330284 0
-0.038036 -0.376299 0
-0.023297 -0.359930 0
-0.000142 0.000019 0
0.000000 0.161761 0
0.000000 -0.000008 0
-0.024222 0.178949 0
-0.050411 0.219328 0
-0.072334 0.243762 0
-0.088983 0.256837 0
-0.099999 0.257316 0
-0.105478 0.245836 0
-0.105858 0.224334 0
-0.101864 0.195667 0
-0.094420 0.163138 0
-0.084563 0.129992 0
-0.073328 0.098954 0
-0.061629 0.071900 0
-0.050170 0.049768 0
-0.039381 0.032689 0
-0.029477 0.020285 0
-0.020622 0.011991 0
-0.013136 0.007248 0
-0.007707 0.005182 0
-0.004444 0.004579 0
-0.003020 0.004365 0
-0.003066 0.003800 0
-0.004256 0.002456 0
-0.006326 0.000015 0
-0.008990 -0.003511 0
-0.011975 -0.007979 0
-0.015144 -0.013505 0
-0.018366 -0.020348 0
-0.021662 -0.029086 0
-0.025088 -0.041026 0
-0.028565 -0.058373 0
-0.031615 -0.083301 0
-0.033544 -0.115788 0
-0.034276 -0.153284 0
-0.034100 -0.193562 0
-0.033245 -0.236357 0
-0.031940 -0.282671 0
-0.030263 -0.333872 0
-0.027079 -0.384558 0
-0.017597 -0.375982 0
-0.000120 0.000019 0
0.000000 0.171872 0
0.000000 -0.000008 0
-0.017236 0.200909 0
-0.037574 0.240681 0
-0.054697 0.260849 0
-0.067583 0.268963 0
-0.075875 0.264331 0
-0.079612 0.247974 0
-0.079150 0.222136 0
-0.075097 0.189904 0
-0.068236 0.154726 0
-0.059440 0.119892 0
-0.049578 0.088060 0
-0.039394 0.060937 0
-0.029409 0.039213 0
-0.019871 0.022781 0
-0.010829 0.011162 0
-0.002362 0.003925 0
0.004133 0.000906 0
0.008554 0.001070 0
0.011177 0.002490 0
0.012316 0.003856 0
0.012212 0.004532 0
0.011057 0.004190 0
0.009004 0.002618 0
0.006112 -0.000293 0
0.002656 -0.004451 0
-0.001094 -0.009852 0
-0.004988 -0.016674 0
-0.008913 -0.025425 0
-0.012622 -0.037485 0
-0.015818 -0.055285 0
-0.017964 -0.081165 0
-0.018856 -0.114745 0
-0.019071 -0.153037 0
-0.018991 -0.193838 0
-0.018755 -0.236965 0
-0.018515 -0.283442 0
-0.018418 -0.335145 0
-0.017862 -0.388965 0
-0.012768 -0.387009 0
-0.000100 0.000018 0
0.000000 0.179357 0
0.000000 -0.000008 0
-0.010479 0.216523 0
-0.025169 0.256789 0
-0.037726 0.273771 0
-0.047139 0.278014 0
-0.053086 0.269345 0
-0.055560 0.249111 0
-0.054814 0.219819 0
-0.051308 0.184752 0
-0.045646 0.147481 0
-0.038512 0.111334 0
-0.030586 0.078907 0
-0.022437 0.051731 0
-0.014395 0.030246 0
-0.006503 0.014109 0
0.001278 0.002776 0
0.007663 -0.002972 0
0.012043 -0.003669 0
0.015086 -0.001862 0
0.017183 0.000818 0
0.018334 0.003330 0
0.018510 0.005059 0
0.017739 0.005663 0
0.016090 0.004960 0
0.013617 0.002838 0
0.010405 -0.000773 0
0.006701 -0.005862 0
0.002725 -0.012529 0
-0.001221 -0.021452 0
-0.004688 -0.034121 0
-0.006999 -0.053031 0
-0.007639 -0.080262 0
-0.007159 -0.114681 0
-0.006658 -0.153149 0
-0.006487 -0.193877 0
-0.006697 -0.236833 0
-0.007358 -0.283008 0
-0.008599 -0.334524 0
-0.010182 -0.390207 0
-0.008730 -0.393844 0
-0.000084 0.000017 0
0.000000 0.184639 0
0.000000 -0.000008 0
-0.004096 0.226078 0
-0.013356 0.267928 0
-0.021651 0.282820 0
-0.027890 0.284324 0
-0.031815 0.272752 0
-0.033390 0.249702 0
-0.032765 0.217883 0
-0.030243 0.180735 0
-0.026234 0.141929 0
-0.021215 0.104831 0
-0.015676 0.071984 0
-0.010015 0.044746 0
-0.004362 0.023280 0
0.001343 0.007109 0
0.006473 -0.003003 0
0.009694 -0.006840 0
0.012041 -0.006517 0
0.013977 -0.004071 0
0.015587 -0.000757 0
0.016740 0.002529 0
0.017237 0.005127 0
0.016969 0.006610 0
0.015913 0.006739 0
0.014106 0.005391 0
0.011606 0.002465 0
0.008526 -0.002171 0
0.005164 -0.008751 0
0.002019 -0.018012 0
-0.000240 -0.031707 0
-0.000706 -0.052333 0
0.000675 -0.081006 0
0.002505 -0.115726 0
0.003691 -0.153709 0
0.004000 -0.193799 0
0.003432 -0.236095 0
0.001981 -0.281540 0
-0.000409 -0.332321 0
-0.003769 -0.388834 0
-0.005351 -0.397192 0
-0.000071 0.000017 0
0.000000 0.188085 0
0.000000 -0.000007 0
0.001750 0.229880 0
-0.002191 0.274344 0
-0.006479 0.288305 0
-0.009795 0.288178 0
-0.011932 0.274845 0
-0.012841 0.250061 0
-0.012588 0.216672 0
-0.011327 0.178221 0
-0.009274 0.138454 0
-0.006701 0.100777 0
-0.003907 0.067707 0
-0.001125 0.040417 0
0.001624 0.018888 0
0.004264 0.003274 0
0.005955 -0.005575 0
0.006866 -0.008540 0
0.007577 -0.007952 0
0.008336 -0.005408 0
0.009184 -0.001946 0
0.010019 0.001680 0
0.010615 0.004830 0
0.010766 0.006988 0
0.010355 0.007823 0
0.009354 0.007145 0
0.007814 0.004806 0
0.005858 0.000580 0
0.003792 -0.006023 0
0.002346 -0.016049 0
0.002433 -0.031396 0
0.004607 -0.053945 0
0.008011 -0.083473 0
0.010958 -0.117698 0
0.012694 -0.154644 0
0.013086 -0.193618 0
0.012160 -0.234814 0
0.009947 -0.279167 0
0.006449 -0.328774 0
0.001652 -0.385265 0
-0.002471 -0.397613 0
-0.000061 0.000016 0
0.000000 0.189989 0
0.000000 -0.000007 0
0.007096 0.228268 0
0.008315 0.276157 0
0.007848 0.290424 0
0.007292 0.289777 0
0.006843 0.275798 0
0.006527 0.250358 0
0.006330 0.216370 0
0.006219 0.177421 0
0.006152 0.137303 0
0.006059 0.099465 0
0.005845 0.066409 0
0.005455 0.039215 0
0.004891 0.017890 0
0.004002 0.002777 0
0.002887 -0.005605 0
0.001900 -0.008461 0
0.001093 -0.007987 0
0.000609 -0.005678 0
0.000506 -0.002440 0
0.000736 0.001098 0
0.001162 0.004380 0
0.001572 0.006870 0
0.001785 0.008151 0
0.001707 0.007932 0
0.001369 0.005961 0
0.000956 0.001850 0
0.000933 -0.005239 0
0.002227 -0.016653 0
0.005436 -0.033968 0
0.010248 -0.057911 0
0.015182 -0.087357 0
0.018919 -0.120409 0
0.020989 -0.155836 0
0.021324 -0.193265 0
0.019967 -0.232956 0
0.016967 -0.275830 0
0.012356 -0.324026 0
0.006241 -0.379913 0
0.000046 -0.395540 0
-0.000055 0.000015 0
0.000000 0.190555 0
0.000000 -0.000006 0
0.012097 0.221565 0
0.018245 0.273592 0
0.021435 0.289327 0
0.023535 0.289183 0
0.024762 0.275610 0
0.025098 0.250574 0
0.024540 0.216980 0
0.023136 0.178399 0
0.020988 0.138614 0
0.018231 0.101083 0
0.015005 0.068311 0
0.011441 0.041372 0
0.007604 0.020340 0
0.003473 0.005278 0
-0.000328 -0.003474 0
-0.003099 -0.006746 0
-0.005289 -0.006661 0
-0.006918 -0.004821 0
-0.007958 -0.002073 0
-0.008412 0.001024 0
-0.008319 0.003994 0
-0.007804 0.006365 0
-0.007028 0.007689 0
-0.006082 0.007561 0
-0.004915 0.005557 0
-0.003238 0.001015 0
-0.000394 -0.007294 0
0.004223 -0.020551 0
0.010383 -0.039417 0
0.017061 -0.063691 0
0.022862 -0.092144 0
0.026955 -0.123505 0
0.029058 -0.157050 0
0.029135 -0.192597 0
0.027225 -0.230458 0
0.023383 -0.271555 0
0.017672 -0.318048 0
0.010211 -0.372955 0
0.002288 -0.391372 0
-0.000050 0.000015 0
0.000000 0.189942 0
0.000000 -0.000005 0
0.016773 0.210023 0
0.027668 0.266818 0
0.034406 0.285134 0
0.039075 0.286450 0
0.041996 0.274235 0
0.043117 0.250580 0
0.042422 0.218333 0
0.040005 0.180973 0
0.036085 0.142207 0
0.030988 0.105448 0
0.025091 0.073200 0
0.018736 0.046616 0
0.012106 0.025858 0
0.005325 0.010709 0
-0.001143 0.000967 0
-0.006054 -0.003501 0
-0.009515 -0.004169 0
-0.012056 -0.003009 0
-0.013807 -0.000946 0
-0.014769 0.001460 0
-0.014924 0.003772 0
-0.014293 0.005579 0
-0.012921 0.006429 0
-0.010806 0.005819 0
-0.007770 0.003117 0
-0.003483 -0.002670 0
0.002571 -0.012700 0
0.009932 -0.027430 0
0.017923 -0.046807 0
0.025412 -0.070390 0
0.031421 -0.097251 0
0.035435 -0.126604 0
0.037258 -0.158017 0
0.036848 -0.191432 0
0.034225 -0.227203 0
0.029443 -0.266277 0
0.022586 -0.310854 0
0.013812 -0.364529 0
0.004313 -0.385329 0
-0.000047 0.000014 0
0.000000 0.188267 0
0.000000 -0.000004 0
0.021065 0.193897 0
0.036525 0.255959 0
0.046752 0.277920 0
0.053950 0.281593 0
0.058625 0.271567 0
0.060735 0.250147 0
0.060243 0.220093 0
0.057264 0.184736 0
0.052102 0.147630 0
0.045234 0.112078 0
0.037251 0.080564 0
0.028708 0.054357 0
0.019971 0.033752 0
0.011313 0.018526 0
0.003022 0.007905 0
-0.004221 0.001627 0
-0.009386 -0.000660 0
-0.012729 -0.000529 0
-0.014895 0.000641 0
-0.016027 0.002140 0
-0.016123 0.003517 0
-0.015118 0.004362 0
-0.012923 0.004203 0
-0.009395 0.002410 0
-0.004265 -0.001765 0
0.002551 -0.009326 0
0.010704 -0.020709 0
0.019412 -0.035903 0
0.027938 -0.054897 0
0.035369 -0.077189 0
0.041043 -0.102166 0
0.044588 -0.129342 0
0.045825 -0.158463 0
0.044688 -0.189564 0
0.041174 -0.223053 0
0.035334 -0.259916 0
0.027269 -0.302416 0
0.017169 -0.354682 0
0.006173 -0.377560 0
-0.000045 0.000014 0
0.000000 0.185628 0
0.000000 -0.000003 0
0.024816 0.173498 0
0.044615 0.241130 0
0.058307 0.267710 0
0.068053 0.274578 0
0.074593 0.267449 0
0.077952 0.248962 0
0.078084 0.221804 0
0.075106 0.189115 0
0.069372 0.154237 0
0.061462 0.120298 0
0.052122 0.089726 0
0.042092 0.063896 0
0.031940 0.043253 0
0.022103 0.027658 0
0.012938 0.016501 0
0.004554 0.008907 0
-0.002226 0.004339 0
-0.006881 0.002500 0
-0.009536 0.002352 0
-0.010610 0.002688 0
-0.010337 0.002863 0
-0.008633 0.002379 0
-0.005319 0.000706 0
-0.000308 -0.002839 0
0.006361 -0.008829 0
0.014433 -0.017639 0
0.023145 -0.029562 0
0.031952 -0.044664 0
0.040089 -0.062763 0
0.046869 -0.083495 0
0.051788 -0.106470 0
0.054524 -0.131386 0
0.054889 -0.158117 0
0.052788 -0.186781 0
0.048199 -0.217849 0
0.041168 -0.252371 0
0.031814 -0.292689 0
0.020366 -0.343434 0
0.007920 -0.368160 0
-0.000045 0.000013 0
0.000000 0.182092 0
0.000000 -0.000002 0
0.027783 0.149282 0
0.051579 0.222468 0
0.068714 0.254482 0
0.081097 0.265308 0
0.089672 0.261669 0
0.094583 0.246656 0
0.095800 0.222939 0
0.093436 0.193448 0
0.087860 0.161274 0
0.079704 0.129327 0
0.069801 0.099933 0
0.059019 0.074539 0
0.048090 0.053741 0
0.037599 0.037527 0
0.027999 0.025454 0
0.019544 0.016792 0
0.012361 0.010776 0
0.006828 0.006781 0
0.003447 0.004370 0
0.002186 0.002941 0
0.002824 0.001540 0
0.005253 -0.000656 0
0.009432 -0.004123 0
0.015256 -0.009270 0
0.022381 -0.016506 0
0.030398 -0.026111 0
0.038769 -0.038228 0
0.046867 -0.052847 0
0.054058 -0.069814 0
0.059786 -0.088888 0
0.063621 -0.109821 0
0.065256 -0.132443 0
0.064487 -0.156727 0
0.061197 -0.182875 0
0.055351 -0.211432 0
0.046994 -0.243531 0
0.036268 -0.281614 0
0.023438 -0.330787 0
0.009577 -0.357194 0
-0.000044 0.000013 0
0.000000 0.177708 0
0.000000 -0.000001 0
0.029624 0.121920 0
0.056869 0.200199 0
0.077394 0.238191 0
0.092580 0.253620 0
0.103442 0.253963 0
0.110252 0.242833 0
0.113027 0.222951 0
0.111882 0.197055 0
0.107181 0.167969 0
0.099565 0.138357 0
0.089892 0.110412 0
0.079091 0.085607 0
0.068005 0.064672 0
0.057326 0.047749 0
0.047591 0.034557 0
0.039161 0.024545 0
0.032228 0.017055 0
0.026919 0.011414 0
0.023377 0.006994 0
0.021882 0.003311 0
0.022532 -0.000203 0
0.025143 -0.004229 0
0.029441 -0.009298 0
0.035159 -0.015787 0