# vtk DataFile Version 2.0
generated by CFD-lab course output (written by Tobias Neckel) 
ASCII

DATASET STRUCTURED_GRID
DIMENSIONS  42 42 1 
POINTS 1764 float

0.150000 0.150000 0
0.167857 0.150000 0
0.185714 0.150000 0
0.203571 0.150000 0
0.221429 0.150000 0
0.239286 0.150000 0
0.257143 0.150000 0
0.275000 0.150000 0
0.292857 0.150000 0
0.310714 0.150000 0
0.328571 0.150000 0
0.346429 0.150000 0
0.364286 0.150000 0
0.382143 0.150000 0
0.400000 0.150000 0
0.417857 0.150000 0
0.435714 0.150000 0
0.453571 0.150000 0
0.471429 0.150000 0
0.489286 0.150000 0
0.507143 0.150000 0
0.525000 0.150000 0
0.542857 0.150000 0
0.560714 0.150000 0
0.578571 0.150000 0
0.596429 0.150000 0
0.614286 0.150000 0
0.632143 0.150000 0
0.650000 0.150000 0
0.667857 0.150000 0
0.685714 0.150000 0
0.703571 0.150000 0
0.721429 0.150000 0
0.739286 0.150000 0
0.757143 0.150000 0
0.775000 0.150000 0
0.792857 0.150000 0
0.810714 0.150000 0
0.828571 0.150000 0
0.846429 0.150000 0
0.864286 0.150000 0
0.882143 0.150000 0
0.150000 0.167857 0
0.167857 0.167857 0
0.185714 0.167857 0
0.203571 0.167857 0
0.221429 0.167857 0
0.239286 0.167857 0
0.257143 0.167857 0
0.275000 0.167857 0
0.292857 0.167857 0
0.310714 0.167857 0
0.328571 0.167857 0
0.346429 0.167857 0
0.364286 0.167857 0
0.382143 0.167857 0
0.400000 0.167857 0
0.417857 0.167857 0
0.435714 0.167857 0
0.453571 0.167857 0
0.471429 0.167857 0
0.489286 0.167857 0
0.507143 0.167857 0
0.525000 0.167857 0
0.542857 0.167857 0
0.560714 0.167857 0
0.578571 0.167857 0
0.596429 0.167857 0
0.614286 0.167857 0
0.632143 0.167857 0
0.650000 0.167857 0
0.667857 0.167857 0
0.685714 0.167857 0
0.703571 0.167857 0
0.721429 0.167857 0
0.739286 0.167857 0
0.757143 0.167857 0
0.775000 0.167857 0
0.792857 0.167857 0
0.810714 0.167857 0
0.828571 0.167857 0
0.846429 0.167857 0
0.864286 0.167857 0
0.882143 0.167857 0
0.150000 0.185714 0
0.167857 0.185714 0
0.185714 0.185714 0
0.203571 0.185714 0
0.221429 0.185714 0
0.239286 0.185714 0
0.257143 0.185714 0
0.275000 0.185714 0
0.292857 0.185714 0
0.310714 0.185714 0
0.328571 0.185714 0
0.346429 0.185714 0
0.364286 0.185714 0
0.382143 0.185714 0
0.400000 0.185714 0
0.417857 0.185714 0
0.435714 0.185714 0
0.453571 0.185714 0
0.471429 0.185714 0
0.489286 0.185714 0
0.507143 0.185714 0
0.525000 0.185714 0
0.542857 0.185714 0
0.560714 0.185714 0
0.578571 0.185714 0
0.596429 0.185714 0
0.614286 0.185714 0
0.632143 0.185714 0
0.650000 0.185714 0
0.667857 0.185714 0
0.685714 0.185714 0
0.703571 0.185714 0
0.721429 0.185714 0
0.739286 0.185714 0
0.757143 0.185714 0
0.775000 0.185714 0
0.792857 0.185714 0
0.810714 0.185714 0
0.828571 0.185714 0
0.846429 0.185714 0
0.864286 0.185714 0
0.882143 0.185714 0
0.150000 0.203571 0
0.167857 0.203571 0
0.185714 0.203571 0
0.203571 0.203571 0
0.221429 0.203571 0
0.239286 0.203571 0
0.257143 0.203571 0
0.275000 0.203571 0
0.292857 0.203571 0
0.310714 0.203571 0
0.328571 0.203571 0
0.346429 0.203571 0
0.364286 0.203571 0
0.382143 0.203571 0
0.400000 0.203571 0
0.417857 0.203571 0
0.435714 0.203571 0
0.453571 0.203571 0
0.471429 0.203571 0
0.489286 0.203571 0
0.507143 0.203571 0
0.525000 0.203571 0
0.542857 0.203571 0
0.560714 0.203571 0
0.578571 0.203571 0
0.596429 0.203571 0
0.614286 0.203571 0
0.632143 0.203571 0
0.650000 0.203571 0
0.667857 0.203571 0
0.685714 0.203571 0
0.703571 0.203571 0
0.721429 0.203571 0
0.739286 0.203571 0
0.757143 0.203571 0
0.775000 0.203571 0
0.792857 0.203571 0
0.810714 0.203571 0
0.828571 0.203571 0
0.846429 0.203571 0
0.864286 0.203571 0
0.882143 0.203571 0
0.150000 0.221429 0
0.167857 0.221429 0
0.185714 0.221429 0
0.203571 0.221429 0
0.221429 0.221429 0
0.239286 0.221429 0
0.257143 0.221429 0
0.275000 0.221429 0
0.292857 0.221429 0
0.310714 0.221429 0
0.328571 0.221429 0
0.346429 0.221429 0
0.364286 0.221429 0
0.382143 0.221429 0
0.400000 0.221429 0
0.417857 0.221429 0
0.435714 0.221429 0
0.453571 0.221429 0
0.471429 0.221429 0
0.489286 0.221429 0
0.507143 0.221429 0
0.525000 0.221429 0
0.542857 0.221429 0
0.560714 0.221429 0
0.578571 0.221429 0
0.596429 0.221429 0
0.614286 0.221429 0
0.632143 0.221429 0
0.650000 0.221429 0
0.667857 0.221429 0
0.685714 0.221429 0
0.703571 0.221429 0
0.721429 0.221429 0
0.739286 0.221429 0
0.757143 0.221429 0
0.775000 0.221429 0
0.792857 0.221429 0
0.810714 0.221429 0
0.828571 0.221429 0
0.846429 0.221429 0
0.864286 0.221429 0
0.882143 0.221429 0
0.150000 0.239286 0
0.167857 0.239286 0
0.185714 0.239286 0
0.203571 0.239286 0
0.221429 0.239286 0
0.239286 0.239286 0
0.257143 0.239286 0
0.275000 0.239286 0
0.292857 0.239286 0
0.310714 0.239286 0
0.328571 0.239286 0
0.346429 0.239286 0
0.364286 0.239286 0
0.382143 0.239286 0
0.400000 0.239286 0
0.417857 0.239286 0
0.435714 0.239286 0
0.453571 0.239286 0
0.471429 0.239286 0
0.489286 0.239286 0
0.507143 0.239286 0
0.525000 0.239286 0
0.542857 0.239286 0
0.560714 0.239286 0
0.578571 0.239286 0
0.596429 0.239286 0
0.614286 0.239286 0
0.632143 0.239286 0
0.650000 0.239286 0
0.667857 0.239286 0
0.685714 0.239286 0
0.703571 0.239286 0
0.721429 0.239286 0
0.739286 0.239286 0
0.757143 0.239286 0
0.775000 0.239286 0
0.792857 0.239286 0
0.810714 0.239286 0
0.828571 0.239286 0
0.846429 0.239286 0
0.864286 0.239286 0
0.882143 0.239286 0
0.150000 0.257143 0
0.167857 0.257143 0
0.185714 0.257143 0
0.203571 0.257143 0
0.221429 0.257143 0
0.239286 0.257143 0
0.257143 0.257143 0
0.275000 0.257143 0
0.292857 0.257143 0
0.310714 0.257143 0
0.328571 0.257143 0
0.346429 0.257143 0
0.364286 0.257143 0
0.382143 0.257143 0
0.400000 0.257143 0
0.417857 0.257143 0
0.435714 0.257143 0
0.453571 0.257143 0
0.471429 0.257143 0
0.489286 0.257143 0
0.507143 0.257143 0
0.525000 0.257143 0
0.542857 0.257143 0
0.560714 0.257143 0
0.578571 0.257143 0
0.596429 0.257143 0
0.614286 0.257143 0
0.632143 0.257143 0
0.650000 0.257143 0
0.667857 0.257143 0
0.685714 0.257143 0
0.703571 0.257143 0
0.721429 0.257143 0
0.739286 0.257143 0
0.757143 0.257143 0
0.775000 0.257143 0
0.792857 0.257143 0
0.810714 0.257143 0
0.828571 0.257143 0
0.846429 0.257143 0
0.864286 0.257143 0
0.882143 0.257143 0
0.150000 0.275000 0
0.167857 0.275000 0
0.185714 0.275000 0
0.203571 0.275000 0
0.221429 0.275000 0
0.239286 0.275000 0
0.257143 0.275000 0
0.275000 0.275000 0
0.292857 0.275000 0
0.310714 0.275000 0
0.328571 0.275000 0
0.346429 0.275000 0
0.364286 0.275000 0
0.382143 0.275000 0
0.400000 0.275000 0
0.417857 0.275000 0
0.435714 0.275000 0
0.453571 0.275000 0
0.471429 0.275000 0
0.489286 0.275000 0
0.507143 0.275000 0
0.525000 0.275000 0
0.542857 0.275000 0
0.560714 0.275000 0
0.578571 0.275000 0
0.596429 0.275000 0
0.614286 0.275000 0
0.632143 0.275000 0
0.650000 0.275000 0
0.667857 0.275000 0
0.685714 0.275000 0
0.703571 0.275000 0
0.721429 0.275000 0
0.739286 0.275000 0
0.757143 0.275000 0
0.775000 0.275000 0
0.792857 0.275000 0
0.810714 0.275000 0
0.828571 0.275000 0
0.846429 0.275000 0
0.864286 0.275000 0
0.882143 0.275000 0
0.150000 0.292857 0
0.167857 0.292857 0
0.185714 0.292857 0
0.203571 0.292857 0
0.221429 0.292857 0
0.239286 0.292857 0
0.257143 0.292857 0
0.275000 0.292857 0
0.292857 0.292857 0
0.310714 0.292857 0
0.328571 0.292857 0
0.346429 0.292857 0
0.364286 0.292857 0
0.382143 0.292857 0
0.400000 0.292857 0
0.417857 0.292857 0
0.435714 0.292857 0
0.453571 0.292857 0
0.471429 0.292857 0
0.489286 0.292857 0
0.507143 0.292857 0
0.525000 0.292857 0
0.542857 0.292857 0
0.560714 0.292857 0
0.578571 0.292857 0
0.596429 0.292857 0
0.614286 0.292857 0
0.632143 0.292857 0
0.650000 0.292857 0
0.667857 0.292857 0
0.685714 0.292857 0
0.703571 0.292857 0
0.721429 0.292857 0
0.739286 0.292857 0
0.757143 0.292857 0
0.775000 0.292857 0
0.792857 0.292857 0
0.810714 0.292857 0
0.828571 0.292857 0
0.846429 0.292857 0
0.864286 0.292857 0
0.882143 0.292857 0
0.150000 0.310714 0
0.167857 0.310714 0
0.185714 0.310714 0
0.203571 0.310714 0
0.221429 0.310714 0
0.239286 0.310714 0
0.257143 0.310714 0
0.275000 0.310714 0
0.292857 0.310714 0
0.310714 0.310714 0
0.328571 0.310714 0
0.346429 0.310714 0
0.364286 0.310714 0
0.382143 0.310714 0
0.400000 0.310714 0
0.417857 0.310714 0
0.435714 0.310714 0
0.453571 0.310714 0
0.471429 0.310714 0
0.489286 0.310714 0
0.507143 0.310714 0
0.525000 0.310714 0
0.542857 0.310714 0
0.560714 0.310714 0
0.578571 0.310714 0
0.596429 0.310714 0
0.614286 0.310714 0
0.632143 0.310714 0
0.650000 0.310714 0
0.667857 0.310714 0
0.685714 0.310714 0
0.703571 0.310714 0
0.721429 0.310714 0
0.739286 0.310714 0
0.757143 0.310714 0
0.775000 0.310714 0
0.792857 0.310714 0
0.810714 0.310714 0
0.828571 0.310714 0
0.846429 0.310714 0
0.864286 0.310714 0
0.882143 0.310714 0
0.150000 0.328571 0
0.167857 0.328571 0
0.185714 0.328571 0
0.203571 0.328571 0
0.221429 0.328571 0
0.239286 0.328571 0
0.257143 0.328571 0
0.275000 0.328571 0
0.292857 0.328571 0
0.310714 0.328571 0
0.328571 0.328571 0
0.346429 0.328571 0
0.364286 0.328571 0
0.382143 0.328571 0
0.400000 0.328571 0
0.417857 0.328571 0
0.435714 0.328571 0
0.453571 0.328571 0
0.471429 0.328571 0
0.489286 0.328571 0
0.507143 0.328571 0
0.525000 0.328571 0
0.542857 0.328571 0
0.560714 0.328571 0
0.578571 0.328571 0
0.596429 0.328571 0
0.614286 0.328571 0
0.632143 0.328571 0
0.650000 0.328571 0
0.667857 0.328571 0
0.685714 0.328571 0
0.703571 0.328571 0
0.721429 0.328571 0
0.739286 0.328571 0
0.757143 0.328571 0
0.775000 0.328571 0
0.792857 0.328571 0
0.810714 0.328571 0
0.828571 0.328571 0
0.846429 0.328571 0
0.864286 0.328571 0
0.882143 0.328571 0
0.150000 0.346429 0
0.167857 0.346429 0
0.185714 0.346429 0
0.203571 0.346429 0
0.221429 0.346429 0
0.239286 0.346429 0
0.257143 0.346429 0
0.275000 0.346429 0
0.292857 0.346429 0
0.310714 0.346429 0
0.328571 0.346429 0
0.346429 0.346429 0
0.364286 0.346429 0
0.382143 0.346429 0
0.400000 0.346429 0
0.417857 0.346429 0
0.435714 0.346429 0
0.453571 0.346429 0
0.471429 0.346429 0
0.489286 0.346429 0
0.507143 0.346429 0
0.525000 0.346429 0
0.542857 0.346429 0
0.560714 0.346429 0
0.578571 0.346429 0
0.596429 0.346429 0
0.614286 0.346429 0
0.632143 0.346429 0
0.650000 0.346429 0
[...]
POINT_DATA 1764 

VECTORS velocity float
0.000000 0.000000 0
-0.000003 0.000000 0
-0.000004 0.000000 0
-0.000004 0.000000 0
-0.000004 0.000000 0
-0.000002 0.000000 0
-0.000001 0.000000 0
-0.000007 0.000000 0
-0.000000 0.000000 0
0.000008 0.000000 0
0.000012 0.000000 0
0.000014 0.000000 0
0.000015 0.000000 0
0.000016 0.000000 0
0.000016 0.000000 0
0.000016 0.000000 0
0.000016 0.000000 0
0.000016 0.000000 0
0.000015 0.000000 0
0.000015 0.000000 0
0.000015 0.000000 0
0.000015 0.000000 0
0.000015 0.000000 0
0.000014 0.000000 0
0.000014 0.000000 0
0.000015 0.000000 0
0.000015 0.000000 0
0.000015 0.000000 0
0.000016 0.000000 0
0.000016 0.000000 0
0.000017 0.000000 0
0.000017 0.000000 0
0.000017 0.000000 0
0.000018 0.000000 0
0.000017 0.000000 0
0.000017 0.000000 0
0.000015 0.000000 0
0.000012 0.000000 0
0.000008 0.000000 0
-0.000001 0.000000 0
-0.000000 0.000000 0
0.000000 0.000000 0
0.000000 0.000003 0
0.042702 -0.039179 0
0.073868 -0.021438 0
0.084371 -0.001419 0
0.077656 0.010491 0
0.066251 0.015440 0
0.050562 0.006759 0
0.024940 -0.008421 0
-0.008245 0.008103 0
-0.050297 0.039673 0
-0.099687 0.050898 0
-0.149827 0.051388 0
-0.197451 0.048770 0
-0.240697 0.044501 0
-0.278693 0.039423 0
-0.311232 0.034187 0
-0.338549 0.029204 0
-0.361121 0.024690 0
-0.379530 0.020733 0
-0.394361 0.017328 0
-0.406146 0.014415 0
-0.415325 0.011905 0
-0.422233 0.009693 0
-0.427089 0.007646 0
-0.429981 0.005615 0
-0.430863 0.003453 0
-0.429556 0.000998 0
-0.425839 -0.001910 0
-0.419292 -0.005419 0
-0.409343 -0.009661 0
-0.395245 -0.014821 0
-0.376064 -0.021108 0
-0.350703 -0.028677 0
-0.317952 -0.037592 0
-0.276630 -0.047675 0
-0.225880 -0.058231 0
-0.165839 -0.067367 0
-0.099084 -0.070552 0
-0.033585 -0.054277 0
0.011631 -0.002138 0
0.000063 -0.000001 0
0.000000 -0.017207 0
0.000000 0.000004 0
0.032510 -0.073868 0
0.053946 -0.041669 0
0.061708 -0.003788 0
0.047130 0.018120 0
0.022198 0.027093 0
-0.011899 0.041311 0
-0.067279 0.058807 0
-0.135417 0.075237 0
-0.187120 0.091442 0
-0.231609 0.099530 0
-0.272840 0.097764 0
-0.309757 0.090871 0
-0.341568 0.081242 0
-0.368142 0.070534 0
-0.389733 0.059856 0
-0.406824 0.049889 0
-0.420006 0.040981 0
-0.429873 0.033240 0
-0.436967 0.026616 0
-0.441744 0.020963 0
-0.444562 0.016087 0
-0.445674 0.011765 0
-0.445228 0.007748 0
-0.443289 0.003774 0
-0.439817 -0.000424 0
-0.434807 -0.005024 0
-0.428038 -0.010265 0
-0.419209 -0.016496 0
-0.407862 -0.024047 0
-0.393369 -0.033279 0
-0.374985 -0.044542 0
-0.351836 -0.058112 0
-0.322982 -0.074072 0
-0.287505 -0.092073 0
-0.244720 -0.110791 0
-0.194603 -0.126796 0
-0.138642 -0.132254 0
-0.081358 -0.110715 0
-0.028930 -0.033585 0
0.000002 0.000007 0
0.000000 -0.011623 0
0.000000 0.000004 0
0.013513 -0.093125 0
0.013866 -0.050636 0
-0.000695 0.005397 0
-0.026001 0.050001 0
-0.066393 0.074469 0
-0.116460 0.096236 0
-0.167046 0.115097 0
-0.215945 0.127943 0
-0.258017 0.135865 0
-0.291337 0.136618 0
-0.318704 0.129536 0
-0.340844 0.117498 0
-0.358249 0.102886 0
-0.371490 0.087588 0
-0.381204 0.072870 0
-0.388032 0.059478 0
-0.392557 0.047739 0
-0.395278 0.037694 0
-0.396586 0.029199 0
-0.396774 0.022011 0
-0.396044 0.015835 0
-0.394517 0.010359 0
-0.392252 0.005261 0
-0.389264 0.000204 0
-0.385560 -0.005028 0
-0.381071 -0.010780 0
-0.375539 -0.017508 0
-0.368680 -0.025596 0
-0.360106 -0.035502 0
-0.349324 -0.047698 0
-0.335740 -0.062640 0
-0.318678 -0.080680 0
-0.297417 -0.101923 0
-0.271240 -0.125937 0
-0.239476 -0.151133 0
-0.201559 -0.173444 0
-0.157202 -0.183797 0
-0.106790 -0.163989 0
-0.052017 -0.083496 0
-0.000076 0.000012 0
0.000000 0.011736 0
0.000000 0.000002 0
-0.012289 -0.087734 0
-0.036878 -0.027461 0
-0.071422 0.036079 0
-0.102049 0.083818 0
-0.139804 0.117553 0
-0.181306 0.141964 0
-0.220390 0.158292 0
-0.255168 0.166208 0
-0.283582 0.166834 0
-0.304265 0.160216 0
-0.318806 0.147271 0
-0.328445 0.130416 0
-0.334296 0.111888 0
-0.337316 0.093489 0
-0.338319 0.076397 0
-0.337959 0.061242 0
-0.336728 0.048227 0
-0.334976 0.037269 0
-0.332927 0.028112 0
-0.330713 0.020421 0
-0.328392 0.013831 0
-0.325974 0.007973 0
-0.323433 0.002495 0
-0.320720 -0.002918 0
-0.317883 -0.008617 0
-0.314651 -0.015045 0
-0.310897 -0.022656 0
-0.306391 -0.031929 0
-0.300840 -0.043403 0
-0.293855 -0.057645 0
-0.284955 -0.075188 0
-0.273590 -0.096435 0
-0.259193 -0.121511 0
-0.241208 -0.150014 0
-0.218993 -0.180472 0
-0.191542 -0.209069 0
-0.157148 -0.227024 0
-0.113328 -0.215900 0
-0.058199 -0.140374 0
-0.000137 0.000016 0
0.000000 0.040402 0
0.000000 -0.000001 0
-0.034787 -0.056247 0
-0.076716 0.008497 0
-0.112760 0.070568 0
-0.146591 0.118382 0
-0.180260 0.153726 0
-0.212615 0.176823 0
-0.240766 0.188959 0
-0.263454 0.191135 0
-0.279739 0.184962 0
-0.289390 0.171842 0
-0.293686 0.153716 0
-0.293990 0.132988 0
-0.291602 0.111756 0
-0.287593 0.091611 0
-0.282792 0.073513 0
-0.277786 0.057887 0
-0.272956 0.044755 0
-0.268518 0.033892 0
-0.264565 0.024937 0
-0.261103 0.017476 0
-0.258090 0.011096 0
-0.255456 0.005400 0
-0.253128 0.000007 0
-0.251049 -0.005345 0
-0.249071 -0.011097 0
-0.247066 -0.017767 0
-0.244938 -0.025768 0
-0.242543 -0.035653 0
-0.239675 -0.048037 0
-0.236017 -0.063583 0
-0.231133 -0.082906 0
-0.224495 -0.106443 0
-0.215583 -0.134305 0
-0.203960 -0.166137 0
-0.189131 -0.200799 0
-0.170019 -0.235289 0
-0.144283 -0.262010 0
-0.107956 -0.262938 0
-0.057222 -0.196825 0
-0.000180 0.000018 0
0.000000 0.069941 0
0.000000 -0.000003 0
-0.047234 -0.011019 0
-0.093349 0.050512 0
-0.130931 0.105955 0
-0.164637 0.151318 0
-0.194048 0.183577 0
-0.218887 0.202471 0
-0.238066 0.209130 0
-0.251143 0.205181 0
-0.258027 0.192770 0
-0.259252 0.174163 0
-0.256114 0.151871 0
-0.250001 0.128332 0
-0.242211 0.105491 0
-0.233788 0.084679 0
-0.225495 0.066590 0
-0.217826 0.051407 0
-0.211054 0.038960 0
-0.205284 0.028877 0
-0.200502 0.020697 0
-0.196623 0.013947 0
-0.193520 0.008184 0
-0.191060 0.003011 0
-0.189123 -0.001913 0
-0.187653 -0.006975 0
-0.186379 -0.012600 0
-0.185308 -0.019179 0
-0.184397 -0.027179 0
-0.183609 -0.037191 0
-0.182837 -0.049929 0
-0.181839 -0.066187 0
-0.180182 -0.086711 0
-0.177262 -0.111985 0
-0.172470 -0.142045 0
-0.165406 -0.176465 0
-0.155799 -0.214413 0
-0.142850 -0.253917 0
-0.124306 -0.289086 0
-0.095737 -0.302961 0
-0.052051 -0.248331 0
-0.000203 0.000020 0
0.000000 0.097628 0
0.000000 -0.000006 0
-0.049953 0.037102 0
-0.094300 0.092194 0
-0.132401 0.141855 0
-0.164108 0.181499 0
-0.189342 0.207976 0
-0.208183 0.220841 0
-0.220490 0.221215 0
-0.226477 0.211096 0
-0.226682 0.193071 0
-0.222094 0.169929 0
-0.214075 0.144465 0
-0.203999 0.119084 0
-0.193094 0.095543 0
-0.182316 0.074895 0
-0.172323 0.057551 0
-0.163504 0.043446 0
-0.156035 0.032213 0
-0.149935 0.023341 0
-0.145121 0.016275 0
-0.141443 0.010493 0
-0.138713 0.005533 0
-0.136740 0.001003 0
-0.135340 -0.003400 0
-0.134329 -0.008089 0
-0.133587 -0.013442 0
-0.133097 -0.019749 0
-0.132898 -0.027468 0
-0.133058 -0.037213 0
-0.133610 -0.049807 0
-0.134439 -0.066238 0
-0.135145 -0.087483 0
-0.135012 -0.114155 0
-0.133230 -0.146162 0
-0.129337 -0.182808 0
-0.123263 -0.223354 0
-0.114633 -0.266781 0
-0.101738 -0.309124 0
-0.080418 -0.335194 0
-0.044820 -0.292561 0
-0.000206 0.000020 0
0.000000 0.121995 0
0.000000 -0.000008 0
-0.045242 0.083281 0
-0.087618 0.132959 0
-0.123385 0.175762 0
-0.151919 0.208259 0
-0.173110 0.227652 0
-0.187179 0.233618 0
-0.194450 0.227424 0
-0.195558 0.211374 0
-0.191423 0.188387 0
-0.183270 0.161556 0
-0.172486 0.133777 0
-0.160391 0.107351 0
-0.148105 0.083807 0
-0.136455 0.063908 0
-0.125968 0.047779 0
-0.116923 0.035119 0
-0.109430 0.025390 0
-0.103490 0.017964 0
-0.099021 0.012205 0
-0.095854 0.007539 0
-0.093758 0.003481 0
-0.092479 -0.000363 0
-0.091797 -0.004324 0
-0.091407 -0.008728 0
-0.091243 -0.013831 0
-0.091264 -0.019868 0
-0.091528 -0.027219 0
-0.092171 -0.036478 0
-0.093359 -0.048548 0
-0.095157 -0.064653 0
-0.097297 -0.086138 0
-0.099012 -0.113900 0
-0.099290 -0.147720 0
-0.097563 -0.186433 0
-0.093885 -0.229117 0
-0.088241 -0.275442 0
-0.079613 -0.323301 0
-0.064565 -0.359879 0
-0.036984 -0.328749 0
-0.000195 0.000021 0
0.000000 0.142449 0
0.000000 -0.000008 0
-0.038725 0.124720 0
-0.076764 0.170337 0
-0.108544 0.206156 0
-0.133225 0.231224 0
-0.150593 0.243236 0
-0.160886 0.242181 0
-0.164624 0.229594 0
-0.162643 0.208069 0
-0.156040 0.180782 0
-0.146114 0.150993 0
-0.134213 0.121587 0
-0.121552 0.094703 0
-0.109104 0.071606 0
-0.097527 0.052758 0
-0.087191 0.038020 0
-0.078275 0.026908 0
-0.070876 0.018780 0
-0.065081 0.012932 0
-0.060917 0.008640 0
-0.058247 0.005230 0
-0.056810 0.002158 0
-0.056298 -0.000957 0
-0.056406 -0.004472 0
-0.056849 -0.008643 0
-0.057496 -0.013585 0
-0.058265 -0.019464 0
-0.059168 -0.026561 0
-0.060311 -0.035381 0
-0.061893 -0.046820 0
-0.064116 -0.062300 0
-0.066897 -0.083628 0
-0.069540 -0.112162 0
-0.070965 -0.147611 0
-0.070601 -0.188214 0
-0.068565 -0.232676 0
-0.065047 -0.281053 0
-0.059608 -0.332800 0
-0.049717 -0.377823 0
-0.029446 -0.357126 0
-0.000174 0.000020 0
0.000000 0.158978 0
0.000000 -0.000009 0
-0.031612 0.160046 0
-0.063996 0.202777 0
-0.090971 0.232223 0
-0.111545 0.250309 0
-0.125410 0.255313 0
-0.132764 0.247648 0
-0.134163 0.229181 0
-0.130490 0.202790 0
-0.122859 0.171858 0
-0.112528 0.139730 0
-0.100736 0.109215 0
-0.088549 0.082242 0
-0.076749 0.059782 0
-0.065790 0.041994 0
-0.055876 0.028526 0
-0.047108 0.018803 0
-0.039642 0.012197 0
-0.033781 0.008005 0
-0.029758 0.005371 0
-0.027439 0.003431 0
-0.026521 0.001533 0
-0.026664 -0.000766 0
-0.027487 -0.003773 0
-0.028767 -0.007639 0
-0.030325 -0.012415 0
-0.032038 -0.018196 0
-0.033854 -0.025174 0
-0.035777 -0.033754 0
-0.037917 -0.044743 0
-0.040470 -0.059649 0
-0.043438 -0.080713 0
-0.046248 -0.109831 0
-0.047980 -0.146660 0
-0.048288 -0.188833 0
-0.047351 -0.234671 0
-0.045412 -0.284398 0
-0.042396 -0.338632 0
-0.036625 -0.390041 0
-0.022684 -0.378466 0
-0.000149 0.000020 0
0.000000 0.171894 0
0.000000 -0.000009 0
-0.024310 0.188717 0
-0.050627 0.229696 0
-0.072570 0.253705 0
-0.089097 0.265664 0
-0.099856 0.264454 0
-0.104983 0.250934 0
-0.104987 0.227320 0
-0.100685 0.196764 0
-0.093107 0.162820 0
-0.083383 0.128870 0
-0.072590 0.097608 0
-0.061600 0.070715 0
-0.050973 0.048847 0
-0.040950 0.031886 0
-0.031588 0.019339 0
-0.022952 0.010674 0
-0.015353 0.005452 0
-0.009644 0.003048 0
-0.005946 0.002298 0
-0.003950 0.001992 0
-0.003315 0.001383 0
-0.003749 0.000009 0
-0.004990 -0.002369 0
-0.006836 -0.005805 0
-0.009112 -0.010313 0
-0.011674 -0.015935 0
-0.014405 -0.022823 0
-0.017197 -0.031318 0
-0.020040 -0.042127 0
-0.022987 -0.056779 0
-0.025916 -0.077849 0
-0.028321 -0.107620 0
-0.029689 -0.145571 0
-0.030123 -0.188843 0
-0.029873 -0.235553 0
-0.029143 -0.286008 0
-0.028022 -0.341587 0
-0.025507 -0.397535 0
-0.016877 -0.393751 0
-0.000125 0.000019 0
0.000000 0.181661 0
0.000000 -0.000009 0
-0.017107 0.210672 0
-0.037394 0.251038 0
-0.054424 0.270694 0
-0.067149 0.277594 0
-0.075224 0.271199 0
-0.078724 0.252779 0
-0.078064 0.224884 0
-0.073933 0.190910 0
-0.067204 0.154556 0
-0.058823 0.119213 0
-0.049667 0.087432 0
-0.040388 0.060626 0
-0.031313 0.039132 0
-0.022489 0.022610 0
-0.013881 0.010528 0
-0.005553 0.002568 0
0.001072 -0.001111 0
0.005758 -0.001401 0
0.008915 -0.000323 0
0.010790 0.000800 0
0.011530 0.001332 0
0.011267 0.000909 0
0.010095 -0.000686 0
0.008153 -0.003517 0
0.005608 -0.007577 0
0.002624 -0.012903 0
-0.000630 -0.019651 0
-0.004015 -0.028119 0
-0.007410 -0.038952 0
-0.010597 -0.053773 0
-0.013173 -0.075379 0
-0.014681 -0.106058 0
-0.015230 -0.144858 0
-0.015433 -0.188649 0
-0.015579 -0.235651 0
-0.015796 -0.286250 0
-0.016202 -0.342267 0
-0.016266 -0.401186 0
-0.012016 -0.403973 0
-0.000104 0.000018 0
0.000000 0.188770 0
0.000000 -0.000009 0
-0.010176 0.226111 0
-0.024684 0.267013 0
-0.037067 0.283460 0
-0.046307 0.286464 0
-0.052094 0.276029 0
-0.054450 0.253774 0
-0.053677 0.222529 0
-0.050300 0.185903 0
-0.044993 0.147710 0
-0.038488 0.111334 0
-0.031440 0.079173 0
-0.024272 0.052361 0
-0.017095 0.030947 0
-0.009800 0.014453 0
-0.002380 0.002403 0
0.003972 -0.004279 0
0.008460 -0.005859 0
0.011878 -0.004795 0
0.014605 -0.002734 0
0.016588 -0.000623 0
0.017714 0.000906 0
0.017932 0.001443 0
0.017242 0.000745 0
0.015689 -0.001317 0
0.013400 -0.004784 0
0.010543 -0.009697 0
0.007304 -0.016184 0
0.003855 -0.024538 0
0.000469 -0.035545 0
-0.002374 -0.051017 0
-0.004022 -0.073765 0
-0.004170 -0.105562 0
-0.003682 -0.144819 0
-0.003495 -0.188494 0
-0.003869 -0.235190 0
-0.004852 -0.285385 0
-0.006523 -0.341117 0
-0.008648 -0.401722 0
-0.007995 -0.410017 0
-0.000086 0.000018 0
0.000000 0.193675 0
0.000000 -0.000009 0
-0.003669 0.235356 0
-0.012617 0.277929 0
-0.020681 0.292317 0
-0.026746 0.292621 0
-0.030567 0.279342 0
-0.032132 0.254362 0
-0.031629 0.220733 0
-0.029406 0.182226 0
-0.025920 0.142744 0
-0.021670 0.105659 0
-0.017087 0.073216 0
-0.012388 0.046281 0
-0.007515 0.024661 0
-0.002326 0.007894 0
0.002638 -0.003244 0
0.005905 -0.008273 0
0.008484 -0.009017 0
0.010889 -0.007546 0
0.013126 -0.005032 0
0.015045 -0.002310 0
0.016455 -0.000013 0
0.017189 0.001382 0
0.017146 0.001557 0
0.016302 0.000325 0
0.014701 -0.002432 0
0.012468 -0.006807 0
0.009793 -0.012962 0
0.006945 -0.021284 0
0.004373 -0.032723 0
0.002766 -0.049282 0
0.002836 -0.073583 0
0.004329 -0.106398 0
0.005814 -0.145533 0
0.006381 -0.188463 0
0.005838 -0.234294 0
0.004194 -0.283595 0
0.001457 -0.338471 0
-0.002336 -0.399715 0
-0.004658 -0.412621 0
-0.000072 0.000017 0
0.000000 0.196763 0
0.000000 -0.000008 0
0.002278 0.238728 0
-0.001235 0.284025 0
-0.005234 0.297589 0
-0.008364 0.296350 0
-0.010435 0.281415 0
-0.011419 0.254836 0
-0.011405 0.219803 0
-0.010571 0.180194 0
-0.009156 0.139974 0
-0.007427 0.102501 0
-0.005597 0.069891 0
-0.003710 0.042789 0
-0.001606 0.020885 0
0.000677 0.004300 0
0.002303 -0.005828 0
0.003236 -0.010124 0
0.004229 -0.010843 0
0.005456 -0.009438 0
0.006892 -0.006890 0
0.008410 -0.003952 0
0.009812 -0.001238 0
0.010895 0.000753 0
0.011479 0.001632 0
0.011462 0.001128 0
0.010824 -0.000950 0
0.009642 -0.004789 0
0.008120 -0.010661 0
0.006622 -0.019118 0
0.005754 -0.031366 0
0.006323 -0.049480 0
0.008675 -0.075328 0
0.011761 -0.108541 0
0.014062 -0.146871 0
0.014898 -0.188518 0
0.014148 -0.233003 0
0.011859 -0.281004 0
0.008100 -0.334587 0
0.002926 -0.395606 0
-0.001824 -0.412353 0
-0.000062 0.000016 0
0.000000 0.198332 0
0.000000 -0.000008 0
0.007735 0.236591 0
0.009470 0.285440 0
0.009364 0.299447 0
0.009024 0.297823 0
0.008626 0.282397 0
0.008183 0.255332 0
0.007670 0.219885 0
0.007051 0.179977 0
0.006291 0.139601 0
0.005359 0.102100 0
0.004267 0.069498 0
0.003109 0.042290 0
0.002034 0.020274 0
0.000883 0.003986 0
-0.000371 -0.005803 0
-0.001335 -0.010199 0
-0.001907 -0.011237 0
-0.002005 -0.010208 0
-0.001609 -0.007986 0
-0.000785 -0.005230 0
0.000325 -0.002498 0
0.001526 -0.000286 0
0.002621 0.000990 0
0.003442 0.000980 0
0.003925 -0.000613 0
0.004129 -0.004102 0
0.004309 -0.009941 0
0.004941 -0.018918 0
0.006673 -0.032425 0
0.010030 -0.052203 0
0.014603 -0.079021 0
0.018920 -0.111785 0
0.021762 -0.148670 0
0.022673 -0.188549 0
0.021600 -0.231255 0
0.018615 -0.277547 0
0.013811 -0.329538 0
0.007346 -0.389791 0
0.000641 -0.409694 0
-0.000056 0.000016 0
0.000000 0.198586 0
0.000000 -0.000007 0
0.012849 0.229258 0
0.019615 0.282395 0
0.023243 0.298035 0
0.025601 0.297088 0
0.026890 0.282256 0
0.027082 0.255792 0
0.026175 0.220935 0
0.024238 0.181573 0
0.021419 0.141666 0
0.017923 0.104525 0
0.013991 0.072142 0
0.009841 0.045022 0
0.005568 0.023111 0
0.001132 0.006705 0
-0.002846 -0.003610 0
-0.005630 -0.008588 0
-0.007694 -0.010173 0
-0.009076 -0.009736 0
-0.009754 -0.008110 0
-0.009744 -0.005885 0
-0.009115 -0.003549 0
-0.007998 -0.001543 0
-0.006553 -0.000284 0
-0.004923 -0.000177 0
-0.003177 -0.001637 0
-0.001250 -0.005173 0
0.001183 -0.011473 0
0.004592 -0.021481 0
0.009334 -0.036455 0
0.015296 -0.057410 0
0.021452 -0.084219 0
0.026438 -0.115699 0
0.029431 -0.150624 0
0.030151 -0.188356 0
0.028583 -0.228945 0
0.024812 -0.273215 0
0.018958 -0.323318 0
0.011194 -0.382436 0
0.002821 -0.405007 0
-0.000051 0.000015 0
0.000000 0.197690 0
0.000000 -0.000006 0
0.017645 0.216976 0
0.029267 0.275046 0
0.036529 0.293461 0
0.041516 0.294176 0
0.044537 0.280916 0
0.045535 0.256047 0
0.044509 0.222728 0
0.041595 0.184733 0
0.037089 0.145916 0
0.031408 0.109527 0
0.025011 0.077580 0
0.018251 0.050713 0
0.011269 0.028983 0
0.004191 0.012400 0
-0.002510 0.000959 0
-0.007519 -0.005351 0
-0.010977 -0.007790 0
-0.013457 -0.008148 0
-0.015032 -0.007318 0
-0.015721 -0.005869 0
-0.015539 -0.004244 0
-0.014531 -0.002848 0
-0.012770 -0.002086 0
-0.010315 -0.002396 0
-0.007165 -0.004285 0
-0.003233 -0.008462 0
0.001804 -0.015783 0
0.007991 -0.027068 0
0.015229 -0.043130 0
0.022833 -0.064321 0
0.029655 -0.090162 0
0.034699 -0.119764 0
0.037433 -0.152383 0
0.037668 -0.187701 0
0.035401 -0.225917 0
0.030716 -0.267922 0
0.023747 -0.315921 0
0.014700 -0.373654 0
0.004791 -0.398500 0
-0.000048 0.000015 0
0.000000 0.195764 0
0.000000 -0.000005 0
0.022057 0.199991 0
0.038360 0.263510 0
0.049208 0.285786 0
0.056801 0.289080 0
0.061641 0.278237 0
0.063689 0.255820 0
0.062930 0.224875 0
0.059541 0.188993 0
0.053919 0.151853 0
0.046647 0.116603 0
0.038369 0.085298 0
0.029603 0.058763 0
0.020628 0.037172 0
0.011711 0.020485 0
0.003166 0.008100 0
-0.004314 -0.000121 0
-0.009632 -0.004235 0
-0.013042 -0.005681 0
-0.015246 -0.005847 0
-0.016361 -0.005379 0
-0.016371 -0.004738 0
-0.015258 -0.004311 0
-0.013016 -0.004501 0
-0.009628 -0.005783 0
-0.004996 -0.008720 0
0.000955 -0.014142 0
0.008096 -0.022696 0
0.016163 -0.034906 0
0.024660 -0.051296 0
0.032705 -0.071836 0
0.039352 -0.096085 0
0.043906 -0.123477 0
0.045988 -0.153593 0
0.045443 -0.186325 0
0.042259 -0.221993 0
0.036512 -0.261561 0
0.028346 -0.307302 0
0.017992 -0.363480 0
0.006612 -0.390307 0
-0.000046 0.000014 0
0.000000 0.192898 0
0.000000 -0.000004 0
0.025920 0.178616 0
0.046678 0.247895 0
0.061095 0.275020 0
0.071329 0.281743 0
0.078124 0.274028 0
0.081513 0.254758 0
0.081482 0.226876 0
0.078219 0.193744 0
0.072177 0.158810 0
0.064041 0.125078 0
0.054597 0.094624 0
0.044522 0.068454 0
0.034278 0.046875 0
0.024266 0.029863 0
0.014866 0.016984 0
0.006162 0.007447 0
-0.001030 0.000938 0
-0.005910 -0.002534 0
-0.008712 -0.004000 0
-0.010006 -0.004743 0
-0.009920 -0.005347 0
-0.008442 -0.006204 0
-0.005522 -0.007716 0
-0.001132 -0.010417 0
0.004708 -0.014867 0
0.011902 -0.021554 0
0.020014 -0.030991 0
0.028662 -0.043633 0
0.037150 -0.059672 0
0.044673 -0.079013 0
0.050501 -0.101363 0
0.054113 -0.126399 0
0.055191 -0.153920 0
0.053588 -0.183972 0
0.049272 -0.216986 0
0.042309 -0.254008 0
0.032847 -0.297400 0
0.021150 -0.351920 0
0.008333 -0.380508 0
-0.000046 0.000014 0
0.000000 0.189151 0
0.000000 -0.000003 0
0.028978 0.153313 0
0.053836 0.228336 0
0.071800 0.261135 0
0.084776 0.272052 0
0.093715 0.268054 0
0.098776 0.252461 0
0.099965 0.228169 0
0.097465 0.198299 0
0.091743 0.166031 0
0.083529 0.134183 0
0.073688 0.104817 0
0.063026 0.079082 0
0.052167 0.057429 0
0.041630 0.039896 0
0.031870 0.026203 0
0.023144 0.015775 0
0.015510 0.007837 0
0.009439 0.002001 0
0.005658 -0.001750 0
0.004088 -0.004170 0
0.004302 -0.006302 0
0.006159 -0.008710 0
0.009615 -0.011811 0
0.014603 -0.016012 0
0.020922 -0.021754 0
0.028284 -0.029448 0
0.036308 -0.039456 0
0.044444 -0.052043 0
0.052028 -0.067307 0
0.058389 -0.085187 0
0.062943 -0.105525 0
0.065253 -0.128167 0
0.065031 -0.153068 0
0.062119 -0.180406 0
0.056471 -0.210714 0
0.048141 -0.245136 0
0.037289 -0.286143 0
0.024206 -0.338966 0
0.009979 -0.369157 0
-0.000046 0.000014 0
0.000000 0.184564 0
0.000000 -0.000002 0
0.030869 0.124780 0
0.059250 0.205074 0
0.080699 0.244080 0
0.096590 0.259828 0
0.107943 0.260028 0
0.115044 0.248508 0
0.117945 0.228186 0
0.116826 0.201966 0
0.112142 0.172746 0
0.104620 0.143133 0
0.095148 0.115127 0
0.084608 0.089975 0
0.073741 0.068271 0
0.063162 0.050160 0
0.053379 0.035470 0
0.044769 0.023807 0
0.037532 0.014642 0
0.031661 0.007317 0
0.027425 0.001351 0
0.025376 -0.003387 0
0.025399 -0.007417 0
0.027257 -0.011517 0