# vtk DataFile Version 2.0
generated by CFD-lab course output (written by Tobias Neckel) 
ASCII

DATASET STRUCTURED_GRID
DIMENSIONS  42 42 1 
POINTS 1764 float

0.150000 0.150000 0
0.167857 0.150000 0
0.185714 0.150000 0
0.203571 0.150000 0
0.221429 0.150000 0
0.239286 0.150000 0
0.257143 0.150000 0
0.275000 0.150000 0
0.292857 0.150000 0
0.310714 0.150000 0
0.328571 0.150000 0
0.346429 0.150000 0
0.364286 0.150000 0
0.382143 0.150000 0
0.400000 0.150000 0
0.417857 0.150000 0
0.435714 0.150000 0
0.453571 0.150000 0
0.471429 0.150000 0
0.489286 0.150000 0
0.507143 0.150000 0
0.525000 0.150000 0
0.542857 0.150000 0
0.560714 0.150000 0
0.578571 0.150000 0
0.596429 0.150000 0
0.614286 0.150000 0
0.632143 0.150000 0
0.650000 0.150000 0
0.667857 0.150000 0
0.685714 0.150000 0
0.703571 0.150000 0
0.721429 0.150000 0
0.739286 0.150000 0
0.757143 0.150000 0
0.775000 0.150000 0
0.792857 0.150000 0
0.810714 0.150000 0
0.828571 0.150000 0
0.846429 0.150000 0
0.864286 0.150000 0
0.882143 0.150000 0
0.150000 0.167857 0
0.167857 0.167857 0
0.185714 0.167857 0
0.203571 0.167857 0
0.221429 0.167857 0
0.239286 0.167857 0
0.257143 0.167857 0
0.275000 0.167857 0
0.292857 0.167857 0
0.310714 0.167857 0
0.328571 0.167857 0
0.346429 0.167857 0
0.364286 0.167857 0
0.382143 0.167857 0
0.400000 0.167857 0
0.417857 0.167857 0
0.435714 0.167857 0
0.453571 0.167857 0
0.471429 0.167857 0
0.489286 0.167857 0
0.507143 0.167857 0
0.525000 0.167857 0
0.542857 0.167857 0
0.560714 0.167857 0
0.578571 0.167857 0
0.596429 0.167857 0
0.614286 0.167857 0
0.632143 0.167857 0
0.650000 0.167857 0
0.667857 0.167857 0
0.685714 0.167857 0
0.703571 0.167857 0
0.721429 0.167857 0
0.739286 0.167857 0
0.757143 0.167857 0
0.775000 0.167857 0
0.792857 0.167857 0
0.810714 0.167857 0
0.828571 0.167857 0
0.846429 0.167857 0
0.864286 0.167857 0
0.882143 0.167857 0
0.150000 0.185714 0
0.167857 0.185714 0
0.185714 0.185714 0
0.203571 0.185714 0
0.221429 0.185714 0
0.239286 0.185714 0
0.257143 0.185714 0
0.275000 0.185714 0
0.292857 0.185714 0
0.310714 0.185714 0
0.328571 0.185714 0
0.346429 0.185714 0
0.364286 0.185714 0
0.382143 0.185714 0
0.400000 0.185714 0
0.417857 0.185714 0
0.435714 0.185714 0
0.453571 0.185714 0
0.471429 0.185714 0
0.489286 0.185714 0
0.507143 0.185714 0
0.525000 0.185714 0
0.542857 0.185714 0
0.560714 0.185714 0
0.578571 0.185714 0
0.596429 0.185714 0
0.614286 0.185714 0
0.632143 0.185714 0
0.650000 0.185714 0
0.667857 0.185714 0
0.685714 0.185714 0
0.703571 0.185714 0
0.721429 0.185714 0
0.739286 0.185714 0
0.757143 0.185714 0
0.775000 0.185714 0
0.792857 0.185714 0
0.810714 0.185714 0
0.828571 0.185714 0
0.846429 0.185714 0
0.864286 0.185714 0
0.882143 0.185714 0
0.150000 0.203571 0
0.167857 0.203571 0
0.185714 0.203571 0
0.203571 0.203571 0
0.221429 0.203571 0
0.239286 0.203571 0
0.257143 0.203571 0
0.275000 0.203571 0
0.292857 0.203571 0
0.310714 0.203571 0
0.328571 0.203571 0
0.346429 0.203571 0
0.364286 0.203571 0
0.382143 0.203571 0
0.400000 0.203571 0
0.417857 0.203571 0
0.435714 0.203571 0
0.453571 0.203571 0
0.471429 0.203571 0
0.489286 0.203571 0
0.507143 0.203571 0
0.525000 0.203571 0
0.542857 0.203571 0
0.560714 0.203571 0
0.578571 0.203571 0
0.596429 0.203571 0
0.614286 0.203571 0
0.632143 0.203571 0
0.650000 0.203571 0
0.667857 0.203571 0
0.685714 0.203571 0
0.703571 0.203571 0
0.721429 0.203571 0
0.739286 0.203571 0
0.757143 0.203571 0
0.775000 0.203571 0
0.792857 0.203571 0
0.810714 0.203571 0
0.828571 0.203571 0
0.846429 0.203571 0
0.864286 0.203571 0
0.882143 0.203571 0
0.150000 0.221429 0
0.167857 0.221429 0
0.185714 0.221429 0
0.203571 0.221429 0
0.221429 0.221429 0
0.239286 0.221429 0
0.257143 0.221429 0
0.275000 0.221429 0
0.292857 0.221429 0
0.310714 0.221429 0
0.328571 0.221429 0
0.346429 0.221429 0
0.364286 0.221429 0
0.382143 0.221429 0
0.400000 0.221429 0
0.417857 0.221429 0
0.435714 0.221429 0
0.453571 0.221429 0
0.471429 0.221429 0
0.489286 0.221429 0
0.507143 0.221429 0
0.525000 0.221429 0
0.542857 0.221429 0
0.560714 0.221429 0
0.578571 0.221429 0
0.596429 0.221429 0
0.614286 0.221429 0
0.632143 0.221429 0
0.650000 0.221429 0
0.667857 0.221429 0
0.685714 0.221429 0
0.703571 0.221429 0
0.721429 0.221429 0
0.739286 0.221429 0
0.757143 0.221429 0
0.775000 0.221429 0
0.792857 0.221429 0
0.810714 0.221429 0
0.828571 0.221429 0
0.846429 0.221429 0
0.864286 0.221429 0
0.882143 0.221429 0
0.150000 0.239286 0
0.167857 0.239286 0
0.185714 0.239286 0
0.203571 0.239286 0
0.221429 0.239286 0
0.239286 0.239286 0
0.257143 0.239286 0
0.275000 0.239286 0
0.292857 0.239286 0
0.310714 0.239286 0
0.328571 0.239286 0
0.346429 0.239286 0
0.364286 0.239286 0
0.382143 0.239286 0
0.400000 0.239286 0
0.417857 0.239286 0
0.435714 0.239286 0
0.453571 0.239286 0
0.471429 0.239286 0
0.489286 0.239286 0
0.507143 0.239286 0
0.525000 0.239286 0
0.542857 0.239286 0
0.560714 0.239286 0
0.578571 0.239286 0
0.596429 0.239286 0
0.614286 0.239286 0
0.632143 0.239286 0
0.650000 0.239286 0
0.667857 0.239286 0
0.685714 0.239286 0
0.703571 0.239286 0
0.721429 0.239286 0
0.739286 0.239286 0
0.757143 0.239286 0
0.775000 0.239286 0
0.792857 0.239286 0
0.810714 0.239286 0
0.828571 0.239286 0
0.846429 0.239286 0
0.864286 0.239286 0
0.882143 0.239286 0
0.150000 0.257143 0
0.167857 0.257143 0
0.185714 0.257143 0
0.203571 0.257143 0
0.221429 0.257143 0
0.239286 0.257143 0
0.257143 0.257143 0
0.275000 0.257143 0
0.292857 0.257143 0
0.310714 0.257143 0
0.328571 0.257143 0
0.346429 0.257143 0
0.364286 0.257143 0
0.382143 0.257143 0
0.400000 0.257143 0
0.417857 0.257143 0
0.435714 0.257143 0
0.453571 0.257143 0
0.471429 0.257143 0
0.489286 0.257143 0
0.507143 0.257143 0
0.525000 0.257143 0
0.542857 0.257143 0
0.560714 0.257143 0
0.578571 0.257143 0
0.596429 0.257143 0
0.614286 0.257143 0
0.632143 0.257143 0
0.650000 0.257143 0
0.667857 0.257143 0
0.685714 0.257143 0
0.703571 0.257143 0
0.721429 0.257143 0
0.739286 0.257143 0
0.757143 0.257143 0
0.775000 0.257143 0
0.792857 0.257143 0
0.810714 0.257143 0
0.828571 0.257143 0
0.846429 0.257143 0
0.864286 0.257143 0
0.882143 0.257143 0
0.150000 0.275000 0
0.167857 0.275000 0
0.185714 0.275000 0
0.203571 0.275000 0
0.221429 0.275000 0
0.239286 0.275000 0
0.257143 0.275000 0
0.275000 0.275000 0
0.292857 0.275000 0
0.310714 0.275000 0
0.328571 0.275000 0
0.346429 0.275000 0
0.364286 0.275000 0
0.382143 0.275000 0
0.400000 0.275000 0
0.417857 0.275000 0
0.435714 0.275000 0
0.453571 0.275000 0
0.471429 0.275000 0
0.489286 0.275000 0
0.507143 0.275000 0
0.525000 0.275000 0
0.542857 0.275000 0
0.560714 0.275000 0
0.578571 0.275000 0
0.596429 0.275000 0
0.614286 0.275000 0
0.632143 0.275000 0
0.650000 0.275000 0
0.667857 0.275000 0
0.685714 0.275000 0
0.703571 0.275000 0
0.721429 0.275000 0
0.739286 0.275000 0
0.757143 0.275000 0
0.775000 0.275000 0
0.792857 0.275000 0
0.810714 0.275000 0
0.828571 0.275000 0
0.846429 0.275000 0
0.864286 0.275000 0
0.882143 0.275000 0
0.150000 0.292857 0
0.167857 0.292857 0
0.185714 0.292857 0
0.203571 0.292857 0
0.221429 0.292857 0
0.239286 0.292857 0
0.257143 0.292857 0
0.275000 0.292857 0
0.292857 0.292857 0
0.310714 0.292857 0
0.328571 0.292857 0
0.346429 0.292857 0
0.364286 0.292857 0
0.382143 0.292857 0
0.400000 0.292857 0
0.417857 0.292857 0
0.435714 0.292857 0
0.453571 0.292857 0
0.471429 0.292857 0
0.489286 0.292857 0
0.507143 0.292857 0
0.525000 0.292857 0
0.542857 0.292857 0
0.560714 0.292857 0
0.578571 0.292857 0
0.596429 0.292857 0
0.614286 0.292857 0
0.632143 0.292857 0
0.650000 0.292857 0
0.667857 0.292857 0
0.685714 0.292857 0
0.703571 0.292857 0
0.721429 0.292857 0
0.739286 0.292857 0
0.757143 0.292857 0
0.775000 0.292857 0
0.792857 0.292857 0
0.810714 0.292857 0
0.828571 0.292857 0
0.846429 0.292857 0
0.864286 0.292857 0
0.882143 0.292857 0
0.150000 0.310714 0
0.167857 0.310714 0
0.185714 0.310714 0
0.203571 0.310714 0
0.221429 0.310714 0
0.239286 0.310714 0
0.257143 0.310714 0
0.275000 0.310714 0
0.292857 0.310714 0
0.310714 0.310714 0
0.328571 0.310714 0
0.346429 0.310714 0
0.364286 0.310714 0
0.382143 0.310714 0
0.400000 0.310714 0
0.417857 0.310714 0
0.435714 0.310714 0
0.453571 0.310714 0
0.471429 0.310714 0
0.489286 0.310714 0
0.507143 0.310714 0
0.525000 0.310714 0
0.542857 0.310714 0
0.560714 0.310714 0
0.578571 0.310714 0
0.596429 0.310714 0
0.614286 0.310714 0
0.632143 0.310714 0
0.650000 0.310714 0
0.667857 0.310714 0
0.685714 0.310714 0
0.703571 0.310714 0
0.721429 0.310714 0
0.739286 0.310714 0
0.757143 0.310714 0
0.775000 0.310714 0
0.792857 0.310714 0
0.810714 0.310714 0
0.828571 0.310714 0
0.846429 0.310714 0
0.864286 0.310714 0
0.882143 0.310714 0
0.150000 0.328571 0
0.167857 0.328571 0
0.185714 0.328571 0
0.203571 0.328571 0
0.221429 0.328571 0
0.239286 0.328571 0
0.257143 0.328571 0
0.275000 0.328571 0
0.292857 0.328571 0
0.310714 0.328571 0
0.328571 0.328571 0
0.346429 0.328571 0
0.364286 0.328571 0
0.382143 0.328571 0
0.400000 0.328571 0
0.417857 0.328571 0
0.435714 0.328571 0
0.453571 0.328571 0
0.471429 0.328571 0
0.489286 0.328571 0
0.507143 0.328571 0
0.525000 0.328571 0
0.542857 0.328571 0
0.560714 0.328571 0
0.578571 0.328571 0
0.596429 0.328571 0
0.614286 0.328571 0
0.632143 0.328571 0
0.650000 0.328571 0
0.667857 0.328571 0
0.685714 0.328571 0
0.703571 0.328571 0
0.721429 0.328571 0
0.739286 0.328571 0
0.757143 0.328571 0
0.775000 0.328571 0
0.792857 0.328571 0
0.810714 0.328571 0
0.828571 0.328571 0
0.846429 0.328571 0
0.864286 0.328571 0
0.882143 0.328571 0
0.150000 0.346429 0
0.167857 0.346429 0
0.185714 0.346429 0
0.203571 0.346429 0
0.221429 0.346429 0
0.239286 0.346429 0
0.257143 0.346429 0
0.275000 0.346429 0
0.292857 0.346429 0
0.310714 0.346429 0
0.328571 0.346429 0
0.346429 0.346429 0
0.364286 0.346429 0
0.382143 0.346429 0
0.400000 0.346429 0
0.417857 0.346429 0
0.435714 0.346429 0
0.453571 0.346429 0
0.471429 0.346429 0
0.489286 0.346429 0
0.507143 0.346429 0
0.525000 0.346429 0
0.542857 0.346429 0
0.560714 0.346429 0
0.578571 0.346429 0
0.596429 0.346429 0
0.614286 0.346429 0
0.632143 0.346429 0
0.650000 0.346429 0
[...]
POINT_DATA 1764 

VECTORS velocity float
0.000000 0.000000 0
-0.000002 0.000000 0
-0.000003 0.000000 0
-0.000003 0.000000 0
-0.000003 0.000000 0
-0.000002 0.000000 0
-0.000001 0.000000 0
-0.000003 0.000000 0
-0.000007 0.000000 0
0.000001 0.000000 0
0.000007 0.000000 0
0.000009 0.000000 0
0.000011 0.000000 0
0.000013 0.000000 0
0.000013 0.000000 0
0.000014 0.000000 0
0.000014 0.000000 0
0.000014 0.000000 0
0.000014 0.000000 0
0.000014 0.000000 0
0.000013 0.000000 0
0.000013 0.000000 0
0.000013 0.000000 0
0.000013 0.000000 0
0.000013 0.000000 0
0.000013 0.000000 0
0.000014 0.000000 0
0.000014 0.000000 0
0.000014 0.000000 0
0.000014 0.000000 0
0.000015 0.000000 0
0.000015 0.000000 0
0.000015 0.000000 0
0.000015 0.000000 0
0.000014 0.000000 0
0.000013 0.000000 0
0.000011 0.000000 0
0.000009 0.000000 0
0.000005 0.000000 0
-0.000001 0.000000 0
-0.000000 0.000000 0
0.000000 0.000000 0
0.000000 0.000002 0
0.035550 -0.032494 0
0.063330 -0.019578 0
0.074629 -0.002758 0
0.070536 0.008223 0
0.059619 0.011893 0
0.050635 0.011024 0
0.035979 -0.002478 0
0.011201 -0.008536 0
-0.019077 0.014580 0
-0.057665 0.037643 0
-0.100995 0.044224 0
-0.144141 0.043887 0
-0.184829 0.041651 0
-0.221662 0.038004 0
-0.254012 0.033752 0
-0.281756 0.029383 0
-0.305095 0.025204 0
-0.324403 0.021377 0
-0.340124 0.017960 0
-0.352691 0.014938 0
-0.362480 0.012251 0
-0.369785 0.009816 0
-0.374792 0.007515 0
-0.377569 0.005210 0
-0.378056 0.002760 0
-0.376078 0.000024 0
-0.371413 -0.003154 0
-0.363695 -0.006863 0
-0.352432 -0.011158 0
-0.337020 -0.016177 0
-0.316732 -0.022054 0
-0.290747 -0.028866 0
-0.258212 -0.036579 0
-0.218387 -0.044897 0
-0.170985 -0.052986 0
-0.116873 -0.058881 0
-0.059499 -0.058248 0
-0.007626 -0.032110 0
0.020637 0.010119 0
0.000031 -0.000001 0
0.000000 -0.014451 0
0.000000 0.000004 0
0.029775 -0.063330 0
0.050681 -0.039079 0
0.059597 -0.007207 0
0.052924 0.015009 0
0.035190 0.019901 0
0.009683 0.023641 0
-0.025975 0.039434 0
-0.083212 0.055056 0
-0.139245 0.068866 0
-0.182635 0.081918 0
-0.220927 0.086476 0
-0.256467 0.083834 0
-0.287896 0.077521 0
-0.314860 0.069183 0
-0.337332 0.060095 0
-0.355570 0.051083 0
-0.369986 0.042647 0
-0.381051 0.035029 0
-0.389227 0.028287 0
-0.394921 0.022356 0
-0.398462 0.017094 0
-0.400085 0.012312 0
-0.399924 0.007785 0
-0.398028 0.003264 0
-0.394346 -0.001491 0
-0.388847 -0.006643 0
-0.381312 -0.012383 0
-0.371490 -0.018981 0
-0.358959 -0.026675 0
-0.343211 -0.035700 0
-0.323673 -0.046272 0
-0.299707 -0.058520 0
-0.270658 -0.072360 0
-0.235949 -0.087227 0
-0.195305 -0.101514 0
-0.149245 -0.111486 0
-0.099947 -0.109247 0
-0.052559 -0.080136 0
-0.006481 -0.007626 0
0.000018 0.000003 0
0.000000 -0.020635 0
0.000000 0.000004 0
0.016152 -0.083175 0
0.021808 -0.049400 0
0.014025 -0.005001 0
-0.003872 0.032631 0
-0.032816 0.055133 0
-0.076349 0.072189 0
-0.124170 0.090417 0
-0.169084 0.104734 0
-0.211861 0.114003 0
-0.247068 0.119325 0
-0.275252 0.118057 0
-0.298512 0.110857 0
-0.317288 0.100043 0
-0.332072 0.087440 0
-0.343373 0.074463 0
-0.351726 0.062036 0
-0.357644 0.050684 0
-0.361583 0.040618 0
-0.363920 0.031831 0
-0.364944 0.024173 0
-0.364861 0.017415 0
-0.363793 0.011278 0
-0.361793 0.005458 0
-0.358862 -0.000368 0
-0.354970 -0.006421 0
-0.350006 -0.013009 0
-0.343700 -0.020511 0
-0.335752 -0.029216 0
-0.325813 -0.039436 0
-0.313484 -0.051463 0
-0.298346 -0.065559 0
-0.279954 -0.081881 0
-0.257844 -0.100338 0
-0.231548 -0.120251 0
-0.200646 -0.139690 0
-0.164902 -0.154239 0
-0.124492 -0.154934 0
-0.080314 -0.125577 0
-0.034899 -0.042440 0
-0.000023 0.000008 0
0.000000 -0.007961 0
0.000000 0.000003 0
-0.004108 -0.085138 0
-0.019488 -0.036952 0
-0.045335 0.018474 0
-0.072561 0.061850 0
-0.104863 0.092379 0
-0.143076 0.114995 0
-0.181613 0.132169 0
-0.216056 0.142747 0
-0.246319 0.146850 0
-0.270101 0.145309 0
-0.287435 0.137919 0
-0.299749 0.125870 0
-0.308089 0.111081 0
-0.313385 0.095268 0
-0.316410 0.079748 0
-0.317795 0.065353 0
-0.318034 0.052504 0
-0.317495 0.041305 0
-0.316431 0.031649 0
-0.315002 0.023297 0
-0.313290 0.015942 0
-0.311317 0.009244 0
-0.309057 0.002854 0
-0.306451 -0.003559 0
-0.303465 -0.010348 0
-0.299807 -0.017913 0
-0.295273 -0.026637 0
-0.289576 -0.036868 0
-0.282418 -0.048943 0
-0.273490 -0.063167 0
-0.262505 -0.079803 0
-0.249203 -0.099022 0
-0.233311 -0.120766 0
-0.214480 -0.144425 0
-0.192179 -0.168161 0
-0.165554 -0.187641 0
-0.133310 -0.193835 0
-0.093870 -0.169729 0
-0.046863 -0.087940 0
-0.000072 0.000012 0
0.000000 0.014273 0
0.000000 0.000000 0
-0.024831 -0.063687 0
-0.057690 -0.008173 0
-0.089112 0.048073 0
-0.118795 0.092159 0
-0.149543 0.125648 0
-0.180721 0.148939 0
-0.209613 0.163397 0
-0.233980 0.169440 0
-0.253312 0.168048 0
-0.266792 0.160441 0
-0.274816 0.147704 0
-0.278578 0.131511 0
-0.279242 0.113680 0
-0.277845 0.095761 0
-0.275211 0.078872 0
-0.271957 0.063661 0
-0.268519 0.050385 0
-0.265177 0.039015 0
-0.262093 0.029337 0
-0.259337 0.021032 0
-0.256908 0.013730 0
-0.254763 0.007046 0
-0.252822 0.000593 0
-0.250990 -0.005961 0
-0.249110 -0.013066 0
-0.246945 -0.021201 0
-0.244261 -0.030741 0
-0.240774 -0.042070 0
-0.236182 -0.055523 0
-0.230206 -0.071376 0
-0.222637 -0.089846 0
-0.213353 -0.111075 0
-0.202263 -0.135060 0
-0.189172 -0.161383 0
-0.173573 -0.188616 0
-0.154317 -0.213108 0
-0.129212 -0.226619 0
-0.094992 -0.212024 0
-0.049185 -0.136310 0
-0.000107 0.000014 0
0.000000 0.038908 0
0.000000 -0.000003 0
-0.037668 -0.027448 0
-0.077814 0.027329 0
-0.111161 0.079579 0
-0.141821 0.122281 0
-0.169786 0.154304 0
-0.194795 0.175065 0
-0.215688 0.185428 0
-0.231531 0.186446 0
-0.242127 0.179662 0
-0.247491 0.166813 0
-0.248353 0.149705 0
-0.245841 0.130295 0
-0.241089 0.110348 0
-0.235095 0.091238 0
-0.228644 0.073860 0
-0.222311 0.058661 0
-0.216481 0.045724 0
-0.211384 0.034880 0
-0.207126 0.025809 0
-0.203718 0.018112 0
-0.201110 0.011368 0
-0.199208 0.005158 0
-0.197899 -0.000918 0
-0.197064 -0.007271 0
-0.196452 -0.014393 0
-0.195892 -0.022762 0
-0.195126 -0.032808 0
-0.193842 -0.044947 0
-0.191680 -0.059510 0
-0.188305 -0.076712 0
-0.183503 -0.096656 0
-0.177233 -0.119395 0
-0.169553 -0.144948 0
-0.160441 -0.173116 0
-0.149566 -0.203015 0
-0.135855 -0.232001 0
-0.116894 -0.253160 0
-0.088636 -0.249757 0
-0.047266 -0.182932 0
-0.000132 0.000016 0
0.000000 0.063462 0
0.000000 -0.000005 0
-0.042728 0.014127 0
-0.083170 0.065321 0
-0.117521 0.112079 0
-0.147217 0.150783 0
-0.172014 0.178622 0
-0.191888 0.194840 0
-0.206512 0.200133 0
-0.215743 0.195880 0
-0.219819 0.184008 0
-0.219256 0.166667 0
-0.214981 0.146054 0
-0.208094 0.124246 0
-0.199659 0.102934 0
-0.190603 0.083317 0
-0.181657 0.066088 0
-0.173358 0.051497 0
-0.166059 0.039458 0
-0.159953 0.029660 0
-0.155104 0.021671 0
-0.151479 0.015015 0
-0.148983 0.009219 0
-0.147495 0.003835 0
-0.146877 -0.001551 0
-0.146976 -0.007408 0
-0.147598 -0.014238 0
-0.148593 -0.022527 0
-0.149713 -0.032792 0
-0.150606 -0.045517 0
-0.150808 -0.061059 0
-0.149849 -0.079553 0
-0.147417 -0.100918 0
-0.143490 -0.125026 0
-0.138235 -0.151852 0
-0.131786 -0.181370 0
-0.124038 -0.213202 0
-0.114243 -0.245779 0
-0.100285 -0.273838 0
-0.078015 -0.281652 0
-0.042664 -0.224946 0
-0.000143 0.000017 0
0.000000 0.086177 0
0.000000 -0.000006 0
-0.041533 0.055722 0
-0.080061 0.102122 0
-0.113261 0.143625 0
-0.140710 0.176774 0
-0.162197 0.198975 0
-0.177811 0.209563 0
-0.187659 0.209283 0
-0.192049 0.199753 0
-0.191545 0.183175 0
-0.186940 0.161975 0
-0.179247 0.138543 0
-0.169525 0.114973 0
-0.158772 0.092857 0
-0.147846 0.073236 0
-0.137438 0.056615 0
-0.128059 0.043063 0
-0.120046 0.032319 0
-0.113567 0.023926 0
-0.108638 0.017334 0
-0.105164 0.011991 0
-0.102987 0.007385 0
-0.101938 0.003052 0
-0.101864 -0.001437 0
-0.102622 -0.006551 0
-0.104141 -0.012777 0
-0.106334 -0.020647 0
-0.109023 -0.030795 0
-0.111847 -0.043852 0
-0.114228 -0.060267 0
-0.115488 -0.080103 0
-0.115139 -0.103016 0
-0.113139 -0.128577 0
-0.109733 -0.156651 0
-0.105161 -0.187313 0
-0.099515 -0.220558 0
-0.092430 -0.255754 0
-0.082373 -0.289387 0
-0.065602 -0.307378 0
-0.036788 -0.260947 0
-0.000144 0.000018 0
0.000000 0.106128 0
0.000000 -0.000007 0
-0.036394 0.094188 0
-0.072149 0.137048 0
-0.102516 0.172729 0
-0.126906 0.199719 0
-0.145078 0.215723 0
-0.157156 0.220302 0
-0.163444 0.214371 0
-0.164471 0.199766 0
-0.160975 0.178900 0
-0.153860 0.154368 0
-0.144137 0.128639 0
-0.132804 0.103772 0
-0.120780 0.081255 0
-0.108862 0.061983 0
-0.097706 0.046301 0
-0.087826 0.034105 0
-0.079584 0.024966 0
-0.073181 0.018252 0
-0.068612 0.013268 0
-0.065722 0.009364 0
-0.064249 0.005994 0
-0.063911 0.002713 0
-0.064458 -0.000867 0
-0.065687 -0.005132 0
-0.067704 -0.010526 0
-0.070540 -0.017644 0
-0.074179 -0.027278 0
-0.078361 -0.040312 0
-0.082439 -0.057419 0
-0.085504 -0.078642 0
-0.086849 -0.103267 0
-0.086404 -0.130431 0
-0.084468 -0.159829 0
-0.081343 -0.191588 0
-0.077245 -0.225933 0
-0.072121 -0.262921 0
-0.065063 -0.300666 0
-0.053047 -0.327237 0
-0.030591 -0.290547 0
-0.000135 0.000017 0
0.000000 0.122965 0
0.000000 -0.000007 0
-0.030495 0.127871 0
-0.061788 0.168244 0
-0.088271 0.198382 0
-0.109151 0.219336 0
-0.124122 0.229225 0
-0.133280 0.227929 0
-0.136985 0.216598 0
-0.135835 0.197285 0
-0.130604 0.172564 0
-0.122188 0.145137 0
-0.111528 0.117487 0
-0.099524 0.091616 0
-0.086996 0.068916 0
-0.074664 0.050162 0
-0.063151 0.035579 0
-0.052985 0.024940 0
-0.044608 0.017674 0
-0.038377 0.012954 0
-0.034300 0.009875 0
-0.032205 0.007627 0
-0.031734 0.005574 0
-0.032485 0.003261 0
-0.034092 0.000340 0
-0.036277 -0.003305 0
-0.038852 -0.007925 0
-0.042070 -0.014172 0
-0.046114 -0.022974 0
-0.050949 -0.035592 0
-0.055993 -0.053123 0
-0.060172 -0.075693 0
-0.062611 -0.102116 0
-0.063259 -0.130959 0
-0.062439 -0.161712 0
-0.060476 -0.194536 0
-0.057638 -0.229781 0
-0.054065 -0.267935 0
-0.049363 -0.308461 0
-0.041321 -0.341850 0
-0.024660 -0.313994 0
-0.000122 0.000017 0
0.000000 0.136718 0
0.000000 -0.000008 0
-0.024217 0.155975 0
-0.050335 0.194824 0
-0.072463 0.220092 0
-0.089694 0.235570 0
-0.101677 0.239852 0
-0.108459 0.233166 0
-0.110374 0.216926 0
-0.107985 0.193385 0
-0.102009 0.165253 0
-0.093251 0.135293 0
-0.082527 0.105975 0
-0.070611 0.079239 0
-0.058208 0.056395 0
-0.045954 0.038138 0
-0.034412 0.024621 0
-0.024135 0.015562 0
-0.015649 0.010357 0
-0.009642 0.007944 0
-0.006134 0.007096 0
-0.004769 0.006798 0
-0.005128 0.006274 0
-0.006790 0.005071 0
-0.009409 0.002924 0
-0.012798 -0.000372 0
-0.016606 -0.004733 0
-0.020476 -0.010382 0
-0.024860 -0.018399 0
-0.029899 -0.030434 0
-0.035174 -0.048197 0
-0.039604 -0.072024 0
-0.042376 -0.100180 0
-0.043569 -0.130603 0
-0.043485 -0.162613 0
-0.042425 -0.196389 0
-0.040662 -0.232344 0
-0.038419 -0.271196 0
-0.035643 -0.313410 0
-0.030878 -0.351939 0
-0.019298 -0.331868 0
-0.000106 0.000017 0
0.000000 0.147625 0
0.000000 -0.000007 0
-0.017831 0.178206 0
-0.038592 0.216491 0
-0.056276 0.237741 0
-0.069935 0.248549 0
-0.079210 0.247990 0
-0.084101 0.236626 0
-0.084870 0.216124 0
-0.081988 0.188919 0
-0.076054 0.157830 0
-0.067730 0.125655 0
-0.057682 0.094847 0
-0.046539 0.067297 0
-0.034891 0.044259 0
-0.023275 0.026367 0
-0.012019 0.013760 0
-0.001948 0.006177 0
0.005721 0.003181 0
0.010823 0.003439 0
0.013578 0.005002 0
0.014394 0.006622 0
0.013614 0.007595 0
0.011565 0.007542 0
0.008534 0.006348 0
0.004715 0.003892 0
0.000215 -0.000247 0
-0.004624 -0.005918 0
-0.009659 -0.013550 0
-0.014787 -0.025278 0
-0.019715 -0.043419 0
-0.023525 -0.068491 0
-0.025873 -0.098151 0
-0.027067 -0.129850 0
-0.027342 -0.162856 0
-0.026935 -0.197359 0
-0.026086 -0.233787 0
-0.025030 -0.272955 0
-0.023896 -0.316002 0
-0.021835 -0.358195 0
-0.014611 -0.344872 0
-0.000091 0.000016 0
0.000000 0.156015 0
0.000000 -0.000007 0
-0.011541 0.194567 0
-0.027016 0.233269 0
-0.040379 0.251435 0
-0.050661 0.258504 0
-0.057532 0.254018 0
-0.060949 0.238826 0
-0.061091 0.214813 0
-0.058306 0.184569 0
-0.053044 0.150995 0
-0.045801 0.116920 0
-0.037078 0.084783 0
-0.027359 0.056449 0
-0.017107 0.033132 0
-0.006496 0.015266 0
0.003611 0.003295 0
0.011736 -0.002178 0
0.017424 -0.002414 0
0.021218 0.000087 0
0.023359 0.003525 0
0.023980 0.006763 0
0.023227 0.009103 0
0.021285 0.010150 0
0.018373 0.009775 0
0.014743 0.007947 0
0.010515 0.004606 0
0.005519 -0.000508 0
0.000272 -0.008235 0
-0.004792 -0.020377 0
-0.008800 -0.039459 0
-0.011214 -0.065866 0
-0.012565 -0.096638 0
-0.013333 -0.129135 0
-0.013654 -0.162745 0
-0.013680 -0.197645 0
-0.013597 -0.234249 0
-0.013614 -0.273386 0
-0.013926 -0.316605 0
-0.014113 -0.361224 0
-0.010590 -0.353703 0
-0.000077 0.000015 0
0.000000 0.162235 0
0.000000 -0.000007 0
-0.005460 0.205222 0
-0.015846 0.245328 0
-0.025099 0.261386 0
-0.032239 0.265702 0
-0.036983 0.258278 0
-0.039263 0.240186 0
-0.039175 0.213482 0
-0.036939 0.180872 0
-0.032846 0.145325 0
-0.027221 0.109688 0
-0.020406 0.076405 0
-0.012744 0.047326 0
-0.004277 0.023396 0
0.004187 0.005649 0
0.011262 -0.004471 0
0.016290 -0.007635 0
0.019982 -0.006301 0
0.022690 -0.002497 0
0.024449 0.002240 0
0.025145 0.006753 0
0.024750 0.010289 0
0.023300 0.012396 0
0.020899 0.012890 0
0.017712 0.011751 0
0.013893 0.008977 0
0.009600 0.004325 0
0.005079 -0.003240 0
0.001030 -0.016206 0
-0.001162 -0.036996 0
-0.001642 -0.064725 0
-0.001725 -0.096032 0
-0.001831 -0.128761 0
-0.001995 -0.162510 0
-0.002292 -0.197416 0
-0.002855 -0.233853 0
-0.003846 -0.272626 0
-0.005454 -0.315502 0
-0.007537 -0.361530 0
-0.007161 -0.358985 0
-0.000066 0.000015 0
0.000000 0.166604 0
0.000000 -0.000006 0
0.000172 0.210414 0
-0.005162 0.252908 0
-0.010528 0.267827 0
-0.014751 0.270388 0
-0.017596 0.261042 0
-0.018983 0.241018 0
-0.018940 0.212490 0
-0.017567 0.178240 0
-0.015004 0.141278 0
-0.011402 0.104480 0
-0.006931 0.070305 0
-0.001800 0.040319 0
0.003786 0.016201 0
0.008632 -0.000273 0
0.012096 -0.008808 0
0.014751 -0.010899 0
0.016841 -0.008814 0
0.018488 -0.004379 0
0.019759 0.001070 0
0.020463 0.006462 0
0.020449 0.010948 0
0.019616 0.014001 0
0.017944 0.015363 0
0.015506 0.014953 0
0.012454 0.012717 0
0.009069 0.008306 0
0.005901 0.000335 0
0.004182 -0.014136 0
0.004741 -0.036786 0
0.006255 -0.065303 0
0.007417 -0.096450 0
0.008024 -0.128865 0
0.008101 -0.162284 0
0.007615 -0.196785 0
0.006481 -0.232694 0
0.004587 -0.270787 0
0.001806 -0.312914 0
-0.001891 -0.359517 0
-0.004217 -0.361240 0
-0.000058 0.000014 0
0.000000 0.169395 0
0.000000 -0.000005 0
0.005298 0.210384 0
0.004969 0.256028 0
0.003305 0.270975 0
0.001835 0.272771 0
0.000774 0.262510 0
0.000182 0.241529 0
0.000068 0.212066 0
0.000423 0.176937 0
0.001235 0.139160 0
0.002502 0.101615 0
0.004210 0.066803 0
0.006216 0.036610 0
0.007887 0.012964 0
0.008935 -0.002661 0
0.009593 -0.010590 0
0.010268 -0.012381 0
0.010878 -0.010038 0
0.011432 -0.005414 0
0.012006 0.000265 0
0.012513 0.006063 0
0.012755 0.011136 0
0.012515 0.014901 0
0.011664 0.017000 0
0.010205 0.017241 0
0.008301 0.015415 0
0.006376 0.010878 0
0.005368 0.001647 0
0.006894 -0.015046 0
0.010237 -0.039069 0
0.013397 -0.067401 0
0.015614 -0.097801 0
0.016846 -0.129445 0
0.017134 -0.162100 0
0.016465 -0.195797 0
0.014782 -0.230824 0
0.012013 -0.267951 0
0.008088 -0.309025 0
0.002981 -0.355508 0
-0.001631 -0.360876 0
-0.000052 0.000013 0
0.000000 0.170819 0
0.000000 -0.000004 0
0.010096 0.205445 0
0.014531 0.254902 0
0.016423 0.270961 0
0.017599 0.272919 0
0.018295 0.262695 0
0.018526 0.241723 0
0.018300 0.212249 0
0.017656 0.177074 0
0.016674 0.139198 0
0.015461 0.101505 0
0.014108 0.066592 0
0.012568 0.036642 0
0.010518 0.013482 0
0.008179 -0.001979 0
0.006238 -0.010141 0
0.004955 -0.012184 0
0.004117 -0.009979 0
0.003597 -0.005507 0
0.003423 -0.000011 0
0.003623 0.005713 0
0.003999 0.010946 0
0.004289 0.015092 0
0.004308 0.017673 0
0.004039 0.018316 0
0.003694 0.016546 0
0.003923 0.011239 0
0.006143 -0.000182 0
0.010954 -0.019005 0
0.016241 -0.043289 0
0.020544 -0.070680 0
0.023526 -0.099899 0
0.025194 -0.130385 0
0.025575 -0.161902 0
0.024655 -0.194433 0
0.022392 -0.228243 0
0.018740 -0.264093 0
0.013663 -0.303882 0
0.007209 -0.349798 0
0.000689 -0.358259 0
-0.000047 0.000013 0
0.000000 0.171024 0
0.000000 -0.000004 0
0.014574 0.195853 0
0.023582 0.249701 0
0.028915 0.267908 0
0.032637 0.270899 0
0.035079 0.261583 0
0.036216 0.241524 0
0.036031 0.212936 0
0.034579 0.178563 0
0.031994 0.141355 0
0.028472 0.104180 0
0.024219 0.069695 0
0.019397 0.040200 0
0.014127 0.017353 0
0.008857 0.001619 0
0.004185 -0.007366 0
0.000759 -0.010260 0
-0.001501 -0.008680 0
-0.002950 -0.004721 0
-0.003729 0.000239 0
-0.003827 0.005487 0
-0.003401 0.010470 0
-0.002653 0.014591 0
-0.001736 0.017250 0
-0.000626 0.017856 0
0.001002 0.015531 0
0.004135 0.008429 0
0.010032 -0.005384 0
0.017003 -0.025144 0
0.023309 -0.048659 0
0.028241 -0.074687 0
0.031643 -0.102451 0
0.033499 -0.131493 0
0.033796 -0.161562 0
0.032503 -0.192614 0
0.029579 -0.224910 0
0.025003 -0.259221 0
0.018778 -0.297493 0
0.010981 -0.342534 0
0.002797 -0.353668 0
-0.000044 0.000012 0
0.000000 0.170129 0
0.000000 -0.000003 0
0.018673 0.181863 0
0.032065 0.240561 0
0.040765 0.261906 0
0.046964 0.266755 0
0.051169 0.259116 0
0.053351 0.240772 0
0.053458 0.213886 0
0.051541 0.181111 0
0.047768 0.145305 0
0.042404 0.109279 0
0.035783 0.075667 0
0.028301 0.046735 0
0.020441 0.024021 0
0.012807 0.007963 0
0.005813 -0.002043 0
0.000053 -0.006498 0
-0.003827 -0.006269 0
-0.006108 -0.003280 0
-0.007314 0.000867 0
-0.007620 0.005385 0
-0.007132 0.009772 0
-0.005944 0.013427 0
-0.004112 0.015645 0
-0.001466 0.015578 0
0.002625 0.011785 0
0.009101 0.002209 0
0.017245 -0.013051 0
0.025039 -0.032281 0
0.031679 -0.054527 0
0.036815 -0.079014 0
0.040310 -0.105157 0
0.042090 -0.132539 0
0.042092 -0.160906 0
0.040263 -0.190216 0
0.036563 -0.220743 0
0.030988 -0.253291 0
0.023579 -0.289860 0
0.014456 -0.333818 0
0.004733 -0.347278 0
-0.000042 0.000012 0
0.000000 0.168226 0
0.000000 -0.000002 0
0.022249 0.163787 0
0.039800 0.227608 0
0.051822 0.253009 0
0.060482 0.260495 0
0.066506 0.255196 0
0.069917 0.239235 0
0.070642 0.214745 0
0.068716 0.184254 0
0.064321 0.150493 0
0.057781 0.116165 0
0.049541 0.083798 0
0.040186 0.055542 0
0.030429 0.032846 0
0.021022 0.016247 0
0.012504 0.005388 0
0.005124 -0.000619 0
-0.000435 -0.002519 0
-0.003941 -0.001234 0
-0.005711 0.001751 0
-0.006172 0.005305 0
-0.005525 0.008794 0
-0.003810 0.011571 0
-0.000914 0.012773 0
0.003478 0.011119 0
0.010094 0.004963 0
0.018628 -0.006191 0
0.027177 -0.021323 0
0.034952 -0.039578 0
0.041480 -0.060436 0
0.046475 -0.083317 0
0.049756 -0.107725 0
0.051188 -0.133276 0
0.050666 -0.159735 0
0.048115 -0.187085 0
0.043497 -0.215635 0
0.036828 -0.246237 0
0.028181 -0.280961 0
0.017727 -0.323689 0
0.006531 -0.339211 0
-0.000041 0.000011 0
0.000000 0.165395 0
0.000000 -0.000001 0
0.025085 0.142063 0
0.046467 0.210987 0
0.061777 0.241224 0
0.072944 0.252072 0
0.080896 0.249682 0
0.085761 0.236635 0
0.087472 0.215087 0
0.086046 0.187432 0
0.081671 0.156239 0
0.074708 0.124059 0
0.065682 0.093262 0
0.055290 0.065847 0
0.044367 0.043185 0
0.033757 0.025889 0
0.024156 0.013854 0
0.015970 0.006441 0
0.009388 0.002796 0
0.004755 0.001996 0
0.002186 0.003098 0
0.001416 0.005199 0
0.002248 0.007410 0
0.004586 0.008816 0
0.008560 0.008358 0
0.014627 0.004571 0
0.022613 -0.003366 0
0.031174 -0.014875 0
0.039343 -0.029374 0
0.046677 -0.046584 0
0.052775 -0.066049 0
0.057328 -0.087290 0
0.060104 -0.109870 0
0.060917 -0.133449 0
0.059632 -0.157833 0
0.056160 -0.183047 0
0.050470 -0.209456 0
0.042596 -0.237976 0
0.032648 -0.270759 0
0.020843 -0.312167 0
0.008222 -0.329552 0
-0.000040 0.000011 0
0.000000 0.161694 0
0.000000 0.000000 0
0.026884 0.117320 0
0.051594 0.190916 0
0.070133 0.226532 0
0.083928 0.241376 0
0.093993 0.242380 0
0.100580 0.232659 0
0.103660 0.214460 0
0.103249 0.190055 0
0.099533 0.161831 0
0.092894 0.132154 0
0.083899 0.103216 0
0.073293 0.076857 0
0.061947 0.054380 0
0.050740 0.036458 0
0.040438 0.023175 0
0.031593 0.014149 0
0.024515 0.008696 0
0.019384 0.005968 0
0.016270 0.005090 0
0.015191 0.005243 0
0.016104 0.005625 0
0.018881 0.005259 0
0.023697 0.002731 0
0.030479 -0.002933 0
0.038232 -0.011584 0
0.046054 -0.022921 0