# vtk DataFile Version 2.0
generated by CFD-lab course output (written by Tobias Neckel) 
ASCII

DATASET STRUCTURED_GRID
DIMENSIONS  42 42 1 
POINTS 1764 float

0.150000 0.150000 0
0.167857 0.150000 0
0.185714 0.150000 0
0.203571 0.150000 0
0.221429 0.150000 0
0.239286 0.150000 0
0.257143 0.150000 0
0.275000 0.150000 0
0.292857 0.150000 0
0.310714 0.150000 0
0.328571 0.150000 0
0.346429 0.150000 0
0.364286 0.150000 0
0.382143 0.150000 0
0.400000 0.150000 0
0.417857 0.150000 0
0.435714 0.150000 0
0.453571 0.150000 0
0.471429 0.150000 0
0.489286 0.150000 0
0.507143 0.150000 0
0.525000 0.150000 0
0.542857 0.150000 0
0.560714 0.150000 0
0.578571 0.150000 0
0.596429 0.150000 0
0.614286 0.150000 0
0.632143 0.150000 0
0.650000 0.150000 0
0.667857 0.150000 0
0.685714 0.150000 0
0.703571 0.150000 0
0.721429 0.150000 0
0.739286 0.150000 0
0.757143 0.150000 0
0.775000 0.150000 0
0.792857 0.150000 0
0.810714 0.150000 0
0.828571 0.150000 0
0.846429 0.150000 0
0.864286 0.150000 0
0.882143 0.150000 0
0.150000 0.167857 0
0.167857 0.167857 0
0.185714 0.167857 0
0.203571 0.167857 0
0.221429 0.167857 0
0.239286 0.167857 0
0.257143 0.167857 0
0.275000 0.167857 0
0.292857 0.167857 0
0.310714 0.167857 0
0.328571 0.167857 0
0.346429 0.167857 0
0.364286 0.167857 0
0.382143 0.167857 0
0.400000 0.167857 0
0.417857 0.167857 0
0.435714 0.167857 0
0.453571 0.167857 0
0.471429 0.167857 0
0.489286 0.167857 0
0.507143 0.167857 0
0.525000 0.167857 0
0.542857 0.167857 0
0.560714 0.167857 0
0.578571 0.167857 0
0.596429 0.167857 0
0.614286 0.167857 0
0.632143 0.167857 0
0.650000 0.167857 0
0.667857 0.167857 0
0.685714 0.167857 0
0.703571 0.167857 0
0.721429 0.167857 0
0.739286 0.167857 0
0.757143 0.167857 0
0.775000 0.167857 0
0.792857 0.167857 0
0.810714 0.167857 0
0.828571 0.167857 0
0.846429 0.167857 0
0.864286 0.167857 0
0.882143 0.167857 0
0.150000 0.185714 0
0.167857 0.185714 0
0.185714 0.185714 0
0.203571 0.185714 0
0.221429 0.185714 0
0.239286 0.185714 0
0.257143 0.185714 0
0.275000 0.185714 0
0.292857 0.185714 0
0.310714 0.185714 0
0.328571 0.185714 0
0.346429 0.185714 0
0.364286 0.185714 0
0.382143 0.185714 0
0.400000 0.185714 0
0.417857 0.185714 0
0.435714 0.185714 0
0.453571 0.185714 0
0.471429 0.185714 0
0.489286 0.185714 0
0.507143 0.185714 0
0.525000 0.185714 0
0.542857 0.185714 0
0.560714 0.185714 0
0.578571 0.185714 0
0.596429 0.185714 0
0.614286 0.185714 0
0.632143 0.185714 0
0.650000 0.185714 0
0.667857 0.185714 0
0.685714 0.185714 0
0.703571 0.185714 0
0.721429 0.185714 0
0.739286 0.185714 0
0.757143 0.185714 0
0.775000 0.185714 0
0.792857 0.185714 0
0.810714 0.185714 0
0.828571 0.185714 0
0.846429 0.185714 0
0.864286 0.185714 0
0.882143 0.185714 0
0.150000 0.203571 0
0.167857 0.203571 0
0.185714 0.203571 0
0.203571 0.203571 0
0.221429 0.203571 0
0.239286 0.203571 0
0.257143 0.203571 0
0.275000 0.203571 0
0.292857 0.203571 0
0.310714 0.203571 0
0.328571 0.203571 0
0.346429 0.203571 0
0.364286 0.203571 0
0.382143 0.203571 0
0.400000 0.203571 0
0.417857 0.203571 0
0.435714 0.203571 0
0.453571 0.203571 0
0.471429 0.203571 0
0.489286 0.203571 0
0.507143 0.203571 0
0.525000 0.203571 0
0.542857 0.203571 0
0.560714 0.203571 0
0.578571 0.203571 0
0.596429 0.203571 0
0.614286 0.203571 0
0.632143 0.203571 0
0.650000 0.203571 0
0.667857 0.203571 0
0.685714 0.203571 0
0.703571 0.203571 0
0.721429 0.203571 0
0.739286 0.203571 0
0.757143 0.203571 0
0.775000 0.203571 0
0.792857 0.203571 0
0.810714 0.203571 0
0.828571 0.203571 0
0.846429 0.203571 0
0.864286 0.203571 0
0.882143 0.203571 0
0.150000 0.221429 0
0.167857 0.221429 0
0.185714 0.221429 0
0.203571 0.221429 0
0.221429 0.221429 0
0.239286 0.221429 0
0.257143 0.221429 0
0.275000 0.221429 0
0.292857 0.221429 0
0.310714 0.221429 0
0.328571 0.221429 0
0.346429 0.221429 0
0.364286 0.221429 0
0.382143 0.221429 0
0.400000 0.221429 0
0.417857 0.221429 0
0.435714 0.221429 0
0.453571 0.221429 0
0.471429 0.221429 0
0.489286 0.221429 0
0.507143 0.221429 0
0.525000 0.221429 0
0.542857 0.221429 0
0.560714 0.221429 0
0.578571 0.221429 0
0.596429 0.221429 0
0.614286 0.221429 0
0.632143 0.221429 0
0.650000 0.221429 0
0.667857 0.221429 0
0.685714 0.221429 0
0.703571 0.221429 0
0.721429 0.221429 0
0.739286 0.221429 0
0.757143 0.221429 0
0.775000 0.221429 0
0.792857 0.221429 0
0.810714 0.221429 0
0.828571 0.221429 0
0.846429 0.221429 0
0.864286 0.221429 0
0.882143 0.221429 0
0.150000 0.239286 0
0.167857 0.239286 0
0.185714 0.239286 0
0.203571 0.239286 0
0.221429 0.239286 0
0.239286 0.239286 0
0.257143 0.239286 0
0.275000 0.239286 0
0.292857 0.239286 0
0.310714 0.239286 0
0.328571 0.239286 0
0.346429 0.239286 0
0.364286 0.239286 0
0.382143 0.239286 0
0.400000 0.239286 0
0.417857 0.239286 0
0.435714 0.239286 0
0.453571 0.239286 0
0.471429 0.239286 0
0.489286 0.239286 0
0.507143 0.239286 0
0.525000 0.239286 0
0.542857 0.239286 0
0.560714 0.239286 0
0.578571 0.239286 0
0.596429 0.239286 0
0.614286 0.239286 0
0.632143 0.239286 0
0.650000 0.239286 0
0.667857 0.239286 0
0.685714 0.239286 0
0.703571 0.239286 0
0.721429 0.239286 0
0.739286 0.239286 0
0.757143 0.239286 0
0.775000 0.239286 0
0.792857 0.239286 0
0.810714 0.239286 0
0.828571 0.239286 0
0.846429 0.239286 0
0.864286 0.239286 0
0.882143 0.239286 0
0.150000 0.257143 0
0.167857 0.257143 0
0.185714 0.257143 0
0.203571 0.257143 0
0.221429 0.257143 0
0.239286 0.257143 0
0.257143 0.257143 0
0.275000 0.257143 0
0.292857 0.257143 0
0.310714 0.257143 0
0.328571 0.257143 0
0.346429 0.257143 0
0.364286 0.257143 0
0.382143 0.257143 0
0.400000 0.257143 0
0.417857 0.257143 0
0.435714 0.257143 0
0.453571 0.257143 0
0.471429 0.257143 0
0.489286 0.257143 0
0.507143 0.257143 0
0.525000 0.257143 0
0.542857 0.257143 0
0.560714 0.257143 0
0.578571 0.257143 0
0.596429 0.257143 0
0.614286 0.257143 0
0.632143 0.257143 0
0.650000 0.257143 0
0.667857 0.257143 0
0.685714 0.257143 0
0.703571 0.257143 0
0.721429 0.257143 0
0.739286 0.257143 0
0.757143 0.257143 0
0.775000 0.257143 0
0.792857 0.257143 0
0.810714 0.257143 0
0.828571 0.257143 0
0.846429 0.257143 0
0.864286 0.257143 0
0.882143 0.257143 0
0.150000 0.275000 0
0.167857 0.275000 0
0.185714 0.275000 0
0.203571 0.275000 0
0.221429 0.275000 0
0.239286 0.275000 0
0.257143 0.275000 0
0.275000 0.275000 0
0.292857 0.275000 0
0.310714 0.275000 0
0.328571 0.275000 0
0.346429 0.275000 0
0.364286 0.275000 0
0.382143 0.275000 0
0.400000 0.275000 0
0.417857 0.275000 0
0.435714 0.275000 0
0.453571 0.275000 0
0.471429 0.275000 0
0.489286 0.275000 0
0.507143 0.275000 0
0.525000 0.275000 0
0.542857 0.275000 0
0.560714 0.275000 0
0.578571 0.275000 0
0.596429 0.275000 0
0.614286 0.275000 0
0.632143 0.275000 0
0.650000 0.275000 0
0.667857 0.275000 0
0.685714 0.275000 0
0.703571 0.275000 0
0.721429 0.275000 0
0.739286 0.275000 0
0.757143 0.275000 0
0.775000 0.275000 0
0.792857 0.275000 0
0.810714 0.275000 0
0.828571 0.275000 0
0.846429 0.275000 0
0.864286 0.275000 0
0.882143 0.275000 0
0.150000 0.292857 0
0.167857 0.292857 0
0.185714 0.292857 0
0.203571 0.292857 0
0.221429 0.292857 0
0.239286 0.292857 0
0.257143 0.292857 0
0.275000 0.292857 0
0.292857 0.292857 0
0.310714 0.292857 0
0.328571 0.292857 0
0.346429 0.292857 0
0.364286 0.292857 0
0.382143 0.292857 0
0.400000 0.292857 0
0.417857 0.292857 0
0.435714 0.292857 0
0.453571 0.292857 0
0.471429 0.292857 0
0.489286 0.292857 0
0.507143 0.292857 0
0.525000 0.292857 0
0.542857 0.292857 0
0.560714 0.292857 0
0.578571 0.292857 0
0.596429 0.292857 0
0.614286 0.292857 0
0.632143 0.292857 0
0.650000 0.292857 0
0.667857 0.292857 0
0.685714 0.292857 0
0.703571 0.292857 0
0.721429 0.292857 0
0.739286 0.292857 0
0.757143 0.292857 0
0.775000 0.292857 0
0.792857 0.292857 0
0.810714 0.292857 0
0.828571 0.292857 0
0.846429 0.292857 0
0.864286 0.292857 0
0.882143 0.292857 0
0.150000 0.310714 0
0.167857 0.310714 0
0.185714 0.310714 0
0.203571 0.310714 0
0.221429 0.310714 0
0.239286 0.310714 0
0.257143 0.310714 0
0.275000 0.310714 0
0.292857 0.310714 0
0.310714 0.310714 0
0.328571 0.310714 0
0.346429 0.310714 0
0.364286 0.310714 0
0.382143 0.310714 0
0.400000 0.310714 0
0.417857 0.310714 0
0.435714 0.310714 0
0.453571 0.310714 0
0.471429 0.310714 0
0.489286 0.310714 0
0.507143 0.310714 0
0.525000 0.310714 0
0.542857 0.310714 0
0.560714 0.310714 0
0.578571 0.310714 0
0.596429 0.310714 0
0.614286 0.310714 0
0.632143 0.310714 0
0.650000 0.310714 0
0.667857 0.310714 0
0.685714 0.310714 0
0.703571 0.310714 0
0.721429 0.310714 0
0.739286 0.310714 0
0.757143 0.310714 0
0.775000 0.310714 0
0.792857 0.310714 0
0.810714 0.310714 0
0.828571 0.310714 0
0.846429 0.310714 0
0.864286 0.310714 0
0.882143 0.310714 0
0.150000 0.328571 0
0.167857 0.328571 0
0.185714 0.328571 0
0.203571 0.328571 0
0.221429 0.328571 0
0.239286 0.328571 0
0.257143 0.328571 0
0.275000 0.328571 0
0.292857 0.328571 0
0.310714 0.328571 0
0.328571 0.328571 0
0.346429 0.328571 0
0.364286 0.328571 0
0.382143 0.328571 0
0.400000 0.328571 0
0.417857 0.328571 0
0.435714 0.328571 0
0.453571 0.328571 0
0.471429 0.328571 0
0.489286 0.328571 0
0.507143 0.328571 0
0.525000 0.328571 0
0.542857 0.328571 0
0.560714 0.328571 0
0.578571 0.328571 0
0.596429 0.328571 0
0.614286 0.328571 0
0.632143 0.328571 0
0.650000 0.328571 0
0.667857 0.328571 0
0.685714 0.328571 0
0.703571 0.328571 0
0.721429 0.328571 0
0.739286 0.328571 0
0.757143 0.328571 0
0.775000 0.328571 0
0.792857 0.328571 0
0.810714 0.328571 0
0.828571 0.328571 0
0.846429 0.328571 0
0.864286 0.328571 0
0.882143 0.328571 0
0.150000 0.346429 0
0.167857 0.346429 0
0.185714 0.346429 0
0.203571 0.346429 0
0.221429 0.346429 0
0.239286 0.346429 0
0.257143 0.346429 0
0.275000 0.346429 0
0.292857 0.346429 0
0.310714 0.346429 0
0.328571 0.346429 0
0.346429 0.346429 0
0.364286 0.346429 0
0.382143 0.346429 0
0.400000 0.346429 0
0.417857 0.346429 0
0.435714 0.346429 0
0.453571 0.346429 0
0.471429 0.346429 0
0.489286 0.346429 0
0.507143 0.346429 0
0.525000 0.346429 0
0.542857 0.346429 0
0.560714 0.346429 0
0.578571 0.346429 0
0.596429 0.346429 0
0.614286 0.346429 0
0.632143 0.346429 0
0.650000 0.346429 0
[...]
POINT_DATA 1764 

VECTORS velocity float
0.000000 0.000000 0
0.000030 0.000000 0
0.000061 0.000000 0
0.000097 0.000000 0
0.000124 0.000000 0
0.000057 0.000000 0
-0.000106 0.000000 0
-0.000187 0.000000 0
-0.000191 0.000000 0
-0.000173 0.000000 0
-0.000140 0.000000 0
-0.000101 0.000000 0
-0.000062 0.000000 0
-0.000026 0.000000 0
0.000005 0.000000 0
0.000029 0.000000 0
0.000048 0.000000 0
0.000062 0.000000 0
0.000072 0.000000 0
0.000079 0.000000 0
0.000083 0.000000 0
0.000085 0.000000 0
0.000085 0.000000 0
0.000084 0.000000 0
0.000082 0.000000 0
0.000079 0.000000 0
0.000076 0.000000 0
0.000072 0.000000 0
0.000068 0.000000 0
0.000064 0.000000 0
0.000059 0.000000 0
0.000054 0.000000 0
0.000049 0.000000 0
0.000043 0.000000 0
0.000037 0.000000 0
0.000031 0.000000 0
0.000024 0.000000 0
0.000017 0.000000 0
0.000011 0.000000 0
0.000005 0.000000 0
0.000000 0.000000 0
0.000000 0.000000 0
0.000000 -0.000030 0
0.004881 -0.008675 0
0.002276 -0.003982 0
-0.008266 -0.004726 0
-0.032353 -0.000436 0
-0.082438 0.033671 0
-0.162949 0.084108 0
-0.266262 0.112536 0
-0.376440 0.116210 0
-0.482674 0.109884 0
-0.579253 0.098973 0
-0.663111 0.085690 0
-0.733344 0.071964 0
-0.790445 0.058970 0
-0.835682 0.047341 0
-0.870645 0.037321 0
-0.896943 0.028894 0
-0.916043 0.021909 0
-0.929217 0.016175 0
-0.937537 0.011493 0
-0.941898 0.007688 0
-0.943036 0.004592 0
-0.941551 0.002055 0
-0.938060 -0.000057 0
-0.932856 -0.001907 0
-0.926107 -0.003689 0
-0.917782 -0.005605 0
-0.907662 -0.007891 0
-0.895302 -0.010818 0
-0.879987 -0.014713 0
-0.860672 -0.020012 0
-0.835877 -0.027257 0
-0.803608 -0.037081 0
-0.761238 -0.050223 0
-0.705431 -0.067427 0
-0.632165 -0.089186 0
-0.537113 -0.114969 0
-0.416903 -0.141467 0
-0.272462 -0.157522 0
-0.117566 -0.128184 0
-0.000558 0.000005 0
0.000000 0.047783 0
0.000000 -0.000058 0
-0.013289 -0.002276 0
-0.038939 0.013146 0
-0.080635 0.034629 0
-0.149617 0.074172 0
-0.243990 0.130596 0
-0.340381 0.183824 0
-0.432178 0.213491 0
-0.521942 0.216412 0
-0.605278 0.202813 0
-0.678171 0.180437 0
-0.739060 0.154091 0
-0.787967 0.127334 0
-0.825910 0.102338 0
-0.854354 0.080200 0
-0.874822 0.061261 0
-0.888687 0.045397 0
-0.897111 0.032274 0
-0.901050 0.021494 0
-0.901289 0.012681 0
-0.898489 0.005499 0
-0.893216 -0.000346 0
-0.886187 -0.004976 0
-0.877700 -0.008695 0
-0.868020 -0.011953 0
-0.857272 -0.015074 0
-0.845447 -0.018445 0
-0.832380 -0.022480 0
-0.817728 -0.027674 0
-0.800937 -0.034630 0
-0.781183 -0.044110 0
-0.757346 -0.057064 0
-0.727897 -0.074639 0
-0.690815 -0.098177 0
-0.643478 -0.129074 0
-0.582607 -0.168317 0
-0.504385 -0.215262 0
-0.404995 -0.264651 0
-0.282439 -0.299337 0
-0.140743 -0.272462 0
-0.000893 0.000010 0
0.000000 0.117576 0
0.000000 -0.000055 0
-0.035223 0.030264 0
-0.085510 0.063364 0
-0.152064 0.105952 0
-0.235225 0.162919 0
-0.325083 0.224435 0
-0.410312 0.272296 0
-0.485304 0.294097 0
-0.551370 0.289310 0
-0.608030 0.266113 0
-0.654332 0.232755 0
-0.690549 0.195487 0
-0.717776 0.158814 0
-0.737487 0.125357 0
-0.751124 0.096253 0
-0.759877 0.071654 0
-0.764632 0.051183 0
-0.766027 0.034272 0
-0.764546 0.020352 0
-0.760597 0.008933 0
-0.754559 -0.000385 0
-0.747037 -0.007709 0
-0.738358 -0.013462 0
-0.728690 -0.018225 0
-0.718299 -0.022334 0
-0.707317 -0.026262 0
-0.695786 -0.030498 0
-0.683612 -0.035609 0
-0.670559 -0.042261 0
-0.656229 -0.051258 0
-0.640035 -0.063603 0
-0.621179 -0.080543 0
-0.598578 -0.103611 0
-0.570781 -0.134642 0
-0.535849 -0.175636 0
-0.491192 -0.228279 0
-0.433362 -0.292581 0
-0.357879 -0.363413 0
-0.259561 -0.421774 0
-0.135197 -0.410623 0
-0.001104 0.000015 0
0.000000 0.188536 0
0.000000 -0.000019 0
-0.051706 0.083234 0
-0.115398 0.129987 0
-0.188710 0.184344 0
-0.268493 0.247191 0
-0.346836 0.305683 0
-0.416702 0.344046 0
-0.474671 0.354549 0
-0.521454 0.339138 0
-0.558069 0.305774 0
-0.585473 0.262956 0
-0.605172 0.217535 0
-0.618851 0.174272 0
-0.628031 0.135686 0
-0.633815 0.102591 0
-0.636845 0.074768 0
-0.637411 0.051547 0
-0.635616 0.032188 0
-0.631530 0.016064 0
-0.625302 0.002694 0
-0.617242 -0.008061 0
-0.607844 -0.016547 0
-0.597202 -0.023323 0
-0.585828 -0.028754 0
-0.574031 -0.033326 0
-0.562060 -0.037588 0
-0.550034 -0.042150 0
-0.537939 -0.047707 0
-0.525634 -0.055058 0
-0.512850 -0.065154 0
-0.499184 -0.079160 0
-0.484093 -0.098521 0
-0.466851 -0.125037 0
-0.446491 -0.160906 0
-0.421684 -0.208662 0
-0.390527 -0.270805 0
-0.350139 -0.348575 0
-0.295986 -0.438451 0
-0.221199 -0.522019 0
-0.118321 -0.532024 0
-0.001173 0.000020 0
0.000000 0.252783 0
0.000000 0.000029 0
-0.058594 0.145662 0
-0.125174 0.200368 0
-0.195522 0.259047 0
-0.266031 0.321045 0
-0.331229 0.372644 0
-0.386757 0.400131 0
-0.430747 0.398849 0
-0.463946 0.372708 0
-0.487935 0.330132 0
-0.504521 0.279859 0
-0.515716 0.228865 0
-0.523301 0.181673 0
-0.528523 0.140320 0
-0.531978 0.105067 0
-0.533709 0.075250 0
-0.533448 0.049954 0
-0.530856 0.028391 0
-0.525706 0.010039 0
-0.517959 -0.005356 0
-0.508010 -0.017843 0
-0.496103 -0.027749 0
-0.482878 -0.035478 0
-0.468937 -0.041396 0
-0.454789 -0.046102 0
-0.440821 -0.050259 0
-0.427261 -0.054620 0
-0.414189 -0.060009 0
-0.401543 -0.067350 0
-0.389143 -0.077708 0
-0.376705 -0.092360 0
-0.363846 -0.112876 0
-0.350072 -0.141213 0
-0.334747 -0.179809 0
-0.317000 -0.231599 0
-0.295542 -0.299824 0
-0.268236 -0.387122 0
-0.231210 -0.492353 0
-0.177457 -0.599439 0
-0.097176 -0.631822 0
-0.001125 0.000025 0
0.000000 0.306867 0
0.000000 0.000077 0
-0.057196 0.208408 0
-0.119610 0.266915 0
-0.182033 0.325201 0
-0.241228 0.382898 0
-0.293792 0.426410 0
-0.337340 0.443564 0
-0.371039 0.431739 0
-0.395744 0.396326 0
-0.413122 0.346349 0
-0.425135 0.290736 0
-0.433748 0.236315 0
-0.440468 0.187080 0
-0.446079 0.144363 0
-0.450630 0.107776 0
-0.453640 0.076238 0
-0.454405 0.048694 0
-0.452270 0.024446 0
-0.446807 0.003167 0
-0.437912 -0.015002 0
-0.426064 -0.029917 0
-0.411752 -0.041680 0
-0.395892 -0.050489 0
-0.379248 -0.056843 0
-0.362514 -0.061442 0
-0.346213 -0.065115 0
-0.330695 -0.068783 0
-0.316137 -0.073426 0
-0.302561 -0.080103 0
-0.289864 -0.089991 0
-0.277839 -0.104457 0
-0.266197 -0.125154 0
-0.254573 -0.154136 0
-0.242510 -0.193979 0
-0.229413 -0.247867 0
-0.214429 -0.319569 0
-0.196131 -0.412907 0
-0.171708 -0.529230 0
-0.135167 -0.656053 0
-0.075885 -0.709481 0
-0.001003 0.000030 0
0.000000 0.349968 0
0.000000 0.000120 0
-0.050179 0.265271 0
-0.104097 0.325204 0
-0.156156 0.380665 0
-0.203567 0.432804 0
-0.244572 0.468756 0
-0.278363 0.477379 0
-0.304816 0.457253 0
-0.324751 0.414791 0
-0.339594 0.359524 0
-0.350989 0.300485 0
-0.360468 0.244197 0
-0.369025 0.194003 0
-0.376927 0.150483 0
-0.383768 0.112628 0
-0.388712 0.079025 0
-0.390804 0.048584 0
-0.389234 0.020794 0
-0.383547 -0.004319 0
-0.373788 -0.026099 0
-0.360465 -0.044003 0
-0.344454 -0.057921 0
-0.326734 -0.067982 0
-0.308207 -0.074774 0
-0.289653 -0.079137 0
-0.271676 -0.082078 0
-0.254705 -0.084696 0
-0.238993 -0.088143 0
-0.224644 -0.093622 0
-0.211632 -0.102430 0
-0.199831 -0.116027 0
-0.189030 -0.136142 0
-0.178948 -0.164900 0
-0.169232 -0.204969 0
-0.159427 -0.259681 0
-0.148925 -0.333106 0
-0.136808 -0.429843 0
-0.121289 -0.553317 0
-0.097963 -0.695261 0
-0.056662 -0.766989 0
-0.000845 0.000034 0
0.000000 0.382761 0
0.000000 0.000156 0
-0.039788 0.312505 0
-0.082870 0.372893 0
-0.123559 0.424670 0
-0.159365 0.471314 0
-0.189752 0.501206 0
-0.215272 0.503808 0
-0.236363 0.478127 0
-0.253669 0.431104 0
-0.268117 0.372587 0
-0.280718 0.311611 0
-0.292311 0.254351 0
-0.303278 0.203539 0
-0.313438 0.159106 0
-0.322131 0.119561 0
-0.328413 0.083274 0
-0.331290 0.049216 0
-0.329959 0.017189 0
-0.324047 -0.012279 0
-0.313805 -0.038083 0
-0.299862 -0.059251 0
-0.283264 -0.075411 0
-0.265026 -0.086736 0
-0.246068 -0.093923 0
-0.227164 -0.097972 0
-0.208916 -0.100064 0
-0.191759 -0.101466 0
-0.175972 -0.103487 0
-0.161704 -0.107464 0
-0.148990 -0.114804 0
-0.137780 -0.127060 0
-0.127951 -0.146037 0
-0.119308 -0.173934 0
-0.111585 -0.213500 0
-0.104426 -0.268174 0
-0.097364 -0.342187 0
-0.089781 -0.440543 0
-0.080635 -0.568075 0
-0.067118 -0.720680 0
-0.040421 -0.807444 0
-0.000684 0.000037 0
0.000000 0.406638 0
0.000000 0.000185 0
-0.027779 0.348141 0
-0.058989 0.408975 0
-0.088116 0.457160 0
-0.112777 0.498997 0
-0.133137 0.524663 0
-0.150978 0.523990 0
-0.167340 0.495651 0
-0.182650 0.446546 0
-0.197200 0.386572 0
-0.211185 0.324678 0
-0.224629 0.266757 0
-0.237284 0.215130 0
-0.248652 0.169336 0
-0.258049 0.127602 0
-0.264679 0.088183 0
-0.267725 0.050130 0
-0.266483 0.013552 0
-0.260610 -0.020473 0
-0.250508 -0.050285 0
-0.237025 -0.074544 0
-0.221206 -0.092757 0
-0.204004 -0.105178 0
-0.186260 -0.112635 0
-0.168668 -0.116288 0
-0.151767 -0.117483 0
-0.135949 -0.117640 0
-0.121472 -0.118198 0
-0.108485 -0.120605 0
-0.097051 -0.126354 0
-0.087172 -0.137066 0
-0.078795 -0.154614 0
-0.071812 -0.181266 0
-0.066051 -0.219852 0
-0.061258 -0.273902 0
-0.057088 -0.347751 0
-0.053111 -0.446572 0
-0.048751 -0.575981 0
-0.042465 -0.735475 0
-0.027265 -0.834106 0
-0.000539 0.000041 0
0.000000 0.423189 0
0.000000 0.000207 0
-0.015497 0.371493 0
-0.034670 0.433230 0
-0.052471 0.478459 0
-0.066623 0.516335 0
-0.077312 0.539407 0
-0.087296 0.538010 0
-0.098467 0.509798 0
-0.111202 0.460964 0
-0.125166 0.401122 0
-0.139703 0.339039 0
-0.154007 0.280450 0
-0.167227 0.227563 0
-0.178617 0.179871 0
-0.187584 0.135589 0
-0.193629 0.092950 0
-0.196281 0.051019 0
-0.195080 0.010074 0
-0.189727 -0.028254 0
-0.180720 -0.061668 0
-0.168983 -0.088552 0
-0.155429 -0.108432 0
-0.140841 -0.121682 0
-0.125900 -0.129260 0
-0.111169 -0.132465 0
-0.097095 -0.132782 0
-0.084000 -0.131762 0
-0.072103 -0.130951 0
-0.061539 -0.131884 0
-0.052372 -0.136117 0
-0.044630 -0.145316 0
-0.038303 -0.161397 0
-0.033352 -0.186678 0
-0.029692 -0.224054 0
-0.027176 -0.277137 0
-0.025585 -0.350334 0
-0.024648 -0.448880 0
-0.024070 -0.578721 0
-0.023172 -0.742166 0
-0.016875 -0.849909 0
-0.000419 0.000043 0
0.000000 0.433909 0
0.000000 0.000219 0
-0.004048 0.382811 0
-0.011613 0.445949 0
-0.018546 0.489113 0
-0.022965 0.523838 0
-0.024484 0.545336 0
-0.026073 0.545144 0
-0.030686 0.519557 0
-0.039191 0.473245 0
-0.050973 0.415074 0
-0.064677 0.353519 0
-0.078710 0.294280 0
-0.091581 0.239740 0
-0.102223 0.189694 0
-0.110112 0.142614 0
-0.115015 0.096880 0
-0.116863 0.051581 0
-0.115630 0.006997 0
-0.111266 -0.034832 0
-0.104400 -0.071029 0
-0.095738 -0.099835 0
-0.085879 -0.120899 0
-0.075342 -0.134708 0
-0.064591 -0.142307 0
-0.054028 -0.145093 0
-0.043986 -0.144653 0
-0.034710 -0.142632 0
-0.026375 -0.140660 0
-0.019098 -0.140336 0
-0.012960 -0.143263 0
-0.007996 -0.151135 0
-0.004224 -0.165891 0
-0.001652 -0.189878 0
-0.000265 -0.226028 0
-0.000016 -0.278009 0
-0.000812 -0.350279 0
-0.002527 -0.448088 0
-0.005054 -0.577456 0
-0.008230 -0.742670 0
-0.008767 -0.857279 0
-0.000327 0.000045 0
0.000000 0.440069 0
0.000000 0.000223 0
0.005866 0.383107 0
0.008903 0.447729 0
0.012163 0.489810 0
0.016780 0.522272 0
0.023612 0.542515 0
0.030441 0.544212 0
0.033667 0.522916 0
0.031488 0.481251 0
0.024223 0.426608 0
0.013481 0.366777 0
0.001372 0.307354 0
-0.010133 0.251076 0
-0.019608 0.198402 0
-0.026340 0.148380 0
-0.030181 0.099702 0
-0.031355 0.051634 0
-0.030324 0.004477 0
-0.027621 -0.039483 0
-0.023904 -0.077197 0
-0.019409 -0.107074 0
-0.014343 -0.128827 0
-0.008924 -0.142971 0
-0.003378 -0.150574 0
0.002076 -0.153069 0
0.007243 -0.152100 0
0.011953 -0.149372 0
0.016073 -0.146562 0
0.019501 -0.145300 0
0.022152 -0.147220 0
0.023966 -0.154052 0
0.024892 -0.167741 0
0.024878 -0.190638 0
0.023876 -0.225690 0
0.021851 -0.276590 0
0.018789 -0.347823 0
0.014690 -0.444638 0
0.009535 -0.573018 0
0.003289 -0.738453 0
-0.002408 -0.858139 0
-0.000258 0.000047 0
0.000000 0.442680 0
0.000000 0.000220 0
0.014023 0.373908 0
0.026150 0.439652 0
0.038578 0.481236 0
0.051641 0.512388 0
0.065975 0.531674 0
0.080437 0.535089 0
0.091682 0.518510 0
0.097166 0.482689 0
0.096528 0.433081 0
0.091080 0.376371 0
0.082953 0.317894 0
0.074267 0.260720 0
0.066672 0.205901 0
0.061152 0.153187 0
0.057931 0.101894 0
0.056653 0.051724 0
0.056549 0.003264 0
0.056649 -0.041252 0
0.056569 -0.079241 0
0.056382 -0.109396 0
0.056175 -0.131384 0
0.056003 -0.145672 0
0.055877 -0.153307 0
0.055776 -0.155714 0
0.055651 -0.154530 0
0.055429 -0.151463 0
0.055026 -0.148207 0
0.054355 -0.146414 0
0.053336 -0.147728 0
0.051879 -0.153875 0
0.049886 -0.166803 0
0.047260 -0.188861 0
0.043893 -0.223001 0
0.039680 -0.272922 0
0.034511 -0.343118 0
0.028272 -0.438833 0
0.020823 -0.566055 0
0.012016 -0.730727 0
0.002612 -0.853989 0
-0.000203 0.000048 0
0.000000 0.442480 0
0.000000 0.000210 0
0.020393 0.356957 0
0.039882 0.423174 0
0.060010 0.464318 0
0.080699 0.494874 0
0.101825 0.513720 0
0.122869 0.518506 0
0.141362 0.506186 0
0.154603 0.476405 0
0.161525 0.432694 0
0.162813 0.380352 0
0.160193 0.324167 0
0.155647 0.267356 0
0.150834 0.211517 0
0.146803 0.157121 0
0.143866 0.104201 0
0.141698 0.053015 0
0.139541 0.004481 0
0.136477 -0.039503 0
0.132439 -0.076931 0
0.127587 -0.106680 0
0.122188 -0.128448 0
0.116518 -0.142673 0
0.110805 -0.150347 0
0.105217 -0.152844 0
0.099853 -0.151754 0
0.094748 -0.148747 0
0.089882 -0.145488 0
0.085197 -0.143610 0
0.080601 -0.144744 0
0.075978 -0.150602 0
0.071196 -0.163122 0
0.066106 -0.184645 0
0.060547 -0.218110 0
0.054344 -0.267208 0
0.047299 -0.336415 0
0.039188 -0.430950 0
0.029750 -0.556762 0
0.018688 -0.720241 0
0.006516 -0.846123 0
-0.000162 0.000048 0
0.000000 0.440069 0
0.000000 0.000194 0
0.025089 0.334027 0
0.050169 0.400035 0
0.076198 0.440419 0
0.103206 0.470573 0
0.130332 0.489504 0
0.156986 0.495552 0
0.181527 0.486776 0
0.201627 0.462526 0
0.215827 0.424871 0
0.224132 0.377703 0
0.227650 0.325060 0
0.227938 0.270079 0
0.226443 0.214745 0
0.224152 0.160155 0
0.221441 0.106999 0
0.218134 0.056049 0
0.213704 0.008484 0
0.207526 -0.034150 0
0.199720 -0.070351 0
0.190542 -0.099146 0
0.180399 -0.120314 0
0.169740 -0.134289 0
0.158972 -0.142007 0
0.148423 -0.144762 0
0.138324 -0.144060 0
0.128809 -0.141492 0
0.119920 -0.138657 0
0.111620 -0.137133 0
0.103817 -0.138509 0
0.096370 -0.144470 0
0.089111 -0.156930 0
0.081846 -0.178213 0
0.074364 -0.211240 0
0.066425 -0.259674 0
0.057755 -0.327962 0
0.048036 -0.421283 0
0.036913 -0.545555 0
0.024002 -0.707494 0
0.009564 -0.835301 0
-0.000134 0.000048 0
0.000000 0.435964 0
0.000000 0.000174 0
0.028185 0.306788 0
0.057222 0.372065 0
0.087326 0.411282 0
0.118917 0.440740 0
0.150868 0.459940 0
0.182162 0.467311 0
0.211525 0.461545 0
0.237134 0.442106 0
0.257486 0.410189 0
0.272091 0.368529 0
0.281428 0.320361 0
0.286514 0.268562 0
0.288441 0.215303 0
0.288034 0.162124 0
0.285698 0.110219 0
0.281439 0.060752 0
0.275022 0.015088 0
0.266179 -0.025519 0
0.255155 -0.059947 0
0.242315 -0.087359 0
0.228212 -0.107646 0
0.213431 -0.121246 0
0.198510 -0.129029 0
0.183900 -0.132196 0
0.169933 -0.132140 0
0.156817 -0.130342 0
0.144640 -0.128299 0
0.133385 -0.127508 0
0.122956 -0.129493 0
0.113194 -0.135896 0
0.103900 -0.148598 0
0.094847 -0.169898 0
0.085776 -0.202689 0
0.076397 -0.250599 0
0.066371 -0.318026 0
0.055303 -0.410107 0
0.042761 -0.532728 0
0.028297 -0.692892 0
0.012012 -0.822121 0
-0.000115 0.000048 0
0.000000 0.430505 0
0.000000 0.000150 0
0.029696 0.276805 0
0.061272 0.340894 0
0.093888 0.378724 0
0.128230 0.407031 0
0.163412 0.426259 0
0.198127 0.434895 0
0.231084 0.431805 0
0.260775 0.416565 0
0.285812 0.389913 0
0.305433 0.353761 0
0.319622 0.310637 0
0.328887 0.263066 0
0.333930 0.213225 0
0.335368 0.162897 0
0.333589 0.113594 0
0.328753 0.066725 0
0.320896 0.023744 0
0.310125 -0.014283 0
0.296677 -0.046487 0
0.281113 -0.072203 0
0.264109 -0.091430 0
0.246338 -0.104587 0
0.228427 -0.112476 0
0.210904 -0.116185 0
0.194166 -0.116977 0
0.178464 -0.116199 0
0.163915 -0.115225 0
0.150513 -0.115449 0
0.138159 -0.118318 0
0.126682 -0.125414 0
0.115865 -0.138583 0
0.105452 -0.160089 0
0.095154 -0.192790 0
0.084641 -0.240269 0
0.073522 -0.306868 0
0.061345 -0.397674 0
0.047620 -0.518549 0
0.031853 -0.676745 0
0.014020 -0.807004 0
-0.000102 0.000047 0
0.000000 0.423950 0
0.000000 0.000123 0
0.029764 0.245516 0
0.062620 0.307874 0
0.096529 0.344324 0
0.132054 0.371216 0
0.168738 0.390044 0
0.205351 0.399639 0
0.240528 0.398897 0
0.272865 0.387377 0
0.301065 0.365531 0
0.324234 0.334719 0
0.342021 0.296907 0
0.354532 0.254254 0
0.362121 0.208823 0
0.365198 0.162465 0
0.364106 0.116833 0
0.359112 0.073446 0
0.350464 0.033716 0
0.338562 -0.001301 0
0.323651 -0.030934 0
0.306495 -0.054791 0
0.287807 -0.072872 0
0.268315 -0.085564 0
0.248694 -0.093595 0
0.229507 -0.097935 0
0.211176 -0.099700 0
0.193969 -0.100091 0
0.178013 -0.100348 0
0.163308 -0.101751 0
0.149753 -0.105663 0
0.137177 -0.113602 0
0.125350 -0.127367 0
0.114006 -0.149188 0
0.102838 -0.181879 0
0.091483 -0.228967 0
0.079517 -0.294730 0
0.066444 -0.384205 0
0.051734 -0.503236 0
0.034861 -0.659292 0
0.015710 -0.790268 0
-0.000093 0.000045 0
0.000000 0.416483 0
0.000000 0.000097 0
0.028707 0.214185 0
0.061719 0.274129 0
0.095965 0.309289 0
0.131533 0.334822 0
0.168233 0.352963 0
0.205159 0.363105 0
0.241045 0.364291 0
0.274546 0.356028 0
0.304409 0.338544 0
0.329668 0.312805 0
0.349755 0.280339 0
0.364487 0.242966 0
0.373951 0.202560 0
0.378379 0.160912 0
0.378057 0.119679 0
0.373310 0.080367 0
0.364530 0.044295 0
0.352247 0.012530 0
0.336963 -0.014420 0
0.319362 -0.036358 0
0.300208 -0.053250 0
0.280251 -0.065474 0
0.260166 -0.073668 0
0.240511 -0.078667 0
0.221700 -0.081439 0
0.204000 -0.083036 0
0.187533 -0.084563 0
0.172304 -0.087189 0
0.158217 -0.092186 0
0.145105 -0.101011 0
0.132742 -0.115413 0
0.120860 -0.137576 0
0.109141 -0.170267 0
0.097209 -0.216949 0
0.084611 -0.281829 0
0.070824 -0.369890 0
0.055292 -0.486966 0
0.037469 -0.640721 0
0.017169 -0.772143 0
-0.000087 0.000044 0
0.000000 0.408238 0
0.000000 0.000074 0
0.026855 0.183797 0
0.059147 0.240615 0
0.092971 0.274510 0
0.127815 0.298949 0
0.163496 0.316417 0
0.199428 0.326826 0
0.234606 0.329510 0
0.267835 0.324013 0
0.297934 0.310410 0
0.323912 0.289374 0
0.345075 0.262087 0
0.361048 0.230058 0
0.371727 0.194932 0
0.377204 0.158359 0
0.377709 0.121902 0
0.373585 0.086972 0
0.365293 0.054779 0
0.353420 0.026266 0
0.338681 0.001951 0
0.321666 -0.018036 0
0.303135 -0.033761 0
0.283809 -0.045521 0
0.264330 -0.053855 0
0.245218 -0.059469 0
0.226861 -0.063189 0
0.209507 -0.065924 0
0.193275 -0.068652 0
0.178171 -0.072435 0
0.164110 -0.078463 0
0.150938 -0.088126 0
0.138439 -0.103123 0
0.126352 -0.125587 0
0.114359 -0.158228 0
0.102071 -0.204437 0
0.089023 -0.268346 0
0.074672 -0.354886 0
0.058447 -0.469881 0
0.039793 -0.621169 0
0.018466 -0.752799 0
-0.000084 0.000042 0
0.000000 0.399310 0
0.000000 0.000055 0
0.024521 0.155038 0
0.055538 0.208013 0
0.088358 0.240621 0
0.121957 0.264297 0
0.156002 0.281350 0
0.190086 0.291995 0
0.223492 0.295884 0
0.255268 0.292700 0
0.284382 0.282467 0
0.309893 0.265664 0
0.331063 0.243203 0
0.347414 0.216314 0
0.358716 0.186404 0
0.364961 0.154930 0
0.366322 0.123299 0
0.363130 0.092783 0
0.355857 0.064459 0
0.345106 0.039141 0
0.331585 0.017334 0
0.315965 -0.000812 0
0.298898 -0.015394 0
0.281037 -0.026670 0
0.262962 -0.035077 0
0.245142 -0.041198 0
0.227926 -0.045728 0
0.211541 -0.049450 0
0.196099 -0.053227 0
0.181612 -0.058025 0
0.168007 -0.064953 0
0.155146 -0.075340 0
0.142830 -0.090827 0
0.130805 -0.113495 0
0.118757 -0.145986 0
0.106294 -0.191613 0
0.092940 -0.254430 0
0.078143 -0.339315 0
0.061324 -0.452087 0
0.041925 -0.600740 0
0.019655 -0.732351 0
-0.000083 0.000040 0
0.000000 0.389768 0
0.000000 0.000041 0
0.022158 0.128259 0
0.051550 0.176779 0
0.082914 0.208092 0
0.114879 0.231304 0
0.146939 0.248288 0
0.178734 0.259336 0
0.209759 0.264328 0
0.239315 0.263124 0
0.266580 0.255785 0
0.290736 0.242692 0
0.311087 0.224566 0
0.327125 0.202405 0
0.338562 0.177384 0
0.345320 0.150753 0
0.347521 0.123733 0
0.345455 0.097437 0
0.339566 0.072803 0
0.330416 0.050538 0
0.318646 0.031092 0
0.304920 0.014652 0
0.289838 0.001167 0
0.273965 -0.009585 0
0.257795 -0.017960 0
0.241741 -0.024434 0
0.226108 -0.029589 0
0.211099 -0.034097 0