# vtk DataFile Version 2.0
generated by CFD-lab course output (written by Tobias Neckel) 
ASCII

DATASET STRUCTURED_GRID
DIMENSIONS  42 42 1 
POINTS 1764 float

0.150000 0.150000 0
0.167857 0.150000 0
0.185714 0.150000 0
0.203571 0.150000 0
0.221429 0.150000 0
0.239286 0.150000 0
0.257143 0.150000 0
0.275000 0.150000 0
0.292857 0.150000 0
0.310714 0.150000 0
0.328571 0.150000 0
0.346429 0.150000 0
0.364286 0.150000 0
0.382143 0.150000 0
0.400000 0.150000 0
0.417857 0.150000 0
0.435714 0.150000 0
0.453571 0.150000 0
0.471429 0.150000 0
0.489286 0.150000 0
0.507143 0.150000 0
0.525000 0.150000 0
0.542857 0.150000 0
0.560714 0.150000 0
0.578571 0.150000 0
0.596429 0.150000 0
0.614286 0.150000 0
0.632143 0.150000 0
0.650000 0.150000 0
0.667857 0.150000 0
0.685714 0.150000 0
0.703571 0.150000 0
0.721429 0.150000 0
0.739286 0.150000 0
0.757143 0.150000 0
0.775000 0.150000 0
0.792857 0.150000 0
0.810714 0.150000 0
0.828571 0.150000 0
0.846429 0.150000 0
0.864286 0.150000 0
0.882143 0.150000 0
0.150000 0.167857 0
0.167857 0.167857 0
0.185714 0.167857 0
0.203571 0.167857 0
0.221429 0.167857 0
0.239286 0.167857 0
0.257143 0.167857 0
0.275000 0.167857 0
0.292857 0.167857 0
0.310714 0.167857 0
0.328571 0.167857 0
0.346429 0.167857 0
0.364286 0.167857 0
0.382143 0.167857 0
0.400000 0.167857 0
0.417857 0.167857 0
0.435714 0.167857 0
0.453571 0.167857 0
0.471429 0.167857 0
0.489286 0.167857 0
0.507143 0.167857 0
0.525000 0.167857 0
0.542857 0.167857 0
0.560714 0.167857 0
0.578571 0.167857 0
0.596429 0.167857 0
0.614286 0.167857 0
0.632143 0.167857 0
0.650000 0.167857 0
0.667857 0.167857 0
0.685714 0.167857 0
0.703571 0.167857 0
0.721429 0.167857 0
0.739286 0.167857 0
0.757143 0.167857 0
0.775000 0.167857 0
0.792857 0.167857 0
0.810714 0.167857 0
0.828571 0.167857 0
0.846429 0.167857 0
0.864286 0.167857 0
0.882143 0.167857 0
0.150000 0.185714 0
0.167857 0.185714 0
0.185714 0.185714 0
0.203571 0.185714 0
0.221429 0.185714 0
0.239286 0.185714 0
0.257143 0.185714 0
0.275000 0.185714 0
0.292857 0.185714 0
0.310714 0.185714 0
0.328571 0.185714 0
0.346429 0.185714 0
0.364286 0.185714 0
0.382143 0.185714 0
0.400000 0.185714 0
0.417857 0.185714 0
0.435714 0.185714 0
0.453571 0.185714 0
0.471429 0.185714 0
0.489286 0.185714 0
0.507143 0.185714 0
0.525000 0.185714 0
0.542857 0.185714 0
0.560714 0.185714 0
0.578571 0.185714 0
0.596429 0.185714 0
0.614286 0.185714 0
0.632143 0.185714 0
0.650000 0.185714 0
0.667857 0.185714 0
0.685714 0.185714 0
0.703571 0.185714 0
0.721429 0.185714 0
0.739286 0.185714 0
0.757143 0.185714 0
0.775000 0.185714 0
0.792857 0.185714 0
0.810714 0.185714 0
0.828571 0.185714 0
0.846429 0.185714 0
0.864286 0.185714 0
0.882143 0.185714 0
0.150000 0.203571 0
0.167857 0.203571 0
0.185714 0.203571 0
0.203571 0.203571 0
0.221429 0.203571 0
0.239286 0.203571 0
0.257143 0.203571 0
0.275000 0.203571 0
0.292857 0.203571 0
0.310714 0.203571 0
0.328571 0.203571 0
0.346429 0.203571 0
0.364286 0.203571 0
0.382143 0.203571 0
0.400000 0.203571 0
0.417857 0.203571 0
0.435714 0.203571 0
0.453571 0.203571 0
0.471429 0.203571 0
0.489286 0.203571 0
0.507143 0.203571 0
0.525000 0.203571 0
0.542857 0.203571 0
0.560714 0.203571 0
0.578571 0.203571 0
0.596429 0.203571 0
0.614286 0.203571 0
0.632143 0.203571 0
0.650000 0.203571 0
0.667857 0.203571 0
0.685714 0.203571 0
0.703571 0.203571 0
0.721429 0.203571 0
0.739286 0.203571 0
0.757143 0.203571 0
0.775000 0.203571 0
0.792857 0.203571 0
0.810714 0.203571 0
0.828571 0.203571 0
0.846429 0.203571 0
0.864286 0.203571 0
0.882143 0.203571 0
0.150000 0.221429 0
0.167857 0.221429 0
0.185714 0.221429 0
0.203571 0.221429 0
0.221429 0.221429 0
0.239286 0.221429 0
0.257143 0.221429 0
0.275000 0.221429 0
0.292857 0.221429 0
0.310714 0.221429 0
0.328571 0.221429 0
0.346429 0.221429 0
0.364286 0.221429 0
0.382143 0.221429 0
0.400000 0.221429 0
0.417857 0.221429 0
0.435714 0.221429 0
0.453571 0.221429 0
0.471429 0.221429 0
0.489286 0.221429 0
0.507143 0.221429 0
0.525000 0.221429 0
0.542857 0.221429 0
0.560714 0.221429 0
0.578571 0.221429 0
0.596429 0.221429 0
0.614286 0.221429 0
0.632143 0.221429 0
0.650000 0.221429 0
0.667857 0.221429 0
0.685714 0.221429 0
0.703571 0.221429 0
0.721429 0.221429 0
0.739286 0.221429 0
0.757143 0.221429 0
0.775000 0.221429 0
0.792857 0.221429 0
0.810714 0.221429 0
0.828571 0.221429 0
0.846429 0.221429 0
0.864286 0.221429 0
0.882143 0.221429 0
0.150000 0.239286 0
0.167857 0.239286 0
0.185714 0.239286 0
0.203571 0.239286 0
0.221429 0.239286 0
0.239286 0.239286 0
0.257143 0.239286 0
0.275000 0.239286 0
0.292857 0.239286 0
0.310714 0.239286 0
0.328571 0.239286 0
0.346429 0.239286 0
0.364286 0.239286 0
0.382143 0.239286 0
0.400000 0.239286 0
0.417857 0.239286 0
0.435714 0.239286 0
0.453571 0.239286 0
0.471429 0.239286 0
0.489286 0.239286 0
0.507143 0.239286 0
0.525000 0.239286 0
0.542857 0.239286 0
0.560714 0.239286 0
0.578571 0.239286 0
0.596429 0.239286 0
0.614286 0.239286 0
0.632143 0.239286 0
0.650000 0.239286 0
0.667857 0.239286 0
0.685714 0.239286 0
0.703571 0.239286 0
0.721429 0.239286 0
0.739286 0.239286 0
0.757143 0.239286 0
0.775000 0.239286 0
0.792857 0.239286 0
0.810714 0.239286 0
0.828571 0.239286 0
0.846429 0.239286 0
0.864286 0.239286 0
0.882143 0.239286 0
0.150000 0.257143 0
0.167857 0.257143 0
0.185714 0.257143 0
0.203571 0.257143 0
0.221429 0.257143 0
0.239286 0.257143 0
0.257143 0.257143 0
0.275000 0.257143 0
0.292857 0.257143 0
0.310714 0.257143 0
0.328571 0.257143 0
0.346429 0.257143 0
0.364286 0.257143 0
0.382143 0.257143 0
0.400000 0.257143 0
0.417857 0.257143 0
0.435714 0.257143 0
0.453571 0.257143 0
0.471429 0.257143 0
0.489286 0.257143 0
0.507143 0.257143 0
0.525000 0.257143 0
0.542857 0.257143 0
0.560714 0.257143 0
0.578571 0.257143 0
0.596429 0.257143 0
0.614286 0.257143 0
0.632143 0.257143 0
0.650000 0.257143 0
0.667857 0.257143 0
0.685714 0.257143 0
0.703571 0.257143 0
0.721429 0.257143 0
0.739286 0.257143 0
0.757143 0.257143 0
0.775000 0.257143 0
0.792857 0.257143 0
0.810714 0.257143 0
0.828571 0.257143 0
0.846429 0.257143 0
0.864286 0.257143 0
0.882143 0.257143 0
0.150000 0.275000 0
0.167857 0.275000 0
0.185714 0.275000 0
0.203571 0.275000 0
0.221429 0.275000 0
0.239286 0.275000 0
0.257143 0.275000 0
0.275000 0.275000 0
0.292857 0.275000 0
0.310714 0.275000 0
0.328571 0.275000 0
0.346429 0.275000 0
0.364286 0.275000 0
0.382143 0.275000 0
0.400000 0.275000 0
0.417857 0.275000 0
0.435714 0.275000 0
0.453571 0.275000 0
0.471429 0.275000 0
0.489286 0.275000 0
0.507143 0.275000 0
0.525000 0.275000 0
0.542857 0.275000 0
0.560714 0.275000 0
0.578571 0.275000 0
0.596429 0.275000 0
0.614286 0.275000 0
0.632143 0.275000 0
0.650000 0.275000 0
0.667857 0.275000 0
0.685714 0.275000 0
0.703571 0.275000 0
0.721429 0.275000 0
0.739286 0.275000 0
0.757143 0.275000 0
0.775000 0.275000 0
0.792857 0.275000 0
0.810714 0.275000 0
0.828571 0.275000 0
0.846429 0.275000 0
0.864286 0.275000 0
0.882143 0.275000 0
0.150000 0.292857 0
0.167857 0.292857 0
0.185714 0.292857 0
0.203571 0.292857 0
0.221429 0.292857 0
0.239286 0.292857 0
0.257143 0.292857 0
0.275000 0.292857 0
0.292857 0.292857 0
0.310714 0.292857 0
0.328571 0.292857 0
0.346429 0.292857 0
0.364286 0.292857 0
0.382143 0.292857 0
0.400000 0.292857 0
0.417857 0.292857 0
0.435714 0.292857 0
0.453571 0.292857 0
0.471429 0.292857 0
0.489286 0.292857 0
0.507143 0.292857 0
0.525000 0.292857 0
0.542857 0.292857 0
0.560714 0.292857 0
0.578571 0.292857 0
0.596429 0.292857 0
0.614286 0.292857 0
0.632143 0.292857 0
0.650000 0.292857 0
0.667857 0.292857 0
0.685714 0.292857 0
0.703571 0.292857 0
0.721429 0.292857 0
0.739286 0.292857 0
0.757143 0.292857 0
0.775000 0.292857 0
0.792857 0.292857 0
0.810714 0.292857 0
0.828571 0.292857 0
0.846429 0.292857 0
0.864286 0.292857 0
0.882143 0.292857 0
0.150000 0.310714 0
0.167857 0.310714 0
0.185714 0.310714 0
0.203571 0.310714 0
0.221429 0.310714 0
0.239286 0.310714 0
0.257143 0.310714 0
0.275000 0.310714 0
0.292857 0.310714 0
0.310714 0.310714 0
0.328571 0.310714 0
0.346429 0.310714 0
0.364286 0.310714 0
0.382143 0.310714 0
0.400000 0.310714 0
0.417857 0.310714 0
0.435714 0.310714 0
0.453571 0.310714 0
0.471429 0.310714 0
0.489286 0.310714 0
0.507143 0.310714 0
0.525000 0.310714 0
0.542857 0.310714 0
0.560714 0.310714 0
0.578571 0.310714 0
0.596429 0.310714 0
0.614286 0.310714 0
0.632143 0.310714 0
0.650000 0.310714 0
0.667857 0.310714 0
0.685714 0.310714 0
0.703571 0.310714 0
0.721429 0.310714 0
0.739286 0.310714 0
0.757143 0.310714 0
0.775000 0.310714 0
0.792857 0.310714 0
0.810714 0.310714 0
0.828571 0.310714 0
0.846429 0.310714 0
0.864286 0.310714 0
0.882143 0.310714 0
0.150000 0.328571 0
0.167857 0.328571 0
0.185714 0.328571 0
0.203571 0.328571 0
0.221429 0.328571 0
0.239286 0.328571 0
0.257143 0.328571 0
0.275000 0.328571 0
0.292857 0.328571 0
0.310714 0.328571 0
0.328571 0.328571 0
0.346429 0.328571 0
0.364286 0.328571 0
0.382143 0.328571 0
0.400000 0.328571 0
0.417857 0.328571 0
0.435714 0.328571 0
0.453571 0.328571 0
0.471429 0.328571 0
0.489286 0.328571 0
0.507143 0.328571 0
0.525000 0.328571 0
0.542857 0.328571 0
0.560714 0.328571 0
0.578571 0.328571 0
0.596429 0.328571 0
0.614286 0.328571 0
0.632143 0.328571 0
0.650000 0.328571 0
0.667857 0.328571 0
0.685714 0.328571 0
0.703571 0.328571 0
0.721429 0.328571 0
0.739286 0.328571 0
0.757143 0.328571 0
0.775000 0.328571 0
0.792857 0.328571 0
0.810714 0.328571 0
0.828571 0.328571 0
0.846429 0.328571 0
0.864286 0.328571 0
0.882143 0.328571 0
0.150000 0.346429 0
0.167857 0.346429 0
0.185714 0.346429 0
0.203571 0.346429 0
0.221429 0.346429 0
0.239286 0.346429 0
0.257143 0.346429 0
0.275000 0.346429 0
0.292857 0.346429 0
0.310714 0.346429 0
0.328571 0.346429 0
0.346429 0.346429 0
0.364286 0.346429 0
0.382143 0.346429 0
0.400000 0.346429 0
0.417857 0.346429 0
0.435714 0.346429 0
0.453571 0.346429 0
0.471429 0.346429 0
0.489286 0.346429 0
0.507143 0.346429 0
0.525000 0.346429 0
0.542857 0.346429 0
0.560714 0.346429 0
0.578571 0.346429 0
0.596429 0.346429 0
0.614286 0.346429 0
0.632143 0.346429 0
0.650000 0.346429 0
[...]
POINT_DATA 1764 

VECTORS velocity float
0.000000 0.000000 0
-0.000002 0.000000 0
-0.000004 0.000000 0
-0.000003 0.000000 0
-0.000003 0.000000 0
-0.000002 0.000000 0
-0.000001 0.000000 0
-0.000004 0.000000 0
-0.000004 0.000000 0
0.000005 0.000000 0
0.000010 0.000000 0
0.000012 0.000000 0
0.000013 0.000000 0
0.000014 0.000000 0
0.000015 0.000000 0
0.000015 0.000000 0
0.000015 0.000000 0
0.000015 0.000000 0
0.000015 0.000000 0
0.000014 0.000000 0
0.000014 0.000000 0
0.000014 0.000000 0
0.000014 0.000000 0
0.000014 0.000000 0
0.000014 0.000000 0
0.000014 0.000000 0
0.000015 0.000000 0
0.000015 0.000000 0
0.000015 0.000000 0
0.000016 0.000000 0
0.000016 0.000000 0
0.000016 0.000000 0
0.000017 0.000000 0
0.000017 0.000000 0
0.000016 0.000000 0
0.000015 0.000000 0
0.000013 0.000000 0
0.000010 0.000000 0
0.000007 0.000000 0
-0.000002 0.000000 0
-0.000000 0.000000 0
0.000000 0.000000 0
0.000000 0.000002 0
0.039316 -0.035960 0
0.068837 -0.020509 0
0.079786 -0.002020 0
0.074092 0.009240 0
0.063177 0.013419 0
0.051632 0.009287 0
0.031127 -0.007659 0
0.002009 -0.001574 0
-0.034217 0.029290 0
-0.079029 0.045597 0
-0.126419 0.048624 0
-0.172328 0.046909 0
-0.214703 0.043518 0
-0.252417 0.039034 0
-0.285067 0.034192 0
-0.312725 0.029435 0
-0.335747 0.025028 0
-0.354627 0.021093 0
-0.369896 0.017654 0
-0.382049 0.014673 0
-0.391507 0.012072 0
-0.398590 0.009753 0
-0.403509 0.007588 0
-0.406342 0.005429 0
-0.407037 0.003130 0
-0.405410 0.000534 0
-0.401233 -0.002518 0
-0.394100 -0.006148 0
-0.383469 -0.010449 0
-0.368653 -0.015578 0
-0.348820 -0.021702 0
-0.323010 -0.028936 0
-0.290195 -0.037300 0
-0.249411 -0.046567 0
-0.200067 -0.055983 0
-0.142635 -0.063606 0
-0.080096 -0.064848 0
-0.020799 -0.043775 0
0.016629 0.003924 0
0.000049 -0.000002 0
0.000000 -0.016163 0
0.000000 0.000004 0
0.031295 -0.068837 0
0.052524 -0.040470 0
0.061525 -0.005255 0
0.050309 0.016609 0
0.028689 0.022460 0
-0.001165 0.032050 0
-0.046542 0.049622 0
-0.112318 0.065344 0
-0.165167 0.081038 0
-0.209002 0.092201 0
-0.248955 0.093299 0
-0.285446 0.088284 0
-0.317271 0.080089 0
-0.344184 0.070364 0
-0.366298 0.060308 0
-0.383993 0.050680 0
-0.397782 0.041902 0
-0.408211 0.034150 0
-0.415796 0.027422 0
-0.420977 0.021611 0
-0.424105 0.016541 0
-0.425431 0.012003 0
-0.425100 0.007752 0
-0.423172 0.003528 0
-0.419597 -0.000932 0
-0.414360 -0.005804 0
-0.407227 -0.011310 0
-0.397907 -0.017764 0
-0.385949 -0.025447 0
-0.370772 -0.034649 0
-0.351714 -0.045644 0
-0.328026 -0.058625 0
-0.298925 -0.073599 0
-0.263674 -0.090128 0
-0.221786 -0.106776 0
-0.173482 -0.119971 0
-0.120547 -0.121835 0
-0.067681 -0.096725 0
-0.018142 -0.020799 0
0.000015 0.000005 0
0.000000 -0.016624 0
0.000000 0.000004 0
0.014912 -0.088485 0
0.017831 -0.050739 0
0.006449 0.000196 0
-0.015027 0.042077 0
-0.050214 0.064893 0
-0.098084 0.084518 0
-0.147354 0.103494 0
-0.194632 0.117051 0
-0.237518 0.125975 0
-0.271662 0.129385 0
-0.299447 0.125068 0
-0.322196 0.115225 0
-0.340318 0.102256 0
-0.354330 0.088062 0
-0.364805 0.074001 0
-0.372336 0.060919 0
-0.377484 0.049246 0
-0.380733 0.039107 0
-0.382477 0.030420 0
-0.383015 0.022983 0
-0.382555 0.016526 0
-0.381224 0.010749 0
-0.379080 0.005329 0
-0.376134 -0.000073 0
-0.372373 -0.005682 0
-0.367702 -0.011837 0
-0.361846 -0.018971 0
-0.354496 -0.027425 0
-0.345258 -0.037584 0
-0.333666 -0.049813 0
-0.319205 -0.064449 0
-0.301330 -0.081726 0
-0.279485 -0.101651 0
-0.253114 -0.123705 0
-0.221673 -0.146176 0
-0.184737 -0.164845 0
-0.142215 -0.170648 0
-0.094740 -0.146179 0
-0.044474 -0.063757 0
-0.000047 0.000011 0
0.000000 0.001992 0
0.000000 0.000002 0
-0.008295 -0.086668 0
-0.028486 -0.032006 0
-0.059710 0.027602 0
-0.088310 0.073271 0
-0.123618 0.105517 0
-0.163957 0.129190 0
-0.202972 0.146170 0
-0.237779 0.155508 0
-0.267433 0.158069 0
-0.289615 0.154130 0
-0.305480 0.143833 0
-0.316368 0.129154 0
-0.323355 0.112223 0
-0.327387 0.094852 0
-0.329259 0.078315 0
-0.329626 0.063358 0
-0.328992 0.050298 0
-0.327724 0.039143 0
-0.326070 0.029705 0
-0.324179 0.021689 0
-0.322124 0.014750 0
-0.319923 0.008527 0
-0.317554 0.002662 0
-0.314965 -0.003179 0
-0.312164 -0.009363 0
-0.308859 -0.016331 0
-0.304878 -0.024517 0
-0.299933 -0.034353 0
-0.293689 -0.046277 0
-0.285753 -0.060702 0
-0.275715 -0.077980 0
-0.263187 -0.098344 0
-0.247821 -0.121815 0
-0.229243 -0.147941 0
-0.206890 -0.175152 0
-0.179806 -0.199429 0
-0.146433 -0.211833 0
-0.104665 -0.194467 0
-0.053265 -0.115539 0
-0.000105 0.000014 0
0.000000 0.027859 0
0.000000 -0.000001 0
-0.030267 -0.059999 0
-0.067902 0.000676 0
-0.101801 0.060020 0
-0.133823 0.105985 0
-0.166267 0.140540 0
-0.198318 0.163871 0
-0.227028 0.177315 0
-0.250697 0.181513 0
-0.268631 0.177811 0
-0.280108 0.167431 0
-0.286109 0.151820 0
-0.287929 0.133101 0
-0.286822 0.113275 0
-0.283857 0.093966 0
-0.279877 0.076240 0
-0.275503 0.060652 0
-0.271157 0.047344 0
-0.267100 0.036184 0
-0.263464 0.026874 0
-0.260288 0.019036 0
-0.257551 0.012271 0
-0.255196 0.006179 0
-0.253149 0.000370 0
-0.251332 -0.005464 0
-0.249605 -0.011788 0
-0.247789 -0.019123 0
-0.245708 -0.027897 0
-0.243114 -0.038614 0
-0.239688 -0.051763 0
-0.235045 -0.067788 0
-0.228789 -0.087015 0
-0.220598 -0.109619 0
-0.210276 -0.135596 0
-0.197658 -0.164636 0
-0.182302 -0.195613 0
-0.163074 -0.225302 0
-0.137640 -0.245789 0
-0.102283 -0.239347 0
-0.053748 -0.168423 0
-0.000144 0.000017 0
0.000000 0.055263 0
0.000000 -0.000003 0
-0.042970 -0.018765 0
-0.086324 0.039528 0
-0.121846 0.093523 0
-0.154243 0.137737 0
-0.183118 0.170013 0
-0.208224 0.189951 0
-0.228377 0.198549 0
-0.242889 0.197111 0
-0.251600 0.187480 0
-0.254716 0.171609 0
-0.253310 0.151654 0
-0.248660 0.129868 0
-0.242015 0.108151 0
-0.234424 0.087907 0
-0.226692 0.069960 0
-0.219376 0.054638 0
-0.212821 0.041896 0
-0.207199 0.031450 0
-0.202552 0.022893 0
-0.198837 0.015776 0
-0.195959 0.009658 0
-0.193808 0.004125 0
-0.192276 -0.001203 0
-0.191275 -0.006723 0
-0.190578 -0.012906 0
-0.190124 -0.020228 0
-0.189773 -0.029193 0
-0.189324 -0.040373 0
-0.188458 -0.054345 0
-0.186738 -0.071601 0
-0.183677 -0.092427 0
-0.178891 -0.116857 0
-0.172252 -0.144756 0
-0.163795 -0.175915 0
-0.153331 -0.209736 0
-0.139920 -0.244091 0
-0.121166 -0.272624 0
-0.092725 -0.278359 0
-0.050033 -0.217822 0
-0.000168 0.000018 0
0.000000 0.081611 0
0.000000 -0.000006 0
-0.046539 0.026325 0
-0.089140 0.079553 0
-0.125576 0.127940 0
-0.156443 0.167257 0
-0.181586 0.194520 0
-0.201037 0.209130 0
-0.214531 0.211981 0
-0.222088 0.204736 0
-0.224075 0.189638 0
-0.221221 0.169141 0
-0.214707 0.145765 0
-0.205795 0.121806 0
-0.195674 0.099039 0
-0.185329 0.078643 0
-0.175496 0.061192 0
-0.166663 0.046781 0
-0.159100 0.035167 0
-0.152903 0.025916 0
-0.148034 0.018512 0
-0.144369 0.012444 0
-0.141741 0.007242 0
-0.139980 0.002495 0
-0.138943 -0.002162 0
-0.138518 -0.007161 0
-0.138567 -0.012939 0
-0.139077 -0.019928 0
-0.140008 -0.028698 0
-0.141243 -0.039929 0
-0.142498 -0.054349 0
-0.143269 -0.072569 0
-0.142900 -0.094862 0
-0.140831 -0.121044 0
-0.136900 -0.150692 0
-0.131289 -0.183557 0
-0.124082 -0.219487 0
-0.114735 -0.257467 0
-0.101296 -0.292984 0
-0.079517 -0.310480 0
-0.043970 -0.261148 0
-0.000176 0.000019 0
0.000000 0.105298 0
0.000000 -0.000007 0
-0.043457 0.070375 0
-0.084100 0.118565 0
-0.118721 0.160825 0
-0.146810 0.193747 0
-0.168206 0.214608 0
-0.183057 0.222897 0
-0.191555 0.219600 0
-0.194155 0.206654 0
-0.191582 0.186613 0
-0.184842 0.162241 0
-0.175161 0.136227 0
-0.163767 0.110834 0
-0.151771 0.087686 0
-0.140075 0.067729 0
-0.129337 0.051293 0
-0.119978 0.038242 0
-0.112219 0.028136 0
-0.106118 0.020383 0
-0.101589 0.014359 0
-0.098449 0.009483 0
-0.096451 0.005270 0
-0.095343 0.001328 0
-0.094903 -0.002665 0
-0.094982 -0.007100 0
-0.095527 -0.012347 0
-0.096573 -0.018787 0
-0.098198 -0.027027 0
-0.100431 -0.037882 0
-0.103107 -0.052319 0
-0.105717 -0.071199 0
-0.107433 -0.094865 0
-0.107462 -0.122857 0
-0.105553 -0.154298 0
-0.101969 -0.188732 0
-0.096980 -0.226291 0
-0.090441 -0.266877 0
-0.081064 -0.307843 0
-0.065196 -0.335684 0
-0.037000 -0.297338 0
-0.000170 0.000020 0
0.000000 0.125582 0
0.000000 -0.000008 0
-0.037622 0.110425 0
-0.074585 0.154816 0
-0.105708 0.190649 0
-0.130265 0.216742 0
-0.148018 0.230767 0
-0.159134 0.232479 0
-0.164005 0.223079 0
-0.163298 0.204763 0
-0.157917 0.180324 0
-0.148968 0.152720 0
-0.137657 0.124690 0
-0.125135 0.098416 0
-0.112415 0.075348 0
-0.100293 0.056208 0
-0.089338 0.041094 0
-0.079918 0.029663 0
-0.072252 0.021307 0
-0.066445 0.015286 0
-0.062443 0.010843 0
-0.060049 0.007306 0
-0.058961 0.004137 0
-0.058837 0.000946 0
-0.059346 -0.002524 0
-0.060202 -0.006537 0
-0.061387 -0.011348 0
-0.062933 -0.017257 0
-0.064969 -0.024840 0
-0.067659 -0.035020 0
-0.071021 -0.049063 0
-0.074654 -0.068243 0
-0.077651 -0.093118 0
-0.079042 -0.122924 0
-0.078539 -0.156185 0
-0.076432 -0.192130 0
-0.073064 -0.231015 0
-0.068560 -0.273384 0
-0.062258 -0.318230 0
-0.051360 -0.354544 0
-0.030050 -0.326343 0
-0.000156 0.000019 0
0.000000 0.142298 0
0.000000 -0.000008 0
-0.031056 0.144960 0
-0.062883 0.186651 0
-0.089588 0.216506 0
-0.110266 0.236057 0
-0.124597 0.243476 0
-0.132715 0.238883 0
-0.135059 0.223764 0
-0.132353 0.200567 0
-0.125533 0.172283 0
-0.115680 0.141981 0
-0.103914 0.112395 0
-0.091276 0.085592 0
-0.078649 0.062843 0
-0.066707 0.044652 0
-0.055907 0.030918 0
-0.046561 0.021155 0
-0.038929 0.014662 0
-0.033303 0.010574 0
-0.029708 0.007963 0
-0.027970 0.006001 0
-0.027745 0.004058 0
-0.028656 0.001713 0
-0.030335 -0.001300 0
-0.032307 -0.005058 0
-0.034490 -0.009616 0
-0.036868 -0.015206 0
-0.039500 -0.022301 0
-0.042573 -0.031830 0
-0.046213 -0.045323 0
-0.050164 -0.064569 0
-0.053566 -0.090477 0
-0.055481 -0.121969 0
-0.055748 -0.156908 0
-0.054658 -0.194207 0
-0.052537 -0.234162 0
-0.049621 -0.277683 0
-0.045702 -0.325043 0
-0.038858 -0.367893 0
-0.023646 -0.348698 0
-0.000137 0.000019 0
0.000000 0.155631 0
0.000000 -0.000008 0
-0.024198 0.173309 0
-0.050345 0.213349 0
-0.072295 0.238032 0
-0.089064 0.251751 0
-0.100291 0.253216 0
-0.106053 0.242942 0
-0.106755 0.222718 0
-0.103071 0.195237 0
-0.095867 0.163651 0
-0.086118 0.131101 0
-0.074811 0.100286 0
-0.062847 0.073150 0
-0.050971 0.050779 0
-0.039714 0.033466 0
-0.029400 0.020949 0
-0.020278 0.012685 0
-0.012698 0.008049 0
-0.007308 0.006065 0
-0.004171 0.005510 0
-0.002955 0.005342 0
-0.003280 0.004823 0
-0.004795 0.003537 0
-0.007203 0.001128 0
-0.010252 -0.002382 0
-0.013562 -0.006787 0
-0.016975 -0.012247 0
-0.020443 -0.019136 0
-0.024073 -0.028306 0
-0.027908 -0.041472 0
-0.031708 -0.060890 0
-0.034738 -0.087800 0
-0.036387 -0.120743 0
-0.036830 -0.157008 0
-0.036348 -0.195341 0
-0.035187 -0.236052 0
-0.033585 -0.280218 0
-0.031585 -0.328992 0
-0.028014 -0.376600 0
-0.018021 -0.365201 0
-0.000117 0.000018 0
0.000000 0.165943 0
0.000000 -0.000008 0
-0.017347 0.195304 0
-0.037750 0.234747 0
-0.054973 0.255225 0
-0.068008 0.264053 0
-0.076497 0.260465 0
-0.080461 0.245347 0
-0.080227 0.220782 0
-0.076359 0.189679 0
-0.069587 0.155330 0
-0.060730 0.120924 0
-0.050613 0.089123 0
-0.039988 0.061753 0
-0.029452 0.039710 0
-0.019376 0.023081 0
-0.009870 0.011483 0
-0.001182 0.004452 0
0.005415 0.001692 0
0.009817 0.002047 0
0.012265 0.003610 0
0.013114 0.005111 0
0.012634 0.005897 0
0.011061 0.005635 0
0.008591 0.004157 0
0.005259 0.001302 0
0.001352 -0.002893 0
-0.002779 -0.008326 0
-0.007007 -0.015203 0
-0.011181 -0.024365 0
-0.015075 -0.037688 0
-0.018301 -0.057739 0
-0.020292 -0.085799 0
-0.021083 -0.119876 0
-0.021264 -0.156946 0
-0.021064 -0.195851 0
-0.020629 -0.236925 0
-0.020145 -0.281285 0
-0.019750 -0.330614 0
-0.018828 -0.381457 0
-0.013219 -0.376712 0
-0.000098 0.000018 0
0.000000 0.173651 0
0.000000 -0.000008 0
-0.010693 0.211059 0
-0.025528 0.250975 0
-0.038232 0.268290 0
-0.047805 0.273275 0
-0.053919 0.265668 0
-0.056553 0.246672 0
-0.055936 0.218616 0
-0.052493 0.184597 0
-0.046782 0.148022 0
-0.039438 0.112127 0
-0.031112 0.079543 0
-0.022401 0.051989 0
-0.013740 0.030166 0
-0.005247 0.013885 0
0.002928 0.002755 0
0.009534 -0.002599 0
0.014038 -0.002950 0
0.017061 -0.000786 0
0.018946 0.002212 0
0.019735 0.004972 0
0.019464 0.006876 0
0.018201 0.007580 0
0.016056 0.006930 0
0.013141 0.004857 0
0.009488 0.001251 0
0.005320 -0.003888 0
0.000948 -0.010733 0
-0.003253 -0.020238 0
-0.006713 -0.034352 0
-0.008717 -0.055673 0
-0.009098 -0.085018 0
-0.008730 -0.119771 0
-0.008419 -0.157027 0
-0.008293 -0.195976 0
-0.008412 -0.236971 0
-0.008891 -0.281098 0
-0.009879 -0.330310 0
-0.011126 -0.383131 0
-0.009179 -0.384029 0
-0.000082 0.000017 0
0.000000 0.179161 0
0.000000 -0.000007 0
-0.004380 0.220832 0
-0.013859 0.262286 0
-0.022331 0.277503 0
-0.028727 0.279739 0
-0.032783 0.269213 0
-0.034448 0.247365 0
-0.033858 0.216722 0
-0.031287 0.180525 0
-0.027109 0.142275 0
-0.021766 0.105255 0
-0.015728 0.072087 0
-0.009448 0.044381 0
-0.003095 0.022556 0
0.003132 0.006413 0
0.008538 -0.003299 0
0.012014 -0.006657 0
0.014469 -0.005835 0
0.016350 -0.002861 0
0.017765 0.000936 0
0.018576 0.004593 0
0.018632 0.007431 0
0.017863 0.009043 0
0.016281 0.009218 0
0.013958 0.007870 0
0.010993 0.004928 0
0.007469 0.000215 0
0.003743 -0.006630 0
0.000415 -0.016704 0
-0.001619 -0.032224 0
-0.001539 -0.055355 0
0.000035 -0.085785 0
0.001518 -0.120555 0
0.002356 -0.157384 0
0.002492 -0.195857 0
0.001922 -0.236327 0
0.000601 -0.279818 0
-0.001611 -0.328379 0
-0.004661 -0.382158 0
-0.005782 -0.387838 0
-0.000070 0.000016 0
0.000000 0.182828 0
0.000000 -0.000007 0
0.001413 0.224919 0
-0.002808 0.268926 0
-0.007299 0.283158 0
-0.010770 0.283727 0
-0.013003 0.271389 0
-0.013942 0.247747 0
-0.013640 0.215455 0
-0.012233 0.177848 0
-0.009913 0.138501 0
-0.006923 0.100746 0
-0.003562 0.067226 0
-0.000135 0.039356 0
0.003231 0.017586 0
0.006255 0.002252 0
0.008231 -0.006127 0
0.009386 -0.008530 0
0.010192 -0.007286 0
0.010909 -0.004082 0
0.011610 -0.000013 0
0.012187 0.004106 0
0.012407 0.007588 0
0.012099 0.009930 0
0.011174 0.010835 0
0.009640 0.010145 0
0.007587 0.007740 0
0.005191 0.003362 0
0.002810 -0.003679 0
0.001415 -0.014876 0
0.002009 -0.032399 0
0.004697 -0.057327 0
0.007998 -0.088075 0
0.010425 -0.122091 0
0.011712 -0.158001 0
0.011845 -0.195543 0
0.010846 -0.235080 0
0.008710 -0.277564 0
0.005360 -0.325048 0
0.000837 -0.378960 0
-0.002883 -0.388690 0
-0.000061 0.000016 0
0.000000 0.184941 0
0.000000 -0.000006 0
0.006702 0.223640 0
0.007598 0.270998 0
0.006898 0.285464 0
0.006186 0.285443 0
0.005665 0.272385 0
0.005369 0.248002 0
0.005291 0.215013 0
0.005405 0.176797 0
0.005679 0.136965 0
0.006055 0.098904 0
0.006419 0.065299 0
0.006633 0.037587 0
0.006515 0.016165 0
0.006001 0.001414 0
0.005185 -0.006429 0
0.004430 -0.008618 0
0.003725 -0.007358 0
0.003237 -0.004279 0
0.003044 -0.000342 0
0.003106 0.003796 0
0.003262 0.007519 0
0.003299 0.010276 0
0.003054 0.011676 0
0.002475 0.011458 0
0.001648 0.009377 0
0.000835 0.004991 0
0.000634 -0.002854 0
0.002274 -0.015903 0
0.006084 -0.035506 0
0.011071 -0.061343 0
0.015562 -0.091513 0
0.018685 -0.124269 0
0.020254 -0.158804 0
0.020286 -0.194991 0
0.018812 -0.233192 0
0.015844 -0.274332 0
0.011381 -0.320506 0
0.005507 -0.373916 0
-0.000342 -0.387002 0
-0.000054 0.000015 0
0.000000 0.185709 0
0.000000 -0.000006 0
0.011645 0.217320 0
0.017423 0.268730 0
0.020349 0.284570 0
0.022286 0.284960 0
0.023455 0.272207 0
0.023847 0.248121 0
0.023460 0.215418 0
0.022336 0.177460 0
0.020569 0.137850 0
0.018276 0.100006 0
0.015553 0.066649 0
0.012471 0.039259 0
0.009026 0.018218 0
0.005268 0.003582 0
0.001770 -0.004556 0
-0.000793 -0.007070 0
-0.002866 -0.006093 0
-0.004455 -0.003402 0
-0.005527 0.000118 0
-0.006064 0.003889 0
-0.006119 0.007395 0
-0.005853 0.010138 0
-0.005425 0.011658 0
-0.004888 0.011552 0
-0.004120 0.009380 0
-0.002738 0.004375 0
0.000237 -0.005118 0
0.005339 -0.020326 0
0.011817 -0.041195 0
0.018242 -0.066806 0
0.023419 -0.095688 0
0.026862 -0.126783 0
0.028463 -0.159602 0
0.028230 -0.194100 0
0.026186 -0.230637 0
0.022359 -0.270134 0
0.016778 -0.314711 0
0.009539 -0.367237 0
0.001929 -0.383184 0
-0.000050 0.000014 0
0.000000 0.185282 0
0.000000 -0.000005 0
0.016261 0.206217 0
0.026732 0.262294 0
0.033170 0.280602 0
0.037660 0.282338 0
0.040525 0.270823 0
0.041720 0.247997 0
0.041222 0.216525 0
0.039110 0.179688 0
0.035574 0.141025 0
0.030891 0.103921 0
0.025387 0.071103 0
0.019378 0.044114 0
0.013061 0.023369 0
0.006606 0.008669 0
0.000472 -0.000368 0
-0.004241 -0.003981 0
-0.007571 -0.003695 0
-0.010026 -0.001619 0
-0.011746 0.001267 0
-0.012706 0.004388 0
-0.012912 0.007308 0
-0.012413 0.009583 0
-0.011263 0.010711 0
-0.009428 0.010152 0
-0.006674 0.007227 0
-0.002367 0.000635 0
0.004066 -0.010931 0
0.011726 -0.027483 0
0.019620 -0.048410 0
0.026598 -0.072945 0
0.031939 -0.100133 0
0.035339 -0.129314 0
0.036701 -0.160171 0
0.036004 -0.192715 0
0.033256 -0.227321 0
0.028486 -0.264923 0
0.021753 -0.307686 0
0.013188 -0.359067 0
0.003979 -0.377463 0
-0.000047 0.000014 0
0.000000 0.183779 0
0.000000 -0.000004 0
0.020491 0.190588 0
0.035469 0.251821 0
0.045354 0.273642 0
0.052345 0.277605 0
0.056951 0.268147 0
0.059130 0.247424 0
0.058835 0.218028 0
0.056154 0.183108 0
0.051345 0.146069 0
0.044822 0.110193 0
0.037116 0.078162 0
0.028783 0.051585 0
0.020247 0.030990 0
0.011820 0.016171 0
0.003814 0.006291 0
-0.003173 0.000973 0
-0.008126 -0.000308 0
-0.011346 0.000773 0
-0.013432 0.002798 0
-0.014518 0.005054 0
-0.014617 0.007102 0
-0.013682 0.008490 0
-0.011628 0.008673 0
-0.008269 0.006962 0
-0.003058 0.002319 0
0.004085 -0.006365 0
0.012530 -0.019211 0
0.021239 -0.035879 0
0.029420 -0.056067 0
0.036286 -0.079124 0
0.041353 -0.104429 0
0.044372 -0.131546 0
0.045221 -0.160267 0
0.043845 -0.190655 0
0.040232 -0.223119 0
0.034414 -0.258630 0
0.026473 -0.299412 0
0.016578 -0.349464 0
0.005860 -0.369996 0
-0.000045 0.000013 0
0.000000 0.181301 0
0.000000 -0.000003 0
0.024182 0.170748 0
0.043440 0.237431 0
0.056740 0.263726 0
0.066242 0.270741 0
0.072682 0.264038 0
0.076083 0.246114 0
0.076384 0.219501 0
0.073669 0.187177 0
0.068235 0.152357 0
0.060591 0.118150 0
0.051423 0.087141 0
0.041480 0.060983 0
0.031400 0.040333 0
0.021678 0.025102 0
0.012679 0.014625 0
0.004532 0.007959 0
-0.001968 0.004478 0
-0.006406 0.003687 0
-0.008940 0.004439 0
-0.009961 0.005573 0
-0.009676 0.006472 0
-0.008031 0.006593 0
-0.004748 0.005299 0
0.000426 0.001583 0
0.007456 -0.005127 0
0.015830 -0.014954 0
0.024643 -0.028086 0
0.033290 -0.044373 0
0.041050 -0.063456 0
0.047344 -0.084878 0
0.051779 -0.108219 0
0.054108 -0.133181 0
0.054177 -0.159644 0
0.051900 -0.187726 0
0.047250 -0.217890 0
0.040261 -0.251163 0
0.031039 -0.289851 0
0.019796 -0.338454 0
0.007620 -0.360884 0
-0.000044 0.000013 0
0.000000 0.177918 0
0.000000 -0.000002 0
0.027100 0.147148 0
0.050299 0.219263 0
0.066988 0.250841 0
0.079078 0.261663 0
0.087506 0.258305 0
0.092411 0.243722 0
0.093745 0.220442 0
0.091585 0.191256 0
0.086241 0.159147 0
0.078271 0.127005 0
0.068450 0.097273 0
0.057651 0.071608 0
0.046674 0.050792 0
0.036167 0.034892 0
0.026613 0.023437 0
0.018269 0.015621 0
0.011277 0.010630 0
0.006001 0.007745 0
0.002835 0.006353 0
0.001678 0.005791 0
0.002360 0.005172 0
0.004838 0.003562 0
0.009253 0.000216 0
0.015468 -0.005242 0
0.022894 -0.013084 0
0.031106 -0.023552 0
0.039501 -0.036671 0
0.047447 -0.052286 0
0.054353 -0.070121 0
0.059739 -0.089854 0
0.063242 -0.111194 0
0.064599 -0.133943 0
0.063632 -0.158059 0
0.060235 -0.183728 0
0.054371 -0.211480 0
0.046082 -0.242419 0
0.035500 -0.278947 0
0.022880 -0.326045 0
0.009285 -0.350200 0
-0.000043 0.000012 0
0.000000 0.173680 0
0.000000 -0.000001 0
0.028916 0.120450 0
0.055520 0.197543 0
0.075545 0.234947 0
0.090378 0.250222 0
0.101031 0.250704 0
0.107768 0.239874 0
0.110587 0.220327 0
0.109568 0.194682 0
0.105018 0.165672 0
0.097508 0.135941 0
0.087842 0.107761 0
0.076947 0.082758 0
0.065714 0.061817 0
0.054900 0.045163 0
0.045088 0.032523 0
0.036653 0.023295 0
0.029782 0.016745 0
0.024625 0.012130 0
0.021307 0.008763 0
0.020020 0.006048 0
0.020838 0.003311 0
0.023734 -0.000300 0
0.028410 -0.005331 0
0.034457 -0.012058 0
0.041497 -0.020765 0