# vtk DataFile Version 2.0
generated by CFD-lab course output (written by Tobias Neckel) 
ASCII

DATASET STRUCTURED_GRID
DIMENSIONS  42 42 1 
POINTS 1764 float

0.150000 0.150000 0
0.167857 0.150000 0
0.185714 0.150000 0
0.203571 0.150000 0
0.221429 0.150000 0
0.239286 0.150000 0
0.257143 0.150000 0
0.275000 0.150000 0
0.292857 0.150000 0
0.310714 0.150000 0
0.328571 0.150000 0
0.346429 0.150000 0
0.364286 0.150000 0
0.382143 0.150000 0
0.400000 0.150000 0
0.417857 0.150000 0
0.435714 0.150000 0
0.453571 0.150000 0
0.471429 0.150000 0
0.489286 0.150000 0
0.507143 0.150000 0
0.525000 0.150000 0
0.542857 0.150000 0
0.560714 0.150000 0
0.578571 0.150000 0
0.596429 0.150000 0
0.614286 0.150000 0
0.632143 0.150000 0
0.650000 0.150000 0
0.667857 0.150000 0
0.685714 0.150000 0
0.703571 0.150000 0
0.721429 0.150000 0
0.739286 0.150000 0
0.757143 0.150000 0
0.775000 0.150000 0
0.792857 0.150000 0
0.810714 0.150000 0
0.828571 0.150000 0
0.846429 0.150000 0
0.864286 0.150000 0
0.882143 0.150000 0
0.150000 0.167857 0
0.167857 0.167857 0
0.185714 0.167857 0
0.203571 0.167857 0
0.221429 0.167857 0
0.239286 0.167857 0
0.257143 0.167857 0
0.275000 0.167857 0
0.292857 0.167857 0
0.310714 0.167857 0
0.328571 0.167857 0
0.346429 0.167857 0
0.364286 0.167857 0
0.382143 0.167857 0
0.400000 0.167857 0
0.417857 0.167857 0
0.435714 0.167857 0
0.453571 0.167857 0
0.471429 0.167857 0
0.489286 0.167857 0
0.507143 0.167857 0
0.525000 0.167857 0
0.542857 0.167857 0
0.560714 0.167857 0
0.578571 0.167857 0
0.596429 0.167857 0
0.614286 0.167857 0
0.632143 0.167857 0
0.650000 0.167857 0
0.667857 0.167857 0
0.685714 0.167857 0
0.703571 0.167857 0
0.721429 0.167857 0
0.739286 0.167857 0
0.757143 0.167857 0
0.775000 0.167857 0
0.792857 0.167857 0
0.810714 0.167857 0
0.828571 0.167857 0
0.846429 0.167857 0
0.864286 0.167857 0
0.882143 0.167857 0
0.150000 0.185714 0
0.167857 0.185714 0
0.185714 0.185714 0
0.203571 0.185714 0
0.221429 0.185714 0
0.239286 0.185714 0
0.257143 0.185714 0
0.275000 0.185714 0
0.292857 0.185714 0
0.310714 0.185714 0
0.328571 0.185714 0
0.346429 0.185714 0
0.364286 0.185714 0
0.382143 0.185714 0
0.400000 0.185714 0
0.417857 0.185714 0
0.435714 0.185714 0
0.453571 0.185714 0
0.471429 0.185714 0
0.489286 0.185714 0
0.507143 0.185714 0
0.525000 0.185714 0
0.542857 0.185714 0
0.560714 0.185714 0
0.578571 0.185714 0
0.596429 0.185714 0
0.614286 0.185714 0
0.632143 0.185714 0
0.650000 0.185714 0
0.667857 0.185714 0
0.685714 0.185714 0
0.703571 0.185714 0
0.721429 0.185714 0
0.739286 0.185714 0
0.757143 0.185714 0
0.775000 0.185714 0
0.792857 0.185714 0
0.810714 0.185714 0
0.828571 0.185714 0
0.846429 0.185714 0
0.864286 0.185714 0
0.882143 0.185714 0
0.150000 0.203571 0
0.167857 0.203571 0
0.185714 0.203571 0
0.203571 0.203571 0
0.221429 0.203571 0
0.239286 0.203571 0
0.257143 0.203571 0
0.275000 0.203571 0
0.292857 0.203571 0
0.310714 0.203571 0
0.328571 0.203571 0
0.346429 0.203571 0
0.364286 0.203571 0
0.382143 0.203571 0
0.400000 0.203571 0
0.417857 0.203571 0
0.435714 0.203571 0
0.453571 0.203571 0
0.471429 0.203571 0
0.489286 0.203571 0
0.507143 0.203571 0
0.525000 0.203571 0
0.542857 0.203571 0
0.560714 0.203571 0
0.578571 0.203571 0
0.596429 0.203571 0
0.614286 0.203571 0
0.632143 0.203571 0
0.650000 0.203571 0
0.667857 0.203571 0
0.685714 0.203571 0
0.703571 0.203571 0
0.721429 0.203571 0
0.739286 0.203571 0
0.757143 0.203571 0
0.775000 0.203571 0
0.792857 0.203571 0
0.810714 0.203571 0
0.828571 0.203571 0
0.846429 0.203571 0
0.864286 0.203571 0
0.882143 0.203571 0
0.150000 0.221429 0
0.167857 0.221429 0
0.185714 0.221429 0
0.203571 0.221429 0
0.221429 0.221429 0
0.239286 0.221429 0
0.257143 0.221429 0
0.275000 0.221429 0
0.292857 0.221429 0
0.310714 0.221429 0
0.328571 0.221429 0
0.346429 0.221429 0
0.364286 0.221429 0
0.382143 0.221429 0
0.400000 0.221429 0
0.417857 0.221429 0
0.435714 0.221429 0
0.453571 0.221429 0
0.471429 0.221429 0
0.489286 0.221429 0
0.507143 0.221429 0
0.525000 0.221429 0
0.542857 0.221429 0
0.560714 0.221429 0
0.578571 0.221429 0
0.596429 0.221429 0
0.614286 0.221429 0
0.632143 0.221429 0
0.650000 0.221429 0
0.667857 0.221429 0
0.685714 0.221429 0
0.703571 0.221429 0
0.721429 0.221429 0
0.739286 0.221429 0
0.757143 0.221429 0
0.775000 0.221429 0
0.792857 0.221429 0
0.810714 0.221429 0
0.828571 0.221429 0
0.846429 0.221429 0
0.864286 0.221429 0
0.882143 0.221429 0
0.150000 0.239286 0
0.167857 0.239286 0
0.185714 0.239286 0
0.203571 0.239286 0
0.221429 0.239286 0
0.239286 0.239286 0
0.257143 0.239286 0
0.275000 0.239286 0
0.292857 0.239286 0
0.310714 0.239286 0
0.328571 0.239286 0
0.346429 0.239286 0
0.364286 0.239286 0
0.382143 0.239286 0
0.400000 0.239286 0
0.417857 0.239286 0
0.435714 0.239286 0
0.453571 0.239286 0
0.471429 0.239286 0
0.489286 0.239286 0
0.507143 0.239286 0
0.525000 0.239286 0
0.542857 0.239286 0
0.560714 0.239286 0
0.578571 0.239286 0
0.596429 0.239286 0
0.614286 0.239286 0
0.632143 0.239286 0
0.650000 0.239286 0
0.667857 0.239286 0
0.685714 0.239286 0
0.703571 0.239286 0
0.721429 0.239286 0
0.739286 0.239286 0
0.757143 0.239286 0
0.775000 0.239286 0
0.792857 0.239286 0
0.810714 0.239286 0
0.828571 0.239286 0
0.846429 0.239286 0
0.864286 0.239286 0
0.882143 0.239286 0
0.150000 0.257143 0
0.167857 0.257143 0
0.185714 0.257143 0
0.203571 0.257143 0
0.221429 0.257143 0
0.239286 0.257143 0
0.257143 0.257143 0
0.275000 0.257143 0
0.292857 0.257143 0
0.310714 0.257143 0
0.328571 0.257143 0
0.346429 0.257143 0
0.364286 0.257143 0
0.382143 0.257143 0
0.400000 0.257143 0
0.417857 0.257143 0
0.435714 0.257143 0
0.453571 0.257143 0
0.471429 0.257143 0
0.489286 0.257143 0
0.507143 0.257143 0
0.525000 0.257143 0
0.542857 0.257143 0
0.560714 0.257143 0
0.578571 0.257143 0
0.596429 0.257143 0
0.614286 0.257143 0
0.632143 0.257143 0
0.650000 0.257143 0
0.667857 0.257143 0
0.685714 0.257143 0
0.703571 0.257143 0
0.721429 0.257143 0
0.739286 0.257143 0
0.757143 0.257143 0
0.775000 0.257143 0
0.792857 0.257143 0
0.810714 0.257143 0
0.828571 0.257143 0
0.846429 0.257143 0
0.864286 0.257143 0
0.882143 0.257143 0
0.150000 0.275000 0
0.167857 0.275000 0
0.185714 0.275000 0
0.203571 0.275000 0
0.221429 0.275000 0
0.239286 0.275000 0
0.257143 0.275000 0
0.275000 0.275000 0
0.292857 0.275000 0
0.310714 0.275000 0
0.328571 0.275000 0
0.346429 0.275000 0
0.364286 0.275000 0
0.382143 0.275000 0
0.400000 0.275000 0
0.417857 0.275000 0
0.435714 0.275000 0
0.453571 0.275000 0
0.471429 0.275000 0
0.489286 0.275000 0
0.507143 0.275000 0
0.525000 0.275000 0
0.542857 0.275000 0
0.560714 0.275000 0
0.578571 0.275000 0
0.596429 0.275000 0
0.614286 0.275000 0
0.632143 0.275000 0
0.650000 0.275000 0
0.667857 0.275000 0
0.685714 0.275000 0
0.703571 0.275000 0
0.721429 0.275000 0
0.739286 0.275000 0
0.757143 0.275000 0
0.775000 0.275000 0
0.792857 0.275000 0
0.810714 0.275000 0
0.828571 0.275000 0
0.846429 0.275000 0
0.864286 0.275000 0
0.882143 0.275000 0
0.150000 0.292857 0
0.167857 0.292857 0
0.185714 0.292857 0
0.203571 0.292857 0
0.221429 0.292857 0
0.239286 0.292857 0
0.257143 0.292857 0
0.275000 0.292857 0
0.292857 0.292857 0
0.310714 0.292857 0
0.328571 0.292857 0
0.346429 0.292857 0
0.364286 0.292857 0
0.382143 0.292857 0
0.400000 0.292857 0
0.417857 0.292857 0
0.435714 0.292857 0
0.453571 0.292857 0
0.471429 0.292857 0
0.489286 0.292857 0
0.507143 0.292857 0
0.525000 0.292857 0
0.542857 0.292857 0
0.560714 0.292857 0
0.578571 0.292857 0
0.596429 0.292857 0
0.614286 0.292857 0
0.632143 0.292857 0
0.650000 0.292857 0
0.667857 0.292857 0
0.685714 0.292857 0
0.703571 0.292857 0
0.721429 0.292857 0
0.739286 0.292857 0
0.757143 0.292857 0
0.775000 0.292857 0
0.792857 0.292857 0
0.810714 0.292857 0
0.828571 0.292857 0
0.846429 0.292857 0
0.864286 0.292857 0
0.882143 0.292857 0
0.150000 0.310714 0
0.167857 0.310714 0
0.185714 0.310714 0
0.203571 0.310714 0
0.221429 0.310714 0
0.239286 0.310714 0
0.257143 0.310714 0
0.275000 0.310714 0
0.292857 0.310714 0
0.310714 0.310714 0
0.328571 0.310714 0
0.346429 0.310714 0
0.364286 0.310714 0
0.382143 0.310714 0
0.400000 0.310714 0
0.417857 0.310714 0
0.435714 0.310714 0
0.453571 0.310714 0
0.471429 0.310714 0
0.489286 0.310714 0
0.507143 0.310714 0
0.525000 0.310714 0
0.542857 0.310714 0
0.560714 0.310714 0
0.578571 0.310714 0
0.596429 0.310714 0
0.614286 0.310714 0
0.632143 0.310714 0
0.650000 0.310714 0
0.667857 0.310714 0
0.685714 0.310714 0
0.703571 0.310714 0
0.721429 0.310714 0
0.739286 0.310714 0
0.757143 0.310714 0
0.775000 0.310714 0
0.792857 0.310714 0
0.810714 0.310714 0
0.828571 0.310714 0
0.846429 0.310714 0
0.864286 0.310714 0
0.882143 0.310714 0
0.150000 0.328571 0
0.167857 0.328571 0
0.185714 0.328571 0
0.203571 0.328571 0
0.221429 0.328571 0
0.239286 0.328571 0
0.257143 0.328571 0
0.275000 0.328571 0
0.292857 0.328571 0
0.310714 0.328571 0
0.328571 0.328571 0
0.346429 0.328571 0
0.364286 0.328571 0
0.382143 0.328571 0
0.400000 0.328571 0
0.417857 0.328571 0
0.435714 0.328571 0
0.453571 0.328571 0
0.471429 0.328571 0
0.489286 0.328571 0
0.507143 0.328571 0
0.525000 0.328571 0
0.542857 0.328571 0
0.560714 0.328571 0
0.578571 0.328571 0
0.596429 0.328571 0
0.614286 0.328571 0
0.632143 0.328571 0
0.650000 0.328571 0
0.667857 0.328571 0
0.685714 0.328571 0
0.703571 0.328571 0
0.721429 0.328571 0
0.739286 0.328571 0
0.757143 0.328571 0
0.775000 0.328571 0
0.792857 0.328571 0
0.810714 0.328571 0
0.828571 0.328571 0
0.846429 0.328571 0
0.864286 0.328571 0
0.882143 0.328571 0
0.150000 0.346429 0
0.167857 0.346429 0
0.185714 0.346429 0
0.203571 0.346429 0
0.221429 0.346429 0
0.239286 0.346429 0
0.257143 0.346429 0
0.275000 0.346429 0
0.292857 0.346429 0
0.310714 0.346429 0
0.328571 0.346429 0
0.346429 0.346429 0
0.364286 0.346429 0
0.382143 0.346429 0
0.400000 0.346429 0
0.417857 0.346429 0
0.435714 0.346429 0
0.453571 0.346429 0
0.471429 0.346429 0
0.489286 0.346429 0
0.507143 0.346429 0
0.525000 0.346429 0
0.542857 0.346429 0
0.560714 0.346429 0
0.578571 0.346429 0
0.596429 0.346429 0
0.614286 0.346429 0
0.632143 0.346429 0
0.650000 0.346429 0
[...]
POINT_DATA 1764 

VECTORS velocity float
0.000000 0.000000 0
0.000035 0.000000 0
0.000050 0.000000 0
0.000052 0.000000 0
0.000047 0.000000 0
0.000041 0.000000 0
0.000034 0.000000 0
0.000027 0.000000 0
0.000020 0.000000 0
0.000013 0.000000 0
0.000007 0.000000 0
0.000002 0.000000 0
-0.000002 0.000000 0
-0.000006 0.000000 0
-0.000009 0.000000 0
-0.000013 0.000000 0
-0.000017 0.000000 0
-0.000021 0.000000 0
-0.000024 0.000000 0
-0.000028 0.000000 0
-0.000032 0.000000 0
-0.000037 0.000000 0
-0.000041 0.000000 0
-0.000047 0.000000 0
-0.000052 0.000000 0
-0.000059 0.000000 0
-0.000067 0.000000 0
-0.000076 0.000000 0
-0.000086 0.000000 0
-0.000098 0.000000 0
-0.000112 0.000000 0
-0.000129 0.000000 0
-0.000152 0.000000 0
-0.000180 0.000000 0
-0.000214 0.000000 0
-0.000248 0.000000 0
-0.000272 0.000000 0
-0.000279 0.000000 0
-0.000252 0.000000 0
-0.000165 0.000000 0
-0.000000 0.000000 0
0.000000 0.000000 0
0.000000 -0.000035 0
0.006400 -0.005691 0
0.008293 -0.000446 0
0.007895 0.001454 0
0.006702 0.001758 0
0.005391 0.001588 0
0.004178 0.001367 0
0.003099 0.001267 0
0.002105 0.001173 0
0.001234 0.000976 0
0.000482 0.000805 0
-0.000172 0.000675 0
-0.000756 0.000594 0
-0.001299 0.000553 0
-0.001824 0.000555 0
-0.002352 0.000566 0
-0.002885 0.000563 0
-0.003425 0.000567 0
-0.003981 0.000583 0
-0.004562 0.000613 0
-0.005180 0.000655 0
-0.005842 0.000703 0
-0.006557 0.000760 0
-0.007339 0.000838 0
-0.008207 0.000942 0
-0.009181 0.001076 0
-0.010287 0.001243 0
-0.011554 0.001444 0
-0.013012 0.001646 0
-0.014695 0.001918 0
-0.016697 0.002353 0
-0.019138 0.002983 0
-0.022172 0.003863 0
-0.025961 0.004989 0
-0.030617 0.006206 0
-0.036031 0.006774 0
-0.041557 0.006339 0
-0.045973 0.003744 0
-0.046038 -0.004867 0
-0.034711 -0.027037 0
-0.000359 -0.000165 0
0.000000 0.021228 0
0.000000 -0.000051 0
0.002239 -0.008293 0
0.003595 -0.001496 0
0.003968 0.001591 0
0.003663 0.002504 0
0.003024 0.002524 0
0.002300 0.002292 0
0.001590 0.002073 0
0.001008 0.001865 0
0.000451 0.001623 0
-0.000085 0.001406 0
-0.000601 0.001238 0
-0.001102 0.001127 0
-0.001589 0.001068 0
-0.002070 0.001054 0
-0.002537 0.001061 0
-0.003016 0.001072 0
-0.003514 0.001096 0
-0.004037 0.001138 0
-0.004588 0.001199 0
-0.005174 0.001279 0
-0.005801 0.001377 0
-0.006484 0.001498 0
-0.007231 0.001650 0
-0.008053 0.001841 0
-0.008962 0.002081 0
-0.009974 0.002373 0
-0.011109 0.002725 0
-0.012396 0.003141 0
-0.013910 0.003685 0
-0.015665 0.004443 0
-0.017710 0.005474 0
-0.020081 0.006823 0
-0.022797 0.008445 0
-0.025814 0.010069 0
-0.028973 0.010941 0
-0.032139 0.009943 0
-0.033842 0.004481 0
-0.031644 -0.011263 0
-0.021386 -0.046038 0
-0.000233 -0.000282 0
0.000000 0.034428 0
0.000000 -0.000058 0
0.000549 -0.009286 0
0.001172 -0.002174 0
0.001563 0.001386 0
0.001619 0.002701 0
0.001409 0.002951 0
0.001058 0.002801 0
0.000659 0.002559 0
0.000288 0.002312 0
-0.000090 0.002068 0
-0.000484 0.001857 0
-0.000893 0.001693 0
-0.001313 0.001582 0
-0.001739 0.001521 0
-0.002167 0.001502 0
-0.002595 0.001512 0
-0.003037 0.001540 0
-0.003500 0.001587 0
-0.003988 0.001656 0
-0.004506 0.001750 0
-0.005057 0.001868 0
-0.005649 0.002013 0
-0.006290 0.002190 0
-0.006987 0.002407 0
-0.007748 0.002673 0
-0.008581 0.002997 0
-0.009497 0.003390 0
-0.010510 0.003866 0
-0.011643 0.004447 0
-0.012934 0.005187 0
-0.014385 0.006153 0
-0.015997 0.007400 0
-0.017750 0.008951 0
-0.019602 0.010722 0
-0.021461 0.012382 0
-0.023170 0.013098 0
-0.024455 0.011207 0
-0.024303 0.003249 0
-0.021178 -0.017322 0
-0.013168 -0.058681 0
-0.000153 -0.000359 0
0.000000 0.042420 0
0.000000 -0.000060 0
-0.000276 -0.009465 0
-0.000092 -0.002510 0
0.000198 0.001144 0
0.000375 0.002659 0
0.000383 0.003085 0
0.000258 0.003042 0
0.000054 0.002843 0
-0.000184 0.002613 0
-0.000455 0.002395 0
-0.000758 0.002209 0
-0.001091 0.002067 0
-0.001447 0.001972 0
-0.001819 0.001922 0
-0.002204 0.001910 0
-0.002599 0.001931 0
-0.003010 0.001977 0
-0.003443 0.002047 0
-0.003900 0.002144 0
-0.004386 0.002268 0
-0.004904 0.002422 0
-0.005459 0.002610 0
-0.006056 0.002836 0
-0.006702 0.003108 0
-0.007400 0.003435 0
-0.008157 0.003829 0
-0.008979 0.004302 0
-0.009874 0.004872 0
-0.010854 0.005566 0
-0.011930 0.006427 0
-0.013093 0.007505 0
-0.014322 0.008840 0
-0.015574 0.010429 0
-0.016781 0.012156 0
-0.017836 0.013637 0
-0.018575 0.013934 0
-0.018707 0.011076 0
-0.017609 0.001204 0
-0.014452 -0.022397 0
-0.008469 -0.067216 0
-0.000103 -0.000412 0
0.000000 0.047467 0
0.000000 -0.000058 0
-0.000748 -0.009194 0
-0.000795 -0.002649 0
-0.000582 0.000919 0
-0.000371 0.002517 0
-0.000263 0.003068 0
-0.000267 0.003130 0
-0.000358 0.003001 0
-0.000509 0.002820 0
-0.000709 0.002643 0
-0.000950 0.002494 0
-0.001226 0.002382 0
-0.001532 0.002310 0
-0.001859 0.002278 0
-0.002206 0.002282 0
-0.002568 0.002318 0
-0.002950 0.002384 0
-0.003352 0.002477 0
-0.003779 0.002600 0
-0.004233 0.002753 0
-0.004715 0.002941 0
-0.005231 0.003165 0
-0.005783 0.003433 0
-0.006374 0.003751 0
-0.007008 0.004128 0
-0.007687 0.004575 0
-0.008414 0.005107 0
-0.009192 0.005741 0
-0.010021 0.006503 0
-0.010898 0.007426 0
-0.011807 0.008544 0
-0.012714 0.009880 0
-0.013570 0.011409 0
-0.014301 0.012985 0
-0.014802 0.014176 0
-0.014922 0.013969 0
-0.014431 0.010241 0
-0.012971 -0.001006 0
-0.010146 -0.026462 0
-0.005694 -0.073133 0
-0.000071 -0.000448 0
0.000000 0.050801 0
0.000000 -0.000053 0
-0.001000 -0.008670 0
-0.001162 -0.002677 0
-0.001005 0.000720 0
-0.000801 0.002340 0
-0.000659 0.002981 0
-0.000607 0.003137 0
-0.000639 0.003085 0
-0.000736 0.002964 0
-0.000887 0.002836 0
-0.001082 0.002727 0
-0.001315 0.002649 0
-0.001579 0.002605 0
-0.001869 0.002595 0
-0.002180 0.002619 0
-0.002511 0.002675 0
-0.002863 0.002761 0
-0.003235 0.002877 0
-0.003630 0.003024 0
-0.004049 0.003204 0
-0.004495 0.003421 0
-0.004969 0.003677 0
-0.005472 0.003979 0
-0.006008 0.004333 0
-0.006576 0.004749 0
-0.007177 0.005235 0
-0.007810 0.005806 0
-0.008473 0.006479 0
-0.009160 0.007273 0
-0.009861 0.008213 0
-0.010552 0.009321 0
-0.011199 0.010603 0
-0.011751 0.012016 0
-0.012139 0.013388 0
-0.012271 0.014257 0
-0.012026 0.013562 0
-0.011247 0.009125 0
-0.009740 -0.003081 0
-0.007340 -0.029674 0
-0.003989 -0.077361 0
-0.000050 -0.000474 0
0.000000 0.053099 0
0.000000 -0.000047 0
-0.001049 -0.008032 0
-0.001277 -0.002644 0
-0.001182 0.000558 0
-0.001015 0.002171 0
-0.000882 0.002875 0
-0.000816 0.003109 0
-0.000821 0.003129 0
-0.000887 0.003068 0
-0.001006 0.002990 0
-0.001168 0.002922 0
-0.001366 0.002879 0
-0.001596 0.002863 0
-0.001852 0.002879 0
-0.002132 0.002924 0
-0.002432 0.003001 0
-0.002752 0.003107 0
-0.003094 0.003245 0
-0.003456 0.003414 0
-0.003840 0.003618 0
-0.004247 0.003860 0
-0.004677 0.004143 0
-0.005132 0.004472 0
-0.005610 0.004854 0
-0.006113 0.005297 0
-0.006637 0.005810 0
-0.007180 0.006403 0
-0.007736 0.007092 0
-0.008295 0.007891 0
-0.008842 0.008817 0
-0.009353 0.009882 0
-0.009795 0.011080 0
-0.010121 0.012350 0
-0.010271 0.013505 0
-0.010172 0.014064 0
-0.009735 0.012944 0
-0.008862 0.007955 0
-0.007456 -0.004913 0
-0.005462 -0.032214 0
-0.002898 -0.080473 0
-0.000037 -0.000492 0
0.000000 0.054745 0
0.000000 -0.000041 0
-0.000922 -0.007394 0
-0.001203 -0.002544 0
-0.001188 0.000459 0
-0.001082 0.002040 0
-0.000983 0.002782 0
-0.000928 0.003076 0
-0.000927 0.003156 0
-0.000978 0.003149 0
-0.001075 0.003116 0
-0.001212 0.003088 0
-0.001383 0.003077 0
-0.001584 0.003091 0
-0.001811 0.003131 0
-0.002061 0.003199 0
-0.002331 0.003296 0
-0.002621 0.003422 0
-0.002931 0.003580 0
-0.003259 0.003770 0
-0.003607 0.003995 0
-0.003975 0.004258 0
-0.004361 0.004562 0
-0.004767 0.004912 0
-0.005190 0.005315 0
-0.005629 0.005775 0
-0.006081 0.006302 0
-0.006539 0.006905 0
-0.006997 0.007593 0
-0.007444 0.008379 0
-0.007862 0.009271 0
-0.008229 0.010274 0
-0.008514 0.011371 0
-0.008677 0.012492 0
-0.008670 0.013439 0
-0.008437 0.013721 0
-0.007918 0.012251 0
-0.007054 0.006845 0
-0.005806 -0.006481 0
-0.004165 -0.034232 0
-0.002172 -0.082823 0
-0.000027 -0.000506 0
0.000000 0.055965 0
0.000000 -0.000036 0
-0.000745 -0.006828 0
-0.001051 -0.002377 0
-0.001105 0.000437 0
-0.001061 0.001965 0
-0.001003 0.002720 0
-0.000969 0.003054 0
-0.000974 0.003180 0
-0.001019 0.003216 0
-0.001103 0.003223 0
-0.001221 0.003230 0
-0.001370 0.003251 0
-0.001546 0.003291 0
-0.001746 0.003355 0
-0.001968 0.003444 0
-0.002210 0.003561 0
-0.002470 0.003707 0
-0.002748 0.003883 0
-0.003044 0.004091 0
-0.003356 0.004334 0
-0.003684 0.004614 0
-0.004027 0.004935 0
-0.004385 0.005301 0
-0.004754 0.005717 0
-0.005133 0.006187 0
-0.005517 0.006720 0
-0.005899 0.007320 0
-0.006271 0.007996 0
-0.006622 0.008756 0
-0.006935 0.009602 0
-0.007188 0.010534 0
-0.007357 0.011528 0
-0.007407 0.012506 0
-0.007302 0.013265 0
-0.007002 0.013311 0
-0.006467 0.011562 0
-0.005666 0.005843 0
-0.004585 -0.007802 0
-0.003239 -0.035847 0
-0.001669 -0.084638 0
-0.000021 -0.000517 0
0.000000 0.056893 0
0.000000 -0.000031 0
-0.000609 -0.006343 0
-0.000901 -0.002185 0
-0.000994 0.000469 0
-0.000996 0.001939 0
-0.000974 0.002691 0
-0.000962 0.003047 0
-0.000976 0.003206 0
-0.001020 0.003277 0
-0.001095 0.003318 0
-0.001199 0.003355 0
-0.001329 0.003402 0
-0.001484 0.003467 0
-0.001660 0.003553 0
-0.001856 0.003662 0
-0.002070 0.003798 0
-0.002301 0.003961 0
-0.002549 0.004153 0
-0.002811 0.004377 0
-0.003088 0.004635 0
-0.003377 0.004929 0
-0.003679 0.005263 0
-0.003991 0.005640 0
-0.004310 0.006063 0
-0.004633 0.006538 0
-0.004955 0.007068 0
-0.005269 0.007659 0
-0.005568 0.008316 0
-0.005838 0.009042 0
-0.006066 0.009837 0
-0.006234 0.010696 0
-0.006319 0.011590 0
-0.006295 0.012438 0
-0.006135 0.013034 0
-0.005810 0.012885 0
-0.005297 0.010915 0
-0.004580 0.004964 0
-0.003660 -0.008907 0
-0.002556 -0.037148 0
-0.001306 -0.086063 0
-0.000016 -0.000525 0
0.000000 0.057615 0
0.000000 -0.000028 0
-0.000515 -0.005927 0
-0.000779 -0.001992 0
-0.000885 0.000531 0
-0.000914 0.001945 0
-0.000917 0.002687 0
-0.000923 0.003056 0
-0.000945 0.003238 0
-0.000990 0.003335 0
-0.001058 0.003402 0
-0.001150 0.003464 0
-0.001264 0.003535 0
-0.001399 0.003622 0
-0.001553 0.003727 0
-0.001725 0.003855 0
-0.001913 0.004007 0
-0.002117 0.004185 0
-0.002334 0.004392 0
-0.002564 0.004630 0
-0.002806 0.004900 0
-0.003059 0.005205 0
-0.003321 0.005548 0
-0.003589 0.005932 0
-0.003861 0.006359 0
-0.004133 0.006832 0
-0.004400 0.007356 0
-0.004656 0.007933 0
-0.004891 0.008565 0
-0.005097 0.009255 0
-0.005259 0.009998 0
-0.005363 0.010786 0
-0.005390 0.011589 0
-0.005321 0.012322 0
-0.005135 0.012780 0
-0.004814 0.012474 0
-0.004342 0.010331 0
-0.003716 0.004206 0
-0.002941 -0.009826 0
-0.002037 -0.038201 0
-0.001034 -0.087194 0
-0.000013 -0.000532 0
0.000000 0.058184 0
0.000000 -0.000024 0
-0.000452 -0.005564 0
-0.000685 -0.001814 0
-0.000787 0.000604 0
-0.000827 0.001971 0
-0.000845 0.002700 0
-0.000862 0.003075 0
-0.000890 0.003273 0
-0.000934 0.003390 0
-0.000997 0.003478 0
-0.001078 0.003561 0
-0.001178 0.003652 0
-0.001295 0.003756 0
-0.001429 0.003879 0
-0.001578 0.004023 0
-0.001741 0.004189 0
-0.001918 0.004381 0
-0.002106 0.004601 0
-0.002306 0.004850 0
-0.002515 0.005130 0
-0.002732 0.005444 0
-0.002956 0.005793 0
-0.003183 0.006180 0
-0.003412 0.006607 0
-0.003638 0.007077 0
-0.003857 0.007591 0
-0.004062 0.008151 0
-0.004246 0.008757 0
-0.004399 0.009410 0
-0.004511 0.010103 0
-0.004568 0.010827 0
-0.004558 0.011548 0
-0.004464 0.012183 0
-0.004273 0.012527 0
-0.003971 0.012093 0
-0.003552 0.009817 0
-0.003015 0.003562 0
-0.002368 -0.010586 0
-0.001630 -0.039054 0
-0.000824 -0.088100 0
-0.000010 -0.000537 0
0.000000 0.058638 0
0.000000 -0.000021 0
-0.000405 -0.005242 0
-0.000605 -0.001657 0
-0.000697 0.000674 0
-0.000739 0.002003 0
-0.000764 0.002722 0
-0.000787 0.003101 0
-0.000818 0.003310 0
-0.000860 0.003442 0
-0.000917 0.003546 0
-0.000988 0.003646 0
-0.001075 0.003752 0
-0.001175 0.003873 0
-0.001290 0.004010 0
-0.001417 0.004167 0
-0.001556 0.004346 0
-0.001707 0.004550 0
-0.001868 0.004780 0
-0.002037 0.005038 0
-0.002215 0.005326 0
-0.002398 0.005646 0
-0.002586 0.006000 0
-0.002777 0.006388 0
-0.002966 0.006814 0
-0.003151 0.007277 0
-0.003328 0.007780 0
-0.003489 0.008322 0
-0.003630 0.008902 0
-0.003742 0.009520 0
-0.003816 0.010168 0
-0.003842 0.010834 0
-0.003809 0.011484 0
-0.003706 0.012037 0
-0.003523 0.012288 0
-0.003251 0.011753 0
-0.002888 0.009375 0
-0.002435 0.003022 0
-0.001901 -0.011210 0
-0.001303 -0.039745 0
-0.000656 -0.088825 0
-0.000008 -0.000541 0
0.000000 0.058999 0
0.000000 -0.000019 0
-0.000355 -0.004959 0
-0.000525 -0.001523 0
-0.000606 0.000738 0
-0.000648 0.002038 0
-0.000675 0.002748 0
-0.000701 0.003129 0
-0.000732 0.003346 0
-0.000772 0.003489 0
-0.000822 0.003606 0
-0.000884 0.003719 0
-0.000957 0.003839 0
-0.001041 0.003971 0
-0.001137 0.004121 0
-0.001244 0.004289 0
-0.001360 0.004479 0
-0.001486 0.004693 0
-0.001620 0.004931 0
-0.001761 0.005197 0
-0.001908 0.005491 0
-0.002060 0.005815 0
-0.002215 0.006171 0
-0.002371 0.006560 0
-0.002524 0.006982 0
-0.002673 0.007438 0
-0.002812 0.007929 0
-0.002938 0.008454 0
-0.003044 0.009010 0
-0.003124 0.009596 0
-0.003170 0.010203 0
-0.003175 0.010820 0
-0.003131 0.011411 0
-0.003029 0.011896 0
-0.002862 0.012072 0
-0.002626 0.011458 0
-0.002319 0.009001 0
-0.001944 0.002575 0
-0.001511 -0.011718 0
-0.001031 -0.040299 0
-0.000518 -0.089402 0
-0.000006 -0.000544 0
0.000000 0.059287 0
0.000000 -0.000016 0
-0.000288 -0.004717 0
-0.000436 -0.001406 0
-0.000511 0.000797 0
-0.000553 0.002073 0
-0.000582 0.002775 0
-0.000608 0.003158 0
-0.000638 0.003380 0
-0.000673 0.003531 0
-0.000716 0.003657 0
-0.000767 0.003780 0
-0.000827 0.003910 0
-0.000896 0.004053 0
-0.000974 0.004212 0
-0.001061 0.004390 0
-0.001155 0.004589 0
-0.001257 0.004810 0
-0.001365 0.005055 0
-0.001479 0.005327 0
-0.001598 0.005626 0
-0.001719 0.005953 0
-0.001843 0.006310 0
-0.001967 0.006698 0
-0.002088 0.007116 0
-0.002204 0.007565 0
-0.002311 0.008045 0
-0.002406 0.008553 0
-0.002483 0.009088 0
-0.002539 0.009646 0
-0.002565 0.010219 0
-0.002558 0.010794 0
-0.002510 0.011338 0
-0.002417 0.011768 0
-0.002272 0.011885 0
-0.002074 0.011210 0
-0.001822 0.008693 0
-0.001521 0.002214 0
-0.001177 -0.012123 0
-0.000801 -0.040737 0
-0.000402 -0.089856 0
-0.000005 -0.000546 0
0.000000 0.059512 0
0.000000 -0.000014 0
-0.000221 -0.004522 0
-0.000348 -0.001300 0
-0.000416 0.000854 0
-0.000457 0.002109 0
-0.000485 0.002803 0
-0.000510 0.003185 0
-0.000537 0.003411 0
-0.000566 0.003567 0
-0.000601 0.003700 0
-0.000642 0.003830 0
-0.000689 0.003968 0
-0.000742 0.004118 0
-0.000803 0.004285 0
-0.000870 0.004470 0
-0.000942 0.004675 0
-0.001021 0.004903 0
-0.001104 0.005153 0
-0.001192 0.005429 0
-0.001283 0.005732 0
-0.001377 0.006061 0
-0.001471 0.006419 0
-0.001565 0.006805 0
-0.001657 0.007219 0
-0.001743 0.007662 0
-0.001823 0.008131 0
-0.001891 0.008626 0
-0.001945 0.009143 0
-0.001982 0.009678 0
-0.001995 0.010223 0
-0.001981 0.010765 0
-0.001936 0.011270 0
-0.001856 0.011658 0
-0.001737 0.011729 0
-0.001578 0.011008 0
-0.001380 0.008448 0
-0.001147 0.001930 0
-0.000884 -0.012438 0
-0.000600 -0.041074 0
-0.000300 -0.090203 0
-0.000004 -0.000548 0
0.000000 0.059684 0
0.000000 -0.000013 0
-0.000166 -0.004370 0
-0.000268 -0.001211 0
-0.000326 0.000906 0
-0.000363 0.002142 0
-0.000388 0.002829 0
-0.000410 0.003209 0
-0.000431 0.003436 0
-0.000454 0.003596 0
-0.000480 0.003733 0
-0.000510 0.003868 0
-0.000544 0.004011 0
-0.000582 0.004167 0
-0.000625 0.004339 0
-0.000672 0.004530 0
-0.000724 0.004740 0
-0.000780 0.004972 0
-0.000839 0.005227 0
-0.000902 0.005506 0
-0.000967 0.005810 0
-0.001033 0.006141 0
-0.001100 0.006499 0
-0.001166 0.006883 0
-0.001230 0.007294 0
-0.001290 0.007731 0
-0.001345 0.008192 0
-0.001391 0.008676 0
-0.001426 0.009179 0
-0.001447 0.009696 0
-0.001452 0.010219 0
-0.001436 0.010736 0
-0.001398 0.011212 0
-0.001334 0.011569 0
-0.001243 0.011607 0
-0.001124 0.010853 0
-0.000978 0.008262 0
-0.000808 0.001718 0
-0.000620 -0.012670 0
-0.000419 -0.041321 0
-0.000210 -0.090456 0
-0.000002 -0.000549 0
0.000000 0.059809 0
0.000000 -0.000012 0
-0.000122 -0.004255 0
-0.000197 -0.001140 0
-0.000243 0.000949 0
-0.000272 0.002171 0
-0.000293 0.002851 0
-0.000309 0.003229 0
-0.000324 0.003455 0
-0.000339 0.003616 0
-0.000356 0.003755 0
-0.000374 0.003893 0
-0.000394 0.004040 0
-0.000417 0.004200 0
-0.000442 0.004375 0
-0.000471 0.004569 0
-0.000502 0.004783 0
-0.000535 0.005018 0
-0.000571 0.005275 0
-0.000609 0.005557 0
-0.000649 0.005863 0
-0.000689 0.006194 0
-0.000729 0.006552 0
-0.000769 0.006935 0
-0.000808 0.007343 0
-0.000843 0.007776 0
-0.000875 0.008231 0
-0.000901 0.008707 0
-0.000920 0.009199 0
-0.000929 0.009703 0
-0.000928 0.010212 0
-0.000914 0.010711 0
-0.000885 0.011168 0
-0.000840 0.011503 0
-0.000777 0.011519 0
-0.000698 0.010743 0
-0.000602 0.008132 0
-0.000494 0.001572 0
-0.000375 -0.012827 0
-0.000252 -0.041484 0
-0.000126 -0.090622 0
-0.000001 -0.000550 0
0.000000 0.059892 0
0.000000 -0.000011 0
-0.000083 -0.004173 0
-0.000134 -0.001089 0
-0.000165 0.000981 0
-0.000186 0.002192 0
-0.000199 0.002866 0
-0.000209 0.003241 0
-0.000217 0.003466 0
-0.000223 0.003627 0
-0.000229 0.003767 0
-0.000235 0.003906 0
-0.000242 0.004054 0
-0.000249 0.004216 0
-0.000257 0.004393 0
-0.000267 0.004589 0
-0.000277 0.004805 0
-0.000289 0.005041 0
-0.000301 0.005300 0
-0.000315 0.005583 0
-0.000330 0.005890 0
-0.000344 0.006222 0
-0.000359 0.006579 0
-0.000374 0.006961 0
-0.000388 0.007368 0
-0.000400 0.007798 0
-0.000411 0.008250 0
-0.000419 0.008721 0
-0.000423 0.009207 0
-0.000423 0.009704 0
-0.000418 0.010204 0
-0.000406 0.010692 0
-0.000388 0.011138 0
-0.000363 0.011461 0
-0.000330 0.011465 0
-0.000290 0.010678 0
-0.000244 0.008058 0
-0.000194 0.001491 0
-0.000142 -0.012912 0
-0.000093 -0.041570 0
-0.000046 -0.090707 0
-0.000000 -0.000550 0
0.000000 0.059934 0
0.000000 -0.000011 0
-0.000047 -0.004121 0
-0.000075 -0.001058 0
-0.000092 0.001001 0
-0.000103 0.002204 0
-0.000109 0.002875 0
-0.000111 0.003246 0
-0.000111 0.003469 0
-0.000108 0.003628 0
-0.000103 0.003767 0
-0.000096 0.003906 0
-0.000089 0.004054 0
-0.000080 0.004215 0
-0.000071 0.004393 0
-0.000061 0.004589 0
-0.000051 0.004805 0
-0.000041 0.005042 0
-0.000031 0.005302 0
-0.000020 0.005585 0
-0.000010 0.005892 0
0.000000 0.006224 0
0.000010 0.006581 0
0.000020 0.006963 0
0.000031 0.007370 0
0.000041 0.007799 0
0.000050 0.008250 0
0.000060 0.008719 0
0.000070 0.009203 0
0.000079 0.009698 0
0.000087 0.010195 0
0.000094 0.010681 0
0.000101 0.011124 0
0.000106 0.011445 0
0.000109 0.011446 0
0.000110 0.010657 0
0.000108 0.008036 0
0.000100 0.001471 0
0.000086 -0.012928 0
0.000064 -0.041581 0
0.000033 -0.090715 0
0.000000 -0.000550 0
0.000000 0.059937 0
0.000000 -0.000010 0
-0.000011 -0.004098 0
-0.000018 -0.001044 0
-0.000022 0.001009 0
-0.000023 0.002208 0
-0.000021 0.002875 0
-0.000016 0.003243 0
-0.000007 0.003463 0
0.000006 0.003619 0
0.000022 0.003756 0
0.000041 0.003892 0
0.000063 0.004038 0
0.000088 0.004198 0
0.000115 0.004374 0
0.000144 0.004569 0
0.000175 0.004784 0
0.000207 0.005021 0
0.000240 0.005280 0
0.000274 0.005562 0
0.000309 0.005869 0
0.000345 0.006201 0
0.000380 0.006559 0
0.000415 0.006941 0
0.000449 0.007348 0
0.000482 0.007778 0
0.000512 0.008230 0
0.000539 0.008702 0
0.000563 0.009189 0
0.000580 0.009687 0
0.000592 0.010188 0
0.000596 0.010678 0
0.000591 0.011126 0
0.000576 0.011453 0
0.000550 0.011461 0
0.000512 0.010680 0
0.000461 0.008068 0
0.000396 0.001512 0
0.000316 -0.012876 0
0.000221 -0.041518 0
0.000113 -0.090644 0
0.000001 -0.000550 0
0.000000 0.059901 0
0.000000 -0.000010 0
0.000024 -0.004103 0
0.000038 -0.001047 0
0.000046 0.001006 0
0.000054 0.002204 0
0.000063 0.002867 0
0.000076 0.003232 0
0.000094 0.003448 0
0.000116 0.003600 0
0.000144 0.003732 0
0.000176 0.003865 0
0.000213 0.004007 0
0.000254 0.004164 0
0.000299 0.004337 0
0.000347 0.004530 0
0.000399 0.004742 0
0.000453 0.004977 0
0.000510 0.005234 0
0.000569 0.005516 0
0.000629 0.005822 0
0.000689 0.006154 0
0.000750 0.006511 0
0.000811 0.006894 0
0.000869 0.007303 0
0.000925 0.007736 0
0.000977 0.008192 0
0.001023 0.008668 0