# vtk DataFile Version 2.0
generated by CFD-lab course output (written by Tobias Neckel) 
ASCII

DATASET STRUCTURED_GRID
DIMENSIONS  42 42 1 
POINTS 1764 float

0.150000 0.150000 0
0.167857 0.150000 0
0.185714 0.150000 0
0.203571 0.150000 0
0.221429 0.150000 0
0.239286 0.150000 0
0.257143 0.150000 0
0.275000 0.150000 0
0.292857 0.150000 0
0.310714 0.150000 0
0.328571 0.150000 0
0.346429 0.150000 0
0.364286 0.150000 0
0.382143 0.150000 0
0.400000 0.150000 0
0.417857 0.150000 0
0.435714 0.150000 0
0.453571 0.150000 0
0.471429 0.150000 0
0.489286 0.150000 0
0.507143 0.150000 0
0.525000 0.150000 0
0.542857 0.150000 0
0.560714 0.150000 0
0.578571 0.150000 0
0.596429 0.150000 0
0.614286 0.150000 0
0.632143 0.150000 0
0.650000 0.150000 0
0.667857 0.150000 0
0.685714 0.150000 0
0.703571 0.150000 0
0.721429 0.150000 0
0.739286 0.150000 0
0.757143 0.150000 0
0.775000 0.150000 0
0.792857 0.150000 0
0.810714 0.150000 0
0.828571 0.150000 0
0.846429 0.150000 0
0.864286 0.150000 0
0.882143 0.150000 0
0.150000 0.167857 0
0.167857 0.167857 0
0.185714 0.167857 0
0.203571 0.167857 0
0.221429 0.167857 0
0.239286 0.167857 0
0.257143 0.167857 0
0.275000 0.167857 0
0.292857 0.167857 0
0.310714 0.167857 0
0.328571 0.167857 0
0.346429 0.167857 0
0.364286 0.167857 0
0.382143 0.167857 0
0.400000 0.167857 0
0.417857 0.167857 0
0.435714 0.167857 0
0.453571 0.167857 0
0.471429 0.167857 0
0.489286 0.167857 0
0.507143 0.167857 0
0.525000 0.167857 0
0.542857 0.167857 0
0.560714 0.167857 0
0.578571 0.167857 0
0.596429 0.167857 0
0.614286 0.167857 0
0.632143 0.167857 0
0.650000 0.167857 0
0.667857 0.167857 0
0.685714 0.167857 0
0.703571 0.167857 0
0.721429 0.167857 0
0.739286 0.167857 0
0.757143 0.167857 0
0.775000 0.167857 0
0.792857 0.167857 0
0.810714 0.167857 0
0.828571 0.167857 0
0.846429 0.167857 0
0.864286 0.167857 0
0.882143 0.167857 0
0.150000 0.185714 0
0.167857 0.185714 0
0.185714 0.185714 0
0.203571 0.185714 0
0.221429 0.185714 0
0.239286 0.185714 0
0.257143 0.185714 0
0.275000 0.185714 0
0.292857 0.185714 0
0.310714 0.185714 0
0.328571 0.185714 0
0.346429 0.185714 0
0.364286 0.185714 0
0.382143 0.185714 0
0.400000 0.185714 0
0.417857 0.185714 0
0.435714 0.185714 0
0.453571 0.185714 0
0.471429 0.185714 0
0.489286 0.185714 0
0.507143 0.185714 0
0.525000 0.185714 0
0.542857 0.185714 0
0.560714 0.185714 0
0.578571 0.185714 0
0.596429 0.185714 0
0.614286 0.185714 0
0.632143 0.185714 0
0.650000 0.185714 0
0.667857 0.185714 0
0.685714 0.185714 0
0.703571 0.185714 0
0.721429 0.185714 0
0.739286 0.185714 0
0.757143 0.185714 0
0.775000 0.185714 0
0.792857 0.185714 0
0.810714 0.185714 0
0.828571 0.185714 0
0.846429 0.185714 0
0.864286 0.185714 0
0.882143 0.185714 0
0.150000 0.203571 0
0.167857 0.203571 0
0.185714 0.203571 0
0.203571 0.203571 0
0.221429 0.203571 0
0.239286 0.203571 0
0.257143 0.203571 0
0.275000 0.203571 0
0.292857 0.203571 0
0.310714 0.203571 0
0.328571 0.203571 0
0.346429 0.203571 0
0.364286 0.203571 0
0.382143 0.203571 0
0.400000 0.203571 0
0.417857 0.203571 0
0.435714 0.203571 0
0.453571 0.203571 0
0.471429 0.203571 0
0.489286 0.203571 0
0.507143 0.203571 0
0.525000 0.203571 0
0.542857 0.203571 0
0.560714 0.203571 0
0.578571 0.203571 0
0.596429 0.203571 0
0.614286 0.203571 0
0.632143 0.203571 0
0.650000 0.203571 0
0.667857 0.203571 0
0.685714 0.203571 0
0.703571 0.203571 0
0.721429 0.203571 0
0.739286 0.203571 0
0.757143 0.203571 0
0.775000 0.203571 0
0.792857 0.203571 0
0.810714 0.203571 0
0.828571 0.203571 0
0.846429 0.203571 0
0.864286 0.203571 0
0.882143 0.203571 0
0.150000 0.221429 0
0.167857 0.221429 0
0.185714 0.221429 0
0.203571 0.221429 0
0.221429 0.221429 0
0.239286 0.221429 0
0.257143 0.221429 0
0.275000 0.221429 0
0.292857 0.221429 0
0.310714 0.221429 0
0.328571 0.221429 0
0.346429 0.221429 0
0.364286 0.221429 0
0.382143 0.221429 0
0.400000 0.221429 0
0.417857 0.221429 0
0.435714 0.221429 0
0.453571 0.221429 0
0.471429 0.221429 0
0.489286 0.221429 0
0.507143 0.221429 0
0.525000 0.221429 0
0.542857 0.221429 0
0.560714 0.221429 0
0.578571 0.221429 0
0.596429 0.221429 0
0.614286 0.221429 0
0.632143 0.221429 0
0.650000 0.221429 0
0.667857 0.221429 0
0.685714 0.221429 0
0.703571 0.221429 0
0.721429 0.221429 0
0.739286 0.221429 0
0.757143 0.221429 0
0.775000 0.221429 0
0.792857 0.221429 0
0.810714 0.221429 0
0.828571 0.221429 0
0.846429 0.221429 0
0.864286 0.221429 0
0.882143 0.221429 0
0.150000 0.239286 0
0.167857 0.239286 0
0.185714 0.239286 0
0.203571 0.239286 0
0.221429 0.239286 0
0.239286 0.239286 0
0.257143 0.239286 0
0.275000 0.239286 0
0.292857 0.239286 0
0.310714 0.239286 0
0.328571 0.239286 0
0.346429 0.239286 0
0.364286 0.239286 0
0.382143 0.239286 0
0.400000 0.239286 0
0.417857 0.239286 0
0.435714 0.239286 0
0.453571 0.239286 0
0.471429 0.239286 0
0.489286 0.239286 0
0.507143 0.239286 0
0.525000 0.239286 0
0.542857 0.239286 0
0.560714 0.239286 0
0.578571 0.239286 0
0.596429 0.239286 0
0.614286 0.239286 0
0.632143 0.239286 0
0.650000 0.239286 0
0.667857 0.239286 0
0.685714 0.239286 0
0.703571 0.239286 0
0.721429 0.239286 0
0.739286 0.239286 0
0.757143 0.239286 0
0.775000 0.239286 0
0.792857 0.239286 0
0.810714 0.239286 0
0.828571 0.239286 0
0.846429 0.239286 0
0.864286 0.239286 0
0.882143 0.239286 0
0.150000 0.257143 0
0.167857 0.257143 0
0.185714 0.257143 0
0.203571 0.257143 0
0.221429 0.257143 0
0.239286 0.257143 0
0.257143 0.257143 0
0.275000 0.257143 0
0.292857 0.257143 0
0.310714 0.257143 0
0.328571 0.257143 0
0.346429 0.257143 0
0.364286 0.257143 0
0.382143 0.257143 0
0.400000 0.257143 0
0.417857 0.257143 0
0.435714 0.257143 0
0.453571 0.257143 0
0.471429 0.257143 0
0.489286 0.257143 0
0.507143 0.257143 0
0.525000 0.257143 0
0.542857 0.257143 0
0.560714 0.257143 0
0.578571 0.257143 0
0.596429 0.257143 0
0.614286 0.257143 0
0.632143 0.257143 0
0.650000 0.257143 0
0.667857 0.257143 0
0.685714 0.257143 0
0.703571 0.257143 0
0.721429 0.257143 0
0.739286 0.257143 0
0.757143 0.257143 0
0.775000 0.257143 0
0.792857 0.257143 0
0.810714 0.257143 0
0.828571 0.257143 0
0.846429 0.257143 0
0.864286 0.257143 0
0.882143 0.257143 0
0.150000 0.275000 0
0.167857 0.275000 0
0.185714 0.275000 0
0.203571 0.275000 0
0.221429 0.275000 0
0.239286 0.275000 0
0.257143 0.275000 0
0.275000 0.275000 0
0.292857 0.275000 0
0.310714 0.275000 0
0.328571 0.275000 0
0.346429 0.275000 0
0.364286 0.275000 0
0.382143 0.275000 0
0.400000 0.275000 0
0.417857 0.275000 0
0.435714 0.275000 0
0.453571 0.275000 0
0.471429 0.275000 0
0.489286 0.275000 0
0.507143 0.275000 0
0.525000 0.275000 0
0.542857 0.275000 0
0.560714 0.275000 0
0.578571 0.275000 0
0.596429 0.275000 0
0.614286 0.275000 0
0.632143 0.275000 0
0.650000 0.275000 0
0.667857 0.275000 0
0.685714 0.275000 0
0.703571 0.275000 0
0.721429 0.275000 0
0.739286 0.275000 0
0.757143 0.275000 0
0.775000 0.275000 0
0.792857 0.275000 0
0.810714 0.275000 0
0.828571 0.275000 0
0.846429 0.275000 0
0.864286 0.275000 0
0.882143 0.275000 0
0.150000 0.292857 0
0.167857 0.292857 0
0.185714 0.292857 0
0.203571 0.292857 0
0.221429 0.292857 0
0.239286 0.292857 0
0.257143 0.292857 0
0.275000 0.292857 0
0.292857 0.292857 0
0.310714 0.292857 0
0.328571 0.292857 0
0.346429 0.292857 0
0.364286 0.292857 0
0.382143 0.292857 0
0.400000 0.292857 0
0.417857 0.292857 0
0.435714 0.292857 0
0.453571 0.292857 0
0.471429 0.292857 0
0.489286 0.292857 0
0.507143 0.292857 0
0.525000 0.292857 0
0.542857 0.292857 0
0.560714 0.292857 0
0.578571 0.292857 0
0.596429 0.292857 0
0.614286 0.292857 0
0.632143 0.292857 0
0.650000 0.292857 0
0.667857 0.292857 0
0.685714 0.292857 0
0.703571 0.292857 0
0.721429 0.292857 0
0.739286 0.292857 0
0.757143 0.292857 0
0.775000 0.292857 0
0.792857 0.292857 0
0.810714 0.292857 0
0.828571 0.292857 0
0.846429 0.292857 0
0.864286 0.292857 0
0.882143 0.292857 0
0.150000 0.310714 0
0.167857 0.310714 0
0.185714 0.310714 0
0.203571 0.310714 0
0.221429 0.310714 0
0.239286 0.310714 0
0.257143 0.310714 0
0.275000 0.310714 0
0.292857 0.310714 0
0.310714 0.310714 0
0.328571 0.310714 0
0.346429 0.310714 0
0.364286 0.310714 0
0.382143 0.310714 0
0.400000 0.310714 0
0.417857 0.310714 0
0.435714 0.310714 0
0.453571 0.310714 0
0.471429 0.310714 0
0.489286 0.310714 0
0.507143 0.310714 0
0.525000 0.310714 0
0.542857 0.310714 0
0.560714 0.310714 0
0.578571 0.310714 0
0.596429 0.310714 0
0.614286 0.310714 0
0.632143 0.310714 0
0.650000 0.310714 0
0.667857 0.310714 0
0.685714 0.310714 0
0.703571 0.310714 0
0.721429 0.310714 0
0.739286 0.310714 0
0.757143 0.310714 0
0.775000 0.310714 0
0.792857 0.310714 0
0.810714 0.310714 0
0.828571 0.310714 0
0.846429 0.310714 0
0.864286 0.310714 0
0.882143 0.310714 0
0.150000 0.328571 0
0.167857 0.328571 0
0.185714 0.328571 0
0.203571 0.328571 0
0.221429 0.328571 0
0.239286 0.328571 0
0.257143 0.328571 0
0.275000 0.328571 0
0.292857 0.328571 0
0.310714 0.328571 0
0.328571 0.328571 0
0.346429 0.328571 0
0.364286 0.328571 0
0.382143 0.328571 0
0.400000 0.328571 0
0.417857 0.328571 0
0.435714 0.328571 0
0.453571 0.328571 0
0.471429 0.328571 0
0.489286 0.328571 0
0.507143 0.328571 0
0.525000 0.328571 0
0.542857 0.328571 0
0.560714 0.328571 0
0.578571 0.328571 0
0.596429 0.328571 0
0.614286 0.328571 0
0.632143 0.328571 0
0.650000 0.328571 0
0.667857 0.328571 0
0.685714 0.328571 0
0.703571 0.328571 0
0.721429 0.328571 0
0.739286 0.328571 0
0.757143 0.328571 0
0.775000 0.328571 0
0.792857 0.328571 0
0.810714 0.328571 0
0.828571 0.328571 0
0.846429 0.328571 0
0.864286 0.328571 0
0.882143 0.328571 0
0.150000 0.346429 0
0.167857 0.346429 0
0.185714 0.346429 0
0.203571 0.346429 0
0.221429 0.346429 0
0.239286 0.346429 0
0.257143 0.346429 0
0.275000 0.346429 0
0.292857 0.346429 0
0.310714 0.346429 0
0.328571 0.346429 0
0.346429 0.346429 0
0.364286 0.346429 0
0.382143 0.346429 0
0.400000 0.346429 0
0.417857 0.346429 0
0.435714 0.346429 0
0.453571 0.346429 0
0.471429 0.346429 0
0.489286 0.346429 0
0.507143 0.346429 0
0.525000 0.346429 0
0.542857 0.346429 0
0.560714 0.346429 0
0.578571 0.346429 0
0.596429 0.346429 0
0.614286 0.346429 0
0.632143 0.346429 0
0.650000 0.346429 0
[...]
POINT_DATA 1764 

VECTORS velocity float
0.000000 0.000000 0
-0.000002 0.000000 0
-0.000003 0.000000 0
0.000001 0.000000 0
-0.000001 0.000000 0
-0.000009 0.000000 0
0.000014 0.000000 0
0.000031 0.000000 0
0.000035 0.000000 0
0.000038 0.000000 0
0.000039 0.000000 0
0.000038 0.000000 0
0.000036 0.000000 0
0.000034 0.000000 0
0.000031 0.000000 0
0.000029 0.000000 0
0.000026 0.000000 0
0.000024 0.000000 0
0.000023 0.000000 0
0.000022 0.000000 0
0.000021 0.000000 0
0.000020 0.000000 0
0.000020 0.000000 0
0.000020 0.000000 0
0.000021 0.000000 0
0.000021 0.000000 0
0.000021 0.000000 0
0.000022 0.000000 0
0.000023 0.000000 0
0.000023 0.000000 0
0.000024 0.000000 0
0.000025 0.000000 0
0.000026 0.000000 0
0.000027 0.000000 0
0.000028 0.000000 0
0.000028 0.000000 0
0.000027 0.000000 0
0.000025 0.000000 0
0.000020 0.000000 0
0.000012 0.000000 0
0.000000 0.000000 0
0.000000 0.000000 0
0.000000 0.000002 0
0.059300 -0.054210 0
0.090472 -0.021599 0
0.098898 0.005471 0
0.074761 0.005662 0
0.035837 0.003526 0
-0.012758 0.035750 0
-0.075396 0.066481 0
-0.143910 0.072301 0
-0.210410 0.068535 0
-0.271743 0.063023 0
-0.326142 0.056055 0
-0.373085 0.048751 0
-0.412803 0.041768 0
-0.445984 0.035497 0
-0.473511 0.030104 0
-0.496293 0.025585 0
-0.515154 0.021842 0
-0.530781 0.018739 0
-0.543714 0.016130 0
-0.554350 0.013881 0
-0.562960 0.011872 0
-0.569707 0.010003 0
-0.574656 0.008159 0
-0.577767 0.006222 0
-0.578912 0.004086 0
-0.577858 0.001624 0
-0.574404 -0.001261 0
-0.568157 -0.004678 0
-0.558602 -0.008776 0
-0.545033 -0.013786 0
-0.526511 -0.020024 0
-0.501810 -0.027836 0
-0.469377 -0.037613 0
-0.427313 -0.049687 0
-0.373476 -0.064101 0
-0.305881 -0.079959 0
-0.223875 -0.093984 0
-0.131068 -0.096182 0
-0.042503 -0.054061 0
-0.000008 0.000012 0
0.000000 0.007851 0
0.000000 0.000002 0
0.028496 -0.090472 0
0.036128 -0.039599 0
0.012090 0.015710 0
-0.028155 0.063061 0
-0.100302 0.087520 0
-0.175553 0.111233 0
-0.236272 0.131151 0
-0.291382 0.135014 0
-0.343325 0.127833 0
-0.389096 0.115732 0
-0.428017 0.101342 0
-0.460172 0.086661 0
-0.486184 0.072899 0
-0.506911 0.060707 0
-0.523250 0.050310 0
-0.536018 0.041643 0
-0.545901 0.034488 0
-0.553439 0.028560 0
-0.559030 0.023568 0
-0.562950 0.019246 0
-0.565369 0.015358 0
-0.566369 0.011696 0
-0.565952 0.008060 0
-0.564073 0.004256 0
-0.560628 0.000091 0
-0.555548 -0.004509 0
-0.548626 -0.009701 0
-0.539565 -0.015802 0
-0.527960 -0.023124 0
-0.513248 -0.032091 0
-0.494733 -0.043224 0
-0.471516 -0.057134 0
-0.442467 -0.074497 0
-0.406196 -0.095901 0
-0.361066 -0.121432 0
-0.305383 -0.149601 0
-0.237928 -0.174813 0
-0.159574 -0.181371 0
-0.076196 -0.131068 0
-0.000187 0.000021 0
0.000000 0.042524 0
0.000000 -0.000002 0
-0.018486 -0.090338 0
-0.051432 -0.005193 0
-0.102507 0.069755 0
-0.151354 0.118054 0
-0.206302 0.150924 0
-0.262764 0.171720 0
-0.309667 0.182310 0
-0.348074 0.179355 0
-0.380318 0.166250 0
-0.406348 0.147715 0
-0.426706 0.127130 0
-0.442204 0.106918 0
-0.453793 0.088507 0
-0.462382 0.072564 0
-0.468732 0.059211 0
-0.473420 0.048236 0
-0.476855 0.039263 0
-0.479306 0.031868 0
-0.480927 0.025641 0
-0.481793 0.020220 0
-0.481913 0.015291 0
-0.481250 0.010586 0
-0.479733 0.005863 0
-0.477282 0.000898 0
-0.473812 -0.004439 0
-0.469241 -0.010377 0
-0.463265 -0.017244 0
-0.455641 -0.025345 0
-0.446045 -0.035093 0
-0.434086 -0.047013 0
-0.419292 -0.061755 0
-0.401079 -0.080101 0
-0.378724 -0.102933 0
-0.351312 -0.131088 0
-0.317655 -0.164914 0
-0.276150 -0.203097 0
-0.224631 -0.239792 0
-0.160530 -0.257914 0
-0.082414 -0.213635 0
-0.000318 0.000027 0
0.000000 0.084061 0
0.000000 -0.000010 0
-0.057305 -0.039040 0
-0.116966 0.044422 0
-0.163953 0.115633 0
-0.211186 0.166855 0
-0.255262 0.198930 0
-0.295278 0.214598 0
-0.326460 0.216461 0
-0.349024 0.205665 0
-0.364815 0.186107 0
-0.375161 0.162120 0
-0.381466 0.137198 0
-0.385014 0.113748 0
-0.386888 0.093078 0
-0.387885 0.075646 0
-0.388521 0.061347 0
-0.389072 0.049767 0
-0.389644 0.040374 0
-0.390229 0.032632 0
-0.390753 0.026056 0
-0.391102 0.020232 0
-0.391143 0.014814 0
-0.390734 0.009516 0
-0.389735 0.004092 0
-0.388019 -0.001664 0
-0.385479 -0.007950 0
-0.381880 -0.015056 0
-0.377071 -0.023301 0
-0.370860 -0.033022 0
-0.363033 -0.044679 0
-0.353338 -0.058844 0
-0.341485 -0.076230 0
-0.327141 -0.097702 0
-0.309917 -0.124264 0
-0.289322 -0.156970 0
-0.264629 -0.196595 0
-0.234529 -0.242626 0
-0.196468 -0.290433 0
-0.145900 -0.323588 0
-0.077524 -0.291598 0
-0.000392 0.000030 0
0.000000 0.124948 0
0.000000 -0.000018 0
-0.070716 0.026628 0
-0.133148 0.101455 0
-0.184459 0.163975 0
-0.227965 0.209363 0
-0.263389 0.235016 0
-0.290893 0.242918 0
-0.309248 0.236056 0
-0.319442 0.217709 0
-0.323451 0.192386 0
-0.323236 0.164366 0
-0.320628 0.136984 0
-0.317093 0.112340 0
-0.313659 0.091378 0
-0.310917 0.074197 0
-0.309107 0.060398 0
-0.308221 0.049358 0
-0.308111 0.040420 0
-0.308557 0.032977 0
-0.309316 0.026514 0
-0.310145 0.020610 0
-0.310817 0.014923 0
-0.311121 0.009178 0
-0.310874 0.003148 0
-0.309914 -0.003358 0
-0.308097 -0.010578 0
-0.305255 -0.018786 0
-0.301298 -0.028263 0
-0.296102 -0.039382 0
-0.289536 -0.052616 0
-0.281446 -0.068561 0
-0.271656 -0.087952 0
-0.259979 -0.111670 0
-0.246220 -0.140753 0
-0.230179 -0.176376 0
-0.211543 -0.219707 0
-0.189524 -0.271257 0
-0.161950 -0.328421 0
-0.123791 -0.376858 0
-0.067530 -0.359534 0
-0.000413 0.000031 0
0.000000 0.161590 0
0.000000 -0.000020 0
-0.069288 0.094108 0
-0.129738 0.158165 0
-0.179424 0.210450 0
-0.218113 0.245785 0
-0.246248 0.261859 0
-0.264603 0.260457 0
-0.273755 0.245010 0
-0.275448 0.219868 0
-0.271940 0.189900 0
-0.265484 0.159298 0
-0.258043 0.131055 0
-0.251057 0.106778 0
-0.245389 0.086902 0
-0.241395 0.071094 0
-0.239065 0.058651 0
-0.238173 0.048771 0
-0.238393 0.040710 0
-0.239374 0.033837 0
-0.240773 0.027644 0
-0.242278 0.021733 0
-0.243610 0.015790 0
-0.244532 0.009573 0
-0.244840 0.002885 0
-0.244373 -0.004441 0
-0.242994 -0.012609 0
-0.240641 -0.021855 0
-0.237265 -0.032454 0
-0.232818 -0.044784 0
-0.227241 -0.059335 0
-0.220447 -0.076723 0
-0.212322 -0.097698 0
-0.202730 -0.123138 0
-0.191538 -0.154063 0
-0.178655 -0.191646 0
-0.164017 -0.237250 0
-0.147359 -0.292219 0
-0.127371 -0.356166 0
-0.099699 -0.418008 0
-0.055776 -0.415388 0
-0.000395 0.000032 0
0.000000 0.192479 0
0.000000 -0.000021 0
-0.060469 0.156365 0
-0.116008 0.211591 0
-0.160662 0.252350 0
-0.193746 0.276188 0
-0.215659 0.281507 0
-0.227434 0.270424 0
-0.230462 0.246900 0
-0.226895 0.215894 0
-0.219153 0.182422 0
-0.209560 0.150470 0
-0.200037 0.122557 0
-0.191887 0.099686 0
-0.185773 0.081717 0
-0.181833 0.067873 0
-0.179866 0.057175 0
-0.179503 0.048686 0
-0.180319 0.041620 0
-0.181897 0.035356 0
-0.183853 0.029418 0
-0.185847 0.023447 0
-0.187587 0.017177 0
-0.188829 0.010408 0
-0.189381 0.002989 0
-0.189099 -0.005205 0
-0.187892 -0.014310 0
-0.185770 -0.024514 0
-0.182754 -0.036086 0
-0.178874 -0.049406 0
-0.174142 -0.064987 0
-0.168530 -0.083480 0
-0.161961 -0.105669 0
-0.154306 -0.132454 0
-0.145417 -0.164828 0
-0.135186 -0.203897 0
-0.123614 -0.251003 0
-0.110755 -0.307903 0
-0.096181 -0.376081 0
-0.076864 -0.448454 0
-0.044206 -0.459234 0
-0.000353 0.000031 0
0.000000 0.217365 0
0.000000 -0.000021 0
-0.050111 0.210115 0
-0.097789 0.258359 0
-0.135757 0.288189 0
-0.162967 0.300782 0
-0.179606 0.295546 0
-0.186713 0.275259 0
-0.185928 0.244471 0
-0.179483 0.208559 0
-0.169774 0.172565 0
-0.159045 0.140183 0
-0.149085 0.113382 0
-0.141028 0.092514 0
-0.135350 0.076847 0
-0.132016 0.065187 0
-0.130699 0.056321 0
-0.130950 0.049224 0
-0.132303 0.043104 0
-0.134320 0.037370 0
-0.136611 0.031594 0
-0.138836 0.025467 0
-0.140706 0.018772 0
-0.141986 0.011366 0
-0.142501 0.003154 0
-0.142142 -0.005930 0
-0.140870 -0.015937 0
-0.138761 -0.026993 0
-0.135913 -0.039350 0
-0.132438 -0.053397 0
-0.128423 -0.069679 0
-0.123894 -0.088904 0
-0.118802 -0.111921 0
-0.113010 -0.139682 0
-0.106332 -0.173183 0
-0.098607 -0.213450 0
-0.089801 -0.261682 0
-0.080079 -0.319651 0
-0.069610 -0.390057 0
-0.056791 -0.469983 0
-0.033798 -0.492253 0
-0.000302 0.000030 0
0.000000 0.236684 0
0.000000 -0.000020 0
-0.039357 0.254154 0
-0.078296 0.297237 0
-0.109150 0.317528 0
-0.130711 0.320037 0
-0.142977 0.305253 0
-0.146851 0.276746 0
-0.143902 0.239670 0
-0.136210 0.199740 0
-0.125987 0.161984 0
-0.115299 0.129781 0
-0.105773 0.104540 0
-0.098392 0.085951 0
-0.093483 0.072705 0
-0.090890 0.063223 0
-0.090210 0.056109 0
-0.090965 0.050290 0
-0.092684 0.044990 0
-0.094938 0.039664 0
-0.097349 0.033934 0
-0.099588 0.027542 0
-0.101378 0.020327 0
-0.102497 0.012203 0
-0.102789 0.003145 0
-0.102177 -0.006836 0
-0.100684 -0.017691 0
-0.098445 -0.029471 0
-0.095633 -0.042409 0
-0.092440 -0.056896 0
-0.089023 -0.073531 0
-0.085464 -0.093101 0
-0.081729 -0.116554 0
-0.077673 -0.144923 0
-0.073069 -0.179231 0
-0.067709 -0.220428 0
-0.061521 -0.269530 0
-0.054670 -0.328095 0
-0.047605 -0.399369 0
-0.039873 -0.484266 0
-0.024899 -0.516025 0
-0.000250 0.000029 0
0.000000 0.251161 0
0.000000 -0.000019 0
-0.028892 0.288411 0
-0.059229 0.328152 0
-0.083240 0.340603 0
-0.099684 0.334609 0
-0.108427 0.311686 0
-0.110163 0.276185 0
-0.106218 0.233830 0
-0.098363 0.190643 0
-0.088513 0.151655 0
-0.078500 0.119969 0
-0.069790 0.096475 0
-0.063256 0.080224 0
-0.059123 0.069345 0
-0.057161 0.061914 0
-0.056941 0.056396 0
-0.057988 0.051697 0
-0.059854 0.047076 0
-0.062139 0.042035 0
-0.064485 0.036244 0
-0.066584 0.029496 0
-0.068171 0.021681 0
-0.069035 0.012777 0
-0.069034 0.002834 0
-0.068118 -0.008034 0
-0.066371 -0.019669 0
-0.063968 -0.032043 0
-0.061149 -0.045355 0
-0.058174 -0.060007 0
-0.055269 -0.076655 0
-0.052563 -0.096198 0
-0.050039 -0.119712 0
-0.047537 -0.148342 0
-0.044800 -0.183148 0
-0.041589 -0.224999 0
-0.037820 -0.274720 0
-0.033647 -0.333567 0
-0.029584 -0.404854 0
-0.025920 -0.492689 0
-0.017502 -0.532125 0
-0.000204 0.000028 0
0.000000 0.261580 0
0.000000 -0.000017 0
-0.019079 0.313383 0
-0.041381 0.351586 0
-0.059140 0.357983 0
-0.071123 0.345224 0
-0.077111 0.315732 0
-0.077558 0.274537 0
-0.073455 0.227869 0
-0.066166 0.182035 0
-0.057235 0.142122 0
-0.048215 0.111058 0
-0.040424 0.089296 0
-0.034669 0.075283 0
-0.031129 0.066610 0
-0.029549 0.061041 0
-0.029512 0.056936 0
-0.030581 0.053204 0
-0.032351 0.049141 0
-0.034459 0.044296 0
-0.036584 0.038380 0
-0.038439 0.031227 0
-0.039781 0.022777 0
-0.040408 0.013066 0
-0.040176 0.002228 0
-0.039031 -0.009498 0
-0.037118 -0.021841 0
-0.034621 -0.034694 0
-0.031835 -0.048203 0
-0.029081 -0.062776 0
-0.026639 -0.079142 0
-0.024677 -0.098332 0
-0.023196 -0.121579 0
-0.022029 -0.150162 0
-0.020902 -0.185178 0
-0.019567 -0.227408 0
-0.017951 -0.277473 0
-0.016219 -0.336331 0
-0.014856 -0.407096 0
-0.014520 -0.496348 0
-0.011438 -0.541945 0
-0.000166 0.000027 0
0.000000 0.268662 0
0.000000 -0.000015 0
-0.010039 0.329793 0
-0.025024 0.368213 0
-0.037187 0.370345 0
-0.045343 0.352580 0
-0.049221 0.318121 0
-0.049033 0.272529 0
-0.045394 0.222438 0
-0.039207 0.174423 0
-0.031582 0.133703 0
-0.023745 0.103158 0
-0.016830 0.082929 0
-0.011666 0.070929 0
-0.008455 0.064224 0
-0.006943 0.060297 0
-0.006766 0.057429 0
-0.007556 0.054537 0
-0.008971 0.050954 0
-0.010697 0.046268 0
-0.012452 0.040225 0
-0.013987 0.032694 0
-0.015085 0.023650 0
-0.015562 0.013172 0
-0.015268 0.001458 0
-0.014067 -0.011093 0
-0.012136 -0.024079 0
-0.009685 -0.037326 0
-0.007047 -0.050895 0
-0.004581 -0.065203 0
-0.002600 -0.081059 0
-0.001298 -0.099641 0
-0.000697 -0.122360 0
-0.000633 -0.150637 0
-0.000836 -0.185610 0
-0.001076 -0.227949 0
-0.001314 -0.278068 0
-0.001744 -0.336662 0
-0.002796 -0.406554 0
-0.005219 -0.496107 0
-0.006480 -0.546645 0
-0.000136 0.000026 0
0.000000 0.273017 0
0.000000 -0.000013 0
-0.001911 0.338407 0
-0.010073 0.378734 0
-0.017235 0.378302 0
-0.022115 0.357258 0
-0.024384 0.319423 0
-0.024060 0.270710 0
-0.021379 0.218043 0
-0.016680 0.168223 0
-0.010632 0.126661 0
-0.004127 0.096306 0
0.001816 0.077216 0
0.006477 0.066909 0
0.009651 0.061887 0
0.011456 0.059351 0
0.012130 0.057550 0
0.011941 0.055409 0
0.011160 0.052281 0
0.010042 0.047777 0
0.008821 0.041670 0
0.007705 0.033860 0
0.006874 0.024353 0
0.006496 0.013250 0
0.006749 0.000733 0
0.007817 -0.012631 0
0.009563 -0.026223 0
0.011745 -0.039783 0
0.014041 -0.053308 0
0.016089 -0.067223 0
0.017555 -0.082425 0
0.018218 -0.100234 0
0.018043 -0.122244 0
0.017190 -0.150024 0
0.015912 -0.184736 0
0.014389 -0.226929 0
0.012595 -0.276805 0
0.010293 -0.334849 0
0.007092 -0.403621 0
0.002382 -0.492664 0
-0.002376 -0.547165 0
-0.000114 0.000026 0
0.000000 0.275140 0
0.000000 -0.000011 0
0.005276 0.339865 0
0.003628 0.383537 0
0.001060 0.382387 0
-0.000875 0.359729 0
-0.001846 0.320067 0
-0.001697 0.269523 0
-0.000297 0.215058 0
0.002471 0.163676 0
0.006498 0.121150 0
0.011312 0.090711 0
0.016127 0.072325 0
0.020399 0.063094 0
0.023824 0.059245 0
0.026259 0.057818 0
0.027757 0.056944 0
0.028472 0.055507 0
0.028597 0.052854 0
0.028328 0.048606 0
0.027846 0.042562 0
0.027312 0.034641 0
0.026868 0.024858 0
0.026672 0.013297 0
0.026924 0.000137 0
0.027718 -0.013907 0
0.029058 -0.028007 0
0.030749 -0.041803 0
0.032496 -0.055239 0
0.033941 -0.068717 0
0.034737 -0.083189 0
0.034665 -0.100129 0
0.033710 -0.121332 0
0.032045 -0.148506 0
0.029893 -0.182809 0
0.027349 -0.224632 0
0.024283 -0.273972 0
0.020392 -0.331159 0
0.015300 -0.398643 0
0.008534 -0.486639 0
0.001069 -0.544263 0
-0.000096 0.000025 0
0.000000 0.275392 0
0.000000 -0.000010 0
0.011819 0.334779 0
0.016320 0.382950 0
0.018105 0.382805 0
0.018975 0.360164 0
0.019204 0.320244 0
0.019072 0.269161 0
0.018984 0.213875 0
0.019387 0.161428 0
0.020800 0.117820 0
0.023392 0.086677 0
0.026918 0.068129 0
0.030877 0.059212 0
0.034693 0.056027 0
0.037953 0.055418 0
0.040501 0.055336 0
0.042354 0.054569 0
0.043619 0.052426 0
0.044429 0.048528 0
0.044915 0.042686 0
0.045193 0.034838 0
0.045370 0.024993 0
0.045566 0.013194 0
0.045923 -0.000314 0
0.046486 -0.014765 0
0.047354 -0.029253 0
0.048405 -0.043221 0
0.049366 -0.056499 0
0.049909 -0.069464 0
0.049745 -0.083150 0
0.048731 -0.099207 0
0.046923 -0.119624 0
0.044514 -0.146207 0
0.041662 -0.180040 0
0.038322 -0.221318 0
0.034227 -0.269848 0
0.028996 -0.325867 0
0.022250 -0.391762 0
0.013577 -0.478433 0
0.003939 -0.538631 0
-0.000082 0.000025 0
0.000000 0.274070 0
0.000000 -0.000008 0
0.017983 0.323546 0
0.028367 0.377251 0
0.034333 0.379732 0
0.037907 0.358631 0
0.039365 0.319970 0
0.039009 0.269743 0
0.037387 0.214742 0
0.035282 0.161860 0
0.033722 0.117145 0
0.033609 0.084592 0
0.035379 0.064841 0
0.038699 0.055320 0
0.042766 0.052169 0
0.046851 0.052010 0
0.050541 0.052542 0
0.053678 0.052388 0
0.056257 0.050779 0
0.058339 0.047311 0
0.060005 0.041798 0
0.061334 0.034186 0
0.062399 0.024485 0
0.063263 0.012743 0
0.063959 -0.000783 0
0.064504 -0.015338 0
0.064947 -0.029926 0
0.065199 -0.043815 0
0.065073 -0.056743 0
0.064364 -0.069096 0
0.062936 -0.082011 0
0.060799 -0.097306 0
0.058114 -0.117114 0
0.055073 -0.143245 0
0.051706 -0.176618 0
0.047772 -0.217198 0
0.042840 -0.264646 0
0.036452 -0.319182 0
0.028235 -0.383224 0
0.017876 -0.468328 0
0.006341 -0.530686 0
-0.000073 0.000024 0
0.000000 0.271451 0
0.000000 -0.000007 0
0.023877 0.306412 0
0.039988 0.366600 0
0.050059 0.373265 0
0.056308 0.355133 0
0.059107 0.319143 0
0.058750 0.271139 0
0.055844 0.217601 0
0.051392 0.165092 0
0.046778 0.119493 0
0.043529 0.085019 0
0.042817 0.063039 0
0.044777 0.051826 0
0.048591 0.047875 0
0.053235 0.047643 0
0.057967 0.048510 0
0.062393 0.048853 0
0.066354 0.047765 0
0.069814 0.044779 0
0.072795 0.039691 0
0.075332 0.032445 0
0.077462 0.023064 0
0.079185 0.011634 0
0.080444 -0.001554 0
0.081123 -0.015753 0
0.081165 -0.029949 0
0.080517 -0.043348 0
0.079131 -0.055664 0
0.077000 -0.067327 0
0.074212 -0.079585 0
0.070981 -0.094384 0
0.067576 -0.113898 0
0.064133 -0.139799 0
0.060476 -0.172739 0
0.056129 -0.212452 0
0.050502 -0.258528 0
0.043083 -0.311262 0
0.033526 -0.373186 0
0.021620 -0.456539 0
0.008409 -0.520755 0
-0.000067 0.000023 0
0.000000 0.267728 0
0.000000 -0.000006 0
0.029491 0.283558 0
0.051220 0.351069 0
0.065408 0.363412 0
0.074392 0.349583 0
0.078741 0.317528 0
0.078759 0.273005 0
0.075062 0.222100 0
0.068737 0.170926 0
0.061341 0.125009 0
0.054774 0.088553 0
0.050829 0.063593 0
0.050374 0.049546 0
0.052991 0.043711 0
0.057537 0.042635 0
0.062923 0.043384 0
0.068432 0.044002 0
0.073678 0.043358 0
0.078485 0.040870 0
0.082782 0.036279 0
0.086542 0.029519 0
0.089740 0.020633 0
0.092310 0.009761 0
0.094113 -0.002721 0
0.094909 -0.016059 0
0.094565 -0.029321 0
0.093069 -0.041781 0
0.090518 -0.053225 0
0.087130 -0.064177 0
0.083249 -0.075992 0
0.079295 -0.090670 0
0.075588 -0.110266 0
0.072109 -0.136145 0
0.068414 -0.168614 0
0.063799 -0.207224 0
0.057558 -0.251599 0
0.049169 -0.302206 0
0.038341 -0.361761 0
0.024979 -0.443211 0
0.010238 -0.509066 0
-0.000063 0.000023 0
0.000000 0.263041 0
0.000000 -0.000005 0
0.034690 0.255192 0
0.061894 0.330683 0
0.080265 0.350094 0
0.092132 0.341800 0
0.098328 0.314776 0
0.099217 0.274818 0
0.095400 0.227623 0
0.087946 0.178813 0
0.078421 0.133456 0
0.068817 0.095531 0
0.061246 0.067438 0
0.057298 0.049664 0
0.057368 0.040712 0
0.060648 0.037710 0
0.065859 0.037615 0
0.071912 0.038098 0
0.078101 0.037712 0
0.084027 0.035676 0
0.089473 0.031634 0
0.094307 0.025486 0
0.098419 0.017295 0
0.101660 0.007261 0
0.103820 -0.004154 0
0.104614 -0.016205 0
0.103907 -0.028108 0
0.101752 -0.039300 0
0.098395 -0.049725 0
0.094274 -0.060059 0
0.089961 -0.071751 0
0.085995 -0.086722 0
0.082608 -0.106711 0
0.079517 -0.132626 0
0.075997 -0.164430 0
0.071178 -0.201596 0
0.064322 -0.243897 0
0.054951 -0.292044 0
0.042856 -0.348996 0
0.028076 -0.428436 0
0.011903 -0.495776 0
-0.000061 0.000022 0
0.000000 0.257488 0
0.000000 -0.000004 0
0.039180 0.221664 0
0.071584 0.305494 0
0.094213 0.333173 0
0.109198 0.331520 0
0.117622 0.310443 0
0.119965 0.275933 0
0.116807 0.233370 0
0.109148 0.187905 0
0.098453 0.144138 0
0.086608 0.105728 0
0.075721 0.075112 0
0.067748 0.053425 0
0.063936 0.040361 0
0.064333 0.034143 0
0.067955 0.032120 0
0.073502 0.031760 0
0.079900 0.031243 0
0.086427 0.029498 0
0.092634 0.026000 0
0.098226 0.020573 0
0.102973 0.013279 0
0.106639 0.004360 0
0.108950 -0.005675 0
0.109663 -0.016146 0
0.108711 -0.026458 0
0.106258 -0.036269 0
0.102717 -0.045748 0
0.098713 -0.055742 0
0.094931 -0.067713 0
0.091842 -0.083318 0
0.089403 -0.103787 0
0.087007 -0.129533 0
0.083724 -0.160275 0
0.078638 -0.195549 0
0.071065 -0.235373 0
0.060624 -0.280740 0
0.047207 -0.334885 0
0.030997 -0.412257 0
0.013454 -0.480991 0
-0.000061 0.000021 0
0.000000 0.251136 0
0.000000 -0.000003 0
0.042524 0.183608 0
0.079594 0.275650 0
0.106498 0.312480 0
0.124909 0.318391 0
0.136041 0.304008 0
0.140484 0.275633 0
0.138815 0.238440 0
0.131944 0.197168 0
0.121199 0.155995 0
0.108276 0.118262 0
0.095087 0.086299 0
0.083559 0.061450 0
0.075357 0.044127 0
0.071428 0.033691 0
0.071645 0.028445 0
0.075024 0.026153 0
0.080323 0.024787 0
0.086482 0.022942 0
0.092736 0.019835 0
0.098552 0.015148 0
0.103532 0.008883 0
0.107342 0.001283 0
0.109674 -0.007177 0
0.110384 -0.015966 0
0.109530 -0.024704 0
0.107421 -0.033307 0
0.104618 -0.042179 0
0.101817 -0.052273 0
0.099599 -0.064880 0
0.098122 -0.081194 0
0.096970 -0.101876 0
0.095281 -0.126947 0
0.092068 -0.156061 0
0.086492 -0.188937 0
0.077994 -0.225883 0
0.066320 -0.268187 0
0.051475 -0.319369 0
0.033792 -0.394683 0
0.014921 -0.464779 0
-0.000061 0.000020 0
0.000000 0.244032 0
0.000000 -0.000001 0
0.044077 0.142070 0
0.084870 0.241521 0
0.115967 0.287858 0
0.138209 0.301977 0
0.152650 0.294868 0
0.159913 0.273159 0
0.160576 0.241910 0
0.155476 0.205522 0
0.145809 0.167807 0
0.133084 0.131839 0
0.118986 0.099829 0
0.105232 0.073155 0
0.093448 0.052492 0
0.084976 0.037855 0
0.080524 0.028524 0
0.079927 0.023082 0
0.082325 0.019785 0
0.086604 0.017085 0
0.091743 0.013929 0
0.096941 0.009777 0
0.101589 0.004490 0
0.105236 -0.001782 0
0.107596 -0.008718 0
0.108626 -0.016002 0
0.108506 -0.023494 0
0.107655 -0.031357 0
0.106650 -0.040144 0
0.106022 -0.050723 0
0.106001 -0.064019 0