# vtk DataFile Version 2.0
generated by CFD-lab course output (written by Tobias Neckel) 
ASCII

DATASET STRUCTURED_GRID
DIMENSIONS  42 42 1 
POINTS 1764 float

0.150000 0.150000 0
0.167857 0.150000 0
0.185714 0.150000 0
0.203571 0.150000 0
0.221429 0.150000 0
0.239286 0.150000 0
0.257143 0.150000 0
0.275000 0.150000 0
0.292857 0.150000 0
0.310714 0.150000 0
0.328571 0.150000 0
0.346429 0.150000 0
0.364286 0.150000 0
0.382143 0.150000 0
0.400000 0.150000 0
0.417857 0.150000 0
0.435714 0.150000 0
0.453571 0.150000 0
0.471429 0.150000 0
0.489286 0.150000 0
0.507143 0.150000 0
0.525000 0.150000 0
0.542857 0.150000 0
0.560714 0.150000 0
0.578571 0.150000 0
0.596429 0.150000 0
0.614286 0.150000 0
0.632143 0.150000 0
0.650000 0.150000 0
0.667857 0.150000 0
0.685714 0.150000 0
0.703571 0.150000 0
0.721429 0.150000 0
0.739286 0.150000 0
0.757143 0.150000 0
0.775000 0.150000 0
0.792857 0.150000 0
0.810714 0.150000 0
0.828571 0.150000 0
0.846429 0.150000 0
0.864286 0.150000 0
0.882143 0.150000 0
0.150000 0.167857 0
0.167857 0.167857 0
0.185714 0.167857 0
0.203571 0.167857 0
0.221429 0.167857 0
0.239286 0.167857 0
0.257143 0.167857 0
0.275000 0.167857 0
0.292857 0.167857 0
0.310714 0.167857 0
0.328571 0.167857 0
0.346429 0.167857 0
0.364286 0.167857 0
0.382143 0.167857 0
0.400000 0.167857 0
0.417857 0.167857 0
0.435714 0.167857 0
0.453571 0.167857 0
0.471429 0.167857 0
0.489286 0.167857 0
0.507143 0.167857 0
0.525000 0.167857 0
0.542857 0.167857 0
0.560714 0.167857 0
0.578571 0.167857 0
0.596429 0.167857 0
0.614286 0.167857 0
0.632143 0.167857 0
0.650000 0.167857 0
0.667857 0.167857 0
0.685714 0.167857 0
0.703571 0.167857 0
0.721429 0.167857 0
0.739286 0.167857 0
0.757143 0.167857 0
0.775000 0.167857 0
0.792857 0.167857 0
0.810714 0.167857 0
0.828571 0.167857 0
0.846429 0.167857 0
0.864286 0.167857 0
0.882143 0.167857 0
0.150000 0.185714 0
0.167857 0.185714 0
0.185714 0.185714 0
0.203571 0.185714 0
0.221429 0.185714 0
0.239286 0.185714 0
0.257143 0.185714 0
0.275000 0.185714 0
0.292857 0.185714 0
0.310714 0.185714 0
0.328571 0.185714 0
0.346429 0.185714 0
0.364286 0.185714 0
0.382143 0.185714 0
0.400000 0.185714 0
0.417857 0.185714 0
0.435714 0.185714 0
0.453571 0.185714 0
0.471429 0.185714 0
0.489286 0.185714 0
0.507143 0.185714 0
0.525000 0.185714 0
0.542857 0.185714 0
0.560714 0.185714 0
0.578571 0.185714 0
0.596429 0.185714 0
0.614286 0.185714 0
0.632143 0.185714 0
0.650000 0.185714 0
0.667857 0.185714 0
0.685714 0.185714 0
0.703571 0.185714 0
0.721429 0.185714 0
0.739286 0.185714 0
0.757143 0.185714 0
0.775000 0.185714 0
0.792857 0.185714 0
0.810714 0.185714 0
0.828571 0.185714 0
0.846429 0.185714 0
0.864286 0.185714 0
0.882143 0.185714 0
0.150000 0.203571 0
0.167857 0.203571 0
0.185714 0.203571 0
0.203571 0.203571 0
0.221429 0.203571 0
0.239286 0.203571 0
0.257143 0.203571 0
0.275000 0.203571 0
0.292857 0.203571 0
0.310714 0.203571 0
0.328571 0.203571 0
0.346429 0.203571 0
0.364286 0.203571 0
0.382143 0.203571 0
0.400000 0.203571 0
0.417857 0.203571 0
0.435714 0.203571 0
0.453571 0.203571 0
0.471429 0.203571 0
0.489286 0.203571 0
0.507143 0.203571 0
0.525000 0.203571 0
0.542857 0.203571 0
0.560714 0.203571 0
0.578571 0.203571 0
0.596429 0.203571 0
0.614286 0.203571 0
0.632143 0.203571 0
0.650000 0.203571 0
0.667857 0.203571 0
0.685714 0.203571 0
0.703571 0.203571 0
0.721429 0.203571 0
0.739286 0.203571 0
0.757143 0.203571 0
0.775000 0.203571 0
0.792857 0.203571 0
0.810714 0.203571 0
0.828571 0.203571 0
0.846429 0.203571 0
0.864286 0.203571 0
0.882143 0.203571 0
0.150000 0.221429 0
0.167857 0.221429 0
0.185714 0.221429 0
0.203571 0.221429 0
0.221429 0.221429 0
0.239286 0.221429 0
0.257143 0.221429 0
0.275000 0.221429 0
0.292857 0.221429 0
0.310714 0.221429 0
0.328571 0.221429 0
0.346429 0.221429 0
0.364286 0.221429 0
0.382143 0.221429 0
0.400000 0.221429 0
0.417857 0.221429 0
0.435714 0.221429 0
0.453571 0.221429 0
0.471429 0.221429 0
0.489286 0.221429 0
0.507143 0.221429 0
0.525000 0.221429 0
0.542857 0.221429 0
0.560714 0.221429 0
0.578571 0.221429 0
0.596429 0.221429 0
0.614286 0.221429 0
0.632143 0.221429 0
0.650000 0.221429 0
0.667857 0.221429 0
0.685714 0.221429 0
0.703571 0.221429 0
0.721429 0.221429 0
0.739286 0.221429 0
0.757143 0.221429 0
0.775000 0.221429 0
0.792857 0.221429 0
0.810714 0.221429 0
0.828571 0.221429 0
0.846429 0.221429 0
0.864286 0.221429 0
0.882143 0.221429 0
0.150000 0.239286 0
0.167857 0.239286 0
0.185714 0.239286 0
0.203571 0.239286 0
0.221429 0.239286 0
0.239286 0.239286 0
0.257143 0.239286 0
0.275000 0.239286 0
0.292857 0.239286 0
0.310714 0.239286 0
0.328571 0.239286 0
0.346429 0.239286 0
0.364286 0.239286 0
0.382143 0.239286 0
0.400000 0.239286 0
0.417857 0.239286 0
0.435714 0.239286 0
0.453571 0.239286 0
0.471429 0.239286 0
0.489286 0.239286 0
0.507143 0.239286 0
0.525000 0.239286 0
0.542857 0.239286 0
0.560714 0.239286 0
0.578571 0.239286 0
0.596429 0.239286 0
0.614286 0.239286 0
0.632143 0.239286 0
0.650000 0.239286 0
0.667857 0.239286 0
0.685714 0.239286 0
0.703571 0.239286 0
0.721429 0.239286 0
0.739286 0.239286 0
0.757143 0.239286 0
0.775000 0.239286 0
0.792857 0.239286 0
0.810714 0.239286 0
0.828571 0.239286 0
0.846429 0.239286 0
0.864286 0.239286 0
0.882143 0.239286 0
0.150000 0.257143 0
0.167857 0.257143 0
0.185714 0.257143 0
0.203571 0.257143 0
0.221429 0.257143 0
0.239286 0.257143 0
0.257143 0.257143 0
0.275000 0.257143 0
0.292857 0.257143 0
0.310714 0.257143 0
0.328571 0.257143 0
0.346429 0.257143 0
0.364286 0.257143 0
0.382143 0.257143 0
0.400000 0.257143 0
0.417857 0.257143 0
0.435714 0.257143 0
0.453571 0.257143 0
0.471429 0.257143 0
0.489286 0.257143 0
0.507143 0.257143 0
0.525000 0.257143 0
0.542857 0.257143 0
0.560714 0.257143 0
0.578571 0.257143 0
0.596429 0.257143 0
0.614286 0.257143 0
0.632143 0.257143 0
0.650000 0.257143 0
0.667857 0.257143 0
0.685714 0.257143 0
0.703571 0.257143 0
0.721429 0.257143 0
0.739286 0.257143 0
0.757143 0.257143 0
0.775000 0.257143 0
0.792857 0.257143 0
0.810714 0.257143 0
0.828571 0.257143 0
0.846429 0.257143 0
0.864286 0.257143 0
0.882143 0.257143 0
0.150000 0.275000 0
0.167857 0.275000 0
0.185714 0.275000 0
0.203571 0.275000 0
0.221429 0.275000 0
0.239286 0.275000 0
0.257143 0.275000 0
0.275000 0.275000 0
0.292857 0.275000 0
0.310714 0.275000 0
0.328571 0.275000 0
0.346429 0.275000 0
0.364286 0.275000 0
0.382143 0.275000 0
0.400000 0.275000 0
0.417857 0.275000 0
0.435714 0.275000 0
0.453571 0.275000 0
0.471429 0.275000 0
0.489286 0.275000 0
0.507143 0.275000 0
0.525000 0.275000 0
0.542857 0.275000 0
0.560714 0.275000 0
0.578571 0.275000 0
0.596429 0.275000 0
0.614286 0.275000 0
0.632143 0.275000 0
0.650000 0.275000 0
0.667857 0.275000 0
0.685714 0.275000 0
0.703571 0.275000 0
0.721429 0.275000 0
0.739286 0.275000 0
0.757143 0.275000 0
0.775000 0.275000 0
0.792857 0.275000 0
0.810714 0.275000 0
0.828571 0.275000 0
0.846429 0.275000 0
0.864286 0.275000 0
0.882143 0.275000 0
0.150000 0.292857 0
0.167857 0.292857 0
0.185714 0.292857 0
0.203571 0.292857 0
0.221429 0.292857 0
0.239286 0.292857 0
0.257143 0.292857 0
0.275000 0.292857 0
0.292857 0.292857 0
0.310714 0.292857 0
0.328571 0.292857 0
0.346429 0.292857 0
0.364286 0.292857 0
0.382143 0.292857 0
0.400000 0.292857 0
0.417857 0.292857 0
0.435714 0.292857 0
0.453571 0.292857 0
0.471429 0.292857 0
0.489286 0.292857 0
0.507143 0.292857 0
0.525000 0.292857 0
0.542857 0.292857 0
0.560714 0.292857 0
0.578571 0.292857 0
0.596429 0.292857 0
0.614286 0.292857 0
0.632143 0.292857 0
0.650000 0.292857 0
0.667857 0.292857 0
0.685714 0.292857 0
0.703571 0.292857 0
0.721429 0.292857 0
0.739286 0.292857 0
0.757143 0.292857 0
0.775000 0.292857 0
0.792857 0.292857 0
0.810714 0.292857 0
0.828571 0.292857 0
0.846429 0.292857 0
0.864286 0.292857 0
0.882143 0.292857 0
0.150000 0.310714 0
0.167857 0.310714 0
0.185714 0.310714 0
0.203571 0.310714 0
0.221429 0.310714 0
0.239286 0.310714 0
0.257143 0.310714 0
0.275000 0.310714 0
0.292857 0.310714 0
0.310714 0.310714 0
0.328571 0.310714 0
0.346429 0.310714 0
0.364286 0.310714 0
0.382143 0.310714 0
0.400000 0.310714 0
0.417857 0.310714 0
0.435714 0.310714 0
0.453571 0.310714 0
0.471429 0.310714 0
0.489286 0.310714 0
0.507143 0.310714 0
0.525000 0.310714 0
0.542857 0.310714 0
0.560714 0.310714 0
0.578571 0.310714 0
0.596429 0.310714 0
0.614286 0.310714 0
0.632143 0.310714 0
0.650000 0.310714 0
0.667857 0.310714 0
0.685714 0.310714 0
0.703571 0.310714 0
0.721429 0.310714 0
0.739286 0.310714 0
0.757143 0.310714 0
0.775000 0.310714 0
0.792857 0.310714 0
0.810714 0.310714 0
0.828571 0.310714 0
0.846429 0.310714 0
0.864286 0.310714 0
0.882143 0.310714 0
0.150000 0.328571 0
0.167857 0.328571 0
0.185714 0.328571 0
0.203571 0.328571 0
0.221429 0.328571 0
0.239286 0.328571 0
0.257143 0.328571 0
0.275000 0.328571 0
0.292857 0.328571 0
0.310714 0.328571 0
0.328571 0.328571 0
0.346429 0.328571 0
0.364286 0.328571 0
0.382143 0.328571 0
0.400000 0.328571 0
0.417857 0.328571 0
0.435714 0.328571 0
0.453571 0.328571 0
0.471429 0.328571 0
0.489286 0.328571 0
0.507143 0.328571 0
0.525000 0.328571 0
0.542857 0.328571 0
0.560714 0.328571 0
0.578571 0.328571 0
0.596429 0.328571 0
0.614286 0.328571 0
0.632143 0.328571 0
0.650000 0.328571 0
0.667857 0.328571 0
0.685714 0.328571 0
0.703571 0.328571 0
0.721429 0.328571 0
0.739286 0.328571 0
0.757143 0.328571 0
0.775000 0.328571 0
0.792857 0.328571 0
0.810714 0.328571 0
0.828571 0.328571 0
0.846429 0.328571 0
0.864286 0.328571 0
0.882143 0.328571 0
0.150000 0.346429 0
0.167857 0.346429 0
0.185714 0.346429 0
0.203571 0.346429 0
0.221429 0.346429 0
0.239286 0.346429 0
0.257143 0.346429 0
0.275000 0.346429 0
0.292857 0.346429 0
0.310714 0.346429 0
0.328571 0.346429 0
0.346429 0.346429 0
0.364286 0.346429 0
0.382143 0.346429 0
0.400000 0.346429 0
0.417857 0.346429 0
0.435714 0.346429 0
0.453571 0.346429 0
0.471429 0.346429 0
0.489286 0.346429 0
0.507143 0.346429 0
0.525000 0.346429 0
0.542857 0.346429 0
0.560714 0.346429 0
0.578571 0.346429 0
0.596429 0.346429 0
0.614286 0.346429 0
0.632143 0.346429 0
0.650000 0.346429 0
[...]
POINT_DATA 1764 

VECTORS velocity float
0.000000 0.000000 0
-0.000003 0.000000 0
-0.000003 0.000000 0
-0.000002 0.000000 0
0.000002 0.000000 0
-0.000006 0.000000 0
-0.000011 0.000000 0
0.000012 0.000000 0
0.000023 0.000000 0
0.000025 0.000000 0
0.000026 0.000000 0
0.000026 0.000000 0
0.000025 0.000000 0
0.000024 0.000000 0
0.000023 0.000000 0
0.000022 0.000000 0
0.000021 0.000000 0
0.000021 0.000000 0
0.000021 0.000000 0
0.000021 0.000000 0
0.000022 0.000000 0
0.000022 0.000000 0
0.000023 0.000000 0
0.000023 0.000000 0
0.000024 0.000000 0
0.000024 0.000000 0
0.000024 0.000000 0
0.000024 0.000000 0
0.000024 0.000000 0
0.000024 0.000000 0
0.000024 0.000000 0
0.000024 0.000000 0
0.000023 0.000000 0
0.000023 0.000000 0
0.000023 0.000000 0
0.000022 0.000000 0
0.000021 0.000000 0
0.000019 0.000000 0
0.000015 0.000000 0
0.000010 0.000000 0
0.000000 0.000000 0
0.000000 0.000000 0
0.000000 0.000003 0
0.056415 -0.051997 0
0.090620 -0.024712 0
0.102850 0.000816 0
0.092737 0.016278 0
0.065216 0.004754 0
0.027414 0.001461 0
-0.018612 0.034106 0
-0.077146 0.061286 0
-0.140734 0.066647 0
-0.202747 0.063879 0
-0.260287 0.059223 0
-0.311673 0.053063 0
-0.356275 0.046400 0
-0.394138 0.039847 0
-0.425733 0.033795 0
-0.451748 0.028430 0
-0.472934 0.023794 0
-0.490013 0.019849 0
-0.503626 0.016510 0
-0.514308 0.013673 0
-0.522482 0.011228 0
-0.528459 0.009069 0
-0.532442 0.007067 0
-0.534511 0.005083 0
-0.534627 0.002988 0
-0.532691 0.000647 0
-0.528505 -0.002081 0
-0.521697 -0.005344 0
-0.511731 -0.009306 0
-0.497873 -0.014220 0
-0.479134 -0.020396 0
-0.454255 -0.028145 0
-0.421694 -0.037763 0
-0.379674 -0.049404 0
-0.326385 -0.062826 0
-0.260515 -0.076732 0
-0.182559 -0.087418 0
-0.097814 -0.084740 0
-0.023224 -0.035542 0
0.000044 0.000010 0
0.000000 -0.003544 0
0.000000 0.000004 0
0.032238 -0.090620 0
0.050419 -0.046434 0
0.040117 -0.002117 0
0.014136 0.037633 0
-0.029947 0.065323 0
-0.103809 0.083828 0
-0.174820 0.104560 0
-0.232097 0.122122 0
-0.284256 0.125601 0
-0.333193 0.119553 0
-0.376479 0.108926 0
-0.413501 0.095988 0
-0.444243 0.082465 0
-0.469143 0.069458 0
-0.488859 0.057610 0
-0.504117 0.047201 0
-0.515625 0.038265 0
-0.524007 0.030692 0
-0.529788 0.024295 0
-0.533385 0.018856 0
-0.535112 0.014151 0
-0.535187 0.009960 0
-0.533734 0.006052 0
-0.530811 0.002185 0
-0.526446 -0.001820 0
-0.520620 -0.006123 0
-0.513140 -0.010994 0
-0.503739 -0.016774 0
-0.491994 -0.023824 0
-0.477314 -0.032598 0
-0.458947 -0.043617 0
-0.435932 -0.057440 0
-0.407092 -0.074581 0
-0.371060 -0.095309 0
-0.326391 -0.119160 0
-0.271886 -0.143827 0
-0.207308 -0.162700 0
-0.135102 -0.159335 0
-0.062895 -0.097814 0
-0.000104 0.000016 0
0.000000 0.023240 0
0.000000 -0.000001 0
-0.003687 -0.102416 0
-0.021279 -0.032591 0
-0.058305 0.037099 0
-0.102621 0.086342 0
-0.152541 0.122699 0
-0.207051 0.146333 0
-0.261208 0.162394 0
-0.305744 0.170723 0
-0.342429 0.167743 0
-0.373321 0.156102 0
-0.398509 0.139531 0
-0.418445 0.120828 0
-0.433753 0.102043 0
-0.445167 0.084463 0
-0.453402 0.068770 0
-0.459088 0.055195 0
-0.462745 0.043683 0
-0.464778 0.034012 0
-0.465489 0.025888 0
-0.465095 0.018997 0
-0.463741 0.013030 0
-0.461516 0.007691 0
-0.458460 0.002691 0
-0.454594 -0.002205 0
-0.450008 -0.007204 0
-0.444537 -0.012659 0
-0.437992 -0.018961 0
-0.430138 -0.026489 0
-0.420659 -0.035731 0
-0.409136 -0.047268 0
-0.395033 -0.061778 0
-0.377664 -0.080000 0
-0.356178 -0.102634 0
-0.329546 -0.130105 0
-0.296553 -0.162000 0
-0.255811 -0.195815 0
-0.205796 -0.224202 0
-0.145130 -0.229152 0
-0.073656 -0.170644 0
-0.000220 0.000021 0
0.000000 0.059363 0
0.000000 -0.000011 0
-0.038637 -0.069341 0
-0.088651 0.008184 0
-0.130709 0.079225 0
-0.174407 0.131869 0
-0.217738 0.169753 0
-0.259155 0.192495 0
-0.296768 0.203252 0
-0.326236 0.203343 0
-0.348024 0.193178 0
-0.363746 0.175633 0
-0.374562 0.154050 0
-0.381588 0.131232 0
-0.385799 0.109187 0
-0.388004 0.089106 0
-0.388815 0.071531 0
-0.388662 0.056544 0
-0.387823 0.043955 0
-0.386470 0.033436 0
-0.384695 0.024612 0
-0.382542 0.017108 0
-0.380023 0.010573 0
-0.377127 0.004680 0
-0.373827 -0.000871 0
-0.370190 -0.006267 0
-0.366097 -0.011876 0
-0.361394 -0.018138 0
-0.355987 -0.025394 0
-0.349715 -0.034107 0
-0.342381 -0.044826 0
-0.333716 -0.058224 0
-0.323369 -0.075090 0
-0.310879 -0.096294 0
-0.295656 -0.122698 0
-0.276941 -0.154934 0
-0.253732 -0.192895 0
-0.224577 -0.234584 0
-0.187137 -0.273381 0
-0.137717 -0.291475 0
-0.072497 -0.242945 0
-0.000298 0.000024 0
0.000000 0.096903 0
0.000000 -0.000016 0
-0.059982 -0.013765 0
-0.116927 0.059481 0
-0.163068 0.122854 0
-0.205125 0.173371 0
-0.241802 0.207447 0
-0.272770 0.225363 0
-0.297360 0.229475 0
-0.314250 0.221979 0
-0.324272 0.205253 0
-0.329022 0.182639 0
-0.330054 0.157373 0
-0.328728 0.132065 0
-0.326088 0.108459 0
-0.322857 0.087479 0
-0.319472 0.069427 0
-0.316156 0.054203 0
-0.312990 0.041491 0
-0.309967 0.030884 0
-0.307036 0.021961 0
-0.304123 0.014325 0
-0.301155 0.007615 0
-0.298072 0.001495 0
-0.294842 -0.004245 0
-0.291488 -0.009935 0
-0.287770 -0.016000 0
-0.283677 -0.022770 0
-0.279132 -0.030640 0
-0.274061 -0.040095 0
-0.268359 -0.051731 0
-0.261881 -0.066280 0
-0.254413 -0.084615 0
-0.245646 -0.107713 0
-0.235149 -0.136573 0
-0.222347 -0.172029 0
-0.206447 -0.214363 0
-0.186185 -0.262411 0
-0.159163 -0.311062 0
-0.120834 -0.343792 0
-0.065321 -0.308361 0
-0.000334 0.000025 0
0.000000 0.131864 0
0.000000 -0.000021 0
-0.065151 0.047586 0
-0.120892 0.111270 0
-0.168478 0.167424 0
-0.207570 0.210603 0
-0.238311 0.237397 0
-0.261091 0.248053 0
-0.276204 0.244732 0
-0.283993 0.230255 0
-0.285831 0.207950 0
-0.283450 0.181415 0
-0.278505 0.153756 0
-0.272355 0.127266 0
-0.265950 0.103316 0
-0.259866 0.082490 0
-0.254377 0.064831 0
-0.249553 0.050063 0
-0.245342 0.037766 0
-0.241626 0.027481 0
-0.238267 0.018767 0
-0.235126 0.011228 0
-0.232090 0.004522 0
-0.229079 -0.001634 0
-0.226102 -0.007454 0
-0.222964 -0.013339 0
-0.219605 -0.019687 0
-0.215993 -0.026776 0
-0.212103 -0.035011 0
-0.207923 -0.044880 0
-0.203435 -0.057006 0
-0.198592 -0.072171 0
-0.193289 -0.091325 0
-0.187311 -0.115558 0
-0.180302 -0.145997 0
-0.171757 -0.183635 0
-0.161020 -0.229057 0
-0.147143 -0.281868 0
-0.128231 -0.338733 0
-0.099973 -0.385318 0
-0.055402 -0.363779 0
-0.000335 0.000026 0
0.000000 0.162226 0
0.000000 -0.000023 0
-0.059109 0.107128 0
-0.113113 0.162807 0
-0.157886 0.209532 0
-0.192814 0.243204 0
-0.218166 0.260968 0
-0.234652 0.263257 0
-0.243176 0.252377 0
-0.244928 0.231606 0
-0.241622 0.204710 0
-0.235054 0.175312 0
-0.226836 0.146278 0
-0.218202 0.119510 0
-0.209962 0.095971 0
-0.202555 0.075906 0
-0.196146 0.059114 0
-0.190723 0.045168 0
-0.186167 0.033564 0
-0.182311 0.023809 0
-0.178970 0.015460 0
-0.175975 0.008149 0
-0.173188 0.001568 0
-0.170499 -0.004494 0
-0.167883 -0.010360 0
-0.165103 -0.016432 0
-0.162154 -0.022971 0
-0.159003 -0.030271 0
-0.155658 -0.038709 0
-0.152157 -0.048764 0
-0.148556 -0.061062 0
-0.144910 -0.076426 0
-0.141220 -0.095895 0
-0.137359 -0.120699 0
-0.133006 -0.152127 0
-0.127645 -0.191311 0
-0.120651 -0.238977 0
-0.111335 -0.295199 0
-0.098504 -0.358232 0
-0.078755 -0.416621 0
-0.044838 -0.408334 0
-0.000311 0.000026 0
0.000000 0.187268 0
0.000000 -0.000023 0
-0.050803 0.160699 0
-0.099237 0.210047 0
-0.138882 0.247125 0
-0.168864 0.270884 0
-0.189304 0.279235 0
-0.200978 0.273063 0
-0.205060 0.255008 0
-0.203084 0.228700 0
-0.196856 0.198076 0
-0.188118 0.166629 0
-0.178343 0.136904 0
-0.168610 0.110393 0
-0.159602 0.087668 0
-0.151676 0.068674 0
-0.144954 0.052998 0
-0.139403 0.040084 0
-0.134895 0.029354 0
-0.131247 0.020284 0
-0.128256 0.012432 0
-0.125720 0.005445 0
-0.123460 -0.000955 0
-0.121371 -0.006938 0
-0.119282 -0.012849 0
-0.117069 -0.019068 0
-0.114675 -0.025787 0
-0.112065 -0.033271 0
-0.109254 -0.041857 0
-0.106307 -0.051983 0
-0.103345 -0.064252 0
-0.100520 -0.079506 0
-0.097956 -0.098876 0
-0.095639 -0.123772 0
-0.093303 -0.155711 0
-0.090408 -0.195990 0
-0.086292 -0.245367 0
-0.080394 -0.304015 0
-0.072126 -0.371313 0
-0.059231 -0.438984 0
-0.034855 -0.442533 0
-0.000273 0.000026 0
0.000000 0.207065 0
0.000000 -0.000023 0
-0.041638 0.206365 0
-0.082744 0.250886 0
-0.116211 0.279159 0
-0.140979 0.293626 0
-0.157011 0.293081 0
-0.165011 0.279013 0
-0.166183 0.254483 0
-0.162084 0.223402 0
-0.154425 0.189744 0
-0.144785 0.156799 0
-0.134457 0.126770 0
-0.124375 0.100770 0
-0.115139 0.079037 0
-0.107084 0.061258 0
-0.100339 0.046841 0
-0.094891 0.035109 0
-0.090628 0.025408 0
-0.087375 0.017170 0
-0.084922 0.009934 0
-0.083046 0.003352 0
-0.081531 -0.002782 0
-0.080234 -0.008671 0
-0.078911 -0.014662 0
-0.077471 -0.021039 0
-0.075820 -0.027975 0
-0.073897 -0.035691 0
-0.071700 -0.044467 0
-0.069296 -0.054674 0
-0.066844 -0.066850 0
-0.064583 -0.081814 0
-0.062760 -0.100776 0
-0.061498 -0.125352 0
-0.060623 -0.157358 0
-0.059605 -0.198322 0
-0.057754 -0.248991 0
-0.054558 -0.309365 0
-0.049814 -0.379395 0
-0.042313 -0.453892 0
-0.026051 -0.467566 0
-0.000231 0.000026 0
0.000000 0.222122 0
0.000000 -0.000022 0
-0.032265 0.243443 0
-0.065588 0.284620 0
-0.092657 0.305360 0
-0.112347 0.311684 0
-0.124513 0.303267 0
-0.129729 0.282235 0
-0.129070 0.252081 0
-0.123933 0.216943 0
-0.115806 0.180777 0
-0.106039 0.146662 0
-0.095729 0.116494 0
-0.085693 0.091074 0
-0.076495 0.070377 0
-0.068497 0.053874 0
-0.061862 0.040806 0
-0.056606 0.030373 0
-0.052647 0.021838 0
-0.049824 0.014578 0
-0.047934 0.008103 0
-0.046756 0.002054 0
-0.046061 -0.003767 0
-0.045600 -0.009558 0
-0.045157 -0.015612 0
-0.044612 -0.022159 0
-0.043834 -0.029361 0
-0.042728 -0.037391 0
-0.041257 -0.046458 0
-0.039474 -0.056838 0
-0.037554 -0.068965 0
-0.035789 -0.083590 0
-0.034524 -0.101962 0
-0.034004 -0.125910 0
-0.034162 -0.157604 0
-0.034522 -0.198859 0
-0.034423 -0.250414 0
-0.033407 -0.311955 0
-0.031474 -0.383558 0
-0.028189 -0.462746 0
-0.018617 -0.484846 0
-0.000189 0.000025 0
0.000000 0.233115 0
0.000000 -0.000020 0
-0.023115 0.271953 0
-0.048822 0.311278 0
-0.069731 0.325917 0
-0.084716 0.325483 0
-0.093572 0.310464 0
-0.096714 0.283569 0
-0.095005 0.248687 0
-0.089579 0.210138 0
-0.081629 0.171850 0
-0.072231 0.136722 0
-0.062298 0.106424 0
-0.052560 0.081536 0
-0.043559 0.061841 0
-0.035718 0.046625 0
-0.029248 0.034950 0
-0.024173 0.025893 0
-0.020479 0.018627 0
-0.018004 0.012457 0
-0.016546 0.006865 0
-0.015900 0.001479 0
-0.015857 -0.003938 0
-0.016140 -0.009575 0
-0.016518 -0.015651 0
-0.016832 -0.022362 0
-0.016923 -0.029859 0
-0.016664 -0.038269 0
-0.015990 -0.047721 0
-0.014936 -0.058377 0
-0.013678 -0.070535 0
-0.012528 -0.084844 0
-0.011874 -0.102561 0
-0.012021 -0.125714 0
-0.012976 -0.156840 0
-0.014343 -0.198061 0
-0.015559 -0.250106 0
-0.016297 -0.312314 0
-0.016649 -0.384614 0
-0.016662 -0.466749 0
-0.012507 -0.495755 0
-0.000153 0.000025 0
0.000000 0.240738 0
0.000000 -0.000018 0
-0.014423 0.292265 0
-0.032946 0.331236 0
-0.048136 0.341253 0
-0.058883 0.335524 0
-0.064953 0.315265 0
-0.066599 0.283668 0
-0.064433 0.244947 0
-0.059273 0.203566 0
-0.051982 0.163429 0
-0.043374 0.127331 0
-0.034157 0.096824 0
-0.024922 0.072335 0
-0.016117 0.053534 0
-0.008482 0.039564 0
-0.002262 0.029261 0
0.002554 0.021603 0
0.006034 0.015669 0
0.008322 0.010645 0
0.009587 0.005999 0
0.010007 0.001366 0
0.009756 -0.003528 0
0.009057 -0.008897 0
0.008132 -0.014920 0
0.007181 -0.021754 0
0.006386 -0.029529 0
0.005891 -0.038325 0
0.005774 -0.048186 0
0.006007 -0.059150 0
0.006425 -0.071373 0
0.006726 -0.085394 0
0.006546 -0.102469 0
0.005605 -0.124808 0
0.003901 -0.155282 0
0.001766 -0.196276 0
-0.000411 -0.248459 0
-0.002558 -0.310865 0
-0.004777 -0.383193 0
-0.007368 -0.466889 0
-0.007559 -0.501509 0
-0.000123 0.000024 0
0.000000 0.245621 0
0.000000 -0.000016 0
-0.006300 0.304899 0
-0.018115 0.344991 0
-0.028072 0.351854 0
-0.035038 0.342300 0
-0.038777 0.318180 0
-0.039392 0.283049 0
-0.037237 0.241362 0
-0.032815 0.197688 0
-0.026666 0.155951 0
-0.019204 0.118897 0
-0.010852 0.087972 0
-0.002278 0.063495 0
0.005887 0.045400 0
0.013038 0.032770 0
0.018941 0.023914 0
0.023547 0.017597 0
0.026971 0.012859 0
0.029305 0.008904 0
0.030666 0.005180 0
0.031195 0.001310 0
0.031041 -0.002988 0
0.030358 -0.007950 0
0.029313 -0.013775 0
0.028096 -0.020617 0
0.026887 -0.028568 0
0.025834 -0.037656 0
0.025016 -0.047837 0
0.024407 -0.059028 0
0.023854 -0.071254 0
0.023098 -0.084966 0
0.021852 -0.101441 0
0.019932 -0.123070 0
0.017415 -0.153000 0
0.014588 -0.193749 0
0.011634 -0.245782 0
0.008397 -0.307947 0
0.004667 -0.379804 0
0.000118 -0.463967 0
-0.003560 -0.503122 0
-0.000101 0.000024 0
0.000000 0.248296 0
0.000000 -0.000014 0
0.001075 0.310381 0
-0.004277 0.353008 0
-0.009421 0.358176 0
-0.012996 0.346230 0
-0.014765 0.319618 0
-0.014700 0.282128 0
-0.012916 0.238370 0
-0.009599 0.192995 0
-0.004957 0.149818 0
0.001004 0.111517 0
0.007958 0.079898 0
0.015309 0.055596 0
0.022305 0.038218 0
0.028739 0.026510 0
0.034354 0.018752 0
0.038971 0.013573 0
0.042577 0.009911 0
0.045204 0.006950 0
0.046924 0.004110 0
0.047842 0.000991 0
0.048083 -0.002690 0
0.047765 -0.007170 0
0.047001 -0.012659 0
0.045915 -0.019328 0
0.044644 -0.027266 0
0.043306 -0.036454 0
0.041960 -0.046760 0
0.040566 -0.057987 0
0.038998 -0.070064 0
0.037071 -0.083392 0
0.034623 -0.099303 0
0.031631 -0.120371 0
0.028295 -0.149938 0
0.024860 -0.190495 0
0.021276 -0.242268 0
0.017190 -0.303898 0
0.012203 -0.374914 0
0.006017 -0.458662 0
-0.000277 -0.501391 0
-0.000084 0.000023 0
0.000000 0.249180 0
0.000000 -0.000012 0
0.007760 0.309175 0
0.008679 0.355487 0
0.008054 0.360574 0
0.007619 0.347644 0
0.007617 0.319884 0
0.008161 0.281200 0
0.009334 0.236260 0
0.011236 0.189729 0
0.014005 0.145348 0
0.017836 0.105982 0
0.022546 0.073667 0
0.027932 0.049149 0
0.033566 0.031970 0
0.039208 0.020721 0
0.044514 0.013683 0
0.049201 0.009375 0
0.053122 0.006626 0
0.056221 0.004557 0
0.058508 0.002542 0
0.060044 0.000151 0
0.060914 -0.002911 0
0.061207 -0.006868 0
0.060998 -0.011926 0
0.060352 -0.018260 0
0.059331 -0.025959 0
0.057980 -0.034972 0
0.056300 -0.045098 0
0.054233 -0.056066 0
0.051690 -0.067759 0
0.048596 -0.080591 0
0.044961 -0.096000 0
0.040980 -0.116742 0
0.036997 -0.146230 0
0.033172 -0.186730 0
0.029175 -0.238111 0
0.024394 -0.298874 0
0.018329 -0.368631 0
0.010667 -0.451487 0
0.002415 -0.497106 0
-0.000070 0.000022 0
0.000000 0.248572 0
0.000000 -0.000010 0
0.014041 0.301702 0
0.020943 0.352714 0
0.024639 0.359237 0
0.027194 0.346667 0
0.028887 0.319076 0
0.029854 0.280411 0
0.030310 0.235295 0
0.030570 0.188324 0
0.031056 0.143218 0
0.032129 0.102976 0
0.034045 0.069803 0
0.036930 0.044576 0
0.040729 0.026941 0
0.045223 0.015562 0
0.050003 0.008759 0
0.054664 0.004965 0
0.058914 0.002891 0
0.062575 0.001564 0
0.065566 0.000287 0
0.067878 -0.001414 0
0.069543 -0.003853 0
0.070610 -0.007253 0
0.071120 -0.011804 0
0.071089 -0.017662 0
0.070502 -0.024894 0
0.069317 -0.033422 0
0.067465 -0.043012 0
0.064875 -0.053378 0
0.061508 -0.064428 0
0.057419 -0.076662 0
0.052831 -0.091686 0
0.048177 -0.112407 0
0.043902 -0.142131 0
0.039980 -0.182673 0
0.035764 -0.233490 0
0.030438 -0.293053 0
0.023446 -0.361186 0
0.014517 -0.442747 0
0.004613 -0.490724 0
-0.000061 0.000021 0
0.000000 0.246763 0
0.000000 -0.000008 0
0.020032 0.288233 0
0.032730 0.344889 0
0.040615 0.354323 0
0.046044 0.343397 0
0.049412 0.317223 0
0.050863 0.279776 0
0.050680 0.235544 0
0.049318 0.188984 0
0.047393 0.143789 0
0.045455 0.102992 0
0.044138 0.068866 0
0.043955 0.042465 0
0.045233 0.023678 0
0.047940 0.011447 0
0.051703 0.004242 0
0.056013 0.000463 0
0.060417 -0.001285 0
0.064582 -0.002095 0
0.068297 -0.002762 0
0.071449 -0.003827 0
0.073993 -0.005643 0
0.075919 -0.008445 0
0.077220 -0.012405 0
0.077862 -0.017641 0
0.077767 -0.024186 0
0.076826 -0.031935 0
0.074925 -0.040656 0
0.071993 -0.050109 0
0.068060 -0.060304 0
0.063333 -0.071913 0
0.058264 -0.086757 0
0.053494 -0.107813 0
0.049433 -0.138034 0
0.045747 -0.178592 0
0.041482 -0.228568 0
0.035706 -0.286556 0
0.027880 -0.352710 0
0.017805 -0.432655 0
0.006468 -0.482589 0
-0.000055 0.000020 0
0.000000 0.243957 0
0.000000 -0.000006 0
0.025731 0.268972 0
0.044090 0.332131 0
0.056112 0.345922 0
0.064369 0.337870 0
0.069467 0.314256 0
0.071589 0.279143 0
0.071038 0.236840 0
0.068344 0.191611 0
0.064226 0.147081 0
0.059401 0.106231 0
0.054738 0.071302 0
0.051074 0.043481 0
0.049103 0.022956 0
0.049149 0.009091 0
0.051072 0.000687 0
0.054365 -0.003749 0
0.058441 -0.005678 0
0.062800 -0.006316 0
0.067063 -0.006580 0
0.070972 -0.007110 0
0.074365 -0.008324 0
0.077143 -0.010481 0
0.079227 -0.013747 0
0.080527 -0.018208 0
0.080919 -0.023859 0
0.080259 -0.030581 0
0.078426 -0.038179 0
0.075384 -0.046513 0
0.071265 -0.055768 0
0.066453 -0.066866 0
0.061611 -0.081847 0
0.057452 -0.103576 0
0.054145 -0.134384 0
0.050962 -0.174722 0
0.046735 -0.223449 0
0.040534 -0.279450 0
0.031903 -0.343285 0
0.020744 -0.421336 0
0.008098 -0.472919 0
-0.000052 0.000019 0
0.000000 0.240293 0
0.000000 -0.000004 0
0.031024 0.244142 0
0.054884 0.314508 0
0.071053 0.334044 0
0.082176 0.330042 0
0.089148 0.310003 0
0.092238 0.278205 0
0.091760 0.238789 0
0.088262 0.195796 0
0.082502 0.152733 0
0.075301 0.112481 0
0.067639 0.077193 0
0.060523 0.048100 0
0.054885 0.025603 0
0.051419 0.009478 0
0.050420 -0.000974 0
0.051672 -0.006905 0
0.054542 -0.009720 0
0.058407 -0.010717 0
0.062715 -0.010933 0
0.067034 -0.011128 0
0.071043 -0.011814 0
0.074518 -0.013307 0
0.077282 -0.015789 0
0.079176 -0.019333 0
0.080039 -0.023918 0
0.079724 -0.029441 0
0.078141 -0.035781 0
0.075340 -0.042949 0
0.071590 -0.051372 0
0.067456 -0.062258 0
0.063711 -0.077757 0
0.060894 -0.100348 0
0.058731 -0.131544 0
0.056143 -0.171182 0
0.051910 -0.218139 0
0.045216 -0.271723 0
0.035739 -0.332921 0
0.023494 -0.408850 0
0.009597 -0.461844 0
-0.000051 0.000018 0
0.000000 0.235857 0
0.000000 -0.000002 0
0.035644 0.214088 0
0.064738 0.292101 0
0.085090 0.318631 0
0.099212 0.319775 0
0.108297 0.304194 0
0.112750 0.276531 0
0.112904 0.240816 0
0.109297 0.200870 0
0.102683 0.160043 0
0.093931 0.121093 0
0.084053 0.086080 0
0.074093 0.056236 0
0.065045 0.032060 0
0.057778 0.013556 0
0.052961 0.000434 0
0.050948 -0.007872 0
0.051409 -0.012413 0
0.053682 -0.014489 0
0.057108 -0.015207 0
0.061100 -0.015438 0
0.065174 -0.015808 0
0.068949 -0.016719 0
0.072132 -0.018405 0
0.074483 -0.020966 0
0.075806 -0.024407 0
0.075971 -0.028683 0
0.074958 -0.033795 0
0.072932 -0.039962 0
0.070314 -0.047885 0
0.067766 -0.058988 0
0.065928 -0.075285 0
0.064902 -0.098596 0
0.063934 -0.129633 0
0.061781 -0.167901 0
0.057346 -0.212523 0
0.049999 -0.263279 0
0.039564 -0.321563 0
0.026175 -0.395194 0
0.011035 -0.449425 0
-0.000052 0.000017 0
0.000000 0.230693 0
0.000000 0.000000 0
0.039187 0.179405 0
0.073011 0.265062 0
0.097550 0.299570 0
0.114904 0.306835 0
0.126452 0.296465 0
0.132752 0.273597 0
0.134171 0.242241 0
0.131232 0.206017 0
0.124663 0.168099 0
0.115346 0.131111 0
0.104285 0.097031 0
0.092512 0.067108 0
0.080990 0.041918 0
0.070567 0.021561 0
0.061987 0.005856 0
0.055872 -0.005353 0
0.052750 -0.012454 0
0.052163 -0.016417 0
0.053488 -0.018352 0
0.056073 -0.019194 0
0.059318 -0.019663 0
0.062712 -0.020266 0
0.065843 -0.021322 0
0.068395 -0.023007 0
0.070146 -0.025407 0
0.070993 -0.028594 0
0.070992 -0.032742 0
0.070412 -0.038305 0
0.069728 -0.046206 0
0.069475 -0.057873 0
0.069890 -0.074893 0
0.070543 -0.098353 0
0.070395 -0.128423 0
0.068272 -0.164594 0
0.063303 -0.206358 0
0.055058 -0.253941 0
0.043497 -0.309097 0
0.028863 -0.380321 0
0.012456 -0.435670 0
-0.000053 0.000016 0
0.000000 0.224819 0
0.000000 0.000002 0
0.041040 0.141077 0
0.078714 0.233739 0
0.107365 0.276737 0
0.128305 0.290872 0
0.142817 0.286347 0
0.151548 0.268812 0
0.154913 0.242336 0
0.153431 0.210378 0
0.147810 0.175928 0
0.138921 0.141472 0
0.127751 0.108914 0
0.115311 0.079531 0
0.102535 0.054005 0
0.090222 0.032559 0
0.079036 0.015130 0
0.069526 0.001365 0
0.062292 -0.008705 0
0.057968 -0.015226 0
0.056126 -0.019117 0
0.056207 -0.021268 0
0.057613 -0.022446 0
0.059786 -0.023245 0
0.062250 -0.024089 0
0.064640 -0.025269 0
0.066718 -0.027004 0
0.068403 -0.029529 0