# vtk DataFile Version 2.0
generated by CFD-lab course output (written by Tobias Neckel) 
ASCII

DATASET STRUCTURED_GRID
DIMENSIONS  42 42 1 
POINTS 1764 float

0.150000 0.150000 0
0.167857 0.150000 0
0.185714 0.150000 0
0.203571 0.150000 0
0.221429 0.150000 0
0.239286 0.150000 0
0.257143 0.150000 0
0.275000 0.150000 0
0.292857 0.150000 0
0.310714 0.150000 0
0.328571 0.150000 0
0.346429 0.150000 0
0.364286 0.150000 0
0.382143 0.150000 0
0.400000 0.150000 0
0.417857 0.150000 0
0.435714 0.150000 0
0.453571 0.150000 0
0.471429 0.150000 0
0.489286 0.150000 0
0.507143 0.150000 0
0.525000 0.150000 0
0.542857 0.150000 0
0.560714 0.150000 0
0.578571 0.150000 0
0.596429 0.150000 0
0.614286 0.150000 0
0.632143 0.150000 0
0.650000 0.150000 0
0.667857 0.150000 0
0.685714 0.150000 0
0.703571 0.150000 0
0.721429 0.150000 0
0.739286 0.150000 0
0.757143 0.150000 0
0.775000 0.150000 0
0.792857 0.150000 0
0.810714 0.150000 0
0.828571 0.150000 0
0.846429 0.150000 0
0.864286 0.150000 0
0.882143 0.150000 0
0.150000 0.167857 0
0.167857 0.167857 0
0.185714 0.167857 0
0.203571 0.167857 0
0.221429 0.167857 0
0.239286 0.167857 0
0.257143 0.167857 0
0.275000 0.167857 0
0.292857 0.167857 0
0.310714 0.167857 0
0.328571 0.167857 0
0.346429 0.167857 0
0.364286 0.167857 0
0.382143 0.167857 0
0.400000 0.167857 0
0.417857 0.167857 0
0.435714 0.167857 0
0.453571 0.167857 0
0.471429 0.167857 0
0.489286 0.167857 0
0.507143 0.167857 0
0.525000 0.167857 0
0.542857 0.167857 0
0.560714 0.167857 0
0.578571 0.167857 0
0.596429 0.167857 0
0.614286 0.167857 0
0.632143 0.167857 0
0.650000 0.167857 0
0.667857 0.167857 0
0.685714 0.167857 0
0.703571 0.167857 0
0.721429 0.167857 0
0.739286 0.167857 0
0.757143 0.167857 0
0.775000 0.167857 0
0.792857 0.167857 0
0.810714 0.167857 0
0.828571 0.167857 0
0.846429 0.167857 0
0.864286 0.167857 0
0.882143 0.167857 0
0.150000 0.185714 0
0.167857 0.185714 0
0.185714 0.185714 0
0.203571 0.185714 0
0.221429 0.185714 0
0.239286 0.185714 0
0.257143 0.185714 0
0.275000 0.185714 0
0.292857 0.185714 0
0.310714 0.185714 0
0.328571 0.185714 0
0.346429 0.185714 0
0.364286 0.185714 0
0.382143 0.185714 0
0.400000 0.185714 0
0.417857 0.185714 0
0.435714 0.185714 0
0.453571 0.185714 0
0.471429 0.185714 0
0.489286 0.185714 0
0.507143 0.185714 0
0.525000 0.185714 0
0.542857 0.185714 0
0.560714 0.185714 0
0.578571 0.185714 0
0.596429 0.185714 0
0.614286 0.185714 0
0.632143 0.185714 0
0.650000 0.185714 0
0.667857 0.185714 0
0.685714 0.185714 0
0.703571 0.185714 0
0.721429 0.185714 0
0.739286 0.185714 0
0.757143 0.185714 0
0.775000 0.185714 0
0.792857 0.185714 0
0.810714 0.185714 0
0.828571 0.185714 0
0.846429 0.185714 0
0.864286 0.185714 0
0.882143 0.185714 0
0.150000 0.203571 0
0.167857 0.203571 0
0.185714 0.203571 0
0.203571 0.203571 0
0.221429 0.203571 0
0.239286 0.203571 0
0.257143 0.203571 0
0.275000 0.203571 0
0.292857 0.203571 0
0.310714 0.203571 0
0.328571 0.203571 0
0.346429 0.203571 0
0.364286 0.203571 0
0.382143 0.203571 0
0.400000 0.203571 0
0.417857 0.203571 0
0.435714 0.203571 0
0.453571 0.203571 0
0.471429 0.203571 0
0.489286 0.203571 0
0.507143 0.203571 0
0.525000 0.203571 0
0.542857 0.203571 0
0.560714 0.203571 0
0.578571 0.203571 0
0.596429 0.203571 0
0.614286 0.203571 0
0.632143 0.203571 0
0.650000 0.203571 0
0.667857 0.203571 0
0.685714 0.203571 0
0.703571 0.203571 0
0.721429 0.203571 0
0.739286 0.203571 0
0.757143 0.203571 0
0.775000 0.203571 0
0.792857 0.203571 0
0.810714 0.203571 0
0.828571 0.203571 0
0.846429 0.203571 0
0.864286 0.203571 0
0.882143 0.203571 0
0.150000 0.221429 0
0.167857 0.221429 0
0.185714 0.221429 0
0.203571 0.221429 0
0.221429 0.221429 0
0.239286 0.221429 0
0.257143 0.221429 0
0.275000 0.221429 0
0.292857 0.221429 0
0.310714 0.221429 0
0.328571 0.221429 0
0.346429 0.221429 0
0.364286 0.221429 0
0.382143 0.221429 0
0.400000 0.221429 0
0.417857 0.221429 0
0.435714 0.221429 0
0.453571 0.221429 0
0.471429 0.221429 0
0.489286 0.221429 0
0.507143 0.221429 0
0.525000 0.221429 0
0.542857 0.221429 0
0.560714 0.221429 0
0.578571 0.221429 0
0.596429 0.221429 0
0.614286 0.221429 0
0.632143 0.221429 0
0.650000 0.221429 0
0.667857 0.221429 0
0.685714 0.221429 0
0.703571 0.221429 0
0.721429 0.221429 0
0.739286 0.221429 0
0.757143 0.221429 0
0.775000 0.221429 0
0.792857 0.221429 0
0.810714 0.221429 0
0.828571 0.221429 0
0.846429 0.221429 0
0.864286 0.221429 0
0.882143 0.221429 0
0.150000 0.239286 0
0.167857 0.239286 0
0.185714 0.239286 0
0.203571 0.239286 0
0.221429 0.239286 0
0.239286 0.239286 0
0.257143 0.239286 0
0.275000 0.239286 0
0.292857 0.239286 0
0.310714 0.239286 0
0.328571 0.239286 0
0.346429 0.239286 0
0.364286 0.239286 0
0.382143 0.239286 0
0.400000 0.239286 0
0.417857 0.239286 0
0.435714 0.239286 0
0.453571 0.239286 0
0.471429 0.239286 0
0.489286 0.239286 0
0.507143 0.239286 0
0.525000 0.239286 0
0.542857 0.239286 0
0.560714 0.239286 0
0.578571 0.239286 0
0.596429 0.239286 0
0.614286 0.239286 0
0.632143 0.239286 0
0.650000 0.239286 0
0.667857 0.239286 0
0.685714 0.239286 0
0.703571 0.239286 0
0.721429 0.239286 0
0.739286 0.239286 0
0.757143 0.239286 0
0.775000 0.239286 0
0.792857 0.239286 0
0.810714 0.239286 0
0.828571 0.239286 0
0.846429 0.239286 0
0.864286 0.239286 0
0.882143 0.239286 0
0.150000 0.257143 0
0.167857 0.257143 0
0.185714 0.257143 0
0.203571 0.257143 0
0.221429 0.257143 0
0.239286 0.257143 0
0.257143 0.257143 0
0.275000 0.257143 0
0.292857 0.257143 0
0.310714 0.257143 0
0.328571 0.257143 0
0.346429 0.257143 0
0.364286 0.257143 0
0.382143 0.257143 0
0.400000 0.257143 0
0.417857 0.257143 0
0.435714 0.257143 0
0.453571 0.257143 0
0.471429 0.257143 0
0.489286 0.257143 0
0.507143 0.257143 0
0.525000 0.257143 0
0.542857 0.257143 0
0.560714 0.257143 0
0.578571 0.257143 0
0.596429 0.257143 0
0.614286 0.257143 0
0.632143 0.257143 0
0.650000 0.257143 0
0.667857 0.257143 0
0.685714 0.257143 0
0.703571 0.257143 0
0.721429 0.257143 0
0.739286 0.257143 0
0.757143 0.257143 0
0.775000 0.257143 0
0.792857 0.257143 0
0.810714 0.257143 0
0.828571 0.257143 0
0.846429 0.257143 0
0.864286 0.257143 0
0.882143 0.257143 0
0.150000 0.275000 0
0.167857 0.275000 0
0.185714 0.275000 0
0.203571 0.275000 0
0.221429 0.275000 0
0.239286 0.275000 0
0.257143 0.275000 0
0.275000 0.275000 0
0.292857 0.275000 0
0.310714 0.275000 0
0.328571 0.275000 0
0.346429 0.275000 0
0.364286 0.275000 0
0.382143 0.275000 0
0.400000 0.275000 0
0.417857 0.275000 0
0.435714 0.275000 0
0.453571 0.275000 0
0.471429 0.275000 0
0.489286 0.275000 0
0.507143 0.275000 0
0.525000 0.275000 0
0.542857 0.275000 0
0.560714 0.275000 0
0.578571 0.275000 0
0.596429 0.275000 0
0.614286 0.275000 0
0.632143 0.275000 0
0.650000 0.275000 0
0.667857 0.275000 0
0.685714 0.275000 0
0.703571 0.275000 0
0.721429 0.275000 0
0.739286 0.275000 0
0.757143 0.275000 0
0.775000 0.275000 0
0.792857 0.275000 0
0.810714 0.275000 0
0.828571 0.275000 0
0.846429 0.275000 0
0.864286 0.275000 0
0.882143 0.275000 0
0.150000 0.292857 0
0.167857 0.292857 0
0.185714 0.292857 0
0.203571 0.292857 0
0.221429 0.292857 0
0.239286 0.292857 0
0.257143 0.292857 0
0.275000 0.292857 0
0.292857 0.292857 0
0.310714 0.292857 0
0.328571 0.292857 0
0.346429 0.292857 0
0.364286 0.292857 0
0.382143 0.292857 0
0.400000 0.292857 0
0.417857 0.292857 0
0.435714 0.292857 0
0.453571 0.292857 0
0.471429 0.292857 0
0.489286 0.292857 0
0.507143 0.292857 0
0.525000 0.292857 0
0.542857 0.292857 0
0.560714 0.292857 0
0.578571 0.292857 0
0.596429 0.292857 0
0.614286 0.292857 0
0.632143 0.292857 0
0.650000 0.292857 0
0.667857 0.292857 0
0.685714 0.292857 0
0.703571 0.292857 0
0.721429 0.292857 0
0.739286 0.292857 0
0.757143 0.292857 0
0.775000 0.292857 0
0.792857 0.292857 0
0.810714 0.292857 0
0.828571 0.292857 0
0.846429 0.292857 0
0.864286 0.292857 0
0.882143 0.292857 0
0.150000 0.310714 0
0.167857 0.310714 0
0.185714 0.310714 0
0.203571 0.310714 0
0.221429 0.310714 0
0.239286 0.310714 0
0.257143 0.310714 0
0.275000 0.310714 0
0.292857 0.310714 0
0.310714 0.310714 0
0.328571 0.310714 0
0.346429 0.310714 0
0.364286 0.310714 0
0.382143 0.310714 0
0.400000 0.310714 0
0.417857 0.310714 0
0.435714 0.310714 0
0.453571 0.310714 0
0.471429 0.310714 0
0.489286 0.310714 0
0.507143 0.310714 0
0.525000 0.310714 0
0.542857 0.310714 0
0.560714 0.310714 0
0.578571 0.310714 0
0.596429 0.310714 0
0.614286 0.310714 0
0.632143 0.310714 0
0.650000 0.310714 0
0.667857 0.310714 0
0.685714 0.310714 0
0.703571 0.310714 0
0.721429 0.310714 0
0.739286 0.310714 0
0.757143 0.310714 0
0.775000 0.310714 0
0.792857 0.310714 0
0.810714 0.310714 0
0.828571 0.310714 0
0.846429 0.310714 0
0.864286 0.310714 0
0.882143 0.310714 0
0.150000 0.328571 0
0.167857 0.328571 0
0.185714 0.328571 0
0.203571 0.328571 0
0.221429 0.328571 0
0.239286 0.328571 0
0.257143 0.328571 0
0.275000 0.328571 0
0.292857 0.328571 0
0.310714 0.328571 0
0.328571 0.328571 0
0.346429 0.328571 0
0.364286 0.328571 0
0.382143 0.328571 0
0.400000 0.328571 0
0.417857 0.328571 0
0.435714 0.328571 0
0.453571 0.328571 0
0.471429 0.328571 0
0.489286 0.328571 0
0.507143 0.328571 0
0.525000 0.328571 0
0.542857 0.328571 0
0.560714 0.328571 0
0.578571 0.328571 0
0.596429 0.328571 0
0.614286 0.328571 0
0.632143 0.328571 0
0.650000 0.328571 0
0.667857 0.328571 0
0.685714 0.328571 0
0.703571 0.328571 0
0.721429 0.328571 0
0.739286 0.328571 0
0.757143 0.328571 0
0.775000 0.328571 0
0.792857 0.328571 0
0.810714 0.328571 0
0.828571 0.328571 0
0.846429 0.328571 0
0.864286 0.328571 0
0.882143 0.328571 0
0.150000 0.346429 0
0.167857 0.346429 0
0.185714 0.346429 0
0.203571 0.346429 0
0.221429 0.346429 0
0.239286 0.346429 0
0.257143 0.346429 0
0.275000 0.346429 0
0.292857 0.346429 0
0.310714 0.346429 0
0.328571 0.346429 0
0.346429 0.346429 0
0.364286 0.346429 0
0.382143 0.346429 0
0.400000 0.346429 0
0.417857 0.346429 0
0.435714 0.346429 0
0.453571 0.346429 0
0.471429 0.346429 0
0.489286 0.346429 0
0.507143 0.346429 0
0.525000 0.346429 0
0.542857 0.346429 0
0.560714 0.346429 0
0.578571 0.346429 0
0.596429 0.346429 0
0.614286 0.346429 0
0.632143 0.346429 0
0.650000 0.346429 0
[...]
POINT_DATA 1764 

VECTORS velocity float
0.000000 0.000000 0
-0.000002 0.000000 0
-0.000003 0.000000 0
0.000001 0.000000 0
-0.000000 0.000000 0
-0.000009 0.000000 0
0.000013 0.000000 0
0.000030 0.000000 0
0.000035 0.000000 0
0.000038 0.000000 0
0.000039 0.000000 0
0.000038 0.000000 0
0.000036 0.000000 0
0.000033 0.000000 0
0.000031 0.000000 0
0.000028 0.000000 0
0.000026 0.000000 0
0.000024 0.000000 0
0.000022 0.000000 0
0.000021 0.000000 0
0.000021 0.000000 0
0.000020 0.000000 0
0.000020 0.000000 0
0.000020 0.000000 0
0.000021 0.000000 0
0.000021 0.000000 0
0.000022 0.000000 0
0.000022 0.000000 0
0.000023 0.000000 0
0.000024 0.000000 0
0.000024 0.000000 0
0.000025 0.000000 0
0.000026 0.000000 0
0.000027 0.000000 0
0.000027 0.000000 0
0.000028 0.000000 0
0.000027 0.000000 0
0.000025 0.000000 0
0.000020 0.000000 0
0.000012 0.000000 0
0.000000 0.000000 0
0.000000 0.000000 0
0.000000 0.000002 0
0.059205 -0.054062 0
0.090411 -0.021738 0
0.099250 0.005359 0
0.075898 0.006197 0
0.037627 0.002723 0
-0.010165 0.033587 0
-0.071922 0.065308 0
-0.139995 0.071881 0
-0.206302 0.068346 0
-0.267642 0.063035 0
-0.322190 0.056205 0
-0.369372 0.048987 0
-0.409376 0.042044 0
-0.442853 0.035780 0
-0.470660 0.030369 0
-0.493692 0.025817 0
-0.512761 0.022033 0
-0.528553 0.018886 0
-0.541607 0.016235 0
-0.552324 0.013947 0
-0.560980 0.011905 0
-0.567743 0.010007 0
-0.572682 0.008139 0
-0.575765 0.006183 0
-0.576867 0.004033 0
-0.575758 0.001561 0
-0.572244 -0.001331 0
-0.565934 -0.004755 0
-0.556311 -0.008858 0
-0.542670 -0.013873 0
-0.524070 -0.020115 0
-0.499287 -0.027928 0
-0.466771 -0.037696 0
-0.424636 -0.049739 0
-0.370764 -0.064081 0
-0.303220 -0.079801 0
-0.221424 -0.093599 0
-0.129093 -0.095476 0
-0.041371 -0.052956 0
-0.000004 0.000012 0
0.000000 0.007190 0
0.000000 0.000002 0
0.028677 -0.090411 0
0.037015 -0.040046 0
0.013562 0.014513 0
-0.025629 0.061623 0
-0.096417 0.086063 0
-0.172093 0.109548 0
-0.232973 0.129830 0
-0.287952 0.134381 0
-0.339938 0.127647 0
-0.385871 0.115888 0
-0.425038 0.101730 0
-0.457482 0.087186 0
-0.483794 0.073481 0
-0.504806 0.061284 0
-0.521398 0.050840 0
-0.534377 0.042101 0
-0.544428 0.034861 0
-0.552091 0.028845 0
-0.557767 0.023771 0
-0.561737 0.019373 0
-0.564175 0.015419 0
-0.565171 0.011702 0
-0.564729 0.008022 0
-0.562812 0.004184 0
-0.559317 -0.000007 0
-0.554185 -0.004622 0
-0.547208 -0.009824 0
-0.538092 -0.015934 0
-0.526432 -0.023264 0
-0.511665 -0.032241 0
-0.493094 -0.043383 0
-0.469814 -0.057299 0
-0.440699 -0.074651 0
-0.404360 -0.096007 0
-0.359179 -0.121416 0
-0.303496 -0.149340 0
-0.236159 -0.174126 0
-0.158138 -0.180053 0
-0.075405 -0.129093 0
-0.000182 0.000020 0
0.000000 0.041391 0
0.000000 -0.000002 0
-0.017842 -0.091077 0
-0.049842 -0.006623 0
-0.100363 0.068003 0
-0.148924 0.116176 0
-0.203550 0.149188 0
-0.260006 0.170143 0
-0.307201 0.181168 0
-0.345795 0.178846 0
-0.378279 0.166265 0
-0.404594 0.148135 0
-0.425259 0.127816 0
-0.441057 0.107743 0
-0.452919 0.089368 0
-0.461739 0.073384 0
-0.468270 0.059940 0
-0.473091 0.048847 0
-0.476615 0.039746 0
-0.479114 0.032225 0
-0.480749 0.025881 0
-0.481600 0.020356 0
-0.481682 0.015339 0
-0.480964 0.010561 0
-0.479380 0.005780 0
-0.476855 0.000771 0
-0.473312 -0.004594 0
-0.468670 -0.010548 0
-0.462627 -0.017424 0
-0.454945 -0.025530 0
-0.445302 -0.035284 0
-0.433305 -0.047212 0
-0.418480 -0.061966 0
-0.400236 -0.080323 0
-0.377845 -0.103151 0
-0.350386 -0.131259 0
-0.316673 -0.164945 0
-0.275121 -0.202821 0
-0.223611 -0.238956 0
-0.159656 -0.256230 0
-0.081907 -0.211094 0
-0.000312 0.000026 0
0.000000 0.082609 0
0.000000 -0.000010 0
-0.056413 -0.040568 0
-0.115684 0.042475 0
-0.162312 0.113594 0
-0.209402 0.164810 0
-0.253421 0.197145 0
-0.293552 0.213200 0
-0.325062 0.215619 0
-0.347955 0.205459 0
-0.364092 0.186446 0
-0.374781 0.162867 0
-0.381404 0.138193 0
-0.385225 0.114846 0
-0.387314 0.094162 0
-0.388464 0.076636 0
-0.389193 0.062192 0
-0.389784 0.050446 0
-0.390350 0.040883 0
-0.390894 0.032979 0
-0.391347 0.026257 0
-0.391603 0.020306 0
-0.391534 0.014783 0
-0.391004 0.009400 0
-0.389881 0.003914 0
-0.388042 -0.001883 0
-0.385390 -0.008193 0
-0.381690 -0.015308 0
-0.376800 -0.023548 0
-0.370532 -0.033259 0
-0.362672 -0.044904 0
-0.352970 -0.059063 0
-0.341133 -0.076452 0
-0.326818 -0.097934 0
-0.309623 -0.124501 0
-0.289043 -0.157178 0
-0.264336 -0.196681 0
-0.234188 -0.242402 0
-0.196065 -0.289591 0
-0.145487 -0.321757 0
-0.077256 -0.288749 0
-0.000386 0.000030 0
0.000000 0.123308 0
0.000000 -0.000018 0
-0.070173 0.024607 0
-0.132372 0.099276 0
-0.183432 0.161721 0
-0.226893 0.207285 0
-0.262400 0.233337 0
-0.290126 0.241784 0
-0.308836 0.235571 0
-0.319409 0.217876 0
-0.323793 0.193091 0
-0.323919 0.165446 0
-0.321595 0.138260 0
-0.318268 0.113653 0
-0.314962 0.092606 0
-0.312274 0.075263 0
-0.310450 0.061260 0
-0.309498 0.050004 0
-0.309280 0.040856 0
-0.309589 0.033222 0
-0.310189 0.026590 0
-0.310845 0.020543 0
-0.311336 0.014740 0
-0.311458 0.008907 0
-0.311033 0.002818 0
-0.309908 -0.003720 0
-0.307944 -0.010946 0
-0.304984 -0.019138 0
-0.300940 -0.028583 0
-0.295695 -0.039658 0
-0.289122 -0.052846 0
-0.281066 -0.068752 0
-0.271350 -0.088119 0
-0.259775 -0.111833 0
-0.246133 -0.140925 0
-0.230200 -0.176545 0
-0.211633 -0.219800 0
-0.189618 -0.271093 0
-0.161973 -0.327658 0
-0.123715 -0.375039 0
-0.067444 -0.356581 0
-0.000408 0.000031 0
0.000000 0.159870 0
0.000000 -0.000020 0
-0.069116 0.091804 0
-0.129336 0.155734 0
-0.178929 0.208115 0
-0.217668 0.243778 0
-0.245971 0.260378 0
-0.264604 0.259636 0
-0.274115 0.244901 0
-0.276183 0.220416 0
-0.273029 0.190956 0
-0.266869 0.160669 0
-0.259641 0.132543 0
-0.252770 0.108214 0
-0.247122 0.088168 0
-0.243064 0.072123 0
-0.240606 0.059416 0
-0.239539 0.049276 0
-0.239554 0.040974 0
-0.240311 0.033888 0
-0.241478 0.027514 0
-0.242749 0.021453 0
-0.243852 0.015395 0
-0.244552 0.009097 0
-0.244656 0.002364 0
-0.244006 -0.004972 0
-0.242474 -0.013117 0
-0.240003 -0.022312 0
-0.236550 -0.032837 0
-0.232073 -0.045077 0
-0.226517 -0.059533 0
-0.219798 -0.076834 0
-0.211800 -0.097743 0
-0.202378 -0.123151 0
-0.191381 -0.154077 0
-0.178693 -0.191679 0
-0.164215 -0.237263 0
-0.147640 -0.292062 0
-0.127623 -0.355494 0
-0.099829 -0.416287 0
-0.055806 -0.412464 0
-0.000391 0.000031 0
0.000000 0.190753 0
0.000000 -0.000021 0
-0.060408 0.153943 0
-0.115895 0.209089 0
-0.160577 0.250052 0
-0.193785 0.274327 0
-0.215913 0.280274 0
-0.227981 0.269928 0
-0.231348 0.247151 0
-0.228121 0.216790 0
-0.220678 0.183776 0
-0.211308 0.152058 0
-0.201903 0.124161 0
-0.193757 0.101134 0
-0.187543 0.082901 0
-0.183421 0.068747 0
-0.181217 0.057734 0
-0.180585 0.048953 0
-0.181118 0.041629 0
-0.182412 0.035146 0
-0.184092 0.029028 0
-0.185824 0.022916 0
-0.187320 0.016544 0
-0.188341 0.009712 0
-0.188696 0.002271 0
-0.188246 -0.005902 0
-0.186908 -0.014948 0
-0.184692 -0.025061 0
-0.181624 -0.036513 0
-0.177739 -0.049691 0
-0.173055 -0.065121 0
-0.167552 -0.083469 0
-0.161150 -0.105539 0
-0.153713 -0.132251 0
-0.145074 -0.164610 0
-0.135100 -0.203712 0
-0.123754 -0.250854 0
-0.111049 -0.307685 0
-0.096507 -0.375469 0
-0.077088 -0.446856 0
-0.044296 -0.456409 0
-0.000351 0.000031 0
0.000000 0.215675 0
0.000000 -0.000021 0
-0.050154 0.207699 0
-0.097888 0.255902 0
-0.135962 0.286006 0
-0.163341 0.299114 0
-0.180210 0.294574 0
-0.187596 0.275072 0
-0.187111 0.245042 0
-0.180948 0.209746 0
-0.171467 0.174143 0
-0.160871 0.141894 0
-0.150923 0.114992 0
-0.142753 0.093854 0
-0.136858 0.077831 0
-0.133235 0.065796 0
-0.131592 0.056580 0
-0.131505 0.049178 0
-0.132526 0.042802 0
-0.134230 0.036862 0
-0.136234 0.030925 0
-0.138203 0.024681 0
-0.139850 0.017912 0
-0.140942 0.010473 0
-0.141303 0.002269 0
-0.140824 -0.006760 0
-0.139468 -0.016671 0
-0.137308 -0.027596 0
-0.134446 -0.039790 0
-0.130996 -0.053646 0
-0.127053 -0.069720 0
-0.122654 -0.088740 0
-0.117751 -0.111582 0
-0.112202 -0.139226 0
-0.105805 -0.172690 0
-0.098368 -0.212999 0
-0.089825 -0.261314 0
-0.080302 -0.319310 0
-0.069915 -0.389456 0
-0.057033 -0.468497 0
-0.033908 -0.489552 0
-0.000300 0.000030 0
0.000000 0.235048 0
0.000000 -0.000020 0
-0.039479 0.251832 0
-0.078540 0.294897 0
-0.109543 0.315504 0
-0.131289 0.318576 0
-0.143776 0.304529 0
-0.147894 0.276829 0
-0.145191 0.240503 0
-0.137713 0.201146 0
-0.127636 0.163699 0
-0.116989 0.131515 0
-0.107370 0.106043 0
-0.099767 0.087068 0
-0.094540 0.073383 0
-0.091577 0.063481 0
-0.090511 0.056004 0
-0.090889 0.049887 0
-0.092258 0.044354 0
-0.094199 0.038854 0
-0.096341 0.033000 0
-0.098357 0.026532 0
-0.099973 0.019283 0
-0.100964 0.011165 0
-0.101171 0.002153 0
-0.100511 -0.007738 0
-0.099002 -0.018464 0
-0.096771 -0.030084 0
-0.093988 -0.042825 0
-0.090848 -0.057084 0
-0.087520 -0.073462 0
-0.084094 -0.092771 0
-0.080549 -0.115991 0
-0.076738 -0.144197 0
-0.072418 -0.178444 0
-0.067353 -0.219691 0
-0.061436 -0.268920 0
-0.054800 -0.327595 0
-0.047850 -0.398738 0
-0.040092 -0.482864 0
-0.025005 -0.513443 0
-0.000250 0.000029 0
0.000000 0.249581 0
0.000000 -0.000019 0
-0.029064 0.286238 0
-0.059559 0.325967 0
-0.083738 0.338755 0
-0.100362 0.333347 0
-0.109298 0.311178 0
-0.111230 0.276486 0
-0.107468 0.234860 0
-0.099755 0.192191 0
-0.089974 0.153419 0
-0.079914 0.121628 0
-0.071020 0.097771 0
-0.064178 0.081024 0
-0.059656 0.069640 0
-0.057276 0.061767 0
-0.056642 0.055893 0
-0.057305 0.050925 0
-0.058830 0.046112 0
-0.060825 0.040944 0
-0.062939 0.035083 0
-0.064865 0.028314 0
-0.066341 0.020519 0
-0.067153 0.011671 0
-0.067151 0.001817 0
-0.066275 -0.008928 0
-0.064591 -0.020412 0
-0.062262 -0.032610 0
-0.059516 -0.045712 0
-0.056619 -0.060114 0
-0.053806 -0.076474 0
-0.051220 -0.095710 0
-0.048865 -0.118938 0
-0.046584 -0.147358 0
-0.044111 -0.182075 0
-0.041179 -0.223981 0
-0.037667 -0.273866 0
-0.033702 -0.332896 0
-0.029764 -0.404164 0
-0.026103 -0.491342 0
-0.017594 -0.529644 0
-0.000204 0.000028 0
0.000000 0.260051 0
0.000000 -0.000017 0
-0.019278 0.311391 0
-0.041755 0.349572 0
-0.059681 0.356307 0
-0.071825 0.344136 0
-0.077967 0.315397 0
-0.078557 0.274999 0
-0.074572 0.229028 0
-0.067357 0.183651 0
-0.058424 0.143858 0
-0.049288 0.112561 0
-0.041248 0.090306 0
-0.035129 0.075704 0
-0.031167 0.066481 0
-0.029154 0.060467 0
-0.028708 0.056033 0
-0.029409 0.052075 0
-0.030865 0.047874 0
-0.032718 0.042962 0
-0.034655 0.037041 0
-0.036393 0.029934 0
-0.037689 0.021570 0
-0.038340 0.011975 0
-0.038192 0.001275 0
-0.037177 -0.010297 0
-0.035408 -0.022477 0
-0.033050 -0.035159 0
-0.030383 -0.048468 0
-0.027725 -0.062794 0
-0.025368 -0.078861 0
-0.023502 -0.097712 0
-0.022152 -0.120627 0
-0.021165 -0.148951 0
-0.020263 -0.183850 0
-0.019170 -0.226136 0
-0.017780 -0.276396 0
-0.016232 -0.335497 0
-0.014987 -0.406337 0
-0.014668 -0.495035 0
-0.011514 -0.539545 0
-0.000166 0.000027 0
0.000000 0.267173 0
0.000000 -0.000015 0
-0.010248 0.327993 0
-0.025409 0.366369 0
-0.037727 0.368825 0
-0.046018 0.351633 0
-0.050009 0.317910 0
-0.049909 0.273091 0
-0.046326 0.223660 0
-0.040152 0.176043 0
-0.032471 0.135351 0
-0.024478 0.104452 0
-0.017277 0.083611 0
-0.011727 0.070943 0
-0.008097 0.063665 0
-0.006172 0.059308 0
-0.005613 0.056149 0
-0.006067 0.053082 0
-0.007201 0.049421 0
-0.008709 0.044734 0
-0.010318 0.038758 0
-0.011782 0.031348 0
-0.012887 0.022466 0
-0.013449 0.012174 0
-0.013309 0.000654 0
-0.012313 -0.011713 0
-0.010595 -0.024538 0
-0.008342 -0.037635 0
-0.005863 -0.051038 0
-0.003511 -0.065128 0
-0.001609 -0.080697 0
-0.000377 -0.098927 0
0.000132 -0.121275 0
0.000061 -0.149247 0
-0.000318 -0.184071 0
-0.000753 -0.226464 0
-0.001174 -0.276804 0
-0.001751 -0.335688 0
-0.002902 -0.405728 0
-0.005345 -0.494815 0
-0.006545 -0.544312 0
-0.000136 0.000026 0
0.000000 0.271563 0
0.000000 -0.000013 0
-0.002113 0.336800 0
-0.010448 0.377051 0
-0.017753 0.376916 0
-0.022735 0.356417 0
-0.025076 0.319288 0
-0.024786 0.271316 0
-0.022112 0.219271 0
-0.017381 0.169797 0
-0.011235 0.128184 0
-0.004546 0.097368 0
0.001686 0.077555 0
0.006705 0.066523 0
0.010255 0.060926 0
0.012427 0.057984 0
0.013440 0.055928 0
0.013550 0.053663 0
0.013015 0.050516 0
0.012083 0.046079 0
0.010981 0.040114 0
0.009911 0.032503 0
0.009049 0.023237 0
0.008560 0.012397 0
0.008621 0.000139 0
0.009436 -0.013011 0
0.010920 -0.026448 0
0.012862 -0.039891 0
0.014967 -0.053298 0
0.016884 -0.067048 0
0.018270 -0.081995 0
0.018874 -0.099453 0
0.018628 -0.121066 0
0.017672 -0.148501 0
0.016260 -0.183036 0
0.014592 -0.225280 0
0.012665 -0.275398 0
0.010257 -0.333769 0
0.006989 -0.402744 0
0.002270 -0.491392 0
-0.002437 -0.544890 0
-0.000114 0.000026 0
0.000000 0.273717 0
0.000000 -0.000011 0
0.005092 0.338442 0
0.003276 0.382009 0
0.000580 0.381112 0
-0.001435 0.358956 0
-0.002438 0.319961 0
-0.002278 0.270127 0
-0.000842 0.216256 0
0.002009 0.165166 0
0.006159 0.122515 0
0.011160 0.091531 0
0.016222 0.072361 0
0.020776 0.062374 0
0.024506 0.057942 0
0.027249 0.056122 0
0.029037 0.055026 0
0.030008 0.053508 0
0.030344 0.050888 0
0.030235 0.046768 0
0.029857 0.040930 0
0.029364 0.033280 0
0.028894 0.023816 0
0.028593 0.012602 0
0.028656 -0.000222 0
0.029199 -0.014011 0
0.030266 -0.027964 0
0.031703 -0.041682 0
0.033245 -0.055061 0
0.034542 -0.068431 0
0.035240 -0.082686 0
0.035096 -0.099285 0
0.034067 -0.120073 0
0.032309 -0.146879 0
0.030051 -0.180990 0
0.027404 -0.222869 0
0.024253 -0.272469 0
0.020302 -0.330013 0
0.015178 -0.397741 0
0.008422 -0.485390 0
0.001008 -0.542042 0
-0.000096 0.000025 0
0.000000 0.273999 0
0.000000 -0.000010 0
0.011651 0.333524 0
0.015996 0.381562 0
0.017672 0.381626 0
0.018475 0.359435 0
0.018700 0.320131 0
0.018614 0.269720 0
0.018616 0.214985 0
0.019147 0.162795 0
0.020695 0.119033 0
0.023437 0.087305 0
0.027126 0.067939 0
0.031271 0.058239 0
0.035307 0.054453 0
0.038804 0.053453 0
0.041584 0.053170 0
0.043649 0.052355 0
0.045090 0.050288 0
0.046036 0.046567 0
0.046612 0.040985 0
0.046931 0.033467 0
0.047095 0.024008 0
0.047215 0.012635 0
0.047427 -0.000467 0
0.047790 -0.014621 0
0.048425 -0.028953 0
0.049243 -0.042870 0
0.050002 -0.056137 0
0.050383 -0.069044 0
0.050096 -0.082550 0
0.048982 -0.098280 0
0.047075 -0.118278 0
0.044568 -0.144485 0
0.041626 -0.178131 0
0.038219 -0.219482 0
0.034083 -0.268295 0
0.028834 -0.324694 0
0.022092 -0.390864 0
0.013453 -0.477221 0
0.003873 -0.536468 0
-0.000082 0.000025 0
0.000000 0.272708 0
0.000000 -0.000008 0
0.017828 0.322445 0
0.028071 0.375988 0
0.033941 0.378633 0
0.037466 0.357927 0
0.038940 0.319822 0
0.038659 0.270212 0
0.037170 0.215723 0
0.035218 0.163087 0
0.033800 0.118225 0
0.033791 0.085100 0
0.035627 0.064527 0
0.039021 0.054193 0
0.043204 0.050409 0
0.047442 0.049845 0
0.051297 0.050182 0
0.054593 0.050002 0
0.057310 0.048501 0
0.059500 0.045247 0
0.061239 0.040035 0
0.062604 0.032797 0
0.063666 0.023532 0
0.064487 0.012270 0
0.065099 -0.000797 0
0.065520 -0.015009 0
0.065804 -0.029417 0
0.065882 -0.043259 0
0.065585 -0.056200 0
0.064720 -0.068526 0
0.063152 -0.081285 0
0.060883 -0.096264 0
0.058070 -0.115659 0
0.054918 -0.141429 0
0.051475 -0.174642 0
0.047507 -0.215326 0
0.042575 -0.263084 0
0.036209 -0.318021 0
0.028032 -0.382360 0
0.017732 -0.467171 0
0.006267 -0.528589 0
-0.000072 0.000024 0
0.000000 0.270124 0
0.000000 -0.000007 0
0.023735 0.305453 0
0.039716 0.365450 0
0.049701 0.372232 0
0.055917 0.354436 0
0.058748 0.318938 0
0.058488 0.271490 0
0.055741 0.218426 0
0.051463 0.166165 0
0.046997 0.120460 0
0.043815 0.085478 0
0.043081 0.062709 0
0.044992 0.050662 0
0.048799 0.046032 0
0.053490 0.045360 0
0.058308 0.046018 0
0.062833 0.046342 0
0.066887 0.045382 0
0.070423 0.042637 0
0.073455 0.037880 0
0.076018 0.031039 0
0.078147 0.022125 0
0.079848 0.011202 0
0.081074 -0.001500 0
0.081706 -0.015326 0
0.081680 -0.029314 0
0.080943 -0.042651 0
0.079447 -0.054975 0
0.077189 -0.066611 0
0.074259 -0.078713 0
0.070873 -0.093197 0
0.067317 -0.112313 0
0.063758 -0.137890 0
0.060044 -0.170720 0
0.055699 -0.210582 0
0.050114 -0.256998 0
0.042758 -0.310152 0
0.033275 -0.372386 0
0.021453 -0.455456 0
0.008324 -0.518736 0
-0.000066 0.000023 0
0.000000 0.266440 0
0.000000 -0.000006 0
0.029358 0.282729 0
0.050967 0.350022 0
0.065076 0.362432 0
0.074038 0.348880 0
0.078429 0.317251 0
0.078560 0.273218 0
0.075035 0.222748 0
0.068902 0.171831 0
0.061665 0.125873 0
0.055155 0.089015 0
0.051133 0.063350 0
0.050517 0.048475 0
0.052984 0.041911 0
0.057448 0.040336 0
0.062819 0.040839 0
0.068352 0.041423 0
0.073639 0.040911 0
0.078484 0.038678 0
0.082809 0.034439 0
0.086582 0.028105 0
0.089780 0.019702 0
0.092345 0.009343 0
0.094154 -0.002655 0
0.094969 -0.015616 0
0.094641 -0.028653 0
0.093139 -0.041026 0
0.090547 -0.052446 0
0.087072 -0.063338 0
0.083058 -0.074969 0
0.078939 -0.089322 0
0.075075 -0.108545 0
0.071495 -0.134157 0
0.067778 -0.166583 0
0.063208 -0.205396 0
0.057051 -0.250142 0
0.048763 -0.301182 0
0.038042 -0.361055 0
0.024789 -0.442221 0
0.010143 -0.507136 0
-0.000063 0.000023 0
0.000000 0.261798 0
0.000000 -0.000004 0
0.034563 0.254486 0
0.061652 0.329732 0
0.079949 0.349160 0
0.091800 0.341084 0
0.098044 0.314416 0
0.099052 0.274883 0
0.095414 0.228084 0
0.088163 0.179536 0
0.078814 0.134207 0
0.069286 0.096010 0
0.061636 0.067348 0
0.057459 0.048811 0
0.057246 0.039101 0
0.060291 0.035525 0
0.065354 0.035114 0
0.071334 0.035522 0
0.077495 0.035249 0
0.083416 0.033467 0
0.088863 0.029783 0
0.093699 0.024069 0
0.097815 0.016362 0
0.101073 0.006828 0
0.103275 -0.004124 0
0.104139 -0.015813 0
0.103511 -0.027485 0
0.101413 -0.038557 0
0.098067 -0.048908 0
0.093888 -0.059122 0
0.089449 -0.070580 0
0.085324 -0.085215 0
0.081801 -0.104869 0
0.078649 -0.130594 0
0.075156 -0.162432 0
0.070431 -0.199854 0
0.063702 -0.242554 0
0.054471 -0.291143 0
0.042515 -0.348412 0
0.027866 -0.427556 0
0.011798 -0.493947 0
-0.000061 0.000022 0
0.000000 0.256296 0
0.000000 -0.000003 0
0.039055 0.221077 0
0.071347 0.304636 0
0.093902 0.332284 0
0.108871 0.330786 0
0.117345 0.309998 0
0.119806 0.275848 0
0.116826 0.233637 0
0.109374 0.188431 0
0.098872 0.144750 0
0.087140 0.106194 0
0.076219 0.075176 0
0.068031 0.052865 0
0.063864 0.039079 0
0.063881 0.032228 0
0.067195 0.029796 0
0.072535 0.029282 0
0.078810 0.028829 0
0.085270 0.027311 0
0.091443 0.024156 0
0.097025 0.019152 0
0.101782 0.012328 0
0.105487 0.003883 0
0.107873 -0.005722 0
0.108692 -0.015852 0
0.107856 -0.025927 0
0.105493 -0.035582 0
0.101982 -0.044921 0
0.097927 -0.054720 0
0.094028 -0.066405 0
0.090803 -0.081674 0
0.088278 -0.101870 0
0.085886 -0.127512 0
0.082691 -0.158365 0
0.077750 -0.193942 0
0.070346 -0.234182 0
0.060079 -0.279995 0
0.046831 -0.334450 0
0.030773 -0.411503 0
0.013342 -0.479270 0
-0.000060 0.000021 0
0.000000 0.249998 0
0.000000 -0.000002 0
0.042396 0.183140 0
0.079352 0.274885 0
0.106181 0.311636 0
0.124573 0.317641 0
0.135749 0.303481 0
0.140304 0.275402 0
0.138804 0.238516 0
0.132138 0.197490 0
0.121595 0.156441 0
0.108821 0.118663 0
0.095667 0.086457 0
0.084005 0.061166 0
0.075484 0.043251 0
0.071113 0.032195 0
0.070879 0.026460 0
0.073891 0.023907 0
0.078932 0.022514 0
0.084930 0.020834 0
0.091094 0.018028 0
0.096872 0.013730 0
0.101858 0.007900 0
0.105717 0.000738 0
0.108142 -0.007329 0
0.108975 -0.015796 0
0.108244 -0.024286 0
0.106222 -0.032684 0
0.103439 -0.041342 0
0.100581 -0.051167 0
0.098263 -0.063456 0
0.096704 -0.079465 0
0.095540 -0.099951 0
0.093930 -0.125006 0
0.090868 -0.154297 0
0.085485 -0.187509 0
0.077195 -0.224883 0
0.065727 -0.267628 0
0.051076 -0.319106 0
0.033562 -0.394067 0
0.014807 -0.463173 0
-0.000060 0.000020 0
0.000000 0.242951 0
0.000000 -0.000001 0
0.043939 0.141725 0
0.084614 0.240851 0
0.115633 0.287063 0
0.137850 0.301218 0
0.152325 0.294268 0
0.159687 0.272793 0
0.160504 0.241803 0
0.155598 0.205640 0
0.146134 0.168067 0
0.133580 0.132122 0
0.119576 0.099992 0
0.105788 0.073047 0
0.093803 0.051972 0
0.084957 0.036833 0
0.080023 0.027018 0
0.078941 0.021229 0
0.080934 0.017789 0
0.084919 0.015150 0
0.089872 0.012214 0
0.094971 0.008388 0
0.099589 0.003483 0
0.103272 -0.002401 0
0.105715 -0.008980 0
0.106851 -0.015954 0
0.106826 -0.023175 0
0.106028 -0.030776 0
0.105014 -0.039280 0
0.104330 -0.049544 0
0.104250 -0.062527 0