# vtk DataFile Version 2.0
generated by CFD-lab course output (written by Tobias Neckel) 
ASCII

DATASET STRUCTURED_GRID
DIMENSIONS  42 42 1 
POINTS 1764 float

0.150000 0.150000 0
0.167857 0.150000 0
0.185714 0.150000 0
0.203571 0.150000 0
0.221429 0.150000 0
0.239286 0.150000 0
0.257143 0.150000 0
0.275000 0.150000 0
0.292857 0.150000 0
0.310714 0.150000 0
0.328571 0.150000 0
0.346429 0.150000 0
0.364286 0.150000 0
0.382143 0.150000 0
0.400000 0.150000 0
0.417857 0.150000 0
0.435714 0.150000 0
0.453571 0.150000 0
0.471429 0.150000 0
0.489286 0.150000 0
0.507143 0.150000 0
0.525000 0.150000 0
0.542857 0.150000 0
0.560714 0.150000 0
0.578571 0.150000 0
0.596429 0.150000 0
0.614286 0.150000 0
0.632143 0.150000 0
0.650000 0.150000 0
0.667857 0.150000 0
0.685714 0.150000 0
0.703571 0.150000 0
0.721429 0.150000 0
0.739286 0.150000 0
0.757143 0.150000 0
0.775000 0.150000 0
0.792857 0.150000 0
0.810714 0.150000 0
0.828571 0.150000 0
0.846429 0.150000 0
0.864286 0.150000 0
0.882143 0.150000 0
0.150000 0.167857 0
0.167857 0.167857 0
0.185714 0.167857 0
0.203571 0.167857 0
0.221429 0.167857 0
0.239286 0.167857 0
0.257143 0.167857 0
0.275000 0.167857 0
0.292857 0.167857 0
0.310714 0.167857 0
0.328571 0.167857 0
0.346429 0.167857 0
0.364286 0.167857 0
0.382143 0.167857 0
0.400000 0.167857 0
0.417857 0.167857 0
0.435714 0.167857 0
0.453571 0.167857 0
0.471429 0.167857 0
0.489286 0.167857 0
0.507143 0.167857 0
0.525000 0.167857 0
0.542857 0.167857 0
0.560714 0.167857 0
0.578571 0.167857 0
0.596429 0.167857 0
0.614286 0.167857 0
0.632143 0.167857 0
0.650000 0.167857 0
0.667857 0.167857 0
0.685714 0.167857 0
0.703571 0.167857 0
0.721429 0.167857 0
0.739286 0.167857 0
0.757143 0.167857 0
0.775000 0.167857 0
0.792857 0.167857 0
0.810714 0.167857 0
0.828571 0.167857 0
0.846429 0.167857 0
0.864286 0.167857 0
0.882143 0.167857 0
0.150000 0.185714 0
0.167857 0.185714 0
0.185714 0.185714 0
0.203571 0.185714 0
0.221429 0.185714 0
0.239286 0.185714 0
0.257143 0.185714 0
0.275000 0.185714 0
0.292857 0.185714 0
0.310714 0.185714 0
0.328571 0.185714 0
0.346429 0.185714 0
0.364286 0.185714 0
0.382143 0.185714 0
0.400000 0.185714 0
0.417857 0.185714 0
0.435714 0.185714 0
0.453571 0.185714 0
0.471429 0.185714 0
0.489286 0.185714 0
0.507143 0.185714 0
0.525000 0.185714 0
0.542857 0.185714 0
0.560714 0.185714 0
0.578571 0.185714 0
0.596429 0.185714 0
0.614286 0.185714 0
0.632143 0.185714 0
0.650000 0.185714 0
0.667857 0.185714 0
0.685714 0.185714 0
0.703571 0.185714 0
0.721429 0.185714 0
0.739286 0.185714 0
0.757143 0.185714 0
0.775000 0.185714 0
0.792857 0.185714 0
0.810714 0.185714 0
0.828571 0.185714 0
0.846429 0.185714 0
0.864286 0.185714 0
0.882143 0.185714 0
0.150000 0.203571 0
0.167857 0.203571 0
0.185714 0.203571 0
0.203571 0.203571 0
0.221429 0.203571 0
0.239286 0.203571 0
0.257143 0.203571 0
0.275000 0.203571 0
0.292857 0.203571 0
0.310714 0.203571 0
0.328571 0.203571 0
0.346429 0.203571 0
0.364286 0.203571 0
0.382143 0.203571 0
0.400000 0.203571 0
0.417857 0.203571 0
0.435714 0.203571 0
0.453571 0.203571 0
0.471429 0.203571 0
0.489286 0.203571 0
0.507143 0.203571 0
0.525000 0.203571 0
0.542857 0.203571 0
0.560714 0.203571 0
0.578571 0.203571 0
0.596429 0.203571 0
0.614286 0.203571 0
0.632143 0.203571 0
0.650000 0.203571 0
0.667857 0.203571 0
0.685714 0.203571 0
0.703571 0.203571 0
0.721429 0.203571 0
0.739286 0.203571 0
0.757143 0.203571 0
0.775000 0.203571 0
0.792857 0.203571 0
0.810714 0.203571 0
0.828571 0.203571 0
0.846429 0.203571 0
0.864286 0.203571 0
0.882143 0.203571 0
0.150000 0.221429 0
0.167857 0.221429 0
0.185714 0.221429 0
0.203571 0.221429 0
0.221429 0.221429 0
0.239286 0.221429 0
0.257143 0.221429 0
0.275000 0.221429 0
0.292857 0.221429 0
0.310714 0.221429 0
0.328571 0.221429 0
0.346429 0.221429 0
0.364286 0.221429 0
0.382143 0.221429 0
0.400000 0.221429 0
0.417857 0.221429 0
0.435714 0.221429 0
0.453571 0.221429 0
0.471429 0.221429 0
0.489286 0.221429 0
0.507143 0.221429 0
0.525000 0.221429 0
0.542857 0.221429 0
0.560714 0.221429 0
0.578571 0.221429 0
0.596429 0.221429 0
0.614286 0.221429 0
0.632143 0.221429 0
0.650000 0.221429 0
0.667857 0.221429 0
0.685714 0.221429 0
0.703571 0.221429 0
0.721429 0.221429 0
0.739286 0.221429 0
0.757143 0.221429 0
0.775000 0.221429 0
0.792857 0.221429 0
0.810714 0.221429 0
0.828571 0.221429 0
0.846429 0.221429 0
0.864286 0.221429 0
0.882143 0.221429 0
0.150000 0.239286 0
0.167857 0.239286 0
0.185714 0.239286 0
0.203571 0.239286 0
0.221429 0.239286 0
0.239286 0.239286 0
0.257143 0.239286 0
0.275000 0.239286 0
0.292857 0.239286 0
0.310714 0.239286 0
0.328571 0.239286 0
0.346429 0.239286 0
0.364286 0.239286 0
0.382143 0.239286 0
0.400000 0.239286 0
0.417857 0.239286 0
0.435714 0.239286 0
0.453571 0.239286 0
0.471429 0.239286 0
0.489286 0.239286 0
0.507143 0.239286 0
0.525000 0.239286 0
0.542857 0.239286 0
0.560714 0.239286 0
0.578571 0.239286 0
0.596429 0.239286 0
0.614286 0.239286 0
0.632143 0.239286 0
0.650000 0.239286 0
0.667857 0.239286 0
0.685714 0.239286 0
0.703571 0.239286 0
0.721429 0.239286 0
0.739286 0.239286 0
0.757143 0.239286 0
0.775000 0.239286 0
0.792857 0.239286 0
0.810714 0.239286 0
0.828571 0.239286 0
0.846429 0.239286 0
0.864286 0.239286 0
0.882143 0.239286 0
0.150000 0.257143 0
0.167857 0.257143 0
0.185714 0.257143 0
0.203571 0.257143 0
0.221429 0.257143 0
0.239286 0.257143 0
0.257143 0.257143 0
0.275000 0.257143 0
0.292857 0.257143 0
0.310714 0.257143 0
0.328571 0.257143 0
0.346429 0.257143 0
0.364286 0.257143 0
0.382143 0.257143 0
0.400000 0.257143 0
0.417857 0.257143 0
0.435714 0.257143 0
0.453571 0.257143 0
0.471429 0.257143 0
0.489286 0.257143 0
0.507143 0.257143 0
0.525000 0.257143 0
0.542857 0.257143 0
0.560714 0.257143 0
0.578571 0.257143 0
0.596429 0.257143 0
0.614286 0.257143 0
0.632143 0.257143 0
0.650000 0.257143 0
0.667857 0.257143 0
0.685714 0.257143 0
0.703571 0.257143 0
0.721429 0.257143 0
0.739286 0.257143 0
0.757143 0.257143 0
0.775000 0.257143 0
0.792857 0.257143 0
0.810714 0.257143 0
0.828571 0.257143 0
0.846429 0.257143 0
0.864286 0.257143 0
0.882143 0.257143 0
0.150000 0.275000 0
0.167857 0.275000 0
0.185714 0.275000 0
0.203571 0.275000 0
0.221429 0.275000 0
0.239286 0.275000 0
0.257143 0.275000 0
0.275000 0.275000 0
0.292857 0.275000 0
0.310714 0.275000 0
0.328571 0.275000 0
0.346429 0.275000 0
0.364286 0.275000 0
0.382143 0.275000 0
0.400000 0.275000 0
0.417857 0.275000 0
0.435714 0.275000 0
0.453571 0.275000 0
0.471429 0.275000 0
0.489286 0.275000 0
0.507143 0.275000 0
0.525000 0.275000 0
0.542857 0.275000 0
0.560714 0.275000 0
0.578571 0.275000 0
0.596429 0.275000 0
0.614286 0.275000 0
0.632143 0.275000 0
0.650000 0.275000 0
0.667857 0.275000 0
0.685714 0.275000 0
0.703571 0.275000 0
0.721429 0.275000 0
0.739286 0.275000 0
0.757143 0.275000 0
0.775000 0.275000 0
0.792857 0.275000 0
0.810714 0.275000 0
0.828571 0.275000 0
0.846429 0.275000 0
0.864286 0.275000 0
0.882143 0.275000 0
0.150000 0.292857 0
0.167857 0.292857 0
0.185714 0.292857 0
0.203571 0.292857 0
0.221429 0.292857 0
0.239286 0.292857 0
0.257143 0.292857 0
0.275000 0.292857 0
0.292857 0.292857 0
0.310714 0.292857 0
0.328571 0.292857 0
0.346429 0.292857 0
0.364286 0.292857 0
0.382143 0.292857 0
0.400000 0.292857 0
0.417857 0.292857 0
0.435714 0.292857 0
0.453571 0.292857 0
0.471429 0.292857 0
0.489286 0.292857 0
0.507143 0.292857 0
0.525000 0.292857 0
0.542857 0.292857 0
0.560714 0.292857 0
0.578571 0.292857 0
0.596429 0.292857 0
0.614286 0.292857 0
0.632143 0.292857 0
0.650000 0.292857 0
0.667857 0.292857 0
0.685714 0.292857 0
0.703571 0.292857 0
0.721429 0.292857 0
0.739286 0.292857 0
0.757143 0.292857 0
0.775000 0.292857 0
0.792857 0.292857 0
0.810714 0.292857 0
0.828571 0.292857 0
0.846429 0.292857 0
0.864286 0.292857 0
0.882143 0.292857 0
0.150000 0.310714 0
0.167857 0.310714 0
0.185714 0.310714 0
0.203571 0.310714 0
0.221429 0.310714 0
0.239286 0.310714 0
0.257143 0.310714 0
0.275000 0.310714 0
0.292857 0.310714 0
0.310714 0.310714 0
0.328571 0.310714 0
0.346429 0.310714 0
0.364286 0.310714 0
0.382143 0.310714 0
0.400000 0.310714 0
0.417857 0.310714 0
0.435714 0.310714 0
0.453571 0.310714 0
0.471429 0.310714 0
0.489286 0.310714 0
0.507143 0.310714 0
0.525000 0.310714 0
0.542857 0.310714 0
0.560714 0.310714 0
0.578571 0.310714 0
0.596429 0.310714 0
0.614286 0.310714 0
0.632143 0.310714 0
0.650000 0.310714 0
0.667857 0.310714 0
0.685714 0.310714 0
0.703571 0.310714 0
0.721429 0.310714 0
0.739286 0.310714 0
0.757143 0.310714 0
0.775000 0.310714 0
0.792857 0.310714 0
0.810714 0.310714 0
0.828571 0.310714 0
0.846429 0.310714 0
0.864286 0.310714 0
0.882143 0.310714 0
0.150000 0.328571 0
0.167857 0.328571 0
0.185714 0.328571 0
0.203571 0.328571 0
0.221429 0.328571 0
0.239286 0.328571 0
0.257143 0.328571 0
0.275000 0.328571 0
0.292857 0.328571 0
0.310714 0.328571 0
0.328571 0.328571 0
0.346429 0.328571 0
0.364286 0.328571 0
0.382143 0.328571 0
0.400000 0.328571 0
0.417857 0.328571 0
0.435714 0.328571 0
0.453571 0.328571 0
0.471429 0.328571 0
0.489286 0.328571 0
0.507143 0.328571 0
0.525000 0.328571 0
0.542857 0.328571 0
0.560714 0.328571 0
0.578571 0.328571 0
0.596429 0.328571 0
0.614286 0.328571 0
0.632143 0.328571 0
0.650000 0.328571 0
0.667857 0.328571 0
0.685714 0.328571 0
0.703571 0.328571 0
0.721429 0.328571 0
0.739286 0.328571 0
0.757143 0.328571 0
0.775000 0.328571 0
0.792857 0.328571 0
0.810714 0.328571 0
0.828571 0.328571 0
0.846429 0.328571 0
0.864286 0.328571 0
0.882143 0.328571 0
0.150000 0.346429 0
0.167857 0.346429 0
0.185714 0.346429 0
0.203571 0.346429 0
0.221429 0.346429 0
0.239286 0.346429 0
0.257143 0.346429 0
0.275000 0.346429 0
0.292857 0.346429 0
0.310714 0.346429 0
0.328571 0.346429 0
0.346429 0.346429 0
0.364286 0.346429 0
0.382143 0.346429 0
0.400000 0.346429 0
0.417857 0.346429 0
0.435714 0.346429 0
0.453571 0.346429 0
0.471429 0.346429 0
0.489286 0.346429 0
0.507143 0.346429 0
0.525000 0.346429 0
0.542857 0.346429 0
0.560714 0.346429 0
0.578571 0.346429 0
0.596429 0.346429 0
0.614286 0.346429 0
0.632143 0.346429 0
0.650000 0.346429 0
[...]
POINT_DATA 1764 

VECTORS velocity float
0.000000 0.000000 0
-0.000001 0.000000 0
-0.000002 0.000000 0
-0.000002 0.000000 0
-0.000002 0.000000 0
-0.000002 0.000000 0
-0.000001 0.000000 0
-0.000001 0.000000 0
-0.000001 0.000000 0
-0.000001 0.000000 0
-0.000002 0.000000 0
-0.000000 0.000000 0
0.000002 0.000000 0
0.000003 0.000000 0
0.000004 0.000000 0
0.000005 0.000000 0
0.000005 0.000000 0
0.000006 0.000000 0
0.000006 0.000000 0
0.000006 0.000000 0
0.000006 0.000000 0
0.000006 0.000000 0
0.000006 0.000000 0
0.000007 0.000000 0
0.000007 0.000000 0
0.000007 0.000000 0
0.000007 0.000000 0
0.000007 0.000000 0
0.000007 0.000000 0
0.000007 0.000000 0
0.000007 0.000000 0
0.000007 0.000000 0
0.000007 0.000000 0
0.000006 0.000000 0
0.000006 0.000000 0
0.000005 0.000000 0
0.000003 0.000000 0
0.000001 0.000000 0
-0.000001 0.000000 0
-0.000001 0.000000 0
-0.000000 0.000000 0
0.000000 0.000000 0
0.000000 0.000001 0
0.016034 -0.015076 0
0.033398 -0.012607 0
0.042573 -0.004011 0
0.043251 0.002921 0
0.038364 0.006018 0
0.031706 0.004949 0
0.028421 0.002426 0
0.025361 -0.000285 0
0.014134 -0.005981 0
-0.002540 -0.002431 0
-0.023161 0.012414 0
-0.048435 0.023036 0
-0.076095 0.026947 0
-0.103823 0.027548 0
-0.130265 0.026762 0
-0.154526 0.024956 0
-0.176101 0.022567 0
-0.194764 0.019897 0
-0.210478 0.017143 0
-0.223317 0.014421 0
-0.233404 0.011779 0
-0.240859 0.009222 0
-0.245773 0.006708 0
-0.248169 0.004159 0
-0.247990 0.001486 0
-0.245124 -0.001430 0
-0.239430 -0.004666 0
-0.230690 -0.008216 0
-0.218625 -0.012071 0
-0.202924 -0.016258 0
-0.183264 -0.020765 0
-0.159374 -0.025476 0
-0.131151 -0.030111 0
-0.098869 -0.034098 0
-0.063553 -0.036389 0
-0.027624 -0.034715 0
0.003950 -0.020752 0
0.022279 0.002257 0
0.012978 0.015573 0
-0.000007 -0.000001 0
0.000000 -0.008808 0
0.000000 0.000002 0
0.018461 -0.033398 0
0.034213 -0.026539 0
0.042166 -0.009852 0
0.042075 0.004209 0
0.036914 0.011545 0
0.028092 0.009943 0
0.013401 0.006345 0
-0.007713 0.014286 0
-0.037311 0.027901 0
-0.075923 0.037295 0
-0.110108 0.045895 0
-0.139144 0.052934 0
-0.165303 0.055388 0
-0.189265 0.054170 0
-0.210441 0.050704 0
-0.228642 0.045836 0
-0.243837 0.040238 0
-0.256124 0.034377 0
-0.265674 0.028554 0
-0.272685 0.022926 0
-0.277342 0.017542 0
-0.279793 0.012369 0
-0.280130 0.007310 0
-0.278391 0.002217 0
-0.274546 -0.003045 0
-0.268591 -0.008560 0
-0.260438 -0.014434 0
-0.249934 -0.020805 0
-0.236829 -0.027766 0
-0.220836 -0.035361 0
-0.201673 -0.043550 0
-0.179102 -0.052113 0
-0.153016 -0.060505 0
-0.123602 -0.067598 0
-0.091629 -0.071245 0
-0.058942 -0.067502 0
-0.028713 -0.049903 0
-0.001734 -0.009028 0
0.006093 0.022279 0
-0.000006 -0.000001 0
0.000000 -0.012978 0
0.000000 0.000003 0
0.015540 -0.049290 0
0.025317 -0.036313 0
0.028166 -0.011872 0
0.021445 0.008174 0
0.009248 0.020001 0
-0.008897 0.028462 0
-0.037685 0.038231 0
-0.073182 0.050427 0
-0.105914 0.062228 0
-0.136761 0.070366 0
-0.165168 0.075635 0
-0.188898 0.078231 0
-0.208487 0.077069 0
-0.224742 0.072686 0
-0.237968 0.066139 0
-0.248475 0.058351 0
-0.256573 0.050049 0
-0.262560 0.041734 0
-0.266702 0.033704 0
-0.269221 0.026088 0
-0.270281 0.018887 0
-0.269988 0.012010 0
-0.268390 0.005305 0
-0.265492 -0.001425 0
-0.261284 -0.008314 0
-0.255696 -0.015538 0
-0.248552 -0.023323 0
-0.239655 -0.031825 0
-0.228789 -0.041170 0
-0.215715 -0.051414 0
-0.200204 -0.062498 0
-0.182042 -0.074132 0
-0.161077 -0.085611 0
-0.137282 -0.095485 0
-0.110884 -0.101049 0
-0.082514 -0.097631 0
-0.053238 -0.077960 0
-0.024468 -0.032550 0
0.003643 0.013839 0
0.000005 -0.000002 0
0.000000 -0.014902 0
0.000000 0.000003 0
0.008013 -0.058715 0
0.007621 -0.039165 0
-0.000423 -0.005981 0
-0.014610 0.023127 0
-0.034308 0.041887 0
-0.059937 0.056876 0
-0.089511 0.070630 0
-0.119737 0.082515 0
-0.147294 0.091479 0
-0.171551 0.096548 0
-0.192451 0.098033 0
-0.209048 0.096253 0
-0.221670 0.091232 0
-0.231058 0.083651 0
-0.237840 0.074437 0
-0.242563 0.064441 0
-0.245674 0.054322 0
-0.247521 0.044506 0
-0.248360 0.035215 0
-0.248366 0.026505 0
-0.247643 0.018309 0
-0.246235 0.010478 0
-0.244133 0.002813 0
-0.241289 -0.004889 0
-0.237697 -0.012840 0
-0.233154 -0.021292 0
-0.227511 -0.030475 0
-0.220587 -0.040569 0
-0.212206 -0.051705 0
-0.202193 -0.063945 0
-0.190381 -0.077223 0
-0.176599 -0.091240 0
-0.160656 -0.105265 0
-0.142320 -0.117791 0
-0.121298 -0.126013 0
-0.097228 -0.125148 0
-0.069692 -0.107949 0
-0.038402 -0.065909 0
-0.003864 -0.002189 0
0.000011 -0.000001 0
0.000000 -0.016621 0
0.000000 0.000002 0
-0.003455 -0.056911 0
-0.015978 -0.027877 0
-0.034655 0.010359 0
-0.052693 0.042058 0
-0.073930 0.065327 0
-0.098382 0.083665 0
-0.123628 0.098032 0
-0.147603 0.108210 0
-0.168692 0.114042 0
-0.186251 0.115524 0
-0.200176 0.113132 0
-0.210291 0.107450 0
-0.217047 0.099079 0
-0.221146 0.088855 0
-0.223271 0.077645 0
-0.224001 0.066185 0
-0.223782 0.055006 0
-0.222939 0.044420 0
-0.221691 0.034550 0
-0.220174 0.025372 0
-0.218455 0.016755 0
-0.216545 0.008500 0
-0.214414 0.000360 0
-0.211998 -0.007861 0
-0.209184 -0.016448 0
-0.205788 -0.025723 0
-0.201642 -0.035890 0
-0.196579 -0.047131 0
-0.190451 -0.059564 0
-0.183137 -0.073239 0
-0.174536 -0.088092 0
-0.164538 -0.103858 0
-0.152968 -0.119890 0
-0.139492 -0.134843 0
-0.123506 -0.146141 0
-0.104040 -0.149237 0
-0.079845 -0.136786 0
-0.050126 -0.098377 0
-0.017383 -0.024563 0
0.000001 0.000002 0
0.000000 -0.011034 0
0.000000 0.000001 0
-0.014944 -0.042737 0
-0.036693 -0.007965 0
-0.058687 0.030734 0
-0.078915 0.062402 0
-0.099995 0.087576 0
-0.121502 0.106574 0
-0.141962 0.119851 0
-0.160164 0.127580 0
-0.175245 0.130127 0
-0.186844 0.128032 0
-0.194998 0.122073 0
-0.199921 0.113125 0
-0.202156 0.102087 0
-0.202364 0.089875 0
-0.201176 0.077291 0
-0.199118 0.064952 0
-0.196597 0.053259 0
-0.193908 0.042415 0
-0.191256 0.032451 0
-0.188763 0.023269 0
-0.186489 0.014680 0
-0.184433 0.006438 0
-0.182552 -0.001734 0
-0.180771 -0.010119 0
-0.178867 -0.019050 0
-0.176673 -0.028834 0
-0.173986 -0.039684 0
-0.170624 -0.051760 0
-0.166440 -0.065148 0
-0.161346 -0.079861 0
-0.155297 -0.095822 0
-0.148255 -0.112808 0
-0.140115 -0.130311 0
-0.130575 -0.147253 0
-0.118958 -0.161466 0
-0.104049 -0.168810 0
-0.084146 -0.161863 0
-0.057805 -0.128371 0
-0.026267 -0.052315 0
-0.000018 0.000005 0
0.000000 0.000767 0
0.000000 0.000000 0
-0.022331 -0.020218 0
-0.048757 0.015865 0
-0.071678 0.052582 0
-0.093009 0.083367 0
-0.113050 0.107914 0
-0.131558 0.125632 0
-0.147791 0.136694 0
-0.161140 0.141492 0
-0.171235 0.140722 0
-0.178016 0.135277 0
-0.181706 0.126209 0
-0.182709 0.114609 0
-0.181594 0.101522 0
-0.178963 0.087875 0
-0.175370 0.074398 0
-0.171284 0.061606 0
-0.167081 0.049797 0
-0.163051 0.039079 0
-0.159409 0.029404 0
-0.156293 0.020605 0
-0.153767 0.012425 0
-0.151825 0.004563 0
-0.150403 -0.003302 0
-0.149385 -0.011546 0
-0.148532 -0.020547 0
-0.147623 -0.030605 0
-0.146407 -0.041940 0
-0.144653 -0.054676 0
-0.142183 -0.068842 0
-0.138910 -0.084383 0
-0.134826 -0.101183 0
-0.129957 -0.119039 0
-0.124291 -0.137570 0
-0.117639 -0.156000 0
-0.109423 -0.172667 0
-0.098420 -0.184049 0
-0.082642 -0.183030 0
-0.059826 -0.156255 0
-0.029522 -0.082368 0
-0.000033 0.000006 0
0.000000 0.015237 0
0.000000 -0.000001 0
-0.026082 0.006020 0
-0.052957 0.041381 0
-0.076356 0.074987 0
-0.097416 0.103774 0
-0.115908 0.126124 0
-0.131675 0.141315 0
-0.144406 0.149434 0
-0.153897 0.151025 0
-0.160114 0.147003 0
-0.163237 0.138503 0
-0.163628 0.126766 0
-0.161767 0.113012 0
-0.158201 0.098341 0
-0.153466 0.083652 0
-0.148049 0.069613 0
-0.142379 0.056662 0
-0.136832 0.045026 0
-0.131727 0.034743 0
-0.127320 0.025692 0
-0.123784 0.017626 0
-0.121200 0.010213 0
-0.119559 0.003074 0
-0.118768 -0.004174 0
-0.118667 -0.011990 0
-0.119000 -0.020813 0
-0.119488 -0.030958 0
-0.119808 -0.042654 0
-0.119647 -0.055984 0
-0.118766 -0.070890 0
-0.117058 -0.087218 0
-0.114534 -0.104775 0
-0.111265 -0.123343 0
-0.107321 -0.142629 0
-0.102646 -0.162121 0
-0.096853 -0.180685 0
-0.088896 -0.195590 0
-0.076749 -0.200457 0
-0.057578 -0.181491 0
-0.029661 -0.112141 0
-0.000044 0.000007 0
0.000000 0.030291 0
0.000000 -0.000001 0
-0.026167 0.032739 0
-0.051947 0.066139 0
-0.074894 0.097041 0
-0.094815 0.122918 0
-0.111478 0.142173 0
-0.124794 0.154130 0
-0.134692 0.158915 0
-0.141218 0.157201 0
-0.144555 0.150063 0
-0.145027 0.138790 0
-0.143066 0.124738 0
-0.139160 0.109182 0
-0.133803 0.093221 0
-0.127461 0.077722 0
-0.120573 0.063311 0
-0.113558 0.050389 0
-0.106828 0.039144 0
-0.100772 0.029567 0
-0.095721 0.021461 0
-0.091902 0.014485 0
-0.089416 0.008201 0
-0.088237 0.002131 0
-0.088224 -0.004195 0
-0.089152 -0.011313 0
-0.090766 -0.019726 0
-0.092732 -0.029797 0
-0.094645 -0.041781 0
-0.096080 -0.055718 0
-0.096706 -0.071430 0
-0.096391 -0.088615 0
-0.095166 -0.106976 0
-0.093136 -0.126252 0
-0.090424 -0.146190 0
-0.087085 -0.166468 0
-0.082935 -0.186417 0
-0.077215 -0.204153 0
-0.068117 -0.214349 0
-0.052605 -0.203344 0
-0.028051 -0.139945 0
-0.000052 0.000008 0
0.000000 0.044900 0
0.000000 -0.000002 0
-0.023417 0.057966 0
-0.047855 0.090109 0
-0.069337 0.117855 0
-0.087531 0.140358 0
-0.102217 0.156103 0
-0.113348 0.164529 0
-0.120976 0.165858 0
-0.125282 0.160888 0
-0.126561 0.150812 0
-0.125200 0.137014 0
-0.121635 0.120898 0
-0.116312 0.103749 0
-0.109655 0.086642 0
-0.102060 0.070422 0
-0.093928 0.055710 0
-0.085696 0.042917 0
-0.077852 0.032240 0
-0.070913 0.023636 0
-0.065338 0.016823 0
-0.061410 0.011322 0
-0.059218 0.006547 0
-0.058685 0.001881 0
-0.059591 -0.003259 0
-0.061572 -0.009448 0
-0.064454 -0.017233 0
-0.067878 -0.027079 0
-0.071355 -0.039307 0
-0.074321 -0.053923 0
-0.076328 -0.070579 0
-0.077225 -0.088758 0
-0.077087 -0.108030 0
-0.076056 -0.128085 0
-0.074288 -0.148680 0
-0.071907 -0.169610 0
-0.068888 -0.190554 0
-0.064781 -0.210408 0
-0.058158 -0.225068 0
-0.046096 -0.221557 0
-0.025337 -0.164745 0
-0.000055 0.000008 0
0.000000 0.058343 0
0.000000 -0.000003 0
-0.020090 0.080594 0
-0.042027 0.112059 0
-0.061289 0.136717 0
-0.077368 0.155799 0
-0.090020 0.167990 0
-0.099204 0.172889 0
-0.105024 0.170850 0
-0.107711 0.162787 0
-0.107592 0.149980 0
-0.105050 0.133864 0
-0.100479 0.115851 0
-0.094249 0.097202 0
-0.086694 0.078969 0
-0.078135 0.061996 0
-0.068930 0.046947 0
-0.059542 0.034312 0
-0.050596 0.024361 0
-0.042829 0.017053 0
-0.036936 0.011958 0
-0.033192 0.008365 0
-0.031588 0.005477 0
-0.031907 0.002503 0
-0.033837 -0.001308 0
-0.036967 -0.006450 0
-0.040981 -0.013420 0
-0.045674 -0.022896 0
-0.050517 -0.035338 0
-0.054799 -0.050745 0
-0.057935 -0.068526 0
-0.059787 -0.087856 0
-0.060499 -0.108145 0
-0.060258 -0.129051 0
-0.059246 -0.150339 0
-0.057620 -0.171868 0
-0.055454 -0.193542 0
-0.052550 -0.214883 0
-0.047916 -0.233034 0
-0.038968 -0.236165 0
-0.022086 -0.186041 0
-0.000055 0.000008 0
0.000000 0.070237 0
0.000000 -0.000003 0
-0.016385 0.099993 0
-0.035237 0.131308 0
-0.051858 0.153196 0
-0.065616 0.169088 0
-0.076251 0.177940 0
-0.083712 0.179533 0
-0.088103 0.174365 0
-0.089653 0.163457 0
-0.088667 0.148151 0
-0.085480 0.129901 0
-0.080408 0.110097 0
-0.073728 0.089964 0
-0.065668 0.070528 0
-0.056453 0.052658 0
-0.046370 0.037117 0
-0.035898 0.024583 0
-0.025929 0.015527 0
-0.017583 0.009976 0
-0.011888 0.007186 0
-0.008883 0.005973 0
-0.008187 0.005262 0
-0.009371 0.004131 0
-0.012118 0.001801 0
-0.016294 -0.002304 0
-0.021417 -0.008526 0
-0.027045 -0.017543 0
-0.032841 -0.030181 0
-0.038001 -0.046506 0
-0.041827 -0.065592 0
-0.044259 -0.086195 0
-0.045524 -0.107559 0
-0.045851 -0.129337 0
-0.045436 -0.151318 0
-0.044446 -0.173402 0
-0.043000 -0.195624 0
-0.041070 -0.217946 0
-0.038057 -0.238650 0
-0.031844 -0.247387 0
-0.018686 -0.203713 0
-0.000053 0.000008 0
0.000000 0.080430 0
0.000000 -0.000003 0
-0.012462 0.115831 0
-0.027972 0.147532 0
-0.041768 0.167095 0
-0.053143 0.180192 0
-0.061836 0.186086 0
-0.067780 0.184741 0
-0.071059 0.176791 0
-0.071865 0.163351 0
-0.070449 0.145806 0
-0.067074 0.125605 0
-0.061965 0.104099 0
-0.055294 0.082462 0
-0.047177 0.061694 0
-0.037715 0.042698 0
-0.027087 0.026392 0
-0.015758 0.013872 0
-0.005279 0.006046 0
0.002079 0.003011 0
0.006411 0.003257 0
0.008202 0.004664 0
0.007987 0.005965 0
0.006203 0.006435 0
0.003146 0.005615 0
-0.001129 0.002848 0
-0.006617 -0.002669 0
-0.012858 -0.011472 0
-0.018993 -0.024382 0
-0.024330 -0.041760 0
-0.028208 -0.062268 0
-0.030736 -0.084159 0
-0.032208 -0.106553 0
-0.032861 -0.129138 0
-0.032885 -0.151745 0
-0.032438 -0.174304 0
-0.031651 -0.196918 0
-0.030584 -0.219826 0
-0.028937 -0.242260 0
-0.025094 -0.255536 0
-0.015380 -0.217885 0
-0.000049 0.000008 0
0.000000 0.088923 0
0.000000 -0.000003 0
-0.008452 0.127965 0
-0.020531 0.160614 0
-0.031472 0.178367 0
-0.040496 0.189156 0
-0.047356 0.192577 0
-0.051974 0.188756 0
-0.054403 0.178450 0
-0.054785 0.162847 0
-0.053306 0.143360 0
-0.050146 0.121417 0
-0.045443 0.098318 0
-0.039264 0.075175 0
-0.031605 0.052949 0
-0.022429 0.032569 0
-0.011823 0.015160 0
-0.000722 0.002775 0
0.007295 -0.002311 0
0.012122 -0.001714 0
0.014797 0.001063 0
0.015742 0.004396 0
0.015173 0.007261 0
0.013309 0.008972 0
0.010415 0.009133 0
0.006708 0.007459 0
0.002027 0.003204 0
-0.003709 -0.005167 0
-0.009324 -0.018709 0
-0.013899 -0.037291 0
-0.017064 -0.059186 0
-0.019169 -0.082195 0
-0.020493 -0.105434 0
-0.021232 -0.128660 0
-0.021542 -0.151741 0
-0.021555 -0.174636 0
-0.021388 -0.197479 0
-0.021134 -0.220661 0
-0.020688 -0.244139 0
-0.018898 -0.260944 0
-0.012298 -0.228807 0
-0.000044 0.000008 0
0.000000 0.095809 0
0.000000 -0.000003 0
-0.004437 0.136362 0
-0.013109 0.170552 0
-0.021243 0.187060 0
-0.027993 0.196075 0
-0.033138 0.197564 0
-0.036594 0.191788 0
-0.038383 0.179602 0
-0.038596 0.162254 0
-0.037354 0.141167 0
-0.034764 0.117743 0
-0.030887 0.093217 0
-0.025702 0.068624 0
-0.019103 0.044859 0
-0.010937 0.022916 0
-0.001337 0.004686 0
0.006160 -0.005246 0
0.010259 -0.006798 0
0.012907 -0.004491 0
0.014576 -0.000363 0
0.015259 0.004288 0
0.014863 0.008398 0
0.013426 0.011192 0
0.011093 0.012217 0
0.008066 0.011237 0
0.004523 0.007747 0
0.000509 -0.000121 0
-0.003536 -0.014192 0
-0.006304 -0.034020 0
-0.008072 -0.056998 0
-0.009320 -0.080729 0
-0.010205 -0.104489 0
-0.010829 -0.128090 0
-0.011293 -0.151422 0
-0.011691 -0.174457 0
-0.012116 -0.197339 0
-0.012653 -0.220527 0
-0.013303 -0.244497 0
-0.013303 -0.263926 0
-0.009490 -0.236782 0
-0.000039 0.000007 0
0.000000 0.101220 0
0.000000 -0.000003 0
-0.000628 0.141074 0
-0.005808 0.177419 0
-0.011218 0.193252 0
-0.015801 0.201051 0
-0.019337 0.201178 0
-0.021755 0.194002 0
-0.023054 0.180452 0
-0.023282 0.161817 0
-0.022505 0.139528 0
-0.020774 0.114950 0
-0.018097 0.089256 0
-0.014406 0.063391 0
-0.009538 0.038184 0
-0.003342 0.014803 0
0.002870 -0.001937 0
0.005783 -0.008821 0
0.007489 -0.009057 0
0.008662 -0.006031 0
0.009519 -0.001290 0
0.010008 0.004110 0
0.009903 0.009095 0
0.009101 0.012743 0
0.007626 0.014492 0
0.005615 0.014029 0
0.003336 0.010761 0
0.001226 0.002892 0
-0.000339 -0.011896 0
-0.000585 -0.032754 0
-0.000628 -0.056169 0
-0.000795 -0.080062 0
-0.001065 -0.103925 0
-0.001445 -0.127572 0
-0.001973 -0.150879 0
-0.002704 -0.173813 0
-0.003696 -0.196518 0
-0.005013 -0.219473 0
-0.006693 -0.243489 0
-0.008278 -0.264757 0
-0.006956 -0.242110 0
-0.000035 0.000007 0
0.000000 0.105298 0
0.000000 -0.000003 0
0.002875 0.142171 0
0.001244 0.181143 0
-0.001497 0.197052 0
-0.003988 0.204193 0
-0.005990 0.203518 0
-0.007443 0.195505 0
-0.008334 0.181130 0
-0.008680 0.161705 0
-0.008506 0.138659 0
-0.007830 0.113335 0
-0.006637 0.086849 0
-0.004862 0.060065 0
-0.002384 0.033795 0
0.000575 0.010508 0
0.002062 -0.004439 0
0.002347 -0.009864 0
0.002299 -0.009677 0
0.002264 -0.006521 0
0.002385 -0.001709 0
0.002633 0.003905 0
0.002824 0.009305 0
0.002750 0.013469 0
0.002313 0.015703 0
0.001590 0.015527 0
0.000881 0.012136 0
0.000754 0.003555 0
0.002280 -0.012381 0
0.004428 -0.033731 0
0.005977 -0.056788 0
0.006884 -0.080292 0
0.007266 -0.103839 0
0.007175 -0.127182 0
0.006617 -0.150163 0
0.005573 -0.172734 0
0.004021 -0.195030 0
0.001932 -0.217530 0
-0.000729 -0.241232 0
-0.003744 -0.263663 0
-0.004668 -0.245060 0
-0.000032 0.000007 0
0.000000 0.108176 0
0.000000 -0.000003 0
0.006154 0.139829 0
0.007954 0.181792 0
0.007840 0.198484 0
0.007391 0.205544 0
0.006896 0.204632 0
0.006403 0.196346 0
0.005922 0.181689 0
0.005455 0.161990 0
0.005001 0.138677 0
0.004561 0.113081 0
0.004140 0.086288 0
0.003743 0.059138 0
0.003307 0.032747 0
0.002217 0.010357 0
-0.000092 -0.003709 0
-0.001883 -0.009058 0
-0.003330 -0.008975 0
-0.004334 -0.006116 0
-0.004822 -0.001659 0
-0.004775 0.003670 0
-0.004292 0.008978 0
-0.003620 0.013254 0
-0.002931 0.015652 0
-0.002189 0.015461 0
-0.001064 0.011597 0
0.001307 0.001493 0
0.005752 -0.015570 0
0.009639 -0.036451 0
0.012431 -0.058625 0
0.014241 -0.081351 0
0.015188 -0.104216 0
0.015339 -0.126922 0
0.014721 -0.149277 0
0.013343 -0.171217 0
0.011206 -0.192877 0
0.008316 -0.214723 0
0.004667 -0.237813 0
0.000396 -0.260818 0
-0.002576 -0.245855 0
-0.000030 0.000006 0
0.000000 0.109966 0
0.000000 -0.000002 0
0.009189 0.134217 0
0.014308 0.179457 0
0.016765 0.197615 0
0.018302 0.205137 0
0.019307 0.204506 0
0.019814 0.196480 0
0.019818 0.182078 0
0.019321 0.162626 0
0.018335 0.139554 0
0.016873 0.114196 0
0.014920 0.087666 0
0.012403 0.060897 0
0.009081 0.035322 0
0.004434 0.013907 0
-0.000989 -0.000339 0
-0.004978 -0.006626 0
-0.007666 -0.007226 0
-0.009440 -0.005030 0
-0.010376 -0.001268 0
-0.010443 0.003375 0
-0.009698 0.008149 0
-0.008348 0.012108 0
-0.006559 0.014272 0
-0.004295 0.013659 0
-0.001078 0.008639 0
0.004532 -0.003261 0
0.010690 -0.020713 0
0.015645 -0.040411 0
0.019298 -0.061390 0
0.021750 -0.083049 0
0.023083 -0.104936 0
0.023350 -0.126714 0
0.022583 -0.148167 0
0.020804 -0.169219 0
0.018032 -0.190004 0
0.014293 -0.210991 0
0.009620 -0.233312 0
0.004166 -0.256420 0
-0.000626 -0.244664 0
-0.000028 0.000006 0
0.000000 0.110752 0
0.000000 -0.000002 0
0.011920 0.125521 0
0.020235 0.174216 0
0.025234 0.194490 0
0.028718 0.203003 0
0.031219 0.203121 0
0.032785 0.195835 0
0.033390 0.182182 0
0.033025 0.163472 0
0.031709 0.141125 0
0.029464 0.116495 0
0.026276 0.090757 0
0.022047 0.064978 0
0.016536 0.040717 0
0.009578 0.020426 0
0.001963 0.005703 0
-0.004742 -0.002381 0
-0.008959 -0.004513 0
-0.011455 -0.003407 0
-0.012735 -0.000655 0
-0.012856 0.002992 0
-0.011899 0.006883 0
-0.009976 0.010116 0
-0.007151 0.011600 0
-0.003239 0.009979 0
0.002780 0.002769 0
0.010550 -0.010275 0
0.017344 -0.026682 0
0.022824 -0.045059 0
0.026953 -0.064731 0
0.029749 -0.085136 0
0.031240 -0.105816 0
0.031449 -0.126423 0
0.030399 -0.146731 0
0.028116 -0.166666 0
0.024634 -0.186366 0
0.020001 -0.206312 0
0.014277 -0.227685 0
0.007613 -0.250572 0
0.001233 -0.241689 0
-0.000028 0.000006 0
0.000000 0.110591 0
0.000000 -0.000001 0
0.014248 0.113982 0
0.025598 0.166143 0
0.033125 0.189132 0
0.038548 0.199152 0
0.042562 0.200439 0
0.045267 0.194309 0
0.046621 0.181838 0
0.046606 0.164307 0
0.045240 0.143115 0
0.042561 0.119629 0
0.038586 0.095083 0
0.033260 0.070638 0
0.026474 0.047790 0
0.018386 0.028480 0
0.009833 0.013981 0
0.001559 0.004296 0
-0.004659 -0.000512 0
-0.008490 -0.001255 0
-0.010301 0.000133 0
-0.010567 0.002540 0
-0.009488 0.005270 0
-0.007082 0.007360 0
-0.003131 0.007534 0
0.002905 0.003728 0
0.010966 -0.005149 0
0.018905 -0.017825 0
0.025774 -0.032986 0
0.031385 -0.050020 0
0.035637 -0.068316 0
0.038473 -0.087336 0
0.039867 -0.106636 0
0.039812 -0.125874 0
0.038315 -0.144834 0
0.035402 -0.163454 0
0.031115 -0.181888 0
0.025520 -0.200634 0
0.018705 -0.220924 0
0.010837 -0.243376 0
0.003009 -0.237052 0
-0.000027 0.000006 0
0.000000 0.109519 0
0.000000 -0.000001 0
0.016038 0.099923 0
0.030191 0.155338 0
0.040230 0.181541 0
0.047621 0.193566 0
0.053197 0.196402 0
0.057139 0.191776 0
0.059417 0.180843 0
0.060001 0.164853 0
0.058911 0.145170 0
0.056205 0.123150 0
0.051949 0.100059 0
0.046178 0.077089 0
0.038936 0.055591 0
0.030560 0.037067 0
0.021851 0.022529 0
0.013597 0.012111 0
0.006375 0.005536 0
0.001242 0.002236 0
-0.001570 0.001422 0
-0.002344 0.002179 0
-0.001263 0.003398 0