# vtk DataFile Version 2.0
generated by CFD-lab course output (written by Tobias Neckel) 
ASCII

DATASET STRUCTURED_GRID
DIMENSIONS  42 42 1 
POINTS 1764 float

0.150000 0.150000 0
0.167857 0.150000 0
0.185714 0.150000 0
0.203571 0.150000 0
0.221429 0.150000 0
0.239286 0.150000 0
0.257143 0.150000 0
0.275000 0.150000 0
0.292857 0.150000 0
0.310714 0.150000 0
0.328571 0.150000 0
0.346429 0.150000 0
0.364286 0.150000 0
0.382143 0.150000 0
0.400000 0.150000 0
0.417857 0.150000 0
0.435714 0.150000 0
0.453571 0.150000 0
0.471429 0.150000 0
0.489286 0.150000 0
0.507143 0.150000 0
0.525000 0.150000 0
0.542857 0.150000 0
0.560714 0.150000 0
0.578571 0.150000 0
0.596429 0.150000 0
0.614286 0.150000 0
0.632143 0.150000 0
0.650000 0.150000 0
0.667857 0.150000 0
0.685714 0.150000 0
0.703571 0.150000 0
0.721429 0.150000 0
0.739286 0.150000 0
0.757143 0.150000 0
0.775000 0.150000 0
0.792857 0.150000 0
0.810714 0.150000 0
0.828571 0.150000 0
0.846429 0.150000 0
0.864286 0.150000 0
0.882143 0.150000 0
0.150000 0.167857 0
0.167857 0.167857 0
0.185714 0.167857 0
0.203571 0.167857 0
0.221429 0.167857 0
0.239286 0.167857 0
0.257143 0.167857 0
0.275000 0.167857 0
0.292857 0.167857 0
0.310714 0.167857 0
0.328571 0.167857 0
0.346429 0.167857 0
0.364286 0.167857 0
0.382143 0.167857 0
0.400000 0.167857 0
0.417857 0.167857 0
0.435714 0.167857 0
0.453571 0.167857 0
0.471429 0.167857 0
0.489286 0.167857 0
0.507143 0.167857 0
0.525000 0.167857 0
0.542857 0.167857 0
0.560714 0.167857 0
0.578571 0.167857 0
0.596429 0.167857 0
0.614286 0.167857 0
0.632143 0.167857 0
0.650000 0.167857 0
0.667857 0.167857 0
0.685714 0.167857 0
0.703571 0.167857 0
0.721429 0.167857 0
0.739286 0.167857 0
0.757143 0.167857 0
0.775000 0.167857 0
0.792857 0.167857 0
0.810714 0.167857 0
0.828571 0.167857 0
0.846429 0.167857 0
0.864286 0.167857 0
0.882143 0.167857 0
0.150000 0.185714 0
0.167857 0.185714 0
0.185714 0.185714 0
0.203571 0.185714 0
0.221429 0.185714 0
0.239286 0.185714 0
0.257143 0.185714 0
0.275000 0.185714 0
0.292857 0.185714 0
0.310714 0.185714 0
0.328571 0.185714 0
0.346429 0.185714 0
0.364286 0.185714 0
0.382143 0.185714 0
0.400000 0.185714 0
0.417857 0.185714 0
0.435714 0.185714 0
0.453571 0.185714 0
0.471429 0.185714 0
0.489286 0.185714 0
0.507143 0.185714 0
0.525000 0.185714 0
0.542857 0.185714 0
0.560714 0.185714 0
0.578571 0.185714 0
0.596429 0.185714 0
0.614286 0.185714 0
0.632143 0.185714 0
0.650000 0.185714 0
0.667857 0.185714 0
0.685714 0.185714 0
0.703571 0.185714 0
0.721429 0.185714 0
0.739286 0.185714 0
0.757143 0.185714 0
0.775000 0.185714 0
0.792857 0.185714 0
0.810714 0.185714 0
0.828571 0.185714 0
0.846429 0.185714 0
0.864286 0.185714 0
0.882143 0.185714 0
0.150000 0.203571 0
0.167857 0.203571 0
0.185714 0.203571 0
0.203571 0.203571 0
0.221429 0.203571 0
0.239286 0.203571 0
0.257143 0.203571 0
0.275000 0.203571 0
0.292857 0.203571 0
0.310714 0.203571 0
0.328571 0.203571 0
0.346429 0.203571 0
0.364286 0.203571 0
0.382143 0.203571 0
0.400000 0.203571 0
0.417857 0.203571 0
0.435714 0.203571 0
0.453571 0.203571 0
0.471429 0.203571 0
0.489286 0.203571 0
0.507143 0.203571 0
0.525000 0.203571 0
0.542857 0.203571 0
0.560714 0.203571 0
0.578571 0.203571 0
0.596429 0.203571 0
0.614286 0.203571 0
0.632143 0.203571 0
0.650000 0.203571 0
0.667857 0.203571 0
0.685714 0.203571 0
0.703571 0.203571 0
0.721429 0.203571 0
0.739286 0.203571 0
0.757143 0.203571 0
0.775000 0.203571 0
0.792857 0.203571 0
0.810714 0.203571 0
0.828571 0.203571 0
0.846429 0.203571 0
0.864286 0.203571 0
0.882143 0.203571 0
0.150000 0.221429 0
0.167857 0.221429 0
0.185714 0.221429 0
0.203571 0.221429 0
0.221429 0.221429 0
0.239286 0.221429 0
0.257143 0.221429 0
0.275000 0.221429 0
0.292857 0.221429 0
0.310714 0.221429 0
0.328571 0.221429 0
0.346429 0.221429 0
0.364286 0.221429 0
0.382143 0.221429 0
0.400000 0.221429 0
0.417857 0.221429 0
0.435714 0.221429 0
0.453571 0.221429 0
0.471429 0.221429 0
0.489286 0.221429 0
0.507143 0.221429 0
0.525000 0.221429 0
0.542857 0.221429 0
0.560714 0.221429 0
0.578571 0.221429 0
0.596429 0.221429 0
0.614286 0.221429 0
0.632143 0.221429 0
0.650000 0.221429 0
0.667857 0.221429 0
0.685714 0.221429 0
0.703571 0.221429 0
0.721429 0.221429 0
0.739286 0.221429 0
0.757143 0.221429 0
0.775000 0.221429 0
0.792857 0.221429 0
0.810714 0.221429 0
0.828571 0.221429 0
0.846429 0.221429 0
0.864286 0.221429 0
0.882143 0.221429 0
0.150000 0.239286 0
0.167857 0.239286 0
0.185714 0.239286 0
0.203571 0.239286 0
0.221429 0.239286 0
0.239286 0.239286 0
0.257143 0.239286 0
0.275000 0.239286 0
0.292857 0.239286 0
0.310714 0.239286 0
0.328571 0.239286 0
0.346429 0.239286 0
0.364286 0.239286 0
0.382143 0.239286 0
0.400000 0.239286 0
0.417857 0.239286 0
0.435714 0.239286 0
0.453571 0.239286 0
0.471429 0.239286 0
0.489286 0.239286 0
0.507143 0.239286 0
0.525000 0.239286 0
0.542857 0.239286 0
0.560714 0.239286 0
0.578571 0.239286 0
0.596429 0.239286 0
0.614286 0.239286 0
0.632143 0.239286 0
0.650000 0.239286 0
0.667857 0.239286 0
0.685714 0.239286 0
0.703571 0.239286 0
0.721429 0.239286 0
0.739286 0.239286 0
0.757143 0.239286 0
0.775000 0.239286 0
0.792857 0.239286 0
0.810714 0.239286 0
0.828571 0.239286 0
0.846429 0.239286 0
0.864286 0.239286 0
0.882143 0.239286 0
0.150000 0.257143 0
0.167857 0.257143 0
0.185714 0.257143 0
0.203571 0.257143 0
0.221429 0.257143 0
0.239286 0.257143 0
0.257143 0.257143 0
0.275000 0.257143 0
0.292857 0.257143 0
0.310714 0.257143 0
0.328571 0.257143 0
0.346429 0.257143 0
0.364286 0.257143 0
0.382143 0.257143 0
0.400000 0.257143 0
0.417857 0.257143 0
0.435714 0.257143 0
0.453571 0.257143 0
0.471429 0.257143 0
0.489286 0.257143 0
0.507143 0.257143 0
0.525000 0.257143 0
0.542857 0.257143 0
0.560714 0.257143 0
0.578571 0.257143 0
0.596429 0.257143 0
0.614286 0.257143 0
0.632143 0.257143 0
0.650000 0.257143 0
0.667857 0.257143 0
0.685714 0.257143 0
0.703571 0.257143 0
0.721429 0.257143 0
0.739286 0.257143 0
0.757143 0.257143 0
0.775000 0.257143 0
0.792857 0.257143 0
0.810714 0.257143 0
0.828571 0.257143 0
0.846429 0.257143 0
0.864286 0.257143 0
0.882143 0.257143 0
0.150000 0.275000 0
0.167857 0.275000 0
0.185714 0.275000 0
0.203571 0.275000 0
0.221429 0.275000 0
0.239286 0.275000 0
0.257143 0.275000 0
0.275000 0.275000 0
0.292857 0.275000 0
0.310714 0.275000 0
0.328571 0.275000 0
0.346429 0.275000 0
0.364286 0.275000 0
0.382143 0.275000 0
0.400000 0.275000 0
0.417857 0.275000 0
0.435714 0.275000 0
0.453571 0.275000 0
0.471429 0.275000 0
0.489286 0.275000 0
0.507143 0.275000 0
0.525000 0.275000 0
0.542857 0.275000 0
0.560714 0.275000 0
0.578571 0.275000 0
0.596429 0.275000 0
0.614286 0.275000 0
0.632143 0.275000 0
0.650000 0.275000 0
0.667857 0.275000 0
0.685714 0.275000 0
0.703571 0.275000 0
0.721429 0.275000 0
0.739286 0.275000 0
0.757143 0.275000 0
0.775000 0.275000 0
0.792857 0.275000 0
0.810714 0.275000 0
0.828571 0.275000 0
0.846429 0.275000 0
0.864286 0.275000 0
0.882143 0.275000 0
0.150000 0.292857 0
0.167857 0.292857 0
0.185714 0.292857 0
0.203571 0.292857 0
0.221429 0.292857 0
0.239286 0.292857 0
0.257143 0.292857 0
0.275000 0.292857 0
0.292857 0.292857 0
0.310714 0.292857 0
0.328571 0.292857 0
0.346429 0.292857 0
0.364286 0.292857 0
0.382143 0.292857 0
0.400000 0.292857 0
0.417857 0.292857 0
0.435714 0.292857 0
0.453571 0.292857 0
0.471429 0.292857 0
0.489286 0.292857 0
0.507143 0.292857 0
0.525000 0.292857 0
0.542857 0.292857 0
0.560714 0.292857 0
0.578571 0.292857 0
0.596429 0.292857 0
0.614286 0.292857 0
0.632143 0.292857 0
0.650000 0.292857 0
0.667857 0.292857 0
0.685714 0.292857 0
0.703571 0.292857 0
0.721429 0.292857 0
0.739286 0.292857 0
0.757143 0.292857 0
0.775000 0.292857 0
0.792857 0.292857 0
0.810714 0.292857 0
0.828571 0.292857 0
0.846429 0.292857 0
0.864286 0.292857 0
0.882143 0.292857 0
0.150000 0.310714 0
0.167857 0.310714 0
0.185714 0.310714 0
0.203571 0.310714 0
0.221429 0.310714 0
0.239286 0.310714 0
0.257143 0.310714 0
0.275000 0.310714 0
0.292857 0.310714 0
0.310714 0.310714 0
0.328571 0.310714 0
0.346429 0.310714 0
0.364286 0.310714 0
0.382143 0.310714 0
0.400000 0.310714 0
0.417857 0.310714 0
0.435714 0.310714 0
0.453571 0.310714 0
0.471429 0.310714 0
0.489286 0.310714 0
0.507143 0.310714 0
0.525000 0.310714 0
0.542857 0.310714 0
0.560714 0.310714 0
0.578571 0.310714 0
0.596429 0.310714 0
0.614286 0.310714 0
0.632143 0.310714 0
0.650000 0.310714 0
0.667857 0.310714 0
0.685714 0.310714 0
0.703571 0.310714 0
0.721429 0.310714 0
0.739286 0.310714 0
0.757143 0.310714 0
0.775000 0.310714 0
0.792857 0.310714 0
0.810714 0.310714 0
0.828571 0.310714 0
0.846429 0.310714 0
0.864286 0.310714 0
0.882143 0.310714 0
0.150000 0.328571 0
0.167857 0.328571 0
0.185714 0.328571 0
0.203571 0.328571 0
0.221429 0.328571 0
0.239286 0.328571 0
0.257143 0.328571 0
0.275000 0.328571 0
0.292857 0.328571 0
0.310714 0.328571 0
0.328571 0.328571 0
0.346429 0.328571 0
0.364286 0.328571 0
0.382143 0.328571 0
0.400000 0.328571 0
0.417857 0.328571 0
0.435714 0.328571 0
0.453571 0.328571 0
0.471429 0.328571 0
0.489286 0.328571 0
0.507143 0.328571 0
0.525000 0.328571 0
0.542857 0.328571 0
0.560714 0.328571 0
0.578571 0.328571 0
0.596429 0.328571 0
0.614286 0.328571 0
0.632143 0.328571 0
0.650000 0.328571 0
0.667857 0.328571 0
0.685714 0.328571 0
0.703571 0.328571 0
0.721429 0.328571 0
0.739286 0.328571 0
0.757143 0.328571 0
0.775000 0.328571 0
0.792857 0.328571 0
0.810714 0.328571 0
0.828571 0.328571 0
0.846429 0.328571 0
0.864286 0.328571 0
0.882143 0.328571 0
0.150000 0.346429 0
0.167857 0.346429 0
0.185714 0.346429 0
0.203571 0.346429 0
0.221429 0.346429 0
0.239286 0.346429 0
0.257143 0.346429 0
0.275000 0.346429 0
0.292857 0.346429 0
0.310714 0.346429 0
0.328571 0.346429 0
0.346429 0.346429 0
0.364286 0.346429 0
0.382143 0.346429 0
0.400000 0.346429 0
0.417857 0.346429 0
0.435714 0.346429 0
0.453571 0.346429 0
0.471429 0.346429 0
0.489286 0.346429 0
0.507143 0.346429 0
0.525000 0.346429 0
0.542857 0.346429 0
0.560714 0.346429 0
0.578571 0.346429 0
0.596429 0.346429 0
0.614286 0.346429 0
0.632143 0.346429 0
0.650000 0.346429 0
[...]
POINT_DATA 1764 

VECTORS velocity float
0.000000 0.000000 0
0.000043 0.000000 0
0.000045 0.000000 0
0.000045 0.000000 0
0.000029 0.000000 0
0.000002 0.000000 0
0.000004 0.000000 0
0.000011 0.000000 0
0.000021 0.000000 0
0.000031 0.000000 0
0.000041 0.000000 0
0.000050 0.000000 0
0.000057 0.000000 0
0.000063 0.000000 0
0.000068 0.000000 0
0.000071 0.000000 0
0.000073 0.000000 0
0.000074 0.000000 0
0.000074 0.000000 0
0.000073 0.000000 0
0.000072 0.000000 0
0.000071 0.000000 0
0.000069 0.000000 0
0.000067 0.000000 0
0.000065 0.000000 0
0.000062 0.000000 0
0.000060 0.000000 0
0.000057 0.000000 0
0.000054 0.000000 0
0.000051 0.000000 0
0.000047 0.000000 0
0.000044 0.000000 0
0.000039 0.000000 0
0.000035 0.000000 0
0.000029 0.000000 0
0.000024 0.000000 0
0.000018 0.000000 0
0.000012 0.000000 0
0.000006 0.000000 0
0.000002 0.000000 0
0.000000 0.000000 0
0.000000 0.000000 0
0.000000 -0.000043 0
0.042366 -0.037015 0
0.062886 -0.021472 0
0.032810 -0.010643 0
-0.027981 0.039481 0
-0.117057 0.098351 0
-0.222699 0.113918 0
-0.328636 0.110455 0
-0.428066 0.102306 0
-0.516770 0.090798 0
-0.593118 0.078212 0
-0.657028 0.065843 0
-0.709383 0.054486 0
-0.751524 0.044502 0
-0.784914 0.035970 0
-0.810948 0.028814 0
-0.830862 0.022870 0
-0.845702 0.017956 0
-0.856346 0.013905 0
-0.863523 0.010575 0
-0.867846 0.007843 0
-0.869819 0.005601 0
-0.869843 0.003749 0
-0.868299 0.002162 0
-0.865417 0.000703 0
-0.861263 -0.000775 0
-0.855759 -0.002451 0
-0.848657 -0.004521 0
-0.839509 -0.007231 0
-0.827622 -0.010882 0
-0.811987 -0.015898 0
-0.791169 -0.022819 0
-0.763223 -0.032280 0
-0.725558 -0.045039 0
-0.674846 -0.061878 0
-0.607032 -0.083345 0
-0.517680 -0.108998 0
-0.403210 -0.135650 0
-0.264229 -0.152326 0
-0.114061 -0.124367 0
-0.000531 0.000002 0
0.000000 0.046334 0
0.000000 -0.000073 0
0.008270 -0.062886 0
-0.027379 0.009555 0
-0.106722 0.090867 0
-0.216172 0.149867 0
-0.307602 0.194718 0
-0.394434 0.211580 0
-0.478992 0.205366 0
-0.555246 0.188134 0
-0.620908 0.165052 0
-0.675351 0.140258 0
-0.719174 0.116266 0
-0.753587 0.094496 0
-0.779985 0.075531 0
-0.799699 0.059424 0
-0.813875 0.045948 0
-0.823453 0.034754 0
-0.829201 0.025484 0
-0.831751 0.017822 0
-0.831634 0.011501 0
-0.829302 0.006295 0
-0.825142 0.001997 0
-0.819639 -0.001520 0
-0.813032 -0.004426 0
-0.805488 -0.007035 0
-0.797066 -0.009657 0
-0.787727 -0.012607 0
-0.777296 -0.016250 0
-0.765439 -0.021034 0
-0.751630 -0.027522 0
-0.735086 -0.036453 0
-0.714744 -0.048764 0
-0.689131 -0.065612 0
-0.656274 -0.088376 0
-0.613569 -0.118525 0
-0.557709 -0.157167 0
-0.484772 -0.203822 0
-0.390749 -0.253451 0
-0.273377 -0.289150 0
-0.136425 -0.264229 0
-0.000846 0.000006 0
0.000000 0.114066 0
0.000000 -0.000067 0
-0.052957 -0.009636 0
-0.138100 0.093520 0
-0.220396 0.178150 0
-0.307266 0.240362 0
-0.385586 0.276613 0
-0.452441 0.285308 0
-0.510874 0.271267 0
-0.559623 0.244222 0
-0.598764 0.210903 0
-0.629144 0.176478 0
-0.652114 0.144079 0
-0.669098 0.115298 0
-0.681323 0.090615 0
-0.689726 0.069860 0
-0.694969 0.052567 0
-0.697513 0.038196 0
-0.697705 0.026254 0
-0.695835 0.016338 0
-0.692183 0.008125 0
-0.687024 0.001352 0
-0.680814 -0.004061 0
-0.673807 -0.008361 0
-0.666150 -0.011990 0
-0.657958 -0.015263 0
-0.649319 -0.018536 0
-0.640231 -0.022221 0
-0.630593 -0.026809 0
-0.620183 -0.032897 0
-0.608635 -0.041234 0
-0.595415 -0.052784 0
-0.579789 -0.068774 0
-0.560744 -0.090750 0
-0.536894 -0.120601 0
-0.506336 -0.160443 0
-0.466459 -0.212142 0
-0.413715 -0.275958 0
-0.343434 -0.347044 0
-0.250194 -0.406650 0
-0.130609 -0.397745 0
-0.001045 0.000010 0
0.000000 0.182767 0
0.000000 -0.000030 0
-0.091852 0.075214 0
-0.177953 0.176995 0
-0.260041 0.260034 0
-0.333897 0.315058 0
-0.396026 0.339892 0
-0.444606 0.336868 0
-0.482126 0.312549 0
-0.509876 0.276024 0
-0.529700 0.234573 0
-0.543518 0.193607 0
-0.553089 0.156219 0
-0.559727 0.123705 0
-0.564230 0.096159 0
-0.566962 0.073070 0
-0.568016 0.053735 0
-0.567364 0.037489 0
-0.564974 0.023806 0
-0.560884 0.012300 0
-0.555228 0.002689 0
-0.548317 -0.005074 0
-0.540521 -0.011220 0
-0.531949 -0.016185 0
-0.522897 -0.020276 0
-0.513606 -0.023867 0
-0.504239 -0.027384 0
-0.494864 -0.031332 0
-0.485454 -0.036299 0
-0.475877 -0.042992 0
-0.465897 -0.052290 0
-0.455169 -0.065299 0
-0.443222 -0.083435 0
-0.429417 -0.108507 0
-0.412871 -0.142785 0
-0.392315 -0.188960 0
-0.365849 -0.249787 0
-0.330495 -0.326848 0
-0.281508 -0.416972 0
-0.211763 -0.501974 0
-0.113658 -0.514423 0
-0.001107 0.000015 0
0.000000 0.244685 0
0.000000 -0.000004 0
-0.094190 0.168317 0
-0.181426 0.261708 0
-0.257491 0.334094 0
-0.320254 0.376346 0
-0.368763 0.387322 0
-0.403232 0.371409 0
-0.426373 0.336537 0
-0.440811 0.291796 0
-0.449398 0.244545 0
-0.454597 0.199868 0
-0.458176 0.160288 0
-0.461054 0.126438 0
-0.463424 0.097850 0
-0.465016 0.073646 0
-0.465370 0.052968 0
-0.464043 0.035154 0
-0.460731 0.019774 0
-0.455323 0.006591 0
-0.447901 -0.004441 0
-0.438970 -0.013355 0
-0.428682 -0.020430 0
-0.417551 -0.025985 0
-0.406035 -0.030332 0
-0.394536 -0.033921 0
-0.383337 -0.037277 0
-0.372601 -0.041006 0
-0.362368 -0.045797 0
-0.352571 -0.052454 0
-0.343049 -0.061942 0
-0.333564 -0.075458 0
-0.323802 -0.094525 0
-0.313362 -0.121102 0
-0.301708 -0.157703 0
-0.288064 -0.207464 0
-0.271173 -0.273963 0
-0.248823 -0.360299 0
-0.216915 -0.465776 0
-0.168133 -0.574501 0
-0.092553 -0.609507 0
-0.001057 0.000020 0
0.000000 0.296435 0
0.000000 0.000012 0
-0.085699 0.256639 0
-0.165671 0.340295 0
-0.232730 0.398862 0
-0.285312 0.426330 0
-0.323319 0.422870 0
-0.348092 0.394478 0
-0.362660 0.350128 0
-0.370313 0.299050 0
-0.374333 0.248359 0
-0.377253 0.202385 0
-0.380501 0.162677 0
-0.384389 0.128953 0
-0.388434 0.100121 0
-0.391776 0.075016 0
-0.393511 0.052762 0
-0.392902 0.032850 0
-0.389486 0.015087 0
-0.383115 -0.000529 0
-0.373983 -0.013664 0
-0.362489 -0.024293 0
-0.349179 -0.032639 0
-0.334803 -0.038832 0
-0.320040 -0.043292 0
-0.305481 -0.046565 0
-0.291575 -0.049319 0
-0.278608 -0.052301 0
-0.266707 -0.056328 0
-0.255861 -0.062311 0
-0.245950 -0.071297 0
-0.236782 -0.084545 0
-0.228106 -0.103637 0
-0.219628 -0.130601 0
-0.210995 -0.168083 0
-0.201721 -0.219495 0
-0.191024 -0.289029 0
-0.177438 -0.381106 0
-0.157937 -0.497662 0
-0.126167 -0.626337 0
-0.071411 -0.682555 0
-0.000936 0.000025 0
0.000000 0.337247 0
0.000000 0.000021 0
-0.072655 0.333988 0
-0.141273 0.408739 0
-0.197992 0.453735 0
-0.241369 0.466935 0
-0.271553 0.450102 0
-0.290292 0.410749 0
-0.300704 0.358758 0
-0.306269 0.303469 0
-0.310245 0.251484 0
-0.314849 0.206036 0
-0.320922 0.167424 0
-0.328101 0.134371 0
-0.335328 0.105236 0
-0.341335 0.078724 0
-0.344957 0.054095 0
-0.345312 0.031129 0
-0.341885 0.009988 0
-0.334553 -0.008912 0
-0.323714 -0.025068 0
-0.309770 -0.038158 0
-0.293639 -0.048116 0
-0.276182 -0.055125 0
-0.258260 -0.059655 0
-0.240626 -0.062386 0
-0.223887 -0.064150 0
-0.208465 -0.065873 0
-0.194597 -0.068544 0
-0.182346 -0.073211 0
-0.171644 -0.081020 0
-0.162331 -0.093302 0
-0.154179 -0.111679 0
-0.146927 -0.138214 0
-0.140292 -0.175610 0
-0.133918 -0.227435 0
-0.127275 -0.298247 0
-0.119440 -0.393386 0
-0.108459 -0.517047 0
-0.089537 -0.661027 0
-0.052457 -0.735675 0
-0.000781 0.000030 0
0.000000 0.367855 0
0.000000 0.000028 0
-0.057938 0.397913 0
-0.113889 0.465632 0
-0.160125 0.498958 0
-0.195376 0.499891 0
-0.219808 0.471792 0
-0.235143 0.423629 0
-0.244299 0.366105 0
-0.250546 0.308590 0
-0.256757 0.256939 0
-0.264574 0.213062 0
-0.274187 0.175928 0
-0.284702 0.143360 0
-0.294729 0.113355 0
-0.302830 0.084645 0
-0.307764 0.056738 0
-0.308630 0.029778 0
-0.304947 0.004328 0
-0.296645 -0.018701 0
-0.284298 -0.038447 0
-0.268577 -0.054368 0
-0.250431 -0.066227 0
-0.230819 -0.074211 0
-0.210680 -0.078847 0
-0.190855 -0.080938 0
-0.172040 -0.081480 0
-0.154765 -0.081590 0
-0.139363 -0.082447 0
-0.125977 -0.085264 0
-0.114606 -0.091312 0
-0.105142 -0.102011 0
-0.097381 -0.119041 0
-0.091089 -0.144488 0
-0.086007 -0.181092 0
-0.081825 -0.232512 0
-0.078120 -0.303507 0
-0.074270 -0.399923 0
-0.069126 -0.527565 0
-0.059504 -0.682339 0
-0.036602 -0.772092 0
-0.000624 0.000035 0
0.000000 0.389713 0
0.000000 0.000033 0
-0.043030 0.447878 0
-0.086317 0.510926 0
-0.122520 0.535221 0
-0.150642 0.526618 0
-0.170771 0.489869 0
-0.184330 0.435241 0
-0.193758 0.374161 0
-0.201789 0.315927 0
-0.210651 0.265512 0
-0.221336 0.223465 0
-0.233532 0.187552 0
-0.246095 0.154913 0
-0.257586 0.123365 0
-0.266604 0.091758 0
-0.271960 0.059895 0
-0.272793 0.028312 0
-0.268673 -0.001998 0
-0.259657 -0.029561 0
-0.246386 -0.053135 0
-0.229718 -0.072026 0
-0.210621 -0.085874 0
-0.190081 -0.094875 0
-0.169044 -0.099619 0
-0.148355 -0.101026 0
-0.128728 -0.100240 0
-0.110733 -0.098551 0
-0.094771 -0.097332 0
-0.081035 -0.097968 0
-0.069581 -0.101856 0
-0.060364 -0.110527 0
-0.053213 -0.125733 0
-0.047933 -0.149588 0
-0.044287 -0.184874 0
-0.041985 -0.235322 0
-0.040655 -0.305802 0
-0.039821 -0.402380 0
-0.038834 -0.531813 0
-0.035849 -0.693551 0
-0.023926 -0.795179 0
-0.000484 0.000039 0
0.000000 0.404466 0
0.000000 0.000039 0
-0.028639 0.484230 0
-0.059761 0.545123 0
-0.086511 0.563283 0
-0.108238 0.548141 0
-0.124920 0.505480 0
-0.137500 0.446616 0
-0.147698 0.383564 0
-0.157444 0.325483 0
-0.168199 0.276486 0
-0.180396 0.235942 0
-0.193494 0.200687 0
-0.206401 0.167414 0
-0.217863 0.133865 0
-0.226672 0.099019 0
-0.231748 0.062927 0
-0.232241 0.026491 0
-0.227694 -0.008808 0
-0.218275 -0.040987 0
-0.204741 -0.068386 0
-0.188042 -0.090133 0
-0.169124 -0.105864 0
-0.148935 -0.115788 0
-0.128367 -0.120573 0
-0.108218 -0.121254 0
-0.089150 -0.119103 0
-0.071708 -0.115547 0
-0.056334 -0.112146 0
-0.043229 -0.110454 0
-0.032504 -0.111982 0
-0.024156 -0.118378 0
-0.018055 -0.131472 0
-0.014051 -0.153413 0
-0.011924 -0.187040 0
-0.011399 -0.236145 0
-0.012148 -0.305670 0
-0.013776 -0.401744 0
-0.015892 -0.531538 0
-0.017664 -0.697247 0
-0.014074 -0.807941 0
-0.000369 0.000042 0
0.000000 0.413646 0
0.000000 0.000046 0
-0.015011 0.507639 0
-0.034604 0.568798 0
-0.052348 0.583698 0
-0.068054 0.565027 0
-0.081605 0.519132 0
-0.093353 0.458019 0
-0.104143 0.394105 0
-0.114950 0.336429 0
-0.126418 0.288465 0
-0.138561 0.248760 0
-0.150853 0.213556 0
-0.162476 0.179282 0
-0.172529 0.143636 0
-0.180108 0.105643 0
-0.184313 0.065464 0
-0.184284 0.024257 0
-0.179421 -0.015964 0
-0.169981 -0.052513 0
-0.156929 -0.083368 0
-0.141170 -0.107643 0
-0.123578 -0.124981 0
-0.104992 -0.135632 0
-0.086197 -0.140336 0
-0.067906 -0.140243 0
-0.050705 -0.136749 0
-0.035041 -0.131367 0
-0.021352 -0.125812 0
-0.009814 -0.121798 0
-0.000641 -0.120929 0
0.006188 -0.124976 0
0.010721 -0.135837 0
0.013100 -0.155718 0
0.013532 -0.187526 0
0.012265 -0.235098 0
0.009589 -0.303425 0
0.005841 -0.398636 0
0.001349 -0.527925 0
-0.003867 -0.695369 0
-0.006524 -0.812842 0
-0.000283 0.000045 0
0.000000 0.418546 0
0.000000 0.000054 0
-0.002465 0.518834 0
-0.010921 0.582459 0
-0.019796 0.596733 0
-0.029385 0.577398 0
-0.039670 0.530779 0
-0.050408 0.469155 0
-0.061329 0.405162 0
-0.072412 0.347757 0
-0.083528 0.300097 0
-0.094389 0.260377 0
-0.104591 0.224602 0
-0.113678 0.189090 0
-0.121162 0.151497 0
-0.126514 0.110803 0
-0.129117 0.067102 0
-0.128225 0.021599 0
-0.123133 -0.023111 0
-0.114235 -0.063479 0
-0.102439 -0.097197 0
-0.088584 -0.123484 0
-0.073409 -0.142042 0
-0.057593 -0.153169 0
-0.041751 -0.157659 0
-0.026467 -0.156747 0
-0.012230 -0.151968 0
0.000541 -0.144900 0
0.011594 -0.137373 0
0.020652 -0.131165 0
0.027570 -0.127984 0
0.032312 -0.129740 0
0.034870 -0.138384 0
0.035363 -0.156225 0
0.033967 -0.186206 0
0.030892 -0.232201 0
0.026387 -0.299246 0
0.020714 -0.393504 0
0.014103 -0.521830 0
0.006414 -0.689374 0
-0.000693 -0.811808 0
-0.000217 0.000047 0
0.000000 0.420176 0
0.000000 0.000063 0
0.008802 0.518560 0
0.011134 0.586129 0
0.011185 0.602162 0
0.008292 0.584901 0
0.002104 0.540156 0
-0.006873 0.479678 0
-0.017459 0.416108 0
-0.028425 0.358629 0
-0.038741 0.310442 0
-0.047788 0.269823 0
-0.055316 0.232844 0
-0.061235 0.195853 0
-0.065462 0.156472 0
-0.067810 0.113598 0
-0.067973 0.067175 0
-0.065540 0.018273 0
-0.060048 -0.029955 0
-0.052166 -0.073208 0
-0.042327 -0.109018 0
-0.031182 -0.136672 0
-0.019319 -0.155972 0
-0.007243 -0.167291 0
0.004627 -0.171463 0
0.015916 -0.169764 0
0.026271 -0.163758 0
0.035364 -0.155191 0
0.043018 -0.145922 0
0.048934 -0.137774 0
0.053043 -0.132589 0
0.055246 -0.132276 0
0.055526 -0.138888 0
0.053952 -0.154815 0
0.050654 -0.183054 0
0.045804 -0.227518 0
0.039597 -0.293248 0
0.032198 -0.386352 0
0.023667 -0.513625 0
0.013948 -0.680573 0
0.003768 -0.806428 0
-0.000166 0.000049 0
0.000000 0.419244 0
0.000000 0.000071 0
0.018978 0.507700 0
0.031475 0.580076 0
0.040392 0.599574 0
0.044849 0.586479 0
0.043962 0.545945 0
0.038158 0.488717 0
0.028938 0.426713 0
0.018587 0.369040 0
0.009111 0.319461 0
0.001690 0.276952 0
-0.003374 0.238049 0
-0.006227 0.199236 0
-0.007093 0.158073 0
-0.006095 0.113314 0
-0.003284 0.064832 0
0.001162 0.013673 0
0.006977 -0.036485 0
0.013616 -0.081200 0
0.021030 -0.118181 0
0.028887 -0.146492 0
0.036842 -0.165981 0
0.044597 -0.177115 0
0.051905 -0.180818 0
0.058588 -0.178391 0
0.064443 -0.171416 0
0.069310 -0.161646 0
0.072996 -0.150943 0
0.075339 -0.141191 0
0.076219 -0.134296 0
0.075558 -0.132223 0
0.073330 -0.137090 0
0.069566 -0.151353 0
0.064351 -0.178058 0
0.057807 -0.221144 0
0.050058 -0.285640 0
0.041177 -0.377575 0
0.031106 -0.503580 0
0.019601 -0.669474 0
0.007110 -0.797860 0
-0.000130 0.000050 0
0.000000 0.416411 0
0.000000 0.000078 0
0.028177 0.487085 0
0.050075 0.564715 0
0.067558 0.588787 0
0.079748 0.581331 0
0.085208 0.546847 0
0.084108 0.494702 0
0.077988 0.435678 0
0.069513 0.378456 0
0.061354 0.327340 0
0.055349 0.282308 0
0.052204 0.240761 0
0.051825 0.199573 0
0.053828 0.156340 0
0.057760 0.109788 0
0.063101 0.059919 0
0.069079 0.008013 0
0.074910 -0.042409 0
0.080240 -0.087261 0
0.085077 -0.124289 0
0.089386 -0.152484 0
0.093127 -0.171682 0
0.096249 -0.182354 0
0.098707 -0.185454 0
0.100473 -0.182301 0
0.101506 -0.174480 0
0.101756 -0.163745 0
0.101152 -0.151952 0
0.099608 -0.140996 0
0.097041 -0.132808 0
0.093381 -0.129387 0
0.088586 -0.132896 0
0.082651 -0.145836 0
0.075609 -0.171296 0
0.067517 -0.213226 0
0.058418 -0.276618 0
0.048278 -0.367399 0
0.036918 -0.492049 0
0.023991 -0.656577 0
0.009672 -0.786827 0
-0.000106 0.000051 0
0.000000 0.412136 0
0.000000 0.000084 0
0.036346 0.457625 0
0.066672 0.540695 0
0.092099 0.569901 0
0.112044 0.568829 0
0.124667 0.541585 0
0.129695 0.495938 0
0.128463 0.441308 0
0.123550 0.385674 0
0.117866 0.333624 0
0.113701 0.286103 0
0.112248 0.241573 0
0.113707 0.197611 0
0.117680 0.152138 0
0.123458 0.104041 0
0.130132 0.053513 0
0.136663 0.001865 0
0.141919 -0.047646 0
0.145541 -0.091367 0
0.147575 -0.127327 0
0.148177 -0.154542 0
0.147535 -0.172844 0
0.145839 -0.182695 0
0.143263 -0.185042 0
0.139962 -0.181190 0
0.136055 -0.172698 0
0.131623 -0.161293 0
0.126697 -0.148795 0
0.121266 -0.137080 0
0.115289 -0.128069 0
0.108705 -0.123768 0
0.101457 -0.126360 0
0.093500 -0.138375 0
0.084811 -0.162923 0
0.075374 -0.203954 0
0.065142 -0.266402 0
0.053971 -0.356075 0
0.041563 -0.479292 0
0.027466 -0.642228 0
0.011685 -0.773869 0
-0.000090 0.000051 0
0.000000 0.406740 0
0.000000 0.000087 0
0.043275 0.420413 0
0.080822 0.508962 0
0.113220 0.543415 0
0.140457 0.548762 0
0.160553 0.529196 0
0.172723 0.490906 0
0.177871 0.441823 0
0.178207 0.389053 0
0.176483 0.337190 0
0.175120 0.287926 0
0.175640 0.240754 0
0.178563 0.194141 0
0.183627 0.146589 0
0.190053 0.097336 0
0.196750 0.046714 0
0.202606 -0.003774 0
0.206235 -0.051287 0
0.207380 -0.092918 0
0.206126 -0.126925 0
0.202754 -0.152444 0
0.197627 -0.169344 0
0.191124 -0.178082 0
0.183606 -0.179576 0
0.175390 -0.175093 0
0.166741 -0.166140 0
0.157857 -0.154387 0
0.148861 -0.141595 0
0.139809 -0.129588 0
0.130692 -0.120247 0
0.121458 -0.115555 0
0.112030 -0.117690 0
0.102322 -0.129191 0
0.092249 -0.153170 0
0.081717 -0.193557 0
0.070583 -0.255214 0
0.058594 -0.343820 0
0.045343 -0.465544 0
0.030292 -0.626699 0
0.013308 -0.759361 0
-0.000079 0.000051 0
0.000000 0.400451 0
0.000000 0.000087 0
0.048566 0.376803 0
0.091921 0.470751 0
0.130060 0.510266 0
0.163648 0.521496 0
0.190874 0.509319 0
0.210513 0.478619 0
0.222895 0.435825 0
0.229673 0.387062 0
0.233176 0.336711 0
0.235653 0.286946 0
0.238703 0.238129 0
0.243055 0.189624 0
0.248622 0.140648 0
0.254713 0.090918 0
0.260259 0.040961 0
0.264107 -0.007619 0
0.265158 -0.052421 0
0.263142 -0.091259 0
0.258202 -0.122701 0
0.250718 -0.146043 0
0.241178 -0.161214 0
0.230101 -0.168674 0
0.217985 -0.169307 0
0.205283 -0.164325 0
0.192372 -0.155165 0
0.179544 -0.143413 0
0.166994 -0.130747 0
0.154822 -0.118910 0
0.143044 -0.109719 0
0.131604 -0.105106 0
0.120401 -0.107224 0
0.109306 -0.118594 0
0.098171 -0.142319 0
0.086822 -0.182288 0
0.075021 -0.243278 0
0.062411 -0.330834 0
0.048491 -0.450991 0
0.032651 -0.610193 0
0.014657 -0.743577 0
-0.000072 0.000050 0
0.000000 0.393431 0
0.000000 0.000080 0
0.051578 0.328492 0
0.099184 0.427467 0
0.141789 0.471688 0
0.180502 0.487949 0
0.213919 0.482331 0
0.240571 0.458884 0
0.260206 0.422663 0
0.273827 0.378772 0
0.283187 0.331210 0
0.290152 0.282399 0
0.296182 0.233352 0
0.302054 0.184222 0
0.307828 0.134931 0
0.312978 0.085700 0
0.316617 0.037320 0
0.317719 -0.008673 0
0.315594 -0.050323 0
0.310059 -0.085962 0
0.301333 -0.114500 0
0.289877 -0.135420 0
0.276267 -0.148727 0
0.261115 -0.154890 0
0.245021 -0.154759 0
0.228528 -0.149480 0
0.212093 -0.140401 0
0.196069 -0.129009 0
0.180695 -0.116873 0
0.166094 -0.105638 0
0.152286 -0.097029 0
0.139205 -0.092913 0
0.126721 -0.095393 0
0.114659 -0.106960 0
0.102811 -0.130686 0
0.090929 -0.170407 0
0.078685 -0.230803 0
0.065631 -0.317290 0
0.051185 -0.435784 0
0.034683 -0.592865 0
0.015815 -0.726710 0
-0.000068 0.000049 0
0.000000 0.385793 0
0.000000 0.000064 0
0.051482 0.277619 0
0.101699 0.380539 0
0.147663 0.428948 0
0.190286 0.449367 0
0.228616 0.449250 0
0.261180 0.432332 0
0.287287 0.402568 0
0.307311 0.364081 0
0.322380 0.320386 0
0.333873 0.273951 0
0.342971 0.226227 0
0.350377 0.177978 0
0.356239 0.129724 0
0.360224 0.082129 0
0.361708 0.036220 0
0.359980 -0.006596 0
0.354639 -0.044761 0
0.345696 -0.076997 0
0.333489 -0.102519 0
0.318553 -0.120977 0
0.301524 -0.132453 0
0.283079 -0.137428 0
0.263879 -0.136720 0
0.244522 -0.131397 0
0.225508 -0.122706 0
0.207214 -0.112014 0
0.189893 -0.100771 0
0.173669 -0.090501 0
0.158552 -0.082830 0
0.144455 -0.079542 0
0.131217 -0.082678 0
0.118622 -0.094684 0
0.106409 -0.118589 0
0.094262 -0.158162 0
0.081777 -0.217980 0
0.068427 -0.303334 0
0.053568 -0.420043 0
0.036497 -0.574823 0
0.016846 -0.708894 0
-0.000066 0.000048 0
0.000000 0.377614 0
0.000000 0.000039 0
0.047716 0.226793 0
0.098823 0.331286 0
0.147200 0.383101 0
0.192711 0.406996 0
0.234633 0.411438 0
0.271667 0.400213 0
0.302902 0.376532 0
0.328221 0.343678 0
0.348181 0.304647 0
0.363664 0.261809 0
0.375516 0.216849 0
0.384301 0.170954 0
0.390205 0.125083 0
0.393080 0.080230 0
0.392581 0.037565 0
0.388363 -0.001604 0
0.380241 -0.036039 0
0.368462 -0.064812 0
0.353477 -0.087358 0
0.335881 -0.103455 0
0.316362 -0.113253 0
0.295640 -0.117245 0
0.274406 -0.116202 0
0.253276 -0.111108 0
0.232750 -0.103093 0
0.213204 -0.093394 0
0.194873 -0.083328 0
0.177864 -0.074296 0
0.162167 -0.067814 0
0.147671 -0.065577 0
0.134189 -0.069560 0
0.121470 -0.082152 0
0.109209 -0.106325 0
0.097034 -0.145775 0
0.084477 -0.204969 0
0.070949 -0.289081 0
0.055759 -0.403854 0
0.038181 -0.556144 0
0.017804 -0.690213 0
-0.000067 0.000046 0
0.000000 0.368943 0
0.000000 0.000007 0
0.040729 0.178796 0
0.090864 0.281054 0
0.140582 0.335060 0
0.188031 0.361934 0
0.232316 0.370294 0
0.272320 0.364062 0
0.307097 0.346014 0
0.336229 0.318802 0
0.359836 0.284943 0
0.378373 0.246617 0
0.392365 0.205591 0
0.402219 0.163289 0
0.408128 0.120945 0
0.410093 0.079754 0
0.408026 0.040936 0
0.401886 0.005743 0
0.391747 -0.024859 0
0.378010 -0.050233 0
0.361206 -0.069938 0
0.341995 -0.083862 0
0.321104 -0.092212 0
0.299269 -0.095473 0
0.277175 -0.094356 0
0.255416 -0.089741 0