# vtk DataFile Version 2.0
generated by CFD-lab course output (written by Tobias Neckel) 
ASCII

DATASET STRUCTURED_GRID
DIMENSIONS  42 42 1 
POINTS 1764 float

0.150000 0.150000 0
0.167857 0.150000 0
0.185714 0.150000 0
0.203571 0.150000 0
0.221429 0.150000 0
0.239286 0.150000 0
0.257143 0.150000 0
0.275000 0.150000 0
0.292857 0.150000 0
0.310714 0.150000 0
0.328571 0.150000 0
0.346429 0.150000 0
0.364286 0.150000 0
0.382143 0.150000 0
0.400000 0.150000 0
0.417857 0.150000 0
0.435714 0.150000 0
0.453571 0.150000 0
0.471429 0.150000 0
0.489286 0.150000 0
0.507143 0.150000 0
0.525000 0.150000 0
0.542857 0.150000 0
0.560714 0.150000 0
0.578571 0.150000 0
0.596429 0.150000 0
0.614286 0.150000 0
0.632143 0.150000 0
0.650000 0.150000 0
0.667857 0.150000 0
0.685714 0.150000 0
0.703571 0.150000 0
0.721429 0.150000 0
0.739286 0.150000 0
0.757143 0.150000 0
0.775000 0.150000 0
0.792857 0.150000 0
0.810714 0.150000 0
0.828571 0.150000 0
0.846429 0.150000 0
0.864286 0.150000 0
0.882143 0.150000 0
0.150000 0.167857 0
0.167857 0.167857 0
0.185714 0.167857 0
0.203571 0.167857 0
0.221429 0.167857 0
0.239286 0.167857 0
0.257143 0.167857 0
0.275000 0.167857 0
0.292857 0.167857 0
0.310714 0.167857 0
0.328571 0.167857 0
0.346429 0.167857 0
0.364286 0.167857 0
0.382143 0.167857 0
0.400000 0.167857 0
0.417857 0.167857 0
0.435714 0.167857 0
0.453571 0.167857 0
0.471429 0.167857 0
0.489286 0.167857 0
0.507143 0.167857 0
0.525000 0.167857 0
0.542857 0.167857 0
0.560714 0.167857 0
0.578571 0.167857 0
0.596429 0.167857 0
0.614286 0.167857 0
0.632143 0.167857 0
0.650000 0.167857 0
0.667857 0.167857 0
0.685714 0.167857 0
0.703571 0.167857 0
0.721429 0.167857 0
0.739286 0.167857 0
0.757143 0.167857 0
0.775000 0.167857 0
0.792857 0.167857 0
0.810714 0.167857 0
0.828571 0.167857 0
0.846429 0.167857 0
0.864286 0.167857 0
0.882143 0.167857 0
0.150000 0.185714 0
0.167857 0.185714 0
0.185714 0.185714 0
0.203571 0.185714 0
0.221429 0.185714 0
0.239286 0.185714 0
0.257143 0.185714 0
0.275000 0.185714 0
0.292857 0.185714 0
0.310714 0.185714 0
0.328571 0.185714 0
0.346429 0.185714 0
0.364286 0.185714 0
0.382143 0.185714 0
0.400000 0.185714 0
0.417857 0.185714 0
0.435714 0.185714 0
0.453571 0.185714 0
0.471429 0.185714 0
0.489286 0.185714 0
0.507143 0.185714 0
0.525000 0.185714 0
0.542857 0.185714 0
0.560714 0.185714 0
0.578571 0.185714 0
0.596429 0.185714 0
0.614286 0.185714 0
0.632143 0.185714 0
0.650000 0.185714 0
0.667857 0.185714 0
0.685714 0.185714 0
0.703571 0.185714 0
0.721429 0.185714 0
0.739286 0.185714 0
0.757143 0.185714 0
0.775000 0.185714 0
0.792857 0.185714 0
0.810714 0.185714 0
0.828571 0.185714 0
0.846429 0.185714 0
0.864286 0.185714 0
0.882143 0.185714 0
0.150000 0.203571 0
0.167857 0.203571 0
0.185714 0.203571 0
0.203571 0.203571 0
0.221429 0.203571 0
0.239286 0.203571 0
0.257143 0.203571 0
0.275000 0.203571 0
0.292857 0.203571 0
0.310714 0.203571 0
0.328571 0.203571 0
0.346429 0.203571 0
0.364286 0.203571 0
0.382143 0.203571 0
0.400000 0.203571 0
0.417857 0.203571 0
0.435714 0.203571 0
0.453571 0.203571 0
0.471429 0.203571 0
0.489286 0.203571 0
0.507143 0.203571 0
0.525000 0.203571 0
0.542857 0.203571 0
0.560714 0.203571 0
0.578571 0.203571 0
0.596429 0.203571 0
0.614286 0.203571 0
0.632143 0.203571 0
0.650000 0.203571 0
0.667857 0.203571 0
0.685714 0.203571 0
0.703571 0.203571 0
0.721429 0.203571 0
0.739286 0.203571 0
0.757143 0.203571 0
0.775000 0.203571 0
0.792857 0.203571 0
0.810714 0.203571 0
0.828571 0.203571 0
0.846429 0.203571 0
0.864286 0.203571 0
0.882143 0.203571 0
0.150000 0.221429 0
0.167857 0.221429 0
0.185714 0.221429 0
0.203571 0.221429 0
0.221429 0.221429 0
0.239286 0.221429 0
0.257143 0.221429 0
0.275000 0.221429 0
0.292857 0.221429 0
0.310714 0.221429 0
0.328571 0.221429 0
0.346429 0.221429 0
0.364286 0.221429 0
0.382143 0.221429 0
0.400000 0.221429 0
0.417857 0.221429 0
0.435714 0.221429 0
0.453571 0.221429 0
0.471429 0.221429 0
0.489286 0.221429 0
0.507143 0.221429 0
0.525000 0.221429 0
0.542857 0.221429 0
0.560714 0.221429 0
0.578571 0.221429 0
0.596429 0.221429 0
0.614286 0.221429 0
0.632143 0.221429 0
0.650000 0.221429 0
0.667857 0.221429 0
0.685714 0.221429 0
0.703571 0.221429 0
0.721429 0.221429 0
0.739286 0.221429 0
0.757143 0.221429 0
0.775000 0.221429 0
0.792857 0.221429 0
0.810714 0.221429 0
0.828571 0.221429 0
0.846429 0.221429 0
0.864286 0.221429 0
0.882143 0.221429 0
0.150000 0.239286 0
0.167857 0.239286 0
0.185714 0.239286 0
0.203571 0.239286 0
0.221429 0.239286 0
0.239286 0.239286 0
0.257143 0.239286 0
0.275000 0.239286 0
0.292857 0.239286 0
0.310714 0.239286 0
0.328571 0.239286 0
0.346429 0.239286 0
0.364286 0.239286 0
0.382143 0.239286 0
0.400000 0.239286 0
0.417857 0.239286 0
0.435714 0.239286 0
0.453571 0.239286 0
0.471429 0.239286 0
0.489286 0.239286 0
0.507143 0.239286 0
0.525000 0.239286 0
0.542857 0.239286 0
0.560714 0.239286 0
0.578571 0.239286 0
0.596429 0.239286 0
0.614286 0.239286 0
0.632143 0.239286 0
0.650000 0.239286 0
0.667857 0.239286 0
0.685714 0.239286 0
0.703571 0.239286 0
0.721429 0.239286 0
0.739286 0.239286 0
0.757143 0.239286 0
0.775000 0.239286 0
0.792857 0.239286 0
0.810714 0.239286 0
0.828571 0.239286 0
0.846429 0.239286 0
0.864286 0.239286 0
0.882143 0.239286 0
0.150000 0.257143 0
0.167857 0.257143 0
0.185714 0.257143 0
0.203571 0.257143 0
0.221429 0.257143 0
0.239286 0.257143 0
0.257143 0.257143 0
0.275000 0.257143 0
0.292857 0.257143 0
0.310714 0.257143 0
0.328571 0.257143 0
0.346429 0.257143 0
0.364286 0.257143 0
0.382143 0.257143 0
0.400000 0.257143 0
0.417857 0.257143 0
0.435714 0.257143 0
0.453571 0.257143 0
0.471429 0.257143 0
0.489286 0.257143 0
0.507143 0.257143 0
0.525000 0.257143 0
0.542857 0.257143 0
0.560714 0.257143 0
0.578571 0.257143 0
0.596429 0.257143 0
0.614286 0.257143 0
0.632143 0.257143 0
0.650000 0.257143 0
0.667857 0.257143 0
0.685714 0.257143 0
0.703571 0.257143 0
0.721429 0.257143 0
0.739286 0.257143 0
0.757143 0.257143 0
0.775000 0.257143 0
0.792857 0.257143 0
0.810714 0.257143 0
0.828571 0.257143 0
0.846429 0.257143 0
0.864286 0.257143 0
0.882143 0.257143 0
0.150000 0.275000 0
0.167857 0.275000 0
0.185714 0.275000 0
0.203571 0.275000 0
0.221429 0.275000 0
0.239286 0.275000 0
0.257143 0.275000 0
0.275000 0.275000 0
0.292857 0.275000 0
0.310714 0.275000 0
0.328571 0.275000 0
0.346429 0.275000 0
0.364286 0.275000 0
0.382143 0.275000 0
0.400000 0.275000 0
0.417857 0.275000 0
0.435714 0.275000 0
0.453571 0.275000 0
0.471429 0.275000 0
0.489286 0.275000 0
0.507143 0.275000 0
0.525000 0.275000 0
0.542857 0.275000 0
0.560714 0.275000 0
0.578571 0.275000 0
0.596429 0.275000 0
0.614286 0.275000 0
0.632143 0.275000 0
0.650000 0.275000 0
0.667857 0.275000 0
0.685714 0.275000 0
0.703571 0.275000 0
0.721429 0.275000 0
0.739286 0.275000 0
0.757143 0.275000 0
0.775000 0.275000 0
0.792857 0.275000 0
0.810714 0.275000 0
0.828571 0.275000 0
0.846429 0.275000 0
0.864286 0.275000 0
0.882143 0.275000 0
0.150000 0.292857 0
0.167857 0.292857 0
0.185714 0.292857 0
0.203571 0.292857 0
0.221429 0.292857 0
0.239286 0.292857 0
0.257143 0.292857 0
0.275000 0.292857 0
0.292857 0.292857 0
0.310714 0.292857 0
0.328571 0.292857 0
0.346429 0.292857 0
0.364286 0.292857 0
0.382143 0.292857 0
0.400000 0.292857 0
0.417857 0.292857 0
0.435714 0.292857 0
0.453571 0.292857 0
0.471429 0.292857 0
0.489286 0.292857 0
0.507143 0.292857 0
0.525000 0.292857 0
0.542857 0.292857 0
0.560714 0.292857 0
0.578571 0.292857 0
0.596429 0.292857 0
0.614286 0.292857 0
0.632143 0.292857 0
0.650000 0.292857 0
0.667857 0.292857 0
0.685714 0.292857 0
0.703571 0.292857 0
0.721429 0.292857 0
0.739286 0.292857 0
0.757143 0.292857 0
0.775000 0.292857 0
0.792857 0.292857 0
0.810714 0.292857 0
0.828571 0.292857 0
0.846429 0.292857 0
0.864286 0.292857 0
0.882143 0.292857 0
0.150000 0.310714 0
0.167857 0.310714 0
0.185714 0.310714 0
0.203571 0.310714 0
0.221429 0.310714 0
0.239286 0.310714 0
0.257143 0.310714 0
0.275000 0.310714 0
0.292857 0.310714 0
0.310714 0.310714 0
0.328571 0.310714 0
0.346429 0.310714 0
0.364286 0.310714 0
0.382143 0.310714 0
0.400000 0.310714 0
0.417857 0.310714 0
0.435714 0.310714 0
0.453571 0.310714 0
0.471429 0.310714 0
0.489286 0.310714 0
0.507143 0.310714 0
0.525000 0.310714 0
0.542857 0.310714 0
0.560714 0.310714 0
0.578571 0.310714 0
0.596429 0.310714 0
0.614286 0.310714 0
0.632143 0.310714 0
0.650000 0.310714 0
0.667857 0.310714 0
0.685714 0.310714 0
0.703571 0.310714 0
0.721429 0.310714 0
0.739286 0.310714 0
0.757143 0.310714 0
0.775000 0.310714 0
0.792857 0.310714 0
0.810714 0.310714 0
0.828571 0.310714 0
0.846429 0.310714 0
0.864286 0.310714 0
0.882143 0.310714 0
0.150000 0.328571 0
0.167857 0.328571 0
0.185714 0.328571 0
0.203571 0.328571 0
0.221429 0.328571 0
0.239286 0.328571 0
0.257143 0.328571 0
0.275000 0.328571 0
0.292857 0.328571 0
0.310714 0.328571 0
0.328571 0.328571 0
0.346429 0.328571 0
0.364286 0.328571 0
0.382143 0.328571 0
0.400000 0.328571 0
0.417857 0.328571 0
0.435714 0.328571 0
0.453571 0.328571 0
0.471429 0.328571 0
0.489286 0.328571 0
0.507143 0.328571 0
0.525000 0.328571 0
0.542857 0.328571 0
0.560714 0.328571 0
0.578571 0.328571 0
0.596429 0.328571 0
0.614286 0.328571 0
0.632143 0.328571 0
0.650000 0.328571 0
0.667857 0.328571 0
0.685714 0.328571 0
0.703571 0.328571 0
0.721429 0.328571 0
0.739286 0.328571 0
0.757143 0.328571 0
0.775000 0.328571 0
0.792857 0.328571 0
0.810714 0.328571 0
0.828571 0.328571 0
0.846429 0.328571 0
0.864286 0.328571 0
0.882143 0.328571 0
0.150000 0.346429 0
0.167857 0.346429 0
0.185714 0.346429 0
0.203571 0.346429 0
0.221429 0.346429 0
0.239286 0.346429 0
0.257143 0.346429 0
0.275000 0.346429 0
0.292857 0.346429 0
0.310714 0.346429 0
0.328571 0.346429 0
0.346429 0.346429 0
0.364286 0.346429 0
0.382143 0.346429 0
0.400000 0.346429 0
0.417857 0.346429 0
0.435714 0.346429 0
0.453571 0.346429 0
0.471429 0.346429 0
0.489286 0.346429 0
0.507143 0.346429 0
0.525000 0.346429 0
0.542857 0.346429 0
0.560714 0.346429 0
0.578571 0.346429 0
0.596429 0.346429 0
0.614286 0.346429 0
0.632143 0.346429 0
0.650000 0.346429 0
[...]
POINT_DATA 1764 

VECTORS velocity float
0.000000 0.000000 0
-0.000001 0.000000 0
-0.000002 0.000000 0
-0.000003 0.000000 0
-0.000002 0.000000 0
-0.000002 0.000000 0
-0.000002 0.000000 0
-0.000001 0.000000 0
-0.000001 0.000000 0
-0.000002 0.000000 0
-0.000001 0.000000 0
0.000001 0.000000 0
0.000003 0.000000 0
0.000004 0.000000 0
0.000005 0.000000 0
0.000006 0.000000 0
0.000006 0.000000 0
0.000007 0.000000 0
0.000007 0.000000 0
0.000007 0.000000 0
0.000008 0.000000 0
0.000008 0.000000 0
0.000008 0.000000 0
0.000008 0.000000 0
0.000008 0.000000 0
0.000008 0.000000 0
0.000008 0.000000 0
0.000008 0.000000 0
0.000008 0.000000 0
0.000008 0.000000 0
0.000008 0.000000 0
0.000008 0.000000 0
0.000008 0.000000 0
0.000008 0.000000 0
0.000007 0.000000 0
0.000006 0.000000 0
0.000004 0.000000 0
0.000003 0.000000 0
-0.000000 0.000000 0
-0.000001 0.000000 0
-0.000000 0.000000 0
0.000000 0.000000 0
0.000000 0.000001 0
0.019662 -0.018462 0
0.039659 -0.014462 0
0.049552 -0.004096 0
0.049706 0.003937 0
0.043454 0.007427 0
0.035420 0.006090 0
0.031903 0.003565 0
0.026581 -0.001135 0
0.012298 -0.007857 0
-0.007074 0.000534 0
-0.031268 0.018548 0
-0.060378 0.027910 0
-0.091234 0.030627 0
-0.121543 0.030480 0
-0.149958 0.028996 0
-0.175656 0.026600 0
-0.198223 0.023737 0
-0.217531 0.020706 0
-0.233640 0.017694 0
-0.246706 0.014801 0
-0.256921 0.012060 0
-0.264462 0.009459 0
-0.269459 0.006937 0
-0.271961 0.004404 0
-0.271923 0.001752 0
-0.269230 -0.001144 0
-0.263724 -0.004388 0
-0.255151 -0.008000 0
-0.243180 -0.011986 0
-0.227425 -0.016401 0
-0.207463 -0.021258 0
-0.182898 -0.026478 0
-0.153467 -0.031816 0
-0.119248 -0.036728 0
-0.081037 -0.040178 0
-0.041036 -0.040122 0
-0.004094 -0.027911 0
0.020302 -0.001877 0
0.014461 0.016607 0
-0.000006 -0.000001 0
0.000000 -0.010011 0
0.000000 0.000003 0
0.021173 -0.039659 0
0.038652 -0.029890 0
0.046814 -0.010047 0
0.046229 0.006098 0
0.039818 0.014286 0
0.028819 0.011551 0
0.011171 0.008838 0
-0.013128 0.019606 0
-0.048765 0.033655 0
-0.091989 0.043565 0
-0.127275 0.053304 0
-0.157719 0.059966 0
-0.185464 0.061165 0
-0.210652 0.058725 0
-0.232701 0.054114 0
-0.251456 0.048264 0
-0.266945 0.041875 0
-0.279330 0.035417 0
-0.288847 0.029175 0
-0.295748 0.023281 0
-0.300266 0.017756 0
-0.302586 0.012538 0
-0.302825 0.007498 0
-0.301039 0.002464 0
-0.297207 -0.002731 0
-0.291325 -0.008200 0
-0.283277 -0.014079 0
-0.272888 -0.020544 0
-0.259861 -0.027727 0
-0.243850 -0.035717 0
-0.224496 -0.044526 0
-0.201462 -0.053996 0
-0.174518 -0.063651 0
-0.143691 -0.072430 0
-0.109567 -0.078211 0
-0.073815 -0.076944 0
-0.039828 -0.061338 0
-0.008534 -0.018555 0
0.008191 0.020302 0
-0.000001 -0.000001 0
0.000000 -0.014462 0
0.000000 0.000003 0
0.016644 -0.057114 0
0.026682 -0.040103 0
0.028942 -0.011673 0
0.020537 0.010933 0
0.006544 0.024837 0
-0.014459 0.034737 0
-0.047879 0.045512 0
-0.086261 0.058801 0
-0.121275 0.071004 0
-0.154517 0.079044 0
-0.184151 0.084278 0
-0.208363 0.086099 0
-0.228330 0.083560 0
-0.244773 0.077717 0
-0.258019 0.069801 0
-0.268410 0.060843 0
-0.276293 0.051611 0
-0.282001 0.042608 0
-0.285837 0.034112 0
-0.288051 0.026220 0
-0.288833 0.018897 0
-0.288312 0.012017 0
-0.286553 0.005391 0
-0.283575 -0.001214 0
-0.279377 -0.007962 0
-0.273886 -0.015073 0
-0.266907 -0.022825 0
-0.258216 -0.031416 0
-0.247558 -0.041025 0
-0.234649 -0.051766 0
-0.219200 -0.063646 0
-0.200934 -0.076456 0
-0.179613 -0.089587 0
-0.155104 -0.101679 0
-0.127494 -0.110055 0
-0.097252 -0.109861 0
-0.065299 -0.093191 0
-0.032679 -0.049895 0
0.001991 0.008073 0
0.000010 -0.000002 0
0.000000 -0.018203 0
0.000000 0.000003 0
0.007116 -0.066341 0
0.004812 -0.042188 0
-0.004891 -0.003902 0
-0.020971 0.028496 0
-0.042834 0.049282 0
-0.070733 0.065974 0
-0.102617 0.080640 0
-0.134818 0.093002 0
-0.163661 0.101911 0
-0.188994 0.106442 0
-0.210317 0.107150 0
-0.226754 0.104144 0
-0.239022 0.097574 0
-0.247939 0.088414 0
-0.254196 0.077751 0
-0.258369 0.066538 0
-0.260927 0.055466 0
-0.262235 0.044962 0
-0.262568 0.035224 0
-0.262116 0.026277 0
-0.261001 0.018017 0
-0.259284 0.010258 0
-0.256973 0.002761 0
-0.254028 -0.004712 0
-0.250466 -0.012419 0
-0.246064 -0.020669 0
-0.240659 -0.029749 0
-0.234041 -0.039893 0
-0.225999 -0.051294 0
-0.216317 -0.064075 0
-0.204788 -0.078241 0
-0.191204 -0.093583 0
-0.175339 -0.109480 0
-0.156910 -0.124548 0
-0.135546 -0.136064 0
-0.110746 -0.139139 0
-0.081884 -0.125911 0
-0.048497 -0.085845 0
-0.012260 -0.012378 0
0.000006 0.000001 0
0.000000 -0.016451 0
0.000000 0.000002 0
-0.006104 -0.061925 0
-0.021699 -0.028095 0
-0.042675 0.014109 0
-0.062112 0.048876 0
-0.085097 0.074599 0
-0.111086 0.094519 0
-0.137641 0.109597 0
-0.162639 0.119845 0
-0.184250 0.125180 0
-0.201994 0.125700 0
-0.215651 0.122038 0
-0.225121 0.114804 0
-0.231069 0.104746 0
-0.234297 0.092891 0
-0.235551 0.080230 0
-0.235438 0.067574 0
-0.234421 0.055477 0
-0.232834 0.044250 0
-0.230910 0.033993 0
-0.228796 0.024653 0
-0.226577 0.016065 0
-0.224284 0.007989 0
-0.221903 0.000135 0
-0.219389 -0.007720 0
-0.216624 -0.015926 0
-0.213422 -0.024881 0
-0.209596 -0.034847 0
-0.204946 -0.046076 0
-0.199282 -0.058749 0
-0.192437 -0.072977 0
-0.184277 -0.088758 0
-0.174675 -0.105906 0
-0.163458 -0.123881 0
-0.150305 -0.141471 0
-0.134606 -0.156219 0
-0.115326 -0.163524 0
-0.091043 -0.155440 0
-0.060647 -0.119518 0
-0.025999 -0.040424 0
-0.000014 0.000004 0
0.000000 -0.005936 0
0.000000 0.000001 0
-0.018440 -0.044642 0
-0.043215 -0.005618 0
-0.067241 0.036511 0
-0.089240 0.070918 0
-0.111742 0.098256 0
-0.134283 0.118518 0
-0.155428 0.132193 0
-0.173967 0.139611 0
-0.188974 0.141266 0
-0.200165 0.137842 0
-0.207582 0.130278 0
-0.211528 0.119562 0
-0.212679 0.106751 0
-0.211776 0.092896 0
-0.209502 0.078892 0
-0.206409 0.065408 0
-0.202916 0.052862 0
-0.199331 0.041450 0
-0.195865 0.031186 0
-0.192661 0.021945 0
-0.189793 0.013505 0
-0.187286 0.005584 0
-0.185115 -0.002135 0
-0.183234 -0.009991 0
-0.181403 -0.018386 0
-0.179466 -0.027698 0
-0.177200 -0.038224 0
-0.174381 -0.050207 0
-0.170804 -0.063803 0
-0.166316 -0.079080 0
-0.160828 -0.096003 0
-0.154293 -0.114402 0
-0.146626 -0.133850 0
-0.137576 -0.153401 0
-0.126515 -0.171043 0
-0.112204 -0.182702 0
-0.092721 -0.180590 0
-0.066030 -0.150889 0
-0.032190 -0.073024 0
-0.000035 0.000006 0
0.000000 0.009553 0
0.000000 -0.000000 0
-0.025949 -0.018711 0
-0.055100 0.020706 0
-0.079985 0.060135 0
-0.102954 0.093376 0
-0.124135 0.119641 0
-0.143316 0.138206 0
-0.159808 0.149281 0
-0.173039 0.153391 0
-0.182653 0.151379 0
-0.188658 0.144309 0
-0.191331 0.133402 0
-0.191163 0.119900 0
-0.188813 0.104993 0
-0.184943 0.089714 0
-0.180145 0.074863 0
-0.174908 0.060988 0
-0.169618 0.048399 0
-0.164579 0.037199 0
-0.160017 0.027323 0
-0.156090 0.018581 0
-0.152884 0.010690 0
-0.150420 0.003310 0
-0.148656 -0.003916 0
-0.147511 -0.011432 0
-0.146748 -0.019694 0
-0.146161 -0.029085 0
-0.145484 -0.039932 0
-0.144435 -0.052471 0
-0.142748 -0.066815 0
-0.140242 -0.082953 0
-0.136846 -0.100782 0
-0.132566 -0.120108 0
-0.127414 -0.140597 0
-0.121268 -0.161582 0
-0.113637 -0.181591 0
-0.103327 -0.197318 0
-0.088179 -0.201614 0
-0.065347 -0.180050 0
-0.033321 -0.106455 0
-0.000050 0.000008 0
0.000000 0.026257 0
0.000000 -0.000002 0
-0.029136 0.010458 0
-0.058365 0.048418 0
-0.083750 0.084365 0
-0.106249 0.115068 0
-0.125637 0.138618 0
-0.141808 0.154192 0
-0.154510 0.161916 0
-0.163596 0.162455 0
-0.169089 0.156885 0
-0.171238 0.146521 0
-0.170476 0.132782 0
-0.167359 0.117044 0
-0.162498 0.100530 0
-0.156470 0.084228 0
-0.149788 0.068857 0
-0.142896 0.054881 0
-0.136184 0.042534 0
-0.129986 0.031850 0
-0.124576 0.022697 0
-0.120151 0.014811 0
-0.116823 0.007835 0
-0.114610 0.001356 0
-0.113440 -0.005043 0
-0.113173 -0.011898 0
-0.113582 -0.019737 0
-0.114429 -0.028962 0
-0.115398 -0.039950 0
-0.116116 -0.052943 0
-0.116219 -0.067995 0
-0.115460 -0.084982 0
-0.113762 -0.103680 0
-0.111169 -0.123834 0
-0.107766 -0.145147 0
-0.103566 -0.167177 0
-0.098284 -0.188985 0
-0.090968 -0.208160 0
-0.079549 -0.218569 0
-0.060796 -0.205746 0
-0.032136 -0.138371 0
-0.000061 0.000009 0
0.000000 0.042877 0
0.000000 -0.000002 0
-0.028490 0.039655 0
-0.056442 0.075320 0
-0.081093 0.108019 0
-0.102199 0.135263 0
-0.119529 0.155200 0
-0.133041 0.167079 0
-0.142722 0.171070 0
-0.148683 0.167970 0
-0.151176 0.159021 0
-0.150599 0.145696 0
-0.147451 0.129522 0
-0.142282 0.111923 0
-0.135631 0.094105 0
-0.127990 0.077004 0
-0.119816 0.061289 0
-0.111544 0.047384 0
-0.103610 0.035489 0
-0.096431 0.025591 0
-0.090360 0.017488 0
-0.085650 0.010828 0
-0.082420 0.005149 0
-0.080667 -0.000072 0
-0.080293 -0.005354 0
-0.080992 -0.011290 0
-0.082601 -0.018438 0
-0.084889 -0.027269 0
-0.087505 -0.038245 0
-0.089964 -0.051651 0
-0.091762 -0.067470 0
-0.092563 -0.085410 0
-0.092285 -0.105073 0
-0.091008 -0.126104 0
-0.088869 -0.148200 0
-0.085982 -0.171064 0
-0.082262 -0.194189 0
-0.077083 -0.216053 0
-0.068717 -0.231786 0
-0.053926 -0.227462 0
-0.029367 -0.167250 0
-0.000067 0.000009 0
0.000000 0.058395 0
0.000000 -0.000003 0
-0.025277 0.066901 0
-0.051433 0.101021 0
-0.074265 0.130121 0
-0.093369 0.153504 0
-0.108511 0.169461 0
-0.119676 0.177384 0
-0.126971 0.177558 0
-0.130641 0.170909 0
-0.131047 0.158801 0
-0.128643 0.142797 0
-0.123927 0.124466 0
-0.117387 0.105223 0
-0.109475 0.086238 0
-0.100604 0.068413 0
-0.091190 0.052412 0
-0.081690 0.038675 0
-0.072636 0.027420 0
-0.064617 0.018600 0
-0.058116 0.011916 0
-0.053462 0.006871 0
-0.050719 0.002851 0
-0.049764 -0.000772 0
-0.050329 -0.004718 0
-0.052029 -0.009590 0
-0.054744 -0.015839 0
-0.058330 -0.024058 0
-0.062443 -0.034876 0
-0.066489 -0.048686 0
-0.069786 -0.065397 0
-0.071893 -0.084460 0
-0.072757 -0.105235 0
-0.072508 -0.127250 0
-0.071327 -0.150173 0
-0.069387 -0.173784 0
-0.066750 -0.197884 0
-0.063095 -0.221705 0
-0.057160 -0.241727 0
-0.045997 -0.245096 0
-0.025783 -0.192297 0
-0.000068 0.000010 0
0.000000 0.072245 0
0.000000 -0.000004 0
-0.021470 0.091088 0
-0.044709 0.124308 0
-0.064975 0.149955 0
-0.081698 0.169509 0
-0.094617 0.181508 0
-0.103716 0.185539 0
-0.109140 0.182034 0
-0.111180 0.172046 0
-0.110221 0.157024 0
-0.106702 0.138576 0
-0.101061 0.118266 0
-0.093697 0.097470 0
-0.084959 0.077321 0
-0.075177 0.058719 0
-0.064718 0.042374 0
-0.054059 0.028831 0
-0.043877 0.018416 0
-0.035145 0.011070 0
-0.028522 0.006333 0
-0.024425 0.003431 0
-0.022727 0.001452 0
-0.023038 -0.000462 0
-0.024777 -0.003090 0
-0.027524 -0.006874 0
-0.031200 -0.012137 0
-0.035791 -0.019570 0
-0.041042 -0.030087 0
-0.046305 -0.044308 0
-0.050705 -0.062066 0
-0.053722 -0.082439 0
-0.055372 -0.104459 0
-0.055856 -0.127535 0
-0.055392 -0.151321 0
-0.054185 -0.175641 0
-0.052373 -0.200481 0
-0.049866 -0.225643 0
-0.045862 -0.248884 0
-0.037889 -0.258839 0
-0.021917 -0.213248 0
-0.000065 0.000010 0
0.000000 0.084178 0
0.000000 -0.000004 0
-0.017308 0.111609 0
-0.037078 0.144526 0
-0.054384 0.167110 0
-0.068545 0.183146 0
-0.079287 0.191479 0
-0.086575 0.191907 0
-0.090550 0.185022 0
-0.091487 0.171990 0
-0.089738 0.154322 0
-0.085679 0.133636 0
-0.079658 0.111461 0
-0.071967 0.089121 0
-0.062843 0.067718 0
-0.052514 0.048172 0
-0.041267 0.031294 0
-0.029535 0.017834 0
-0.018174 0.008506 0
-0.009196 0.003245 0
-0.003534 0.001196 0
-0.000813 0.001075 0
-0.000438 0.001465 0
-0.001843 0.001279 0
-0.004575 -0.000232 0
-0.008390 -0.003167 0
-0.013023 -0.007573 0
-0.018304 -0.014216 0
-0.024171 -0.024362 0
-0.030030 -0.039023 0
-0.034883 -0.057979 0
-0.038234 -0.079792 0
-0.040223 -0.103102 0
-0.041108 -0.127230 0
-0.041130 -0.151844 0
-0.040498 -0.176803 0
-0.039380 -0.202202 0
-0.037816 -0.228216 0
-0.035381 -0.253704 0
-0.030148 -0.269041 0
-0.018115 -0.230186 0
-0.000060 0.000009 0
0.000000 0.094162 0
0.000000 -0.000004 0
-0.012962 0.128166 0
-0.029041 0.161384 0
-0.043238 0.181422 0
-0.054805 0.194411 0
-0.063472 0.199537 0
-0.069186 0.196802 0
-0.072059 0.186946 0
-0.072317 0.171233 0
-0.070248 0.151216 0
-0.066142 0.128497 0
-0.060244 0.104554 0
-0.052734 0.080655 0
-0.043732 0.057869 0
-0.033343 0.037143 0
-0.021707 0.019395 0
-0.009027 0.005737 0
0.001196 -0.001923 0
0.008008 -0.003570 0
0.011769 -0.002050 0
0.013226 0.000335 0
0.012875 0.002482 0
0.011108 0.003675 0
0.008136 0.003457 0
0.004056 0.001574 0
-0.000886 -0.002222 0
-0.006487 -0.008422 0
-0.012392 -0.018361 0
-0.018024 -0.033596 0
-0.022450 -0.053862 0
-0.025434 -0.077099 0
-0.027264 -0.101585 0
-0.028207 -0.126627 0
-0.028489 -0.151930 0
-0.028297 -0.177391 0
-0.027790 -0.203163 0
-0.027063 -0.229643 0
-0.025953 -0.256552 0
-0.023056 -0.276105 0
-0.014570 -0.243396 0
-0.000054 0.000009 0
0.000000 0.102293 0
0.000000 -0.000004 0
-0.008566 0.140650 0
-0.020902 0.174801 0
-0.031992 0.192874 0
-0.041025 0.203380 0
-0.047753 0.205860 0
-0.052107 0.200494 0
-0.054162 0.188153 0
-0.054086 0.170179 0
-0.052088 0.148147 0
-0.048369 0.123632 0
-0.043079 0.098053 0
-0.036290 0.072610 0
-0.028008 0.048327 0
-0.018170 0.026147 0
-0.006665 0.006978 0
0.003606 -0.005068 0
0.009891 -0.008528 0
0.013568 -0.007328 0
0.015820 -0.004022 0
0.016807 -0.000031 0
0.016472 0.003583 0
0.014892 0.006017 0
0.012241 0.006820 0
0.008717 0.005855 0
0.004432 0.002971 0
-0.000531 -0.002709 0
-0.005652 -0.012824 0
-0.010063 -0.028965 0
-0.013112 -0.050569 0
-0.015057 -0.074979 0
-0.016280 -0.100329 0
-0.016981 -0.126005 0
-0.017324 -0.151754 0
-0.017453 -0.177502 0
-0.017497 -0.203435 0
-0.017553 -0.230053 0
-0.017610 -0.257711 0
-0.016708 -0.280424 0
-0.011364 -0.253242 0
-0.000048 0.000009 0
0.000000 0.108731 0
0.000000 -0.000004 0
-0.004196 0.149067 0
-0.012848 0.184809 0
-0.020910 0.201545 0
-0.027513 0.210172 0
-0.032437 0.210619 0
-0.035612 0.203212 0
-0.037074 0.188925 0
-0.036933 0.169159 0
-0.035326 0.145500 0
-0.032375 0.119487 0
-0.028148 0.092475 0
-0.022639 0.065584 0
-0.015755 0.039748 0
-0.007379 0.015801 0
0.001693 -0.002382 0
0.006749 -0.010820 0
0.009573 -0.011885 0
0.011408 -0.009498 0
0.012643 -0.005289 0
0.013277 -0.000317 0
0.013099 0.004397 0
0.011975 0.007906 0
0.009961 0.009632 0
0.007207 0.009383 0
0.003933 0.007026 0
0.000414 0.001662 0
-0.002957 -0.008828 0
-0.005131 -0.026136 0
-0.006080 -0.048868 0
-0.006564 -0.073931 0
-0.006895 -0.099662 0
-0.007152 -0.125583 0
-0.007418 -0.151458 0
-0.007781 -0.177217 0
-0.008329 -0.203064 0
-0.009138 -0.229530 0
-0.010261 -0.257396 0
-0.011085 -0.282351 0
-0.008508 -0.260104 0
-0.000043 0.000008 0
0.000000 0.113656 0
0.000000 -0.000004 0
-0.000091 0.153498 0
-0.004979 0.191515 0
-0.010108 0.207538 0
-0.014407 0.214908 0
-0.017653 0.213960 0
-0.019781 0.205131 0
-0.020806 0.189474 0
-0.020789 0.168431 0
-0.019810 0.143589 0
-0.017930 0.116455 0
-0.015171 0.088317 0
-0.011486 0.060217 0
-0.006737 0.033067 0
-0.000994 0.008699 0
0.002989 -0.007150 0
0.004407 -0.012948 0
0.005060 -0.013187 0
0.005430 -0.010398 0
0.005742 -0.005892 0
0.005977 -0.000487 0
0.005924 0.004885 0
0.005342 0.009156 0
0.004171 0.011587 0
0.002482 0.011882 0
0.000497 0.009764 0
-0.001324 0.004181 0
-0.002339 -0.007279 0
-0.001602 -0.025843 0
-0.000260 -0.049136 0
0.000741 -0.074164 0
0.001366 -0.099742 0
0.001624 -0.125482 0
0.001494 -0.151125 0
0.000939 -0.176591 0
-0.000079 -0.202079 0
-0.001634 -0.228122 0
-0.003758 -0.255764 0
-0.006098 -0.282177 0
-0.005970 -0.264327 0
-0.000038 0.000008 0
0.000000 0.117238 0
0.000000 -0.000004 0
0.003666 0.154047 0
0.002597 0.194827 0
0.000317 0.210973 0
-0.001766 0.217717 0
-0.003408 0.215993 0
-0.004560 0.206364 0
-0.005223 0.189933 0
-0.005426 0.168163 0
-0.005205 0.142640 0
-0.004589 0.114849 0
-0.003583 0.086031 0
-0.002162 0.057150 0
-0.000290 0.029257 0
0.001334 0.006075 0
0.000859 -0.007783 0
-0.000037 -0.012891 0
-0.001058 -0.012909 0
-0.001906 -0.010180 0
-0.002431 -0.005836 0
-0.002621 -0.000499 0
-0.002590 0.005033 0
-0.002579 0.009658 0
-0.002772 0.012492 0
-0.003178 0.013057 0
-0.003553 0.010832 0
-0.003329 0.004498 0
-0.001447 -0.008550 0
0.002102 -0.028215 0
0.005258 -0.051211 0
0.007528 -0.075556 0
0.009010 -0.100545 0
0.009739 -0.125711 0
0.009721 -0.150773 0
0.008956 -0.175645 0
0.007440 -0.200491 0
0.005137 -0.225850 0
0.002060 -0.252932 0
-0.001624 -0.280139 0
-0.003696 -0.266202 0
-0.000034 0.000008 0
0.000000 0.119625 0
0.000000 -0.000003 0
0.007199 0.150901 0
0.009803 0.194864 0
0.010301 0.211902 0
0.010378 0.218633 0
0.010313 0.216753 0
0.010140 0.206945 0
0.009855 0.190340 0
0.009445 0.168414 0
0.008903 0.142752 0
0.008219 0.114833 0
0.007375 0.085890 0
0.006324 0.056924 0
0.004859 0.029571 0
0.002034 0.007549 0
-0.001636 -0.005779 0
-0.004503 -0.011031 0
-0.006880 -0.011318 0
-0.008706 -0.009024 0
-0.009931 -0.005177 0
-0.010505 -0.000329 0
-0.010421 0.004843 0
-0.009841 0.009338 0
-0.009013 0.012186 0
-0.007978 0.012663 0
-0.006461 0.009916 0
-0.003772 0.002075 0
0.001408 -0.012710 0
0.006808 -0.032547 0
0.011160 -0.054562 0
0.014395 -0.077916 0
0.016531 -0.101953 0
0.017589 -0.126193 0
0.017584 -0.150342 0
0.016535 -0.174310 0
0.014458 -0.198260 0
0.011375 -0.222741 0
0.007319 -0.249004 0
0.002417 -0.276422 0
-0.001614 -0.265950 0
-0.000032 0.000007 0
0.000000 0.120933 0
0.000000 -0.000003 0
0.010480 0.144244 0
0.016627 0.191725 0
0.019850 0.210398 0
0.022015 0.217705 0
0.023514 0.216231 0
0.024363 0.206823 0
0.024543 0.190628 0
0.024042 0.169115 0
0.022866 0.143867 0
0.021017 0.116377 0
0.018467 0.087926 0
0.015104 0.059666 0
0.010597 0.033547 0
0.004530 0.012570 0
-0.002108 -0.001246 0
-0.007139 -0.007647 0
-0.010714 -0.008706 0
-0.013318 -0.007129 0
-0.015084 -0.004036 0
-0.015947 -0.000009 0
-0.015814 0.004369 0
-0.014742 0.008251 0
-0.012912 0.010629 0
-0.010341 0.010505 0
-0.006661 0.006626 0
-0.000718 -0.003371 0
0.006572 -0.019130 0
0.012879 -0.037967 0
0.017995 -0.058798 0
0.021827 -0.080928 0
0.024333 -0.103738 0
0.025506 -0.126764 0
0.025356 -0.149719 0
0.023908 -0.172519 0
0.021197 -0.195331 0
0.017266 -0.218711 0
0.012173 -0.243974 0
0.006077 -0.271206 0
0.000329 -0.263785 0
-0.000031 0.000007 0
0.000000 0.121239 0
0.000000 -0.000002 0
0.013436 0.134274 0
0.022995 0.185494 0
0.028911 0.206514 0
0.033119 0.214969 0
0.036176 0.214405 0
0.038115 0.205916 0
0.038895 0.190661 0
0.038494 0.170091 0
0.036926 0.145777 0
0.034210 0.119231 0
0.030332 0.091803 0
0.025190 0.064794 0
0.018559 0.040145 0
0.010537 0.020254 0
0.002020 0.005890 0
-0.005677 -0.002425 0
-0.010877 -0.005139 0
-0.014195 -0.004654 0
-0.016329 -0.002549 0
-0.017314 0.000401 0
-0.017077 0.003638 0
-0.015544 0.006436 0
-0.012707 0.007785 0
-0.008454 0.006412 0
-0.002025 0.000293 0
0.006175 -0.011158 0
0.013925 -0.026307 0
0.020625 -0.043971 0
0.026080 -0.063510 0
0.030136 -0.084254 0
0.032701 -0.105632 0
0.033738 -0.127216 0
0.033245 -0.148744 0
0.031248 -0.170151 0
0.027790 -0.191618 0
0.022935 -0.213717 0
0.016767 -0.237815 0
0.009455 -0.264578 0
0.002181 -0.259873 0
-0.000030 0.000007 0
0.000000 0.120603 0
0.000000 -0.000002 0
0.015956 0.121249 0
0.028752 0.176250 0
0.037346 0.200273 0
0.043589 0.210440 0
0.048224 0.211235 0
0.051343 0.204105 0
0.052894 0.190249 0
0.052845 0.171083 0
0.051212 0.148150 0
0.048039 0.122971 0
0.043356 0.096946 0
0.037144 0.071439 0
0.029377 0.048200 0
0.020471 0.029108 0
0.011331 0.014969 0
0.002397 0.005250 0
-0.004726 -0.000188 0
-0.009548 -0.001677 0
-0.012159 -0.000918 0
-0.013094 0.000739 0
-0.012619 0.002599 0
-0.010540 0.003880 0
-0.006530 0.003539 0
-0.000393 -0.000176 0
0.007596 -0.008003 0
0.015897 -0.019321 0
0.023538 -0.033580 0
0.030202 -0.050122 0
0.035593 -0.068309 0
0.039502 -0.087549 0
0.041804 -0.107340 0
0.042437 -0.127309 0
0.041385 -0.147230 0
0.038670 -0.167063 0
0.034338 -0.187017 0
0.028470 -0.207688 0
0.021173 -0.230495 0
0.012636 -0.256619 0
0.003943 -0.254330 0
-0.000029 0.000006 0
0.000000 0.119057 0
0.000000 -0.000001 0
0.017885 0.105522 0
0.033659 0.164103 0
0.044914 0.191677 0
0.053230 0.204092 0
0.059499 0.206652 0
0.063914 0.201245 0
0.066434 0.189159 0
0.067020 0.171773 0
0.065694 0.150582 0
0.062525 0.127087 0
0.057607 0.102699 0
0.051029 0.078773 0
0.042946 0.056818 0
0.033896 0.038301 0
0.024749 0.023964 0
0.016178 0.013632 0
0.008487 0.006806 0
0.002590 0.002780 0
-0.000946 0.000998 0