# vtk DataFile Version 2.0
generated by CFD-lab course output (written by Tobias Neckel) 
ASCII

DATASET STRUCTURED_GRID
DIMENSIONS  42 42 1 
POINTS 1764 float

0.150000 0.150000 0
0.167857 0.150000 0
0.185714 0.150000 0
0.203571 0.150000 0
0.221429 0.150000 0
0.239286 0.150000 0
0.257143 0.150000 0
0.275000 0.150000 0
0.292857 0.150000 0
0.310714 0.150000 0
0.328571 0.150000 0
0.346429 0.150000 0
0.364286 0.150000 0
0.382143 0.150000 0
0.400000 0.150000 0
0.417857 0.150000 0
0.435714 0.150000 0
0.453571 0.150000 0
0.471429 0.150000 0
0.489286 0.150000 0
0.507143 0.150000 0
0.525000 0.150000 0
0.542857 0.150000 0
0.560714 0.150000 0
0.578571 0.150000 0
0.596429 0.150000 0
0.614286 0.150000 0
0.632143 0.150000 0
0.650000 0.150000 0
0.667857 0.150000 0
0.685714 0.150000 0
0.703571 0.150000 0
0.721429 0.150000 0
0.739286 0.150000 0
0.757143 0.150000 0
0.775000 0.150000 0
0.792857 0.150000 0
0.810714 0.150000 0
0.828571 0.150000 0
0.846429 0.150000 0
0.864286 0.150000 0
0.882143 0.150000 0
0.150000 0.167857 0
0.167857 0.167857 0
0.185714 0.167857 0
0.203571 0.167857 0
0.221429 0.167857 0
0.239286 0.167857 0
0.257143 0.167857 0
0.275000 0.167857 0
0.292857 0.167857 0
0.310714 0.167857 0
0.328571 0.167857 0
0.346429 0.167857 0
0.364286 0.167857 0
0.382143 0.167857 0
0.400000 0.167857 0
0.417857 0.167857 0
0.435714 0.167857 0
0.453571 0.167857 0
0.471429 0.167857 0
0.489286 0.167857 0
0.507143 0.167857 0
0.525000 0.167857 0
0.542857 0.167857 0
0.560714 0.167857 0
0.578571 0.167857 0
0.596429 0.167857 0
0.614286 0.167857 0
0.632143 0.167857 0
0.650000 0.167857 0
0.667857 0.167857 0
0.685714 0.167857 0
0.703571 0.167857 0
0.721429 0.167857 0
0.739286 0.167857 0
0.757143 0.167857 0
0.775000 0.167857 0
0.792857 0.167857 0
0.810714 0.167857 0
0.828571 0.167857 0
0.846429 0.167857 0
0.864286 0.167857 0
0.882143 0.167857 0
0.150000 0.185714 0
0.167857 0.185714 0
0.185714 0.185714 0
0.203571 0.185714 0
0.221429 0.185714 0
0.239286 0.185714 0
0.257143 0.185714 0
0.275000 0.185714 0
0.292857 0.185714 0
0.310714 0.185714 0
0.328571 0.185714 0
0.346429 0.185714 0
0.364286 0.185714 0
0.382143 0.185714 0
0.400000 0.185714 0
0.417857 0.185714 0
0.435714 0.185714 0
0.453571 0.185714 0
0.471429 0.185714 0
0.489286 0.185714 0
0.507143 0.185714 0
0.525000 0.185714 0
0.542857 0.185714 0
0.560714 0.185714 0
0.578571 0.185714 0
0.596429 0.185714 0
0.614286 0.185714 0
0.632143 0.185714 0
0.650000 0.185714 0
0.667857 0.185714 0
0.685714 0.185714 0
0.703571 0.185714 0
0.721429 0.185714 0
0.739286 0.185714 0
0.757143 0.185714 0
0.775000 0.185714 0
0.792857 0.185714 0
0.810714 0.185714 0
0.828571 0.185714 0
0.846429 0.185714 0
0.864286 0.185714 0
0.882143 0.185714 0
0.150000 0.203571 0
0.167857 0.203571 0
0.185714 0.203571 0
0.203571 0.203571 0
0.221429 0.203571 0
0.239286 0.203571 0
0.257143 0.203571 0
0.275000 0.203571 0
0.292857 0.203571 0
0.310714 0.203571 0
0.328571 0.203571 0
0.346429 0.203571 0
0.364286 0.203571 0
0.382143 0.203571 0
0.400000 0.203571 0
0.417857 0.203571 0
0.435714 0.203571 0
0.453571 0.203571 0
0.471429 0.203571 0
0.489286 0.203571 0
0.507143 0.203571 0
0.525000 0.203571 0
0.542857 0.203571 0
0.560714 0.203571 0
0.578571 0.203571 0
0.596429 0.203571 0
0.614286 0.203571 0
0.632143 0.203571 0
0.650000 0.203571 0
0.667857 0.203571 0
0.685714 0.203571 0
0.703571 0.203571 0
0.721429 0.203571 0
0.739286 0.203571 0
0.757143 0.203571 0
0.775000 0.203571 0
0.792857 0.203571 0
0.810714 0.203571 0
0.828571 0.203571 0
0.846429 0.203571 0
0.864286 0.203571 0
0.882143 0.203571 0
0.150000 0.221429 0
0.167857 0.221429 0
0.185714 0.221429 0
0.203571 0.221429 0
0.221429 0.221429 0
0.239286 0.221429 0
0.257143 0.221429 0
0.275000 0.221429 0
0.292857 0.221429 0
0.310714 0.221429 0
0.328571 0.221429 0
0.346429 0.221429 0
0.364286 0.221429 0
0.382143 0.221429 0
0.400000 0.221429 0
0.417857 0.221429 0
0.435714 0.221429 0
0.453571 0.221429 0
0.471429 0.221429 0
0.489286 0.221429 0
0.507143 0.221429 0
0.525000 0.221429 0
0.542857 0.221429 0
0.560714 0.221429 0
0.578571 0.221429 0
0.596429 0.221429 0
0.614286 0.221429 0
0.632143 0.221429 0
0.650000 0.221429 0
0.667857 0.221429 0
0.685714 0.221429 0
0.703571 0.221429 0
0.721429 0.221429 0
0.739286 0.221429 0
0.757143 0.221429 0
0.775000 0.221429 0
0.792857 0.221429 0
0.810714 0.221429 0
0.828571 0.221429 0
0.846429 0.221429 0
0.864286 0.221429 0
0.882143 0.221429 0
0.150000 0.239286 0
0.167857 0.239286 0
0.185714 0.239286 0
0.203571 0.239286 0
0.221429 0.239286 0
0.239286 0.239286 0
0.257143 0.239286 0
0.275000 0.239286 0
0.292857 0.239286 0
0.310714 0.239286 0
0.328571 0.239286 0
0.346429 0.239286 0
0.364286 0.239286 0
0.382143 0.239286 0
0.400000 0.239286 0
0.417857 0.239286 0
0.435714 0.239286 0
0.453571 0.239286 0
0.471429 0.239286 0
0.489286 0.239286 0
0.507143 0.239286 0
0.525000 0.239286 0
0.542857 0.239286 0
0.560714 0.239286 0
0.578571 0.239286 0
0.596429 0.239286 0
0.614286 0.239286 0
0.632143 0.239286 0
0.650000 0.239286 0
0.667857 0.239286 0
0.685714 0.239286 0
0.703571 0.239286 0
0.721429 0.239286 0
0.739286 0.239286 0
0.757143 0.239286 0
0.775000 0.239286 0
0.792857 0.239286 0
0.810714 0.239286 0
0.828571 0.239286 0
0.846429 0.239286 0
0.864286 0.239286 0
0.882143 0.239286 0
0.150000 0.257143 0
0.167857 0.257143 0
0.185714 0.257143 0
0.203571 0.257143 0
0.221429 0.257143 0
0.239286 0.257143 0
0.257143 0.257143 0
0.275000 0.257143 0
0.292857 0.257143 0
0.310714 0.257143 0
0.328571 0.257143 0
0.346429 0.257143 0
0.364286 0.257143 0
0.382143 0.257143 0
0.400000 0.257143 0
0.417857 0.257143 0
0.435714 0.257143 0
0.453571 0.257143 0
0.471429 0.257143 0
0.489286 0.257143 0
0.507143 0.257143 0
0.525000 0.257143 0
0.542857 0.257143 0
0.560714 0.257143 0
0.578571 0.257143 0
0.596429 0.257143 0
0.614286 0.257143 0
0.632143 0.257143 0
0.650000 0.257143 0
0.667857 0.257143 0
0.685714 0.257143 0
0.703571 0.257143 0
0.721429 0.257143 0
0.739286 0.257143 0
0.757143 0.257143 0
0.775000 0.257143 0
0.792857 0.257143 0
0.810714 0.257143 0
0.828571 0.257143 0
0.846429 0.257143 0
0.864286 0.257143 0
0.882143 0.257143 0
0.150000 0.275000 0
0.167857 0.275000 0
0.185714 0.275000 0
0.203571 0.275000 0
0.221429 0.275000 0
0.239286 0.275000 0
0.257143 0.275000 0
0.275000 0.275000 0
0.292857 0.275000 0
0.310714 0.275000 0
0.328571 0.275000 0
0.346429 0.275000 0
0.364286 0.275000 0
0.382143 0.275000 0
0.400000 0.275000 0
0.417857 0.275000 0
0.435714 0.275000 0
0.453571 0.275000 0
0.471429 0.275000 0
0.489286 0.275000 0
0.507143 0.275000 0
0.525000 0.275000 0
0.542857 0.275000 0
0.560714 0.275000 0
0.578571 0.275000 0
0.596429 0.275000 0
0.614286 0.275000 0
0.632143 0.275000 0
0.650000 0.275000 0
0.667857 0.275000 0
0.685714 0.275000 0
0.703571 0.275000 0
0.721429 0.275000 0
0.739286 0.275000 0
0.757143 0.275000 0
0.775000 0.275000 0
0.792857 0.275000 0
0.810714 0.275000 0
0.828571 0.275000 0
0.846429 0.275000 0
0.864286 0.275000 0
0.882143 0.275000 0
0.150000 0.292857 0
0.167857 0.292857 0
0.185714 0.292857 0
0.203571 0.292857 0
0.221429 0.292857 0
0.239286 0.292857 0
0.257143 0.292857 0
0.275000 0.292857 0
0.292857 0.292857 0
0.310714 0.292857 0
0.328571 0.292857 0
0.346429 0.292857 0
0.364286 0.292857 0
0.382143 0.292857 0
0.400000 0.292857 0
0.417857 0.292857 0
0.435714 0.292857 0
0.453571 0.292857 0
0.471429 0.292857 0
0.489286 0.292857 0
0.507143 0.292857 0
0.525000 0.292857 0
0.542857 0.292857 0
0.560714 0.292857 0
0.578571 0.292857 0
0.596429 0.292857 0
0.614286 0.292857 0
0.632143 0.292857 0
0.650000 0.292857 0
0.667857 0.292857 0
0.685714 0.292857 0
0.703571 0.292857 0
0.721429 0.292857 0
0.739286 0.292857 0
0.757143 0.292857 0
0.775000 0.292857 0
0.792857 0.292857 0
0.810714 0.292857 0
0.828571 0.292857 0
0.846429 0.292857 0
0.864286 0.292857 0
0.882143 0.292857 0
0.150000 0.310714 0
0.167857 0.310714 0
0.185714 0.310714 0
0.203571 0.310714 0
0.221429 0.310714 0
0.239286 0.310714 0
0.257143 0.310714 0
0.275000 0.310714 0
0.292857 0.310714 0
0.310714 0.310714 0
0.328571 0.310714 0
0.346429 0.310714 0
0.364286 0.310714 0
0.382143 0.310714 0
0.400000 0.310714 0
0.417857 0.310714 0
0.435714 0.310714 0
0.453571 0.310714 0
0.471429 0.310714 0
0.489286 0.310714 0
0.507143 0.310714 0
0.525000 0.310714 0
0.542857 0.310714 0
0.560714 0.310714 0
0.578571 0.310714 0
0.596429 0.310714 0
0.614286 0.310714 0
0.632143 0.310714 0
0.650000 0.310714 0
0.667857 0.310714 0
0.685714 0.310714 0
0.703571 0.310714 0
0.721429 0.310714 0
0.739286 0.310714 0
0.757143 0.310714 0
0.775000 0.310714 0
0.792857 0.310714 0
0.810714 0.310714 0
0.828571 0.310714 0
0.846429 0.310714 0
0.864286 0.310714 0
0.882143 0.310714 0
0.150000 0.328571 0
0.167857 0.328571 0
0.185714 0.328571 0
0.203571 0.328571 0
0.221429 0.328571 0
0.239286 0.328571 0
0.257143 0.328571 0
0.275000 0.328571 0
0.292857 0.328571 0
0.310714 0.328571 0
0.328571 0.328571 0
0.346429 0.328571 0
0.364286 0.328571 0
0.382143 0.328571 0
0.400000 0.328571 0
0.417857 0.328571 0
0.435714 0.328571 0
0.453571 0.328571 0
0.471429 0.328571 0
0.489286 0.328571 0
0.507143 0.328571 0
0.525000 0.328571 0
0.542857 0.328571 0
0.560714 0.328571 0
0.578571 0.328571 0
0.596429 0.328571 0
0.614286 0.328571 0
0.632143 0.328571 0
0.650000 0.328571 0
0.667857 0.328571 0
0.685714 0.328571 0
0.703571 0.328571 0
0.721429 0.328571 0
0.739286 0.328571 0
0.757143 0.328571 0
0.775000 0.328571 0
0.792857 0.328571 0
0.810714 0.328571 0
0.828571 0.328571 0
0.846429 0.328571 0
0.864286 0.328571 0
0.882143 0.328571 0
0.150000 0.346429 0
0.167857 0.346429 0
0.185714 0.346429 0
0.203571 0.346429 0
0.221429 0.346429 0
0.239286 0.346429 0
0.257143 0.346429 0
0.275000 0.346429 0
0.292857 0.346429 0
0.310714 0.346429 0
0.328571 0.346429 0
0.346429 0.346429 0
0.364286 0.346429 0
0.382143 0.346429 0
0.400000 0.346429 0
0.417857 0.346429 0
0.435714 0.346429 0
0.453571 0.346429 0
0.471429 0.346429 0
0.489286 0.346429 0
0.507143 0.346429 0
0.525000 0.346429 0
0.542857 0.346429 0
0.560714 0.346429 0
0.578571 0.346429 0
0.596429 0.346429 0
0.614286 0.346429 0
0.632143 0.346429 0
0.650000 0.346429 0
[...]
POINT_DATA 1764 

VECTORS velocity float
0.000000 0.000000 0
-0.000001 0.000000 0
-0.000002 0.000000 0
-0.000002 0.000000 0
-0.000002 0.000000 0
-0.000002 0.000000 0
-0.000001 0.000000 0
-0.000001 0.000000 0
-0.000001 0.000000 0
-0.000001 0.000000 0
-0.000002 0.000000 0
0.000000 0.000000 0
0.000002 0.000000 0
0.000003 0.000000 0
0.000004 0.000000 0
0.000005 0.000000 0
0.000005 0.000000 0
0.000006 0.000000 0
0.000006 0.000000 0
0.000006 0.000000 0
0.000006 0.000000 0
0.000007 0.000000 0
0.000007 0.000000 0
0.000007 0.000000 0
0.000007 0.000000 0
0.000007 0.000000 0
0.000007 0.000000 0
0.000007 0.000000 0
0.000007 0.000000 0
0.000007 0.000000 0
0.000007 0.000000 0
0.000007 0.000000 0
0.000007 0.000000 0
0.000007 0.000000 0
0.000006 0.000000 0
0.000005 0.000000 0
0.000004 0.000000 0
0.000001 0.000000 0
-0.000001 0.000000 0
-0.000001 0.000000 0
-0.000000 0.000000 0
0.000000 0.000000 0
0.000000 0.000001 0
0.016621 -0.015621 0
0.034418 -0.012915 0
0.043718 -0.004029 0
0.044311 0.003087 0
0.039200 0.006250 0
0.032307 0.005123 0
0.029000 0.002583 0
0.025626 -0.000411 0
0.013899 -0.006354 0
-0.003225 -0.002033 0
-0.024434 0.013452 0
-0.050365 0.023888 0
-0.078578 0.027592 0
-0.106751 0.028056 0
-0.133531 0.027148 0
-0.158037 0.025237 0
-0.179779 0.022766 0
-0.198550 0.020034 0
-0.214330 0.017238 0
-0.227209 0.014488 0
-0.237320 0.011832 0
-0.244796 0.009270 0
-0.249731 0.006755 0
-0.252154 0.004210 0
-0.252008 0.001540 0
-0.249180 -0.001373 0
-0.243523 -0.004613 0
-0.234815 -0.008177 0
-0.222765 -0.012058 0
-0.207051 -0.016287 0
-0.187331 -0.020857 0
-0.163315 -0.025656 0
-0.134872 -0.030412 0
-0.102244 -0.034557 0
-0.066415 -0.037056 0
-0.029768 -0.035762 0
0.002747 -0.021980 0
0.022090 0.001703 0
0.013179 0.015821 0
-0.000007 -0.000001 0
0.000000 -0.009038 0
0.000000 0.000002 0
0.018919 -0.034418 0
0.034959 -0.027097 0
0.042955 -0.009893 0
0.042772 0.004518 0
0.037403 0.012004 0
0.028235 0.010201 0
0.013056 0.006682 0
-0.008583 0.015100 0
-0.039148 0.028850 0
-0.078630 0.038334 0
-0.113007 0.047141 0
-0.142274 0.054143 0
-0.168693 0.056385 0
-0.192859 0.054953 0
-0.214179 0.051286 0
-0.232467 0.046248 0
-0.247706 0.040513 0
-0.260004 0.034551 0
-0.269546 0.028659 0
-0.276537 0.022990 0
-0.281173 0.017587 0
-0.283606 0.012411 0
-0.283934 0.007358 0
-0.282195 0.002277 0
-0.278361 -0.002974 0
-0.272426 -0.008485 0
-0.264296 -0.014365 0
-0.253815 -0.020759 0
-0.240722 -0.027764 0
-0.224721 -0.035434 0
-0.205517 -0.043736 0
-0.182856 -0.052459 0
-0.156609 -0.061071 0
-0.126936 -0.068457 0
-0.094578 -0.072476 0
-0.061362 -0.069162 0
-0.030599 -0.051857 0
-0.002829 -0.010432 0
0.006402 0.022090 0
-0.000006 -0.000001 0
0.000000 -0.013180 0
0.000000 0.000003 0
0.015747 -0.050580 0
0.025579 -0.036952 0
0.028342 -0.011842 0
0.021334 0.008639 0
0.008829 0.020788 0
-0.009781 0.029470 0
-0.039352 0.039401 0
-0.075391 0.051794 0
-0.108518 0.063692 0
-0.139775 0.071826 0
-0.168405 0.077097 0
-0.192211 0.079574 0
-0.211852 0.078177 0
-0.228127 0.073541 0
-0.241344 0.066756 0
-0.251820 0.058765 0
-0.259871 0.050303 0
-0.265802 0.041874 0
-0.269888 0.033771 0
-0.272354 0.026115 0
-0.273369 0.018901 0
-0.273044 0.012031 0
-0.271427 0.005344 0
-0.268527 -0.001362 0
-0.264332 -0.008228 0
-0.258771 -0.015438 0
-0.251663 -0.023225 0
-0.242806 -0.031752 0
-0.231976 -0.041152 0
-0.218927 -0.051492 0
-0.203421 -0.062721 0
-0.185232 -0.074565 0
-0.164195 -0.086332 0
-0.140267 -0.096588 0
-0.113653 -0.102630 0
-0.084963 -0.099740 0
-0.055245 -0.080513 0
-0.025808 -0.035299 0
0.003608 0.012992 0
0.000006 -0.000002 0
0.000000 -0.015442 0
0.000000 0.000003 0
0.007903 -0.059997 0
0.007225 -0.039691 0
-0.001101 -0.005647 0
-0.015606 0.024030 0
-0.035679 0.043118 0
-0.061713 0.058382 0
-0.091705 0.072292 0
-0.122296 0.084266 0
-0.150088 0.093235 0
-0.174532 0.098220 0
-0.195508 0.099576 0
-0.212069 0.097590 0
-0.224617 0.092301 0
-0.233907 0.084445 0
-0.240583 0.074979 0
-0.245196 0.064775 0
-0.248199 0.054495 0
-0.249944 0.044568 0
-0.250691 0.035211 0
-0.250619 0.026472 0
-0.249835 0.018277 0
-0.248384 0.010469 0
-0.246261 0.002841 0
-0.243418 -0.004818 0
-0.239849 -0.012730 0
-0.235346 -0.021154 0
-0.229757 -0.030330 0
-0.222893 -0.040446 0
-0.214572 -0.051642 0
-0.204614 -0.063989 0
-0.192845 -0.077431 0
-0.179089 -0.091685 0
-0.163151 -0.106036 0
-0.144791 -0.119000 0
-0.123703 -0.127780 0
-0.099500 -0.127569 0
-0.071721 -0.111012 0
-0.040023 -0.069285 0
-0.005073 -0.003719 0
0.000011 -0.000000 0
0.000000 -0.016788 0
0.000000 0.000002 0
-0.003858 -0.057805 0
-0.016865 -0.027947 0
-0.035935 0.010989 0
-0.054216 0.043216 0
-0.075760 0.066895 0
-0.100497 0.085496 0
-0.125991 0.099984 0
-0.150162 0.110177 0
-0.171354 0.115928 0
-0.188948 0.117246 0
-0.202824 0.114634 0
-0.212817 0.108683 0
-0.219416 0.100015 0
-0.223345 0.089507 0
-0.225300 0.078044 0
-0.225865 0.066381 0
-0.225492 0.055051 0
-0.224511 0.044367 0
-0.223143 0.034447 0
-0.221527 0.025259 0
-0.219734 0.016666 0
-0.217776 0.008457 0
-0.215626 0.000378 0
-0.213218 -0.007775 0
-0.210439 -0.016300 0
-0.207100 -0.025530 0
-0.203029 -0.035678 0
-0.198048 -0.046936 0
-0.192004 -0.059431 0
-0.184768 -0.073219 0
-0.176236 -0.088246 0
-0.166298 -0.104259 0
-0.154781 -0.120630 0
-0.141354 -0.136036 0
-0.125413 -0.147921 0
-0.105974 -0.151722 0
-0.081758 -0.139990 0
-0.051921 -0.101947 0
-0.018906 -0.027030 0
-0.000001 0.000003 0
0.000000 -0.010364 0
0.000000 0.000001 0
-0.015502 -0.043133 0
-0.037746 -0.007614 0
-0.060082 0.031704 0
-0.080613 0.063855 0
-0.101945 0.089400 0
-0.123647 0.108613 0
-0.144244 0.121957 0
-0.162519 0.129630 0
-0.177595 0.132020 0
-0.189124 0.129690 0
-0.197143 0.123446 0
-0.201882 0.114183 0
-0.203908 0.102830 0
-0.203899 0.090329 0
-0.202497 0.077499 0
-0.200236 0.064967 0
-0.197528 0.053141 0
-0.194673 0.042219 0
-0.191878 0.032227 0
-0.189271 0.023063 0
-0.186913 0.014526 0
-0.184808 0.006361 0
-0.182912 -0.001718 0
-0.181151 -0.010005 0
-0.179299 -0.018847 0
-0.177184 -0.028564 0
-0.174597 -0.039382 0
-0.171344 -0.051471 0
-0.167270 -0.064923 0
-0.162276 -0.079757 0
-0.156313 -0.095901 0
-0.149346 -0.113140 0
-0.141277 -0.130980 0
-0.131814 -0.148367 0
-0.120290 -0.163160 0
-0.105485 -0.171224 0
-0.085658 -0.165066 0
-0.059265 -0.132137 0
-0.027350 -0.055640 0
-0.000020 0.000005 0
0.000000 0.002124 0
0.000000 0.000000 0
-0.022915 -0.020059 0
-0.049800 0.016633 0
-0.073054 0.053855 0
-0.094665 0.085080 0
-0.114908 0.109930 0
-0.133545 0.127795 0
-0.149835 0.138855 0
-0.163173 0.143528 0
-0.173188 0.142533 0
-0.179830 0.136794 0
-0.183331 0.127392 0
-0.184109 0.115447 0
-0.182753 0.102032 0
-0.179877 0.088095 0
-0.176044 0.074381 0
-0.171729 0.061412 0
-0.167314 0.049488 0
-0.163096 0.038717 0
-0.159294 0.029045 0
-0.156050 0.020294 0
-0.153433 0.012203 0
-0.151441 0.004456 0
-0.150009 -0.003279 0
-0.149023 -0.011388 0
-0.148239 -0.020268 0
-0.147435 -0.030232 0
-0.146350 -0.041518 0
-0.144740 -0.054263 0
-0.142410 -0.068500 0
-0.139262 -0.084177 0
-0.135280 -0.101176 0
-0.130494 -0.119294 0
-0.124900 -0.138162 0
-0.118323 -0.157023 0
-0.110203 -0.174249 0
-0.099319 -0.186355 0
-0.083651 -0.186210 0
-0.060826 -0.160254 0
-0.030207 -0.086295 0
-0.000036 0.000006 0
0.000000 0.016990 0
0.000000 -0.000001 0
-0.026589 0.006667 0
-0.053863 0.042524 0
-0.077596 0.076569 0
-0.098902 0.105710 0
-0.117552 0.128280 0
-0.133397 0.143539 0
-0.146130 0.151585 0
-0.155555 0.152983 0
-0.161645 0.148676 0
-0.164590 0.139832 0
-0.164763 0.127725 0
-0.162658 0.113606 0
-0.158837 0.098597 0
-0.153842 0.083619 0
-0.148169 0.069351 0
-0.142254 0.056237 0
-0.136478 0.044508 0
-0.131169 0.034198 0
-0.126588 0.025181 0
-0.122915 0.017202 0
-0.120236 0.009917 0
-0.118544 0.002937 0
-0.117746 -0.004136 0
-0.117684 -0.011775 0
-0.118101 -0.020435 0
-0.118715 -0.030453 0
-0.119198 -0.042078 0
-0.119217 -0.055411 0
-0.118512 -0.070401 0
-0.116955 -0.086888 0
-0.114550 -0.104669 0
-0.111372 -0.123520 0
-0.107496 -0.143151 0
-0.102884 -0.163065 0
-0.097169 -0.182164 0
-0.089318 -0.197776 0
-0.077295 -0.203559 0
-0.058187 -0.185581 0
-0.030124 -0.116465 0
-0.000047 0.000007 0
0.000000 0.032333 0
0.000000 -0.000001 0
-0.026567 0.033805 0
-0.052710 0.067640 0
-0.075944 0.098894 0
-0.096068 0.125036 0
-0.112849 0.144425 0
-0.126203 0.156373 0
-0.136067 0.161013 0
-0.142496 0.159043 0
-0.145681 0.151568 0
-0.145958 0.139911 0
-0.143771 0.125461 0
-0.139619 0.109522 0
-0.134006 0.093216 0
-0.127403 0.077428 0
-0.120255 0.062793 0
-0.112988 0.049721 0
-0.106021 0.038403 0
-0.099754 0.028826 0
-0.094527 0.020790 0
-0.090575 0.013942 0
-0.087999 0.007832 0
-0.086772 0.001966 0
-0.086753 -0.004139 0
-0.087716 -0.011034 0
-0.089413 -0.019237 0
-0.091516 -0.029135 0
-0.093614 -0.041016 0
-0.095261 -0.054948 0
-0.096094 -0.070762 0
-0.095953 -0.088139 0
-0.094860 -0.106759 0
-0.092926 -0.126348 0
-0.090280 -0.146650 0
-0.086992 -0.167351 0
-0.082898 -0.187815 0
-0.077262 -0.206228 0
-0.068285 -0.217341 0
-0.052887 -0.207425 0
-0.028311 -0.144483 0
-0.000054 0.000008 0
0.000000 0.047115 0
0.000000 -0.000002 0
-0.023739 0.059377 0
-0.048468 0.091901 0
-0.070178 0.119927 0
-0.088529 0.142614 0
-0.103296 0.158415 0
-0.114435 0.166758 0
-0.122007 0.167877 0
-0.126202 0.162597 0
-0.127323 0.152139 0
-0.125768 0.137923 0
-0.121985 0.121387 0
-0.116428 0.103840 0
-0.109525 0.086381 0
-0.101678 0.069869 0
-0.093291 0.054936 0
-0.084807 0.042004 0
-0.076727 0.031274 0
-0.069585 0.022704 0
-0.063854 0.016002 0
-0.059822 0.010674 0
-0.057575 0.006114 0
-0.057017 0.001691 0
-0.057919 -0.003191 0
-0.059920 -0.009114 0
-0.062860 -0.016636 0
-0.066403 -0.026252 0
-0.070064 -0.038332 0
-0.073257 -0.052930 0
-0.075488 -0.069709 0
-0.076569 -0.088122 0
-0.076565 -0.107696 0
-0.075628 -0.128099 0
-0.073923 -0.149084 0
-0.071584 -0.170447 0
-0.068606 -0.191894 0
-0.064561 -0.212389 0
-0.058049 -0.227934 0
-0.046130 -0.225555 0
-0.025445 -0.169352 0
-0.000057 0.000008 0
0.000000 0.060645 0
0.000000 -0.000003 0
-0.020330 0.082273 0
-0.042489 0.114080 0
-0.061924 0.138955 0
-0.078114 0.158154 0
-0.090814 0.170331 0
-0.099986 0.175084 0
-0.105738 0.172779 0
-0.108312 0.164359 0
-0.108042 0.151134 0
-0.105321 0.134574 0
-0.100552 0.116121 0
-0.094108 0.097062 0
-0.086328 0.078466 0
-0.077533 0.061194 0
-0.068080 0.045922 0
-0.058439 0.033157 0
-0.049258 0.023181 0
-0.041309 0.015953 0
-0.035310 0.011028 0
-0.031534 0.007664 0
-0.029954 0.005027 0
-0.030315 0.002310 0
-0.032271 -0.001236 0
-0.035390 -0.006093 0
-0.039418 -0.012754 0
-0.044178 -0.021931 0
-0.049170 -0.034161 0
-0.053663 -0.049524 0
-0.057012 -0.067451 0
-0.059031 -0.087062 0
-0.059861 -0.107700 0
-0.059701 -0.128991 0
-0.058741 -0.150694 0
-0.057150 -0.172668 0
-0.055015 -0.194839 0
-0.052158 -0.216786 0
-0.047621 -0.235772 0
-0.038828 -0.240029 0
-0.022084 -0.190612 0
-0.000057 0.000008 0
0.000000 0.072560 0
0.000000 -0.000003 0
-0.016547 0.101866 0
-0.035558 0.133495 0
-0.052297 0.155551 0
-0.066126 0.171504 0
-0.076782 0.180287 0
-0.084215 0.181682 0
-0.088536 0.176203 0
-0.089980 0.164900 0
-0.088860 0.149149 0
-0.085518 0.130433 0
-0.080276 0.110174 0
-0.073412 0.089617 0
-0.065155 0.069805 0
-0.055726 0.051620 0
-0.045409 0.035842 0
-0.034676 0.023182 0
-0.024483 0.014143 0
-0.016007 0.008756 0
-0.010333 0.006228 0
-0.007425 0.005317 0
-0.006838 0.004895 0
-0.008114 0.004008 0
-0.010905 0.001884 0
-0.015066 -0.001968 0
-0.020166 -0.007848 0
-0.025791 -0.016500 0
-0.031664 -0.028848 0
-0.036977 -0.045089 0
-0.040965 -0.064341 0
-0.043517 -0.085273 0
-0.044861 -0.107026 0
-0.045239 -0.129219 0
-0.044858 -0.151635 0
-0.043891 -0.174173 0
-0.042471 -0.196886 0
-0.040579 -0.219783 0
-0.037651 -0.241264 0
-0.031593 -0.251092 0
-0.018612 -0.208180 0
-0.000054 0.000008 0
0.000000 0.082729 0
0.000000 -0.000003 0
-0.012553 0.117831 0
-0.028162 0.149829 0
-0.042028 0.169522 0
-0.053438 0.182638 0
-0.062129 0.188420 0
-0.068037 0.186838 0
-0.071249 0.178545 0
-0.071963 0.164683 0
-0.070437 0.146672 0
-0.066937 0.125990 0
-0.061693 0.104015 0
-0.054874 0.081941 0
-0.046596 0.060781 0
-0.036955 0.041447 0
-0.026116 0.024871 0
-0.014510 0.012231 0
-0.004032 0.004512 0
0.003182 0.001803 0
0.007359 0.002446 0
0.009017 0.004168 0
0.008711 0.005716 0
0.006869 0.006377 0
0.003784 0.005716 0
-0.000491 0.003168 0
-0.005901 -0.002029 0
-0.012074 -0.010433 0
-0.018194 -0.022976 0
-0.023590 -0.040223 0
-0.027534 -0.060910 0
-0.030102 -0.083167 0
-0.031593 -0.105978 0
-0.032254 -0.128994 0
-0.032284 -0.152041 0
-0.031847 -0.175055 0
-0.031077 -0.198151 0
-0.030044 -0.221605 0
-0.028475 -0.244758 0
-0.024780 -0.259068 0
-0.015262 -0.222205 0
-0.000050 0.000008 0
0.000000 0.091172 0
0.000000 -0.000003 0
-0.008477 0.130028 0
-0.020602 0.162970 0
-0.031571 0.180827 0
-0.040598 0.191605 0
-0.047437 0.194886 0
-0.052014 0.190802 0
-0.054384 0.180130 0
-0.054693 0.164088 0
-0.053130 0.144122 0
-0.049881 0.121689 0
-0.045083 0.098112 0
-0.038801 0.074520 0
-0.031026 0.051885 0
-0.021710 0.031140 0
-0.010939 0.013397 0
0.000051 0.001097 0
0.007746 -0.003548 0
0.012269 -0.002634 0
0.014790 0.000392 0
0.015688 0.003965 0
0.015112 0.007043 0
0.013256 0.008935 0
0.010367 0.009243 0
0.006673 0.007717 0
0.002073 0.003734 0
-0.003528 -0.004207 0
-0.009037 -0.017331 0
-0.013555 -0.035749 0
-0.016656 -0.057829 0
-0.018699 -0.081214 0
-0.019972 -0.104874 0
-0.020671 -0.128528 0
-0.020955 -0.152042 0
-0.020959 -0.175380 0
-0.020802 -0.198689 0
-0.020578 -0.222386 0
-0.020205 -0.246528 0
-0.018553 -0.264304 0
-0.012156 -0.232960 0
-0.000045 0.000008 0
0.000000 0.097991 0
0.000000 -0.000003 0
-0.004403 0.138433 0
-0.013073 0.172922 0
-0.021196 0.189518 0
-0.027922 0.198505 0
-0.033032 0.199837 0
-0.036444 0.193785 0
-0.038183 0.181223 0
-0.038343 0.163430 0
-0.037048 0.141860 0
-0.034407 0.117942 0
-0.030480 0.092935 0
-0.025246 0.067884 0
-0.018594 0.043691 0
-0.010379 0.021360 0
-0.000849 0.003110 0
0.006146 -0.006453 0
0.009889 -0.007706 0
0.012325 -0.005241 0
0.013875 -0.000974 0
0.014532 0.003846 0
0.014154 0.008148 0
0.012751 0.011122 0
0.010457 0.012299 0
0.007468 0.011462 0
0.003972 0.008172 0
0.000091 0.000677 0
-0.003778 -0.012949 0
-0.006372 -0.032604 0
-0.007941 -0.055766 0
-0.009028 -0.079850 0
-0.009794 -0.104005 0
-0.010332 -0.128011 0
-0.010740 -0.151753 0
-0.011111 -0.175208 0
-0.011535 -0.198532 0
-0.012100 -0.222202 0
-0.012819 -0.246783 0
-0.012948 -0.267118 0
-0.009336 -0.240758 0
-0.000040 0.000007 0
0.000000 0.103327 0
0.000000 -0.000003 0
-0.000544 0.143101 0
-0.005677 0.179763 0
-0.011039 0.195676 0
-0.015574 0.203442 0
-0.019063 0.203408 0
-0.021435 0.195953 0
-0.022694 0.182029 0
-0.022890 0.162953 0
-0.022089 0.140186 0
-0.020347 0.115121 0
-0.017670 0.088951 0
-0.013992 0.062634 0
-0.009155 0.037018 0
-0.003046 0.013395 0
0.002768 -0.003127 0
0.005293 -0.009640 0
0.006747 -0.009727 0
0.007731 -0.006621 0
0.008458 -0.001815 0
0.008881 0.003687 0
0.008767 0.008824 0
0.007992 0.012632 0
0.006563 0.014527 0
0.004611 0.014201 0
0.002409 0.011111 0
0.000413 0.003544 0
-0.001011 -0.010868 0
-0.000969 -0.031585 0
-0.000717 -0.055172 0
-0.000653 -0.079361 0
-0.000752 -0.103570 0
-0.001009 -0.127582 0
-0.001458 -0.151263 0
-0.002147 -0.174584 0
-0.003132 -0.197700 0
-0.004473 -0.221102 0
-0.006217 -0.245680 0
-0.007924 -0.267786 0
-0.006799 -0.245908 0
-0.000036 0.000007 0
0.000000 0.107327 0
0.000000 -0.000003 0
0.003002 0.144110 0
0.001463 0.183418 0
-0.001199 0.199415 0
-0.003621 0.206529 0
-0.005562 0.205698 0
-0.006967 0.197416 0
-0.007825 0.182677 0
-0.008157 0.162825 0
-0.007988 0.139317 0
-0.007337 0.113523 0
-0.006194 0.086580 0
-0.004498 0.059369 0
-0.002149 0.032745 0
0.000556 0.009437 0
0.001632 -0.005229 0
0.001650 -0.010432 0
0.001389 -0.010144 0
0.001178 -0.006951 0
0.001157 -0.002123 0
0.001304 0.003537 0
0.001453 0.009037 0
0.001387 0.013326 0
0.000997 0.015681 0
0.000349 0.015616 0
-0.000253 0.012369 0
-0.000257 0.004098 0
0.001416 -0.011567 0
0.003903 -0.032899 0
0.005768 -0.056083 0
0.006932 -0.079815 0
0.007513 -0.103648 0
0.007565 -0.127306 0
0.007102 -0.150616 0
0.006110 -0.173534 0
0.004569 -0.196205 0
0.002452 -0.219117 0
-0.000263 -0.243333 0
-0.003395 -0.266535 0
-0.004511 -0.248682 0
-0.000032 0.000007 0
0.000000 0.110126 0
0.000000 -0.000003 0
0.006322 0.141639 0
0.008254 0.183964 0
0.008245 0.200760 0
0.007887 0.207805 0
0.007466 0.206754 0
0.007025 0.198216 0
0.006573 0.183219 0
0.006106 0.163115 0
0.005624 0.139366 0
0.005126 0.113327 0
0.004613 0.086111 0
0.004080 0.058590 0
0.003431 0.031965 0
0.001992 0.009614 0
-0.000605 -0.004221 0
-0.002617 -0.009398 0
-0.004253 -0.009255 0
-0.005422 -0.006388 0
-0.006059 -0.001941 0
-0.006139 0.003390 0
-0.005728 0.008740 0
-0.005069 0.013088 0
-0.004339 0.015565 0
-0.003511 0.015451 0
-0.002265 0.011718 0
0.000200 0.001874 0
0.004933 -0.015029 0
0.009127 -0.035938 0
0.012206 -0.058202 0
0.014267 -0.081105 0
0.015415 -0.104203 0
0.015715 -0.127172 0
0.015196 -0.149808 0
0.013872 -0.172051 0
0.011746 -0.194042 0
0.008826 -0.216271 0
0.005119 -0.239832 0
0.000736 -0.263538 0
-0.002418 -0.249303 0
-0.000030 0.000007 0
0.000000 0.111837 0
0.000000 -0.000002 0
0.009398 0.135857 0
0.014684 0.181495 0
0.017272 0.199781 0
0.018918 0.207307 0
0.020009 0.206560 0
0.020575 0.198309 0
0.020605 0.183596 0
0.020100 0.163773 0
0.019071 0.140297 0
0.017526 0.114534 0
0.015451 0.087626 0
0.012760 0.060551 0
0.009195 0.034832 0
0.004241 0.013473 0
-0.001446 -0.000619 0
-0.005617 -0.006784 0
-0.008468 -0.007339 0
-0.010398 -0.005145 0
-0.011488 -0.001407 0
-0.011695 0.003206 0
-0.011043 0.007967 0
-0.009724 0.011936 0
-0.007902 0.014123 0
-0.005547 0.013543 0
-0.002221 0.008659 0
0.003570 -0.003101 0
0.010021 -0.020494 0
0.015234 -0.040171 0
0.019142 -0.061223 0
0.021822 -0.083024 0
0.023342 -0.105096 0
0.023749 -0.127087 0
0.023075 -0.148773 0
0.021343 -0.170084 0
0.018577 -0.191160 0
0.014804 -0.212489 0
0.010060 -0.235243 0
0.004496 -0.258999 0
-0.000466 -0.247946 0
-0.000029 0.000006 0
0.000000 0.112543 0
0.000000 -0.000002 0
0.012165 0.126954 0
0.020681 0.176090 0
0.025835 0.196526 0
0.029445 0.205068 0
0.032045 0.205097 0
0.033677 0.197620 0
0.034310 0.183693 0
0.033935 0.164650 0
0.032566 0.141940 0
0.030226 0.116947 0
0.026900 0.090878 0
0.022486 0.064846 0
0.016745 0.040483 0
0.009552 0.020255 0
0.001729 0.005636 0
-0.005153 -0.002376 0
-0.009533 -0.004473 0
-0.012170 -0.003368 0
-0.013592 -0.000645 0
-0.013846 0.002945 0
-0.012989 0.006770 0
-0.011106 0.009947 0
-0.008246 0.011388 0
-0.004252 0.009771 0
0.001927 0.002601 0
0.009906 -0.010368 0
0.016890 -0.026693 0
0.022585 -0.045058 0
0.026933 -0.064790 0
0.029926 -0.085306 0
0.031577 -0.106130 0
0.031905 -0.126904 0
0.030931 -0.147402 0
0.028683 -0.167553 0
0.025195 -0.187504 0
0.020518 -0.207754 0
0.014715 -0.229524 0
0.007936 -0.253013 0
0.001396 -0.244808 0
-0.000028 0.000006 0
0.000000 0.112302 0
0.000000 -0.000002 0
0.014522 0.115175 0
0.026107 0.167824 0
0.033812 0.191017 0
0.039377 0.201097 0
0.043502 0.202328 0
0.046281 0.196044 0
0.047671 0.183339 0
0.047647 0.165517 0
0.046229 0.144006 0
0.043454 0.120200 0
0.039339 0.095367 0
0.033836 0.070706 0
0.026849 0.047766 0
0.018581 0.028489 0
0.009892 0.014086 0
0.001487 0.004477 0
-0.004865 -0.000322 0
-0.008838 -0.001085 0
-0.010771 0.000269 0
-0.011136 0.002603 0
-0.010138 0.005226 0
-0.007765 0.007193 0
-0.003770 0.007269 0
0.002373 0.003370 0
0.010543 -0.005499 0
0.018581 -0.018064 0
0.025594 -0.033173 0
0.031378 -0.050214 0
0.035805 -0.068563 0
0.038797 -0.087668 0
0.040317 -0.107075 0
0.040352 -0.126441 0
0.038908 -0.145551 0
0.036011 -0.164348 0
0.031703 -0.182995 0
0.026052 -0.202009 0
0.019147 -0.222661 0
0.011159 -0.245680 0
0.003175 -0.240010 0
-0.000027 0.000006 0
0.000000 0.111146 0
0.000000 -0.000001 0
0.016335 0.100848 0
0.030748 0.156800 0
0.040988 0.183256 0
0.048539 0.195378 0
0.054238 0.198194 0
0.058265 0.193452 0
0.060588 0.182327 0
0.061172 0.166092 0
0.060037 0.146133 0
0.057244 0.123836 0
0.052860 0.100496 0
0.046929 0.077336 0
0.039516 0.055739 0
0.030994 0.037211 0
0.022184 0.022730 0
0.013865 0.012381 0
0.006580 0.005852 0
0.001358 0.002538 0
-0.001538 0.001653 0
-0.002378 0.002313 0
-0.001340 0.003399 0