# vtk DataFile Version 2.0
generated by CFD-lab course output (written by Tobias Neckel) 
ASCII

DATASET STRUCTURED_GRID
DIMENSIONS  42 42 1 
POINTS 1764 float

0.150000 0.150000 0
0.167857 0.150000 0
0.185714 0.150000 0
0.203571 0.150000 0
0.221429 0.150000 0
0.239286 0.150000 0
0.257143 0.150000 0
0.275000 0.150000 0
0.292857 0.150000 0
0.310714 0.150000 0
0.328571 0.150000 0
0.346429 0.150000 0
0.364286 0.150000 0
0.382143 0.150000 0
0.400000 0.150000 0
0.417857 0.150000 0
0.435714 0.150000 0
0.453571 0.150000 0
0.471429 0.150000 0
0.489286 0.150000 0
0.507143 0.150000 0
0.525000 0.150000 0
0.542857 0.150000 0
0.560714 0.150000 0
0.578571 0.150000 0
0.596429 0.150000 0
0.614286 0.150000 0
0.632143 0.150000 0
0.650000 0.150000 0
0.667857 0.150000 0
0.685714 0.150000 0
0.703571 0.150000 0
0.721429 0.150000 0
0.739286 0.150000 0
0.757143 0.150000 0
0.775000 0.150000 0
0.792857 0.150000 0
0.810714 0.150000 0
0.828571 0.150000 0
0.846429 0.150000 0
0.864286 0.150000 0
0.882143 0.150000 0
0.150000 0.167857 0
0.167857 0.167857 0
0.185714 0.167857 0
0.203571 0.167857 0
0.221429 0.167857 0
0.239286 0.167857 0
0.257143 0.167857 0
0.275000 0.167857 0
0.292857 0.167857 0
0.310714 0.167857 0
0.328571 0.167857 0
0.346429 0.167857 0
0.364286 0.167857 0
0.382143 0.167857 0
0.400000 0.167857 0
0.417857 0.167857 0
0.435714 0.167857 0
0.453571 0.167857 0
0.471429 0.167857 0
0.489286 0.167857 0
0.507143 0.167857 0
0.525000 0.167857 0
0.542857 0.167857 0
0.560714 0.167857 0
0.578571 0.167857 0
0.596429 0.167857 0
0.614286 0.167857 0
0.632143 0.167857 0
0.650000 0.167857 0
0.667857 0.167857 0
0.685714 0.167857 0
0.703571 0.167857 0
0.721429 0.167857 0
0.739286 0.167857 0
0.757143 0.167857 0
0.775000 0.167857 0
0.792857 0.167857 0
0.810714 0.167857 0
0.828571 0.167857 0
0.846429 0.167857 0
0.864286 0.167857 0
0.882143 0.167857 0
0.150000 0.185714 0
0.167857 0.185714 0
0.185714 0.185714 0
0.203571 0.185714 0
0.221429 0.185714 0
0.239286 0.185714 0
0.257143 0.185714 0
0.275000 0.185714 0
0.292857 0.185714 0
0.310714 0.185714 0
0.328571 0.185714 0
0.346429 0.185714 0
0.364286 0.185714 0
0.382143 0.185714 0
0.400000 0.185714 0
0.417857 0.185714 0
0.435714 0.185714 0
0.453571 0.185714 0
0.471429 0.185714 0
0.489286 0.185714 0
0.507143 0.185714 0
0.525000 0.185714 0
0.542857 0.185714 0
0.560714 0.185714 0
0.578571 0.185714 0
0.596429 0.185714 0
0.614286 0.185714 0
0.632143 0.185714 0
0.650000 0.185714 0
0.667857 0.185714 0
0.685714 0.185714 0
0.703571 0.185714 0
0.721429 0.185714 0
0.739286 0.185714 0
0.757143 0.185714 0
0.775000 0.185714 0
0.792857 0.185714 0
0.810714 0.185714 0
0.828571 0.185714 0
0.846429 0.185714 0
0.864286 0.185714 0
0.882143 0.185714 0
0.150000 0.203571 0
0.167857 0.203571 0
0.185714 0.203571 0
0.203571 0.203571 0
0.221429 0.203571 0
0.239286 0.203571 0
0.257143 0.203571 0
0.275000 0.203571 0
0.292857 0.203571 0
0.310714 0.203571 0
0.328571 0.203571 0
0.346429 0.203571 0
0.364286 0.203571 0
0.382143 0.203571 0
0.400000 0.203571 0
0.417857 0.203571 0
0.435714 0.203571 0
0.453571 0.203571 0
0.471429 0.203571 0
0.489286 0.203571 0
0.507143 0.203571 0
0.525000 0.203571 0
0.542857 0.203571 0
0.560714 0.203571 0
0.578571 0.203571 0
0.596429 0.203571 0
0.614286 0.203571 0
0.632143 0.203571 0
0.650000 0.203571 0
0.667857 0.203571 0
0.685714 0.203571 0
0.703571 0.203571 0
0.721429 0.203571 0
0.739286 0.203571 0
0.757143 0.203571 0
0.775000 0.203571 0
0.792857 0.203571 0
0.810714 0.203571 0
0.828571 0.203571 0
0.846429 0.203571 0
0.864286 0.203571 0
0.882143 0.203571 0
0.150000 0.221429 0
0.167857 0.221429 0
0.185714 0.221429 0
0.203571 0.221429 0
0.221429 0.221429 0
0.239286 0.221429 0
0.257143 0.221429 0
0.275000 0.221429 0
0.292857 0.221429 0
0.310714 0.221429 0
0.328571 0.221429 0
0.346429 0.221429 0
0.364286 0.221429 0
0.382143 0.221429 0
0.400000 0.221429 0
0.417857 0.221429 0
0.435714 0.221429 0
0.453571 0.221429 0
0.471429 0.221429 0
0.489286 0.221429 0
0.507143 0.221429 0
0.525000 0.221429 0
0.542857 0.221429 0
0.560714 0.221429 0
0.578571 0.221429 0
0.596429 0.221429 0
0.614286 0.221429 0
0.632143 0.221429 0
0.650000 0.221429 0
0.667857 0.221429 0
0.685714 0.221429 0
0.703571 0.221429 0
0.721429 0.221429 0
0.739286 0.221429 0
0.757143 0.221429 0
0.775000 0.221429 0
0.792857 0.221429 0
0.810714 0.221429 0
0.828571 0.221429 0
0.846429 0.221429 0
0.864286 0.221429 0
0.882143 0.221429 0
0.150000 0.239286 0
0.167857 0.239286 0
0.185714 0.239286 0
0.203571 0.239286 0
0.221429 0.239286 0
0.239286 0.239286 0
0.257143 0.239286 0
0.275000 0.239286 0
0.292857 0.239286 0
0.310714 0.239286 0
0.328571 0.239286 0
0.346429 0.239286 0
0.364286 0.239286 0
0.382143 0.239286 0
0.400000 0.239286 0
0.417857 0.239286 0
0.435714 0.239286 0
0.453571 0.239286 0
0.471429 0.239286 0
0.489286 0.239286 0
0.507143 0.239286 0
0.525000 0.239286 0
0.542857 0.239286 0
0.560714 0.239286 0
0.578571 0.239286 0
0.596429 0.239286 0
0.614286 0.239286 0
0.632143 0.239286 0
0.650000 0.239286 0
0.667857 0.239286 0
0.685714 0.239286 0
0.703571 0.239286 0
0.721429 0.239286 0
0.739286 0.239286 0
0.757143 0.239286 0
0.775000 0.239286 0
0.792857 0.239286 0
0.810714 0.239286 0
0.828571 0.239286 0
0.846429 0.239286 0
0.864286 0.239286 0
0.882143 0.239286 0
0.150000 0.257143 0
0.167857 0.257143 0
0.185714 0.257143 0
0.203571 0.257143 0
0.221429 0.257143 0
0.239286 0.257143 0
0.257143 0.257143 0
0.275000 0.257143 0
0.292857 0.257143 0
0.310714 0.257143 0
0.328571 0.257143 0
0.346429 0.257143 0
0.364286 0.257143 0
0.382143 0.257143 0
0.400000 0.257143 0
0.417857 0.257143 0
0.435714 0.257143 0
0.453571 0.257143 0
0.471429 0.257143 0
0.489286 0.257143 0
0.507143 0.257143 0
0.525000 0.257143 0
0.542857 0.257143 0
0.560714 0.257143 0
0.578571 0.257143 0
0.596429 0.257143 0
0.614286 0.257143 0
0.632143 0.257143 0
0.650000 0.257143 0
0.667857 0.257143 0
0.685714 0.257143 0
0.703571 0.257143 0
0.721429 0.257143 0
0.739286 0.257143 0
0.757143 0.257143 0
0.775000 0.257143 0
0.792857 0.257143 0
0.810714 0.257143 0
0.828571 0.257143 0
0.846429 0.257143 0
0.864286 0.257143 0
0.882143 0.257143 0
0.150000 0.275000 0
0.167857 0.275000 0
0.185714 0.275000 0
0.203571 0.275000 0
0.221429 0.275000 0
0.239286 0.275000 0
0.257143 0.275000 0
0.275000 0.275000 0
0.292857 0.275000 0
0.310714 0.275000 0
0.328571 0.275000 0
0.346429 0.275000 0
0.364286 0.275000 0
0.382143 0.275000 0
0.400000 0.275000 0
0.417857 0.275000 0
0.435714 0.275000 0
0.453571 0.275000 0
0.471429 0.275000 0
0.489286 0.275000 0
0.507143 0.275000 0
0.525000 0.275000 0
0.542857 0.275000 0
0.560714 0.275000 0
0.578571 0.275000 0
0.596429 0.275000 0
0.614286 0.275000 0
0.632143 0.275000 0
0.650000 0.275000 0
0.667857 0.275000 0
0.685714 0.275000 0
0.703571 0.275000 0
0.721429 0.275000 0
0.739286 0.275000 0
0.757143 0.275000 0
0.775000 0.275000 0
0.792857 0.275000 0
0.810714 0.275000 0
0.828571 0.275000 0
0.846429 0.275000 0
0.864286 0.275000 0
0.882143 0.275000 0
0.150000 0.292857 0
0.167857 0.292857 0
0.185714 0.292857 0
0.203571 0.292857 0
0.221429 0.292857 0
0.239286 0.292857 0
0.257143 0.292857 0
0.275000 0.292857 0
0.292857 0.292857 0
0.310714 0.292857 0
0.328571 0.292857 0
0.346429 0.292857 0
0.364286 0.292857 0
0.382143 0.292857 0
0.400000 0.292857 0
0.417857 0.292857 0
0.435714 0.292857 0
0.453571 0.292857 0
0.471429 0.292857 0
0.489286 0.292857 0
0.507143 0.292857 0
0.525000 0.292857 0
0.542857 0.292857 0
0.560714 0.292857 0
0.578571 0.292857 0
0.596429 0.292857 0
0.614286 0.292857 0
0.632143 0.292857 0
0.650000 0.292857 0
0.667857 0.292857 0
0.685714 0.292857 0
0.703571 0.292857 0
0.721429 0.292857 0
0.739286 0.292857 0
0.757143 0.292857 0
0.775000 0.292857 0
0.792857 0.292857 0
0.810714 0.292857 0
0.828571 0.292857 0
0.846429 0.292857 0
0.864286 0.292857 0
0.882143 0.292857 0
0.150000 0.310714 0
0.167857 0.310714 0
0.185714 0.310714 0
0.203571 0.310714 0
0.221429 0.310714 0
0.239286 0.310714 0
0.257143 0.310714 0
0.275000 0.310714 0
0.292857 0.310714 0
0.310714 0.310714 0
0.328571 0.310714 0
0.346429 0.310714 0
0.364286 0.310714 0
0.382143 0.310714 0
0.400000 0.310714 0
0.417857 0.310714 0
0.435714 0.310714 0
0.453571 0.310714 0
0.471429 0.310714 0
0.489286 0.310714 0
0.507143 0.310714 0
0.525000 0.310714 0
0.542857 0.310714 0
0.560714 0.310714 0
0.578571 0.310714 0
0.596429 0.310714 0
0.614286 0.310714 0
0.632143 0.310714 0
0.650000 0.310714 0
0.667857 0.310714 0
0.685714 0.310714 0
0.703571 0.310714 0
0.721429 0.310714 0
0.739286 0.310714 0
0.757143 0.310714 0
0.775000 0.310714 0
0.792857 0.310714 0
0.810714 0.310714 0
0.828571 0.310714 0
0.846429 0.310714 0
0.864286 0.310714 0
0.882143 0.310714 0
0.150000 0.328571 0
0.167857 0.328571 0
0.185714 0.328571 0
0.203571 0.328571 0
0.221429 0.328571 0
0.239286 0.328571 0
0.257143 0.328571 0
0.275000 0.328571 0
0.292857 0.328571 0
0.310714 0.328571 0
0.328571 0.328571 0
0.346429 0.328571 0
0.364286 0.328571 0
0.382143 0.328571 0
0.400000 0.328571 0
0.417857 0.328571 0
0.435714 0.328571 0
0.453571 0.328571 0
0.471429 0.328571 0
0.489286 0.328571 0
0.507143 0.328571 0
0.525000 0.328571 0
0.542857 0.328571 0
0.560714 0.328571 0
0.578571 0.328571 0
0.596429 0.328571 0
0.614286 0.328571 0
0.632143 0.328571 0
0.650000 0.328571 0
0.667857 0.328571 0
0.685714 0.328571 0
0.703571 0.328571 0
0.721429 0.328571 0
0.739286 0.328571 0
0.757143 0.328571 0
0.775000 0.328571 0
0.792857 0.328571 0
0.810714 0.328571 0
0.828571 0.328571 0
0.846429 0.328571 0
0.864286 0.328571 0
0.882143 0.328571 0
0.150000 0.346429 0
0.167857 0.346429 0
0.185714 0.346429 0
0.203571 0.346429 0
0.221429 0.346429 0
0.239286 0.346429 0
0.257143 0.346429 0
0.275000 0.346429 0
0.292857 0.346429 0
0.310714 0.346429 0
0.328571 0.346429 0
0.346429 0.346429 0
0.364286 0.346429 0
0.382143 0.346429 0
0.400000 0.346429 0
0.417857 0.346429 0
0.435714 0.346429 0
0.453571 0.346429 0
0.471429 0.346429 0
0.489286 0.346429 0
0.507143 0.346429 0
0.525000 0.346429 0
0.542857 0.346429 0
0.560714 0.346429 0
0.578571 0.346429 0
0.596429 0.346429 0
0.614286 0.346429 0
0.632143 0.346429 0
0.650000 0.346429 0
[...]
POINT_DATA 1764 

VECTORS velocity float
0.000000 0.000000 0
-0.000002 0.000000 0
-0.000003 0.000000 0
-0.000003 0.000000 0
-0.000003 0.000000 0
-0.000002 0.000000 0
-0.000001 0.000000 0
-0.000004 0.000000 0
-0.000006 0.000000 0
0.000004 0.000000 0
0.000009 0.000000 0
0.000011 0.000000 0
0.000013 0.000000 0
0.000014 0.000000 0
0.000014 0.000000 0
0.000015 0.000000 0
0.000015 0.000000 0
0.000015 0.000000 0
0.000014 0.000000 0
0.000014 0.000000 0
0.000014 0.000000 0
0.000014 0.000000 0
0.000014 0.000000 0
0.000014 0.000000 0
0.000014 0.000000 0
0.000014 0.000000 0
0.000014 0.000000 0
0.000015 0.000000 0
0.000015 0.000000 0
0.000016 0.000000 0
0.000016 0.000000 0
0.000016 0.000000 0
0.000016 0.000000 0
0.000016 0.000000 0
0.000016 0.000000 0
0.000015 0.000000 0
0.000013 0.000000 0
0.000010 0.000000 0
0.000006 0.000000 0
-0.000002 0.000000 0
-0.000000 0.000000 0
0.000000 0.000000 0
0.000000 0.000002 0
0.038498 -0.035200 0
0.067641 -0.020301 0
0.078682 -0.002181 0
0.073319 0.008975 0
0.062438 0.012981 0
0.051724 0.009766 0
0.032499 -0.006716 0
0.004302 -0.003451 0
-0.030592 0.026178 0
-0.074145 0.044043 0
-0.120745 0.047791 0
-0.166132 0.046338 0
-0.208203 0.043181 0
-0.245773 0.038860 0
-0.278391 0.034130 0
-0.306087 0.029444 0
-0.329187 0.025076 0
-0.348161 0.021157 0
-0.363525 0.017719 0
-0.375762 0.014727 0
-0.385284 0.012106 0
-0.392409 0.009762 0
-0.397342 0.007568 0
-0.400157 0.005377 0
-0.400802 0.003044 0
-0.399092 0.000415 0
-0.394799 -0.002669 0
-0.387524 -0.006321 0
-0.376735 -0.010626 0
-0.361765 -0.015735 0
-0.341805 -0.021807 0
-0.315930 -0.028949 0
-0.283152 -0.037169 0
-0.242556 -0.046228 0
-0.193617 -0.055356 0
-0.136890 -0.062598 0
-0.075461 -0.063388 0
-0.017768 -0.041128 0
0.017684 0.005338 0
0.000046 -0.000002 0
0.000000 -0.015780 0
0.000000 0.000004 0
0.030977 -0.067641 0
0.052144 -0.040184 0
0.061274 -0.005678 0
0.051019 0.016244 0
0.030241 0.021595 0
0.001368 0.029939 0
-0.041695 0.047422 0
-0.105987 0.063091 0
-0.159560 0.078447 0
-0.203289 0.090153 0
-0.242902 0.091986 0
-0.279229 0.087458 0
-0.311002 0.079641 0
-0.337951 0.070188 0
-0.360158 0.060314 0
-0.377977 0.050796 0
-0.391901 0.042074 0
-0.402462 0.034338 0
-0.410166 0.027600 0
-0.415449 0.021759 0
-0.418657 0.016648 0
-0.420040 0.012057 0
-0.419740 0.007748 0
-0.417815 0.003460 0
-0.414214 -0.001065 0
-0.408915 -0.006003 0
-0.401687 -0.011568 0
-0.392245 -0.018064 0
-0.380143 -0.025759 0
-0.364816 -0.034930 0
-0.345624 -0.045835 0
-0.321847 -0.058653 0
-0.292735 -0.073375 0
-0.257586 -0.089535 0
-0.215960 -0.105665 0
-0.168139 -0.118156 0
-0.115989 -0.119122 0
-0.064277 -0.093145 0
-0.015442 -0.017768 0
0.000016 0.000005 0
0.000000 -0.017679 0
0.000000 0.000004 0
0.015201 -0.087344 0
0.018707 -0.050599 0
0.008131 -0.001055 0
-0.012474 0.040008 0
-0.046301 0.062632 0
-0.093457 0.081702 0
-0.142402 0.100640 0
-0.189171 0.114414 0
-0.232124 0.123480 0
-0.266497 0.127385 0
-0.294374 0.123731 0
-0.317248 0.114439 0
-0.335523 0.101903 0
-0.349709 0.088016 0
-0.360363 0.074155 0
-0.368067 0.061186 0
-0.373373 0.049561 0
-0.376761 0.039422 0
-0.378624 0.030705 0
-0.379259 0.023218 0
-0.378874 0.016697 0
-0.377596 0.010846 0
-0.375483 0.005343 0
-0.372542 -0.000149 0
-0.368757 -0.005856 0
-0.364025 -0.012112 0
-0.358069 -0.019339 0
-0.350579 -0.027865 0
-0.341168 -0.038055 0
-0.329384 -0.050254 0
-0.314737 -0.064776 0
-0.296711 -0.081838 0
-0.274780 -0.101429 0
-0.248409 -0.123003 0
-0.217081 -0.144803 0
-0.180407 -0.162569 0
-0.138354 -0.167250 0
-0.091615 -0.141674 0
-0.042465 -0.058939 0
-0.000041 0.000010 0
0.000000 -0.000326 0
0.000000 0.000002 0
-0.007347 -0.086348 0
-0.026469 -0.033114 0
-0.056695 0.025504 0
-0.084934 0.070676 0
-0.119605 0.102577 0
-0.159567 0.126040 0
-0.198520 0.143136 0
-0.233269 0.152812 0
-0.263110 0.155773 0
-0.285646 0.152404 0
-0.301831 0.142737 0
-0.313027 0.128606 0
-0.320303 0.112102 0
-0.324599 0.095028 0
-0.326710 0.078672 0
-0.327283 0.063806 0
-0.326825 0.050769 0
-0.325703 0.039590 0
-0.324167 0.030098 0
-0.322371 0.022009 0
-0.320391 0.014985 0
-0.318245 0.008666 0
-0.315910 0.002694 0
-0.313333 -0.003266 0
-0.310509 -0.009583 0
-0.307146 -0.016690 0
-0.303058 -0.025014 0
-0.297951 -0.034964 0
-0.291491 -0.046954 0
-0.283299 -0.061361 0
-0.272997 -0.078509 0
-0.260240 -0.098610 0
-0.244712 -0.121677 0
-0.226053 -0.147235 0
-0.203704 -0.173667 0
-0.176727 -0.196882 0
-0.143615 -0.207914 0
-0.102374 -0.189033 0
-0.051940 -0.109384 0
-0.000097 0.000014 0
0.000000 0.024795 0
0.000000 -0.000000 0
-0.029118 -0.060876 0
-0.065692 -0.001250 0
-0.099069 0.057409 0
-0.130642 0.102917 0
-0.162752 0.137265 0
-0.194671 0.160617 0
-0.223472 0.174342 0
-0.247329 0.179004 0
-0.265600 0.175857 0
-0.277518 0.166106 0
-0.283952 0.151111 0
-0.286178 0.132911 0
-0.285432 0.113476 0
-0.282780 0.094423 0
-0.279062 0.076839 0
-0.274901 0.061301 0
-0.270728 0.047980 0
-0.266808 0.036765 0
-0.263281 0.027374 0
-0.260195 0.019442 0
-0.257534 0.012571 0
-0.255243 0.006365 0
-0.253248 0.000431 0
-0.251464 -0.005550 0
-0.249749 -0.012043 0
-0.247908 -0.019564 0
-0.245742 -0.028534 0
-0.242986 -0.039432 0
-0.239311 -0.052707 0
-0.234341 -0.068748 0
-0.227724 -0.087835 0
-0.219201 -0.110123 0
-0.208633 -0.135616 0
-0.195864 -0.164010 0
-0.180436 -0.194129 0
-0.161202 -0.222659 0
-0.135849 -0.241602 0
-0.100749 -0.233349 0
-0.052797 -0.161313 0
-0.000136 0.000016 0
0.000000 0.051620 0
0.000000 -0.000003 0
-0.041874 -0.020656 0
-0.084554 0.036837 0
-0.119572 0.090454 0
-0.151636 0.134359 0
-0.180353 0.166606 0
-0.205487 0.186760 0
-0.225849 0.195793 0
-0.240683 0.194940 0
-0.249824 0.185962 0
-0.253423 0.170755 0
-0.252488 0.151397 0
-0.248266 0.130087 0
-0.241985 0.108704 0
-0.234687 0.088657 0
-0.227179 0.070794 0
-0.220025 0.055472 0
-0.213586 0.042675 0
-0.208047 0.032143 0
-0.203466 0.023486 0
-0.199813 0.016262 0
-0.197003 0.010033 0
-0.194931 0.004380 0
-0.193490 -0.001085 0
-0.192584 -0.006765 0
-0.191984 -0.013139 0
-0.191602 -0.020697 0
-0.191263 -0.029935 0
-0.190727 -0.041396 0
-0.189639 -0.055599 0
-0.187556 -0.072948 0
-0.184040 -0.093649 0
-0.178808 -0.117701 0
-0.171827 -0.145014 0
-0.163152 -0.175432 0
-0.152560 -0.208329 0
-0.139071 -0.241470 0
-0.120273 -0.268367 0
-0.091879 -0.272085 0
-0.049464 -0.210133 0
-0.000160 0.000018 0
0.000000 0.077597 0
0.000000 -0.000005 0
-0.045696 0.023678 0
-0.087856 0.076447 0
-0.123871 0.124491 0
-0.154520 0.163698 0
-0.179626 0.191117 0
-0.199211 0.206114 0
-0.212988 0.209538 0
-0.220931 0.202979 0
-0.223374 0.188596 0
-0.220998 0.168770 0
-0.214931 0.145954 0
-0.206402 0.122407 0
-0.196580 0.099897 0
-0.186444 0.079617 0
-0.176735 0.062177 0
-0.167960 0.047709 0
-0.160409 0.036002 0
-0.154200 0.026646 0
-0.149315 0.019140 0
-0.145645 0.012978 0
-0.143041 0.007689 0
-0.141346 0.002852 0
-0.140423 -0.001916 0
-0.140161 -0.007056 0
-0.140414 -0.013025 0
-0.141146 -0.020284 0
-0.142270 -0.029409 0
-0.143600 -0.041057 0
-0.144774 -0.055878 0
-0.145240 -0.074347 0
-0.144380 -0.096583 0
-0.141774 -0.122336 0
-0.137413 -0.151272 0
-0.131521 -0.183277 0
-0.124137 -0.218210 0
-0.114665 -0.254946 0
-0.101103 -0.288795 0
-0.079222 -0.304159 0
-0.043710 -0.253192 0
-0.000169 0.000019 0
0.000000 0.101086 0
0.000000 -0.000007 0
-0.043028 0.067200 0
-0.083232 0.115011 0
-0.117569 0.157118 0
-0.145547 0.190114 0
-0.166993 0.211297 0
-0.182040 0.220122 0
-0.190855 0.217513 0
-0.193851 0.205327 0
-0.191716 0.186030 0
-0.185405 0.162312 0
-0.176102 0.136801 0
-0.165001 0.111736 0
-0.153198 0.088746 0
-0.141595 0.068812 0
-0.130865 0.052310 0
-0.121459 0.039146 0
-0.113625 0.028916 0
-0.107440 0.021048 0
-0.102834 0.014930 0
-0.099632 0.009989 0
-0.097601 0.005734 0
-0.096500 0.001762 0
-0.096127 -0.002270 0
-0.096353 -0.006774 0
-0.097128 -0.012155 0
-0.098487 -0.018841 0
-0.100472 -0.027480 0
-0.103029 -0.038892 0
-0.105863 -0.053959 0
-0.108343 -0.073343 0
-0.109632 -0.097114 0
-0.109104 -0.124667 0
-0.106725 -0.155267 0
-0.102815 -0.188708 0
-0.097612 -0.225185 0
-0.090915 -0.264504 0
-0.081369 -0.303809 0
-0.065306 -0.329478 0
-0.036971 -0.289354 0
-0.000164 0.000019 0
0.000000 0.121308 0
0.000000 -0.000007 0
-0.037357 0.106910 0
-0.074061 0.150988 0
-0.105033 0.186806 0
-0.129571 0.213122 0
-0.147433 0.227609 0
-0.158775 0.229976 0
-0.163963 0.221350 0
-0.163626 0.203840 0
-0.158629 0.180149 0
-0.150031 0.153156 0
-0.138998 0.125551 0
-0.126654 0.099504 0
-0.113999 0.076490 0
-0.101844 0.057284 0
-0.090789 0.042042 0
-0.081245 0.030469 0
-0.073463 0.021983 0
-0.067565 0.015854 0
-0.063495 0.011332 0
-0.061056 0.007745 0
-0.059940 0.004558 0
-0.059811 0.001378 0
-0.060348 -0.002063 0
-0.061269 -0.006055 0
-0.062603 -0.010891 0
-0.064406 -0.016941 0
-0.066816 -0.024867 0
-0.069951 -0.035665 0
-0.073683 -0.050564 0
-0.077408 -0.070578 0
-0.080125 -0.095823 0
-0.081032 -0.125243 0
-0.080095 -0.157561 0
-0.077662 -0.192390 0
-0.074063 -0.230111 0
-0.069380 -0.271189 0
-0.062885 -0.314403 0
-0.051742 -0.348557 0
-0.030179 -0.318498 0
-0.000151 0.000019 0
0.000000 0.138057 0
0.000000 -0.000008 0
-0.030932 0.141260 0
-0.062640 0.182687 0
-0.089299 0.212628 0
-0.110027 0.232514 0
-0.124504 0.240502 0
-0.132851 0.236651 0
-0.135486 0.222364 0
-0.133099 0.199993 0
-0.126585 0.172435 0
-0.116984 0.142681 0
-0.105379 0.113424 0
-0.092783 0.086736 0
-0.080080 0.063936 0
-0.067971 0.045603 0
-0.056966 0.031711 0
-0.047435 0.021820 0
-0.039677 0.015235 0
-0.033986 0.011081 0
-0.030371 0.008421 0
-0.028650 0.006434 0
-0.028470 0.004489 0
-0.029446 0.002170 0
-0.031195 -0.000811 0
-0.033255 -0.004519 0
-0.035528 -0.009018 0
-0.038054 -0.014629 0
-0.040943 -0.021935 0
-0.044402 -0.032025 0
-0.048461 -0.046503 0
-0.052637 -0.066901 0
-0.055913 -0.093490 0
-0.057492 -0.124697 0
-0.057435 -0.158637 0
-0.056074 -0.194740 0
-0.053734 -0.233468 0
-0.050633 -0.275682 0
-0.046512 -0.321447 0
-0.039404 -0.362184 0
-0.023874 -0.341096 0
-0.000133 0.000019 0
0.000000 0.151487 0
0.000000 -0.000008 0
-0.024193 0.169550 0
-0.050324 0.209355 0
-0.072305 0.234192 0
-0.089169 0.248326 0
-0.100555 0.250434 0
-0.106530 0.240958 0
-0.107479 0.221597 0
-0.104045 0.194938 0
-0.097058 0.164035 0
-0.087452 0.131950 0
-0.076179 0.101350 0
-0.064118 0.074205 0
-0.052024 0.051678 0
-0.040476 0.034170 0
-0.029871 0.021506 0
-0.020521 0.013180 0
-0.012810 0.008533 0
-0.007380 0.006548 0
-0.004258 0.005996 0
-0.003114 0.005844 0
-0.003556 0.005354 0
-0.005214 0.004103 0
-0.007774 0.001747 0
-0.011004 -0.001722 0
-0.014490 -0.006093 0
-0.018024 -0.011526 0
-0.021657 -0.018518 0
-0.025542 -0.028147 0
-0.029689 -0.042329 0
-0.033690 -0.063126 0
-0.036678 -0.090968 0
-0.038173 -0.123721 0
-0.038453 -0.158979 0
-0.037792 -0.196092 0
-0.036452 -0.235552 0
-0.034676 -0.278410 0
-0.032478 -0.325633 0
-0.028643 -0.371195 0
-0.018303 -0.357902 0
-0.000114 0.000018 0
0.000000 0.161930 0
0.000000 -0.000008 0
-0.017435 0.191584 0
-0.037899 0.230799 0
-0.055206 0.251474 0
-0.068362 0.260765 0
-0.077005 0.257863 0
-0.081151 0.243574 0
-0.081108 0.219878 0
-0.077413 0.189572 0
-0.070764 0.155842 0
-0.061942 0.121802 0
-0.051738 0.090090 0
-0.040888 0.062582 0
-0.030016 0.040294 0
-0.019562 0.023449 0
-0.009686 0.011756 0
-0.000781 0.004759 0
0.005960 0.002094 0
0.010420 0.002529 0
0.012830 0.004155 0
0.013561 0.005731 0
0.012901 0.006590 0
0.011114 0.006388 0
0.008418 0.004978 0
0.004869 0.002197 0
0.000731 -0.001998 0
-0.003619 -0.007462 0
-0.008047 -0.014417 0
-0.012381 -0.023992 0
-0.016430 -0.038355 0
-0.019714 -0.059912 0
-0.021685 -0.089007 0
-0.022512 -0.122922 0
-0.022697 -0.159018 0
-0.022425 -0.196740 0
-0.021870 -0.236583 0
-0.021235 -0.279657 0
-0.020656 -0.327481 0
-0.019484 -0.376358 0
-0.013524 -0.369739 0
-0.000097 0.000017 0
0.000000 0.169788 0
0.000000 -0.000007 0
-0.010854 0.207449 0
-0.025804 0.247126 0
-0.038628 0.264655 0
-0.048331 0.270125 0
-0.054584 0.263223 0
-0.057360 0.245060 0
-0.056872 0.217859 0
-0.053524 0.184595 0
-0.047845 0.148564 0
-0.040437 0.112923 0
-0.031920 0.080296 0
-0.022883 0.052483 0
-0.013806 0.030353 0
-0.004844 0.013840 0
0.003671 0.002724 0
0.010509 -0.002467 0
0.015176 -0.002667 0
0.018273 -0.000322 0
0.020098 0.002855 0
0.020729 0.005773 0
0.020233 0.007800 0
0.018707 0.008587 0
0.016288 0.007992 0
0.013121 0.005965 0
0.009243 0.002395 0
0.004809 -0.002748 0
0.000200 -0.009756 0
-0.004169 -0.019764 0
-0.007634 -0.034996 0
-0.009528 -0.057871 0
-0.009925 -0.088169 0
-0.009775 -0.122709 0
-0.009607 -0.159066 0
-0.009510 -0.196918 0
-0.009569 -0.236742 0
-0.009928 -0.279624 0
-0.010758 -0.327384 0
-0.011773 -0.378327 0
-0.009485 -0.377386 0
-0.000081 0.000017 0
0.000000 0.175453 0
0.000000 -0.000007 0
-0.004588 0.217388 0
-0.014234 0.258573 0
-0.022846 0.274001 0
-0.029374 0.276721 0
-0.033546 0.266892 0
-0.035309 0.245862 0
-0.034786 0.216042 0
-0.032235 0.180545 0
-0.028008 0.142756 0
-0.022517 0.105877 0
-0.016210 0.072536 0
-0.009538 0.044468 0
-0.002675 0.022255 0
0.003981 0.005971 0
0.009650 -0.003597 0
0.013393 -0.006746 0
0.016019 -0.005670 0
0.017965 -0.002393 0
0.019336 0.001698 0
0.019995 0.005597 0
0.019829 0.008612 0
0.018794 0.010332 0
0.016921 0.010564 0
0.014306 0.009242 0
0.011066 0.006315 0
0.007293 0.001581 0
0.003349 -0.005440 0
-0.000112 -0.016159 0
-0.002029 -0.032996 0
-0.001758 -0.057621 0
-0.000327 -0.088761 0
0.000816 -0.123240 0
0.001410 -0.159282 0
0.001442 -0.196778 0
0.000879 -0.236165 0
-0.000353 -0.278468 0
-0.002444 -0.325636 0
-0.005279 -0.377631 0
-0.006078 -0.381513 0
-0.000069 0.000016 0
0.000000 0.179271 0
0.000000 -0.000006 0
0.001172 0.221684 0
-0.003258 0.265385 0
-0.007906 0.279794 0
-0.011505 0.280825 0
-0.013834 0.269158 0
-0.014828 0.246300 0
-0.014536 0.214785 0
-0.013081 0.177818 0
-0.010640 0.138846 0
-0.007433 0.101126 0
-0.003736 0.067317 0
0.000125 0.038948 0
0.003971 0.016834 0
0.007318 0.001515 0
0.009566 -0.006688 0
0.010979 -0.008836 0
0.011957 -0.007239 0
0.012753 -0.003638 0
0.013456 0.000825 0
0.013933 0.005280 0
0.013978 0.009001 0
0.013432 0.011495 0
0.012227 0.012479 0
0.010389 0.011820 0
0.008028 0.009409 0
0.005356 0.004969 0
0.002776 -0.002352 0
0.001397 -0.014385 0
0.002216 -0.033350 0
0.004978 -0.059573 0
0.007954 -0.090743 0
0.009977 -0.124446 0
0.010967 -0.159691 0
0.010945 -0.196387 0
0.009913 -0.234947 0
0.007834 -0.276301 0
0.004596 -0.322459 0
0.000265 -0.374692 0
-0.003169 -0.382665 0
-0.000060 0.000015 0
0.000000 0.181530 0
0.000000 -0.000006 0
0.006425 0.220645 0
0.007089 0.267651 0
0.006212 0.282249 0
0.005373 0.282648 0
0.004776 0.270214 0
0.004460 0.246564 0
0.004423 0.214295 0
0.004645 0.176650 0
0.005100 0.137108 0
0.005745 0.098973 0
0.006476 0.064977 0
0.007114 0.036761 0
0.007348 0.015063 0
0.007146 0.000376 0
0.006610 -0.007258 0
0.006100 -0.009137 0
0.005573 -0.007444 0
0.005185 -0.003892 0
0.005029 0.000519 0
0.005065 0.005075 0
0.005120 0.009112 0
0.004977 0.012083 0
0.004485 0.013608 0
0.003613 0.013442 0
0.002479 0.011347 0
0.001395 0.006833 0
0.001047 -0.001480 0
0.002843 -0.015598 0
0.006849 -0.036578 0
0.011664 -0.063360 0
0.015705 -0.093759 0
0.018390 -0.126252 0
0.019644 -0.160250 0
0.019498 -0.195724 0
0.017966 -0.233054 0
0.015035 -0.273151 0
0.010686 -0.318067 0
0.004983 -0.369867 0
-0.000615 -0.381248 0
-0.000054 0.000015 0
0.000000 0.182439 0
0.000000 -0.000005 0
0.011333 0.214595 0
0.016850 0.265597 0
0.019585 0.281510 0
0.021393 0.282262 0
0.022501 0.270072 0
0.022903 0.246652 0
0.022599 0.214600 0
0.021631 0.177141 0
0.020088 0.137746 0
0.018083 0.099749 0
0.015699 0.065947 0
0.012968 0.038076 0
0.009818 0.016802 0
0.006361 0.002253 0
0.003150 -0.005642 0
0.000800 -0.007799 0
-0.001103 -0.006324 0
-0.002573 -0.003094 0
-0.003577 0.000945 0
-0.004070 0.005189 0
-0.004144 0.009090 0
-0.003983 0.012130 0
-0.003744 0.013843 0
-0.003459 0.013825 0
-0.002969 0.011626 0
-0.001828 0.006401 0
0.001148 -0.003800 0
0.006416 -0.020188 0
0.012863 -0.042171 0
0.018922 -0.068429 0
0.023611 -0.097469 0
0.026626 -0.128385 0
0.027921 -0.160799 0
0.027511 -0.194710 0
0.025405 -0.230484 0
0.021608 -0.269021 0
0.016129 -0.312407 0
0.009055 -0.363392 0
0.001672 -0.377681 0
-0.000049 0.000014 0
0.000000 0.182143 0
0.000000 -0.000004 0
0.015914 0.203795 0
0.026093 0.259398 0
0.032321 0.277706 0
0.036677 0.279732 0
0.039490 0.268704 0
0.040714 0.246466 0
0.040328 0.215568 0
0.038402 0.179162 0
0.035110 0.140656 0
0.030707 0.103362 0
0.025485 0.070092 0
0.019732 0.042642 0
0.013650 0.021670 0
0.007456 0.007044 0
0.001606 -0.001698 0
-0.002906 -0.004884 0
-0.006077 -0.004070 0
-0.008401 -0.001418 0
-0.010017 0.002015 0
-0.010895 0.005642 0
-0.011067 0.009025 0
-0.010609 0.011682 0
-0.009585 0.013084 0
-0.007947 0.012667 0
-0.005427 0.009716 0
-0.001245 0.002716 0
0.005304 -0.009724 0
0.012986 -0.027314 0
0.020637 -0.049084 0
0.027180 -0.074108 0
0.032060 -0.101463 0
0.035077 -0.130562 0
0.036168 -0.161136 0
0.035314 -0.193208 0
0.032511 -0.227151 0
0.027772 -0.263875 0
0.021140 -0.305514 0
0.012734 -0.355409 0
0.003736 -0.372193 0
-0.000046 0.000014 0
0.000000 0.180766 0
0.000000 -0.000004 0
0.020107 0.188502 0
0.034761 0.249189 0
0.044412 0.270925 0
0.051260 0.275094 0
0.055812 0.266035 0
0.058027 0.245813 0
0.057856 0.216912 0
0.055372 0.182359 0
0.050808 0.145441 0
0.044537 0.109375 0
0.037048 0.076922 0
0.028881 0.049911 0
0.020494 0.029078 0
0.012246 0.014297 0
0.004464 0.004720 0
-0.002297 -0.000116 0
-0.007066 -0.000829 0
-0.010147 0.000845 0
-0.012116 0.003439 0
-0.013121 0.006240 0
-0.013181 0.008805 0
-0.012266 0.010647 0
-0.010309 0.011181 0
-0.007117 0.009668 0
-0.002025 0.004924 0
0.005211 -0.004331 0
0.013722 -0.018030 0
0.022311 -0.035522 0
0.030175 -0.056365 0
0.036637 -0.079851 0
0.041315 -0.105366 0
0.044019 -0.132493 0
0.044647 -0.161036 0
0.043148 -0.191054 0
0.039499 -0.222942 0
0.033720 -0.257650 0
0.025883 -0.297369 0
0.016144 -0.345988 0
0.005630 -0.364947 0
-0.000044 0.000013 0
0.000000 0.178406 0
0.000000 -0.000003 0
0.023763 0.169034 0
0.042662 0.235093 0
0.055702 0.261207 0
0.065042 0.268333 0
0.071417 0.261936 0
0.074847 0.244422 0
0.075266 0.218223 0
0.072740 0.186209 0
0.067534 0.151490 0
0.060107 0.117122 0
0.051096 0.085748 0
0.041241 0.059196 0
0.031218 0.038305 0
0.021574 0.023074 0
0.012697 0.012846 0
0.004730 0.006646 0
-0.001574 0.003779 0
-0.005837 0.003633 0
-0.008256 0.004990 0
-0.009219 0.006707 0
-0.008916 0.008170 0
-0.007306 0.008811 0
-0.004136 0.007936 0
0.000983 0.004383 0
0.008139 -0.002612 0
0.016661 -0.013031 0
0.025458 -0.026824 0
0.033932 -0.043767 0
0.041408 -0.063409 0
0.047384 -0.085248 0
0.051526 -0.108845 0
0.053621 -0.133894 0
0.053530 -0.160265 0
0.051170 -0.188060 0
0.046508 -0.217723 0
0.039573 -0.250259 0
0.030461 -0.287938 0
0.019375 -0.335157 0
0.007399 -0.356049 0
-0.000043 0.000012 0
0.000000 0.175135 0
0.000000 -0.000002 0
0.026653 0.145840 0
0.049460 0.217251 0
0.065859 0.248545 0
0.077761 0.259379 0
0.086102 0.256230 0
0.091014 0.241964 0
0.092444 0.219019 0
0.090447 0.190091 0
0.085297 0.158074 0
0.077504 0.125812 0
0.067792 0.095788 0
0.057019 0.069789 0
0.046018 0.048745 0
0.035488 0.032818 0
0.025947 0.021564 0
0.017666 0.014156 0
0.010793 0.009737 0
0.005674 0.007528 0
0.002637 0.006821 0
0.001547 0.006899 0
0.002238 0.006892 0
0.004662 0.005867 0
0.009084 0.002892 0
0.015463 -0.002606 0
0.023095 -0.010755 0
0.031382 -0.021650 0
0.039741 -0.035301 0
0.047552 -0.051472 0
0.054263 -0.069817 0
0.059437 -0.089969 0
0.062747 -0.111603 0
0.063955 -0.134497 0
0.062891 -0.158585 0
0.059454 -0.184032 0
0.053606 -0.211345 0
0.045389 -0.241603 0
0.034927 -0.277171 0
0.022468 -0.322925 0
0.009070 -0.345572 0
-0.000043 0.000012 0
0.000000 0.171006 0
0.000000 -0.000001 0
0.028454 0.119575 0
0.054640 0.195887 0
0.074344 0.232906 0
0.088955 0.248090 0
0.099487 0.248683 0
0.106196 0.238080 0
0.109072 0.218791 0
0.108175 0.193356 0
0.103776 0.164433 0
0.096400 0.134627 0
0.086801 0.106233 0
0.075887 0.080970 0
0.064569 0.059835 0
0.053650 0.043145 0
0.043751 0.030668 0
0.035271 0.021800 0
0.028405 0.015771 0
0.023305 0.011788 0
0.020081 0.009117 0
0.018883 0.007106 0
0.019762 0.005054 0
0.022703 0.001965 0
0.027574 -0.002865 0
0.033850 -0.009629 0
0.041025 -0.018530 0