# vtk DataFile Version 2.0
generated by CFD-lab course output (written by Tobias Neckel) 
ASCII

DATASET STRUCTURED_GRID
DIMENSIONS  42 42 1 
POINTS 1764 float

0.150000 0.150000 0
0.167857 0.150000 0
0.185714 0.150000 0
0.203571 0.150000 0
0.221429 0.150000 0
0.239286 0.150000 0
0.257143 0.150000 0
0.275000 0.150000 0
0.292857 0.150000 0
0.310714 0.150000 0
0.328571 0.150000 0
0.346429 0.150000 0
0.364286 0.150000 0
0.382143 0.150000 0
0.400000 0.150000 0
0.417857 0.150000 0
0.435714 0.150000 0
0.453571 0.150000 0
0.471429 0.150000 0
0.489286 0.150000 0
0.507143 0.150000 0
0.525000 0.150000 0
0.542857 0.150000 0
0.560714 0.150000 0
0.578571 0.150000 0
0.596429 0.150000 0
0.614286 0.150000 0
0.632143 0.150000 0
0.650000 0.150000 0
0.667857 0.150000 0
0.685714 0.150000 0
0.703571 0.150000 0
0.721429 0.150000 0
0.739286 0.150000 0
0.757143 0.150000 0
0.775000 0.150000 0
0.792857 0.150000 0
0.810714 0.150000 0
0.828571 0.150000 0
0.846429 0.150000 0
0.864286 0.150000 0
0.882143 0.150000 0
0.150000 0.167857 0
0.167857 0.167857 0
0.185714 0.167857 0
0.203571 0.167857 0
0.221429 0.167857 0
0.239286 0.167857 0
0.257143 0.167857 0
0.275000 0.167857 0
0.292857 0.167857 0
0.310714 0.167857 0
0.328571 0.167857 0
0.346429 0.167857 0
0.364286 0.167857 0
0.382143 0.167857 0
0.400000 0.167857 0
0.417857 0.167857 0
0.435714 0.167857 0
0.453571 0.167857 0
0.471429 0.167857 0
0.489286 0.167857 0
0.507143 0.167857 0
0.525000 0.167857 0
0.542857 0.167857 0
0.560714 0.167857 0
0.578571 0.167857 0
0.596429 0.167857 0
0.614286 0.167857 0
0.632143 0.167857 0
0.650000 0.167857 0
0.667857 0.167857 0
0.685714 0.167857 0
0.703571 0.167857 0
0.721429 0.167857 0
0.739286 0.167857 0
0.757143 0.167857 0
0.775000 0.167857 0
0.792857 0.167857 0
0.810714 0.167857 0
0.828571 0.167857 0
0.846429 0.167857 0
0.864286 0.167857 0
0.882143 0.167857 0
0.150000 0.185714 0
0.167857 0.185714 0
0.185714 0.185714 0
0.203571 0.185714 0
0.221429 0.185714 0
0.239286 0.185714 0
0.257143 0.185714 0
0.275000 0.185714 0
0.292857 0.185714 0
0.310714 0.185714 0
0.328571 0.185714 0
0.346429 0.185714 0
0.364286 0.185714 0
0.382143 0.185714 0
0.400000 0.185714 0
0.417857 0.185714 0
0.435714 0.185714 0
0.453571 0.185714 0
0.471429 0.185714 0
0.489286 0.185714 0
0.507143 0.185714 0
0.525000 0.185714 0
0.542857 0.185714 0
0.560714 0.185714 0
0.578571 0.185714 0
0.596429 0.185714 0
0.614286 0.185714 0
0.632143 0.185714 0
0.650000 0.185714 0
0.667857 0.185714 0
0.685714 0.185714 0
0.703571 0.185714 0
0.721429 0.185714 0
0.739286 0.185714 0
0.757143 0.185714 0
0.775000 0.185714 0
0.792857 0.185714 0
0.810714 0.185714 0
0.828571 0.185714 0
0.846429 0.185714 0
0.864286 0.185714 0
0.882143 0.185714 0
0.150000 0.203571 0
0.167857 0.203571 0
0.185714 0.203571 0
0.203571 0.203571 0
0.221429 0.203571 0
0.239286 0.203571 0
0.257143 0.203571 0
0.275000 0.203571 0
0.292857 0.203571 0
0.310714 0.203571 0
0.328571 0.203571 0
0.346429 0.203571 0
0.364286 0.203571 0
0.382143 0.203571 0
0.400000 0.203571 0
0.417857 0.203571 0
0.435714 0.203571 0
0.453571 0.203571 0
0.471429 0.203571 0
0.489286 0.203571 0
0.507143 0.203571 0
0.525000 0.203571 0
0.542857 0.203571 0
0.560714 0.203571 0
0.578571 0.203571 0
0.596429 0.203571 0
0.614286 0.203571 0
0.632143 0.203571 0
0.650000 0.203571 0
0.667857 0.203571 0
0.685714 0.203571 0
0.703571 0.203571 0
0.721429 0.203571 0
0.739286 0.203571 0
0.757143 0.203571 0
0.775000 0.203571 0
0.792857 0.203571 0
0.810714 0.203571 0
0.828571 0.203571 0
0.846429 0.203571 0
0.864286 0.203571 0
0.882143 0.203571 0
0.150000 0.221429 0
0.167857 0.221429 0
0.185714 0.221429 0
0.203571 0.221429 0
0.221429 0.221429 0
0.239286 0.221429 0
0.257143 0.221429 0
0.275000 0.221429 0
0.292857 0.221429 0
0.310714 0.221429 0
0.328571 0.221429 0
0.346429 0.221429 0
0.364286 0.221429 0
0.382143 0.221429 0
0.400000 0.221429 0
0.417857 0.221429 0
0.435714 0.221429 0
0.453571 0.221429 0
0.471429 0.221429 0
0.489286 0.221429 0
0.507143 0.221429 0
0.525000 0.221429 0
0.542857 0.221429 0
0.560714 0.221429 0
0.578571 0.221429 0
0.596429 0.221429 0
0.614286 0.221429 0
0.632143 0.221429 0
0.650000 0.221429 0
0.667857 0.221429 0
0.685714 0.221429 0
0.703571 0.221429 0
0.721429 0.221429 0
0.739286 0.221429 0
0.757143 0.221429 0
0.775000 0.221429 0
0.792857 0.221429 0
0.810714 0.221429 0
0.828571 0.221429 0
0.846429 0.221429 0
0.864286 0.221429 0
0.882143 0.221429 0
0.150000 0.239286 0
0.167857 0.239286 0
0.185714 0.239286 0
0.203571 0.239286 0
0.221429 0.239286 0
0.239286 0.239286 0
0.257143 0.239286 0
0.275000 0.239286 0
0.292857 0.239286 0
0.310714 0.239286 0
0.328571 0.239286 0
0.346429 0.239286 0
0.364286 0.239286 0
0.382143 0.239286 0
0.400000 0.239286 0
0.417857 0.239286 0
0.435714 0.239286 0
0.453571 0.239286 0
0.471429 0.239286 0
0.489286 0.239286 0
0.507143 0.239286 0
0.525000 0.239286 0
0.542857 0.239286 0
0.560714 0.239286 0
0.578571 0.239286 0
0.596429 0.239286 0
0.614286 0.239286 0
0.632143 0.239286 0
0.650000 0.239286 0
0.667857 0.239286 0
0.685714 0.239286 0
0.703571 0.239286 0
0.721429 0.239286 0
0.739286 0.239286 0
0.757143 0.239286 0
0.775000 0.239286 0
0.792857 0.239286 0
0.810714 0.239286 0
0.828571 0.239286 0
0.846429 0.239286 0
0.864286 0.239286 0
0.882143 0.239286 0
0.150000 0.257143 0
0.167857 0.257143 0
0.185714 0.257143 0
0.203571 0.257143 0
0.221429 0.257143 0
0.239286 0.257143 0
0.257143 0.257143 0
0.275000 0.257143 0
0.292857 0.257143 0
0.310714 0.257143 0
0.328571 0.257143 0
0.346429 0.257143 0
0.364286 0.257143 0
0.382143 0.257143 0
0.400000 0.257143 0
0.417857 0.257143 0
0.435714 0.257143 0
0.453571 0.257143 0
0.471429 0.257143 0
0.489286 0.257143 0
0.507143 0.257143 0
0.525000 0.257143 0
0.542857 0.257143 0
0.560714 0.257143 0
0.578571 0.257143 0
0.596429 0.257143 0
0.614286 0.257143 0
0.632143 0.257143 0
0.650000 0.257143 0
0.667857 0.257143 0
0.685714 0.257143 0
0.703571 0.257143 0
0.721429 0.257143 0
0.739286 0.257143 0
0.757143 0.257143 0
0.775000 0.257143 0
0.792857 0.257143 0
0.810714 0.257143 0
0.828571 0.257143 0
0.846429 0.257143 0
0.864286 0.257143 0
0.882143 0.257143 0
0.150000 0.275000 0
0.167857 0.275000 0
0.185714 0.275000 0
0.203571 0.275000 0
0.221429 0.275000 0
0.239286 0.275000 0
0.257143 0.275000 0
0.275000 0.275000 0
0.292857 0.275000 0
0.310714 0.275000 0
0.328571 0.275000 0
0.346429 0.275000 0
0.364286 0.275000 0
0.382143 0.275000 0
0.400000 0.275000 0
0.417857 0.275000 0
0.435714 0.275000 0
0.453571 0.275000 0
0.471429 0.275000 0
0.489286 0.275000 0
0.507143 0.275000 0
0.525000 0.275000 0
0.542857 0.275000 0
0.560714 0.275000 0
0.578571 0.275000 0
0.596429 0.275000 0
0.614286 0.275000 0
0.632143 0.275000 0
0.650000 0.275000 0
0.667857 0.275000 0
0.685714 0.275000 0
0.703571 0.275000 0
0.721429 0.275000 0
0.739286 0.275000 0
0.757143 0.275000 0
0.775000 0.275000 0
0.792857 0.275000 0
0.810714 0.275000 0
0.828571 0.275000 0
0.846429 0.275000 0
0.864286 0.275000 0
0.882143 0.275000 0
0.150000 0.292857 0
0.167857 0.292857 0
0.185714 0.292857 0
0.203571 0.292857 0
0.221429 0.292857 0
0.239286 0.292857 0
0.257143 0.292857 0
0.275000 0.292857 0
0.292857 0.292857 0
0.310714 0.292857 0
0.328571 0.292857 0
0.346429 0.292857 0
0.364286 0.292857 0
0.382143 0.292857 0
0.400000 0.292857 0
0.417857 0.292857 0
0.435714 0.292857 0
0.453571 0.292857 0
0.471429 0.292857 0
0.489286 0.292857 0
0.507143 0.292857 0
0.525000 0.292857 0
0.542857 0.292857 0
0.560714 0.292857 0
0.578571 0.292857 0
0.596429 0.292857 0
0.614286 0.292857 0
0.632143 0.292857 0
0.650000 0.292857 0
0.667857 0.292857 0
0.685714 0.292857 0
0.703571 0.292857 0
0.721429 0.292857 0
0.739286 0.292857 0
0.757143 0.292857 0
0.775000 0.292857 0
0.792857 0.292857 0
0.810714 0.292857 0
0.828571 0.292857 0
0.846429 0.292857 0
0.864286 0.292857 0
0.882143 0.292857 0
0.150000 0.310714 0
0.167857 0.310714 0
0.185714 0.310714 0
0.203571 0.310714 0
0.221429 0.310714 0
0.239286 0.310714 0
0.257143 0.310714 0
0.275000 0.310714 0
0.292857 0.310714 0
0.310714 0.310714 0
0.328571 0.310714 0
0.346429 0.310714 0
0.364286 0.310714 0
0.382143 0.310714 0
0.400000 0.310714 0
0.417857 0.310714 0
0.435714 0.310714 0
0.453571 0.310714 0
0.471429 0.310714 0
0.489286 0.310714 0
0.507143 0.310714 0
0.525000 0.310714 0
0.542857 0.310714 0
0.560714 0.310714 0
0.578571 0.310714 0
0.596429 0.310714 0
0.614286 0.310714 0
0.632143 0.310714 0
0.650000 0.310714 0
0.667857 0.310714 0
0.685714 0.310714 0
0.703571 0.310714 0
0.721429 0.310714 0
0.739286 0.310714 0
0.757143 0.310714 0
0.775000 0.310714 0
0.792857 0.310714 0
0.810714 0.310714 0
0.828571 0.310714 0
0.846429 0.310714 0
0.864286 0.310714 0
0.882143 0.310714 0
0.150000 0.328571 0
0.167857 0.328571 0
0.185714 0.328571 0
0.203571 0.328571 0
0.221429 0.328571 0
0.239286 0.328571 0
0.257143 0.328571 0
0.275000 0.328571 0
0.292857 0.328571 0
0.310714 0.328571 0
0.328571 0.328571 0
0.346429 0.328571 0
0.364286 0.328571 0
0.382143 0.328571 0
0.400000 0.328571 0
0.417857 0.328571 0
0.435714 0.328571 0
0.453571 0.328571 0
0.471429 0.328571 0
0.489286 0.328571 0
0.507143 0.328571 0
0.525000 0.328571 0
0.542857 0.328571 0
0.560714 0.328571 0
0.578571 0.328571 0
0.596429 0.328571 0
0.614286 0.328571 0
0.632143 0.328571 0
0.650000 0.328571 0
0.667857 0.328571 0
0.685714 0.328571 0
0.703571 0.328571 0
0.721429 0.328571 0
0.739286 0.328571 0
0.757143 0.328571 0
0.775000 0.328571 0
0.792857 0.328571 0
0.810714 0.328571 0
0.828571 0.328571 0
0.846429 0.328571 0
0.864286 0.328571 0
0.882143 0.328571 0
0.150000 0.346429 0
0.167857 0.346429 0
0.185714 0.346429 0
0.203571 0.346429 0
0.221429 0.346429 0
0.239286 0.346429 0
0.257143 0.346429 0
0.275000 0.346429 0
0.292857 0.346429 0
0.310714 0.346429 0
0.328571 0.346429 0
0.346429 0.346429 0
0.364286 0.346429 0
0.382143 0.346429 0
0.400000 0.346429 0
0.417857 0.346429 0
0.435714 0.346429 0
0.453571 0.346429 0
0.471429 0.346429 0
0.489286 0.346429 0
0.507143 0.346429 0
0.525000 0.346429 0
0.542857 0.346429 0
0.560714 0.346429 0
0.578571 0.346429 0
0.596429 0.346429 0
0.614286 0.346429 0
0.632143 0.346429 0
0.650000 0.346429 0
[...]
POINT_DATA 1764 

VECTORS velocity float
0.000000 0.000000 0
-0.000002 0.000000 0
-0.000003 0.000000 0
-0.000003 0.000000 0
-0.000003 0.000000 0
-0.000002 0.000000 0
-0.000002 0.000000 0
-0.000001 0.000000 0
-0.000001 0.000000 0
-0.000003 0.000000 0
-0.000001 0.000000 0
0.000002 0.000000 0
0.000004 0.000000 0
0.000005 0.000000 0
0.000006 0.000000 0
0.000007 0.000000 0
0.000008 0.000000 0
0.000008 0.000000 0
0.000008 0.000000 0
0.000008 0.000000 0
0.000009 0.000000 0
0.000009 0.000000 0
0.000009 0.000000 0
0.000009 0.000000 0
0.000009 0.000000 0
0.000009 0.000000 0
0.000009 0.000000 0
0.000009 0.000000 0
0.000009 0.000000 0
0.000009 0.000000 0
0.000009 0.000000 0
0.000009 0.000000 0
0.000009 0.000000 0
0.000009 0.000000 0
0.000008 0.000000 0
0.000007 0.000000 0
0.000005 0.000000 0
0.000003 0.000000 0
-0.000000 0.000000 0
-0.000001 0.000000 0
-0.000000 0.000000 0
0.000000 0.000000 0
0.000000 0.000002 0
0.022933 -0.021472 0
0.045049 -0.015893 0
0.055398 -0.004100 0
0.055125 0.004735 0
0.047802 0.008439 0
0.039052 0.007132 0
0.035017 0.004747 0
0.026889 -0.002536 0
0.009690 -0.008410 0
-0.012151 0.004973 0
-0.039725 0.023794 0
-0.071924 0.031653 0
-0.105198 0.033330 0
-0.137413 0.032641 0
-0.167267 0.030629 0
-0.194016 0.027814 0
-0.217329 0.024626 0
-0.237152 0.021351 0
-0.253609 0.018164 0
-0.266908 0.015150 0
-0.277281 0.012329 0
-0.284935 0.009679 0
-0.290022 0.007131 0
-0.292608 0.004586 0
-0.292657 0.001928 0
-0.290054 -0.000973 0
-0.284636 -0.004234 0
-0.276133 -0.007893 0
-0.264180 -0.011971 0
-0.248341 -0.016543 0
-0.228126 -0.021653 0
-0.203040 -0.027250 0
-0.172694 -0.033124 0
-0.137006 -0.038763 0
-0.096584 -0.043119 0
-0.053433 -0.043996 0
-0.012283 -0.033920 0
0.017161 -0.006181 0
0.016055 0.016886 0
-0.000003 -0.000001 0
0.000000 -0.010744 0
0.000000 0.000003 0
0.023318 -0.045049 0
0.042165 -0.032465 0
0.050272 -0.010076 0
0.049417 0.007596 0
0.041824 0.016073 0
0.028583 0.012785 0
0.008357 0.012163 0
-0.019192 0.025327 0
-0.060885 0.039041 0
-0.106280 0.049415 0
-0.142335 0.059772 0
-0.173873 0.065473 0
-0.202874 0.065489 0
-0.228955 0.062069 0
-0.251646 0.056603 0
-0.270824 0.050062 0
-0.286568 0.043136 0
-0.299086 0.036281 0
-0.308652 0.029756 0
-0.315548 0.023672 0
-0.320030 0.018026 0
-0.322302 0.012741 0
-0.322494 0.007673 0
-0.320673 0.002635 0
-0.316822 -0.002554 0
-0.310947 -0.008021 0
-0.302918 -0.013921 0
-0.292550 -0.020456 0
-0.279522 -0.027792 0
-0.263447 -0.036054 0
-0.243917 -0.045302 0
-0.220520 -0.055432 0
-0.192930 -0.066034 0
-0.161050 -0.076110 0
-0.125304 -0.083573 0
-0.087152 -0.084301 0
-0.049712 -0.070594 0
-0.015185 -0.028337 0
0.009158 0.017161 0
0.000004 -0.000002 0
0.000000 -0.016056 0
0.000000 0.000004 0
0.017207 -0.063637 0
0.027288 -0.042847 0
0.028685 -0.011352 0
0.018627 0.013182 0
0.002878 0.029273 0
-0.021266 0.040599 0
-0.058475 0.052522 0
-0.098622 0.066706 0
-0.135250 0.078677 0
-0.170171 0.086423 0
-0.200281 0.091386 0
-0.224724 0.092191 0
-0.244946 0.088413 0
-0.261526 0.081413 0
-0.274820 0.072498 0
-0.285192 0.062736 0
-0.293007 0.052888 0
-0.298620 0.043435 0
-0.302344 0.034625 0
-0.304440 0.026528 0
-0.305106 0.019082 0
-0.304478 0.012143 0
-0.302628 0.005503 0
-0.299581 -0.001086 0
-0.295347 -0.007799 0
-0.289858 -0.014877 0
-0.282914 -0.022630 0
-0.274282 -0.031289 0
-0.263691 -0.041074 0
-0.250829 -0.052149 0
-0.235370 -0.064581 0
-0.216986 -0.078237 0
-0.195378 -0.092594 0
-0.170328 -0.106389 0
-0.141805 -0.117016 0
-0.110120 -0.119588 0
-0.076020 -0.105887 0
-0.040410 -0.065051 0
-0.002152 0.001701 0
0.000011 -0.000001 0
0.000000 -0.019901 0
0.000000 0.000003 0
0.005752 -0.072337 0
0.001304 -0.043944 0
-0.010063 -0.001415 0
-0.028171 0.033404 0
-0.051993 0.055966 0
-0.081681 0.074137 0
-0.115274 0.089519 0
-0.148509 0.102102 0
-0.177982 0.110590 0
-0.203900 0.114446 0
-0.225183 0.114325 0
-0.241334 0.110138 0
-0.253288 0.102291 0
-0.261885 0.091943 0
-0.267840 0.080269 0
-0.271736 0.068249 0
-0.274044 0.056565 0
-0.275127 0.045618 0
-0.275254 0.035576 0
-0.274614 0.026434 0
-0.273325 0.018065 0
-0.271451 0.010263 0
-0.269005 0.002776 0
-0.265952 -0.004646 0
-0.262331 -0.012278 0
-0.257912 -0.020455 0
-0.252542 -0.029496 0
-0.246006 -0.039679 0
-0.238079 -0.051245 0
-0.228527 -0.064375 0
-0.217114 -0.079144 0
-0.203603 -0.095423 0
-0.187735 -0.112692 0
-0.169192 -0.129684 0
-0.147547 -0.143782 0
-0.122208 -0.150085 0
-0.092426 -0.140304 0
-0.057699 -0.102205 0
-0.020292 -0.023249 0
-0.000002 0.000003 0
0.000000 -0.013899 0
0.000000 0.000002 0
-0.008993 -0.064941 0
-0.027794 -0.027032 0
-0.050845 0.018123 0
-0.071612 0.055112 0
-0.096095 0.082784 0
-0.123133 0.103880 0
-0.150463 0.119349 0
-0.175838 0.129415 0
-0.197490 0.134068 0
-0.215099 0.133624 0
-0.228289 0.128821 0
-0.237150 0.120296 0
-0.242484 0.108964 0
-0.245148 0.095965 0
-0.245909 0.082349 0
-0.245376 0.068940 0
-0.244002 0.056279 0
-0.242108 0.044645 0
-0.239913 0.034112 0
-0.237553 0.024598 0
-0.235107 0.015920 0
-0.232603 0.007823 0
-0.230035 0.000003 0
-0.227371 -0.007760 0
-0.224502 -0.015838 0
-0.221252 -0.024666 0
-0.217447 -0.034537 0
-0.212888 -0.045752 0
-0.207372 -0.058553 0
-0.200714 -0.073114 0
-0.192751 -0.089504 0
-0.183335 -0.107616 0
-0.172280 -0.127005 0
-0.159268 -0.146576 0
-0.143687 -0.164000 0
-0.124461 -0.174709 0
-0.100014 -0.170397 0
-0.068875 -0.137185 0
-0.032067 -0.055998 0
-0.000028 0.000006 0
0.000000 0.000398 0
0.000000 0.000000 0
-0.021868 -0.044542 0
-0.049587 -0.002091 0
-0.075404 0.042402 0
-0.099004 0.078653 0
-0.122646 0.107488 0
-0.145825 0.128505 0
-0.167241 0.142223 0
-0.185705 0.149129 0
-0.200352 0.149850 0
-0.210994 0.145245 0
-0.217680 0.136376 0
-0.220836 0.124333 0
-0.221227 0.110289 0
-0.219643 0.095369 0
-0.216783 0.080498 0
-0.213195 0.066341 0
-0.209287 0.053297 0
-0.205348 0.041528 0
-0.201572 0.031021 0
-0.198083 0.021628 0
-0.194944 0.013115 0
-0.192174 0.005191 0
-0.189755 -0.002457 0
-0.187672 -0.010179 0
-0.185683 -0.018396 0
-0.183659 -0.027509 0
-0.181397 -0.037861 0
-0.178682 -0.049754 0
-0.175295 -0.063419 0
-0.171054 -0.078996 0
-0.165835 -0.096523 0
-0.159558 -0.115894 0
-0.152130 -0.136759 0
-0.143318 -0.158277 0
-0.132528 -0.178589 0
-0.118514 -0.193759 0
-0.099188 -0.195889 0
-0.072017 -0.170153 0
-0.036157 -0.092124 0
-0.000051 0.000008 0
0.000000 0.018172 0
0.000000 -0.000001 0
-0.029432 -0.015354 0
-0.060962 0.026504 0
-0.087528 0.067540 0
-0.111896 0.102354 0
-0.133945 0.129605 0
-0.153496 0.148475 0
-0.169962 0.159229 0
-0.182839 0.162525 0
-0.191851 0.159358 0
-0.197093 0.150952 0
-0.198902 0.138662 0
-0.197861 0.123843 0
-0.194690 0.107771 0
-0.190087 0.091521 0
-0.184657 0.075901 0
-0.178885 0.061445 0
-0.173147 0.048431 0
-0.167728 0.036930 0
-0.162833 0.026847 0
-0.158595 0.017970 0
-0.155083 0.010011 0
-0.152309 0.002634 0
-0.150225 -0.004498 0
-0.148813 -0.011832 0
-0.147833 -0.019851 0
-0.147115 -0.028951 0
-0.146432 -0.039514 0
-0.145516 -0.051854 0
-0.144091 -0.066180 0
-0.141927 -0.082574 0
-0.138895 -0.101001 0
-0.134959 -0.121320 0
-0.130105 -0.143244 0
-0.124226 -0.166179 0
-0.116887 -0.188805 0
-0.106943 -0.208049 0
-0.092152 -0.216893 0
-0.069274 -0.200216 0
-0.036078 -0.128015 0
-0.000066 0.000010 0
0.000000 0.036559 0
0.000000 -0.000003 0
-0.031898 0.016420 0
-0.063052 0.056005 0
-0.090157 0.093336 0
-0.113838 0.125070 0
-0.133879 0.149088 0
-0.150229 0.164522 0
-0.162725 0.171566 0
-0.171303 0.171018 0
-0.176072 0.164105 0
-0.177368 0.152297 0
-0.175693 0.137143 0
-0.171675 0.120121 0
-0.165970 0.102515 0
-0.159179 0.085336 0
-0.151828 0.069295 0
-0.144365 0.054831 0
-0.137172 0.042139 0
-0.130569 0.031215 0
-0.124804 0.021889 0
-0.120040 0.013879 0
-0.116358 0.006828 0
-0.113779 0.000333 0
-0.112285 -0.005953 0
-0.111697 -0.012571 0
-0.111829 -0.020093 0
-0.112496 -0.028910 0
-0.113449 -0.039460 0
-0.114354 -0.052095 0
-0.114824 -0.067009 0
-0.114540 -0.084192 0
-0.113340 -0.103491 0
-0.111206 -0.124685 0
-0.108185 -0.147491 0
-0.104288 -0.171494 0
-0.099287 -0.195872 0
-0.092324 -0.218494 0
-0.081357 -0.233558 0
-0.062912 -0.226227 0
-0.033794 -0.161398 0
-0.000076 0.000010 0
0.000000 0.054253 0
0.000000 -0.000004 0
-0.030335 0.047698 0
-0.060139 0.084763 0
-0.086218 0.118326 0
-0.108263 0.146076 0
-0.126055 0.165995 0
-0.139603 0.177321 0
-0.148970 0.180303 0
-0.154350 0.175873 0
-0.156077 0.165423 0
-0.154626 0.150572 0
-0.150562 0.132969 0
-0.144487 0.114120 0
-0.136971 0.095274 0
-0.128532 0.077379 0
-0.119642 0.061087 0
-0.110751 0.046789 0
-0.102298 0.034636 0
-0.094691 0.024562 0
-0.088266 0.016318 0
-0.083227 0.009524 0
-0.079643 0.003749 0
-0.077495 -0.001440 0
-0.076782 -0.006580 0
-0.077123 -0.012287 0
-0.078395 -0.019051 0
-0.080434 -0.027331 0
-0.083013 -0.037656 0
-0.085722 -0.050479 0
-0.088026 -0.065994 0
-0.089463 -0.084058 0
-0.089836 -0.104334 0
-0.089151 -0.126476 0
-0.087503 -0.150163 0
-0.084988 -0.175076 0
-0.081566 -0.200768 0
-0.076719 -0.225978 0
-0.068839 -0.246305 0
-0.054603 -0.247779 0
-0.030159 -0.190927 0
-0.000080 0.000011 0
0.000000 0.070354 0
0.000000 -0.000004 0
-0.026693 0.076559 0
-0.054231 0.111887 0
-0.078141 0.141460 0
-0.097931 0.164908 0
-0.113361 0.180428 0
-0.124452 0.187436 0
-0.131374 0.186314 0
-0.134441 0.178125 0
-0.134086 0.164381 0
-0.130828 0.146782 0
-0.125214 0.127004 0
-0.117770 0.106529 0
-0.108975 0.086560 0
-0.099267 0.068007 0
-0.089091 0.051515 0
-0.078934 0.037486 0
-0.069341 0.026079 0
-0.060890 0.017183 0
-0.054076 0.010425 0
-0.049145 0.005256 0
-0.046072 0.001097 0
-0.044757 -0.002528 0
-0.044942 -0.006326 0
-0.046271 -0.010959 0
-0.048596 -0.016782 0
-0.051833 -0.024292 0
-0.055852 -0.034172 0
-0.060199 -0.047083 0
-0.064151 -0.063268 0
-0.067068 -0.082382 0
-0.068725 -0.103803 0
-0.069186 -0.127018 0
-0.068598 -0.151654 0
-0.067118 -0.177431 0
-0.064829 -0.204142 0
-0.061514 -0.231221 0
-0.056073 -0.255674 0
-0.045613 -0.264907 0
-0.025930 -0.216001 0
-0.000079 0.000011 0
0.000000 0.084412 0
0.000000 -0.000005 0
-0.022458 0.101929 0
-0.046678 0.136211 0
-0.067698 0.162027 0
-0.084873 0.181296 0
-0.097928 0.192517 0
-0.106872 0.195333 0
-0.111897 0.190291 0
-0.113347 0.178586 0
-0.111665 0.161811 0
-0.107336 0.141700 0
-0.100834 0.119911 0
-0.092587 0.097880 0
-0.082967 0.076771 0
-0.072339 0.057496 0
-0.061119 0.040754 0
-0.049837 0.027039 0
-0.039182 0.016591 0
-0.030050 0.009297 0
-0.023147 0.004574 0
-0.018814 0.001521 0
-0.016839 -0.000639 0
-0.016821 -0.002570 0
-0.018145 -0.005067 0
-0.020532 -0.008633 0
-0.023784 -0.013489 0
-0.027913 -0.020076 0
-0.032979 -0.029291 0
-0.038547 -0.042180 0
-0.043730 -0.059125 0
-0.047692 -0.079485 0
-0.050231 -0.102216 0
-0.051493 -0.126603 0
-0.051687 -0.152231 0
-0.051009 -0.178845 0
-0.049612 -0.206372 0
-0.047479 -0.234735 0
-0.043974 -0.262206 0
-0.036778 -0.277921 0
-0.021615 -0.236540 0
-0.000074 0.000011 0
0.000000 0.096285 0
0.000000 -0.000005 0
-0.017891 0.123237 0
-0.038296 0.157128 0
-0.056072 0.179654 0
-0.070482 0.195138 0
-0.081236 0.202427 0
-0.088314 0.201404 0
-0.091890 0.192789 0
-0.092278 0.177893 0
-0.089868 0.158369 0
-0.085071 0.135952 0
-0.078257 0.112255 0
-0.069740 0.088662 0
-0.059787 0.066313 0
-0.048669 0.046159 0
-0.036733 0.029012 0
-0.024489 0.015550 0
-0.012638 0.006292 0
-0.003653 0.001148 0
0.002139 -0.000811 0
0.005091 -0.001052 0
0.005697 -0.000896 0
0.004589 -0.001222 0
0.002264 -0.002615 0
-0.001022 -0.005320 0
-0.005045 -0.009401 0
-0.009832 -0.015097 0
-0.015459 -0.023538 0
-0.021580 -0.036331 0
-0.027264 -0.054123 0
-0.031596 -0.075880 0
-0.034473 -0.100002 0
-0.036127 -0.125562 0
-0.036811 -0.152138 0
-0.036736 -0.179507 0
-0.036080 -0.207672 0
-0.034936 -0.236858 0
-0.033008 -0.266375 0
-0.028579 -0.287266 0
-0.017520 -0.252779 0
-0.000067 0.000011 0
0.000000 0.106027 0
0.000000 -0.000005 0
-0.013175 0.140224 0
-0.029584 0.174393 0
-0.044009 0.194213 0
-0.055654 0.206459 0
-0.064237 0.210349 0
-0.069711 0.205988 0
-0.072209 0.194255 0
-0.071982 0.176564 0
-0.069343 0.154604 0
-0.064601 0.130089 0
-0.058020 0.104581 0
-0.049800 0.079410 0
-0.040097 0.055700 0
-0.029053 0.034442 0
-0.016843 0.016575 0
-0.003818 0.002945 0
0.006226 -0.004245 0
0.012919 -0.005480 0
0.016830 -0.004171 0
0.018613 -0.002037 0
0.018611 -0.000136 0
0.017183 0.000863 0
0.014580 0.000543 0
0.011005 -0.001325 0
0.006610 -0.004679 0
0.001611 -0.009662 0
-0.003904 -0.017542 0
-0.009796 -0.030374 0
-0.014978 -0.049109 0
-0.018813 -0.072276 0
-0.021398 -0.097685 0
-0.023010 -0.124265 0
-0.023887 -0.151622 0
-0.024226 -0.179576 0
-0.024193 -0.208173 0
-0.023921 -0.237807 0
-0.023327 -0.268563 0
-0.021228 -0.293410 0
-0.013799 -0.265118 0
-0.000059 0.000010 0
0.000000 0.113804 0
0.000000 -0.000005 0
-0.008443 0.152821 0
-0.020842 0.187962 0
-0.031952 0.205725 0
-0.040922 0.215366 0
-0.047492 0.216484 0
-0.051598 0.209376 0
-0.053322 0.195060 0
-0.052847 0.175027 0
-0.050396 0.150988 0
-0.046179 0.124629 0
-0.040360 0.097454 0
-0.033036 0.070739 0
-0.024252 0.045565 0
-0.013999 0.022905 0
-0.002083 0.003777 0
0.007662 -0.007519 0
0.013429 -0.010445 0
0.017292 -0.009455 0
0.019897 -0.006505 0
0.021325 -0.002833 0
0.021480 0.000534 0
0.020350 0.002808 0
0.018116 0.003563 0
0.014944 0.002650 0
0.010969 -0.000007 0
0.006445 -0.004583 0
0.001694 -0.012131 0
-0.002923 -0.025258 0
-0.006514 -0.045106 0
-0.009002 -0.069460 0
-0.010728 -0.095804 0
-0.011915 -0.123073 0
-0.012725 -0.150922 0
-0.013306 -0.179201 0
-0.013796 -0.207977 0
-0.014316 -0.237725 0
-0.014889 -0.269068 0
-0.014762 -0.296794 0
-0.010500 -0.274007 0
-0.000052 0.000010 0
0.000000 0.119825 0
0.000000 -0.000005 0
-0.003793 0.161066 0
-0.012239 0.197901 0
-0.020142 0.214293 0
-0.026564 0.222000 0
-0.031278 0.221025 0
-0.034211 0.211818 0
-0.035403 0.195504 0
-0.034967 0.173637 0
-0.033045 0.147936 0
-0.029764 0.120053 0
-0.025204 0.091437 0
-0.019382 0.063302 0
-0.012247 0.036663 0
-0.003562 0.012273 0
0.004764 -0.005086 0
0.009033 -0.012568 0
0.011848 -0.013876 0
0.013951 -0.011948 0
0.015580 -0.008204 0
0.016698 -0.003621 0
0.017077 0.000838 0
0.016475 0.004227 0
0.014938 0.005950 0
0.012598 0.005823 0
0.009618 0.003821 0
0.006165 -0.000388 0
0.002744 -0.008175 0
0.000331 -0.022165 0
-0.000818 -0.043030 0
-0.001441 -0.068063 0
-0.001967 -0.094772 0
-0.002480 -0.122268 0
-0.003042 -0.150230 0
-0.003743 -0.178505 0
-0.004676 -0.207164 0
-0.005927 -0.236714 0
-0.007552 -0.268117 0
-0.009115 -0.297799 0
-0.007609 -0.279881 0
-0.000045 0.000010 0
0.000000 0.124304 0
0.000000 -0.000005 0
0.000561 0.165060 0
-0.003868 0.204311 0
-0.008678 0.220050 0
-0.012687 0.226502 0
-0.015684 0.224131 0
-0.017588 0.213501 0
-0.018411 0.195815 0
-0.018214 0.172669 0
-0.017074 0.145785 0
-0.015056 0.116787 0
-0.012192 0.087073 0
-0.008413 0.057782 0
-0.003654 0.029745 0
0.001679 0.005894 0
0.004377 -0.008817 0
0.005544 -0.014603 0
0.006265 -0.015363 0
0.006884 -0.013188 0
0.007565 -0.009252 0
0.008278 -0.004330 0
0.008804 0.000757 0
0.008787 0.004947 0
0.008130 0.007440 0
0.006855 0.007970 0
0.005091 0.006426 0
0.003155 0.002291 0
0.001771 -0.006297 0
0.002127 -0.021696 0
0.003554 -0.043334 0
0.004778 -0.068311 0
0.005499 -0.094765 0
0.005742 -0.121998 0
0.005502 -0.149659 0
0.004739 -0.177566 0
0.003406 -0.205793 0
0.001470 -0.234849 0
-0.001121 -0.265881 0
-0.004160 -0.296736 0
-0.005072 -0.283122 0
-0.000040 0.000009 0
0.000000 0.127433 0
0.000000 -0.000004 0
0.004567 0.164934 0
0.004169 0.207140 0
0.002364 0.223112 0
0.000668 0.229006 0
-0.000685 0.225926 0
-0.001625 0.214545 0
-0.002151 0.196131 0
-0.002286 0.172300 0
-0.002061 0.144777 0
-0.001500 0.115171 0
-0.000610 0.084795 0
0.000643 0.054765 0
0.002121 0.026571 0
0.002607 0.004242 0
0.001499 -0.008951 0
0.000392 -0.014456 0
-0.000619 -0.015216 0
-0.001310 -0.013248 0
-0.001555 -0.009598 0
-0.001344 -0.004860 0
-0.000803 0.000330 0
-0.000223 0.004901 0
0.000072 0.007882 0
0.000010 0.008861 0
-0.000277 0.007521 0
-0.000326 0.002933 0
0.001062 -0.007147 0
0.004327 -0.023949 0
0.007824 -0.045681 0
0.010539 -0.070007 0
0.012340 -0.095736 0
0.013261 -0.122272 0
0.013307 -0.149227 0
0.012462 -0.176409 0
0.010719 -0.203895 0
0.008083 -0.232186 0
0.004545 -0.262487 0
0.000252 -0.293848 0
-0.002813 -0.284041 0
-0.000036 0.000009 0
0.000000 0.129375 0
0.000000 -0.000004 0
0.008335 0.160891 0
0.011819 0.206514 0
0.012941 0.223552 0
0.013487 0.229551 0
0.013762 0.226424 0
0.013796 0.214967 0
0.013596 0.196476 0
0.013156 0.172579 0
0.012477 0.144999 0
0.011559 0.115337 0
0.010396 0.084930 0
0.008876 0.055051 0
0.006651 0.027781 0
0.002887 0.006516 0
-0.001275 -0.006602 0
-0.004385 -0.012485 0
-0.006845 -0.013661 0
-0.008624 -0.012252 0
-0.009695 -0.009218 0
-0.010025 -0.005081 0
-0.009616 -0.000364 0
-0.008594 0.004072 0
-0.007387 0.007206 0
-0.006137 0.008319 0
-0.004657 0.006762 0
-0.002258 0.000952 0
0.002319 -0.010949 0
0.007834 -0.028457 0
0.012753 -0.049546 0
0.016550 -0.072827 0
0.019157 -0.097488 0
0.020567 -0.122965 0
0.020766 -0.148859 0
0.019750 -0.174979 0
0.017534 -0.201413 0
0.014148 -0.228675 0
0.009640 -0.258050 0
0.004177 -0.289378 0
-0.000751 -0.282870 0
-0.000034 0.000008 0
0.000000 0.130246 0
0.000000 -0.000003 0
0.011836 0.153115 0
0.019073 0.202534 0
0.023066 0.221443 0
0.025787 0.228186 0
0.027672 0.225617 0
0.028736 0.214711 0
0.028964 0.196771 0
0.028357 0.173419 0
0.026930 0.146374 0
0.024702 0.117252 0
0.021651 0.087478 0
0.017623 0.058509 0
0.012307 0.032560 0
0.005563 0.012168 0
-0.001487 -0.001680 0
-0.006895 -0.008885 0
-0.010670 -0.010977 0
-0.013339 -0.010398 0
-0.015098 -0.008197 0
-0.015914 -0.004939 0
-0.015724 -0.001101 0
-0.014510 0.002672 0
-0.012489 0.005424 0
-0.009824 0.006132 0
-0.006192 0.003643 0
-0.000671 -0.004043 0
0.006292 -0.017240 0
0.013060 -0.034382 0
0.018822 -0.054396 0
0.023304 -0.076412 0
0.026399 -0.099753 0
0.028042 -0.123880 0
0.028198 -0.148410 0
0.026866 -0.173177 0
0.024074 -0.198293 0
0.019883 -0.224293 0
0.014370 -0.252516 0
0.007706 -0.283456 0
0.001176 -0.279864 0
-0.000032 0.000008 0
0.000000 0.130125 0
0.000000 -0.000002 0
0.014990 0.141818 0
0.025841 0.195284 0
0.032676 0.216837 0
0.037532 0.224945 0
0.041029 0.223475 0
0.043204 0.213675 0
0.044022 0.196855 0
0.043472 0.174613 0
0.041583 0.148654 0
0.038393 0.120615 0
0.033901 0.092008 0
0.028021 0.064395 0
0.020645 0.039841 0
0.012108 0.020310 0
0.003294 0.005856 0
-0.004813 -0.003303 0
-0.010372 -0.007217 0
-0.013902 -0.007824 0
-0.016209 -0.006644 0
-0.017347 -0.004455 0
-0.017271 -0.001767 0
-0.015866 0.000837 0
-0.013040 0.002520 0
-0.008786 0.002022 0
-0.002701 -0.002392 0
0.005069 -0.011532 0
0.012970 -0.024680 0
0.020230 -0.040988 0
0.026381 -0.059789 0
0.031160 -0.080403 0
0.034395 -0.102226 0
0.035976 -0.124765 0
0.035850 -0.147683 0
0.034015 -0.170855 0
0.030513 -0.194430 0
0.025421 -0.218971 0
0.018850 -0.245873 0
0.010988 -0.276183 0
0.002994 -0.275164 0
-0.000031 0.000008 0
0.000000 0.129069 0
0.000000 -0.000002 0
0.017668 0.127275 0
0.031942 0.184848 0
0.041608 0.209752 0
0.048601 0.219834 0
0.053741 0.219945 0
0.057140 0.211718 0
0.058750 0.196503 0
0.058550 0.175857 0
0.056575 0.151454 0
0.052893 0.124934 0
0.047562 0.097849 0
0.040620 0.071766 0
0.032192 0.048473 0
0.022858 0.029519 0
0.013469 0.015242 0
0.004228 0.004780 0
-0.003436 -0.001888 0
-0.008721 -0.004561 0
-0.011600 -0.004751 0
-0.012866 -0.003877 0
-0.012651 -0.002582 0
-0.010812 -0.001559 0
-0.007107 -0.001655 0
-0.001386 -0.004207 0
0.006095 -0.010212 0
0.014286 -0.019714 0
0.022279 -0.032401 0
0.029550 -0.047794 0
0.035676 -0.065326 0
0.040348 -0.084426 0
0.043350 -0.104569 0
0.044546 -0.125335 0
0.043873 -0.146450 0
0.041329 -0.167840 0
0.036961 -0.189699 0
0.030863 -0.212630 0
0.023170 -0.238083 0
0.014094 -0.267601 0
0.004710 -0.268875 0
-0.000031 0.000007 0
0.000000 0.127130 0
0.000000 -0.000001 0
0.019687 0.109876 0
0.037093 0.171344 0
0.049574 0.200178 0
0.058759 0.212812 0
0.065622 0.214937 0
0.070385 0.208666 0
0.073018 0.195445 0
0.073495 0.176787 0
0.071856 0.154311 0
0.068201 0.129628 0
0.062664 0.104281 0
0.055410 0.079765 0
0.046738 0.057604 0
0.037298 0.039033 0
0.027911 0.024485 0
0.019105 0.013603 0
0.010946 0.005732 0
0.004373 0.000340 0
0.000195 -0.002499 0
-0.001543 -0.003403 0