# vtk DataFile Version 2.0
generated by CFD-lab course output (written by Tobias Neckel) 
ASCII

DATASET STRUCTURED_GRID
DIMENSIONS  42 42 1 
POINTS 1764 float

0.150000 0.150000 0
0.167857 0.150000 0
0.185714 0.150000 0
0.203571 0.150000 0
0.221429 0.150000 0
0.239286 0.150000 0
0.257143 0.150000 0
0.275000 0.150000 0
0.292857 0.150000 0
0.310714 0.150000 0
0.328571 0.150000 0
0.346429 0.150000 0
0.364286 0.150000 0
0.382143 0.150000 0
0.400000 0.150000 0
0.417857 0.150000 0
0.435714 0.150000 0
0.453571 0.150000 0
0.471429 0.150000 0
0.489286 0.150000 0
0.507143 0.150000 0
0.525000 0.150000 0
0.542857 0.150000 0
0.560714 0.150000 0
0.578571 0.150000 0
0.596429 0.150000 0
0.614286 0.150000 0
0.632143 0.150000 0
0.650000 0.150000 0
0.667857 0.150000 0
0.685714 0.150000 0
0.703571 0.150000 0
0.721429 0.150000 0
0.739286 0.150000 0
0.757143 0.150000 0
0.775000 0.150000 0
0.792857 0.150000 0
0.810714 0.150000 0
0.828571 0.150000 0
0.846429 0.150000 0
0.864286 0.150000 0
0.882143 0.150000 0
0.150000 0.167857 0
0.167857 0.167857 0
0.185714 0.167857 0
0.203571 0.167857 0
0.221429 0.167857 0
0.239286 0.167857 0
0.257143 0.167857 0
0.275000 0.167857 0
0.292857 0.167857 0
0.310714 0.167857 0
0.328571 0.167857 0
0.346429 0.167857 0
0.364286 0.167857 0
0.382143 0.167857 0
0.400000 0.167857 0
0.417857 0.167857 0
0.435714 0.167857 0
0.453571 0.167857 0
0.471429 0.167857 0
0.489286 0.167857 0
0.507143 0.167857 0
0.525000 0.167857 0
0.542857 0.167857 0
0.560714 0.167857 0
0.578571 0.167857 0
0.596429 0.167857 0
0.614286 0.167857 0
0.632143 0.167857 0
0.650000 0.167857 0
0.667857 0.167857 0
0.685714 0.167857 0
0.703571 0.167857 0
0.721429 0.167857 0
0.739286 0.167857 0
0.757143 0.167857 0
0.775000 0.167857 0
0.792857 0.167857 0
0.810714 0.167857 0
0.828571 0.167857 0
0.846429 0.167857 0
0.864286 0.167857 0
0.882143 0.167857 0
0.150000 0.185714 0
0.167857 0.185714 0
0.185714 0.185714 0
0.203571 0.185714 0
0.221429 0.185714 0
0.239286 0.185714 0
0.257143 0.185714 0
0.275000 0.185714 0
0.292857 0.185714 0
0.310714 0.185714 0
0.328571 0.185714 0
0.346429 0.185714 0
0.364286 0.185714 0
0.382143 0.185714 0
0.400000 0.185714 0
0.417857 0.185714 0
0.435714 0.185714 0
0.453571 0.185714 0
0.471429 0.185714 0
0.489286 0.185714 0
0.507143 0.185714 0
0.525000 0.185714 0
0.542857 0.185714 0
0.560714 0.185714 0
0.578571 0.185714 0
0.596429 0.185714 0
0.614286 0.185714 0
0.632143 0.185714 0
0.650000 0.185714 0
0.667857 0.185714 0
0.685714 0.185714 0
0.703571 0.185714 0
0.721429 0.185714 0
0.739286 0.185714 0
0.757143 0.185714 0
0.775000 0.185714 0
0.792857 0.185714 0
0.810714 0.185714 0
0.828571 0.185714 0
0.846429 0.185714 0
0.864286 0.185714 0
0.882143 0.185714 0
0.150000 0.203571 0
0.167857 0.203571 0
0.185714 0.203571 0
0.203571 0.203571 0
0.221429 0.203571 0
0.239286 0.203571 0
0.257143 0.203571 0
0.275000 0.203571 0
0.292857 0.203571 0
0.310714 0.203571 0
0.328571 0.203571 0
0.346429 0.203571 0
0.364286 0.203571 0
0.382143 0.203571 0
0.400000 0.203571 0
0.417857 0.203571 0
0.435714 0.203571 0
0.453571 0.203571 0
0.471429 0.203571 0
0.489286 0.203571 0
0.507143 0.203571 0
0.525000 0.203571 0
0.542857 0.203571 0
0.560714 0.203571 0
0.578571 0.203571 0
0.596429 0.203571 0
0.614286 0.203571 0
0.632143 0.203571 0
0.650000 0.203571 0
0.667857 0.203571 0
0.685714 0.203571 0
0.703571 0.203571 0
0.721429 0.203571 0
0.739286 0.203571 0
0.757143 0.203571 0
0.775000 0.203571 0
0.792857 0.203571 0
0.810714 0.203571 0
0.828571 0.203571 0
0.846429 0.203571 0
0.864286 0.203571 0
0.882143 0.203571 0
0.150000 0.221429 0
0.167857 0.221429 0
0.185714 0.221429 0
0.203571 0.221429 0
0.221429 0.221429 0
0.239286 0.221429 0
0.257143 0.221429 0
0.275000 0.221429 0
0.292857 0.221429 0
0.310714 0.221429 0
0.328571 0.221429 0
0.346429 0.221429 0
0.364286 0.221429 0
0.382143 0.221429 0
0.400000 0.221429 0
0.417857 0.221429 0
0.435714 0.221429 0
0.453571 0.221429 0
0.471429 0.221429 0
0.489286 0.221429 0
0.507143 0.221429 0
0.525000 0.221429 0
0.542857 0.221429 0
0.560714 0.221429 0
0.578571 0.221429 0
0.596429 0.221429 0
0.614286 0.221429 0
0.632143 0.221429 0
0.650000 0.221429 0
0.667857 0.221429 0
0.685714 0.221429 0
0.703571 0.221429 0
0.721429 0.221429 0
0.739286 0.221429 0
0.757143 0.221429 0
0.775000 0.221429 0
0.792857 0.221429 0
0.810714 0.221429 0
0.828571 0.221429 0
0.846429 0.221429 0
0.864286 0.221429 0
0.882143 0.221429 0
0.150000 0.239286 0
0.167857 0.239286 0
0.185714 0.239286 0
0.203571 0.239286 0
0.221429 0.239286 0
0.239286 0.239286 0
0.257143 0.239286 0
0.275000 0.239286 0
0.292857 0.239286 0
0.310714 0.239286 0
0.328571 0.239286 0
0.346429 0.239286 0
0.364286 0.239286 0
0.382143 0.239286 0
0.400000 0.239286 0
0.417857 0.239286 0
0.435714 0.239286 0
0.453571 0.239286 0
0.471429 0.239286 0
0.489286 0.239286 0
0.507143 0.239286 0
0.525000 0.239286 0
0.542857 0.239286 0
0.560714 0.239286 0
0.578571 0.239286 0
0.596429 0.239286 0
0.614286 0.239286 0
0.632143 0.239286 0
0.650000 0.239286 0
0.667857 0.239286 0
0.685714 0.239286 0
0.703571 0.239286 0
0.721429 0.239286 0
0.739286 0.239286 0
0.757143 0.239286 0
0.775000 0.239286 0
0.792857 0.239286 0
0.810714 0.239286 0
0.828571 0.239286 0
0.846429 0.239286 0
0.864286 0.239286 0
0.882143 0.239286 0
0.150000 0.257143 0
0.167857 0.257143 0
0.185714 0.257143 0
0.203571 0.257143 0
0.221429 0.257143 0
0.239286 0.257143 0
0.257143 0.257143 0
0.275000 0.257143 0
0.292857 0.257143 0
0.310714 0.257143 0
0.328571 0.257143 0
0.346429 0.257143 0
0.364286 0.257143 0
0.382143 0.257143 0
0.400000 0.257143 0
0.417857 0.257143 0
0.435714 0.257143 0
0.453571 0.257143 0
0.471429 0.257143 0
0.489286 0.257143 0
0.507143 0.257143 0
0.525000 0.257143 0
0.542857 0.257143 0
0.560714 0.257143 0
0.578571 0.257143 0
0.596429 0.257143 0
0.614286 0.257143 0
0.632143 0.257143 0
0.650000 0.257143 0
0.667857 0.257143 0
0.685714 0.257143 0
0.703571 0.257143 0
0.721429 0.257143 0
0.739286 0.257143 0
0.757143 0.257143 0
0.775000 0.257143 0
0.792857 0.257143 0
0.810714 0.257143 0
0.828571 0.257143 0
0.846429 0.257143 0
0.864286 0.257143 0
0.882143 0.257143 0
0.150000 0.275000 0
0.167857 0.275000 0
0.185714 0.275000 0
0.203571 0.275000 0
0.221429 0.275000 0
0.239286 0.275000 0
0.257143 0.275000 0
0.275000 0.275000 0
0.292857 0.275000 0
0.310714 0.275000 0
0.328571 0.275000 0
0.346429 0.275000 0
0.364286 0.275000 0
0.382143 0.275000 0
0.400000 0.275000 0
0.417857 0.275000 0
0.435714 0.275000 0
0.453571 0.275000 0
0.471429 0.275000 0
0.489286 0.275000 0
0.507143 0.275000 0
0.525000 0.275000 0
0.542857 0.275000 0
0.560714 0.275000 0
0.578571 0.275000 0
0.596429 0.275000 0
0.614286 0.275000 0
0.632143 0.275000 0
0.650000 0.275000 0
0.667857 0.275000 0
0.685714 0.275000 0
0.703571 0.275000 0
0.721429 0.275000 0
0.739286 0.275000 0
0.757143 0.275000 0
0.775000 0.275000 0
0.792857 0.275000 0
0.810714 0.275000 0
0.828571 0.275000 0
0.846429 0.275000 0
0.864286 0.275000 0
0.882143 0.275000 0
0.150000 0.292857 0
0.167857 0.292857 0
0.185714 0.292857 0
0.203571 0.292857 0
0.221429 0.292857 0
0.239286 0.292857 0
0.257143 0.292857 0
0.275000 0.292857 0
0.292857 0.292857 0
0.310714 0.292857 0
0.328571 0.292857 0
0.346429 0.292857 0
0.364286 0.292857 0
0.382143 0.292857 0
0.400000 0.292857 0
0.417857 0.292857 0
0.435714 0.292857 0
0.453571 0.292857 0
0.471429 0.292857 0
0.489286 0.292857 0
0.507143 0.292857 0
0.525000 0.292857 0
0.542857 0.292857 0
0.560714 0.292857 0
0.578571 0.292857 0
0.596429 0.292857 0
0.614286 0.292857 0
0.632143 0.292857 0
0.650000 0.292857 0
0.667857 0.292857 0
0.685714 0.292857 0
0.703571 0.292857 0
0.721429 0.292857 0
0.739286 0.292857 0
0.757143 0.292857 0
0.775000 0.292857 0
0.792857 0.292857 0
0.810714 0.292857 0
0.828571 0.292857 0
0.846429 0.292857 0
0.864286 0.292857 0
0.882143 0.292857 0
0.150000 0.310714 0
0.167857 0.310714 0
0.185714 0.310714 0
0.203571 0.310714 0
0.221429 0.310714 0
0.239286 0.310714 0
0.257143 0.310714 0
0.275000 0.310714 0
0.292857 0.310714 0
0.310714 0.310714 0
0.328571 0.310714 0
0.346429 0.310714 0
0.364286 0.310714 0
0.382143 0.310714 0
0.400000 0.310714 0
0.417857 0.310714 0
0.435714 0.310714 0
0.453571 0.310714 0
0.471429 0.310714 0
0.489286 0.310714 0
0.507143 0.310714 0
0.525000 0.310714 0
0.542857 0.310714 0
0.560714 0.310714 0
0.578571 0.310714 0
0.596429 0.310714 0
0.614286 0.310714 0
0.632143 0.310714 0
0.650000 0.310714 0
0.667857 0.310714 0
0.685714 0.310714 0
0.703571 0.310714 0
0.721429 0.310714 0
0.739286 0.310714 0
0.757143 0.310714 0
0.775000 0.310714 0
0.792857 0.310714 0
0.810714 0.310714 0
0.828571 0.310714 0
0.846429 0.310714 0
0.864286 0.310714 0
0.882143 0.310714 0
0.150000 0.328571 0
0.167857 0.328571 0
0.185714 0.328571 0
0.203571 0.328571 0
0.221429 0.328571 0
0.239286 0.328571 0
0.257143 0.328571 0
0.275000 0.328571 0
0.292857 0.328571 0
0.310714 0.328571 0
0.328571 0.328571 0
0.346429 0.328571 0
0.364286 0.328571 0
0.382143 0.328571 0
0.400000 0.328571 0
0.417857 0.328571 0
0.435714 0.328571 0
0.453571 0.328571 0
0.471429 0.328571 0
0.489286 0.328571 0
0.507143 0.328571 0
0.525000 0.328571 0
0.542857 0.328571 0
0.560714 0.328571 0
0.578571 0.328571 0
0.596429 0.328571 0
0.614286 0.328571 0
0.632143 0.328571 0
0.650000 0.328571 0
0.667857 0.328571 0
0.685714 0.328571 0
0.703571 0.328571 0
0.721429 0.328571 0
0.739286 0.328571 0
0.757143 0.328571 0
0.775000 0.328571 0
0.792857 0.328571 0
0.810714 0.328571 0
0.828571 0.328571 0
0.846429 0.328571 0
0.864286 0.328571 0
0.882143 0.328571 0
0.150000 0.346429 0
0.167857 0.346429 0
0.185714 0.346429 0
0.203571 0.346429 0
0.221429 0.346429 0
0.239286 0.346429 0
0.257143 0.346429 0
0.275000 0.346429 0
0.292857 0.346429 0
0.310714 0.346429 0
0.328571 0.346429 0
0.346429 0.346429 0
0.364286 0.346429 0
0.382143 0.346429 0
0.400000 0.346429 0
0.417857 0.346429 0
0.435714 0.346429 0
0.453571 0.346429 0
0.471429 0.346429 0
0.489286 0.346429 0
0.507143 0.346429 0
0.525000 0.346429 0
0.542857 0.346429 0
0.560714 0.346429 0
0.578571 0.346429 0
0.596429 0.346429 0
0.614286 0.346429 0
0.632143 0.346429 0
0.650000 0.346429 0
[...]
POINT_DATA 1764 

VECTORS velocity float
0.000000 0.000000 0
-0.000002 0.000000 0
-0.000003 0.000000 0
-0.000003 0.000000 0
-0.000003 0.000000 0
-0.000002 0.000000 0
-0.000002 0.000000 0
-0.000001 0.000000 0
-0.000002 0.000000 0
-0.000004 0.000000 0
-0.000000 0.000000 0
0.000003 0.000000 0
0.000005 0.000000 0
0.000007 0.000000 0
0.000007 0.000000 0
0.000008 0.000000 0
0.000009 0.000000 0
0.000009 0.000000 0
0.000009 0.000000 0
0.000009 0.000000 0
0.000009 0.000000 0
0.000009 0.000000 0
0.000009 0.000000 0
0.000009 0.000000 0
0.000010 0.000000 0
0.000010 0.000000 0
0.000010 0.000000 0
0.000010 0.000000 0
0.000010 0.000000 0
0.000010 0.000000 0
0.000010 0.000000 0
0.000010 0.000000 0
0.000010 0.000000 0
0.000009 0.000000 0
0.000009 0.000000 0
0.000008 0.000000 0
0.000006 0.000000 0
0.000004 0.000000 0
0.000000 0.000000 0
-0.000001 0.000000 0
-0.000000 0.000000 0
0.000000 0.000000 0
0.000000 0.000002 0
0.024996 -0.023290 0
0.048179 -0.016628 0
0.058773 -0.004063 0
0.058221 0.005195 0
0.050257 0.008910 0
0.041418 0.007695 0
0.036947 0.005145 0
0.026535 -0.004085 0
0.007261 -0.007879 0
-0.016382 0.009203 0
-0.046324 0.027367 0
-0.080428 0.033907 0
-0.115054 0.034811 0
-0.148256 0.033771 0
-0.178789 0.031423 0
-0.205993 0.028367 0
-0.229598 0.025009 0
-0.249610 0.021625 0
-0.266193 0.018370 0
-0.279585 0.015318 0
-0.290037 0.012479 0
-0.297767 0.009822 0
-0.302933 0.007271 0
-0.305601 0.004724 0
-0.305734 0.002060 0
-0.303209 -0.000850 0
-0.297858 -0.004130 0
-0.289400 -0.007826 0
-0.277452 -0.011965 0
-0.261556 -0.016633 0
-0.241182 -0.021887 0
-0.215785 -0.027697 0
-0.184906 -0.033875 0
-0.148367 -0.039933 0
-0.106655 -0.044831 0
-0.061643 -0.046357 0
-0.017945 -0.037822 0
0.014680 -0.009123 0
0.017295 0.016895 0
-0.000001 -0.000001 0
0.000000 -0.011145 0
0.000000 0.000003 0
0.024515 -0.048179 0
0.043932 -0.033776 0
0.051989 -0.010041 0
0.051001 0.008515 0
0.042404 0.016803 0
0.027552 0.013310 0
0.005560 0.014883 0
-0.024737 0.029686 0
-0.070709 0.042917 0
-0.116372 0.053585 0
-0.152682 0.064045 0
-0.184751 0.068730 0
-0.214400 0.067828 0
-0.240855 0.063735 0
-0.263772 0.057737 0
-0.283062 0.050809 0
-0.298846 0.043618 0
-0.311365 0.036595 0
-0.320914 0.029975 0
-0.327794 0.023844 0
-0.332267 0.018182 0
-0.334541 0.012896 0
-0.334747 0.007834 0
-0.332948 0.002800 0
-0.329124 -0.002393 0
-0.323278 -0.007876 0
-0.315273 -0.013809 0
-0.304916 -0.020406 0
-0.291873 -0.027844 0
-0.275741 -0.036271 0
-0.256084 -0.045771 0
-0.232456 -0.056275 0
-0.204477 -0.067418 0
-0.171975 -0.078251 0
-0.135273 -0.086724 0
-0.095699 -0.088710 0
-0.056227 -0.076323 0
-0.019870 -0.035241 0
0.008921 0.014680 0
0.000006 -0.000002 0
0.000000 -0.017297 0
0.000000 0.000004 0
0.017314 -0.067221 0
0.027142 -0.044103 0
0.027644 -0.011133 0
0.016430 0.014781 0
-0.000639 0.032359 0
-0.027267 0.044539 0
-0.066895 0.057434 0
-0.107782 0.072183 0
-0.145222 0.083756 0
-0.180890 0.091176 0
-0.210910 0.095746 0
-0.235270 0.095625 0
-0.255484 0.090916 0
-0.272001 0.083143 0
-0.285208 0.073630 0
-0.295480 0.063441 0
-0.303202 0.053312 0
-0.308736 0.043693 0
-0.312403 0.034799 0
-0.314463 0.026671 0
-0.315114 0.019226 0
-0.314488 0.012301 0
-0.312653 0.005678 0
-0.309632 -0.000899 0
-0.305427 -0.007609 0
-0.299971 -0.014701 0
-0.293059 -0.022493 0
-0.284451 -0.031227 0
-0.273870 -0.041140 0
-0.260995 -0.052421 0
-0.245484 -0.065171 0
-0.226989 -0.079304 0
-0.205180 -0.094357 0
-0.179793 -0.109137 0
-0.150734 -0.121107 0
-0.118227 -0.125402 0
-0.082922 -0.113651 0
-0.045655 -0.074271 0
-0.005909 -0.002975 0
0.000011 0.000000 0
0.000000 -0.020065 0
0.000000 0.000003 0
0.004567 -0.075322 0
-0.001282 -0.044106 0
-0.014194 0.000671 0
-0.033979 0.036798 0
-0.059047 0.060500 0
-0.089936 0.079566 0
-0.124512 0.095398 0
-0.158082 0.108013 0
-0.187681 0.116025 0
-0.213693 0.119273 0
-0.234629 0.118425 0
-0.250378 0.113304 0
-0.261979 0.104559 0
-0.270270 0.093459 0
-0.275970 0.081216 0
-0.279667 0.068803 0
-0.281828 0.056874 0
-0.282812 0.045796 0
-0.282881 0.035702 0
-0.282215 0.026555 0
-0.280926 0.018207 0
-0.279069 0.010436 0
-0.276651 0.002977 0
-0.273634 -0.004426 0
-0.270048 -0.012053 0
-0.265661 -0.020245 0
-0.260318 -0.029329 0
-0.253804 -0.039594 0
-0.245891 -0.051301 0
-0.236341 -0.064657 0
-0.224912 -0.079776 0
-0.211361 -0.096580 0
-0.195417 -0.114614 0
-0.176749 -0.132697 0
-0.154906 -0.148290 0
-0.129259 -0.156523 0
-0.098999 -0.148895 0
-0.063562 -0.112253 0
-0.025151 -0.030975 0
-0.000009 0.000004 0
0.000000 -0.011382 0
0.000000 0.000002 0
-0.011139 -0.065939 0
-0.032041 -0.025342 0
-0.056493 0.021565 0
-0.078394 0.059633 0
-0.103900 0.088316 0
-0.131587 0.110004 0
-0.159279 0.125580 0
-0.184650 0.135352 0
-0.206079 0.139367 0
-0.223353 0.138123 0
-0.236002 0.132431 0
-0.244301 0.122975 0
-0.249132 0.110807 0
-0.251380 0.097134 0
-0.251818 0.083027 0
-0.251049 0.069299 0
-0.249515 0.056457 0
-0.247527 0.044746 0
-0.245290 0.034202 0
-0.242928 0.024716 0
-0.240507 0.016080 0
-0.238042 0.008026 0
-0.235516 0.000243 0
-0.232887 -0.007503 0
-0.230051 -0.015582 0
-0.226826 -0.024430 0
-0.223037 -0.034350 0
-0.218486 -0.045654 0
-0.212973 -0.058603 0
-0.206310 -0.073399 0
-0.198334 -0.090151 0
-0.188896 -0.108800 0
-0.177813 -0.128969 0
-0.164770 -0.149647 0
-0.149161 -0.168597 0
-0.129894 -0.181310 0
-0.105305 -0.179347 0
-0.073668 -0.148119 0
-0.035445 -0.066537 0
-0.000038 0.000007 0
0.000000 0.005093 0
0.000000 -0.000000 0
-0.024129 -0.043281 0
-0.053942 0.001248 0
-0.080897 0.047024 0
-0.105574 0.084205 0
-0.129967 0.113694 0
-0.153504 0.134944 0
-0.174969 0.148461 0
-0.193196 0.154814 0
-0.207410 0.154728 0
-0.217502 0.149196 0
-0.223546 0.139373 0
-0.226077 0.126434 0
-0.225917 0.111638 0
-0.223883 0.096145 0
-0.220677 0.080884 0
-0.216845 0.066499 0
-0.212781 0.053353 0
-0.208761 0.041571 0
-0.204967 0.031103 0
-0.201504 0.021772 0
-0.198418 0.013320 0
-0.195712 0.005445 0
-0.193353 -0.002178 0
-0.191312 -0.009890 0
-0.189355 -0.018114 0
-0.187350 -0.027259 0
-0.185095 -0.037668 0
-0.182380 -0.049658 0
-0.178990 -0.063477 0
-0.174740 -0.079296 0
-0.169506 -0.097190 0
-0.163207 -0.117101 0
-0.155753 -0.138741 0
-0.146923 -0.161348 0
-0.136143 -0.183166 0
-0.122175 -0.200379 0
-0.102849 -0.205122 0
-0.075341 -0.182113 0
-0.038271 -0.104643 0
-0.000061 0.000009 0
0.000000 0.024068 0
0.000000 -0.000002 0
-0.031676 -0.011997 0
-0.064710 0.031425 0
-0.092399 0.073196 0
-0.117647 0.108704 0
-0.140229 0.136247 0
-0.159950 0.155006 0
-0.176288 0.165272 0
-0.188792 0.167793 0
-0.197263 0.163673 0
-0.201871 0.154259 0
-0.203008 0.141006 0
-0.201332 0.125347 0
-0.197604 0.108613 0
-0.192542 0.091894 0
-0.186757 0.075989 0
-0.180732 0.061402 0
-0.174838 0.048373 0
-0.169350 0.036932 0
-0.164459 0.026945 0
-0.160277 0.018168 0
-0.156849 0.010288 0
-0.154164 0.002961 0
-0.152161 -0.004157 0
-0.150802 -0.011500 0
-0.149856 -0.019544 0
-0.149155 -0.028691 0
-0.148479 -0.039320 0
-0.147569 -0.051759 0
-0.146153 -0.066243 0
-0.143999 -0.082883 0
-0.140973 -0.101685 0
-0.137030 -0.122553 0
-0.132157 -0.145253 0
-0.126254 -0.169257 0
-0.118910 -0.193345 0
-0.109019 -0.214604 0
-0.094324 -0.226181 0
-0.071386 -0.212697 0
-0.037554 -0.141878 0
-0.000077 0.000010 0
0.000000 0.043366 0
0.000000 -0.000004 0
-0.033709 0.021429 0
-0.065968 0.061971 0
-0.094127 0.099961 0
-0.118511 0.132035 0
-0.138917 0.155997 0
-0.155308 0.171003 0
-0.167575 0.177302 0
-0.175714 0.175789 0
-0.179905 0.167807 0
-0.180550 0.154941 0
-0.178211 0.138835 0
-0.173567 0.121030 0
-0.167303 0.102848 0
-0.160041 0.085298 0
-0.152317 0.069074 0
-0.144587 0.054580 0
-0.137237 0.041971 0
-0.130582 0.031192 0
-0.124855 0.022030 0
-0.120189 0.014163 0
-0.116628 0.007207 0
-0.114153 0.000756 0
-0.112712 -0.005539 0
-0.112177 -0.012195 0
-0.112344 -0.019760 0
-0.113028 -0.028636 0
-0.113994 -0.039255 0
-0.114924 -0.051983 0
-0.115441 -0.067046 0
-0.115217 -0.084476 0
-0.114072 -0.104158 0
-0.111981 -0.125916 0
-0.108980 -0.149517 0
-0.105074 -0.174596 0
-0.100056 -0.200400 0
-0.093129 -0.224964 0
-0.082299 -0.242755 0
-0.063993 -0.238884 0
-0.034651 -0.176029 0
-0.000086 0.000011 0
0.000000 0.061624 0
0.000000 -0.000005 0
-0.031427 0.053971 0
-0.062329 0.091843 0
-0.089243 0.125740 0
-0.111814 0.153494 0
-0.129834 0.173044 0
-0.143330 0.183663 0
-0.152414 0.185677 0
-0.157335 0.180123 0
-0.158486 0.168510 0
-0.156402 0.152566 0
-0.151694 0.134022 0
-0.145001 0.114439 0
-0.136918 0.095086 0
-0.127986 0.076908 0
-0.118698 0.060536 0
-0.109527 0.046323 0
-0.100921 0.034369 0
-0.093284 0.024549 0
-0.086926 0.016551 0
-0.082010 0.009941 0
-0.078558 0.004253 0
-0.076513 -0.000956 0
-0.075832 -0.006132 0
-0.076208 -0.011868 0
-0.077503 -0.018693 0
-0.079554 -0.027041 0
-0.082147 -0.037424 0
-0.084913 -0.050312 0
-0.087324 -0.065950 0
-0.088902 -0.084253 0
-0.089408 -0.104920 0
-0.088843 -0.127645 0
-0.087284 -0.152160 0
-0.084815 -0.178180 0
-0.081399 -0.205290 0
-0.076585 -0.232362 0
-0.068856 -0.255318 0
-0.054891 -0.260344 0
-0.030543 -0.205871 0
-0.000089 0.000012 0
0.000000 0.078019 0
0.000000 -0.000005 0
-0.027464 0.083758 0
-0.055782 0.119787 0
-0.080286 0.149447 0
-0.100430 0.172626 0
-0.115971 0.187513 0
-0.126946 0.193583 0
-0.133561 0.191306 0
-0.136176 0.181861 0
-0.135272 0.166874 0
-0.131412 0.148149 0
-0.125178 0.127433 0
-0.117126 0.106254 0
-0.107757 0.085833 0
-0.097541 0.067078 0
-0.086956 0.050615 0
-0.076524 0.036804 0
-0.066818 0.025728 0
-0.058378 0.017197 0
-0.051670 0.010757 0
-0.046881 0.005794 0
-0.043941 0.001710 0
-0.042661 -0.001969 0
-0.042837 -0.005845 0
-0.044130 -0.010524 0
-0.046438 -0.016414 0
-0.049650 -0.023993 0
-0.053660 -0.033896 0
-0.058100 -0.046806 0
-0.062242 -0.063058 0
-0.065405 -0.082393 0
-0.067296 -0.104218 0
-0.067968 -0.128040 0
-0.067556 -0.153545 0
-0.066198 -0.180481 0
-0.063973 -0.208630 0
-0.060718 -0.237507 0
-0.055442 -0.264449 0
-0.045329 -0.277197 0
-0.025967 -0.230920 0
-0.000086 0.000012 0
0.000000 0.092167 0
0.000000 -0.000006 0
-0.022936 0.109753 0
-0.047662 0.144665 0
-0.069059 0.170388 0
-0.086435 0.189179 0
-0.099508 0.199560 0
-0.108292 0.201253 0
-0.113009 0.194906 0
-0.114034 0.181834 0
-0.111845 0.163747 0
-0.106958 0.142472 0
-0.099874 0.119737 0
-0.091043 0.097018 0
-0.080867 0.075501 0
-0.069745 0.056106 0
-0.058134 0.039519 0
-0.046617 0.026185 0
-0.035966 0.016223 0
-0.026941 0.009401 0
-0.020257 0.005054 0
-0.016063 0.002212 0
-0.014085 0.000032 0
-0.013945 -0.002059 0
-0.015157 -0.004663 0
-0.017418 -0.008267 0
-0.020583 -0.013174 0
-0.024601 -0.019819 0
-0.029589 -0.028974 0
-0.035283 -0.041730 0
-0.040753 -0.058644 0
-0.045082 -0.079198 0
-0.047964 -0.102357 0
-0.049532 -0.127385 0
-0.049986 -0.153930 0
-0.049510 -0.181764 0
-0.048249 -0.210770 0
-0.046231 -0.240893 0
-0.042914 -0.270707 0
-0.036105 -0.289819 0
-0.021412 -0.251199 0
-0.000080 0.000012 0
0.000000 0.103986 0
0.000000 -0.000006 0
-0.018100 0.131419 0
-0.038778 0.165910 0
-0.056747 0.188220 0
-0.071231 0.203075 0
-0.081930 0.209370 0
-0.088827 0.207084 0
-0.092111 0.197048 0
-0.092118 0.180697 0
-0.089261 0.159799 0
-0.083968 0.136178 0
-0.076632 0.111518 0
-0.067591 0.087247 0
-0.057143 0.064535 0
-0.045598 0.044344 0
-0.033332 0.027486 0
-0.020909 0.014635 0
-0.009261 0.006053 0
-0.000577 0.001488 0
0.005067 -0.000121 0
0.008037 -0.000377 0
0.008827 -0.000408 0
0.007937 -0.000898 0
0.005828 -0.002373 0
0.002751 -0.005098 0
-0.001056 -0.009231 0
-0.005597 -0.014987 0
-0.011097 -0.023214 0
-0.017357 -0.035642 0
-0.023440 -0.053259 0
-0.028238 -0.075182 0
-0.031554 -0.099768 0
-0.033593 -0.126018 0
-0.034606 -0.153567 0
-0.034798 -0.182218 0
-0.034350 -0.211910 0
-0.033382 -0.242842 0
-0.031678 -0.274574 0
-0.027657 -0.298700 0
-0.017158 -0.267026 0
-0.000071 0.000011 0
0.000000 0.113579 0
0.000000 -0.000006 0
-0.013144 0.148530 0
-0.029624 0.183312 0
-0.044089 0.202842 0
-0.055706 0.214362 0
-0.064182 0.217155 0
-0.069470 0.211434 0
-0.071709 0.198197 0
-0.071163 0.178984 0
-0.068153 0.155597 0
-0.063002 0.129844 0
-0.055989 0.103360 0
-0.047343 0.077528 0
-0.037253 0.053509 0
-0.025889 0.032294 0
-0.013302 0.014829 0
-0.000583 0.002114 0
0.009187 -0.004109 0
0.015766 -0.004926 0
0.019819 -0.003561 0
0.021818 -0.001547 0
0.022022 0.000132 0
0.020798 0.000939 0
0.018442 0.000524 0
0.015145 -0.001383 0
0.011066 -0.004826 0
0.006316 -0.009778 0
0.000967 -0.017215 0
-0.004924 -0.029387 0
-0.010627 -0.047763 0
-0.014971 -0.071084 0
-0.018047 -0.097002 0
-0.020085 -0.124333 0
-0.021330 -0.152726 0
-0.021975 -0.182019 0
-0.022208 -0.212186 0
-0.022169 -0.243565 0
-0.021838 -0.276432 0
-0.020157 -0.304339 0
-0.013338 -0.278856 0
-0.000062 0.000011 0
0.000000 0.121144 0
0.000000 -0.000006 0
-0.008196 0.161044 0
-0.020494 0.196855 0
-0.031512 0.214301 0
-0.040370 0.223168 0
-0.046799 0.223135 0
-0.050729 0.214612 0
-0.052244 0.198741 0
-0.051526 0.177141 0
-0.048800 0.151637 0
-0.044284 0.124015 0
-0.038152 0.095859 0
-0.030529 0.068511 0
-0.021481 0.043082 0
-0.010987 0.020393 0
0.000836 0.002180 0
0.010047 -0.007853 0
0.015787 -0.010296 0
0.019944 -0.009144 0
0.022907 -0.006173 0
0.024685 -0.002580 0
0.025118 0.000613 0
0.024234 0.002683 0
0.022255 0.003280 0
0.019367 0.002278 0
0.015671 -0.000403 0
0.011312 -0.004889 0
0.006643 -0.011974 0
0.001962 -0.024048 0
-0.002009 -0.043212 0
-0.004987 -0.067761 0
-0.007180 -0.094653 0
-0.008780 -0.122734 0
-0.009960 -0.151677 0
-0.010861 -0.181340 0
-0.011652 -0.211716 0
-0.012448 -0.243212 0
-0.013318 -0.276586 0
-0.013611 -0.307199 0
-0.009984 -0.287182 0
-0.000054 0.000011 0
0.000000 0.126916 0
0.000000 -0.000005 0
-0.003374 0.169025 0
-0.011538 0.206628 0
-0.019240 0.222718 0
-0.025483 0.229649 0
-0.030032 0.227514 0
-0.032809 0.216879 0
-0.033848 0.198993 0
-0.033258 0.175540 0
-0.031175 0.148355 0
-0.027725 0.119197 0
-0.022998 0.089605 0
-0.017039 0.060857 0
-0.009813 0.033967 0
-0.001046 0.009977 0
0.006482 -0.006205 0
0.010646 -0.012838 0
0.013729 -0.014006 0
0.016266 -0.012047 0
0.018378 -0.008302 0
0.019970 -0.003758 0
0.020776 0.000584 0
0.020540 0.003802 0
0.019328 0.005390 0
0.017265 0.005201 0
0.014501 0.003229 0
0.011164 -0.000750 0
0.007639 -0.007864 0
0.004847 -0.020735 0
0.003413 -0.040814 0
0.002432 -0.065913 0
0.001558 -0.093208 0
0.000700 -0.121553 0
-0.000189 -0.150646 0
-0.001209 -0.180327 0
-0.002456 -0.210599 0
-0.004007 -0.241899 0
-0.005949 -0.275269 0
-0.007928 -0.307674 0
-0.007064 -0.292467 0
-0.000047 0.000010 0
0.000000 0.131127 0
0.000000 -0.000005 0
0.001128 0.172582 0
-0.002852 0.212720 0
-0.007357 0.228246 0
-0.011124 0.233959 0
-0.013932 0.230461 0
-0.015705 0.218428 0
-0.016442 0.199190 0
-0.016188 0.174467 0
-0.015010 0.146104 0
-0.012964 0.115838 0
-0.010080 0.085173 0
-0.006348 0.055326 0
-0.001726 0.027089 0
0.003146 0.004098 0
0.005296 -0.009512 0
0.006607 -0.015100 0
0.007704 -0.015917 0
0.008820 -0.013793 0
0.010047 -0.009877 0
0.011315 -0.004978 0
0.012375 0.000043 0
0.012821 0.004130 0
0.012545 0.006556 0
0.011558 0.007105 0
0.009973 0.005698 0
0.008061 0.001973 0
0.006407 -0.005657 0
0.006222 -0.019821 0
0.007323 -0.040797 0
0.008361 -0.065907 0
0.008859 -0.092921 0
0.008834 -0.120987 0
0.008318 -0.149768 0
0.007260 -0.179073 0
0.005629 -0.208918 0
0.003380 -0.239719 0
0.000478 -0.272666 0
-0.002966 -0.306085 0
-0.004514 -0.295110 0
-0.000042 0.000010 0
0.000000 0.133979 0
0.000000 -0.000004 0
0.005287 0.171876 0
0.005468 0.215113 0
0.004072 0.230990 0
0.002680 0.236224 0
0.001541 0.232096 0
0.000716 0.219388 0
0.000223 0.199477 0
0.000054 0.174109 0
0.000195 0.145130 0
0.000634 0.114267 0
0.001363 0.082989 0
0.002369 0.052503 0
0.003479 0.024473 0
0.003244 0.002955 0
0.002026 -0.009667 0
0.001110 -0.015246 0
0.000467 -0.016218 0
0.000249 -0.014389 0
0.000552 -0.010797 0
0.001355 -0.006086 0
0.002491 -0.000923 0
0.003596 0.003632 0
0.004289 0.006654 0
0.004494 0.007772 0
0.004314 0.006726 0
0.004171 0.002816 0
0.005085 -0.006025 0
0.007852 -0.021651 0
0.011186 -0.042953 0
0.013813 -0.067449 0
0.015459 -0.093681 0
0.016175 -0.121013 0
0.015995 -0.149072 0
0.014906 -0.177637 0
0.012895 -0.206719 0
0.009957 -0.236749 0
0.006105 -0.268923 0
0.001413 -0.302681 0
-0.002249 -0.295433 0
-0.000038 0.000010 0
0.000000 0.135640 0
0.000000 -0.000004 0
0.009196 0.167114 0
0.013390 0.213935 0
0.015021 0.231034 0
0.015929 0.236491 0
0.016441 0.232424 0
0.016592 0.219746 0
0.016391 0.199853 0
0.015846 0.174495 0
0.014976 0.145524 0
0.013790 0.114670 0
0.012276 0.083438 0
0.010334 0.053210 0
0.007590 0.026215 0
0.003368 0.005550 0
-0.000832 -0.007379 0
-0.003798 -0.013540 0
-0.005969 -0.015056 0
-0.007350 -0.013879 0
-0.007927 -0.010983 0
-0.007701 -0.006916 0
-0.006719 -0.002199 0
-0.005170 0.002332 0
-0.003573 0.005659 0
-0.002105 0.007081 0
-0.000637 0.006020 0
0.001514 0.001202 0
0.005534 -0.009338 0
0.010806 -0.025923 0
0.015709 -0.046757 0
0.019472 -0.070179 0
0.021978 -0.095283 0
0.023249 -0.121523 0
0.023288 -0.148499 0
0.022083 -0.175974 0
0.019637 -0.203969 0
0.015974 -0.232928 0
0.011140 -0.264122 0
0.005285 -0.297730 0
-0.000192 -0.293697 0
-0.000035 0.000009 0
0.000000 0.136228 0
0.000000 -0.000003 0
0.012825 0.158486 0
0.020902 0.209288 0
0.025502 0.228451 0
0.028646 0.234804 0
0.030799 0.231432 0
0.031989 0.219438 0
0.032198 0.200223 0
0.031437 0.175524 0
0.029739 0.147186 0
0.027134 0.116967 0
0.023615 0.086445 0
0.019071 0.057188 0
0.013226 0.031439 0
0.006180 0.011377 0
-0.000890 -0.002501 0
-0.006223 -0.010109 0
-0.009818 -0.012666 0
-0.012197 -0.012430 0
-0.013555 -0.010446 0
-0.013915 -0.007295 0
-0.013263 -0.003454 0
-0.011632 0.000486 0
-0.009287 0.003589 0
-0.006484 0.004836 0
-0.002985 0.003107 0
0.002136 -0.003355 0
0.008772 -0.015317 0
0.015541 -0.031827 0
0.021354 -0.051619 0
0.025835 -0.073718 0
0.028888 -0.097459 0
0.030467 -0.122323 0
0.030533 -0.147906 0
0.029068 -0.173986 0
0.026086 -0.200610 0
0.021640 -0.228252 0
0.015812 -0.258234 0
0.008763 -0.291349 0
0.001726 -0.290148 0
-0.000034 0.000009 0
0.000000 0.135831 0
0.000000 -0.000002 0
0.016087 0.146212 0
0.027899 0.201258 0
0.035441 0.223289 0
0.040788 0.231193 0
0.044594 0.229082 0
0.046917 0.218348 0
0.047718 0.200404 0
0.046997 0.176955 0
0.044795 0.149827 0
0.041172 0.120794 0
0.036163 0.091501 0
0.029743 0.063599 0
0.021887 0.039106 0
0.013094 0.019666 0
0.004220 0.005024 0
-0.003874 -0.004612 0
-0.009344 -0.009082 0
-0.012734 -0.010142 0
-0.014794 -0.009264 0
-0.015634 -0.007208 0
-0.015253 -0.004482 0
-0.013602 -0.001644 0
-0.010628 0.000510 0
-0.006367 0.000779 0
-0.000472 -0.002600 0
0.006965 -0.010555 0
0.014861 -0.022742 0
0.022219 -0.038506 0
0.028447 -0.057051 0
0.033275 -0.077713 0
0.036546 -0.099916 0
0.038145 -0.123169 0
0.038001 -0.147100 0
0.036087 -0.171527 0
0.032433 -0.196541 0
0.027111 -0.222654 0
0.020235 -0.251244 0
0.011996 -0.283644 0
0.003528 -0.284933 0
-0.000032 0.000008 0
0.000000 0.134501 0
0.000000 -0.000001 0
0.018838 0.130587 0
0.034179 0.189934 0
0.044652 0.215562 0
0.052213 0.225651 0
0.057718 0.225304 0
0.061302 0.216314 0
0.062923 0.200143 0
0.062566 0.178447 0
0.060280 0.153011 0
0.056160 0.125599 0
0.050315 0.097875 0
0.042854 0.071464 0
0.033994 0.048087 0
0.024403 0.029043 0
0.014883 0.014468 0
0.005558 0.003456 0
-0.002206 -0.003807 0
-0.007371 -0.006981 0
-0.010232 -0.007545 0
-0.011438 -0.006835 0
-0.011123 -0.005486 0
-0.009211 -0.004139 0
-0.005521 -0.003647 0
0.000067 -0.005319 0
0.007395 -0.010225 0
0.015511 -0.018687 0
0.023612 -0.030570 0
0.031013 -0.045413 0
0.037267 -0.062675 0
0.042070 -0.081816 0
0.045200 -0.102329 0
0.046496 -0.123777 0
0.045868 -0.145848 0
0.043290 -0.168418 0
0.038801 -0.191633 0
0.032492 -0.216054 0
0.024505 -0.243119 0
0.015059 -0.274642 0
0.005217 -0.278152 0
-0.000032 0.000008 0
0.000000 0.132303 0
0.000000 -0.000001 0
0.020879 0.112033 0
0.039428 0.175444 0
0.052812 0.205256 0
0.062654 0.218128 0
0.069956 0.219993 0
0.074964 0.213143 0
0.077661 0.199140 0
0.078026 0.179598 0
0.076115 0.156232 0
0.072062 0.130759 0
0.066051 0.104808 0
0.058322 0.079920 0
0.049254 0.057556 0
0.039542 0.038777 0
0.029954 0.023870 0
0.020960 0.012476 0
0.012550 0.003847 0
0.005757 -0.002116 0
0.001516 -0.005198 0
-0.000327 -0.006317 0
-0.000133 -0.006709 0