# vtk DataFile Version 2.0
generated by CFD-lab course output (written by Tobias Neckel) 
ASCII

DATASET STRUCTURED_GRID
DIMENSIONS  42 42 1 
POINTS 1764 float

0.150000 0.150000 0
0.167857 0.150000 0
0.185714 0.150000 0
0.203571 0.150000 0
0.221429 0.150000 0
0.239286 0.150000 0
0.257143 0.150000 0
0.275000 0.150000 0
0.292857 0.150000 0
0.310714 0.150000 0
0.328571 0.150000 0
0.346429 0.150000 0
0.364286 0.150000 0
0.382143 0.150000 0
0.400000 0.150000 0
0.417857 0.150000 0
0.435714 0.150000 0
0.453571 0.150000 0
0.471429 0.150000 0
0.489286 0.150000 0
0.507143 0.150000 0
0.525000 0.150000 0
0.542857 0.150000 0
0.560714 0.150000 0
0.578571 0.150000 0
0.596429 0.150000 0
0.614286 0.150000 0
0.632143 0.150000 0
0.650000 0.150000 0
0.667857 0.150000 0
0.685714 0.150000 0
0.703571 0.150000 0
0.721429 0.150000 0
0.739286 0.150000 0
0.757143 0.150000 0
0.775000 0.150000 0
0.792857 0.150000 0
0.810714 0.150000 0
0.828571 0.150000 0
0.846429 0.150000 0
0.864286 0.150000 0
0.882143 0.150000 0
0.150000 0.167857 0
0.167857 0.167857 0
0.185714 0.167857 0
0.203571 0.167857 0
0.221429 0.167857 0
0.239286 0.167857 0
0.257143 0.167857 0
0.275000 0.167857 0
0.292857 0.167857 0
0.310714 0.167857 0
0.328571 0.167857 0
0.346429 0.167857 0
0.364286 0.167857 0
0.382143 0.167857 0
0.400000 0.167857 0
0.417857 0.167857 0
0.435714 0.167857 0
0.453571 0.167857 0
0.471429 0.167857 0
0.489286 0.167857 0
0.507143 0.167857 0
0.525000 0.167857 0
0.542857 0.167857 0
0.560714 0.167857 0
0.578571 0.167857 0
0.596429 0.167857 0
0.614286 0.167857 0
0.632143 0.167857 0
0.650000 0.167857 0
0.667857 0.167857 0
0.685714 0.167857 0
0.703571 0.167857 0
0.721429 0.167857 0
0.739286 0.167857 0
0.757143 0.167857 0
0.775000 0.167857 0
0.792857 0.167857 0
0.810714 0.167857 0
0.828571 0.167857 0
0.846429 0.167857 0
0.864286 0.167857 0
0.882143 0.167857 0
0.150000 0.185714 0
0.167857 0.185714 0
0.185714 0.185714 0
0.203571 0.185714 0
0.221429 0.185714 0
0.239286 0.185714 0
0.257143 0.185714 0
0.275000 0.185714 0
0.292857 0.185714 0
0.310714 0.185714 0
0.328571 0.185714 0
0.346429 0.185714 0
0.364286 0.185714 0
0.382143 0.185714 0
0.400000 0.185714 0
0.417857 0.185714 0
0.435714 0.185714 0
0.453571 0.185714 0
0.471429 0.185714 0
0.489286 0.185714 0
0.507143 0.185714 0
0.525000 0.185714 0
0.542857 0.185714 0
0.560714 0.185714 0
0.578571 0.185714 0
0.596429 0.185714 0
0.614286 0.185714 0
0.632143 0.185714 0
0.650000 0.185714 0
0.667857 0.185714 0
0.685714 0.185714 0
0.703571 0.185714 0
0.721429 0.185714 0
0.739286 0.185714 0
0.757143 0.185714 0
0.775000 0.185714 0
0.792857 0.185714 0
0.810714 0.185714 0
0.828571 0.185714 0
0.846429 0.185714 0
0.864286 0.185714 0
0.882143 0.185714 0
0.150000 0.203571 0
0.167857 0.203571 0
0.185714 0.203571 0
0.203571 0.203571 0
0.221429 0.203571 0
0.239286 0.203571 0
0.257143 0.203571 0
0.275000 0.203571 0
0.292857 0.203571 0
0.310714 0.203571 0
0.328571 0.203571 0
0.346429 0.203571 0
0.364286 0.203571 0
0.382143 0.203571 0
0.400000 0.203571 0
0.417857 0.203571 0
0.435714 0.203571 0
0.453571 0.203571 0
0.471429 0.203571 0
0.489286 0.203571 0
0.507143 0.203571 0
0.525000 0.203571 0
0.542857 0.203571 0
0.560714 0.203571 0
0.578571 0.203571 0
0.596429 0.203571 0
0.614286 0.203571 0
0.632143 0.203571 0
0.650000 0.203571 0
0.667857 0.203571 0
0.685714 0.203571 0
0.703571 0.203571 0
0.721429 0.203571 0
0.739286 0.203571 0
0.757143 0.203571 0
0.775000 0.203571 0
0.792857 0.203571 0
0.810714 0.203571 0
0.828571 0.203571 0
0.846429 0.203571 0
0.864286 0.203571 0
0.882143 0.203571 0
0.150000 0.221429 0
0.167857 0.221429 0
0.185714 0.221429 0
0.203571 0.221429 0
0.221429 0.221429 0
0.239286 0.221429 0
0.257143 0.221429 0
0.275000 0.221429 0
0.292857 0.221429 0
0.310714 0.221429 0
0.328571 0.221429 0
0.346429 0.221429 0
0.364286 0.221429 0
0.382143 0.221429 0
0.400000 0.221429 0
0.417857 0.221429 0
0.435714 0.221429 0
0.453571 0.221429 0
0.471429 0.221429 0
0.489286 0.221429 0
0.507143 0.221429 0
0.525000 0.221429 0
0.542857 0.221429 0
0.560714 0.221429 0
0.578571 0.221429 0
0.596429 0.221429 0
0.614286 0.221429 0
0.632143 0.221429 0
0.650000 0.221429 0
0.667857 0.221429 0
0.685714 0.221429 0
0.703571 0.221429 0
0.721429 0.221429 0
0.739286 0.221429 0
0.757143 0.221429 0
0.775000 0.221429 0
0.792857 0.221429 0
0.810714 0.221429 0
0.828571 0.221429 0
0.846429 0.221429 0
0.864286 0.221429 0
0.882143 0.221429 0
0.150000 0.239286 0
0.167857 0.239286 0
0.185714 0.239286 0
0.203571 0.239286 0
0.221429 0.239286 0
0.239286 0.239286 0
0.257143 0.239286 0
0.275000 0.239286 0
0.292857 0.239286 0
0.310714 0.239286 0
0.328571 0.239286 0
0.346429 0.239286 0
0.364286 0.239286 0
0.382143 0.239286 0
0.400000 0.239286 0
0.417857 0.239286 0
0.435714 0.239286 0
0.453571 0.239286 0
0.471429 0.239286 0
0.489286 0.239286 0
0.507143 0.239286 0
0.525000 0.239286 0
0.542857 0.239286 0
0.560714 0.239286 0
0.578571 0.239286 0
0.596429 0.239286 0
0.614286 0.239286 0
0.632143 0.239286 0
0.650000 0.239286 0
0.667857 0.239286 0
0.685714 0.239286 0
0.703571 0.239286 0
0.721429 0.239286 0
0.739286 0.239286 0
0.757143 0.239286 0
0.775000 0.239286 0
0.792857 0.239286 0
0.810714 0.239286 0
0.828571 0.239286 0
0.846429 0.239286 0
0.864286 0.239286 0
0.882143 0.239286 0
0.150000 0.257143 0
0.167857 0.257143 0
0.185714 0.257143 0
0.203571 0.257143 0
0.221429 0.257143 0
0.239286 0.257143 0
0.257143 0.257143 0
0.275000 0.257143 0
0.292857 0.257143 0
0.310714 0.257143 0
0.328571 0.257143 0
0.346429 0.257143 0
0.364286 0.257143 0
0.382143 0.257143 0
0.400000 0.257143 0
0.417857 0.257143 0
0.435714 0.257143 0
0.453571 0.257143 0
0.471429 0.257143 0
0.489286 0.257143 0
0.507143 0.257143 0
0.525000 0.257143 0
0.542857 0.257143 0
0.560714 0.257143 0
0.578571 0.257143 0
0.596429 0.257143 0
0.614286 0.257143 0
0.632143 0.257143 0
0.650000 0.257143 0
0.667857 0.257143 0
0.685714 0.257143 0
0.703571 0.257143 0
0.721429 0.257143 0
0.739286 0.257143 0
0.757143 0.257143 0
0.775000 0.257143 0
0.792857 0.257143 0
0.810714 0.257143 0
0.828571 0.257143 0
0.846429 0.257143 0
0.864286 0.257143 0
0.882143 0.257143 0
0.150000 0.275000 0
0.167857 0.275000 0
0.185714 0.275000 0
0.203571 0.275000 0
0.221429 0.275000 0
0.239286 0.275000 0
0.257143 0.275000 0
0.275000 0.275000 0
0.292857 0.275000 0
0.310714 0.275000 0
0.328571 0.275000 0
0.346429 0.275000 0
0.364286 0.275000 0
0.382143 0.275000 0
0.400000 0.275000 0
0.417857 0.275000 0
0.435714 0.275000 0
0.453571 0.275000 0
0.471429 0.275000 0
0.489286 0.275000 0
0.507143 0.275000 0
0.525000 0.275000 0
0.542857 0.275000 0
0.560714 0.275000 0
0.578571 0.275000 0
0.596429 0.275000 0
0.614286 0.275000 0
0.632143 0.275000 0
0.650000 0.275000 0
0.667857 0.275000 0
0.685714 0.275000 0
0.703571 0.275000 0
0.721429 0.275000 0
0.739286 0.275000 0
0.757143 0.275000 0
0.775000 0.275000 0
0.792857 0.275000 0
0.810714 0.275000 0
0.828571 0.275000 0
0.846429 0.275000 0
0.864286 0.275000 0
0.882143 0.275000 0
0.150000 0.292857 0
0.167857 0.292857 0
0.185714 0.292857 0
0.203571 0.292857 0
0.221429 0.292857 0
0.239286 0.292857 0
0.257143 0.292857 0
0.275000 0.292857 0
0.292857 0.292857 0
0.310714 0.292857 0
0.328571 0.292857 0
0.346429 0.292857 0
0.364286 0.292857 0
0.382143 0.292857 0
0.400000 0.292857 0
0.417857 0.292857 0
0.435714 0.292857 0
0.453571 0.292857 0
0.471429 0.292857 0
0.489286 0.292857 0
0.507143 0.292857 0
0.525000 0.292857 0
0.542857 0.292857 0
0.560714 0.292857 0
0.578571 0.292857 0
0.596429 0.292857 0
0.614286 0.292857 0
0.632143 0.292857 0
0.650000 0.292857 0
0.667857 0.292857 0
0.685714 0.292857 0
0.703571 0.292857 0
0.721429 0.292857 0
0.739286 0.292857 0
0.757143 0.292857 0
0.775000 0.292857 0
0.792857 0.292857 0
0.810714 0.292857 0
0.828571 0.292857 0
0.846429 0.292857 0
0.864286 0.292857 0
0.882143 0.292857 0
0.150000 0.310714 0
0.167857 0.310714 0
0.185714 0.310714 0
0.203571 0.310714 0
0.221429 0.310714 0
0.239286 0.310714 0
0.257143 0.310714 0
0.275000 0.310714 0
0.292857 0.310714 0
0.310714 0.310714 0
0.328571 0.310714 0
0.346429 0.310714 0
0.364286 0.310714 0
0.382143 0.310714 0
0.400000 0.310714 0
0.417857 0.310714 0
0.435714 0.310714 0
0.453571 0.310714 0
0.471429 0.310714 0
0.489286 0.310714 0
0.507143 0.310714 0
0.525000 0.310714 0
0.542857 0.310714 0
0.560714 0.310714 0
0.578571 0.310714 0
0.596429 0.310714 0
0.614286 0.310714 0
0.632143 0.310714 0
0.650000 0.310714 0
0.667857 0.310714 0
0.685714 0.310714 0
0.703571 0.310714 0
0.721429 0.310714 0
0.739286 0.310714 0
0.757143 0.310714 0
0.775000 0.310714 0
0.792857 0.310714 0
0.810714 0.310714 0
0.828571 0.310714 0
0.846429 0.310714 0
0.864286 0.310714 0
0.882143 0.310714 0
0.150000 0.328571 0
0.167857 0.328571 0
0.185714 0.328571 0
0.203571 0.328571 0
0.221429 0.328571 0
0.239286 0.328571 0
0.257143 0.328571 0
0.275000 0.328571 0
0.292857 0.328571 0
0.310714 0.328571 0
0.328571 0.328571 0
0.346429 0.328571 0
0.364286 0.328571 0
0.382143 0.328571 0
0.400000 0.328571 0
0.417857 0.328571 0
0.435714 0.328571 0
0.453571 0.328571 0
0.471429 0.328571 0
0.489286 0.328571 0
0.507143 0.328571 0
0.525000 0.328571 0
0.542857 0.328571 0
0.560714 0.328571 0
0.578571 0.328571 0
0.596429 0.328571 0
0.614286 0.328571 0
0.632143 0.328571 0
0.650000 0.328571 0
0.667857 0.328571 0
0.685714 0.328571 0
0.703571 0.328571 0
0.721429 0.328571 0
0.739286 0.328571 0
0.757143 0.328571 0
0.775000 0.328571 0
0.792857 0.328571 0
0.810714 0.328571 0
0.828571 0.328571 0
0.846429 0.328571 0
0.864286 0.328571 0
0.882143 0.328571 0
0.150000 0.346429 0
0.167857 0.346429 0
0.185714 0.346429 0
0.203571 0.346429 0
0.221429 0.346429 0
0.239286 0.346429 0
0.257143 0.346429 0
0.275000 0.346429 0
0.292857 0.346429 0
0.310714 0.346429 0
0.328571 0.346429 0
0.346429 0.346429 0
0.364286 0.346429 0
0.382143 0.346429 0
0.400000 0.346429 0
0.417857 0.346429 0
0.435714 0.346429 0
0.453571 0.346429 0
0.471429 0.346429 0
0.489286 0.346429 0
0.507143 0.346429 0
0.525000 0.346429 0
0.542857 0.346429 0
0.560714 0.346429 0
0.578571 0.346429 0
0.596429 0.346429 0
0.614286 0.346429 0
0.632143 0.346429 0
0.650000 0.346429 0
[...]
POINT_DATA 1764 

VECTORS velocity float
0.000000 0.000000 0
-0.000003 0.000000 0
-0.000002 0.000000 0
-0.000001 0.000000 0
0.000003 0.000000 0
-0.000008 0.000000 0
-0.000007 0.000000 0
0.000017 0.000000 0
0.000028 0.000000 0
0.000029 0.000000 0
0.000029 0.000000 0
0.000028 0.000000 0
0.000027 0.000000 0
0.000025 0.000000 0
0.000023 0.000000 0
0.000022 0.000000 0
0.000021 0.000000 0
0.000021 0.000000 0
0.000021 0.000000 0
0.000021 0.000000 0
0.000021 0.000000 0
0.000022 0.000000 0
0.000022 0.000000 0
0.000023 0.000000 0
0.000023 0.000000 0
0.000024 0.000000 0
0.000024 0.000000 0
0.000024 0.000000 0
0.000025 0.000000 0
0.000024 0.000000 0
0.000024 0.000000 0
0.000024 0.000000 0
0.000024 0.000000 0
0.000024 0.000000 0
0.000023 0.000000 0
0.000023 0.000000 0
0.000022 0.000000 0
0.000020 0.000000 0
0.000016 0.000000 0
0.000010 0.000000 0
0.000000 0.000000 0
0.000000 0.000000 0
0.000000 0.000003 0
0.057128 -0.052490 0
0.090620 -0.024263 0
0.102938 0.001752 0
0.090619 0.014961 0
0.060846 0.002415 0
0.021444 0.006008 0
-0.027382 0.041332 0
-0.088041 0.063976 0
-0.152257 0.067121 0
-0.214252 0.063848 0
-0.271359 0.058803 0
-0.322124 0.052486 0
-0.366072 0.045810 0
-0.403352 0.039340 0
-0.434495 0.033423 0
-0.460211 0.028209 0
-0.481249 0.023718 0
-0.498313 0.019896 0
-0.512014 0.016650 0
-0.522856 0.013875 0
-0.531232 0.011461 0
-0.537424 0.009306 0
-0.541612 0.007286 0
-0.543857 0.005267 0
-0.544106 0.003125 0
-0.542245 0.000729 0
-0.538082 -0.002053 0
-0.531248 -0.005363 0
-0.521215 -0.009364 0
-0.507257 -0.014305 0
-0.488398 -0.020497 0
-0.463389 -0.028258 0
-0.430687 -0.037899 0
-0.388502 -0.049603 0
-0.334972 -0.063176 0
-0.268680 -0.077388 0
-0.189931 -0.088609 0
-0.103735 -0.086724 0
-0.026675 -0.038810 0
0.000037 0.000010 0
0.000000 -0.001498 0
0.000000 0.000003 0
0.031409 -0.090620 0
0.048073 -0.045809 0
0.034835 0.000002 0
0.007164 0.042091 0
-0.041587 0.069175 0
-0.117866 0.088228 0
-0.186047 0.109485 0
-0.242403 0.124875 0
-0.294541 0.126211 0
-0.343005 0.119102 0
-0.385661 0.107872 0
-0.422010 0.094714 0
-0.452136 0.081228 0
-0.476538 0.068423 0
-0.495903 0.056859 0
-0.510961 0.046754 0
-0.522402 0.038102 0
-0.530829 0.030765 0
-0.536736 0.024544 0
-0.540510 0.019218 0
-0.542438 0.014568 0
-0.542714 0.010380 0
-0.541442 0.006432 0
-0.538669 0.002494 0
-0.534388 -0.001612 0
-0.528598 -0.006024 0
-0.521101 -0.010997 0
-0.511631 -0.016867 0
-0.499772 -0.023991 0
-0.484938 -0.032817 0
-0.466392 -0.043869 0
-0.443180 -0.057711 0
-0.414139 -0.074887 0
-0.377899 -0.095715 0
-0.332988 -0.119822 0
-0.278127 -0.145041 0
-0.212919 -0.164945 0
-0.139537 -0.163256 0
-0.065281 -0.103735 0
-0.000116 0.000017 0
0.000000 0.026692 0
0.000000 -0.000001 0
-0.006724 -0.100563 0
-0.026976 -0.027688 0
-0.067227 0.042661 0
-0.112365 0.091383 0
-0.162772 0.127444 0
-0.217743 0.150468 0
-0.270614 0.165869 0
-0.313749 0.172470 0
-0.349651 0.167723 0
-0.379796 0.154968 0
-0.404313 0.137808 0
-0.423685 0.118960 0
-0.438575 0.100338 0
-0.449729 0.083107 0
-0.457859 0.067846 0
-0.463577 0.054708 0
-0.467376 0.043586 0
-0.469631 0.034230 0
-0.470614 0.026332 0
-0.470515 0.019577 0
-0.469453 0.013665 0
-0.467497 0.008310 0
-0.464667 0.003241 0
-0.460950 -0.001787 0
-0.456451 -0.006946 0
-0.451007 -0.012558 0
-0.444417 -0.019020 0
-0.436452 -0.026692 0
-0.426798 -0.036057 0
-0.415042 -0.047685 0
-0.400657 -0.062255 0
-0.382976 -0.080510 0
-0.361168 -0.103180 0
-0.334222 -0.130755 0
-0.300930 -0.162948 0
-0.259871 -0.197457 0
-0.209418 -0.227199 0
-0.148004 -0.234362 0
-0.075267 -0.178347 0
-0.000236 0.000022 0
0.000000 0.063794 0
0.000000 -0.000011 0
-0.042013 -0.063644 0
-0.094484 0.014694 0
-0.137219 0.085390 0
-0.181929 0.137636 0
-0.225294 0.174553 0
-0.266479 0.196071 0
-0.303036 0.205491 0
-0.331217 0.203911 0
-0.352030 0.192258 0
-0.366970 0.173763 0
-0.377216 0.151762 0
-0.383880 0.128976 0
-0.387933 0.107272 0
-0.390167 0.087707 0
-0.391167 0.070707 0
-0.391329 0.056272 0
-0.390894 0.044156 0
-0.389996 0.034003 0
-0.388693 0.025427 0
-0.386999 0.018057 0
-0.384901 0.011550 0
-0.382372 0.005593 0
-0.379378 -0.000115 0
-0.375925 -0.005722 0
-0.371947 -0.011555 0
-0.367258 -0.018057 0
-0.361776 -0.025551 0
-0.355338 -0.034486 0
-0.347748 -0.045402 0
-0.338741 -0.058958 0
-0.327975 -0.075934 0
-0.315006 -0.097201 0
-0.299273 -0.123641 0
-0.280061 -0.155952 0
-0.256413 -0.194173 0
-0.226901 -0.236553 0
-0.189157 -0.276812 0
-0.139366 -0.297408 0
-0.073477 -0.251739 0
-0.000313 0.000025 0
0.000000 0.101967 0
0.000000 -0.000018 0
-0.062250 -0.006079 0
-0.120275 0.067518 0
-0.167476 0.130106 0
-0.210000 0.179458 0
-0.246509 0.211995 0
-0.276947 0.228210 0
-0.300554 0.230607 0
-0.316346 0.221464 0
-0.325472 0.203476 0
-0.329565 0.180153 0
-0.330209 0.154718 0
-0.328752 0.129678 0
-0.326216 0.106625 0
-0.323290 0.086342 0
-0.320369 0.069007 0
-0.317632 0.054436 0
-0.315114 0.042253 0
-0.312765 0.032028 0
-0.310499 0.023335 0
-0.308215 0.015786 0
-0.305819 0.009038 0
-0.303222 0.002787 0
-0.300341 -0.003206 0
-0.297224 -0.009218 0
-0.293632 -0.015613 0
-0.289551 -0.022729 0
-0.284908 -0.030940 0
-0.279630 -0.040720 0
-0.273614 -0.052653 0
-0.266712 -0.067458 0
-0.258712 -0.085990 0
-0.249315 -0.109212 0
-0.238125 -0.138125 0
-0.224624 -0.173615 0
-0.208098 -0.216107 0
-0.187362 -0.264713 0
-0.160059 -0.314735 0
-0.121585 -0.350042 0
-0.065818 -0.317712 0
-0.000348 0.000026 0
0.000000 0.137276 0
0.000000 -0.000022 0
-0.066498 0.056631 0
-0.122912 0.119920 0
-0.170958 0.175116 0
-0.210120 0.216668 0
-0.240507 0.241499 0
-0.262632 0.250116 0
-0.276843 0.244890 0
-0.283715 0.228829 0
-0.284818 0.205477 0
-0.281949 0.178500 0
-0.276800 0.150948 0
-0.270715 0.124983 0
-0.264620 0.101809 0
-0.259046 0.081860 0
-0.254221 0.065050 0
-0.250166 0.051017 0
-0.246781 0.039289 0
-0.243911 0.029388 0
-0.241379 0.020877 0
-0.239014 0.013377 0
-0.236664 0.006557 0
-0.234207 0.000115 0
-0.231580 -0.006113 0
-0.228707 -0.012431 0
-0.225477 -0.019228 0
-0.221877 -0.026781 0
-0.217886 -0.035472 0
-0.213497 -0.045780 0
-0.208691 -0.058320 0
-0.203415 -0.073861 0
-0.197553 -0.093331 0
-0.190888 -0.117787 0
-0.183086 -0.148332 0
-0.173705 -0.185980 0
-0.162190 -0.231435 0
-0.147709 -0.284592 0
-0.128461 -0.342589 0
-0.100150 -0.391649 0
-0.055576 -0.373324 0
-0.000346 0.000027 0
0.000000 0.167787 0
0.000000 -0.000024 0
-0.059424 0.116833 0
-0.113922 0.171978 0
-0.158795 0.217314 0
-0.193522 0.249006 0
-0.218384 0.264506 0
-0.234174 0.264546 0
-0.241886 0.251691 0
-0.242874 0.229439 0
-0.238982 0.201709 0
-0.232071 0.172135 0
-0.223784 0.143484 0
-0.215347 0.117498 0
-0.207544 0.094956 0
-0.200773 0.075943 0
-0.195149 0.060127 0
-0.190609 0.046996 0
-0.186988 0.035999 0
-0.184073 0.026625 0
-0.181639 0.018438 0
-0.179469 0.011071 0
-0.177375 0.004232 0
-0.175224 -0.002297 0
-0.172983 -0.008706 0
-0.170458 -0.015321 0
-0.167625 -0.022442 0
-0.164474 -0.030321 0
-0.161031 -0.039320 0
-0.157346 -0.049915 0
-0.153480 -0.062734 0
-0.149474 -0.078596 0
-0.145301 -0.098517 0
-0.140810 -0.123678 0
-0.135685 -0.155308 0
-0.129467 -0.194511 0
-0.121639 -0.242104 0
-0.111643 -0.298442 0
-0.098410 -0.362294 0
-0.078615 -0.422927 0
-0.044822 -0.417862 0
-0.000319 0.000027 0
0.000000 0.192853 0
0.000000 -0.000024 0
-0.050716 0.170552 0
-0.099172 0.219292 0
-0.138629 0.254716 0
-0.168225 0.276258 0
-0.188097 0.282152 0
-0.199082 0.273618 0
-0.202439 0.253590 0
-0.199816 0.225925 0
-0.193112 0.194674 0
-0.184124 0.163302 0
-0.174357 0.134224 0
-0.164892 0.108744 0
-0.156391 0.087235 0
-0.149172 0.069464 0
-0.143302 0.054886 0
-0.138689 0.042856 0
-0.135150 0.032753 0
-0.132454 0.024039 0
-0.130354 0.016273 0
-0.128611 0.009113 0
-0.127013 0.002312 0
-0.125400 -0.004277 0
-0.123666 -0.010879 0
-0.121649 -0.017788 0
-0.119320 -0.025212 0
-0.116671 -0.033375 0
-0.113747 -0.042600 0
-0.110641 -0.053331 0
-0.107485 -0.066192 0
-0.104418 -0.082040 0
-0.101519 -0.101995 0
-0.098724 -0.127402 0
-0.095741 -0.159675 0
-0.092075 -0.200026 0
-0.087171 -0.249259 0
-0.080603 -0.307822 0
-0.071905 -0.375617 0
-0.058945 -0.445237 0
-0.034741 -0.451940 0
-0.000279 0.000027 0
0.000000 0.212609 0
0.000000 -0.000023 0
-0.041258 0.216005 0
-0.082076 0.259891 0
-0.115159 0.286366 0
-0.139434 0.298475 0
-0.154874 0.295364 0
-0.162224 0.278888 0
-0.162751 0.252425 0
-0.158094 0.220112 0
-0.150030 0.186017 0
-0.140189 0.153380 0
-0.129903 0.124252 0
-0.120121 0.099532 0
-0.111434 0.079236 0
-0.104133 0.062853 0
-0.098285 0.049645 0
-0.093803 0.038844 0
-0.090509 0.029763 0
-0.088173 0.021829 0
-0.086547 0.014595 0
-0.085386 0.007731 0
-0.084457 0.001020 0
-0.083551 -0.005644 0
-0.082495 -0.012457 0
-0.081165 -0.019667 0
-0.079495 -0.027420 0
-0.077460 -0.035894 0
-0.075100 -0.045351 0
-0.072525 -0.056177 0
-0.069922 -0.068958 0
-0.067522 -0.084562 0
-0.065522 -0.104211 0
-0.063966 -0.129456 0
-0.062625 -0.161957 0
-0.060990 -0.203081 0
-0.058475 -0.253575 0
-0.054691 -0.313708 0
-0.049546 -0.383952 0
-0.041968 -0.460091 0
-0.025893 -0.476807 0
-0.000235 0.000027 0
0.000000 0.227593 0
0.000000 -0.000022 0
-0.031674 0.252628 0
-0.064522 0.293192 0
-0.091097 0.312074 0
-0.110255 0.315972 0
-0.121852 0.304942 0
-0.126482 0.281496 0
-0.125261 0.249460 0
-0.119639 0.213203 0
-0.111152 0.176769 0
-0.101203 0.143175 0
-0.090941 0.114156 0
-0.081216 0.090275 0
-0.072596 0.071247 0
-0.065391 0.056315 0
-0.059689 0.044556 0
-0.055417 0.035080 0
-0.052417 0.027123 0
-0.050467 0.020077 0
-0.049327 0.013486 0
-0.048756 0.007022 0
-0.048522 0.000477 0
-0.048390 -0.006239 0
-0.048130 -0.013265 0
-0.047612 -0.020788 0
-0.046731 -0.028917 0
-0.045426 -0.037771 0
-0.043713 -0.047535 0
-0.041700 -0.058508 0
-0.039608 -0.071195 0
-0.037737 -0.086440 0
-0.036390 -0.105550 0
-0.035722 -0.130300 0
-0.035585 -0.162651 0
-0.035502 -0.204176 0
-0.034901 -0.255558 0
-0.033426 -0.316750 0
-0.031167 -0.388340 0
-0.027816 -0.468890 0
-0.018438 -0.493908 0
-0.000193 0.000026 0
0.000000 0.238501 0
0.000000 -0.000020 0
-0.022383 0.280527 0
-0.047509 0.319314 0
-0.067883 0.332099 0
-0.082350 0.329230 0
-0.090697 0.311591 0
-0.093343 0.282297 0
-0.091166 0.245581 0
-0.085327 0.206003 0
-0.077053 0.167582 0
-0.067476 0.133169 0
-0.057578 0.104264 0
-0.048136 0.081187 0
-0.039726 0.063411 0
-0.032692 0.049945 0
-0.027171 0.039671 0
-0.023087 0.031573 0
-0.020331 0.024813 0
-0.018681 0.018738 0
-0.017909 0.012884 0
-0.017794 0.006926 0
-0.018124 0.000655 0
-0.018678 -0.006035 0
-0.019186 -0.013236 0
-0.019480 -0.021066 0
-0.019413 -0.029606 0
-0.018888 -0.038912 0
-0.017891 -0.049076 0
-0.016519 -0.060282 0
-0.015005 -0.072921 0
-0.013692 -0.087779 0
-0.012947 -0.106227 0
-0.012999 -0.130261 0
-0.013770 -0.162176 0
-0.014844 -0.203765 0
-0.015723 -0.255652 0
-0.016148 -0.317442 0
-0.016277 -0.389562 0
-0.016259 -0.472820 0
-0.012311 -0.504623 0
-0.000156 0.000026 0
0.000000 0.246031 0
0.000000 -0.000018 0
-0.013603 0.300137 0
-0.031496 0.338691 0
-0.046151 0.346915 0
-0.056431 0.338786 0
-0.062084 0.315935 0
-0.063346 0.281965 0
-0.060823 0.241445 0
-0.055335 0.199090 0
-0.047767 0.158918 0
-0.038978 0.123701 0
-0.029769 0.094816 0
-0.020714 0.072422 0
-0.012519 0.055803 0
-0.005723 0.043761 0
-0.000418 0.034952 0
0.003479 0.028240 0
0.006103 0.022717 0
0.007639 0.017655 0
0.008277 0.012599 0
0.008206 0.007237 0
0.007603 0.001361 0
0.006647 -0.005176 0
0.005585 -0.012464 0
0.004646 -0.020562 0
0.004012 -0.029508 0
0.003806 -0.039293 0
0.004065 -0.049905 0
0.004702 -0.061394 0
0.005485 -0.074021 0
0.006066 -0.088497 0
0.006072 -0.106244 0
0.005269 -0.129477 0
0.003716 -0.160807 0
0.001765 -0.202223 0
-0.000220 -0.254253 0
-0.002199 -0.316197 0
-0.004308 -0.388229 0
-0.006921 -0.472856 0
-0.007339 -0.510167 0
-0.000126 0.000025 0
0.000000 0.250811 0
0.000000 -0.000016 0
-0.005452 0.312022 0
-0.016588 0.351862 0
-0.026043 0.357035 0
-0.032617 0.345162 0
-0.036049 0.318506 0
-0.036414 0.281037 0
-0.034035 0.237570 0
-0.029396 0.192948 0
-0.023044 0.151225 0
-0.015302 0.115171 0
-0.006935 0.086000 0
0.001443 0.063936 0
0.009078 0.048420 0
0.015506 0.037845 0
0.020634 0.030469 0
0.024477 0.025051 0
0.027179 0.020653 0
0.028858 0.016564 0
0.029656 0.012317 0
0.029723 0.007600 0
0.029207 0.002213 0
0.028252 -0.004017 0
0.027028 -0.011234 0
0.025763 -0.019493 0
0.024659 -0.028765 0
0.023860 -0.038965 0
0.023419 -0.049973 0
0.023255 -0.061703 0
0.023150 -0.074285 0
0.022783 -0.088366 0
0.021835 -0.105430 0
0.020135 -0.127905 0
0.017787 -0.158673 0
0.015080 -0.199829 0
0.012198 -0.251688 0
0.008995 -0.313355 0
0.005258 -0.384840 0
0.000617 -0.469788 0
-0.003303 -0.511544 0
-0.000104 0.000025 0
0.000000 0.253369 0
0.000000 -0.000014 0
0.001919 0.316725 0
-0.002717 0.359283 0
-0.007391 0.362944 0
-0.010651 0.348793 0
-0.012229 0.319731 0
-0.012059 0.279951 0
-0.010205 0.234427 0
-0.006806 0.188098 0
-0.002013 0.144824 0
0.004178 0.107592 0
0.011206 0.078070 0
0.018359 0.056409 0
0.025074 0.041741 0
0.031093 0.032205 0
0.036180 0.025981 0
0.040226 0.021695 0
0.043258 0.018336 0
0.045342 0.015178 0
0.046577 0.011734 0
0.047078 0.007686 0
0.046970 0.002832 0
0.046376 -0.002997 0
0.045403 -0.009974 0
0.044205 -0.018193 0
0.042954 -0.027605 0
0.041787 -0.038053 0
0.040752 -0.049300 0
0.039770 -0.061125 0
0.038653 -0.073549 0
0.037153 -0.087182 0
0.035064 -0.103596 0
0.032349 -0.125429 0
0.029196 -0.155752 0
0.025828 -0.196634 0
0.022212 -0.248168 0
0.018039 -0.309256 0
0.012936 -0.379851 0
0.006581 -0.464295 0
0.000023 -0.509550 0
-0.000086 0.000024 0
0.000000 0.254113 0
0.000000 -0.000012 0
0.008612 0.314740 0
0.010248 0.361173 0
0.010080 0.364969 0
0.009894 0.350001 0
0.009972 0.319915 0
0.010473 0.279012 0
0.011546 0.232317 0
0.013364 0.184756 0
0.016190 0.140240 0
0.020058 0.101951 0
0.024925 0.071820 0
0.030377 0.050068 0
0.036071 0.035686 0
0.041649 0.026739 0
0.046744 0.021337 0
0.051113 0.017972 0
0.054654 0.015536 0
0.057355 0.013246 0
0.059260 0.010581 0
0.060446 0.007207 0
0.061007 0.002915 0
0.061044 -0.002450 0
0.060632 -0.009064 0
0.059845 -0.017044 0
0.058773 -0.026347 0
0.057489 -0.036763 0
0.055996 -0.047956 0
0.054216 -0.059603 0
0.052021 -0.071667 0
0.049288 -0.084778 0
0.045987 -0.100626 0
0.042275 -0.122037 0
0.038441 -0.152152 0
0.034603 -0.192845 0
0.030466 -0.243898 0
0.025492 -0.304080 0
0.019218 -0.373382 0
0.011312 -0.456875 0
0.002754 -0.504963 0
-0.000072 0.000023 0
0.000000 0.253345 0
0.000000 -0.000010 0
0.014905 0.306477 0
0.022537 0.357815 0
0.026679 0.363298 0
0.029430 0.348900 0
0.031104 0.319152 0
0.031890 0.278377 0
0.032074 0.231536 0
0.032061 0.183455 0
0.032401 0.138130 0
0.033420 0.098857 0
0.035537 0.067752 0
0.038777 0.045263 0
0.043024 0.030469 0
0.047883 0.021532 0
0.052854 0.016517 0
0.057530 0.013784 0
0.061654 0.012094 0
0.065103 0.010573 0
0.067843 0.008643 0
0.069896 0.005938 0
0.071315 0.002234 0
0.072169 -0.002621 0
0.072506 -0.008775 0
0.072335 -0.016334 0
0.071648 -0.025249 0
0.070419 -0.035276 0
0.068590 -0.046028 0
0.066091 -0.057151 0
0.062879 -0.068620 0
0.058989 -0.081148 0
0.054619 -0.096583 0
0.050144 -0.117883 0
0.045916 -0.148079 0
0.041862 -0.188659 0
0.037391 -0.239058 0
0.031772 -0.298008 0
0.024485 -0.365671 0
0.015245 -0.447832 0
0.004991 -0.498237 0
-0.000063 0.000022 0
0.000000 0.251357 0
0.000000 -0.000007 0
0.020913 0.292202 0
0.034362 0.349399 0
0.042698 0.358076 0
0.048287 0.345575 0
0.051561 0.317454 0
0.052717 0.278043 0
0.052110 0.232146 0
0.050298 0.184428 0
0.048005 0.138881 0
0.045895 0.098816 0
0.044762 0.066463 0
0.045137 0.042581 0
0.047237 0.026579 0
0.050794 0.016909 0
0.055242 0.011690 0
0.059999 0.009173 0
0.064618 0.007963 0
0.068819 0.007057 0
0.072454 0.005788 0
0.075463 0.003734 0
0.077839 0.000642 0
0.079598 -0.003642 0
0.080747 -0.009230 0
0.081240 -0.016186 0
0.080990 -0.024431 0
0.079884 -0.033705 0
0.077822 -0.043628 0
0.074753 -0.053892 0
0.070735 -0.064565 0
0.065989 -0.076518 0
0.060956 -0.091781 0
0.056199 -0.113334 0
0.052019 -0.143870 0
0.048050 -0.184319 0
0.043413 -0.233808 0
0.037253 -0.291174 0
0.029058 -0.356856 0
0.018611 -0.437381 0
0.006884 -0.489718 0
-0.000057 0.000022 0
0.000000 0.248351 0
0.000000 -0.000005 0
0.026629 0.272115 0
0.045764 0.336030 0
0.058258 0.349372 0
0.066665 0.340037 0
0.071627 0.314722 0
0.073376 0.277827 0
0.072290 0.233955 0
0.069001 0.187560 0
0.064325 0.142533 0
0.059164 0.102101 0
0.054569 0.068510 0
0.051492 0.042788 0
0.050576 0.024812 0
0.051913 0.013527 0
0.055068 0.007312 0
0.059353 0.004409 0
0.064115 0.003274 0
0.068869 0.002737 0
0.073299 0.001999 0
0.077220 0.000554 0
0.080534 -0.001902 0
0.083180 -0.005529 0
0.085101 -0.010417 0
0.086204 -0.016577 0
0.086347 -0.023894 0
0.085378 -0.032108 0
0.083189 -0.040897 0
0.079780 -0.050064 0
0.075330 -0.059856 0
0.070263 -0.071368 0
0.065237 -0.086793 0
0.060876 -0.108946 0
0.057248 -0.139930 0
0.053626 -0.180052 0
0.048922 -0.228261 0
0.042262 -0.283654 0
0.033199 -0.347028 0
0.021616 -0.425657 0
0.008545 -0.479627 0
-0.000054 0.000021 0
0.000000 0.244471 0
0.000000 -0.000003 0
0.031929 0.246438 0
0.056591 0.317769 0
0.073267 0.337175 0
0.084558 0.332207 0
0.091388 0.310744 0
0.094072 0.277380 0
0.092997 0.236521 0
0.088807 0.192394 0
0.082350 0.148718 0
0.074640 0.108572 0
0.066846 0.074135 0
0.060139 0.046574 0
0.055513 0.026158 0
0.053551 0.012418 0
0.054244 0.004250 0
0.057050 0.000125 0
0.061185 -0.001554 0
0.065949 -0.002127 0
0.070808 -0.002563 0
0.075398 -0.003501 0
0.079475 -0.005317 0
0.082873 -0.008208 0
0.085457 -0.012254 0
0.087077 -0.017432 0
0.087565 -0.023606 0
0.086773 -0.030546 0
0.084633 -0.038030 0
0.081239 -0.046033 0
0.076928 -0.055049 0
0.072313 -0.066425 0
0.068155 -0.082394 0
0.064908 -0.105346 0
0.062233 -0.136620 0
0.059079 -0.175993 0
0.054291 -0.222444 0
0.047084 -0.275452 0
0.037127 -0.336210 0
0.024415 -0.412727 0
0.010068 -0.468101 0
-0.000053 0.000019 0
0.000000 0.239804 0
0.000000 -0.000001 0
0.036535 0.215524 0
0.066447 0.294692 0
0.087348 0.321406 0
0.101684 0.321916 0
0.110658 0.305208 0
0.114719 0.276218 0
0.114266 0.239220 0
0.109924 0.198207 0
0.102535 0.156699 0
0.093133 0.117605 0
0.082898 0.083011 0
0.073037 0.054121 0
0.064670 0.031399 0
0.058715 0.014796 0
0.055710 0.003813 0
0.055629 -0.002532 0
0.057878 -0.005625 0
0.061618 -0.006887 0
0.066118 -0.007450 0
0.070794 -0.008113 0
0.075217 -0.009377 0
0.079073 -0.011511 0
0.082121 -0.014621 0
0.084153 -0.018686 0
0.084989 -0.023590 0
0.084521 -0.029175 0
0.082768 -0.035363 0
0.079958 -0.042359 0
0.076588 -0.050930 0
0.073370 -0.062596 0
0.070924 -0.079388 0
0.069285 -0.103024 0
0.067675 -0.134101 0
0.064885 -0.172110 0
0.059855 -0.216267 0
0.051962 -0.266489 0
0.041013 -0.324359 0
0.027125 -0.398599 0
0.011519 -0.455211 0
-0.000053 0.000018 0
0.000000 0.234401 0
0.000000 0.000001 0
0.040027 0.179992 0
0.074664 0.266956 0
0.099796 0.301938 0
0.117431 0.308898 0
0.128935 0.297709 0
0.134900 0.273772 0
0.135751 0.241316 0
0.132089 0.204124 0
0.124726 0.165509 0
0.114672 0.128209 0
0.103071 0.094232 0
0.091082 0.064802 0
0.079787 0.040480 0
0.070147 0.021378 0
0.062973 0.007337 0
0.058783 -0.002042 0
0.057646 -0.007544 0
0.058928 -0.010366 0
0.061817 -0.011739 0
0.065567 -0.012600 0
0.069564 -0.013596 0
0.073328 -0.015112 0
0.076495 -0.017333 0
0.078792 -0.020300 0
0.080039 -0.023974 0
0.080185 -0.028325 0
0.079354 -0.033466 0
0.077898 -0.039854 0
0.076376 -0.048460 0
0.075363 -0.060760 0
0.075073 -0.078309 0
0.075039 -0.102097 0
0.074213 -0.132221 0
0.071445 -0.168173 0
0.065875 -0.209521 0
0.057071 -0.256609 0
0.044974 -0.311373 0
0.029819 -0.383233 0
0.012941 -0.440977 0
-0.000055 0.000017 0
0.000000 0.228283 0
0.000000 0.000003 0
0.041772 0.140860 0
0.080222 0.234923 0
0.109504 0.278639 0
0.130807 0.292777 0
0.145373 0.287739 0
0.153864 0.269402 0
0.156745 0.242031 0
0.154600 0.209232 0
0.148215 0.174116 0
0.138563 0.139260 0
0.126741 0.106601 0
0.113853 0.077405 0
0.100919 0.052335 0
0.088823 0.031610 0
0.078337 0.015178 0
0.070121 0.002795 0
0.064658 -0.005771 0
0.062190 -0.011058 0
0.062106 -0.014088 0
0.063677 -0.015861 0
0.066203 -0.017138 0
0.069086 -0.018442 0
0.071861 -0.020084 0
0.074200 -0.022230 0
0.075922 -0.024983 0
0.077018 -0.028490 0
0.077667 -0.033076 0