# vtk DataFile Version 2.0
generated by CFD-lab course output (written by Tobias Neckel) 
ASCII

DATASET STRUCTURED_GRID
DIMENSIONS  42 42 1 
POINTS 1764 float

0.150000 0.150000 0
0.167857 0.150000 0
0.185714 0.150000 0
0.203571 0.150000 0
0.221429 0.150000 0
0.239286 0.150000 0
0.257143 0.150000 0
0.275000 0.150000 0
0.292857 0.150000 0
0.310714 0.150000 0
0.328571 0.150000 0
0.346429 0.150000 0
0.364286 0.150000 0
0.382143 0.150000 0
0.400000 0.150000 0
0.417857 0.150000 0
0.435714 0.150000 0
0.453571 0.150000 0
0.471429 0.150000 0
0.489286 0.150000 0
0.507143 0.150000 0
0.525000 0.150000 0
0.542857 0.150000 0
0.560714 0.150000 0
0.578571 0.150000 0
0.596429 0.150000 0
0.614286 0.150000 0
0.632143 0.150000 0
0.650000 0.150000 0
0.667857 0.150000 0
0.685714 0.150000 0
0.703571 0.150000 0
0.721429 0.150000 0
0.739286 0.150000 0
0.757143 0.150000 0
0.775000 0.150000 0
0.792857 0.150000 0
0.810714 0.150000 0
0.828571 0.150000 0
0.846429 0.150000 0
0.864286 0.150000 0
0.882143 0.150000 0
0.150000 0.167857 0
0.167857 0.167857 0
0.185714 0.167857 0
0.203571 0.167857 0
0.221429 0.167857 0
0.239286 0.167857 0
0.257143 0.167857 0
0.275000 0.167857 0
0.292857 0.167857 0
0.310714 0.167857 0
0.328571 0.167857 0
0.346429 0.167857 0
0.364286 0.167857 0
0.382143 0.167857 0
0.400000 0.167857 0
0.417857 0.167857 0
0.435714 0.167857 0
0.453571 0.167857 0
0.471429 0.167857 0
0.489286 0.167857 0
0.507143 0.167857 0
0.525000 0.167857 0
0.542857 0.167857 0
0.560714 0.167857 0
0.578571 0.167857 0
0.596429 0.167857 0
0.614286 0.167857 0
0.632143 0.167857 0
0.650000 0.167857 0
0.667857 0.167857 0
0.685714 0.167857 0
0.703571 0.167857 0
0.721429 0.167857 0
0.739286 0.167857 0
0.757143 0.167857 0
0.775000 0.167857 0
0.792857 0.167857 0
0.810714 0.167857 0
0.828571 0.167857 0
0.846429 0.167857 0
0.864286 0.167857 0
0.882143 0.167857 0
0.150000 0.185714 0
0.167857 0.185714 0
0.185714 0.185714 0
0.203571 0.185714 0
0.221429 0.185714 0
0.239286 0.185714 0
0.257143 0.185714 0
0.275000 0.185714 0
0.292857 0.185714 0
0.310714 0.185714 0
0.328571 0.185714 0
0.346429 0.185714 0
0.364286 0.185714 0
0.382143 0.185714 0
0.400000 0.185714 0
0.417857 0.185714 0
0.435714 0.185714 0
0.453571 0.185714 0
0.471429 0.185714 0
0.489286 0.185714 0
0.507143 0.185714 0
0.525000 0.185714 0
0.542857 0.185714 0
0.560714 0.185714 0
0.578571 0.185714 0
0.596429 0.185714 0
0.614286 0.185714 0
0.632143 0.185714 0
0.650000 0.185714 0
0.667857 0.185714 0
0.685714 0.185714 0
0.703571 0.185714 0
0.721429 0.185714 0
0.739286 0.185714 0
0.757143 0.185714 0
0.775000 0.185714 0
0.792857 0.185714 0
0.810714 0.185714 0
0.828571 0.185714 0
0.846429 0.185714 0
0.864286 0.185714 0
0.882143 0.185714 0
0.150000 0.203571 0
0.167857 0.203571 0
0.185714 0.203571 0
0.203571 0.203571 0
0.221429 0.203571 0
0.239286 0.203571 0
0.257143 0.203571 0
0.275000 0.203571 0
0.292857 0.203571 0
0.310714 0.203571 0
0.328571 0.203571 0
0.346429 0.203571 0
0.364286 0.203571 0
0.382143 0.203571 0
0.400000 0.203571 0
0.417857 0.203571 0
0.435714 0.203571 0
0.453571 0.203571 0
0.471429 0.203571 0
0.489286 0.203571 0
0.507143 0.203571 0
0.525000 0.203571 0
0.542857 0.203571 0
0.560714 0.203571 0
0.578571 0.203571 0
0.596429 0.203571 0
0.614286 0.203571 0
0.632143 0.203571 0
0.650000 0.203571 0
0.667857 0.203571 0
0.685714 0.203571 0
0.703571 0.203571 0
0.721429 0.203571 0
0.739286 0.203571 0
0.757143 0.203571 0
0.775000 0.203571 0
0.792857 0.203571 0
0.810714 0.203571 0
0.828571 0.203571 0
0.846429 0.203571 0
0.864286 0.203571 0
0.882143 0.203571 0
0.150000 0.221429 0
0.167857 0.221429 0
0.185714 0.221429 0
0.203571 0.221429 0
0.221429 0.221429 0
0.239286 0.221429 0
0.257143 0.221429 0
0.275000 0.221429 0
0.292857 0.221429 0
0.310714 0.221429 0
0.328571 0.221429 0
0.346429 0.221429 0
0.364286 0.221429 0
0.382143 0.221429 0
0.400000 0.221429 0
0.417857 0.221429 0
0.435714 0.221429 0
0.453571 0.221429 0
0.471429 0.221429 0
0.489286 0.221429 0
0.507143 0.221429 0
0.525000 0.221429 0
0.542857 0.221429 0
0.560714 0.221429 0
0.578571 0.221429 0
0.596429 0.221429 0
0.614286 0.221429 0
0.632143 0.221429 0
0.650000 0.221429 0
0.667857 0.221429 0
0.685714 0.221429 0
0.703571 0.221429 0
0.721429 0.221429 0
0.739286 0.221429 0
0.757143 0.221429 0
0.775000 0.221429 0
0.792857 0.221429 0
0.810714 0.221429 0
0.828571 0.221429 0
0.846429 0.221429 0
0.864286 0.221429 0
0.882143 0.221429 0
0.150000 0.239286 0
0.167857 0.239286 0
0.185714 0.239286 0
0.203571 0.239286 0
0.221429 0.239286 0
0.239286 0.239286 0
0.257143 0.239286 0
0.275000 0.239286 0
0.292857 0.239286 0
0.310714 0.239286 0
0.328571 0.239286 0
0.346429 0.239286 0
0.364286 0.239286 0
0.382143 0.239286 0
0.400000 0.239286 0
0.417857 0.239286 0
0.435714 0.239286 0
0.453571 0.239286 0
0.471429 0.239286 0
0.489286 0.239286 0
0.507143 0.239286 0
0.525000 0.239286 0
0.542857 0.239286 0
0.560714 0.239286 0
0.578571 0.239286 0
0.596429 0.239286 0
0.614286 0.239286 0
0.632143 0.239286 0
0.650000 0.239286 0
0.667857 0.239286 0
0.685714 0.239286 0
0.703571 0.239286 0
0.721429 0.239286 0
0.739286 0.239286 0
0.757143 0.239286 0
0.775000 0.239286 0
0.792857 0.239286 0
0.810714 0.239286 0
0.828571 0.239286 0
0.846429 0.239286 0
0.864286 0.239286 0
0.882143 0.239286 0
0.150000 0.257143 0
0.167857 0.257143 0
0.185714 0.257143 0
0.203571 0.257143 0
0.221429 0.257143 0
0.239286 0.257143 0
0.257143 0.257143 0
0.275000 0.257143 0
0.292857 0.257143 0
0.310714 0.257143 0
0.328571 0.257143 0
0.346429 0.257143 0
0.364286 0.257143 0
0.382143 0.257143 0
0.400000 0.257143 0
0.417857 0.257143 0
0.435714 0.257143 0
0.453571 0.257143 0
0.471429 0.257143 0
0.489286 0.257143 0
0.507143 0.257143 0
0.525000 0.257143 0
0.542857 0.257143 0
0.560714 0.257143 0
0.578571 0.257143 0
0.596429 0.257143 0
0.614286 0.257143 0
0.632143 0.257143 0
0.650000 0.257143 0
0.667857 0.257143 0
0.685714 0.257143 0
0.703571 0.257143 0
0.721429 0.257143 0
0.739286 0.257143 0
0.757143 0.257143 0
0.775000 0.257143 0
0.792857 0.257143 0
0.810714 0.257143 0
0.828571 0.257143 0
0.846429 0.257143 0
0.864286 0.257143 0
0.882143 0.257143 0
0.150000 0.275000 0
0.167857 0.275000 0
0.185714 0.275000 0
0.203571 0.275000 0
0.221429 0.275000 0
0.239286 0.275000 0
0.257143 0.275000 0
0.275000 0.275000 0
0.292857 0.275000 0
0.310714 0.275000 0
0.328571 0.275000 0
0.346429 0.275000 0
0.364286 0.275000 0
0.382143 0.275000 0
0.400000 0.275000 0
0.417857 0.275000 0
0.435714 0.275000 0
0.453571 0.275000 0
0.471429 0.275000 0
0.489286 0.275000 0
0.507143 0.275000 0
0.525000 0.275000 0
0.542857 0.275000 0
0.560714 0.275000 0
0.578571 0.275000 0
0.596429 0.275000 0
0.614286 0.275000 0
0.632143 0.275000 0
0.650000 0.275000 0
0.667857 0.275000 0
0.685714 0.275000 0
0.703571 0.275000 0
0.721429 0.275000 0
0.739286 0.275000 0
0.757143 0.275000 0
0.775000 0.275000 0
0.792857 0.275000 0
0.810714 0.275000 0
0.828571 0.275000 0
0.846429 0.275000 0
0.864286 0.275000 0
0.882143 0.275000 0
0.150000 0.292857 0
0.167857 0.292857 0
0.185714 0.292857 0
0.203571 0.292857 0
0.221429 0.292857 0
0.239286 0.292857 0
0.257143 0.292857 0
0.275000 0.292857 0
0.292857 0.292857 0
0.310714 0.292857 0
0.328571 0.292857 0
0.346429 0.292857 0
0.364286 0.292857 0
0.382143 0.292857 0
0.400000 0.292857 0
0.417857 0.292857 0
0.435714 0.292857 0
0.453571 0.292857 0
0.471429 0.292857 0
0.489286 0.292857 0
0.507143 0.292857 0
0.525000 0.292857 0
0.542857 0.292857 0
0.560714 0.292857 0
0.578571 0.292857 0
0.596429 0.292857 0
0.614286 0.292857 0
0.632143 0.292857 0
0.650000 0.292857 0
0.667857 0.292857 0
0.685714 0.292857 0
0.703571 0.292857 0
0.721429 0.292857 0
0.739286 0.292857 0
0.757143 0.292857 0
0.775000 0.292857 0
0.792857 0.292857 0
0.810714 0.292857 0
0.828571 0.292857 0
0.846429 0.292857 0
0.864286 0.292857 0
0.882143 0.292857 0
0.150000 0.310714 0
0.167857 0.310714 0
0.185714 0.310714 0
0.203571 0.310714 0
0.221429 0.310714 0
0.239286 0.310714 0
0.257143 0.310714 0
0.275000 0.310714 0
0.292857 0.310714 0
0.310714 0.310714 0
0.328571 0.310714 0
0.346429 0.310714 0
0.364286 0.310714 0
0.382143 0.310714 0
0.400000 0.310714 0
0.417857 0.310714 0
0.435714 0.310714 0
0.453571 0.310714 0
0.471429 0.310714 0
0.489286 0.310714 0
0.507143 0.310714 0
0.525000 0.310714 0
0.542857 0.310714 0
0.560714 0.310714 0
0.578571 0.310714 0
0.596429 0.310714 0
0.614286 0.310714 0
0.632143 0.310714 0
0.650000 0.310714 0
0.667857 0.310714 0
0.685714 0.310714 0
0.703571 0.310714 0
0.721429 0.310714 0
0.739286 0.310714 0
0.757143 0.310714 0
0.775000 0.310714 0
0.792857 0.310714 0
0.810714 0.310714 0
0.828571 0.310714 0
0.846429 0.310714 0
0.864286 0.310714 0
0.882143 0.310714 0
0.150000 0.328571 0
0.167857 0.328571 0
0.185714 0.328571 0
0.203571 0.328571 0
0.221429 0.328571 0
0.239286 0.328571 0
0.257143 0.328571 0
0.275000 0.328571 0
0.292857 0.328571 0
0.310714 0.328571 0
0.328571 0.328571 0
0.346429 0.328571 0
0.364286 0.328571 0
0.382143 0.328571 0
0.400000 0.328571 0
0.417857 0.328571 0
0.435714 0.328571 0
0.453571 0.328571 0
0.471429 0.328571 0
0.489286 0.328571 0
0.507143 0.328571 0
0.525000 0.328571 0
0.542857 0.328571 0
0.560714 0.328571 0
0.578571 0.328571 0
0.596429 0.328571 0
0.614286 0.328571 0
0.632143 0.328571 0
0.650000 0.328571 0
0.667857 0.328571 0
0.685714 0.328571 0
0.703571 0.328571 0
0.721429 0.328571 0
0.739286 0.328571 0
0.757143 0.328571 0
0.775000 0.328571 0
0.792857 0.328571 0
0.810714 0.328571 0
0.828571 0.328571 0
0.846429 0.328571 0
0.864286 0.328571 0
0.882143 0.328571 0
0.150000 0.346429 0
0.167857 0.346429 0
0.185714 0.346429 0
0.203571 0.346429 0
0.221429 0.346429 0
0.239286 0.346429 0
0.257143 0.346429 0
0.275000 0.346429 0
0.292857 0.346429 0
0.310714 0.346429 0
0.328571 0.346429 0
0.346429 0.346429 0
0.364286 0.346429 0
0.382143 0.346429 0
0.400000 0.346429 0
0.417857 0.346429 0
0.435714 0.346429 0
0.453571 0.346429 0
0.471429 0.346429 0
0.489286 0.346429 0
0.507143 0.346429 0
0.525000 0.346429 0
0.542857 0.346429 0
0.560714 0.346429 0
0.578571 0.346429 0
0.596429 0.346429 0
0.614286 0.346429 0
0.632143 0.346429 0
0.650000 0.346429 0
[...]
POINT_DATA 1764 

VECTORS velocity float
0.000000 0.000000 0
0.000012 0.000000 0
0.000027 0.000000 0
0.000039 0.000000 0
0.000045 0.000000 0
0.000046 0.000000 0
0.000044 0.000000 0
0.000041 0.000000 0
0.000035 0.000000 0
0.000026 0.000000 0
0.000014 0.000000 0
0.000003 0.000000 0
-0.000009 0.000000 0
-0.000022 0.000000 0
-0.000036 0.000000 0
-0.000051 0.000000 0
-0.000067 0.000000 0
-0.000085 0.000000 0
-0.000105 0.000000 0
-0.000128 0.000000 0
-0.000152 0.000000 0
-0.000179 0.000000 0
-0.000210 0.000000 0
-0.000245 0.000000 0
-0.000286 0.000000 0
-0.000331 0.000000 0
-0.000380 0.000000 0
-0.000433 0.000000 0
-0.000489 0.000000 0
-0.000539 0.000000 0
-0.000569 0.000000 0
-0.000574 0.000000 0
-0.000554 0.000000 0
-0.000511 0.000000 0
-0.000446 0.000000 0
-0.000362 0.000000 0
-0.000269 0.000000 0
-0.000171 0.000000 0
-0.000074 0.000000 0
0.000001 0.000000 0
0.000000 0.000000 0
0.000000 0.000000 0
0.000000 -0.000012 0
0.028606 -0.029509 0
0.048823 -0.016286 0
0.058629 -0.005510 0
0.061116 0.000751 0
0.059064 0.004009 0
0.054166 0.006084 0
0.047117 0.008622 0
0.037882 0.011033 0
0.027382 0.011840 0
0.016545 0.011482 0
0.005888 0.010742 0
-0.004531 0.010309 0
-0.014908 0.010378 0
-0.025555 0.010921 0
-0.036721 0.011501 0
-0.048367 0.011911 0
-0.060595 0.012505 0
-0.073607 0.013386 0
-0.087642 0.014523 0
-0.102929 0.015825 0
-0.119694 0.017315 0
-0.138283 0.019417 0
-0.159263 0.022302 0
-0.183074 0.025634 0
-0.209935 0.029045 0
-0.239797 0.032324 0
-0.272513 0.035590 0
-0.307875 0.038717 0
-0.345211 0.040979 0
-0.382846 0.040736 0
-0.417696 0.036646 0
-0.446068 0.028407 0
-0.464067 0.015884 0
-0.467832 -0.001143 0
-0.453596 -0.022939 0
-0.417859 -0.049298 0
-0.356124 -0.080498 0
-0.263452 -0.115257 0
-0.138737 -0.143425 0
-0.001117 0.000001 0
0.000000 0.076893 0
0.000000 -0.000023 0
0.016163 -0.048823 0
0.029662 -0.030023 0
0.037478 -0.012293 0
0.040478 -0.000435 0
0.039498 0.006950 0
0.035557 0.011947 0
0.029474 0.016284 0
0.022515 0.019735 0
0.014741 0.021337 0
0.006235 0.021494 0
-0.002855 0.021076 0
-0.012346 0.020796 0
-0.022085 0.021024 0
-0.032106 0.021813 0
-0.042380 0.022812 0
-0.053232 0.023874 0
-0.064785 0.025239 0
-0.077156 0.027047 0
-0.090496 0.029322 0
-0.105023 0.032052 0
-0.121039 0.035355 0
-0.138870 0.039568 0
-0.158592 0.044791 0
-0.180359 0.050673 0
-0.204241 0.056723 0
-0.230236 0.062578 0
-0.258098 0.068077 0
-0.287205 0.072698 0
-0.316522 0.074971 0
-0.344338 0.072485 0
-0.368691 0.063222 0
-0.387014 0.046371 0
-0.396596 0.021764 0
-0.394792 -0.010471 0
-0.379198 -0.049973 0
-0.347062 -0.097472 0
-0.293861 -0.154407 0
-0.215324 -0.217387 0
-0.110713 -0.263452 0
-0.000969 -0.000034 0
0.000000 0.138703 0
0.000000 -0.000031 0
0.008079 -0.059171 0
0.014735 -0.037601 0
0.018682 -0.016325 0
0.020232 -0.001269 0
0.019450 0.008930 0
0.016630 0.016108 0
0.012347 0.021663 0
0.007488 0.025767 0
0.002024 0.028119 0
-0.004207 0.029078 0
-0.011220 0.029324 0
-0.018872 0.029538 0
-0.027015 0.030138 0
-0.035514 0.031216 0
-0.044325 0.032626 0
-0.053666 0.034316 0
-0.063665 0.036429 0
-0.074406 0.039097 0
-0.085993 0.042390 0
-0.098578 0.046368 0
-0.112358 0.051162 0
-0.127473 0.056970 0
-0.143865 0.063790 0
-0.161493 0.071283 0
-0.180309 0.078922 0
-0.200214 0.086182 0
-0.220872 0.092559 0
-0.241575 0.097141 0
-0.261351 0.098112 0
-0.279102 0.092904 0
-0.293854 0.079322 0
-0.304385 0.056312 0
-0.309295 0.023662 0
-0.306989 -0.018541 0
-0.295437 -0.070669 0
-0.271400 -0.134635 0
-0.230946 -0.212235 0
-0.170178 -0.298406 0
-0.087595 -0.358749 0
-0.000839 -0.000091 0
0.000000 0.187513 0
0.000000 -0.000035 0
0.002411 -0.063558 0
0.004404 -0.040627 0
0.005555 -0.017790 0
0.005769 -0.001202 0
0.004821 0.010552 0
0.002704 0.019050 0
-0.000300 0.025425 0
-0.003752 0.030058 0
-0.007707 0.033033 0
-0.012325 0.034739 0
-0.017693 0.035741 0
-0.023760 0.036591 0
-0.030382 0.037666 0
-0.037429 0.039122 0
-0.044855 0.040964 0
-0.052765 0.043214 0
-0.061242 0.045979 0
-0.070342 0.049375 0
-0.080123 0.053494 0
-0.090662 0.058418 0
-0.102034 0.064250 0
-0.114245 0.071075 0
-0.127175 0.078811 0
-0.140693 0.087116 0
-0.154665 0.095444 0
-0.168926 0.103141 0
-0.183136 0.109438 0
-0.196708 0.113178 0
-0.208953 0.112499 0
-0.219319 0.104987 0
-0.227512 0.088505 0
-0.233153 0.061813 0
-0.235565 0.024368 0
-0.233585 -0.024329 0
-0.225289 -0.085562 0
-0.207875 -0.161963 0
-0.178180 -0.255630 0
-0.132677 -0.360738 0
-0.068924 -0.433629 0
-0.000715 -0.000153 0
0.000000 0.226179 0
0.000000 -0.000036 0
-0.001986 -0.063575 0
-0.003057 -0.040746 0
-0.003581 -0.017691 0
-0.004181 -0.000535 0
-0.005249 0.011994 0
-0.006921 0.021229 0
-0.009108 0.028120 0
-0.011637 0.033174 0
-0.014591 0.036692 0
-0.018110 0.039064 0
-0.022277 0.040759 0
-0.027075 0.042228 0
-0.032414 0.043807 0
-0.038197 0.045689 0
-0.044383 0.047963 0
-0.051004 0.050702 0
-0.058096 0.054006 0
-0.065682 0.057979 0
-0.073778 0.062711 0
-0.082396 0.068279 0
-0.091525 0.074744 0
-0.101095 0.082111 0
-0.110959 0.090238 0
-0.120947 0.098773 0
-0.130887 0.107155 0
-0.140593 0.114652 0
-0.149784 0.120342 0
-0.158056 0.122959 0
-0.165000 0.120723 0
-0.170412 0.111463 0
-0.174342 0.093155 0
-0.176803 0.064365 0
-0.177463 0.024095 0
-0.175445 -0.028816 0
-0.169199 -0.096379 0
-0.156579 -0.181743 0
-0.135119 -0.287433 0
-0.101744 -0.407662 0
-0.053385 -0.491426 0
-0.000593 -0.000211 0
0.000000 0.256317 0
0.000000 -0.000035 0
-0.005012 -0.060501 0
-0.007999 -0.039031 0
-0.009580 -0.016665 0
-0.010703 0.000465 0
-0.011862 0.013292 0
-0.013265 0.022909 0
-0.014947 0.030142 0
-0.016891 0.035541 0
-0.019177 0.039505 0
-0.021917 0.042425 0
-0.025186 0.044707 0
-0.028990 0.046728 0
-0.033278 0.048788 0
-0.037991 0.051092 0
-0.043087 0.053771 0
-0.048560 0.056926 0
-0.054413 0.060657 0
-0.060638 0.065058 0
-0.067215 0.070208 0
-0.074111 0.076165 0
-0.081266 0.082949 0
-0.088571 0.090509 0
-0.095873 0.098662 0
-0.102997 0.107044 0
-0.109769 0.115091 0
-0.116018 0.122038 0
-0.121540 0.126901 0
-0.126096 0.128394 0
-0.129494 0.124855 0
-0.131724 0.114329 0
-0.132971 0.094895 0
-0.133393 0.064933 0
-0.132839 0.023011 0
-0.130672 -0.032594 0
-0.125744 -0.104428 0
-0.116493 -0.196043 0
-0.101065 -0.310464 0
-0.076909 -0.442472 0
-0.040745 -0.535374 0
-0.000478 -0.000261 0
0.000000 0.279456 0
0.000000 -0.000032 0
-0.006350 -0.055576 0
-0.010515 -0.036178 0
-0.012928 -0.014987 0
-0.014531 0.001746 0
-0.015852 0.014556 0
-0.017152 0.024313 0
-0.018550 0.031746 0
-0.020114 0.037404 0
-0.021934 0.041718 0
-0.024104 0.045073 0
-0.026690 0.047831 0
-0.029712 0.050320 0
-0.033148 0.052808 0
-0.036958 0.055497 0
-0.041107 0.058533 0
-0.045570 0.062029 0
-0.050327 0.066084 0
-0.055345 0.070781 0
-0.060583 0.076184 0
-0.065978 0.082329 0
-0.071445 0.089204 0
-0.076866 0.096719 0
-0.082090 0.104664 0
-0.086958 0.112669 0
-0.091316 0.120176 0
-0.095023 0.126422 0
-0.097950 0.130419 0
-0.099981 0.130913 0
-0.101070 0.126351 0
-0.101305 0.114939 0
-0.100912 0.094824 0
-0.100082 0.064233 0
-0.098763 0.021374 0
-0.096513 -0.035912 0
-0.092518 -0.110558 0
-0.085674 -0.206421 0
-0.074628 -0.327017 0
-0.057354 -0.467983 0
-0.030677 -0.568335 0
-0.000377 -0.000301 0
0.000000 0.296972 0
0.000000 -0.000030 0
-0.006205 -0.049986 0
-0.011077 -0.032454 0
-0.014228 -0.012649 0
-0.016333 0.003388 0
-0.017888 0.015913 0
-0.019201 0.025607 0
-0.020456 0.033104 0
-0.021774 0.038925 0
-0.023259 0.043495 0
-0.024998 0.047181 0
-0.027055 0.050315 0
-0.029454 0.053185 0
-0.032192 0.056033 0
-0.035242 0.059051 0
-0.038574 0.062383 0
-0.042155 0.066146 0
-0.045949 0.070432 0
-0.049913 0.075314 0
-0.053988 0.080841 0
-0.058100 0.087027 0
-0.062155 0.093836 0
-0.066034 0.101154 0
-0.069605 0.108755 0
-0.072729 0.116270 0
-0.075279 0.123155 0
-0.077154 0.128671 0
-0.078282 0.131858 0
-0.078633 0.131514 0
-0.078245 0.126180 0
-0.077259 0.114172 0
-0.075896 0.093672 0
-0.074345 0.062784 0
-0.072607 0.019442 0
-0.070396 -0.038838 0
-0.067151 -0.115267 0
-0.062106 -0.213933 0
-0.054295 -0.338785 0
-0.042156 -0.486424 0
-0.022794 -0.592727 0
-0.000291 -0.000332 0
0.000000 0.310062 0
0.000000 -0.000027 0
-0.005581 -0.044499 0
-0.010677 -0.028154 0
-0.014292 -0.009731 0
-0.016786 0.005406 0
-0.018554 0.017424 0
-0.019919 0.026881 0
-0.021100 0.034319 0
-0.022249 0.040207 0
-0.023481 0.044942 0
-0.024884 0.048869 0
-0.026518 0.052288 0
-0.028414 0.055458 0
-0.030573 0.058596 0
-0.032980 0.061879 0
-0.035608 0.065445 0
-0.038422 0.069404 0
-0.041380 0.073842 0
-0.044430 0.078819 0
-0.047509 0.084371 0
-0.050538 0.090496 0
-0.053425 0.097138 0
-0.056061 0.104169 0
-0.058331 0.111358 0
-0.060122 0.118343 0
-0.061337 0.124602 0
-0.061909 0.129425 0
-0.061810 0.131898 0
-0.061063 0.130877 0
-0.059754 0.124977 0
-0.058042 0.112590 0
-0.056135 0.091910 0
-0.054210 0.060945 0
-0.052304 0.017425 0
-0.050243 -0.041368 0
-0.047658 -0.118848 0
-0.044026 -0.219277 0
-0.038670 -0.346967 0
-0.030403 -0.499484 0
-0.016684 -0.610491 0
-0.000222 -0.000354 0
0.000000 0.319713 0
0.000000 -0.000024 0
-0.005135 -0.039310 0
-0.010098 -0.023743 0
-0.013818 -0.006540 0
-0.016463 0.007651 0
-0.018332 0.019046 0
-0.019715 0.028153 0
-0.020833 0.035434 0
-0.021846 0.041306 0
-0.022873 0.046130 0
-0.024001 0.050219 0
-0.025287 0.053844 0
-0.026763 0.057240 0
-0.028437 0.060600 0
-0.030296 0.064086 0
-0.032318 0.067825 0
-0.034467 0.071918 0
-0.036701 0.076440 0
-0.038966 0.081443 0
-0.041198 0.086949 0
-0.043321 0.092943 0
-0.045250 0.099359 0
-0.046891 0.106060 0
-0.048146 0.112816 0
-0.048927 0.119276 0
-0.049164 0.124943 0
-0.048820 0.129144 0
-0.047896 0.131012 0
-0.046447 0.129458 0
-0.044582 0.123159 0
-0.042464 0.110554 0
-0.040287 0.089840 0
-0.038213 0.058953 0
-0.036305 0.015474 0
-0.034476 -0.043484 0
-0.032498 -0.121484 0
-0.030022 -0.222921 0
-0.026581 -0.352407 0
-0.021291 -0.508409 0
-0.011965 -0.623130 0
-0.000168 -0.000370 0
0.000000 0.326708 0
0.000000 -0.000022 0
-0.004929 -0.034401 0
-0.009617 -0.019472 0
-0.013175 -0.003365 0
-0.015740 0.009920 0
-0.017567 0.020676 0
-0.018897 0.029382 0
-0.019926 0.036450 0
-0.020807 0.042247 0
-0.021653 0.047097 0
-0.022543 0.051283 0
-0.023533 0.055050 0
-0.024652 0.058607 0
-0.025910 0.062129 0
-0.027298 0.065760 0
-0.028795 0.069616 0
-0.030369 0.073788 0
-0.031977 0.078341 0
-0.033570 0.083316 0
-0.035085 0.088727 0
-0.036455 0.094548 0
-0.037603 0.100707 0
-0.038449 0.107064 0
-0.038915 0.113395 0
-0.038934 0.119362 0
-0.038460 0.124494 0
-0.037477 0.128157 0
-0.036008 0.129525 0
-0.034124 0.127562 0
-0.031944 0.120995 0
-0.029628 0.108295 0
-0.027352 0.087658 0
-0.025274 0.056963 0
-0.023474 0.013689 0
-0.021929 -0.045176 0
-0.020513 -0.123303 0
-0.019006 -0.225193 0
-0.017100 -0.355698 0
-0.014151 -0.514100 0
-0.008307 -0.631781 0
-0.000127 -0.000380 0
0.000000 0.331652 0
0.000000 -0.000019 0
-0.004892 -0.029693 0
-0.009237 -0.015498 0
-0.012465 -0.000417 0
-0.014795 0.012043 0
-0.016463 0.022202 0
-0.017669 0.030512 0
-0.018577 0.037345 0
-0.019317 0.043032 0
-0.019990 0.047865 0
-0.020666 0.052099 0
-0.021395 0.055953 0
-0.022202 0.059616 0
-0.023099 0.063246 0
-0.024077 0.066971 0
-0.025118 0.070896 0
-0.026192 0.075100 0
-0.027261 0.079641 0
-0.028278 0.084551 0
-0.029189 0.089835 0
-0.029932 0.095461 0
-0.030442 0.101352 0
-0.030653 0.107372 0
-0.030506 0.113301 0
-0.029952 0.118821 0
-0.028961 0.123485 0
-0.027536 0.126692 0
-0.025715 0.127660 0
-0.023576 0.125394 0
-0.021238 0.118662 0
-0.018856 0.105962 0
-0.016595 0.085487 0
-0.014603 0.055075 0
-0.012980 0.012130 0
-0.011746 -0.046446 0
-0.010849 -0.124407 0
-0.010165 -0.226334 0
-0.009513 -0.357262 0
-0.008462 -0.517201 0
-0.005442 -0.637282 0
-0.000095 -0.000386 0
0.000000 0.334999 0
0.000000 -0.000015 0
-0.004847 -0.025164 0
-0.008799 -0.011899 0
-0.011634 0.002193 0
-0.013663 0.013919 0
-0.015115 0.023550 0
-0.016155 0.031495 0
-0.016917 0.038098 0
-0.017509 0.043660 0
-0.018013 0.048446 0
-0.018491 0.052688 0
-0.018983 0.056587 0
-0.019514 0.060311 0
-0.020091 0.064003 0
-0.020709 0.067779 0
-0.021351 0.071731 0
-0.021990 0.075931 0
-0.022592 0.080427 0
-0.023116 0.085244 0
-0.023514 0.090380 0
-0.023733 0.095801 0
-0.023721 0.101429 0
-0.023425 0.107129 0
-0.022798 0.112693 0
-0.021809 0.117817 0
-0.020444 0.122079 0
-0.018716 0.124910 0
-0.016672 0.125565 0
-0.014395 0.123086 0
-0.012003 0.116275 0
-0.009641 0.103651 0
-0.007467 0.083406 0
-0.005623 0.053348 0
-0.004216 0.010831 0
-0.003304 -0.047307 0
-0.002884 -0.124884 0
-0.002908 -0.226528 0
-0.003306 -0.357401 0
-0.003832 -0.518171 0
-0.003161 -0.640243 0
-0.000072 -0.000388 0
0.000000 0.337087 0
0.000000 -0.000012 0
-0.004534 -0.020894 0
-0.008085 -0.008710 0
-0.010572 0.004447 0
-0.012324 0.015525 0
-0.013562 0.024695 0
-0.014430 0.032314 0
-0.015039 0.038698 0
-0.015479 0.044128 0
-0.015819 0.048847 0
-0.016110 0.053069 0
-0.016386 0.056977 0
-0.016667 0.060725 0
-0.016959 0.064441 0
-0.017257 0.068231 0
-0.017546 0.072177 0
-0.017803 0.076342 0
-0.017999 0.080767 0
-0.018098 0.085473 0
-0.018058 0.090452 0
-0.017839 0.095668 0
-0.017395 0.101044 0
-0.016687 0.106449 0
-0.015682 0.111686 0
-0.014361 0.116467 0
-0.012720 0.120392 0
-0.010785 0.122921 0
-0.008606 0.123339 0
-0.006270 0.120725 0
-0.003889 0.113908 0
-0.001600 0.101425 0
0.000447 0.081468 0
0.002109 0.051824 0
0.003269 0.009810 0
0.003847 -0.047778 0
0.003802 -0.124803 0
0.003131 -0.225912 0
0.001838 -0.356339 0
0.000024 -0.517346 0
-0.001298 -0.641114 0
-0.000056 -0.000387 0
0.000000 0.338160 0
0.000000 -0.000009 0
-0.003853 -0.017079 0
-0.007021 -0.005861 0
-0.009246 0.006432 0
-0.010784 0.016909 0
-0.011840 0.025655 0
-0.012548 0.032972 0
-0.013009 0.039147 0
-0.013301 0.044440 0
-0.013483 0.049077 0
-0.013597 0.053255 0
-0.013673 0.057144 0
-0.013724 0.060884 0
-0.013758 0.064593 0
-0.013768 0.068366 0
-0.013743 0.072278 0
-0.013663 0.076385 0
-0.013502 0.080721 0
-0.013231 0.085303 0
-0.012816 0.090121 0
-0.012223 0.095138 0
-0.011418 0.100278 0
-0.010372 0.105417 0
-0.009064 0.110366 0
-0.007483 0.114855 0
-0.005637 0.118503 0
-0.003557 0.120796 0
-0.001299 0.121050 0
0.001054 0.118368 0
0.003391 0.111606 0
0.005579 0.099315 0
0.007477 0.079696 0
0.008936 0.050526 0
0.009828 0.009094 0
0.010048 -0.047839 0
0.009525 -0.124168 0
0.008213 -0.224564 0
0.006087 -0.354294 0
0.003205 -0.515036 0
0.000295 -0.640219 0
-0.000043 -0.000383 0
0.000000 0.338389 0
0.000000 -0.000007 0
-0.003071 -0.013873 0
-0.005806 -0.003318 0
-0.007770 0.008210 0
-0.009116 0.018118 0
-0.010006 0.026458 0
-0.010565 0.033483 0
-0.010885 0.039452 0
-0.011034 0.044602 0
-0.011064 0.049143 0
-0.011010 0.053259 0
-0.010897 0.057104 0
-0.010737 0.060810 0
-0.010534 0.064485 0
-0.010284 0.068216 0
-0.009976 0.072072 0
-0.009594 0.076101 0
-0.009116 0.080335 0
-0.008519 0.084786 0
-0.007777 0.089444 0
-0.006862 0.094270 0
-0.005750 0.099193 0
-0.004420 0.104094 0
-0.002860 0.108796 0
-0.001070 0.113040 0
0.000936 0.116466 0
0.003122 0.118583 0
0.005431 0.118728 0
0.007779 0.116036 0
0.010057 0.109383 0
0.012137 0.097339 0
0.013873 0.078111 0
0.015118 0.049473 0
0.015730 0.008698 0
0.015585 -0.047475 0
0.014579 -0.122968 0
0.012634 -0.222474 0
0.009696 -0.351331 0
0.005823 -0.511554 0
0.001650 -0.637908 0
-0.000032 -0.000378 0
0.000000 0.337874 0
0.000000 -0.000005 0
-0.002409 -0.011273 0
-0.004652 -0.001162 0
-0.006296 0.009742 0
-0.007419 0.019145 0
-0.008134 0.027105 0
-0.008541 0.033851 0
-0.008719 0.039616 0
-0.008728 0.044619 0
-0.008610 0.049053 0
-0.008396 0.053089 0
-0.008105 0.056871 0
-0.007747 0.060521 0
-0.007325 0.064140 0
-0.006835 0.067808 0
-0.006269 0.071588 0
-0.005613 0.075525 0
-0.004851 0.079647 0
-0.003963 0.083963 0
-0.002930 0.088464 0
-0.001732 0.093111 0
-0.000352 0.097836 0
0.001224 0.102527 0
0.002998 0.107016 0
0.004966 0.111058 0
0.007106 0.114311 0
0.009379 0.116301 0
0.011725 0.116393 0
0.014060 0.113742 0
0.016276 0.107248 0
0.018245 0.095500 0
0.019823 0.076715 0
0.020855 0.048668 0
0.021189 0.008627 0
0.020680 -0.046688 0
0.019203 -0.121217 0
0.016650 -0.219681 0
0.012946 -0.347484 0
0.008122 -0.506989 0
0.002792 -0.634396 0
-0.000025 -0.000372 0
0.000000 0.336751 0
0.000000 -0.000004 0
-0.001880 -0.009221 0
-0.003625 0.000569 0
-0.004905 0.010977 0
-0.005765 0.019956 0
-0.006280 0.027580 0
-0.006523 0.034068 0
-0.006556 0.039639 0
-0.006424 0.044493 0
-0.006161 0.048812 0
-0.005792 0.052754 0
-0.005332 0.056455 0
-0.004787 0.060030 0
-0.004160 0.063573 0
-0.003447 0.067161 0
-0.002642 0.070850 0
-0.001735 0.074683 0
-0.000713 0.078685 0
0.000439 0.082865 0
0.001735 0.087213 0
0.003189 0.091692 0
0.004810 0.096238 0
0.006605 0.100745 0
0.008572 0.105053 0
0.010699 0.108932 0
0.012960 0.112053 0
0.015312 0.113964 0
0.017692 0.114048 0
0.020016 0.111485 0
0.022177 0.105197 0
0.024046 0.093792 0
0.025475 0.075501 0
0.026304 0.048106 0
0.026369 0.008873 0
0.025508 -0.045489 0
0.023574 -0.118937 0
0.020436 -0.216218 0
0.015997 -0.342803 0
0.010261 -0.501400 0
0.003824 -0.629786 0
-0.000021 -0.000364 0
0.000000 0.335096 0
0.000000 -0.000003 0
-0.001447 -0.007648 0
-0.002713 0.001863 0
-0.003611 0.011882 0
-0.004183 0.020521 0
-0.004480 0.027863 0
-0.004549 0.034126 0
-0.004430 0.039516 0
-0.004157 0.044225 0
-0.003752 0.048422 0
-0.003232 0.052259 0
-0.002608 0.055865 0
-0.001884 0.059349 0
-0.001063 0.062800 0
-0.000141 0.066290 0
0.000887 0.069876 0
0.002029 0.073595 0
0.003294 0.077472 0
0.004691 0.081515 0
0.006230 0.085714 0
0.007920 0.090036 0
0.009764 0.094419 0
0.011764 0.098765 0
0.013911 0.102922 0
0.016189 0.106671 0
0.018567 0.109698 0
0.020999 0.111569 0
0.023421 0.111689 0
0.025746 0.109257 0
0.027866 0.103219 0
0.029651 0.092202 0
0.030949 0.074456 0
0.031593 0.047774 0
0.031404 0.009424 0
0.030205 -0.043893 0
0.027831 -0.116145 0
0.024125 -0.212105 0
0.018967 -0.337309 0
0.012331 -0.494816 0
0.004806 -0.624135 0
-0.000019 -0.000355 0
0.000000 0.332943 0
0.000000 -0.000002 0
-0.001047 -0.006508 0
-0.001864 0.002733 0
-0.002389 0.012447 0
-0.002673 0.020826 0
-0.002748 0.027946 0
-0.002639 0.034018 0
-0.002369 0.039246 0
-0.001954 0.043814 0
-0.001409 0.047887 0
-0.000743 0.051610 0
0.000040 0.055107 0
0.000935 0.058485 0
0.001944 0.061830 0
0.003066 0.065210 0
0.004307 0.068680 0
0.005672 0.072276 0
0.007166 0.076023 0
0.008795 0.079929 0
0.010564 0.083984 0
0.012478 0.088158 0
0.014536 0.092394 0
0.016732 0.096598 0
0.019055 0.100628 0
0.021484 0.104276 0
0.023984 0.107243 0
0.026506 0.109110 0
0.028983 0.109301 0
0.031328 0.107040 0
0.033429 0.101292 0
0.035153 0.090710 0
0.036343 0.073559 0
0.036823 0.047651 0
0.036402 0.010261 0
0.034885 -0.041915 0
0.032086 -0.112857 0
0.027825 -0.207354 0
0.021951 -0.331008 0
0.014408 -0.487238 0
0.005780 -0.617456 0
-0.000018 -0.000345 0
0.000000 0.330309 0
0.000000 -0.000001 0
-0.000625 -0.005784 0
-0.001023 0.003205 0
-0.001208 0.012691 0
-0.001224 0.020880 0
-0.001088 0.027830 0
-0.000809 0.033747 0
-0.000391 0.038831 0
0.000161 0.043265 0
0.000843 0.047211 0
0.001653 0.050810 0
0.002589 0.054187 0
0.003652 0.057445 0
0.004842 0.060669 0
0.006158 0.063927 0
0.007605 0.067270 0
0.009184 0.070737 0
0.010899 0.074349 0
0.012753 0.078116 0
0.014745 0.082031 0
0.016877 0.086065 0
0.019144 0.090166 0
0.021536 0.094245 0
0.024038 0.098170 0
0.026624 0.101742 0
0.029257 0.104676 0
0.031885 0.106570 0
0.034438 0.106867 0
0.036826 0.104811 0
0.038934 0.099394 0
0.040625 0.089289 0
0.041736 0.072786 0
0.042081 0.047714 0
0.041453 0.011362 0
0.039638 -0.039576 0
0.036430 -0.109085 0
0.031620 -0.201971 0
0.025027 -0.323892 0
0.016556 -0.478645 0
0.006788 -0.609727 0
-0.000018 -0.000334 0
0.000000 0.327184 0
0.000000 -0.000001 0
-0.000168 -0.005485 0
-0.000178 0.003316 0
-0.000058 0.012647 0
0.000167 0.020706 0
0.000494 0.027531 0
0.000931 0.033321 0
0.001487 0.038277 0
0.002168 0.042581 0
0.002982 0.046395 0
0.003932 0.049863 0
0.005020 0.053108 0
0.006247 0.056233 0
0.007614 0.059324 0
0.009121 0.062447 0
0.010770 0.065654 0
0.012560 0.068982 0
0.014492 0.072455 0
0.016566 0.076083 0
0.018779 0.079859 0
0.021128 0.083759 0
0.023605 0.087735 0
0.026198 0.091704 0
0.028886 0.095540 0
0.031641 0.099057 0
0.034424 0.101982 0
0.037178 0.103929 0
0.039832 0.104361 0
0.042292 0.102544 0