# vtk DataFile Version 2.0
generated by CFD-lab course output (written by Tobias Neckel) 
ASCII

DATASET STRUCTURED_GRID
DIMENSIONS  42 42 1 
POINTS 1764 float

0.150000 0.150000 0
0.167857 0.150000 0
0.185714 0.150000 0
0.203571 0.150000 0
0.221429 0.150000 0
0.239286 0.150000 0
0.257143 0.150000 0
0.275000 0.150000 0
0.292857 0.150000 0
0.310714 0.150000 0
0.328571 0.150000 0
0.346429 0.150000 0
0.364286 0.150000 0
0.382143 0.150000 0
0.400000 0.150000 0
0.417857 0.150000 0
0.435714 0.150000 0
0.453571 0.150000 0
0.471429 0.150000 0
0.489286 0.150000 0
0.507143 0.150000 0
0.525000 0.150000 0
0.542857 0.150000 0
0.560714 0.150000 0
0.578571 0.150000 0
0.596429 0.150000 0
0.614286 0.150000 0
0.632143 0.150000 0
0.650000 0.150000 0
0.667857 0.150000 0
0.685714 0.150000 0
0.703571 0.150000 0
0.721429 0.150000 0
0.739286 0.150000 0
0.757143 0.150000 0
0.775000 0.150000 0
0.792857 0.150000 0
0.810714 0.150000 0
0.828571 0.150000 0
0.846429 0.150000 0
0.864286 0.150000 0
0.882143 0.150000 0
0.150000 0.167857 0
0.167857 0.167857 0
0.185714 0.167857 0
0.203571 0.167857 0
0.221429 0.167857 0
0.239286 0.167857 0
0.257143 0.167857 0
0.275000 0.167857 0
0.292857 0.167857 0
0.310714 0.167857 0
0.328571 0.167857 0
0.346429 0.167857 0
0.364286 0.167857 0
0.382143 0.167857 0
0.400000 0.167857 0
0.417857 0.167857 0
0.435714 0.167857 0
0.453571 0.167857 0
0.471429 0.167857 0
0.489286 0.167857 0
0.507143 0.167857 0
0.525000 0.167857 0
0.542857 0.167857 0
0.560714 0.167857 0
0.578571 0.167857 0
0.596429 0.167857 0
0.614286 0.167857 0
0.632143 0.167857 0
0.650000 0.167857 0
0.667857 0.167857 0
0.685714 0.167857 0
0.703571 0.167857 0
0.721429 0.167857 0
0.739286 0.167857 0
0.757143 0.167857 0
0.775000 0.167857 0
0.792857 0.167857 0
0.810714 0.167857 0
0.828571 0.167857 0
0.846429 0.167857 0
0.864286 0.167857 0
0.882143 0.167857 0
0.150000 0.185714 0
0.167857 0.185714 0
0.185714 0.185714 0
0.203571 0.185714 0
0.221429 0.185714 0
0.239286 0.185714 0
0.257143 0.185714 0
0.275000 0.185714 0
0.292857 0.185714 0
0.310714 0.185714 0
0.328571 0.185714 0
0.346429 0.185714 0
0.364286 0.185714 0
0.382143 0.185714 0
0.400000 0.185714 0
0.417857 0.185714 0
0.435714 0.185714 0
0.453571 0.185714 0
0.471429 0.185714 0
0.489286 0.185714 0
0.507143 0.185714 0
0.525000 0.185714 0
0.542857 0.185714 0
0.560714 0.185714 0
0.578571 0.185714 0
0.596429 0.185714 0
0.614286 0.185714 0
0.632143 0.185714 0
0.650000 0.185714 0
0.667857 0.185714 0
0.685714 0.185714 0
0.703571 0.185714 0
0.721429 0.185714 0
0.739286 0.185714 0
0.757143 0.185714 0
0.775000 0.185714 0
0.792857 0.185714 0
0.810714 0.185714 0
0.828571 0.185714 0
0.846429 0.185714 0
0.864286 0.185714 0
0.882143 0.185714 0
0.150000 0.203571 0
0.167857 0.203571 0
0.185714 0.203571 0
0.203571 0.203571 0
0.221429 0.203571 0
0.239286 0.203571 0
0.257143 0.203571 0
0.275000 0.203571 0
0.292857 0.203571 0
0.310714 0.203571 0
0.328571 0.203571 0
0.346429 0.203571 0
0.364286 0.203571 0
0.382143 0.203571 0
0.400000 0.203571 0
0.417857 0.203571 0
0.435714 0.203571 0
0.453571 0.203571 0
0.471429 0.203571 0
0.489286 0.203571 0
0.507143 0.203571 0
0.525000 0.203571 0
0.542857 0.203571 0
0.560714 0.203571 0
0.578571 0.203571 0
0.596429 0.203571 0
0.614286 0.203571 0
0.632143 0.203571 0
0.650000 0.203571 0
0.667857 0.203571 0
0.685714 0.203571 0
0.703571 0.203571 0
0.721429 0.203571 0
0.739286 0.203571 0
0.757143 0.203571 0
0.775000 0.203571 0
0.792857 0.203571 0
0.810714 0.203571 0
0.828571 0.203571 0
0.846429 0.203571 0
0.864286 0.203571 0
0.882143 0.203571 0
0.150000 0.221429 0
0.167857 0.221429 0
0.185714 0.221429 0
0.203571 0.221429 0
0.221429 0.221429 0
0.239286 0.221429 0
0.257143 0.221429 0
0.275000 0.221429 0
0.292857 0.221429 0
0.310714 0.221429 0
0.328571 0.221429 0
0.346429 0.221429 0
0.364286 0.221429 0
0.382143 0.221429 0
0.400000 0.221429 0
0.417857 0.221429 0
0.435714 0.221429 0
0.453571 0.221429 0
0.471429 0.221429 0
0.489286 0.221429 0
0.507143 0.221429 0
0.525000 0.221429 0
0.542857 0.221429 0
0.560714 0.221429 0
0.578571 0.221429 0
0.596429 0.221429 0
0.614286 0.221429 0
0.632143 0.221429 0
0.650000 0.221429 0
0.667857 0.221429 0
0.685714 0.221429 0
0.703571 0.221429 0
0.721429 0.221429 0
0.739286 0.221429 0
0.757143 0.221429 0
0.775000 0.221429 0
0.792857 0.221429 0
0.810714 0.221429 0
0.828571 0.221429 0
0.846429 0.221429 0
0.864286 0.221429 0
0.882143 0.221429 0
0.150000 0.239286 0
0.167857 0.239286 0
0.185714 0.239286 0
0.203571 0.239286 0
0.221429 0.239286 0
0.239286 0.239286 0
0.257143 0.239286 0
0.275000 0.239286 0
0.292857 0.239286 0
0.310714 0.239286 0
0.328571 0.239286 0
0.346429 0.239286 0
0.364286 0.239286 0
0.382143 0.239286 0
0.400000 0.239286 0
0.417857 0.239286 0
0.435714 0.239286 0
0.453571 0.239286 0
0.471429 0.239286 0
0.489286 0.239286 0
0.507143 0.239286 0
0.525000 0.239286 0
0.542857 0.239286 0
0.560714 0.239286 0
0.578571 0.239286 0
0.596429 0.239286 0
0.614286 0.239286 0
0.632143 0.239286 0
0.650000 0.239286 0
0.667857 0.239286 0
0.685714 0.239286 0
0.703571 0.239286 0
0.721429 0.239286 0
0.739286 0.239286 0
0.757143 0.239286 0
0.775000 0.239286 0
0.792857 0.239286 0
0.810714 0.239286 0
0.828571 0.239286 0
0.846429 0.239286 0
0.864286 0.239286 0
0.882143 0.239286 0
0.150000 0.257143 0
0.167857 0.257143 0
0.185714 0.257143 0
0.203571 0.257143 0
0.221429 0.257143 0
0.239286 0.257143 0
0.257143 0.257143 0
0.275000 0.257143 0
0.292857 0.257143 0
0.310714 0.257143 0
0.328571 0.257143 0
0.346429 0.257143 0
0.364286 0.257143 0
0.382143 0.257143 0
0.400000 0.257143 0
0.417857 0.257143 0
0.435714 0.257143 0
0.453571 0.257143 0
0.471429 0.257143 0
0.489286 0.257143 0
0.507143 0.257143 0
0.525000 0.257143 0
0.542857 0.257143 0
0.560714 0.257143 0
0.578571 0.257143 0
0.596429 0.257143 0
0.614286 0.257143 0
0.632143 0.257143 0
0.650000 0.257143 0
0.667857 0.257143 0
0.685714 0.257143 0
0.703571 0.257143 0
0.721429 0.257143 0
0.739286 0.257143 0
0.757143 0.257143 0
0.775000 0.257143 0
0.792857 0.257143 0
0.810714 0.257143 0
0.828571 0.257143 0
0.846429 0.257143 0
0.864286 0.257143 0
0.882143 0.257143 0
0.150000 0.275000 0
0.167857 0.275000 0
0.185714 0.275000 0
0.203571 0.275000 0
0.221429 0.275000 0
0.239286 0.275000 0
0.257143 0.275000 0
0.275000 0.275000 0
0.292857 0.275000 0
0.310714 0.275000 0
0.328571 0.275000 0
0.346429 0.275000 0
0.364286 0.275000 0
0.382143 0.275000 0
0.400000 0.275000 0
0.417857 0.275000 0
0.435714 0.275000 0
0.453571 0.275000 0
0.471429 0.275000 0
0.489286 0.275000 0
0.507143 0.275000 0
0.525000 0.275000 0
0.542857 0.275000 0
0.560714 0.275000 0
0.578571 0.275000 0
0.596429 0.275000 0
0.614286 0.275000 0
0.632143 0.275000 0
0.650000 0.275000 0
0.667857 0.275000 0
0.685714 0.275000 0
0.703571 0.275000 0
0.721429 0.275000 0
0.739286 0.275000 0
0.757143 0.275000 0
0.775000 0.275000 0
0.792857 0.275000 0
0.810714 0.275000 0
0.828571 0.275000 0
0.846429 0.275000 0
0.864286 0.275000 0
0.882143 0.275000 0
0.150000 0.292857 0
0.167857 0.292857 0
0.185714 0.292857 0
0.203571 0.292857 0
0.221429 0.292857 0
0.239286 0.292857 0
0.257143 0.292857 0
0.275000 0.292857 0
0.292857 0.292857 0
0.310714 0.292857 0
0.328571 0.292857 0
0.346429 0.292857 0
0.364286 0.292857 0
0.382143 0.292857 0
0.400000 0.292857 0
0.417857 0.292857 0
0.435714 0.292857 0
0.453571 0.292857 0
0.471429 0.292857 0
0.489286 0.292857 0
0.507143 0.292857 0
0.525000 0.292857 0
0.542857 0.292857 0
0.560714 0.292857 0
0.578571 0.292857 0
0.596429 0.292857 0
0.614286 0.292857 0
0.632143 0.292857 0
0.650000 0.292857 0
0.667857 0.292857 0
0.685714 0.292857 0
0.703571 0.292857 0
0.721429 0.292857 0
0.739286 0.292857 0
0.757143 0.292857 0
0.775000 0.292857 0
0.792857 0.292857 0
0.810714 0.292857 0
0.828571 0.292857 0
0.846429 0.292857 0
0.864286 0.292857 0
0.882143 0.292857 0
0.150000 0.310714 0
0.167857 0.310714 0
0.185714 0.310714 0
0.203571 0.310714 0
0.221429 0.310714 0
0.239286 0.310714 0
0.257143 0.310714 0
0.275000 0.310714 0
0.292857 0.310714 0
0.310714 0.310714 0
0.328571 0.310714 0
0.346429 0.310714 0
0.364286 0.310714 0
0.382143 0.310714 0
0.400000 0.310714 0
0.417857 0.310714 0
0.435714 0.310714 0
0.453571 0.310714 0
0.471429 0.310714 0
0.489286 0.310714 0
0.507143 0.310714 0
0.525000 0.310714 0
0.542857 0.310714 0
0.560714 0.310714 0
0.578571 0.310714 0
0.596429 0.310714 0
0.614286 0.310714 0
0.632143 0.310714 0
0.650000 0.310714 0
0.667857 0.310714 0
0.685714 0.310714 0
0.703571 0.310714 0
0.721429 0.310714 0
0.739286 0.310714 0
0.757143 0.310714 0
0.775000 0.310714 0
0.792857 0.310714 0
0.810714 0.310714 0
0.828571 0.310714 0
0.846429 0.310714 0
0.864286 0.310714 0
0.882143 0.310714 0
0.150000 0.328571 0
0.167857 0.328571 0
0.185714 0.328571 0
0.203571 0.328571 0
0.221429 0.328571 0
0.239286 0.328571 0
0.257143 0.328571 0
0.275000 0.328571 0
0.292857 0.328571 0
0.310714 0.328571 0
0.328571 0.328571 0
0.346429 0.328571 0
0.364286 0.328571 0
0.382143 0.328571 0
0.400000 0.328571 0
0.417857 0.328571 0
0.435714 0.328571 0
0.453571 0.328571 0
0.471429 0.328571 0
0.489286 0.328571 0
0.507143 0.328571 0
0.525000 0.328571 0
0.542857 0.328571 0
0.560714 0.328571 0
0.578571 0.328571 0
0.596429 0.328571 0
0.614286 0.328571 0
0.632143 0.328571 0
0.650000 0.328571 0
0.667857 0.328571 0
0.685714 0.328571 0
0.703571 0.328571 0
0.721429 0.328571 0
0.739286 0.328571 0
0.757143 0.328571 0
0.775000 0.328571 0
0.792857 0.328571 0
0.810714 0.328571 0
0.828571 0.328571 0
0.846429 0.328571 0
0.864286 0.328571 0
0.882143 0.328571 0
0.150000 0.346429 0
0.167857 0.346429 0
0.185714 0.346429 0
0.203571 0.346429 0
0.221429 0.346429 0
0.239286 0.346429 0
0.257143 0.346429 0
0.275000 0.346429 0
0.292857 0.346429 0
0.310714 0.346429 0
0.328571 0.346429 0
0.346429 0.346429 0
0.364286 0.346429 0
0.382143 0.346429 0
0.400000 0.346429 0
0.417857 0.346429 0
0.435714 0.346429 0
0.453571 0.346429 0
0.471429 0.346429 0
0.489286 0.346429 0
0.507143 0.346429 0
0.525000 0.346429 0
0.542857 0.346429 0
0.560714 0.346429 0
0.578571 0.346429 0
0.596429 0.346429 0
0.614286 0.346429 0
0.632143 0.346429 0
0.650000 0.346429 0
[...]
POINT_DATA 1764 

VECTORS velocity float
0.000000 0.000000 0
-0.000002 0.000000 0
-0.000003 0.000000 0
-0.000003 0.000000 0
-0.000003 0.000000 0
-0.000002 0.000000 0
-0.000001 0.000000 0
-0.000004 0.000000 0
-0.000005 0.000000 0
0.000004 0.000000 0
0.000009 0.000000 0
0.000011 0.000000 0
0.000013 0.000000 0
0.000014 0.000000 0
0.000014 0.000000 0
0.000015 0.000000 0
0.000015 0.000000 0
0.000015 0.000000 0
0.000014 0.000000 0
0.000014 0.000000 0
0.000014 0.000000 0
0.000014 0.000000 0
0.000014 0.000000 0
0.000014 0.000000 0
0.000014 0.000000 0
0.000014 0.000000 0
0.000015 0.000000 0
0.000015 0.000000 0
0.000015 0.000000 0
0.000016 0.000000 0
0.000016 0.000000 0
0.000016 0.000000 0
0.000016 0.000000 0
0.000016 0.000000 0
0.000016 0.000000 0
0.000015 0.000000 0
0.000013 0.000000 0
0.000010 0.000000 0
0.000006 0.000000 0
-0.000002 0.000000 0
-0.000000 0.000000 0
0.000000 0.000000 0
0.000000 0.000002 0
0.038700 -0.035387 0
0.067936 -0.020351 0
0.078952 -0.002140 0
0.073507 0.009038 0
0.062620 0.013083 0
0.051715 0.009648 0
0.032171 -0.006977 0
0.003751 -0.003004 0
-0.031471 0.026971 0
-0.075344 0.044441 0
-0.122146 0.048005 0
-0.167666 0.046485 0
-0.209817 0.043269 0
-0.247426 0.038907 0
-0.280054 0.034148 0
-0.307742 0.029443 0
-0.330823 0.025065 0
-0.349775 0.021142 0
-0.365115 0.017703 0
-0.377331 0.014713 0
-0.386837 0.012097 0
-0.393951 0.009760 0
-0.398880 0.007573 0
-0.401700 0.005390 0
-0.402357 0.003065 0
-0.400667 0.000444 0
-0.396402 -0.002632 0
-0.389162 -0.006279 0
-0.378412 -0.010583 0
-0.363479 -0.015698 0
-0.343548 -0.021783 0
-0.317688 -0.028947 0
-0.284899 -0.037203 0
-0.244255 -0.046313 0
-0.195214 -0.055513 0
-0.138311 -0.062850 0
-0.076605 -0.063750 0
-0.018513 -0.041781 0
0.017431 0.004990 0
0.000047 -0.000002 0
0.000000 -0.015876 0
0.000000 0.000004 0
0.031056 -0.067937 0
0.052241 -0.040252 0
0.061350 -0.005570 0
0.050849 0.016333 0
0.029859 0.021792 0
0.000743 0.030449 0
-0.042889 0.047963 0
-0.107578 0.063642 0
-0.160956 0.079095 0
-0.204710 0.090674 0
-0.244407 0.092322 0
-0.280778 0.087672 0
-0.312566 0.079759 0
-0.339508 0.070237 0
-0.361693 0.060316 0
-0.379482 0.050769 0
-0.393372 0.042033 0
-0.403901 0.034292 0
-0.411574 0.027556 0
-0.416831 0.021722 0
-0.420019 0.016621 0
-0.421388 0.012043 0
-0.421080 0.007749 0
-0.419154 0.003477 0
-0.415559 -0.001033 0
-0.410276 -0.005954 0
-0.403071 -0.011505 0
-0.393659 -0.017991 0
-0.381591 -0.025683 0
-0.366301 -0.034863 0
-0.347140 -0.045791 0
-0.323384 -0.058649 0
-0.294273 -0.073433 0
-0.259098 -0.089685 0
-0.217405 -0.105944 0
-0.169464 -0.118609 0
-0.117118 -0.119798 0
-0.065118 -0.094036 0
-0.016106 -0.018513 0
0.000016 0.000005 0
0.000000 -0.017426 0
0.000000 0.000004 0
0.015130 -0.087628 0
0.018489 -0.050645 0
0.007715 -0.000748 0
-0.013101 0.040529 0
-0.047268 0.063189 0
-0.094615 0.082395 0
-0.143638 0.101343 0
-0.190538 0.115064 0
-0.233477 0.124103 0
-0.267791 0.127892 0
-0.295645 0.124073 0
-0.318488 0.114644 0
-0.336726 0.101999 0
-0.350869 0.088034 0
-0.361479 0.074121 0
-0.369140 0.061122 0
-0.374406 0.049484 0
-0.377759 0.039344 0
-0.379592 0.030634 0
-0.380203 0.023158 0
-0.379798 0.016654 0
-0.378507 0.010821 0
-0.376386 0.005338 0
-0.373444 -0.000131 0
-0.369665 -0.005813 0
-0.364949 -0.012044 0
-0.359018 -0.019249 0
-0.351563 -0.027758 0
-0.342194 -0.037941 0
-0.330457 -0.050149 0
-0.315854 -0.064700 0
-0.297863 -0.081815 0
-0.275951 -0.101489 0
-0.249579 -0.123181 0
-0.218222 -0.145147 0
-0.181483 -0.163137 0
-0.139314 -0.168096 0
-0.092393 -0.142793 0
-0.042968 -0.060127 0
-0.000043 0.000010 0
0.000000 0.000243 0
0.000000 0.000002 0
-0.007580 -0.086426 0
-0.026965 -0.032838 0
-0.057454 0.026020 0
-0.085774 0.071316 0
-0.120603 0.103305 0
-0.160663 0.126820 0
-0.199634 0.143886 0
-0.234401 0.153481 0
-0.264200 0.156348 0
-0.286647 0.152842 0
-0.302752 0.143020 0
-0.313871 0.128752 0
-0.321075 0.112140 0
-0.325306 0.094990 0
-0.327356 0.078587 0
-0.327877 0.063696 0
-0.327374 0.050652 0
-0.326215 0.039478 0
-0.324649 0.029999 0
-0.322829 0.021928 0
-0.320830 0.014925 0
-0.318671 0.008631 0
-0.316328 0.002686 0
-0.313749 -0.003244 0
-0.310932 -0.009528 0
-0.307584 -0.016601 0
-0.303524 -0.024891 0
-0.298458 -0.034815 0
-0.292052 -0.046790 0
-0.283923 -0.061204 0
-0.273684 -0.078385 0
-0.260980 -0.098552 0
-0.245489 -0.121717 0
-0.226848 -0.147414 0
-0.204498 -0.174039 0
-0.177494 -0.197517 0
-0.144318 -0.208889 0
-0.102947 -0.190381 0
-0.052272 -0.110906 0
-0.000099 0.000014 0
0.000000 0.025551 0
0.000000 -0.000000 0
-0.029404 -0.060663 0
-0.066240 -0.000771 0
-0.099745 0.058060 0
-0.131433 0.103678 0
-0.163628 0.138079 0
-0.195582 0.161426 0
-0.224364 0.175081 0
-0.248177 0.179630 0
-0.266368 0.176349 0
-0.278177 0.166445 0
-0.284502 0.151297 0
-0.286626 0.132967 0
-0.285790 0.113433 0
-0.283058 0.094314 0
-0.279272 0.076693 0
-0.275057 0.061140 0
-0.270839 0.047821 0
-0.266883 0.036619 0
-0.263329 0.027248 0
-0.260220 0.019339 0
-0.257540 0.012496 0
-0.255234 0.006318 0
-0.253227 0.000416 0
-0.251437 -0.005527 0
-0.249721 -0.011977 0
-0.247889 -0.019452 0
-0.245748 -0.028375 0
-0.243036 -0.039230 0
-0.239424 -0.052477 0
-0.234536 -0.068517 0
-0.228006 -0.087643 0
-0.219561 -0.110010 0
-0.209049 -0.135621 0
-0.196314 -0.164172 0
-0.180902 -0.194501 0
-0.161670 -0.223317 0
-0.136297 -0.242643 0
-0.101133 -0.234838 0
-0.053036 -0.163074 0
-0.000138 0.000016 0
0.000000 0.052521 0
0.000000 -0.000003 0
-0.042149 -0.020186 0
-0.084998 0.037504 0
-0.120137 0.091214 0
-0.152285 0.135198 0
-0.181042 0.167454 0
-0.206171 0.187556 0
-0.226484 0.196482 0
-0.241242 0.195485 0
-0.250277 0.186348 0
-0.253756 0.170977 0
-0.252703 0.151470 0
-0.248373 0.130039 0
-0.241998 0.108571 0
-0.234625 0.088472 0
-0.227057 0.070586 0
-0.219860 0.055263 0
-0.213389 0.042479 0
-0.207828 0.031968 0
-0.203230 0.023336 0
-0.199560 0.016140 0
-0.196733 0.009939 0
-0.194642 0.004317 0
-0.193179 -0.001112 0
-0.192252 -0.006750 0
-0.191632 -0.013075 0
-0.191237 -0.020574 0
-0.190901 -0.029745 0
-0.190393 -0.041138 0
-0.189367 -0.055289 0
-0.187377 -0.072622 0
-0.183973 -0.093360 0
-0.178847 -0.117509 0
-0.171944 -0.144964 0
-0.163318 -0.175561 0
-0.152755 -0.208683 0
-0.139284 -0.242123 0
-0.120498 -0.269425 0
-0.092092 -0.273642 0
-0.049607 -0.212039 0
-0.000162 0.000018 0
0.000000 0.078591 0
0.000000 -0.000005 0
-0.045905 0.024335 0
-0.088173 0.077217 0
-0.124295 0.125347 0
-0.154998 0.164583 0
-0.180115 0.191965 0
-0.199668 0.206868 0
-0.213377 0.210151 0
-0.221225 0.203423 0
-0.223556 0.188864 0
-0.221061 0.168871 0
-0.214880 0.145914 0
-0.206253 0.122262 0
-0.196353 0.099685 0
-0.186161 0.079373 0
-0.176418 0.061928 0
-0.167625 0.047473 0
-0.160069 0.035789 0
-0.153862 0.026459 0
-0.148980 0.018980 0
-0.145311 0.012843 0
-0.142700 0.007577 0
-0.140988 0.002765 0
-0.140037 -0.001973 0
-0.139735 -0.007075 0
-0.139939 -0.012993 0
-0.140620 -0.020182 0
-0.141703 -0.029218 0
-0.143019 -0.040765 0
-0.144224 -0.055493 0
-0.144774 -0.073911 0
-0.144038 -0.096173 0
-0.141562 -0.122039 0
-0.137300 -0.151149 0
-0.131471 -0.183360 0
-0.124127 -0.218535 0
-0.114684 -0.255575 0
-0.101153 -0.289836 0
-0.079297 -0.305729 0
-0.043776 -0.255165 0
-0.000171 0.000019 0
0.000000 0.102131 0
0.000000 -0.000007 0
-0.043134 0.067987 0
-0.083447 0.115894 0
-0.117855 0.158039 0
-0.145861 0.191018 0
-0.167295 0.212124 0
-0.182294 0.220817 0
-0.191032 0.218039 0
-0.193930 0.205665 0
-0.191685 0.186183 0
-0.185266 0.162301 0
-0.175866 0.136662 0
-0.164689 0.111512 0
-0.152834 0.088479 0
-0.141203 0.068537 0
-0.130468 0.052050 0
-0.121072 0.038915 0
-0.113256 0.028716 0
-0.107092 0.020878 0
-0.102507 0.014784 0
-0.099322 0.009860 0
-0.097300 0.005617 0
-0.096198 0.001654 0
-0.095807 -0.002365 0
-0.095995 -0.006848 0
-0.096712 -0.012190 0
-0.097993 -0.018810 0
-0.099892 -0.027345 0
-0.102377 -0.038618 0
-0.105184 -0.053535 0
-0.107709 -0.072808 0
-0.109111 -0.096572 0
-0.108719 -0.124247 0
-0.106450 -0.155055 0
-0.102615 -0.188734 0
-0.097460 -0.225470 0
-0.090800 -0.265097 0
-0.081294 -0.304812 0
-0.065280 -0.331019 0
-0.036979 -0.291336 0
-0.000166 0.000019 0
0.000000 0.122368 0
0.000000 -0.000007 0
-0.037422 0.107782 0
-0.074190 0.151939 0
-0.105200 0.187761 0
-0.129743 0.214024 0
-0.147578 0.228398 0
-0.158864 0.230604 0
-0.163973 0.221787 0
-0.163543 0.204077 0
-0.158449 0.180199 0
-0.149761 0.153051 0
-0.138655 0.125337 0
-0.126262 0.099229 0
-0.113586 0.076199 0
-0.101435 0.057007 0
-0.090403 0.041797 0
-0.080888 0.030261 0
-0.073136 0.021810 0
-0.067263 0.015710 0
-0.063215 0.011210 0
-0.060791 0.007636 0
-0.059686 0.004453 0
-0.059561 0.001271 0
-0.060093 -0.002176 0
-0.060998 -0.006170 0
-0.062294 -0.010996 0
-0.064030 -0.017003 0
-0.066344 -0.024835 0
-0.069371 -0.035473 0
-0.073020 -0.050160 0
-0.076735 -0.069984 0
-0.079531 -0.095164 0
-0.080559 -0.124700 0
-0.079723 -0.157254 0
-0.077366 -0.192350 0
-0.073820 -0.230350 0
-0.069179 -0.271740 0
-0.062730 -0.315355 0
-0.051648 -0.350044 0
-0.030148 -0.320446 0
-0.000152 0.000019 0
0.000000 0.139110 0
0.000000 -0.000008 0
-0.030962 0.142177 0
-0.062700 0.183671 0
-0.089369 0.213592 0
-0.110084 0.233397 0
-0.124525 0.241245 0
-0.132814 0.237212 0
-0.135376 0.222718 0
-0.132908 0.200142 0
-0.126315 0.172401 0
-0.116648 0.142507 0
-0.104998 0.113163 0
-0.092386 0.086443 0
-0.079697 0.063652 0
-0.067625 0.045354 0
-0.056669 0.031504 0
-0.047184 0.021648 0
-0.039461 0.015091 0
-0.033789 0.010956 0
-0.030185 0.008311 0
-0.028464 0.006331 0
-0.028279 0.004387 0
-0.029244 0.002062 0
-0.030982 -0.000927 0
-0.033023 -0.004648 0
-0.035275 -0.009159 0
-0.037763 -0.014759 0
-0.040585 -0.022004 0
-0.043946 -0.031942 0
-0.047903 -0.046171 0
-0.052031 -0.066296 0
-0.055347 -0.092749 0
-0.057009 -0.124055 0
-0.057028 -0.158247 0
-0.055730 -0.194636 0
-0.053441 -0.233658 0
-0.050384 -0.276187 0
-0.046312 -0.322343 0
-0.039269 -0.363602 0
-0.023818 -0.342984 0
-0.000134 0.000019 0
0.000000 0.152516 0
0.000000 -0.000008 0
-0.024194 0.170482 0
-0.050327 0.210346 0
-0.072300 0.235146 0
-0.089140 0.249179 0
-0.100485 0.251128 0
-0.106406 0.241456 0
-0.107292 0.221881 0
-0.103793 0.195016 0
-0.096749 0.163939 0
-0.087103 0.131734 0
-0.075815 0.101075 0
-0.063772 0.073928 0
-0.051728 0.051438 0
-0.040249 0.033980 0
-0.029716 0.021357 0
-0.020426 0.013053 0
-0.012752 0.008415 0
-0.007337 0.006435 0
-0.004217 0.005885 0
-0.003060 0.005730 0
-0.003479 0.005233 0
-0.005108 0.003975 0
-0.007635 0.001603 0
-0.010826 -0.001877 0
-0.014273 -0.006256 0
-0.017779 -0.011693 0
-0.021370 -0.018652 0
-0.025189 -0.028155 0
-0.029257 -0.042075 0
-0.033210 -0.062540 0
-0.036210 -0.090186 0
-0.037739 -0.123019 0
-0.038058 -0.158532 0
-0.037439 -0.195937 0
-0.036142 -0.235696 0
-0.034408 -0.278870 0
-0.032256 -0.326471 0
-0.028487 -0.372538 0
-0.018233 -0.359715 0
-0.000115 0.000018 0
0.000000 0.162927 0
0.000000 -0.000008 0
-0.017412 0.192505 0
-0.037860 0.231777 0
-0.055145 0.252404 0
-0.068270 0.261582 0
-0.076873 0.258511 0
-0.080972 0.244018 0
-0.080879 0.220105 0
-0.077138 0.189599 0
-0.070454 0.155710 0
-0.061618 0.121573 0
-0.051429 0.089832 0
-0.040629 0.062355 0
-0.029837 0.040129 0
-0.019477 0.023343 0
-0.009696 0.011681 0
-0.000849 0.004684 0
0.005850 0.002002 0
0.010290 0.002421 0
0.012704 0.004034 0
0.013458 0.005593 0
0.012837 0.006435 0
0.011097 0.006218 0
0.008453 0.004791 0
0.004951 0.001990 0
0.000865 -0.002206 0
-0.003434 -0.007662 0
-0.007814 -0.014594 0
-0.012108 -0.024056 0
-0.016115 -0.038150 0
-0.019380 -0.059343 0
-0.021350 -0.088219 0
-0.022162 -0.122207 0
-0.022345 -0.158547 0
-0.022090 -0.196553 0
-0.021564 -0.236689 0
-0.020966 -0.280073 0
-0.020431 -0.328264 0
-0.019321 -0.377625 0
-0.013448 -0.371471 0
-0.000097 0.000017 0
0.000000 0.170747 0
0.000000 -0.000008 0
-0.010813 0.208342 0
-0.025733 0.248079 0
-0.038526 0.265555 0
-0.048195 0.270906 0
-0.054411 0.263831 0
-0.057150 0.245461 0
-0.056627 0.218047 0
-0.053252 0.184592 0
-0.047560 0.148419 0
-0.040163 0.112709 0
-0.031687 0.080086 0
-0.022726 0.052335 0
-0.013751 0.030285 0
-0.004908 0.013839 0
0.003517 0.002729 0
0.010291 -0.002493 0
0.014912 -0.002724 0
0.017984 -0.000419 0
0.019818 0.002717 0
0.020482 0.005597 0
0.020035 0.007593 0
0.018569 0.008359 0
0.016213 0.007750 0
0.013104 0.005710 0
0.009276 0.002129 0
0.004904 -0.003014 0
0.000351 -0.009979 0
-0.003975 -0.019854 0
-0.007436 -0.034802 0
-0.009347 -0.057304 0
-0.009727 -0.087405 0
-0.009516 -0.122024 0
-0.009312 -0.158604 0
-0.009208 -0.196718 0
-0.009282 -0.236820 0
-0.009672 -0.280003 0
-0.010538 -0.328117 0
-0.011612 -0.379520 0
-0.009409 -0.379035 0
-0.000081 0.000017 0
0.000000 0.176374 0
0.000000 -0.000007 0
-0.004535 0.218237 0
-0.014138 0.259490 0
-0.022714 0.274866 0
-0.029207 0.277468 0
-0.033348 0.267466 0
-0.035084 0.246233 0
-0.034541 0.216207 0
-0.031982 0.180532 0
-0.027763 0.142621 0
-0.022303 0.105700 0
-0.016057 0.072396 0
-0.009480 0.044419 0
-0.002743 0.022311 0
0.003801 0.006074 0
0.009399 -0.003519 0
0.013070 -0.006711 0
0.015647 -0.005691 0
0.017569 -0.002485 0
0.018945 0.001537 0
0.019634 0.005377 0
0.019517 0.008348 0
0.018542 0.010040 0
0.016736 0.010256 0
0.014189 0.008926 0
0.011013 0.005993 0
0.007298 0.001263 0
0.003406 -0.005714 0
-0.000021 -0.016268 0
-0.001962 -0.032778 0
-0.001722 -0.057052 0
-0.000237 -0.088051 0
0.000994 -0.122621 0
0.001648 -0.158854 0
0.001704 -0.196583 0
0.001140 -0.236225 0
-0.000114 -0.278816 0
-0.002236 -0.326324 0
-0.005125 -0.378755 0
-0.006004 -0.383083 0
-0.000069 0.000016 0
0.000000 0.180155 0
0.000000 -0.000007 0
0.001233 0.222480 0
-0.003143 0.266257 0
-0.007751 0.280624 0
-0.011316 0.281541 0
-0.013619 0.269708 0
-0.014597 0.246654 0
-0.014299 0.214944 0
-0.012852 0.177813 0
-0.010437 0.138741 0
-0.007279 0.101003 0
-0.003661 0.067262 0
0.000094 0.039021 0
0.003818 0.017005 0
0.007080 0.001696 0
0.009255 -0.006539 0
0.010599 -0.008741 0
0.011526 -0.007224 0
0.012295 -0.003717 0
0.012990 0.000652 0
0.013485 0.005024 0
0.013567 0.008686 0
0.013074 0.011140 0
0.011934 0.012103 0
0.010166 0.011433 0
0.007877 0.009021 0
0.005272 0.004593 0
0.002740 -0.002660 0
0.001360 -0.014486 0
0.002134 -0.033101 0
0.004899 -0.059029 0
0.007971 -0.090121 0
0.010095 -0.123909 0
0.011157 -0.159314 0
0.011172 -0.196210 0
0.010147 -0.235001 0
0.008056 -0.276627 0
0.004787 -0.323106 0
0.000408 -0.375752 0
-0.003097 -0.384160 0
-0.000060 0.000015 0
0.000000 0.182376 0
0.000000 -0.000006 0
0.006495 0.221381 0
0.007218 0.268474 0
0.006387 0.283040 0
0.005581 0.283336 0
0.005005 0.270747 0
0.004697 0.246914 0
0.004653 0.214463 0
0.004851 0.176670 0
0.005265 0.137048 0
0.005848 0.098924 0
0.006490 0.065023 0
0.007023 0.036940 0
0.007166 0.015325 0
0.006883 0.000636 0
0.006274 -0.007038 0
0.005696 -0.008982 0
0.005118 -0.007388 0
0.004697 -0.003949 0
0.004525 0.000347 0
0.004560 0.004800 0
0.004634 0.008758 0
0.004529 0.011674 0
0.004093 0.013165 0
0.003290 0.012982 0
0.002229 0.010887 0
0.001213 0.006400 0
0.000902 -0.001802 0
0.002668 -0.015662 0
0.006643 -0.036317 0
0.011519 -0.062889 0
0.015679 -0.093247 0
0.018472 -0.125807 0
0.019803 -0.159932 0
0.019699 -0.195573 0
0.018180 -0.233109 0
0.015239 -0.273456 0
0.010861 -0.318676 0
0.005115 -0.370871 0
-0.000546 -0.382675 0
-0.000054 0.000015 0
0.000000 0.183250 0
0.000000 -0.000005 0
0.011411 0.215262 0
0.016995 0.266365 0
0.019778 0.282260 0
0.021620 0.282923 0
0.022745 0.270593 0
0.023147 0.247007 0
0.022825 0.214790 0
0.021821 0.177201 0
0.020225 0.137744 0
0.018151 0.099778 0
0.015684 0.066087 0
0.012865 0.038345 0
0.009641 0.017145 0
0.006106 0.002589 0
0.002819 -0.005353 0
0.000411 -0.007585 0
-0.001541 -0.006224 0
-0.003048 -0.003124 0
-0.004076 0.000788 0
-0.004587 0.004915 0
-0.004662 0.008717 0
-0.004481 0.011681 0
-0.004199 0.013342 0
-0.003854 0.013297 0
-0.003295 0.011098 0
-0.002092 0.005920 0
0.000892 -0.004116 0
0.006131 -0.020226 0
0.012604 -0.041952 0
0.018764 -0.068066 0
0.023577 -0.097074 0
0.026696 -0.128033 0
0.028065 -0.160540 0
0.027696 -0.194588 0
0.025604 -0.230542 0
0.021798 -0.269308 0
0.016293 -0.312982 0
0.009177 -0.364345 0
0.001737 -0.379045 0
-0.000049 0.000014 0
0.000000 0.182921 0
0.000000 -0.000005 0
0.016000 0.204386 0
0.026253 0.260107 0
0.032535 0.278415 0
0.036925 0.280369 0
0.039752 0.269219 0
0.040971 0.246834 0
0.040559 0.215789 0
0.038589 0.179270 0
0.035238 0.140718 0
0.030766 0.103465 0
0.025474 0.070308 0
0.019657 0.042983 0
0.013515 0.022084 0
0.007255 0.007459 0
0.001330 -0.001342 0
-0.003237 -0.004622 0
-0.006453 -0.003929 0
-0.008814 -0.001414 0
-0.010463 0.001886 0
-0.011367 0.005386 0
-0.011553 0.008652 0
-0.011089 0.011210 0
-0.010036 0.012539 0
-0.008350 0.012079 0
-0.005770 0.009125 0
-0.001546 0.002213 0
0.004986 -0.010025 0
0.012674 -0.027374 0
0.020396 -0.048950 0
0.027051 -0.073863 0
0.032045 -0.101179 0
0.035154 -0.130295 0
0.036310 -0.160932 0
0.035493 -0.193113 0
0.032702 -0.227211 0
0.027954 -0.264145 0
0.021295 -0.306055 0
0.012849 -0.356315 0
0.003798 -0.373498 0
-0.000046 0.000014 0
0.000000 0.181512 0
0.000000 -0.000004 0
0.020202 0.189009 0
0.034937 0.249831 0
0.044647 0.271588 0
0.051531 0.275706 0
0.056097 0.266547 0
0.058305 0.246199 0
0.058104 0.217172 0
0.055573 0.182522 0
0.050948 0.145567 0
0.044614 0.109543 0
0.037069 0.077196 0
0.028860 0.050303 0
0.020435 0.029547 0
0.012141 0.014774 0
0.004303 0.005139 0
-0.002519 0.000198 0
-0.007336 -0.000646 0
-0.010456 0.000886 0
-0.012459 0.003341 0
-0.013488 0.006006 0
-0.013562 0.008439 0
-0.012644 0.010164 0
-0.010664 0.010603 0
-0.007430 0.009031 0
-0.002295 0.004294 0
0.004928 -0.004836 0
0.013432 -0.018336 0
0.022058 -0.035637 0
0.030005 -0.056328 0
0.036567 -0.079714 0
0.041340 -0.105177 0
0.044119 -0.132297 0
0.044800 -0.160879 0
0.043329 -0.190980 0
0.039687 -0.223003 0
0.033897 -0.257902 0
0.026033 -0.297877 0
0.016255 -0.346847 0
0.005689 -0.366196 0
-0.000044 0.000013 0
0.000000 0.179122 0
0.000000 -0.000003 0
0.023867 0.169449 0
0.042855 0.235661 0
0.055959 0.261820 0
0.065340 0.268918 0
0.071731 0.262445 0
0.075155 0.244827 0
0.075545 0.218522 0
0.072972 0.186427 0
0.067708 0.151676 0
0.060225 0.117344 0
0.051173 0.086062 0
0.041294 0.059618 0
0.031256 0.038803 0
0.021592 0.023590 0
0.012685 0.013318 0
0.004672 0.007016 0
-0.001681 0.004008 0
-0.005989 0.003709 0
-0.008440 0.004918 0
-0.009420 0.006489 0
-0.009124 0.007808 0
-0.007506 0.008313 0
-0.004307 0.007325 0
0.000839 0.003710 0
0.007974 -0.003233 0
0.016464 -0.013514 0
0.025270 -0.027155 0
0.033790 -0.043947 0
0.041338 -0.063459 0
0.047391 -0.085198 0
0.051604 -0.108731 0
0.053754 -0.133755 0
0.053700 -0.160142 0
0.051359 -0.188000 0
0.046699 -0.217780 0
0.039748 -0.250491 0
0.030608 -0.288413 0
0.019482 -0.335970 0
0.007455 -0.357243 0
-0.000043 0.000013 0
0.000000 0.175823 0
0.000000 -0.000002 0
0.026763 0.146154 0
0.049666 0.217739 0
0.066137 0.249103 0
0.078086 0.259934 0
0.086448 0.256732 0
0.091359 0.242386 0
0.092764 0.219354 0
0.090726 0.190358 0
0.085526 0.158314 0
0.077685 0.126078 0
0.067942 0.096128 0
0.057160 0.070220 0
0.046164 0.049248 0
0.035640 0.033345 0
0.026097 0.022059 0
0.017801 0.014564 0
0.010900 0.010015 0
0.005742 0.007645 0
0.002674 0.006772 0
0.001567 0.006689 0
0.002256 0.006525 0
0.004693 0.005347 0
0.009127 0.002258 0
0.015476 -0.003251 0
0.023056 -0.011331 0
0.031327 -0.022132 0
0.039698 -0.035662 0
0.047544 -0.051704 0
0.054303 -0.069930 0
0.059529 -0.089980 0
0.062885 -0.111540 0
0.064127 -0.134394 0
0.063085 -0.158484 0
0.059656 -0.183978 0
0.053803 -0.211392 0
0.045566 -0.241811 0
0.035073 -0.277611 0
0.022572 -0.323694 0
0.009125 -0.346714 0
-0.000043 0.000012 0
0.000000 0.171666 0
0.000000 -0.000001 0
0.028568 0.119783 0
0.054857 0.196287 0
0.074639 0.233401 0
0.089305 0.248608 0
0.099866 0.249172 0
0.106581 0.238511 0
0.109442 0.219156 0
0.108512 0.193665 0
0.104073 0.164717 0
0.096660 0.134927 0
0.087040 0.106588 0
0.076126 0.081396 0
0.064828 0.060322 0
0.053935 0.043657 0
0.044059 0.031157 0
0.035594 0.022214 0
0.028729 0.016067 0
0.023618 0.011935 0
0.020374 0.009094 0
0.019156 0.006908 0
0.020024 0.004681 0
0.022963 0.001442 0
0.027795 -0.003458 0
0.034011 -0.010220 0
0.041155 -0.019085 0