# vtk DataFile Version 2.0
generated by CFD-lab course output (written by Tobias Neckel) 
ASCII

DATASET STRUCTURED_GRID
DIMENSIONS  42 42 1 
POINTS 1764 float

0.150000 0.150000 0
0.167857 0.150000 0
0.185714 0.150000 0
0.203571 0.150000 0
0.221429 0.150000 0
0.239286 0.150000 0
0.257143 0.150000 0
0.275000 0.150000 0
0.292857 0.150000 0
0.310714 0.150000 0
0.328571 0.150000 0
0.346429 0.150000 0
0.364286 0.150000 0
0.382143 0.150000 0
0.400000 0.150000 0
0.417857 0.150000 0
0.435714 0.150000 0
0.453571 0.150000 0
0.471429 0.150000 0
0.489286 0.150000 0
0.507143 0.150000 0
0.525000 0.150000 0
0.542857 0.150000 0
0.560714 0.150000 0
0.578571 0.150000 0
0.596429 0.150000 0
0.614286 0.150000 0
0.632143 0.150000 0
0.650000 0.150000 0
0.667857 0.150000 0
0.685714 0.150000 0
0.703571 0.150000 0
0.721429 0.150000 0
0.739286 0.150000 0
0.757143 0.150000 0
0.775000 0.150000 0
0.792857 0.150000 0
0.810714 0.150000 0
0.828571 0.150000 0
0.846429 0.150000 0
0.864286 0.150000 0
0.882143 0.150000 0
0.150000 0.167857 0
0.167857 0.167857 0
0.185714 0.167857 0
0.203571 0.167857 0
0.221429 0.167857 0
0.239286 0.167857 0
0.257143 0.167857 0
0.275000 0.167857 0
0.292857 0.167857 0
0.310714 0.167857 0
0.328571 0.167857 0
0.346429 0.167857 0
0.364286 0.167857 0
0.382143 0.167857 0
0.400000 0.167857 0
0.417857 0.167857 0
0.435714 0.167857 0
0.453571 0.167857 0
0.471429 0.167857 0
0.489286 0.167857 0
0.507143 0.167857 0
0.525000 0.167857 0
0.542857 0.167857 0
0.560714 0.167857 0
0.578571 0.167857 0
0.596429 0.167857 0
0.614286 0.167857 0
0.632143 0.167857 0
0.650000 0.167857 0
0.667857 0.167857 0
0.685714 0.167857 0
0.703571 0.167857 0
0.721429 0.167857 0
0.739286 0.167857 0
0.757143 0.167857 0
0.775000 0.167857 0
0.792857 0.167857 0
0.810714 0.167857 0
0.828571 0.167857 0
0.846429 0.167857 0
0.864286 0.167857 0
0.882143 0.167857 0
0.150000 0.185714 0
0.167857 0.185714 0
0.185714 0.185714 0
0.203571 0.185714 0
0.221429 0.185714 0
0.239286 0.185714 0
0.257143 0.185714 0
0.275000 0.185714 0
0.292857 0.185714 0
0.310714 0.185714 0
0.328571 0.185714 0
0.346429 0.185714 0
0.364286 0.185714 0
0.382143 0.185714 0
0.400000 0.185714 0
0.417857 0.185714 0
0.435714 0.185714 0
0.453571 0.185714 0
0.471429 0.185714 0
0.489286 0.185714 0
0.507143 0.185714 0
0.525000 0.185714 0
0.542857 0.185714 0
0.560714 0.185714 0
0.578571 0.185714 0
0.596429 0.185714 0
0.614286 0.185714 0
0.632143 0.185714 0
0.650000 0.185714 0
0.667857 0.185714 0
0.685714 0.185714 0
0.703571 0.185714 0
0.721429 0.185714 0
0.739286 0.185714 0
0.757143 0.185714 0
0.775000 0.185714 0
0.792857 0.185714 0
0.810714 0.185714 0
0.828571 0.185714 0
0.846429 0.185714 0
0.864286 0.185714 0
0.882143 0.185714 0
0.150000 0.203571 0
0.167857 0.203571 0
0.185714 0.203571 0
0.203571 0.203571 0
0.221429 0.203571 0
0.239286 0.203571 0
0.257143 0.203571 0
0.275000 0.203571 0
0.292857 0.203571 0
0.310714 0.203571 0
0.328571 0.203571 0
0.346429 0.203571 0
0.364286 0.203571 0
0.382143 0.203571 0
0.400000 0.203571 0
0.417857 0.203571 0
0.435714 0.203571 0
0.453571 0.203571 0
0.471429 0.203571 0
0.489286 0.203571 0
0.507143 0.203571 0
0.525000 0.203571 0
0.542857 0.203571 0
0.560714 0.203571 0
0.578571 0.203571 0
0.596429 0.203571 0
0.614286 0.203571 0
0.632143 0.203571 0
0.650000 0.203571 0
0.667857 0.203571 0
0.685714 0.203571 0
0.703571 0.203571 0
0.721429 0.203571 0
0.739286 0.203571 0
0.757143 0.203571 0
0.775000 0.203571 0
0.792857 0.203571 0
0.810714 0.203571 0
0.828571 0.203571 0
0.846429 0.203571 0
0.864286 0.203571 0
0.882143 0.203571 0
0.150000 0.221429 0
0.167857 0.221429 0
0.185714 0.221429 0
0.203571 0.221429 0
0.221429 0.221429 0
0.239286 0.221429 0
0.257143 0.221429 0
0.275000 0.221429 0
0.292857 0.221429 0
0.310714 0.221429 0
0.328571 0.221429 0
0.346429 0.221429 0
0.364286 0.221429 0
0.382143 0.221429 0
0.400000 0.221429 0
0.417857 0.221429 0
0.435714 0.221429 0
0.453571 0.221429 0
0.471429 0.221429 0
0.489286 0.221429 0
0.507143 0.221429 0
0.525000 0.221429 0
0.542857 0.221429 0
0.560714 0.221429 0
0.578571 0.221429 0
0.596429 0.221429 0
0.614286 0.221429 0
0.632143 0.221429 0
0.650000 0.221429 0
0.667857 0.221429 0
0.685714 0.221429 0
0.703571 0.221429 0
0.721429 0.221429 0
0.739286 0.221429 0
0.757143 0.221429 0
0.775000 0.221429 0
0.792857 0.221429 0
0.810714 0.221429 0
0.828571 0.221429 0
0.846429 0.221429 0
0.864286 0.221429 0
0.882143 0.221429 0
0.150000 0.239286 0
0.167857 0.239286 0
0.185714 0.239286 0
0.203571 0.239286 0
0.221429 0.239286 0
0.239286 0.239286 0
0.257143 0.239286 0
0.275000 0.239286 0
0.292857 0.239286 0
0.310714 0.239286 0
0.328571 0.239286 0
0.346429 0.239286 0
0.364286 0.239286 0
0.382143 0.239286 0
0.400000 0.239286 0
0.417857 0.239286 0
0.435714 0.239286 0
0.453571 0.239286 0
0.471429 0.239286 0
0.489286 0.239286 0
0.507143 0.239286 0
0.525000 0.239286 0
0.542857 0.239286 0
0.560714 0.239286 0
0.578571 0.239286 0
0.596429 0.239286 0
0.614286 0.239286 0
0.632143 0.239286 0
0.650000 0.239286 0
0.667857 0.239286 0
0.685714 0.239286 0
0.703571 0.239286 0
0.721429 0.239286 0
0.739286 0.239286 0
0.757143 0.239286 0
0.775000 0.239286 0
0.792857 0.239286 0
0.810714 0.239286 0
0.828571 0.239286 0
0.846429 0.239286 0
0.864286 0.239286 0
0.882143 0.239286 0
0.150000 0.257143 0
0.167857 0.257143 0
0.185714 0.257143 0
0.203571 0.257143 0
0.221429 0.257143 0
0.239286 0.257143 0
0.257143 0.257143 0
0.275000 0.257143 0
0.292857 0.257143 0
0.310714 0.257143 0
0.328571 0.257143 0
0.346429 0.257143 0
0.364286 0.257143 0
0.382143 0.257143 0
0.400000 0.257143 0
0.417857 0.257143 0
0.435714 0.257143 0
0.453571 0.257143 0
0.471429 0.257143 0
0.489286 0.257143 0
0.507143 0.257143 0
0.525000 0.257143 0
0.542857 0.257143 0
0.560714 0.257143 0
0.578571 0.257143 0
0.596429 0.257143 0
0.614286 0.257143 0
0.632143 0.257143 0
0.650000 0.257143 0
0.667857 0.257143 0
0.685714 0.257143 0
0.703571 0.257143 0
0.721429 0.257143 0
0.739286 0.257143 0
0.757143 0.257143 0
0.775000 0.257143 0
0.792857 0.257143 0
0.810714 0.257143 0
0.828571 0.257143 0
0.846429 0.257143 0
0.864286 0.257143 0
0.882143 0.257143 0
0.150000 0.275000 0
0.167857 0.275000 0
0.185714 0.275000 0
0.203571 0.275000 0
0.221429 0.275000 0
0.239286 0.275000 0
0.257143 0.275000 0
0.275000 0.275000 0
0.292857 0.275000 0
0.310714 0.275000 0
0.328571 0.275000 0
0.346429 0.275000 0
0.364286 0.275000 0
0.382143 0.275000 0
0.400000 0.275000 0
0.417857 0.275000 0
0.435714 0.275000 0
0.453571 0.275000 0
0.471429 0.275000 0
0.489286 0.275000 0
0.507143 0.275000 0
0.525000 0.275000 0
0.542857 0.275000 0
0.560714 0.275000 0
0.578571 0.275000 0
0.596429 0.275000 0
0.614286 0.275000 0
0.632143 0.275000 0
0.650000 0.275000 0
0.667857 0.275000 0
0.685714 0.275000 0
0.703571 0.275000 0
0.721429 0.275000 0
0.739286 0.275000 0
0.757143 0.275000 0
0.775000 0.275000 0
0.792857 0.275000 0
0.810714 0.275000 0
0.828571 0.275000 0
0.846429 0.275000 0
0.864286 0.275000 0
0.882143 0.275000 0
0.150000 0.292857 0
0.167857 0.292857 0
0.185714 0.292857 0
0.203571 0.292857 0
0.221429 0.292857 0
0.239286 0.292857 0
0.257143 0.292857 0
0.275000 0.292857 0
0.292857 0.292857 0
0.310714 0.292857 0
0.328571 0.292857 0
0.346429 0.292857 0
0.364286 0.292857 0
0.382143 0.292857 0
0.400000 0.292857 0
0.417857 0.292857 0
0.435714 0.292857 0
0.453571 0.292857 0
0.471429 0.292857 0
0.489286 0.292857 0
0.507143 0.292857 0
0.525000 0.292857 0
0.542857 0.292857 0
0.560714 0.292857 0
0.578571 0.292857 0
0.596429 0.292857 0
0.614286 0.292857 0
0.632143 0.292857 0
0.650000 0.292857 0
0.667857 0.292857 0
0.685714 0.292857 0
0.703571 0.292857 0
0.721429 0.292857 0
0.739286 0.292857 0
0.757143 0.292857 0
0.775000 0.292857 0
0.792857 0.292857 0
0.810714 0.292857 0
0.828571 0.292857 0
0.846429 0.292857 0
0.864286 0.292857 0
0.882143 0.292857 0
0.150000 0.310714 0
0.167857 0.310714 0
0.185714 0.310714 0
0.203571 0.310714 0
0.221429 0.310714 0
0.239286 0.310714 0
0.257143 0.310714 0
0.275000 0.310714 0
0.292857 0.310714 0
0.310714 0.310714 0
0.328571 0.310714 0
0.346429 0.310714 0
0.364286 0.310714 0
0.382143 0.310714 0
0.400000 0.310714 0
0.417857 0.310714 0
0.435714 0.310714 0
0.453571 0.310714 0
0.471429 0.310714 0
0.489286 0.310714 0
0.507143 0.310714 0
0.525000 0.310714 0
0.542857 0.310714 0
0.560714 0.310714 0
0.578571 0.310714 0
0.596429 0.310714 0
0.614286 0.310714 0
0.632143 0.310714 0
0.650000 0.310714 0
0.667857 0.310714 0
0.685714 0.310714 0
0.703571 0.310714 0
0.721429 0.310714 0
0.739286 0.310714 0
0.757143 0.310714 0
0.775000 0.310714 0
0.792857 0.310714 0
0.810714 0.310714 0
0.828571 0.310714 0
0.846429 0.310714 0
0.864286 0.310714 0
0.882143 0.310714 0
0.150000 0.328571 0
0.167857 0.328571 0
0.185714 0.328571 0
0.203571 0.328571 0
0.221429 0.328571 0
0.239286 0.328571 0
0.257143 0.328571 0
0.275000 0.328571 0
0.292857 0.328571 0
0.310714 0.328571 0
0.328571 0.328571 0
0.346429 0.328571 0
0.364286 0.328571 0
0.382143 0.328571 0
0.400000 0.328571 0
0.417857 0.328571 0
0.435714 0.328571 0
0.453571 0.328571 0
0.471429 0.328571 0
0.489286 0.328571 0
0.507143 0.328571 0
0.525000 0.328571 0
0.542857 0.328571 0
0.560714 0.328571 0
0.578571 0.328571 0
0.596429 0.328571 0
0.614286 0.328571 0
0.632143 0.328571 0
0.650000 0.328571 0
0.667857 0.328571 0
0.685714 0.328571 0
0.703571 0.328571 0
0.721429 0.328571 0
0.739286 0.328571 0
0.757143 0.328571 0
0.775000 0.328571 0
0.792857 0.328571 0
0.810714 0.328571 0
0.828571 0.328571 0
0.846429 0.328571 0
0.864286 0.328571 0
0.882143 0.328571 0
0.150000 0.346429 0
0.167857 0.346429 0
0.185714 0.346429 0
0.203571 0.346429 0
0.221429 0.346429 0
0.239286 0.346429 0
0.257143 0.346429 0
0.275000 0.346429 0
0.292857 0.346429 0
0.310714 0.346429 0
0.328571 0.346429 0
0.346429 0.346429 0
0.364286 0.346429 0
0.382143 0.346429 0
0.400000 0.346429 0
0.417857 0.346429 0
0.435714 0.346429 0
0.453571 0.346429 0
0.471429 0.346429 0
0.489286 0.346429 0
0.507143 0.346429 0
0.525000 0.346429 0
0.542857 0.346429 0
0.560714 0.346429 0
0.578571 0.346429 0
0.596429 0.346429 0
0.614286 0.346429 0
0.632143 0.346429 0
0.650000 0.346429 0
[...]
POINT_DATA 1764 

VECTORS velocity float
0.000000 0.000000 0
-0.000002 0.000000 0
-0.000003 0.000000 0
-0.000003 0.000000 0
-0.000002 0.000000 0
-0.000002 0.000000 0
-0.000001 0.000000 0
-0.000000 0.000000 0
-0.000004 0.000000 0
-0.000003 0.000000 0
0.000003 0.000000 0
0.000006 0.000000 0
0.000008 0.000000 0
0.000010 0.000000 0
0.000010 0.000000 0
0.000011 0.000000 0
0.000011 0.000000 0
0.000011 0.000000 0
0.000011 0.000000 0
0.000011 0.000000 0
0.000011 0.000000 0
0.000011 0.000000 0
0.000011 0.000000 0
0.000011 0.000000 0
0.000011 0.000000 0
0.000011 0.000000 0
0.000011 0.000000 0
0.000011 0.000000 0
0.000011 0.000000 0
0.000012 0.000000 0
0.000012 0.000000 0
0.000012 0.000000 0
0.000012 0.000000 0
0.000011 0.000000 0
0.000011 0.000000 0
0.000010 0.000000 0
0.000008 0.000000 0
0.000006 0.000000 0
0.000001 0.000000 0
-0.000001 0.000000 0
-0.000000 0.000000 0
0.000000 0.000000 0
0.000000 0.000002 0
0.029619 -0.027214 0
0.054749 -0.017877 0
0.065666 -0.003583 0
0.063845 0.006477 0
0.054209 0.009860 0
0.045905 0.008964 0
0.038764 0.003412 0
0.022365 -0.008883 0
-0.001163 -0.002060 0
-0.030383 0.022276 0
-0.066292 0.035458 0
-0.104574 0.038731 0
-0.142067 0.038062 0
-0.177091 0.035896 0
-0.208659 0.032705 0
-0.236338 0.029066 0
-0.260060 0.025337 0
-0.279987 0.021744 0
-0.296400 0.018399 0
-0.309619 0.015336 0
-0.319946 0.012536 0
-0.327625 0.009943 0
-0.332824 0.007465 0
-0.335603 0.004982 0
-0.335913 0.002368 0
-0.333606 -0.000512 0
-0.328490 -0.003793 0
-0.320249 -0.007536 0
-0.308457 -0.011779 0
-0.292597 -0.016629 0
-0.272061 -0.022176 0
-0.246190 -0.028432 0
-0.214362 -0.035272 0
-0.176171 -0.042277 0
-0.131795 -0.048480 0
-0.082719 -0.051794 0
-0.033145 -0.047283 0
0.007404 -0.017414 0
0.020591 0.016040 0
0.000007 -0.000001 0
0.000000 -0.012358 0
0.000000 0.000003 0
0.026975 -0.054749 0
0.047157 -0.036046 0
0.055278 -0.009096 0
0.052873 0.011457 0
0.040726 0.017940 0
0.021445 0.015445 0
-0.005280 0.023540 0
-0.045315 0.039927 0
-0.099493 0.052748 0
-0.143246 0.065129 0
-0.180010 0.074191 0
-0.213410 0.075775 0
-0.243971 0.072517 0
-0.270807 0.066591 0
-0.293719 0.059247 0
-0.312747 0.051401 0
-0.328133 0.043649 0
-0.340212 0.036341 0
-0.349346 0.029633 0
-0.355877 0.023546 0
-0.360092 0.018006 0
-0.362206 0.012878 0
-0.362346 0.007978 0
-0.360566 0.003089 0
-0.356824 -0.001997 0
-0.351109 -0.007423 0
-0.343246 -0.013357 0
-0.333022 -0.020033 0
-0.320068 -0.027651 0
-0.303941 -0.036396 0
-0.284150 -0.046407 0
-0.260170 -0.057699 0
-0.231506 -0.070019 0
-0.197817 -0.082567 0
-0.159177 -0.093452 0
-0.116590 -0.098650 0
-0.072773 -0.090122 0
-0.032497 -0.053736 0
0.005384 0.007404 0
0.000012 -0.000002 0
0.000000 -0.020594 0
0.000000 0.000004 0
0.017154 -0.074372 0
0.025678 -0.046180 0
0.023063 -0.009299 0
0.009084 0.021029 0
-0.012202 0.041288 0
-0.046186 0.054970 0
-0.090389 0.070172 0
-0.132708 0.085330 0
-0.172576 0.095871 0
-0.208599 0.102793 0
-0.237673 0.105621 0
-0.261489 0.102693 0
-0.281152 0.095459 0
-0.297043 0.085644 0
-0.309581 0.074645 0
-0.319194 0.063480 0
-0.326313 0.052801 0
-0.331334 0.042956 0
-0.334594 0.034064 0
-0.336364 0.026083 0
-0.336837 0.018865 0
-0.336139 0.012198 0
-0.334324 0.005824 0
-0.331398 -0.000541 0
-0.327343 -0.007089 0
-0.322070 -0.014090 0
-0.315347 -0.021880 0
-0.306913 -0.030715 0
-0.296467 -0.040860 0
-0.283661 -0.052547 0
-0.268131 -0.065947 0
-0.249488 -0.081076 0
-0.227350 -0.097625 0
-0.201367 -0.114606 0
-0.171312 -0.129707 0
-0.137227 -0.138198 0
-0.099588 -0.131376 0
-0.059286 -0.095571 0
-0.017728 -0.016457 0
0.000003 0.000003 0
0.000000 -0.017738 0
0.000000 0.000003 0
0.001267 -0.080427 0
-0.008126 -0.041955 0
-0.025934 0.007498 0
-0.049573 0.046722 0
-0.077616 0.073210 0
-0.111684 0.093632 0
-0.148387 0.110062 0
-0.182433 0.122114 0
-0.212396 0.128639 0
-0.237872 0.130226 0
-0.257320 0.127082 0
-0.271647 0.119255 0
-0.281946 0.108070 0
-0.289091 0.095020 0
-0.293813 0.081398 0
-0.296703 0.068133 0
-0.298231 0.055789 0
-0.298749 0.044622 0
-0.298508 0.034663 0
-0.297674 0.025789 0
-0.296342 0.017781 0
-0.294549 0.010364 0
-0.292280 0.003237 0
-0.289482 -0.003891 0
-0.286143 -0.011326 0
-0.282007 -0.019419 0
-0.276898 -0.028514 0
-0.270578 -0.038913 0
-0.262803 -0.050903 0
-0.253320 -0.064732 0
-0.241883 -0.080580 0
-0.228247 -0.098479 0
-0.212144 -0.118140 0
-0.193239 -0.138605 0
-0.171054 -0.157593 0
-0.144881 -0.170375 0
-0.113756 -0.168063 0
-0.076809 -0.135595 0
-0.035298 -0.051882 0
-0.000030 0.000008 0
0.000000 -0.002855 0
0.000000 0.000001 0
-0.016679 -0.066246 0
-0.042513 -0.018979 0
-0.070072 0.032149 0
-0.095256 0.072711 0
-0.123056 0.103399 0
-0.152318 0.125741 0
-0.180779 0.140921 0
-0.205918 0.149339 0
-0.226648 0.151309 0
-0.242621 0.147716 0
-0.253467 0.139397 0
-0.259993 0.127320 0
-0.263228 0.112903 0
-0.264131 0.097510 0
-0.263489 0.082258 0
-0.261894 0.067899 0
-0.259776 0.054846 0
-0.257421 0.043232 0
-0.255011 0.032989 0
-0.252643 0.023918 0
-0.250351 0.015740 0
-0.248121 0.008135 0
-0.245902 0.000758 0
-0.243614 -0.006678 0
-0.241135 -0.014565 0
-0.238244 -0.023334 0
-0.234742 -0.033308 0
-0.230405 -0.044810 0
-0.225014 -0.058118 0
-0.218371 -0.073467 0
-0.210319 -0.091020 0
-0.200730 -0.110816 0
-0.189457 -0.132634 0
-0.176239 -0.155696 0
-0.160514 -0.178065 0
-0.141162 -0.195496 0
-0.116293 -0.199448 0
-0.083529 -0.174029 0
-0.041999 -0.093266 0
-0.000064 0.000010 0
0.000000 0.017567 0
0.000000 -0.000001 0
-0.029507 -0.037914 0
-0.064191 0.011438 0
-0.093842 0.060241 0
-0.121105 0.099705 0
-0.147115 0.130272 0
-0.171412 0.151355 0
-0.192858 0.163662 0
-0.210309 0.167983 0
-0.223249 0.165342 0
-0.231641 0.157045 0
-0.235746 0.144454 0
-0.236405 0.129016 0
-0.234575 0.112209 0
-0.231151 0.095281 0
-0.226855 0.079161 0
-0.222228 0.064420 0
-0.217655 0.051315 0
-0.213388 0.039857 0
-0.209577 0.029885 0
-0.206290 0.021129 0
-0.203530 0.013259 0
-0.201254 0.005915 0
-0.199387 -0.001269 0
-0.197843 -0.008659 0
-0.196380 -0.016696 0
-0.194823 -0.025812 0
-0.192941 -0.036352 0
-0.190491 -0.048642 0
-0.187233 -0.062937 0
-0.182974 -0.079427 0
-0.177593 -0.098222 0
-0.171040 -0.119342 0
-0.163275 -0.142631 0
-0.154156 -0.167548 0
-0.143206 -0.192671 0
-0.129238 -0.214596 0
-0.109933 -0.225695 0
-0.081888 -0.209889 0
-0.042608 -0.135412 0
-0.000087 0.000012 0
0.000000 0.039148 0
0.000000 -0.000003 0
-0.036666 -0.002055 0
-0.073007 0.045356 0
-0.103476 0.089063 0
-0.130683 0.125984 0
-0.154330 0.153705 0
-0.174287 0.171484 0
-0.190132 0.179819 0
-0.201518 0.179730 0
-0.208432 0.172641 0
-0.211184 0.160214 0
-0.210357 0.144160 0
-0.206805 0.126149 0
-0.201401 0.107649 0
-0.194936 0.089790 0
-0.188057 0.073335 0
-0.181265 0.058699 0
-0.174933 0.046006 0
-0.169320 0.035154 0
-0.164579 0.025891 0
-0.160769 0.017871 0
-0.157877 0.010704 0
-0.155833 0.003992 0
-0.154531 -0.002653 0
-0.153851 -0.009685 0
-0.153552 -0.017585 0
-0.153441 -0.026773 0
-0.153258 -0.037640 0
-0.152707 -0.050518 0
-0.151481 -0.065636 0
-0.149334 -0.083107 0
-0.146141 -0.102953 0
-0.141887 -0.125134 0
-0.136603 -0.149518 0
-0.130271 -0.175764 0
-0.122602 -0.202983 0
-0.112619 -0.228769 0
-0.098071 -0.246798 0
-0.075155 -0.241355 0
-0.040272 -0.175154 0
-0.000103 0.000013 0
0.000000 0.060177 0
0.000000 -0.000005 0
-0.037749 0.035094 0
-0.072453 0.078248 0
-0.102850 0.117916 0
-0.128658 0.150559 0
-0.149684 0.173876 0
-0.165947 0.187157 0
-0.177440 0.190893 0
-0.184280 0.186283 0
-0.186804 0.175008 0
-0.185564 0.158970 0
-0.181281 0.140075 0
-0.174776 0.120060 0
-0.166834 0.100340 0
-0.158156 0.081937 0
-0.149341 0.065490 0
-0.140888 0.051297 0
-0.133202 0.039370 0
-0.126580 0.029502 0
-0.121201 0.021334 0
-0.117126 0.014428 0
-0.114322 0.008323 0
-0.112690 0.002569 0
-0.112088 -0.003251 0
-0.112347 -0.009638 0
-0.113283 -0.017107 0
-0.114684 -0.026105 0
-0.116270 -0.037086 0
-0.117671 -0.050419 0
-0.118465 -0.066311 0
-0.118301 -0.084767 0
-0.117019 -0.105669 0
-0.114626 -0.128879 0
-0.111195 -0.154246 0
-0.106797 -0.181549 0
-0.101339 -0.210323 0
-0.094189 -0.239127 0
-0.083507 -0.263160 0
-0.065592 -0.267688 0
-0.036074 -0.210566 0
-0.000110 0.000013 0
0.000000 0.079422 0
0.000000 -0.000006 0
-0.033791 0.070398 0
-0.067000 0.110457 0
-0.095577 0.145268 0
-0.119101 0.172818 0
-0.137381 0.190995 0
-0.150498 0.199240 0
-0.158652 0.198151 0
-0.162206 0.189094 0
-0.161685 0.173925 0
-0.157754 0.154690 0
-0.151155 0.133372 0
-0.142643 0.111702 0
-0.132920 0.091029 0
-0.122623 0.072297 0
-0.112339 0.056067 0
-0.102601 0.042561 0
-0.093884 0.031698 0
-0.086555 0.023153 0
-0.080824 0.016436 0
-0.076728 0.010992 0
-0.074188 0.006268 0
-0.073059 0.001758 0
-0.073163 -0.002995 0
-0.074289 -0.008490 0
-0.076336 -0.015249 0
-0.079130 -0.023785 0
-0.082401 -0.034653 0
-0.085715 -0.048323 0
-0.088480 -0.065006 0
-0.090179 -0.084552 0
-0.090598 -0.106628 0
-0.089783 -0.130958 0
-0.087845 -0.157347 0
-0.084914 -0.185621 0
-0.081040 -0.215591 0
-0.075931 -0.246601 0
-0.068307 -0.275395 0
-0.054934 -0.288788 0
-0.031026 -0.240746 0
-0.000109 0.000014 0
0.000000 0.096252 0
0.000000 -0.000006 0
-0.028992 0.102094 0
-0.058852 0.140034 0
-0.084433 0.170017 0
-0.105104 0.192362 0
-0.120617 0.205273 0
-0.131047 0.208429 0
-0.136668 0.202601 0
-0.137933 0.189316 0
-0.135428 0.170556 0
-0.129822 0.148439 0
-0.121807 0.124964 0
-0.112052 0.101825 0
-0.101173 0.080320 0
-0.089761 0.061356 0
-0.078398 0.045467 0
-0.067675 0.032842 0
-0.058189 0.023325 0
-0.050440 0.016442 0
-0.044705 0.011506 0
-0.040939 0.007791 0
-0.038962 0.004654 0
-0.038521 0.001544 0
-0.039382 -0.002021 0
-0.041229 -0.006465 0
-0.044051 -0.012266 0
-0.047829 -0.020040 0
-0.052409 -0.030501 0
-0.057363 -0.044341 0
-0.061878 -0.061847 0
-0.065201 -0.082648 0
-0.067049 -0.106065 0
-0.067538 -0.131632 0
-0.066834 -0.159115 0
-0.065109 -0.188355 0
-0.062500 -0.219306 0
-0.058966 -0.251860 0
-0.053765 -0.284156 0
-0.044334 -0.304969 0
-0.025808 -0.265501 0
-0.000102 0.000014 0
0.000000 0.110448 0
0.000000 -0.000007 0
-0.023739 0.129250 0
-0.049333 0.165898 0
-0.071287 0.191520 0
-0.088827 0.209002 0
-0.101652 0.216938 0
-0.109799 0.215291 0
-0.113533 0.205037 0
-0.113299 0.187854 0
-0.109650 0.165814 0
-0.103190 0.141069 0
-0.094517 0.115602 0
-0.084192 0.091068 0
-0.072742 0.068739 0
-0.060694 0.049522 0
-0.048606 0.033981 0
-0.037097 0.022352 0
-0.027003 0.014464 0
-0.019048 0.009669 0
-0.013626 0.006935 0
-0.010559 0.005249 0
-0.009435 0.003851 0
-0.009841 0.002177 0
-0.011469 -0.000287 0
-0.014196 -0.003821 0
-0.017737 -0.008649 0
-0.022040 -0.015428 0
-0.027320 -0.025118 0
-0.033366 -0.038854 0
-0.039136 -0.057168 0
-0.043634 -0.079381 0
-0.046506 -0.104291 0
-0.047960 -0.131173 0
-0.048225 -0.159776 0
-0.047507 -0.189956 0
-0.045990 -0.221734 0
-0.043782 -0.255336 0
-0.040554 -0.290027 0
-0.034460 -0.316744 0
-0.020838 -0.285080 0
-0.000092 0.000013 0
0.000000 0.122060 0
0.000000 -0.000007 0
-0.018252 0.151427 0
-0.039233 0.187582 0
-0.057324 0.209511 0
-0.071679 0.222728 0
-0.081977 0.226244 0
-0.088207 0.220310 0
-0.090586 0.206101 0
-0.089490 0.185433 0
-0.085387 0.160447 0
-0.078774 0.133307 0
-0.070129 0.105966 0
-0.059894 0.080049 0
-0.048490 0.056822 0
-0.036351 0.037220 0
-0.023932 0.021871 0
-0.011655 0.011239 0
-0.001508 0.005275 0
0.005750 0.003065 0
0.010275 0.003017 0
0.012475 0.003600 0
0.012819 0.003936 0
0.011718 0.003579 0
0.009518 0.002335 0
0.006327 -0.000196 0
0.002334 -0.004422 0
-0.002338 -0.010457 0
-0.007934 -0.019176 0
-0.014439 -0.032525 0
-0.020712 -0.051579 0
-0.025695 -0.075279 0
-0.029036 -0.101739 0
-0.031040 -0.129913 0
-0.031973 -0.159568 0
-0.032061 -0.190589 0
-0.031504 -0.223030 0
-0.030476 -0.257296 0
-0.028919 -0.293479 0
-0.025623 -0.324685 0
-0.016328 -0.299961 0
-0.000081 0.000013 0
0.000000 0.131286 0
0.000000 -0.000007 0
-0.012722 0.168483 0
-0.029026 0.204970 0
-0.043253 0.223966 0
-0.054512 0.233655 0
-0.062490 0.233466 0
-0.067137 0.223900 0
-0.068602 0.206320 0
-0.067169 0.182655 0
-0.063194 0.155098 0
-0.057049 0.125811 0
-0.049084 0.096722 0
-0.039615 0.069429 0
-0.028934 0.045196 0
-0.017292 0.024963 0
-0.004608 0.009285 0
0.006500 -0.000072 0
0.014763 -0.002941 0
0.020444 -0.002115 0
0.024034 0.000210 0
0.025742 0.002705 0
0.025820 0.004607 0
0.024532 0.005479 0
0.022175 0.005104 0
0.019077 0.003363 0
0.015219 0.000016 0
0.010518 -0.005159 0
0.005109 -0.013017 0
-0.000918 -0.026076 0
-0.006803 -0.045913 0
-0.011395 -0.071057 0
-0.014564 -0.098946 0
-0.016665 -0.128235 0
-0.017949 -0.158755 0
-0.018629 -0.190425 0
-0.018897 -0.223319 0
-0.018940 -0.257921 0
-0.018843 -0.294880 0
-0.017898 -0.329336 0
-0.012353 -0.310703 0
-0.000070 0.000013 0
0.000000 0.138387 0
0.000000 -0.000006 0
-0.007266 0.180453 0
-0.018985 0.218114 0
-0.029463 0.234996 0
-0.037782 0.241964 0
-0.043657 0.238870 0
-0.047010 0.226422 0
-0.047922 0.206133 0
-0.046579 0.180025 0
-0.043221 0.150327 0
-0.038094 0.119196 0
-0.031426 0.088532 0
-0.023410 0.059900 0
-0.014169 0.034499 0
-0.003424 0.012894 0
0.006948 -0.001922 0
0.014366 -0.008133 0
0.019881 -0.008669 0
0.024172 -0.006206 0
0.027326 -0.002281 0
0.029155 0.001814 0
0.029589 0.005146 0
0.028752 0.007224 0
0.026830 0.007790 0
0.024051 0.006760 0
0.020589 0.004137 0
0.016426 -0.000347 0
0.011712 -0.007739 0
0.006916 -0.020613 0
0.002730 -0.041102 0
-0.000404 -0.067518 0
-0.002811 -0.096469 0
-0.004591 -0.126528 0
-0.005931 -0.157604 0
-0.007000 -0.189641 0
-0.007957 -0.222720 0
-0.008966 -0.257350 0
-0.010177 -0.294520 0
-0.011221 -0.331175 0
-0.008904 -0.317859 0
-0.000060 0.000012 0
0.000000 0.143638 0
0.000000 -0.000006 0
-0.002062 0.187469 0
-0.009213 0.227166 0
-0.016126 0.242762 0
-0.021684 0.247849 0
-0.025647 0.242694 0
-0.027929 0.228165 0
-0.028557 0.205888 0
-0.027628 0.177953 0
-0.025275 0.146613 0
-0.021634 0.114016 0
-0.016823 0.082038 0
-0.010917 0.052172 0
-0.003669 0.025210 0
0.004201 0.003846 0
0.009717 -0.008505 0
0.013775 -0.013005 0
0.017359 -0.012748 0
0.020528 -0.009560 0
0.023231 -0.004773 0
0.025271 0.000443 0
0.026290 0.005010 0
0.026240 0.008237 0
0.025170 0.009805 0
0.023192 0.009604 0
0.020453 0.007641 0
0.017154 0.003717 0
0.013549 -0.003507 0
0.010530 -0.017094 0
0.008901 -0.038594 0
0.007817 -0.065517 0
0.006672 -0.094758 0
0.005545 -0.125115 0
0.004379 -0.156345 0
0.003086 -0.188399 0
0.001561 -0.221353 0
-0.000309 -0.255701 0
-0.002712 -0.292626 0
-0.005456 -0.330608 0
-0.005923 -0.321924 0
-0.000052 0.000012 0
0.000000 0.147290 0
0.000000 -0.000005 0
0.002757 0.189666 0
0.000178 0.232177 0
-0.003296 0.247467 0
-0.006240 0.251485 0
-0.008427 0.245116 0
-0.009780 0.229333 0
-0.010287 0.205831 0
-0.009975 0.176742 0
-0.008890 0.144333 0
-0.007075 0.110745 0
-0.004557 0.077816 0
-0.001289 0.046745 0
0.002730 0.019381 0
0.005802 -0.000492 0
0.007548 -0.011495 0
0.009308 -0.015775 0
0.011234 -0.015423 0
0.013255 -0.012078 0
0.015325 -0.007024 0
0.017311 -0.001244 0
0.018818 0.004177 0
0.019582 0.008343 0
0.019510 0.010838 0
0.018605 0.011477 0
0.016976 0.010175 0
0.014904 0.006557 0
0.013021 -0.001116 0
0.012587 -0.015964 0
0.013514 -0.038388 0
0.014359 -0.065290 0
0.014591 -0.094198 0
0.014239 -0.124234 0
0.013360 -0.155144 0
0.011938 -0.186823 0
0.009918 -0.219325 0
0.007230 -0.253077 0
0.003752 -0.289374 0
-0.000424 -0.327965 0
-0.003323 -0.323314 0
-0.000046 0.000011 0
0.000000 0.149560 0
0.000000 -0.000005 0
0.007249 0.187291 0
0.009110 0.233220 0
0.008993 0.249180 0
0.008569 0.252980 0
0.008103 0.246234 0
0.007651 0.230025 0
0.007238 0.206083 0
0.006880 0.176557 0
0.006596 0.143713 0
0.006410 0.109683 0
0.006353 0.076252 0
0.006470 0.044885 0
0.006221 0.018119 0
0.004987 -0.000972 0
0.003982 -0.012010 0
0.003661 -0.016691 0
0.003953 -0.016695 0
0.004766 -0.013650 0
0.006080 -0.008829 0
0.007810 -0.003051 0
0.009651 0.002740 0
0.011140 0.007545 0
0.012064 0.010782 0
0.012343 0.012138 0
0.012096 0.011343 0
0.011738 0.007673 0
0.012224 -0.001190 0
0.014776 -0.017587 0
0.017973 -0.040366 0
0.020398 -0.066594 0
0.021734 -0.094639 0
0.022059 -0.123884 0
0.021448 -0.154044 0
0.019910 -0.184957 0
0.017416 -0.216644 0
0.013928 -0.249535 0
0.009421 -0.284972 0
0.003951 -0.323534 0
-0.001003 -0.322348 0
-0.000042 0.000011 0
0.000000 0.150612 0
0.000000 -0.000004 0
0.011459 0.180556 0
0.017622 0.230434 0
0.020751 0.248009 0
0.022768 0.252375 0
0.024018 0.246034 0
0.024527 0.230197 0
0.024305 0.206602 0
0.023383 0.177384 0
0.021822 0.144803 0
0.019691 0.110988 0
0.017048 0.077756 0
0.013872 0.046878 0
0.009791 0.020864 0
0.005146 0.001747 0
0.001366 -0.010170 0
-0.001094 -0.015746 0
-0.002432 -0.016527 0
-0.002811 -0.014205 0
-0.002321 -0.010068 0
-0.001045 -0.004816 0
0.000873 0.000847 0
0.002953 0.005930 0
0.004822 0.009635 0
0.006326 0.011445 0
0.007699 0.010780 0
0.009516 0.006429 0
0.013088 -0.004153 0
0.018239 -0.021713 0
0.023037 -0.044011 0
0.026561 -0.069051 0
0.028693 -0.095859 0
0.029507 -0.123948 0
0.029055 -0.152995 0
0.027339 -0.182790 0
0.024346 -0.213343 0
0.020070 -0.245081 0
0.014519 -0.279397 0
0.007781 -0.317541 0
0.001106 -0.319363 0
-0.000039 0.000011 0
0.000000 0.150562 0
0.000000 -0.000003 0
0.015352 0.169669 0
0.025670 0.223928 0
0.031983 0.244033 0
0.036379 0.249712 0
0.039353 0.244475 0
0.040924 0.229739 0
0.041071 0.207228 0
0.039828 0.179039 0
0.037276 0.147405 0
0.033526 0.114458 0
0.028679 0.082072 0
0.022761 0.052142 0
0.015788 0.026844 0
0.008463 0.007453 0
0.001774 -0.005770 0
-0.003025 -0.012893 0
-0.005990 -0.014978 0
-0.007525 -0.013762 0
-0.007864 -0.010595 0
-0.007168 -0.006244 0
-0.005493 -0.001258 0
-0.003099 0.003596 0
-0.000417 0.007409 0
0.002413 0.009261 0
0.005681 0.008153 0
0.010167 0.002285 0
0.016666 -0.009913 0
0.023441 -0.027536 0
0.029128 -0.048688 0
0.033296 -0.072250 0
0.035905 -0.097585 0
0.036979 -0.124246 0
0.036520 -0.151876 0
0.034511 -0.180248 0
0.030942 -0.209375 0
0.025832 -0.239707 0
0.019229 -0.272683 0
0.011255 -0.310121 0
0.003041 -0.314567 0
-0.000037 0.000010 0
0.000000 0.149506 0
0.000000 -0.000002 0
0.018815 0.154885 0
0.033112 0.213802 0
0.042578 0.237300 0
0.049329 0.245005 0
0.054062 0.241489 0
0.056834 0.228479 0
0.057602 0.207697 0
0.056386 0.181179 0
0.053282 0.151105 0
0.048443 0.119585 0
0.042046 0.088521 0
0.034246 0.059769 0
0.025368 0.035162 0
0.016198 0.015761 0
0.007421 0.001319 0
-0.000008 -0.007982 0
-0.004939 -0.012027 0
-0.007758 -0.012331 0
-0.008954 -0.010425 0
-0.008846 -0.007186 0
-0.007554 -0.003221 0
-0.005147 0.000854 0
-0.001821 0.004122 0
0.002406 0.005347 0
0.007834 0.003026 0
0.015039 -0.004556 0
0.023093 -0.017427 0
0.030463 -0.034175 0
0.036473 -0.053866 0
0.040906 -0.075828 0
0.043692 -0.099542 0
0.044779 -0.124563 0
0.044111 -0.150526 0
0.041651 -0.177213 0
0.037393 -0.204664 0
0.031375 -0.233368 0
0.023684 -0.264820 0
0.014479 -0.301353 0
0.004833 -0.308108 0
-0.000036 0.000010 0
0.000000 0.147520 0
0.000000 -0.000001 0
0.021667 0.136557 0
0.039687 0.200165 0
0.052285 0.227817 0
0.061420 0.238227 0
0.067989 0.236970 0
0.072137 0.226199 0
0.073821 0.207675 0
0.073044 0.183359 0
0.069914 0.155347 0
0.064626 0.125693 0
0.057439 0.096269 0
0.048650 0.068820 0
0.038762 0.044892 0
0.028562 0.025400 0
0.018784 0.010436 0
0.009720 -0.000532 0
0.002468 -0.007229 0
-0.002025 -0.009747 0
-0.004326 -0.009507 0
-0.004873 -0.007644 0
-0.003898 -0.004957 0
-0.001463 -0.002138 0
0.002484 -0.000144 0
0.008055 -0.000393 0
0.015304 -0.004481 0
0.023760 -0.012974 0
0.031998 -0.025337 0
0.039285 -0.040916 0
0.045229 -0.059131 0
0.049615 -0.079470 0
0.052289 -0.101457 0
0.053123 -0.124665 0
0.052018 -0.148749 0
0.048921 -0.173530 0
0.043831 -0.199099 0
0.036808 -0.225998 0
0.027973 -0.255787 0
0.017531 -0.291270 0
0.006506 -0.300087 0
-0.000035 0.000009 0
0.000000 0.144672 0
0.000000 0.000000 0
0.023660 0.115198 0
0.044999 0.183184 0
0.060695 0.215567 0
0.072304 0.229301 0
0.080847 0.230772 0
0.086583 0.222648 0
0.089499 0.206790 0
0.089595 0.185086 0
0.086985 0.159523 0
0.081899 0.132061 0
0.074666 0.104497 0
0.065697 0.078445 0
0.055573 0.055250 0
0.045046 0.035740 0
0.034828 0.020161 0
0.025432 0.008333 0
0.017062 -0.000283 0
0.010718 -0.005536 0
0.007014 -0.007577 0
0.005615 -0.007614 0
0.006224 -0.006631 0
0.008723 -0.005528 0
0.013140 -0.005396 0