# vtk DataFile Version 2.0
generated by CFD-lab course output (written by Tobias Neckel) 
ASCII

DATASET STRUCTURED_GRID
DIMENSIONS  42 42 1 
POINTS 1764 float

0.150000 0.150000 0
0.167857 0.150000 0
0.185714 0.150000 0
0.203571 0.150000 0
0.221429 0.150000 0
0.239286 0.150000 0
0.257143 0.150000 0
0.275000 0.150000 0
0.292857 0.150000 0
0.310714 0.150000 0
0.328571 0.150000 0
0.346429 0.150000 0
0.364286 0.150000 0
0.382143 0.150000 0
0.400000 0.150000 0
0.417857 0.150000 0
0.435714 0.150000 0
0.453571 0.150000 0
0.471429 0.150000 0
0.489286 0.150000 0
0.507143 0.150000 0
0.525000 0.150000 0
0.542857 0.150000 0
0.560714 0.150000 0
0.578571 0.150000 0
0.596429 0.150000 0
0.614286 0.150000 0
0.632143 0.150000 0
0.650000 0.150000 0
0.667857 0.150000 0
0.685714 0.150000 0
0.703571 0.150000 0
0.721429 0.150000 0
0.739286 0.150000 0
0.757143 0.150000 0
0.775000 0.150000 0
0.792857 0.150000 0
0.810714 0.150000 0
0.828571 0.150000 0
0.846429 0.150000 0
0.864286 0.150000 0
0.882143 0.150000 0
0.150000 0.167857 0
0.167857 0.167857 0
0.185714 0.167857 0
0.203571 0.167857 0
0.221429 0.167857 0
0.239286 0.167857 0
0.257143 0.167857 0
0.275000 0.167857 0
0.292857 0.167857 0
0.310714 0.167857 0
0.328571 0.167857 0
0.346429 0.167857 0
0.364286 0.167857 0
0.382143 0.167857 0
0.400000 0.167857 0
0.417857 0.167857 0
0.435714 0.167857 0
0.453571 0.167857 0
0.471429 0.167857 0
0.489286 0.167857 0
0.507143 0.167857 0
0.525000 0.167857 0
0.542857 0.167857 0
0.560714 0.167857 0
0.578571 0.167857 0
0.596429 0.167857 0
0.614286 0.167857 0
0.632143 0.167857 0
0.650000 0.167857 0
0.667857 0.167857 0
0.685714 0.167857 0
0.703571 0.167857 0
0.721429 0.167857 0
0.739286 0.167857 0
0.757143 0.167857 0
0.775000 0.167857 0
0.792857 0.167857 0
0.810714 0.167857 0
0.828571 0.167857 0
0.846429 0.167857 0
0.864286 0.167857 0
0.882143 0.167857 0
0.150000 0.185714 0
0.167857 0.185714 0
0.185714 0.185714 0
0.203571 0.185714 0
0.221429 0.185714 0
0.239286 0.185714 0
0.257143 0.185714 0
0.275000 0.185714 0
0.292857 0.185714 0
0.310714 0.185714 0
0.328571 0.185714 0
0.346429 0.185714 0
0.364286 0.185714 0
0.382143 0.185714 0
0.400000 0.185714 0
0.417857 0.185714 0
0.435714 0.185714 0
0.453571 0.185714 0
0.471429 0.185714 0
0.489286 0.185714 0
0.507143 0.185714 0
0.525000 0.185714 0
0.542857 0.185714 0
0.560714 0.185714 0
0.578571 0.185714 0
0.596429 0.185714 0
0.614286 0.185714 0
0.632143 0.185714 0
0.650000 0.185714 0
0.667857 0.185714 0
0.685714 0.185714 0
0.703571 0.185714 0
0.721429 0.185714 0
0.739286 0.185714 0
0.757143 0.185714 0
0.775000 0.185714 0
0.792857 0.185714 0
0.810714 0.185714 0
0.828571 0.185714 0
0.846429 0.185714 0
0.864286 0.185714 0
0.882143 0.185714 0
0.150000 0.203571 0
0.167857 0.203571 0
0.185714 0.203571 0
0.203571 0.203571 0
0.221429 0.203571 0
0.239286 0.203571 0
0.257143 0.203571 0
0.275000 0.203571 0
0.292857 0.203571 0
0.310714 0.203571 0
0.328571 0.203571 0
0.346429 0.203571 0
0.364286 0.203571 0
0.382143 0.203571 0
0.400000 0.203571 0
0.417857 0.203571 0
0.435714 0.203571 0
0.453571 0.203571 0
0.471429 0.203571 0
0.489286 0.203571 0
0.507143 0.203571 0
0.525000 0.203571 0
0.542857 0.203571 0
0.560714 0.203571 0
0.578571 0.203571 0
0.596429 0.203571 0
0.614286 0.203571 0
0.632143 0.203571 0
0.650000 0.203571 0
0.667857 0.203571 0
0.685714 0.203571 0
0.703571 0.203571 0
0.721429 0.203571 0
0.739286 0.203571 0
0.757143 0.203571 0
0.775000 0.203571 0
0.792857 0.203571 0
0.810714 0.203571 0
0.828571 0.203571 0
0.846429 0.203571 0
0.864286 0.203571 0
0.882143 0.203571 0
0.150000 0.221429 0
0.167857 0.221429 0
0.185714 0.221429 0
0.203571 0.221429 0
0.221429 0.221429 0
0.239286 0.221429 0
0.257143 0.221429 0
0.275000 0.221429 0
0.292857 0.221429 0
0.310714 0.221429 0
0.328571 0.221429 0
0.346429 0.221429 0
0.364286 0.221429 0
0.382143 0.221429 0
0.400000 0.221429 0
0.417857 0.221429 0
0.435714 0.221429 0
0.453571 0.221429 0
0.471429 0.221429 0
0.489286 0.221429 0
0.507143 0.221429 0
0.525000 0.221429 0
0.542857 0.221429 0
0.560714 0.221429 0
0.578571 0.221429 0
0.596429 0.221429 0
0.614286 0.221429 0
0.632143 0.221429 0
0.650000 0.221429 0
0.667857 0.221429 0
0.685714 0.221429 0
0.703571 0.221429 0
0.721429 0.221429 0
0.739286 0.221429 0
0.757143 0.221429 0
0.775000 0.221429 0
0.792857 0.221429 0
0.810714 0.221429 0
0.828571 0.221429 0
0.846429 0.221429 0
0.864286 0.221429 0
0.882143 0.221429 0
0.150000 0.239286 0
0.167857 0.239286 0
0.185714 0.239286 0
0.203571 0.239286 0
0.221429 0.239286 0
0.239286 0.239286 0
0.257143 0.239286 0
0.275000 0.239286 0
0.292857 0.239286 0
0.310714 0.239286 0
0.328571 0.239286 0
0.346429 0.239286 0
0.364286 0.239286 0
0.382143 0.239286 0
0.400000 0.239286 0
0.417857 0.239286 0
0.435714 0.239286 0
0.453571 0.239286 0
0.471429 0.239286 0
0.489286 0.239286 0
0.507143 0.239286 0
0.525000 0.239286 0
0.542857 0.239286 0
0.560714 0.239286 0
0.578571 0.239286 0
0.596429 0.239286 0
0.614286 0.239286 0
0.632143 0.239286 0
0.650000 0.239286 0
0.667857 0.239286 0
0.685714 0.239286 0
0.703571 0.239286 0
0.721429 0.239286 0
0.739286 0.239286 0
0.757143 0.239286 0
0.775000 0.239286 0
0.792857 0.239286 0
0.810714 0.239286 0
0.828571 0.239286 0
0.846429 0.239286 0
0.864286 0.239286 0
0.882143 0.239286 0
0.150000 0.257143 0
0.167857 0.257143 0
0.185714 0.257143 0
0.203571 0.257143 0
0.221429 0.257143 0
0.239286 0.257143 0
0.257143 0.257143 0
0.275000 0.257143 0
0.292857 0.257143 0
0.310714 0.257143 0
0.328571 0.257143 0
0.346429 0.257143 0
0.364286 0.257143 0
0.382143 0.257143 0
0.400000 0.257143 0
0.417857 0.257143 0
0.435714 0.257143 0
0.453571 0.257143 0
0.471429 0.257143 0
0.489286 0.257143 0
0.507143 0.257143 0
0.525000 0.257143 0
0.542857 0.257143 0
0.560714 0.257143 0
0.578571 0.257143 0
0.596429 0.257143 0
0.614286 0.257143 0
0.632143 0.257143 0
0.650000 0.257143 0
0.667857 0.257143 0
0.685714 0.257143 0
0.703571 0.257143 0
0.721429 0.257143 0
0.739286 0.257143 0
0.757143 0.257143 0
0.775000 0.257143 0
0.792857 0.257143 0
0.810714 0.257143 0
0.828571 0.257143 0
0.846429 0.257143 0
0.864286 0.257143 0
0.882143 0.257143 0
0.150000 0.275000 0
0.167857 0.275000 0
0.185714 0.275000 0
0.203571 0.275000 0
0.221429 0.275000 0
0.239286 0.275000 0
0.257143 0.275000 0
0.275000 0.275000 0
0.292857 0.275000 0
0.310714 0.275000 0
0.328571 0.275000 0
0.346429 0.275000 0
0.364286 0.275000 0
0.382143 0.275000 0
0.400000 0.275000 0
0.417857 0.275000 0
0.435714 0.275000 0
0.453571 0.275000 0
0.471429 0.275000 0
0.489286 0.275000 0
0.507143 0.275000 0
0.525000 0.275000 0
0.542857 0.275000 0
0.560714 0.275000 0
0.578571 0.275000 0
0.596429 0.275000 0
0.614286 0.275000 0
0.632143 0.275000 0
0.650000 0.275000 0
0.667857 0.275000 0
0.685714 0.275000 0
0.703571 0.275000 0
0.721429 0.275000 0
0.739286 0.275000 0
0.757143 0.275000 0
0.775000 0.275000 0
0.792857 0.275000 0
0.810714 0.275000 0
0.828571 0.275000 0
0.846429 0.275000 0
0.864286 0.275000 0
0.882143 0.275000 0
0.150000 0.292857 0
0.167857 0.292857 0
0.185714 0.292857 0
0.203571 0.292857 0
0.221429 0.292857 0
0.239286 0.292857 0
0.257143 0.292857 0
0.275000 0.292857 0
0.292857 0.292857 0
0.310714 0.292857 0
0.328571 0.292857 0
0.346429 0.292857 0
0.364286 0.292857 0
0.382143 0.292857 0
0.400000 0.292857 0
0.417857 0.292857 0
0.435714 0.292857 0
0.453571 0.292857 0
0.471429 0.292857 0
0.489286 0.292857 0
0.507143 0.292857 0
0.525000 0.292857 0
0.542857 0.292857 0
0.560714 0.292857 0
0.578571 0.292857 0
0.596429 0.292857 0
0.614286 0.292857 0
0.632143 0.292857 0
0.650000 0.292857 0
0.667857 0.292857 0
0.685714 0.292857 0
0.703571 0.292857 0
0.721429 0.292857 0
0.739286 0.292857 0
0.757143 0.292857 0
0.775000 0.292857 0
0.792857 0.292857 0
0.810714 0.292857 0
0.828571 0.292857 0
0.846429 0.292857 0
0.864286 0.292857 0
0.882143 0.292857 0
0.150000 0.310714 0
0.167857 0.310714 0
0.185714 0.310714 0
0.203571 0.310714 0
0.221429 0.310714 0
0.239286 0.310714 0
0.257143 0.310714 0
0.275000 0.310714 0
0.292857 0.310714 0
0.310714 0.310714 0
0.328571 0.310714 0
0.346429 0.310714 0
0.364286 0.310714 0
0.382143 0.310714 0
0.400000 0.310714 0
0.417857 0.310714 0
0.435714 0.310714 0
0.453571 0.310714 0
0.471429 0.310714 0
0.489286 0.310714 0
0.507143 0.310714 0
0.525000 0.310714 0
0.542857 0.310714 0
0.560714 0.310714 0
0.578571 0.310714 0
0.596429 0.310714 0
0.614286 0.310714 0
0.632143 0.310714 0
0.650000 0.310714 0
0.667857 0.310714 0
0.685714 0.310714 0
0.703571 0.310714 0
0.721429 0.310714 0
0.739286 0.310714 0
0.757143 0.310714 0
0.775000 0.310714 0
0.792857 0.310714 0
0.810714 0.310714 0
0.828571 0.310714 0
0.846429 0.310714 0
0.864286 0.310714 0
0.882143 0.310714 0
0.150000 0.328571 0
0.167857 0.328571 0
0.185714 0.328571 0
0.203571 0.328571 0
0.221429 0.328571 0
0.239286 0.328571 0
0.257143 0.328571 0
0.275000 0.328571 0
0.292857 0.328571 0
0.310714 0.328571 0
0.328571 0.328571 0
0.346429 0.328571 0
0.364286 0.328571 0
0.382143 0.328571 0
0.400000 0.328571 0
0.417857 0.328571 0
0.435714 0.328571 0
0.453571 0.328571 0
0.471429 0.328571 0
0.489286 0.328571 0
0.507143 0.328571 0
0.525000 0.328571 0
0.542857 0.328571 0
0.560714 0.328571 0
0.578571 0.328571 0
0.596429 0.328571 0
0.614286 0.328571 0
0.632143 0.328571 0
0.650000 0.328571 0
0.667857 0.328571 0
0.685714 0.328571 0
0.703571 0.328571 0
0.721429 0.328571 0
0.739286 0.328571 0
0.757143 0.328571 0
0.775000 0.328571 0
0.792857 0.328571 0
0.810714 0.328571 0
0.828571 0.328571 0
0.846429 0.328571 0
0.864286 0.328571 0
0.882143 0.328571 0
0.150000 0.346429 0
0.167857 0.346429 0
0.185714 0.346429 0
0.203571 0.346429 0
0.221429 0.346429 0
0.239286 0.346429 0
0.257143 0.346429 0
0.275000 0.346429 0
0.292857 0.346429 0
0.310714 0.346429 0
0.328571 0.346429 0
0.346429 0.346429 0
0.364286 0.346429 0
0.382143 0.346429 0
0.400000 0.346429 0
0.417857 0.346429 0
0.435714 0.346429 0
0.453571 0.346429 0
0.471429 0.346429 0
0.489286 0.346429 0
0.507143 0.346429 0
0.525000 0.346429 0
0.542857 0.346429 0
0.560714 0.346429 0
0.578571 0.346429 0
0.596429 0.346429 0
0.614286 0.346429 0
0.632143 0.346429 0
0.650000 0.346429 0
[...]
POINT_DATA 1764 

VECTORS velocity float
0.000000 0.000000 0
0.000009 0.000000 0
0.000023 0.000000 0
0.000034 0.000000 0
0.000040 0.000000 0
0.000041 0.000000 0
0.000039 0.000000 0
0.000035 0.000000 0
0.000029 0.000000 0
0.000020 0.000000 0
0.000008 0.000000 0
-0.000005 0.000000 0
-0.000018 0.000000 0
-0.000033 0.000000 0
-0.000049 0.000000 0
-0.000067 0.000000 0
-0.000086 0.000000 0
-0.000107 0.000000 0
-0.000132 0.000000 0
-0.000158 0.000000 0
-0.000188 0.000000 0
-0.000221 0.000000 0
-0.000258 0.000000 0
-0.000302 0.000000 0
-0.000351 0.000000 0
-0.000406 0.000000 0
-0.000465 0.000000 0
-0.000525 0.000000 0
-0.000575 0.000000 0
-0.000603 0.000000 0
-0.000604 0.000000 0
-0.000578 0.000000 0
-0.000529 0.000000 0
-0.000462 0.000000 0
-0.000384 0.000000 0
-0.000299 0.000000 0
-0.000212 0.000000 0
-0.000120 0.000000 0
-0.000032 0.000000 0
0.000028 0.000000 0
0.000001 0.000000 0
0.000000 0.000000 0
0.000000 -0.000009 0
0.030192 -0.031416 0
0.052451 -0.018292 0
0.063851 -0.006863 0
0.067264 0.000194 0
0.065483 0.004056 0
0.060351 0.006505 0
0.052667 0.009369 0
0.042378 0.012212 0
0.030414 0.013431 0
0.017834 0.013285 0
0.005262 0.012640 0
-0.007212 0.012327 0
-0.019802 0.012588 0
-0.032872 0.013352 0
-0.046692 0.014147 0
-0.061235 0.014803 0
-0.076651 0.015716 0
-0.093203 0.016970 0
-0.111178 0.018492 0
-0.130841 0.020208 0
-0.152495 0.022240 0
-0.176609 0.025089 0
-0.203847 0.028801 0
-0.234604 0.032891 0
-0.268969 0.037016 0
-0.306734 0.040926 0
-0.347410 0.044230 0
-0.389935 0.046024 0
-0.432297 0.045343 0
-0.471609 0.041229 0
-0.504337 0.033194 0
-0.527021 0.021375 0
-0.536435 0.005885 0
-0.529651 -0.013387 0
-0.503962 -0.036480 0
-0.455895 -0.063560 0
-0.380885 -0.094939 0
-0.274950 -0.127597 0
-0.139772 -0.147450 0
-0.001078 0.000028 0
0.000000 0.075733 0
0.000000 -0.000018 0
0.017531 -0.052451 0
0.032511 -0.033659 0
0.041379 -0.014813 0
0.045032 -0.001632 0
0.044299 0.006913 0
0.040151 0.012816 0
0.033407 0.017973 0
0.025384 0.022253 0
0.016278 0.024545 0
0.006201 0.025152 0
-0.004692 0.025046 0
-0.016181 0.025063 0
-0.028098 0.025660 0
-0.040488 0.026890 0
-0.053358 0.028362 0
-0.067068 0.029959 0
-0.081767 0.031968 0
-0.097604 0.034527 0
-0.114787 0.037638 0
-0.133611 0.041317 0
-0.154437 0.045768 0
-0.177603 0.051352 0
-0.203135 0.057995 0
-0.231120 0.065122 0
-0.261447 0.072129 0
-0.293767 0.078441 0
-0.327363 0.083202 0
-0.361098 0.084887 0
-0.393352 0.081674 0
-0.421801 0.072040 0
-0.444076 0.055412 0
-0.457797 0.032097 0
-0.460894 0.002630 0
-0.451479 -0.032473 0
-0.427718 -0.073756 0
-0.386148 -0.123077 0
-0.322265 -0.180945 0
-0.232313 -0.241113 0
-0.117113 -0.274950 0
-0.000995 0.000006 0
0.000000 0.139778 0
0.000000 -0.000026 0
0.008960 -0.063927 0
0.016432 -0.042139 0
0.020823 -0.019384 0
0.022576 -0.002726 0
0.021797 0.008937 0
0.018706 0.017396 0
0.013837 0.024135 0
0.008126 0.029342 0
0.001628 0.032614 0
-0.005838 0.034255 0
-0.014299 0.035022 0
-0.023600 0.035733 0
-0.033584 0.036895 0
-0.044098 0.038612 0
-0.055116 0.040727 0
-0.066889 0.043211 0
-0.079556 0.046252 0
-0.093224 0.049991 0
-0.108029 0.054499 0
-0.124169 0.059857 0
-0.141853 0.066233 0
-0.161169 0.073788 0
-0.181965 0.082318 0
-0.204108 0.091203 0
-0.227369 0.099663 0
-0.251338 0.106841 0
-0.275328 0.111561 0
-0.298455 0.112013 0
-0.319729 0.106045 0
-0.337973 0.091952 0
-0.352027 0.069190 0
-0.360656 0.038193 0
-0.362613 -0.000433 0
-0.356321 -0.046563 0
-0.339391 -0.101812 0
-0.308504 -0.169013 0
-0.259820 -0.248773 0
-0.189461 -0.332749 0
-0.096528 -0.379763 0
-0.000914 -0.000046 0
0.000000 0.192772 0
0.000000 -0.000029 0
0.002796 -0.068883 0
0.005069 -0.045523 0
0.006271 -0.020957 0
0.006399 -0.002606 0
0.005245 0.010782 0
0.002771 0.020776 0
-0.000769 0.028553 0
-0.004898 0.034462 0
-0.009651 0.038509 0
-0.015211 0.041079 0
-0.021705 0.042807 0
-0.029085 0.044348 0
-0.037188 0.046158 0
-0.045862 0.048422 0
-0.055067 0.051153 0
-0.064923 0.054400 0
-0.075519 0.058304 0
-0.086914 0.062999 0
-0.099174 0.068583 0
-0.112380 0.075141 0
-0.126580 0.082768 0
-0.141701 0.091465 0
-0.157524 0.100935 0
-0.173821 0.110526 0
-0.190331 0.119359 0
-0.206694 0.126401 0
-0.222397 0.130319 0
-0.236890 0.129287 0
-0.249753 0.121192 0
-0.260661 0.104339 0
-0.269275 0.078094 0
-0.274993 0.042683 0
-0.276846 -0.001706 0
-0.273271 -0.055694 0
-0.261888 -0.121573 0
-0.240009 -0.202648 0
-0.204440 -0.299988 0
-0.151355 -0.404404 0
-0.078249 -0.464411 0
-0.000818 -0.000107 0
0.000000 0.236193 0
0.000000 -0.000030 0
-0.001997 -0.068997 0
-0.003192 -0.045614 0
-0.003914 -0.020713 0
-0.004771 -0.001700 0
-0.006166 0.012565 0
-0.008246 0.023410 0
-0.010926 0.031805 0
-0.014008 0.038224 0
-0.017590 0.042927 0
-0.021847 0.046309 0
-0.026891 0.048897 0
-0.032713 0.051216 0
-0.039205 0.053671 0
-0.046256 0.056491 0
-0.053819 0.059789 0
-0.061929 0.063664 0
-0.070618 0.068243 0
-0.079898 0.073646 0
-0.089771 0.079965 0
-0.100227 0.087262 0
-0.111205 0.095554 0
-0.122554 0.104732 0
-0.134036 0.114438 0
-0.145402 0.124010 0
-0.156414 0.132536 0
-0.166805 0.138907 0
-0.176262 0.141757 0
-0.184523 0.139370 0
-0.191525 0.129816 0
-0.197391 0.111474 0
-0.202208 0.083521 0
-0.205696 0.045764 0
-0.207067 -0.002155 0
-0.204964 -0.061521 0
-0.197430 -0.135073 0
-0.182331 -0.226461 0
-0.157082 -0.337427 0
-0.118143 -0.458939 0
-0.061950 -0.531119 0
-0.000706 -0.000168 0
0.000000 0.270899 0
0.000000 -0.000029 0
-0.005262 -0.065691 0
-0.008632 -0.043606 0
-0.010586 -0.019378 0
-0.012085 -0.000354 0
-0.013640 0.014257 0
-0.015469 0.025536 0
-0.017605 0.034315 0
-0.020026 0.041126 0
-0.022828 0.046348 0
-0.026154 0.050380 0
-0.030102 0.053673 0
-0.034685 0.056662 0
-0.039846 0.059701 0
-0.045509 0.063036 0
-0.051626 0.066826 0
-0.058183 0.071198 0
-0.065170 0.076272 0
-0.072559 0.082153 0
-0.080305 0.088911 0
-0.088337 0.096574 0
-0.096540 0.105095 0
-0.104736 0.114296 0
-0.112698 0.123783 0
-0.120198 0.132904 0
-0.127042 0.140762 0
-0.133063 0.146249 0
-0.138115 0.148037 0
-0.142140 0.144550 0
-0.145265 0.134060 0
-0.147795 0.115022 0
-0.149989 0.086399 0
-0.151750 0.047541 0
-0.152472 -0.002438 0
-0.151071 -0.065331 0
-0.146050 -0.144205 0
-0.135765 -0.242995 0
-0.118200 -0.364175 0
-0.090292 -0.499536 0
-0.048012 -0.582555 0
-0.000588 -0.000222 0
0.000000 0.298029 0
0.000000 -0.000027 0
-0.006692 -0.060364 0
-0.011381 -0.040290 0
-0.014293 -0.017260 0
-0.016361 0.001354 0
-0.018124 0.015948 0
-0.019857 0.027376 0
-0.021680 0.036362 0
-0.023665 0.043447 0
-0.025916 0.049055 0
-0.028550 0.053583 0
-0.031654 0.057427 0
-0.035253 0.060960 0
-0.039322 0.064495 0
-0.043811 0.068271 0
-0.048673 0.072463 0
-0.053873 0.077208 0
-0.059369 0.082618 0
-0.065106 0.088781 0
-0.071011 0.095743 0
-0.076982 0.103498 0
-0.082883 0.111954 0
-0.088539 0.120890 0
-0.093750 0.129900 0
-0.098329 0.138355 0
-0.102135 0.145401 0
-0.105080 0.149980 0
-0.107140 0.150835 0
-0.108384 0.146519 0
-0.109029 0.135471 0
-0.109422 0.116198 0
-0.109866 0.087476 0
-0.110365 0.048247 0
-0.110488 -0.002834 0
-0.109407 -0.067944 0
-0.106020 -0.150380 0
-0.099099 -0.254311 0
-0.087131 -0.382899 0
-0.067607 -0.529128 0
-0.036490 -0.621411 0
-0.000475 -0.000267 0
0.000000 0.318812 0
0.000000 -0.000025 0
-0.006567 -0.054310 0
-0.012023 -0.036005 0
-0.015745 -0.014398 0
-0.018369 0.003478 0
-0.020395 0.017753 0
-0.022139 0.029092 0
-0.023790 0.038123 0
-0.025478 0.045361 0
-0.027320 0.051233 0
-0.029423 0.056119 0
-0.031862 0.060376 0
-0.034672 0.064330 0
-0.037843 0.068259 0
-0.041344 0.072388 0
-0.045130 0.076888 0
-0.049155 0.081893 0
-0.053364 0.087506 0
-0.057686 0.093796 0
-0.062031 0.100787 0
-0.066289 0.108446 0
-0.070324 0.116652 0
-0.073977 0.125162 0
-0.077085 0.133573 0
-0.079506 0.141289 0
-0.081146 0.147513 0
-0.081979 0.151254 0
-0.082055 0.151341 0
-0.081516 0.146439 0
-0.080611 0.135098 0
-0.079675 0.115859 0
-0.078995 0.087342 0
-0.078633 0.048163 0
-0.078300 -0.003395 0
-0.077397 -0.069799 0
-0.075127 -0.154514 0
-0.070600 -0.261884 0
-0.062716 -0.395667 0
-0.049508 -0.550177 0
-0.027215 -0.650162 0
-0.000375 -0.000302 0
0.000000 0.334439 0
0.000000 -0.000023 0
-0.005957 -0.048341 0
-0.011644 -0.031112 0
-0.015848 -0.010914 0
-0.018880 0.006004 0
-0.021120 0.019717 0
-0.022899 0.030770 0
-0.024442 0.039702 0
-0.025912 0.046978 0
-0.027435 0.053000 0
-0.029113 0.058125 0
-0.031016 0.062676 0
-0.033181 0.066941 0
-0.035609 0.071167 0
-0.038277 0.075558 0
-0.041146 0.080275 0
-0.044166 0.085442 0
-0.047276 0.091149 0
-0.050399 0.097448 0
-0.053444 0.104347 0
-0.056302 0.111790 0
-0.058846 0.119641 0
-0.060945 0.127651 0
-0.062469 0.135428 0
-0.063317 0.142415 0
-0.063437 0.147875 0
-0.062846 0.150890 0
-0.061634 0.150372 0
-0.059977 0.145075 0
-0.058127 0.133629 0
-0.056387 0.114582 0
-0.055018 0.086434 0
-0.054107 0.047552 0
-0.053481 -0.004070 0
-0.052724 -0.071117 0
-0.051279 -0.157176 0
-0.048517 -0.266722 0
-0.043660 -0.403992 0
-0.035229 -0.564629 0
-0.019872 -0.670918 0
-0.000290 -0.000328 0
0.000000 0.345966 0
0.000000 -0.000021 0
-0.005531 -0.042667 0
-0.011072 -0.026114 0
-0.015362 -0.007161 0
-0.018527 0.008750 0
-0.020842 0.021772 0
-0.022607 0.032414 0
-0.024046 0.041137 0
-0.025329 0.048354 0
-0.026583 0.054433 0
-0.027906 0.059700 0
-0.029364 0.064444 0
-0.030992 0.068922 0
-0.032797 0.073355 0
-0.034762 0.077925 0
-0.036851 0.082778 0
-0.039017 0.088024 0
-0.041197 0.093740 0
-0.043317 0.099964 0
-0.045289 0.106689 0
-0.047013 0.113848 0
-0.048382 0.121295 0
-0.049286 0.128785 0
-0.049628 0.135945 0
-0.049343 0.142257 0
-0.048410 0.147042 0
-0.046873 0.149451 0
-0.044844 0.148472 0
-0.042506 0.142931 0
-0.040101 0.131509 0
-0.037900 0.112750 0
-0.036133 0.085062 0
-0.034903 0.046626 0
-0.034124 -0.004779 0
-0.033526 -0.072001 0
-0.032736 -0.158721 0
-0.031323 -0.269503 0
-0.028765 -0.408955 0
-0.023996 -0.573965 0
-0.014110 -0.685391 0
-0.000222 -0.000346 0
0.000000 0.354268 0
0.000000 -0.000018 0
-0.005355 -0.037269 0
-0.010600 -0.021281 0
-0.014685 -0.003460 0
-0.017720 0.011484 0
-0.019949 0.023797 0
-0.021615 0.033974 0
-0.022917 0.042423 0
-0.024013 0.049514 0
-0.025024 0.055577 0
-0.026038 0.060906 0
-0.027115 0.065763 0
-0.028288 0.070374 0
-0.029564 0.074936 0
-0.030931 0.079612 0
-0.032358 0.084530 0
-0.033799 0.089788 0
-0.035196 0.095449 0
-0.036481 0.101540 0
-0.037574 0.108043 0
-0.038388 0.114883 0
-0.038834 0.121914 0
-0.038825 0.128898 0
-0.038292 0.135485 0
-0.037197 0.141197 0
-0.035542 0.145405 0
-0.033389 0.147324 0
-0.030856 0.146005 0
-0.028125 0.140333 0
-0.025417 0.129023 0
-0.022975 0.110614 0
-0.021004 0.083438 0
-0.019620 0.045543 0
-0.018797 -0.005447 0
-0.018381 -0.072505 0
-0.018137 -0.159379 0
-0.017791 -0.270693 0
-0.017023 -0.411319 0
-0.015120 -0.579284 0
-0.009593 -0.694915 0
-0.000169 -0.000357 0
0.000000 0.360046 0
0.000000 -0.000015 0
-0.005351 -0.032067 0
-0.010222 -0.016784 0
-0.013921 -0.000041 0
-0.016657 0.014015 0
-0.018670 0.025667 0
-0.020156 0.035382 0
-0.021282 0.043535 0
-0.022182 0.050461 0
-0.022961 0.056458 0
-0.023695 0.061790 0
-0.024437 0.066694 0
-0.025216 0.071372 0
-0.026039 0.075999 0
-0.026895 0.080719 0
-0.027756 0.085645 0
-0.028583 0.090862 0
-0.029323 0.096422 0
-0.029915 0.102342 0
-0.030290 0.108596 0
-0.030374 0.115108 0
-0.030097 0.121732 0
-0.029392 0.128244 0
-0.028213 0.134317 0
-0.026541 0.139507 0
-0.024398 0.143234 0
-0.021852 0.144766 0
-0.019024 0.143208 0
-0.016084 0.137492 0
-0.013237 0.126359 0
-0.010697 0.108337 0
-0.008656 0.081707 0
-0.007231 0.044419 0
-0.006447 -0.006018 0
-0.006233 -0.072661 0
-0.006463 -0.159310 0
-0.006988 -0.270618 0
-0.007655 -0.411626 0
-0.008038 -0.581394 0
-0.006036 -0.700511 0
-0.000127 -0.000363 0
0.000000 0.363844 0
0.000000 -0.000012 0
-0.005322 -0.027046 0
-0.009765 -0.012711 0
-0.013008 0.002975 0
-0.015379 0.016234 0
-0.017112 0.027296 0
-0.018374 0.036586 0
-0.019298 0.044449 0
-0.019994 0.051193 0
-0.020547 0.057090 0
-0.021023 0.062383 0
-0.021465 0.067284 0
-0.021898 0.071976 0
-0.022327 0.076615 0
-0.022742 0.081329 0
-0.023119 0.086218 0
-0.023424 0.091354 0
-0.023611 0.096781 0
-0.023626 0.102507 0
-0.023414 0.108502 0
-0.022913 0.114690 0
-0.022067 0.120931 0
-0.020830 0.127014 0
-0.019173 0.132635 0
-0.017092 0.137382 0
-0.014620 0.140715 0
-0.011832 0.141950 0
-0.008845 0.140238 0
-0.005817 0.134546 0
-0.002933 0.123636 0
-0.000389 0.106033 0
0.001638 0.079971 0
0.003019 0.043334 0
0.003693 -0.006445 0
0.003671 -0.072489 0
0.002999 -0.158624 0
0.001736 -0.269501 0
-0.000099 -0.410269 0
-0.002321 -0.580903 0
-0.003203 -0.702952 0
-0.000097 -0.000365 0
0.000000 0.366075 0
0.000000 -0.000009 0
-0.004985 -0.022303 0
-0.008983 -0.009098 0
-0.011827 0.005573 0
-0.013861 0.018119 0
-0.015321 0.028662 0
-0.016354 0.037567 0
-0.017070 0.045155 0
-0.017561 0.051710 0
-0.017898 0.057487 0
-0.018134 0.062709 0
-0.018305 0.067569 0
-0.018429 0.072233 0
-0.018511 0.076843 0
-0.018543 0.081511 0
-0.018503 0.086327 0
-0.018362 0.091353 0
-0.018080 0.096625 0
-0.017615 0.102145 0
-0.016919 0.107883 0
-0.015944 0.113761 0
-0.014649 0.119649 0
-0.013001 0.125349 0
-0.010987 0.130579 0
-0.008613 0.134955 0
-0.005922 0.137973 0
-0.002988 0.138990 0
0.000077 0.137194 0
0.003125 0.131581 0
0.005986 0.120930 0
0.008478 0.103766 0
0.010432 0.078299 0
0.011703 0.042364 0
0.012204 -0.006669 0
0.011893 -0.071966 0
0.010755 -0.157375 0
0.008782 -0.267519 0
0.005939 -0.407569 0
0.002317 -0.578291 0
-0.000876 -0.702832 0
-0.000075 -0.000363 0
0.000000 0.367046 0
0.000000 -0.000007 0
-0.004233 -0.018063 0
-0.007800 -0.005869 0
-0.010337 0.007853 0
-0.012109 0.019728 0
-0.013337 0.029790 0
-0.014158 0.038335 0
-0.014677 0.045657 0
-0.014971 0.052021 0
-0.015103 0.057663 0
-0.015115 0.062789 0
-0.015037 0.067578 0
-0.014884 0.072182 0
-0.014659 0.076729 0
-0.014353 0.081321 0
-0.013951 0.086037 0
-0.013425 0.090932 0
-0.012744 0.096034 0
-0.011873 0.101345 0
-0.010774 0.106831 0
-0.009412 0.112420 0
-0.007756 0.117989 0
-0.005786 0.123352 0
-0.003499 0.128247 0
-0.000911 0.132317 0
0.001932 0.135090 0
0.004955 0.135951 0
0.008052 0.134125 0
0.011086 0.128637 0
0.013893 0.118283 0
0.016302 0.101587 0
0.018143 0.076746 0
0.019267 0.041561 0
0.019553 -0.006635 0
0.018917 -0.071039 0
0.017287 -0.155512 0
0.014604 -0.264686 0
0.010819 -0.403805 0
0.006017 -0.574088 0
0.001068 -0.700635 0
-0.000056 -0.000358 0
0.000000 0.366957 0
0.000000 -0.000005 0
-0.003367 -0.014503 0
-0.006442 -0.002994 0
-0.008671 0.009882 0
-0.010208 0.021118 0
-0.011226 0.030711 0
-0.011852 0.038907 0
-0.012184 0.045968 0
-0.012292 0.052137 0
-0.012229 0.057631 0
-0.012033 0.062643 0
-0.011726 0.067337 0
-0.011321 0.071855 0
-0.010820 0.076312 0
-0.010216 0.080803 0
-0.009494 0.085399 0
-0.008633 0.090147 0
-0.007608 0.095073 0
-0.006390 0.100175 0
-0.004951 0.105421 0
-0.003265 0.110743 0
-0.001312 0.116023 0
0.000919 0.121092 0
0.003422 0.125704 0
0.006175 0.129524 0
0.009129 0.132107 0
0.012211 0.132870 0
0.015317 0.131063 0
0.018316 0.125740 0
0.021056 0.115714 0
0.023368 0.099516 0
0.025083 0.075334 0
0.026040 0.040953 0
0.026094 -0.006319 0
0.025122 -0.069700 0
0.023014 -0.153063 0
0.019670 -0.261051 0
0.015008 -0.398982 0
0.009062 -0.568539 0
0.002664 -0.696815 0
-0.000043 -0.000352 0
0.000000 0.365990 0
0.000000 -0.000003 0
-0.002635 -0.011622 0
-0.005148 -0.000565 0
-0.007003 0.011619 0
-0.008272 0.022283 0
-0.009070 0.031433 0
-0.009502 0.039293 0
-0.009652 0.046097 0
-0.009581 0.052067 0
-0.009334 0.057404 0
-0.008942 0.062286 0
-0.008423 0.066867 0
-0.007788 0.071277 0
-0.007037 0.075624 0
-0.006164 0.079995 0
-0.005158 0.084454 0
-0.004000 0.089045 0
-0.002672 0.093791 0
-0.001152 0.098688 0
0.000580 0.103706 0
0.002543 0.108781 0
0.004749 0.113805 0
0.007198 0.118618 0
0.009882 0.122991 0
0.012770 0.126610 0
0.015814 0.129053 0
0.018940 0.129764 0
0.022046 0.128020 0
0.025009 0.122898 0
0.027681 0.113231 0
0.029896 0.097559 0
0.031483 0.074074 0
0.032269 0.040550 0
0.032086 -0.005717 0
0.030782 -0.067959 0
0.028214 -0.150060 0
0.024247 -0.256679 0
0.018771 -0.393198 0
0.011772 -0.561744 0
0.004025 -0.691572 0
-0.000034 -0.000343 0
0.000000 0.364307 0
0.000000 -0.000002 0
-0.002051 -0.009355 0
-0.003997 0.001374 0
-0.005429 0.013007 0
-0.006384 0.023185 0
-0.006938 0.031941 0
-0.007166 0.039489 0
-0.007133 0.046047 0
-0.006887 0.051819 0
-0.006463 0.056992 0
-0.005886 0.061732 0
-0.005170 0.066184 0
-0.004321 0.070469 0
-0.003341 0.074689 0
-0.002223 0.078924 0
-0.000958 0.083234 0
0.000466 0.087661 0
0.002064 0.092225 0
0.003853 0.096923 0
0.005845 0.101726 0
0.008053 0.106574 0
0.010480 0.111368 0
0.013123 0.115959 0
0.015965 0.120132 0
0.018975 0.123592 0
0.022100 0.125938 0
0.025267 0.126637 0
0.028378 0.124994 0
0.031313 0.120106 0
0.033926 0.110828 0
0.036055 0.095713 0
0.037521 0.072962 0
0.038141 0.040351 0
0.037728 -0.004833 0
0.036102 -0.065828 0
0.033093 -0.146528 0
0.028533 -0.251608 0
0.022279 -0.386506 0
0.014276 -0.553794 0
0.005266 -0.685043 0
-0.000029 -0.000333 0
0.000000 0.361983 0
0.000000 -0.000001 0
-0.001577 -0.007624 0
-0.002979 0.002812 0
-0.003966 0.014006 0
-0.004580 0.023791 0
-0.004870 0.032215 0
-0.004885 0.039488 0
-0.004667 0.045818 0
-0.004248 0.051397 0
-0.003655 0.056403 0
-0.002901 0.060992 0
-0.001999 0.065302 0
-0.000951 0.069448 0
0.000243 0.073525 0
0.001588 0.077612 0
0.003090 0.081765 0
0.004758 0.086022 0
0.006604 0.090404 0
0.008637 0.094907 0
0.010867 0.099506 0
0.013297 0.104146 0
0.015928 0.108735 0
0.018749 0.113133 0
0.021741 0.117139 0
0.024867 0.120476 0
0.028075 0.122761 0
0.031291 0.123485 0
0.034420 0.121974 0
0.037342 0.117350 0
0.039915 0.108490 0
0.041972 0.093965 0
0.043333 0.071988 0
0.043801 0.040344 0
0.043171 -0.003679 0
0.041240 -0.063324 0
0.037808 -0.142491 0
0.032679 -0.245866 0
0.025673 -0.378941 0
0.016692 -0.544730 0
0.006449 -0.677296 0
-0.000027 -0.000322 0
0.000000 0.359063 0
0.000000 -0.000001 0
-0.001142 -0.006376 0
-0.002031 0.003763 0
-0.002585 0.014607 0
-0.002858 0.024089 0
-0.002883 0.032246 0
-0.002684 0.039286 0
-0.002283 0.045410 0
-0.001697 0.050807 0
-0.000939 0.055645 0
-0.000018 0.060076 0
0.001062 0.064233 0
0.002299 0.068227 0
0.003694 0.072150 0
0.005251 0.076078 0
0.006975 0.080064 0
0.008872 0.084147 0
0.010949 0.088346 0
0.013211 0.092660 0
0.015663 0.097066 0
0.018304 0.101513 0
0.021128 0.105916 0
0.024122 0.110146 0
0.027261 0.114015 0
0.030509 0.117258 0
0.033809 0.119513 0
0.037090 0.120292 0
0.040255 0.118942 0
0.043187 0.114612 0
0.045741 0.106198 0
0.047751 0.092295 0
0.049029 0.071133 0
0.049365 0.040513 0
0.048537 -0.002271 0
0.046318 -0.060465 0
0.042483 -0.137968 0
0.036802 -0.239473 0
0.029057 -0.370519 0
0.019107 -0.534569 0
0.007633 -0.668351 0
-0.000026 -0.000309 0
0.000000 0.355559 0
0.000000 -0.000000 0
-0.000677 -0.005593 0
-0.001090 0.004255 0
-0.001248 0.014833 0
-0.001207 0.024090 0
-0.000982 0.032041 0
-0.000580 0.038888 0
-0.000004 0.044830 0
0.000742 0.050054 0
0.001656 0.054725 0
0.002738 0.058991 0
0.003988 0.062985 0
0.005406 0.066815 0
0.006994 0.070573 0
0.008754 0.074331 0
0.010690 0.078144 0
0.012805 0.082048 0
0.015102 0.086064 0
0.017584 0.090193 0
0.020250 0.094414 0
0.023095 0.098682 0
0.026110 0.102917 0
0.029278 0.106999 0
0.032571 0.110753 0
0.035950 0.113928 0
0.039359 0.116180 0
0.042724 0.117039 0
0.045949 0.115877 0
0.048916 0.111865 0
0.051481 0.103925 0
0.053471 0.090677 0
0.054692 0.070374 0
0.054922 0.040835 0
0.053920 -0.000632 0
0.051434 -0.057270 0
0.047212 -0.132974 0
0.040990 -0.232441 0
0.032512 -0.361246 0
0.021586 -0.523306 0
0.008861 -0.658190 0
-0.000027 -0.000294 0
0.000000 0.351458 0
0.000000 -0.000000 0
-0.000165 -0.005286 0
-0.000137 0.004334 0
0.000055 0.014724 0
0.000378 0.023823 0
0.000828 0.031620 0
0.001415 0.038308 0
0.002150 0.044089 0
0.003046 0.049146 0
0.004109 0.053648 0
0.005345 0.057745 0
0.006758 0.061565 0
0.008351 0.065221 0
0.010125 0.068802 0
0.012082 0.072381 0
0.014224 0.076013 0
0.016552 0.079734 0
0.019065 0.083567 0
0.021762 0.087513 0
0.024639 0.091555 0
0.027688 0.095653 0
0.030898 0.099733 0
0.034246 0.103685 0
0.037704 0.107342 0
0.041230 0.110470 0
0.044767 0.112740 0
0.048240 0.113702 0
0.051554 0.112750 0
0.054587 0.109080 0