# vtk DataFile Version 2.0
generated by CFD-lab course output (written by Tobias Neckel) 
ASCII

DATASET STRUCTURED_GRID
DIMENSIONS  42 42 1 
POINTS 1764 float

0.150000 0.150000 0
0.167857 0.150000 0
0.185714 0.150000 0
0.203571 0.150000 0
0.221429 0.150000 0
0.239286 0.150000 0
0.257143 0.150000 0
0.275000 0.150000 0
0.292857 0.150000 0
0.310714 0.150000 0
0.328571 0.150000 0
0.346429 0.150000 0
0.364286 0.150000 0
0.382143 0.150000 0
0.400000 0.150000 0
0.417857 0.150000 0
0.435714 0.150000 0
0.453571 0.150000 0
0.471429 0.150000 0
0.489286 0.150000 0
0.507143 0.150000 0
0.525000 0.150000 0
0.542857 0.150000 0
0.560714 0.150000 0
0.578571 0.150000 0
0.596429 0.150000 0
0.614286 0.150000 0
0.632143 0.150000 0
0.650000 0.150000 0
0.667857 0.150000 0
0.685714 0.150000 0
0.703571 0.150000 0
0.721429 0.150000 0
0.739286 0.150000 0
0.757143 0.150000 0
0.775000 0.150000 0
0.792857 0.150000 0
0.810714 0.150000 0
0.828571 0.150000 0
0.846429 0.150000 0
0.864286 0.150000 0
0.882143 0.150000 0
0.150000 0.167857 0
0.167857 0.167857 0
0.185714 0.167857 0
0.203571 0.167857 0
0.221429 0.167857 0
0.239286 0.167857 0
0.257143 0.167857 0
0.275000 0.167857 0
0.292857 0.167857 0
0.310714 0.167857 0
0.328571 0.167857 0
0.346429 0.167857 0
0.364286 0.167857 0
0.382143 0.167857 0
0.400000 0.167857 0
0.417857 0.167857 0
0.435714 0.167857 0
0.453571 0.167857 0
0.471429 0.167857 0
0.489286 0.167857 0
0.507143 0.167857 0
0.525000 0.167857 0
0.542857 0.167857 0
0.560714 0.167857 0
0.578571 0.167857 0
0.596429 0.167857 0
0.614286 0.167857 0
0.632143 0.167857 0
0.650000 0.167857 0
0.667857 0.167857 0
0.685714 0.167857 0
0.703571 0.167857 0
0.721429 0.167857 0
0.739286 0.167857 0
0.757143 0.167857 0
0.775000 0.167857 0
0.792857 0.167857 0
0.810714 0.167857 0
0.828571 0.167857 0
0.846429 0.167857 0
0.864286 0.167857 0
0.882143 0.167857 0
0.150000 0.185714 0
0.167857 0.185714 0
0.185714 0.185714 0
0.203571 0.185714 0
0.221429 0.185714 0
0.239286 0.185714 0
0.257143 0.185714 0
0.275000 0.185714 0
0.292857 0.185714 0
0.310714 0.185714 0
0.328571 0.185714 0
0.346429 0.185714 0
0.364286 0.185714 0
0.382143 0.185714 0
0.400000 0.185714 0
0.417857 0.185714 0
0.435714 0.185714 0
0.453571 0.185714 0
0.471429 0.185714 0
0.489286 0.185714 0
0.507143 0.185714 0
0.525000 0.185714 0
0.542857 0.185714 0
0.560714 0.185714 0
0.578571 0.185714 0
0.596429 0.185714 0
0.614286 0.185714 0
0.632143 0.185714 0
0.650000 0.185714 0
0.667857 0.185714 0
0.685714 0.185714 0
0.703571 0.185714 0
0.721429 0.185714 0
0.739286 0.185714 0
0.757143 0.185714 0
0.775000 0.185714 0
0.792857 0.185714 0
0.810714 0.185714 0
0.828571 0.185714 0
0.846429 0.185714 0
0.864286 0.185714 0
0.882143 0.185714 0
0.150000 0.203571 0
0.167857 0.203571 0
0.185714 0.203571 0
0.203571 0.203571 0
0.221429 0.203571 0
0.239286 0.203571 0
0.257143 0.203571 0
0.275000 0.203571 0
0.292857 0.203571 0
0.310714 0.203571 0
0.328571 0.203571 0
0.346429 0.203571 0
0.364286 0.203571 0
0.382143 0.203571 0
0.400000 0.203571 0
0.417857 0.203571 0
0.435714 0.203571 0
0.453571 0.203571 0
0.471429 0.203571 0
0.489286 0.203571 0
0.507143 0.203571 0
0.525000 0.203571 0
0.542857 0.203571 0
0.560714 0.203571 0
0.578571 0.203571 0
0.596429 0.203571 0
0.614286 0.203571 0
0.632143 0.203571 0
0.650000 0.203571 0
0.667857 0.203571 0
0.685714 0.203571 0
0.703571 0.203571 0
0.721429 0.203571 0
0.739286 0.203571 0
0.757143 0.203571 0
0.775000 0.203571 0
0.792857 0.203571 0
0.810714 0.203571 0
0.828571 0.203571 0
0.846429 0.203571 0
0.864286 0.203571 0
0.882143 0.203571 0
0.150000 0.221429 0
0.167857 0.221429 0
0.185714 0.221429 0
0.203571 0.221429 0
0.221429 0.221429 0
0.239286 0.221429 0
0.257143 0.221429 0
0.275000 0.221429 0
0.292857 0.221429 0
0.310714 0.221429 0
0.328571 0.221429 0
0.346429 0.221429 0
0.364286 0.221429 0
0.382143 0.221429 0
0.400000 0.221429 0
0.417857 0.221429 0
0.435714 0.221429 0
0.453571 0.221429 0
0.471429 0.221429 0
0.489286 0.221429 0
0.507143 0.221429 0
0.525000 0.221429 0
0.542857 0.221429 0
0.560714 0.221429 0
0.578571 0.221429 0
0.596429 0.221429 0
0.614286 0.221429 0
0.632143 0.221429 0
0.650000 0.221429 0
0.667857 0.221429 0
0.685714 0.221429 0
0.703571 0.221429 0
0.721429 0.221429 0
0.739286 0.221429 0
0.757143 0.221429 0
0.775000 0.221429 0
0.792857 0.221429 0
0.810714 0.221429 0
0.828571 0.221429 0
0.846429 0.221429 0
0.864286 0.221429 0
0.882143 0.221429 0
0.150000 0.239286 0
0.167857 0.239286 0
0.185714 0.239286 0
0.203571 0.239286 0
0.221429 0.239286 0
0.239286 0.239286 0
0.257143 0.239286 0
0.275000 0.239286 0
0.292857 0.239286 0
0.310714 0.239286 0
0.328571 0.239286 0
0.346429 0.239286 0
0.364286 0.239286 0
0.382143 0.239286 0
0.400000 0.239286 0
0.417857 0.239286 0
0.435714 0.239286 0
0.453571 0.239286 0
0.471429 0.239286 0
0.489286 0.239286 0
0.507143 0.239286 0
0.525000 0.239286 0
0.542857 0.239286 0
0.560714 0.239286 0
0.578571 0.239286 0
0.596429 0.239286 0
0.614286 0.239286 0
0.632143 0.239286 0
0.650000 0.239286 0
0.667857 0.239286 0
0.685714 0.239286 0
0.703571 0.239286 0
0.721429 0.239286 0
0.739286 0.239286 0
0.757143 0.239286 0
0.775000 0.239286 0
0.792857 0.239286 0
0.810714 0.239286 0
0.828571 0.239286 0
0.846429 0.239286 0
0.864286 0.239286 0
0.882143 0.239286 0
0.150000 0.257143 0
0.167857 0.257143 0
0.185714 0.257143 0
0.203571 0.257143 0
0.221429 0.257143 0
0.239286 0.257143 0
0.257143 0.257143 0
0.275000 0.257143 0
0.292857 0.257143 0
0.310714 0.257143 0
0.328571 0.257143 0
0.346429 0.257143 0
0.364286 0.257143 0
0.382143 0.257143 0
0.400000 0.257143 0
0.417857 0.257143 0
0.435714 0.257143 0
0.453571 0.257143 0
0.471429 0.257143 0
0.489286 0.257143 0
0.507143 0.257143 0
0.525000 0.257143 0
0.542857 0.257143 0
0.560714 0.257143 0
0.578571 0.257143 0
0.596429 0.257143 0
0.614286 0.257143 0
0.632143 0.257143 0
0.650000 0.257143 0
0.667857 0.257143 0
0.685714 0.257143 0
0.703571 0.257143 0
0.721429 0.257143 0
0.739286 0.257143 0
0.757143 0.257143 0
0.775000 0.257143 0
0.792857 0.257143 0
0.810714 0.257143 0
0.828571 0.257143 0
0.846429 0.257143 0
0.864286 0.257143 0
0.882143 0.257143 0
0.150000 0.275000 0
0.167857 0.275000 0
0.185714 0.275000 0
0.203571 0.275000 0
0.221429 0.275000 0
0.239286 0.275000 0
0.257143 0.275000 0
0.275000 0.275000 0
0.292857 0.275000 0
0.310714 0.275000 0
0.328571 0.275000 0
0.346429 0.275000 0
0.364286 0.275000 0
0.382143 0.275000 0
0.400000 0.275000 0
0.417857 0.275000 0
0.435714 0.275000 0
0.453571 0.275000 0
0.471429 0.275000 0
0.489286 0.275000 0
0.507143 0.275000 0
0.525000 0.275000 0
0.542857 0.275000 0
0.560714 0.275000 0
0.578571 0.275000 0
0.596429 0.275000 0
0.614286 0.275000 0
0.632143 0.275000 0
0.650000 0.275000 0
0.667857 0.275000 0
0.685714 0.275000 0
0.703571 0.275000 0
0.721429 0.275000 0
0.739286 0.275000 0
0.757143 0.275000 0
0.775000 0.275000 0
0.792857 0.275000 0
0.810714 0.275000 0
0.828571 0.275000 0
0.846429 0.275000 0
0.864286 0.275000 0
0.882143 0.275000 0
0.150000 0.292857 0
0.167857 0.292857 0
0.185714 0.292857 0
0.203571 0.292857 0
0.221429 0.292857 0
0.239286 0.292857 0
0.257143 0.292857 0
0.275000 0.292857 0
0.292857 0.292857 0
0.310714 0.292857 0
0.328571 0.292857 0
0.346429 0.292857 0
0.364286 0.292857 0
0.382143 0.292857 0
0.400000 0.292857 0
0.417857 0.292857 0
0.435714 0.292857 0
0.453571 0.292857 0
0.471429 0.292857 0
0.489286 0.292857 0
0.507143 0.292857 0
0.525000 0.292857 0
0.542857 0.292857 0
0.560714 0.292857 0
0.578571 0.292857 0
0.596429 0.292857 0
0.614286 0.292857 0
0.632143 0.292857 0
0.650000 0.292857 0
0.667857 0.292857 0
0.685714 0.292857 0
0.703571 0.292857 0
0.721429 0.292857 0
0.739286 0.292857 0
0.757143 0.292857 0
0.775000 0.292857 0
0.792857 0.292857 0
0.810714 0.292857 0
0.828571 0.292857 0
0.846429 0.292857 0
0.864286 0.292857 0
0.882143 0.292857 0
0.150000 0.310714 0
0.167857 0.310714 0
0.185714 0.310714 0
0.203571 0.310714 0
0.221429 0.310714 0
0.239286 0.310714 0
0.257143 0.310714 0
0.275000 0.310714 0
0.292857 0.310714 0
0.310714 0.310714 0
0.328571 0.310714 0
0.346429 0.310714 0
0.364286 0.310714 0
0.382143 0.310714 0
0.400000 0.310714 0
0.417857 0.310714 0
0.435714 0.310714 0
0.453571 0.310714 0
0.471429 0.310714 0
0.489286 0.310714 0
0.507143 0.310714 0
0.525000 0.310714 0
0.542857 0.310714 0
0.560714 0.310714 0
0.578571 0.310714 0
0.596429 0.310714 0
0.614286 0.310714 0
0.632143 0.310714 0
0.650000 0.310714 0
0.667857 0.310714 0
0.685714 0.310714 0
0.703571 0.310714 0
0.721429 0.310714 0
0.739286 0.310714 0
0.757143 0.310714 0
0.775000 0.310714 0
0.792857 0.310714 0
0.810714 0.310714 0
0.828571 0.310714 0
0.846429 0.310714 0
0.864286 0.310714 0
0.882143 0.310714 0
0.150000 0.328571 0
0.167857 0.328571 0
0.185714 0.328571 0
0.203571 0.328571 0
0.221429 0.328571 0
0.239286 0.328571 0
0.257143 0.328571 0
0.275000 0.328571 0
0.292857 0.328571 0
0.310714 0.328571 0
0.328571 0.328571 0
0.346429 0.328571 0
0.364286 0.328571 0
0.382143 0.328571 0
0.400000 0.328571 0
0.417857 0.328571 0
0.435714 0.328571 0
0.453571 0.328571 0
0.471429 0.328571 0
0.489286 0.328571 0
0.507143 0.328571 0
0.525000 0.328571 0
0.542857 0.328571 0
0.560714 0.328571 0
0.578571 0.328571 0
0.596429 0.328571 0
0.614286 0.328571 0
0.632143 0.328571 0
0.650000 0.328571 0
0.667857 0.328571 0
0.685714 0.328571 0
0.703571 0.328571 0
0.721429 0.328571 0
0.739286 0.328571 0
0.757143 0.328571 0
0.775000 0.328571 0
0.792857 0.328571 0
0.810714 0.328571 0
0.828571 0.328571 0
0.846429 0.328571 0
0.864286 0.328571 0
0.882143 0.328571 0
0.150000 0.346429 0
0.167857 0.346429 0
0.185714 0.346429 0
0.203571 0.346429 0
0.221429 0.346429 0
0.239286 0.346429 0
0.257143 0.346429 0
0.275000 0.346429 0
0.292857 0.346429 0
0.310714 0.346429 0
0.328571 0.346429 0
0.346429 0.346429 0
0.364286 0.346429 0
0.382143 0.346429 0
0.400000 0.346429 0
0.417857 0.346429 0
0.435714 0.346429 0
0.453571 0.346429 0
0.471429 0.346429 0
0.489286 0.346429 0
0.507143 0.346429 0
0.525000 0.346429 0
0.542857 0.346429 0
0.560714 0.346429 0
0.578571 0.346429 0
0.596429 0.346429 0
0.614286 0.346429 0
0.632143 0.346429 0
0.650000 0.346429 0
[...]
POINT_DATA 1764 

VECTORS velocity float
0.000000 0.000000 0
-0.000001 0.000000 0
-0.000002 0.000000 0
-0.000002 0.000000 0
-0.000002 0.000000 0
-0.000002 0.000000 0
-0.000001 0.000000 0
-0.000001 0.000000 0
-0.000001 0.000000 0
-0.000001 0.000000 0
-0.000002 0.000000 0
0.000000 0.000000 0
0.000002 0.000000 0
0.000003 0.000000 0
0.000004 0.000000 0
0.000005 0.000000 0
0.000005 0.000000 0
0.000006 0.000000 0
0.000006 0.000000 0
0.000006 0.000000 0
0.000006 0.000000 0
0.000006 0.000000 0
0.000007 0.000000 0
0.000007 0.000000 0
0.000007 0.000000 0
0.000007 0.000000 0
0.000007 0.000000 0
0.000007 0.000000 0
0.000007 0.000000 0
0.000007 0.000000 0
0.000007 0.000000 0
0.000007 0.000000 0
0.000007 0.000000 0
0.000006 0.000000 0
0.000006 0.000000 0
0.000005 0.000000 0
0.000003 0.000000 0
0.000001 0.000000 0
-0.000001 0.000000 0
-0.000001 0.000000 0
-0.000000 0.000000 0
0.000000 0.000000 0
0.000000 0.000001 0
0.016437 -0.015450 0
0.034100 -0.012819 0
0.043360 -0.004024 0
0.043980 0.003035 0
0.038939 0.006177 0
0.032120 0.005068 0
0.028820 0.002533 0
0.025546 -0.000370 0
0.013975 -0.006238 0
-0.003009 -0.002161 0
-0.024035 0.013127 0
-0.049762 0.023623 0
-0.077802 0.027392 0
-0.105837 0.027898 0
-0.132512 0.027028 0
-0.156942 0.025150 0
-0.178632 0.022705 0
-0.197370 0.019992 0
-0.213130 0.017209 0
-0.225997 0.014468 0
-0.236101 0.011816 0
-0.243571 0.009256 0
-0.248500 0.006741 0
-0.250915 0.004195 0
-0.250759 0.001524 0
-0.247919 -0.001391 0
-0.242251 -0.004630 0
-0.233533 -0.008190 0
-0.221478 -0.012062 0
-0.205767 -0.016279 0
-0.186066 -0.020829 0
-0.162088 -0.025601 0
-0.133712 -0.030319 0
-0.101191 -0.034416 0
-0.065520 -0.036850 0
-0.029096 -0.035439 0
0.003127 -0.021596 0
0.022154 0.001879 0
0.013116 0.015746 0
-0.000007 -0.000001 0
0.000000 -0.008967 0
0.000000 0.000002 0
0.018776 -0.034100 0
0.034727 -0.026923 0
0.042710 -0.009880 0
0.042555 0.004421 0
0.037251 0.011860 0
0.028191 0.010119 0
0.013165 0.006574 0
-0.008311 0.014845 0
-0.038572 0.028556 0
-0.077785 0.038011 0
-0.112105 0.046752 0
-0.141300 0.053767 0
-0.167638 0.056075 0
-0.191741 0.054710 0
-0.213015 0.051105 0
-0.231276 0.046120 0
-0.246501 0.040427 0
-0.258796 0.034497 0
-0.268341 0.028627 0
-0.275339 0.022971 0
-0.279981 0.017574 0
-0.282420 0.012399 0
-0.282751 0.007344 0
-0.281013 0.002260 0
-0.277176 -0.002995 0
-0.271235 -0.008508 0
-0.263098 -0.014387 0
-0.252610 -0.020774 0
-0.239513 -0.027765 0
-0.223513 -0.035412 0
-0.204322 -0.043680 0
-0.181688 -0.052353 0
-0.155490 -0.060897 0
-0.125897 -0.068192 0
-0.093658 -0.072095 0
-0.060606 -0.068647 0
-0.030011 -0.051249 0
-0.002484 -0.009988 0
0.006302 0.022154 0
-0.000006 -0.000001 0
0.000000 -0.013116 0
0.000000 0.000003 0
0.015684 -0.050177 0
0.025499 -0.036753 0
0.028288 -0.011852 0
0.021369 0.008493 0
0.008960 0.020541 0
-0.009505 0.029154 0
-0.038833 0.039035 0
-0.074705 0.051367 0
-0.107709 0.063237 0
-0.138838 0.071372 0
-0.167399 0.076642 0
-0.191182 0.079156 0
-0.210806 0.077832 0
-0.227074 0.073275 0
-0.240294 0.066564 0
-0.250779 0.058636 0
-0.258844 0.050224 0
-0.264793 0.041831 0
-0.268896 0.033751 0
-0.271379 0.026108 0
-0.272409 0.018898 0
-0.272094 0.012026 0
-0.270484 0.005333 0
-0.267585 -0.001381 0
-0.263386 -0.008254 0
-0.257817 -0.015468 0
-0.250698 -0.023255 0
-0.241829 -0.031775 0
-0.230987 -0.041159 0
-0.217930 -0.051469 0
-0.202422 -0.062654 0
-0.184241 -0.074433 0
-0.163225 -0.086111 0
-0.139338 -0.096248 0
-0.112790 -0.102141 0
-0.084200 -0.099086 0
-0.054619 -0.079718 0
-0.025389 -0.034434 0
0.003627 0.013262 0
0.000006 -0.000002 0
0.000000 -0.015271 0
0.000000 0.000003 0
0.007939 -0.059598 0
0.007351 -0.039528 0
-0.000889 -0.005751 0
-0.015295 0.023749 0
-0.035252 0.042734 0
-0.061161 0.057912 0
-0.091024 0.071774 0
-0.121502 0.083721 0
-0.149221 0.092689 0
-0.173606 0.097700 0
-0.194559 0.099096 0
-0.211131 0.097174 0
-0.223701 0.091968 0
-0.233021 0.084198 0
-0.239729 0.074810 0
-0.244376 0.064671 0
-0.247413 0.054441 0
-0.249189 0.044549 0
-0.249965 0.035213 0
-0.249918 0.026484 0
-0.249154 0.018289 0
-0.247717 0.010474 0
-0.245601 0.002834 0
-0.242759 -0.004838 0
-0.239183 -0.012763 0
-0.234669 -0.021196 0
-0.229063 -0.030375 0
-0.222180 -0.040485 0
-0.213840 -0.051663 0
-0.203864 -0.063977 0
-0.192081 -0.077369 0
-0.178317 -0.091550 0
-0.162376 -0.105800 0
-0.144023 -0.118627 0
-0.122955 -0.127234 0
-0.098793 -0.126819 0
-0.071088 -0.110060 0
-0.039515 -0.068234 0
-0.004685 -0.003235 0
0.000011 -0.000001 0
0.000000 -0.016743 0
0.000000 0.000002 0
-0.003731 -0.057528 0
-0.016587 -0.027925 0
-0.035536 0.010794 0
-0.053742 0.042857 0
-0.075191 0.066407 0
-0.099841 0.084926 0
-0.125258 0.099376 0
-0.149369 0.109565 0
-0.170529 0.115341 0
-0.188111 0.116710 0
-0.202002 0.114166 0
-0.212032 0.108299 0
-0.218680 0.099723 0
-0.222661 0.089303 0
-0.224668 0.077919 0
-0.225283 0.066319 0
-0.224959 0.055037 0
-0.224020 0.044384 0
-0.222690 0.034480 0
-0.221106 0.025296 0
-0.219336 0.016696 0
-0.217395 0.008474 0
-0.215252 0.000375 0
-0.212842 -0.007799 0
-0.210054 -0.016344 0
-0.206698 -0.025589 0
-0.202604 -0.035744 0
-0.197598 -0.046997 0
-0.191527 -0.059474 0
-0.184266 -0.073228 0
-0.175712 -0.088202 0
-0.165755 -0.104138 0
-0.154220 -0.120404 0
-0.140777 -0.135669 0
-0.124822 -0.147371 0
-0.105374 -0.150953 0
-0.081163 -0.138996 0
-0.051362 -0.100836 0
-0.018432 -0.026253 0
-0.000001 0.000002 0
0.000000 -0.010581 0
0.000000 0.000001 0
-0.015328 -0.043011 0
-0.037418 -0.007723 0
-0.059648 0.031403 0
-0.080085 0.063405 0
-0.101339 0.088833 0
-0.122982 0.107979 0
-0.143537 0.121302 0
-0.161789 0.128992 0
-0.176866 0.131431 0
-0.188416 0.129173 0
-0.196477 0.123017 0
-0.201272 0.113852 0
-0.203362 0.102597 0
-0.203420 0.090186 0
-0.202083 0.077433 0
-0.199885 0.064962 0
-0.197235 0.053178 0
-0.194432 0.042281 0
-0.191682 0.032299 0
-0.189111 0.023130 0
-0.186781 0.014578 0
-0.184693 0.006389 0
-0.182803 -0.001718 0
-0.181038 -0.010036 0
-0.179171 -0.018907 0
-0.177033 -0.028646 0
-0.174415 -0.039475 0
-0.171129 -0.051562 0
-0.167020 -0.064995 0
-0.161994 -0.079793 0
-0.156003 -0.095881 0
-0.149012 -0.113042 0
-0.140920 -0.130777 0
-0.131432 -0.148025 0
-0.119879 -0.162637 0
-0.105041 -0.170477 0
-0.085190 -0.164073 0
-0.058814 -0.130965 0
-0.027017 -0.054597 0
-0.000019 0.000005 0
0.000000 0.001695 0
0.000000 0.000000 0
-0.022733 -0.020110 0
-0.049475 0.016394 0
-0.072626 0.053460 0
-0.094150 0.084549 0
-0.114331 0.109304 0
-0.132928 0.127123 0
-0.149201 0.138183 0
-0.162543 0.142895 0
-0.172582 0.141969 0
-0.179266 0.136321 0
-0.182825 0.127022 0
-0.183672 0.115184 0
-0.182390 0.101870 0
-0.179589 0.088024 0
-0.175829 0.074385 0
-0.171585 0.061471 0
-0.167236 0.049584 0
-0.163076 0.038831 0
-0.159325 0.029160 0
-0.156122 0.020396 0
-0.153535 0.012278 0
-0.151561 0.004496 0
-0.150135 -0.003279 0
-0.149142 -0.011431 0
-0.148338 -0.020349 0
-0.147503 -0.030345 0
-0.146379 -0.041648 0
-0.144724 -0.054392 0
-0.142350 -0.068609 0
-0.139162 -0.084246 0
-0.135147 -0.101184 0
-0.130334 -0.119221 0
-0.124716 -0.137984 0
-0.118115 -0.156710 0
-0.109964 -0.173762 0
-0.099043 -0.185642 0
-0.083341 -0.185224 0
-0.060518 -0.159010 0
-0.029997 -0.085067 0
-0.000035 0.000006 0
0.000000 0.016439 0
0.000000 -0.000001 0
-0.026431 0.006464 0
-0.053582 0.042170 0
-0.077211 0.076079 0
-0.098441 0.105110 0
-0.117042 0.127611 0
-0.132863 0.142849 0
-0.145595 0.150916 0
-0.155040 0.152373 0
-0.161170 0.148154 0
-0.164169 0.139416 0
-0.164408 0.127423 0
-0.162378 0.113417 0
-0.158635 0.098513 0
-0.153719 0.083625 0
-0.148125 0.069429 0
-0.142285 0.056368 0
-0.136579 0.044669 0
-0.131334 0.034370 0
-0.126808 0.025345 0
-0.123179 0.017341 0
-0.120532 0.010018 0
-0.118859 0.002989 0
-0.118067 -0.004138 0
-0.117996 -0.011833 0
-0.118390 -0.020545 0
-0.118967 -0.030605 0
-0.119401 -0.042255 0
-0.119364 -0.055591 0
-0.118604 -0.070557 0
-0.116998 -0.086996 0
-0.114555 -0.104709 0
-0.111347 -0.123472 0
-0.107448 -0.142995 0
-0.102815 -0.162777 0
-0.097075 -0.181709 0
-0.089191 -0.197101 0
-0.077129 -0.202597 0
-0.058001 -0.184309 0
-0.029982 -0.115115 0
-0.000046 0.000007 0
0.000000 0.031694 0
0.000000 -0.000001 0
-0.026443 0.033472 0
-0.052473 0.067174 0
-0.075618 0.098319 0
-0.095679 0.124380 0
-0.112423 0.143727 0
-0.125766 0.155677 0
-0.135640 0.160361 0
-0.142099 0.158469 0
-0.145330 0.151097 0
-0.145667 0.139559 0
-0.143549 0.125231 0
-0.139472 0.109410 0
-0.133936 0.093212 0
-0.127413 0.077514 0
-0.120344 0.062950 0
-0.113155 0.049926 0
-0.106261 0.038633 0
-0.100059 0.029059 0
-0.094888 0.021005 0
-0.090979 0.014120 0
-0.088434 0.007958 0
-0.087225 0.002030 0
-0.087212 -0.004143 0
-0.088169 -0.011108 0
-0.089843 -0.019378 0
-0.091907 -0.029334 0
-0.093949 -0.041251 0
-0.095531 -0.055189 0
-0.096299 -0.070975 0
-0.096102 -0.088295 0
-0.094966 -0.106835 0
-0.093000 -0.126327 0
-0.090332 -0.146515 0
-0.087027 -0.167083 0
-0.082914 -0.187386 0
-0.077252 -0.205588 0
-0.068237 -0.216414 0
-0.052802 -0.206157 0
-0.028232 -0.143068 0
-0.000053 0.000008 0
0.000000 0.046423 0
0.000000 -0.000002 0
-0.023639 0.058937 0
-0.048278 0.091344 0
-0.069917 0.119284 0
-0.088219 0.141915 0
-0.102961 0.157698 0
-0.114098 0.166066 0
-0.121687 0.167249 0
-0.125916 0.162063 0
-0.127085 0.151723 0
-0.125589 0.137635 0
-0.121873 0.121228 0
-0.116387 0.103804 0
-0.109558 0.086454 0
-0.101788 0.070033 0
-0.093479 0.055170 0
-0.085071 0.042284 0
-0.077065 0.031574 0
-0.069985 0.022998 0
-0.064304 0.016265 0
-0.060307 0.010887 0
-0.058080 0.006263 0
-0.057532 0.001767 0
-0.058440 -0.003195 0
-0.060438 -0.009201 0
-0.063365 -0.016807 0
-0.066875 -0.026499 0
-0.070481 -0.038631 0
-0.073605 -0.053241 0
-0.075765 -0.069986 0
-0.076787 -0.088330 0
-0.076739 -0.107810 0
-0.075771 -0.128106 0
-0.074044 -0.148969 0
-0.071691 -0.170195 0
-0.068699 -0.191484 0
-0.064633 -0.211778 0
-0.058086 -0.227047 0
-0.046122 -0.224314 0
-0.025413 -0.167917 0
-0.000057 0.000008 0
0.000000 0.059927 0
0.000000 -0.000003 0
-0.020255 0.081749 0
-0.042346 0.113452 0
-0.061727 0.138261 0
-0.077882 0.157424 0
-0.090567 0.169605 0
-0.099743 0.174402 0
-0.105516 0.172179 0
-0.108125 0.163867 0
-0.107901 0.150771 0
-0.105235 0.134347 0
-0.100526 0.116029 0
-0.094147 0.097096 0
-0.086436 0.078613 0
-0.077712 0.061434 0
-0.068334 0.046233 0
-0.058771 0.033512 0
-0.049663 0.023547 0
-0.041770 0.016299 0
-0.035806 0.011326 0
-0.032042 0.007895 0
-0.030456 0.005184 0
-0.030807 0.002390 0
-0.032757 -0.001237 0
-0.035884 -0.006183 0
-0.039912 -0.012942 0
-0.044655 -0.022217 0
-0.049605 -0.034521 0
-0.054033 -0.049906 0
-0.057315 -0.067793 0
-0.059280 -0.087320 0
-0.060071 -0.107851 0
-0.059884 -0.129023 0
-0.058906 -0.150595 0
-0.057302 -0.172429 0
-0.055156 -0.194443 0
-0.052284 -0.216200 0
-0.047716 -0.234925 0
-0.038874 -0.238830 0
-0.022087 -0.189190 0
-0.000056 0.000008 0
0.000000 0.071836 0
0.000000 -0.000003 0
-0.016497 0.101283 0
-0.035459 0.132816 0
-0.052161 0.154821 0
-0.065968 0.170756 0
-0.076617 0.179559 0
-0.084059 0.181014 0
-0.088401 0.175631 0
-0.089878 0.164448 0
-0.088800 0.148833 0
-0.085504 0.130260 0
-0.080315 0.110141 0
-0.073507 0.089714 0
-0.065310 0.070018 0
-0.055946 0.051932 0
-0.045699 0.036229 0
-0.035046 0.023612 0
-0.024925 0.014573 0
-0.016489 0.009141 0
-0.010809 0.006537 0
-0.007873 0.005537 0
-0.007255 0.005028 0
-0.008504 0.004067 0
-0.011284 0.001882 0
-0.015452 -0.002047 0
-0.020563 -0.008036 0
-0.026192 -0.016806 0
-0.032045 -0.029254 0
-0.037310 -0.045531 0
-0.041248 -0.064739 0
-0.043760 -0.085573 0
-0.045078 -0.107207 0
-0.045438 -0.129271 0
-0.045045 -0.151550 0
-0.044070 -0.173945 0
-0.042640 -0.196503 0
-0.040735 -0.219218 0
-0.037781 -0.240456 0
-0.031673 -0.249943 0
-0.018637 -0.206792 0
-0.000054 0.000008 0
0.000000 0.082014 0
0.000000 -0.000003 0
-0.012525 0.117208 0
-0.028102 0.149116 0
-0.041947 0.168770 0
-0.053346 0.181880 0
-0.062038 0.187696 0
-0.067957 0.186187 0
-0.071190 0.177998 0
-0.071933 0.164266 0
-0.070440 0.146397 0
-0.066979 0.125862 0
-0.061776 0.104031 0
-0.055003 0.082091 0
-0.046774 0.061052 0
-0.037187 0.041823 0
-0.026412 0.025334 0
-0.014893 0.012737 0
-0.004408 0.004990 0
0.002848 0.002184 0
0.007072 0.002710 0
0.008767 0.004341 0
0.008486 0.005816 0
0.006659 0.006419 0
0.003579 0.005711 0
-0.000696 0.003096 0
-0.006132 -0.002201 0
-0.012328 -0.010735 0
-0.018455 -0.023403 0
-0.023833 -0.040703 0
-0.027755 -0.061343 0
-0.030309 -0.083490 0
-0.031793 -0.106173 0
-0.032450 -0.129056 0
-0.032477 -0.151964 0
-0.032036 -0.174834 0
-0.031260 -0.197778 0
-0.030215 -0.221059 0
-0.028621 -0.243987 0
-0.024879 -0.257974 0
-0.015300 -0.220863 0
-0.000049 0.000008 0
0.000000 0.090473 0
0.000000 -0.000003 0
-0.008469 0.129385 0
-0.020580 0.162238 0
-0.031540 0.180065 0
-0.040566 0.190847 0
-0.047412 0.194170 0
-0.052002 0.190167 0
-0.054390 0.179606 0
-0.054722 0.163699 0
-0.053185 0.143879 0
-0.049964 0.121596 0
-0.045195 0.098165 0
-0.038945 0.074711 0
-0.031205 0.052202 0
-0.021932 0.031570 0
-0.011211 0.013936 0
-0.000182 0.001609 0
0.007614 -0.003169 0
0.012227 -0.002339 0
0.014793 0.000618 0
0.015702 0.004122 0
0.015126 0.007137 0
0.013265 0.008974 0
0.010372 0.009237 0
0.006673 0.007664 0
0.002049 0.003596 0
-0.003595 -0.004483 0
-0.009136 -0.017749 0
-0.013671 -0.036231 0
-0.016791 -0.058262 0
-0.018852 -0.081535 0
-0.020141 -0.105066 0
-0.020852 -0.128587 0
-0.021143 -0.151964 0
-0.021149 -0.175163 0
-0.020988 -0.198324 0
-0.020753 -0.221857 0
-0.020357 -0.245792 0
-0.018661 -0.263264 0
-0.012201 -0.231671 0
-0.000044 0.000008 0
0.000000 0.097313 0
0.000000 -0.000003 0
-0.004414 0.137788 0
-0.013084 0.172186 0
-0.021210 0.188756 0
-0.027944 0.197752 0
-0.033065 0.199132 0
-0.036491 0.193165 0
-0.038246 0.180718 0
-0.038423 0.163061 0
-0.037144 0.141639 0
-0.034520 0.117872 0
-0.030608 0.093012 0
-0.025389 0.068101 0
-0.018753 0.044039 0
-0.010552 0.021829 0
-0.000998 0.003584 0
0.006154 -0.006087 0
0.009999 -0.007419 0
0.012498 -0.004995 0
0.014084 -0.000765 0
0.014749 0.004008 0
0.014364 0.008253 0
0.012950 0.011172 0
0.010643 0.012302 0
0.007642 0.011420 0
0.004132 0.008067 0
0.000210 0.000449 0
-0.003711 -0.013327 0
-0.006356 -0.033047 0
-0.007987 -0.056162 0
-0.009123 -0.080140 0
-0.009926 -0.104174 0
-0.010490 -0.128054 0
-0.010915 -0.151667 0
-0.011295 -0.174989 0
-0.011718 -0.198173 0
-0.012273 -0.221690 0
-0.012970 -0.246079 0
-0.013059 -0.266130 0
-0.009385 -0.239525 0
-0.000040 0.000007 0
0.000000 0.102673 0
0.000000 -0.000003 0
-0.000570 0.142469 0
-0.005718 0.179034 0
-0.011094 0.194924 0
-0.015644 0.202701 0
-0.019148 0.202717 0
-0.021535 0.195348 0
-0.022807 0.181538 0
-0.023013 0.162597 0
-0.022220 0.139976 0
-0.020482 0.115060 0
-0.017806 0.089035 0
-0.014124 0.062857 0
-0.009277 0.037365 0
-0.003140 0.013815 0
0.002799 -0.002770 0
0.005437 -0.009388 0
0.006967 -0.009512 0
0.008008 -0.006424 0
0.008775 -0.001633 0
0.009219 0.003842 0
0.009108 0.008935 0
0.008325 0.012695 0
0.006882 0.014545 0
0.004912 0.014176 0
0.002688 0.011029 0
0.000657 0.003359 0
-0.000808 -0.011183 0
-0.000852 -0.031954 0
-0.000691 -0.055495 0
-0.000698 -0.079596 0
-0.000851 -0.103699 0
-0.001147 -0.127597 0
-0.001620 -0.151160 0
-0.002322 -0.174359 0
-0.003309 -0.197345 0
-0.004643 -0.220605 0
-0.006365 -0.245006 0
-0.008035 -0.266850 0
-0.006849 -0.244730 0
-0.000036 0.000007 0
0.000000 0.106697 0
0.000000 -0.000003 0
0.002963 0.143506 0
0.001395 0.182710 0
-0.001292 0.198682 0
-0.003735 0.205805 0
-0.005695 0.205023 0
-0.007115 0.196824 0
-0.007984 0.182196 0
-0.008321 0.162474 0
-0.008151 0.139108 0
-0.007493 0.113457 0
-0.006336 0.086654 0
-0.004616 0.059572 0
-0.002228 0.033056 0
0.000556 0.009753 0
0.001757 -0.004993 0
0.001855 -0.010255 0
0.001659 -0.009991 0
0.001502 -0.006804 0
0.001525 -0.001976 0
0.001705 0.003675 0
0.001868 0.009146 0
0.001800 0.013398 0
0.001396 0.015716 0
0.000727 0.015615 0
0.000094 0.012321 0
0.000052 0.003945 0
0.001685 -0.011818 0
0.004068 -0.033165 0
0.005835 -0.056315 0
0.006919 -0.079980 0
0.007437 -0.103725 0
0.007444 -0.127285 0
0.006951 -0.150492 0
0.005943 -0.173300 0
0.004398 -0.195853 0
0.002290 -0.218633 0
-0.000408 -0.242687 0
-0.003504 -0.265647 0
-0.004560 -0.247559 0
-0.000032 0.000007 0
0.000000 0.109521 0
0.000000 -0.000003 0
0.006270 0.141074 0
0.008161 0.183288 0
0.008119 0.200054 0
0.007734 0.207105 0
0.007289 0.206097 0
0.006832 0.197637 0
0.006370 0.182744 0
0.005902 0.162764 0
0.005428 0.139148 0
0.004947 0.113244 0
0.004461 0.086157 0
0.003969 0.058748 0
0.003385 0.032193 0
0.002053 0.009830 0
-0.000457 -0.004070 0
-0.002401 -0.009291 0
-0.003979 -0.009160 0
-0.005096 -0.006290 0
-0.005686 -0.001835 0
-0.005726 0.003500 0
-0.005292 0.008840 0
-0.004627 0.013167 0
-0.003908 0.015618 0
-0.003105 0.015478 0
-0.001894 0.011703 0
0.000545 0.001768 0
0.005193 -0.015198 0
0.009292 -0.036105 0
0.012281 -0.058346 0
0.014263 -0.081198 0
0.015348 -0.104224 0
0.015600 -0.127111 0
0.015050 -0.149659 0
0.013708 -0.171806 0
0.011579 -0.193692 0
0.008668 -0.215800 0
0.004978 -0.239211 0
0.000630 -0.262698 0
-0.002467 -0.248235 0
-0.000030 0.000007 0
0.000000 0.111257 0
0.000000 -0.000002 0
0.009333 0.135345 0
0.014567 0.180861 0
0.017115 0.199109 0
0.018727 0.206635 0
0.019791 0.205925 0
0.020338 0.197743 0
0.020360 0.183126 0
0.019857 0.163416 0
0.018840 0.140064 0
0.017320 0.114424 0
0.015281 0.087631 0
0.012642 0.060648 0
0.009151 0.034972 0
0.004289 0.013595 0
-0.001318 -0.000539 0
-0.005431 -0.006734 0
-0.008231 -0.007296 0
-0.010112 -0.005096 0
-0.011153 -0.001346 0
-0.011314 0.003280 0
-0.010632 0.008047 0
-0.009301 0.012015 0
-0.007487 0.014194 0
-0.005159 0.013601 0
-0.001865 0.008672 0
0.003876 -0.003142 0
0.010237 -0.020565 0
0.015370 -0.040254 0
0.019198 -0.061287 0
0.021806 -0.083046 0
0.023266 -0.105062 0
0.023629 -0.126987 0
0.022924 -0.148600 0
0.021177 -0.169829 0
0.018408 -0.190813 0
0.014646 -0.212033 0
0.009924 -0.234649 0
0.004394 -0.258202 0
-0.000515 -0.246929 0
-0.000029 0.000006 0
0.000000 0.111988 0
0.000000 -0.000002 0
0.012088 0.126507 0
0.020542 0.175507 0
0.025649 0.195894 0
0.029220 0.204428 0
0.031789 0.204486 0
0.033400 0.197068 0
0.034024 0.183226 0
0.033651 0.164284 0
0.032298 0.141685 0
0.029986 0.116803 0
0.026702 0.090835 0
0.022343 0.064879 0
0.016671 0.040546 0
0.009549 0.020299 0
0.001788 0.005650 0
-0.005038 -0.002378 0
-0.009366 -0.004479 0
-0.011958 -0.003368 0
-0.013334 -0.000632 0
-0.013544 0.002979 0
-0.012654 0.006827 0
-0.010756 0.010023 0
-0.007905 0.011476 0
-0.003935 0.009856 0
0.002197 0.002668 0
0.010117 -0.010334 0
0.017042 -0.026692 0
0.022670 -0.045066 0
0.026948 -0.064782 0
0.029879 -0.085266 0
0.031478 -0.106047 0
0.031768 -0.126769 0
0.030769 -0.147207 0
0.028509 -0.167290 0
0.025023 -0.187162 0
0.020359 -0.207315 0
0.014580 -0.228959 0
0.007836 -0.252259 0
0.001346 -0.243841 0
-0.000028 0.000006 0
0.000000 0.111771 0
0.000000 -0.000001 0
0.014437 0.114803 0
0.025948 0.167301 0
0.033599 0.190432 0
0.039119 0.200495 0
0.043210 0.201744 0
0.045966 0.195508 0
0.047344 0.182875 0
0.047323 0.165142 0
0.045920 0.143728 0
0.043174 0.120020 0
0.039101 0.095274 0
0.033651 0.070679 0
0.026725 0.047766 0
0.018510 0.028479 0
0.009862 0.014048 0
0.001497 0.004420 0
-0.004811 -0.000376 0
-0.008737 -0.001128 0
-0.010630 0.000240 0
-0.010963 0.002600 0
-0.009938 0.005259 0
-0.007552 0.007266 0
-0.003570 0.007372 0
0.002543 0.003498 0
0.010685 -0.005380 0
0.018695 -0.017987 0
0.025663 -0.033118 0
0.031392 -0.050160 0
0.035763 -0.068495 0
0.038705 -0.087576 0
0.040184 -0.106951 0
0.040190 -0.126278 0
0.038728 -0.145341 0
0.035825 -0.164083 0
0.031522 -0.182662 0
0.025888 -0.201590 0
0.019011 -0.222127 0
0.011060 -0.244968 0
0.003124 -0.239093 0
-0.000027 0.000006 0
0.000000 0.110641 0
0.000000 -0.000001 0
0.016242 0.100559 0
0.030574 0.156345 0
0.040752 0.182723 0
0.048253 0.194817 0
0.053914 0.197640 0
0.057916 0.192934 0
0.060224 0.181869 0
0.060808 0.165709 0
0.059686 0.145834 0
0.056919 0.123622 0
0.052573 0.100357 0
0.046690 0.077255 0
0.039329 0.055688 0
0.030851 0.037161 0
0.022070 0.022663 0
0.013771 0.012295 0
0.006507 0.005755 0
0.001315 0.002451 0
-0.001552 0.001593 0
-0.002370 0.002286 0
-0.001316 0.003416 0