# vtk DataFile Version 2.0
generated by CFD-lab course output (written by Tobias Neckel) 
ASCII

DATASET STRUCTURED_GRID
DIMENSIONS  42 42 1 
POINTS 1764 float

0.150000 0.150000 0
0.167857 0.150000 0
0.185714 0.150000 0
0.203571 0.150000 0
0.221429 0.150000 0
0.239286 0.150000 0
0.257143 0.150000 0
0.275000 0.150000 0
0.292857 0.150000 0
0.310714 0.150000 0
0.328571 0.150000 0
0.346429 0.150000 0
0.364286 0.150000 0
0.382143 0.150000 0
0.400000 0.150000 0
0.417857 0.150000 0
0.435714 0.150000 0
0.453571 0.150000 0
0.471429 0.150000 0
0.489286 0.150000 0
0.507143 0.150000 0
0.525000 0.150000 0
0.542857 0.150000 0
0.560714 0.150000 0
0.578571 0.150000 0
0.596429 0.150000 0
0.614286 0.150000 0
0.632143 0.150000 0
0.650000 0.150000 0
0.667857 0.150000 0
0.685714 0.150000 0
0.703571 0.150000 0
0.721429 0.150000 0
0.739286 0.150000 0
0.757143 0.150000 0
0.775000 0.150000 0
0.792857 0.150000 0
0.810714 0.150000 0
0.828571 0.150000 0
0.846429 0.150000 0
0.864286 0.150000 0
0.882143 0.150000 0
0.150000 0.167857 0
0.167857 0.167857 0
0.185714 0.167857 0
0.203571 0.167857 0
0.221429 0.167857 0
0.239286 0.167857 0
0.257143 0.167857 0
0.275000 0.167857 0
0.292857 0.167857 0
0.310714 0.167857 0
0.328571 0.167857 0
0.346429 0.167857 0
0.364286 0.167857 0
0.382143 0.167857 0
0.400000 0.167857 0
0.417857 0.167857 0
0.435714 0.167857 0
0.453571 0.167857 0
0.471429 0.167857 0
0.489286 0.167857 0
0.507143 0.167857 0
0.525000 0.167857 0
0.542857 0.167857 0
0.560714 0.167857 0
0.578571 0.167857 0
0.596429 0.167857 0
0.614286 0.167857 0
0.632143 0.167857 0
0.650000 0.167857 0
0.667857 0.167857 0
0.685714 0.167857 0
0.703571 0.167857 0
0.721429 0.167857 0
0.739286 0.167857 0
0.757143 0.167857 0
0.775000 0.167857 0
0.792857 0.167857 0
0.810714 0.167857 0
0.828571 0.167857 0
0.846429 0.167857 0
0.864286 0.167857 0
0.882143 0.167857 0
0.150000 0.185714 0
0.167857 0.185714 0
0.185714 0.185714 0
0.203571 0.185714 0
0.221429 0.185714 0
0.239286 0.185714 0
0.257143 0.185714 0
0.275000 0.185714 0
0.292857 0.185714 0
0.310714 0.185714 0
0.328571 0.185714 0
0.346429 0.185714 0
0.364286 0.185714 0
0.382143 0.185714 0
0.400000 0.185714 0
0.417857 0.185714 0
0.435714 0.185714 0
0.453571 0.185714 0
0.471429 0.185714 0
0.489286 0.185714 0
0.507143 0.185714 0
0.525000 0.185714 0
0.542857 0.185714 0
0.560714 0.185714 0
0.578571 0.185714 0
0.596429 0.185714 0
0.614286 0.185714 0
0.632143 0.185714 0
0.650000 0.185714 0
0.667857 0.185714 0
0.685714 0.185714 0
0.703571 0.185714 0
0.721429 0.185714 0
0.739286 0.185714 0
0.757143 0.185714 0
0.775000 0.185714 0
0.792857 0.185714 0
0.810714 0.185714 0
0.828571 0.185714 0
0.846429 0.185714 0
0.864286 0.185714 0
0.882143 0.185714 0
0.150000 0.203571 0
0.167857 0.203571 0
0.185714 0.203571 0
0.203571 0.203571 0
0.221429 0.203571 0
0.239286 0.203571 0
0.257143 0.203571 0
0.275000 0.203571 0
0.292857 0.203571 0
0.310714 0.203571 0
0.328571 0.203571 0
0.346429 0.203571 0
0.364286 0.203571 0
0.382143 0.203571 0
0.400000 0.203571 0
0.417857 0.203571 0
0.435714 0.203571 0
0.453571 0.203571 0
0.471429 0.203571 0
0.489286 0.203571 0
0.507143 0.203571 0
0.525000 0.203571 0
0.542857 0.203571 0
0.560714 0.203571 0
0.578571 0.203571 0
0.596429 0.203571 0
0.614286 0.203571 0
0.632143 0.203571 0
0.650000 0.203571 0
0.667857 0.203571 0
0.685714 0.203571 0
0.703571 0.203571 0
0.721429 0.203571 0
0.739286 0.203571 0
0.757143 0.203571 0
0.775000 0.203571 0
0.792857 0.203571 0
0.810714 0.203571 0
0.828571 0.203571 0
0.846429 0.203571 0
0.864286 0.203571 0
0.882143 0.203571 0
0.150000 0.221429 0
0.167857 0.221429 0
0.185714 0.221429 0
0.203571 0.221429 0
0.221429 0.221429 0
0.239286 0.221429 0
0.257143 0.221429 0
0.275000 0.221429 0
0.292857 0.221429 0
0.310714 0.221429 0
0.328571 0.221429 0
0.346429 0.221429 0
0.364286 0.221429 0
0.382143 0.221429 0
0.400000 0.221429 0
0.417857 0.221429 0
0.435714 0.221429 0
0.453571 0.221429 0
0.471429 0.221429 0
0.489286 0.221429 0
0.507143 0.221429 0
0.525000 0.221429 0
0.542857 0.221429 0
0.560714 0.221429 0
0.578571 0.221429 0
0.596429 0.221429 0
0.614286 0.221429 0
0.632143 0.221429 0
0.650000 0.221429 0
0.667857 0.221429 0
0.685714 0.221429 0
0.703571 0.221429 0
0.721429 0.221429 0
0.739286 0.221429 0
0.757143 0.221429 0
0.775000 0.221429 0
0.792857 0.221429 0
0.810714 0.221429 0
0.828571 0.221429 0
0.846429 0.221429 0
0.864286 0.221429 0
0.882143 0.221429 0
0.150000 0.239286 0
0.167857 0.239286 0
0.185714 0.239286 0
0.203571 0.239286 0
0.221429 0.239286 0
0.239286 0.239286 0
0.257143 0.239286 0
0.275000 0.239286 0
0.292857 0.239286 0
0.310714 0.239286 0
0.328571 0.239286 0
0.346429 0.239286 0
0.364286 0.239286 0
0.382143 0.239286 0
0.400000 0.239286 0
0.417857 0.239286 0
0.435714 0.239286 0
0.453571 0.239286 0
0.471429 0.239286 0
0.489286 0.239286 0
0.507143 0.239286 0
0.525000 0.239286 0
0.542857 0.239286 0
0.560714 0.239286 0
0.578571 0.239286 0
0.596429 0.239286 0
0.614286 0.239286 0
0.632143 0.239286 0
0.650000 0.239286 0
0.667857 0.239286 0
0.685714 0.239286 0
0.703571 0.239286 0
0.721429 0.239286 0
0.739286 0.239286 0
0.757143 0.239286 0
0.775000 0.239286 0
0.792857 0.239286 0
0.810714 0.239286 0
0.828571 0.239286 0
0.846429 0.239286 0
0.864286 0.239286 0
0.882143 0.239286 0
0.150000 0.257143 0
0.167857 0.257143 0
0.185714 0.257143 0
0.203571 0.257143 0
0.221429 0.257143 0
0.239286 0.257143 0
0.257143 0.257143 0
0.275000 0.257143 0
0.292857 0.257143 0
0.310714 0.257143 0
0.328571 0.257143 0
0.346429 0.257143 0
0.364286 0.257143 0
0.382143 0.257143 0
0.400000 0.257143 0
0.417857 0.257143 0
0.435714 0.257143 0
0.453571 0.257143 0
0.471429 0.257143 0
0.489286 0.257143 0
0.507143 0.257143 0
0.525000 0.257143 0
0.542857 0.257143 0
0.560714 0.257143 0
0.578571 0.257143 0
0.596429 0.257143 0
0.614286 0.257143 0
0.632143 0.257143 0
0.650000 0.257143 0
0.667857 0.257143 0
0.685714 0.257143 0
0.703571 0.257143 0
0.721429 0.257143 0
0.739286 0.257143 0
0.757143 0.257143 0
0.775000 0.257143 0
0.792857 0.257143 0
0.810714 0.257143 0
0.828571 0.257143 0
0.846429 0.257143 0
0.864286 0.257143 0
0.882143 0.257143 0
0.150000 0.275000 0
0.167857 0.275000 0
0.185714 0.275000 0
0.203571 0.275000 0
0.221429 0.275000 0
0.239286 0.275000 0
0.257143 0.275000 0
0.275000 0.275000 0
0.292857 0.275000 0
0.310714 0.275000 0
0.328571 0.275000 0
0.346429 0.275000 0
0.364286 0.275000 0
0.382143 0.275000 0
0.400000 0.275000 0
0.417857 0.275000 0
0.435714 0.275000 0
0.453571 0.275000 0
0.471429 0.275000 0
0.489286 0.275000 0
0.507143 0.275000 0
0.525000 0.275000 0
0.542857 0.275000 0
0.560714 0.275000 0
0.578571 0.275000 0
0.596429 0.275000 0
0.614286 0.275000 0
0.632143 0.275000 0
0.650000 0.275000 0
0.667857 0.275000 0
0.685714 0.275000 0
0.703571 0.275000 0
0.721429 0.275000 0
0.739286 0.275000 0
0.757143 0.275000 0
0.775000 0.275000 0
0.792857 0.275000 0
0.810714 0.275000 0
0.828571 0.275000 0
0.846429 0.275000 0
0.864286 0.275000 0
0.882143 0.275000 0
0.150000 0.292857 0
0.167857 0.292857 0
0.185714 0.292857 0
0.203571 0.292857 0
0.221429 0.292857 0
0.239286 0.292857 0
0.257143 0.292857 0
0.275000 0.292857 0
0.292857 0.292857 0
0.310714 0.292857 0
0.328571 0.292857 0
0.346429 0.292857 0
0.364286 0.292857 0
0.382143 0.292857 0
0.400000 0.292857 0
0.417857 0.292857 0
0.435714 0.292857 0
0.453571 0.292857 0
0.471429 0.292857 0
0.489286 0.292857 0
0.507143 0.292857 0
0.525000 0.292857 0
0.542857 0.292857 0
0.560714 0.292857 0
0.578571 0.292857 0
0.596429 0.292857 0
0.614286 0.292857 0
0.632143 0.292857 0
0.650000 0.292857 0
0.667857 0.292857 0
0.685714 0.292857 0
0.703571 0.292857 0
0.721429 0.292857 0
0.739286 0.292857 0
0.757143 0.292857 0
0.775000 0.292857 0
0.792857 0.292857 0
0.810714 0.292857 0
0.828571 0.292857 0
0.846429 0.292857 0
0.864286 0.292857 0
0.882143 0.292857 0
0.150000 0.310714 0
0.167857 0.310714 0
0.185714 0.310714 0
0.203571 0.310714 0
0.221429 0.310714 0
0.239286 0.310714 0
0.257143 0.310714 0
0.275000 0.310714 0
0.292857 0.310714 0
0.310714 0.310714 0
0.328571 0.310714 0
0.346429 0.310714 0
0.364286 0.310714 0
0.382143 0.310714 0
0.400000 0.310714 0
0.417857 0.310714 0
0.435714 0.310714 0
0.453571 0.310714 0
0.471429 0.310714 0
0.489286 0.310714 0
0.507143 0.310714 0
0.525000 0.310714 0
0.542857 0.310714 0
0.560714 0.310714 0
0.578571 0.310714 0
0.596429 0.310714 0
0.614286 0.310714 0
0.632143 0.310714 0
0.650000 0.310714 0
0.667857 0.310714 0
0.685714 0.310714 0
0.703571 0.310714 0
0.721429 0.310714 0
0.739286 0.310714 0
0.757143 0.310714 0
0.775000 0.310714 0
0.792857 0.310714 0
0.810714 0.310714 0
0.828571 0.310714 0
0.846429 0.310714 0
0.864286 0.310714 0
0.882143 0.310714 0
0.150000 0.328571 0
0.167857 0.328571 0
0.185714 0.328571 0
0.203571 0.328571 0
0.221429 0.328571 0
0.239286 0.328571 0
0.257143 0.328571 0
0.275000 0.328571 0
0.292857 0.328571 0
0.310714 0.328571 0
0.328571 0.328571 0
0.346429 0.328571 0
0.364286 0.328571 0
0.382143 0.328571 0
0.400000 0.328571 0
0.417857 0.328571 0
0.435714 0.328571 0
0.453571 0.328571 0
0.471429 0.328571 0
0.489286 0.328571 0
0.507143 0.328571 0
0.525000 0.328571 0
0.542857 0.328571 0
0.560714 0.328571 0
0.578571 0.328571 0
0.596429 0.328571 0
0.614286 0.328571 0
0.632143 0.328571 0
0.650000 0.328571 0
0.667857 0.328571 0
0.685714 0.328571 0
0.703571 0.328571 0
0.721429 0.328571 0
0.739286 0.328571 0
0.757143 0.328571 0
0.775000 0.328571 0
0.792857 0.328571 0
0.810714 0.328571 0
0.828571 0.328571 0
0.846429 0.328571 0
0.864286 0.328571 0
0.882143 0.328571 0
0.150000 0.346429 0
0.167857 0.346429 0
0.185714 0.346429 0
0.203571 0.346429 0
0.221429 0.346429 0
0.239286 0.346429 0
0.257143 0.346429 0
0.275000 0.346429 0
0.292857 0.346429 0
0.310714 0.346429 0
0.328571 0.346429 0
0.346429 0.346429 0
0.364286 0.346429 0
0.382143 0.346429 0
0.400000 0.346429 0
0.417857 0.346429 0
0.435714 0.346429 0
0.453571 0.346429 0
0.471429 0.346429 0
0.489286 0.346429 0
0.507143 0.346429 0
0.525000 0.346429 0
0.542857 0.346429 0
0.560714 0.346429 0
0.578571 0.346429 0
0.596429 0.346429 0
0.614286 0.346429 0
0.632143 0.346429 0
0.650000 0.346429 0
[...]
POINT_DATA 1764 

VECTORS velocity float
0.000000 0.000000 0
-0.000002 0.000000 0
-0.000003 0.000000 0
-0.000003 0.000000 0
-0.000003 0.000000 0
-0.000002 0.000000 0
-0.000001 0.000000 0
-0.000002 0.000000 0
-0.000006 0.000000 0
0.000001 0.000000 0
0.000006 0.000000 0
0.000009 0.000000 0
0.000011 0.000000 0
0.000012 0.000000 0
0.000013 0.000000 0
0.000013 0.000000 0
0.000014 0.000000 0
0.000014 0.000000 0
0.000013 0.000000 0
0.000013 0.000000 0
0.000013 0.000000 0
0.000013 0.000000 0
0.000013 0.000000 0
0.000013 0.000000 0
0.000013 0.000000 0
0.000013 0.000000 0
0.000013 0.000000 0
0.000013 0.000000 0
0.000014 0.000000 0
0.000014 0.000000 0
0.000014 0.000000 0
0.000014 0.000000 0
0.000014 0.000000 0
0.000014 0.000000 0
0.000014 0.000000 0
0.000012 0.000000 0
0.000011 0.000000 0
0.000008 0.000000 0
0.000005 0.000000 0
-0.000001 0.000000 0
-0.000000 0.000000 0
0.000000 0.000000 0
0.000000 0.000002 0
0.034694 -0.031713 0
0.062076 -0.019339 0
0.073366 -0.002895 0
0.069630 0.008013 0
0.058733 0.011606 0
0.049993 0.010987 0
0.036572 -0.001283 0
0.013020 -0.009280 0
-0.016140 0.011502 0
-0.053284 0.035578 0
-0.095575 0.043045 0
-0.138030 0.043167 0
-0.178279 0.041167 0
-0.214868 0.037725 0
-0.247121 0.033621 0
-0.274868 0.029352 0
-0.298272 0.025235 0
-0.317678 0.021440 0
-0.333506 0.018031 0
-0.346173 0.015002 0
-0.356044 0.012297 0
-0.363405 0.009836 0
-0.368439 0.007505 0
-0.371211 0.005169 0
-0.371661 0.002690 0
-0.369619 -0.000072 0
-0.364867 -0.003271 0
-0.357046 -0.006989 0
-0.345677 -0.011277 0
-0.330172 -0.016270 0
-0.309822 -0.022094 0
-0.283834 -0.028816 0
-0.251389 -0.036391 0
-0.211796 -0.044504 0
-0.164838 -0.052302 0
-0.111466 -0.057822 0
-0.055234 -0.056846 0
-0.004996 -0.029758 0
0.021212 0.011371 0
0.000027 -0.000001 0
0.000000 -0.014120 0
0.000000 0.000004 0
0.029404 -0.062076 0
0.050226 -0.038672 0
0.058999 -0.007554 0
0.053211 0.014633 0
0.036271 0.019637 0
0.011656 0.022161 0
-0.022317 0.036973 0
-0.076991 0.052712 0
-0.133446 0.066303 0
-0.176762 0.079435 0
-0.214760 0.084747 0
-0.250001 0.082703 0
-0.281304 0.076838 0
-0.308254 0.068842 0
-0.330795 0.060000 0
-0.349152 0.051151 0
-0.363713 0.042810 0
-0.374929 0.035234 0
-0.383249 0.028495 0
-0.389069 0.022538 0
-0.392711 0.017232 0
-0.394408 0.012395 0
-0.394290 0.007806 0
-0.392407 0.003222 0
-0.388706 -0.001592 0
-0.383161 -0.006795 0
-0.375556 -0.012573 0
-0.365649 -0.019189 0
-0.353026 -0.026875 0
-0.337192 -0.035856 0
-0.317589 -0.046338 0
-0.293597 -0.058433 0
-0.264586 -0.072038 0
-0.230010 -0.086551 0
-0.189645 -0.100330 0
-0.144076 -0.109604 0
-0.095574 -0.106470 0
-0.049444 -0.076446 0
-0.004236 -0.004997 0
0.000018 0.000002 0
0.000000 -0.021210 0
0.000000 0.000004 0
0.016381 -0.081939 0
0.022589 -0.048934 0
0.015595 -0.005880 0
-0.001654 0.030741 0
-0.029315 0.053162 0
-0.071605 0.069575 0
-0.119012 0.087364 0
-0.163552 0.101849 0
-0.206027 0.111273 0
-0.241425 0.116891 0
-0.269715 0.116284 0
-0.293062 0.109711 0
-0.311967 0.099420 0
-0.326916 0.087216 0
-0.338402 0.074520 0
-0.346944 0.062270 0
-0.353042 0.051012 0
-0.357146 0.040976 0
-0.359624 0.032171 0
-0.360765 0.024464 0
-0.360770 0.017635 0
-0.359762 0.011415 0
-0.357793 0.005505 0
-0.354862 -0.000414 0
-0.350940 -0.006556 0
-0.345915 -0.013222 0
-0.339524 -0.020783 0
-0.331472 -0.029519 0
-0.321421 -0.039733 0
-0.308983 -0.051707 0
-0.293752 -0.065689 0
-0.275293 -0.081820 0
-0.253157 -0.099979 0
-0.226892 -0.119445 0
-0.196109 -0.138237 0
-0.160615 -0.151893 0
-0.120649 -0.151478 0
-0.077158 -0.121096 0
-0.032689 -0.038073 0
-0.000019 0.000008 0
0.000000 -0.009875 0
0.000000 0.000003 0
-0.003223 -0.084665 0
-0.017598 -0.037885 0
-0.042168 0.016689 0
-0.069067 0.059543 0
-0.100674 0.089588 0
-0.138310 0.111858 0
-0.176674 0.128920 0
-0.211090 0.139727 0
-0.241366 0.144177 0
-0.265459 0.143123 0
-0.283113 0.136383 0
-0.295736 0.124956 0
-0.304374 0.110693 0
-0.309954 0.095277 0
-0.313241 0.080027 0
-0.314861 0.065791 0
-0.315305 0.053012 0
-0.314935 0.041816 0
-0.314007 0.032114 0
-0.312680 0.023684 0
-0.311038 0.016229 0
-0.309104 0.009418 0
-0.306853 0.002907 0
-0.304223 -0.003631 0
-0.301179 -0.010539 0
-0.297433 -0.018210 0
-0.292782 -0.027016 0
-0.286947 -0.037293 0
-0.279641 -0.049364 0
-0.270572 -0.063525 0
-0.259467 -0.080028 0
-0.246073 -0.099028 0
-0.230119 -0.120438 0
-0.211258 -0.143599 0
-0.188972 -0.166607 0
-0.162432 -0.185064 0
-0.130402 -0.189927 0
-0.091427 -0.164406 0
-0.045350 -0.082155 0
-0.000066 0.000011 0
0.000000 0.011488 0
0.000000 0.000000 0
-0.023582 -0.064341 0
-0.055395 -0.009989 0
-0.086246 0.045588 0
-0.115329 0.089247 0
-0.145640 0.122404 0
-0.176555 0.145575 0
-0.205438 0.160144 0
-0.229954 0.166540 0
-0.249539 0.165642 0
-0.263435 0.158638 0
-0.271903 0.146561 0
-0.276100 0.130972 0
-0.277168 0.113638 0
-0.276137 0.096083 0
-0.273822 0.079427 0
-0.270839 0.064334 0
-0.267619 0.051086 0
-0.264446 0.039678 0
-0.261486 0.029915 0
-0.258812 0.021495 0
-0.256429 0.014059 0
-0.254295 0.007230 0
-0.252334 0.000623 0
-0.250449 -0.006088 0
-0.248481 -0.013346 0
-0.246192 -0.021620 0
-0.243347 -0.031268 0
-0.239669 -0.042659 0
-0.234875 -0.056108 0
-0.228708 -0.071881 0
-0.220983 -0.090188 0
-0.211587 -0.111168 0
-0.200420 -0.134793 0
-0.187277 -0.160592 0
-0.171645 -0.187063 0
-0.152379 -0.210463 0
-0.127324 -0.222483 0
-0.093328 -0.206148 0
-0.048122 -0.129500 0
-0.000099 0.000014 0
0.000000 0.035481 0
0.000000 -0.000002 0
-0.036430 -0.029271 0
-0.075830 0.024779 0
-0.108669 0.076623 0
-0.138868 0.118936 0
-0.166564 0.150815 0
-0.191490 0.171656 0
-0.212502 0.182318 0
-0.228619 0.183828 0
-0.239605 0.177658 0
-0.245460 0.165487 0
-0.246838 0.149048 0
-0.244828 0.130221 0
-0.240539 0.110730 0
-0.234951 0.091931 0
-0.228841 0.074729 0
-0.222778 0.059588 0
-0.217153 0.046620 0
-0.212202 0.035683 0
-0.208039 0.026479 0
-0.204687 0.018627 0
-0.202102 0.011712 0
-0.200195 0.005323 0
-0.198852 -0.000939 0
-0.197955 -0.007483 0
-0.197246 -0.014796 0
-0.196544 -0.023345 0
-0.195583 -0.033539 0
-0.194053 -0.045765 0
-0.191617 -0.060325 0
-0.187979 -0.077417 0
-0.182965 -0.097149 0
-0.176553 -0.119591 0
-0.168785 -0.144748 0
-0.159619 -0.172374 0
-0.148699 -0.201506 0
-0.134936 -0.229386 0
-0.115922 -0.248977 0
-0.087687 -0.243608 0
-0.046612 -0.175483 0
-0.000124 0.000016 0
0.000000 0.059614 0
0.000000 -0.000005 0
-0.041883 0.011490 0
-0.081771 0.062250 0
-0.115589 0.108626 0
-0.144953 0.147142 0
-0.169608 0.175027 0
-0.189520 0.191512 0
-0.204358 0.197272 0
-0.213941 0.193643 0
-0.218475 0.182483 0
-0.218439 0.165871 0
-0.214702 0.145929 0
-0.208327 0.124673 0
-0.200347 0.103761 0
-0.191668 0.084385 0
-0.183012 0.067254 0
-0.174916 0.052647 0
-0.167744 0.040510 0
-0.161710 0.030564 0
-0.156895 0.022401 0
-0.153285 0.015557 0
-0.150799 0.009567 0
-0.149319 0.003980 0
-0.148703 -0.001616 0
-0.148790 -0.007694 0
-0.149371 -0.014757 0
-0.150273 -0.023283 0
-0.151225 -0.033760 0
-0.151861 -0.046625 0
-0.151738 -0.062182 0
-0.150440 -0.080533 0
-0.147728 -0.101614 0
-0.143619 -0.125348 0
-0.138259 -0.151727 0
-0.131749 -0.180678 0
-0.123958 -0.211745 0
-0.114101 -0.243240 0
-0.100037 -0.269732 0
-0.077650 -0.275457 0
-0.042345 -0.217187 0
-0.000137 0.000017 0
0.000000 0.082096 0
0.000000 -0.000006 0
-0.041088 0.052500 0
-0.079083 0.098485 0
-0.111908 0.139806 0
-0.139152 0.172956 0
-0.160603 0.195382 0
-0.176341 0.206405 0
-0.186461 0.206739 0
-0.191242 0.197946 0
-0.191212 0.182155 0
-0.187123 0.161714 0
-0.179937 0.138936 0
-0.170677 0.115865 0
-0.160304 0.094071 0
-0.149658 0.074596 0
-0.139422 0.057976 0
-0.130117 0.044320 0
-0.122099 0.033414 0
-0.115565 0.024834 0
-0.110559 0.018054 0
-0.107015 0.012531 0
-0.104799 0.007747 0
-0.103757 0.003227 0
-0.103737 -0.001469 0
-0.104576 -0.006816 0
-0.106187 -0.013312 0
-0.108436 -0.021491 0
-0.111092 -0.031951 0
-0.113753 -0.045251 0
-0.115835 -0.061746 0
-0.116725 -0.081427 0
-0.116048 -0.103970 0
-0.113834 -0.129060 0
-0.110304 -0.156617 0
-0.105661 -0.186675 0
-0.099967 -0.219154 0
-0.092820 -0.253307 0
-0.082638 -0.285429 0
-0.065667 -0.301299 0
-0.036719 -0.253132 0
-0.000138 0.000017 0
0.000000 0.101960 0
0.000000 -0.000007 0
-0.036084 0.090573 0
-0.071535 0.133069 0
-0.101689 0.168695 0
-0.125992 0.195837 0
-0.144214 0.212216 0
-0.156473 0.217371 0
-0.163060 0.212173 0
-0.164480 0.198395 0
-0.161434 0.178365 0
-0.154785 0.154596 0
-0.145499 0.129483 0
-0.134537 0.105040 0
-0.122785 0.082742 0
-0.111026 0.063504 0
-0.099917 0.047714 0
-0.089987 0.035324 0
-0.081625 0.025958 0
-0.075060 0.019024 0
-0.070313 0.013850 0
-0.067252 0.009797 0
-0.065642 0.006308 0
-0.065224 0.002918 0
-0.065771 -0.000797 0
-0.067107 -0.005244 0
-0.069303 -0.010897 0
-0.072355 -0.018377 0
-0.076172 -0.028442 0
-0.080394 -0.041882 0
-0.084315 -0.059211 0
-0.087069 -0.080320 0
-0.088101 -0.104505 0
-0.087446 -0.131092 0
-0.085385 -0.159899 0
-0.082185 -0.191014 0
-0.078031 -0.224587 0
-0.072841 -0.260570 0
-0.065655 -0.296886 0
-0.053400 -0.321375 0
-0.030695 -0.282854 0
-0.000131 0.000017 0
0.000000 0.118816 0
0.000000 -0.000007 0
-0.030344 0.124035 0
-0.061493 0.164089 0
-0.087896 0.194263 0
-0.108787 0.215481 0
-0.123870 0.225862 0
-0.133241 0.225252 0
-0.137247 0.214746 0
-0.136461 0.196320 0
-0.131628 0.172461 0
-0.123604 0.145779 0
-0.113289 0.118688 0
-0.101549 0.093152 0
-0.089178 0.070561 0
-0.076887 0.051727 0
-0.065307 0.036937 0
-0.054997 0.026029 0
-0.046427 0.018487 0
-0.039987 0.013521 0
-0.035696 0.010246 0
-0.033396 0.007860 0
-0.032742 0.005719 0
-0.033342 0.003356 0
-0.034854 0.000414 0
-0.037050 -0.003284 0
-0.039731 -0.008064 0
-0.043175 -0.014622 0
-0.047518 -0.023912 0
-0.052602 -0.037108 0
-0.057703 -0.055070 0
-0.061723 -0.077642 0
-0.063949 -0.103594 0
-0.064449 -0.131775 0
-0.063535 -0.161879 0
-0.061507 -0.194029 0
-0.058612 -0.228498 0
-0.054968 -0.265683 0
-0.050138 -0.304870 0
-0.041847 -0.336260 0
-0.024872 -0.306533 0
-0.000119 0.000017 0
0.000000 0.132654 0
0.000000 -0.000007 0
-0.024210 0.152066 0
-0.050311 0.190621 0
-0.072462 0.215989 0
-0.089777 0.231811 0
-0.101914 0.236669 0
-0.108918 0.230747 0
-0.111113 0.215394 0
-0.109041 0.192776 0
-0.103393 0.165507 0
-0.094937 0.136257 0
-0.084458 0.107428 0
-0.072694 0.080928 0
-0.060329 0.058080 0
-0.047990 0.039633 0
-0.036259 0.025823 0
-0.025738 0.016444 0
-0.016991 0.010948 0
-0.010730 0.008292 0
-0.007006 0.007260 0
-0.005463 0.006844 0
-0.005674 0.006254 0
-0.007217 0.005030 0
-0.009742 0.002911 0
-0.013066 -0.000367 0
-0.016900 -0.004773 0
-0.020880 -0.010590 0
-0.025514 -0.019014 0
-0.030881 -0.031698 0
-0.036386 -0.050091 0
-0.040847 -0.074074 0
-0.043581 -0.101779 0
-0.044738 -0.131506 0
-0.044624 -0.162841 0
-0.043529 -0.195937 0
-0.041718 -0.231126 0
-0.039402 -0.269044 0
-0.036501 -0.310006 0
-0.031492 -0.346642 0
-0.019569 -0.324701 0
-0.000104 0.000016 0
0.000000 0.143686 0
0.000000 -0.000007 0
-0.017945 0.174346 0
-0.038790 0.212341 0
-0.056575 0.233729 0
-0.070370 0.244932 0
-0.079821 0.245003 0
-0.084925 0.234451 0
-0.085938 0.214870 0
-0.083313 0.188600 0
-0.077627 0.158357 0
-0.069514 0.126844 0
-0.059608 0.096445 0
-0.048506 0.069023 0
-0.036775 0.045856 0
-0.024939 0.027657 0
-0.013366 0.014686 0
-0.002907 0.006760 0
0.005102 0.003479 0
0.010479 0.003537 0
0.013437 0.004979 0
0.014395 0.006529 0
0.013710 0.007472 0
0.011721 0.007423 0
0.008729 0.006264 0
0.004954 0.003875 0
0.000464 -0.000250 0
-0.004432 -0.006009 0
-0.009634 -0.013910 0
-0.015052 -0.026235 0
-0.020281 -0.045105 0
-0.024289 -0.070447 0
-0.026802 -0.099703 0
-0.028099 -0.130732 0
-0.028425 -0.163088 0
-0.028028 -0.196934 0
-0.027150 -0.232625 0
-0.026026 -0.270901 0
-0.024772 -0.312779 0
-0.022480 -0.353192 0
-0.014908 -0.338025 0
-0.000089 0.000015 0
0.000000 0.152222 0
0.000000 -0.000007 0
-0.011754 0.190855 0
-0.027389 0.229251 0
-0.040912 0.247569 0
-0.051364 0.255056 0
-0.058418 0.251224 0
-0.062028 0.236865 0
-0.062368 0.213783 0
-0.059775 0.184466 0
-0.054681 0.151708 0
-0.047558 0.118237 0
-0.038879 0.086420 0
-0.029099 0.058096 0
-0.018647 0.034513 0
-0.007685 0.016224 0
0.002906 0.003791 0
0.011479 -0.002024 0
0.017530 -0.002439 0
0.021597 -0.000043 0
0.023932 0.003344 0
0.024675 0.006571 0
0.023987 0.008928 0
0.022065 0.010011 0
0.019151 0.009678 0
0.015516 0.007898 0
0.011302 0.004614 0
0.006265 -0.000492 0
0.000897 -0.008394 0
-0.004390 -0.021051 0
-0.008718 -0.040854 0
-0.011472 -0.067553 0
-0.013172 -0.097969 0
-0.014172 -0.129883 0
-0.014625 -0.162912 0
-0.014709 -0.197212 0
-0.014623 -0.233128 0
-0.014582 -0.271423 0
-0.014780 -0.313552 0
-0.014755 -0.356506 0
-0.010893 -0.347181 0
-0.000076 0.000015 0
0.000000 0.158593 0
0.000000 -0.000006 0
-0.005739 0.201735 0
-0.016357 0.241499 0
-0.025812 0.257705 0
-0.033143 0.262438 0
-0.038068 0.255667 0
-0.040513 0.238402 0
-0.040575 0.212617 0
-0.038464 0.180912 0
-0.034462 0.146139 0
-0.028872 0.111042 0
-0.022013 0.077986 0
-0.014198 0.048791 0
-0.005439 0.024443 0
0.003527 0.006104 0
0.011088 -0.004478 0
0.016500 -0.007864 0
0.020543 -0.006640 0
0.023547 -0.002865 0
0.025528 0.001901 0
0.026364 0.006474 0
0.026043 0.010082 0
0.024616 0.012259 0
0.022207 0.012813 0
0.018993 0.011723 0
0.015140 0.009001 0
0.010806 0.004396 0
0.006187 -0.003256 0
0.001949 -0.016620 0
-0.000532 -0.038023 0
-0.001494 -0.065993 0
-0.002047 -0.097002 0
-0.002475 -0.129279 0
-0.002834 -0.162551 0
-0.003232 -0.196937 0
-0.003818 -0.232752 0
-0.004765 -0.270744 0
-0.006266 -0.312606 0
-0.008158 -0.357080 0
-0.007457 -0.352780 0
-0.000065 0.000014 0
0.000000 0.163113 0
0.000000 -0.000006 0
-0.000149 0.207212 0
-0.005776 0.249325 0
-0.011377 0.264355 0
-0.015808 0.267312 0
-0.018828 0.258595 0
-0.020347 0.239371 0
-0.020400 0.211733 0
-0.019094 0.178353 0
-0.016562 0.142117 0
-0.012918 0.105788 0
-0.008330 0.071745 0
-0.002957 0.041521 0
0.003033 0.016788 0
0.008354 -0.000303 0
0.012160 -0.009181 0
0.015159 -0.011479 0
0.017606 -0.009486 0
0.019579 -0.005027 0
0.021119 0.000527 0
0.022015 0.006056 0
0.022121 0.010676 0
0.021350 0.013846 0
0.019693 0.015300 0
0.017232 0.014965 0
0.014121 0.012801 0
0.010644 0.008461 0
0.007348 0.000462 0
0.005416 -0.014332 0
0.005655 -0.037411 0
0.006618 -0.066038 0
0.007283 -0.096987 0
0.007533 -0.129095 0
0.007378 -0.162155 0
0.006763 -0.196228 0
0.005587 -0.231595 0
0.003727 -0.268975 0
0.001051 -0.310159 0
-0.002487 -0.355314 0
-0.004504 -0.355339 0
-0.000057 0.000014 0
0.000000 0.166050 0
0.000000 -0.000005 0
0.004939 0.207511 0
0.004280 0.252727 0
0.002353 0.267736 0
0.000666 0.269890 0
-0.000566 0.260206 0
-0.001268 0.239974 0
-0.001436 0.211364 0
-0.001091 0.177074 0
-0.000235 0.139962 0
0.001140 0.102809 0
0.003026 0.068025 0
0.005326 0.037429 0
0.007412 0.013132 0
0.008786 -0.003023 0
0.009745 -0.011284 0
0.010747 -0.013310 0
0.011716 -0.011060 0
0.012616 -0.006378 0
0.013499 -0.000535 0
0.014259 0.005472 0
0.014681 0.010748 0
0.014553 0.014687 0
0.013750 0.016931 0
0.012274 0.017295 0
0.010289 0.015589 0
0.008219 0.011170 0
0.006997 0.001973 0
0.008235 -0.014927 0
0.011156 -0.039225 0
0.013795 -0.067622 0
0.015552 -0.097918 0
0.016436 -0.129373 0
0.016485 -0.161780 0
0.015676 -0.195146 0
0.013942 -0.229716 0
0.011202 -0.266208 0
0.007379 -0.306392 0
0.002426 -0.351525 0
-0.001911 -0.355267 0
-0.000051 0.000013 0
0.000000 0.167616 0
0.000000 -0.000004 0
0.009703 0.202933 0
0.013780 0.251911 0
0.015389 0.267969 0
0.016342 0.270231 0
0.016877 0.260528 0
0.017010 0.240242 0
0.016758 0.211557 0
0.016163 0.177152 0
0.015302 0.139885 0
0.014253 0.102527 0
0.013125 0.067560 0
0.011868 0.037135 0
0.010110 0.013329 0
0.008036 -0.002636 0
0.006404 -0.011143 0
0.005426 -0.013450 0
0.004928 -0.011355 0
0.004749 -0.006810 0
0.004905 -0.001116 0
0.005404 0.004874 0
0.006021 0.010383 0
0.006476 0.014777 0
0.006571 0.017579 0
0.006275 0.018426 0
0.005806 0.016857 0
0.005825 0.011753 0
0.007686 0.000446 0
0.012154 -0.018492 0
0.017010 -0.042970 0
0.020855 -0.070434 0
0.023433 -0.099629 0
0.024785 -0.130027 0
0.024945 -0.161395 0
0.023893 -0.193686 0
0.021582 -0.227122 0
0.017959 -0.262411 0
0.012982 -0.301382 0
0.006694 -0.346024 0
0.000414 -0.352913 0
-0.000047 0.000012 0
0.000000 0.167959 0
0.000000 -0.000003 0
0.014154 0.193730 0
0.022779 0.247041 0
0.027811 0.265174 0
0.031306 0.268401 0
0.033595 0.259539 0
0.034651 0.240093 0
0.034469 0.212211 0
0.033109 0.178530 0
0.030691 0.141872 0
0.027380 0.104987 0
0.023373 0.070410 0
0.018793 0.040443 0
0.013718 0.016963 0
0.008645 0.000683 0
0.004282 -0.008674 0
0.001155 -0.011834 0
-0.000821 -0.010383 0
-0.001966 -0.006355 0
-0.002433 -0.001190 0
-0.002228 0.004356 0
-0.001529 0.009676 0
-0.000584 0.014138 0
0.000422 0.017132 0
0.001484 0.018060 0
0.002939 0.016039 0
0.005727 0.009290 0
0.011222 -0.004357 0
0.017876 -0.024251 0
0.023813 -0.047926 0
0.028368 -0.074045 0
0.031435 -0.101848 0
0.033025 -0.130884 0
0.033134 -0.160888 0
0.031729 -0.191783 0
0.028772 -0.223783 0
0.024235 -0.257608 0
0.018117 -0.295127 0
0.010487 -0.338958 0
0.002531 -0.348573 0
-0.000044 0.000012 0
0.000000 0.167200 0
0.000000 -0.000003 0
0.018231 0.180154 0
0.031221 0.238253 0
0.039603 0.259442 0
0.045570 0.264447 0
0.049626 0.257183 0
0.051742 0.239367 0
0.051875 0.213098 0
0.050078 0.180931 0
0.046499 0.145614 0
0.041376 0.109845 0
0.035006 0.076147 0
0.027731 0.046790 0
0.020003 0.023476 0
0.012483 0.006800 0
0.005662 -0.003653 0
0.000194 -0.008347 0
-0.003413 -0.008234 0
-0.005452 -0.005198 0
-0.006410 -0.000854 0
-0.006449 0.003970 0
-0.005713 0.008739 0
-0.004342 0.012826 0
-0.002437 0.015511 0
0.000141 0.015910 0
0.003965 0.012614 0
0.009993 0.003470 0
0.017912 -0.011703 0
0.025482 -0.031083 0
0.031841 -0.053463 0
0.036687 -0.078056 0
0.039921 -0.104286 0
0.041493 -0.131726 0
0.041351 -0.160099 0
0.039443 -0.189324 0
0.035733 -0.219627 0
0.030214 -0.251756 0
0.022923 -0.287634 0
0.013974 -0.330439 0
0.004477 -0.342427 0
-0.000041 0.000011 0
0.000000 0.165427 0
0.000000 -0.000002 0
0.021796 0.162510 0
0.038926 0.225670 0
0.050616 0.250825 0
0.059037 0.258378 0
0.064912 0.253367 0
0.068265 0.237844 0
0.069028 0.213875 0
0.067233 0.183907 0
0.063046 0.150575 0
0.056760 0.116479 0
0.048773 0.084055 0
0.039606 0.055447 0
0.029947 0.032211 0
0.020582 0.015024 0
0.012086 0.003615 0
0.004829 -0.002758 0
-0.000547 -0.004737 0
-0.003839 -0.003359 0
-0.005395 -0.000193 0
-0.005652 0.003659 0
-0.004825 0.007569 0
-0.002989 0.010862 0
-0.000082 0.012649 0
0.004170 0.011658 0
0.010439 0.006187 0
0.018789 -0.004658 0
0.027279 -0.019845 0
0.034913 -0.038180 0
0.041245 -0.059131 0
0.046036 -0.082125 0
0.049133 -0.106654 0
0.050423 -0.132314 0
0.049808 -0.158837 0
0.047219 -0.186164 0
0.042623 -0.214554 0
0.036033 -0.244799 0
0.027522 -0.278887 0
0.017250 -0.320511 0
0.006280 -0.334599 0
-0.000040 0.000011 0
0.000000 0.162722 0
0.000000 -0.000001 0
0.024633 0.141228 0
0.045583 0.209433 0
0.060546 0.239332 0
0.071463 0.250151 0
0.079260 0.247955 0
0.084065 0.235251 0
0.085813 0.214130 0
0.084517 0.186913 0
0.080348 0.156088 0
0.073638 0.124118 0
0.064862 0.093301 0
0.054657 0.065616 0
0.043821 0.042499 0
0.033215 0.024660 0
0.023574 0.012101 0
0.015322 0.004286 0
0.008744 0.000434 0
0.004219 -0.000350 0
0.001788 0.000958 0
0.001136 0.003400 0
0.002053 0.006077 0
0.004424 0.008082 0
0.008331 0.008351 0
0.014188 0.005389 0
0.022073 -0.002005 0
0.030724 -0.013369 0
0.038880 -0.027827 0
0.046130 -0.045050 0
0.052108 -0.064585 0
0.056540 -0.085944 0
0.059211 -0.108673 0
0.059950 -0.132400 0
0.058630 -0.156895 0
0.055168 -0.182139 0
0.049536 -0.208441 0
0.041770 -0.236655 0
0.031976 -0.268851 0
0.020366 -0.309197 0
0.007974 -0.325177 0
-0.000040 0.000010 0
0.000000 0.159146 0
0.000000 0.000000 0
0.026450 0.116927 0
0.050726 0.189757 0
0.068904 0.224945 0
0.082433 0.239663 0
0.092329 0.240764 0
0.098843 0.231291 0
0.101947 0.213424 0
0.101651 0.189372 0
0.098127 0.161454 0
0.091726 0.131965 0
0.082971 0.103036 0
0.072552 0.076488 0
0.061301 0.053654 0
0.050089 0.035271 0
0.039699 0.021507 0
0.030722 0.012071 0
0.023518 0.006366 0
0.018299 0.003598 0
0.015153 0.002891 0
0.014068 0.003393 0
0.014970 0.004281 0
0.017701 0.004583 0
0.022425 0.002884 0
0.029167 -0.002084 0
0.037070 -0.010349 0