# vtk DataFile Version 2.0
generated by CFD-lab course output (written by Tobias Neckel) 
ASCII

DATASET STRUCTURED_GRID
DIMENSIONS  42 42 1 
POINTS 1764 float

0.150000 0.150000 0
0.167857 0.150000 0
0.185714 0.150000 0
0.203571 0.150000 0
0.221429 0.150000 0
0.239286 0.150000 0
0.257143 0.150000 0
0.275000 0.150000 0
0.292857 0.150000 0
0.310714 0.150000 0
0.328571 0.150000 0
0.346429 0.150000 0
0.364286 0.150000 0
0.382143 0.150000 0
0.400000 0.150000 0
0.417857 0.150000 0
0.435714 0.150000 0
0.453571 0.150000 0
0.471429 0.150000 0
0.489286 0.150000 0
0.507143 0.150000 0
0.525000 0.150000 0
0.542857 0.150000 0
0.560714 0.150000 0
0.578571 0.150000 0
0.596429 0.150000 0
0.614286 0.150000 0
0.632143 0.150000 0
0.650000 0.150000 0
0.667857 0.150000 0
0.685714 0.150000 0
0.703571 0.150000 0
0.721429 0.150000 0
0.739286 0.150000 0
0.757143 0.150000 0
0.775000 0.150000 0
0.792857 0.150000 0
0.810714 0.150000 0
0.828571 0.150000 0
0.846429 0.150000 0
0.864286 0.150000 0
0.882143 0.150000 0
0.150000 0.167857 0
0.167857 0.167857 0
0.185714 0.167857 0
0.203571 0.167857 0
0.221429 0.167857 0
0.239286 0.167857 0
0.257143 0.167857 0
0.275000 0.167857 0
0.292857 0.167857 0
0.310714 0.167857 0
0.328571 0.167857 0
0.346429 0.167857 0
0.364286 0.167857 0
0.382143 0.167857 0
0.400000 0.167857 0
0.417857 0.167857 0
0.435714 0.167857 0
0.453571 0.167857 0
0.471429 0.167857 0
0.489286 0.167857 0
0.507143 0.167857 0
0.525000 0.167857 0
0.542857 0.167857 0
0.560714 0.167857 0
0.578571 0.167857 0
0.596429 0.167857 0
0.614286 0.167857 0
0.632143 0.167857 0
0.650000 0.167857 0
0.667857 0.167857 0
0.685714 0.167857 0
0.703571 0.167857 0
0.721429 0.167857 0
0.739286 0.167857 0
0.757143 0.167857 0
0.775000 0.167857 0
0.792857 0.167857 0
0.810714 0.167857 0
0.828571 0.167857 0
0.846429 0.167857 0
0.864286 0.167857 0
0.882143 0.167857 0
0.150000 0.185714 0
0.167857 0.185714 0
0.185714 0.185714 0
0.203571 0.185714 0
0.221429 0.185714 0
0.239286 0.185714 0
0.257143 0.185714 0
0.275000 0.185714 0
0.292857 0.185714 0
0.310714 0.185714 0
0.328571 0.185714 0
0.346429 0.185714 0
0.364286 0.185714 0
0.382143 0.185714 0
0.400000 0.185714 0
0.417857 0.185714 0
0.435714 0.185714 0
0.453571 0.185714 0
0.471429 0.185714 0
0.489286 0.185714 0
0.507143 0.185714 0
0.525000 0.185714 0
0.542857 0.185714 0
0.560714 0.185714 0
0.578571 0.185714 0
0.596429 0.185714 0
0.614286 0.185714 0
0.632143 0.185714 0
0.650000 0.185714 0
0.667857 0.185714 0
0.685714 0.185714 0
0.703571 0.185714 0
0.721429 0.185714 0
0.739286 0.185714 0
0.757143 0.185714 0
0.775000 0.185714 0
0.792857 0.185714 0
0.810714 0.185714 0
0.828571 0.185714 0
0.846429 0.185714 0
0.864286 0.185714 0
0.882143 0.185714 0
0.150000 0.203571 0
0.167857 0.203571 0
0.185714 0.203571 0
0.203571 0.203571 0
0.221429 0.203571 0
0.239286 0.203571 0
0.257143 0.203571 0
0.275000 0.203571 0
0.292857 0.203571 0
0.310714 0.203571 0
0.328571 0.203571 0
0.346429 0.203571 0
0.364286 0.203571 0
0.382143 0.203571 0
0.400000 0.203571 0
0.417857 0.203571 0
0.435714 0.203571 0
0.453571 0.203571 0
0.471429 0.203571 0
0.489286 0.203571 0
0.507143 0.203571 0
0.525000 0.203571 0
0.542857 0.203571 0
0.560714 0.203571 0
0.578571 0.203571 0
0.596429 0.203571 0
0.614286 0.203571 0
0.632143 0.203571 0
0.650000 0.203571 0
0.667857 0.203571 0
0.685714 0.203571 0
0.703571 0.203571 0
0.721429 0.203571 0
0.739286 0.203571 0
0.757143 0.203571 0
0.775000 0.203571 0
0.792857 0.203571 0
0.810714 0.203571 0
0.828571 0.203571 0
0.846429 0.203571 0
0.864286 0.203571 0
0.882143 0.203571 0
0.150000 0.221429 0
0.167857 0.221429 0
0.185714 0.221429 0
0.203571 0.221429 0
0.221429 0.221429 0
0.239286 0.221429 0
0.257143 0.221429 0
0.275000 0.221429 0
0.292857 0.221429 0
0.310714 0.221429 0
0.328571 0.221429 0
0.346429 0.221429 0
0.364286 0.221429 0
0.382143 0.221429 0
0.400000 0.221429 0
0.417857 0.221429 0
0.435714 0.221429 0
0.453571 0.221429 0
0.471429 0.221429 0
0.489286 0.221429 0
0.507143 0.221429 0
0.525000 0.221429 0
0.542857 0.221429 0
0.560714 0.221429 0
0.578571 0.221429 0
0.596429 0.221429 0
0.614286 0.221429 0
0.632143 0.221429 0
0.650000 0.221429 0
0.667857 0.221429 0
0.685714 0.221429 0
0.703571 0.221429 0
0.721429 0.221429 0
0.739286 0.221429 0
0.757143 0.221429 0
0.775000 0.221429 0
0.792857 0.221429 0
0.810714 0.221429 0
0.828571 0.221429 0
0.846429 0.221429 0
0.864286 0.221429 0
0.882143 0.221429 0
0.150000 0.239286 0
0.167857 0.239286 0
0.185714 0.239286 0
0.203571 0.239286 0
0.221429 0.239286 0
0.239286 0.239286 0
0.257143 0.239286 0
0.275000 0.239286 0
0.292857 0.239286 0
0.310714 0.239286 0
0.328571 0.239286 0
0.346429 0.239286 0
0.364286 0.239286 0
0.382143 0.239286 0
0.400000 0.239286 0
0.417857 0.239286 0
0.435714 0.239286 0
0.453571 0.239286 0
0.471429 0.239286 0
0.489286 0.239286 0
0.507143 0.239286 0
0.525000 0.239286 0
0.542857 0.239286 0
0.560714 0.239286 0
0.578571 0.239286 0
0.596429 0.239286 0
0.614286 0.239286 0
0.632143 0.239286 0
0.650000 0.239286 0
0.667857 0.239286 0
0.685714 0.239286 0
0.703571 0.239286 0
0.721429 0.239286 0
0.739286 0.239286 0
0.757143 0.239286 0
0.775000 0.239286 0
0.792857 0.239286 0
0.810714 0.239286 0
0.828571 0.239286 0
0.846429 0.239286 0
0.864286 0.239286 0
0.882143 0.239286 0
0.150000 0.257143 0
0.167857 0.257143 0
0.185714 0.257143 0
0.203571 0.257143 0
0.221429 0.257143 0
0.239286 0.257143 0
0.257143 0.257143 0
0.275000 0.257143 0
0.292857 0.257143 0
0.310714 0.257143 0
0.328571 0.257143 0
0.346429 0.257143 0
0.364286 0.257143 0
0.382143 0.257143 0
0.400000 0.257143 0
0.417857 0.257143 0
0.435714 0.257143 0
0.453571 0.257143 0
0.471429 0.257143 0
0.489286 0.257143 0
0.507143 0.257143 0
0.525000 0.257143 0
0.542857 0.257143 0
0.560714 0.257143 0
0.578571 0.257143 0
0.596429 0.257143 0
0.614286 0.257143 0
0.632143 0.257143 0
0.650000 0.257143 0
0.667857 0.257143 0
0.685714 0.257143 0
0.703571 0.257143 0
0.721429 0.257143 0
0.739286 0.257143 0
0.757143 0.257143 0
0.775000 0.257143 0
0.792857 0.257143 0
0.810714 0.257143 0
0.828571 0.257143 0
0.846429 0.257143 0
0.864286 0.257143 0
0.882143 0.257143 0
0.150000 0.275000 0
0.167857 0.275000 0
0.185714 0.275000 0
0.203571 0.275000 0
0.221429 0.275000 0
0.239286 0.275000 0
0.257143 0.275000 0
0.275000 0.275000 0
0.292857 0.275000 0
0.310714 0.275000 0
0.328571 0.275000 0
0.346429 0.275000 0
0.364286 0.275000 0
0.382143 0.275000 0
0.400000 0.275000 0
0.417857 0.275000 0
0.435714 0.275000 0
0.453571 0.275000 0
0.471429 0.275000 0
0.489286 0.275000 0
0.507143 0.275000 0
0.525000 0.275000 0
0.542857 0.275000 0
0.560714 0.275000 0
0.578571 0.275000 0
0.596429 0.275000 0
0.614286 0.275000 0
0.632143 0.275000 0
0.650000 0.275000 0
0.667857 0.275000 0
0.685714 0.275000 0
0.703571 0.275000 0
0.721429 0.275000 0
0.739286 0.275000 0
0.757143 0.275000 0
0.775000 0.275000 0
0.792857 0.275000 0
0.810714 0.275000 0
0.828571 0.275000 0
0.846429 0.275000 0
0.864286 0.275000 0
0.882143 0.275000 0
0.150000 0.292857 0
0.167857 0.292857 0
0.185714 0.292857 0
0.203571 0.292857 0
0.221429 0.292857 0
0.239286 0.292857 0
0.257143 0.292857 0
0.275000 0.292857 0
0.292857 0.292857 0
0.310714 0.292857 0
0.328571 0.292857 0
0.346429 0.292857 0
0.364286 0.292857 0
0.382143 0.292857 0
0.400000 0.292857 0
0.417857 0.292857 0
0.435714 0.292857 0
0.453571 0.292857 0
0.471429 0.292857 0
0.489286 0.292857 0
0.507143 0.292857 0
0.525000 0.292857 0
0.542857 0.292857 0
0.560714 0.292857 0
0.578571 0.292857 0
0.596429 0.292857 0
0.614286 0.292857 0
0.632143 0.292857 0
0.650000 0.292857 0
0.667857 0.292857 0
0.685714 0.292857 0
0.703571 0.292857 0
0.721429 0.292857 0
0.739286 0.292857 0
0.757143 0.292857 0
0.775000 0.292857 0
0.792857 0.292857 0
0.810714 0.292857 0
0.828571 0.292857 0
0.846429 0.292857 0
0.864286 0.292857 0
0.882143 0.292857 0
0.150000 0.310714 0
0.167857 0.310714 0
0.185714 0.310714 0
0.203571 0.310714 0
0.221429 0.310714 0
0.239286 0.310714 0
0.257143 0.310714 0
0.275000 0.310714 0
0.292857 0.310714 0
0.310714 0.310714 0
0.328571 0.310714 0
0.346429 0.310714 0
0.364286 0.310714 0
0.382143 0.310714 0
0.400000 0.310714 0
0.417857 0.310714 0
0.435714 0.310714 0
0.453571 0.310714 0
0.471429 0.310714 0
0.489286 0.310714 0
0.507143 0.310714 0
0.525000 0.310714 0
0.542857 0.310714 0
0.560714 0.310714 0
0.578571 0.310714 0
0.596429 0.310714 0
0.614286 0.310714 0
0.632143 0.310714 0
0.650000 0.310714 0
0.667857 0.310714 0
0.685714 0.310714 0
0.703571 0.310714 0
0.721429 0.310714 0
0.739286 0.310714 0
0.757143 0.310714 0
0.775000 0.310714 0
0.792857 0.310714 0
0.810714 0.310714 0
0.828571 0.310714 0
0.846429 0.310714 0
0.864286 0.310714 0
0.882143 0.310714 0
0.150000 0.328571 0
0.167857 0.328571 0
0.185714 0.328571 0
0.203571 0.328571 0
0.221429 0.328571 0
0.239286 0.328571 0
0.257143 0.328571 0
0.275000 0.328571 0
0.292857 0.328571 0
0.310714 0.328571 0
0.328571 0.328571 0
0.346429 0.328571 0
0.364286 0.328571 0
0.382143 0.328571 0
0.400000 0.328571 0
0.417857 0.328571 0
0.435714 0.328571 0
0.453571 0.328571 0
0.471429 0.328571 0
0.489286 0.328571 0
0.507143 0.328571 0
0.525000 0.328571 0
0.542857 0.328571 0
0.560714 0.328571 0
0.578571 0.328571 0
0.596429 0.328571 0
0.614286 0.328571 0
0.632143 0.328571 0
0.650000 0.328571 0
0.667857 0.328571 0
0.685714 0.328571 0
0.703571 0.328571 0
0.721429 0.328571 0
0.739286 0.328571 0
0.757143 0.328571 0
0.775000 0.328571 0
0.792857 0.328571 0
0.810714 0.328571 0
0.828571 0.328571 0
0.846429 0.328571 0
0.864286 0.328571 0
0.882143 0.328571 0
0.150000 0.346429 0
0.167857 0.346429 0
0.185714 0.346429 0
0.203571 0.346429 0
0.221429 0.346429 0
0.239286 0.346429 0
0.257143 0.346429 0
0.275000 0.346429 0
0.292857 0.346429 0
0.310714 0.346429 0
0.328571 0.346429 0
0.346429 0.346429 0
0.364286 0.346429 0
0.382143 0.346429 0
0.400000 0.346429 0
0.417857 0.346429 0
0.435714 0.346429 0
0.453571 0.346429 0
0.471429 0.346429 0
0.489286 0.346429 0
0.507143 0.346429 0
0.525000 0.346429 0
0.542857 0.346429 0
0.560714 0.346429 0
0.578571 0.346429 0
0.596429 0.346429 0
0.614286 0.346429 0
0.632143 0.346429 0
0.650000 0.346429 0
[...]
POINT_DATA 1764 

VECTORS velocity float
0.000000 0.000000 0
-0.000002 0.000000 0
-0.000003 0.000000 0
-0.000003 0.000000 0
-0.000002 0.000000 0
-0.000002 0.000000 0
-0.000001 0.000000 0
-0.000000 0.000000 0
-0.000004 0.000000 0
-0.000003 0.000000 0
0.000003 0.000000 0
0.000007 0.000000 0
0.000009 0.000000 0
0.000010 0.000000 0
0.000011 0.000000 0
0.000011 0.000000 0
0.000011 0.000000 0
0.000011 0.000000 0
0.000011 0.000000 0
0.000011 0.000000 0
0.000011 0.000000 0
0.000011 0.000000 0
0.000011 0.000000 0
0.000011 0.000000 0
0.000011 0.000000 0
0.000011 0.000000 0
0.000011 0.000000 0
0.000011 0.000000 0
0.000012 0.000000 0
0.000012 0.000000 0
0.000012 0.000000 0
0.000012 0.000000 0
0.000012 0.000000 0
0.000012 0.000000 0
0.000011 0.000000 0
0.000010 0.000000 0
0.000009 0.000000 0
0.000006 0.000000 0
0.000002 0.000000 0
-0.000001 0.000000 0
-0.000000 0.000000 0
0.000000 0.000000 0
0.000000 0.000002 0
0.030163 -0.027679 0
0.055516 -0.018022 0
0.066473 -0.003509 0
0.064458 0.006654 0
0.054609 0.010017 0
0.046354 0.009187 0
0.038658 0.003062 0
0.021503 -0.009299 0
-0.002570 -0.000992 0
-0.032533 0.023852 0
-0.069143 0.036360 0
-0.107892 0.039253 0
-0.145699 0.038421 0
-0.180906 0.036113 0
-0.212561 0.032820 0
-0.240260 0.029111 0
-0.263960 0.025339 0
-0.283841 0.021722 0
-0.300201 0.018369 0
-0.313370 0.015309 0
-0.323655 0.012517 0
-0.331306 0.009937 0
-0.336490 0.007472 0
-0.339270 0.005002 0
-0.339595 0.002400 0
-0.337312 -0.000470 0
-0.332228 -0.003744 0
-0.324023 -0.007487 0
-0.312265 -0.011737 0
-0.296431 -0.016603 0
-0.275900 -0.022180 0
-0.250003 -0.028485 0
-0.218094 -0.035401 0
-0.179739 -0.042521 0
-0.135074 -0.048890 0
-0.085527 -0.052447 0
-0.035234 -0.048455 0
0.006347 -0.018604 0
0.020973 0.015809 0
0.000009 -0.000001 0
0.000000 -0.012544 0
0.000000 0.000003 0
0.027259 -0.055516 0
0.047510 -0.036310 0
0.055671 -0.008942 0
0.053012 0.011864 0
0.040359 0.018104 0
0.020487 0.015950 0
-0.006880 0.024852 0
-0.048345 0.041229 0
-0.103209 0.054035 0
-0.146753 0.066573 0
-0.183585 0.075360 0
-0.217160 0.076556 0
-0.247801 0.073014 0
-0.274654 0.066863 0
-0.297533 0.059354 0
-0.316498 0.051398 0
-0.331804 0.043581 0
-0.343798 0.036242 0
-0.352852 0.029529 0
-0.359315 0.023453 0
-0.363475 0.017936 0
-0.365550 0.012836 0
-0.365667 0.007965 0
-0.363877 0.003104 0
-0.360139 -0.001959 0
-0.354438 -0.007367 0
-0.346596 -0.013289 0
-0.336396 -0.019963 0
-0.323466 -0.027592 0
-0.307356 -0.036365 0
-0.287570 -0.046428 0
-0.263573 -0.057806 0
-0.234855 -0.070264 0
-0.201052 -0.083020 0
-0.162207 -0.094212 0
-0.119281 -0.099840 0
-0.074960 -0.091874 0
-0.034208 -0.056207 0
0.004649 0.006347 0
0.000013 -0.000002 0
0.000000 -0.020975 0
0.000000 0.000004 0
0.017122 -0.075190 0
0.025446 -0.046434 0
0.022406 -0.009010 0
0.008088 0.021967 0
-0.013789 0.042541 0
-0.048735 0.056426 0
-0.093346 0.071894 0
-0.135879 0.087031 0
-0.176054 0.097416 0
-0.212077 0.104227 0
-0.241042 0.106767 0
-0.264794 0.103469 0
-0.284373 0.095916 0
-0.300165 0.085846 0
-0.312596 0.074664 0
-0.322102 0.063381 0
-0.329120 0.052638 0
-0.334052 0.042771 0
-0.337238 0.033886 0
-0.338949 0.025932 0
-0.339381 0.018753 0
-0.338656 0.012129 0
-0.336830 0.005799 0
-0.333907 -0.000526 0
-0.329865 -0.007039 0
-0.324615 -0.014013 0
-0.317919 -0.021786 0
-0.309514 -0.030618 0
-0.299096 -0.040777 0
-0.286315 -0.052498 0
-0.270799 -0.065963 0
-0.252161 -0.081201 0
-0.230006 -0.097923 0
-0.203978 -0.115168 0
-0.173831 -0.130662 0
-0.139587 -0.139695 0
-0.101706 -0.133528 0
-0.061103 -0.098212 0
-0.019407 -0.018399 0
0.000002 0.000004 0
0.000000 -0.017189 0
0.000000 0.000003 0
0.000844 -0.080962 0
-0.009013 -0.041594 0
-0.027494 0.008416 0
-0.051559 0.048059 0
-0.079959 0.074927 0
-0.114408 0.095507 0
-0.151340 0.111995 0
-0.185434 0.123936 0
-0.215443 0.130233 0
-0.240822 0.131561 0
-0.260083 0.128077 0
-0.274230 0.119887 0
-0.284356 0.108384 0
-0.291341 0.095086 0
-0.295920 0.081291 0
-0.298688 0.067923 0
-0.300113 0.055531 0
-0.300549 0.044360 0
-0.300248 0.034426 0
-0.299373 0.025596 0
-0.298019 0.017643 0
-0.296220 0.010285 0
-0.293959 0.003215 0
-0.291182 -0.003861 0
-0.287872 -0.011251 0
-0.283771 -0.019313 0
-0.278698 -0.028389 0
-0.272413 -0.038786 0
-0.264668 -0.050792 0
-0.255208 -0.064661 0
-0.243786 -0.080582 0
-0.230157 -0.098600 0
-0.214052 -0.118446 0
-0.195138 -0.139195 0
-0.172933 -0.158603 0
-0.146722 -0.171965 0
-0.115517 -0.170358 0
-0.078395 -0.138506 0
-0.036452 -0.054756 0
-0.000034 0.000008 0
0.000000 -0.001558 0
0.000000 0.000001 0
-0.017378 -0.066177 0
-0.043828 -0.018097 0
-0.071753 0.033537 0
-0.097350 0.074432 0
-0.125412 0.105390 0
-0.154853 0.127806 0
-0.183390 0.142919 0
-0.208480 0.151133 0
-0.229109 0.152804 0
-0.244897 0.148868 0
-0.255508 0.140175 0
-0.261802 0.127742 0
-0.264823 0.113027 0
-0.265539 0.097410 0
-0.264739 0.082011 0
-0.263017 0.067575 0
-0.260802 0.054500 0
-0.258378 0.042906 0
-0.255927 0.032710 0
-0.253541 0.023704 0
-0.251253 0.015599 0
-0.249044 0.008068 0
-0.246858 0.000761 0
-0.244615 -0.006612 0
-0.242186 -0.014451 0
-0.239347 -0.023186 0
-0.235895 -0.033144 0
-0.231601 -0.044648 0
-0.226242 -0.057981 0
-0.219618 -0.073380 0
-0.211573 -0.091014 0
-0.201978 -0.110935 0
-0.190695 -0.132941 0
-0.177468 -0.156287 0
-0.161742 -0.179078 0
-0.142396 -0.197112 0
-0.117510 -0.201855 0
-0.084620 -0.177277 0
-0.042695 -0.096794 0
-0.000068 0.000011 0
0.000000 0.019270 0
0.000000 -0.000001 0
-0.030195 -0.037135 0
-0.065423 0.012781 0
-0.095411 0.061938 0
-0.122995 0.101718 0
-0.149188 0.132430 0
-0.173561 0.153485 0
-0.194984 0.165622 0
-0.212315 0.169655 0
-0.225073 0.166650 0
-0.233229 0.157961 0
-0.237073 0.144982 0
-0.237477 0.129201 0
-0.235415 0.112121 0
-0.231790 0.095002 0
-0.227329 0.078770 0
-0.222575 0.063986 0
-0.217913 0.050892 0
-0.213594 0.039485 0
-0.209766 0.029589 0
-0.206490 0.020923 0
-0.203766 0.013145 0
-0.201543 0.005890 0
-0.199742 -0.001213 0
-0.198271 -0.008534 0
-0.196884 -0.016520 0
-0.195404 -0.025604 0
-0.193593 -0.036135 0
-0.191202 -0.048439 0
-0.187985 -0.062775 0
-0.183745 -0.079331 0
-0.178363 -0.098222 0
-0.171790 -0.119477 0
-0.163996 -0.142956 0
-0.154848 -0.168148 0
-0.143885 -0.193676 0
-0.129928 -0.216198 0
-0.110646 -0.228134 0
-0.082566 -0.213321 0
-0.043072 -0.139375 0
-0.000091 0.000012 0
0.000000 0.041141 0
0.000000 -0.000003 0
-0.037263 -0.000753 0
-0.073973 0.047119 0
-0.104797 0.091108 0
-0.132240 0.128209 0
-0.156002 0.155956 0
-0.175968 0.173602 0
-0.191728 0.181673 0
-0.202947 0.181222 0
-0.209639 0.173718 0
-0.212129 0.160868 0
-0.211027 0.144423 0
-0.207207 0.126084 0
-0.201559 0.107339 0
-0.194884 0.089323 0
-0.187836 0.072796 0
-0.180920 0.058159 0
-0.174512 0.045519 0
-0.168869 0.034758 0
-0.164137 0.025606 0
-0.160372 0.017704 0
-0.157550 0.010652 0
-0.155595 0.004044 0
-0.154392 -0.002510 0
-0.153815 -0.009470 0
-0.153620 -0.017318 0
-0.153614 -0.026477 0
-0.153529 -0.037345 0
-0.153061 -0.050256 0
-0.151892 -0.065439 0
-0.149772 -0.083003 0
-0.146575 -0.102969 0
-0.142292 -0.125302 0
-0.136964 -0.149884 0
-0.130581 -0.176398 0
-0.122874 -0.203997 0
-0.112886 -0.230351 0
-0.098374 -0.249217 0
-0.075490 -0.244851 0
-0.040532 -0.179360 0
-0.000106 0.000013 0
0.000000 0.062345 0
0.000000 -0.000005 0
-0.038196 0.036838 0
-0.073220 0.080315 0
-0.103875 0.120205 0
-0.129844 0.152923 0
-0.150927 0.176159 0
-0.167151 0.189212 0
-0.178520 0.192601 0
-0.185167 0.187565 0
-0.187450 0.175832 0
-0.185938 0.159349 0
-0.181374 0.140061 0
-0.174599 0.119734 0
-0.166410 0.099798 0
-0.157525 0.081278 0
-0.148551 0.064805 0
-0.139995 0.050662 0
-0.132262 0.038841 0
-0.125643 0.029110 0
-0.120309 0.021092 0
-0.116309 0.014336 0
-0.113602 0.008368 0
-0.112082 0.002732 0
-0.111598 -0.002993 0
-0.111975 -0.009305 0
-0.113031 -0.016721 0
-0.114555 -0.025695 0
-0.116261 -0.036688 0
-0.117768 -0.050076 0
-0.118639 -0.066064 0
-0.118513 -0.084648 0
-0.117229 -0.105701 0
-0.114804 -0.129088 0
-0.111320 -0.154667 0
-0.106858 -0.182237 0
-0.101342 -0.211371 0
-0.094167 -0.240699 0
-0.083516 -0.265531 0
-0.065674 -0.271162 0
-0.036183 -0.214866 0
-0.000113 0.000014 0
0.000000 0.081675 0
0.000000 -0.000006 0
-0.034060 0.072467 0
-0.067541 0.112797 0
-0.096302 0.147732 0
-0.119923 0.175261 0
-0.138213 0.193264 0
-0.151257 0.201196 0
-0.159267 0.199689 0
-0.162617 0.190152 0
-0.161852 0.174489 0
-0.157653 0.154792 0
-0.150781 0.133083 0
-0.142011 0.111120 0
-0.132060 0.090266 0
-0.121585 0.071464 0
-0.111181 0.055266 0
-0.101389 0.041870 0
-0.092680 0.031167 0
-0.085413 0.022805 0
-0.079778 0.016272 0
-0.075795 0.010997 0
-0.073372 0.006425 0
-0.072356 0.002041 0
-0.072567 -0.002617 0
-0.073787 -0.008038 0
-0.075935 -0.014737 0
-0.078840 -0.023247 0
-0.082229 -0.034133 0
-0.085655 -0.047879 0
-0.088506 -0.064694 0
-0.090247 -0.084412 0
-0.090665 -0.106677 0
-0.089815 -0.131211 0
-0.087821 -0.157830 0
-0.084821 -0.186376 0
-0.080881 -0.216689 0
-0.075732 -0.248177 0
-0.068128 -0.277709 0
-0.054847 -0.292185 0
-0.031031 -0.245034 0
-0.000111 0.000014 0
0.000000 0.098528 0
0.000000 -0.000006 0
-0.029159 0.104379 0
-0.059190 0.142557 0
-0.084882 0.172587 0
-0.105596 0.194834 0
-0.121081 0.207493 0
-0.131417 0.210266 0
-0.136886 0.203961 0
-0.137951 0.190151 0
-0.135214 0.170868 0
-0.129358 0.148278 0
-0.121096 0.124419 0
-0.111113 0.101013 0
-0.100047 0.079372 0
-0.088503 0.060398 0
-0.077075 0.044609 0
-0.066359 0.032162 0
-0.056941 0.022865 0
-0.049319 0.016208 0
-0.043736 0.011475 0
-0.040127 0.007930 0
-0.038294 0.004928 0
-0.037967 0.001926 0
-0.038911 -0.001562 0
-0.040852 -0.005937 0
-0.043728 -0.011668 0
-0.047566 -0.019401 0
-0.052223 -0.029873 0
-0.057261 -0.043799 0
-0.061846 -0.061471 0
-0.065196 -0.082489 0
-0.067033 -0.106134 0
-0.067480 -0.131932 0
-0.066717 -0.159661 0
-0.064924 -0.189177 0
-0.062249 -0.220460 0
-0.058670 -0.253451 0
-0.053480 -0.286416 0
-0.044143 -0.308259 0
-0.025747 -0.269712 0
-0.000104 0.000014 0
0.000000 0.112706 0
0.000000 -0.000007 0
-0.023815 0.131657 0
-0.049494 0.168520 0
-0.071494 0.194137 0
-0.089031 0.211461 0
-0.101802 0.219085 0
-0.109844 0.217001 0
-0.113430 0.206223 0
-0.113012 0.188480 0
-0.109157 0.165896 0
-0.102481 0.140675 0
-0.093601 0.114838 0
-0.083094 0.090070 0
-0.071505 0.067655 0
-0.059378 0.048493 0
-0.047280 0.033122 0
-0.035836 0.021736 0
-0.025852 0.014128 0
-0.018075 0.009600 0
-0.012844 0.007080 0
-0.009953 0.005555 0
-0.008979 0.004265 0
-0.009506 0.002658 0
-0.011224 0.000268 0
-0.014021 -0.003221 0
-0.017640 -0.008023 0
-0.021967 -0.014752 0
-0.027269 -0.024438 0
-0.033338 -0.038256 0
-0.039130 -0.056759 0
-0.043615 -0.079225 0
-0.046450 -0.104393 0
-0.047850 -0.131527 0
-0.048051 -0.160386 0
-0.047267 -0.190844 0
-0.045689 -0.222943 0
-0.043439 -0.256946 0
-0.040218 -0.292237 0
-0.034213 -0.319917 0
-0.020739 -0.289177 0
-0.000093 0.000014 0
0.000000 0.124275 0
0.000000 -0.000007 0
-0.018246 0.153874 0
-0.039242 0.190236 0
-0.057324 0.212124 0
-0.071640 0.225142 0
-0.081866 0.228306 0
-0.087991 0.221894 0
-0.090236 0.207129 0
-0.088983 0.185877 0
-0.084710 0.160337 0
-0.077926 0.132722 0
-0.069124 0.105032 0
-0.058761 0.078918 0
-0.047274 0.055656 0
-0.035106 0.036173 0
-0.022722 0.021067 0
-0.010555 0.010733 0
-0.000632 0.005104 0
0.006418 0.003200 0
0.010769 0.003353 0
0.012829 0.004065 0
0.013059 0.004481 0
0.011856 0.004171 0
0.009565 0.002953 0
0.006326 0.000479 0
0.002276 -0.003722 0
-0.002455 -0.009772 0
-0.008072 -0.018503 0
-0.014548 -0.031938 0
-0.020783 -0.051194 0
-0.025694 -0.075169 0
-0.028966 -0.101898 0
-0.030899 -0.130331 0
-0.031762 -0.160244 0
-0.031786 -0.191539 0
-0.031175 -0.224288 0
-0.030112 -0.258923 0
-0.028562 -0.295642 0
-0.025351 -0.327738 0
-0.016209 -0.303925 0
-0.000082 0.000013 0
0.000000 0.133444 0
0.000000 -0.000007 0
-0.012645 0.170899 0
-0.028904 0.207598 0
-0.043078 0.226535 0
-0.054270 0.236002 0
-0.062165 0.235436 0
-0.066715 0.225371 0
-0.068068 0.207215 0
-0.066513 0.182954 0
-0.062414 0.154840 0
-0.056150 0.125089 0
-0.048085 0.095673 0
-0.038545 0.068220 0
-0.027833 0.043999 0
-0.016202 0.023941 0
-0.003623 0.008571 0
0.007242 -0.000354 0
0.015275 -0.002845 0
0.020802 -0.001801 0
0.024275 0.000668 0
0.025891 0.003266 0
0.025894 0.005238 0
0.024538 0.006151 0
0.022116 0.005798 0
0.018956 0.004068 0
0.015081 0.000758 0
0.010340 -0.004404 0
0.004896 -0.012345 0
-0.001122 -0.025546 0
-0.006930 -0.045613 0
-0.011406 -0.071042 0
-0.014477 -0.099189 0
-0.016495 -0.128730 0
-0.017707 -0.159499 0
-0.018326 -0.191432 0
-0.018549 -0.224616 0
-0.018568 -0.259559 0
-0.018481 -0.296998 0
-0.017617 -0.332270 0
-0.012225 -0.314527 0
-0.000070 0.000013 0
0.000000 0.140483 0
0.000000 -0.000006 0
-0.007127 0.182778 0
-0.018751 0.220669 0
-0.029140 0.237490 0
-0.037370 0.244229 0
-0.043158 0.240751 0
-0.046425 0.227797 0
-0.047251 0.206927 0
-0.045826 0.180223 0
-0.042393 0.149974 0
-0.037204 0.118393 0
-0.030492 0.087426 0
-0.022460 0.058666 0
-0.013234 0.033313 0
-0.002549 0.011962 0
0.007571 -0.002377 0
0.014769 -0.008164 0
0.020193 -0.008456 0
0.024417 -0.005801 0
0.027500 -0.001736 0
0.029249 0.002446 0
0.029621 0.005835 0
0.028730 0.007949 0
0.026758 0.008534 0
0.023929 0.007513 0
0.020421 0.004895 0
0.016246 0.000414 0
0.011524 -0.007041 0
0.006731 -0.020112 0
0.002641 -0.040909 0
-0.000382 -0.067621 0
-0.002685 -0.096810 0
-0.004381 -0.127102 0
-0.005653 -0.158413 0
-0.006669 -0.190697 0
-0.007591 -0.224046 0
-0.008590 -0.258991 0
-0.009814 -0.296593 0
-0.010938 -0.333994 0
-0.008772 -0.321542 0
-0.000061 0.000012 0
0.000000 0.145669 0
0.000000 -0.000006 0
-0.001876 0.189651 0
-0.008884 0.229610 0
-0.015672 0.245154 0
-0.021126 0.250020 0
-0.025000 0.244490 0
-0.027210 0.229464 0
-0.027780 0.206617 0
-0.026810 0.178097 0
-0.024433 0.146218 0
-0.020786 0.113187 0
-0.015989 0.080929 0
-0.010101 0.050962 0
-0.002906 0.024088 0
0.004761 0.003136 0
0.010072 -0.008746 0
0.014092 -0.012976 0
0.017658 -0.012493 0
0.020801 -0.009108 0
0.023464 -0.004163 0
0.025440 0.001145 0
0.026394 0.005757 0
0.026288 0.009014 0
0.025165 0.010598 0
0.023135 0.010405 0
0.020346 0.008441 0
0.017006 0.004494 0
0.013406 -0.002829 0
0.010441 -0.016663 0
0.008925 -0.038500 0
0.007931 -0.065715 0
0.006871 -0.095189 0
0.005814 -0.125762 0
0.004704 -0.157211 0
0.003451 -0.189493 0
0.001946 -0.222696 0
0.000076 -0.257336 0
-0.002348 -0.294650 0
-0.005172 -0.333312 0
-0.005789 -0.325466 0
-0.000053 0.000012 0
0.000000 0.149255 0
0.000000 -0.000005 0
0.002979 0.191662 0
0.000588 0.234465 0
-0.002731 0.249732 0
-0.005554 0.253557 0
-0.007649 0.246834 0
-0.008940 0.230577 0
-0.009415 0.206528 0
-0.009100 0.176876 0
-0.008038 0.143949 0
-0.006271 0.109949 0
-0.003821 0.076741 0
-0.000611 0.045583 0
0.003278 0.018452 0
0.006138 -0.001016 0
0.007859 -0.011708 0
0.009635 -0.015750 0
0.011580 -0.015165 0
0.013602 -0.011606 0
0.015652 -0.006375 0
0.017601 -0.000484 0
0.019040 0.004987 0
0.019743 0.009178 0
0.019611 0.011687 0
0.018647 0.012332 0
0.016961 0.011024 0
0.014849 0.007354 0
0.012978 -0.000476 0
0.012641 -0.015632 0
0.013679 -0.038399 0
0.014598 -0.065567 0
0.014889 -0.094693 0
0.014587 -0.124935 0
0.013746 -0.156050 0
0.012348 -0.187939 0
0.010332 -0.220672 0
0.007631 -0.254697 0
0.004114 -0.291345 0
-0.000136 -0.330553 0
-0.003186 -0.326714 0
-0.000047 0.000012 0
0.000000 0.151456 0
0.000000 -0.000005 0
0.007506 0.189062 0
0.009595 0.235320 0
0.009654 0.251297 0
0.009369 0.254939 0
0.009002 0.247876 0
0.008606 0.231230 0
0.008207 0.206777 0
0.007821 0.176720 0
0.007473 0.143389 0
0.007194 0.108969 0
0.007027 0.075269 0
0.007019 0.043864 0
0.006605 0.017339 0
0.005304 -0.001445 0
0.004316 -0.012243 0
0.004023 -0.016698 0
0.004354 -0.016460 0
0.005191 -0.013180 0
0.006506 -0.008162 0
0.008216 -0.002243 0
0.009995 0.003615 0
0.011425 0.008442 0
0.012287 0.011694 0
0.012503 0.013055 0
0.012203 0.012239 0
0.011824 0.008477 0
0.012356 -0.000622 0
0.015025 -0.017364 0
0.018302 -0.040457 0
0.020774 -0.066925 0
0.022146 -0.095178 0
0.022500 -0.124620 0
0.021908 -0.154972 0
0.020375 -0.186080 0
0.017870 -0.217979 0
0.014351 -0.251117 0
0.009788 -0.286882 0
0.004238 -0.326012 0
-0.000861 -0.325602 0
-0.000043 0.000011 0
0.000000 0.152440 0
0.000000 -0.000004 0
0.011750 0.182067 0
0.018173 0.232317 0
0.021502 0.249958 0
0.023673 0.254209 0
0.025030 0.247597 0
0.025593 0.231372 0
0.025372 0.207313 0
0.024402 0.177609 0
0.022747 0.144576 0
0.020489 0.110395 0
0.017704 0.076916 0
0.014365 0.046005 0
0.010164 0.020167 0
0.005505 0.001274 0
0.001761 -0.010428 0
-0.000680 -0.015789 0
-0.001979 -0.016333 0
-0.002318 -0.013758 0
-0.001804 -0.009400 0
-0.000527 -0.003973 0
0.001365 0.001778 0
0.003385 0.006887 0
0.005188 0.010609 0
0.006639 0.012416 0
0.007978 0.011703 0
0.009808 0.007201 0
0.013461 -0.003677 0
0.018701 -0.021577 0
0.023540 -0.044148 0
0.027084 -0.069411 0
0.029230 -0.096420 0
0.030051 -0.124697 0
0.029596 -0.153924 0
0.027865 -0.183901 0
0.024844 -0.214649 0
0.020521 -0.246615 0
0.014902 -0.281232 0
0.008068 -0.319904 0
0.001255 -0.322475 0
-0.000040 0.000011 0
0.000000 0.152317 0
0.000000 -0.000003 0
0.015670 0.170890 0
0.026278 0.225568 0
0.032814 0.245796 0
0.037380 0.251410 0
0.040469 0.245956 0
0.042096 0.230888 0
0.042242 0.207968 0
0.040939 0.179345 0
0.038277 0.147301 0
0.034380 0.114012 0
0.029372 0.081393 0
0.023286 0.051404 0
0.016216 0.026198 0
0.008886 0.006958 0
0.002242 -0.006058 0
-0.002519 -0.012958 0
-0.005466 -0.014822 0
-0.006956 -0.013355 0
-0.007251 -0.009953 0
-0.006523 -0.005411 0
-0.004829 -0.000297 0
-0.002476 0.004619 0
0.000150 0.008441 0
0.002940 0.010265 0
0.006199 0.009070 0
0.010711 0.002995 0
0.017295 -0.009515 0
0.024111 -0.027443 0
0.029806 -0.048840 0
0.033971 -0.072615 0
0.036570 -0.098145 0
0.037628 -0.124985 0
0.037145 -0.152786 0
0.035101 -0.181328 0
0.031486 -0.210635 0
0.026313 -0.241175 0
0.019628 -0.274429 0
0.011548 -0.312365 0
0.003195 -0.317534 0
-0.000038 0.000010 0
0.000000 0.151184 0
0.000000 -0.000002 0
0.019151 0.155789 0
0.033763 0.215173 0
0.043473 0.238857 0
0.050410 0.246555 0
0.055269 0.242880 0
0.058106 0.229599 0
0.058876 0.208470 0
0.057601 0.181574 0
0.054384 0.151135 0
0.049394 0.119300 0
0.042827 0.088009 0
0.034862 0.059161 0
0.025882 0.034567 0
0.016685 0.015248 0
0.007940 0.000977 0
0.000593 -0.008081 0
-0.004300 -0.011896 0
-0.007088 -0.011973 0
-0.008231 -0.009833 0
-0.008068 -0.006395 0
-0.006731 -0.002269 0
-0.004310 0.001907 0
-0.000993 0.005193 0
0.003199 0.006366 0
0.008599 0.003932 0
0.015854 -0.003894 0
0.023956 -0.017077 0
0.031329 -0.034088 0
0.037321 -0.054008 0
0.041728 -0.076176 0
0.044481 -0.100078 0
0.045529 -0.125271 0
0.044817 -0.151397 0
0.042305 -0.178243 0
0.037984 -0.205861 0
0.031889 -0.234757 0
0.024102 -0.266466 0
0.014780 -0.303471 0
0.004990 -0.310928 0
-0.000036 0.000010 0
0.000000 0.149121 0
0.000000 -0.000001 0
0.022008 0.137127 0
0.040359 0.201246 0
0.053223 0.229149 0
0.062560 0.239614 0
0.069269 0.238260 0
0.073495 0.227281 0
0.075193 0.208473 0
0.074368 0.183837 0
0.071134 0.155508 0
0.065701 0.125570 0
0.058346 0.095926 0
0.049394 0.068349 0
0.039386 0.044376 0
0.029118 0.024901 0
0.019329 0.010033 0
0.010335 -0.000719 0
0.003192 -0.007141 0
-0.001250 -0.009423 0
-0.003493 -0.008972 0
-0.003980 -0.006912 0
-0.002954 -0.004056 0
-0.000482 -0.001120 0
0.003471 0.000932 0
0.009033 0.000673 0
0.016306 -0.003585 0
0.024821 -0.012363 0
0.033063 -0.024990 0
0.040324 -0.040808 0
0.046227 -0.059239 0
0.050565 -0.079776 0
0.053186 -0.101946 0
0.053964 -0.125321 0
0.052798 -0.149562 0
0.049633 -0.174495 0
0.044466 -0.200218 0
0.037352 -0.227293 0
0.028409 -0.257320 0
0.017839 -0.293253 0
0.006666 -0.302754 0
-0.000035 0.000009 0
0.000000 0.146194 0
0.000000 0.000000 0
0.023986 0.115430 0
0.045662 0.183958 0
0.061641 0.216656 0
0.073472 0.230508 0
0.082174 0.231945 0
0.088006 0.223675 0
0.090954 0.207597 0
0.091020 0.185633 0
0.088324 0.159802 0
0.083109 0.132089 0
0.075719 0.104317 0
0.066589 0.078121 0
0.056328 0.054843 0
0.045695 0.035304 0
0.035411 0.019761 0
0.026008 0.008056 0
0.017724 -0.000312 0
0.011508 -0.005287 0
0.007884 -0.007103 0
0.006559 -0.006935 0
0.007228 -0.005766 0
0.009774 -0.004517 0
0.014225 -0.004322 0