# vtk DataFile Version 2.0
generated by CFD-lab course output (written by Tobias Neckel) 
ASCII

DATASET STRUCTURED_GRID
DIMENSIONS  42 42 1 
POINTS 1764 float

0.150000 0.150000 0
0.167857 0.150000 0
0.185714 0.150000 0
0.203571 0.150000 0
0.221429 0.150000 0
0.239286 0.150000 0
0.257143 0.150000 0
0.275000 0.150000 0
0.292857 0.150000 0
0.310714 0.150000 0
0.328571 0.150000 0
0.346429 0.150000 0
0.364286 0.150000 0
0.382143 0.150000 0
0.400000 0.150000 0
0.417857 0.150000 0
0.435714 0.150000 0
0.453571 0.150000 0
0.471429 0.150000 0
0.489286 0.150000 0
0.507143 0.150000 0
0.525000 0.150000 0
0.542857 0.150000 0
0.560714 0.150000 0
0.578571 0.150000 0
0.596429 0.150000 0
0.614286 0.150000 0
0.632143 0.150000 0
0.650000 0.150000 0
0.667857 0.150000 0
0.685714 0.150000 0
0.703571 0.150000 0
0.721429 0.150000 0
0.739286 0.150000 0
0.757143 0.150000 0
0.775000 0.150000 0
0.792857 0.150000 0
0.810714 0.150000 0
0.828571 0.150000 0
0.846429 0.150000 0
0.864286 0.150000 0
0.882143 0.150000 0
0.150000 0.167857 0
0.167857 0.167857 0
0.185714 0.167857 0
0.203571 0.167857 0
0.221429 0.167857 0
0.239286 0.167857 0
0.257143 0.167857 0
0.275000 0.167857 0
0.292857 0.167857 0
0.310714 0.167857 0
0.328571 0.167857 0
0.346429 0.167857 0
0.364286 0.167857 0
0.382143 0.167857 0
0.400000 0.167857 0
0.417857 0.167857 0
0.435714 0.167857 0
0.453571 0.167857 0
0.471429 0.167857 0
0.489286 0.167857 0
0.507143 0.167857 0
0.525000 0.167857 0
0.542857 0.167857 0
0.560714 0.167857 0
0.578571 0.167857 0
0.596429 0.167857 0
0.614286 0.167857 0
0.632143 0.167857 0
0.650000 0.167857 0
0.667857 0.167857 0
0.685714 0.167857 0
0.703571 0.167857 0
0.721429 0.167857 0
0.739286 0.167857 0
0.757143 0.167857 0
0.775000 0.167857 0
0.792857 0.167857 0
0.810714 0.167857 0
0.828571 0.167857 0
0.846429 0.167857 0
0.864286 0.167857 0
0.882143 0.167857 0
0.150000 0.185714 0
0.167857 0.185714 0
0.185714 0.185714 0
0.203571 0.185714 0
0.221429 0.185714 0
0.239286 0.185714 0
0.257143 0.185714 0
0.275000 0.185714 0
0.292857 0.185714 0
0.310714 0.185714 0
0.328571 0.185714 0
0.346429 0.185714 0
0.364286 0.185714 0
0.382143 0.185714 0
0.400000 0.185714 0
0.417857 0.185714 0
0.435714 0.185714 0
0.453571 0.185714 0
0.471429 0.185714 0
0.489286 0.185714 0
0.507143 0.185714 0
0.525000 0.185714 0
0.542857 0.185714 0
0.560714 0.185714 0
0.578571 0.185714 0
0.596429 0.185714 0
0.614286 0.185714 0
0.632143 0.185714 0
0.650000 0.185714 0
0.667857 0.185714 0
0.685714 0.185714 0
0.703571 0.185714 0
0.721429 0.185714 0
0.739286 0.185714 0
0.757143 0.185714 0
0.775000 0.185714 0
0.792857 0.185714 0
0.810714 0.185714 0
0.828571 0.185714 0
0.846429 0.185714 0
0.864286 0.185714 0
0.882143 0.185714 0
0.150000 0.203571 0
0.167857 0.203571 0
0.185714 0.203571 0
0.203571 0.203571 0
0.221429 0.203571 0
0.239286 0.203571 0
0.257143 0.203571 0
0.275000 0.203571 0
0.292857 0.203571 0
0.310714 0.203571 0
0.328571 0.203571 0
0.346429 0.203571 0
0.364286 0.203571 0
0.382143 0.203571 0
0.400000 0.203571 0
0.417857 0.203571 0
0.435714 0.203571 0
0.453571 0.203571 0
0.471429 0.203571 0
0.489286 0.203571 0
0.507143 0.203571 0
0.525000 0.203571 0
0.542857 0.203571 0
0.560714 0.203571 0
0.578571 0.203571 0
0.596429 0.203571 0
0.614286 0.203571 0
0.632143 0.203571 0
0.650000 0.203571 0
0.667857 0.203571 0
0.685714 0.203571 0
0.703571 0.203571 0
0.721429 0.203571 0
0.739286 0.203571 0
0.757143 0.203571 0
0.775000 0.203571 0
0.792857 0.203571 0
0.810714 0.203571 0
0.828571 0.203571 0
0.846429 0.203571 0
0.864286 0.203571 0
0.882143 0.203571 0
0.150000 0.221429 0
0.167857 0.221429 0
0.185714 0.221429 0
0.203571 0.221429 0
0.221429 0.221429 0
0.239286 0.221429 0
0.257143 0.221429 0
0.275000 0.221429 0
0.292857 0.221429 0
0.310714 0.221429 0
0.328571 0.221429 0
0.346429 0.221429 0
0.364286 0.221429 0
0.382143 0.221429 0
0.400000 0.221429 0
0.417857 0.221429 0
0.435714 0.221429 0
0.453571 0.221429 0
0.471429 0.221429 0
0.489286 0.221429 0
0.507143 0.221429 0
0.525000 0.221429 0
0.542857 0.221429 0
0.560714 0.221429 0
0.578571 0.221429 0
0.596429 0.221429 0
0.614286 0.221429 0
0.632143 0.221429 0
0.650000 0.221429 0
0.667857 0.221429 0
0.685714 0.221429 0
0.703571 0.221429 0
0.721429 0.221429 0
0.739286 0.221429 0
0.757143 0.221429 0
0.775000 0.221429 0
0.792857 0.221429 0
0.810714 0.221429 0
0.828571 0.221429 0
0.846429 0.221429 0
0.864286 0.221429 0
0.882143 0.221429 0
0.150000 0.239286 0
0.167857 0.239286 0
0.185714 0.239286 0
0.203571 0.239286 0
0.221429 0.239286 0
0.239286 0.239286 0
0.257143 0.239286 0
0.275000 0.239286 0
0.292857 0.239286 0
0.310714 0.239286 0
0.328571 0.239286 0
0.346429 0.239286 0
0.364286 0.239286 0
0.382143 0.239286 0
0.400000 0.239286 0
0.417857 0.239286 0
0.435714 0.239286 0
0.453571 0.239286 0
0.471429 0.239286 0
0.489286 0.239286 0
0.507143 0.239286 0
0.525000 0.239286 0
0.542857 0.239286 0
0.560714 0.239286 0
0.578571 0.239286 0
0.596429 0.239286 0
0.614286 0.239286 0
0.632143 0.239286 0
0.650000 0.239286 0
0.667857 0.239286 0
0.685714 0.239286 0
0.703571 0.239286 0
0.721429 0.239286 0
0.739286 0.239286 0
0.757143 0.239286 0
0.775000 0.239286 0
0.792857 0.239286 0
0.810714 0.239286 0
0.828571 0.239286 0
0.846429 0.239286 0
0.864286 0.239286 0
0.882143 0.239286 0
0.150000 0.257143 0
0.167857 0.257143 0
0.185714 0.257143 0
0.203571 0.257143 0
0.221429 0.257143 0
0.239286 0.257143 0
0.257143 0.257143 0
0.275000 0.257143 0
0.292857 0.257143 0
0.310714 0.257143 0
0.328571 0.257143 0
0.346429 0.257143 0
0.364286 0.257143 0
0.382143 0.257143 0
0.400000 0.257143 0
0.417857 0.257143 0
0.435714 0.257143 0
0.453571 0.257143 0
0.471429 0.257143 0
0.489286 0.257143 0
0.507143 0.257143 0
0.525000 0.257143 0
0.542857 0.257143 0
0.560714 0.257143 0
0.578571 0.257143 0
0.596429 0.257143 0
0.614286 0.257143 0
0.632143 0.257143 0
0.650000 0.257143 0
0.667857 0.257143 0
0.685714 0.257143 0
0.703571 0.257143 0
0.721429 0.257143 0
0.739286 0.257143 0
0.757143 0.257143 0
0.775000 0.257143 0
0.792857 0.257143 0
0.810714 0.257143 0
0.828571 0.257143 0
0.846429 0.257143 0
0.864286 0.257143 0
0.882143 0.257143 0
0.150000 0.275000 0
0.167857 0.275000 0
0.185714 0.275000 0
0.203571 0.275000 0
0.221429 0.275000 0
0.239286 0.275000 0
0.257143 0.275000 0
0.275000 0.275000 0
0.292857 0.275000 0
0.310714 0.275000 0
0.328571 0.275000 0
0.346429 0.275000 0
0.364286 0.275000 0
0.382143 0.275000 0
0.400000 0.275000 0
0.417857 0.275000 0
0.435714 0.275000 0
0.453571 0.275000 0
0.471429 0.275000 0
0.489286 0.275000 0
0.507143 0.275000 0
0.525000 0.275000 0
0.542857 0.275000 0
0.560714 0.275000 0
0.578571 0.275000 0
0.596429 0.275000 0
0.614286 0.275000 0
0.632143 0.275000 0
0.650000 0.275000 0
0.667857 0.275000 0
0.685714 0.275000 0
0.703571 0.275000 0
0.721429 0.275000 0
0.739286 0.275000 0
0.757143 0.275000 0
0.775000 0.275000 0
0.792857 0.275000 0
0.810714 0.275000 0
0.828571 0.275000 0
0.846429 0.275000 0
0.864286 0.275000 0
0.882143 0.275000 0
0.150000 0.292857 0
0.167857 0.292857 0
0.185714 0.292857 0
0.203571 0.292857 0
0.221429 0.292857 0
0.239286 0.292857 0
0.257143 0.292857 0
0.275000 0.292857 0
0.292857 0.292857 0
0.310714 0.292857 0
0.328571 0.292857 0
0.346429 0.292857 0
0.364286 0.292857 0
0.382143 0.292857 0
0.400000 0.292857 0
0.417857 0.292857 0
0.435714 0.292857 0
0.453571 0.292857 0
0.471429 0.292857 0
0.489286 0.292857 0
0.507143 0.292857 0
0.525000 0.292857 0
0.542857 0.292857 0
0.560714 0.292857 0
0.578571 0.292857 0
0.596429 0.292857 0
0.614286 0.292857 0
0.632143 0.292857 0
0.650000 0.292857 0
0.667857 0.292857 0
0.685714 0.292857 0
0.703571 0.292857 0
0.721429 0.292857 0
0.739286 0.292857 0
0.757143 0.292857 0
0.775000 0.292857 0
0.792857 0.292857 0
0.810714 0.292857 0
0.828571 0.292857 0
0.846429 0.292857 0
0.864286 0.292857 0
0.882143 0.292857 0
0.150000 0.310714 0
0.167857 0.310714 0
0.185714 0.310714 0
0.203571 0.310714 0
0.221429 0.310714 0
0.239286 0.310714 0
0.257143 0.310714 0
0.275000 0.310714 0
0.292857 0.310714 0
0.310714 0.310714 0
0.328571 0.310714 0
0.346429 0.310714 0
0.364286 0.310714 0
0.382143 0.310714 0
0.400000 0.310714 0
0.417857 0.310714 0
0.435714 0.310714 0
0.453571 0.310714 0
0.471429 0.310714 0
0.489286 0.310714 0
0.507143 0.310714 0
0.525000 0.310714 0
0.542857 0.310714 0
0.560714 0.310714 0
0.578571 0.310714 0
0.596429 0.310714 0
0.614286 0.310714 0
0.632143 0.310714 0
0.650000 0.310714 0
0.667857 0.310714 0
0.685714 0.310714 0
0.703571 0.310714 0
0.721429 0.310714 0
0.739286 0.310714 0
0.757143 0.310714 0
0.775000 0.310714 0
0.792857 0.310714 0
0.810714 0.310714 0
0.828571 0.310714 0
0.846429 0.310714 0
0.864286 0.310714 0
0.882143 0.310714 0
0.150000 0.328571 0
0.167857 0.328571 0
0.185714 0.328571 0
0.203571 0.328571 0
0.221429 0.328571 0
0.239286 0.328571 0
0.257143 0.328571 0
0.275000 0.328571 0
0.292857 0.328571 0
0.310714 0.328571 0
0.328571 0.328571 0
0.346429 0.328571 0
0.364286 0.328571 0
0.382143 0.328571 0
0.400000 0.328571 0
0.417857 0.328571 0
0.435714 0.328571 0
0.453571 0.328571 0
0.471429 0.328571 0
0.489286 0.328571 0
0.507143 0.328571 0
0.525000 0.328571 0
0.542857 0.328571 0
0.560714 0.328571 0
0.578571 0.328571 0
0.596429 0.328571 0
0.614286 0.328571 0
0.632143 0.328571 0
0.650000 0.328571 0
0.667857 0.328571 0
0.685714 0.328571 0
0.703571 0.328571 0
0.721429 0.328571 0
0.739286 0.328571 0
0.757143 0.328571 0
0.775000 0.328571 0
0.792857 0.328571 0
0.810714 0.328571 0
0.828571 0.328571 0
0.846429 0.328571 0
0.864286 0.328571 0
0.882143 0.328571 0
0.150000 0.346429 0
0.167857 0.346429 0
0.185714 0.346429 0
0.203571 0.346429 0
0.221429 0.346429 0
0.239286 0.346429 0
0.257143 0.346429 0
0.275000 0.346429 0
0.292857 0.346429 0
0.310714 0.346429 0
0.328571 0.346429 0
0.346429 0.346429 0
0.364286 0.346429 0
0.382143 0.346429 0
0.400000 0.346429 0
0.417857 0.346429 0
0.435714 0.346429 0
0.453571 0.346429 0
0.471429 0.346429 0
0.489286 0.346429 0
0.507143 0.346429 0
0.525000 0.346429 0
0.542857 0.346429 0
0.560714 0.346429 0
0.578571 0.346429 0
0.596429 0.346429 0
0.614286 0.346429 0
0.632143 0.346429 0
0.650000 0.346429 0
[...]
POINT_DATA 1764 

VECTORS velocity float
0.000000 0.000000 0
-0.000002 0.000000 0
-0.000003 0.000000 0
-0.000003 0.000000 0
-0.000003 0.000000 0
-0.000002 0.000000 0
-0.000002 0.000000 0
-0.000001 0.000000 0
-0.000001 0.000000 0
-0.000002 0.000000 0
-0.000001 0.000000 0
0.000001 0.000000 0
0.000003 0.000000 0
0.000004 0.000000 0
0.000005 0.000000 0
0.000006 0.000000 0
0.000007 0.000000 0
0.000007 0.000000 0
0.000008 0.000000 0
0.000008 0.000000 0
0.000008 0.000000 0
0.000008 0.000000 0
0.000008 0.000000 0
0.000008 0.000000 0
0.000008 0.000000 0
0.000008 0.000000 0
0.000008 0.000000 0
0.000009 0.000000 0
0.000009 0.000000 0
0.000009 0.000000 0
0.000009 0.000000 0
0.000009 0.000000 0
0.000008 0.000000 0
0.000008 0.000000 0
0.000007 0.000000 0
0.000006 0.000000 0
0.000005 0.000000 0
0.000003 0.000000 0
-0.000000 0.000000 0
-0.000001 0.000000 0
-0.000000 0.000000 0
0.000000 0.000000 0
0.000000 0.000002 0
0.020712 -0.019441 0
0.041434 -0.014958 0
0.051496 -0.004104 0
0.051504 0.004209 0
0.044890 0.007785 0
0.036562 0.006434 0
0.032896 0.003956 0
0.026775 -0.001465 0
0.011596 -0.008136 0
-0.008550 0.001709 0
-0.033797 0.020191 0
-0.063923 0.029152 0
-0.095600 0.031552 0
-0.126570 0.031227 0
-0.155492 0.029568 0
-0.181565 0.027027 0
-0.204397 0.024049 0
-0.223888 0.020930 0
-0.240115 0.017852 0
-0.253256 0.014913 0
-0.263516 0.012142 0
-0.271086 0.009523 0
-0.276104 0.006994 0
-0.278626 0.004458 0
-0.278613 0.001808 0
-0.275949 -0.001087 0
-0.270474 -0.004333 0
-0.261930 -0.007958 0
-0.249972 -0.011974 0
-0.234197 -0.016442 0
-0.214157 -0.021385 0
-0.189423 -0.026734 0
-0.159688 -0.032254 0
-0.124978 -0.037411 0
-0.086028 -0.041163 0
-0.044980 -0.041400 0
-0.006649 -0.029842 0
0.019395 -0.003241 0
0.014967 0.016735 0
-0.000005 -0.000001 0
0.000000 -0.010276 0
0.000000 0.000003 0
0.021899 -0.041434 0
0.039848 -0.030784 0
0.048022 -0.010069 0
0.047326 0.006606 0
0.040554 0.014942 0
0.028881 0.011994 0
0.010421 0.009787 0
-0.014840 0.021300 0
-0.052302 0.035325 0
-0.096435 0.045393 0
-0.132034 0.055373 0
-0.162865 0.061803 0
-0.191044 0.062647 0
-0.216554 0.059892 0
-0.238839 0.054995 0
-0.257751 0.048905 0
-0.273334 0.042323 0
-0.285765 0.035718 0
-0.295295 0.029368 0
-0.302186 0.023401 0
-0.306681 0.017830 0
-0.308972 0.012587 0
-0.309185 0.007540 0
-0.307380 0.002509 0
-0.303536 -0.002678 0
-0.297656 -0.008139 0
-0.289619 -0.014018 0
-0.279244 -0.020502 0
-0.266225 -0.027733 0
-0.250202 -0.035815 0
-0.230797 -0.044774 0
-0.207650 -0.054469 0
-0.180494 -0.064445 0
-0.149318 -0.073660 0
-0.114653 -0.079998 0
-0.078105 -0.079379 0
-0.042970 -0.064376 0
-0.010587 -0.021617 0
0.008701 0.019395 0
0.000001 -0.000001 0
0.000000 -0.014969 0
0.000000 0.000003 0
0.016877 -0.059289 0
0.026948 -0.041081 0
0.028985 -0.011583 0
0.020082 0.011677 0
0.005559 0.026231 0
-0.016362 0.036568 0
-0.050996 0.047677 0
-0.090033 0.061258 0
-0.125619 0.073459 0
-0.159456 0.081440 0
-0.189326 0.086621 0
-0.213655 0.088162 0
-0.233732 0.085241 0
-0.250239 0.079021 0
-0.263513 0.070765 0
-0.273902 0.061522 0
-0.281759 0.052064 0
-0.287427 0.042891 0
-0.291212 0.034273 0
-0.293370 0.026299 0
-0.294096 0.018929 0
-0.293522 0.012028 0
-0.291718 0.005401 0
-0.288706 -0.001190 0
-0.284492 -0.007916 0
-0.279002 -0.015004 0
-0.272041 -0.022746 0
-0.263380 -0.031352 0
-0.252757 -0.041016 0
-0.239877 -0.051869 0
-0.224438 -0.063937 0
-0.206145 -0.077038 0
-0.184736 -0.090586 0
-0.160051 -0.103252 0
-0.132135 -0.112376 0
-0.101403 -0.113083 0
-0.068718 -0.097360 0
-0.035080 -0.054913 0
0.000904 0.006148 0
0.000011 -0.000002 0
0.000000 -0.018978 0
0.000000 0.000003 0
0.006741 -0.068383 0
0.003789 -0.042891 0
-0.006401 -0.003203 0
-0.023062 0.030032 0
-0.045536 0.051385 0
-0.074018 0.068550 0
-0.106480 0.083458 0
-0.139092 0.095922 0
-0.168202 0.104749 0
-0.193774 0.109100 0
-0.215145 0.109571 0
-0.231527 0.106209 0
-0.243713 0.099231 0
-0.252536 0.089673 0
-0.258693 0.078658 0
-0.262766 0.067152 0
-0.265225 0.055848 0
-0.266438 0.045171 0
-0.266677 0.035311 0
-0.266136 0.026285 0
-0.264937 0.017982 0
-0.263143 0.010210 0
-0.260767 0.002724 0
-0.257773 -0.004717 0
-0.254187 -0.012382 0
-0.249782 -0.020589 0
-0.244399 -0.029640 0
-0.237825 -0.039786 0
-0.229842 -0.051236 0
-0.220225 -0.064134 0
-0.208755 -0.078507 0
-0.195215 -0.094171 0
-0.179365 -0.110538 0
-0.160911 -0.126261 0
-0.139459 -0.138646 0
-0.114475 -0.142796 0
-0.085290 -0.130698 0
-0.051438 -0.091238 0
-0.014911 -0.015685 0
0.000004 0.000002 0
0.000000 -0.015869 0
0.000000 0.000002 0
-0.006974 -0.063078 0
-0.023543 -0.027939 0
-0.045169 0.015268 0
-0.065003 0.050813 0
-0.088459 0.077188 0
-0.114809 0.097512 0
-0.141653 0.112750 0
-0.166833 0.122981 0
-0.188512 0.128141 0
-0.206258 0.128383 0
-0.219807 0.124374 0
-0.229106 0.116731 0
-0.234865 0.106250 0
-0.237907 0.094000 0
-0.238988 0.080995 0
-0.238716 0.068055 0
-0.237553 0.055736 0
-0.235831 0.044343 0
-0.233780 0.033971 0
-0.231546 0.024558 0
-0.229214 0.015936 0
-0.226818 0.007859 0
-0.224350 0.000030 0
-0.221771 -0.007771 0
-0.218967 -0.015906 0
-0.215756 -0.024792 0
-0.211954 -0.034703 0
-0.207359 -0.045910 0
-0.201774 -0.058617 0
-0.195022 -0.072956 0
-0.186957 -0.088947 0
-0.177445 -0.106428 0
-0.166308 -0.124890 0
-0.153226 -0.143158 0
-0.137587 -0.158811 0
-0.118342 -0.167253 0
-0.094021 -0.160398 0
-0.063407 -0.125291 0
-0.028097 -0.045290 0
-0.000018 0.000005 0
0.000000 -0.004060 0
0.000000 0.000001 0
-0.019509 -0.044840 0
-0.045189 -0.004696 0
-0.069790 0.038257 0
-0.092289 0.073322 0
-0.115158 0.101192 0
-0.137928 0.121744 0
-0.159197 0.135481 0
-0.177758 0.142780 0
-0.192692 0.144174 0
-0.203742 0.140395 0
-0.210950 0.132419 0
-0.214654 0.121267 0
-0.215559 0.108033 0
-0.214423 0.093797 0
-0.211936 0.079467 0
-0.208651 0.065717 0
-0.204984 0.052963 0
-0.201238 0.041397 0
-0.197621 0.031025 0
-0.194272 0.021719 0
-0.191266 0.013254 0
-0.188629 0.005345 0
-0.186343 -0.002323 0
-0.184378 -0.010100 0
-0.182489 -0.018397 0
-0.180534 -0.027603 0
-0.178293 -0.038037 0
-0.175543 -0.049966 0
-0.172068 -0.063574 0
-0.167702 -0.078951 0
-0.162341 -0.096083 0
-0.155926 -0.114820 0
-0.148371 -0.134757 0
-0.139432 -0.154983 0
-0.128493 -0.173530 0
-0.114310 -0.186362 0
-0.094905 -0.185633 0
-0.068078 -0.157162 0
-0.033575 -0.079092 0
-0.000040 0.000007 0
0.000000 0.012233 0
0.000000 -0.000001 0
-0.027040 -0.017889 0
-0.056954 0.022342 0
-0.082382 0.062368 0
-0.105801 0.096181 0
-0.127270 0.122827 0
-0.146593 0.141551 0
-0.163107 0.152579 0
-0.176258 0.156475 0
-0.185709 0.154125 0
-0.191493 0.146641 0
-0.193903 0.135286 0
-0.193457 0.121339 0
-0.190834 0.106019 0
-0.186710 0.090378 0
-0.181681 0.075223 0
-0.176234 0.061103 0
-0.170754 0.048323 0
-0.165539 0.036980 0
-0.160810 0.027005 0
-0.156719 0.018203 0
-0.153352 0.010293 0
-0.150733 0.002935 0
-0.148820 -0.004221 0
-0.147563 -0.011624 0
-0.146721 -0.019750 0
-0.146102 -0.028988 0
-0.145453 -0.039694 0
-0.144491 -0.052134 0
-0.142941 -0.066457 0
-0.140598 -0.082683 0
-0.137366 -0.100723 0
-0.133238 -0.120398 0
-0.128219 -0.141384 0
-0.122196 -0.163037 0
-0.114696 -0.183934 0
-0.104540 -0.200840 0
-0.089538 -0.206630 0
-0.066704 -0.186622 0
-0.034277 -0.113368 0
-0.000055 0.000009 0
0.000000 0.029518 0
0.000000 -0.000002 0
-0.030013 0.012114 0
-0.059882 0.050646 0
-0.085823 0.087104 0
-0.108709 0.118210 0
-0.128320 0.141984 0
-0.144569 0.157581 0
-0.157228 0.165146 0
-0.166176 0.165382 0
-0.171457 0.159409 0
-0.173347 0.148589 0
-0.172298 0.134382 0
-0.168890 0.118199 0
-0.163747 0.101286 0
-0.157455 0.084643 0
-0.150529 0.068991 0
-0.143415 0.054790 0
-0.136499 0.042268 0
-0.130110 0.031452 0
-0.124516 0.022205 0
-0.119907 0.014261 0
-0.116391 0.007269 0
-0.114000 0.000814 0
-0.112687 -0.005493 0
-0.112284 -0.012199 0
-0.112590 -0.019858 0
-0.113387 -0.028871 0
-0.114384 -0.039648 0
-0.115213 -0.052478 0
-0.115496 -0.067467 0
-0.114949 -0.084526 0
-0.113463 -0.103444 0
-0.111060 -0.123967 0
-0.107815 -0.145799 0
-0.103745 -0.168506 0
-0.098589 -0.191185 0
-0.091422 -0.211519 0
-0.080178 -0.223469 0
-0.061540 -0.212423 0
-0.032718 -0.145796 0
-0.000066 0.000009 0
0.000000 0.046512 0
0.000000 -0.000003 0
-0.029104 0.041992 0
-0.057663 0.078152 0
-0.082782 0.111196 0
-0.104202 0.138678 0
-0.121696 0.158687 0
-0.135237 0.170459 0
-0.144835 0.174187 0
-0.150627 0.170704 0
-0.152888 0.161296 0
-0.152038 0.147482 0
-0.148599 0.130829 0
-0.143135 0.112788 0
-0.136196 0.094584 0
-0.128282 0.077160 0
-0.119851 0.061184 0
-0.111343 0.047073 0
-0.103191 0.035018 0
-0.095814 0.024997 0
-0.089559 0.016801 0
-0.084667 0.010078 0
-0.081246 0.004385 0
-0.079308 -0.000769 0
-0.078792 -0.005936 0
-0.079340 -0.011722 0
-0.080818 -0.018647 0
-0.083028 -0.027195 0
-0.085664 -0.037867 0
-0.088258 -0.051022 0
-0.090284 -0.066721 0
-0.091350 -0.084716 0
-0.091332 -0.104612 0
-0.090285 -0.126045 0
-0.088335 -0.148698 0
-0.085594 -0.172263 0
-0.081997 -0.196257 0
-0.076956 -0.219250 0
-0.068772 -0.236512 0
-0.054179 -0.234083 0
-0.029652 -0.174908 0
-0.000071 0.000010 0
0.000000 0.062237 0
0.000000 -0.000003 0
-0.025760 0.069777 0
-0.052377 0.104324 0
-0.075571 0.133643 0
-0.094910 0.157124 0
-0.110159 0.173018 0
-0.121315 0.180720 0
-0.128504 0.180536 0
-0.131992 0.173435 0
-0.132162 0.160820 0
-0.129489 0.144301 0
-0.124486 0.125480 0
-0.117653 0.105796 0
-0.109449 0.086433 0
-0.100294 0.068298 0
-0.090610 0.052052 0
-0.080860 0.038131 0
-0.071581 0.026739 0
-0.063361 0.017820 0
-0.056694 0.011058 0
-0.051883 0.005948 0
-0.048976 0.001910 0
-0.047867 -0.001641 0
-0.048285 -0.005461 0
-0.049838 -0.010173 0
-0.052398 -0.016170 0
-0.055865 -0.024025 0
-0.059974 -0.034418 0
-0.064168 -0.047858 0
-0.067736 -0.064375 0
-0.070158 -0.083477 0
-0.071318 -0.104509 0
-0.071328 -0.126965 0
-0.070360 -0.150490 0
-0.068586 -0.174843 0
-0.066079 -0.199823 0
-0.062558 -0.224744 0
-0.056802 -0.246246 0
-0.045886 -0.251543 0
-0.025846 -0.199975 0
-0.000072 0.000010 0
0.000000 0.076165 0
0.000000 -0.000004 0
-0.021817 0.094369 0
-0.045394 0.127963 0
-0.065921 0.153728 0
-0.082804 0.173266 0
-0.095780 0.185092 0
-0.104840 0.188804 0
-0.110147 0.184863 0
-0.112005 0.174362 0
-0.110818 0.158794 0
-0.107042 0.139805 0
-0.101125 0.118992 0
-0.093475 0.097751 0
-0.084448 0.077225 0
-0.074381 0.058322 0
-0.063653 0.041750 0
-0.052751 0.028043 0
-0.042347 0.017519 0
-0.033413 0.010110 0
-0.026624 0.005323 0
-0.022409 0.002361 0
-0.020625 0.000370 0
-0.020845 -0.001460 0
-0.022437 -0.003965 0
-0.025058 -0.007608 0
-0.028569 -0.012620 0
-0.033005 -0.019619 0
-0.038211 -0.029565 0
-0.043612 -0.043260 0
-0.048309 -0.060731 0
-0.051665 -0.081133 0
-0.053625 -0.103442 0
-0.054375 -0.127004 0
-0.054132 -0.151440 0
-0.053101 -0.176544 0
-0.051431 -0.202285 0
-0.049063 -0.228527 0
-0.045232 -0.253184 0
-0.037528 -0.265039 0
-0.021825 -0.220794 0
-0.000068 0.000010 0
0.000000 0.088083 0
0.000000 -0.000004 0
-0.017526 0.115171 0
-0.037525 0.148427 0
-0.055001 0.171053 0
-0.069257 0.186983 0
-0.080014 0.195055 0
-0.087243 0.195086 0
-0.091095 0.187701 0
-0.091860 0.174106 0
-0.089900 0.155857 0
-0.085605 0.134607 0
-0.079330 0.111913 0
-0.071371 0.089119 0
-0.061975 0.067339 0
-0.051381 0.047503 0
-0.039890 0.030422 0
-0.027942 0.016825 0
-0.016315 0.007401 0
-0.007277 0.002097 0
-0.001557 0.000054 0
0.001223 -0.000051 0
0.001630 0.000346 0
0.000282 0.000172 0
-0.002332 -0.001248 0
-0.005970 -0.004041 0
-0.010380 -0.008222 0
-0.015519 -0.014383 0
-0.021300 -0.023812 0
-0.027266 -0.037760 0
-0.032402 -0.056321 0
-0.036074 -0.078161 0
-0.038346 -0.101800 0
-0.039475 -0.126458 0
-0.039703 -0.151764 0
-0.039244 -0.177544 0
-0.038273 -0.203861 0
-0.036855 -0.230943 0
-0.034590 -0.257780 0
-0.029632 -0.274950 0
-0.017923 -0.237503 0
-0.000063 0.000010 0
0.000000 0.097990 0
0.000000 -0.000005 0
-0.013062 0.131894 0
-0.029272 0.165438 0
-0.043561 0.185460 0
-0.055166 0.198279 0
-0.063815 0.203078 0
-0.069458 0.199886 0
-0.072212 0.189480 0
-0.072314 0.173167 0
-0.070061 0.152539 0
-0.065750 0.129235 0
-0.059631 0.104758 0
-0.051889 0.080396 0
-0.042655 0.057235 0
-0.032045 0.036236 0
-0.020212 0.018311 0
-0.007333 0.004469 0
0.002843 -0.003145 0
0.009595 -0.004648 0
0.013353 -0.003177 0
0.014875 -0.000826 0
0.014619 0.001310 0
0.012954 0.002502 0
0.010079 0.002287 0
0.006156 0.000440 0
0.001383 -0.003071 0
-0.003987 -0.008700 0
-0.009808 -0.017818 0
-0.015511 -0.032157 0
-0.020158 -0.051923 0
-0.023383 -0.075190 0
-0.025427 -0.100041 0
-0.026560 -0.125646 0
-0.027008 -0.151671 0
-0.026968 -0.177975 0
-0.026602 -0.204674 0
-0.026025 -0.232210 0
-0.025082 -0.260407 0
-0.022454 -0.281705 0
-0.014319 -0.250426 0
-0.000056 0.000010 0
0.000000 0.106006 0
0.000000 -0.000005 0
-0.008559 0.144443 0
-0.020940 0.178926 0
-0.032054 0.196947 0
-0.041078 0.207238 0
-0.047761 0.209346 0
-0.052037 0.203482 0
-0.053984 0.190557 0
-0.053776 0.171956 0
-0.051629 0.149293 0
-0.047747 0.124177 0
-0.042283 0.098052 0
-0.035319 0.072143 0
-0.026870 0.047495 0
-0.016893 0.025060 0
-0.005206 0.005709 0
0.004893 -0.006230 0
0.010914 -0.009526 0
0.014572 -0.008414 0
0.016878 -0.005226 0
0.017966 -0.001317 0
0.017778 0.002267 0
0.016340 0.004712 0
0.013818 0.005550 0
0.010384 0.004655 0
0.006174 0.001921 0
0.001407 -0.003192 0
-0.003619 -0.012288 0
-0.008079 -0.027410 0
-0.011231 -0.048450 0
-0.013287 -0.072892 0
-0.014620 -0.098623 0
-0.015430 -0.124876 0
-0.015882 -0.151356 0
-0.016126 -0.177951 0
-0.016293 -0.204804 0
-0.016493 -0.232463 0
-0.016714 -0.261352 0
-0.016070 -0.285714 0
-0.011083 -0.259957 0
-0.000049 0.000009 0
0.000000 0.112308 0
0.000000 -0.000004 0
-0.004096 0.152834 0
-0.012711 0.188933 0
-0.020737 0.205599 0
-0.027291 0.213986 0
-0.032151 0.214037 0
-0.035246 0.206109 0
-0.036616 0.191220 0
-0.036373 0.170812 0
-0.034658 0.146510 0
-0.031595 0.119889 0
-0.027257 0.092330 0
-0.021643 0.064982 0
-0.014667 0.038809 0
-0.006200 0.014572 0
0.002677 -0.003475 0
0.007375 -0.011651 0
0.010107 -0.012825 0
0.011941 -0.010612 0
0.013224 -0.006571 0
0.013952 -0.001726 0
0.013913 0.002936 0
0.012933 0.006461 0
0.011053 0.008243 0
0.008411 0.008085 0
0.005221 0.005906 0
0.001710 0.001093 0
-0.001616 -0.008332 0
-0.003826 -0.024546 0
-0.004732 -0.046714 0
-0.005178 -0.071801 0
-0.005499 -0.097899 0
-0.005773 -0.124384 0
-0.006081 -0.150974 0
-0.006515 -0.177564 0
-0.007159 -0.204308 0
-0.008094 -0.231789 0
-0.009376 -0.260831 0
-0.010442 -0.287337 0
-0.008217 -0.266495 0
-0.000043 0.000009 0
0.000000 0.117088 0
0.000000 -0.000004 0
0.000089 0.157154 0
-0.004681 0.195567 0
-0.009723 0.211527 0
-0.013936 0.218652 0
-0.017103 0.217301 0
-0.019153 0.207947 0
-0.020104 0.191684 0
-0.020019 0.169998 0
-0.018976 0.144515 0
-0.017043 0.116776 0
-0.014244 0.088100 0
-0.010542 0.059553 0
-0.005755 0.032053 0
-0.000129 0.007716 0
0.003380 -0.007866 0
0.004635 -0.013660 0
0.005215 -0.014092 0
0.005566 -0.011530 0
0.005903 -0.007238 0
0.006212 -0.002006 0
0.006282 0.003286 0
0.005837 0.007572 0
0.004799 0.010072 0
0.003221 0.010487 0
0.001290 0.008623 0
-0.000583 0.003645 0
-0.001651 -0.006752 0
-0.000919 -0.024295 0
0.000550 -0.047098 0
0.001718 -0.072125 0
0.002462 -0.098028 0
0.002793 -0.124295 0
0.002688 -0.150614 0
0.002109 -0.176873 0
0.001018 -0.203224 0
-0.000627 -0.230245 0
-0.002907 -0.259004 0
-0.005470 -0.286873 0
-0.005681 -0.270399 0
-0.000039 0.000008 0
0.000000 0.120524 0
0.000000 -0.000004 0
0.003924 0.157515 0
0.003044 0.198745 0
0.000899 0.214854 0
-0.001066 0.221365 0
-0.002614 0.219254 0
-0.003690 0.209111 0
-0.004296 0.192085 0
-0.004463 0.169684 0
-0.004225 0.143534 0
-0.003613 0.115156 0
-0.002637 0.085829 0
-0.001277 0.056493 0
0.000490 0.028396 0
0.001765 0.005437 0
0.000997 -0.008239 0
-0.000048 -0.013486 0
-0.001160 -0.013756 0
-0.002057 -0.011300 0
-0.002592 -0.007217 0
-0.002746 -0.002105 0
-0.002630 0.003312 0
-0.002503 0.007944 0
-0.002582 0.010859 0
-0.002903 0.011594 0
-0.003265 0.009710 0
-0.003107 0.004034 0
-0.001312 -0.007996 0
0.002280 -0.026746 0
0.005638 -0.049351 0
0.008150 -0.073713 0
0.009831 -0.098974 0
0.010702 -0.124610 0
0.010766 -0.150290 0
0.010020 -0.175895 0
0.008462 -0.201572 0
0.006082 -0.227863 0
0.002857 -0.255988 0
-0.001018 -0.284563 0
-0.003413 -0.271965 0
-0.000035 0.000008 0
0.000000 0.122768 0
0.000000 -0.000004 0
0.007534 0.154110 0
0.010392 0.198591 0
0.011073 0.215637 0
0.011294 0.222165 0
0.011340 0.219925 0
0.011243 0.209630 0
0.010999 0.192457 0
0.010598 0.169927 0
0.010031 0.143665 0
0.009289 0.115187 0
0.008353 0.085765 0
0.007175 0.056427 0
0.005452 0.029011 0
0.002299 0.007209 0
-0.001593 -0.006054 0
-0.004612 -0.011504 0
-0.007102 -0.012083 0
-0.009006 -0.010098 0
-0.010282 -0.006549 0
-0.010878 -0.001968 0
-0.010783 0.003043 0
-0.010141 0.007524 0
-0.009240 0.010472 0
-0.008160 0.011169 0
-0.006647 0.008827 0
-0.004002 0.001693 0
0.001067 -0.012140 0
0.006610 -0.031245 0
0.011240 -0.052968 0
0.014753 -0.076318 0
0.017134 -0.100580 0
0.018381 -0.125230 0
0.018501 -0.149933 0
0.017505 -0.174568 0
0.015414 -0.199286 0
0.012252 -0.224640 0
0.008062 -0.251904 0
0.002983 -0.280603 0
-0.001339 -0.271416 0
-0.000033 0.000008 0
0.000000 0.123937 0
0.000000 -0.000003 0
0.010887 0.147123 0
0.017355 0.195205 0
0.020806 0.213951 0
0.023143 0.221099 0
0.024766 0.219306 0
0.025694 0.209452 0
0.025904 0.192730 0
0.025389 0.170652 0
0.024154 0.144843 0
0.022204 0.116834 0
0.019510 0.087943 0
0.015959 0.059394 0
0.011175 0.033273 0
0.004858 0.012483 0
-0.001968 -0.001328 0
-0.007193 -0.007976 0
-0.010905 -0.009363 0
-0.013613 -0.008121 0
-0.015474 -0.005344 0
-0.016427 -0.001604 0
-0.016378 0.002574 0
-0.015331 0.006402 0
-0.013483 0.008878 0
-0.010891 0.009001 0
-0.007181 0.005551 0
-0.001346 -0.003680 0
0.005929 -0.018607 0
0.012464 -0.036919 0
0.017876 -0.057495 0
0.022008 -0.079607 0
0.024787 -0.102602 0
0.026178 -0.125977 0
0.026177 -0.149414 0
0.024802 -0.172808 0
0.022091 -0.196320 0
0.018094 -0.220511 0
0.012874 -0.246719 0
0.006600 -0.275162 0
0.000600 -0.268981 0
-0.000031 0.000007 0
0.000000 0.124107 0
0.000000 -0.000002 0
0.013909 0.136755 0
0.023853 0.188671 0
0.030044 0.209849 0
0.034451 0.218205 0
0.037648 0.217374 0
0.039671 0.208491 0
0.040478 0.192762 0
0.040049 0.171677 0
0.038400 0.146850 0
0.035553 0.119832 0
0.031498 0.092009 0
0.026137 0.064761 0
0.019256 0.040112 0
0.011045 0.020352 0
0.002397 0.005997 0
-0.005490 -0.002567 0
-0.010878 -0.005663 0
-0.014330 -0.005528 0
-0.016601 -0.003735 0
-0.017729 -0.001064 0
-0.017646 0.001947 0
-0.016215 0.004629 0
-0.013401 0.006032 0
-0.009111 0.004867 0
-0.002779 -0.000718 0
0.005307 -0.011418 0
0.013175 -0.025950 0
0.020119 -0.043191 0
0.025875 -0.062512 0
0.030240 -0.083229 0
0.033086 -0.104750 0
0.034349 -0.126620 0
0.034013 -0.148557 0
0.032095 -0.170482 0
0.028642 -0.192577 0
0.023723 -0.215424 0
0.017433 -0.240411 0
0.009947 -0.268329 0
0.002441 -0.264817 0
-0.000030 0.000007 0
0.000000 0.123336 0
0.000000 -0.000002 0
0.016483 0.123270 0
0.029726 0.179070 0
0.038642 0.203354 0
0.045113 0.213495 0
0.049907 0.214085 0
0.053121 0.206623 0
0.054703 0.192352 0
0.054624 0.172730 0
0.052902 0.149339 0
0.049586 0.123736 0
0.044716 0.097359 0
0.038281 0.071637 0
0.030295 0.048365 0
0.021238 0.029341 0
0.012005 0.015207 0
0.002948 0.005299 0
-0.004396 -0.000523 0
-0.009447 -0.002398 0
-0.012202 -0.001945 0
-0.013278 -0.000558 0
-0.012937 0.001060 0
-0.010962 0.002157 0
-0.007060 0.001775 0
-0.001067 -0.001621 0
0.006735 -0.008868 0
0.015036 -0.019635 0
0.022828 -0.033418 0
0.029740 -0.049619 0
0.035426 -0.067617 0
0.039634 -0.086818 0
0.042204 -0.106711 0
0.043051 -0.126903 0
0.042145 -0.147159 0
0.039501 -0.167437 0
0.035169 -0.187948 0
0.029235 -0.209303 0
0.021815 -0.232943 0
0.013105 -0.260170 0
0.004190 -0.259034 0
-0.000030 0.000007 0
0.000000 0.121665 0
0.000000 -0.000001 0
0.018449 0.107029 0
0.034721 0.166513 0
0.046346 0.194462 0
0.054924 0.206940 0
0.061378 0.209366 0
0.065905 0.203695 0
0.068470 0.191259 0
0.069035 0.173479 0
0.067626 0.151887 0
0.064320 0.128018 0
0.059221 0.103315 0
0.052435 0.079182 0
0.044159 0.057155 0
0.034979 0.038643 0
0.025755 0.024287 0
0.017113 0.013833 0
0.009271 0.006733 0
0.003128 0.002278 0
-0.000648 0.000095 0
-0.002154 -0.000329 0