# vtk DataFile Version 2.0
generated by CFD-lab course output (written by Tobias Neckel) 
ASCII

DATASET STRUCTURED_GRID
DIMENSIONS  42 42 1 
POINTS 1764 float

0.150000 0.150000 0
0.167857 0.150000 0
0.185714 0.150000 0
0.203571 0.150000 0
0.221429 0.150000 0
0.239286 0.150000 0
0.257143 0.150000 0
0.275000 0.150000 0
0.292857 0.150000 0
0.310714 0.150000 0
0.328571 0.150000 0
0.346429 0.150000 0
0.364286 0.150000 0
0.382143 0.150000 0
0.400000 0.150000 0
0.417857 0.150000 0
0.435714 0.150000 0
0.453571 0.150000 0
0.471429 0.150000 0
0.489286 0.150000 0
0.507143 0.150000 0
0.525000 0.150000 0
0.542857 0.150000 0
0.560714 0.150000 0
0.578571 0.150000 0
0.596429 0.150000 0
0.614286 0.150000 0
0.632143 0.150000 0
0.650000 0.150000 0
0.667857 0.150000 0
0.685714 0.150000 0
0.703571 0.150000 0
0.721429 0.150000 0
0.739286 0.150000 0
0.757143 0.150000 0
0.775000 0.150000 0
0.792857 0.150000 0
0.810714 0.150000 0
0.828571 0.150000 0
0.846429 0.150000 0
0.864286 0.150000 0
0.882143 0.150000 0
0.150000 0.167857 0
0.167857 0.167857 0
0.185714 0.167857 0
0.203571 0.167857 0
0.221429 0.167857 0
0.239286 0.167857 0
0.257143 0.167857 0
0.275000 0.167857 0
0.292857 0.167857 0
0.310714 0.167857 0
0.328571 0.167857 0
0.346429 0.167857 0
0.364286 0.167857 0
0.382143 0.167857 0
0.400000 0.167857 0
0.417857 0.167857 0
0.435714 0.167857 0
0.453571 0.167857 0
0.471429 0.167857 0
0.489286 0.167857 0
0.507143 0.167857 0
0.525000 0.167857 0
0.542857 0.167857 0
0.560714 0.167857 0
0.578571 0.167857 0
0.596429 0.167857 0
0.614286 0.167857 0
0.632143 0.167857 0
0.650000 0.167857 0
0.667857 0.167857 0
0.685714 0.167857 0
0.703571 0.167857 0
0.721429 0.167857 0
0.739286 0.167857 0
0.757143 0.167857 0
0.775000 0.167857 0
0.792857 0.167857 0
0.810714 0.167857 0
0.828571 0.167857 0
0.846429 0.167857 0
0.864286 0.167857 0
0.882143 0.167857 0
0.150000 0.185714 0
0.167857 0.185714 0
0.185714 0.185714 0
0.203571 0.185714 0
0.221429 0.185714 0
0.239286 0.185714 0
0.257143 0.185714 0
0.275000 0.185714 0
0.292857 0.185714 0
0.310714 0.185714 0
0.328571 0.185714 0
0.346429 0.185714 0
0.364286 0.185714 0
0.382143 0.185714 0
0.400000 0.185714 0
0.417857 0.185714 0
0.435714 0.185714 0
0.453571 0.185714 0
0.471429 0.185714 0
0.489286 0.185714 0
0.507143 0.185714 0
0.525000 0.185714 0
0.542857 0.185714 0
0.560714 0.185714 0
0.578571 0.185714 0
0.596429 0.185714 0
0.614286 0.185714 0
0.632143 0.185714 0
0.650000 0.185714 0
0.667857 0.185714 0
0.685714 0.185714 0
0.703571 0.185714 0
0.721429 0.185714 0
0.739286 0.185714 0
0.757143 0.185714 0
0.775000 0.185714 0
0.792857 0.185714 0
0.810714 0.185714 0
0.828571 0.185714 0
0.846429 0.185714 0
0.864286 0.185714 0
0.882143 0.185714 0
0.150000 0.203571 0
0.167857 0.203571 0
0.185714 0.203571 0
0.203571 0.203571 0
0.221429 0.203571 0
0.239286 0.203571 0
0.257143 0.203571 0
0.275000 0.203571 0
0.292857 0.203571 0
0.310714 0.203571 0
0.328571 0.203571 0
0.346429 0.203571 0
0.364286 0.203571 0
0.382143 0.203571 0
0.400000 0.203571 0
0.417857 0.203571 0
0.435714 0.203571 0
0.453571 0.203571 0
0.471429 0.203571 0
0.489286 0.203571 0
0.507143 0.203571 0
0.525000 0.203571 0
0.542857 0.203571 0
0.560714 0.203571 0
0.578571 0.203571 0
0.596429 0.203571 0
0.614286 0.203571 0
0.632143 0.203571 0
0.650000 0.203571 0
0.667857 0.203571 0
0.685714 0.203571 0
0.703571 0.203571 0
0.721429 0.203571 0
0.739286 0.203571 0
0.757143 0.203571 0
0.775000 0.203571 0
0.792857 0.203571 0
0.810714 0.203571 0
0.828571 0.203571 0
0.846429 0.203571 0
0.864286 0.203571 0
0.882143 0.203571 0
0.150000 0.221429 0
0.167857 0.221429 0
0.185714 0.221429 0
0.203571 0.221429 0
0.221429 0.221429 0
0.239286 0.221429 0
0.257143 0.221429 0
0.275000 0.221429 0
0.292857 0.221429 0
0.310714 0.221429 0
0.328571 0.221429 0
0.346429 0.221429 0
0.364286 0.221429 0
0.382143 0.221429 0
0.400000 0.221429 0
0.417857 0.221429 0
0.435714 0.221429 0
0.453571 0.221429 0
0.471429 0.221429 0
0.489286 0.221429 0
0.507143 0.221429 0
0.525000 0.221429 0
0.542857 0.221429 0
0.560714 0.221429 0
0.578571 0.221429 0
0.596429 0.221429 0
0.614286 0.221429 0
0.632143 0.221429 0
0.650000 0.221429 0
0.667857 0.221429 0
0.685714 0.221429 0
0.703571 0.221429 0
0.721429 0.221429 0
0.739286 0.221429 0
0.757143 0.221429 0
0.775000 0.221429 0
0.792857 0.221429 0
0.810714 0.221429 0
0.828571 0.221429 0
0.846429 0.221429 0
0.864286 0.221429 0
0.882143 0.221429 0
0.150000 0.239286 0
0.167857 0.239286 0
0.185714 0.239286 0
0.203571 0.239286 0
0.221429 0.239286 0
0.239286 0.239286 0
0.257143 0.239286 0
0.275000 0.239286 0
0.292857 0.239286 0
0.310714 0.239286 0
0.328571 0.239286 0
0.346429 0.239286 0
0.364286 0.239286 0
0.382143 0.239286 0
0.400000 0.239286 0
0.417857 0.239286 0
0.435714 0.239286 0
0.453571 0.239286 0
0.471429 0.239286 0
0.489286 0.239286 0
0.507143 0.239286 0
0.525000 0.239286 0
0.542857 0.239286 0
0.560714 0.239286 0
0.578571 0.239286 0
0.596429 0.239286 0
0.614286 0.239286 0
0.632143 0.239286 0
0.650000 0.239286 0
0.667857 0.239286 0
0.685714 0.239286 0
0.703571 0.239286 0
0.721429 0.239286 0
0.739286 0.239286 0
0.757143 0.239286 0
0.775000 0.239286 0
0.792857 0.239286 0
0.810714 0.239286 0
0.828571 0.239286 0
0.846429 0.239286 0
0.864286 0.239286 0
0.882143 0.239286 0
0.150000 0.257143 0
0.167857 0.257143 0
0.185714 0.257143 0
0.203571 0.257143 0
0.221429 0.257143 0
0.239286 0.257143 0
0.257143 0.257143 0
0.275000 0.257143 0
0.292857 0.257143 0
0.310714 0.257143 0
0.328571 0.257143 0
0.346429 0.257143 0
0.364286 0.257143 0
0.382143 0.257143 0
0.400000 0.257143 0
0.417857 0.257143 0
0.435714 0.257143 0
0.453571 0.257143 0
0.471429 0.257143 0
0.489286 0.257143 0
0.507143 0.257143 0
0.525000 0.257143 0
0.542857 0.257143 0
0.560714 0.257143 0
0.578571 0.257143 0
0.596429 0.257143 0
0.614286 0.257143 0
0.632143 0.257143 0
0.650000 0.257143 0
0.667857 0.257143 0
0.685714 0.257143 0
0.703571 0.257143 0
0.721429 0.257143 0
0.739286 0.257143 0
0.757143 0.257143 0
0.775000 0.257143 0
0.792857 0.257143 0
0.810714 0.257143 0
0.828571 0.257143 0
0.846429 0.257143 0
0.864286 0.257143 0
0.882143 0.257143 0
0.150000 0.275000 0
0.167857 0.275000 0
0.185714 0.275000 0
0.203571 0.275000 0
0.221429 0.275000 0
0.239286 0.275000 0
0.257143 0.275000 0
0.275000 0.275000 0
0.292857 0.275000 0
0.310714 0.275000 0
0.328571 0.275000 0
0.346429 0.275000 0
0.364286 0.275000 0
0.382143 0.275000 0
0.400000 0.275000 0
0.417857 0.275000 0
0.435714 0.275000 0
0.453571 0.275000 0
0.471429 0.275000 0
0.489286 0.275000 0
0.507143 0.275000 0
0.525000 0.275000 0
0.542857 0.275000 0
0.560714 0.275000 0
0.578571 0.275000 0
0.596429 0.275000 0
0.614286 0.275000 0
0.632143 0.275000 0
0.650000 0.275000 0
0.667857 0.275000 0
0.685714 0.275000 0
0.703571 0.275000 0
0.721429 0.275000 0
0.739286 0.275000 0
0.757143 0.275000 0
0.775000 0.275000 0
0.792857 0.275000 0
0.810714 0.275000 0
0.828571 0.275000 0
0.846429 0.275000 0
0.864286 0.275000 0
0.882143 0.275000 0
0.150000 0.292857 0
0.167857 0.292857 0
0.185714 0.292857 0
0.203571 0.292857 0
0.221429 0.292857 0
0.239286 0.292857 0
0.257143 0.292857 0
0.275000 0.292857 0
0.292857 0.292857 0
0.310714 0.292857 0
0.328571 0.292857 0
0.346429 0.292857 0
0.364286 0.292857 0
0.382143 0.292857 0
0.400000 0.292857 0
0.417857 0.292857 0
0.435714 0.292857 0
0.453571 0.292857 0
0.471429 0.292857 0
0.489286 0.292857 0
0.507143 0.292857 0
0.525000 0.292857 0
0.542857 0.292857 0
0.560714 0.292857 0
0.578571 0.292857 0
0.596429 0.292857 0
0.614286 0.292857 0
0.632143 0.292857 0
0.650000 0.292857 0
0.667857 0.292857 0
0.685714 0.292857 0
0.703571 0.292857 0
0.721429 0.292857 0
0.739286 0.292857 0
0.757143 0.292857 0
0.775000 0.292857 0
0.792857 0.292857 0
0.810714 0.292857 0
0.828571 0.292857 0
0.846429 0.292857 0
0.864286 0.292857 0
0.882143 0.292857 0
0.150000 0.310714 0
0.167857 0.310714 0
0.185714 0.310714 0
0.203571 0.310714 0
0.221429 0.310714 0
0.239286 0.310714 0
0.257143 0.310714 0
0.275000 0.310714 0
0.292857 0.310714 0
0.310714 0.310714 0
0.328571 0.310714 0
0.346429 0.310714 0
0.364286 0.310714 0
0.382143 0.310714 0
0.400000 0.310714 0
0.417857 0.310714 0
0.435714 0.310714 0
0.453571 0.310714 0
0.471429 0.310714 0
0.489286 0.310714 0
0.507143 0.310714 0
0.525000 0.310714 0
0.542857 0.310714 0
0.560714 0.310714 0
0.578571 0.310714 0
0.596429 0.310714 0
0.614286 0.310714 0
0.632143 0.310714 0
0.650000 0.310714 0
0.667857 0.310714 0
0.685714 0.310714 0
0.703571 0.310714 0
0.721429 0.310714 0
0.739286 0.310714 0
0.757143 0.310714 0
0.775000 0.310714 0
0.792857 0.310714 0
0.810714 0.310714 0
0.828571 0.310714 0
0.846429 0.310714 0
0.864286 0.310714 0
0.882143 0.310714 0
0.150000 0.328571 0
0.167857 0.328571 0
0.185714 0.328571 0
0.203571 0.328571 0
0.221429 0.328571 0
0.239286 0.328571 0
0.257143 0.328571 0
0.275000 0.328571 0
0.292857 0.328571 0
0.310714 0.328571 0
0.328571 0.328571 0
0.346429 0.328571 0
0.364286 0.328571 0
0.382143 0.328571 0
0.400000 0.328571 0
0.417857 0.328571 0
0.435714 0.328571 0
0.453571 0.328571 0
0.471429 0.328571 0
0.489286 0.328571 0
0.507143 0.328571 0
0.525000 0.328571 0
0.542857 0.328571 0
0.560714 0.328571 0
0.578571 0.328571 0
0.596429 0.328571 0
0.614286 0.328571 0
0.632143 0.328571 0
0.650000 0.328571 0
0.667857 0.328571 0
0.685714 0.328571 0
0.703571 0.328571 0
0.721429 0.328571 0
0.739286 0.328571 0
0.757143 0.328571 0
0.775000 0.328571 0
0.792857 0.328571 0
0.810714 0.328571 0
0.828571 0.328571 0
0.846429 0.328571 0
0.864286 0.328571 0
0.882143 0.328571 0
0.150000 0.346429 0
0.167857 0.346429 0
0.185714 0.346429 0
0.203571 0.346429 0
0.221429 0.346429 0
0.239286 0.346429 0
0.257143 0.346429 0
0.275000 0.346429 0
0.292857 0.346429 0
0.310714 0.346429 0
0.328571 0.346429 0
0.346429 0.346429 0
0.364286 0.346429 0
0.382143 0.346429 0
0.400000 0.346429 0
0.417857 0.346429 0
0.435714 0.346429 0
0.453571 0.346429 0
0.471429 0.346429 0
0.489286 0.346429 0
0.507143 0.346429 0
0.525000 0.346429 0
0.542857 0.346429 0
0.560714 0.346429 0
0.578571 0.346429 0
0.596429 0.346429 0
0.614286 0.346429 0
0.632143 0.346429 0
0.650000 0.346429 0
[...]
POINT_DATA 1764 

VECTORS velocity float
0.000000 0.000000 0
-0.000002 0.000000 0
-0.000003 0.000000 0
-0.000003 0.000000 0
-0.000002 0.000000 0
-0.000002 0.000000 0
-0.000002 0.000000 0
-0.000001 0.000000 0
-0.000003 0.000000 0
-0.000005 0.000000 0
0.000002 0.000000 0
0.000005 0.000000 0
0.000007 0.000000 0
0.000009 0.000000 0
0.000010 0.000000 0
0.000010 0.000000 0
0.000010 0.000000 0
0.000010 0.000000 0
0.000011 0.000000 0
0.000010 0.000000 0
0.000010 0.000000 0
0.000010 0.000000 0
0.000010 0.000000 0
0.000010 0.000000 0
0.000011 0.000000 0
0.000011 0.000000 0
0.000011 0.000000 0
0.000011 0.000000 0
0.000011 0.000000 0
0.000011 0.000000 0
0.000011 0.000000 0
0.000011 0.000000 0
0.000011 0.000000 0
0.000011 0.000000 0
0.000010 0.000000 0
0.000009 0.000000 0
0.000008 0.000000 0
0.000005 0.000000 0
0.000001 0.000000 0
-0.000001 0.000000 0
-0.000000 0.000000 0
0.000000 0.000000 0
0.000000 0.000002 0
0.028328 -0.026126 0
0.052943 -0.017551 0
0.063782 -0.003757 0
0.062397 0.006071 0
0.053270 0.009538 0
0.044815 0.008512 0
0.038797 0.004189 0
0.024124 -0.007537 0
0.001784 -0.004272 0
-0.025743 0.018357 0
-0.059950 0.033223 0
-0.097093 0.037440 0
-0.133818 0.037179 0
-0.168381 0.035354 0
-0.199717 0.032406 0
-0.227325 0.028933 0
-0.251077 0.025308 0
-0.271089 0.021770 0
-0.287607 0.018446 0
-0.300926 0.015380 0
-0.311333 0.012561 0
-0.319063 0.009942 0
-0.324281 0.007435 0
-0.327048 0.004924 0
-0.327319 0.002287 0
-0.324951 -0.000611 0
-0.319761 -0.003901 0
-0.311443 -0.007641 0
-0.299583 -0.011862 0
-0.283681 -0.016669 0
-0.263152 -0.022141 0
-0.237371 -0.028277 0
-0.205762 -0.034933 0
-0.167987 -0.041667 0
-0.124320 -0.047487 0
-0.076368 -0.050249 0
-0.028477 -0.044538 0
0.009710 -0.014793 0
0.019640 0.016445 0
0.000004 -0.000001 0
0.000000 -0.011951 0
0.000000 0.000003 0
0.026295 -0.052943 0
0.046305 -0.035454 0
0.054373 -0.009454 0
0.052507 0.010512 0
0.041512 0.017582 0
0.023601 0.014473 0
-0.001665 0.020691 0
-0.038497 0.037013 0
-0.090694 0.049867 0
-0.135147 0.061734 0
-0.171798 0.071350 0
-0.204803 0.073868 0
-0.235163 0.071288 0
-0.261943 0.065899 0
-0.284913 0.058944 0
-0.304073 0.051360 0
-0.319628 0.043764 0
-0.331886 0.036530 0
-0.341188 0.029837 0
-0.347863 0.023725 0
-0.352191 0.018137 0
-0.354383 0.012948 0
-0.354567 0.007985 0
-0.352798 0.003038 0
-0.349043 -0.002097 0
-0.343291 -0.007557 0
-0.335381 -0.013508 0
-0.325106 -0.020178 0
-0.312106 -0.027762 0
-0.295951 -0.036431 0
-0.276167 -0.046311 0
-0.252249 -0.057390 0
-0.223738 -0.069383 0
-0.190341 -0.081442 0
-0.152207 -0.091619 0
-0.110435 -0.095843 0
-0.067813 -0.086078 0
-0.028635 -0.048118 0
0.006844 0.009710 0
0.000011 -0.000002 0
0.000000 -0.019643 0
0.000000 0.000004 0
0.017219 -0.072432 0
0.026174 -0.045630 0
0.024522 -0.009959 0
0.011348 0.018932 0
-0.008600 0.038445 0
-0.040337 0.051689 0
-0.083462 0.066286 0
-0.125299 0.081492 0
-0.164424 0.092378 0
-0.200440 0.099461 0
-0.229820 0.102879 0
-0.253807 0.100806 0
-0.273669 0.094319 0
-0.289783 0.085103 0
-0.302560 0.074535 0
-0.312409 0.063649 0
-0.319748 0.053121 0
-0.324960 0.043330 0
-0.328379 0.034423 0
-0.330269 0.026383 0
-0.330826 0.019081 0
-0.330175 0.012319 0
-0.328374 0.005850 0
-0.325435 -0.000600 0
-0.321341 -0.007220 0
-0.316014 -0.014272 0
-0.309229 -0.022087 0
-0.300731 -0.030916 0
-0.290227 -0.041017 0
-0.277378 -0.052609 0
-0.261826 -0.065843 0
-0.243195 -0.080706 0
-0.221115 -0.096841 0
-0.195262 -0.113198 0
-0.165445 -0.127393 0
-0.131754 -0.134643 0
-0.094710 -0.126337 0
-0.055160 -0.089449 0
-0.013957 -0.012190 0
0.000007 0.000002 0
0.000000 -0.018792 0
0.000000 0.000003 0
0.002243 -0.079117 0
-0.006096 -0.042757 0
-0.022394 0.005372 0
-0.044990 0.043634 0
-0.072188 0.069267 0
-0.105347 0.089334 0
-0.141484 0.105653 0
-0.175398 0.117975 0
-0.205229 0.125008 0
-0.230903 0.127130 0
-0.250809 0.124718 0
-0.265569 0.117717 0
-0.276276 0.107264 0
-0.283787 0.094790 0
-0.288830 0.081570 0
-0.291994 0.068548 0
-0.293744 0.056315 0
-0.294435 0.045161 0
-0.294318 0.035146 0
-0.293564 0.026172 0
-0.292271 0.018042 0
-0.290479 0.010497 0
-0.288180 0.003245 0
-0.285326 -0.003995 0
-0.281914 -0.011517 0
-0.277697 -0.019670 0
-0.272507 -0.028792 0
-0.266113 -0.039180 0
-0.258278 -0.051114 0
-0.248754 -0.064832 0
-0.237297 -0.080494 0
-0.223661 -0.098101 0
-0.207579 -0.117316 0
-0.188714 -0.137112 0
-0.166593 -0.155127 0
-0.140529 -0.166577 0
-0.109608 -0.162673 0
-0.073074 -0.128871 0
-0.032537 -0.045450 0
-0.000024 0.000007 0
0.000000 -0.005677 0
0.000000 0.000001 0
-0.015060 -0.066336 0
-0.039453 -0.020993 0
-0.066162 0.028935 0
-0.090391 0.068726 0
-0.117567 0.098802 0
-0.146398 0.120984 0
-0.174663 0.136337 0
-0.199890 0.145237 0
-0.220826 0.147884 0
-0.237203 0.145041 0
-0.248596 0.137545 0
-0.255660 0.126273 0
-0.259387 0.112537 0
-0.260715 0.097658 0
-0.260423 0.082742 0
-0.259106 0.068563 0
-0.257194 0.055562 0
-0.254980 0.043904 0
-0.252649 0.033552 0
-0.250307 0.024336 0
-0.247995 0.015996 0
-0.245707 0.008228 0
-0.243401 0.000698 0
-0.241008 -0.006867 0
-0.238413 -0.014849 0
-0.235405 -0.023679 0
-0.231796 -0.033671 0
-0.227371 -0.045145 0
-0.221919 -0.058376 0
-0.215247 -0.073590 0
-0.207197 -0.090935 0
-0.197635 -0.110423 0
-0.186403 -0.131789 0
-0.173222 -0.154185 0
-0.157513 -0.175577 0
-0.138163 -0.191627 0
-0.113349 -0.193793 0
-0.080892 -0.166521 0
-0.040298 -0.085263 0
-0.000057 0.000009 0
0.000000 0.013752 0
0.000000 -0.000001 0
-0.027922 -0.039664 0
-0.061312 0.008344 0
-0.090171 0.056310 0
-0.116689 0.095040 0
-0.142264 0.125274 0
-0.166371 0.146431 0
-0.187853 0.159145 0
-0.205558 0.164137 0
-0.218887 0.162321 0
-0.227800 0.154900 0
-0.232496 0.143175 0
-0.233731 0.128509 0
-0.232423 0.112318 0
-0.229443 0.095825 0
-0.225506 0.079962 0
-0.221151 0.065320 0
-0.216761 0.052189 0
-0.212594 0.040616 0
-0.208808 0.030473 0
-0.205482 0.021518 0
-0.202631 0.013442 0
-0.200225 0.005903 0
-0.198204 -0.001454 0
-0.196494 -0.008984 0
-0.194858 -0.017120 0
-0.193136 -0.026286 0
-0.191107 -0.036826 0
-0.188541 -0.049058 0
-0.185209 -0.063239 0
-0.180925 -0.079553 0
-0.175569 -0.098106 0
-0.169078 -0.118896 0
-0.161398 -0.141729 0
-0.152361 -0.166001 0
-0.141457 -0.190185 0
-0.127477 -0.210741 0
-0.108140 -0.219944 0
-0.080200 -0.201922 0
-0.041462 -0.126342 0
-0.000079 0.000011 0
0.000000 0.034625 0
0.000000 -0.000003 0
-0.035260 -0.005024 0
-0.070738 0.041257 0
-0.100369 0.084312 0
-0.127022 0.120818 0
-0.150391 0.148483 0
-0.170315 0.166573 0
-0.186339 0.175524 0
-0.198085 0.176271 0
-0.205483 0.170126 0
-0.208811 0.158650 0
-0.208595 0.143476 0
-0.205633 0.126200 0
-0.200766 0.108249 0
-0.194760 0.090741 0
-0.188245 0.074450 0
-0.181716 0.059818 0
-0.175541 0.047005 0
-0.169982 0.035951 0
-0.165203 0.026440 0
-0.161281 0.018158 0
-0.158219 0.010740 0
-0.155967 0.003802 0
-0.154436 -0.003034 0
-0.153522 -0.010212 0
-0.152989 -0.018207 0
-0.152654 -0.027430 0
-0.152271 -0.038266 0
-0.151559 -0.051043 0
-0.150231 -0.065992 0
-0.148051 -0.083231 0
-0.144890 -0.102782 0
-0.140721 -0.124594 0
-0.135561 -0.148506 0
-0.129362 -0.174125 0
-0.121795 -0.200461 0
-0.111838 -0.224944 0
-0.097228 -0.241070 0
-0.074263 -0.233199 0
-0.039605 -0.165464 0
-0.000095 0.000012 0
0.000000 0.055217 0
0.000000 -0.000004 0
-0.036662 0.031074 0
-0.070627 0.073453 0
-0.100420 0.112594 0
-0.125845 0.145062 0
-0.146727 0.168567 0
-0.163067 0.182379 0
-0.174826 0.186915 0
-0.182085 0.183282 0
-0.185137 0.173047 0
-0.184492 0.158011 0
-0.180826 0.139997 0
-0.174917 0.120680 0
-0.167517 0.101445 0
-0.159299 0.083305 0
-0.150837 0.066918 0
-0.142616 0.052615 0
-0.135037 0.040455 0
-0.128403 0.030278 0
-0.122914 0.021772 0
-0.118652 0.014534 0
-0.115609 0.008128 0
-0.113705 0.002120 0
-0.112817 -0.003898 0
-0.112801 -0.010430 0
-0.113458 -0.017988 0
-0.114587 -0.027005 0
-0.115921 -0.037921 0
-0.117115 -0.051097 0
-0.117772 -0.066747 0
-0.117559 -0.084895 0
-0.116306 -0.105435 0
-0.114006 -0.128225 0
-0.110715 -0.153089 0
-0.106479 -0.179767 0
-0.101167 -0.207709 0
-0.094090 -0.235308 0
-0.083357 -0.257519 0
-0.065297 -0.259546 0
-0.035764 -0.200605 0
-0.000103 0.000013 0
0.000000 0.074232 0
0.000000 -0.000005 0
-0.033140 0.065603 0
-0.065701 0.105015 0
-0.093838 0.139530 0
-0.117122 0.167126 0
-0.135366 0.185705 0
-0.148635 0.194672 0
-0.157105 0.194543 0
-0.161102 0.186582 0
-0.161117 0.172533 0
-0.157775 0.154339 0
-0.151779 0.133901 0
-0.143846 0.112891 0
-0.134638 0.092631 0
-0.124759 0.074060 0
-0.114764 0.057767 0
-0.105172 0.044018 0
-0.096457 0.032792 0
-0.089002 0.023828 0
-0.083054 0.016689 0
-0.078692 0.010854 0
-0.075867 0.005792 0
-0.074455 0.001010 0
-0.074286 -0.003938 0
-0.075160 -0.009572 0
-0.076948 -0.016421 0
-0.079472 -0.024967 0
-0.082479 -0.035738 0
-0.085563 -0.049192 0
-0.088170 -0.065548 0
-0.089812 -0.084697 0
-0.090260 -0.106334 0
-0.089539 -0.130185 0
-0.087743 -0.156034 0
-0.084980 -0.183673 0
-0.081269 -0.212849 0
-0.076264 -0.242755 0
-0.068612 -0.269863 0
-0.055050 -0.280792 0
-0.030966 -0.230761 0
-0.000103 0.000013 0
0.000000 0.090982 0
0.000000 -0.000006 0
-0.028582 0.096774 0
-0.058023 0.134152 0
-0.083331 0.164015 0
-0.103887 0.186590 0
-0.119448 0.200081 0
-0.130079 0.204117 0
-0.136034 0.199382 0
-0.137738 0.187294 0
-0.135746 0.169719 0
-0.130695 0.148673 0
-0.123240 0.126068 0
-0.114007 0.103539 0
-0.103575 0.082358 0
-0.092492 0.063430 0
-0.081310 0.047330 0
-0.070611 0.034308 0
-0.060997 0.024285 0
-0.052981 0.016876 0
-0.046904 0.011463 0
-0.042788 0.007347 0
-0.040483 0.003891 0
-0.039767 0.000538 0
-0.040391 -0.003193 0
-0.042027 -0.007768 0
-0.044684 -0.013676 0
-0.048277 -0.021474 0
-0.052653 -0.031830 0
-0.057415 -0.045405 0
-0.061791 -0.062498 0
-0.065078 -0.082806 0
-0.066969 -0.105708 0
-0.067559 -0.130741 0
-0.066994 -0.157649 0
-0.065427 -0.186241 0
-0.062975 -0.216425 0
-0.059550 -0.247966 0
-0.054341 -0.278733 0
-0.044707 -0.297192 0
-0.025910 -0.255654 0
-0.000098 0.000013 0
0.000000 0.105198 0
0.000000 -0.000006 0
-0.023540 0.123626 0
-0.048914 0.159764 0
-0.070744 0.185393 0
-0.088274 0.203243 0
-0.101209 0.211898 0
-0.109582 0.211258 0
-0.113643 0.202202 0
-0.113816 0.186294 0
-0.110631 0.165490 0
-0.104661 0.141832 0
-0.096470 0.117213 0
-0.086580 0.093226 0
-0.075475 0.071115 0
-0.063646 0.051796 0
-0.051622 0.035886 0
-0.040014 0.023705 0
-0.029694 0.015162 0
-0.021348 0.009735 0
-0.015496 0.006496 0
-0.012029 0.004433 0
-0.010574 0.002771 0
-0.010723 0.000917 0
-0.012173 -0.001678 0
-0.014713 -0.005279 0
-0.018083 -0.010171 0
-0.022290 -0.016998 0
-0.027474 -0.026600 0
-0.033429 -0.040053 0
-0.039135 -0.057885 0
-0.043656 -0.079519 0
-0.046606 -0.103853 0
-0.048173 -0.130161 0
-0.048574 -0.158165 0
-0.048000 -0.187692 0
-0.046620 -0.218726 0
-0.044504 -0.251389 0
-0.041276 -0.284706 0
-0.034982 -0.309222 0
-0.021038 -0.275468 0
-0.000089 0.000013 0
0.000000 0.116892 0
0.000000 -0.000007 0
-0.018243 0.145688 0
-0.039170 0.181356 0
-0.057261 0.203375 0
-0.071689 0.217056 0
-0.082140 0.221389 0
-0.088599 0.216551 0
-0.091275 0.203617 0
-0.090531 0.184282 0
-0.086816 0.160565 0
-0.080601 0.134513 0
-0.072333 0.107986 0
-0.062420 0.082544 0
-0.051246 0.059424 0
-0.039213 0.039577 0
-0.026751 0.023698 0
-0.014301 0.012380 0
-0.003653 0.005619 0
0.004079 0.002677 0
0.008995 0.002143 0
0.011498 0.002426 0
0.012080 0.002584 0
0.011170 0.002138 0
0.009110 0.000798 0
0.006023 -0.001859 0
0.002158 -0.006099 0
-0.002399 -0.012083 0
-0.007922 -0.020691 0
-0.014424 -0.033744 0
-0.020731 -0.052271 0
-0.025815 -0.075336 0
-0.029278 -0.101191 0
-0.031410 -0.128772 0
-0.032474 -0.157822 0
-0.032687 -0.188195 0
-0.032239 -0.219921 0
-0.031276 -0.253309 0
-0.029712 -0.288255 0
-0.026223 -0.317430 0
-0.016582 -0.290636 0
-0.000078 0.000013 0
0.000000 0.126235 0
0.000000 -0.000006 0
-0.012879 0.162795 0
-0.029269 0.198782 0
-0.043600 0.217913 0
-0.054996 0.228122 0
-0.063151 0.228807 0
-0.068014 0.220394 0
-0.069730 0.204134 0
-0.068574 0.181835 0
-0.064889 0.155560 0
-0.059029 0.127349 0
-0.051317 0.099032 0
-0.042043 0.072139 0
-0.031473 0.047908 0
-0.019838 0.027301 0
-0.007027 0.010975 0
0.004622 0.000607 0
0.013403 -0.003218 0
0.019415 -0.002914 0
0.023241 -0.000924 0
0.025130 0.001348 0
0.025342 0.003099 0
0.024170 0.003887 0
0.021932 0.003470 0
0.018893 0.001673 0
0.015049 -0.001750 0
0.010419 -0.006918 0
0.005078 -0.014574 0
-0.000924 -0.027245 0
-0.006899 -0.046494 0
-0.011636 -0.070972 0
-0.014952 -0.098259 0
-0.017184 -0.126965 0
-0.018586 -0.156888 0
-0.019367 -0.187926 0
-0.019715 -0.220137 0
-0.019789 -0.253916 0
-0.019670 -0.289758 0
-0.018537 -0.322352 0
-0.012637 -0.301692 0
-0.000068 0.000012 0
0.000000 0.133474 0
0.000000 -0.000006 0
-0.007570 0.174957 0
-0.019491 0.212076 0
-0.030159 0.229102 0
-0.038666 0.236607 0
-0.044730 0.234407 0
-0.048275 0.223130 0
-0.049379 0.204176 0
-0.048225 0.179441 0
-0.045047 0.151019 0
-0.040079 0.120940 0
-0.033532 0.091001 0
-0.025578 0.062700 0
-0.016331 0.037218 0
-0.005540 0.015131 0
0.005367 -0.000761 0
0.013308 -0.008050 0
0.018978 -0.009174 0
0.023351 -0.007161 0
0.026591 -0.003572 0
0.028547 0.000325 0
0.029076 0.003545 0
0.028318 0.005548 0
0.026473 0.006074 0
0.023768 0.005024 0
0.020347 0.002375 0
0.016186 -0.002112 0
0.011496 -0.009348 0
0.006719 -0.021767 0
0.002421 -0.041559 0
-0.000847 -0.067282 0
-0.003384 -0.095643 0
-0.005275 -0.125139 0
-0.006708 -0.155639 0
-0.007846 -0.187066 0
-0.008849 -0.219499 0
-0.009860 -0.253355 0
-0.011021 -0.289508 0
-0.011879 -0.324463 0
-0.009205 -0.309173 0
-0.000058 0.000012 0
0.000000 0.138872 0
0.000000 -0.000006 0
-0.002475 0.182286 0
-0.009950 0.221370 0
-0.017127 0.237088 0
-0.022913 0.242693 0
-0.027071 0.238416 0
-0.029516 0.225042 0
-0.030273 0.204084 0
-0.029441 0.177503 0
-0.027152 0.147414 0
-0.023539 0.115834 0
-0.018716 0.084531 0
-0.012753 0.054938 0
-0.005453 0.027870 0
0.002816 0.005604 0
0.008862 -0.007873 0
0.012971 -0.013005 0
0.016508 -0.013261 0
0.019634 -0.010526 0
0.022323 -0.006120 0
0.024404 -0.001137 0
0.025509 0.003328 0
0.025532 0.006491 0
0.024533 0.008020 0
0.022631 0.007799 0
0.019973 0.005832 0
0.016731 0.001933 0
0.013136 -0.005108 0
0.010061 -0.018170 0
0.008295 -0.038928 0
0.007104 -0.065167 0
0.005874 -0.093830 0
0.004674 -0.123641 0
0.003452 -0.154317 0
0.002128 -0.185785 0
0.000604 -0.218124 0
-0.001255 -0.251744 0
-0.003572 -0.287739 0
-0.006127 -0.324168 0
-0.006234 -0.313571 0
-0.000051 0.000011 0
0.000000 0.142678 0
0.000000 -0.000005 0
0.002256 0.184907 0
-0.000755 0.226728 0
-0.004565 0.242065 0
-0.007775 0.246550 0
-0.010166 0.241010 0
-0.011656 0.226332 0
-0.012235 0.204102 0
-0.011934 0.176321 0
-0.010802 0.145118 0
-0.008889 0.112504 0
-0.006228 0.080215 0
-0.002806 0.049437 0
0.001458 0.021650 0
0.005050 0.000816 0
0.006850 -0.010916 0
0.008517 -0.015696 0
0.010303 -0.015838 0
0.012203 -0.012976 0
0.014194 -0.008341 0
0.016149 -0.002861 0
0.017720 0.002417 0
0.018546 0.006523 0
0.018546 0.008975 0
0.017729 0.009584 0
0.016198 0.008276 0
0.014214 0.004725 0
0.012339 -0.002679 0
0.011789 -0.016926 0
0.012583 -0.038601 0
0.013356 -0.064861 0
0.013544 -0.093212 0
0.013162 -0.122717 0
0.012269 -0.153094 0
0.010856 -0.184217 0
0.008876 -0.216116 0
0.006239 -0.249179 0
0.002883 -0.284636 0
-0.001112 -0.321801 0
-0.003646 -0.315300 0
-0.000045 0.000011 0
0.000000 0.145106 0
0.000000 -0.000005 0
0.006657 0.183041 0
0.008007 0.228191 0
0.007487 0.244108 0
0.006754 0.248295 0
0.006069 0.242297 0
0.005495 0.227111 0
0.005055 0.204361 0
0.004761 0.176070 0
0.004620 0.144369 0
0.004645 0.111260 0
0.004847 0.078448 0
0.005231 0.047253 0
0.005397 0.020014 0
0.004350 0.000212 0
0.003271 -0.011340 0
0.002824 -0.016459 0
0.002930 -0.016946 0
0.003569 -0.014417 0
0.004751 -0.010066 0
0.006399 -0.004663 0
0.008261 0.000931 0
0.009793 0.005665 0
0.010787 0.008837 0
0.011157 0.010146 0
0.011006 0.009347 0
0.010716 0.005793 0
0.011187 -0.002683 0
0.013592 -0.018415 0
0.016699 -0.040495 0
0.019096 -0.066128 0
0.020428 -0.093636 0
0.020765 -0.122366 0
0.020182 -0.152012 0
0.018693 -0.182392 0
0.016271 -0.213506 0
0.012889 -0.245751 0
0.008532 -0.280388 0
0.003262 -0.317639 0
-0.001343 -0.314683 0
-0.000041 0.000011 0
0.000000 0.146323 0
0.000000 -0.000004 0
0.010786 0.176900 0
0.016357 0.225898 0
0.019025 0.243318 0
0.020694 0.247968 0
0.021708 0.242268 0
0.022098 0.227346 0
0.021877 0.204836 0
0.021072 0.176756 0
0.019728 0.145233 0
0.017894 0.112278 0
0.015594 0.079629 0
0.012781 0.048886 0
0.009034 0.022530 0
0.004435 0.002943 0
0.000530 -0.009391 0
-0.002035 -0.015355 0
-0.003546 -0.016583 0
-0.004120 -0.014797 0
-0.003804 -0.011171 0
-0.002668 -0.006370 0
-0.000838 -0.000977 0
0.001282 0.003997 0
0.003226 0.007612 0
0.004817 0.009364 0
0.006255 0.008716 0
0.008098 0.004545 0
0.011614 -0.005554 0
0.016654 -0.022438 0
0.021418 -0.044106 0
0.024956 -0.068590 0
0.027126 -0.094881 0
0.027996 -0.122472 0
0.027616 -0.151022 0
0.025988 -0.180306 0
0.023105 -0.210311 0
0.018967 -0.241440 0
0.013595 -0.275009 0
0.007094 -0.311926 0
0.000748 -0.312039 0
-0.000038 0.000010 0
0.000000 0.146448 0
0.000000 -0.000003 0
0.014610 0.166684 0
0.024262 0.219953 0
0.030057 0.239772 0
0.034067 0.245612 0
0.036782 0.240892 0
0.038226 0.226941 0
0.038385 0.205388 0
0.037285 0.178219 0
0.034991 0.147547 0
0.031586 0.115394 0
0.027128 0.083561 0
0.021605 0.053813 0
0.014896 0.028360 0
0.007597 0.008716 0
0.000782 -0.004870 0
-0.004153 -0.012383 0
-0.007242 -0.014861 0
-0.008959 -0.014159 0
-0.009497 -0.011518 0
-0.008989 -0.007630 0
-0.007489 -0.003019 0
-0.005127 0.001601 0
-0.002392 0.005301 0
0.000498 0.007117 0
0.003813 0.006066 0
0.008354 0.000434 0
0.014754 -0.011239 0
0.021474 -0.028218 0
0.027177 -0.048797 0
0.031401 -0.071836 0
0.034092 -0.096676 0
0.035265 -0.122855 0
0.034918 -0.150004 0
0.033033 -0.177881 0
0.029606 -0.206485 0
0.024666 -0.236241 0
0.018271 -0.268515 0
0.010555 -0.304792 0
0.002673 -0.307588 0
-0.000036 0.000010 0
0.000000 0.145574 0
0.000000 -0.000002 0
0.018025 0.152637 0
0.031591 0.210451 0
0.040485 0.233514 0
0.046809 0.241244 0
0.051254 0.238109 0
0.053879 0.225742 0
0.054648 0.205777 0
0.053574 0.180150 0
0.050736 0.150932 0
0.046255 0.120141 0
0.040260 0.089610 0
0.032854 0.061118 0
0.024236 0.036538 0
0.015143 0.017057 0
0.006306 0.002359 0
-0.001356 -0.007331 0
-0.006416 -0.011776 0
-0.009363 -0.012542 0
-0.010755 -0.011142 0
-0.010856 -0.008379 0
-0.009749 -0.004839 0
-0.007476 -0.001100 0
-0.004178 0.001987 0
0.000111 0.003159 0
0.005651 0.000861 0
0.012820 -0.006396 0
0.020778 -0.018674 0
0.028148 -0.034861 0
0.034222 -0.054033 0
0.038757 -0.075505 0
0.041667 -0.098745 0
0.042889 -0.123298 0
0.042366 -0.148789 0
0.040059 -0.174995 0
0.035971 -0.201945 0
0.030150 -0.230105 0
0.022691 -0.260898 0
0.013766 -0.296327 0
0.004460 -0.301483 0
-0.000035 0.000009 0
0.000000 0.143774 0
0.000000 -0.000001 0
0.020859 0.135093 0
0.038101 0.197493 0
0.050076 0.224554 0
0.058739 0.234843 0
0.064983 0.233822 0
0.068953 0.223547 0
0.070608 0.205693 0
0.069948 0.182132 0
0.067063 0.154866 0
0.062115 0.125871 0
0.055317 0.096962 0
0.046914 0.069837 0
0.037316 0.046071 0
0.027286 0.026646 0
0.017558 0.011629 0
0.008353 0.000339 0
0.000860 -0.006855 0
-0.003797 -0.009821 0
-0.006273 -0.010025 0
-0.007004 -0.008636 0
-0.006201 -0.006399 0
-0.003896 -0.003969 0
0.000000 -0.002286 0
0.005588 -0.002712 0
0.012818 -0.006643 0
0.021138 -0.014693 0
0.029349 -0.026567 0
0.036695 -0.041663 0
0.042750 -0.059406 0
0.047277 -0.079281 0
0.050105 -0.100808 0
0.051099 -0.123554 0
0.050158 -0.147174 0
0.047234 -0.171487 0
0.042335 -0.196576 0
0.035530 -0.222961 0
0.026951 -0.252131 0
0.016805 -0.286560 0
0.006129 -0.293822 0
-0.000034 0.000009 0
0.000000 0.141114 0
0.000000 0.000000 0
0.022880 0.114537 0
0.043419 0.181234 0
0.058445 0.212876 0
0.069533 0.226337 0
0.077703 0.227895 0
0.083215 0.220117 0
0.086058 0.204782 0
0.086226 0.183695 0
0.083817 0.158766 0
0.079031 0.131887 0
0.072157 0.104811 0
0.063557 0.079119 0
0.053753 0.056166 0
0.043478 0.036815 0
0.033438 0.021292 0
0.024121 0.009367 0
0.015612 0.000374 0
0.009007 -0.005409 0
0.005102 -0.007934 0
0.003523 -0.008450 0
0.003971 -0.007948 0
0.006344 -0.007301 0
0.010660 -0.007497 0