# vtk DataFile Version 2.0
generated by CFD-lab course output (written by Tobias Neckel) 
ASCII

DATASET STRUCTURED_GRID
DIMENSIONS  42 42 1 
POINTS 1764 float

0.150000 0.150000 0
0.167857 0.150000 0
0.185714 0.150000 0
0.203571 0.150000 0
0.221429 0.150000 0
0.239286 0.150000 0
0.257143 0.150000 0
0.275000 0.150000 0
0.292857 0.150000 0
0.310714 0.150000 0
0.328571 0.150000 0
0.346429 0.150000 0
0.364286 0.150000 0
0.382143 0.150000 0
0.400000 0.150000 0
0.417857 0.150000 0
0.435714 0.150000 0
0.453571 0.150000 0
0.471429 0.150000 0
0.489286 0.150000 0
0.507143 0.150000 0
0.525000 0.150000 0
0.542857 0.150000 0
0.560714 0.150000 0
0.578571 0.150000 0
0.596429 0.150000 0
0.614286 0.150000 0
0.632143 0.150000 0
0.650000 0.150000 0
0.667857 0.150000 0
0.685714 0.150000 0
0.703571 0.150000 0
0.721429 0.150000 0
0.739286 0.150000 0
0.757143 0.150000 0
0.775000 0.150000 0
0.792857 0.150000 0
0.810714 0.150000 0
0.828571 0.150000 0
0.846429 0.150000 0
0.864286 0.150000 0
0.882143 0.150000 0
0.150000 0.167857 0
0.167857 0.167857 0
0.185714 0.167857 0
0.203571 0.167857 0
0.221429 0.167857 0
0.239286 0.167857 0
0.257143 0.167857 0
0.275000 0.167857 0
0.292857 0.167857 0
0.310714 0.167857 0
0.328571 0.167857 0
0.346429 0.167857 0
0.364286 0.167857 0
0.382143 0.167857 0
0.400000 0.167857 0
0.417857 0.167857 0
0.435714 0.167857 0
0.453571 0.167857 0
0.471429 0.167857 0
0.489286 0.167857 0
0.507143 0.167857 0
0.525000 0.167857 0
0.542857 0.167857 0
0.560714 0.167857 0
0.578571 0.167857 0
0.596429 0.167857 0
0.614286 0.167857 0
0.632143 0.167857 0
0.650000 0.167857 0
0.667857 0.167857 0
0.685714 0.167857 0
0.703571 0.167857 0
0.721429 0.167857 0
0.739286 0.167857 0
0.757143 0.167857 0
0.775000 0.167857 0
0.792857 0.167857 0
0.810714 0.167857 0
0.828571 0.167857 0
0.846429 0.167857 0
0.864286 0.167857 0
0.882143 0.167857 0
0.150000 0.185714 0
0.167857 0.185714 0
0.185714 0.185714 0
0.203571 0.185714 0
0.221429 0.185714 0
0.239286 0.185714 0
0.257143 0.185714 0
0.275000 0.185714 0
0.292857 0.185714 0
0.310714 0.185714 0
0.328571 0.185714 0
0.346429 0.185714 0
0.364286 0.185714 0
0.382143 0.185714 0
0.400000 0.185714 0
0.417857 0.185714 0
0.435714 0.185714 0
0.453571 0.185714 0
0.471429 0.185714 0
0.489286 0.185714 0
0.507143 0.185714 0
0.525000 0.185714 0
0.542857 0.185714 0
0.560714 0.185714 0
0.578571 0.185714 0
0.596429 0.185714 0
0.614286 0.185714 0
0.632143 0.185714 0
0.650000 0.185714 0
0.667857 0.185714 0
0.685714 0.185714 0
0.703571 0.185714 0
0.721429 0.185714 0
0.739286 0.185714 0
0.757143 0.185714 0
0.775000 0.185714 0
0.792857 0.185714 0
0.810714 0.185714 0
0.828571 0.185714 0
0.846429 0.185714 0
0.864286 0.185714 0
0.882143 0.185714 0
0.150000 0.203571 0
0.167857 0.203571 0
0.185714 0.203571 0
0.203571 0.203571 0
0.221429 0.203571 0
0.239286 0.203571 0
0.257143 0.203571 0
0.275000 0.203571 0
0.292857 0.203571 0
0.310714 0.203571 0
0.328571 0.203571 0
0.346429 0.203571 0
0.364286 0.203571 0
0.382143 0.203571 0
0.400000 0.203571 0
0.417857 0.203571 0
0.435714 0.203571 0
0.453571 0.203571 0
0.471429 0.203571 0
0.489286 0.203571 0
0.507143 0.203571 0
0.525000 0.203571 0
0.542857 0.203571 0
0.560714 0.203571 0
0.578571 0.203571 0
0.596429 0.203571 0
0.614286 0.203571 0
0.632143 0.203571 0
0.650000 0.203571 0
0.667857 0.203571 0
0.685714 0.203571 0
0.703571 0.203571 0
0.721429 0.203571 0
0.739286 0.203571 0
0.757143 0.203571 0
0.775000 0.203571 0
0.792857 0.203571 0
0.810714 0.203571 0
0.828571 0.203571 0
0.846429 0.203571 0
0.864286 0.203571 0
0.882143 0.203571 0
0.150000 0.221429 0
0.167857 0.221429 0
0.185714 0.221429 0
0.203571 0.221429 0
0.221429 0.221429 0
0.239286 0.221429 0
0.257143 0.221429 0
0.275000 0.221429 0
0.292857 0.221429 0
0.310714 0.221429 0
0.328571 0.221429 0
0.346429 0.221429 0
0.364286 0.221429 0
0.382143 0.221429 0
0.400000 0.221429 0
0.417857 0.221429 0
0.435714 0.221429 0
0.453571 0.221429 0
0.471429 0.221429 0
0.489286 0.221429 0
0.507143 0.221429 0
0.525000 0.221429 0
0.542857 0.221429 0
0.560714 0.221429 0
0.578571 0.221429 0
0.596429 0.221429 0
0.614286 0.221429 0
0.632143 0.221429 0
0.650000 0.221429 0
0.667857 0.221429 0
0.685714 0.221429 0
0.703571 0.221429 0
0.721429 0.221429 0
0.739286 0.221429 0
0.757143 0.221429 0
0.775000 0.221429 0
0.792857 0.221429 0
0.810714 0.221429 0
0.828571 0.221429 0
0.846429 0.221429 0
0.864286 0.221429 0
0.882143 0.221429 0
0.150000 0.239286 0
0.167857 0.239286 0
0.185714 0.239286 0
0.203571 0.239286 0
0.221429 0.239286 0
0.239286 0.239286 0
0.257143 0.239286 0
0.275000 0.239286 0
0.292857 0.239286 0
0.310714 0.239286 0
0.328571 0.239286 0
0.346429 0.239286 0
0.364286 0.239286 0
0.382143 0.239286 0
0.400000 0.239286 0
0.417857 0.239286 0
0.435714 0.239286 0
0.453571 0.239286 0
0.471429 0.239286 0
0.489286 0.239286 0
0.507143 0.239286 0
0.525000 0.239286 0
0.542857 0.239286 0
0.560714 0.239286 0
0.578571 0.239286 0
0.596429 0.239286 0
0.614286 0.239286 0
0.632143 0.239286 0
0.650000 0.239286 0
0.667857 0.239286 0
0.685714 0.239286 0
0.703571 0.239286 0
0.721429 0.239286 0
0.739286 0.239286 0
0.757143 0.239286 0
0.775000 0.239286 0
0.792857 0.239286 0
0.810714 0.239286 0
0.828571 0.239286 0
0.846429 0.239286 0
0.864286 0.239286 0
0.882143 0.239286 0
0.150000 0.257143 0
0.167857 0.257143 0
0.185714 0.257143 0
0.203571 0.257143 0
0.221429 0.257143 0
0.239286 0.257143 0
0.257143 0.257143 0
0.275000 0.257143 0
0.292857 0.257143 0
0.310714 0.257143 0
0.328571 0.257143 0
0.346429 0.257143 0
0.364286 0.257143 0
0.382143 0.257143 0
0.400000 0.257143 0
0.417857 0.257143 0
0.435714 0.257143 0
0.453571 0.257143 0
0.471429 0.257143 0
0.489286 0.257143 0
0.507143 0.257143 0
0.525000 0.257143 0
0.542857 0.257143 0
0.560714 0.257143 0
0.578571 0.257143 0
0.596429 0.257143 0
0.614286 0.257143 0
0.632143 0.257143 0
0.650000 0.257143 0
0.667857 0.257143 0
0.685714 0.257143 0
0.703571 0.257143 0
0.721429 0.257143 0
0.739286 0.257143 0
0.757143 0.257143 0
0.775000 0.257143 0
0.792857 0.257143 0
0.810714 0.257143 0
0.828571 0.257143 0
0.846429 0.257143 0
0.864286 0.257143 0
0.882143 0.257143 0
0.150000 0.275000 0
0.167857 0.275000 0
0.185714 0.275000 0
0.203571 0.275000 0
0.221429 0.275000 0
0.239286 0.275000 0
0.257143 0.275000 0
0.275000 0.275000 0
0.292857 0.275000 0
0.310714 0.275000 0
0.328571 0.275000 0
0.346429 0.275000 0
0.364286 0.275000 0
0.382143 0.275000 0
0.400000 0.275000 0
0.417857 0.275000 0
0.435714 0.275000 0
0.453571 0.275000 0
0.471429 0.275000 0
0.489286 0.275000 0
0.507143 0.275000 0
0.525000 0.275000 0
0.542857 0.275000 0
0.560714 0.275000 0
0.578571 0.275000 0
0.596429 0.275000 0
0.614286 0.275000 0
0.632143 0.275000 0
0.650000 0.275000 0
0.667857 0.275000 0
0.685714 0.275000 0
0.703571 0.275000 0
0.721429 0.275000 0
0.739286 0.275000 0
0.757143 0.275000 0
0.775000 0.275000 0
0.792857 0.275000 0
0.810714 0.275000 0
0.828571 0.275000 0
0.846429 0.275000 0
0.864286 0.275000 0
0.882143 0.275000 0
0.150000 0.292857 0
0.167857 0.292857 0
0.185714 0.292857 0
0.203571 0.292857 0
0.221429 0.292857 0
0.239286 0.292857 0
0.257143 0.292857 0
0.275000 0.292857 0
0.292857 0.292857 0
0.310714 0.292857 0
0.328571 0.292857 0
0.346429 0.292857 0
0.364286 0.292857 0
0.382143 0.292857 0
0.400000 0.292857 0
0.417857 0.292857 0
0.435714 0.292857 0
0.453571 0.292857 0
0.471429 0.292857 0
0.489286 0.292857 0
0.507143 0.292857 0
0.525000 0.292857 0
0.542857 0.292857 0
0.560714 0.292857 0
0.578571 0.292857 0
0.596429 0.292857 0
0.614286 0.292857 0
0.632143 0.292857 0
0.650000 0.292857 0
0.667857 0.292857 0
0.685714 0.292857 0
0.703571 0.292857 0
0.721429 0.292857 0
0.739286 0.292857 0
0.757143 0.292857 0
0.775000 0.292857 0
0.792857 0.292857 0
0.810714 0.292857 0
0.828571 0.292857 0
0.846429 0.292857 0
0.864286 0.292857 0
0.882143 0.292857 0
0.150000 0.310714 0
0.167857 0.310714 0
0.185714 0.310714 0
0.203571 0.310714 0
0.221429 0.310714 0
0.239286 0.310714 0
0.257143 0.310714 0
0.275000 0.310714 0
0.292857 0.310714 0
0.310714 0.310714 0
0.328571 0.310714 0
0.346429 0.310714 0
0.364286 0.310714 0
0.382143 0.310714 0
0.400000 0.310714 0
0.417857 0.310714 0
0.435714 0.310714 0
0.453571 0.310714 0
0.471429 0.310714 0
0.489286 0.310714 0
0.507143 0.310714 0
0.525000 0.310714 0
0.542857 0.310714 0
0.560714 0.310714 0
0.578571 0.310714 0
0.596429 0.310714 0
0.614286 0.310714 0
0.632143 0.310714 0
0.650000 0.310714 0
0.667857 0.310714 0
0.685714 0.310714 0
0.703571 0.310714 0
0.721429 0.310714 0
0.739286 0.310714 0
0.757143 0.310714 0
0.775000 0.310714 0
0.792857 0.310714 0
0.810714 0.310714 0
0.828571 0.310714 0
0.846429 0.310714 0
0.864286 0.310714 0
0.882143 0.310714 0
0.150000 0.328571 0
0.167857 0.328571 0
0.185714 0.328571 0
0.203571 0.328571 0
0.221429 0.328571 0
0.239286 0.328571 0
0.257143 0.328571 0
0.275000 0.328571 0
0.292857 0.328571 0
0.310714 0.328571 0
0.328571 0.328571 0
0.346429 0.328571 0
0.364286 0.328571 0
0.382143 0.328571 0
0.400000 0.328571 0
0.417857 0.328571 0
0.435714 0.328571 0
0.453571 0.328571 0
0.471429 0.328571 0
0.489286 0.328571 0
0.507143 0.328571 0
0.525000 0.328571 0
0.542857 0.328571 0
0.560714 0.328571 0
0.578571 0.328571 0
0.596429 0.328571 0
0.614286 0.328571 0
0.632143 0.328571 0
0.650000 0.328571 0
0.667857 0.328571 0
0.685714 0.328571 0
0.703571 0.328571 0
0.721429 0.328571 0
0.739286 0.328571 0
0.757143 0.328571 0
0.775000 0.328571 0
0.792857 0.328571 0
0.810714 0.328571 0
0.828571 0.328571 0
0.846429 0.328571 0
0.864286 0.328571 0
0.882143 0.328571 0
0.150000 0.346429 0
0.167857 0.346429 0
0.185714 0.346429 0
0.203571 0.346429 0
0.221429 0.346429 0
0.239286 0.346429 0
0.257143 0.346429 0
0.275000 0.346429 0
0.292857 0.346429 0
0.310714 0.346429 0
0.328571 0.346429 0
0.346429 0.346429 0
0.364286 0.346429 0
0.382143 0.346429 0
0.400000 0.346429 0
0.417857 0.346429 0
0.435714 0.346429 0
0.453571 0.346429 0
0.471429 0.346429 0
0.489286 0.346429 0
0.507143 0.346429 0
0.525000 0.346429 0
0.542857 0.346429 0
0.560714 0.346429 0
0.578571 0.346429 0
0.596429 0.346429 0
0.614286 0.346429 0
0.632143 0.346429 0
0.650000 0.346429 0
[...]
POINT_DATA 1764 

VECTORS velocity float
0.000000 0.000000 0
-0.000002 0.000000 0
-0.000003 0.000000 0
0.000000 0.000000 0
-0.000003 0.000000 0
-0.000007 0.000000 0
0.000016 0.000000 0
0.000031 0.000000 0
0.000035 0.000000 0
0.000038 0.000000 0
0.000039 0.000000 0
0.000038 0.000000 0
0.000037 0.000000 0
0.000035 0.000000 0
0.000032 0.000000 0
0.000030 0.000000 0
0.000027 0.000000 0
0.000025 0.000000 0
0.000024 0.000000 0
0.000022 0.000000 0
0.000021 0.000000 0
0.000021 0.000000 0
0.000021 0.000000 0
0.000020 0.000000 0
0.000021 0.000000 0
0.000021 0.000000 0
0.000021 0.000000 0
0.000022 0.000000 0
0.000022 0.000000 0
0.000023 0.000000 0
0.000024 0.000000 0
0.000025 0.000000 0
0.000026 0.000000 0
0.000027 0.000000 0
0.000028 0.000000 0
0.000029 0.000000 0
0.000028 0.000000 0
0.000026 0.000000 0
0.000021 0.000000 0
0.000012 0.000000 0
0.000000 0.000000 0
0.000000 0.000000 0
0.000000 0.000002 0
0.059445 -0.054475 0
0.090618 -0.021396 0
0.098321 0.005576 0
0.072953 0.004917 0
0.033009 0.005013 0
-0.016945 0.039152 0
-0.080972 0.068269 0
-0.150185 0.072961 0
-0.217007 0.068850 0
-0.278347 0.063023 0
-0.332529 0.055837 0
-0.379107 0.048395 0
-0.418385 0.041343 0
-0.451102 0.035056 0
-0.478184 0.029683 0
-0.500567 0.025211 0
-0.519086 0.021527 0
-0.534437 0.018488 0
-0.547159 0.015943 0
-0.557645 0.013754 0
-0.566161 0.011799 0
-0.572862 0.009977 0
-0.577805 0.008172 0
-0.580945 0.006268 0
-0.582145 0.004158 0
-0.581168 0.001718 0
-0.577804 -0.001149 0
-0.571662 -0.004552 0
-0.562222 -0.008636 0
-0.548782 -0.013632 0
-0.530400 -0.019857 0
-0.505852 -0.027665 0
-0.473575 -0.037456 0
-0.431649 -0.049583 0
-0.377887 -0.064119 0
-0.310224 -0.080208 0
-0.227880 -0.094613 0
-0.134294 -0.097344 0
-0.044349 -0.055866 0
-0.000015 0.000012 0
0.000000 0.008925 0
0.000000 0.000002 0
0.028178 -0.090618 0
0.034644 -0.038876 0
0.009734 0.017664 0
-0.032261 0.065312 0
-0.106370 0.089899 0
-0.180976 0.113981 0
-0.241513 0.133240 0
-0.296864 0.136036 0
-0.348756 0.128161 0
-0.394284 0.115521 0
-0.432827 0.100761 0
-0.464530 0.085856 0
-0.490070 0.071995 0
-0.510344 0.059799 0
-0.526277 0.049464 0
-0.538697 0.040902 0
-0.548300 0.033871 0
-0.555622 0.028073 0
-0.561058 0.023208 0
-0.564878 0.019002 0
-0.567243 0.015217 0
-0.568230 0.011644 0
-0.567831 0.008083 0
-0.565998 0.004340 0
-0.562620 0.000224 0
-0.557616 -0.004341 0
-0.550780 -0.009506 0
-0.541808 -0.015583 0
-0.530298 -0.022880 0
-0.515687 -0.031822 0
-0.497281 -0.042930 0
-0.474185 -0.056825 0
-0.445269 -0.074203 0
-0.409132 -0.095688 0
-0.364110 -0.121425 0
-0.308446 -0.150008 0
-0.240813 -0.175931 0
-0.161921 -0.183531 0
-0.077491 -0.134294 0
-0.000197 0.000021 0
0.000000 0.044370 0
0.000000 -0.000002 0
-0.019476 -0.089119 0
-0.053983 -0.002951 0
-0.105872 0.072481 0
-0.155186 0.121022 0
-0.210667 0.153729 0
-0.267095 0.174294 0
-0.313568 0.184157 0
-0.351705 0.180204 0
-0.383578 0.166270 0
-0.409161 0.147094 0
-0.429034 0.126082 0
-0.444050 0.105638 0
-0.455199 0.087156 0
-0.463411 0.071263 0
-0.469458 0.058037 0
-0.473916 0.047234 0
-0.477193 0.038452 0
-0.479546 0.031247 0
-0.481123 0.025199 0
-0.481990 0.019940 0
-0.482147 0.015152 0
-0.481551 0.010565 0
-0.480123 0.005940 0
-0.477775 0.001056 0
-0.474413 -0.004224 0
-0.469951 -0.010123 0
-0.464081 -0.016957 0
-0.456554 -0.025033 0
-0.447043 -0.034757 0
-0.435159 -0.046648 0
-0.420435 -0.061358 0
-0.402296 -0.079677 0
-0.380027 -0.102509 0
-0.352723 -0.130742 0
-0.319188 -0.164805 0
-0.277788 -0.203505 0
-0.226279 -0.241139 0
-0.161954 -0.260666 0
-0.083242 -0.217787 0
-0.000329 0.000027 0
0.000000 0.086431 0
0.000000 -0.000009 0
-0.058667 -0.036635 0
-0.118920 0.047519 0
-0.166530 0.118868 0
-0.214000 0.170107 0
-0.258187 0.201808 0
-0.297995 0.216881 0
-0.328666 0.217849 0
-0.350716 0.206046 0
-0.365959 0.185618 0
-0.375758 0.160977 0
-0.381550 0.135650 0
-0.384652 0.112022 0
-0.386168 0.091356 0
-0.386905 0.074058 0
-0.387373 0.059969 0
-0.387840 0.048637 0
-0.388397 0.039500 0
-0.389025 0.032003 0
-0.389638 0.025652 0
-0.390112 0.020026 0
-0.390305 0.014778 0
-0.390068 0.009620 0
-0.389251 0.004306 0
-0.387718 -0.001370 0
-0.385349 -0.007600 0
-0.381907 -0.014673 0
-0.377229 -0.022904 0
-0.371117 -0.032621 0
-0.363352 -0.044275 0
-0.353683 -0.058429 0
-0.341826 -0.075793 0
-0.327462 -0.097233 0
-0.310219 -0.123776 0
-0.289633 -0.156528 0
-0.264999 -0.196360 0
-0.235015 -0.242917 0
-0.197090 -0.291764 0
-0.146559 -0.326567 0
-0.077957 -0.296248 0
-0.000402 0.000031 0
0.000000 0.127622 0
0.000000 -0.000017 0
-0.071584 0.029802 0
-0.134366 0.104911 0
-0.186076 0.167561 0
-0.229660 0.212679 0
-0.264962 0.237724 0
-0.292100 0.244774 0
-0.309891 0.236878 0
-0.319484 0.217496 0
-0.322890 0.191311 0
-0.322124 0.162685 0
-0.319053 0.134977 0
-0.315170 0.110256 0
-0.311513 0.089409 0
-0.308670 0.072468 0
-0.306862 0.058972 0
-0.306062 0.048258 0
-0.306101 0.039637 0
-0.306743 0.032488 0
-0.307733 0.026286 0
-0.308815 0.020607 0
-0.309754 0.015108 0
-0.310330 0.009511 0
-0.310350 0.003590 0
-0.309643 -0.002846 0
-0.308051 -0.010035 0
-0.305397 -0.018243 0
-0.301580 -0.027747 0
-0.296468 -0.038910 0
-0.289924 -0.052191 0
-0.281792 -0.068174 0
-0.271902 -0.087580 0
-0.260080 -0.111284 0
-0.246160 -0.140338 0
-0.229977 -0.175962 0
-0.211265 -0.219423 0
-0.189279 -0.271415 0
-0.161859 -0.329595 0
-0.123888 -0.379799 0
-0.067661 -0.364346 0
-0.000421 0.000032 0
0.000000 0.164392 0
0.000000 -0.000019 0
-0.069573 0.097731 0
-0.130378 0.162011 0
-0.180209 0.214162 0
-0.218822 0.248993 0
-0.246694 0.264248 0
-0.264600 0.261810 0
-0.273177 0.245233 0
-0.274268 0.219044 0
-0.270188 0.188258 0
-0.263251 0.157140 0
-0.255460 0.128696 0
-0.248277 0.104482 0
-0.242567 0.084857 0
-0.238662 0.069406 0
-0.236523 0.057361 0
-0.235895 0.047876 0
-0.236425 0.040181 0
-0.237743 0.033635 0
-0.239493 0.027724 0
-0.241351 0.022047 0
-0.243032 0.016293 0
-0.244287 0.010216 0
-0.244909 0.003619 0
-0.244722 -0.003668 0
-0.243580 -0.011846 0
-0.241412 -0.021145 0
-0.238159 -0.031832 0
-0.233765 -0.044276 0
-0.228159 -0.058950 0
-0.221252 -0.076451 0
-0.212934 -0.097505 0
-0.203082 -0.122975 0
-0.191595 -0.153879 0
-0.178422 -0.191423 0
-0.163556 -0.237059 0
-0.146798 -0.292323 0
-0.126895 -0.357155 0
-0.099453 -0.420765 0
-0.055711 -0.420136 0
-0.000401 0.000032 0
0.000000 0.195285 0
0.000000 -0.000020 0
-0.060571 0.160180 0
-0.116195 0.215548 0
-0.160806 0.256005 0
-0.193694 0.279164 0
-0.215267 0.283502 0
-0.226571 0.271257 0
-0.229055 0.246546 0
-0.224942 0.214508 0
-0.216715 0.180294 0
-0.206761 0.147956 0
-0.197044 0.120003 0
-0.188884 0.097363 0
-0.182928 0.079794 0
-0.179276 0.066424 0
-0.177683 0.056204 0
-0.177741 0.048159 0
-0.178997 0.041485 0
-0.181014 0.035556 0
-0.183395 0.029895 0
-0.185792 0.024146 0
-0.187906 0.018043 0
-0.189487 0.011388 0
-0.190339 0.004025 0
-0.190314 -0.004175 0
-0.189310 -0.013345 0
-0.187333 -0.023664 0
-0.184397 -0.035395 0
-0.180521 -0.048910 0
-0.175707 -0.064703 0
-0.169922 -0.083399 0
-0.163086 -0.105749 0
-0.155086 -0.132623 0
-0.145803 -0.164999 0
-0.135174 -0.204001 0
-0.123255 -0.251047 0
-0.110172 -0.308076 0
-0.095581 -0.376939 0
-0.076460 -0.450983 0
-0.044040 -0.463799 0
-0.000357 0.000031 0
0.000000 0.220102 0
0.000000 -0.000020 0
-0.050048 0.213925 0
-0.097642 0.262246 0
-0.135444 0.291662 0
-0.162388 0.303454 0
-0.178662 0.297125 0
-0.185323 0.275598 0
-0.184059 0.243604 0
-0.177159 0.206704 0
-0.167085 0.170076 0
-0.156145 0.137470 0
-0.146170 0.110819 0
-0.138302 0.090367 0
-0.132980 0.075248 0
-0.130113 0.064161 0
-0.129320 0.055826 0
-0.130109 0.049190 0
-0.131986 0.043455 0
-0.134494 0.038033 0
-0.137233 0.032502 0
-0.139855 0.026557 0
-0.142068 0.019988 0
-0.143637 0.012650 0
-0.144387 0.004445 0
-0.144210 -0.004697 0
-0.143066 -0.014826 0
-0.141030 -0.026058 0
-0.138199 -0.038645 0
-0.134675 -0.052965 0
-0.130532 -0.069549 0
-0.125786 -0.089073 0
-0.120379 -0.112341 0
-0.114189 -0.140258 0
-0.107059 -0.173791 0
-0.098873 -0.213971 0
-0.089654 -0.262060 0
-0.079627 -0.319998 0
-0.069047 -0.390867 0
-0.056359 -0.472305 0
-0.033600 -0.496597 0
-0.000304 0.000030 0
0.000000 0.239323 0
0.000000 -0.000020 0
-0.039171 0.257822 0
-0.077923 0.300944 0
-0.108543 0.320751 0
-0.129812 0.322382 0
-0.141730 0.306438 0
-0.145215 0.276653 0
-0.141876 0.238382 0
-0.133841 0.197534 0
-0.123387 0.159280 0
-0.112647 0.127041 0
-0.103286 0.102160 0
-0.096278 0.084173 0
-0.091894 0.071605 0
-0.089904 0.062765 0
-0.089848 0.056200 0
-0.091205 0.050825 0
-0.093481 0.045870 0
-0.096230 0.040803 0
-0.099065 0.035256 0
-0.101652 0.028981 0
-0.103712 0.021826 0
-0.105026 0.013707 0
-0.105447 0.004598 0
-0.104906 -0.005496 0
-0.103434 -0.016524 0
-0.101178 -0.028530 0
-0.098312 -0.041750 0
-0.095021 -0.056577 0
-0.091446 -0.073593 0
-0.087650 -0.093553 0
-0.083588 -0.117346 0
-0.079119 -0.145943 0
-0.074044 -0.180315 0
-0.068203 -0.221406 0
-0.061578 -0.270293 0
-0.054388 -0.328682 0
-0.047152 -0.400208 0
-0.039482 -0.486430 0
-0.024710 -0.520158 0
-0.000251 0.000029 0
0.000000 0.253700 0
0.000000 -0.000018 0
-0.028626 0.291848 0
-0.058719 0.331618 0
-0.082471 0.343551 0
-0.098630 0.336641 0
-0.107070 0.312529 0
-0.108495 0.275744 0
-0.104262 0.232230 0
-0.096183 0.188216 0
-0.086237 0.148882 0
-0.076316 0.117368 0
-0.067927 0.094451 0
-0.061913 0.078975 0
-0.058421 0.068874 0
-0.057142 0.062115 0
-0.057588 0.057127 0
-0.059250 0.052823 0
-0.061662 0.048479 0
-0.064407 0.043618 0
-0.067122 0.037924 0
-0.069490 0.031204 0
-0.071248 0.023363 0
-0.072190 0.014384 0
-0.072187 0.004324 0
-0.071207 -0.006710 0
-0.069359 -0.018554 0
-0.066840 -0.031180 0
-0.063898 -0.044802 0
-0.060789 -0.059831 0
-0.057719 -0.076920 0
-0.054788 -0.096931 0
-0.051961 -0.120872 0
-0.049071 -0.149802 0
-0.045885 -0.184707 0
-0.042211 -0.226437 0
-0.038019 -0.275874 0
-0.033509 -0.334424 0
-0.029250 -0.405773 0
-0.025597 -0.494747 0
-0.017340 -0.536079 0
-0.000205 0.000028 0
0.000000 0.264031 0
0.000000 -0.000017 0
-0.018772 0.316541 0
-0.040806 0.354788 0
-0.058306 0.360662 0
-0.070036 0.346982 0
-0.075781 0.316302 0
-0.076005 0.273845 0
-0.071717 0.226070 0
-0.064319 0.179509 0
-0.055407 0.139413 0
-0.046597 0.108732 0
-0.039239 0.087757 0
-0.034095 0.074667 0
-0.031250 0.066834 0
-0.030372 0.061931 0
-0.030994 0.058309 0
-0.032653 0.054899 0
-0.034926 0.051027 0
-0.037438 0.046262 0
-0.039859 0.040339 0
-0.041898 0.033108 0
-0.043307 0.024525 0
-0.043891 0.014645 0
-0.043523 0.003615 0
-0.042172 -0.008324 0
-0.040034 -0.020891 0
-0.037323 -0.033992 0
-0.034352 -0.047801 0
-0.031440 -0.062757 0
-0.028844 -0.079594 0
-0.026697 -0.099310 0
-0.024968 -0.123063 0
-0.023472 -0.152019 0
-0.021950 -0.187175 0
-0.020202 -0.229272 0
-0.018208 -0.278994 0
-0.016171 -0.337452 0
-0.014616 -0.408120 0
-0.014260 -0.498340 0
-0.011305 -0.545755 0
-0.000167 0.000027 0
0.000000 0.271038 0
0.000000 -0.000015 0
-0.009717 0.332654 0
-0.024433 0.371152 0
-0.036355 0.372781 0
-0.044302 0.354116 0
-0.048003 0.318497 0
-0.047679 0.271680 0
-0.043953 0.220544 0
-0.037756 0.171906 0
-0.030240 0.131160 0
-0.022684 0.101200 0
-0.016261 0.081949 0
-0.011741 0.070986 0
-0.009217 0.065151 0
-0.008372 0.061859 0
-0.008810 0.059408 0
-0.010141 0.056755 0
-0.012004 0.053265 0
-0.014074 0.048551 0
-0.016059 0.042383 0
-0.017701 0.034652 0
-0.018779 0.025356 0
-0.019114 0.014600 0
-0.018570 0.002606 0
-0.017042 -0.010198 0
-0.014777 -0.023403 0
-0.012024 -0.036862 0
-0.009142 -0.050685 0
-0.006496 -0.065340 0
-0.004378 -0.081663 0
-0.002940 -0.100807 0
-0.002157 -0.124098 0
-0.001837 -0.152821 0
-0.001720 -0.187977 0
-0.001620 -0.230178 0
-0.001545 -0.279906 0
-0.001723 -0.338016 0
-0.002612 -0.407684 0
-0.005006 -0.498058 0
-0.006369 -0.550339 0
-0.000137 0.000026 0
0.000000 0.275334 0
0.000000 -0.000013 0
-0.001603 0.340974 0
-0.009500 0.381426 0
-0.016443 0.380531 0
-0.021159 0.358630 0
-0.023325 0.319680 0
-0.022949 0.269795 0
-0.020248 0.216147 0
-0.015626 0.165795 0
-0.009749 0.124340 0
-0.003567 0.094753 0
0.001883 0.076814 0
0.005952 0.067623 0
0.008509 0.063466 0
0.009719 0.061525 0
0.009844 0.060078 0
0.009175 0.058093 0
0.008000 0.054960 0
0.006586 0.050318 0
0.005180 0.043966 0
0.003997 0.035828 0
0.003226 0.025938 0
0.003042 0.014436 0
0.003617 0.001542 0
0.005094 -0.012117 0
0.007258 -0.025909 0
0.009811 -0.039627 0
0.012396 -0.053330 0
0.014642 -0.067520 0
0.016237 -0.083149 0
0.017007 -0.101531 0
0.016970 -0.124167 0
0.016314 -0.152456 0
0.015282 -0.187392 0
0.014020 -0.229447 0
0.012461 -0.278891 0
0.010344 -0.336385 0
0.007260 -0.404837 0
0.002566 -0.494583 0
-0.002276 -0.550761 0
-0.000115 0.000026 0
0.000000 0.277406 0
0.000000 -0.000012 0
0.005555 0.342154 0
0.004161 0.385992 0
0.001787 0.384440 0
-0.000019 0.360999 0
-0.000946 0.320287 0
-0.000813 0.268602 0
0.000523 0.213221 0
0.003148 0.161407 0
0.006963 0.119101 0
0.011457 0.089568 0
0.015858 0.072430 0
0.019660 0.064359 0
0.022579 0.061384 0
0.024511 0.060524 0
0.025539 0.059951 0
0.025841 0.058599 0
0.025624 0.055854 0
0.025098 0.051371 0
0.024453 0.044973 0
0.023859 0.036605 0
0.023471 0.026310 0
0.023462 0.014210 0
0.024044 0.000554 0
0.025257 -0.013839 0
0.027038 -0.028120 0
0.029128 -0.042000 0
0.031190 -0.055517 0
0.032854 -0.069181 0
0.033797 -0.084028 0
0.033842 -0.101540 0
0.033019 -0.123404 0
0.031523 -0.151133 0
0.029565 -0.185683 0
0.027208 -0.227357 0
0.024298 -0.276230 0
0.020521 -0.332814 0
0.015490 -0.399906 0
0.008711 -0.488522 0
0.001168 -0.547773 0
-0.000097 0.000025 0
0.000000 0.277608 0
0.000000 -0.000010 0
0.012073 0.336813 0
0.016806 0.385194 0
0.018757 0.384711 0
0.019725 0.361362 0
0.019965 0.320474 0
0.019761 0.268326 0
0.019512 0.212185 0
0.019722 0.159356 0
0.020908 0.116032 0
0.023247 0.085858 0
0.026499 0.068610 0
0.030138 0.060901 0
0.033583 0.058615 0
0.036449 0.058565 0
0.038616 0.058748 0
0.040127 0.058008 0
0.041106 0.055703 0
0.041697 0.051488 0
0.042040 0.045204 0
0.042256 0.036810 0
0.042463 0.026336 0
0.042799 0.013863 0
0.043417 -0.000253 0
0.044323 -0.015111 0
0.045579 -0.029780 0
0.047001 -0.043779 0
0.048278 -0.057056 0
0.049065 -0.070127 0
0.049086 -0.084137 0
0.048231 -0.100754 0
0.046583 -0.121848 0
0.044344 -0.149002 0
0.041650 -0.183076 0
0.038435 -0.224179 0
0.034422 -0.272204 0
0.029234 -0.327577 0
0.022491 -0.393027 0
0.013770 -0.480261 0
0.004043 -0.542050 0
-0.000083 0.000025 0
0.000000 0.276237 0
0.000000 -0.000009 0
0.018214 0.325348 0
0.028809 0.379307 0
0.034918 0.381520 0
0.038558 0.359791 0
0.039995 0.320252 0
0.039518 0.269055 0
0.037680 0.213259 0
0.035338 0.160011 0
0.033550 0.115577 0
0.033271 0.083976 0
0.034926 0.065539 0
0.038107 0.057276 0
0.041964 0.055073 0
0.045788 0.055491 0
0.049199 0.056274 0
0.052074 0.056109 0
0.054429 0.054284 0
0.056336 0.050437 0
0.057884 0.044414 0
0.059157 0.036182 0
0.060232 0.025767 0
0.061176 0.013256 0
0.062022 -0.000970 0
0.062786 -0.016001 0
0.063501 -0.030799 0
0.064042 -0.044699 0
0.064189 -0.057580 0
0.063725 -0.069989 0
0.062518 -0.083194 0
0.060592 -0.099037 0
0.058113 -0.119518 0
0.055255 -0.146200 0
0.052018 -0.179773 0
0.048150 -0.220129 0
0.043229 -0.267029 0
0.036815 -0.320883 0
0.028544 -0.384442 0
0.018097 -0.470074 0
0.006456 -0.534003 0
-0.000074 0.000024 0
0.000000 0.273564 0
0.000000 -0.000008 0
0.024089 0.308004 0
0.040391 0.368489 0
0.050589 0.374962 0
0.056878 0.356286 0
0.059627 0.319514 0
0.059112 0.270641 0
0.055958 0.216365 0
0.051234 0.163486 0
0.046391 0.118099 0
0.043043 0.084481 0
0.042367 0.063774 0
0.044387 0.053863 0
0.048188 0.050934 0
0.052731 0.051330 0
0.057309 0.052462 0
0.061566 0.052779 0
0.065371 0.051442 0
0.068708 0.048033 0
0.071605 0.042384 0
0.074102 0.034463 0
0.076235 0.024317 0
0.077995 0.012073 0
0.079310 -0.001863 0
0.080071 -0.016591 0
0.080234 -0.031037 0
0.079743 -0.044467 0
0.078543 -0.056739 0
0.076623 -0.068456 0
0.074072 -0.081004 0
0.071097 -0.096349 0
0.067938 -0.116512 0
0.064682 -0.142907 0
0.061119 -0.175971 0
0.056775 -0.215390 0
0.051090 -0.260869 0
0.043578 -0.312892 0
0.033910 -0.374309 0
0.021876 -0.458173 0
0.008539 -0.523953 0
-0.000068 0.000023 0
0.000000 0.269780 0
0.000000 -0.000007 0
0.029689 0.284957 0
0.051595 0.352807 0
0.065897 0.365034 0
0.074906 0.350753 0
0.079182 0.318018 0
0.079018 0.272724 0
0.075052 0.221138 0
0.068428 0.169579 0
0.060791 0.123767 0
0.054149 0.088000 0
0.050339 0.064195 0
0.050134 0.051455 0
0.052964 0.046728 0
0.057611 0.046371 0
0.062998 0.047439 0
0.068451 0.048046 0
0.073624 0.047142 0
0.078364 0.044204 0
0.082615 0.039019 0
0.086353 0.031551 0
0.089551 0.021875 0
0.092123 0.010182 0
0.093909 -0.003046 0
0.094671 -0.016925 0
0.094305 -0.030470 0
0.092829 -0.043009 0
0.090363 -0.054460 0
0.087137 -0.065519 0
0.083494 -0.077668 0
0.079820 -0.092902 0
0.076370 -0.113102 0
0.073053 -0.139381 0
0.069395 -0.171867 0
0.064712 -0.210100 0
0.058340 -0.253831 0
0.049795 -0.303704 0
0.038799 -0.362739 0
0.025270 -0.444703 0
0.010385 -0.512127 0
-0.000064 0.000022 0
0.000000 0.265024 0
0.000000 -0.000006 0
0.034880 0.256409 0
0.062252 0.332281 0
0.080731 0.351651 0
0.092616 0.343002 0
0.098726 0.315402 0
0.099423 0.274771 0
0.095325 0.226955 0
0.087554 0.177747 0
0.077762 0.132378 0
0.068057 0.094932 0
0.060638 0.067788 0
0.057061 0.051238 0
0.057565 0.043457 0
0.061188 0.041296 0
0.066602 0.041622 0
0.072746 0.042154 0
0.078963 0.041528 0
0.084890 0.039041 0
0.090328 0.034394 0
0.095155 0.027528 0
0.099254 0.018547 0
0.102460 0.007715 0
0.104537 -0.004410 0
0.105209 -0.016987 0
0.104376 -0.029195 0
0.102142 -0.040525 0
0.098796 -0.051047 0
0.094802 -0.061586 0
0.090722 -0.073687 0
0.087035 -0.089225 0
0.083874 -0.109744 0
0.080879 -0.135933 0
0.077314 -0.167630 0
0.072346 -0.204335 0
0.065287 -0.245952 0
0.055697 -0.293351 0
0.043383 -0.349784 0
0.028396 -0.429758 0
0.012063 -0.498684 0
-0.000062 0.000022 0
0.000000 0.259394 0
0.000000 -0.000004 0
0.039370 0.222704 0
0.071941 0.306956 0
0.094676 0.334670 0
0.109679 0.332757 0
0.118018 0.311211 0
0.120168 0.276126 0
0.116728 0.233007 0
0.108742 0.187142 0
0.097752 0.143264 0
0.085750 0.105124 0
0.074946 0.075191 0
0.067341 0.054527 0
0.064097 0.042602 0
0.065075 0.037334 0
0.069149 0.035881 0
0.074990 0.035684 0
0.081556 0.034998 0
0.088173 0.032839 0
0.094421 0.028754 0
0.100020 0.022625 0
0.104738 0.014570 0
0.108330 0.004898 0
0.110505 -0.005795 0
0.111036 -0.016764 0
0.109901 -0.027403 0
0.107323 -0.037428 0
0.103769 -0.047120 0
0.099887 -0.057445 0
0.096333 -0.069902 0
0.093482 -0.086054 0
0.091188 -0.106947 0
0.088786 -0.132821 0
0.085358 -0.163334 0
0.080039 -0.198073 0
0.072192 -0.237182 0
0.061472 -0.281799 0
0.047787 -0.335438 0
0.031338 -0.413384 0
0.013625 -0.483731 0
-0.000061 0.000021 0
0.000000 0.252959 0
0.000000 -0.000003 0
0.042724 0.184468 0
0.079966 0.276975 0
0.106980 0.313913 0
0.125415 0.319660 0
0.136469 0.304913 0
0.140731 0.276060 0
0.138791 0.238381 0
0.131596 0.196723 0
0.120538 0.155370 0
0.107397 0.117738 0
0.094182 0.086197 0
0.082902 0.062087 0
0.075234 0.045723 0
0.072009 0.036244 0
0.072913 0.031708 0
0.076833 0.029746 0
0.082500 0.028345 0
0.088886 0.026177 0
0.095260 0.022547 0
0.101118 0.017210 0
0.106071 0.010238 0
0.109783 0.001948 0
0.111952 -0.007117 0
0.112460 -0.016382 0
0.111417 -0.025482 0
0.109197 -0.034393 0
0.106405 -0.043610 0
0.103739 -0.054150 0
0.101716 -0.067283 0
0.100390 -0.084080 0
0.099259 -0.105048 0
0.097440 -0.130103 0
0.093979 -0.158883 0
0.088089 -0.191169 0
0.079252 -0.227385 0
0.067247 -0.268946 0
0.052088 -0.319650 0
0.034140 -0.395596 0
0.015096 -0.467345 0
-0.000061 0.000020 0
0.000000 0.245767 0
0.000000 -0.000002 0
0.044300 0.142738 0
0.085277 0.242700 0
0.116491 0.289221 0
0.138766 0.303268 0
0.153144 0.295895 0
0.160245 0.273804 0
0.160659 0.242141 0
0.155253 0.205396 0
0.145271 0.167464 0
0.132288 0.131479 0
0.118064 0.099686 0
0.104397 0.073475 0
0.092973 0.053494 0
0.085124 0.039655 0
0.081438 0.031057 0
0.081583 0.026097 0
0.084580 0.022946 0
0.089279 0.020079 0
0.094678 0.016521 0
0.100002 0.011815 0
0.104671 0.005905 0
0.108242 -0.000983 0
0.110458 -0.008472 0
0.111321 -0.016230 0
0.111067 -0.024140 0
0.110169 -0.032416 0
0.109219 -0.041663 0
0.108718 -0.052756 0
0.108813 -0.066552 0