# vtk DataFile Version 2.0
generated by CFD-lab course output (written by Tobias Neckel) 
ASCII

DATASET STRUCTURED_GRID
DIMENSIONS  42 42 1 
POINTS 1764 float

0.150000 0.150000 0
0.167857 0.150000 0
0.185714 0.150000 0
0.203571 0.150000 0
0.221429 0.150000 0
0.239286 0.150000 0
0.257143 0.150000 0
0.275000 0.150000 0
0.292857 0.150000 0
0.310714 0.150000 0
0.328571 0.150000 0
0.346429 0.150000 0
0.364286 0.150000 0
0.382143 0.150000 0
0.400000 0.150000 0
0.417857 0.150000 0
0.435714 0.150000 0
0.453571 0.150000 0
0.471429 0.150000 0
0.489286 0.150000 0
0.507143 0.150000 0
0.525000 0.150000 0
0.542857 0.150000 0
0.560714 0.150000 0
0.578571 0.150000 0
0.596429 0.150000 0
0.614286 0.150000 0
0.632143 0.150000 0
0.650000 0.150000 0
0.667857 0.150000 0
0.685714 0.150000 0
0.703571 0.150000 0
0.721429 0.150000 0
0.739286 0.150000 0
0.757143 0.150000 0
0.775000 0.150000 0
0.792857 0.150000 0
0.810714 0.150000 0
0.828571 0.150000 0
0.846429 0.150000 0
0.864286 0.150000 0
0.882143 0.150000 0
0.150000 0.167857 0
0.167857 0.167857 0
0.185714 0.167857 0
0.203571 0.167857 0
0.221429 0.167857 0
0.239286 0.167857 0
0.257143 0.167857 0
0.275000 0.167857 0
0.292857 0.167857 0
0.310714 0.167857 0
0.328571 0.167857 0
0.346429 0.167857 0
0.364286 0.167857 0
0.382143 0.167857 0
0.400000 0.167857 0
0.417857 0.167857 0
0.435714 0.167857 0
0.453571 0.167857 0
0.471429 0.167857 0
0.489286 0.167857 0
0.507143 0.167857 0
0.525000 0.167857 0
0.542857 0.167857 0
0.560714 0.167857 0
0.578571 0.167857 0
0.596429 0.167857 0
0.614286 0.167857 0
0.632143 0.167857 0
0.650000 0.167857 0
0.667857 0.167857 0
0.685714 0.167857 0
0.703571 0.167857 0
0.721429 0.167857 0
0.739286 0.167857 0
0.757143 0.167857 0
0.775000 0.167857 0
0.792857 0.167857 0
0.810714 0.167857 0
0.828571 0.167857 0
0.846429 0.167857 0
0.864286 0.167857 0
0.882143 0.167857 0
0.150000 0.185714 0
0.167857 0.185714 0
0.185714 0.185714 0
0.203571 0.185714 0
0.221429 0.185714 0
0.239286 0.185714 0
0.257143 0.185714 0
0.275000 0.185714 0
0.292857 0.185714 0
0.310714 0.185714 0
0.328571 0.185714 0
0.346429 0.185714 0
0.364286 0.185714 0
0.382143 0.185714 0
0.400000 0.185714 0
0.417857 0.185714 0
0.435714 0.185714 0
0.453571 0.185714 0
0.471429 0.185714 0
0.489286 0.185714 0
0.507143 0.185714 0
0.525000 0.185714 0
0.542857 0.185714 0
0.560714 0.185714 0
0.578571 0.185714 0
0.596429 0.185714 0
0.614286 0.185714 0
0.632143 0.185714 0
0.650000 0.185714 0
0.667857 0.185714 0
0.685714 0.185714 0
0.703571 0.185714 0
0.721429 0.185714 0
0.739286 0.185714 0
0.757143 0.185714 0
0.775000 0.185714 0
0.792857 0.185714 0
0.810714 0.185714 0
0.828571 0.185714 0
0.846429 0.185714 0
0.864286 0.185714 0
0.882143 0.185714 0
0.150000 0.203571 0
0.167857 0.203571 0
0.185714 0.203571 0
0.203571 0.203571 0
0.221429 0.203571 0
0.239286 0.203571 0
0.257143 0.203571 0
0.275000 0.203571 0
0.292857 0.203571 0
0.310714 0.203571 0
0.328571 0.203571 0
0.346429 0.203571 0
0.364286 0.203571 0
0.382143 0.203571 0
0.400000 0.203571 0
0.417857 0.203571 0
0.435714 0.203571 0
0.453571 0.203571 0
0.471429 0.203571 0
0.489286 0.203571 0
0.507143 0.203571 0
0.525000 0.203571 0
0.542857 0.203571 0
0.560714 0.203571 0
0.578571 0.203571 0
0.596429 0.203571 0
0.614286 0.203571 0
0.632143 0.203571 0
0.650000 0.203571 0
0.667857 0.203571 0
0.685714 0.203571 0
0.703571 0.203571 0
0.721429 0.203571 0
0.739286 0.203571 0
0.757143 0.203571 0
0.775000 0.203571 0
0.792857 0.203571 0
0.810714 0.203571 0
0.828571 0.203571 0
0.846429 0.203571 0
0.864286 0.203571 0
0.882143 0.203571 0
0.150000 0.221429 0
0.167857 0.221429 0
0.185714 0.221429 0
0.203571 0.221429 0
0.221429 0.221429 0
0.239286 0.221429 0
0.257143 0.221429 0
0.275000 0.221429 0
0.292857 0.221429 0
0.310714 0.221429 0
0.328571 0.221429 0
0.346429 0.221429 0
0.364286 0.221429 0
0.382143 0.221429 0
0.400000 0.221429 0
0.417857 0.221429 0
0.435714 0.221429 0
0.453571 0.221429 0
0.471429 0.221429 0
0.489286 0.221429 0
0.507143 0.221429 0
0.525000 0.221429 0
0.542857 0.221429 0
0.560714 0.221429 0
0.578571 0.221429 0
0.596429 0.221429 0
0.614286 0.221429 0
0.632143 0.221429 0
0.650000 0.221429 0
0.667857 0.221429 0
0.685714 0.221429 0
0.703571 0.221429 0
0.721429 0.221429 0
0.739286 0.221429 0
0.757143 0.221429 0
0.775000 0.221429 0
0.792857 0.221429 0
0.810714 0.221429 0
0.828571 0.221429 0
0.846429 0.221429 0
0.864286 0.221429 0
0.882143 0.221429 0
0.150000 0.239286 0
0.167857 0.239286 0
0.185714 0.239286 0
0.203571 0.239286 0
0.221429 0.239286 0
0.239286 0.239286 0
0.257143 0.239286 0
0.275000 0.239286 0
0.292857 0.239286 0
0.310714 0.239286 0
0.328571 0.239286 0
0.346429 0.239286 0
0.364286 0.239286 0
0.382143 0.239286 0
0.400000 0.239286 0
0.417857 0.239286 0
0.435714 0.239286 0
0.453571 0.239286 0
0.471429 0.239286 0
0.489286 0.239286 0
0.507143 0.239286 0
0.525000 0.239286 0
0.542857 0.239286 0
0.560714 0.239286 0
0.578571 0.239286 0
0.596429 0.239286 0
0.614286 0.239286 0
0.632143 0.239286 0
0.650000 0.239286 0
0.667857 0.239286 0
0.685714 0.239286 0
0.703571 0.239286 0
0.721429 0.239286 0
0.739286 0.239286 0
0.757143 0.239286 0
0.775000 0.239286 0
0.792857 0.239286 0
0.810714 0.239286 0
0.828571 0.239286 0
0.846429 0.239286 0
0.864286 0.239286 0
0.882143 0.239286 0
0.150000 0.257143 0
0.167857 0.257143 0
0.185714 0.257143 0
0.203571 0.257143 0
0.221429 0.257143 0
0.239286 0.257143 0
0.257143 0.257143 0
0.275000 0.257143 0
0.292857 0.257143 0
0.310714 0.257143 0
0.328571 0.257143 0
0.346429 0.257143 0
0.364286 0.257143 0
0.382143 0.257143 0
0.400000 0.257143 0
0.417857 0.257143 0
0.435714 0.257143 0
0.453571 0.257143 0
0.471429 0.257143 0
0.489286 0.257143 0
0.507143 0.257143 0
0.525000 0.257143 0
0.542857 0.257143 0
0.560714 0.257143 0
0.578571 0.257143 0
0.596429 0.257143 0
0.614286 0.257143 0
0.632143 0.257143 0
0.650000 0.257143 0
0.667857 0.257143 0
0.685714 0.257143 0
0.703571 0.257143 0
0.721429 0.257143 0
0.739286 0.257143 0
0.757143 0.257143 0
0.775000 0.257143 0
0.792857 0.257143 0
0.810714 0.257143 0
0.828571 0.257143 0
0.846429 0.257143 0
0.864286 0.257143 0
0.882143 0.257143 0
0.150000 0.275000 0
0.167857 0.275000 0
0.185714 0.275000 0
0.203571 0.275000 0
0.221429 0.275000 0
0.239286 0.275000 0
0.257143 0.275000 0
0.275000 0.275000 0
0.292857 0.275000 0
0.310714 0.275000 0
0.328571 0.275000 0
0.346429 0.275000 0
0.364286 0.275000 0
0.382143 0.275000 0
0.400000 0.275000 0
0.417857 0.275000 0
0.435714 0.275000 0
0.453571 0.275000 0
0.471429 0.275000 0
0.489286 0.275000 0
0.507143 0.275000 0
0.525000 0.275000 0
0.542857 0.275000 0
0.560714 0.275000 0
0.578571 0.275000 0
0.596429 0.275000 0
0.614286 0.275000 0
0.632143 0.275000 0
0.650000 0.275000 0
0.667857 0.275000 0
0.685714 0.275000 0
0.703571 0.275000 0
0.721429 0.275000 0
0.739286 0.275000 0
0.757143 0.275000 0
0.775000 0.275000 0
0.792857 0.275000 0
0.810714 0.275000 0
0.828571 0.275000 0
0.846429 0.275000 0
0.864286 0.275000 0
0.882143 0.275000 0
0.150000 0.292857 0
0.167857 0.292857 0
0.185714 0.292857 0
0.203571 0.292857 0
0.221429 0.292857 0
0.239286 0.292857 0
0.257143 0.292857 0
0.275000 0.292857 0
0.292857 0.292857 0
0.310714 0.292857 0
0.328571 0.292857 0
0.346429 0.292857 0
0.364286 0.292857 0
0.382143 0.292857 0
0.400000 0.292857 0
0.417857 0.292857 0
0.435714 0.292857 0
0.453571 0.292857 0
0.471429 0.292857 0
0.489286 0.292857 0
0.507143 0.292857 0
0.525000 0.292857 0
0.542857 0.292857 0
0.560714 0.292857 0
0.578571 0.292857 0
0.596429 0.292857 0
0.614286 0.292857 0
0.632143 0.292857 0
0.650000 0.292857 0
0.667857 0.292857 0
0.685714 0.292857 0
0.703571 0.292857 0
0.721429 0.292857 0
0.739286 0.292857 0
0.757143 0.292857 0
0.775000 0.292857 0
0.792857 0.292857 0
0.810714 0.292857 0
0.828571 0.292857 0
0.846429 0.292857 0
0.864286 0.292857 0
0.882143 0.292857 0
0.150000 0.310714 0
0.167857 0.310714 0
0.185714 0.310714 0
0.203571 0.310714 0
0.221429 0.310714 0
0.239286 0.310714 0
0.257143 0.310714 0
0.275000 0.310714 0
0.292857 0.310714 0
0.310714 0.310714 0
0.328571 0.310714 0
0.346429 0.310714 0
0.364286 0.310714 0
0.382143 0.310714 0
0.400000 0.310714 0
0.417857 0.310714 0
0.435714 0.310714 0
0.453571 0.310714 0
0.471429 0.310714 0
0.489286 0.310714 0
0.507143 0.310714 0
0.525000 0.310714 0
0.542857 0.310714 0
0.560714 0.310714 0
0.578571 0.310714 0
0.596429 0.310714 0
0.614286 0.310714 0
0.632143 0.310714 0
0.650000 0.310714 0
0.667857 0.310714 0
0.685714 0.310714 0
0.703571 0.310714 0
0.721429 0.310714 0
0.739286 0.310714 0
0.757143 0.310714 0
0.775000 0.310714 0
0.792857 0.310714 0
0.810714 0.310714 0
0.828571 0.310714 0
0.846429 0.310714 0
0.864286 0.310714 0
0.882143 0.310714 0
0.150000 0.328571 0
0.167857 0.328571 0
0.185714 0.328571 0
0.203571 0.328571 0
0.221429 0.328571 0
0.239286 0.328571 0
0.257143 0.328571 0
0.275000 0.328571 0
0.292857 0.328571 0
0.310714 0.328571 0
0.328571 0.328571 0
0.346429 0.328571 0
0.364286 0.328571 0
0.382143 0.328571 0
0.400000 0.328571 0
0.417857 0.328571 0
0.435714 0.328571 0
0.453571 0.328571 0
0.471429 0.328571 0
0.489286 0.328571 0
0.507143 0.328571 0
0.525000 0.328571 0
0.542857 0.328571 0
0.560714 0.328571 0
0.578571 0.328571 0
0.596429 0.328571 0
0.614286 0.328571 0
0.632143 0.328571 0
0.650000 0.328571 0
0.667857 0.328571 0
0.685714 0.328571 0
0.703571 0.328571 0
0.721429 0.328571 0
0.739286 0.328571 0
0.757143 0.328571 0
0.775000 0.328571 0
0.792857 0.328571 0
0.810714 0.328571 0
0.828571 0.328571 0
0.846429 0.328571 0
0.864286 0.328571 0
0.882143 0.328571 0
0.150000 0.346429 0
0.167857 0.346429 0
0.185714 0.346429 0
0.203571 0.346429 0
0.221429 0.346429 0
0.239286 0.346429 0
0.257143 0.346429 0
0.275000 0.346429 0
0.292857 0.346429 0
0.310714 0.346429 0
0.328571 0.346429 0
0.346429 0.346429 0
0.364286 0.346429 0
0.382143 0.346429 0
0.400000 0.346429 0
0.417857 0.346429 0
0.435714 0.346429 0
0.453571 0.346429 0
0.471429 0.346429 0
0.489286 0.346429 0
0.507143 0.346429 0
0.525000 0.346429 0
0.542857 0.346429 0
0.560714 0.346429 0
0.578571 0.346429 0
0.596429 0.346429 0
0.614286 0.346429 0
0.632143 0.346429 0
0.650000 0.346429 0
[...]
POINT_DATA 1764 

VECTORS velocity float
0.000000 0.000000 0
-0.000002 0.000000 0
-0.000003 0.000000 0
-0.000003 0.000000 0
-0.000003 0.000000 0
-0.000002 0.000000 0
-0.000001 0.000000 0
-0.000004 0.000000 0
-0.000007 0.000000 0
0.000003 0.000000 0
0.000008 0.000000 0
0.000010 0.000000 0
0.000012 0.000000 0
0.000013 0.000000 0
0.000014 0.000000 0
0.000014 0.000000 0
0.000014 0.000000 0
0.000014 0.000000 0
0.000014 0.000000 0
0.000014 0.000000 0
0.000014 0.000000 0
0.000014 0.000000 0
0.000014 0.000000 0
0.000014 0.000000 0
0.000014 0.000000 0
0.000014 0.000000 0
0.000014 0.000000 0
0.000014 0.000000 0
0.000015 0.000000 0
0.000015 0.000000 0
0.000015 0.000000 0
0.000016 0.000000 0
0.000016 0.000000 0
0.000016 0.000000 0
0.000015 0.000000 0
0.000014 0.000000 0
0.000012 0.000000 0
0.000009 0.000000 0
0.000006 0.000000 0
-0.000002 0.000000 0
-0.000000 0.000000 0
0.000000 0.000000 0
0.000000 0.000002 0
0.037265 -0.034067 0
0.065841 -0.020011 0
0.077035 -0.002433 0
0.072195 0.008634 0
0.061313 0.012456 0
0.051536 0.010442 0
0.034253 -0.004940 0
0.007407 -0.005923 0
-0.025498 0.021228 0
-0.067017 0.041475 0
-0.112312 0.046385 0
-0.156814 0.045373 0
-0.198351 0.042589 0
-0.235646 0.038537 0
-0.268173 0.033995 0
-0.295902 0.029431 0
-0.319106 0.025135 0
-0.338220 0.021250 0
-0.353729 0.017817 0
-0.366098 0.014811 0
-0.375727 0.012163 0
-0.382922 0.009781 0
-0.387881 0.007542 0
-0.390676 0.005303 0
-0.391250 0.002919 0
-0.389421 0.000242 0
-0.384961 -0.002885 0
-0.377486 -0.006566 0
-0.366479 -0.010870 0
-0.351301 -0.015944 0
-0.331180 -0.021934 0
-0.305237 -0.028936 0
-0.272543 -0.036940 0
-0.232257 -0.045685 0
-0.183953 -0.054375 0
-0.128318 -0.061046 0
-0.068591 -0.061197 0
-0.013346 -0.037215 0
0.019095 0.007413 0
0.000040 -0.000002 0
0.000000 -0.015199 0
0.000000 0.000004 0
0.030485 -0.065841 0
0.051542 -0.039770 0
0.060671 -0.006354 0
0.051966 0.015722 0
0.032498 0.020659 0
0.005081 0.027060 0
-0.034660 0.044129 0
-0.096245 0.059751 0
-0.151017 0.074424 0
-0.194604 0.086813 0
-0.233678 0.089796 0
-0.269707 0.086040 0
-0.301360 0.078832 0
-0.328331 0.069822 0
-0.350659 0.060257 0
-0.368655 0.050933 0
-0.382782 0.042318 0
-0.393549 0.034623 0
-0.401443 0.027878 0
-0.406891 0.021998 0
-0.410232 0.016824 0
-0.411710 0.012154 0
-0.411465 0.007755 0
-0.409549 0.003368 0
-0.405910 -0.001256 0
-0.400523 -0.006289 0
-0.393157 -0.011935 0
-0.383542 -0.018482 0
-0.371240 -0.026185 0
-0.355713 -0.035299 0
-0.336350 -0.046064 0
-0.312472 -0.058637 0
-0.283370 -0.072981 0
-0.248396 -0.088590 0
-0.207179 -0.103938 0
-0.160099 -0.115363 0
-0.109150 -0.114972 0
-0.059230 -0.087686 0
-0.011502 -0.013346 0
0.000018 0.000004 0
0.000000 -0.019091 0
0.000000 0.000004 0
0.015622 -0.085609 0
0.020044 -0.050196 0
0.010644 -0.002857 0
-0.008737 0.036807 0
-0.040474 0.059341 0
-0.086273 0.077600 0
-0.134766 0.096386 0
-0.180721 0.110434 0
-0.223705 0.119587 0
-0.258451 0.124135 0
-0.286466 0.121487 0
-0.309515 0.113054 0
-0.328008 0.101214 0
-0.342448 0.087836 0
-0.353373 0.074319 0
-0.361345 0.061555 0
-0.366901 0.050029 0
-0.370513 0.039910 0
-0.372567 0.031159 0
-0.373360 0.023600 0
-0.373097 0.016982 0
-0.371906 0.011014 0
-0.369841 0.005381 0
-0.366906 -0.000252 0
-0.363078 -0.006107 0
-0.358249 -0.012511 0
-0.352140 -0.019867 0
-0.344444 -0.028483 0
-0.334788 -0.038699 0
-0.322744 -0.050834 0
-0.307857 -0.065175 0
-0.289646 -0.081916 0
-0.267620 -0.101016 0
-0.241270 -0.121876 0
-0.210120 -0.142672 0
-0.173844 -0.159075 0
-0.132493 -0.162065 0
-0.086856 -0.134863 0
-0.039340 -0.051817 0
-0.000033 0.000009 0
0.000000 -0.003686 0
0.000000 0.000002 0
-0.005960 -0.085885 0
-0.023489 -0.034792 0
-0.051958 0.022428 0
-0.079764 0.066839 0
-0.113457 0.098195 0
-0.152749 0.121353 0
-0.191564 0.138577 0
-0.226177 0.148689 0
-0.256240 0.152154 0
-0.279318 0.149575 0
-0.295991 0.140860 0
-0.307658 0.127581 0
-0.315379 0.111766 0
-0.320091 0.095188 0
-0.322578 0.079153 0
-0.323483 0.064461 0
-0.323309 0.051486 0
-0.322425 0.040289 0
-0.321082 0.030725 0
-0.319438 0.022528 0
-0.317573 0.015370 0
-0.315505 0.008898 0
-0.313212 0.002755 0
-0.310636 -0.003394 0
-0.307757 -0.009914 0
-0.304280 -0.017227 0
-0.300007 -0.025739 0
-0.294643 -0.035834 0
-0.287863 -0.047884 0
-0.279317 -0.062230 0
-0.268676 -0.079161 0
-0.255639 -0.098874 0
-0.239924 -0.121357 0
-0.221176 -0.146089 0
-0.198845 -0.171365 0
-0.172024 -0.192990 0
-0.139293 -0.201960 0
-0.098836 -0.180839 0
-0.049859 -0.100202 0
-0.000086 0.000013 0
0.000000 0.020258 0
0.000000 -0.000000 0
-0.027351 -0.062120 0
-0.062352 -0.004199 0
-0.094929 0.053417 0
-0.125753 0.098306 0
-0.157326 0.132326 0
-0.188980 0.155707 0
-0.217855 0.169814 0
-0.241939 0.175110 0
-0.260679 0.172727 0
-0.273261 0.163886 0
-0.280362 0.149828 0
-0.283225 0.132443 0
-0.283059 0.113646 0
-0.280917 0.095035 0
-0.277635 0.077711 0
-0.273838 0.062287 0
-0.269957 0.048970 0
-0.266270 0.037683 0
-0.262925 0.028173 0
-0.259981 0.020091 0
-0.257429 0.013049 0
-0.255218 0.006653 0
-0.253272 0.000511 0
-0.251500 -0.005707 0
-0.249752 -0.012463 0
-0.247810 -0.020260 0
-0.245455 -0.029503 0
-0.242401 -0.040628 0
-0.238321 -0.054024 0
-0.232876 -0.070021 0
-0.225780 -0.088854 0
-0.216857 -0.110667 0
-0.206010 -0.135479 0
-0.193072 -0.162955 0
-0.177560 -0.191824 0
-0.158319 -0.218627 0
-0.133079 -0.235254 0
-0.098363 -0.224298 0
-0.051310 -0.150653 0
-0.000123 0.000016 0
0.000000 0.046179 0
0.000000 -0.000003 0
-0.040151 -0.023533 0
-0.081779 0.032786 0
-0.116101 0.085828 0
-0.147620 0.129237 0
-0.176062 0.161422 0
-0.201187 0.181882 0
-0.221805 0.191535 0
-0.237080 0.191513 0
-0.246843 0.183477 0
-0.251181 0.169258 0
-0.250987 0.150824 0
-0.247459 0.130277 0
-0.241787 0.109457 0
-0.234999 0.089764 0
-0.227894 0.072074 0
-0.221048 0.056783 0
-0.214833 0.043918 0
-0.209457 0.033257 0
-0.205001 0.024436 0
-0.201452 0.017032 0
-0.198743 0.010607 0
-0.196773 0.004741 0
-0.195433 -0.000963 0
-0.194615 -0.006914 0
-0.194082 -0.013604 0
-0.193704 -0.021524 0
-0.193263 -0.031149 0
-0.192470 -0.042968 0
-0.190947 -0.057410 0
-0.188281 -0.074771 0
-0.184130 -0.095180 0
-0.178348 -0.118644 0
-0.170982 -0.145141 0
-0.162069 -0.174539 0
-0.151331 -0.206119 0
-0.137739 -0.237471 0
-0.118874 -0.261916 0
-0.090546 -0.262609 0
-0.048564 -0.198565 0
-0.000148 0.000017 0
0.000000 0.071572 0
0.000000 -0.000005 0
-0.044442 0.019659 0
-0.085917 0.071751 0
-0.121267 0.119259 0
-0.151557 0.158267 0
-0.176573 0.185893 0
-0.196318 0.201449 0
-0.210479 0.205708 0
-0.218975 0.200149 0
-0.222105 0.186828 0
-0.220475 0.168030 0
-0.215130 0.146105 0
-0.207247 0.123243 0
-0.197955 0.101186 0
-0.188215 0.081142 0
-0.178769 0.063760 0
-0.170143 0.049225 0
-0.162657 0.037379 0
-0.156461 0.027852 0
-0.151570 0.020168 0
-0.147909 0.013832 0
-0.145352 0.008370 0
-0.143761 0.003344 0
-0.143005 -0.001647 0
-0.142958 -0.007059 0
-0.143455 -0.013374 0
-0.144415 -0.021079 0
-0.145674 -0.030738 0
-0.146952 -0.042944 0
-0.147807 -0.058213 0
-0.147682 -0.076838 0
-0.146076 -0.098787 0
-0.142779 -0.123816 0
-0.137926 -0.151758 0
-0.131723 -0.182607 0
-0.124143 -0.216154 0
-0.114513 -0.251083 0
-0.100778 -0.282447 0
-0.078738 -0.294608 0
-0.043288 -0.241198 0
-0.000158 0.000018 0
0.000000 0.094746 0
0.000000 -0.000006 0
-0.042398 0.062385 0
-0.081925 0.109611 0
-0.115813 0.151467 0
-0.143603 0.184543 0
-0.165101 0.206183 0
-0.180417 0.215788 0
-0.189686 0.214193 0
-0.193272 0.203139 0
-0.191812 0.184976 0
-0.186190 0.162284 0
-0.177520 0.137597 0
-0.166943 0.113102 0
-0.155518 0.090424 0
-0.144135 0.070579 0
-0.133485 0.054002 0
-0.124048 0.040670 0
-0.116114 0.030235 0
-0.109795 0.022170 0
-0.105051 0.015885 0
-0.101735 0.010814 0
-0.099640 0.006459 0
-0.098555 0.002393 0
-0.098307 -0.001766 0
-0.098773 -0.006464 0
-0.099906 -0.012146 0
-0.101708 -0.019305 0
-0.104135 -0.028612 0
-0.106991 -0.040835 0
-0.109806 -0.056679 0
-0.111860 -0.076502 0
-0.112416 -0.100083 0
-0.111135 -0.126794 0
-0.108198 -0.156197 0
-0.103920 -0.188322 0
-0.098475 -0.223328 0
-0.091583 -0.260836 0
-0.081807 -0.297691 0
-0.065448 -0.320099 0
-0.036907 -0.277303 0
-0.000155 0.000019 0
0.000000 0.114861 0
0.000000 -0.000007 0
-0.036960 0.101584 0
-0.073277 0.145166 0
-0.104014 0.180937 0
-0.128514 0.207555 0
-0.146532 0.222707 0
-0.158205 0.226034 0
-0.163865 0.218563 0
-0.164097 0.202275 0
-0.159712 0.179746 0
-0.151700 0.153739 0
-0.141166 0.126858 0
-0.129182 0.101240 0
-0.116722 0.078378 0
-0.104600 0.059109 0
-0.093452 0.043673 0
-0.083740 0.031854 0
-0.075766 0.023126 0
-0.069680 0.016789 0
-0.065440 0.012109 0
-0.062854 0.008422 0
-0.061625 0.005190 0
-0.061433 0.002010 0
-0.061982 -0.001429 0
-0.063010 -0.005460 0
-0.064611 -0.010440 0
-0.066853 -0.016849 0
-0.069846 -0.025455 0
-0.073573 -0.037273 0
-0.077652 -0.053344 0
-0.081251 -0.074228 0
-0.083398 -0.099512 0
-0.083627 -0.128034 0
-0.082156 -0.158972 0
-0.079345 -0.192329 0
-0.075476 -0.228492 0
-0.070566 -0.267751 0
-0.063816 -0.308582 0
-0.052304 -0.339508 0
-0.030362 -0.306646 0
-0.000144 0.000018 0
0.000000 0.131652 0
0.000000 -0.000008 0
-0.030752 0.135661 0
-0.062289 0.176665 0
-0.088884 0.206705 0
-0.109690 0.227061 0
-0.124390 0.235874 0
-0.133089 0.233120 0
-0.136175 0.220086 0
-0.134296 0.198986 0
-0.128294 0.172579 0
-0.119147 0.143738 0
-0.107878 0.115079 0
-0.095455 0.088658 0
-0.082745 0.065842 0
-0.070469 0.047309 0
-0.059200 0.033142 0
-0.049386 0.022984 0
-0.041390 0.016175 0
-0.035520 0.011844 0
-0.031779 0.009058 0
-0.029978 0.006999 0
-0.029758 0.005038 0
-0.030716 0.002750 0
-0.032465 -0.000189 0
-0.034604 -0.003835 0
-0.036994 -0.008304 0
-0.039775 -0.014070 0
-0.043124 -0.021892 0
-0.047207 -0.033030 0
-0.051816 -0.049002 0
-0.056141 -0.070756 0
-0.059095 -0.097707 0
-0.060209 -0.128036 0
-0.059747 -0.160480 0
-0.058060 -0.195002 0
-0.055455 -0.232107 0
-0.052110 -0.272496 0
-0.047724 -0.315953 0
-0.040220 -0.353553 0
-0.024212 -0.329607 0
-0.000128 0.000018 0
0.000000 0.145222 0
0.000000 -0.000008 0
-0.024199 0.163873 0
-0.050321 0.203298 0
-0.072364 0.228338 0
-0.089387 0.243060 0
-0.101029 0.246106 0
-0.107344 0.237820 0
-0.108692 0.219770 0
-0.105678 0.194393 0
-0.099081 0.164597 0
-0.089780 0.133323 0
-0.078667 0.103167 0
-0.066580 0.076107 0
-0.054265 0.053392 0
-0.042346 0.035564 0
-0.031308 0.022590 0
-0.021573 0.014045 0
-0.013580 0.009260 0
-0.007982 0.007178 0
-0.004778 0.006567 0
-0.003628 0.006400 0
-0.004129 0.005928 0
-0.005883 0.004718 0
-0.008553 0.002458 0
-0.011939 -0.000930 0
-0.015614 -0.005269 0
-0.019292 -0.010720 0
-0.023205 -0.018023 0
-0.027540 -0.028581 0
-0.032188 -0.044410 0
-0.036435 -0.066949 0
-0.039330 -0.095444 0
-0.040662 -0.127381 0
-0.040740 -0.161121 0
-0.039862 -0.196622 0
-0.038299 -0.234442 0
-0.036281 -0.275482 0
-0.033821 -0.320472 0
-0.029589 -0.363021 0
-0.018726 -0.346866 0
-0.000111 0.000017 0
0.000000 0.155863 0
0.000000 -0.000008 0
-0.017590 0.185982 0
-0.038167 0.224830 0
-0.055625 0.245771 0
-0.068986 0.255726 0
-0.077890 0.253831 0
-0.082341 0.240783 0
-0.082624 0.218419 0
-0.079245 0.189376 0
-0.072857 0.156681 0
-0.064186 0.123324 0
-0.053968 0.091879 0
-0.042900 0.064257 0
-0.031610 0.041609 0
-0.020610 0.024352 0
-0.010133 0.012369 0
-0.000797 0.005255 0
0.006267 0.002585 0
0.010920 0.003041 0
0.013392 0.004704 0
0.014066 0.006350 0
0.013259 0.007293 0
0.011265 0.007174 0
0.008333 0.005868 0
0.004577 0.003227 0
0.000202 -0.000951 0
-0.004411 -0.006479 0
-0.009104 -0.013645 0
-0.013718 -0.024047 0
-0.018078 -0.040107 0
-0.021529 -0.063613 0
-0.023589 -0.093480 0
-0.024568 -0.126626 0
-0.024776 -0.161280 0
-0.024420 -0.197444 0
-0.023708 -0.235688 0
-0.022858 -0.276974 0
-0.022030 -0.322645 0
-0.020476 -0.368648 0
-0.013984 -0.359196 0
-0.000094 0.000017 0
0.000000 0.163947 0
0.000000 -0.000007 0
-0.011124 0.202040 0
-0.026276 0.241333 0
-0.039310 0.259156 0
-0.049242 0.265326 0
-0.055741 0.259461 0
-0.058770 0.242554 0
-0.058525 0.216674 0
-0.055383 0.184626 0
-0.049835 0.149537 0
-0.042433 0.114433 0
-0.033746 0.081881 0
-0.024326 0.053750 0
-0.014675 0.031101 0
-0.004976 0.014086 0
0.004158 0.002778 0
0.011462 -0.002355 0
0.016489 -0.002458 0
0.019810 0.000052 0
0.021679 0.003421 0
0.022205 0.006534 0
0.021497 0.008730 0
0.019695 0.009644 0
0.016972 0.009145 0
0.013522 0.007201 0
0.009411 0.003720 0
0.004660 -0.001414 0
-0.000257 -0.008716 0
-0.004890 -0.019607 0
-0.008466 -0.036599 0
-0.010406 -0.061438 0
-0.011081 -0.092405 0
-0.011338 -0.126195 0
-0.011388 -0.161269 0
-0.011334 -0.197690 0
-0.011309 -0.236004 0
-0.011502 -0.277159 0
-0.012101 -0.322854 0
-0.012757 -0.371067 0
-0.009952 -0.367341 0
-0.000080 0.000016 0
0.000000 0.169846 0
0.000000 -0.000007 0
-0.004931 0.212258 0
-0.014863 0.253016 0
-0.023721 0.268737 0
-0.030484 0.272157 0
-0.034875 0.263359 0
-0.036832 0.243567 0
-0.036464 0.215032 0
-0.034010 0.180685 0
-0.029793 0.143732 0
-0.024182 0.107235 0
-0.017579 0.073772 0
-0.010401 0.045186 0
-0.002784 0.022259 0
0.004607 0.005519 0
0.010791 -0.004070 0
0.015036 -0.007076 0
0.018048 -0.005764 0
0.020231 -0.002148 0
0.021668 0.002310 0
0.022238 0.006532 0
0.021869 0.009803 0
0.020555 0.011700 0
0.018359 0.012041 0
0.015409 0.010788 0
0.011839 0.007911 0
0.007773 0.003188 0
0.003545 -0.004095 0
-0.000139 -0.015838 0
-0.002018 -0.034591 0
-0.001808 -0.060998 0
-0.000910 -0.092547 0
-0.000304 -0.126319 0
-0.000055 -0.161284 0
-0.000164 -0.197523 0
-0.000712 -0.235520 0
-0.001847 -0.276182 0
-0.003720 -0.321389 0
-0.006226 -0.370797 0
-0.006535 -0.371954 0
-0.000068 0.000015 0
0.000000 0.173897 0
0.000000 -0.000006 0
0.000778 0.216904 0
-0.004002 0.260122 0
-0.008924 0.274776 0
-0.012757 0.276480 0
-0.015274 0.265809 0
-0.016404 0.244142 0
-0.016184 0.213853 0
-0.014726 0.177955 0
-0.012185 0.139709 0
-0.008748 0.102220 0
-0.004643 0.068100 0
-0.000173 0.038955 0
0.004433 0.016094 0
0.008359 0.000511 0
0.011095 -0.007651 0
0.013001 -0.009612 0
0.014379 -0.007653 0
0.015443 -0.003568 0
0.016287 0.001414 0
0.016754 0.006333 0
0.016668 0.010413 0
0.015895 0.013153 0
0.014388 0.014291 0
0.012196 0.013721 0
0.009457 0.011356 0
0.006419 0.006880 0
0.003568 -0.000804 0
0.002129 -0.014044 0
0.003047 -0.034930 0
0.005512 -0.062547 0
0.007764 -0.093909 0
0.009181 -0.127049 0
0.009759 -0.161409 0
0.009534 -0.197033 0
0.008460 -0.234321 0
0.006452 -0.274152 0
0.003416 -0.318475 0
-0.000633 -0.368252 0
-0.003610 -0.373567 0
-0.000059 0.000015 0
0.000000 0.176379 0
0.000000 -0.000005 0
0.005979 0.216259 0
0.006257 0.262717 0
0.005080 0.277493 0
0.004008 0.278507 0
0.003249 0.267006 0
0.002852 0.244477 0
0.002820 0.213354 0
0.003137 0.176687 0
0.003790 0.137754 0
0.004757 0.099692 0
0.005972 0.065196 0
0.007235 0.036110 0
0.008054 0.013727 0
0.008376 -0.001143 0
0.008332 -0.008712 0
0.008291 -0.010360 0
0.008177 -0.008206 0
0.008094 -0.004056 0
0.008142 0.000998 0
0.008278 0.006151 0
0.008311 0.010662 0
0.008023 0.013980 0
0.007274 0.015740 0
0.006056 0.015719 0
0.004521 0.013689 0
0.003035 0.009077 0
0.002439 0.000195 0
0.004285 -0.015317 0
0.008240 -0.037974 0
0.012475 -0.065715 0
0.015741 -0.096216 0
0.017781 -0.128313 0
0.018601 -0.161637 0
0.018222 -0.196224 0
0.016622 -0.232438 0
0.013762 -0.271138 0
0.009595 -0.314304 0
0.004150 -0.363770 0
-0.001040 -0.372587 0
-0.000053 0.000014 0
0.000000 0.177506 0
0.000000 -0.000005 0
0.010839 0.210646 0
0.015933 0.261021 0
0.018345 0.277025 0
0.019921 0.278311 0
0.020893 0.266965 0
0.021260 0.244572 0
0.021028 0.213567 0
0.020236 0.176985 0
0.018972 0.138089 0
0.017348 0.100038 0
0.015442 0.065623 0
0.013238 0.036872 0
0.010556 0.014953 0
0.007585 0.000233 0
0.004898 -0.007566 0
0.002960 -0.009457 0
0.001441 -0.007456 0
0.000289 -0.003533 0
-0.000463 0.001230 0
-0.000755 0.006164 0
-0.000734 0.010668 0
-0.000616 0.014191 0
-0.000564 0.016258 0
-0.000592 0.016474 0
-0.000502 0.014378 0
0.000232 0.008962 0
0.003037 -0.002054 0
0.008294 -0.019845 0
0.014393 -0.043120 0
0.019736 -0.070047 0
0.023673 -0.099216 0
0.026079 -0.129909 0
0.026960 -0.161849 0
0.026321 -0.195054 0
0.024144 -0.229861 0
0.020408 -0.267125 0
0.015100 -0.308863 0
0.008286 -0.357617 0
0.001264 -0.369417 0
-0.000049 0.000014 0
0.000000 0.177418 0
0.000000 -0.000004 0
0.015373 0.200326 0
0.025088 0.255211 0
0.030971 0.273504 0
0.035094 0.275960 0
0.037787 0.265667 0
0.039013 0.244341 0
0.038750 0.214378 0
0.037061 0.178743 0
0.034101 0.140643 0
0.030096 0.103223 0
0.025298 0.069306 0
0.019945 0.040996 0
0.014222 0.019380 0
0.008442 0.004515 0
0.003082 -0.004086 0
-0.001023 -0.006904 0
-0.003857 -0.005535 0
-0.005877 -0.002152 0
-0.007213 0.002043 0
-0.007845 0.006422 0
-0.007854 0.010523 0
-0.007361 0.013810 0
-0.006458 0.015716 0
-0.005095 0.015658 0
-0.002968 0.012865 0
0.000852 0.005538 0
0.007314 -0.007867 0
0.014815 -0.026673 0
0.021939 -0.049416 0
0.027778 -0.074995 0
0.031990 -0.102560 0
0.034477 -0.131601 0
0.035207 -0.161879 0
0.034154 -0.193408 0
0.031294 -0.226525 0
0.026621 -0.262094 0
0.020159 -0.302182 0
0.012008 -0.349934 0
0.003347 -0.364301 0
-0.000045 0.000013 0
0.000000 0.176241 0
0.000000 -0.000003 0
0.019520 0.185558 0
0.033667 0.245423 0
0.042947 0.267020 0
0.049552 0.271495 0
0.053992 0.263046 0
0.056230 0.243609 0
0.056211 0.215520 0
0.053998 0.181635 0
0.049789 0.145053 0
0.043908 0.108841 0
0.036775 0.075774 0
0.028884 0.047948 0
0.020728 0.026456 0
0.012762 0.011373 0
0.005331 0.001898 0
-0.001024 -0.002517 0
-0.005459 -0.002602 0
-0.008247 -0.000178 0
-0.009947 0.003198 0
-0.010731 0.006806 0
-0.010639 0.010184 0
-0.009684 0.012795 0
-0.007842 0.013991 0
-0.004913 0.012983 0
-0.000217 0.008431 0
0.006933 -0.001319 0
0.015378 -0.016017 0
0.023668 -0.034470 0
0.031002 -0.056083 0
0.036865 -0.080099 0
0.041000 -0.105915 0
0.043279 -0.133126 0
0.043620 -0.161526 0
0.041968 -0.191141 0
0.038291 -0.222329 0
0.032593 -0.255990 0
0.024932 -0.294249 0
0.015448 -0.340805 0
0.005261 -0.357410 0
-0.000043 0.000012 0
0.000000 0.174070 0
0.000000 -0.000002 0
0.023134 0.166659 0
0.041484 0.231784 0
0.054119 0.257619 0
0.063199 0.264914 0
0.069455 0.258989 0
0.072909 0.242122 0
0.073487 0.216610 0
0.071237 0.185165 0
0.066383 0.150732 0
0.059320 0.116237 0
0.050602 0.084330 0
0.040922 0.057043 0
0.030999 0.035503 0
0.021468 0.019912 0
0.012772 0.009700 0
0.005080 0.003886 0
-0.000915 0.001688 0
-0.004875 0.002337 0
-0.007061 0.004526 0
-0.007869 0.007113 0
-0.007483 0.009476 0
-0.005890 0.011014 0
-0.002879 0.010945 0
0.001930 0.008032 0
0.009062 0.001018 0
0.017717 -0.010057 0
0.026415 -0.024602 0
0.034580 -0.042297 0
0.041625 -0.062612 0
0.047149 -0.084993 0
0.050892 -0.108974 0
0.052678 -0.134221 0
0.052386 -0.160569 0
0.049932 -0.188079 0
0.045280 -0.217150 0
0.038449 -0.248735 0
0.029526 -0.285037 0
0.018698 -0.330262 0
0.007043 -0.348853 0
-0.000042 0.000012 0
0.000000 0.170980 0
0.000000 -0.000001 0
0.025990 0.144074 0
0.048208 0.214438 0
0.064166 0.245305 0
0.075779 0.256158 0
0.083979 0.253336 0
0.088896 0.239578 0
0.090466 0.217192 0
0.088724 0.188738 0
0.083900 0.156970 0
0.076432 0.124621 0
0.066960 0.094172 0
0.056291 0.067551 0
0.045284 0.045911 0
0.034713 0.029600 0
0.025164 0.018286 0
0.016956 0.011170 0
0.010246 0.007352 0
0.005348 0.005968 0
0.002504 0.006193 0
0.001528 0.007229 0
0.002247 0.008205 0
0.004602 0.008191 0
0.008830 0.006171 0
0.015244 0.001042 0
0.023165 -0.007356 0
0.031532 -0.018673 0
0.039797 -0.032880 0
0.047389 -0.049680 0
0.053815 -0.068652 0
0.058698 -0.089365 0
0.061755 -0.111445 0
0.062773 -0.134621 0
0.061598 -0.158779 0
0.058131 -0.184035 0
0.052337 -0.210846 0
0.044253 -0.240236 0
0.033997 -0.274499 0
0.021803 -0.318321 0
0.008723 -0.338711 0
-0.000042 0.000011 0
0.000000 0.167026 0
0.000000 -0.000000 0
0.027778 0.118451 0
0.053345 0.193608 0
0.072570 0.230048 0
0.086851 0.245100 0
0.097202 0.245872 0
0.103876 0.235635 0
0.106851 0.216782 0
0.106163 0.191731 0
0.102040 0.163024 0
0.094939 0.133177 0
0.085533 0.104471 0
0.074675 0.078720 0
0.063282 0.057081 0
0.052207 0.040031 0
0.042142 0.027457 0
0.033542 0.018804 0
0.026631 0.013296 0
0.021563 0.010079 0
0.018423 0.008346 0
0.017303 0.007370 0
0.018216 0.006401 0
0.021098 0.004431 0
0.026071 0.000304 0
0.032696 -0.006303 0
0.040072 -0.015270 0