# vtk DataFile Version 2.0
generated by CFD-lab course output (written by Tobias Neckel) 
ASCII

DATASET STRUCTURED_GRID
DIMENSIONS  42 42 1 
POINTS 1764 float

0.150000 0.150000 0
0.167857 0.150000 0
0.185714 0.150000 0
0.203571 0.150000 0
0.221429 0.150000 0
0.239286 0.150000 0
0.257143 0.150000 0
0.275000 0.150000 0
0.292857 0.150000 0
0.310714 0.150000 0
0.328571 0.150000 0
0.346429 0.150000 0
0.364286 0.150000 0
0.382143 0.150000 0
0.400000 0.150000 0
0.417857 0.150000 0
0.435714 0.150000 0
0.453571 0.150000 0
0.471429 0.150000 0
0.489286 0.150000 0
0.507143 0.150000 0
0.525000 0.150000 0
0.542857 0.150000 0
0.560714 0.150000 0
0.578571 0.150000 0
0.596429 0.150000 0
0.614286 0.150000 0
0.632143 0.150000 0
0.650000 0.150000 0
0.667857 0.150000 0
0.685714 0.150000 0
0.703571 0.150000 0
0.721429 0.150000 0
0.739286 0.150000 0
0.757143 0.150000 0
0.775000 0.150000 0
0.792857 0.150000 0
0.810714 0.150000 0
0.828571 0.150000 0
0.846429 0.150000 0
0.864286 0.150000 0
0.882143 0.150000 0
0.150000 0.167857 0
0.167857 0.167857 0
0.185714 0.167857 0
0.203571 0.167857 0
0.221429 0.167857 0
0.239286 0.167857 0
0.257143 0.167857 0
0.275000 0.167857 0
0.292857 0.167857 0
0.310714 0.167857 0
0.328571 0.167857 0
0.346429 0.167857 0
0.364286 0.167857 0
0.382143 0.167857 0
0.400000 0.167857 0
0.417857 0.167857 0
0.435714 0.167857 0
0.453571 0.167857 0
0.471429 0.167857 0
0.489286 0.167857 0
0.507143 0.167857 0
0.525000 0.167857 0
0.542857 0.167857 0
0.560714 0.167857 0
0.578571 0.167857 0
0.596429 0.167857 0
0.614286 0.167857 0
0.632143 0.167857 0
0.650000 0.167857 0
0.667857 0.167857 0
0.685714 0.167857 0
0.703571 0.167857 0
0.721429 0.167857 0
0.739286 0.167857 0
0.757143 0.167857 0
0.775000 0.167857 0
0.792857 0.167857 0
0.810714 0.167857 0
0.828571 0.167857 0
0.846429 0.167857 0
0.864286 0.167857 0
0.882143 0.167857 0
0.150000 0.185714 0
0.167857 0.185714 0
0.185714 0.185714 0
0.203571 0.185714 0
0.221429 0.185714 0
0.239286 0.185714 0
0.257143 0.185714 0
0.275000 0.185714 0
0.292857 0.185714 0
0.310714 0.185714 0
0.328571 0.185714 0
0.346429 0.185714 0
0.364286 0.185714 0
0.382143 0.185714 0
0.400000 0.185714 0
0.417857 0.185714 0
0.435714 0.185714 0
0.453571 0.185714 0
0.471429 0.185714 0
0.489286 0.185714 0
0.507143 0.185714 0
0.525000 0.185714 0
0.542857 0.185714 0
0.560714 0.185714 0
0.578571 0.185714 0
0.596429 0.185714 0
0.614286 0.185714 0
0.632143 0.185714 0
0.650000 0.185714 0
0.667857 0.185714 0
0.685714 0.185714 0
0.703571 0.185714 0
0.721429 0.185714 0
0.739286 0.185714 0
0.757143 0.185714 0
0.775000 0.185714 0
0.792857 0.185714 0
0.810714 0.185714 0
0.828571 0.185714 0
0.846429 0.185714 0
0.864286 0.185714 0
0.882143 0.185714 0
0.150000 0.203571 0
0.167857 0.203571 0
0.185714 0.203571 0
0.203571 0.203571 0
0.221429 0.203571 0
0.239286 0.203571 0
0.257143 0.203571 0
0.275000 0.203571 0
0.292857 0.203571 0
0.310714 0.203571 0
0.328571 0.203571 0
0.346429 0.203571 0
0.364286 0.203571 0
0.382143 0.203571 0
0.400000 0.203571 0
0.417857 0.203571 0
0.435714 0.203571 0
0.453571 0.203571 0
0.471429 0.203571 0
0.489286 0.203571 0
0.507143 0.203571 0
0.525000 0.203571 0
0.542857 0.203571 0
0.560714 0.203571 0
0.578571 0.203571 0
0.596429 0.203571 0
0.614286 0.203571 0
0.632143 0.203571 0
0.650000 0.203571 0
0.667857 0.203571 0
0.685714 0.203571 0
0.703571 0.203571 0
0.721429 0.203571 0
0.739286 0.203571 0
0.757143 0.203571 0
0.775000 0.203571 0
0.792857 0.203571 0
0.810714 0.203571 0
0.828571 0.203571 0
0.846429 0.203571 0
0.864286 0.203571 0
0.882143 0.203571 0
0.150000 0.221429 0
0.167857 0.221429 0
0.185714 0.221429 0
0.203571 0.221429 0
0.221429 0.221429 0
0.239286 0.221429 0
0.257143 0.221429 0
0.275000 0.221429 0
0.292857 0.221429 0
0.310714 0.221429 0
0.328571 0.221429 0
0.346429 0.221429 0
0.364286 0.221429 0
0.382143 0.221429 0
0.400000 0.221429 0
0.417857 0.221429 0
0.435714 0.221429 0
0.453571 0.221429 0
0.471429 0.221429 0
0.489286 0.221429 0
0.507143 0.221429 0
0.525000 0.221429 0
0.542857 0.221429 0
0.560714 0.221429 0
0.578571 0.221429 0
0.596429 0.221429 0
0.614286 0.221429 0
0.632143 0.221429 0
0.650000 0.221429 0
0.667857 0.221429 0
0.685714 0.221429 0
0.703571 0.221429 0
0.721429 0.221429 0
0.739286 0.221429 0
0.757143 0.221429 0
0.775000 0.221429 0
0.792857 0.221429 0
0.810714 0.221429 0
0.828571 0.221429 0
0.846429 0.221429 0
0.864286 0.221429 0
0.882143 0.221429 0
0.150000 0.239286 0
0.167857 0.239286 0
0.185714 0.239286 0
0.203571 0.239286 0
0.221429 0.239286 0
0.239286 0.239286 0
0.257143 0.239286 0
0.275000 0.239286 0
0.292857 0.239286 0
0.310714 0.239286 0
0.328571 0.239286 0
0.346429 0.239286 0
0.364286 0.239286 0
0.382143 0.239286 0
0.400000 0.239286 0
0.417857 0.239286 0
0.435714 0.239286 0
0.453571 0.239286 0
0.471429 0.239286 0
0.489286 0.239286 0
0.507143 0.239286 0
0.525000 0.239286 0
0.542857 0.239286 0
0.560714 0.239286 0
0.578571 0.239286 0
0.596429 0.239286 0
0.614286 0.239286 0
0.632143 0.239286 0
0.650000 0.239286 0
0.667857 0.239286 0
0.685714 0.239286 0
0.703571 0.239286 0
0.721429 0.239286 0
0.739286 0.239286 0
0.757143 0.239286 0
0.775000 0.239286 0
0.792857 0.239286 0
0.810714 0.239286 0
0.828571 0.239286 0
0.846429 0.239286 0
0.864286 0.239286 0
0.882143 0.239286 0
0.150000 0.257143 0
0.167857 0.257143 0
0.185714 0.257143 0
0.203571 0.257143 0
0.221429 0.257143 0
0.239286 0.257143 0
0.257143 0.257143 0
0.275000 0.257143 0
0.292857 0.257143 0
0.310714 0.257143 0
0.328571 0.257143 0
0.346429 0.257143 0
0.364286 0.257143 0
0.382143 0.257143 0
0.400000 0.257143 0
0.417857 0.257143 0
0.435714 0.257143 0
0.453571 0.257143 0
0.471429 0.257143 0
0.489286 0.257143 0
0.507143 0.257143 0
0.525000 0.257143 0
0.542857 0.257143 0
0.560714 0.257143 0
0.578571 0.257143 0
0.596429 0.257143 0
0.614286 0.257143 0
0.632143 0.257143 0
0.650000 0.257143 0
0.667857 0.257143 0
0.685714 0.257143 0
0.703571 0.257143 0
0.721429 0.257143 0
0.739286 0.257143 0
0.757143 0.257143 0
0.775000 0.257143 0
0.792857 0.257143 0
0.810714 0.257143 0
0.828571 0.257143 0
0.846429 0.257143 0
0.864286 0.257143 0
0.882143 0.257143 0
0.150000 0.275000 0
0.167857 0.275000 0
0.185714 0.275000 0
0.203571 0.275000 0
0.221429 0.275000 0
0.239286 0.275000 0
0.257143 0.275000 0
0.275000 0.275000 0
0.292857 0.275000 0
0.310714 0.275000 0
0.328571 0.275000 0
0.346429 0.275000 0
0.364286 0.275000 0
0.382143 0.275000 0
0.400000 0.275000 0
0.417857 0.275000 0
0.435714 0.275000 0
0.453571 0.275000 0
0.471429 0.275000 0
0.489286 0.275000 0
0.507143 0.275000 0
0.525000 0.275000 0
0.542857 0.275000 0
0.560714 0.275000 0
0.578571 0.275000 0
0.596429 0.275000 0
0.614286 0.275000 0
0.632143 0.275000 0
0.650000 0.275000 0
0.667857 0.275000 0
0.685714 0.275000 0
0.703571 0.275000 0
0.721429 0.275000 0
0.739286 0.275000 0
0.757143 0.275000 0
0.775000 0.275000 0
0.792857 0.275000 0
0.810714 0.275000 0
0.828571 0.275000 0
0.846429 0.275000 0
0.864286 0.275000 0
0.882143 0.275000 0
0.150000 0.292857 0
0.167857 0.292857 0
0.185714 0.292857 0
0.203571 0.292857 0
0.221429 0.292857 0
0.239286 0.292857 0
0.257143 0.292857 0
0.275000 0.292857 0
0.292857 0.292857 0
0.310714 0.292857 0
0.328571 0.292857 0
0.346429 0.292857 0
0.364286 0.292857 0
0.382143 0.292857 0
0.400000 0.292857 0
0.417857 0.292857 0
0.435714 0.292857 0
0.453571 0.292857 0
0.471429 0.292857 0
0.489286 0.292857 0
0.507143 0.292857 0
0.525000 0.292857 0
0.542857 0.292857 0
0.560714 0.292857 0
0.578571 0.292857 0
0.596429 0.292857 0
0.614286 0.292857 0
0.632143 0.292857 0
0.650000 0.292857 0
0.667857 0.292857 0
0.685714 0.292857 0
0.703571 0.292857 0
0.721429 0.292857 0
0.739286 0.292857 0
0.757143 0.292857 0
0.775000 0.292857 0
0.792857 0.292857 0
0.810714 0.292857 0
0.828571 0.292857 0
0.846429 0.292857 0
0.864286 0.292857 0
0.882143 0.292857 0
0.150000 0.310714 0
0.167857 0.310714 0
0.185714 0.310714 0
0.203571 0.310714 0
0.221429 0.310714 0
0.239286 0.310714 0
0.257143 0.310714 0
0.275000 0.310714 0
0.292857 0.310714 0
0.310714 0.310714 0
0.328571 0.310714 0
0.346429 0.310714 0
0.364286 0.310714 0
0.382143 0.310714 0
0.400000 0.310714 0
0.417857 0.310714 0
0.435714 0.310714 0
0.453571 0.310714 0
0.471429 0.310714 0
0.489286 0.310714 0
0.507143 0.310714 0
0.525000 0.310714 0
0.542857 0.310714 0
0.560714 0.310714 0
0.578571 0.310714 0
0.596429 0.310714 0
0.614286 0.310714 0
0.632143 0.310714 0
0.650000 0.310714 0
0.667857 0.310714 0
0.685714 0.310714 0
0.703571 0.310714 0
0.721429 0.310714 0
0.739286 0.310714 0
0.757143 0.310714 0
0.775000 0.310714 0
0.792857 0.310714 0
0.810714 0.310714 0
0.828571 0.310714 0
0.846429 0.310714 0
0.864286 0.310714 0
0.882143 0.310714 0
0.150000 0.328571 0
0.167857 0.328571 0
0.185714 0.328571 0
0.203571 0.328571 0
0.221429 0.328571 0
0.239286 0.328571 0
0.257143 0.328571 0
0.275000 0.328571 0
0.292857 0.328571 0
0.310714 0.328571 0
0.328571 0.328571 0
0.346429 0.328571 0
0.364286 0.328571 0
0.382143 0.328571 0
0.400000 0.328571 0
0.417857 0.328571 0
0.435714 0.328571 0
0.453571 0.328571 0
0.471429 0.328571 0
0.489286 0.328571 0
0.507143 0.328571 0
0.525000 0.328571 0
0.542857 0.328571 0
0.560714 0.328571 0
0.578571 0.328571 0
0.596429 0.328571 0
0.614286 0.328571 0
0.632143 0.328571 0
0.650000 0.328571 0
0.667857 0.328571 0
0.685714 0.328571 0
0.703571 0.328571 0
0.721429 0.328571 0
0.739286 0.328571 0
0.757143 0.328571 0
0.775000 0.328571 0
0.792857 0.328571 0
0.810714 0.328571 0
0.828571 0.328571 0
0.846429 0.328571 0
0.864286 0.328571 0
0.882143 0.328571 0
0.150000 0.346429 0
0.167857 0.346429 0
0.185714 0.346429 0
0.203571 0.346429 0
0.221429 0.346429 0
0.239286 0.346429 0
0.257143 0.346429 0
0.275000 0.346429 0
0.292857 0.346429 0
0.310714 0.346429 0
0.328571 0.346429 0
0.346429 0.346429 0
0.364286 0.346429 0
0.382143 0.346429 0
0.400000 0.346429 0
0.417857 0.346429 0
0.435714 0.346429 0
0.453571 0.346429 0
0.471429 0.346429 0
0.489286 0.346429 0
0.507143 0.346429 0
0.525000 0.346429 0
0.542857 0.346429 0
0.560714 0.346429 0
0.578571 0.346429 0
0.596429 0.346429 0
0.614286 0.346429 0
0.632143 0.346429 0
0.650000 0.346429 0
[...]
POINT_DATA 1764 

VECTORS velocity float
0.000000 0.000000 0
0.000002 0.000000 0
0.000010 0.000000 0
0.000003 0.000000 0
0.000006 0.000000 0
0.000025 0.000000 0
0.000032 0.000000 0
0.000035 0.000000 0
0.000038 0.000000 0
0.000040 0.000000 0
0.000041 0.000000 0
0.000043 0.000000 0
0.000044 0.000000 0
0.000046 0.000000 0
0.000047 0.000000 0
0.000048 0.000000 0
0.000049 0.000000 0
0.000049 0.000000 0
0.000049 0.000000 0
0.000049 0.000000 0
0.000049 0.000000 0
0.000049 0.000000 0
0.000049 0.000000 0
0.000049 0.000000 0
0.000048 0.000000 0
0.000048 0.000000 0
0.000047 0.000000 0
0.000047 0.000000 0
0.000046 0.000000 0
0.000046 0.000000 0
0.000044 0.000000 0
0.000043 0.000000 0
0.000040 0.000000 0
0.000037 0.000000 0
0.000033 0.000000 0
0.000029 0.000000 0
0.000023 0.000000 0
0.000017 0.000000 0
0.000011 0.000000 0
0.000005 0.000000 0
0.000000 0.000000 0
0.000000 0.000000 0
0.000000 -0.000002 0
0.071351 -0.062388 0
0.102007 -0.014523 0
0.068172 -0.002219 0
0.011783 0.030809 0
-0.067821 0.086372 0
-0.164053 0.105009 0
-0.260874 0.101451 0
-0.351881 0.093897 0
-0.433104 0.083356 0
-0.502949 0.071775 0
-0.561290 0.060371 0
-0.608954 0.049930 0
-0.647244 0.040827 0
-0.677612 0.033156 0
-0.701446 0.026840 0
-0.719962 0.021700 0
-0.734164 0.017527 0
-0.744853 0.014129 0
-0.752663 0.011346 0
-0.758093 0.009051 0
-0.761535 0.007142 0
-0.763298 0.005539 0
-0.763602 0.004142 0
-0.762641 0.002833 0
-0.760523 0.001510 0
-0.757203 0.000051 0
-0.752514 -0.001708 0
-0.746126 -0.003968 0
-0.737500 -0.006992 0
-0.725808 -0.011186 0
-0.709819 -0.017084 0
-0.687786 -0.025343 0
-0.657294 -0.036777 0
-0.615114 -0.052282 0
-0.557145 -0.072591 0
-0.478683 -0.097533 0
-0.375577 -0.124267 0
-0.247525 -0.142201 0
-0.106750 -0.116857 0
-0.000466 0.000005 0
0.000000 0.043404 0
0.000000 -0.000003 0
0.008561 -0.102007 0
-0.015289 0.003179 0
-0.076575 0.090224 0
-0.176126 0.135993 0
-0.261479 0.175837 0
-0.338652 0.193053 0
-0.414498 0.187828 0
-0.483102 0.172230 0
-0.542021 0.151067 0
-0.590547 0.128186 0
-0.629199 0.106005 0
-0.659147 0.085954 0
-0.681797 0.068659 0
-0.698511 0.054202 0
-0.710465 0.042350 0
-0.718601 0.032717 0
-0.723654 0.024891 0
-0.726183 0.018500 0
-0.726617 0.013240 0
-0.725290 0.008872 0
-0.722463 0.005205 0
-0.718353 0.002066 0
-0.713288 -0.000657 0
-0.707366 -0.003078 0
-0.700645 -0.005438 0
-0.693113 -0.008010 0
-0.684671 -0.011077 0
-0.675098 -0.015014 0
-0.664013 -0.020318 0
-0.650808 -0.027681 0
-0.634623 -0.038023 0
-0.614205 -0.052525 0
-0.587782 -0.072672 0
-0.552894 -0.100148 0
-0.506237 -0.136430 0
-0.443667 -0.181568 0
-0.360650 -0.231158 0
-0.254131 -0.268827 0
-0.127107 -0.247525 0
-0.000747 0.000011 0
0.000000 0.106761 0
0.000000 -0.000008 0
-0.061395 -0.047098 0
-0.140964 0.070612 0
-0.203493 0.158618 0
-0.277384 0.215713 0
-0.346396 0.248898 0
-0.404069 0.258029 0
-0.454164 0.245900 0
-0.495443 0.221420 0
-0.527805 0.190801 0
-0.551959 0.158953 0
-0.569208 0.128972 0
-0.581029 0.102529 0
-0.588770 0.080190 0
-0.593495 0.061823 0
-0.595959 0.046930 0
-0.596653 0.034889 0
-0.595885 0.025109 0
-0.593854 0.017093 0
-0.590698 0.010452 0
-0.586538 0.004896 0
-0.581495 0.000206 0
-0.575898 -0.003635 0
-0.569764 -0.006845 0
-0.563166 -0.009811 0
-0.556116 -0.012743 0
-0.548649 -0.015924 0
-0.540732 -0.019723 0
-0.532252 -0.024625 0
-0.522990 -0.031283 0
-0.512590 -0.040576 0
-0.500536 -0.053688 0
-0.486060 -0.072184 0
-0.468026 -0.098088 0
-0.444740 -0.133827 0
-0.413666 -0.181819 0
-0.371082 -0.243120 0
-0.311807 -0.313803 0
-0.229634 -0.375743 0
-0.120457 -0.370987 0
-0.000920 0.000017 0
0.000000 0.170523 0
0.000000 -0.000019 0
-0.097721 0.038957 0
-0.179519 0.145277 0
-0.249223 0.226644 0
-0.311170 0.278896 0
-0.363232 0.302521 0
-0.402526 0.300821 0
-0.431420 0.279203 0
-0.451055 0.245870 0
-0.463095 0.207583 0
-0.469393 0.169590 0
-0.471801 0.135076 0
-0.471876 0.105516 0
-0.470705 0.081125 0
-0.468902 0.061391 0
-0.466706 0.045508 0
-0.464119 0.032644 0
-0.461033 0.022092 0
-0.457318 0.013313 0
-0.452881 0.005924 0
-0.447691 -0.000331 0
-0.441983 -0.005435 0
-0.435727 -0.009665 0
-0.428894 -0.013389 0
-0.421655 -0.016726 0
-0.414166 -0.019955 0
-0.406536 -0.023394 0
-0.398822 -0.027474 0
-0.391012 -0.032756 0
-0.383021 -0.039980 0
-0.374688 -0.050135 0
-0.365772 -0.064553 0
-0.355906 -0.085034 0
-0.344517 -0.113991 0
-0.330633 -0.154509 0
-0.312534 -0.210089 0
-0.287142 -0.283427 0
-0.249181 -0.372606 0
-0.190646 -0.460177 0
-0.103164 -0.477159 0
-0.000968 0.000023 0
0.000000 0.227230 0
0.000000 -0.000023 0
-0.098543 0.132421 0
-0.181146 0.222114 0
-0.248596 0.290268 0
-0.301309 0.329721 0
-0.340022 0.340254 0
-0.364949 0.326217 0
-0.378723 0.294430 0
-0.383834 0.253095 0
-0.383045 0.209138 0
-0.378935 0.167659 0
-0.373621 0.131455 0
-0.368511 0.101432 0
-0.364263 0.077216 0
-0.360933 0.057825 0
-0.358207 0.042147 0
-0.355615 0.029216 0
-0.352687 0.018308 0
-0.349044 0.008941 0
-0.344448 0.000826 0
-0.338852 -0.006002 0
-0.332272 -0.011758 0
-0.324638 -0.016724 0
-0.316310 -0.020917 0
-0.307567 -0.024539 0
-0.298715 -0.027862 0
-0.289986 -0.031267 0
-0.281539 -0.035246 0
-0.273441 -0.040427 0
-0.265685 -0.047607 0
-0.258207 -0.057825 0
-0.250914 -0.072469 0
-0.243681 -0.093439 0
-0.236321 -0.123361 0
-0.228442 -0.165810 0
-0.219115 -0.225310 0
-0.206164 -0.306473 0
-0.184963 -0.410299 0
-0.147193 -0.521760 0
-0.082110 -0.561633 0
-0.000913 0.000029 0
0.000000 0.273698 0
0.000000 -0.000027 0
-0.086911 0.220103 0
-0.163808 0.295330 0
-0.224294 0.346806 0
-0.268220 0.370322 0
-0.296768 0.366161 0
-0.311603 0.339522 0
-0.315827 0.298087 0
-0.312722 0.250193 0
-0.305697 0.202684 0
-0.297705 0.160165 0
-0.290845 0.124651 0
-0.286128 0.096158 0
-0.283595 0.073547 0
-0.282657 0.055335 0
-0.282455 0.040189 0
-0.282114 0.027123 0
-0.280892 0.015521 0
-0.278241 0.005074 0
-0.273833 -0.004268 0
-0.267604 -0.012508 0
-0.259415 -0.019649 0
-0.249706 -0.025627 0
-0.238922 -0.030460 0
-0.227594 -0.034321 0
-0.216234 -0.037536 0
-0.205278 -0.040570 0
-0.195037 -0.044020 0
-0.185683 -0.048610 0
-0.177257 -0.055214 0
-0.169706 -0.064907 0
-0.162955 -0.079079 0
-0.156942 -0.099627 0
-0.151637 -0.129230 0
-0.146971 -0.171715 0
-0.142614 -0.232367 0
-0.137334 -0.317580 0
-0.127673 -0.431577 0
-0.106205 -0.563030 0
-0.061408 -0.624353 0
-0.000793 0.000034 0
0.000000 0.309350 0
0.000000 -0.000029 0
-0.072623 0.296229 0
-0.138831 0.359497 0
-0.190117 0.394681 0
-0.225685 0.402195 0
-0.246557 0.383637 0
-0.254883 0.345276 0
-0.254003 0.295549 0
-0.247617 0.242966 0
-0.239452 0.194121 0
-0.232521 0.152806 0
-0.228569 0.119877 0
-0.227934 0.094182 0
-0.229917 0.073746 0
-0.233332 0.056685 0
-0.236921 0.041604 0
-0.239573 0.027653 0
-0.240422 0.014434 0
-0.238860 0.001882 0
-0.234527 -0.009811 0
-0.227298 -0.020420 0
-0.217394 -0.029657 0
-0.205292 -0.037217 0
-0.191614 -0.043029 0
-0.177079 -0.047227 0
-0.162429 -0.050178 0
-0.148345 -0.052464 0
-0.135371 -0.054841 0
-0.123863 -0.058207 0
-0.113969 -0.063584 0
-0.105652 -0.072127 0
-0.098805 -0.085233 0
-0.093319 -0.104757 0
-0.089134 -0.133333 0
-0.086240 -0.174833 0
-0.084580 -0.234947 0
-0.083616 -0.321415 0
-0.081138 -0.441428 0
-0.071319 -0.588025 0
-0.043262 -0.667838 0
-0.000645 0.000038 0
0.000000 0.335116 0
0.000000 -0.000032 0
-0.057848 0.358935 0
-0.112086 0.412824 0
-0.153769 0.433660 0
-0.181811 0.426762 0
-0.197007 0.395359 0
-0.201550 0.346968 0
-0.198789 0.290822 0
-0.192559 0.235642 0
-0.186611 0.187588 0
-0.183665 0.149281 0
-0.184773 0.120065 0
-0.189447 0.097506 0
-0.196360 0.078945 0
-0.203979 0.062339 0
-0.210904 0.046430 0
-0.215994 0.030624 0
-0.218392 0.014808 0
-0.217526 -0.000821 0
-0.213087 -0.015830 0
-0.205035 -0.029641 0
-0.193727 -0.041655 0
-0.179675 -0.051407 0
-0.163573 -0.058672 0
-0.146233 -0.063506 0
-0.128534 -0.066270 0
-0.111342 -0.067627 0
-0.095426 -0.068502 0
-0.081371 -0.070012 0
-0.069518 -0.073424 0
-0.059945 -0.080071 0
-0.052565 -0.091412 0
-0.047236 -0.109298 0
-0.043807 -0.136309 0
-0.042164 -0.176269 0
-0.042245 -0.234990 0
-0.043818 -0.321022 0
-0.045634 -0.443875 0
-0.043612 -0.600906 0
-0.028507 -0.695671 0
-0.000500 0.000042 0
0.000000 0.352621 0
0.000000 -0.000033 0
-0.043751 0.408315 0
-0.086428 0.455418 0
-0.119128 0.464405 0
-0.140727 0.445433 0
-0.151849 0.403376 0
-0.154536 0.347058 0
-0.151973 0.286557 0
-0.147885 0.230788 0
-0.145753 0.185228 0
-0.147662 0.150968 0
-0.153801 0.125659 0
-0.163010 0.105769 0
-0.173655 0.088277 0
-0.184161 0.071229 0
-0.193196 0.053620 0
-0.199699 0.035141 0
-0.202886 0.015966 0
-0.202251 -0.003424 0
-0.197571 -0.022302 0
-0.188956 -0.039780 0
-0.176763 -0.055017 0
-0.161532 -0.067371 0
-0.143958 -0.076471 0
-0.124868 -0.082265 0
-0.105177 -0.085069 0
-0.085818 -0.085572 0
-0.067688 -0.084812 0
-0.051543 -0.084115 0
-0.037902 -0.085010 0
-0.027044 -0.089080 0
-0.018996 -0.097942 0
-0.013660 -0.113515 0
-0.010831 -0.138405 0
-0.010270 -0.176395 0
-0.011777 -0.233293 0
-0.015113 -0.318025 0
-0.019566 -0.441633 0
-0.022600 -0.605153 0
-0.017103 -0.711450 0
-0.000375 0.000045 0
0.000000 0.363630 0
0.000000 -0.000034 0
-0.030872 0.445363 0
-0.063049 0.488200 0
-0.087789 0.487958 0
-0.104043 0.459483 0
-0.112305 0.409169 0
-0.114368 0.347091 0
-0.113101 0.284170 0
-0.111892 0.229423 0
-0.113676 0.187365 0
-0.119731 0.157330 0
-0.129520 0.135413 0
-0.141561 0.117360 0
-0.154243 0.100097 0
-0.166137 0.081880 0
-0.176056 0.061967 0
-0.183049 0.040314 0
-0.186411 0.017360 0
-0.185710 -0.006135 0
-0.180803 -0.029126 0
-0.171893 -0.050449 0
-0.159354 -0.069079 0
-0.143708 -0.084212 0
-0.125621 -0.095336 0
-0.105886 -0.102287 0
-0.085410 -0.105320 0
-0.065113 -0.105116 0
-0.045933 -0.102776 0
-0.028685 -0.099798 0
-0.013990 -0.097923 0
-0.002307 -0.098976 0
0.006100 -0.104797 0
0.011295 -0.117463 0
0.013497 -0.139699 0
0.012992 -0.175323 0
0.010111 -0.230147 0
0.005300 -0.313233 0
-0.000803 -0.436387 0
-0.007130 -0.603369 0
-0.008566 -0.718272 0
-0.000277 0.000047 0
0.000000 0.369729 0
0.000000 -0.000035 0
-0.019341 0.471364 0
-0.042198 0.512335 0
-0.060037 0.505399 0
-0.071892 0.469949 0
-0.078146 0.413702 0
-0.080256 0.347853 0
-0.080626 0.284080 0
-0.082105 0.231363 0
-0.086911 0.193067 0
-0.095582 0.166811 0
-0.107189 0.147489 0
-0.120272 0.130492 0
-0.133430 0.112853 0
-0.145444 0.093043 0
-0.155280 0.070532 0
-0.162076 0.045496 0
-0.165185 0.018628 0
-0.164241 -0.009032 0
-0.159204 -0.036119 0
-0.150334 -0.061229 0
-0.137998 -0.083202 0
-0.122675 -0.101104 0
-0.104960 -0.114294 0
-0.085571 -0.122477 0
-0.065383 -0.125842 0
-0.045288 -0.125049 0
-0.026193 -0.121241 0
-0.008891 -0.116058 0
0.005855 -0.111387 0
0.017524 -0.109170 0
0.025785 -0.111544 0
0.030576 -0.120911 0
0.032040 -0.140101 0
0.030443 -0.173009 0
0.026189 -0.225602 0
0.019870 -0.307110 0
0.012269 -0.429203 0
0.003998 -0.597390 0
-0.002229 -0.718581 0
-0.000205 0.000049 0
0.000000 0.372199 0
0.000000 -0.000036 0
-0.009022 0.487561 0
-0.023643 0.528896 0
-0.035467 0.517653 0
-0.043633 0.477593 0
-0.048399 0.417533 0
-0.050813 0.349571 0
-0.052686 0.286018 0
-0.056141 0.235708 0
-0.062648 0.200842 0
-0.072238 0.177608 0
-0.083928 0.160103 0
-0.096490 0.143600 0
-0.108807 0.125269 0
-0.119890 0.103731 0
-0.128853 0.078599 0
-0.134912 0.050219 0
-0.137449 0.019525 0
-0.136155 -0.012117 0
-0.131149 -0.043034 0
-0.122718 -0.071654 0
-0.111163 -0.096737 0
-0.096878 -0.117250 0
-0.080370 -0.132440 0
-0.062243 -0.141864 0
-0.043284 -0.145604 0
-0.024392 -0.144306 0
-0.006372 -0.139173 0
0.009902 -0.131847 0
0.023769 -0.124337 0
0.034662 -0.118906 0
0.042228 -0.117850 0
0.046250 -0.123718 0
0.046754 -0.139566 0
0.043985 -0.169472 0
0.038380 -0.219573 0
0.030586 -0.299313 0
0.021445 -0.420516 0
0.011702 -0.588872 0
0.002433 -0.714274 0
-0.000150 0.000050 0
0.000000 0.371960 0
0.000000 -0.000035 0
0.000103 0.495007 0
-0.006878 0.538779 0
-0.013308 0.525389 0
-0.018239 0.482882 0
-0.021802 0.420882 0
-0.024593 0.352140 0
-0.027574 0.289408 0
-0.032142 0.241325 0
-0.039052 0.209164 0
-0.048086 0.188091 0
-0.058428 0.171741 0
-0.069182 0.155372 0
-0.079534 0.136253 0
-0.088739 0.113088 0
-0.096094 0.085553 0
-0.100924 0.054092 0
-0.102642 0.019871 0
-0.100952 -0.015332 0
-0.096219 -0.049556 0
-0.088696 -0.081215 0
-0.078510 -0.109041 0
-0.065919 -0.131898 0
-0.051338 -0.148929 0
-0.035293 -0.159563 0
-0.018400 -0.163693 0
-0.001581 -0.161960 0
0.014408 -0.155535 0
0.028855 -0.146199 0
0.041140 -0.136148 0
0.050638 -0.127630 0
0.056882 -0.123132 0
0.059618 -0.125437 0
0.058825 -0.137836 0
0.054717 -0.164635 0
0.047750 -0.212203 0
0.038638 -0.290175 0
0.028240 -0.410319 0
0.017068 -0.578379 0
0.005767 -0.706879 0
-0.000111 0.000050 0
0.000000 0.369767 0
0.000000 -0.000034 0
0.008218 0.494439 0
0.008578 0.542308 0
0.007228 0.529014 0
0.005388 0.486086 0
0.003017 0.423887 0
-0.000028 0.355344 0
-0.003860 0.293567 0
-0.008918 0.247185 0
-0.015279 0.216786 0
-0.022663 0.196984 0
-0.030596 0.181199 0
-0.038512 0.164706 0
-0.045937 0.144826 0
-0.052374 0.120291 0
-0.057352 0.090784 0
-0.060418 0.056767 0
-0.061109 0.019554 0
-0.059096 -0.018540 0
-0.054985 -0.055290 0
-0.048883 -0.089363 0
-0.040637 -0.119515 0
-0.030298 -0.144423 0
-0.018170 -0.163066 0
-0.004804 -0.174802 0
0.009224 -0.179316 0
0.023282 -0.177115 0
0.036645 -0.169610 0
0.048710 -0.158578 0
0.058751 -0.146120 0
0.066165 -0.134648 0
0.070502 -0.126830 0
0.071492 -0.125662 0
0.069083 -0.134664 0
0.063467 -0.158397 0
0.055107 -0.203495 0
0.044755 -0.279802 0
0.033273 -0.398946 0
0.021020 -0.566399 0
0.008163 -0.697206 0
-0.000085 0.000050 0
0.000000 0.366194 0
0.000000 -0.000033 0
0.015818 0.486430 0
0.023206 0.539769 0
0.026832 0.528579 0
0.028133 0.487093 0
0.027139 0.426298 0
0.024105 0.359017 0
0.019589 0.298298 0
0.014344 0.252744 0
0.008983 0.222909 0
0.003807 0.203408 0
-0.001109 0.187591 0
-0.005587 0.170713 0
-0.009445 0.150115 0
-0.012430 0.124503 0
-0.014306 0.093597 0
-0.014894 0.057849 0
-0.014149 0.018549 0
-0.012187 -0.021456 0
-0.009133 -0.059770 0
-0.004782 -0.095564 0
0.001143 -0.127626 0
0.008799 -0.154364 0
0.018033 -0.174422 0
0.028385 -0.186956 0
0.039259 -0.191779 0
0.050181 -0.189382 0
0.060520 -0.180963 0
0.069592 -0.168304 0
0.076780 -0.153603 0
0.081549 -0.139381 0
0.083484 -0.128459 0
0.082328 -0.124018 0
0.078020 -0.129810 0
0.070745 -0.150659 0
0.060975 -0.193491 0
0.049484 -0.268341 0
0.037097 -0.386584 0
0.023971 -0.553269 0
0.009944 -0.685859 0
-0.000069 0.000050 0
0.000000 0.361603 0
0.000000 -0.000030 0
0.023228 0.471232 0
0.037546 0.531294 0
0.046139 0.524088 0
0.050678 0.485779 0
0.051294 0.427915 0
0.048538 0.362894 0
0.043628 0.303328 0
0.038297 0.257792 0
0.033890 0.227323 0
0.030852 0.207075 0
0.028979 0.190593 0
0.028004 0.173042 0
0.027845 0.151668 0
0.028482 0.125152 0
0.029899 0.093248 0
0.031966 0.056611 0
0.034197 0.016848 0
0.036010 -0.023555 0
0.037980 -0.062695 0
0.040712 -0.099639 0
0.044569 -0.133095 0
0.049755 -0.161312 0
0.056171 -0.182651 0
0.063483 -0.196029 0
0.071191 -0.201112 0
0.078747 -0.198375 0
0.085607 -0.189020 0
0.091229 -0.174838 0
0.095103 -0.158077 0
0.096784 -0.141351 0
0.095925 -0.127609 0
0.092307 -0.120198 0
0.085888 -0.123082 0
0.076853 -0.141351 0
0.065684 -0.182234 0
0.053164 -0.255924 0
0.040040 -0.373433 0
0.026240 -0.539245 0
0.011297 -0.673235 0
-0.000057 0.000049 0
0.000000 0.356249 0
0.000000 -0.000026 0
0.030611 0.448884 0
0.051918 0.516857 0
0.065590 0.515447 0
0.073544 0.481939 0
0.076088 0.428438 0
0.073999 0.366682 0
0.068974 0.308540 0
0.063492 0.262482 0
0.059613 0.230354 0
0.058124 0.208318 0
0.058733 0.190438 0
0.060813 0.171848 0
0.063924 0.149638 0
0.067721 0.122449 0
0.071869 0.090113 0
0.075913 0.053551 0
0.079156 0.014505 0
0.081239 -0.025239 0
0.082850 -0.064471 0
0.084754 -0.102153 0
0.087392 -0.136670 0
0.090867 -0.165966 0
0.095028 -0.188151 0
0.099550 -0.201976 0
0.104032 -0.207042 0
0.108057 -0.203798 0
0.111209 -0.193445 0
0.113092 -0.177800 0
0.113337 -0.159158 0
0.111625 -0.140203 0
0.107704 -0.123982 0
0.101419 -0.113981 0
0.092760 -0.114356 0
0.081933 -0.130455 0
0.069429 -0.169802 0
0.056020 -0.242697 0
0.042328 -0.359660 0
0.028016 -0.524526 0
0.012353 -0.659619 0
-0.000049 0.000049 0
0.000000 0.350305 0
0.000000 -0.000022 0
0.037989 0.419314 0
0.066414 0.496315 0
0.085368 0.502461 0
0.096996 0.475281 0
0.101876 0.427461 0
0.100955 0.370008 0
0.096198 0.313834 0
0.090528 0.267153 0
0.086606 0.232691 0
0.085741 0.207955 0
0.087808 0.187903 0
0.091988 0.167851 0
0.097468 0.144761 0
0.103542 0.117207 0
0.109563 0.085056 0
0.114880 0.049324 0
0.118904 0.011522 0
0.121695 -0.027249 0
0.123870 -0.066210 0
0.126007 -0.104182 0
0.128344 -0.139209 0
0.130822 -0.168949 0
0.133218 -0.191334 0
0.135253 -0.205032 0
0.136644 -0.209619 0
0.137129 -0.205553 0
0.136477 -0.194055 0
0.134473 -0.176966 0
0.130926 -0.156611 0
0.125663 -0.135719 0
0.118548 -0.117402 0
0.109509 -0.105254 0
0.098590 -0.103596 0
0.086023 -0.118020 0
0.072312 -0.156321 0
0.058193 -0.228823 0
0.044109 -0.345428 0
0.029430 -0.509270 0
0.013193 -0.645219 0
-0.000044 0.000048 0
0.000000 0.343896 0
0.000000 -0.000016 0
0.045230 0.382470 0
0.080855 0.469478 0
0.105329 0.484865 0
0.120952 0.465431 0
0.128652 0.424478 0
0.129523 0.372360 0
0.125603 0.318967 0
0.119945 0.272074 0
0.115587 0.235141 0
0.114391 0.207116 0
0.116663 0.184191 0
0.121653 0.162188 0
0.128316 0.138084 0
0.135644 0.110353 0
0.142763 0.078774 0
0.148966 0.044210 0
0.153874 0.007691 0
0.157830 -0.030204 0
0.161250 -0.068783 0
0.164345 -0.106627 0
0.167004 -0.141484 0
0.168948 -0.170840 0
0.169892 -0.192582 0
0.169621 -0.205402 0
0.168001 -0.208919 0
0.164967 -0.203631 0
0.160493 -0.190789 0
0.154574 -0.172249 0
0.147205 -0.150347 0
0.138377 -0.127825 0
0.128082 -0.107829 0
0.116341 -0.094024 0
0.103259 -0.090870 0
0.089103 -0.104177 0
0.074387 -0.141972 0
0.059780 -0.214494 0
0.045492 -0.330897 0
0.030573 -0.493610 0
0.013877 -0.630189 0
-0.000040 0.000047 0
0.000000 0.337111 0
0.000000 -0.000010 0
0.052005 0.338459 0
0.094730 0.436216 0
0.124924 0.462364 0
0.144895 0.451958 0
0.155953 0.418890 0
0.159339 0.373057 0
0.157034 0.323412 0
0.151967 0.277169 0
0.147253 0.238245 0
0.145176 0.206879 0
0.146593 0.180641 0
0.151114 0.156198 0
0.157735 0.130770 0
0.165330 0.102759 0
0.172931 0.071734 0
0.179848 0.038213 0
0.185895 0.002657 0
0.191358 -0.034625 0
0.196338 -0.072725 0
0.200588 -0.109936 0
0.203637 -0.143812 0
0.205028 -0.171837 0
0.204463 -0.192006 0
0.201826 -0.203141 0
0.197156 -0.204965 0
0.190591 -0.198045 0
0.182322 -0.183662 0
0.172551 -0.163678 0
0.161461 -0.140415 0
0.149202 -0.116595 0
0.135891 -0.095366 0
0.121641 -0.080431 0
0.106618 -0.076358 0
0.091130 -0.089149 0
0.075690 -0.126998 0
0.060861 -0.199928 0
0.046560 -0.316222 0
0.031518 -0.477656 0
0.014449 -0.614645 0
-0.000038 0.000047 0
0.000000 0.330017 0
0.000000 -0.000004 0
0.057781 0.287740 0
0.107146 0.396559 0
0.143113 0.434700 0
0.167784 0.434402 0
0.182778 0.410034 0
0.189465 0.371279 0
0.189710 0.326340 0
0.186159 0.281855 0
0.181765 0.241931 0
0.178982 0.207777 0
0.179150 0.178253 0
0.182404 0.151046 0
0.188072 0.123869 0
0.195163 0.095158 0
0.202773 0.064256 0
0.210244 0.031246 0
0.217478 -0.003819 0
0.224403 -0.040647 0
0.230675 -0.078014 0
0.235618 -0.113927 0
0.238512 -0.145925 0
0.238833 -0.171665 0
0.236335 -0.189380 0
0.231037 -0.198095 0
0.223153 -0.197684 0
0.213017 -0.188797 0
0.201021 -0.172749 0
0.187558 -0.151388 0
0.172980 -0.126999 0
0.157577 -0.102255 0
0.141573 -0.080268 0
0.125156 -0.064751 0
0.108542 -0.060359 0
0.092081 -0.073249 0
0.076271 -0.111703 0
0.061522 -0.185364 0
0.047399 -0.301554 0
0.032328 -0.461498 0
0.014947 -0.598671 0
-0.000037 0.000046 0
0.000000 0.322661 0
0.000000 0.000002 0
0.061814 0.231313 0
0.116748 0.350884 0
0.158285 0.401726 0
0.187992 0.412294 0
0.207541 0.397209 0
0.218350 0.366125 0
0.222138 0.326718 0
0.221227 0.285113 0
0.218267 0.245422 0
0.215666 0.209494 0
0.215050 0.177219 0
0.217056 0.147276 0
0.221490 0.118011 0
0.227706 0.088058 0
0.234981 0.056654 0
0.242701 0.023509 0
0.250701 -0.011502 0
0.258415 -0.047822 0
0.265030 -0.083940 0
0.269597 -0.117773 0
0.271317 -0.147027 0
0.269707 -0.169660 0
0.264630 -0.184211 0