# vtk DataFile Version 2.0
generated by CFD-lab course output (written by Tobias Neckel) 
ASCII

DATASET STRUCTURED_GRID
DIMENSIONS  42 42 1 
POINTS 1764 float

0.150000 0.150000 0
0.167857 0.150000 0
0.185714 0.150000 0
0.203571 0.150000 0
0.221429 0.150000 0
0.239286 0.150000 0
0.257143 0.150000 0
0.275000 0.150000 0
0.292857 0.150000 0
0.310714 0.150000 0
0.328571 0.150000 0
0.346429 0.150000 0
0.364286 0.150000 0
0.382143 0.150000 0
0.400000 0.150000 0
0.417857 0.150000 0
0.435714 0.150000 0
0.453571 0.150000 0
0.471429 0.150000 0
0.489286 0.150000 0
0.507143 0.150000 0
0.525000 0.150000 0
0.542857 0.150000 0
0.560714 0.150000 0
0.578571 0.150000 0
0.596429 0.150000 0
0.614286 0.150000 0
0.632143 0.150000 0
0.650000 0.150000 0
0.667857 0.150000 0
0.685714 0.150000 0
0.703571 0.150000 0
0.721429 0.150000 0
0.739286 0.150000 0
0.757143 0.150000 0
0.775000 0.150000 0
0.792857 0.150000 0
0.810714 0.150000 0
0.828571 0.150000 0
0.846429 0.150000 0
0.864286 0.150000 0
0.882143 0.150000 0
0.150000 0.167857 0
0.167857 0.167857 0
0.185714 0.167857 0
0.203571 0.167857 0
0.221429 0.167857 0
0.239286 0.167857 0
0.257143 0.167857 0
0.275000 0.167857 0
0.292857 0.167857 0
0.310714 0.167857 0
0.328571 0.167857 0
0.346429 0.167857 0
0.364286 0.167857 0
0.382143 0.167857 0
0.400000 0.167857 0
0.417857 0.167857 0
0.435714 0.167857 0
0.453571 0.167857 0
0.471429 0.167857 0
0.489286 0.167857 0
0.507143 0.167857 0
0.525000 0.167857 0
0.542857 0.167857 0
0.560714 0.167857 0
0.578571 0.167857 0
0.596429 0.167857 0
0.614286 0.167857 0
0.632143 0.167857 0
0.650000 0.167857 0
0.667857 0.167857 0
0.685714 0.167857 0
0.703571 0.167857 0
0.721429 0.167857 0
0.739286 0.167857 0
0.757143 0.167857 0
0.775000 0.167857 0
0.792857 0.167857 0
0.810714 0.167857 0
0.828571 0.167857 0
0.846429 0.167857 0
0.864286 0.167857 0
0.882143 0.167857 0
0.150000 0.185714 0
0.167857 0.185714 0
0.185714 0.185714 0
0.203571 0.185714 0
0.221429 0.185714 0
0.239286 0.185714 0
0.257143 0.185714 0
0.275000 0.185714 0
0.292857 0.185714 0
0.310714 0.185714 0
0.328571 0.185714 0
0.346429 0.185714 0
0.364286 0.185714 0
0.382143 0.185714 0
0.400000 0.185714 0
0.417857 0.185714 0
0.435714 0.185714 0
0.453571 0.185714 0
0.471429 0.185714 0
0.489286 0.185714 0
0.507143 0.185714 0
0.525000 0.185714 0
0.542857 0.185714 0
0.560714 0.185714 0
0.578571 0.185714 0
0.596429 0.185714 0
0.614286 0.185714 0
0.632143 0.185714 0
0.650000 0.185714 0
0.667857 0.185714 0
0.685714 0.185714 0
0.703571 0.185714 0
0.721429 0.185714 0
0.739286 0.185714 0
0.757143 0.185714 0
0.775000 0.185714 0
0.792857 0.185714 0
0.810714 0.185714 0
0.828571 0.185714 0
0.846429 0.185714 0
0.864286 0.185714 0
0.882143 0.185714 0
0.150000 0.203571 0
0.167857 0.203571 0
0.185714 0.203571 0
0.203571 0.203571 0
0.221429 0.203571 0
0.239286 0.203571 0
0.257143 0.203571 0
0.275000 0.203571 0
0.292857 0.203571 0
0.310714 0.203571 0
0.328571 0.203571 0
0.346429 0.203571 0
0.364286 0.203571 0
0.382143 0.203571 0
0.400000 0.203571 0
0.417857 0.203571 0
0.435714 0.203571 0
0.453571 0.203571 0
0.471429 0.203571 0
0.489286 0.203571 0
0.507143 0.203571 0
0.525000 0.203571 0
0.542857 0.203571 0
0.560714 0.203571 0
0.578571 0.203571 0
0.596429 0.203571 0
0.614286 0.203571 0
0.632143 0.203571 0
0.650000 0.203571 0
0.667857 0.203571 0
0.685714 0.203571 0
0.703571 0.203571 0
0.721429 0.203571 0
0.739286 0.203571 0
0.757143 0.203571 0
0.775000 0.203571 0
0.792857 0.203571 0
0.810714 0.203571 0
0.828571 0.203571 0
0.846429 0.203571 0
0.864286 0.203571 0
0.882143 0.203571 0
0.150000 0.221429 0
0.167857 0.221429 0
0.185714 0.221429 0
0.203571 0.221429 0
0.221429 0.221429 0
0.239286 0.221429 0
0.257143 0.221429 0
0.275000 0.221429 0
0.292857 0.221429 0
0.310714 0.221429 0
0.328571 0.221429 0
0.346429 0.221429 0
0.364286 0.221429 0
0.382143 0.221429 0
0.400000 0.221429 0
0.417857 0.221429 0
0.435714 0.221429 0
0.453571 0.221429 0
0.471429 0.221429 0
0.489286 0.221429 0
0.507143 0.221429 0
0.525000 0.221429 0
0.542857 0.221429 0
0.560714 0.221429 0
0.578571 0.221429 0
0.596429 0.221429 0
0.614286 0.221429 0
0.632143 0.221429 0
0.650000 0.221429 0
0.667857 0.221429 0
0.685714 0.221429 0
0.703571 0.221429 0
0.721429 0.221429 0
0.739286 0.221429 0
0.757143 0.221429 0
0.775000 0.221429 0
0.792857 0.221429 0
0.810714 0.221429 0
0.828571 0.221429 0
0.846429 0.221429 0
0.864286 0.221429 0
0.882143 0.221429 0
0.150000 0.239286 0
0.167857 0.239286 0
0.185714 0.239286 0
0.203571 0.239286 0
0.221429 0.239286 0
0.239286 0.239286 0
0.257143 0.239286 0
0.275000 0.239286 0
0.292857 0.239286 0
0.310714 0.239286 0
0.328571 0.239286 0
0.346429 0.239286 0
0.364286 0.239286 0
0.382143 0.239286 0
0.400000 0.239286 0
0.417857 0.239286 0
0.435714 0.239286 0
0.453571 0.239286 0
0.471429 0.239286 0
0.489286 0.239286 0
0.507143 0.239286 0
0.525000 0.239286 0
0.542857 0.239286 0
0.560714 0.239286 0
0.578571 0.239286 0
0.596429 0.239286 0
0.614286 0.239286 0
0.632143 0.239286 0
0.650000 0.239286 0
0.667857 0.239286 0
0.685714 0.239286 0
0.703571 0.239286 0
0.721429 0.239286 0
0.739286 0.239286 0
0.757143 0.239286 0
0.775000 0.239286 0
0.792857 0.239286 0
0.810714 0.239286 0
0.828571 0.239286 0
0.846429 0.239286 0
0.864286 0.239286 0
0.882143 0.239286 0
0.150000 0.257143 0
0.167857 0.257143 0
0.185714 0.257143 0
0.203571 0.257143 0
0.221429 0.257143 0
0.239286 0.257143 0
0.257143 0.257143 0
0.275000 0.257143 0
0.292857 0.257143 0
0.310714 0.257143 0
0.328571 0.257143 0
0.346429 0.257143 0
0.364286 0.257143 0
0.382143 0.257143 0
0.400000 0.257143 0
0.417857 0.257143 0
0.435714 0.257143 0
0.453571 0.257143 0
0.471429 0.257143 0
0.489286 0.257143 0
0.507143 0.257143 0
0.525000 0.257143 0
0.542857 0.257143 0
0.560714 0.257143 0
0.578571 0.257143 0
0.596429 0.257143 0
0.614286 0.257143 0
0.632143 0.257143 0
0.650000 0.257143 0
0.667857 0.257143 0
0.685714 0.257143 0
0.703571 0.257143 0
0.721429 0.257143 0
0.739286 0.257143 0
0.757143 0.257143 0
0.775000 0.257143 0
0.792857 0.257143 0
0.810714 0.257143 0
0.828571 0.257143 0
0.846429 0.257143 0
0.864286 0.257143 0
0.882143 0.257143 0
0.150000 0.275000 0
0.167857 0.275000 0
0.185714 0.275000 0
0.203571 0.275000 0
0.221429 0.275000 0
0.239286 0.275000 0
0.257143 0.275000 0
0.275000 0.275000 0
0.292857 0.275000 0
0.310714 0.275000 0
0.328571 0.275000 0
0.346429 0.275000 0
0.364286 0.275000 0
0.382143 0.275000 0
0.400000 0.275000 0
0.417857 0.275000 0
0.435714 0.275000 0
0.453571 0.275000 0
0.471429 0.275000 0
0.489286 0.275000 0
0.507143 0.275000 0
0.525000 0.275000 0
0.542857 0.275000 0
0.560714 0.275000 0
0.578571 0.275000 0
0.596429 0.275000 0
0.614286 0.275000 0
0.632143 0.275000 0
0.650000 0.275000 0
0.667857 0.275000 0
0.685714 0.275000 0
0.703571 0.275000 0
0.721429 0.275000 0
0.739286 0.275000 0
0.757143 0.275000 0
0.775000 0.275000 0
0.792857 0.275000 0
0.810714 0.275000 0
0.828571 0.275000 0
0.846429 0.275000 0
0.864286 0.275000 0
0.882143 0.275000 0
0.150000 0.292857 0
0.167857 0.292857 0
0.185714 0.292857 0
0.203571 0.292857 0
0.221429 0.292857 0
0.239286 0.292857 0
0.257143 0.292857 0
0.275000 0.292857 0
0.292857 0.292857 0
0.310714 0.292857 0
0.328571 0.292857 0
0.346429 0.292857 0
0.364286 0.292857 0
0.382143 0.292857 0
0.400000 0.292857 0
0.417857 0.292857 0
0.435714 0.292857 0
0.453571 0.292857 0
0.471429 0.292857 0
0.489286 0.292857 0
0.507143 0.292857 0
0.525000 0.292857 0
0.542857 0.292857 0
0.560714 0.292857 0
0.578571 0.292857 0
0.596429 0.292857 0
0.614286 0.292857 0
0.632143 0.292857 0
0.650000 0.292857 0
0.667857 0.292857 0
0.685714 0.292857 0
0.703571 0.292857 0
0.721429 0.292857 0
0.739286 0.292857 0
0.757143 0.292857 0
0.775000 0.292857 0
0.792857 0.292857 0
0.810714 0.292857 0
0.828571 0.292857 0
0.846429 0.292857 0
0.864286 0.292857 0
0.882143 0.292857 0
0.150000 0.310714 0
0.167857 0.310714 0
0.185714 0.310714 0
0.203571 0.310714 0
0.221429 0.310714 0
0.239286 0.310714 0
0.257143 0.310714 0
0.275000 0.310714 0
0.292857 0.310714 0
0.310714 0.310714 0
0.328571 0.310714 0
0.346429 0.310714 0
0.364286 0.310714 0
0.382143 0.310714 0
0.400000 0.310714 0
0.417857 0.310714 0
0.435714 0.310714 0
0.453571 0.310714 0
0.471429 0.310714 0
0.489286 0.310714 0
0.507143 0.310714 0
0.525000 0.310714 0
0.542857 0.310714 0
0.560714 0.310714 0
0.578571 0.310714 0
0.596429 0.310714 0
0.614286 0.310714 0
0.632143 0.310714 0
0.650000 0.310714 0
0.667857 0.310714 0
0.685714 0.310714 0
0.703571 0.310714 0
0.721429 0.310714 0
0.739286 0.310714 0
0.757143 0.310714 0
0.775000 0.310714 0
0.792857 0.310714 0
0.810714 0.310714 0
0.828571 0.310714 0
0.846429 0.310714 0
0.864286 0.310714 0
0.882143 0.310714 0
0.150000 0.328571 0
0.167857 0.328571 0
0.185714 0.328571 0
0.203571 0.328571 0
0.221429 0.328571 0
0.239286 0.328571 0
0.257143 0.328571 0
0.275000 0.328571 0
0.292857 0.328571 0
0.310714 0.328571 0
0.328571 0.328571 0
0.346429 0.328571 0
0.364286 0.328571 0
0.382143 0.328571 0
0.400000 0.328571 0
0.417857 0.328571 0
0.435714 0.328571 0
0.453571 0.328571 0
0.471429 0.328571 0
0.489286 0.328571 0
0.507143 0.328571 0
0.525000 0.328571 0
0.542857 0.328571 0
0.560714 0.328571 0
0.578571 0.328571 0
0.596429 0.328571 0
0.614286 0.328571 0
0.632143 0.328571 0
0.650000 0.328571 0
0.667857 0.328571 0
0.685714 0.328571 0
0.703571 0.328571 0
0.721429 0.328571 0
0.739286 0.328571 0
0.757143 0.328571 0
0.775000 0.328571 0
0.792857 0.328571 0
0.810714 0.328571 0
0.828571 0.328571 0
0.846429 0.328571 0
0.864286 0.328571 0
0.882143 0.328571 0
0.150000 0.346429 0
0.167857 0.346429 0
0.185714 0.346429 0
0.203571 0.346429 0
0.221429 0.346429 0
0.239286 0.346429 0
0.257143 0.346429 0
0.275000 0.346429 0
0.292857 0.346429 0
0.310714 0.346429 0
0.328571 0.346429 0
0.346429 0.346429 0
0.364286 0.346429 0
0.382143 0.346429 0
0.400000 0.346429 0
0.417857 0.346429 0
0.435714 0.346429 0
0.453571 0.346429 0
0.471429 0.346429 0
0.489286 0.346429 0
0.507143 0.346429 0
0.525000 0.346429 0
0.542857 0.346429 0
0.560714 0.346429 0
0.578571 0.346429 0
0.596429 0.346429 0
0.614286 0.346429 0
0.632143 0.346429 0
0.650000 0.346429 0
[...]
POINT_DATA 1764 

VECTORS velocity float
0.000000 0.000000 0
-0.000002 0.000000 0
-0.000004 0.000000 0
-0.000003 0.000000 0
-0.000003 0.000000 0
-0.000002 0.000000 0
-0.000001 0.000000 0
-0.000004 0.000000 0
-0.000003 0.000000 0
0.000005 0.000000 0
0.000010 0.000000 0
0.000012 0.000000 0
0.000013 0.000000 0
0.000014 0.000000 0
0.000015 0.000000 0
0.000015 0.000000 0
0.000015 0.000000 0
0.000015 0.000000 0
0.000015 0.000000 0
0.000014 0.000000 0
0.000014 0.000000 0
0.000014 0.000000 0
0.000014 0.000000 0
0.000014 0.000000 0
0.000014 0.000000 0
0.000014 0.000000 0
0.000015 0.000000 0
0.000015 0.000000 0
0.000015 0.000000 0
0.000016 0.000000 0
0.000016 0.000000 0
0.000017 0.000000 0
0.000017 0.000000 0
0.000017 0.000000 0
0.000016 0.000000 0
0.000015 0.000000 0
0.000013 0.000000 0
0.000011 0.000000 0
0.000007 0.000000 0
-0.000002 0.000000 0
-0.000000 0.000000 0
0.000000 0.000000 0
0.000000 0.000002 0
0.039650 -0.036274 0
0.069328 -0.020598 0
0.080243 -0.001956 0
0.074416 0.009355 0
0.063482 0.013613 0
0.051566 0.009092 0
0.030542 -0.007927 0
0.001030 -0.000754 0
-0.035750 0.030464 0
-0.081050 0.046189 0
-0.128743 0.048939 0
-0.174850 0.047125 0
-0.217336 0.043643 0
-0.255099 0.039095 0
-0.287755 0.034209 0
-0.315393 0.029426 0
-0.338380 0.025005 0
-0.357221 0.021065 0
-0.372451 0.017627 0
-0.384571 0.014652 0
-0.394003 0.012058 0
-0.401071 0.009750 0
-0.405985 0.007597 0
-0.408825 0.005451 0
-0.409541 0.003165 0
-0.407949 0.000583 0
-0.403819 -0.002456 0
-0.396745 -0.006075 0
-0.386180 -0.010373 0
-0.371431 -0.015510 0
-0.351654 -0.021655 0
-0.325875 -0.028926 0
-0.293051 -0.037347 0
-0.252195 -0.046699 0
-0.202691 -0.056233 0
-0.144977 -0.064009 0
-0.081993 -0.065440 0
-0.022050 -0.044856 0
0.016177 0.003340 0
0.000051 -0.000002 0
0.000000 -0.016314 0
0.000000 0.000004 0
0.031422 -0.069328 0
0.052672 -0.040593 0
0.061598 -0.005088 0
0.050008 0.016761 0
0.028052 0.022849 0
-0.002199 0.032940 0
-0.048528 0.050537 0
-0.114791 0.066292 0
-0.167422 0.082079 0
-0.211310 0.092993 0
-0.251398 0.093800 0
-0.287949 0.088593 0
-0.319788 0.080249 0
-0.346681 0.070419 0
-0.368753 0.060294 0
-0.386396 0.050625 0
-0.400129 0.041828 0
-0.410505 0.034071 0
-0.418042 0.027350 0
-0.423183 0.021552 0
-0.426280 0.016500 0
-0.427584 0.011982 0
-0.427242 0.007755 0
-0.425313 0.003557 0
-0.421750 -0.000877 0
-0.416538 -0.005722 0
-0.409443 -0.011203 0
-0.400175 -0.017639 0
-0.388277 -0.025314 0
-0.373165 -0.034527 0
-0.354166 -0.045556 0
-0.330519 -0.058603 0
-0.301428 -0.073680 0
-0.266139 -0.090360 0
-0.224148 -0.107218 0
-0.175650 -0.120698 0
-0.122399 -0.122927 0
-0.069073 -0.098170 0
-0.019252 -0.022050 0
0.000014 0.000005 0
0.000000 -0.016171 0
0.000000 0.000004 0
0.014792 -0.088946 0
0.017470 -0.050774 0
0.005759 0.000709 0
-0.016079 0.042902 0
-0.051815 0.065820 0
-0.099944 0.085672 0
-0.149345 0.104664 0
-0.196810 0.118141 0
-0.239658 0.126983 0
-0.273719 0.130165 0
-0.301468 0.125578 0
-0.324164 0.115515 0
-0.342221 0.102375 0
-0.356162 0.088061 0
-0.366564 0.073924 0
-0.374026 0.060802 0
-0.379110 0.049115 0
-0.382304 0.038978 0
-0.384002 0.030305 0
-0.384503 0.022890 0
-0.384013 0.016460 0
-0.382661 0.010712 0
-0.380505 0.005325 0
-0.377556 -0.000041 0
-0.373805 -0.005610 0
-0.369158 -0.011724 0
-0.363341 -0.018819 0
-0.356047 -0.027242 0
-0.346880 -0.037383 0
-0.335369 -0.049622 0
-0.320990 -0.064301 0
-0.303183 -0.081664 0
-0.281380 -0.101727 0
-0.255012 -0.123978 0
-0.223528 -0.146722 0
-0.186486 -0.165758 0
-0.143775 -0.172018 0
-0.095999 -0.148004 0
-0.045275 -0.065732 0
-0.000050 0.000011 0
0.000000 0.002951 0
0.000000 0.000002 0
-0.008683 -0.086798 0
-0.029309 -0.031560 0
-0.060914 0.028461 0
-0.089679 0.074335 0
-0.125245 0.106714 0
-0.165726 0.130470 0
-0.204759 0.147404 0
-0.239576 0.156605 0
-0.269138 0.158988 0
-0.291177 0.154802 0
-0.306913 0.144245 0
-0.317676 0.129347 0
-0.324548 0.112247 0
-0.328474 0.094762 0
-0.330253 0.078157 0
-0.330540 0.063170 0
-0.329838 0.050106 0
-0.328514 0.038963 0
-0.326814 0.029549 0
-0.324885 0.021563 0
-0.322801 0.014659 0
-0.320578 0.008474 0
-0.318193 0.002650 0
-0.315597 -0.003144 0
-0.312801 -0.009275 0
-0.309515 -0.016186 0
-0.305573 -0.024315 0
-0.300690 -0.034100 0
-0.294532 -0.045991 0
-0.286702 -0.060417 0
-0.276777 -0.077743 0
-0.264352 -0.098212 0
-0.249062 -0.121851 0
-0.230523 -0.148211 0
-0.208171 -0.175744 0
-0.181044 -0.200452 0
-0.147564 -0.213415 0
-0.105583 -0.196669 0
-0.053791 -0.118049 0
-0.000108 0.000014 0
0.000000 0.029113 0
0.000000 -0.000001 0
-0.030731 -0.059637 0
-0.068800 0.001458 0
-0.102915 0.061079 0
-0.135111 0.107232 0
-0.167687 0.141867 0
-0.199785 0.165186 0
-0.228451 0.178514 0
-0.252032 0.182520 0
-0.269816 0.178583 0
-0.281114 0.167939 0
-0.286940 0.152077 0
-0.288599 0.133150 0
-0.287351 0.113172 0
-0.284265 0.093766 0
-0.280185 0.075990 0
-0.275731 0.060387 0
-0.271322 0.047089 0
-0.267214 0.035953 0
-0.263536 0.026676 0
-0.260325 0.018877 0
-0.257558 0.012153 0
-0.255175 0.006104 0
-0.253104 0.000344 0
-0.251268 -0.005434 0
-0.249529 -0.011692 0
-0.247714 -0.018952 0
-0.245655 -0.027645 0
-0.243115 -0.038282 0
-0.239782 -0.051371 0
-0.235269 -0.067377 0
-0.229166 -0.086651 0
-0.221122 -0.109379 0
-0.210915 -0.135556 0
-0.198368 -0.164869 0
-0.183047 -0.196201 0
-0.163823 -0.226365 0
-0.138355 -0.247479 0
-0.102894 -0.241777 0
-0.054126 -0.171315 0
-0.000148 0.000017 0
0.000000 0.056748 0
0.000000 -0.000003 0
-0.043411 -0.017998 0
-0.087038 0.040624 0
-0.122768 0.094772 0
-0.155297 0.139107 0
-0.184232 0.171388 0
-0.209321 0.191234 0
-0.229384 0.199651 0
-0.243757 0.197971 0
-0.252288 0.188069 0
-0.255207 0.171926 0
-0.253614 0.151731 0
-0.248798 0.129757 0
-0.242014 0.107913 0
-0.234314 0.087597 0
-0.226501 0.069623 0
-0.219129 0.054306 0
-0.212535 0.041589 0
-0.206885 0.031178 0
-0.202215 0.022660 0
-0.198477 0.015585 0
-0.195573 0.009509 0
-0.193389 0.004020 0
-0.191817 -0.001258 0
-0.190772 -0.006719 0
-0.190027 -0.012829 0
-0.189530 -0.020060 0
-0.189155 -0.028914 0
-0.188720 -0.039973 0
-0.187923 -0.053837 0
-0.186337 -0.071034 0
-0.183459 -0.091890 0
-0.178868 -0.116463 0
-0.172387 -0.144605 0
-0.164033 -0.176079 0
-0.153631 -0.210289 0
-0.140254 -0.245144 0
-0.121518 -0.274343 0
-0.093059 -0.280898 0
-0.050257 -0.220944 0
-0.000172 0.000019 0
0.000000 0.083243 0
0.000000 -0.000006 0
-0.046884 0.027401 0
-0.089663 0.080815 0
-0.126267 0.129339 0
-0.157219 0.168697 0
-0.182374 0.195891 0
-0.201768 0.210337 0
-0.215144 0.212950 0
-0.222540 0.205424 0
-0.224340 0.190034 0
-0.221296 0.169266 0
-0.214607 0.145667 0
-0.205549 0.121550 0
-0.195319 0.098689 0
-0.184902 0.078254 0
-0.175029 0.060804 0
-0.166180 0.046420 0
-0.158618 0.034845 0
-0.152429 0.025634 0
-0.147569 0.018269 0
-0.143907 0.012235 0
-0.141271 0.007064 0
-0.139486 0.002348 0
-0.138404 -0.002273 0
-0.137912 -0.007224 0
-0.137874 -0.012934 0
-0.138284 -0.019824 0
-0.139118 -0.028455 0
-0.140287 -0.039514 0
-0.141542 -0.053753 0
-0.142407 -0.071841 0
-0.142224 -0.094120 0
-0.140382 -0.120452 0
-0.136646 -0.150391 0
-0.131169 -0.183625 0
-0.124046 -0.219980 0
-0.114755 -0.258477 0
-0.101366 -0.294674 0
-0.079629 -0.313038 0
-0.044071 -0.264374 0
-0.000179 0.000020 0
0.000000 0.107008 0
0.000000 -0.000007 0
-0.043634 0.071666 0
-0.084454 0.120007 0
-0.119189 0.162328 0
-0.147321 0.195214 0
-0.168695 0.215937 0
-0.183465 0.224003 0
-0.191834 0.220423 0
-0.194273 0.207167 0
-0.191525 0.186825 0
-0.184616 0.162193 0
-0.174793 0.135984 0
-0.163292 0.110469 0
-0.151232 0.087266 0
-0.139510 0.067307 0
-0.128777 0.050902 0
-0.119442 0.037896 0
-0.111715 0.027837 0
-0.105644 0.020128 0
-0.101142 0.014138 0
-0.098020 0.009287 0
-0.096033 0.005088 0
-0.094921 0.001153 0
-0.094455 -0.002831 0
-0.094480 -0.007249 0
-0.094937 -0.012457 0
-0.095859 -0.018816 0
-0.097332 -0.026911 0
-0.099413 -0.037549 0
-0.101988 -0.051717 0
-0.104610 -0.070352 0
-0.106471 -0.093915 0
-0.106728 -0.122041 0
-0.105030 -0.153817 0
-0.101597 -0.188680 0
-0.096709 -0.226703 0
-0.090242 -0.267823 0
-0.080935 -0.309469 0
-0.065146 -0.338194 0
-0.037008 -0.300572 0
-0.000173 0.000020 0
0.000000 0.127315 0
0.000000 -0.000008 0
-0.037731 0.111855 0
-0.074799 0.156370 0
-0.105984 0.192206 0
-0.130549 0.218203 0
-0.148257 0.232034 0
-0.159282 0.233476 0
-0.164026 0.223758 0
-0.163172 0.205115 0
-0.157642 0.180378 0
-0.148561 0.152534 0
-0.137149 0.124343 0
-0.124571 0.097988 0
-0.111839 0.074907 0
-0.099744 0.055799 0
-0.088837 0.040736 0
-0.079469 0.029358 0
-0.071845 0.021047 0
-0.066066 0.015061 0
-0.062080 0.010645 0
-0.059691 0.007125 0
-0.058601 0.003965 0
-0.058470 0.000771 0
-0.058960 -0.002713 0
-0.059789 -0.006742 0
-0.060918 -0.011555 0
-0.062369 -0.017429 0
-0.064262 -0.024901 0
-0.066770 -0.034857 0
-0.069960 -0.048557 0
-0.073516 -0.067358 0
-0.076592 -0.092002 0
-0.078175 -0.121893 0
-0.077864 -0.155521 0
-0.075905 -0.191945 0
-0.072644 -0.231335 0
-0.068221 -0.274252 0
-0.062002 -0.319771 0
-0.051201 -0.356964 0
-0.029995 -0.329519 0
-0.000158 0.000020 0
0.000000 0.144016 0
0.000000 -0.000008 0
-0.031107 0.146465 0
-0.062985 0.188260 0
-0.089710 0.218078 0
-0.110369 0.237487 0
-0.124644 0.244670 0
-0.132670 0.239772 0
-0.134901 0.224313 0
-0.132073 0.200784 0
-0.125137 0.172213 0
-0.115195 0.141701 0
-0.103380 0.111995 0
-0.090742 0.085159 0
-0.078163 0.062438 0
-0.066300 0.044305 0
-0.055589 0.030627 0
-0.046315 0.020904 0
-0.038725 0.014434 0
-0.033111 0.010363 0
-0.029510 0.007763 0
-0.027749 0.005809 0
-0.027488 0.003866 0
-0.028356 0.001512 0
-0.029989 -0.001512 0
-0.031916 -0.005291 0
-0.034057 -0.009877 0
-0.036376 -0.015472 0
-0.038914 -0.022510 0
-0.041840 -0.031851 0
-0.045309 -0.044970 0
-0.049143 -0.063720 0
-0.052571 -0.089257 0
-0.054621 -0.120768 0
-0.055028 -0.156088 0
-0.054060 -0.193899 0
-0.052037 -0.234387 0
-0.049205 -0.278466 0
-0.045373 -0.326489 0
-0.038635 -0.370200 0
-0.023552 -0.351774 0
-0.000138 0.000019 0
0.000000 0.157309 0
0.000000 -0.000008 0
-0.024203 0.174840 0
-0.050359 0.214973 0
-0.072299 0.239590 0
-0.089032 0.253136 0
-0.100198 0.254335 0
-0.105878 0.243734 0
-0.106487 0.223160 0
-0.102710 0.195351 0
-0.095430 0.163500 0
-0.085639 0.130777 0
-0.074336 0.099890 0
-0.062430 0.072771 0
-0.050658 0.050465 0
-0.039526 0.033225 0
-0.029328 0.020752 0
-0.020288 0.012495 0
-0.012746 0.007843 0
-0.007357 0.005846 0
-0.004197 0.005283 0
-0.002937 0.005104 0
-0.003197 0.004572 0
-0.004635 0.003271 0
-0.006964 0.000846 0
-0.009922 -0.002674 0
-0.013150 -0.007095 0
-0.016505 -0.012572 0
-0.019906 -0.019437 0
-0.023441 -0.028462 0
-0.027158 -0.041253 0
-0.030871 -0.060096 0
-0.033913 -0.086524 0
-0.035632 -0.119437 0
-0.036149 -0.156082 0
-0.035746 -0.194936 0
-0.034664 -0.236190 0
-0.033138 -0.280917 0
-0.031223 -0.330340 0
-0.027760 -0.378785 0
-0.017905 -0.368155 0
-0.000118 0.000019 0
0.000000 0.167567 0
0.000000 -0.000008 0
-0.017314 0.196823 0
-0.037697 0.236356 0
-0.054889 0.256752 0
-0.067880 0.265387 0
-0.076310 0.261516 0
-0.080207 0.246060 0
-0.079904 0.221145 0
-0.075976 0.189727 0
-0.069168 0.155141 0
-0.060314 0.120606 0
-0.050251 0.088787 0
-0.039735 0.061481 0
-0.029345 0.039534 0
-0.019420 0.022975 0
-0.010053 0.011390 0
-0.001437 0.004321 0
0.005118 0.001503 0
0.009513 0.001814 0
0.011995 0.003343 0
0.012910 0.004809 0
0.012521 0.005565 0
0.011051 0.005279 0
0.008687 0.003774 0
0.005461 0.000895 0
0.001665 -0.003294 0
-0.002368 -0.008716 0
-0.006510 -0.015573 0
-0.010620 -0.024599 0
-0.014459 -0.037541 0
-0.017671 -0.056965 0
-0.019690 -0.084495 0
-0.020488 -0.118532 0
-0.020673 -0.155974 0
-0.020503 -0.195385 0
-0.020121 -0.236994 0
-0.019701 -0.281906 0
-0.019383 -0.331867 0
-0.018564 -0.383518 0
-0.013096 -0.379533 0
-0.000099 0.000018 0
0.000000 0.175214 0
0.000000 -0.000008 0
-0.010632 0.212537 0
-0.025424 0.252548 0
-0.038084 0.269773 0
-0.047609 0.274557 0
-0.053672 0.266662 0
-0.056257 0.247327 0
-0.055597 0.218930 0
-0.052127 0.184615 0
-0.046417 0.147838 0
-0.039116 0.111860 0
-0.030887 0.079311 0
-0.022322 0.051864 0
-0.013832 0.030151 0
-0.005517 0.013934 0
0.002538 0.002768 0
0.009069 -0.002677 0
0.013524 -0.003107 0
0.016537 -0.001031 0
0.018466 0.001885 0
0.019339 0.004578 0
0.019177 0.006431 0
0.018038 0.007105 0
0.016019 0.006437 0
0.013217 0.004348 0
0.009672 0.000734 0
0.005624 -0.004398 0
0.001355 -0.011186 0
-0.002777 -0.020513 0
-0.006242 -0.034202 0
-0.008316 -0.054864 0
-0.008733 -0.083707 0
-0.008306 -0.118454 0
-0.007937 -0.156067 0
-0.007799 -0.195487 0
-0.007943 -0.236993 0
-0.008471 -0.281654 0
-0.009526 -0.331477 0
-0.010866 -0.385073 0
-0.009055 -0.386718 0
-0.000083 0.000017 0
0.000000 0.180661 0
0.000000 -0.000007 0
-0.004300 0.222247 0
-0.013716 0.263808 0
-0.022135 0.278937 0
-0.028485 0.280975 0
-0.032499 0.270163 0
-0.034133 0.247985 0
-0.033526 0.217015 0
-0.030958 0.180547 0
-0.026815 0.142131 0
-0.021548 0.105077 0
-0.015636 0.071992 0
-0.009522 0.044426 0
-0.003371 0.022728 0
0.002699 0.006605 0
0.008016 -0.003195 0
0.011404 -0.006665 0
0.013811 -0.005965 0
0.015689 -0.003129 0
0.017143 0.000541 0
0.018034 0.004097 0
0.018198 0.006865 0
0.017555 0.008437 0
0.016107 0.008595 0
0.013916 0.007242 0
0.011073 0.004299 0
0.007662 -0.000399 0
0.004031 -0.007172 0
0.000754 -0.017003 0
-0.001340 -0.032001 0
-0.001382 -0.054474 0
0.000189 -0.084506 0
0.001793 -0.119328 0
0.002729 -0.156481 0
0.002911 -0.195379 0
0.002340 -0.236322 0
0.000982 -0.280324 0
-0.001278 -0.329472 0
-0.004414 -0.383989 0
-0.005663 -0.390400 0
-0.000070 0.000016 0
0.000000 0.184268 0
0.000000 -0.000007 0
0.001508 0.226253 0
-0.002634 0.270384 0
-0.007066 0.284542 0
-0.010491 0.284921 0
-0.012693 0.272311 0
-0.013617 0.248354 0
-0.013321 0.215754 0
-0.011945 0.177905 0
-0.009687 0.138427 0
-0.006801 0.100681 0
-0.003588 0.067286 0
-0.000339 0.039599 0
0.002845 0.017929 0
0.005752 0.002546 0
0.007634 -0.005936 0
0.008705 -0.008472 0
0.009465 -0.007392 0
0.010175 -0.004363 0
0.010898 -0.000460 0
0.011534 0.003522 0
0.011844 0.006910 0
0.011649 0.009197 0
0.010855 0.010076 0
0.009458 0.009382 0
0.007539 0.006988 0
0.005261 0.002644 0
0.002964 -0.004278 0
0.001556 -0.015142 0
0.002029 -0.032066 0
0.004622 -0.056393 0
0.008000 -0.086882 0
0.010585 -0.120994 0
0.011995 -0.157185 0
0.012196 -0.195099 0
0.011214 -0.235064 0
0.009055 -0.278036 0
0.005663 -0.326081 0
0.001064 -0.380688 0
-0.002769 -0.391132 0
-0.000061 0.000016 0
0.000000 0.186323 0
0.000000 -0.000006 0
0.006811 0.224881 0
0.007798 0.272383 0
0.007164 0.286794 0
0.006499 0.286601 0
0.006002 0.273289 0
0.005706 0.248614 0
0.005602 0.215343 0
0.005663 0.176913 0
0.005851 0.136987 0
0.006107 0.098977 0
0.006314 0.065531 0
0.006357 0.037993 0
0.006109 0.016636 0
0.005480 0.001816 0
0.004567 -0.006148 0
0.003731 -0.008496 0
0.002979 -0.007435 0
0.002475 -0.004562 0
0.002289 -0.000818 0
0.002382 0.003151 0
0.002598 0.006750 0
0.002726 0.009427 0
0.002596 0.010786 0
0.002148 0.010558 0
0.001451 0.008497 0
0.000748 0.004176 0
0.000602 -0.003467 0
0.002157 -0.016068 0
0.005837 -0.035067 0
0.010831 -0.060445 0
0.015476 -0.090469 0
0.018773 -0.123323 0
0.020477 -0.158092 0
0.020587 -0.194598 0
0.019140 -0.233181 0
0.016160 -0.274773 0
0.011655 -0.321481 0
0.005713 -0.375557 0
-0.000234 -0.389336 0
-0.000055 0.000015 0
0.000000 0.187035 0
0.000000 -0.000006 0
0.011769 0.218455 0
0.017650 0.270031 0
0.020650 0.285841 0
0.022634 0.286084 0
0.023823 0.273104 0
0.024204 0.248753 0
0.023775 0.215798 0
0.022580 0.177655 0
0.020714 0.137983 0
0.018297 0.100218 0
0.015434 0.067035 0
0.012215 0.039804 0
0.008656 0.018807 0
0.004785 0.004088 0
0.001191 -0.004188 0
-0.001444 -0.006885 0
-0.003565 -0.006136 0
-0.005181 -0.003673 0
-0.006258 -0.000367 0
-0.006791 0.003213 0
-0.006819 0.006567 0
-0.006496 0.009199 0
-0.005980 0.010654 0
-0.005334 0.010528 0
-0.004454 0.008388 0
-0.002983 0.003493 0
-0.000030 -0.005687 0
0.004965 -0.020377 0
0.011401 -0.040739 0
0.017936 -0.066032 0
0.023299 -0.094825 0
0.026920 -0.125995 0
0.028653 -0.158999 0
0.028498 -0.193762 0
0.026486 -0.230638 0
0.022650 -0.270551 0
0.017031 -0.315633 0
0.009728 -0.368799 0
0.002030 -0.385420 0
-0.000050 0.000015 0
0.000000 0.186555 0
0.000000 -0.000005 0
0.016401 0.207232 0
0.026988 0.263501 0
0.033509 0.281810 0
0.038049 0.283429 0
0.040932 0.271719 0
0.042109 0.248661 0
0.041560 0.216967 0
0.039367 0.179974 0
0.035728 0.141270 0
0.030931 0.104257 0
0.025315 0.071612 0
0.019206 0.044771 0
0.012799 0.024066 0
0.006245 0.009281 0
0.000010 0.000082 0
-0.004769 -0.003740 0
-0.008148 -0.003699 0
-0.010639 -0.001869 0
-0.012381 0.000792 0
-0.013357 0.003712 0
-0.013559 0.006455 0
-0.013032 0.008587 0
-0.011825 0.009624 0
-0.009910 0.009031 0
-0.007069 0.006146 0
-0.002744 -0.000247 0
0.003608 -0.011415 0
0.011219 -0.027499 0
0.019175 -0.048038 0
0.026313 -0.072343 0
0.031840 -0.099453 0
0.035403 -0.128676 0
0.036884 -0.159670 0
0.036258 -0.192431 0
0.033539 -0.227333 0
0.028761 -0.265317 0
0.021990 -0.308559 0
0.013365 -0.360556 0
0.004074 -0.379607 0
-0.000047 0.000014 0
0.000000 0.185004 0
0.000000 -0.000004 0
0.020646 0.191467 0
0.035756 0.252923 0
0.045734 0.274780 0
0.052781 0.278661 0
0.057407 0.269044 0
0.059568 0.248125 0
0.059219 0.218539 0
0.056457 0.183488 0
0.051549 0.146420 0
0.044927 0.110631 0
0.037139 0.078760 0
0.028744 0.052321 0
0.020150 0.031767 0
0.011655 0.016878 0
0.003564 0.006827 0
-0.003502 0.001273 0
-0.008521 -0.000267 0
-0.011784 0.000560 0
-0.013903 0.002351 0
-0.015008 0.004392 0
-0.015113 0.006243 0
-0.014162 0.007464 0
-0.012069 0.007532 0
-0.008647 0.005772 0
-0.003431 0.001222 0
0.003643 -0.007183 0
0.012033 -0.019650 0
0.020766 -0.035944 0
0.029059 -0.055832 0
0.036086 -0.078697 0
0.041316 -0.103915 0
0.044472 -0.131039 0
0.045418 -0.159854 0
0.044100 -0.190417 0
0.040509 -0.223141 0
0.034680 -0.259002 0
0.026701 -0.300237 0
0.016747 -0.350883 0
0.005949 -0.372055 0
-0.000045 0.000013 0
0.000000 0.182481 0
0.000000 -0.000003 0
0.024353 0.171476 0
0.043758 0.238414 0
0.057163 0.264784 0
0.066730 0.271756 0
0.073196 0.264932 0
0.076585 0.246849 0
0.076837 0.220078 0
0.074048 0.187645 0
0.068526 0.152800 0
0.060802 0.118667 0
0.051579 0.087795 0
0.041608 0.061760 0
0.031506 0.041156 0
0.021752 0.025867 0
0.012706 0.015239 0
0.004490 0.008345 0
-0.002088 0.004583 0
-0.006591 0.003514 0
-0.009163 0.004016 0
-0.010200 0.004922 0
-0.009918 0.005608 0
-0.008256 0.005544 0
-0.004937 0.004109 0
0.000216 0.000393 0
0.007164 -0.006144 0
0.015466 -0.015710 0
0.024268 -0.028538 0
0.032972 -0.044526 0
0.040842 -0.063358 0
0.047268 -0.084600 0
0.051831 -0.107839 0
0.054263 -0.132778 0
0.054404 -0.159299 0
0.052169 -0.187521 0
0.047529 -0.217913 0
0.040524 -0.251509 0
0.031261 -0.290626 0
0.019958 -0.339805 0
0.007706 -0.362861 0
-0.000044 0.000013 0
0.000000 0.179054 0
0.000000 -0.000002 0
0.027285 0.147709 0
0.050644 0.220113 0
0.067453 0.251808 0
0.079620 0.262628 0
0.088085 0.259189 0
0.092989 0.244484 0
0.094287 0.221076 0
0.092065 0.191799 0
0.086649 0.159666 0
0.078618 0.127578 0
0.068765 0.097954 0
0.057965 0.072393 0
0.047001 0.051623 0
0.036501 0.035678 0
0.026937 0.024089 0
0.018565 0.016068 0
0.011524 0.010814 0
0.006181 0.007634 0
0.002959 0.005961 0
0.001775 0.005147 0
0.002450 0.004298 0
0.004941 0.002483 0
0.009314 -0.000940 0
0.015432 -0.006329 0
0.022778 -0.014029 0
0.030950 -0.024287 0
0.039350 -0.037156 0
0.047344 -0.052519 0
0.054329 -0.070129 0
0.059805 -0.089685 0
0.063393 -0.110910 0
0.064819 -0.133613 0
0.063898 -0.157760 0
0.060524 -0.183542 0
0.054658 -0.211496 0
0.046346 -0.242734 0
0.035720 -0.279672 0
0.023039 -0.327327 0
0.009369 -0.352096 0
-0.000043 0.000013 0
0.000000 0.174774 0
0.000000 -0.000001 0
0.029107 0.120832 0
0.055883 0.198246 0
0.076042 0.235809 0
0.090967 0.251123 0
0.101673 0.251563 0
0.108425 0.240647 0
0.111226 0.221002 0
0.110165 0.195282 0
0.105563 0.166247 0
0.098013 0.136550 0
0.088335 0.108447 0
0.077458 0.083525 0
0.066264 0.062620 0
0.055490 0.045931 0
0.045706 0.033175 0
0.037280 0.023759 0
0.030399 0.016968 0
0.025210 0.012078 0
0.021842 0.008422 0
0.020509 0.005430 0
0.021292 0.002442 0
0.024136 -0.001320 0
0.028709 -0.006382 0
0.034673 -0.013072 0
0.041649 -0.021662 0