# vtk DataFile Version 2.0
generated by CFD-lab course output (written by Tobias Neckel) 
ASCII

DATASET STRUCTURED_GRID
DIMENSIONS  42 42 1 
POINTS 1764 float

0.150000 0.150000 0
0.167857 0.150000 0
0.185714 0.150000 0
0.203571 0.150000 0
0.221429 0.150000 0
0.239286 0.150000 0
0.257143 0.150000 0
0.275000 0.150000 0
0.292857 0.150000 0
0.310714 0.150000 0
0.328571 0.150000 0
0.346429 0.150000 0
0.364286 0.150000 0
0.382143 0.150000 0
0.400000 0.150000 0
0.417857 0.150000 0
0.435714 0.150000 0
0.453571 0.150000 0
0.471429 0.150000 0
0.489286 0.150000 0
0.507143 0.150000 0
0.525000 0.150000 0
0.542857 0.150000 0
0.560714 0.150000 0
0.578571 0.150000 0
0.596429 0.150000 0
0.614286 0.150000 0
0.632143 0.150000 0
0.650000 0.150000 0
0.667857 0.150000 0
0.685714 0.150000 0
0.703571 0.150000 0
0.721429 0.150000 0
0.739286 0.150000 0
0.757143 0.150000 0
0.775000 0.150000 0
0.792857 0.150000 0
0.810714 0.150000 0
0.828571 0.150000 0
0.846429 0.150000 0
0.864286 0.150000 0
0.882143 0.150000 0
0.150000 0.167857 0
0.167857 0.167857 0
0.185714 0.167857 0
0.203571 0.167857 0
0.221429 0.167857 0
0.239286 0.167857 0
0.257143 0.167857 0
0.275000 0.167857 0
0.292857 0.167857 0
0.310714 0.167857 0
0.328571 0.167857 0
0.346429 0.167857 0
0.364286 0.167857 0
0.382143 0.167857 0
0.400000 0.167857 0
0.417857 0.167857 0
0.435714 0.167857 0
0.453571 0.167857 0
0.471429 0.167857 0
0.489286 0.167857 0
0.507143 0.167857 0
0.525000 0.167857 0
0.542857 0.167857 0
0.560714 0.167857 0
0.578571 0.167857 0
0.596429 0.167857 0
0.614286 0.167857 0
0.632143 0.167857 0
0.650000 0.167857 0
0.667857 0.167857 0
0.685714 0.167857 0
0.703571 0.167857 0
0.721429 0.167857 0
0.739286 0.167857 0
0.757143 0.167857 0
0.775000 0.167857 0
0.792857 0.167857 0
0.810714 0.167857 0
0.828571 0.167857 0
0.846429 0.167857 0
0.864286 0.167857 0
0.882143 0.167857 0
0.150000 0.185714 0
0.167857 0.185714 0
0.185714 0.185714 0
0.203571 0.185714 0
0.221429 0.185714 0
0.239286 0.185714 0
0.257143 0.185714 0
0.275000 0.185714 0
0.292857 0.185714 0
0.310714 0.185714 0
0.328571 0.185714 0
0.346429 0.185714 0
0.364286 0.185714 0
0.382143 0.185714 0
0.400000 0.185714 0
0.417857 0.185714 0
0.435714 0.185714 0
0.453571 0.185714 0
0.471429 0.185714 0
0.489286 0.185714 0
0.507143 0.185714 0
0.525000 0.185714 0
0.542857 0.185714 0
0.560714 0.185714 0
0.578571 0.185714 0
0.596429 0.185714 0
0.614286 0.185714 0
0.632143 0.185714 0
0.650000 0.185714 0
0.667857 0.185714 0
0.685714 0.185714 0
0.703571 0.185714 0
0.721429 0.185714 0
0.739286 0.185714 0
0.757143 0.185714 0
0.775000 0.185714 0
0.792857 0.185714 0
0.810714 0.185714 0
0.828571 0.185714 0
0.846429 0.185714 0
0.864286 0.185714 0
0.882143 0.185714 0
0.150000 0.203571 0
0.167857 0.203571 0
0.185714 0.203571 0
0.203571 0.203571 0
0.221429 0.203571 0
0.239286 0.203571 0
0.257143 0.203571 0
0.275000 0.203571 0
0.292857 0.203571 0
0.310714 0.203571 0
0.328571 0.203571 0
0.346429 0.203571 0
0.364286 0.203571 0
0.382143 0.203571 0
0.400000 0.203571 0
0.417857 0.203571 0
0.435714 0.203571 0
0.453571 0.203571 0
0.471429 0.203571 0
0.489286 0.203571 0
0.507143 0.203571 0
0.525000 0.203571 0
0.542857 0.203571 0
0.560714 0.203571 0
0.578571 0.203571 0
0.596429 0.203571 0
0.614286 0.203571 0
0.632143 0.203571 0
0.650000 0.203571 0
0.667857 0.203571 0
0.685714 0.203571 0
0.703571 0.203571 0
0.721429 0.203571 0
0.739286 0.203571 0
0.757143 0.203571 0
0.775000 0.203571 0
0.792857 0.203571 0
0.810714 0.203571 0
0.828571 0.203571 0
0.846429 0.203571 0
0.864286 0.203571 0
0.882143 0.203571 0
0.150000 0.221429 0
0.167857 0.221429 0
0.185714 0.221429 0
0.203571 0.221429 0
0.221429 0.221429 0
0.239286 0.221429 0
0.257143 0.221429 0
0.275000 0.221429 0
0.292857 0.221429 0
0.310714 0.221429 0
0.328571 0.221429 0
0.346429 0.221429 0
0.364286 0.221429 0
0.382143 0.221429 0
0.400000 0.221429 0
0.417857 0.221429 0
0.435714 0.221429 0
0.453571 0.221429 0
0.471429 0.221429 0
0.489286 0.221429 0
0.507143 0.221429 0
0.525000 0.221429 0
0.542857 0.221429 0
0.560714 0.221429 0
0.578571 0.221429 0
0.596429 0.221429 0
0.614286 0.221429 0
0.632143 0.221429 0
0.650000 0.221429 0
0.667857 0.221429 0
0.685714 0.221429 0
0.703571 0.221429 0
0.721429 0.221429 0
0.739286 0.221429 0
0.757143 0.221429 0
0.775000 0.221429 0
0.792857 0.221429 0
0.810714 0.221429 0
0.828571 0.221429 0
0.846429 0.221429 0
0.864286 0.221429 0
0.882143 0.221429 0
0.150000 0.239286 0
0.167857 0.239286 0
0.185714 0.239286 0
0.203571 0.239286 0
0.221429 0.239286 0
0.239286 0.239286 0
0.257143 0.239286 0
0.275000 0.239286 0
0.292857 0.239286 0
0.310714 0.239286 0
0.328571 0.239286 0
0.346429 0.239286 0
0.364286 0.239286 0
0.382143 0.239286 0
0.400000 0.239286 0
0.417857 0.239286 0
0.435714 0.239286 0
0.453571 0.239286 0
0.471429 0.239286 0
0.489286 0.239286 0
0.507143 0.239286 0
0.525000 0.239286 0
0.542857 0.239286 0
0.560714 0.239286 0
0.578571 0.239286 0
0.596429 0.239286 0
0.614286 0.239286 0
0.632143 0.239286 0
0.650000 0.239286 0
0.667857 0.239286 0
0.685714 0.239286 0
0.703571 0.239286 0
0.721429 0.239286 0
0.739286 0.239286 0
0.757143 0.239286 0
0.775000 0.239286 0
0.792857 0.239286 0
0.810714 0.239286 0
0.828571 0.239286 0
0.846429 0.239286 0
0.864286 0.239286 0
0.882143 0.239286 0
0.150000 0.257143 0
0.167857 0.257143 0
0.185714 0.257143 0
0.203571 0.257143 0
0.221429 0.257143 0
0.239286 0.257143 0
0.257143 0.257143 0
0.275000 0.257143 0
0.292857 0.257143 0
0.310714 0.257143 0
0.328571 0.257143 0
0.346429 0.257143 0
0.364286 0.257143 0
0.382143 0.257143 0
0.400000 0.257143 0
0.417857 0.257143 0
0.435714 0.257143 0
0.453571 0.257143 0
0.471429 0.257143 0
0.489286 0.257143 0
0.507143 0.257143 0
0.525000 0.257143 0
0.542857 0.257143 0
0.560714 0.257143 0
0.578571 0.257143 0
0.596429 0.257143 0
0.614286 0.257143 0
0.632143 0.257143 0
0.650000 0.257143 0
0.667857 0.257143 0
0.685714 0.257143 0
0.703571 0.257143 0
0.721429 0.257143 0
0.739286 0.257143 0
0.757143 0.257143 0
0.775000 0.257143 0
0.792857 0.257143 0
0.810714 0.257143 0
0.828571 0.257143 0
0.846429 0.257143 0
0.864286 0.257143 0
0.882143 0.257143 0
0.150000 0.275000 0
0.167857 0.275000 0
0.185714 0.275000 0
0.203571 0.275000 0
0.221429 0.275000 0
0.239286 0.275000 0
0.257143 0.275000 0
0.275000 0.275000 0
0.292857 0.275000 0
0.310714 0.275000 0
0.328571 0.275000 0
0.346429 0.275000 0
0.364286 0.275000 0
0.382143 0.275000 0
0.400000 0.275000 0
0.417857 0.275000 0
0.435714 0.275000 0
0.453571 0.275000 0
0.471429 0.275000 0
0.489286 0.275000 0
0.507143 0.275000 0
0.525000 0.275000 0
0.542857 0.275000 0
0.560714 0.275000 0
0.578571 0.275000 0
0.596429 0.275000 0
0.614286 0.275000 0
0.632143 0.275000 0
0.650000 0.275000 0
0.667857 0.275000 0
0.685714 0.275000 0
0.703571 0.275000 0
0.721429 0.275000 0
0.739286 0.275000 0
0.757143 0.275000 0
0.775000 0.275000 0
0.792857 0.275000 0
0.810714 0.275000 0
0.828571 0.275000 0
0.846429 0.275000 0
0.864286 0.275000 0
0.882143 0.275000 0
0.150000 0.292857 0
0.167857 0.292857 0
0.185714 0.292857 0
0.203571 0.292857 0
0.221429 0.292857 0
0.239286 0.292857 0
0.257143 0.292857 0
0.275000 0.292857 0
0.292857 0.292857 0
0.310714 0.292857 0
0.328571 0.292857 0
0.346429 0.292857 0
0.364286 0.292857 0
0.382143 0.292857 0
0.400000 0.292857 0
0.417857 0.292857 0
0.435714 0.292857 0
0.453571 0.292857 0
0.471429 0.292857 0
0.489286 0.292857 0
0.507143 0.292857 0
0.525000 0.292857 0
0.542857 0.292857 0
0.560714 0.292857 0
0.578571 0.292857 0
0.596429 0.292857 0
0.614286 0.292857 0
0.632143 0.292857 0
0.650000 0.292857 0
0.667857 0.292857 0
0.685714 0.292857 0
0.703571 0.292857 0
0.721429 0.292857 0
0.739286 0.292857 0
0.757143 0.292857 0
0.775000 0.292857 0
0.792857 0.292857 0
0.810714 0.292857 0
0.828571 0.292857 0
0.846429 0.292857 0
0.864286 0.292857 0
0.882143 0.292857 0
0.150000 0.310714 0
0.167857 0.310714 0
0.185714 0.310714 0
0.203571 0.310714 0
0.221429 0.310714 0
0.239286 0.310714 0
0.257143 0.310714 0
0.275000 0.310714 0
0.292857 0.310714 0
0.310714 0.310714 0
0.328571 0.310714 0
0.346429 0.310714 0
0.364286 0.310714 0
0.382143 0.310714 0
0.400000 0.310714 0
0.417857 0.310714 0
0.435714 0.310714 0
0.453571 0.310714 0
0.471429 0.310714 0
0.489286 0.310714 0
0.507143 0.310714 0
0.525000 0.310714 0
0.542857 0.310714 0
0.560714 0.310714 0
0.578571 0.310714 0
0.596429 0.310714 0
0.614286 0.310714 0
0.632143 0.310714 0
0.650000 0.310714 0
0.667857 0.310714 0
0.685714 0.310714 0
0.703571 0.310714 0
0.721429 0.310714 0
0.739286 0.310714 0
0.757143 0.310714 0
0.775000 0.310714 0
0.792857 0.310714 0
0.810714 0.310714 0
0.828571 0.310714 0
0.846429 0.310714 0
0.864286 0.310714 0
0.882143 0.310714 0
0.150000 0.328571 0
0.167857 0.328571 0
0.185714 0.328571 0
0.203571 0.328571 0
0.221429 0.328571 0
0.239286 0.328571 0
0.257143 0.328571 0
0.275000 0.328571 0
0.292857 0.328571 0
0.310714 0.328571 0
0.328571 0.328571 0
0.346429 0.328571 0
0.364286 0.328571 0
0.382143 0.328571 0
0.400000 0.328571 0
0.417857 0.328571 0
0.435714 0.328571 0
0.453571 0.328571 0
0.471429 0.328571 0
0.489286 0.328571 0
0.507143 0.328571 0
0.525000 0.328571 0
0.542857 0.328571 0
0.560714 0.328571 0
0.578571 0.328571 0
0.596429 0.328571 0
0.614286 0.328571 0
0.632143 0.328571 0
0.650000 0.328571 0
0.667857 0.328571 0
0.685714 0.328571 0
0.703571 0.328571 0
0.721429 0.328571 0
0.739286 0.328571 0
0.757143 0.328571 0
0.775000 0.328571 0
0.792857 0.328571 0
0.810714 0.328571 0
0.828571 0.328571 0
0.846429 0.328571 0
0.864286 0.328571 0
0.882143 0.328571 0
0.150000 0.346429 0
0.167857 0.346429 0
0.185714 0.346429 0
0.203571 0.346429 0
0.221429 0.346429 0
0.239286 0.346429 0
0.257143 0.346429 0
0.275000 0.346429 0
0.292857 0.346429 0
0.310714 0.346429 0
0.328571 0.346429 0
0.346429 0.346429 0
0.364286 0.346429 0
0.382143 0.346429 0
0.400000 0.346429 0
0.417857 0.346429 0
0.435714 0.346429 0
0.453571 0.346429 0
0.471429 0.346429 0
0.489286 0.346429 0
0.507143 0.346429 0
0.525000 0.346429 0
0.542857 0.346429 0
0.560714 0.346429 0
0.578571 0.346429 0
0.596429 0.346429 0
0.614286 0.346429 0
0.632143 0.346429 0
0.650000 0.346429 0
[...]
POINT_DATA 1764 

VECTORS velocity float
0.000000 0.000000 0
-0.000002 0.000000 0
-0.000004 0.000000 0
-0.000000 0.000000 0
-0.000005 0.000000 0
-0.000004 0.000000 0
0.000018 0.000000 0
0.000031 0.000000 0
0.000035 0.000000 0
0.000038 0.000000 0
0.000039 0.000000 0
0.000039 0.000000 0
0.000038 0.000000 0
0.000036 0.000000 0
0.000034 0.000000 0
0.000032 0.000000 0
0.000030 0.000000 0
0.000028 0.000000 0
0.000026 0.000000 0
0.000025 0.000000 0
0.000024 0.000000 0
0.000023 0.000000 0
0.000022 0.000000 0
0.000022 0.000000 0
0.000021 0.000000 0
0.000021 0.000000 0
0.000021 0.000000 0
0.000022 0.000000 0
0.000022 0.000000 0
0.000023 0.000000 0
0.000024 0.000000 0
0.000025 0.000000 0
0.000027 0.000000 0
0.000028 0.000000 0
0.000030 0.000000 0
0.000031 0.000000 0
0.000030 0.000000 0
0.000028 0.000000 0
0.000022 0.000000 0
0.000013 0.000000 0
0.000000 0.000000 0
0.000000 0.000000 0
0.000000 0.000002 0
0.059975 -0.055512 0
0.091521 -0.020839 0
0.096350 0.005415 0
0.067333 0.003496 0
0.024597 0.010914 0
-0.030068 0.049121 0
-0.098285 0.073259 0
-0.169664 0.074941 0
-0.237572 0.069919 0
-0.299073 0.063174 0
-0.352750 0.055339 0
-0.398372 0.047470 0
-0.436438 0.040182 0
-0.467845 0.033809 0
-0.493632 0.028459 0
-0.514810 0.024081 0
-0.532261 0.020532 0
-0.546700 0.017648 0
-0.558673 0.015262 0
-0.568568 0.013229 0
-0.576643 0.011422 0
-0.583040 0.009737 0
-0.587805 0.008059 0
-0.590881 0.006270 0
-0.592123 0.004266 0
-0.591283 0.001925 0
-0.588142 -0.000845 0
-0.582307 -0.004152 0
-0.573258 -0.008140 0
-0.560297 -0.013045 0
-0.542479 -0.019192 0
-0.518567 -0.026956 0
-0.486961 -0.036781 0
-0.445654 -0.049088 0
-0.392289 -0.064056 0
-0.324513 -0.080963 0
-0.241103 -0.096692 0
-0.144931 -0.101239 0
-0.050390 -0.061811 0
-0.000041 0.000013 0
0.000000 0.012416 0
0.000000 0.000002 0
0.026941 -0.091521 0
0.029564 -0.036374 0
0.002340 0.024188 0
-0.045463 0.071753 0
-0.124070 0.097401 0
-0.197032 0.122881 0
-0.257517 0.139596 0
-0.313806 0.139287 0
-0.365668 0.129409 0
-0.410579 0.115178 0
-0.448082 0.099299 0
-0.478504 0.083688 0
-0.502675 0.069473 0
-0.521607 0.057194 0
-0.536303 0.046965 0
-0.547633 0.038629 0
-0.556308 0.031890 0
-0.562869 0.026412 0
-0.567701 0.021868 0
-0.571063 0.017970 0
-0.573101 0.014472 0
-0.573879 0.011162 0
-0.573374 0.007841 0
-0.571528 0.004318 0
-0.568223 0.000402 0
-0.563365 -0.003981 0
-0.556738 -0.008977 0
-0.548036 -0.014884 0
-0.536854 -0.022010 0
-0.522636 -0.030780 0
-0.504698 -0.041730 0
-0.482147 -0.055518 0
-0.453845 -0.072913 0
-0.418343 -0.094672 0
-0.373865 -0.121141 0
-0.318426 -0.151186 0
-0.250311 -0.179582 0
-0.169682 -0.190713 0
-0.081781 -0.144931 0
-0.000233 0.000023 0
0.000000 0.050413 0
0.000000 -0.000002 0
-0.022426 -0.085076 0
-0.061995 0.003762 0
-0.115775 0.080442 0
-0.166639 0.129907 0
-0.224102 0.162483 0
-0.280057 0.182568 0
-0.325427 0.190033 0
-0.362891 0.183091 0
-0.393730 0.166692 0
-0.418021 0.145588 0
-0.436452 0.123264 0
-0.450015 0.102063 0
-0.459806 0.083285 0
-0.466822 0.067437 0
-0.471868 0.054485 0
-0.475525 0.044086 0
-0.478187 0.035768 0
-0.480092 0.029041 0
-0.481367 0.023457 0
-0.482056 0.018630 0
-0.482142 0.014238 0
-0.481567 0.010010 0
-0.480237 0.005708 0
-0.478050 0.001119 0
-0.474902 -0.003897 0
-0.470688 -0.009560 0
-0.465096 -0.016174 0
-0.457862 -0.024036 0
-0.448660 -0.033540 0
-0.437106 -0.045200 0
-0.422748 -0.059680 0
-0.405032 -0.077809 0
-0.383272 -0.100585 0
-0.356570 -0.129067 0
-0.323696 -0.163973 0
-0.282887 -0.204518 0
-0.231601 -0.245436 0
-0.166645 -0.269768 0
-0.085986 -0.231494 0
-0.000368 0.000029 0
0.000000 0.094214 0
0.000000 -0.000008 0
-0.062484 -0.029526 0
-0.124318 0.056974 0
-0.174151 0.128832 0
-0.222452 0.180080 0
-0.267178 0.210820 0
-0.306213 0.224207 0
-0.335395 0.222430 0
-0.355947 0.207590 0
-0.369556 0.184539 0
-0.377691 0.157900 0
-0.381890 0.131293 0
-0.383574 0.107042 0
-0.383917 0.086280 0
-0.383752 0.069256 0
-0.383580 0.055668 0
-0.383639 0.044948 0
-0.383983 0.036457 0
-0.384557 0.029592 0
-0.385242 0.023831 0
-0.385890 0.018746 0
-0.386340 0.013983 0
-0.386425 0.009257 0
-0.385978 0.004325 0
-0.384844 -0.001016 0
-0.382879 -0.006960 0
-0.379828 -0.013788 0
-0.375507 -0.021803 0
-0.369703 -0.031319 0
-0.362186 -0.042766 0
-0.352705 -0.056693 0
-0.340996 -0.073804 0
-0.326775 -0.094994 0
-0.309734 -0.121376 0
-0.289475 -0.154247 0
-0.265357 -0.194823 0
-0.236073 -0.243281 0
-0.198868 -0.295824 0
-0.148639 -0.336329 0
-0.079352 -0.311577 0
-0.000437 0.000033 0
0.000000 0.136409 0
0.000000 -0.000016 0
-0.074276 0.039243 0
-0.138105 0.115429 0
-0.190957 0.178576 0
-0.234819 0.222934 0
-0.269825 0.246244 0
-0.295809 0.250785 0
-0.311901 0.239766 0
-0.319669 0.217252 0
-0.321226 0.188436 0
-0.318735 0.157922 0
-0.314182 0.129148 0
-0.309150 0.104090 0
-0.304713 0.083463 0
-0.301442 0.067100 0
-0.299508 0.054372 0
-0.298819 0.044489 0
-0.299144 0.036686 0
-0.300198 0.030299 0
-0.301686 0.024790 0
-0.303330 0.019728 0
-0.304870 0.014772 0
-0.306071 0.009647 0
-0.306721 0.004128 0
-0.306625 -0.001980 0
-0.305593 -0.008913 0
-0.303426 -0.016931 0
-0.299995 -0.026299 0
-0.295143 -0.037357 0
-0.288714 -0.050538 0
-0.280543 -0.066391 0
-0.270479 -0.085610 0
-0.258394 -0.109071 0
-0.244204 -0.137885 0
-0.227859 -0.173444 0
-0.209231 -0.217375 0
-0.187706 -0.271007 0
-0.161123 -0.332870 0
-0.124014 -0.389284 0
-0.068011 -0.380133 0
-0.000449 0.000035 0
0.000000 0.173571 0
0.000000 -0.000018 0
-0.070542 0.108579 0
-0.132415 0.173655 0
-0.182664 0.225545 0
-0.221063 0.258949 0
-0.248158 0.271810 0
-0.264686 0.266283 0
-0.271508 0.246291 0
-0.270747 0.216915 0
-0.264888 0.183605 0
-0.256424 0.150856 0
-0.247498 0.121708 0
-0.239648 0.097573 0
-0.233735 0.078573 0
-0.230024 0.064051 0
-0.228375 0.053044 0
-0.228435 0.044584 0
-0.229772 0.037836 0
-0.231959 0.032134 0
-0.234599 0.026964 0
-0.237345 0.021929 0
-0.239892 0.016724 0
-0.241979 0.011108 0
-0.243381 0.004878 0
-0.243902 -0.002144 0
-0.243364 -0.010158 0
-0.241673 -0.019386 0
-0.238739 -0.030086 0
-0.234478 -0.042601 0
-0.228793 -0.057366 0
-0.221583 -0.074927 0
-0.212748 -0.095953 0
-0.202216 -0.121268 0
-0.189980 -0.151911 0
-0.176120 -0.189220 0
-0.160806 -0.234976 0
-0.144054 -0.291390 0
-0.124772 -0.359516 0
-0.098361 -0.429441 0
-0.055373 -0.435591 0
-0.000420 0.000034 0
0.000000 0.204421 0
0.000000 -0.000019 0
-0.060934 0.171657 0
-0.116863 0.227550 0
-0.161360 0.267224 0
-0.193674 0.288428 0
-0.214225 0.289867 0
-0.224097 0.274135 0
-0.224913 0.245827 0
-0.219114 0.210632 0
-0.209375 0.174114 0
-0.198288 0.140532 0
-0.187962 0.112371 0
-0.179771 0.090327 0
-0.174300 0.073838 0
-0.171515 0.061741 0
-0.171027 0.052783 0
-0.172306 0.045887 0
-0.174811 0.040210 0
-0.178049 0.035126 0
-0.181587 0.030177 0
-0.185056 0.025021 0
-0.188145 0.019406 0
-0.190599 0.013136 0
-0.192214 0.006051 0
-0.192832 -0.001997 0
-0.192335 -0.011142 0
-0.190703 -0.021555 0
-0.187926 -0.033494 0
-0.183994 -0.047303 0
-0.178880 -0.063433 0
-0.172529 -0.082437 0
-0.164869 -0.104977 0
-0.155838 -0.131839 0
-0.145420 -0.163982 0
-0.133689 -0.202618 0
-0.120877 -0.249441 0
-0.107342 -0.307041 0
-0.093002 -0.378563 0
-0.074800 -0.458683 0
-0.043342 -0.478494 0
-0.000369 0.000033 0
0.000000 0.228943 0
0.000000 -0.000019 0
-0.049910 0.225442 0
-0.097308 0.274081 0
-0.134644 0.302356 0
-0.160806 0.311813 0
-0.175988 0.302233 0
-0.181300 0.276971 0
-0.178573 0.241308 0
-0.170283 0.201378 0
-0.159096 0.162779 0
-0.147538 0.129443 0
-0.137586 0.103191 0
-0.130385 0.083910 0
-0.126235 0.070317 0
-0.124850 0.060778 0
-0.125671 0.053835 0
-0.128079 0.048368 0
-0.131500 0.043579 0
-0.135428 0.038910 0
-0.139431 0.033970 0
-0.143147 0.028487 0
-0.146280 0.022268 0
-0.148599 0.015177 0
-0.149938 0.007112 0
-0.150198 -0.002024 0
-0.149341 -0.012288 0
-0.147432 -0.023794 0
-0.144549 -0.036794 0
-0.140762 -0.051647 0
-0.136110 -0.068832 0
-0.130579 -0.088938 0
-0.124109 -0.112643 0
-0.116628 -0.140718 0
-0.108089 -0.174061 0
-0.098522 -0.213763 0
-0.088117 -0.261322 0
-0.077300 -0.319265 0
-0.066612 -0.392058 0
-0.054596 -0.479100 0
-0.032788 -0.510390 0
-0.000310 0.000031 0
0.000000 0.247760 0
0.000000 -0.000019 0
-0.038671 0.268965 0
-0.076917 0.312284 0
-0.106876 0.330722 0
-0.127292 0.329772 0
-0.138174 0.310361 0
-0.140494 0.276720 0
-0.135980 0.234810 0
-0.126927 0.191155 0
-0.115823 0.151368 0
-0.105025 0.119022 0
-0.096327 0.095218 0
-0.090636 0.078977 0
-0.087996 0.068304 0
-0.087939 0.061176 0
-0.089826 0.056012 0
-0.093023 0.051716 0
-0.096968 0.047558 0
-0.101177 0.043057 0
-0.105237 0.037896 0
-0.108802 0.031871 0
-0.111595 0.024858 0
-0.113414 0.016794 0
-0.114136 0.007650 0
-0.113732 -0.002594 0
-0.112256 -0.013909 0
-0.109873 -0.026348 0
-0.106746 -0.040163 0
-0.103022 -0.055742 0
-0.098794 -0.073616 0
-0.094079 -0.094438 0
-0.088815 -0.118928 0
-0.082907 -0.147859 0
-0.076269 -0.182087 0
-0.068895 -0.222590 0
-0.060933 -0.270663 0
-0.052760 -0.328545 0
-0.045150 -0.401267 0
-0.037885 -0.492507 0
-0.023938 -0.533090 0
-0.000254 0.000029 0
0.000000 0.261727 0
0.000000 -0.000018 0
-0.027898 0.302359 0
-0.057318 0.342286 0
-0.080332 0.352730 0
-0.095670 0.343112 0
-0.103216 0.315435 0
-0.103721 0.274776 0
-0.098641 0.227740 0
-0.089939 0.181221 0
-0.079802 0.140877 0
-0.070347 0.109947 0
-0.063172 0.088801 0
-0.058968 0.075579 0
-0.057592 0.067620 0
-0.058488 0.062608 0
-0.061008 0.058918 0
-0.064558 0.055510 0
-0.068616 0.051733 0
-0.072734 0.047179 0
-0.076523 0.041595 0
-0.079659 0.034845 0
-0.081880 0.026879 0
-0.083006 0.017718 0
-0.082952 0.007430 0
-0.081752 -0.003903 0
-0.079584 -0.016147 0
-0.076691 -0.029305 0
-0.073320 -0.043645 0
-0.069681 -0.059598 0
-0.065911 -0.077775 0
-0.062042 -0.098917 0
-0.058001 -0.123815 0
-0.053657 -0.153264 0
-0.048883 -0.188072 0
-0.043650 -0.229100 0
-0.038090 -0.277458 0
-0.032534 -0.335048 0
-0.027746 -0.406933 0
-0.024276 -0.500312 0
-0.016680 -0.548276 0
-0.000206 0.000028 0
0.000000 0.271695 0
0.000000 -0.000017 0
-0.017928 0.326283 0
-0.039221 0.364719 0
-0.055993 0.369074 0
-0.066997 0.352656 0
-0.072036 0.318412 0
-0.071611 0.272145 0
-0.066808 0.221029 0
-0.059158 0.172316 0
-0.050451 0.131776 0
-0.042515 0.102392 0
-0.036754 0.083839 0
-0.033699 0.073397 0
-0.033119 0.067824 0
-0.034457 0.064592 0
-0.037126 0.062083 0
-0.040591 0.059324 0
-0.044389 0.055733 0
-0.048111 0.050963 0
-0.051400 0.044821 0
-0.053950 0.037228 0
-0.055521 0.028206 0
-0.055944 0.017866 0
-0.055150 0.006396 0
-0.053197 -0.005962 0
-0.050425 -0.018970 0
-0.047120 -0.032612 0
-0.043599 -0.047173 0
-0.040132 -0.063150 0
-0.036887 -0.081256 0
-0.033896 -0.102348 0
-0.031068 -0.127312 0
-0.028232 -0.156977 0
-0.025224 -0.192095 0
-0.022006 -0.233383 0
-0.018720 -0.281779 0
-0.015678 -0.338889 0
-0.013545 -0.409525 0
-0.013219 -0.503573 0
-0.010773 -0.557366 0
-0.000167 0.000027 0
0.000000 0.278405 0
0.000000 -0.000015 0
-0.008840 0.341580 0
-0.022820 0.380352 0
-0.034071 0.380507 0
-0.041421 0.359155 0
-0.044620 0.320048 0
-0.043913 0.269547 0
-0.039977 0.215288 0
-0.033841 0.164865 0
-0.026815 0.124235 0
-0.020372 0.096249 0
-0.015734 0.079985 0
-0.013363 0.071944 0
-0.013046 0.068378 0
-0.014305 0.066615 0
-0.016652 0.065052 0
-0.019638 0.062774 0
-0.022860 0.059253 0
-0.025958 0.054189 0
-0.028609 0.047435 0
-0.030531 0.038967 0
-0.031497 0.028873 0
-0.031350 0.017347 0
-0.030025 0.004683 0
-0.027541 -0.008629 0
-0.024360 -0.022224 0
-0.020821 -0.036131 0
-0.017291 -0.050633 0
-0.014100 -0.066311 0
-0.011438 -0.084011 0
-0.009325 -0.104736 0
-0.007646 -0.129479 0
-0.006194 -0.159108 0
-0.004791 -0.194298 0
-0.003407 -0.235603 0
-0.002203 -0.283786 0
-0.001500 -0.340222 0
-0.001849 -0.409392 0
-0.004194 -0.503085 0
-0.005946 -0.561495 0
-0.000137 0.000026 0
0.000000 0.282465 0
0.000000 -0.000014 0
-0.000776 0.349102 0
-0.007960 0.389950 0
-0.014312 0.387676 0
-0.018561 0.363205 0
-0.020425 0.320904 0
-0.019906 0.267502 0
-0.017247 0.210956 0
-0.012931 0.159155 0
-0.007734 0.118307 0
-0.002771 0.091311 0
0.000959 0.076830 0
0.003072 0.070709 0
0.003647 0.068766 0
0.002970 0.068199 0
0.001383 0.067416 0
-0.000766 0.065532 0
-0.003144 0.062053 0
-0.005442 0.056712 0
-0.007378 0.049394 0
-0.008703 0.040116 0
-0.009201 0.029024 0
-0.008695 0.016394 0
-0.007070 0.002588 0
-0.004381 -0.011627 0
-0.001055 -0.025690 0
0.002481 -0.039682 0
0.005806 -0.053894 0
0.008583 -0.069003 0
0.010617 -0.086031 0
0.011893 -0.106140 0
0.012546 -0.130444 0
0.012797 -0.159831 0
0.012808 -0.194882 0
0.012585 -0.235972 0
0.011933 -0.283686 0
0.010512 -0.339242 0
0.007854 -0.406831 0
0.003207 -0.499476 0
-0.001921 -0.561560 0
-0.000116 0.000025 0
0.000000 0.284349 0
0.000000 -0.000013 0
0.006291 0.349541 0
0.005569 0.393888 0
0.003705 0.391107 0
0.002243 0.365268 0
0.001456 0.321393 0
0.001523 0.266369 0
0.002585 0.208314 0
0.004716 0.155351 0
0.007756 0.114074 0
0.011108 0.087557 0
0.014107 0.074143 0
0.016332 0.069256 0
0.017598 0.068480 0
0.017918 0.068879 0
0.017464 0.068788 0
0.016473 0.067301 0
0.015200 0.063929 0
0.013894 0.058423 0
0.012782 0.050695 0
0.012068 0.040789 0
0.011955 0.028865 0
0.012671 0.015216 0
0.014404 0.000369 0
0.016920 -0.014644 0
0.019988 -0.029086 0
0.023176 -0.042992 0
0.026043 -0.056734 0
0.028253 -0.071122 0
0.029606 -0.087322 0
0.030085 -0.106664 0
0.029842 -0.130383 0
0.029088 -0.159370 0
0.027950 -0.194087 0
0.026375 -0.234728 0
0.024119 -0.281712 0
0.020823 -0.336144 0
0.016061 -0.402087 0
0.009266 -0.493309 0
0.001486 -0.558288 0
-0.000098 0.000024 0
0.000000 0.284385 0
0.000000 -0.000011 0
0.012731 0.343533 0
0.018065 0.392537 0
0.020448 0.391003 0
0.021646 0.365454 0
0.021892 0.321624 0
0.021441 0.266373 0
0.020716 0.207763 0
0.020294 0.153984 0
0.020719 0.111915 0
0.022204 0.084960 0
0.024512 0.071606 0
0.027037 0.067217 0
0.029225 0.067180 0
0.030802 0.068333 0
0.031748 0.068862 0
0.032179 0.067796 0
0.032266 0.064632 0
0.032185 0.059130 0
0.032099 0.051220 0
0.032163 0.040942 0
0.032551 0.028421 0
0.033465 0.013945 0
0.035049 -0.001661 0
0.037127 -0.017211 0
0.039583 -0.031945 0
0.042063 -0.045737 0
0.044168 -0.058972 0
0.045568 -0.072567 0
0.046083 -0.087863 0
0.045728 -0.106375 0
0.044670 -0.129446 0
0.043089 -0.157940 0
0.041035 -0.192168 0
0.038357 -0.232141 0
0.034742 -0.278134 0
0.029805 -0.331184 0
0.023157 -0.395274 0
0.014327 -0.484901 0
0.004349 -0.552295 0
-0.000085 0.000024 0
0.000000 0.282862 0
0.000000 -0.000011 0
0.018804 0.331476 0
0.029930 0.386171 0
0.036401 0.387526 0
0.040177 0.363824 0
0.041496 0.321597 0
0.040626 0.267545 0
0.038168 0.209460 0
0.035098 0.155348 0
0.032623 0.112164 0
0.031836 0.083764 0
0.033076 0.069310 0
0.035694 0.064543 0
0.038772 0.064716 0
0.041688 0.066356 0
0.044182 0.067410 0
0.046218 0.066782 0
0.047865 0.063924 0
0.049228 0.058591 0
0.050415 0.050717 0
0.051531 0.040337 0
0.052686 0.027563 0
0.053959 0.012718 0
0.055377 -0.003293 0
0.056939 -0.019177 0
0.058552 -0.034022 0
0.059964 -0.047578 0
0.060888 -0.060240 0
0.061102 -0.073037 0
0.060531 -0.087482 0
0.059260 -0.105251 0
0.057460 -0.127744 0
0.055230 -0.155735 0
0.052477 -0.189355 0
0.048913 -0.228435 0
0.044136 -0.273161 0
0.037741 -0.324558 0
0.029377 -0.386608 0
0.018706 -0.474502 0
0.006781 -0.543961 0
-0.000076 0.000023 0
0.000000 0.280034 0
0.000000 -0.000010 0
0.024626 0.313603 0
0.041403 0.374940 0
0.051905 0.380756 0
0.058259 0.360358 0
0.060794 0.321175 0
0.059777 0.269700 0
0.055895 0.213291 0
0.050371 0.159529 0
0.044899 0.115177 0
0.041331 0.084507 0
0.040761 0.067748 0
0.042846 0.061522 0
0.046444 0.061186 0
0.050541 0.062922 0
0.054556 0.064332 0
0.058246 0.064113 0
0.061554 0.061622 0
0.064502 0.056580 0
0.067142 0.048916 0
0.069522 0.038672 0
0.071669 0.025994 0
0.073538 0.011254 0
0.075031 -0.004642 0
0.076090 -0.020386 0
0.076681 -0.034970 0
0.076723 -0.048073 0
0.076135 -0.060110 0
0.074903 -0.072209 0
0.073125 -0.086021 0
0.070980 -0.103305 0
0.068602 -0.125416 0
0.065937 -0.152956 0
0.062693 -0.185851 0
0.058417 -0.223800 0
0.052623 -0.266962 0
0.044901 -0.316425 0
0.034951 -0.376239 0
0.022569 -0.462305 0
0.008900 -0.533588 0
-0.000070 0.000022 0
0.000000 0.276080 0
0.000000 -0.000009 0
0.030194 0.290073 0
0.052538 0.358892 0
0.067107 0.370670 0
0.076134 0.354935 0
0.080132 0.320079 0
0.079394 0.272444 0
0.074623 0.218866 0
0.067135 0.166345 0
0.058864 0.121203 0
0.052139 0.087902 0
0.048830 0.067795 0
0.049327 0.058859 0
0.052634 0.057021 0
0.057405 0.058245 0
0.062660 0.059705 0
0.067864 0.059785 0
0.072773 0.057668 0
0.077295 0.053003 0
0.081398 0.045698 0
0.085061 0.035810 0
0.088219 0.023547 0
0.090727 0.009355 0
0.092367 -0.005845 0
0.092977 -0.020827 0
0.092572 -0.034655 0
0.091251 -0.047032 0
0.089183 -0.058420 0
0.086613 -0.070027 0
0.083846 -0.083558 0
0.081128 -0.100728 0
0.078491 -0.122701 0
0.075657 -0.149826 0
0.072106 -0.181834 0
0.067235 -0.218365 0
0.060502 -0.259645 0
0.051520 -0.306886 0
0.040055 -0.364276 0
0.026054 -0.448452 0
0.010788 -0.521392 0
-0.000066 0.000022 0
0.000000 0.271133 0
0.000000 -0.000008 0
0.035382 0.261065 0
0.063179 0.338026 0
0.081910 0.357160 0
0.093792 0.347333 0
0.099596 0.317915 0
0.099680 0.275210 0
0.094732 0.225549 0
0.086039 0.175288 0
0.075545 0.130172 0
0.065713 0.094540 0
0.058934 0.070560 0
0.056541 0.057718 0
0.058237 0.053108 0
0.062682 0.052896 0
0.068515 0.053873 0
0.074805 0.054001 0
0.081030 0.052191 0
0.086915 0.047954 0
0.092303 0.041150 0
0.097069 0.031851 0
0.101053 0.020328 0
0.104031 0.007106 0
0.105709 -0.006892 0
0.105911 -0.020591 0
0.104707 -0.033245 0
0.102357 -0.044684 0
0.099263 -0.055472 0
0.095920 -0.066872 0
0.092782 -0.080535 0
0.090072 -0.097950 0
0.087619 -0.119946 0
0.084885 -0.146572 0
0.081149 -0.177429 0
0.075716 -0.212195 0
0.068043 -0.251247 0
0.057798 -0.295979 0
0.044835 -0.350774 0
0.029260 -0.433038 0
0.012506 -0.507534 0
-0.000064 0.000021 0
0.000000 0.265290 0
0.000000 -0.000007 0
0.039906 0.226894 0
0.072918 0.312364 0
0.095911 0.340057 0
0.110914 0.337249 0
0.118947 0.314192 0
0.120483 0.277308 0
0.116184 0.232507 0
0.107238 0.185532 0
0.095451 0.141530 0
0.083148 0.104512 0
0.072831 0.076968 0
0.066533 0.059557 0
0.065015 0.050879 0
0.067565 0.047967 0
0.072754 0.047583 0
0.079266 0.047269 0
0.086194 0.045558 0
0.092982 0.041731 0
0.099277 0.035544 0
0.104815 0.027059 0
0.109335 0.016585 0
0.112550 0.004700 0
0.114153 -0.007725 0
0.114044 -0.019825 0
0.112391 -0.031101 0
0.109615 -0.041588 0
0.106316 -0.051983 0
0.103136 -0.063546 0
0.100526 -0.077710 0
0.098515 -0.095564 0
0.096656 -0.117515 0
0.094178 -0.143356 0
0.090252 -0.172665 0
0.084178 -0.205259 0
0.075472 -0.241727 0
0.063892 -0.283678 0
0.049390 -0.335738 0
0.032250 -0.416122 0
0.014092 -0.492132 0
-0.000063 0.000020 0
0.000000 0.258626 0
0.000000 -0.000006 0
0.043339 0.188147 0
0.081070 0.282021 0
0.108365 0.319165 0
0.126821 0.324297 0
0.137597 0.308345 0
0.141277 0.277973 0
0.138504 0.238794 0
0.130349 0.196021 0
0.118417 0.154263 0
0.104770 0.117160 0
0.091712 0.087174 0
0.081458 0.065535 0
0.075587 0.052077 0
0.074451 0.045156 0
0.077201 0.042172 0
0.082469 0.040560 0
0.088999 0.038475 0
0.095872 0.034872 0
0.102458 0.029317 0
0.108298 0.021792 0
0.113017 0.012593 0
0.116273 0.002288 0
0.117816 -0.008385 0
0.117679 -0.018829 0
0.116177 -0.028816 0
0.113875 -0.038609 0
0.111466 -0.048993 0
0.109541 -0.061082 0
0.108317 -0.075914 0
0.107505 -0.094080 0
0.106393 -0.115609 0
0.104096 -0.140169 0
0.099795 -0.167428 0
0.092872 -0.197415 0
0.082949 -0.230962 0
0.069897 -0.269897 0
0.053774 -0.319132 0
0.035053 -0.397739 0
0.015567 -0.475284 0
-0.000062 0.000020 0
0.000000 0.251197 0
0.000000 -0.000005 0
0.045050 0.145824 0
0.086590 0.247339 0
0.118120 0.294306 0
0.140449 0.308017 0
0.154594 0.299736 0
0.161174 0.276401 0
0.160819 0.243434 0
0.154496 0.205618 0
0.143618 0.167109 0
0.129977 0.131217 0
0.115578 0.100280 0
0.102454 0.075682 0
0.092411 0.057886 0
0.086609 0.046352 0
0.085178 0.039565 0
0.087316 0.035472 0
0.091807 0.032155 0
0.097482 0.028272 0
0.103412 0.023118 0
0.108904 0.016500 0
0.113441 0.008610 0
0.116628 -0.000099 0
0.118338 -0.009131 0
0.118745 -0.018186 0
0.118280 -0.027297 0
0.117538 -0.036877 0
0.117088 -0.047649 0
0.117221 -0.060397 0
0.117779 -0.075675 0