# vtk DataFile Version 2.0
generated by CFD-lab course output (written by Tobias Neckel) 
ASCII

DATASET STRUCTURED_GRID
DIMENSIONS  42 42 1 
POINTS 1764 float

0.150000 0.150000 0
0.167857 0.150000 0
0.185714 0.150000 0
0.203571 0.150000 0
0.221429 0.150000 0
0.239286 0.150000 0
0.257143 0.150000 0
0.275000 0.150000 0
0.292857 0.150000 0
0.310714 0.150000 0
0.328571 0.150000 0
0.346429 0.150000 0
0.364286 0.150000 0
0.382143 0.150000 0
0.400000 0.150000 0
0.417857 0.150000 0
0.435714 0.150000 0
0.453571 0.150000 0
0.471429 0.150000 0
0.489286 0.150000 0
0.507143 0.150000 0
0.525000 0.150000 0
0.542857 0.150000 0
0.560714 0.150000 0
0.578571 0.150000 0
0.596429 0.150000 0
0.614286 0.150000 0
0.632143 0.150000 0
0.650000 0.150000 0
0.667857 0.150000 0
0.685714 0.150000 0
0.703571 0.150000 0
0.721429 0.150000 0
0.739286 0.150000 0
0.757143 0.150000 0
0.775000 0.150000 0
0.792857 0.150000 0
0.810714 0.150000 0
0.828571 0.150000 0
0.846429 0.150000 0
0.864286 0.150000 0
0.882143 0.150000 0
0.150000 0.167857 0
0.167857 0.167857 0
0.185714 0.167857 0
0.203571 0.167857 0
0.221429 0.167857 0
0.239286 0.167857 0
0.257143 0.167857 0
0.275000 0.167857 0
0.292857 0.167857 0
0.310714 0.167857 0
0.328571 0.167857 0
0.346429 0.167857 0
0.364286 0.167857 0
0.382143 0.167857 0
0.400000 0.167857 0
0.417857 0.167857 0
0.435714 0.167857 0
0.453571 0.167857 0
0.471429 0.167857 0
0.489286 0.167857 0
0.507143 0.167857 0
0.525000 0.167857 0
0.542857 0.167857 0
0.560714 0.167857 0
0.578571 0.167857 0
0.596429 0.167857 0
0.614286 0.167857 0
0.632143 0.167857 0
0.650000 0.167857 0
0.667857 0.167857 0
0.685714 0.167857 0
0.703571 0.167857 0
0.721429 0.167857 0
0.739286 0.167857 0
0.757143 0.167857 0
0.775000 0.167857 0
0.792857 0.167857 0
0.810714 0.167857 0
0.828571 0.167857 0
0.846429 0.167857 0
0.864286 0.167857 0
0.882143 0.167857 0
0.150000 0.185714 0
0.167857 0.185714 0
0.185714 0.185714 0
0.203571 0.185714 0
0.221429 0.185714 0
0.239286 0.185714 0
0.257143 0.185714 0
0.275000 0.185714 0
0.292857 0.185714 0
0.310714 0.185714 0
0.328571 0.185714 0
0.346429 0.185714 0
0.364286 0.185714 0
0.382143 0.185714 0
0.400000 0.185714 0
0.417857 0.185714 0
0.435714 0.185714 0
0.453571 0.185714 0
0.471429 0.185714 0
0.489286 0.185714 0
0.507143 0.185714 0
0.525000 0.185714 0
0.542857 0.185714 0
0.560714 0.185714 0
0.578571 0.185714 0
0.596429 0.185714 0
0.614286 0.185714 0
0.632143 0.185714 0
0.650000 0.185714 0
0.667857 0.185714 0
0.685714 0.185714 0
0.703571 0.185714 0
0.721429 0.185714 0
0.739286 0.185714 0
0.757143 0.185714 0
0.775000 0.185714 0
0.792857 0.185714 0
0.810714 0.185714 0
0.828571 0.185714 0
0.846429 0.185714 0
0.864286 0.185714 0
0.882143 0.185714 0
0.150000 0.203571 0
0.167857 0.203571 0
0.185714 0.203571 0
0.203571 0.203571 0
0.221429 0.203571 0
0.239286 0.203571 0
0.257143 0.203571 0
0.275000 0.203571 0
0.292857 0.203571 0
0.310714 0.203571 0
0.328571 0.203571 0
0.346429 0.203571 0
0.364286 0.203571 0
0.382143 0.203571 0
0.400000 0.203571 0
0.417857 0.203571 0
0.435714 0.203571 0
0.453571 0.203571 0
0.471429 0.203571 0
0.489286 0.203571 0
0.507143 0.203571 0
0.525000 0.203571 0
0.542857 0.203571 0
0.560714 0.203571 0
0.578571 0.203571 0
0.596429 0.203571 0
0.614286 0.203571 0
0.632143 0.203571 0
0.650000 0.203571 0
0.667857 0.203571 0
0.685714 0.203571 0
0.703571 0.203571 0
0.721429 0.203571 0
0.739286 0.203571 0
0.757143 0.203571 0
0.775000 0.203571 0
0.792857 0.203571 0
0.810714 0.203571 0
0.828571 0.203571 0
0.846429 0.203571 0
0.864286 0.203571 0
0.882143 0.203571 0
0.150000 0.221429 0
0.167857 0.221429 0
0.185714 0.221429 0
0.203571 0.221429 0
0.221429 0.221429 0
0.239286 0.221429 0
0.257143 0.221429 0
0.275000 0.221429 0
0.292857 0.221429 0
0.310714 0.221429 0
0.328571 0.221429 0
0.346429 0.221429 0
0.364286 0.221429 0
0.382143 0.221429 0
0.400000 0.221429 0
0.417857 0.221429 0
0.435714 0.221429 0
0.453571 0.221429 0
0.471429 0.221429 0
0.489286 0.221429 0
0.507143 0.221429 0
0.525000 0.221429 0
0.542857 0.221429 0
0.560714 0.221429 0
0.578571 0.221429 0
0.596429 0.221429 0
0.614286 0.221429 0
0.632143 0.221429 0
0.650000 0.221429 0
0.667857 0.221429 0
0.685714 0.221429 0
0.703571 0.221429 0
0.721429 0.221429 0
0.739286 0.221429 0
0.757143 0.221429 0
0.775000 0.221429 0
0.792857 0.221429 0
0.810714 0.221429 0
0.828571 0.221429 0
0.846429 0.221429 0
0.864286 0.221429 0
0.882143 0.221429 0
0.150000 0.239286 0
0.167857 0.239286 0
0.185714 0.239286 0
0.203571 0.239286 0
0.221429 0.239286 0
0.239286 0.239286 0
0.257143 0.239286 0
0.275000 0.239286 0
0.292857 0.239286 0
0.310714 0.239286 0
0.328571 0.239286 0
0.346429 0.239286 0
0.364286 0.239286 0
0.382143 0.239286 0
0.400000 0.239286 0
0.417857 0.239286 0
0.435714 0.239286 0
0.453571 0.239286 0
0.471429 0.239286 0
0.489286 0.239286 0
0.507143 0.239286 0
0.525000 0.239286 0
0.542857 0.239286 0
0.560714 0.239286 0
0.578571 0.239286 0
0.596429 0.239286 0
0.614286 0.239286 0
0.632143 0.239286 0
0.650000 0.239286 0
0.667857 0.239286 0
0.685714 0.239286 0
0.703571 0.239286 0
0.721429 0.239286 0
0.739286 0.239286 0
0.757143 0.239286 0
0.775000 0.239286 0
0.792857 0.239286 0
0.810714 0.239286 0
0.828571 0.239286 0
0.846429 0.239286 0
0.864286 0.239286 0
0.882143 0.239286 0
0.150000 0.257143 0
0.167857 0.257143 0
0.185714 0.257143 0
0.203571 0.257143 0
0.221429 0.257143 0
0.239286 0.257143 0
0.257143 0.257143 0
0.275000 0.257143 0
0.292857 0.257143 0
0.310714 0.257143 0
0.328571 0.257143 0
0.346429 0.257143 0
0.364286 0.257143 0
0.382143 0.257143 0
0.400000 0.257143 0
0.417857 0.257143 0
0.435714 0.257143 0
0.453571 0.257143 0
0.471429 0.257143 0
0.489286 0.257143 0
0.507143 0.257143 0
0.525000 0.257143 0
0.542857 0.257143 0
0.560714 0.257143 0
0.578571 0.257143 0
0.596429 0.257143 0
0.614286 0.257143 0
0.632143 0.257143 0
0.650000 0.257143 0
0.667857 0.257143 0
0.685714 0.257143 0
0.703571 0.257143 0
0.721429 0.257143 0
0.739286 0.257143 0
0.757143 0.257143 0
0.775000 0.257143 0
0.792857 0.257143 0
0.810714 0.257143 0
0.828571 0.257143 0
0.846429 0.257143 0
0.864286 0.257143 0
0.882143 0.257143 0
0.150000 0.275000 0
0.167857 0.275000 0
0.185714 0.275000 0
0.203571 0.275000 0
0.221429 0.275000 0
0.239286 0.275000 0
0.257143 0.275000 0
0.275000 0.275000 0
0.292857 0.275000 0
0.310714 0.275000 0
0.328571 0.275000 0
0.346429 0.275000 0
0.364286 0.275000 0
0.382143 0.275000 0
0.400000 0.275000 0
0.417857 0.275000 0
0.435714 0.275000 0
0.453571 0.275000 0
0.471429 0.275000 0
0.489286 0.275000 0
0.507143 0.275000 0
0.525000 0.275000 0
0.542857 0.275000 0
0.560714 0.275000 0
0.578571 0.275000 0
0.596429 0.275000 0
0.614286 0.275000 0
0.632143 0.275000 0
0.650000 0.275000 0
0.667857 0.275000 0
0.685714 0.275000 0
0.703571 0.275000 0
0.721429 0.275000 0
0.739286 0.275000 0
0.757143 0.275000 0
0.775000 0.275000 0
0.792857 0.275000 0
0.810714 0.275000 0
0.828571 0.275000 0
0.846429 0.275000 0
0.864286 0.275000 0
0.882143 0.275000 0
0.150000 0.292857 0
0.167857 0.292857 0
0.185714 0.292857 0
0.203571 0.292857 0
0.221429 0.292857 0
0.239286 0.292857 0
0.257143 0.292857 0
0.275000 0.292857 0
0.292857 0.292857 0
0.310714 0.292857 0
0.328571 0.292857 0
0.346429 0.292857 0
0.364286 0.292857 0
0.382143 0.292857 0
0.400000 0.292857 0
0.417857 0.292857 0
0.435714 0.292857 0
0.453571 0.292857 0
0.471429 0.292857 0
0.489286 0.292857 0
0.507143 0.292857 0
0.525000 0.292857 0
0.542857 0.292857 0
0.560714 0.292857 0
0.578571 0.292857 0
0.596429 0.292857 0
0.614286 0.292857 0
0.632143 0.292857 0
0.650000 0.292857 0
0.667857 0.292857 0
0.685714 0.292857 0
0.703571 0.292857 0
0.721429 0.292857 0
0.739286 0.292857 0
0.757143 0.292857 0
0.775000 0.292857 0
0.792857 0.292857 0
0.810714 0.292857 0
0.828571 0.292857 0
0.846429 0.292857 0
0.864286 0.292857 0
0.882143 0.292857 0
0.150000 0.310714 0
0.167857 0.310714 0
0.185714 0.310714 0
0.203571 0.310714 0
0.221429 0.310714 0
0.239286 0.310714 0
0.257143 0.310714 0
0.275000 0.310714 0
0.292857 0.310714 0
0.310714 0.310714 0
0.328571 0.310714 0
0.346429 0.310714 0
0.364286 0.310714 0
0.382143 0.310714 0
0.400000 0.310714 0
0.417857 0.310714 0
0.435714 0.310714 0
0.453571 0.310714 0
0.471429 0.310714 0
0.489286 0.310714 0
0.507143 0.310714 0
0.525000 0.310714 0
0.542857 0.310714 0
0.560714 0.310714 0
0.578571 0.310714 0
0.596429 0.310714 0
0.614286 0.310714 0
0.632143 0.310714 0
0.650000 0.310714 0
0.667857 0.310714 0
0.685714 0.310714 0
0.703571 0.310714 0
0.721429 0.310714 0
0.739286 0.310714 0
0.757143 0.310714 0
0.775000 0.310714 0
0.792857 0.310714 0
0.810714 0.310714 0
0.828571 0.310714 0
0.846429 0.310714 0
0.864286 0.310714 0
0.882143 0.310714 0
0.150000 0.328571 0
0.167857 0.328571 0
0.185714 0.328571 0
0.203571 0.328571 0
0.221429 0.328571 0
0.239286 0.328571 0
0.257143 0.328571 0
0.275000 0.328571 0
0.292857 0.328571 0
0.310714 0.328571 0
0.328571 0.328571 0
0.346429 0.328571 0
0.364286 0.328571 0
0.382143 0.328571 0
0.400000 0.328571 0
0.417857 0.328571 0
0.435714 0.328571 0
0.453571 0.328571 0
0.471429 0.328571 0
0.489286 0.328571 0
0.507143 0.328571 0
0.525000 0.328571 0
0.542857 0.328571 0
0.560714 0.328571 0
0.578571 0.328571 0
0.596429 0.328571 0
0.614286 0.328571 0
0.632143 0.328571 0
0.650000 0.328571 0
0.667857 0.328571 0
0.685714 0.328571 0
0.703571 0.328571 0
0.721429 0.328571 0
0.739286 0.328571 0
0.757143 0.328571 0
0.775000 0.328571 0
0.792857 0.328571 0
0.810714 0.328571 0
0.828571 0.328571 0
0.846429 0.328571 0
0.864286 0.328571 0
0.882143 0.328571 0
0.150000 0.346429 0
0.167857 0.346429 0
0.185714 0.346429 0
0.203571 0.346429 0
0.221429 0.346429 0
0.239286 0.346429 0
0.257143 0.346429 0
0.275000 0.346429 0
0.292857 0.346429 0
0.310714 0.346429 0
0.328571 0.346429 0
0.346429 0.346429 0
0.364286 0.346429 0
0.382143 0.346429 0
0.400000 0.346429 0
0.417857 0.346429 0
0.435714 0.346429 0
0.453571 0.346429 0
0.471429 0.346429 0
0.489286 0.346429 0
0.507143 0.346429 0
0.525000 0.346429 0
0.542857 0.346429 0
0.560714 0.346429 0
0.578571 0.346429 0
0.596429 0.346429 0
0.614286 0.346429 0
0.632143 0.346429 0
0.650000 0.346429 0
[...]
POINT_DATA 1764 

VECTORS velocity float
0.000000 0.000000 0
-0.000002 0.000000 0
-0.000003 0.000000 0
-0.000003 0.000000 0
-0.000003 0.000000 0
-0.000002 0.000000 0
-0.000002 0.000000 0
-0.000001 0.000000 0
-0.000002 0.000000 0
-0.000004 0.000000 0
-0.000000 0.000000 0
0.000003 0.000000 0
0.000005 0.000000 0
0.000007 0.000000 0
0.000008 0.000000 0
0.000008 0.000000 0
0.000009 0.000000 0
0.000009 0.000000 0
0.000009 0.000000 0
0.000009 0.000000 0
0.000009 0.000000 0
0.000009 0.000000 0
0.000009 0.000000 0
0.000010 0.000000 0
0.000010 0.000000 0
0.000010 0.000000 0
0.000010 0.000000 0
0.000010 0.000000 0
0.000010 0.000000 0
0.000010 0.000000 0
0.000010 0.000000 0
0.000010 0.000000 0
0.000010 0.000000 0
0.000009 0.000000 0
0.000009 0.000000 0
0.000008 0.000000 0
0.000006 0.000000 0
0.000004 0.000000 0
0.000000 0.000000 0
-0.000001 0.000000 0
-0.000000 0.000000 0
0.000000 0.000000 0
0.000000 0.000002 0
0.025234 -0.023496 0
0.048530 -0.016705 0
0.059148 -0.004053 0
0.058554 0.005250 0
0.050514 0.008956 0
0.041685 0.007751 0
0.037149 0.005138 0
0.026449 -0.004288 0
0.006946 -0.007730 0
-0.016938 0.009759 0
-0.047168 0.027789 0
-0.081493 0.034167 0
-0.116272 0.034976 0
-0.149578 0.033892 0
-0.180180 0.031504 0
-0.207425 0.028420 0
-0.231054 0.025043 0
-0.251078 0.021647 0
-0.267668 0.018386 0
-0.281064 0.015332 0
-0.291521 0.012492 0
-0.299257 0.009836 0
-0.304431 0.007287 0
-0.307109 0.004740 0
-0.307252 0.002077 0
-0.304737 -0.000834 0
-0.299396 -0.004116 0
-0.290945 -0.007817 0
-0.279000 -0.011962 0
-0.263099 -0.016641 0
-0.242708 -0.021911 0
-0.217279 -0.027745 0
-0.186341 -0.033958 0
-0.149707 -0.040063 0
-0.107850 -0.045025 0
-0.062626 -0.046631 0
-0.018634 -0.038285 0
0.014367 -0.009483 0
0.017453 0.016886 0
-0.000000 -0.000001 0
0.000000 -0.011193 0
0.000000 0.000003 0
0.024646 -0.048530 0
0.044116 -0.033914 0
0.052171 -0.010024 0
0.051153 0.008634 0
0.042414 0.016870 0
0.027368 0.013364 0
0.005160 0.015235 0
-0.025520 0.030204 0
-0.071957 0.043387 0
-0.117605 0.054114 0
-0.153943 0.064555 0
-0.186069 0.069104 0
-0.215786 0.068085 0
-0.242275 0.063909 0
-0.265208 0.057846 0
-0.284501 0.050873 0
-0.300281 0.043653 0
-0.312792 0.036614 0
-0.322334 0.029986 0
-0.329207 0.023853 0
-0.333677 0.018193 0
-0.335950 0.012910 0
-0.336157 0.007851 0
-0.334362 0.002821 0
-0.330543 -0.002371 0
-0.324703 -0.007856 0
-0.316702 -0.013792 0
-0.306348 -0.020396 0
-0.293305 -0.027847 0
-0.277167 -0.036292 0
-0.257498 -0.045820 0
-0.233844 -0.056367 0
-0.205821 -0.067572 0
-0.173250 -0.078491 0
-0.136440 -0.087081 0
-0.096705 -0.089216 0
-0.057004 -0.076992 0
-0.020443 -0.036087 0
0.008851 0.014367 0
0.000007 -0.000002 0
0.000000 -0.017455 0
0.000000 0.000004 0
0.017316 -0.067612 0
0.027096 -0.044230 0
0.027469 -0.011090 0
0.016120 0.015007 0
-0.001119 0.032742 0
-0.028065 0.045005 0
-0.067966 0.058026 0
-0.108922 0.072828 0
-0.146467 0.084355 0
-0.182191 0.091746 0
-0.212184 0.096253 0
-0.236523 0.096009 0
-0.256726 0.091183 0
-0.273227 0.083314 0
-0.286415 0.073730 0
-0.296668 0.063492 0
-0.304373 0.053334 0
-0.309893 0.043700 0
-0.313550 0.034802 0
-0.315604 0.026674 0
-0.316253 0.019234 0
-0.315628 0.012316 0
-0.313797 0.005699 0
-0.310781 -0.000875 0
-0.306584 -0.007582 0
-0.301134 -0.014675 0
-0.294228 -0.022471 0
-0.285625 -0.031214 0
-0.275046 -0.041143 0
-0.262169 -0.052448 0
-0.246652 -0.065234 0
-0.228144 -0.079421 0
-0.206312 -0.094552 0
-0.180887 -0.109444 0
-0.151769 -0.121570 0
-0.119171 -0.126067 0
-0.083731 -0.114547 0
-0.046284 -0.075338 0
-0.006399 -0.003556 0
0.000011 0.000000 0
0.000000 -0.020043 0
0.000000 0.000003 0
0.004416 -0.075626 0
-0.001600 -0.044067 0
-0.014721 0.000952 0
-0.034712 0.037222 0
-0.059921 0.061055 0
-0.090962 0.080212 0
-0.125650 0.096093 0
-0.159248 0.108704 0
-0.188861 0.116656 0
-0.214865 0.119831 0
-0.235743 0.118887 0
-0.251433 0.113646 0
-0.262983 0.104789 0
-0.271229 0.093597 0
-0.276894 0.081287 0
-0.280562 0.068831 0
-0.282702 0.056879 0
-0.283672 0.045791 0
-0.283733 0.035697 0
-0.283065 0.026556 0
-0.281778 0.018217 0
-0.279927 0.010455 0
-0.277517 0.003005 0
-0.274509 -0.004393 0
-0.270931 -0.012018 0
-0.266552 -0.020212 0
-0.261216 -0.029302 0
-0.254706 -0.039578 0
-0.246795 -0.051302 0
-0.237244 -0.064686 0
-0.225812 -0.079845 0
-0.212253 -0.096708 0
-0.196298 -0.114828 0
-0.177614 -0.133034 0
-0.155749 -0.148798 0
-0.130068 -0.157254 0
-0.099757 -0.149879 0
-0.064243 -0.113419 0
-0.025706 -0.031917 0
-0.000010 0.000004 0
0.000000 -0.011049 0
0.000000 0.000002 0
-0.011402 -0.066012 0
-0.032548 -0.025092 0
-0.057162 0.022022 0
-0.079212 0.060207 0
-0.104840 0.088992 0
-0.132606 0.110734 0
-0.160338 0.126312 0
-0.185703 0.136039 0
-0.207100 0.139972 0
-0.224322 0.138628 0
-0.236894 0.132822 0
-0.245116 0.123250 0
-0.249880 0.110979 0
-0.252073 0.097225 0
-0.252468 0.083063 0
-0.251668 0.069301 0
-0.250114 0.056444 0
-0.248115 0.044731 0
-0.245874 0.034194 0
-0.243516 0.024719 0
-0.241102 0.016097 0
-0.238647 0.008054 0
-0.236133 0.000281 0
-0.233516 -0.007460 0
-0.230691 -0.015539 0
-0.227474 -0.024390 0
-0.223692 -0.034318 0
-0.219144 -0.045635 0
-0.213632 -0.058605 0
-0.206966 -0.073431 0
-0.198984 -0.090225 0
-0.189539 -0.108935 0
-0.178447 -0.129191 0
-0.165396 -0.149993 0
-0.149781 -0.169116 0
-0.130508 -0.182059 0
-0.105902 -0.180372 0
-0.074207 -0.149389 0
-0.035821 -0.067799 0
-0.000039 0.000008 0
0.000000 0.005670 0
0.000000 -0.000000 0
-0.024395 -0.043078 0
-0.054459 0.001693 0
-0.081547 0.047615 0
-0.106350 0.084900 0
-0.130831 0.114449 0
-0.154410 0.135711 0
-0.175878 0.149190 0
-0.194072 0.155466 0
-0.208229 0.155275 0
-0.218247 0.149625 0
-0.224206 0.139682 0
-0.226656 0.126633 0
-0.226424 0.111745 0
-0.224332 0.096185 0
-0.221083 0.080882 0
-0.217220 0.066476 0
-0.213138 0.053326 0
-0.209111 0.041552 0
-0.205318 0.031098 0
-0.201863 0.021784 0
-0.198791 0.013349 0
-0.196101 0.005487 0
-0.193759 -0.002127 0
-0.191733 -0.009835 0
-0.189790 -0.018060 0
-0.187795 -0.027211 0
-0.185547 -0.037632 0
-0.182835 -0.049638 0
-0.179444 -0.063481 0
-0.175190 -0.079333 0
-0.169948 -0.097272 0
-0.163639 -0.117245 0
-0.156174 -0.138971 0
-0.147335 -0.161699 0
-0.136550 -0.183686 0
-0.122582 -0.201133 0
-0.103253 -0.206180 0
-0.075707 -0.183500 0
-0.038501 -0.106124 0
-0.000062 0.000009 0
0.000000 0.024777 0
0.000000 -0.000002 0
-0.031935 -0.011553 0
-0.065143 0.032060 0
-0.092966 0.073913 0
-0.118315 0.109491 0
-0.140957 0.137052 0
-0.160696 0.155781 0
-0.177016 0.165974 0
-0.189471 0.168391 0
-0.197873 0.164147 0
-0.202400 0.154605 0
-0.203451 0.141230 0
-0.201694 0.125468 0
-0.197895 0.108655 0
-0.192776 0.091884 0
-0.186947 0.075951 0
-0.180892 0.061356 0
-0.174981 0.048335 0
-0.169488 0.036911 0
-0.164603 0.026947 0
-0.160435 0.018193 0
-0.157026 0.010334 0
-0.154363 0.003022 0
-0.152384 -0.004087 0
-0.151044 -0.011429 0
-0.150114 -0.019477 0
-0.149426 -0.028633 0
-0.148758 -0.039278 0
-0.147852 -0.051738 0
-0.146437 -0.066249 0
-0.144280 -0.082927 0
-0.141246 -0.101777 0
-0.137294 -0.122709 0
-0.132408 -0.145495 0
-0.126492 -0.169618 0
-0.119139 -0.193869 0
-0.109247 -0.215356 0
-0.094559 -0.227247 0
-0.071614 -0.214141 0
-0.037713 -0.143506 0
-0.000078 0.000011 0
0.000000 0.044174 0
0.000000 -0.000004 0
-0.033921 0.022065 0
-0.066303 0.062724 0
-0.094582 0.100787 0
-0.119044 0.132890 0
-0.139489 0.156831 0
-0.155882 0.171770 0
-0.168118 0.177965 0
-0.176202 0.176324 0
-0.180320 0.168203 0
-0.180883 0.155202 0
-0.178461 0.138977 0
-0.173738 0.121077 0
-0.167404 0.102827 0
-0.160083 0.085236 0
-0.152313 0.068998 0
-0.144553 0.054511 0
-0.137187 0.041922 0
-0.130531 0.031173 0
-0.124815 0.022044 0
-0.120171 0.014207 0
-0.116639 0.007277 0
-0.114192 0.000844 0
-0.112771 -0.005447 0
-0.112257 -0.012105 0
-0.112442 -0.019678 0
-0.113142 -0.028567 0
-0.114119 -0.039205 0
-0.115056 -0.051959 0
-0.115577 -0.067053 0
-0.115354 -0.084524 0
-0.114205 -0.104258 0
-0.112108 -0.126083 0
-0.109096 -0.149773 0
-0.105178 -0.174968 0
-0.100149 -0.200931 0
-0.093217 -0.225713 0
-0.082397 -0.243813 0
-0.064106 -0.240346 0
-0.034743 -0.177739 0
-0.000088 0.000011 0
0.000000 0.062492 0
0.000000 -0.000005 0
-0.031551 0.054751 0
-0.062575 0.092721 0
-0.089582 0.126653 0
-0.112210 0.154398 0
-0.130252 0.173890 0
-0.143739 0.184410 0
-0.152786 0.186294 0
-0.157648 0.180592 0
-0.158728 0.168829 0
-0.156564 0.152746 0
-0.151776 0.134085 0
-0.145005 0.114411 0
-0.136852 0.095000 0
-0.127860 0.076794 0
-0.118525 0.060421 0
-0.109322 0.046230 0
-0.100705 0.034313 0
-0.093072 0.024539 0
-0.086734 0.016586 0
-0.081847 0.010016 0
-0.078426 0.004355 0
-0.076410 -0.000845 0
-0.075747 -0.006021 0
-0.076142 -0.011758 0
-0.077456 -0.018593 0
-0.079523 -0.026957 0
-0.082128 -0.037364 0
-0.084905 -0.050279 0
-0.087325 -0.065951 0
-0.088911 -0.084299 0
-0.089421 -0.105022 0
-0.088856 -0.127818 0
-0.087293 -0.152425 0
-0.084817 -0.178564 0
-0.081392 -0.205830 0
-0.076572 -0.233108 0
-0.068854 -0.256359 0
-0.054917 -0.261795 0
-0.030583 -0.207612 0
-0.000090 0.000012 0
0.000000 0.078918 0
0.000000 -0.000005 0
-0.027548 0.084640 0
-0.055950 0.120755 0
-0.080518 0.150422 0
-0.100699 0.173561 0
-0.116249 0.188360 0
-0.127206 0.194303 0
-0.133781 0.191874 0
-0.136339 0.182266 0
-0.135368 0.167119 0
-0.131433 0.148250 0
-0.125122 0.127417 0
-0.116995 0.106153 0
-0.107556 0.085681 0
-0.097279 0.066909 0
-0.086648 0.050461 0
-0.076189 0.036691 0
-0.066479 0.025672 0
-0.058055 0.017202 0
-0.051375 0.010819 0
-0.046617 0.005900 0
-0.043704 0.001841 0
-0.042447 -0.001835 0
-0.042639 -0.005714 0
-0.043942 -0.010397 0
-0.046261 -0.016297 0
-0.049485 -0.023894 0
-0.053506 -0.033823 0
-0.057959 -0.046761 0
-0.062117 -0.063047 0
-0.065299 -0.082429 0
-0.067202 -0.104314 0
-0.067884 -0.128211 0
-0.067477 -0.153812 0
-0.066120 -0.180870 0
-0.063893 -0.209176 0
-0.060636 -0.238250 0
-0.055371 -0.265468 0
-0.045293 -0.278617 0
-0.025969 -0.232656 0
-0.000087 0.000012 0
0.000000 0.093075 0
0.000000 -0.000006 0
-0.022985 0.110701 0
-0.047762 0.145691 0
-0.069198 0.171402 0
-0.086592 0.190128 0
-0.099662 0.200397 0
-0.108425 0.201943 0
-0.113102 0.195427 0
-0.114074 0.182178 0
-0.111822 0.163922 0
-0.106867 0.142500 0
-0.099711 0.119646 0
-0.090810 0.096845 0
-0.080568 0.075285 0
-0.069391 0.055885 0
-0.057739 0.039331 0
-0.046202 0.026061 0
-0.035563 0.016179 0
-0.026567 0.009434 0
-0.019923 0.005148 0
-0.015762 0.002346 0
-0.013801 0.000185 0
-0.013661 -0.001911 0
-0.014874 -0.004526 0
-0.017134 -0.008136 0
-0.020299 -0.013050 0
-0.024317 -0.019712 0
-0.029307 -0.028889 0
-0.035018 -0.041668 0
-0.040511 -0.058612 0
-0.044870 -0.079214 0
-0.047776 -0.102437 0
-0.049363 -0.127544 0
-0.049833 -0.154189 0
-0.049369 -0.182148 0
-0.048114 -0.211314 0
-0.046100 -0.241630 0
-0.042797 -0.271701 0
-0.036029 -0.291196 0
-0.021388 -0.252905 0
-0.000080 0.000012 0
0.000000 0.104887 0
0.000000 -0.000006 0
-0.018117 0.132402 0
-0.038819 0.166968 0
-0.056805 0.189252 0
-0.071292 0.204025 0
-0.081981 0.210192 0
-0.088853 0.207743 0
-0.092101 0.197524 0
-0.092060 0.180986 0
-0.089148 0.159912 0
-0.083795 0.136139 0
-0.076397 0.111360 0
-0.067294 0.087010 0
-0.056791 0.064262 0
-0.045202 0.044080 0
-0.032906 0.027271 0
-0.020466 0.014515 0
-0.008866 0.006037 0
-0.000233 0.001562 0
0.005378 0.000014 0
0.008334 -0.000223 0
0.009131 -0.000261 0
0.008263 -0.000762 0
0.006171 -0.002241 0
0.003108 -0.004971 0
-0.000684 -0.009114 0
-0.005210 -0.014887 0
-0.010697 -0.023123 0
-0.016978 -0.035558 0
-0.023094 -0.053195 0
-0.027935 -0.075163 0
-0.031287 -0.099820 0
-0.033355 -0.126154 0
-0.034393 -0.153806 0
-0.034608 -0.182589 0
-0.034174 -0.212445 0
-0.033218 -0.243567 0
-0.031533 -0.275538 0
-0.027554 -0.300026 0
-0.017118 -0.268685 0
-0.000072 0.000012 0
0.000000 0.114463 0
0.000000 -0.000006 0
-0.013132 0.149520 0
-0.029614 0.184379 0
-0.044076 0.203875 0
-0.055685 0.215304 0
-0.064145 0.217958 0
-0.069409 0.212063 0
-0.071616 0.198634 0
-0.071031 0.179226 0
-0.067976 0.155657 0
-0.062777 0.129749 0
-0.055714 0.103145 0
-0.047020 0.077239 0
-0.036889 0.053193 0
-0.025496 0.032000 0
-0.012870 0.014594 0
-0.000209 0.002021 0
0.009515 -0.004054 0
0.016068 -0.004809 0
0.020125 -0.003419 0
0.022138 -0.001407 0
0.022360 0.000257 0
0.021153 0.001049 0
0.018824 0.000628 0
0.015555 -0.001280 0
0.011506 -0.004731 0
0.006778 -0.009699 0
0.001441 -0.017121 0
-0.004450 -0.029271 0
-0.010203 -0.047656 0
-0.014596 -0.071021 0
-0.017716 -0.097017 0
-0.019793 -0.124438 0
-0.021070 -0.152937 0
-0.021747 -0.182368 0
-0.022000 -0.212705 0
-0.021982 -0.244271 0
-0.021674 -0.277364 0
-0.020038 -0.305611 0
-0.013287 -0.280459 0
-0.000063 0.000011 0
0.000000 0.122005 0
0.000000 -0.000006 0
-0.008159 0.162016 0
-0.020438 0.197912 0
-0.031439 0.215323 0
-0.040280 0.224094 0
-0.046689 0.223916 0
-0.050596 0.215214 0
-0.052085 0.199145 0
-0.051338 0.177346 0
-0.048581 0.151658 0
-0.044031 0.123877 0
-0.037866 0.095603 0
-0.030212 0.068184 0
-0.021139 0.042739 0
-0.010615 0.020062 0
0.001170 0.001985 0
0.010303 -0.007870 0
0.016046 -0.010240 0
0.020234 -0.009049 0
0.023235 -0.006056 0
0.025047 -0.002457 0
0.025503 0.000723 0
0.024641 0.002774 0
0.022686 0.003357 0
0.019828 0.002346 0
0.016162 -0.000337 0
0.011824 -0.004822 0
0.007155 -0.011894 0
0.002469 -0.023913 0
-0.001544 -0.043049 0
-0.004567 -0.067650 0
-0.006808 -0.094624 0
-0.008451 -0.122800 0
-0.009668 -0.151853 0
-0.010603 -0.181659 0
-0.011422 -0.212210 0
-0.012245 -0.243893 0
-0.013144 -0.277482 0
-0.013482 -0.308414 0
-0.009926 -0.288723 0
-0.000054 0.000011 0
0.000000 0.127749 0
0.000000 -0.000005 0
-0.003318 0.169958 0
-0.011442 0.207659 0
-0.019114 0.223717 0
-0.025331 0.230554 0
-0.029858 0.228275 0
-0.032615 0.217459 0
-0.033636 0.199376 0
-0.033029 0.175722 0
-0.030929 0.148350 0
-0.027463 0.119034 0
-0.022722 0.089326 0
-0.016753 0.060512 0
-0.009520 0.033596 0
-0.000756 0.009691 0
0.006666 -0.006324 0
0.010825 -0.012854 0
0.013944 -0.013985 0
0.016535 -0.011998 0
0.018703 -0.008232 0
0.020348 -0.003675 0
0.021197 0.000663 0
0.020998 0.003866 0
0.019817 0.005441 0
0.017780 0.005244 0
0.015038 0.003273 0
0.011715 -0.000692 0
0.008182 -0.007766 0
0.005349 -0.020572 0
0.003882 -0.040620 0
0.002864 -0.065757 0
0.001948 -0.093133 0
0.001048 -0.121578 0
0.000120 -0.150784 0
-0.000930 -0.180613 0
-0.002211 -0.211063 0
-0.003795 -0.242549 0
-0.005770 -0.276127 0
-0.007794 -0.308829 0
-0.007002 -0.293942 0
-0.000047 0.000010 0
0.000000 0.131930 0
0.000000 -0.000005 0
0.001201 0.173457 0
-0.002719 0.213707 0
-0.007183 0.229213 0
-0.010917 0.234838 0
-0.013701 0.231200 0
-0.015457 0.218993 0
-0.016183 0.199560 0
-0.015925 0.174639 0
-0.014746 0.146092 0
-0.012702 0.115670 0
-0.009825 0.084893 0
-0.006105 0.054983 0
-0.001504 0.026742 0
0.003296 0.003876 0
0.005401 -0.009596 0
0.006736 -0.015149 0
0.007885 -0.015950 0
0.009064 -0.013807 0
0.010359 -0.009869 0
0.011693 -0.004951 0
0.012813 0.000074 0
0.013307 0.004154 0
0.013068 0.006575 0
0.012109 0.007126 0
0.010541 0.005729 0
0.008631 0.002034 0
0.006951 -0.005529 0
0.006714 -0.019614 0
0.007776 -0.040563 0
0.008784 -0.065716 0
0.009251 -0.092808 0
0.009189 -0.120972 0
0.008636 -0.149874 0
0.007548 -0.179328 0
0.005880 -0.209345 0
0.003596 -0.240334 0
0.000657 -0.273482 0
-0.002830 -0.307182 0
-0.004450 -0.296517 0
-0.000042 0.000010 0
0.000000 0.134750 0
0.000000 -0.000004 0
0.005377 0.172677 0
0.005633 0.216043 0
0.004291 0.231915 0
0.002939 0.237072 0
0.001827 0.232815 0
0.001017 0.219941 0
0.000527 0.199844 0
0.000352 0.174285 0
0.000478 0.145128 0
0.000896 0.114114 0
0.001596 0.082729 0
0.002566 0.052190 0
0.003625 0.024195 0
0.003311 0.002786 0
0.002093 -0.009765 0
0.001209 -0.015338 0
0.000618 -0.016313 0
0.000465 -0.014472 0
0.000840 -0.010861 0
0.001717 -0.006129 0
0.002925 -0.000951 0
0.004085 0.003611 0
0.004818 0.006639 0
0.005048 0.007771 0
0.004880 0.006751 0
0.004730 0.002897 0
0.005594 -0.005849 0
0.008310 -0.021397 0
0.011618 -0.042690 0
0.014225 -0.067232 0
0.015844 -0.093537 0
0.016527 -0.120963 0
0.016314 -0.149144 0
0.015192 -0.177858 0
0.013148 -0.207111 0
0.010174 -0.237326 0
0.006282 -0.269700 0
0.001547 -0.303722 0
-0.002184 -0.296772 0
-0.000038 0.000010 0
0.000000 0.136378 0
0.000000 -0.000004 0
0.009301 0.167825 0
0.013585 0.214793 0
0.015282 0.231907 0
0.016237 0.237302 0
0.016779 0.233122 0
0.016945 0.220292 0
0.016742 0.200225 0
0.016182 0.174688 0
0.015284 0.145548 0
0.014060 0.114552 0
0.012498 0.083223 0
0.010500 0.052954 0
0.007689 0.025997 0
0.003423 0.005407 0
-0.000767 -0.007494 0
-0.003707 -0.013674 0
-0.005834 -0.015207 0
-0.007158 -0.014029 0
-0.007667 -0.011121 0
-0.007368 -0.007036 0
-0.006313 -0.002294 0
-0.004702 0.002261 0
-0.003062 0.005611 0
-0.001571 0.007063 0
-0.000102 0.006047 0
0.002022 0.001320 0
0.005983 -0.009108 0
0.011225 -0.025637 0
0.016117 -0.046478 0
0.019864 -0.069942 0
0.022347 -0.095111 0
0.023590 -0.121442 0
0.023599 -0.148539 0
0.022364 -0.176162 0
0.019886 -0.204326 0
0.016189 -0.233468 0
0.011315 -0.264856 0
0.005414 -0.298716 0
-0.000126 -0.294970 0
-0.000035 0.000009 0
0.000000 0.136933 0
0.000000 -0.000003 0
0.012945 0.159092 0
0.021126 0.210062 0
0.025804 0.229263 0
0.029002 0.235575 0
0.031190 0.232107 0
0.032394 0.219978 0
0.032600 0.200606 0
0.031818 0.175743 0
0.030082 0.147250 0
0.027428 0.116900 0
0.023849 0.086290 0
0.019239 0.056998 0
0.013329 0.031272 0
0.006255 0.011243 0
-0.000806 -0.002634 0
-0.006119 -0.010272 0
-0.009682 -0.012863 0
-0.012016 -0.012639 0
-0.013315 -0.010650 0
-0.013612 -0.007483 0
-0.012894 -0.003617 0
-0.011204 0.000360 0
-0.008818 0.003508 0
-0.005998 0.004811 0
-0.002513 0.003158 0
0.002557 -0.003188 0
0.009160 -0.015052 0
0.015923 -0.031531 0
0.021733 -0.051330 0
0.026199 -0.073462 0
0.029232 -0.097262 0
0.030788 -0.122215 0
0.030831 -0.147919 0
0.029340 -0.174145 0
0.026330 -0.200935 0
0.021850 -0.228756 0
0.015983 -0.258926 0
0.008888 -0.292281 0
0.001791 -0.291357 0
-0.000034 0.000009 0
0.000000 0.136504 0
0.000000 -0.000002 0
0.016219 0.146699 0
0.028148 0.201935 0
0.035779 0.224031 0
0.041189 0.231916 0
0.045035 0.229730 0
0.047375 0.218882 0
0.048173 0.200801 0
0.047429 0.177206 0
0.045186 0.149938 0
0.041508 0.120786 0
0.036434 0.091411 0
0.029947 0.063473 0
0.022034 0.038981 0
0.013215 0.019543 0
0.004339 0.004880 0
-0.003741 -0.004799 0
-0.009189 -0.009310 0
-0.012551 -0.010396 0
-0.014569 -0.009525 0
-0.015361 -0.007457 0
-0.014931 -0.004702 0
-0.013239 -0.001816 0
-0.010240 0.000405 0
-0.005973 0.000758 0
-0.000101 -0.002508 0
0.007304 -0.010352 0
0.015199 -0.022475 0
0.022561 -0.038210 0
0.028785 -0.056754 0
0.033602 -0.077441 0
0.036858 -0.099700 0
0.038442 -0.123041 0
0.038281 -0.147091 0
0.036348 -0.171662 0
0.032669 -0.196837 0
0.027315 -0.223122 0
0.020401 -0.251894 0
0.012116 -0.284524 0
0.003592 -0.286082 0
-0.000033 0.000008 0
0.000000 0.135141 0
0.000000 -0.000001 0
0.018977 0.130943 0
0.034447 0.190501 0
0.045020 0.216223 0
0.052652 0.226319 0
0.058204 0.225920 0
0.061812 0.216840 0
0.063433 0.200553 0
0.063056 0.178731 0
0.060730 0.153171 0
0.056556 0.125652 0
0.050647 0.097850 0
0.043122 0.071398 0
0.034211 0.048004 0
0.024590 0.028938 0
0.015053 0.014322 0
0.005725 0.003256 0
-0.002038 -0.004053 0
-0.007175 -0.007259 0
-0.010021 -0.007840 0
-0.011204 -0.007121 0
-0.010864 -0.005739 0
-0.008932 -0.004332 0
-0.005232 -0.003759 0
0.000350 -0.005328 0
0.007664 -0.010118 0
0.015784 -0.018487 0
0.023895 -0.030309 0
0.031300 -0.045117 0
0.037552 -0.062371 0
0.042352 -0.081534 0
0.045477 -0.102103 0
0.046767 -0.123638 0
0.046131 -0.145825 0
0.043540 -0.168533 0
0.039030 -0.191902 0
0.032691 -0.216488 0
0.024667 -0.243727 0
0.015175 -0.275471 0
0.005278 -0.279241 0
-0.000032 0.000008 0
0.000000 0.132912 0
0.000000 -0.000000 0
0.021019 0.112251 0
0.039705 0.175891 0
0.053200 0.205826 0
0.063123 0.218732 0
0.070481 0.220571 0
0.075520 0.213653 0
0.078225 0.199558 0
0.078575 0.179910 0
0.076631 0.156437 0
0.072529 0.130869 0
0.066460 0.104845 0
0.058673 0.079909 0
0.049557 0.057514 0
0.039810 0.038700 0
0.030194 0.023744 0
0.021177 0.012293 0
0.012743 0.003590 0
0.005940 -0.002413 0
0.001707 -0.005495 0
-0.000134 -0.006613 0
0.000061 -0.006974 0