# vtk DataFile Version 2.0
generated by CFD-lab course output (written by Tobias Neckel) 
ASCII

DATASET STRUCTURED_GRID
DIMENSIONS  42 42 1 
POINTS 1764 float

0.150000 0.150000 0
0.167857 0.150000 0
0.185714 0.150000 0
0.203571 0.150000 0
0.221429 0.150000 0
0.239286 0.150000 0
0.257143 0.150000 0
0.275000 0.150000 0
0.292857 0.150000 0
0.310714 0.150000 0
0.328571 0.150000 0
0.346429 0.150000 0
0.364286 0.150000 0
0.382143 0.150000 0
0.400000 0.150000 0
0.417857 0.150000 0
0.435714 0.150000 0
0.453571 0.150000 0
0.471429 0.150000 0
0.489286 0.150000 0
0.507143 0.150000 0
0.525000 0.150000 0
0.542857 0.150000 0
0.560714 0.150000 0
0.578571 0.150000 0
0.596429 0.150000 0
0.614286 0.150000 0
0.632143 0.150000 0
0.650000 0.150000 0
0.667857 0.150000 0
0.685714 0.150000 0
0.703571 0.150000 0
0.721429 0.150000 0
0.739286 0.150000 0
0.757143 0.150000 0
0.775000 0.150000 0
0.792857 0.150000 0
0.810714 0.150000 0
0.828571 0.150000 0
0.846429 0.150000 0
0.864286 0.150000 0
0.882143 0.150000 0
0.150000 0.167857 0
0.167857 0.167857 0
0.185714 0.167857 0
0.203571 0.167857 0
0.221429 0.167857 0
0.239286 0.167857 0
0.257143 0.167857 0
0.275000 0.167857 0
0.292857 0.167857 0
0.310714 0.167857 0
0.328571 0.167857 0
0.346429 0.167857 0
0.364286 0.167857 0
0.382143 0.167857 0
0.400000 0.167857 0
0.417857 0.167857 0
0.435714 0.167857 0
0.453571 0.167857 0
0.471429 0.167857 0
0.489286 0.167857 0
0.507143 0.167857 0
0.525000 0.167857 0
0.542857 0.167857 0
0.560714 0.167857 0
0.578571 0.167857 0
0.596429 0.167857 0
0.614286 0.167857 0
0.632143 0.167857 0
0.650000 0.167857 0
0.667857 0.167857 0
0.685714 0.167857 0
0.703571 0.167857 0
0.721429 0.167857 0
0.739286 0.167857 0
0.757143 0.167857 0
0.775000 0.167857 0
0.792857 0.167857 0
0.810714 0.167857 0
0.828571 0.167857 0
0.846429 0.167857 0
0.864286 0.167857 0
0.882143 0.167857 0
0.150000 0.185714 0
0.167857 0.185714 0
0.185714 0.185714 0
0.203571 0.185714 0
0.221429 0.185714 0
0.239286 0.185714 0
0.257143 0.185714 0
0.275000 0.185714 0
0.292857 0.185714 0
0.310714 0.185714 0
0.328571 0.185714 0
0.346429 0.185714 0
0.364286 0.185714 0
0.382143 0.185714 0
0.400000 0.185714 0
0.417857 0.185714 0
0.435714 0.185714 0
0.453571 0.185714 0
0.471429 0.185714 0
0.489286 0.185714 0
0.507143 0.185714 0
0.525000 0.185714 0
0.542857 0.185714 0
0.560714 0.185714 0
0.578571 0.185714 0
0.596429 0.185714 0
0.614286 0.185714 0
0.632143 0.185714 0
0.650000 0.185714 0
0.667857 0.185714 0
0.685714 0.185714 0
0.703571 0.185714 0
0.721429 0.185714 0
0.739286 0.185714 0
0.757143 0.185714 0
0.775000 0.185714 0
0.792857 0.185714 0
0.810714 0.185714 0
0.828571 0.185714 0
0.846429 0.185714 0
0.864286 0.185714 0
0.882143 0.185714 0
0.150000 0.203571 0
0.167857 0.203571 0
0.185714 0.203571 0
0.203571 0.203571 0
0.221429 0.203571 0
0.239286 0.203571 0
0.257143 0.203571 0
0.275000 0.203571 0
0.292857 0.203571 0
0.310714 0.203571 0
0.328571 0.203571 0
0.346429 0.203571 0
0.364286 0.203571 0
0.382143 0.203571 0
0.400000 0.203571 0
0.417857 0.203571 0
0.435714 0.203571 0
0.453571 0.203571 0
0.471429 0.203571 0
0.489286 0.203571 0
0.507143 0.203571 0
0.525000 0.203571 0
0.542857 0.203571 0
0.560714 0.203571 0
0.578571 0.203571 0
0.596429 0.203571 0
0.614286 0.203571 0
0.632143 0.203571 0
0.650000 0.203571 0
0.667857 0.203571 0
0.685714 0.203571 0
0.703571 0.203571 0
0.721429 0.203571 0
0.739286 0.203571 0
0.757143 0.203571 0
0.775000 0.203571 0
0.792857 0.203571 0
0.810714 0.203571 0
0.828571 0.203571 0
0.846429 0.203571 0
0.864286 0.203571 0
0.882143 0.203571 0
0.150000 0.221429 0
0.167857 0.221429 0
0.185714 0.221429 0
0.203571 0.221429 0
0.221429 0.221429 0
0.239286 0.221429 0
0.257143 0.221429 0
0.275000 0.221429 0
0.292857 0.221429 0
0.310714 0.221429 0
0.328571 0.221429 0
0.346429 0.221429 0
0.364286 0.221429 0
0.382143 0.221429 0
0.400000 0.221429 0
0.417857 0.221429 0
0.435714 0.221429 0
0.453571 0.221429 0
0.471429 0.221429 0
0.489286 0.221429 0
0.507143 0.221429 0
0.525000 0.221429 0
0.542857 0.221429 0
0.560714 0.221429 0
0.578571 0.221429 0
0.596429 0.221429 0
0.614286 0.221429 0
0.632143 0.221429 0
0.650000 0.221429 0
0.667857 0.221429 0
0.685714 0.221429 0
0.703571 0.221429 0
0.721429 0.221429 0
0.739286 0.221429 0
0.757143 0.221429 0
0.775000 0.221429 0
0.792857 0.221429 0
0.810714 0.221429 0
0.828571 0.221429 0
0.846429 0.221429 0
0.864286 0.221429 0
0.882143 0.221429 0
0.150000 0.239286 0
0.167857 0.239286 0
0.185714 0.239286 0
0.203571 0.239286 0
0.221429 0.239286 0
0.239286 0.239286 0
0.257143 0.239286 0
0.275000 0.239286 0
0.292857 0.239286 0
0.310714 0.239286 0
0.328571 0.239286 0
0.346429 0.239286 0
0.364286 0.239286 0
0.382143 0.239286 0
0.400000 0.239286 0
0.417857 0.239286 0
0.435714 0.239286 0
0.453571 0.239286 0
0.471429 0.239286 0
0.489286 0.239286 0
0.507143 0.239286 0
0.525000 0.239286 0
0.542857 0.239286 0
0.560714 0.239286 0
0.578571 0.239286 0
0.596429 0.239286 0
0.614286 0.239286 0
0.632143 0.239286 0
0.650000 0.239286 0
0.667857 0.239286 0
0.685714 0.239286 0
0.703571 0.239286 0
0.721429 0.239286 0
0.739286 0.239286 0
0.757143 0.239286 0
0.775000 0.239286 0
0.792857 0.239286 0
0.810714 0.239286 0
0.828571 0.239286 0
0.846429 0.239286 0
0.864286 0.239286 0
0.882143 0.239286 0
0.150000 0.257143 0
0.167857 0.257143 0
0.185714 0.257143 0
0.203571 0.257143 0
0.221429 0.257143 0
0.239286 0.257143 0
0.257143 0.257143 0
0.275000 0.257143 0
0.292857 0.257143 0
0.310714 0.257143 0
0.328571 0.257143 0
0.346429 0.257143 0
0.364286 0.257143 0
0.382143 0.257143 0
0.400000 0.257143 0
0.417857 0.257143 0
0.435714 0.257143 0
0.453571 0.257143 0
0.471429 0.257143 0
0.489286 0.257143 0
0.507143 0.257143 0
0.525000 0.257143 0
0.542857 0.257143 0
0.560714 0.257143 0
0.578571 0.257143 0
0.596429 0.257143 0
0.614286 0.257143 0
0.632143 0.257143 0
0.650000 0.257143 0
0.667857 0.257143 0
0.685714 0.257143 0
0.703571 0.257143 0
0.721429 0.257143 0
0.739286 0.257143 0
0.757143 0.257143 0
0.775000 0.257143 0
0.792857 0.257143 0
0.810714 0.257143 0
0.828571 0.257143 0
0.846429 0.257143 0
0.864286 0.257143 0
0.882143 0.257143 0
0.150000 0.275000 0
0.167857 0.275000 0
0.185714 0.275000 0
0.203571 0.275000 0
0.221429 0.275000 0
0.239286 0.275000 0
0.257143 0.275000 0
0.275000 0.275000 0
0.292857 0.275000 0
0.310714 0.275000 0
0.328571 0.275000 0
0.346429 0.275000 0
0.364286 0.275000 0
0.382143 0.275000 0
0.400000 0.275000 0
0.417857 0.275000 0
0.435714 0.275000 0
0.453571 0.275000 0
0.471429 0.275000 0
0.489286 0.275000 0
0.507143 0.275000 0
0.525000 0.275000 0
0.542857 0.275000 0
0.560714 0.275000 0
0.578571 0.275000 0
0.596429 0.275000 0
0.614286 0.275000 0
0.632143 0.275000 0
0.650000 0.275000 0
0.667857 0.275000 0
0.685714 0.275000 0
0.703571 0.275000 0
0.721429 0.275000 0
0.739286 0.275000 0
0.757143 0.275000 0
0.775000 0.275000 0
0.792857 0.275000 0
0.810714 0.275000 0
0.828571 0.275000 0
0.846429 0.275000 0
0.864286 0.275000 0
0.882143 0.275000 0
0.150000 0.292857 0
0.167857 0.292857 0
0.185714 0.292857 0
0.203571 0.292857 0
0.221429 0.292857 0
0.239286 0.292857 0
0.257143 0.292857 0
0.275000 0.292857 0
0.292857 0.292857 0
0.310714 0.292857 0
0.328571 0.292857 0
0.346429 0.292857 0
0.364286 0.292857 0
0.382143 0.292857 0
0.400000 0.292857 0
0.417857 0.292857 0
0.435714 0.292857 0
0.453571 0.292857 0
0.471429 0.292857 0
0.489286 0.292857 0
0.507143 0.292857 0
0.525000 0.292857 0
0.542857 0.292857 0
0.560714 0.292857 0
0.578571 0.292857 0
0.596429 0.292857 0
0.614286 0.292857 0
0.632143 0.292857 0
0.650000 0.292857 0
0.667857 0.292857 0
0.685714 0.292857 0
0.703571 0.292857 0
0.721429 0.292857 0
0.739286 0.292857 0
0.757143 0.292857 0
0.775000 0.292857 0
0.792857 0.292857 0
0.810714 0.292857 0
0.828571 0.292857 0
0.846429 0.292857 0
0.864286 0.292857 0
0.882143 0.292857 0
0.150000 0.310714 0
0.167857 0.310714 0
0.185714 0.310714 0
0.203571 0.310714 0
0.221429 0.310714 0
0.239286 0.310714 0
0.257143 0.310714 0
0.275000 0.310714 0
0.292857 0.310714 0
0.310714 0.310714 0
0.328571 0.310714 0
0.346429 0.310714 0
0.364286 0.310714 0
0.382143 0.310714 0
0.400000 0.310714 0
0.417857 0.310714 0
0.435714 0.310714 0
0.453571 0.310714 0
0.471429 0.310714 0
0.489286 0.310714 0
0.507143 0.310714 0
0.525000 0.310714 0
0.542857 0.310714 0
0.560714 0.310714 0
0.578571 0.310714 0
0.596429 0.310714 0
0.614286 0.310714 0
0.632143 0.310714 0
0.650000 0.310714 0
0.667857 0.310714 0
0.685714 0.310714 0
0.703571 0.310714 0
0.721429 0.310714 0
0.739286 0.310714 0
0.757143 0.310714 0
0.775000 0.310714 0
0.792857 0.310714 0
0.810714 0.310714 0
0.828571 0.310714 0
0.846429 0.310714 0
0.864286 0.310714 0
0.882143 0.310714 0
0.150000 0.328571 0
0.167857 0.328571 0
0.185714 0.328571 0
0.203571 0.328571 0
0.221429 0.328571 0
0.239286 0.328571 0
0.257143 0.328571 0
0.275000 0.328571 0
0.292857 0.328571 0
0.310714 0.328571 0
0.328571 0.328571 0
0.346429 0.328571 0
0.364286 0.328571 0
0.382143 0.328571 0
0.400000 0.328571 0
0.417857 0.328571 0
0.435714 0.328571 0
0.453571 0.328571 0
0.471429 0.328571 0
0.489286 0.328571 0
0.507143 0.328571 0
0.525000 0.328571 0
0.542857 0.328571 0
0.560714 0.328571 0
0.578571 0.328571 0
0.596429 0.328571 0
0.614286 0.328571 0
0.632143 0.328571 0
0.650000 0.328571 0
0.667857 0.328571 0
0.685714 0.328571 0
0.703571 0.328571 0
0.721429 0.328571 0
0.739286 0.328571 0
0.757143 0.328571 0
0.775000 0.328571 0
0.792857 0.328571 0
0.810714 0.328571 0
0.828571 0.328571 0
0.846429 0.328571 0
0.864286 0.328571 0
0.882143 0.328571 0
0.150000 0.346429 0
0.167857 0.346429 0
0.185714 0.346429 0
0.203571 0.346429 0
0.221429 0.346429 0
0.239286 0.346429 0
0.257143 0.346429 0
0.275000 0.346429 0
0.292857 0.346429 0
0.310714 0.346429 0
0.328571 0.346429 0
0.346429 0.346429 0
0.364286 0.346429 0
0.382143 0.346429 0
0.400000 0.346429 0
0.417857 0.346429 0
0.435714 0.346429 0
0.453571 0.346429 0
0.471429 0.346429 0
0.489286 0.346429 0
0.507143 0.346429 0
0.525000 0.346429 0
0.542857 0.346429 0
0.560714 0.346429 0
0.578571 0.346429 0
0.596429 0.346429 0
0.614286 0.346429 0
0.632143 0.346429 0
0.650000 0.346429 0
[...]
POINT_DATA 1764 

VECTORS velocity float
0.000000 0.000000 0
-0.000002 0.000000 0
-0.000003 0.000000 0
-0.000003 0.000000 0
-0.000003 0.000000 0
-0.000002 0.000000 0
-0.000002 0.000000 0
-0.000001 0.000000 0
-0.000001 0.000000 0
-0.000002 0.000000 0
-0.000001 0.000000 0
0.000001 0.000000 0
0.000003 0.000000 0
0.000004 0.000000 0
0.000005 0.000000 0
0.000006 0.000000 0
0.000007 0.000000 0
0.000007 0.000000 0
0.000008 0.000000 0
0.000008 0.000000 0
0.000008 0.000000 0
0.000008 0.000000 0
0.000008 0.000000 0
0.000008 0.000000 0
0.000008 0.000000 0
0.000008 0.000000 0
0.000009 0.000000 0
0.000009 0.000000 0
0.000009 0.000000 0
0.000009 0.000000 0
0.000009 0.000000 0
0.000009 0.000000 0
0.000008 0.000000 0
0.000008 0.000000 0
0.000007 0.000000 0
0.000006 0.000000 0
0.000005 0.000000 0
0.000003 0.000000 0
-0.000000 0.000000 0
-0.000001 0.000000 0
-0.000000 0.000000 0
0.000000 0.000000 0
0.000000 0.000002 0
0.020923 -0.019637 0
0.041786 -0.015054 0
0.051879 -0.004105 0
0.051858 0.004262 0
0.045174 0.007853 0
0.036794 0.006503 0
0.033095 0.004035 0
0.026804 -0.001543 0
0.011442 -0.008183 0
-0.008860 0.001969 0
-0.034320 0.020523 0
-0.064646 0.029396 0
-0.096483 0.031731 0
-0.127580 0.031370 0
-0.156599 0.029678 0
-0.182743 0.027109 0
-0.205627 0.024110 0
-0.225153 0.020973 0
-0.241404 0.017884 0
-0.254560 0.014936 0
-0.264830 0.012159 0
-0.272407 0.009537 0
-0.277429 0.007006 0
-0.279957 0.004470 0
-0.279948 0.001819 0
-0.277289 -0.001076 0
-0.271821 -0.004323 0
-0.263282 -0.007951 0
-0.251325 -0.011973 0
-0.235545 -0.016450 0
-0.215489 -0.021411 0
-0.190721 -0.026784 0
-0.160927 -0.032339 0
-0.126121 -0.037544 0
-0.087027 -0.041356 0
-0.045773 -0.041651 0
-0.007169 -0.030228 0
0.019202 -0.003516 0
0.015068 0.016756 0
-0.000005 -0.000001 0
0.000000 -0.010325 0
0.000000 0.000003 0
0.022041 -0.041786 0
0.040081 -0.030956 0
0.048254 -0.010072 0
0.047539 0.006705 0
0.040693 0.015064 0
0.028879 0.012079 0
0.010256 0.009990 0
-0.015204 0.021653 0
-0.053044 0.035664 0
-0.097337 0.045763 0
-0.132991 0.055786 0
-0.163896 0.062163 0
-0.192158 0.062933 0
-0.217729 0.060116 0
-0.240058 0.055163 0
-0.259000 0.049028 0
-0.274601 0.042409 0
-0.287043 0.035777 0
-0.296576 0.029407 0
-0.303466 0.023427 0
-0.307958 0.017847 0
-0.310246 0.012599 0
-0.310454 0.007550 0
-0.308645 0.002519 0
-0.304800 -0.002667 0
-0.298920 -0.008127 0
-0.290884 -0.014008 0
-0.280511 -0.020496 0
-0.267492 -0.027737 0
-0.251465 -0.035836 0
-0.232050 -0.044824 0
-0.208880 -0.054562 0
-0.181682 -0.064601 0
-0.150438 -0.073900 0
-0.115668 -0.080348 0
-0.078963 -0.079858 0
-0.043604 -0.064974 0
-0.011010 -0.022237 0
0.008783 0.019202 0
0.000001 -0.000001 0
0.000000 -0.015069 0
0.000000 0.000003 0
0.016919 -0.059718 0
0.026994 -0.041267 0
0.028981 -0.011562 0
0.019975 0.011824 0
0.005343 0.026513 0
-0.016772 0.036939 0
-0.051647 0.048118 0
-0.090806 0.061758 0
-0.126500 0.073950 0
-0.160451 0.081915 0
-0.190358 0.087082 0
-0.214707 0.088563 0
-0.234803 0.085565 0
-0.251322 0.079270 0
-0.264601 0.070949 0
-0.274990 0.061653 0
-0.282843 0.052152 0
-0.288505 0.042948 0
-0.292282 0.034307 0
-0.294431 0.026318 0
-0.295147 0.018939 0
-0.294565 0.012033 0
-0.292754 0.005406 0
-0.289736 -0.001185 0
-0.285518 -0.007907 0
-0.280028 -0.014992 0
-0.273069 -0.022733 0
-0.264413 -0.031343 0
-0.253795 -0.041018 0
-0.240919 -0.051892 0
-0.225481 -0.063997 0
-0.207181 -0.077152 0
-0.185755 -0.090781 0
-0.161035 -0.103559 0
-0.133059 -0.112830 0
-0.102232 -0.113715 0
-0.069407 -0.098181 0
-0.035571 -0.055902 0
0.000658 0.005746 0
0.000011 -0.000002 0
0.000000 -0.019109 0
0.000000 0.000003 0
0.006659 -0.068781 0
0.003571 -0.043019 0
-0.006719 -0.003052 0
-0.023503 0.030343 0
-0.046101 0.051810 0
-0.074699 0.069070 0
-0.107273 0.084024 0
-0.139958 0.096505 0
-0.169114 0.105309 0
-0.194728 0.109621 0
-0.216103 0.110042 0
-0.232470 0.106608 0
-0.244639 0.099548 0
-0.253443 0.089914 0
-0.259581 0.078831 0
-0.263636 0.067270 0
-0.266079 0.055924 0
-0.267276 0.045215 0
-0.267500 0.035333 0
-0.266944 0.026292 0
-0.265731 0.017981 0
-0.263925 0.010205 0
-0.261538 0.002721 0
-0.258534 -0.004717 0
-0.254943 -0.012375 0
-0.250537 -0.020576 0
-0.245157 -0.029623 0
-0.238589 -0.039770 0
-0.230615 -0.051230 0
-0.221008 -0.064150 0
-0.209548 -0.078562 0
-0.196014 -0.094289 0
-0.180166 -0.110746 0
-0.161706 -0.126596 0
-0.140236 -0.139150 0
-0.115217 -0.143510 0
-0.085969 -0.131636 0
-0.052026 -0.092301 0
-0.015437 -0.016369 0
0.000003 0.000002 0
0.000000 -0.015724 0
0.000000 0.000002 0
-0.007154 -0.063289 0
-0.023926 -0.027889 0
-0.045684 0.015512 0
-0.065599 0.051206 0
-0.089150 0.077709 0
-0.115569 0.098110 0
-0.142466 0.113377 0
-0.167675 0.123599 0
-0.189361 0.128720 0
-0.207103 0.128903 0
-0.220627 0.124824 0
-0.229889 0.117100 0
-0.235611 0.106537 0
-0.238618 0.094212 0
-0.239666 0.081142 0
-0.239366 0.068151 0
-0.238178 0.055792 0
-0.236434 0.044369 0
-0.234362 0.033975 0
-0.232109 0.024549 0
-0.229759 0.015920 0
-0.227346 0.007841 0
-0.224862 0.000015 0
-0.222271 -0.007779 0
-0.219459 -0.015904 0
-0.216244 -0.024779 0
-0.212444 -0.034681 0
-0.207857 -0.045885 0
-0.202283 -0.058599 0
-0.195546 -0.072959 0
-0.187497 -0.088990 0
-0.177999 -0.106534 0
-0.166876 -0.125090 0
-0.153805 -0.143489 0
-0.138176 -0.159319 0
-0.118936 -0.167982 0
-0.094605 -0.161372 0
-0.063945 -0.126435 0
-0.028499 -0.046280 0
-0.000019 0.000005 0
0.000000 -0.003665 0
0.000000 0.000001 0
-0.019727 -0.044855 0
-0.045592 -0.004489 0
-0.070309 0.038621 0
-0.092909 0.073810 0
-0.115851 0.101780 0
-0.138664 0.122385 0
-0.159953 0.136130 0
-0.178513 0.143400 0
-0.193428 0.144738 0
-0.204446 0.140886 0
-0.211610 0.132828 0
-0.215266 0.121592 0
-0.216122 0.108277 0
-0.214942 0.093969 0
-0.212417 0.079580 0
-0.209098 0.065782 0
-0.205402 0.052992 0
-0.201629 0.041399 0
-0.197989 0.031008 0
-0.194617 0.021689 0
-0.191589 0.013218 0
-0.188930 0.005309 0
-0.186623 -0.002354 0
-0.184642 -0.010120 0
-0.182741 -0.018402 0
-0.180779 -0.027591 0
-0.178539 -0.038011 0
-0.175798 -0.049931 0
-0.172339 -0.063541 0
-0.167993 -0.078937 0
-0.162653 -0.096109 0
-0.156258 -0.114909 0
-0.148722 -0.134941 0
-0.139802 -0.155296 0
-0.128882 -0.174020 0
-0.114721 -0.187081 0
-0.095330 -0.186627 0
-0.068473 -0.158407 0
-0.033839 -0.080314 0
-0.000041 0.000007 0
0.000000 0.012780 0
0.000000 -0.000001 0
-0.027263 -0.017697 0
-0.057329 0.022693 0
-0.082865 0.062828 0
-0.106374 0.096748 0
-0.127899 0.123464 0
-0.147247 0.142212 0
-0.163762 0.153226 0
-0.176893 0.157074 0
-0.186309 0.154653 0
-0.192047 0.147086 0
-0.194403 0.135644 0
-0.193902 0.121611 0
-0.191227 0.106214 0
-0.187055 0.090507 0
-0.181984 0.075298 0
-0.176500 0.061136 0
-0.170989 0.048323 0
-0.165745 0.036956 0
-0.160990 0.026963 0
-0.156873 0.018149 0
-0.153481 0.010232 0
-0.150836 0.002875 0
-0.148897 -0.004273 0
-0.147619 -0.011661 0
-0.146760 -0.019766 0
-0.146131 -0.028981 0
-0.145483 -0.039662 0
-0.144532 -0.052085 0
-0.143003 -0.066404 0
-0.140686 -0.082645 0
-0.137482 -0.100725 0
-0.133380 -0.120465 0
-0.128384 -0.141546 0
-0.122382 -0.163328 0
-0.114905 -0.184399 0
-0.104777 -0.201535 0
-0.089800 -0.207621 0
-0.066964 -0.187926 0
-0.034460 -0.114753 0
-0.000056 0.000009 0
0.000000 0.030177 0
0.000000 -0.000002 0
-0.030189 0.012474 0
-0.060184 0.051113 0
-0.086236 0.087665 0
-0.109200 0.118844 0
-0.128853 0.142654 0
-0.145115 0.158248 0
-0.157764 0.165776 0
-0.166681 0.165947 0
-0.171918 0.159891 0
-0.173755 0.148980 0
-0.172649 0.134683 0
-0.169183 0.118416 0
-0.163986 0.101430 0
-0.157644 0.084726 0
-0.150674 0.069025 0
-0.143521 0.054787 0
-0.136570 0.042237 0
-0.130151 0.031400 0
-0.124529 0.022136 0
-0.119891 0.014180 0
-0.116345 0.007181 0
-0.113923 0.000725 0
-0.112585 -0.005571 0
-0.112157 -0.012257 0
-0.112441 -0.019889 0
-0.113224 -0.028868 0
-0.114221 -0.039610 0
-0.115066 -0.052411 0
-0.115376 -0.067387 0
-0.114866 -0.084457 0
-0.113417 -0.103415 0
-0.111048 -0.124007 0
-0.107832 -0.145939 0
-0.103785 -0.168776 0
-0.098650 -0.191625 0
-0.091510 -0.212186 0
-0.080298 -0.224439 0
-0.061682 -0.213748 0
-0.032828 -0.147278 0
-0.000067 0.000010 0
0.000000 0.047242 0
0.000000 -0.000003 0
-0.029224 0.042487 0
-0.057904 0.078740 0
-0.083116 0.111844 0
-0.104597 0.139365 0
-0.122122 0.159379 0
-0.135666 0.171123 0
-0.145246 0.174792 0
-0.151003 0.171228 0
-0.153216 0.161727 0
-0.152311 0.147817 0
-0.148814 0.131072 0
-0.143293 0.112948 0
-0.136298 0.094675 0
-0.128331 0.077195 0
-0.119853 0.061175 0
-0.111303 0.047032 0
-0.103114 0.034953 0
-0.095705 0.024914 0
-0.089422 0.016702 0
-0.084501 0.009966 0
-0.081050 0.004265 0
-0.079080 -0.000885 0
-0.078537 -0.006039 0
-0.079058 -0.011805 0
-0.080510 -0.018698 0
-0.082701 -0.027201 0
-0.085335 -0.037821 0
-0.087948 -0.050930 0
-0.090012 -0.066604 0
-0.091125 -0.084605 0
-0.091154 -0.104543 0
-0.090149 -0.126050 0
-0.088235 -0.148809 0
-0.085521 -0.172510 0
-0.081947 -0.196674 0
-0.076930 -0.219886 0
-0.068781 -0.237449 0
-0.054226 -0.235396 0
-0.029705 -0.176434 0
-0.000072 0.000010 0
0.000000 0.063006 0
0.000000 -0.000004 0
-0.025853 0.070378 0
-0.052561 0.105005 0
-0.075826 0.134359 0
-0.095210 0.157850 0
-0.110479 0.173723 0
-0.121632 0.181372 0
-0.128798 0.181112 0
-0.132248 0.173916 0
-0.132371 0.161200 0
-0.129644 0.144579 0
-0.124583 0.125665 0
-0.117692 0.105899 0
-0.109432 0.086469 0
-0.100223 0.068281 0
-0.090488 0.051997 0
-0.080693 0.038048 0
-0.071374 0.026639 0
-0.063122 0.017707 0
-0.056429 0.010933 0
-0.051593 0.005809 0
-0.048658 0.001760 0
-0.047522 -0.001788 0
-0.047912 -0.005594 0
-0.049438 -0.010285 0
-0.051969 -0.016246 0
-0.055410 -0.024043 0
-0.059513 -0.034363 0
-0.063729 -0.047734 0
-0.067344 -0.064210 0
-0.069824 -0.083315 0
-0.071040 -0.104390 0
-0.071100 -0.126927 0
-0.070173 -0.150567 0
-0.068431 -0.175064 0
-0.065949 -0.200217 0
-0.062452 -0.225352 0
-0.056731 -0.247144 0
-0.045862 -0.252824 0
-0.025856 -0.201504 0
-0.000072 0.000010 0
0.000000 0.076948 0
0.000000 -0.000004 0
-0.021884 0.095048 0
-0.045525 0.128712 0
-0.066102 0.154493 0
-0.083016 0.174019 0
-0.096002 0.185801 0
-0.105054 0.189442 0
-0.110335 0.185408 0
-0.112156 0.174801 0
-0.110924 0.159123 0
-0.107096 0.140029 0
-0.101124 0.119120 0
-0.093418 0.097796 0
-0.084334 0.077205 0
-0.074212 0.058251 0
-0.063433 0.041646 0
-0.052488 0.027918 0
-0.042048 0.017382 0
-0.033079 0.009968 0
-0.026262 0.005174 0
-0.022027 0.002195 0
-0.020225 0.000194 0
-0.020423 -0.001631 0
-0.021989 -0.004123 0
-0.024585 -0.007748 0
-0.028067 -0.012726 0
-0.032470 -0.019657 0
-0.037663 -0.029503 0
-0.043086 -0.043098 0
-0.047837 -0.060509 0
-0.051258 -0.080910 0
-0.053278 -0.103267 0
-0.054081 -0.126917 0
-0.053883 -0.151477 0
-0.052888 -0.176734 0
-0.051247 -0.202653 0
-0.048904 -0.229105 0
-0.045108 -0.254039 0
-0.037456 -0.266271 0
-0.021806 -0.222296 0
-0.000069 0.000010 0
0.000000 0.088862 0
0.000000 -0.000004 0
-0.017567 0.115903 0
-0.037609 0.149223 0
-0.055117 0.171850 0
-0.069390 0.187750 0
-0.080148 0.195761 0
-0.087365 0.195705 0
-0.091193 0.188214 0
-0.091922 0.174505 0
-0.089921 0.156140 0
-0.085578 0.134779 0
-0.079252 0.111986 0
-0.071240 0.089109 0
-0.061790 0.067263 0
-0.051144 0.047381 0
-0.039607 0.030273 0
-0.027623 0.016663 0
-0.015955 0.007231 0
-0.006912 0.001921 0
-0.001180 -0.000120 0
0.001616 -0.000228 0
0.002034 0.000155 0
0.000706 -0.000024 0
-0.001883 -0.001431 0
-0.005484 -0.004206 0
-0.009851 -0.008360 0
-0.014960 -0.014447 0
-0.020724 -0.023747 0
-0.026708 -0.037560 0
-0.031900 -0.056037 0
-0.035636 -0.077873 0
-0.037966 -0.101568 0
-0.039146 -0.126322 0
-0.039418 -0.151760 0
-0.038995 -0.177700 0
-0.038055 -0.204200 0
-0.036665 -0.231491 0
-0.034434 -0.258592 0
-0.029529 -0.276125 0
-0.017885 -0.238960 0
-0.000063 0.000010 0
0.000000 0.098754 0
0.000000 -0.000005 0
-0.013079 0.132657 0
-0.029313 0.166262 0
-0.043618 0.186274 0
-0.055230 0.199051 0
-0.063874 0.203776 0
-0.069501 0.200486 0
-0.072231 0.189965 0
-0.072303 0.173529 0
-0.070013 0.152779 0
-0.065661 0.129361 0
-0.059498 0.104782 0
-0.051710 0.080335 0
-0.042430 0.057109 0
-0.031777 0.036068 0
-0.019906 0.018125 0
-0.006997 0.004266 0
0.003170 -0.003329 0
0.009912 -0.004807 0
0.013675 -0.003354 0
0.015216 -0.001019 0
0.014984 0.001104 0
0.013340 0.002286 0
0.010490 0.002066 0
0.006600 0.000220 0
0.001864 -0.003250 0
-0.003465 -0.008785 0
-0.009264 -0.017755 0
-0.014984 -0.031922 0
-0.019678 -0.051581 0
-0.022956 -0.074843 0
-0.025047 -0.099757 0
-0.026222 -0.125466 0
-0.026708 -0.151628 0
-0.026701 -0.178097 0
-0.026366 -0.204983 0
-0.025819 -0.232726 0
-0.024910 -0.261175 0
-0.022334 -0.282819 0
-0.014269 -0.251825 0
-0.000056 0.000010 0
0.000000 0.106747 0
0.000000 -0.000005 0
-0.008554 0.145216 0
-0.020942 0.179762 0
-0.032059 0.197766 0
-0.041080 0.208006 0
-0.047753 0.210033 0
-0.052014 0.204063 0
-0.053939 0.191016 0
-0.053706 0.172287 0
-0.051529 0.149497 0
-0.047615 0.124264 0
-0.042116 0.098036 0
-0.035117 0.072041 0
-0.026635 0.047330 0
-0.016630 0.024857 0
-0.004912 0.005492 0
0.005155 -0.006413 0
0.011136 -0.009678 0
0.014803 -0.008584 0
0.017128 -0.005424 0
0.018242 -0.001537 0
0.018084 0.002032 0
0.016675 0.004469 0
0.014180 0.005308 0
0.010767 0.004420 0
0.006573 0.001705 0
0.001840 -0.003319 0
-0.003164 -0.012229 0
-0.007638 -0.027146 0
-0.010820 -0.048065 0
-0.012907 -0.072504 0
-0.014269 -0.098301 0
-0.015106 -0.124661 0
-0.015586 -0.151281 0
-0.015858 -0.178043 0
-0.016052 -0.205082 0
-0.016283 -0.232947 0
-0.016536 -0.262077 0
-0.015942 -0.286766 0
-0.011027 -0.261294 0
-0.000050 0.000009 0
0.000000 0.113022 0
0.000000 -0.000005 0
-0.004074 0.153598 0
-0.012678 0.189767 0
-0.020695 0.206413 0
-0.027239 0.214745 0
-0.032086 0.214710 0
-0.035165 0.206672 0
-0.036517 0.191657 0
-0.036254 0.171118 0
-0.034518 0.146688 0
-0.031433 0.119948 0
-0.027073 0.092284 0
-0.021439 0.064853 0
-0.014445 0.038622 0
-0.005955 0.014345 0
0.002876 -0.003661 0
0.007517 -0.011781 0
0.010243 -0.012976 0
0.012088 -0.010798 0
0.013391 -0.006792 0
0.014145 -0.001976 0
0.014139 0.002670 0
0.013191 0.006190 0
0.011340 0.007975 0
0.008724 0.007828 0
0.005552 0.005676 0
0.002042 0.000952 0
-0.001283 -0.008277 0
-0.003506 -0.024266 0
-0.004416 -0.046312 0
-0.004866 -0.071395 0
-0.005195 -0.097557 0
-0.005480 -0.124148 0
-0.005803 -0.150877 0
-0.006256 -0.177632 0
-0.006922 -0.204557 0
-0.007887 -0.232241 0
-0.009200 -0.261516 0
-0.010314 -0.288329 0
-0.008158 -0.267768 0
-0.000044 0.000009 0
0.000000 0.117772 0
0.000000 -0.000004 0
0.000128 0.157894 0
-0.004615 0.196384 0
-0.009639 0.212328 0
-0.013834 0.219396 0
-0.016985 0.217959 0
-0.019021 0.208494 0
-0.019958 0.192105 0
-0.019859 0.170288 0
-0.018806 0.144676 0
-0.016862 0.116819 0
-0.014055 0.088041 0
-0.010349 0.059413 0
-0.005555 0.031846 0
0.000047 0.007536 0
0.003468 -0.007980 0
0.004701 -0.013780 0
0.005278 -0.014249 0
0.005638 -0.011732 0
0.005992 -0.007482 0
0.006325 -0.002286 0
0.006428 0.002986 0
0.006016 0.007268 0
0.005009 0.009776 0
0.003455 0.010209 0
0.001536 0.008386 0
-0.000346 0.003516 0
-0.001437 -0.006680 0
-0.000719 -0.024013 0
0.000763 -0.046706 0
0.001952 -0.071725 0
0.002710 -0.097687 0
0.003046 -0.124053 0
0.002939 -0.150506 0
0.002350 -0.176924 0
0.001241 -0.203450 0
-0.000425 -0.230669 0
-0.002737 -0.259651 0
-0.005344 -0.287808 0
-0.005623 -0.271608 0
-0.000039 0.000009 0
0.000000 0.121179 0
0.000000 -0.000004 0
0.003979 0.158214 0
0.003139 0.199533 0
0.001024 0.215631 0
-0.000917 0.222091 0
-0.002447 0.219897 0
-0.003509 0.209645 0
-0.004106 0.192496 0
-0.004266 0.169966 0
-0.004027 0.143691 0
-0.003416 0.115197 0
-0.002446 0.085772 0
-0.001097 0.056354 0
0.000649 0.028226 0
0.001848 0.005322 0
0.001037 -0.008315 0
-0.000028 -0.013592 0
-0.001147 -0.013914 0
-0.002043 -0.011512 0
-0.002567 -0.007479 0
-0.002703 -0.002412 0
-0.002561 0.002979 0
-0.002402 0.007609 0
-0.002454 0.010535 0
-0.002754 0.011300 0
-0.003112 0.009478 0
-0.002974 0.003925 0
-0.001205 -0.007905 0
0.002378 -0.026465 0
0.005763 -0.048983 0
0.008313 -0.073342 0
0.010023 -0.098651 0
0.010914 -0.124377 0
0.010988 -0.150181 0
0.010241 -0.175935 0
0.008670 -0.201782 0
0.006273 -0.228263 0
0.003016 -0.256597 0
-0.000897 -0.285443 0
-0.003357 -0.273112 0
-0.000035 0.000008 0
0.000000 0.123395 0
0.000000 -0.000004 0
0.007604 0.154754 0
0.010516 0.199339 0
0.011236 0.216384 0
0.011486 0.222867 0
0.011553 0.220551 0
0.011470 0.210153 0
0.011233 0.192862 0
0.010832 0.170209 0
0.010258 0.143826 0
0.009503 0.115239 0
0.008548 0.085722 0
0.007345 0.056319 0
0.005571 0.028901 0
0.002355 0.007147 0
-0.001572 -0.006103 0
-0.004614 -0.011595 0
-0.007116 -0.012235 0
-0.009024 -0.010312 0
-0.010299 -0.006821 0
-0.010889 -0.002292 0
-0.010780 0.002686 0
-0.010116 0.007161 0
-0.009196 0.010127 0
-0.008104 0.010867 0
-0.006594 0.008606 0
-0.003965 0.001609 0
0.001072 -0.012032 0
0.006627 -0.030982 0
0.011301 -0.052641 0
0.014860 -0.075984 0
0.017279 -0.100287 0
0.018556 -0.125018 0
0.018695 -0.149833 0
0.017706 -0.174606 0
0.015609 -0.199482 0
0.012430 -0.225015 0
0.008211 -0.252482 0
0.003097 -0.281435 0
-0.001284 -0.272504 0
-0.000033 0.000008 0
0.000000 0.124535 0
0.000000 -0.000003 0
0.010971 0.147698 0
0.017507 0.195902 0
0.021006 0.214661 0
0.023376 0.221774 0
0.025024 0.219913 0
0.025967 0.209965 0
0.026182 0.193134 0
0.025661 0.170941 0
0.024412 0.145019 0
0.022440 0.116907 0
0.019716 0.087930 0
0.016126 0.059331 0
0.011289 0.033217 0
0.004926 0.012465 0
-0.001931 -0.001347 0
-0.007186 -0.008048 0
-0.010917 -0.009503 0
-0.013636 -0.008329 0
-0.015505 -0.005615 0
-0.016464 -0.001931 0
-0.016421 0.002207 0
-0.015371 0.006025 0
-0.013515 0.008523 0
-0.010919 0.008699 0
-0.007210 0.005339 0
-0.001400 -0.003740 0
0.005859 -0.018497 0
0.012429 -0.036695 0
0.017890 -0.057216 0
0.022072 -0.079319 0
0.024897 -0.102348 0
0.026326 -0.125793 0
0.026350 -0.149330 0
0.024987 -0.172848 0
0.022272 -0.196506 0
0.018260 -0.220865 0
0.013015 -0.247264 0
0.006704 -0.275949 0
0.000654 -0.270015 0
-0.000031 0.000007 0
0.000000 0.124678 0
0.000000 -0.000002 0
0.014007 0.137247 0
0.024031 0.189305 0
0.030279 0.210515 0
0.034726 0.218848 0
0.037951 0.217960 0
0.039990 0.208995 0
0.040800 0.193168 0
0.040363 0.171978 0
0.038696 0.147048 0
0.035821 0.119935 0
0.031729 0.092036 0
0.026323 0.064745 0
0.019393 0.040101 0
0.011148 0.020367 0
0.002479 0.006009 0
-0.005441 -0.002609 0
-0.010858 -0.005784 0
-0.014329 -0.005723 0
-0.016618 -0.003993 0
-0.017764 -0.001376 0
-0.017702 0.001592 0
-0.016285 0.004255 0
-0.013475 0.005676 0
-0.009183 0.004562 0
-0.002874 -0.000913 0
0.005186 -0.011460 0
0.013067 -0.025862 0
0.020052 -0.043013 0
0.025860 -0.062284 0
0.030280 -0.082992 0
0.033177 -0.104541 0
0.034480 -0.126470 0
0.034172 -0.148494 0
0.032267 -0.170528 0
0.028814 -0.192756 0
0.023882 -0.215758 0
0.017566 -0.240925 0
0.010046 -0.269074 0
0.002493 -0.265800 0
-0.000030 0.000007 0
0.000000 0.123880 0
0.000000 -0.000002 0
0.016592 0.123666 0
0.029927 0.179629 0
0.038909 0.203967 0
0.045427 0.214101 0
0.050253 0.214649 0
0.053485 0.207117 0
0.055072 0.192761 0
0.054984 0.173045 0
0.053242 0.149561 0
0.049896 0.123875 0
0.044986 0.097428 0
0.038505 0.071667 0
0.030477 0.048392 0
0.021392 0.029379 0
0.012142 0.015241 0
0.003064 0.005288 0
-0.004319 -0.000615 0
-0.009408 -0.002569 0
-0.012182 -0.002180 0
-0.013283 -0.000847 0
-0.012964 0.000728 0
-0.011010 0.001798 0
-0.007132 0.001421 0
-0.001168 -0.001902 0
0.006598 -0.009030 0
0.014893 -0.019681 0
0.022710 -0.033363 0
0.029667 -0.049488 0
0.035406 -0.067444 0
0.039670 -0.086635 0
0.042290 -0.106548 0
0.043177 -0.126788 0
0.042298 -0.147117 0
0.039668 -0.167490 0
0.035336 -0.188120 0
0.029387 -0.209618 0
0.021942 -0.233428 0
0.013198 -0.260876 0
0.004239 -0.259970 0
-0.000030 0.000007 0
0.000000 0.122184 0
0.000000 -0.000001 0
0.018563 0.107320 0
0.034939 0.166987 0
0.046640 0.195015 0
0.055273 0.207505 0
0.061763 0.209903 0
0.066313 0.204176 0
0.068885 0.191669 0
0.069444 0.173808 0
0.068016 0.152136 0
0.064680 0.128191 0
0.059544 0.103426 0
0.052715 0.079254 0
0.044402 0.057214 0
0.035196 0.038702 0
0.025958 0.024337 0
0.017302 0.013852 0
0.009429 0.006688 0
0.003240 0.002140 0
-0.000582 -0.000118 0
-0.002116 -0.000594 0