# vtk DataFile Version 2.0
generated by CFD-lab course output (written by Tobias Neckel) 
ASCII

DATASET STRUCTURED_GRID
DIMENSIONS  42 42 1 
POINTS 1764 float

0.150000 0.150000 0
0.167857 0.150000 0
0.185714 0.150000 0
0.203571 0.150000 0
0.221429 0.150000 0
0.239286 0.150000 0
0.257143 0.150000 0
0.275000 0.150000 0
0.292857 0.150000 0
0.310714 0.150000 0
0.328571 0.150000 0
0.346429 0.150000 0
0.364286 0.150000 0
0.382143 0.150000 0
0.400000 0.150000 0
0.417857 0.150000 0
0.435714 0.150000 0
0.453571 0.150000 0
0.471429 0.150000 0
0.489286 0.150000 0
0.507143 0.150000 0
0.525000 0.150000 0
0.542857 0.150000 0
0.560714 0.150000 0
0.578571 0.150000 0
0.596429 0.150000 0
0.614286 0.150000 0
0.632143 0.150000 0
0.650000 0.150000 0
0.667857 0.150000 0
0.685714 0.150000 0
0.703571 0.150000 0
0.721429 0.150000 0
0.739286 0.150000 0
0.757143 0.150000 0
0.775000 0.150000 0
0.792857 0.150000 0
0.810714 0.150000 0
0.828571 0.150000 0
0.846429 0.150000 0
0.864286 0.150000 0
0.882143 0.150000 0
0.150000 0.167857 0
0.167857 0.167857 0
0.185714 0.167857 0
0.203571 0.167857 0
0.221429 0.167857 0
0.239286 0.167857 0
0.257143 0.167857 0
0.275000 0.167857 0
0.292857 0.167857 0
0.310714 0.167857 0
0.328571 0.167857 0
0.346429 0.167857 0
0.364286 0.167857 0
0.382143 0.167857 0
0.400000 0.167857 0
0.417857 0.167857 0
0.435714 0.167857 0
0.453571 0.167857 0
0.471429 0.167857 0
0.489286 0.167857 0
0.507143 0.167857 0
0.525000 0.167857 0
0.542857 0.167857 0
0.560714 0.167857 0
0.578571 0.167857 0
0.596429 0.167857 0
0.614286 0.167857 0
0.632143 0.167857 0
0.650000 0.167857 0
0.667857 0.167857 0
0.685714 0.167857 0
0.703571 0.167857 0
0.721429 0.167857 0
0.739286 0.167857 0
0.757143 0.167857 0
0.775000 0.167857 0
0.792857 0.167857 0
0.810714 0.167857 0
0.828571 0.167857 0
0.846429 0.167857 0
0.864286 0.167857 0
0.882143 0.167857 0
0.150000 0.185714 0
0.167857 0.185714 0
0.185714 0.185714 0
0.203571 0.185714 0
0.221429 0.185714 0
0.239286 0.185714 0
0.257143 0.185714 0
0.275000 0.185714 0
0.292857 0.185714 0
0.310714 0.185714 0
0.328571 0.185714 0
0.346429 0.185714 0
0.364286 0.185714 0
0.382143 0.185714 0
0.400000 0.185714 0
0.417857 0.185714 0
0.435714 0.185714 0
0.453571 0.185714 0
0.471429 0.185714 0
0.489286 0.185714 0
0.507143 0.185714 0
0.525000 0.185714 0
0.542857 0.185714 0
0.560714 0.185714 0
0.578571 0.185714 0
0.596429 0.185714 0
0.614286 0.185714 0
0.632143 0.185714 0
0.650000 0.185714 0
0.667857 0.185714 0
0.685714 0.185714 0
0.703571 0.185714 0
0.721429 0.185714 0
0.739286 0.185714 0
0.757143 0.185714 0
0.775000 0.185714 0
0.792857 0.185714 0
0.810714 0.185714 0
0.828571 0.185714 0
0.846429 0.185714 0
0.864286 0.185714 0
0.882143 0.185714 0
0.150000 0.203571 0
0.167857 0.203571 0
0.185714 0.203571 0
0.203571 0.203571 0
0.221429 0.203571 0
0.239286 0.203571 0
0.257143 0.203571 0
0.275000 0.203571 0
0.292857 0.203571 0
0.310714 0.203571 0
0.328571 0.203571 0
0.346429 0.203571 0
0.364286 0.203571 0
0.382143 0.203571 0
0.400000 0.203571 0
0.417857 0.203571 0
0.435714 0.203571 0
0.453571 0.203571 0
0.471429 0.203571 0
0.489286 0.203571 0
0.507143 0.203571 0
0.525000 0.203571 0
0.542857 0.203571 0
0.560714 0.203571 0
0.578571 0.203571 0
0.596429 0.203571 0
0.614286 0.203571 0
0.632143 0.203571 0
0.650000 0.203571 0
0.667857 0.203571 0
0.685714 0.203571 0
0.703571 0.203571 0
0.721429 0.203571 0
0.739286 0.203571 0
0.757143 0.203571 0
0.775000 0.203571 0
0.792857 0.203571 0
0.810714 0.203571 0
0.828571 0.203571 0
0.846429 0.203571 0
0.864286 0.203571 0
0.882143 0.203571 0
0.150000 0.221429 0
0.167857 0.221429 0
0.185714 0.221429 0
0.203571 0.221429 0
0.221429 0.221429 0
0.239286 0.221429 0
0.257143 0.221429 0
0.275000 0.221429 0
0.292857 0.221429 0
0.310714 0.221429 0
0.328571 0.221429 0
0.346429 0.221429 0
0.364286 0.221429 0
0.382143 0.221429 0
0.400000 0.221429 0
0.417857 0.221429 0
0.435714 0.221429 0
0.453571 0.221429 0
0.471429 0.221429 0
0.489286 0.221429 0
0.507143 0.221429 0
0.525000 0.221429 0
0.542857 0.221429 0
0.560714 0.221429 0
0.578571 0.221429 0
0.596429 0.221429 0
0.614286 0.221429 0
0.632143 0.221429 0
0.650000 0.221429 0
0.667857 0.221429 0
0.685714 0.221429 0
0.703571 0.221429 0
0.721429 0.221429 0
0.739286 0.221429 0
0.757143 0.221429 0
0.775000 0.221429 0
0.792857 0.221429 0
0.810714 0.221429 0
0.828571 0.221429 0
0.846429 0.221429 0
0.864286 0.221429 0
0.882143 0.221429 0
0.150000 0.239286 0
0.167857 0.239286 0
0.185714 0.239286 0
0.203571 0.239286 0
0.221429 0.239286 0
0.239286 0.239286 0
0.257143 0.239286 0
0.275000 0.239286 0
0.292857 0.239286 0
0.310714 0.239286 0
0.328571 0.239286 0
0.346429 0.239286 0
0.364286 0.239286 0
0.382143 0.239286 0
0.400000 0.239286 0
0.417857 0.239286 0
0.435714 0.239286 0
0.453571 0.239286 0
0.471429 0.239286 0
0.489286 0.239286 0
0.507143 0.239286 0
0.525000 0.239286 0
0.542857 0.239286 0
0.560714 0.239286 0
0.578571 0.239286 0
0.596429 0.239286 0
0.614286 0.239286 0
0.632143 0.239286 0
0.650000 0.239286 0
0.667857 0.239286 0
0.685714 0.239286 0
0.703571 0.239286 0
0.721429 0.239286 0
0.739286 0.239286 0
0.757143 0.239286 0
0.775000 0.239286 0
0.792857 0.239286 0
0.810714 0.239286 0
0.828571 0.239286 0
0.846429 0.239286 0
0.864286 0.239286 0
0.882143 0.239286 0
0.150000 0.257143 0
0.167857 0.257143 0
0.185714 0.257143 0
0.203571 0.257143 0
0.221429 0.257143 0
0.239286 0.257143 0
0.257143 0.257143 0
0.275000 0.257143 0
0.292857 0.257143 0
0.310714 0.257143 0
0.328571 0.257143 0
0.346429 0.257143 0
0.364286 0.257143 0
0.382143 0.257143 0
0.400000 0.257143 0
0.417857 0.257143 0
0.435714 0.257143 0
0.453571 0.257143 0
0.471429 0.257143 0
0.489286 0.257143 0
0.507143 0.257143 0
0.525000 0.257143 0
0.542857 0.257143 0
0.560714 0.257143 0
0.578571 0.257143 0
0.596429 0.257143 0
0.614286 0.257143 0
0.632143 0.257143 0
0.650000 0.257143 0
0.667857 0.257143 0
0.685714 0.257143 0
0.703571 0.257143 0
0.721429 0.257143 0
0.739286 0.257143 0
0.757143 0.257143 0
0.775000 0.257143 0
0.792857 0.257143 0
0.810714 0.257143 0
0.828571 0.257143 0
0.846429 0.257143 0
0.864286 0.257143 0
0.882143 0.257143 0
0.150000 0.275000 0
0.167857 0.275000 0
0.185714 0.275000 0
0.203571 0.275000 0
0.221429 0.275000 0
0.239286 0.275000 0
0.257143 0.275000 0
0.275000 0.275000 0
0.292857 0.275000 0
0.310714 0.275000 0
0.328571 0.275000 0
0.346429 0.275000 0
0.364286 0.275000 0
0.382143 0.275000 0
0.400000 0.275000 0
0.417857 0.275000 0
0.435714 0.275000 0
0.453571 0.275000 0
0.471429 0.275000 0
0.489286 0.275000 0
0.507143 0.275000 0
0.525000 0.275000 0
0.542857 0.275000 0
0.560714 0.275000 0
0.578571 0.275000 0
0.596429 0.275000 0
0.614286 0.275000 0
0.632143 0.275000 0
0.650000 0.275000 0
0.667857 0.275000 0
0.685714 0.275000 0
0.703571 0.275000 0
0.721429 0.275000 0
0.739286 0.275000 0
0.757143 0.275000 0
0.775000 0.275000 0
0.792857 0.275000 0
0.810714 0.275000 0
0.828571 0.275000 0
0.846429 0.275000 0
0.864286 0.275000 0
0.882143 0.275000 0
0.150000 0.292857 0
0.167857 0.292857 0
0.185714 0.292857 0
0.203571 0.292857 0
0.221429 0.292857 0
0.239286 0.292857 0
0.257143 0.292857 0
0.275000 0.292857 0
0.292857 0.292857 0
0.310714 0.292857 0
0.328571 0.292857 0
0.346429 0.292857 0
0.364286 0.292857 0
0.382143 0.292857 0
0.400000 0.292857 0
0.417857 0.292857 0
0.435714 0.292857 0
0.453571 0.292857 0
0.471429 0.292857 0
0.489286 0.292857 0
0.507143 0.292857 0
0.525000 0.292857 0
0.542857 0.292857 0
0.560714 0.292857 0
0.578571 0.292857 0
0.596429 0.292857 0
0.614286 0.292857 0
0.632143 0.292857 0
0.650000 0.292857 0
0.667857 0.292857 0
0.685714 0.292857 0
0.703571 0.292857 0
0.721429 0.292857 0
0.739286 0.292857 0
0.757143 0.292857 0
0.775000 0.292857 0
0.792857 0.292857 0
0.810714 0.292857 0
0.828571 0.292857 0
0.846429 0.292857 0
0.864286 0.292857 0
0.882143 0.292857 0
0.150000 0.310714 0
0.167857 0.310714 0
0.185714 0.310714 0
0.203571 0.310714 0
0.221429 0.310714 0
0.239286 0.310714 0
0.257143 0.310714 0
0.275000 0.310714 0
0.292857 0.310714 0
0.310714 0.310714 0
0.328571 0.310714 0
0.346429 0.310714 0
0.364286 0.310714 0
0.382143 0.310714 0
0.400000 0.310714 0
0.417857 0.310714 0
0.435714 0.310714 0
0.453571 0.310714 0
0.471429 0.310714 0
0.489286 0.310714 0
0.507143 0.310714 0
0.525000 0.310714 0
0.542857 0.310714 0
0.560714 0.310714 0
0.578571 0.310714 0
0.596429 0.310714 0
0.614286 0.310714 0
0.632143 0.310714 0
0.650000 0.310714 0
0.667857 0.310714 0
0.685714 0.310714 0
0.703571 0.310714 0
0.721429 0.310714 0
0.739286 0.310714 0
0.757143 0.310714 0
0.775000 0.310714 0
0.792857 0.310714 0
0.810714 0.310714 0
0.828571 0.310714 0
0.846429 0.310714 0
0.864286 0.310714 0
0.882143 0.310714 0
0.150000 0.328571 0
0.167857 0.328571 0
0.185714 0.328571 0
0.203571 0.328571 0
0.221429 0.328571 0
0.239286 0.328571 0
0.257143 0.328571 0
0.275000 0.328571 0
0.292857 0.328571 0
0.310714 0.328571 0
0.328571 0.328571 0
0.346429 0.328571 0
0.364286 0.328571 0
0.382143 0.328571 0
0.400000 0.328571 0
0.417857 0.328571 0
0.435714 0.328571 0
0.453571 0.328571 0
0.471429 0.328571 0
0.489286 0.328571 0
0.507143 0.328571 0
0.525000 0.328571 0
0.542857 0.328571 0
0.560714 0.328571 0
0.578571 0.328571 0
0.596429 0.328571 0
0.614286 0.328571 0
0.632143 0.328571 0
0.650000 0.328571 0
0.667857 0.328571 0
0.685714 0.328571 0
0.703571 0.328571 0
0.721429 0.328571 0
0.739286 0.328571 0
0.757143 0.328571 0
0.775000 0.328571 0
0.792857 0.328571 0
0.810714 0.328571 0
0.828571 0.328571 0
0.846429 0.328571 0
0.864286 0.328571 0
0.882143 0.328571 0
0.150000 0.346429 0
0.167857 0.346429 0
0.185714 0.346429 0
0.203571 0.346429 0
0.221429 0.346429 0
0.239286 0.346429 0
0.257143 0.346429 0
0.275000 0.346429 0
0.292857 0.346429 0
0.310714 0.346429 0
0.328571 0.346429 0
0.346429 0.346429 0
0.364286 0.346429 0
0.382143 0.346429 0
0.400000 0.346429 0
0.417857 0.346429 0
0.435714 0.346429 0
0.453571 0.346429 0
0.471429 0.346429 0
0.489286 0.346429 0
0.507143 0.346429 0
0.525000 0.346429 0
0.542857 0.346429 0
0.560714 0.346429 0
0.578571 0.346429 0
0.596429 0.346429 0
0.614286 0.346429 0
0.632143 0.346429 0
0.650000 0.346429 0
[...]
POINT_DATA 1764 

VECTORS velocity float
0.000000 0.000000 0
-0.000014 0.000000 0
-0.000025 0.000000 0
-0.000036 0.000000 0
-0.000051 0.000000 0
-0.000070 0.000000 0
-0.000094 0.000000 0
-0.000121 0.000000 0
-0.000148 0.000000 0
-0.000174 0.000000 0
-0.000189 0.000000 0
-0.000196 0.000000 0
-0.000199 0.000000 0
-0.000206 0.000000 0
-0.000235 0.000000 0
-0.000304 0.000000 0
-0.000399 0.000000 0
-0.000484 0.000000 0
-0.000534 0.000000 0
-0.000546 0.000000 0
-0.000533 0.000000 0
-0.000503 0.000000 0
-0.000462 0.000000 0
-0.000416 0.000000 0
-0.000369 0.000000 0
-0.000322 0.000000 0
-0.000278 0.000000 0
-0.000236 0.000000 0
-0.000198 0.000000 0
-0.000163 0.000000 0
-0.000131 0.000000 0
-0.000104 0.000000 0
-0.000081 0.000000 0
-0.000062 0.000000 0
-0.000048 0.000000 0
-0.000037 0.000000 0
-0.000030 0.000000 0
-0.000025 0.000000 0
-0.000020 0.000000 0
-0.000013 0.000000 0
-0.000000 0.000000 0
0.000000 0.000000 0
0.000000 0.000014 0
0.029716 -0.032590 0
0.056223 -0.022539 0
0.070693 -0.008577 0
0.073562 0.003486 0
0.066187 0.012844 0
0.050325 0.019889 0
0.027380 0.025886 0
-0.002409 0.031371 0
-0.038152 0.034947 0
-0.077308 0.036000 0
-0.118383 0.036024 0
-0.161469 0.036615 0
-0.207277 0.038781 0
-0.257186 0.044126 0
-0.313369 0.053602 0
-0.377431 0.064896 0
-0.448454 0.073732 0
-0.523059 0.077535 0
-0.597012 0.076401 0
-0.666770 0.071766 0
-0.729947 0.064954 0
-0.785152 0.056947 0
-0.831762 0.048375 0
-0.869642 0.039656 0
-0.898993 0.031092 0
-0.920139 0.022764 0
-0.933378 0.014595 0
-0.938847 0.006330 0
-0.936395 -0.002506 0
-0.925567 -0.012356 0
-0.905471 -0.023676 0
-0.874434 -0.037202 0
-0.830083 -0.053774 0
-0.769255 -0.074172 0
-0.688115 -0.098834 0
-0.582630 -0.127022 0
-0.450000 -0.154945 0
-0.292284 -0.170439 0
-0.125310 -0.136333 0
-0.000651 -0.000013 0
0.000000 0.049928 0
0.000000 0.000024 0
0.019011 -0.056223 0
0.036681 -0.040977 0
0.046150 -0.017339 0
0.047715 0.004506 0
0.041471 0.023237 0
0.027708 0.038807 0
0.006305 0.052734 0
-0.022327 0.065532 0
-0.057117 0.074898 0
-0.097068 0.080231 0
-0.141855 0.084161 0
-0.191395 0.088894 0
-0.245800 0.095717 0
-0.305028 0.106092 0
-0.368361 0.120245 0
-0.434232 0.135084 0
-0.500970 0.145628 0
-0.566604 0.148558 0
-0.628881 0.143710 0
-0.685645 0.132935 0
-0.735343 0.118382 0
-0.777193 0.101816 0
-0.810981 0.084491 0
-0.836975 0.067231 0
-0.855597 0.050497 0
-0.867312 0.034385 0
-0.872501 0.018708 0
-0.871385 0.003016 0
-0.863949 -0.013280 0
-0.850231 -0.030923 0
-0.829501 -0.051133 0
-0.800425 -0.075389 0
-0.761131 -0.105179 0
-0.709075 -0.141968 0
-0.641072 -0.186625 0
-0.553480 -0.238115 0
-0.442850 -0.290345 0
-0.307869 -0.324689 0
-0.153527 -0.292284 0
-0.001060 -0.000032 0
0.000000 0.125278 0
0.000000 0.000031 0
0.009916 -0.069271 0
0.017541 -0.049678 0
0.019574 -0.019611 0
0.016746 0.008165 0
0.009343 0.032851 0
-0.003104 0.055055 0
-0.021309 0.075921 0
-0.044994 0.094793 0
-0.073594 0.109688 0
-0.107628 0.120739 0
-0.147365 0.130351 0
-0.192592 0.140560 0
-0.242927 0.152414 0
-0.297485 0.166687 0
-0.354507 0.182806 0
-0.411752 0.197506 0
-0.467368 0.206104 0
-0.519894 0.205446 0
-0.567985 0.195442 0
-0.610405 0.178228 0
-0.646336 0.156502 0
-0.675511 0.132585 0
-0.698091 0.108157 0
-0.714529 0.084272 0
-0.725345 0.061429 0
-0.731037 0.039668 0
-0.732006 0.018668 0
-0.728527 -0.002222 0
-0.720768 -0.023659 0
-0.708741 -0.046804 0
-0.691774 -0.073482 0
-0.668948 -0.105572 0
-0.638885 -0.145125 0
-0.599675 -0.194230 0
-0.548737 -0.254429 0
-0.482661 -0.325245 0
-0.397086 -0.400556 0
-0.287068 -0.459762 0
-0.149680 -0.444201 0
-0.001326 -0.000040 0
0.000000 0.203427 0
0.000000 0.000038 0
0.002286 -0.073763 0
0.002073 -0.050635 0
-0.001302 -0.016545 0
-0.007375 0.014737 0
-0.015969 0.043088 0
-0.027588 0.069460 0
-0.042652 0.094624 0
-0.061059 0.117816 0
-0.083209 0.137532 0
-0.109960 0.154002 0
-0.141744 0.169125 0
-0.178325 0.184456 0
-0.219135 0.200610 0
-0.263097 0.217672 0
-0.308462 0.234512 0
-0.353306 0.247946 0
-0.396191 0.253771 0
-0.436135 0.249175 0
-0.472256 0.234221 0
-0.503670 0.211286 0
-0.529754 0.183488 0
-0.550317 0.153570 0
-0.565535 0.123508 0
-0.575818 0.094485 0
-0.581658 0.067005 0
-0.583542 0.041046 0
-0.581912 0.016198 0
-0.577161 -0.008222 0
-0.569706 -0.033066 0
-0.559431 -0.059918 0
-0.545944 -0.090926 0
-0.528645 -0.128277 0
-0.506608 -0.174453 0
-0.478501 -0.232116 0
-0.442370 -0.303640 0
-0.395260 -0.389766 0
-0.332563 -0.485938 0
-0.247374 -0.572095 0
-0.132238 -0.579352 0
-0.001423 -0.000041 0
0.000000 0.274950 0
0.000000 0.000043 0
-0.003972 -0.071344 0
-0.009627 -0.046089 0
-0.016202 -0.010163 0
-0.023925 0.022832 0
-0.032820 0.053064 0
-0.043239 0.081738 0
-0.055438 0.109392 0
-0.069463 0.135349 0
-0.085877 0.158589 0
-0.105560 0.179275 0
-0.128910 0.198715 0
-0.155699 0.217950 0
-0.185367 0.237186 0
-0.216975 0.256014 0
-0.249182 0.273015 0
-0.280691 0.285234 0
-0.310738 0.288933 0
-0.338972 0.281511 0
-0.364976 0.262977 0
-0.388040 0.235726 0
-0.407425 0.203149 0
-0.422668 0.168365 0
-0.433668 0.133659 0
-0.440618 0.100395 0
-0.443893 0.069153 0
-0.443959 0.039922 0
-0.441298 0.012288 0
-0.436397 -0.014428 0
-0.429756 -0.041389 0
-0.421319 -0.070566 0
-0.410900 -0.104269 0
-0.398131 -0.144908 0
-0.382417 -0.195268 0
-0.362881 -0.258468 0
-0.338167 -0.337670 0
-0.306019 -0.435052 0
-0.262402 -0.548443 0
-0.200162 -0.660088 0
-0.109368 -0.691575 0
-0.001382 -0.000036 0
0.000000 0.335670 0
0.000000 0.000050 0
-0.008210 -0.064137 0
-0.016901 -0.038405 0
-0.025121 -0.002247 0
-0.033441 0.031355 0
-0.042076 0.062402 0
-0.051236 0.092077 0
-0.060967 0.120848 0
-0.071371 0.148255 0
-0.082941 0.173630 0
-0.096372 0.197035 0
-0.111968 0.219264 0
-0.129518 0.240913 0
-0.148541 0.261886 0
-0.168330 0.281487 0
-0.187990 0.298228 0
-0.206810 0.309501 0
-0.224647 0.312052 0
-0.241812 0.303413 0
-0.258498 0.283288 0
-0.274359 0.253736 0
-0.288635 0.218117 0
-0.300550 0.179813 0
-0.309592 0.141457 0
-0.315587 0.104710 0
-0.318658 0.070347 0
-0.319123 0.038451 0
-0.317393 0.008636 0
-0.313880 -0.019764 0
-0.308987 -0.048144 0
-0.302825 -0.078774 0
-0.295389 -0.114114 0
-0.286488 -0.156760 0
-0.275756 -0.209702 0
-0.262623 -0.276367 0
-0.246207 -0.360502 0
-0.225003 -0.465531 0
-0.196056 -0.591795 0
-0.153235 -0.725129 0
-0.085731 -0.779514 0
-0.001247 -0.000029 0
0.000000 0.384330 0
0.000000 0.000056 0
-0.009959 -0.054443 0
-0.020029 -0.029179 0
-0.029089 0.006377 0
-0.037522 0.039788 0
-0.045600 0.070859 0
-0.053459 0.100629 0
-0.061061 0.129527 0
-0.068471 0.157323 0
-0.076040 0.183589 0
-0.084241 0.208302 0
-0.093271 0.231862 0
-0.102943 0.254524 0
-0.112870 0.275998 0
-0.122560 0.295463 0
-0.131480 0.311495 0
-0.139335 0.321891 0
-0.146389 0.323935 0
-0.153424 0.315362 0
-0.161230 0.295523 0
-0.170036 0.265863 0
-0.179386 0.229340 0
-0.188448 0.189323 0
-0.196403 0.148696 0
-0.202683 0.109460 0
-0.207035 0.072688 0
-0.209484 0.038657 0
-0.210228 0.007045 0
-0.209496 -0.022833 0
-0.207436 -0.052444 0
-0.204236 -0.084164 0
-0.200010 -0.120606 0
-0.194740 -0.164541 0
-0.188247 -0.219134 0
-0.180163 -0.288017 0
-0.169926 -0.375289 0
-0.156643 -0.485203 0
-0.138503 -0.620211 0
-0.111055 -0.770412 0
-0.063962 -0.844810 0
-0.001065 -0.000021 0
0.000000 0.421416 0
0.000000 0.000061 0
-0.009725 -0.044108 0
-0.020170 -0.019275 0
-0.029517 0.015247 0
-0.037750 0.047867 0
-0.045100 0.078339 0
-0.051668 0.107538 0
-0.057408 0.135860 0
-0.062335 0.163234 0
-0.066657 0.189399 0
-0.070658 0.214267 0
-0.074445 0.237967 0
-0.077859 0.260512 0
-0.080607 0.281503 0
-0.082371 0.300097 0
-0.082879 0.315004 0
-0.082098 0.324410 0
-0.080484 0.326140 0
-0.079025 0.318254 0
-0.078879 0.299900 0
-0.080829 0.271891 0
-0.084954 0.236529 0
-0.090710 0.196831 0
-0.097260 0.155692 0
-0.103791 0.115342 0
-0.109697 0.077148 0
-0.114625 0.041644 0
-0.118441 0.008648 0
-0.121151 -0.022556 0
-0.122617 -0.053405 0
-0.122931 -0.086199 0
-0.122150 -0.123610 0
-0.120447 -0.168523 0
-0.117803 -0.224280 0
-0.113991 -0.294689 0
-0.108667 -0.384022 0
-0.101371 -0.496953 0
-0.091215 -0.637383 0
-0.075473 -0.799670 0
-0.045267 -0.890569 0
-0.000873 -0.000015 0
0.000000 0.448306 0
0.000000 0.000065 0
-0.008766 -0.034273 0
-0.018801 -0.009386 0
-0.027841 0.023958 0
-0.035528 0.055370 0
-0.041988 0.084778 0
-0.047286 0.112937 0
-0.051377 0.140193 0
-0.054238 0.166571 0
-0.055966 0.191912 0
-0.056705 0.216090 0
-0.056497 0.239063 0
-0.055220 0.260687 0
-0.052667 0.280511 0
-0.048655 0.297735 0
-0.043098 0.311222 0
-0.036126 0.319496 0
-0.028257 0.320862 0
-0.020457 0.313757 0
-0.013987 0.297327 0
-0.009977 0.271938 0
-0.009011 0.239221 0
-0.011010 0.201629 0
-0.015394 0.161777 0
-0.021360 0.121897 0
-0.028114 0.083522 0
-0.035004 0.047402 0
-0.041575 0.013571 0
-0.047535 -0.018658 0
-0.052503 -0.050665 0
-0.056369 -0.084631 0
-0.058974 -0.123090 0
-0.060692 -0.168888 0
-0.061562 -0.225589 0
-0.061460 -0.297153 0
-0.060213 -0.387909 0
-0.057675 -0.502655 0
-0.053598 -0.646110 0
-0.046653 -0.816360 0
-0.029926 -0.920283 0
-0.000695 -0.000010 0
0.000000 0.466694 0
0.000000 0.000068 0
-0.007882 -0.025307 0
-0.017031 -0.000200 0
-0.025196 0.031973 0
-0.031964 0.062014 0
-0.037365 0.090097 0
-0.041399 0.116926 0
-0.044010 0.142811 0
-0.045148 0.167823 0
-0.044829 0.191865 0
-0.043105 0.214798 0
-0.039979 0.236482 0
-0.035365 0.256682 0
-0.029136 0.274938 0
-0.021213 0.290528 0
-0.011629 0.302474 0
-0.000598 0.309570 0
0.011344 0.310472 0
0.023296 0.303983 0
0.034070 0.289420 0
0.042449 0.266916 0
0.047563 0.237561 0
0.049090 0.203213 0
0.047257 0.166043 0
0.042671 0.128062 0
0.036110 0.090792 0
0.028357 0.055105 0
0.020094 0.021179 0
0.011893 -0.011628 0
0.004258 -0.044571 0
-0.002429 -0.079728 0
-0.008192 -0.119287 0
-0.013041 -0.165935 0
-0.016984 -0.223511 0
-0.020036 -0.296037 0
-0.022188 -0.387807 0
-0.023528 -0.503568 0
-0.024216 -0.648405 0
-0.023900 -0.823342 0
-0.017699 -0.937222 0
-0.000544 -0.000006 0
0.000000 0.478241 0
0.000000 0.000069 0
-0.007261 -0.017242 0
-0.015340 0.007928 0
-0.022266 0.038891 0
-0.027823 0.067539 0
-0.032018 0.094213 0
-0.034792 0.119582 0
-0.036064 0.143943 0
-0.035759 0.167390 0
-0.033840 0.189868 0
-0.030302 0.211241 0
-0.025128 0.231323 0
-0.018264 0.249843 0
-0.009648 0.266359 0
0.000724 0.280229 0
0.012756 0.290607 0
0.026173 0.296523 0
0.040437 0.296968 0
0.054706 0.291031 0
0.067916 0.278174 0
0.078942 0.258445 0
0.086839 0.232580 0
0.091063 0.201934 0
0.091557 0.168196 0
0.088683 0.133044 0
0.083083 0.097836 0
0.075521 0.063418 0
0.066776 0.030035 0
0.057560 -0.002822 0
0.048366 -0.036342 0
0.039736 -0.072181 0
0.031622 -0.112478 0
0.024375 -0.160096 0
0.018014 -0.218594 0
0.012437 -0.291949 0
0.007495 -0.384417 0
0.002977 -0.500627 0
-0.001492 -0.645737 0
-0.006226 -0.822877 0
-0.008112 -0.944183 0
-0.000426 -0.000004 0
0.000000 0.484400 0
0.000000 0.000068 0
-0.006888 -0.009966 0
-0.013843 0.014806 0
-0.019353 0.044456 0
-0.023543 0.071766 0
-0.026454 0.097066 0
-0.027994 0.120972 0
-0.028055 0.143778 0
-0.026541 0.165599 0
-0.023381 0.186408 0
-0.018539 0.206087 0
-0.011987 0.224444 0
-0.003698 0.241201 0
0.006343 0.255951 0
0.018096 0.268124 0
0.031410 0.277025 0
0.045957 0.281889 0
0.061220 0.281939 0
0.076453 0.276505 0
0.090726 0.265184 0
0.103044 0.247993 0
0.112514 0.225440 0
0.118523 0.198495 0
0.120840 0.168422 0
0.119625 0.136536 0
0.115341 0.103955 0
0.108643 0.071412 0
0.100265 0.039140 0
0.090928 0.006782 0
0.081151 -0.026746 0
0.071439 -0.062985 0
0.062100 -0.103926 0
0.053376 -0.152327 0
0.045314 -0.211573 0
0.037803 -0.285517 0
0.030597 -0.378347 0
0.023394 -0.494581 0
0.015783 -0.639202 0
0.007288 -0.816723 0
-0.000574 -0.943448 0
-0.000333 -0.000002 0
0.000000 0.486357 0
0.000000 0.000066 0
-0.006537 -0.003400 0
-0.012348 0.020393 0
-0.016457 0.048591 0
-0.019291 0.074641 0
-0.020947 0.098664 0
-0.021327 0.121183 0
-0.020312 0.142490 0
-0.017792 0.162716 0
-0.013680 0.181867 0
-0.007922 0.199846 0
-0.000496 0.216483 0
0.008618 0.231513 0
0.019401 0.244564 0
0.031773 0.255162 0
0.045535 0.262746 0
0.060358 0.266714 0
0.075749 0.266471 0
0.091051 0.261525 0
0.105469 0.251584 0
0.118150 0.236657 0
0.128307 0.217101 0
0.135343 0.193608 0
0.138954 0.167094 0
0.139155 0.138544 0
0.136250 0.108818 0
0.130750 0.078494 0
0.123278 0.047750 0
0.114481 0.016292 0
0.104925 -0.016854 0
0.095038 -0.053130 0
0.085208 -0.094415 0
0.075675 -0.143311 0
0.066500 -0.203021 0
0.057558 -0.277232 0
0.048572 -0.370008 0
0.039168 -0.485812 0
0.028926 -0.629631 0
0.017424 -0.806519 0
0.005285 -0.936895 0
-0.000257 -0.000001 0
0.000000 0.484976 0
0.000000 0.000064 0
-0.005771 0.002382 0
-0.010490 0.024726 0
-0.013418 0.051399 0
-0.015075 0.076255 0
-0.015612 0.099102 0
-0.014963 0.120337 0
-0.013022 0.140243 0
-0.009679 0.158967 0
-0.004848 0.176539 0
0.001522 0.192902 0
0.009464 0.207904 0
0.018984 0.221305 0
0.030035 0.232796 0
0.042503 0.241990 0
0.056176 0.248440 0
0.070731 0.251675 0
0.085717 0.251245 0
0.100557 0.246785 0
0.114575 0.238086 0
0.127055 0.225155 0
0.137326 0.208247 0
0.144852 0.187848 0
0.149311 0.164610 0
0.150636 0.139239 0
0.149003 0.112360 0
0.144782 0.084385 0
0.138470 0.055409 0
0.130611 0.025135 0
0.121740 -0.007303 0
0.112213 -0.043268 0
0.102425 -0.084564 0
0.092598 -0.133620 0
0.082788 -0.193456 0
0.072866 -0.267589 0
0.062549 -0.359957 0
0.051451 -0.474935 0
0.039121 -0.617458 0
0.025079 -0.793081 0
0.009728 -0.926024 0
-0.000202 -0.000001 0
0.000000 0.481074 0
0.000000 0.000061 0
-0.004368 0.007090 0
-0.008087 0.028039 0
-0.010135 0.053177 0
-0.010876 0.076835 0
-0.010495 0.098552 0
-0.008986 0.118593 0
-0.006276 0.137205 0
-0.002282 0.154543 0
0.003070 0.170665 0
0.009834 0.185534 0
0.018044 0.199021 0
0.027681 0.210942 0
0.038681 0.221045 0
0.050916 0.229021 0
0.064173 0.234518 0
0.078149 0.237173 0
0.092436 0.236645 0
0.106534 0.232667 0
0.119871 0.225086 0
0.131850 0.213906 0
0.141907 0.199305 0
0.149579 0.181623 0
0.154560 0.161310 0
0.156738 0.138852 0
0.156196 0.114671 0
0.153189 0.089028 0
0.148088 0.061922 0
0.141331 0.033021 0
0.133369 0.001544 0
0.124515 -0.033815 0
0.115112 -0.074800 0
0.105347 -0.123674 0
0.095259 -0.183288 0
0.084716 -0.256993 0
0.073435 -0.348594 0
0.061023 -0.462385 0
0.047036 -0.603259 0
0.031002 -0.777126 0
0.013134 -0.911816 0
-0.000162 -0.000000 0
0.000000 0.475249 0
0.000000 0.000057 0
-0.002782 0.010470 0
-0.005454 0.030492 0
-0.006744 0.054188 0
-0.006757 0.076616 0
-0.005642 0.097211 0
-0.003436 0.116118 0
-0.000119 0.133539 0
0.004373 0.149621 0
0.010095 0.164422 0
0.017100 0.177928 0
0.025395 0.190058 0
0.034956 0.200667 0
0.045707 0.209561 0
0.057517 0.216497 0
0.070182 0.221207 0
0.083423 0.223413 0
0.096879 0.222860 0
0.110119 0.219350 0
0.122662 0.212769 0
0.134010 0.203119 0
0.143691 0.190518 0
0.151311 0.175195 0
0.156592 0.157452 0
0.159402 0.137603 0
0.159763 0.115909 0
0.157835 0.092493 0
0.153885 0.067267 0
0.148245 0.039854 0
0.141270 0.009512 0
0.133241 -0.025011 0
0.124416 -0.065396 0
0.114937 -0.113766 0
0.104821 -0.172825 0
0.093925 -0.245765 0
0.081966 -0.336264 0
0.068556 -0.448536 0
0.053263 -0.587437 0
0.035631 -0.759179 0
0.015780 -0.895022 0
-0.000134 0.000001 0
0.000000 0.467941 0
0.000000 0.000053 0
-0.001456 0.012544 0
-0.003011 0.032001 0
-0.003502 0.054480 0
-0.002846 0.075732 0
-0.001116 0.095232 0
0.001646 0.113070 0
0.005442 0.129396 0
0.010309 0.144329 0
0.016288 0.157939 0
0.023406 0.170234 0
0.031663 0.181165 0
0.041025 0.190630 0
0.051415 0.198484 0
0.062703 0.204545 0
0.074700 0.208612 0
0.087153 0.210476 0
0.099748 0.209949 0
0.112116 0.206884 0
0.123850 0.201195 0
0.134537 0.192877 0
0.143782 0.182004 0
0.151249 0.168722 0
0.156690 0.153218 0
0.159969 0.135680 0
0.161064 0.116238 0
0.160067 0.094906 0
0.157156 0.071512 0
0.152574 0.045636 0
0.146584 0.016547 0
0.139424 -0.016960 0
0.131258 -0.056496 0
0.122193 -0.104079 0
0.112208 -0.162276 0
0.101146 -0.234137 0
0.088720 -0.323225 0
0.074554 -0.433682 0
0.058230 -0.570334 0
0.039319 -0.739643 0
0.017874 -0.876185 0
-0.000115 0.000001 0
0.000000 0.459471 0
0.000000 0.000048 0
-0.000474 0.013481 0
-0.000956 0.032538 0
-0.000595 0.054023 0
0.000730 0.074229 0
0.003018 0.092719 0
0.006248 0.109560 0
0.010427 0.124877 0
0.015572 0.138775 0
0.021708 0.151325 0
0.028847 0.162554 0
0.036983 0.172438 0
0.046077 0.180915 0
0.056050 0.187883 0
0.066781 0.193213 0
0.078097 0.196757 0
0.089774 0.198364 0
0.101539 0.197897 0
0.113077 0.195247 0
0.124046 0.190348 0
0.134100 0.183188 0
0.142907 0.173806 0
0.150181 0.162286 0
0.155703 0.148731 0
0.159334 0.133229 0
0.161028 0.115811 0
0.160822 0.096401 0
0.158830 0.074759 0
0.155213 0.050427 0
0.150157 0.022663 0
0.143841 -0.009685 0
0.136356 -0.048165 0
0.127763 -0.094716 0
0.118003 -0.151778 0
0.106898 -0.222277 0
0.094160 -0.309672 0
0.079419 -0.418046 0
0.062272 -0.552202 0
0.042319 -0.718823 0
0.019570 -0.855703 0
-0.000102 0.000002 0
0.000000 0.450069 0
0.000000 0.000042 0
0.000212 0.013499 0
0.000701 0.032122 0
0.001918 0.052794 0
0.003920 0.072119 0
0.006737 0.089714 0
0.010382 0.105660 0
0.014865 0.120072 0
0.020206 0.133049 0
0.026420 0.144664 0
0.033515 0.154959 0
0.041477 0.163935 0
0.050266 0.171563 0
0.059807 0.177780 0
0.069987 0.182498 0
0.080650 0.185619 0
0.091599 0.187034 0
0.102599 0.186647 0
0.113381 0.184376 0
0.123658 0.180172 0
0.133136 0.174016 0
0.141537 0.165923 0
0.148616 0.155926 0
0.154176 0.144066 0
0.158083 0.130355 0
0.160272 0.114750 0
0.160742 0.097104 0
0.159551 0.077121 0
0.156799 0.054309 0
0.152603 0.027918 0
0.147077 -0.003160 0
0.140256 -0.040417 0
0.132150 -0.085726 0
0.122663 -0.141412 0
0.111594 -0.210295 0
0.098648 -0.295745 0
0.083462 -0.401794 0
0.065648 -0.533234 0
0.044828 -0.696941 0
0.020981 -0.833866 0
-0.000094 0.000003 0
0.000000 0.439902 0
0.000000 0.000037 0
0.000740 0.012780 0
0.002085 0.030833 0
0.004104 0.050804 0
0.006757 0.069410 0
0.010065 0.086257 0
0.014066 0.101432 0
0.018788 0.115053 0
0.024257 0.127220 0
0.030490 0.138016 0
0.037494 0.147496 0
0.045251 0.155687 0
0.053724 0.162585 0
0.062841 0.168163 0
0.072499 0.172371 0
0.082559 0.175144 0
0.092850 0.176415 0
0.103167 0.176115 0
0.113283 0.174188 0
0.122953 0.170593 0
0.131929 0.165308 0
0.139974 0.158326 0
0.146876 0.149648 0
0.152459 0.139264 0
0.156594 0.127133 0
0.159201 0.113152 0
0.160253 0.097121 0
0.159764 0.078702 0
0.157781 0.057375 0
0.154362 0.032384 0
0.149562 0.002662 0
0.143367 -0.033237 0
0.135738 -0.077123 0
0.126541 -0.131222 0
0.115552 -0.198263 0
0.102470 -0.281540 0
0.086930 -0.385046 0
0.068559 -0.513568 0
0.046995 -0.674156 0
0.022197 -0.810876 0
-0.000089 0.000004 0
0.000000 0.429089 0
0.000000 0.000033 0
0.001306 0.011414 0
0.003396 0.028759 0
0.006104 0.048122 0
0.009318 0.066158 0
0.013047 0.082405 0
0.017336 0.096938 0
0.022232 0.109881 0
0.027771 0.121346 0
0.033976 0.131427 0
0.040855 0.140197 0
0.048393 0.147705 0
0.056552 0.153974 0
0.065269 0.159005 0
0.074450 0.162780 0
0.083971 0.165267 0
0.093682 0.166426 0
0.103407 0.166213 0
0.112951 0.164591 0
0.122104 0.161527 0
0.130656 0.156995 0
0.138404 0.150975 0
0.145161 0.143441 0
0.150770 0.134348 0
0.155104 0.123613 0
0.158078 0.111091 0
0.159639 0.096540 0
0.159768 0.079594 0
0.158469 0.059712 0
0.155749 0.036137 0
0.151609 0.007835 0
0.145994 -0.026593 0
0.138819 -0.068900 0
0.129910 -0.121226 0
0.119024 -0.186224 0
0.105848 -0.267123 0
0.090017 -0.367884 0
0.071163 -0.493299 0
0.048940 -0.650579 0
0.023285 -0.786871 0
-0.000087 0.000004 0
0.000000 0.417707 0
0.000000 0.000028 0
0.002016 0.009384 0
0.004762 0.026034 0
0.008022 0.044882 0
0.011678 0.062467 0
0.015730 0.078239 0
0.020228 0.092247 0
0.025232 0.104618 0
0.030787 0.115476 0
0.036924 0.124933 0
0.043655 0.133080 0
0.050969 0.139989 0
0.058831 0.145709 0
0.067182 0.150266 0
0.075938 0.153669 0
0.084989 0.155912 0
0.094203 0.156979 0
0.103427 0.156847 0
0.112492 0.155492 0
0.121219 0.152888 0
0.129427 0.149008 0
0.136939 0.143821 0
0.143592 0.137282 0
0.149239 0.129321 0
0.153762 0.119825 0
0.157066 0.108618 0
0.159082 0.095430 0
0.159763 0.079873 0
0.159075 0.061395 0
0.156985 0.039244 0
0.153446 0.012416 0
0.148366 -0.020446 0
0.141612 -0.061039 0
0.132981 -0.111428 0
0.122206 -0.174201 0