# vtk DataFile Version 2.0
generated by CFD-lab course output (written by Tobias Neckel) 
ASCII

DATASET STRUCTURED_GRID
DIMENSIONS  42 42 1 
POINTS 1764 float

0.150000 0.150000 0
0.167857 0.150000 0
0.185714 0.150000 0
0.203571 0.150000 0
0.221429 0.150000 0
0.239286 0.150000 0
0.257143 0.150000 0
0.275000 0.150000 0
0.292857 0.150000 0
0.310714 0.150000 0
0.328571 0.150000 0
0.346429 0.150000 0
0.364286 0.150000 0
0.382143 0.150000 0
0.400000 0.150000 0
0.417857 0.150000 0
0.435714 0.150000 0
0.453571 0.150000 0
0.471429 0.150000 0
0.489286 0.150000 0
0.507143 0.150000 0
0.525000 0.150000 0
0.542857 0.150000 0
0.560714 0.150000 0
0.578571 0.150000 0
0.596429 0.150000 0
0.614286 0.150000 0
0.632143 0.150000 0
0.650000 0.150000 0
0.667857 0.150000 0
0.685714 0.150000 0
0.703571 0.150000 0
0.721429 0.150000 0
0.739286 0.150000 0
0.757143 0.150000 0
0.775000 0.150000 0
0.792857 0.150000 0
0.810714 0.150000 0
0.828571 0.150000 0
0.846429 0.150000 0
0.864286 0.150000 0
0.882143 0.150000 0
0.150000 0.167857 0
0.167857 0.167857 0
0.185714 0.167857 0
0.203571 0.167857 0
0.221429 0.167857 0
0.239286 0.167857 0
0.257143 0.167857 0
0.275000 0.167857 0
0.292857 0.167857 0
0.310714 0.167857 0
0.328571 0.167857 0
0.346429 0.167857 0
0.364286 0.167857 0
0.382143 0.167857 0
0.400000 0.167857 0
0.417857 0.167857 0
0.435714 0.167857 0
0.453571 0.167857 0
0.471429 0.167857 0
0.489286 0.167857 0
0.507143 0.167857 0
0.525000 0.167857 0
0.542857 0.167857 0
0.560714 0.167857 0
0.578571 0.167857 0
0.596429 0.167857 0
0.614286 0.167857 0
0.632143 0.167857 0
0.650000 0.167857 0
0.667857 0.167857 0
0.685714 0.167857 0
0.703571 0.167857 0
0.721429 0.167857 0
0.739286 0.167857 0
0.757143 0.167857 0
0.775000 0.167857 0
0.792857 0.167857 0
0.810714 0.167857 0
0.828571 0.167857 0
0.846429 0.167857 0
0.864286 0.167857 0
0.882143 0.167857 0
0.150000 0.185714 0
0.167857 0.185714 0
0.185714 0.185714 0
0.203571 0.185714 0
0.221429 0.185714 0
0.239286 0.185714 0
0.257143 0.185714 0
0.275000 0.185714 0
0.292857 0.185714 0
0.310714 0.185714 0
0.328571 0.185714 0
0.346429 0.185714 0
0.364286 0.185714 0
0.382143 0.185714 0
0.400000 0.185714 0
0.417857 0.185714 0
0.435714 0.185714 0
0.453571 0.185714 0
0.471429 0.185714 0
0.489286 0.185714 0
0.507143 0.185714 0
0.525000 0.185714 0
0.542857 0.185714 0
0.560714 0.185714 0
0.578571 0.185714 0
0.596429 0.185714 0
0.614286 0.185714 0
0.632143 0.185714 0
0.650000 0.185714 0
0.667857 0.185714 0
0.685714 0.185714 0
0.703571 0.185714 0
0.721429 0.185714 0
0.739286 0.185714 0
0.757143 0.185714 0
0.775000 0.185714 0
0.792857 0.185714 0
0.810714 0.185714 0
0.828571 0.185714 0
0.846429 0.185714 0
0.864286 0.185714 0
0.882143 0.185714 0
0.150000 0.203571 0
0.167857 0.203571 0
0.185714 0.203571 0
0.203571 0.203571 0
0.221429 0.203571 0
0.239286 0.203571 0
0.257143 0.203571 0
0.275000 0.203571 0
0.292857 0.203571 0
0.310714 0.203571 0
0.328571 0.203571 0
0.346429 0.203571 0
0.364286 0.203571 0
0.382143 0.203571 0
0.400000 0.203571 0
0.417857 0.203571 0
0.435714 0.203571 0
0.453571 0.203571 0
0.471429 0.203571 0
0.489286 0.203571 0
0.507143 0.203571 0
0.525000 0.203571 0
0.542857 0.203571 0
0.560714 0.203571 0
0.578571 0.203571 0
0.596429 0.203571 0
0.614286 0.203571 0
0.632143 0.203571 0
0.650000 0.203571 0
0.667857 0.203571 0
0.685714 0.203571 0
0.703571 0.203571 0
0.721429 0.203571 0
0.739286 0.203571 0
0.757143 0.203571 0
0.775000 0.203571 0
0.792857 0.203571 0
0.810714 0.203571 0
0.828571 0.203571 0
0.846429 0.203571 0
0.864286 0.203571 0
0.882143 0.203571 0
0.150000 0.221429 0
0.167857 0.221429 0
0.185714 0.221429 0
0.203571 0.221429 0
0.221429 0.221429 0
0.239286 0.221429 0
0.257143 0.221429 0
0.275000 0.221429 0
0.292857 0.221429 0
0.310714 0.221429 0
0.328571 0.221429 0
0.346429 0.221429 0
0.364286 0.221429 0
0.382143 0.221429 0
0.400000 0.221429 0
0.417857 0.221429 0
0.435714 0.221429 0
0.453571 0.221429 0
0.471429 0.221429 0
0.489286 0.221429 0
0.507143 0.221429 0
0.525000 0.221429 0
0.542857 0.221429 0
0.560714 0.221429 0
0.578571 0.221429 0
0.596429 0.221429 0
0.614286 0.221429 0
0.632143 0.221429 0
0.650000 0.221429 0
0.667857 0.221429 0
0.685714 0.221429 0
0.703571 0.221429 0
0.721429 0.221429 0
0.739286 0.221429 0
0.757143 0.221429 0
0.775000 0.221429 0
0.792857 0.221429 0
0.810714 0.221429 0
0.828571 0.221429 0
0.846429 0.221429 0
0.864286 0.221429 0
0.882143 0.221429 0
0.150000 0.239286 0
0.167857 0.239286 0
0.185714 0.239286 0
0.203571 0.239286 0
0.221429 0.239286 0
0.239286 0.239286 0
0.257143 0.239286 0
0.275000 0.239286 0
0.292857 0.239286 0
0.310714 0.239286 0
0.328571 0.239286 0
0.346429 0.239286 0
0.364286 0.239286 0
0.382143 0.239286 0
0.400000 0.239286 0
0.417857 0.239286 0
0.435714 0.239286 0
0.453571 0.239286 0
0.471429 0.239286 0
0.489286 0.239286 0
0.507143 0.239286 0
0.525000 0.239286 0
0.542857 0.239286 0
0.560714 0.239286 0
0.578571 0.239286 0
0.596429 0.239286 0
0.614286 0.239286 0
0.632143 0.239286 0
0.650000 0.239286 0
0.667857 0.239286 0
0.685714 0.239286 0
0.703571 0.239286 0
0.721429 0.239286 0
0.739286 0.239286 0
0.757143 0.239286 0
0.775000 0.239286 0
0.792857 0.239286 0
0.810714 0.239286 0
0.828571 0.239286 0
0.846429 0.239286 0
0.864286 0.239286 0
0.882143 0.239286 0
0.150000 0.257143 0
0.167857 0.257143 0
0.185714 0.257143 0
0.203571 0.257143 0
0.221429 0.257143 0
0.239286 0.257143 0
0.257143 0.257143 0
0.275000 0.257143 0
0.292857 0.257143 0
0.310714 0.257143 0
0.328571 0.257143 0
0.346429 0.257143 0
0.364286 0.257143 0
0.382143 0.257143 0
0.400000 0.257143 0
0.417857 0.257143 0
0.435714 0.257143 0
0.453571 0.257143 0
0.471429 0.257143 0
0.489286 0.257143 0
0.507143 0.257143 0
0.525000 0.257143 0
0.542857 0.257143 0
0.560714 0.257143 0
0.578571 0.257143 0
0.596429 0.257143 0
0.614286 0.257143 0
0.632143 0.257143 0
0.650000 0.257143 0
0.667857 0.257143 0
0.685714 0.257143 0
0.703571 0.257143 0
0.721429 0.257143 0
0.739286 0.257143 0
0.757143 0.257143 0
0.775000 0.257143 0
0.792857 0.257143 0
0.810714 0.257143 0
0.828571 0.257143 0
0.846429 0.257143 0
0.864286 0.257143 0
0.882143 0.257143 0
0.150000 0.275000 0
0.167857 0.275000 0
0.185714 0.275000 0
0.203571 0.275000 0
0.221429 0.275000 0
0.239286 0.275000 0
0.257143 0.275000 0
0.275000 0.275000 0
0.292857 0.275000 0
0.310714 0.275000 0
0.328571 0.275000 0
0.346429 0.275000 0
0.364286 0.275000 0
0.382143 0.275000 0
0.400000 0.275000 0
0.417857 0.275000 0
0.435714 0.275000 0
0.453571 0.275000 0
0.471429 0.275000 0
0.489286 0.275000 0
0.507143 0.275000 0
0.525000 0.275000 0
0.542857 0.275000 0
0.560714 0.275000 0
0.578571 0.275000 0
0.596429 0.275000 0
0.614286 0.275000 0
0.632143 0.275000 0
0.650000 0.275000 0
0.667857 0.275000 0
0.685714 0.275000 0
0.703571 0.275000 0
0.721429 0.275000 0
0.739286 0.275000 0
0.757143 0.275000 0
0.775000 0.275000 0
0.792857 0.275000 0
0.810714 0.275000 0
0.828571 0.275000 0
0.846429 0.275000 0
0.864286 0.275000 0
0.882143 0.275000 0
0.150000 0.292857 0
0.167857 0.292857 0
0.185714 0.292857 0
0.203571 0.292857 0
0.221429 0.292857 0
0.239286 0.292857 0
0.257143 0.292857 0
0.275000 0.292857 0
0.292857 0.292857 0
0.310714 0.292857 0
0.328571 0.292857 0
0.346429 0.292857 0
0.364286 0.292857 0
0.382143 0.292857 0
0.400000 0.292857 0
0.417857 0.292857 0
0.435714 0.292857 0
0.453571 0.292857 0
0.471429 0.292857 0
0.489286 0.292857 0
0.507143 0.292857 0
0.525000 0.292857 0
0.542857 0.292857 0
0.560714 0.292857 0
0.578571 0.292857 0
0.596429 0.292857 0
0.614286 0.292857 0
0.632143 0.292857 0
0.650000 0.292857 0
0.667857 0.292857 0
0.685714 0.292857 0
0.703571 0.292857 0
0.721429 0.292857 0
0.739286 0.292857 0
0.757143 0.292857 0
0.775000 0.292857 0
0.792857 0.292857 0
0.810714 0.292857 0
0.828571 0.292857 0
0.846429 0.292857 0
0.864286 0.292857 0
0.882143 0.292857 0
0.150000 0.310714 0
0.167857 0.310714 0
0.185714 0.310714 0
0.203571 0.310714 0
0.221429 0.310714 0
0.239286 0.310714 0
0.257143 0.310714 0
0.275000 0.310714 0
0.292857 0.310714 0
0.310714 0.310714 0
0.328571 0.310714 0
0.346429 0.310714 0
0.364286 0.310714 0
0.382143 0.310714 0
0.400000 0.310714 0
0.417857 0.310714 0
0.435714 0.310714 0
0.453571 0.310714 0
0.471429 0.310714 0
0.489286 0.310714 0
0.507143 0.310714 0
0.525000 0.310714 0
0.542857 0.310714 0
0.560714 0.310714 0
0.578571 0.310714 0
0.596429 0.310714 0
0.614286 0.310714 0
0.632143 0.310714 0
0.650000 0.310714 0
0.667857 0.310714 0
0.685714 0.310714 0
0.703571 0.310714 0
0.721429 0.310714 0
0.739286 0.310714 0
0.757143 0.310714 0
0.775000 0.310714 0
0.792857 0.310714 0
0.810714 0.310714 0
0.828571 0.310714 0
0.846429 0.310714 0
0.864286 0.310714 0
0.882143 0.310714 0
0.150000 0.328571 0
0.167857 0.328571 0
0.185714 0.328571 0
0.203571 0.328571 0
0.221429 0.328571 0
0.239286 0.328571 0
0.257143 0.328571 0
0.275000 0.328571 0
0.292857 0.328571 0
0.310714 0.328571 0
0.328571 0.328571 0
0.346429 0.328571 0
0.364286 0.328571 0
0.382143 0.328571 0
0.400000 0.328571 0
0.417857 0.328571 0
0.435714 0.328571 0
0.453571 0.328571 0
0.471429 0.328571 0
0.489286 0.328571 0
0.507143 0.328571 0
0.525000 0.328571 0
0.542857 0.328571 0
0.560714 0.328571 0
0.578571 0.328571 0
0.596429 0.328571 0
0.614286 0.328571 0
0.632143 0.328571 0
0.650000 0.328571 0
0.667857 0.328571 0
0.685714 0.328571 0
0.703571 0.328571 0
0.721429 0.328571 0
0.739286 0.328571 0
0.757143 0.328571 0
0.775000 0.328571 0
0.792857 0.328571 0
0.810714 0.328571 0
0.828571 0.328571 0
0.846429 0.328571 0
0.864286 0.328571 0
0.882143 0.328571 0
0.150000 0.346429 0
0.167857 0.346429 0
0.185714 0.346429 0
0.203571 0.346429 0
0.221429 0.346429 0
0.239286 0.346429 0
0.257143 0.346429 0
0.275000 0.346429 0
0.292857 0.346429 0
0.310714 0.346429 0
0.328571 0.346429 0
0.346429 0.346429 0
0.364286 0.346429 0
0.382143 0.346429 0
0.400000 0.346429 0
0.417857 0.346429 0
0.435714 0.346429 0
0.453571 0.346429 0
0.471429 0.346429 0
0.489286 0.346429 0
0.507143 0.346429 0
0.525000 0.346429 0
0.542857 0.346429 0
0.560714 0.346429 0
0.578571 0.346429 0
0.596429 0.346429 0
0.614286 0.346429 0
0.632143 0.346429 0
0.650000 0.346429 0
[...]
POINT_DATA 1764 

VECTORS velocity float
0.000000 0.000000 0
-0.000003 0.000000 0
-0.000003 0.000000 0
-0.000002 0.000000 0
0.000002 0.000000 0
-0.000006 0.000000 0
-0.000011 0.000000 0
0.000012 0.000000 0
0.000024 0.000000 0
0.000026 0.000000 0
0.000026 0.000000 0
0.000026 0.000000 0
0.000025 0.000000 0
0.000024 0.000000 0
0.000023 0.000000 0
0.000022 0.000000 0
0.000021 0.000000 0
0.000021 0.000000 0
0.000021 0.000000 0
0.000021 0.000000 0
0.000022 0.000000 0
0.000022 0.000000 0
0.000023 0.000000 0
0.000023 0.000000 0
0.000024 0.000000 0
0.000024 0.000000 0
0.000024 0.000000 0
0.000024 0.000000 0
0.000024 0.000000 0
0.000024 0.000000 0
0.000024 0.000000 0
0.000024 0.000000 0
0.000023 0.000000 0
0.000023 0.000000 0
0.000023 0.000000 0
0.000022 0.000000 0
0.000021 0.000000 0
0.000019 0.000000 0
0.000015 0.000000 0
0.000010 0.000000 0
0.000000 0.000000 0
0.000000 0.000000 0
0.000000 0.000003 0
0.056454 -0.052025 0
0.090625 -0.024694 0
0.102874 0.000862 0
0.092655 0.016232 0
0.065018 0.004613 0
0.027121 0.001655 0
-0.019036 0.034487 0
-0.077683 0.061438 0
-0.141307 0.066678 0
-0.203324 0.063883 0
-0.260847 0.059207 0
-0.312206 0.053039 0
-0.356779 0.046375 0
-0.394617 0.039826 0
-0.426193 0.033781 0
-0.452197 0.028422 0
-0.473378 0.023792 0
-0.490458 0.019853 0
-0.504077 0.016518 0
-0.514767 0.013684 0
-0.522951 0.011240 0
-0.528939 0.009080 0
-0.532931 0.007077 0
-0.535007 0.005091 0
-0.535129 0.002993 0
-0.533195 0.000649 0
-0.529008 -0.002081 0
-0.522197 -0.005346 0
-0.512227 -0.009310 0
-0.498362 -0.014226 0
-0.479616 -0.020402 0
-0.454730 -0.028152 0
-0.422161 -0.037770 0
-0.380132 -0.049415 0
-0.326829 -0.062845 0
-0.260936 -0.076766 0
-0.182939 -0.087480 0
-0.098120 -0.084842 0
-0.023402 -0.035710 0
0.000044 0.000010 0
0.000000 -0.003439 0
0.000000 0.000004 0
0.032194 -0.090625 0
0.050306 -0.046420 0
0.039849 -0.002031 0
0.013796 0.037856 0
-0.030505 0.065535 0
-0.104536 0.084054 0
-0.175395 0.104803 0
-0.232619 0.122271 0
-0.284778 0.125641 0
-0.333693 0.119540 0
-0.376951 0.108882 0
-0.413943 0.095932 0
-0.444658 0.082411 0
-0.469536 0.069414 0
-0.489237 0.057579 0
-0.504488 0.047184 0
-0.515994 0.038261 0
-0.524379 0.030699 0
-0.530167 0.024309 0
-0.533773 0.018875 0
-0.535510 0.014172 0
-0.535594 0.009980 0
-0.534149 0.006068 0
-0.531232 0.002198 0
-0.526869 -0.001812 0
-0.521043 -0.006121 0
-0.513561 -0.010998 0
-0.504155 -0.016781 0
-0.492404 -0.023835 0
-0.477714 -0.032611 0
-0.459337 -0.043632 0
-0.436311 -0.057455 0
-0.407460 -0.074598 0
-0.371416 -0.095331 0
-0.326734 -0.119195 0
-0.272210 -0.143890 0
-0.207599 -0.162817 0
-0.135331 -0.159538 0
-0.063019 -0.098120 0
-0.000104 0.000016 0
0.000000 0.023418 0
0.000000 -0.000001 0
-0.003845 -0.102331 0
-0.021568 -0.032349 0
-0.058773 0.037371 0
-0.103131 0.086586 0
-0.153071 0.122945 0
-0.207592 0.146545 0
-0.261695 0.162570 0
-0.306159 0.170820 0
-0.342805 0.167753 0
-0.373661 0.156056 0
-0.398818 0.139457 0
-0.418729 0.120746 0
-0.434019 0.101969 0
-0.445422 0.084405 0
-0.453654 0.068732 0
-0.459344 0.055178 0
-0.463009 0.043684 0
-0.465054 0.034026 0
-0.465779 0.025912 0
-0.465399 0.019027 0
-0.464059 0.013061 0
-0.461845 0.007719 0
-0.458799 0.002715 0
-0.454938 -0.002189 0
-0.450355 -0.007196 0
-0.444884 -0.012659 0
-0.438334 -0.018969 0
-0.430473 -0.026504 0
-0.420984 -0.035752 0
-0.409448 -0.047292 0
-0.395329 -0.061805 0
-0.377943 -0.080029 0
-0.356441 -0.102665 0
-0.329792 -0.130141 0
-0.296783 -0.162051 0
-0.256024 -0.195901 0
-0.205985 -0.224359 0
-0.145280 -0.229422 0
-0.073739 -0.171041 0
-0.000221 0.000021 0
0.000000 0.059591 0
0.000000 -0.000011 0
-0.038804 -0.069056 0
-0.088961 0.008508 0
-0.131047 0.079532 0
-0.174804 0.132154 0
-0.218135 0.169996 0
-0.259535 0.192678 0
-0.297100 0.203370 0
-0.326504 0.203381 0
-0.348245 0.193143 0
-0.363929 0.175553 0
-0.374718 0.153950 0
-0.381729 0.131133 0
-0.385935 0.109105 0
-0.388144 0.089049 0
-0.388967 0.071501 0
-0.388830 0.056539 0
-0.388012 0.043971 0
-0.386681 0.033468 0
-0.384929 0.024654 0
-0.382799 0.017155 0
-0.380299 0.010618 0
-0.377419 0.004720 0
-0.374133 -0.000839 0
-0.370502 -0.006246 0
-0.366413 -0.011867 0
-0.361708 -0.018141 0
-0.356295 -0.025409 0
-0.350013 -0.034132 0
-0.342664 -0.044860 0
-0.333981 -0.058266 0
-0.323611 -0.075137 0
-0.311097 -0.096344 0
-0.295847 -0.122750 0
-0.277106 -0.154989 0
-0.253875 -0.192964 0
-0.224701 -0.234688 0
-0.187243 -0.273560 0
-0.137804 -0.291783 0
-0.072549 -0.243400 0
-0.000298 0.000024 0
0.000000 0.097165 0
0.000000 -0.000016 0
-0.060099 -0.013370 0
-0.117107 0.059894 0
-0.163301 0.123215 0
-0.205386 0.173674 0
-0.242055 0.207676 0
-0.272995 0.225510 0
-0.297538 0.229539 0
-0.314375 0.221964 0
-0.324354 0.205178 0
-0.329074 0.182530 0
-0.330089 0.157257 0
-0.328759 0.131963 0
-0.326127 0.108384 0
-0.322913 0.087437 0
-0.319553 0.069418 0
-0.316267 0.054224 0
-0.313133 0.041535 0
-0.310143 0.030943 0
-0.307244 0.022029 0
-0.304362 0.014396 0
-0.301421 0.007681 0
-0.298359 0.001553 0
-0.295142 -0.004202 0
-0.291798 -0.009909 0
-0.288083 -0.015990 0
-0.283988 -0.022777 0
-0.279436 -0.030664 0
-0.274352 -0.040134 0
-0.268633 -0.051784 0
-0.262132 -0.066345 0
-0.254637 -0.084689 0
-0.245837 -0.107793 0
-0.235305 -0.136656 0
-0.222468 -0.172113 0
-0.206536 -0.214456 0
-0.186249 -0.262533 0
-0.159212 -0.311255 0
-0.120874 -0.344117 0
-0.065347 -0.308845 0
-0.000335 0.000025 0
0.000000 0.132144 0
0.000000 -0.000022 0
-0.065230 0.048051 0
-0.120998 0.111710 0
-0.168612 0.167811 0
-0.207711 0.210908 0
-0.238436 0.237605 0
-0.261184 0.248162 0
-0.276255 0.244749 0
-0.283999 0.230196 0
-0.285804 0.207843 0
-0.283400 0.181288 0
-0.278448 0.153635 0
-0.272303 0.127172 0
-0.265916 0.103259 0
-0.259859 0.082474 0
-0.254404 0.064855 0
-0.249619 0.050120 0
-0.245448 0.037848 0
-0.241775 0.027579 0
-0.238456 0.018872 0
-0.235352 0.011332 0
-0.232346 0.004616 0
-0.229360 -0.001558 0
-0.226396 -0.007400 0
-0.223269 -0.013306 0
-0.219913 -0.019677 0
-0.216299 -0.026788 0
-0.212402 -0.035045 0
-0.208210 -0.044935 0
-0.203704 -0.057080 0
-0.198839 -0.072263 0
-0.193507 -0.091432 0
-0.187494 -0.115675 0
-0.180446 -0.146119 0
-0.171858 -0.183759 0
-0.161082 -0.229182 0
-0.147174 -0.282012 0
-0.128245 -0.338935 0
-0.099984 -0.385648 0
-0.055412 -0.364274 0
-0.000336 0.000026 0
0.000000 0.162515 0
0.000000 -0.000023 0
-0.059128 0.107628 0
-0.113158 0.163276 0
-0.157939 0.209927 0
-0.192860 0.243498 0
-0.218190 0.261150 0
-0.234643 0.263329 0
-0.243128 0.252354 0
-0.244844 0.231513 0
-0.241511 0.204579 0
-0.234928 0.175174 0
-0.226709 0.146160 0
-0.218087 0.119431 0
-0.209869 0.095940 0
-0.202494 0.075925 0
-0.196125 0.059178 0
-0.190745 0.045268 0
-0.186236 0.033691 0
-0.182426 0.023951 0
-0.179128 0.015606 0
-0.176172 0.008286 0
-0.173417 0.001689 0
-0.170751 -0.004397 0
-0.168152 -0.010292 0
-0.165382 -0.016392 0
-0.162436 -0.022960 0
-0.159282 -0.030288 0
-0.155931 -0.038753 0
-0.152418 -0.048833 0
-0.148803 -0.061155 0
-0.145139 -0.076542 0
-0.141425 -0.096033 0
-0.137532 -0.120854 0
-0.133141 -0.152292 0
-0.127737 -0.191477 0
-0.120702 -0.239140 0
-0.111351 -0.295370 0
-0.098500 -0.358446 0
-0.078748 -0.416950 0
-0.044838 -0.408829 0
-0.000312 0.000026 0
0.000000 0.187557 0
0.000000 -0.000023 0
-0.050801 0.161209 0
-0.099238 0.210521 0
-0.138876 0.247513 0
-0.168840 0.271159 0
-0.189254 0.279388 0
-0.200895 0.273100 0
-0.204943 0.254951 0
-0.202936 0.228579 0
-0.196687 0.197927 0
-0.187937 0.166486 0
-0.178164 0.136793 0
-0.168445 0.110332 0
-0.159461 0.087666 0
-0.151569 0.068730 0
-0.144889 0.053105 0
-0.139384 0.040231 0
-0.134923 0.029528 0
-0.131322 0.020472 0
-0.128375 0.012619 0
-0.125878 0.005620 0
-0.123649 -0.000805 0
-0.121581 -0.006823 0
-0.119507 -0.012769 0
-0.117301 -0.019022 0
-0.114909 -0.025776 0
-0.112295 -0.033293 0
-0.109477 -0.041909 0
-0.106521 -0.052062 0
-0.103548 -0.064359 0
-0.100711 -0.079640 0
-0.098131 -0.099039 0
-0.095791 -0.123959 0
-0.093423 -0.155915 0
-0.090490 -0.196198 0
-0.086335 -0.245568 0
-0.080404 -0.304214 0
-0.072115 -0.371538 0
-0.059217 -0.439310 0
-0.034849 -0.443022 0
-0.000273 0.000026 0
0.000000 0.207353 0
0.000000 -0.000023 0
-0.041620 0.206866 0
-0.082714 0.251350 0
-0.116163 0.279529 0
-0.140908 0.293877 0
-0.156911 0.293204 0
-0.164880 0.279018 0
-0.166021 0.254396 0
-0.161896 0.223256 0
-0.154218 0.189579 0
-0.144568 0.156651 0
-0.134242 0.126667 0
-0.124173 0.100729 0
-0.114963 0.079065 0
-0.106942 0.061352 0
-0.100241 0.046993 0
-0.094840 0.035303 0
-0.090624 0.025629 0
-0.087416 0.017402 0
-0.085004 0.010162 0
-0.083164 0.003561 0
-0.081677 -0.002608 0
-0.080399 -0.008539 0
-0.079089 -0.014572 0
-0.077654 -0.020990 0
-0.076001 -0.027966 0
-0.074073 -0.035720 0
-0.071866 -0.044528 0
-0.069453 -0.054762 0
-0.066993 -0.066965 0
-0.064724 -0.081959 0
-0.062892 -0.100954 0
-0.061616 -0.125562 0
-0.060718 -0.157593 0
-0.059671 -0.198565 0
-0.057787 -0.249226 0
-0.054563 -0.309590 0
-0.049799 -0.379633 0
-0.042295 -0.454215 0
-0.026043 -0.468046 0
-0.000231 0.000026 0
0.000000 0.222406 0
0.000000 -0.000022 0
-0.032236 0.243923 0
-0.065537 0.285064 0
-0.092582 0.305707 0
-0.112246 0.311907 0
-0.124385 0.303360 0
-0.129572 0.282210 0
-0.128885 0.251966 0
-0.123724 0.216776 0
-0.115579 0.180599 0
-0.105802 0.146510 0
-0.095493 0.116399 0
-0.085469 0.091053 0
-0.076297 0.070435 0
-0.068335 0.054008 0
-0.061745 0.041003 0
-0.056536 0.030614 0
-0.052625 0.022105 0
-0.049845 0.014852 0
-0.047993 0.008367 0
-0.046846 0.002292 0
-0.046175 -0.003570 0
-0.045733 -0.009410 0
-0.045301 -0.015514 0
-0.044758 -0.022110 0
-0.043977 -0.029358 0
-0.042861 -0.037428 0
-0.041378 -0.046529 0
-0.039583 -0.056936 0
-0.037652 -0.069088 0
-0.035881 -0.083741 0
-0.034611 -0.102147 0
-0.034083 -0.126133 0
-0.034227 -0.157860 0
-0.034567 -0.199129 0
-0.034443 -0.250676 0
-0.033405 -0.312202 0
-0.031456 -0.383806 0
-0.028169 -0.463066 0
-0.018607 -0.485317 0
-0.000190 0.000025 0
0.000000 0.233395 0
0.000000 -0.000020 0
-0.023079 0.272403 0
-0.048758 0.311696 0
-0.069640 0.326238 0
-0.084600 0.325680 0
-0.093430 0.310530 0
-0.096547 0.283518 0
-0.094815 0.248548 0
-0.089367 0.209951 0
-0.081399 0.171657 0
-0.071990 0.136565 0
-0.062055 0.106334 0
-0.052329 0.081533 0
-0.043352 0.061931 0
-0.035548 0.046800 0
-0.029124 0.035193 0
-0.024097 0.026182 0
-0.020450 0.018939 0
-0.018017 0.012771 0
-0.016594 0.007162 0
-0.015978 0.001743 0
-0.015956 -0.003720 0
-0.016256 -0.009413 0
-0.016644 -0.015546 0
-0.016960 -0.022314 0
-0.017047 -0.029863 0
-0.016776 -0.038319 0
-0.016086 -0.047806 0
-0.015016 -0.058488 0
-0.013744 -0.070667 0
-0.012584 -0.085001 0
-0.011923 -0.102751 0
-0.012064 -0.125946 0
-0.013009 -0.157110 0
-0.014362 -0.198349 0
-0.015563 -0.250387 0
-0.016286 -0.312577 0
-0.016628 -0.384870 0
-0.016640 -0.467064 0
-0.012496 -0.496214 0
-0.000153 0.000025 0
0.000000 0.241012 0
0.000000 -0.000018 0
-0.014382 0.292681 0
-0.032874 0.331626 0
-0.048037 0.341549 0
-0.058761 0.335697 0
-0.064809 0.315308 0
-0.066435 0.283595 0
-0.064250 0.244787 0
-0.059072 0.203360 0
-0.051764 0.163222 0
-0.043144 0.127166 0
-0.033923 0.096737 0
-0.024693 0.072349 0
-0.015911 0.053655 0
-0.008316 0.039780 0
-0.002140 0.029551 0
0.002630 0.021941 0
0.006067 0.016025 0
0.008315 0.010996 0
0.009548 0.006327 0
0.009940 0.001654 0
0.009669 -0.003292 0
0.008952 -0.008722 0
0.008015 -0.014810 0
0.007061 -0.021708 0
0.006270 -0.029542 0
0.005786 -0.038389 0
0.005685 -0.048289 0
0.005939 -0.059279 0
0.006376 -0.071521 0
0.006694 -0.085561 0
0.006527 -0.102666 0
0.005595 -0.125047 0
0.003899 -0.155562 0
0.001772 -0.196576 0
-0.000396 -0.248752 0
-0.002536 -0.311137 0
-0.004751 -0.383452 0
-0.007343 -0.467198 0
-0.007547 -0.501957 0
-0.000124 0.000024 0
0.000000 0.245890 0
0.000000 -0.000016 0
-0.006257 0.305277 0
-0.018039 0.345351 0
-0.027970 0.352125 0
-0.034916 0.342452 0
-0.038639 0.318204 0
-0.039239 0.282959 0
-0.037071 0.241185 0
-0.032636 0.197465 0
-0.026474 0.155729 0
-0.018992 0.118723 0
-0.010635 0.087883 0
-0.002065 0.063521 0
0.006079 0.045554 0
0.013196 0.033029 0
0.019061 0.024247 0
0.023629 0.017976 0
0.027017 0.013254 0
0.029317 0.009290 0
0.030647 0.005538 0
0.031150 0.001622 0
0.030974 -0.002733 0
0.030274 -0.007759 0
0.029216 -0.013656 0
0.027991 -0.020569 0
0.026783 -0.028588 0
0.025738 -0.037734 0
0.024937 -0.047959 0
0.024349 -0.059178 0
0.023818 -0.071423 0
0.023085 -0.085151 0
0.021855 -0.101651 0
0.019949 -0.123318 0
0.017440 -0.153288 0
0.014619 -0.194055 0
0.011668 -0.246079 0
0.008431 -0.308222 0
0.004700 -0.380063 0
0.000145 -0.464268 0
-0.003546 -0.503558 0
-0.000101 0.000024 0
0.000000 0.248559 0
0.000000 -0.000014 0
0.001118 0.310720 0
-0.004198 0.353339 0
-0.009318 0.358426 0
-0.012877 0.346366 0
-0.014635 0.319630 0
-0.014563 0.282027 0
-0.012772 0.238183 0
-0.009448 0.192762 0
-0.004797 0.149578 0
0.001183 0.111328 0
0.008146 0.079810 0
0.015493 0.055636 0
0.022476 0.038394 0
0.028894 0.026798 0
0.034485 0.019118 0
0.039074 0.013985 0
0.042651 0.010338 0
0.045250 0.007366 0
0.046944 0.004494 0
0.047839 0.001327 0
0.048059 -0.002415 0
0.047723 -0.006963 0
0.046945 -0.012528 0
0.045850 -0.019275 0
0.044575 -0.027288 0
0.043242 -0.036543 0
0.041907 -0.046899 0
0.040532 -0.058160 0
0.038986 -0.070257 0
0.037081 -0.083598 0
0.034652 -0.099530 0
0.031675 -0.120632 0
0.028349 -0.150233 0
0.024916 -0.190803 0
0.021329 -0.242564 0
0.017237 -0.304169 0
0.012243 -0.375166 0
0.006048 -0.458952 0
-0.000261 -0.501812 0
-0.000084 0.000023 0
0.000000 0.249435 0
0.000000 -0.000012 0
0.007804 0.309475 0
0.008759 0.355788 0
0.008158 0.360805 0
0.007735 0.347769 0
0.007739 0.319890 0
0.008282 0.281096 0
0.009453 0.236070 0
0.011355 0.189489 0
0.014130 0.145098 0
0.017967 0.105781 0
0.022690 0.073573 0
0.028084 0.049190 0
0.033724 0.032152 0
0.039368 0.021021 0
0.044667 0.014068 0
0.049340 0.009809 0
0.053243 0.007077 0
0.056321 0.004997 0
0.058588 0.002949 0
0.060103 0.000507 0
0.060956 -0.002617 0
0.061233 -0.006646 0
0.061011 -0.011782 0
0.060355 -0.018199 0
0.059328 -0.025980 0
0.057977 -0.035066 0
0.056302 -0.045250 0
0.054247 -0.056257 0
0.051720 -0.067972 0
0.048643 -0.080817 0
0.045024 -0.096245 0
0.041055 -0.117015 0
0.037079 -0.146529 0
0.033252 -0.187035 0
0.029246 -0.238400 0
0.024454 -0.299136 0
0.018377 -0.368874 0
0.010702 -0.451764 0
0.002434 -0.497510 0
-0.000070 0.000022 0
0.000000 0.248818 0
0.000000 -0.000010 0
0.014086 0.301960 0
0.021025 0.352985 0
0.024744 0.359450 0
0.027309 0.346785 0
0.029002 0.319083 0
0.029962 0.280312 0
0.030407 0.235110 0
0.030657 0.188086 0
0.031139 0.142966 0
0.032212 0.102767 0
0.034142 0.069694 0
0.037048 0.044602 0
0.040873 0.027109 0
0.045391 0.015855 0
0.050186 0.009146 0
0.054851 0.005408 0
0.059097 0.003356 0
0.062748 0.002021 0
0.065726 0.000712 0
0.068024 -0.001041 0
0.069675 -0.003545 0
0.070730 -0.007018 0
0.071229 -0.011650 0
0.071188 -0.017592 0
0.070594 -0.024910 0
0.069403 -0.033517 0
0.067549 -0.043169 0
0.064960 -0.053578 0
0.061598 -0.064652 0
0.057517 -0.076902 0
0.052936 -0.091943 0
0.048289 -0.112687 0
0.044014 -0.142429 0
0.040083 -0.182970 0
0.035851 -0.233766 0
0.030509 -0.293300 0
0.023501 -0.361414 0
0.014556 -0.443008 0
0.004634 -0.491110 0
-0.000061 0.000021 0
0.000000 0.246999 0
0.000000 -0.000008 0
0.020078 0.288449 0
0.032815 0.345130 0
0.040723 0.354521 0
0.046161 0.343511 0
0.049524 0.317237 0
0.050962 0.279690 0
0.050760 0.235375 0
0.049378 0.188757 0
0.047438 0.143544 0
0.045493 0.102778 0
0.044187 0.068737 0
0.044034 0.042459 0
0.045356 0.023809 0
0.048112 0.011709 0
0.051917 0.004607 0
0.056255 0.000897 0
0.060676 -0.000820 0
0.064846 -0.001631 0
0.068558 -0.002327 0
0.071703 -0.003442 0
0.074237 -0.005323 0
0.076153 -0.008199 0
0.077443 -0.012240 0
0.078075 -0.017563 0
0.077970 -0.024194 0
0.077018 -0.032022 0
0.075106 -0.040807 0
0.072164 -0.050306 0
0.068223 -0.060528 0
0.063491 -0.072155 0
0.058419 -0.087017 0
0.053645 -0.108092 0
0.049574 -0.138323 0
0.045870 -0.178873 0
0.041584 -0.228825 0
0.035787 -0.286785 0
0.027942 -0.352920 0
0.017847 -0.432897 0
0.006491 -0.482954 0
-0.000055 0.000021 0
0.000000 0.244182 0
0.000000 -0.000006 0
0.025779 0.269145 0
0.044178 0.332340 0
0.056225 0.346105 0
0.064489 0.337984 0
0.069581 0.314281 0
0.071684 0.279076 0
0.071109 0.236695 0
0.068386 0.191408 0
0.064243 0.146851 0
0.059402 0.106018 0
0.054742 0.071153 0
0.051108 0.043432 0
0.049192 0.023031 0
0.049307 0.009295 0
0.051299 0.001003 0
0.054650 -0.003351 0
0.058770 -0.005234 0
0.063156 -0.005861 0
0.067432 -0.006146 0
0.071343 -0.006720 0
0.074732 -0.007995 0
0.077501 -0.010225 0
0.079574 -0.013572 0
0.080862 -0.018119 0
0.081238 -0.023854 0
0.080560 -0.030653 0
0.078706 -0.038315 0
0.075642 -0.046695 0
0.071503 -0.055979 0
0.066671 -0.067098 0
0.061814 -0.082097 0
0.057639 -0.103842 0
0.054311 -0.134655 0
0.051102 -0.174980 0
0.046849 -0.223683 0
0.040623 -0.279657 0
0.031970 -0.343475 0
0.020790 -0.421557 0
0.008122 -0.473262 0
-0.000052 0.000019 0
0.000000 0.240507 0
0.000000 -0.000004 0
0.031072 0.244271 0
0.054975 0.314684 0
0.071171 0.334210 0
0.082302 0.330155 0
0.089267 0.310042 0
0.092337 0.278162 0
0.091830 0.238673 0
0.088298 0.195623 0
0.082504 0.152528 0
0.075278 0.112279 0
0.067609 0.077031 0
0.060512 0.048009 0
0.054924 0.025611 0
0.051535 0.009602 0
0.050625 -0.000736 0
0.051963 -0.006574 0
0.054907 -0.009325 0
0.058827 -0.010294 0
0.063171 -0.010514 0
0.067508 -0.010741 0
0.071523 -0.011480 0
0.074994 -0.013042 0
0.077747 -0.015601 0
0.079626 -0.019227 0
0.080468 -0.023893 0
0.080125 -0.029490 0
0.078511 -0.035890 0
0.075676 -0.043103 0
0.071892 -0.051557 0
0.067727 -0.062466 0
0.063954 -0.077984 0
0.061108 -0.100589 0
0.058914 -0.131786 0
0.056294 -0.171411 0
0.052032 -0.218346 0
0.045312 -0.271906 0
0.035810 -0.333087 0
0.023542 -0.409049 0
0.009622 -0.462165 0
-0.000051 0.000018 0
0.000000 0.236058 0
0.000000 -0.000002 0
0.035693 0.214170 0
0.064830 0.292242 0
0.085211 0.318778 0
0.099344 0.319887 0
0.108423 0.304246 0
0.112856 0.276514 0
0.112980 0.240734 0
0.109337 0.200734 0
0.102684 0.159871 0
0.093900 0.120913 0
0.084003 0.085918 0
0.074046 0.056118 0
0.065029 0.032009 0
0.057825 0.013593 0
0.053100 0.000574 0
0.051187 -0.007633 0
0.051745 -0.012097 0
0.054101 -0.014125 0
0.057591 -0.014827 0
0.061626 -0.015072 0
0.065723 -0.015480 0
0.069506 -0.016449 0
0.072684 -0.018204 0
0.075018 -0.020839 0
0.076315 -0.024353 0
0.076446 -0.028697 0
0.075392 -0.033865 0
0.073322 -0.040075 0
0.070659 -0.048031 0
0.068069 -0.059160 0
0.066193 -0.075478 0
0.065130 -0.098802 0
0.064125 -0.129840 0
0.061938 -0.168097 0
0.057472 -0.212701 0
0.050098 -0.263436 0
0.039637 -0.321704 0
0.026223 -0.395369 0
0.011060 -0.449721 0
-0.000052 0.000017 0
0.000000 0.230883 0
0.000000 0.000000 0
0.039234 0.179441 0
0.073101 0.265166 0
0.097672 0.299696 0
0.115041 0.306943 0
0.126587 0.296529 0
0.132869 0.273605 0
0.134260 0.242192 0
0.131284 0.205919 0
0.124675 0.167965 0
0.115321 0.130961 0
0.104232 0.096884 0
0.092446 0.066983 0
0.080933 0.041832 0
0.070544 0.021531 0
0.062030 0.005902 0
0.056010 -0.005219 0
0.052991 -0.012240 0
0.052502 -0.016140 0
0.053914 -0.018039 0
0.056566 -0.018873 0
0.059856 -0.019360 0
0.063274 -0.020003 0
0.066411 -0.021112 0
0.068953 -0.022859 0
0.070679 -0.025322 0
0.071489 -0.028567 0
0.071443 -0.032765 0
0.070814 -0.038370 0
0.070081 -0.046305 0
0.069783 -0.058001 0
0.070156 -0.075045 0
0.070770 -0.098520 0
0.070586 -0.128594 0
0.068430 -0.164758 0
0.063430 -0.206507 0
0.055159 -0.254072 0
0.043571 -0.309212 0
0.028911 -0.380471 0
0.012480 -0.435941 0
-0.000053 0.000016 0
0.000000 0.224996 0
0.000000 0.000002 0
0.041081 0.141069 0
0.078797 0.233804 0
0.107483 0.276839 0
0.128442 0.290972 0
0.142957 0.286418 0
0.151675 0.268841 0
0.155016 0.242319 0
0.153500 0.210318 0
0.147840 0.175834 0
0.138912 0.141357 0
0.127709 0.108793 0
0.115245 0.079417 0
0.102459 0.053911 0
0.090153 0.032496 0
0.078996 0.015109 0
0.069544 0.001407 0
0.062395 -0.008590 0
0.058164 -0.015048 0
0.056413 -0.018890 0
0.056573 -0.021014 0
0.058042 -0.022189 0
0.060257 -0.023005 0
0.062742 -0.023882 0
0.065132 -0.025106 0
0.067195 -0.026889 0
0.068850 -0.029461 0