# vtk DataFile Version 2.0
generated by CFD-lab course output (written by Tobias Neckel) 
ASCII

DATASET STRUCTURED_GRID
DIMENSIONS  42 42 1 
POINTS 1764 float

0.150000 0.150000 0
0.167857 0.150000 0
0.185714 0.150000 0
0.203571 0.150000 0
0.221429 0.150000 0
0.239286 0.150000 0
0.257143 0.150000 0
0.275000 0.150000 0
0.292857 0.150000 0
0.310714 0.150000 0
0.328571 0.150000 0
0.346429 0.150000 0
0.364286 0.150000 0
0.382143 0.150000 0
0.400000 0.150000 0
0.417857 0.150000 0
0.435714 0.150000 0
0.453571 0.150000 0
0.471429 0.150000 0
0.489286 0.150000 0
0.507143 0.150000 0
0.525000 0.150000 0
0.542857 0.150000 0
0.560714 0.150000 0
0.578571 0.150000 0
0.596429 0.150000 0
0.614286 0.150000 0
0.632143 0.150000 0
0.650000 0.150000 0
0.667857 0.150000 0
0.685714 0.150000 0
0.703571 0.150000 0
0.721429 0.150000 0
0.739286 0.150000 0
0.757143 0.150000 0
0.775000 0.150000 0
0.792857 0.150000 0
0.810714 0.150000 0
0.828571 0.150000 0
0.846429 0.150000 0
0.864286 0.150000 0
0.882143 0.150000 0
0.150000 0.167857 0
0.167857 0.167857 0
0.185714 0.167857 0
0.203571 0.167857 0
0.221429 0.167857 0
0.239286 0.167857 0
0.257143 0.167857 0
0.275000 0.167857 0
0.292857 0.167857 0
0.310714 0.167857 0
0.328571 0.167857 0
0.346429 0.167857 0
0.364286 0.167857 0
0.382143 0.167857 0
0.400000 0.167857 0
0.417857 0.167857 0
0.435714 0.167857 0
0.453571 0.167857 0
0.471429 0.167857 0
0.489286 0.167857 0
0.507143 0.167857 0
0.525000 0.167857 0
0.542857 0.167857 0
0.560714 0.167857 0
0.578571 0.167857 0
0.596429 0.167857 0
0.614286 0.167857 0
0.632143 0.167857 0
0.650000 0.167857 0
0.667857 0.167857 0
0.685714 0.167857 0
0.703571 0.167857 0
0.721429 0.167857 0
0.739286 0.167857 0
0.757143 0.167857 0
0.775000 0.167857 0
0.792857 0.167857 0
0.810714 0.167857 0
0.828571 0.167857 0
0.846429 0.167857 0
0.864286 0.167857 0
0.882143 0.167857 0
0.150000 0.185714 0
0.167857 0.185714 0
0.185714 0.185714 0
0.203571 0.185714 0
0.221429 0.185714 0
0.239286 0.185714 0
0.257143 0.185714 0
0.275000 0.185714 0
0.292857 0.185714 0
0.310714 0.185714 0
0.328571 0.185714 0
0.346429 0.185714 0
0.364286 0.185714 0
0.382143 0.185714 0
0.400000 0.185714 0
0.417857 0.185714 0
0.435714 0.185714 0
0.453571 0.185714 0
0.471429 0.185714 0
0.489286 0.185714 0
0.507143 0.185714 0
0.525000 0.185714 0
0.542857 0.185714 0
0.560714 0.185714 0
0.578571 0.185714 0
0.596429 0.185714 0
0.614286 0.185714 0
0.632143 0.185714 0
0.650000 0.185714 0
0.667857 0.185714 0
0.685714 0.185714 0
0.703571 0.185714 0
0.721429 0.185714 0
0.739286 0.185714 0
0.757143 0.185714 0
0.775000 0.185714 0
0.792857 0.185714 0
0.810714 0.185714 0
0.828571 0.185714 0
0.846429 0.185714 0
0.864286 0.185714 0
0.882143 0.185714 0
0.150000 0.203571 0
0.167857 0.203571 0
0.185714 0.203571 0
0.203571 0.203571 0
0.221429 0.203571 0
0.239286 0.203571 0
0.257143 0.203571 0
0.275000 0.203571 0
0.292857 0.203571 0
0.310714 0.203571 0
0.328571 0.203571 0
0.346429 0.203571 0
0.364286 0.203571 0
0.382143 0.203571 0
0.400000 0.203571 0
0.417857 0.203571 0
0.435714 0.203571 0
0.453571 0.203571 0
0.471429 0.203571 0
0.489286 0.203571 0
0.507143 0.203571 0
0.525000 0.203571 0
0.542857 0.203571 0
0.560714 0.203571 0
0.578571 0.203571 0
0.596429 0.203571 0
0.614286 0.203571 0
0.632143 0.203571 0
0.650000 0.203571 0
0.667857 0.203571 0
0.685714 0.203571 0
0.703571 0.203571 0
0.721429 0.203571 0
0.739286 0.203571 0
0.757143 0.203571 0
0.775000 0.203571 0
0.792857 0.203571 0
0.810714 0.203571 0
0.828571 0.203571 0
0.846429 0.203571 0
0.864286 0.203571 0
0.882143 0.203571 0
0.150000 0.221429 0
0.167857 0.221429 0
0.185714 0.221429 0
0.203571 0.221429 0
0.221429 0.221429 0
0.239286 0.221429 0
0.257143 0.221429 0
0.275000 0.221429 0
0.292857 0.221429 0
0.310714 0.221429 0
0.328571 0.221429 0
0.346429 0.221429 0
0.364286 0.221429 0
0.382143 0.221429 0
0.400000 0.221429 0
0.417857 0.221429 0
0.435714 0.221429 0
0.453571 0.221429 0
0.471429 0.221429 0
0.489286 0.221429 0
0.507143 0.221429 0
0.525000 0.221429 0
0.542857 0.221429 0
0.560714 0.221429 0
0.578571 0.221429 0
0.596429 0.221429 0
0.614286 0.221429 0
0.632143 0.221429 0
0.650000 0.221429 0
0.667857 0.221429 0
0.685714 0.221429 0
0.703571 0.221429 0
0.721429 0.221429 0
0.739286 0.221429 0
0.757143 0.221429 0
0.775000 0.221429 0
0.792857 0.221429 0
0.810714 0.221429 0
0.828571 0.221429 0
0.846429 0.221429 0
0.864286 0.221429 0
0.882143 0.221429 0
0.150000 0.239286 0
0.167857 0.239286 0
0.185714 0.239286 0
0.203571 0.239286 0
0.221429 0.239286 0
0.239286 0.239286 0
0.257143 0.239286 0
0.275000 0.239286 0
0.292857 0.239286 0
0.310714 0.239286 0
0.328571 0.239286 0
0.346429 0.239286 0
0.364286 0.239286 0
0.382143 0.239286 0
0.400000 0.239286 0
0.417857 0.239286 0
0.435714 0.239286 0
0.453571 0.239286 0
0.471429 0.239286 0
0.489286 0.239286 0
0.507143 0.239286 0
0.525000 0.239286 0
0.542857 0.239286 0
0.560714 0.239286 0
0.578571 0.239286 0
0.596429 0.239286 0
0.614286 0.239286 0
0.632143 0.239286 0
0.650000 0.239286 0
0.667857 0.239286 0
0.685714 0.239286 0
0.703571 0.239286 0
0.721429 0.239286 0
0.739286 0.239286 0
0.757143 0.239286 0
0.775000 0.239286 0
0.792857 0.239286 0
0.810714 0.239286 0
0.828571 0.239286 0
0.846429 0.239286 0
0.864286 0.239286 0
0.882143 0.239286 0
0.150000 0.257143 0
0.167857 0.257143 0
0.185714 0.257143 0
0.203571 0.257143 0
0.221429 0.257143 0
0.239286 0.257143 0
0.257143 0.257143 0
0.275000 0.257143 0
0.292857 0.257143 0
0.310714 0.257143 0
0.328571 0.257143 0
0.346429 0.257143 0
0.364286 0.257143 0
0.382143 0.257143 0
0.400000 0.257143 0
0.417857 0.257143 0
0.435714 0.257143 0
0.453571 0.257143 0
0.471429 0.257143 0
0.489286 0.257143 0
0.507143 0.257143 0
0.525000 0.257143 0
0.542857 0.257143 0
0.560714 0.257143 0
0.578571 0.257143 0
0.596429 0.257143 0
0.614286 0.257143 0
0.632143 0.257143 0
0.650000 0.257143 0
0.667857 0.257143 0
0.685714 0.257143 0
0.703571 0.257143 0
0.721429 0.257143 0
0.739286 0.257143 0
0.757143 0.257143 0
0.775000 0.257143 0
0.792857 0.257143 0
0.810714 0.257143 0
0.828571 0.257143 0
0.846429 0.257143 0
0.864286 0.257143 0
0.882143 0.257143 0
0.150000 0.275000 0
0.167857 0.275000 0
0.185714 0.275000 0
0.203571 0.275000 0
0.221429 0.275000 0
0.239286 0.275000 0
0.257143 0.275000 0
0.275000 0.275000 0
0.292857 0.275000 0
0.310714 0.275000 0
0.328571 0.275000 0
0.346429 0.275000 0
0.364286 0.275000 0
0.382143 0.275000 0
0.400000 0.275000 0
0.417857 0.275000 0
0.435714 0.275000 0
0.453571 0.275000 0
0.471429 0.275000 0
0.489286 0.275000 0
0.507143 0.275000 0
0.525000 0.275000 0
0.542857 0.275000 0
0.560714 0.275000 0
0.578571 0.275000 0
0.596429 0.275000 0
0.614286 0.275000 0
0.632143 0.275000 0
0.650000 0.275000 0
0.667857 0.275000 0
0.685714 0.275000 0
0.703571 0.275000 0
0.721429 0.275000 0
0.739286 0.275000 0
0.757143 0.275000 0
0.775000 0.275000 0
0.792857 0.275000 0
0.810714 0.275000 0
0.828571 0.275000 0
0.846429 0.275000 0
0.864286 0.275000 0
0.882143 0.275000 0
0.150000 0.292857 0
0.167857 0.292857 0
0.185714 0.292857 0
0.203571 0.292857 0
0.221429 0.292857 0
0.239286 0.292857 0
0.257143 0.292857 0
0.275000 0.292857 0
0.292857 0.292857 0
0.310714 0.292857 0
0.328571 0.292857 0
0.346429 0.292857 0
0.364286 0.292857 0
0.382143 0.292857 0
0.400000 0.292857 0
0.417857 0.292857 0
0.435714 0.292857 0
0.453571 0.292857 0
0.471429 0.292857 0
0.489286 0.292857 0
0.507143 0.292857 0
0.525000 0.292857 0
0.542857 0.292857 0
0.560714 0.292857 0
0.578571 0.292857 0
0.596429 0.292857 0
0.614286 0.292857 0
0.632143 0.292857 0
0.650000 0.292857 0
0.667857 0.292857 0
0.685714 0.292857 0
0.703571 0.292857 0
0.721429 0.292857 0
0.739286 0.292857 0
0.757143 0.292857 0
0.775000 0.292857 0
0.792857 0.292857 0
0.810714 0.292857 0
0.828571 0.292857 0
0.846429 0.292857 0
0.864286 0.292857 0
0.882143 0.292857 0
0.150000 0.310714 0
0.167857 0.310714 0
0.185714 0.310714 0
0.203571 0.310714 0
0.221429 0.310714 0
0.239286 0.310714 0
0.257143 0.310714 0
0.275000 0.310714 0
0.292857 0.310714 0
0.310714 0.310714 0
0.328571 0.310714 0
0.346429 0.310714 0
0.364286 0.310714 0
0.382143 0.310714 0
0.400000 0.310714 0
0.417857 0.310714 0
0.435714 0.310714 0
0.453571 0.310714 0
0.471429 0.310714 0
0.489286 0.310714 0
0.507143 0.310714 0
0.525000 0.310714 0
0.542857 0.310714 0
0.560714 0.310714 0
0.578571 0.310714 0
0.596429 0.310714 0
0.614286 0.310714 0
0.632143 0.310714 0
0.650000 0.310714 0
0.667857 0.310714 0
0.685714 0.310714 0
0.703571 0.310714 0
0.721429 0.310714 0
0.739286 0.310714 0
0.757143 0.310714 0
0.775000 0.310714 0
0.792857 0.310714 0
0.810714 0.310714 0
0.828571 0.310714 0
0.846429 0.310714 0
0.864286 0.310714 0
0.882143 0.310714 0
0.150000 0.328571 0
0.167857 0.328571 0
0.185714 0.328571 0
0.203571 0.328571 0
0.221429 0.328571 0
0.239286 0.328571 0
0.257143 0.328571 0
0.275000 0.328571 0
0.292857 0.328571 0
0.310714 0.328571 0
0.328571 0.328571 0
0.346429 0.328571 0
0.364286 0.328571 0
0.382143 0.328571 0
0.400000 0.328571 0
0.417857 0.328571 0
0.435714 0.328571 0
0.453571 0.328571 0
0.471429 0.328571 0
0.489286 0.328571 0
0.507143 0.328571 0
0.525000 0.328571 0
0.542857 0.328571 0
0.560714 0.328571 0
0.578571 0.328571 0
0.596429 0.328571 0
0.614286 0.328571 0
0.632143 0.328571 0
0.650000 0.328571 0
0.667857 0.328571 0
0.685714 0.328571 0
0.703571 0.328571 0
0.721429 0.328571 0
0.739286 0.328571 0
0.757143 0.328571 0
0.775000 0.328571 0
0.792857 0.328571 0
0.810714 0.328571 0
0.828571 0.328571 0
0.846429 0.328571 0
0.864286 0.328571 0
0.882143 0.328571 0
0.150000 0.346429 0
0.167857 0.346429 0
0.185714 0.346429 0
0.203571 0.346429 0
0.221429 0.346429 0
0.239286 0.346429 0
0.257143 0.346429 0
0.275000 0.346429 0
0.292857 0.346429 0
0.310714 0.346429 0
0.328571 0.346429 0
0.346429 0.346429 0
0.364286 0.346429 0
0.382143 0.346429 0
0.400000 0.346429 0
0.417857 0.346429 0
0.435714 0.346429 0
0.453571 0.346429 0
0.471429 0.346429 0
0.489286 0.346429 0
0.507143 0.346429 0
0.525000 0.346429 0
0.542857 0.346429 0
0.560714 0.346429 0
0.578571 0.346429 0
0.596429 0.346429 0
0.614286 0.346429 0
0.632143 0.346429 0
0.650000 0.346429 0
[...]
POINT_DATA 1764 

VECTORS velocity float
0.000000 0.000000 0
-0.000004 0.000000 0
-0.000005 0.000000 0
-0.000001 0.000000 0
-0.000007 0.000000 0
-0.000001 0.000000 0
0.000019 0.000000 0
0.000030 0.000000 0
0.000033 0.000000 0
0.000036 0.000000 0
0.000037 0.000000 0
0.000038 0.000000 0
0.000037 0.000000 0
0.000037 0.000000 0
0.000035 0.000000 0
0.000034 0.000000 0
0.000033 0.000000 0
0.000031 0.000000 0
0.000030 0.000000 0
0.000029 0.000000 0
0.000028 0.000000 0
0.000026 0.000000 0
0.000025 0.000000 0
0.000025 0.000000 0
0.000024 0.000000 0
0.000023 0.000000 0
0.000023 0.000000 0
0.000023 0.000000 0
0.000023 0.000000 0
0.000024 0.000000 0
0.000025 0.000000 0
0.000027 0.000000 0
0.000028 0.000000 0
0.000030 0.000000 0
0.000032 0.000000 0
0.000033 0.000000 0
0.000033 0.000000 0
0.000030 0.000000 0
0.000024 0.000000 0
0.000014 0.000000 0
0.000000 0.000000 0
0.000000 0.000000 0
0.000000 0.000004 0
0.061307 -0.057469 0
0.093978 -0.019899 0
0.092981 0.004624 0
0.059391 0.002871 0
0.012081 0.021766 0
-0.050203 0.063078 0
-0.124373 0.079744 0
-0.198993 0.077833 0
-0.268731 0.071748 0
-0.330822 0.063781 0
-0.384182 0.055073 0
-0.428856 0.046601 0
-0.465593 0.038950 0
-0.495482 0.032397 0
-0.519703 0.027000 0
-0.539357 0.022657 0
-0.555376 0.019193 0
-0.568501 0.016419 0
-0.579286 0.014156 0
-0.588123 0.012251 0
-0.595271 0.010578 0
-0.600876 0.009037 0
-0.604993 0.007513 0
-0.607575 0.005891 0
-0.608488 0.004072 0
-0.607510 0.001940 0
-0.604454 -0.000591 0
-0.598939 -0.003631 0
-0.590466 -0.007337 0
-0.578349 -0.011962 0
-0.561639 -0.017863 0
-0.539062 -0.025468 0
-0.508920 -0.035306 0
-0.469012 -0.047930 0
-0.416637 -0.063701 0
-0.348886 -0.082118 0
-0.263738 -0.100240 0
-0.163092 -0.107982 0
-0.060598 -0.071910 0
-0.000093 0.000014 0
0.000000 0.018263 0
0.000000 0.000004 0
0.024818 -0.093978 0
0.022054 -0.031673 0
-0.008702 0.034587 0
-0.065650 0.080900 0
-0.149032 0.109594 0
-0.220052 0.136454 0
-0.281352 0.148790 0
-0.339400 0.144359 0
-0.391519 0.131829 0
-0.435864 0.115450 0
-0.472187 0.098034 0
-0.501070 0.081411 0
-0.523543 0.066626 0
-0.540767 0.054110 0
-0.553834 0.043874 0
-0.563663 0.035673 0
-0.570982 0.029145 0
-0.576330 0.023910 0
-0.580084 0.019622 0
-0.582491 0.015985 0
-0.583693 0.012753 0
-0.583752 0.009723 0
-0.582649 0.006698 0
-0.580336 0.003495 0
-0.576705 -0.000064 0
-0.571717 -0.004034 0
-0.565135 -0.008571 0
-0.556679 -0.013988 0
-0.545965 -0.020590 0
-0.532460 -0.028827 0
-0.515496 -0.039287 0
-0.494175 -0.052719 0
-0.467312 -0.070050 0
-0.433335 -0.092283 0
-0.390212 -0.120126 0
-0.335494 -0.152899 0
-0.266736 -0.185794 0
-0.183136 -0.203141 0
-0.089177 -0.163092 0
-0.000301 0.000025 0
0.000000 0.060623 0
0.000000 -0.000002 0
-0.027072 -0.079523 0
-0.074534 0.013621 0
-0.129584 0.092328 0
-0.183669 0.143201 0
-0.243888 0.176168 0
-0.298892 0.195398 0
-0.343187 0.199092 0
-0.380033 0.188000 0
-0.409640 0.168211 0
-0.432285 0.144449 0
-0.448821 0.120280 0
-0.460435 0.097957 0
-0.468367 0.078646 0
-0.473704 0.062688 0
-0.477280 0.049896 0
-0.479673 0.039806 0
-0.481251 0.031860 0
-0.482221 0.025520 0
-0.482684 0.020316 0
-0.482665 0.015860 0
-0.482135 0.011839 0
-0.481032 0.007993 0
-0.479268 0.004098 0
-0.476759 -0.000053 0
-0.473437 -0.004547 0
-0.469157 -0.009630 0
-0.463629 -0.015628 0
-0.456621 -0.022800 0
-0.447829 -0.031555 0
-0.436900 -0.042431 0
-0.423415 -0.056149 0
-0.406852 -0.073652 0
-0.386533 -0.096145 0
-0.361530 -0.125029 0
-0.330479 -0.161543 0
-0.291293 -0.205594 0
-0.240813 -0.252598 0
-0.174919 -0.285541 0
-0.090792 -0.255046 0
-0.000442 0.000032 0
0.000000 0.107458 0
0.000000 -0.000007 0
-0.067926 -0.019443 0
-0.132370 0.070838 0
-0.185310 0.143722 0
-0.235128 0.195203 0
-0.280689 0.224818 0
-0.318513 0.235753 0
-0.345800 0.229930 0
-0.364413 0.210812 0
-0.375830 0.184080 0
-0.381674 0.154631 0
-0.383634 0.126184 0
-0.383287 0.100957 0
-0.381896 0.079895 0
-0.380324 0.063023 0
-0.379048 0.049844 0
-0.378250 0.039644 0
-0.377928 0.031693 0
-0.377972 0.025344 0
-0.378227 0.020065 0
-0.378518 0.015435 0
-0.378667 0.011120 0
-0.378503 0.006856 0
-0.377865 0.002426 0
-0.376607 -0.002336 0
-0.374603 -0.007667 0
-0.371550 -0.013842 0
-0.367314 -0.021108 0
-0.361682 -0.029789 0
-0.354445 -0.040310 0
-0.345379 -0.053241 0
-0.334258 -0.069335 0
-0.320858 -0.089601 0
-0.304937 -0.115371 0
-0.286172 -0.148337 0
-0.263940 -0.190364 0
-0.236816 -0.242565 0
-0.201597 -0.302168 0
-0.152268 -0.353161 0
-0.081794 -0.338011 0
-0.000505 0.000037 0
0.000000 0.151427 0
0.000000 -0.000014 0
-0.078353 0.052847 0
-0.143850 0.131005 0
-0.198435 0.195086 0
-0.242836 0.238579 0
-0.277487 0.259553 0
-0.301812 0.260510 0
-0.315594 0.244992 0
-0.320853 0.218029 0
-0.319823 0.185472 0
-0.314876 0.152253 0
-0.308172 0.121893 0
-0.301425 0.096218 0
-0.295756 0.075683 0
-0.291696 0.059840 0
-0.289327 0.047823 0
-0.288453 0.038687 0
-0.288752 0.031582 0
-0.289869 0.025819 0
-0.291460 0.020862 0
-0.293215 0.016301 0
-0.294862 0.011824 0
-0.296161 0.007191 0
-0.296903 0.002202 0
-0.296892 -0.003314 0
-0.295911 -0.009605 0
-0.293805 -0.016919 0
-0.290423 -0.025497 0
-0.285607 -0.035669 0
-0.279202 -0.047859 0
-0.271063 -0.062619 0
-0.261074 -0.080670 0
-0.249179 -0.102973 0
-0.235404 -0.130831 0
-0.219851 -0.166026 0
-0.202566 -0.210899 0
-0.183048 -0.267936 0
-0.158954 -0.337146 0
-0.123964 -0.405344 0
-0.068522 -0.407314 0
-0.000503 0.000038 0
0.000000 0.189259 0
0.000000 -0.000017 0
-0.072261 0.124407 0
-0.135766 0.190921 0
-0.186768 0.242708 0
-0.224977 0.274255 0
-0.251035 0.283793 0
-0.265628 0.273860 0
-0.270014 0.248971 0
-0.266657 0.215040 0
-0.258282 0.178104 0
-0.247645 0.142980 0
-0.237094 0.112734 0
-0.228277 0.088541 0
-0.222027 0.070165 0
-0.218480 0.056594 0
-0.217329 0.046601 0
-0.218068 0.039070 0
-0.220147 0.033109 0
-0.223057 0.028051 0
-0.226352 0.023411 0
-0.229660 0.018836 0
-0.232668 0.014065 0
-0.235123 0.008897 0
-0.236809 0.003158 0
-0.237533 -0.003328 0
-0.237100 -0.010754 0
-0.235425 -0.019330 0
-0.232400 -0.029306 0
-0.227921 -0.041009 0
-0.221886 -0.054855 0
-0.214204 -0.071369 0
-0.204811 -0.091219 0
-0.193713 -0.115271 0
-0.181029 -0.144699 0
-0.167034 -0.181176 0
-0.152145 -0.227168 0
-0.136677 -0.286178 0
-0.119673 -0.361252 0
-0.095863 -0.443593 0
-0.054536 -0.461974 0
-0.000457 0.000038 0
0.000000 0.219950 0
0.000000 -0.000018 0
-0.061710 0.188613 0
-0.118291 0.245512 0
-0.162807 0.284297 0
-0.194427 0.302846 0
-0.213609 0.300205 0
-0.221496 0.279489 0
-0.220000 0.246021 0
-0.211853 0.206296 0
-0.200028 0.166460 0
-0.187427 0.131066 0
-0.176382 0.102524 0
-0.168315 0.081151 0
-0.163664 0.065886 0
-0.162152 0.055142 0
-0.163151 0.047411 0
-0.165952 0.041504 0
-0.169896 0.036571 0
-0.174415 0.032025 0
-0.179037 0.027465 0
-0.183379 0.022616 0
-0.187133 0.017288 0
-0.190061 0.011332 0
-0.191979 0.004612 0
-0.192745 -0.003024 0
-0.192240 -0.011712 0
-0.190437 -0.021620 0
-0.187300 -0.033001 0
-0.182790 -0.046182 0
-0.176866 -0.061576 0
-0.169483 -0.079694 0
-0.160614 -0.101160 0
-0.150282 -0.126755 0
-0.138616 -0.157510 0
-0.125900 -0.194911 0
-0.112615 -0.241256 0
-0.099468 -0.300409 0
-0.086759 -0.377960 0
-0.071044 -0.470481 0
-0.041742 -0.503177 0
-0.000390 0.000036 0
0.000000 0.243793 0
0.000000 -0.000019 0
-0.049976 0.242698 0
-0.097339 0.292018 0
-0.134207 0.318843 0
-0.159400 0.325058 0
-0.173135 0.310862 0
-0.176609 0.280250 0
-0.171892 0.239328 0
-0.161737 0.195069 0
-0.149146 0.153677 0
-0.136996 0.119334 0
-0.127463 0.093622 0
-0.121618 0.075823 0
-0.119455 0.064002 0
-0.120345 0.056080 0
-0.123467 0.050401 0
-0.128039 0.045815 0
-0.133385 0.041572 0
-0.138946 0.037193 0
-0.144266 0.032376 0
-0.148977 0.026932 0
-0.152798 0.020747 0
-0.155522 0.013743 0
-0.157020 0.005841 0
-0.157227 -0.003067 0
-0.156130 -0.013062 0
-0.153779 -0.024271 0
-0.150218 -0.036952 0
-0.145474 -0.051442 0
-0.139554 -0.068162 0
-0.132457 -0.087621 0
-0.124178 -0.110420 0
-0.114745 -0.137269 0
-0.104285 -0.169080 0
-0.093060 -0.207177 0
-0.081488 -0.253600 0
-0.070295 -0.312033 0
-0.060494 -0.389676 0
-0.050512 -0.488610 0
-0.030904 -0.533019 0
-0.000319 0.000034 0
0.000000 0.261687 0
0.000000 -0.000019 0
-0.038241 0.285952 0
-0.076027 0.329744 0
-0.105253 0.346358 0
-0.124617 0.341774 0
-0.134154 0.317414 0
-0.134929 0.278245 0
-0.128878 0.231148 0
-0.118575 0.183551 0
-0.106877 0.141719 0
-0.096503 0.109383 0
-0.089370 0.087146 0
-0.086125 0.073142 0
-0.086372 0.064614 0
-0.089273 0.059155 0
-0.093958 0.055105 0
-0.099666 0.051422 0
-0.105767 0.047479 0
-0.111736 0.042906 0
-0.117143 0.037496 0
-0.121647 0.031148 0
-0.124998 0.023832 0
-0.127032 0.015553 0
-0.127679 0.006317 0
-0.126962 -0.003913 0
-0.125004 -0.015160 0
-0.121943 -0.027532 0
-0.117895 -0.041306 0
-0.112938 -0.056846 0
-0.107111 -0.074593 0
-0.100430 -0.095070 0
-0.092900 -0.118872 0
-0.084534 -0.146648 0
-0.075463 -0.179194 0
-0.065933 -0.217708 0
-0.056315 -0.264021 0
-0.047225 -0.321402 0
-0.039857 -0.397744 0
-0.034068 -0.500071 0
-0.022096 -0.553689 0
-0.000255 0.000031 0
0.000000 0.274691 0
0.000000 -0.000018 0
-0.027167 0.318725 0
-0.055899 0.359030 0
-0.078086 0.367433 0
-0.092431 0.353959 0
-0.098849 0.321174 0
-0.098186 0.274974 0
-0.092082 0.222975 0
-0.082776 0.173068 0
-0.072837 0.131605 0
-0.064728 0.101826 0
-0.060033 0.083243 0
-0.059011 0.072826 0
-0.061019 0.067151 0
-0.065175 0.063666 0
-0.070667 0.060794 0
-0.076810 0.057625 0
-0.083030 0.053641 0
-0.088844 0.048569 0
-0.093847 0.042287 0
-0.097723 0.034787 0
-0.100250 0.026132 0
-0.101318 0.016424 0
-0.100920 0.005771 0
-0.099153 -0.005742 0
-0.096313 -0.018081 0
-0.092613 -0.031379 0
-0.088231 -0.045957 0
-0.083270 -0.062227 0
-0.077775 -0.080670 0
-0.071755 -0.101832 0
-0.065198 -0.126316 0
-0.058098 -0.154706 0
-0.050586 -0.187682 0
-0.042889 -0.226324 0
-0.035373 -0.272308 0
-0.028562 -0.328492 0
-0.023542 -0.402833 0
-0.021022 -0.506371 0
-0.015063 -0.567086 0
-0.000203 0.000029 0
0.000000 0.283779 0
0.000000 -0.000018 0
-0.017052 0.341851 0
-0.037574 0.380663 0
-0.053539 0.382890 0
-0.063698 0.362537 0
-0.067888 0.323169 0
-0.066695 0.271478 0
-0.061368 0.215738 0
-0.053697 0.164307 0
-0.045840 0.123670 0
-0.039920 0.096579 0
-0.037184 0.081430 0
-0.037624 0.074128 0
-0.040541 0.070778 0
-0.045138 0.068803 0
-0.050712 0.066739 0
-0.056666 0.063785 0
-0.062486 0.059513 0
-0.067723 0.053723 0
-0.071996 0.046375 0
-0.075004 0.037551 0
-0.076545 0.027427 0
-0.076552 0.016223 0
-0.075104 0.004152 0
-0.072362 -0.008520 0
-0.068781 -0.021700 0
-0.064644 -0.035614 0
-0.060172 -0.050649 0
-0.055486 -0.067302 0
-0.050609 -0.086108 0
-0.045515 -0.107647 0
-0.040147 -0.132529 0
-0.034489 -0.161260 0
-0.028670 -0.194403 0
-0.022895 -0.232922 0
-0.017533 -0.278348 0
-0.013081 -0.333233 0
-0.010414 -0.405284 0
-0.010614 -0.508550 0
-0.009448 -0.574711 0
-0.000163 0.000027 0
0.000000 0.289750 0
0.000000 -0.000017 0
-0.007936 0.356299 0
-0.021152 0.395517 0
-0.031688 0.393557 0
-0.038381 0.368307 0
-0.041024 0.324171 0
-0.039932 0.268454 0
-0.035909 0.209977 0
-0.030203 0.157541 0
-0.024450 0.117828 0
-0.020359 0.093170 0
-0.018896 0.080948 0
-0.019964 0.076184 0
-0.022974 0.074665 0
-0.027289 0.073837 0
-0.032334 0.072322 0
-0.037603 0.069398 0
-0.042637 0.064698 0
-0.047028 0.058079 0
-0.050415 0.049568 0
-0.052502 0.039336 0
-0.053094 0.027681 0
-0.052127 0.014982 0
-0.049731 0.001581 0
-0.046265 -0.012065 0
-0.042174 -0.025799 0
-0.037831 -0.039988 0
-0.033509 -0.055114 0
-0.029332 -0.071791 0
-0.025299 -0.090642 0
-0.021324 -0.112294 0
-0.017279 -0.137342 0
-0.013173 -0.166183 0
-0.009103 -0.199276 0
-0.005273 -0.237461 0
-0.002059 -0.282122 0
0.000055 -0.335611 0
0.000367 -0.405300 0
-0.002198 -0.507336 0
-0.004907 -0.577700 0
-0.000135 0.000025 0
0.000000 0.293223 0
0.000000 -0.000016 0
0.000059 0.363003 0
-0.006404 0.404414 0
-0.012156 0.400119 0
-0.015940 0.371874 0
-0.017519 0.324719 0
-0.016947 0.266362 0
-0.014555 0.206010 0
-0.010983 0.152848 0
-0.007268 0.113826 0
-0.004653 0.091025 0
-0.003829 0.081035 0
-0.004786 0.078207 0
-0.007194 0.078103 0
-0.010625 0.078163 0
-0.014647 0.077053 0
-0.018839 0.074088 0
-0.022812 0.068939 0
-0.026203 0.061500 0
-0.028679 0.051848 0
-0.029950 0.040230 0
-0.029799 0.027052 0
-0.028137 0.012861 0
-0.025067 -0.001709 0
-0.021164 -0.016078 0
-0.016820 -0.030134 0
-0.012502 -0.044279 0
-0.008519 -0.059148 0
-0.005004 -0.075511 0
-0.001919 -0.094117 0
0.000896 -0.115667 0
0.003578 -0.140679 0
0.006120 -0.169436 0
0.008479 -0.202303 0
0.010416 -0.239965 0
0.011546 -0.283676 0
0.011409 -0.335659 0
0.009401 -0.403031 0
0.004659 -0.503276 0
-0.001108 -0.576909 0
-0.000114 0.000023 0
0.000000 0.294654 0
0.000000 -0.000016 0
0.007020 0.362703 0
0.006950 0.407732 0
0.005572 0.403093 0
0.004401 0.373671 0
0.003664 0.325178 0
0.003500 0.265490 0
0.004014 0.204013 0
0.005207 0.150254 0
0.006779 0.111498 0
0.008141 0.089730 0
0.008816 0.081082 0
0.008538 0.079549 0
0.007284 0.080504 0
0.005230 0.081289 0
0.002656 0.080536 0
-0.000130 0.077563 0
-0.002817 0.072061 0
-0.005105 0.063946 0
-0.006702 0.053315 0
-0.007328 0.040457 0
-0.006704 0.025868 0
-0.004648 0.010249 0
-0.001292 -0.005393 0
0.002735 -0.020311 0
0.006969 -0.034462 0
0.010960 -0.048290 0
0.014397 -0.062612 0
0.017151 -0.078390 0
0.019282 -0.096542 0
0.020981 -0.117791 0
0.022376 -0.142565 0
0.023511 -0.171084 0
0.024314 -0.203572 0
0.024508 -0.240527 0
0.023695 -0.283115 0
0.021440 -0.333467 0
0.017209 -0.398550 0
0.010326 -0.496827 0
0.002121 -0.573041 0
-0.000097 0.000022 0
0.000000 0.294328 0
0.000000 -0.000015 0
0.013373 0.356053 0
0.019266 0.405863 0
0.022031 0.402668 0
0.023370 0.373781 0
0.023463 0.325621 0
0.022543 0.266013 0
0.021049 0.204303 0
0.019603 0.150083 0
0.018798 0.110892 0
0.018909 0.088988 0
0.019628 0.080638 0
0.020316 0.079739 0
0.020545 0.081411 0
0.020210 0.082791 0
0.019411 0.082413 0
0.018333 0.079561 0
0.017192 0.073914 0
0.016218 0.065385 0
0.015631 0.054072 0
0.015685 0.040231 0
0.016673 0.024373 0
0.018798 0.007450 0
0.021886 -0.009093 0
0.025495 -0.024339 0
0.029153 -0.038359 0
0.032461 -0.051707 0
0.035123 -0.065339 0
0.037022 -0.080396 0
0.038226 -0.097948 0
0.038911 -0.118761 0
0.039219 -0.143210 0
0.039178 -0.171374 0
0.038632 -0.203300 0
0.037272 -0.239347 0
0.034690 -0.280608 0
0.030465 -0.329173 0
0.024139 -0.391918 0
0.015184 -0.488188 0
0.004856 -0.566582 0
-0.000085 0.000022 0
0.000000 0.292531 0
0.000000 -0.000015 0
0.019381 0.343437 0
0.030989 0.399073 0
0.037755 0.398990 0
0.041550 0.372239 0
0.042553 0.326004 0
0.041027 0.267904 0
0.037639 0.206953 0
0.033526 0.152505 0
0.030133 0.112193 0
0.028655 0.088901 0
0.029149 0.079674 0
0.030714 0.078631 0
0.032482 0.080610 0
0.034008 0.082423 0
0.035176 0.082414 0
0.036040 0.079782 0
0.036724 0.074176 0
0.037366 0.065507 0
0.038111 0.053847 0
0.039130 0.039415 0
0.040589 0.022755 0
0.042557 0.005036 0
0.044942 -0.012089 0
0.047593 -0.027577 0
0.050183 -0.041428 0
0.052382 -0.054259 0
0.053955 -0.067172 0
0.054833 -0.081493 0
0.055104 -0.098432 0
0.054920 -0.118784 0
0.054363 -0.142832 0
0.053360 -0.170498 0
0.051673 -0.201667 0
0.048938 -0.236586 0
0.044737 -0.276308 0
0.038678 -0.322916 0
0.030375 -0.383268 0
0.019470 -0.477544 0
0.007228 -0.557857 0
-0.000077 0.000021 0
0.000000 0.289471 0
0.000000 -0.000014 0
0.025174 0.325064 0
0.042384 0.387489 0
0.053124 0.392106 0
0.059413 0.368983 0
0.061515 0.326144 0
0.059703 0.270928 0
0.054772 0.211803 0
0.048196 0.157588 0
0.042051 0.115763 0
0.038393 0.089972 0
0.037953 0.078579 0
0.039889 0.076406 0
0.042939 0.078118 0
0.046244 0.080097 0
0.049408 0.080380 0
0.052314 0.078013 0
0.054969 0.072588 0
0.057424 0.063998 0
0.059741 0.052307 0
0.061971 0.037754 0
0.064094 0.020946 0
0.066020 0.003097 0
0.067685 -0.014128 0
0.069120 -0.029581 0
0.070233 -0.043148 0
0.070902 -0.055478 0
0.071066 -0.067790 0
0.070774 -0.081546 0
0.070142 -0.098035 0
0.069255 -0.118019 0
0.068059 -0.141650 0
0.066327 -0.168684 0
0.063698 -0.198878 0
0.059748 -0.232411 0
0.054052 -0.270348 0
0.046263 -0.314810 0
0.036075 -0.372710 0
0.023320 -0.465042 0
0.009331 -0.547112 0
-0.000072 0.000020 0
0.000000 0.285302 0
0.000000 -0.000014 0
0.030763 0.301053 0
0.053532 0.371123 0
0.068318 0.381960 0
0.077238 0.363848 0
0.080735 0.325714 0
0.079113 0.274648 0
0.073206 0.218460 0
0.064628 0.165225 0
0.055781 0.121996 0
0.049338 0.093000 0
0.046924 0.078177 0
0.048250 0.073645 0
0.051907 0.074255 0
0.056594 0.075954 0
0.061535 0.076344 0
0.066367 0.074221 0
0.070937 0.069066 0
0.075185 0.060735 0
0.079074 0.049301 0
0.082528 0.035062 0
0.085379 0.018706 0
0.087413 0.001445 0
0.088488 -0.015189 0
0.088742 -0.030125 0
0.088329 -0.043209 0
0.087414 -0.055092 0
0.086190 -0.067045 0
0.084862 -0.080569 0
0.083565 -0.096913 0
0.082259 -0.116700 0
0.080690 -0.139904 0
0.078439 -0.166137 0
0.075016 -0.195088 0
0.069948 -0.226940 0
0.062829 -0.262823 0
0.053369 -0.304939 0
0.041357 -0.360326 0
0.026827 -0.450800 0
0.011226 -0.534537 0
-0.000068 0.000020 0
0.000000 0.280139 0
0.000000 -0.000013 0
0.036036 0.271532 0
0.064301 0.349934 0
0.083264 0.368401 0
0.095040 0.356566 0
0.100324 0.324269 0
0.099487 0.278458 0
0.093350 0.226289 0
0.083506 0.175013 0
0.072379 0.131052 0
0.062892 0.098829 0
0.057452 0.079667 0
0.056772 0.071423 0
0.059828 0.069774 0
0.065042 0.070468 0
0.071192 0.070607 0
0.077552 0.068612 0
0.083736 0.063769 0
0.089521 0.055860 0
0.094740 0.044965 0
0.099191 0.031449 0
0.102608 0.016062 0
0.104710 -0.000012 0
0.105343 -0.015458 0
0.104706 -0.029421 0
0.103147 -0.041820 0
0.101099 -0.053339 0
0.098999 -0.065238 0
0.097178 -0.078921 0
0.095720 -0.095431 0
0.094395 -0.115144 0
0.092720 -0.137830 0
0.090098 -0.163010 0
0.085948 -0.190388 0
0.079784 -0.220225 0
0.071245 -0.253769 0
0.060121 -0.293338 0
0.046303 -0.346167 0
0.030050 -0.434911 0
0.012955 -0.520285 0
-0.000066 0.000020 0
0.000000 0.274074 0
0.000000 -0.000012 0
0.040720 0.236752 0
0.074302 0.323895 0
0.097582 0.351221 0
0.112515 0.346788 0
0.120055 0.321267 0
0.120685 0.281621 0
0.115190 0.234442 0
0.105039 0.186197 0
0.092474 0.142609 0
0.080310 0.107926 0
0.071319 0.084297 0
0.067230 0.071270 0
0.068003 0.065985 0
0.072305 0.064590 0
0.078591 0.063834 0
0.085704 0.061677 0
0.092911 0.057097 0
0.099751 0.049731 0
0.105884 0.039630 0
0.110986 0.027194 0
0.114727 0.013188 0
0.116816 -0.001290 0
0.117180 -0.015185 0
0.116097 -0.027930 0
0.114079 -0.039602 0
0.111756 -0.050944 0
0.109702 -0.063124 0
0.108231 -0.077290 0
0.107253 -0.094129 0
0.106303 -0.113700 0
0.104698 -0.135607 0
0.101733 -0.159365 0
0.096807 -0.184774 0
0.089470 -0.212237 0
0.079439 -0.243160 0
0.066601 -0.279997 0
0.050959 -0.330255 0
0.033018 -0.417452 0
0.014539 -0.504487 0
-0.000063 0.000019 0
0.000000 0.267183 0
0.000000 -0.000011 0
0.044405 0.197230 0
0.082865 0.293072 0
0.110535 0.330188 0
0.128985 0.334093 0
0.139332 0.316098 0
0.142170 0.283322 0
0.138250 0.241935 0
0.128880 0.197729 0
0.116030 0.155781 0
0.102200 0.119984 0
0.090075 0.092747 0
0.081927 0.074739 0
0.078829 0.064699 0
0.080338 0.059881 0
0.085096 0.057208 0
0.091663 0.054291 0
0.098915 0.049722 0
0.106066 0.042888 0
0.112549 0.033730 0
0.117909 0.022606 0
0.121768 0.010231 0
0.123869 -0.002466 0
0.124281 -0.014738 0
0.123405 -0.026320 0
0.121880 -0.037480 0
0.120398 -0.048963 0
0.119460 -0.061713 0
0.119167 -0.076472 0
0.119161 -0.093503 0
0.118765 -0.112589 0
0.117193 -0.133261 0
0.113735 -0.155119 0
0.107843 -0.178124 0
0.099154 -0.202857 0
0.087487 -0.230900 0
0.072838 -0.264858 0
0.055325 -0.312585 0
0.035727 -0.398491 0
0.015983 -0.487267 0
-0.000061 0.000019 0
0.000000 0.259534 0
0.000000 -0.000010 0
0.046473 0.153887 0
0.088959 0.257764 0
0.120972 0.305100 0
0.143372 0.317992 0
0.157176 0.308083 0
0.163020 0.282702 0
0.161622 0.247731 0
0.154141 0.208417 0
0.142277 0.169290 0
0.128175 0.133882 0
0.114199 0.104570 0
0.102623 0.082515 0
0.095143 0.067575 0
0.092359 0.058323 0
0.093707 0.052508 0
0.097964 0.047858 0
0.103826 0.042695 0
0.110211 0.036097 0
0.116296 0.027787 0
0.121478 0.017975 0
0.125314 0.007228 0
0.127629 -0.003802 0
0.128650 -0.014721 0
0.128871 -0.025529 0
0.128915 -0.036594 0
0.129311 -0.048525 0
0.130265 -0.061894 0
0.131545 -0.076991 0