# vtk DataFile Version 2.0
generated by CFD-lab course output (written by Tobias Neckel) 
ASCII

DATASET STRUCTURED_GRID
DIMENSIONS  42 42 1 
POINTS 1764 float

0.150000 0.150000 0
0.167857 0.150000 0
0.185714 0.150000 0
0.203571 0.150000 0
0.221429 0.150000 0
0.239286 0.150000 0
0.257143 0.150000 0
0.275000 0.150000 0
0.292857 0.150000 0
0.310714 0.150000 0
0.328571 0.150000 0
0.346429 0.150000 0
0.364286 0.150000 0
0.382143 0.150000 0
0.400000 0.150000 0
0.417857 0.150000 0
0.435714 0.150000 0
0.453571 0.150000 0
0.471429 0.150000 0
0.489286 0.150000 0
0.507143 0.150000 0
0.525000 0.150000 0
0.542857 0.150000 0
0.560714 0.150000 0
0.578571 0.150000 0
0.596429 0.150000 0
0.614286 0.150000 0
0.632143 0.150000 0
0.650000 0.150000 0
0.667857 0.150000 0
0.685714 0.150000 0
0.703571 0.150000 0
0.721429 0.150000 0
0.739286 0.150000 0
0.757143 0.150000 0
0.775000 0.150000 0
0.792857 0.150000 0
0.810714 0.150000 0
0.828571 0.150000 0
0.846429 0.150000 0
0.864286 0.150000 0
0.882143 0.150000 0
0.150000 0.167857 0
0.167857 0.167857 0
0.185714 0.167857 0
0.203571 0.167857 0
0.221429 0.167857 0
0.239286 0.167857 0
0.257143 0.167857 0
0.275000 0.167857 0
0.292857 0.167857 0
0.310714 0.167857 0
0.328571 0.167857 0
0.346429 0.167857 0
0.364286 0.167857 0
0.382143 0.167857 0
0.400000 0.167857 0
0.417857 0.167857 0
0.435714 0.167857 0
0.453571 0.167857 0
0.471429 0.167857 0
0.489286 0.167857 0
0.507143 0.167857 0
0.525000 0.167857 0
0.542857 0.167857 0
0.560714 0.167857 0
0.578571 0.167857 0
0.596429 0.167857 0
0.614286 0.167857 0
0.632143 0.167857 0
0.650000 0.167857 0
0.667857 0.167857 0
0.685714 0.167857 0
0.703571 0.167857 0
0.721429 0.167857 0
0.739286 0.167857 0
0.757143 0.167857 0
0.775000 0.167857 0
0.792857 0.167857 0
0.810714 0.167857 0
0.828571 0.167857 0
0.846429 0.167857 0
0.864286 0.167857 0
0.882143 0.167857 0
0.150000 0.185714 0
0.167857 0.185714 0
0.185714 0.185714 0
0.203571 0.185714 0
0.221429 0.185714 0
0.239286 0.185714 0
0.257143 0.185714 0
0.275000 0.185714 0
0.292857 0.185714 0
0.310714 0.185714 0
0.328571 0.185714 0
0.346429 0.185714 0
0.364286 0.185714 0
0.382143 0.185714 0
0.400000 0.185714 0
0.417857 0.185714 0
0.435714 0.185714 0
0.453571 0.185714 0
0.471429 0.185714 0
0.489286 0.185714 0
0.507143 0.185714 0
0.525000 0.185714 0
0.542857 0.185714 0
0.560714 0.185714 0
0.578571 0.185714 0
0.596429 0.185714 0
0.614286 0.185714 0
0.632143 0.185714 0
0.650000 0.185714 0
0.667857 0.185714 0
0.685714 0.185714 0
0.703571 0.185714 0
0.721429 0.185714 0
0.739286 0.185714 0
0.757143 0.185714 0
0.775000 0.185714 0
0.792857 0.185714 0
0.810714 0.185714 0
0.828571 0.185714 0
0.846429 0.185714 0
0.864286 0.185714 0
0.882143 0.185714 0
0.150000 0.203571 0
0.167857 0.203571 0
0.185714 0.203571 0
0.203571 0.203571 0
0.221429 0.203571 0
0.239286 0.203571 0
0.257143 0.203571 0
0.275000 0.203571 0
0.292857 0.203571 0
0.310714 0.203571 0
0.328571 0.203571 0
0.346429 0.203571 0
0.364286 0.203571 0
0.382143 0.203571 0
0.400000 0.203571 0
0.417857 0.203571 0
0.435714 0.203571 0
0.453571 0.203571 0
0.471429 0.203571 0
0.489286 0.203571 0
0.507143 0.203571 0
0.525000 0.203571 0
0.542857 0.203571 0
0.560714 0.203571 0
0.578571 0.203571 0
0.596429 0.203571 0
0.614286 0.203571 0
0.632143 0.203571 0
0.650000 0.203571 0
0.667857 0.203571 0
0.685714 0.203571 0
0.703571 0.203571 0
0.721429 0.203571 0
0.739286 0.203571 0
0.757143 0.203571 0
0.775000 0.203571 0
0.792857 0.203571 0
0.810714 0.203571 0
0.828571 0.203571 0
0.846429 0.203571 0
0.864286 0.203571 0
0.882143 0.203571 0
0.150000 0.221429 0
0.167857 0.221429 0
0.185714 0.221429 0
0.203571 0.221429 0
0.221429 0.221429 0
0.239286 0.221429 0
0.257143 0.221429 0
0.275000 0.221429 0
0.292857 0.221429 0
0.310714 0.221429 0
0.328571 0.221429 0
0.346429 0.221429 0
0.364286 0.221429 0
0.382143 0.221429 0
0.400000 0.221429 0
0.417857 0.221429 0
0.435714 0.221429 0
0.453571 0.221429 0
0.471429 0.221429 0
0.489286 0.221429 0
0.507143 0.221429 0
0.525000 0.221429 0
0.542857 0.221429 0
0.560714 0.221429 0
0.578571 0.221429 0
0.596429 0.221429 0
0.614286 0.221429 0
0.632143 0.221429 0
0.650000 0.221429 0
0.667857 0.221429 0
0.685714 0.221429 0
0.703571 0.221429 0
0.721429 0.221429 0
0.739286 0.221429 0
0.757143 0.221429 0
0.775000 0.221429 0
0.792857 0.221429 0
0.810714 0.221429 0
0.828571 0.221429 0
0.846429 0.221429 0
0.864286 0.221429 0
0.882143 0.221429 0
0.150000 0.239286 0
0.167857 0.239286 0
0.185714 0.239286 0
0.203571 0.239286 0
0.221429 0.239286 0
0.239286 0.239286 0
0.257143 0.239286 0
0.275000 0.239286 0
0.292857 0.239286 0
0.310714 0.239286 0
0.328571 0.239286 0
0.346429 0.239286 0
0.364286 0.239286 0
0.382143 0.239286 0
0.400000 0.239286 0
0.417857 0.239286 0
0.435714 0.239286 0
0.453571 0.239286 0
0.471429 0.239286 0
0.489286 0.239286 0
0.507143 0.239286 0
0.525000 0.239286 0
0.542857 0.239286 0
0.560714 0.239286 0
0.578571 0.239286 0
0.596429 0.239286 0
0.614286 0.239286 0
0.632143 0.239286 0
0.650000 0.239286 0
0.667857 0.239286 0
0.685714 0.239286 0
0.703571 0.239286 0
0.721429 0.239286 0
0.739286 0.239286 0
0.757143 0.239286 0
0.775000 0.239286 0
0.792857 0.239286 0
0.810714 0.239286 0
0.828571 0.239286 0
0.846429 0.239286 0
0.864286 0.239286 0
0.882143 0.239286 0
0.150000 0.257143 0
0.167857 0.257143 0
0.185714 0.257143 0
0.203571 0.257143 0
0.221429 0.257143 0
0.239286 0.257143 0
0.257143 0.257143 0
0.275000 0.257143 0
0.292857 0.257143 0
0.310714 0.257143 0
0.328571 0.257143 0
0.346429 0.257143 0
0.364286 0.257143 0
0.382143 0.257143 0
0.400000 0.257143 0
0.417857 0.257143 0
0.435714 0.257143 0
0.453571 0.257143 0
0.471429 0.257143 0
0.489286 0.257143 0
0.507143 0.257143 0
0.525000 0.257143 0
0.542857 0.257143 0
0.560714 0.257143 0
0.578571 0.257143 0
0.596429 0.257143 0
0.614286 0.257143 0
0.632143 0.257143 0
0.650000 0.257143 0
0.667857 0.257143 0
0.685714 0.257143 0
0.703571 0.257143 0
0.721429 0.257143 0
0.739286 0.257143 0
0.757143 0.257143 0
0.775000 0.257143 0
0.792857 0.257143 0
0.810714 0.257143 0
0.828571 0.257143 0
0.846429 0.257143 0
0.864286 0.257143 0
0.882143 0.257143 0
0.150000 0.275000 0
0.167857 0.275000 0
0.185714 0.275000 0
0.203571 0.275000 0
0.221429 0.275000 0
0.239286 0.275000 0
0.257143 0.275000 0
0.275000 0.275000 0
0.292857 0.275000 0
0.310714 0.275000 0
0.328571 0.275000 0
0.346429 0.275000 0
0.364286 0.275000 0
0.382143 0.275000 0
0.400000 0.275000 0
0.417857 0.275000 0
0.435714 0.275000 0
0.453571 0.275000 0
0.471429 0.275000 0
0.489286 0.275000 0
0.507143 0.275000 0
0.525000 0.275000 0
0.542857 0.275000 0
0.560714 0.275000 0
0.578571 0.275000 0
0.596429 0.275000 0
0.614286 0.275000 0
0.632143 0.275000 0
0.650000 0.275000 0
0.667857 0.275000 0
0.685714 0.275000 0
0.703571 0.275000 0
0.721429 0.275000 0
0.739286 0.275000 0
0.757143 0.275000 0
0.775000 0.275000 0
0.792857 0.275000 0
0.810714 0.275000 0
0.828571 0.275000 0
0.846429 0.275000 0
0.864286 0.275000 0
0.882143 0.275000 0
0.150000 0.292857 0
0.167857 0.292857 0
0.185714 0.292857 0
0.203571 0.292857 0
0.221429 0.292857 0
0.239286 0.292857 0
0.257143 0.292857 0
0.275000 0.292857 0
0.292857 0.292857 0
0.310714 0.292857 0
0.328571 0.292857 0
0.346429 0.292857 0
0.364286 0.292857 0
0.382143 0.292857 0
0.400000 0.292857 0
0.417857 0.292857 0
0.435714 0.292857 0
0.453571 0.292857 0
0.471429 0.292857 0
0.489286 0.292857 0
0.507143 0.292857 0
0.525000 0.292857 0
0.542857 0.292857 0
0.560714 0.292857 0
0.578571 0.292857 0
0.596429 0.292857 0
0.614286 0.292857 0
0.632143 0.292857 0
0.650000 0.292857 0
0.667857 0.292857 0
0.685714 0.292857 0
0.703571 0.292857 0
0.721429 0.292857 0
0.739286 0.292857 0
0.757143 0.292857 0
0.775000 0.292857 0
0.792857 0.292857 0
0.810714 0.292857 0
0.828571 0.292857 0
0.846429 0.292857 0
0.864286 0.292857 0
0.882143 0.292857 0
0.150000 0.310714 0
0.167857 0.310714 0
0.185714 0.310714 0
0.203571 0.310714 0
0.221429 0.310714 0
0.239286 0.310714 0
0.257143 0.310714 0
0.275000 0.310714 0
0.292857 0.310714 0
0.310714 0.310714 0
0.328571 0.310714 0
0.346429 0.310714 0
0.364286 0.310714 0
0.382143 0.310714 0
0.400000 0.310714 0
0.417857 0.310714 0
0.435714 0.310714 0
0.453571 0.310714 0
0.471429 0.310714 0
0.489286 0.310714 0
0.507143 0.310714 0
0.525000 0.310714 0
0.542857 0.310714 0
0.560714 0.310714 0
0.578571 0.310714 0
0.596429 0.310714 0
0.614286 0.310714 0
0.632143 0.310714 0
0.650000 0.310714 0
0.667857 0.310714 0
0.685714 0.310714 0
0.703571 0.310714 0
0.721429 0.310714 0
0.739286 0.310714 0
0.757143 0.310714 0
0.775000 0.310714 0
0.792857 0.310714 0
0.810714 0.310714 0
0.828571 0.310714 0
0.846429 0.310714 0
0.864286 0.310714 0
0.882143 0.310714 0
0.150000 0.328571 0
0.167857 0.328571 0
0.185714 0.328571 0
0.203571 0.328571 0
0.221429 0.328571 0
0.239286 0.328571 0
0.257143 0.328571 0
0.275000 0.328571 0
0.292857 0.328571 0
0.310714 0.328571 0
0.328571 0.328571 0
0.346429 0.328571 0
0.364286 0.328571 0
0.382143 0.328571 0
0.400000 0.328571 0
0.417857 0.328571 0
0.435714 0.328571 0
0.453571 0.328571 0
0.471429 0.328571 0
0.489286 0.328571 0
0.507143 0.328571 0
0.525000 0.328571 0
0.542857 0.328571 0
0.560714 0.328571 0
0.578571 0.328571 0
0.596429 0.328571 0
0.614286 0.328571 0
0.632143 0.328571 0
0.650000 0.328571 0
0.667857 0.328571 0
0.685714 0.328571 0
0.703571 0.328571 0
0.721429 0.328571 0
0.739286 0.328571 0
0.757143 0.328571 0
0.775000 0.328571 0
0.792857 0.328571 0
0.810714 0.328571 0
0.828571 0.328571 0
0.846429 0.328571 0
0.864286 0.328571 0
0.882143 0.328571 0
0.150000 0.346429 0
0.167857 0.346429 0
0.185714 0.346429 0
0.203571 0.346429 0
0.221429 0.346429 0
0.239286 0.346429 0
0.257143 0.346429 0
0.275000 0.346429 0
0.292857 0.346429 0
0.310714 0.346429 0
0.328571 0.346429 0
0.346429 0.346429 0
0.364286 0.346429 0
0.382143 0.346429 0
0.400000 0.346429 0
0.417857 0.346429 0
0.435714 0.346429 0
0.453571 0.346429 0
0.471429 0.346429 0
0.489286 0.346429 0
0.507143 0.346429 0
0.525000 0.346429 0
0.542857 0.346429 0
0.560714 0.346429 0
0.578571 0.346429 0
0.596429 0.346429 0
0.614286 0.346429 0
0.632143 0.346429 0
0.650000 0.346429 0
[...]
POINT_DATA 1764 

VECTORS velocity float
0.000000 0.000000 0
0.000021 0.000000 0
0.000039 0.000000 0
0.000050 0.000000 0
0.000055 0.000000 0
0.000055 0.000000 0
0.000053 0.000000 0
0.000048 0.000000 0
0.000041 0.000000 0
0.000031 0.000000 0
0.000021 0.000000 0
0.000012 0.000000 0
0.000003 0.000000 0
-0.000006 0.000000 0
-0.000016 0.000000 0
-0.000025 0.000000 0
-0.000036 0.000000 0
-0.000046 0.000000 0
-0.000057 0.000000 0
-0.000069 0.000000 0
-0.000083 0.000000 0
-0.000097 0.000000 0
-0.000112 0.000000 0
-0.000130 0.000000 0
-0.000151 0.000000 0
-0.000175 0.000000 0
-0.000203 0.000000 0
-0.000233 0.000000 0
-0.000265 0.000000 0
-0.000301 0.000000 0
-0.000341 0.000000 0
-0.000384 0.000000 0
-0.000421 0.000000 0
-0.000443 0.000000 0
-0.000444 0.000000 0
-0.000425 0.000000 0
-0.000383 0.000000 0
-0.000308 0.000000 0
-0.000205 0.000000 0
-0.000090 0.000000 0
-0.000001 0.000000 0
0.000000 0.000000 0
0.000000 -0.000021 0
0.021512 -0.021475 0
0.034258 -0.009286 0
0.038922 -0.001398 0
0.038779 0.002262 0
0.036125 0.003835 0
0.032078 0.004795 0
0.027078 0.006132 0
0.021144 0.007165 0
0.014943 0.007036 0
0.008937 0.006409 0
0.003322 0.005710 0
-0.001921 0.005225 0
-0.006938 0.005032 0
-0.011908 0.005161 0
-0.016994 0.005335 0
-0.022172 0.005374 0
-0.027472 0.005473 0
-0.032973 0.005694 0
-0.038778 0.006057 0
-0.044999 0.006530 0
-0.051733 0.007045 0
-0.059089 0.007737 0
-0.067287 0.008764 0
-0.076574 0.010136 0
-0.087205 0.011806 0
-0.099369 0.013589 0
-0.113151 0.015277 0
-0.128574 0.016843 0
-0.145769 0.019090 0
-0.165214 0.022233 0
-0.186907 0.025235 0
-0.210034 0.026606 0
-0.232544 0.024642 0
-0.251226 0.018391 0
-0.262068 0.007530 0
-0.260327 -0.008463 0
-0.240203 -0.032184 0
-0.194085 -0.066188 0
-0.113920 -0.108941 0
-0.000906 -0.000090 0
0.000000 0.065924 0
0.000000 -0.000036 0
0.010835 -0.034258 0
0.019134 -0.017410 0
0.023438 -0.004521 0
0.024410 0.002797 0
0.022895 0.006700 0
0.019826 0.009047 0
0.015845 0.010934 0
0.011846 0.012135 0
0.007589 0.012207 0
0.003131 0.011621 0
-0.001440 0.010858 0
-0.006044 0.010260 0
-0.010627 0.009987 0
-0.015207 0.010056 0
-0.019735 0.010264 0
-0.024412 0.010478 0
-0.029301 0.010801 0
-0.034451 0.011306 0
-0.039917 0.012026 0
-0.045769 0.012955 0
-0.052117 0.014090 0
-0.059135 0.015553 0
-0.066895 0.017485 0
-0.075516 0.019918 0
-0.085093 0.022795 0
-0.095750 0.025946 0
-0.107651 0.029205 0
-0.121004 0.032618 0
-0.135969 0.036640 0
-0.151977 0.041138 0
-0.168476 0.044820 0
-0.184529 0.045637 0
-0.198902 0.041192 0
-0.209761 0.029524 0
-0.214300 0.009101 0
-0.208586 -0.021866 0
-0.187606 -0.066242 0
-0.146648 -0.126283 0
-0.081322 -0.194085 0
-0.000684 -0.000169 0
0.000000 0.113751 0
0.000000 -0.000045 0
0.004880 -0.040609 0
0.008766 -0.021888 0
0.011099 -0.006674 0
0.011824 0.002804 0
0.011006 0.008419 0
0.009058 0.011845 0
0.006470 0.014112 0
0.003818 0.015420 0
0.000949 0.015750 0
-0.002222 0.015439 0
-0.005681 0.014885 0
-0.009362 0.014412 0
-0.013177 0.014195 0
-0.017066 0.014269 0
-0.020985 0.014540 0
-0.025058 0.014940 0
-0.029354 0.015511 0
-0.033917 0.016310 0
-0.038785 0.017375 0
-0.044010 0.018730 0
-0.049676 0.020412 0
-0.055886 0.022516 0
-0.062678 0.025144 0
-0.070090 0.028334 0
-0.078153 0.032041 0
-0.086935 0.036147 0
-0.096546 0.040531 0
-0.107093 0.045161 0
-0.118485 0.050063 0
-0.130091 0.054740 0
-0.141207 0.057787 0
-0.151036 0.057032 0
-0.158786 0.049874 0
-0.163440 0.033789 0
-0.163356 0.006355 0
-0.156022 -0.035157 0
-0.138176 -0.094122 0
-0.106291 -0.172472 0
-0.057452 -0.255589 0
-0.000511 -0.000238 0
0.000000 0.147098 0
0.000000 -0.000050 0
0.001067 -0.043024 0
0.002087 -0.023629 0
0.002874 -0.007579 0
0.003115 0.002889 0
0.002603 0.009466 0
0.001418 0.013584 0
-0.000197 0.016174 0
-0.001975 0.017656 0
-0.003975 0.018246 0
-0.006278 0.018252 0
-0.008906 0.017998 0
-0.011819 0.017756 0
-0.014943 0.017691 0
-0.018213 0.017864 0
-0.021600 0.018256 0
-0.025156 0.018846 0
-0.028929 0.019660 0
-0.032954 0.020737 0
-0.037259 0.022120 0
-0.041878 0.023846 0
-0.046861 0.025966 0
-0.052255 0.028556 0
-0.058072 0.031689 0
-0.064311 0.035393 0
-0.070969 0.039640 0
-0.078057 0.044339 0
-0.085601 0.049362 0
-0.093577 0.054557 0
-0.101778 0.059638 0
-0.109681 0.063859 0
-0.116683 0.065766 0
-0.122195 0.063217 0
-0.125713 0.053596 0
-0.126670 0.034094 0
-0.124125 0.001683 0
-0.116534 -0.047046 0
-0.101843 -0.115973 0
-0.077593 -0.207007 0
-0.041526 -0.300376 0
-0.000380 -0.000297 0
0.000000 0.171075 0
0.000000 -0.000051 0
-0.001821 -0.042697 0
-0.002576 -0.023695 0
-0.002694 -0.007701 0
-0.002760 0.003075 0
-0.003104 0.010116 0
-0.003810 0.014646 0
-0.004808 0.017505 0
-0.006005 0.019198 0
-0.007434 0.020054 0
-0.009151 0.020370 0
-0.011180 0.020426 0
-0.013498 0.020448 0
-0.016057 0.020589 0
-0.018809 0.020926 0
-0.021728 0.021483 0
-0.024831 0.022269 0
-0.028142 0.023310 0
-0.031682 0.024640 0
-0.035467 0.026299 0
-0.039515 0.028332 0
-0.043848 0.030788 0
-0.048478 0.033727 0
-0.053395 0.037201 0
-0.058578 0.041231 0
-0.063995 0.045787 0
-0.069615 0.050779 0
-0.075396 0.056051 0
-0.081238 0.061338 0
-0.086912 0.066166 0
-0.092019 0.069644 0
-0.096112 0.070301 0
-0.098784 0.066063 0
-0.099715 0.054349 0
-0.098572 0.032201 0
-0.094810 -0.003781 0
-0.087532 -0.057439 0
-0.075477 -0.133064 0
-0.057018 -0.232789 0
-0.030339 -0.333181 0
-0.000283 -0.000343 0
0.000000 0.188519 0
0.000000 -0.000049 0
-0.003856 -0.040448 0
-0.005677 -0.022756 0
-0.006319 -0.007394 0
-0.006569 0.003299 0
-0.006826 0.010516 0
-0.007251 0.015287 0
-0.007875 0.018369 0
-0.008694 0.020282 0
-0.009739 0.021393 0
-0.011048 0.021998 0
-0.012641 0.022345 0
-0.014508 0.022633 0
-0.016619 0.023002 0
-0.018941 0.023535 0
-0.021451 0.024278 0
-0.024150 0.025260 0
-0.027044 0.026510 0
-0.030141 0.028062 0
-0.033445 0.029953 0
-0.036962 0.032227 0
-0.040690 0.034928 0
-0.044621 0.038104 0
-0.048732 0.041789 0
-0.052983 0.045993 0
-0.057327 0.050677 0
-0.061702 0.055740 0
-0.066029 0.060985 0
-0.070179 0.066072 0
-0.073945 0.070419 0
-0.077035 0.073060 0
-0.079137 0.072531 0
-0.079984 0.066819 0
-0.079375 0.053383 0
-0.077119 0.029189 0
-0.072902 -0.009357 0
-0.066240 -0.066378 0
-0.056363 -0.146487 0
-0.042220 -0.252146 0
-0.022359 -0.357394 0
-0.000209 -0.000379 0
0.000000 0.201331 0
0.000000 -0.000045 0
-0.004777 -0.037020 0
-0.007255 -0.021232 0
-0.008315 -0.006809 0
-0.008773 0.003582 0
-0.009050 0.010798 0
-0.009353 0.015695 0
-0.009774 0.018949 0
-0.010358 0.021062 0
-0.011144 0.022407 0
-0.012165 0.023272 0
-0.013438 0.023886 0
-0.014961 0.024426 0
-0.016716 0.025021 0
-0.018679 0.025759 0
-0.020833 0.026693 0
-0.023169 0.027862 0
-0.025684 0.029300 0
-0.028373 0.031041 0
-0.031234 0.033120 0
-0.034258 0.035576 0
-0.037432 0.038447 0
-0.040735 0.041769 0
-0.044131 0.045563 0
-0.047574 0.049825 0
-0.051002 0.054505 0
-0.054343 0.059482 0
-0.057501 0.064528 0
-0.060348 0.069254 0
-0.062711 0.073022 0
-0.064382 0.074836 0
-0.065153 0.073250 0
-0.064856 0.066301 0
-0.063376 0.051484 0
-0.060611 0.025729 0
-0.056396 -0.014660 0
-0.050477 -0.073979 0
-0.042400 -0.157084 0
-0.031490 -0.266792 0
-0.016598 -0.375401 0
-0.000155 -0.000406 0
0.000000 0.210815 0
0.000000 -0.000040 0
-0.004599 -0.033193 0
-0.007512 -0.019217 0
-0.009012 -0.005876 0
-0.009753 0.004034 0
-0.010152 0.011095 0
-0.010451 0.016011 0
-0.010786 0.019374 0
-0.011236 0.021652 0
-0.011851 0.023199 0
-0.012667 0.024292 0
-0.013702 0.025141 0
-0.014958 0.025911 0
-0.016425 0.026720 0
-0.018088 0.027653 0
-0.019929 0.028769 0
-0.021939 0.030110 0
-0.024106 0.031714 0
-0.026421 0.033612 0
-0.028873 0.035838 0
-0.031445 0.038426 0
-0.034117 0.041405 0
-0.036859 0.044803 0
-0.039630 0.048628 0
-0.042377 0.052864 0
-0.045038 0.057447 0
-0.047533 0.062239 0
-0.049769 0.066990 0
-0.051631 0.071283 0
-0.052982 0.074453 0
-0.053677 0.075502 0
-0.053582 0.073005 0
-0.052599 0.065042 0
-0.050672 0.049137 0
-0.047760 0.022209 0
-0.043795 -0.019491 0
-0.038654 -0.080374 0
-0.032076 -0.165474 0
-0.023624 -0.277947 0
-0.012395 -0.388884 0
-0.000114 -0.000427 0
0.000000 0.217882 0
0.000000 -0.000036 0
-0.004026 -0.029508 0
-0.007088 -0.016819 0
-0.008908 -0.004568 0
-0.009913 0.004722 0
-0.010466 0.011495 0
-0.010821 0.016329 0
-0.011139 0.019734 0
-0.011518 0.022127 0
-0.012023 0.023839 0
-0.012691 0.025123 0
-0.013545 0.026177 0
-0.014589 0.027149 0
-0.015818 0.028151 0
-0.017222 0.029263 0
-0.018788 0.030544 0
-0.020502 0.032038 0
-0.022352 0.033782 0
-0.024323 0.035808 0
-0.026399 0.038145 0
-0.028560 0.040821 0
-0.030781 0.043861 0
-0.033026 0.047281 0
-0.035253 0.051081 0
-0.037409 0.055233 0
-0.039431 0.059660 0
-0.041245 0.064213 0
-0.042764 0.068626 0
-0.043892 0.072468 0
-0.044526 0.075068 0
-0.044565 0.075435 0
-0.043927 0.072172 0
-0.042565 0.063391 0
-0.040462 0.046645 0
-0.037620 0.018852 0
-0.034029 -0.023766 0
-0.029647 -0.085698 0
-0.024327 -0.172113 0
-0.017781 -0.286473 0
-0.009291 -0.399025 0
-0.000085 -0.000441 0
0.000000 0.223175 0
0.000000 -0.000032 0
-0.003579 -0.026105 0
-0.006538 -0.014335 0
-0.008463 -0.003051 0
-0.009612 0.005592 0
-0.010278 0.012004 0
-0.010692 0.016684 0
-0.011017 0.020072 0
-0.011360 0.022536 0
-0.011789 0.024372 0
-0.012347 0.025813 0
-0.013056 0.027038 0
-0.013926 0.028184 0
-0.014954 0.029354 0
-0.016133 0.030623 0
-0.017453 0.032049 0
-0.018899 0.033674 0
-0.020458 0.035534 0
-0.022113 0.037659 0
-0.023847 0.040076 0
-0.025635 0.042807 0
-0.027451 0.045870 0
-0.029259 0.049275 0
-0.031016 0.053011 0
-0.032673 0.057042 0
-0.034169 0.061282 0
-0.035438 0.065572 0
-0.036406 0.069638 0
-0.036995 0.073045 0
-0.037129 0.075126 0
-0.036740 0.074903 0
-0.035785 0.071005 0
-0.034247 0.061577 0
-0.032141 0.044193 0
-0.029496 0.015777 0
-0.026336 -0.027464 0
-0.022668 -0.090077 0
-0.018412 -0.177341 0
-0.013370 -0.292983 0
-0.006964 -0.406664 0
-0.000063 -0.000452 0
0.000000 0.227148 0
0.000000 -0.000029 0
-0.003310 -0.022969 0
-0.006066 -0.011935 0
-0.007926 -0.001494 0
-0.009090 0.006538 0
-0.009794 0.012575 0
-0.010236 0.017068 0
-0.010565 0.020401 0
-0.010881 0.022899 0
-0.011252 0.024826 0
-0.011721 0.026390 0
-0.012310 0.027756 0
-0.013031 0.029047 0
-0.013884 0.030358 0
-0.014864 0.031761 0
-0.015961 0.033309 0
-0.017162 0.035043 0
-0.018455 0.036997 0
-0.019821 0.039197 0
-0.021243 0.041667 0
-0.022695 0.044425 0
-0.024150 0.047485 0
-0.025574 0.050847 0
-0.026928 0.054496 0
-0.028164 0.058386 0
-0.029230 0.062426 0
-0.030067 0.066450 0
-0.030615 0.070183 0
-0.030812 0.073191 0
-0.030605 0.074813 0
-0.029952 0.074091 0
-0.028833 0.069679 0
-0.027256 0.059747 0
-0.025254 0.041893 0
-0.022874 0.013046 0
-0.020164 -0.030594 0
-0.017155 -0.093623 0
-0.013806 -0.181411 0
-0.009978 -0.297920 0
-0.005190 -0.412395 0
-0.000047 -0.000459 0
0.000000 0.230122 0
0.000000 -0.000025 0
-0.003173 -0.020039 0
-0.005687 -0.009719 0
-0.007377 -0.000028 0
-0.008458 0.007460 0
-0.009134 0.013150 0
-0.009567 0.017454 0
-0.009883 0.020716 0
-0.010170 0.023223 0
-0.010490 0.025212 0
-0.010881 0.026871 0
-0.011366 0.028349 0
-0.011955 0.029758 0
-0.012651 0.031186 0
-0.013451 0.032699 0
-0.014345 0.034347 0
-0.015323 0.036168 0
-0.016371 0.038193 0
-0.017473 0.040447 0
-0.018610 0.042949 0
-0.019759 0.045714 0
-0.020894 0.048750 0
-0.021983 0.052053 0
-0.022989 0.055601 0
-0.023872 0.059344 0
-0.024586 0.063185 0
-0.025082 0.066957 0
-0.025311 0.070383 0
-0.025229 0.073035 0
-0.024796 0.074265 0
-0.023993 0.073131 0
-0.022816 0.068309 0
-0.021288 0.057997 0
-0.019456 0.039811 0
-0.017377 0.010687 0
-0.015113 -0.033183 0
-0.012706 -0.096434 0
-0.010141 -0.184518 0
-0.007311 -0.301599 0
-0.003809 -0.416642 0
-0.000035 -0.000463 0
0.000000 0.232327 0
0.000000 -0.000021 0
-0.003062 -0.017283 0
-0.005312 -0.007731 0
-0.006790 0.001277 0
-0.007745 0.008295 0
-0.008354 0.013684 0
-0.008753 0.017817 0
-0.009041 0.021004 0
-0.009294 0.023506 0
-0.009562 0.025536 0
-0.009881 0.027266 0
-0.010270 0.028830 0
-0.010739 0.030333 0
-0.011292 0.031854 0
-0.011926 0.033455 0
-0.012634 0.035181 0
-0.013405 0.037069 0
-0.014229 0.039147 0
-0.015089 0.041436 0
-0.015967 0.043953 0
-0.016843 0.046709 0
-0.017693 0.049708 0
-0.018488 0.052942 0
-0.019196 0.056385 0
-0.019783 0.059983 0
-0.020209 0.063636 0
-0.020435 0.067176 0
-0.020424 0.070330 0
-0.020144 0.072675 0
-0.019570 0.073577 0
-0.018696 0.072111 0
-0.017531 0.066975 0
-0.016110 0.056387 0
-0.014484 0.037982 0
-0.012720 0.008704 0
-0.010885 -0.035265 0
-0.009028 -0.098595 0
-0.007146 -0.186807 0
-0.005157 -0.304252 0
-0.002705 -0.419706 0
-0.000026 -0.000466 0
0.000000 0.233924 0
0.000000 -0.000017 0
-0.002823 -0.014727 0
-0.004814 -0.005991 0
-0.006104 0.002405 0
-0.006939 0.009024 0
-0.007478 0.014159 0
-0.007832 0.018141 0
-0.008085 0.021257 0
-0.008298 0.023744 0
-0.008514 0.025799 0
-0.008762 0.027579 0
-0.009060 0.029207 0
-0.009417 0.030781 0
-0.009837 0.032373 0
-0.010316 0.034041 0
-0.010851 0.035827 0
-0.011432 0.037763 0
-0.012047 0.039877 0
-0.012685 0.042185 0
-0.013328 0.044704 0
-0.013958 0.047440 0
-0.014553 0.050395 0
-0.015090 0.053556 0
-0.015541 0.056895 0
-0.015877 0.060356 0
-0.016066 0.063838 0
-0.016079 0.067172 0
-0.015888 0.070092 0
-0.015470 0.072181 0
-0.014815 0.072817 0
-0.013924 0.071092 0
-0.012817 0.065724 0
-0.011536 0.054951 0
-0.010136 0.036422 0
-0.008688 0.007088 0
-0.007259 -0.036876 0
-0.005902 -0.100174 0
-0.004624 -0.188389 0
-0.003361 -0.306041 0
-0.001795 -0.421799 0
-0.000019 -0.000466 0
0.000000 0.235028 0
0.000000 -0.000013 0
-0.002381 -0.012469 0
-0.004142 -0.004450 0
-0.005297 0.003403 0
-0.006043 0.009669 0
-0.006523 0.014578 0
-0.006834 0.018425 0
-0.007048 0.021470 0
-0.007218 0.023935 0
-0.007379 0.026000 0
-0.007557 0.027812 0
-0.007767 0.029485 0
-0.008017 0.031110 0
-0.008310 0.032753 0
-0.008645 0.034469 0
-0.009018 0.036296 0
-0.009420 0.038266 0
-0.009843 0.040400 0
-0.010275 0.042716 0
-0.010702 0.045226 0
-0.011109 0.047935 0
-0.011476 0.050840 0
-0.011785 0.053930 0
-0.012012 0.057172 0
-0.012134 0.060508 0
-0.012127 0.063838 0
-0.011970 0.066997 0
-0.011642 0.069721 0
-0.011131 0.071602 0
-0.010435 0.072031 0
-0.009563 0.070114 0
-0.008544 0.064587 0
-0.007421 0.053706 0
-0.006255 0.035134 0
-0.005113 0.005826 0
-0.004066 -0.038051 0
-0.003166 -0.101230 0
-0.002427 -0.189348 0
-0.001805 -0.307080 0
-0.001022 -0.423067 0
-0.000014 -0.000466 0
0.000000 0.235719 0
0.000000 -0.000010 0
-0.001888 -0.010585 0
-0.003404 -0.003075 0
-0.004429 0.004306 0
-0.005096 0.010250 0
-0.005520 0.014949 0
-0.005787 0.018667 0
-0.005959 0.021641 0
-0.006082 0.024075 0
-0.006187 0.026138 0
-0.006294 0.027966 0
-0.006417 0.029667 0
-0.006563 0.031324 0
-0.006735 0.033002 0
-0.006933 0.034748 0
-0.007152 0.036601 0
-0.007386 0.038589 0
-0.007629 0.040732 0
-0.007870 0.043045 0
-0.008098 0.045538 0
-0.008300 0.048214 0
-0.008462 0.051071 0
-0.008566 0.054091 0
-0.008596 0.057245 0
-0.008533 0.060472 0
-0.008361 0.063674 0
-0.008065 0.066687 0
-0.007632 0.069253 0
-0.007058 0.070974 0
-0.006349 0.071249 0
-0.005520 0.069201 0
-0.004604 0.063582 0
-0.003649 0.052661 0
-0.002715 0.034114 0
-0.001869 0.004900 0
-0.001179 -0.038823 0
-0.000696 -0.101813 0
-0.000445 -0.189749 0
-0.000401 -0.307447 0
-0.000340 -0.423604 0
-0.000011 -0.000464 0
0.000000 0.236052 0
0.000000 -0.000008 0
-0.001473 -0.009065 0
-0.002713 -0.001908 0
-0.003578 0.005095 0
-0.004147 0.010760 0
-0.004505 0.015269 0
-0.004720 0.018864 0
-0.004845 0.021765 0
-0.004916 0.024162 0
-0.004960 0.026212 0
-0.004995 0.028042 0
-0.005032 0.029755 0
-0.005076 0.031428 0
-0.005131 0.033123 0
-0.005196 0.034885 0
-0.005268 0.036750 0
-0.005344 0.038743 0
-0.005416 0.040884 0
-0.005478 0.043185 0
-0.005521 0.045656 0
-0.005534 0.048298 0
-0.005506 0.051106 0
-0.005425 0.054064 0
-0.005278 0.057139 0
-0.005053 0.060274 0
-0.004738 0.063370 0
-0.004325 0.066268 0
-0.003809 0.068714 0
-0.003193 0.070319 0
-0.002486 0.070492 0
-0.001713 0.068369 0
-0.000908 0.062716 0
-0.000121 0.051817 0
0.000588 0.033354 0
0.001152 0.004291 0
0.001504 -0.039223 0
0.001592 -0.101964 0
0.001387 -0.189644 0
0.000895 -0.307185 0
0.000283 -0.423468 0
-0.000008 -0.000461 0
0.000000 0.236064 0
0.000000 -0.000006 0
-0.001138 -0.007872 0
-0.002101 -0.000970 0
-0.002781 0.005741 0
-0.003230 0.011177 0
-0.003505 0.015522 0
-0.003657 0.019007 0
-0.003726 0.021837 0
-0.003740 0.024191 0
-0.003720 0.026218 0
-0.003681 0.028038 0
-0.003630 0.029748 0
-0.003573 0.031423 0
-0.003513 0.033121 0
-0.003449 0.034886 0
-0.003380 0.036749 0
-0.003303 0.038737 0
-0.003214 0.040866 0
-0.003106 0.043149 0
-0.002974 0.045593 0
-0.002810 0.048199 0
-0.002605 0.050961 0
-0.002353 0.053863 0
-0.002044 0.056873 0
-0.001671 0.059932 0
-0.001228 0.062946 0
-0.000713 0.065758 0
-0.000128 0.068121 0
0.000521 0.069651 0
0.001217 0.069769 0
0.001931 0.067623 0
0.002626 0.061989 0
0.003251 0.051165 0
0.003743 0.032842 0
0.004035 0.003985 0
0.004060 -0.039264 0
0.003761 -0.101696 0
0.003105 -0.189053 0
0.002094 -0.306343 0
0.000867 -0.422709 0
-0.000005 -0.000458 0
0.000000 0.235776 0
0.000000 -0.000004 0
-0.000858 -0.006965 0
-0.001556 -0.000266 0
-0.002042 0.006224 0
-0.002355 0.011483 0
-0.002535 0.015696 0
-0.002614 0.019085 0
-0.002620 0.021848 0
-0.002571 0.024157 0
-0.002484 0.026152 0
-0.002367 0.027952 0
-0.002228 0.029647 0
-0.002070 0.031311 0
-0.001896 0.032999 0
-0.001706 0.034753 0
-0.001500 0.036604 0
-0.001275 0.038577 0
-0.001029 0.040687 0
-0.000759 0.042945 0
-0.000459 0.045359 0
-0.000126 0.047929 0
0.000246 0.050649 0
0.000661 0.053502 0
0.001122 0.056457 0
0.001634 0.059459 0
0.002196 0.062413 0
0.002805 0.065167 0
0.003456 0.067480 0
0.004135 0.068975 0
0.004820 0.069082 0
0.005479 0.066959 0
0.006071 0.061396 0
0.006541 0.050700 0
0.006825 0.032570 0
0.006852 0.003975 0
0.006554 -0.038949 0
0.005871 -0.101010 0
0.004763 -0.187976 0
0.003231 -0.304947 0
0.001420 -0.421374 0
-0.000003 -0.000453 0
0.000000 0.235206 0
0.000000 -0.000003 0
-0.000600 -0.006316 0
-0.001049 0.000213 0
-0.001345 0.006540 0
-0.001521 0.011670 0
-0.001601 0.015781 0
-0.001602 0.019091 0
-0.001539 0.021794 0
-0.001424 0.024055 0
-0.001265 0.026013 0
-0.001069 0.027782 0
-0.000840 0.029451 0
-0.000582 0.031092 0
-0.000294 0.032757 0
0.000020 0.034490 0
0.000362 0.036318 0
0.000731 0.038266 0
0.001130 0.040350 0
0.001560 0.042579 0
0.002022 0.044960 0
0.002519 0.047494 0
0.003053 0.050175 0
0.003625 0.052987 0
0.004235 0.055900 0
0.004881 0.058859 0
0.005560 0.061774 0
0.006265 0.064497 0
0.006982 0.066791 0
0.007694 0.068288 0
0.008375 0.068425 0
0.008988 0.066372 0
0.009486 0.060928 0
0.009812 0.050412 0
0.009897 0.032530 0
0.009668 0.004255 0
0.009052 -0.038283 0
0.007983 -0.099904 0
0.006419 -0.186412 0
0.004361 -0.303001 0
0.001964 -0.419478 0
-0.000002 -0.000448 0
0.000000 0.234365 0
0.000000 -0.000002 0
-0.000336 -0.005916 0
-0.000555 0.000480 0
-0.000677 0.006697 0
-0.000723 0.011739 0
-0.000704 0.015776 0
-0.000626 0.019023 0
-0.000494 0.021671 0
-0.000310 0.023883 0
-0.000079 0.025798 0
0.000198 0.027527 0
0.000519 0.029159 0
0.000880 0.030765 0
0.001281 0.032397 0
0.001720 0.034097 0
0.002196 0.035893 0
0.002709 0.037808 0
0.003259 0.039858 0
0.003845 0.042053 0
0.004468 0.044400 0
0.005127 0.046898 0
0.005821 0.049543 0
0.006549 0.052321 0
0.007307 0.055201 0
0.008090 0.058133 0
0.008889 0.061029 0
0.009693 0.063745 0
0.010485 0.066050 0
0.011240 0.067582 0
0.011928 0.067788 0
0.012508 0.065848 0
0.012927 0.060572 0
0.013123 0.050289 0
0.013022 0.032713 0
0.012545 0.004820 0
0.011613 -0.037264 0
0.010156 -0.098377 0
0.008126 -0.184354 0
0.005525 -0.300492 0
0.002520 -0.417013 0
-0.000001 -0.000441 0
0.000000 0.233253 0
0.000000 -0.000002 0
-0.000063 -0.005761 0
-0.000069 0.000554 0
-0.000031 0.006709 0
0.000042 0.011698 0
0.000152 0.015684 0
0.000306 0.018881 0
0.000506 0.021478 0
0.000759 0.023640 0
0.001064 0.025504 0
0.001424 0.027184 0
0.001837 0.028770 0
0.002302 0.030330 0
0.002817 0.031918 0
0.003382 0.033574 0
0.003993 0.035329 0
0.004650 0.037204 0
0.005351 0.039213 0
0.006094 0.041370 0
0.006878 0.043678 0
0.007699 0.046141 0
0.008556 0.048753 0
0.009442 0.051501 0
0.010352 0.054359 0
0.011277 0.057277 0
0.012204 0.060171 0
0.013118 0.062902 0