# vtk DataFile Version 2.0
generated by CFD-lab course output (written by Tobias Neckel) 
ASCII

DATASET STRUCTURED_GRID
DIMENSIONS  42 42 1 
POINTS 1764 float

0.150000 0.150000 0
0.167857 0.150000 0
0.185714 0.150000 0
0.203571 0.150000 0
0.221429 0.150000 0
0.239286 0.150000 0
0.257143 0.150000 0
0.275000 0.150000 0
0.292857 0.150000 0
0.310714 0.150000 0
0.328571 0.150000 0
0.346429 0.150000 0
0.364286 0.150000 0
0.382143 0.150000 0
0.400000 0.150000 0
0.417857 0.150000 0
0.435714 0.150000 0
0.453571 0.150000 0
0.471429 0.150000 0
0.489286 0.150000 0
0.507143 0.150000 0
0.525000 0.150000 0
0.542857 0.150000 0
0.560714 0.150000 0
0.578571 0.150000 0
0.596429 0.150000 0
0.614286 0.150000 0
0.632143 0.150000 0
0.650000 0.150000 0
0.667857 0.150000 0
0.685714 0.150000 0
0.703571 0.150000 0
0.721429 0.150000 0
0.739286 0.150000 0
0.757143 0.150000 0
0.775000 0.150000 0
0.792857 0.150000 0
0.810714 0.150000 0
0.828571 0.150000 0
0.846429 0.150000 0
0.864286 0.150000 0
0.882143 0.150000 0
0.150000 0.167857 0
0.167857 0.167857 0
0.185714 0.167857 0
0.203571 0.167857 0
0.221429 0.167857 0
0.239286 0.167857 0
0.257143 0.167857 0
0.275000 0.167857 0
0.292857 0.167857 0
0.310714 0.167857 0
0.328571 0.167857 0
0.346429 0.167857 0
0.364286 0.167857 0
0.382143 0.167857 0
0.400000 0.167857 0
0.417857 0.167857 0
0.435714 0.167857 0
0.453571 0.167857 0
0.471429 0.167857 0
0.489286 0.167857 0
0.507143 0.167857 0
0.525000 0.167857 0
0.542857 0.167857 0
0.560714 0.167857 0
0.578571 0.167857 0
0.596429 0.167857 0
0.614286 0.167857 0
0.632143 0.167857 0
0.650000 0.167857 0
0.667857 0.167857 0
0.685714 0.167857 0
0.703571 0.167857 0
0.721429 0.167857 0
0.739286 0.167857 0
0.757143 0.167857 0
0.775000 0.167857 0
0.792857 0.167857 0
0.810714 0.167857 0
0.828571 0.167857 0
0.846429 0.167857 0
0.864286 0.167857 0
0.882143 0.167857 0
0.150000 0.185714 0
0.167857 0.185714 0
0.185714 0.185714 0
0.203571 0.185714 0
0.221429 0.185714 0
0.239286 0.185714 0
0.257143 0.185714 0
0.275000 0.185714 0
0.292857 0.185714 0
0.310714 0.185714 0
0.328571 0.185714 0
0.346429 0.185714 0
0.364286 0.185714 0
0.382143 0.185714 0
0.400000 0.185714 0
0.417857 0.185714 0
0.435714 0.185714 0
0.453571 0.185714 0
0.471429 0.185714 0
0.489286 0.185714 0
0.507143 0.185714 0
0.525000 0.185714 0
0.542857 0.185714 0
0.560714 0.185714 0
0.578571 0.185714 0
0.596429 0.185714 0
0.614286 0.185714 0
0.632143 0.185714 0
0.650000 0.185714 0
0.667857 0.185714 0
0.685714 0.185714 0
0.703571 0.185714 0
0.721429 0.185714 0
0.739286 0.185714 0
0.757143 0.185714 0
0.775000 0.185714 0
0.792857 0.185714 0
0.810714 0.185714 0
0.828571 0.185714 0
0.846429 0.185714 0
0.864286 0.185714 0
0.882143 0.185714 0
0.150000 0.203571 0
0.167857 0.203571 0
0.185714 0.203571 0
0.203571 0.203571 0
0.221429 0.203571 0
0.239286 0.203571 0
0.257143 0.203571 0
0.275000 0.203571 0
0.292857 0.203571 0
0.310714 0.203571 0
0.328571 0.203571 0
0.346429 0.203571 0
0.364286 0.203571 0
0.382143 0.203571 0
0.400000 0.203571 0
0.417857 0.203571 0
0.435714 0.203571 0
0.453571 0.203571 0
0.471429 0.203571 0
0.489286 0.203571 0
0.507143 0.203571 0
0.525000 0.203571 0
0.542857 0.203571 0
0.560714 0.203571 0
0.578571 0.203571 0
0.596429 0.203571 0
0.614286 0.203571 0
0.632143 0.203571 0
0.650000 0.203571 0
0.667857 0.203571 0
0.685714 0.203571 0
0.703571 0.203571 0
0.721429 0.203571 0
0.739286 0.203571 0
0.757143 0.203571 0
0.775000 0.203571 0
0.792857 0.203571 0
0.810714 0.203571 0
0.828571 0.203571 0
0.846429 0.203571 0
0.864286 0.203571 0
0.882143 0.203571 0
0.150000 0.221429 0
0.167857 0.221429 0
0.185714 0.221429 0
0.203571 0.221429 0
0.221429 0.221429 0
0.239286 0.221429 0
0.257143 0.221429 0
0.275000 0.221429 0
0.292857 0.221429 0
0.310714 0.221429 0
0.328571 0.221429 0
0.346429 0.221429 0
0.364286 0.221429 0
0.382143 0.221429 0
0.400000 0.221429 0
0.417857 0.221429 0
0.435714 0.221429 0
0.453571 0.221429 0
0.471429 0.221429 0
0.489286 0.221429 0
0.507143 0.221429 0
0.525000 0.221429 0
0.542857 0.221429 0
0.560714 0.221429 0
0.578571 0.221429 0
0.596429 0.221429 0
0.614286 0.221429 0
0.632143 0.221429 0
0.650000 0.221429 0
0.667857 0.221429 0
0.685714 0.221429 0
0.703571 0.221429 0
0.721429 0.221429 0
0.739286 0.221429 0
0.757143 0.221429 0
0.775000 0.221429 0
0.792857 0.221429 0
0.810714 0.221429 0
0.828571 0.221429 0
0.846429 0.221429 0
0.864286 0.221429 0
0.882143 0.221429 0
0.150000 0.239286 0
0.167857 0.239286 0
0.185714 0.239286 0
0.203571 0.239286 0
0.221429 0.239286 0
0.239286 0.239286 0
0.257143 0.239286 0
0.275000 0.239286 0
0.292857 0.239286 0
0.310714 0.239286 0
0.328571 0.239286 0
0.346429 0.239286 0
0.364286 0.239286 0
0.382143 0.239286 0
0.400000 0.239286 0
0.417857 0.239286 0
0.435714 0.239286 0
0.453571 0.239286 0
0.471429 0.239286 0
0.489286 0.239286 0
0.507143 0.239286 0
0.525000 0.239286 0
0.542857 0.239286 0
0.560714 0.239286 0
0.578571 0.239286 0
0.596429 0.239286 0
0.614286 0.239286 0
0.632143 0.239286 0
0.650000 0.239286 0
0.667857 0.239286 0
0.685714 0.239286 0
0.703571 0.239286 0
0.721429 0.239286 0
0.739286 0.239286 0
0.757143 0.239286 0
0.775000 0.239286 0
0.792857 0.239286 0
0.810714 0.239286 0
0.828571 0.239286 0
0.846429 0.239286 0
0.864286 0.239286 0
0.882143 0.239286 0
0.150000 0.257143 0
0.167857 0.257143 0
0.185714 0.257143 0
0.203571 0.257143 0
0.221429 0.257143 0
0.239286 0.257143 0
0.257143 0.257143 0
0.275000 0.257143 0
0.292857 0.257143 0
0.310714 0.257143 0
0.328571 0.257143 0
0.346429 0.257143 0
0.364286 0.257143 0
0.382143 0.257143 0
0.400000 0.257143 0
0.417857 0.257143 0
0.435714 0.257143 0
0.453571 0.257143 0
0.471429 0.257143 0
0.489286 0.257143 0
0.507143 0.257143 0
0.525000 0.257143 0
0.542857 0.257143 0
0.560714 0.257143 0
0.578571 0.257143 0
0.596429 0.257143 0
0.614286 0.257143 0
0.632143 0.257143 0
0.650000 0.257143 0
0.667857 0.257143 0
0.685714 0.257143 0
0.703571 0.257143 0
0.721429 0.257143 0
0.739286 0.257143 0
0.757143 0.257143 0
0.775000 0.257143 0
0.792857 0.257143 0
0.810714 0.257143 0
0.828571 0.257143 0
0.846429 0.257143 0
0.864286 0.257143 0
0.882143 0.257143 0
0.150000 0.275000 0
0.167857 0.275000 0
0.185714 0.275000 0
0.203571 0.275000 0
0.221429 0.275000 0
0.239286 0.275000 0
0.257143 0.275000 0
0.275000 0.275000 0
0.292857 0.275000 0
0.310714 0.275000 0
0.328571 0.275000 0
0.346429 0.275000 0
0.364286 0.275000 0
0.382143 0.275000 0
0.400000 0.275000 0
0.417857 0.275000 0
0.435714 0.275000 0
0.453571 0.275000 0
0.471429 0.275000 0
0.489286 0.275000 0
0.507143 0.275000 0
0.525000 0.275000 0
0.542857 0.275000 0
0.560714 0.275000 0
0.578571 0.275000 0
0.596429 0.275000 0
0.614286 0.275000 0
0.632143 0.275000 0
0.650000 0.275000 0
0.667857 0.275000 0
0.685714 0.275000 0
0.703571 0.275000 0
0.721429 0.275000 0
0.739286 0.275000 0
0.757143 0.275000 0
0.775000 0.275000 0
0.792857 0.275000 0
0.810714 0.275000 0
0.828571 0.275000 0
0.846429 0.275000 0
0.864286 0.275000 0
0.882143 0.275000 0
0.150000 0.292857 0
0.167857 0.292857 0
0.185714 0.292857 0
0.203571 0.292857 0
0.221429 0.292857 0
0.239286 0.292857 0
0.257143 0.292857 0
0.275000 0.292857 0
0.292857 0.292857 0
0.310714 0.292857 0
0.328571 0.292857 0
0.346429 0.292857 0
0.364286 0.292857 0
0.382143 0.292857 0
0.400000 0.292857 0
0.417857 0.292857 0
0.435714 0.292857 0
0.453571 0.292857 0
0.471429 0.292857 0
0.489286 0.292857 0
0.507143 0.292857 0
0.525000 0.292857 0
0.542857 0.292857 0
0.560714 0.292857 0
0.578571 0.292857 0
0.596429 0.292857 0
0.614286 0.292857 0
0.632143 0.292857 0
0.650000 0.292857 0
0.667857 0.292857 0
0.685714 0.292857 0
0.703571 0.292857 0
0.721429 0.292857 0
0.739286 0.292857 0
0.757143 0.292857 0
0.775000 0.292857 0
0.792857 0.292857 0
0.810714 0.292857 0
0.828571 0.292857 0
0.846429 0.292857 0
0.864286 0.292857 0
0.882143 0.292857 0
0.150000 0.310714 0
0.167857 0.310714 0
0.185714 0.310714 0
0.203571 0.310714 0
0.221429 0.310714 0
0.239286 0.310714 0
0.257143 0.310714 0
0.275000 0.310714 0
0.292857 0.310714 0
0.310714 0.310714 0
0.328571 0.310714 0
0.346429 0.310714 0
0.364286 0.310714 0
0.382143 0.310714 0
0.400000 0.310714 0
0.417857 0.310714 0
0.435714 0.310714 0
0.453571 0.310714 0
0.471429 0.310714 0
0.489286 0.310714 0
0.507143 0.310714 0
0.525000 0.310714 0
0.542857 0.310714 0
0.560714 0.310714 0
0.578571 0.310714 0
0.596429 0.310714 0
0.614286 0.310714 0
0.632143 0.310714 0
0.650000 0.310714 0
0.667857 0.310714 0
0.685714 0.310714 0
0.703571 0.310714 0
0.721429 0.310714 0
0.739286 0.310714 0
0.757143 0.310714 0
0.775000 0.310714 0
0.792857 0.310714 0
0.810714 0.310714 0
0.828571 0.310714 0
0.846429 0.310714 0
0.864286 0.310714 0
0.882143 0.310714 0
0.150000 0.328571 0
0.167857 0.328571 0
0.185714 0.328571 0
0.203571 0.328571 0
0.221429 0.328571 0
0.239286 0.328571 0
0.257143 0.328571 0
0.275000 0.328571 0
0.292857 0.328571 0
0.310714 0.328571 0
0.328571 0.328571 0
0.346429 0.328571 0
0.364286 0.328571 0
0.382143 0.328571 0
0.400000 0.328571 0
0.417857 0.328571 0
0.435714 0.328571 0
0.453571 0.328571 0
0.471429 0.328571 0
0.489286 0.328571 0
0.507143 0.328571 0
0.525000 0.328571 0
0.542857 0.328571 0
0.560714 0.328571 0
0.578571 0.328571 0
0.596429 0.328571 0
0.614286 0.328571 0
0.632143 0.328571 0
0.650000 0.328571 0
0.667857 0.328571 0
0.685714 0.328571 0
0.703571 0.328571 0
0.721429 0.328571 0
0.739286 0.328571 0
0.757143 0.328571 0
0.775000 0.328571 0
0.792857 0.328571 0
0.810714 0.328571 0
0.828571 0.328571 0
0.846429 0.328571 0
0.864286 0.328571 0
0.882143 0.328571 0
0.150000 0.346429 0
0.167857 0.346429 0
0.185714 0.346429 0
0.203571 0.346429 0
0.221429 0.346429 0
0.239286 0.346429 0
0.257143 0.346429 0
0.275000 0.346429 0
0.292857 0.346429 0
0.310714 0.346429 0
0.328571 0.346429 0
0.346429 0.346429 0
0.364286 0.346429 0
0.382143 0.346429 0
0.400000 0.346429 0
0.417857 0.346429 0
0.435714 0.346429 0
0.453571 0.346429 0
0.471429 0.346429 0
0.489286 0.346429 0
0.507143 0.346429 0
0.525000 0.346429 0
0.542857 0.346429 0
0.560714 0.346429 0
0.578571 0.346429 0
0.596429 0.346429 0
0.614286 0.346429 0
0.632143 0.346429 0
0.650000 0.346429 0
[...]
POINT_DATA 1764 

VECTORS velocity float
0.000000 0.000000 0
-0.000002 0.000000 0
-0.000003 0.000000 0
-0.000003 0.000000 0
-0.000002 0.000000 0
-0.000002 0.000000 0
-0.000002 0.000000 0
-0.000001 0.000000 0
-0.000003 0.000000 0
-0.000004 0.000000 0
0.000002 0.000000 0
0.000005 0.000000 0
0.000007 0.000000 0
0.000009 0.000000 0
0.000010 0.000000 0
0.000010 0.000000 0
0.000010 0.000000 0
0.000011 0.000000 0
0.000011 0.000000 0
0.000011 0.000000 0
0.000010 0.000000 0
0.000010 0.000000 0
0.000010 0.000000 0
0.000010 0.000000 0
0.000011 0.000000 0
0.000011 0.000000 0
0.000011 0.000000 0
0.000011 0.000000 0
0.000011 0.000000 0
0.000011 0.000000 0
0.000011 0.000000 0
0.000011 0.000000 0
0.000011 0.000000 0
0.000011 0.000000 0
0.000010 0.000000 0
0.000009 0.000000 0
0.000008 0.000000 0
0.000005 0.000000 0
0.000001 0.000000 0
-0.000001 0.000000 0
-0.000000 0.000000 0
0.000000 0.000000 0
0.000000 0.000002 0
0.028400 -0.026186 0
0.053042 -0.017569 0
0.063885 -0.003748 0
0.062477 0.006092 0
0.053323 0.009554 0
0.044877 0.008534 0
0.038806 0.004151 0
0.024040 -0.007620 0
0.001637 -0.004162 0
-0.025982 0.018576 0
-0.060284 0.033347 0
-0.097491 0.037513 0
-0.134259 0.037229 0
-0.168848 0.035385 0
-0.200198 0.032423 0
-0.227811 0.028941 0
-0.251562 0.025311 0
-0.271571 0.021770 0
-0.288084 0.018444 0
-0.301398 0.015379 0
-0.311801 0.012561 0
-0.319529 0.009943 0
-0.324747 0.007437 0
-0.327515 0.004927 0
-0.327788 0.002291 0
-0.325424 -0.000606 0
-0.320238 -0.003895 0
-0.311923 -0.007635 0
-0.300067 -0.011858 0
-0.284167 -0.016668 0
-0.263636 -0.022144 0
-0.237849 -0.028286 0
-0.206227 -0.034952 0
-0.168428 -0.041702 0
-0.124722 -0.047542 0
-0.076708 -0.050333 0
-0.028725 -0.044687 0
0.009589 -0.014930 0
0.019694 0.016427 0
0.000004 -0.000001 0
0.000000 -0.011972 0
0.000000 0.000003 0
0.026332 -0.053042 0
0.046353 -0.035486 0
0.054422 -0.009435 0
0.052529 0.010563 0
0.041472 0.017600 0
0.023488 0.014517 0
-0.001855 0.020837 0
-0.038854 0.037169 0
-0.091172 0.050022 0
-0.135582 0.061920 0
-0.172239 0.071508 0
-0.205266 0.073975 0
-0.235638 0.071357 0
-0.262422 0.065939 0
-0.285389 0.058963 0
-0.304543 0.051365 0
-0.320090 0.043760 0
-0.332338 0.036522 0
-0.341632 0.029828 0
-0.348300 0.023717 0
-0.352622 0.018131 0
-0.354811 0.012945 0
-0.354993 0.007985 0
-0.353224 0.003041 0
-0.349469 -0.002091 0
-0.343720 -0.007550 0
-0.335813 -0.013500 0
-0.325540 -0.020171 0
-0.312542 -0.027757 0
-0.296388 -0.036431 0
-0.276603 -0.046318 0
-0.252681 -0.057409 0
-0.224160 -0.069420 0
-0.190746 -0.081505 0
-0.152584 -0.091721 0
-0.110766 -0.095997 0
-0.068078 -0.086296 0
-0.028841 -0.048418 0
0.006774 0.009589 0
0.000011 -0.000002 0
0.000000 -0.019696 0
0.000000 0.000004 0
0.017215 -0.072539 0
0.026148 -0.045659 0
0.024444 -0.009924 0
0.011227 0.019042 0
-0.008793 0.038595 0
-0.040651 0.051862 0
-0.083840 0.066492 0
-0.125702 0.081697 0
-0.164867 0.092567 0
-0.200884 0.099643 0
-0.230246 0.103031 0
-0.254224 0.100912 0
-0.274075 0.094384 0
-0.290178 0.085136 0
-0.302942 0.074544 0
-0.312779 0.063643 0
-0.320106 0.053106 0
-0.325309 0.043312 0
-0.328720 0.034406 0
-0.330604 0.026369 0
-0.331157 0.019071 0
-0.330504 0.012314 0
-0.328703 0.005850 0
-0.325765 -0.000596 0
-0.321674 -0.007213 0
-0.316350 -0.014262 0
-0.309567 -0.022076 0
-0.301073 -0.030906 0
-0.290572 -0.041010 0
-0.277725 -0.052607 0
-0.262173 -0.065851 0
-0.243541 -0.080729 0
-0.221457 -0.096887 0
-0.195596 -0.113278 0
-0.165765 -0.127522 0
-0.132052 -0.134839 0
-0.094974 -0.126612 0
-0.055380 -0.089782 0
-0.014157 -0.012414 0
0.000007 0.000002 0
0.000000 -0.018742 0
0.000000 0.000003 0
0.002190 -0.079190 0
-0.006205 -0.042715 0
-0.022584 0.005486 0
-0.045238 0.043800 0
-0.072484 0.069478 0
-0.105692 0.089564 0
-0.141861 0.105888 0
-0.175783 0.118197 0
-0.205621 0.125204 0
-0.231285 0.127299 0
-0.251165 0.124849 0
-0.265902 0.117804 0
-0.276586 0.107311 0
-0.284078 0.094806 0
-0.289104 0.081564 0
-0.292253 0.068529 0
-0.293993 0.056290 0
-0.294674 0.045135 0
-0.294552 0.035123 0
-0.293794 0.026154 0
-0.292499 0.018031 0
-0.290708 0.010492 0
-0.288411 0.003246 0
-0.285561 -0.003988 0
-0.282152 -0.011506 0
-0.277940 -0.019656 0
-0.272754 -0.028777 0
-0.266364 -0.039167 0
-0.258532 -0.051105 0
-0.249009 -0.064829 0
-0.237553 -0.080502 0
-0.223917 -0.098126 0
-0.207833 -0.117365 0
-0.188964 -0.137197 0
-0.166839 -0.155265 0
-0.140769 -0.166788 0
-0.109836 -0.162968 0
-0.073278 -0.129236 0
-0.032690 -0.045791 0
-0.000024 0.000007 0
0.000000 -0.005530 0
0.000000 0.000001 0
-0.015148 -0.066334 0
-0.039620 -0.020885 0
-0.066374 0.029109 0
-0.090656 0.068942 0
-0.117866 0.099049 0
-0.146722 0.121239 0
-0.174998 0.136583 0
-0.200222 0.145457 0
-0.221146 0.148069 0
-0.237502 0.145187 0
-0.248865 0.137648 0
-0.255900 0.126332 0
-0.259601 0.112560 0
-0.260906 0.097653 0
-0.260595 0.082720 0
-0.259264 0.068531 0
-0.257342 0.055527 0
-0.255121 0.043871 0
-0.252786 0.033525 0
-0.250443 0.024316 0
-0.248132 0.015985 0
-0.245848 0.008226 0
-0.243548 0.000703 0
-0.241160 -0.006855 0
-0.238571 -0.014833 0
-0.235570 -0.023660 0
-0.231966 -0.033652 0
-0.227546 -0.045128 0
-0.222096 -0.058365 0
-0.215425 -0.073586 0
-0.207375 -0.090943 0
-0.197810 -0.110449 0
-0.186576 -0.131840 0
-0.173392 -0.154272 0
-0.157682 -0.175717 0
-0.138331 -0.191842 0
-0.113514 -0.194103 0
-0.081039 -0.166929 0
-0.040393 -0.085692 0
-0.000057 0.000009 0
0.000000 0.013955 0
0.000000 -0.000001 0
-0.028008 -0.039571 0
-0.061469 0.008512 0
-0.090372 0.056523 0
-0.116930 0.095292 0
-0.142529 0.125544 0
-0.166647 0.146696 0
-0.188128 0.159388 0
-0.205820 0.164345 0
-0.219129 0.162484 0
-0.228015 0.155017 0
-0.232679 0.143247 0
-0.233883 0.128540 0
-0.232547 0.112316 0
-0.229544 0.095800 0
-0.225589 0.079923 0
-0.221219 0.065276 0
-0.216820 0.052146 0
-0.212649 0.040579 0
-0.208862 0.030445 0
-0.205538 0.021501 0
-0.202692 0.013436 0
-0.200294 0.005907 0
-0.198281 -0.001442 0
-0.196580 -0.008965 0
-0.194953 -0.017096 0
-0.193240 -0.026261 0
-0.191218 -0.036801 0
-0.188657 -0.049037 0
-0.185329 -0.063225 0
-0.181046 -0.079550 0
-0.175687 -0.098116 0
-0.169193 -0.118925 0
-0.161507 -0.141784 0
-0.152465 -0.166091 0
-0.141559 -0.190326 0
-0.127579 -0.210956 0
-0.108242 -0.220260 0
-0.080296 -0.202356 0
-0.041527 -0.126830 0
-0.000080 0.000011 0
0.000000 0.034867 0
0.000000 -0.000003 0
-0.035337 -0.004865 0
-0.070862 0.041479 0
-0.100539 0.084570 0
-0.127222 0.121099 0
-0.150607 0.148766 0
-0.170533 0.166838 0
-0.186549 0.175756 0
-0.198276 0.176458 0
-0.205649 0.170263 0
-0.208947 0.158737 0
-0.208698 0.143516 0
-0.205706 0.126201 0
-0.200810 0.108222 0
-0.194780 0.090695 0
-0.188247 0.074395 0
-0.181704 0.059763 0
-0.175521 0.046956 0
-0.169960 0.035913 0
-0.165183 0.026415 0
-0.161268 0.018146 0
-0.158216 0.010741 0
-0.155974 0.003815 0
-0.154455 -0.003011 0
-0.153554 -0.010183 0
-0.153033 -0.018173 0
-0.152710 -0.027395 0
-0.152336 -0.038234 0
-0.151632 -0.051017 0
-0.150309 -0.065976 0
-0.148129 -0.083228 0
-0.144966 -0.102796 0
-0.140792 -0.124629 0
-0.135624 -0.148567 0
-0.129418 -0.174220 0
-0.121845 -0.200604 0
-0.111886 -0.225158 0
-0.097279 -0.241385 0
-0.074315 -0.233644 0
-0.039643 -0.165988 0
-0.000096 0.000012 0
0.000000 0.055484 0
0.000000 -0.000004 0
-0.036722 0.031291 0
-0.070727 0.073714 0
-0.100553 0.112883 0
-0.126000 0.145361 0
-0.146890 0.168855 0
-0.163226 0.182638 0
-0.174972 0.187131 0
-0.182210 0.183445 0
-0.185234 0.173155 0
-0.184558 0.158066 0
-0.180859 0.140005 0
-0.174920 0.120652 0
-0.167491 0.101391 0
-0.159249 0.083237 0
-0.150768 0.066847 0
-0.142536 0.052550 0
-0.134951 0.040402 0
-0.128318 0.030241 0
-0.122834 0.021753 0
-0.118583 0.014533 0
-0.115553 0.008142 0
-0.113664 0.002147 0
-0.112792 -0.003862 0
-0.112790 -0.010387 0
-0.113462 -0.017941 0
-0.114605 -0.026958 0
-0.115951 -0.037879 0
-0.117155 -0.051065 0
-0.117818 -0.066728 0
-0.117607 -0.084893 0
-0.116352 -0.105454 0
-0.114046 -0.128266 0
-0.110747 -0.153158 0
-0.106502 -0.179870 0
-0.101182 -0.207858 0
-0.094101 -0.235522 0
-0.083370 -0.257831 0
-0.065317 -0.259992 0
-0.035783 -0.201146 0
-0.000103 0.000013 0
0.000000 0.074513 0
0.000000 -0.000005 0
-0.033176 0.065863 0
-0.065773 0.105311 0
-0.093935 0.139842 0
-0.117232 0.167435 0
-0.135478 0.185993 0
-0.148740 0.194920 0
-0.157193 0.194739 0
-0.161168 0.186720 0
-0.161155 0.172612 0
-0.157782 0.154362 0
-0.151755 0.133878 0
-0.143791 0.112833 0
-0.134556 0.092551 0
-0.124654 0.073972 0
-0.114643 0.057682 0
-0.105042 0.043945 0
-0.096326 0.032738 0
-0.088878 0.023796 0
-0.082942 0.016680 0
-0.078594 0.010866 0
-0.075784 0.005822 0
-0.074388 0.001053 0
-0.074234 -0.003885 0
-0.075123 -0.009513 0
-0.076925 -0.016358 0
-0.079463 -0.024906 0
-0.082484 -0.035684 0
-0.085579 -0.049150 0
-0.088194 -0.065525 0
-0.089837 -0.084695 0
-0.090283 -0.106356 0
-0.089557 -0.130233 0
-0.087753 -0.156111 0
-0.084981 -0.183785 0
-0.081261 -0.213005 0
-0.076250 -0.242971 0
-0.068599 -0.270170 0
-0.055046 -0.281231 0
-0.030971 -0.231305 0
-0.000103 0.000013 0
0.000000 0.091268 0
0.000000 -0.000006 0
-0.028605 0.097064 0
-0.058069 0.134472 0
-0.083392 0.164342 0
-0.103955 0.186904 0
-0.119514 0.200364 0
-0.130135 0.204353 0
-0.136073 0.199559 0
-0.137754 0.187407 0
-0.135736 0.169769 0
-0.130655 0.148666 0
-0.123171 0.126015 0
-0.113910 0.103453 0
-0.103453 0.082254 0
-0.092351 0.063324 0
-0.081159 0.047235 0
-0.070457 0.034233 0
-0.060849 0.024237 0
-0.052846 0.016856 0
-0.046787 0.011469 0
-0.042689 0.007376 0
-0.040402 0.003936 0
-0.039701 0.000597 0
-0.040339 -0.003126 0
-0.041986 -0.007696 0
-0.044652 -0.013600 0
-0.048256 -0.021400 0
-0.052644 -0.031763 0
-0.057416 -0.045354 0
-0.061799 -0.062470 0
-0.065086 -0.082804 0
-0.066975 -0.105734 0
-0.067560 -0.130796 0
-0.066987 -0.157735 0
-0.065412 -0.186362 0
-0.062952 -0.216588 0
-0.059521 -0.248184 0
-0.054312 -0.279035 0
-0.044689 -0.297620 0
-0.025906 -0.256192 0
-0.000098 0.000013 0
0.000000 0.105484 0
0.000000 -0.000006 0
-0.023551 0.123932 0
-0.048938 0.160098 0
-0.070775 0.185727 0
-0.088306 0.203558 0
-0.101237 0.212173 0
-0.109597 0.211479 0
-0.113641 0.202358 0
-0.113793 0.186383 0
-0.110584 0.165513 0
-0.104588 0.141797 0
-0.096371 0.117133 0
-0.086457 0.093116 0
-0.075333 0.070992 0
-0.063491 0.051678 0
-0.051461 0.035787 0
-0.039857 0.023635 0
-0.029548 0.015128 0
-0.021222 0.009734 0
-0.015392 0.006523 0
-0.011947 0.004481 0
-0.010509 0.002833 0
-0.010670 0.000989 0
-0.012129 -0.001600 0
-0.014680 -0.005199 0
-0.018058 -0.010088 0
-0.022272 -0.016914 0
-0.027461 -0.026525 0
-0.033422 -0.039995 0
-0.039132 -0.057854 0
-0.043653 -0.079518 0
-0.046598 -0.103883 0
-0.048161 -0.130221 0
-0.048555 -0.158259 0
-0.047974 -0.187821 0
-0.046587 -0.218896 0
-0.044467 -0.251611 0
-0.041239 -0.285002 0
-0.034955 -0.309637 0
-0.021028 -0.275994 0
-0.000089 0.000013 0
0.000000 0.117174 0
0.000000 -0.000007 0
-0.018244 0.146002 0
-0.039175 0.181696 0
-0.057266 0.203710 0
-0.071691 0.217366 0
-0.082134 0.221655 0
-0.088582 0.216757 0
-0.091242 0.203755 0
-0.090480 0.184349 0
-0.086744 0.160564 0
-0.080507 0.134453 0
-0.072218 0.107883 0
-0.062287 0.082415 0
-0.051100 0.059288 0
-0.039059 0.039453 0
-0.026599 0.023601 0
-0.014155 0.012320 0
-0.003534 0.005602 0
0.004174 0.002701 0
0.009069 0.002194 0
0.011557 0.002492 0
0.012127 0.002659 0
0.011209 0.002217 0
0.009144 0.000883 0
0.006052 -0.001768 0
0.002181 -0.006008 0
-0.002381 -0.011996 0
-0.007909 -0.020613 0
-0.014413 -0.033684 0
-0.020719 -0.052240 0
-0.025801 -0.075338 0
-0.029259 -0.101225 0
-0.031386 -0.128839 0
-0.032444 -0.157922 0
-0.032652 -0.188330 0
-0.032199 -0.220096 0
-0.031233 -0.253533 0
-0.029670 -0.288546 0
-0.026192 -0.317831 0
-0.016569 -0.291147 0
-0.000078 0.000013 0
0.000000 0.126511 0
0.000000 -0.000007 0
-0.012872 0.163107 0
-0.029257 0.199121 0
-0.043583 0.218244 0
-0.054972 0.228425 0
-0.063118 0.229063 0
-0.067970 0.220587 0
-0.069673 0.204256 0
-0.068502 0.181884 0
-0.064802 0.155540 0
-0.058925 0.127272 0
-0.051199 0.098913 0
-0.041914 0.071997 0
-0.031336 0.047764 0
-0.019699 0.027177 0
-0.006892 0.010883 0
0.004729 0.000570 0
0.013482 -0.003201 0
0.019478 -0.002868 0
0.023293 -0.000860 0
0.025174 0.001423 0
0.025380 0.003181 0
0.024203 0.003972 0
0.021960 0.003557 0
0.018922 0.001764 0
0.015078 -0.001655 0
0.010445 -0.006825 0
0.005102 -0.014492 0
-0.000904 -0.027185 0
-0.006876 -0.046466 0
-0.011610 -0.070979 0
-0.014922 -0.098298 0
-0.017149 -0.127036 0
-0.018547 -0.156993 0
-0.019324 -0.188065 0
-0.019669 -0.220315 0
-0.019743 -0.254140 0
-0.019625 -0.290043 0
-0.018502 -0.322737 0
-0.012622 -0.302186 0
-0.000068 0.000012 0
0.000000 0.133743 0
0.000000 -0.000006 0
-0.007555 0.175259 0
-0.019465 0.212407 0
-0.030123 0.229425 0
-0.038621 0.236901 0
-0.044675 0.234653 0
-0.048209 0.223312 0
-0.049303 0.204287 0
-0.048140 0.179478 0
-0.044951 0.150987 0
-0.039975 0.120851 0
-0.033420 0.090872 0
-0.025461 0.062551 0
-0.016214 0.037073 0
-0.005422 0.015009 0
0.005457 -0.000827 0
0.013370 -0.008055 0
0.019034 -0.009147 0
0.023404 -0.007109 0
0.026643 -0.003502 0
0.028595 0.000405 0
0.029121 0.003630 0
0.028360 0.005636 0
0.026512 0.006164 0
0.023805 0.005115 0
0.020384 0.002468 0
0.016224 -0.002019 0
0.011533 -0.009264 0
0.006755 -0.021706 0
0.002459 -0.041533 0
-0.000806 -0.067293 0
-0.003340 -0.095686 0
-0.005229 -0.125214 0
-0.006659 -0.155747 0
-0.007796 -0.187208 0
-0.008798 -0.219677 0
-0.009810 -0.253577 0
-0.010975 -0.289787 0
-0.011843 -0.324833 0
-0.009188 -0.309650 0
-0.000059 0.000012 0
0.000000 0.139133 0
0.000000 -0.000006 0
-0.002453 0.182572 0
-0.009911 0.221689 0
-0.017075 0.237400 0
-0.022849 0.242977 0
-0.026996 0.238652 0
-0.029433 0.225215 0
-0.030183 0.204186 0
-0.029346 0.177532 0
-0.027053 0.147375 0
-0.023438 0.115740 0
-0.018615 0.084399 0
-0.012655 0.054791 0
-0.005356 0.027725 0
0.002894 0.005506 0
0.008910 -0.007909 0
0.013016 -0.013007 0
0.016560 -0.013236 0
0.019691 -0.010478 0
0.022385 -0.006051 0
0.024467 -0.001055 0
0.025570 0.003416 0
0.025592 0.006581 0
0.024591 0.008112 0
0.022687 0.007892 0
0.020027 0.005926 0
0.016783 0.002026 0
0.013187 -0.005023 0
0.010113 -0.018110 0
0.008350 -0.038905 0
0.007160 -0.065180 0
0.005931 -0.093875 0
0.004731 -0.123717 0
0.003510 -0.154425 0
0.002185 -0.185927 0
0.000659 -0.218301 0
-0.001201 -0.251963 0
-0.003524 -0.288010 0
-0.006090 -0.324524 0
-0.006217 -0.314029 0
-0.000051 0.000011 0
0.000000 0.142930 0
0.000000 -0.000005 0
0.002283 0.185170 0
-0.000705 0.227028 0
-0.004498 0.242363 0
-0.007694 0.246822 0
-0.010074 0.241236 0
-0.011557 0.226499 0
-0.012132 0.204200 0
-0.011830 0.176348 0
-0.010701 0.145080 0
-0.008792 0.112413 0
-0.006138 0.080088 0
-0.002725 0.049292 0
0.001527 0.021524 0
0.005090 0.000743 0
0.006886 -0.010949 0
0.008561 -0.015704 0
0.010357 -0.015822 0
0.012267 -0.012935 0
0.014267 -0.008278 0
0.016228 -0.002780 0
0.017800 0.002505 0
0.018625 0.006615 0
0.018624 0.009069 0
0.017804 0.009679 0
0.016270 0.008372 0
0.014282 0.004820 0
0.012405 -0.002594 0
0.011857 -0.016868 0
0.012655 -0.038580 0
0.013427 -0.064874 0
0.013615 -0.093257 0
0.013231 -0.122793 0
0.012336 -0.153200 0
0.010921 -0.184357 0
0.008936 -0.216291 0
0.006295 -0.249394 0
0.002932 -0.284898 0
-0.001074 -0.322141 0
-0.003628 -0.315740 0
-0.000045 0.000011 0
0.000000 0.145349 0
0.000000 -0.000005 0
0.006689 0.183277 0
0.008067 0.228470 0
0.007568 0.244389 0
0.006851 0.248554 0
0.006178 0.242515 0
0.005610 0.227273 0
0.005171 0.204459 0
0.004873 0.176101 0
0.004725 0.144337 0
0.004739 0.111178 0
0.004927 0.078333 0
0.005297 0.047126 0
0.005440 0.019910 0
0.004381 0.000146 0
0.003307 -0.011379 0
0.002869 -0.016478 0
0.002988 -0.016942 0
0.003640 -0.014388 0
0.004834 -0.010011 0
0.006491 -0.004588 0
0.008357 0.001018 0
0.009889 0.005757 0
0.010883 0.008933 0
0.011250 0.010246 0
0.011095 0.009448 0
0.010801 0.005892 0
0.011269 -0.002598 0
0.013678 -0.018360 0
0.016786 -0.040475 0
0.019182 -0.066140 0
0.020512 -0.093679 0
0.020845 -0.122438 0
0.020259 -0.152115 0
0.018764 -0.182527 0
0.016337 -0.213676 0
0.012947 -0.245959 0
0.008582 -0.280641 0
0.003300 -0.317964 0
-0.001324 -0.315103 0
-0.000041 0.000011 0
0.000000 0.146558 0
0.000000 -0.000004 0
0.010823 0.177103 0
0.016425 0.226150 0
0.019118 0.243579 0
0.020805 0.248212 0
0.021831 0.242477 0
0.022228 0.227505 0
0.022007 0.204936 0
0.021195 0.176794 0
0.019840 0.145214 0
0.017990 0.112211 0
0.015671 0.079531 0
0.012838 0.048779 0
0.009071 0.022440 0
0.004469 0.002877 0
0.000571 -0.009437 0
-0.001986 -0.015385 0
-0.003485 -0.016593 0
-0.004045 -0.014781 0
-0.003716 -0.011129 0
-0.002567 -0.006303 0
-0.000727 -0.000893 0
0.001394 0.004089 0
0.003338 0.007709 0
0.004926 0.009467 0
0.006361 0.008821 0
0.008201 0.004646 0
0.011716 -0.005470 0
0.016758 -0.022385 0
0.021521 -0.044085 0
0.025057 -0.068600 0
0.027222 -0.094920 0
0.028087 -0.122540 0
0.027700 -0.151120 0
0.026066 -0.180435 0
0.023176 -0.210474 0
0.019029 -0.241639 0
0.013646 -0.275250 0
0.007133 -0.312235 0
0.000768 -0.312440 0
-0.000038 0.000010 0
0.000000 0.146672 0
0.000000 -0.000003 0
0.014651 0.166852 0
0.024338 0.220175 0
0.030162 0.240009 0
0.034191 0.245840 0
0.036920 0.241092 0
0.038371 0.227098 0
0.038529 0.205492 0
0.037421 0.178268 0
0.035113 0.147543 0
0.031689 0.115347 0
0.027210 0.083484 0
0.021666 0.053725 0
0.014941 0.028279 0
0.007640 0.008646 0
0.000831 -0.004925 0
-0.004095 -0.012421 0
-0.007174 -0.014883 0
-0.008880 -0.014157 0
-0.009403 -0.011489 0
-0.008881 -0.007576 0
-0.007368 -0.002943 0
-0.004999 0.001692 0
-0.002264 0.005401 0
0.000624 0.007223 0
0.003936 0.006173 0
0.008470 0.000537 0
0.014872 -0.011155 0
0.021594 -0.028166 0
0.027295 -0.048774 0
0.031515 -0.071841 0
0.034199 -0.096709 0
0.035365 -0.122916 0
0.035010 -0.150094 0
0.033116 -0.178002 0
0.029681 -0.206638 0
0.024731 -0.236429 0
0.018324 -0.268744 0
0.010594 -0.305085 0
0.002693 -0.307970 0
-0.000036 0.000010 0
0.000000 0.145789 0
0.000000 -0.000002 0
0.018068 0.152765 0
0.031674 0.210639 0
0.040599 0.233726 0
0.046945 0.241454 0
0.051406 0.238297 0
0.054039 0.225896 0
0.054808 0.205886 0
0.053726 0.180210 0
0.050873 0.150946 0
0.046373 0.120115 0
0.040355 0.089555 0
0.032928 0.061048 0
0.024294 0.036466 0
0.015197 0.016986 0
0.006363 0.002297 0
-0.001286 -0.007379 0
-0.006338 -0.011808 0
-0.009276 -0.012552 0
-0.010655 -0.011127 0
-0.010742 -0.008339 0
-0.009622 -0.004776 0
-0.007339 -0.001015 0
-0.004038 0.002086 0
0.000249 0.003267 0
0.005782 0.000975 0
0.012950 -0.006290 0
0.020912 -0.018594 0
0.028283 -0.034808 0
0.034352 -0.054007 0
0.038881 -0.075504 0
0.041783 -0.098770 0
0.042996 -0.123350 0
0.042464 -0.148871 0
0.040148 -0.175106 0
0.036050 -0.202088 0
0.030218 -0.230282 0
0.022746 -0.261113 0
0.013805 -0.296603 0
0.004480 -0.301846 0
-0.000035 0.000009 0
0.000000 0.143978 0
0.000000 -0.000001 0
0.020903 0.135178 0
0.038188 0.197644 0
0.050197 0.224738 0
0.058885 0.235033 0
0.065147 0.233998 0
0.069126 0.223696 0
0.070783 0.205805 0
0.070117 0.182203 0
0.067217 0.154896 0
0.062251 0.125865 0
0.055432 0.096929 0
0.047008 0.069786 0
0.037394 0.046010 0
0.027354 0.026578 0
0.017623 0.011558 0
0.008424 0.000279 0
0.000943 -0.006893 0
-0.003703 -0.009840 0
-0.006169 -0.010023 0
-0.006889 -0.008609 0
-0.006075 -0.006346 0
-0.003761 -0.003892 0
0.000139 -0.002187 0
0.005726 -0.002598 0
0.012956 -0.006527 0
0.021283 -0.014593 0
0.029496 -0.026488 0
0.036839 -0.041606 0
0.042888 -0.059372 0
0.047406 -0.079271 0
0.050225 -0.100824 0
0.051210 -0.123598 0
0.050260 -0.147246 0
0.047326 -0.171588 0
0.042416 -0.196708 0
0.035600 -0.223125 0
0.027006 -0.252332 0
0.016845 -0.286820 0
0.006150 -0.294165 0
-0.000034 0.000009 0
0.000000 0.141308 0
0.000000 0.000000 0
0.022923 0.114577 0
0.043506 0.181345 0
0.058569 0.213028 0
0.069685 0.226504 0
0.077875 0.228057 0
0.083400 0.220260 0
0.086246 0.204895 0
0.086411 0.183775 0
0.083990 0.158811 0
0.079187 0.131900 0
0.072294 0.104798 0
0.063675 0.079086 0
0.053854 0.056120 0
0.043564 0.036757 0
0.033515 0.021227 0
0.024192 0.009300 0
0.015687 0.000320 0
0.009095 -0.005440 0
0.005201 -0.007941 0
0.003631 -0.008432 0
0.004088 -0.007903 0
0.006468 -0.007229 0
0.010790 -0.007401 0