# vtk DataFile Version 2.0
generated by CFD-lab course output (written by Tobias Neckel) 
ASCII

DATASET STRUCTURED_GRID
DIMENSIONS  42 42 1 
POINTS 1764 float

0.150000 0.150000 0
0.167857 0.150000 0
0.185714 0.150000 0
0.203571 0.150000 0
0.221429 0.150000 0
0.239286 0.150000 0
0.257143 0.150000 0
0.275000 0.150000 0
0.292857 0.150000 0
0.310714 0.150000 0
0.328571 0.150000 0
0.346429 0.150000 0
0.364286 0.150000 0
0.382143 0.150000 0
0.400000 0.150000 0
0.417857 0.150000 0
0.435714 0.150000 0
0.453571 0.150000 0
0.471429 0.150000 0
0.489286 0.150000 0
0.507143 0.150000 0
0.525000 0.150000 0
0.542857 0.150000 0
0.560714 0.150000 0
0.578571 0.150000 0
0.596429 0.150000 0
0.614286 0.150000 0
0.632143 0.150000 0
0.650000 0.150000 0
0.667857 0.150000 0
0.685714 0.150000 0
0.703571 0.150000 0
0.721429 0.150000 0
0.739286 0.150000 0
0.757143 0.150000 0
0.775000 0.150000 0
0.792857 0.150000 0
0.810714 0.150000 0
0.828571 0.150000 0
0.846429 0.150000 0
0.864286 0.150000 0
0.882143 0.150000 0
0.150000 0.167857 0
0.167857 0.167857 0
0.185714 0.167857 0
0.203571 0.167857 0
0.221429 0.167857 0
0.239286 0.167857 0
0.257143 0.167857 0
0.275000 0.167857 0
0.292857 0.167857 0
0.310714 0.167857 0
0.328571 0.167857 0
0.346429 0.167857 0
0.364286 0.167857 0
0.382143 0.167857 0
0.400000 0.167857 0
0.417857 0.167857 0
0.435714 0.167857 0
0.453571 0.167857 0
0.471429 0.167857 0
0.489286 0.167857 0
0.507143 0.167857 0
0.525000 0.167857 0
0.542857 0.167857 0
0.560714 0.167857 0
0.578571 0.167857 0
0.596429 0.167857 0
0.614286 0.167857 0
0.632143 0.167857 0
0.650000 0.167857 0
0.667857 0.167857 0
0.685714 0.167857 0
0.703571 0.167857 0
0.721429 0.167857 0
0.739286 0.167857 0
0.757143 0.167857 0
0.775000 0.167857 0
0.792857 0.167857 0
0.810714 0.167857 0
0.828571 0.167857 0
0.846429 0.167857 0
0.864286 0.167857 0
0.882143 0.167857 0
0.150000 0.185714 0
0.167857 0.185714 0
0.185714 0.185714 0
0.203571 0.185714 0
0.221429 0.185714 0
0.239286 0.185714 0
0.257143 0.185714 0
0.275000 0.185714 0
0.292857 0.185714 0
0.310714 0.185714 0
0.328571 0.185714 0
0.346429 0.185714 0
0.364286 0.185714 0
0.382143 0.185714 0
0.400000 0.185714 0
0.417857 0.185714 0
0.435714 0.185714 0
0.453571 0.185714 0
0.471429 0.185714 0
0.489286 0.185714 0
0.507143 0.185714 0
0.525000 0.185714 0
0.542857 0.185714 0
0.560714 0.185714 0
0.578571 0.185714 0
0.596429 0.185714 0
0.614286 0.185714 0
0.632143 0.185714 0
0.650000 0.185714 0
0.667857 0.185714 0
0.685714 0.185714 0
0.703571 0.185714 0
0.721429 0.185714 0
0.739286 0.185714 0
0.757143 0.185714 0
0.775000 0.185714 0
0.792857 0.185714 0
0.810714 0.185714 0
0.828571 0.185714 0
0.846429 0.185714 0
0.864286 0.185714 0
0.882143 0.185714 0
0.150000 0.203571 0
0.167857 0.203571 0
0.185714 0.203571 0
0.203571 0.203571 0
0.221429 0.203571 0
0.239286 0.203571 0
0.257143 0.203571 0
0.275000 0.203571 0
0.292857 0.203571 0
0.310714 0.203571 0
0.328571 0.203571 0
0.346429 0.203571 0
0.364286 0.203571 0
0.382143 0.203571 0
0.400000 0.203571 0
0.417857 0.203571 0
0.435714 0.203571 0
0.453571 0.203571 0
0.471429 0.203571 0
0.489286 0.203571 0
0.507143 0.203571 0
0.525000 0.203571 0
0.542857 0.203571 0
0.560714 0.203571 0
0.578571 0.203571 0
0.596429 0.203571 0
0.614286 0.203571 0
0.632143 0.203571 0
0.650000 0.203571 0
0.667857 0.203571 0
0.685714 0.203571 0
0.703571 0.203571 0
0.721429 0.203571 0
0.739286 0.203571 0
0.757143 0.203571 0
0.775000 0.203571 0
0.792857 0.203571 0
0.810714 0.203571 0
0.828571 0.203571 0
0.846429 0.203571 0
0.864286 0.203571 0
0.882143 0.203571 0
0.150000 0.221429 0
0.167857 0.221429 0
0.185714 0.221429 0
0.203571 0.221429 0
0.221429 0.221429 0
0.239286 0.221429 0
0.257143 0.221429 0
0.275000 0.221429 0
0.292857 0.221429 0
0.310714 0.221429 0
0.328571 0.221429 0
0.346429 0.221429 0
0.364286 0.221429 0
0.382143 0.221429 0
0.400000 0.221429 0
0.417857 0.221429 0
0.435714 0.221429 0
0.453571 0.221429 0
0.471429 0.221429 0
0.489286 0.221429 0
0.507143 0.221429 0
0.525000 0.221429 0
0.542857 0.221429 0
0.560714 0.221429 0
0.578571 0.221429 0
0.596429 0.221429 0
0.614286 0.221429 0
0.632143 0.221429 0
0.650000 0.221429 0
0.667857 0.221429 0
0.685714 0.221429 0
0.703571 0.221429 0
0.721429 0.221429 0
0.739286 0.221429 0
0.757143 0.221429 0
0.775000 0.221429 0
0.792857 0.221429 0
0.810714 0.221429 0
0.828571 0.221429 0
0.846429 0.221429 0
0.864286 0.221429 0
0.882143 0.221429 0
0.150000 0.239286 0
0.167857 0.239286 0
0.185714 0.239286 0
0.203571 0.239286 0
0.221429 0.239286 0
0.239286 0.239286 0
0.257143 0.239286 0
0.275000 0.239286 0
0.292857 0.239286 0
0.310714 0.239286 0
0.328571 0.239286 0
0.346429 0.239286 0
0.364286 0.239286 0
0.382143 0.239286 0
0.400000 0.239286 0
0.417857 0.239286 0
0.435714 0.239286 0
0.453571 0.239286 0
0.471429 0.239286 0
0.489286 0.239286 0
0.507143 0.239286 0
0.525000 0.239286 0
0.542857 0.239286 0
0.560714 0.239286 0
0.578571 0.239286 0
0.596429 0.239286 0
0.614286 0.239286 0
0.632143 0.239286 0
0.650000 0.239286 0
0.667857 0.239286 0
0.685714 0.239286 0
0.703571 0.239286 0
0.721429 0.239286 0
0.739286 0.239286 0
0.757143 0.239286 0
0.775000 0.239286 0
0.792857 0.239286 0
0.810714 0.239286 0
0.828571 0.239286 0
0.846429 0.239286 0
0.864286 0.239286 0
0.882143 0.239286 0
0.150000 0.257143 0
0.167857 0.257143 0
0.185714 0.257143 0
0.203571 0.257143 0
0.221429 0.257143 0
0.239286 0.257143 0
0.257143 0.257143 0
0.275000 0.257143 0
0.292857 0.257143 0
0.310714 0.257143 0
0.328571 0.257143 0
0.346429 0.257143 0
0.364286 0.257143 0
0.382143 0.257143 0
0.400000 0.257143 0
0.417857 0.257143 0
0.435714 0.257143 0
0.453571 0.257143 0
0.471429 0.257143 0
0.489286 0.257143 0
0.507143 0.257143 0
0.525000 0.257143 0
0.542857 0.257143 0
0.560714 0.257143 0
0.578571 0.257143 0
0.596429 0.257143 0
0.614286 0.257143 0
0.632143 0.257143 0
0.650000 0.257143 0
0.667857 0.257143 0
0.685714 0.257143 0
0.703571 0.257143 0
0.721429 0.257143 0
0.739286 0.257143 0
0.757143 0.257143 0
0.775000 0.257143 0
0.792857 0.257143 0
0.810714 0.257143 0
0.828571 0.257143 0
0.846429 0.257143 0
0.864286 0.257143 0
0.882143 0.257143 0
0.150000 0.275000 0
0.167857 0.275000 0
0.185714 0.275000 0
0.203571 0.275000 0
0.221429 0.275000 0
0.239286 0.275000 0
0.257143 0.275000 0
0.275000 0.275000 0
0.292857 0.275000 0
0.310714 0.275000 0
0.328571 0.275000 0
0.346429 0.275000 0
0.364286 0.275000 0
0.382143 0.275000 0
0.400000 0.275000 0
0.417857 0.275000 0
0.435714 0.275000 0
0.453571 0.275000 0
0.471429 0.275000 0
0.489286 0.275000 0
0.507143 0.275000 0
0.525000 0.275000 0
0.542857 0.275000 0
0.560714 0.275000 0
0.578571 0.275000 0
0.596429 0.275000 0
0.614286 0.275000 0
0.632143 0.275000 0
0.650000 0.275000 0
0.667857 0.275000 0
0.685714 0.275000 0
0.703571 0.275000 0
0.721429 0.275000 0
0.739286 0.275000 0
0.757143 0.275000 0
0.775000 0.275000 0
0.792857 0.275000 0
0.810714 0.275000 0
0.828571 0.275000 0
0.846429 0.275000 0
0.864286 0.275000 0
0.882143 0.275000 0
0.150000 0.292857 0
0.167857 0.292857 0
0.185714 0.292857 0
0.203571 0.292857 0
0.221429 0.292857 0
0.239286 0.292857 0
0.257143 0.292857 0
0.275000 0.292857 0
0.292857 0.292857 0
0.310714 0.292857 0
0.328571 0.292857 0
0.346429 0.292857 0
0.364286 0.292857 0
0.382143 0.292857 0
0.400000 0.292857 0
0.417857 0.292857 0
0.435714 0.292857 0
0.453571 0.292857 0
0.471429 0.292857 0
0.489286 0.292857 0
0.507143 0.292857 0
0.525000 0.292857 0
0.542857 0.292857 0
0.560714 0.292857 0
0.578571 0.292857 0
0.596429 0.292857 0
0.614286 0.292857 0
0.632143 0.292857 0
0.650000 0.292857 0
0.667857 0.292857 0
0.685714 0.292857 0
0.703571 0.292857 0
0.721429 0.292857 0
0.739286 0.292857 0
0.757143 0.292857 0
0.775000 0.292857 0
0.792857 0.292857 0
0.810714 0.292857 0
0.828571 0.292857 0
0.846429 0.292857 0
0.864286 0.292857 0
0.882143 0.292857 0
0.150000 0.310714 0
0.167857 0.310714 0
0.185714 0.310714 0
0.203571 0.310714 0
0.221429 0.310714 0
0.239286 0.310714 0
0.257143 0.310714 0
0.275000 0.310714 0
0.292857 0.310714 0
0.310714 0.310714 0
0.328571 0.310714 0
0.346429 0.310714 0
0.364286 0.310714 0
0.382143 0.310714 0
0.400000 0.310714 0
0.417857 0.310714 0
0.435714 0.310714 0
0.453571 0.310714 0
0.471429 0.310714 0
0.489286 0.310714 0
0.507143 0.310714 0
0.525000 0.310714 0
0.542857 0.310714 0
0.560714 0.310714 0
0.578571 0.310714 0
0.596429 0.310714 0
0.614286 0.310714 0
0.632143 0.310714 0
0.650000 0.310714 0
0.667857 0.310714 0
0.685714 0.310714 0
0.703571 0.310714 0
0.721429 0.310714 0
0.739286 0.310714 0
0.757143 0.310714 0
0.775000 0.310714 0
0.792857 0.310714 0
0.810714 0.310714 0
0.828571 0.310714 0
0.846429 0.310714 0
0.864286 0.310714 0
0.882143 0.310714 0
0.150000 0.328571 0
0.167857 0.328571 0
0.185714 0.328571 0
0.203571 0.328571 0
0.221429 0.328571 0
0.239286 0.328571 0
0.257143 0.328571 0
0.275000 0.328571 0
0.292857 0.328571 0
0.310714 0.328571 0
0.328571 0.328571 0
0.346429 0.328571 0
0.364286 0.328571 0
0.382143 0.328571 0
0.400000 0.328571 0
0.417857 0.328571 0
0.435714 0.328571 0
0.453571 0.328571 0
0.471429 0.328571 0
0.489286 0.328571 0
0.507143 0.328571 0
0.525000 0.328571 0
0.542857 0.328571 0
0.560714 0.328571 0
0.578571 0.328571 0
0.596429 0.328571 0
0.614286 0.328571 0
0.632143 0.328571 0
0.650000 0.328571 0
0.667857 0.328571 0
0.685714 0.328571 0
0.703571 0.328571 0
0.721429 0.328571 0
0.739286 0.328571 0
0.757143 0.328571 0
0.775000 0.328571 0
0.792857 0.328571 0
0.810714 0.328571 0
0.828571 0.328571 0
0.846429 0.328571 0
0.864286 0.328571 0
0.882143 0.328571 0
0.150000 0.346429 0
0.167857 0.346429 0
0.185714 0.346429 0
0.203571 0.346429 0
0.221429 0.346429 0
0.239286 0.346429 0
0.257143 0.346429 0
0.275000 0.346429 0
0.292857 0.346429 0
0.310714 0.346429 0
0.328571 0.346429 0
0.346429 0.346429 0
0.364286 0.346429 0
0.382143 0.346429 0
0.400000 0.346429 0
0.417857 0.346429 0
0.435714 0.346429 0
0.453571 0.346429 0
0.471429 0.346429 0
0.489286 0.346429 0
0.507143 0.346429 0
0.525000 0.346429 0
0.542857 0.346429 0
0.560714 0.346429 0
0.578571 0.346429 0
0.596429 0.346429 0
0.614286 0.346429 0
0.632143 0.346429 0
0.650000 0.346429 0
[...]
POINT_DATA 1764 

VECTORS velocity float
0.000000 0.000000 0
0.000021 0.000000 0
0.000046 0.000000 0
0.000083 0.000000 0
0.000124 0.000000 0
0.000107 0.000000 0
-0.000044 0.000000 0
-0.000202 0.000000 0
-0.000253 0.000000 0
-0.000248 0.000000 0
-0.000221 0.000000 0
-0.000179 0.000000 0
-0.000131 0.000000 0
-0.000084 0.000000 0
-0.000042 0.000000 0
-0.000007 0.000000 0
0.000021 0.000000 0
0.000043 0.000000 0
0.000059 0.000000 0
0.000071 0.000000 0
0.000078 0.000000 0
0.000083 0.000000 0
0.000085 0.000000 0
0.000086 0.000000 0
0.000085 0.000000 0
0.000083 0.000000 0
0.000080 0.000000 0
0.000076 0.000000 0
0.000072 0.000000 0
0.000068 0.000000 0
0.000063 0.000000 0
0.000058 0.000000 0
0.000052 0.000000 0
0.000046 0.000000 0
0.000040 0.000000 0
0.000033 0.000000 0
0.000027 0.000000 0
0.000020 0.000000 0
0.000012 0.000000 0
0.000006 0.000000 0
0.000000 0.000000 0
0.000000 0.000000 0
0.000000 -0.000021 0
0.000709 -0.003866 0
-0.005995 0.001839 0
-0.019786 0.001518 0
-0.039553 -0.001239 0
-0.076097 0.015590 0
-0.140345 0.059302 0
-0.232177 0.099937 0
-0.339442 0.115263 0
-0.448227 0.113763 0
-0.550417 0.105332 0
-0.641428 0.093170 0
-0.719083 0.079434 0
-0.783069 0.065760 0
-0.834219 0.053109 0
-0.873976 0.041972 0
-0.903987 0.032486 0
-0.925851 0.024576 0
-0.941002 0.018073 0
-0.950665 0.012772 0
-0.955866 0.008474 0
-0.957446 0.004989 0
-0.956079 0.002139 0
-0.952458 -0.000223 0
-0.946948 -0.002265 0
-0.939755 -0.004189 0
-0.930884 -0.006213 0
-0.920139 -0.008581 0
-0.907092 -0.011575 0
-0.891037 -0.015527 0
-0.870931 -0.020881 0
-0.845295 -0.028181 0
-0.812129 -0.038062 0
-0.768806 -0.051264 0
-0.711983 -0.068528 0
-0.637643 -0.090341 0
-0.541469 -0.116166 0
-0.420104 -0.142676 0
-0.274510 -0.158688 0
-0.118516 -0.129199 0
-0.000566 0.000006 0
0.000000 0.048236 0
0.000000 -0.000035 0
-0.014490 0.005995 0
-0.039770 0.020495 0
-0.076817 0.033558 0
-0.132673 0.056311 0
-0.214091 0.100791 0
-0.308861 0.156080 0
-0.401535 0.199097 0
-0.492174 0.216050 0
-0.579352 0.210975 0
-0.658193 0.193200 0
-0.725740 0.168666 0
-0.781069 0.141641 0
-0.824608 0.115136 0
-0.857584 0.090907 0
-0.881530 0.069768 0
-0.897955 0.051875 0
-0.908196 0.037015 0
-0.913372 0.024814 0
-0.914401 0.014864 0
-0.912041 0.006781 0
-0.906917 0.000213 0
-0.899794 -0.004988 0
-0.891065 -0.009131 0
-0.881018 -0.012703 0
-0.869813 -0.016064 0
-0.857459 -0.019616 0
-0.843811 -0.023791 0
-0.828534 -0.029102 0
-0.811078 -0.036161 0
-0.790618 -0.045743 0
-0.766031 -0.058802 0
-0.735782 -0.076489 0
-0.697844 -0.100146 0
-0.649590 -0.131162 0
-0.587745 -0.170514 0
-0.508502 -0.217540 0
-0.408062 -0.266959 0
-0.284452 -0.301588 0
-0.141725 -0.274510 0
-0.000904 0.000012 0
0.000000 0.118527 0
0.000000 -0.000022 0
-0.031300 0.035904 0
-0.075944 0.064166 0
-0.133400 0.094421 0
-0.207306 0.136036 0
-0.293254 0.191778 0
-0.380484 0.246745 0
-0.460229 0.283250 0
-0.530887 0.293080 0
-0.593014 0.279783 0
-0.645365 0.251719 0
-0.687359 0.216045 0
-0.719527 0.178301 0
-0.743088 0.142275 0
-0.759518 0.110032 0
-0.770194 0.082342 0
-0.776230 0.059152 0
-0.778459 0.039994 0
-0.777499 0.024279 0
-0.773844 0.011441 0
-0.767920 0.000989 0
-0.760285 -0.007258 0
-0.751404 -0.013713 0
-0.741412 -0.019000 0
-0.730603 -0.023516 0
-0.719131 -0.027747 0
-0.707059 -0.032215 0
-0.694307 -0.037506 0
-0.680648 -0.044308 0
-0.665686 -0.053443 0
-0.648831 -0.065928 0
-0.629278 -0.083017 0
-0.605935 -0.106250 0
-0.577342 -0.137456 0
-0.541557 -0.178627 0
-0.495990 -0.231430 0
-0.437206 -0.295849 0
-0.360748 -0.366725 0
-0.261457 -0.425025 0
-0.136137 -0.413651 0
-0.001118 0.000017 0
0.000000 0.189972 0
0.000000 0.000016 0
-0.044196 0.081940 0
-0.100046 0.122595 0
-0.165298 0.164919 0
-0.239742 0.216165 0
-0.317652 0.273970 0
-0.391291 0.323055 0
-0.455215 0.349500 0
-0.508084 0.348835 0
-0.550769 0.325453 0
-0.583861 0.287545 0
-0.608319 0.242827 0
-0.625572 0.197370 0
-0.637162 0.155126 0
-0.644434 0.118014 0
-0.648344 0.086480 0
-0.649452 0.060140 0
-0.648042 0.038284 0
-0.644256 0.020199 0
-0.638233 0.005284 0
-0.630193 -0.006778 0
-0.620730 -0.016303 0
-0.609903 -0.023861 0
-0.598197 -0.029932 0
-0.585968 -0.034984 0
-0.573483 -0.039608 0
-0.560891 -0.044440 0
-0.548200 -0.050203 0
-0.535281 -0.057723 0
-0.521867 -0.067978 0
-0.507554 -0.082150 0
-0.491789 -0.101698 0
-0.473836 -0.128425 0
-0.452715 -0.164524 0
-0.427090 -0.212514 0
-0.395059 -0.274865 0
-0.353754 -0.352782 0
-0.298669 -0.442707 0
-0.222967 -0.526199 0
-0.119202 -0.535968 0
-0.001187 0.000023 0
0.000000 0.254675 0
0.000000 0.000065 0
-0.049954 0.135950 0
-0.108467 0.185268 0
-0.172450 0.234118 0
-0.239935 0.288390 0
-0.305988 0.343327 0
-0.365523 0.384308 0
-0.415268 0.400043 0
-0.454504 0.388634 0
-0.484227 0.355559 0
-0.505754 0.309269 0
-0.520688 0.257756 0
-0.530733 0.207145 0
-0.537336 0.161138 0
-0.541464 0.121213 0
-0.543541 0.087360 0
-0.543567 0.058849 0
-0.541327 0.034798 0
-0.536597 0.014470 0
-0.529305 -0.002622 0
-0.519671 -0.016515 0
-0.507993 -0.027549 0
-0.494750 -0.036246 0
-0.480624 -0.042935 0
-0.466135 -0.048231 0
-0.451712 -0.052824 0
-0.437621 -0.057498 0
-0.423971 -0.063117 0
-0.410723 -0.070641 0
-0.397708 -0.081170 0
-0.384644 -0.096005 0
-0.371139 -0.116735 0
-0.356690 -0.145324 0
-0.340644 -0.184202 0
-0.322121 -0.236283 0
-0.299827 -0.304766 0
-0.271640 -0.392239 0
-0.233720 -0.497512 0
-0.179100 -0.604492 0
-0.097995 -0.636618 0
-0.001140 0.000028 0
0.000000 0.309185 0
0.000000 0.000115 0
-0.048966 0.190407 0
-0.103865 0.245091 0
-0.161292 0.296387 0
-0.218689 0.349703 0
-0.272220 0.399558 0
-0.318965 0.432335 0
-0.357286 0.438481 0
-0.387010 0.417795 0
-0.409134 0.376703 0
-0.425079 0.324007 0
-0.436464 0.267807 0
-0.444803 0.214018 0
-0.451165 0.165858 0
-0.456018 0.124218 0
-0.459255 0.088584 0
-0.460395 0.057926 0
-0.458856 0.031314 0
-0.454184 0.008176 0
-0.446185 -0.011642 0
-0.435153 -0.028089 0
-0.421413 -0.041224 0
-0.405874 -0.051231 0
-0.389332 -0.058547 0
-0.372503 -0.063895 0
-0.355951 -0.068122 0
-0.340062 -0.072181 0
-0.325048 -0.077101 0
-0.310962 -0.083986 0
-0.297723 -0.094057 0
-0.285135 -0.108719 0
-0.272910 -0.129652 0
-0.260675 -0.158920 0
-0.247960 -0.199094 0
-0.234157 -0.253331 0
-0.218406 -0.325345 0
-0.199291 -0.418890 0
-0.174029 -0.535247 0
-0.136680 -0.661924 0
-0.076639 -0.715068 0
-0.001017 0.000032 0
0.000000 0.352680 0
0.000000 0.000159 0
-0.043096 0.239815 0
-0.090255 0.297594 0
-0.138238 0.348942 0
-0.184435 0.399317 0
-0.225891 0.443602 0
-0.261411 0.469374 0
-0.290704 0.468089 0
-0.314012 0.440482 0
-0.332183 0.393628 0
-0.346356 0.336599 0
-0.357754 0.277480 0
-0.367392 0.221845 0
-0.375810 0.172353 0
-0.382976 0.129303 0
-0.388367 0.091738 0
-0.391199 0.058451 0
-0.390692 0.028587 0
-0.386299 0.001800 0
-0.377820 -0.021653 0
-0.365686 -0.041287 0
-0.350623 -0.056827 0
-0.333617 -0.068327 0
-0.315572 -0.076307 0
-0.297293 -0.081611 0
-0.279410 -0.085265 0
-0.262373 -0.088401 0
-0.246465 -0.092216 0
-0.231817 -0.097966 0
-0.218431 -0.106997 0
-0.206200 -0.120818 0
-0.194929 -0.141195 0
-0.184339 -0.170273 0
-0.174071 -0.210720 0
-0.163659 -0.265837 0
-0.152491 -0.339632 0
-0.139651 -0.436616 0
-0.123382 -0.560123 0
-0.099327 -0.701882 0
-0.057342 -0.773298 0
-0.000858 0.000036 0
0.000000 0.385832 0
0.000000 0.000194 0
-0.034150 0.280662 0
-0.071240 0.340234 0
-0.108363 0.390567 0
-0.143208 0.437356 0
-0.173329 0.476534 0
-0.198786 0.497147 0
-0.220508 0.491082 0
-0.239107 0.459274 0
-0.255167 0.409047 0
-0.269309 0.349577 0
-0.282100 0.288843 0
-0.293885 0.232074 0
-0.304642 0.181441 0
-0.313956 0.136775 0
-0.321101 0.096807 0
-0.325198 0.060251 0
-0.325418 0.026414 0
-0.321211 -0.004696 0
-0.312596 -0.032254 0
-0.300185 -0.055286 0
-0.284914 -0.073293 0
-0.267802 -0.086282 0
-0.249768 -0.094871 0
-0.231592 -0.100057 0
-0.213882 -0.103042 0
-0.197077 -0.105126 0
-0.181468 -0.107657 0
-0.167220 -0.112021 0
-0.154396 -0.119674 0
-0.142971 -0.132221 0
-0.132842 -0.151512 0
-0.123834 -0.179778 0
-0.115684 -0.219774 0
-0.108038 -0.274911 0
-0.100426 -0.349353 0
-0.092236 -0.447999 0
-0.082452 -0.575571 0
-0.068308 -0.727964 0
-0.041016 -0.814395 0
-0.000696 0.000040 0
0.000000 0.410029 0
0.000000 0.000220 0
-0.023703 0.311055 0
-0.049731 0.371807 0
-0.075456 0.420910 0
-0.099240 0.464283 0
-0.118798 0.499181 0
-0.134837 0.516553 0
-0.149425 0.508410 0
-0.163668 0.475142 0
-0.177886 0.423830 0
-0.192079 0.363532 0
-0.206052 0.302056 0
-0.219422 0.244388 0
-0.231639 0.192423 0
-0.242043 0.145761 0
-0.249916 0.102980 0
-0.254519 0.062768 0
-0.255159 0.024599 0
-0.251355 -0.011022 0
-0.243283 -0.042679 0
-0.231688 -0.068968 0
-0.217603 -0.089210 0
-0.201990 -0.103474 0
-0.185673 -0.112516 0
-0.169327 -0.117497 0
-0.153473 -0.119780 0
-0.138489 -0.120815 0
-0.124629 -0.122073 0
-0.112051 -0.125038 0
-0.100836 -0.131247 0
-0.091010 -0.142372 0
-0.082551 -0.160332 0
-0.075378 -0.187431 0
-0.069337 -0.226516 0
-0.064187 -0.281095 0
-0.059591 -0.355434 0
-0.055131 -0.454589 0
-0.050256 -0.584052 0
-0.043459 -0.743318 0
-0.027764 -0.841606 0
-0.000550 0.000043 0
0.000000 0.426855 0
0.000000 0.000236 0
-0.013035 0.330393 0
-0.028031 0.391986 0
-0.042385 0.440076 0
-0.055538 0.480698 0
-0.065338 0.512131 0
-0.072326 0.527773 0
-0.079430 0.519913 0
-0.088558 0.487736 0
-0.100007 0.437458 0
-0.113235 0.377743 0
-0.127301 0.316186 0
-0.141110 0.257661 0
-0.153631 0.204062 0
-0.164013 0.155052 0
-0.171631 0.109283 0
-0.176028 0.065494 0
-0.176845 0.023249 0
-0.173811 -0.016572 0
-0.167147 -0.051921 0
-0.157670 -0.080966 0
-0.146306 -0.102991 0
-0.133822 -0.118212 0
-0.120850 -0.127534 0
-0.107909 -0.132257 0
-0.095406 -0.133880 0
-0.083638 -0.133970 0
-0.072810 -0.134095 0
-0.063056 -0.135814 0
-0.054453 -0.140714 0
-0.047054 -0.150505 0
-0.040881 -0.167145 0
-0.035929 -0.192993 0
-0.032144 -0.230965 0
-0.029404 -0.284657 0
-0.027510 -0.358409 0
-0.026213 -0.457333 0
-0.025245 -0.587244 0
-0.023955 -0.750456 0
-0.017270 -0.857854 0
-0.000429 0.000045 0
0.000000 0.437798 0
0.000000 0.000242 0
-0.003116 0.339086 0
-0.007865 0.401157 0
-0.011470 0.448417 0
-0.014427 0.487236 0
-0.015257 0.515969 0
-0.013757 0.530645 0
-0.012851 0.524642 0
-0.015373 0.495719 0
-0.022155 0.448507 0
-0.032529 0.390825 0
-0.045048 0.329932 0
-0.058017 0.270718 0
-0.069892 0.215326 0
-0.079572 0.163762 0
-0.086448 0.114996 0
-0.090304 0.067982 0
-0.091185 0.022382 0
-0.089251 -0.020721 0
-0.084936 -0.058821 0
-0.078892 -0.089809 0
-0.071674 -0.113058 0
-0.063731 -0.128931 0
-0.055452 -0.138429 0
-0.047172 -0.142941 0
-0.039167 -0.144052 0
-0.031653 -0.143411 0
-0.024786 -0.142655 0
-0.018681 -0.143395 0
-0.013420 -0.147249 0
-0.009063 -0.155944 0
-0.005665 -0.171456 0
-0.003270 -0.196169 0
-0.001906 -0.233041 0
-0.001559 -0.285730 0
-0.002168 -0.358625 0
-0.003640 -0.456855 0
-0.005895 -0.586309 0
-0.008797 -0.751293 0
-0.009058 -0.865561 0
-0.000336 0.000047 0
0.000000 0.444129 0
0.000000 0.000241 0
0.005479 0.338257 0
0.009704 0.400341 0
0.015597 0.446638 0
0.022236 0.484485 0
0.029823 0.511461 0
0.038995 0.525367 0
0.047746 0.521530 0
0.052864 0.497040 0
0.052667 0.454614 0
0.047415 0.400637 0
0.038600 0.341674 0
0.028203 0.282504 0
0.018112 0.225618 0
0.009695 0.171608 0
0.003666 0.120015 0
0.000143 0.070231 0
-0.001218 0.022196 0
-0.001064 -0.022820 0
-0.000032 -0.062280 0
0.001602 -0.094228 0
0.003717 -0.118151 0
0.006203 -0.134434 0
0.008931 -0.144094 0
0.011761 -0.148542 0
0.014557 -0.149399 0
0.017192 -0.148351 0
0.019557 -0.147067 0
0.021553 -0.147180 0
0.023093 -0.150333 0
0.024093 -0.158261 0
0.024469 -0.172938 0
0.024129 -0.196752 0
0.022981 -0.232676 0
0.020947 -0.284395 0
0.017970 -0.356329 0
0.014011 -0.453606 0
0.009020 -0.582087 0
0.002939 -0.747294 0
-0.002600 -0.866651 0
-0.000265 0.000048 0
0.000000 0.446859 0
0.000000 0.000234 0
0.012520 0.329381 0
0.024226 0.391040 0
0.037955 0.435885 0
0.053099 0.473009 0
0.068637 0.499210 0
0.084776 0.512722 0
0.100513 0.510773 0
0.113087 0.490799 0
0.120297 0.453955 0
0.121751 0.404892 0
0.118550 0.349143 0
0.112525 0.291206 0
0.105558 0.233835 0
0.099115 0.178208 0
0.094005 0.124548 0
0.090355 0.072866 0
0.087722 0.023589 0
0.085272 -0.021907 0
0.082509 -0.061487 0
0.079435 -0.093557 0
0.076218 -0.117660 0
0.073025 -0.134145 0
0.069974 -0.143987 0
0.067129 -0.148567 0
0.064506 -0.149483 0
0.062079 -0.148410 0
0.059795 -0.147016 0
0.057577 -0.146930 0
0.055331 -0.149789 0
0.052947 -0.157321 0
0.050299 -0.171492 0
0.047251 -0.194680 0
0.043651 -0.229859 0
0.039345 -0.280718 0
0.034177 -0.351689 0
0.027989 -0.447904 0
0.020609 -0.575237 0
0.011868 -0.739673 0
0.002518 -0.862622 0
-0.000211 0.000049 0
0.000000 0.446731 0
0.000000 0.000221 0
0.017912 0.314031 0
0.035624 0.374906 0
0.055401 0.417766 0
0.077375 0.453802 0
0.099982 0.479784 0
0.122498 0.493492 0
0.144293 0.493219 0
0.163416 0.477256 0
0.177701 0.445949 0
0.186223 0.402384 0
0.189468 0.350900 0
0.188806 0.295496 0
0.185844 0.239027 0
0.181930 0.183162 0
0.177866 0.128776 0
0.173832 0.076514 0
0.169488 0.027279 0
0.164186 -0.017608 0
0.157705 -0.056443 0
0.150187 -0.087937 0
0.141991 -0.111741 0
0.133494 -0.128190 0
0.125024 -0.138197 0
0.116837 -0.143074 0
0.109098 -0.144349 0
0.101890 -0.143640 0
0.095220 -0.142564 0
0.089035 -0.142716 0
0.083236 -0.145702 0
0.077689 -0.153229 0
0.072234 -0.167242 0
0.066689 -0.190103 0
0.060852 -0.224770 0
0.054500 -0.274921 0
0.047390 -0.344972 0
0.039253 -0.440038 0
0.029801 -0.565966 0
0.018719 -0.729202 0
0.006517 -0.854783 0
-0.000169 0.000049 0
0.000000 0.444342 0
0.000000 0.000203 0
0.021718 0.293757 0
0.044021 0.353551 0
0.068177 0.394135 0
0.095000 0.428428 0
0.123159 0.454087 0
0.151189 0.468411 0
0.178177 0.469855 0
0.202726 0.457390 0
0.223037 0.431148 0
0.237956 0.393125 0
0.247411 0.346560 0
0.252195 0.294830 0
0.253468 0.240711 0
0.252313 0.186186 0
0.249443 0.132645 0
0.245112 0.081244 0
0.239191 0.033235 0
0.231397 -0.010124 0
0.221619 -0.047487 0
0.210251 -0.077844 0
0.197797 -0.100966 0
0.184785 -0.117178 0
0.171709 -0.127330 0
0.158975 -0.132641 0
0.146875 -0.134536 0
0.135579 -0.134532 0
0.125152 -0.134160 0
0.115563 -0.134946 0
0.106712 -0.138443 0
0.098447 -0.146319 0
0.090576 -0.160492 0
0.082880 -0.183298 0
0.075113 -0.217670 0
0.066995 -0.267256 0
0.058211 -0.336443 0
0.048405 -0.430315 0
0.037195 -0.554702 0
0.024190 -0.716389 0
0.009646 -0.843904 0
-0.000140 0.000048 0
0.000000 0.440214 0
0.000000 0.000180 0
0.024051 0.270010 0
0.049624 0.328447 0
0.076764 0.366787 0
0.106560 0.398820 0
0.138330 0.423595 0
0.170465 0.438474 0
0.201593 0.441682 0
0.230413 0.432395 0
0.255451 0.410719 0
0.275542 0.378010 0
0.290245 0.336661 0
0.299836 0.289439 0
0.305001 0.238910 0
0.306498 0.187187 0
0.304907 0.135976 0
0.300534 0.086766 0
0.293474 0.040993 0
0.283792 -0.000036 0
0.271480 -0.035297 0
0.257192 -0.064115 0
0.241512 -0.086275 0
0.225091 -0.102102 0
0.208542 -0.112388 0
0.192378 -0.118239 0
0.176975 -0.120953 0
0.162570 -0.121917 0
0.149264 -0.122548 0
0.137048 -0.124277 0
0.125822 -0.128586 0
0.115420 -0.137092 0
0.105633 -0.151675 0
0.096212 -0.174640 0
0.086880 -0.208885 0
0.077313 -0.258020 0
0.067138 -0.326382 0
0.055932 -0.419022 0
0.043244 -0.541751 0
0.028621 -0.701653 0
0.012166 -0.830593 0
-0.000120 0.000048 0
0.000000 0.434695 0
0.000000 0.000153 0
0.025098 0.244133 0
0.052711 0.300838 0
0.081715 0.337199 0
0.113001 0.366862 0
0.146475 0.390182 0
0.180905 0.405149 0
0.214731 0.409907 0
0.246523 0.403531 0
0.274918 0.386019 0
0.298777 0.358331 0
0.317447 0.322266 0
0.330819 0.280074 0
0.339177 0.234049 0
0.342975 0.186280 0
0.342644 0.138609 0
0.338517 0.092676 0
0.330859 0.049977 0
0.319970 0.011870 0
0.306160 -0.020887 0
0.290060 -0.047876 0
0.272361 -0.068865 0
0.253811 -0.084208 0
0.235092 -0.094618 0
0.216770 -0.101074 0
0.199268 -0.104728 0
0.182856 -0.106821 0
0.167660 -0.108638 0
0.153681 -0.111504 0
0.140825 -0.116815 0
0.128923 -0.126130 0
0.117756 -0.141284 0
0.107063 -0.164545 0
0.096543 -0.198770 0
0.085844 -0.247515 0
0.074553 -0.315063 0
0.062196 -0.406421 0
0.048273 -0.527390 0
0.032292 -0.685311 0
0.014234 -0.815283 0
-0.000106 0.000046 0
0.000000 0.428046 0
0.000000 0.000127 0
0.025174 0.217299 0
0.053693 0.271830 0
0.083611 0.306497 0
0.115340 0.334059 0
0.149031 0.355691 0
0.183975 0.370219 0
0.218810 0.376064 0
0.252063 0.372208 0
0.282362 0.358465 0
0.308552 0.335481 0
0.329838 0.304620 0
0.345850 0.267709 0
0.356570 0.226754 0
0.362205 0.183720 0
0.363053 0.140434 0
0.359449 0.098551 0
0.351767 0.059540 0
0.340467 0.024664 0
0.326175 -0.005387 0
0.309377 -0.030317 0
0.290908 -0.050027 0
0.271532 -0.064833 0
0.251944 -0.075346 0
0.232723 -0.082415 0
0.214302 -0.087039 0
0.196960 -0.090309 0
0.180832 -0.093373 0
0.165929 -0.097442 0
0.152163 -0.103828 0
0.139373 -0.114023 0
0.127342 -0.129815 0
0.115807 -0.153427 0
0.104459 -0.187667 0
0.092927 -0.236031 0
0.080771 -0.302734 0
0.067483 -0.392742 0
0.052530 -0.511847 0
0.035397 -0.667614 0
0.015974 -0.798301 0
-0.000096 0.000045 0
0.000000 0.420458 0
0.000000 0.000103 0
0.024563 0.190440 0
0.053059 0.242401 0
0.083074 0.275552 0
0.114518 0.301442 0
0.147464 0.321547 0
0.181565 0.335370 0
0.215850 0.341820 0
0.249017 0.339979 0
0.279738 0.329530 0
0.306841 0.310855 0
0.329438 0.284968 0
0.346979 0.253342 0
0.359237 0.217694 0
0.366234 0.179798 0
0.368163 0.141364 0
0.365338 0.103962 0
0.358190 0.068960 0
0.347277 0.037463 0
0.333321 0.010203 0
0.316916 -0.012609 0
0.298812 -0.031020 0
0.279770 -0.045243 0
0.260462 -0.055809 0
0.241442 -0.063433 0
0.223125 -0.068965 0
0.205782 -0.073351 0
0.189550 -0.077607 0
0.174447 -0.082834 0
0.160398 -0.090260 0
0.147256 -0.101309 0
0.134815 -0.117719 0
0.122820 -0.141663 0
0.110961 -0.175890 0
0.098858 -0.223827 0
0.086053 -0.289618 0
0.072021 -0.378180 0
0.056209 -0.495305 0
0.038086 -0.648755 0
0.017475 -0.779886 0
-0.000090 0.000043 0
0.000000 0.412069 0
0.000000 0.000082 0
0.023350 0.164240 0
0.051230 0.213318 0
0.080729 0.245037 0
0.111369 0.269669 0
0.143024 0.288644 0
0.175474 0.301834 0
0.208101 0.308612 0
0.239907 0.308320 0
0.269734 0.300640 0
0.296470 0.285781 0
0.319198 0.264482 0
0.337267 0.237909 0
0.350316 0.207498 0
0.358238 0.174795 0
0.361138 0.141330 0
0.359297 0.108523 0
0.353153 0.077601 0
0.343286 0.049533 0
0.330393 0.024974 0
0.315216 0.004192 0
0.298381 -0.012881 0
0.280579 -0.026483 0
0.262436 -0.037018 0
0.244459 -0.045078 0
0.227030 -0.051380 0
0.210401 -0.056734 0
0.194706 -0.062037 0
0.179972 -0.068290 0
0.166139 -0.076637 0
0.153077 -0.088440 0
0.140598 -0.105379 0
0.128458 -0.129573 0
0.116351 -0.163705 0
0.103896 -0.211123 0
0.090624 -0.275898 0
0.076001 -0.362897 0
0.059464 -0.477911 0
0.040476 -0.628881 0
0.018807 -0.760215 0
-0.000087 0.000041 0
0.000000 0.402979 0
0.000000 0.000064 0
0.021635 0.139210 0
0.048581 0.185022 0
0.077167 0.215412 0
0.106638 0.239146 0
0.136700 0.257443 0
0.167127 0.270294 0
0.197512 0.277387 0
0.227155 0.278346 0
0.255150 0.272966 0
0.280537 0.261391 0
0.302455 0.244171 0
0.320234 0.222224 0
0.333447 0.196723 0
0.341906 0.168977 0
0.345647 0.140305 0
0.344906 0.111946 0
0.340085 0.084971 0
0.331729 0.060223 0
0.320486 0.038272 0
0.307050 0.019403 0
0.292067 0.003617 0
0.276110 -0.009298 0
0.259715 -0.019689 0
0.243340 -0.028026 0
0.227322 -0.034907 0
0.211894 -0.041027 0
0.197184 -0.047177 0
0.183226 -0.054267 0
0.169975 -0.063365 0
0.157319 -0.075769 0
0.145088 -0.093100 0
0.133050 -0.117416 0
0.120905 -0.151327 0
0.108270 -0.198099 0
0.094676 -0.261723 0
0.079581 -0.347020 0
0.062422 -0.459780 0
0.042661 -0.608098 0
0.020023 -0.739411 0
-0.000086 0.000039 0
0.000000 0.393258 0
0.000000 0.000050 0
0.019819 0.115659 0
0.045569 0.157787 0
0.072954 0.186980 0
0.100987 0.210136 0
0.129272 0.228156 0
0.157546 0.241022 0
0.185496 0.248584 0
0.212641 0.250681 0
0.238317 0.247258 0
0.261769 0.238476 0
0.282260 0.224785 0
0.299175 0.206918 0
0.312083 0.185827 0
0.320760 0.162594 0
0.325191 0.138330 0
0.325556 0.114086 0
0.322198 0.090777 0
0.315593 0.069132 0
0.306308 0.049653 0
0.294943 0.032611 0
0.282089 0.018060 0
0.268271 0.005869 0
0.253936 -0.004247 0
0.239465 -0.012685 0
0.225156 -0.019935 0
0.211219 -0.026596 0
0.197771 -0.033368 0