# vtk DataFile Version 2.0
generated by CFD-lab course output (written by Tobias Neckel) 
ASCII

DATASET STRUCTURED_GRID
DIMENSIONS  42 42 1 
POINTS 1764 float

0.150000 0.150000 0
0.167857 0.150000 0
0.185714 0.150000 0
0.203571 0.150000 0
0.221429 0.150000 0
0.239286 0.150000 0
0.257143 0.150000 0
0.275000 0.150000 0
0.292857 0.150000 0
0.310714 0.150000 0
0.328571 0.150000 0
0.346429 0.150000 0
0.364286 0.150000 0
0.382143 0.150000 0
0.400000 0.150000 0
0.417857 0.150000 0
0.435714 0.150000 0
0.453571 0.150000 0
0.471429 0.150000 0
0.489286 0.150000 0
0.507143 0.150000 0
0.525000 0.150000 0
0.542857 0.150000 0
0.560714 0.150000 0
0.578571 0.150000 0
0.596429 0.150000 0
0.614286 0.150000 0
0.632143 0.150000 0
0.650000 0.150000 0
0.667857 0.150000 0
0.685714 0.150000 0
0.703571 0.150000 0
0.721429 0.150000 0
0.739286 0.150000 0
0.757143 0.150000 0
0.775000 0.150000 0
0.792857 0.150000 0
0.810714 0.150000 0
0.828571 0.150000 0
0.846429 0.150000 0
0.864286 0.150000 0
0.882143 0.150000 0
0.150000 0.167857 0
0.167857 0.167857 0
0.185714 0.167857 0
0.203571 0.167857 0
0.221429 0.167857 0
0.239286 0.167857 0
0.257143 0.167857 0
0.275000 0.167857 0
0.292857 0.167857 0
0.310714 0.167857 0
0.328571 0.167857 0
0.346429 0.167857 0
0.364286 0.167857 0
0.382143 0.167857 0
0.400000 0.167857 0
0.417857 0.167857 0
0.435714 0.167857 0
0.453571 0.167857 0
0.471429 0.167857 0
0.489286 0.167857 0
0.507143 0.167857 0
0.525000 0.167857 0
0.542857 0.167857 0
0.560714 0.167857 0
0.578571 0.167857 0
0.596429 0.167857 0
0.614286 0.167857 0
0.632143 0.167857 0
0.650000 0.167857 0
0.667857 0.167857 0
0.685714 0.167857 0
0.703571 0.167857 0
0.721429 0.167857 0
0.739286 0.167857 0
0.757143 0.167857 0
0.775000 0.167857 0
0.792857 0.167857 0
0.810714 0.167857 0
0.828571 0.167857 0
0.846429 0.167857 0
0.864286 0.167857 0
0.882143 0.167857 0
0.150000 0.185714 0
0.167857 0.185714 0
0.185714 0.185714 0
0.203571 0.185714 0
0.221429 0.185714 0
0.239286 0.185714 0
0.257143 0.185714 0
0.275000 0.185714 0
0.292857 0.185714 0
0.310714 0.185714 0
0.328571 0.185714 0
0.346429 0.185714 0
0.364286 0.185714 0
0.382143 0.185714 0
0.400000 0.185714 0
0.417857 0.185714 0
0.435714 0.185714 0
0.453571 0.185714 0
0.471429 0.185714 0
0.489286 0.185714 0
0.507143 0.185714 0
0.525000 0.185714 0
0.542857 0.185714 0
0.560714 0.185714 0
0.578571 0.185714 0
0.596429 0.185714 0
0.614286 0.185714 0
0.632143 0.185714 0
0.650000 0.185714 0
0.667857 0.185714 0
0.685714 0.185714 0
0.703571 0.185714 0
0.721429 0.185714 0
0.739286 0.185714 0
0.757143 0.185714 0
0.775000 0.185714 0
0.792857 0.185714 0
0.810714 0.185714 0
0.828571 0.185714 0
0.846429 0.185714 0
0.864286 0.185714 0
0.882143 0.185714 0
0.150000 0.203571 0
0.167857 0.203571 0
0.185714 0.203571 0
0.203571 0.203571 0
0.221429 0.203571 0
0.239286 0.203571 0
0.257143 0.203571 0
0.275000 0.203571 0
0.292857 0.203571 0
0.310714 0.203571 0
0.328571 0.203571 0
0.346429 0.203571 0
0.364286 0.203571 0
0.382143 0.203571 0
0.400000 0.203571 0
0.417857 0.203571 0
0.435714 0.203571 0
0.453571 0.203571 0
0.471429 0.203571 0
0.489286 0.203571 0
0.507143 0.203571 0
0.525000 0.203571 0
0.542857 0.203571 0
0.560714 0.203571 0
0.578571 0.203571 0
0.596429 0.203571 0
0.614286 0.203571 0
0.632143 0.203571 0
0.650000 0.203571 0
0.667857 0.203571 0
0.685714 0.203571 0
0.703571 0.203571 0
0.721429 0.203571 0
0.739286 0.203571 0
0.757143 0.203571 0
0.775000 0.203571 0
0.792857 0.203571 0
0.810714 0.203571 0
0.828571 0.203571 0
0.846429 0.203571 0
0.864286 0.203571 0
0.882143 0.203571 0
0.150000 0.221429 0
0.167857 0.221429 0
0.185714 0.221429 0
0.203571 0.221429 0
0.221429 0.221429 0
0.239286 0.221429 0
0.257143 0.221429 0
0.275000 0.221429 0
0.292857 0.221429 0
0.310714 0.221429 0
0.328571 0.221429 0
0.346429 0.221429 0
0.364286 0.221429 0
0.382143 0.221429 0
0.400000 0.221429 0
0.417857 0.221429 0
0.435714 0.221429 0
0.453571 0.221429 0
0.471429 0.221429 0
0.489286 0.221429 0
0.507143 0.221429 0
0.525000 0.221429 0
0.542857 0.221429 0
0.560714 0.221429 0
0.578571 0.221429 0
0.596429 0.221429 0
0.614286 0.221429 0
0.632143 0.221429 0
0.650000 0.221429 0
0.667857 0.221429 0
0.685714 0.221429 0
0.703571 0.221429 0
0.721429 0.221429 0
0.739286 0.221429 0
0.757143 0.221429 0
0.775000 0.221429 0
0.792857 0.221429 0
0.810714 0.221429 0
0.828571 0.221429 0
0.846429 0.221429 0
0.864286 0.221429 0
0.882143 0.221429 0
0.150000 0.239286 0
0.167857 0.239286 0
0.185714 0.239286 0
0.203571 0.239286 0
0.221429 0.239286 0
0.239286 0.239286 0
0.257143 0.239286 0
0.275000 0.239286 0
0.292857 0.239286 0
0.310714 0.239286 0
0.328571 0.239286 0
0.346429 0.239286 0
0.364286 0.239286 0
0.382143 0.239286 0
0.400000 0.239286 0
0.417857 0.239286 0
0.435714 0.239286 0
0.453571 0.239286 0
0.471429 0.239286 0
0.489286 0.239286 0
0.507143 0.239286 0
0.525000 0.239286 0
0.542857 0.239286 0
0.560714 0.239286 0
0.578571 0.239286 0
0.596429 0.239286 0
0.614286 0.239286 0
0.632143 0.239286 0
0.650000 0.239286 0
0.667857 0.239286 0
0.685714 0.239286 0
0.703571 0.239286 0
0.721429 0.239286 0
0.739286 0.239286 0
0.757143 0.239286 0
0.775000 0.239286 0
0.792857 0.239286 0
0.810714 0.239286 0
0.828571 0.239286 0
0.846429 0.239286 0
0.864286 0.239286 0
0.882143 0.239286 0
0.150000 0.257143 0
0.167857 0.257143 0
0.185714 0.257143 0
0.203571 0.257143 0
0.221429 0.257143 0
0.239286 0.257143 0
0.257143 0.257143 0
0.275000 0.257143 0
0.292857 0.257143 0
0.310714 0.257143 0
0.328571 0.257143 0
0.346429 0.257143 0
0.364286 0.257143 0
0.382143 0.257143 0
0.400000 0.257143 0
0.417857 0.257143 0
0.435714 0.257143 0
0.453571 0.257143 0
0.471429 0.257143 0
0.489286 0.257143 0
0.507143 0.257143 0
0.525000 0.257143 0
0.542857 0.257143 0
0.560714 0.257143 0
0.578571 0.257143 0
0.596429 0.257143 0
0.614286 0.257143 0
0.632143 0.257143 0
0.650000 0.257143 0
0.667857 0.257143 0
0.685714 0.257143 0
0.703571 0.257143 0
0.721429 0.257143 0
0.739286 0.257143 0
0.757143 0.257143 0
0.775000 0.257143 0
0.792857 0.257143 0
0.810714 0.257143 0
0.828571 0.257143 0
0.846429 0.257143 0
0.864286 0.257143 0
0.882143 0.257143 0
0.150000 0.275000 0
0.167857 0.275000 0
0.185714 0.275000 0
0.203571 0.275000 0
0.221429 0.275000 0
0.239286 0.275000 0
0.257143 0.275000 0
0.275000 0.275000 0
0.292857 0.275000 0
0.310714 0.275000 0
0.328571 0.275000 0
0.346429 0.275000 0
0.364286 0.275000 0
0.382143 0.275000 0
0.400000 0.275000 0
0.417857 0.275000 0
0.435714 0.275000 0
0.453571 0.275000 0
0.471429 0.275000 0
0.489286 0.275000 0
0.507143 0.275000 0
0.525000 0.275000 0
0.542857 0.275000 0
0.560714 0.275000 0
0.578571 0.275000 0
0.596429 0.275000 0
0.614286 0.275000 0
0.632143 0.275000 0
0.650000 0.275000 0
0.667857 0.275000 0
0.685714 0.275000 0
0.703571 0.275000 0
0.721429 0.275000 0
0.739286 0.275000 0
0.757143 0.275000 0
0.775000 0.275000 0
0.792857 0.275000 0
0.810714 0.275000 0
0.828571 0.275000 0
0.846429 0.275000 0
0.864286 0.275000 0
0.882143 0.275000 0
0.150000 0.292857 0
0.167857 0.292857 0
0.185714 0.292857 0
0.203571 0.292857 0
0.221429 0.292857 0
0.239286 0.292857 0
0.257143 0.292857 0
0.275000 0.292857 0
0.292857 0.292857 0
0.310714 0.292857 0
0.328571 0.292857 0
0.346429 0.292857 0
0.364286 0.292857 0
0.382143 0.292857 0
0.400000 0.292857 0
0.417857 0.292857 0
0.435714 0.292857 0
0.453571 0.292857 0
0.471429 0.292857 0
0.489286 0.292857 0
0.507143 0.292857 0
0.525000 0.292857 0
0.542857 0.292857 0
0.560714 0.292857 0
0.578571 0.292857 0
0.596429 0.292857 0
0.614286 0.292857 0
0.632143 0.292857 0
0.650000 0.292857 0
0.667857 0.292857 0
0.685714 0.292857 0
0.703571 0.292857 0
0.721429 0.292857 0
0.739286 0.292857 0
0.757143 0.292857 0
0.775000 0.292857 0
0.792857 0.292857 0
0.810714 0.292857 0
0.828571 0.292857 0
0.846429 0.292857 0
0.864286 0.292857 0
0.882143 0.292857 0
0.150000 0.310714 0
0.167857 0.310714 0
0.185714 0.310714 0
0.203571 0.310714 0
0.221429 0.310714 0
0.239286 0.310714 0
0.257143 0.310714 0
0.275000 0.310714 0
0.292857 0.310714 0
0.310714 0.310714 0
0.328571 0.310714 0
0.346429 0.310714 0
0.364286 0.310714 0
0.382143 0.310714 0
0.400000 0.310714 0
0.417857 0.310714 0
0.435714 0.310714 0
0.453571 0.310714 0
0.471429 0.310714 0
0.489286 0.310714 0
0.507143 0.310714 0
0.525000 0.310714 0
0.542857 0.310714 0
0.560714 0.310714 0
0.578571 0.310714 0
0.596429 0.310714 0
0.614286 0.310714 0
0.632143 0.310714 0
0.650000 0.310714 0
0.667857 0.310714 0
0.685714 0.310714 0
0.703571 0.310714 0
0.721429 0.310714 0
0.739286 0.310714 0
0.757143 0.310714 0
0.775000 0.310714 0
0.792857 0.310714 0
0.810714 0.310714 0
0.828571 0.310714 0
0.846429 0.310714 0
0.864286 0.310714 0
0.882143 0.310714 0
0.150000 0.328571 0
0.167857 0.328571 0
0.185714 0.328571 0
0.203571 0.328571 0
0.221429 0.328571 0
0.239286 0.328571 0
0.257143 0.328571 0
0.275000 0.328571 0
0.292857 0.328571 0
0.310714 0.328571 0
0.328571 0.328571 0
0.346429 0.328571 0
0.364286 0.328571 0
0.382143 0.328571 0
0.400000 0.328571 0
0.417857 0.328571 0
0.435714 0.328571 0
0.453571 0.328571 0
0.471429 0.328571 0
0.489286 0.328571 0
0.507143 0.328571 0
0.525000 0.328571 0
0.542857 0.328571 0
0.560714 0.328571 0
0.578571 0.328571 0
0.596429 0.328571 0
0.614286 0.328571 0
0.632143 0.328571 0
0.650000 0.328571 0
0.667857 0.328571 0
0.685714 0.328571 0
0.703571 0.328571 0
0.721429 0.328571 0
0.739286 0.328571 0
0.757143 0.328571 0
0.775000 0.328571 0
0.792857 0.328571 0
0.810714 0.328571 0
0.828571 0.328571 0
0.846429 0.328571 0
0.864286 0.328571 0
0.882143 0.328571 0
0.150000 0.346429 0
0.167857 0.346429 0
0.185714 0.346429 0
0.203571 0.346429 0
0.221429 0.346429 0
0.239286 0.346429 0
0.257143 0.346429 0
0.275000 0.346429 0
0.292857 0.346429 0
0.310714 0.346429 0
0.328571 0.346429 0
0.346429 0.346429 0
0.364286 0.346429 0
0.382143 0.346429 0
0.400000 0.346429 0
0.417857 0.346429 0
0.435714 0.346429 0
0.453571 0.346429 0
0.471429 0.346429 0
0.489286 0.346429 0
0.507143 0.346429 0
0.525000 0.346429 0
0.542857 0.346429 0
0.560714 0.346429 0
0.578571 0.346429 0
0.596429 0.346429 0
0.614286 0.346429 0
0.632143 0.346429 0
0.650000 0.346429 0
[...]
POINT_DATA 1764 

VECTORS velocity float
0.000000 0.000000 0
-0.000002 0.000000 0
-0.000003 0.000000 0
-0.000003 0.000000 0
-0.000003 0.000000 0
-0.000002 0.000000 0
-0.000001 0.000000 0
-0.000004 0.000000 0
-0.000006 0.000000 0
0.000003 0.000000 0
0.000008 0.000000 0
0.000011 0.000000 0
0.000012 0.000000 0
0.000013 0.000000 0
0.000014 0.000000 0
0.000014 0.000000 0
0.000015 0.000000 0
0.000014 0.000000 0
0.000014 0.000000 0
0.000014 0.000000 0
0.000014 0.000000 0
0.000014 0.000000 0
0.000014 0.000000 0
0.000014 0.000000 0
0.000014 0.000000 0
0.000014 0.000000 0
0.000014 0.000000 0
0.000015 0.000000 0
0.000015 0.000000 0
0.000015 0.000000 0
0.000016 0.000000 0
0.000016 0.000000 0
0.000016 0.000000 0
0.000016 0.000000 0
0.000015 0.000000 0
0.000014 0.000000 0
0.000012 0.000000 0
0.000010 0.000000 0
0.000006 0.000000 0
-0.000002 0.000000 0
-0.000000 0.000000 0
0.000000 0.000000 0
0.000000 0.000002 0
0.037817 -0.034574 0
0.066648 -0.020140 0
0.077777 -0.002320 0
0.072697 0.008779 0
0.061824 0.012672 0
0.051673 0.010153 0
0.033522 -0.005759 0
0.006065 -0.004870 0
-0.027728 0.023456 0
-0.070174 0.042654 0
-0.116069 0.047035 0
-0.160981 0.045820 0
-0.202768 0.042865 0
-0.240193 0.038690 0
-0.272767 0.034061 0
-0.300484 0.029440 0
-0.323643 0.025110 0
-0.342694 0.021209 0
-0.358138 0.017773 0
-0.370446 0.014772 0
-0.380026 0.012136 0
-0.387188 0.009772 0
-0.392135 0.007553 0
-0.394938 0.005335 0
-0.395542 0.002974 0
-0.393766 0.000318 0
-0.389379 -0.002791 0
-0.381991 -0.006459 0
-0.371079 -0.010764 0
-0.355991 -0.015855 0
-0.335937 -0.021882 0
-0.310021 -0.028946 0
-0.277285 -0.037046 0
-0.236857 -0.045932 0
-0.188265 -0.054818 0
-0.132138 -0.061746 0
-0.071646 -0.062175 0
-0.015302 -0.038951 0
0.018492 0.006494 0
0.000042 -0.000002 0
0.000000 -0.015458 0
0.000000 0.000004 0
0.030707 -0.066648 0
0.051813 -0.039959 0
0.060966 -0.006049 0
0.051562 0.015952 0
0.031508 0.021025 0
0.003445 0.028302 0
-0.037752 0.045608 0
-0.100603 0.061250 0
-0.154850 0.076240 0
-0.198500 0.088341 0
-0.237820 0.090806 0
-0.273989 0.086699 0
-0.305702 0.079213 0
-0.332668 0.069999 0
-0.354943 0.060291 0
-0.372861 0.050876 0
-0.386897 0.042210 0
-0.397570 0.034495 0
-0.405377 0.027752 0
-0.410749 0.021889 0
-0.414029 0.016742 0
-0.415464 0.012108 0
-0.415193 0.007750 0
-0.413272 0.003408 0
-0.409650 -0.001173 0
-0.404301 -0.006163 0
-0.396996 -0.011774 0
-0.387457 -0.018300 0
-0.375241 -0.026001 0
-0.359800 -0.035142 0
-0.340509 -0.045970 0
-0.316672 -0.058652 0
-0.287561 -0.073164 0
-0.252507 -0.089020 0
-0.211104 -0.104718 0
-0.163691 -0.116620 0
-0.112203 -0.116837 0
-0.061474 -0.090137 0
-0.013242 -0.015302 0
0.000017 0.000004 0
0.000000 -0.018487 0
0.000000 0.000004 0
0.015436 -0.086388 0
0.019445 -0.050399 0
0.009521 -0.002069 0
-0.010394 0.038237 0
-0.043070 0.060789 0
-0.089512 0.079413 0
-0.138206 0.098290 0
-0.184525 0.112228 0
-0.227508 0.121352 0
-0.262087 0.125624 0
-0.290042 0.122524 0
-0.313014 0.113702 0
-0.331411 0.101544 0
-0.345739 0.087931 0
-0.356542 0.074254 0
-0.364393 0.061394 0
-0.369835 0.049819 0
-0.373345 0.039689 0
-0.375312 0.030952 0
-0.376032 0.023425 0
-0.375714 0.016851 0
-0.374483 0.010935 0
-0.372396 0.005361 0
-0.369459 -0.000208 0
-0.365651 -0.005996 0
-0.360866 -0.012335 0
-0.354825 -0.019635 0
-0.347220 -0.028214 0
-0.337671 -0.038421 0
-0.325738 -0.050587 0
-0.310952 -0.065010 0
-0.292818 -0.081893 0
-0.270829 -0.101211 0
-0.244468 -0.122389 0
-0.213237 -0.143634 0
-0.176783 -0.160646 0
-0.135119 -0.164392 0
-0.088992 -0.137912 0
-0.040753 -0.054980 0
-0.000037 0.000010 0
0.000000 -0.002204 0
0.000000 0.000002 0
-0.006575 -0.086093 0
-0.024816 -0.034044 0
-0.054100 0.023790 0
-0.082091 0.068542 0
-0.116227 0.100142 0
-0.155834 0.123439 0
-0.194717 0.140620 0
-0.229394 0.150552 0
-0.259364 0.153802 0
-0.282200 0.150875 0
-0.298654 0.141733 0
-0.310109 0.128068 0
-0.317630 0.111937 0
-0.322154 0.095130 0
-0.324469 0.078945 0
-0.325224 0.064169 0
-0.324920 0.051163 0
-0.323927 0.039972 0
-0.322496 0.030439 0
-0.320783 0.022290 0
-0.318866 0.015193 0
-0.316765 0.008791 0
-0.314454 0.002726 0
-0.311880 -0.003337 0
-0.309029 -0.009766 0
-0.305606 -0.016989 0
-0.301419 -0.025420 0
-0.296170 -0.035455 0
-0.289530 -0.047483 0
-0.281137 -0.061861 0
-0.270638 -0.078890 0
-0.257716 -0.098775 0
-0.242077 -0.121515 0
-0.223365 -0.146612 0
-0.201025 -0.172402 0
-0.174135 -0.194738 0
-0.141236 -0.204628 0
-0.100431 -0.184504 0
-0.050802 -0.104294 0
-0.000091 0.000013 0
0.000000 0.022275 0
0.000000 -0.000000 0
-0.028149 -0.061571 0
-0.063851 -0.002874 0
-0.096791 0.055206 0
-0.127960 0.100364 0
-0.159780 0.134532 0
-0.191563 0.157903 0
-0.220414 0.171850 0
-0.244401 0.176875 0
-0.262935 0.174158 0
-0.275220 0.164913 0
-0.282020 0.150434 0
-0.284594 0.132678 0
-0.284164 0.113588 0
-0.281789 0.094771 0
-0.278307 0.077324 0
-0.274342 0.061844 0
-0.270326 0.048522 0
-0.266531 0.037266 0
-0.263103 0.027809 0
-0.260095 0.019795 0
-0.257495 0.012832 0
-0.255252 0.006523 0
-0.253288 0.000477 0
-0.251517 -0.005633 0
-0.249791 -0.012271 0
-0.247903 -0.019946 0
-0.245640 -0.029072 0
-0.242726 -0.040102 0
-0.238828 -0.053454 0
-0.233589 -0.069479 0
-0.226695 -0.088431 0
-0.217936 -0.110454 0
-0.207201 -0.135562 0
-0.194332 -0.163441 0
-0.178854 -0.192863 0
-0.159616 -0.220435 0
-0.134327 -0.238097 0
-0.099441 -0.228346 0
-0.051983 -0.155411 0
-0.000129 0.000016 0
0.000000 0.048604 0
0.000000 -0.000003 0
-0.040934 -0.022242 0
-0.083034 0.034598 0
-0.117664 0.087899 0
-0.149435 0.131531 0
-0.178008 0.163745 0
-0.203146 0.184073 0
-0.223657 0.193458 0
-0.238740 0.193073 0
-0.248226 0.184621 0
-0.252232 0.169960 0
-0.251701 0.151108 0
-0.247856 0.130212 0
-0.241903 0.109132 0
-0.234878 0.089272 0
-0.227583 0.071497 0
-0.220590 0.056188 0
-0.214268 0.043352 0
-0.208814 0.032748 0
-0.204299 0.024003 0
-0.200702 0.016683 0
-0.197948 0.010350 0
-0.195937 0.004584 0
-0.194559 -0.001009 0
-0.193711 -0.006834 0
-0.193161 -0.013380 0
-0.192797 -0.021140 0
-0.192419 -0.030597 0
-0.191757 -0.042267 0
-0.190439 -0.056619 0
-0.188034 -0.073993 0
-0.184155 -0.094543 0
-0.178599 -0.118269 0
-0.171387 -0.145119 0
-0.162568 -0.174959 0
-0.151889 -0.207118 0
-0.138342 -0.239265 0
-0.119507 -0.264804 0
-0.091150 -0.266847 0
-0.048973 -0.203734 0
-0.000153 0.000018 0
0.000000 0.074262 0
0.000000 -0.000005 0
-0.045001 0.021463 0
-0.086788 0.073857 0
-0.122440 0.121607 0
-0.152897 0.160707 0
-0.177960 0.188242 0
-0.197641 0.203552 0
-0.211637 0.207445 0
-0.219889 0.201444 0
-0.222711 0.187650 0
-0.220743 0.168389 0
-0.215068 0.146058 0
-0.206886 0.122879 0
-0.197345 0.100610 0
-0.187415 0.080451 0
-0.177841 0.063037 0
-0.169139 0.048529 0
-0.161616 0.036745 0
-0.155409 0.027297 0
-0.150517 0.019697 0
-0.146849 0.013445 0
-0.144270 0.008067 0
-0.142633 0.003133 0
-0.141805 -0.001749 0
-0.141669 -0.007031 0
-0.142070 -0.013185 0
-0.142947 -0.020687 0
-0.144171 -0.030111 0
-0.145501 -0.042082 0
-0.146524 -0.057177 0
-0.146676 -0.075764 0
-0.145397 -0.097866 0
-0.142388 -0.123222 0
-0.137732 -0.151593 0
-0.131652 -0.182938 0
-0.124151 -0.217090 0
-0.114588 -0.252818 0
-0.100928 -0.285289 0
-0.078960 -0.298880 0
-0.043481 -0.246561 0
-0.000163 0.000019 0
0.000000 0.097580 0
0.000000 -0.000006 0
-0.042678 0.064546 0
-0.082511 0.112037 0
-0.116604 0.154008 0
-0.144483 0.187051 0
-0.165962 0.208490 0
-0.181163 0.217749 0
-0.190233 0.215705 0
-0.193557 0.204147 0
-0.191792 0.185475 0
-0.185855 0.162317 0
-0.176893 0.137251 0
-0.166070 0.112489 0
-0.154463 0.089661 0
-0.142969 0.069768 0
-0.132273 0.053221 0
-0.122844 0.039963 0
-0.114951 0.029622 0
-0.108692 0.021649 0
-0.104012 0.015443 0
-0.100749 0.010436 0
-0.098683 0.006133 0
-0.097589 0.002119 0
-0.097282 -0.001972 0
-0.097640 -0.006570 0
-0.098614 -0.012103 0
-0.100226 -0.019038 0
-0.102477 -0.028043 0
-0.105231 -0.039915 0
-0.108093 -0.055444 0
-0.110366 -0.075119 0
-0.111254 -0.098832 0
-0.110290 -0.125934 0
-0.107580 -0.155855 0
-0.103449 -0.188540 0
-0.098102 -0.224182 0
-0.091292 -0.262488 0
-0.081614 -0.300432 0
-0.065388 -0.324294 0
-0.036938 -0.282694 0
-0.000159 0.000019 0
0.000000 0.117744 0
0.000000 -0.000007 0
-0.037137 0.103975 0
-0.073627 0.147783 0
-0.104471 0.183578 0
-0.128991 0.210065 0
-0.146943 0.224923 0
-0.158470 0.227824 0
-0.163921 0.219838 0
-0.163898 0.203002 0
-0.159234 0.179948 0
-0.150952 0.153490 0
-0.140183 0.126273 0
-0.128025 0.100449 0
-0.115464 0.077509 0
-0.103315 0.058261 0
-0.092200 0.042912 0
-0.082559 0.031207 0
-0.074673 0.022593 0
-0.068677 0.016357 0
-0.064523 0.011754 0
-0.062012 0.008116 0
-0.060844 0.004908 0
-0.060686 0.001733 0
-0.061233 -0.001699 0
-0.062210 -0.005700 0
-0.063685 -0.010598 0
-0.065725 -0.016824 0
-0.068460 -0.025106 0
-0.071941 -0.036466 0
-0.075900 -0.052043 0
-0.079592 -0.072603 0
-0.082008 -0.097941 0
-0.082526 -0.126896 0
-0.081274 -0.158434 0
-0.078616 -0.192417 0
-0.074857 -0.229248 0
-0.070043 -0.269306 0
-0.063402 -0.311192 0
-0.052055 -0.343556 0
-0.030282 -0.311949 0
-0.000147 0.000019 0
0.000000 0.134518 0
0.000000 -0.000008 0
-0.030832 0.138173 0
-0.062444 0.179371 0
-0.089068 0.209371 0
-0.109839 0.229522 0
-0.124440 0.237969 0
-0.132983 0.234727 0
-0.135867 0.221132 0
-0.133756 0.199460 0
-0.127519 0.172529 0
-0.118160 0.143267 0
-0.106727 0.114324 0
-0.094212 0.087770 0
-0.081489 0.064951 0
-0.069274 0.046504 0
-0.058116 0.032465 0
-0.048427 0.022436 0
-0.040544 0.015740 0
-0.034765 0.011499 0
-0.031094 0.008779 0
-0.029344 0.006757 0
-0.029158 0.004807 0
-0.030141 0.002508 0
-0.031904 -0.000448 0
-0.034014 -0.004117 0
-0.036353 -0.008588 0
-0.039013 -0.014264 0
-0.042146 -0.021827 0
-0.045948 -0.032474 0
-0.050329 -0.047793 0
-0.054617 -0.069011 0
-0.057730 -0.095897 0
-0.059041 -0.126668 0
-0.058747 -0.159765 0
-0.057192 -0.194957 0
-0.054696 -0.232755 0
-0.051456 -0.273943 0
-0.047184 -0.318420 0
-0.039857 -0.357414 0
-0.024061 -0.334749 0
-0.000131 0.000018 0
0.000000 0.148025 0
0.000000 -0.000008 0
-0.024195 0.166419 0
-0.050318 0.206019 0
-0.072332 0.230973 0
-0.089282 0.245437 0
-0.100808 0.248067 0
-0.106970 0.239250 0
-0.108136 0.220612 0
-0.104930 0.194655 0
-0.098150 0.164351 0
-0.088701 0.132698 0
-0.077501 0.102325 0
-0.065409 0.075211 0
-0.053177 0.052571 0
-0.041412 0.034888 0
-0.030564 0.022065 0
-0.021006 0.013635 0
-0.013150 0.008931 0
-0.007642 0.006907 0
-0.004490 0.006333 0
-0.003360 0.006180 0
-0.003852 0.005704 0
-0.005582 0.004479 0
-0.008219 0.002175 0
-0.011553 -0.001251 0
-0.015154 -0.005600 0
-0.018771 -0.011032 0
-0.022552 -0.018171 0
-0.026676 -0.028283 0
-0.031099 -0.043374 0
-0.035246 -0.065203 0
-0.038185 -0.093517 0
-0.039580 -0.125879 0
-0.039741 -0.160282 0
-0.038952 -0.196467 0
-0.037482 -0.234984 0
-0.035567 -0.276819 0
-0.033221 -0.322792 0
-0.029168 -0.366678 0
-0.018537 -0.351806 0
-0.000112 0.000018 0
0.000000 0.158578 0
0.000000 -0.000008 0
-0.017518 0.188492 0
-0.038041 0.227509 0
-0.055428 0.248336 0
-0.068694 0.257999 0
-0.077479 0.255657 0
-0.081790 0.242055 0
-0.081922 0.219092 0
-0.078396 0.189474 0
-0.071881 0.156301 0
-0.063129 0.122618 0
-0.052901 0.091032 0
-0.041912 0.063445 0
-0.030795 0.040954 0
-0.020033 0.023891 0
-0.009827 0.012058 0
-0.000698 0.005022 0
0.006206 0.002377 0
0.010758 0.002840 0
0.013185 0.004496 0
0.013867 0.006119 0
0.013107 0.007029 0
0.011188 0.006875 0
0.008345 0.005523 0
0.004664 0.002818 0
0.000378 -0.001370 0
-0.004127 -0.006866 0
-0.008706 -0.013922 0
-0.013185 -0.023928 0
-0.017394 -0.039223 0
-0.020758 -0.061925 0
-0.022762 -0.091563 0
-0.023665 -0.125111 0
-0.023859 -0.160393 0
-0.023538 -0.197217 0
-0.022893 -0.236140 0
-0.022130 -0.278204 0
-0.021415 -0.324819 0
-0.020033 -0.372098 0
-0.013778 -0.363916 0
-0.000095 0.000017 0
0.000000 0.166561 0
0.000000 -0.000007 0
-0.010999 0.204460 0
-0.026057 0.243929 0
-0.038992 0.261626 0
-0.048817 0.267488 0
-0.055202 0.261162 0
-0.058112 0.243693 0
-0.057753 0.217218 0
-0.054511 0.184614 0
-0.048894 0.149085 0
-0.041475 0.113717 0
-0.032847 0.081108 0
-0.023581 0.053105 0
-0.014177 0.030692 0
-0.004808 0.013920 0
0.004036 0.002730 0
0.011115 -0.002398 0
0.015966 -0.002525 0
0.019171 -0.000072 0
0.021001 0.003224 0
0.021555 0.006258 0
0.020921 0.008383 0
0.019225 0.009241 0
0.016621 0.008699 0
0.013282 0.006716 0
0.009259 0.003191 0
0.004637 -0.001947 0
-0.000150 -0.009113 0
-0.004660 -0.019595 0
-0.008168 -0.035801 0
-0.010053 -0.059835 0
-0.010570 -0.090610 0
-0.010643 -0.124781 0
-0.010596 -0.160410 0
-0.010522 -0.197433 0
-0.010537 -0.236391 0
-0.010793 -0.278297 0
-0.011497 -0.324889 0
-0.012317 -0.374315 0
-0.009742 -0.371839 0
-0.000080 0.000016 0
0.000000 0.172355 0
0.000000 -0.000007 0
-0.004773 0.214548 0
-0.014572 0.255501 0
-0.023314 0.271097 0
-0.029967 0.274208 0
-0.034254 0.264952 0
-0.036118 0.244606 0
-0.035673 0.215490 0
-0.033168 0.180615 0
-0.028935 0.143266 0
-0.023364 0.106572 0
-0.016878 0.073138 0
-0.009910 0.044775 0
-0.002625 0.022180 0
0.004427 0.005678 0
0.010364 -0.003864 0
0.014373 -0.006908 0
0.017196 -0.005679 0
0.019253 -0.002195 0
0.020641 0.002113 0
0.021230 0.006199 0
0.020932 0.009359 0
0.019724 0.011176 0
0.017655 0.011466 0
0.014838 0.010179 0
0.011402 0.007276 0
0.007454 0.002543 0
0.003347 -0.004625 0
-0.000234 -0.015910 0
-0.002105 -0.033831 0
-0.001814 -0.059522 0
-0.000641 -0.090973 0
0.000204 -0.125086 0
0.000603 -0.160515 0
0.000554 -0.197275 0
0.000003 -0.235869 0
-0.001175 -0.277244 0
-0.003145 -0.323295 0
-0.005799 -0.373854 0
-0.006329 -0.376234 0
-0.000068 0.000016 0
0.000000 0.176302 0
0.000000 -0.000006 0
0.000959 0.219032 0
-0.003658 0.262471 0
-0.008452 0.277020 0
-0.012175 0.278428 0
-0.014601 0.267314 0
-0.015663 0.245112 0
-0.015403 0.214267 0
-0.013937 0.177876 0
-0.011430 0.139281 0
-0.008083 0.101660 0
-0.004145 0.067653 0
0.000063 0.038852 0
0.004327 0.016355 0
0.007982 0.000931 0
0.010491 -0.007215 0
0.012165 -0.009230 0
0.013346 -0.007406 0
0.014268 -0.003517 0
0.015029 0.001247 0
0.015480 0.005967 0
0.015432 0.009889 0
0.014741 0.012518 0
0.013350 0.013584 0
0.011300 0.012969 0
0.008716 0.010576 0
0.005833 0.006108 0
0.003098 -0.001425 0
0.001700 -0.014143 0
0.002613 -0.034221 0
0.005268 -0.061299 0
0.007866 -0.092628 0
0.009552 -0.126024 0
0.010307 -0.160760 0
0.010169 -0.196833 0
0.009119 -0.234662 0
0.007072 -0.275149 0
0.003947 -0.320265 0
-0.000224 -0.371131 0
-0.003412 -0.377638 0
-0.000059 0.000015 0
0.000000 0.178683 0
0.000000 -0.000006 0
0.006183 0.218206 0
0.006640 0.264913 0
0.005603 0.279613 0
0.004642 0.280357 0
0.003962 0.268440 0
0.003609 0.245408 0
0.003582 0.213764 0
0.003866 0.176642 0
0.004441 0.137411 0
0.005277 0.099286 0
0.006287 0.064992 0
0.007274 0.036302 0
0.007827 0.014261 0
0.007908 -0.000485 0
0.007637 -0.008047 0
0.007375 -0.009763 0
0.007058 -0.007783 0
0.006816 -0.003879 0
0.006752 0.000901 0
0.006823 0.005795 0
0.006846 0.010097 0
0.006603 0.013258 0
0.005950 0.014908 0
0.004871 0.014813 0
0.003505 0.012743 0
0.002196 0.008160 0
0.001714 -0.000493 0
0.003568 -0.015425 0
0.007597 -0.037398 0
0.012128 -0.064774 0
0.015747 -0.095257 0
0.018072 -0.127527 0
0.019080 -0.161131 0
0.018801 -0.196088 0
0.017231 -0.232773 0
0.014337 -0.272072 0
0.010087 -0.315998 0
0.004530 -0.366495 0
-0.000848 -0.376457 0
-0.000053 0.000014 0
0.000000 0.179712 0
0.000000 -0.000005 0
0.011064 0.212393 0
0.016353 0.263051 0
0.018915 0.279018 0
0.020601 0.280069 0
0.021641 0.268347 0
0.022031 0.245492 0
0.021775 0.214009 0
0.020913 0.177017 0
0.019532 0.137871 0
0.017746 0.099814 0
0.015633 0.065656 0
0.013195 0.037312 0
0.010303 0.015721 0
0.007112 0.001121 0
0.004182 -0.006682 0
0.002047 -0.008650 0
0.000340 -0.006847 0
-0.000974 -0.003211 0
-0.001859 0.001241 0
-0.002261 0.005873 0
-0.002301 0.010109 0
-0.002181 0.013414 0
-0.002062 0.015316 0
-0.001962 0.015414 0
-0.001699 0.013251 0
-0.000779 0.007898 0
0.002131 -0.002797 0
0.007430 -0.020026 0
0.013723 -0.042781 0
0.019401 -0.069449 0
0.023673 -0.098572 0
0.026345 -0.129357 0
0.027405 -0.161489 0
0.026864 -0.194984 0
0.024717 -0.230198 0
0.020952 -0.268005 0
0.015567 -0.310458 0
0.008635 -0.360196 0
0.001449 -0.373108 0
-0.000049 0.000014 0
0.000000 0.179530 0
0.000000 -0.000004 0
0.015618 0.201853 0
0.025546 0.257062 0
0.031588 0.275365 0
0.035821 0.277631 0
0.038574 0.267010 0
0.039806 0.245274 0
0.039496 0.214883 0
0.037707 0.178885 0
0.034605 0.140577 0
0.030427 0.103185 0
0.025440 0.069543 0
0.019908 0.041633 0
0.014025 0.020344 0
0.008060 0.005636 0
0.002475 -0.002982 0
-0.001827 -0.005921 0
-0.004826 -0.004762 0
-0.006995 -0.001679 0
-0.008473 0.002188 0
-0.009233 0.006237 0
-0.009333 0.010018 0
-0.008871 0.013019 0
-0.007926 0.014688 0
-0.006446 0.014450 0
-0.004140 0.011560 0
-0.000136 0.004331 0
0.006405 -0.008702 0
0.014014 -0.027017 0
0.021391 -0.049369 0
0.027546 -0.074725 0
0.032051 -0.102201 0
0.034768 -0.131259 0
0.035653 -0.161651 0
0.034685 -0.193400 0
0.031849 -0.226860 0
0.027144 -0.262921 0
0.020605 -0.303681 0
0.012338 -0.352377 0
0.003524 -0.367823 0
-0.000046 0.000013 0
0.000000 0.178262 0
0.000000 -0.000003 0
0.019784 0.186847 0
0.034162 0.247081 0
0.043612 0.268743 0
0.050331 0.273083 0
0.054826 0.264361 0
0.057060 0.244570 0
0.056979 0.216109 0
0.054649 0.181908 0
0.050285 0.145152 0
0.044230 0.108979 0
0.036934 0.076175 0
0.028917 0.048727 0
0.020657 0.027569 0
0.012566 0.012671 0
0.004977 0.003205 0
-0.001566 -0.001350 0
-0.006159 -0.001679 0
-0.009089 0.000437 0
-0.010923 0.003479 0
-0.011821 0.006733 0
-0.011812 0.009747 0
-0.010887 0.012007 0
-0.009002 0.012891 0
-0.005955 0.011628 0
-0.001059 0.006941 0
0.006166 -0.002646 0
0.014661 -0.016948 0
0.023099 -0.035012 0
0.030673 -0.056313 0
0.036800 -0.080110 0
0.041171 -0.105794 0
0.043633 -0.132959 0
0.044098 -0.161406 0
0.042510 -0.191179 0
0.038843 -0.222657 0
0.033107 -0.256761 0
0.025365 -0.295652 0
0.015765 -0.343115 0
0.005429 -0.360770 0
-0.000044 0.000013 0
0.000000 0.176005 0
0.000000 -0.000002 0
0.023416 0.167691 0
0.042014 0.233234 0
0.054833 0.259197 0
0.064033 0.266417 0
0.070347 0.260281 0
0.073794 0.243121 0
0.074305 0.217293 0
0.071935 0.185579 0
0.066923 0.150997 0
0.059693 0.116535 0
0.050837 0.084856 0
0.041072 0.057910 0
0.031103 0.036695 0
0.021522 0.021316 0
0.012748 0.011150 0
0.004934 0.005215 0
-0.001201 0.002761 0
-0.005301 0.003085 0
-0.007601 0.004920 0
-0.008490 0.007125 0
-0.008151 0.009084 0
-0.006559 0.010209 0
-0.003481 0.009756 0
0.001488 0.006508 0
0.008665 -0.000561 0
0.017277 -0.011390 0
0.026027 -0.025635 0
0.034333 -0.043029 0
0.041569 -0.063070 0
0.047290 -0.085222 0
0.051205 -0.109034 0
0.053124 -0.134186 0
0.052917 -0.160528 0
0.050501 -0.188145 0
0.045842 -0.217457 0
0.038962 -0.249443 0
0.029952 -0.286339 0
0.019007 -0.332441 0
0.007205 -0.352058 0
-0.000043 0.000012 0
0.000000 0.172832 0
0.000000 -0.000002 0
0.026286 0.144833 0
0.048767 0.215664 0
0.064925 0.246724 0
0.076669 0.257569 0
0.084935 0.254600 0
0.089853 0.240612 0
0.091362 0.217968 0
0.089506 0.189290 0
0.084534 0.157393 0
0.076914 0.125065 0
0.067324 0.094796 0
0.056598 0.068462 0
0.045588 0.047119 0
0.035035 0.031026 0
0.025494 0.019793 0
0.017257 0.012598 0
0.010478 0.008556 0
0.005483 0.006837 0
0.002553 0.006667 0
0.001522 0.007283 0
0.002225 0.007817 0
0.004608 0.007337 0
0.008941 0.004844 0
0.015370 -0.000519 0
0.023173 -0.008848 0
0.031504 -0.020007 0
0.039813 -0.034003 0
0.047503 -0.050555 0
0.054054 -0.069270 0
0.059063 -0.089745 0
0.062229 -0.111628 0
0.063327 -0.134671 0
0.062197 -0.158784 0
0.058740 -0.184105 0
0.052920 -0.211117 0
0.044773 -0.240872 0
0.034422 -0.275696 0
0.022106 -0.320368 0
0.008881 -0.341764 0
-0.000042 0.000012 0
0.000000 0.168799 0
0.000000 -0.000001 0
0.028078 0.118924 0
0.053921 0.194595 0
0.073361 0.231294 0
0.087791 0.246407 0
0.098223 0.247097 0
0.104914 0.236694 0
0.107845 0.217640 0
0.107061 0.192407 0
0.102810 0.163589 0
0.095576 0.133746 0
0.086071 0.105172 0
0.075174 0.079646 0
0.063806 0.058257 0
0.052798 0.041409 0
0.042810 0.028929 0
0.034272 0.020231 0
0.027389 0.014535 0
0.022313 0.011010 0
0.019143 0.008881 0
0.017995 0.007453 0
0.018900 0.005998 0
0.021820 0.003494 0
0.026774 -0.001006 0
0.033253 -0.007725 0
0.040534 -0.016695 0