# vtk DataFile Version 2.0
generated by CFD-lab course output (written by Tobias Neckel) 
ASCII

DATASET STRUCTURED_GRID
DIMENSIONS  42 42 1 
POINTS 1764 float

0.150000 0.150000 0
0.167857 0.150000 0
0.185714 0.150000 0
0.203571 0.150000 0
0.221429 0.150000 0
0.239286 0.150000 0
0.257143 0.150000 0
0.275000 0.150000 0
0.292857 0.150000 0
0.310714 0.150000 0
0.328571 0.150000 0
0.346429 0.150000 0
0.364286 0.150000 0
0.382143 0.150000 0
0.400000 0.150000 0
0.417857 0.150000 0
0.435714 0.150000 0
0.453571 0.150000 0
0.471429 0.150000 0
0.489286 0.150000 0
0.507143 0.150000 0
0.525000 0.150000 0
0.542857 0.150000 0
0.560714 0.150000 0
0.578571 0.150000 0
0.596429 0.150000 0
0.614286 0.150000 0
0.632143 0.150000 0
0.650000 0.150000 0
0.667857 0.150000 0
0.685714 0.150000 0
0.703571 0.150000 0
0.721429 0.150000 0
0.739286 0.150000 0
0.757143 0.150000 0
0.775000 0.150000 0
0.792857 0.150000 0
0.810714 0.150000 0
0.828571 0.150000 0
0.846429 0.150000 0
0.864286 0.150000 0
0.882143 0.150000 0
0.150000 0.167857 0
0.167857 0.167857 0
0.185714 0.167857 0
0.203571 0.167857 0
0.221429 0.167857 0
0.239286 0.167857 0
0.257143 0.167857 0
0.275000 0.167857 0
0.292857 0.167857 0
0.310714 0.167857 0
0.328571 0.167857 0
0.346429 0.167857 0
0.364286 0.167857 0
0.382143 0.167857 0
0.400000 0.167857 0
0.417857 0.167857 0
0.435714 0.167857 0
0.453571 0.167857 0
0.471429 0.167857 0
0.489286 0.167857 0
0.507143 0.167857 0
0.525000 0.167857 0
0.542857 0.167857 0
0.560714 0.167857 0
0.578571 0.167857 0
0.596429 0.167857 0
0.614286 0.167857 0
0.632143 0.167857 0
0.650000 0.167857 0
0.667857 0.167857 0
0.685714 0.167857 0
0.703571 0.167857 0
0.721429 0.167857 0
0.739286 0.167857 0
0.757143 0.167857 0
0.775000 0.167857 0
0.792857 0.167857 0
0.810714 0.167857 0
0.828571 0.167857 0
0.846429 0.167857 0
0.864286 0.167857 0
0.882143 0.167857 0
0.150000 0.185714 0
0.167857 0.185714 0
0.185714 0.185714 0
0.203571 0.185714 0
0.221429 0.185714 0
0.239286 0.185714 0
0.257143 0.185714 0
0.275000 0.185714 0
0.292857 0.185714 0
0.310714 0.185714 0
0.328571 0.185714 0
0.346429 0.185714 0
0.364286 0.185714 0
0.382143 0.185714 0
0.400000 0.185714 0
0.417857 0.185714 0
0.435714 0.185714 0
0.453571 0.185714 0
0.471429 0.185714 0
0.489286 0.185714 0
0.507143 0.185714 0
0.525000 0.185714 0
0.542857 0.185714 0
0.560714 0.185714 0
0.578571 0.185714 0
0.596429 0.185714 0
0.614286 0.185714 0
0.632143 0.185714 0
0.650000 0.185714 0
0.667857 0.185714 0
0.685714 0.185714 0
0.703571 0.185714 0
0.721429 0.185714 0
0.739286 0.185714 0
0.757143 0.185714 0
0.775000 0.185714 0
0.792857 0.185714 0
0.810714 0.185714 0
0.828571 0.185714 0
0.846429 0.185714 0
0.864286 0.185714 0
0.882143 0.185714 0
0.150000 0.203571 0
0.167857 0.203571 0
0.185714 0.203571 0
0.203571 0.203571 0
0.221429 0.203571 0
0.239286 0.203571 0
0.257143 0.203571 0
0.275000 0.203571 0
0.292857 0.203571 0
0.310714 0.203571 0
0.328571 0.203571 0
0.346429 0.203571 0
0.364286 0.203571 0
0.382143 0.203571 0
0.400000 0.203571 0
0.417857 0.203571 0
0.435714 0.203571 0
0.453571 0.203571 0
0.471429 0.203571 0
0.489286 0.203571 0
0.507143 0.203571 0
0.525000 0.203571 0
0.542857 0.203571 0
0.560714 0.203571 0
0.578571 0.203571 0
0.596429 0.203571 0
0.614286 0.203571 0
0.632143 0.203571 0
0.650000 0.203571 0
0.667857 0.203571 0
0.685714 0.203571 0
0.703571 0.203571 0
0.721429 0.203571 0
0.739286 0.203571 0
0.757143 0.203571 0
0.775000 0.203571 0
0.792857 0.203571 0
0.810714 0.203571 0
0.828571 0.203571 0
0.846429 0.203571 0
0.864286 0.203571 0
0.882143 0.203571 0
0.150000 0.221429 0
0.167857 0.221429 0
0.185714 0.221429 0
0.203571 0.221429 0
0.221429 0.221429 0
0.239286 0.221429 0
0.257143 0.221429 0
0.275000 0.221429 0
0.292857 0.221429 0
0.310714 0.221429 0
0.328571 0.221429 0
0.346429 0.221429 0
0.364286 0.221429 0
0.382143 0.221429 0
0.400000 0.221429 0
0.417857 0.221429 0
0.435714 0.221429 0
0.453571 0.221429 0
0.471429 0.221429 0
0.489286 0.221429 0
0.507143 0.221429 0
0.525000 0.221429 0
0.542857 0.221429 0
0.560714 0.221429 0
0.578571 0.221429 0
0.596429 0.221429 0
0.614286 0.221429 0
0.632143 0.221429 0
0.650000 0.221429 0
0.667857 0.221429 0
0.685714 0.221429 0
0.703571 0.221429 0
0.721429 0.221429 0
0.739286 0.221429 0
0.757143 0.221429 0
0.775000 0.221429 0
0.792857 0.221429 0
0.810714 0.221429 0
0.828571 0.221429 0
0.846429 0.221429 0
0.864286 0.221429 0
0.882143 0.221429 0
0.150000 0.239286 0
0.167857 0.239286 0
0.185714 0.239286 0
0.203571 0.239286 0
0.221429 0.239286 0
0.239286 0.239286 0
0.257143 0.239286 0
0.275000 0.239286 0
0.292857 0.239286 0
0.310714 0.239286 0
0.328571 0.239286 0
0.346429 0.239286 0
0.364286 0.239286 0
0.382143 0.239286 0
0.400000 0.239286 0
0.417857 0.239286 0
0.435714 0.239286 0
0.453571 0.239286 0
0.471429 0.239286 0
0.489286 0.239286 0
0.507143 0.239286 0
0.525000 0.239286 0
0.542857 0.239286 0
0.560714 0.239286 0
0.578571 0.239286 0
0.596429 0.239286 0
0.614286 0.239286 0
0.632143 0.239286 0
0.650000 0.239286 0
0.667857 0.239286 0
0.685714 0.239286 0
0.703571 0.239286 0
0.721429 0.239286 0
0.739286 0.239286 0
0.757143 0.239286 0
0.775000 0.239286 0
0.792857 0.239286 0
0.810714 0.239286 0
0.828571 0.239286 0
0.846429 0.239286 0
0.864286 0.239286 0
0.882143 0.239286 0
0.150000 0.257143 0
0.167857 0.257143 0
0.185714 0.257143 0
0.203571 0.257143 0
0.221429 0.257143 0
0.239286 0.257143 0
0.257143 0.257143 0
0.275000 0.257143 0
0.292857 0.257143 0
0.310714 0.257143 0
0.328571 0.257143 0
0.346429 0.257143 0
0.364286 0.257143 0
0.382143 0.257143 0
0.400000 0.257143 0
0.417857 0.257143 0
0.435714 0.257143 0
0.453571 0.257143 0
0.471429 0.257143 0
0.489286 0.257143 0
0.507143 0.257143 0
0.525000 0.257143 0
0.542857 0.257143 0
0.560714 0.257143 0
0.578571 0.257143 0
0.596429 0.257143 0
0.614286 0.257143 0
0.632143 0.257143 0
0.650000 0.257143 0
0.667857 0.257143 0
0.685714 0.257143 0
0.703571 0.257143 0
0.721429 0.257143 0
0.739286 0.257143 0
0.757143 0.257143 0
0.775000 0.257143 0
0.792857 0.257143 0
0.810714 0.257143 0
0.828571 0.257143 0
0.846429 0.257143 0
0.864286 0.257143 0
0.882143 0.257143 0
0.150000 0.275000 0
0.167857 0.275000 0
0.185714 0.275000 0
0.203571 0.275000 0
0.221429 0.275000 0
0.239286 0.275000 0
0.257143 0.275000 0
0.275000 0.275000 0
0.292857 0.275000 0
0.310714 0.275000 0
0.328571 0.275000 0
0.346429 0.275000 0
0.364286 0.275000 0
0.382143 0.275000 0
0.400000 0.275000 0
0.417857 0.275000 0
0.435714 0.275000 0
0.453571 0.275000 0
0.471429 0.275000 0
0.489286 0.275000 0
0.507143 0.275000 0
0.525000 0.275000 0
0.542857 0.275000 0
0.560714 0.275000 0
0.578571 0.275000 0
0.596429 0.275000 0
0.614286 0.275000 0
0.632143 0.275000 0
0.650000 0.275000 0
0.667857 0.275000 0
0.685714 0.275000 0
0.703571 0.275000 0
0.721429 0.275000 0
0.739286 0.275000 0
0.757143 0.275000 0
0.775000 0.275000 0
0.792857 0.275000 0
0.810714 0.275000 0
0.828571 0.275000 0
0.846429 0.275000 0
0.864286 0.275000 0
0.882143 0.275000 0
0.150000 0.292857 0
0.167857 0.292857 0
0.185714 0.292857 0
0.203571 0.292857 0
0.221429 0.292857 0
0.239286 0.292857 0
0.257143 0.292857 0
0.275000 0.292857 0
0.292857 0.292857 0
0.310714 0.292857 0
0.328571 0.292857 0
0.346429 0.292857 0
0.364286 0.292857 0
0.382143 0.292857 0
0.400000 0.292857 0
0.417857 0.292857 0
0.435714 0.292857 0
0.453571 0.292857 0
0.471429 0.292857 0
0.489286 0.292857 0
0.507143 0.292857 0
0.525000 0.292857 0
0.542857 0.292857 0
0.560714 0.292857 0
0.578571 0.292857 0
0.596429 0.292857 0
0.614286 0.292857 0
0.632143 0.292857 0
0.650000 0.292857 0
0.667857 0.292857 0
0.685714 0.292857 0
0.703571 0.292857 0
0.721429 0.292857 0
0.739286 0.292857 0
0.757143 0.292857 0
0.775000 0.292857 0
0.792857 0.292857 0
0.810714 0.292857 0
0.828571 0.292857 0
0.846429 0.292857 0
0.864286 0.292857 0
0.882143 0.292857 0
0.150000 0.310714 0
0.167857 0.310714 0
0.185714 0.310714 0
0.203571 0.310714 0
0.221429 0.310714 0
0.239286 0.310714 0
0.257143 0.310714 0
0.275000 0.310714 0
0.292857 0.310714 0
0.310714 0.310714 0
0.328571 0.310714 0
0.346429 0.310714 0
0.364286 0.310714 0
0.382143 0.310714 0
0.400000 0.310714 0
0.417857 0.310714 0
0.435714 0.310714 0
0.453571 0.310714 0
0.471429 0.310714 0
0.489286 0.310714 0
0.507143 0.310714 0
0.525000 0.310714 0
0.542857 0.310714 0
0.560714 0.310714 0
0.578571 0.310714 0
0.596429 0.310714 0
0.614286 0.310714 0
0.632143 0.310714 0
0.650000 0.310714 0
0.667857 0.310714 0
0.685714 0.310714 0
0.703571 0.310714 0
0.721429 0.310714 0
0.739286 0.310714 0
0.757143 0.310714 0
0.775000 0.310714 0
0.792857 0.310714 0
0.810714 0.310714 0
0.828571 0.310714 0
0.846429 0.310714 0
0.864286 0.310714 0
0.882143 0.310714 0
0.150000 0.328571 0
0.167857 0.328571 0
0.185714 0.328571 0
0.203571 0.328571 0
0.221429 0.328571 0
0.239286 0.328571 0
0.257143 0.328571 0
0.275000 0.328571 0
0.292857 0.328571 0
0.310714 0.328571 0
0.328571 0.328571 0
0.346429 0.328571 0
0.364286 0.328571 0
0.382143 0.328571 0
0.400000 0.328571 0
0.417857 0.328571 0
0.435714 0.328571 0
0.453571 0.328571 0
0.471429 0.328571 0
0.489286 0.328571 0
0.507143 0.328571 0
0.525000 0.328571 0
0.542857 0.328571 0
0.560714 0.328571 0
0.578571 0.328571 0
0.596429 0.328571 0
0.614286 0.328571 0
0.632143 0.328571 0
0.650000 0.328571 0
0.667857 0.328571 0
0.685714 0.328571 0
0.703571 0.328571 0
0.721429 0.328571 0
0.739286 0.328571 0
0.757143 0.328571 0
0.775000 0.328571 0
0.792857 0.328571 0
0.810714 0.328571 0
0.828571 0.328571 0
0.846429 0.328571 0
0.864286 0.328571 0
0.882143 0.328571 0
0.150000 0.346429 0
0.167857 0.346429 0
0.185714 0.346429 0
0.203571 0.346429 0
0.221429 0.346429 0
0.239286 0.346429 0
0.257143 0.346429 0
0.275000 0.346429 0
0.292857 0.346429 0
0.310714 0.346429 0
0.328571 0.346429 0
0.346429 0.346429 0
0.364286 0.346429 0
0.382143 0.346429 0
0.400000 0.346429 0
0.417857 0.346429 0
0.435714 0.346429 0
0.453571 0.346429 0
0.471429 0.346429 0
0.489286 0.346429 0
0.507143 0.346429 0
0.525000 0.346429 0
0.542857 0.346429 0
0.560714 0.346429 0
0.578571 0.346429 0
0.596429 0.346429 0
0.614286 0.346429 0
0.632143 0.346429 0
0.650000 0.346429 0
[...]
POINT_DATA 1764 

VECTORS velocity float
0.000000 0.000000 0
0.000042 0.000000 0
0.000039 0.000000 0
0.000034 0.000000 0
0.000024 0.000000 0
0.000015 0.000000 0
0.000019 0.000000 0
0.000026 0.000000 0
0.000033 0.000000 0
0.000041 0.000000 0
0.000048 0.000000 0
0.000054 0.000000 0
0.000059 0.000000 0
0.000063 0.000000 0
0.000066 0.000000 0
0.000068 0.000000 0
0.000070 0.000000 0
0.000070 0.000000 0
0.000070 0.000000 0
0.000069 0.000000 0
0.000068 0.000000 0
0.000067 0.000000 0
0.000065 0.000000 0
0.000064 0.000000 0
0.000062 0.000000 0
0.000060 0.000000 0
0.000057 0.000000 0
0.000055 0.000000 0
0.000053 0.000000 0
0.000050 0.000000 0
0.000047 0.000000 0
0.000043 0.000000 0
0.000039 0.000000 0
0.000034 0.000000 0
0.000029 0.000000 0
0.000024 0.000000 0
0.000018 0.000000 0
0.000012 0.000000 0
0.000006 0.000000 0
0.000002 0.000000 0
0.000000 0.000000 0
0.000000 0.000000 0
0.000000 -0.000042 0
0.049860 -0.041624 0
0.072114 -0.021133 0
0.037446 -0.008930 0
-0.025041 0.042795 0
-0.115049 0.099895 0
-0.219864 0.112812 0
-0.324249 0.108751 0
-0.421803 0.100361 0
-0.508599 0.088880 0
-0.583183 0.076474 0
-0.645564 0.064357 0
-0.696663 0.053279 0
-0.737818 0.043570 0
-0.770479 0.035294 0
-0.796015 0.028366 0
-0.815633 0.022622 0
-0.830354 0.017879 0
-0.841026 0.013972 0
-0.848354 0.010757 0
-0.852923 0.008117 0
-0.855218 0.005947 0
-0.855621 0.004154 0
-0.854476 0.002610 0
-0.852022 0.001182 0
-0.848321 -0.000266 0
-0.843293 -0.001911 0
-0.836698 -0.003945 0
-0.828097 -0.006607 0
-0.816809 -0.010195 0
-0.801841 -0.015133 0
-0.781777 -0.021959 0
-0.754684 -0.031312 0
-0.717986 -0.043957 0
-0.668358 -0.060688 0
-0.601732 -0.082072 0
-0.513637 -0.107692 0
-0.400430 -0.134396 0
-0.262620 -0.151252 0
-0.113416 -0.123668 0
-0.000526 0.000002 0
0.000000 0.046107 0
0.000000 -0.000063 0
0.010031 -0.072114 0
-0.026457 0.012414 0
-0.107691 0.097155 0
-0.216698 0.152495 0
-0.305904 0.194823 0
-0.391361 0.209200 0
-0.474197 0.201939 0
-0.548639 0.184350 0
-0.612571 0.161380 0
-0.665473 0.136965 0
-0.707997 0.113480 0
-0.741359 0.092254 0
-0.766944 0.073817 0
-0.786062 0.058197 0
-0.799835 0.045154 0
-0.809182 0.034339 0
-0.814850 0.025392 0
-0.817446 0.018000 0
-0.817478 0.011897 0
-0.815380 0.006864 0
-0.811516 0.002698 0
-0.806321 -0.000742 0
-0.800057 -0.003599 0
-0.792876 -0.006155 0
-0.784836 -0.008729 0
-0.775897 -0.011623 0
-0.765891 -0.015197 0
-0.754496 -0.019888 0
-0.741197 -0.026255 0
-0.725227 -0.035032 0
-0.705541 -0.047157 0
-0.680684 -0.063791 0
-0.648697 -0.086326 0
-0.606985 -0.116254 0
-0.552231 -0.154721 0
-0.480483 -0.201302 0
-0.387671 -0.251016 0
-0.271446 -0.287014 0
-0.135511 -0.262620 0
-0.000837 0.000006 0
0.000000 0.113421 0
0.000000 -0.000050 0
-0.057490 -0.015167 0
-0.145019 0.096589 0
-0.223577 0.181311 0
-0.308488 0.241008 0
-0.384219 0.274558 0
-0.449049 0.281104 0
-0.505544 0.266028 0
-0.552498 0.238735 0
-0.590046 0.205715 0
-0.619066 0.171899 0
-0.640910 0.140243 0
-0.656985 0.112227 0
-0.668500 0.088272 0
-0.676375 0.068184 0
-0.681257 0.051486 0
-0.683593 0.037637 0
-0.683715 0.026143 0
-0.681895 0.016600 0
-0.678393 0.008691 0
-0.673462 0.002154 0
-0.667504 -0.003112 0
-0.660799 -0.007305 0
-0.653484 -0.010835 0
-0.645647 -0.014039 0
-0.637374 -0.017245 0
-0.628663 -0.020856 0
-0.619419 -0.025346 0
-0.609428 -0.031302 0
-0.598340 -0.039464 0
-0.585637 -0.050789 0
-0.570606 -0.066502 0
-0.552253 -0.088156 0
-0.529214 -0.117656 0
-0.499597 -0.157154 0
-0.460791 -0.208573 0
-0.409218 -0.272252 0
-0.340151 -0.343433 0
-0.248082 -0.403412 0
-0.129576 -0.395114 0
-0.001032 0.000010 0
0.000000 0.181626 0
0.000000 -0.000024 0
-0.097638 0.072905 0
-0.183575 0.178501 0
-0.263488 0.260624 0
-0.334918 0.313137 0
-0.394423 0.335384 0
-0.440691 0.330524 0
-0.476115 0.305388 0
-0.502022 0.268852 0
-0.520263 0.227947 0
-0.532748 0.187829 0
-0.541210 0.151399 0
-0.546938 0.119845 0
-0.550715 0.093207 0
-0.552903 0.070953 0
-0.553589 0.052372 0
-0.552739 0.036797 0
-0.550313 0.023695 0
-0.546329 0.012678 0
-0.540900 0.003464 0
-0.534279 -0.004025 0
-0.526846 -0.009965 0
-0.518697 -0.014763 0
-0.510070 -0.018751 0
-0.501204 -0.022264 0
-0.492255 -0.025713 0
-0.483293 -0.029578 0
-0.474296 -0.034432 0
-0.465144 -0.040967 0
-0.455615 -0.050046 0
-0.445383 -0.062767 0
-0.433998 -0.080541 0
-0.420847 -0.105182 0
-0.405073 -0.138982 0
-0.385426 -0.184678 0
-0.360013 -0.245100 0
-0.325834 -0.321942 0
-0.278089 -0.412153 0
-0.209549 -0.497589 0
-0.112564 -0.510702 0
-0.001093 0.000015 0
0.000000 0.243007 0
0.000000 -0.000008 0
-0.097874 0.168408 0
-0.185411 0.262440 0
-0.260066 0.332654 0
-0.320604 0.371942 0
-0.366613 0.380331 0
-0.398697 0.362796 0
-0.419654 0.327359 0
-0.432178 0.282883 0
-0.439129 0.236441 0
-0.442946 0.192846 0
-0.445367 0.154432 0
-0.447287 0.121733 0
-0.448895 0.094238 0
-0.449924 0.071057 0
-0.449921 0.051323 0
-0.448441 0.034362 0
-0.445170 0.019733 0
-0.439974 0.007187 0
-0.432897 -0.003359 0
-0.424412 -0.011899 0
-0.414655 -0.018695 0
-0.404057 -0.024081 0
-0.393070 -0.028327 0
-0.382081 -0.031854 0
-0.371369 -0.035157 0
-0.361100 -0.038814 0
-0.351321 -0.043495 0
-0.341976 -0.049983 0
-0.332918 -0.059225 0
-0.323924 -0.072406 0
-0.314704 -0.091037 0
-0.304884 -0.117081 0
-0.293959 -0.153077 0
-0.281178 -0.202213 0
-0.265300 -0.268166 0
-0.244104 -0.354177 0
-0.213442 -0.459718 0
-0.165884 -0.568937 0
-0.091437 -0.604662 0
-0.001043 0.000021 0
0.000000 0.294200 0
0.000000 0.000002 0
-0.087846 0.258315 0
-0.168281 0.340694 0
-0.234344 0.395817 0
-0.285000 0.419684 0
-0.320681 0.413478 0
-0.343092 0.383564 0
-0.355445 0.338869 0
-0.361146 0.288327 0
-0.363509 0.238716 0
-0.365049 0.194067 0
-0.367163 0.155740 0
-0.370134 0.123373 0
-0.373473 0.095844 0
-0.376324 0.071979 0
-0.377790 0.050889 0
-0.377132 0.032046 0
-0.373880 0.015227 0
-0.367857 0.000405 0
-0.359201 -0.012098 0
-0.348283 -0.022267 0
-0.335556 -0.030319 0
-0.321755 -0.036347 0
-0.307537 -0.040727 0
-0.293492 -0.043966 0
-0.280070 -0.046694 0
-0.267569 -0.049626 0
-0.256123 -0.053556 0
-0.245730 -0.059371 0
-0.236283 -0.068098 0
-0.227598 -0.080980 0
-0.219443 -0.099581 0
-0.211547 -0.125927 0
-0.203588 -0.162688 0
-0.195109 -0.213337 0
-0.185346 -0.282175 0
-0.172838 -0.373800 0
-0.154527 -0.490373 0
-0.123956 -0.619594 0
-0.070310 -0.676586 0
-0.000921 0.000026 0
0.000000 0.334454 0
0.000000 0.000007 0
-0.073992 0.336689 0
-0.143058 0.408938 0
-0.199047 0.449373 0
-0.240770 0.458280 0
-0.268806 0.438423 0
-0.285254 0.397560 0
-0.293486 0.345413 0
-0.297147 0.290946 0
-0.299567 0.240345 0
-0.302948 0.196501 0
-0.308076 0.159517 0
-0.314541 0.128043 0
-0.321260 0.100428 0
-0.326958 0.075374 0
-0.330476 0.052131 0
-0.330935 0.030452 0
-0.327815 0.010458 0
-0.320962 -0.007492 0
-0.310682 -0.022934 0
-0.297309 -0.035544 0
-0.281718 -0.045222 0
-0.264745 -0.052101 0
-0.247245 -0.056591 0
-0.229982 -0.059321 0
-0.213583 -0.061079 0
-0.198493 -0.062762 0
-0.184969 -0.065334 0
-0.173086 -0.069823 0
-0.162784 -0.077357 0
-0.153907 -0.089246 0
-0.146231 -0.107088 0
-0.139514 -0.132936 0
-0.133494 -0.169515 0
-0.127837 -0.220455 0
-0.122032 -0.290437 0
-0.115158 -0.384995 0
-0.105245 -0.508599 0
-0.087442 -0.653154 0
-0.051409 -0.728619 0
-0.000766 0.000031 0
0.000000 0.364520 0
0.000000 0.000010 0
-0.058940 0.401373 0
-0.115415 0.465750 0
-0.161197 0.493529 0
-0.195072 0.489443 0
-0.217551 0.457962 0
-0.230715 0.408245 0
-0.237796 0.350762 0
-0.242300 0.294408 0
-0.247199 0.244516 0
-0.254104 0.202575 0
-0.263108 0.167333 0
-0.273228 0.136558 0
-0.283027 0.108261 0
-0.291053 0.081195 0
-0.296078 0.054866 0
-0.297216 0.029385 0
-0.293968 0.005254 0
-0.286202 -0.016728 0
-0.274405 -0.035751 0
-0.259186 -0.051231 0
-0.241447 -0.062883 0
-0.222132 -0.070820 0
-0.202184 -0.075490 0
-0.182470 -0.077629 0
-0.163723 -0.078184 0
-0.146513 -0.078239 0
-0.131217 -0.078962 0
-0.117997 -0.081556 0
-0.106864 -0.087278 0
-0.097714 -0.097533 0
-0.090339 -0.113974 0
-0.084509 -0.138664 0
-0.079973 -0.174366 0
-0.076430 -0.224799 0
-0.073471 -0.294854 0
-0.070461 -0.390587 0
-0.066229 -0.518088 0
-0.057596 -0.673431 0
-0.035642 -0.764028 0
-0.000610 0.000035 0
0.000000 0.385873 0
0.000000 0.000013 0
-0.044020 0.452104 0
-0.088078 0.511195 0
-0.124206 0.529029 0
-0.151297 0.514633 0
-0.169720 0.474066 0
-0.181280 0.417806 0
-0.188806 0.356998 0
-0.195331 0.300349 0
-0.203212 0.252149 0
-0.213374 0.212409 0
-0.225359 0.178641 0
-0.237891 0.147962 0
-0.249462 0.118253 0
-0.258652 0.088425 0
-0.264285 0.058295 0
-0.265515 0.028342 0
-0.261890 -0.000556 0
-0.253393 -0.027055 0
-0.240596 -0.049950 0
-0.224286 -0.068501 0
-0.205393 -0.082276 0
-0.184897 -0.091364 0
-0.163757 -0.096254 0
-0.142860 -0.097782 0
-0.122969 -0.097036 0
-0.104700 -0.095268 0
-0.088529 -0.093849 0
-0.074669 -0.094176 0
-0.063209 -0.097640 0
-0.054108 -0.105771 0
-0.047196 -0.120294 0
-0.042269 -0.143303 0
-0.039081 -0.177593 0
-0.037337 -0.226957 0
-0.036665 -0.296407 0
-0.036567 -0.392238 0
-0.036338 -0.521464 0
-0.034179 -0.683741 0
-0.023079 -0.786215 0
-0.000471 0.000039 0
0.000000 0.400171 0
0.000000 0.000017 0
-0.029827 0.489452 0
-0.062134 0.545936 0
-0.089345 0.556747 0
-0.110519 0.534956 0
-0.125842 0.487945 0
-0.136657 0.427331 0
-0.145147 0.364813 0
-0.153628 0.308815 0
-0.163719 0.262559 0
-0.175770 0.224722 0
-0.189055 0.191851 0
-0.202315 0.160661 0
-0.214195 0.129021 0
-0.223437 0.096017 0
-0.228951 0.061729 0
-0.229899 0.026990 0
-0.225825 -0.006867 0
-0.216848 -0.038022 0
-0.203629 -0.064859 0
-0.187056 -0.086433 0
-0.168062 -0.102272 0
-0.147599 -0.112457 0
-0.126583 -0.117527 0
-0.105871 -0.118416 0
-0.086191 -0.116343 0
-0.068121 -0.112680 0
-0.052198 -0.108994 0
-0.038649 -0.106875 0
-0.027639 -0.107838 0
-0.019168 -0.113546 0
-0.013124 -0.125813 0
-0.009339 -0.146780 0
-0.007565 -0.179298 0
-0.007507 -0.227215 0
-0.008824 -0.295624 0
-0.011092 -0.390914 0
-0.013842 -0.520476 0
-0.016261 -0.686689 0
-0.013356 -0.798207 0
-0.000358 0.000043 0
0.000000 0.408959 0
0.000000 0.000022 0
-0.016506 0.514238 0
-0.037817 0.570713 0
-0.056736 0.577414 0
-0.072543 0.551130 0
-0.085218 0.500204 0
-0.095535 0.437110 0
-0.104839 0.373969 0
-0.114554 0.318921 0
-0.125547 0.274291 0
-0.137797 0.237745 0
-0.150596 0.205186 0
-0.162937 0.173103 0
-0.173769 0.139374 0
-0.182082 0.103181 0
-0.186911 0.064757 0
-0.187378 0.025215 0
-0.182924 -0.013607 0
-0.173771 -0.049251 0
-0.160772 -0.079742 0
-0.144807 -0.104068 0
-0.126775 -0.121732 0
-0.107538 -0.132842 0
-0.087911 -0.137982 0
-0.068674 -0.138175 0
-0.050491 -0.134786 0
-0.033862 -0.129261 0
-0.019289 -0.123321 0
-0.007006 -0.118734 0
0.002725 -0.117121 0
0.009901 -0.120287 0
0.014563 -0.130124 0
0.016873 -0.148862 0
0.017066 -0.179425 0
0.015419 -0.225697 0
0.012257 -0.292822 0
0.007963 -0.387219 0
0.002924 -0.516296 0
-0.002727 -0.684228 0
-0.005936 -0.802476 0
-0.000273 0.000046 0
0.000000 0.413533 0
0.000000 0.000029 0
-0.004206 0.527269 0
-0.014961 0.586165 0
-0.025912 0.591473 0
-0.036581 0.563438 0
-0.046702 0.510937 0
-0.056376 0.446952 0
-0.066014 0.383832 0
-0.076073 0.329522 0
-0.086719 0.285802 0
-0.097713 0.249771 0
-0.108541 0.216991 0
-0.118561 0.183834 0
-0.127111 0.148167 0
-0.133515 0.109159 0
-0.137035 0.067024 0
-0.136827 0.023004 0
-0.132152 -0.020474 0
-0.123331 -0.060174 0
-0.111235 -0.093822 0
-0.096749 -0.120430 0
-0.080683 -0.139541 0
-0.063783 -0.151321 0
-0.046710 -0.156392 0
-0.030102 -0.155836 0
-0.014504 -0.151154 0
-0.000459 -0.143882 0
0.011771 -0.135850 0
0.021830 -0.128890 0
0.029547 -0.124745 0
0.034840 -0.125384 0
0.037703 -0.132785 0
0.038269 -0.149282 0
0.036738 -0.177844 0
0.033361 -0.222406 0
0.028445 -0.288168 0
0.022319 -0.381580 0
0.015262 -0.509786 0
0.007250 -0.677830 0
-0.000230 -0.800934 0
-0.000208 0.000048 0
0.000000 0.414900 0
0.000000 0.000037 0
0.006944 0.529199 0
0.006516 0.592419 0
0.003558 0.599034 0
-0.001616 0.571921 0
-0.008823 0.519999 0
-0.017527 0.456422 0
-0.027137 0.393667 0
-0.036998 0.339626 0
-0.046547 0.295930 0
-0.055378 0.259567 0
-0.063320 0.226034 0
-0.070123 0.191673 0
-0.075505 0.154328 0
-0.079131 0.113106 0
-0.080563 0.068069 0
-0.079209 0.020332 0
-0.074292 -0.027104 0
-0.066295 -0.070168 0
-0.055768 -0.106324 0
-0.043539 -0.134621 0
-0.030273 -0.154698 0
-0.016606 -0.166816 0
-0.003080 -0.171664 0
0.009887 -0.170381 0
0.021895 -0.164428 0
0.032536 -0.155535 0
0.041607 -0.145610 0
0.048743 -0.136510 0
0.053841 -0.130132 0
0.056765 -0.128443 0
0.057489 -0.133553 0
0.056094 -0.147897 0
0.052740 -0.174516 0
0.047655 -0.217404 0
0.041105 -0.281780 0
0.033337 -0.374037 0
0.024478 -0.501227 0
0.014492 -0.668736 0
0.004097 -0.795225 0
-0.000158 0.000050 0
0.000000 0.413767 0
0.000000 0.000046 0
0.017139 0.520753 0
0.026666 0.589551 0
0.031820 0.599604 0
0.032788 0.575820 0
0.029368 0.526849 0
0.022380 0.465266 0
0.013300 0.403303 0
0.003881 0.348932 0
-0.004502 0.304182 0
-0.011183 0.266543 0
-0.016140 0.231736 0
-0.019512 0.196019 0
-0.021369 0.157175 0
-0.021653 0.114218 0
-0.020198 0.067102 0
-0.016887 0.016733 0
-0.011572 -0.033388 0
-0.004622 -0.078698 0
0.003766 -0.116578 0
0.013089 -0.145925 0
0.022861 -0.166473 0
0.032632 -0.178514 0
0.042006 -0.182885 0
0.050714 -0.180812 0
0.058487 -0.173804 0
0.065144 -0.163594 0
0.070438 -0.152056 0
0.074157 -0.141124 0
0.076144 -0.132768 0
0.076299 -0.129032 0
0.074587 -0.132113 0
0.071057 -0.144533 0
0.065834 -0.169405 0
0.059100 -0.210771 0
0.051065 -0.273850 0
0.041888 -0.364953 0
0.031579 -0.490942 0
0.019917 -0.657449 0
0.007307 -0.786442 0
-0.000123 0.000051 0
0.000000 0.410807 0
0.000000 0.000055 0
0.026564 0.502533 0
0.045602 0.577738 0
0.058870 0.592912 0
0.066457 0.574372 0
0.067863 0.530407 0
0.063837 0.472490 0
0.056322 0.412166 0
0.047810 0.357427 0
0.040449 0.310994 0
0.035382 0.271205 0
0.032843 0.234364 0
0.032497 0.196902 0
0.033973 0.156469 0
0.037030 0.111934 0
0.041476 0.063303 0
0.046844 0.011706 0
0.052704 -0.039369 0
0.058770 -0.085505 0
0.064960 -0.124034 0
0.071143 -0.153716 0
0.077074 -0.174241 0
0.082549 -0.185960 0
0.087399 -0.189745 0
0.091478 -0.186862 0
0.094670 -0.178859 0
0.096872 -0.167487 0
0.097976 -0.154623 0
0.097863 -0.142216 0
0.096430 -0.132273 0
0.093594 -0.126885 0
0.089316 -0.128311 0
0.083615 -0.139143 0
0.076571 -0.162559 0
0.068311 -0.202636 0
0.058970 -0.264567 0
0.048602 -0.354550 0
0.037089 -0.479257 0
0.024095 -0.644465 0
0.009758 -0.775308 0
-0.000100 0.000052 0
0.000000 0.406462 0
0.000000 0.000063 0
0.035167 0.475152 0
0.063133 0.557245 0
0.084371 0.578749 0
0.098957 0.566827 0
0.106161 0.529469 0
0.106497 0.476807 0
0.101936 0.419331 0
0.095291 0.364805 0
0.089253 0.316609 0
0.085541 0.274150 0
0.084761 0.234621 0
0.086688 0.194889 0
0.090798 0.152641 0
0.096523 0.106714 0
0.103230 0.057288 0
0.110128 0.005504 0
0.116383 -0.045314 0
0.121548 -0.090954 0
0.125613 -0.128952 0
0.128619 -0.158039 0
0.130595 -0.177879 0
0.131581 -0.188839 0
0.131629 -0.191813 0
0.130798 -0.188082 0
0.129139 -0.179198 0
0.126688 -0.166900 0
0.123449 -0.153047 0
0.119393 -0.139578 0
0.114473 -0.128499 0
0.108631 -0.121919 0
0.101825 -0.122135 0
0.094046 -0.131788 0
0.085323 -0.154101 0
0.075719 -0.193170 0
0.065276 -0.254140 0
0.053939 -0.343073 0
0.041460 -0.466435 0
0.027383 -0.630118 0
0.011670 -0.762347 0
-0.000084 0.000052 0
0.000000 0.401050 0
0.000000 0.000068 0
0.042724 0.439400 0
0.078784 0.528534 0
0.107589 0.557088 0
0.129304 0.552582 0
0.143059 0.522867 0
0.149066 0.476716 0
0.149032 0.423372 0
0.145693 0.370110 0
0.141919 0.320744 0
0.139848 0.275697 0
0.140524 0.233217 0
0.144017 0.190865 0
0.149822 0.146634 0
0.157162 0.099502 0
0.165075 0.049697 0
0.172672 -0.001447 0
0.178516 -0.050789 0
0.182209 -0.094735 0
0.183754 -0.131105 0
0.183326 -0.158699 0
0.181171 -0.177203 0
0.177557 -0.186994 0
0.172755 -0.188962 0
0.167012 -0.184372 0
0.160545 -0.174750 0
0.153521 -0.161797 0
0.146053 -0.147328 0
0.138196 -0.133240 0
0.129953 -0.121511 0
0.121291 -0.114238 0
0.112163 -0.113726 0
0.102527 -0.122642 0
0.092360 -0.144232 0
0.081646 -0.182589 0
0.070330 -0.242787 0
0.058235 -0.330734 0
0.044990 -0.452701 0
0.030039 -0.614674 0
0.013203 -0.747925 0
-0.000074 0.000052 0
0.000000 0.394792 0
0.000000 0.000070 0
0.048897 0.396368 0
0.091870 0.492380 0
0.127490 0.528228 0
0.156090 0.531356 0
0.176757 0.509706 0
0.189380 0.470835 0
0.195238 0.422704 0
0.196709 0.371918 0
0.196509 0.322454 0
0.196906 0.275544 0
0.199257 0.230452 0
0.203945 0.185591 0
0.210618 0.139496 0
0.218448 0.091462 0
0.226322 0.041779 0
0.233132 -0.007937 0
0.237423 -0.054851 0
0.238794 -0.096191 0
0.237254 -0.130069 0
0.233079 -0.155456 0
0.226676 -0.172110 0
0.218499 -0.180423 0
0.208995 -0.181268 0
0.198577 -0.175872 0
0.187601 -0.165707 0
0.176351 -0.152409 0
0.165029 -0.137723 0
0.153755 -0.123477 0
0.142572 -0.111593 0
0.131462 -0.104129 0
0.120367 -0.103371 0
0.109208 -0.111985 0
0.097903 -0.133220 0
0.086353 -0.171139 0
0.074400 -0.230729 0
0.061746 -0.317732 0
0.047907 -0.438239 0
0.032243 -0.598331 0
0.014469 -0.732308 0
-0.000068 0.000051 0
0.000000 0.387846 0
0.000000 0.000068 0
0.053228 0.347530 0
0.101562 0.449941 0
0.142900 0.492868 0
0.177722 0.503315 0
0.205154 0.489577 0
0.224769 0.458234 0
0.237347 0.416042 0
0.244740 0.368840 0
0.249277 0.320546 0
0.253084 0.272950 0
0.257609 0.226178 0
0.263446 0.179504 0
0.270417 0.132131 0
0.277772 0.083798 0
0.284419 0.035014 0
0.289112 -0.012548 0
0.290768 -0.056451 0
0.288999 -0.094566 0
0.283867 -0.125390 0
0.275733 -0.148121 0
0.265121 -0.162623 0
0.252614 -0.169313 0
0.238791 -0.169041 0
0.224185 -0.162978 0
0.209256 -0.152523 0
0.194373 -0.139224 0
0.179803 -0.124732 0
0.165708 -0.110783 0
0.152150 -0.099218 0
0.139114 -0.092033 0
0.126521 -0.091472 0
0.114251 -0.100178 0
0.102161 -0.121378 0
0.090068 -0.159085 0
0.077709 -0.218180 0
0.064677 -0.304242 0
0.050386 -0.423198 0
0.034133 -0.581236 0
0.015552 -0.715682 0
-0.000064 0.000050 0
0.000000 0.380321 0
0.000000 0.000060 0
0.054997 0.294806 0
0.106881 0.402708 0
0.152662 0.452068 0
0.192735 0.469102 0
0.226287 0.462659 0
0.252631 0.438642 0
0.272043 0.402733 0
0.285788 0.359989 0
0.295675 0.314110 0
0.303502 0.267212 0
0.310606 0.220091 0
0.317645 0.172784 0
0.324581 0.125169 0
0.330816 0.077459 0
0.335411 0.030439 0
0.337247 -0.014286 0
0.335603 -0.054738 0
0.330246 -0.089290 0
0.321339 -0.116803 0
0.309329 -0.136711 0
0.294821 -0.148991 0
0.278484 -0.154093 0
0.260979 -0.152839 0
0.242917 -0.146337 0
0.224825 -0.135895 0
0.207117 -0.122956 0
0.190093 -0.109057 0
0.173929 -0.095824 0
0.158690 -0.085000 0
0.144346 -0.078499 0
0.130790 -0.078509 0
0.117862 -0.087626 0
0.105353 -0.109036 0
0.093003 -0.146687 0
0.080453 -0.205338 0
0.067197 -0.290410 0
0.052569 -0.407695 0
0.035815 -0.563496 0
0.016515 -0.698175 0
-0.000062 0.000049 0
0.000000 0.372292 0
0.000000 0.000044 0
0.053248 0.240649 0
0.106802 0.352275 0
0.155809 0.407014 0
0.200064 0.429690 0
0.238747 0.429680 0
0.270998 0.412478 0
0.296666 0.382885 0
0.316451 0.345208 0
0.331610 0.302833 0
0.343516 0.258019 0
0.353273 0.212035 0
0.361487 0.165528 0
0.368213 0.118960 0
0.373032 0.072968 0
0.375250 0.028582 0
0.374053 -0.012740 0
0.369049 -0.049450 0
0.360199 -0.080302 0
0.347800 -0.104473 0
0.332387 -0.121603 0
0.314629 -0.131778 0
0.295246 -0.135471 0
0.274948 -0.133475 0
0.254383 -0.126824 0
0.234100 -0.116723 0
0.214527 -0.104493 0
0.195962 -0.091543 0
0.178571 -0.079380 0
0.162402 -0.069635 0
0.147402 -0.064132 0
0.133432 -0.064988 0
0.120290 -0.074741 0
0.107714 -0.096519 0
0.095368 -0.134186 0
0.082813 -0.192374 0
0.069457 -0.276357 0
0.054574 -0.391815 0
0.037377 -0.545181 0
0.017409 -0.679867 0
-0.000063 0.000047 0
0.000000 0.363804 0
0.000000 0.000018 0
0.047361 0.188004 0
0.100738 0.300147 0
0.151878 0.358806 0
0.199286 0.386164 0
0.241951 0.391725 0
0.278915 0.380723 0
0.309732 0.357280 0
0.334638 0.325044 0
0.354381 0.287045 0
0.369904 0.245549 0
0.382028 0.202120 0
0.391251 0.157844 0
0.397680 0.113624 0
0.401086 0.070422 0
0.401047 0.029419 0
0.397141 -0.008085 0
0.389205 -0.040885 0
0.377422 -0.068041 0
0.362229 -0.088991 0
0.344242 -0.103539 0
0.324173 -0.111851 0
0.302773 -0.114412 0
0.280763 -0.111975 0
0.258793 -0.105489 0