# vtk DataFile Version 2.0
generated by CFD-lab course output (written by Tobias Neckel) 
ASCII

DATASET STRUCTURED_GRID
DIMENSIONS  42 42 1 
POINTS 1764 float

0.150000 0.150000 0
0.167857 0.150000 0
0.185714 0.150000 0
0.203571 0.150000 0
0.221429 0.150000 0
0.239286 0.150000 0
0.257143 0.150000 0
0.275000 0.150000 0
0.292857 0.150000 0
0.310714 0.150000 0
0.328571 0.150000 0
0.346429 0.150000 0
0.364286 0.150000 0
0.382143 0.150000 0
0.400000 0.150000 0
0.417857 0.150000 0
0.435714 0.150000 0
0.453571 0.150000 0
0.471429 0.150000 0
0.489286 0.150000 0
0.507143 0.150000 0
0.525000 0.150000 0
0.542857 0.150000 0
0.560714 0.150000 0
0.578571 0.150000 0
0.596429 0.150000 0
0.614286 0.150000 0
0.632143 0.150000 0
0.650000 0.150000 0
0.667857 0.150000 0
0.685714 0.150000 0
0.703571 0.150000 0
0.721429 0.150000 0
0.739286 0.150000 0
0.757143 0.150000 0
0.775000 0.150000 0
0.792857 0.150000 0
0.810714 0.150000 0
0.828571 0.150000 0
0.846429 0.150000 0
0.864286 0.150000 0
0.882143 0.150000 0
0.150000 0.167857 0
0.167857 0.167857 0
0.185714 0.167857 0
0.203571 0.167857 0
0.221429 0.167857 0
0.239286 0.167857 0
0.257143 0.167857 0
0.275000 0.167857 0
0.292857 0.167857 0
0.310714 0.167857 0
0.328571 0.167857 0
0.346429 0.167857 0
0.364286 0.167857 0
0.382143 0.167857 0
0.400000 0.167857 0
0.417857 0.167857 0
0.435714 0.167857 0
0.453571 0.167857 0
0.471429 0.167857 0
0.489286 0.167857 0
0.507143 0.167857 0
0.525000 0.167857 0
0.542857 0.167857 0
0.560714 0.167857 0
0.578571 0.167857 0
0.596429 0.167857 0
0.614286 0.167857 0
0.632143 0.167857 0
0.650000 0.167857 0
0.667857 0.167857 0
0.685714 0.167857 0
0.703571 0.167857 0
0.721429 0.167857 0
0.739286 0.167857 0
0.757143 0.167857 0
0.775000 0.167857 0
0.792857 0.167857 0
0.810714 0.167857 0
0.828571 0.167857 0
0.846429 0.167857 0
0.864286 0.167857 0
0.882143 0.167857 0
0.150000 0.185714 0
0.167857 0.185714 0
0.185714 0.185714 0
0.203571 0.185714 0
0.221429 0.185714 0
0.239286 0.185714 0
0.257143 0.185714 0
0.275000 0.185714 0
0.292857 0.185714 0
0.310714 0.185714 0
0.328571 0.185714 0
0.346429 0.185714 0
0.364286 0.185714 0
0.382143 0.185714 0
0.400000 0.185714 0
0.417857 0.185714 0
0.435714 0.185714 0
0.453571 0.185714 0
0.471429 0.185714 0
0.489286 0.185714 0
0.507143 0.185714 0
0.525000 0.185714 0
0.542857 0.185714 0
0.560714 0.185714 0
0.578571 0.185714 0
0.596429 0.185714 0
0.614286 0.185714 0
0.632143 0.185714 0
0.650000 0.185714 0
0.667857 0.185714 0
0.685714 0.185714 0
0.703571 0.185714 0
0.721429 0.185714 0
0.739286 0.185714 0
0.757143 0.185714 0
0.775000 0.185714 0
0.792857 0.185714 0
0.810714 0.185714 0
0.828571 0.185714 0
0.846429 0.185714 0
0.864286 0.185714 0
0.882143 0.185714 0
0.150000 0.203571 0
0.167857 0.203571 0
0.185714 0.203571 0
0.203571 0.203571 0
0.221429 0.203571 0
0.239286 0.203571 0
0.257143 0.203571 0
0.275000 0.203571 0
0.292857 0.203571 0
0.310714 0.203571 0
0.328571 0.203571 0
0.346429 0.203571 0
0.364286 0.203571 0
0.382143 0.203571 0
0.400000 0.203571 0
0.417857 0.203571 0
0.435714 0.203571 0
0.453571 0.203571 0
0.471429 0.203571 0
0.489286 0.203571 0
0.507143 0.203571 0
0.525000 0.203571 0
0.542857 0.203571 0
0.560714 0.203571 0
0.578571 0.203571 0
0.596429 0.203571 0
0.614286 0.203571 0
0.632143 0.203571 0
0.650000 0.203571 0
0.667857 0.203571 0
0.685714 0.203571 0
0.703571 0.203571 0
0.721429 0.203571 0
0.739286 0.203571 0
0.757143 0.203571 0
0.775000 0.203571 0
0.792857 0.203571 0
0.810714 0.203571 0
0.828571 0.203571 0
0.846429 0.203571 0
0.864286 0.203571 0
0.882143 0.203571 0
0.150000 0.221429 0
0.167857 0.221429 0
0.185714 0.221429 0
0.203571 0.221429 0
0.221429 0.221429 0
0.239286 0.221429 0
0.257143 0.221429 0
0.275000 0.221429 0
0.292857 0.221429 0
0.310714 0.221429 0
0.328571 0.221429 0
0.346429 0.221429 0
0.364286 0.221429 0
0.382143 0.221429 0
0.400000 0.221429 0
0.417857 0.221429 0
0.435714 0.221429 0
0.453571 0.221429 0
0.471429 0.221429 0
0.489286 0.221429 0
0.507143 0.221429 0
0.525000 0.221429 0
0.542857 0.221429 0
0.560714 0.221429 0
0.578571 0.221429 0
0.596429 0.221429 0
0.614286 0.221429 0
0.632143 0.221429 0
0.650000 0.221429 0
0.667857 0.221429 0
0.685714 0.221429 0
0.703571 0.221429 0
0.721429 0.221429 0
0.739286 0.221429 0
0.757143 0.221429 0
0.775000 0.221429 0
0.792857 0.221429 0
0.810714 0.221429 0
0.828571 0.221429 0
0.846429 0.221429 0
0.864286 0.221429 0
0.882143 0.221429 0
0.150000 0.239286 0
0.167857 0.239286 0
0.185714 0.239286 0
0.203571 0.239286 0
0.221429 0.239286 0
0.239286 0.239286 0
0.257143 0.239286 0
0.275000 0.239286 0
0.292857 0.239286 0
0.310714 0.239286 0
0.328571 0.239286 0
0.346429 0.239286 0
0.364286 0.239286 0
0.382143 0.239286 0
0.400000 0.239286 0
0.417857 0.239286 0
0.435714 0.239286 0
0.453571 0.239286 0
0.471429 0.239286 0
0.489286 0.239286 0
0.507143 0.239286 0
0.525000 0.239286 0
0.542857 0.239286 0
0.560714 0.239286 0
0.578571 0.239286 0
0.596429 0.239286 0
0.614286 0.239286 0
0.632143 0.239286 0
0.650000 0.239286 0
0.667857 0.239286 0
0.685714 0.239286 0
0.703571 0.239286 0
0.721429 0.239286 0
0.739286 0.239286 0
0.757143 0.239286 0
0.775000 0.239286 0
0.792857 0.239286 0
0.810714 0.239286 0
0.828571 0.239286 0
0.846429 0.239286 0
0.864286 0.239286 0
0.882143 0.239286 0
0.150000 0.257143 0
0.167857 0.257143 0
0.185714 0.257143 0
0.203571 0.257143 0
0.221429 0.257143 0
0.239286 0.257143 0
0.257143 0.257143 0
0.275000 0.257143 0
0.292857 0.257143 0
0.310714 0.257143 0
0.328571 0.257143 0
0.346429 0.257143 0
0.364286 0.257143 0
0.382143 0.257143 0
0.400000 0.257143 0
0.417857 0.257143 0
0.435714 0.257143 0
0.453571 0.257143 0
0.471429 0.257143 0
0.489286 0.257143 0
0.507143 0.257143 0
0.525000 0.257143 0
0.542857 0.257143 0
0.560714 0.257143 0
0.578571 0.257143 0
0.596429 0.257143 0
0.614286 0.257143 0
0.632143 0.257143 0
0.650000 0.257143 0
0.667857 0.257143 0
0.685714 0.257143 0
0.703571 0.257143 0
0.721429 0.257143 0
0.739286 0.257143 0
0.757143 0.257143 0
0.775000 0.257143 0
0.792857 0.257143 0
0.810714 0.257143 0
0.828571 0.257143 0
0.846429 0.257143 0
0.864286 0.257143 0
0.882143 0.257143 0
0.150000 0.275000 0
0.167857 0.275000 0
0.185714 0.275000 0
0.203571 0.275000 0
0.221429 0.275000 0
0.239286 0.275000 0
0.257143 0.275000 0
0.275000 0.275000 0
0.292857 0.275000 0
0.310714 0.275000 0
0.328571 0.275000 0
0.346429 0.275000 0
0.364286 0.275000 0
0.382143 0.275000 0
0.400000 0.275000 0
0.417857 0.275000 0
0.435714 0.275000 0
0.453571 0.275000 0
0.471429 0.275000 0
0.489286 0.275000 0
0.507143 0.275000 0
0.525000 0.275000 0
0.542857 0.275000 0
0.560714 0.275000 0
0.578571 0.275000 0
0.596429 0.275000 0
0.614286 0.275000 0
0.632143 0.275000 0
0.650000 0.275000 0
0.667857 0.275000 0
0.685714 0.275000 0
0.703571 0.275000 0
0.721429 0.275000 0
0.739286 0.275000 0
0.757143 0.275000 0
0.775000 0.275000 0
0.792857 0.275000 0
0.810714 0.275000 0
0.828571 0.275000 0
0.846429 0.275000 0
0.864286 0.275000 0
0.882143 0.275000 0
0.150000 0.292857 0
0.167857 0.292857 0
0.185714 0.292857 0
0.203571 0.292857 0
0.221429 0.292857 0
0.239286 0.292857 0
0.257143 0.292857 0
0.275000 0.292857 0
0.292857 0.292857 0
0.310714 0.292857 0
0.328571 0.292857 0
0.346429 0.292857 0
0.364286 0.292857 0
0.382143 0.292857 0
0.400000 0.292857 0
0.417857 0.292857 0
0.435714 0.292857 0
0.453571 0.292857 0
0.471429 0.292857 0
0.489286 0.292857 0
0.507143 0.292857 0
0.525000 0.292857 0
0.542857 0.292857 0
0.560714 0.292857 0
0.578571 0.292857 0
0.596429 0.292857 0
0.614286 0.292857 0
0.632143 0.292857 0
0.650000 0.292857 0
0.667857 0.292857 0
0.685714 0.292857 0
0.703571 0.292857 0
0.721429 0.292857 0
0.739286 0.292857 0
0.757143 0.292857 0
0.775000 0.292857 0
0.792857 0.292857 0
0.810714 0.292857 0
0.828571 0.292857 0
0.846429 0.292857 0
0.864286 0.292857 0
0.882143 0.292857 0
0.150000 0.310714 0
0.167857 0.310714 0
0.185714 0.310714 0
0.203571 0.310714 0
0.221429 0.310714 0
0.239286 0.310714 0
0.257143 0.310714 0
0.275000 0.310714 0
0.292857 0.310714 0
0.310714 0.310714 0
0.328571 0.310714 0
0.346429 0.310714 0
0.364286 0.310714 0
0.382143 0.310714 0
0.400000 0.310714 0
0.417857 0.310714 0
0.435714 0.310714 0
0.453571 0.310714 0
0.471429 0.310714 0
0.489286 0.310714 0
0.507143 0.310714 0
0.525000 0.310714 0
0.542857 0.310714 0
0.560714 0.310714 0
0.578571 0.310714 0
0.596429 0.310714 0
0.614286 0.310714 0
0.632143 0.310714 0
0.650000 0.310714 0
0.667857 0.310714 0
0.685714 0.310714 0
0.703571 0.310714 0
0.721429 0.310714 0
0.739286 0.310714 0
0.757143 0.310714 0
0.775000 0.310714 0
0.792857 0.310714 0
0.810714 0.310714 0
0.828571 0.310714 0
0.846429 0.310714 0
0.864286 0.310714 0
0.882143 0.310714 0
0.150000 0.328571 0
0.167857 0.328571 0
0.185714 0.328571 0
0.203571 0.328571 0
0.221429 0.328571 0
0.239286 0.328571 0
0.257143 0.328571 0
0.275000 0.328571 0
0.292857 0.328571 0
0.310714 0.328571 0
0.328571 0.328571 0
0.346429 0.328571 0
0.364286 0.328571 0
0.382143 0.328571 0
0.400000 0.328571 0
0.417857 0.328571 0
0.435714 0.328571 0
0.453571 0.328571 0
0.471429 0.328571 0
0.489286 0.328571 0
0.507143 0.328571 0
0.525000 0.328571 0
0.542857 0.328571 0
0.560714 0.328571 0
0.578571 0.328571 0
0.596429 0.328571 0
0.614286 0.328571 0
0.632143 0.328571 0
0.650000 0.328571 0
0.667857 0.328571 0
0.685714 0.328571 0
0.703571 0.328571 0
0.721429 0.328571 0
0.739286 0.328571 0
0.757143 0.328571 0
0.775000 0.328571 0
0.792857 0.328571 0
0.810714 0.328571 0
0.828571 0.328571 0
0.846429 0.328571 0
0.864286 0.328571 0
0.882143 0.328571 0
0.150000 0.346429 0
0.167857 0.346429 0
0.185714 0.346429 0
0.203571 0.346429 0
0.221429 0.346429 0
0.239286 0.346429 0
0.257143 0.346429 0
0.275000 0.346429 0
0.292857 0.346429 0
0.310714 0.346429 0
0.328571 0.346429 0
0.346429 0.346429 0
0.364286 0.346429 0
0.382143 0.346429 0
0.400000 0.346429 0
0.417857 0.346429 0
0.435714 0.346429 0
0.453571 0.346429 0
0.471429 0.346429 0
0.489286 0.346429 0
0.507143 0.346429 0
0.525000 0.346429 0
0.542857 0.346429 0
0.560714 0.346429 0
0.578571 0.346429 0
0.596429 0.346429 0
0.614286 0.346429 0
0.632143 0.346429 0
0.650000 0.346429 0
[...]
POINT_DATA 1764 

VECTORS velocity float
0.000000 0.000000 0
-0.000002 0.000000 0
-0.000003 0.000000 0
-0.000003 0.000000 0
-0.000003 0.000000 0
-0.000002 0.000000 0
-0.000002 0.000000 0
-0.000001 0.000000 0
-0.000002 0.000000 0
-0.000004 0.000000 0
-0.000000 0.000000 0
0.000003 0.000000 0
0.000005 0.000000 0
0.000006 0.000000 0
0.000007 0.000000 0
0.000008 0.000000 0
0.000008 0.000000 0
0.000009 0.000000 0
0.000009 0.000000 0
0.000009 0.000000 0
0.000009 0.000000 0
0.000009 0.000000 0
0.000009 0.000000 0
0.000009 0.000000 0
0.000009 0.000000 0
0.000010 0.000000 0
0.000010 0.000000 0
0.000010 0.000000 0
0.000010 0.000000 0
0.000010 0.000000 0
0.000010 0.000000 0
0.000010 0.000000 0
0.000010 0.000000 0
0.000009 0.000000 0
0.000008 0.000000 0
0.000007 0.000000 0
0.000006 0.000000 0
0.000004 0.000000 0
0.000000 0.000000 0
-0.000001 0.000000 0
-0.000000 0.000000 0
0.000000 0.000000 0
0.000000 0.000002 0
0.024591 -0.022936 0
0.047577 -0.016493 0
0.058126 -0.004078 0
0.057639 0.005102 0
0.049805 0.008828 0
0.040956 0.007595 0
0.036586 0.005124 0
0.026650 -0.003745 0
0.007787 -0.008082 0
-0.015467 0.008280 0
-0.044926 0.026649 0
-0.078652 0.033464 0
-0.113019 0.034529 0
-0.146037 0.033560 0
-0.176450 0.031280 0
-0.203578 0.028272 0
-0.227139 0.024947 0
-0.247125 0.021582 0
-0.263693 0.018339 0
-0.277074 0.015292 0
-0.287515 0.012454 0
-0.295233 0.009796 0
-0.300385 0.007245 0
-0.303036 0.004696 0
-0.303150 0.002033 0
-0.300608 -0.000876 0
-0.295242 -0.004153 0
-0.286773 -0.007842 0
-0.274822 -0.011968 0
-0.258935 -0.016617 0
-0.238590 -0.021844 0
-0.213252 -0.027612 0
-0.182475 -0.033732 0
-0.146099 -0.039708 0
-0.104636 -0.044499 0
-0.059986 -0.045892 0
-0.016789 -0.037040 0
0.015202 -0.008521 0
0.017033 0.016905 0
-0.000001 -0.000001 0
0.000000 -0.011066 0
0.000000 0.000003 0
0.024288 -0.047577 0
0.043610 -0.033534 0
0.051672 -0.010061 0
0.050724 0.008320 0
0.042358 0.016682 0
0.027830 0.013220 0
0.006200 0.014306 0
-0.023485 0.028799 0
-0.068629 0.042118 0
-0.114301 0.052712 0
-0.150565 0.063185 0
-0.182536 0.068093 0
-0.212066 0.067385 0
-0.238459 0.063431 0
-0.261344 0.057540 0
-0.280624 0.050688 0
-0.296410 0.043548 0
-0.308938 0.036555 0
-0.318498 0.029949 0
-0.325385 0.023822 0
-0.329863 0.018159 0
-0.332137 0.012869 0
-0.332340 0.007803 0
-0.330535 0.002766 0
-0.326703 -0.002428 0
-0.320849 -0.007909 0
-0.312837 -0.013835 0
-0.302476 -0.020420 0
-0.289434 -0.027837 0
-0.273313 -0.036232 0
-0.253680 -0.045683 0
-0.230097 -0.056115 0
-0.202191 -0.067153 0
-0.169809 -0.077839 0
-0.133292 -0.086113 0
-0.093994 -0.087847 0
-0.054917 -0.075188 0
-0.018910 -0.033822 0
0.009018 0.015202 0
0.000006 -0.000002 0
0.000000 -0.017035 0
0.000000 0.000004 0
0.017305 -0.066546 0
0.027211 -0.043878 0
0.027921 -0.011192 0
0.016934 0.014415 0
0.000145 0.031722 0
-0.025958 0.043754 0
-0.065113 0.056438 0
-0.105874 0.071084 0
-0.143153 0.082735 0
-0.178705 0.090216 0
-0.208763 0.094884 0
-0.233153 0.094965 0
-0.253380 0.090452 0
-0.269921 0.082838 0
-0.283156 0.073445 0
-0.293457 0.063339 0
-0.301204 0.053261 0
-0.306760 0.043670 0
-0.310441 0.034786 0
-0.312510 0.026657 0
-0.313164 0.019206 0
-0.312536 0.012273 0
-0.310695 0.005642 0
-0.307665 -0.000941 0
-0.303451 -0.007653 0
-0.297985 -0.014742 0
-0.291063 -0.022526 0
-0.282449 -0.031244 0
-0.271865 -0.041131 0
-0.258992 -0.052371 0
-0.243493 -0.065060 0
-0.225021 -0.079101 0
-0.203251 -0.094019 0
-0.177929 -0.108607 0
-0.148973 -0.120314 0
-0.116623 -0.124267 0
-0.081548 -0.112124 0
-0.044595 -0.072456 0
-0.005099 -0.002005 0
0.000011 0.000000 0
0.000000 -0.020083 0
0.000000 0.000003 0
0.004817 -0.074788 0
-0.000750 -0.044150 0
-0.013319 0.000215 0
-0.032755 0.036096 0
-0.057584 0.059575 0
-0.088219 0.078478 0
-0.122605 0.094222 0
-0.156121 0.106839 0
-0.185703 0.114949 0
-0.211719 0.118322 0
-0.232743 0.117633 0
-0.248587 0.112711 0
-0.260270 0.104153 0
-0.268631 0.093206 0
-0.274390 0.081076 0
-0.278133 0.068737 0
-0.280327 0.056851 0
-0.281333 0.045791 0
-0.281413 0.035699 0
-0.280751 0.026545 0
-0.279459 0.018185 0
-0.277594 0.010401 0
-0.275165 0.002931 0
-0.272134 -0.004479 0
-0.268535 -0.012108 0
-0.264136 -0.020296 0
-0.258785 -0.029371 0
-0.252264 -0.039617 0
-0.244349 -0.051294 0
-0.234799 -0.064605 0
-0.223377 -0.079655 0
-0.209837 -0.096357 0
-0.193911 -0.114245 0
-0.175269 -0.132116 0
-0.153466 -0.147419 0
-0.127877 -0.155272 0
-0.097706 -0.147216 0
-0.062403 -0.110270 0
-0.024201 -0.029393 0
-0.000007 0.000004 0
0.000000 -0.011929 0
0.000000 0.000002 0
-0.010697 -0.065796 0
-0.031185 -0.025742 0
-0.055364 0.020813 0
-0.077015 0.058681 0
-0.102316 0.087186 0
-0.129868 0.108774 0
-0.157490 0.124340 0
-0.182871 0.134182 0
-0.204354 0.138332 0
-0.221712 0.137256 0
-0.234484 0.131752 0
-0.242908 0.122492 0
-0.247849 0.110496 0
-0.250187 0.096958 0
-0.250695 0.082946 0
-0.249976 0.069276 0
-0.248475 0.056462 0
-0.246505 0.044756 0
-0.244274 0.034204 0
-0.241908 0.024702 0
-0.239475 0.016049 0
-0.236994 0.007978 0
-0.234451 0.000182 0
-0.231805 -0.007571 0
-0.228955 -0.015650 0
-0.225717 -0.024493 0
-0.221920 -0.034399 0
-0.217365 -0.045680 0
-0.211852 -0.058596 0
-0.205193 -0.073343 0
-0.197225 -0.090023 0
-0.187798 -0.108568 0
-0.176728 -0.128587 0
-0.163697 -0.149052 0
-0.148098 -0.167707 0
-0.128842 -0.180027 0
-0.104281 -0.177598 0
-0.072742 -0.145960 0
-0.034798 -0.064409 0
-0.000036 0.000007 0
0.000000 0.004125 0
0.000000 -0.000000 0
-0.023679 -0.043603 0
-0.053067 0.000518 0
-0.079794 0.046045 0
-0.104259 0.083048 0
-0.128503 0.112427 0
-0.151968 0.133652 0
-0.173425 0.147225 0
-0.191706 0.153702 0
-0.206015 0.153789 0
-0.216230 0.148452 0
-0.222413 0.138829 0
-0.225079 0.126076 0
-0.225037 0.111433 0
-0.223097 0.096052 0
-0.219964 0.080864 0
-0.216181 0.066517 0
-0.212148 0.053380 0
-0.208141 0.041590 0
-0.204345 0.031102 0
-0.200870 0.021746 0
-0.197764 0.013271 0
-0.195033 0.005376 0
-0.192649 -0.002257 0
-0.190588 -0.009975 0
-0.188613 -0.018196 0
-0.186594 -0.027331 0
-0.184331 -0.037723 0
-0.181612 -0.049685 0
-0.178224 -0.063466 0
-0.173981 -0.079231 0
-0.168757 -0.097049 0
-0.162473 -0.116855 0
-0.155035 -0.138347 0
-0.146217 -0.160746 0
-0.135443 -0.182273 0
-0.121473 -0.199089 0
-0.102151 -0.203315 0
-0.074709 -0.179753 0
-0.037872 -0.102136 0
-0.000059 0.000009 0
0.000000 0.022874 0
0.000000 -0.000002 0
-0.031234 -0.012729 0
-0.063974 0.030373 0
-0.091434 0.072005 0
-0.116510 0.107389 0
-0.138989 0.134895 0
-0.158678 0.153697 0
-0.175044 0.164079 0
-0.187628 0.166772 0
-0.196215 0.162856 0
-0.200958 0.153654 0
-0.202239 0.140602 0
-0.200697 0.125115 0
-0.197085 0.108514 0
-0.192119 0.091885 0
-0.186406 0.076030 0
-0.180431 0.061459 0
-0.174566 0.048421 0
-0.169087 0.036954 0
-0.164189 0.026933 0
-0.159986 0.018121 0
-0.156529 0.010212 0
-0.153810 0.002864 0
-0.151774 -0.004263 0
-0.150389 -0.011607 0
-0.149421 -0.019644 0
-0.148704 -0.028775 0
-0.148017 -0.039381 0
-0.147102 -0.051788 0
-0.145685 -0.066227 0
-0.143536 -0.082809 0
-0.140519 -0.101531 0
-0.136591 -0.122290 0
-0.131735 -0.144842 0
-0.125849 -0.168644 0
-0.118515 -0.192451 0
-0.108624 -0.213320 0
-0.093916 -0.224362 0
-0.070990 -0.210239 0
-0.037276 -0.139117 0
-0.000075 0.000010 0
0.000000 0.042000 0
0.000000 -0.000003 0
-0.033349 0.020370 0
-0.065395 0.060718 0
-0.093350 0.098582 0
-0.117600 0.130602 0
-0.137937 0.154595 0
-0.154323 0.169708 0
-0.166640 0.176175 0
-0.174871 0.174873 0
-0.179184 0.167119 0
-0.179966 0.154476 0
-0.177766 0.138568 0
-0.173253 0.120923 0
-0.167105 0.102855 0
-0.159940 0.085373 0
-0.152292 0.069177 0
-0.144614 0.054677 0
-0.137292 0.042036 0
-0.130641 0.031212 0
-0.124895 0.022000 0
-0.120196 0.014086 0
-0.116594 0.007095 0
-0.114078 0.000622 0
-0.112608 -0.005679 0
-0.112045 -0.012328 0
-0.112187 -0.019881 0
-0.112852 -0.028736 0
-0.113804 -0.039325 0
-0.114725 -0.052016 0
-0.115235 -0.067032 0
-0.115008 -0.084398 0
-0.113864 -0.103995 0
-0.111781 -0.125639 0
-0.108791 -0.149089 0
-0.104901 -0.173966 0
-0.099899 -0.199498 0
-0.092975 -0.223688 0
-0.082126 -0.240950 0
-0.063794 -0.236393 0
-0.034492 -0.173126 0
-0.000084 0.000011 0
0.000000 0.060152 0
0.000000 -0.000004 0
-0.031215 0.052666 0
-0.061906 0.090375 0
-0.088660 0.124210 0
-0.111133 0.151976 0
-0.129113 0.171619 0
-0.142623 0.182399 0
-0.151768 0.184627 0
-0.156784 0.179316 0
-0.158056 0.167950 0
-0.156103 0.152237 0
-0.151530 0.133889 0
-0.144965 0.114454 0
-0.137000 0.095201 0
-0.128168 0.077072 0
-0.118960 0.060705 0
-0.109841 0.046459 0
-0.101259 0.034448 0
-0.093617 0.024557 0
-0.087231 0.016488 0
-0.082273 0.009820 0
-0.078774 0.004094 0
-0.076689 -0.001122 0
-0.075984 -0.006296 0
-0.076333 -0.012028 0
-0.077605 -0.018837 0
-0.079635 -0.027158 0
-0.082212 -0.037508 0
-0.084963 -0.050356 0
-0.087358 -0.065944 0
-0.088919 -0.084180 0
-0.089414 -0.104758 0
-0.088843 -0.127363 0
-0.087284 -0.151722 0
-0.084821 -0.177536 0
-0.081416 -0.204377 0
-0.076607 -0.231093 0
-0.068857 -0.253543 0
-0.054842 -0.257872 0
-0.030473 -0.202911 0
-0.000087 0.000011 0
0.000000 0.076494 0
0.000000 -0.000005 0
-0.027319 0.082276 0
-0.055489 0.118163 0
-0.079882 0.147809 0
-0.099963 0.171055 0
-0.115487 0.186085 0
-0.126490 0.192363 0
-0.133169 0.190336 0
-0.135878 0.181161 0
-0.135089 0.166438 0
-0.131354 0.147950 0
-0.125248 0.127429 0
-0.117322 0.106393 0
-0.108070 0.086058 0
-0.097956 0.067334 0
-0.087449 0.050850 0
-0.077065 0.036976 0
-0.067369 0.025812 0
-0.058911 0.017184 0
-0.052162 0.010656 0
-0.047329 0.005630 0
-0.044347 0.001511 0
-0.043035 -0.002169 0
-0.043193 -0.006035 0
-0.044476 -0.010707 0
-0.046771 -0.016579 0
-0.049969 -0.024128 0
-0.053967 -0.033997 0
-0.058386 -0.046871 0
-0.062499 -0.063076 0
-0.065627 -0.082342 0
-0.067490 -0.104071 0
-0.068140 -0.127769 0
-0.067711 -0.153111 0
-0.066343 -0.179834 0
-0.064119 -0.207712 0
-0.060863 -0.236246 0
-0.055564 -0.262714 0
-0.045387 -0.274777 0
-0.025962 -0.227968 0
-0.000085 0.000012 0
0.000000 0.090626 0
0.000000 -0.000006 0
-0.022851 0.108155 0
-0.047484 0.142938 0
-0.068814 0.168683 0
-0.086157 0.187581 0
-0.099231 0.198145 0
-0.108051 0.200082 0
-0.112833 0.194016 0
-0.113946 0.181235 0
-0.111862 0.163426 0
-0.107090 0.142396 0
-0.100125 0.119857 0
-0.091413 0.097276 0
-0.081348 0.075835 0
-0.070321 0.056451 0
-0.058782 0.039814 0
-0.047303 0.026380 0
-0.036635 0.016293 0
-0.027570 0.009350 0
-0.020823 0.004907 0
-0.016582 0.002004 0
-0.014583 -0.000200 0
-0.014451 -0.002275 0
-0.015667 -0.004855 0
-0.017937 -0.008451 0
-0.021108 -0.013344 0
-0.025131 -0.019961 0
-0.030123 -0.029091 0
-0.035790 -0.041825 0
-0.041216 -0.058703 0
-0.045487 -0.079189 0
-0.048321 -0.102245 0
-0.049848 -0.127142 0
-0.050268 -0.153518 0
-0.049764 -0.181129 0
-0.048490 -0.209857 0
-0.046460 -0.239647 0
-0.043116 -0.269020 0
-0.036236 -0.287474 0
-0.021452 -0.248298 0
-0.000079 0.000012 0
0.000000 0.102456 0
0.000000 -0.000006 0
-0.018069 0.129760 0
-0.038701 0.164126 0
-0.056640 0.186481 0
-0.071115 0.201471 0
-0.081830 0.207980 0
-0.088766 0.205964 0
-0.092112 0.196231 0
-0.092197 0.180190 0
-0.089431 0.159582 0
-0.084239 0.136214 0
-0.077010 0.111752 0
-0.068073 0.087615 0
-0.057720 0.064967 0
-0.046253 0.044768 0
-0.034042 0.027832 0
-0.021650 0.014830 0
-0.009931 0.006079 0
-0.001169 0.001371 0
0.004525 -0.000332 0
0.007511 -0.000610 0
0.008280 -0.000619 0
0.007351 -0.001085 0
0.005207 -0.002549 0
0.002101 -0.005266 0
-0.001736 -0.009385 0
-0.006310 -0.015112 0
-0.011835 -0.023338 0
-0.018060 -0.035778 0
-0.024080 -0.053379 0
-0.028799 -0.075236 0
-0.032048 -0.099710 0
-0.034028 -0.125822 0
-0.034990 -0.153195 0
-0.035139 -0.181612 0
-0.034663 -0.211016 0
-0.033669 -0.241621 0
-0.031931 -0.272938 0
-0.027833 -0.296442 0
-0.017228 -0.264204 0
-0.000070 0.000011 0
0.000000 0.112077 0
0.000000 -0.000006 0
-0.013160 0.146856 0
-0.029635 0.181509 0
-0.044100 0.201098 0
-0.055728 0.212771 0
-0.064230 0.215796 0
-0.069558 0.210364 0
-0.071851 0.197446 0
-0.071369 0.178555 0
-0.068434 0.155468 0
-0.063365 0.129975 0
-0.056438 0.103690 0
-0.047874 0.077987 0
-0.037856 0.054015 0
-0.026545 0.032773 0
-0.014029 0.015212 0
-0.001220 0.002269 0
0.008621 -0.004188 0
0.015236 -0.005106 0
0.019275 -0.003774 0
0.021244 -0.001751 0
0.021414 -0.000039 0
0.020155 0.000797 0
0.017754 0.000394 0
0.014405 -0.001508 0
0.010272 -0.004934 0
0.005480 -0.009862 0
0.000110 -0.017341 0
-0.005786 -0.029580 0
-0.011392 -0.047963 0
-0.015650 -0.071221 0
-0.018643 -0.097016 0
-0.020610 -0.124199 0
-0.021791 -0.152408 0
-0.022382 -0.181456 0
-0.022573 -0.211327 0
-0.022495 -0.242380 0
-0.022121 -0.274855 0
-0.020362 -0.302176 0
-0.013427 -0.276131 0
-0.000062 0.000011 0
0.000000 0.119683 0
0.000000 -0.000006 0
-0.008255 0.159396 0
-0.020582 0.195066 0
-0.031626 0.212574 0
-0.040512 0.221601 0
-0.046973 0.221810 0
-0.050940 0.213586 0
-0.052498 0.198042 0
-0.051828 0.176773 0
-0.049156 0.151577 0
-0.044697 0.124218 0
-0.038625 0.096261 0
-0.031056 0.069033 0
-0.022055 0.043638 0
-0.011610 0.020941 0
0.000264 0.002506 0
0.009601 -0.007821 0
0.015338 -0.010377 0
0.019439 -0.009283 0
0.022335 -0.006340 0
0.024050 -0.002748 0
0.024438 0.000469 0
0.023512 0.002575 0
0.021488 0.003201 0
0.018547 0.002215 0
0.014798 -0.000461 0
0.010403 -0.004950 0
0.005733 -0.012072 0
0.001058 -0.024276 0
-0.002838 -0.043515 0
-0.005733 -0.067986 0
-0.007839 -0.094749 0
-0.009365 -0.122674 0
-0.010469 -0.151423 0
-0.011316 -0.180830 0
-0.012054 -0.210903 0
-0.012800 -0.242073 0
-0.013618 -0.275072 0
-0.013832 -0.305135 0
-0.010084 -0.284565 0
-0.000054 0.000011 0
0.000000 0.125504 0
0.000000 -0.000005 0
-0.003466 0.167439 0
-0.011696 0.204880 0
-0.019445 0.221027 0
-0.025729 0.228118 0
-0.030314 0.226225 0
-0.033124 0.215888 0
-0.034193 0.198333 0
-0.033632 0.175213 0
-0.031579 0.148338 0
-0.028158 0.119444 0
-0.023458 0.090049 0
-0.017519 0.061416 0
-0.010307 0.034569 0
-0.001543 0.010455 0
0.006165 -0.005999 0
0.010336 -0.012805 0
0.013359 -0.014027 0
0.015805 -0.012103 0
0.017819 -0.008385 0
0.019318 -0.003854 0
0.020046 0.000499 0
0.019743 0.003747 0
0.018474 0.005359 0
0.016362 0.005183 0
0.013559 0.003211 0
0.010198 -0.000797 0
0.006689 -0.007997 0
0.003972 -0.021010 0
0.002590 -0.041172 0
0.001680 -0.066220 0
0.000878 -0.093384 0
0.000093 -0.121569 0
-0.000730 -0.150457 0
-0.001695 -0.179872 0
-0.002880 -0.209843 0
-0.004374 -0.240815 0
-0.006258 -0.273823 0
-0.008157 -0.305711 0
-0.007170 -0.289963 0
-0.000047 0.000010 0
0.000000 0.129766 0
0.000000 -0.000005 0
0.001008 0.171092 0
-0.003071 0.211044 0
-0.007645 0.226607 0
-0.011464 0.232470 0
-0.014312 0.229205 0
-0.016114 0.217465 0
-0.016868 0.198551 0
-0.016622 0.174158 0
-0.015449 0.146103 0
-0.013402 0.116097 0
-0.010509 0.085622 0
-0.006759 0.055882 0
-0.002105 0.027662 0
0.002880 0.004469 0
0.005118 -0.009373 0
0.006390 -0.015015 0
0.007402 -0.015846 0
0.008410 -0.013743 0
0.009522 -0.009853 0
0.010676 -0.004975 0
0.011630 0.000044 0
0.011992 0.004147 0
0.011647 0.006583 0
0.010609 0.007130 0
0.008993 0.005703 0
0.007076 0.001919 0
0.005469 -0.005846 0
0.005379 -0.020177 0
0.006548 -0.041223 0
0.007635 -0.066274 0
0.008187 -0.093162 0
0.008226 -0.121065 0
0.007765 -0.149635 0
0.006766 -0.178680 0
0.005196 -0.208224 0
0.003009 -0.238695 0
0.000171 -0.271289 0
-0.003200 -0.304223 0
-0.004624 -0.292722 0
-0.000041 0.000010 0
0.000000 0.132673 0
0.000000 -0.000004 0
0.005137 0.170510 0
0.005194 0.213532 0
0.003709 0.229420 0
0.002252 0.234786 0
0.001068 0.230875 0
0.000218 0.218444 0
-0.000282 0.198841 0
-0.000440 0.173794 0
-0.000278 0.145118 0
0.000195 0.114504 0
0.000969 0.083406 0
0.002033 0.053013 0
0.003225 0.024929 0
0.003128 0.003232 0
0.001917 -0.009508 0
0.000950 -0.015089 0
0.000220 -0.016047 0
-0.000105 -0.014223 0
0.000078 -0.010651 0
0.000755 -0.005962 0
0.001767 -0.000817 0
0.002774 0.003730 0
0.003395 0.006742 0
0.003551 0.007837 0
0.003351 0.006744 0
0.003221 0.002727 0
0.004223 -0.006300 0
0.007084 -0.022089 0
0.010461 -0.043428 0
0.013118 -0.067859 0
0.014808 -0.093975 0
0.015578 -0.121148 0
0.015451 -0.148998 0
0.014419 -0.177303 0
0.012464 -0.206085 0
0.009587 -0.235790 0
0.005802 -0.267615 0
0.001184 -0.300916 0
-0.002361 -0.293163 0
-0.000037 0.000009 0
0.000000 0.134389 0
0.000000 -0.000004 0
0.009018 0.165898 0
0.013063 0.212472 0
0.014585 0.229549 0
0.015416 0.235111 0
0.015877 0.231239 0
0.016006 0.218815 0
0.015806 0.199210 0
0.015284 0.174154 0
0.014460 0.145468 0
0.013338 0.114850 0
0.011900 0.083784 0
0.010051 0.053626 0
0.007419 0.026567 0
0.003275 0.005777 0
-0.000933 -0.007195 0
-0.003940 -0.013317 0
-0.006183 -0.014791 0
-0.007658 -0.013602 0
-0.008348 -0.010712 0
-0.008245 -0.006664 0
-0.007384 -0.001976 0
-0.005944 0.002519 0
-0.004424 0.005806 0
-0.002997 0.007174 0
-0.001530 0.006033 0
0.000669 0.001046 0
0.004793 -0.009709 0
0.010119 -0.026414 0
0.015038 -0.047257 0
0.018822 -0.070621 0
0.021365 -0.095622 0
0.022681 -0.121708 0
0.022765 -0.148476 0
0.021608 -0.175693 0
0.019214 -0.203392 0
0.015610 -0.232033 0
0.010842 -0.262886 0
0.005066 -0.296060 0
-0.000303 -0.291538 0
-0.000035 0.000009 0
0.000000 0.135033 0
0.000000 -0.000003 0
0.012623 0.157446 0
0.020525 0.207965 0
0.024997 0.227068 0
0.028051 0.233493 0
0.030148 0.230285 0
0.031312 0.218516 0
0.031528 0.199563 0
0.030800 0.175140 0
0.029163 0.147064 0
0.026641 0.117064 0
0.023221 0.086693 0
0.018786 0.057494 0
0.013050 0.031705 0
0.006056 0.011584 0
-0.001024 -0.002293 0
-0.006387 -0.009839 0
-0.010032 -0.012329 0
-0.012483 -0.012057 0
-0.013936 -0.010064 0
-0.014403 -0.006926 0
-0.013857 -0.003118 0
-0.012324 0.000769 0
-0.010049 0.003796 0
-0.007275 0.004943 0
-0.003753 0.003077 0
0.001456 -0.003595 0
0.008149 -0.015749 0
0.014927 -0.032334 0
0.020744 -0.052131 0
0.025243 -0.074186 0
0.028325 -0.097835 0
0.029938 -0.122548 0
0.030039 -0.147925 0
0.028612 -0.173751 0
0.025676 -0.200087 0
0.021286 -0.227419 0
0.015523 -0.257070 0
0.008552 -0.289771 0
0.001616 -0.288097 0
-0.000033 0.000009 0
0.000000 0.134692 0
0.000000 -0.000002 0
0.015865 0.145373 0
0.027479 0.200098 0
0.034874 0.222023 0
0.040116 0.229961 0
0.043857 0.227977 0
0.046150 0.217435 0
0.046956 0.199722 0
0.046273 0.176519 0
0.044139 0.149627 0
0.040608 0.120793 0
0.035706 0.091639 0
0.029398 0.063797 0
0.021639 0.039298 0
0.012894 0.019851 0
0.004025 0.005248 0
-0.004088 -0.004309 0
-0.009592 -0.008696 0
-0.013022 -0.009698 0
-0.015148 -0.008792 0
-0.016066 -0.006743 0
-0.015763 -0.004055 0
-0.014177 -0.001288 0
-0.011243 0.000758 0
-0.006990 0.000878 0
-0.001058 -0.002698 0
0.006440 -0.010855 0
0.014336 -0.023180 0
0.021685 -0.039009 0
0.027915 -0.057573 0
0.032756 -0.078202 0
0.036043 -0.100317 0
0.037661 -0.123421 0
0.037538 -0.147150 0
0.035653 -0.171331 0
0.032037 -0.196066 0
0.026766 -0.221880 0
0.019954 -0.250152 0
0.011793 -0.282153 0
0.003420 -0.282986 0
-0.000032 0.000008 0
0.000000 0.133417 0
0.000000 -0.000001 0
0.018603 0.129967 0
0.033727 0.188956 0
0.044032 0.214430 0
0.051473 0.224510 0
0.056901 0.224251 0
0.060447 0.215416 0
0.062067 0.199440 0
0.061744 0.177957 0
0.059524 0.152730 0
0.055496 0.125497 0
0.049757 0.097902 0
0.042402 0.071561 0
0.033630 0.048210 0
0.024090 0.029197 0
0.014596 0.014689 0
0.005280 0.003778 0
-0.002478 -0.003395 0
-0.007686 -0.006501 0
-0.010567 -0.007021 0
-0.011803 -0.006312 0
-0.011526 -0.005006 0
-0.009643 -0.003751 0
-0.005964 -0.003392 0
-0.000362 -0.005242 0
0.006989 -0.010353 0
0.015106 -0.018989 0
0.023191 -0.030994 0
0.030580 -0.045913 0
0.036829 -0.063201 0
0.041631 -0.082314 0
0.044759 -0.102740 0
0.046056 -0.124042 0
0.045435 -0.145917 0
0.042877 -0.168251 0
0.038420 -0.191201 0
0.032158 -0.215336 0
0.024233 -0.242096 0
0.014863 -0.273237 0
0.005114 -0.276305 0
-0.000031 0.000008 0
0.000000 0.131271 0
0.000000 -0.000001 0
0.020641 0.111646 0
0.038960 0.174668 0
0.052158 0.204277 0
0.061863 0.217092 0
0.069072 0.219004 0
0.074028 0.212269 0
0.076712 0.198424 0
0.077101 0.179061 0
0.075248 0.155875 0
0.071277 0.130560 0
0.065363 0.104733 0
0.057731 0.079924 0
0.048744 0.057609 0
0.039090 0.038884 0
0.029547 0.024059 0
0.020592 0.012765 0
0.012225 0.004271 0
0.005458 -0.001609 0
0.001208 -0.004675 0
-0.000628 -0.005784 0
-0.000429 -0.006215 0