# vtk DataFile Version 2.0
generated by CFD-lab course output (written by Tobias Neckel) 
ASCII

DATASET STRUCTURED_GRID
DIMENSIONS  42 42 1 
POINTS 1764 float

0.150000 0.150000 0
0.167857 0.150000 0
0.185714 0.150000 0
0.203571 0.150000 0
0.221429 0.150000 0
0.239286 0.150000 0
0.257143 0.150000 0
0.275000 0.150000 0
0.292857 0.150000 0
0.310714 0.150000 0
0.328571 0.150000 0
0.346429 0.150000 0
0.364286 0.150000 0
0.382143 0.150000 0
0.400000 0.150000 0
0.417857 0.150000 0
0.435714 0.150000 0
0.453571 0.150000 0
0.471429 0.150000 0
0.489286 0.150000 0
0.507143 0.150000 0
0.525000 0.150000 0
0.542857 0.150000 0
0.560714 0.150000 0
0.578571 0.150000 0
0.596429 0.150000 0
0.614286 0.150000 0
0.632143 0.150000 0
0.650000 0.150000 0
0.667857 0.150000 0
0.685714 0.150000 0
0.703571 0.150000 0
0.721429 0.150000 0
0.739286 0.150000 0
0.757143 0.150000 0
0.775000 0.150000 0
0.792857 0.150000 0
0.810714 0.150000 0
0.828571 0.150000 0
0.846429 0.150000 0
0.864286 0.150000 0
0.882143 0.150000 0
0.150000 0.167857 0
0.167857 0.167857 0
0.185714 0.167857 0
0.203571 0.167857 0
0.221429 0.167857 0
0.239286 0.167857 0
0.257143 0.167857 0
0.275000 0.167857 0
0.292857 0.167857 0
0.310714 0.167857 0
0.328571 0.167857 0
0.346429 0.167857 0
0.364286 0.167857 0
0.382143 0.167857 0
0.400000 0.167857 0
0.417857 0.167857 0
0.435714 0.167857 0
0.453571 0.167857 0
0.471429 0.167857 0
0.489286 0.167857 0
0.507143 0.167857 0
0.525000 0.167857 0
0.542857 0.167857 0
0.560714 0.167857 0
0.578571 0.167857 0
0.596429 0.167857 0
0.614286 0.167857 0
0.632143 0.167857 0
0.650000 0.167857 0
0.667857 0.167857 0
0.685714 0.167857 0
0.703571 0.167857 0
0.721429 0.167857 0
0.739286 0.167857 0
0.757143 0.167857 0
0.775000 0.167857 0
0.792857 0.167857 0
0.810714 0.167857 0
0.828571 0.167857 0
0.846429 0.167857 0
0.864286 0.167857 0
0.882143 0.167857 0
0.150000 0.185714 0
0.167857 0.185714 0
0.185714 0.185714 0
0.203571 0.185714 0
0.221429 0.185714 0
0.239286 0.185714 0
0.257143 0.185714 0
0.275000 0.185714 0
0.292857 0.185714 0
0.310714 0.185714 0
0.328571 0.185714 0
0.346429 0.185714 0
0.364286 0.185714 0
0.382143 0.185714 0
0.400000 0.185714 0
0.417857 0.185714 0
0.435714 0.185714 0
0.453571 0.185714 0
0.471429 0.185714 0
0.489286 0.185714 0
0.507143 0.185714 0
0.525000 0.185714 0
0.542857 0.185714 0
0.560714 0.185714 0
0.578571 0.185714 0
0.596429 0.185714 0
0.614286 0.185714 0
0.632143 0.185714 0
0.650000 0.185714 0
0.667857 0.185714 0
0.685714 0.185714 0
0.703571 0.185714 0
0.721429 0.185714 0
0.739286 0.185714 0
0.757143 0.185714 0
0.775000 0.185714 0
0.792857 0.185714 0
0.810714 0.185714 0
0.828571 0.185714 0
0.846429 0.185714 0
0.864286 0.185714 0
0.882143 0.185714 0
0.150000 0.203571 0
0.167857 0.203571 0
0.185714 0.203571 0
0.203571 0.203571 0
0.221429 0.203571 0
0.239286 0.203571 0
0.257143 0.203571 0
0.275000 0.203571 0
0.292857 0.203571 0
0.310714 0.203571 0
0.328571 0.203571 0
0.346429 0.203571 0
0.364286 0.203571 0
0.382143 0.203571 0
0.400000 0.203571 0
0.417857 0.203571 0
0.435714 0.203571 0
0.453571 0.203571 0
0.471429 0.203571 0
0.489286 0.203571 0
0.507143 0.203571 0
0.525000 0.203571 0
0.542857 0.203571 0
0.560714 0.203571 0
0.578571 0.203571 0
0.596429 0.203571 0
0.614286 0.203571 0
0.632143 0.203571 0
0.650000 0.203571 0
0.667857 0.203571 0
0.685714 0.203571 0
0.703571 0.203571 0
0.721429 0.203571 0
0.739286 0.203571 0
0.757143 0.203571 0
0.775000 0.203571 0
0.792857 0.203571 0
0.810714 0.203571 0
0.828571 0.203571 0
0.846429 0.203571 0
0.864286 0.203571 0
0.882143 0.203571 0
0.150000 0.221429 0
0.167857 0.221429 0
0.185714 0.221429 0
0.203571 0.221429 0
0.221429 0.221429 0
0.239286 0.221429 0
0.257143 0.221429 0
0.275000 0.221429 0
0.292857 0.221429 0
0.310714 0.221429 0
0.328571 0.221429 0
0.346429 0.221429 0
0.364286 0.221429 0
0.382143 0.221429 0
0.400000 0.221429 0
0.417857 0.221429 0
0.435714 0.221429 0
0.453571 0.221429 0
0.471429 0.221429 0
0.489286 0.221429 0
0.507143 0.221429 0
0.525000 0.221429 0
0.542857 0.221429 0
0.560714 0.221429 0
0.578571 0.221429 0
0.596429 0.221429 0
0.614286 0.221429 0
0.632143 0.221429 0
0.650000 0.221429 0
0.667857 0.221429 0
0.685714 0.221429 0
0.703571 0.221429 0
0.721429 0.221429 0
0.739286 0.221429 0
0.757143 0.221429 0
0.775000 0.221429 0
0.792857 0.221429 0
0.810714 0.221429 0
0.828571 0.221429 0
0.846429 0.221429 0
0.864286 0.221429 0
0.882143 0.221429 0
0.150000 0.239286 0
0.167857 0.239286 0
0.185714 0.239286 0
0.203571 0.239286 0
0.221429 0.239286 0
0.239286 0.239286 0
0.257143 0.239286 0
0.275000 0.239286 0
0.292857 0.239286 0
0.310714 0.239286 0
0.328571 0.239286 0
0.346429 0.239286 0
0.364286 0.239286 0
0.382143 0.239286 0
0.400000 0.239286 0
0.417857 0.239286 0
0.435714 0.239286 0
0.453571 0.239286 0
0.471429 0.239286 0
0.489286 0.239286 0
0.507143 0.239286 0
0.525000 0.239286 0
0.542857 0.239286 0
0.560714 0.239286 0
0.578571 0.239286 0
0.596429 0.239286 0
0.614286 0.239286 0
0.632143 0.239286 0
0.650000 0.239286 0
0.667857 0.239286 0
0.685714 0.239286 0
0.703571 0.239286 0
0.721429 0.239286 0
0.739286 0.239286 0
0.757143 0.239286 0
0.775000 0.239286 0
0.792857 0.239286 0
0.810714 0.239286 0
0.828571 0.239286 0
0.846429 0.239286 0
0.864286 0.239286 0
0.882143 0.239286 0
0.150000 0.257143 0
0.167857 0.257143 0
0.185714 0.257143 0
0.203571 0.257143 0
0.221429 0.257143 0
0.239286 0.257143 0
0.257143 0.257143 0
0.275000 0.257143 0
0.292857 0.257143 0
0.310714 0.257143 0
0.328571 0.257143 0
0.346429 0.257143 0
0.364286 0.257143 0
0.382143 0.257143 0
0.400000 0.257143 0
0.417857 0.257143 0
0.435714 0.257143 0
0.453571 0.257143 0
0.471429 0.257143 0
0.489286 0.257143 0
0.507143 0.257143 0
0.525000 0.257143 0
0.542857 0.257143 0
0.560714 0.257143 0
0.578571 0.257143 0
0.596429 0.257143 0
0.614286 0.257143 0
0.632143 0.257143 0
0.650000 0.257143 0
0.667857 0.257143 0
0.685714 0.257143 0
0.703571 0.257143 0
0.721429 0.257143 0
0.739286 0.257143 0
0.757143 0.257143 0
0.775000 0.257143 0
0.792857 0.257143 0
0.810714 0.257143 0
0.828571 0.257143 0
0.846429 0.257143 0
0.864286 0.257143 0
0.882143 0.257143 0
0.150000 0.275000 0
0.167857 0.275000 0
0.185714 0.275000 0
0.203571 0.275000 0
0.221429 0.275000 0
0.239286 0.275000 0
0.257143 0.275000 0
0.275000 0.275000 0
0.292857 0.275000 0
0.310714 0.275000 0
0.328571 0.275000 0
0.346429 0.275000 0
0.364286 0.275000 0
0.382143 0.275000 0
0.400000 0.275000 0
0.417857 0.275000 0
0.435714 0.275000 0
0.453571 0.275000 0
0.471429 0.275000 0
0.489286 0.275000 0
0.507143 0.275000 0
0.525000 0.275000 0
0.542857 0.275000 0
0.560714 0.275000 0
0.578571 0.275000 0
0.596429 0.275000 0
0.614286 0.275000 0
0.632143 0.275000 0
0.650000 0.275000 0
0.667857 0.275000 0
0.685714 0.275000 0
0.703571 0.275000 0
0.721429 0.275000 0
0.739286 0.275000 0
0.757143 0.275000 0
0.775000 0.275000 0
0.792857 0.275000 0
0.810714 0.275000 0
0.828571 0.275000 0
0.846429 0.275000 0
0.864286 0.275000 0
0.882143 0.275000 0
0.150000 0.292857 0
0.167857 0.292857 0
0.185714 0.292857 0
0.203571 0.292857 0
0.221429 0.292857 0
0.239286 0.292857 0
0.257143 0.292857 0
0.275000 0.292857 0
0.292857 0.292857 0
0.310714 0.292857 0
0.328571 0.292857 0
0.346429 0.292857 0
0.364286 0.292857 0
0.382143 0.292857 0
0.400000 0.292857 0
0.417857 0.292857 0
0.435714 0.292857 0
0.453571 0.292857 0
0.471429 0.292857 0
0.489286 0.292857 0
0.507143 0.292857 0
0.525000 0.292857 0
0.542857 0.292857 0
0.560714 0.292857 0
0.578571 0.292857 0
0.596429 0.292857 0
0.614286 0.292857 0
0.632143 0.292857 0
0.650000 0.292857 0
0.667857 0.292857 0
0.685714 0.292857 0
0.703571 0.292857 0
0.721429 0.292857 0
0.739286 0.292857 0
0.757143 0.292857 0
0.775000 0.292857 0
0.792857 0.292857 0
0.810714 0.292857 0
0.828571 0.292857 0
0.846429 0.292857 0
0.864286 0.292857 0
0.882143 0.292857 0
0.150000 0.310714 0
0.167857 0.310714 0
0.185714 0.310714 0
0.203571 0.310714 0
0.221429 0.310714 0
0.239286 0.310714 0
0.257143 0.310714 0
0.275000 0.310714 0
0.292857 0.310714 0
0.310714 0.310714 0
0.328571 0.310714 0
0.346429 0.310714 0
0.364286 0.310714 0
0.382143 0.310714 0
0.400000 0.310714 0
0.417857 0.310714 0
0.435714 0.310714 0
0.453571 0.310714 0
0.471429 0.310714 0
0.489286 0.310714 0
0.507143 0.310714 0
0.525000 0.310714 0
0.542857 0.310714 0
0.560714 0.310714 0
0.578571 0.310714 0
0.596429 0.310714 0
0.614286 0.310714 0
0.632143 0.310714 0
0.650000 0.310714 0
0.667857 0.310714 0
0.685714 0.310714 0
0.703571 0.310714 0
0.721429 0.310714 0
0.739286 0.310714 0
0.757143 0.310714 0
0.775000 0.310714 0
0.792857 0.310714 0
0.810714 0.310714 0
0.828571 0.310714 0
0.846429 0.310714 0
0.864286 0.310714 0
0.882143 0.310714 0
0.150000 0.328571 0
0.167857 0.328571 0
0.185714 0.328571 0
0.203571 0.328571 0
0.221429 0.328571 0
0.239286 0.328571 0
0.257143 0.328571 0
0.275000 0.328571 0
0.292857 0.328571 0
0.310714 0.328571 0
0.328571 0.328571 0
0.346429 0.328571 0
0.364286 0.328571 0
0.382143 0.328571 0
0.400000 0.328571 0
0.417857 0.328571 0
0.435714 0.328571 0
0.453571 0.328571 0
0.471429 0.328571 0
0.489286 0.328571 0
0.507143 0.328571 0
0.525000 0.328571 0
0.542857 0.328571 0
0.560714 0.328571 0
0.578571 0.328571 0
0.596429 0.328571 0
0.614286 0.328571 0
0.632143 0.328571 0
0.650000 0.328571 0
0.667857 0.328571 0
0.685714 0.328571 0
0.703571 0.328571 0
0.721429 0.328571 0
0.739286 0.328571 0
0.757143 0.328571 0
0.775000 0.328571 0
0.792857 0.328571 0
0.810714 0.328571 0
0.828571 0.328571 0
0.846429 0.328571 0
0.864286 0.328571 0
0.882143 0.328571 0
0.150000 0.346429 0
0.167857 0.346429 0
0.185714 0.346429 0
0.203571 0.346429 0
0.221429 0.346429 0
0.239286 0.346429 0
0.257143 0.346429 0
0.275000 0.346429 0
0.292857 0.346429 0
0.310714 0.346429 0
0.328571 0.346429 0
0.346429 0.346429 0
0.364286 0.346429 0
0.382143 0.346429 0
0.400000 0.346429 0
0.417857 0.346429 0
0.435714 0.346429 0
0.453571 0.346429 0
0.471429 0.346429 0
0.489286 0.346429 0
0.507143 0.346429 0
0.525000 0.346429 0
0.542857 0.346429 0
0.560714 0.346429 0
0.578571 0.346429 0
0.596429 0.346429 0
0.614286 0.346429 0
0.632143 0.346429 0
0.650000 0.346429 0
[...]
POINT_DATA 1764 

VECTORS velocity float
0.000000 0.000000 0
-0.000003 0.000000 0
-0.000005 0.000000 0
-0.000005 0.000000 0
-0.000004 0.000000 0
-0.000003 0.000000 0
-0.000004 0.000000 0
-0.000009 0.000000 0
0.000003 0.000000 0
0.000011 0.000000 0
0.000014 0.000000 0
0.000016 0.000000 0
0.000018 0.000000 0
0.000019 0.000000 0
0.000019 0.000000 0
0.000019 0.000000 0
0.000019 0.000000 0
0.000018 0.000000 0
0.000018 0.000000 0
0.000017 0.000000 0
0.000017 0.000000 0
0.000017 0.000000 0
0.000016 0.000000 0
0.000016 0.000000 0
0.000016 0.000000 0
0.000016 0.000000 0
0.000016 0.000000 0
0.000016 0.000000 0
0.000016 0.000000 0
0.000016 0.000000 0
0.000017 0.000000 0
0.000017 0.000000 0
0.000018 0.000000 0
0.000018 0.000000 0
0.000018 0.000000 0
0.000018 0.000000 0
0.000017 0.000000 0
0.000014 0.000000 0
0.000011 0.000000 0
0.000002 0.000000 0
-0.000000 0.000000 0
0.000000 0.000000 0
0.000000 0.000003 0
0.046667 -0.043024 0
0.079841 -0.022657 0
0.089706 -0.000962 0
0.082663 0.012137 0
0.069445 0.016986 0
0.048295 0.001696 0
0.016849 -0.005587 0
-0.021632 0.023237 0
-0.070796 0.050088 0
-0.124958 0.056154 0
-0.178012 0.054339 0
-0.227291 0.050552 0
-0.271238 0.045308 0
-0.309268 0.039566 0
-0.341413 0.033905 0
-0.368093 0.028684 0
-0.389923 0.024066 0
-0.407578 0.020096 0
-0.421703 0.016736 0
-0.432865 0.013905 0
-0.441525 0.011497 0
-0.448029 0.009401 0
-0.452601 0.007479 0
-0.455334 0.005580 0
-0.456191 0.003561 0
-0.455003 0.001261 0
-0.451560 -0.001477 0
-0.445446 -0.004814 0
-0.436086 -0.008911 0
-0.422702 -0.013984 0
-0.404293 -0.020293 0
-0.379639 -0.028053 0
-0.347342 -0.037400 0
-0.305956 -0.048232 0
-0.254289 -0.059930 0
-0.192058 -0.070696 0
-0.121333 -0.076236 0
-0.049560 -0.065556 0
0.004098 -0.010146 0
0.000068 0.000002 0
0.000000 -0.016931 0
0.000000 0.000005 0
0.033836 -0.079841 0
0.055500 -0.043039 0
0.060385 -0.002822 0
0.042519 0.020261 0
0.013964 0.034368 0
-0.026808 0.052596 0
-0.094775 0.069927 0
-0.160990 0.087645 0
-0.212245 0.103326 0
-0.257937 0.107216 0
-0.300319 0.102333 0
-0.337516 0.093226 0
-0.369087 0.081977 0
-0.395068 0.070175 0
-0.415873 0.058825 0
-0.432107 0.048511 0
-0.444439 0.039485 0
-0.453516 0.031780 0
-0.459905 0.025287 0
-0.464078 0.019822 0
-0.466394 0.015164 0
-0.467108 0.011076 0
-0.466365 0.007306 0
-0.464232 0.003590 0
-0.460678 -0.000332 0
-0.455714 -0.004631 0
-0.449121 -0.009556 0
-0.440606 -0.015474 0
-0.429723 -0.022744 0
-0.415838 -0.031793 0
-0.398164 -0.043064 0
-0.375731 -0.056951 0
-0.347434 -0.073682 0
-0.312120 -0.093053 0
-0.268807 -0.113899 0
-0.217131 -0.132955 0
-0.158195 -0.142498 0
-0.096316 -0.125431 0
-0.040361 -0.049560 0
-0.000020 0.000010 0
0.000000 -0.004087 0
0.000000 0.000005 0
0.011531 -0.098524 0
0.008343 -0.049206 0
-0.010024 0.012019 0
-0.040543 0.058558 0
-0.085772 0.086313 0
-0.137981 0.110435 0
-0.190174 0.128595 0
-0.240278 0.140706 0
-0.280929 0.147035 0
-0.313458 0.144228 0
-0.340218 0.133919 0
-0.361574 0.119321 0
-0.378087 0.102859 0
-0.390398 0.086352 0
-0.399216 0.070945 0
-0.405221 0.057250 0
-0.409018 0.045474 0
-0.411105 0.035561 0
-0.411871 0.027298 0
-0.411600 0.020393 0
-0.410484 0.014527 0
-0.408639 0.009372 0
-0.406119 0.004603 0
-0.402932 -0.000107 0
-0.399127 -0.004957 0
-0.394613 -0.010296 0
-0.389155 -0.016585 0
-0.382502 -0.024212 0
-0.374298 -0.033679 0
-0.364077 -0.045543 0
-0.351238 -0.060399 0
-0.335035 -0.078783 0
-0.314594 -0.101012 0
-0.288967 -0.126858 0
-0.257218 -0.154919 0
-0.218533 -0.181308 0
-0.172374 -0.197051 0
-0.118830 -0.183390 0
-0.059121 -0.106462 0
-0.000111 0.000015 0
0.000000 0.023443 0
0.000000 0.000002 0
-0.017276 -0.088183 0
-0.047461 -0.021484 0
-0.084500 0.046063 0
-0.118335 0.096009 0
-0.158839 0.131807 0
-0.201181 0.156998 0
-0.240272 0.172224 0
-0.274856 0.178400 0
-0.301543 0.176506 0
-0.320582 0.166504 0
-0.333664 0.150449 0
-0.341998 0.131095 0
-0.346710 0.110801 0
-0.348766 0.091304 0
-0.348974 0.073647 0
-0.347963 0.058313 0
-0.346196 0.045370 0
-0.343990 0.034633 0
-0.341547 0.025781 0
-0.338979 0.018434 0
-0.336333 0.012203 0
-0.333611 0.006711 0
-0.330789 0.001598 0
-0.327844 -0.003402 0
-0.324777 -0.008651 0
-0.321341 -0.014604 0
-0.317442 -0.021667 0
-0.312900 -0.030330 0
-0.307492 -0.041169 0
-0.300901 -0.054854 0
-0.292694 -0.072106 0
-0.282292 -0.093595 0
-0.268979 -0.119750 0
-0.251931 -0.150429 0
-0.230219 -0.184332 0
-0.202648 -0.217800 0
-0.167372 -0.242201 0
-0.121642 -0.238684 0
-0.063079 -0.168390 0
-0.000179 0.000018 0
0.000000 0.055041 0
0.000000 -0.000002 0
-0.040119 -0.051062 0
-0.086466 0.018017 0
-0.125074 0.082893 0
-0.161250 0.132897 0
-0.196391 0.169159 0
-0.228911 0.191867 0
-0.256418 0.202270 0
-0.277991 0.201977 0
-0.292382 0.192761 0
-0.300161 0.176349 0
-0.302807 0.155334 0
-0.301770 0.132367 0
-0.298357 0.109627 0
-0.293608 0.088615 0
-0.288291 0.070141 0
-0.282922 0.054472 0
-0.277815 0.041502 0
-0.273133 0.030913 0
-0.268933 0.022287 0
-0.265206 0.015179 0
-0.261899 0.009159 0
-0.258937 0.003829 0
-0.256233 -0.001164 0
-0.253790 -0.006119 0
-0.251363 -0.011460 0
-0.248877 -0.017631 0
-0.246251 -0.025025 0
-0.243409 -0.034162 0
-0.240248 -0.045678 0
-0.236595 -0.060342 0
-0.232155 -0.079008 0
-0.226454 -0.102498 0
-0.218835 -0.131373 0
-0.208519 -0.165619 0
-0.194627 -0.204202 0
-0.175920 -0.244155 0
-0.150052 -0.278057 0
-0.112938 -0.287684 0
-0.060274 -0.228104 0
-0.000223 0.000020 0
0.000000 0.086527 0
0.000000 -0.000005 0
-0.051881 -0.001717 0
-0.100887 0.063471 0
-0.141132 0.120847 0
-0.176481 0.167326 0
-0.206625 0.199468 0
-0.231199 0.217025 0
-0.249403 0.221304 0
-0.261035 0.214364 0
-0.266105 0.198676 0
-0.265623 0.176929 0
-0.261075 0.152057 0
-0.253948 0.126645 0
-0.245528 0.102640 0
-0.236786 0.081238 0
-0.228376 0.062961 0
-0.220681 0.047837 0
-0.213881 0.035580 0
-0.208025 0.025751 0
-0.203081 0.017855 0
-0.198967 0.011401 0
-0.195574 0.005934 0
-0.192775 0.001045 0
-0.190454 -0.003549 0
-0.188455 -0.008272 0
-0.186568 -0.013564 0
-0.184754 -0.019715 0
-0.182977 -0.027135 0
-0.181244 -0.036333 0
-0.179575 -0.047983 0
-0.177947 -0.062947 0
-0.176209 -0.082247 0
-0.173962 -0.106915 0
-0.170531 -0.137685 0
-0.165073 -0.174637 0
-0.156770 -0.216931 0
-0.144616 -0.262375 0
-0.126467 -0.305183 0
-0.097965 -0.328462 0
-0.053597 -0.281328 0
-0.000242 0.000021 0
0.000000 0.115318 0
0.000000 -0.000007 0
-0.053609 0.049824 0
-0.100205 0.107269 0
-0.140193 0.158487 0
-0.172981 0.198390 0
-0.198490 0.223877 0
-0.216833 0.234645 0
-0.228081 0.232106 0
-0.232677 0.218679 0
-0.231381 0.197350 0
-0.225512 0.171320 0
-0.216589 0.143659 0
-0.206048 0.116819 0
-0.195061 0.092466 0
-0.184459 0.071464 0
-0.174744 0.054036 0
-0.166161 0.039976 0
-0.158791 0.028846 0
-0.152621 0.020112 0
-0.147589 0.013229 0
-0.143599 0.007672 0
-0.140500 0.002966 0
-0.138094 -0.001291 0
-0.136279 -0.005484 0
-0.134713 -0.010005 0
-0.133316 -0.015161 0
-0.132005 -0.021222 0
-0.130762 -0.028534 0
-0.129640 -0.037564 0
-0.128754 -0.048975 0
-0.128243 -0.063708 0
-0.128137 -0.082993 0
-0.128163 -0.108176 0
-0.127607 -0.140262 0
-0.125488 -0.179380 0
-0.120984 -0.224659 0
-0.113426 -0.274457 0
-0.101260 -0.324708 0
-0.080575 -0.360554 0
-0.045220 -0.326069 0
-0.000239 0.000021 0
0.000000 0.140125 0
0.000000 -0.000009 0
-0.047371 0.098488 0
-0.091800 0.150055 0
-0.128916 0.193622 0
-0.158115 0.225623 0
-0.179314 0.243320 0
-0.192819 0.246617 0
-0.199143 0.237148 0
-0.199142 0.217664 0
-0.193979 0.191510 0
-0.185125 0.162137 0
-0.174077 0.132593 0
-0.162157 0.105118 0
-0.150368 0.081052 0
-0.139355 0.060920 0
-0.129453 0.044663 0
-0.120791 0.031885 0
-0.113389 0.022040 0
-0.107239 0.014549 0
-0.102324 0.008833 0
-0.098588 0.004312 0
-0.095850 0.000429 0
-0.093974 -0.003176 0
-0.092640 -0.006930 0
-0.091624 -0.011235 0
-0.090795 -0.016272 0
-0.090046 -0.022269 0
-0.089331 -0.029500 0
-0.088681 -0.038341 0
-0.088241 -0.049379 0
-0.088251 -0.063564 0
-0.088937 -0.082328 0
-0.090221 -0.107446 0
-0.091440 -0.140360 0
-0.091486 -0.181260 0
-0.089497 -0.228993 0
-0.085095 -0.282099 0
-0.077384 -0.338034 0
-0.063299 -0.384503 0
-0.036577 -0.361903 0
-0.000220 0.000021 0
0.000000 0.160538 0
0.000000 -0.000010 0
-0.040127 0.141624 0
-0.079528 0.188814 0
-0.112176 0.224803 0
-0.137215 0.248789 0
-0.154460 0.258581 0
-0.164249 0.254473 0
-0.167276 0.238429 0
-0.164590 0.213515 0
-0.157508 0.183332 0
-0.147511 0.151418 0
-0.135993 0.120691 0
-0.124102 0.093111 0
-0.112624 0.069664 0
-0.101997 0.050549 0
-0.092403 0.035472 0
-0.083891 0.023913 0
-0.076473 0.015295 0
-0.070221 0.009047 0
-0.065263 0.004577 0
-0.061693 0.001198 0
-0.059347 -0.001648 0
-0.057926 -0.004501 0
-0.057064 -0.007833 0
-0.056624 -0.011851 0
-0.056450 -0.016739 0
-0.056410 -0.022687 0
-0.056413 -0.029900 0
-0.056435 -0.038654 0
-0.056561 -0.049405 0
-0.057020 -0.063012 0
-0.058128 -0.081024 0
-0.060001 -0.105672 0
-0.062129 -0.138997 0
-0.063404 -0.181323 0
-0.063013 -0.231050 0
-0.060786 -0.286570 0
-0.056349 -0.346504 0
-0.047572 -0.401361 0
-0.028526 -0.389368 0
-0.000192 0.000020 0
0.000000 0.176702 0
0.000000 -0.000011 0
-0.032436 0.178016 0
-0.065630 0.222104 0
-0.093091 0.251309 0
-0.113809 0.267907 0
-0.127514 0.270354 0
-0.134502 0.259433 0
-0.135490 0.237490 0
-0.131550 0.207896 0
-0.123978 0.174431 0
-0.114146 0.140622 0
-0.103268 0.109184 0
-0.092254 0.081748 0
-0.081647 0.058946 0
-0.071687 0.040699 0
-0.062448 0.026557 0
-0.053957 0.015954 0
-0.046271 0.008370 0
-0.039640 0.003339 0
-0.034751 0.000306 0
-0.031454 -0.001604 0
-0.029404 -0.003338 0
-0.028223 -0.005459 0
-0.027742 -0.008231 0
-0.027798 -0.011849 0
-0.028241 -0.016486 0
-0.028936 -0.022306 0
-0.029772 -0.029475 0
-0.030676 -0.038194 0
-0.031649 -0.048795 0
-0.032811 -0.061997 0
-0.034408 -0.079347 0
-0.036611 -0.103444 0
-0.039068 -0.136957 0
-0.040843 -0.180376 0
-0.041369 -0.231612 0
-0.040655 -0.288762 0
-0.038645 -0.351247 0
-0.034022 -0.412326 0
-0.021480 -0.409476 0
-0.000162 0.000020 0
0.000000 0.189063 0
0.000000 -0.000011 0
-0.024658 0.207254 0
-0.051364 0.249468 0
-0.073505 0.272982 0
-0.090036 0.283212 0
-0.100653 0.279273 0
-0.105585 0.262450 0
-0.105481 0.235477 0
-0.101315 0.202003 0
-0.094248 0.165928 0
-0.085450 0.130708 0
-0.075890 0.098800 0
-0.066207 0.071490 0
-0.056697 0.049096 0
-0.047438 0.031349 0
-0.038446 0.017742 0
-0.029754 0.007736 0
-0.021707 0.000978 0
-0.015394 -0.002473 0
-0.010862 -0.003609 0
-0.007713 -0.004149 0
-0.005671 -0.004879 0
-0.004582 -0.006163 0
-0.004298 -0.008258 0
-0.004668 -0.011352 0
-0.005553 -0.015602 0
-0.006834 -0.021155 0
-0.008406 -0.028159 0
-0.010182 -0.036777 0
-0.012093 -0.047270 0
-0.014139 -0.060253 0
-0.016378 -0.077224 0
-0.018870 -0.101013 0
-0.021298 -0.134765 0
-0.023045 -0.179022 0
-0.023996 -0.231239 0
-0.024331 -0.289294 0
-0.024158 -0.353137 0
-0.022747 -0.418526 0
-0.015555 -0.423390 0
-0.000133 0.000019 0
0.000000 0.198180 0
0.000000 -0.000011 0
-0.017062 0.229380 0
-0.037410 0.270951 0
-0.054415 0.289982 0
-0.067051 0.295056 0
-0.075022 0.285902 0
-0.078490 0.264260 0
-0.077982 0.233220 0
-0.074305 0.196663 0
-0.068406 0.158566 0
-0.061196 0.122265 0
-0.053367 0.089941 0
-0.045288 0.062555 0
-0.037042 0.040177 0
-0.028588 0.022449 0
-0.019941 0.008873 0
-0.011209 -0.000786 0
-0.003967 -0.005990 0
0.001370 -0.007506 0
0.005583 -0.007376 0
0.008819 -0.006795 0
0.011044 -0.006470 0
0.012300 -0.006832 0
0.012675 -0.008146 0
0.012282 -0.010594 0
0.011239 -0.014320 0
0.009653 -0.019453 0
0.007622 -0.026127 0
0.005239 -0.034507 0
0.002606 -0.044837 0
-0.000175 -0.057712 0
-0.002998 -0.074616 0
-0.005675 -0.098524 0
-0.007767 -0.132781 0
-0.009123 -0.177678 0
-0.010170 -0.230326 0
-0.011231 -0.288600 0
-0.012483 -0.352831 0
-0.013553 -0.420929 0
-0.010692 -0.432223 0
-0.000108 0.000018 0
0.000000 0.204616 0
0.000000 -0.000011 0
-0.009799 0.244665 0
-0.024099 0.286821 0
-0.036273 0.302622 0
-0.045342 0.303819 0
-0.051053 0.290712 0
-0.053500 0.265410 0
-0.053067 0.231293 0
-0.050352 0.192426 0
-0.046048 0.152819 0
-0.040784 0.115669 0
-0.034978 0.082891 0
-0.028765 0.055165 0
-0.022052 0.032396 0
-0.014675 0.014248 0
-0.006740 0.000364 0
0.000304 -0.008237 0
0.005716 -0.011601 0
0.010330 -0.012023 0
0.014343 -0.011058 0
0.017675 -0.009609 0
0.020207 -0.008359 0
0.021859 -0.007794 0
0.022623 -0.008241 0
0.022544 -0.009916 0
0.021701 -0.012973 0
0.020183 -0.017539 0
0.018084 -0.023746 0
0.015504 -0.031761 0
0.012560 -0.041856 0
0.009426 -0.054649 0
0.006372 -0.071724 0
0.003913 -0.096244 0
0.002535 -0.131316 0
0.001793 -0.176618 0
0.000839 -0.229131 0
-0.000730 -0.286982 0
-0.003118 -0.350815 0
-0.006110 -0.420317 0
-0.006741 -0.436943 0
-0.000088 0.000017 0
0.000000 0.208871 0
0.000000 -0.000011 0
-0.003026 0.253480 0
-0.011499 0.297425 0
-0.019181 0.311225 0
-0.024988 0.309836 0
-0.028727 0.294059 0
-0.030445 0.266274 0
-0.030383 0.230072 0
-0.028917 0.189644 0
-0.026469 0.148998 0
-0.023394 0.111195 0
-0.019866 0.077922 0
-0.015831 0.049629 0
-0.011029 0.026087 0
-0.005345 0.007137 0
0.000366 -0.006106 0
0.004689 -0.013242 0
0.008587 -0.016015 0
0.012433 -0.016133 0
0.016107 -0.014721 0
0.019430 -0.012659 0
0.022222 -0.010654 0
0.024329 -0.009248 0
0.025655 -0.008831 0
0.026166 -0.009672 0
0.025873 -0.011958 0
0.024827 -0.015836 0
0.023100 -0.021448 0
0.020792 -0.028983 0
0.018042 -0.038760 0
0.015103 -0.051524 0
0.012459 -0.069103 0
0.010863 -0.094687 0
0.010556 -0.130661 0
0.010526 -0.175983 0
0.009717 -0.227803 0
0.007714 -0.284643 0
0.004409 -0.347451 0
-0.000030 -0.417306 0
-0.003510 -0.438333 0
-0.000073 0.000017 0
0.000000 0.211356 0
0.000000 -0.000010 0
0.003156 0.256163 0
0.000370 0.302976 0
-0.003065 0.316111 0
-0.005815 0.313366 0
-0.007743 0.296170 0
-0.008867 0.267066 0
-0.009304 0.229764 0
-0.009220 0.188512 0
-0.008778 0.147297 0
-0.008071 0.109066 0
-0.007057 0.075327 0
-0.005526 0.046328 0
-0.003182 0.021911 0
-0.000294 0.002854 0
0.002107 -0.009671 0
0.004297 -0.016459 0
0.006762 -0.019345 0
0.009530 -0.019543 0
0.012497 -0.018055 0
0.015494 -0.015724 0
0.018320 -0.013257 0
0.020772 -0.011228 0
0.022678 -0.010077 0
0.023917 -0.010133 0
0.024426 -0.011634 0
0.024194 -0.014766 0
0.023259 -0.019711 0
0.021710 -0.026703 0
0.019731 -0.036166 0
0.017689 -0.049065 0
0.016263 -0.067485 0
0.016188 -0.094341 0
0.017186 -0.130979 0
0.017861 -0.175779 0
0.017159 -0.226319 0
0.014731 -0.281674 0
0.010588 -0.343071 0
0.004899 -0.412397 0
-0.000794 -0.436973 0
-0.000063 0.000016 0
0.000000 0.212380 0
0.000000 -0.000010 0
0.008864 0.253110 0
0.011544 0.303646 0
0.012196 0.317410 0
0.012395 0.314514 0
0.012258 0.297111 0
0.011759 0.267835 0
0.010871 0.230425 0
0.009603 0.189118 0
0.008030 0.147849 0
0.006309 0.109474 0
0.004667 0.075378 0
0.003398 0.045753 0
0.002636 0.020855 0
0.002027 0.001848 0
0.001582 -0.010697 0
0.001700 -0.017897 0
0.002439 -0.021248 0
0.003785 -0.021868 0
0.005678 -0.020685 0
0.007991 -0.018482 0
0.010537 -0.015931 0
0.013092 -0.013605 0
0.015437 -0.011976 0
0.017382 -0.011420 0
0.018793 -0.012236 0
0.019595 -0.014669 0
0.019786 -0.018965 0
0.019455 -0.025455 0
0.018848 -0.034738 0
0.018462 -0.048057 0
0.019033 -0.067602 0
0.020930 -0.095611 0
0.023248 -0.132334 0
0.024488 -0.175955 0
0.023778 -0.224672 0
0.020889 -0.278072 0
0.015884 -0.337619 0
0.008966 -0.405924 0
0.001538 -0.433434 0
-0.000055 0.000015 0
0.000000 0.212148 0
0.000000 -0.000009 0
0.014234 0.244619 0
0.022178 0.299643 0
0.026760 0.315260 0
0.029829 0.313304 0
0.031530 0.296806 0
0.031806 0.268453 0
0.030675 0.231920 0
0.028282 0.191352 0
0.024903 0.150591 0
0.020909 0.112429 0
0.016687 0.078238 0
0.012536 0.048359 0
0.008470 0.023282 0
0.004496 0.003907 0
0.001328 -0.009344 0
-0.000807 -0.017315 0
-0.001995 -0.021430 0
-0.002296 -0.022783 0
-0.001753 -0.022262 0
-0.000444 -0.020583 0
0.001489 -0.018358 0
0.003842 -0.016128 0
0.006378 -0.014367 0
0.008868 -0.013489 0
0.011133 -0.013847 0
0.013061 -0.015759 0
0.014624 -0.019571 0
0.015932 -0.025765 0
0.017295 -0.035173 0
0.019246 -0.049251 0
0.022281 -0.069953 0
0.026119 -0.098555 0
0.029443 -0.134536 0
0.030953 -0.176309 0
0.030026 -0.222720 0
0.026547 -0.273779 0
0.020639 -0.331148 0
0.012544 -0.398052 0
0.003573 -0.428008 0
-0.000051 0.000015 0
0.000000 0.210840 0
0.000000 -0.000008 0
0.019289 0.230932 0
0.032327 0.291120 0
0.040744 0.309759 0
0.046624 0.309745 0
0.050234 0.295134 0
0.051502 0.268690 0
0.050461 0.233949 0
0.047343 0.194891 0
0.042575 0.155221 0
0.036699 0.117689 0
0.030231 0.083752 0
0.023498 0.053971 0
0.016585 0.028895 0
0.009735 0.008990 0
0.003595 -0.005394 0
-0.000908 -0.014573 0
-0.004110 -0.019759 0
-0.006114 -0.022111 0
-0.007027 -0.022537 0
-0.006907 -0.021724 0
-0.005844 -0.020217 0
-0.003991 -0.018494 0
-0.001546 -0.017002 0
0.001275 -0.016176 0
0.004279 -0.016429 0
0.007347 -0.018160 0
0.010457 -0.021836 0
0.013737 -0.028125 0
0.017479 -0.038052 0
0.022017 -0.053043 0
0.027314 -0.074475 0
0.032514 -0.102773 0
0.036289 -0.137169 0
0.037673 -0.176539 0
0.036259 -0.220266 0
0.032018 -0.268685 0
0.025114 -0.323617 0
0.015828 -0.388858 0
0.005416 -0.420889 0
-0.000048 0.000015 0
0.000000 0.208574 0
0.000000 -0.000007 0
0.023954 0.212293 0
0.041909 0.278189 0
0.054109 0.300962 0
0.062781 0.303814 0
0.068402 0.291928 0
0.070932 0.268227 0
0.070402 0.236079 0
0.067089 0.199238 0
0.061511 0.161234 0
0.054330 0.124774 0
0.046173 0.091439 0
0.037461 0.062005 0
0.028433 0.037045 0
0.019446 0.016897 0
0.010842 0.001299 0
0.003709 -0.009610 0
-0.001521 -0.016224 0
-0.005223 -0.019865 0
-0.007553 -0.021469 0
-0.008609 -0.021766 0
-0.008485 -0.021274 0
-0.007277 -0.020427 0
-0.005112 -0.019633 0
-0.002138 -0.019314 0
0.001488 -0.019919 0
0.005651 -0.021937 0
0.010334 -0.025961 0
0.015612 -0.032787 0
0.021590 -0.043452 0
0.028193 -0.059085 0
0.034860 -0.080450 0
0.040525 -0.107531 0
0.044105 -0.139696 0
0.044924 -0.176279 0
0.042719 -0.217065 0
0.037510 -0.262635 0
0.029487 -0.314958 0
0.018961 -0.378354 0
0.007144 -0.412180 0
-0.000047 0.000014 0
0.000000 0.205424 0
0.000000 -0.000005 0
0.028047 0.189023 0
0.050677 0.260965 0
0.066633 0.288887 0
0.078125 0.295451 0
0.085895 0.286984 0
0.089987 0.266690 0
0.090439 0.237792 0
0.087532 0.203782 0
0.081819 0.167980 0
0.074031 0.133027 0
0.064888 0.100620 0
0.054936 0.071711 0
0.044580 0.046910 0
0.034273 0.026581 0
0.024397 0.010343 0
0.015129 -0.002210 0
0.007770 -0.010827 0
0.002446 -0.016079 0
-0.001186 -0.019151 0
-0.003304 -0.020792 0
-0.004011 -0.021549 0
-0.003385 -0.021868 0
-0.001505 -0.022141 0
0.001532 -0.022775 0
0.005624 -0.024218 0
0.010667 -0.027005 0
0.016595 -0.031797 0
0.023327 -0.039382 0
0.030673 -0.050632 0
0.038177 -0.066312 0
0.045030 -0.086807 0
0.050250 -0.112018 0
0.053018 -0.141568 0
0.052842 -0.175152 0
0.049536 -0.212852 0
0.043142 -0.255453 0
0.033860 -0.305069 0
0.022025 -0.366515 0
0.008807 -0.401928 0
-0.000047 0.000014 0
0.000000 0.201430 0
0.000000 -0.000004 0
0.031286 0.161616 0
0.058202 0.239602 0
0.077875 0.273514 0
0.092275 0.284552 0
0.102375 0.280067 0
0.108354 0.263682 0
0.110268 0.238535 0
0.108380 0.207858 0
0.103239 0.174734 0
0.095591 0.141705 0
0.086220 0.110535 0
0.075787 0.082313 0
0.064843 0.057708 0
0.053924 0.037080 0
0.043548 0.020443 0
0.033781 0.007017 0
0.024905 -0.003541 0
0.018054 -0.010909 0
0.013260 -0.015719 0
0.010253 -0.018941 0
0.008882 -0.021193 0
0.009045 -0.022933 0
0.010668 -0.024550 0
0.013667 -0.026442 0
0.017942 -0.029054 0
0.023376 -0.032909 0
0.029800 -0.038621 0
0.036953 -0.046865 0
0.044415 -0.058302 0
0.051544 -0.073442 0
0.057530 -0.092523 0
0.061556 -0.115518 0
0.062985 -0.142287 0
0.061428 -0.172798 0
0.056734 -0.207365 0
0.048945 -0.246959 0
0.038268 -0.293841 0
0.025050 -0.353300 0
0.010429 -0.390155 0
-0.000048 0.000014 0
0.000000 0.196616 0
0.000000 -0.000003 0
0.033274 0.130821 0
0.063839 0.214376 0
0.087136 0.254814 0
0.104605 0.270951 0
0.117295 0.270904 0
0.125516 0.258797 0
0.129362 0.237765 0
0.129079 0.210810 0
0.125182 0.180769 0
0.118401 0.150047 0
0.109543 0.120425 0
0.099353 0.093088 0
0.088486 0.068773 0
0.077546 0.047876 0
0.067085 0.030486 0
0.057550 0.016433 0
0.048784 0.004901 0
0.041117 -0.004434 0
0.035447 -0.011351 0
0.031728 -0.016413 0
0.029801 -0.020342 0
0.029535 -0.023655 0