# vtk DataFile Version 2.0
generated by CFD-lab course output (written by Tobias Neckel) 
ASCII

DATASET STRUCTURED_GRID
DIMENSIONS  42 42 1 
POINTS 1764 float

0.150000 0.150000 0
0.167857 0.150000 0
0.185714 0.150000 0
0.203571 0.150000 0
0.221429 0.150000 0
0.239286 0.150000 0
0.257143 0.150000 0
0.275000 0.150000 0
0.292857 0.150000 0
0.310714 0.150000 0
0.328571 0.150000 0
0.346429 0.150000 0
0.364286 0.150000 0
0.382143 0.150000 0
0.400000 0.150000 0
0.417857 0.150000 0
0.435714 0.150000 0
0.453571 0.150000 0
0.471429 0.150000 0
0.489286 0.150000 0
0.507143 0.150000 0
0.525000 0.150000 0
0.542857 0.150000 0
0.560714 0.150000 0
0.578571 0.150000 0
0.596429 0.150000 0
0.614286 0.150000 0
0.632143 0.150000 0
0.650000 0.150000 0
0.667857 0.150000 0
0.685714 0.150000 0
0.703571 0.150000 0
0.721429 0.150000 0
0.739286 0.150000 0
0.757143 0.150000 0
0.775000 0.150000 0
0.792857 0.150000 0
0.810714 0.150000 0
0.828571 0.150000 0
0.846429 0.150000 0
0.864286 0.150000 0
0.882143 0.150000 0
0.150000 0.167857 0
0.167857 0.167857 0
0.185714 0.167857 0
0.203571 0.167857 0
0.221429 0.167857 0
0.239286 0.167857 0
0.257143 0.167857 0
0.275000 0.167857 0
0.292857 0.167857 0
0.310714 0.167857 0
0.328571 0.167857 0
0.346429 0.167857 0
0.364286 0.167857 0
0.382143 0.167857 0
0.400000 0.167857 0
0.417857 0.167857 0
0.435714 0.167857 0
0.453571 0.167857 0
0.471429 0.167857 0
0.489286 0.167857 0
0.507143 0.167857 0
0.525000 0.167857 0
0.542857 0.167857 0
0.560714 0.167857 0
0.578571 0.167857 0
0.596429 0.167857 0
0.614286 0.167857 0
0.632143 0.167857 0
0.650000 0.167857 0
0.667857 0.167857 0
0.685714 0.167857 0
0.703571 0.167857 0
0.721429 0.167857 0
0.739286 0.167857 0
0.757143 0.167857 0
0.775000 0.167857 0
0.792857 0.167857 0
0.810714 0.167857 0
0.828571 0.167857 0
0.846429 0.167857 0
0.864286 0.167857 0
0.882143 0.167857 0
0.150000 0.185714 0
0.167857 0.185714 0
0.185714 0.185714 0
0.203571 0.185714 0
0.221429 0.185714 0
0.239286 0.185714 0
0.257143 0.185714 0
0.275000 0.185714 0
0.292857 0.185714 0
0.310714 0.185714 0
0.328571 0.185714 0
0.346429 0.185714 0
0.364286 0.185714 0
0.382143 0.185714 0
0.400000 0.185714 0
0.417857 0.185714 0
0.435714 0.185714 0
0.453571 0.185714 0
0.471429 0.185714 0
0.489286 0.185714 0
0.507143 0.185714 0
0.525000 0.185714 0
0.542857 0.185714 0
0.560714 0.185714 0
0.578571 0.185714 0
0.596429 0.185714 0
0.614286 0.185714 0
0.632143 0.185714 0
0.650000 0.185714 0
0.667857 0.185714 0
0.685714 0.185714 0
0.703571 0.185714 0
0.721429 0.185714 0
0.739286 0.185714 0
0.757143 0.185714 0
0.775000 0.185714 0
0.792857 0.185714 0
0.810714 0.185714 0
0.828571 0.185714 0
0.846429 0.185714 0
0.864286 0.185714 0
0.882143 0.185714 0
0.150000 0.203571 0
0.167857 0.203571 0
0.185714 0.203571 0
0.203571 0.203571 0
0.221429 0.203571 0
0.239286 0.203571 0
0.257143 0.203571 0
0.275000 0.203571 0
0.292857 0.203571 0
0.310714 0.203571 0
0.328571 0.203571 0
0.346429 0.203571 0
0.364286 0.203571 0
0.382143 0.203571 0
0.400000 0.203571 0
0.417857 0.203571 0
0.435714 0.203571 0
0.453571 0.203571 0
0.471429 0.203571 0
0.489286 0.203571 0
0.507143 0.203571 0
0.525000 0.203571 0
0.542857 0.203571 0
0.560714 0.203571 0
0.578571 0.203571 0
0.596429 0.203571 0
0.614286 0.203571 0
0.632143 0.203571 0
0.650000 0.203571 0
0.667857 0.203571 0
0.685714 0.203571 0
0.703571 0.203571 0
0.721429 0.203571 0
0.739286 0.203571 0
0.757143 0.203571 0
0.775000 0.203571 0
0.792857 0.203571 0
0.810714 0.203571 0
0.828571 0.203571 0
0.846429 0.203571 0
0.864286 0.203571 0
0.882143 0.203571 0
0.150000 0.221429 0
0.167857 0.221429 0
0.185714 0.221429 0
0.203571 0.221429 0
0.221429 0.221429 0
0.239286 0.221429 0
0.257143 0.221429 0
0.275000 0.221429 0
0.292857 0.221429 0
0.310714 0.221429 0
0.328571 0.221429 0
0.346429 0.221429 0
0.364286 0.221429 0
0.382143 0.221429 0
0.400000 0.221429 0
0.417857 0.221429 0
0.435714 0.221429 0
0.453571 0.221429 0
0.471429 0.221429 0
0.489286 0.221429 0
0.507143 0.221429 0
0.525000 0.221429 0
0.542857 0.221429 0
0.560714 0.221429 0
0.578571 0.221429 0
0.596429 0.221429 0
0.614286 0.221429 0
0.632143 0.221429 0
0.650000 0.221429 0
0.667857 0.221429 0
0.685714 0.221429 0
0.703571 0.221429 0
0.721429 0.221429 0
0.739286 0.221429 0
0.757143 0.221429 0
0.775000 0.221429 0
0.792857 0.221429 0
0.810714 0.221429 0
0.828571 0.221429 0
0.846429 0.221429 0
0.864286 0.221429 0
0.882143 0.221429 0
0.150000 0.239286 0
0.167857 0.239286 0
0.185714 0.239286 0
0.203571 0.239286 0
0.221429 0.239286 0
0.239286 0.239286 0
0.257143 0.239286 0
0.275000 0.239286 0
0.292857 0.239286 0
0.310714 0.239286 0
0.328571 0.239286 0
0.346429 0.239286 0
0.364286 0.239286 0
0.382143 0.239286 0
0.400000 0.239286 0
0.417857 0.239286 0
0.435714 0.239286 0
0.453571 0.239286 0
0.471429 0.239286 0
0.489286 0.239286 0
0.507143 0.239286 0
0.525000 0.239286 0
0.542857 0.239286 0
0.560714 0.239286 0
0.578571 0.239286 0
0.596429 0.239286 0
0.614286 0.239286 0
0.632143 0.239286 0
0.650000 0.239286 0
0.667857 0.239286 0
0.685714 0.239286 0
0.703571 0.239286 0
0.721429 0.239286 0
0.739286 0.239286 0
0.757143 0.239286 0
0.775000 0.239286 0
0.792857 0.239286 0
0.810714 0.239286 0
0.828571 0.239286 0
0.846429 0.239286 0
0.864286 0.239286 0
0.882143 0.239286 0
0.150000 0.257143 0
0.167857 0.257143 0
0.185714 0.257143 0
0.203571 0.257143 0
0.221429 0.257143 0
0.239286 0.257143 0
0.257143 0.257143 0
0.275000 0.257143 0
0.292857 0.257143 0
0.310714 0.257143 0
0.328571 0.257143 0
0.346429 0.257143 0
0.364286 0.257143 0
0.382143 0.257143 0
0.400000 0.257143 0
0.417857 0.257143 0
0.435714 0.257143 0
0.453571 0.257143 0
0.471429 0.257143 0
0.489286 0.257143 0
0.507143 0.257143 0
0.525000 0.257143 0
0.542857 0.257143 0
0.560714 0.257143 0
0.578571 0.257143 0
0.596429 0.257143 0
0.614286 0.257143 0
0.632143 0.257143 0
0.650000 0.257143 0
0.667857 0.257143 0
0.685714 0.257143 0
0.703571 0.257143 0
0.721429 0.257143 0
0.739286 0.257143 0
0.757143 0.257143 0
0.775000 0.257143 0
0.792857 0.257143 0
0.810714 0.257143 0
0.828571 0.257143 0
0.846429 0.257143 0
0.864286 0.257143 0
0.882143 0.257143 0
0.150000 0.275000 0
0.167857 0.275000 0
0.185714 0.275000 0
0.203571 0.275000 0
0.221429 0.275000 0
0.239286 0.275000 0
0.257143 0.275000 0
0.275000 0.275000 0
0.292857 0.275000 0
0.310714 0.275000 0
0.328571 0.275000 0
0.346429 0.275000 0
0.364286 0.275000 0
0.382143 0.275000 0
0.400000 0.275000 0
0.417857 0.275000 0
0.435714 0.275000 0
0.453571 0.275000 0
0.471429 0.275000 0
0.489286 0.275000 0
0.507143 0.275000 0
0.525000 0.275000 0
0.542857 0.275000 0
0.560714 0.275000 0
0.578571 0.275000 0
0.596429 0.275000 0
0.614286 0.275000 0
0.632143 0.275000 0
0.650000 0.275000 0
0.667857 0.275000 0
0.685714 0.275000 0
0.703571 0.275000 0
0.721429 0.275000 0
0.739286 0.275000 0
0.757143 0.275000 0
0.775000 0.275000 0
0.792857 0.275000 0
0.810714 0.275000 0
0.828571 0.275000 0
0.846429 0.275000 0
0.864286 0.275000 0
0.882143 0.275000 0
0.150000 0.292857 0
0.167857 0.292857 0
0.185714 0.292857 0
0.203571 0.292857 0
0.221429 0.292857 0
0.239286 0.292857 0
0.257143 0.292857 0
0.275000 0.292857 0
0.292857 0.292857 0
0.310714 0.292857 0
0.328571 0.292857 0
0.346429 0.292857 0
0.364286 0.292857 0
0.382143 0.292857 0
0.400000 0.292857 0
0.417857 0.292857 0
0.435714 0.292857 0
0.453571 0.292857 0
0.471429 0.292857 0
0.489286 0.292857 0
0.507143 0.292857 0
0.525000 0.292857 0
0.542857 0.292857 0
0.560714 0.292857 0
0.578571 0.292857 0
0.596429 0.292857 0
0.614286 0.292857 0
0.632143 0.292857 0
0.650000 0.292857 0
0.667857 0.292857 0
0.685714 0.292857 0
0.703571 0.292857 0
0.721429 0.292857 0
0.739286 0.292857 0
0.757143 0.292857 0
0.775000 0.292857 0
0.792857 0.292857 0
0.810714 0.292857 0
0.828571 0.292857 0
0.846429 0.292857 0
0.864286 0.292857 0
0.882143 0.292857 0
0.150000 0.310714 0
0.167857 0.310714 0
0.185714 0.310714 0
0.203571 0.310714 0
0.221429 0.310714 0
0.239286 0.310714 0
0.257143 0.310714 0
0.275000 0.310714 0
0.292857 0.310714 0
0.310714 0.310714 0
0.328571 0.310714 0
0.346429 0.310714 0
0.364286 0.310714 0
0.382143 0.310714 0
0.400000 0.310714 0
0.417857 0.310714 0
0.435714 0.310714 0
0.453571 0.310714 0
0.471429 0.310714 0
0.489286 0.310714 0
0.507143 0.310714 0
0.525000 0.310714 0
0.542857 0.310714 0
0.560714 0.310714 0
0.578571 0.310714 0
0.596429 0.310714 0
0.614286 0.310714 0
0.632143 0.310714 0
0.650000 0.310714 0
0.667857 0.310714 0
0.685714 0.310714 0
0.703571 0.310714 0
0.721429 0.310714 0
0.739286 0.310714 0
0.757143 0.310714 0
0.775000 0.310714 0
0.792857 0.310714 0
0.810714 0.310714 0
0.828571 0.310714 0
0.846429 0.310714 0
0.864286 0.310714 0
0.882143 0.310714 0
0.150000 0.328571 0
0.167857 0.328571 0
0.185714 0.328571 0
0.203571 0.328571 0
0.221429 0.328571 0
0.239286 0.328571 0
0.257143 0.328571 0
0.275000 0.328571 0
0.292857 0.328571 0
0.310714 0.328571 0
0.328571 0.328571 0
0.346429 0.328571 0
0.364286 0.328571 0
0.382143 0.328571 0
0.400000 0.328571 0
0.417857 0.328571 0
0.435714 0.328571 0
0.453571 0.328571 0
0.471429 0.328571 0
0.489286 0.328571 0
0.507143 0.328571 0
0.525000 0.328571 0
0.542857 0.328571 0
0.560714 0.328571 0
0.578571 0.328571 0
0.596429 0.328571 0
0.614286 0.328571 0
0.632143 0.328571 0
0.650000 0.328571 0
0.667857 0.328571 0
0.685714 0.328571 0
0.703571 0.328571 0
0.721429 0.328571 0
0.739286 0.328571 0
0.757143 0.328571 0
0.775000 0.328571 0
0.792857 0.328571 0
0.810714 0.328571 0
0.828571 0.328571 0
0.846429 0.328571 0
0.864286 0.328571 0
0.882143 0.328571 0
0.150000 0.346429 0
0.167857 0.346429 0
0.185714 0.346429 0
0.203571 0.346429 0
0.221429 0.346429 0
0.239286 0.346429 0
0.257143 0.346429 0
0.275000 0.346429 0
0.292857 0.346429 0
0.310714 0.346429 0
0.328571 0.346429 0
0.346429 0.346429 0
0.364286 0.346429 0
0.382143 0.346429 0
0.400000 0.346429 0
0.417857 0.346429 0
0.435714 0.346429 0
0.453571 0.346429 0
0.471429 0.346429 0
0.489286 0.346429 0
0.507143 0.346429 0
0.525000 0.346429 0
0.542857 0.346429 0
0.560714 0.346429 0
0.578571 0.346429 0
0.596429 0.346429 0
0.614286 0.346429 0
0.632143 0.346429 0
0.650000 0.346429 0
[...]
POINT_DATA 1764 

VECTORS velocity float
0.000000 0.000000 0
-0.000002 0.000000 0
-0.000003 0.000000 0
0.000000 0.000000 0
-0.000003 0.000000 0
-0.000007 0.000000 0
0.000016 0.000000 0
0.000031 0.000000 0
0.000035 0.000000 0
0.000038 0.000000 0
0.000039 0.000000 0
0.000039 0.000000 0
0.000037 0.000000 0
0.000035 0.000000 0
0.000032 0.000000 0
0.000030 0.000000 0
0.000028 0.000000 0
0.000026 0.000000 0
0.000024 0.000000 0
0.000023 0.000000 0
0.000022 0.000000 0
0.000021 0.000000 0
0.000021 0.000000 0
0.000020 0.000000 0
0.000021 0.000000 0
0.000021 0.000000 0
0.000021 0.000000 0
0.000022 0.000000 0
0.000022 0.000000 0
0.000023 0.000000 0
0.000024 0.000000 0
0.000025 0.000000 0
0.000026 0.000000 0
0.000027 0.000000 0
0.000028 0.000000 0
0.000029 0.000000 0
0.000028 0.000000 0
0.000026 0.000000 0
0.000021 0.000000 0
0.000012 0.000000 0
0.000000 0.000000 0
0.000000 0.000000 0
0.000000 0.000002 0
0.059481 -0.054547 0
0.090665 -0.021349 0
0.098172 0.005586 0
0.072501 0.004756 0
0.032313 0.005424 0
-0.017996 0.039986 0
-0.082366 0.068700 0
-0.151754 0.073123 0
-0.218659 0.068930 0
-0.280003 0.063027 0
-0.334135 0.055786 0
-0.380627 0.048311 0
-0.419798 0.041240 0
-0.452402 0.034948 0
-0.479374 0.029580 0
-0.501657 0.025117 0
-0.520090 0.021447 0
-0.535370 0.018424 0
-0.548036 0.015894 0
-0.558481 0.013719 0
-0.566970 0.011777 0
-0.573655 0.009967 0
-0.578593 0.008172 0
-0.581736 0.006276 0
-0.582948 0.004173 0
-0.581988 0.001739 0
-0.578645 -0.001122 0
-0.572529 -0.004520 0
-0.563119 -0.008599 0
-0.549713 -0.013590 0
-0.531370 -0.019812 0
-0.506864 -0.027618 0
-0.474631 -0.037412 0
-0.432744 -0.049552 0
-0.379005 -0.064120 0
-0.311327 -0.080270 0
-0.228898 -0.094773 0
-0.135113 -0.097641 0
-0.044817 -0.056325 0
-0.000017 0.000012 0
0.000000 0.009197 0
0.000000 0.000002 0
0.028092 -0.090665 0
0.034258 -0.038692 0
0.009143 0.018163 0
-0.033303 0.065859 0
-0.107854 0.090498 0
-0.182309 0.114679 0
-0.242815 0.133758 0
-0.298232 0.136292 0
-0.350115 0.128249 0
-0.395585 0.115476 0
-0.434037 0.100624 0
-0.465629 0.085663 0
-0.491053 0.071775 0
-0.511215 0.059577 0
-0.527046 0.049255 0
-0.539379 0.040716 0
-0.548910 0.033713 0
-0.556175 0.027946 0
-0.561569 0.023111 0
-0.565360 0.018934 0
-0.567708 0.015174 0
-0.568687 0.011623 0
-0.568289 0.008081 0
-0.566464 0.004355 0
-0.563099 0.000252 0
-0.558113 -0.004302 0
-0.551297 -0.009459 0
-0.542348 -0.015527 0
-0.530863 -0.022816 0
-0.516279 -0.031749 0
-0.497904 -0.042849 0
-0.474842 -0.056739 0
-0.445965 -0.074120 0
-0.409866 -0.095626 0
-0.364876 -0.121417 0
-0.309221 -0.150107 0
-0.241545 -0.176214 0
-0.162517 -0.184081 0
-0.077820 -0.135113 0
-0.000200 0.000021 0
0.000000 0.044839 0
0.000000 -0.000002 0
-0.019717 -0.088805 0
-0.054622 -0.002399 0
-0.106699 0.073147 0
-0.156132 0.121753 0
-0.211754 0.154431 0
-0.268162 0.174948 0
-0.314534 0.184623 0
-0.352608 0.180422 0
-0.384392 0.166284 0
-0.409866 0.146949 0
-0.429619 0.125830 0
-0.444515 0.105327 0
-0.455554 0.086825 0
-0.463670 0.070941 0
-0.469639 0.057744 0
-0.474038 0.046981 0
-0.477271 0.038243 0
-0.479596 0.031083 0
-0.481158 0.025079 0
-0.482020 0.019858 0
-0.482183 0.015104 0
-0.481599 0.010548 0
-0.480189 0.005949 0
-0.477863 0.001086 0
-0.474526 -0.004178 0
-0.470090 -0.010063 0
-0.464246 -0.016887 0
-0.456743 -0.024954 0
-0.447255 -0.034668 0
-0.435393 -0.046549 0
-0.420691 -0.061248 0
-0.402574 -0.079557 0
-0.380333 -0.102389 0
-0.353061 -0.130641 0
-0.319563 -0.164765 0
-0.278196 -0.203601 0
-0.226694 -0.241477 0
-0.162316 -0.261366 0
-0.083453 -0.218842 0
-0.000332 0.000027 0
0.000000 0.087032 0
0.000000 -0.000009 0
-0.058994 -0.036043 0
-0.119388 0.048290 0
-0.167163 0.119673 0
-0.214694 0.170914 0
-0.258916 0.202529 0
-0.298667 0.217459 0
-0.329213 0.218204 0
-0.351137 0.206150 0
-0.366244 0.185506 0
-0.375907 0.160703 0
-0.381570 0.135273 0
-0.384560 0.111598 0
-0.385984 0.090930 0
-0.386653 0.073662 0
-0.387076 0.059622 0
-0.387517 0.048348 0
-0.388067 0.039271 0
-0.388701 0.031833 0
-0.389331 0.025536 0
-0.389831 0.019958 0
-0.390058 0.014753 0
-0.389859 0.009630 0
-0.389084 0.004345 0
-0.387593 -0.001308 0
-0.385264 -0.007522 0
-0.381860 -0.014583 0
-0.377214 -0.022806 0
-0.371128 -0.032518 0
-0.363381 -0.044166 0
-0.353721 -0.058313 0
-0.341867 -0.075667 0
-0.327503 -0.097097 0
-0.310261 -0.123633 0
-0.289684 -0.156396 0
-0.265073 -0.196282 0
-0.235125 -0.242976 0
-0.197241 -0.292094 0
-0.146724 -0.327322 0
-0.078065 -0.297429 0
-0.000405 0.000031 0
0.000000 0.128301 0
0.000000 -0.000017 0
-0.071801 0.030583 0
-0.134667 0.105770 0
-0.186475 0.168453 0
-0.230079 0.213505 0
-0.265355 0.238403 0
-0.292400 0.245245 0
-0.310051 0.237092 0
-0.319493 0.217454 0
-0.322749 0.191054 0
-0.321844 0.162275 0
-0.318656 0.134483 0
-0.314684 0.109741 0
-0.310969 0.088919 0
-0.308098 0.072033 0
-0.306286 0.058609 0
-0.305504 0.047972 0
-0.305576 0.039426 0
-0.306263 0.032347 0
-0.307304 0.026209 0
-0.308445 0.020585 0
-0.309445 0.015132 0
-0.310085 0.009574 0
-0.310168 0.003682 0
-0.309520 -0.002734 0
-0.307983 -0.009910 0
-0.305374 -0.018113 0
-0.301592 -0.027619 0
-0.296502 -0.038787 0
-0.289966 -0.052075 0
-0.281826 -0.068062 0
-0.271914 -0.087466 0
-0.260060 -0.111163 0
-0.246105 -0.140207 0
-0.229893 -0.175829 0
-0.211169 -0.219324 0
-0.189199 -0.271433 0
-0.161825 -0.329879 0
-0.123908 -0.380541 0
-0.067692 -0.365566 0
-0.000423 0.000032 0
0.000000 0.165103 0
0.000000 -0.000019 0
-0.069647 0.098624 0
-0.130539 0.162963 0
-0.180405 0.215085 0
-0.218999 0.249794 0
-0.246806 0.264849 0
-0.264600 0.262155 0
-0.273033 0.245298 0
-0.273974 0.218849 0
-0.269751 0.187858 0
-0.262692 0.156610 0
-0.254812 0.128112 0
-0.247578 0.103911 0
-0.241855 0.084344 0
-0.237970 0.068979 0
-0.235877 0.057028 0
-0.235311 0.047637 0
-0.235915 0.040030 0
-0.237313 0.033562 0
-0.239147 0.027719 0
-0.241089 0.022099 0
-0.242852 0.016392 0
-0.244187 0.010352 0
-0.244882 0.003781 0
-0.244763 -0.003493 0
-0.243678 -0.011668 0
-0.241555 -0.020974 0
-0.238332 -0.031677 0
-0.233951 -0.044144 0
-0.228339 -0.058843 0
-0.221405 -0.076365 0
-0.213040 -0.097433 0
-0.203127 -0.122906 0
-0.191570 -0.153800 0
-0.178329 -0.191332 0
-0.163411 -0.236977 0
-0.146634 -0.292320 0
-0.126761 -0.357385 0
-0.099384 -0.421454 0
-0.055691 -0.421337 0
-0.000402 0.000032 0
0.000000 0.195994 0
0.000000 -0.000020 0
-0.060597 0.161122 0
-0.116243 0.216528 0
-0.160843 0.256914 0
-0.193684 0.279907 0
-0.215172 0.284004 0
-0.226359 0.271472 0
-0.228707 0.246466 0
-0.224458 0.214172 0
-0.216108 0.179772 0
-0.206063 0.147335 0
-0.196297 0.119369 0
-0.188135 0.096784 0
-0.182218 0.079311 0
-0.178637 0.066055 0
-0.177136 0.055949 0
-0.177297 0.048010 0
-0.178661 0.041429 0
-0.180785 0.035579 0
-0.183269 0.029985 0
-0.185762 0.024290 0
-0.187965 0.018230 0
-0.189628 0.011604 0
-0.190552 0.004259 0
-0.190588 -0.003938 0
-0.189633 -0.013118 0
-0.187691 -0.023459 0
-0.184772 -0.035224 0
-0.180897 -0.048781 0
-0.176062 -0.064620 0
-0.170233 -0.083361 0
-0.163330 -0.105745 0
-0.155244 -0.132634 0
-0.145865 -0.165006 0
-0.135139 -0.203988 0
-0.123137 -0.251019 0
-0.110004 -0.308083 0
-0.095414 -0.377129 0
-0.076350 -0.451610 0
-0.043995 -0.464950 0
-0.000358 0.000031 0
0.000000 0.220793 0
0.000000 -0.000020 0
-0.050033 0.214867 0
-0.097608 0.263209 0
-0.135369 0.292526 0
-0.162247 0.304123 0
-0.178431 0.297524 0
-0.184982 0.275690 0
-0.183597 0.243396 0
-0.176585 0.206250 0
-0.166419 0.169463 0
-0.155426 0.136799 0
-0.145449 0.110184 0
-0.137630 0.089832 0
-0.132398 0.074846 0
-0.129650 0.063896 0
-0.128987 0.055688 0
-0.129910 0.049162 0
-0.131916 0.043518 0
-0.134545 0.038170 0
-0.137393 0.032696 0
-0.140111 0.026796 0
-0.142408 0.020258 0
-0.144046 0.012939 0
-0.144852 0.004740 0
-0.144717 -0.004412 0
-0.143604 -0.014565 0
-0.141585 -0.025834 0
-0.138756 -0.038472 0
-0.135218 -0.052854 0
-0.131041 -0.069506 0
-0.126237 -0.089098 0
-0.120749 -0.112422 0
-0.114458 -0.140371 0
-0.107215 -0.173906 0
-0.098914 -0.214059 0
-0.089594 -0.262111 0
-0.079494 -0.320043 0
-0.068891 -0.391039 0
-0.056241 -0.472874 0
-0.033546 -0.497687 0
-0.000304 0.000030 0
0.000000 0.239987 0
0.000000 -0.000020 0
-0.039126 0.258730 0
-0.077833 0.301863 0
-0.108396 0.321553 0
-0.129593 0.322969 0
-0.141425 0.306739 0
-0.144814 0.276638 0
-0.141378 0.238069 0
-0.133258 0.196993 0
-0.122748 0.158613 0
-0.111996 0.126365 0
-0.102679 0.101573 0
-0.095769 0.083733 0
-0.091519 0.071330 0
-0.089682 0.062644 0
-0.089782 0.056209 0
-0.091289 0.050938 0
-0.093703 0.046064 0
-0.096575 0.041056 0
-0.099514 0.035551 0
-0.102186 0.029305 0
-0.104311 0.022164 0
-0.105672 0.014048 0
-0.106123 0.004931 0
-0.105598 -0.005186 0
-0.104131 -0.016250 0
-0.101869 -0.028307 0
-0.098988 -0.041591 0
-0.095670 -0.056496 0
-0.092052 -0.073601 0
-0.088193 -0.093652 0
-0.084045 -0.117523 0
-0.079468 -0.146169 0
-0.074272 -0.180550 0
-0.068309 -0.221609 0
-0.061575 -0.270439 0
-0.054302 -0.328786 0
-0.047026 -0.400382 0
-0.039376 -0.486955 0
-0.024659 -0.521191 0
-0.000252 0.000029 0
0.000000 0.254337 0
0.000000 -0.000018 0
-0.028562 0.292700 0
-0.058596 0.332479 0
-0.082284 0.344286 0
-0.098374 0.337151 0
-0.106739 0.312745 0
-0.108087 0.275643 0
-0.103783 0.231840 0
-0.095650 0.187620 0
-0.085681 0.148201 0
-0.075788 0.116730 0
-0.067484 0.093957 0
-0.061605 0.078671 0
-0.058277 0.068758 0
-0.057170 0.062160 0
-0.057783 0.057296 0
-0.059599 0.053084 0
-0.062146 0.048803 0
-0.065006 0.043981 0
-0.067811 0.038307 0
-0.070245 0.031593 0
-0.072045 0.023745 0
-0.073005 0.014750 0
-0.073000 0.004666 0
-0.072005 -0.006404 0
-0.070131 -0.018294 0
-0.067583 -0.030977 0
-0.064610 -0.044671 0
-0.061465 -0.059790 0
-0.058349 -0.076984 0
-0.055357 -0.097106 0
-0.052447 -0.121147 0
-0.049454 -0.150143 0
-0.046150 -0.185064 0
-0.042357 -0.226756 0
-0.038059 -0.276119 0
-0.033464 -0.334593 0
-0.029157 -0.405964 0
-0.025509 -0.495241 0
-0.017296 -0.537063 0
-0.000205 0.000028 0
0.000000 0.264643 0
0.000000 -0.000017 0
-0.018698 0.317326 0
-0.040666 0.355585 0
-0.058104 0.361331 0
-0.069772 0.347425 0
-0.075458 0.316452 0
-0.075626 0.273682 0
-0.071293 0.225632 0
-0.063870 0.178891 0
-0.054966 0.138751 0
-0.046214 0.108168 0
-0.038970 0.087390 0
-0.033984 0.074526 0
-0.031316 0.066895 0
-0.030614 0.062150 0
-0.031402 0.058639 0
-0.033208 0.055302 0
-0.035606 0.051470 0
-0.038219 0.046721 0
-0.040713 0.040791 0
-0.042796 0.033538 0
-0.044221 0.024924 0
-0.044794 0.015004 0
-0.044391 0.003930 0
-0.042990 -0.008055 0
-0.040797 -0.020672 0
-0.038034 -0.033829 0
-0.035018 -0.047709 0
-0.032064 -0.062757 0
-0.029426 -0.079709 0
-0.027227 -0.099553 0
-0.025429 -0.123426 0
-0.023842 -0.152466 0
-0.022215 -0.187647 0
-0.020359 -0.229701 0
-0.018267 -0.279332 0
-0.016152 -0.337687 0
-0.014549 -0.408336 0
-0.014190 -0.498815 0
-0.011269 -0.546700 0
-0.000167 0.000027 0
0.000000 0.271631 0
0.000000 -0.000015 0
-0.009639 0.333367 0
-0.024290 0.371885 0
-0.036154 0.373391 0
-0.044049 0.354505 0
-0.047708 0.318599 0
-0.047351 0.271479 0
-0.043604 0.220084 0
-0.037407 0.171293 0
-0.029921 0.130544 0
-0.022441 0.100734 0
-0.016148 0.081727 0
-0.011793 0.071017 0
-0.009443 0.065389 0
-0.008766 0.062246 0
-0.009359 0.059889 0
-0.010824 0.057287 0
-0.012799 0.053814 0
-0.014954 0.049088 0
-0.016996 0.042884 0
-0.018663 0.035101 0
-0.019735 0.025743 0
-0.020033 0.014921 0
-0.019426 0.002862 0
-0.017817 -0.009997 0
-0.015471 -0.023250 0
-0.012646 -0.036756 0
-0.009705 -0.050641 0
-0.007015 -0.065381 0
-0.004860 -0.081821 0
-0.003383 -0.101103 0
-0.002547 -0.124532 0
-0.002155 -0.153357 0
-0.001951 -0.188547 0
-0.001760 -0.230704 0
-0.001603 -0.280326 0
-0.001716 -0.338311 0
-0.002563 -0.407926 0
-0.004950 -0.498521 0
-0.006340 -0.551254 0
-0.000137 0.000026 0
0.000000 0.275911 0
0.000000 -0.000013 0
-0.001529 0.341616 0
-0.009363 0.382100 0
-0.016253 0.381090 0
-0.020927 0.358979 0
-0.023070 0.319754 0
-0.022681 0.269578 0
-0.019977 0.215688 0
-0.015376 0.165208 0
-0.009545 0.123785 0
-0.003449 0.094395 0
0.001872 0.076742 0
0.005790 0.067821 0
0.008191 0.063869 0
0.009250 0.062066 0
0.009237 0.060697 0
0.008449 0.058742 0
0.007175 0.055600 0
0.005688 0.050917 0
0.004236 0.044500 0
0.003038 0.036278 0
0.002285 0.026293 0
0.002152 0.014695 0
0.002808 0.001714 0
0.004388 -0.012009 0
0.006655 -0.025843 0
0.009297 -0.039595 0
0.011951 -0.053340 0
0.014245 -0.067601 0
0.015872 -0.083340 0
0.016673 -0.101867 0
0.016675 -0.124654 0
0.016075 -0.153061 0
0.015111 -0.188041 0
0.013919 -0.230049 0
0.012424 -0.279377 0
0.010356 -0.336728 0
0.007303 -0.405102 0
0.002613 -0.495038 0
-0.002250 -0.551650 0
-0.000115 0.000026 0
0.000000 0.277970 0
0.000000 -0.000012 0
0.005622 0.342729 0
0.004289 0.386609 0
0.001960 0.384956 0
0.000186 0.361322 0
-0.000729 0.320353 0
-0.000600 0.268385 0
0.000717 0.212779 0
0.003305 0.160862 0
0.007064 0.118618 0
0.011474 0.089317 0
0.015768 0.072488 0
0.019450 0.064698 0
0.022240 0.061929 0
0.024044 0.061199 0
0.024954 0.060691 0
0.025152 0.059350 0
0.024850 0.056575 0
0.024259 0.052026 0
0.023575 0.045535 0
0.022967 0.037052 0
0.022594 0.026629 0
0.022636 0.014397 0
0.023305 0.000626 0
0.024624 -0.013844 0
0.026516 -0.028159 0
0.028703 -0.042053 0
0.030840 -0.055588 0
0.032556 -0.069302 0
0.033534 -0.084249 0
0.033609 -0.101906 0
0.032822 -0.123934 0
0.031374 -0.151793 0
0.029468 -0.186392 0
0.027162 -0.228017 0
0.024295 -0.276762 0
0.020550 -0.333189 0
0.015536 -0.400183 0
0.008755 -0.488969 0
0.001193 -0.548641 0
-0.000097 0.000025 0
0.000000 0.278160 0
0.000000 -0.000010 0
0.012133 0.337327 0
0.016921 0.385761 0
0.018912 0.385193 0
0.019902 0.361668 0
0.020146 0.320540 0
0.019924 0.268132 0
0.019634 0.211782 0
0.019795 0.158861 0
0.020922 0.115617 0
0.023196 0.085691 0
0.026378 0.068766 0
0.029933 0.061349 0
0.033282 0.059275 0
0.036048 0.059351 0
0.038118 0.059589 0
0.039542 0.058847 0
0.040449 0.056493 0
0.040986 0.052192 0
0.041293 0.045792 0
0.041495 0.037258 0
0.041711 0.026624 0
0.042085 0.013984 0
0.042773 -0.000275 0
0.043769 -0.015220 0
0.045123 -0.029922 0
0.046638 -0.043919 0
0.047991 -0.057193 0
0.048835 -0.070295 0
0.048901 -0.084393 0
0.048085 -0.101155 0
0.046479 -0.122419 0
0.044285 -0.149707 0
0.041633 -0.183830 0
0.038452 -0.224876 0
0.034463 -0.272765 0
0.029289 -0.327969 0
0.022549 -0.393307 0
0.013817 -0.480694 0
0.004068 -0.542896 0
-0.000083 0.000024 0
0.000000 0.276776 0
0.000000 -0.000009 0
0.018268 0.325808 0
0.028913 0.379829 0
0.035057 0.381976 0
0.038710 0.360089 0
0.040142 0.320331 0
0.039634 0.268897 0
0.037744 0.212907 0
0.035342 0.159573 0
0.033498 0.115217 0
0.033177 0.083862 0
0.034802 0.065751 0
0.037944 0.057794 0
0.041746 0.055814 0
0.045501 0.056363 0
0.048841 0.057196 0
0.051649 0.057018 0
0.053947 0.055131 0
0.055810 0.051183 0
0.057329 0.045026 0
0.058588 0.036634 0
0.059666 0.026038 0
0.060632 0.013335 0
0.061518 -0.001058 0
0.062341 -0.016194 0
0.063128 -0.031028 0
0.063741 -0.044920 0
0.063956 -0.057785 0
0.063551 -0.070212 0
0.062398 -0.083498 0
0.060525 -0.099484 0
0.058098 -0.120134 0
0.055288 -0.146947 0
0.052085 -0.180559 0
0.048235 -0.220847 0
0.043319 -0.267598 0
0.036901 -0.321275 0
0.028618 -0.384712 0
0.018150 -0.470488 0
0.006484 -0.534824 0
-0.000074 0.000024 0
0.000000 0.274090 0
0.000000 -0.000008 0
0.024139 0.308415 0
0.040486 0.368973 0
0.050713 0.375395 0
0.057011 0.356583 0
0.059746 0.319617 0
0.059191 0.270530 0
0.055976 0.216073 0
0.051185 0.163107 0
0.046287 0.117782 0
0.042916 0.084386 0
0.042249 0.063998 0
0.044281 0.054406 0
0.048074 0.051718 0
0.052588 0.052256 0
0.057124 0.053441 0
0.061338 0.053741 0
0.065104 0.052332 0
0.068409 0.048810 0
0.071285 0.043015 0
0.073772 0.034921 0
0.075906 0.024580 0
0.077675 0.012132 0
0.079005 -0.001983 0
0.079788 -0.016829 0
0.079982 -0.031322 0
0.079533 -0.044748 0
0.078381 -0.057004 0
0.076515 -0.068738 0
0.074025 -0.081367 0
0.071115 -0.096855 0
0.068018 -0.117181 0
0.064809 -0.143693 0
0.061270 -0.176777 0
0.056929 -0.216111 0
0.051230 -0.261431 0
0.043697 -0.313268 0
0.034003 -0.374556 0
0.021937 -0.458560 0
0.008571 -0.524746 0
-0.000068 0.000023 0
0.000000 0.270291 0
0.000000 -0.000007 0
0.029735 0.285322 0
0.051683 0.353255 0
0.066012 0.365451 0
0.075025 0.351056 0
0.079281 0.318151 0
0.079072 0.272666 0
0.075039 0.220913 0
0.068343 0.169263 0
0.060647 0.123486 0
0.053990 0.087899 0
0.050217 0.064387 0
0.050073 0.051969 0
0.052951 0.047507 0
0.057617 0.047314 0
0.063000 0.048446 0
0.068437 0.049039 0
0.073589 0.048060 0
0.078313 0.045002 0
0.082552 0.039662 0
0.086285 0.032012 0
0.089481 0.022135 0
0.092053 0.010237 0
0.093833 -0.003170 0
0.094585 -0.017172 0
0.094214 -0.030772 0
0.092746 -0.043319 0
0.090305 -0.054768 0
0.087124 -0.065857 0
0.083543 -0.078098 0
0.079943 -0.093477 0
0.076558 -0.113828 0
0.073281 -0.140199 0
0.069633 -0.172679 0
0.064933 -0.210806 0
0.058530 -0.254367 0
0.049946 -0.304048 0
0.038910 -0.362952 0
0.025340 -0.445057 0
0.010420 -0.512886 0
-0.000064 0.000022 0
0.000000 0.265518 0
0.000000 -0.000006 0
0.034925 0.256732 0
0.062337 0.332696 0
0.080840 0.352054 0
0.092728 0.343314 0
0.098816 0.315570 0
0.099464 0.274771 0
0.095296 0.226802 0
0.087448 0.177499 0
0.077591 0.132135 0
0.067866 0.094817 0
0.060489 0.067916 0
0.057007 0.051672 0
0.057615 0.044173 0
0.061317 0.042207 0
0.066775 0.042622 0
0.072939 0.043152 0
0.079160 0.042456 0
0.085085 0.039848 0
0.090521 0.035042 0
0.095346 0.027991 0
0.099440 0.018812 0
0.102635 0.007781 0
0.104688 -0.004515 0
0.105327 -0.017211 0
0.104463 -0.029483 0
0.102212 -0.040838 0
0.098874 -0.051381 0
0.094918 -0.061976 0
0.090902 -0.074186 0
0.087289 -0.089870 0
0.084185 -0.110520 0
0.081214 -0.136769 0
0.077637 -0.168429 0
0.072633 -0.205008 0
0.065523 -0.246444 0
0.055879 -0.293648 0
0.043510 -0.349950 0
0.028473 -0.430070 0
0.012102 -0.499406 0
-0.000062 0.000022 0
0.000000 0.259869 0
0.000000 -0.000005 0
0.039415 0.222985 0
0.072026 0.307340 0
0.094786 0.335059 0
0.109791 0.333080 0
0.118108 0.311415 0
0.120209 0.276186 0
0.116700 0.232929 0
0.108633 0.186968 0
0.097572 0.143068 0
0.085535 0.105001 0
0.074757 0.075246 0
0.067249 0.054842 0
0.064147 0.043196 0
0.065265 0.038153 0
0.069444 0.036825 0
0.075351 0.036654 0
0.081955 0.035913 0
0.088591 0.033641 0
0.094847 0.029402 0
0.100446 0.023094 0
0.105155 0.014846 0
0.108724 0.004989 0
0.110863 -0.005862 0
0.111346 -0.016947 0
0.110166 -0.027657 0
0.107561 -0.037729 0
0.104010 -0.047474 0
0.100167 -0.057885 0
0.096676 -0.070469 0
0.093889 -0.086760 0
0.091631 -0.107754 0
0.089227 -0.133651 0
0.085763 -0.164097 0
0.080384 -0.198692 0
0.072469 -0.237613 0
0.061680 -0.282035 0
0.047928 -0.335547 0
0.031420 -0.413649 0
0.013666 -0.484413 0
-0.000062 0.000021 0
0.000000 0.253414 0
0.000000 -0.000004 0
0.042773 0.184705 0
0.080057 0.277326 0
0.107096 0.314289 0
0.125536 0.319992 0
0.136570 0.305152 0
0.140785 0.276179 0
0.138778 0.238378 0
0.131503 0.196627 0
0.120368 0.155232 0
0.107177 0.117631 0
0.093961 0.086201 0
0.082750 0.062282 0
0.075220 0.046158 0
0.072170 0.036910 0
0.073238 0.032536 0
0.077284 0.030641 0
0.083036 0.029216 0
0.089472 0.026956 0
0.095873 0.023187 0
0.101737 0.017683 0
0.106679 0.010534 0
0.110364 0.002073 0
0.112489 -0.007137 0
0.112946 -0.016514 0
0.111859 -0.025698 0
0.109616 -0.034683 0
0.106835 -0.043987 0
0.104212 -0.054642 0
0.102243 -0.067909 0
0.100957 -0.084825 0
0.099831 -0.105858 0
0.097979 -0.130900 0
0.094455 -0.159586 0
0.088484 -0.191714 0
0.079562 -0.227739 0
0.067473 -0.269107 0
0.052237 -0.319690 0
0.034223 -0.395808 0
0.015138 -0.467986 0
-0.000061 0.000020 0
0.000000 0.246201 0
0.000000 -0.000002 0
0.044356 0.142928 0
0.085380 0.243017 0
0.116621 0.289581 0
0.138902 0.303607 0
0.153263 0.296166 0
0.160324 0.273978 0
0.160676 0.242211 0
0.155193 0.205377 0
0.145134 0.167394 0
0.132090 0.131409 0
0.117840 0.099674 0
0.104201 0.073584 0
0.092874 0.053776 0
0.085185 0.040135 0
0.081689 0.031710 0
0.082011 0.026856 0
0.085148 0.023726 0
0.089944 0.020804 0
0.095401 0.017137 0
0.100750 0.012287 0
0.105420 0.006219 0
0.108967 -0.000821 0
0.111146 -0.008444 0
0.111968 -0.016316 0
0.111685 -0.024327 0
0.110781 -0.032706 0
0.109854 -0.042070 0
0.109392 -0.053293 0
0.109520 -0.067214 0