# vtk DataFile Version 2.0
generated by CFD-lab course output (written by Tobias Neckel) 
ASCII

DATASET STRUCTURED_GRID
DIMENSIONS  42 42 1 
POINTS 1764 float

0.150000 0.150000 0
0.167857 0.150000 0
0.185714 0.150000 0
0.203571 0.150000 0
0.221429 0.150000 0
0.239286 0.150000 0
0.257143 0.150000 0
0.275000 0.150000 0
0.292857 0.150000 0
0.310714 0.150000 0
0.328571 0.150000 0
0.346429 0.150000 0
0.364286 0.150000 0
0.382143 0.150000 0
0.400000 0.150000 0
0.417857 0.150000 0
0.435714 0.150000 0
0.453571 0.150000 0
0.471429 0.150000 0
0.489286 0.150000 0
0.507143 0.150000 0
0.525000 0.150000 0
0.542857 0.150000 0
0.560714 0.150000 0
0.578571 0.150000 0
0.596429 0.150000 0
0.614286 0.150000 0
0.632143 0.150000 0
0.650000 0.150000 0
0.667857 0.150000 0
0.685714 0.150000 0
0.703571 0.150000 0
0.721429 0.150000 0
0.739286 0.150000 0
0.757143 0.150000 0
0.775000 0.150000 0
0.792857 0.150000 0
0.810714 0.150000 0
0.828571 0.150000 0
0.846429 0.150000 0
0.864286 0.150000 0
0.882143 0.150000 0
0.150000 0.167857 0
0.167857 0.167857 0
0.185714 0.167857 0
0.203571 0.167857 0
0.221429 0.167857 0
0.239286 0.167857 0
0.257143 0.167857 0
0.275000 0.167857 0
0.292857 0.167857 0
0.310714 0.167857 0
0.328571 0.167857 0
0.346429 0.167857 0
0.364286 0.167857 0
0.382143 0.167857 0
0.400000 0.167857 0
0.417857 0.167857 0
0.435714 0.167857 0
0.453571 0.167857 0
0.471429 0.167857 0
0.489286 0.167857 0
0.507143 0.167857 0
0.525000 0.167857 0
0.542857 0.167857 0
0.560714 0.167857 0
0.578571 0.167857 0
0.596429 0.167857 0
0.614286 0.167857 0
0.632143 0.167857 0
0.650000 0.167857 0
0.667857 0.167857 0
0.685714 0.167857 0
0.703571 0.167857 0
0.721429 0.167857 0
0.739286 0.167857 0
0.757143 0.167857 0
0.775000 0.167857 0
0.792857 0.167857 0
0.810714 0.167857 0
0.828571 0.167857 0
0.846429 0.167857 0
0.864286 0.167857 0
0.882143 0.167857 0
0.150000 0.185714 0
0.167857 0.185714 0
0.185714 0.185714 0
0.203571 0.185714 0
0.221429 0.185714 0
0.239286 0.185714 0
0.257143 0.185714 0
0.275000 0.185714 0
0.292857 0.185714 0
0.310714 0.185714 0
0.328571 0.185714 0
0.346429 0.185714 0
0.364286 0.185714 0
0.382143 0.185714 0
0.400000 0.185714 0
0.417857 0.185714 0
0.435714 0.185714 0
0.453571 0.185714 0
0.471429 0.185714 0
0.489286 0.185714 0
0.507143 0.185714 0
0.525000 0.185714 0
0.542857 0.185714 0
0.560714 0.185714 0
0.578571 0.185714 0
0.596429 0.185714 0
0.614286 0.185714 0
0.632143 0.185714 0
0.650000 0.185714 0
0.667857 0.185714 0
0.685714 0.185714 0
0.703571 0.185714 0
0.721429 0.185714 0
0.739286 0.185714 0
0.757143 0.185714 0
0.775000 0.185714 0
0.792857 0.185714 0
0.810714 0.185714 0
0.828571 0.185714 0
0.846429 0.185714 0
0.864286 0.185714 0
0.882143 0.185714 0
0.150000 0.203571 0
0.167857 0.203571 0
0.185714 0.203571 0
0.203571 0.203571 0
0.221429 0.203571 0
0.239286 0.203571 0
0.257143 0.203571 0
0.275000 0.203571 0
0.292857 0.203571 0
0.310714 0.203571 0
0.328571 0.203571 0
0.346429 0.203571 0
0.364286 0.203571 0
0.382143 0.203571 0
0.400000 0.203571 0
0.417857 0.203571 0
0.435714 0.203571 0
0.453571 0.203571 0
0.471429 0.203571 0
0.489286 0.203571 0
0.507143 0.203571 0
0.525000 0.203571 0
0.542857 0.203571 0
0.560714 0.203571 0
0.578571 0.203571 0
0.596429 0.203571 0
0.614286 0.203571 0
0.632143 0.203571 0
0.650000 0.203571 0
0.667857 0.203571 0
0.685714 0.203571 0
0.703571 0.203571 0
0.721429 0.203571 0
0.739286 0.203571 0
0.757143 0.203571 0
0.775000 0.203571 0
0.792857 0.203571 0
0.810714 0.203571 0
0.828571 0.203571 0
0.846429 0.203571 0
0.864286 0.203571 0
0.882143 0.203571 0
0.150000 0.221429 0
0.167857 0.221429 0
0.185714 0.221429 0
0.203571 0.221429 0
0.221429 0.221429 0
0.239286 0.221429 0
0.257143 0.221429 0
0.275000 0.221429 0
0.292857 0.221429 0
0.310714 0.221429 0
0.328571 0.221429 0
0.346429 0.221429 0
0.364286 0.221429 0
0.382143 0.221429 0
0.400000 0.221429 0
0.417857 0.221429 0
0.435714 0.221429 0
0.453571 0.221429 0
0.471429 0.221429 0
0.489286 0.221429 0
0.507143 0.221429 0
0.525000 0.221429 0
0.542857 0.221429 0
0.560714 0.221429 0
0.578571 0.221429 0
0.596429 0.221429 0
0.614286 0.221429 0
0.632143 0.221429 0
0.650000 0.221429 0
0.667857 0.221429 0
0.685714 0.221429 0
0.703571 0.221429 0
0.721429 0.221429 0
0.739286 0.221429 0
0.757143 0.221429 0
0.775000 0.221429 0
0.792857 0.221429 0
0.810714 0.221429 0
0.828571 0.221429 0
0.846429 0.221429 0
0.864286 0.221429 0
0.882143 0.221429 0
0.150000 0.239286 0
0.167857 0.239286 0
0.185714 0.239286 0
0.203571 0.239286 0
0.221429 0.239286 0
0.239286 0.239286 0
0.257143 0.239286 0
0.275000 0.239286 0
0.292857 0.239286 0
0.310714 0.239286 0
0.328571 0.239286 0
0.346429 0.239286 0
0.364286 0.239286 0
0.382143 0.239286 0
0.400000 0.239286 0
0.417857 0.239286 0
0.435714 0.239286 0
0.453571 0.239286 0
0.471429 0.239286 0
0.489286 0.239286 0
0.507143 0.239286 0
0.525000 0.239286 0
0.542857 0.239286 0
0.560714 0.239286 0
0.578571 0.239286 0
0.596429 0.239286 0
0.614286 0.239286 0
0.632143 0.239286 0
0.650000 0.239286 0
0.667857 0.239286 0
0.685714 0.239286 0
0.703571 0.239286 0
0.721429 0.239286 0
0.739286 0.239286 0
0.757143 0.239286 0
0.775000 0.239286 0
0.792857 0.239286 0
0.810714 0.239286 0
0.828571 0.239286 0
0.846429 0.239286 0
0.864286 0.239286 0
0.882143 0.239286 0
0.150000 0.257143 0
0.167857 0.257143 0
0.185714 0.257143 0
0.203571 0.257143 0
0.221429 0.257143 0
0.239286 0.257143 0
0.257143 0.257143 0
0.275000 0.257143 0
0.292857 0.257143 0
0.310714 0.257143 0
0.328571 0.257143 0
0.346429 0.257143 0
0.364286 0.257143 0
0.382143 0.257143 0
0.400000 0.257143 0
0.417857 0.257143 0
0.435714 0.257143 0
0.453571 0.257143 0
0.471429 0.257143 0
0.489286 0.257143 0
0.507143 0.257143 0
0.525000 0.257143 0
0.542857 0.257143 0
0.560714 0.257143 0
0.578571 0.257143 0
0.596429 0.257143 0
0.614286 0.257143 0
0.632143 0.257143 0
0.650000 0.257143 0
0.667857 0.257143 0
0.685714 0.257143 0
0.703571 0.257143 0
0.721429 0.257143 0
0.739286 0.257143 0
0.757143 0.257143 0
0.775000 0.257143 0
0.792857 0.257143 0
0.810714 0.257143 0
0.828571 0.257143 0
0.846429 0.257143 0
0.864286 0.257143 0
0.882143 0.257143 0
0.150000 0.275000 0
0.167857 0.275000 0
0.185714 0.275000 0
0.203571 0.275000 0
0.221429 0.275000 0
0.239286 0.275000 0
0.257143 0.275000 0
0.275000 0.275000 0
0.292857 0.275000 0
0.310714 0.275000 0
0.328571 0.275000 0
0.346429 0.275000 0
0.364286 0.275000 0
0.382143 0.275000 0
0.400000 0.275000 0
0.417857 0.275000 0
0.435714 0.275000 0
0.453571 0.275000 0
0.471429 0.275000 0
0.489286 0.275000 0
0.507143 0.275000 0
0.525000 0.275000 0
0.542857 0.275000 0
0.560714 0.275000 0
0.578571 0.275000 0
0.596429 0.275000 0
0.614286 0.275000 0
0.632143 0.275000 0
0.650000 0.275000 0
0.667857 0.275000 0
0.685714 0.275000 0
0.703571 0.275000 0
0.721429 0.275000 0
0.739286 0.275000 0
0.757143 0.275000 0
0.775000 0.275000 0
0.792857 0.275000 0
0.810714 0.275000 0
0.828571 0.275000 0
0.846429 0.275000 0
0.864286 0.275000 0
0.882143 0.275000 0
0.150000 0.292857 0
0.167857 0.292857 0
0.185714 0.292857 0
0.203571 0.292857 0
0.221429 0.292857 0
0.239286 0.292857 0
0.257143 0.292857 0
0.275000 0.292857 0
0.292857 0.292857 0
0.310714 0.292857 0
0.328571 0.292857 0
0.346429 0.292857 0
0.364286 0.292857 0
0.382143 0.292857 0
0.400000 0.292857 0
0.417857 0.292857 0
0.435714 0.292857 0
0.453571 0.292857 0
0.471429 0.292857 0
0.489286 0.292857 0
0.507143 0.292857 0
0.525000 0.292857 0
0.542857 0.292857 0
0.560714 0.292857 0
0.578571 0.292857 0
0.596429 0.292857 0
0.614286 0.292857 0
0.632143 0.292857 0
0.650000 0.292857 0
0.667857 0.292857 0
0.685714 0.292857 0
0.703571 0.292857 0
0.721429 0.292857 0
0.739286 0.292857 0
0.757143 0.292857 0
0.775000 0.292857 0
0.792857 0.292857 0
0.810714 0.292857 0
0.828571 0.292857 0
0.846429 0.292857 0
0.864286 0.292857 0
0.882143 0.292857 0
0.150000 0.310714 0
0.167857 0.310714 0
0.185714 0.310714 0
0.203571 0.310714 0
0.221429 0.310714 0
0.239286 0.310714 0
0.257143 0.310714 0
0.275000 0.310714 0
0.292857 0.310714 0
0.310714 0.310714 0
0.328571 0.310714 0
0.346429 0.310714 0
0.364286 0.310714 0
0.382143 0.310714 0
0.400000 0.310714 0
0.417857 0.310714 0
0.435714 0.310714 0
0.453571 0.310714 0
0.471429 0.310714 0
0.489286 0.310714 0
0.507143 0.310714 0
0.525000 0.310714 0
0.542857 0.310714 0
0.560714 0.310714 0
0.578571 0.310714 0
0.596429 0.310714 0
0.614286 0.310714 0
0.632143 0.310714 0
0.650000 0.310714 0
0.667857 0.310714 0
0.685714 0.310714 0
0.703571 0.310714 0
0.721429 0.310714 0
0.739286 0.310714 0
0.757143 0.310714 0
0.775000 0.310714 0
0.792857 0.310714 0
0.810714 0.310714 0
0.828571 0.310714 0
0.846429 0.310714 0
0.864286 0.310714 0
0.882143 0.310714 0
0.150000 0.328571 0
0.167857 0.328571 0
0.185714 0.328571 0
0.203571 0.328571 0
0.221429 0.328571 0
0.239286 0.328571 0
0.257143 0.328571 0
0.275000 0.328571 0
0.292857 0.328571 0
0.310714 0.328571 0
0.328571 0.328571 0
0.346429 0.328571 0
0.364286 0.328571 0
0.382143 0.328571 0
0.400000 0.328571 0
0.417857 0.328571 0
0.435714 0.328571 0
0.453571 0.328571 0
0.471429 0.328571 0
0.489286 0.328571 0
0.507143 0.328571 0
0.525000 0.328571 0
0.542857 0.328571 0
0.560714 0.328571 0
0.578571 0.328571 0
0.596429 0.328571 0
0.614286 0.328571 0
0.632143 0.328571 0
0.650000 0.328571 0
0.667857 0.328571 0
0.685714 0.328571 0
0.703571 0.328571 0
0.721429 0.328571 0
0.739286 0.328571 0
0.757143 0.328571 0
0.775000 0.328571 0
0.792857 0.328571 0
0.810714 0.328571 0
0.828571 0.328571 0
0.846429 0.328571 0
0.864286 0.328571 0
0.882143 0.328571 0
0.150000 0.346429 0
0.167857 0.346429 0
0.185714 0.346429 0
0.203571 0.346429 0
0.221429 0.346429 0
0.239286 0.346429 0
0.257143 0.346429 0
0.275000 0.346429 0
0.292857 0.346429 0
0.310714 0.346429 0
0.328571 0.346429 0
0.346429 0.346429 0
0.364286 0.346429 0
0.382143 0.346429 0
0.400000 0.346429 0
0.417857 0.346429 0
0.435714 0.346429 0
0.453571 0.346429 0
0.471429 0.346429 0
0.489286 0.346429 0
0.507143 0.346429 0
0.525000 0.346429 0
0.542857 0.346429 0
0.560714 0.346429 0
0.578571 0.346429 0
0.596429 0.346429 0
0.614286 0.346429 0
0.632143 0.346429 0
0.650000 0.346429 0
[...]
POINT_DATA 1764 

VECTORS velocity float
0.000000 0.000000 0
-0.000002 0.000000 0
-0.000003 0.000000 0
-0.000003 0.000000 0
-0.000002 0.000000 0
-0.000002 0.000000 0
-0.000001 0.000000 0
-0.000001 0.000000 0
-0.000004 0.000000 0
-0.000004 0.000000 0
0.000002 0.000000 0
0.000006 0.000000 0
0.000008 0.000000 0
0.000009 0.000000 0
0.000010 0.000000 0
0.000011 0.000000 0
0.000011 0.000000 0
0.000011 0.000000 0
0.000011 0.000000 0
0.000011 0.000000 0
0.000011 0.000000 0
0.000011 0.000000 0
0.000011 0.000000 0
0.000011 0.000000 0
0.000011 0.000000 0
0.000011 0.000000 0
0.000011 0.000000 0
0.000011 0.000000 0
0.000011 0.000000 0
0.000012 0.000000 0
0.000012 0.000000 0
0.000012 0.000000 0
0.000012 0.000000 0
0.000011 0.000000 0
0.000011 0.000000 0
0.000010 0.000000 0
0.000008 0.000000 0
0.000006 0.000000 0
0.000001 0.000000 0
-0.000001 0.000000 0
-0.000000 0.000000 0
0.000000 0.000000 0
0.000000 0.000002 0
0.029439 -0.027061 0
0.054495 -0.017830 0
0.065400 -0.003608 0
0.063642 0.006418 0
0.054078 0.009811 0
0.045756 0.008894 0
0.038790 0.003527 0
0.022639 -0.008720 0
-0.000716 -0.002396 0
-0.029695 0.021739 0
-0.065369 0.035151 0
-0.103494 0.038555 0
-0.140882 0.037941 0
-0.175843 0.035823 0
-0.207380 0.032666 0
-0.235052 0.029049 0
-0.258780 0.025335 0
-0.278721 0.021749 0
-0.295151 0.018407 0
-0.308386 0.015344 0
-0.318726 0.012541 0
-0.326414 0.009944 0
-0.331616 0.007461 0
-0.334395 0.004974 0
-0.334700 0.002357 0
-0.332384 -0.000526 0
-0.327258 -0.003808 0
-0.319005 -0.007552 0
-0.307203 -0.011792 0
-0.291336 -0.016637 0
-0.270798 -0.022173 0
-0.244938 -0.028413 0
-0.213138 -0.035227 0
-0.175003 -0.042194 0
-0.130724 -0.048343 0
-0.081804 -0.051577 0
-0.032468 -0.046896 0
0.007742 -0.017030 0
0.020461 0.016108 0
0.000007 -0.000001 0
0.000000 -0.012298 0
0.000000 0.000003 0
0.026880 -0.054495 0
0.047039 -0.035961 0
0.055149 -0.009147 0
0.052824 0.011322 0
0.040844 0.017887 0
0.021757 0.015288 0
-0.004757 0.023117 0
-0.044325 0.039506 0
-0.098254 0.052334 0
-0.142092 0.064653 0
-0.178837 0.073799 0
-0.212181 0.075513 0
-0.242715 0.072349 0
-0.269545 0.066499 0
-0.292466 0.059209 0
-0.311515 0.051400 0
-0.326927 0.043669 0
-0.339032 0.036371 0
-0.348191 0.029665 0
-0.354744 0.023575 0
-0.358976 0.018027 0
-0.361103 0.012890 0
-0.361251 0.007981 0
-0.359472 0.003084 0
-0.355729 -0.002010 0
-0.350009 -0.007442 0
-0.342140 -0.013379 0
-0.331908 -0.020055 0
-0.318947 -0.027670 0
-0.302814 -0.036404 0
-0.283023 -0.046398 0
-0.259050 -0.057660 0
-0.230405 -0.069935 0
-0.196755 -0.082414 0
-0.158184 -0.093198 0
-0.115710 -0.098256 0
-0.072061 -0.089546 0
-0.031941 -0.052929 0
0.005612 0.007742 0
0.000012 -0.000002 0
0.000000 -0.020463 0
0.000000 0.000004 0
0.017164 -0.074100 0
0.025751 -0.046099 0
0.023275 -0.009393 0
0.009408 0.020724 0
-0.011685 0.040878 0
-0.045351 0.054495 0
-0.089413 0.069609 0
-0.131662 0.084776 0
-0.171426 0.095370 0
-0.207448 0.102322 0
-0.236561 0.105240 0
-0.260401 0.102433 0
-0.280092 0.095305 0
-0.296015 0.085574 0
-0.308588 0.074636 0
-0.318236 0.063510 0
-0.325387 0.052852 0
-0.330436 0.043014 0
-0.333720 0.034119 0
-0.335508 0.026130 0
-0.335995 0.018900 0
-0.335304 0.012219 0
-0.333492 0.005831 0
-0.330566 -0.000547 0
-0.326506 -0.007106 0
-0.321225 -0.014115 0
-0.314494 -0.021910 0
-0.306050 -0.030745 0
-0.295595 -0.040886 0
-0.282782 -0.052561 0
-0.267247 -0.065938 0
-0.248605 -0.081031 0
-0.226473 -0.097522 0
-0.200507 -0.114415 0
-0.170483 -0.129388 0
-0.136451 -0.137701 0
-0.098893 -0.130665 0
-0.058693 -0.094703 0
-0.017182 -0.015833 0
0.000004 0.000003 0
0.000000 -0.017906 0
0.000000 0.000003 0
0.001406 -0.080247 0
-0.007836 -0.042072 0
-0.025426 0.007196 0
-0.048922 0.046282 0
-0.076847 0.072646 0
-0.110788 0.093016 0
-0.147414 0.109428 0
-0.181443 0.121519 0
-0.211389 0.128119 0
-0.236894 0.129788 0
-0.256405 0.126752 0
-0.270792 0.119044 0
-0.281149 0.107963 0
-0.288346 0.094994 0
-0.293114 0.081429 0
-0.296045 0.068199 0
-0.297606 0.055870 0
-0.298149 0.044705 0
-0.297927 0.034737 0
-0.297106 0.025849 0
-0.295781 0.017823 0
-0.293989 0.010388 0
-0.291717 0.003243 0
-0.288912 -0.003903 0
-0.285562 -0.011351 0
-0.281415 -0.019454 0
-0.276295 -0.028554 0
-0.269964 -0.038954 0
-0.262179 -0.050937 0
-0.252690 -0.064752 0
-0.241249 -0.080575 0
-0.227611 -0.098435 0
-0.211509 -0.118033 0
-0.192608 -0.138404 0
-0.170430 -0.157254 0
-0.144271 -0.169846 0
-0.113173 -0.167304 0
-0.076284 -0.134640 0
-0.034914 -0.050951 0
-0.000029 0.000007 0
0.000000 -0.003271 0
0.000000 0.000001 0
-0.016449 -0.066264 0
-0.042080 -0.019267 0
-0.069519 0.031693 0
-0.094567 0.072145 0
-0.122280 0.102745 0
-0.151482 0.125062 0
-0.179918 0.140265 0
-0.205072 0.148751 0
-0.225833 0.150820 0
-0.241865 0.147338 0
-0.252788 0.139139 0
-0.259390 0.127177 0
-0.262695 0.112859 0
-0.263660 0.097539 0
-0.263068 0.082334 0
-0.261515 0.068001 0
-0.259427 0.054956 0
-0.257094 0.043335 0
-0.254696 0.033076 0
-0.252333 0.023984 0
-0.250040 0.015783 0
-0.247803 0.008154 0
-0.245572 0.000754 0
-0.243269 -0.006701 0
-0.240774 -0.014603 0
-0.237866 -0.023383 0
-0.234348 -0.033361 0
-0.229998 -0.044861 0
-0.224597 -0.058160 0
-0.217948 -0.073491 0
-0.209896 -0.091016 0
-0.200309 -0.110770 0
-0.189040 -0.132525 0
-0.175826 -0.155494 0
-0.160102 -0.177725 0
-0.140748 -0.194958 0
-0.115886 -0.198653 0
-0.083165 -0.172963 0
-0.041765 -0.092116 0
-0.000063 0.000010 0
0.000000 0.017015 0
0.000000 -0.000001 0
-0.029281 -0.038166 0
-0.063785 0.010998 0
-0.093324 0.059682 0
-0.120482 0.099043 0
-0.146431 0.129562 0
-0.170702 0.150654 0
-0.192155 0.163017 0
-0.209645 0.167434 0
-0.222642 0.164912 0
-0.231110 0.156743 0
-0.235300 0.144278 0
-0.236041 0.128951 0
-0.234288 0.112233 0
-0.230928 0.095367 0
-0.226685 0.079284 0
-0.222099 0.064558 0
-0.217553 0.051449 0
-0.213302 0.039974 0
-0.209496 0.029977 0
-0.206205 0.021193 0
-0.203433 0.013293 0
-0.201139 0.005920 0
-0.199250 -0.001291 0
-0.197682 -0.008701 0
-0.196194 -0.016755 0
-0.194612 -0.025880 0
-0.192708 -0.036422 0
-0.190240 -0.048705 0
-0.186970 -0.062987 0
-0.182705 -0.079453 0
-0.177327 -0.098215 0
-0.170781 -0.119290 0
-0.163026 -0.142516 0
-0.153918 -0.167342 0
-0.142974 -0.192332 0
-0.129002 -0.214061 0
-0.109691 -0.224888 0
-0.081659 -0.208761 0
-0.042451 -0.134116 0
-0.000086 0.000012 0
0.000000 0.038498 0
0.000000 -0.000003 0
-0.036469 -0.002480 0
-0.072688 0.044775 0
-0.103039 0.088390 0
-0.130168 0.125252 0
-0.153776 0.152965 0
-0.173730 0.170786 0
-0.189602 0.179208 0
-0.201042 0.179238 0
-0.208027 0.172285 0
-0.210863 0.159996 0
-0.210125 0.144070 0
-0.206659 0.126165 0
-0.201334 0.107745 0
-0.194937 0.089936 0
-0.188112 0.073505 0
-0.181359 0.058870 0
-0.175051 0.046159 0
-0.169447 0.035278 0
-0.164701 0.025979 0
-0.160877 0.017920 0
-0.157961 0.010717 0
-0.155887 0.003972 0
-0.154553 -0.002702 0
-0.153839 -0.009757 0
-0.153505 -0.017673 0
-0.153361 -0.026868 0
-0.153148 -0.037733 0
-0.152572 -0.050599 0
-0.151328 -0.065695 0
-0.149174 -0.083135 0
-0.145984 -0.102941 0
-0.141740 -0.125070 0
-0.136473 -0.149388 0
-0.130159 -0.175546 0
-0.122503 -0.202640 0
-0.112523 -0.228240 0
-0.097964 -0.245996 0
-0.075038 -0.240203 0
-0.040183 -0.173775 0
-0.000102 0.000013 0
0.000000 0.059468 0
0.000000 -0.000005 0
-0.037599 0.034522 0
-0.072198 0.077568 0
-0.102510 0.117162 0
-0.128264 0.149780 0
-0.149270 0.173124 0
-0.165546 0.186480 0
-0.177078 0.190329 0
-0.183980 0.185859 0
-0.186582 0.174734 0
-0.185430 0.158841 0
-0.181237 0.140073 0
-0.174819 0.120160 0
-0.166956 0.100510 0
-0.158346 0.082145 0
-0.149582 0.065707 0
-0.141163 0.051498 0
-0.133493 0.039537 0
-0.126870 0.029624 0
-0.121475 0.021407 0
-0.117374 0.014453 0
-0.114538 0.008303 0
-0.112868 0.002511 0
-0.112225 -0.003339 0
-0.112446 -0.009749 0
-0.113341 -0.017233 0
-0.114702 -0.026237 0
-0.116250 -0.037212 0
-0.117619 -0.050526 0
-0.118389 -0.066384 0
-0.118216 -0.084797 0
-0.116936 -0.105649 0
-0.114555 -0.128801 0
-0.111143 -0.154097 0
-0.106767 -0.181312 0
-0.101328 -0.209968 0
-0.094188 -0.238601 0
-0.083497 -0.262373 0
-0.065559 -0.266542 0
-0.036035 -0.209154 0
-0.000109 0.000013 0
0.000000 0.078683 0
0.000000 -0.000006 0
-0.033701 0.069718 0
-0.066820 0.109686 0
-0.095336 0.144456 0
-0.118826 0.172013 0
-0.137102 0.190246 0
-0.150242 0.198594 0
-0.158443 0.197642 0
-0.162062 0.188742 0
-0.161620 0.173735 0
-0.157775 0.154650 0
-0.151264 0.133460 0
-0.142837 0.111885 0
-0.133188 0.091272 0
-0.122951 0.072562 0
-0.112706 0.056323 0
-0.102987 0.042781 0
-0.094269 0.031865 0
-0.086921 0.023260 0
-0.081159 0.016484 0
-0.077024 0.010983 0
-0.074445 0.006210 0
-0.073277 0.001659 0
-0.073344 -0.003124 0
-0.074437 -0.008641 0
-0.076449 -0.015416 0
-0.079205 -0.023959 0
-0.082437 -0.034817 0
-0.085716 -0.048460 0
-0.088455 -0.065097 0
-0.090143 -0.084588 0
-0.090564 -0.106601 0
-0.089761 -0.130864 0
-0.087843 -0.157177 0
-0.084935 -0.185361 0
-0.081084 -0.215219 0
-0.075989 -0.246072 0
-0.068359 -0.274625 0
-0.054958 -0.287665 0
-0.031022 -0.239334 0
-0.000108 0.000014 0
0.000000 0.095504 0
0.000000 -0.000006 0
-0.028936 0.101341 0
-0.058738 0.139203 0
-0.084282 0.169168 0
-0.104938 0.191547 0
-0.120459 0.204540 0
-0.130919 0.207821 0
-0.136589 0.202149 0
-0.137919 0.189036 0
-0.135489 0.170447 0
-0.129963 0.148485 0
-0.122030 0.125135 0
-0.112349 0.102083 0
-0.101532 0.080624 0
-0.090165 0.061664 0
-0.078825 0.045743 0
-0.068102 0.033061 0
-0.058595 0.023471 0
-0.050807 0.016513 0
-0.045021 0.011510 0
-0.041205 0.007739 0
-0.039181 0.004556 0
-0.038702 0.001411 0
-0.039532 -0.002179 0
-0.041348 -0.006644 0
-0.044150 -0.012465 0
-0.047904 -0.020249 0
-0.052457 -0.030701 0
-0.057384 -0.044508 0
-0.061876 -0.061957 0
-0.065192 -0.082688 0
-0.067046 -0.106030 0
-0.067549 -0.131522 0
-0.066865 -0.158924 0
-0.065162 -0.188072 0
-0.062576 -0.218914 0
-0.059058 -0.251325 0
-0.053853 -0.283403 0
-0.044392 -0.303879 0
-0.025826 -0.264112 0
-0.000101 0.000013 0
0.000000 0.109705 0
0.000000 -0.000007 0
-0.023712 0.128456 0
-0.049277 0.165032 0
-0.071215 0.190655 0
-0.088755 0.208190 0
-0.101597 0.216227 0
-0.109777 0.214725 0
-0.113560 0.204642 0
-0.113385 0.187641 0
-0.109803 0.165779 0
-0.103414 0.141191 0
-0.094810 0.115845 0
-0.084545 0.091388 0
-0.073142 0.069089 0
-0.061122 0.049855 0
-0.049040 0.034260 0
-0.037513 0.022551 0
-0.027384 0.014570 0
-0.019371 0.009686 0
-0.013886 0.006881 0
-0.010762 0.005142 0
-0.009589 0.003707 0
-0.009956 0.002010 0
-0.011557 -0.000477 0
-0.014259 -0.004024 0
-0.017774 -0.008861 0
-0.022067 -0.015652 0
-0.027336 -0.025338 0
-0.033372 -0.039041 0
-0.039134 -0.057289 0
-0.043636 -0.079419 0
-0.046520 -0.104245 0
-0.047991 -0.131045 0
-0.048277 -0.159563 0
-0.047581 -0.189651 0
-0.046085 -0.221323 0
-0.043890 -0.254794 0
-0.040661 -0.289290 0
-0.034538 -0.315692 0
-0.020869 -0.283727 0
-0.000091 0.000013 0
0.000000 0.121330 0
0.000000 -0.000007 0
-0.018252 0.150618 0
-0.039228 0.186705 0
-0.057320 0.208647 0
-0.071687 0.221929 0
-0.082008 0.225562 0
-0.088272 0.219783 0
-0.090694 0.205757 0
-0.089649 0.185280 0
-0.085602 0.160476 0
-0.079045 0.133491 0
-0.070452 0.106266 0
-0.060261 0.080415 0
-0.048888 0.057201 0
-0.036760 0.037562 0
-0.024331 0.022134 0
-0.012023 0.011404 0
-0.001804 0.005329 0
0.005523 0.003016 0
0.010105 0.002901 0
0.012349 0.003441 0
0.012731 0.003750 0
0.011661 0.003379 0
0.009487 0.002124 0
0.006311 -0.000426 0
0.002337 -0.004658 0
-0.002316 -0.010687 0
-0.007903 -0.019396 0
-0.014413 -0.032710 0
-0.020696 -0.051693 0
-0.025698 -0.075302 0
-0.029061 -0.101675 0
-0.031086 -0.129764 0
-0.032041 -0.159334 0
-0.032150 -0.190264 0
-0.031610 -0.222604 0
-0.030592 -0.256748 0
-0.029034 -0.292756 0
-0.025710 -0.323671 0
-0.016365 -0.298650 0
-0.000080 0.000013 0
0.000000 0.130573 0
0.000000 -0.000007 0
-0.012746 0.167684 0
-0.029064 0.204100 0
-0.043307 0.223115 0
-0.054587 0.232877 0
-0.062591 0.232813 0
-0.067270 0.223411 0
-0.068772 0.206019 0
-0.067378 0.182549 0
-0.063445 0.155175 0
-0.057339 0.126042 0
-0.049408 0.097062 0
-0.039965 0.069823 0
-0.029296 0.045587 0
-0.017652 0.025299 0
-0.004941 0.009523 0
0.006247 0.000023 0
0.014585 -0.002976 0
0.020315 -0.002222 0
0.023942 0.000055 0
0.025679 0.002516 0
0.025780 0.004396 0
0.024512 0.005254 0
0.022175 0.004872 0
0.019093 0.003126 0
0.015239 -0.000233 0
0.010550 -0.005411 0
0.005152 -0.013240 0
-0.000875 -0.026248 0
-0.006780 -0.046004 0
-0.011403 -0.071054 0
-0.014600 -0.098857 0
-0.016725 -0.128064 0
-0.018031 -0.158500 0
-0.018729 -0.190083 0
-0.019011 -0.222881 0
-0.019060 -0.257369 0
-0.018962 -0.294172 0
-0.017989 -0.328361 0
-0.012394 -0.309437 0
-0.000069 0.000013 0
0.000000 0.137695 0
0.000000 -0.000006 0
-0.007311 0.179682 0
-0.019060 0.217267 0
-0.029566 0.234169 0
-0.037913 0.241213 0
-0.043816 0.238245 0
-0.047197 0.225964 0
-0.048137 0.205865 0
-0.046821 0.179953 0
-0.043488 0.150437 0
-0.038383 0.119455 0
-0.031730 0.088892 0
-0.023720 0.060303 0
-0.014476 0.034889 0
-0.003717 0.013206 0
0.006736 -0.001765 0
0.014227 -0.008122 0
0.019768 -0.008740 0
0.024078 -0.006341 0
0.027251 -0.002463 0
0.029103 0.001604 0
0.029554 0.004918 0
0.028733 0.006983 0
0.026826 0.007543 0
0.024061 0.006510 0
0.020611 0.003885 0
0.016450 -0.000600 0
0.011740 -0.007971 0
0.006944 -0.020778 0
0.002732 -0.041165 0
-0.000430 -0.067482 0
-0.002866 -0.096353 0
-0.004669 -0.126333 0
-0.006028 -0.157330 0
-0.007112 -0.189284 0
-0.008079 -0.222274 0
-0.009090 -0.256798 0
-0.010296 -0.293826 0
-0.011314 -0.330239 0
-0.008947 -0.316639 0
-0.000060 0.000012 0
0.000000 0.142967 0
0.000000 -0.000006 0
-0.002122 0.186744 0
-0.009319 0.226355 0
-0.016272 0.241968 0
-0.021864 0.247127 0
-0.025855 0.242096 0
-0.028161 0.227732 0
-0.028808 0.205642 0
-0.027892 0.177900 0
-0.025547 0.146737 0
-0.021909 0.114284 0
-0.017096 0.082399 0
-0.011182 0.052569 0
-0.003921 0.025584 0
0.004012 0.004087 0
0.009598 -0.008421 0
0.013666 -0.013010 0
0.017251 -0.012827 0
0.020423 -0.009704 0
0.023133 -0.004971 0
0.025188 0.000213 0
0.026225 0.004766 0
0.026191 0.007982 0
0.025136 0.009544 0
0.023172 0.009341 0
0.020449 0.007378 0
0.017161 0.003460 0
0.013556 -0.003735 0
0.010523 -0.017241 0
0.008864 -0.038630 0
0.007756 -0.065456 0
0.006590 -0.094618 0
0.005445 -0.124901 0
0.004264 -0.156057 0
0.002960 -0.188032 0
0.001432 -0.220903 0
-0.000439 -0.255153 0
-0.002832 -0.291948 0
-0.005550 -0.329710 0
-0.005966 -0.320751 0
-0.000052 0.000012 0
0.000000 0.146641 0
0.000000 -0.000005 0
0.002685 0.189001 0
0.000044 0.231416 0
-0.003480 0.246714 0
-0.006462 0.250796 0
-0.008680 0.244543 0
-0.010053 0.228917 0
-0.010570 0.205596 0
-0.010259 0.176692 0
-0.009167 0.144454 0
-0.007337 0.111003 0
-0.004797 0.078164 0
-0.001509 0.047128 0
0.002550 0.019695 0
0.005693 -0.000313 0
0.007446 -0.011419 0
0.009197 -0.015775 0
0.011112 -0.015497 0
0.013125 -0.012223 0
0.015194 -0.007228 0
0.017187 -0.001488 0
0.018711 0.003915 0
0.019491 0.008073 0
0.019435 0.010561 0
0.018548 0.011197 0
0.016936 0.009896 0
0.014877 0.006292 0
0.012992 -0.001333 0
0.012532 -0.016085 0
0.013430 -0.038397 0
0.014256 -0.065209 0
0.014475 -0.094042 0
0.014111 -0.124007 0
0.013223 -0.154846 0
0.011797 -0.186452 0
0.009778 -0.218875 0
0.007095 -0.252534 0
0.003632 -0.288715 0
-0.000520 -0.327104 0
-0.003368 -0.322189 0
-0.000046 0.000011 0
0.000000 0.148932 0
0.000000 -0.000005 0
0.007165 0.186700 0
0.008952 0.232520 0
0.008777 0.248475 0
0.008308 0.252327 0
0.007810 0.245687 0
0.007340 0.229622 0
0.006923 0.205849 0
0.006574 0.176497 0
0.006311 0.143815 0
0.006156 0.109914 0
0.006135 0.076571 0
0.006291 0.045222 0
0.006098 0.018382 0
0.004888 -0.000809 0
0.003875 -0.011925 0
0.003541 -0.016675 0
0.003814 -0.016755 0
0.004612 -0.013787 0
0.005918 -0.009033 0
0.007648 -0.003304 0
0.009503 0.002462 0
0.011006 0.007258 0
0.011947 0.010488 0
0.012243 0.011840 0
0.012013 0.011049 0
0.011663 0.007404 0
0.012139 -0.001390 0
0.014660 -0.017679 0
0.017836 -0.040355 0
0.020251 -0.066500 0
0.021580 -0.094473 0
0.021900 -0.123649 0
0.021286 -0.153743 0
0.019750 -0.184587 0
0.017262 -0.216201 0
0.013786 -0.249006 0
0.009298 -0.284333 0
0.003855 -0.322710 0
-0.001050 -0.321271 0
-0.000042 0.000011 0
0.000000 0.150008 0
0.000000 -0.000004 0
0.011364 0.180050 0
0.017441 0.229804 0
0.020504 0.247358 0
0.022471 0.251763 0
0.023687 0.245511 0
0.024179 0.229804 0
0.023956 0.206361 0
0.023051 0.177305 0
0.021521 0.144872 0
0.019432 0.111179 0
0.016836 0.078029 0
0.013712 0.047165 0
0.009675 0.021098 0
0.005034 0.001911 0
0.001240 -0.010072 0
-0.001231 -0.015714 0
-0.002587 -0.016568 0
-0.002985 -0.014327 0
-0.002509 -0.010264 0
-0.001242 -0.005073 0
0.000676 0.000557 0
0.002771 0.005629 0
0.004658 0.009324 0
0.006178 0.011131 0
0.007562 0.010476 0
0.009377 0.006166 0
0.012930 -0.004329 0
0.018057 -0.021782 0
0.022845 -0.043989 0
0.026366 -0.068952 0
0.028498 -0.095690 0
0.029315 -0.123714 0
0.028867 -0.152696 0
0.027159 -0.182428 0
0.024178 -0.212911 0
0.019919 -0.244570 0
0.014391 -0.278784 0
0.007686 -0.316756 0
0.001056 -0.318333 0
-0.000039 0.000011 0
0.000000 0.149982 0
0.000000 -0.000003 0
0.015247 0.169259 0
0.025470 0.223379 0
0.031709 0.243444 0
0.036050 0.249144 0
0.038987 0.243979 0
0.040539 0.229353 0
0.040688 0.206977 0
0.039464 0.178932 0
0.036949 0.147434 0
0.033247 0.114599 0
0.028454 0.082291 0
0.022592 0.052384 0
0.015653 0.027060 0
0.008330 0.007626 0
0.001625 -0.005659 0
-0.003191 -0.012849 0
-0.006166 -0.015001 0
-0.007721 -0.013864 0
-0.008080 -0.010775 0
-0.007401 -0.006489 0
-0.005741 -0.001551 0
-0.003340 0.003276 0
-0.000643 0.007081 0
0.002199 0.008937 0
0.005471 0.007849 0
0.009956 0.002035 0
0.016433 -0.010070 0
0.023195 -0.027594 0
0.028882 -0.048664 0
0.033054 -0.072153 0
0.035670 -0.097421 0
0.036753 -0.124018 0
0.036306 -0.151587 0
0.034310 -0.179898 0
0.030759 -0.208961 0
0.025670 -0.239219 0
0.019096 -0.272100 0
0.011158 -0.309375 0
0.002990 -0.313585 0
-0.000037 0.000010 0
0.000000 0.148951 0
0.000000 -0.000002 0
0.018703 0.154580 0
0.032897 0.213342 0
0.042282 0.236778 0
0.048972 0.244485 0
0.053664 0.241023 0
0.056414 0.228103 0
0.057182 0.207436 0
0.055986 0.181043 0
0.052919 0.151090 0
0.048131 0.119673 0
0.041790 0.088684 0
0.034045 0.059967 0
0.025202 0.035360 0
0.016042 0.015938 0
0.007255 0.001449 0
-0.000205 -0.007923 0
-0.005151 -0.012038 0
-0.007983 -0.012413 0
-0.009201 -0.010584 0
-0.009116 -0.007412 0
-0.007844 -0.003504 0
-0.005447 0.000531 0
-0.002121 0.003785 0
0.002116 0.005016 0
0.007557 0.002720 0
0.014751 -0.004796 0
0.022789 -0.017569 0
0.030159 -0.034232 0
0.036176 -0.053847 0
0.040621 -0.075740 0
0.043421 -0.099389 0
0.044522 -0.124349 0
0.043872 -0.150253 0
0.041432 -0.176881 0
0.037196 -0.204271 0
0.031204 -0.232907 0
0.023545 -0.264272 0
0.014379 -0.300650 0
0.004781 -0.307176 0
-0.000036 0.000010 0
0.000000 0.146991 0
0.000000 -0.000001 0
0.021554 0.136362 0
0.039464 0.199801 0
0.051975 0.227369 0
0.061042 0.237762 0
0.067565 0.236537 0
0.071687 0.225835 0
0.073367 0.207405 0
0.072607 0.183195 0
0.069511 0.155289 0
0.064271 0.125728 0
0.057138 0.096377 0
0.048404 0.068972 0
0.038557 0.045063 0
0.028380 0.025572 0
0.018606 0.010587 0
0.009521 -0.000443 0
0.002233 -0.007223 0
-0.002280 -0.009814 0
-0.004603 -0.009642 0
-0.005173 -0.007847 0
-0.004218 -0.005220 0
-0.001798 -0.002446 0
0.002145 -0.000483 0
0.007719 -0.000741 0
0.014962 -0.004785 0
0.023399 -0.013197 0
0.031634 -0.025478 0
0.038930 -0.040981 0
0.044889 -0.059126 0
0.049293 -0.079397 0
0.051986 -0.101322 0
0.052841 -0.124470 0
0.051758 -0.148497 0
0.048684 -0.173222 0
0.043621 -0.198733 0
0.036628 -0.225568 0
0.027829 -0.255276 0
0.017428 -0.290611 0
0.006453 -0.299205 0
-0.000035 0.000009 0
0.000000 0.144169 0
0.000000 0.000000 0
0.023551 0.115115 0
0.044778 0.182921 0
0.060380 0.215200 0
0.071916 0.228895 0
0.080406 0.230378 0
0.086110 0.222301 0
0.089016 0.206516 0
0.089122 0.184899 0
0.086540 0.159426 0
0.081496 0.132046 0
0.074315 0.104551 0
0.065398 0.078548 0
0.055320 0.055384 0
0.044828 0.035889 0
0.034634 0.020308 0
0.025244 0.008450 0
0.016849 -0.000237 0
0.010464 -0.005577 0
0.006732 -0.007691 0
0.005308 -0.007797 0
0.005895 -0.006879 0
0.008378 -0.005832 0
0.012783 -0.005732 0