# vtk DataFile Version 2.0
generated by CFD-lab course output (written by Tobias Neckel) 
ASCII

DATASET STRUCTURED_GRID
DIMENSIONS  42 42 1 
POINTS 1764 float

0.150000 0.150000 0
0.167857 0.150000 0
0.185714 0.150000 0
0.203571 0.150000 0
0.221429 0.150000 0
0.239286 0.150000 0
0.257143 0.150000 0
0.275000 0.150000 0
0.292857 0.150000 0
0.310714 0.150000 0
0.328571 0.150000 0
0.346429 0.150000 0
0.364286 0.150000 0
0.382143 0.150000 0
0.400000 0.150000 0
0.417857 0.150000 0
0.435714 0.150000 0
0.453571 0.150000 0
0.471429 0.150000 0
0.489286 0.150000 0
0.507143 0.150000 0
0.525000 0.150000 0
0.542857 0.150000 0
0.560714 0.150000 0
0.578571 0.150000 0
0.596429 0.150000 0
0.614286 0.150000 0
0.632143 0.150000 0
0.650000 0.150000 0
0.667857 0.150000 0
0.685714 0.150000 0
0.703571 0.150000 0
0.721429 0.150000 0
0.739286 0.150000 0
0.757143 0.150000 0
0.775000 0.150000 0
0.792857 0.150000 0
0.810714 0.150000 0
0.828571 0.150000 0
0.846429 0.150000 0
0.864286 0.150000 0
0.882143 0.150000 0
0.150000 0.167857 0
0.167857 0.167857 0
0.185714 0.167857 0
0.203571 0.167857 0
0.221429 0.167857 0
0.239286 0.167857 0
0.257143 0.167857 0
0.275000 0.167857 0
0.292857 0.167857 0
0.310714 0.167857 0
0.328571 0.167857 0
0.346429 0.167857 0
0.364286 0.167857 0
0.382143 0.167857 0
0.400000 0.167857 0
0.417857 0.167857 0
0.435714 0.167857 0
0.453571 0.167857 0
0.471429 0.167857 0
0.489286 0.167857 0
0.507143 0.167857 0
0.525000 0.167857 0
0.542857 0.167857 0
0.560714 0.167857 0
0.578571 0.167857 0
0.596429 0.167857 0
0.614286 0.167857 0
0.632143 0.167857 0
0.650000 0.167857 0
0.667857 0.167857 0
0.685714 0.167857 0
0.703571 0.167857 0
0.721429 0.167857 0
0.739286 0.167857 0
0.757143 0.167857 0
0.775000 0.167857 0
0.792857 0.167857 0
0.810714 0.167857 0
0.828571 0.167857 0
0.846429 0.167857 0
0.864286 0.167857 0
0.882143 0.167857 0
0.150000 0.185714 0
0.167857 0.185714 0
0.185714 0.185714 0
0.203571 0.185714 0
0.221429 0.185714 0
0.239286 0.185714 0
0.257143 0.185714 0
0.275000 0.185714 0
0.292857 0.185714 0
0.310714 0.185714 0
0.328571 0.185714 0
0.346429 0.185714 0
0.364286 0.185714 0
0.382143 0.185714 0
0.400000 0.185714 0
0.417857 0.185714 0
0.435714 0.185714 0
0.453571 0.185714 0
0.471429 0.185714 0
0.489286 0.185714 0
0.507143 0.185714 0
0.525000 0.185714 0
0.542857 0.185714 0
0.560714 0.185714 0
0.578571 0.185714 0
0.596429 0.185714 0
0.614286 0.185714 0
0.632143 0.185714 0
0.650000 0.185714 0
0.667857 0.185714 0
0.685714 0.185714 0
0.703571 0.185714 0
0.721429 0.185714 0
0.739286 0.185714 0
0.757143 0.185714 0
0.775000 0.185714 0
0.792857 0.185714 0
0.810714 0.185714 0
0.828571 0.185714 0
0.846429 0.185714 0
0.864286 0.185714 0
0.882143 0.185714 0
0.150000 0.203571 0
0.167857 0.203571 0
0.185714 0.203571 0
0.203571 0.203571 0
0.221429 0.203571 0
0.239286 0.203571 0
0.257143 0.203571 0
0.275000 0.203571 0
0.292857 0.203571 0
0.310714 0.203571 0
0.328571 0.203571 0
0.346429 0.203571 0
0.364286 0.203571 0
0.382143 0.203571 0
0.400000 0.203571 0
0.417857 0.203571 0
0.435714 0.203571 0
0.453571 0.203571 0
0.471429 0.203571 0
0.489286 0.203571 0
0.507143 0.203571 0
0.525000 0.203571 0
0.542857 0.203571 0
0.560714 0.203571 0
0.578571 0.203571 0
0.596429 0.203571 0
0.614286 0.203571 0
0.632143 0.203571 0
0.650000 0.203571 0
0.667857 0.203571 0
0.685714 0.203571 0
0.703571 0.203571 0
0.721429 0.203571 0
0.739286 0.203571 0
0.757143 0.203571 0
0.775000 0.203571 0
0.792857 0.203571 0
0.810714 0.203571 0
0.828571 0.203571 0
0.846429 0.203571 0
0.864286 0.203571 0
0.882143 0.203571 0
0.150000 0.221429 0
0.167857 0.221429 0
0.185714 0.221429 0
0.203571 0.221429 0
0.221429 0.221429 0
0.239286 0.221429 0
0.257143 0.221429 0
0.275000 0.221429 0
0.292857 0.221429 0
0.310714 0.221429 0
0.328571 0.221429 0
0.346429 0.221429 0
0.364286 0.221429 0
0.382143 0.221429 0
0.400000 0.221429 0
0.417857 0.221429 0
0.435714 0.221429 0
0.453571 0.221429 0
0.471429 0.221429 0
0.489286 0.221429 0
0.507143 0.221429 0
0.525000 0.221429 0
0.542857 0.221429 0
0.560714 0.221429 0
0.578571 0.221429 0
0.596429 0.221429 0
0.614286 0.221429 0
0.632143 0.221429 0
0.650000 0.221429 0
0.667857 0.221429 0
0.685714 0.221429 0
0.703571 0.221429 0
0.721429 0.221429 0
0.739286 0.221429 0
0.757143 0.221429 0
0.775000 0.221429 0
0.792857 0.221429 0
0.810714 0.221429 0
0.828571 0.221429 0
0.846429 0.221429 0
0.864286 0.221429 0
0.882143 0.221429 0
0.150000 0.239286 0
0.167857 0.239286 0
0.185714 0.239286 0
0.203571 0.239286 0
0.221429 0.239286 0
0.239286 0.239286 0
0.257143 0.239286 0
0.275000 0.239286 0
0.292857 0.239286 0
0.310714 0.239286 0
0.328571 0.239286 0
0.346429 0.239286 0
0.364286 0.239286 0
0.382143 0.239286 0
0.400000 0.239286 0
0.417857 0.239286 0
0.435714 0.239286 0
0.453571 0.239286 0
0.471429 0.239286 0
0.489286 0.239286 0
0.507143 0.239286 0
0.525000 0.239286 0
0.542857 0.239286 0
0.560714 0.239286 0
0.578571 0.239286 0
0.596429 0.239286 0
0.614286 0.239286 0
0.632143 0.239286 0
0.650000 0.239286 0
0.667857 0.239286 0
0.685714 0.239286 0
0.703571 0.239286 0
0.721429 0.239286 0
0.739286 0.239286 0
0.757143 0.239286 0
0.775000 0.239286 0
0.792857 0.239286 0
0.810714 0.239286 0
0.828571 0.239286 0
0.846429 0.239286 0
0.864286 0.239286 0
0.882143 0.239286 0
0.150000 0.257143 0
0.167857 0.257143 0
0.185714 0.257143 0
0.203571 0.257143 0
0.221429 0.257143 0
0.239286 0.257143 0
0.257143 0.257143 0
0.275000 0.257143 0
0.292857 0.257143 0
0.310714 0.257143 0
0.328571 0.257143 0
0.346429 0.257143 0
0.364286 0.257143 0
0.382143 0.257143 0
0.400000 0.257143 0
0.417857 0.257143 0
0.435714 0.257143 0
0.453571 0.257143 0
0.471429 0.257143 0
0.489286 0.257143 0
0.507143 0.257143 0
0.525000 0.257143 0
0.542857 0.257143 0
0.560714 0.257143 0
0.578571 0.257143 0
0.596429 0.257143 0
0.614286 0.257143 0
0.632143 0.257143 0
0.650000 0.257143 0
0.667857 0.257143 0
0.685714 0.257143 0
0.703571 0.257143 0
0.721429 0.257143 0
0.739286 0.257143 0
0.757143 0.257143 0
0.775000 0.257143 0
0.792857 0.257143 0
0.810714 0.257143 0
0.828571 0.257143 0
0.846429 0.257143 0
0.864286 0.257143 0
0.882143 0.257143 0
0.150000 0.275000 0
0.167857 0.275000 0
0.185714 0.275000 0
0.203571 0.275000 0
0.221429 0.275000 0
0.239286 0.275000 0
0.257143 0.275000 0
0.275000 0.275000 0
0.292857 0.275000 0
0.310714 0.275000 0
0.328571 0.275000 0
0.346429 0.275000 0
0.364286 0.275000 0
0.382143 0.275000 0
0.400000 0.275000 0
0.417857 0.275000 0
0.435714 0.275000 0
0.453571 0.275000 0
0.471429 0.275000 0
0.489286 0.275000 0
0.507143 0.275000 0
0.525000 0.275000 0
0.542857 0.275000 0
0.560714 0.275000 0
0.578571 0.275000 0
0.596429 0.275000 0
0.614286 0.275000 0
0.632143 0.275000 0
0.650000 0.275000 0
0.667857 0.275000 0
0.685714 0.275000 0
0.703571 0.275000 0
0.721429 0.275000 0
0.739286 0.275000 0
0.757143 0.275000 0
0.775000 0.275000 0
0.792857 0.275000 0
0.810714 0.275000 0
0.828571 0.275000 0
0.846429 0.275000 0
0.864286 0.275000 0
0.882143 0.275000 0
0.150000 0.292857 0
0.167857 0.292857 0
0.185714 0.292857 0
0.203571 0.292857 0
0.221429 0.292857 0
0.239286 0.292857 0
0.257143 0.292857 0
0.275000 0.292857 0
0.292857 0.292857 0
0.310714 0.292857 0
0.328571 0.292857 0
0.346429 0.292857 0
0.364286 0.292857 0
0.382143 0.292857 0
0.400000 0.292857 0
0.417857 0.292857 0
0.435714 0.292857 0
0.453571 0.292857 0
0.471429 0.292857 0
0.489286 0.292857 0
0.507143 0.292857 0
0.525000 0.292857 0
0.542857 0.292857 0
0.560714 0.292857 0
0.578571 0.292857 0
0.596429 0.292857 0
0.614286 0.292857 0
0.632143 0.292857 0
0.650000 0.292857 0
0.667857 0.292857 0
0.685714 0.292857 0
0.703571 0.292857 0
0.721429 0.292857 0
0.739286 0.292857 0
0.757143 0.292857 0
0.775000 0.292857 0
0.792857 0.292857 0
0.810714 0.292857 0
0.828571 0.292857 0
0.846429 0.292857 0
0.864286 0.292857 0
0.882143 0.292857 0
0.150000 0.310714 0
0.167857 0.310714 0
0.185714 0.310714 0
0.203571 0.310714 0
0.221429 0.310714 0
0.239286 0.310714 0
0.257143 0.310714 0
0.275000 0.310714 0
0.292857 0.310714 0
0.310714 0.310714 0
0.328571 0.310714 0
0.346429 0.310714 0
0.364286 0.310714 0
0.382143 0.310714 0
0.400000 0.310714 0
0.417857 0.310714 0
0.435714 0.310714 0
0.453571 0.310714 0
0.471429 0.310714 0
0.489286 0.310714 0
0.507143 0.310714 0
0.525000 0.310714 0
0.542857 0.310714 0
0.560714 0.310714 0
0.578571 0.310714 0
0.596429 0.310714 0
0.614286 0.310714 0
0.632143 0.310714 0
0.650000 0.310714 0
0.667857 0.310714 0
0.685714 0.310714 0
0.703571 0.310714 0
0.721429 0.310714 0
0.739286 0.310714 0
0.757143 0.310714 0
0.775000 0.310714 0
0.792857 0.310714 0
0.810714 0.310714 0
0.828571 0.310714 0
0.846429 0.310714 0
0.864286 0.310714 0
0.882143 0.310714 0
0.150000 0.328571 0
0.167857 0.328571 0
0.185714 0.328571 0
0.203571 0.328571 0
0.221429 0.328571 0
0.239286 0.328571 0
0.257143 0.328571 0
0.275000 0.328571 0
0.292857 0.328571 0
0.310714 0.328571 0
0.328571 0.328571 0
0.346429 0.328571 0
0.364286 0.328571 0
0.382143 0.328571 0
0.400000 0.328571 0
0.417857 0.328571 0
0.435714 0.328571 0
0.453571 0.328571 0
0.471429 0.328571 0
0.489286 0.328571 0
0.507143 0.328571 0
0.525000 0.328571 0
0.542857 0.328571 0
0.560714 0.328571 0
0.578571 0.328571 0
0.596429 0.328571 0
0.614286 0.328571 0
0.632143 0.328571 0
0.650000 0.328571 0
0.667857 0.328571 0
0.685714 0.328571 0
0.703571 0.328571 0
0.721429 0.328571 0
0.739286 0.328571 0
0.757143 0.328571 0
0.775000 0.328571 0
0.792857 0.328571 0
0.810714 0.328571 0
0.828571 0.328571 0
0.846429 0.328571 0
0.864286 0.328571 0
0.882143 0.328571 0
0.150000 0.346429 0
0.167857 0.346429 0
0.185714 0.346429 0
0.203571 0.346429 0
0.221429 0.346429 0
0.239286 0.346429 0
0.257143 0.346429 0
0.275000 0.346429 0
0.292857 0.346429 0
0.310714 0.346429 0
0.328571 0.346429 0
0.346429 0.346429 0
0.364286 0.346429 0
0.382143 0.346429 0
0.400000 0.346429 0
0.417857 0.346429 0
0.435714 0.346429 0
0.453571 0.346429 0
0.471429 0.346429 0
0.489286 0.346429 0
0.507143 0.346429 0
0.525000 0.346429 0
0.542857 0.346429 0
0.560714 0.346429 0
0.578571 0.346429 0
0.596429 0.346429 0
0.614286 0.346429 0
0.632143 0.346429 0
0.650000 0.346429 0
[...]
POINT_DATA 1764 

VECTORS velocity float
0.000000 0.000000 0
-0.000002 0.000000 0
-0.000003 0.000000 0
-0.000003 0.000000 0
-0.000003 0.000000 0
-0.000002 0.000000 0
-0.000001 0.000000 0
-0.000000 0.000000 0
-0.000004 0.000000 0
-0.000001 0.000000 0
0.000004 0.000000 0
0.000008 0.000000 0
0.000009 0.000000 0
0.000011 0.000000 0
0.000011 0.000000 0
0.000012 0.000000 0
0.000012 0.000000 0
0.000012 0.000000 0
0.000012 0.000000 0
0.000012 0.000000 0
0.000012 0.000000 0
0.000012 0.000000 0
0.000012 0.000000 0
0.000012 0.000000 0
0.000012 0.000000 0
0.000012 0.000000 0
0.000012 0.000000 0
0.000012 0.000000 0
0.000012 0.000000 0
0.000012 0.000000 0
0.000012 0.000000 0
0.000012 0.000000 0
0.000012 0.000000 0
0.000012 0.000000 0
0.000012 0.000000 0
0.000011 0.000000 0
0.000009 0.000000 0
0.000007 0.000000 0
0.000002 0.000000 0
-0.000001 0.000000 0
-0.000000 0.000000 0
0.000000 0.000000 0
0.000000 0.000002 0
0.031261 -0.028634 0
0.057084 -0.018329 0
0.068132 -0.003360 0
0.065712 0.007016 0
0.055458 0.010368 0
0.047261 0.009684 0
0.038325 0.002319 0
0.019631 -0.009735 0
-0.005599 0.001444 0
-0.037184 0.026783 0
-0.075188 0.038072 0
-0.114860 0.040258 0
-0.153282 0.039123 0
-0.188845 0.036534 0
-0.220664 0.033038 0
-0.248390 0.029189 0
-0.272032 0.025330 0
-0.291810 0.021668 0
-0.308051 0.018299 0
-0.321107 0.015244 0
-0.331298 0.012471 0
-0.338883 0.009917 0
-0.344034 0.007481 0
-0.346810 0.005040 0
-0.347159 0.002463 0
-0.344926 -0.000384 0
-0.339909 -0.003644 0
-0.331782 -0.007383 0
-0.320101 -0.011642 0
-0.304327 -0.016538 0
-0.283823 -0.022172 0
-0.257887 -0.028574 0
-0.225834 -0.035643 0
-0.187167 -0.042994 0
-0.141935 -0.049701 0
-0.091449 -0.053756 0
-0.039697 -0.050808 0
0.004018 -0.021150 0
0.021641 0.015197 0
0.000012 -0.000001 0
0.000000 -0.012930 0
0.000000 0.000003 0
0.027812 -0.057084 0
0.048212 -0.036871 0
0.056482 -0.008628 0
0.053252 0.012674 0
0.039550 0.018451 0
0.018469 0.017132 0
-0.010244 0.027630 0
-0.054681 0.043924 0
-0.110522 0.056815 0
-0.153905 0.069590 0
-0.190963 0.077675 0
-0.224919 0.078094 0
-0.255722 0.073986 0
-0.282604 0.067382 0
-0.305408 0.059545 0
-0.324233 0.051368 0
-0.339367 0.043419 0
-0.351180 0.036019 0
-0.360064 0.029297 0
-0.366378 0.023247 0
-0.370420 0.017777 0
-0.372408 0.012735 0
-0.372470 0.007927 0
-0.370657 0.003126 0
-0.366924 -0.001884 0
-0.361252 -0.007250 0
-0.353455 -0.013144 0
-0.343309 -0.019809 0
-0.330433 -0.027454 0
-0.314370 -0.036277 0
-0.294606 -0.046440 0
-0.270588 -0.057989 0
-0.241775 -0.070721 0
-0.207759 -0.083900 0
-0.168515 -0.095718 0
-0.124912 -0.102238 0
-0.079569 -0.095467 0
-0.037812 -0.061338 0
0.002942 0.004018 0
0.000014 -0.000002 0
0.000000 -0.021643 0
0.000000 0.000004 0
0.017024 -0.076846 0
0.024924 -0.047000 0
0.020977 -0.008401 0
0.005979 0.023948 0
-0.017153 0.045152 0
-0.054049 0.059478 0
-0.099414 0.075468 0
-0.142409 0.090543 0
-0.183189 0.100668 0
-0.219143 0.107224 0
-0.247927 0.109086 0
-0.271570 0.105017 0
-0.290982 0.096808 0
-0.306572 0.086220 0
-0.318779 0.074668 0
-0.328060 0.063147 0
-0.334865 0.052276 0
-0.339606 0.042365 0
-0.342631 0.033497 0
-0.344214 0.025600 0
-0.344552 0.018500 0
-0.343767 0.011967 0
-0.341911 0.005730 0
-0.338988 -0.000506 0
-0.334972 -0.006942 0
-0.329767 -0.013854 0
-0.323130 -0.021587 0
-0.314790 -0.030404 0
-0.304436 -0.040581 0
-0.291712 -0.052365 0
-0.276241 -0.065953 0
-0.257621 -0.081405 0
-0.235448 -0.098472 0
-0.209342 -0.116254 0
-0.179023 -0.132548 0
-0.144467 -0.142702 0
-0.106102 -0.137909 0
-0.064893 -0.103661 0
-0.022901 -0.022614 0
-0.000003 0.000004 0
0.000000 -0.015866 0
0.000000 0.000003 0
-0.000043 -0.082008 0
-0.010887 -0.040823 0
-0.030779 0.010316 0
-0.055675 0.050804 0
-0.084805 0.078479 0
-0.120019 0.099393 0
-0.157395 0.115991 0
-0.191590 0.127699 0
-0.221684 0.133550 0
-0.246812 0.134328 0
-0.265694 0.130102 0
-0.279478 0.121149 0
-0.289251 0.108988 0
-0.295908 0.095180 0
-0.300188 0.081032 0
-0.302695 0.067453 0
-0.303901 0.054965 0
-0.304160 0.043786 0
-0.303723 0.033905 0
-0.302756 0.025168 0
-0.301346 0.017329 0
-0.299526 0.010095 0
-0.297275 0.003148 0
-0.294537 -0.003813 0
-0.291286 -0.011106 0
-0.287257 -0.019093 0
-0.282263 -0.028121 0
-0.276056 -0.038502 0
-0.268382 -0.050532 0
-0.258980 -0.064473 0
-0.247601 -0.080531 0
-0.233998 -0.098781 0
-0.217904 -0.119000 0
-0.198984 -0.140325 0
-0.176750 -0.160592 0
-0.150466 -0.175159 0
-0.119098 -0.175041 0
-0.081608 -0.144538 0
-0.038752 -0.060875 0
-0.000041 0.000009 0
0.000000 0.001269 0
0.000000 0.000001 0
-0.018812 -0.065959 0
-0.046537 -0.016264 0
-0.075193 0.036387 0
-0.101652 0.077975 0
-0.130245 0.109495 0
-0.160044 0.132068 0
-0.188723 0.147039 0
-0.213706 0.154831 0
-0.234114 0.155890 0
-0.249490 0.151235 0
-0.259611 0.141752 0
-0.265423 0.128574 0
-0.267998 0.113237 0
-0.268320 0.097157 0
-0.267184 0.081455 0
-0.265187 0.066859 0
-0.262757 0.053741 0
-0.260179 0.042188 0
-0.257630 0.032093 0
-0.255197 0.023222 0
-0.252906 0.015271 0
-0.250731 0.007896 0
-0.248611 0.000742 0
-0.246458 -0.006495 0
-0.244132 -0.014222 0
-0.241405 -0.022877 0
-0.238065 -0.032788 0
-0.233872 -0.044285 0
-0.228594 -0.057657 0
-0.222025 -0.073146 0
-0.214006 -0.090935 0
-0.204418 -0.111102 0
-0.193127 -0.133486 0
-0.179895 -0.157409 0
-0.164177 -0.181065 0
-0.144849 -0.200354 0
-0.119932 -0.206767 0
-0.086787 -0.184007 0
-0.044065 -0.104223 0
-0.000075 0.000011 0
0.000000 0.022893 0
0.000000 -0.000001 0
-0.031628 -0.035471 0
-0.067938 0.015557 0
-0.098614 0.065431 0
-0.126854 0.105856 0
-0.153415 0.136871 0
-0.177936 0.157871 0
-0.199299 0.169653 0
-0.216372 0.173089 0
-0.228741 0.169333 0
-0.236389 0.159825 0
-0.239678 0.146034 0
-0.239542 0.129535 0
-0.236984 0.111885 0
-0.232926 0.094365 0
-0.228105 0.077900 0
-0.223070 0.063026 0
-0.218208 0.049958 0
-0.213767 0.038658 0
-0.209887 0.028923 0
-0.206624 0.020445 0
-0.203962 0.012863 0
-0.201843 0.005800 0
-0.200174 -0.001125 0
-0.198854 -0.008292 0
-0.197630 -0.016158 0
-0.196317 -0.025160 0
-0.194669 -0.035654 0
-0.192420 -0.047973 0
-0.189310 -0.062379 0
-0.185132 -0.079060 0
-0.179765 -0.098139 0
-0.173172 -0.119660 0
-0.165334 -0.143523 0
-0.156143 -0.169275 0
-0.145165 -0.195638 0
-0.131242 -0.219404 0
-0.112016 -0.233102 0
-0.083882 -0.220406 0
-0.043978 -0.147662 0
-0.000098 0.000013 0
0.000000 0.045337 0
0.000000 -0.000004 0
-0.038461 0.001979 0
-0.075929 0.050723 0
-0.107477 0.095303 0
-0.135397 0.132776 0
-0.159388 0.160577 0
-0.179362 0.177952 0
-0.194933 0.185476 0
-0.205795 0.184273 0
-0.212009 0.175906 0
-0.213937 0.162172 0
-0.212245 0.144906 0
-0.207852 0.125880 0
-0.201677 0.106621 0
-0.194546 0.088278 0
-0.187129 0.071600 0
-0.179941 0.056963 0
-0.173362 0.044437 0
-0.167642 0.033868 0
-0.162919 0.024950 0
-0.159231 0.017297 0
-0.156540 0.010490 0
-0.154756 0.004108 0
-0.153750 -0.002247 0
-0.153380 -0.009039 0
-0.153406 -0.016759 0
-0.153626 -0.025838 0
-0.153763 -0.036685 0
-0.153493 -0.049644 0
-0.152476 -0.064945 0
-0.150441 -0.082691 0
-0.147262 -0.102895 0
-0.142944 -0.125532 0
-0.137542 -0.150515 0
-0.131075 -0.177578 0
-0.123306 -0.205967 0
-0.113322 -0.233503 0
-0.098896 -0.254127 0
-0.076101 -0.252045 0
-0.041021 -0.188104 0
-0.000113 0.000014 0
0.000000 0.066874 0
0.000000 -0.000005 0
-0.039050 0.040458 0
-0.074752 0.084573 0
-0.105933 0.124899 0
-0.132225 0.157767 0
-0.153415 0.180836 0
-0.169547 0.193417 0
-0.180648 0.196086 0
-0.186880 0.190165 0
-0.188645 0.177476 0
-0.186551 0.160061 0
-0.181386 0.139949 0
-0.174031 0.118967 0
-0.165319 0.098580 0
-0.155996 0.079817 0
-0.146692 0.063295 0
-0.137924 0.049260 0
-0.130094 0.037659 0
-0.123481 0.028215 0
-0.118232 0.020511 0
-0.114372 0.014066 0
-0.111842 0.008388 0
-0.110522 0.003009 0
-0.110257 -0.002500 0
-0.110853 -0.008636 0
-0.112145 -0.015913 0
-0.113921 -0.024803 0
-0.115887 -0.035787 0
-0.117641 -0.049260 0
-0.118710 -0.065430 0
-0.118701 -0.084274 0
-0.117445 -0.105636 0
-0.114979 -0.129380 0
-0.111408 -0.155392 0
-0.106835 -0.183512 0
-0.101220 -0.213392 0
-0.094008 -0.243814 0
-0.083440 -0.270323 0
-0.065770 -0.278282 0
-0.036365 -0.223764 0
-0.000118 0.000015 0
0.000000 0.086360 0
0.000000 -0.000006 0
-0.034587 0.076731 0
-0.068609 0.117607 0
-0.097737 0.152777 0
-0.121549 0.180258 0
-0.139846 0.197899 0
-0.152728 0.205184 0
-0.160424 0.202809 0
-0.163339 0.192271 0
-0.162053 0.175576 0
-0.157283 0.154912 0
-0.149836 0.132386 0
-0.140525 0.109813 0
-0.130108 0.088587 0
-0.119273 0.069651 0
-0.108641 0.053528 0
-0.098759 0.040365 0
-0.090087 0.029995 0
-0.082959 0.022005 0
-0.077526 0.015841 0
-0.073772 0.010907 0
-0.071572 0.006640 0
-0.070756 0.002523 0
-0.071144 -0.001916 0
-0.072513 -0.007151 0
-0.074826 -0.013691 0
-0.077926 -0.022096 0
-0.081545 -0.032966 0
-0.085214 -0.046821 0
-0.088279 -0.063885 0
-0.090149 -0.083956 0
-0.090595 -0.106617 0
-0.089697 -0.131570 0
-0.087607 -0.158659 0
-0.084487 -0.187766 0
-0.080430 -0.218794 0
-0.075217 -0.251283 0
-0.067674 -0.282366 0
-0.054599 -0.299119 0
-0.031003 -0.253874 0
-0.000116 0.000015 0
0.000000 0.103240 0
0.000000 -0.000007 0
-0.029482 0.109067 0
-0.059845 0.147723 0
-0.085749 0.177839 0
-0.106538 0.199876 0
-0.121954 0.212014 0
-0.132082 0.213994 0
-0.137223 0.206698 0
-0.137863 0.191793 0
-0.134634 0.171420 0
-0.128257 0.147845 0
-0.119483 0.123191 0
-0.109039 0.099239 0
-0.097602 0.077328 0
-0.085810 0.058350 0
-0.074278 0.042780 0
-0.063604 0.030706 0
-0.054352 0.021859 0
-0.047006 0.015654 0
-0.041739 0.011324 0
-0.038456 0.008112 0
-0.036920 0.005372 0
-0.036825 0.002581 0
-0.037924 -0.000743 0
-0.040012 -0.004954 0
-0.042946 -0.010500 0
-0.046849 -0.018085 0
-0.051615 -0.028499 0
-0.056804 -0.042526 0
-0.061548 -0.060495 0
-0.064988 -0.081958 0
-0.066825 -0.106088 0
-0.067205 -0.132368 0
-0.066334 -0.160601 0
-0.064416 -0.190689 0
-0.061622 -0.222662 0
-0.057967 -0.256570 0
-0.052818 -0.290941 0
-0.043690 -0.314952 0
-0.025589 -0.278362 0
-0.000107 0.000014 0
0.000000 0.117363 0
0.000000 -0.000007 0
-0.023954 0.136576 0
-0.049788 0.173874 0
-0.071865 0.199469 0
-0.089382 0.216462 0
-0.102027 0.223444 0
-0.109842 0.220454 0
-0.113111 0.208589 0
-0.112306 0.189682 0
-0.108018 0.165970 0
-0.100899 0.139761 0
-0.091599 0.113168 0
-0.080736 0.087932 0
-0.068890 0.065358 0
-0.056629 0.046328 0
-0.044540 0.031322 0
-0.033264 0.020439 0
-0.023531 0.013396 0
-0.016130 0.009391 0
-0.011293 0.007291 0
-0.008761 0.006088 0
-0.008100 0.005009 0
-0.008889 0.003528 0
-0.010804 0.001271 0
-0.013744 -0.002129 0
-0.017487 -0.006854 0
-0.021816 -0.013427 0
-0.027103 -0.023011 0
-0.033167 -0.036888 0
-0.038987 -0.055701 0
-0.043451 -0.078678 0
-0.046220 -0.104400 0
-0.047513 -0.132061 0
-0.047586 -0.161448 0
-0.046671 -0.192479 0
-0.044979 -0.225243 0
-0.042653 -0.260087 0
-0.039461 -0.296642 0
-0.033655 -0.326348 0
-0.020508 -0.297564 0
-0.000096 0.000014 0
0.000000 0.128828 0
0.000000 -0.000007 0
-0.018219 0.158855 0
-0.039224 0.195635 0
-0.057272 0.217433 0
-0.071494 0.230038 0
-0.081557 0.232474 0
-0.087456 0.225078 0
-0.089416 0.209161 0
-0.087836 0.186701 0
-0.083215 0.160013 0
-0.076086 0.131425 0
-0.066976 0.103028 0
-0.056374 0.076530 0
-0.044746 0.053221 0
-0.032556 0.034000 0
-0.020274 0.019415 0
-0.008403 0.009697 0
0.001055 0.004725 0
0.007680 0.003416 0
0.011669 0.003955 0
0.013440 0.004919 0
0.013425 0.005501 0
0.012003 0.005285 0
0.009512 0.004112 0
0.006149 0.001729 0
0.001970 -0.002429 0
-0.002866 -0.008469 0
-0.008486 -0.017148 0
-0.014836 -0.030641 0
-0.020942 -0.050211 0
-0.025673 -0.074725 0
-0.028782 -0.102026 0
-0.030556 -0.131002 0
-0.031266 -0.161443 0
-0.031152 -0.193297 0
-0.030432 -0.226681 0
-0.029303 -0.262087 0
-0.027778 -0.299939 0
-0.024750 -0.333905 0
-0.015943 -0.312017 0
-0.000084 0.000014 0
0.000000 0.137870 0
0.000000 -0.000007 0
-0.012472 0.175800 0
-0.028619 0.212927 0
-0.042669 0.231739 0
-0.053710 0.240748 0
-0.061425 0.239406 0
-0.065764 0.228313 0
-0.066881 0.208970 0
-0.065075 0.183480 0
-0.060724 0.154220 0
-0.054228 0.123522 0
-0.045971 0.093455 0
-0.036310 0.065702 0
-0.025570 0.041540 0
-0.013979 0.021855 0
-0.001727 0.007168 0
0.008624 -0.000889 0
0.016175 -0.002686 0
0.021373 -0.001223 0
0.024587 0.001531 0
0.025995 0.004332 0
0.025823 0.006446 0
0.024311 0.007441 0
0.021741 0.007124 0
0.018439 0.005413 0
0.014496 0.002161 0
0.009653 -0.002972 0
0.004150 -0.011041 0
-0.001797 -0.024431 0
-0.007371 -0.044864 0
-0.011528 -0.070839 0
-0.014348 -0.099518 0
-0.016159 -0.129577 0
-0.017196 -0.160851 0
-0.017674 -0.193313 0
-0.017795 -0.227092 0
-0.017761 -0.262740 0
-0.017703 -0.301196 0
-0.017008 -0.338183 0
-0.011947 -0.322314 0
-0.000072 0.000013 0
0.000000 0.144771 0
0.000000 -0.000006 0
-0.006827 0.187475 0
-0.018240 0.225832 0
-0.028430 0.242524 0
-0.036467 0.248794 0
-0.042065 0.244528 0
-0.045147 0.230535 0
-0.045795 0.208473 0
-0.044203 0.180544 0
-0.040623 0.149166 0
-0.035316 0.116673 0
-0.028529 0.085110 0
-0.020478 0.056128 0
-0.011299 0.030891 0
-0.000827 0.010157 0
0.008725 -0.003188 0
0.015490 -0.008206 0
0.020679 -0.008024 0
0.024708 -0.004995 0
0.027594 -0.000667 0
0.029145 0.003683 0
0.029358 0.007185 0
0.028331 0.009367 0
0.026234 0.009983 0
0.023286 0.008975 0
0.019666 0.006358 0
0.015443 0.001877 0
0.010706 -0.005699 0
0.005956 -0.019120 0
0.002152 -0.040480 0
-0.000547 -0.067748 0
-0.002560 -0.097395 0
-0.004028 -0.128154 0
-0.005118 -0.159928 0
-0.005998 -0.192698 0
-0.006831 -0.226594 0
-0.007793 -0.262179 0
-0.009052 -0.300693 0
-0.010337 -0.339662 0
-0.008492 -0.329025 0
-0.000062 0.000013 0
0.000000 0.149816 0
0.000000 -0.000006 0
-0.001483 0.194040 0
-0.008183 0.234530 0
-0.014701 0.249966 0
-0.019930 0.254382 0
-0.023613 0.248086 0
-0.025666 0.232043 0
-0.026117 0.208026 0
-0.025065 0.178308 0
-0.022644 0.145333 0
-0.018995 0.111429 0
-0.014244 0.078617 0
-0.008363 0.048472 0
-0.001354 0.021890 0
0.005829 0.001830 0
0.010770 -0.009149 0
0.014667 -0.012843 0
0.018118 -0.011905 0
0.021121 -0.008138 0
0.023623 -0.002906 0
0.025395 0.002568 0
0.026180 0.007261 0
0.025924 0.010565 0
0.024664 0.012169 0
0.022506 0.011981 0
0.019599 0.010004 0
0.016172 0.005988 0
0.012596 -0.001553 0
0.009798 -0.015877 0
0.008607 -0.038362 0
0.007885 -0.066127 0
0.007083 -0.096037 0
0.006237 -0.127019 0
0.005293 -0.158881 0
0.004159 -0.191600 0
0.002723 -0.225297 0
0.000863 -0.260519 0
-0.001595 -0.298652 0
-0.004580 -0.338743 0
-0.005509 -0.332651 0
-0.000054 0.000012 0
0.000000 0.153262 0
0.000000 -0.000005 0
0.003442 0.195658 0
0.001452 0.239051 0
-0.001540 0.254271 0
-0.004107 0.257705 0
-0.006004 0.250264 0
-0.007161 0.233039 0
-0.007566 0.207871 0
-0.007245 0.177070 0
-0.006234 0.143096 0
-0.004569 0.108273 0
-0.002255 0.074477 0
0.000823 0.043237 0
0.004389 0.016699 0
0.006849 -0.001966 0
0.008499 -0.012026 0
0.010247 -0.015553 0
0.012141 -0.014479 0
0.014065 -0.010500 0
0.015976 -0.004941 0
0.017750 0.001125 0
0.018998 0.006657 0
0.019530 0.010882 0
0.019240 0.013402 0
0.018127 0.014040 0
0.016316 0.012692 0
0.014134 0.008880 0
0.012325 0.000675 0
0.012271 -0.015131 0
0.013625 -0.038567 0
0.014781 -0.066225 0
0.015269 -0.095747 0
0.015136 -0.126363 0
0.014429 -0.157850 0
0.013123 -0.190128 0
0.011149 -0.223298 0
0.008433 -0.257861 0
0.004855 -0.295249 0
0.000444 -0.335748 0
-0.002902 -0.333605 0
-0.000048 0.000012 0
0.000000 0.155324 0
0.000000 -0.000004 0
0.008040 0.192588 0
0.010603 0.239512 0
0.011031 0.255524 0
0.011039 0.258846 0
0.010882 0.251140 0
0.010609 0.233605 0
0.010241 0.208110 0
0.009800 0.176976 0
0.009321 0.142657 0
0.008855 0.107450 0
0.008482 0.073224 0
0.008166 0.041828 0
0.007453 0.015864 0
0.006019 -0.002280 0
0.005018 -0.012547 0
0.004720 -0.016485 0
0.005041 -0.015723 0
0.005824 -0.011974 0
0.007034 -0.006591 0
0.008605 -0.000454 0
0.010180 0.005480 0
0.011424 0.010324 0
0.012111 0.013572 0
0.012174 0.014905 0
0.011762 0.013998 0
0.011371 0.009979 0
0.012076 0.000310 0
0.015074 -0.017177 0
0.018590 -0.040872 0
0.021230 -0.067771 0
0.022746 -0.096392 0
0.023224 -0.126179 0
0.022725 -0.156868 0
0.021247 -0.188321 0
0.018752 -0.220607 0
0.015194 -0.254225 0
0.010529 -0.290663 0
0.004811 -0.330985 0
-0.000571 -0.332207 0
-0.000044 0.000011 0
0.000000 0.156164 0
0.000000 -0.000004 0
0.012347 0.185055 0
0.019307 0.236060 0
0.023051 0.253835 0
0.025545 0.257855 0
0.027124 0.250694 0
0.027805 0.233680 0
0.027592 0.208680 0
0.026523 0.177989 0
0.024680 0.144041 0
0.022167 0.109112 0
0.019104 0.075166 0
0.015427 0.044267 0
0.011010 0.018846 0
0.006319 0.000468 0
0.002588 -0.010727 0
0.000131 -0.015577 0
-0.001166 -0.015582 0
-0.001517 -0.012492 0
-0.001060 -0.007722 0
0.000121 -0.002021 0
0.001844 0.003837 0
0.003674 0.008951 0
0.005301 0.012652 0
0.006620 0.014389 0
0.007899 0.013495 0
0.009811 0.008567 0
0.013741 -0.003028 0
0.019233 -0.021645 0
0.024211 -0.044723 0
0.027855 -0.070381 0
0.030090 -0.097741 0
0.030984 -0.126341 0
0.030576 -0.155873 0
0.028859 -0.186156 0
0.025810 -0.217244 0
0.021414 -0.249638 0
0.015668 -0.284867 0
0.008643 -0.324648 0
0.001554 -0.328794 0
-0.000041 0.000011 0
0.000000 0.155894 0
0.000000 -0.000003 0
0.016318 0.173280 0
0.027519 0.228808 0
0.034512 0.249287 0
0.039428 0.254772 0
0.042756 0.248880 0
0.044506 0.233138 0
0.044651 0.209392 0
0.043229 0.179888 0
0.040346 0.147013 0
0.036155 0.113026 0
0.030818 0.079965 0
0.024407 0.049921 0
0.017160 0.024972 0
0.009821 0.006143 0
0.003238 -0.006358 0
-0.001516 -0.012731 0
-0.004490 -0.014075 0
-0.005960 -0.012080 0
-0.006255 -0.008229 0
-0.005555 -0.003358 0
-0.003940 0.001927 0
-0.001747 0.006867 0
0.000723 0.010626 0
0.003420 0.012307 0
0.006694 0.010807 0
0.011359 0.004137 0
0.018193 -0.009113 0
0.025126 -0.027646 0
0.030874 -0.049494 0
0.035081 -0.073651 0
0.037716 -0.099520 0
0.038794 -0.126665 0
0.038307 -0.154742 0
0.036232 -0.183555 0
0.032551 -0.213162 0
0.027270 -0.244082 0
0.020428 -0.277892 0
0.012135 -0.316872 0
0.003504 -0.323564 0
-0.000039 0.000011 0
0.000000 0.154608 0
0.000000 -0.000002 0
0.019831 0.157535 0
0.035080 0.217865 0
0.045288 0.241927 0
0.052603 0.249611 0
0.057722 0.245616 0
0.060695 0.231786 0
0.061473 0.209957 0
0.060079 0.182294 0
0.056634 0.151115 0
0.051338 0.118641 0
0.044420 0.086914 0
0.036133 0.057924 0
0.026961 0.033432 0
0.017718 0.014391 0
0.009049 0.000609 0
0.001826 -0.007849 0
-0.003050 -0.011139 0
-0.005829 -0.010727 0
-0.006934 -0.008126 0
-0.006732 -0.004336 0
-0.005374 0.000029 0
-0.003004 0.004289 0
0.000236 0.007485 0
0.004368 0.008418 0
0.009781 0.005555 0
0.017209 -0.002932 0
0.025420 -0.016795 0
0.032807 -0.034327 0
0.038790 -0.054678 0
0.043186 -0.077222 0
0.045920 -0.101454 0
0.046934 -0.126933 0
0.046170 -0.153311 0
0.043581 -0.180399 0
0.039154 -0.208282 0
0.032915 -0.237515 0
0.024941 -0.269732 0
0.015385 -0.307724 0
0.005305 -0.316660 0
-0.000037 0.000010 0
0.000000 0.152389 0
0.000000 -0.000001 0
0.022690 0.138200 0
0.041708 0.203351 0
0.055107 0.231764 0
0.064853 0.242338 0
0.071849 0.240788 0
0.076235 0.229388 0
0.077962 0.210008 0
0.077038 0.184726 0
0.073593 0.155754 0
0.067863 0.125240 0
0.060160 0.095170 0
0.050880 0.067381 0
0.040636 0.043387 0
0.030243 0.024055 0
0.020457 0.009534 0
0.011630 -0.000632 0
0.004698 -0.006421 0
0.000310 -0.008197 0
-0.001863 -0.007326 0
-0.002275 -0.004917 0
-0.001188 -0.001801 0
0.001319 0.001257 0
0.005257 0.003255 0
0.010803 0.002761 0
0.018165 -0.002034 0
0.026790 -0.011502 0
0.035025 -0.024710 0
0.042236 -0.041016 0
0.048081 -0.059873 0
0.052356 -0.080780 0
0.054905 -0.103269 0
0.055598 -0.126914 0
0.054334 -0.151389 0
0.051051 -0.176539 0
0.045740 -0.202496 0
0.038449 -0.229870 0
0.029290 -0.260362 0
0.018463 -0.297236 0
0.006988 -0.308179 0
-0.000036 0.000010 0
0.000000 0.149303 0
0.000000 0.000000 0
0.024630 0.115827 0
0.046980 0.185449 0
0.063526 0.218782 0
0.075803 0.232868 0
0.084826 0.234235 0
0.090851 0.225674 0
0.093863 0.209153 0
0.093865 0.186663 0
0.090990 0.160290 0
0.085506 0.132073 0
0.077789 0.103897 0
0.068329 0.077449 0
0.057790 0.054069 0
0.046953 0.034570 0
0.036560 0.019222 0
0.027194 0.007909 0
0.019133 0.000182 0
0.013192 -0.004166 0
0.009711 -0.005541 0
0.008514 -0.005012 0
0.009279 -0.003565 0
0.011902 -0.002156 0
0.016417 -0.001999 0
0.022854 -0.004491 0