# vtk DataFile Version 2.0
generated by CFD-lab course output (written by Tobias Neckel) 
ASCII

DATASET STRUCTURED_GRID
DIMENSIONS  42 42 1 
POINTS 1764 float

0.150000 0.150000 0
0.167857 0.150000 0
0.185714 0.150000 0
0.203571 0.150000 0
0.221429 0.150000 0
0.239286 0.150000 0
0.257143 0.150000 0
0.275000 0.150000 0
0.292857 0.150000 0
0.310714 0.150000 0
0.328571 0.150000 0
0.346429 0.150000 0
0.364286 0.150000 0
0.382143 0.150000 0
0.400000 0.150000 0
0.417857 0.150000 0
0.435714 0.150000 0
0.453571 0.150000 0
0.471429 0.150000 0
0.489286 0.150000 0
0.507143 0.150000 0
0.525000 0.150000 0
0.542857 0.150000 0
0.560714 0.150000 0
0.578571 0.150000 0
0.596429 0.150000 0
0.614286 0.150000 0
0.632143 0.150000 0
0.650000 0.150000 0
0.667857 0.150000 0
0.685714 0.150000 0
0.703571 0.150000 0
0.721429 0.150000 0
0.739286 0.150000 0
0.757143 0.150000 0
0.775000 0.150000 0
0.792857 0.150000 0
0.810714 0.150000 0
0.828571 0.150000 0
0.846429 0.150000 0
0.864286 0.150000 0
0.882143 0.150000 0
0.150000 0.167857 0
0.167857 0.167857 0
0.185714 0.167857 0
0.203571 0.167857 0
0.221429 0.167857 0
0.239286 0.167857 0
0.257143 0.167857 0
0.275000 0.167857 0
0.292857 0.167857 0
0.310714 0.167857 0
0.328571 0.167857 0
0.346429 0.167857 0
0.364286 0.167857 0
0.382143 0.167857 0
0.400000 0.167857 0
0.417857 0.167857 0
0.435714 0.167857 0
0.453571 0.167857 0
0.471429 0.167857 0
0.489286 0.167857 0
0.507143 0.167857 0
0.525000 0.167857 0
0.542857 0.167857 0
0.560714 0.167857 0
0.578571 0.167857 0
0.596429 0.167857 0
0.614286 0.167857 0
0.632143 0.167857 0
0.650000 0.167857 0
0.667857 0.167857 0
0.685714 0.167857 0
0.703571 0.167857 0
0.721429 0.167857 0
0.739286 0.167857 0
0.757143 0.167857 0
0.775000 0.167857 0
0.792857 0.167857 0
0.810714 0.167857 0
0.828571 0.167857 0
0.846429 0.167857 0
0.864286 0.167857 0
0.882143 0.167857 0
0.150000 0.185714 0
0.167857 0.185714 0
0.185714 0.185714 0
0.203571 0.185714 0
0.221429 0.185714 0
0.239286 0.185714 0
0.257143 0.185714 0
0.275000 0.185714 0
0.292857 0.185714 0
0.310714 0.185714 0
0.328571 0.185714 0
0.346429 0.185714 0
0.364286 0.185714 0
0.382143 0.185714 0
0.400000 0.185714 0
0.417857 0.185714 0
0.435714 0.185714 0
0.453571 0.185714 0
0.471429 0.185714 0
0.489286 0.185714 0
0.507143 0.185714 0
0.525000 0.185714 0
0.542857 0.185714 0
0.560714 0.185714 0
0.578571 0.185714 0
0.596429 0.185714 0
0.614286 0.185714 0
0.632143 0.185714 0
0.650000 0.185714 0
0.667857 0.185714 0
0.685714 0.185714 0
0.703571 0.185714 0
0.721429 0.185714 0
0.739286 0.185714 0
0.757143 0.185714 0
0.775000 0.185714 0
0.792857 0.185714 0
0.810714 0.185714 0
0.828571 0.185714 0
0.846429 0.185714 0
0.864286 0.185714 0
0.882143 0.185714 0
0.150000 0.203571 0
0.167857 0.203571 0
0.185714 0.203571 0
0.203571 0.203571 0
0.221429 0.203571 0
0.239286 0.203571 0
0.257143 0.203571 0
0.275000 0.203571 0
0.292857 0.203571 0
0.310714 0.203571 0
0.328571 0.203571 0
0.346429 0.203571 0
0.364286 0.203571 0
0.382143 0.203571 0
0.400000 0.203571 0
0.417857 0.203571 0
0.435714 0.203571 0
0.453571 0.203571 0
0.471429 0.203571 0
0.489286 0.203571 0
0.507143 0.203571 0
0.525000 0.203571 0
0.542857 0.203571 0
0.560714 0.203571 0
0.578571 0.203571 0
0.596429 0.203571 0
0.614286 0.203571 0
0.632143 0.203571 0
0.650000 0.203571 0
0.667857 0.203571 0
0.685714 0.203571 0
0.703571 0.203571 0
0.721429 0.203571 0
0.739286 0.203571 0
0.757143 0.203571 0
0.775000 0.203571 0
0.792857 0.203571 0
0.810714 0.203571 0
0.828571 0.203571 0
0.846429 0.203571 0
0.864286 0.203571 0
0.882143 0.203571 0
0.150000 0.221429 0
0.167857 0.221429 0
0.185714 0.221429 0
0.203571 0.221429 0
0.221429 0.221429 0
0.239286 0.221429 0
0.257143 0.221429 0
0.275000 0.221429 0
0.292857 0.221429 0
0.310714 0.221429 0
0.328571 0.221429 0
0.346429 0.221429 0
0.364286 0.221429 0
0.382143 0.221429 0
0.400000 0.221429 0
0.417857 0.221429 0
0.435714 0.221429 0
0.453571 0.221429 0
0.471429 0.221429 0
0.489286 0.221429 0
0.507143 0.221429 0
0.525000 0.221429 0
0.542857 0.221429 0
0.560714 0.221429 0
0.578571 0.221429 0
0.596429 0.221429 0
0.614286 0.221429 0
0.632143 0.221429 0
0.650000 0.221429 0
0.667857 0.221429 0
0.685714 0.221429 0
0.703571 0.221429 0
0.721429 0.221429 0
0.739286 0.221429 0
0.757143 0.221429 0
0.775000 0.221429 0
0.792857 0.221429 0
0.810714 0.221429 0
0.828571 0.221429 0
0.846429 0.221429 0
0.864286 0.221429 0
0.882143 0.221429 0
0.150000 0.239286 0
0.167857 0.239286 0
0.185714 0.239286 0
0.203571 0.239286 0
0.221429 0.239286 0
0.239286 0.239286 0
0.257143 0.239286 0
0.275000 0.239286 0
0.292857 0.239286 0
0.310714 0.239286 0
0.328571 0.239286 0
0.346429 0.239286 0
0.364286 0.239286 0
0.382143 0.239286 0
0.400000 0.239286 0
0.417857 0.239286 0
0.435714 0.239286 0
0.453571 0.239286 0
0.471429 0.239286 0
0.489286 0.239286 0
0.507143 0.239286 0
0.525000 0.239286 0
0.542857 0.239286 0
0.560714 0.239286 0
0.578571 0.239286 0
0.596429 0.239286 0
0.614286 0.239286 0
0.632143 0.239286 0
0.650000 0.239286 0
0.667857 0.239286 0
0.685714 0.239286 0
0.703571 0.239286 0
0.721429 0.239286 0
0.739286 0.239286 0
0.757143 0.239286 0
0.775000 0.239286 0
0.792857 0.239286 0
0.810714 0.239286 0
0.828571 0.239286 0
0.846429 0.239286 0
0.864286 0.239286 0
0.882143 0.239286 0
0.150000 0.257143 0
0.167857 0.257143 0
0.185714 0.257143 0
0.203571 0.257143 0
0.221429 0.257143 0
0.239286 0.257143 0
0.257143 0.257143 0
0.275000 0.257143 0
0.292857 0.257143 0
0.310714 0.257143 0
0.328571 0.257143 0
0.346429 0.257143 0
0.364286 0.257143 0
0.382143 0.257143 0
0.400000 0.257143 0
0.417857 0.257143 0
0.435714 0.257143 0
0.453571 0.257143 0
0.471429 0.257143 0
0.489286 0.257143 0
0.507143 0.257143 0
0.525000 0.257143 0
0.542857 0.257143 0
0.560714 0.257143 0
0.578571 0.257143 0
0.596429 0.257143 0
0.614286 0.257143 0
0.632143 0.257143 0
0.650000 0.257143 0
0.667857 0.257143 0
0.685714 0.257143 0
0.703571 0.257143 0
0.721429 0.257143 0
0.739286 0.257143 0
0.757143 0.257143 0
0.775000 0.257143 0
0.792857 0.257143 0
0.810714 0.257143 0
0.828571 0.257143 0
0.846429 0.257143 0
0.864286 0.257143 0
0.882143 0.257143 0
0.150000 0.275000 0
0.167857 0.275000 0
0.185714 0.275000 0
0.203571 0.275000 0
0.221429 0.275000 0
0.239286 0.275000 0
0.257143 0.275000 0
0.275000 0.275000 0
0.292857 0.275000 0
0.310714 0.275000 0
0.328571 0.275000 0
0.346429 0.275000 0
0.364286 0.275000 0
0.382143 0.275000 0
0.400000 0.275000 0
0.417857 0.275000 0
0.435714 0.275000 0
0.453571 0.275000 0
0.471429 0.275000 0
0.489286 0.275000 0
0.507143 0.275000 0
0.525000 0.275000 0
0.542857 0.275000 0
0.560714 0.275000 0
0.578571 0.275000 0
0.596429 0.275000 0
0.614286 0.275000 0
0.632143 0.275000 0
0.650000 0.275000 0
0.667857 0.275000 0
0.685714 0.275000 0
0.703571 0.275000 0
0.721429 0.275000 0
0.739286 0.275000 0
0.757143 0.275000 0
0.775000 0.275000 0
0.792857 0.275000 0
0.810714 0.275000 0
0.828571 0.275000 0
0.846429 0.275000 0
0.864286 0.275000 0
0.882143 0.275000 0
0.150000 0.292857 0
0.167857 0.292857 0
0.185714 0.292857 0
0.203571 0.292857 0
0.221429 0.292857 0
0.239286 0.292857 0
0.257143 0.292857 0
0.275000 0.292857 0
0.292857 0.292857 0
0.310714 0.292857 0
0.328571 0.292857 0
0.346429 0.292857 0
0.364286 0.292857 0
0.382143 0.292857 0
0.400000 0.292857 0
0.417857 0.292857 0
0.435714 0.292857 0
0.453571 0.292857 0
0.471429 0.292857 0
0.489286 0.292857 0
0.507143 0.292857 0
0.525000 0.292857 0
0.542857 0.292857 0
0.560714 0.292857 0
0.578571 0.292857 0
0.596429 0.292857 0
0.614286 0.292857 0
0.632143 0.292857 0
0.650000 0.292857 0
0.667857 0.292857 0
0.685714 0.292857 0
0.703571 0.292857 0
0.721429 0.292857 0
0.739286 0.292857 0
0.757143 0.292857 0
0.775000 0.292857 0
0.792857 0.292857 0
0.810714 0.292857 0
0.828571 0.292857 0
0.846429 0.292857 0
0.864286 0.292857 0
0.882143 0.292857 0
0.150000 0.310714 0
0.167857 0.310714 0
0.185714 0.310714 0
0.203571 0.310714 0
0.221429 0.310714 0
0.239286 0.310714 0
0.257143 0.310714 0
0.275000 0.310714 0
0.292857 0.310714 0
0.310714 0.310714 0
0.328571 0.310714 0
0.346429 0.310714 0
0.364286 0.310714 0
0.382143 0.310714 0
0.400000 0.310714 0
0.417857 0.310714 0
0.435714 0.310714 0
0.453571 0.310714 0
0.471429 0.310714 0
0.489286 0.310714 0
0.507143 0.310714 0
0.525000 0.310714 0
0.542857 0.310714 0
0.560714 0.310714 0
0.578571 0.310714 0
0.596429 0.310714 0
0.614286 0.310714 0
0.632143 0.310714 0
0.650000 0.310714 0
0.667857 0.310714 0
0.685714 0.310714 0
0.703571 0.310714 0
0.721429 0.310714 0
0.739286 0.310714 0
0.757143 0.310714 0
0.775000 0.310714 0
0.792857 0.310714 0
0.810714 0.310714 0
0.828571 0.310714 0
0.846429 0.310714 0
0.864286 0.310714 0
0.882143 0.310714 0
0.150000 0.328571 0
0.167857 0.328571 0
0.185714 0.328571 0
0.203571 0.328571 0
0.221429 0.328571 0
0.239286 0.328571 0
0.257143 0.328571 0
0.275000 0.328571 0
0.292857 0.328571 0
0.310714 0.328571 0
0.328571 0.328571 0
0.346429 0.328571 0
0.364286 0.328571 0
0.382143 0.328571 0
0.400000 0.328571 0
0.417857 0.328571 0
0.435714 0.328571 0
0.453571 0.328571 0
0.471429 0.328571 0
0.489286 0.328571 0
0.507143 0.328571 0
0.525000 0.328571 0
0.542857 0.328571 0
0.560714 0.328571 0
0.578571 0.328571 0
0.596429 0.328571 0
0.614286 0.328571 0
0.632143 0.328571 0
0.650000 0.328571 0
0.667857 0.328571 0
0.685714 0.328571 0
0.703571 0.328571 0
0.721429 0.328571 0
0.739286 0.328571 0
0.757143 0.328571 0
0.775000 0.328571 0
0.792857 0.328571 0
0.810714 0.328571 0
0.828571 0.328571 0
0.846429 0.328571 0
0.864286 0.328571 0
0.882143 0.328571 0
0.150000 0.346429 0
0.167857 0.346429 0
0.185714 0.346429 0
0.203571 0.346429 0
0.221429 0.346429 0
0.239286 0.346429 0
0.257143 0.346429 0
0.275000 0.346429 0
0.292857 0.346429 0
0.310714 0.346429 0
0.328571 0.346429 0
0.346429 0.346429 0
0.364286 0.346429 0
0.382143 0.346429 0
0.400000 0.346429 0
0.417857 0.346429 0
0.435714 0.346429 0
0.453571 0.346429 0
0.471429 0.346429 0
0.489286 0.346429 0
0.507143 0.346429 0
0.525000 0.346429 0
0.542857 0.346429 0
0.560714 0.346429 0
0.578571 0.346429 0
0.596429 0.346429 0
0.614286 0.346429 0
0.632143 0.346429 0
0.650000 0.346429 0
[...]
POINT_DATA 1764 

VECTORS velocity float
0.000000 0.000000 0
-0.000002 0.000000 0
-0.000003 0.000000 0
-0.000003 0.000000 0
-0.000003 0.000000 0
-0.000002 0.000000 0
-0.000002 0.000000 0
-0.000001 0.000000 0
-0.000002 0.000000 0
-0.000004 0.000000 0
-0.000000 0.000000 0
0.000003 0.000000 0
0.000005 0.000000 0
0.000007 0.000000 0
0.000007 0.000000 0
0.000008 0.000000 0
0.000009 0.000000 0
0.000009 0.000000 0
0.000009 0.000000 0
0.000009 0.000000 0
0.000009 0.000000 0
0.000009 0.000000 0
0.000009 0.000000 0
0.000009 0.000000 0
0.000010 0.000000 0
0.000010 0.000000 0
0.000010 0.000000 0
0.000010 0.000000 0
0.000010 0.000000 0
0.000010 0.000000 0
0.000010 0.000000 0
0.000010 0.000000 0
0.000010 0.000000 0
0.000009 0.000000 0
0.000009 0.000000 0
0.000008 0.000000 0
0.000006 0.000000 0
0.000004 0.000000 0
0.000000 0.000000 0
-0.000001 0.000000 0
-0.000000 0.000000 0
0.000000 0.000000 0
0.000000 0.000002 0
0.025030 -0.023319 0
0.048229 -0.016639 0
0.058826 -0.004062 0
0.058268 0.005203 0
0.050294 0.008917 0
0.041456 0.007703 0
0.036976 0.005145 0
0.026524 -0.004114 0
0.007216 -0.007859 0
-0.016461 0.009281 0
-0.046444 0.027427 0
-0.080578 0.033944 0
-0.115227 0.034835 0
-0.148443 0.033788 0
-0.178987 0.031434 0
-0.206196 0.028375 0
-0.229805 0.025014 0
-0.249819 0.021628 0
-0.266403 0.018373 0
-0.279796 0.015320 0
-0.290249 0.012481 0
-0.297980 0.009824 0
-0.303147 0.007274 0
-0.305816 0.004726 0
-0.305950 0.002063 0
-0.303427 -0.000848 0
-0.298077 -0.004128 0
-0.289620 -0.007825 0
-0.277673 -0.011964 0
-0.261776 -0.016634 0
-0.241399 -0.021890 0
-0.215998 -0.027704 0
-0.185111 -0.033887 0
-0.148558 -0.039951 0
-0.106825 -0.044859 0
-0.061783 -0.046396 0
-0.018043 -0.037888 0
0.014636 -0.009174 0
0.017318 0.016894 0
-0.000001 -0.000001 0
0.000000 -0.011152 0
0.000000 0.000003 0
0.024533 -0.048229 0
0.043958 -0.033796 0
0.052016 -0.010039 0
0.051023 0.008532 0
0.042406 0.016813 0
0.027527 0.013318 0
0.005504 0.014932 0
-0.024847 0.029760 0
-0.070885 0.042984 0
-0.116547 0.053659 0
-0.152861 0.064118 0
-0.184938 0.068783 0
-0.214596 0.067865 0
-0.241057 0.063760 0
-0.263976 0.057753 0
-0.283267 0.050818 0
-0.299050 0.043623 0
-0.311568 0.036598 0
-0.321117 0.029977 0
-0.327995 0.023845 0
-0.332468 0.018184 0
-0.334742 0.012898 0
-0.334948 0.007836 0
-0.333150 0.002803 0
-0.329326 -0.002390 0
-0.323481 -0.007873 0
-0.315477 -0.013806 0
-0.305120 -0.020404 0
-0.292077 -0.027844 0
-0.275944 -0.036274 0
-0.256286 -0.045778 0
-0.232654 -0.056289 0
-0.204668 -0.067440 0
-0.172156 -0.078285 0
-0.135439 -0.086775 0
-0.095842 -0.088782 0
-0.056338 -0.076419 0
-0.019952 -0.035361 0
0.008911 0.014636 0
0.000006 -0.000002 0
0.000000 -0.017320 0
0.000000 0.000004 0
0.017314 -0.067277 0
0.027136 -0.044121 0
0.027619 -0.011127 0
0.016386 0.014812 0
-0.000706 0.032414 0
-0.027380 0.044605 0
-0.067046 0.057518 0
-0.107944 0.072275 0
-0.145398 0.083841 0
-0.181075 0.091257 0
-0.211091 0.095818 0
-0.235448 0.095680 0
-0.255660 0.090954 0
-0.272175 0.083168 0
-0.285380 0.073644 0
-0.295649 0.063449 0
-0.303369 0.053316 0
-0.308901 0.043695 0
-0.312566 0.034800 0
-0.314626 0.026671 0
-0.315277 0.019227 0
-0.314651 0.012303 0
-0.312817 0.005681 0
-0.309796 -0.000896 0
-0.305592 -0.007605 0
-0.300137 -0.014697 0
-0.293225 -0.022490 0
-0.284619 -0.031225 0
-0.274038 -0.041140 0
-0.261162 -0.052425 0
-0.245651 -0.065180 0
-0.227154 -0.079321 0
-0.205341 -0.094385 0
-0.179949 -0.109181 0
-0.150882 -0.121173 0
-0.118362 -0.125497 0
-0.083037 -0.113778 0
-0.045745 -0.074423 0
-0.005978 -0.003057 0
0.000011 0.000000 0
0.000000 -0.020063 0
0.000000 0.000003 0
0.004546 -0.075365 0
-0.001327 -0.044101 0
-0.014269 0.000711 0
-0.034083 0.036858 0
-0.059171 0.060579 0
-0.090082 0.079658 0
-0.124674 0.095496 0
-0.158247 0.108112 0
-0.187848 0.116115 0
-0.213860 0.119353 0
-0.234787 0.118491 0
-0.250528 0.113353 0
-0.262122 0.104592 0
-0.270406 0.093479 0
-0.276102 0.081226 0
-0.279795 0.068807 0
-0.281953 0.056875 0
-0.282935 0.045796 0
-0.283003 0.035701 0
-0.282336 0.026555 0
-0.281048 0.018209 0
-0.279192 0.010438 0
-0.276775 0.002981 0
-0.273759 -0.004421 0
-0.270174 -0.012048 0
-0.265788 -0.020240 0
-0.260446 -0.029325 0
-0.253932 -0.039592 0
-0.246020 -0.051301 0
-0.236470 -0.064661 0
-0.225041 -0.079786 0
-0.211488 -0.096598 0
-0.195543 -0.114645 0
-0.176872 -0.132745 0
-0.155027 -0.148363 0
-0.129374 -0.156627 0
-0.099107 -0.149036 0
-0.063660 -0.112419 0
-0.025230 -0.031108 0
-0.000009 0.000004 0
0.000000 -0.011335 0
0.000000 0.000002 0
-0.011177 -0.065950 0
-0.032113 -0.025307 0
-0.056588 0.021629 0
-0.078510 0.059714 0
-0.104034 0.088412 0
-0.131732 0.110108 0
-0.159429 0.125684 0
-0.184800 0.135450 0
-0.206224 0.139453 0
-0.223491 0.138195 0
-0.236129 0.132487 0
-0.244417 0.123015 0
-0.249239 0.110832 0
-0.251479 0.097147 0
-0.251911 0.083033 0
-0.251137 0.069300 0
-0.249601 0.056456 0
-0.247611 0.044744 0
-0.245374 0.034201 0
-0.243013 0.024717 0
-0.240592 0.016083 0
-0.238128 0.008030 0
-0.235604 0.000248 0
-0.232977 -0.007497 0
-0.230143 -0.015576 0
-0.226918 -0.024425 0
-0.223130 -0.034346 0
-0.218580 -0.045651 0
-0.213067 -0.058603 0
-0.206403 -0.073404 0
-0.198427 -0.090162 0
-0.188988 -0.108819 0
-0.177903 -0.129001 0
-0.164859 -0.149697 0
-0.149250 -0.168671 0
-0.129982 -0.181417 0
-0.105390 -0.179493 0
-0.073745 -0.148300 0
-0.035499 -0.066717 0
-0.000038 0.000007 0
0.000000 0.005175 0
0.000000 -0.000000 0
-0.024167 -0.043253 0
-0.054016 0.001311 0
-0.080989 0.047107 0
-0.105684 0.084303 0
-0.130090 0.113801 0
-0.153633 0.135053 0
-0.175098 0.148565 0
-0.193321 0.154907 0
-0.207527 0.154806 0
-0.217608 0.149257 0
-0.223640 0.139418 0
-0.226160 0.126463 0
-0.225990 0.111654 0
-0.223947 0.096151 0
-0.220736 0.080884 0
-0.216899 0.066497 0
-0.212832 0.053349 0
-0.208812 0.041569 0
-0.205017 0.031103 0
-0.201555 0.021774 0
-0.198472 0.013325 0
-0.195767 0.005451 0
-0.193411 -0.002171 0
-0.191372 -0.009883 0
-0.189417 -0.018106 0
-0.187413 -0.027253 0
-0.185160 -0.037663 0
-0.182445 -0.049655 0
-0.179054 -0.063478 0
-0.174804 -0.079302 0
-0.169569 -0.097201 0
-0.163268 -0.117121 0
-0.155813 -0.138774 0
-0.146982 -0.161398 0
-0.136201 -0.183240 0
-0.122233 -0.200487 0
-0.102907 -0.205273 0
-0.075393 -0.182311 0
-0.038304 -0.104854 0
-0.000061 0.000009 0
0.000000 0.024169 0
0.000000 -0.000002 0
-0.031713 -0.011934 0
-0.064771 0.031515 0
-0.092480 0.073298 0
-0.117742 0.108815 0
-0.140333 0.136361 0
-0.160057 0.155116 0
-0.176392 0.165372 0
-0.188889 0.167879 0
-0.197350 0.163741 0
-0.201946 0.154309 0
-0.203072 0.141038 0
-0.201384 0.125365 0
-0.197646 0.108620 0
-0.192576 0.091893 0
-0.186784 0.075985 0
-0.180755 0.061396 0
-0.174859 0.048368 0
-0.169370 0.036929 0
-0.164480 0.026945 0
-0.160300 0.018171 0
-0.156875 0.010295 0
-0.154193 0.002969 0
-0.152193 -0.004147 0
-0.150837 -0.011490 0
-0.149893 -0.019535 0
-0.149194 -0.028683 0
-0.148518 -0.039314 0
-0.147609 -0.051757 0
-0.146193 -0.066244 0
-0.144039 -0.082890 0
-0.141011 -0.101698 0
-0.137068 -0.122575 0
-0.132193 -0.145287 0
-0.126288 -0.169309 0
-0.118942 -0.193420 0
-0.109052 -0.214711 0
-0.094358 -0.226334 0
-0.071419 -0.212903 0
-0.037576 -0.142110 0
-0.000077 0.000010 0
0.000000 0.043481 0
0.000000 -0.000004 0
-0.033739 0.021519 0
-0.066016 0.062078 0
-0.094192 0.100078 0
-0.118587 0.132156 0
-0.138999 0.156115 0
-0.155390 0.171112 0
-0.167652 0.177397 0
-0.175784 0.175866 0
-0.179964 0.167864 0
-0.180598 0.154979 0
-0.178247 0.138855 0
-0.173592 0.121037 0
-0.167318 0.102846 0
-0.160048 0.085290 0
-0.152317 0.069064 0
-0.144583 0.054571 0
-0.137231 0.041964 0
-0.130576 0.031190 0
-0.124850 0.022033 0
-0.120187 0.014169 0
-0.116630 0.007217 0
-0.114159 0.000769 0
-0.112720 -0.005527 0
-0.112189 -0.012183 0
-0.112358 -0.019749 0
-0.113044 -0.028627 0
-0.114011 -0.039248 0
-0.114942 -0.051980 0
-0.115460 -0.067047 0
-0.115236 -0.084483 0
-0.114090 -0.104173 0
-0.111999 -0.125940 0
-0.108996 -0.149553 0
-0.105089 -0.174649 0
-0.100070 -0.200476 0
-0.093142 -0.225071 0
-0.082313 -0.242906 0
-0.064009 -0.239092 0
-0.034665 -0.176273 0
-0.000087 0.000011 0
0.000000 0.061747 0
0.000000 -0.000005 0
-0.031445 0.054081 0
-0.062364 0.091968 0
-0.089292 0.125869 0
-0.111871 0.153622 0
-0.129894 0.173164 0
-0.143389 0.183769 0
-0.152468 0.185765 0
-0.157380 0.180190 0
-0.158521 0.168556 0
-0.156426 0.152592 0
-0.151706 0.134032 0
-0.145002 0.114436 0
-0.136910 0.095075 0
-0.127969 0.076892 0
-0.118674 0.060520 0
-0.109498 0.046310 0
-0.100891 0.034361 0
-0.093255 0.024548 0
-0.086899 0.016556 0
-0.081987 0.009952 0
-0.078539 0.004267 0
-0.076499 -0.000940 0
-0.075820 -0.006117 0
-0.076198 -0.011853 0
-0.077496 -0.018680 0
-0.079549 -0.027029 0
-0.082144 -0.037416 0
-0.084911 -0.050308 0
-0.087323 -0.065950 0
-0.088902 -0.084259 0
-0.089409 -0.104935 0
-0.088844 -0.127669 0
-0.087285 -0.152197 0
-0.084815 -0.178235 0
-0.081398 -0.205367 0
-0.076583 -0.232468 0
-0.068856 -0.255466 0
-0.054895 -0.260551 0
-0.030549 -0.206119 0
-0.000089 0.000012 0
0.000000 0.078147 0
0.000000 -0.000005 0
-0.027476 0.083883 0
-0.055806 0.119925 0
-0.080319 0.149585 0
-0.100469 0.172759 0
-0.116011 0.187633 0
-0.126984 0.193685 0
-0.133593 0.191387 0
-0.136199 0.181919 0
-0.135286 0.166910 0
-0.131416 0.148164 0
-0.125171 0.127432 0
-0.117108 0.106241 0
-0.107730 0.085812 0
-0.097505 0.067054 0
-0.086912 0.050593 0
-0.076477 0.036788 0
-0.066770 0.025721 0
-0.058333 0.017197 0
-0.051628 0.010765 0
-0.046844 0.005809 0
-0.043907 0.001728 0
-0.042630 -0.001951 0
-0.042808 -0.005827 0
-0.044103 -0.010507 0
-0.046412 -0.016398 0
-0.049625 -0.023980 0
-0.053637 -0.033886 0
-0.058079 -0.046800 0
-0.062223 -0.063056 0
-0.065389 -0.082398 0
-0.067282 -0.104231 0
-0.067956 -0.128064 0
-0.067544 -0.153583 0
-0.066187 -0.180536 0
-0.063961 -0.208708 0
-0.060706 -0.237613 0
-0.055432 -0.264594 0
-0.045324 -0.277399 0
-0.025968 -0.231167 0
-0.000086 0.000012 0
0.000000 0.092297 0
0.000000 -0.000006 0
-0.022943 0.109887 0
-0.047676 0.144811 0
-0.069079 0.170532 0
-0.086458 0.189314 0
-0.099530 0.199679 0
-0.108311 0.201351 0
-0.113022 0.194981 0
-0.114040 0.181884 0
-0.111842 0.163772 0
-0.106946 0.142477 0
-0.099852 0.119725 0
-0.091011 0.096994 0
-0.080825 0.075471 0
-0.069695 0.056075 0
-0.058078 0.039493 0
-0.046558 0.026168 0
-0.035909 0.016217 0
-0.026888 0.009406 0
-0.020209 0.005067 0
-0.016020 0.002231 0
-0.014044 0.000053 0
-0.013904 -0.002039 0
-0.015116 -0.004644 0
-0.017376 -0.008250 0
-0.020542 -0.013157 0
-0.024559 -0.019804 0
-0.029547 -0.028963 0
-0.035244 -0.041722 0
-0.040717 -0.058639 0
-0.045050 -0.079200 0
-0.047936 -0.102368 0
-0.049507 -0.127407 0
-0.049964 -0.153967 0
-0.049489 -0.181818 0
-0.048230 -0.210847 0
-0.046212 -0.240998 0
-0.042897 -0.270849 0
-0.036095 -0.290016 0
-0.021408 -0.251442 0
-0.000080 0.000012 0
0.000000 0.104115 0
0.000000 -0.000006 0
-0.018103 0.131559 0
-0.038784 0.166060 0
-0.056756 0.188367 0
-0.071240 0.203210 0
-0.081938 0.209487 0
-0.088831 0.207178 0
-0.092110 0.197116 0
-0.092110 0.180739 0
-0.089245 0.159815 0
-0.083944 0.136173 0
-0.076600 0.111496 0
-0.067549 0.087214 0
-0.057094 0.064497 0
-0.045543 0.044307 0
-0.033271 0.027456 0
-0.020846 0.014619 0
-0.009204 0.006051 0
-0.000528 0.001498 0
0.005112 -0.000102 0
0.008080 -0.000356 0
0.008871 -0.000388 0
0.007985 -0.000879 0
0.005878 -0.002355 0
0.002803 -0.005081 0
-0.001002 -0.009216 0
-0.005541 -0.014974 0
-0.011038 -0.023202 0
-0.017301 -0.035630 0
-0.023390 -0.053250 0
-0.028193 -0.075178 0
-0.031515 -0.099774 0
-0.033559 -0.126036 0
-0.034575 -0.153600 0
-0.034771 -0.182270 0
-0.034325 -0.211985 0
-0.033358 -0.242945 0
-0.031657 -0.274711 0
-0.027642 -0.298889 0
-0.017152 -0.267262 0
-0.000071 0.000011 0
0.000000 0.113705 0
0.000000 -0.000006 0
-0.013142 0.148671 0
-0.029623 0.183463 0
-0.044087 0.202989 0
-0.055703 0.214496 0
-0.064177 0.217270 0
-0.069462 0.211523 0
-0.071697 0.198260 0
-0.071144 0.179019 0
-0.068128 0.155606 0
-0.062970 0.129831 0
-0.055951 0.103330 0
-0.047297 0.077488 0
-0.037202 0.053464 0
-0.025834 0.032253 0
-0.013240 0.014796 0
-0.000530 0.002101 0
0.009234 -0.004101 0
0.015809 -0.004910 0
0.019864 -0.003541 0
0.021864 -0.001528 0
0.022071 0.000149 0
0.020849 0.000953 0
0.018497 0.000537 0
0.015204 -0.001370 0
0.011130 -0.004814 0
0.006383 -0.009768 0
0.001036 -0.017202 0
-0.004855 -0.029370 0
-0.010565 -0.047747 0
-0.014916 -0.071075 0
-0.017999 -0.097003 0
-0.020043 -0.124347 0
-0.021293 -0.152755 0
-0.021942 -0.182068 0
-0.022178 -0.212260 0
-0.022142 -0.243665 0
-0.021814 -0.276565 0
-0.020140 -0.304521 0
-0.013331 -0.279084 0
-0.000063 0.000011 0
0.000000 0.121266 0
0.000000 -0.000006 0
-0.008191 0.161182 0
-0.020487 0.197005 0
-0.031502 0.214447 0
-0.040358 0.223299 0
-0.046784 0.223246 0
-0.050711 0.214698 0
-0.052222 0.198799 0
-0.051499 0.177170 0
-0.048769 0.151641 0
-0.044248 0.123996 0
-0.038112 0.095824 0
-0.030484 0.068465 0
-0.021433 0.043034 0
-0.010935 0.020346 0
0.000883 0.002152 0
0.010084 -0.007856 0
0.015824 -0.010289 0
0.019986 -0.009131 0
0.022955 -0.006157 0
0.024737 -0.002563 0
0.025173 0.000627 0
0.024293 0.002694 0
0.022317 0.003290 0
0.019434 0.002286 0
0.015742 -0.000395 0
0.011386 -0.004880 0
0.006717 -0.011964 0
0.002035 -0.024029 0
-0.001941 -0.043188 0
-0.004926 -0.067745 0
-0.007126 -0.094648 0
-0.008733 -0.122742 0
-0.009918 -0.151701 0
-0.010823 -0.181384 0
-0.011619 -0.211785 0
-0.012419 -0.243309 0
-0.013293 -0.276713 0
-0.013592 -0.307372 0
-0.009975 -0.287402 0
-0.000054 0.000011 0
0.000000 0.127035 0
0.000000 -0.000005 0
-0.003366 0.169158 0
-0.011525 0.206774 0
-0.019222 0.222860 0
-0.025461 0.229778 0
-0.030007 0.227623 0
-0.032781 0.216961 0
-0.033818 0.199048 0
-0.033226 0.175566 0
-0.031140 0.148355 0
-0.027688 0.119174 0
-0.022959 0.089566 0
-0.016998 0.060809 0
-0.009771 0.033915 0
-0.001005 0.009937 0
0.006508 -0.006222 0
0.010672 -0.012840 0
0.013760 -0.014003 0
0.016305 -0.012040 0
0.018424 -0.008293 0
0.020024 -0.003747 0
0.020836 0.000594 0
0.020606 0.003810 0
0.019398 0.005396 0
0.017339 0.005206 0
0.014578 0.003234 0
0.011243 -0.000743 0
0.007717 -0.007851 0
0.004919 -0.020712 0
0.003480 -0.040786 0
0.002494 -0.065890 0
0.001614 -0.093196 0
0.000750 -0.121555 0
-0.000145 -0.150664 0
-0.001169 -0.180367 0
-0.002421 -0.210664 0
-0.003977 -0.241991 0
-0.005924 -0.275391 0
-0.007909 -0.307838 0
-0.007055 -0.292677 0
-0.000047 0.000010 0
0.000000 0.131241 0
0.000000 -0.000005 0
0.001139 0.172707 0
-0.002833 0.212861 0
-0.007333 0.228383 0
-0.011094 0.234084 0
-0.013899 0.230566 0
-0.015670 0.218509 0
-0.016405 0.199243 0
-0.016151 0.174492 0
-0.014973 0.146103 0
-0.012927 0.115815 0
-0.010044 0.085134 0
-0.006314 0.055278 0
-0.001695 0.027040 0
0.003167 0.004066 0
0.005311 -0.009524 0
0.006625 -0.015107 0
0.007730 -0.015922 0
0.008854 -0.013796 0
0.010091 -0.009877 0
0.011369 -0.004975 0
0.012437 0.000046 0
0.012891 0.004132 0
0.012620 0.006557 0
0.011637 0.007107 0
0.010054 0.005701 0
0.008143 0.001980 0
0.006485 -0.005640 0
0.006292 -0.019792 0
0.007388 -0.040763 0
0.008421 -0.065878 0
0.008915 -0.092904 0
0.008884 -0.120983 0
0.008364 -0.149782 0
0.007302 -0.179109 0
0.005665 -0.208978 0
0.003411 -0.239806 0
0.000504 -0.272782 0
-0.002947 -0.306241 0
-0.004505 -0.295310 0
-0.000042 0.000010 0
0.000000 0.134089 0
0.000000 -0.000004 0
0.005300 0.171990 0
0.005492 0.215246 0
0.004103 0.231122 0
0.002717 0.236345 0
0.001581 0.232198 0
0.000759 0.219467 0
0.000266 0.199529 0
0.000096 0.174134 0
0.000235 0.145131 0
0.000671 0.114246 0
0.001396 0.082953 0
0.002397 0.052459 0
0.003500 0.024434 0
0.003253 0.002931 0
0.002036 -0.009680 0
0.001124 -0.015259 0
0.000488 -0.016232 0
0.000280 -0.014401 0
0.000593 -0.010807 0
0.001406 -0.006093 0
0.002553 -0.000928 0
0.003666 0.003627 0
0.004365 0.006650 0
0.004573 0.007771 0
0.004395 0.006728 0
0.004251 0.002826 0
0.005157 -0.006000 0
0.007917 -0.021615 0
0.011247 -0.042915 0
0.013871 -0.067417 0
0.015513 -0.093660 0
0.016225 -0.121004 0
0.016040 -0.149081 0
0.014947 -0.177668 0
0.012931 -0.206774 0
0.009988 -0.236831 0
0.006130 -0.269033 0
0.001432 -0.302829 0
-0.002240 -0.295624 0
-0.000038 0.000010 0
0.000000 0.135745 0
0.000000 -0.000004 0
0.009211 0.167215 0
0.013418 0.214057 0
0.015058 0.231158 0
0.015973 0.236606 0
0.016488 0.232524 0
0.016642 0.219824 0
0.016440 0.199906 0
0.015894 0.174523 0
0.015019 0.145528 0
0.013829 0.114654 0
0.012307 0.083408 0
0.010358 0.053174 0
0.007605 0.026184 0
0.003376 0.005530 0
-0.000823 -0.007395 0
-0.003785 -0.013559 0
-0.005950 -0.015077 0
-0.007323 -0.013901 0
-0.007891 -0.011003 0
-0.007655 -0.006935 0
-0.006661 -0.002214 0
-0.005104 0.002320 0
-0.003501 0.005650 0
-0.002029 0.007077 0
-0.000561 0.006022 0
0.001586 0.001218 0
0.005597 -0.009306 0
0.010865 -0.025882 0
0.015767 -0.046717 0
0.019527 -0.070144 0
0.022030 -0.095258 0
0.023298 -0.121510 0
0.023332 -0.148504 0
0.022123 -0.176000 0
0.019672 -0.204019 0
0.016005 -0.233005 0
0.011165 -0.264226 0
0.005304 -0.297871 0
-0.000183 -0.293878 0
-0.000035 0.000009 0
0.000000 0.136328 0
0.000000 -0.000003 0
0.012842 0.158573 0
0.020934 0.209398 0
0.025545 0.228567 0
0.028697 0.234914 0
0.030855 0.231529 0
0.032046 0.219515 0
0.032255 0.200277 0
0.031491 0.175555 0
0.029787 0.147196 0
0.027176 0.116958 0
0.023648 0.086424 0
0.019095 0.057162 0
0.013241 0.031416 0
0.006191 0.011358 0
-0.000878 -0.002520 0
-0.006209 -0.010132 0
-0.009799 -0.012694 0
-0.012172 -0.012460 0
-0.013521 -0.010476 0
-0.013873 -0.007323 0
-0.013211 -0.003479 0
-0.011572 0.000466 0
-0.009221 0.003575 0
-0.006415 0.004831 0
-0.002919 0.003112 0
0.002195 -0.003332 0
0.008826 -0.015279 0
0.015594 -0.031785 0
0.021407 -0.051577 0
0.025886 -0.073680 0
0.028936 -0.097430 0
0.030513 -0.122306 0
0.030576 -0.147907 0
0.029106 -0.174008 0
0.026121 -0.200656 0
0.021670 -0.228324 0
0.015837 -0.258332 0
0.008781 -0.291482 0
0.001735 -0.290320 0
-0.000034 0.000009 0
0.000000 0.135927 0
0.000000 -0.000002 0
0.016106 0.146282 0
0.027934 0.201355 0
0.035489 0.223395 0
0.040845 0.231296 0
0.044657 0.229174 0
0.046982 0.218424 0
0.047783 0.200461 0
0.047058 0.176991 0
0.044850 0.149843 0
0.041219 0.120793 0
0.036201 0.091489 0
0.029772 0.063582 0
0.021908 0.039089 0
0.013112 0.019649 0
0.004237 0.005004 0
-0.003856 -0.004639 0
-0.009323 -0.009115 0
-0.012709 -0.010179 0
-0.014762 -0.009302 0
-0.015596 -0.007245 0
-0.015208 -0.004515 0
-0.013552 -0.001670 0
-0.010574 0.000494 0
-0.006312 0.000774 0
-0.000420 -0.002588 0
0.007012 -0.010527 0
0.014908 -0.022705 0
0.022266 -0.038463 0
0.028494 -0.057009 0
0.033321 -0.077673 0
0.036590 -0.099884 0
0.038187 -0.123149 0
0.038040 -0.147098 0
0.036124 -0.171545 0
0.032466 -0.196582 0
0.027140 -0.222720 0
0.020258 -0.251337 0
0.012013 -0.283769 0
0.003537 -0.285097 0
-0.000032 0.000008 0
0.000000 0.134592 0
0.000000 -0.000001 0
0.018858 0.130638 0
0.034217 0.190015 0
0.044705 0.215657 0
0.052275 0.225747 0
0.057787 0.225392 0
0.061374 0.216389 0
0.062995 0.200201 0
0.062635 0.178488 0
0.060344 0.153034 0
0.056217 0.125607 0
0.050362 0.097872 0
0.042892 0.071455 0
0.034025 0.048076 0
0.024430 0.029029 0
0.014907 0.014448 0
0.005581 0.003428 0
-0.002182 -0.003842 0
-0.007344 -0.007021 0
-0.010203 -0.007588 0
-0.011405 -0.006877 0
-0.011087 -0.005524 0
-0.009172 -0.004168 0
-0.005481 -0.003664 0
0.000106 -0.005322 0
0.007432 -0.010212 0
0.015548 -0.018660 0
0.023651 -0.030533 0
0.031053 -0.045371 0
0.037306 -0.062631 0
0.042110 -0.081776 0
0.045238 -0.102296 0
0.046534 -0.123757 0
0.045905 -0.145844 0
0.043326 -0.168434 0
0.038833 -0.191671 0
0.032520 -0.216116 0
0.024528 -0.243205 0
0.015075 -0.274760 0
0.005225 -0.278307 0
-0.000032 0.000008 0
0.000000 0.132389 0
0.000000 -0.000001 0
0.020899 0.112064 0
0.039468 0.175508 0
0.052867 0.205338 0
0.062721 0.218214 0
0.070030 0.220075 0
0.075043 0.213215 0
0.077741 0.199200 0
0.078104 0.179643 0
0.076189 0.156262 0
0.072128 0.130775 0
0.066109 0.104814 0
0.058372 0.079919 0
0.049297 0.057550 0
0.039580 0.038767 0
0.029988 0.023853 0
0.020991 0.012451 0
0.012577 0.003811 0
0.005783 -0.002159 0
0.001542 -0.005240 0
-0.000300 -0.006360 0
-0.000106 -0.006748 0