# vtk DataFile Version 2.0
generated by CFD-lab course output (written by Tobias Neckel) 
ASCII

DATASET STRUCTURED_GRID
DIMENSIONS  42 42 1 
POINTS 1764 float

0.150000 0.150000 0
0.167857 0.150000 0
0.185714 0.150000 0
0.203571 0.150000 0
0.221429 0.150000 0
0.239286 0.150000 0
0.257143 0.150000 0
0.275000 0.150000 0
0.292857 0.150000 0
0.310714 0.150000 0
0.328571 0.150000 0
0.346429 0.150000 0
0.364286 0.150000 0
0.382143 0.150000 0
0.400000 0.150000 0
0.417857 0.150000 0
0.435714 0.150000 0
0.453571 0.150000 0
0.471429 0.150000 0
0.489286 0.150000 0
0.507143 0.150000 0
0.525000 0.150000 0
0.542857 0.150000 0
0.560714 0.150000 0
0.578571 0.150000 0
0.596429 0.150000 0
0.614286 0.150000 0
0.632143 0.150000 0
0.650000 0.150000 0
0.667857 0.150000 0
0.685714 0.150000 0
0.703571 0.150000 0
0.721429 0.150000 0
0.739286 0.150000 0
0.757143 0.150000 0
0.775000 0.150000 0
0.792857 0.150000 0
0.810714 0.150000 0
0.828571 0.150000 0
0.846429 0.150000 0
0.864286 0.150000 0
0.882143 0.150000 0
0.150000 0.167857 0
0.167857 0.167857 0
0.185714 0.167857 0
0.203571 0.167857 0
0.221429 0.167857 0
0.239286 0.167857 0
0.257143 0.167857 0
0.275000 0.167857 0
0.292857 0.167857 0
0.310714 0.167857 0
0.328571 0.167857 0
0.346429 0.167857 0
0.364286 0.167857 0
0.382143 0.167857 0
0.400000 0.167857 0
0.417857 0.167857 0
0.435714 0.167857 0
0.453571 0.167857 0
0.471429 0.167857 0
0.489286 0.167857 0
0.507143 0.167857 0
0.525000 0.167857 0
0.542857 0.167857 0
0.560714 0.167857 0
0.578571 0.167857 0
0.596429 0.167857 0
0.614286 0.167857 0
0.632143 0.167857 0
0.650000 0.167857 0
0.667857 0.167857 0
0.685714 0.167857 0
0.703571 0.167857 0
0.721429 0.167857 0
0.739286 0.167857 0
0.757143 0.167857 0
0.775000 0.167857 0
0.792857 0.167857 0
0.810714 0.167857 0
0.828571 0.167857 0
0.846429 0.167857 0
0.864286 0.167857 0
0.882143 0.167857 0
0.150000 0.185714 0
0.167857 0.185714 0
0.185714 0.185714 0
0.203571 0.185714 0
0.221429 0.185714 0
0.239286 0.185714 0
0.257143 0.185714 0
0.275000 0.185714 0
0.292857 0.185714 0
0.310714 0.185714 0
0.328571 0.185714 0
0.346429 0.185714 0
0.364286 0.185714 0
0.382143 0.185714 0
0.400000 0.185714 0
0.417857 0.185714 0
0.435714 0.185714 0
0.453571 0.185714 0
0.471429 0.185714 0
0.489286 0.185714 0
0.507143 0.185714 0
0.525000 0.185714 0
0.542857 0.185714 0
0.560714 0.185714 0
0.578571 0.185714 0
0.596429 0.185714 0
0.614286 0.185714 0
0.632143 0.185714 0
0.650000 0.185714 0
0.667857 0.185714 0
0.685714 0.185714 0
0.703571 0.185714 0
0.721429 0.185714 0
0.739286 0.185714 0
0.757143 0.185714 0
0.775000 0.185714 0
0.792857 0.185714 0
0.810714 0.185714 0
0.828571 0.185714 0
0.846429 0.185714 0
0.864286 0.185714 0
0.882143 0.185714 0
0.150000 0.203571 0
0.167857 0.203571 0
0.185714 0.203571 0
0.203571 0.203571 0
0.221429 0.203571 0
0.239286 0.203571 0
0.257143 0.203571 0
0.275000 0.203571 0
0.292857 0.203571 0
0.310714 0.203571 0
0.328571 0.203571 0
0.346429 0.203571 0
0.364286 0.203571 0
0.382143 0.203571 0
0.400000 0.203571 0
0.417857 0.203571 0
0.435714 0.203571 0
0.453571 0.203571 0
0.471429 0.203571 0
0.489286 0.203571 0
0.507143 0.203571 0
0.525000 0.203571 0
0.542857 0.203571 0
0.560714 0.203571 0
0.578571 0.203571 0
0.596429 0.203571 0
0.614286 0.203571 0
0.632143 0.203571 0
0.650000 0.203571 0
0.667857 0.203571 0
0.685714 0.203571 0
0.703571 0.203571 0
0.721429 0.203571 0
0.739286 0.203571 0
0.757143 0.203571 0
0.775000 0.203571 0
0.792857 0.203571 0
0.810714 0.203571 0
0.828571 0.203571 0
0.846429 0.203571 0
0.864286 0.203571 0
0.882143 0.203571 0
0.150000 0.221429 0
0.167857 0.221429 0
0.185714 0.221429 0
0.203571 0.221429 0
0.221429 0.221429 0
0.239286 0.221429 0
0.257143 0.221429 0
0.275000 0.221429 0
0.292857 0.221429 0
0.310714 0.221429 0
0.328571 0.221429 0
0.346429 0.221429 0
0.364286 0.221429 0
0.382143 0.221429 0
0.400000 0.221429 0
0.417857 0.221429 0
0.435714 0.221429 0
0.453571 0.221429 0
0.471429 0.221429 0
0.489286 0.221429 0
0.507143 0.221429 0
0.525000 0.221429 0
0.542857 0.221429 0
0.560714 0.221429 0
0.578571 0.221429 0
0.596429 0.221429 0
0.614286 0.221429 0
0.632143 0.221429 0
0.650000 0.221429 0
0.667857 0.221429 0
0.685714 0.221429 0
0.703571 0.221429 0
0.721429 0.221429 0
0.739286 0.221429 0
0.757143 0.221429 0
0.775000 0.221429 0
0.792857 0.221429 0
0.810714 0.221429 0
0.828571 0.221429 0
0.846429 0.221429 0
0.864286 0.221429 0
0.882143 0.221429 0
0.150000 0.239286 0
0.167857 0.239286 0
0.185714 0.239286 0
0.203571 0.239286 0
0.221429 0.239286 0
0.239286 0.239286 0
0.257143 0.239286 0
0.275000 0.239286 0
0.292857 0.239286 0
0.310714 0.239286 0
0.328571 0.239286 0
0.346429 0.239286 0
0.364286 0.239286 0
0.382143 0.239286 0
0.400000 0.239286 0
0.417857 0.239286 0
0.435714 0.239286 0
0.453571 0.239286 0
0.471429 0.239286 0
0.489286 0.239286 0
0.507143 0.239286 0
0.525000 0.239286 0
0.542857 0.239286 0
0.560714 0.239286 0
0.578571 0.239286 0
0.596429 0.239286 0
0.614286 0.239286 0
0.632143 0.239286 0
0.650000 0.239286 0
0.667857 0.239286 0
0.685714 0.239286 0
0.703571 0.239286 0
0.721429 0.239286 0
0.739286 0.239286 0
0.757143 0.239286 0
0.775000 0.239286 0
0.792857 0.239286 0
0.810714 0.239286 0
0.828571 0.239286 0
0.846429 0.239286 0
0.864286 0.239286 0
0.882143 0.239286 0
0.150000 0.257143 0
0.167857 0.257143 0
0.185714 0.257143 0
0.203571 0.257143 0
0.221429 0.257143 0
0.239286 0.257143 0
0.257143 0.257143 0
0.275000 0.257143 0
0.292857 0.257143 0
0.310714 0.257143 0
0.328571 0.257143 0
0.346429 0.257143 0
0.364286 0.257143 0
0.382143 0.257143 0
0.400000 0.257143 0
0.417857 0.257143 0
0.435714 0.257143 0
0.453571 0.257143 0
0.471429 0.257143 0
0.489286 0.257143 0
0.507143 0.257143 0
0.525000 0.257143 0
0.542857 0.257143 0
0.560714 0.257143 0
0.578571 0.257143 0
0.596429 0.257143 0
0.614286 0.257143 0
0.632143 0.257143 0
0.650000 0.257143 0
0.667857 0.257143 0
0.685714 0.257143 0
0.703571 0.257143 0
0.721429 0.257143 0
0.739286 0.257143 0
0.757143 0.257143 0
0.775000 0.257143 0
0.792857 0.257143 0
0.810714 0.257143 0
0.828571 0.257143 0
0.846429 0.257143 0
0.864286 0.257143 0
0.882143 0.257143 0
0.150000 0.275000 0
0.167857 0.275000 0
0.185714 0.275000 0
0.203571 0.275000 0
0.221429 0.275000 0
0.239286 0.275000 0
0.257143 0.275000 0
0.275000 0.275000 0
0.292857 0.275000 0
0.310714 0.275000 0
0.328571 0.275000 0
0.346429 0.275000 0
0.364286 0.275000 0
0.382143 0.275000 0
0.400000 0.275000 0
0.417857 0.275000 0
0.435714 0.275000 0
0.453571 0.275000 0
0.471429 0.275000 0
0.489286 0.275000 0
0.507143 0.275000 0
0.525000 0.275000 0
0.542857 0.275000 0
0.560714 0.275000 0
0.578571 0.275000 0
0.596429 0.275000 0
0.614286 0.275000 0
0.632143 0.275000 0
0.650000 0.275000 0
0.667857 0.275000 0
0.685714 0.275000 0
0.703571 0.275000 0
0.721429 0.275000 0
0.739286 0.275000 0
0.757143 0.275000 0
0.775000 0.275000 0
0.792857 0.275000 0
0.810714 0.275000 0
0.828571 0.275000 0
0.846429 0.275000 0
0.864286 0.275000 0
0.882143 0.275000 0
0.150000 0.292857 0
0.167857 0.292857 0
0.185714 0.292857 0
0.203571 0.292857 0
0.221429 0.292857 0
0.239286 0.292857 0
0.257143 0.292857 0
0.275000 0.292857 0
0.292857 0.292857 0
0.310714 0.292857 0
0.328571 0.292857 0
0.346429 0.292857 0
0.364286 0.292857 0
0.382143 0.292857 0
0.400000 0.292857 0
0.417857 0.292857 0
0.435714 0.292857 0
0.453571 0.292857 0
0.471429 0.292857 0
0.489286 0.292857 0
0.507143 0.292857 0
0.525000 0.292857 0
0.542857 0.292857 0
0.560714 0.292857 0
0.578571 0.292857 0
0.596429 0.292857 0
0.614286 0.292857 0
0.632143 0.292857 0
0.650000 0.292857 0
0.667857 0.292857 0
0.685714 0.292857 0
0.703571 0.292857 0
0.721429 0.292857 0
0.739286 0.292857 0
0.757143 0.292857 0
0.775000 0.292857 0
0.792857 0.292857 0
0.810714 0.292857 0
0.828571 0.292857 0
0.846429 0.292857 0
0.864286 0.292857 0
0.882143 0.292857 0
0.150000 0.310714 0
0.167857 0.310714 0
0.185714 0.310714 0
0.203571 0.310714 0
0.221429 0.310714 0
0.239286 0.310714 0
0.257143 0.310714 0
0.275000 0.310714 0
0.292857 0.310714 0
0.310714 0.310714 0
0.328571 0.310714 0
0.346429 0.310714 0
0.364286 0.310714 0
0.382143 0.310714 0
0.400000 0.310714 0
0.417857 0.310714 0
0.435714 0.310714 0
0.453571 0.310714 0
0.471429 0.310714 0
0.489286 0.310714 0
0.507143 0.310714 0
0.525000 0.310714 0
0.542857 0.310714 0
0.560714 0.310714 0
0.578571 0.310714 0
0.596429 0.310714 0
0.614286 0.310714 0
0.632143 0.310714 0
0.650000 0.310714 0
0.667857 0.310714 0
0.685714 0.310714 0
0.703571 0.310714 0
0.721429 0.310714 0
0.739286 0.310714 0
0.757143 0.310714 0
0.775000 0.310714 0
0.792857 0.310714 0
0.810714 0.310714 0
0.828571 0.310714 0
0.846429 0.310714 0
0.864286 0.310714 0
0.882143 0.310714 0
0.150000 0.328571 0
0.167857 0.328571 0
0.185714 0.328571 0
0.203571 0.328571 0
0.221429 0.328571 0
0.239286 0.328571 0
0.257143 0.328571 0
0.275000 0.328571 0
0.292857 0.328571 0
0.310714 0.328571 0
0.328571 0.328571 0
0.346429 0.328571 0
0.364286 0.328571 0
0.382143 0.328571 0
0.400000 0.328571 0
0.417857 0.328571 0
0.435714 0.328571 0
0.453571 0.328571 0
0.471429 0.328571 0
0.489286 0.328571 0
0.507143 0.328571 0
0.525000 0.328571 0
0.542857 0.328571 0
0.560714 0.328571 0
0.578571 0.328571 0
0.596429 0.328571 0
0.614286 0.328571 0
0.632143 0.328571 0
0.650000 0.328571 0
0.667857 0.328571 0
0.685714 0.328571 0
0.703571 0.328571 0
0.721429 0.328571 0
0.739286 0.328571 0
0.757143 0.328571 0
0.775000 0.328571 0
0.792857 0.328571 0
0.810714 0.328571 0
0.828571 0.328571 0
0.846429 0.328571 0
0.864286 0.328571 0
0.882143 0.328571 0
0.150000 0.346429 0
0.167857 0.346429 0
0.185714 0.346429 0
0.203571 0.346429 0
0.221429 0.346429 0
0.239286 0.346429 0
0.257143 0.346429 0
0.275000 0.346429 0
0.292857 0.346429 0
0.310714 0.346429 0
0.328571 0.346429 0
0.346429 0.346429 0
0.364286 0.346429 0
0.382143 0.346429 0
0.400000 0.346429 0
0.417857 0.346429 0
0.435714 0.346429 0
0.453571 0.346429 0
0.471429 0.346429 0
0.489286 0.346429 0
0.507143 0.346429 0
0.525000 0.346429 0
0.542857 0.346429 0
0.560714 0.346429 0
0.578571 0.346429 0
0.596429 0.346429 0
0.614286 0.346429 0
0.632143 0.346429 0
0.650000 0.346429 0
[...]
POINT_DATA 1764 

VECTORS velocity float
0.000000 0.000000 0
-0.000002 0.000000 0
-0.000003 0.000000 0
-0.000003 0.000000 0
-0.000003 0.000000 0
-0.000002 0.000000 0
-0.000002 0.000000 0
-0.000001 0.000000 0
-0.000001 0.000000 0
-0.000003 0.000000 0
-0.000001 0.000000 0
0.000002 0.000000 0
0.000004 0.000000 0
0.000005 0.000000 0
0.000006 0.000000 0
0.000007 0.000000 0
0.000007 0.000000 0
0.000008 0.000000 0
0.000008 0.000000 0
0.000008 0.000000 0
0.000008 0.000000 0
0.000009 0.000000 0
0.000009 0.000000 0
0.000009 0.000000 0
0.000009 0.000000 0
0.000009 0.000000 0
0.000009 0.000000 0
0.000009 0.000000 0
0.000009 0.000000 0
0.000009 0.000000 0
0.000009 0.000000 0
0.000009 0.000000 0
0.000009 0.000000 0
0.000008 0.000000 0
0.000008 0.000000 0
0.000007 0.000000 0
0.000005 0.000000 0
0.000003 0.000000 0
-0.000000 0.000000 0
-0.000001 0.000000 0
-0.000000 0.000000 0
0.000000 0.000000 0
0.000000 0.000002 0
0.022480 -0.021065 0
0.044334 -0.015716 0
0.054629 -0.004102 0
0.054409 0.004633 0
0.047226 0.008318 0
0.038538 0.006994 0
0.034583 0.004598 0
0.026903 -0.002269 0
0.010134 -0.008403 0
-0.011351 0.004208 0
-0.038435 0.023042 0
-0.070218 0.031154 0
-0.103181 0.032986 0
-0.135159 0.032371 0
-0.164840 0.030431 0
-0.191467 0.027669 0
-0.214694 0.024520 0
-0.234459 0.021274 0
-0.250874 0.018106 0
-0.264144 0.015104 0
-0.274493 0.012291 0
-0.282129 0.009646 0
-0.287199 0.007101 0
-0.289769 0.004558 0
-0.289803 0.001902 0
-0.287186 -0.000997 0
-0.281757 -0.004254 0
-0.273246 -0.007905 0
-0.261293 -0.011970 0
-0.245469 -0.016522 0
-0.225290 -0.021599 0
-0.200275 -0.027147 0
-0.170050 -0.032952 0
-0.134556 -0.038496 0
-0.094425 -0.042733 0
-0.051691 -0.043477 0
-0.011104 -0.033085 0
0.017651 -0.005570 0
0.015818 0.016867 0
-0.000004 -0.000001 0
0.000000 -0.010654 0
0.000000 0.000003 0
0.023043 -0.044334 0
0.041724 -0.032149 0
0.049851 -0.010076 0
0.049020 0.007403 0
0.041606 0.015871 0
0.028699 0.012643 0
0.008843 0.011635 0
-0.018201 0.024449 0
-0.058987 0.038254 0
-0.104206 0.048568 0
-0.140188 0.058866 0
-0.171595 0.064746 0
-0.200439 0.064942 0
-0.226418 0.061660 0
-0.249039 0.056308 0
-0.268174 0.049854 0
-0.283893 0.042992 0
-0.296398 0.036180 0
-0.305958 0.029685 0
-0.312852 0.023619 0
-0.317334 0.017985 0
-0.319607 0.012706 0
-0.319799 0.007641 0
-0.317978 0.002604 0
-0.314125 -0.002583 0
-0.308247 -0.008047 0
-0.300217 -0.013940 0
-0.289848 -0.020464 0
-0.276824 -0.027777 0
-0.260762 -0.036003 0
-0.241259 -0.045194 0
-0.217913 -0.055239 0
-0.190411 -0.065719 0
-0.158672 -0.075626 0
-0.123140 -0.082864 0
-0.085308 -0.083320 0
-0.048325 -0.069342 0
-0.014220 -0.026923 0
0.009119 0.017651 0
0.000003 -0.000001 0
0.000000 -0.015820 0
0.000000 0.000003 0
0.017161 -0.062789 0
0.027248 -0.042525 0
0.028800 -0.011398 0
0.018989 0.012879 0
0.003503 0.028638 0
-0.020154 0.039757 0
-0.056833 0.051498 0
-0.096784 0.065561 0
-0.133217 0.077602 0
-0.167939 0.085409 0
-0.198029 0.090431 0
-0.222465 0.091405 0
-0.242670 0.087810 0
-0.259245 0.080971 0
-0.272543 0.072186 0
-0.282923 0.062522 0
-0.290749 0.052744 0
-0.296373 0.043339 0
-0.300107 0.034560 0
-0.302211 0.026480 0
-0.302884 0.019045 0
-0.302260 0.012111 0
-0.300413 0.005472 0
-0.297368 -0.001116 0
-0.293135 -0.007828 0
-0.287643 -0.014906 0
-0.280696 -0.022653 0
-0.272060 -0.031298 0
-0.261466 -0.041057 0
-0.248605 -0.052087 0
-0.233154 -0.064447 0
-0.214792 -0.077995 0
-0.193227 -0.092194 0
-0.168252 -0.105767 0
-0.139849 -0.116096 0
-0.108351 -0.118292 0
-0.074528 -0.104173 0
-0.039302 -0.063014 0
-0.001448 0.002648 0
0.000011 -0.000001 0
0.000000 -0.019773 0
0.000000 0.000003 0
0.005977 -0.071582 0
0.001840 -0.043788 0
-0.009259 -0.001817 0
-0.027042 0.032700 0
-0.050585 0.055014 0
-0.080028 0.072979 0
-0.113398 0.088265 0
-0.146532 0.100833 0
-0.175953 0.109409 0
-0.201819 0.113380 0
-0.223144 0.113393 0
-0.239357 0.109387 0
-0.251369 0.101721 0
-0.260018 0.091533 0
-0.266017 0.079986 0
-0.269949 0.068060 0
-0.272285 0.056441 0
-0.273390 0.045538 0
-0.273533 0.035523 0
-0.272904 0.026396 0
-0.271624 0.018035 0
-0.269757 0.010236 0
-0.267316 0.002749 0
-0.264267 -0.004675 0
-0.260648 -0.012308 0
-0.256231 -0.020485 0
-0.250859 -0.029523 0
-0.244319 -0.039693 0
-0.236387 -0.051233 0
-0.226828 -0.064316 0
-0.215411 -0.079007 0
-0.201901 -0.095166 0
-0.186043 -0.112260 0
-0.167523 -0.129004 0
-0.145919 -0.142765 0
-0.120650 -0.148641 0
-0.090981 -0.138391 0
-0.056419 -0.100003 0
-0.019207 -0.021651 0
-0.000001 0.000003 0
0.000000 -0.014368 0
0.000000 0.000002 0
-0.008561 -0.064628 0
-0.026894 -0.027289 0
-0.049647 0.017484 0
-0.070207 0.054205 0
-0.094476 0.081623 0
-0.121379 0.102570 0
-0.148621 0.118003 0
-0.173976 0.128116 0
-0.195653 0.132890 0
-0.213307 0.132599 0
-0.226588 0.127968 0
-0.235550 0.119630 0
-0.240977 0.108472 0
-0.243721 0.095619 0
-0.244546 0.082117 0
-0.244062 0.068791 0
-0.242724 0.056185 0
-0.240856 0.044587 0
-0.238678 0.034074 0
-0.236331 0.024571 0
-0.233894 0.015898 0
-0.231399 0.007803 0
-0.228839 -0.000017 0
-0.226183 -0.007783 0
-0.223321 -0.015865 0
-0.220077 -0.024695 0
-0.216274 -0.034565 0
-0.211713 -0.045771 0
-0.206192 -0.058548 0
-0.199525 -0.073062 0
-0.191552 -0.089374 0
-0.182127 -0.107363 0
-0.171066 -0.126572 0
-0.158049 -0.145891 0
-0.142465 -0.162969 0
-0.123240 -0.173230 0
-0.098822 -0.168405 0
-0.067793 -0.134788 0
-0.031296 -0.053771 0
-0.000026 0.000006 0
0.000000 -0.000559 0
0.000000 0.000001 0
-0.021379 -0.044688 0
-0.048666 -0.002702 0
-0.074237 0.041497 0
-0.097606 0.077529 0
-0.121089 0.106186 0
-0.144190 0.127124 0
-0.165587 0.140862 0
-0.184086 0.147865 0
-0.198807 0.148740 0
-0.209547 0.144315 0
-0.216351 0.135636 0
-0.219626 0.123776 0
-0.220125 0.109893 0
-0.218632 0.095102 0
-0.215844 0.080327 0
-0.212311 0.066238 0
-0.208443 0.053235 0
-0.204530 0.041492 0
-0.200771 0.030998 0
-0.197293 0.021612 0
-0.194163 0.013102 0
-0.191402 0.005180 0
-0.188994 -0.002468 0
-0.186923 -0.010193 0
-0.184946 -0.018414 0
-0.182933 -0.027532 0
-0.180677 -0.037887 0
-0.177962 -0.049776 0
-0.174569 -0.063421 0
-0.170317 -0.078955 0
-0.165084 -0.096404 0
-0.158793 -0.115652 0
-0.151352 -0.136338 0
-0.142527 -0.157606 0
-0.131719 -0.177574 0
-0.117682 -0.192284 0
-0.098348 -0.193839 0
-0.071251 -0.167530 0
-0.035663 -0.089444 0
-0.000049 0.000008 0
0.000000 0.016933 0
0.000000 -0.000001 0
-0.028939 -0.015962 0
-0.060139 0.025568 0
-0.086472 0.066424 0
-0.110647 0.101057 0
-0.132579 0.128207 0
-0.152089 0.147069 0
-0.168574 0.157899 0
-0.181519 0.161336 0
-0.190632 0.158350 0
-0.195996 0.150143 0
-0.197935 0.138048 0
-0.197020 0.123405 0
-0.193962 0.107478 0
-0.189454 0.091338 0
-0.184101 0.075796 0
-0.178386 0.061389 0
-0.172689 0.048403 0
-0.167297 0.036915 0
-0.162418 0.026837 0
-0.158190 0.017964 0
-0.154685 0.010007 0
-0.151920 0.002633 0
-0.149850 -0.004496 0
-0.148454 -0.011832 0
-0.147491 -0.019855 0
-0.146789 -0.028964 0
-0.146114 -0.039535 0
-0.145199 -0.051878 0
-0.143762 -0.066193 0
-0.141579 -0.082548 0
-0.138525 -0.100899 0
-0.134566 -0.121095 0
-0.129693 -0.142838 0
-0.123800 -0.165524 0
-0.116442 -0.187815 0
-0.106468 -0.206601 0
-0.091645 -0.214836 0
-0.068779 -0.197473 0
-0.035732 -0.125022 0
-0.000064 0.000009 0
0.000000 0.035107 0
0.000000 -0.000003 0
-0.031510 0.015451 0
-0.062411 0.054832 0
-0.089280 0.092004 0
-0.112802 0.123635 0
-0.132759 0.147628 0
-0.149094 0.163119 0
-0.161631 0.170292 0
-0.170294 0.169923 0
-0.175176 0.163216 0
-0.176601 0.151618 0
-0.175059 0.136659 0
-0.171167 0.119803 0
-0.165576 0.102327 0
-0.158885 0.085241 0
-0.151615 0.069259 0
-0.144214 0.054826 0
-0.137065 0.042146 0
-0.130489 0.031220 0
-0.124737 0.021891 0
-0.119980 0.013879 0
-0.116305 0.006833 0
-0.113739 0.000345 0
-0.112263 -0.005934 0
-0.111694 -0.012552 0
-0.111849 -0.020079 0
-0.112535 -0.028909 0
-0.113499 -0.039477 0
-0.114399 -0.052128 0
-0.114848 -0.067041 0
-0.114530 -0.084192 0
-0.113292 -0.103418 0
-0.111121 -0.124485 0
-0.108070 -0.147104 0
-0.104152 -0.170856 0
-0.099133 -0.194905 0
-0.092143 -0.217081 0
-0.081132 -0.231528 0
-0.062652 -0.223443 0
-0.033590 -0.158223 0
-0.000074 0.000010 0
0.000000 0.052668 0
0.000000 -0.000004 0
-0.030091 0.046449 0
-0.059646 0.083339 0
-0.085534 0.116815 0
-0.107456 0.144535 0
-0.125192 0.164499 0
-0.138744 0.175941 0
-0.148165 0.179098 0
-0.153636 0.174881 0
-0.155477 0.164657 0
-0.154154 0.150025 0
-0.150221 0.132615 0
-0.144272 0.113923 0
-0.136874 0.095195 0
-0.128539 0.077377 0
-0.119737 0.061126 0
-0.110915 0.046839 0
-0.102508 0.034677 0
-0.094929 0.024587 0
-0.088517 0.016329 0
-0.083483 0.009532 0
-0.079906 0.003766 0
-0.077773 -0.001409 0
-0.077084 -0.006541 0
-0.077448 -0.012246 0
-0.078746 -0.019015 0
-0.080810 -0.027313 0
-0.083402 -0.037672 0
-0.086099 -0.050529 0
-0.088364 -0.066061 0
-0.089748 -0.084104 0
-0.090062 -0.104308 0
-0.089321 -0.126317 0
-0.087626 -0.149807 0
-0.085079 -0.174460 0
-0.081633 -0.199824 0
-0.076759 -0.224602 0
-0.068829 -0.244326 0
-0.054528 -0.245015 0
-0.030065 -0.187674 0
-0.000079 0.000011 0
0.000000 0.068698 0
0.000000 -0.000004 0
-0.026512 0.075098 0
-0.053869 0.110275 0
-0.077639 0.139814 0
-0.097343 0.163294 0
-0.112741 0.178916 0
-0.123851 0.186092 0
-0.130832 0.185184 0
-0.133990 0.177236 0
-0.133746 0.163735 0
-0.130611 0.146362 0
-0.125124 0.126777 0
-0.117806 0.106455 0
-0.109130 0.086594 0
-0.099533 0.068105 0
-0.089451 0.051635 0
-0.079366 0.037597 0
-0.069820 0.026160 0
-0.061395 0.017229 0
-0.054589 0.010445 0
-0.049658 0.005268 0
-0.046590 0.001123 0
-0.045302 -0.002477 0
-0.045520 -0.006260 0
-0.046882 -0.010890 0
-0.049240 -0.016717 0
-0.052511 -0.024253 0
-0.056547 -0.034188 0
-0.060874 -0.047165 0
-0.064767 -0.063391 0
-0.067603 -0.082495 0
-0.069178 -0.103845 0
-0.069562 -0.126920 0
-0.068910 -0.151346 0
-0.067381 -0.176849 0
-0.065058 -0.203225 0
-0.061711 -0.229885 0
-0.056216 -0.253759 0
-0.045672 -0.262207 0
-0.025917 -0.212750 0
-0.000078 0.000011 0
0.000000 0.082733 0
0.000000 -0.000005 0
-0.022338 0.100318 0
-0.046436 0.134466 0
-0.067362 0.160289 0
-0.084483 0.179637 0
-0.097527 0.191007 0
-0.106499 0.194032 0
-0.111585 0.189237 0
-0.113122 0.177795 0
-0.111543 0.161278 0
-0.107329 0.141402 0
-0.100949 0.119810 0
-0.092823 0.097930 0
-0.083324 0.076922 0
-0.072807 0.057698 0
-0.061680 0.040959 0
-0.050463 0.027208 0
-0.039837 0.016706 0
-0.030718 0.009356 0
-0.023806 0.004592 0
-0.019475 0.001533 0
-0.017531 -0.000589 0
-0.017560 -0.002479 0
-0.018932 -0.004961 0
-0.021363 -0.008526 0
-0.024656 -0.013386 0
-0.028835 -0.020005 0
-0.033929 -0.029309 0
-0.039472 -0.042310 0
-0.044571 -0.059331 0
-0.048426 -0.079692 0
-0.050860 -0.102349 0
-0.052029 -0.126585 0
-0.052144 -0.151988 0
-0.051402 -0.178312 0
-0.049956 -0.205494 0
-0.047783 -0.233445 0
-0.044220 -0.260365 0
-0.036929 -0.275314 0
-0.021659 -0.233346 0
-0.000073 0.000011 0
0.000000 0.094615 0
0.000000 -0.000005 0
-0.017828 0.121533 0
-0.038159 0.155299 0
-0.055882 0.177861 0
-0.070266 0.193459 0
-0.081025 0.200932 0
-0.088137 0.200149 0
-0.091772 0.191807 0
-0.092238 0.177194 0
-0.089922 0.157942 0
-0.085228 0.135767 0
-0.078525 0.112272 0
-0.070121 0.088830 0
-0.060279 0.066578 0
-0.049264 0.046461 0
-0.037412 0.029291 0
-0.025216 0.015754 0
-0.013373 0.006415 0
-0.004357 0.001198 0
0.001435 -0.000798 0
0.004357 -0.001006 0
0.004911 -0.000792 0
0.003752 -0.001076 0
0.001370 -0.002457 0
-0.001979 -0.005166 0
-0.006067 -0.009245 0
-0.010931 -0.014980 0
-0.016582 -0.023552 0
-0.022679 -0.036524 0
-0.028259 -0.054437 0
-0.032464 -0.076206 0
-0.035221 -0.100242 0
-0.036774 -0.125637 0
-0.037370 -0.151973 0
-0.037220 -0.179037 0
-0.036503 -0.206844 0
-0.035308 -0.235621 0
-0.033317 -0.264613 0
-0.028788 -0.284768 0
-0.017601 -0.249680 0
-0.000066 0.000011 0
0.000000 0.104391 0
0.000000 -0.000005 0
-0.013164 0.138477 0
-0.029542 0.172520 0
-0.043947 0.192395 0
-0.055589 0.204780 0
-0.064188 0.208878 0
-0.069699 0.204779 0
-0.072250 0.193338 0
-0.072091 0.175946 0
-0.069530 0.154268 0
-0.064876 0.130005 0
-0.058389 0.104703 0
-0.050265 0.079685 0
-0.040654 0.056064 0
-0.029693 0.034830 0
-0.017559 0.016911 0
-0.004530 0.003169 0
0.005552 -0.004153 0
0.012254 -0.005453 0
0.016122 -0.004122 0
0.017847 -0.001942 0
0.017792 0.000016 0
0.016315 0.001062 0
0.013656 0.000770 0
0.010013 -0.001089 0
0.005542 -0.004434 0
0.000477 -0.009491 0
-0.005102 -0.017560 0
-0.010961 -0.030633 0
-0.016033 -0.049546 0
-0.019737 -0.072731 0
-0.022206 -0.098039 0
-0.023719 -0.124437 0
-0.024507 -0.151542 0
-0.024766 -0.179179 0
-0.024665 -0.207407 0
-0.024333 -0.236630 0
-0.023672 -0.266885 0
-0.021472 -0.291031 0
-0.013902 -0.262134 0
-0.000059 0.000010 0
0.000000 0.112216 0
0.000000 -0.000005 0
-0.008479 0.151075 0
-0.020884 0.186081 0
-0.032002 0.203908 0
-0.040987 0.213700 0
-0.047583 0.215042 0
-0.051724 0.208211 0
-0.053494 0.194199 0
-0.053072 0.174475 0
-0.050682 0.150727 0
-0.046532 0.124626 0
-0.040784 0.097661 0
-0.033531 0.071095 0
-0.024811 0.046006 0
-0.014612 0.023367 0
-0.002722 0.004128 0
0.007105 -0.007357 0
0.012900 -0.010369 0
0.016705 -0.009373 0
0.019235 -0.006390 0
0.020584 -0.002676 0
0.020669 0.000740 0
0.019477 0.003060 0
0.017183 0.003845 0
0.013949 0.002948 0
0.009916 0.000291 0
0.005360 -0.004336 0
0.000561 -0.012114 0
-0.004038 -0.025592 0
-0.007525 -0.045661 0
-0.009906 -0.070033 0
-0.011539 -0.096261 0
-0.012639 -0.123336 0
-0.013367 -0.150925 0
-0.013873 -0.178879 0
-0.014293 -0.207277 0
-0.014748 -0.236614 0
-0.015250 -0.267475 0
-0.015023 -0.294537 0
-0.010617 -0.271151 0
-0.000051 0.000010 0
0.000000 0.118293 0
0.000000 -0.000005 0
-0.003867 0.159361 0
-0.012358 0.196043 0
-0.020293 0.212499 0
-0.026746 0.220361 0
-0.031491 0.219615 0
-0.034457 0.210690 0
-0.035683 0.194686 0
-0.035284 0.173133 0
-0.033401 0.147728 0
-0.030162 0.120107 0
-0.025644 0.091702 0
-0.019863 0.063712 0
-0.012755 0.037146 0
-0.004105 0.012740 0
0.004350 -0.004807 0
0.008678 -0.012452 0
0.011452 -0.013753 0
0.013478 -0.011787 0
0.015015 -0.008001 0
0.016037 -0.003377 0
0.016321 0.001123 0
0.015636 0.004549 0
0.014025 0.006298 0
0.011620 0.006177 0
0.008592 0.004155 0
0.005121 -0.000135 0
0.001730 -0.008162 0
-0.000627 -0.022548 0
-0.001702 -0.043679 0
-0.002267 -0.068717 0
-0.002734 -0.095306 0
-0.003180 -0.122608 0
-0.003674 -0.150308 0
-0.004310 -0.178253 0
-0.005177 -0.206531 0
-0.006362 -0.235673 0
-0.007915 -0.266609 0
-0.009381 -0.295664 0
-0.007731 -0.277158 0
-0.000045 0.000009 0
0.000000 0.122832 0
0.000000 -0.000005 0
0.000454 0.163433 0
-0.004056 0.202507 0
-0.008920 0.218296 0
-0.012975 0.224899 0
-0.016007 0.222753 0
-0.017940 0.212402 0
-0.018786 0.195025 0
-0.018607 0.172193 0
-0.017482 0.145606 0
-0.015476 0.116868 0
-0.012622 0.087362 0
-0.008860 0.058206 0
-0.004079 0.030248 0
0.001324 0.006262 0
0.004170 -0.008655 0
0.005331 -0.014459 0
0.005996 -0.015169 0
0.006531 -0.012936 0
0.007115 -0.008950 0
0.007723 -0.003982 0
0.008140 0.001141 0
0.008024 0.005356 0
0.007281 0.007862 0
0.005939 0.008381 0
0.004135 0.006790 0
0.002201 0.002526 0
0.000883 -0.006366 0
0.001362 -0.022160 0
0.002823 -0.044020 0
0.004060 -0.069001 0
0.004810 -0.095348 0
0.005096 -0.122396 0
0.004903 -0.149795 0
0.004191 -0.177376 0
0.002917 -0.205225 0
0.001046 -0.233876 0
-0.001481 -0.264456 0
-0.004424 -0.294721 0
-0.005195 -0.280532 0
-0.000040 0.000009 0
0.000000 0.126023 0
0.000000 -0.000004 0
0.004424 0.163418 0
0.003918 0.205417 0
0.002036 0.221417 0
0.000281 0.227448 0
-0.001112 0.224580 0
-0.002078 0.213468 0
-0.002616 0.195354 0
-0.002751 0.171830 0
-0.002517 0.144597 0
-0.001939 0.115247 0
-0.001029 0.085086 0
0.000255 0.055169 0
0.001801 0.026961 0
0.002447 0.004490 0
0.001388 -0.008813 0
0.000269 -0.014278 0
-0.000792 -0.014953 0
-0.001556 -0.012907 0
-0.001891 -0.009193 0
-0.001783 -0.004402 0
-0.001351 0.000822 0
-0.000883 0.005408 0
-0.000675 0.008383 0
-0.000796 0.009323 0
-0.001105 0.007893 0
-0.001117 0.003117 0
0.000371 -0.007323 0
0.003735 -0.024488 0
0.007234 -0.046377 0
0.009938 -0.070704 0
0.011745 -0.096341 0
0.012683 -0.122701 0
0.012754 -0.149403 0
0.011946 -0.176267 0
0.010251 -0.203387 0
0.007674 -0.231275 0
0.004201 -0.261139 0
-0.000003 -0.291950 0
-0.002936 -0.281582 0
-0.000036 0.000009 0
0.000000 0.128026 0
0.000000 -0.000004 0
0.008161 0.159515 0
0.011506 0.204896 0
0.012531 0.221933 0
0.013007 0.228046 0
0.013234 0.225112 0
0.013244 0.213906 0
0.013040 0.195699 0
0.012615 0.172094 0
0.011966 0.144793 0
0.011092 0.115381 0
0.009980 0.085168 0
0.008547 0.055376 0
0.006421 0.028056 0
0.002772 0.006674 0
-0.001354 -0.006477 0
-0.004468 -0.012278 0
-0.006962 -0.013344 0
-0.008796 -0.011838 0
-0.009941 -0.008723 0
-0.010358 -0.004522 0
-0.010045 0.000240 0
-0.009124 0.004680 0
-0.007994 0.007776 0
-0.006787 0.008811 0
-0.005301 0.007110 0
-0.002845 0.001050 0
0.001853 -0.011218 0
0.007399 -0.029024 0
0.012290 -0.050223 0
0.016062 -0.073512 0
0.018655 -0.098093 0
0.020060 -0.123405 0
0.020265 -0.149057 0
0.019270 -0.174872 0
0.017090 -0.200953 0
0.013757 -0.227827 0
0.009317 -0.256779 0
0.003936 -0.287584 0
-0.000872 -0.280535 0
-0.000034 0.000008 0
0.000000 0.128958 0
0.000000 -0.000003 0
0.011633 0.151911 0
0.018702 0.201046 0
0.022577 0.219917 0
0.025215 0.226745 0
0.027044 0.224343 0
0.028083 0.213662 0
0.028313 0.195983 0
0.027731 0.172903 0
0.026352 0.146120 0
0.024188 0.117233 0
0.021221 0.087630 0
0.017300 0.058729 0
0.012091 0.032736 0
0.005425 0.012265 0
-0.001597 -0.001573 0
-0.006992 -0.008669 0
-0.010778 -0.010626 0
-0.013481 -0.009928 0
-0.015293 -0.007630 0
-0.016172 -0.004298 0
-0.016048 -0.000413 0
-0.014892 0.003357 0
-0.012923 0.006045 0
-0.010280 0.006630 0
-0.006620 0.003951 0
-0.001028 -0.004037 0
0.006014 -0.017567 0
0.012758 -0.034925 0
0.018478 -0.055039 0
0.022921 -0.077070 0
0.025984 -0.100340 0
0.027603 -0.124311 0
0.027748 -0.148613 0
0.026422 -0.173092 0
0.023657 -0.197873 0
0.019512 -0.223501 0
0.014063 -0.251318 0
0.007479 -0.281762 0
0.001058 -0.277646 0
-0.000032 0.000008 0
0.000000 0.128897 0
0.000000 -0.000002 0
0.014761 0.140813 0
0.025417 0.193952 0
0.032112 0.215420 0
0.036871 0.223579 0
0.040304 0.222244 0
0.042450 0.212638 0
0.043270 0.196051 0
0.042752 0.174055 0
0.040920 0.148336 0
0.037808 0.120512 0
0.033417 0.092057 0
0.027647 0.064506 0
0.020372 0.039931 0
0.011896 0.020362 0
0.003105 0.005940 0
-0.004977 -0.003098 0
-0.010525 -0.006855 0
-0.014060 -0.007322 0
-0.016388 -0.006032 0
-0.017554 -0.003766 0
-0.017509 -0.001040 0
-0.016124 0.001555 0
-0.013312 0.003163 0
-0.009049 0.002509 0
-0.002916 -0.002142 0
0.004924 -0.011584 0
0.012829 -0.025004 0
0.020046 -0.041488 0
0.026145 -0.060387 0
0.030870 -0.081018 0
0.034054 -0.102775 0
0.035594 -0.125170 0
0.035442 -0.147877 0
0.033603 -0.170781 0
0.030119 -0.194043 0
0.025068 -0.218232 0
0.018558 -0.244747 0
0.010775 -0.274580 0
0.002880 -0.273056 0
-0.000031 0.000008 0
0.000000 0.127900 0
0.000000 -0.000002 0
0.017420 0.126495 0
0.031474 0.183696 0
0.040978 0.208462 0
0.047859 0.218553 0
0.052925 0.218764 0
0.056286 0.210697 0
0.057893 0.195682 0
0.057723 0.175253 0
0.055807 0.151064 0
0.052208 0.124736 0
0.046980 0.097791 0
0.040145 0.071774 0
0.031808 0.048487 0
0.022528 0.029531 0
0.013169 0.015300 0
0.003958 0.004961 0
-0.003659 -0.001542 0
-0.008928 -0.004065 0
-0.011794 -0.004136 0
-0.013039 -0.003177 0
-0.012817 -0.001843 0
-0.010967 -0.000840 0
-0.007235 -0.001031 0
-0.001467 -0.003765 0
0.006065 -0.010022 0
0.014285 -0.019782 0
0.022246 -0.032688 0
0.029463 -0.048240 0
0.035524 -0.065864 0
0.040126 -0.084979 0
0.043062 -0.105063 0
0.044204 -0.125699 0
0.043496 -0.146622 0
0.040940 -0.167769 0
0.036586 -0.189339 0
0.030526 -0.211940 0
0.022891 -0.237025 0
0.013890 -0.266085 0
0.004603 -0.266871 0
-0.000030 0.000007 0
0.000000 0.126016 0
0.000000 -0.000001 0
0.019431 0.109339 0
0.036598 0.170394 0
0.048894 0.199035 0
0.057949 0.211632 0
0.064725 0.213817 0
0.069438 0.207670 0
0.072058 0.194613 0
0.072557 0.176140 0
0.070969 0.153852 0
0.067393 0.129339 0
0.061952 0.104120 0
0.054797 0.079679 0
0.046207 0.057548 0
0.036820 0.039001 0
0.027470 0.024510 0
0.018700 0.013731 0
0.010604 0.006031 0
0.004106 0.000813 0
-0.000011 -0.001922 0
-0.001712 -0.002743 0