# vtk DataFile Version 2.0
generated by CFD-lab course output (written by Tobias Neckel) 
ASCII

DATASET STRUCTURED_GRID
DIMENSIONS  42 42 1 
POINTS 1764 float

0.150000 0.150000 0
0.167857 0.150000 0
0.185714 0.150000 0
0.203571 0.150000 0
0.221429 0.150000 0
0.239286 0.150000 0
0.257143 0.150000 0
0.275000 0.150000 0
0.292857 0.150000 0
0.310714 0.150000 0
0.328571 0.150000 0
0.346429 0.150000 0
0.364286 0.150000 0
0.382143 0.150000 0
0.400000 0.150000 0
0.417857 0.150000 0
0.435714 0.150000 0
0.453571 0.150000 0
0.471429 0.150000 0
0.489286 0.150000 0
0.507143 0.150000 0
0.525000 0.150000 0
0.542857 0.150000 0
0.560714 0.150000 0
0.578571 0.150000 0
0.596429 0.150000 0
0.614286 0.150000 0
0.632143 0.150000 0
0.650000 0.150000 0
0.667857 0.150000 0
0.685714 0.150000 0
0.703571 0.150000 0
0.721429 0.150000 0
0.739286 0.150000 0
0.757143 0.150000 0
0.775000 0.150000 0
0.792857 0.150000 0
0.810714 0.150000 0
0.828571 0.150000 0
0.846429 0.150000 0
0.864286 0.150000 0
0.882143 0.150000 0
0.150000 0.167857 0
0.167857 0.167857 0
0.185714 0.167857 0
0.203571 0.167857 0
0.221429 0.167857 0
0.239286 0.167857 0
0.257143 0.167857 0
0.275000 0.167857 0
0.292857 0.167857 0
0.310714 0.167857 0
0.328571 0.167857 0
0.346429 0.167857 0
0.364286 0.167857 0
0.382143 0.167857 0
0.400000 0.167857 0
0.417857 0.167857 0
0.435714 0.167857 0
0.453571 0.167857 0
0.471429 0.167857 0
0.489286 0.167857 0
0.507143 0.167857 0
0.525000 0.167857 0
0.542857 0.167857 0
0.560714 0.167857 0
0.578571 0.167857 0
0.596429 0.167857 0
0.614286 0.167857 0
0.632143 0.167857 0
0.650000 0.167857 0
0.667857 0.167857 0
0.685714 0.167857 0
0.703571 0.167857 0
0.721429 0.167857 0
0.739286 0.167857 0
0.757143 0.167857 0
0.775000 0.167857 0
0.792857 0.167857 0
0.810714 0.167857 0
0.828571 0.167857 0
0.846429 0.167857 0
0.864286 0.167857 0
0.882143 0.167857 0
0.150000 0.185714 0
0.167857 0.185714 0
0.185714 0.185714 0
0.203571 0.185714 0
0.221429 0.185714 0
0.239286 0.185714 0
0.257143 0.185714 0
0.275000 0.185714 0
0.292857 0.185714 0
0.310714 0.185714 0
0.328571 0.185714 0
0.346429 0.185714 0
0.364286 0.185714 0
0.382143 0.185714 0
0.400000 0.185714 0
0.417857 0.185714 0
0.435714 0.185714 0
0.453571 0.185714 0
0.471429 0.185714 0
0.489286 0.185714 0
0.507143 0.185714 0
0.525000 0.185714 0
0.542857 0.185714 0
0.560714 0.185714 0
0.578571 0.185714 0
0.596429 0.185714 0
0.614286 0.185714 0
0.632143 0.185714 0
0.650000 0.185714 0
0.667857 0.185714 0
0.685714 0.185714 0
0.703571 0.185714 0
0.721429 0.185714 0
0.739286 0.185714 0
0.757143 0.185714 0
0.775000 0.185714 0
0.792857 0.185714 0
0.810714 0.185714 0
0.828571 0.185714 0
0.846429 0.185714 0
0.864286 0.185714 0
0.882143 0.185714 0
0.150000 0.203571 0
0.167857 0.203571 0
0.185714 0.203571 0
0.203571 0.203571 0
0.221429 0.203571 0
0.239286 0.203571 0
0.257143 0.203571 0
0.275000 0.203571 0
0.292857 0.203571 0
0.310714 0.203571 0
0.328571 0.203571 0
0.346429 0.203571 0
0.364286 0.203571 0
0.382143 0.203571 0
0.400000 0.203571 0
0.417857 0.203571 0
0.435714 0.203571 0
0.453571 0.203571 0
0.471429 0.203571 0
0.489286 0.203571 0
0.507143 0.203571 0
0.525000 0.203571 0
0.542857 0.203571 0
0.560714 0.203571 0
0.578571 0.203571 0
0.596429 0.203571 0
0.614286 0.203571 0
0.632143 0.203571 0
0.650000 0.203571 0
0.667857 0.203571 0
0.685714 0.203571 0
0.703571 0.203571 0
0.721429 0.203571 0
0.739286 0.203571 0
0.757143 0.203571 0
0.775000 0.203571 0
0.792857 0.203571 0
0.810714 0.203571 0
0.828571 0.203571 0
0.846429 0.203571 0
0.864286 0.203571 0
0.882143 0.203571 0
0.150000 0.221429 0
0.167857 0.221429 0
0.185714 0.221429 0
0.203571 0.221429 0
0.221429 0.221429 0
0.239286 0.221429 0
0.257143 0.221429 0
0.275000 0.221429 0
0.292857 0.221429 0
0.310714 0.221429 0
0.328571 0.221429 0
0.346429 0.221429 0
0.364286 0.221429 0
0.382143 0.221429 0
0.400000 0.221429 0
0.417857 0.221429 0
0.435714 0.221429 0
0.453571 0.221429 0
0.471429 0.221429 0
0.489286 0.221429 0
0.507143 0.221429 0
0.525000 0.221429 0
0.542857 0.221429 0
0.560714 0.221429 0
0.578571 0.221429 0
0.596429 0.221429 0
0.614286 0.221429 0
0.632143 0.221429 0
0.650000 0.221429 0
0.667857 0.221429 0
0.685714 0.221429 0
0.703571 0.221429 0
0.721429 0.221429 0
0.739286 0.221429 0
0.757143 0.221429 0
0.775000 0.221429 0
0.792857 0.221429 0
0.810714 0.221429 0
0.828571 0.221429 0
0.846429 0.221429 0
0.864286 0.221429 0
0.882143 0.221429 0
0.150000 0.239286 0
0.167857 0.239286 0
0.185714 0.239286 0
0.203571 0.239286 0
0.221429 0.239286 0
0.239286 0.239286 0
0.257143 0.239286 0
0.275000 0.239286 0
0.292857 0.239286 0
0.310714 0.239286 0
0.328571 0.239286 0
0.346429 0.239286 0
0.364286 0.239286 0
0.382143 0.239286 0
0.400000 0.239286 0
0.417857 0.239286 0
0.435714 0.239286 0
0.453571 0.239286 0
0.471429 0.239286 0
0.489286 0.239286 0
0.507143 0.239286 0
0.525000 0.239286 0
0.542857 0.239286 0
0.560714 0.239286 0
0.578571 0.239286 0
0.596429 0.239286 0
0.614286 0.239286 0
0.632143 0.239286 0
0.650000 0.239286 0
0.667857 0.239286 0
0.685714 0.239286 0
0.703571 0.239286 0
0.721429 0.239286 0
0.739286 0.239286 0
0.757143 0.239286 0
0.775000 0.239286 0
0.792857 0.239286 0
0.810714 0.239286 0
0.828571 0.239286 0
0.846429 0.239286 0
0.864286 0.239286 0
0.882143 0.239286 0
0.150000 0.257143 0
0.167857 0.257143 0
0.185714 0.257143 0
0.203571 0.257143 0
0.221429 0.257143 0
0.239286 0.257143 0
0.257143 0.257143 0
0.275000 0.257143 0
0.292857 0.257143 0
0.310714 0.257143 0
0.328571 0.257143 0
0.346429 0.257143 0
0.364286 0.257143 0
0.382143 0.257143 0
0.400000 0.257143 0
0.417857 0.257143 0
0.435714 0.257143 0
0.453571 0.257143 0
0.471429 0.257143 0
0.489286 0.257143 0
0.507143 0.257143 0
0.525000 0.257143 0
0.542857 0.257143 0
0.560714 0.257143 0
0.578571 0.257143 0
0.596429 0.257143 0
0.614286 0.257143 0
0.632143 0.257143 0
0.650000 0.257143 0
0.667857 0.257143 0
0.685714 0.257143 0
0.703571 0.257143 0
0.721429 0.257143 0
0.739286 0.257143 0
0.757143 0.257143 0
0.775000 0.257143 0
0.792857 0.257143 0
0.810714 0.257143 0
0.828571 0.257143 0
0.846429 0.257143 0
0.864286 0.257143 0
0.882143 0.257143 0
0.150000 0.275000 0
0.167857 0.275000 0
0.185714 0.275000 0
0.203571 0.275000 0
0.221429 0.275000 0
0.239286 0.275000 0
0.257143 0.275000 0
0.275000 0.275000 0
0.292857 0.275000 0
0.310714 0.275000 0
0.328571 0.275000 0
0.346429 0.275000 0
0.364286 0.275000 0
0.382143 0.275000 0
0.400000 0.275000 0
0.417857 0.275000 0
0.435714 0.275000 0
0.453571 0.275000 0
0.471429 0.275000 0
0.489286 0.275000 0
0.507143 0.275000 0
0.525000 0.275000 0
0.542857 0.275000 0
0.560714 0.275000 0
0.578571 0.275000 0
0.596429 0.275000 0
0.614286 0.275000 0
0.632143 0.275000 0
0.650000 0.275000 0
0.667857 0.275000 0
0.685714 0.275000 0
0.703571 0.275000 0
0.721429 0.275000 0
0.739286 0.275000 0
0.757143 0.275000 0
0.775000 0.275000 0
0.792857 0.275000 0
0.810714 0.275000 0
0.828571 0.275000 0
0.846429 0.275000 0
0.864286 0.275000 0
0.882143 0.275000 0
0.150000 0.292857 0
0.167857 0.292857 0
0.185714 0.292857 0
0.203571 0.292857 0
0.221429 0.292857 0
0.239286 0.292857 0
0.257143 0.292857 0
0.275000 0.292857 0
0.292857 0.292857 0
0.310714 0.292857 0
0.328571 0.292857 0
0.346429 0.292857 0
0.364286 0.292857 0
0.382143 0.292857 0
0.400000 0.292857 0
0.417857 0.292857 0
0.435714 0.292857 0
0.453571 0.292857 0
0.471429 0.292857 0
0.489286 0.292857 0
0.507143 0.292857 0
0.525000 0.292857 0
0.542857 0.292857 0
0.560714 0.292857 0
0.578571 0.292857 0
0.596429 0.292857 0
0.614286 0.292857 0
0.632143 0.292857 0
0.650000 0.292857 0
0.667857 0.292857 0
0.685714 0.292857 0
0.703571 0.292857 0
0.721429 0.292857 0
0.739286 0.292857 0
0.757143 0.292857 0
0.775000 0.292857 0
0.792857 0.292857 0
0.810714 0.292857 0
0.828571 0.292857 0
0.846429 0.292857 0
0.864286 0.292857 0
0.882143 0.292857 0
0.150000 0.310714 0
0.167857 0.310714 0
0.185714 0.310714 0
0.203571 0.310714 0
0.221429 0.310714 0
0.239286 0.310714 0
0.257143 0.310714 0
0.275000 0.310714 0
0.292857 0.310714 0
0.310714 0.310714 0
0.328571 0.310714 0
0.346429 0.310714 0
0.364286 0.310714 0
0.382143 0.310714 0
0.400000 0.310714 0
0.417857 0.310714 0
0.435714 0.310714 0
0.453571 0.310714 0
0.471429 0.310714 0
0.489286 0.310714 0
0.507143 0.310714 0
0.525000 0.310714 0
0.542857 0.310714 0
0.560714 0.310714 0
0.578571 0.310714 0
0.596429 0.310714 0
0.614286 0.310714 0
0.632143 0.310714 0
0.650000 0.310714 0
0.667857 0.310714 0
0.685714 0.310714 0
0.703571 0.310714 0
0.721429 0.310714 0
0.739286 0.310714 0
0.757143 0.310714 0
0.775000 0.310714 0
0.792857 0.310714 0
0.810714 0.310714 0
0.828571 0.310714 0
0.846429 0.310714 0
0.864286 0.310714 0
0.882143 0.310714 0
0.150000 0.328571 0
0.167857 0.328571 0
0.185714 0.328571 0
0.203571 0.328571 0
0.221429 0.328571 0
0.239286 0.328571 0
0.257143 0.328571 0
0.275000 0.328571 0
0.292857 0.328571 0
0.310714 0.328571 0
0.328571 0.328571 0
0.346429 0.328571 0
0.364286 0.328571 0
0.382143 0.328571 0
0.400000 0.328571 0
0.417857 0.328571 0
0.435714 0.328571 0
0.453571 0.328571 0
0.471429 0.328571 0
0.489286 0.328571 0
0.507143 0.328571 0
0.525000 0.328571 0
0.542857 0.328571 0
0.560714 0.328571 0
0.578571 0.328571 0
0.596429 0.328571 0
0.614286 0.328571 0
0.632143 0.328571 0
0.650000 0.328571 0
0.667857 0.328571 0
0.685714 0.328571 0
0.703571 0.328571 0
0.721429 0.328571 0
0.739286 0.328571 0
0.757143 0.328571 0
0.775000 0.328571 0
0.792857 0.328571 0
0.810714 0.328571 0
0.828571 0.328571 0
0.846429 0.328571 0
0.864286 0.328571 0
0.882143 0.328571 0
0.150000 0.346429 0
0.167857 0.346429 0
0.185714 0.346429 0
0.203571 0.346429 0
0.221429 0.346429 0
0.239286 0.346429 0
0.257143 0.346429 0
0.275000 0.346429 0
0.292857 0.346429 0
0.310714 0.346429 0
0.328571 0.346429 0
0.346429 0.346429 0
0.364286 0.346429 0
0.382143 0.346429 0
0.400000 0.346429 0
0.417857 0.346429 0
0.435714 0.346429 0
0.453571 0.346429 0
0.471429 0.346429 0
0.489286 0.346429 0
0.507143 0.346429 0
0.525000 0.346429 0
0.542857 0.346429 0
0.560714 0.346429 0
0.578571 0.346429 0
0.596429 0.346429 0
0.614286 0.346429 0
0.632143 0.346429 0
0.650000 0.346429 0
[...]
POINT_DATA 1764 

VECTORS velocity float
0.000000 0.000000 0
0.000011 0.000000 0
0.000026 0.000000 0
0.000037 0.000000 0
0.000043 0.000000 0
0.000045 0.000000 0
0.000043 0.000000 0
0.000039 0.000000 0
0.000033 0.000000 0
0.000024 0.000000 0
0.000013 0.000000 0
0.000001 0.000000 0
-0.000011 0.000000 0
-0.000024 0.000000 0
-0.000039 0.000000 0
-0.000055 0.000000 0
-0.000072 0.000000 0
-0.000091 0.000000 0
-0.000112 0.000000 0
-0.000136 0.000000 0
-0.000162 0.000000 0
-0.000190 0.000000 0
-0.000223 0.000000 0
-0.000260 0.000000 0
-0.000303 0.000000 0
-0.000351 0.000000 0
-0.000402 0.000000 0
-0.000459 0.000000 0
-0.000515 0.000000 0
-0.000560 0.000000 0
-0.000583 0.000000 0
-0.000580 0.000000 0
-0.000552 0.000000 0
-0.000501 0.000000 0
-0.000430 0.000000 0
-0.000344 0.000000 0
-0.000252 0.000000 0
-0.000156 0.000000 0
-0.000061 0.000000 0
0.000009 0.000000 0
0.000000 0.000000 0
0.000000 0.000000 0
0.000000 -0.000011 0
0.029093 -0.030087 0
0.049914 -0.016875 0
0.060183 -0.005900 0
0.062935 0.000591 0
0.060961 0.004018 0
0.055998 0.006198 0
0.048771 0.008832 0
0.039240 0.011368 0
0.028330 0.012288 0
0.017009 0.011984 0
0.005825 0.011265 0
-0.005156 0.010860 0
-0.016133 0.010978 0
-0.027434 0.011579 0
-0.039314 0.012215 0
-0.051735 0.012687 0
-0.064813 0.013363 0
-0.078765 0.014342 0
-0.093845 0.015582 0
-0.110291 0.016994 0
-0.128349 0.018623 0
-0.148398 0.020921 0
-0.171037 0.024031 0
-0.196701 0.027567 0
-0.225577 0.031163 0
-0.257582 0.034640 0
-0.292523 0.038039 0
-0.330034 0.040996 0
-0.369102 0.042604 0
-0.407652 0.041345 0
-0.442371 0.036139 0
-0.469542 0.026830 0
-0.485389 0.013340 0
-0.486264 -0.004519 0
-0.468736 -0.026846 0
-0.429430 -0.053465 0
-0.363832 -0.084743 0
-0.267253 -0.118969 0
-0.139351 -0.144906 0
-0.001111 0.000009 0
0.000000 0.076776 0
0.000000 -0.000022 0
0.016572 -0.049914 0
0.030507 -0.031090 0
0.038630 -0.013021 0
0.041821 -0.000778 0
0.040911 0.006937 0
0.036911 0.012189 0
0.030642 0.016758 0
0.023388 0.020441 0
0.015247 0.022231 0
0.006312 0.022505 0
-0.003270 0.022164 0
-0.013305 0.021958 0
-0.023632 0.022278 0
-0.034290 0.023181 0
-0.045257 0.024301 0
-0.056869 0.025499 0
-0.069256 0.027029 0
-0.082543 0.029032 0
-0.096896 0.031526 0
-0.112554 0.034504 0
-0.129835 0.038107 0
-0.149076 0.042687 0
-0.170340 0.048303 0
-0.193774 0.054540 0
-0.219417 0.060881 0
-0.247191 0.066946 0
-0.276729 0.072452 0
-0.307272 0.076579 0
-0.337643 0.077618 0
-0.365955 0.073268 0
-0.390064 0.061890 0
-0.407358 0.043018 0
-0.415248 0.016722 0
-0.411312 -0.016653 0
-0.393402 -0.056834 0
-0.358587 -0.104904 0
-0.302313 -0.162177 0
-0.220447 -0.224481 0
-0.112686 -0.267253 0
-0.000980 -0.000022 0
0.000000 0.139329 0
0.000000 -0.000029 0
0.008339 -0.060595 0
0.015235 -0.038933 0
0.019315 -0.017213 0
0.020927 -0.001690 0
0.020150 0.008928 0
0.017255 0.016467 0
0.012810 0.022355 0
0.007717 0.026763 0
0.001972 0.029364 0
-0.004595 0.030502 0
-0.012002 0.030882 0
-0.020101 0.031221 0
-0.028741 0.031963 0
-0.037781 0.033204 0
-0.047181 0.034794 0
-0.057170 0.036686 0
-0.067877 0.039037 0
-0.079393 0.041982 0
-0.091831 0.045592 0
-0.105355 0.049932 0
-0.120170 0.055145 0
-0.136406 0.061427 0
-0.153982 0.068730 0
-0.172840 0.076644 0
-0.192897 0.084580 0
-0.213984 0.091952 0
-0.235654 0.098120 0
-0.257123 0.101909 0
-0.277412 0.101287 0
-0.295419 0.093766 0
-0.310112 0.077542 0
-0.320227 0.052014 0
-0.324392 0.017294 0
-0.321041 -0.026365 0
-0.308054 -0.079570 0
-0.282110 -0.144554 0
-0.239316 -0.222884 0
-0.175785 -0.308596 0
-0.090191 -0.365353 0
-0.000863 -0.000078 0
0.000000 0.189375 0
0.000000 -0.000033 0
0.002524 -0.065149 0
0.004601 -0.042066 0
0.005772 -0.018714 0
0.005967 -0.001613 0
0.004966 0.010610 0
0.002752 0.019530 0
-0.000399 0.026296 0
-0.004035 0.031279 0
-0.008207 0.034544 0
-0.013080 0.036479 0
-0.018754 0.037670 0
-0.025177 0.038697 0
-0.032200 0.039959 0
-0.039685 0.041621 0
-0.047590 0.043690 0
-0.056021 0.046195 0
-0.065065 0.049253 0
-0.074779 0.052986 0
-0.085224 0.057488 0
-0.096479 0.062844 0
-0.108615 0.069158 0
-0.121620 0.076499 0
-0.135351 0.084737 0
-0.149651 0.093456 0
-0.164361 0.102024 0
-0.179264 0.109703 0
-0.193958 0.115592 0
-0.207830 0.118337 0
-0.220246 0.115914 0
-0.230741 0.105969 0
-0.239043 0.086698 0
-0.244725 0.057298 0
-0.247036 0.017535 0
-0.244703 -0.032991 0
-0.235633 -0.095764 0
-0.217006 -0.173641 0
-0.185662 -0.268503 0
-0.138000 -0.373606 0
-0.071570 -0.443038 0
-0.000745 -0.000139 0
0.000000 0.229402 0
0.000000 -0.000034 0
-0.001991 -0.065195 0
-0.003094 -0.042181 0
-0.003670 -0.018579 0
-0.004338 -0.000884 0
-0.005493 0.012143 0
-0.007274 0.021832 0
-0.009595 0.029142 0
-0.012275 0.034571 0
-0.015399 0.038409 0
-0.019119 0.041050 0
-0.023524 0.042979 0
-0.028601 0.044668 0
-0.034253 0.046471 0
-0.040381 0.048593 0
-0.046941 0.051130 0
-0.053966 0.054162 0
-0.061492 0.057796 0
-0.069540 0.062142 0
-0.078123 0.067293 0
-0.087248 0.073323 0
-0.096894 0.080286 0
-0.106971 0.088162 0
-0.117308 0.096761 0
-0.127713 0.105654 0
-0.137998 0.114193 0
-0.147951 0.121549 0
-0.157266 0.126686 0
-0.165549 0.128198 0
-0.172466 0.124198 0
-0.177920 0.112563 0
-0.182015 0.091526 0
-0.184721 0.060007 0
-0.185596 0.017272 0
-0.183617 -0.037768 0
-0.177083 -0.107266 0
-0.163811 -0.194525 0
-0.141300 -0.301891 0
-0.106354 -0.422689 0
-0.055778 -0.503353 0
-0.000625 -0.000198 0
0.000000 0.260824 0
0.000000 -0.000033 0
-0.005089 -0.062055 0
-0.008184 -0.040386 0
-0.009867 -0.017470 0
-0.011091 0.000209 0
-0.012357 0.013547 0
-0.013875 0.023633 0
-0.015680 0.031296 0
-0.017753 0.037083 0
-0.020180 0.041387 0
-0.023080 0.044605 0
-0.026535 0.047153 0
-0.030552 0.049425 0
-0.035081 0.051739 0
-0.040054 0.054309 0
-0.045432 0.057274 0
-0.051205 0.060745 0
-0.057374 0.064827 0
-0.063925 0.069617 0
-0.070835 0.075196 0
-0.078059 0.081615 0
-0.085526 0.088880 0
-0.093109 0.096913 0
-0.100634 0.105480 0
-0.107910 0.114146 0
-0.114755 0.122262 0
-0.120991 0.128971 0
-0.126417 0.133190 0
-0.130824 0.133537 0
-0.134091 0.128284 0
-0.136304 0.115518 0
-0.137708 0.093500 0
-0.138430 0.060879 0
-0.138213 0.016431 0
-0.136286 -0.041504 0
-0.131375 -0.115570 0
-0.121865 -0.209425 0
-0.105849 -0.325959 0
-0.080636 -0.459128 0
-0.042751 -0.549392 0
-0.000509 -0.000249 0
0.000000 0.285070 0
0.000000 -0.000031 0
-0.006454 -0.057012 0
-0.010769 -0.037403 0
-0.013321 -0.015672 0
-0.015052 0.001606 0
-0.016493 0.014926 0
-0.017911 0.025155 0
-0.019424 0.033021 0
-0.021103 0.039071 0
-0.023041 0.043736 0
-0.025339 0.047405 0
-0.028068 0.050451 0
-0.031250 0.053213 0
-0.034862 0.055973 0
-0.038863 0.058944 0
-0.043214 0.062281 0
-0.047887 0.066104 0
-0.052858 0.070516 0
-0.058089 0.075602 0
-0.063529 0.081426 0
-0.069108 0.088014 0
-0.074727 0.095335 0
-0.080253 0.103270 0
-0.085521 0.111562 0
-0.090360 0.119775 0
-0.094615 0.127273 0
-0.098154 0.133211 0
-0.100862 0.136519 0
-0.102665 0.135871 0
-0.103576 0.129678 0
-0.103762 0.116180 0
-0.103495 0.093652 0
-0.102953 0.060513 0
-0.101995 0.015128 0
-0.100069 -0.044606 0
-0.096260 -0.121687 0
-0.089409 -0.220051 0
-0.078107 -0.343119 0
-0.060195 -0.485787 0
-0.032267 -0.583989 0
-0.000404 -0.000291 0
0.000000 0.303483 0
0.000000 -0.000028 0
-0.006314 -0.051286 0
-0.011355 -0.033519 0
-0.014667 -0.013188 0
-0.016917 0.003381 0
-0.018602 0.016405 0
-0.020032 0.026564 0
-0.021396 0.034489 0
-0.022815 0.040700 0
-0.024398 0.045623 0
-0.026239 0.049632 0
-0.028403 0.053064 0
-0.030919 0.056220 0
-0.033781 0.059352 0
-0.036961 0.062660 0
-0.040427 0.066299 0
-0.044142 0.070389 0
-0.048066 0.075028 0
-0.052148 0.080289 0
-0.056323 0.086216 0
-0.060505 0.092813 0
-0.064591 0.100025 0
-0.068451 0.107706 0
-0.071941 0.115587 0
-0.074919 0.123241 0
-0.077262 0.130056 0
-0.078882 0.135218 0
-0.079732 0.137701 0
-0.079822 0.136250 0
-0.079241 0.129381 0
-0.078188 0.115437 0
-0.076921 0.092691 0
-0.075620 0.059378 0
-0.074224 0.013547 0
-0.072358 -0.047238 0
-0.069384 -0.126230 0
-0.064484 -0.227578 0
-0.056647 -0.355173 0
-0.044193 -0.504968 0
-0.023996 -0.609587 0
-0.000314 -0.000323 0
0.000000 0.317264 0
0.000000 -0.000026 0
-0.005693 -0.045657 0
-0.010960 -0.029049 0
-0.014743 -0.010110 0
-0.017389 0.005540 0
-0.019288 0.018042 0
-0.020768 0.027949 0
-0.022049 0.035804 0
-0.023286 0.042074 0
-0.024600 0.047160 0
-0.026080 0.051409 0
-0.027792 0.055131 0
-0.029766 0.058591 0
-0.032007 0.062016 0
-0.034495 0.065591 0
-0.037201 0.069462 0
-0.040086 0.073743 0
-0.043105 0.078521 0
-0.046198 0.083859 0
-0.049295 0.089783 0
-0.052309 0.096282 0
-0.055139 0.103281 0
-0.057668 0.110621 0
-0.059777 0.118030 0
-0.061350 0.125096 0
-0.062300 0.131237 0
-0.062576 0.135682 0
-0.062176 0.137458 0
-0.061159 0.135380 0
-0.059656 0.128044 0
-0.057869 0.113860 0
-0.056034 0.091085 0
-0.054319 0.057816 0
-0.052718 0.011866 0
-0.050992 -0.049447 0
-0.048713 -0.129561 0
-0.045316 -0.232788 0
-0.040087 -0.363410 0
-0.031751 -0.518438 0
-0.017549 -0.628182 0
-0.000241 -0.000346 0
0.000000 0.327423 0
0.000000 -0.000023 0
-0.005252 -0.040325 0
-0.010384 -0.024469 0
-0.014267 -0.006759 0
-0.017060 0.007926 0
-0.019054 0.019784 0
-0.020544 0.029324 0
-0.021751 0.037008 0
-0.022839 0.043251 0
-0.023931 0.048417 0
-0.025116 0.052824 0
-0.026454 0.056750 0
-0.027978 0.060434 0
-0.029696 0.064080 0
-0.031595 0.067854 0
-0.033648 0.071890 0
-0.035819 0.076293 0
-0.038058 0.081140 0
-0.040307 0.086479 0
-0.042496 0.092327 0
-0.044542 0.098657 0
-0.046352 0.105384 0
-0.047828 0.112344 0
-0.048871 0.119269 0
-0.049394 0.125765 0
-0.049338 0.131281 0
-0.048683 0.135094 0
-0.047456 0.136285 0
-0.045743 0.133731 0
-0.043690 0.126091 0
-0.041493 0.111815 0
-0.039365 0.089140 0
-0.037464 0.056062 0
-0.035823 0.010221 0
-0.034307 -0.051243 0
-0.032642 -0.131906 0
-0.030450 -0.236204 0
-0.027240 -0.368738 0
-0.022065 -0.527507 0
-0.012549 -0.641339 0
-0.000183 -0.000363 0
0.000000 0.334773 0
0.000000 -0.000021 0
-0.005055 -0.035273 0
-0.009906 -0.020035 0
-0.013615 -0.003434 0
-0.016315 0.010327 0
-0.018256 0.021526 0
-0.019680 0.030646 0
-0.020787 0.038099 0
-0.021729 0.044254 0
-0.022622 0.049436 0
-0.023550 0.053932 0
-0.024570 0.057993 0
-0.025710 0.061832 0
-0.026982 0.065633 0
-0.028376 0.069544 0
-0.029868 0.073686 0
-0.031423 0.078153 0
-0.032994 0.083010 0
-0.034526 0.088296 0
-0.035953 0.094018 0
-0.037200 0.100139 0
-0.038187 0.106567 0
-0.038832 0.113139 0
-0.039057 0.119596 0
-0.038799 0.125564 0
-0.038023 0.130525 0
-0.036729 0.133799 0
-0.034966 0.134519 0
-0.032830 0.131614 0
-0.030471 0.123795 0
-0.028073 0.109535 0
-0.025829 0.087055 0
-0.023891 0.054274 0
-0.022321 0.008709 0
-0.021062 -0.052628 0
-0.019953 -0.133417 0
-0.018755 -0.238190 0
-0.017147 -0.371796 0
-0.014457 -0.533129 0
-0.008662 -0.650247 0
-0.000138 -0.000373 0
0.000000 0.339945 0
0.000000 -0.000018 0
-0.005028 -0.030420 0
-0.009527 -0.015908 0
-0.012891 -0.000350 0
-0.015338 0.012567 0
-0.017105 0.023149 0
-0.018390 0.031855 0
-0.019361 0.039056 0
-0.020147 0.045086 0
-0.020852 0.050238 0
-0.021549 0.054771 0
-0.022287 0.058910 0
-0.023095 0.062847 0
-0.023980 0.066746 0
-0.024936 0.070740 0
-0.025943 0.074937 0
-0.026966 0.079419 0
-0.027965 0.084243 0
-0.028888 0.089437 0
-0.029677 0.095001 0
-0.030267 0.100892 0
-0.030590 0.107016 0
-0.030579 0.113213 0
-0.030176 0.119236 0
-0.029338 0.124731 0
-0.028048 0.129211 0
-0.026322 0.132037 0
-0.024219 0.132386 0
-0.021842 0.129236 0
-0.019335 0.121333 0
-0.016870 0.107172 0
-0.014625 0.084959 0
-0.012748 0.052555 0
-0.011322 0.007391 0
-0.010346 -0.053611 0
-0.009743 -0.134213 0
-0.009376 -0.239010 0
-0.009070 -0.373036 0
-0.008390 -0.535992 0
-0.005612 -0.655795 0
-0.000104 -0.000379 0
0.000000 0.343418 0
0.000000 -0.000015 0
-0.004988 -0.025746 0
-0.009084 -0.012171 0
-0.012038 0.002378 0
-0.014166 0.014541 0
-0.015699 0.024578 0
-0.016804 0.032902 0
-0.017613 0.039856 0
-0.018236 0.045745 0
-0.018757 0.050837 0
-0.019239 0.055367 0
-0.019724 0.059538 0
-0.020236 0.063525 0
-0.020782 0.067475 0
-0.021355 0.071506 0
-0.021939 0.075716 0
-0.022503 0.080175 0
-0.023010 0.084932 0
-0.023415 0.090008 0
-0.023668 0.095397 0
-0.023715 0.101051 0
-0.023499 0.106879 0
-0.022970 0.112725 0
-0.022083 0.118355 0
-0.020812 0.123436 0
-0.019155 0.127509 0
-0.017140 0.129970 0
-0.014831 0.130039 0
-0.012331 0.126730 0
-0.009778 0.118822 0
-0.007335 0.104825 0
-0.005164 0.082933 0
-0.003411 0.050971 0
-0.002175 0.006306 0
-0.001496 -0.054207 0
-0.001358 -0.134387 0
-0.001706 -0.238863 0
-0.002481 -0.372782 0
-0.003461 -0.536587 0
-0.003183 -0.658637 0
-0.000079 -0.000381 0
0.000000 0.345549 0
0.000000 -0.000011 0
-0.004668 -0.021336 0
-0.008351 -0.008858 0
-0.010942 0.004733 0
-0.012777 0.016228 0
-0.014080 0.025787 0
-0.014996 0.033768 0
-0.015638 0.040488 0
-0.016096 0.046230 0
-0.016439 0.051242 0
-0.016719 0.055738 0
-0.016972 0.059906 0
-0.017218 0.063905 0
-0.017462 0.067866 0
-0.017698 0.071897 0
-0.017910 0.076084 0
-0.018073 0.080490 0
-0.018156 0.085155 0
-0.018119 0.090096 0
-0.017920 0.095301 0
-0.017514 0.100723 0
-0.016859 0.106271 0
-0.015914 0.111797 0
-0.014650 0.117079 0
-0.013054 0.121803 0
-0.011133 0.125538 0
-0.008925 0.127712 0
-0.006497 0.127577 0
-0.003950 0.124183 0
-0.001415 0.116337 0
0.000958 0.102559 0
0.003010 0.081035 0
0.004596 0.049565 0
0.005604 0.005476 0
0.005961 -0.054428 0
0.005636 -0.134003 0
0.004623 -0.237887 0
0.002920 -0.371281 0
0.000627 -0.535290 0
-0.001195 -0.659256 0
-0.000061 -0.000380 0
0.000000 0.346600 0
0.000000 -0.000009 0
-0.003967 -0.017395 0
-0.007253 -0.005897 0
-0.009570 0.006804 0
-0.011177 0.017679 0
-0.012284 0.026797 0
-0.013027 0.034460 0
-0.013507 0.040955 0
-0.013803 0.046546 0
-0.013975 0.051461 0
-0.014067 0.055901 0
-0.014106 0.060037 0
-0.014109 0.064015 0
-0.014080 0.067955 0
-0.014015 0.071955 0
-0.013898 0.076091 0
-0.013710 0.080421 0
-0.013422 0.084977 0
-0.013003 0.089772 0
-0.012418 0.094792 0
-0.011633 0.099991 0
-0.010613 0.105279 0
-0.009330 0.110517 0
-0.007768 0.115495 0
-0.005921 0.119919 0
-0.003808 0.123380 0
-0.001469 0.125334 0
0.001026 0.125065 0
0.003579 0.121648 0
0.006065 0.113914 0
0.008340 0.100401 0
0.010250 0.079295 0
0.011644 0.048376 0
0.012394 0.004941 0
0.012399 -0.054238 0
0.011589 -0.133048 0
0.009914 -0.236147 0
0.007345 -0.368786 0
0.003957 -0.532472 0
0.000495 -0.658011 0
-0.000046 -0.000376 0
0.000000 0.346749 0
0.000000 -0.000006 0
-0.003160 -0.014083 0
-0.005996 -0.003255 0
-0.008039 0.008657 0
-0.009443 0.018942 0
-0.010372 0.027636 0
-0.010953 0.034991 0
-0.011279 0.041265 0
-0.011421 0.046699 0
-0.011429 0.051505 0
-0.011342 0.055868 0
-0.011181 0.059949 0
-0.010961 0.063879 0
-0.010685 0.067772 0
-0.010347 0.071715 0
-0.009937 0.075779 0
-0.009435 0.080013 0
-0.008821 0.084448 0
-0.008069 0.089093 0
-0.007151 0.093931 0
-0.006040 0.098917 0
-0.004712 0.103968 0
-0.003149 0.108952 0
-0.001341 0.113669 0
0.000705 0.117843 0
0.002967 0.121086 0
0.005401 0.122878 0
0.007935 0.122530 0
0.010475 0.119145 0
0.012898 0.111575 0
0.015063 0.098373 0
0.016818 0.077732 0
0.018007 0.047422 0
0.018487 0.004720 0
0.018131 -0.053624 0
0.016836 -0.131518 0
0.014516 -0.233643 0
0.011112 -0.365324 0
0.006682 -0.528440 0
0.001916 -0.655299 0
-0.000035 -0.000371 0
0.000000 0.346114 0
0.000000 -0.000005 0
-0.002478 -0.011399 0
-0.004802 -0.001018 0
-0.006510 0.010251 0
-0.007678 0.020012 0
-0.008419 0.028308 0
-0.008836 0.035367 0
-0.009010 0.041423 0
-0.009001 0.046696 0
-0.008851 0.051382 0
-0.008593 0.055653 0
-0.008245 0.059656 0
-0.007818 0.063518 0
-0.007313 0.067341 0
-0.006727 0.071207 0
-0.006050 0.075180 0
-0.005267 0.079305 0
-0.004362 0.083610 0
-0.003313 0.088102 0
-0.002101 0.092763 0
-0.000706 0.097552 0
0.000889 0.102388 0
0.002693 0.107147 0
0.004708 0.111642 0
0.006923 0.115610 0
0.009309 0.118685 0
0.011819 0.120366 0
0.014381 0.119990 0
0.016900 0.116685 0
0.019257 0.109326 0
0.021314 0.096481 0
0.022914 0.076351 0
0.023899 0.046707 0
0.024108 0.004817 0
0.023395 -0.052588 0
0.021628 -0.129433 0
0.018693 -0.230423 0
0.014507 -0.360952 0
0.009092 -0.523275 0
0.003113 -0.651329 0
-0.000028 -0.000364 0
0.000000 0.344846 0
0.000000 -0.000003 0
-0.001933 -0.009282 0
-0.003740 0.000776 0
-0.005066 0.011533 0
-0.005957 0.020852 0
-0.006486 0.028795 0
-0.006728 0.035582 0
-0.006746 0.041429 0
-0.006586 0.046540 0
-0.006283 0.051098 0
-0.005862 0.055262 0
-0.005336 0.059173 0
-0.004714 0.062947 0
-0.003996 0.066681 0
-0.003180 0.070452 0
-0.002258 0.074319 0
-0.001218 0.078325 0
-0.000048 0.082494 0
0.001268 0.086832 0
0.002745 0.091324 0
0.004395 0.095928 0
0.006228 0.100570 0
0.008247 0.105132 0
0.010448 0.109439 0
0.012814 0.113242 0
0.015311 0.116190 0
0.017891 0.117807 0
0.020479 0.117448 0
0.022983 0.114268 0
0.025283 0.107162 0
0.027240 0.094717 0
0.028697 0.075147 0
0.029486 0.046228 0
0.029434 0.005224 0
0.028373 -0.051143 0
0.026150 -0.126815 0
0.022625 -0.226522 0
0.017689 -0.355723 0
0.011333 -0.517046 0
0.004199 -0.646207 0
-0.000023 -0.000356 0
0.000000 0.343016 0
0.000000 -0.000002 0
-0.001488 -0.007660 0
-0.002797 0.002115 0
-0.003723 0.012468 0
-0.004311 0.021431 0
-0.004609 0.029079 0
-0.004666 0.035627 0
-0.004524 0.041281 0
-0.004213 0.046233 0
-0.003760 0.050657 0
-0.003181 0.054705 0
-0.002484 0.058508 0
-0.001677 0.062179 0
-0.000759 0.065807 0
0.000272 0.069468 0
0.001423 0.073218 0
0.002702 0.077095 0
0.004117 0.081123 0
0.005680 0.085309 0
0.007401 0.089637 0
0.009286 0.094069 0
0.011339 0.098535 0
0.013558 0.102926 0
0.015933 0.107076 0
0.018442 0.110747 0
0.021049 0.113608 0
0.023701 0.115198 0
0.026325 0.114898 0
0.028825 0.111882 0
0.031083 0.105069 0
0.032958 0.093067 0
0.034289 0.074105 0
0.034899 0.045970 0
0.034601 0.005929 0
0.033209 -0.049305 0
0.030548 -0.123685 0
0.026452 -0.221961 0
0.020783 -0.349659 0
0.013499 -0.509785 0
0.005232 -0.639996 0
-0.000021 -0.000346 0
0.000000 0.340664 0
0.000000 -0.000002 0
-0.001078 -0.006485 0
-0.001919 0.003012 0
-0.002455 0.013047 0
-0.002740 0.021738 0
-0.002804 0.029151 0
-0.002673 0.035496 0
-0.002370 0.040976 0
-0.001911 0.045777 0
-0.001311 0.050065 0
-0.000578 0.053986 0
0.000282 0.057670 0
0.001267 0.061222 0
0.002376 0.064732 0
0.003612 0.068269 0
0.004980 0.071890 0
0.006485 0.075631 0
0.008132 0.079515 0
0.009928 0.083549 0
0.011878 0.087719 0
0.013986 0.091990 0
0.016249 0.096297 0
0.018660 0.100538 0
0.021206 0.104556 0
0.023859 0.108126 0
0.026581 0.110931 0
0.029317 0.112531 0
0.031992 0.112324 0
0.034508 0.109510 0
0.036747 0.103029 0
0.038563 0.091511 0
0.039792 0.073206 0
0.040245 0.045915 0
0.039723 0.006914 0
0.038019 -0.047090 0
0.034936 -0.120058 0
0.030281 -0.216756 0
0.023886 -0.342770 0
0.015672 -0.501496 0
0.006261 -0.632708 0
-0.000020 -0.000336 0
0.000000 0.337804 0
0.000000 -0.000001 0
-0.000643 -0.005741 0
-0.001049 0.003492 0
-0.001229 0.013289 0
-0.001232 0.021780 0
-0.001074 0.029013 0
-0.000764 0.035193 0
-0.000305 0.040518 0
0.000297 0.045174 0
0.001040 0.049325 0
0.001922 0.053112 0
0.002941 0.056663 0
0.004097 0.060085 0
0.005392 0.063462 0
0.006826 0.066864 0
0.008402 0.070346 0
0.010124 0.073943 0
0.011994 0.077680 0
0.014015 0.081562 0
0.016188 0.085579 0
0.018511 0.089699 0
0.020980 0.093861 0
0.023584 0.097969 0
0.026303 0.101877 0
0.029108 0.105371 0
0.031958 0.108149 0
0.034795 0.109788 0
0.037541 0.109707 0
0.040099 0.107127 0
0.042345 0.101014 0
0.044132 0.090022 0
0.045286 0.072423 0
0.045611 0.046039 0
0.044889 0.008156 0
0.042894 -0.044518 0
0.039406 -0.115947 0
0.034202 -0.210912 0
0.027079 -0.335051 0
0.017917 -0.492160 0
0.007326 -0.624324 0
-0.000021 -0.000324 0
0.000000 0.334426 0
0.000000 -0.000001 0
-0.000170 -0.005436 0
-0.000172 0.003598 0
-0.000034 0.013230 0
0.000215 0.021583 0
0.000574 0.028683 0
0.001050 0.034727 0
0.001653 0.039915 0
0.002390 0.044432 0
0.003271 0.048440 0
0.004297 0.052086 0
0.005471 0.055494 0
0.006795 0.058771 0
0.008271 0.062003 0
0.009898 0.065259 0
0.011679 0.068592 0
0.013613 0.072039 0
0.015701 0.075624 0
0.017943 0.079355 0
0.020335 0.083222 0
0.022875 0.087197 0
0.025552 0.091225 0
0.028352 0.095215 0
0.031253 0.099031 0
0.034223 0.102471 0
0.037218 0.105245 0
0.040177 0.106948 0
0.043022 0.107020 0
0.045650 0.104706 0