# vtk DataFile Version 2.0
generated by CFD-lab course output (written by Tobias Neckel) 
ASCII

DATASET STRUCTURED_GRID
DIMENSIONS  42 42 1 
POINTS 1764 float

0.150000 0.150000 0
0.167857 0.150000 0
0.185714 0.150000 0
0.203571 0.150000 0
0.221429 0.150000 0
0.239286 0.150000 0
0.257143 0.150000 0
0.275000 0.150000 0
0.292857 0.150000 0
0.310714 0.150000 0
0.328571 0.150000 0
0.346429 0.150000 0
0.364286 0.150000 0
0.382143 0.150000 0
0.400000 0.150000 0
0.417857 0.150000 0
0.435714 0.150000 0
0.453571 0.150000 0
0.471429 0.150000 0
0.489286 0.150000 0
0.507143 0.150000 0
0.525000 0.150000 0
0.542857 0.150000 0
0.560714 0.150000 0
0.578571 0.150000 0
0.596429 0.150000 0
0.614286 0.150000 0
0.632143 0.150000 0
0.650000 0.150000 0
0.667857 0.150000 0
0.685714 0.150000 0
0.703571 0.150000 0
0.721429 0.150000 0
0.739286 0.150000 0
0.757143 0.150000 0
0.775000 0.150000 0
0.792857 0.150000 0
0.810714 0.150000 0
0.828571 0.150000 0
0.846429 0.150000 0
0.864286 0.150000 0
0.882143 0.150000 0
0.150000 0.167857 0
0.167857 0.167857 0
0.185714 0.167857 0
0.203571 0.167857 0
0.221429 0.167857 0
0.239286 0.167857 0
0.257143 0.167857 0
0.275000 0.167857 0
0.292857 0.167857 0
0.310714 0.167857 0
0.328571 0.167857 0
0.346429 0.167857 0
0.364286 0.167857 0
0.382143 0.167857 0
0.400000 0.167857 0
0.417857 0.167857 0
0.435714 0.167857 0
0.453571 0.167857 0
0.471429 0.167857 0
0.489286 0.167857 0
0.507143 0.167857 0
0.525000 0.167857 0
0.542857 0.167857 0
0.560714 0.167857 0
0.578571 0.167857 0
0.596429 0.167857 0
0.614286 0.167857 0
0.632143 0.167857 0
0.650000 0.167857 0
0.667857 0.167857 0
0.685714 0.167857 0
0.703571 0.167857 0
0.721429 0.167857 0
0.739286 0.167857 0
0.757143 0.167857 0
0.775000 0.167857 0
0.792857 0.167857 0
0.810714 0.167857 0
0.828571 0.167857 0
0.846429 0.167857 0
0.864286 0.167857 0
0.882143 0.167857 0
0.150000 0.185714 0
0.167857 0.185714 0
0.185714 0.185714 0
0.203571 0.185714 0
0.221429 0.185714 0
0.239286 0.185714 0
0.257143 0.185714 0
0.275000 0.185714 0
0.292857 0.185714 0
0.310714 0.185714 0
0.328571 0.185714 0
0.346429 0.185714 0
0.364286 0.185714 0
0.382143 0.185714 0
0.400000 0.185714 0
0.417857 0.185714 0
0.435714 0.185714 0
0.453571 0.185714 0
0.471429 0.185714 0
0.489286 0.185714 0
0.507143 0.185714 0
0.525000 0.185714 0
0.542857 0.185714 0
0.560714 0.185714 0
0.578571 0.185714 0
0.596429 0.185714 0
0.614286 0.185714 0
0.632143 0.185714 0
0.650000 0.185714 0
0.667857 0.185714 0
0.685714 0.185714 0
0.703571 0.185714 0
0.721429 0.185714 0
0.739286 0.185714 0
0.757143 0.185714 0
0.775000 0.185714 0
0.792857 0.185714 0
0.810714 0.185714 0
0.828571 0.185714 0
0.846429 0.185714 0
0.864286 0.185714 0
0.882143 0.185714 0
0.150000 0.203571 0
0.167857 0.203571 0
0.185714 0.203571 0
0.203571 0.203571 0
0.221429 0.203571 0
0.239286 0.203571 0
0.257143 0.203571 0
0.275000 0.203571 0
0.292857 0.203571 0
0.310714 0.203571 0
0.328571 0.203571 0
0.346429 0.203571 0
0.364286 0.203571 0
0.382143 0.203571 0
0.400000 0.203571 0
0.417857 0.203571 0
0.435714 0.203571 0
0.453571 0.203571 0
0.471429 0.203571 0
0.489286 0.203571 0
0.507143 0.203571 0
0.525000 0.203571 0
0.542857 0.203571 0
0.560714 0.203571 0
0.578571 0.203571 0
0.596429 0.203571 0
0.614286 0.203571 0
0.632143 0.203571 0
0.650000 0.203571 0
0.667857 0.203571 0
0.685714 0.203571 0
0.703571 0.203571 0
0.721429 0.203571 0
0.739286 0.203571 0
0.757143 0.203571 0
0.775000 0.203571 0
0.792857 0.203571 0
0.810714 0.203571 0
0.828571 0.203571 0
0.846429 0.203571 0
0.864286 0.203571 0
0.882143 0.203571 0
0.150000 0.221429 0
0.167857 0.221429 0
0.185714 0.221429 0
0.203571 0.221429 0
0.221429 0.221429 0
0.239286 0.221429 0
0.257143 0.221429 0
0.275000 0.221429 0
0.292857 0.221429 0
0.310714 0.221429 0
0.328571 0.221429 0
0.346429 0.221429 0
0.364286 0.221429 0
0.382143 0.221429 0
0.400000 0.221429 0
0.417857 0.221429 0
0.435714 0.221429 0
0.453571 0.221429 0
0.471429 0.221429 0
0.489286 0.221429 0
0.507143 0.221429 0
0.525000 0.221429 0
0.542857 0.221429 0
0.560714 0.221429 0
0.578571 0.221429 0
0.596429 0.221429 0
0.614286 0.221429 0
0.632143 0.221429 0
0.650000 0.221429 0
0.667857 0.221429 0
0.685714 0.221429 0
0.703571 0.221429 0
0.721429 0.221429 0
0.739286 0.221429 0
0.757143 0.221429 0
0.775000 0.221429 0
0.792857 0.221429 0
0.810714 0.221429 0
0.828571 0.221429 0
0.846429 0.221429 0
0.864286 0.221429 0
0.882143 0.221429 0
0.150000 0.239286 0
0.167857 0.239286 0
0.185714 0.239286 0
0.203571 0.239286 0
0.221429 0.239286 0
0.239286 0.239286 0
0.257143 0.239286 0
0.275000 0.239286 0
0.292857 0.239286 0
0.310714 0.239286 0
0.328571 0.239286 0
0.346429 0.239286 0
0.364286 0.239286 0
0.382143 0.239286 0
0.400000 0.239286 0
0.417857 0.239286 0
0.435714 0.239286 0
0.453571 0.239286 0
0.471429 0.239286 0
0.489286 0.239286 0
0.507143 0.239286 0
0.525000 0.239286 0
0.542857 0.239286 0
0.560714 0.239286 0
0.578571 0.239286 0
0.596429 0.239286 0
0.614286 0.239286 0
0.632143 0.239286 0
0.650000 0.239286 0
0.667857 0.239286 0
0.685714 0.239286 0
0.703571 0.239286 0
0.721429 0.239286 0
0.739286 0.239286 0
0.757143 0.239286 0
0.775000 0.239286 0
0.792857 0.239286 0
0.810714 0.239286 0
0.828571 0.239286 0
0.846429 0.239286 0
0.864286 0.239286 0
0.882143 0.239286 0
0.150000 0.257143 0
0.167857 0.257143 0
0.185714 0.257143 0
0.203571 0.257143 0
0.221429 0.257143 0
0.239286 0.257143 0
0.257143 0.257143 0
0.275000 0.257143 0
0.292857 0.257143 0
0.310714 0.257143 0
0.328571 0.257143 0
0.346429 0.257143 0
0.364286 0.257143 0
0.382143 0.257143 0
0.400000 0.257143 0
0.417857 0.257143 0
0.435714 0.257143 0
0.453571 0.257143 0
0.471429 0.257143 0
0.489286 0.257143 0
0.507143 0.257143 0
0.525000 0.257143 0
0.542857 0.257143 0
0.560714 0.257143 0
0.578571 0.257143 0
0.596429 0.257143 0
0.614286 0.257143 0
0.632143 0.257143 0
0.650000 0.257143 0
0.667857 0.257143 0
0.685714 0.257143 0
0.703571 0.257143 0
0.721429 0.257143 0
0.739286 0.257143 0
0.757143 0.257143 0
0.775000 0.257143 0
0.792857 0.257143 0
0.810714 0.257143 0
0.828571 0.257143 0
0.846429 0.257143 0
0.864286 0.257143 0
0.882143 0.257143 0
0.150000 0.275000 0
0.167857 0.275000 0
0.185714 0.275000 0
0.203571 0.275000 0
0.221429 0.275000 0
0.239286 0.275000 0
0.257143 0.275000 0
0.275000 0.275000 0
0.292857 0.275000 0
0.310714 0.275000 0
0.328571 0.275000 0
0.346429 0.275000 0
0.364286 0.275000 0
0.382143 0.275000 0
0.400000 0.275000 0
0.417857 0.275000 0
0.435714 0.275000 0
0.453571 0.275000 0
0.471429 0.275000 0
0.489286 0.275000 0
0.507143 0.275000 0
0.525000 0.275000 0
0.542857 0.275000 0
0.560714 0.275000 0
0.578571 0.275000 0
0.596429 0.275000 0
0.614286 0.275000 0
0.632143 0.275000 0
0.650000 0.275000 0
0.667857 0.275000 0
0.685714 0.275000 0
0.703571 0.275000 0
0.721429 0.275000 0
0.739286 0.275000 0
0.757143 0.275000 0
0.775000 0.275000 0
0.792857 0.275000 0
0.810714 0.275000 0
0.828571 0.275000 0
0.846429 0.275000 0
0.864286 0.275000 0
0.882143 0.275000 0
0.150000 0.292857 0
0.167857 0.292857 0
0.185714 0.292857 0
0.203571 0.292857 0
0.221429 0.292857 0
0.239286 0.292857 0
0.257143 0.292857 0
0.275000 0.292857 0
0.292857 0.292857 0
0.310714 0.292857 0
0.328571 0.292857 0
0.346429 0.292857 0
0.364286 0.292857 0
0.382143 0.292857 0
0.400000 0.292857 0
0.417857 0.292857 0
0.435714 0.292857 0
0.453571 0.292857 0
0.471429 0.292857 0
0.489286 0.292857 0
0.507143 0.292857 0
0.525000 0.292857 0
0.542857 0.292857 0
0.560714 0.292857 0
0.578571 0.292857 0
0.596429 0.292857 0
0.614286 0.292857 0
0.632143 0.292857 0
0.650000 0.292857 0
0.667857 0.292857 0
0.685714 0.292857 0
0.703571 0.292857 0
0.721429 0.292857 0
0.739286 0.292857 0
0.757143 0.292857 0
0.775000 0.292857 0
0.792857 0.292857 0
0.810714 0.292857 0
0.828571 0.292857 0
0.846429 0.292857 0
0.864286 0.292857 0
0.882143 0.292857 0
0.150000 0.310714 0
0.167857 0.310714 0
0.185714 0.310714 0
0.203571 0.310714 0
0.221429 0.310714 0
0.239286 0.310714 0
0.257143 0.310714 0
0.275000 0.310714 0
0.292857 0.310714 0
0.310714 0.310714 0
0.328571 0.310714 0
0.346429 0.310714 0
0.364286 0.310714 0
0.382143 0.310714 0
0.400000 0.310714 0
0.417857 0.310714 0
0.435714 0.310714 0
0.453571 0.310714 0
0.471429 0.310714 0
0.489286 0.310714 0
0.507143 0.310714 0
0.525000 0.310714 0
0.542857 0.310714 0
0.560714 0.310714 0
0.578571 0.310714 0
0.596429 0.310714 0
0.614286 0.310714 0
0.632143 0.310714 0
0.650000 0.310714 0
0.667857 0.310714 0
0.685714 0.310714 0
0.703571 0.310714 0
0.721429 0.310714 0
0.739286 0.310714 0
0.757143 0.310714 0
0.775000 0.310714 0
0.792857 0.310714 0
0.810714 0.310714 0
0.828571 0.310714 0
0.846429 0.310714 0
0.864286 0.310714 0
0.882143 0.310714 0
0.150000 0.328571 0
0.167857 0.328571 0
0.185714 0.328571 0
0.203571 0.328571 0
0.221429 0.328571 0
0.239286 0.328571 0
0.257143 0.328571 0
0.275000 0.328571 0
0.292857 0.328571 0
0.310714 0.328571 0
0.328571 0.328571 0
0.346429 0.328571 0
0.364286 0.328571 0
0.382143 0.328571 0
0.400000 0.328571 0
0.417857 0.328571 0
0.435714 0.328571 0
0.453571 0.328571 0
0.471429 0.328571 0
0.489286 0.328571 0
0.507143 0.328571 0
0.525000 0.328571 0
0.542857 0.328571 0
0.560714 0.328571 0
0.578571 0.328571 0
0.596429 0.328571 0
0.614286 0.328571 0
0.632143 0.328571 0
0.650000 0.328571 0
0.667857 0.328571 0
0.685714 0.328571 0
0.703571 0.328571 0
0.721429 0.328571 0
0.739286 0.328571 0
0.757143 0.328571 0
0.775000 0.328571 0
0.792857 0.328571 0
0.810714 0.328571 0
0.828571 0.328571 0
0.846429 0.328571 0
0.864286 0.328571 0
0.882143 0.328571 0
0.150000 0.346429 0
0.167857 0.346429 0
0.185714 0.346429 0
0.203571 0.346429 0
0.221429 0.346429 0
0.239286 0.346429 0
0.257143 0.346429 0
0.275000 0.346429 0
0.292857 0.346429 0
0.310714 0.346429 0
0.328571 0.346429 0
0.346429 0.346429 0
0.364286 0.346429 0
0.382143 0.346429 0
0.400000 0.346429 0
0.417857 0.346429 0
0.435714 0.346429 0
0.453571 0.346429 0
0.471429 0.346429 0
0.489286 0.346429 0
0.507143 0.346429 0
0.525000 0.346429 0
0.542857 0.346429 0
0.560714 0.346429 0
0.578571 0.346429 0
0.596429 0.346429 0
0.614286 0.346429 0
0.632143 0.346429 0
0.650000 0.346429 0
[...]
POINT_DATA 1764 

VECTORS velocity float
0.000000 0.000000 0
-0.000002 0.000000 0
-0.000002 0.000000 0
0.000001 0.000000 0
0.000003 0.000000 0
-0.000011 0.000000 0
0.000006 0.000000 0
0.000027 0.000000 0
0.000035 0.000000 0
0.000036 0.000000 0
0.000036 0.000000 0
0.000035 0.000000 0
0.000033 0.000000 0
0.000030 0.000000 0
0.000028 0.000000 0
0.000025 0.000000 0
0.000023 0.000000 0
0.000022 0.000000 0
0.000021 0.000000 0
0.000020 0.000000 0
0.000020 0.000000 0
0.000020 0.000000 0
0.000020 0.000000 0
0.000021 0.000000 0
0.000021 0.000000 0
0.000022 0.000000 0
0.000023 0.000000 0
0.000023 0.000000 0
0.000024 0.000000 0
0.000024 0.000000 0
0.000025 0.000000 0
0.000025 0.000000 0
0.000025 0.000000 0
0.000026 0.000000 0
0.000026 0.000000 0
0.000026 0.000000 0
0.000025 0.000000 0
0.000023 0.000000 0
0.000018 0.000000 0
0.000011 0.000000 0
0.000000 0.000000 0
0.000000 0.000000 0
0.000000 0.000002 0
0.058604 -0.053456 0
0.090362 -0.022609 0
0.100971 0.004360 0
0.081802 0.009551 0
0.046821 0.000219 0
0.002704 0.022462 0
-0.054352 0.058048 0
-0.119910 0.069305 0
-0.185350 0.067725 0
-0.246872 0.063276 0
-0.302334 0.057137 0
-0.350869 0.050318 0
-0.392422 0.043539 0
-0.427452 0.037257 0
-0.456687 0.031703 0
-0.480935 0.026936 0
-0.500973 0.022903 0
-0.517476 0.019505 0
-0.530999 0.016619 0
-0.541969 0.014126 0
-0.550698 0.011912 0
-0.557389 0.009879 0
-0.562148 0.007913 0
-0.564976 0.005890 0
-0.565778 0.003697 0
-0.564359 0.001210 0
-0.560539 -0.001680 0
-0.553935 -0.005096 0
-0.544033 -0.009190 0
-0.530123 -0.014201 0
-0.511256 -0.020441 0
-0.486203 -0.028243 0
-0.453427 -0.037961 0
-0.411088 -0.049858 0
-0.357181 -0.063872 0
-0.289988 -0.078958 0
-0.209292 -0.091690 0
-0.119316 -0.092035 0
-0.035733 -0.047486 0
0.000015 0.000011 0
0.000000 0.003879 0
0.000000 0.000002 0
0.029557 -0.090362 0
0.041293 -0.042367 0
0.021273 0.008560 0
-0.012909 0.054150 0
-0.075674 0.079099 0
-0.153265 0.101174 0
-0.215569 0.122614 0
-0.270551 0.130997 0
-0.322636 0.126962 0
-0.369486 0.116984 0
-0.409989 0.103997 0
-0.443974 0.090088 0
-0.471841 0.076583 0
-0.494289 0.064265 0
-0.512116 0.053483 0
-0.526086 0.044286 0
-0.536875 0.036541 0
-0.545036 0.030026 0
-0.550995 0.024493 0
-0.555065 0.019699 0
-0.557456 0.015419 0
-0.558291 0.011450 0
-0.557609 0.007587 0
-0.555402 0.003630 0
-0.551586 -0.000617 0
-0.546161 -0.005239 0
-0.538909 -0.010424 0
-0.529554 -0.016506 0
-0.517690 -0.023812 0
-0.502747 -0.032777 0
-0.484015 -0.043920 0
-0.460576 -0.057829 0
-0.431292 -0.075116 0
-0.394790 -0.096246 0
-0.349519 -0.121099 0
-0.293981 -0.147889 0
-0.227331 -0.170672 0
-0.151016 -0.173559 0
-0.071498 -0.119316 0
-0.000154 0.000019 0
0.000000 0.035752 0
0.000000 -0.000001 0
-0.014156 -0.094748 0
-0.041582 -0.014325 0
-0.088754 0.058562 0
-0.135938 0.106498 0
-0.188895 0.140575 0
-0.245065 0.162357 0
-0.294060 0.175334 0
-0.333990 0.176373 0
-0.367753 0.166660 0
-0.395554 0.150629 0
-0.417783 0.131624 0
-0.435084 0.112170 0
-0.448275 0.093855 0
-0.458179 0.077532 0
-0.465525 0.063500 0
-0.470894 0.051695 0
-0.474721 0.041853 0
-0.477310 0.033625 0
-0.478860 0.026649 0
-0.479485 0.020587 0
-0.479236 0.015138 0
-0.478116 0.010033 0
-0.476091 0.005024 0
-0.473120 -0.000134 0
-0.469166 -0.005543 0
-0.464140 -0.011467 0
-0.457782 -0.018287 0
-0.449862 -0.026315 0
-0.440066 -0.035997 0
-0.427994 -0.047876 0
-0.413155 -0.062612 0
-0.394928 -0.080966 0
-0.372547 -0.103747 0
-0.345061 -0.131631 0
-0.311282 -0.164681 0
-0.269697 -0.201145 0
-0.218396 -0.234655 0
-0.155274 -0.247868 0
-0.079384 -0.198502 0
-0.000281 0.000024 0
0.000000 0.075389 0
0.000000 -0.000011 0
-0.051378 -0.048780 0
-0.108455 0.032231 0
-0.153466 0.102915 0
-0.199810 0.154290 0
-0.243567 0.188226 0
-0.284165 0.206338 0
-0.317490 0.211539 0
-0.342242 0.204690 0
-0.360188 0.188526 0
-0.372603 0.167015 0
-0.380779 0.143527 0
-0.385892 0.120580 0
-0.388953 0.099678 0
-0.390742 0.081515 0
-0.391794 0.066197 0
-0.392427 0.053481 0
-0.392803 0.042957 0
-0.392967 0.034166 0
-0.392896 0.026668 0
-0.392523 0.020075 0
-0.391757 0.014050 0
-0.390501 0.008305 0
-0.388657 0.002591 0
-0.386133 -0.003296 0
-0.382895 -0.009597 0
-0.378695 -0.016622 0
-0.373439 -0.024702 0
-0.366950 -0.034222 0
-0.359027 -0.045680 0
-0.349417 -0.059688 0
-0.337805 -0.076986 0
-0.323811 -0.098436 0
-0.306967 -0.124983 0
-0.286687 -0.157512 0
-0.262148 -0.196464 0
-0.231999 -0.240774 0
-0.193784 -0.285095 0
-0.143318 -0.312571 0
-0.075881 -0.274590 0
-0.000357 0.000028 0
0.000000 0.115145 0
0.000000 -0.000020 0
-0.067350 0.013706 0
-0.128166 0.087763 0
-0.177900 0.149917 0
-0.221124 0.196599 0
-0.257052 0.224930 0
-0.285864 0.236280 0
-0.306438 0.233411 0
-0.319000 0.219071 0
-0.325292 0.197021 0
-0.327094 0.171220 0
-0.326111 0.144913 0
-0.323724 0.120344 0
-0.320937 0.098705 0
-0.318371 0.080372 0
-0.316328 0.065185 0
-0.314881 0.052705 0
-0.313957 0.042393 0
-0.313404 0.033718 0
-0.313037 0.026204 0
-0.312666 0.019448 0
-0.312107 0.013117 0
-0.311197 0.006932 0
-0.309793 0.000655 0
-0.307778 -0.005895 0
-0.305062 -0.012981 0
-0.301525 -0.020924 0
-0.297093 -0.030033 0
-0.291674 -0.040727 0
-0.285155 -0.053530 0
-0.277385 -0.069098 0
-0.268171 -0.088218 0
-0.257269 -0.111805 0
-0.244393 -0.140871 0
-0.229201 -0.176449 0
-0.211207 -0.219368 0
-0.189454 -0.269510 0
-0.161699 -0.323336 0
-0.123145 -0.365772 0
-0.066930 -0.341820 0
-0.000384 0.000029 0
0.000000 0.151275 0
0.000000 -0.000021 0
-0.068280 0.079386 0
-0.127192 0.142782 0
-0.176273 0.195873 0
-0.215260 0.233442 0
-0.244415 0.252966 0
-0.264441 0.255725 0
-0.275798 0.244675 0
-0.279777 0.223544 0
-0.278385 0.196620 0
-0.273656 0.167834 0
-0.267414 0.140157 0
-0.261028 0.115405 0
-0.255377 0.094325 0
-0.250890 0.076907 0
-0.247665 0.062708 0
-0.245587 0.051110 0
-0.244428 0.041479 0
-0.243912 0.033246 0
-0.243759 0.025931 0
-0.243706 0.019145 0
-0.243519 0.012581 0
-0.242996 0.005991 0
-0.241981 -0.000828 0
-0.240374 -0.008027 0
-0.238062 -0.015850 0
-0.235015 -0.024591 0
-0.231210 -0.034552 0
-0.226630 -0.046161 0
-0.221241 -0.059969 0
-0.214973 -0.076671 0
-0.207702 -0.097102 0
-0.199241 -0.122215 0
-0.189359 -0.153051 0
-0.177807 -0.190697 0
-0.164311 -0.236210 0
-0.148361 -0.290283 0
-0.128429 -0.351404 0
-0.100230 -0.407340 0
-0.055846 -0.397735 0
-0.000374 0.000030 0
0.000000 0.182077 0
0.000000 -0.000022 0
-0.060091 0.140898 0
-0.115308 0.195756 0
-0.160127 0.237985 0
-0.193977 0.264741 0
-0.217202 0.274111 0
-0.230751 0.267664 0
-0.235848 0.248747 0
-0.234327 0.221657 0
-0.228369 0.190900 0
-0.220074 0.160249 0
-0.211217 0.132285 0
-0.203051 0.108307 0
-0.196291 0.088567 0
-0.191203 0.072661 0
-0.187739 0.059882 0
-0.185668 0.049467 0
-0.184675 0.040717 0
-0.184425 0.033049 0
-0.184593 0.025999 0
-0.184881 0.019208 0
-0.185033 0.012407 0
-0.184831 0.005394 0
-0.184115 -0.001967 0
-0.182791 -0.009813 0
-0.180771 -0.018340 0
-0.178082 -0.027776 0
-0.174761 -0.038418 0
-0.170866 -0.050695 0
-0.166443 -0.065186 0
-0.161495 -0.082637 0
-0.155950 -0.103950 0
-0.149644 -0.130148 0
-0.142332 -0.162305 0
-0.133742 -0.201497 0
-0.123658 -0.248815 0
-0.111879 -0.305392 0
-0.097681 -0.371467 0
-0.077942 -0.438354 0
-0.044626 -0.442049 0
-0.000339 0.000029 0
0.000000 0.207121 0
0.000000 -0.000022 0
-0.050395 0.194694 0
-0.098446 0.242818 0
-0.137083 0.274541 0
-0.165344 0.290517 0
-0.183397 0.289741 0
-0.192203 0.274371 0
-0.193243 0.248251 0
-0.188507 0.216065 0
-0.180165 0.182367 0
-0.170240 0.150683 0
-0.160372 0.123133 0
-0.151670 0.100479 0
-0.144714 0.082478 0
-0.139652 0.068355 0
-0.136351 0.057172 0
-0.134518 0.048046 0
-0.133805 0.040237 0
-0.133851 0.033163 0
-0.134319 0.026387 0
-0.134903 0.019585 0
-0.135336 0.012530 0
-0.135397 0.005073 0
-0.134919 -0.002868 0
-0.133796 -0.011371 0
-0.131993 -0.020559 0
-0.129569 -0.030601 0
-0.126617 -0.041768 0
-0.123268 -0.054479 0
-0.119648 -0.069340 0
-0.115833 -0.087164 0
-0.111810 -0.108952 0
-0.107434 -0.135833 0
-0.102431 -0.168954 0
-0.096473 -0.209371 0
-0.089309 -0.258073 0
-0.080873 -0.316259 0
-0.071038 -0.385341 0
-0.057994 -0.460394 0
-0.034340 -0.475678 0
-0.000293 0.000029 0
0.000000 0.226703 0
0.000000 -0.000022 0
-0.040148 0.239344 0
-0.079880 0.282444 0
-0.111685 0.304883 0
-0.134409 0.311056 0
-0.148039 0.300970 0
-0.153412 0.277509 0
-0.151967 0.245050 0
-0.145592 0.208579 0
-0.136288 0.172633 0
-0.125901 0.140456 0
-0.115913 0.113715 0
-0.107309 0.092648 0
-0.100580 0.076549 0
-0.095807 0.064298 0
-0.092810 0.054749 0
-0.091275 0.046922 0
-0.090841 0.040050 0
-0.091151 0.033563 0
-0.091870 0.027050 0
-0.092697 0.020225 0
-0.093367 0.012901 0
-0.093656 0.004978 0
-0.093391 -0.003568 0
-0.092465 -0.012739 0
-0.090863 -0.022567 0
-0.088666 -0.033152 0
-0.086013 -0.044718 0
-0.083097 -0.057665 0
-0.080117 -0.072621 0
-0.077226 -0.090474 0
-0.074474 -0.112350 0
-0.071746 -0.139527 0
-0.068757 -0.173266 0
-0.065132 -0.214619 0
-0.060573 -0.264414 0
-0.055047 -0.323663 0
-0.048752 -0.394346 0
-0.040980 -0.475053 0
-0.025431 -0.500044 0
-0.000245 0.000028 0
0.000000 0.241460 0
0.000000 -0.000020 0
-0.030015 0.274575 0
-0.061381 0.314356 0
-0.086461 0.329070 0
-0.104045 0.326870 0
-0.113991 0.308743 0
-0.116945 0.278299 0
-0.114138 0.240431 0
-0.107189 0.200385 0
-0.097825 0.162677 0
-0.087656 0.130308 0
-0.078006 0.104541 0
-0.069782 0.085145 0
-0.063434 0.070976 0
-0.059013 0.060585 0
-0.056320 0.052640 0
-0.055036 0.046077 0
-0.054810 0.040112 0
-0.055303 0.034192 0
-0.056197 0.027933 0
-0.057205 0.021082 0
-0.058073 0.013489 0
-0.058580 0.005097 0
-0.058548 -0.004059 0
-0.057865 -0.013898 0
-0.056514 -0.024357 0
-0.054573 -0.035451 0
-0.052209 -0.047337 0
-0.049664 -0.060375 0
-0.047197 -0.075211 0
-0.045035 -0.092807 0
-0.043295 -0.114433 0
-0.041905 -0.141549 0
-0.040586 -0.175567 0
-0.038944 -0.217555 0
-0.036663 -0.268158 0
-0.033721 -0.328080 0
-0.030441 -0.399408 0
-0.026861 -0.483716 0
-0.017971 -0.516657 0
-0.000201 0.000028 0
0.000000 0.252133 0
0.000000 -0.000018 0
-0.020386 0.300725 0
-0.043825 0.338890 0
-0.062656 0.347547 0
-0.075665 0.338586 0
-0.082626 0.313871 0
-0.083969 0.277657 0
-0.080623 0.235295 0
-0.073847 0.192266 0
-0.065013 0.153100 0
-0.055472 0.120638 0
-0.046397 0.095841 0
-0.038646 0.078076 0
-0.032687 0.065780 0
-0.028552 0.057183 0
-0.026054 0.050771 0
-0.024890 0.045412 0
-0.024732 0.040317 0
-0.025270 0.034949 0
-0.026218 0.028952 0
-0.027317 0.022101 0
-0.028333 0.014275 0
-0.029058 0.005452 0
-0.029308 -0.004283 0
-0.028942 -0.014773 0
-0.027925 -0.025859 0
-0.026313 -0.037457 0
-0.024287 -0.049627 0
-0.022116 -0.062677 0
-0.020099 -0.077250 0
-0.018533 -0.094376 0
-0.017597 -0.115480 0
-0.017259 -0.142237 0
-0.017261 -0.176226 0
-0.017228 -0.218541 0
-0.016868 -0.269638 0
-0.016181 -0.329886 0
-0.015516 -0.401206 0
-0.015314 -0.487522 0
-0.011841 -0.526904 0
-0.000163 0.000027 0
0.000000 0.259430 0
0.000000 -0.000016 0
-0.011423 0.318400 0
-0.027560 0.356626 0
-0.040729 0.360910 0
-0.049750 0.346840 0
-0.054344 0.317047 0
-0.054718 0.276296 0
-0.051464 0.230309 0
-0.045431 0.184775 0
-0.037594 0.144302 0
-0.029009 0.111692 0
-0.020650 0.087716 0
-0.013327 0.071435 0
-0.007688 0.060881 0
-0.003735 0.053953 0
-0.001267 0.048978 0
-0.000018 0.044755 0
0.000286 0.040493 0
-0.000093 0.035678 0
-0.000913 0.029980 0
-0.001956 0.023197 0
-0.003022 0.015231 0
-0.003930 0.006073 0
-0.004499 -0.004175 0
-0.004499 -0.015281 0
-0.003874 -0.026986 0
-0.002674 -0.039089 0
-0.001069 -0.051534 0
0.000668 -0.064564 0
0.002197 -0.078795 0
0.003184 -0.095310 0
0.003417 -0.115706 0
0.002899 -0.141885 0
0.001867 -0.175599 0
0.000653 -0.217948 0
-0.000553 -0.269205 0
-0.001791 -0.329432 0
-0.003388 -0.400276 0
-0.005927 -0.487390 0
-0.006843 -0.531971 0
-0.000133 0.000027 0
0.000000 0.263973 0
0.000000 -0.000014 0
-0.003259 0.328285 0
-0.012573 0.368196 0
-0.020656 0.369737 0
-0.026211 0.352200 0
-0.028937 0.318838 0
-0.028848 0.274777 0
-0.026201 0.226008 0
-0.021433 0.178395 0
-0.014917 0.136678 0
-0.007499 0.103694 0
-0.000045 0.080159 0
0.006624 0.065115 0
0.011979 0.056188 0
0.015940 0.050761 0
0.018633 0.047054 0
0.020237 0.043860 0
0.020955 0.040392 0
0.020990 0.036149 0
0.020536 0.030815 0
0.019770 0.024210 0
0.018850 0.016250 0
0.017922 0.006929 0
0.017156 -0.003715 0
0.016814 -0.015397 0
0.017009 -0.027684 0
0.017712 -0.040262 0
0.018784 -0.052969 0
0.019965 -0.065944 0
0.020885 -0.079766 0
0.021202 -0.095596 0
0.020701 -0.115196 0
0.019391 -0.140687 0
0.017495 -0.173980 0
0.015282 -0.216122 0
0.012824 -0.267194 0
0.009983 -0.327050 0
0.006443 -0.397070 0
0.001704 -0.484068 0
-0.002737 -0.532831 0
-0.000110 0.000026 0
0.000000 0.266272 0
0.000000 -0.000012 0
0.004030 0.330972 0
0.001251 0.374022 0
-0.002153 0.374549 0
-0.004609 0.355122 0
-0.005808 0.319683 0
-0.005604 0.273560 0
-0.003946 0.222894 0
-0.000805 0.173491 0
0.003867 0.130369 0
0.009641 0.096819 0
0.015806 0.073593 0
0.021620 0.059411 0
0.026772 0.051564 0
0.030983 0.047299 0
0.034179 0.044681 0
0.036417 0.042433 0
0.037818 0.039739 0
0.038531 0.036096 0
0.038705 0.031199 0
0.038475 0.024884 0
0.037964 0.017079 0
0.037289 0.007766 0
0.036596 -0.003067 0
0.036068 -0.015134 0
0.035880 -0.027884 0
0.036065 -0.040865 0
0.036509 -0.053787 0
0.036956 -0.066664 0
0.037060 -0.080032 0
0.036507 -0.095126 0
0.035133 -0.113895 0
0.033001 -0.138679 0
0.030333 -0.171490 0
0.027301 -0.213277 0
0.023844 -0.263907 0
0.019688 -0.323051 0
0.014479 -0.391997 0
0.007818 -0.478210 0
0.000681 -0.530266 0
-0.000093 0.000025 0
0.000000 0.266709 0
0.000000 -0.000010 0
0.010661 0.327034 0
0.014103 0.374379 0
0.015138 0.375596 0
0.015592 0.355855 0
0.015775 0.319834 0
0.015932 0.272915 0
0.016368 0.221209 0
0.017530 0.170583 0
0.019696 0.126232 0
0.023098 0.091755 0
0.027498 0.068180 0
0.032422 0.054149 0
0.037411 0.046825 0
0.041982 0.043354 0
0.045855 0.041620 0
0.048934 0.040221 0
0.051246 0.038278 0
0.052873 0.035262 0
0.053918 0.030871 0
0.054481 0.024950 0
0.054655 0.017436 0
0.054529 0.008298 0
0.054201 -0.002494 0
0.053773 -0.014681 0
0.053398 -0.027681 0
0.053124 -0.040891 0
0.052845 -0.053859 0
0.052340 -0.066494 0
0.051347 -0.079318 0
0.049668 -0.093670 0
0.047267 -0.111689 0
0.044298 -0.135886 0
0.040974 -0.168280 0
0.037319 -0.209633 0
0.033073 -0.259581 0
0.027824 -0.317686 0
0.021174 -0.385200 0
0.012754 -0.470270 0
0.003508 -0.525014 0
-0.000078 0.000025 0
0.000000 0.265590 0
0.000000 -0.000008 0
0.016904 0.316870 0
0.026302 0.369545 0
0.031592 0.373059 0
0.034847 0.354485 0
0.036401 0.319344 0
0.036525 0.272967 0
0.035677 0.221296 0
0.034557 0.170163 0
0.033849 0.124800 0
0.034344 0.089018 0
0.036440 0.064270 0
0.040043 0.049498 0
0.044614 0.042003 0
0.049449 0.038856 0
0.054022 0.037730 0
0.058047 0.037041 0
0.061419 0.035801 0
0.064137 0.033425 0
0.066250 0.029592 0
0.067820 0.024146 0
0.068916 0.017031 0
0.069600 0.008220 0
0.069915 -0.002312 0
0.069871 -0.014331 0
0.069509 -0.027234 0
0.068821 -0.040312 0
0.067719 -0.053003 0
0.066075 -0.065166 0
0.063783 -0.077360 0
0.060834 -0.091045 0
0.057381 -0.108525 0
0.053683 -0.132386 0
0.049887 -0.164510 0
0.045805 -0.205376 0
0.040952 -0.254412 0
0.034779 -0.311152 0
0.026866 -0.376927 0
0.016911 -0.460543 0
0.005847 -0.517512 0
-0.000069 0.000024 0
0.000000 0.263200 0
0.000000 -0.000006 0
0.022868 0.300732 0
0.038058 0.359691 0
0.047512 0.367052 0
0.053517 0.351046 0
0.056513 0.318156 0
0.056773 0.273639 0
0.054828 0.223176 0
0.051510 0.172411 0
0.047845 0.126444 0
0.045063 0.089164 0
0.044209 0.062481 0
0.045730 0.045975 0
0.049262 0.037419 0
0.053965 0.033946 0
0.059040 0.033022 0
0.063951 0.032824 0
0.068410 0.032187 0
0.072299 0.030432 0
0.075587 0.027188 0
0.078290 0.022284 0
0.080440 0.015657 0
0.082063 0.007299 0
0.083158 -0.002766 0
0.083620 -0.014276 0
0.083350 -0.026630 0
0.082273 -0.039100 0
0.080337 -0.051114 0
0.077541 -0.062558 0
0.073977 -0.074077 0
0.069876 -0.087268 0
0.065600 -0.104538 0
0.061474 -0.128392 0
0.057493 -0.160402 0
0.053199 -0.200697 0
0.047884 -0.248555 0
0.040905 -0.303600 0
0.031851 -0.367332 0
0.020500 -0.449251 0
0.007844 -0.508102 0
-0.000063 0.000023 0
0.000000 0.259741 0
0.000000 -0.000005 0
0.028541 0.278812 0
0.049401 0.344902 0
0.063013 0.357600 0
0.071803 0.345484 0
0.076407 0.316088 0
0.077124 0.274652 0
0.074501 0.226559 0
0.069417 0.177146 0
0.063080 0.131247 0
0.056984 0.092654 0
0.052649 0.063602 0
0.051148 0.044445 0
0.052628 0.033769 0
0.056388 0.029078 0
0.061428 0.027744 0
0.066911 0.027671 0
0.072295 0.027453 0
0.077283 0.026248 0
0.081726 0.023600 0
0.085563 0.019294 0
0.088765 0.013259 0
0.091300 0.005502 0
0.093111 -0.003869 0
0.094003 -0.014524 0
0.093788 -0.025888 0
0.092356 -0.037299 0
0.089705 -0.048271 0
0.085973 -0.058806 0
0.081468 -0.069695 0
0.076668 -0.082668 0
0.072102 -0.100123 0
0.068045 -0.124280 0
0.064235 -0.156235 0
0.059921 -0.195767 0
0.054235 -0.242118 0
0.046505 -0.295120 0
0.036369 -0.356522 0
0.023709 -0.436536 0
0.009601 -0.497012 0
-0.000059 0.000022 0
0.000000 0.255355 0
0.000000 -0.000003 0
0.033787 0.251331 0
0.060159 0.325219 0
0.077978 0.344649 0
0.089674 0.337652 0
0.096144 0.312835 0
0.097763 0.275545 0
0.095065 0.230884 0
0.088920 0.183831 0
0.080571 0.138878 0
0.071586 0.099595 0
0.063691 0.068317 0
0.058421 0.045996 0
0.056630 0.032179 0
0.058174 0.025146 0
0.062155 0.022499 0
0.067496 0.021956 0
0.073340 0.021816 0
0.079127 0.021001 0
0.084526 0.018908 0
0.089345 0.015246 0
0.093461 0.009920 0
0.096763 0.002952 0
0.099112 -0.005469 0
0.100271 -0.014953 0
0.100039 -0.024984 0
0.098326 -0.035017 0
0.095212 -0.044731 0
0.090992 -0.054321 0
0.086186 -0.064773 0
0.081461 -0.077902 0
0.077367 -0.095915 0
0.073955 -0.120524 0
0.070625 -0.152278 0
0.066398 -0.190697 0
0.060343 -0.235139 0
0.051843 -0.285735 0
0.040620 -0.344535 0
0.026674 -0.422482 0
0.011202 -0.484394 0
-0.000058 0.000021 0
0.000000 0.250138 0
0.000000 -0.000002 0
0.038310 0.218653 0
0.069907 0.300711 0
0.091991 0.328085 0
0.106800 0.327317 0
0.115486 0.307999 0
0.118540 0.275731 0
0.116490 0.235402 0
0.110159 0.191640 0
0.100738 0.148581 0
0.089735 0.109534 0
0.078849 0.076767 0
0.069757 0.051506 0
0.063824 0.034017 0
0.061698 0.023553 0
0.063080 0.018421 0
0.067000 0.016485 0
0.072361 0.015822 0
0.078284 0.015062 0
0.084166 0.013382 0
0.089613 0.010359 0
0.094356 0.005840 0
0.098185 -0.000149 0
0.100858 -0.007376 0
0.102155 -0.015451 0
0.101917 -0.023943 0
0.100133 -0.032472 0
0.097009 -0.040937 0
0.093012 -0.049780 0
0.088824 -0.060164 0
0.085141 -0.073849 0
0.082298 -0.092617 0
0.079967 -0.117538 0
0.077241 -0.148677 0
0.073045 -0.185485 0
0.066512 -0.227563 0
0.057136 -0.275396 0
0.044755 -0.331353 0
0.029500 -0.407119 0
0.012707 -0.470338 0
-0.000058 0.000020 0
0.000000 0.244150 0
0.000000 -0.000000 0
0.041673 0.181424 0
0.077948 0.271539 0
0.104300 0.307756 0
0.122512 0.314157 0
0.133861 0.301095 0
0.138958 0.274541 0
0.138335 0.239265 0
0.132759 0.199583 0
0.123335 0.159301 0
0.111454 0.121484 0
0.098678 0.088295 0
0.086588 0.061021 0
0.076659 0.040237 0
0.070052 0.025889 0
0.067282 0.017198 0
0.068024 0.012675 0
0.071352 0.010532 0
0.076200 0.009197 0
0.081666 0.007580 0
0.087078 0.005055 0
0.091957 0.001348 0
0.095954 -0.003550 0
0.098760 -0.009439 0
0.100182 -0.016012 0
0.100139 -0.022961 0
0.098743 -0.030109 0
0.096350 -0.037610 0
0.093551 -0.046136 0
0.091027 -0.056902 0
0.089242 -0.071376 0
0.088112 -0.090741 0
0.086928 -0.115467 0
0.084635 -0.145356 0
0.080223 -0.179968 0
0.072978 -0.219230 0
0.062543 -0.263979 0
0.048878 -0.316899 0
0.032249 -0.390434 0
0.014151 -0.454894 0
-0.000058 0.000019 0
0.000000 0.237429 0
0.000000 0.000001 0
0.043225 0.140705 0
0.083225 0.238084 0
0.113757 0.283521 0
0.135761 0.297756 0
0.150352 0.291552 0
0.158178 0.271258 0
0.159782 0.241601 0
0.155893 0.206639 0
0.147528 0.169885 0
0.135961 0.134191 0
0.122607 0.101633 0
0.108894 0.073525 0
0.096170 0.050553 0
0.085652 0.032930 0
0.078288 0.020450 0
0.074502 0.012415 0
0.074034 0.007645 0
0.076101 0.004748 0
0.079736 0.002505 0
0.084043 0.000067 0
0.088304 -0.003036 0
0.092000 -0.006952 0
0.094776 -0.011604 0
0.096451 -0.016830 0
0.097027 -0.022505 0
0.096725 -0.028683 0
0.095976 -0.035745 0
0.095318 -0.044456 0
0.095173 -0.055855 0