/*--------------------------------*- C++ -*----------------------------------*\
| =========                 |                                                 |
| \\      /  F ield         | OpenFOAM: The Open Source CFD Toolbox           |
|  \\    /   O peration     | Version:  5.x                                   |
|   \\  /    A nd           | Web:      www.OpenFOAM.org                      |
|    \\/     M anipulation  |                                                 |
\*---------------------------------------------------------------------------*/
FoamFile
{
    version     2.0;
    format      ascii;
    class       volScalarField;
    location    "2.0001";
    object      gradTx;
}
// * * * * * * * * * * * * * * * * * * * * * * * * * * * * * * * * * * * * * //

dimensions      [0 -1 0 1 0 0 0];

internalField   nonuniform List<scalar> 
2048
(
0.00772704
0.022945
0.0374767
0.0509353
0.0630273
0.0735671
0.0824753
0.0897637
0.0955135
0.0998494
0.102918
0.10487
0.105852
0.106
0.105443
0.104301
0.102689
0.100718
0.0984879
0.0960882
0.0935939
0.0910626
0.0885348
0.0860351
0.0835754
0.0811577
0.0787776
0.0764255
0.0740878
0.0717477
0.0693858
0.0669813
0.0645145
0.0619682
0.0593299
0.0565919
0.0537507
0.0508051
0.0477537
0.0445925
0.0413142
0.0379079
0.0343616
0.0306646
0.0268118
0.0228072
0.0186681
0.0144269
0.0101339
0.00585757
0.00168452
-0.00228226
-0.00592674
-0.0091253
-0.0117545
-0.0137011
-0.0148727
-0.0152092
-0.0146913
-0.0133463
-0.011249
-0.00851804
-0.0053085
-0.00180274
0.0230387
0.0683995
0.111679
0.151709
0.187609
0.218834
0.245159
0.266638
0.283533
0.29623
0.305176
0.310826
0.313615
0.313948
0.3122
0.308729
0.303875
0.297964
0.291297
0.284141
0.276719
0.269203
0.261709
0.25431
0.247037
0.239893
0.232865
0.225922
0.219026
0.212124
0.205159
0.198067
0.190788
0.183271
0.175478
0.167387
0.158989
0.150282
0.141264
0.131925
0.122242
0.112183
0.101708
0.0907827
0.0793893
0.0675368
0.0552732
0.0426937
0.0299458
0.0172323
0.00481044
-0.00701243
-0.0178887
-0.0274466
-0.0353132
-0.0411441
-0.0446577
-0.0456683
-0.0441147
-0.0400767
-0.0337787
-0.0255771
-0.0159381
-0.00541175
0.0382234
0.113441
0.185094
0.251198
0.31028
0.361453
0.404392
0.439246
0.466504
0.486859
0.501082
0.50994
0.514152
0.514374
0.511219
0.505262
0.497063
0.487156
0.476044
0.464171
0.451908
0.439535
0.42724
0.415131
0.403252
0.391601
0.380149
0.368848
0.35763
0.34641
0.335091
0.323563
0.311722
0.29948
0.286774
0.27357
0.259859
0.245646
0.23093
0.2157
0.199919
0.183526
0.166451
0.148629
0.130017
0.110624
0.0905193
0.0698545
0.0488682
0.0278918
0.00734955
-0.0122488
-0.0303219
-0.0462431
-0.0593784
-0.0691371
-0.0750307
-0.0767327
-0.0741284
-0.067346
-0.0567614
-0.0429762
-0.0267758
-0.00908993
0.0535948
0.158978
0.259136
0.351192
0.433057
0.503531
0.562254
0.609558
0.646249
0.673393
0.692132
0.703561
0.708677
0.708373
0.703472
0.694753
0.682983
0.668909
0.653237
0.636599
0.619513
0.602366
0.585405
0.568762
0.552478
0.536537
0.520891
0.505468
0.490175
0.474896
0.459486
0.443788
0.427647
0.41093
0.393549
0.375463
0.35667
0.337189
0.317035
0.296197
0.274624
0.252225
0.228885
0.204494
0.178977
0.152322
0.124616
0.0960544
0.0669606
0.0377896
0.00912928
-0.0183064
-0.0436952
-0.0661402
-0.0847225
-0.0985752
-0.106971
-0.109414
-0.105716
-0.0960501
-0.0809508
-0.0612834
-0.038175
-0.0129577
0.069437
0.20583
0.335065
0.453259
0.55767
0.646827
0.720436
0.779134
0.824172
0.857087
0.87945
0.892707
0.898122
0.896797
0.889732
0.877888
0.862231
0.843725
0.823294
0.80177
0.779829
0.757958
0.736453
0.715449
0.694963
0.674951
0.655338
0.636032
0.616918
0.597847
0.578627
0.55904
0.538868
0.517929
0.496105
0.473351
0.449685
0.425158
0.399811
0.373644
0.34659
0.318518
0.289258
0.258635
0.226519
0.192869
0.157768
0.121451
0.0843165
0.0469374
0.0100625
-0.0253879
-0.0583399
-0.0876044
-0.111944
-0.130172
-0.141275
-0.144544
-0.139694
-0.126932
-0.106969
-0.0809644
-0.050423
-0.0171121
0.0860218
0.254775
0.41406
0.558833
0.685657
0.79285
0.880323
0.949196
1.00133
1.03885
1.06384
1.07812
1.08318
1.0803
1.07061
1.05522
1.03529
1.01201
0.986548
0.959961
0.933094
0.906536
0.880609
0.855422
0.830945
0.807084
0.78373
0.760777
0.738097
0.71551
0.692774
0.669594
0.645674
0.620766
0.594718
0.56749
0.539136
0.509758
0.479446
0.448221
0.416002
0.382606
0.347785
0.311277
0.272875
0.232487
0.190181
0.146216
0.101062
0.0554005
0.0101381
-0.0335976
-0.0744699
-0.110972
-0.141504
-0.164502
-0.178603
-0.18283
-0.176757
-0.160624
-0.135341
-0.102406
-0.063755
-0.0216317
0.103623
0.306586
0.497276
0.669283
0.818429
0.942918
1.04306
1.12068
1.17846
1.21929
1.24584
1.26029
1.26435
1.25939
1.24659
1.2272
1.20255
1.17409
1.14326
1.11138
1.0795
1.04828
1.01807
0.988901
0.960657
0.933172
0.906299
0.879926
0.85393
0.828111
0.802166
0.775708
0.748334
0.719712
0.689647
0.658112
0.625221
0.591159
0.556088
0.520069
0.483007
0.444652
0.404652
0.362626
0.318263
0.271394
0.22206
0.170536
0.117351
0.0632903
0.00941083
-0.042955
-0.0921984
-0.136466
-0.173748
-0.20203
-0.219515
-0.224881
-0.217516
-0.197678
-0.166514
-0.125932
-0.0783618
-0.0265793
0.122526
0.362069
0.585887
0.78596
0.95732
1.0982
1.20956
1.29425
1.35604
1.39876
1.42573
1.43952
1.44197
1.43442
1.41807
1.39421
1.36435
1.33022
1.29363
1.25619
1.21917
1.18335
1.14902
1.1161
1.08433
1.05345
1.02327
0.993686
0.964615
0.935852
0.907027
0.877629
0.847114
0.815034
0.781141
0.745432
0.708114
0.669493
0.629843
0.589286
0.547713
0.504788
0.460018
0.412868
0.362884
0.309801
0.253613
0.194604
0.133358
0.0707561
0.00799186
-0.0534048
-0.111549
-0.164217
-0.208927
-0.24313
-0.264493
-0.271245
-0.262519
-0.238583
-0.200876
-0.151805
-0.094392
-0.0320022
0.143039
0.422082
0.681125
0.910234
1.10362
1.25974
1.38059
1.47037
1.53429
1.57733
1.60359
1.61594
1.61623
1.6057
1.58538
1.55656
1.52095
1.48062
1.43779
1.39448
1.35221
1.31186
1.27362
1.23722
1.20221
1.16817
1.13486
1.10225
1.07033
1.03891
1.00756
0.97559
0.942272
0.906995
0.869441
0.829651
0.787964
0.744862
0.700781
0.655932
0.610194
0.563117
0.514023
0.462174
0.406933
0.347909
0.285041
0.218619
0.149275
0.0779761
0.00603919
-0.0648268
-0.132468
-0.194264
-0.247206
-0.288104
-0.313957
-0.322419
-0.312275
-0.283785
-0.238757
-0.180232
-0.11195
-0.0379309
0.165502
0.487559
0.784305
1.04352
1.25858
1.4285
1.55669
1.64925
1.71318
1.75489
1.77929
1.78951
1.78726
1.77344
1.74881
1.71456
1.67261
1.62546
1.57585
1.5263
1.47866
1.43389
1.39202
1.35249
1.31455
1.27757
1.24129
1.20579
1.17121
1.13745
1.10395
1.06982
1.03406
0.995859
0.95479
0.91096
0.8649
0.817338
0.768934
0.720029
0.670492
0.619718
0.566789
0.510703
0.450594
0.385915
0.316541
0.242773
0.165295
0.0851479
0.00374827
-0.0770442
-0.154825
-0.226569
-0.288672
-0.337186
-0.368283
-0.378874
-0.367267
-0.333693
-0.280435
-0.21136
-0.131091
-0.044377
0.190293
0.559533
0.896852
1.18731
1.42347
1.6053
1.73827
1.8309
1.89247
1.93108
1.95255
1.96011
1.95509
1.93784
1.90864
1.86851
1.81957
1.76488
1.70786
1.65165
1.59853
1.54951
1.50438
1.46214
1.42162
1.38193
1.34278
1.30446
1.26739
1.23158
1.19636
1.16053
1.12275
1.0819
1.03743
0.989544
0.939033
0.886962
0.834297
0.781565
0.728618
0.674648
0.618423
0.558606
0.494045
0.424004
0.348298
0.267253
0.181611
0.092479
0.00134271
-0.0898313
-0.178427
-0.261018
-0.333341
-0.390554
-0.427808
-0.441061
-0.427971
-0.388692
-0.326134
-0.245263
-0.151809
-0.0513289
0.217837
0.639157
1.02032
1.34317
1.59953
1.79089
1.92554
2.01512
2.07168
2.10537
2.12293
2.1275
2.11972
2.0991
2.06519
2.0187
1.96204
1.89899
1.83381
1.77047
1.71176
1.65877
1.61085
1.56642
1.52373
1.48155
1.43956
1.3984
1.35895
1.3214
1.28493
1.24794
1.20861
1.16541
1.11762
1.06558
1.01046
0.953748
0.896833
0.84049
0.784556
0.727947
0.669022
0.606028
0.537456
0.462352
0.380481
0.292226
0.198404
0.100177
-0.000934976
-0.102921
-0.203018
-0.297422
-0.381157
-0.448329
-0.492839
-0.50943
-0.494869
-0.449153
-0.376024
-0.281935
-0.174031
-0.0587481
0.248616
0.727716
1.15643
1.51277
1.78799
1.9859
2.11857
2.20148
2.25012
2.27704
2.28988
2.29139
2.28113
2.25741
2.21878
2.16546
2.10027
2.0279
1.9537
1.88266
1.81829
1.76167
1.71159
1.6656
1.62123
1.57675
1.53185
1.48771
1.44591
1.40696
1.3698
1.33226
1.29191
1.24669
1.19563
1.13926
1.07926
1.01768
0.956463
0.896718
0.838263
0.77964
0.718675
0.653109
0.580999
0.501126
0.41324
0.317838
0.215834
0.10844
-0.00283273
-0.116013
-0.228285
-0.335523
-0.431994
-0.510575
-0.56365
-0.584434
-0.568469
-0.515441
-0.430209
-0.321272
-0.197597
-0.0665632
0.283178
0.826651
1.30706
1.6979
1.99006
2.19083
2.31723
2.38939
2.42691
2.44517
2.45272
2.45145
2.43928
2.41302
2.36981
2.30917
2.23448
2.15169
2.06744
1.98806
1.91796
1.85823
1.80677
1.75999
1.71449
1.66791
1.61989
1.57246
1.52827
1.48829
1.45107
1.41369
1.37296
1.32608
1.27172
1.21075
1.1455
1.07873
1.01307
0.95013
0.889677
0.829741
0.767466
0.69999
0.624841
0.540478
0.4467
0.344206
0.234036
0.117449
-0.0040983
-0.128778
-0.25386
-0.374992
-0.485657
-0.577303
-0.640488
-0.666541
-0.649324
-0.58793
-0.488724
-0.363052
-0.22225
-0.0746651
0.322147
0.937569
1.47426
1.90045
2.20694
2.40604
2.52122
2.57805
2.60094
2.60872
2.61073
2.60732
2.59416
2.56621
2.51875
2.45022
2.36491
2.27045
2.17496
2.08645
2.0106
1.94843
1.89658
1.84992
1.80396
1.75547
1.70392
1.65266
1.60594
1.56534
1.52883
1.49243
1.45205
1.40394
1.34621
1.28022
1.20924
1.13683
1.06652
1.00057
0.938716
0.878264
0.815476
0.746814
0.669158
0.580554
0.480961
0.371416
0.253112
0.127356
-0.00448858
-0.140872
-0.279328
-0.415431
-0.541882
-0.648462
-0.723557
-0.756239
-0.738059
-0.667021
-0.551518
-0.406914
-0.247614
-0.0829015
0.36624
1.06225
1.66029
2.12245
2.43972
2.63168
2.73009
2.76647
2.77093
2.76649
2.76312
2.75869
2.74577
2.71731
2.66615
2.58908
2.49181
2.38425
2.27612
2.17755
2.09595
2.03225
1.98124
1.93574
1.89012
1.83991
1.78422
1.72829
1.67877
1.63806
1.60317
1.56867
1.52951
1.48067
1.41939
1.34784
1.27053
1.19189
1.1166
1.04784
0.985286
0.925225
0.862783
0.793725
0.714134
0.621484
0.516086
0.399516
0.273124
0.13828
-0.00377888
-0.151936
-0.304228
-0.456375
-0.600337
-0.723946
-0.813014
-0.854033
-0.835406
-0.753161
-0.618442
-0.45233
-0.273185
-0.0910733
0.416291
1.20267
1.86756
2.36606
2.68942
2.86769
2.94324
2.95357
2.93542
2.91712
2.90906
2.90527
2.89411
2.86672
2.81272
2.72622
2.61538
2.49321
2.37079
2.26099
2.1737
2.10966
2.06101
2.01785
1.97351
1.92186
1.86107
1.79922
1.74652
1.70635
1.67417
1.64259
1.60569
1.55675
1.4916
1.41376
1.32944
1.24383
1.16308
1.09171
1.02929
0.970655
0.909459
0.84087
0.759976
0.66339
0.5521
0.42852
0.294098
0.150295
-0.00177188
-0.161613
-0.328061
-0.497288
-0.660626
-0.803587
-0.90894
-0.96044
-0.942244
-0.846875
-0.689223
-0.498574
-0.298315
-0.098933
0.473291
1.36098
2.09866
2.63366
2.95689
3.11368
3.15996
3.13811
3.09275
3.05913
3.04779
3.0469
3.03917
3.01485
2.9593
2.86219
2.7358
2.59745
2.45883
2.33634
2.24346
2.18065
2.1362
2.0966
2.0547
2.00202
1.93476
1.86525
1.80882
1.77007
1.74196
1.71434
1.68092
1.6327
1.56316
1.47809
1.38603
1.29254
1.20568
1.1319
1.07062
1.01461
0.955564
0.888395
0.806924
0.706379
0.588978
0.458408
0.316019
0.163427
0.001694
-0.169551
-0.350292
-0.537566
-0.722299
-0.887171
-1.01131
-1.07597
-1.05966
-0.9488
-0.763427
-0.544693
-0.322208
-0.106187
0.538448
1.53948
2.35631
2.92785
3.24276
3.3689
3.37953
3.31882
3.24108
3.19091
3.17856
3.18356
3.18089
3.16216
3.10699
2.9975
2.85311
2.69718
2.54011
2.40304
2.30472
2.24521
2.20723
2.17232
2.1343
2.08132
2.00565
1.92603
1.86521
1.82909
1.80669
1.784
1.75553
1.7092
1.63441
1.54086
1.44041
1.33793
1.24405
1.16808
1.1092
1.0572
1.00113
0.936434
0.855277
0.750545
0.626632
0.489134
0.338835
0.177647
0.00673723
-0.175416
-0.370361
-0.576532
-0.784855
-0.974456
-1.11995
-1.20107
-1.18904
-1.05973
-0.840414
-0.58947
-0.343924
-0.112501
0.6133
1.74064
2.64325
3.25162
3.54734
3.63206
3.60129
3.49446
3.37835
3.31068
3.30074
3.31553
3.31907
3.30905
3.25721
3.13267
2.9672
2.79273
2.61453
2.46041
2.35689
2.3034
2.27465
2.24526
2.21288
2.16091
2.07408
1.98105
1.91505
1.88326
1.86864
1.85158
1.82984
1.78706
1.70565
1.60204
1.49276
1.37992
1.27779
1.19986
1.14496
1.09861
1.04613
0.985103
0.905421
0.795958
0.664895
0.520641
0.362463
0.192861
0.0134276
-0.1789
-0.387686
-0.613428
-0.847762
-1.06521
-1.23447
-1.3361
-1.33213
-1.1807
-0.919258
-0.631392
-0.36239
-0.117513
0.699887
1.96699
2.96213
3.60849
3.8705
3.90118
3.82486
3.66381
3.5023
3.41648
3.41384
3.44342
3.45326
3.45584
3.41185
3.26812
3.07767
2.88468
2.68205
2.50763
2.39922
2.35529
2.33922
2.31545
2.291
2.24229
2.14046
2.02958
1.95754
1.93247
1.92826
1.91692
1.90409
1.86736
1.77714
1.66141
1.54336
1.41845
1.3064
1.22678
1.17787
1.13914
1.09047
1.03447
0.957882
0.84266
0.703486
0.552884
0.386792
0.208904
0.0217832
-0.179734
-0.40168
-0.647402
-0.910462
-1.15927
-1.35421
-1.48118
-1.49127
-1.31299
-0.998644
-0.668624
-0.376435
-0.120853
0.801033
2.22104
3.31529
4.00291
4.21152
4.17331
4.05036
3.82582
3.61037
3.50615
3.51753
3.56844
3.58259
3.60264
3.57351
3.4041
3.18366
2.97393
2.74272
2.54365
2.43079
2.40107
2.40204
2.38267
2.36905
2.32746
2.2052
2.07062
1.99169
1.97665
1.98626
1.97961
1.9784
1.95154
1.84904
1.7185
1.5927
1.45353
1.32927
1.24827
1.20794
1.17928
1.13389
1.08453
1.0134
0.890639
0.741977
0.585867
0.411695
0.22553
0.0317718
-0.177699
-0.411766
-0.677485
-0.972381
-1.25665
-1.47809
-1.63606
-1.66947
-1.45831
-1.07672
-0.698995
-0.384839
-0.122164
0.920775
2.50517
3.70442
4.44064
4.56884
4.44426
4.27885
3.9796
3.69965
3.57728
3.6117
3.69265
3.70552
3.74925
3.74585
3.54059
3.28365
3.06201
2.79667
2.56721
2.45046
2.44097
2.46468
2.44622
2.44723
2.41911
2.26866
2.10283
2.01626
2.01578
2.04378
2.03887
2.05271
2.04162
1.92134
1.77251
1.64158
1.4852
1.34568
1.26369
1.23523
1.21979
1.17592
1.13517
1.07302
0.939801
0.779734
0.619698
0.437034
0.242396
0.0433177
-0.172635
-0.417401
-0.702553
-1.03293
-1.3577
-1.60458
-1.79992
-1.87081
-1.61882
-1.15089
-0.719996
-0.386398
-0.121132
1.06502
2.82141
4.13007
4.92953
4.93975
4.70809
4.51283
4.12442
3.7668
3.62717
3.69636
3.8193
3.8195
3.89489
3.93399
3.67709
3.3752
3.15128
2.84412
2.5767
2.45686
2.47528
2.52946
2.50475
2.52536
2.5209
2.33113
2.12447
2.02981
2.04991
2.10259
2.09337
2.12665
2.14038
1.99378
1.82208
1.69126
1.51353
1.35473
1.27224
1.25982
1.26181
1.21575
1.18606
1.13826
0.989925
0.815844
0.654673
0.462655
0.259045
0.0563167
-0.164454
-0.418112
-0.721288
-1.09146
-1.46334
-1.73148
-1.97098
-2.10066
-1.79728
-1.21753
-0.728826
-0.380021
-0.117518
1.24245
3.17116
4.59094
5.48049
5.32002
4.95653
4.75699
4.25966
3.80797
3.65281
3.77164
3.95339
3.92055
4.03801
4.1452
3.81238
3.45449
3.24545
2.8853
2.57017
2.44838
2.50432
2.59975
2.55592
2.60273
2.63783
2.39265
2.13332
2.03063
2.07911
2.16537
2.141
2.19943
2.25178
2.06571
1.86517
1.74374
1.53863
1.35532
1.27302
1.28181
1.30709
1.25212
1.23666
1.21129
1.04059
0.849016
0.691386
0.488388
0.274879
0.0706614
-0.153146
-0.413549
-0.732111
-1.14725
-1.57532
-1.85586
-2.14617
-2.36623
-1.99714
-1.27162
-0.722476
-0.36483
-0.111191
1.46591
3.55481
5.08292
6.10888
5.70328
5.17825
5.01926
4.38457
3.81867
3.65083
3.83754
4.10237
4.00264
4.17586
4.38971
3.94417
3.51593
3.35011
2.92032
2.54523
2.42308
2.52827
2.68043
2.5961
2.67784
2.77674
2.45286
2.12664
2.0168
2.10339
2.23611
2.17855
2.26963
2.38136
2.13591
1.89873
1.80202
1.56053
1.34611
1.26497
1.30125
1.35815
1.28308
1.286
1.29518
1.09105
0.877461
0.730886
0.514018
0.289128
0.0862789
-0.138788
-0.403555
-0.733115
-1.19934
-1.69665
-1.97384
-2.32049
-2.67715
-2.22271
-1.30629
-0.697886
-0.340277
-0.102149
1.75411
3.97127
5.59778
6.83635
6.08034
5.35791
5.31212
4.49793
3.7937
3.61759
3.89366
4.27706
4.05701
4.30409
4.68183
4.06867
3.55148
3.47354
2.94897
2.49902
2.37879
2.54701
2.77849
2.61983
2.74816
2.94696
2.51064
2.10113
1.98621
2.12252
2.32059
2.20131
2.33492
2.53686
2.2023
1.91841
1.87055
1.57908
1.32554
1.24689
1.31803
1.41864
1.30579
1.33265
1.39426
1.14016
0.898744
0.77488
0.539242
0.300811
0.103183
-0.121542
-0.388263
-0.721984
-1.2464
-1.83213
-2.0805
-2.48628
-3.04618
-2.47927
-1.3122
-0.652196
-0.306263
-0.0905422
2.1341
4.41728
6.12149
7.69327
6.4382
5.47501
5.6543
4.59745
3.72713
3.54925
3.93864
4.49291
4.07124
4.41615
5.04129
4.17997
3.54997
3.62767
2.97034
2.42818
2.31311
2.55983
2.9038
2.61933
2.80971
3.16109
2.56373
2.05291
1.93666
2.13582
2.42702
2.20263
2.39185
2.72894
2.26169
1.91814
1.95578
1.59376
1.29172
1.21749
1.33169
1.49376
1.31622
1.37444
1.51454
1.1861
0.909598
0.825992
0.563594
0.308689
0.121545
-0.101648
-0.368215
-0.695915
-1.28643
-1.98894
-2.16977
-2.63236
-3.49016
-2.77311
-1.27686
-0.583111
-0.263238
-0.0766713
2.64422
4.88658
6.63208
8.72171
6.75883
5.50252
6.07291
4.67882
3.61228
3.44195
3.96947
4.77146
4.02818
4.50259
5.49493
4.2693
3.4962
3.82941
2.98226
2.32886
2.22356
2.5649
3.0701
2.58375
2.85666
3.436
2.6081
1.97763
1.86595
2.14174
2.56693
2.17332
2.43535
2.97209
2.30935
1.88971
2.06684
1.60337
1.24254
1.17545
1.34122
1.5907
1.30878
1.40836
1.66421
1.22619
0.905721
0.888093
0.586333
0.311218
0.141773
-0.0794127
-0.344519
-0.65155
-1.31642
-2.17747
-2.2343
-2.74282
-4.03115
-3.11171
-1.18373
-0.489403
-0.212265
-0.0609785
3.33797
5.36895
7.09708
9.97915
7.01767
5.40533
6.60602
4.73449
3.44186
3.29217
3.9804
5.14231
3.90467
4.55023
6.07868
4.32413
3.36999
4.10213
2.98056
2.19683
2.10774
2.55867
3.29616
2.49839
2.88085
3.79403
2.63718
1.87058
1.77213
2.13731
2.75607
2.10097
2.45838
3.2857
2.33849
1.82218
2.21635
1.60562
1.17566
1.1195
1.34468
1.71933
1.27586
1.43024
1.85425
1.25659
0.881545
0.966691
0.60628
0.306496
0.164618
-0.0551752
-0.319018
-0.584925
-1.33183
-2.41211
-2.26546
-2.79572
-4.69773
-3.50368
-1.01126
-0.371588
-0.15504
-0.0440155
4.28854
5.84894
7.47041
11.5429
7.18178
5.13848
7.30575
4.75194
3.20824
3.09714
3.96156
5.64528
3.67014
4.54121
6.83986
4.32707
3.14505
4.47753
2.95805
2.02763
1.96359
2.53499
3.60726
2.34379
2.87116
4.26438
2.64087
1.7269
1.65376
2.11739
3.0157
1.96919
2.45135
3.6953
2.33972
1.70132
2.42145
1.59659
1.08859
1.04862
1.33874
1.89292
1.20744
1.4345
2.09915
1.27191
0.82998
1.0694
0.621612
0.292222
0.191286
-0.0292697
-0.2945
-0.491471
-1.32596
-2.71233
-2.2534
-2.76149
-5.52656
-3.95877
-0.731791
-0.232766
-0.0938188
-0.026398
5.59422
6.30449
7.68884
13.515
7.20768
4.64527
8.24177
4.71152
2.90384
2.85548
3.89723
6.3331
3.28497
4.45188
7.83976
4.25466
2.78779
4.99774
2.90322
1.81685
1.78982
2.48404
4.03679
2.09472
2.81295
4.8847
2.60428
1.54197
1.51023
2.07377
3.37392
1.75676
2.40157
4.23396
2.30036
1.50894
2.70493
1.57005
0.97888
0.962174
1.31815
2.129
1.09042
1.41383
2.41768
1.26477
0.742156
1.20648
0.629583
0.26566
0.223552
-0.00196711
-0.274907
-0.366057
-1.28913
-3.10373
-2.18719
-2.60116
-6.56409
-4.48775
-0.310322
-0.0796588
-0.0312552
-0.00874831
)
;

boundaryField
{
    left
    {
        type            calculated;
        value           uniform 0;
    }
    right
    {
        type            calculated;
        value           uniform 0;
    }
    interface
    {
        type            calculated;
        value           nonuniform List<scalar> 
64
(
5.59422
6.30449
7.68884
13.515
7.20768
4.64527
8.24177
4.71152
2.90384
2.85548
3.89723
6.3331
3.28497
4.45188
7.83976
4.25466
2.78779
4.99774
2.90322
1.81685
1.78982
2.48404
4.03679
2.09472
2.81295
4.8847
2.60428
1.54197
1.51023
2.07377
3.37392
1.75676
2.40157
4.23396
2.30036
1.50894
2.70493
1.57005
0.97888
0.962174
1.31815
2.129
1.09042
1.41383
2.41768
1.26477
0.742156
1.20648
0.629583
0.26566
0.223552
-0.00196711
-0.274907
-0.366057
-1.28913
-3.10373
-2.18719
-2.60116
-6.56409
-4.48775
-0.310322
-0.0796588
-0.0312552
-0.00874831
)
;
    }
    bottom
    {
        type            calculated;
        value           nonuniform List<scalar> 
64
(
0.00772704
0.022945
0.0374767
0.0509353
0.0630273
0.0735671
0.0824753
0.0897637
0.0955135
0.0998494
0.102918
0.10487
0.105852
0.106
0.105443
0.104301
0.102689
0.100718
0.0984879
0.0960882
0.0935939
0.0910626
0.0885348
0.0860351
0.0835754
0.0811577
0.0787776
0.0764255
0.0740878
0.0717477
0.0693858
0.0669813
0.0645145
0.0619682
0.0593299
0.0565919
0.0537507
0.0508051
0.0477537
0.0445925
0.0413142
0.0379079
0.0343616
0.0306646
0.0268118
0.0228072
0.0186681
0.0144269
0.0101339
0.00585757
0.00168452
-0.00228226
-0.00592674
-0.0091253
-0.0117545
-0.0137011
-0.0148727
-0.0152092
-0.0146913
-0.0133463
-0.011249
-0.00851804
-0.0053085
-0.00180274
)
;
    }
    defaultFaces
    {
        type            empty;
    }
}


// ************************************************************************* //
