/*--------------------------------*- C++ -*----------------------------------*\
| =========                 |                                                 |
| \\      /  F ield         | OpenFOAM: The Open Source CFD Toolbox           |
|  \\    /   O peration     | Version:  5.x                                   |
|   \\  /    A nd           | Web:      www.OpenFOAM.org                      |
|    \\/     M anipulation  |                                                 |
\*---------------------------------------------------------------------------*/
FoamFile
{
    version     2.0;
    format      ascii;
    class       volScalarField;
    location    "9";
    object      gradTy;
}
// * * * * * * * * * * * * * * * * * * * * * * * * * * * * * * * * * * * * * //

dimensions      [0 -1 0 1 0 0 0];

internalField   nonuniform List<scalar> 
6300
(
1028.58
1085.97
1144.05
1203.27
1264.06
1326.81
1391.87
1459.51
1529.94
1603.26
1679.47
1758.42
1839.83
1923.29
2008.26
-0.348724
-1.03993
-1.71187
-2.34995
-2.93717
-3.45349
-3.87567
-4.17781
-4.33281
-4.31495
-4.10363
-3.68781
-3.07056
-2.27215
-1.33044
-0.588158
-1.75466
-2.89077
-3.97316
-4.97416
-5.8605
-6.59285
-7.12643
-7.41321
-7.40622
-7.06613
-6.36963
-5.31833
-3.94569
-2.3186
-0.837412
-2.49977
-4.12336
-5.67773
-7.12573
-8.4214
-9.50871
-10.3217
-10.7872
-10.8305
-10.3849
-9.40608
-7.88734
-5.87352
-3.46652
-1.09911
-3.28363
-5.42514
-7.48861
-9.42956
-11.1906
-12.6988
-13.8645
-14.5835
-14.7434
-14.2368
-12.9824
-10.9513
-8.19452
-4.85729
-1.37449
-4.11044
-6.80488
-9.42192
-11.9132
-14.2125
-16.2311
-17.8538
-18.9387
-19.3225
-18.8363
-17.335
-14.7409
-11.0957
-6.59825
-1.66288
-4.97874
-8.26195
-11.4809
-14.5886
-17.515
-20.1591
-22.3807
-23.9947
-24.7714
-24.4508
-22.7801
-19.5814
-14.8488
-8.84077
-1.96117
-5.87961
-9.78316
-13.6511
-17.4451
-21.0996
-24.5094
-27.515
-29.8876
-31.3171
-31.4152
-29.7529
-25.9557
-19.8772
-11.816
-2.26335
-6.79527
-11.3399
-15.895
-20.441
-24.9287
-29.2634
-33.282
-36.7234
-39.1937
-40.1398
-38.8601
-34.6109
-26.8882
-15.913
-2.56029
-7.6982
-12.8858
-18.148
-23.495
-28.9104
-34.333
-39.6259
-44.5298
-48.5939
-51.0896
-50.9366
-46.7393
-37.1516
-21.8662
-2.83989
-8.55135
-14.357
-20.316
-26.4801
-32.8847
-39.5319
-46.3584
-53.1754
-59.562
-64.6878
-67.0568
-64.2576
-53.1127
-31.283
-3.08778
-9.31026
-15.6746
-22.2786
-29.2244
-36.6159
-44.5511
-53.0999
-62.2508
-71.79
-81.0421
-88.3447
-90.1212
-79.7581
-48.3909
-3.28874
-9.92723
-16.7522
-23.8993
-31.5227
-39.803
-48.9562
-59.2388
-70.9371
-84.3046
-99.3449
-115.158
-128.124
-127.407
-86.8451
-3.42863
-10.3576
-17.5073
-25.0436
-33.1638
-42.1166
-52.2312
-63.9612
-77.9533
-95.1453
-116.874
-144.816
-179.807
-214.898
-200.113
-3.49672
-10.5673
-17.8757
-25.6035
-33.9718
-43.2681
-53.89
-66.4207
-81.7687
-101.448
-128.189
-167.425
-231.388
-352.262
-631.813
2086.94
2158.64
2230.08
2300.86
2370.58
2438.89
2505.45
2569.99
2632.26
2692.06
2749.23
2803.64
2855.18
2903.77
2949.35
2991.88
3031.32
3067.67
3100.9
3131.03
3158.06
3182
3202.9
3220.77
3235.66
3247.61
3256.66
3262.87
3266.3
3266.99
3265.01
3260.42
3253.26
3243.62
3231.53
3217.07
3200.28
3181.24
3159.99
3136.59
3111.11
3083.61
3054.14
3022.77
2989.55
2954.56
2917.84
2879.45
2839.45
2797.89
2754.81
2710.26
2664.28
2616.92
2568.22
2518.22
2466.97
2414.53
2360.93
2306.24
2250.51
2193.79
2136.15
2077.63
2018.31
1958.23
1897.47
1836.09
1774.16
1711.76
1648.99
1585.94
1522.72
1459.47
1396.31
1333.39
1270.86
1208.87
1147.6
1087.21
1027.85
969.679
912.849
857.497
803.75
751.718
701.493
653.145
606.722
562.247
-0.383581
0.502784
1.38077
2.22012
2.99683
3.69443
4.30414
4.82403
5.25758
5.61197
5.89642
6.12075
6.29438
6.4256
6.52129
6.58687
6.62644
6.64304
6.63898
6.61609
6.57599
6.52019
6.45021
6.36763
6.27404
6.17107
6.06034
5.94342
5.82182
5.69696
5.5701
5.44233
5.31447
5.18705
5.06028
4.93408
4.80807
4.68175
4.5546
4.42621
4.29646
4.16563
4.03441
3.90388
3.77538
3.65034
3.53006
3.4155
3.30704
3.20446
3.10683
3.01265
2.92004
2.82694
2.73147
2.63212
2.52801
2.4189
2.30518
2.18768
2.06738
1.94513
1.82124
1.69529
1.56589
1.43071
1.2866
1.12986
0.956637
0.763403
0.54737
0.306883
0.0416619
-0.24711
-0.556852
-0.883787
-1.22322
-1.56986
-1.91809
-2.26216
-2.59631
-2.91473
-3.21157
-3.4808
-3.71633
-3.91212
-4.06256
-4.16302
-4.21038
-4.20357
-0.68045
0.850828
2.36228
3.79951
5.12034
6.29709
7.31641
8.17742
8.88861
9.46461
9.923
10.2819
10.558
10.7657
10.9165
11.0192
11.0802
11.1042
11.0944
11.0537
10.9844
10.889
10.7698
10.6296
10.471
10.2968
10.1098
9.91247
9.70755
9.49742
9.28427
9.07
8.85604
8.64334
8.43222
8.22244
8.01324
7.80355
7.59225
7.37845
7.16178
6.94263
6.72222
6.50253
6.28609
6.07564
5.87369
5.68211
5.50176
5.33225
5.17192
5.01798
4.86687
4.71474
4.558
4.39388
4.22074
4.03829
3.84746
3.65007
3.44829
3.24404
3.03829
2.83058
2.61864
2.39839
2.16411
1.90901
1.62596
1.30835
0.950938
0.550587
0.106682
-0.378701
-0.900945
-1.4533
-2.02746
-2.61415
-3.20369
-3.78635
-4.35251
-4.8926
-5.39692
-5.85539
-6.25754
-6.59275
-6.85087
-7.02324
-7.1039
-7.0906
-1.03751
1.22785
3.45116
5.54704
7.45191
9.12703
10.5573
11.7472
12.7151
13.4873
14.0937
14.563
14.9209
15.1884
15.3817
15.5123
15.5882
15.6147
15.5954
15.5333
15.4315
15.2928
15.1207
14.919
14.6915
14.4421
14.1749
13.8935
13.6018
13.3032
13.0011
12.6982
12.3968
12.0984
11.8033
11.511
11.2201
10.9287
10.6345
10.3358
10.0317
9.72246
9.41
9.09749
8.78917
8.48967
8.20336
7.93352
7.68181
7.44776
7.22874
7.02017
6.81609
6.61006
6.39606
6.16948
5.92773
5.67059
5.40002
5.11958
4.83356
4.54588
4.25893
3.97268
3.6841
3.38697
3.07228
2.72908
2.3457
1.91122
1.41695
0.857602
0.232004
-0.456652
-1.20113
-1.9909
-2.81314
-3.65384
-4.49872
-5.33385
-6.14583
-6.92159
-7.64788
-8.31068
-8.8948
-9.38407
-9.76232
-10.0152
-10.1324
-10.1097
-1.47693
1.66539
4.7235
7.56962
10.1143
12.3095
14.1445
15.6369
16.8233
17.7492
18.4618
19.0047
19.4141
19.7183
19.9374
20.0846
20.1677
20.1912
20.1581
20.0706
19.9317
19.7449
19.5146
19.2458
18.9437
18.6135
18.2606
17.8898
17.5062
17.1145
16.7193
16.3246
15.9338
15.5489
15.1706
14.7978
14.4282
14.0582
13.6837
13.3014
12.9093
12.5073
12.0982
11.6868
11.2799
10.8851
10.5096
10.1592
9.83678
9.54199
9.27087
9.01622
8.76849
8.5172
8.25259
7.96725
7.65723
7.32258
6.96711
6.59744
6.22157
5.84699
5.47887
5.11848
4.76218
4.40113
4.02182
3.60732
3.1393
2.60048
1.97699
1.26031
0.448425
-0.45392
-1.43581
-2.48144
-3.57195
-4.68722
-5.80751
-6.9144
-7.99101
-9.02152
-9.99
-10.879
-11.6684
-12.335
-12.8541
-13.2023
-13.3622
-13.3257
-2.01576
2.2245
6.3014
10.0266
13.2802
16.0112
18.2252
19.9679
21.3071
22.3187
23.0752
23.6391
24.0595
24.3715
24.5975
24.7498
24.8336
24.8502
24.7997
24.6828
24.5017
24.2606
23.9649
23.6214
23.2371
22.8188
22.3728
21.9056
21.4231
20.9318
20.4376
19.9465
19.4632
18.991
18.5308
18.0811
17.6379
17.1949
16.7452
16.2822
15.8019
15.3035
14.7906
14.2706
13.7542
13.2536
12.7809
12.3455
11.9529
11.6031
11.2902
11.0032
10.7269
10.4444
10.1399
9.80142
9.42304
9.00539
8.55546
8.08506
7.60851
7.13958
6.68845
6.25913
5.84782
5.44233
5.02275
4.5633
4.03554
3.41232
2.67185
1.80074
0.795727
-0.336042
-1.57808
-2.90678
-4.29451
-5.7128
-7.13504
-8.53798
-9.90203
-11.2102
-12.446
-13.5904
-14.6183
-15.4979
-16.1913
-16.6604
-16.8742
-16.818
-2.66164
3.01886
8.38572
13.1625
17.1985
20.4568
22.9845
24.8795
26.2626
27.2555
27.9659
28.4802
28.861
29.1484
29.3636
29.5136
29.5962
29.6058
29.5371
29.3875
29.1583
28.8546
28.4841
28.056
27.5796
27.0637
26.5159
25.9433
25.3531
24.7532
24.1518
23.5572
22.9769
22.4158
21.8761
21.3554
20.8474
20.3417
19.8259
19.2882
18.7207
18.1209
17.4934
16.8496
16.2059
15.5823
14.9985
14.4705
14.0077
13.6111
13.2726
12.975
12.6945
12.4035
12.0762
11.6933
11.2456
10.7349
10.1735
9.58177
8.98471
8.40678
7.86686
7.3741
6.92531
6.50406
6.0813
5.6179
5.06947
4.39324
3.55507
2.53422
1.3258
-0.0591314
-1.59527
-3.24684
-4.97275
-6.73238
-8.49001
-10.2172
-11.8931
-13.5028
-15.0335
-16.4688
-17.7816
-18.9284
-19.8513
-20.4855
-20.7748
-20.6904
-3.39843
4.2647
11.3195
17.3646
22.236
25.9539
28.6538
30.527
31.7788
32.5978
33.1378
33.5124
33.7958
34.0283
34.2228
34.3733
34.4629
34.4731
34.3897
34.2055
33.9212
33.5438
33.0851
32.5588
31.978
31.3535
30.6935
30.0052
29.2961
28.5756
27.855
27.1465
26.4616
25.8091
25.1927
24.6104
24.0525
23.502
22.9371
22.3364
21.6849
20.9771
20.219
19.4271
18.6278
17.8528
17.1349
16.5005
15.9661
15.5347
15.195
14.9215
14.6763
14.4141
14.0916
13.6777
13.1581
12.5367
11.8343
11.0854
10.3326
9.6185
8.97664
8.42507
7.96246
7.56734
7.19775
6.79436
6.28684
5.60678
4.70082
3.5373
2.10958
0.435082
-1.44662
-3.48022
-5.60269
-7.75507
-9.88893
-11.9705
-13.9796
-15.909
-17.7581
-19.5238
-21.1835
-22.6811
-23.9268
-24.8069
-25.2131
-25.0879
-4.15096
6.3861
15.7063
23.2561
28.9339
32.9158
35.5118
37.0677
37.9164
38.3398
38.5459
38.674
38.8018
38.9606
39.1432
39.3185
39.4416
39.4732
39.385
39.1655
38.8156
38.3477
37.781
37.1376
36.4371
35.692
34.9095
34.0945
33.2531
32.3959
31.5383
30.6994
29.8975
29.1477
28.4581
27.8281
27.2445
26.6807
26.0974
25.4554
24.7277
23.9036
22.9908
22.0133
21.0124
20.0391
19.1486
18.3845
17.7743
17.3239
17.02
16.8252
16.6807
16.5093
16.2365
15.8125
15.2152
14.4533
13.5599
12.593
11.6228
10.7245
9.95465
9.34625
8.90078
8.59222
8.36132
8.11926
7.75118
7.14421
6.21611
4.9195
3.24751
1.2265
-1.08035
-3.58661
-6.19052
-8.80527
-11.3639
-13.8285
-16.1815
-18.4313
-20.6031
-22.7317
-24.819
-26.7965
-28.5289
-29.8108
-30.4162
-30.227
-4.67974
10.2591
22.6418
31.8421
38.0731
41.8731
43.8672
44.6259
44.6656
44.3935
44.065
43.835
43.7618
43.8576
44.0728
44.3376
44.551
44.6442
44.5683
44.312
43.8786
43.2928
42.5859
41.7974
40.959
40.0831
39.1711
38.2204
37.2315
36.2157
35.1934
34.1979
33.2571
32.3986
31.6362
30.9779
30.4069
29.8861
29.3415
28.6964
27.9086
26.9565
25.8546
24.632
23.3564
22.1048
20.9795
20.0457
19.3512
18.9013
18.687
18.6552
18.7228
18.7495
18.5982
18.1961
17.5082
16.5583
15.3907
14.1044
12.8085
11.6446
10.6994
10.032
9.64114
9.50455
9.54019
9.62491
9.55882
9.14342
8.2614
6.8417
4.8875
2.42907
-0.4273
-3.55275
-6.76299
-9.93645
-12.9746
-15.8474
-18.5321
-21.066
-23.5103
-25.9989
-28.6124
-31.2647
-33.779
-35.7887
-36.7631
-36.4539
-4.22215
17.8126
34.1594
44.7031
50.7124
53.431
54.0022
53.2205
51.865
50.5296
49.4437
48.7713
48.4802
48.5838
48.9326
49.4322
49.8347
50.0606
50.013
49.7154
49.1626
48.4141
47.5104
46.531
45.5371
44.5281
43.4906
42.4036
41.2508
40.0471
38.8121
37.6197
36.5003
35.5134
34.667
34.004
33.4992
33.1284
32.7324
32.1451
31.3285
30.2273
28.8947
27.3295
25.6679
23.9913
22.5367
21.3647
20.5781
20.1418
20.0933
20.3444
20.8259
21.2482
21.3231
20.9932
20.1805
18.9788
17.3945
15.6315
13.8065
12.2517
11.0462
10.3214
10.0173
10.1707
10.6501
11.3495
11.8711
11.8162
11.0826
9.53515
7.25521
4.20628
0.614862
-3.39515
-7.3868
-11.2609
-14.8218
-18.1356
-21.0983
-23.8284
-26.3521
-29.0847
-32.3488
-35.9304
-39.7545
-43.2563
-44.957
-44.3621
-0.0696571
33.5569
54.0339
64.0932
68.0889
68.0792
66.0837
62.6397
59.034
56.3048
54.2256
53.1571
52.6286
52.9553
53.5738
54.6648
55.3714
55.8693
55.8158
55.4848
54.7269
53.7571
52.5423
51.2837
50.1354
49.0125
47.8799
46.6797
45.342
43.922
42.3681
40.9348
39.5513
38.4244
37.4321
36.8009
36.3973
36.4052
36.3973
35.9227
35.1567
33.83
32.2682
30.1644
27.9994
25.5569
23.6855
22.1273
21.2994
20.8225
21.0667
21.7005
23.0132
24.2459
24.6298
24.4842
23.4117
21.9493
19.6542
17.247
14.4139
12.3549
10.6995
10.0043
9.73344
10.3662
11.4426
13.329
15.0127
15.4655
15.0748
13.2826
10.7295
6.76398
2.25916
-3.26457
-8.18037
-13.0366
-17.0251
-20.9294
-23.9995
-26.8881
-28.8932
-31.4048
-35.6276
-40.2464
-46.1936
-53.3172
-56.4558
-55.027
18.9172
68.2358
88.9093
92.2147
91.2327
85.5863
80.2498
72.2906
64.9395
61.1427
57.551
56.7641
55.5442
56.9057
57.5331
60.4499
61.2073
62.4709
62.0167
61.8676
60.595
59.4515
57.6361
55.8762
54.6957
53.5096
52.3653
51.1527
49.5504
47.9886
45.7493
44.1768
42.2317
41.1403
39.6763
39.2687
38.7017
39.7039
40.7333
40.1187
39.7911
37.7704
36.4212
33.0863
30.7297
26.2991
24.3824
21.8373
21.5143
20.4637
21.4784
22.0779
25.3146
28.4647
28.6981
29.3088
27.2033
26.1179
22.0744
19.4751
13.9058
11.8761
8.9695
9.07518
8.14766
9.92246
11.0677
15.5996
19.9262
20.3285
21.0847
18.1251
16.237
10.0977
5.37023
-4.00973
-9.05992
-16.0622
-19.3497
-24.9243
-27.1622
-31.2196
-30.7049
-31.2606
-38.3357
-42.649
-50.9382
-69.1158
-74.5308
-70.443
105.337
144.162
148.792
126.508
121.092
102.646
98.1919
81.0655
65.7266
65.685
56.8373
60.9946
54.7425
61.9132
58.1954
69.3446
66.3142
71.5459
67.7779
69.8683
66.2773
66.1133
62.6501
59.6346
59.2645
57.9467
56.9492
56.187
53.7009
53.031
48.1706
47.9559
43.6831
44.3932
40.3998
41.9667
38.7469
42.9639
47.4369
43.9019
46.864
40.7443
43.434
34.6001
36.4469
23.4221
25.9846
18.3479
22.7776
17.1317
22.4884
18.6584
27.7413
36.8838
32.2236
38.0453
29.5264
34.5466
22.4152
25.9805
8.30128
12.6606
2.9024
9.63448
2.67115
10.3858
5.81643
18.1663
30.491
24.6821
32.4455
21.4248
27.8666
11.3991
15.1814
-10.989
-7.12765
-24.4364
-18.3798
-33.7232
-27.7037
-42.1342
-30.9741
-21.7278
-45.0197
-39.3252
-41.4425
-103.291
-106.288
-94.2884
535.709
269.325
247.429
136.509
169.711
99.5547
134.38
87.2642
44.4836
82.9062
37.3946
80.2128
34.6101
82.5983
37.4471
98.6556
59.5214
93.5783
65.1008
86.0477
67.0223
77.5239
67.017
59.5815
65.1956
61.9204
61.1922
63.7018
55.2338
64.1059
43.9001
57.5765
37.9571
54.4174
33.1143
51.5554
28.0814
45.8531
65.6702
38.3275
67.013
31.0304
67.0391
20.7317
63.5774
-1.90222
42.2717
-2.51837
38.5478
-2.04548
36.7254
-3.35746
30.0806
65.1771
20.6536
67.4302
12.3515
67.6719
0.151438
63.0763
-29.0401
33.7731
-26.9119
29.9139
-23.9428
28.5369
-23.7997
20.7681
67.1668
9.49018
70.8543
-0.422854
72.4846
-16.4604
68.1234
-61.2147
25.2892
-66.4572
13.4061
-73.2848
1.20282
-89.8989
-28.4873
34.6599
-93.4438
-24.7519
54.0661
-222.209
-159.64
-134.12
515.464
467.184
421.567
378.475
337.74
299.169
262.554
227.679
194.324
162.273
131.311
101.23
71.8277
42.9056
14.2701
-4.1378
-3.99521
-3.79163
-3.53932
-3.2513
-2.93989
-2.61575
-2.28731
-1.96066
-1.63969
-1.32639
-1.02123
-0.72349
-0.431603
-0.143442
-6.9749
-6.72633
-6.37346
-5.93853
-5.44483
-4.91401
-4.36441
-3.81025
-3.2615
-2.72432
-2.20164
-1.69383
-1.19932
-0.715201
-0.237652
-9.93416
-9.5616
-9.0372
-8.39639
-7.67536
-6.9068
-6.11756
-5.32769
-4.5507
-3.7944
-3.06198
-2.35308
-1.66474
-0.992218
-0.329614
-13.0742
-12.5485
-11.8172
-10.9343
-9.95326
-8.92017
-7.87124
-6.83216
-5.81913
-4.84054
-3.89876
-2.99173
-2.11431
-1.2593
-0.418197
-16.4654
-15.7407
-14.7484
-13.5703
-12.283
-10.9492
-9.61493
-8.31046
-7.05303
-5.8498
-4.70071
-3.60072
-2.54144
-1.51245
-0.502062
-20.1963
-19.2003
-17.865
-16.3151
-14.659
-12.9785
-11.3286
-9.74159
-8.23259
-6.80481
-5.4535
-4.16891
-2.93825
-1.74698
-0.579653
-24.3838
-22.999
-21.1958
-19.1658
-17.059
-14.977
-12.9792
-11.0945
-9.33077
-7.68322
-6.13949
-4.68312
-3.2956
-1.95755
-0.649211
-29.1875
-27.2158
-24.7532
-22.0929
-19.434
-16.8909
-14.5166
-12.3262
-10.3126
-8.45769
-6.738
-5.12838
-3.60345
-2.13835
-0.708848
-34.8287
-31.923
-28.5079
-25.0182
-21.6931
-18.6356
-15.8699
-13.3808
-11.1356
-9.09675
-7.22634
-5.48885
-3.85139
-2.28353
-0.756663
-41.6016
-37.1387
-32.3368
-27.7785
-23.6842
-20.0881
-16.9465
-14.1911
-11.7522
-9.56717
-7.58164
-5.74918
-4.02967
-2.38767
-0.790926
-49.8253
-42.6929
-35.9213
-30.0742
-25.1766
-21.0859
-17.6366
-14.6845
-12.1148
-9.8379
-7.78372
-5.89648
-4.13039
-2.4465
-0.810289
-59.5063
-47.8855
-38.5809
-31.4198
-25.8616
-21.442
-17.8291
-14.7954
-12.1844
-9.88569
-7.81873
-5.92252
-4.14882
-2.4576
-0.814008
-68.8758
-50.761
-39.0964
-31.1621
-25.4075
-20.9909
-17.442
-14.4834
-11.9416
-9.70154
-7.68283
-5.82597
-4.08469
-2.42104
-0.802136
-68.6359
-47.1856
-35.8807
-28.7241
-23.6149
-19.6719
-16.4644
-13.7543
-11.3966
-9.29591
-7.38495
-5.61373
-3.94286
-2.33968
-0.775622
-3.4944
-10.5597
-17.8612
-25.5793
-33.9341
-43.2123
-53.812
-66.3192
-81.6529
-101.361
-128.277
-168.155
-234.171
-360.632
-647.741
-3.43369
-10.3721
-17.529
-25.0696
-33.1922
-42.1487
-52.2781
-64.0568
-78.1842
-95.7202
-118.29
-148.234
-187.75
-231.304
-219.51
-3.32365
-10.0325
-16.9301
-24.1557
-31.8707
-40.2704
-49.5983
-60.1629
-72.3475
-86.5835
-103.181
-121.664
-138.524
-140.409
-87.9616
-3.17081
-9.56187
-16.1032
-22.9017
-30.0736
-37.747
-46.0592
-55.1436
-65.0858
-75.8062
-86.7604
-96.2193
-99.6981
-87.2426
-42.1594
-2.98363
-8.98677
-15.0977
-21.3881
-27.9281
-34.7797
-41.9836
-49.5281
-57.2831
-64.8662
-71.3777
-74.9262
-71.9363
-56.7341
-23.6037
-2.77152
-8.33678
-13.9673
-19.7011
-25.5658
-31.5674
-37.6712
-43.7659
-49.5994
-54.6699
-58.0524
-58.1731
-52.6545
-38.6754
-14.8236
-2.54396
-7.64141
-12.765
-17.9232
-23.1082
-28.2838
-33.3648
-38.1845
-42.4451
-45.6452
-46.9918
-45.3359
-39.2473
-27.4725
-10.0678
-2.30974
-6.92781
-11.5386
-16.1264
-20.6571
-25.0659
-29.2394
-32.9911
-36.0269
-37.9071
-38.0158
-35.5767
-29.7885
-20.179
-7.20837
-2.07649
-6.21923
-10.328
-14.3691
-18.2905
-22.011
-25.4069
-28.2945
-30.4109
-31.3988
-30.8086
-28.1432
-22.983
-15.2194
-5.35314
-1.85033
-5.53415
-9.16438
-12.6949
-16.0632
-19.1814
-21.9273
-24.1333
-25.5782
-25.9861
-25.0422
-22.4418
-17.9853
-11.7199
-4.08118
-1.63586
-4.88623
-8.06988
-11.1333
-14.0093
-16.6103
-18.8225
-20.5005
-21.4656
-21.5119
-20.4261
-18.0293
-14.2435
-9.17397
-3.17286
-1.43621
-4.28461
-7.05875
-9.70187
-12.1462
-14.309
-16.0884
-17.3625
-17.991
-17.8237
-16.7201
-14.5811
-11.3932
-7.27489
-2.50381
-1.25323
-3.7345
-6.13854
-8.40831
-10.4787
-12.2737
-13.7051
-14.6729
-15.0688
-14.7856
-13.733
-11.8612
-9.18891
-5.82907
-1.99899
-1.08772
-3.23799
-5.31152
-7.25318
-9.00218
-10.4907
-11.6437
-12.3802
-12.618
-12.2816
-11.3148
-9.69719
-7.46199
-4.70976
-1.61074
-0.939687
-2.79475
-4.57604
-6.23175
-7.70648
-8.94074
-9.87141
-10.4338
-10.5659
-10.2153
-9.34839
-7.96194
-6.09404
-3.83122
-1.30753
-0.808528
-2.4027
-3.92772
-5.33594
-6.57771
-7.6015
-8.35474
-8.78606
-8.84898
-8.50744
-7.74268
-6.56097
-5.00029
-3.13381
-1.06775
-0.693253
-2.05865
-3.36049
-4.55565
-5.60026
-6.45006
-7.06156
-7.39406
-7.41284
-7.09339
-6.42646
-5.42312
-4.11886
-2.57497
-0.876198
-0.592628
-1.75873
-2.86731
-3.87988
-4.75804
-5.46406
-5.96206
-6.21985
-6.2115
-5.92059
-5.34378
-4.4942
-3.40379
-2.12366
-0.721872
-0.505299
-1.49874
-2.44077
-3.29741
-4.03531
-4.62246
-5.02933
-5.23041
-5.20633
-4.94627
-4.45048
-3.73249
-2.82042
-1.75683
-0.596673
-0.429879
-1.27443
-2.07352
-2.79737
-3.41722
-3.90602
-4.23945
-4.39728
-4.36499
-4.13561
-3.71145
-3.10552
-2.34226
-1.45704
-0.494515
-0.365016
-1.08169
-1.75849
-2.36953
-2.89011
-3.29743
-3.57147
-3.69613
-3.66049
-3.46018
-3.0986
-2.58779
-1.94875
-1.21094
-0.410755
-0.309426
-0.916627
-1.4891
-2.00448
-2.44164
-2.78138
-3.0072
-3.10626
-3.0703
-2.89672
-2.58936
-2.15908
-1.62383
-1.00813
-0.341802
-0.261924
-0.775673
-1.25936
-1.69373
-2.06079
-2.3444
-2.53094
-2.61012
-2.57566
-2.42613
-2.16545
-1.80324
-1.35477
-0.840459
-0.284846
-0.221433
-0.65559
-1.06385
-1.42971
-1.73788
-1.9748
-2.12923
-2.19286
-2.16092
-2.03272
-1.81203
-1.50728
-1.13142
-0.701467
-0.237664
-0.186988
-0.553487
-0.897766
-1.20574
-1.46444
-1.66247
-1.79055
-1.84194
-1.813
-1.70351
-1.51697
-1.26069
-0.945626
-0.585977
-0.198482
-0.157735
-0.466808
-0.756888
-1.01598
-1.23311
-1.39872
-1.5051
-1.54681
-1.52101
-1.42779
-1.27032
-1.0549
-0.790787
-0.489819
-0.165875
-0.132923
-0.393314
-0.637522
-0.85536
-1.03755
-1.17608
-1.26455
-1.29853
-1.27582
-1.19667
-1.06391
-0.882929
-0.661532
-0.409612
-0.138688
-0.111897
-0.331055
-0.536461
-0.719486
-0.872298
-0.988182
-1.06183
-1.08962
-1.06981
-1.00277
-0.890971
-0.739014
-0.553468
-0.342599
-0.115981
-0.0940913
-0.278342
-0.450939
-0.604585
-0.732685
-0.82961
-0.890951
-0.913736
-0.896607
-0.839945
-0.745912
-0.618418
-0.462986
-0.286519
-0.0969836
-0.0790148
-0.233719
-0.378573
-0.507421
-0.614714
-0.695742
-0.74684
-0.765566
-0.750846
-0.703063
-0.624083
-0.517219
-0.387106
-0.239511
-0.0810634
-0.0662465
-0.195936
-0.31732
-0.425219
-0.514976
-0.582653
-0.625202
-0.640616
-0.62804
-0.587838
-0.521613
-0.432159
-0.323364
-0.200038
-0.0676975
-0.0554248
-0.163917
-0.265429
-0.355613
-0.430568
-0.487008
-0.522402
-0.535097
-0.524412
-0.49068
-0.435268
-0.360528
-0.269709
-0.166822
-0.0564524
-0.0462396
-0.136744
-0.221403
-0.296578
-0.359014
-0.405974
-0.435359
-0.445812
-0.436783
-0.408574
-0.362342
-0.300058
-0.224433
-0.138801
-0.0469672
-0.0384253
-0.113629
-0.18396
-0.246387
-0.298205
-0.33714
-0.361461
-0.37005
-0.362469
-0.338981
-0.300561
-0.248851
-0.186105
-0.115085
-0.0389404
-0.0317542
-0.0938979
-0.152004
-0.203563
-0.246338
-0.278453
-0.298484
-0.305516
-0.299197
-0.279756
-0.248004
-0.205306
-0.153521
-0.0949279
-0.0321185
-0.0260304
-0.0769699
-0.124592
-0.166837
-0.20187
-0.228156
-0.244531
-0.250251
-0.245034
-0.229076
-0.203048
-0.168069
-0.125664
-0.0776975
-0.0262877
-0.0210849
-0.0623449
-0.100913
-0.135119
-0.163476
-0.184741
-0.197974
-0.202578
-0.198329
-0.185389
-0.164305
-0.135986
-0.101668
-0.0628575
-0.0212663
-0.0167712
-0.0495888
-0.0802622
-0.107462
-0.130004
-0.146901
-0.157408
-0.161052
-0.157657
-0.147355
-0.130585
-0.108069
-0.0807913
-0.0499479
-0.0168982
-0.0129607
-0.0383213
-0.0620231
-0.0830377
-0.10045
-0.113499
-0.121607
-0.124412
-0.121779
-0.113813
-0.100853
-0.0834586
-0.0623896
-0.0385701
-0.0130487
-0.00953953
-0.0282055
-0.0456495
-0.0611144
-0.0739266
-0.0835255
-0.0894876
-0.0915463
-0.089604
-0.0837382
-0.0741989
-0.0613991
-0.0458974
-0.0283737
-0.00959904
-0.00640514
-0.0189379
-0.03065
-0.0410327
-0.0496339
-0.0560771
-0.0600783
-0.0614586
-0.060153
-0.0562136
-0.0498086
-0.0412154
-0.030809
-0.0190459
-0.00644332
-0.00346339
-0.0102402
-0.0165733
-0.0221879
-0.0268393
-0.0303241
-0.0324885
-0.0332357
-0.0325305
-0.0304007
-0.0269374
-0.0222904
-0.0166626
-0.0103008
-0.00348483
-0.000625768
-0.00185042
-0.00299552
-0.00401166
-0.0048547
-0.00548772
-0.00588259
-0.00602128
-0.00589683
-0.00551374
-0.00488799
-0.00404646
-0.00302583
-0.00187099
-0.000633043
0.00219319
0.0064841
0.0104927
0.0140444
0.0169841
0.0191833
0.0205455
0.0210105
0.0205572
0.0192048
0.0170116
0.0140732
0.0105178
0.00650111
0.00219921
0.00507842
0.0150146
0.0242982
0.0325252
0.0393369
0.0444353
0.0475963
0.0486797
0.0476355
0.0445069
0.0394286
0.032621
0.0243816
0.0150712
0.00509845
0.00811684
0.0239981
0.0388372
0.0519887
0.0628792
0.0710324
0.0760896
0.0778259
0.0761608
0.0711627
0.0630459
0.052163
0.038989
0.0241011
0.00815329
0.0113999
0.0337052
0.0545478
0.0730217
0.0883218
0.0997788
0.106888
0.109333
0.107
0.0999834
0.0885836
0.0732954
0.0547862
0.033867
0.0114571
0.0150263
0.0444277
0.0719027
0.096258
0.116433
0.131543
0.140925
0.144158
0.141091
0.131847
0.116821
0.0966641
0.0722563
0.0446677
0.0151112
0.0191048
0.0564874
0.0914235
0.122397
0.148059
0.167286
0.17923
0.183357
0.17947
0.167724
0.14862
0.122984
0.0919348
0.0568344
0.0192276
0.0237576
0.0702456
0.113695
0.152223
0.184152
0.208084
0.222962
0.228118
0.223305
0.20871
0.184954
0.153062
0.114426
0.0707413
0.0239329
0.0291233
0.0861131
0.139384
0.18663
0.225796
0.255167
0.273444
0.279801
0.273931
0.256057
0.226935
0.187821
0.140421
0.0868169
0.0293723
0.0353617
0.104562
0.169256
0.226647
0.274241
0.309953
0.3322
0.339973
0.332889
0.311212
0.275853
0.228333
0.170725
0.105559
0.0357142
0.0426573
0.126139
0.204198
0.273466
0.330934
0.374086
0.401004
0.41046
0.401979
0.375867
0.333213
0.275849
0.206274
0.127548
0.0431556
0.0512251
0.151481
0.245244
0.328475
0.397566
0.449489
0.48193
0.493399
0.483307
0.452005
0.400786
0.331843
0.248176
0.153472
0.0519292
0.0613161
0.181332
0.2936
0.393301
0.476117
0.538417
0.577416
0.591308
0.579361
0.54197
0.480665
0.398057
0.297742
0.184142
0.0623104
0.0732237
0.21656
0.350682
0.469849
0.568911
0.643521
0.690332
0.707154
0.693078
0.648538
0.575332
0.476564
0.35653
0.220529
0.0746276
0.0872914
0.258184
0.418146
0.560356
0.678679
0.767923
0.824066
0.844452
0.827943
0.775007
0.687745
0.569836
0.426402
0.263787
0.0892735
0.103921
0.307396
0.497934
0.667445
0.808635
0.915306
0.982624
1.00736
0.988097
0.925305
0.821433
0.680829
0.509589
0.315308
0.106719
0.123582
0.365591
0.592319
0.794195
0.962556
1.09001
1.17074
1.20083
1.17847
1.10412
0.980623
0.813089
0.608774
0.37676
0.127533
0.146821
0.434393
0.703959
0.94421
1.14488
1.29714
1.39402
1.43071
1.40492
1.31707
1.17038
0.970884
0.727189
0.450161
0.152399
0.174276
0.515695
0.835949
1.12171
1.3608
1.54273
1.65907
1.70396
1.67446
1.57086
1.39681
1.15936
0.868745
0.537957
0.182151
0.206682
0.61169
0.991887
1.33159
1.61642
1.83385
1.97373
2.02886
1.99546
1.87355
1.66725
1.38475
1.03819
0.643122
0.217801
0.244889
0.724909
1.17594
1.57957
1.91884
2.1788
2.34722
2.41522
2.37789
2.23484
1.99058
1.65462
1.24131
0.769289
0.260589
0.289868
0.858256
1.39289
1.87224
2.2763
2.5873
2.79043
2.8747
2.83371
2.6664
2.37757
1.97819
1.48519
0.920922
0.312039
0.342726
1.01504
1.64822
2.21717
2.69838
3.07068
3.31616
3.42114
3.37723
3.18231
2.84132
2.36674
1.77854
1.10353
0.374037
0.404707
1.19899
1.94813
2.62301
3.19606
3.6421
3.93942
4.07094
4.0256
3.79964
3.39782
2.83418
2.13216
1.32397
0.448933
0.477196
1.41426
2.2996
3.09955
3.7819
4.31677
4.67778
4.84353
4.79935
4.53905
4.06666
3.39767
2.5595
1.59082
0.539677
0.561711
1.66546
2.71034
3.65773
4.47013
5.11213
5.55168
5.76187
5.72314
5.4257
4.87199
4.07863
3.07743
1.91491
0.650009
0.659884
1.95751
3.18876
4.3096
5.27666
6.04804
6.58481
6.85302
6.82653
6.49027
5.8437
4.90388
3.70737
2.3101
0.784717
0.773427
2.29565
3.74382
5.06824
6.21901
7.14683
7.80437
8.14876
8.14498
7.77027
7.01899
5.90735
4.47669
2.79422
0.95001
0.90407
2.68518
4.3848
5.9474
7.31614
8.43323
9.24132
9.6862
9.72094
9.31169
8.44447
7.1323
5.42083
3.39063
1.15405
1.05348
3.13128
5.12087
6.96114
8.58797
9.93414
10.9304
11.5084
11.6051
11.1711
10.1789
8.63447
6.58627
4.13034
1.40775
1.22312
3.6386
5.9606
8.12303
10.0546
11.6779
12.91
13.6645
13.8579
13.4179
12.2967
10.4864
8.0348
5.0552
1.72594
1.41412
4.2108
6.91109
9.44516
11.7352
13.6934
15.2209
16.2103
16.5504
16.1377
14.8928
12.7837
9.84991
6.22282
2.12927
1.62702
4.84989
7.97696
10.9367
13.6462
16.0077
17.9055
19.2068
19.7656
19.4352
18.0891
15.6535
12.1464
7.71433
2.64717
1.86155
5.55547
9.15896
12.6018
15.7988
18.6438
21.0042
22.7186
23.5981
23.4378
22.0418
19.2672
15.0852
9.64679
3.32283
2.11631
6.32381
10.4524
14.4375
18.1957
21.6161
24.5514
26.8101
28.1526
28.2983
26.9517
23.8582
18.8963
12.1942
4.22186
2.38849
7.14687
11.8455
16.4307
20.8271
24.9251
28.5684
31.5375
33.5379
34.195
33.0745
29.7463
23.9159
15.6235
5.44822
2.67356
8.01137
13.3171
18.555
23.6653
28.5498
33.0531
36.9375
39.8557
41.3258
40.7302
37.372
30.6448
20.3602
7.17535
2.96508
8.89807
14.8358
20.7677
26.6601
32.4391
37.9673
43.0082
47.1787
49.8908
50.3041
47.3368
39.844
27.1107
9.71205
3.2546
9.78142
16.3583
23.0078
29.7333
36.5023
43.2195
49.6832
55.5139
60.0519
62.2252
60.444
52.6821
37.1007
13.6552
3.53184
10.63
17.8301
25.195
32.7762
40.601
48.6476
56.7972
64.7466
71.8545
76.8918
77.7038
70.95
52.5514
20.2823
3.78515
11.4076
19.1873
27.2317
35.6496
44.5455
54.0037
64.0497
74.5631
85.0943
94.492
100.217
97.304
77.6338
32.67
4.00221
12.0758
20.3606
29.009
38.1907
48.099
58.9512
70.977
84.3668
99.1205
114.642
128.728
135.294
120.281
59.2075
4.17117
12.5974
21.2812
30.4155
40.2271
50.9966
63.0834
76.9564
93.2224
112.613
135.787
162.459
188.269
194.912
125.565
4.28186
12.9399
21.8889
31.3514
41.5979
52.979
65.9746
81.2734
99.9074
123.477
154.502
196.788
254.551
322.313
318.161
4.32703
13.0802
22.1399
31.7426
42.1805
53.8399
67.2657
83.2737
103.164
129.161
165.396
220.367
313.888
499.651
949.762
4.30333
13.0076
22.0136
31.5537
41.9144
53.4737
66.7631
82.5769
102.179
127.734
163.277
217.173
309.166
493.409
944.603
4.21182
12.7254
21.5161
30.7947
40.8156
51.9055
64.507
79.2483
97.0602
119.371
148.41
187.523
240.377
301.78
296.271
4.05782
12.2506
20.6797
29.52
38.9741
49.2873
60.7642
73.7866
88.816
106.333
126.548
148.33
165.649
156.615
55.6005
-43.5223
-35.4568
-29.4159
-24.7417
-20.9752
-17.835
-15.1443
-12.7861
-10.6787
-8.76287
-6.99328
-5.33404
-3.75545
-2.23191
-0.740458
-16.3234
-22.6155
-22.3293
-20.3729
-18.0739
-15.8102
-13.6839
-11.7102
-9.87722
-8.16488
-6.55179
-5.0174
-3.54251
-2.10916
-0.70035
-7.42614
-14.3422
-16.4022
-16.2419
-15.1477
-13.69
-12.1172
-10.5365
-8.99184
-7.49785
-6.05555
-4.65938
-3.30069
-1.96935
-0.6546
-4.04001
-9.44114
-12.0168
-12.7591
-12.4739
-11.6494
-10.5558
-9.33772
-8.07115
-6.79485
-5.5272
-4.27529
-3.03983
-1.818
-0.604985
-2.51418
-6.50205
-8.90445
-9.98963
-10.1744
-9.79564
-9.08078
-8.17248
-7.1571
-6.08575
-4.98786
-3.8797
-2.76947
-1.66049
-0.553252
-1.71089
-4.66391
-6.70673
-7.84535
-8.26614
-8.17513
-7.73996
-7.08149
-6.28185
-5.395
-4.4556
-3.48552
-2.4982
-1.50176
-0.501003
-1.23311
-3.45778
-5.13685
-6.19945
-6.71321
-6.79352
-6.5541
-6.08846
-5.46709
-4.74066
-3.9446
-3.10325
-2.23324
-1.346
-0.449616
-0.92304
-2.63051
-3.99499
-4.93463
-5.4612
-5.63387
-5.52527
-5.2035
-4.72522
-4.13463
-3.46499
-2.74085
-1.98024
-1.19656
-0.400203
-0.709218
-2.04141
-3.14811
-3.95662
-4.45488
-4.66946
-4.6444
-4.42717
-4.06129
-3.58344
-3.02318
-2.40374
-1.74321
-1.05593
-0.353595
-0.555282
-1.60886
-2.50828
-3.19399
-3.64552
-3.87142
-3.89693
-3.75403
-3.47505
-3.08944
-2.62245
-2.09512
-1.52476
-0.925737
-0.310352
-0.440913
-1.28335
-2.01681
-2.59396
-2.9928
-3.21248
-3.26637
-3.17532
-2.96282
-2.6519
-2.26359
-1.81636
-1.32618
-0.806898
-0.270799
-0.353896
-1.03349
-1.63388
-2.11774
-2.46444
-2.66865
-2.73641
-2.68093
-2.51891
-2.26808
-1.94562
-1.5674
-1.14779
-0.699729
-0.235062
-0.286456
-0.83862
-1.33186
-1.73673
-2.03502
-2.21953
-2.29201
-2.26047
-2.13664
-1.93398
-1.66634
-1.34718
-0.989145
-0.604082
-0.20311
-0.233423
-0.684657
-1.0912
-1.4297
-1.68458
-1.84818
-1.91983
-1.90409
-1.80908
-1.64497
-1.42283
-1.15392
-0.849259
-0.519475
-0.174802
-0.191228
-0.561724
-0.897761
-1.18074
-1.3975
-1.54068
-1.60829
-1.60272
-1.52949
-1.39625
-1.21179
-0.985476
-0.726808
-0.4452
-0.149914
-0.157338
-0.462712
-0.741157
-0.977763
-1.16149
-1.28562
-1.34757
-1.34831
-1.29157
-1.18306
-1.02979