/*--------------------------------*- C++ -*----------------------------------*\
| =========                 |                                                 |
| \\      /  F ield         | OpenFOAM: The Open Source CFD Toolbox           |
|  \\    /   O peration     | Version:  5.x                                   |
|   \\  /    A nd           | Web:      www.OpenFOAM.org                      |
|    \\/     M anipulation  |                                                 |
\*---------------------------------------------------------------------------*/
FoamFile
{
    version     2.0;
    format      ascii;
    class       volScalarField;
    location    "9";
    object      T;
}
// * * * * * * * * * * * * * * * * * * * * * * * * * * * * * * * * * * * * * //

dimensions      [0 0 0 1 0 0 0];

internalField   nonuniform List<scalar> 
6300
(
10.2869
10.8631
11.4462
12.0405
12.6503
13.2795
13.9315
14.6088
15.3136
16.0468
16.8082
17.5963
18.4084
19.2403
20.0869
10.2846
10.8562
11.4348
12.0249
12.6309
13.2567
13.9059
14.5813
15.2851
16.0185
16.7813
17.5721
18.3883
19.2255
20.0782
10.28
10.8423
11.4119
11.9935
12.5916
13.2105
13.8539
14.5253
15.227
15.9605
16.7261
17.5225
18.347
19.1949
20.0603
10.2729
10.8211
11.377
11.9455
12.5314
13.1395
13.774
14.4388
15.1369
15.8704
16.64
17.4448
18.2819
19.1466
20.0319
10.2632
10.7923
11.3295
11.8799
12.4491
13.042
13.6638
14.3189
15.0112
15.7439
16.5184
17.3344
18.1892
19.0774
19.991
10.2509
10.7555
11.2685
11.7957
12.3428
12.9157
13.5201
14.1615
14.8452
15.5755
16.3552
17.1851
18.0629
18.9827
19.9347
10.2357
10.7101
11.1934
11.6915
12.2108
12.7578
13.3391
13.9618
14.6325
15.3575
16.1417
16.9877
17.8944
18.8555
19.859
10.2176
10.6559
11.1033
11.5661
12.0511
12.5654
13.1169
13.7139
14.3653
15.0801
15.8662
16.7295
17.6713
18.6857
19.7579
10.1965
10.5925
10.9977
11.4185
11.8619
12.3358
12.849
13.4115
14.0347
14.7311
15.5134
16.3927
17.3753
18.458
19.6227
10.1724
10.52
10.8765
11.2482
11.6423
12.0668
12.5316
13.0482
13.6308
14.2962
15.0634
15.9523
16.9791
18.1479
19.4396
10.1453
10.4386
10.74
11.0555
11.392
11.7576
12.1623
12.619
13.1441
13.7592
14.4916
15.3739
16.4405
17.7149
19.1854
10.1156
10.349
10.5893
10.8419
11.1127
11.4091
11.741
12.1211
12.5673
13.1049
13.7696
14.6112
15.6939
17.0857
18.814
10.0835
10.2524
10.4265
10.61
10.8075
11.0253
11.2713
11.557
11.8991
12.3234
12.8707
13.607
14.6381
16.1198
18.2175
10.0498
10.1504
10.2543
10.3639
10.4822
10.6131
10.7618
10.9363
11.1486
11.4189
11.7827
12.308
13.1314
14.5376
17.0771
10.015
10.0452
10.0763
10.1091
10.1443
10.1829
10.2267
10.2777
10.34
10.4205
10.5333
10.7107
11.0419
11.8218
14.2153
20.8707
21.5847
22.2962
23.0013
23.696
24.3767
25.0403
25.684
26.3052
26.902
27.4728
28.0161
28.5309
29.0163
29.4718
29.8969
30.2912
30.6546
30.9869
31.2883
31.5587
31.7983
32.0075
32.1865
32.3357
32.4555
32.5464
32.6089
32.6436
32.6509
32.6315
32.586
32.5149
32.4189
32.2984
32.1542
31.9868
31.7968
31.5847
31.3512
31.0968
30.8222
30.5279
30.2147
29.8829
29.5334
29.1666
28.7831
28.3835
27.9682
27.5377
27.0925
26.633
26.1597
25.6731
25.1734
24.6613
24.1372
23.6016
23.0551
22.4982
21.9314
21.3554
20.7707
20.1779
19.5776
18.9704
18.3571
17.7384
17.1151
16.4881
15.8584
15.2271
14.5956
13.965
13.3368
12.7126
12.094
11.4824
10.8796
10.2871
9.70647
9.13915
8.58652
8.04983
7.53015
7.02839
6.54524
6.08117
5.6364
20.8682
21.588
22.3053
23.0159
23.7157
24.4011
25.0687
25.7159
26.34
26.9392
27.5119
28.0567
28.5727
29.059
29.5152
29.9407
30.3353
30.6988
31.0311
31.3323
31.6025
31.8418
32.0505
32.2289
32.3775
32.4966
32.5868
32.6485
32.6824
32.6889
32.6687
32.6223
32.5504
32.4535
32.3322
32.1871
32.0189
31.828
31.615
31.3807
31.1254
30.85
30.5548
30.2407
29.9081
29.5578
29.1902
28.8059
28.4056
27.9896
27.5584
27.1126
26.6525
26.1786
25.6913
25.191
24.6782
24.1533
23.617
23.0697
22.512
21.9444
21.3675
20.782
20.1883
19.5871
18.979
18.3646
17.7448
17.1201
16.4917
15.8604
15.2274
14.5938
13.9612
13.3309
12.7045
12.0835
11.4697
10.8646
10.2699
9.68711
9.11783
8.56343
8.02518
7.50422
7.00147
6.51766
6.05327
5.60854
20.863
21.5948
22.3239
23.0457
23.7559
24.4506
25.1264
25.7804
26.4104
27.0143
27.5907
28.1385
28.6567
29.1448
29.6022
30.0286
30.4237
30.7874
31.1197
31.4206
31.6902
31.9287
32.1365
32.3138
32.4612
32.5789
32.6676
32.7278
32.76
32.7649
32.7429
32.6949
32.6212
32.5226
32.3996
32.2529
32.083
31.8904
31.6758
31.4397
31.1827
30.9055
30.6086
30.2927
29.9585
29.6064
29.2372
28.8514
28.4496
28.0323
27.5998
27.1528
26.6914
26.2163
25.7277
25.2261
24.7119
24.1856
23.6477
23.0989
22.5395
21.9703
21.3918
20.8046
20.2092
19.6062
18.9962
18.3797
17.7576
17.1304
16.499
15.8645
15.228
14.5906
13.9538
13.3192
12.6882
12.0626
11.4441
10.8344
10.2352
9.64817
9.07492
8.51691
7.9755
7.45191
6.94714
6.46198
5.99696
5.55233
20.8546
21.6051
22.3526
23.0919
23.8181
24.527
25.2151
25.8794
26.5178
27.1285
27.7104
28.2623
28.7838
29.2744
29.7335
30.1611
30.5569
30.9209
31.253
31.5534
31.8222
32.0595
32.2659
32.4415
32.5869
32.7026
32.789
32.8468
32.8765
32.8789
32.8544
32.8037
32.7275
32.6263
32.5008
32.3516
32.1791
31.984
31.7669
31.5282
31.2687
30.9888
30.6893
30.3707
30.0339
29.6793
29.3076
28.9196
28.5156
28.0962
27.6619
27.213
26.7499
26.2729
25.7824
25.2788
24.7626
24.2341
23.694
23.1427
22.5809
22.0093
21.4283
20.8386
20.2407
19.6351
19.0223
18.4028
17.7773
17.1463
16.5107
15.8714
15.2295
14.5863
13.9432
13.3018
12.6639
12.0312
11.4056
10.7888
10.1828
9.58926
9.00989
8.44632
7.90003
7.37236
6.86445
6.37719
5.9112
5.46673
20.8422
21.6193
22.3929
23.1566
23.9049
24.6331
25.3376
26.0154
26.6647
27.284
27.8726
28.4297
28.9552
29.4486
29.9099
30.3389
30.7355
31.0997
31.4316
31.7312
31.9988
32.2346
32.4389
32.6122
32.755
32.8678
32.9511
33.0057
33.032
33.0309
33.003
32.9488
32.8692
32.7646
32.6357
32.4831
32.3074
32.109
31.8885
31.6464
31.3834
31.0999
30.7968
30.4747
30.1342
29.7762
29.4013
29.0101
28.6033
28.1812
27.7444
27.2932
26.8278
26.3485
25.8556
25.3495
24.8304
24.299
23.7557
23.2013
22.6362
22.0612
21.477
20.884
20.2829
19.6739
19.0576
18.4343
17.8045
17.1686
16.5274
15.8817
15.2326
14.5815
13.9298
13.2793
12.6319
11.9895
11.3541
10.7277
10.1123
9.50974
8.92196
8.35069
7.79761
7.26423
6.75189
6.26168
5.79432
5.35013
20.825
21.6384
22.4471
23.2433
24.0204
24.7732
25.498
26.1921
26.8543
27.4835
28.0796
28.6424
29.1721
29.6687
30.1323
30.5628
30.9603
31.3247
31.6562
31.9548
32.2208
32.4544
32.6562
32.8264
32.9658
33.0748
33.1542
33.2046
33.2267
33.2211
33.1888
33.1302
33.0462
32.9373
32.8042
32.6475
32.4677
32.2652
32.0406
31.7943
31.5269
31.239
30.9312
30.6045
30.2595
29.897
29.5178
29.1228
28.7123
28.2871
27.8473
27.3933
26.9252
26.4432
25.9475
25.4382
24.9157
24.3806
23.8333
23.2746
22.7054
22.1262
21.5379
20.941
20.3359
19.7231
19.1027
18.475
17.8401
17.1983
16.5502
15.8966
15.2385
14.5772
13.9145
13.2522
12.5925
11.9375
11.2894
10.6506
10.023
9.40883
8.81009
8.22874
7.66666
7.12566
6.60737
6.11315
5.64395
5.20022
20.8019
21.6638
22.5189
23.3572
24.1705
24.9534
25.7021
26.4147
27.0908
27.7304
28.3341
28.9025
29.4363
29.936
30.4018
30.8338
31.2322
31.5967
31.9276
32.2249
32.4888
32.7198
32.9182
33.0847
33.2197
33.3241
33.3986
33.4438
33.4605
33.4496
33.4117
33.3478
33.2584
33.1444
33.0063
32.8447
32.6601
32.4529
32.2234
31.972
31.6994
31.406
31.0926
30.7601
30.4093
30.0413
29.6569
29.257
28.8423
28.4133
27.9702
27.5132
27.0423
26.5574
26.0584
25.5455
25.0189
24.4791
23.9269
23.363
22.7884
22.204
21.6108
21.0092
20.3998
19.7828
19.1581
18.5256
17.8852
17.2369
16.5808
15.9177
15.2485
14.5748
13.8983
13.2212
12.546
11.8752
11.2114
10.5569
9.91423
9.28554
8.67304
8.07889
7.50524
6.95427
6.42807
5.92847
5.45683
5.01377
20.7718
21.6987
22.6148
23.5065
24.3644
25.1823
25.9577
26.6897
27.3795
28.0286
28.6389
29.212
29.7493
30.2517
30.7195
31.1531
31.5522
31.9168
32.2469
32.5426
32.804
33.0315
33.2258
33.3875
33.5174
33.6161
33.6845
33.7235
33.7337
33.7162
33.6718
33.6013
33.5057
33.3856
33.2418
33.0746
32.8846
32.672
32.4371
32.18
31.9013
31.6014
31.2811
30.9415
30.5836
30.2086
29.8178
29.4122
28.9925
28.5593
28.1127
27.6528
27.1791
26.6913
26.189
25.6721
25.1406
24.5953
24.0368
23.4663
22.8851
22.2943
21.6952
21.0884
20.4744
19.8532
19.2243
18.5873
17.9414
17.2862
16.6213
15.9473
15.265
14.576
13.8826
13.1873
12.493
11.8028
11.1196
10.4462
9.78513
9.13877
8.50942
7.89936
7.31103
6.74709
6.21034
5.70344
5.22846
4.78641
20.734
21.7491
22.7453
23.7044
24.6153
25.4724
26.2751
27.0253
27.7264
28.3824
28.9968
29.5728
30.1123
30.6166
31.0863
31.5213
31.9214
32.2862
32.6154
32.909
33.1673
33.3907
33.5799
33.7358
33.8593
33.9512
34.0124
34.0439
34.0464
34.0211
33.9688
33.8907
33.7876
33.6606
33.5102
33.337
33.1412
32.9229
32.6821
32.4188
32.1331
31.8256
31.497
31.1486
30.7819
30.3983
29.9996
29.587
29.1616
28.724
28.2741
27.8117
27.3358
26.8457
26.3402
25.819
25.2821
24.7298
24.1635
23.5847
22.995
22.3964
21.7903
21.1777
20.5591
19.9341
19.302
18.6615
18.0109
17.349
16.6748
15.9885
15.2907
14.5835
13.8693
13.1516
12.434
11.7201
11.0136
10.3175
9.63464
8.96736
8.31788
7.68841
7.08157
6.50065
5.94953
5.43233
4.95257
4.51202
20.6888
21.8265
22.9289
23.9717
24.943
25.8407
26.6679
27.4311
28.1378
28.7954
29.4098
29.9855
30.5254
31.0309
31.5024
31.9394
32.341
32.7063
33.0346
33.3259
33.5803
33.7985
33.9815
34.1303
34.2461
34.3299
34.3827
34.4053
34.3988
34.3641
34.3026
34.2153
34.1037
33.9686
33.8109
33.6312
33.4295
33.2057
32.959
32.6891
32.3958
32.0794
31.7409
31.3817
31.0038
30.6094
30.2008
29.7799
29.348
28.9058
28.4531
27.9893
27.5127
27.0215
26.5137
25.9883
25.4449
24.8843
24.308
23.7181
23.1175
22.5088
21.8943
21.2754
20.6524
20.025
19.3916
18.7497
18.0965
17.4291
16.7457
16.0457
15.3299
14.6005
13.861
13.1155
12.3692
11.6267
10.8924
10.1696
9.4615
8.77015
8.09736
7.44473
6.81465
6.21116
5.63977
5.10722
4.62013
4.18187
20.6404
21.9543
23.1981
24.3413
25.3767
26.3099
27.1525
27.9178
28.6197
29.2702
29.8781
30.4495
30.9875
31.4937
31.9677
32.4081
32.8124
33.1791
33.5068
33.7952
34.0448
34.2565
34.4316
34.5718
34.6785
34.7529
34.7959
34.8083
34.7911
34.7454
34.6727
34.5746
34.4528
34.3086
34.1429
33.9565
33.7493
33.5206
33.2689
32.9927
32.6913
32.3647
32.0141
31.6413
31.249
30.8404
30.4192
29.9879
29.5487
29.102
28.6479
28.1848
27.7103
27.2206
26.7122
26.183
25.6322
25.061
24.4714
23.8668
23.2512
22.6293
22.0043
21.3784
20.7519
20.1242
19.4928
18.854
18.2021
17.5319
16.8401
16.1253
15.3885
14.632
13.8608
13.0805
12.2987
11.5214
10.7541
10.0006
9.264
8.54604
7.84767
7.16843
6.50932
5.87535
5.27395
4.71656
4.21731
3.78294
20.6043
22.1827
23.6121
24.8657
25.9573
26.9093
27.7479
28.4955
29.1751
29.806
30.3987
30.961
31.495
32.0026
32.4811
32.9281
33.3377
33.7075
34.0349
34.3202
34.5635
34.7668
34.9317
35.0609
35.1569
35.2205
35.2525
35.2534
35.2238
35.1651
35.0788
34.9677
34.8337
34.6788
34.5043
34.3113
34.0995
33.8682
33.6137
33.332
33.0224
32.684
32.3188
31.9283
31.5172
31.0892
30.6515
30.2071
29.7595
29.3086
28.855
28.3962
27.9293
27.4465
26.9402
26.4082
25.8485
25.2639
24.6559
24.0308
23.3936
22.7539
22.1152
21.4818
20.8528
20.2284
19.6046
18.9767
18.3339
17.6654
16.9673
16.2364
15.475
14.6847
13.8733
13.0476
12.2215
11.4015
10.5959
9.80693
9.03953
8.29358
7.57032
6.86303
6.16768
5.49256
4.84468
4.24209
3.72099
3.29463
20.639
22.6254
24.2788
25.6232
26.7385
27.6715
28.4741
29.1706
29.8004
30.3963
30.9626
31.5126
32.0401
32.5528
33.0392
33.5014
33.9199
34.2965
34.6231
34.9049
35.1394
35.3317
35.4825
35.5975
35.6812
35.7331
35.7535
35.7419
35.6979
35.6238
35.52
35.3933
35.2438
35.077
34.8916
34.6925
34.4773
34.2487
33.9969
33.7111
33.3944
33.0413
32.6595
32.2446
31.809
31.3516
30.8929
30.4305
29.9747
29.5185
29.0692
28.6188
28.1706
27.7056
27.2048
26.6726
26.1004
25.5
24.8644
24.2117
23.5395
22.8764
22.2183
21.5784
20.9466
20.3315
19.7217
19.1206
18.5024
17.8412
17.1416
16.3909
15.6031
14.7673
13.906
13.0153
12.1351
11.2607
10.4136
9.58199
8.78401
8.00828
7.26981
6.54034
5.79677
5.07043
4.35008
3.65021
3.08819
2.6824
20.9827
23.5474
25.3903
26.71
27.7819
28.621
29.3529
29.9413
30.4739
31.0289
31.5497
32.0962
32.6059
33.1407
33.6317
34.1371
34.5619
34.9569
35.2752
35.5575
35.7754
35.9558
36.0844
36.1784
36.2508
36.2907
36.2998
36.2765
36.2148
36.1248
35.9938
35.8513
35.6783
35.5017
35.2978
35.0967
34.8735
34.6623
34.4283
34.1344
33.8182
33.4394
33.0472
32.5901
32.1318
31.6152
31.1392
30.6439
30.1898
29.7179
29.2846
28.8377
28.4355
28.0157
27.5142
26.9943
26.3926
25.7863
25.0973
24.4203
23.6718
22.9914
22.2946
21.6633
21.0157
20.4269
19.8259
19.2887
18.7324
18.072
17.389
16.5989
15.7998
14.8866
13.9807
12.9674
12.0403
11.0803
10.2089
9.30844
8.49629
7.66918
6.95622
6.23782
5.40096
4.63958
3.82591
2.85978
2.23038
1.88577
22.7457
25.5086
27.2547
28.1533
29.1603
29.7244
30.438
30.7919
31.1149
31.71
32.0994
32.7325
33.1349
33.7911
34.2031
34.8883
35.2461
35.7274
35.9786
36.3023
36.4649
36.6539
36.7355
36.7901
36.8665
36.8921
36.8924
36.8656
36.7719
36.6845
36.4835
36.3525
36.1175
35.9649
35.6995
35.5319
35.2522
35.108
34.9456
34.5892
34.3317
33.8562
33.5281
32.9366
32.5379
31.82
31.4126
30.7974
30.4302
29.8611
29.519
28.9919
28.7254
28.4432
27.8493
27.4336
26.691
26.1909
25.3127
24.7313
23.7055
23.1296
22.2763
21.7711
21
20.5393
19.838
19.4839
19.1122
18.3348
17.7905
16.8194
16.1604
14.9953
14.2096
12.7955
11.9926
10.772
10.046
8.90753
8.22993
7.16559
6.65033
6.10578
4.89637
4.28392
3.52123
1.5844
0.962428
0.79663
5.16835
4.68509
4.22825
3.79651
3.38821
3.00147
2.63425
2.28441
1.94978
1.6282
1.31754
1.01571
0.720695
0.430499
0.143181
5.14092
4.65859
4.20308
3.77299
3.36659
2.9819
2.61682
2.26916
1.9367
1.61725
1.30868
1.00889
0.715859
0.427614
0.142222
5.0856
4.60519
4.15242
3.72572
3.32318
2.94267
2.58194
2.23867
1.91057
1.59541
1.29101
0.99529
0.706225
0.421867
0.140312
5.00142
4.52407
4.07561
3.65422
3.25769
2.88362
2.52954
2.19296
1.87147
1.56277
1.26465
0.975014
0.691873
0.41331
0.137469
4.88691
4.41396
3.97168
3.55779
3.16967
2.80454
2.45959
2.13211
1.81956
1.51952
1.22977
0.948228
0.67293
0.402023
0.13372
4.73994
4.2731
3.83927
3.43553
3.05862
2.70522
2.37211
2.05631
1.75509
1.46596
1.18667
0.915179
0.649587
0.388124
0.129105
4.5576
4.09914
3.67671
3.28639
2.92401
2.58555
2.26729
1.9659
1.6785
1.40252
1.13576
0.876214
0.622102
0.371774
0.123678
4.33601
3.88909
3.48197
3.10923
2.76544
2.44565
2.14554
1.86148
1.59044
1.32986
1.0776
0.831801
0.590822
0.353184
0.117512
4.06993
3.63916
3.25279
2.90307
2.58283
2.28601
2.0077
1.74401
1.49188
1.24886
1.01297
0.782551
0.55619
0.332623
0.110694
3.75226
3.34477
2.98691
2.66737
2.37676
2.10783
1.85521
1.61496
1.38418
1.16071
0.942842
0.729233
0.518753
0.310417
0.103335
3.37336
3.0007
2.68263
2.40271
2.14897
1.9133
1.6903
1.4764
1.26917
1.06692
0.868441
0.672775
0.479162
0.286952
0.095561
2.92023
2.602
2.34017
2.11181
1.90308
1.70607
1.51628
1.33114
1.14914
0.969364
0.791209
0.61425
0.438159
0.262664
0.0875163
2.37685
2.14685
1.96421
1.80122
1.64544
1.49158
1.33757
1.18271
1.02687
0.870167
0.712767
0.554845
0.396554
0.238022
0.0793552
1.7301
1.64429
1.56855
1.48341
1.38585
1.27723
1.15969
1.03523
0.905451
0.77165
0.634835
0.495799
0.355183
0.213512
0.0712361
0.999334
1.13163
1.18228
1.17798
1.13729
1.07176
0.98873
0.893038
0.788039
0.676136
0.55911
0.438326
0.31486
0.189601
0.0633125
9.98278
9.94791
9.91174
9.87326
9.83122
9.78398
9.72926
9.66371
9.58213
9.47578
9.32849
9.10545
8.71519
7.85311
5.25536
9.9538
9.86036
9.76369
9.66132
9.55023
9.42646
9.28457
9.1166
8.91026
8.64531
8.28579
7.7622
6.92756
5.45048
2.60505
9.92555
9.77504
9.61959
9.45543
9.27801
9.0815
8.85796
8.5961
8.27906
7.88045
7.357
6.63489
5.58602
3.99805
1.59686
9.89841
9.69315
9.48152
9.25873
9.01905
8.75529
8.45793
8.11388
7.70447
7.20225
6.56612
5.73447
4.61882
3.11033
1.13903
9.8727
9.61568
9.3512
9.07373
8.77679
8.45238
8.0903
7.67704
7.19429
6.61701
5.91099
5.03124
3.92439
2.54401
0.894204
9.84868
9.54337
9.22989
8.90226
8.55358
8.17562
7.7582
7.28841
6.74975
6.12114
5.37649
4.4857
3.41988
2.16476
0.745631
9.82651
9.47673
9.11841
8.74538
8.35069
7.92626
7.46245
6.9476
6.36764
5.70585
4.94345
4.06169
3.04681
1.89942
0.647145
9.80628
9.41601
9.01714
8.60354
8.16844
7.70423
7.20212
6.65201
6.04233
5.36039
4.59329
3.7301
2.76576
1.70689
0.577835
9.78801
9.36127
8.9261
8.47661
8.00641
7.5085
6.97513
6.39775
5.76719
5.07406
4.30986
3.46874
2.55034
1.5631
0.527005
9.77167
9.31236
8.84501
8.36405
7.8636
7.33738
6.77867
6.18043
5.53548
4.83708
4.07982
3.26105
2.38271
1.45323
0.488616
9.75717
9.26903
8.77336
8.26503
7.73869
7.1888
6.60967
5.99553
5.34088
4.64096
3.89249
3.09471
2.25058
1.36777
0.458986
9.74441
9.23092
8.71051
8.1785
7.63011
7.06054
6.46497
5.83876
5.17772
4.47855
3.73938
2.96056
2.14531
1.30033
0.435735
9.73324
9.19762
8.65572
8.10333
7.53625
6.95032
6.34153
5.70616
5.04103
4.3439
3.61382
2.85169
2.06069
1.24652
0.417255
9.72352
9.16868
8.6082
8.03836
7.45547
6.85598
6.23655
5.59421
4.92657
4.23212
3.5105
2.76287
1.99217
1.20318
0.402419
9.71511
9.14365
8.56719
7.98244
7.38621
6.77548
6.14747
5.49982
4.83073
4.1392
3.42524
2.69007
1.93633
1.16802
0.39041
9.70786
9.1221
8.53194
7.9345
7.32703
6.70697
6.07202
5.42031
4.75048
4.06187
3.35469
2.63017
1.8906
1.13933
0.380626
9.70163
9.10361
8.50173
7.89351
7.27658
6.64879
6.00822
5.35338
4.68325
3.99741
3.29619
2.58072
1.85299
1.11579
0.372614
9.6963
9.08779
8.47593
7.85857
7.23369
6.59946
5.95433
5.29708
4.62693
3.94364
3.24759
2.53979
1.82195
1.09641
0.366023
9.69176
9.0743
8.45394
7.82885
7.19728
6.55772
5.90885
5.24972
4.57973
3.89874
3.20713
2.50582
1.79626
1.0804
0.360583
9.68788
9.06281
8.43525
7.80361
7.16643
6.52242
5.87051
5.2099
4.54016
3.8612
3.17341
2.47758
1.77494
1.06713
0.356079
9.68459
9.05306
8.41938
7.78222
7.14033
6.49262
5.8382
5.17643
4.50698
3.82981
3.14527
2.45406
1.75722
1.05612
0.352341
9.6818
9.04478
8.40594
7.76412
7.11827
6.46747
5.81098
5.1483
4.47915
3.80353
3.12177
2.43445
1.74246
1.04695
0.349233
9.67943
9.03778
8.39457
7.74881
7.09964
6.44626
5.78808
5.12466
4.4558
3.78153
3.10212
2.41808
1.73016
1.03931
0.346644
9.67743
9.03186
8.38495
7.73589
7.08392
6.42839
5.7688
5.1048
4.43622
3.7631
3.08568
2.4044
1.71989
1.03294
0.344485
9.67574
9.02685
8.37683
7.72499
7.07067
6.41335
5.75259
5.08811
4.41979
3.74765
3.07192
2.39296
1.7113
1.02762
0.342683
9.67432
9.02263
8.36999
7.71579
7.05951
6.40069
5.73896
5.0741
4.406
3.73471
3.06039
2.38338
1.70413
1.02318
0.341177
9.67312
9.01907
8.36422
7.70805
7.05012
6.39004
5.72751
5.06233
4.39444
3.72386
3.05074
2.37537
1.69812
1.01946
0.339918
9.6721
9.01608
8.35936
7.70154
7.04222
6.38108
5.71788
5.05246
4.38474
3.71476
3.04266
2.36867
1.6931
1.01635
0.338866
9.67125
9.01355
8.35528
7.69606
7.03558
6.37357
5.70981
5.04417
4.37661
3.70714
3.03589
2.36306
1.6889
1.01375
0.337985
9.67053
9.01144
8.35185
7.69146
7.03001
6.36726
5.70303
5.03723
4.3698
3.70076
3.03023
2.35836
1.68538
1.01157
0.337249
9.66993
9.00966
8.34897
7.6876
7.02534
6.36197
5.69736
5.03141
4.36409
3.69543
3.02549
2.35444
1.68245
1.00976
0.336634
9.66943
9.00817
8.34656
7.68438
7.02143
6.35755
5.69261
5.02655
4.35933
3.69097
3.02154
2.35116
1.67999
1.00824
0.336121
9.66901
9.00693
8.34455
7.68168
7.01816
6.35385
5.68865
5.0225
4.35535
3.68725
3.01824
2.34843
1.67795
1.00698
0.335693
9.66866
9.00589
8.34287
7.67943
7.01544
6.35078
5.68536
5.01912
4.35205
3.68416
3.0155
2.34616
1.67625
1.00593
0.335338
9.66837
9.00503
8.34148
7.67757
7.01319
6.34823
5.68263
5.01633
4.34931
3.6816
3.01323
2.34428
1.67485
1.00506
0.335044
9.66813
9.00433
8.34034
7.67604
7.01134
6.34614
5.68038
5.01403
4.34706
3.67949
3.01136
2.34274
1.67369
1.00434
0.334803
9.66794
9.00375
8.3394
7.67479
7.00983
6.34443
5.67855
5.01216
4.34523
3.67778
3.00985
2.34148
1.67275
1.00376
0.334606
9.66778
9.00329
8.33865
7.67379
7.00861
6.34306
5.67708
5.01065
4.34376
3.6764
3.00863
2.34047
1.672
1.0033
0.334449
9.66766
9.00292
8.33807
7.673
7.00766
6.34198
5.67593
5.00947
4.3426
3.67532
3.00767
2.33968
1.67141
1.00293
0.334325
9.66756
9.00265
8.33762
7.6724
7.00694
6.34117
5.67506
5.00858
4.34173
3.67451
3.00695
2.33908
1.67096
1.00265
0.334231
9.6675
9.00245
8.3373
7.67198
7.00643
6.34059
5.67444
5.00795
4.34111
3.67393
3.00643
2.33865
1.67064
1.00246
0.334165
9.66746
9.00233
8.33711
7.67172
7.00611
6.34023
5.67406
5.00756
4.34072
3.67357
3.00612
2.33839
1.67045
1.00234
0.334124
9.66744
9.00228
8.33703
7.67161
7.00598
6.34009
5.6739
5.00739
4.34057
3.67342
3.00598
2.33828
1.67037
1.00229
0.334107
9.66745
9.0023
8.33706
7.67165
7.00603
6.34014
5.67396
5.00746
4.34063
3.67348
3.00603
2.33832
1.6704
1.00231
0.334113
9.66748
9.00239
8.3372
7.67185
7.00626
6.34041
5.67424
5.00774
4.34091
3.67374
3.00627
2.33852
1.67054
1.00239
0.334143
9.66753
9.00255
8.33746
7.6722
7.00669
6.34088
5.67475
5.00827
4.34142
3.67422
3.00669
2.33887
1.6708
1.00256
0.334198
9.66761
9.00279
8.33785
7.67271
7.00731
6.34159
5.67551
5.00904
4.34218
3.67493
3.00732
2.33939
1.67119
1.0028
0.334279
9.66772
9.00311
8.33837
7.67341
7.00816
6.34255
5.67653
5.01009
4.3432
3.67589
3.00817
2.34009
1.67172
1.00312
0.334389
9.66786
9.00353
8.33905
7.67432
7.00925
6.34378
5.67786
5.01144
4.34453
3.67713
3.00926
2.341
1.67239
1.00354
0.334531
9.66804
9.00406
8.3399
7.67545
7.01062
6.34533
5.67952
5.01314
4.3462
3.67868
3.01064
2.34214
1.67325
1.00407
0.334709
9.66826
9.0047
8.34094
7.67685
7.01232
6.34725
5.68157
5.01525
4.34825
3.6806
3.01235
2.34355
1.6743
1.00472
0.33493
9.66852
9.00549
8.34222
7.67856
7.01439
6.34959
5.68408
5.01781
4.35076
3.68295
3.01443
2.34527
1.67559
1.00551
0.335199
9.66885
9.00645
8.34376
7.68063
7.01689
6.35242
5.68711
5.02091
4.3538
3.68579
3.01694
2.34735
1.67715
1.00648
0.335525
9.66923
9.00759
8.34562
7.68312
7.0199
6.35582
5.69076
5.02465
4.35746
3.68921
3.01998
2.34987
1.67903
1.00764
0.335918
9.6697
9.00897
8.34785
7.68611
7.02352
6.35991
5.69514
5.02913
4.36185
3.69332
3.02362
2.35288
1.68128
1.00904
0.336391
9.67026
9.01062
8.35052
7.68968
7.02784
6.3648
5.70038
5.0345
4.36712
3.69825
3.02799
2.3565
1.68399
1.01071
0.336957
9.67092
9.01258
8.3537
7.69394
7.033
6.37063
5.70665
5.04092
4.37341
3.70413
3.03321
2.36083
1.68723
1.01271
0.337634
9.67171
9.01492
8.35749
7.69901
7.03915
6.37759
5.71412
5.04858
4.38092
3.71116
3.03945
2.366
1.6911
1.01511
0.338445
9.67265
9.0177
8.362
7.70506
7.04648
6.38589
5.72302
5.05771
4.38987
3.71956
3.0469
2.37217
1.69572
1.01797
0.339413
9.67377
9.02101
8.36736
7.71225
7.05519
6.39576
5.73363
5.06859
4.40056
3.72957
3.0558
2.37955
1.70124
1.02139
0.34057
9.6751
9.02494
8.37373
7.7208
7.06556
6.40751
5.74626
5.08156
4.41329
3.74151
3.06641
2.38836
1.70784
1.02547
0.341953
9.67668
9.02961
8.38129
7.73095
7.07787
6.42147
5.76128
5.09699
4.42846
3.75575
3.07908
2.39887
1.71572
1.03035
0.343606
9.67854
9.03514
8.39026
7.74299
7.0925
6.43807
5.77915
5.11537
4.44655
3.77273
3.0942
2.41144
1.72514
1.03619
0.345583
9.68076
9.04169
8.40089
7.75727
7.10985
6.45779
5.8004
5.13725
4.4681
3.79299
3.11225
2.42645
1.73641
1.04317
0.347949
9.68338
9.04944
8.41347
7.77419
7.13044
6.48119
5.82566
5.16328
4.49378
3.81717
3.13382
2.44441
1.74989
1.05154
0.350784
9.68647
9.05861
8.42836
7.79423
7.15483
6.50896
5.85567
5.19426
4.52438
3.84603
3.15961
2.4659
1.76605
1.06157
0.354183
9.69012
9.06942
8.44594
7.81791
7.1837
6.54189
5.89132
5.23113
4.56087
3.8805
3.19045
2.49164
1.78543
1.0736
0.358266
9.69442
9.08218
8.46669
7.84588
7.21786
6.58091
5.93363
5.27499
4.60437
3.92168
3.22739
2.52252
1.80871
1.08808
0.363178
9.69948
9.09718
8.49112
7.87887
7.25821
6.6271
5.98385
5.32716
4.65625
3.97093
3.27165
2.55962
1.83672
1.10552
0.369099
9.70542
9.1148
8.51983
7.91771
7.3058
6.68171
6.04338
5.38921
4.71815
4.02986
3.32478
2.60425
1.8705
1.12658
0.376256
9.71237
9.13544
8.55351
7.96334
7.36186
6.74621
6.11392
5.46297
4.792
4.10043
3.38864
2.65807
1.91133
1.15209
0.384933
9.72049
9.15956
8.59291
8.01683
7.42774
6.82226
6.1974
5.55064
4.88016
4.18505
3.46552
2.72313
1.96085
1.18309
0.395491
9.72993
9.18763
8.63886
8.07936
7.50499
6.91178
6.29609
5.65478
4.98542
4.28662
3.55829
2.80198
2.0211
1.22093
0.408395
9.74087
9.2202
8.69226
8.15222
7.59531
7.0169
6.41257
5.77839
5.11113
4.40868
3.67047
2.8979
2.09476
1.26734
0.424256
9.7535
9.25781
8.75405
8.23678
7.70058
7.14
6.54977
5.92495
5.26126
4.55558
3.8065
3.01504
2.18527
1.32464
0.443883
9.76799
9.30103
8.8252
8.3345
7.82275
7.28369
6.71099
6.0985
5.44056
4.7326
3.97195
3.15879
2.2972
1.39592
0.468376
9.78453
9.3504
8.90669
8.44681
7.96389
7.45073
6.89984
6.3036
5.65457
4.94621
4.17386
3.33616
2.43669
1.48542
0.499264
9.80326
9.40643
8.99941
8.57512
8.12601
7.64396
7.12019
6.54533
5.90976
5.20424
4.42115
3.55643
2.61214
1.59915
0.53874
9.82433
9.46952
9.10412
8.72066
8.31101
7.86615
7.37598
6.82922
6.21353
5.51613
4.72511
3.83194
2.83529
1.74581
0.590067
9.84782
9.53995
9.22136
8.88437
8.52044
8.11979
7.67107
7.16096
6.57403
5.893
5.09998
4.17929
3.12289
1.93849
0.658329
9.87375
9.61782
9.35138
9.06679
8.75534
8.4068
8.00877
7.54603
6.99984
6.34764
5.56351
4.62088
3.49935
2.19766
0.751935
9.90207
9.70297
9.494
9.26784
9.01599
8.72816
8.3914
7.98901
7.49926
6.89387
6.13707
5.18669
4.00092
2.55683
0.885916
9.93262
9.79498
9.64855
9.4867
9.30161
9.08349
8.81957
8.49264
8.07895
7.54521
6.84504
5.91595
4.68185
3.07351
1.08997
9.96515
9.8931
9.81379
9.7217
9.61015
9.47059
9.29146
9.05651
8.74198
8.31211
7.71194
6.85698
5.62265
3.85073
1.43042
9.99932
9.99625
9.98789
9.97019
9.93812
9.88514
9.80209
9.67559
9.48506
9.19722
8.75573
8.06141
6.93675
5.07819
2.07677
10.0347
10.1031
10.1685
10.2286
10.2806
10.3205
10.3428
10.3391
10.2957
10.189
9.97505
9.56463
8.76046
7.09926
3.52317
10.0707
10.2119
10.3527
10.4927
10.6314
10.7681
10.9017
11.0302
11.1502
11.2552
11.3308
11.3412
11.1793
10.4501
7.37945
10.1068
10.3211
10.5375
10.7577
10.9836
11.2179
11.4639
11.727
12.0151
12.3417
12.7317
13.2374
13.9919
15.4268
19.3525
10.1424
10.4287
10.7196
11.0186
11.33
11.6593
12.0144
12.4064
12.8532
13.3841
14.052
14.9608
16.332
18.6736
23.1228
10.177
10.5331
10.8961
11.2709
11.6639
12.083
12.5391
13.0478
13.6328
14.3312
15.2052
16.3628
17.9982
20.4564
24.2904
0.410882
0.736498
0.87855
0.931347
0.932196
0.899455
0.8436
0.771215
0.686728
0.593266
0.493133
0.388091
0.279537
0.168625
0.0563561
0.220466
0.504759
0.664404
0.743198
0.76906
0.75885
0.723131
0.668862
0.60085
0.522555
0.436558
0.344858
0.249058
0.150496
0.0503391
0.138825
0.359573
0.506396
0.591799
0.630965
0.635951
0.615535
0.576045
0.522107
0.457185
0.383937
0.304468
0.220495
0.133472
0.0446835
0.096697
0.265721
0.391034
0.472501
0.516598
0.530684
0.521178
0.493254
0.450986
0.39759
0.335632
0.267202
0.194047
0.117673
0.0394291
0.0714914
0.202221
0.306116
0.379148
0.423067
0.441794
0.439605
0.420416
0.387588
0.343937
0.291817
0.233213
0.169831
0.103172
0.0346005
0.0547939
0.157354
0.242626
0.306007
0.347025
0.367424
0.369832
0.357046
0.331701
0.296161
0.252501
0.20254
0.147889
0.0899986
0.0302082
0.0429765
0.124489
0.194337
0.248392
0.285298
0.305542
0.310606
0.302391
0.282891
0.254021
0.217557
0.175121
0.128194
0.0781431
0.0262504
0.0342422
0.0997239
0.157012
0.202683
0.235138
0.254198
0.260597
0.255571
0.240583
0.21715
0.186758
0.150819
0.110668
0.0675653
0.0227146
0.0275925
0.0806473
0.127754
0.166148
0.194278
0.211644
0.218518
0.215666
0.204137
0.18511
0.159807
0.12944
0.0951905
0.0582003
0.0195804
0.0224219
0.0657005
0.104544
0.136739
0.16089
0.176374
0.18319
0.181785
0.172895
0.157426
0.136371
0.110757
0.0816146
0.0499664
0.0168214
0.0183378
0.053833
0.0859491
0.112915
0.133519
0.147121
0.153569
0.153099
0.14622
0.13362
0.1161
0.0945218
0.0697779
0.0427714
0.0144078
0.0150733
0.0443114
0.0709302
0.0935063
0.11101
0.122833
0.128751
0.128863
0.123515
0.113228
0.0986446
0.0804842
0.0595116
0.0365181
0.0123081
0.0124396
0.0366082
0.0587177
0.0776191
0.0924453
0.102643
0.107962
0.108417
0.104238
0.0958182
0.0836726
0.0683984
0.0506481
0.0311092
0.0104901
0.010299
0.0303344
0.0487325
0.0645609
0.0770933
0.0858404
0.0905504
0.0911885
0.087904
0.0809948
0.0708722
0.0580312
0.0430259
0.0264501
0.00892289
0.00854917
0.0251972
0.0405311
0.0537907
0.064369
0.0718401
0.0759652
0.0766825
0.0740864
0.068402
0.0599587
0.0491664
0.0364937
0.0224513
0.00757677
0.0071119
0.0209723
0.0337698
0.0448818
0.0538017
0.0601624
0.0637455
0.0644765
0.0624125
0.0577241
0.0506758
0.0416066
0.0309124
0.0190301
0.00642431
0.00592687
0.0174854
0.0281785
0.0374946
0.0450108
0.050413
0.0535057
0.0542107
0.0525603
0.0486843
0.0427956
0.0351749
0.0261557
0.016111
0.00544043
0.00494678
0.0145991
0.0235432
0.031357
0.0376873
0.0422669
0.0449232
0.0455799
0.0442529
0.0410415
0.0361177
0.0297139
0.022111
0.0136263
0.00460253
0.00413418
0.0122044
0.0196925
0.0262491
0.0315791
0.0354558
0.0377287
0.0383261
0.0372536
0.0345874
0.030467
0.0250852
0.0186783
0.0115157
0.00389049
0.00345909
0.010214
0.0164883
0.0219926
0.0264799
0.0297581
0.0316972
0.0322317
0.0313605
0.0291428
0.025692
0.0211682
0.0157701
0.00972629
0.00328655
0.00289738
0.00855703
0.0138188
0.018442
0.0222199
0.0249901
0.0266406
0.0271129
0.026402
0.0245541
0.0216617
0.017858
0.0133102
0.00821167
0.0027752
0.00242946
0.00717626
0.0115927
0.0154781
0.0186594
0.0209993
0.0224019
0.0228154
0.0222329
0.0206904
0.018264
0.0150645
0.0112324
0.00693167
0.00234294
0.00203937
0.00602482
0.00973521
0.013003
0.015683
0.0176593
0.0188498
0.0192094
0.0187301
0.0174404
0.0154028
0.01271
0.00948001
0.00585158
0.00197809
0.00171405
0.0050643
0.00818497
0.0109358
0.013195
0.0148646
0.0158746
0.0161857
0.0157898
0.0147095
0.0129966
0.0107283
0.00800421
0.0049416
0.00167064
0.00144276
0.00426316
0.00689143
0.00921
0.0111164
0.0125277
0.0133846
0.0136527
0.0133244
0.0124179
0.0109758
0.00906298
0.00676339
0.00417625
0.00141202
0.00121667
0.00359539
0.00581288
0.00777031
0.0093813
0.0105758
0.0113031
0.0115338
0.0112605
0.010498
0.00928172
0.00766617
0.00572218
0.00353383
0.0011949
0.00102851
0.00303954
0.00491485
0.00657111
0.00793536
0.0089482
0.00956643
0.00976469
0.00953627
0.00889308
0.00786481
0.00649734
0.0048506
0.00299593
0.00101308
0.000872251
0.00257791
0.00416886
0.00557463
0.00673333
0.00759452
0.00812128
0.00829176
0.0080999
0.00755546
0.00668335
0.00552236
0.00412335
0.00254702
0.000861324
0.000742961
0.0021959
0.00355143