/*--------------------------------*- C++ -*----------------------------------*\
| =========                 |                                                 |
| \\      /  F ield         | OpenFOAM: The Open Source CFD Toolbox           |
|  \\    /   O peration     | Version:  5.x                                   |
|   \\  /    A nd           | Web:      www.OpenFOAM.org                      |
|    \\/     M anipulation  |                                                 |
\*---------------------------------------------------------------------------*/
FoamFile
{
    version     2.0;
    format      ascii;
    class       volScalarField;
    location    "6.8";
    object      gradTy;
}
// * * * * * * * * * * * * * * * * * * * * * * * * * * * * * * * * * * * * * //

dimensions      [0 -1 0 1 0 0 0];

internalField   nonuniform List<scalar> 
6300
(
1050.66
1152.3
1254.84
1358.89
1464.98
1573.63
1685.29
1800.28
1918.86
2041.1
2166.95
2296.15
2428.26
2562.62
2698.45
-0.459088
-1.36816
-2.24913
-3.0809
-3.83905
-4.49498
-5.01582
-5.36517
-5.50524
-5.40052
-5.02306
-4.35871
-3.41343
-2.21759
-0.82623
-0.77529
-2.3115
-3.80327
-5.21675
-6.51209
-7.64184
-8.55027
-9.17438
-9.4471
-9.30346
-8.68987
-7.5759
-5.96674
-3.91265
-1.51098
-1.10588
-3.29926
-5.43563
-7.47062
-9.35061
-11.0099
-12.3689
-13.3348
-13.8051
-13.6761
-12.8568
-11.288
-8.96476
-5.95505
-2.40723
-1.4548
-4.34399
-7.16933
-9.87942
-12.4098
-14.678
-16.5804
-17.9906
-18.7622
-18.739
-17.773
-15.7545
-12.6491
-8.53552
-3.62572
-1.82409
-5.45249
-9.01815
-12.4678
-15.7308
-18.7117
-21.2839
-23.2845
-24.5139
-24.7442
-23.7414
-21.3073
-17.3412
-11.9118
-5.30992
-2.21315
-6.62368
-10.9829
-15.2427
-19.3336
-23.1539
-26.5588
-29.3493
-31.2643
-31.982
-31.1407
-28.3918
-23.4963
-16.4603
-7.66359
-2.61794
-7.8461
-13.0468
-18.1864
-23.2066
-28.011
-32.4477
-36.2892
-39.2114
-40.7782
-40.4471
-37.6224
-31.7916
-22.7692
-10.9996
-3.03038
-9.09589
-15.1715
-21.249
-27.2952
-33.2354
-38.9311
-44.1476
-48.5132
-51.4717
-52.2465
-49.8584
-43.278
-31.8249
-15.8481
-3.438
-10.3355
-17.294
-24.3427
-31.4892
-38.7039
-45.893
-52.8563
-59.2213
-64.3479
-67.2079
-66.2861
-59.6368
-45.4042
-23.2166
-3.82412
-11.5138
-19.3262
-27.3381
-35.6146
-44.1974
-53.0799
-62.1623
-71.1671
-79.4895
-85.9504
-88.4403
-83.5783
-66.9384
-35.3256
-4.16879
-12.569
-21.1587
-30.0684
-39.4333
-49.3903
-60.0661
-71.5451
-83.794
-96.4914
-108.663
-117.945
-119.297
-103.445
-58.0542
-4.45072
-13.4347
-22.6709
-32.343
-42.6592
-53.8637
-66.248
-80.1568
-95.9712
-114.018
-134.262
-155.38
-172.217
-169.488
-110.502
-4.65004
-14.048
-23.7468
-33.9729
-44.9961
-57.1564
-70.9043
-86.8615
-105.914
-129.346
-158.984
-197.094
-244.7
-291.784
-267.789
-4.75145
-14.3601
-24.2949
-34.8053
-46.1952
-58.8606
-73.3501
-90.4695
-111.476
-138.467
-175.231
-229.31
-317.701
-485.155
-873.286
2823.44
2936.78
3049.22
3160.18
3269.08
3375.41
3478.71
3578.56
3674.62
3766.62
3854.32
3937.55
4016.16
4090.06
4159.17
4223.44
4282.84
4337.37
4387.03
4431.86
4471.89
4507.18
4537.8
4563.81
4585.32
4602.41
4615.18
4623.75
4628.22
4628.7
4625.32
4618.17
4607.39
4593.07
4575.32
4554.24
4529.95
4502.52
4472.07
4438.68
4402.45
4363.46
4321.81
4277.58
4230.85
4181.7
4130.22
4076.48
4020.54
3962.47
3902.32
3840.16
3776.02
3709.97
3642.06
3572.32
3500.83
3427.64
3352.8
3276.39
3198.47
3119.12
3038.39
2956.37
2873.13
2788.75
2703.32
2616.93
2529.67
2441.66
2353.03
2263.92
2174.49
2084.92
1995.39
1906.13
1817.34
1729.26
1642.13
1556.17
1471.61
1388.7
1307.64
1228.63
1151.87
1077.51
1005.7
936.539
870.101
806.425
0.559825
1.84979
3.12142
4.33196
5.44763
6.44548
7.31346
8.04928
8.6582
9.15064
9.5398
9.83961
10.0633
10.2225
10.3267
10.3834
10.3982
10.3755
10.3184
10.23
10.1127
9.96916
9.80223
9.61479
9.4099
9.19072
8.96046
8.72229
8.47929
8.23439
7.99022
7.74908
7.51275
7.28247
7.05889
6.84207
6.63157
6.42662
6.22635
6.02997
5.83706
5.64765
5.46236
5.28228
5.10888
4.94369
4.78807
4.64289
4.50828
4.3835
4.26694
4.15621
4.04841
3.9405
3.82964
3.71354
3.59075
3.4607
3.32362
3.18036
3.03193
2.87912
2.72201
2.55968
2.38994
2.20935
2.01341
1.79694
1.55464
1.28173
0.974502
0.630886
0.250724
-0.164109
-0.609814
-1.08096
-1.57086
-2.07203
-2.57654
-3.07623
-3.5629
-4.02823
-4.46372
-4.86057
-5.20981
-5.50247
-5.73023
-5.88612
-5.96537
-5.96621
0.884765
3.11138
5.29882
7.37024
9.26638
10.9487
12.3992
13.6172
14.6155
15.4153
16.0416
16.5202
16.8745
17.1245
17.2862
17.3716
17.3894
17.3461
17.2465
17.0948
16.8951
16.6515
16.3686
16.0513
15.7048
15.3344
14.9456
14.5437
14.134
13.7216
13.3111
12.9063
12.5105
12.1257
11.7529
11.3923
11.0426
10.7025
10.3699
10.0434
9.72177
9.40515
9.09459
8.79218
8.50074
8.2233
7.96259
7.72043
7.49727
7.29192
7.10146
6.92152
6.74675
6.57143
6.3903
6.19918
5.99547
5.77834
5.54861
5.30825
5.05967
4.80487
4.54456
4.27752
4.00013
3.70635
3.38803
3.0357
2.63952
2.19055
1.68184
1.10941
0.472833
-0.224591
-0.976079
-1.77195
-2.6004
-3.44835
-4.30217
-5.14812
-5.97252
-6.76167
-7.50149
-8.17728
-8.77358
-9.27463
-9.66531
-9.93266
-10.0676
-10.0665
1.14026
4.43013
7.64414
10.6618
13.394
15.7869
17.8207
19.5027
20.86
21.9309
22.7575
23.381
23.8371
24.1551
24.357
24.4584
24.4701
24.3992
24.2511
24.0304
23.7422
23.392
22.9861
22.5315
22.0357
21.5062
20.951
20.3778
19.7943
19.2079
18.6252
18.0523
17.4939
16.953
16.4312
15.9281
15.4417
14.969
14.5065
14.0511
13.6008
13.1554
12.7166
12.2878
11.8739
11.4803
11.1118
10.772
10.462
10.1802
9.92214
9.68071
9.44713
9.21198
8.96658
8.70414
8.42065
8.11527
7.79003
7.44908
7.09744
6.73957
6.3778
6.01123
5.63487
5.23958
4.81254
4.33844
3.80126
3.1862
2.48171
1.68105
0.783288
-0.206517
-1.27776
-2.41536
-3.60121
-4.81562
-6.03856
-7.25047
-8.43238
-9.56563
-10.631
-11.608
-12.4741
-13.2053
-13.7776
-14.1695
-14.3654
-14.3586
1.30223
5.85798
10.2721
14.3644
18.0099
21.1424
23.7488
25.856
27.5173
28.7983
29.7664
30.483
30.9989
31.3531
31.5726
31.6749
31.67
31.5639
31.3604
31.0637
30.679
30.2131
29.6742
29.0716
28.4154
27.7157
26.9829
26.2274
25.4595
24.6891
23.9259
23.1781
22.4525
21.7536
21.0832
20.4404
19.8216
19.2214
18.6334
18.0521
17.4735
16.8969
16.3247
15.7625
15.2185
14.7016
14.2204
13.7812
13.3867
13.035
12.7194
12.4292
12.1503
11.8679
11.568
11.2399
10.8779
10.4813
10.0546
9.60579
9.14472
8.68036
8.21847
7.7595
7.29735
6.819
6.30523
5.73248
5.07557
4.31105
3.42047
2.39294
1.22668
-0.0707766
-1.48348
-2.98892
-4.56052
-6.17021
-7.79048
-9.39563
-10.962
-12.467
-13.8875
-15.198
-16.3685
-17.3645
-18.1494
-18.6883
-18.9547
-18.9366
1.35558
7.49034
13.3638
18.7111
23.3649
27.2562
30.3962
32.8523
34.723
36.1173
37.1386
37.8749
38.3948
38.746
38.9583
39.0468
39.017
38.8699
38.6052
38.225
37.7341
37.1407
36.4554
35.6905
34.8591
33.9742
33.0489
32.0963
31.1296
30.1618
29.2058
28.2734
27.3742
26.5146
25.6971
24.9198
24.1764
23.4576
22.7524
22.0505
21.345
20.6336
19.9198
19.2128
18.5254
17.873
17.27
16.7276
16.2512
15.8391
15.4817
15.1626
14.86
14.5502
14.2111
13.826
13.3862
12.892
12.3521
11.7814
11.1979
10.6187
10.056
9.51342
8.9842
8.4504
7.88382
7.24864
6.50575
5.61832
4.55727
3.30544
1.85981
0.2317
-1.55488
-3.46643
-5.46425
-7.50884
-9.56345
-11.596
-13.5793
-15.4892
-17.3019
-18.989
-20.5134
-21.8274
-22.8748
-23.5988
-23.9535
-23.9162
1.30067
9.49883
17.2133
24.0558
29.8175
34.4511
38.0278
40.6907
42.6143
43.9731
44.9206
45.5784
46.0332
46.3389
46.5221
46.5888
46.533
46.3448
46.0163
45.5454
44.9367
44.2004
43.3511
42.4052
41.3797
40.2909
39.1544
37.9859
36.8013
35.6175
34.452
33.3213
32.2392
31.2154
30.2536
29.3505
28.4962
27.6747
26.8669
26.0547
25.2253
24.374
23.5059
22.635
21.7826
20.9736
20.2328
19.5794
19.0238
18.5649
18.1895
17.8727
17.5806
17.2752
16.9209
16.4912
15.9733
15.3691
14.6944
13.9758
13.2453
12.5339
11.865
11.2486
10.6781
10.1295
9.56166
8.92034
8.1445
7.17601
5.96921
4.49742
2.75613
0.762774
-1.4459
-3.81931
-6.30018
-8.83259
-11.3677
-13.8669
-16.3016
-18.6511
-20.8967
-23.0138
-24.961
-26.6736
-28.0655
-29.0406
-29.5161
-29.4488
1.17533
12.2034
22.3177
30.956
37.8936
43.1663
46.9732
49.5914
51.3165
52.419
53.1177
53.572
53.884
54.1061
54.2513
54.3048
54.2373
54.0193
53.6301
53.0621
52.3206
51.4207
50.3835
49.2323
47.9893
46.674
45.3041
43.8964
42.4697
41.0451
39.6463
38.2972
37.0185
35.8253
34.7236
33.7094
32.7672
31.8706
30.9864
30.0823
29.1356
28.1374
27.0948
26.0295
24.9758
23.975
23.0686
22.2894
21.6562
21.1696
20.8119
20.5462
20.3196
20.0699
19.7384
19.2828
18.6838
17.9468
17.0992
16.1866
15.2643
14.3874
13.5978
12.917
12.3401
11.8357
11.3448
10.7853
10.0602
9.07643
7.76232
6.0771
4.01506
1.60357
-1.10001
-4.01768
-7.06209
-10.1526
-13.2238
-16.2306
-19.1467
-21.9624
-24.6765
-27.2829
-29.746
-31.9814
-33.8559
-35.2017
-35.8598
-35.7456
1.10714
16.223
29.5459
40.3037
48.3651
53.9903
57.6274
59.7746
60.9114
61.4422
61.6624
61.7666
61.8598
61.98
62.1083
62.1907
62.1539
61.936
61.4967
60.8242
59.928
58.834
57.5754
56.1869
54.6982
53.1315
51.5035
49.8301
48.1306
46.4314
44.7648
43.1674
41.6709
40.2995
39.0638
37.9611
36.9687
36.045
35.131
34.1679
33.1167
31.9614
30.713
29.4041
28.0899
26.8375
25.7182
24.7864
24.0745
23.5861
23.2993
23.1607
23.0895
22.9802
22.7321
22.2787
21.5909
20.6816
19.5954
18.4095
17.2162
16.1131
15.1723
14.4338
13.896
13.5208
13.2253
12.8869
12.3471
11.4511
10.0885
8.19811
5.776
2.8638
-0.446891
-4.03454
-7.75855
-11.5012
-15.1733
-18.7257
-22.1368
-25.4203
-28.6117
-31.7586
-34.8592
-37.8091
-40.4073
-42.3531
-43.3155
-43.1221
1.46717
22.823
40.4663
53.5322
62.3436
67.6758
70.4258
71.4111
71.3771
70.9106
70.3716
69.9745
69.7941
69.8395
70.0285
70.2457
70.3287
70.1688
69.6965
68.9056
67.8175
66.4817
64.9519
63.2831
61.517
59.6748
57.7657
55.7991
53.7889
51.7686
49.7816
47.8903
46.1412
44.576
43.2108
42.0519
41.0693
40.2039
39.3445
38.3786
37.2461
35.918
34.417
32.7847
31.1139
29.5069
28.0967
26.9654
26.17
25.7113
25.5719
25.6772
25.9131
26.0891
26.0206
25.6112
24.8162
23.6702
22.2344
20.6421
19.0372
17.6046
16.4547
15.661
15.2171
15.0903
15.1672
15.2781
15.1461
14.4973
13.174
11.0844
8.24229
4.69754
0.604758
-3.85525
-8.42833
-12.9516
-17.2952
-21.424
-25.3108
-29.0108
-32.611
-36.3006
-40.1891
-44.1426
-47.8981
-50.9198
-52.4351
-52.083
3.38739
34.7685
57.9769
72.8855
81.3311
85.0797
85.7666
84.5171
82.4676
80.4855
78.8786
77.8724
77.4055
77.4943
77.9105
78.4965
78.8556
78.8541
78.3576
77.4181
76.0668
74.4118
72.532
70.5227
68.4489
66.318
64.1145
61.8343
59.4657
57.0613
54.6646
52.412
50.3507
48.5685
47.0646
45.8929
45.0048
44.358
43.7152
42.8329
41.661
40.1271
38.3139
36.2247
34.0497
31.8964
30.0775
28.6644
27.7842
27.38
27.4958
28.0092
28.8259
29.5534
29.8032
29.5022
28.5497
27.0791
25.1019
22.896
20.6131
18.6919
17.227
16.3871
16.0841
16.369
17.0623
18.0215
18.6917
18.5169
17.365
15.0564
11.7224
7.3225
2.18724
-3.51112
-9.16784
-14.6589
-19.7243
-24.4693
-28.7519
-32.7434
-36.4796
-40.5548
-45.4239
-50.7596
-56.4441
-61.6543
-64.2425
-63.4921
10.7974
58.4828
87.4396
101.545
107.079
106.889
103.892
98.7718
93.4579
89.5168
86.5176
84.9904
84.2137
84.6746
85.5447
87.0707
87.8983
88.2489
87.6535
86.5199
84.7499
82.6624
80.2951
77.8518
75.4598
73.0625
70.5707
67.9937
65.1909
62.3403
59.3374
56.6556
54.1557
52.1577
50.4375
49.3232
48.5905
48.5044
48.4285
47.7022
46.5953
44.7365
42.6062
39.7862
36.9527
33.8029
31.472
29.5948
28.7115
28.2985
28.8458
29.9031
31.8659
33.7045
34.3775
34.3302
33.0282
31.2162
28.2975
25.2596
21.6671
19.1211
17.0983
16.3394
16.1036
17.0589
18.5736
21.1804
23.4533
23.9428
23.2209
20.5045
16.7369
11.0058
4.5801
-3.22734
-10.1462
-16.9796
-22.6149
-28.1803
-32.6121
-36.8436
-39.86
-43.6653
-49.9863
-56.8739
-65.6724
-76.1639
-80.8568
-78.9118
39.6727
109.165
138.288
142.545
141.07
132.738
125.074
113.302
102.469
97.1891
92.0342
91.025
89.237
91.2628
92.2315
96.6479
97.6247
99.0031
97.7212
96.535
93.8874
91.3127
88.1649
85.1044
82.4753
79.9406
77.1469
74.4757
70.9828
67.8361
63.5458
60.6351
57.2363
55.3447
52.9363
52.2022
51.2437
52.6342
54.0767
53.1178
52.6109
49.7351
47.8904
43.366
40.3098
34.5291
32.2123
29.0928
28.9608
27.8332
29.4604
30.4923
35.0838
39.5333
39.9883
40.964
38.2403
36.9462
31.6642
28.4213
21.2135
18.7961
15.1493
15.5381
14.4074
16.9426
18.512
24.8195
30.7824
31.1127
31.9481
27.466
24.5784
15.6889
8.96237
-4.22329
-11.2478
-21.0252
-25.6064
-33.5235
-36.7606
-42.6933
-42.104
-43.1528
-53.7326
-60.2358
-72.4622
-99.0226
-107.029
-101.234
165.07
217.975
224.937
191.796
184.933
157.623
152.17
126.479
103.483
104.68
91.5805
98.1805
88.7679
99.3723
93.953
111.177
106.772
113.587
107.65
108.654
102.919
100.788
95.9086
91.7356
89.3549
87.1915
83.5468
82.1412
76.2766
74.9791
65.7681
65.3182
58.1473
59.2769
53.0251
55.4052
50.5152
56.69
63.1838
57.8835
62.0386
53.2501
57.0344
44.8325
47.5915
30.2685
34.1102
24.2901
30.6451
23.4023
30.9337
25.9571
38.5072
51.1151
44.8502
52.9259
41.395
48.4196
32.0957
37.2934
13.8631
20.2427
7.39029
16.9259
7.43338
18.2183
11.6286
28.9558
46.2233
37.5557
48.3333
32.1321
41.0635
17.258
22.6467
-14.0903
-8.38395
-32.5524
-23.793
-45.6049
-37.0262
-57.9335
-41.9881
-28.9149
-63.3477
-55.3552
-58.6096
-148.598
-153.072
-135.773
780.934
392.939
369.331
203.2
258.236
151.029
208.402
135.772
69.6521
132.756
62.7552
128.39
59.4701
130.551
63.0639
156.847
99.7555
146.531
107.579
130.472
106.758
114.216
102.63
95.7812
95.9172
96.5713
86.7182
96.2235
74.9898
93.514
55.371
79.6762
47.1027
73.8352
40.6811
69.0744
33.8506
60.2837
89.2714
49.0306
90.1024
38.6574
89.1959
24.7531
83.7891
-4.47126
55.6792
-3.80636
51.9085
-2.3049
50.4171
-3.81809
41.8459
89.8719
29.0601
93.1194
17.8279
93.5135
1.53487
87.3883
-36.4145
49.3825
-32.6084
45.7133
-28.7409
44.5126
-29.6961
33.1771
99.0095
15.9965
103.567
0.606308
104.689
-23.2134
96.9915
-85.0761
37.4993
-91.4958
22.0427
-101.448
5.16798
-126.241
-37.736
53.7318
-134.055
-34.2787
80.1403
-321.31
-230.468
-193.37
739.419
670.243
604.86
543.079
484.663
429.339
376.811
326.773
278.911
232.914
188.478
145.304
103.101
61.587
20.4835
-5.88257
-5.68827
-5.40499
-5.05035
-4.64315
-4.20124
-3.74007
-3.27191
-2.80565
-2.34702
-1.899
-1.46235
-1.03613
-0.618159
-0.205451
-9.91857
-9.57915
-9.0875
-8.47563
-7.77718
-7.02353
-6.24129
-5.45114
-4.66767
-3.89997
-3.15241
-2.4257
-1.71772
-1.02443
-0.340416
-14.1324
-13.6221
-12.89
-11.9873
-10.9663
-9.8743
-8.75032
-7.62358
-6.51387
-5.4327
-4.38493
-3.37026
-2.38463
-1.42139
-0.472201
-18.6095
-17.8865
-16.863
-15.6172
-14.2262
-12.7569
-11.262
-9.77891
-8.33142
-6.93197
-5.58429
-4.28572
-3.02911
-1.80427
-0.599195
-23.4525
-22.451
-21.058
-19.3921
-17.564
-15.6649
-13.7617
-11.8985
-10.1008
-8.37936
-6.73447
-5.15918
-3.64175
-2.16739
-0.719489
-28.7908
-27.4065
-25.5256
-23.3286
-20.9727
-18.5768
-16.221
-13.9525
-11.7938
-9.75008
-7.81495
-5.97471
-4.21128
-2.504
-0.830853
-34.795
-32.8584
-30.3088
-27.4237
-24.4211
-21.4484
-18.5928
-15.8964
-13.3716
-11.0121
-8.80041
-6.71336
-4.7246
-2.80645
-0.930764
-41.6986
-38.9229
-35.427
-31.636
-27.839
-24.2027
-20.805
-17.6685
-14.784
-12.126
-9.66115
-7.35363
-5.16722
-3.0664
-1.0165
-49.8244
-45.7072
-40.8401
-35.8537
-31.0961
-26.7179
-22.7556
-19.1882
-15.9698
-13.0465
-10.3644
-7.87267
-5.52419
-3.27539
-1.08533
-59.6025
-53.2404
-46.3717
-39.8422
-33.9734
-28.8169
-24.3111
-20.3587
-16.8603
-13.7257
-10.8772
-8.24831
-5.78138
-3.42561
-1.13475
-71.4987
-61.2794
-51.5633
-43.1695
-36.1378
-30.2647
-25.3128
-21.0751
-17.3865
-14.1185
-11.1703
-8.46186
-5.92734
-3.51084
-1.1628
-85.5263
-68.8146
-55.432
-45.134
-37.1431
-30.791
-25.5998
-21.242
-17.4921
-14.1912
-11.2235
-8.50134
-5.95519
-3.52758
-1.1684
-99.1284
-73.0196
-56.2152
-44.7907
-36.5089
-30.1559
-25.0532
-20.8007
-17.1483
-13.9305
-11.0311
-8.36466
-5.86442
-3.47583
-1.1516
-98.862
-67.919
-51.6177
-41.304
-33.9456
-28.2702
-23.6559
-19.7589
-16.3699
-13.3511
-10.6057
-8.06159
-5.66191
-3.35967
-1.11374
-4.75566
-14.3724
-24.3143
-34.8304
-46.2245
-58.8938
-73.3897
-90.5266
-111.583
-138.715
-175.879
-231.112
-322.845
-499.106
-900.301
-4.67878
-14.1344
-23.8921
-34.1805
-45.2742
-57.5237
-71.4005
-87.5696
-107.009
-131.203
-162.436
-204.011
-259.083
-320.136
-304.797
-4.53373
-13.6866
-23.1011
-32.971
-43.5208
-55.023
-67.8185
-82.3407
-99.1305
-118.802
-141.81
-167.536
-191.166
-194.212
-121.967
-4.32934
-13.0568
-21.9937
-31.289
-41.1056
-51.6234
-63.0367
-75.5363
-89.2502
-104.081
-119.294
-132.514
-137.542
-120.569
-58.3651
-4.07712
-12.2816
-20.6371
-29.2446
-38.203
-47.6013
-57.4998
-67.8878
-78.593
-89.0953
-98.1603
-103.178
-99.1962
-78.3352
-32.6278
-3.78996
-11.4013
-19.1053
-26.9562
-34.9945
-43.2313
-51.6224
-60.0182
-68.0759
-75.1068
-79.8368
-80.09
-72.5703
-53.3554
-20.4651
-3.48091
-10.4567
-17.4711
-24.5376
-31.6477
-38.7537
-45.7409
-52.3827
-58.2708
-62.7152
-64.6215
-62.3996
-54.0649
-37.8718
-13.8855
-3.1621
-9.48514
-15.8005
-22.0884
-28.3034
-34.3583
-40.099
-45.2699
-49.4673
-52.0851
-52.2721
-48.9535
-41.0161
-27.7996
-9.93389
-2.84406
-8.51878
-14.1489
-19.6894
-25.0701
-30.1808
-34.8523
-38.8327
-41.7603
-43.1421
-42.3566
-38.7146
-31.6326
-20.9558
-7.37252
-2.53529
-7.58328
-12.5594
-17.4013
-22.024
-26.3079
-30.0854
-33.1264
-35.1262
-35.7039
-34.4241
-30.864
-24.7452
-16.13
-5.61789
-2.24217
-6.69764
-11.0628
-15.2651
-19.2128
-22.7864
-25.8296
-28.1427
-29.4794
-29.5551
-28.0748
-24.79
-19.5912
-12.6214
-4.36574
-1.96908
-5.87461
-9.67924
-13.3056
-16.6613
-19.6328
-22.0806
-23.8369
-24.708
-24.4867
-22.9784
-20.045
-15.6667
-10.0056
-3.44399
-1.71863
-5.12158
-8.4193
-11.534
-14.3764
-16.8427
-18.8117
-20.1454
-20.6949
-20.3118
-18.8712
-16.3032
-12.6328
-8.01501
-2.74885
-1.49197
-4.44155
-7.28639
-9.95113
-12.3526
-14.3978
-15.9835
-16.9984
-17.3291
-16.8712
-15.5467
-13.3269
-10.2568
-6.47457
-2.21446
-1.28915
-3.83421
-6.27847
-8.55101
-10.576
-12.2718
-13.5516
-14.3264
-14.5108
-14.0321
-12.8438
-10.9408
-8.37525
-5.26592
-1.79726
-1.10938
-3.29684
-5.3897
-7.32272
-9.02787
-10.4344
-11.4701
-12.0643
-12.1528
-11.6857
-10.6369
-9.01479
-6.87121
-4.30672
-1.46745
-0.951334
-2.82511
-4.61187
-6.25256
-7.68701
-8.85448
-9.69519
-10.1531
-10.1804
-9.74304
-8.82817
-7.45075
-5.65938
-3.53829
-1.20403
-0.813339
-2.41378
-3.93543
-5.32555
-6.53145
-7.50136
-8.18595
-8.54091
-8.53048
-8.13193
-7.3405
-6.17408
-4.67645
-2.91786
-0.991862
-0.693552
-2.05715
-3.35029
-4.52639
-5.5397
-6.34628
-6.90552
-7.18234
-7.15001
-6.79354
-6.11316
-5.12735
-3.87469
-2.41364
-0.819765
-0.590082
-1.7494
-2.84639
-3.84023
-4.69144
-5.36288
-5.82114
-6.03836
-5.99455
-5.68001
-5.09784
-4.26587
-3.21759
-2.00164
-0.679362
-0.501081
-1.48492
-2.41409
-3.25307
-3.96797
-4.52747
-4.90406
-5.07559
-5.02702
-4.75227
-4.25594
-3.55454
-2.6769
-1.66345
-0.564259
-0.424794
-1.2584
-2.04438
-2.75203
-3.35237
-3.81902
-4.12933
-4.26561
-4.21649
-3.97834
-3.55641
-2.96557
-2.23048
-1.38479
-0.469514
-0.359599
-1.06494
-1.72904
-2.32548
-2.82956
-3.2191
-3.47542
-3.58432
-3.53719
-3.332
-2.97412
-2.47674
-1.86083
-1.15443
-0.39126
-0.304021
-0.900113
-1.46067
-1.96305
-2.38626
-2.71166
-2.92383
-3.01133
-2.9676
-2.79166
-2.48867
-2.07019
-1.554
-0.963483
-0.32644
-0.256738
-0.759951
-1.23267
-1.65557
-2.01084
-2.28283
-2.45878
-2.52945
-2.4898
-2.33951
-2.08339
-1.73147
-1.29878
-0.80483
-0.272614
-0.216578
-0.640955
-1.03927
-1.39505
-1.69322
-1.92067
-2.06681
-2.12415
-2.08879
-1.96083
-1.74462
-1.44881
-1.08609
-0.67274
-0.227822
-0.182513
-0.540052
-0.875379
-1.17451
-1.4247
-1.61496
-1.73649
-1.7832
-1.75206
-1.6434
-1.46111
-1.21259
-0.908544
-0.562565
-0.190477
-0.153645
-0.454569
-0.736617
-0.987941
-1.19779
-1.35694
-1.4581
-1.49629
-1.46913
-1.37709
-1.22358
-1.01492
-0.760109
-0.470514
-0.159285
-0.129195
-0.382188
-0.619183
-0.830164
-1.00607
-1.13918
-1.22343
-1.25475
-1.23125
-1.15346
-1.02434
-0.849271
-0.635823
-0.393482
-0.13319
-0.108492
-0.320912
-0.519809
-0.696731
-0.844064
-0.955337
-1.02552
-1.05125
-1.03105
-0.965449
-0.857006
-0.710266
-0.531595
-0.328911
-0.111322
-0.0909571
-0.269022
-0.435687
-0.58384
-0.707086
-0.800018
-0.858452
-0.879628
-0.862372
-0.807181
-0.716253
-0.593426
-0.444035
-0.274688
-0.0929613
-0.0760941
-0.225046
-0.364417
-0.488237
-0.591152
-0.668648
-0.71725
-0.73469
-0.720027
-0.67372
-0.597644
-0.495026
-0.370329
-0.229059
-0.0775135
-0.0634774
-0.187722
-0.303942
-0.407145
-0.492862
-0.557334
-0.597681
-0.612036
-0.599647
-0.560926
-0.497459
-0.411953
-0.308128
-0.190563
-0.0644825
-0.0527422
-0.155967
-0.252503
-0.338192
-0.409319
-0.462767
-0.496154
-0.507948
-0.497546
-0.46531
-0.412574
-0.341595
-0.255466
-0.157978
-0.0534536
-0.0435757
-0.128855
-0.208593
-0.279348
-0.33805
-0.382125
-0.409616
-0.419269
-0.4106
-0.383924
-0.340352
-0.281756
-0.210689
-0.130277
-0.0440789
-0.0357089
-0.105589
-0.170918
-0.228872
-0.276933
-0.312995
-0.33546
-0.34331
-0.336156
-0.314266
-0.278559
-0.230573
-0.172399
-0.106594
-0.0360644
-0.0289097
-0.0854817
-0.138363
-0.185264
-0.224145
-0.253304
-0.27145
-0.277765
-0.27194
-0.254199
-0.225291
-0.186462
-0.139406
-0.0861896
-0.0291601
-0.0229765
-0.0679365
-0.109959
-0.147223
-0.178107
-0.201258
-0.215653
-0.220646
-0.215996
-0.201885
-0.178909
-0.148062
-0.11069
-0.0684324
-0.0231519
-0.0177325
-0.0524304
-0.0848589
-0.113611
-0.137435
-0.155289
-0.166384
-0.170222
-0.166621
-0.155723
-0.137991
-0.114192
-0.0853648
-0.0527738
-0.017854
-0.0130212
-0.0384997
-0.0623104
-0.0834199
-0.100909
-0.114012
-0.122151
-0.124962
-0.122312
-0.114305
-0.101284
-0.0838126
-0.0626524
-0.0387317
-0.0131032
-0.00870116
-0.0257266
-0.0416372
-0.0557421
-0.067427
-0.0761806
-0.0816169
-0.0834928
-0.0817198
-0.0763686
-0.0676676
-0.0559936
-0.0418562
-0.0258752
-0.00875374
-0.00464279
-0.0137273
-0.0222173
-0.0297441
-0.03598
-0.0406521
-0.0435543
-0.0445568
-0.0436119
-0.0407572
-0.0361145
-0.0298847
-0.0223397
-0.0138105
-0.00467219
-0.000723971
-0.00214089
-0.00346602
-0.00464227
-0.00561863
-0.00635231
-0.00681062
-0.00697251
-0.00682968
-0.00638714
-0.0056632
-0.00468887
-0.00350659
-0.00216843
-0.000733708
0.00317332
0.00938183
0.0151819
0.0203208
0.0245743
0.0277563
0.0297273
0.0304002
0.0297444
0.0277876
0.0246143
0.0203626
0.0152183
0.00940656
0.00318207
0.00716649
0.0211881
0.0342888
0.0458985
0.055511
0.0627057
0.0671664
0.0686952
0.0672217
0.0628067
0.0556403
0.0460338
0.0344066
0.021268
0.00719477
0.0113758
0.0336336
0.0544307
0.0728626
0.0881259
0.0995528
0.106641
0.109074
0.106741
0.0997358
0.0883602
0.0731076
0.054644
0.0337783
0.011427
0.015928
0.047093
0.0762144
0.102026
0.123404
0.139412
0.149346
0.152762
0.149503
0.139699
0.123771
0.10241
0.0765488
0.0473199
0.0160083
0.0209598
0.061971
0.100295
0.134268
0.162409
0.183488
0.196574
0.201085
0.196807
0.183913
0.162954
0.134837
0.100791
0.0623074
0.0210788
0.0266222
0.0787141
0.127397
0.170558
0.206318
0.233111
0.249756
0.255508
0.250093
0.233726
0.207105
0.171381
0.128113
0.0792003
0.0267942
0.0330846
0.0978235
0.158332
0.211986
0.25645
0.289779
0.3105
0.317683
0.310981
0.290657
0.257574
0.21316
0.159355
0.0985179
0.0333302
0.0405398
0.11987
0.194024
0.259792
0.314313
0.355199
0.380643
0.389495
0.381325
0.356446
0.315908
0.26146
0.195477
0.120856
0.0408886
0.0492094
0.145509
0.235539
0.315406
0.38164
0.431339
0.462302
0.473123
0.463268
0.433104
0.383898
0.317767
0.237595
0.146905
0.0497032
0.0593501
0.175501
0.284107
0.380483
0.460444
0.520486
0.557943
0.571105
0.559308
0.522981
0.463636
0.383822
0.287015
0.177474
0.0600481
0.0712605
0.21073
0.341166
0.456955
0.553074
0.625312
0.670449
0.686411
0.672378
0.628836
0.557584
0.461671
0.345274
0.213517
0.0722466
0.0852892
0.252228
0.408394
0.54708
0.662282
0.748949
0.803206
0.82254
0.80593
0.753926
0.668652
0.553741
0.414194
0.256165
0.0866818
0.101844
0.301206
0.487755
0.653507
0.791298
0.895084
0.960207
0.98362
0.964053
0.902111
0.800292
0.662912
0.495945
0.306765
0.103811
0.121403
0.359077
0.581553
0.779344
0.94392
1.06806
1.14616
1.17453
1.15159
1.07798
0.956617
0.792622
0.593116
0.366925
0.124179
0.144523
0.427498
0.692485
0.928238
1.12461
1.27299
1.36664
1.40107
1.3743
1.28699
1.14254
0.946983
0.70881
0.438578
0.148442
0.171857
0.508406
0.823712
1.10447
1.33862
1.5159
1.62821
1.6701
1.63903
1.53567
1.36393
1.13093
0.846758
0.524049
0.177391
0.204166
0.604059
0.978923
1.31304
1.59212
1.80391
1.93868
1.98976
1.95396
1.83182
1.62784
1.3504
1.01146
0.626144
0.211978
0.242333
0.717086
1.16242
1.55981
1.89234
2.14538
2.30724
2.36975
2.3288
2.18478
1.94276
1.61255
1.20835
0.748266
0.253363
0.287381
0.850533
1.3792
1.8516
2.24773
2.55015
2.74477
2.82155
2.7752
2.60576
2.31891
1.92605
1.44405
0.894554
0.302954
0.34049
1.00791
1.63505
2.19633
2.66816
3.02975
3.2641
3.35881
3.30705
3.10825
2.76864
2.30144
1.72661
1.07007
0.362479
0.403008
1.19326
1.93661
2.60316
3.1651
3.59769
3.88035
3.99776
3.94097
3.70848
3.30693
2.75155
2.06588
1.28102
0.434058
0.476469
1.41116
2.29149
3.08261
3.75183
4.26971
4.61132
4.75761
4.69686
4.42606
3.95203
3.29209
2.47401
1.5351
0.52032
0.562599
1.66678
2.70829
3.64667
4.4436
5.06408
5.47787
5.6612
5.59857
5.28471
4.72617
3.94241
2.96603
1.84183
0.624538
0.663318
1.96591
3.19668
4.30892
5.25785
6.00192
6.50441
6.7355
6.67467
6.31322
5.65666
4.72644
3.56067
2.21317
0.750824
0.780726
2.31488
3.76735
5.08452
6.21431
7.10745
7.71934
8.01246
7.95946
7.5466
6.77711
5.674
4.28147
2.66425
0.904389
0.917083
2.72054
4.43194
5.99019
7.33502
8.40821
9.15553
9.52966
9.49406
9.02754
8.12915
6.82247
5.15826
3.21435
1.09191
1.07475
3.19011
5.20284
7.04398
8.64428
9.93517
10.8508
11.3313
11.3278
10.8083
9.76463
8.21915
6.22923
3.88837
1.32206
1.25611
3.73091
6.09283
8.26493
10.1683
11.7226
12.848
13.4689
13.5197
12.9528
11.7485
9.92437
7.54382
4.71892
1.60622
1.46345
4.35003
7.11457
9.6724
11.9346
13.8078
15.1955
16.0023
16.1404
15.54
14.1626
12.0159
9.1669
5.74927
1.95963
1.69879
5.05386
8.27977
11.2851
13.9709
16.2298
17.9462
18.9999
19.2737
18.6665
17.1108
14.595
11.1848
7.0379
2.40303
1.96361
5.84732
9.59809
13.1194
16.3035
19.0285
21.1569
22.5387
23.0186
22.4514
20.7255
17.7949
13.714
8.66535
2.96527
2.25863
6.73303
11.0756
15.1877
18.9548
22.2411
24.8859
26.7036
27.4905
27.0408
25.1767
21.7936
16.9152
10.7451
3.68754
2.58337
7.71019
12.7131
17.4955
21.9398
25.899
29.1888
31.5841
32.8208
32.612
30.6824
26.8303
21.0134
13.4409
4.63027
2.93582
8.77333
14.5035
20.0378
25.2615
30.0214
34.1127
37.2687
39.1547
39.3777
37.5228
33.2313
26.3304
16.9964
5.8854
3.31193
9.91092
16.4297
22.7956
28.9051
34.6076
39.6858
43.8348
46.643
47.5861
46.0548
41.4439
33.3368
21.7858
7.59866
3.70529
11.1041
18.4619
25.7311
32.831
39.6269
45.9038
51.3317
55.4258
57.5124
56.725
52.084
42.7345
28.4056
10.0133
4.10677
12.3256
20.5553
28.784
36.9675
45.0061
52.7108
59.7541
65.6023
69.4338
70.0707
65.9934
55.5895
37.8468
13.5629
4.50449
13.5396
22.6491
31.868
41.2044
50.6168
59.9766
69.0059
77.1784
83.5731
86.6893
84.2953
73.5404
51.8299
19.0859
4.88402
14.7017
24.6666
34.87
45.388
56.2634
67.4713
78.852
89.9883
99.9881
107.134
108.402
99.0984
73.4745
28.3779
5.22902
15.7614
26.5183
37.6533
49.3228
61.6785
74.8452
88.8671
103.586
118.384
131.657
139.851
135.988
108.641
45.7662
5.52232
16.665
28.1071
40.065
52.7806
66.5297
81.6245
98.3971
117.129
137.837
159.708
179.669
189.185
168.478
83.0551
5.74744
17.3606
29.3374
41.9501
55.5201
70.4457
87.2379
106.566
129.297
156.482
189.081
226.738
263.369
273.254
176.376
5.89035
17.8035
30.1257
43.17
57.3178
73.0646
91.0896
112.369
138.37
171.364
214.941
274.517
356.124
452.169
447.385
5.94118
17.9622
30.4123
43.623
58.0045
74.1007
92.6798
114.894
142.583
178.897
229.687
306.993
438.848
701.099
1336.43
5.89564
17.8228
30.1704
43.2626
57.4999
73.4118
91.7446
113.616
140.807
176.373
226.018
301.583
431.014
690.933
1328.17
5.75563
17.3914
29.411
42.1066
55.8317
71.0409
88.3513
108.641
133.212
164.069
204.347
258.765
332.558
418.734
412.424
5.5291
16.6932
28.1818
40.2353
53.1323
67.2101
82.8882
100.691
121.252
145.221
172.854
202.489
225.499
210.756
65.1067
-62.7007
-51.0469
-42.3268
-35.5857
-30.1579
-25.636
-21.7637
-18.3716
-15.3416
-12.5878
-10.045
-7.66123
-5.39367
-3.20544
-1.06342
-23.5108
-32.5565
-32.1305
-29.3045
-25.9895
-22.7286
-19.6677
-16.8281
-14.1921
-11.7304
-9.41212
-7.2074
-5.08852
-3.02954
-1.00595
-10.6927
-20.6434
-23.6006
-23.3627
-21.7831
-19.6822
-17.4176
-15.1431
-12.9214
-10.7734
-8.70025
-6.6939
-4.74171
-2.82905
-0.940343
-5.81537
-13.5867
-17.2891
-18.3526
-17.9383
-16.7493
-15.1743
-13.4213
-11.5994
-9.76419
-7.94194
-6.1427
-4.36741
-2.61189
-0.86916
-3.61811
-9.35556
-12.81
-14.3684
-14.6314
-14.0843
-13.0545
-11.7472
-10.2865
-8.7459
-7.16757
-5.57481
-3.97932
-2.38582
-0.794909
-2.46161
-6.70976
-9.6474
-11.2836
-11.887
-11.7545
-11.1273
-10.1795
-9.02908
-7.75371
-6.40316
-5.00877
-3.58983
-2.15791
-0.719894
-1.77391
-4.97395
-7.38853
-8.9159
-9.65359
-9.76791
-9.42261
-8.75228
-7.85834
-6.81365
-5.66912
-4.45972
-3.2093
-1.93423
-0.6461
-1.3277
-3.78356
-5.74571
-7.09649
-7.85297
-8.10045
-7.94355
-7.48029
-6.7922
-5.94286
-4.98007
-3.93911
-2.84587
-1.71959
-0.575128
-1.02004
-2.93597
-4.5274
-5.68973
-6.40574
-6.71373
-6.67716
-6.36437
-5.83798
-5.15078
-4.34526
-3.45477
-2.50536
-1.51756
-0.508173
-0.798574
-2.31371
-3.60702
-4.59285
-5.24179
-5.56622
-5.60253
-5.39672
-4.99537
-4.44082
-3.7694
-3.01132
-2.19148
-1.3305
-0.446045
-0.634055
-1.84548
-2.90013
-3.72989
-4.30314
-4.61875
-4.69596
-4.56482
-4.25911
-3.81198
-3.25367
-2.61074
-1.90613
-1.15975
-0.389213
-0.508892
-1.48611
-2.34938
-3.04501
-3.54337
-3.8368
-3.93404
-3.85408
-3.62101
-3.26031
-2.79668
-2.25296
-1.64978
-1.00574
-0.337859
-0.411898
-1.20584
-1.91503
-2.4971
-2.92588
-3.19104
-3.29512
-3.24965
-3.07151
-2.78008
-2.39529
-1.93645
-1.42178
-0.868288
-0.291943
-0.335628
-0.984427
-1.56894
-2.0556
-2.42198
-2.65712
-2.76003
-2.73731
-2.60065
-2.36466
-2.04528
-1.65869
-1.22074
-0.746693
-0.251259
-0.27495
-0.807645
-1.29078
-1.69762
-2.0092
-2.21499
-2.31214
-2.30406
-2.19873
-2.00713
-1.74193
-1.41658
-1.04475
-0.639944
-0.21549
-0.226217
-0.665271
-1.0656
-1.40576
-1.66987
-1.84829
-1.93731
-1.93832
-1.85671
-1.70069
-1.48033
-1.20675
-0.891631
-0.546835
-0.184252
-0.186773
-0.549785
-0.882186
-1.16668
-1.39004
-1.54366
-1.62357
-1.62994
-1.56634
-1.43892
-1.25566
-1.02575
-0.759117
-0.466071