/*--------------------------------*- C++ -*----------------------------------*\
| =========                 |                                                 |
| \\      /  F ield         | OpenFOAM: The Open Source CFD Toolbox           |
|  \\    /   O peration     | Version:  5.x                                   |
|   \\  /    A nd           | Web:      www.OpenFOAM.org                      |
|    \\/     M anipulation  |                                                 |
\*---------------------------------------------------------------------------*/
FoamFile
{
    version     2.0;
    format      ascii;
    class       volScalarField;
    location    "6.8";
    object      T;
}
// * * * * * * * * * * * * * * * * * * * * * * * * * * * * * * * * * * * * * //

dimensions      [0 0 0 1 0 0 0];

internalField   nonuniform List<scalar> 
6300
(
10.5082
11.5275
12.5559
13.599
14.6625
15.7512
16.8694
18.0205
19.2066
20.4287
21.686
22.9758
24.2937
25.6334
26.9872
10.5051
11.5184
12.541
13.5787
14.6371
15.7215
16.8363
17.9852
19.1705
20.3933
21.6531
22.9473
24.2715
25.6191
26.9819
10.499
11.5001
12.5109
13.5374
14.5857
15.6613
16.7691
17.9132
19.0965
20.3207
21.5855
22.8886
24.2254
25.5891
26.9706
10.4896
11.4722
12.4649
13.4743
14.5069
15.5687
16.6653
17.8017
18.9815
20.2073
21.4793
22.7958
24.1521
25.5408
26.9517
10.4769
11.4342
12.4022
13.388
14.3987
15.4411
16.5217
17.6465
18.8204
20.0472
21.3284
22.6628
24.0461
25.47
26.9225
10.4605
11.3853
12.3215
13.2767
14.2587
15.2751
16.3337
17.4419
18.6063
19.8325
21.1238
22.4807
23.8991
25.3701
26.8792
10.4404
11.3251
12.2218
13.1387
14.0841
15.0669
16.096
17.1808
18.3302
19.5523
20.8535
22.2367
23.6993
25.2317
26.8163
10.4163
11.2529
12.1019
12.9719
13.872
14.812
15.8025
16.8549
17.981
19.1928
20.501
21.9129
23.4292
25.0409
26.7259
10.388
11.1682
11.9609
12.7749
13.6199
14.5066
15.4471
16.455
17.5459
18.7368
20.0446
21.4842
23.0634
24.7764
26.5963
10.3556
11.0709
11.7984
12.5469
13.3261
14.1473
15.0239
15.9719
17.0107
18.1634
19.4561
20.9157
22.5636
24.4044
26.4089
10.3193
10.9615
11.615
12.2881
12.9902
13.7326
14.5292
15.3979
16.3615
17.4498
18.7004
20.1585
21.8707
23.8683
26.132
10.2792
10.8407
11.4119
12.0001
12.6138
13.2634
13.9623
14.7287
15.5874
16.5736
17.7371
19.1469
20.8921
23.0656
25.7024
10.2359
10.7101
11.1918
11.6867
12.2015
12.7447
13.3279
13.967
14.6856
15.52
16.5272
17.7996
19.4848
21.7994
24.9709
10.1902
10.572
10.9585
11.3533
11.7606
12.1861
12.6374
13.1255
13.668
14.2933
15.0519
16.0393
17.4477
19.6759
23.4924
10.1429
10.4291
10.7169
11.0072
11.3016
11.6016
11.9098
12.2297
12.5673
12.933
13.3475
13.8577
14.5908
15.9637
19.6151
28.2325
29.3616
30.4819
31.5875
32.6728
33.7329
34.7629
35.7589
36.7175
37.6358
38.5116
39.3428
40.1282
40.8666
41.5573
42.1998
42.7938
43.3391
43.836
44.2845
44.6852
45.0386
45.3453
45.6061
45.8218
45.9935
46.122
46.2084
46.2539
46.2596
46.2265
46.1559
46.0488
45.9064
45.7296
45.5196
45.2773
45.0038
44.7
44.3667
44.0051
43.6158
43.1999
42.7581
42.2914
41.8005
41.2863
40.7493
40.1904
39.6101
39.009
38.3877
37.7467
37.0866
36.4078
35.7109
34.9964
34.2649
33.517
32.7533
31.9746
31.1816
30.3748
29.5552
28.7233
27.8802
27.0265
26.1633
25.2916
24.4124
23.5271
22.6372
21.7441
20.8498
19.956
19.0649
18.1787
17.2996
16.4298
15.5719
14.728
13.9004
13.0912
12.3024
11.536
10.7934
10.076
9.38489
8.72077
8.08401
28.2363
29.3739
30.5025
31.6161
32.7088
33.7754
34.8112
35.8122
36.7749
37.6965
38.5749
39.4082
40.1951
40.9346
41.626
42.2689
42.863
43.4082
43.9047
44.3527
44.7526
45.105
45.4106
45.6702
45.8846
46.0547
46.1817
46.2666
46.3104
46.3145
46.2798
46.2076
46.0989
45.9549
45.7767
45.5652
45.3216
45.0467
44.7415
44.407
44.044
43.6535
43.2363
42.7934
42.3255
41.8336
41.3182
40.7803
40.2205
39.6393
39.0375
38.4154
37.7737
37.1129
36.4333
35.7356
35.0203
34.2879
33.5391
32.7745
31.9948
31.2007
30.393
29.5722
28.7393
27.8949
27.0399
26.1752
25.3018
24.4208
23.5335
22.6413
21.7457
20.8486
19.9519
19.0577
18.1682
17.2857
16.4127
15.5514
14.7043
13.8736
13.0615
12.2702
11.5014
10.7569
10.038
9.3459
8.68125
8.04448
28.2437
29.3986
30.5443
31.6741
32.7818
33.8618
34.9092
35.9199
36.8907
37.8189
38.7024
39.5396
40.3295
41.0711
41.7639
42.4075
43.0017
43.5466
44.0423
44.4891
44.8875
45.238
45.5414
45.7984
46.01
46.1773
46.3012
46.3829
46.4235
46.4243
46.3863
46.3109
46.1991
46.052
45.8708
45.6564
45.41
45.1323
44.8245
44.4873
44.1218
43.7288
43.3091
42.8638
42.3936
41.8994
41.382
40.8422
40.2805
39.6977
39.0943
38.4708
37.8277
37.1654
36.4844
35.7851
35.0682
34.3341
33.5834
32.8169
32.0353
31.2391
30.4293
29.6064
28.7711
27.9244
27.0668
26.1993
25.3226
24.438
23.5466
22.6498
21.7491
20.8465
19.9438
19.0433
18.1473
17.2581
16.3783
15.5104
14.6567
13.8198
13.0019
12.2052
11.4318
10.6833
9.96139
9.26717
8.60147
7.96469
28.254
29.4361
30.6085
31.7635
32.8941
33.9944
35.0592
36.0845
37.0672
38.0048
38.8957
39.7386
40.5326
41.2771
41.9718
42.6163
43.2108
43.7551
44.2496
44.6946
45.0905
45.4381
45.738
45.9912
46.1986
46.3614
46.4806
46.5574
46.5931
46.5889
46.546
46.4657
46.3491
46.1975
46.0118
45.7931
45.5424
45.2607
44.9489
44.6078
44.2384
43.8416
43.4182
42.9692
42.4955
41.998
41.4775
40.9347
40.3704
39.7852
39.1795
38.5539
37.9087
37.2443
36.5611
35.8596
35.1402
34.4035
33.6501
32.8807
32.096
31.2968
30.4838
29.6578
28.8193
27.969
27.1077
26.2359
25.3546
24.4646
23.5671
22.6634
21.7551
20.8441
19.9323
19.0222
18.1162
17.2168
16.3266
15.4485
14.5848
13.7384
12.9115
12.1066
11.3259
10.5714
9.84472
9.14724
8.4799
7.84315
28.2665
29.4872
30.6972
31.8874
33.0497
34.1775
35.2656
36.31
37.3079
38.2575
39.1575
40.0072
40.8062
41.5542
42.251
42.8966
43.4911
44.0346
44.5273
44.9697
45.3623
45.7059
46.0011
46.249
46.4508
46.6074
46.7202
46.7904
46.8194
46.8084
46.7588
46.6719
46.5489
46.3911
46.1994
45.975
45.7188
45.4317
45.1146
44.7684
44.3938
43.9919
43.5635
43.1095
42.6311
42.129
41.6043
41.0576
40.4898
39.9013
39.2928
38.6644
38.0166
37.3496
36.6637
35.9592
35.2366
34.4964
33.7392
32.9659
32.1772
31.3739
30.5568
29.7266
28.8838
28.0292
27.1631
26.286
25.3987
24.5018
23.5962
22.6834
21.7648
20.8423
19.9183
18.995
18.0752
17.1618
16.2575
15.3654
14.4881
13.6285
12.7893
11.9731
11.1823
10.4192
9.68584
8.98378
8.31416
7.67752
28.2801
29.5533
30.8139
32.0508
33.2543
34.4173
35.5342
36.6017
37.6175
38.5808
39.491
40.3482
41.1526
41.9042
42.6032
43.2498
43.8442
44.3864
44.8768
45.3158
45.7041
46.0423
46.3315
46.5726
46.767
46.9157
47.0203
47.082
47.1023
47.0827
47.0246
46.9293
46.7982
46.6325
46.4334
46.2019
45.9389
45.6452
45.3216
44.9689
44.5879
44.1795
43.7447
43.2845
42.7999
42.292
41.7619
41.2103
40.6381
40.0459
39.4339
38.8024
38.1517
37.4816
36.7925
36.0844
35.3578
34.6131
33.8512
33.0728
32.2789
31.4704
30.6482
29.8129
28.9652
28.1054
27.2338
26.3506
25.4561
24.5509
23.6355
22.7113
21.7797
20.8427
19.9027
18.9624
18.025
17.0934
16.1708
15.2605
14.3656
13.489
12.6338
11.8027
10.9986
10.2241
9.48173
8.77348
8.10081
7.46442
28.2936
29.637
30.9645
32.2616
33.517
34.7226
35.8735
36.967
38.0023
38.9798
39.9003
40.7647
41.5741
42.3291
43.0302
43.6776
44.2715
44.812
45.2995
45.7342
46.117
46.4487
46.7302
46.9629
47.1479
47.2869
47.3812
47.4323
47.442
47.4117
47.343
47.2374
47.0964
46.9214
46.7134
46.4734
46.2023
45.9009
45.5697
45.2094
44.8207
44.4045
43.9619
43.4938
43.0016
42.4865
41.9497
41.3922
40.8148
40.2181
39.6024
38.9677
38.3138
37.6406
36.9479
36.2357
35.5043
34.7542
33.9863
33.2016
32.4012
31.5863
30.7579
29.9168
29.0635
28.1982
27.3207
26.431
25.5288
24.6141
23.6874
22.7495
21.802
20.847
19.8872
18.9257
17.966
17.0116
16.0663
15.1334
14.2165
13.3187
12.4432
11.5933
10.772
9.98267
9.22835
8.51181
7.83509
7.19919
28.3061
29.7433
31.1582
32.5319
33.8507
35.1063
36.2948
37.4155
38.4698
39.4603
40.3895
41.2598
42.0732
42.8309
43.5337
44.1816
44.7748
45.3133
45.7971
46.2267
46.6028
46.9263
47.1985
47.4207
47.5945
47.7215
47.8033
47.8417
47.8383
47.7951
47.7136
47.5957
47.443
47.2568
47.0385
46.7889
46.5088
46.1986
45.8589
45.49
45.0924
44.667
44.2148
43.7372
43.2356
42.7115
42.1665
41.6019
41.0186
40.4172
39.7977
39.1599
38.5033
37.8272
37.1309
36.4142
35.6772
34.9205
34.1451
33.3523
32.5438
31.7211
30.8855
30.0379
29.1788
28.308
27.425
26.529
25.619
24.6944
23.7549
22.8012
21.8348
20.8579
19.8738
18.8861
17.899
16.9167
15.9435
14.9832
14.0396
13.116
12.2158
11.3424
10.4994
9.69064
8.92042
8.19266
7.51048
6.87544
28.3171
29.8811
31.4108
32.8807
34.2749
35.586
36.813
37.9588
39.0287
40.0282
40.9626
41.8362
42.6518
43.4112
44.1152
44.7637
45.3562
45.8924
46.3721
46.7955
47.1634
47.4771
47.7379
47.9475
48.1077
48.2204
48.2873
48.3103
48.2914
48.2326
48.1359
48.0033
47.8368
47.6379
47.4078
47.1476
46.8577
46.5383
46.1894
45.811
45.4034
44.9673
44.5038
44.0144
43.5011
42.966
42.411
41.8379
41.2479
40.6415
40.0186
39.3786
38.7202
38.042
37.3427
36.6214
35.878
35.1132
34.3283
33.5253
32.7065
31.8741
31.0299
30.1752
29.3103
28.4349
27.5476
26.6467
25.73
24.7956
23.8426
22.871
21.8823
20.879
19.8652
18.8453
17.8247
16.8086
15.8018
14.8088
13.8335
12.8794
11.9497
11.0476
10.1771
9.34304
8.55123
7.80777
7.11789
6.48428
28.3282
30.0677
31.7491
33.338
34.818
36.1861
37.4473
38.611
39.6881
40.6891
41.6227
42.4951
43.3104
44.0705
44.7758
45.4254
46.0179
46.552
47.0271
47.4432
47.8014
48.103
48.35
48.5445
48.6885
48.7842
48.8334
48.8383
48.801
48.7237
48.6089
48.4591
48.2764
48.0628
47.8198
47.5481
47.2482
46.9195
46.5615
46.1733
45.7547
45.3062
44.8291
44.3253
43.7974
43.2483
42.6809
42.0977
41.5001
40.8889
40.2637
39.6231
38.9651
38.2868
37.5855
36.8598
36.109
35.3341
34.537
33.7205
32.8882
32.0434
31.189
30.3266
29.4567
28.5784
27.6895
26.7867
25.866
24.9234
23.9567
22.9652
21.9503
20.9152
19.8648
18.8054
17.7438
16.6867
15.64
14.6087
13.5968
12.6076
11.6436
10.7072
9.80217
8.93446
8.11228
7.3456
6.64417
6.013
28.3464
30.3376
32.2202
33.9513
35.5217
36.9395
38.2215
39.3871
40.4562
41.4464
42.3701
43.2357
44.0477
44.808
45.5158
46.1686
46.7628
47.2958
47.766
48.1736
48.5198
48.8067
49.0369
49.2132
49.3381
49.4139
49.4426
49.4263
49.3671
49.2679
49.1315
48.9611
48.7596
48.5294
48.272
47.9886
47.6791
47.3424
46.9763
46.5786
46.1483
45.6856
45.1921
44.6701
44.1234
43.5561
42.973
42.3773
41.7713
41.1557
40.5301
39.8922
39.2385
38.5638
37.8631
37.1336
36.3743
35.5866
34.773
33.9381
33.0872
32.2261
31.359
30.4884
29.6147
28.7367
27.851
26.9523
26.0329
25.0856
24.1061
23.0927
22.0471
20.973
19.8772
18.7682
17.6562
16.5495
15.4559
14.3803
13.3273
12.2992
11.2975
10.3216
9.37332
8.46019
7.59327
6.78938
6.06919
5.44262
28.396
30.7631
32.9087
34.7957
36.4446
37.8877
39.1626
40.3013
41.3374
42.2988
43.2003
44.0526
44.8585
45.6204
46.334
46.9954
47.595
48.1291
48.5942
48.9916
49.3227
49.5912
49.8007
49.9549
50.0575
50.1105
50.1157
50.075
49.9903
49.8649
49.7022
49.5073
49.2834
49.0342
48.7611
48.466
48.1483
47.8067
47.4358
47.03
46.588
46.1088
45.5954
45.0498
44.4784
43.8862
43.2825
42.6709
42.0558
41.4365
40.8136
40.1833
39.5416
38.8778
38.1816
37.4498
36.68
35.8757
35.039
34.1784
33.3004
32.4172
31.5335
30.6543
29.7784
28.9058
28.0307
27.1472
26.2398
25.2937
24.304
23.2663
22.1848
21.0616
19.9086
18.7351
17.5604
16.3935
15.2455
14.1193
13.0218
11.9527
10.914
9.89614
8.89369
7.91927
6.98339
6.11252
5.35933
4.74316
28.5624
31.5072
33.969
35.9822
37.6633
39.0772
40.2993
41.3625
42.3254
43.2367
44.1004
44.9355
45.7319
46.5015
47.2267
47.91
48.5208
49.0607
49.5191
49.904
50.2148
50.46
50.6428
50.7702
50.8473
50.8751
50.854
50.7861
50.671
50.5147
50.3183
50.0943
49.8427
49.5725
49.2808
48.9751
48.6509
48.3124
47.9448
47.5326
47.0802
46.5804
46.0442
45.4658
44.8624
44.2322
43.6024
42.9692
42.3455
41.7217
41.107
40.4902
39.8758
39.2379
38.5507
37.8202
37.0349
36.2109
35.3389
34.4433
33.5206
32.6086
31.701
30.8152
29.9367
29.0779
28.2224
27.3759
26.502
25.5644
24.5705
23.5028
22.3819
21.1931
19.9689
18.7037
17.4532
16.21
15.0036
13.8167
12.6751
11.5624
10.5003
9.4483
8.37359
7.32271
6.27982
5.2661
4.45206
3.86439
29.1894
32.9464
35.6744
37.6466
39.266
40.5424
41.6641
42.5673
43.3868
44.2426
45.041
45.8731
46.6433
47.4457
48.1787
48.9283
49.5475
50.1092
50.5486
50.9223
51.2005
51.4175
51.564
51.657
51.707
51.7093
51.6586
51.5645
51.4099
51.2216
50.9731
50.72
50.4281
50.1411
49.8198
49.51
49.1731
48.8594
48.5174
48.0923
47.6402
47.1035
46.5532
45.9171
45.2846
44.5768
43.9267
43.2528
42.635
41.9931
41.4028
40.7931
40.2433
39.6685
38.9814
38.2691
37.4448
36.6146
35.6723
34.7469
33.7247
32.7932
31.8365
30.9651
30.0665
29.2446
28.401
27.6435
26.8554
25.916
24.943
23.8157
22.6763
21.3754
20.0878
18.6507
17.3355
15.973
14.7334
13.4488
12.2866
11.0989
10.0719
9.03308
7.81904
6.71455
5.53415
4.13206
3.21875
2.71848
31.8638
35.8667
38.4677
39.8182
41.362
42.2297
43.3427
43.8921
44.395
45.3304
45.932
46.8991
47.5073
48.4889
49.1057
50.1335
50.6562
51.3325
51.6721
52.0771
52.2732
52.4757
52.561
52.6049
52.6344
52.6189
52.5249
52.429
52.1965
52.0143
51.6336
51.4006
51.0057
50.7581
50.3413
50.0832
49.6612
49.4462
49.2085
48.6903
48.321
47.6454
47.1849
46.3625
45.8143
44.8376
44.2846
43.455
42.9584
42.1897
41.7257
41.0094
40.646
40.2602
39.4477
38.8787
37.8628
37.1793
35.9808
35.1892
33.7978
33.0134
31.8488
31.1537
30.0854
29.4422
28.455
27.955
27.4264
26.3156
25.5372
24.1455
23.2031
21.5383
20.4218
18.4219
17.2855
15.5589
14.5277
12.9046
11.9346
10.4037
9.66053
8.87001
7.10664
6.21561
5.10763
2.29414
1.39061
1.14893
7.41368
6.7213
6.06654
5.44756
4.86206
4.30737
3.78057
3.27864
2.79847
2.33698
1.89112
1.45792
1.03447
0.617936
0.205522
7.37469
6.68357
6.03066
5.41401
4.83119
4.2794
3.75565
3.25682
2.77975
2.32131
1.87844
1.44815
1.02755
0.613804
0.204148
7.29603
6.60753
5.95844
5.34656
4.7692
4.22334
3.70577
3.2132
2.74235
2.29004
1.85314
1.42868
1.01375
0.605573
0.201413
7.17632
6.49199
5.84891
5.2445
4.67564
4.13893
3.63083
3.1478
2.68639
2.24331
1.81539
1.39964
0.993195
0.593315
0.19734
7.01338
6.33509
5.70064
5.10681
4.54987
4.02586
3.53076
3.06073
2.61208
2.18138
1.76544
1.36127
0.966059
0.577145
0.191969
6.80413
6.13426
5.51165
4.93216
4.39112
3.8838
3.40559
2.95222
2.51977
2.10467
1.7037
1.31392
0.932612
0.55723
0.185356
6.54433
5.88607
5.27948
4.71897
4.19859
3.71256
3.25553
2.82276
2.41006
2.01379
1.63075
1.25809
0.893224
0.533798
0.177579
6.22831
5.58613
5.00114
4.46558
3.97167
3.51226
3.08117
2.67317
2.28389
1.90967
1.5474
1.19443
0.848387
0.50715
0.168739
5.84843
5.2289
4.6733
4.1705
3.71017
3.28359
2.88367
2.50483
2.14263
1.79355
1.45474
1.12382
0.798732
0.477669
0.158964
5.39434
4.80767
4.2926
3.83286
3.41489
3.0282
2.66507
2.3198
1.98821
1.66715
1.35418
1.04736
0.745042
0.445822
0.148409
4.85194
4.31476
3.8565
3.45342
3.08825
2.74923
2.42856
2.12106
1.82323
1.53262
1.24746
0.966366
0.688249
0.412161
0.137257
4.20229
3.74286
3.36517
3.03602
2.73542
2.45187
2.17885
1.91263
1.651
1.39263
1.13664
0.88239
0.629415
0.37731
0.125714
3.42197
3.08917
2.82523
2.59003
2.36549
2.14394
1.92231
1.69956
1.4755
1.25025
1.02405
0.797129
0.569702
0.341944
0.114001
2.49177
2.36657
2.25653
2.13334
1.99256
1.83605
1.66685
1.48779
1.30116
1.10881
0.912166
0.712363
0.510311
0.306758
0.102346
1.4394
1.62878
1.70093
1.69422
1.63531
1.54082
1.42124
1.28355
1.13253
0.971643
0.803427
0.629836
0.452413
0.272427
0.0909691
10.0991
10.2968
10.493
10.6864
10.8755
11.0583
11.232
11.3923
11.5325
11.6413
11.6973
11.6535
11.3851
10.472
7.15905
10.0596
10.1776
10.2913
10.3976
10.4924
10.5707
10.625
10.6448
10.6135
10.5037
10.2662
9.80546
8.91861
7.14602
3.47772
10.0211
10.0612
10.0948
10.1167
10.1209
10.0996
10.042
9.93279
9.74905
9.45461
8.98998
8.25329
7.06709
5.13641
2.07909
9.98408
9.94946
9.90627
9.84805
9.76708
9.65361
9.4947
9.27248
8.96136
8.52365
7.90266
7.01319
5.73251
3.90916
1.44493
9.94897
9.84362
9.7282
9.59519
9.43581
9.23918
8.99136
8.67385
8.26154
7.71992
7.00175
6.04472
4.77472
3.12693
1.10634
9.91613
9.74476
9.56232
9.36064
9.13037
8.86026
8.53637
8.14102
7.65148
7.03873
6.26666
5.29356
4.07924
2.60357
0.901136
9.8858
9.65359
9.40977
9.14592
8.85257
8.51866
8.13099
7.67355
7.12695
6.46814
5.67113
4.70989
3.56521
2.23768
0.765256
9.85811
9.57048
9.27113
8.95168
8.6029
8.21436
7.77402
7.26797
6.6803
5.99348
5.18964
4.25357
3.17816
1.97238
0.669712
9.8331
9.49551
9.14643
8.77778
8.38084
7.94602
7.46267
6.91905
6.30249
5.60005
4.79993
3.894
2.88161
1.77435
0.599691
9.81071
9.4285
9.03532
8.62352
8.18507
7.71135
7.19315
6.62076
5.9843
5.27444
4.48369
3.60833
2.65095
1.62311
0.546837
9.79084
9.36912
8.93711
8.48776
8.01378
7.50755
6.96125
6.36694
5.71705
5.00499
4.2262
3.3796
2.46919
1.50552
0.50606
9.77334
9.31688
8.85094
8.3691
7.86486
7.33158
6.76266
6.15171
5.49297
4.78186
4.01578
3.19516
2.32443
1.41276
0.474074
9.75803
9.27121
8.77579
8.266
7.73609
7.18034
6.59324
5.96966
5.30526
4.59688
3.84322
3.04551
2.20808
1.33876
0.44866
9.7447
9.23152
8.71061
8.17687
7.62525
7.05086
6.44913
5.81596
5.14806
4.44333
3.70126
2.92344
2.11388
1.27917
0.42826
9.73316
9.19718
8.65435
8.10015
7.53021
6.94038
6.32684
5.68636
5.01644
4.31569
3.58411
2.8234
2.03713
1.23085
0.411752
9.72321
9.16761
8.60597
8.03435
7.44898
6.84634
6.22327
5.57718
4.90621
4.20946
3.4872
2.74109
1.97429
1.19141
0.398306
9.71467
9.14224
8.56452
7.9781
7.37975
6.76647
6.13567
5.48528
4.81389
4.12093
3.40683
2.67315
1.92261
1.15907
0.387295
9.70736
9.12053
8.52911
7.93014
7.32087
6.69876
6.06168
5.40796
4.73654
4.04707
3.34006
2.61691
1.87997
1.13244
0.378239
9.70111
9.10201
8.49893
7.88935
7.27089
6.64145
5.99924
5.34294
4.67172
3.9854
3.28449
2.57025
1.84467
1.11044
0.370764
9.6958
9.08624
8.47327
7.8547
7.22854
6.59299
5.94659
5.28826
4.61737
3.93385
3.23817
2.53146
1.81539
1.09221
0.364576
9.69128
9.07285
8.45149
7.82534
7.1927
6.55206
5.90222
5.2423
4.57181
3.89073
3.19952
2.49915
1.79105
1.07708
0.359441
9.68745
9.06149
8.43303
7.80049
7.1624
6.51753
5.86486
5.20367
4.53359
3.85464
3.16724
2.47221
1.77078
1.06449
0.355172
9.6842
9.05188
8.41742
7.77947
7.13683
6.48841
5.8334
5.1712
4.50153
3.82442
3.14025
2.44973
1.75387
1.054
0.351616
9.68145
9.04374
8.40422
7.76173
7.11525
6.46388
5.80693
5.14393
4.47464
3.79911
3.11767
2.43093
1.73976
1.04525
0.348651
9.67913
9.03688
8.39307
7.74676
7.09705
6.44322
5.78467
5.12101
4.45207
3.7779
3.09877
2.41522
1.72797
1.03794
0.346175
9.67717
9.03108
8.38367
7.73414
7.08173
6.42583
5.76595
5.10177
4.43314
3.76012
3.08295
2.40208
1.71812
1.03183
0.344107
9.67552
9.02619
8.37575
7.72351
7.06883
6.41121
5.75022
5.08561
4.41726
3.74522
3.0697
2.39108
1.70987
1.02673
0.342378
9.67413
9.02208
8.36908
7.71456
7.05799
6.39892
5.73701
5.07205
4.40394
3.73273
3.0586
2.38187
1.70297
1.02246
0.340932
9.67296
9.01862
8.36347
7.70704
7.04887
6.38859
5.72592
5.06067
4.39277
3.72226
3.0493
2.37416
1.6972
1.01888
0.339723
9.67198
9.01571
8.35876
7.70072
7.04122
6.37993
5.71662
5.05114
4.38342
3.7135
3.04153
2.36771
1.69238
1.0159
0.338712
9.67115
9.01327
8.35481
7.69543
7.0348
6.37267
5.70883
5.04315
4.37559
3.70617
3.03502
2.36232
1.68834
1.0134
0.337868
9.67046
9.01122
8.3515
7.69099
7.02943
6.3666
5.70231
5.03648
4.36905
3.70005
3.02959
2.35782
1.68498
1.01132
0.337163
9.66989
9.00952
8.34874
7.68729
7.02495
6.36153
5.69688
5.03091
4.36359
3.69494
3.02506
2.35407
1.68217
1.00958
0.336576
9.6694
9.0081
8.34644
7.68421
7.02122
6.35731
5.69235
5.02628
4.35905
3.6907
3.0213
2.35096
1.67984
1.00814
0.336088
9.66901
9.00692
8.34453
7.68165
7.01813
6.35381
5.68861
5.02244
4.3553
3.68719
3.01818
2.34838
1.67791
1.00695
0.335685
9.66868
9.00595
8.34296
7.67955
7.01558
6.35094
5.68552
5.01929
4.35221
3.6843
3.01562
2.34626
1.67633
1.00597
0.335354
9.66841
9.00516
8.34168
7.67784
7.01351
6.3486
5.68302
5.01672
4.34969
3.68195
3.01354
2.34454
1.67504
1.00518
0.335084
9.6682
9.00452
8.34065
7.67646
7.01185
6.34672
5.681
5.01466
4.34768
3.68007
3.01187
2.34315
1.67401
1.00454
0.334868
9.66803
9.00403
8.33985
7.67539
7.01054
6.34524
5.67942
5.01304
4.34609
3.67859
3.01056
2.34207
1.67319
1.00403
0.334698
9.6679
9.00365
8.33924
7.67457
7.00956
6.34413
5.67823
5.01182
4.3449
3.67747
3.00957
2.34125
1.67258
1.00366
0.33457
9.66781
9.00338
8.33881
7.674
7.00886
6.34334
5.67739
5.01096
4.34406
3.67668
3.00887
2.34067
1.67215
1.00339
0.33448
9.66776
9.00322
8.33855
7.67364
7.00843
6.34286
5.67687
5.01043
4.34354
3.6762
3.00844
2.34032
1.67188
1.00323
0.334424
9.66773
9.00316
8.33844
7.6735
7.00826
6.34266
5.67666
5.01022
4.34333
3.676
3.00827
2.34017
1.67178
1.00316
0.334402
9.66774
9.00319
8.33849
7.67356
7.00834
6.34275
5.67675
5.01031
4.34342
3.67609
3.00835
2.34024
1.67183
1.00319
0.334412
9.66779
9.00331
8.33869
7.67384
7.00867
6.34313
5.67715
5.01072
4.34382
3.67647
3.00868
2.34051
1.67203
1.00332
0.334455
9.66786
9.00354
8.33906
7.67433
7.00927
6.3438
5.67787
5.01146
4.34454
3.67714
3.00927
2.341
1.6724
1.00354
0.334532
9.66798
9.00387
8.3396
7.67505
7.01014
6.34479
5.67893
5.01254
4.3456
3.67813
3.01015
2.34173
1.67294
1.00388
0.334645
9.66813
9.00432
8.34033
7.67603
7.01132
6.34612
5.68036
5.014
4.34704
3.67947
3.01134
2.34271
1.67368
1.00433
0.334799
9.66833
9.00491
8.34127
7.67729
7.01285
6.34784
5.68221
5.01589
4.34888
3.68119
3.01287
2.34398
1.67462
1.00492
0.334997
9.66857
9.00564
8.34245
7.67887
7.01476
6.35001
5.68453
5.01826
4.3512
3.68336
3.01479
2.34557
1.67581
1.00565
0.335245
9.66888
9.00654
8.34391
7.68082
7.01712
6.35267
5.68738
5.02119
4.35407
3.68604
3.01716
2.34753
1.67728
1.00656
0.335552
9.66925
9.00763
8.34569
7.6832
7.02
6.35593
5.69087
5.02475
4.35756
3.6893
3.02005
2.34993
1.67907
1.00767
0.335927
9.6697
9.00896
8.34784
7.68608
7.02348
6.35986
5.69509
5.02907
4.36179
3.69326
3.02356
2.35283
1.68124
1.00901
0.336381
9.67024
9.01056
8.35042
7.68954
7.02767
6.3646
5.70017
5.03427
4.36688
3.69802
3.02778
2.35632
1.68385
1.01062
0.336928
9.67089
9.01247
8.35352
7.6937
7.0327
6.37029
5.70626
5.04051
4.37299
3.70374
3.03285
2.36052
1.68699
1.01257
0.337585
9.67166
9.01476
8.35723
7.69866
7.03871
6.37708
5.71355
5.04798
4.38031
3.71058
3.03893
2.36555
1.69076
1.01489
0.338372
9.67258
9.01749
8.36165
7.70459
7.04589
6.3852
5.72227
5.05691
4.38906
3.71877
3.04619
2.37157
1.69526
1.01768
0.339315
9.67368
9.02075
8.36692
7.71165
7.05444
6.39489
5.73266
5.06756
4.39951
3.72855
3.05487
2.37876
1.70064
1.02101
0.340442
9.67499
9.02462
8.37319
7.72006
7.06463
6.40642
5.74504
5.08026
4.41197
3.74022
3.06523
2.38735
1.70707
1.02499
0.341789
9.67655
9.02922
8.38065
7.73006
7.07675
6.42015
5.75979
5.09539
4.42682
3.75415
3.0776
2.39761
1.71475
1.02974
0.343398
9.67839
9.03469
8.38951
7.74194
7.09117
6.43648
5.77735
5.11342
4.44453
3.77075
3.09236
2.40986
1.72393
1.03542
0.345322
9.68059
9.04117
8.40002
7.75606
7.10829
6.45591
5.79825
5.13489
4.46564
3.79056
3.10998
2.42449
1.73489
1.04221
0.347621
9.68318
9.04886
8.41249
7.7728
7.12863
6.47899
5.8231
5.16045
4.49079
3.81418
3.13101
2.44196
1.748
1.05033
0.350371
9.68626
9.05797
8.42727
7.79266
7.15276
6.5064
5.85265
5.19087
4.52075
3.84236
3.15612
2.46284
1.76367
1.06005
0.353663
9.6899
9.06875
8.44477
7.81619
7.18138
6.53895
5.88777
5.22708
4.55647
3.87599
3.18613
2.48782
1.78243
1.07168
0.357605
9.6942
9.08149
8.46547
7.84404
7.21529
6.57756
5.92951
5.27016
4.59904
3.91613
3.22199
2.51771
1.8049
1.08563
0.362335
9.69928
9.09653
8.48991
7.87697
7.25544
6.62335
5.97907
5.32143
4.64978
3.96407
3.2649
2.55353
1.83186
1.10238
0.368014
9.70526
9.11425
8.51874
7.91585
7.30292
6.6776
6.03791
5.38242
4.71028
4.02135
3.31627
2.59649
1.86425
1.12252
0.374848
9.71229
9.13511
8.5527
7.96171
7.35901
6.74181
6.10773
5.45497
4.78244
4.08984
3.37785
2.64809
1.90322
1.14679
0.383088
9.72054
9.1596
8.59261
8.01569
7.42517
6.81773
6.1905
5.54125
4.86851
4.17181
3.45176
2.71019
1.95022
1.17609
0.393047
9.7302
9.18828
8.63941
8.07911
7.50308
6.90739
6.28857
5.64383
4.97123
4.26998
3.54059
2.78508
2.00704
1.21159
0.405122
9.74148
9.22178
8.69416
8.15344
7.59465
7.01311
6.40464
5.76573
5.09384
4.38769
3.64756
2.8756
2.07595
1.25474
0.419817
9.75459
9.26078
8.75799
8.24032
7.70199
7.13752
6.54183
5.91053
5.24024
4.52898
3.77664
2.98534
2.15982
1.30741
0.437782
9.76979
9.30601
8.83215
8.34152
7.82749
7.28361
6.70374
6.08239
5.41507
4.6988
3.93274
3.11885
2.26236
1.37204
0.459868
9.78732
9.35823
8.91796
8.45897
7.97372
7.45466
6.89445
6.28618
5.62388
4.90317
4.12206
3.28193
2.38839
1.45184
0.487204
9.80743
9.41823
9.01675
8.59465
8.14341
7.65429
7.11851
6.52746
5.87325
5.14948
4.35235
3.48208
2.54428
1.55112
0.521326
9.83038
9.48674
9.12984
8.75056
8.33938
7.88631
7.38093
6.81258
6.1709
5.4467
4.63343
3.7291
2.73861
1.67585
0.564375
9.85636
9.56445
9.25847
8.92862
8.56443
8.15465
7.68705
7.1486
6.52582
5.80577
4.97773
4.03593
2.98312
1.8344
0.619417
9.88557
9.65192
9.40367
9.13049
8.82114
8.46311
8.04236
7.54316
6.94828
6.23981
5.40101
4.41983
3.29423
2.03895
0.691019
9.91812
9.74952
9.56617
9.35747
9.11162
8.8151
8.45211
8.00413
7.44959
6.76431
5.92315
4.904
3.69536
2.30782
0.786306
9.95402
9.85735
9.74626
9.61022
9.43726
9.21321
8.92087
8.53906
8.04165
7.39704
6.56886
5.51972
4.22072
2.66973
0.917068
9.99319
9.97518
9.94365
9.8886
9.79836
9.65871
9.45172
9.15423
8.73589
8.1572
7.36797
6.30892
4.92104
3.17166
1.1044
10.0354
10.1024
10.1574
10.1914
10.1937
10.1509
10.0454
9.85326
9.54145
9.06351
8.35442
7.32643
5.87236
3.8943
1.39003
10.0803
10.2379
10.3856
10.5162
10.6204
10.6867
10.6991
10.6353
10.4623
10.1303
9.56226
8.63976
7.18751
4.98234
1.86717
10.1275
10.3801
10.6258
10.8591
11.0734
11.2598
11.4058
11.4932
11.4936
11.3608
11.0162
10.3209
9.02545
6.70227
2.77428
10.1761
10.5272
10.8746
11.2153
11.5457
11.8608
12.1531
12.4114
12.6173
12.7383
12.7136
12.4187
11.577
9.53658
4.80677
10.2256
10.6769
11.1279
11.5786
12.0287
12.4775
12.924
13.366
13.7998
14.2169
14.5986
14.8962
14.9608
14.2384
10.2307
10.2752
10.8266
11.3815
11.9424
12.5125
13.0958
13.6978
14.3263
14.9937
15.7199
16.5417
17.5353
18.8911
21.2216
27.0807
10.3239
10.9739
11.6308
12.2997
12.987
13.701
14.453
15.2596
16.1465
17.1564
18.3655
19.9226
22.1444
25.754
32.3668
10.3711
11.1164
11.8716
12.6442
13.443
14.2798
15.1703
16.137
17.2139
18.4544
19.9475
21.848
24.4338
28.2005
33.9544
0.5916
1.0599
1.2639
1.33951
1.34045
1.29316
1.21269
1.10852
0.986995
0.852609
0.708666
0.55769
0.401684
0.242303
0.0809793
0.317319
0.726281
0.955753
1.06888
1.10588
1.09104
1.03955
0.961443
0.86361
0.751025
0.627395
0.49559
0.357907
0.216265
0.0723373
0.199753
0.517295
0.728393
0.851097
0.907293
0.914347
0.884899
0.828052
0.750461
0.657102
0.551797
0.437567
0.316876
0.191811
0.0642134
0.139107
0.382224
0.562411
0.679497
0.742826
0.762999
0.74926
0.709058
0.648253
0.571468
0.482391
0.384025
0.278879
0.169114
0.0566649
0.102831
0.29085
0.440242
0.545222
0.608321
0.635191
0.631993
0.604363
0.557137
0.494365
0.419431
0.335188
0.244086
0.148279
0.0497274
0.0788048
0.226298
0.348911
0.440024
0.498969
0.528259
0.531685
0.513271
0.476811
0.425703
0.362932
0.291111
0.212556
0.12935
0.0434164
0.0618037
0.179021
0.279452
0.357162
0.410204
0.439284
0.446538
0.434706
0.406653
0.365137
0.312712
0.251709
0.184255
0.112314
0.0377292
0.0492396
0.143399
0.225769
0.291426
0.338075
0.365461
0.374642
0.3674
0.345839
0.312143
0.268446
0.216783
0.159068
0.0971132
0.0326481
0.0396754
0.115961
0.18369
0.238887
0.279321
0.304276
0.314146
0.310034
0.293449
0.266089
0.229711
0.186057
0.136824
0.0836544
0.0281437
0.032239
0.0944657
0.150312
0.196597
0.231313
0.253565
0.263356
0.261327
0.248539
0.226296
0.196025
0.159203
0.117312
0.0718205
0.0241785
0.0263658
0.0773995
0.123573
0.162339
0.191958
0.211506
0.22077
0.220089
0.210193
0.192076
0.166888
0.135868
0.100299
0.0614793
0.0207096
0.0216715
0.0637077
0.101977
0.134432
0.159594
0.176586
0.18509
0.185247
0.177554
0.162763
0.141798
0.115691
0.0855432
0.0524914
0.0176916
0.0178843
0.0526311
0.0844168
0.111589
0.132902
0.147559
0.155203
0.155854
0.149843
0.137737
0.120276
0.0983187
0.0728029
0.0447169
0.0150787
0.0148065
0.0436103
0.0700597
0.0928141
0.110829
0.123402
0.130171
0.131086
0.126362
0.116428
0.101876
0.0834167
0.0618468
0.03802
0.0128259
0.0122905
0.036224
0.0582679
0.0773291
0.0925353
0.103274
0.109203
0.110232
0.106499
0.098326
0.0861881
0.0706739
0.0524573
0.0322721
0.010891
0.010224
0.0301495
0.0485467
0.0645205
0.0773426
0.0864855
0.0916352
0.0926848
0.0897167
0.0829763
0.0728439
0.059807
0.0444344
0.0273542
0.00923443
0.0085202
0.0251361
0.0405079
0.0538999
0.064704
0.0724692
0.0769141
0.0779267
0.0755535
0.0699812
0.061516
0.0505614
0.0375968
0.0231582
0.00782014
0.0071111
0.0209864
0.0338436
0.0450757
0.0541752
0.0607579
0.0645756
0.0655191
0.063611
0.0589943
0.0519163
0.0427111
0.0317824
0.0195864
0.00661566
0.00594281
0.0175436
0.0283074
0.0377321
0.0453937
0.0509659
0.0542326
0.055091
0.0535489
0.0497161
0.0437932
0.0360572
0.0268478
0.0165524
0.00559209
0.00497222
0.0146819
0.0237008
0.0316126
0.0380626
0.0427746
0.0455614
0.0463294
0.0450769
0.0418889
0.0369287
0.0304262
0.0226672
0.01398
0.00472391
0.00416463
0.0122997
0.0198628
0.0265079
0.031938
0.0359196
0.0382918
0.0389704
0.0379484
0.0352921
0.0311347
0.0256675
0.0191308
0.0118027
0.0039888
0.00349188
0.0103145
0.0166622
0.0222466
0.026819
0.030182
0.0321978
0.032792
0.0319545
0.0297375
0.0262499
0.0216513
0.0161437
0.00996247
0.00336735
0.00293101
0.00865892
0.0139915
0.0186879
0.0225395
0.0253798
0.0270907
0.0276074
0.0269184
0.0250648
0.0221364
0.0182662
0.0136242
0.00840961
0.00284281
0.00246323
0.00727782
0.0117624
0.0157156
0.0189622
0.0213614
0.0228128
0.0232597
0.0226907
0.0211383
0.0186766
0.0154169
0.0115023
0.00710123
0.00240076
0.00207311
0.00612577
0.00990234
0.0132339
0.0159731
0.018001
0.0192321
0.0196174
0.0191456
0.017843
0.0157708
0.0130223
0.00971807
0.0060007
0.00202887
0.00174796
0.00516539
0.00835118
0.0111633
0.0134778
0.0151938
0.0162387
0.01657
0.0161774
0.0150818
0.0133344
0.0110135
0.00822065
0.0050768
0.00171662
0.00147729
0.00436582
0.0070594
0.00943834
0.0113978
0.0128526
0.0137405
0.0140252
0.0136971
0.0127732
0.0112963
0.00933217
0.00696693
0.00430306
0.00145509
0.00125246
0.0037016
0.00598603
0.00800453
0.00966828
0.0109048
0.0116611
0.0119059
0.0116304
0.0108486
0.00959636
0.00792932
0.00592053
0.00365714
0.00123673
0.00106635
0.00315172
0.00509727
0.006817
0.00823532
0.00929041
0.00993691
0.0101477
0.00991511
0.00925059
0.00818436