/*--------------------------------*- C++ -*----------------------------------*\
| =========                 |                                                 |
| \\      /  F ield         | OpenFOAM: The Open Source CFD Toolbox           |
|  \\    /   O peration     | Version:  5.x                                   |
|   \\  /    A nd           | Web:      www.OpenFOAM.org                      |
|    \\/     M anipulation  |                                                 |
\*---------------------------------------------------------------------------*/
FoamFile
{
    version     2.0;
    format      ascii;
    class       volScalarField;
    location    "3.2";
    object      gradTx;
}
// * * * * * * * * * * * * * * * * * * * * * * * * * * * * * * * * * * * * * //

dimensions      [0 -1 0 1 0 0 0];

internalField   nonuniform List<scalar> 
3200
(
1.84929e-07
-1.46865e-08
-2.21507e-08
-2.23741e-08
-1.87307e-08
-1.8283e-08
-1.29198e-08
-1.24887e-08
-9.05928e-09
-1.37914e-08
-6.31774e-09
-4.46069e-09
-4.2754e-09
-3.22685e-09
-3.13138e-09
-2.39753e-09
-2.33107e-09
-1.79812e-09
-1.74958e-09
-1.35517e-09
-1.31908e-09
-1.02378e-09
-9.96692e-10
-7.74001e-10
-7.53539e-10
-5.8489e-10
-5.6938e-10
-4.4137e-10
-4.29594e-10
-3.32349e-10
-3.23404e-10
-2.49543e-10
-2.42752e-10
-1.86706e-10
-1.81556e-10
-1.39094e-10
-1.35196e-10
-1.03093e-10
-1.00149e-10
-7.59416e-11
-7.37247e-11
-5.55287e-11
-5.3865e-11
-4.02412e-11
-3.89982e-11
-2.88479e-11
-2.79268e-11
-2.04223e-11
-1.97942e-11
-1.46298e-11
-2.21088e-11
-9.97922e-12
-6.57284e-12
-6.23528e-12
-4.20384e-12
-4.02214e-12
-2.6449e-12
-2.52484e-12
-1.61344e-12
-1.53514e-12
-9.53084e-13
-9.03753e-13
-5.45768e-13
-5.15801e-13
-3.03431e-13
-2.85839e-13
-1.63831e-13
-1.53809e-13
-8.55595e-14
-7.99853e-14
-4.25711e-14
-3.94525e-14
-1.77404e-14
-1.59824e-14
-4.23388e-15
-3.44191e-15
-2.24169e-16
-4.10963e-17
-9.30214e-18
2.12833e-15
1.84071e-07
-1.47697e-08
-2.13255e-08
-2.18607e-08
-1.88969e-08
-1.78784e-08
-1.33358e-08
-1.23595e-08
-9.69143e-09
-1.2726e-08
-6.75212e-09
-4.69977e-09
-4.24531e-09
-3.31366e-09
-3.0909e-09
-2.45409e-09
-2.30006e-09
-1.83873e-09
-1.72632e-09
-1.38508e-09
-1.30155e-09
-1.04613e-09
-9.8341e-10
-7.90825e-10
-7.43456e-10
-5.9762e-10
-5.61716e-10
-4.51029e-10
-4.23769e-10
-3.39686e-10
-3.1898e-10
-2.55117e-10
-2.39397e-10
-1.90937e-10
-1.79017e-10
-1.42302e-10
-1.33278e-10
-1.0552e-10
-9.87052e-11
-7.77731e-11
-7.26411e-11
-5.69068e-11
-5.30556e-11
-4.12745e-11
-3.83972e-11
-2.96207e-11
-2.749e-11
-2.10239e-11
-1.9596e-11
-1.55963e-11
-2.03839e-11
-1.0649e-11
-6.9876e-12
-6.16542e-12
-4.37068e-12
-3.94739e-12
-2.75312e-12
-2.4749e-12
-1.68539e-12
-1.50398e-12
-9.99462e-13
-8.85126e-13
-5.74558e-13
-5.05073e-13
-3.20654e-13
-2.79847e-13
-1.73797e-13
-1.5054e-13
-9.11643e-14
-7.82225e-14
-4.56255e-14
-3.83855e-14
-1.95246e-14
-1.54483e-14
-5.27138e-15
-3.43077e-15
-5.51111e-16
-1.17233e-16
-2.69367e-17
2.12254e-15
1.83367e-07
-1.47465e-08
-2.0741e-08
-2.14871e-08
-1.89852e-08
-1.76147e-08
-1.3609e-08
-1.22978e-08
-1.00954e-08
-1.20208e-08
-7.02958e-09
-4.87489e-09
-4.23427e-09
-3.37208e-09
-3.06696e-09
-2.49131e-09
-2.28133e-09
-1.86536e-09
-1.7122e-09
-1.40468e-09
-1.29087e-09
-1.06075e-09
-9.75316e-10
-8.01834e-10
-7.37305e-10
-6.05948e-10
-5.5704e-10
-4.57347e-10
-4.20214e-10
-3.44486e-10
-3.1628e-10
-2.58764e-10
-2.3735e-10
-1.93705e-10
-1.77467e-10
-1.444e-10
-1.32109e-10
-1.07108e-10
-9.7825e-11
-7.89719e-11
-7.19811e-11
-5.78091e-11
-5.25629e-11
-4.19513e-11
-3.80318e-11
-3.01273e-11
-2.72265e-11
-2.14238e-11
-1.95005e-11
-1.62111e-11
-1.92397e-11
-1.10758e-11
-7.28872e-12
-6.13441e-12
-4.48262e-12
-3.90345e-12
-2.82467e-12
-2.44538e-12
-1.73301e-12
-1.48573e-12
-1.03022e-12
-8.74341e-13
-5.93699e-13
-4.98938e-13
-3.3213e-13
-2.76463e-13
-1.80449e-13
-1.48714e-13
-9.49108e-14
-7.72453e-14
-4.76652e-14
-3.7783e-14
-2.07172e-14
-1.51582e-14
-5.97533e-15
-3.46114e-15
-7.80192e-16
-1.79612e-16
-4.18343e-17
2.11762e-15
1.82872e-07
-1.46944e-08
-2.03662e-08
-2.12432e-08
-1.90281e-08
-1.74561e-08
-1.37743e-08
-1.22717e-08
-1.03341e-08
-1.15923e-08
-7.19349e-09
-4.98937e-09
-4.23203e-09
-3.40817e-09
-3.0538e-09
-2.51388e-09
-2.27081e-09
-1.88146e-09
-1.70423e-09
-1.41652e-09
-1.28483e-09
-1.06958e-09
-9.70731e-10
-8.08475e-10
-7.33819e-10
-6.10971e-10
-5.54388e-10
-4.61157e-10
-4.18198e-10
-3.4738e-10
-3.14749e-10
-2.60962e-10
-2.36189e-10
-1.95375e-10
-1.76589e-10
-1.45666e-10
-1.31446e-10
-1.08066e-10
-9.73265e-11
-7.96952e-11
-7.16075e-11
-5.83537e-11
-5.22842e-11
-4.23598e-11
-3.78253e-11
-3.04335e-11
-2.70786e-11
-2.16682e-11
-1.94594e-11
-1.65731e-11
-1.85431e-11
-1.13274e-11
-7.48441e-12
-6.12321e-12
-4.55159e-12
-3.87944e-12
-2.8682e-12
-2.42916e-12
-1.76199e-12
-1.47578e-12
-1.04899e-12
-8.68535e-13
-6.05396e-13
-4.95678e-13
-3.39155e-13
-2.74688e-13
-1.84528e-13
-1.47768e-13
-9.72103e-14
-7.67435e-14
-4.89162e-14
-3.74673e-14
-2.14491e-14
-1.50127e-14
-6.41239e-15
-3.49809e-15
-9.26014e-16
-2.23458e-16
-5.25797e-17
2.11405e-15
1.82618e-07
-1.46582e-08
-2.01831e-08
-2.11228e-08
-1.9045e-08
-1.73818e-08
-1.38521e-08
-1.22628e-08
-1.04448e-08
-1.13898e-08
-7.26949e-09
-5.04588e-09
-4.23237e-09
-3.42541e-09
-3.04801e-09
-2.52453e-09
-2.2661e-09
-1.88904e-09
-1.70065e-09
-1.42209e-09
-1.28212e-09
-1.07373e-09
-9.68668e-10
-8.11599e-10
-7.32249e-10
-6.13333e-10
-5.53193e-10
-4.62949e-10
-4.1729e-10
-3.48741e-10
-3.14059e-10
-2.61996e-10
-2.35666e-10
-1.9616e-10
-1.76194e-10
-1.46262e-10
-1.31148e-10
-1.08517e-10
-9.71021e-11
-8.00355e-11
-7.14394e-11
-5.86099e-11
-5.21589e-11
-4.25521e-11
-3.77326e-11
-3.05776e-11
-2.70126e-11
-2.17842e-11
-1.94452e-11
-1.67405e-11
-1.82136e-11
-1.14439e-11
-7.58068e-12
-6.12031e-12
-4.58449e-12
-3.86893e-12
-2.88879e-12
-2.42202e-12
-1.77571e-12
-1.47144e-12
-1.05787e-12
-8.66022e-13
-6.10944e-13
-4.94282e-13
-3.42491e-13
-2.73937e-13
-1.86467e-13
-1.47372e-13
-9.83043e-14
-7.65348e-14
-4.95111e-14
-3.73337e-14
-2.17973e-14
-1.49535e-14
-6.62183e-15
-3.52125e-15
-9.97e-16
-2.46011e-16
-5.81983e-17
2.11217e-15
1.82618e-07
-1.46583e-08
-2.01831e-08
-2.11228e-08
-1.9045e-08
-1.73818e-08
-1.38521e-08
-1.22628e-08
-1.04448e-08
-1.13898e-08
-7.26949e-09
-5.04587e-09
-4.23237e-09
-3.42541e-09
-3.04801e-09
-2.52453e-09
-2.2661e-09
-1.88904e-09
-1.70065e-09
-1.42209e-09
-1.28212e-09
-1.07373e-09
-9.68668e-10
-8.11599e-10
-7.32249e-10
-6.13333e-10
-5.53194e-10
-4.62949e-10
-4.1729e-10
-3.48741e-10
-3.14059e-10
-2.61996e-10
-2.35666e-10
-1.9616e-10
-1.76194e-10
-1.46262e-10
-1.31148e-10
-1.08517e-10
-9.71021e-11
-8.00355e-11
-7.14394e-11
-5.86099e-11
-5.21589e-11
-4.25521e-11
-3.77326e-11
-3.05776e-11
-2.70126e-11
-2.17842e-11
-1.94452e-11
-1.67405e-11
-1.82136e-11
-1.14439e-11
-7.58068e-12
-6.12031e-12
-4.58449e-12
-3.86893e-12
-2.88879e-12
-2.42202e-12
-1.77571e-12
-1.47144e-12
-1.05787e-12
-8.66022e-13
-6.10944e-13
-4.94282e-13
-3.42491e-13
-2.73937e-13
-1.86467e-13
-1.47372e-13
-9.83042e-14
-7.65348e-14
-4.95111e-14
-3.73336e-14
-2.17973e-14
-1.49535e-14
-6.62182e-15
-3.52124e-15
-9.96995e-16
-2.46008e-16
-5.81956e-17
2.11217e-15
1.82872e-07
-1.46947e-08
-2.03663e-08
-2.12432e-08
-1.90281e-08
-1.74562e-08
-1.37743e-08
-1.22717e-08
-1.03341e-08
-1.15923e-08
-7.19349e-09
-4.98936e-09
-4.23203e-09
-3.40816e-09
-3.0538e-09
-2.51388e-09
-2.27081e-09
-1.88146e-09
-1.70423e-09
-1.41652e-09
-1.28483e-09
-1.06958e-09
-9.70732e-10
-8.08475e-10
-7.33819e-10
-6.10971e-10
-5.54388e-10
-4.61157e-10
-4.18198e-10
-3.4738e-10
-3.14749e-10
-2.60962e-10
-2.36189e-10
-1.95375e-10
-1.76589e-10
-1.45666e-10
-1.31446e-10
-1.08066e-10
-9.73265e-11
-7.96952e-11
-7.16075e-11
-5.83537e-11
-5.22842e-11
-4.23598e-11
-3.78253e-11
-3.04335e-11
-2.70786e-11
-2.16682e-11
-1.94594e-11
-1.65731e-11
-1.8543e-11
-1.13274e-11
-7.4844e-12
-6.1232e-12
-4.55159e-12
-3.87944e-12
-2.8682e-12
-2.42916e-12
-1.76199e-12
-1.47578e-12
-1.04898e-12
-8.68534e-13
-6.05395e-13
-4.95678e-13
-3.39154e-13
-2.74688e-13
-1.84528e-13
-1.47768e-13
-9.72102e-14
-7.67434e-14
-4.89162e-14
-3.74672e-14
-2.1449e-14
-1.50127e-14
-6.41236e-15
-3.49807e-15
-9.26001e-16
-2.2345e-16
-5.25724e-17
2.11405e-15
1.83367e-07
-1.47469e-08
-2.0741e-08
-2.14871e-08
-1.89852e-08
-1.76147e-08
-1.3609e-08
-1.22978e-08
-1.00954e-08
-1.20208e-08
-7.02958e-09
-4.87488e-09
-4.23427e-09
-3.37208e-09
-3.06696e-09
-2.49131e-09
-2.28133e-09
-1.86536e-09
-1.7122e-09
-1.40468e-09
-1.29087e-09
-1.06075e-09
-9.75316e-10
-8.01835e-10
-7.37306e-10
-6.05949e-10
-5.5704e-10
-4.57347e-10
-4.20214e-10
-3.44486e-10
-3.1628e-10
-2.58764e-10
-2.3735e-10
-1.93706e-10
-1.77467e-10
-1.44401e-10
-1.32109e-10
-1.07108e-10
-9.7825e-11
-7.89719e-11
-7.19811e-11
-5.78091e-11
-5.25629e-11
-4.19513e-11
-3.80318e-11
-3.01273e-11
-2.72265e-11
-2.14238e-11
-1.95005e-11
-1.62111e-11
-1.92397e-11
-1.10758e-11
-7.28871e-12
-6.1344e-12
-4.48262e-12
-3.90345e-12
-2.82467e-12
-2.44538e-12
-1.73301e-12
-1.48572e-12
-1.03022e-12
-8.7434e-13
-5.93698e-13
-4.98937e-13
-3.32129e-13
-2.76462e-13
-1.80449e-13
-1.48714e-13
-9.49106e-14
-7.72452e-14
-4.76651e-14
-3.77829e-14
-2.07171e-14
-1.51581e-14
-5.9753e-15
-3.46111e-15
-7.80175e-16
-1.79602e-16
-4.18247e-17
2.11762e-15
1.84071e-07
-1.477e-08
-2.13255e-08
-2.18607e-08
-1.88969e-08
-1.78784e-08
-1.33358e-08
-1.23595e-08
-9.69143e-09
-1.2726e-08
-6.75212e-09
-4.69977e-09
-4.24531e-09
-3.31366e-09
-3.0909e-09
-2.45409e-09
-2.30006e-09
-1.83873e-09
-1.72632e-09
-1.38508e-09
-1.30155e-09
-1.04613e-09
-9.83411e-10
-7.90826e-10
-7.43456e-10
-5.9762e-10
-5.61716e-10
-4.51029e-10
-4.23769e-10
-3.39686e-10
-3.1898e-10
-2.55117e-10
-2.39397e-10
-1.90937e-10
-1.79017e-10
-1.42302e-10
-1.33278e-10
-1.0552e-10
-9.87052e-11
-7.77731e-11
-7.26411e-11
-5.69068e-11
-5.30556e-11
-4.12745e-11
-3.83972e-11
-2.96207e-11
-2.74901e-11
-2.10239e-11
-1.9596e-11
-1.55963e-11
-2.03839e-11
-1.0649e-11
-6.9876e-12
-6.16541e-12
-4.37068e-12
-3.94739e-12
-2.75312e-12
-2.4749e-12
-1.68539e-12
-1.50398e-12
-9.99461e-13
-8.85125e-13
-5.74558e-13
-5.05072e-13
-3.20654e-13
-2.79847e-13
-1.73797e-13
-1.5054e-13
-9.11641e-14
-7.82224e-14
-4.56255e-14
-3.83855e-14
-1.95246e-14
-1.54483e-14
-5.27135e-15
-3.43075e-15
-5.51097e-16
-1.17224e-16
-2.69283e-17
2.12254e-15
1.8493e-07
-1.46867e-08
-2.21507e-08
-2.23741e-08
-1.87307e-08
-1.8283e-08
-1.29198e-08
-1.24887e-08
-9.05928e-09
-1.37914e-08
-6.31774e-09
-4.46069e-09
-4.2754e-09
-3.22685e-09
-3.13138e-09
-2.39753e-09
-2.33107e-09
-1.79812e-09
-1.74958e-09
-1.35517e-09
-1.31909e-09
-1.02378e-09
-9.96693e-10
-7.74002e-10
-7.53539e-10
-5.8489e-10
-5.6938e-10
-4.4137e-10
-4.29594e-10
-3.32349e-10
-3.23404e-10
-2.49543e-10
-2.42752e-10
-1.86706e-10
-1.81556e-10
-1.39094e-10
-1.35196e-10
-1.03093e-10
-1.00149e-10
-7.59416e-11
-7.37247e-11
-5.55287e-11
-5.3865e-11
-4.02412e-11
-3.89982e-11
-2.88479e-11
-2.79269e-11
-2.04223e-11
-1.97942e-11
-1.46298e-11
-2.21088e-11
-9.97922e-12
-6.57284e-12
-6.23528e-12
-4.20384e-12
-4.02214e-12
-2.6449e-12
-2.52484e-12
-1.61344e-12
-1.53514e-12
-9.53083e-13
-9.03753e-13
-5.45768e-13
-5.15801e-13
-3.03431e-13
-2.85839e-13
-1.63831e-13
-1.53809e-13
-8.55594e-14
-7.99853e-14
-4.25711e-14
-3.94525e-14
-1.77404e-14
-1.59824e-14
-4.23387e-15
-3.4419e-15
-2.24164e-16
-4.10929e-17
-9.29859e-18
2.12833e-15
9.29075e-05
-8.27157e-05
-6.55109e-06
-2.79475e-06
-4.46683e-07
-2.20452e-07
-4.36001e-08
-2.58428e-08
-1.19497e-08
-1.69629e-08
-8.1923e-09
-6.70242e-09
-6.52566e-09
-5.58511e-09
-5.48911e-09
-4.64752e-09
-4.56483e-09
-3.82348e-09
-3.7517e-09
-3.11675e-09
-3.05585e-09
-2.52347e-09
-2.47274e-09
-2.03307e-09
-1.99137e-09
-1.63213e-09
-1.59816e-09
-1.30685e-09
-1.27936e-09
-1.04438e-09
-1.02225e-09
-8.33417e-10
-8.15651e-10
-6.64309e-10
-6.50081e-10
-5.29019e-10
-5.17644e-10
-4.20943e-10
-4.11862e-10
-3.34713e-10
-3.27471e-10
-2.65991e-10
-2.60223e-10
-2.11291e-10
-2.06705e-10
-1.67824e-10
-1.64206e-10
-1.33465e-10
-1.31054e-10
-1.09792e-10
-1.77846e-10
-8.74912e-11
-6.83203e-11
-6.6296e-11
-5.4285e-11
-5.31487e-11
-4.38771e-11
-4.30158e-11
-3.5828e-11
-3.5163e-11
-2.96242e-11
-2.91132e-11
-2.48745e-11
-2.44828e-11
-2.12381e-11
-2.09197e-11
-1.80983e-11
-1.7789e-11
-1.46986e-11
-1.43664e-11
-1.10664e-11
-1.07503e-11
-8.02668e-12
-7.66246e-12
-3.3721e-12
-3.00761e-12
-1.83366e-13
-3.26878e-14
-7.36658e-15
-5.32053e-13
9.09097e-05
-7.29877e-05
-1.24435e-05
-4.01452e-06
-9.15904e-07
-3.20113e-07
-8.09488e-08
-3.38875e-08
-1.53625e-08
-1.631e-08
-8.88541e-09
-6.95449e-09
-6.50729e-09
-5.66092e-09
-5.43654e-09
-4.70852e-09
-4.51715e-09
-3.87731e-09
-3.71128e-09
-3.16317e-09
-3.02229e-09
-2.56259e-09
-2.44523e-09
-2.0655e-09
-1.96901e-09
-1.65869e-09
-1.5801e-09
-1.32843e-09
-1.26483e-09
-1.06181e-09
-1.01059e-09
-8.47437e-10
-8.06324e-10
-6.75553e-10
-6.42628e-10
-5.38017e-10
-5.11695e-10
-4.28134e-10
-4.07119e-10
-3.40451e-10
-3.23693e-10
-2.70566e-10
-2.57219e-10
-2.14935e-10
-2.04323e-10
-1.70736e-10
-1.62377e-10
-1.36025e-10
-1.3068e-10
-1.1645e-10
-1.63692e-10
-9.27982e-11
-7.08968e-11
-6.59094e-11
-5.52538e-11
-5.26052e-11
-4.45765e-11
-4.25819e-11
-3.63685e-11
-3.48292e-11
-3.00415e-11
-2.88587e-11
-2.51937e-11
-2.42865e-11
-2.14746e-11
-2.07367e-11
-1.82884e-11
-1.75722e-11
-1.49059e-11
-1.41385e-11
-1.1303e-11
-1.05705e-11
-8.18365e-12
-7.3424e-12
-3.69426e-12
-2.85619e-12
-4.43151e-13
-9.30462e-14
-2.13263e-14
-5.36733e-13
8.92749e-05
-6.60445e-05
-1.62513e-05
-5.02102e-06
-1.28498e-06
-4.05493e-07
-1.10606e-07
-4.0788e-08
-1.79954e-08
-1.59915e-08
-9.3586e-09
-7.14713e-09
-6.50484e-09
-5.7118e-09
-5.40408e-09
-4.74801e-09
-4.48738e-09
-3.91215e-09
-3.68612e-09
-3.19327e-09
-3.00147e-09
-2.58801e-09
-2.4282e-09
-2.08659e-09
-1.95519e-09
-1.67598e-09
-1.56895e-09
-1.34248e-09
-1.25587e-09
-1.07316e-09
-1.00341e-09
-8.56569e-10
-8.00577e-10
-6.82878e-10
-6.38037e-10
-5.4388e-10
-5.08031e-10
-4.32819e-10
-4.04198e-10
-3.44191e-10
-3.21368e-10
-2.73548e-10
-2.5537e-10
-2.1731e-10
-2.02858e-10
-1.72636e-10
-1.61267e-10
-1.37744e-10
-1.3066e-10
-1.20649e-10
-1.54263e-10
-9.61447e-11
-7.27962e-11
-6.5749e-11
-5.59019e-11
-5.22764e-11
-4.50341e-11
-4.23165e-11
-3.67218e-11
-3.46251e-11
-3.03143e-11
-2.87032e-11
-2.54024e-11
-2.41663e-11
-2.1628e-11
-2.0622e-11
-1.8409e-11
-1.74333e-11
-1.50372e-11
-1.39933e-11
-1.14553e-11
-1.04567e-11
-8.27872e-12
-7.13457e-12
-3.90397e-12
-2.76775e-12
-6.20403e-13
-1.42261e-13
-3.31102e-14
-5.4071e-13
8.81273e-05
-6.15805e-05
-1.85165e-05
-5.72766e-06
-1.53975e-06
-4.67465e-07
-1.31251e-07
-4.58033e-08
-1.97951e-08
-1.58576e-08
-9.65468e-09
-7.27686e-09
-6.50832e-09
-5.74319e-09
-5.38548e-09
-4.77162e-09
-4.47013e-09
-3.93299e-09
-3.67158e-09
-3.2113e-09
-2.98947e-09
-2.60324e-09
-2.41841e-09
-2.09924e-09
-1.94726e-09
-1.68635e-09
-1.56256e-09
-1.35091e-09
-1.25074e-09
-1.07998e-09
-9.99299e-10
-8.62056e-10
-7.97288e-10
-6.8728e-10
-6.3541e-10
-5.47404e-10
-5.05936e-10
-4.35635e-10
-4.02528e-10
-3.46439e-10
-3.20039e-10
-2.7534e-10
-2.54313e-10
-2.18738e-10
-2.02021e-10
-1.73781e-10
-1.60641e-10
-1.38804e-10
-1.30755e-10
-1.23101e-10
-1.48502e-10
-9.80992e-11
-7.40424e-11
-6.56997e-11
-5.63003e-11
-5.20918e-11
-4.53102e-11
-4.21656e-11
-3.69346e-11
-3.45091e-11
-3.04788e-11
-2.86149e-11
-2.55282e-11
-2.40978e-11
-2.17199e-11
-2.05553e-11
-1.848e-11
-1.7351e-11
-1.51141e-11
-1.39076e-11
-1.1546e-11
-1.039e-11
-8.33235e-12
-7.01012e-12
-4.02985e-12
-2.71971e-12
-7.30864e-13
-1.76703e-13
-4.16031e-14
-5.43596e-13
8.75376e-05
-5.93973e-05
-1.95705e-05
-6.09017e-06
-1.66983e-06
-4.99965e-07
-1.41851e-07
-4.84358e-08
-2.07101e-08
-1.58135e-08
-9.79743e-09
-7.34204e-09
-6.51154e-09
-5.75819e-09
-5.37705e-09
-4.78267e-09
-4.46225e-09
-3.94273e-09
-3.66495e-09
-3.21974e-09
-2.98401e-09
-2.61037e-09
-2.41396e-09
-2.10517e-09
-1.94366e-09
-1.69122e-09
-1.55966e-09
-1.35487e-09
-1.24841e-09
-1.08318e-09
-9.97434e-10
-8.6463e-10
-7.95797e-10
-6.89345e-10
-6.3422e-10
-5.49058e-10
-5.04987e-10
-4.36957e-10
-4.01772e-10
-3.47494e-10
-3.19436e-10
-2.76181e-10
-2.53834e-10
-2.19409e-10
-2.01643e-10
-1.74319e-10
-1.6036e-10
-1.39309e-10
-1.30832e-10
-1.24229e-10
-1.45772e-10
-9.89983e-11
-7.46588e-11
-6.56916e-11
-5.64902e-11
-5.20092e-11
-4.54401e-11
-4.20975e-11
-3.70347e-11
-3.44568e-11
-3.05561e-11
-2.85752e-11
-2.55874e-11
-2.40669e-11
-2.17629e-11
-2.05247e-11
-1.85128e-11
-1.73128e-11
-1.51496e-11
-1.38679e-11
-1.15882e-11
-1.03593e-11
-8.35642e-12
-6.95189e-12
-4.08884e-12
-2.69877e-12
-7.83907e-13
-1.94368e-13
-4.6042e-14
-5.45111e-13
8.75376e-05
-5.93973e-05
-1.95705e-05
-6.09016e-06
-1.66982e-06
-4.99962e-07
-1.4185e-07
-4.84351e-08
-2.07099e-08
-1.58134e-08
-9.7974e-09
-7.34203e-09
-6.51153e-09
-5.75819e-09
-5.37705e-09
-4.78267e-09
-4.46225e-09
-3.94273e-09
-3.66495e-09
-3.21974e-09
-2.98401e-09
-2.61037e-09
-2.41396e-09
-2.10517e-09
-1.94366e-09
-1.69122e-09
-1.55966e-09
-1.35487e-09
-1.24841e-09
-1.08318e-09
-9.97434e-10
-8.64631e-10
-7.95797e-10
-6.89345e-10
-6.3422e-10
-5.49058e-10
-5.04987e-10
-4.36957e-10
-4.01772e-10
-3.47494e-10
-3.19436e-10
-2.76181e-10
-2.53834e-10
-2.19409e-10
-2.01643e-10
-1.74319e-10
-1.6036e-10
-1.39309e-10
-1.30832e-10
-1.24229e-10
-1.45772e-10
-9.89983e-11
-7.46588e-11
-6.56916e-11
-5.64902e-11
-5.20092e-11
-4.54401e-11
-4.20975e-11
-3.70347e-11
-3.44568e-11
-3.05561e-11
-2.85752e-11
-2.55874e-11
-2.40669e-11
-2.17629e-11
-2.05247e-11
-1.85128e-11
-1.73128e-11
-1.51496e-11
-1.38679e-11
-1.15882e-11
-1.03593e-11
-8.35642e-12
-6.95189e-12
-4.08884e-12
-2.69877e-12
-7.83905e-13
-1.94366e-13
-4.60416e-14
-5.4511e-13
8.81273e-05
-6.15806e-05
-1.85165e-05
-5.72765e-06
-1.53973e-06
-4.67458e-07
-1.31247e-07
-4.58015e-08
-1.97945e-08
-1.58573e-08
-9.65461e-09
-7.27684e-09
-6.50831e-09
-5.74319e-09
-5.38549e-09
-4.77163e-09
-4.47014e-09
-3.93299e-09
-3.67159e-09
-3.2113e-09
-2.98947e-09
-2.60324e-09
-2.41841e-09
-2.09924e-09
-1.94726e-09
-1.68636e-09
-1.56256e-09
-1.35091e-09
-1.25074e-09
-1.07998e-09
-9.99299e-10
-8.62057e-10
-7.97289e-10
-6.8728e-10
-6.35411e-10
-5.47404e-10
-5.05937e-10
-4.35636e-10
-4.02529e-10
-3.46439e-10
-3.20039e-10
-2.7534e-10
-2.54313e-10
-2.18738e-10
-2.02021e-10
-1.73781e-10
-1.60641e-10
-1.38804e-10
-1.30755e-10
-1.23101e-10
-1.48502e-10
-9.80992e-11
-7.40424e-11
-6.56997e-11
-5.63004e-11
-5.20918e-11
-4.53102e-11
-4.21656e-11
-3.69347e-11
-3.45091e-11
-3.04788e-11
-2.86149e-11
-2.55282e-11
-2.40978e-11
-2.17199e-11
-2.05553e-11
-1.848e-11
-1.7351e-11
-1.51141e-11
-1.39076e-11
-1.1546e-11
-1.039e-11
-8.33234e-12
-7.01011e-12
-4.02984e-12
-2.7197e-12
-7.30858e-13
-1.767e-13
-4.16021e-14
-5.43593e-13
8.9275e-05
-6.60446e-05
-1.62513e-05
-5.021e-06
-1.28496e-06
-4.05483e-07
-1.10601e-07
-4.07858e-08
-1.79945e-08
-1.59912e-08
-9.35851e-09
-7.1471e-09
-6.50483e-09
-5.7118e-09
-5.40408e-09
-4.74801e-09
-4.48738e-09
-3.91216e-09
-3.68612e-09
-3.19328e-09
-3.00147e-09
-2.58801e-09
-2.4282e-09
-2.08659e-09
-1.95519e-09
-1.67598e-09
-1.56895e-09
-1.34248e-09
-1.25587e-09
-1.07316e-09
-1.00341e-09
-8.5657e-10
-8.00577e-10
-6.82878e-10
-6.38037e-10
-5.43881e-10
-5.08032e-10
-4.32819e-10
-4.04198e-10
-3.44191e-10
-3.21368e-10
-2.73548e-10
-2.5537e-10
-2.1731e-10
-2.02858e-10
-1.72636e-10
-1.61267e-10
-1.37744e-10
-1.3066e-10
-1.20649e-10
-1.54263e-10
-9.61447e-11
-7.27962e-11
-6.5749e-11
-5.59019e-11
-5.22765e-11
-4.50342e-11
-4.23165e-11
-3.67218e-11
-3.46251e-11
-3.03144e-11
-2.87032e-11
-2.54024e-11
-2.41663e-11
-2.16281e-11
-2.0622e-11
-1.84091e-11
-1.74333e-11
-1.50372e-11
-1.39933e-11
-1.14553e-11
-1.04567e-11
-8.27872e-12
-7.13456e-12
-3.90396e-12
-2.76774e-12
-6.20397e-13
-1.42256e-13
-3.3109e-14
-5.40707e-13
9.09098e-05
-7.29877e-05
-1.24436e-05
-4.0145e-06
-9.15891e-07
-3.20104e-07
-8.09444e-08
-3.38856e-08
-1.53617e-08
-1.63097e-08
-8.88533e-09
-6.95447e-09
-6.50729e-09
-5.66092e-09
-5.43655e-09
-4.70852e-09
-4.51716e-09
-3.87731e-09
-3.71128e-09
-3.16317e-09
-3.02229e-09
-2.5626e-09
-2.44523e-09
-2.0655e-09
-1.96901e-09
-1.6587e-09
-1.5801e-09
-1.32843e-09
-1.26483e-09
-1.06181e-09
-1.01059e-09
-8.47438e-10
-8.06324e-10
-6.75554e-10
-6.42628e-10
-5.38018e-10
-5.11695e-10
-4.28134e-10
-4.07119e-10
-3.40452e-10
-3.23694e-10
-2.70566e-10
-2.57219e-10
-2.14935e-10
-2.04323e-10
-1.70736e-10
-1.62377e-10
-1.36026e-10
-1.3068e-10
-1.16451e-10
-1.63692e-10
-9.27982e-11
-7.08968e-11
-6.59094e-11
-5.52539e-11
-5.26052e-11
-4.45765e-11
-4.25819e-11
-3.63686e-11
-3.48292e-11
-3.00415e-11
-2.88587e-11
-2.51937e-11
-2.42865e-11
-2.14746e-11
-2.07367e-11
-1.82884e-11
-1.75723e-11
-1.49059e-11
-1.41386e-11
-1.1303e-11
-1.05705e-11
-8.18364e-12
-7.3424e-12
-3.69425e-12
-2.85618e-12
-4.43145e-13
-9.30422e-14
-2.13253e-14
-5.3673e-13
9.29075e-05
-8.27158e-05
-6.5511e-06
-2.79475e-06
-4.46678e-07
-2.20448e-07
-4.35983e-08
-2.5842e-08
-1.19494e-08
-1.69628e-08
-8.19227e-09
-6.70241e-09
-6.52566e-09
-5.58511e-09
-5.48912e-09
-4.64753e-09
-4.56484e-09
-3.82348e-09
-3.7517e-09
-3.11675e-09
-3.05585e-09
-2.52347e-09
-2.47274e-09
-2.03307e-09
-1.99137e-09
-1.63213e-09
-1.59816e-09
-1.30685e-09
-1.27936e-09
-1.04438e-09
-1.02225e-09
-8.33418e-10
-8.15651e-10
-6.6431e-10
-6.50082e-10
-5.29019e-10
-5.17645e-10
-4.20943e-10
-4.11862e-10
-3.34713e-10
-3.27471e-10
-2.65991e-10
-2.60224e-10
-2.11291e-10
-2.06705e-10
-1.67824e-10
-1.64206e-10
-1.33465e-10
-1.31055e-10
-1.09792e-10
-1.77846e-10
-8.74912e-11
-6.83203e-11
-6.6296e-11
-5.4285e-11
-5.31487e-11
-4.38772e-11
-4.30158e-11
-3.58281e-11
-3.5163e-11
-2.96243e-11
-2.91132e-11
-2.48745e-11
-2.44828e-11
-2.12381e-11
-2.09197e-11
-1.80983e-11
-1.7789e-11
-1.46986e-11
-1.43665e-11
-1.10664e-11
-1.07504e-11
-8.02668e-12
-7.66245e-12
-3.3721e-12
-3.0076e-12
-1.83364e-13
-3.26862e-14
-7.36624e-15
-5.32052e-13
9.29449e-05
-8.27485e-05
-6.55509e-06
-2.79727e-06
-4.46922e-07
-2.20528e-07
-4.34774e-08
-2.57038e-08
-1.17973e-08
-1.66962e-08
-8.05135e-09
-6.58182e-09
-6.40746e-09
-5.48235e-09
-5.38795e-09
-4.56082e-09
-4.47957e-09
-3.75125e-09
-3.68074e-09
-3.05717e-09
-2.99737e-09
-2.4747e-09
-2.4249e-09
-1.99337e-09
-1.95245e-09
-1.59996e-09
-1.56663e-09
-1.28087e-09
-1.25391e-09
-1.02347e-09
-1.00176e-09
-8.16618e-10
-7.992e-10
-6.50844e-10
-6.36898e-10
-5.18247e-10
-5.071e-10
-4.12341e-10
-4.03443e-10
-3.27855e-10
-3.20761e-10
-2.60532e-10
-2.54882e-10
-2.06951e-10
-2.02459e-10
-1.64376e-10
-1.60833e-10
-1.30725e-10
-1.28364e-10
-1.0754e-10
-1.74201e-10
-8.57002e-11
-6.69249e-11
-6.49424e-11
-5.31799e-11
-5.2067e-11
-4.29876e-11
-4.21441e-11
-3.51059e-11
-3.44547e-11
-2.90322e-11
-2.8532e-11
-2.43839e-11
-2.40007e-11
-2.08278e-11
-2.05167e-11
-1.77611e-11
-1.74587e-11
-1.44359e-11
-1.41106e-11
-1.08748e-11
-1.05649e-11
-7.89537e-12
-7.53762e-12
-3.31766e-12
-2.95912e-12
-1.80407e-13
-3.216e-14
-7.24763e-15
-5.23247e-13
9.09463e-05
-7.30167e-05
-1.24497e-05
-4.01737e-06
-9.16436e-07
-3.20244e-07
-8.08566e-08
-3.37536e-08
-1.52047e-08
-1.60656e-08
-8.73701e-09
-6.83093e-09
-6.38969e-09
-5.55699e-09
-5.33631e-09
-4.62078e-09
-4.43274e-09
-3.80414e-09
-3.64106e-09
-3.10277e-09
-2.96443e-09
-2.51311e-09
-2.3979e-09
-2.02521e-09
-1.93051e-09
-1.62603e-09
-1.54892e-09
-1.30204e-09
-1.23966e-09
-1.04056e-09
-9.90337e-10
-8.30365e-10
-7.90057e-10
-6.61867e-10
-6.29594e-10
-5.27067e-10
-5.01271e-10
-4.19388e-10
-3.98796e-10
-3.33478e-10
-3.1706e-10
-2.65014e-10
-2.51939e-10
-2.1052e-10
-2.00125e-10
-1.67228e-10
-1.59041e-10
-1.33232e-10
-1.27997e-10
-1.14062e-10
-1.60338e-10
-9.08985e-11
-6.94484e-11
-6.45639e-11
-5.41287e-11
-5.15348e-11
-4.36725e-11
-4.17193e-11
-3.56352e-11
-3.4128e-11
-2.94408e-11
-2.82829e-11
-2.46963e-11
-2.38088e-11
-2.10592e-11
-2.0338e-11
-1.79466e-11
-1.72466e-11
-1.46385e-11
-1.38869e-11
-1.11067e-11
-1.03886e-11
-8.04891e-12
-7.22261e-12
-3.63447e-12
-2.81011e-12
-4.35997e-13
-9.15438e-14
-2.0982e-14
-5.27851e-13
8.93108e-05
-6.60708e-05
-1.62589e-05
-5.02417e-06
-1.28573e-06
-4.05672e-07
-1.10537e-07
-4.06584e-08
-1.78346e-08
-1.57623e-08
-9.20561e-09
-7.02135e-09
-6.38751e-09
-5.60709e-09
-5.30443e-09
-4.6596e-09
-4.40349e-09
-3.83838e-09
-3.61635e-09
-3.13234e-09
-2.94399e-09
-2.53806e-09
-2.38119e-09
-2.0459e-09
-1.91695e-09
-1.64299e-09
-1.53798e-09
-1.31582e-09
-1.23088e-09
-1.05169e-09
-9.83295e-10
-8.39319e-10
-7.84425e-10
-6.69048e-10
-6.25095e-10
-5.32814e-10
-4.97681e-10
-4.2398e-10
-3.95935e-10
-3.37142e-10
-3.14782e-10
-2.67935e-10
-2.50128e-10
-2.12847e-10
-1.98691e-10
-1.6909e-10
-1.57954e-10
-1.34916e-10
-1.27978e-10
-1.18175e-10
-1.51102e-10
-9.41765e-11
-7.13087e-11
-6.44068e-11
-5.47633e-11
-5.12129e-11
-4.41207e-11
-4.14594e-11
-3.59811e-11
-3.39282e-11
-2.97079e-11
-2.81308e-11
-2.49006e-11
-2.36913e-11
-2.12093e-11
-2.0226e-11
-1.80644e-11
-1.71106e-11
-1.47667e-11
-1.37444e-11
-1.12561e-11
-1.02771e-11
-8.14184e-12
-7.01802e-12
-3.8407e-12
-2.72306e-12
-6.10386e-13
-1.39964e-13
-3.25756e-14
-5.31764e-13
8.81627e-05
-6.16051e-05
-1.85249e-05
-5.73103e-06
-1.54064e-06
-4.67679e-07
-1.31197e-07
-4.56768e-08
-1.96329e-08
-1.56376e-08
-9.49906e-09
-7.14962e-09
-6.39111e-09
-5.63801e-09
-5.28618e-09
-4.68282e-09
-4.38656e-09
-3.85885e-09
-3.60208e-09
-3.15004e-09
-2.93222e-09
-2.55302e-09
-2.37158e-09
-2.05832e-09
-1.90917e-09
-1.65317e-09
-1.53171e-09
-1.3241e-09
-1.22584e-09
-1.05838e-09
-9.79264e-10
-8.447e-10
-7.81202e-10
-6.73363e-10
-6.22521e-10
-5.36268e-10
-4.95629e-10
-4.26739e-10
-3.943e-10
-3.39345e-10
-3.1348e-10
-2.69691e-10
-2.49093e-10
-2.14246e-10
-1.97871e-10
-1.70211e-10
-1.57341e-10
-1.35953e-10
-1.28071e-10
-1.20577e-10
-1.45459e-10
-9.6091e-11
-7.25293e-11
-6.43586e-11
-5.51536e-11
-5.10321e-11
-4.43911e-11
-4.13117e-11
-3.61896e-11
-3.38147e-11
-2.9869e-11
-2.80445e-11
-2.50238e-11
-2.36245e-11
-2.12992e-11
-2.01609e-11
-1.81336e-11
-1.703e-11
-1.48419e-11
-1.36603e-11
-1.13449e-11
-1.02117e-11
-8.19422e-12
-6.89549e-12
-3.96447e-12
-2.67578e-12
-7.19062e-13
-1.7385e-13
-4.09313e-14
-5.34603e-13
8.75727e-05
-5.94211e-05
-1.95793e-05
-6.09365e-06
-1.67079e-06
-5.00196e-07
-1.41806e-07
-4.83109e-08
-2.05473e-08
-1.5598e-08
-9.64061e-09
-7.21408e-09
-6.39436e-09
-5.65279e-09
-5.2779e-09
-4.69368e-09
-4.37881e-09
-3.86842e-09
-3.59557e-09
-3.15833e-09
-2.92685e-09
-2.56003e-09
-2.36721e-09
-2.06414e-09
-1.90564e-09
-1.65795e-09
-1.52887e-09
-1.32798e-09
-1.22356e-09
-1.06152e-09
-9.77436e-10
-8.47224e-10
-7.79741e-10
-6.75388e-10
-6.21355e-10
-5.37888e-10
-4.94698e-10
-4.28035e-10
-3.93558e-10
-3.40379e-10
-3.1289e-10
-2.70515e-10
-2.48624e-10
-2.14902e-10
-1.975e-10
-1.70737e-10
-1.57066e-10
-1.36448e-10
-1.28147e-10
-1.21682e-10
-1.42784e-10
-9.69716e-11
-7.3133e-11
-6.43507e-11
-5.53395e-11
-5.09512e-11
-4.45183e-11
-4.1245e-11
-3.62875e-11
-3.37635e-11
-2.99447e-11
-2.80056e-11
-2.50817e-11
-2.35942e-11
-2.13413e-11
-2.0131e-11
-1.81656e-11
-1.69926e-11
-1.48766e-11
-1.36213e-11
-1.13863e-11
-1.01815e-11
-8.21773e-12
-6.83815e-12
-4.02249e-12
-2.65516e-12
-7.71247e-13
-1.91229e-13
-4.52986e-14
-5.36094e-13
8.75728e-05
-5.94211e-05
-1.95793e-05
-6.09364e-06
-1.67078e-06
-5.00193e-07
-1.41804e-07
-4.83103e-08
-2.05471e-08
-1.55979e-08
-9.64059e-09
-7.21407e-09
-6.39436e-09
-5.65279e-09
-5.2779e-09
-4.69368e-09
-4.37881e-09
-3.86842e-09
-3.59557e-09
-3.15833e-09
-2.92686e-09
-2.56003e-09
-2.36721e-09
-2.06414e-09
-1.90564e-09
-1.65795e-09
-1.52887e-09
-1.32798e-09
-1.22356e-09
-1.06152e-09
-9.77436e-10
-8.47224e-10
-7.79741e-10
-6.75388e-10
-6.21355e-10
-5.37888e-10
-4.94698e-10
-4.28035e-10
-3.93558e-10
-3.40379e-10
-3.1289e-10
-2.70515e-10
-2.48624e-10
-2.14902e-10
-1.975e-10
-1.70737e-10
-1.57066e-10
-1.36448e-10
-1.28147e-10
-1.21682e-10
-1.42784e-10
-9.69716e-11
-7.3133e-11
-6.43507e-11
-5.53395e-11
-5.09512e-11
-4.45183e-11
-4.12451e-11
-3.62875e-11
-3.37635e-11
-2.99447e-11
-2.80056e-11
-2.50817e-11
-2.35943e-11
-2.13413e-11
-2.0131e-11
-1.81656e-11
-1.69926e-11
-1.48766e-11
-1.36213e-11
-1.13863e-11
-1.01815e-11
-8.21773e-12
-6.83815e-12
-4.02248e-12
-2.65516e-12
-7.71245e-13
-1.91228e-13
-4.52982e-14
-5.36093e-13
8.81628e-05
-6.16052e-05
-1.85249e-05
-5.73102e-06
-1.54063e-06
-4.67671e-07
-1.31193e-07
-4.5675e-08
-1.96322e-08
-1.56374e-08
-9.49898e-09
-7.1496e-09
-6.3911e-09
-5.63801e-09
-5.28618e-09
-4.68282e-09
-4.38656e-09
-3.85885e-09
-3.60208e-09
-3.15004e-09
-2.93222e-09
-2.55302e-09
-2.37159e-09
-2.05832e-09
-1.90918e-09
-1.65317e-09
-1.53171e-09
-1.3241e-09
-1.22584e-09
-1.05838e-09
-9.79264e-10
-8.447e-10
-7.81202e-10
-6.73364e-10
-6.22522e-10
-5.36268e-10
-4.95629e-10
-4.2674e-10
-3.943e-10
-3.39345e-10
-3.1348e-10
-2.69691e-10
-2.49093e-10
-2.14246e-10
-1.97871e-10
-1.70211e-10
-1.57341e-10
-1.35953e-10
-1.28071e-10
-1.20577e-10
-1.45459e-10
-9.6091e-11
-7.25293e-11
-6.43586e-11
-5.51536e-11
-5.10321e-11
-4.43911e-11
-4.13117e-11
-3.61896e-11
-3.38147e-11
-2.9869e-11
-2.80445e-11
-2.50238e-11
-2.36245e-11
-2.12992e-11
-2.01609e-11
-1.81336e-11
-1.703e-11
-1.48419e-11
-1.36603e-11
-1.13449e-11
-1.02117e-11
-8.19422e-12
-6.89549e-12
-3.96447e-12
-2.67577e-12
-7.19056e-13
-1.73846e-13
-4.09304e-14
-5.34601e-13
8.93109e-05
-6.60709e-05
-1.62589e-05
-5.02415e-06
-1.28571e-06
-4.05662e-07
-1.10532e-07
-4.06561e-08
-1.78337e-08
-1.5762e-08
-9.20551e-09
-7.02132e-09
-6.3875e-09
-5.60709e-09
-5.30444e-09
-4.65961e-09
-4.4035e-09
-3.83838e-09
-3.61635e-09
-3.13234e-09
-2.94399e-09
-2.53807e-09
-2.38119e-09
-2.0459e-09
-1.91696e-09
-1.64299e-09
-1.53798e-09
-1.31582e-09
-1.23088e-09
-1.05169e-09
-9.83295e-10
-8.3932e-10
-7.84425e-10
-6.69048e-10
-6.25095e-10
-5.32814e-10
-4.97682e-10
-4.2398e-10
-3.95936e-10
-3.37142e-10
-3.14782e-10
-2.67935e-10
-2.50128e-10
-2.12847e-10
-1.98691e-10
-1.6909e-10
-1.57954e-10
-1.34916e-10
-1.27978e-10
-1.18175e-10
-1.51102e-10
-9.41765e-11
-7.13087e-11
-6.44068e-11
-5.47634e-11
-5.12129e-11
-4.41207e-11
-4.14594e-11
-3.59811e-11
-3.39282e-11
-2.97079e-11
-2.81309e-11
-2.49007e-11
-2.36914e-11
-2.12093e-11
-2.0226e-11
-1.80644e-11
-1.71106e-11
-1.47667e-11
-1.37444e-11
-1.12561e-11
-1.02771e-11
-8.14184e-12
-7.01801e-12
-3.84069e-12
-2.72305e-12
-6.10379e-13
-1.39959e-13
-3.25744e-14
-5.31761e-13
9.09464e-05
-7.30168e-05
-1.24497e-05
-4.01736e-06
-9.16422e-07
-3.20235e-07
-8.08521e-08
-3.37516e-08
-1.52039e-08
-1.60654e-08
-8.73693e-09
-6.8309e-09
-6.38968e-09
-5.55699e-09
-5.33632e-09
-4.62079e-09
-4.43274e-09
-3.80414e-09
-3.64106e-09
-3.10277e-09
-2.96444e-09
-2.51312e-09
-2.39791e-09