/*--------------------------------*- C++ -*----------------------------------*\
| =========                 |                                                 |
| \\      /  F ield         | OpenFOAM: The Open Source CFD Toolbox           |
|  \\    /   O peration     | Version:  5.x                                   |
|   \\  /    A nd           | Web:      www.OpenFOAM.org                      |
|    \\/     M anipulation  |                                                 |
\*---------------------------------------------------------------------------*/
FoamFile
{
    version     2.0;
    format      ascii;
    class       volScalarField;
    location    "1.8999";
    object      gradTx;
}
// * * * * * * * * * * * * * * * * * * * * * * * * * * * * * * * * * * * * * //

dimensions      [0 -1 0 1 0 0 0];

internalField   nonuniform List<scalar> 
2048
(
0.00772406
0.0229362
0.0374621
0.0509148
0.063001
0.0735349
0.0824371
0.0897195
0.0954631
0.0997927
0.102855
0.1048
0.105775
0.105916
0.105351
0.104201
0.102582
0.100602
0.0983621
0.0959527
0.093448
0.0909057
0.0883663
0.0858543
0.0833817
0.0809506
0.0785563
0.0761896
0.0738368
0.0714812
0.0691035
0.0666829
0.0641998
0.0616371
0.0589822
0.0562277
0.0533699
0.0504077
0.0473396
0.0441619
0.0408674
0.0374454
0.0338841
0.0301731
0.0263075
0.0222918
0.0181432
0.0138948
0.00959704
0.00531878
0.00114712
-0.00281438
-0.00644904
-0.00963256
-0.0122409
-0.0141603
-0.0152981
-0.015594
-0.0150291
-0.0136311
-0.0114757
-0.00868258
-0.00540799
-0.00183595
0.0230299
0.0683734
0.111636
0.151648
0.187532
0.218739
0.245046
0.266508
0.283384
0.296062
0.304989
0.31062
0.313388
0.313699
0.311929
0.308435
0.303557
0.29762
0.290925
0.283741
0.276289
0.26874
0.261212
0.253776
0.246465
0.239281
0.232211
0.225226
0.218284
0.211337
0.204324
0.197185
0.189858
0.182293
0.174451
0.16631
0.157863
0.149107
0.14004
0.130652
0.120921
0.110815
0.100295
0.0893289
0.0778975
0.0660117
0.0537203
0.0411191
0.0283567
0.0156371
0.00321884
-0.00858895
-0.0194368
-0.0289507
-0.036756
-0.0425068
-0.0459204
-0.046811
-0.045118
-0.0409229
-0.0344522
-0.0260657
-0.0162331
-0.00551005
0.0382091
0.113398
0.185023
0.251099
0.310153
0.361298
0.404208
0.439033
0.466262
0.486586
0.500778
0.509604
0.513781
0.51397
0.510778
0.504784
0.496544
0.486596
0.475439
0.46352
0.451207
0.438781
0.42643
0.414262
0.40232
0.390604
0.379084
0.367712
0.356421
0.345126
0.33373
0.322124
0.310204
0.297883
0.285097
0.271813
0.258023
0.243728
0.228933
0.213623
0.197762
0.181292
0.164144
0.146252
0.127579
0.10813
0.0879794
0.0672785
0.0462675
0.0252799
0.00474206
-0.0148333
-0.0328617
-0.0487128
-0.0617495
-0.0713782
-0.0771088
-0.0786142
-0.075781
-0.0687401
-0.0578712
-0.043781
-0.0272609
-0.00925108
0.0535752
0.15892
0.25904
0.351057
0.432884
0.503319
0.562003
0.609267
0.645918
0.67302
0.691716
0.703101
0.708171
0.70782
0.702869
0.694099
0.682275
0.668144
0.652412
0.635709
0.618556
0.601335
0.584298
0.567574
0.551205
0.535174
0.519434
0.503914
0.488521
0.473138
0.457623
0.441818
0.425568
0.408743
0.391253
0.373057
0.354154
0.334562
0.314298
0.29335
0.271667
0.249161
0.225719
0.201233
0.175629
0.148898
0.121127
0.0925141
0.0633847
0.034196
0.00553889
-0.0218686
-0.0471995
-0.0695517
-0.0880016
-0.101678
-0.109851
-0.112023
-0.10801
-0.0979853
-0.0824915
-0.0624004
-0.0388474
-0.0131807
0.0694123
0.205757
0.334944
0.453089
0.557453
0.646561
0.720121
0.778769
0.823756
0.856619
0.878928
0.89213
0.897488
0.896104
0.888977
0.877069
0.861344
0.842766
0.82226
0.800656
0.778629
0.756667
0.735066
0.713959
0.693366
0.673242
0.65351
0.634082
0.614841
0.59564
0.576286
0.556564
0.536256
0.51518
0.493218
0.470326
0.446522
0.421855
0.396368
0.370061
0.342868
0.31466
0.28527
0.254524
0.222296
0.188548
0.153364
0.116981
0.0797985
0.0423935
0.00551819
-0.029902
-0.0627868
-0.0919401
-0.116118
-0.134127
-0.14495
-0.147878
-0.142626
-0.129407
-0.108939
-0.0823926
-0.051282
-0.0173965
0.0859923
0.254687
0.413915
0.55863
0.685397
0.792533
0.879948
0.948762
1.00083
1.03829
1.06322
1.07743
1.08243
1.07948
1.06971
1.05425
1.03423
1.01087
0.985318
0.958636
0.931667
0.905
0.878958
0.853649
0.829043
0.805046
0.781552
0.758452
0.735619
0.712875
0.689978
0.666635
0.642551
0.617479
0.591267
0.563875
0.535355
0.505811
0.475331
0.443937
0.411548
0.377987
0.343007
0.306349
0.267811
0.227303
0.184894
0.140848
0.0956325
0.0499352
0.00466586
-0.0390415
-0.0798418
-0.116219
-0.146564
-0.169305
-0.183073
-0.186888
-0.18033
-0.163641
-0.137743
-0.104147
-0.0648011
-0.0219778
0.103589
0.306485
0.497108
0.669049
0.818129
0.942551
1.04262
1.12018
1.17789
1.21865
1.24513
1.2595
1.26348
1.25843
1.24556
1.22608
1.20134
1.17278
1.14185
1.10986
1.07786
1.04652
1.01617
0.986861
0.958468
0.930825
0.903788
0.877245
0.851072
0.82507
0.798938
0.772291
0.744727
0.715914
0.685659
0.653935
0.620853
0.586598
0.551332
0.515115
0.477854
0.439304
0.399115
0.356912
0.312388
0.265377
0.215922
0.164299
0.111039
0.0569309
0.00303487
-0.0493086
-0.0984804
-0.142616
-0.179691
-0.207682
-0.224784
-0.229672
-0.221736
-0.201243
-0.169353
-0.127988
-0.0795968
-0.0269875
0.122487
0.361955
0.585698
0.785696
0.956981
1.09779
1.20908
1.29369
1.3554
1.39803
1.42493
1.43864
1.44099
1.43335
1.41691
1.39295
1.36298
1.32875
1.29204
1.25448
1.21733
1.18137
1.14689
1.11381
1.08187
1.05081
1.02045
0.99067
0.961398
0.932427
0.903388
0.873775
0.843044
0.810749
0.776641
0.740719
0.703187
0.664349
0.624478
0.583694
0.541893
0.498741
0.453753
0.406397
0.356227
0.302979
0.246651
0.187528
0.126193
0.0635291
0.000735401
-0.0606496
-0.118729
-0.171262
-0.215752
-0.249636
-0.27057
-0.276778
-0.267398
-0.242707
-0.204159
-0.154182
-0.0958181
-0.0324731
0.142996
0.421954
0.680915
0.909941
1.10324
1.25929
1.38005
1.46975
1.53358
1.57654
1.6027
1.61496
1.61516
1.60452
1.5841
1.55517
1.51945
1.47901
1.43605
1.3926
1.35019
1.30967
1.27127
1.2347
1.1995
1.16526
1.13174
1.09892
1.06677
1.03512
1.00353
0.97132
0.93776
0.902244
0.864454
0.824429
0.782506
0.739164
0.694836
0.649733
0.603737
0.556402
0.507058
0.454974
0.39952
0.340311
0.277284
0.210731
0.141284
0.0699078
-0.00207475
-0.072945
-0.140533
-0.202201
-0.254917
-0.295473
-0.320855
-0.32871
-0.317826
-0.288478
-0.242492
-0.182935
-0.11357
-0.0384652
0.165455
0.487419
0.784074
1.0432
1.25817
1.428
1.5561
1.64858
1.71241
1.75402
1.77832
1.78845
1.78609
1.77216
1.74741
1.71305
1.67098
1.62371
1.57396
1.52426
1.47647
1.43152
1.38947
1.34975
1.3116
1.2744
1.2379
1.20216
1.16734
1.13331
1.09955
1.06515
1.02913
0.990665
0.949337
0.905253
0.858938
0.811115
0.762441
0.713255
0.663428
0.612363
0.559151
0.502799
0.442451
0.377564
0.308015
0.234102
0.156506
0.0762652
-0.00519959
-0.0860177
-0.163766
-0.235396
-0.297275
-0.345431
-0.376019
-0.385941
-0.373508
-0.338969
-0.284632
-0.214393
-0.132906
-0.0449752
0.190241
0.559381
0.896601
1.18696
1.42303
1.60476
1.73763
1.83018
1.89164
1.93016
1.95151
1.95896
1.95383
1.93646
1.90714
1.86688
1.81782
1.76299
1.70583
1.64946
1.59617
1.54697
1.50164
1.45919
1.41845
1.37852
1.33913
1.30055
1.26322
1.22712
1.19161
1.15549
1.11742
1.07628
1.03154
0.983376
0.932594
0.880243
0.827286
0.774246
0.720977
0.666681
0.610137
0.550022
0.485194
0.414925
0.339029
0.257826
0.172053
0.0828098
-0.00841431
-0.0996414
-0.188233
-0.270732
-0.342843
-0.39969
-0.436402
-0.448925
-0.434922
-0.394567
-0.330803
-0.248632
-0.153822
-0.0519913
0.217781
0.638992
1.02005
1.34279
1.59905
1.79031
1.92487
2.01434
2.0708
2.10439
2.12183
2.12628
2.11838
2.09763
2.06359
2.01697
1.96018
1.89699
1.83166
1.76815
1.70926
1.65606
1.60794
1.56328
1.52035
1.47792
1.43566
1.39423
1.35449
1.31664
1.27985
1.24254
1.20289
1.15939
1.1113
1.05898
1.00357
0.946562
0.889334
0.832656
0.776367
0.719395
0.660112
0.596785
0.527919
0.452567
0.370492
0.28207
0.188105
0.0897508
-0.0114746
-0.113548
-0.213678
-0.308023
-0.391568
-0.458374
-0.502314
-0.518116
-0.502552
-0.455643
-0.381173
-0.285643
-0.176241
-0.0594744
0.248557
0.72754
1.15614
1.51237
1.78748
1.98529
2.11786
2.20066
2.24919
2.27599
2.28871
2.2901
2.27971
2.25585
2.21709
2.16363
2.0983
2.02578
1.95142
1.88021
1.81565
1.75882
1.70851
1.66228
1.61765
1.57291
1.52773
1.4833
1.44119
1.40191
1.3644
1.32651
1.28583
1.24028
1.1889
1.13224
1.07194
1.01006
0.948507
0.888401
0.829556
0.770527
0.709164
0.643227
0.570794
0.490654
0.402555
0.306981
0.204827
0.097289
-0.0141261
-0.127433
-0.239786
-0.347011
-0.443325
-0.521551
-0.574034
-0.59397
-0.576908
-0.522563
-0.435847
-0.32532
-0.200004
-0.0673525
0.283114
0.826462
1.30675
1.69747
1.98953
2.19019
2.31648
2.38853
2.42593
2.44408
2.4515
2.45009
2.43778
2.41138
2.36803
2.30724
2.23241
2.14947
2.06506
1.9855
1.91521
1.85525
1.80355
1.7565
1.71074
1.66387
1.61556
1.56782
1.5233
1.48296
1.44537
1.40762
1.36651
1.31929
1.2646
1.20333
1.13777
1.07069
1.00469
0.941362
0.880481
0.820095
0.757374
0.689487
0.613984
0.529338
0.435342
0.332675
0.222351
0.105607
-0.0161136
-0.140969
-0.26619
-0.387367
-0.497921
-0.589232
-0.651809
-0.676959
-0.658547
-0.595703
-0.494858
-0.36744
-0.224849
-0.0755154
0.322079
0.937367
1.47393
1.9
2.20637
2.40536
2.52043
2.57715
2.59993
2.60758
2.60946
2.6059
2.5926
2.56449
2.51688
2.44821
2.36275
2.26814
2.17248
2.08379
2.00773
1.94533
1.89322
1.84627
1.80003
1.75124
1.6994
1.64782
1.60075
1.55976
1.52285
1.48604
1.44526
1.39678
1.33871
1.27242
1.20113
1.12841
1.05774
0.991381
0.92906
0.868109
0.804824
0.735704
0.657662
0.568761
0.46895
0.359237
0.240783
0.11486
-0.0171906
-0.153805
-0.292471
-0.428692
-0.555092
-0.661372
-0.73585
-0.767572
-0.748095
-0.675462
-0.558153
-0.411637
-0.250398
-0.0838096
0.366167
1.06204
1.65994
2.12197
2.43912
2.63097
2.72927
2.76554
2.76988
2.7653
2.76179
2.75721
2.74414
2.71552
2.66421
2.58698
2.48957
2.38186
2.27356
2.1748
2.09299
2.02904
1.97775
1.93196
1.88604
1.83552
1.77952
1.72325
1.67337
1.63225
1.59692
1.56198
1.52239
1.47316
1.41153
1.33968
1.26207
1.18312
1.10746
1.03827
0.975201
0.914585
0.851588
0.78202
0.702008
0.609051
0.503441
0.386717
0.260187
0.12517
-0.0171288
-0.165582
-0.318167
-0.47052
-0.614509
-0.737864
-0.826315
-0.866319
-0.846287
-0.76229
-0.625579
-0.457377
-0.276143
-0.0920345
0.416214
1.20244
1.86719
2.36556
2.6888
2.86695
2.94239
2.9526
2.93434
2.9159
2.9077
2.90374
2.89241
2.86485
2.81069
2.72404
2.61306
2.49074
2.36816
2.25817
2.17065
2.10635
2.0574
2.01393
1.96927
1.9173
1.85619
1.79401
1.74092
1.70032
1.66767
1.63561
1.59824
1.54888
1.48339
1.40525
1.32064
1.23473
1.15361
1.08179
1.0188
0.959553
0.897739
0.82858
0.747226
0.650326
0.538839
0.415127
0.280589
0.136616
-0.0157263
-0.175939
-0.342778
-0.512313
-0.675775
-0.818546
-0.923287
-0.973719
-0.954008
-0.856712
-0.696861
-0.503931
-0.301432
-0.0999411
0.473208
1.36073
2.09827
2.63313
2.95624
3.11291
3.15909
3.13712
3.09164
3.05788
3.04638
3.04532
3.03742
3.01292
2.9572
2.85993
2.7334
2.5949
2.45613
2.33345
2.24033
2.17725
2.13249
2.09255
2.05032
1.99731
1.92973
1.85989
1.80306
1.76385
1.73522
1.70708
1.67315
1.6245
1.5546
1.46924
1.37692
1.28315
1.19592
1.12166
1.05977
1.00307
0.943334
0.875527
0.793552
0.692692
0.575118
0.444448
0.301977
0.149227
-0.0128169
-0.184519
-0.365766
-0.553467
-0.738442
-0.903208
-1.02674
-1.09028
-1.07235
-0.959366
-0.771559
-0.550336
-0.325462
-0.107233
0.53836
1.53923
2.35589
2.9273
3.24208
3.36811
3.37863
3.31781
3.23994
3.18964
3.17712
3.18194
3.17908
3.16016
3.10481
2.99517
2.85064
2.69457
2.53735
2.40009
2.30154
2.24173
2.20342
2.16816
2.12977
2.07646
2.00047
1.92053
1.8593
1.82269
1.79973
1.77648
1.74745
1.70065
1.62551
1.5317
1.431
1.32827
1.23404
1.15757
1.09801
1.04524
0.988404
0.922992
0.841277
0.736238
0.612189
0.47463
0.324299
0.162979
-0.0082767
-0.190987
-0.38657
-0.593302
-0.802009
-0.99161
-1.13652
-1.21647
-1.20269
-1.07105
-0.849026
-0.595368
-0.347288
-0.113575
0.613206
1.74037
2.64281
3.25103
3.54663
3.63124
3.60036
3.49342
3.3772
3.30938
3.29927
3.31386
3.31721
3.30698
3.25495
3.13026
2.96466
2.79006
2.61172
2.45743
2.35366
2.29985
2.27075
2.24098
2.20822
2.1559
2.06877
1.97543
1.90902
1.8767
1.86147
1.8438
1.82145
1.77816
1.69642
1.59257
1.48307
1.37001
1.26757
1.18912
1.13347
1.08626
1.03293
0.971087
0.890782
0.781033
0.649884
0.505616
0.347473
0.177784
-0.00202987
-0.195032
-0.404608
-0.631056
-0.865942
-1.08352
-1.25221
-1.35262
-1.34681
-1.19279
-0.928329
-0.637504
-0.365829
-0.118603
0.699787
1.9667
2.96166
3.60787
3.86976
3.90032
3.82391
3.66276
3.50114
3.41516
3.41234
3.44171
3.45135
3.4537
3.40951
3.26564
3.07507
2.88195
2.6792
2.50461
2.39596
2.35169
2.33523
2.31106
2.28621
2.23713
2.13503
2.02387
1.95141
1.92576
1.92089
1.90889
1.89539
1.8581
1.76757
1.65163
1.5334
1.40834
1.29601
1.21584
1.1661
1.12641
1.0768
1.01988
0.942585
0.827116
0.687925
0.537355
0.371389
0.193483
0.00594863
-0.196384
-0.419295
-0.665871
-0.929684
-1.1788
-1.37316
-1.49887
-1.50703
-1.3259
-1.00814
-0.674897
-0.379909
-0.121944
0.800927
2.22073
3.31479
4.00225
4.21075
4.17244
4.04939
3.82476
3.6092
3.50483
3.51601
3.5667
3.58063
3.60044
3.57109
3.40155
3.18099
2.97115
2.73984
2.54062
2.4275
2.39742
2.39797
2.37819
2.36413
2.32215
2.19965
2.06483
1.98548
1.96982
1.9787
1.97135
1.96939
1.9419
1.83913
1.70845
1.58248
1.44323
1.31877
1.2372
1.19593
1.16618
1.11978
1.06937
0.99741
0.874474
0.725885
0.569845
0.395921
0.209836
0.0156345
-0.19482
-0.430056
-0.696768
-0.992659
-1.27746
-1.49831
-1.65496
-1.68641
-1.47206
-1.0866
-0.705361
-0.388298
-0.123238
0.920662
2.50484
3.70389
4.43995
4.56803
4.44336
4.27785
3.97852
3.69847
3.57595
3.61016
3.69088
3.70351
3.74698
3.74334
3.53797
3.28093
3.05917
2.79376
2.56417
2.44717
2.43728
2.46053
2.44165
2.44218
2.41363
2.26301
2.097
2.01001
2.00884
2.03603
2.03039
2.04339
2.03157
1.91109
1.76218
1.63109
1.47474
1.33511
1.25254
1.223
1.20633
1.16139
1.11942
1.05629
0.923014
0.763136
0.603185
0.420927
0.226509
0.0269614
-0.190181
-0.436356
-0.722613
-1.05427
-1.37989
-1.62608
-1.82005
-1.88902
-1.63347
-1.1611
-0.726373
-0.389789
-0.122172
1.06489
2.82106
4.12951
4.9288
4.93891
4.70716
4.5118
4.12334
3.76563
3.62585
3.69481
3.8175
3.81746
3.89256
3.93138
3.67439
3.37243
3.14839
2.84119
2.57368
2.45359
2.47156
2.52523
2.5001
2.52017
2.51523
2.32537
2.11862
2.02355
2.04289
2.09466
2.08471
2.11702
2.12989
1.9832
1.81151
1.68051
1.50294
1.34415
1.26107
1.24741
1.248
1.20085
1.16974
1.12072
0.972515
0.798776
0.637654
0.446254
0.243056
0.0398364
-0.182378
-0.437735
-0.742068
-1.11387
-1.48701
-1.7543
-1.99235
-2.12027
-1.81287
-1.22797
-0.735116
-0.383283
-0.118505
1.24232
3.17079
4.59034
5.47971
5.31915
4.95558
4.75593
4.25856
3.80681
3.6515
3.77008
3.95155
3.91848
4.03561
4.14248
3.80961
3.45168
3.2425
2.88235
2.56718
2.44514
2.50058
2.59544
2.55121
2.59741
2.63194
2.3868
2.12749
2.02441
2.07202
2.15726
2.13218
2.1895
2.24079
2.05481
1.85439
1.7327
1.52793
1.34479
1.2619
1.26926
1.29289
1.2369
1.21976
1.19283
1.02256
0.831533
0.673827
0.47173
0.258889
0.0541651
-0.171403
-0.433867
-0.753527
-1.17072
-1.60062
-1.87999
-2.16876
-2.38743
-2.01376
-1.28218
-0.728563
-0.367898
-0.112105
1.46576
3.55442
5.08229
6.10804
5.70238
5.17728
5.01817
4.38347
3.81753
3.64954
3.83598
4.10049
4.00056
4.1734
4.38686
3.94134
3.51309
3.34708
2.91737
2.5423
2.4199
2.52451
2.67603
2.59135
2.6724
2.77059
2.44691
2.12087
2.01066
2.09624
2.22779
2.16962
2.25939
2.36978
2.12468
1.88778
1.79064
1.54974
1.33571
1.25398
1.28858
1.34353
1.26762
1.26854
1.27565
1.07243
0.859643
0.712717
0.497138
0.273253
0.0698903
-0.157333
-0.424628
-0.755045
-1.22384
-1.7238
-1.99926
-2.34421
-2.70017
-2.24047
-1.31681
-0.703637
-0.343087
-0.102973
1.75395
3.97087
5.59711
6.83545
6.07941
5.35693
5.311
4.49683
3.79259
3.61634
3.8921
4.27514
4.05493
4.30157
4.67882
4.06578
3.54863
3.47042
2.94602
2.49617
2.37569
2.54326
2.77397
2.61509
2.74259
2.94048
2.50461
2.09546
1.9802
2.11534
2.31201
2.19234
2.32441
2.52456
2.19078
1.90736
1.85877
1.56823
1.31534
1.23612
1.30526
1.40354
1.29022
1.31465
1.37345
1.12098
0.880709
0.755985
0.522177
0.285182
0.0870448
-0.140326
-0.410203
-0.744254
-1.27187
-1.86144
-2.10717
-2.51101
-3.07133
-2.49827
-1.32246
-0.657465
-0.308751
-0.0912583
2.13392
4.41685
6.12078
7.69228
6.43724
5.47402
5.65313
4.59634
3.72606
3.54804
3.93708
4.49092
4.06918
4.41358
5.03807
4.17703
3.54713
3.62443
2.96739
2.42542
2.31013
2.55608
2.89914
2.61463
2.80403
3.15417
2.55762
2.04741
1.93084
2.12863
2.41813
2.19372
2.38109
2.71575
2.24993
1.9071
1.94348
1.58286
1.28182
1.20705
1.31886
1.47803
1.30069
1.35598
1.49215
1.16643
0.891519
0.806186
0.546386
0.293453
0.105819
-0.12062
-0.391212
-0.718275
-1.31277
-2.02084
-2.19755
-2.65785
-3.51789
-2.79352
-1.28657
-0.587737
-0.265344
-0.0772664
2.64401
4.88614
6.63134
8.72062
6.75785
5.50154
6.07166
4.67772
3.61125
3.44081
3.96792
4.76939
4.02617
4.49998
5.49144
4.26632
3.49341
3.826
2.97933
2.32623
2.22072
2.56116
3.06522
2.57916
2.8509
3.42852
2.60194
1.97236
1.8604
2.13456
2.55761
2.1646
2.4244
2.95776
2.2974
1.87883
2.05384
1.59246
1.23305
1.16546
1.32837
1.57414
1.29352
1.38952
1.63981
1.20613
0.887849
0.867098
0.569035
0.296542
0.126648
-0.0985039
-0.368869
-0.673652
-1.34349
-2.21255
-2.26301
-2.76871
-4.06204
-3.13371
-1.1925
-0.493226
-0.213942
-0.0614428
3.33772
5.3685
7.09631
9.97793
7.01668
5.40438
6.60468
4.7334
3.44089
3.29111
3.97886
5.14012
3.90276
4.5476
6.07485
4.32114
3.36729
4.09848
2.97765
2.19435
2.10509
2.55496
3.29099
2.494
2.87504
3.7858
2.631
1.86559
1.76693
2.13017
2.74616
2.09263
2.44732
3.26989
2.32645
1.81166
2.20241
1.59475
1.16668
1.11011
1.33187
1.70165
1.2612
1.41117
1.82727
1.23631
0.86423
0.944101
0.588971
0.292564
0.150307
-0.0742918
-0.345168
-0.606291
-1.35938
-2.45121
-2.29482
-2.82146
-4.73259
-3.52749
-1.01857
-0.374454
-0.156251
-0.0443439
4.28824
5.84849
7.46961
11.5415
7.18079
5.13759
7.30428
4.75086
3.20734
3.09617
3.96005
5.64292
3.66839
4.53859
6.83557
4.32411
3.14253
4.47355
2.95519
2.02534
1.96117
2.53134
3.60166
2.33975
2.86539
4.25516
2.63472
1.72228
1.649
2.11035
3.00495
1.96147
2.44032
3.67756
2.32773
1.69145
2.4062
1.58584
1.08025
1.03998
1.32606
1.87367
1.1938
1.41543
2.06879
1.25165
0.813709
1.04464
0.604411
0.279236
0.178027
-0.0482715
-0.3231
-0.511453
-1.35363
-2.75658
-2.283
-2.7863
-5.56646
-3.98465
-0.736954
-0.234543
-0.0945439
-0.0265905
5.59384
6.30405
7.68804
13.5134
7.2067
4.64446
8.24013
4.71047
2.90302
2.85464
3.89577
6.33049
3.28345
4.44932
7.83487
4.25178
2.78554
4.99329
2.90043
1.81477
1.7877
2.48048
4.03059
2.09118
2.8073
4.87417
2.59825
1.5378
1.506
2.0669
3.362
1.74999
2.39076
4.21366
2.28862
1.50013
2.68787
1.55952
0.971303
0.954473
1.30573
2.10757
1.07839
1.3951
2.38289
1.24488
0.727591
1.17872
0.612677
0.253833
0.21161
-0.0206398
-0.306879
-0.383793
-1.31641
-3.15468
-2.21646
-2.62395
-6.61044
-4.51598
-0.312453
-0.0802629
-0.0314941
-0.00880998
)
;

boundaryField
{
    left
    {
        type            calculated;
        value           uniform 0;
    }
    right
    {
        type            calculated;
        value           uniform 0;
    }
    interface
    {
        type            calculated;
        value           nonuniform List<scalar> 
64
(
5.59384
6.30405
7.68804
13.5134
7.2067
4.64446
8.24013
4.71047
2.90302
2.85464
3.89577
6.33049
3.28345
4.44932
7.83487
4.25178
2.78554
4.99329
2.90043
1.81477
1.7877
2.48048
4.03059
2.09118
2.8073
4.87417
2.59825
1.5378
1.506
2.0669
3.362
1.74999
2.39076
4.21366
2.28862
1.50013
2.68787
1.55952
0.971303
0.954473
1.30573
2.10757
1.07839
1.3951
2.38289
1.24488
0.727591
1.17872
0.612677
0.253833
0.21161
-0.0206398
-0.306879
-0.383793
-1.31641
-3.15468
-2.21646
-2.62395
-6.61044
-4.51598
-0.312453
-0.0802629
-0.0314941
-0.00880998
)
;
    }
    bottom
    {
        type            calculated;
        value           nonuniform List<scalar> 
64
(
0.00772406
0.0229362
0.0374621
0.0509148
0.063001
0.0735349
0.0824371
0.0897195
0.0954631
0.0997927
0.102855
0.1048
0.105775
0.105916
0.105351
0.104201
0.102582
0.100602
0.0983621
0.0959527
0.093448
0.0909057
0.0883663
0.0858543
0.0833817
0.0809506
0.0785563
0.0761896
0.0738368
0.0714812
0.0691035
0.0666829
0.0641998
0.0616371
0.0589822
0.0562277
0.0533699
0.0504077
0.0473396
0.0441619
0.0408674
0.0374454
0.0338841
0.0301731
0.0263075
0.0222918
0.0181432
0.0138948
0.00959704
0.00531878
0.00114712
-0.00281438
-0.00644904
-0.00963256
-0.0122409
-0.0141603
-0.0152981
-0.015594
-0.0150291
-0.0136311
-0.0114757
-0.00868258
-0.00540799
-0.00183595
)
;
    }
    defaultFaces
    {
        type            empty;
    }
}


// ************************************************************************* //
