/*--------------------------------*- C++ -*----------------------------------*\
| =========                 |                                                 |
| \\      /  F ield         | OpenFOAM: The Open Source CFD Toolbox           |
|  \\    /   O peration     | Version:  5.x                                   |
|   \\  /    A nd           | Web:      www.OpenFOAM.org                      |
|    \\/     M anipulation  |                                                 |
\*---------------------------------------------------------------------------*/
FoamFile
{
    version     2.0;
    format      ascii;
    class       volScalarField;
    location    "1.8999";
    object      gradTy;
}
// * * * * * * * * * * * * * * * * * * * * * * * * * * * * * * * * * * * * * //

dimensions      [0 -1 0 1 0 0 0];

internalField   nonuniform List<scalar> 
2048
(
-27.5128
-27.479
-27.4124
-27.3151
-27.1897
-27.0396
-26.8683
-26.6795
-26.4767
-26.263
-26.0414
-25.8146
-25.5847
-25.3537
-25.1233
-24.8949
-24.6696
-24.4484
-24.2318
-24.0204
-23.8143
-23.6139
-23.4189
-23.2295
-23.0455
-22.8668
-22.6934
-22.5252
-22.362
-22.204
-22.0511
-21.9034
-21.761
-21.624
-21.4928
-21.3674
-21.2481
-21.1351
-21.0287
-20.9291
-20.8365
-20.7512
-20.6735
-20.6037
-20.5421
-20.4891
-20.445
-20.4101
-20.3846
-20.3684
-20.3615
-20.3636
-20.3741
-20.3921
-20.4165
-20.4459
-20.4788
-20.5133
-20.5474
-20.5794
-20.6074
-20.6299
-20.6456
-20.6537
-27.5402
-27.5055
-27.4373
-27.3377
-27.2097
-27.0567
-26.8825
-26.6909
-26.4854
-26.2694
-26.0457
-25.817
-25.5855
-25.3532
-25.1217
-24.8924
-24.6664
-24.4446
-24.2276
-24.016
-23.8099
-23.6093
-23.4145
-23.2251
-23.0412
-22.8626
-22.6892
-22.521
-22.3579
-22.1998
-22.0469
-21.899
-21.7565
-21.6194
-21.488
-21.3624
-21.2429
-21.1298
-21.0232
-20.9234
-20.8306
-20.7451
-20.6671
-20.597
-20.5351
-20.4819
-20.4376
-20.4025
-20.3769
-20.3608
-20.3542
-20.3567
-20.3679
-20.3868
-20.4123
-20.4431
-20.4774
-20.5134
-20.5491
-20.5825
-20.6118
-20.6353
-20.6517
-20.6601
-27.5926
-27.5562
-27.4849
-27.3809
-27.2477
-27.0892
-26.9093
-26.7123
-26.5018
-26.2812
-26.0536
-25.8215
-25.587
-25.3522
-25.1185
-24.8874
-24.6601
-24.4373
-24.2196
-24.0076
-23.8013
-23.6008
-23.406
-23.2168
-23.033
-22.8546
-22.6813
-22.5132
-22.3501
-22.192
-22.0389
-21.8909
-21.7481
-21.6107
-21.4789
-21.353
-21.2332
-21.1197
-21.0128
-20.9126
-20.8194
-20.7334
-20.6549
-20.5843
-20.5219
-20.4681
-20.4234
-20.388
-20.3623
-20.3464
-20.3402
-20.3436
-20.356
-20.3767
-20.4043
-20.4376
-20.4747
-20.5137
-20.5523
-20.5885
-20.6202
-20.6457
-20.6635
-20.6726
-27.6678
-27.629
-27.5529
-27.4425
-27.3016
-27.1349
-26.9469
-26.742
-26.5244
-26.2975
-26.0643
-25.8273
-25.5887
-25.3503
-25.1137
-24.8802
-24.6509
-24.4267
-24.2081
-23.9956
-23.7891
-23.5886
-23.394
-23.205
-23.0215
-22.8432
-22.6702
-22.5022
-22.3391
-22.181
-22.0277
-21.8795
-21.7363
-21.5985
-21.4662
-21.3398
-21.2195
-21.1055
-20.998
-20.8973
-20.8036
-20.717
-20.6378
-20.5664
-20.5032
-20.4486
-20.4032
-20.3674
-20.3414
-20.3257
-20.3202
-20.3247
-20.3389
-20.362
-20.3927
-20.4297
-20.4708
-20.5141
-20.557
-20.5973
-20.6325
-20.6608
-20.6806
-20.6907
-27.7642
-27.722
-27.6396
-27.5205
-27.3696
-27.1921
-26.9934
-26.7785
-26.5519
-26.317
-26.0769
-25.834
-25.5902
-25.3474
-25.1071
-24.8705
-24.6389
-24.413
-24.1934
-23.9803
-23.7736
-23.5733
-23.3789
-23.1903
-23.0071
-22.8292
-22.6563
-22.4885
-22.3255
-22.1673
-22.0139
-21.8653
-21.7216
-21.5832
-21.4503
-21.3232
-21.2023
-21.0877
-20.9797
-20.8784
-20.7839
-20.6965
-20.6165
-20.5441
-20.4798
-20.4242
-20.3779
-20.3413
-20.315
-20.2994
-20.2946
-20.3005
-20.3169
-20.343
-20.3777
-20.4193
-20.4657
-20.5146
-20.5632
-20.6087
-20.6486
-20.6806
-20.703
-20.7144
-27.8808
-27.8343
-27.7437
-27.6137
-27.4499
-27.259
-27.0473
-26.8203
-26.5829
-26.3388
-26.0906
-25.8408
-25.5911
-25.3432
-25.0985
-24.8584
-24.6241
-24.3963
-24.1755
-23.9618
-23.7552
-23.5551
-23.3612
-23.173
-22.9903
-22.8127
-22.6402
-22.4725
-22.3097
-22.1514
-21.9978
-21.8488
-21.7046
-21.5654
-21.4317
-21.3038
-21.1821
-21.0668
-20.9582
-20.8562
-20.761
-20.6727
-20.5916
-20.5179
-20.4524
-20.3954
-20.3479
-20.3104
-20.2836
-20.2679
-20.2638
-20.2713
-20.2902
-20.3199
-20.3592
-20.4064
-20.4593
-20.5151
-20.5707
-20.6228
-20.6685
-20.7051
-20.7305
-20.7436
-28.0169
-27.9649
-27.8642
-27.7205
-27.5411
-27.3341
-27.1068
-26.8659
-26.6162
-26.3616
-26.1047
-25.8473
-25.5911
-25.3375
-25.088
-24.8439
-24.6064
-24.3765
-24.1546
-23.9405
-23.7341
-23.5345
-23.3412
-23.1537
-22.9715
-22.7943
-22.6221
-22.4548
-22.2921
-22.1338
-21.98
-21.8305
-21.6855
-21.5455
-21.4108
-21.282
-21.1594
-21.0434
-20.9341
-20.8314
-20.7354
-20.6461
-20.5637
-20.4886
-20.4215
-20.3629
-20.3139
-20.2751
-20.2475
-20.2317
-20.2282
-20.2373
-20.2589
-20.2926
-20.3373
-20.3911
-20.4516
-20.5157
-20.5796
-20.6396
-20.6922
-20.7342
-20.7634
-20.7783
-28.1721
-28.1134
-28.0002
-27.8398
-27.6417
-27.4156
-27.1705
-26.9136
-26.6505
-26.3846
-26.1183
-25.8529
-25.5898
-25.3301
-25.0752
-24.8267
-24.586
-24.3538
-24.1307
-23.9165
-23.7105
-23.5117
-23.3193
-23.1326
-22.951
-22.7743
-22.6025
-22.4355
-22.273
-22.1149
-21.9608
-21.8108
-21.665
-21.5238
-21.388
-21.258
-21.1345
-21.0177
-20.9077
-20.8044
-20.7076
-20.6173
-20.5335
-20.4568
-20.3877
-20.3272
-20.2763
-20.236
-20.2072
-20.191
-20.188
-20.1986
-20.2231
-20.2612
-20.3118
-20.3732
-20.4425
-20.5162
-20.59
-20.6593
-20.7198
-20.7681
-20.8016
-20.8187
-28.3464
-28.2795
-28.1511
-27.9707
-27.7503
-27.502
-27.2365
-26.9621
-26.6845
-26.4069
-26.1309
-25.8574
-25.587
-25.3208
-25.0602
-24.8069
-24.5626
-24.3281
-24.104
-23.8899
-23.6847
-23.4871
-23.2959
-23.1101
-22.9292
-22.753
-22.5817
-22.415
-22.2529
-22.0949
-21.9407
-21.79
-21.6432
-21.5007
-21.3635
-21.2323
-21.1077
-20.9901
-20.8796
-20.7757
-20.6782
-20.5867
-20.5015
-20.4229
-20.3516
-20.2888
-20.2356
-20.1934
-20.1632
-20.1462
-20.1434
-20.1555
-20.1829
-20.2255
-20.2827
-20.3524
-20.4318
-20.5166
-20.6018
-20.6818
-20.7516
-20.8071
-20.8454
-20.8648
-28.54
-28.4631
-28.3163
-28.112
-27.8654
-27.5916
-27.3033
-27.0098
-26.717
-26.4275
-26.142
-25.8603
-25.5826
-25.3097
-25.0429
-24.7844
-24.5361
-24.2994
-24.0745
-23.8609
-23.657
-23.461
-23.2713
-23.0866
-22.9064
-22.7307
-22.5598
-22.3936
-22.232
-22.0743
-21.9199
-21.7686
-21.6206
-21.4765
-21.3376
-21.2049
-21.0792
-20.9609
-20.8499
-20.7456
-20.6475
-20.555
-20.4682
-20.3874
-20.3136
-20.2481
-20.1923
-20.1477
-20.1157
-20.0976
-20.0947
-20.1079
-20.1381
-20.1856
-20.2497
-20.3287
-20.4193
-20.5168
-20.615
-20.7074
-20.7877
-20.8512
-20.8947
-20.9167
-28.7536
-28.6645
-28.4956
-28.2628
-27.9856
-27.6827
-27.3691
-27.0553
-26.7469
-26.4458
-26.1512
-25.8617
-25.5767
-25.2967
-25.0233
-24.7591
-24.5066
-24.2675
-24.0421
-23.8294
-23.6275
-23.4338
-23.2459
-23.0625
-22.883
-22.7076
-22.537
-22.3715
-22.2106
-22.0534
-21.899
-21.7469
-21.5974
-21.4515
-21.3106
-21.1761
-21.0492
-20.9303
-20.819
-20.7146
-20.616
-20.5226
-20.4341
-20.3509
-20.2742
-20.2056
-20.1467
-20.0993
-20.0651
-20.0455
-20.0421
-20.0562
-20.0889
-20.1411
-20.2125
-20.3016
-20.4048
-20.5166
-20.6298
-20.7363
-20.8284
-20.9006
-20.9497
-20.9744
-28.9879
-28.8841
-28.6885
-28.422
-28.1092
-27.7734
-27.4321
-27.0969
-26.7731
-26.4611
-26.1582
-25.8615
-25.5694
-25.2821
-25.0015
-24.731
-24.4739
-24.2323
-24.0067
-23.7958
-23.5966
-23.4057
-23.2201
-23.038
-22.8591
-22.6839
-22.5136
-22.3487
-22.1888
-22.0324
-21.8781
-21.7252
-21.5741
-21.4258
-21.2825
-21.146
-21.0178
-20.8983
-20.7871
-20.6829
-20.5842
-20.4898
-20.3995
-20.3138
-20.2338
-20.1615
-20.0991
-20.0485
-20.0117
-19.9902
-19.9859
-20.0004
-20.0353
-20.0921
-20.171
-20.2709
-20.3879
-20.5159
-20.6462
-20.7687
-20.874
-20.9557
-21.0105
-21.0378
-29.244
-29.1224
-28.8949
-28.5886
-28.2347
-27.8618
-27.4906
-27.1333
-26.7946
-26.4729
-26.163
-25.8599
-25.5609
-25.266
-24.9775
-24.6999
-24.4378
-24.1938
-23.9684
-23.76
-23.5645
-23.3772
-23.1943
-23.0137
-22.8352
-22.6598
-22.4895
-22.3254
-22.1668
-22.0116
-21.8577
-21.704
-21.5508
-21.3997
-21.2535
-21.1147
-20.9851
-20.8652
-20.7544
-20.6508
-20.5523
-20.4573
-20.3651
-20.2764
-20.1927
-20.1163
-20.0499
-19.9957
-19.9558
-19.932
-19.9262
-19.9406
-19.9772
-20.0383
-20.1248
-20.2362
-20.3684
-20.5144
-20.6641
-20.8049
-20.9249
-21.0165
-21.0771
-21.1069
-29.5232
-29.3801
-29.1146
-28.7613
-28.36
-27.946
-27.5426
-27.1628
-26.8103
-26.4808
-26.1657
-25.8572
-25.5516
-25.2488
-24.9515
-24.6659
-24.3982
-24.1517
-23.927
-23.722
-23.5314
-23.3488
-23.169
-22.9898
-22.8113
-22.6353
-22.4646
-22.3015
-22.1449
-21.9914
-21.8381
-21.6834
-21.5279
-21.3734
-21.2236
-21.0822
-20.9511
-20.831
-20.721
-20.6187
-20.5209
-20.4253
-20.3312
-20.2393
-20.1513
-20.0703
-19.9994
-19.9411
-19.8977
-19.8712
-19.8635
-19.8771
-19.9148
-19.9795
-20.0737
-20.197
-20.3458
-20.512
-20.6837
-20.8453
-20.9814
-21.0833
-21.1494
-21.1814
-29.8272
-29.658
-29.3474
-28.9388
-28.4832
-28.0237
-27.5863
-27.184
-26.8195
-26.4846
-26.1665
-25.8538
-25.5421
-25.2309
-24.9236
-24.6286
-24.3548
-24.1058
-23.8824
-23.682
-23.4977
-23.3208
-23.1446
-22.9667
-22.7879
-22.6104
-22.439
-22.2771
-22.123
-21.9721
-21.8196
-21.664
-21.5058
-21.3471
-21.1929
-21.0483
-20.9157
-20.7956
-20.6872
-20.5868
-20.4902
-20.3942
-20.2981
-20.2027
-20.1099
-20.0236
-19.9478
-19.8851
-19.8378
-19.8081
-19.798
-19.8101
-19.848
-19.9158
-20.0171
-20.153
-20.3196
-20.5082
-20.7051
-20.8904
-21.0442
-21.1565
-21.2272
-21.2608
-30.1577
-29.9572
-29.5932
-29.1198
-28.602
-28.093
-27.6198
-27.1954
-26.8213
-26.4844
-26.1659
-25.8504
-25.5327
-25.2129
-24.894
-24.5881
-24.3074
-24.0559
-23.8342
-23.64
-23.4637
-23.2939
-23.1216
-22.9449
-22.7652
-22.5851
-22.4121
-22.2518
-22.1014
-21.9539
-21.8027
-21.6461
-21.4847
-21.3208
-21.1612
-21.0131
-20.8788
-20.7591
-20.6528
-20.5553
-20.4607
-20.3646
-20.2663
-20.167
-20.0688
-19.9765
-19.8952
-19.8278
-19.7763
-19.7431
-19.73
-19.7399
-19.777
-19.8468
-19.9549
-20.1036
-20.2893
-20.5026
-20.7282
-20.9409
-21.114
-21.2361
-21.3104
-21.3446
-30.517
-30.2786
-29.8518
-29.3025
-28.7137
-28.1515
-27.6413
-27.1954
-26.8151
-26.4801
-26.1648
-25.8476
-25.5242
-25.1954
-24.8629
-24.5438
-24.2559
-24.0017
-23.7823
-23.5959
-23.4298
-23.2686
-23.1005
-22.9247
-22.7435
-22.5595
-22.3838
-22.2255
-22.0801
-21.9373
-21.7877
-21.6299
-21.4651
-21.2947
-21.1285
-20.9765
-20.8404
-20.7212
-20.6181
-20.5246
-20.4328
-20.3367
-20.2361
-20.1326
-20.0281
-19.929
-19.842
-19.7695
-19.7136
-19.6765
-19.66
-19.6669
-19.702
-19.7727
-19.8865
-20.0484
-20.2544
-20.4945
-20.753
-20.9978
-21.1917
-21.3226
-21.3984
-21.4322
-30.9076
-30.623
-30.1232
-29.485
-28.8154
-28.1973
-27.6493
-27.1825
-26.8001
-26.4722
-26.164
-25.846
-25.5172
-25.1795
-24.8304
-24.4954
-24.1999
-23.943
-23.7261
-23.5498
-23.3964
-23.2458
-23.0819
-22.9065
-22.7233
-22.5332
-22.3532
-22.1978
-22.0592
-21.9228
-21.7749
-21.6158
-21.4474
-21.2688
-21.0944
-20.9383
-20.8004
-20.6817
-20.583
-20.4949
-20.4069
-20.3108
-20.2077
-20.1
-19.9881
-19.8812
-19.7882
-19.7105
-19.6498
-19.6088
-19.5884
-19.5914
-19.6233
-19.6931
-19.8116
-19.9868
-20.2143
-20.483
-20.7794
-21.062
-21.2784
-21.4161
-21.491
-21.5226
-31.3324
-30.9913
-30.4078
-29.6653
-28.9034
-28.2284
-27.6423
-27.155
-26.776
-26.4611
-26.165
-25.8465
-25.5121
-25.1662
-24.7969
-24.4419
-24.1394
-23.8796
-23.665
-23.5016
-23.364
-23.2264
-23.0661
-22.8904
-22.7053
-22.5064
-22.3196
-22.1683
-22.0389
-21.911
-21.7646
-21.6041
-21.4322
-21.2434
-21.0584
-20.8985
-20.7586
-20.6404
-20.5475
-20.4664
-20.3837
-20.2873
-20.1814
-20.0694
-19.949
-19.8329
-19.734
-19.651
-19.5852
-19.5403
-19.5157
-19.514
-19.5411
-19.6083
-19.7297
-19.9184
-20.1685
-20.4671
-20.8071
-21.1354
-21.3753
-21.5168
-21.5872
-21.6148
-31.7948
-31.3836
-30.7061
-29.841
-28.9733
-28.2435
-27.6193
-27.1109
-26.7423
-26.4474
-26.1695
-25.8496
-25.5091
-25.1574
-24.7625
-24.3821
-24.0745
-23.8116
-23.5982
-23.4512
-23.3329
-23.2116
-23.0536
-22.8765
-22.6903
-22.4787
-22.2815
-22.1365
-22.0191
-21.9027
-21.7572
-21.5947
-21.4206
-21.2184
-21.02
-20.8571
-20.715
-20.5967
-20.5116
-20.4394
-20.3636
-20.2664
-20.1572
-20.0416
-19.9108
-19.7838
-19.6796
-19.5912
-19.52
-19.4714
-19.4424
-19.4351
-19.4559
-19.5181
-19.6403
-19.8428
-20.1166
-20.445
-20.8354
-21.22
-21.4843
-21.6247
-21.6863
-21.7074
-32.299
-31.7988
-31.0197
-30.0095
-29.0194
-28.2421
-27.5798
-27.0477
-26.699
-26.4316
-26.1802
-25.8557
-25.5078
-25.1553
-24.7273
-24.3141
-24.0058
-23.739
-23.5243
-23.3986
-23.3037
-23.2029
-23.0445
-22.8646
-22.6798
-22.45
-22.2374
-22.102
-22
-21.8991
-21.7526
-21.5874
-21.4136
-21.1939
-20.9778
-20.8143
-20.6697
-20.55
-20.4752
-20.4142
-20.3476
-20.2482
-20.1351
-20.0173
-19.8737
-19.7335
-19.6251
-19.5313
-19.4542
-19.4025
-19.3689
-19.3554
-19.3682
-19.4228
-19.5427
-19.7598
-20.0587
-20.4146
-20.8634
-21.319
-21.607
-21.7399
-21.7871
-21.7993
-32.85
-32.2346
-31.3514
-30.1679
-29.0344
-28.2248
-27.5241
-26.962
-26.6464
-26.4143
-26.2003
-25.8647
-25.5074
-25.1638
-24.6917
-24.2346
-23.9342
-23.6624
-23.4414
-23.3441
-23.2765
-23.2024
-23.0388
-22.854
-22.6758
-22.4201
-22.1845
-22.0643
-21.9817
-21.9019
-21.7509
-21.5817
-21.4132
-21.17
-20.9303
-20.7708
-20.623
-20.4991
-20.4385
-20.3908
-20.3369
-20.2327
-20.1145
-19.9975
-19.8377
-19.681
-19.5709
-19.4718
-19.3877
-19.334
-19.2958
-19.2755
-19.2784
-19.3226
-19.4359
-19.6691
-19.9954
-20.3727
-20.8893
-21.4366
-21.7457
-21.8617
-21.8883
-21.8888
-33.4545
-32.6852
-31.7064
-30.3132
-29.0081
-28.1944
-27.4533
-26.8491
-26.5855
-26.3955
-26.2349
-25.8761
-25.5053
-25.1879
-24.6557
-24.1389
-23.8621
-23.5827
-23.3465
-23.2883
-23.2513
-23.2133
-23.036
-22.843
-22.6817
-22.3891
-22.1195
-22.0235
-21.9637
-21.9135
-21.7515
-21.5761
-21.4221
-21.1467
-20.8748
-20.7277
-20.5753
-20.4425
-20.4018
-20.3691
-20.3328
-20.2196
-20.0948
-19.9839
-19.8028
-19.6249
-19.5176
-19.413
-19.3203
-19.2666
-19.2237
-19.1961
-19.1873
-19.2181
-19.3186
-19.5705
-19.9284
-20.3151
-20.9102
-21.5789
-21.9026
-21.9895
-21.9884
-21.9744
-34.1212
-33.1406
-32.0934
-30.442
-28.9267
-28.1568
-27.3698
-26.702
-26.5187
-26.3742
-26.2905
-25.8885
-25.4972
-25.2355
-24.6195
-24.0199
-23.7933
-23.5014
-23.2354
-23.2324
-23.2273
-23.2396
-23.0352
-22.8289
-22.7024
-22.3568
-22.0374
-21.9803
-21.9455
-21.9374
-21.7537
-21.5684
-21.4446
-21.1241
-20.8074
-20.687
-20.5274
-20.3778
-20.3658
-20.3489
-20.3378
-20.2084
-20.0743
-19.979
-19.7691
-19.5632
-19.4663
-19.3553
-19.2514
-19.2008
-19.1529
-19.1179
-19.0956
-19.11
-19.1891
-19.464
-19.8609
-20.2361
-20.9218
-21.7545
-22.0799
-22.1219
-22.0856
-22.0548
-34.8619
-33.5836
-32.5269
-30.5509
-28.7706
-28.1223
-27.2772
-26.5104
-26.4505
-26.3475
-26.3771
-25.8992
-25.476
-25.3181
-24.5831
-23.8671
-23.7343
-23.4209
-23.1015
-23.1791
-23.2027
-23.2874
-23.0346
-22.8071
-22.7451
-22.3231
-21.9314
-21.9366
-21.9253
-21.9786
-21.756
-21.5546
-21.4866
-21.102
-20.7223
-20.6521
-20.4804
-20.3014
-20.3318
-20.3289
-20.355
-20.1982
-20.0507
-19.9862
-19.7365
-19.4927
-19.4187
-19.2994
-19.1798
-19.1375
-19.0838
-19.0419
-19.004
-18.9998
-19.0445
-19.3493
-19.7984
-20.128
-20.9175
-21.9757
-22.2793
-22.2568
-22.1779
-22.1283
-35.6931
-33.9865
-33.0295
-30.6362
-28.5128
-28.1079
-27.181
-26.2594
-26.3893
-26.3094
-26.5086
-25.9043
-25.4304
-25.4525
-24.5465
-23.665
-23.695
-23.3445
-22.9355
-23.1332
-23.1733
-23.3656
-23.0317
-22.7705
-22.8205
-22.2879
-21.7919
-21.8962
-21.8998
-22.0445
-21.7561
-21.5288
-21.5571
-21.0804
-20.6113
-20.6284
-20.4362
-20.2083
-20.3024
-20.3071
-20.3889
-20.1876
-20.0202
-20.0108
-19.7048
-19.4089
-19.3775
-19.2459
-19.1039
-19.0781
-19.0166
-18.9687
-18.913
-18.8896
-18.8813
-19.2256
-19.7499
-19.9804
-20.8876
-22.2595
-22.5015
-22.3913
-22.2634
-22.1939
-36.638
-34.3069
-33.636
-30.6941
-28.1156
-28.1395
-27.0883
-25.9272
-26.3489
-26.2486
-26.7047
-25.8978
-25.3435
-25.6622
-24.5093
-23.3919
-23.6906
-23.2764
-22.7235
-23.1029
-23.1319
-23.4864
-23.0226
-22.7082
-22.9435
-22.2511
-21.6059
-21.8664
-21.8632
-22.1455
-21.751
-21.4817
-21.6688
-21.0591
-20.4626
-20.624
-20.397
-20.0911
-20.282
-20.2795
-20.4461
-20.1744
-19.9772
-20.0604
-19.6735
-19.3057
-19.3468
-19.1956
-19.0211
-19.0244
-18.9512
-18.8993
-18.8232
-18.7827
-18.6942
-19.0915
-19.729
-19.7799
-20.8184
-22.63
-22.745
-22.5215
-22.34
-22.2504
-37.729
-34.481
-34.3979
-30.7202
-27.527
-28.2555
-27.0083
-25.4825
-26.3518
-26.146
-26.9934
-25.8714
-25.1905
-25.9806
-24.471
-23.0172
-23.7433
-23.2223
-22.4461
-23.1019
-23.0665
-23.6675
-23.002
-22.6048
-23.1355
-22.212
-21.3554
-21.8587
-21.8054
-22.2962
-21.7361
-21.4002
-21.8395
-21.0376
-20.2597
-20.6508
-20.3657
-19.9391
-20.278
-20.2397
-20.536
-20.156
-19.9137
-20.1454
-19.642
-19.1742
-19.3327
-19.1494
-18.9277
-18.9791
-18.8868
-18.8349
-18.7345
-18.6843
-18.4762
-18.9439
-19.7559
-19.5088
-20.6903
-23.1203
-23.0053
-22.6428
-22.4059
-22.2973
-39.0108
-34.4163
-35.3899
-30.7095
-26.6766
-28.5108
-26.9521
-24.8817
-26.4329
-25.9711
-27.4138
-25.8138
-24.9367
-26.4537
-24.4302
-22.4991
-23.8849
-23.1893
-22.0758
-23.1514
-22.9575
-23.9335
-22.9627
-22.438
-23.4257
-22.1698
-21.0162
-21.892
-21.7104
-22.5174
-21.7054
-21.2655
-22.0936
-21.0153
-19.9799
-20.7258
-20.3462
-19.7377
-20.3016
-20.1772
-20.6715
-20.1282
-19.8183
-20.2806
-19.6093
-19.0025
-19.3443
-19.108
-18.8184
-18.9462
-18.8223
-18.7768
-18.6459
-18.6015
-18.2181
-18.7776
-19.859
-19.1447
-20.4764
-23.7757
-23.2727
-22.7496
-22.4594
-22.3341
-40.545
-33.982
-36.7173
-30.6558
-25.4697
-28.982
-26.9325
-24.0642
-26.645
-25.6765
-28.0199
-25.7104
-24.5335
-27.1434
-24.385
-21.7812
-24.1597
-23.1856
-21.5749
-23.2835
-22.775
-24.3184
-22.8952
-22.1771
-23.8536
-22.1225
-20.5556
-21.9944
-21.5535
-22.8374
-21.6512
-21.0518
-22.4645
-20.9912
-19.5929
-20.873
-20.3429
-19.4665
-20.3702
-20.076
-20.8706
-20.0861
-19.6753
-20.4858
-19.5737
-18.7747
-19.394
-19.072
-18.6858
-18.9317
-18.7554
-18.7269
-18.5555
-18.545
-17.9079
-18.5834
-20.0778
-18.6591
-20.1399
-24.6576
-23.5303
-22.836
-22.4994
-22.3608
-42.415
-32.9976
-38.5258
-30.5506
-23.7821
-29.7731
-26.964
-22.9484
-27.0648
-25.1923
-28.8846
-25.5421
-23.916
-28.1322
-24.3323
-20.7891
-24.6278
-23.2213
-20.8924
-23.5455
-22.4751
-24.8684
-22.7874
-21.781
-24.4717
-22.0673
-19.9307
-22.2073
-21.298
-23.2949
-21.5634
-20.7242
-22.9961
-20.9634
-19.0585
-21.1245
-20.3609
-19.098
-20.5091
-19.9128
-21.1579
-20.0228
-19.4637
-20.7877
-19.5328
-18.4698
-19.4992
-19.0415
-18.5202
-18.9435
-18.6824
-18.688
-18.4591
-18.5293
-17.5306
-18.3476
-20.4653
-18.0166
-19.632
-25.8472
-23.7505
-22.8968
-22.5255
-22.3777
-44.732
-31.219
-41.0123
-30.3823
-21.4522
-31.0227
-27.062
-21.4252
-27.8015
-24.4178
-30.1062
-25.285
-22.9981
-29.5275
-24.2677
-19.4264
-25.3696
-23.3073
-19.9605
-24.0045
-21.9947
-25.6455
-22.6244
-21.1952
-25.349
-21.9998
-19.0859
-22.5894
-20.8915
-23.942
-21.4298
-20.237
-23.7464
-20.9304
-18.3254
-21.5244
-20.407
-18.5965
-20.7551
-19.6546
-21.5671
-19.9311
-19.157
-21.2222
-19.4843
-18.0624
-19.6847
-19.0176
-18.3107
-18.995
-18.5996
-18.6658
-18.3523
-18.5762
-17.0699
-18.0517
-21.0945
-17.1766
-18.8911
-27.4542
-23.8953
-22.9308
-22.5409
-22.3887
)
;

boundaryField
{
    left
    {
        type            calculated;
        value           nonuniform List<scalar> 
32
(
-27.5128
-27.5402
-27.5926
-27.6678
-27.7642
-27.8808
-28.0169
-28.1721
-28.3464
-28.54
-28.7536
-28.9879
-29.244
-29.5232
-29.8272
-30.1577
-30.517
-30.9076
-31.3324
-31.7948
-32.299
-32.85
-33.4545
-34.1212
-34.8619
-35.6931
-36.638
-37.729
-39.0108
-40.545
-42.415
-44.732
)
;
    }
    right
    {
        type            calculated;
        value           nonuniform List<scalar> 
32
(
-20.6537
-20.6601
-20.6726
-20.6907
-20.7144
-20.7436
-20.7783
-20.8187
-20.8648
-20.9167
-20.9744
-21.0378
-21.1069
-21.1814
-21.2608
-21.3446
-21.4322
-21.5226
-21.6148
-21.7074
-21.7993
-21.8888
-21.9744
-22.0548
-22.1283
-22.1939
-22.2504
-22.2973
-22.3341
-22.3608
-22.3777
-22.3887
)
;
    }
    interface
    {
        type            calculated;
        value           nonuniform List<scalar> 
64
(
-46.0181
-30.0963
-42.4533
-30.2807
-20.1041
-31.7819
-27.1295
-20.5463
-28.2649
-23.9434
-30.8202
-25.1309
-22.4518
-30.342
-24.2317
-18.6389
-25.8203
-23.3644
-19.4225
-24.2932
-21.7002
-26.0996
-22.527
-20.8472
-25.8621
-21.9624
-18.6007
-22.8315
-20.6428
-24.3203
-21.35
-19.9472
-24.1845
-20.9124
-17.9021
-21.7678
-20.4381
-18.3075
-20.9104
-19.497
-21.807
-19.8773
-18.9762
-21.4779
-19.4579
-17.8296
-19.8012
-19.0075
-18.1935
-19.0328
-18.5553
-18.6599
-18.2958
-18.6188
-16.8168
-17.8862
-21.4802
-16.702
-18.4541
-28.378
-23.9434
-22.9416
-22.5469
-22.3936
)
;
    }
    bottom
    {
        type            calculated;
        value           nonuniform List<scalar> 
64
(
-27.5057
-27.4721
-27.406
-27.3092
-27.1845
-27.0351
-26.8646
-26.6766
-26.4744
-26.2613
-26.0403
-25.8139
-25.5844
-25.3538
-25.1237
-24.8956
-24.6705
-24.4494
-24.2329
-24.0215
-23.8155
-23.615
-23.4201
-23.2307
-23.0466
-22.868
-22.6945
-22.5263
-22.3631
-22.2051
-22.0522
-21.9045
-21.7621
-21.6252
-21.494
-21.3687
-21.2494
-21.1365
-21.0302
-20.9306
-20.8381
-20.7529
-20.6752
-20.6055
-20.544
-20.491
-20.447
-20.4121
-20.3866
-20.3704
-20.3634
-20.3654
-20.3757
-20.3934
-20.4176
-20.4467
-20.4792
-20.5132
-20.547
-20.5786
-20.6063
-20.6285
-20.6441
-20.652
)
;
    }
    defaultFaces
    {
        type            empty;
    }
}


// ************************************************************************* //
