/*--------------------------------*- C++ -*----------------------------------*\
| =========                 |                                                 |
| \\      /  F ield         | OpenFOAM: The Open Source CFD Toolbox           |
|  \\    /   O peration     | Version:  5.x                                   |
|   \\  /    A nd           | Web:      www.OpenFOAM.org                      |
|    \\/     M anipulation  |                                                 |
\*---------------------------------------------------------------------------*/
FoamFile
{
    version     2.0;
    format      ascii;
    class       volScalarField;
    location    "2.1999";
    object      gradTy;
}
// * * * * * * * * * * * * * * * * * * * * * * * * * * * * * * * * * * * * * //

dimensions      [0 -1 0 1 0 0 0];

internalField   nonuniform List<scalar> 
2048
(
-27.5104
-27.4766
-27.4099
-27.3125
-27.187
-27.0368
-26.8653
-26.6763
-26.4732
-26.2593
-26.0374
-25.8103
-25.58
-25.3487
-25.1178
-24.889
-24.6632
-24.4414
-24.2242
-24.0122
-23.8055
-23.6042
-23.4085
-23.2182
-23.0333
-22.8537
-22.6792
-22.5099
-22.3455
-22.1862
-22.032
-21.8828
-21.7389
-21.6004
-21.4675
-21.3403
-21.2192
-21.1043
-20.9959
-20.8942
-20.7994
-20.7119
-20.6318
-20.5596
-20.4955
-20.44
-20.3933
-20.3557
-20.3274
-20.3085
-20.2989
-20.2983
-20.3061
-20.3214
-20.3433
-20.3704
-20.4009
-20.4333
-20.4656
-20.496
-20.5227
-20.5442
-20.5592
-20.5669
-27.5378
-27.5031
-27.4348
-27.3352
-27.207
-27.0539
-26.8796
-26.6877
-26.482
-26.2657
-26.0418
-25.8127
-25.5809
-25.3482
-25.1163
-24.8865
-24.66
-24.4376
-24.2201
-24.0078
-23.801
-23.5998
-23.4041
-23.2139
-23.0291
-22.8495
-22.6751
-22.5058
-22.3415
-22.1821
-22.0278
-21.8786
-21.7346
-21.5959
-21.4628
-21.3355
-21.2141
-21.0991
-20.9905
-20.8886
-20.7936
-20.7058
-20.6255
-20.553
-20.4886
-20.4328
-20.3858
-20.3481
-20.3198
-20.301
-20.2916
-20.2914
-20.2999
-20.3161
-20.3391
-20.3674
-20.3994
-20.4333
-20.4671
-20.4989
-20.5268
-20.5493
-20.565
-20.5731
-27.5902
-27.5539
-27.4824
-27.3784
-27.2451
-27.0864
-26.9064
-26.7091
-26.4984
-26.2776
-26.0497
-25.8173
-25.5825
-25.3472
-25.1131
-24.8816
-24.6537
-24.4304
-24.2122
-23.9995
-23.7925
-23.5913
-23.3957
-23.2057
-23.021
-22.8416
-22.6673
-22.4981
-22.3338
-22.1744
-22.02
-21.8706
-21.7263
-21.5873
-21.4539
-21.3262
-21.2046
-21.0891
-20.9802
-20.8779
-20.7825
-20.6943
-20.6135
-20.5404
-20.4755
-20.4192
-20.3718
-20.3337
-20.3053
-20.2866
-20.2777
-20.2783
-20.288
-20.3059
-20.331
-20.3618
-20.3966
-20.4334
-20.4701
-20.5046
-20.5349
-20.5593
-20.5764
-20.5851
-27.6655
-27.6266
-27.5505
-27.44
-27.2991
-27.1322
-26.944
-26.7389
-26.5211
-26.2939
-26.0605
-25.8232
-25.5842
-25.3454
-25.1084
-24.8744
-24.6447
-24.4199
-24.2008
-23.9876
-23.7805
-23.5793
-23.3839
-23.1941
-23.0096
-22.8305
-22.6564
-22.4872
-22.323
-22.1636
-22.009
-21.8594
-21.7147
-21.5753
-21.4414
-21.3132
-21.191
-21.0751
-20.9657
-20.8629
-20.767
-20.6781
-20.5966
-20.5227
-20.457
-20.3999
-20.3518
-20.3133
-20.2846
-20.2661
-20.2577
-20.2595
-20.2709
-20.2912
-20.3193
-20.3536
-20.3924
-20.4334
-20.4743
-20.5128
-20.5467
-20.5739
-20.5929
-20.6026
-27.762
-27.7198
-27.6373
-27.5182
-27.3671
-27.1894
-26.9906
-26.7756
-26.5487
-26.3136
-26.0732
-25.8299
-25.5858
-25.3426
-25.1019
-24.8649
-24.6328
-24.4064
-24.1862
-23.9725
-23.7652
-23.5641
-23.369
-23.1795
-22.9955
-22.8166
-22.6427
-22.4738
-22.3096
-22.1502
-21.9954
-21.8454
-21.7003
-21.5603
-21.4258
-21.2969
-21.1742
-21.0577
-20.9476
-20.8443
-20.7476
-20.658
-20.5755
-20.5007
-20.4339
-20.3757
-20.3267
-20.2874
-20.2584
-20.2399
-20.2323
-20.2354
-20.2489
-20.2722
-20.3041
-20.343
-20.3869
-20.4334
-20.4799
-20.5236
-20.562
-20.5929
-20.6145
-20.6255
-27.8787
-27.8322
-27.7416
-27.6114
-27.4475
-27.2565
-27.0446
-26.8175
-26.5798
-26.3354
-26.087
-25.8369
-25.5869
-25.3386
-25.0935
-24.853
-24.6181
-24.3898
-24.1684
-23.9542
-23.7469
-23.5462
-23.3515
-23.1625
-22.9789
-22.8004
-22.6268
-22.4581
-22.2941
-22.1346
-21.9797
-21.8293
-21.6836
-21.5429
-21.4075
-21.2779
-21.1543
-21.0372
-20.9265
-20.8225
-20.7251
-20.6345
-20.551
-20.4749
-20.4068
-20.3473
-20.297
-20.2568
-20.2271
-20.2086
-20.2016
-20.2062
-20.2222
-20.249
-20.2854
-20.3299
-20.3801
-20.4334
-20.4868
-20.537
-20.5811
-20.6164
-20.6411
-20.6538
-28.0149
-27.9629
-27.8621
-27.7183
-27.5388
-27.3316
-27.1043
-26.8631
-26.6133
-26.3584
-26.1012
-25.8435
-25.587
-25.333
-25.0831
-24.8386
-24.6007
-24.3702
-24.1477
-23.9331
-23.726
-23.5258
-23.3318
-23.1434
-22.9603
-22.7823
-22.6091
-22.4407
-22.2768
-22.1174
-21.9622
-21.8113
-21.6649
-21.5233
-21.387
-21.2564
-21.132
-21.0141
-20.9028
-20.7981
-20.6999
-20.6083
-20.5236
-20.446
-20.3763
-20.3151
-20.2633
-20.2218
-20.1913
-20.1726
-20.1662
-20.1723
-20.191
-20.2216
-20.2633
-20.3142
-20.372
-20.4334
-20.495
-20.5529
-20.6038
-20.6445
-20.6729
-20.6874
-28.1702
-28.1115
-27.9982
-27.8378
-27.6395
-27.4133
-27.168
-26.911
-26.6477
-26.3816
-26.1149
-25.8493
-25.5858
-25.3257
-25.0705
-24.8216
-24.5803
-24.3477
-24.1241
-23.9093
-23.7027
-23.5032
-23.3101
-23.1226
-22.9402
-22.7626
-22.5898
-22.4217
-22.2582
-22.0988
-21.9434
-21.792
-21.6447
-21.502
-21.3645
-21.2329
-21.1075
-20.9889
-20.8769
-20.7715
-20.6726
-20.58
-20.4938
-20.4146
-20.343
-20.2798
-20.2261
-20.183
-20.1514
-20.1322
-20.1262
-20.1338
-20.1552
-20.1902
-20.2377
-20.296
-20.3623
-20.4333
-20.5045
-20.5716
-20.6304
-20.6773
-20.7099
-20.7265
-28.3446
-28.2777
-28.1492
-27.9688
-27.7483
-27.4998
-27.2342
-26.9596
-26.6818
-26.4039
-26.1277
-25.8539
-25.5832
-25.3166
-25.0557
-24.802
-24.5571
-24.3222
-24.0976
-23.8829
-23.6771
-23.4789
-23.287
-23.1004
-22.9187
-22.7416
-22.5693
-22.4017
-22.2384
-22.0792
-21.9237
-21.7717
-21.6234
-21.4794
-21.3405
-21.2075
-21.0812
-20.9618
-20.8492
-20.7433
-20.6436
-20.55
-20.4623
-20.3812
-20.3073
-20.2418
-20.1859
-20.1408
-20.1077
-20.0877
-20.0819
-20.0908
-20.1151
-20.1545
-20.2084
-20.2749
-20.3511
-20.4329
-20.5154
-20.5931
-20.661
-20.715
-20.7523
-20.7713
-28.5384
-28.4615
-28.3146
-28.1102
-27.8635
-27.5895
-27.3011
-27.0075
-26.7145
-26.4247
-26.1389
-25.857
-25.579
-25.3057
-25.0385
-24.7796
-24.5309
-24.2937
-24.0683
-23.8541
-23.6497
-23.4531
-23.2627
-23.0772
-22.8962
-22.7197
-22.5478
-22.3806
-22.2179
-22.0591
-21.9034
-21.7507
-21.6012
-21.4556
-21.3151
-21.1806
-21.0532
-20.933
-20.8201
-20.7138
-20.6135
-20.5188
-20.4296
-20.3463
-20.2698
-20.2016
-20.143
-20.0955
-20.0606
-20.0395
-20.0335
-20.0436
-20.0705
-20.1145
-20.1752
-20.2508
-20.3381
-20.4323
-20.5277
-20.6176
-20.6958
-20.7577
-20.8002
-20.8217
-28.7522
-28.663
-28.494
-28.2611
-27.9838
-27.6807
-27.367
-27.053
-26.7445
-26.4431
-26.1483
-25.8585
-25.5732
-25.2929
-25.0191
-24.7545
-24.5016
-24.262
-24.0361
-23.8229
-23.6205
-23.4261
-23.2376
-23.0534
-22.8731
-22.697
-22.5254
-22.3589
-22.1969
-22.0386
-21.8829
-21.7295
-21.5785
-21.431
-21.2885
-21.1523
-21.0237
-20.9029
-20.7897
-20.6833
-20.5826
-20.4869
-20.396
-20.3103
-20.231
-20.1595
-20.0978
-20.0475
-20.0103
-19.9878
-19.9813
-19.9921
-20.0215
-20.0702
-20.138
-20.2234
-20.323
-20.4314
-20.5414
-20.6452
-20.7352
-20.8057
-20.8537
-20.8778
-28.9866
-28.8827
-28.6871
-28.4205
-28.1076
-27.7716
-27.4302
-27.0948
-26.7708
-26.4586
-26.1554
-25.8585
-25.5661
-25.2784
-24.9975
-24.7266
-24.469
-24.227
-24.001
-23.7895
-23.5898
-23.3984
-23.2121
-23.0293
-22.8497
-22.6736
-22.5024
-22.3365
-22.1756
-22.018
-21.8625
-21.7083
-21.5556
-21.4059
-21.2609
-21.1227
-20.9928
-20.8715
-20.7584
-20.6522
-20.5514
-20.4548
-20.3621
-20.2738
-20.1911
-20.116
-20.0507
-19.9972
-19.9573
-19.9329
-19.9254
-19.9366
-19.9681
-20.0213
-20.0964
-20.1924
-20.3056
-20.4298
-20.5567
-20.6763
-20.7793
-20.8591
-20.9129
-20.9396
-29.2428
-29.1211
-28.8936
-28.5872
-28.2332
-27.8602
-27.4888
-27.1313
-26.7924
-26.4705
-26.1604
-25.8571
-25.5578
-25.2625
-24.9737
-24.6957
-24.4332
-24.1887
-23.9629
-23.754
-23.558
-23.3702
-23.1866
-23.0053
-22.8261
-22.6499
-22.4787
-22.3137
-22.1541
-21.9978
-21.8426
-21.6875
-21.5329
-21.3803
-21.2324
-21.0919
-20.9606
-20.8389
-20.7262
-20.6208
-20.5202
-20.4229
-20.3284
-20.2371
-20.1506
-20.0713
-20.002
-19.9448
-19.9019
-19.8751
-19.8662
-19.8773
-19.9104
-19.9676
-20.0502
-20.1574
-20.2855
-20.4275
-20.5735
-20.7111
-20.8285
-20.9183
-20.9777
-21.007
-29.5222
-29.379
-29.1135
-28.76
-28.3586
-27.9445
-27.5409
-27.161
-26.8083
-26.4786
-26.1632
-25.8545
-25.5487
-25.2455
-24.9478
-24.6618
-24.3937
-24.1468
-23.9217
-23.7163
-23.5252
-23.342
-23.1616
-22.9818
-22.8026
-22.6257
-22.4543
-22.2903
-22.1326
-21.9781
-21.8235
-21.6675
-21.5106
-21.3545
-21.203
-21.0598
-20.927
-20.8052
-20.6935
-20.5893
-20.4895
-20.3917
-20.2951
-20.2006
-20.1098
-20.0258
-19.9519
-19.8907
-19.8443
-19.8148
-19.804
-19.8143
-19.8484
-19.9092
-19.9991
-20.118
-20.2623
-20.4241
-20.5919
-20.75
-20.8834
-20.9834
-21.0482
-21.0797
-29.8263
-29.6571
-29.3464
-28.9377
-28.482
-28.0224
-27.5847
-27.1823
-26.8177
-26.4826
-26.1642
-25.8513
-25.5393
-25.2278
-24.9201
-24.6248
-24.3505
-24.1011
-23.8773
-23.6766
-23.4918
-23.3144
-23.1376
-22.9591
-22.7796
-22.6012
-22.429
-22.2662
-22.1113
-21.9593
-21.8056
-21.6487
-21.4889
-21.3286
-21.1727
-21.0265
-20.8921
-20.7704
-20.6602
-20.558
-20.4595
-20.3614
-20.2628
-20.1647
-20.069
-19.9797
-19.9008
-19.8351
-19.7849
-19.7522
-19.739
-19.7478
-19.7821
-19.8458
-19.9427
-20.0738
-20.2355
-20.4194
-20.6119
-20.7935
-20.9444
-21.0547
-21.1242
-21.1572
-30.1569
-29.9564
-29.5923
-29.1188
-28.6009
-28.0917
-27.6184
-27.1938
-26.8196
-26.4825
-26.1639
-25.8481
-25.5301
-25.21
-24.8907
-24.5844
-24.3034
-24.0514
-23.8294
-23.6348
-23.4581
-23.2878
-23.1149
-22.9377
-22.7572
-22.5764
-22.4026
-22.2414
-22.0901
-21.9416
-21.7892
-21.6313
-21.4684
-21.3028
-21.1416
-20.9917
-20.8557
-20.7343
-20.6265
-20.5273
-20.4308
-20.3325
-20.2318
-20.1297
-20.0285
-19.9331
-19.8487
-19.7782
-19.7238
-19.6877
-19.6717
-19.6783
-19.7117
-19.7773
-19.8807
-20.0243
-20.2047
-20.4128
-20.6337
-20.8424
-21.0124
-21.1324
-21.2055
-21.2392
-30.5164
-30.2779
-29.8511
-29.3017
-28.7127
-28.1504
-27.6401
-27.194
-26.8135
-26.4784
-26.1629
-25.8454
-25.5219
-25.1927
-24.8598
-24.5403
-24.252
-23.9974
-23.7776
-23.591
-23.4245
-23.2629
-23.0942
-22.9178
-22.7359
-22.5511
-22.3746
-22.2155
-22.0693
-21.9256
-21.7748
-21.6157
-21.4493
-21.2772
-21.1093
-20.9555
-20.8178
-20.6969
-20.5923
-20.4973
-20.4037
-20.3054
-20.2024
-20.0961
-19.9884
-19.8861
-19.7959
-19.7204
-19.6615
-19.6217
-19.6023
-19.606
-19.6374
-19.7037
-19.8126
-19.969
-20.1693
-20.4037
-20.657
-20.8974
-21.0881
-21.2169
-21.2916
-21.3249
-30.9072
-30.6226
-30.1227
-29.4843
-28.8145
-28.1963
-27.6482
-27.1812
-26.7987
-26.4707
-26.1623
-25.8441
-25.515
-25.1769
-24.8275
-24.492
-24.1962
-23.9389
-23.7216
-23.5451
-23.3914
-23.2404
-23.076
-22.8999
-22.7161
-22.5253
-22.3444
-22.1883
-22.0489
-21.9116
-21.7626
-21.6022
-21.4322
-21.2519
-21.0756
-20.9177
-20.7781
-20.6579
-20.5578
-20.4682
-20.3786
-20.2804
-20.1749
-20.0642
-19.9491
-19.8387
-19.7426
-19.6618
-19.5982
-19.5545
-19.5314
-19.5313
-19.5595
-19.6249
-19.7382
-19.9074
-20.1287
-20.3913
-20.6819
-20.9597
-21.1726
-21.3083
-21.3822
-21.4134
-31.3321
-30.991
-30.4074
-29.6648
-28.9026
-28.2275
-27.6413
-27.1539
-26.7747
-26.4597
-26.1634
-25.8448
-25.5101
-25.1639
-24.7942
-24.4387
-24.1359
-23.8757
-23.6608
-23.4971
-23.3592
-23.2213
-23.0606
-22.8842
-22.6985
-22.4987
-22.3111
-22.1592
-22.029
-21.9004
-21.753
-21.5911
-21.4177
-21.227
-21.0401
-20.8783
-20.7367
-20.6171
-20.5228
-20.4405
-20.3562
-20.2578
-20.1494
-20.0345
-19.9106
-19.7909
-19.6887
-19.6026
-19.5339
-19.4865
-19.4595
-19.4548
-19.4782
-19.5408
-19.6569
-19.8391
-20.0824
-20.3744
-20.7081
-21.031
-21.2673
-21.4068
-21.4764
-21.5037
-31.7947
-31.3834
-30.7059
-29.8406
-28.9727
-28.2428
-27.6184
-27.1099
-26.7412
-26.4461
-26.1682
-25.8481
-25.5072
-25.1552
-24.7599
-24.3791
-24.0711
-23.8078
-23.5941
-23.4469
-23.3284
-23.2068
-23.0484
-22.8708
-22.6839
-22.4714
-22.2734
-22.1278
-22.0098
-21.8927
-21.7461
-21.5823
-21.4066
-21.2025
-21.002
-20.8373
-20.6935
-20.5738
-20.4875
-20.4143
-20.3371
-20.2379
-20.1262
-20.0076
-19.8731
-19.7422
-19.6346
-19.543
-19.469
-19.4181
-19.3869
-19.3769
-19.394
-19.4515
-19.5682
-19.7637
-20.03
-20.3513
-20.7348
-21.1133
-21.3738
-21.5126
-21.5735
-21.5946
-32.2991
-31.7989
-31.0196
-30.0092
-29.0189
-28.2414
-27.579
-27.0468
-26.698
-26.4305
-26.179
-25.8543
-25.5062
-25.1534
-24.7249
-24.3112
-24.0025
-23.7354
-23.5203
-23.3946
-23.2995
-23.1985
-23.0397
-22.8593
-22.6737
-22.443
-22.2295
-22.0936
-21.9912
-21.8897
-21.7422
-21.5757
-21.4003
-21.1785
-20.9601
-20.7949
-20.6486
-20.5273
-20.4516
-20.3898
-20.3221
-20.2207
-20.105
-19.9842
-19.8366
-19.6922
-19.5804
-19.4834
-19.4034
-19.3497
-19.3143
-19.2984
-19.3074
-19.3573
-19.4715
-19.6809
-19.9716
-20.3199
-20.7611
-21.2098
-21.494
-21.6254
-21.6724
-21.6847
-32.8503
-32.2347
-31.3515
-30.1677
-29.034
-28.2242
-27.5234
-26.9612
-26.6455
-26.4134
-26.1994
-25.8636
-25.506
-25.162
-24.6894
-24.2318
-23.9311
-23.6589
-23.4376
-23.3403
-23.2726
-23.1984
-23.0344
-22.849
-22.6702
-22.4135
-22.1769
-22.0563
-21.9733
-21.8932
-21.7411
-21.5706
-21.4006
-21.1551
-20.9128
-20.7516
-20.6021
-20.4767
-20.4155
-20.3671
-20.3124
-20.2062
-20.0855
-19.9656
-19.8012
-19.6399
-19.5265
-19.4241
-19.337
-19.2818
-19.2421
-19.2198
-19.2188
-19.2582
-19.3658
-19.5906
-19.9077
-20.2772
-20.7852
-21.3246
-21.6299
-21.745
-21.7718
-21.7726
-33.455
-32.6855
-31.7066
-30.3131
-29.0078
-28.1939
-27.4527
-26.8483
-26.5847
-26.3948
-26.2341
-25.8751
-25.504
-25.1864
-24.6536
-24.1362
-23.8591
-23.5793
-23.3428
-23.2846
-23.2477
-23.2097
-23.0319
-22.8384
-22.6766
-22.3828
-22.112
-22.0158
-21.9559
-21.9055
-21.7424
-21.5657
-21.4104
-21.1323
-20.8575
-20.7088
-20.5546
-20.4202
-20.3792
-20.3463
-20.3096
-20.1941
-20.0668
-19.9532
-19.7671
-19.5838
-19.4735
-19.3654
-19.2695
-19.2148
-19.1709
-19.142
-19.129
-19.1548
-19.25
-19.4925
-19.84
-20.2189
-20.8044
-21.4638
-21.7838
-21.8705
-21.8701
-21.8567
-34.1218
-33.1411
-32.0937
-30.442
-28.9264
-28.1564
-27.3692
-26.7012
-26.518
-26.3736
-26.29
-25.8877
-25.4962
-25.2343
-24.6176
-24.0173
-23.7905
-23.4982
-23.2317
-23.2289
-23.224
-23.2364
-23.0315
-22.8246
-22.6978
-22.3507
-22.03
-21.9729
-21.9381
-21.9302
-21.7453
-21.5586
-21.4338
-21.1101
-20.79
-20.6685
-20.5069
-20.3554
-20.3436
-20.3268
-20.3159
-20.184
-20.0473
-19.9498
-19.734
-19.5219
-19.4226
-19.3078
-19.2002
-19.1494
-19.1011
-19.0656
-19.0387
-19.0479
-19.1224
-19.3865
-19.7715
-20.1394
-20.8144
-21.6358
-21.9579
-22.0005
-21.9656
-21.9357
-34.8627
-33.5842
-32.5274
-30.551
-28.7704
-28.122
-27.2767
-26.5097
-26.45
-26.347
-26.3768
-25.8986
-25.4751
-25.3172
-24.5814
-23.8644
-23.7316
-23.4178
-23.0979
-23.1758
-23.1996
-23.2848
-23.0313
-22.8032
-22.7411
-22.3173
-21.9239
-21.9295
-21.9184
-21.9723
-21.7482
-21.5455
-21.4769
-21.0885
-20.7048
-20.634
-20.4601
-20.2788
-20.3101
-20.3076
-20.3346
-20.1749
-20.0245
-19.9589
-19.7021
-19.4508
-19.3754
-19.252
-19.128
-19.0867
-19.0329
-18.9917
-18.9484
-18.9387
-18.9803
-19.2724
-19.7076
-20.0312
-20.8086
-21.8526
-22.1537
-22.1331
-22.0564
-22.008
-35.6941
-33.9874
-33.0302
-30.6365
-28.5126
-28.1077
-27.1805
-26.2587
-26.3888
-26.309
-26.5085
-25.9038
-25.4297
-25.4519
-24.5449
-23.6623
-23.6924
-23.3414
-22.9317
-23.13
-23.1704
-23.3635
-23.0287
-22.7668
-22.8172
-22.2824
-21.7842
-21.8894
-21.8933
-22.0393
-21.749
-21.5201
-21.5489
-21.0673
-20.5932
-20.6108
-20.4161
-20.1851
-20.2812
-20.2865
-20.3704
-20.1653
-19.9947
-19.9858
-19.6709
-19.3659
-19.3349
-19.1987
-19.051
-19.0278
-18.9665
-18.9211
-18.8588
-18.8293
-18.8204
-19.1495
-19.6571
-19.8841
-20.7775
-22.1313
-22.3721
-22.2654
-22.1405
-22.0726
-36.6393
-34.3078
-33.6369
-30.6944
-28.1153
-28.1395
-27.0879
-25.9264
-26.3485
-26.2483
-26.7049
-25.8975
-25.3429
-25.6621
-24.5079
-23.3889
-23.6883
-23.2734
-22.7195
-23.1
-23.1293
-23.485
-23.02
-22.7047
-22.9412
-22.2458
-21.5976
-21.8598
-21.857
-22.1415
-21.7444
-21.4733
-21.6624
-21.0465
-20.4435
-20.6071
-20.3771
-20.0669
-20.2614
-20.2594
-20.4299
-20.1531
-19.9521
-20.0384
-19.6403
-19.2608
-19.3053
-19.1487
-18.9664
-18.9748
-18.9016
-18.8551
-18.7702
-18.7228
-18.6377
-19.0163
-19.6331
-19.685
-20.7075
-22.4953
-22.6116
-22.3936
-22.216
-22.1284
-37.7304
-34.482
-34.3991
-30.7207
-27.5267
-28.2556
-27.008
-25.4816
-26.3515
-26.1458
-26.994
-25.8713
-25.19
-25.9812
-24.4697
-23.0139
-23.7413
-23.2195
-22.4417
-23.0993
-23.064
-23.667
-22.9996
-22.6013
-23.1345
-22.207
-21.3462
-21.8526
-21.7993
-22.2939
-21.73
-21.3917
-21.8354
-21.0255
-20.2389
-20.6351
-20.3463
-19.9134
-20.2582
-20.2198
-20.5227
-20.1354
-19.8883
-20.1275
-19.6096
-19.1263
-19.293
-19.1029
-18.8702
-18.9306
-18.8374
-18.7951
-18.6825
-18.6239
-18.4257
-18.8697
-19.6553
-19.4167
-20.5794
-22.9775
-22.8678
-22.513
-22.281
-22.1746
-39.0124
-34.4174
-35.3914
-30.7101
-26.6761
-28.5111
-26.9519
-24.8806
-26.4328
-25.9709
-27.4149
-25.8139
-24.936
-26.455
-24.4291
-22.4952
-23.8835
-23.1866
-22.0708
-23.1491
-22.9549
-23.9341
-22.9605
-22.4342
-23.4263
-22.165
-21.0055
-21.8865
-21.7042
-22.5172
-21.6997
-21.2565
-22.0928
-21.0038
-19.9565
-20.7119
-20.3273
-19.7096
-20.283
-20.157
-20.6621
-20.1082
-19.7918
-20.2682
-19.5776
-18.9499
-19.3074
-19.0622
-18.7568
-18.8996
-18.7724
-18.7428
-18.5947
-18.5393
-18.1759
-18.7045
-19.7514
-19.0572
-20.3663
-23.6225
-23.1311
-22.6183
-22.3339
-22.211
-40.5469
-33.9831
-36.7192
-30.6565
-25.469
-28.9825
-26.9325
-24.0628
-26.6451
-25.6762
-28.0216
-25.7105
-24.5327
-27.1458
-24.3841
-21.7764
-24.1589
-23.1833
-21.5691
-23.2818
-22.7722
-24.3205
-22.8932
-22.1727
-23.8564
-22.118
-20.5429
-21.9899
-21.5467
-22.84
-21.6457
-21.0415
-22.468
-20.9802
-19.5656
-20.8617
-20.3248
-19.4348
-20.3536
-20.0548
-20.8663
-20.0664
-19.6464
-20.481
-19.5429
-18.7153
-19.3614
-19.0273
-18.6183
-18.888
-18.7036
-18.7007
-18.5045
-18.479
-17.877
-18.5117
-19.9598
-18.5789
-20.0321
-24.4906
-23.3848
-22.7036
-22.3736
-22.2375
-42.4173
-32.9986
-38.5281
-30.5514
-23.7809
-29.774
-26.9641
-22.9465
-27.0653
-25.1918
-28.8872
-25.5423
-23.9147
-28.136
-24.3316
-20.783
-24.6281
-23.2192
-20.8852
-23.5445
-22.4717
-24.8724
-22.7854
-21.7754
-24.4776
-22.063
-19.915
-22.2044
-21.29
-23.3012
-21.5579
-20.7116
-23.0054
-20.9531
-19.0255
-21.1172
-20.3441
-19.0611
-20.4955
-19.8892
-21.1604
-20.003
-19.4305
-20.7932
-19.5029
-18.4005
-19.4732
-18.9986
-18.4442
-18.9047
-18.6268
-18.6723
-18.4078
-18.4566
-17.5152
-18.2775
-20.3324
-17.9475
-19.5282
-25.6622
-23.6019
-22.7637
-22.3995
-22.2544
-44.7345
-31.2198
-41.0152
-30.3832
-21.4502
-31.0241
-27.0622
-21.4225
-27.8023
-24.4168
-30.1096
-25.285
-22.9957
-29.5329
-24.267
-19.418
-25.371
-23.3054
-19.951
-24.0045
-21.9897
-25.6516
-22.6218
-21.187
-25.3584
-21.9952
-19.0653
-22.5884
-20.8803
-23.9525
-21.4231
-20.2195
-23.7627
-20.9197
-18.2828
-21.5214
-20.3904
-18.5505
-20.7445
-19.6248
-21.5769
-19.9086
-19.1143
-21.2394
-19.4528
-17.9759
-19.6652
-18.9741
-18.219
-18.9602
-18.5333
-18.6606
-18.2958
-18.4883
-17.0713
-17.9787
-20.9346
-17.1181
-18.788
-27.2389
-23.7383
-22.7911
-22.4086
-22.259
)
;

boundaryField
{
    left
    {
        type            calculated;
        value           nonuniform List<scalar> 
32
(
-27.5104
-27.5378
-27.5902
-27.6655
-27.762
-27.8787
-28.0149
-28.1702
-28.3446
-28.5384
-28.7522
-28.9866
-29.2428
-29.5222
-29.8263
-30.1569
-30.5164
-30.9072
-31.3321
-31.7947
-32.2991
-32.8503
-33.455
-34.1218
-34.8627
-35.6941
-36.6393
-37.7304
-39.0124
-40.5469
-42.4173
-44.7345
)
;
    }
    right
    {
        type            calculated;
        value           nonuniform List<scalar> 
32
(
-20.5669
-20.5731
-20.5851
-20.6026
-20.6255
-20.6538
-20.6874
-20.7265
-20.7713
-20.8217
-20.8778
-20.9396
-21.007
-21.0797
-21.1572
-21.2392
-21.3249
-21.4134
-21.5037
-21.5946
-21.6847
-21.7726
-21.8567
-21.9357
-22.008
-22.0726
-22.1284
-22.1746
-22.211
-22.2375
-22.2544
-22.259
)
;
    }
    interface
    {
        type            calculated;
        value           nonuniform List<scalar> 
64
(
-46.0207
-30.0968
-42.4564
-30.2815
-20.1016
-31.7835
-27.1297
-20.543
-28.266
-23.9419
-30.8241
-25.1307
-22.4487
-30.3483
-24.231
-18.629
-25.8223
-23.3625
-19.4116
-24.2936
-21.694
-26.1069
-22.5238
-20.8372
-25.8734
-21.9574
-18.5769
-22.8313
-20.6293
-24.3329
-21.3421
-19.9262
-24.2044
-20.9009
-17.8532
-21.7667
-20.4209
-18.2555
-20.9009
-19.4626
-21.8203
-19.8522
-18.9269
-21.5008
-19.4244
-17.7318
-19.7844
-18.9623
-18.0912
-18.999
-18.4809
-18.6592
-18.2344
-18.5198
-16.8259
-17.8094
-21.3021
-16.6474
-18.349
-28.1425
-23.7794
-22.7954
-22.4081
-22.2575
)
;
    }
    bottom
    {
        type            calculated;
        value           nonuniform List<scalar> 
64
(
-27.5033
-27.4697
-27.4035
-27.3066
-27.1818
-27.0323
-26.8616
-26.6733
-26.4709
-26.2576
-26.0363
-25.8096
-25.5798
-25.3488
-25.1182
-24.8896
-24.664
-24.4424
-24.2253
-24.0133
-23.8066
-23.6054
-23.4097
-23.2194
-23.0345
-22.8548
-22.6803
-22.5109
-22.3466
-22.1873
-22.0331
-21.884
-21.7401
-21.6016
-21.4687
-21.3416
-21.2205
-21.1057
-20.9973
-20.8957
-20.801
-20.7135
-20.6335
-20.5613
-20.4973
-20.4418
-20.3952
-20.3576
-20.3294
-20.3105
-20.3008
-20.3001
-20.3077
-20.3228
-20.3444
-20.3711
-20.4013
-20.4333
-20.4652
-20.4952
-20.5216
-20.5428
-20.5577
-20.5653
)
;
    }
    defaultFaces
    {
        type            empty;
    }
}


// ************************************************************************* //
