/*--------------------------------*- C++ -*----------------------------------*\
| =========                 |                                                 |
| \\      /  F ield         | OpenFOAM: The Open Source CFD Toolbox           |
|  \\    /   O peration     | Version:  5.x                                   |
|   \\  /    A nd           | Web:      www.OpenFOAM.org                      |
|    \\/     M anipulation  |                                                 |
\*---------------------------------------------------------------------------*/
FoamFile
{
    version     2.0;
    format      ascii;
    class       volScalarField;
    location    "2.1999";
    object      T;
}
// * * * * * * * * * * * * * * * * * * * * * * * * * * * * * * * * * * * * * //

dimensions      [0 0 0 1 0 0 0];

internalField   nonuniform List<scalar> 
2048
(
9.80241
9.80265
9.80313
9.80382
9.80472
9.80579
9.80702
9.80837
9.80983
9.81136
9.81295
9.81458
9.81623
9.81789
9.81954
9.82119
9.82281
9.8244
9.82596
9.82748
9.82897
9.83041
9.83182
9.83319
9.83451
9.8358
9.83706
9.83828
9.83946
9.8406
9.84171
9.84278
9.84381
9.84481
9.84576
9.84668
9.84755
9.84837
9.84915
9.84988
9.85056
9.85119
9.85176
9.85228
9.85274
9.85314
9.85348
9.85375
9.85395
9.85408
9.85415
9.85416
9.8541
9.854
9.85384
9.85365
9.85343
9.8532
9.85297
9.85276
9.85257
9.85241
9.85231
9.85225
9.41567
9.41639
9.41781
9.41988
9.42255
9.42575
9.42939
9.43341
9.43773
9.44228
9.44699
9.45182
9.45671
9.46163
9.46653
9.4714
9.47619
9.48091
9.48552
9.49002
9.49441
9.49869
9.50284
9.50688
9.51081
9.51463
9.51833
9.52193
9.52542
9.5288
9.53208
9.53525
9.5383
9.54125
9.54407
9.54677
9.54934
9.55178
9.55409
9.55625
9.55826
9.56012
9.56182
9.56335
9.56472
9.5659
9.56689
9.56769
9.56829
9.56869
9.56889
9.5689
9.56874
9.56841
9.56794
9.56737
9.56672
9.56602
9.56534
9.56469
9.56412
9.56366
9.56334
9.56318
9.0453
9.04649
9.04884
9.05228
9.0567
9.06198
9.068
9.07462
9.08173
9.08921
9.09696
9.10488
9.11291
9.12096
9.129
9.13696
9.1448
9.15251
9.16005
9.16741
9.17458
9.18156
9.18834
9.19494
9.20135
9.20758
9.21363
9.2195
9.2252
9.23072
9.23607
9.24125
9.24624
9.25105
9.25566
9.26008
9.26428
9.26827
9.27203
9.27557
9.27886
9.2819
9.28468
9.2872
9.28942
9.29136
9.29298
9.29429
9.29527
9.29592
9.29625
9.29626
9.29598
9.29542
9.29463
9.29366
9.29257
9.29141
9.29025
9.28916
9.2882
9.28743
9.28689
9.28662
8.6903
8.69197
8.69527
8.70007
8.70625
8.71361
8.72199
8.73119
8.74105
8.7514
8.76211
8.77305
8.78411
8.79521
8.80627
8.81722
8.828
8.83859
8.84894
8.85903
8.86887
8.87843
8.88773
8.89677
8.90555
8.91408
8.92237
8.93042
8.93823
8.9458
8.95313
8.96023
8.96708
8.97368
8.98001
8.98607
8.99184
8.99731
9.00248
9.00733
9.01185
9.01603
9.01985
9.02331
9.02638
9.02904
9.03128
9.03308
9.03442
9.03532
9.03575
9.03575
9.03533
9.03453
9.03341
9.03202
9.03046
9.0288
9.02715
9.02559
9.02423
9.02313
9.02236
9.02196
8.34976
8.35193
8.3562
8.36241
8.37037
8.37984
8.39059
8.40237
8.41495
8.42814
8.44175
8.45564
8.46967
8.48373
8.49772
8.51157
8.52519
8.53854
8.55159
8.56431
8.57669
8.58873
8.60043
8.6118
8.62284
8.63358
8.644
8.65413
8.66395
8.67349
8.68272
8.69166
8.70029
8.7086
8.71658
8.72422
8.7315
8.7384
8.74491
8.75103
8.75673
8.76201
8.76684
8.77121
8.77509
8.77846
8.7813
8.78357
8.78527
8.78639
8.78693
8.7869
8.78632
8.78526
8.78377
8.78194
8.77987
8.77768
8.77549
8.77343
8.77163
8.77018
8.76916
8.76864
8.02286
8.02555
8.03083
8.0385
8.0483
8.05993
8.07309
8.08746
8.10277
8.11877
8.13525
8.15204
8.16897
8.18592
8.20276
8.21941
8.23577
8.2518
8.26744
8.28268
8.29749
8.31189
8.32588
8.33948
8.35268
8.36552
8.37798
8.39009
8.40185
8.41325
8.42431
8.43501
8.44535
8.45531
8.46488
8.47404
8.48276
8.49103
8.49885
8.50618
8.51302
8.51936
8.52517
8.53042
8.53509
8.53915
8.54257
8.54531
8.54736
8.5487
8.54932
8.54924
8.54849
8.54714
8.54525
8.54293
8.54031
8.53753
8.53477
8.53216
8.52987
8.52803
8.52675
8.52609
7.70884
7.71208
7.71843
7.72763
7.73935
7.75321
7.76883
7.78583
7.80387
7.82267
7.842
7.86163
7.88141
7.90118
7.9208
7.94017
7.9592
7.9778
7.99594
8.01358
8.03073
8.04738
8.06355
8.07927
8.09454
8.10937
8.12379
8.13779
8.15139
8.16459
8.17739
8.18978
8.20176
8.21331
8.22441
8.23502
8.24514
8.25473
8.26379
8.2723
8.28024
8.2876
8.29435
8.30047
8.30592
8.31066
8.31464
8.31785
8.32023
8.32177
8.32247
8.32233
8.32139
8.31971
8.31739
8.31453
8.31131
8.3079
8.30449
8.30128
8.29846
8.29619
8.29461
8.2938
7.40698
7.41082
7.4183
7.42913
7.44288
7.45906
7.47721
7.49688
7.51768
7.53928
7.56142
7.58386
7.60643
7.62896
7.6513
7.67332
7.69492
7.71601
7.73654
7.7565
7.77587
7.79467
7.81292
7.83066
7.84789
7.86464
7.88091
7.89672
7.91208
7.92699
7.94146
7.95548
7.96904
7.98211
7.99468
8.0067
8.01816
8.02903
8.03929
8.04892
8.05793
8.06627
8.07394
8.0809
8.08711
8.09251
8.09707
8.10072
8.10344
8.10519
8.10595
8.10574
8.10458
8.10255
8.09975
8.09631
8.09242
8.0883
8.08418
8.0803
8.0769
8.07417
8.07226
8.07128
7.11664
7.12111
7.12983
7.1424
7.15829
7.1769
7.19767
7.22007
7.24364
7.26804
7.29297
7.31819
7.3435
7.36873
7.39372
7.41833
7.44242
7.46591
7.48875
7.51091
7.5324
7.55325
7.57348
7.59314
7.61224
7.63081
7.64886
7.6664
7.68344
7.69999
7.71605
7.73163
7.74671
7.76125
7.77524
7.78862
7.80137
7.81346
7.82487
7.8356
7.84562
7.85493
7.86349
7.87127
7.87822
7.88429
7.88941
7.89351
7.89656
7.89851
7.89933
7.89903
7.89764
7.89523
7.89191
7.88783
7.88321
7.87831
7.87341
7.86879
7.86474
7.86149
7.85922
7.85806
6.83718
6.84235
6.85242
6.86687
6.88504
6.90622
6.9297
6.95488
6.98126
7.00845
7.03614
7.06409
7.0921
7.11999
7.14757
7.17469
7.20121
7.22702
7.25207
7.27634
7.29985
7.32263
7.34475
7.36623
7.38712
7.40743
7.42717
7.44635
7.46499
7.4831
7.5007
7.51777
7.53431
7.55028
7.56564
7.58033
7.59433
7.6076
7.62012
7.63189
7.64289
7.65312
7.66255
7.67114
7.67883
7.68556
7.69124
7.6958
7.69918
7.70133
7.70221
7.70181
7.70017
7.69735
7.69346
7.68869
7.68327
7.67751
7.67174
7.6663
7.66153
7.65771
7.65506
7.6537
6.56803
6.57397
6.58552
6.60201
6.62263
6.64651
6.67282
6.70086
6.73006
6.76003
6.79045
6.82108
6.85174
6.88223
6.91235
6.94193
6.97081
6.99886
7.02603
7.05231
7.07773
7.10235
7.12625
7.14947
7.17206
7.19402
7.21537
7.23612
7.25629
7.27589
7.29495
7.31347
7.33142
7.34876
7.36545
7.38142
7.39662
7.41102
7.4246
7.43737
7.44932
7.46044
7.47072
7.4801
7.48853
7.4959
7.50215
7.50717
7.51089
7.51324
7.51418
7.51368
7.51178
7.50852
7.50403
7.4985
7.49221
7.4855
7.47876
7.47242
7.46687
7.46243
7.45935
7.45777
6.30864
6.31544
6.32861
6.34734
6.3706
6.39734
6.42659
6.45754
6.48959
6.52232
6.55542
6.5887
6.62195
6.65499
6.68761
6.71959
6.75076
6.78098
6.81018
6.83837
6.86559
6.89195
6.91754
6.94241
6.96661
6.99015
7.01305
7.03529
7.05691
7.07793
7.09839
7.11829
7.1376
7.15628
7.17426
7.19146
7.20782
7.22331
7.23791
7.25163
7.26449
7.27648
7.28758
7.29775
7.30689
7.31493
7.32174
7.32723
7.33129
7.33385
7.33485
7.33426
7.33208
7.32836
7.32323
7.31689
7.30965
7.30189
7.2941
7.28676
7.28034
7.27523
7.27169
7.26988
6.05848
6.06625
6.08123
6.1024
6.12852
6.1583
6.1906
6.22453
6.25943
6.29488
6.33063
6.36648
6.40228
6.43782
6.47289
6.50723
6.54063
6.57294
6.60408
6.63408
6.66301
6.691
6.71817
6.7446
6.77035
6.79541
6.81977
6.84344
6.86643
6.88881
6.9106
6.93182
6.95246
6.97244
6.99167
7.01007
7.02755
7.04408
7.05966
7.07429
7.08801
7.10084
7.11274
7.12368
7.13355
7.14225
7.14964
7.1556
7.16002
7.1628
7.16387
7.16318
7.16072
7.15653
7.15072
7.14351
7.13523
7.12634
7.11737
7.10893
7.10157
7.09573
7.0917
7.08966
5.81707
5.82592
5.84291
5.86678
5.89599
5.92899
5.96448
6.00143
6.03918
6.07731
6.11563
6.15401
6.19229
6.23029
6.26776
6.30442
6.33999
6.37432
6.40732
6.43902
6.46955
6.49906
6.52773
6.55565
6.58287
6.60937
6.63514
6.66016
6.68446
6.70812
6.73118
6.75369
6.7756
6.79684
6.81731
6.83687
6.85544
6.87297
6.88947
6.90496
6.91951
6.93313
6.94583
6.95753
6.96813
6.97749
6.98547
6.99192
6.9967
6.99971
7.00086
7.00009
6.99735
6.99267
6.98615
6.97801
6.96862
6.95848
6.94823
6.93858
6.93019
6.92357
6.91904
6.91674
5.58393
5.594
5.61324
5.64008
5.67264
5.70907
5.74786
5.78789
5.82846
5.86921
5.91002
5.95084
5.99156
6.03197
6.07182
6.11075
6.14846
6.18474
6.2195
6.2528
6.28481
6.31574
6.34581
6.37514
6.40377
6.43167
6.45879
6.48509
6.51062
6.53548
6.55976
6.58349
6.60665
6.62913
6.6508
6.6715
6.69112
6.70961
6.72698
6.74329
6.75861
6.77301
6.78647
6.79892
6.81026
6.8203
6.82888
6.83582
6.84099
6.84424
6.84549
6.84463
6.84162
6.83645
6.8292
6.82008
6.80949
6.79799
6.78634
6.77536
6.76586
6.75841
6.75334
6.75079
5.3586
5.37005
5.39181
5.42195
5.45815
5.49821
5.54042
5.58356
5.62691
5.67019
5.7134
5.75659
5.79967
5.84246
5.88465
5.92585
5.96564
6.0038
6.04024
6.07503
6.1084
6.14064
6.17203
6.20269
6.23267
6.26192
6.29034
6.31786
6.34454
6.37053
6.39596
6.42087
6.44524
6.46895
6.49181
6.51362
6.53425
6.55366
6.57185
6.58892
6.60498
6.62011
6.63432
6.64753
6.6596
6.67034
6.67953
6.68698
6.69254
6.69605
6.6974
6.69649
6.69322
6.68757
6.67956
6.66941
6.65753
6.64457
6.63137
6.61893
6.60822
6.59991
6.59431
6.5915
5.14066
5.15367
5.17825
5.21204
5.25221
5.29611
5.34185
5.38812
5.43419
5.47989
5.52539
5.57085
5.61624
5.66136
5.7059
5.74934
5.79118
5.83116
5.86918
5.90534
5.93995
5.97339
6.006
6.03794
6.06921
6.09977
6.12945
6.15812
6.18588
6.21292
6.23944
6.26549
6.29104
6.31596
6.34
6.3629
6.38452
6.40479
6.42375
6.44152
6.45826
6.4741
6.48904
6.503
6.51582
6.52726
6.53708
6.54506
6.55102
6.55481
6.55629
6.55533
6.55183
6.5457
6.53693
6.5257
6.51245
6.49791
6.48301
6.46897
6.45697
6.44776
6.44162
6.43857
4.92967
4.94446
4.97221
5.01006
5.05453
5.10249
5.15186
5.20127
5.24996
5.29796
5.34561
5.39326
5.44089
5.4883
5.53517
5.58086
5.6247
5.66644
5.70597
5.74339
5.77909
5.81361
5.84737
5.88051
5.91305
5.94489
5.97579
6.00555
6.03429
6.0623
6.08985
6.117
6.14371
6.16984
6.19505
6.21902
6.24159
6.2627
6.28236
6.30076
6.31814
6.33466
6.35031
6.36501
6.3786
6.39077
6.40123
6.40975
6.41613
6.4202
6.42182
6.42086
6.41715
6.41056
6.40103
6.38868
6.37399
6.35773
6.34098
6.32517
6.31178
6.30166
6.295
6.29173
4.72523
4.74206
4.77335
4.81571
4.86487
4.91707
4.97018
5.02272
5.07393
5.12405
5.17369
5.22343
5.27324
5.3229
5.37213
5.42008
5.4659
5.50933
5.55028
5.58882
5.62549
5.66096
5.69579
5.73009
5.76384
5.79696
5.82907
5.85984
5.88947
5.91836
5.94688
5.97509
6.00292
6.03027
6.05667
6.08169
6.10519
6.12708
6.14738
6.16636
6.18431
6.20147
6.21783
6.23327
6.24763
6.26056
6.27167
6.28074
6.28755
6.29193
6.29371
6.29276
6.28888
6.28187
6.27158
6.25807
6.24186
6.22378
6.20499
6.18722
6.17236
6.16133
6.15419
6.15072
4.52695
4.54612
4.58136
4.62874
4.68299
4.73962
4.79653
4.8522
4.90577
4.95782
5.00928
5.06102
5.11295
5.16481
5.21644
5.26669
5.31443
5.35951
5.4018
5.44132
5.4788
5.5151
5.55092
5.58633
5.62125
5.65567
5.68898
5.72069
5.7511
5.78077
5.81021
5.83944
5.86838
5.89696
5.92458
5.95062
5.97501
5.99766
6.01853
6.038
6.05646
6.07424
6.09129
6.10746
6.12264
6.13635
6.14812
6.15774
6.16501
6.16969
6.17166
6.17075
6.16675
6.15935
6.14832
6.13363
6.11582
6.09582
6.07478
6.05482
6.0384
6.02649
6.01894
6.01531
4.33445
4.35632
4.39593
4.44891
4.50872
4.56989
4.63066
4.68945
4.74519
4.79894
4.85201
4.90568
4.95968
5.01367
5.06776
5.12038
5.16998
5.21666
5.26023
5.30058
5.33871
5.37568
5.41245
5.44894
5.48498
5.52072
5.55525
5.58782
5.6189
5.64923
5.67955
5.70978
5.73977
5.76962
5.79849
5.82554
5.8508
5.87416
5.89553
5.9154
5.9343
5.95268
5.97041
5.98731
6.00333
6.01787
6.0303
6.04049
6.04821
6.05321
6.05538
6.05455
6.05046
6.04274
6.03101
6.01511
5.99562
5.9736
5.9501
5.92768
5.90963
5.89689
5.889
5.88528
4.14734
4.17237
4.21676
4.27599
4.34187
4.40763
4.47232
4.53425
4.59192
4.64711
4.70154
4.7571
4.81312
4.86913
4.92578
4.98089
5.03226
5.08048
5.1253
5.1663
5.20491
5.24239
5.28008
5.31761
5.35471
5.39184
5.42765
5.46097
5.49259
5.52345
5.55462
5.58581
5.61681
5.64799
5.67818
5.70617
5.73228
5.75635
5.77811
5.7983
5.81756
5.83653
5.85494
5.87254
5.88945
5.90486
5.91794
5.9287
5.93691
5.94222
5.9446
5.94388
5.93977
5.93179
5.91942
5.90226
5.88104
5.85694
5.83073
5.80551
5.78575
5.77229
5.76418
5.76041
3.96524
3.99402
4.04354
4.1098
4.18234
4.25261
4.32126
4.38636
4.44566
4.50202
4.5575
4.61495
4.67296
4.73082
4.79021
4.84798
4.90096
4.95069
4.99676
5.0382
5.0771
5.11491
5.15352
5.19209
5.23014
5.26876
5.30595
5.33987
5.37189
5.40313
5.43516
5.4673
5.4992
5.53181
5.5634
5.59226
5.6192
5.64397
5.66603
5.68645
5.70597
5.72554
5.74463
5.76287
5.78074
5.79708
5.81079
5.82213
5.83083
5.83645
5.83907
5.83849
5.83441
5.82624
5.8133
5.79487
5.77183
5.74566
5.71645
5.68798
5.6665
5.65246
5.64428
5.64054
3.78779
3.82107
3.87597
3.95016
4.03004
4.10456
4.17721
4.24562
4.30614
4.36338
4.41954
4.47895
4.53896
4.59839
4.66076
4.72142
4.77578
4.82701
4.87436
4.916
4.955
4.9929
5.0325
5.07211
5.11095
5.15123
5.18995
5.2243
5.25657
5.28798
5.3209
5.35399
5.38666
5.42083
5.45396
5.48355
5.51132
5.53683
5.55904
5.57959
5.59924
5.61945
5.63923
5.65805
5.67696
5.69433
5.7086
5.72052
5.72976
5.73566
5.73852
5.73811
5.73413
5.72587
5.71247
5.69272
5.66776
5.63959
5.60709
5.5748
5.5516
5.53721
5.5291
5.52547
3.61457
3.6534
3.71368
3.79689
3.88498
3.96317
4.03991
4.11187
4.17306
4.23091
4.28726
4.34884
4.41088
4.47143
4.53716
4.60108
4.6564
4.70914
4.75793
4.79941
4.83837
4.87605
4.91677
4.95746
4.99682
5.039
5.07949
5.114
5.14638
5.1777
5.21163
5.24569
5.27888
5.31481
5.34968
5.37979
5.4084
5.43472
5.4569
5.4775
5.49713
5.51806
5.53855
5.5578
5.57788
5.5964
5.61113
5.62365
5.63346
5.6396
5.64271
5.6425
5.63869
5.63043
5.61672
5.59558
5.56858
5.53862
5.50249
5.4656
5.4408
5.42633
5.41849
5.41506
3.44517
3.49099
3.55628
3.64986
3.74721
3.82812
3.90907
3.98501
4.04613
4.10439
4.16027
4.22437
4.28854
4.34953
4.41913
4.48682
4.54249
4.5968
4.6473
4.68818
4.72695
4.76402
4.8061
4.84795
4.88742
4.93185
4.97443
5.00873
5.04111
5.072
5.10712
5.1422
5.17555
5.21353
5.25042
5.28072
5.31019
5.33748
5.35939
5.37996
5.39936
5.42114
5.44239
5.46186
5.48328
5.50312
5.51814
5.53127
5.54172
5.54803
5.55142
5.55141
5.54786
5.53969
5.52588
5.50326
5.47403
5.44267
5.40254
5.36002
5.33386
5.31965
5.3123
5.30914
3.27914
3.33396
3.40326
3.50892
3.61693
3.69896
3.7844
3.86501
3.925
3.9836
4.0381
4.10534
4.17183
4.2322
4.30643
4.37863
4.43369
4.48972
4.54236
4.58199
4.62056
4.65645
4.7003
4.74345
4.78235
4.82954
4.8747
4.90824
4.94058
4.97054
5.00719
5.04339
5.07633
5.11677
5.15609
5.18605
5.21648
5.24497
5.26626
5.2868
5.30565
5.3285
5.35059
5.36994
5.39297
5.41435
5.42938
5.44318
5.45437
5.46073
5.46442
5.46463
5.46141
5.45342
5.43979
5.41556
5.3838
5.3517
5.30718
5.2576
5.23053
5.21704
5.21038
5.20758
3.11593
3.18263
3.25399
3.37395
3.49444
3.57518
3.66557
3.75192
3.80928
3.86844
3.92024
3.99158
4.06072
4.11888
4.19883
4.27655
4.32956
4.38759
4.44305
4.48053
4.51904
4.55293
4.59918
4.64386
4.68121
4.73188
4.78027
4.81223
4.84464
4.87298
4.91166
4.94917
4.98084
5.02434
5.06664
5.09548
5.12702
5.15709
5.17726
5.19785
5.21572
5.23998
5.26304
5.28174
5.30674
5.32998
5.3446
5.35914
5.37123
5.37747
5.38151
5.38192
5.37913
5.37138
5.35833
5.33231
5.29755
5.2657
5.21639
5.15785
5.13063
5.11837
5.11261
5.11024
2.95493
3.03757
3.10765
3.24485
3.38025
3.4561
3.55224
3.64593
3.69849
3.75885
3.8061
3.88295
3.95528
4.00891
4.09609
4.18076
4.22962
4.29013
4.34942
4.38343
4.4223
4.45303
4.5026
4.54916
4.58352
4.63865
4.69118
4.7204
4.75319
4.77892
4.8204
4.85951
4.88866
4.93604
4.9821
5.00868
5.04159
5.07378
5.09212
5.11299
5.12926
5.15542
5.17963
5.19694
5.22441
5.24993
5.26354
5.27897
5.29216
5.298
5.30249
5.30307
5.30081
5.29333
5.28139
5.25335
5.21485
5.18477
5.13027
5.06015
5.03399
5.02354
5.01886
5.01698
2.79538
2.8997
2.96318
3.12152
3.27507
3.34086
3.44403
3.54734
3.59202
3.65494
3.69494
3.77939
3.85572
3.90148
3.99802
4.09159
4.13326
4.197
4.26159
4.29026
4.33034
4.35623
4.41044
4.45943
4.48869
4.54968
4.60757
4.63233
4.66622
4.68792
4.73329
4.77443
4.79927
4.85169
4.90257
4.92525
4.95993
4.99506
5.01054
5.03216
5.0459
5.07469
5.10034
5.11515
5.14581
5.1742
5.1859
5.20245
5.21704
5.22211
5.2272
5.22785
5.22627
5.21899
5.2089
5.17855
5.1352
5.10902
5.04896
4.96374
4.94052
4.93246
4.92903
4.92767
2.63636
2.77039
2.81916
3.00387
3.17993
3.22834
3.34054
3.4567
3.48908
3.55699
3.5859
3.68085
3.76241
3.79561
3.90442
4.00952
4.03975
4.1079
4.17983
4.20045
4.24328
4.2619
4.32264
4.37485
4.39604
4.46479
4.52966
4.54756
4.58381
4.59943
4.65025
4.69409
4.71209
4.77113
4.82827
4.84472
4.88183
4.92099
4.93215
4.95534
4.96526
4.99769
5.02519
5.03597
5.07079
5.1028
5.11136
5.1294
5.1458
5.14954
5.15547
5.15607
5.15535
5.14807
5.14084
5.10782
5.05798
5.03868
4.97277
4.86773
4.8502
4.84509
4.843
4.84219
2.47672
2.65156
2.67375
2.89186
3.09616
3.11714
3.24135
3.37476
3.38863
3.46553
3.47789
3.58738
3.6759
3.69009
3.81512
3.93527
3.94819
4.02248
4.10454
4.11331
4.1614
4.16932
4.23916
4.29571
4.30476
4.38384
4.45782
4.46546
4.50617
4.51282
4.57124
4.61872
4.6264
4.69419
4.75951
4.76654
4.80702
4.85175
4.8565
4.88264
4.88688
4.92433
4.95427
4.95889
4.99921
5.03586
5.03954
5.05964
5.07839
5.08002
5.08718
5.0875
5.0879
5.08026
5.07721
5.04114
4.98241
4.97405
4.90212
4.77097
4.76313
4.76136
4.76067
4.7604
)
;

boundaryField
{
    left
    {
        type            zeroGradient;
    }
    right
    {
        type            zeroGradient;
    }
    interface
    {
        type            fixedValue;
        value           nonuniform List<scalar> 
64
(
2.39407
2.5975
2.5975
2.83747
3.06005
3.06005
3.19263
3.33786
3.33786
3.42253
3.42253
3.54224
3.63558
3.63558
3.7716
3.90181
3.90181
3.98052
4.06968
4.06968
4.12244
4.12244
4.19871
4.25829
4.25829
4.3444
4.42445
4.42445
4.46911
4.46911
4.53291
4.58293
4.58293
4.65666
4.72745
4.72745
4.77034
4.81896
4.81896
4.84769
4.84769
4.88868
4.92028
4.92028
4.96432
5.00401
5.00401
5.02559
5.0459
5.0459
5.05399
5.05399
5.05516
5.047
5.047
5.00916
4.94416
4.94416
4.86918
4.72043
4.72043
4.72043
4.72043
4.72043
)
;
    }
    bottom
    {
        type            fixedValue;
        value           uniform 10;
    }
    defaultFaces
    {
        type            empty;
    }
}


// ************************************************************************* //
