/*--------------------------------*- C++ -*----------------------------------*\
| =========                 |                                                 |
| \\      /  F ield         | OpenFOAM: The Open Source CFD Toolbox           |
|  \\    /   O peration     | Version:  5.x                                   |
|   \\  /    A nd           | Web:      www.OpenFOAM.org                      |
|    \\/     M anipulation  |                                                 |
\*---------------------------------------------------------------------------*/
FoamFile
{
    version     2.0;
    format      ascii;
    class       volScalarField;
    location    "2.3";
    object      gradTy;
}
// * * * * * * * * * * * * * * * * * * * * * * * * * * * * * * * * * * * * * //

dimensions      [0 -1 0 1 0 0 0];

internalField   nonuniform List<scalar> 
3200
(
-9.95074e-05
3.60602e-05
-0.000162508
0.000144496
-0.00011079
0.000128523
-7.2246e-05
8.98153e-05
-5.65873e-05
2.32561e-05
5.55347e-05
-2.31186e-05
3.25795e-05
-1.90357e-05
2.35977e-05
-1.44318e-05
1.76037e-05
-1.0922e-05
1.32545e-05
-8.28061e-06
1.00251e-05
-6.28173e-06
7.59813e-06
-4.76268e-06
5.76118e-06
-3.60569e-06
4.36511e-06
-2.72378e-06
3.30196e-06
-2.05174e-06
2.49188e-06
-1.54017e-06
1.87489e-06
-1.1514e-06
1.40554e-06
-8.56585e-07
1.04912e-06
-6.33598e-07
7.79081e-07
-4.6546e-07
5.75041e-07
-3.39142e-07
4.21371e-07
-2.44661e-07
3.06076e-07
-1.74413e-07
2.1984e-07
-1.23138e-07
1.53216e-07
-9.70747e-08
4.31764e-08
9.40764e-08
-3.3033e-08
5.11027e-08
-2.36619e-08
3.27029e-08
-1.47498e-08
2.06618e-08
-8.80776e-09
1.26594e-08
-5.08172e-09
7.50837e-09
-2.84089e-09
4.31537e-09
-1.54186e-09
2.40766e-09
-8.11696e-10
1.30505e-09
-4.11005e-10
6.8547e-10
-1.94164e-10
3.47556e-10
-6.41404e-11
1.50311e-10
2.1731e-12
3.67802e-11
7.57012e-12
1.75559e-12
4.18078e-13
1.18674e-13
-7.28259e-05
1.72687e-05
-0.000109821
9.4026e-05
-7.02125e-05
8.57244e-05
-4.45034e-05
5.98679e-05
-3.64997e-05
1.66005e-05
3.93633e-05
-1.35487e-05
2.19155e-05
-1.17512e-05
1.57607e-05
-8.95844e-06
1.17434e-05
-6.79043e-06
8.83813e-06
-5.15198e-06
6.68341e-06
-3.90952e-06
5.06516e-06
-2.96421e-06
3.84076e-06
-2.24373e-06
2.91039e-06
-1.69439e-06
2.20194e-06
-1.27575e-06
1.66211e-06
-9.57109e-07
1.25092e-06
-7.1501e-07
9.38084e-07
-5.31481e-07
7.00481e-07
-3.92728e-07
5.20421e-07
-2.88158e-07
3.84337e-07
-2.09646e-07
2.81815e-07
-1.50967e-07
2.04866e-07
-1.07388e-07
1.4725e-07
-7.57922e-08
1.0212e-07
-6.2543e-08
3.0771e-08
6.69852e-08
-1.8718e-08
3.4681e-08
-1.4159e-08
2.20999e-08
-8.79697e-09
1.3985e-08
-5.20695e-09
8.58675e-09
-2.97406e-09
5.10351e-09
-1.64505e-09
2.93899e-09
-8.83026e-10
1.64285e-09
-4.59298e-10
8.9229e-10
-2.29018e-10
4.69914e-10
-1.05193e-10
2.39819e-10
-2.97486e-11
1.05359e-10
7.49608e-12
2.66953e-11
6.63384e-12
1.57655e-12
3.76821e-13
1.07062e-13
-4.97722e-05
7.13579e-06
-7.03971e-05
5.82559e-05
-4.2463e-05
5.43541e-05
-2.61602e-05
3.79369e-05
-2.24019e-05
1.11491e-05
2.62112e-05
-7.52025e-06
1.40113e-05
-6.91857e-06
1.00089e-05
-5.30544e-06
7.44946e-06
-4.02798e-06
5.60426e-06
-3.05835e-06
4.23718e-06
-2.32152e-06
3.21106e-06
-1.76023e-06
2.43494e-06
-1.33216e-06
1.8453e-06
-1.00568e-06
1.39633e-06
-7.5685e-07
1.05422e-06
-5.67479e-07
7.93616e-07
-4.23633e-07
5.95319e-07
-3.14625e-07
4.44688e-07
-2.32246e-07
3.30517e-07
-1.70195e-07
2.4421e-07
-1.23636e-07
1.79172e-07
-8.88647e-08
1.30339e-07
-6.30728e-08
9.37404e-08
-4.45074e-08
6.47075e-08
-3.83451e-08
2.0638e-08
4.47618e-08
-9.97406e-09
2.23436e-08
-8.06419e-09
1.41799e-08
-4.99376e-09
8.9854e-09
-2.927e-09
5.5272e-09
-1.65276e-09
3.29107e-09
-9.02957e-10
1.89851e-09
-4.78353e-10
1.063e-09
-2.45175e-10
5.78354e-10
-1.19903e-10
3.05279e-10
-5.30532e-11
1.56647e-10
-1.15541e-11
6.97194e-11
8.13367e-12
1.81795e-11
5.09704e-12
1.2433e-12
2.98644e-13
8.49731e-14
-2.90168e-05
2.35618e-06
-3.92431e-05
3.16406e-05
-2.26325e-05
3.00618e-05
-1.36144e-05
2.09723e-05
-1.2069e-05
6.42954e-06
1.50043e-05
-3.70773e-06
7.80096e-06
-3.60414e-06
5.54332e-06
-2.77815e-06
4.12229e-06
-2.11214e-06
3.10027e-06
-1.60471e-06
2.34367e-06
-1.21842e-06
1.77603e-06
-9.23859e-07
1.34679e-06
-6.99087e-07
1.02073e-06
-5.27607e-07
7.72477e-07
-3.9691e-07
5.83303e-07
-2.97452e-07
4.39192e-07
-2.21918e-07
3.29527e-07
-1.64694e-07
2.46213e-07
-1.21466e-07
1.83056e-07
-8.89182e-08
1.35305e-07
-6.45094e-08
9.93141e-08
-4.62928e-08
7.2284e-08
-3.27943e-08
5.20101e-08
-2.314e-08
3.57708e-08
-2.06409e-08
1.18898e-08
2.56854e-08
-4.71789e-09
1.25109e-08
-4.07879e-09
7.91405e-09
-2.51866e-09
5.01987e-09
-1.4629e-09
3.09213e-09
-8.17091e-10
1.84364e-09
-4.41062e-10
1.0649e-09
-2.30609e-10
5.96974e-10
-1.16423e-10
3.25217e-10
-5.5774e-11
1.7195e-10
-2.36571e-11
8.85771e-11
-3.34683e-12
3.979e-11
5.90375e-12
1.0588e-11
3.19086e-12
7.93789e-13
1.91486e-13
5.45741e-14
-9.53172e-06
4.79944e-07
-1.26026e-05
1.00189e-05
-7.09183e-06
9.61471e-06
-4.20739e-06
6.70591e-06
-3.80351e-06
2.10204e-06
4.88486e-06
-1.10748e-06
2.50425e-06
-1.11432e-06
1.77438e-06
-8.61597e-07
1.3189e-06
-6.5558e-07
9.91744e-07
-4.98263e-07
7.4966e-07
-3.78379e-07
5.68077e-07
-2.86909e-07
4.30788e-07
-2.17087e-07
3.26507e-07
-1.63811e-07
2.47111e-07
-1.23205e-07
1.8661e-07
-9.23055e-08
1.4052e-07
-6.88416e-08
1.05445e-07
-5.10684e-08
7.87965e-08
-3.76448e-08
5.85937e-08
-2.75405e-08
4.33178e-08
-1.99652e-08
3.18028e-08
-1.43138e-08
2.31535e-08
-1.01287e-08
1.66634e-08
-7.147e-09
1.14374e-08
-6.50206e-09
3.88495e-09
8.37231e-09
-1.37055e-09
4.02826e-09
-1.23881e-09
2.54358e-09
-7.63681e-10
1.61423e-09
-4.41044e-10
9.95057e-10
-2.44639e-10
5.93717e-10
-1.31028e-10
3.43166e-10
-6.7914e-11
1.92501e-10
-3.39365e-11
1.04941e-10
-1.60249e-11
5.55335e-11
-6.5881e-12
2.86655e-11
-5.4691e-13
1.29389e-11
2.12968e-12
3.47917e-12
1.08457e-12
2.72572e-13
6.58873e-14
1.88397e-14
9.54618e-06
-4.77701e-07
1.26048e-05
-1.00179e-05
7.09236e-06
-9.61446e-06
4.20748e-06
-6.70591e-06
3.80343e-06
-2.10216e-06
-4.88493e-06
1.10747e-06
-2.50421e-06
1.11438e-06
-1.7743e-06
8.61669e-07
-1.31883e-06
6.55638e-07
-9.91693e-07
4.98307e-07
-7.49622e-07
3.78411e-07
-5.6805e-07
2.86932e-07
-4.30768e-07
2.17103e-07
-3.26494e-07
1.63822e-07
-2.47102e-07
1.23212e-07
-1.86605e-07
9.23099e-08
-1.40517e-07
6.88442e-08
-1.05443e-07
5.10697e-08
-7.87956e-08
3.76452e-08
-5.85935e-08
2.75405e-08
-4.3318e-08
1.99649e-08
-3.18032e-08
1.43133e-08
-2.3154e-08
1.01281e-08
-1.6664e-08
7.14634e-09
-1.14382e-08
6.50125e-09
-3.88578e-09
-8.37302e-09
1.37e-09
-4.02866e-09
1.23851e-09
-2.54381e-09
7.63495e-10
-1.61438e-09
4.4092e-10
-9.95157e-10
2.44559e-10
-5.93782e-10
1.30977e-10
-3.43206e-10
6.78831e-11
-1.92525e-10
3.39181e-11
-1.04955e-10
1.60142e-11
-5.55416e-11
6.58204e-12
-2.86699e-11
5.43749e-13
-1.29411e-11
-2.13105e-12
-3.47998e-12
-1.08502e-12
-2.72808e-13
-6.60237e-14
-1.87417e-14
2.90274e-05
-2.35422e-06
3.92449e-05
-3.16396e-05
2.26331e-05
-3.00614e-05
1.36147e-05
-2.09722e-05
1.20691e-05
-6.4295e-06
-1.50043e-05
3.70781e-06
-7.80086e-06
3.60425e-06
-5.54322e-06
2.77824e-06
-4.12221e-06
2.11222e-06
-3.1002e-06
1.60476e-06
-2.34362e-06
1.21846e-06
-1.77599e-06
9.2389e-07
-1.34677e-06
6.99109e-07
-1.02072e-06
5.27623e-07
-7.72463e-07
3.96922e-07
-5.83294e-07
2.9746e-07
-4.39186e-07
2.21924e-07
-3.29522e-07
1.64698e-07
-2.4621e-07
1.21468e-07
-1.83054e-07
8.89194e-08
-1.35304e-07
6.45101e-08
-9.93137e-08
4.6293e-08
-7.22839e-08
3.27943e-08
-5.20102e-08
2.31398e-08
-3.57711e-08
2.06405e-08
-1.18902e-08
-2.56858e-08
4.71759e-09
-1.25112e-08
4.07863e-09
-7.91417e-09
2.51856e-09
-5.01996e-09
1.46283e-09
-3.09218e-09
8.17044e-10
-1.84368e-09
4.41032e-10
-1.06492e-09
2.3059e-10
-5.96989e-10
1.16411e-10
-3.25226e-10
5.57671e-11
-1.71955e-10
2.36531e-11
-8.85801e-11
3.34469e-12
-3.97915e-11
-5.90469e-12
-1.05886e-11
-3.19118e-12
-7.9396e-13
-1.91588e-13
-5.45049e-14
4.9775e-05
-7.13478e-06
7.0398e-05
-5.82551e-05
4.24636e-05
-5.43536e-05
2.61606e-05
-3.79366e-05
2.24022e-05
-1.11489e-05
-2.6211e-05
7.5204e-06
-1.40112e-05
6.91869e-06
-1.00088e-05
5.30554e-06
-7.44937e-06
4.02806e-06
-5.6042e-06
3.0584e-06
-4.23713e-06
2.32156e-06
-3.21103e-06
1.76026e-06
-2.43491e-06
1.33219e-06
-1.84528e-06
1.00569e-06
-1.39632e-06
7.56862e-07
-1.05421e-06
5.67488e-07
-7.93608e-07
4.2364e-07
-5.95313e-07
3.1463e-07
-4.44684e-07
2.3225e-07
-3.30514e-07
1.70197e-07
-2.44208e-07
1.23637e-07
-1.79171e-07
8.88657e-08
-1.30339e-07
6.30735e-08
-9.37399e-08
4.45078e-08
-6.47072e-08
3.83453e-08
-2.06378e-08
-4.47617e-08
9.97413e-09
-2.23436e-08
8.06423e-09
-1.41799e-08
4.99378e-09
-8.98538e-09
2.92701e-09
-5.5272e-09
1.65277e-09
-3.29107e-09
9.02959e-10
-1.89851e-09
4.78353e-10
-1.063e-09
2.45175e-10
-5.78354e-10
1.19902e-10
-3.05279e-10
5.30528e-11
-1.56647e-10
1.15538e-11
-6.97196e-11
-8.13383e-12
-1.81796e-11
-5.09711e-12
-1.24334e-12
-2.98676e-13
-8.49586e-14
7.28176e-05
-1.72696e-05
0.00010982
-9.40263e-05
7.02124e-05
-8.57243e-05
4.45036e-05
-5.98677e-05
3.64999e-05
-1.66003e-05
-3.93631e-05
1.35488e-05
-2.19155e-05
1.17512e-05
-1.57607e-05
8.95845e-06
-1.17434e-05
6.79043e-06
-8.83813e-06
5.15198e-06
-6.68341e-06
3.90952e-06
-5.06516e-06
2.96421e-06
-3.84075e-06
2.24374e-06
-2.91039e-06
1.69439e-06
-2.20193e-06
1.27575e-06
-1.66211e-06
9.57111e-07
-1.25092e-06
7.15012e-07
-9.38083e-07
5.31483e-07
-7.00479e-07
3.92729e-07
-5.2042e-07
2.88159e-07
-3.84336e-07
2.09647e-07
-2.81814e-07
1.50967e-07
-2.04865e-07
1.07389e-07
-1.47249e-07
7.57929e-08
-1.02119e-07
6.25437e-08
-3.07703e-08
-6.69847e-08
1.87185e-08
-3.46807e-08
1.41593e-08
-2.20997e-08
8.79712e-09
-1.39849e-08
5.20704e-09
-8.58668e-09
2.97412e-09
-5.10346e-09
1.64508e-09
-2.93896e-09
8.83047e-10
-1.64284e-09
4.5931e-10
-8.92281e-10
2.29026e-10
-4.69909e-10
1.05196e-10
-2.39816e-10
2.97506e-11
-1.05357e-10
-7.49523e-12
-2.66948e-11
-6.63357e-12
-1.57641e-12
-3.76745e-13
-1.07121e-13
9.94878e-05
-3.60644e-05
0.000162504
-0.000144498
0.000110788
-0.000128524
7.22451e-05
-8.98159e-05
5.65868e-05
-2.32564e-05
-5.5535e-05
2.31183e-05
-3.25798e-05
1.90354e-05
-2.3598e-05
1.44315e-05
-1.76039e-05
1.09218e-05
-1.32546e-05
8.28045e-06
-1.00252e-05
6.28161e-06
-7.59823e-06
4.76259e-06
-5.76125e-06
3.60562e-06
-4.36516e-06
2.72373e-06
-3.302e-06
2.05171e-06
-2.49191e-06
1.54015e-06
-1.87491e-06
1.15139e-06
-1.40555e-06
8.56574e-07
-1.04913e-06
6.33591e-07
-7.79087e-07
4.65455e-07
-5.75045e-07
3.39139e-07
-4.21373e-07
2.44659e-07
-3.06077e-07
1.74412e-07
-2.1984e-07
1.23137e-07
-1.53216e-07
9.7075e-08
-4.31759e-08
-9.40759e-08
3.30333e-08
-5.11024e-08
2.36621e-08
-3.27027e-08
1.47499e-08
-2.06617e-08
8.80784e-09
-1.26593e-08
5.08178e-09
-7.50832e-09
2.84094e-09
-4.31533e-09
1.54189e-09
-2.40763e-09
8.11714e-10
-1.30504e-09
4.11016e-10
-6.85462e-10
1.9417e-10
-3.47551e-10
6.4144e-11
-1.50308e-10
-2.17146e-12
-3.67792e-11
-7.56955e-12
-1.75528e-12
-4.17883e-13
-1.18796e-13
-0.0104691
0.0082719
0.00135543
0.000633924
5.3237e-05
0.000105903
-5.0025e-05
6.19656e-05
-6.2626e-05
8.14778e-06
6.26583e-05
-3.86599e-05
4.61187e-05
-3.46141e-05
3.90297e-05
-2.89168e-05
3.27926e-05
-2.38035e-05
2.71961e-05
-1.94267e-05
2.23253e-05
-1.57566e-05
1.81874e-05
-1.27211e-05
1.47322e-05
-1.0235e-05
1.18826e-05
-8.21318e-06
9.55348e-06
-6.5773e-06
7.66195e-06
-5.25864e-06
6.13307e-06
-4.19867e-06
4.9016e-06
-3.34845e-06
3.91228e-06
-2.66768e-06
3.11912e-06
-2.1234e-06
2.4843e-06
-1.68891e-06
1.97698e-06
-1.34266e-06
1.57212e-06
-1.06753e-06
1.24835e-06
-8.54638e-07
9.67896e-07
-7.87372e-07
2.07574e-07
7.73557e-07
-3.98781e-07
5.10769e-07
-3.45951e-07
4.03993e-07
-2.82294e-07
3.25864e-07
-2.31761e-07
2.65415e-07
-1.92861e-07
2.18745e-07
-1.63167e-07
1.83032e-07
-1.40307e-07
1.56426e-07
-1.19269e-07
1.34753e-07
-9.46687e-08
1.11067e-07
-6.87206e-08
8.43204e-08
-4.81219e-08
6.58863e-08
-1.21117e-08
2.96932e-08
6.014e-09
1.39381e-09
3.35179e-10
9.81573e-11
-0.007476
0.00555531
0.00122582
0.000509977
6.52092e-05
7.68769e-05
-2.99587e-05
4.06018e-05
-4.2099e-05
5.84915e-06
4.34488e-05
-2.39567e-05
3.05665e-05
-2.19161e-05
2.57995e-05
-1.82921e-05
2.1697e-05
-1.50302e-05
1.80101e-05
-1.22486e-05
1.47945e-05
-9.92354e-06
1.20584e-05
-8.00505e-06
9.77126e-06
-6.43651e-06
7.8835e-06
-5.16251e-06
6.33959e-06
-4.13269e-06
5.08525e-06
-3.30315e-06
4.07108e-06
-2.63669e-06
3.25401e-06
-2.10233e-06
2.59748e-06
-1.6746e-06
2.07106e-06
-1.33273e-06
1.64966e-06
-1.05989e-06
1.31286e-06
-8.42511e-07
1.04402e-06
-6.69932e-07
8.28677e-07
-5.3793e-07
6.36803e-07
-5.20389e-07
1.48097e-07
5.42212e-07
-2.41657e-07
3.40771e-07
-2.1699e-07
2.6802e-07
-1.77665e-07
2.15934e-07
-1.46124e-07
1.75681e-07
-1.21856e-07
1.4459e-07
-1.03351e-07
1.20799e-07
-8.90641e-08
1.03222e-07
-7.56211e-08
8.92154e-08
-5.95566e-08
7.39435e-08
-4.26988e-08
5.63893e-08
-2.94337e-08
4.50124e-08
-5.58583e-09
2.09914e-08
5.251e-09
1.251e-09
3.02113e-10
8.85272e-11
-0.00500427
0.00353305
0.000951611
0.000375141
5.88905e-05
5.25645e-05
-1.70106e-05
2.53488e-05
-2.68156e-05
3.9485e-06
2.84252e-05
-1.41435e-05
1.92831e-05
-1.32365e-05
1.62322e-05
-1.10392e-05
1.36624e-05
-9.05457e-06
1.13499e-05
-7.36827e-06
9.32916e-06
-5.96303e-06
7.60727e-06
-4.8062e-06
6.16646e-06
-3.86201e-06
4.97639e-06
-3.0961e-06
4.00259e-06
-2.47755e-06
3.21113e-06
-1.97965e-06
2.57104e-06
-1.57984e-06
2.05523e-06
-1.25941e-06
1.64072e-06
-1.00299e-06
1.3083e-06
-7.98103e-07
1.04217e-06
-6.34627e-07
8.29436e-07
-5.04423e-07
6.59597e-07
-4.01137e-07
5.23347e-07
-3.23117e-07
3.98773e-07
-3.26622e-07
9.94286e-08
3.57842e-07
-1.39311e-07
2.1627e-07
-1.29839e-07
1.69187e-07
-1.06684e-07
1.36161e-07
-8.7902e-08
1.10667e-07
-7.34573e-08
9.09675e-08
-6.24548e-08
7.58948e-08
-5.39348e-08
6.48404e-08
-4.57406e-08
5.62058e-08
-3.57488e-08
4.68152e-08
-2.53144e-08
3.58485e-08
-1.71606e-08
2.91374e-08
-2.1488e-09
1.39813e-08
4.01783e-09
9.85842e-10
2.39447e-10
7.02263e-11
-0.00287411
0.00195547
0.000597146
0.000229859
4.0147e-05
3.076e-05
-8.55876e-06
1.38599e-05
-1.48644e-05
2.28582e-06
1.60713e-05
-7.38095e-06
1.06276e-05
-7.04533e-06
8.92645e-06
-5.87243e-06
7.51796e-06
-4.80968e-06
6.24935e-06
-3.90929e-06
5.1391e-06
-3.16085e-06
4.19202e-06
-2.54588e-06
3.39893e-06
-2.04466e-06
2.74351e-06
-1.63851e-06
2.20697e-06
-1.31075e-06
1.77078e-06
-1.04708e-06
1.41793e-06
-8.35442e-07
1.13355e-06
-6.65876e-07
9.04989e-07
-5.30224e-07
7.21674e-07
-4.21855e-07
5.74903e-07
-3.35408e-07
4.57569e-07
-2.66574e-07
3.63879e-07
-2.12009e-07
2.88625e-07
-1.71243e-07
2.18454e-07
-1.79072e-07
5.73265e-08
2.03572e-07
-7.1181e-08
1.19743e-07
-6.8576e-08
9.32765e-08
-5.65178e-08
7.50053e-08
-4.66376e-08
6.0915e-08
-3.90417e-08
5.00234e-08
-3.32612e-08
4.16905e-08
-2.87731e-08
3.56128e-08
-2.4378e-08
3.09384e-08
-1.89329e-08
2.58657e-08
-1.32685e-08
1.98695e-08
-8.86333e-09
1.63635e-08
-6.09843e-10
8.01415e-09
2.50694e-09
6.29014e-10
1.53539e-10
4.50616e-11
-0.000937179
0.00062536
0.000203007
7.74503e-05
1.41731e-05
1.01388e-05
-2.58842e-06
4.40604e-06
-4.75779e-06
7.49091e-07
5.1991e-06
-2.28384e-06
3.39311e-06
-2.2056e-06
2.84642e-06
-1.83786e-06
2.39809e-06
-1.50401e-06
1.99409e-06
-1.22162e-06
1.64023e-06
-9.87225e-07
1.33821e-06
-7.94838e-07
1.08518e-06
-6.38163e-07
8.76016e-07
-5.11279e-07
7.04755e-07
-4.08934e-07
5.65499e-07
-3.26625e-07
4.5284e-07
-2.60576e-07
3.62034e-07
-2.07668e-07
2.89046e-07
-1.65347e-07
2.30504e-07
-1.31543e-07
1.8363e-07
-1.0458e-07
1.46155e-07
-8.3114e-08
1.1623e-07
-6.61049e-08
9.21762e-08
-5.34809e-08
6.95072e-08
-5.69812e-08
1.87415e-08
6.60656e-08
-2.17462e-08
3.83256e-08
-2.13733e-08
2.97842e-08
-1.76465e-08
2.3939e-08
-1.45744e-08
1.94336e-08
-1.2213e-08
1.59504e-08
-1.04169e-08
1.32855e-08
-9.0203e-09
1.13476e-08
-7.63834e-09
9.86976e-09
-5.91095e-09
8.26807e-09
-4.11778e-09
6.36231e-09
-2.72659e-09
5.27608e-09
-9.56494e-11
2.61173e-09
8.50622e-10
2.15939e-10
5.2855e-11
1.55024e-11
0.000937223
-0.000625369
-0.000203014
-7.74566e-05
-1.41759e-05
-1.01393e-05
2.58901e-06
-4.4051e-06
4.75871e-06
-7.48293e-07
-5.19838e-06
2.28451e-06
-3.39248e-06
2.20618e-06
-2.8459e-06
1.83833e-06
-2.39768e-06
1.50438e-06
-1.99376e-06
1.22191e-06
-1.63998e-06
9.8745e-07
-1.33801e-06
7.95016e-07
-1.08503e-06
6.38303e-07
-8.75892e-07
5.11389e-07
-7.04657e-07
4.09021e-07
-5.65422e-07
3.26694e-07
-4.52779e-07
2.60631e-07
-3.61986e-07
2.07711e-07
-2.89007e-07
1.65382e-07
-2.30473e-07
1.3157e-07
-1.83606e-07
1.04602e-07
-1.46136e-07
8.31313e-08
-1.16214e-07
6.61186e-08
-9.21643e-08
5.3491e-08
-6.94991e-08
5.69872e-08
-1.87372e-08
-6.60617e-08
2.17503e-08
-3.83214e-08
2.13773e-08
-2.97805e-08
1.76499e-08
-2.3936e-08
1.45768e-08
-1.94315e-08
1.22146e-08
-1.59491e-08
1.04179e-08
-1.32849e-08
9.02061e-09
-1.13476e-08
7.63811e-09
-9.8702e-09
5.91035e-09
-8.26878e-09
4.117e-09
-6.3631e-09
2.72584e-09
-5.27673e-09
9.51423e-11
-2.61208e-09
-8.50825e-10
-2.16039e-10
-5.28881e-11
-1.55632e-11
0.00287414
-0.00195548
-0.000597151
-0.000229863
-4.01485e-05
-3.076e-05
8.55949e-06
-1.38589e-05
1.48653e-05
-2.28503e-06
-1.60706e-05
7.38161e-06
-1.0627e-05
7.04589e-06
-8.92595e-06
5.87288e-06
-7.51756e-06
4.81003e-06
-6.24903e-06
3.90957e-06
-5.13885e-06
3.16107e-06
-4.19183e-06
2.54606e-06
-3.39878e-06
2.0448e-06
-2.74338e-06
1.63862e-06
-2.20687e-06
1.31084e-06
-1.7707e-06
1.04715e-06
-1.41787e-06
8.35497e-07
-1.1335e-06
6.6592e-07
-9.0495e-07
5.30259e-07
-7.21643e-07
4.21882e-07
-5.74878e-07
3.3543e-07
-4.57549e-07
2.66591e-07
-3.63863e-07
2.12022e-07
-2.88613e-07
1.71253e-07
-2.18445e-07
1.79079e-07
-5.73211e-08
-2.03568e-07
7.11856e-08
-1.19739e-07
6.85802e-08
-9.32726e-08
5.65212e-08
-7.50023e-08
4.66402e-08
-6.09128e-08
3.90435e-08
-5.00219e-08
3.32624e-08
-4.16897e-08
2.87737e-08
-3.56125e-08
2.43781e-08
-3.09385e-08
1.89327e-08
-2.58661e-08
1.32681e-08
-1.987e-08
8.86285e-09
-1.63639e-08
6.09501e-10
-8.01438e-09
-2.50708e-09
-6.29081e-10
-1.5356e-10
-4.51041e-11
0.00500428
-0.00353305
-0.000951611
-0.000375141
-5.88901e-05
-5.25639e-05
1.70113e-05
-2.53481e-05
2.68162e-05
-3.94797e-06
-2.84247e-05
1.41439e-05
-1.92827e-05
1.32369e-05
-1.62319e-05
1.10395e-05
-1.36621e-05
9.0548e-06
-1.13497e-05
7.36845e-06
-9.329e-06
5.96318e-06
-7.60714e-06
4.80632e-06
-6.16635e-06
3.86211e-06
-4.97631e-06
3.09617e-06
-4.00252e-06
2.47761e-06
-3.21108e-06
1.9797e-06
-2.57099e-06
1.57988e-06
-2.0552e-06
1.25944e-06
-1.64069e-06
1.00302e-06
-1.30827e-06
7.98122e-07
-1.04215e-06
6.34642e-07
-8.29422e-07
5.04435e-07
-6.59586e-07
4.01147e-07
-5.23338e-07
3.23125e-07
-3.98767e-07
3.26627e-07
-9.94239e-08
-3.57837e-07
1.39315e-07
-2.16267e-07
1.29842e-07
-1.69185e-07
1.06686e-07
-1.36159e-07
8.79039e-08
-1.10666e-07
7.34587e-08
-9.09663e-08
6.24559e-08
-7.5894e-08
5.39355e-08
-6.48399e-08
4.57411e-08
-5.62055e-08
3.5749e-08
-4.6815e-08
2.53145e-08
-3.58484e-08
1.71606e-08
-2.91375e-08
2.14875e-09
-1.39814e-08
-4.01785e-09
-9.85851e-10
-2.39447e-10
-7.02345e-11
0.00747598
-0.0055553
-0.00122582
-0.000509973
-6.52071e-05
-7.68762e-05
2.99587e-05
-4.06021e-05
4.20986e-05
-5.84941e-06
-4.3449e-05
2.39565e-05
-3.05668e-05
2.19159e-05
-2.57997e-05
1.8292e-05
-2.16972e-05
1.50301e-05
-1.80102e-05
1.22485e-05
-1.47946e-05
9.92347e-06
-1.20585e-05
8.00499e-06
-9.77131e-06
6.43646e-06
-7.88354e-06
5.16248e-06
-6.33962e-06
4.13266e-06
-5.08527e-06
3.30313e-06
-4.0711e-06
2.63668e-06
-3.25402e-06
2.10232e-06
-2.5975e-06
1.67459e-06
-2.07106e-06
1.33272e-06
-1.64967e-06
1.05988e-06
-1.31286e-06
8.42506e-07
-1.04402e-06
6.69928e-07
-8.28681e-07
5.37928e-07
-6.36805e-07
5.20388e-07
-1.48097e-07
-5.42212e-07
2.41656e-07
-3.40772e-07
2.16989e-07
-2.68021e-07
1.77664e-07
-2.15935e-07
1.46123e-07
-1.75682e-07
1.21855e-07
-1.4459e-07
1.03351e-07
-1.20799e-07
8.90643e-08
-1.03222e-07
7.56215e-08
-8.9215e-08
5.95571e-08
-7.39429e-08
4.26994e-08
-5.63887e-08
2.94342e-08
-4.5012e-08
5.58615e-09
-2.09912e-08
-5.25088e-09
-1.25094e-09
-3.0209e-10
-8.84903e-11
0.010469
-0.0082719
-0.00135542
-0.000633918
-5.32351e-05
-0.000105904
5.00231e-05
-6.19678e-05
6.26239e-05
-8.14963e-06
-6.26599e-05
3.86584e-05
-4.61201e-05
3.46128e-05
-3.90308e-05
2.89158e-05
-3.27936e-05
2.38026e-05
-2.71968e-05
1.9426e-05
-2.23259e-05
1.57561e-05
-1.81878e-05
1.27207e-05
-1.47326e-05
1.02347e-05
-1.18829e-05
8.21292e-06
-9.55372e-06
6.57709e-06
-7.66214e-06
5.25848e-06
-6.13321e-06
4.19854e-06
-4.90171e-06
3.34835e-06
-3.91237e-06
2.66759e-06
-3.11919e-06
2.12333e-06
-2.48435e-06
1.68886e-06
-1.97702e-06
1.34261e-06
-1.57215e-06
1.0675e-06
-1.24837e-06
8.54613e-07
-9.67918e-07
7.87354e-07
-2.07588e-07
-7.73569e-07
3.98769e-07
-5.1078e-07
3.45941e-07
-4.04002e-07
2.82286e-07
-3.25871e-07
2.31755e-07
-2.6542e-07
1.92857e-07
-2.18749e-07
1.63164e-07
-1.83034e-07
1.40305e-07
-1.56427e-07
1.19268e-07
-1.34753e-07
9.46688e-08
-1.11066e-07
6.87212e-08
-8.43196e-08
4.81227e-08
-6.58856e-08
1.21123e-08
-2.96928e-08
-6.01376e-09
-1.39369e-09
-3.35148e-10
-9.80827e-11
-0.0104723
0.00827455
0.0013564
0.000633753
5.3939e-05
0.000105319
-4.93762e-05
6.1348e-05
-6.1918e-05
8.08074e-06
6.19569e-05
-3.8205e-05
4.55872e-05
-3.41985e-05
3.85685e-05
-2.85616e-05
3.23959e-05
-2.35045e-05
2.68595e-05
-1.91776e-05
2.20431e-05
-1.55507e-05
1.79528e-05
-1.2552e-05
1.45386e-05
-1.00967e-05
1.17239e-05
-8.10064e-06
9.42386e-06
-6.48605e-06
7.55658e-06
-5.1849e-06
6.04772e-06
-4.13926e-06
4.83269e-06
-3.30072e-06
3.85681e-06
-2.62943e-06
3.07459e-06
-2.09282e-06
2.44864e-06
-1.66452e-06
1.9485e-06
-1.32324e-06
1.54941e-06
-1.05208e-06
1.2303e-06
-8.42279e-07
9.53899e-07
-7.76006e-07
2.04554e-07
7.62399e-07
-3.9306e-07
5.03424e-07
-3.4101e-07
3.98206e-07
-2.78288e-07
3.21221e-07
-2.28502e-07
2.6166e-07
-1.90187e-07
2.15682e-07
-1.60954e-07
1.8051e-07
-1.38471e-07
1.54325e-07
-1.17803e-07
1.33035e-07
-9.3582e-08
1.09741e-07
-6.7967e-08
8.33557e-08
-4.76503e-08
6.52066e-08
-1.19933e-08
2.93935e-08
5.95328e-09
1.37973e-09
3.31796e-10
9.71669e-11
-0.00747827
0.00555711
0.00122659
0.000509913
6.56859e-05
7.65048e-05
-2.95347e-05
4.02058e-05
-4.16193e-05
5.80124e-06
4.29639e-05
-2.36732e-05
3.02151e-05
-2.1652e-05
2.54953e-05
-1.80666e-05
2.1435e-05
-1.48408e-05
1.77877e-05
-1.20911e-05
1.46078e-05
-9.79347e-06
1.19032e-05
-7.89829e-06
9.64307e-06
-6.34932e-06
7.7783e-06
-5.0916e-06
6.25368e-06
-4.07523e-06
5.01539e-06
-3.25674e-06
4.01447e-06
-2.59932e-06
3.2083e-06
-2.07232e-06
2.56068e-06
-1.65056e-06
2.04151e-06
-1.31352e-06
1.626e-06
-1.04457e-06
1.29395e-06
-8.30319e-07
1.02894e-06
-6.60235e-07
8.16696e-07
-5.30151e-07
6.27594e-07
-5.12878e-07
1.45943e-07
5.34389e-07
-2.38193e-07
3.3587e-07
-2.13893e-07
2.64179e-07
-1.75145e-07
2.12855e-07
-1.44071e-07
1.73194e-07
-1.20169e-07
1.42562e-07
-1.01953e-07
1.19131e-07
-8.79043e-08
1.0183e-07
-7.46994e-08
8.80724e-08
-5.888e-08
7.30574e-08
-4.22353e-08
5.57406e-08
-2.91507e-08
4.45469e-08
-5.53269e-09
2.07794e-08
5.19799e-09
1.23837e-09
2.99064e-10
8.7634e-11
-0.00500579
0.00353421
0.000952157
0.000375129
5.91976e-05
5.23383e-05
-1.67466e-05
2.51068e-05
-2.65079e-05
3.91628e-06
2.81088e-05
-1.39751e-05
1.90618e-05
-1.30764e-05
1.60412e-05
-1.09027e-05
1.34977e-05
-8.94009e-06
1.121e-05
-7.2732e-06
9.21161e-06
-5.88463e-06
7.50946e-06
-4.74192e-06
6.08566e-06
-3.80956e-06
4.91006e-06
-3.05347e-06
3.94841e-06
-2.44303e-06
3.16706e-06
-1.95179e-06
2.53532e-06
-1.55742e-06
2.02638e-06
-1.24141e-06
1.61749e-06
-9.8858e-07
1.28964e-06
-7.8659e-07
1.02722e-06
-6.2545e-07
8.17493e-07
-4.9712e-07
6.50075e-07
-3.9533e-07
5.15781e-07
-3.18444e-07
3.93006e-07
-3.21908e-07
9.79827e-08
3.52678e-07
-1.37315e-07
2.13159e-07
-1.27986e-07
1.66762e-07
-1.05172e-07
1.34219e-07
-8.66688e-08
1.09099e-07
-7.24424e-08
8.96903e-08
-6.16128e-08
7.48444e-08
-5.32358e-08
6.39628e-08
-4.51876e-08
5.54825e-08
-3.53468e-08
4.62521e-08
-2.50425e-08
3.54341e-08
-1.69989e-08
2.88354e-08
-2.12955e-09
1.384e-08
3.97726e-09
9.75889e-10
2.3703e-10
6.95177e-11
-0.00287498
0.00195612
0.000597473
0.000229865
4.0319e-05
3.0639e-05
-8.41476e-06
1.37299e-05
-1.46929e-05
2.26722e-06
1.58927e-05
-7.29267e-06
1.05059e-05
-6.95988e-06
8.82156e-06
-5.79959e-06
7.42748e-06
-4.7487e-06
6.17239e-06
-3.85871e-06
5.07442e-06
-3.11918e-06
4.13818e-06
-2.51175e-06
3.35445e-06
-2.01683e-06
2.70697e-06
-1.6159e-06
2.17712e-06
-1.29246e-06
1.74649e-06
-1.03232e-06
1.39824e-06
-8.23565e-07
1.11765e-06
-6.56347e-07
8.9218e-07
-5.22597e-07
7.11386e-07
-4.15765e-07
5.66661e-07
-3.30555e-07
4.50982e-07
-2.62713e-07
3.58626e-07
-2.08938e-07
2.84452e-07
-1.68766e-07
2.15294e-07
-1.76488e-07
5.64929e-08
2.00635e-07
-7.01621e-08
1.1802e-07
-6.75981e-08
9.19391e-08
-5.57175e-08
7.3935e-08
-4.5984e-08
6.00513e-08
-3.85031e-08
4.93203e-08
-3.28138e-08
4.11125e-08
-2.84017e-08
3.51294e-08
-2.40853e-08
3.05389e-08
-1.87219e-08
2.55538e-08
-1.31273e-08
1.96391e-08
-8.78128e-09
1.61935e-08
-6.05202e-10
7.93312e-09
2.48163e-09
6.22663e-10
1.51989e-10
4.46069e-11
-0.000937462
0.000625567
0.000203116
7.74543e-05
1.42285e-05
1.01008e-05
-2.54271e-06
4.36513e-06
-4.70273e-06
7.43003e-07
5.14138e-06
-2.25644e-06
3.35429e-06
-2.1788e-06
2.813e-06
-1.81503e-06
2.36925e-06
-1.48491e-06
1.96955e-06
-1.20579e-06
1.61961e-06
-9.74193e-07
1.32103e-06
-7.84168e-07
1.07099e-06
-6.29465e-07
8.64357e-07
-5.04217e-07
6.95227e-07
-4.03219e-07
5.57747e-07
-3.22016e-07
4.46555e-07
-2.56869e-07
3.56957e-07
-2.04694e-07
2.84956e-07
-1.62967e-07
2.27219e-07
-1.29643e-07
1.80998e-07
-1.03067e-07
1.44052e-07
-8.19099e-08
1.14552e-07
-6.51474e-08
9.08438e-08
-5.27073e-08
6.85019e-08
-5.61591e-08
1.84691e-08
6.51122e-08
-2.14351e-08
3.7774e-08
-2.10685e-08
2.93571e-08
-1.73967e-08
2.35973e-08
-1.43702e-08
1.9158e-08
-1.20446e-08
1.57261e-08
-1.0277e-08
1.31012e-08
-8.90413e-09
1.11934e-08
-7.54696e-09
9.74209e-09
-5.84539e-09
8.16819e-09
-4.07419e-09
6.28837e-09
-2.70162e-09
5.22124e-09
-9.51968e-11
2.58532e-09
8.42032e-10
2.13759e-10
5.23214e-11
1.53459e-11
0.000937506
-0.000625576
-0.000203123
-7.74606e-05
-1.42313e-05
-1.01013e-05
2.54329e-06
-4.3642e-06
4.70364e-06
-7.42216e-07
-5.14067e-06
2.25711e-06
-3.35367e-06
2.17937e-06
-2.81249e-06
1.81549e-06
-2.36884e-06
1.48527e-06
-1.96923e-06
1.20608e-06
-1.61935e-06
9.74415e-07
-1.32084e-06
7.84342e-07
-1.07083e-06
6.29603e-07
-8.64235e-07
5.04325e-07
-6.9513e-07
4.03305e-07
-5.5767e-07
3.22084e-07
-4.46495e-07
2.56923e-07
-3.56909e-07
2.04736e-07
-2.84918e-07
1.63001e-07
-2.27188e-07
1.2967e-07
-1.80974e-07
1.03088e-07
-1.44033e-07
8.1927e-08
-1.14537e-07
6.5161e-08
-9.08319e-08
5.27173e-08
-6.84939e-08
5.6165e-08
-1.84648e-08
-6.51083e-08
2.14391e-08
-3.77699e-08
2.10725e-08
-2.93535e-08
1.74e-08
-2.35944e-08
1.43727e-08
-1.91559e-08
1.20463e-08
-1.57248e-08
1.0278e-08
-1.31006e-08
8.90444e-09
-1.11933e-08
7.54673e-09
-9.74252e-09
5.84479e-09
-8.1689e-09
4.07342e-09
-6.28915e-09
2.70088e-09
-5.22189e-09
9.46947e-11
-2.58566e-09
-8.42232e-10
-2.13858e-10
-5.23542e-11
-1.54061e-11
0.00287501
-0.00195612
-0.000597478
-0.000229869
-4.03206e-05
-3.0639e-05
8.41548e-06
-1.3729e-05
1.46938e-05
-2.26644e-06
-1.5892e-05
7.29332e-06
-1.05053e-05
6.96043e-06
-8.82107e-06
5.80004e-06
-7.42709e-06
4.74905e-06
-6.17208e-06
3.85899e-06
-5.07417e-06
3.1194e-06
-4.13799e-06
2.51192e-06
-3.35429e-06
2.01697e-06
-2.70685e-06
1.61601e-06
-2.17702e-06
1.29254e-06
-1.74641e-06
1.03239e-06
-1.39818e-06
8.23619e-07
-1.1176e-06
6.5639e-07
-8.92142e-07
5.22631e-07
-7.11355e-07
4.15792e-07
-5.66636e-07
3.30577e-07
-4.50963e-07
2.6273e-07
-3.58611e-07
2.08952e-07
-2.8444e-07
1.68776e-07
-2.15285e-07
1.76495e-07
-5.64877e-08
-2.0063e-07
7.01666e-08
-1.18016e-07
6.76023e-08
-9.19353e-08
5.57209e-08
-7.3932e-08
4.59866e-08
-6.00491e-08
3.85049e-08
-4.93188e-08
3.2815e-08
-4.11117e-08
2.84023e-08
-3.51291e-08
2.40854e-08
-3.0539e-08
1.87216e-08
-2.55541e-08
1.31269e-08
-1.96395e-08
8.7808e-09
-1.6194e-08
6.04863e-10
-7.93336e-09
-2.48176e-09
-6.2273e-10
-1.5201e-10
-4.4649e-11
0.00500579
-0.00353421
-0.000952157
-0.000375129
-5.91973e-05
-5.23378e-05
1.67473e-05
-2.51061e-05
2.65084e-05
-3.91577e-06
-2.81083e-05
1.39756e-05
-1.90615e-05
1.30768e-05
-1.60409e-05
1.09029e-05
-1.34975e-05
8.94032e-06
-1.12098e-05
7.27338e-06
-9.21145e-06
5.88477e-06
-7.50932e-06
4.74204e-06
-6.08556e-06
3.80965e-06
-4.90998e-06
3.05354e-06
-3.94834e-06
2.44309e-06
-3.167e-06
1.95184e-06
-2.53528e-06
1.55745e-06
-2.02635e-06
1.24144e-06
-1.61746e-06
9.88603e-07
-1.28962e-06
7.86609e-07
-1.02721e-06
6.25465e-07
-8.1748e-07
4.97132e-07
-6.50064e-07
3.95339e-07
-5.15772e-07
3.18451e-07
-3.92999e-07
3.21914e-07
-9.79781e-08
-3.52674e-07
1.37319e-07
-2.13156e-07
1.27989e-07
-1.66759e-07
1.05175e-07
-1.34216e-07
8.66707e-08
-1.09097e-07
7.24438e-08
-8.96891e-08
6.16138e-08
-7.48435e-08
5.32365e-08
-6.39622e-08
4.51881e-08
-5.54822e-08
3.5347e-08
-4.6252e-08
2.50426e-08
-3.54341e-08
1.69989e-08
-2.88354e-08
2.1295e-09
-1.38401e-08
-3.97728e-09
-9.75898e-10
-2.3703e-10
-6.95259e-11
0.00747825
-0.0055571
-0.00122658
-0.000509909
-6.56837e-05
-7.65041e-05
2.95347e-05
-4.02061e-05
4.1619e-05
-5.8015e-06
-4.29641e-05
2.3673e-05
-3.02153e-05
2.16518e-05
-2.54955e-05
1.80665e-05
-2.14352e-05
1.48407e-05
-1.77878e-05
1.2091e-05
-1.46079e-05
9.79339e-06
-1.19032e-05
7.89823e-06
-9.64312e-06
6.34927e-06
-7.77833e-06
5.09157e-06
-6.25371e-06
4.0752e-06
-5.01541e-06
3.25672e-06
-4.01449e-06
2.59931e-06
-3.20831e-06
2.07231e-06
-2.56069e-06
1.65055e-06
-2.04152e-06
1.31351e-06
-1.626e-06
1.04456e-06
-1.29396e-06
8.30314e-07
-1.02895e-06
6.60231e-07
-8.167e-07
5.30148e-07
-6.27596e-07
5.12877e-07
-1.45943e-07
-5.3439e-07
2.38192e-07
-3.35871e-07
2.13892e-07
-2.6418e-07
1.75144e-07
-2.12856e-07
1.44071e-07
-1.73194e-07
1.20168e-07
-1.42563e-07
1.01953e-07
-1.19131e-07
8.79045e-08
-1.0183e-07
7.46998e-08
-8.80719e-08
5.88805e-08
-7.30568e-08
4.22359e-08
-5.57401e-08
2.91512e-08
-4.45465e-08
5.53301e-09
-2.07792e-08
-5.19786e-09
-1.23831e-09
-2.99041e-10
-8.75974e-11
0.0104722
-0.00827454
-0.00135639
-0.000633747
-5.39371e-05
-0.00010532
4.93743e-05
-6.13502e-05
6.19159e-05
-8.08257e-06
-6.19585e-05
3.82035e-05
-4.55886e-05
3.41972e-05
-3.85696e-05
2.85605e-05
-3.23968e-05
2.35037e-05
-2.68602e-05
1.9177e-05
-2.20437e-05
1.55502e-05
-1.79532e-05
1.25515e-05
-1.4539e-05
1.00964e-05
-1.17241e-05
8.10039e-06
-9.42409e-06
6.48584e-06
-7.55676e-06
5.18474e-06
-6.04786e-06
4.13913e-06
-4.83281e-06
3.30062e-06
-3.85691e-06
2.62934e-06