/*--------------------------------*- C++ -*----------------------------------*\
| =========                 |                                                 |
| \\      /  F ield         | OpenFOAM: The Open Source CFD Toolbox           |
|  \\    /   O peration     | Version:  5.x                                   |
|   \\  /    A nd           | Web:      www.OpenFOAM.org                      |
|    \\/     M anipulation  |                                                 |
\*---------------------------------------------------------------------------*/
FoamFile
{
    version     2.0;
    format      ascii;
    class       volScalarField;
    location    "2.3";
    object      gradTx;
}
// * * * * * * * * * * * * * * * * * * * * * * * * * * * * * * * * * * * * * //

dimensions      [0 -1 0 1 0 0 0];

internalField   nonuniform List<scalar> 
3200
(
0.00150204
-8.42648e-05
-0.000176037
-0.000179447
-0.000151998
-0.000148658
-0.000107989
-0.000104653
-7.68867e-05
-0.000117725
-5.42982e-05
-3.86654e-05
-3.70993e-05
-2.81785e-05
-2.73632e-05
-2.1056e-05
-2.0483e-05
-1.58654e-05
-1.54438e-05
-1.20036e-05
-1.16882e-05
-9.09796e-06
-8.85989e-06
-6.89726e-06
-6.71662e-06
-5.22421e-06
-5.08677e-06
-3.95006e-06
-3.84537e-06
-2.97931e-06
-2.89956e-06
-2.24012e-06
-2.17944e-06
-1.67799e-06
-1.63189e-06
-1.25131e-06
-1.21635e-06
-9.2819e-07
-9.01752e-07
-6.84193e-07
-6.64261e-07
-5.00562e-07
-4.85591e-07
-3.6292e-07
-3.51726e-07
-2.60267e-07
-2.51966e-07
-1.84308e-07
-1.78645e-07
-1.32066e-07
-1.996e-07
-9.0103e-08
-5.93558e-08
-5.63086e-08
-3.79679e-08
-3.63274e-08
-2.38905e-08
-2.28064e-08
-1.45749e-08
-1.38677e-08
-8.61013e-09
-8.16454e-09
-4.93068e-09
-4.65997e-09
-2.7414e-09
-2.58248e-09
-1.4802e-09
-1.38965e-09
-7.7303e-10
-7.22669e-10
-3.84633e-10
-3.56458e-10
-1.60288e-10
-1.44405e-10
-3.82568e-11
-3.11013e-11
-2.02547e-12
-3.71281e-13
-8.40356e-14
1.92174e-11
0.00149593
-8.89705e-05
-0.00016696
-0.000174893
-0.000153113
-0.00014555
-0.000111113
-0.000103576
-8.21704e-05
-0.000108598
-5.79797e-05
-4.06795e-05
-3.6838e-05
-2.89145e-05
-2.70126e-05
-2.15407e-05
-2.02129e-05
-1.62164e-05
-1.524e-05
-1.2264e-05
-1.15338e-05
-9.2936e-06
-8.74247e-06
-7.0453e-06
-6.62715e-06
-5.33672e-06
-5.01856e-06
-4.03573e-06
-3.79339e-06
-3.04458e-06
-2.86e-06
-2.28984e-06
-2.14937e-06
-1.71582e-06
-1.60909e-06
-1.28003e-06
-1.19911e-06
-9.49958e-07
-8.8876e-07
-7.00644e-07
-6.54504e-07
-5.12954e-07
-4.78296e-07
-3.7222e-07
-3.46306e-07
-2.67227e-07
-2.48026e-07
-1.89731e-07
-1.76857e-07
-1.40787e-07
-1.84025e-07
-9.61488e-08
-6.30991e-08
-5.56773e-08
-3.94739e-08
-3.56521e-08
-2.48675e-08
-2.23551e-08
-1.52246e-08
-1.35861e-08
-9.02898e-09
-7.99621e-09
-5.19071e-09
-4.56302e-09
-2.89697e-09
-2.52832e-09
-1.57022e-09
-1.3601e-09
-8.23662e-10
-7.06738e-10
-4.12227e-10
-3.46815e-10
-1.76407e-10
-1.39579e-10
-4.76299e-11
-3.09999e-11
-4.97945e-12
-1.05913e-12
-2.43347e-13
1.91651e-11
0.00149092
-9.16637e-05
-0.000160685
-0.000171526
-0.000153658
-0.000143516
-0.00011316
-0.000103052
-8.55402e-05
-0.000102553
-6.03281e-05
-4.2155e-05
-3.67398e-05
-2.94094e-05
-2.68047e-05
-2.18595e-05
-2.00494e-05
-1.64465e-05
-1.51161e-05
-1.24345e-05
-1.14397e-05
-9.42161e-06
-8.67083e-06
-7.14214e-06
-6.57253e-06
-5.41029e-06
-4.9769e-06
-4.09175e-06
-3.76164e-06
-3.08727e-06
-2.83583e-06
-2.32236e-06
-2.13102e-06
-1.74056e-06
-1.59518e-06
-1.29883e-06
-1.1886e-06
-9.64201e-07
-8.80838e-07
-7.1141e-07
-6.48559e-07
-5.21067e-07
-4.73855e-07
-3.7831e-07
-3.4301e-07
-2.7179e-07
-2.45647e-07
-1.93334e-07
-1.75995e-07
-1.46336e-07
-1.73694e-07
-1.00001e-07
-6.58167e-08
-5.53968e-08
-4.04842e-08
-3.5255e-08
-2.55135e-08
-2.20884e-08
-1.56545e-08
-1.34211e-08
-9.30678e-09
-7.89874e-09
-5.36359e-09
-4.50757e-09
-3.00063e-09
-2.49773e-09
-1.63031e-09
-1.3436e-09
-8.57505e-10
-6.97904e-10
-4.30652e-10
-3.41369e-10
-1.8718e-10
-1.36956e-10
-5.39895e-11
-3.12737e-11
-7.04921e-12
-1.62268e-12
-3.77934e-13
1.91206e-11
0.0014874
-9.30955e-05
-0.000156736
-0.000169306
-0.000153893
-0.000142289
-0.000114397
-0.000102824
-8.7528e-05
-9.88759e-05
-6.17136e-05
-4.31195e-05
-3.67177e-05
-2.9715e-05
-2.669e-05
-2.20526e-05
-1.99574e-05
-1.65855e-05
-1.5046e-05
-1.25374e-05
-1.13864e-05
-9.49882e-06
-8.63021e-06
-7.20053e-06
-6.54154e-06
-5.45464e-06
-4.95326e-06
-4.12553e-06
-3.74362e-06
-3.11301e-06
-2.82212e-06
-2.34196e-06
-2.1206e-06
-1.75548e-06
-1.58729e-06
-1.31016e-06
-1.18264e-06
-9.72792e-07
-8.76349e-07
-7.17905e-07
-6.45192e-07
-5.25962e-07
-4.71342e-07
-3.81987e-07
-3.41148e-07
-2.74547e-07
-2.44313e-07
-1.95537e-07
-1.75624e-07
-1.49601e-07
-1.67404e-07
-1.02271e-07
-6.75827e-08
-5.52954e-08
-4.11066e-08
-3.5038e-08
-2.59064e-08
-2.19417e-08
-1.59163e-08
-1.33313e-08
-9.47621e-09
-7.84625e-09
-5.46923e-09
-4.4781e-09
-3.06408e-09
-2.48169e-09
-1.66715e-09
-1.33505e-09
-8.78277e-10
-6.93368e-10
-4.41953e-10
-3.38515e-10
-1.93792e-10
-1.35641e-10
-5.79379e-11
-3.16072e-11
-8.3667e-12
-2.01881e-12
-4.75012e-13
1.90883e-11
0.00148559
-9.3709e-05
-0.000154828
-0.000168204
-0.000153974
-0.000141712
-0.000114978
-0.000102743
-8.84488e-05
-9.71382e-05
-6.23555e-05
-4.35956e-05
-3.67191e-05
-2.9861e-05
-2.66395e-05
-2.21437e-05
-1.99162e-05
-1.66509e-05
-1.50146e-05
-1.25858e-05
-1.13624e-05
-9.53514e-06
-8.61192e-06
-7.22799e-06
-6.52757e-06
-5.4755e-06
-4.94261e-06
-4.14141e-06
-3.7355e-06
-3.12511e-06
-2.81594e-06
-2.35118e-06
-2.11591e-06
-1.76249e-06
-1.58374e-06
-1.31549e-06
-1.17995e-06
-9.76833e-07
-8.74329e-07
-7.2096e-07
-6.43677e-07
-5.28265e-07
-4.70211e-07
-3.83716e-07
-3.40311e-07
-2.75845e-07
-2.43716e-07
-1.96582e-07
-1.75495e-07
-1.51112e-07
-1.64429e-07
-1.03322e-07
-6.84516e-08
-5.5269e-08
-4.14036e-08
-3.4943e-08
-2.60923e-08
-2.18772e-08
-1.60401e-08
-1.3292e-08
-9.55648e-09
-7.82353e-09
-5.51934e-09
-4.46548e-09
-3.09421e-09
-2.47489e-09
-1.68466e-09
-1.33147e-09
-8.88159e-10
-6.91481e-10
-4.47327e-10
-3.37307e-10
-1.96938e-10
-1.35106e-10
-5.98299e-11
-3.18163e-11
-9.00805e-12
-2.22256e-12
-5.25777e-13
1.90714e-11
0.00148559
-9.37096e-05
-0.000154828
-0.000168204
-0.000153974
-0.000141712
-0.000114978
-0.000102743
-8.84488e-05
-9.71382e-05
-6.23555e-05
-4.35956e-05
-3.67191e-05
-2.9861e-05
-2.66395e-05
-2.21437e-05
-1.99162e-05
-1.66509e-05
-1.50146e-05
-1.25858e-05
-1.13624e-05
-9.53514e-06
-8.61192e-06
-7.22799e-06
-6.52757e-06
-5.4755e-06
-4.94261e-06
-4.14141e-06
-3.7355e-06
-3.12511e-06
-2.81594e-06
-2.35118e-06
-2.11591e-06
-1.76249e-06
-1.58374e-06
-1.31549e-06
-1.17995e-06
-9.76833e-07
-8.74329e-07
-7.2096e-07
-6.43677e-07
-5.28265e-07
-4.70211e-07
-3.83716e-07
-3.40311e-07
-2.75845e-07
-2.43716e-07
-1.96582e-07
-1.75495e-07
-1.51112e-07
-1.64429e-07
-1.03322e-07
-6.84515e-08
-5.5269e-08
-4.14035e-08
-3.49429e-08
-2.60923e-08
-2.18772e-08
-1.60401e-08
-1.3292e-08
-9.55648e-09
-7.82353e-09
-5.51934e-09
-4.46548e-09
-3.09421e-09
-2.47489e-09
-1.68466e-09
-1.33147e-09
-8.88158e-10
-6.9148e-10
-4.47327e-10
-3.37307e-10
-1.96938e-10
-1.35106e-10
-5.98298e-11
-3.18163e-11
-9.00802e-12
-2.22254e-12
-5.25759e-13
1.90714e-11
0.00148741
-9.30973e-05
-0.000156736
-0.000169306
-0.000153893
-0.000142289
-0.000114397
-0.000102824
-8.7528e-05
-9.88759e-05
-6.17136e-05
-4.31195e-05
-3.67177e-05
-2.9715e-05
-2.669e-05
-2.20526e-05
-1.99574e-05
-1.65855e-05
-1.5046e-05
-1.25374e-05
-1.13864e-05
-9.49882e-06
-8.63021e-06
-7.20053e-06
-6.54154e-06
-5.45464e-06
-4.95326e-06
-4.12553e-06
-3.74362e-06
-3.11301e-06
-2.82212e-06
-2.34196e-06
-2.1206e-06
-1.75548e-06
-1.58729e-06
-1.31016e-06
-1.18264e-06
-9.72792e-07
-8.7635e-07
-7.17905e-07
-6.45192e-07
-5.25962e-07
-4.71342e-07
-3.81987e-07
-3.41148e-07
-2.74547e-07
-2.44313e-07
-1.95537e-07
-1.75624e-07
-1.49601e-07
-1.67404e-07
-1.02271e-07
-6.75827e-08
-5.52953e-08
-4.11066e-08
-3.5038e-08
-2.59064e-08
-2.19417e-08
-1.59162e-08
-1.33313e-08
-9.47621e-09
-7.84625e-09
-5.46922e-09
-4.4781e-09
-3.06408e-09
-2.48169e-09
-1.66715e-09
-1.33505e-09
-8.78276e-10
-6.93367e-10
-4.41952e-10
-3.38514e-10
-1.93792e-10
-1.35641e-10
-5.79377e-11
-3.16071e-11
-8.36661e-12
-2.01876e-12
-4.74963e-13
1.90883e-11
0.00149093
-9.16661e-05
-0.000160685
-0.000171526
-0.000153658
-0.000143516
-0.00011316
-0.000103052
-8.55402e-05
-0.000102553
-6.0328e-05
-4.21549e-05
-3.67398e-05
-2.94094e-05
-2.68047e-05
-2.18595e-05
-2.00494e-05
-1.64465e-05
-1.51161e-05
-1.24345e-05
-1.14397e-05
-9.42161e-06
-8.67083e-06
-7.14214e-06
-6.57253e-06
-5.41029e-06
-4.97691e-06
-4.09176e-06
-3.76164e-06
-3.08727e-06
-2.83584e-06
-2.32236e-06
-2.13102e-06
-1.74056e-06
-1.59518e-06
-1.29883e-06
-1.1886e-06
-9.64202e-07
-8.80838e-07
-7.1141e-07
-6.48559e-07
-5.21067e-07
-4.73855e-07
-3.7831e-07
-3.4301e-07
-2.7179e-07
-2.45647e-07
-1.93334e-07
-1.75995e-07
-1.46336e-07
-1.73694e-07
-1.00001e-07
-6.58166e-08
-5.53968e-08
-4.04842e-08
-3.5255e-08
-2.55135e-08
-2.20883e-08
-1.56545e-08
-1.34211e-08
-9.30678e-09
-7.89873e-09
-5.36358e-09
-4.50756e-09
-3.00063e-09
-2.49773e-09
-1.63031e-09
-1.3436e-09
-8.57504e-10
-6.97903e-10
-4.30652e-10
-3.41368e-10
-1.8718e-10
-1.36956e-10
-5.39892e-11
-3.12736e-11
-7.0491e-12
-1.62262e-12
-3.77868e-13
1.91206e-11
0.00149593
-8.89727e-05
-0.00016696
-0.000174893
-0.000153113
-0.00014555
-0.000111113
-0.000103576
-8.21705e-05
-0.000108598
-5.79797e-05
-4.06795e-05
-3.6838e-05
-2.89145e-05
-2.70126e-05
-2.15407e-05
-2.02129e-05
-1.62164e-05
-1.524e-05
-1.2264e-05
-1.15338e-05
-9.2936e-06
-8.74247e-06
-7.04531e-06
-6.62715e-06
-5.33672e-06
-5.01856e-06
-4.03573e-06
-3.79339e-06
-3.04459e-06
-2.86e-06
-2.28984e-06
-2.14937e-06
-1.71582e-06
-1.60909e-06
-1.28004e-06
-1.19911e-06
-9.49958e-07
-8.8876e-07
-7.00644e-07
-6.54504e-07
-5.12954e-07
-4.78296e-07
-3.7222e-07
-3.46306e-07
-2.67227e-07
-2.48026e-07
-1.89731e-07
-1.76857e-07
-1.40787e-07
-1.84025e-07
-9.61488e-08
-6.30991e-08
-5.56773e-08
-3.94738e-08
-3.5652e-08
-2.48675e-08
-2.23551e-08
-1.52246e-08
-1.35861e-08
-9.02898e-09
-7.99621e-09
-5.19071e-09
-4.56302e-09
-2.89697e-09
-2.52832e-09
-1.57022e-09
-1.3601e-09
-8.23661e-10
-7.06737e-10
-4.12226e-10
-3.46814e-10
-1.76406e-10
-1.39578e-10
-4.76297e-11
-3.09998e-11
-4.97935e-12
-1.05907e-12
-2.43287e-13
1.91651e-11
0.00150204
-8.42657e-05
-0.000176037
-0.000179448
-0.000151998
-0.000148658
-0.000107989
-0.000104653
-7.68868e-05
-0.000117725
-5.42982e-05
-3.86654e-05
-3.70993e-05
-2.81785e-05
-2.73632e-05
-2.1056e-05
-2.0483e-05
-1.58654e-05
-1.54438e-05
-1.20036e-05
-1.16882e-05
-9.09796e-06
-8.8599e-06
-6.89726e-06
-6.71662e-06
-5.22422e-06
-5.08677e-06
-3.95006e-06
-3.84537e-06
-2.97931e-06
-2.89956e-06
-2.24012e-06
-2.17944e-06
-1.67799e-06
-1.63189e-06
-1.25131e-06
-1.21635e-06
-9.2819e-07
-9.01752e-07
-6.84193e-07
-6.64261e-07
-5.00563e-07
-4.85591e-07
-3.62921e-07
-3.51726e-07
-2.60267e-07
-2.51966e-07
-1.84308e-07
-1.78645e-07
-1.32066e-07
-1.996e-07
-9.0103e-08
-5.93558e-08
-5.63086e-08
-3.79679e-08
-3.63274e-08
-2.38905e-08
-2.28064e-08
-1.45749e-08
-1.38677e-08
-8.61013e-09
-8.16454e-09
-4.93068e-09
-4.65997e-09
-2.7414e-09
-2.58248e-09
-1.4802e-09
-1.38965e-09
-7.7303e-10
-7.22669e-10
-3.84633e-10
-3.56457e-10
-1.60288e-10
-1.44405e-10
-3.82567e-11
-3.11012e-11
-2.02543e-12
-3.7126e-13
-8.40095e-14
1.92174e-11
0.0110679
-0.00868224
-0.000752947
-0.000362275
-0.000121926
-9.85603e-05
-7.93872e-05
-7.76291e-05
-7.41553e-05
-0.00012707
-6.64152e-05
-5.63175e-05
-5.51358e-05
-4.76317e-05
-4.68633e-05
-3.99239e-05
-3.92388e-05
-3.30465e-05
-3.24444e-05
-2.70892e-05
-2.65736e-05
-2.20448e-05
-2.16119e-05
-1.78427e-05
-1.74841e-05
-1.4383e-05
-1.40889e-05
-1.15584e-05
-1.13191e-05
-9.26656e-06
-9.07283e-06
-7.41531e-06
-7.25907e-06
-5.9249e-06
-5.79928e-06
-4.72802e-06
-4.62724e-06
-3.76877e-06
-3.68806e-06
-3.00124e-06
-2.93671e-06
-2.38807e-06
-2.33656e-06
-1.89901e-06
-1.85797e-06
-1.5097e-06
-1.47727e-06
-1.20152e-06
-1.1799e-06
-9.89033e-07
-1.60247e-06
-7.88549e-07
-6.16012e-07
-5.97789e-07
-4.89645e-07
-4.79411e-07
-3.95887e-07
-3.88126e-07
-3.23346e-07
-3.17351e-07
-2.67416e-07
-2.62808e-07
-2.24583e-07
-2.2105e-07
-1.91783e-07
-1.88911e-07
-1.63454e-07
-1.60663e-07
-1.32765e-07
-1.29767e-07
-9.99664e-08
-9.71122e-08
-7.25122e-08
-6.92222e-08
-3.04642e-08
-2.71714e-08
-1.65652e-09
-2.95272e-10
-6.65286e-11
-4.80676e-09
0.0108566
-0.00766684
-0.00136597
-0.000489487
-0.000170388
-0.000108802
-8.34325e-05
-7.89233e-05
-7.84093e-05
-0.000116813
-7.00848e-05
-5.7793e-05
-5.48576e-05
-4.82058e-05
-4.64169e-05
-4.04225e-05
-3.88376e-05
-3.34943e-05
-3.21018e-05
-2.74794e-05
-2.62868e-05
-2.23767e-05
-2.1375e-05
-1.812e-05
-1.72903e-05
-1.46117e-05
-1.39315e-05
-1.17455e-05
-1.11918e-05
-9.41853e-06
-8.97023e-06
-7.53816e-06
-7.17663e-06
-6.02387e-06
-5.73316e-06
-4.80754e-06
-4.57431e-06
-3.83252e-06
-3.64575e-06
-3.05227e-06
-2.90294e-06
-2.42886e-06
-2.30965e-06
-1.93156e-06
-1.8366e-06
-1.53576e-06
-1.46085e-06
-1.22448e-06
-1.17655e-06
-1.04898e-06
-1.47492e-06
-8.36356e-07
-6.39204e-07
-5.94304e-07
-4.98363e-07
-4.74511e-07
-4.02184e-07
-3.84213e-07
-3.28215e-07
-3.1434e-07
-2.71176e-07
-2.60511e-07
-2.2746e-07
-2.19278e-07
-1.93915e-07
-1.87258e-07
-1.65168e-07
-1.58705e-07
-1.34636e-07
-1.27708e-07
-1.02102e-07
-9.54872e-08
-7.39294e-08
-6.63305e-08
-3.33742e-08
-2.58033e-08
-4.00336e-09
-8.40492e-10
-1.92601e-10
-4.849e-09
0.0106837
-0.00694188
-0.00176201
-0.000594398
-0.000208546
-0.000117594
-8.66422e-05
-8.00571e-05
-8.11059e-05
-0.00010996
-7.23764e-05
-5.88939e-05
-5.47277e-05
-4.85851e-05
-4.61385e-05
-4.07444e-05
-3.85864e-05
-3.37839e-05
-3.18881e-05
-2.77323e-05
-2.61086e-05
-2.25921e-05
-2.12282e-05
-1.83002e-05
-1.71704e-05
-1.47605e-05
-1.38341e-05
-1.18672e-05
-1.11131e-05
-9.51743e-06
-8.90692e-06
-7.61814e-06
-7.12578e-06
-6.08832e-06
-5.6924e-06
-4.85933e-06
-4.54169e-06
-3.87405e-06
-3.61968e-06
-3.08552e-06
-2.88214e-06
-2.45543e-06
-2.29309e-06
-1.95278e-06
-1.82346e-06
-1.55277e-06
-1.45087e-06
-1.23989e-06
-1.17639e-06
-1.08677e-06
-1.38995e-06
-8.665e-07
-6.563e-07
-5.92856e-07
-5.04195e-07
-4.71546e-07
-4.06304e-07
-3.81818e-07
-3.31396e-07
-3.12497e-07
-2.73634e-07
-2.59107e-07
-2.29341e-07
-2.18193e-07
-1.95298e-07
-1.86222e-07
-1.66256e-07
-1.5745e-07
-1.3582e-07
-1.26395e-07
-1.03477e-07
-9.44592e-08
-7.47876e-08
-6.44526e-08
-3.52684e-08
-2.50041e-08
-5.6046e-09
-1.28505e-09
-2.99023e-10
-4.88489e-09
0.0105624
-0.00647567
-0.00199755
-0.000668031
-0.000234904
-0.000123983
-8.88756e-05
-8.08843e-05
-8.26893e-05
-0.000105765
-7.37032e-05
-5.96215e-05
-5.46762e-05
-4.8816e-05
-4.59775e-05
-4.09365e-05
-3.84406e-05
-3.39568e-05
-3.17645e-05
-2.78836e-05
-2.60058e-05
-2.27211e-05
-2.11436e-05
-1.84082e-05
-1.71015e-05
-1.48498e-05
-1.37783e-05
-1.19402e-05
-1.10681e-05
-9.57682e-06
-8.87065e-06
-7.66618e-06
-7.09666e-06
-6.12703e-06
-5.66907e-06
-4.89044e-06
-4.52303e-06
-3.89901e-06
-3.60477e-06
-3.1055e-06
-2.87025e-06
-2.47141e-06
-2.28361e-06
-1.96553e-06
-1.81595e-06
-1.56301e-06
-1.44524e-06
-1.24939e-06
-1.17726e-06
-1.10885e-06
-1.33803e-06
-8.84104e-07
-6.67518e-07
-5.92409e-07
-5.0778e-07
-4.6988e-07
-4.08789e-07
-3.80456e-07
-3.33313e-07
-3.11451e-07
-2.75116e-07
-2.5831e-07
-2.30475e-07
-2.17574e-07
-1.96126e-07
-1.8562e-07
-1.66895e-07
-1.56706e-07
-1.36514e-07
-1.25621e-07
-1.04295e-07
-9.38564e-08
-7.52716e-08
-6.33281e-08
-3.64054e-08
-2.45699e-08
-6.60245e-09
-1.59617e-09
-3.75724e-10
-4.91093e-09
0.0105
-0.00624763
-0.00210714
-0.000705798
-0.000248366
-0.000127335
-9.00223e-05
-8.13182e-05
-8.34207e-05
-0.000103773
-7.43098e-05
-5.99826e-05
-5.46606e-05
-4.89253e-05
-4.59039e-05
-4.10261e-05
-3.83739e-05
-3.40376e-05
-3.1708e-05
-2.79543e-05
-2.59589e-05
-2.27815e-05
-2.11052e-05
-1.84588e-05
-1.70702e-05
-1.48916e-05
-1.37529e-05
-1.19745e-05
-1.10476e-05
-9.60467e-06
-8.85419e-06
-7.68871e-06
-7.08345e-06
-6.14519e-06
-5.65849e-06
-4.90504e-06
-4.51456e-06
-3.91072e-06
-3.59801e-06
-3.11487e-06
-2.86485e-06
-2.4789e-06
-2.27932e-06
-1.97152e-06
-1.81254e-06
-1.56782e-06
-1.44272e-06
-1.25393e-06
-1.17795e-06
-1.119e-06
-1.31342e-06
-8.92201e-07
-6.73066e-07
-5.92335e-07
-5.09488e-07
-4.69134e-07
-4.09958e-07
-3.79842e-07
-3.34214e-07
-3.10978e-07
-2.75812e-07
-2.57951e-07
-2.31008e-07
-2.17295e-07
-1.96514e-07
-1.85343e-07
-1.6719e-07
-1.56361e-07
-1.36834e-07
-1.25262e-07
-1.04677e-07
-9.35782e-08
-7.54888e-08
-6.2802e-08
-3.69383e-08
-2.43807e-08
-7.08163e-09
-1.75573e-09
-4.15814e-10
-4.92461e-09
0.0105
-0.00624763
-0.00210714
-0.000705797
-0.000248366
-0.000127335
-9.00222e-05
-8.13182e-05
-8.34207e-05
-0.000103773
-7.43098e-05
-5.99827e-05
-5.46606e-05
-4.89253e-05
-4.59039e-05
-4.10261e-05
-3.83739e-05
-3.40376e-05
-3.1708e-05
-2.79544e-05
-2.59589e-05
-2.27815e-05
-2.11052e-05
-1.84588e-05
-1.70702e-05
-1.48916e-05
-1.37529e-05
-1.19745e-05
-1.10476e-05
-9.60467e-06
-8.85419e-06
-7.68871e-06
-7.08345e-06
-6.14519e-06
-5.65849e-06
-4.90504e-06
-4.51456e-06
-3.91072e-06
-3.59801e-06
-3.11487e-06
-2.86485e-06
-2.4789e-06
-2.27932e-06
-1.97152e-06
-1.81254e-06
-1.56782e-06
-1.44272e-06
-1.25393e-06
-1.17796e-06
-1.119e-06
-1.31342e-06
-8.92201e-07
-6.73066e-07
-5.92335e-07
-5.09488e-07
-4.69134e-07
-4.09958e-07
-3.79842e-07
-3.34214e-07
-3.10978e-07
-2.75812e-07
-2.57951e-07
-2.31008e-07
-2.17295e-07
-1.96514e-07
-1.85343e-07
-1.6719e-07
-1.56361e-07
-1.36834e-07
-1.25262e-07
-1.04677e-07
-9.35782e-08
-7.54888e-08
-6.28019e-08
-3.69383e-08
-2.43807e-08
-7.08161e-09
-1.75572e-09
-4.15812e-10
-4.9246e-09
0.0105624
-0.00647567
-0.00199755
-0.00066803
-0.000234903
-0.000123982
-8.88754e-05
-8.08843e-05
-8.26893e-05
-0.000105765
-7.37032e-05
-5.96215e-05
-5.46762e-05
-4.8816e-05
-4.59775e-05
-4.09365e-05
-3.84406e-05
-3.39568e-05
-3.17645e-05
-2.78836e-05
-2.60058e-05
-2.27211e-05
-2.11437e-05
-1.84082e-05
-1.71015e-05
-1.48498e-05
-1.37783e-05
-1.19402e-05
-1.10681e-05
-9.57682e-06
-8.87065e-06
-7.66618e-06
-7.09667e-06
-6.12703e-06
-5.66908e-06
-4.89045e-06
-4.52303e-06
-3.89901e-06
-3.60477e-06
-3.1055e-06
-2.87025e-06
-2.47141e-06
-2.28361e-06
-1.96553e-06
-1.81595e-06
-1.56301e-06
-1.44524e-06
-1.24939e-06
-1.17726e-06
-1.10885e-06
-1.33803e-06
-8.84104e-07
-6.67518e-07
-5.92409e-07
-5.0778e-07
-4.6988e-07
-4.0879e-07
-3.80456e-07
-3.33314e-07
-3.11451e-07
-2.75116e-07
-2.5831e-07
-2.30475e-07
-2.17574e-07
-1.96126e-07
-1.8562e-07
-1.66895e-07
-1.56706e-07
-1.36514e-07
-1.25621e-07
-1.04295e-07
-9.38564e-08
-7.52715e-08
-6.33281e-08
-3.64054e-08
-2.45699e-08
-6.60242e-09
-1.59614e-09
-3.75719e-10
-4.91092e-09
0.0106837
-0.00694189
-0.00176201
-0.000594397
-0.000208545
-0.000117593
-8.6642e-05
-8.00571e-05
-8.11059e-05
-0.00010996
-7.23764e-05
-5.88939e-05
-5.47277e-05
-4.85851e-05
-4.61385e-05
-4.07445e-05
-3.85864e-05
-3.37839e-05
-3.18881e-05
-2.77323e-05
-2.61086e-05
-2.25921e-05
-2.12282e-05
-1.83002e-05
-1.71704e-05
-1.47605e-05
-1.38342e-05
-1.18672e-05
-1.11131e-05
-9.51744e-06
-8.90692e-06
-7.61815e-06
-7.12578e-06
-6.08832e-06
-5.69241e-06
-4.85933e-06
-4.54169e-06
-3.87406e-06
-3.61968e-06
-3.08552e-06
-2.88214e-06
-2.45543e-06
-2.29309e-06
-1.95278e-06
-1.82346e-06
-1.55277e-06
-1.45087e-06
-1.23989e-06
-1.17639e-06
-1.08678e-06
-1.38995e-06
-8.665e-07
-6.563e-07
-5.92856e-07
-5.04195e-07
-4.71546e-07
-4.06304e-07
-3.81818e-07
-3.31397e-07
-3.12498e-07
-2.73634e-07
-2.59107e-07
-2.29341e-07
-2.18193e-07
-1.95298e-07
-1.86222e-07
-1.66256e-07
-1.5745e-07
-1.3582e-07
-1.26395e-07
-1.03477e-07
-9.44592e-08
-7.47876e-08
-6.44526e-08
-3.52684e-08
-2.5004e-08
-5.60455e-09
-1.28502e-09
-2.99016e-10
-4.88487e-09
0.0108566
-0.00766685
-0.00136597
-0.000489486
-0.000170387
-0.000108802
-8.34322e-05
-7.89233e-05
-7.84093e-05
-0.000116813
-7.00848e-05
-5.77931e-05
-5.48576e-05
-4.82058e-05
-4.6417e-05
-4.04225e-05
-3.88376e-05
-3.34944e-05
-3.21018e-05
-2.74794e-05
-2.62868e-05
-2.23767e-05
-2.1375e-05
-1.812e-05
-1.72904e-05
-1.46118e-05
-1.39315e-05
-1.17455e-05
-1.11918e-05
-9.41854e-06
-8.97023e-06
-7.53817e-06
-7.17663e-06
-6.02388e-06
-5.73316e-06
-4.80754e-06
-4.57431e-06
-3.83253e-06
-3.64575e-06
-3.05227e-06
-2.90294e-06
-2.42886e-06
-2.30966e-06
-1.93156e-06
-1.8366e-06
-1.53576e-06
-1.46085e-06
-1.22448e-06
-1.17656e-06
-1.04898e-06
-1.47492e-06
-8.36356e-07
-6.39204e-07
-5.94304e-07
-4.98364e-07
-4.74511e-07
-4.02184e-07
-3.84213e-07
-3.28215e-07
-3.1434e-07
-2.71176e-07
-2.60511e-07
-2.2746e-07
-2.19278e-07
-1.93915e-07
-1.87258e-07
-1.65168e-07
-1.58705e-07
-1.34636e-07
-1.27708e-07
-1.02102e-07
-9.54872e-08
-7.39293e-08
-6.63305e-08
-3.33742e-08
-2.58032e-08
-4.00332e-09
-8.40463e-10
-1.92595e-10
-4.84898e-09
0.0110679
-0.00868225
-0.000752947
-0.000362275
-0.000121926
-9.85601e-05
-7.93871e-05
-7.76291e-05
-7.41554e-05
-0.00012707
-6.64153e-05
-5.63175e-05
-5.51358e-05
-4.76317e-05
-4.68633e-05
-3.99239e-05
-3.92388e-05
-3.30465e-05
-3.24444e-05
-2.70892e-05
-2.65736e-05
-2.20449e-05
-2.16119e-05
-1.78427e-05
-1.74841e-05
-1.4383e-05
-1.4089e-05
-1.15584e-05
-1.13191e-05
-9.26657e-06
-9.07283e-06
-7.41531e-06
-7.25907e-06
-5.92491e-06
-5.79928e-06
-4.72803e-06
-4.62724e-06
-3.76877e-06
-3.68806e-06
-3.00124e-06
-2.93671e-06
-2.38807e-06
-2.33656e-06
-1.89901e-06
-1.85797e-06
-1.5097e-06
-1.47727e-06
-1.20152e-06
-1.1799e-06
-9.89034e-07
-1.60247e-06
-7.88549e-07
-6.16012e-07
-5.97789e-07
-4.89645e-07
-4.79411e-07
-3.95887e-07
-3.88126e-07
-3.23346e-07
-3.17351e-07
-2.67416e-07
-2.62808e-07
-2.24583e-07
-2.2105e-07
-1.91783e-07
-1.88911e-07
-1.63454e-07
-1.60663e-07
-1.32765e-07
-1.29767e-07
-9.99664e-08
-9.71123e-08
-7.25122e-08
-6.92222e-08
-3.04642e-08
-2.71714e-08
-1.6565e-09
-2.9526e-10
-6.65268e-11
-4.80676e-09
0.0110557
-0.00868488
-0.000752648
-0.000361819
-0.00012117
-9.7783e-05
-7.85765e-05
-7.68134e-05
-7.33404e-05
-0.000125652
-6.56635e-05
-5.56649e-05
-5.44952e-05
-4.7066e-05
-4.63055e-05
-3.94386e-05
-3.87608e-05
-3.26358e-05
-3.20403e-05
-2.67453e-05
-2.62356e-05
-2.17594e-05
-2.13315e-05
-1.76075e-05
-1.72532e-05
-1.41902e-05
-1.38998e-05
-1.14012e-05
-1.11649e-05
-9.13882e-06
-8.94761e-06
-7.3119e-06
-7.15774e-06
-5.84147e-06
-5.71754e-06
-4.6609e-06
-4.5615e-06
-3.71491e-06
-3.63532e-06
-2.95813e-06
-2.89451e-06
-2.35365e-06
-2.30287e-06
-1.87158e-06
-1.83113e-06
-1.48786e-06
-1.45591e-06
-1.18414e-06
-1.16284e-06
-9.74749e-07
-1.57935e-06
-7.77184e-07
-6.0716e-07
-5.89201e-07
-4.82638e-07
-4.72554e-07
-3.90254e-07
-3.82607e-07
-3.18782e-07
-3.12876e-07
-2.63686e-07
-2.59148e-07
-2.21509e-07
-2.18032e-07
-1.89236e-07
-1.86412e-07
-1.61395e-07
-1.5865e-07
-1.31194e-07
-1.2824e-07
-9.88395e-08
-9.60241e-08
-7.17647e-08
-6.85132e-08
-3.01567e-08
-2.68978e-08
-1.63981e-09
-2.92291e-10
-6.58569e-11
-4.75627e-09
0.0108444
-0.00766912
-0.0013659
-0.00048906
-0.000169667
-0.000108031
-8.26246e-05
-7.81017e-05
-7.75514e-05
-0.00011551
-6.92923e-05
-5.71252e-05
-5.42196e-05
-4.76344e-05
-4.58639e-05
-3.9932e-05
-3.8364e-05
-3.30788e-05
-3.17016e-05
-2.71312e-05
-2.59522e-05
-2.20875e-05
-2.10976e-05
-1.78815e-05
-1.70619e-05
-1.44162e-05
-1.37444e-05
-1.15859e-05
-1.10392e-05
-9.28884e-06
-8.84637e-06
-7.43315e-06
-7.07641e-06
-5.93912e-06
-5.65233e-06
-4.73934e-06
-4.50931e-06
-3.77779e-06
-3.59361e-06
-3.00845e-06
-2.86122e-06
-2.39386e-06
-2.27635e-06
-1.90366e-06
-1.81007e-06
-1.51355e-06
-1.43972e-06
-1.20677e-06
-1.15954e-06
-1.03383e-06
-1.45364e-06
-8.24302e-07
-6.30015e-07
-5.85768e-07
-4.91229e-07
-4.67725e-07
-3.96459e-07
-3.78752e-07
-3.23579e-07
-3.0991e-07
-2.67391e-07
-2.56887e-07
-2.24343e-07
-2.16289e-07
-1.91335e-07
-1.84789e-07
-1.63079e-07
-1.56722e-07
-1.33034e-07
-1.26207e-07
-1.00946e-07
-9.44212e-08
-7.31594e-08
-6.56496e-08
-3.30361e-08
-2.55431e-08
-3.96295e-09
-8.32007e-10
-1.90657e-10
-4.79808e-09
0.0106715
-0.0069439
-0.00176209
-0.000593999
-0.000207851
-0.000116827
-8.58363e-05
-7.92303e-05
-8.02213e-05
-0.000108735
-7.15584e-05
-5.82146e-05
-5.40909e-05
-4.801e-05
-4.55884e-05
-4.02507e-05
-3.81156e-05
-3.33652e-05
-3.14904e-05
-2.73813e-05
-2.57761e-05
-2.23004e-05
-2.09525e-05
-1.80595e-05
-1.69434e-05
-1.45631e-05
-1.36483e-05
-1.17061e-05
-1.09616e-05
-9.38648e-06
-8.78391e-06
-7.51209e-06
-7.02626e-06
-6.0027e-06
-5.61214e-06
-4.79042e-06
-4.47714e-06
-3.81874e-06
-3.56791e-06
-3.04124e-06
-2.84072e-06
-2.42006e-06
-2.26002e-06
-1.92458e-06
-1.79711e-06
-1.53031e-06
-1.42989e-06
-1.22196e-06
-1.15938e-06
-1.07108e-06
-1.3699e-06
-8.54011e-07
-6.46863e-07
-5.84341e-07
-4.96976e-07
-4.64804e-07
-4.00519e-07
-3.76392e-07
-3.26714e-07
-3.08096e-07
-2.69812e-07
-2.55505e-07
-2.26196e-07
-2.15222e-07
-1.92696e-07
-1.83771e-07
-1.64147e-07
-1.55486e-07
-1.34197e-07
-1.24911e-07
-1.02303e-07
-9.34071e-08
-7.40034e-08
-6.37896e-08
-3.49102e-08
-2.47517e-08
-5.54802e-09
-1.27208e-09
-2.96004e-10
-4.83361e-09
0.0105501
-0.00647753
-0.00199771
-0.000667652
-0.000234226
-0.000123219
-8.80709e-05
-8.00539e-05
-8.17895e-05
-0.000104587
-7.28705e-05
-5.89346e-05
-5.40399e-05
-4.82386e-05
-4.54291e-05
-4.04407e-05
-3.79714e-05
-3.35363e-05
-3.13682e-05
-2.75309e-05
-2.56745e-05
-2.24279e-05
-2.0869e-05
-1.81662e-05
-1.68754e-05
-1.46513e-05
-1.35931e-05
-1.17782e-05
-1.09171e-05
-9.44511e-06
-8.74812e-06
-7.5595e-06
-6.99754e-06
-6.0409e-06
-5.58913e-06
-4.82112e-06
-4.45874e-06
-3.84336e-06
-3.55321e-06
-3.06094e-06
-2.829e-06
-2.43581e-06
-2.25068e-06
-1.93715e-06
-1.78971e-06
-1.54041e-06
-1.42434e-06
-1.23133e-06
-1.16024e-06
-1.09283e-06
-1.31872e-06
-8.71361e-07
-6.57919e-07
-5.83902e-07
-5.00509e-07
-4.63162e-07
-4.02968e-07
-3.75051e-07
-3.28603e-07
-3.07065e-07
-2.71272e-07
-2.54721e-07
-2.27312e-07
-2.14614e-07
-1.93511e-07
-1.83179e-07
-1.64775e-07
-1.54754e-07
-1.3488e-07
-1.24146e-07
-1.0311e-07
-9.28125e-08
-7.44791e-08
-6.26757e-08
-3.60351e-08
-2.43217e-08
-6.53578e-09
-1.58005e-09
-3.71931e-10
-4.85939e-09
0.0104877
-0.00624941
-0.00210734
-0.00070543
-0.000247697
-0.000126574
-8.92181e-05
-8.0486e-05
-8.25139e-05
-0.000102618
-7.34704e-05
-5.9292e-05
-5.40244e-05
-4.83468e-05
-4.53563e-05
-4.05295e-05
-3.79054e-05
-3.36162e-05
-3.13124e-05
-2.76008e-05
-2.56282e-05
-2.24876e-05
-2.0831e-05
-1.82162e-05
-1.68444e-05
-1.46926e-05
-1.35681e-05
-1.1812e-05
-1.08969e-05
-9.47261e-06
-8.73188e-06
-7.58174e-06
-6.98451e-06
-6.05882e-06
-5.5787e-06
-4.83552e-06
-4.45039e-06
-3.8549e-06
-3.54655e-06
-3.07018e-06
-2.82368e-06
-2.44319e-06
-2.24645e-06
-1.94305e-06
-1.78636e-06
-1.54515e-06
-1.42186e-06
-1.2358e-06
-1.16093e-06
-1.10284e-06
-1.29447e-06
-8.79342e-07
-6.63386e-07
-5.83829e-07
-5.02192e-07
-4.62428e-07
-4.0412e-07
-3.74446e-07
-3.29491e-07
-3.06599e-07
-2.71959e-07
-2.54367e-07
-2.27837e-07
-2.14339e-07
-1.93893e-07
-1.82908e-07
-1.65065e-07
-1.54413e-07
-1.35194e-07
-1.23792e-07
-1.03486e-07
-9.25379e-08
-7.46925e-08
-6.21544e-08
-3.65623e-08
-2.41343e-08
-7.01011e-09
-1.738e-09
-4.11616e-10
-4.87293e-09
0.0104877
-0.00624942
-0.00210734
-0.000705429
-0.000247696
-0.000126574
-8.9218e-05
-8.04859e-05
-8.25139e-05
-0.000102618
-7.34704e-05
-5.9292e-05
-5.40244e-05
-4.83468e-05
-4.53564e-05
-4.05295e-05
-3.79054e-05
-3.36162e-05
-3.13124e-05
-2.76009e-05
-2.56282e-05
-2.24876e-05
-2.0831e-05
-1.82162e-05
-1.68444e-05
-1.46926e-05
-1.35681e-05
-1.1812e-05
-1.08969e-05
-9.47261e-06
-8.73188e-06
-7.58174e-06
-6.98451e-06
-6.05882e-06
-5.5787e-06
-4.83552e-06
-4.45039e-06
-3.8549e-06
-3.54655e-06
-3.07018e-06
-2.82368e-06
-2.44319e-06
-2.24645e-06
-1.94305e-06
-1.78636e-06
-1.54515e-06
-1.42186e-06
-1.2358e-06
-1.16093e-06
-1.10284e-06
-1.29447e-06
-8.79342e-07
-6.63386e-07
-5.83829e-07
-5.02192e-07
-4.62428e-07
-4.0412e-07
-3.74446e-07
-3.29491e-07
-3.06599e-07
-2.71959e-07
-2.54367e-07
-2.27837e-07
-2.1434e-07
-1.93893e-07
-1.82908e-07
-1.65065e-07
-1.54413e-07
-1.35194e-07
-1.23792e-07
-1.03486e-07
-9.25379e-08
-7.46925e-08
-6.21544e-08
-3.65623e-08
-2.41343e-08
-7.01009e-09
-1.73799e-09
-4.11613e-10
-4.87293e-09
0.0105501
-0.00647754
-0.00199771
-0.000667651
-0.000234225
-0.000123219
-8.80707e-05
-8.00539e-05
-8.17895e-05
-0.000104587
-7.28706e-05
-5.89346e-05
-5.40399e-05
-4.82386e-05
-4.54291e-05
-4.04407e-05
-3.79715e-05
-3.35363e-05
-3.13682e-05
-2.75309e-05
-2.56745e-05
-2.24279e-05
-2.0869e-05
-1.81662e-05
-1.68754e-05
-1.46513e-05
-1.35931e-05
-1.17782e-05
-1.09171e-05
-9.44511e-06
-8.74812e-06
-7.5595e-06
-6.99754e-06
-6.04091e-06
-5.58913e-06
-4.82112e-06
-4.45874e-06
-3.84336e-06
-3.55321e-06
-3.06094e-06
-2.829e-06
-2.43581e-06
-2.25069e-06
-1.93715e-06
-1.78971e-06
-1.54041e-06
-1.42434e-06
-1.23133e-06
-1.16024e-06
-1.09283e-06
-1.31873e-06
-8.71361e-07
-6.57919e-07
-5.83902e-07
-5.00509e-07
-4.63162e-07
-4.02968e-07
-3.75051e-07
-3.28603e-07
-3.07065e-07
-2.71272e-07
-2.54721e-07
-2.27312e-07
-2.14614e-07
-1.93511e-07
-1.83179e-07
-1.64775e-07
-1.54754e-07
-1.3488e-07
-1.24146e-07
-1.0311e-07
-9.28125e-08
-7.44791e-08
-6.26757e-08
-3.60351e-08
-2.43217e-08
-6.53575e-09
-1.58003e-09
-3.71925e-10
-4.85938e-09
0.0106715
-0.00694391
-0.00176209
-0.000593998
-0.00020785
-0.000116826
-8.5836e-05
-7.92303e-05
-8.02214e-05
-0.000108735
-7.15585e-05
-5.82146e-05
-5.4091e-05
-4.801e-05
-4.55884e-05
-4.02507e-05
-3.81156e-05
-3.33652e-05
-3.14904e-05
-2.73813e-05
-2.57761e-05
-2.23004e-05
-2.09525e-05
-1.80595e-05
-1.69434e-05
-1.45631e-05
-1.36483e-05
-1.17061e-05
-1.09616e-05
-9.38648e-06
-8.78391e-06
-7.51209e-06
-7.02626e-06
-6.00271e-06
-5.61214e-06
-4.79042e-06
-4.47715e-06
-3.81875e-06
-3.56791e-06
-3.04124e-06
-2.84072e-06
-2.42006e-06
-2.26002e-06
-1.92458e-06
-1.79711e-06
-1.53032e-06
-1.42989e-06
-1.22196e-06
-1.15938e-06
-1.07108e-06
-1.3699e-06
-8.54011e-07
-6.46863e-07
-5.84342e-07
-4.96976e-07
-4.64804e-07
-4.00519e-07
-3.76393e-07
-3.26714e-07
-3.08096e-07
-2.69813e-07
-2.55505e-07
-2.26196e-07
-2.15222e-07
-1.92696e-07
-1.83771e-07
-1.64147e-07
-1.55486e-07
-1.34198e-07
-1.24911e-07
-1.02303e-07
-9.34072e-08
-7.40034e-08
-6.37896e-08
-3.49102e-08
-2.47516e-08
-5.54797e-09
-1.27204e-09
-2.95997e-10
-4.83359e-09
0.0108444
-0.00766913
-0.0013659
-0.000489059
-0.000169666
-0.00010803
-8.26243e-05
-7.81017e-05
-7.75514e-05
-0.00011551
-6.92923e-05
-5.71252e-05
-5.42197e-05
-4.76345e-05
-4.58639e-05
-3.99321e-05
-3.8364e-05
-3.30788e-05
-3.17016e-05
-2.71312e-05
-2.59522e-05
-2.20875e-05
-2.10976e-05
-1.78815e-05
-1.70619e-05
-1.44162e-05
-1.37444e-05
-1.15859e-05
-1.10392e-05
-9.28885e-06