/*--------------------------------*- C++ -*----------------------------------*\
| =========                 |                                                 |
| \\      /  F ield         | OpenFOAM: The Open Source CFD Toolbox           |
|  \\    /   O peration     | Version:  5.x                                   |
|   \\  /    A nd           | Web:      www.OpenFOAM.org                      |
|    \\/     M anipulation  |                                                 |
\*---------------------------------------------------------------------------*/
FoamFile
{
    version     2.0;
    format      ascii;
    class       volScalarField;
    location    "18.8";
    object      gradTx;
}
// * * * * * * * * * * * * * * * * * * * * * * * * * * * * * * * * * * * * * //

dimensions      [0 -1 0 1 0 0 0];

internalField   nonuniform List<scalar> 
6300
(
-12.9643
-12.7392
-12.2916
-11.627
-10.7544
-9.6868
-8.44251
-7.04559
-5.52677
-3.92359
-2.27996
-0.644643
0.931147
2.39726
3.70855
-13.1897
-12.962
-12.5089
-11.8353
-10.9496
-9.86383
-8.59542
-7.16779
-5.61143
-3.96438
-2.27195
-0.585446
1.0405
2.55174
3.89934
-13.643
-13.4104
-12.9468
-12.2562
-11.345
-10.2238
-8.90785
-7.41902
-5.7871
-4.05085
-2.25835
-0.466014
1.26421
2.86957
4.29269
-14.3294
-14.09
-13.6121
-12.8978
-11.9509
-10.7788
-9.39345
-7.81366
-6.06741
-4.19388
-2.24491
-0.284817
1.61244
3.36926
4.91343
-15.2553
-15.0084
-14.5142
-13.7721
-12.7824
-11.5474
-10.0737
-8.37507
-6.47531
-4.41267
-2.24293
-0.0411015
2.10077
4.08129
5.80333
-16.4283
-16.1744
-15.6644
-14.8944
-13.8593
-12.5548
-10.9794
-9.13786
-7.04642
-4.73887
-2.27337
0.262232
2.75011
5.05144
7.02741
-17.8556
-17.5968
-17.075
-16.2819
-15.2059
-13.8335
-12.1515
-10.1509
-7.83393
-5.22332
-2.37425
0.612953
3.58568
6.3466
8.68555
-19.5419
-19.2824
-18.757
-17.9525
-16.8493
-15.4222
-13.6423
-11.4805
-8.91544
-5.94655
-2.61359
0.977822
4.6327
8.0634
10.9334
-21.4878
-21.2343
-20.7185
-19.922
-18.8167
-17.3641
-15.5153
-13.2136
-10.4011
-7.03416
-3.11168
1.27889
5.90357
10.3405
14.0221
-23.6875
-23.4489
-22.9608
-22.2005
-21.1318
-19.7024
-17.8415
-15.4577
-12.4416
-8.67759
-4.07817
1.3455
7.36183
13.3726
18.378
-26.1259
-25.9131
-25.4755
-24.7877
-23.8078
-22.4726
-20.6909
-18.3345
-15.23
-11.1568
-5.86921
0.819099
8.82526
17.4097
24.7788
-28.7774
-28.6024
-28.2408
-27.6673
-26.8392
-25.6895
-24.1151
-21.9597
-18.9876
-14.8506
-9.06131
-1.02552
9.71002
22.6616
34.783
-31.604
-31.4786
-31.218
-30.8015
-30.1925
-29.3312
-28.1206
-26.4018
-23.9102
-20.197
-14.5002
-5.57028
8.37826
28.7431
51.9297
-34.5563
-34.4899
-34.3515
-34.1285
-33.7984
-33.3225
-32.6344
-31.6171
-30.0545
-27.5271
-23.1727
-15.134
0.629609
32.0023
85.6431
-37.5752
-37.5735
-37.5698
-37.5628
-37.5502
-37.526
-37.4777
-37.3777
-37.1638
-36.6845
-35.5297
-32.4231
-22.7286
12.9925
166.28
4.75112
5.53543
6.16265
6.63101
6.94433
7.111
7.14274
7.05336
6.85765
6.57038
6.20565
5.77646
5.2944
4.76964
4.21091
3.62564
3.0201
2.39953
1.76835
1.13023
0.488285
-0.154864
-0.796997
-1.43622
-2.07094
-2.6998
-3.32169
-3.93572
-4.54125
-5.13784
-5.72526
-6.3035
-6.87269
-7.43308
-7.98495
-8.52861
-9.06429
-9.5921
-10.112
-10.6239
-11.1275
-11.6225
-12.1087
-12.5856
-13.0534
-13.5121
-13.9619
-14.4032
-14.8366
-15.2626
-15.6817
-16.0941
-16.4998
-16.8984
-17.2895
-17.6721
-18.0451
-18.4073
-18.7574
-19.0944
-19.4171
-19.7247
-20.0163
-20.2912
-20.5484
-20.7866
-21.0044
-21.1995
-21.3693
-21.5105
-21.6194
-21.6919
-21.7238
-21.7111
-21.6499
-21.5371
-21.37
-21.1472
-20.8679
-20.5324
-20.1422
-19.6996
-19.2079
-18.6713
-18.0951
-17.4855
-16.8494
-16.1945
-15.5291
-14.8614
4.96546
5.76127
6.39106
6.85394
7.15519
7.30498
7.31683
7.2062
6.98921
6.68164
6.29824
5.85234
5.35567
4.81834
4.24892
3.65465
3.04156
2.41466
1.77817
1.1356
0.489894
-0.156443
-0.801285
-1.44281
-2.07946
-2.70991
-3.33305
-3.94802
-4.55416
-5.15105
-5.7385
-6.31654
-6.88537
-7.44531
-7.99675
-8.54008
-9.07557
-9.60339
-10.1235
-10.6358
-11.1398
-11.6353
-12.1217
-12.5988
-13.0665
-13.5247
-13.9739
-14.4145
-14.8471
-15.2725
-15.6912
-16.1035
-16.5097
-16.9092
-17.3016
-17.6857
-18.0605
-18.4244
-18.7762
-19.1147
-19.4387
-19.7475
-20.0403
-20.3165
-20.5754
-20.816
-21.0368
-21.2357
-21.4102
-21.5567
-21.6715
-21.7501
-21.788
-21.7807
-21.7241
-21.6149
-21.4501
-21.2282
-20.9484
-20.6111
-20.2175
-19.7701
-19.2722
-18.7281
-18.1431
-17.5235
-16.8763
-16.2096
-15.532
-14.8523
5.40725
6.22587
6.85949
7.30929
7.58386
7.69728
7.66699
7.51192
7.25095
6.90184
6.48057
6.0011
5.47528
4.91302
4.32255
3.71059
3.08271
2.44346
1.79662
1.14535
0.492291
-0.160288
-0.810449
-1.4565
-2.09698
-2.73059
-3.35625
-3.97308
-4.58042
-5.17788
-5.76532
-6.34285
-6.91083
-7.46976
-8.02023
-8.56278
-9.09786
-9.62572
-10.1463
-10.6594
-11.1645
-11.6609
-12.1481
-12.6255
-13.0929
-13.5503
-13.9981
-14.4371
-14.868
-15.2919
-15.7096
-16.1219
-16.5288
-16.9302
-17.3253
-17.7128
-18.0912
-18.4589
-18.8141
-19.1556
-19.4821
-19.793
-20.0879
-20.3665
-20.6286
-20.8736
-21.1003
-21.3071
-21.491
-21.6486
-21.7755
-21.8667
-21.9169
-21.9209
-21.8741
-21.7723
-21.6124
-21.3925
-21.1117
-20.7705
-20.3701
-19.9131
-19.4029
-18.8437
-18.2408
-17.6008
-16.9311
-16.2403
-15.5378
-14.8335
6.10423
6.95654
7.59227
8.01662
8.24426
8.29619
8.19651
7.96982
7.63932
7.22566
6.74648
6.21637
5.64712
5.04814
4.42689
3.78929
3.14005
2.48301
1.8213
1.15752
0.493875
-0.16773
-0.825629
-1.47833
-2.12446
-2.76279
-3.39223
-4.01184
-4.62096
-5.21917
-5.8064
-6.38293
-6.94932
-7.50639
-8.05506
-8.5962
-9.13053
-9.65842
-10.1799
-10.6945
-11.2014
-11.6997
-12.1884
-12.6665
-13.1336
-13.5896
-14.0351
-14.471
-14.8988
-15.3199
-15.7359
-16.1477
-16.5559
-16.9602
-17.3597
-17.7528
-18.1373
-18.511
-18.8717
-19.2177
-19.5478
-19.8614
-20.1588
-20.4402
-20.7062
-20.9572
-21.1926
-21.4109
-21.6096
-21.7846
-21.9307
-22.042
-22.112
-22.1343
-22.1029
-22.013
-21.8608
-21.6441
-21.3619
-21.0147
-20.6041
-20.1327
-19.6038
-19.0218
-18.3919
-17.7207
-17.0162
-16.2877
-15.5461
-14.803
7.10311
7.99873
8.62909
9.00686
9.15737
9.11308
8.9086
8.57692
8.14715
7.64357
7.08548
6.48775
5.86154
5.21512
4.55459
3.88454
3.20846
2.52913
1.8488
1.16935
0.492402
-0.180619
-0.848402
-1.50969
-2.16326
-2.80788
-3.4424
-4.06578
-4.67722
-5.27628
-5.86291
-6.4376
-7.00124
-7.55512
-8.1007
-8.63941
-9.1724
-9.70034
-10.2233
-10.7405
-11.2507
-11.7524
-12.2438
-12.7234
-13.1902
-13.644
-14.0857
-14.5166
-14.939
-15.3553
-15.7679
-16.1785
-16.5883
-16.9969
-17.4032
-17.8049
-18.1987
-18.5815
-18.9503
-19.3025
-19.6369
-19.9532
-20.2523
-20.5357
-20.8054
-21.063
-21.3091
-21.543
-21.762
-21.9618
-22.1359
-22.2766
-22.3756
-22.4246
-22.4159
-22.3432
-22.202
-21.9897
-21.7054
-21.35
-20.9255
-20.4347
-19.881
-19.2685
-18.6022
-17.8884
-17.1354
-16.3539
-15.5566
-14.7579
8.47698
9.42255
10.0293
10.324
10.3507
10.1603
9.80356
9.32494
8.761
8.13968
7.4813
6.7999
6.10485
5.40219
4.69582
3.98828
3.28139
2.57653
1.87488
1.17745
0.48515
-0.201165
-0.880625
-1.55227
-2.21501
-2.86758
-3.50865
-4.13694
-4.75137
-5.35129
-5.93666
-6.50816
-7.0672
-7.61577
-8.1562
-8.6908
-9.22151
-9.74946
-10.2748
-10.7964
-11.3124
-11.8199
-12.3161
-12.7984
-13.2652
-13.7159
-14.1516
-14.5744
-14.9879
-15.396
-15.8025
-16.2105
-16.622
-17.0369
-17.4534
-17.8679
-18.2759
-18.6722
-19.0524
-19.4128
-19.7518
-20.0696
-20.3681
-20.6508
-20.9219
-21.1851
-21.443
-21.6961
-21.9421
-22.1757
-22.3888
-22.571
-22.7111
-22.7978
-22.8208
-22.7719
-22.6454
-22.4386
-22.1511
-21.7847
-21.3422
-20.8271
-20.2427
-19.5927
-18.8807
-18.1123
-17.2956
-16.4425
-15.569
-14.6937
10.3388
11.3339
11.8786
12.027
11.856
11.447
10.8736
10.1956
9.45716
8.68889
7.90999
7.13148
6.35889
5.59442
4.83852
4.09091
3.35121
2.61917
1.89475
1.17804
0.46916
-0.23169
-0.924196
-1.60777
-2.28146
-2.94389
-3.59338
-4.22811
-4.84644
-5.44727
-6.03038
-6.59667
-7.14823
-7.68814
-8.22007
-8.74779
-9.27452
-9.80232
-10.3315
-10.8605
-11.386
-11.9035
-12.4082
-12.8958
-13.3633
-13.8095
-14.2357
-14.6456
-15.0445
-15.4387
-15.8346
-16.2375
-16.6507
-17.0745
-17.5062
-17.9403
-18.3696
-18.7861
-19.1826
-19.5539
-19.8972
-20.2135
-20.5065
-20.7826
-21.0495
-21.3145
-21.5835
-21.8592
-22.1399
-22.419
-22.6858
-22.9258
-23.1234
-23.2625
-23.329
-23.3119
-23.2042
-23.0034
-22.7103
-22.3287
-21.8633
-21.3188
-20.6989
-20.0057
-19.2404
-18.4057
-17.508
-16.5604
-15.5836
-14.6039
12.8659
13.8935
14.2982
14.1896
13.7038
12.9702
12.0943
11.1528
10.1961
9.25316
8.33788
7.45429
6.601
5.77411
4.9691
4.182
3.40983
2.65067
1.90339
1.16721
0.441504
-0.274331
-0.980712
-1.67759
-2.3642
-3.03891
-3.69941
-4.34293
-4.96675
-5.5688
-6.14832
-6.70639
-7.24604
-7.77196
-8.28997
-8.80615
-9.32596
-9.85311
-10.3885
-10.9296
-11.471
-12.0055
-12.525
-13.0222
-13.4918
-13.9316
-14.3433
-14.7325
-15.1077
-15.4789
-15.8566
-16.2496
-16.6638
-17.1005
-17.5553
-18.0195
-18.4814
-18.9285
-19.3492
-19.7349
-20.0815
-20.3906
-20.669
-20.9275
-21.1794
-21.438
-21.7143
-22.0149
-22.3396
-22.6801
-23.0209
-23.3417
-23.6196
-23.8315
-23.9575
-23.9821
-23.8971
-23.7007
-23.3969
-22.9932
-22.498
-21.919
-21.2605
-20.5222
-19.6999
-18.7894
-17.792
-16.7203
-15.6023
-14.4781
16.3475
17.35
17.4566
16.895
15.9082
14.6981
13.409
12.1317
10.9148
9.77742
8.7199
7.73326
6.8049
5.92207
5.07373
4.25142
3.44955
2.66495
1.8959
1.14119
0.399528
-0.330676
-1.05099
-1.76229
-2.46411
-3.15446
-3.82992
-4.48614
-5.11843
-5.72278
-6.29717
-6.84264
-7.36358
-7.86718
-8.36247
-8.85925
-9.36681
-9.89202
-10.4371
-10.9981
-11.5661
-12.129
-12.6737
-13.1882
-13.663
-14.094
-14.4832
-14.8396
-15.1764
-15.5097
-15.8563
-16.231
-16.6446
-17.1001
-17.5907
-18.1018
-18.6146
-19.1088
-19.566
-19.9719
-20.3197
-20.6118
-20.8598
-21.0818
-21.2997
-21.5357
-21.8099
-22.1359
-22.5164
-22.9403
-23.3847
-23.8192
-24.2103
-24.5243
-24.7315
-24.8101
-24.75
-24.5525
-24.2273
-23.789
-23.2532
-22.6335
-21.9368
-21.1595
-20.2864
-19.2982
-18.1827
-16.9468
-15.6299
-14.2991
21.282
22.0961
21.5769
20.2124
18.4337
16.5396
14.7067
13.0233
11.5191
10.1864
8.99962
7.92808
6.94302
6.0202
5.14067
4.29122
3.46425
2.65671
1.86762
1.09628
0.340943
-0.401357
-1.13432
-1.86071
-2.58062
-3.29147
-3.98819
-4.66387
-5.31034
-5.91993
-6.48768
-7.01419
-7.50609
-7.97436
-8.43278
-8.89678
-9.38218
-9.90229
-10.4627
-11.0565
-11.6684
-12.2785
-12.8661
-13.4111
-13.8975
-14.3163
-14.6705
-14.9746
-15.2499
-15.5215
-15.8152
-16.1563
-16.5651
-17.0491
-17.5963
-18.1816
-18.7742
-19.3423
-19.8564
-20.2925
-20.6378
-20.8962
-21.0877
-21.2421
-21.3936
-21.5782
-21.8305
-22.178
-22.6307
-23.1709
-23.7624
-24.3592
-24.9118
-25.3706
-25.6903
-25.8378
-25.8006
-25.5878
-25.2203
-24.725
-24.1292
-23.4585
-22.729
-21.9347
-21.0383
-19.9901
-18.7465
-17.29
-15.6771
-14.0353
28.5961
28.7615
26.9139
24.1256
21.1248
18.2923
15.789
13.6565
11.876
10.3852
9.11316
7.99813
6.99131
6.05577
5.16412
4.29846
3.45078
2.62173
1.81365
1.02819
0.263464
-0.485585
-1.2272
-1.96853
-2.71026
-3.44888
-4.17681
-4.88367
-5.5554
-6.17735
-6.73756
-7.23557
-7.6826
-8.0957
-8.495
-8.90344
-9.34754
-9.85448
-10.44
-11.0889
-11.773
-12.4603
-13.1195
-13.7185
-14.2289
-14.6314
-14.9298
-15.1508
-15.3289
-15.5011
-15.7056
-15.984
-16.377
-16.9068
-17.5468
-18.2508
-18.9688
-19.6536
-20.2588
-20.7435
-21.0809
-21.2768
-21.369
-21.406
-21.4398
-21.5231
-21.7138
-22.0686
-22.6185
-23.3275
-24.1322
-24.9624
-25.7484
-26.4169
-26.897
-27.1308
-27.1041
-26.8454
-26.3974
-25.8052
-25.1129
-24.3679
-23.6141
-22.857
-22.0083
-20.9632
-19.6167
-17.8583
-15.766
-13.62
40.1894
38.3251
33.6052
28.3447
23.5726
19.5706
16.3367
13.7826
11.8153
10.2688
9.00033
7.91216
6.93673
6.02793
5.14993
4.2796
3.4103
2.55638
1.72694
0.930089
0.163287
-0.58063
-1.3206
-2.07586
-2.84444
-3.62172
-4.39583
-5.15411
-5.87214
-6.5237
-7.07701
-7.53035
-7.90796
-8.23689
-8.54404
-8.85872
-9.22235
-9.69346
-10.3259
-11.0706
-11.873
-12.6826
-13.4594
-14.1535
-14.7158
-15.0961
-15.3006
-15.3886
-15.4161
-15.434
-15.4895
-15.6464
-15.9918
-16.6058
-17.4051
-18.2996
-19.211
-20.0795
-20.8342
-21.4066
-21.7275
-21.8065
-21.7293
-21.5746
-21.4141
-21.3132
-21.3608
-21.6779
-22.3768
-23.3462
-24.4653
-25.6288
-26.7537
-27.7343
-28.4581
-28.7987
-28.7414
-28.3751
-27.7818
-27.0293
-26.1722
-25.2899
-24.5037
-23.9107
-23.261
-22.3702
-21.0795
-18.9073
-15.9318
-12.8942
60.4404
52.0002
41.0747
31.8606
24.9113
19.7426
15.9054
13.0637
11.1485
9.75166
8.62771
7.66363
6.786
5.95556
5.12451
4.25912
3.34753
2.45566
1.59322
0.788626
0.0300797
-0.68142
-1.39205
-2.16404
-2.96612
-3.79917
-4.63769
-5.48251
-6.28463
-7.01152
-7.56041
-7.93417
-8.20337
-8.40944
-8.58218
-8.74345
-8.94236
-9.30001
-10.0502
-10.9692
-11.9625
-12.9517
-13.9186
-14.7779
-15.4645
-15.814
-15.8389
-15.7136
-15.5169
-15.3128
-15.1272
-15.0371
-15.2199
-16.0377
-17.126
-18.3239
-19.5147
-20.669
-21.6722
-22.4317
-22.7222
-22.5611
-22.2009
-21.7513
-21.3027
-20.8891
-20.6193
-20.7373
-21.7455
-23.1492
-24.734
-26.3505
-27.9667
-29.4212
-30.5708
-31.0395
-30.8235
-30.2315
-29.3951
-28.4041
-27.2674
-26.0732
-25.1149
-25.046
-24.8608
-24.3528
-23.8117
-21.1128
-16.1869
-11.436
100.788
69.2533
46.0786
32.1147
23.6856
17.9969
14.04
11.0102
9.73485
8.84143
8.02466
7.29041
6.5671
5.88386
5.14833
4.30499
3.25615
2.31239
1.37605
0.580714
-0.170993
-0.783558
-1.37524
-2.20897
-3.04329
-3.96877
-4.87052
-5.87241
-6.80546
-7.75568
-8.29599
-8.48853
-8.58967
-8.62994
-8.63679
-8.57395
-8.4337
-8.34126
-9.53126
-10.7607
-12.0579
-13.2529
-14.5324
-15.6511
-16.6983
-16.9993
-16.5933
-16.1413
-15.6281
-15.1646
-14.6273
-14.0348
-13.5334
-15.08
-16.689
-18.3584
-19.8705
-21.476
-22.8607
-24.1319
-24.3668
-23.602
-22.8012
-21.9264
-21.1406
-20.2578
-19.3192
-18.5146
-20.5443
-22.6911
-24.9568
-27.0726
-29.4121
-31.5469
-33.6635
-34.2658
-33.4466
-32.4396
-31.2305
-29.9885
-28.445
-26.5168
-24.4449
-26.3484
-26.9249
-26.3829
-29.6506
-26.525
-16.19
-8.06312
194.605
74.4675
37.8182
24.3982
18.5133
13.7571
10.8395
6.43021
7.77106
7.82062
7.3026
6.90124
6.29028
5.88729
5.32719
4.6466
3.0133
2.1583
0.955733
0.309868
-0.572518
-0.915838
-1.00994
-2.25308
-2.98922
-4.17259
-4.95917
-6.36146
-7.30157
-9.09011
-9.53236
-9.17447
-9.0636
-8.89853
-8.79171
-8.51584
-7.85616
-5.53574
-8.95553
-10.4543
-12.3006
-13.4323
-15.3776
-16.627
-19.0066
-19.2025
-17.4138
-16.6567
-15.6679
-15.1226
-14.2066
-12.9011
-8.89756
-14.0324
-16.1646
-18.6192
-20.0918
-22.6006
-24.2125
-27.324
-27.4509
-24.6947
-23.5077
-21.973
-21.1179
-19.7067
-17.8261
-12.2101
-19.1744
-22.0615
-25.3951
-27.4724
-31.1518
-33.6987
-38.9366
-39.5385
-36.3401
-34.9385
-33.1131
-32.0066
-30.1761
-27.1672
-18.0501
-29.5615
-30.5996
-22.9266
-44.6957
-42.3186
-13.0132
0.424408
-14.1348
-13.3623
-12.6232
-11.9278
-11.2838
-10.6967
-10.1698
-9.7048
-9.30183
-8.96026
-8.67881
-8.45603
-8.29045
-8.18082
-8.12624
-14.1133
-13.3286
-12.5795
-11.8763
-11.2268
-10.6363
-10.1079
-9.64262
-9.24036
-8.90003
-8.62007
-8.39875
-8.23441
-8.12568
-8.07158
-14.0689
-13.2593
-12.4896
-11.7708
-11.1107
-10.5139
-9.98267
-9.51734
-9.11685
-8.77934
-8.5026
-8.28439
-8.12269
-8.01585
-7.96272
-13.9982
-13.1499
-12.3488
-11.6067
-10.9311
-10.3257
-9.79146
-9.32714
-8.93027
-8.59779
-8.32651
-8.11345
-7.95602
-7.85222
-7.80067
-13.8959
-12.9931
-12.1488
-11.3759
-10.6811
-10.0663
-9.53024
-9.06938
-8.6792
-8.35495
-8.09213
-7.88678
-7.73564
-7.63626
-7.58698
-13.7535
-12.7775
-11.8775
-11.0669
-10.3508
-9.7281
-9.19372
-8.74083
-8.36211
-8.05061
-7.8002
-7.60581
-7.46344
-7.37012
-7.32394
-13.5578
-12.4859
-11.5166
-10.6633
-9.92716
-9.30145
-8.77561
-8.33804
-7.97772
-7.68507
-7.45218
-7.27276
-7.14209
-7.05678
-7.01465
-13.2882
-12.0916
-11.0396
-10.1424
-9.39294
-8.77484
-8.26915
-7.85789
-7.52557
-7.25971
-7.05059
-6.8909
-6.77532
-6.70017
-6.66315
-12.9101
-11.5528
-10.4075
-9.4738
-8.72726
-8.13571
-7.66819
-7.2987
-7.0069
-6.77754
-6.59951
-6.46485
-6.36804
-6.30537
-6.27457
-12.3629
-10.8016
-9.5638
-8.61792
-7.90651
-7.37247
-6.96913
-6.66175
-6.42571
-6.24398
-6.10497
-6.00089
-5.92656
-5.87863
-5.85513
-11.5325
-9.72696
-8.42803
-7.52749
-6.90833
-6.47845
-6.17403
-5.95341
-5.79014
-5.66762
-5.57545
-5.50713
-5.45861
-5.42741
-5.41214
-10.1912
-8.14549
-6.89374
-6.15559
-5.7208
-5.45891
-5.29507
-5.18765
-5.11376
-5.06085
-5.02203
-4.99352
-4.97327
-4.96022
-4.9538
-7.86084
-5.77
-4.8458
-4.48029
-4.36029
-4.34128
-4.35964
-4.3883
-4.41636
-4.43995
-4.45824
-4.47158
-4.4807
-4.48633
-4.48901
-3.51533
-2.2278
-2.23912
-2.55943
-2.89877
-3.18622
-3.41385
-3.58952
-3.72337
-3.8243
-3.89934
-3.95381
-3.99158
-4.01536
-4.02683
5.03274
2.61328
0.676589
-0.619522
-1.4891
-2.09096
-2.51999
-2.83253
-3.06328
-3.23451
-3.36099
-3.4527
-3.51642
-3.55664
-3.5761
-40.3442
-40.4022
-40.5229
-40.7164
-41
-41.4015
-41.9648
-42.763
-43.9242
-45.6981
-48.6464
-54.3105
-67.9981
-112.202
-298.105
-42.8214
-42.9303
-43.157
-43.5207
-44.0546
-44.8123
-45.8811
-47.4065
-49.6446
-53.0769
-58.6849
-68.6363
-87.96
-127.614
-199.8
-45.223
-45.3767
-45.6961
-46.207
-46.9537
-48.0072
-49.4802
-51.5552
-54.5358
-58.9449
-65.7073
-76.4536
-93.804
-120.432
-151.623
-47.5179
-47.7081
-48.1022
-48.7296
-49.6399
-50.9108
-52.6614
-55.0751
-58.435
-63.1785
-69.9631
-79.6845
-93.2052
-110.081
-125.107
-49.6808
-49.898
-50.3464
-51.0559
-52.0758
-53.4812
-55.3821
-57.9379
-61.3735
-65.995
-72.1793
-80.2766
-90.2763
-101.016
-109.025
-51.693
-51.9274
-52.4093
-53.1667
-54.2441
-55.7074
-57.6482
-60.1896
-63.4885
-67.7261
-73.0673
-79.5476
-86.8336
-93.8456
-98.5054
-53.5426
-53.7849
-54.2811
-55.0552
-56.1446
-57.6021
-59.4973
-61.9154
-64.9515
-68.691
-73.1642
-78.259
-83.581
-88.3088
-91.2215
-55.2239
-55.4661
-55.96
-56.7247
-57.7894
-59.193
-60.9831
-63.212
-65.9261
-69.1462
-72.8295
-76.8125
-80.7411
-84.0323
-85.9601
-56.737
-56.9726
-57.4509
-58.1861
-59.1989
-60.5154
-62.1644
-64.1715
-66.5494
-69.2797
-72.2867
-75.4037
-78.3437
-80.7026
-82.0375
-58.0866
-58.3105
-58.7634
-59.4546
-60.3975
-61.607
-63.0968
-64.8737
-66.928
-69.221
-71.6675
-74.1179
-76.3497
-78.0839
-79.0419
-59.2807
-59.4896
-59.9104
-60.5485
-61.4109
-62.5039
-63.8301
-65.3831
-67.1408
-69.0558
-71.0455
-72.9837
-74.7014
-76.0042
-76.7114
-60.3298
-60.5215
-60.9064
-61.4867
-62.2643
-63.239
-64.4058
-65.7503
-67.2443
-68.8388
-70.4593
-72.0027
-73.3413
-74.3379
-74.8721
-61.2457
-61.4194
-61.7668
-62.2878
-62.9807
-63.8408
-64.858
-66.0139
-67.2779
-68.6037
-69.9267
-71.1638
-72.2185
-72.9927
-73.4037
-62.041
-62.1966
-62.5068
-62.9696
-63.581
-64.3334
-65.2139
-66.2023
-67.2685
-68.3706
-69.4537
-70.4514
-71.2906
-71.8998
-72.2207
-62.7284
-62.8663
-63.1407
-63.5483
-64.0835
-64.737
-65.4949
-66.3367
-67.2343
-68.1507
-69.0399
-69.8492
-70.5225
-71.0069
-71.2607
-63.3201
-63.4413
-63.6821
-64.0384
-64.5037
-65.0682
-65.7176
-66.4324
-67.1871
-67.9495
-68.6817
-69.3414
-69.8854
-70.2741
-70.4768
-63.8275
-63.9334
-64.1433
-64.4528
-64.8552
-65.3404
-65.8949
-66.5005
-67.1345
-67.7694
-68.3739
-68.914
-69.3562
-69.6704
-69.8337
-64.2614
-64.3533
-64.5352
-64.8027
-65.149
-65.5646
-66.0366
-66.5488
-67.0812
-67.6104
-68.1106
-68.5546
-68.916
-69.1715
-69.3039
-64.6314
-64.7108
-64.8677
-65.0979
-65.3948
-65.7496
-66.1505
-66.5831
-67.03
-67.4716
-67.8864
-68.2526
-68.5492
-68.7581
-68.8661
-64.9462
-65.0146
-65.1494
-65.3467
-65.6005
-65.9026
-66.2425
-66.6074
-66.9826
-67.3514
-67.6961
-67.9989
-68.2432
-68.4148
-68.5033
-65.2136
-65.2722
-65.3876
-65.5562
-65.7725
-66.0292
-66.317
-66.6247
-66.9396
-67.2479
-67.5347
-67.7858
-67.9877
-68.1292
-68.202
-65.4403
-65.4904
-65.5889
-65.7326
-65.9166
-66.1343
-66.3776
-66.6369
-66.9013
-67.1591
-67.3983
-67.6069
-67.7742
-67.8911
-67.9513
-65.6322
-65.6749
-65.7588
-65.8811
-66.0373
-66.2217
-66.4272
-66.6456
-66.8676
-67.0834
-67.283
-67.4566
-67.5956
-67.6926
-67.7424
-65.7945
-65.8308
-65.9022
-66.006
-66.1384
-66.2944
-66.4679
-66.6517
-66.8382
-67.019
-67.1857
-67.3305
-67.4461
-67.5267
-67.5681
-65.9315
-65.9624
-66.0229
-66.1109
-66.2231
-66.3549
-66.5013
-66.6561
-66.8127
-66.9642
-67.1037
-67.2246
-67.321
-67.3881
-67.4225
-66.0472
-66.0733
-66.1247
-66.1992
-66.294
-66.4054
-66.5289
-66.6592
-66.7908
-66.9179
-67.0347
-67.1357
-67.2162
-67.2721
-67.3008
-66.1447
-66.1668
-66.2103
-66.2734
-66.3535
-66.4476
-66.5517
-66.6614
-66.772
-66.8786
-66.9765
-67.0611
-67.1284
-67.1751
-67.1991
-66.2267
-66.2455
-66.2823
-66.3356
-66.4034
-66.4828
-66.5705
-66.6629
-66.7559
-66.8455
-66.9276
-66.9985
-67.0548
-67.0939
-67.114
-66.2958
-66.3117
-66.3428
-66.3879
-66.4451
-66.5122
-66.5862
-66.664
-66.7423
-66.8176
-66.8865
-66.946
-66.9932
-67.026
-67.0428
-66.3538
-66.3673
-66.3936
-66.4317
-66.4801
-66.5367
-66.5992
-66.6648
-66.7307
-66.7941
-66.8521
-66.902
-66.9416
-66.9691
-66.9832
-66.4025
-66.4139
-66.4362
-66.4685
-66.5094
-66.5572
-66.61
-66.6653
-66.7209
-66.7743
-66.8231
-66.8652
-66.8985
-66.9216
-66.9334
-66.4433
-66.453
-66.4718
-66.4992
-66.5338
-66.5743
-66.6189
-66.6657
-66.7127
-66.7577
-66.7989
-66.8343
-66.8624
-66.8819
-66.8919
-66.4774
-66.4856
-66.5016
-66.5248
-66.5542
-66.5886
-66.6264
-66.666
-66.7058
-66.7439
-66.7787
-66.8086
-66.8324
-66.8488
-66.8572
-66.5058
-66.5128
-66.5265
-66.5462
-66.5712
-66.6004
-66.6325
-66.6662
-66.6999
-66.7323
-66.7618
-66.7872
-66.8074
-66.8213
-66.8284
-66.5294
-66.5354
-66.547
-66.5639
-66.5853
-66.6102
-66.6376
-66.6663
-66.6951
-66.7227
-66.7479
-66.7695
-66.7866
-66.7985
-66.8046
-66.5489
-66.554
-66.564
-66.5785
-66.5968
-66.6182
-66.6418
-66.6664
-66.6911
-66.7148
-66.7364
-66.7549
-66.7696
-66.7797
-66.7849
-66.5648
-66.5692
-66.5779
-66.5904
-66.6063
-66.6248
-66.6452
-66.6665
-66.6879
-66.7083
-66.7269
-66.743
-66.7556
-66.7644
-66.7689
-66.5776
-66.5814
-66.589
-66.6
-66.6139
-66.6301
-66.6479
-66.6665
-66.6852
-66.7031
-66.7194
-66.7333
-66.7444
-66.7521
-66.756
-66.5877
-66.5911
-66.5979
-66.6076
-66.6199
-66.6343
-66.6501
-66.6666
-66.6831
-66.6989
-66.7134
-66.7258
-66.7356
-66.7423
-66.7458
-66.5954
-66.5985
-66.6046
-66.6134
-66.6245
-66.6375
-66.6517
-66.6666
-66.6815
-66.6958
-66.7088
-66.72
-66.7288
-66.7349
-66.738
-66.601
-66.6039
-66.6095
-66.6176
-66.6278
-66.6398
-66.6529
-66.6666
-66.6804
-66.6935
-66.7055
-66.7158
-66.7239
-66.7296
-66.7324
-66.6046
-66.6073
-66.6126
-66.6202
-66.6299
-66.6412
-66.6536
-66.6666
-66.6796
-66.692
-66.7034
-66.7131
-66.7208
-66.7261
-66.7288
-66.6063
-66.6089
-66.6141
-66.6215
-66.6309
-66.6419
-66.654
-66.6666
-66.6793
-66.6914
-66.7024
-66.7118
-66.7193
-66.7245
-66.7271
-66.6062
-66.6088
-66.614
-66.6214
-66.6309
-66.6419
-66.654
-66.6666
-66.6793
-66.6914
-66.7024
-66.7119
-66.7194
-66.7246
-66.7272
-66.6042
-66.6069
-66.6123
-66.62
-66.6297
-66.6411
-66.6536
-66.6666
-66.6797
-66.6922
-66.7036
-66.7134
-66.7211
-66.7265
-66.7292
-66.6003
-66.6032
-66.6089
-66.6171
-66.6274
-66.6395
-66.6528
-66.6666
-66.6805
-66.6938
-66.7059
-66.7163
-66.7245
-66.7302
-66.7331
-66.5945
-66.5976
-66.6038
-66.6127
-66.624
-66.6371
-66.6515
-66.6666
-66.6817
-66.6962
-66.7093
-66.7207
-66.7296
-66.7358
-66.739
-66.5864
-66.5899
-66.5968
-66.6067
-66.6192
-66.6338
-66.6498
-66.6666
-66.6834
-66.6995
-66.7141
-66.7267
-66.7366
-66.7435
-66.747
-66.576
-66.5799
-66.5876
-66.5988
-66.613
-66.6295
-66.6476
-66.6666
-66.6856
-66.7037
-66.7203
-66.7345
-66.7458
-66.7536
-66.7576
-66.5628
-66.5673
-66.5761
-66.5889
-66.6051
-66.624
-66.6448
-66.6665
-66.6883
-66.7091
-66.7281
-66.7444
-66.7574
-66.7663
-66.7709
-66.5464
-66.5516
-66.5619
-66.5767
-66.5954
-66.6173
-66.6413
-66.6665
-66.6917
-66.7158
-66.7378
-66.7567
-66.7717
-66.7821
-66.7874
-66.5264
-66.5325
-66.5444
-66.5617
-66.5835
-66.609
-66.637
-66.6664
-66.6958
-66.7239
-66.7496
-66.7717
-66.7892
-66.8013
-66.8075
-66.5022
-66.5093
-66.5233
-66.5435
-66.5691
-66.5989
-66.6318
-66.6662
-66.7007
-66.7338
-66.764
-66.7899
-66.8105
-66.8247
-66.832
-66.473
-66.4814
-66.4978
-66.5216
-66.5517
-66.5868
-66.6255
-66.6661
-66.7067
-66.7457
-66.7813
-66.8119
-66.8361
-66.8529
-66.8615
-66.438
-66.4479
-66.4673
-66.4953
-66.5308
-66.5723
-66.6179
-66.6658
-66.7139
-66.7599
-66.802
-66.8382
-66.8669
-66.8868
-66.897
-66.3962
-66.4078
-66.4307
-66.4638
-66.5057
-66.5548
-66.6088
-66.6655
-66.7224
-66.777
-66.8268
-66.8698
-66.9038
-66.9274
-66.9395
-66.3462
-66.36
-66.387
-66.4262
-66.4758
-66.5338
-66.5978
-66.665
-66.7325
-66.7973
-66.8565
-66.9075
-66.948
-66.9761
-66.9904
-66.2867
-66.303
-66.3349
-66.3812
-66.44
-66.5087
-66.5846
-66.6643
-66.7444
-66.8214
-66.8919
-66.9526
-67.0008
-67.0342
-67.0513
-66.2158
-66.2351
-66.2729
-66.3277
-66.3973
-66.4787
-66.5687
-66.6633
-66.7585
-66.8501
-66.934
-67.0063
-67.0638
-67.1037
-67.1241
-66.1315
-66.1543
-66.199
-66.2639
-66.3463
-66.4428
-66.5495
-66.6619
-66.7751
-66.8842
-66.9842
-67.0704
-67.139
-67.1867
-67.2111
-66.0314
-66.0584
-66.1112
-66.1879
-66.2854
-66.3998
-66.5264
-66.66
-66.7947
-66.9246
-67.0438
-67.1468
-67.2288
-67.2858
-67.315
-65.9126
-65.9444
-66.0068
-66.0975
-66.2128
-66.3484
-66.4986
-66.6572
-66.8175
-66.9723
-67.1147
-67.2378
-67.3359
-67.4042
-67.4392
-65.7717
-65.8092
-65.8828
-65.9899
-66.1262
-66.2867
-66.4648
-66.6533
-66.8441
-67.0288
-67.1988
-67.3462
-67.4638
-67.5457
-67.5877
-65.6048
-65.6489
-65.7357
-65.8619
-66.0229
-66.2128
-66.4239
-66.6478
-66.875
-67.0954
-67.2987
-67.4754
-67.6165
-67.7149
-67.7654
-65.4072
-65.4591
-65.5611
-65.7097
-65.8997
-66.124
-66.3742
-66.6401
-66.9106
-67.1738
-67.4172
-67.6292
-67.7988
-67.9172
-67.9781
-65.1736
-65.2345
-65.3542
-65.5288
-65.7525
-66.0173
-66.3134
-66.6292
-66.9514
-67.2658
-67.5576
-67.8123
-68.0167
-68.1596
-68.2332
-64.8978
-64.9689
-65.1091
-65.3139
-65.5768
-65.8889
-66.239
-66.6138
-66.9976
-67.3735
-67.7237
-68.0304
-68.2772
-68.4501
-68.5393
-64.5726
-64.6555
-64.8191
-65.0586
-65.3669
-65.7341
-66.1476
-66.592
-67.0493
-67.4992
-67.9201
-68.2901
-68.5889
-68.7989
-68.9073
-64.1898
-64.2861
-64.4763
-64.7555
-65.116
-65.5471
-66.0347
-66.5614
-67.1061
-67.6449
-68.1517
-68.5994
-68.9623
-69.2182
-69.3505
-63.7401
-63.8515
-64.0718
-64.3961
-64.8162
-65.3209
-65.8947
-66.5181
-67.167
-67.8129
-68.4242
-68.9675
-69.41
-69.7233
-69.8856
-63.2131
-63.3412
-63.5952
-63.97
-64.4577
-65.0466
-65.7203
-66.4572
-67.2299
-68.005
-68.7441
-69.4055
-69.9476
-70.3331
-70.5335
-62.5971
-62.7436
-63.0346
-63.4655
-64.029
-64.7134
-65.502
-66.3715
-67.2912
-68.2222
-69.1178
-69.9263
-70.5938
-71.0714
-71.3206
-61.8794
-62.0457
-62.3768
-62.8691
-63.5163
-64.3078
-65.2274
-66.251
-67.3447
-68.4638
-69.5522
-70.5448
-71.3721
-71.9682
-72.2807
-61.0462
-61.2334
-61.607
-62.1651
-62.9033
-63.8134
-64.8807
-66.0817
-67.3805
-68.7266
-70.0531
-71.2782
-72.3109
-73.0618
-73.4579
-60.0831
-60.2917
-60.7092
-61.3361
-62.1711
-63.2097
-64.4412
-65.8444
-67.3835
-69.0031
-70.6245
-72.1452
-73.4453
-74.4017
-74.9102
-58.9752
-59.2048
-59.6661
-60.3625
-61.2974
-62.4722
-63.8824
-65.5127
-67.3307
-69.2784
-71.2656
-73.1653
-74.8185
-76.0527
-76.7155
-57.7078
-57.9571
-58.4598
-59.2233
-60.2573
-61.5712
-63.1707
-65.0508
-67.1876
-69.5264
-71.9675
-74.3564
-76.4825
-78.1005
-78.9811
-56.2673
-56.5335
-57.0724
-57.8963
-59.0227
-60.4721
-62.2641
-64.4105
-66.9044
-69.7031
-72.7058
-75.7301
-78.4993
-80.6605
-81.858
-54.642
-54.9207
-55.487
-56.3592
-57.5638
-59.1351
-61.1113
-63.529
-66.4096
-69.7382
-73.4289
-77.281
-80.9382
-83.8895
-85.5665
-52.8233
-53.108
-53.6894
-54.5913
-55.8505
-57.5168
-59.6521
-62.3259
-65.6037
-69.5217
-74.0399
-78.9671
-83.8674
-88.0034
-90.4396
-50.8068
-51.0895
-51.6692
-52.5753
-53.8544
-55.5729
-57.8189
-60.7035
-64.3532
-68.8884
-74.3669
-80.6718
-87.3273
-93.2975
-97.0043
-48.5941
-48.8649
-49.4224
-50.3003
-51.5534
-53.2625
-55.5424
-58.5497
-62.4879
-67.6
-74.12
-82.133
-91.2629
-100.163
-106.143
-46.1934
-46.4411
-46.9532
-47.765
-48.9356
-50.5559
-52.7609
-55.7493
-59.8074
-65.3338
-72.8363
-82.8184
-95.3579
-109.057
-119.434
-43.6209
-43.8339
-44.2758
-44.9805
-46.0058
-47.4432
-49.4355
-52.2061
-56.1072
-61.6954
-69.8307
-81.7277
-98.6475
-120.258
-139.932
-40.9004
-41.0679
-41.4161
-41.9736
-42.7898
-43.9452
-45.5697
-47.8779
-51.2354
-56.2883
-64.2127
-77.149
-98.6796
-132.803
-174.091
-38.0638
-38.1766
-38.4111
-38.787
-39.3384
-40.1214
-41.2291
-42.8211
-45.1863
-48.8872
-55.1142
-66.602
-89.9665
-140.372
-236.923
-35.149
-35.2008
-35.3081
-35.4788
-35.7262
-36.0722
-36.5524
-37.2275
-38.2097
-39.7319
-42.3626
-47.8072
-62.4748
-115.896
-366.803
-32.1983
-32.1867
-32.1613
-32.1173
-32.0457
-31.93
-31.7404
-31.4207
-30.8583
-29.8069
-27.657
-22.6078
-8.07062
45.7226
297.47
-29.2558
-29.1822
-29.0275
-28.7752
-28.3959
-27.8391
-27.0189
-25.7827
-23.8466
-20.6452
-14.9651
-3.99745
19.0722
69.8729
168.178
-26.3647
-26.2342
-25.9616
-25.5216
-24.8694
-23.9314
-22.5864
-20.631
-17.7137
-13.205
-5.94532
6.20853
26.957
61.0334
107.156
16.1745
6.60839
2.76211
0.76774
-0.442285
-1.24539
-1.80738
-2.21355
-2.51271
-2.73486
-2.89933
-3.01897
-3.10237
-3.15515
-3.18073
10.2281
6.26814
3.37198
1.4842
0.226781
-0.644119
-1.26775
-1.72515
-2.06567
-2.32066
-2.51076
-2.64982
-2.74719
-2.80902
-2.83904
7.03156
5.18913
3.28156
1.76289
0.627432
-0.214558
-0.843547
-1.31792
-1.678
-1.95151
-2.15761
-2.30961
-2.41668
-2.48495
-2.51819
5.11445
4.1553
2.92106
1.77544
0.824283
0.0670872
-0.526714
-0.990036
-1.35043
-1.62915
-1.84202
-2.00058
-2.11309
-2.18519
-2.2204
3.86338
3.31249
2.49899
1.65293
0.886434
0.235263
-0.300488
-0.733623
-1.07958
-1.35252
-1.56412
-1.72352
-1.83756
-1.91104
-1.94704
2.99483
2.65204
2.09951
1.47516
0.868491
0.323283
-0.145522
-0.537743
-0.859435
-1.11846
-1.32246
-1.47796
-1.59017
-1.6629
-1.69866
2.36432
2.1372
1.7499
1.2851
0.807861
0.358244
-0.0437379
-0.390838
-0.682796
-0.922624
-1.11446
-1.26245
-1.37019
-1.44044
-1.4751
1.89152
1.73359
1.45409
1.10366
0.728043
0.360122
0.0199335
-0.282222
-0.542355
-0.760103
-0.936907
-1.07489
-1.17621
-1.24269
-1.27559
1.52838
1.4144
1.20753
0.939713
0.642874
0.342738
0.0571929
-0.202786
-0.431345
-0.626008
-0.786301
-0.912788
-1.00644
-1.06823
-1.09892
1.24437
1.1597
1.00328
0.79591
0.55999
0.315219
0.0766975
-0.145167
-0.343871
-0.515777
-0.659166
-0.773479
-0.858777
-0.915367
-0.943567
1.01916
0.95481
0.834421
0.671925
0.483247
0.283358
0.0846343
-0.103632
-0.275003
-0.425346
-0.552217
-0.654315
-0.731046