/*--------------------------------*- C++ -*----------------------------------*\
| =========                 |                                                 |
| \\      /  F ield         | OpenFOAM: The Open Source CFD Toolbox           |
|  \\    /   O peration     | Version:  5.x                                   |
|   \\  /    A nd           | Web:      www.OpenFOAM.org                      |
|    \\/     M anipulation  |                                                 |
\*---------------------------------------------------------------------------*/
FoamFile
{
    version     2.0;
    format      ascii;
    class       volScalarField;
    location    "17.4";
    object      gradTy;
}
// * * * * * * * * * * * * * * * * * * * * * * * * * * * * * * * * * * * * * //

dimensions      [0 -1 0 1 0 0 0];

internalField   nonuniform List<scalar> 
6300
(
995.571
986.834
978.457
970.677
963.721
957.806
953.132
949.873
948.177
948.152
949.858
953.305
958.445
965.171
973.32
-0.180955
-0.540758
-0.894011
-1.23557
-1.55917
-1.85715
-2.12026
-2.33785
-2.49834
-2.5902
-2.60338
-2.53121
-2.37225
-2.13183
-1.82248
-0.303939
-0.908569
-1.50305
-2.07927
-2.62714
-3.13401
-3.58435
-3.95984
-4.24009
-4.40427
-4.43362
-4.31488
-4.04404
-3.62945
-3.09313
-0.430161
-1.28652
-2.13036
-2.95133
-3.7361
-4.46741
-5.12331
-5.67707
-6.09792
-6.35318
-6.41195
-6.25067
-5.85957
-5.24881
-4.45159
-0.56035
-1.67697
-2.78052
-3.85955
-4.89851
-5.87618
-6.76436
-7.52715
-8.12131
-8.49852
-8.61031
-8.41622
-7.8947
-7.05458
-5.94249
-0.694625
-2.08049
-3.4552
-4.80783
-6.12219
-7.37441
-8.5308
-9.54586
-10.3616
-10.9093
-11.1145
-10.9092
-10.2484
-9.13232
-7.62308
-0.832272
-2.49517
-4.15192
-5.79438
-7.40795
-8.96846
-10.4385
-11.7638
-12.8701
-13.6623
-14.0293
-13.8575
-13.0574
-11.6031
-9.57159
-0.971565
-2.91596
-4.86292
-6.80977
-8.74675
-10.6529
-12.4909
-14.2007
-15.6924
-16.8404
-17.4828
-17.4339
-16.5206
-14.651
-11.9041
-1.10959
-3.3342
-5.57399
-7.835
-10.1163
-12.4055
-14.6715
-16.8557
-18.8584
-20.5241
-21.6276
-21.8746
-20.9401
-18.5762
-14.8085
-1.24216
-3.73724
-6.2638
-8.83989
-11.4781
-14.181
-16.9338
-19.692
-22.3614
-24.7699
-26.6285
-27.4969
-26.7886
-23.9052
-18.6252
-1.36396
-4.10878
-6.90407
-9.78263
-12.775
-15.9066
-19.1908
-22.6168
-26.1254
-29.5653
-32.6195
-34.6958
-34.8122
-31.6307
-24.0666
-1.46887
-4.42982
-7.46103
-10.6115
-13.9328
-17.4794
-21.3058
-25.459
-29.9578
-34.7462
-39.5883
-43.8545
-46.1335
-43.7388
-32.9294
-1.55057
-4.68057
-7.89874
-11.2693
-14.8652
-18.7723
-23.0941
-27.9553
-33.5006
-39.873
-47.1327
-55.0003
-62.1283
-64.2614
-50.8179
-1.60341
-4.84313
-8.18398
-11.7018
-15.4864
-19.6505
-24.3426
-29.7674
-36.216
-44.1124
-54.0691
-66.8854
-83.1175
-100.361
-99.1244
-1.62332
-4.90452
-8.29223
-11.8674
-15.7279
-20.0004
-24.8585
-30.5555
-37.4833
-46.2913
-58.1454
-75.3543
-103.096
-154.938
-273.629
981.904
990.397
999.429
1008.85
1018.5
1028.25
1037.96
1047.51
1056.81
1065.75
1074.27
1082.3
1089.8
1096.72
1103.03
1108.71
1113.73
1118.09
1121.78
1124.78
1127.1
1128.73
1129.68
1129.95
1129.55
1128.49
1126.76
1124.38
1121.36
1117.71
1113.44
1108.55
1103.07
1096.99
1090.33
1083.1
1075.31
1066.96
1058.06
1048.63
1038.67
1028.19
1017.2
1005.72
993.75
981.304
968.392
955.024
941.21
926.959
912.278
897.175
881.659
865.737
849.416
832.706
815.617
798.159
780.345
762.187
743.701
724.901
705.804
686.425
666.783
646.894
626.778
606.456
585.95
565.287
544.496
523.61
502.667
481.707
460.776
439.924
419.202
398.663
378.364
358.359
338.703
319.448
300.645
282.339
264.574
247.384
230.8
214.844
199.531
184.869
-1.49292
-1.1728
-0.845529
-0.523522
-0.217224
0.0655265
0.319673
0.542754
0.734471
0.896148
1.03017
1.13952
1.22735
1.29674
1.35053
1.39119
1.42087
1.44133
1.45405
1.46024
1.46091
1.45687
1.44884
1.43741
1.42312
1.40645
1.38786
1.36782
1.34677
1.32514
1.30334
1.28169
1.26047
1.23983
1.21978
1.20023
1.18097
1.16172
1.14218
1.12209
1.10128
1.0797
1.05748
1.03488
1.01227
0.990087
0.968742
0.948542
0.929633
0.91195
0.895202
0.8789
0.862411
0.845038
0.82612
0.805121
0.781698
0.755734
0.72733
0.696752
0.664341
0.630404
0.595097
0.558331
0.519705
0.478489
0.433662
0.384005
0.32823
0.265138
0.193779
0.113589
0.0244827
-0.0731022
-0.178221
-0.289485
-0.405165
-0.523305
-0.641831
-0.75864
-0.87165
-0.978814
-1.07812
-1.16755
-1.24514
-1.30898
-1.35733
-1.38881
-1.40254
-1.39829
-2.52104
-1.96619
-1.40092
-0.847586
-0.32457
0.154774
0.582313
0.954622
1.27207
1.53774
1.7564
1.9336
2.07507
2.18621
2.27187
2.33624
2.38285
2.41459
2.43385
2.44257
2.44235
2.43451
2.42016
2.40025
2.37564
2.34711
2.31541
2.2813
2.24553
2.20885
2.17195
2.13547
2.09987
2.06541
2.03215
1.9999
1.96824
1.93664
1.9045
1.87129
1.83666
1.80052
1.76306
1.72479
1.68642
1.64881
1.61274
1.57884
1.54744
1.51843
1.49129
1.46513
1.43876
1.41085
1.38018
1.34573
1.30688
1.26345
1.21569
1.16419
1.10969
1.05288
0.994183
0.933551
0.870339
0.803271
0.730504
0.649792
0.55874
0.455098
0.337065
0.203547
0.0543385
-0.109809
-0.287219
-0.475418
-0.67134
-0.871548
-1.07245
-1.27046
-1.46208
-1.64392
-1.81262
-1.96484
-2.0972
-2.20634
-2.28914
-2.34301
-2.36624
-2.35833
-3.59931
-2.77467
-1.93924
-1.12811
-0.36916
0.318486
0.924337
1.44534
1.88407
2.24687
2.54213
2.77896
2.96627
3.11216
3.22367
3.30668
3.36603
3.40562
3.42862
3.43756
3.43455
3.4213
3.39926
3.36966
3.3336
3.29212
3.24623
3.19695
3.14539
3.09263
3.03977
2.98777
2.93738
2.88906
2.84288
2.7985
2.75524
2.71214
2.66815
2.62234
2.57403
2.52302
2.46961
2.41463
2.35931
2.3051
2.25342
2.20538
2.1616
2.12201
2.08581
2.0515
2.01713
1.98049
1.93951
1.89251
1.83849
1.77723
1.70929
1.63579
1.55821
1.47793
1.39592
1.31235
1.2264
1.13614
1.03867
0.930357
0.807272
0.665678
0.502549
0.316008
0.105619
-0.127503
-0.380758
-0.650304
-0.931409
-1.21885
-1.50729
-1.79154
-2.06666
-2.32797
-2.57089
-2.79077
-2.98272
-3.14166
-3.26265
-3.34135
-3.37478
-3.36194
-4.74922
-3.59858
-2.44244
-1.33336
-0.310913
0.60014
1.38871
2.05468
2.60557
3.05341
3.41215
3.6958
3.91728
4.0878
4.21666
4.31136
4.37783
4.42074
4.44379
4.44996
4.44168
4.42094
4.38943
4.34855
4.29957
4.24369
4.1821
4.11611
4.04715
3.97677
3.90655
3.83794
3.77213
3.70984
3.6512
3.59569
3.54219
3.4891
3.43464
3.37717
3.31549
3.24916
3.17861
3.10516
3.0308
2.95795
2.88902
2.82597
2.76992
2.72091
2.67775
2.63814
2.59893
2.55656
2.50767
2.44956
2.38068
2.30081
2.21102
2.11344
2.01075
1.90563
1.80004
1.69473
1.58878
1.47951
1.36256
1.23231
1.08257
0.907378
0.701854
0.462917
0.189736
-0.116104
-0.450741
-0.808451
-1.18226
-1.56463
-1.9481
-2.32567
-2.69103
-3.03841
-3.36228
-3.65684
-3.91568
-4.13159
-4.29697
-4.4048
-4.44991
-4.43025
-5.99393
-4.43041
-2.87784
-1.41386
-0.0922167
1.05822
2.0297
2.82981
3.47554
3.98833
4.39036
4.70223
4.94174
5.12348
5.2589
5.35675
5.42362
5.46452
5.48335
5.48326
5.46682
5.43619
5.39315
5.33919
5.27558
5.20355
5.1244
5.03963
4.95106
4.86079
4.77109
4.68418
4.60191
4.52546
4.45512
4.39011
4.32865
4.26814
4.20559
4.13815
4.06374
3.98148
3.89192
3.79708
3.70022
3.60527
3.51627
3.43657
3.36822
3.31148
3.2647
3.22431
3.18536
3.14214
3.08919
3.02222
2.93881
2.83877
2.72408
2.59852
2.4669
2.33407
2.20386
2.0781
1.95604
1.83404
1.70568
1.56242
1.39461
1.19283
0.949353
0.659218
0.320964
-0.0631576
-0.487422
-0.943338
-1.4207
-1.90876
-2.39731
-2.87733
-3.34123
-3.78266
-4.19578
-4.5743
-4.91041
-5.1942
-5.41412
-5.55853
-5.61824
-5.58915
-7.35731
-5.24635
-3.18554
-1.28924
0.373199
1.7742
2.91771
3.8275
4.53725
5.08306
5.49871
5.81316
6.04973
6.22619
6.35558
6.44708
6.50714
6.54042
6.55053
6.54045
6.51277
6.46969
6.413
6.3441
6.26412
6.17408
6.07518
5.96902
5.85781
5.74438
5.63202
5.52415
5.42371
5.33271
5.25176
5.17982
5.11414
5.05054
4.98397
4.90958
4.82372
4.7247
4.61321
4.49235
4.36726
4.24442
4.13051
4.03122
3.95015
3.88811
3.84278
3.8088
3.77829
3.74207
3.69125
3.61889
3.52123
3.39814
3.25311
3.09265
2.92511
2.75907
2.60155
2.45644
2.32352
2.19798
2.07052
1.92816
1.7558
1.53858
1.26428
0.925047
0.518469
0.0478189
-0.478304
-1.04714
-1.64351
-2.25199
-2.85862
-3.452
-4.02363
-4.5675
-5.07895
-5.55269
-5.98033
-6.34865
-6.63987
-6.83411
-6.91432
-6.8722
-8.86168
-5.98996
-3.25626
-0.827768
1.21518
2.86112
4.14245
5.1135
5.83529
6.3655
6.75307
7.03659
7.24458
7.39705
7.50714
7.58303
7.62958
7.65007
7.64713
7.62336
7.58128
7.52317
7.45082
7.36539
7.26755
7.15779
7.03683
6.90613
6.7682
6.62685
6.48695
6.35385
6.23237
6.12594
6.03587
5.96096
5.89711
5.83764
5.77406
5.69799
5.6031
5.48632
5.34845
5.19413
5.03152
4.87113
4.72414
4.60006
4.50512
4.4411
4.40496
4.38866
4.37986
4.36345
4.32469
4.25241
4.14064
3.98947
3.80473
3.59735
3.38151
3.17217
2.9817
2.81756
2.6807
2.56501
2.45714
2.3374
2.18189
1.96683
1.67298
1.28812
0.808503
0.238937
-0.407427
-1.11103
-1.84864
-2.59766
-3.33877
-4.05778
-4.74576
-5.39882
-6.01623
-6.59729
-7.13549
-7.61395
-8.0051
-8.27375
-8.38643
-8.32601
-10.5185
-6.53481
-2.88748
0.188824
2.62869
4.47291
5.81382
6.75834
7.40913
7.85328
8.15726
8.36874
8.51935
8.6289
8.70796
8.7612
8.78956
8.79342
8.77374
8.73265
8.67288
8.59716
8.50747
8.40456
8.28816
8.15763
8.01255
7.85368
7.68356
7.50728
7.33211
7.16686
7.01938
6.89564
6.79822
6.7262
6.67382
6.6307
6.5822
6.51353
6.41406
6.27837
6.10744
5.90789
5.69265
5.47861
5.28485
5.127
5.01563
4.954
4.93864
4.95782
4.99246
5.01706
5.00647
4.94284
4.81685
4.62922
4.38901
4.11431
3.8286
3.55817
3.32399
3.1395
3.00745
2.92087
2.86093
2.79821
2.69379
2.50859
2.2128
1.78771
1.22812
0.540708
-0.254056
-1.12586
-2.03726
-2.95464
-3.85062
-4.70815
-5.51808
-6.28135
-7.00576
-7.70345
-8.37658
-9.00485
-9.54661
-9.93785
-10.1077
-10.0199
-12.2959
-6.59543
-1.69659
2.12163
4.89949
6.80884
8.05526
8.82541
9.27982
9.54216
9.69394
9.78785
9.85255
9.90393
9.94525
9.97448
9.98407
9.96992
9.93041
9.86805
9.78664
9.69048
9.58237
9.46234
9.32833
9.17764
9.0073
8.81664
8.60696
8.38532
8.1622
7.9535
7.77142
7.62664
7.52322
7.46237
7.43642
7.43074
7.41863
7.37264
7.27642
7.12041
6.90689
6.64351
6.35134
6.05615
5.79314
5.5863
5.45384
5.39962
5.42191
5.50404
5.61888
5.72072
5.76401
5.72244
5.58122
5.34409
5.02237
4.64655
4.25311
3.89144
3.59423
3.3854
3.26824
3.23787
3.2683
3.3186
3.32159
3.20919
2.93839
2.4806
1.83142
0.996701
0.0099166
-1.084
-2.21757
-3.34266
-4.41809
-5.42723
-6.35776
-7.21994
-8.03388
-8.84506
-9.68231
-10.5203
-11.3049
-11.9207
-12.1999
-12.0649
-13.9967
-5.502
1.05
5.55235
8.42059
10.0989
10.9818
11.3463
11.4262
11.3893
11.313
11.248
11.204
11.1925
11.1989
11.215
11.2117
11.1819
11.1189
11.0298
10.9205
10.7999
10.6733
10.5391
10.3914
10.2248
10.0302
9.80584
9.54644
9.26438
8.97037
8.70066
8.46863
8.29694
8.18578
8.14716
8.16873
8.23892
8.30271
8.30298
8.2238
8.04415
7.77707
7.41951
7.01332
6.58631
6.2195
5.93748
5.77837
5.73407
5.81804
6.00221
6.26305
6.50775
6.64283
6.64462
6.4828
6.17991
5.73274
5.20334
4.63107
4.13107
3.7364
3.49855
3.4033
3.46662
3.64634
3.90644
4.11488
4.13726
3.93263
3.44848
2.70134
1.67112
0.427636
-0.985492
-2.41056
-3.80258
-5.08138
-6.25987
-7.29618
-8.22824
-9.06619
-9.94933
-10.987
-12.113
-13.3061
-14.3884
-14.8888
-14.6508
-14.7473
-1.61152
6.74755
11.3361
13.6556
14.5347
14.6554
14.2776
13.7413
13.294
12.9162
12.6789
12.5091
12.4559
12.4394
12.4842
12.4783
12.4424
12.3458
12.2214
12.0716
11.9188
11.776
11.6364
11.4825
11.3133
11.0968
10.8465
10.5195
10.1616
9.74449
9.39451
9.07993
8.88103
8.74487
8.74623
8.83199
9.05728
9.27923
9.34869
9.31681
9.09477
8.77852
8.26651
7.70626
7.03073
6.52474
6.11262
5.93853
5.8847
6.0708
6.39086
6.93133
7.45351
7.7144
7.80325
7.58836
7.22432
6.56236
5.82267
4.90575
4.21984
3.65351
3.40711
3.31074
3.52845
3.9093
4.56929
5.17675
5.39281
5.32996
4.79569
3.97949
2.65324
1.09023
-0.869209
-2.65056
-4.425
-5.88858
-7.29673
-8.38423
-9.37161
-10.033
-10.8306
-12.1643
-13.6087
-15.4663
-17.6937
-18.6405
-18.1212
-10.6115
9.15761
17.8744
20.3866
20.9641
20.0622
19.0466
17.4369
15.928
15.0982
14.317
14.0124
13.646
13.6663
13.5913
13.8264
13.7877
13.7904
13.6123
13.4495
13.227
13.0229
12.8741
12.7541
12.5953
12.4698
12.212
11.9973
11.5368
11.144
10.4218
10.0372
9.52452
9.37466
9.1058
9.22362
9.29421
9.88031
10.4752
10.5402
10.6836
10.2809
10.0617
9.18288
8.56511
7.23091
6.69473
5.9449
5.92545
5.68978
6.1306
6.46203
7.62589
8.77547
9.03363
9.39918
8.90861
8.69767
7.50385
6.69715
4.84773
4.13639
3.10991
3.09958
2.76591
3.35535
3.77026
5.30777
6.80221
7.04997
7.40609
6.54885
5.99207
3.97629
2.32369
-1.00935
-2.90049
-5.495
-6.7755
-8.79524
-9.61635
-10.9843
-10.8034
-10.9399
-13.1819
-14.509
-17.094
-22.8427
-24.5034
-23.1166
17.6906
35.8423
37.9362
32.2227
30.4025
25.7527
24.2928
20.4505
17.1362
16.8318
15.0308
15.4341
14.2257
15.0134
14.2959
15.5621
15.0371
15.3978
14.8563
14.7631
14.355
14.0466
13.9301
13.927
13.6595
13.8159
13.2644
13.5014
12.4561
12.6001
10.6122
10.8638
9.44592
10.039
8.90926
9.76836
9.01344
10.69
12.4337
11.6181
12.8359
11.2023
12.2942
9.72267
10.455
6.28135
7.1718
4.72486
6.22313
4.52017
6.34735
5.33393
8.34048
11.3805
10.1977
12.2274
9.82565
11.5859
7.88735
9.07266
3.1504
4.5063
1.10259
3.25724
0.891372
3.43318
2.01425
6.10789
10.2225
8.5507
11.2291
7.86895
10.1052
4.77603
5.97667
-3.22611
-2.13778
-8.45742
-6.59807
-12.0199
-10.0611
-14.8275
-11.1169
-8.01705
-15.5173
-13.5978
-14.166
-33.8784
-34.7546
-30.8262
172.775
85.6495
69.2398
38.4524
43.9152
26.8497
32.9695
22.7041
14.0102
20.7208
12.5704
19.177
11.9313
18.528
12.1443
19.8773
15.0113
18.3044
15.4549
16.5302
15.3396
14.7943
14.8233
15.4807
14.1135
16.1819
13.1817
16.8525
11.6628
17.1267
7.57778
14.0949
6.4719
13.1844
5.84918
12.6376
5.23172
11.4032
18.0781
9.7682
19.0946
8.19916
19.8025
5.50527
19.4097
-1.96008
12.4551
-2.17587
11.1309
-1.73246
10.6549
-1.58257
9.00717
20.0668
6.73586
21.4372
4.74978
22.3349
1.23844
21.6834
-9.02712
11.7304
-8.90842
9.92475
-8.04987
9.21475
-7.67956
6.87809
21.9753
3.78743
23.7476
1.13042
25.1129
-3.827
24.6108
-20.2618
9.29267
-23.1973
4.06461
-25.8725
-0.821193
-30.8771
-10.5509
10.1701
-31.4166
-9.10414
16.33
-72.0378
-51.9239
-43.7329
169.452
153.551
138.534
124.354
110.955
98.2722
86.2362
74.775
63.816
53.2872
43.1179
33.2392
23.5841
14.0875
4.68537
-1.3744
-1.32514
-1.25603
-1.17117
-1.07485
-0.971132
-0.863479
-0.754634
-0.646564
-0.540513
-0.437105
-0.336462
-0.238325
-0.142158
-0.0472432
-2.31637
-2.23057
-2.11086
-1.96467
-1.79966
-1.62293
-1.44047
-1.25688
-1.07537
-0.897927
-0.725441
-0.55799
-0.395022
-0.235542
-0.0782635
-3.29835
-3.16989
-2.99218
-2.77697
-2.53616
-2.28045
-2.01858
-1.75702
-1.50012
-1.25037
-1.00874
-0.77503
-0.548228
-0.326722
-0.108531
-4.33939
-4.15843
-3.91095
-3.61484
-3.28754
-2.94413
-2.59634
-2.25247
-1.91771
-1.59469
-1.28409
-0.985159
-0.69613
-0.414582
-0.137671
-5.46223
-5.21343
-4.87832
-4.48385
-4.055
-3.61214
-3.17016
-2.7388
-2.32354
-1.92657
-1.54777
-1.18537
-0.836545
-0.4978
-0.165239
-6.69533
-6.35466
-5.90501
-5.38718
-4.83642
-4.27924
-3.73333
-3.20901
-2.71103
-2.24027
-1.79503
-1.37199
-0.966872
-0.574827
-0.190722
-8.07603
-7.60476
-6.99977
-6.32338
-5.62421
-4.93501
-4.27486
-3.65283
-3.07129
-2.52844
-2.02007
-1.54069
-1.08411
-0.643909
-0.213543
-9.65517
-8.98847
-8.16585
-7.28225
-6.40197
-5.56167
-4.77823
-4.05613
-3.39281
-2.78208
-2.21612
-1.68655
-1.18497
-0.703148
-0.233083
-11.503
-10.528
-9.3928
-8.23772
-7.13967
-6.1314
-5.2202
-4.40061
-3.66171
-2.99093
-2.37575
-1.8044
-1.26604
-0.750627
-0.248722
-13.713
-12.2277
-10.6396
-9.13607
-7.78751
-6.60399
-5.5705
-4.66434
-3.86246
-3.14415
-2.49151
-1.88926
-1.32417
-0.784584
-0.259895
-16.385
-14.0302
-11.8015
-9.87941
-8.27025
-6.92647
-5.79342
-4.82373
-3.97961
-3.23165
-2.55687
-1.93692
-1.35677
-0.803637
-0.266167
-19.5175
-15.7063
-12.6568
-10.3097
-8.4875
-7.03812
-5.85294
-4.85749
-4.00054
-3.24595
-2.56735
-1.94476
-1.36236
-0.807015
-0.267301
-22.5347
-16.6206
-12.8094
-10.215
-8.33183
-6.88552
-5.72264
-4.7527
-3.91908
-3.18422
-2.5218
-1.9124
-1.34086
-0.794757
-0.263321
-22.4206
-15.4317
-11.7452
-9.40894
-7.73922
-6.44941
-5.39935
-4.51155
-3.7388
-3.04999
-2.42322
-1.84215
-1.29391
-0.767823
-0.254543
-1.61254
-4.87133
-8.234
-11.7795
-15.6036
-19.8297
-24.6282
-30.2474
-37.0742
-45.7549
-57.4655
-74.5777
-102.491
-155.194
-273.357
-1.57691
-4.76155
-8.04093
-11.4862
-15.1822
-19.2357
-23.7888
-29.0396
-35.2755
-42.9278
-52.6486
-65.3566
-81.8397
-99.508
-93.0582
-1.51988
-4.58597
-7.73259
-11.0188
-14.5125
-18.2946
-22.4649
-27.1475
-32.4931
-38.6641
-45.7568
-53.5134
-60.3644
-60.5707
-37.5274
-1.44457
-4.35444
-7.32726
-10.4074
-13.6424
-17.0838
-20.7851
-24.7949
-29.1374
-33.7601
-38.4041
-42.299
-43.5028
-37.7785
-18.1158
-1.35484
-4.07918
-6.84738
-9.68825
-12.629
-15.6926
-18.8909
-22.2111
-25.5871
-28.8411
-31.5715
-32.9534
-31.4525
-24.6653
-10.2104
-1.25494
-3.77343
-6.31701
-8.8997
-11.5303
-14.2077
-16.9119
-19.5885
-22.1213
-24.2855
-25.6752
-25.6096
-23.0732
-16.8767
-6.44786
-1.14906
-3.45024
-5.75944
-8.07782
-10.3991
-12.7042
-14.952
-17.0657
-18.9114
-20.2677
-20.7892
-19.9814
-17.2355
-12.0273
-4.39841
-1.04105
-3.12147
-5.19546
-7.25385
-9.2792
-11.2404
-13.0851
-14.729
-16.0414
-16.8295
-16.8264
-15.699
-13.1076
-8.85873
-3.16003
-0.934207
-2.79716
-4.64229
-6.45279
-8.20373
-9.85748
-11.3578
-12.6224
-13.5354
-13.9407
-13.6442
-12.4331
-10.1309
-6.69696
-2.35314
-0.831151
-2.4852
-4.11315
-5.69306
-7.19572
-8.58106
-9.79396
-10.76
-11.3818
-11.5394
-11.097
-9.92484
-7.93997
-5.16704
-1.79796
-0.733823
-2.19135
-3.61736
-4.98694
-6.26915
-7.42434
-8.40157
-9.13646
-9.55063
-9.55458
-9.05663
-7.98096
-6.29631
-4.05108
-1.40029
-0.643519
-1.91937
-3.16074
-4.34148
-5.43075
-6.39117
-7.17744
-7.73563
-8.00428
-7.9183
-7.4174
-6.45994
-5.04192
-3.21675
-1.10662
-0.560978
-1.67134
-2.74621
-3.75952
-4.68179
-5.47892
-6.11166
-6.53584
-6.70415
-6.57013
-6.09519
-5.25873
-4.07025
-2.5803
-0.884563
-0.486484
-1.44795
-2.3744
-3.24078
-4.0197
-4.68079
-5.19068
-5.51371
-5.61393
-5.45867
-5.02402
-4.30195
-3.30791
-2.08673
-0.713467
-0.419974
-1.24887
-2.04428
-2.78277
-3.43942
-3.98765
-4.39943
-4.64628
-4.7011
-4.54121
-4.15243
-3.53401
-2.70329
-1.69878
-0.579634
-0.361135
-1.07305
-1.75369
-2.38157
-2.93442
-3.38924
-3.7227
-3.91217
-3.93735
-3.78267
-3.4403
-2.91347
-2.21934
-1.39043
-0.473662
-0.309486
-0.918935
-1.49972
-2.03246
-2.49749
-2.87508
-3.14594
-3.29213
-3.29849
-3.15445
-2.85625
-2.40911
-1.82897
-1.14308
-0.388905
-0.264447
-0.784721
-1.27912
-1.73036
-2.12127
-2.43503
-2.65574
-2.76919
-2.76406
-2.63328
-2.37562
-1.9971
-1.51204
-0.943157
-0.320557
-0.225394
-0.668475
-1.08847
-1.47016
-1.79862
-2.0596
-2.24
-2.32858
-2.31687
-2.20021
-1.97889
-1.65907
-1.25331
-0.780529
-0.265064
-0.191692
-0.568255
-0.924433
-1.2469
-1.52281
-1.74011
-1.88803
-1.95762
-1.94254
-1.83981
-1.65057
-1.3807
-1.04112
-0.64754
-0.219754
-0.162724
-0.482189
-0.783798
-1.05598
-1.2877
-1.46881
-1.59043
-1.64544
-1.62908
-1.53948
-1.37822
-1.15074
-0.866409
-0.538305
-0.182583
-0.137912
-0.408522
-0.663597
-0.893139
-1.08773
-1.23881
-1.33907
-1.38283
-1.36647
-1.28889
-1.15187
-0.960263
-0.722094
-0.448248
-0.151968
-0.116718
-0.34564
-0.561123
-0.754572
-0.917959
-1.0441
-1.12695
-1.16195
-1.14637
-1.07959
-0.9634
-0.802118
-0.602549
-0.373769
-0.126671
-0.0986602
-0.29209
-0.47395
-0.636878
-0.774054
-0.879442
-0.948051
-0.976205
-0.96181
-0.904588
-0.806247
-0.670556
-0.503288
-0.312009
-0.105707
-0.0833037
-0.246572
-0.39992
-0.537065
-0.652222
-0.740324
-0.797241
-0.819999
-0.80699
-0.758139
-0.675028
-0.56092
-0.4207
-0.260678
-0.0882941
-0.0702657
-0.207942
-0.337142
-0.452518
-0.549174
-0.622858
-0.670149
-0.688629
-0.677056
-0.63548
-0.56533
-0.469416
-0.35186
-0.217933
-0.0737999
-0.05921
-0.175196
-0.283963
-0.380968
-0.462076
-0.52372
-0.56306
-0.578127
-0.567953
-0.532661
-0.47352
-0.392938
-0.294388
-0.182273
-0.0617132
-0.0498442
-0.147464
-0.238951
-0.320456
-0.388492
-0.440068
-0.472824
-0.485151
-0.47629
-0.446402
-0.396599
-0.328935
-0.246335
-0.152476
-0.0516171
-0.0419145
-0.12399
-0.200869
-0.269297
-0.326337
-0.369482
-0.396772
-0.406887
-0.399228
-0.373969
-0.33208
-0.275303
-0.206099
-0.12754
-0.0431703
-0.0352024
-0.104124
-0.168654
-0.226046
-0.27383
-0.309906
-0.332646
-0.340964
-0.334385
-0.313085
-0.277897
-0.2303
-0.172358
-0.106639
-0.0360918
-0.0295197
-0.0873087
-0.141394
-0.189467
-0.22945
-0.259591
-0.278533
-0.285383
-0.279765
-0.261842
-0.232331
-0.19248
-0.144018
-0.0890896
-0.0301497
-0.0247053
-0.0730644
-0.11831
-0.158503
-0.191905
-0.217051
-0.232815
-0.238461
-0.233687
-0.218646
-0.193946
-0.160637
-0.120168
-0.0743257
-0.0251515
-0.020621
-0.0609818
-0.0987342
-0.132255
-0.160093
-0.181026
-0.194122
-0.198774
-0.19474
-0.182156
-0.161538
-0.133766
-0.10005
-0.061875
-0.0209369
-0.0171485
-0.0507104
-0.0820962
-0.109954
-0.133074
-0.150444
-0.161291
-0.165118
-0.161729
-0.151243
-0.134097
-0.111023
-0.0830277
-0.0513426
-0.0173722
-0.0141866
-0.0419498
-0.0679082
-0.0909408
-0.110047
-0.124391
-0.133335
-0.136472
-0.133644
-0.124957
-0.110771
-0.0916976
-0.0685672
-0.0423971
-0.0143448
-0.0116481
-0.0344424
-0.0557517
-0.0746541
-0.0903281
-0.102087
-0.109411
-0.111967
-0.109629
-0.102487
-0.0908394
-0.0751888
-0.0562173
-0.0347585
-0.0117599
-0.00945818
-0.0279662
-0.0452662
-0.060609
-0.073327
-0.0828635
-0.0887968
-0.0908592
-0.0889509
-0.0831451
-0.0736873
-0.0609858
-0.0455944
-0.0281889
-0.00953695
-0.00755175
-0.0223287
-0.0361399
-0.0483863
-0.0585349
-0.0661417
-0.0708705
-0.0725089
-0.0709785
-0.0663391
-0.0587876
-0.0486504
-0.0363699
-0.0224849
-0.00760697
-0.00587202
-0.0173619
-0.0280999
-0.0376201
-0.0455079
-0.0514181
-0.0550899
-0.0563589
-0.0551648
-0.051555
-0.0456831
-0.0378033
-0.0282595
-0.0174702
-0.00591033
-0.00436878
-0.0129171
-0.0209056
-0.0279873
-0.0338539
-0.0382486
-0.0409777
-0.0419191
-0.0410285
-0.0383415
-0.0339728
-0.0281117
-0.0210138
-0.0129906
-0.00439478
-0.00299696
-0.00886098
-0.0143408
-0.0191983
-0.023222
-0.0262357
-0.0281067
-0.0287514
-0.0281396
-0.0262958
-0.0232989
-0.0192787
-0.0144108
-0.00890848
-0.00301376
-0.00171533
-0.00507165
-0.00820807
-0.0109883
-0.0132913
-0.0150163
-0.0160871
-0.0164562
-0.016106
-0.0150507
-0.0133354
-0.0110344
-0.00824818
-0.00509888
-0.00172496
-0.000485333
-0.00143502
-0.00232264
-0.00310973
-0.00376201
-0.00425095
-0.00455493
-0.0046603
-0.004562
-0.00426386
-0.00377854
-0.00312701
-0.00233769
-0.00144523
-0.000488945
0.0007301
0.00215852
0.00349296
0.00467527
0.00565386
0.00638593
0.00683935
0.00699412
0.00684321
0.00639297
0.00566287
0.0046847
0.00350117
0.00216409
0.000732072
0.0019676
0.00581731
0.00941418
0.0126017
0.0152409
0.0172162
0.018441
0.0188608
0.0184562
0.0172441
0.0152765
0.012639
0.00944663
0.00583933
0.00197539
0.00326446
0.00965163
0.0156196
0.0209089
0.0252888
0.0285677
0.0306015
0.0312997
0.03063
0.0286197
0.0253553
0.0209784
0.0156802
0.00969275
0.003279
0.00465972
0.013777
0.0222963
0.0298474
0.0361011
0.0407838
0.0436894
0.0446884
0.0437344
0.0408661
0.0362065
0.0299576
0.0223923
0.0138421
0.00468277
0.00619536
0.0183175
0.0296454
0.0396867
0.0480042
0.0542337
0.0581009
0.0594332
0.058168
0.0543563
0.0481611
0.0398508
0.0297883
0.0184145
0.00622967
0.00791747
0.0234096
0.0378876
0.050723
0.0613569
0.0693239
0.0742725
0.0759815
0.0743698
0.0695015
0.0615842
0.0509607
0.0380946
0.0235501
0.00796717
0.00987762
0.0292057
0.0472703
0.0632879
0.0765614
0.0865097
0.0926936
0.0948354
0.0928326
0.0867636
0.0768863
0.0636277
0.0475662
0.0294066
0.00994867
0.0121344
0.0358792
0.0580742
0.0777581
0.0940745
0.106309
0.113921
0.116567
0.114119
0.10667
0.0945362
0.0782408
0.0584946
0.0361645
0.0122353
0.0147548
0.0436287
0.0706217
0.0945663
0.114422
0.129319
0.138597
0.141836
0.138876
0.129829
0.115075
0.0952499
0.071217
0.0440328
0.0148977
0.0178167
0.0526843
0.0852858
0.114214
0.138212
0.156229
0.167465
0.171408
0.16786
0.156951
0.139136
0.11518
0.0861275
0.0532556
0.0180188
0.0214103
0.0633132
0.1025
0.137284
0.166155
0.187848
0.201397
0.206182
0.201956
0.188868
0.167461
0.138649
0.10369
0.0641203
0.0216958
0.0256409
0.0758277
0.122773
0.164459
0.199081
0.225121
0.241416
0.247211
0.242204
0.226562
0.200925
0.166388
0.124452
0.0769676
0.0260441
0.0306319
0.090593
0.146697
0.19654
0.237967
0.269161
0.288723
0.295742
0.289837
0.271195
0.240571
0.199263
0.149068
0.0922025
0.0312012
0.0365274
0.108037
0.174967
0.234463
0.283957
0.321276
0.344741
0.353244
0.346313
0.324149
0.287633
0.238308
0.178315
0.110309
0.0373313
0.0434963
0.128659
0.2084
0.279332
0.3384
0.383011
0.411147
0.421463
0.413367
0.387066
0.34359
0.284759
0.213127
0.131867
0.0446311
0.0517356
0.153046
0.24795
0.332437
0.40288
0.456185
0.489926
0.502467
0.493059
0.46191
0.410207
0.340099
0.254623
0.157575
0.0533378
0.0614755
0.18188
0.294732
0.395293
0.47926
0.542943
0.583425
0.59871
0.587848
0.551025
0.489604
0.40611
0.304153
0.188274
0.0637375
0.0729835
0.215957
0.35005
0.46967
0.569724
0.645811
0.694419
0.713107
0.700662
0.657218
0.584325
0.484941
0.36335
0.224985
0.0761772
0.0865699
0.256201
0.415415
0.557633
0.676828
0.767757
0.826186
0.84912
0.834998
0.783859
0.69744
0.579192
0.434193
0.268948
0.0910791
0.102592
0.303677
0.492582
0.661581
0.803559
0.912268
0.9826
1.01086
0.995037
0.934997
0.832655
0.692017
0.519093
0.321675
0.108959
0.121461
0.359611
0.583568
0.784291
0.95339
1.08342
1.16822
1.20322
1.18578
1.1155
0.994461
0.827258
0.621
0.385025
0.130452
0.143644
0.4254
0.690686
0.928957
1.13034
1.28599
1.38842
1.43198
1.4132
1.33127
1.18832
0.989616
0.743539
0.461288
0.156342
0.169667
0.502623
0.816562
1.09923
1.33905
1.5255
1.64951
1.70401
1.68446
1.58939
1.42088
1.18487
0.891196
0.55331
0.187603
0.20012
0.593048
0.96415
1.29925
1.58483
1.80836
1.95886
2.02747
2.00817
1.89851
1.70032
1.42016
1.06955
0.664648
0.225458
0.235649
0.698628
1.13673
1.53367
1.87368
2.14193
2.32507
2.41196
2.39461
2.2691
2.03666
1.70437
1.28561
0.799792
0.271456
0.276953
0.821479
1.33789
1.8076
2.21235
2.53459
2.75809
2.86884
2.85614
2.71395
2.44233
2.04862
1.54821
0.964463
0.327576
0.324771
0.963846
1.57149
2.12665
2.60831
2.9958
3.26941
3.41144
3.40757
3.24866
2.93276
2.46696
1.86869
1.16603
0.396377
0.379854
1.12804
1.84151
2.49672
3.06965
3.53607
3.8721
4.05535
4.06665
3.89239
3.52729
2.97726
2.26166
1.41411
0.481219
0.442939
1.31633
2.152
2.92391
3.60494
4.16687
4.58085
4.81863
4.85456
4.66861
4.25022
3.60254
2.74624
1.72144
0.586582
0.514689
1.53082
2.50674
3.4142
4.22293
4.90038
5.41195
5.72207
5.79654
5.60623
5.13234
4.37268
3.34782
2.10518
0.718544
0.595639
1.77322
2.90902
3.97302
4.93206
5.74907
6.38291
6.78913
6.92235
6.74075
6.2129
5.32696
4.10063
2.5889
0.885541
0.686098
2.04461
3.36116
4.60471
5.73978
6.72494
7.51191
8.04572
8.26677
8.11568
7.54209
6.51761
5.05161
3.2057
1.09956
0.786056
2.34514
3.86397
5.31172
6.65158
7.8384
8.81666
9.51948
9.86957
9.78397
9.18436
8.01483
6.26638
4.00319
1.37815
0.895054
2.67362
4.41611
6.09362
7.66963
9.09665
10.3127
11.2381
11.7749
11.8092
11.2224
9.91402
7.8386
5.05195
1.74789
1.01206
3.02713
5.01337
6.94596
8.79111
10.5014
12.0104
13.2267
14.0291
14.2656
13.7614
12.3459
9.90469
6.46
2.25074
1.13536
3.40064
5.64785
7.859
10.0062
12.0459
13.9112
15.5025
16.6763
17.2362
16.9334
15.4899
12.6676
8.39897
2.95653
1.26244
3.78667
6.30735
8.8164
11.2959
13.7114
16.0024
18.0683
19.7496
20.8059
20.8973
19.5913
16.435
11.153
3.98913
1.38995
4.17514
6.97491
9.7943
12.6299
15.4633
18.2497
20.901
23.257
25.0456
25.8317
24.9775
21.6784
15.214
5.58722
1.51379
4.55347
7.62879
10.7609
13.9655
17.2476
20.5909
23.9386
27.1583
29.9813
31.905
32.0615
29.1198
21.4709
8.26005
1.62921
4.90703
8.24321
11.677
15.2472
18.9894
22.929
27.065
31.335
35.5415
39.2055
41.2967
39.8301
31.5901
13.2309
1.73116
5.22004
8.78981
12.4984
16.4094
20.5941
25.1306
30.0983
35.5555
41.4783
47.5979
53.0025
55.2437
48.7365
23.8285
1.81465
5.47685
9.23999
13.179
17.3815
21.9542
27.0328
32.7915
39.4527
47.2782
56.4866
66.9049
76.7324
78.6609
50.2238
1.87528
5.66354
9.56796
13.6767
18.0963
22.9631
28.4624
34.8577
42.5412
52.1174
64.5349
81.2171
103.706
129.672
126.626
1.90972
5.76954
9.75398
13.9586
18.5004
23.5327
29.2697
36.0294
44.3151
54.9833
69.6213
91.4965
128.264
200.83
376.783
1.91613
5.78896
9.78704
14.0063
18.5638
23.6128
29.3667
36.1411
44.4343
55.0922
69.6812
91.4337
127.961
200.191
376.083
1.89434
5.72138
9.66648
13.8189
18.2858
23.2034
28.7548
35.1979
42.9113
52.4708
64.7662
81.1099
102.864
127.563
123.514
1.84591
5.57178
9.4019
13.4132
17.6947
22.3537
27.5236
33.3724
40.106
47.9491
57.0396
67.0282
75.7226
74.8975
39.6805
-14.2106
-11.5909
-9.62489
-8.10109
-6.8714
-5.84501
-4.96471
-4.19259
-3.50221
-2.87428
-2.29408
-1.74991
-1.2321
-0.732276
-0.242943
-5.33198
-7.39394
-7.30562
-6.6695
-5.91967
-5.18024
-4.48487
-3.83891
-3.23861
-2.67753
-2.14878
-1.64568
-1.16199
-0.691861
-0.229737
-2.42694
-4.69017
-5.36673
-5.31682
-4.96068
-4.48482
-3.97068
-3.4535
-2.94774
-2.45832
-1.98565
-1.52797
-1.08247
-0.645878
-0.21469
-1.32097
-3.08822
-3.93229
-4.17676
-4.0848
-3.81595
-3.45859
-3.06012
-2.64549
-2.22746
-1.8121
-1.40177
-0.996753
-0.596139
-0.198384
-0.822392
-2.12735
-2.9142
-3.27031
-3.33173
-3.20851
-2.97501
-2.67794
-2.34559
-1.99473
-1.63504
-1.27188
-0.907967
-0.54441
-0.181393
-0.559802
-1.52626
-2.19522
-2.56848
-2.70686
-2.67762
-2.53556
-2.32024
-2.05853
-1.76812
-1.46039
-1.14251
-0.818925
-0.492302
-0.16424
-0.403561
-1.13174
-1.68156
-2.02976
-2.19836
-2.22505
-2.14698
-1.99473
-1.79138
-1.55352
-1.29276
-1.01709
-0.731986
-0.441189
-0.147377
-0.302135
-0.861093
-1.30789
-1.61573
-1.7884
-1.84521
-1.80989
-1.7047
-1.54818
-1.35481
-1.13547
-0.898228
-0.648991
-0.392167
-0.131166
-0.232175
-0.668321
-1.03072
-1.29557
-1.45889
-1.52934
-1.52131
-1.45031
-1.33057
-1.17412
-0.990615
-0.787682
-0.571259
-0.346043
-0.115879
-0.181799
-0.526756
-0.821286
-1.0459
-1.19386
-1.26796
-1.27644
-1.22974
-1.13845
-1.01219
-0.859246
-0.686499
-0.499629
-0.303351
-0.101699
-0.144365
-0.420208
-0.6604
-0.84944
-0.980118
-1.05215
-1.06988
-1.04014
-0.970597
-0.868796
-0.741619
-0.595118
-0.434528
-0.264389
-0.0887313
-0.11588
-0.338413
-0.53503
-0.693508
-0.807094
-0.874027
-0.89628
-0.878162
-0.825141
-0.743015
-0.637407
-0.513518
-0.376053
-0.229258
-0.077016
-0.0938009
-0.274613
-0.436141