/*--------------------------------*- C++ -*----------------------------------*\
| =========                 |                                                 |
| \\      /  F ield         | OpenFOAM: The Open Source CFD Toolbox           |
|  \\    /   O peration     | Version:  5.x                                   |
|   \\  /    A nd           | Web:      www.OpenFOAM.org                      |
|    \\/     M anipulation  |                                                 |
\*---------------------------------------------------------------------------*/
FoamFile
{
    version     2.0;
    format      ascii;
    class       volScalarField;
    location    "4.6";
    object      gradTx;
}
// * * * * * * * * * * * * * * * * * * * * * * * * * * * * * * * * * * * * * //

dimensions      [0 -1 0 1 0 0 0];

internalField   nonuniform List<scalar> 
6300
(
169.469
170.306
171.962
174.399
177.558
181.354
185.672
190.366
195.255
200.126
204.736
208.824
212.127
214.401
215.439
168.629
169.484
171.178
173.675
176.919
180.828
185.293
190.167
195.271
200.383
205.254
209.605
213.154
215.634
216.819
166.93
167.821
169.587
172.2
175.611
179.745
184.5
189.737
195.273
200.881
206.287
211.184
215.246
218.157
219.65
164.338
165.278
167.148
169.926
173.575
178.037
183.223
189.004
195.2
201.575
207.827
213.595
218.484
222.096
224.085
160.804
161.803
163.796
166.777
170.724
175.603
181.348
187.851
194.947
202.39
209.845
216.882
222.996
227.654
230.381
156.268
157.329
159.456
162.657
166.94
172.299
178.71
186.103
194.342
203.189
212.279
221.09
228.959
235.141
238.936
150.669
151.787
154.038
157.454
162.074
167.942
175.088
183.507
193.124
203.744
214.987
226.236
236.605
245.012
250.366
143.949
145.108
147.453
151.043
155.959
162.304
170.189
179.709
190.901
203.671
217.688
232.256
246.211
257.932
265.629
136.068
137.239
139.622
143.303
148.412
155.122
163.651
174.236
187.098
202.348
219.832
238.887
258.047
274.873
286.269
127.013
128.155
130.491
134.134
139.26
146.12
155.053
166.484
180.903
198.787
220.403
245.408
272.212
297.241
314.907
116.815
117.873
120.051
123.479
128.37
135.043
143.956
155.741
171.24
191.493
217.579
250.128
288.148
326.965
356.305
105.556
106.469
108.359
111.359
115.696
121.725
129.983
141.28
156.822
178.361
208.289
249.373
303.283
366.159
419.975
93.381
94.0871
95.5537
97.8993
101.329
106.174
112.968
122.572
136.404
156.837
187.838
235.787
309.447
414.409
527.452
80.4983
80.9426
81.8676
83.3539
85.5431
88.6729
93.141
99.6332
109.384
124.741
150.436
196.487
284.305
454.57
736.101
67.1694
67.3154
67.6186
68.1036
68.8153
69.8314
71.288
73.4337
76.7554
82.3048
92.6765
115.416
176.712
383.46
1231.55
215.232
213.931
211.609
208.294
204.039
198.923
193.036
186.476
179.337
171.714
163.688
155.334
146.718
137.896
128.918
119.829
110.67
101.477
92.2861
83.1298
74.0391
65.0425
56.166
47.4329
38.8632
30.4741
22.2794
14.2896
6.51248
-1.04738
-8.38779
-15.5089
-22.4125
-29.1019
-35.581
-41.8542
-47.9256
-53.7988
-59.4768
-64.9618
-70.2559
-75.3607
-80.2783
-85.0116
-89.5646
-93.9426
-98.1521
-102.2
-106.096
-109.846
-113.458
-116.937
-120.287
-123.51
-126.604
-129.568
-132.398
-135.09
-137.64
-140.045
-142.303
-144.413
-146.375
-148.187
-149.848
-151.355
-152.701
-153.875
-154.865
-155.651
-156.213
-156.527
-156.569
-156.313
-155.738
-154.824
-153.553
-151.917
-149.908
-147.527
-144.779
-141.676
-138.235
-134.483
-130.45
-126.176
-121.705
-117.09
-112.387
-107.655
216.687
215.397
213.037
209.642
205.276
200.03
194.003
187.304
180.034
172.29
164.157
155.709
147.011
138.118
129.076
119.929
110.716
101.473
92.2343
83.0338
73.9021
64.8681
55.9584
47.1963
38.6023
30.1934
21.9835
13.9829
6.19906
-1.36375
-8.70392
-15.8221
-22.721
-29.4046
-35.8774
-42.1446
-48.2107
-54.0795
-59.754
-65.2363
-70.5277
-75.6294
-80.5428
-85.2703
-89.8157
-94.1842
-98.3829
-102.42
-106.304
-110.044
-113.647
-117.121
-120.469
-123.693
-126.79
-129.759
-132.595
-135.292
-137.847
-140.255
-142.515
-144.625
-146.588
-148.402
-150.068
-151.584
-152.945
-154.14
-155.155
-155.972
-156.568
-156.917
-156.994
-156.771
-156.225
-155.333
-154.079
-152.45
-150.442
-148.053
-145.288
-142.158
-138.683
-134.885
-130.796
-126.456
-121.911
-117.214
-112.426
-107.608
219.673
218.399
215.953
212.383
207.779
202.255
195.937
188.949
181.41
173.422
165.075
156.443
147.584
138.55
129.383
120.122
110.802
101.459
92.1262
82.8368
73.6226
64.5135
55.5368
46.7165
38.0736
29.6253
21.3852
13.3635
5.56686
-2.00114
-9.33991
-16.4514
-23.3398
-30.0105
-36.4699
-42.7243
-48.7794
-54.6395
-60.3076
-65.785
-71.0721
-76.1684
-81.0741
-85.7904
-90.3203
-94.6694
-98.8453
-102.858
-106.718
-110.436
-114.023
-117.485
-120.829
-124.055
-127.16
-130.141
-132.989
-135.699
-138.263
-140.677
-142.938
-145.049
-147.011
-148.828
-150.503
-152.036
-153.425
-154.66
-155.728
-156.608
-157.274
-157.698
-157.848
-157.693
-157.205
-156.361
-155.14
-153.529
-151.521
-149.116
-146.318
-143.138
-139.591
-135.702
-131.502
-127.029
-122.332
-117.469
-112.505
-107.511
224.349
223.089
220.481
216.609
211.604
205.622
198.831
191.386
183.427
175.069
166.403
157.498
148.407
139.171
129.823
120.396
110.921
101.429
91.9538
82.5299
73.1904
63.9669
54.8885
45.9803
37.2638
28.7565
20.4718
12.4193
4.60493
-2.96899
-10.3034
-17.4023
-24.272
-30.9207
-37.3574
-43.5908
-49.6284
-55.4756
-61.1352
-66.6074
-71.8903
-76.9811
-81.8773
-86.5777
-91.0845
-95.4029
-99.5421
-103.514
-107.334
-111.016
-114.575
-118.02
-121.357
-124.588
-127.709
-130.71
-133.582
-136.313
-138.892
-141.315
-143.578
-145.685
-147.641
-149.456
-151.138
-152.694
-154.123
-155.42
-156.57
-157.549
-158.328
-158.87
-159.137
-159.091
-158.698
-157.928
-156.759
-155.176
-153.171
-150.743
-147.897
-144.641
-140.991
-136.967
-132.597
-127.921
-122.99
-117.866
-112.627
-107.353
230.987
229.714
226.827
222.465
216.83
210.152
202.661
194.56
186.017
177.157
168.071
158.818
149.436
139.949
130.376
120.739
111.061
101.372
91.7062
82.0997
72.5894
63.2102
53.9937
44.9668
36.1518
27.5663
19.2233
11.1317
3.29624
-4.28209
-11.6063
-18.6832
-25.5224
-32.1362
-38.5375
-44.739
-50.7513
-56.5814
-62.2321
-67.7015
-72.9845
-78.0735
-82.9613
-87.6432
-92.1188
-96.3932
-100.478
-104.389
-108.148
-111.774
-115.289
-118.707
-122.037
-125.279
-128.427
-131.465
-134.376
-137.142
-139.747
-142.181
-144.441
-146.534
-148.473
-150.274
-151.955
-153.531
-155.01
-156.389
-157.654
-158.777
-159.72
-160.436
-160.875
-160.988
-160.731
-160.068
-158.972
-157.428
-155.428
-152.971
-150.062
-146.71
-142.926
-138.726
-134.132
-129.18
-123.922
-118.43
-112.794
-107.119
240.009
238.66
235.294
230.15
223.553
215.851
207.367
198.369
189.057
179.568
169.978
160.323
150.614
140.847
131.02
121.137
111.215
101.28
91.3712
81.5294
71.7981
62.2181
52.8246
43.6471
34.7085
26.0261
17.6121
9.47446
1.61687
-5.96141
-13.2658
-20.3063
-27.0976
-33.6574
-40.0051
-46.1595
-52.1361
-57.9451
-63.5893
-69.0638
-74.3572
-79.4546
-84.341
-89.0048
-93.4416
-97.6559
-101.662
-105.483
-109.149
-112.692
-116.141
-119.519
-122.841
-126.105
-129.3
-132.401
-135.379
-138.202
-140.845
-143.294
-145.543
-147.605
-149.501
-151.261
-152.92
-154.505
-156.037
-157.52
-158.94
-160.262
-161.436
-162.397
-163.079
-163.414
-163.346
-162.827
-161.829
-160.334
-158.339
-155.846
-152.864
-149.399
-145.459
-141.048
-136.179
-130.876
-125.189
-119.197
-113.017
-106.785
252.07
250.508
246.316
239.923
231.864
222.673
212.81
202.625
192.352
182.12
171.974
161.904
151.871
141.829
131.741
121.591
111.384
101.151
90.9374
80.7982
70.7878
60.9558
51.3434
41.9823
32.8954
24.0984
15.6023
7.41349
-0.465146
-8.03551
-15.3052
-22.2886
-29.0062
-35.484
-41.751
-47.8355
-53.7619
-59.5457
-65.1904
-70.686
-76.0115
-81.139
-86.0402
-90.6925
-95.0838
-99.2171
-103.111
-106.8
-110.328
-113.743
-117.092
-120.412
-123.725
-127.031
-130.307
-133.514
-136.601
-139.519
-142.224
-144.69
-146.914
-148.912
-150.721
-152.394
-153.988
-155.554
-157.133
-158.741
-160.364
-161.959
-163.454
-164.76
-165.779
-166.421
-166.605
-166.276
-165.398
-163.959
-161.963
-159.424
-156.357
-152.771
-148.665
-144.03
-138.85
-133.125
-126.891
-120.236
-113.31
-106.311
268.197
266.138
260.505
252.092
241.801
230.459
218.713
207.005
195.586
184.545
173.857
163.428
153.139
142.875
132.552
122.122
111.588
100.991
90.3954
79.8801
69.5192
59.3761
49.4993
39.9218
30.6637
21.737
13.1492
4.90539
-2.99146
-10.5428
-17.7573
-24.6535
-31.26
-37.6143
-43.7593
-49.7391
-55.5926
-61.3461
-67.0055
-72.5528
-77.9501
-83.1483
-88.0972
-92.7548
-97.0966
-101.121
-104.855
-108.348
-111.667
-114.888
-118.083
-121.315
-124.618
-127.996
-131.412
-134.797
-138.067
-141.139
-143.943
-146.436
-148.608
-150.487
-152.137
-153.64
-155.093
-156.583
-158.185
-159.936
-161.827
-163.798
-165.744
-167.531
-169.021
-170.081
-170.603
-170.512
-169.772
-168.382
-166.367
-163.76
-160.594
-156.888
-152.633
-147.792
-142.301
-136.105
-129.197
-121.662
-113.707
-105.637
290.064
286.907
278.695
266.958
253.249
238.823
224.556
210.966
198.273
186.461
175.364
164.748
154.367
144.006
133.511
122.802
111.883
100.825
89.7366
78.7379
67.9353
57.4118
47.2233
37.4002
27.9541
18.887
10.2001
1.89721
-6.01566
-13.5353
-20.668
-27.4356
-33.8769
-40.0456
-46.0052
-51.8241
-57.567
-63.2816
-68.9814
-74.6348
-80.1747
-85.516
-90.5725
-95.2711
-99.5646
-103.444
-106.945
-110.144
-113.147
-116.067
-119.022
-122.111
-125.403
-128.907
-132.559
-136.242
-139.816
-143.144
-146.11
-148.641
-150.72
-152.392
-153.759
-154.958
-156.139
-157.451
-159.02
-160.926
-163.173
-165.671
-168.257
-170.73
-172.879
-174.515
-175.481
-175.68
-175.078
-173.703
-171.619
-168.898
-165.608
-161.791
-157.443
-152.487
-146.767
-140.109
-132.403
-123.69
-114.268
-104.651
320.543
314.953
301.957
284.661
265.722
246.954
229.42
213.632
199.687
187.342
176.177
165.726
155.562
145.328
134.776
123.783
112.376
100.699
88.9471
77.3117
65.9479
54.9639
44.4197
34.3347
24.6978
15.4889
6.69746
-1.67303
-9.60638
-17.0853
-24.1047
-30.6873
-36.8864
-42.7778
-48.4536
-54.0182
-59.5816
-65.2378
-71.0235
-76.8794
-82.6843
-88.2927
-93.5624
-98.3695
-102.628
-106.31
-109.467
-112.224
-114.742
-117.196
-119.764
-122.615
-125.882
-129.602
-133.659
-137.843
-141.92
-145.667
-148.9
-151.496
-153.416
-154.734
-155.622
-156.298
-156.996
-157.946
-159.366
-161.421
-164.155
-167.416
-170.933
-174.389
-177.475
-179.909
-181.463
-181.997
-181.493
-180.044
-177.784
-174.854
-171.377
-167.456
-163.127
-158.279
-152.578
-145.62
-137.054
-126.739
-115.107
-103.138
364.948
353.657
331.406
304.726
277.947
253.303
231.764
213.638
198.793
186.523
175.956
166.289
156.853
147.108
136.671
125.359
113.255
100.68
87.9876
75.4928
63.4119
51.8816
40.954
30.6229
20.8243
11.4891
2.58812
-5.87314
-13.8517
-21.2973
-28.1704
-34.4914
-40.3387
-45.8204
-51.0616
-56.2138
-61.4619
-67.0072
-72.9636
-79.1968
-85.4762
-91.5562
-97.2172
-102.257
-106.52
-109.93
-112.564
-114.646
-116.429
-118.161
-120.097
-122.517
-125.708
-129.811
-134.572
-139.599
-144.495
-148.927
-152.606
-155.321
-156.977
-157.694
-157.787
-157.606
-157.488
-157.764
-158.794
-160.938
-164.375
-168.79
-173.692
-178.579
-183.008
-186.567
-188.91
-189.804
-189.269
-187.548
-184.913
-181.592
-177.783
-173.702
-169.557
-165.296
-160.198
-153.444
-144.22
-131.681
-116.429
-100.622
434.083
408.141
367.225
324.929
287.095
255.181
229.191
208.917
194.189
183.247
174.436
166.518
158.586
149.882
139.823
128.071
114.811
100.83
86.7415
73.0767
60.082
47.9304
36.6283
26.1436
16.283
6.86361
-2.15484
-10.7687
-18.8645
-26.3339
-33.0308
-38.9778
-44.3172
-49.2089
-53.7976
-58.2708
-62.9139
-68.1838
-74.5046
-81.4469
-88.5544
-95.4223
-101.765
-107.262
-111.642
-114.663
-116.457
-117.499
-118.185
-118.832
-119.731
-121.308
-124.219
-129.069
-135.103
-141.539
-147.738
-153.27
-157.699
-160.669
-161.886
-161.552
-160.346
-158.82
-157.409
-156.493
-156.615
-158.591
-163.183
-169.462
-176.469
-183.426
-189.789
-194.974
-198.441
-199.665
-198.748
-196.366
-193.027
-189.03
-184.579
-180.038
-176.152
-173.513
-170.199
-164.823
-156.159
-140.526
-118.547
-95.9236
552.575
484.18
405.025
338.701
287.711
248.521
218.382
196.205
184.131
176.897
171.629
166.762
161.431
154.601
145.412
132.954
117.403
101.132
84.8834
69.6938
55.5366
42.7545
31.1247
20.7648
11.1056
1.66028
-7.48081
-16.4105
-24.7793
-32.4831
-38.9709
-44.3391
-48.94
-53.0335
-56.6995
-60.0825
-63.4627
-67.8466
-75.1496
-83.4584
-91.9765
-100.043
-107.531
-113.874
-118.717
-121.165
-121.431
-120.861
-119.996
-119.14
-118.386
-118.177
-119.934
-126.621
-135.055
-143.818
-151.94
-159.197
-164.892
-168.538
-169.029
-166.661
-163.364
-159.864
-156.618
-153.724
-151.764
-152.477
-159.557
-169.081
-179.317
-189.125
-198.266
-205.849
-211.198
-212.607
-210.331
-206.561
-202.083
-197.119
-191.501
-185.428
-180.948
-182.697
-183.169
-180.931
-178.131
-158.504
-121.593
-85.8615
783.784
575.708
424.344
330.389
271.33
228.826
196.103
168.943
167.1
167.713
168.239
167.673
166.428
162.717
155.704
142.287
121.031
101.398
81.4996
64.8231
49.0098
35.9187
23.7916
14.3766
5.61952
-3.98144
-13.1114
-22.8602
-31.6517
-40.3834
-46.5232
-50.805
-54.2931
-57.4735
-60.0086
-61.8976
-62.5657
-63.3054
-74.3457
-85.1675
-96.0474
-105.498
-114.943
-122.645
-129.24
-130.806
-127.608
-124.647
-121.794
-119.297
-116.255
-112.216
-108.549
-121.655
-134.531
-147.017
-157.389
-167.37
-175.032
-180.949
-180.287
-173.106
-166.67
-160.542
-155.317
-149.608
-143.061
-137.194
-152.409
-167.674
-182.779
-195.781
-208.983
-219.939
-229.626
-230.853
-224.062
-217.77
-211.838
-206.146
-199.073
-188.519
-176.774
-193.714
-200.039
-197.845
-224.329
-201.37
-122.938
-61.4561
1308.27
585.561
360.991
271.82
231.107
195.043
165.808
105.223
146.529
158.651
166.421
169.555
174.976
175.582
175.216
162.905
122.319
102.044
73.4747
58.7082
38.562
27.6938
12.5526
7.04051
1.34826
-10.3016
-17.8512
-30.6883
-38.6103
-52.016
-56.7506
-58.4138
-60.0887
-62.8424
-64.2474
-65.4704
-61.5649
-43.9305
-73.8556
-86.7922
-102.176
-110.957
-124.865
-133.009
-147.005
-147.304
-133.443
-128.273
-123.08
-120.238
-115.559
-105.716
-73.0082
-117.019
-134.566
-153.261
-163.396
-178.88
-187.685
-202.831
-200.93
-178.478
-169.531
-159.918
-154.712
-146.696
-133.376
-91.5516
-145.185
-166.493
-189.268
-202.147
-222.928
-235.852
-260.234
-260.641
-237.07
-228.459
-221.241
-217.158
-211.656
-193.322
-131.289
-220.013
-229.173
-173.459
-341.722
-324.11
-99.874
1.66624
-102.49
-96.9838
-91.7018
-86.7196
-82.0961
-77.8735
-74.0784
-70.7243
-67.8149
-65.3465
-63.3112
-61.6992
-60.5006
-59.7068
-59.3115
-102.353
-96.7576
-91.4003
-86.3592
-81.6937
-77.4445
-73.6359
-70.2784
-67.3726
-64.9121
-62.8868
-61.2847
-60.0947
-59.3072
-58.9152
-102.07
-96.2911
-90.7807
-85.6217
-80.8735
-76.5736
-72.7409
-69.3795
-66.4837
-64.0415
-62.0377
-60.4571
-59.2853
-58.5109
-58.1257
-101.619
-95.554
-89.8082
-84.4717
-79.6033
-75.2341
-71.373
-68.0137
-65.1401
-62.7311
-60.7646
-59.2194
-58.0773
-57.3242
-56.9501
-100.966
-94.4955
-88.4248
-82.8521
-77.8325
-73.3849
-69.5021
-66.161
-63.3305
-60.9772
-59.0688
-57.5774
-56.4795
-55.7574
-55.3994
-100.053
-93.0357
-86.5417
-80.678
-75.4884
-70.9695
-67.0881
-63.7965
-61.0427
-58.7769
-56.9552
-55.5408
-54.5047
-53.8256
-53.4895
-98.7918
-91.0511
-84.0266
-77.8282
-72.4723
-67.9153
-64.0831
-60.893
-58.2657
-56.1316
-54.4332
-53.1248
-52.1719
-51.5498
-51.2426
-97.0372
-88.3487
-80.684
-74.1345
-68.6561
-64.1349
-60.4349
-57.4256
-54.9943
-53.0495
-51.5201
-50.3524
-49.5074
-48.9581
-48.6876
-94.5428
-84.6206
-76.2248
-69.3683
-63.8814
-59.5322
-56.095
-53.3792
-51.2354
-49.5511
-48.2443
-47.2564
-46.5463
-46.0868
-45.861
-90.8657
-79.3646
-70.2245
-63.2311
-57.9679
-54.0163
-51.0326
-48.76
-47.0159
-45.6742
-44.6488
-43.8815
-43.3338
-42.9809
-42.8079
-85.1603
-71.7461
-62.076
-55.3622
-50.7415
-47.5316
-45.2582
-43.6112
-42.3933
-41.4803
-40.7942
-40.2862
-39.9258
-39.6942
-39.5809
-75.7167
-60.3826
-50.9704
-45.3994
-42.1036
-40.1094
-38.8565
-38.0325
-37.465
-37.0586
-36.7609
-36.5427
-36.3881
-36.2886
-36.2398
-58.9246
-43.0954
-36.0225
-33.1603
-32.1632
-31.9451
-32.0252
-32.1968
-32.3747
-32.5277
-32.6473
-32.7348
-32.7948
-32.8317
-32.8492
-27.0346
-17.0514
-16.8632
-19.0554
-21.4432
-23.482
-25.1019
-26.3541
-27.309
-28.0294
-28.5651
-28.954
-29.2237
-29.3935
-29.4755
36.3886
18.7881
4.67672
-4.75457
-11.0716
-15.4374
-18.5458
-20.8081
-22.4772
-23.7152
-24.6292
-25.2919
-25.7522
-26.0426
-26.1832
54.8158
54.6783
54.3887
53.9148
53.2009
52.1548
50.6228
48.3378
44.8019
38.9824
28.3913
5.75376
-55.2484
-269.628
-1215.17
43.6797
43.2947
42.4884
41.1816
39.2358
36.4217
32.3581
26.391
17.3382
2.91089
-21.6848
-67.2967
-159.61
-355.594
-721.114
32.81
32.2026
30.9347
28.8913
25.8729
21.5554
15.4144
6.58625
-6.39434
-26.1
-57.1666
-107.915
-191.977
-323.827
-480.888
22.3613
21.5682
19.9189
17.2771
13.4114
7.95477
0.335972
-10.3355
-25.4572
-47.2219
-78.9812
-125.398
-191.157
-274.548
-349.729
12.4625
11.5277
9.59152
6.51226
2.0541
-4.14495
-12.6231
-24.1673
-39.9072
-61.4027
-90.6165
-129.451
-178.09
-230.968
-270.778
3.21215
2.18183
0.0573115
-3.29562
-8.09478
-14.6625
-23.4534
-35.0861
-50.3608
-70.2234
-95.57
-126.694
-162.079
-196.46
-219.471
-5.32333
-6.40477
-8.62442
-12.0997
-17.0159
-23.6363
-32.3108
-43.476
-57.629
-75.2356
-96.5107
-120.978
-146.765
-169.846
-184.144
-13.1084
-14.2015
-16.4347
-19.9035
-24.7541
-31.1841
-39.4385
-49.7913
-62.4989
-77.7006
-95.234
-114.345
-133.331
-149.332
-158.743
-20.1348
-21.207
-23.3874
-26.7482
-31.3956
-37.4651
-45.1092
-54.4715
-65.6371
-78.5462
-92.8617
-107.798
-121.968
-133.392
-139.878
-26.4171
-27.4432
-29.5208
-32.6998
-37.0499
-42.6528
-49.5867
-57.8995
-67.5646
-78.4152
-90.058
-101.782
-112.512
-120.881
-125.516
-31.9873
-32.9494
-34.8898
-37.8385
-41.8345
-46.9164
-53.1068
-60.3883
-68.6686
-77.734
-87.1976
-96.4573
-104.696
-110.963
-114.373
-36.8897
-37.7767
-39.5588
-42.2501
-45.8653
-50.4104
-55.8692
-62.1836
-69.2275
-76.7763
-84.4785
-91.8411
-98.2474
-103.029
-105.596
-41.1764
-41.9825
-43.5966
-46.0204
-49.2505
-53.2699
-58.0376
-63.4724
-69.4356
-75.7118
-81.9953
-87.8888
-92.927
-96.6327
-98.6025
-44.9036
-45.6274
-47.0724
-49.2311
-52.0876
-55.6101
-59.7427
-64.3942
-69.4262
-74.6422
-79.7827
-84.5301
-88.5319
-91.4414
-92.9763
-48.1284
-48.7717
-50.0525
-51.9575
-54.4623
-57.5266
-61.0875
-65.0519
-69.289
-73.6251
-77.8428
-81.6893
-84.8949
-87.2046
-88.4158
-50.9066
-51.4735
-52.5995
-54.2674
-56.4485
-59.0983
-62.1522
-65.5202
-69.0831
-72.6901
-76.1607
-79.2932
-81.8801
-83.7304
-84.6962
-53.2913
-53.7872
-54.7701
-56.2211
-58.1093
-60.3895
-62.9987
-65.8532
-68.8466
-71.8497
-74.7132
-77.2759
-79.3766
-80.8704
-81.6471
-55.3317
-55.7629
-56.6158
-57.8712
-59.498
-61.4523
-63.6749
-66.0897
-68.6035
-71.1061
-73.4746
-75.5795
-77.2944
-78.5081
-79.1373
-57.0728
-57.4457
-58.1822
-59.2634
-60.6594
-62.3289
-64.2176
-66.2576
-68.368
-70.4556
-72.419
-74.1538
-75.5601
-76.5516
-77.0644
-58.5549
-58.8761
-59.5094
-60.437
-61.6309
-63.0533
-64.6551
-66.3767
-68.1483
-69.8913
-71.5221
-72.9561
-74.1138
-74.9275
-75.3474
-59.8142
-60.0897
-60.6324
-61.4256
-62.4439
-63.653
-65.0095
-66.4612
-67.9483
-69.405
-70.7618
-71.9502
-72.9064
-73.5767
-73.9221
-60.8822
-61.1178
-61.5814
-62.258
-63.1245
-64.1504
-65.2977
-66.5211
-67.7696
-68.9879
-70.1186
-71.1056
-71.8975
-72.4514
-72.7365
-61.7866
-61.9876
-62.3827
-62.9584
-63.6944
-64.5636
-65.533
-66.5635
-67.6119
-68.6315
-69.575
-70.3963
-71.0538
-71.5128
-71.7488
-62.5515
-62.7225
-63.0586
-63.5477
-64.1718
-64.9074
-65.7258
-66.5936
-67.474
-68.3281
-69.1163
-69.8009
-70.3478
-70.7291
-70.925
-63.1976
-63.343
-63.6283
-64.0431
-64.5717
-65.1937
-65.8842
-66.6149
-67.3545
-68.0703
-68.7296
-69.301
-69.7568
-70.0742
-70.2371
-63.7429
-63.8662
-64.1082
-64.4596
-64.9069
-65.4324
-66.0148
-66.63
-67.2515
-67.8519
-68.4038
-68.8814
-69.2619
-69.5265
-69.6622
-64.2025
-64.307
-64.512
-64.8095
-65.1877
-65.6315
-66.1227
-66.6407
-67.1631
-67.667
-68.1295
-68.5293
-68.8473
-69.0684
-69.1817
-64.5896
-64.6781
-64.8517
-65.1033
-65.423
-65.7978
-66.212
-66.6483
-67.0877
-67.5109
-67.8989
-68.2339
-68.5001
-68.685
-68.7797
-64.9153
-64.9902
-65.1371
-65.3499
-65.6201
-65.9366
-66.286
-66.6536
-67.0235
-67.3793
-67.7051
-67.9861
-68.2093
-68.3642
-68.4436
-65.1889
-65.2523
-65.3766
-65.5567
-65.7852
-66.0525
-66.3475
-66.6574
-66.969
-67.2685
-67.5425
-67.7785
-67.9659
-68.096
-68.1625
-65.4185
-65.4722
-65.5775
-65.7299
-65.9232
-66.1492
-66.3984
-66.6601
-66.9229
-67.1753
-67.4061
-67.6048
-67.7624
-67.8717
-67.9277
-65.6107
-65.6563
-65.7456
-65.8748
-66.0385
-66.2299
-66.4408
-66.662
-66.8841
-67.0972
-67.292
-67.4595
-67.5924
-67.6845
-67.7317
-65.7714
-65.8101
-65.8859
-65.9956
-66.1346
-66.297
-66.4758
-66.6634
-66.8515
-67.0319
-67.1967
-67.3384
-67.4507
-67.5285
-67.5684
-65.9051
-65.9381
-66.0027
-66.0962
-66.2145
-66.3527
-66.5049
-66.6643
-66.8242
-66.9775
-67.1174
-67.2376
-67.3329
-67.399
-67.4327
-66.016
-66.0442
-66.0995
-66.1794
-66.2806
-66.3988
-66.5288
-66.665
-66.8015
-66.9323
-67.0517
-67.1542
-67.2355
-67.2918
-67.3206
-66.1073
-66.1316
-66.1791
-66.2479
-66.335
-66.4366
-66.5484
-66.6655
-66.7828
-66.8951
-66.9976
-67.0857
-67.1554
-67.2037
-67.2284
-66.1816
-66.2027
-66.244
-66.3037
-66.3793
-66.4674
-66.5643
-66.6658
-66.7675
-66.8648
-66.9535
-67.0298
-67.0902
-67.132
-67.1533
-66.2414
-66.2599
-66.2961
-66.3485
-66.4148
-66.4921
-66.5771
-66.6661
-66.7551
-66.8404
-66.9182
-66.985
-67.0378
-67.0744
-67.0931
-66.2883
-66.3048
-66.337
-66.3836
-66.4426
-66.5115
-66.5871
-66.6662
-66.7455
-66.8213
-66.8904
-66.9498
-66.9968
-67.0293
-67.0459
-66.3237
-66.3387
-66.3679
-66.4102
-66.4637
-66.5261
-66.5946
-66.6663
-66.7381
-66.8068
-66.8694
-66.9232
-66.9657
-66.9952
-67.0102
-66.3488
-66.3627
-66.3898
-66.429
-66.4786
-66.5364
-66.5999
-66.6664
-66.7329
-66.7966
-66.8546
-66.9044
-66.9438
-66.9711
-66.985
-66.3642
-66.3774
-66.4032
-66.4406
-66.4878
-66.5428
-66.6032
-66.6665
-66.7297
-66.7903
-66.8455
-66.8928
-66.9303
-66.9562
-66.9695
-66.3705
-66.3835
-66.4087
-66.4453
-66.4915
-66.5454
-66.6046
-66.6665
-66.7284
-66.7877
-66.8417
-66.8881
-66.9248
-66.9502
-66.9631
-66.3679
-66.3809
-66.4064
-66.4433
-66.4899
-66.5443
-66.604
-66.6665
-66.729
-66.7888
-66.8433
-66.8901
-66.9271
-66.9527
-66.9658
-66.3561
-66.3697
-66.3962
-66.4345
-66.483
-66.5394
-66.6015
-66.6665
-66.7314
-66.7936
-66.8503
-66.8989
-66.9374
-66.964
-66.9776
-66.335
-66.3494
-66.3778
-66.4187
-66.4704
-66.5308
-66.5971
-66.6664
-66.7358
-66.8023
-66.8628
-66.9147
-66.9558
-66.9843
-66.9988
-66.3038
-66.3196
-66.3506
-66.3953
-66.4519
-66.5179
-66.5905
-66.6664
-66.7423
-66.815
-66.8812
-66.9381
-66.9831
-67.0142
-67.0301
-66.2616
-66.2793
-66.3138
-66.3637
-66.4269
-66.5006
-66.5815
-66.6662
-66.751
-66.8322
-66.9062
-66.9697
-67.0199
-67.0547
-67.0725
-66.2072
-66.2272
-66.2664
-66.323
-66.3946
-66.4781
-66.57
-66.6661
-66.7623
-66.8544
-66.9384
-67.0105
-67.0675
-67.1071
-67.1273
-66.1389
-66.1619
-66.2068
-66.2718
-66.354
-66.45
-66.5554
-66.6658
-66.7764
-66.8823
-66.9788
-67.0617
-67.1273
-67.1728
-67.196
-66.0547
-66.0813
-66.1333
-66.2086
-66.3039
-66.4151
-66.5374
-66.6655
-66.7938
-66.9166
-67.0287
-67.1249
-67.2011
-67.2539
-67.2809
-65.952
-65.983
-66.0437
-66.1316
-66.2428
-66.3726
-66.5154
-66.665
-66.8149
-66.9585
-67.0895
-67.2021
-67.2912
-67.353
-67.3845
-65.8277
-65.8641
-65.9353
-66.0383
-66.1688
-66.3211
-66.4887
-66.6644
-66.8404
-67.0092
-67.1631
-67.2955
-67.4003
-67.4729
-67.5101
-65.6782
-65.721
-65.8048
-65.926
-66.0796
-66.259
-66.4564
-66.6634
-66.871
-67.07
-67.2517
-67.408
-67.5318
-67.6176
-67.6614
-65.499
-65.5494
-65.6483
-65.7913
-65.9725
-66.1843
-66.4175
-66.6621
-66.9075
-67.143
-67.358
-67.543
-67.6896
-67.7913
-67.8433
-65.2847
-65.3443
-65.461
-65.63
-65.8443
-66.0947
-66.3706
-66.6602
-66.951
-67.2301
-67.4851
-67.7046
-67.8787
-67.9994
-68.0612
-65.0291
-65.0995
-65.2375
-65.4374
-65.6909
-65.9873
-66.3142
-66.6576
-67.0025
-67.3339
-67.6369
-67.8978
-68.1049
-68.2485
-68.322
-64.7245
-64.8078
-64.971
-65.2075
-65.5076
-65.8588
-66.2464
-66.6539
-67.0635
-67.4574
-67.8178
-68.1285
-68.3751
-68.5462
-68.6338
-64.3622
-64.4607
-64.6537
-64.9335
-65.2889
-65.7051
-66.1648
-66.6486
-67.1355
-67.6041
-68.0333
-68.4036
-68.6977
-68.9019
-69.0065
-63.9314
-64.0478
-64.2761
-64.6072
-65.0278
-65.5211
-66.0665
-66.6411
-67.2202
-67.7781
-68.2897
-68.7315
-69.0828
-69.3268
-69.4518
-63.4199
-63.5574
-63.8271
-64.2186
-64.7165
-65.3009
-65.948
-66.6306
-67.3195
-67.9842
-68.5946
-69.1223
-69.5423
-69.8342
-69.9839
-62.8129
-62.9751
-63.2935
-63.7561
-64.345
-65.0372
-65.8047
-66.6158
-67.4357
-68.2281
-68.9569
-69.5879
-70.0906
-70.4405
-70.62
-62.0933
-62.2845
-62.6599
-63.2059
-63.9018
-64.7211
-65.6313
-66.5949
-67.5709
-68.5161
-69.3871
-70.1424
-70.7452
-71.1651
-71.3806
-61.2409
-61.4659
-61.908
-62.5515
-63.3731
-64.342
-65.4207
-66.5653
-67.7275
-68.8556
-69.8975
-70.803
-71.5267
-72.0315
-72.2908
-60.2324
-60.4966
-61.0161
-61.7734
-62.742
-63.8868
-65.1643
-66.5237
-67.9077
-69.2551
-70.5027
-71.5896
-72.4602
-73.0683
-73.381
-59.0405
-59.35
-59.9593
-60.8487
-61.9886
-63.3393
-64.8511
-66.4648
-68.1134
-69.7236
-71.2196
-72.5265
-73.5759
-74.3103
-74.6884
-57.6337
-57.9953
-58.7079
-59.75
-61.0889
-62.68
-64.4671
-66.3819
-68.3457
-70.2716
-72.0676
-73.6422
-74.9102
-75.7997
-76.2582
-55.9759
-56.397
-57.2278
-58.4453
-60.014
-61.8848
-63.9943
-66.2648
-68.6044
-70.9097
-73.0694
-74.9708
-76.5074
-77.5882
-78.1463
-54.0258
-54.5142
-55.4792
-56.8969
-58.7294
-60.9237
-63.4099
-66.0997
-68.8869
-71.6488
-74.2505
-76.5526
-78.421
-79.7396
-80.4219
-51.7366
-52.3004
-53.4164
-55.0604
-57.1936
-59.76
-62.684
-65.867
-69.187
-72.499
-75.6396
-78.4354
-80.7165
-82.3327
-83.1713
-49.0561
-49.7034
-50.9871
-52.8843
-55.3569
-58.3482
-61.7782
-65.5392
-69.4927
-73.4683
-77.268
-80.6755
-83.4735
-85.4658
-86.5027
-45.9261
-46.6644
-48.132
-50.3088
-53.1602
-56.6318
-60.6425
-65.0778
-69.783
-74.5598
-79.1686
-83.3388
-86.7898
-89.2623
-90.5541
-42.2836
-43.1193
-44.7845
-47.2648
-50.5329
-54.541
-59.2121
-64.4291
-70.0235
-75.7679
-81.3737
-86.5013
-90.7856
-93.8785
-95.5024
-38.0611
-38.9982
-40.8711
-43.6741
-47.3918
-51.9899
-57.4028
-63.5181
-70.1598
-77.0721
-83.9107
-90.2492
-95.6085
-99.5145
-101.578
-33.188
-34.2276
-36.312
-39.4483
-43.6395
-48.8731
-55.1056
-62.2417
-70.1083
-78.4274
-86.7948
-94.6769
-101.44
-106.43
-109.087
-27.5933
-28.7317
-31.0225
-34.4903
-39.1636
-45.0627
-52.1811
-60.458
-69.7424
-79.7489
-90.0159
-99.8812
-108.504
-114.964
-118.44
-21.2083
-22.436
-24.916
-28.6955
-33.8367
-40.4058
-48.4521
-57.9748
-68.875
-80.8895
-93.5157
-105.948
-117.07
-125.57
-130.207
-13.9712
-15.2708
-17.9076
-21.9552
-27.5184
-34.7234
-43.6979
-54.5351
-67.2338
-81.6053
-97.15
-112.923
-127.458
-138.857
-145.194
-5.83208
-7.17746
-9.9199
-14.1628
-20.0603
-27.8124
-37.6502
-49.8029
-64.4307
-81.5061
-100.625
-120.759
-140.021
-155.659
-164.58
3.24082
1.88553
-0.890678
-5.2218
-11.3148
-19.4533
-29.9953
-43.3518
-59.928
-79.9876
-103.395
-129.199
-155.102
-177.125
-190.161
13.2543
11.9347
9.21778
4.94221
-1.14915
-9.42561
-20.3859
-34.6651
-53.0064
-76.1438
-104.502
-137.57
-172.876
-204.832
-224.794
24.1835
22.9535
20.408
16.3666
10.5334
2.46544
-8.4721
-23.1578
-42.754
-68.6748
-102.336
-144.387
-192.975
-240.866
-273.287
35.966
34.885
32.6364
29.0345
23.7673
16.3487
6.04419
-8.24079
-28.1099
-55.8305
-94.3433
-146.665
-213.557
-287.643
-344.293
48.4985
47.6265
45.8037
42.8583
38.4945
32.2355
23.3241
10.5537
-8.01374
-35.4918
-76.7613
-138.822
-229.144
-346.524
-454.637
61.6354
61.0275
59.7497
57.6661
54.537
49.9635
43.2833
33.3731
18.2697
-5.57606
-44.7407
-111.355
-225.937
-411.84
-640.057
75.1935
74.8925
74.2544
73.1989
71.5815
69.1537
65.4845
59.7982
50.6235
34.9769
6.34168
-50.575
-173.202
-447.767
-983.955
88.9594
88.9904
89.0478
89.1209
89.1878
89.205
89.0853
88.6445
87.4702
84.5488
77.0631
55.8372
-14.9537
-302.007
-1700.2
102.703
103.069
103.829
105.046
106.827
109.35
112.908
117.999
125.529
137.289
157.325
196.669
293.477
615.377
2048.8
116.19
116.872
118.292
120.578
123.95
128.776
135.663
145.658
160.647
184.28
224.178
297.591
445.591
760.865
1357.07
129.203
130.16
132.153
135.354
140.063
146.768
156.259
169.846
189.762
219.972
267.755
346.715
481.536
711.257
1079.39
119.072
48.4423
20.1316
5.49989
-3.35278
-9.21557
-13.3113
-16.2677
-18.443
-20.057
-21.2514
-22.1199
-22.7251
-23.108
-23.2936
75.234
46.0121
24.6818
10.8089
1.58807
-4.78635
-9.34378
-12.6822
-15.1649
-17.0227
-18.4068
-19.4188
-20.1272
-20.5769
-20.7953
51.6885
38.1011
24.0531
12.887
4.55226
-1.61888
-6.22266
-9.69073
-12.3208
-14.3169
-15.8202
-16.9284
-17.7087
-18.2062
-18.4483
37.578
30.5093
21.4227
12.9988
6.01387
0.460166
-3.89015
-7.28114
-9.91659
-11.9533
-13.5079
-14.6654
-15.4865
-16.0125
-16.2693
28.3757
24.3186
18.3318
12.1113
6.48146
1.70352
-2.22379
-5.39613
-7.92808
-9.92432
-11.4712
-12.6359
-13.4689
-14.0056
-14.2684
21.9906
19.4675
15.4029
10.8134
6.35739
2.35613
-1.08168
-3.95577
-6.3115
-8.20729
-9.69957
-10.8367
-11.657
-12.1886
-12.4499
17.3574
15.6866
12.8385
9.42255
5.91744
2.61742
-0.331028
-2.87534
-5.01424
-6.77036
-8.17449
-9.25731
-10.0454
-10.5592
-10.8126
13.8842
12.7229
10.6683
8.09351
5.335
2.63452
0.138976
-2.0764
-3.98275
-5.57778
-6.87242
-7.88252
-8.62404
-9.11041
-9.35116
11.2173
10.3795
8.85931
6.8919
4.7122
2.50928
0.414414
-1.49203
-3.16739
-4.59374
-5.76788
-6.69413
-7.37978
-7.83213
-8.05679
9.13202
8.50984
7.36072
5.83762
4.10545
2.30896
0.559003
-1.06814
-2.5249
-3.78479
-4.83539
-5.67275
-6.29745
-6.71185
-6.91833
7.4787
7.00599
6.12173
4.92846
3.54331
2.07629
0.618294
-0.762543
-2.01909
-3.12114
-4.05091
-4.79897
-5.36109
-5.73587
-5.92317
6.15355
5.78784
5.09726
4.1525
3.03796
1.83734
0.623993
-0.543255
-1.62053
-2.57709
-3.39256
-4.05426
-4.55475
-4.88999
-5.05801
5.08229
4.79521
4.24925
3.49437
2.59237
1.60719
0.597672
-0.386437
-1.3058
-2.13097
-2.84096
-3.42144
-3.8631
-4.16019
-4.30945
4.21032
3.98229
3.54626
2.93835
2.20451
1.39392
0.5537
-0.274578
-1.05646
-1.76482
-2.37924
-2.88498
-3.2718
-3.53298
-3.6645
3.49664
3.31377
2.96259
2.46975
1.8699
1.20121
0.501426
-0.194937
-0.858152
-1.46387
-1.99298