/*--------------------------------*- C++ -*----------------------------------*\
| =========                 |                                                 |
| \\      /  F ield         | OpenFOAM: The Open Source CFD Toolbox           |
|  \\    /   O peration     | Version:  5.x                                   |
|   \\  /    A nd           | Web:      www.OpenFOAM.org                      |
|    \\/     M anipulation  |                                                 |
\*---------------------------------------------------------------------------*/
FoamFile
{
    version     2.0;
    format      ascii;
    class       volScalarField;
    location    "2.5";
    object      gradTx;
}
// * * * * * * * * * * * * * * * * * * * * * * * * * * * * * * * * * * * * * //

dimensions      [0 -1 0 1 0 0 0];

internalField   nonuniform List<scalar> 
6300
(
227.934
228.909
230.835
233.659
237.298
241.635
246.516
251.743
257.073
262.224
266.878
270.698
273.351
274.534
274.003
226.949
227.95
229.928
232.834
236.59
241.083
246.162
251.63
257.244
262.713
267.703
271.858
274.814
276.241
275.868
224.955
226.005
228.085
231.152
235.137
239.937
245.409
251.363
257.552
263.671
269.357
274.207
277.801
279.742
279.702
221.901
223.021
225.245
228.543
232.859
238.108
244.166
250.853
257.923
265.053
271.839
277.806
282.434
285.216
285.721
217.72
218.923
221.324
224.906
229.638
235.463
242.285
249.95
258.224
266.77
275.133
282.735
288.907
292.959
294.286
212.325
213.619
216.212
220.111
225.315
231.812
239.552
248.429
258.244
268.663
279.178
289.084
297.492
303.42
305.963
205.628
207.008
209.787
214
219.692
226.908
235.673
245.962
257.651
270.449
283.824
296.923
308.55
317.257
321.617
197.542
198.989
201.919
206.401
212.535
220.445
230.261
242.086
255.937
271.649
288.736
306.224
322.516
335.43
342.593
188
189.479
192.49
197.14
203.593
212.068
222.831
236.175
252.353
271.463
293.236
316.709
339.851
359.344
371.049
176.971
178.429
181.414
186.069
192.62
201.392
212.812
227.42
245.826
268.604
296.023
327.515
360.819
391.034
410.635
164.477
165.844
168.659
173.092
179.42
188.057
199.597
214.856
234.916
261.092
294.723
336.493
384.86
433.324
467.956
150.606
151.803
154.279
158.212
163.901
171.812
182.652
197.483
217.878
246.113
285.272
338.859
408.787
489.427
556.155
135.532
136.475
138.434
141.568
146.152
152.629
161.708
174.535
192.988
220.196
261.377
324.866
421.982
559.42
704.873
119.508
120.124
121.407
123.468
126.502
130.834
137.008
145.952
159.332
180.295
215.158
277.231
394.831
621.368
992.717
102.861
103.1
103.595
104.387
105.546
107.192
109.529
112.925
118.082
126.483
141.717
174.052
258.719
538.465
1672.74
271.947
268.604
263.939
258.017
250.942
242.849
233.887
224.214
213.982
203.335
192.401
181.29
170.095
158.893
147.743
136.693
125.782
115.038
104.483
94.1327
84.0004
74.0944
64.4205
54.9821
45.7804
36.8147
28.0827
19.5809
11.3044
3.24744
-4.59637
-12.234
-19.6728
-26.9199
-33.9821
-40.8657
-47.5761
-54.1177
-60.494
-66.7075
-72.7605
-78.6549
-84.393
-89.9779
-95.4138
-100.706
-105.861
-110.887
-115.791
-120.58
-125.262
-129.842
-134.323
-138.704
-142.986
-147.165
-151.236
-155.193
-159.033
-162.749
-166.338
-169.796
-173.118
-176.299
-179.332
-182.207
-184.908
-187.416
-189.706
-191.747
-193.505
-194.944
-196.022
-196.702
-196.947
-196.723
-196.004
-194.767
-192.997
-190.689
-187.844
-184.472
-180.592
-176.235
-171.442
-166.262
-160.758
-155.001
-149.069
-143.045
273.874
270.505
265.746
259.674
252.408
244.099
234.913
225.02
214.583
203.753
192.66
181.417
170.113
158.823
147.604
136.502
125.549
114.774
104.194
93.8266
83.6815
73.7669
64.088
54.6475
45.4464
36.4835
27.7563
19.2609
10.9923
2.94425
-4.88991
-12.5176
-19.9464
-27.1839
-34.2375
-41.1136
-47.8179
-54.3548
-60.7275
-66.9382
-72.9886
-78.8798
-84.6136
-90.1927
-95.6209
-100.904
-106.048
-111.063
-115.956
-120.736
-125.411
-129.986
-134.465
-138.849
-143.135
-147.32
-151.399
-155.364
-159.211
-162.933
-166.528
-169.991
-173.321
-176.512
-179.561
-182.456
-185.186
-187.73
-190.063
-192.154
-193.967
-195.461
-196.595
-197.328
-197.621
-197.437
-196.749
-195.533
-193.773
-191.462
-188.602
-185.201
-181.279
-176.864
-171.997
-166.728
-161.122
-155.252
-149.2
-143.055
277.832
274.404
269.442
263.049
255.377
246.613
236.958
226.61
215.754
204.552
193.142
181.634
170.117
158.657
147.306
136.1
125.069
114.233
103.609
93.2071
83.0377
73.1068
63.4184
53.9745
44.775
35.8182
27.1011
18.619
10.3665
2.33675
-5.47757
-13.0846
-20.4928
-27.7108
-34.7465
-41.6074
-48.2995
-54.8273
-61.1935
-67.3994
-73.4454
-79.3312
-85.0571
-90.6247
-96.0375
-101.301
-106.423
-111.414
-116.284
-121.043
-125.703
-130.269
-134.746
-139.134
-143.431
-147.631
-151.725
-155.707
-159.568
-163.302
-166.907
-170.38
-173.722
-176.932
-180.009
-182.945
-185.731
-188.348
-190.769
-192.962
-194.886
-196.497
-197.747
-198.589
-198.979
-198.878
-198.253
-197.08
-195.341
-193.027
-190.138
-186.681
-182.674
-178.144
-173.129
-167.681
-161.866
-155.763
-149.465
-143.069
284.046
280.508
275.197
268.262
259.917
250.411
240.002
228.935
217.426
205.656
193.768
181.871
170.043
158.342
146.804
135.456
124.316
113.397
102.709
92.2607
82.0576
72.1043
62.4034
52.9555
43.7597
34.8133
26.1122
17.6512
9.42385
1.42274
-6.3605
-13.9351
-21.3108
-28.4978
-35.5056
-42.3429
-49.0166
-55.5315
-61.8895
-68.0906
-74.1326
-80.0127
-85.7287
-91.2801
-96.6692
-101.902
-106.988
-111.939
-116.771
-121.496
-126.13
-130.68
-135.154
-139.552
-143.868
-148.093
-152.215
-156.223
-160.107
-163.859
-167.476
-170.959
-174.314
-177.545
-180.658
-183.652
-186.52
-189.247
-191.805
-194.157
-196.257
-198.052
-199.484
-200.499
-201.044
-201.073
-200.548
-199.442
-197.736
-195.419
-192.49
-188.953
-184.822
-180.12
-174.883
-169.161
-163.022
-156.557
-149.87
-143.078
292.893
289.16
283.287
275.505
266.128
255.51
243.997
231.9
219.479
206.935
194.413
182.013
169.796
157.798
146.036
134.519
123.251
112.235
101.473
90.9682
80.7249
70.7452
61.0303
51.5797
42.391
33.4603
24.7825
16.3513
8.1594
0.198539
-7.54075
-15.0692
-22.3984
-29.5408
-36.5085
-43.3126
-49.9615
-56.4606
-62.8111
-69.0104
-75.0526
-80.9305
-86.6373
-92.1692
-97.5265
-102.715
-107.747
-112.638
-117.41
-122.083
-126.676
-131.204
-135.674
-140.088
-144.435
-148.702
-152.87
-156.92
-160.836
-164.609
-168.237
-171.724
-175.083
-178.33
-181.479
-184.54
-187.514
-190.388
-193.136
-195.715
-198.067
-200.127
-201.824
-203.087
-203.851
-204.063
-203.679
-202.667
-201.009
-198.693
-195.716
-192.08
-187.792
-182.868
-177.335
-171.238
-164.65
-157.669
-150.424
-143.062
304.962
300.89
294.125
285.041
274.126
261.897
248.833
235.335
221.714
208.186
194.889
181.897
169.241
156.92
144.923
133.233
121.833
110.715
99.8729
89.3075
79.0198
69.0116
59.2832
49.8327
40.6563
31.7484
23.1024
14.711
6.56607
-1.34132
-9.02169
-16.4874
-23.7528
-30.8335
-37.7457
-44.5043
-51.1211
-57.6029
-63.9501
-70.1561
-76.2091
-82.0945
-87.7982
-93.3101
-98.6269
-103.755
-108.708
-113.511
-118.193
-122.785
-127.316
-131.81
-136.277
-140.719
-145.12
-149.456
-153.696
-157.81
-161.773
-165.57
-169.2
-172.673
-176.015
-179.255
-182.426
-185.553
-188.65
-191.712
-194.712
-197.599
-200.299
-202.726
-204.787
-206.391
-207.455
-207.912
-207.712
-206.824
-205.228
-202.918
-199.89
-196.144
-191.678
-186.492
-180.597
-174.025
-166.841
-159.161
-151.145
-142.992
321.16
316.494
308.297
297.21
284.016
269.488
254.295
238.952
223.819
209.111
194.933
181.308
168.21
155.586
143.379
131.536
120.019
108.805
97.8842
87.255
76.9202
66.8825
57.1424
47.6971
38.5405
29.6644
21.0604
12.7198
4.63436
-3.20488
-10.8089
-18.1918
-25.371
-32.3672
-39.2027
-45.8991
-52.4743
-58.9387
-65.2919
-71.5219
-77.6071
-83.5205
-89.2357
-94.7323
-100.001
-105.045
-109.887
-114.559
-119.106
-123.575
-128.012
-132.453
-136.919
-141.409
-145.899
-150.348
-154.704
-158.918
-162.949
-166.772
-170.387
-173.814
-177.094
-180.282
-183.436
-186.609
-189.836
-193.126
-196.452
-199.75
-202.923
-205.852
-208.409
-210.472
-211.932
-212.706
-212.738
-211.998
-210.477
-208.175
-205.098
-201.244
-196.598
-191.137
-184.835
-177.689
-169.747
-161.134
-152.065
-142.82
342.908
337.174
326.625
312.411
295.824
278.037
259.973
242.272
225.316
209.28
194.189
179.97
166.506
153.664
141.321
129.381
117.779
106.484
95.4853
84.7882
74.4015
64.3329
54.5846
45.1525
36.0264
27.1941
18.6435
10.3651
2.35168
-5.40412
-12.9121
-20.1872
-27.2509
-34.1308
-40.8588
-47.4677
-53.9867
-60.4343
-66.811
-73.0964
-79.2526
-85.2324
-90.9887
-96.4838
-101.697
-106.63
-111.31
-115.788
-120.131
-124.412
-128.702
-133.063
-137.528
-142.1
-146.738
-151.372
-155.918
-160.291
-164.424
-168.277
-171.845
-175.165
-178.305
-181.357
-184.42
-187.587
-190.931
-194.487
-198.232
-202.081
-205.898
-209.512
-212.743
-215.42
-217.396
-218.568
-218.873
-218.296
-216.847
-214.549
-211.426
-207.482
-202.692
-196.992
-190.288
-182.499
-173.617
-163.765
-153.237
-142.467
372.508
364.779
350.226
331.025
309.359
286.987
265.131
244.52
225.494
208.099
192.197
177.557
163.919
151.035
138.695
126.75
115.111
103.747
92.6636
81.8845
71.4342
61.3306
51.5796
42.1739
33.0956
24.3232
15.8391
7.63303
-0.298686
-7.95744
-15.3482
-22.4851
-29.3941
-36.1122
-42.6854
-49.1652
-55.6018
-62.0318
-68.4617
-74.8574
-81.1528
-87.2667
-93.1188
-98.6424
-103.797
-108.579
-113.026
-117.215
-121.247
-125.235
-129.293
-133.521
-137.986
-142.695
-147.583
-152.526
-157.382
-162.012
-166.303
-170.19
-173.662
-176.776
-179.645
-182.417
-185.253
-188.31
-191.723
-195.576
-199.861
-204.459
-209.164
-213.724
-217.876
-221.375
-224.02
-225.675
-226.28
-225.85
-224.438
-222.112
-218.933
-214.936
-210.096
-204.292
-197.302
-188.883
-178.883
-167.368
-154.759
-141.787
413.903
402.203
380.512
353.183
323.911
295.199
268.499
244.493
223.33
204.775
188.398
173.714
160.26
147.634
135.517
123.692
112.059
100.617
89.4155
78.5177
67.9772
57.8291
48.0847
38.7306
29.7302
21.0423
12.6388
4.5095
-3.33906
-10.8942
-18.1478
-25.1097
-31.811
-38.3014
-44.6459
-50.9245
-57.2262
-63.6296
-70.1623
-76.7633
-83.315
-89.679
-95.7227
-101.333
-106.436
-111.011
-115.114
-118.867
-122.427
-125.96
-129.641
-133.64
-138.092
-143.036
-148.347
-153.807
-159.172
-164.219
-168.767
-172.7
-175.995
-178.741
-181.126
-183.385
-185.767
-188.52
-191.883
-196.042
-201.038
-206.682
-212.639
-218.522
-223.947
-228.56
-232.071
-234.291
-235.178
-234.816
-233.344
-230.902
-227.619
-223.604
-218.886
-213.298
-206.372
-197.544
-186.331
-172.545
-156.802
-140.487
474.353
454.004
418.909
378.132
337.651
300.519
267.997
240.381
217.42
198.328
182.176
168.114
155.425
143.517
131.933
120.373
108.747
97.1552
85.7417
74.647
63.9646
53.7546
44.0349
34.7842
25.9202
17.3564
9.04719
0.984891
-6.79939
-14.2632
-21.3659
-28.1083
-34.5309
-40.7003
-46.7012
-52.6508
-58.7044
-65.042
-71.765
-78.741
-85.7484
-92.5537
-98.9517
-104.758
-109.835
-114.123
-117.707
-120.801
-123.645
-126.474
-129.533
-133.106
-137.493
-142.848
-148.898
-155.226
-161.422
-167.146
-172.115
-176.131
-179.119
-181.225
-182.788
-184.177
-185.746
-187.851
-190.897
-195.304
-201.283
-208.453
-216.222
-223.98
-231.187
-237.332
-241.98
-244.826
-245.872
-245.381
-243.646
-240.901
-237.36
-233.28
-228.93
-224.231
-218.18
-209.638
-197.483
-180.538
-159.667
-137.911
568.572
527.025
465.483
402.647
346.564
299.197
260.431
229.574
205.95
187.66
172.961
160.556
149.483
138.954
128.335
117.168
105.405
93.4524
81.624
70.1964
59.2837
48.9846
39.3182
30.2883
21.6838
13.3087
5.10389
-2.93706
-10.7189
-18.1507
-25.1015
-31.5669
-37.6149
-43.3417
-48.8309
-54.2277
-59.7747
-65.9
-73.0049
-80.6746
-88.4744
-96.0163
-103.035
-109.233
-114.373
-118.251
-121.007
-123.096
-124.887
-126.658
-128.685
-131.399
-135.504
-141.659
-149.048
-156.836
-164.352
-171.162
-176.837
-181.043
-183.514
-184.493
-184.701
-184.711
-184.953
-185.828
-187.951
-192.303
-199.811
-209.363
-219.818
-230.233
-239.955
-248.259
-254.482
-257.954
-258.778
-257.738
-255.4
-252.045
-247.877
-243.342
-239.475
-237.111
-233.57
-226.936
-215.529
-194.186
-163.805
-132.415
730.012
628.818
513.909
417.439
342.928
285.498
241.486
208.363
186.814
171.839
160.462
151.102
142.779
134.543
125.548
114.84
102.357
89.5866
76.9431
65.0164
53.7292
43.3116
33.6921
25.1856
17.1218
9.01973
0.927522
-7.22994
-15.1407
-22.7301
-29.5356
-35.6263
-41.1618
-46.3257
-51.0942
-55.5891
-60.0132
-65.3485
-73.4328
-82.4223
-91.5735
-100.235
-108.301
-115.232
-120.732
-123.997
-125.27
-125.822
-126.157
-126.475
-126.85
-127.692
-130.562
-138.696
-148.627
-158.837
-168.3
-176.812
-183.678
-188.452
-190.06
-188.87
-186.901
-184.909
-183.248
-182.01
-181.795
-184.758
-195.394
-208.975
-223.47
-237.482
-250.763
-262.183
-270.944
-274.893
-274.366
-271.965
-268.617
-264.36
-258.918
-252.444
-247.853
-251.684
-253.414
-251.107
-247.881
-220.847
-169.393
-119.551
1044.69
750.331
535.767
400.601
314.696
252.482
206.87
170.499
158.228
150.858
145.085
140.18
135.978
131.256
125.255
115.094
99.7473
85.5583
71.2473
58.93
46.9342
36.4986
26.4707
19.4511
12.6192
4.71996
-3.15245
-11.8765
-20.0244
-28.4381
-34.9994
-40.4858
-45.2448
-49.88
-53.7529
-57.0541
-58.9413
-60.8398
-72.5591
-83.9392
-95.3801
-105.313
-115.203
-123.297
-130.31
-132.612
-130.575
-128.86
-127.456
-126.213
-124.343
-121.067
-118.042
-133.146
-147.803
-161.917
-173.621
-184.832
-193.531
-200.422
-200.635
-194.369
-189.136
-184.632
-180.936
-176.717
-171.063
-166.162
-186.736
-207.269
-227.82
-245.781
-264.252
-279.934
-294.336
-298.275
-292.652
-287.553
-283.14
-278.382
-271.444
-258.831
-244.104
-269.281
-279.07
-276.6
-314.516
-282.671
-172.659
-86.732
1758.12
756.915
443.277
312.822
252.356
195.567
158.961
97.9487
122.603
127.603
128.486
128.279
129.958
129.846
130.989
122.844
95.4971
81.7274
62.6975
52.3941
37.9029
29.1063
14.9234
13.4507
9.65722
0.383999
-6.00461
-17.3518
-24.5256
-36.8139
-42.0123
-46.3943
-49.5077
-54.534
-57.2367
-60.5569
-57.8549
-42.1909
-72.1759
-85.3707
-101.362
-110.454
-124.693
-132.924
-146.674
-147.479
-135.419
-131.455
-128.522
-126.858
-123.861
-114.081
-79.4188
-128.239
-147.76
-168.471
-179.652
-196.469
-205.99
-222.009
-220.541
-198.382
-190.32
-183.191
-179.376
-173.491
-159.245
-110.883
-178.139
-205.537
-235.899
-253.346
-281.756
-299.527
-332.794
-335.428
-310.181
-302.153
-298.159
-295.54
-292.143
-268.259
-182.892
-309.033
-322.379
-243.935
-481.604
-457.052
-141.244
0.208323
-136.415
-129.296
-122.425
-115.91
-109.84
-104.278
-99.2644
-94.824
-90.9653
-87.6867
-84.9803
-82.8349
-81.2385
-80.1808
-79.654
-136.295
-129.048
-122.067
-115.466
-109.332
-103.728
-98.6911
-94.2419
-90.3847
-87.1141
-84.4189
-82.2854
-80.6995
-79.6496
-79.1268
-136.044
-128.533
-121.329
-114.553
-108.294
-102.609
-97.5302
-93.0674
-89.2169
-85.9656
-83.2956
-81.1877
-79.6243
-78.5907
-78.0765
-135.634
-127.71
-120.162
-113.123
-106.681
-100.885
-95.7524
-91.2801
-87.4496
-84.2355
-81.6096
-79.5453
-78.0189
-77.0119
-76.5117
-135.017
-126.509
-118.487
-111.097
-104.422
-98.4956
-93.3142
-88.8505
-85.0656
-81.9166
-79.3619
-77.3644
-75.8936
-74.9261
-74.4463
-134.119
-124.821
-116.179
-108.354
-101.413
-95.3613
-90.1577
-85.7417
-82.0454
-79.0031
-76.5564
-74.6565
-73.2647
-72.3523
-71.9008
-132.819
-122.475
-113.055
-104.725
-97.5166
-91.378
-86.2133
-81.9128
-78.3707
-75.4935
-73.2039
-71.4402
-70.1558
-69.3173
-68.9033
-130.918
-119.204
-108.842
-99.9736
-92.5494
-86.4202
-81.4042
-77.3252
-74.0305
-71.3961
-69.3251
-67.7444
-66.6008
-65.8575
-65.4915
-128.078
-114.58
-103.134
-93.7776
-86.2868
-80.349
-75.6577
-71.9528
-69.0299
-66.735
-64.9555
-63.611
-62.6451
-62.0202
-61.7133
-123.686
-107.901
-95.3375
-85.7154
-78.4706
-73.0308
-68.9244
-65.7982
-63.4008
-61.558
-60.1508
-59.0987
-58.3482
-57.8647
-57.6278
-116.562
-98.0028
-84.5983
-75.2755
-68.849
-64.3789
-61.2104
-58.9144
-57.2169
-55.9453
-54.9906
-54.2844
-53.7838
-53.4624
-53.3052
-104.322
-82.9484
-69.777
-61.9388
-57.2707
-54.425
-52.6238
-51.4317
-50.6069
-50.0152
-49.5817
-49.2644
-49.04
-48.8957
-48.825
-81.9274
-59.6915
-49.6222
-45.4316
-43.8698
-43.4262
-43.4278
-43.5813
-43.7636
-43.9268
-44.0563
-44.1511
-44.2157
-44.2553
-44.2739
-38.5869
-24.2677
-23.5885
-26.2953
-29.3503
-31.9822
-34.0795
-35.7021
-36.9392
-37.872
-38.5652
-39.0679
-39.4163
-39.6355
-39.7412
48.4473
24.7961
5.83144
-6.81077
-15.2536
-21.0727
-25.2059
-28.2079
-30.4191
-32.0566
-33.2643
-34.1389
-34.746
-35.1289
-35.3141
87.3767
87.2532
86.9906
86.5546
85.8846
84.8787
83.3633
81.03
77.2886
70.8834
58.7105
31.4896
-44.8896
-320.882
-1555.93
73.3821
72.94
72.0121
70.5018
68.24
64.9439
60.1398
53.0073
42.0489
24.339
-6.30487
-63.9806
-182.279
-436.088
-912.903
59.6909
58.9607
57.4343
54.9675
51.3101
46.0526
38.5293
27.6376
11.4944
-13.2257
-52.5501
-117.355
-225.562
-396.417
-600.969
46.5035
45.5311
43.5065
40.257
35.4882
28.7316
19.2548
5.9114
-13.1066
-40.6501
-81.1002
-140.588
-225.338
-333.334
-431.068
33.9884
32.8294
30.4266
26.5988
21.044
13.2968
2.66299
-11.8764
-31.7895
-59.1135
-96.4302
-146.272
-208.966
-277.374
-329.025
22.2755
20.9889
18.3337
14.1376
8.1199
-0.135661
-11.2187
-25.9338
-45.3264
-70.6385
-103.063
-143.03
-188.621
-233.045
-262.843
11.4536
10.0964
7.30881
2.93925
-3.25207
-11.6066
-22.5802
-36.7442
-54.7523
-77.2235
-104.46
-135.879
-169.083
-198.868
-217.349
1.57216
0.195257
-2.61941
-6.99566
-13.1234
-21.2605
-31.7278
-44.8866
-61.0788
-80.4981
-102.952
-127.487
-151.915
-172.539
-184.685
-7.35502
-8.70927
-11.4649
-15.7157
-21.6006
-29.2974
-39.0076
-50.9237
-65.1646
-81.6641
-99.9991
-119.167
-137.385
-152.093
-160.452
-15.3434
-16.6422
-19.2734
-23.3022
-28.8206
-35.9369
-44.7565
-55.3471
-67.6821
-81.555
-96.4663
-111.507
-125.291
-136.055
-142.021
-22.4314
-23.6514
-26.1127
-29.8555
-34.9318
-41.3943
-49.276
-58.5596
-69.132
-80.7242
-92.843
-104.717
-115.293
-123.347
-127.731
-28.6734
-29.7997
-32.0633
-35.4836
-40.0812
-45.8666
-52.8223
-60.8773
-69.8739
-79.5274
-89.3892
-98.8264
-107.046
-113.186
-116.484
-34.1345
-35.1592
-37.2116
-40.295
-44.4065
-49.5268
-55.6054
-62.5413
-70.1594
-78.1858
-86.2295
-93.781
-100.242
-104.997
-107.525
-38.8849
-39.8059
-41.6448
-44.3933
-48.0319
-52.5219
-57.7934
-63.7317
-70.1612
-76.8317
-83.4111
-89.4922
-94.6215
-98.3527
-100.322
-42.9967
-43.8158
-45.4471
-47.874
-51.0666
-54.9745
-59.5186
-64.581
-69.9956
-75.5407
-80.9382
-85.8638
-89.9711
-92.9316
-94.4845
-46.5402
-47.2625
-48.6974
-50.8236
-53.605
-56.9858
-60.884
-65.1859
-69.7393
-74.3519
-78.7927
-82.8031
-86.1164
-88.4872
-89.7249
-49.5827
-50.215
-51.4682
-53.3187
-55.7277
-58.6378
-61.9694
-65.6159
-69.4419
-73.2821
-76.9458
-80.226
-82.9158
-84.829
-85.8241
-52.1867
-52.7366
-53.8247
-55.4263
-57.5026
-59.9975
-62.836
-65.9214
-69.1345
-72.3348
-75.3648
-78.0585
-80.2538
-81.808
-82.6138
-54.4091
-54.8849
-55.8249
-57.2048
-58.9869
-61.1188
-63.5314
-66.1383
-68.8359
-71.5055
-74.017
-76.2368
-78.0368
-79.3061
-79.9626
-56.3015
-56.7114
-57.5199
-58.7041
-60.2287
-62.0454
-64.0919
-66.2921
-68.5568
-70.7857
-72.8717
-74.7064
-76.188
-77.2294
-77.767
-57.9095
-58.2612
-58.9542
-59.9672
-61.2678
-62.8124
-64.5457
-66.4012
-68.3025
-70.1651
-71.9007
-73.4211
-74.6446
-75.5023
-75.9444
-59.2735
-59.5744
-60.1666
-61.0307
-62.1377
-63.4486
-64.9147
-66.4786
-68.0748
-69.6327
-71.079
-72.3416
-73.3549
-74.0637
-74.4285
-60.4287
-60.6854
-61.1902
-61.9258
-62.8662
-63.977
-65.216
-66.5334
-67.8738
-69.1778
-70.3846
-71.4352
-72.2764
-72.8637
-73.1657
-61.4058
-61.6244
-62.0538
-62.6788
-63.4764
-64.4166
-65.4627
-66.5722
-67.6981
-68.7903
-69.7985
-70.6742
-71.3739
-71.8618
-72.1124
-62.2314
-62.4171
-62.7818
-63.3119
-63.9876
-64.7827
-65.6655
-66.5998
-67.5456
-68.4611
-69.3043
-70.0353
-70.6185
-71.0245
-71.233
-62.928
-63.0856
-63.3949
-63.8442
-64.416
-65.0879
-65.8326
-66.6193
-67.4141
-68.182
-68.888
-69.4991
-69.9858
-70.3244
-70.4981
-63.5153
-63.6489
-63.911
-64.2913
-64.775
-65.3425
-65.9706
-66.6331
-67.3014
-67.9459
-68.5376
-69.049
-69.4559
-69.7388
-69.8837
-64.0099
-64.1231
-64.345
-64.6668
-65.0757
-65.555
-66.0848
-66.6429
-67.205
-67.7465
-68.2429
-68.6715
-69.0121
-69.2487
-69.37
-64.426
-64.5218
-64.7097
-64.982
-65.3276
-65.7325
-66.1795
-66.6498
-67.123
-67.5783
-67.9953
-68.3549
-68.6405
-68.8388
-68.9403
-64.7756
-64.8568
-65.0158
-65.2462
-65.5385
-65.8806
-66.258
-66.6547
-67.0535
-67.4367
-67.7874
-68.0896
-68.3295
-68.4959
-68.5811
-65.0689
-65.1376
-65.2724
-65.4675
-65.7149
-66.0042
-66.3232
-66.6582
-66.9947
-67.3178
-67.6132
-67.8676
-68.0694
-68.2094
-68.281
-65.3144
-65.3728
-65.4871
-65.6525
-65.8622
-66.1073
-66.3773
-66.6607
-66.9451
-67.218
-67.4674
-67.6821
-67.8523
-67.9703
-68.0306
-65.5195
-65.5691
-65.6662
-65.8068
-65.9849
-66.193
-66.4221
-66.6624
-66.9035
-67.1347
-67.3458
-67.5274
-67.6713
-67.7711
-67.8221
-65.6902
-65.7325
-65.8153
-65.9351
-66.0869
-66.2641
-66.4592
-66.6637
-66.8687
-67.0652
-67.2446
-67.3988
-67.5211
-67.6057
-67.6491
-65.8315
-65.8677
-65.9386
-66.0413
-66.1712
-66.3228
-66.4897
-66.6645
-66.8397
-67.0077
-67.1608
-67.2925
-67.3968
-67.4691
-67.506
-65.9477
-65.9789
-66.04
-66.1284
-66.2404
-66.371
-66.5147
-66.6651
-66.8159
-66.9603
-67.092
-67.2052
-67.2948
-67.3569
-67.3886
-66.0422
-66.0693
-66.1225
-66.1993
-66.2966
-66.4101
-66.5349
-66.6656
-66.7965
-66.9218
-67.0361
-67.1342
-67.2119
-67.2658
-67.2933
-66.1178
-66.1417
-66.1885
-66.2561
-66.3416
-66.4414
-66.5511
-66.6659
-66.7809
-66.8909
-66.9912
-67.0774
-67.1456
-67.1929
-67.217
-66.1769
-66.1983
-66.24
-66.3004
-66.3767
-66.4658
-66.5637
-66.6661
-66.7687
-66.8668
-66.9563
-67.0331
-67.0939
-67.136
-67.1575
-66.2212
-66.2406
-66.2786
-66.3336
-66.403
-66.484
-66.5731
-66.6663
-66.7595
-66.8487
-66.93
-66.9999
-67.0551
-67.0934
-67.1129
-66.2521
-66.2701
-66.3055
-66.3567
-66.4213
-66.4968
-66.5796
-66.6663
-66.7531
-66.8361
-66.9118
-66.9767
-67.0281
-67.0637
-67.0819
-66.2703
-66.2876
-66.3215
-66.3704
-66.4322
-66.5043
-66.5835
-66.6664
-66.7493
-66.8287
-66.901
-66.963
-67.0121
-67.0461
-67.0635
-66.2766
-66.2936
-66.3269
-66.3751
-66.4359
-66.5069
-66.5849
-66.6664
-66.748
-66.8261
-66.8972
-66.9583
-67.0066
-67.0401
-67.0572
-66.2711
-66.2884
-66.3221
-66.371
-66.4327
-66.5046
-66.5837
-66.6664
-66.7492
-66.8284
-66.9005
-66.9624
-67.0114
-67.0453
-67.0627
-66.2536
-66.2717
-66.3069
-66.3579
-66.4223
-66.4975
-66.58
-66.6664
-66.7528
-66.8355
-66.9108
-66.9755
-67.0267
-67.0621
-67.0802
-66.2237
-66.243
-66.2808
-66.3354
-66.4046
-66.4851
-66.5737
-66.6663
-66.759
-66.8478
-66.9286
-66.998
-67.0529
-67.0909
-67.1103
-66.1803
-66.2015
-66.243
-66.303
-66.3788
-66.4673
-66.5645
-66.6662
-66.768
-66.8655
-66.9542
-67.0305
-67.0908
-67.1325
-67.1539
-66.1222
-66.1459
-66.1924
-66.2595
-66.3444
-66.4434
-66.5522
-66.6661
-66.7801
-66.8892
-66.9886
-67.074
-67.1415
-67.1883
-67.2122
-66.0477
-66.0746
-66.1274
-66.2036
-66.3001
-66.4127
-66.5364
-66.6659
-66.7955
-66.9196
-67.0327
-67.1299
-67.2067
-67.26
-67.2872
-65.9545
-65.9855
-66.0461
-66.1338
-66.2448
-66.3742
-66.5165
-66.6656
-66.8148
-66.9576
-67.0879
-67.1998
-67.2883
-67.3497
-67.381
-65.8398
-65.8757
-65.9461
-66.0478
-66.1766
-66.3268
-66.4921
-66.6651
-66.8384
-67.0044
-67.1558
-67.2859
-67.3888
-67.4601
-67.4966
-65.7001
-65.7421
-65.8242
-65.9431
-66.0935
-66.269
-66.4622
-66.6645
-66.8672
-67.0614
-67.2385
-67.3907
-67.5113
-67.5948
-67.6375
-65.5314
-65.5806
-65.677
-65.8164
-65.993
-66.1991
-66.4259
-66.6636
-66.9018
-67.1301
-67.3385
-67.5176
-67.6594
-67.7577
-67.808
-65.3285
-65.3864
-65.4999
-65.664
-65.872
-66.1148
-66.3821
-66.6623
-66.9433
-67.2128
-67.4587
-67.6702
-67.8378
-67.9539
-68.0133
-65.0854
-65.1538
-65.2876
-65.4813
-65.7267
-66.0135
-66.3293
-66.6606
-66.9929
-67.3117
-67.6028
-67.8533
-68.0518
-68.1894
-68.2599
-64.795
-64.8757
-65.0338
-65.2627
-65.5529
-65.892
-66.2658
-66.658
-67.0518
-67.4298
-67.7751
-68.0724
-68.3081
-68.4716
-68.5552
-64.4486
-64.544
-64.7309
-65.0017
-65.345
-65.7466
-66.1894
-66.6545
-67.1217
-67.5704
-67.9808
-68.3342
-68.6146
-68.8091
-68.9086
-64.036
-64.1488
-64.3699
-64.6903
-65.0968
-65.5726
-66.0976
-66.6495
-67.2043
-67.7378
-68.2259
-68.6466
-68.9806
-69.2123
-69.331
-63.5451
-63.6785
-63.9401
-64.3192
-64.8006
-65.3644
-65.9871
-66.6424
-67.3019
-67.9365
-68.5178
-69.0192
-69.4175
-69.6941
-69.8357
-62.9617
-63.1194
-63.4287
-63.8772
-64.4471
-65.1153
-65.8541
-66.6324
-67.4167
-68.1722
-68.865
-69.4633
-69.9389
-70.2693
-70.4386
-62.269
-62.4553
-62.8207
-63.351
-64.0256
-64.8172
-65.6937
-66.6183
-67.5513
-68.4514
-69.2779
-69.9924
-70.561
-70.9563
-71.1589
-61.4471
-61.6669
-62.0983
-62.7249
-63.5227
-64.4604
-65.5
-66.5985
-67.7087
-68.7817
-69.7684
-70.6226
-71.3032
-71.7768
-72.0197
-60.4728
-60.7318
-61.2405
-61.9801
-62.923
-64.0327
-65.2654
-66.5704
-67.892
-69.1717
-70.3508
-71.3733
-72.1891
-72.7574
-73.049
-59.3189
-59.6237
-60.2226
-61.0944
-62.2074
-63.5199
-64.9807
-66.5308
-68.1043
-69.6315
-71.0418
-72.2672
-73.2466
-73.9297
-74.2806
-57.9536
-58.3116
-59.0155
-60.0415
-61.3535
-62.9041
-64.6342
-66.4749
-68.3486
-70.1724
-71.861
-73.3317
-74.5096
-75.3324
-75.7554
-56.3402
-56.7595
-57.5851
-58.7901
-60.3343
-62.1638
-64.211
-66.396
-68.6276
-70.8069
-72.8312
-74.5994
-76.0189
-77.0123
-77.5237
-54.4359
-54.9259
-55.8915
-57.3035
-59.1173
-61.2724
-63.6923
-66.2847
-68.9429
-71.549
-73.9789
-76.1088
-77.8238
-79.0265
-79.6465
-52.1919
-52.7626
-53.8885
-55.5383
-57.6635
-60.1974
-63.054
-66.1277
-69.2942
-72.4132
-75.3346
-77.906
-79.9838
-81.4449
-82.1994
-49.5522
-50.2142
-51.5222
-53.4434
-55.9263
-58.8986
-62.2651
-65.9064
-69.6782
-73.4145
-76.9331
-80.0456
-82.5713
-84.3534
-85.2755
-46.4536
-47.218
-48.7309
-50.9591
-53.8496
-57.3262
-61.2857
-65.5944
-70.0868
-74.5666
-78.813
-82.5921
-85.6746
-87.8583
-88.9911
-42.8249
-43.7028
-45.4436
-48.0155
-51.3665
-55.419
-60.064
-65.155
-70.504
-75.8805
-81.0169
-85.6215
-89.4013
-92.0921
-93.4923
-38.5878
-39.5894
-41.58
-44.5318
-48.397
-53.1009
-58.5327
-64.5364
-70.9018
-77.3608
-83.5895
-89.2229
-93.8832
-97.2211
-98.9647
-33.6563
-34.7904
-37.05
-40.4146
-44.8459
-50.2779
-56.6048
-63.6666
-71.2346
-79.0005
-86.5747
-93.4992
-99.2823
-103.456
-105.647
-27.9386
-29.2112
-31.7538
-35.5579
-40.6008
-46.8341
-54.1669
-62.4453
-71.4296
-80.7729
-90.0102
-98.5668
-105.798
-111.066
-113.848
-21.339
-22.7517
-25.5833
-29.8422
-35.5301
-42.6275
-51.0728
-60.7342
-71.375
-82.6181
-93.9175
-104.554
-113.675
-120.4
-123.98
-13.7603
-15.3087
-18.4233
-23.1358
-29.482
-37.486
-47.135
-58.3429
-70.9019
-84.4237
-98.2841
-111.591
-123.214
-131.915
-136.597
-5.10866
-6.78025
-10.1559
-15.2968
-22.2842
-31.2033
-42.1153
-55.0138
-69.7598
-85.9933
-103.034
-119.795
-134.778
-146.22
-152.461
4.70111
2.92894
-0.665033
-6.1777
-13.7469
-23.538
-35.7169
-50.4023
-67.5844
-87.0018
-107.976
-129.233
-148.8
-164.134
-172.655
15.7384
13.9002
10.1554
4.36701
-3.6689
-14.2162
-27.5792
-44.0575
-63.8566
-86.9283
-112.719
-139.841
-165.757
-186.777
-198.761
28.0487
26.1921
22.3918
16.4695
8.15056
-2.94128
-17.2796
-35.4074
-57.8562
-84.9653
-116.538
-151.282
-186.11
-215.689
-233.184
41.6442
39.8299
36.0978
30.2328
21.8926
10.5856
-4.35045
-23.7579
-48.6197
-79.9021
-118.151
-162.663
-210.103
-252.986
-279.75
56.4948
54.7949
51.2807
45.7111
37.6911
26.6297
11.6814
-8.32249
-34.9252
-70.0001
-115.415
-172.005
-237.255
-301.468
-344.893
72.5208
71.0146
67.8861
62.8864
55.5974
45.3692
31.2208
11.6931
-15.3487
-52.9178
-104.915
-175.328
-265.12
-364.377
-440.181
89.5867
88.355
85.7853
81.6461
75.5399
66.8265
54.4918
36.9233
11.536
-25.8165
-81.6258
-165.19
-286.402
-443.56
-588.096
107.501
106.618
104.768
101.766
97.2869
90.793
81.3923
67.5787
46.7265
14.1002
-39.0613
-128.902
-282.713
-531.493
-836.361
126.022
125.546
124.544
122.904
120.427
116.771
111.351
103.116
90.0884
68.2742
28.9748
-48.1888
-213.062
-580.458
-1296.31
144.864
144.83
144.754
144.615
144.377
143.968
143.256
141.974
139.545
134.585
123.302
93.4348
-2.7654
-387.418
-2253.32
163.722
164.136
164.999
166.387
168.436
171.365
175.547
181.62
190.751
205.28
230.53
281.117
407.843
834.285
2743.13
182.282
183.12
184.869
187.692
191.872
197.883
206.515
219.129
238.199
268.52
320.149
415.913
610.296
1026.51
1816.2
200.25
201.46
203.983
208.042
214.026
222.569
234.704
252.144
277.822
316.948
379.105
482.202
658.678
959.322
1437.89
161.784
65.4752
27.0041
7.20071
-4.73676
-12.6175
-18.1085
-22.0632
-24.9678
-27.1198
-28.7103
-29.8657
-30.6702
-31.179
-31.4255
102.113
62.2909
33.2882
14.4759
2.00691
-6.59057
-12.7231
-17.2063
-20.5347
-23.0216
-24.8724
-26.2245
-27.1701
-27.7702
-28.0614
70.0952
51.5931
32.4956
17.3461
6.06199
-2.27536
-8.48302
-13.1511
-16.6858
-19.3652
-21.3808
-22.8653
-23.91
-24.5757
-24.8996
50.9259
41.3086
28.9612
17.5319
8.07069
0.560917
-5.31206
-9.88308
-13.4309
-16.1696
-18.2579
-19.8116
-20.913
-21.6184
-21.9626
38.4352
32.9198
24.789
16.3509
8.72421
2.26053
-3.0452
-7.32554
-10.7379
-13.4255
-15.5062
-17.072
-18.1911
-18.9117
-19.2646
29.7745
26.3473
20.8302
14.6063
8.57008
3.156
-1.49042
-5.37075
-8.54807
-11.1028
-13.1122
-14.6424
-15.7457
-16.4604
-16.8117
23.4938
21.2259
17.3621
12.7313
7.98387
3.51836
-0.467645
-3.90415
-6.79061
-9.15868
-11.0508
-12.5092
-13.5701
-14.2616
-14.6026
18.7878
17.2126
14.4267
10.9374
7.20184
3.5477
0.173538
-2.81949
-5.39314
-7.54507
-9.2907
-10.652
-11.651
-12.306
-12.6302
15.1758
14.04
11.9796
9.31438
6.36326
3.38261
0.550043
-2.02607
-4.2885
-6.21358
-7.79744
-9.0464
-9.97061
-10.5802
-10.8829
12.3525
11.5094
9.95256
7.88989
5.54517
3.11468
0.748454
-1.45048
-3.41812
-5.11902
-6.53673
-7.66629
-8.50873
-9.06743
-9.34579
10.1146
9.4743
8.27677
6.66123
4.78662
2.8021
0.830691
-1.03551
-2.73297
-4.22109
-5.47611
-6.48553
-7.24385
-7.74934
-8.00195
8.32138
7.82618
6.89123
5.61247
4.10439
2.48041
0.839865
-0.737731
-2.19317
-3.48504
-4.58602
-5.47913
-6.15451
-6.60683
-6.8335
6.87201
6.4834
5.74444
4.72292
3.50263
2.17021
0.805322
-0.524775
-1.76696
-2.88153
-3.84026
-4.62392
-5.22006
-5.621
-5.82243
5.69248
5.38389
4.79386
3.97138
2.97873
1.88256
0.746613
-0.37287
-1.42935
-2.38624
-3.21605
-3.89892
-4.42114
-4.7737
-4.95123
4.72722
4.4798
4.00468
3.338
2.52672
1.62251
0.676471
-0.264718
-1.1609
-1.9792
-2.69387
-3.28548
-3.74002
-4.04793
-4.20329
3.93378
3.73381
3.34852
2.80503