/*--------------------------------*- C++ -*----------------------------------*\
| =========                 |                                                 |
| \\      /  F ield         | OpenFOAM: The Open Source CFD Toolbox           |
|  \\    /   O peration     | Version:  5.x                                   |
|   \\  /    A nd           | Web:      www.OpenFOAM.org                      |
|    \\/     M anipulation  |                                                 |
\*---------------------------------------------------------------------------*/
FoamFile
{
    version     2.0;
    format      ascii;
    class       volScalarField;
    location    "2.6001";
    object      gradTy;
}
// * * * * * * * * * * * * * * * * * * * * * * * * * * * * * * * * * * * * * //

dimensions      [0 -1 0 1 0 0 0];

internalField   nonuniform List<scalar> 
2048
(
-27.5094
-27.4756
-27.4089
-27.3115
-27.1859
-27.0356
-26.8641
-26.675
-26.4718
-26.2578
-26.0358
-25.8085
-25.5781
-25.3466
-25.1156
-24.8865
-24.6606
-24.4385
-24.2211
-24.0088
-23.8018
-23.6002
-23.4042
-23.2136
-23.0283
-22.8482
-22.6733
-22.5034
-22.3386
-22.1787
-22.0239
-21.8741
-21.7295
-21.5903
-21.4566
-21.3287
-21.2068
-21.091
-20.9817
-20.879
-20.7832
-20.6946
-20.6135
-20.5401
-20.4749
-20.4181
-20.3701
-20.3313
-20.3017
-20.2815
-20.2706
-20.2686
-20.275
-20.2891
-20.3097
-20.3355
-20.3649
-20.3962
-20.4276
-20.4571
-20.4831
-20.5041
-20.5188
-20.5263
-27.5368
-27.5021
-27.4339
-27.3341
-27.206
-27.0528
-26.8784
-26.6864
-26.4806
-26.2642
-26.0401
-25.811
-25.579
-25.3462
-25.114
-24.8841
-24.6573
-24.4348
-24.217
-24.0045
-23.7974
-23.5958
-23.3998
-23.2092
-23.024
-22.844
-22.6692
-22.4994
-22.3345
-22.1747
-22.0198
-21.8699
-21.7252
-21.5858
-21.452
-21.3239
-21.2017
-21.0858
-20.9763
-20.8734
-20.7774
-20.6886
-20.6072
-20.5335
-20.468
-20.4109
-20.3628
-20.3237
-20.2941
-20.274
-20.2633
-20.2617
-20.2688
-20.2838
-20.3054
-20.3325
-20.3634
-20.3962
-20.429
-20.4599
-20.4872
-20.5091
-20.5245
-20.5324
-27.5893
-27.5529
-27.4815
-27.3774
-27.244
-27.0853
-26.9052
-26.7079
-26.4971
-26.2762
-26.0481
-25.8155
-25.5806
-25.3452
-25.1109
-24.8792
-24.6511
-24.4276
-24.2091
-23.9962
-23.7889
-23.5874
-23.3915
-23.201
-23.016
-22.8362
-22.6614
-22.4917
-22.3269
-22.167
-22.012
-21.862
-21.717
-21.5773
-21.4431
-21.3147
-21.1922
-21.0759
-20.9661
-20.8628
-20.7664
-20.6771
-20.5952
-20.521
-20.4549
-20.3974
-20.3487
-20.3094
-20.2796
-20.2596
-20.2493
-20.2486
-20.2569
-20.2735
-20.2973
-20.3268
-20.3603
-20.396
-20.4317
-20.4654
-20.495
-20.5188
-20.5355
-20.5441
-27.6646
-27.6257
-27.5496
-27.439
-27.298
-27.1311
-26.9428
-26.7377
-26.5198
-26.2925
-26.0589
-25.8215
-25.5824
-25.3434
-25.1062
-24.8721
-24.6421
-24.4171
-24.1978
-23.9843
-23.7769
-23.5754
-23.3797
-23.1895
-23.0047
-22.8251
-22.6506
-22.481
-22.3162
-22.1563
-22.0011
-21.8508
-21.7055
-21.5654
-21.4307
-21.3018
-21.1788
-21.062
-20.9517
-20.8479
-20.751
-20.6611
-20.5784
-20.5035
-20.4366
-20.3782
-20.3289
-20.289
-20.259
-20.2391
-20.2294
-20.2298
-20.2398
-20.2587
-20.2854
-20.3184
-20.356
-20.3958
-20.4357
-20.4733
-20.5064
-20.533
-20.5517
-20.5612
-27.7611
-27.7189
-27.6364
-27.5172
-27.3661
-27.1884
-26.9895
-26.7744
-26.5474
-26.3122
-26.0717
-25.8283
-25.5841
-25.3407
-25.0998
-24.8626
-24.6303
-24.4036
-24.1832
-23.9692
-23.7617
-23.5603
-23.3649
-23.1751
-22.9906
-22.8113
-22.637
-22.4676
-22.3029
-22.143
-21.9876
-21.837
-21.6912
-21.5505
-21.4152
-21.2856
-21.162
-21.0447
-20.9337
-20.8294
-20.7318
-20.6411
-20.5575
-20.4815
-20.4135
-20.3541
-20.3038
-20.2632
-20.2328
-20.213
-20.2039
-20.2056
-20.2177
-20.2396
-20.2701
-20.3076
-20.3502
-20.3955
-20.4409
-20.4837
-20.5213
-20.5516
-20.5727
-20.5836
-27.8779
-27.8313
-27.7407
-27.6105
-27.4466
-27.2555
-27.0435
-26.8163
-26.5786
-26.334
-26.0855
-25.8353
-25.5851
-25.3367
-25.0914
-24.8507
-24.6157
-24.3871
-24.1655
-23.9511
-23.7435
-23.5424
-23.3475
-23.1581
-22.9741
-22.7952
-22.6212
-22.4521
-22.2875
-22.1275
-21.972
-21.821
-21.6746
-21.5332
-21.3971
-21.2667
-21.1424
-21.0243
-20.9128
-20.8077
-20.7094
-20.6178
-20.5331
-20.4559
-20.3866
-20.3258
-20.2743
-20.2327
-20.2017
-20.1818
-20.1733
-20.1765
-20.191
-20.2163
-20.2513
-20.2943
-20.3432
-20.3952
-20.4474
-20.4966
-20.5398
-20.5746
-20.5988
-20.6112
-28.0141
-27.9621
-27.8613
-27.7174
-27.5379
-27.3307
-27.1032
-26.862
-26.612
-26.3571
-26.0997
-25.8419
-25.5853
-25.3311
-25.0811
-24.8364
-24.5983
-24.3676
-24.1449
-23.93
-23.7226
-23.5221
-23.3278
-23.1391
-22.9557
-22.7772
-22.6036
-22.4347
-22.2704
-22.1104
-21.9547
-21.8032
-21.6561
-21.5138
-21.3767
-21.2454
-21.1202
-21.0014
-20.8892
-20.7835
-20.6844
-20.5917
-20.5059
-20.4272
-20.3562
-20.2938
-20.2407
-20.1978
-20.166
-20.1458
-20.138
-20.1426
-20.1597
-20.1889
-20.229
-20.2784
-20.3347
-20.3948
-20.4551
-20.512
-20.562
-20.602
-20.6299
-20.6442
-28.1694
-28.1107
-27.9974
-27.837
-27.6387
-27.4124
-27.167
-26.9099
-26.6465
-26.3803
-26.1136
-25.8478
-25.5842
-25.3239
-25.0685
-24.8194
-24.578
-24.3452
-24.1213
-23.9063
-23.6994
-23.4997
-23.3063
-23.1184
-22.9356
-22.7577
-22.5845
-22.4159
-22.2519
-22.092
-21.936
-21.784
-21.636
-21.4927
-21.3544
-21.222
-21.0959
-20.9764
-20.8635
-20.7572
-20.6572
-20.5636
-20.4763
-20.3959
-20.3231
-20.2586
-20.2036
-20.1591
-20.1261
-20.1055
-20.098
-20.1041
-20.124
-20.1573
-20.2032
-20.2599
-20.3247
-20.3942
-20.4641
-20.5301
-20.5879
-20.6341
-20.6662
-20.6826
-28.3439
-28.277
-28.1485
-27.968
-27.7474
-27.4989
-27.2332
-26.9586
-26.6807
-26.4027
-26.1264
-25.8524
-25.5816
-25.3149
-25.0538
-24.7999
-24.5549
-24.3198
-24.0949
-23.88
-23.674
-23.4755
-23.2833
-23.0964
-22.9143
-22.7368
-22.5641
-22.396
-22.2323
-22.0726
-21.9165
-21.7638
-21.6149
-21.4702
-21.3306
-21.1969
-21.0697
-20.9494
-20.836
-20.7292
-20.6285
-20.5338
-20.445
-20.3627
-20.2876
-20.2208
-20.1635
-20.117
-20.0826
-20.0612
-20.0538
-20.0612
-20.0838
-20.1216
-20.1738
-20.2386
-20.3131
-20.3934
-20.4744
-20.5509
-20.6178
-20.671
-20.7077
-20.7265
-28.5378
-28.4608
-28.3139
-28.1095
-27.8627
-27.5887
-27.3002
-27.0065
-26.7134
-26.4236
-26.1377
-25.8556
-25.5775
-25.304
-25.0367
-24.7776
-24.5287
-24.2913
-24.0657
-23.8513
-23.6466
-23.4498
-23.2591
-23.0733
-22.892
-22.715
-22.5427
-22.3751
-22.212
-22.0526
-21.8963
-21.743
-21.5929
-21.4466
-21.3053
-21.1701
-21.0419
-20.9209
-20.8071
-20.6999
-20.5986
-20.5028
-20.4125
-20.328
-20.2503
-20.1808
-20.1208
-20.0719
-20.0356
-20.013
-20.0055
-20.014
-20.0392
-20.0816
-20.1404
-20.2142
-20.2997
-20.3923
-20.4861
-20.5746
-20.6518
-20.7128
-20.7547
-20.776
-28.7515
-28.6624
-28.4933
-28.2605
-27.9831
-27.68
-27.3662
-27.0521
-26.7435
-26.442
-26.1471
-25.8572
-25.5718
-25.2913
-25.0174
-24.7526
-24.4995
-24.2597
-24.0336
-23.8202
-23.6175
-23.4229
-23.2341
-23.0496
-22.869
-22.6924
-22.5205
-22.3535
-22.1911
-22.0322
-21.876
-21.722
-21.5704
-21.4222
-21.2789
-21.142
-21.0126
-20.891
-20.7769
-20.6696
-20.568
-20.4712
-20.3792
-20.2923
-20.2117
-20.1389
-20.0758
-20.0241
-19.9855
-19.9615
-19.9534
-19.9626
-19.9903
-20.0371
-20.1031
-20.1866
-20.2842
-20.3908
-20.4992
-20.6015
-20.6902
-20.7599
-20.8073
-20.8311
-28.986
-28.8822
-28.6865
-28.4199
-28.1069
-27.7709
-27.4294
-27.094
-26.7699
-26.4575
-26.1543
-25.8572
-25.5647
-25.2769
-24.9958
-24.7247
-24.467
-24.2248
-23.9986
-23.7869
-23.587
-23.3953
-23.2087
-23.0257
-22.8457
-22.6693
-22.4976
-22.3314
-22.1699
-22.0119
-21.8558
-21.701
-21.5477
-21.3972
-21.2515
-21.1126
-20.9819
-20.8598
-20.7458
-20.6387
-20.537
-20.4394
-20.3456
-20.256
-20.172
-20.0956
-20.0289
-19.974
-19.9327
-19.9067
-19.8977
-19.9073
-19.937
-19.9882
-20.0614
-20.1553
-20.2664
-20.3887
-20.5137
-20.6317
-20.7334
-20.8123
-20.8654
-20.8919
-29.2423
-29.1206
-28.8931
-28.5866
-28.2325
-27.8595
-27.488
-27.1305
-26.7916
-26.4695
-26.1593
-25.8559
-25.5565
-25.2611
-24.9721
-24.6939
-24.4312
-24.1866
-23.9606
-23.7515
-23.5552
-23.3672
-23.1834
-23.0018
-22.8222
-22.6457
-22.4741
-22.3087
-22.1486
-21.9918
-21.8361
-21.6805
-21.5252
-21.3719
-21.2232
-21.082
-20.9499
-20.8274
-20.7139
-20.6076
-20.5061
-20.4078
-20.3121
-20.2195
-20.1317
-20.0511
-19.9804
-19.9218
-19.8774
-19.8491
-19.8387
-19.8481
-19.8794
-19.9346
-20.0151
-20.1201
-20.2459
-20.3858
-20.5298
-20.6656
-20.7817
-20.8704
-20.9292
-20.9581
-29.5218
-29.3785
-29.113
-28.7595
-28.3581
-27.9438
-27.5402
-27.1602
-26.8075
-26.4777
-26.1622
-25.8534
-25.5474
-25.2441
-24.9463
-24.6601
-24.3918
-24.1448
-23.9195
-23.7139
-23.5226
-23.3392
-23.1585
-22.9784
-22.7989
-22.6217
-22.4498
-22.2854
-22.1274
-21.9724
-21.8172
-21.6607
-21.503
-21.3463
-21.194
-21.0501
-20.9165
-20.7939
-20.6814
-20.5763
-20.4756
-20.3768
-20.2791
-20.1833
-20.0912
-20.0058
-19.9305
-19.8678
-19.82
-19.789
-19.7766
-19.7852
-19.8174
-19.8763
-19.9639
-20.0805
-20.2223
-20.3818
-20.5474
-20.7036
-20.8355
-20.9344
-20.9985
-21.0297
-29.8259
-29.6567
-29.346
-28.9373
-28.4815
-28.0218
-27.5841
-27.1816
-26.8169
-26.4818
-26.1633
-25.8503
-25.5381
-25.2265
-24.9187
-24.6231
-24.3487
-24.0992
-23.8752
-23.6742
-23.4893
-23.3117
-23.1346
-22.9559
-22.776
-22.5973
-22.4247
-22.2616
-22.1062
-21.9537
-21.7996
-21.642
-21.4817
-21.3206
-21.164
-21.0169
-20.8818
-20.7593
-20.6483
-20.5454
-20.446
-20.3468
-20.2471
-20.1477
-20.0506
-19.9599
-19.8795
-19.8124
-19.7607
-19.7266
-19.7119
-19.719
-19.7514
-19.813
-19.9075
-20.0361
-20.1952
-20.3765
-20.5666
-20.7461
-20.8954
-21.0045
-21.0734
-21.1061
-30.1566
-29.9561
-29.5919
-29.1184
-28.6004
-28.0912
-27.6178
-27.1932
-26.8189
-26.4817
-26.163
-25.8471
-25.529
-25.2088
-24.8893
-24.5828
-24.3016
-24.0495
-23.8273
-23.6326
-23.4557
-23.2852
-23.1121
-22.9346
-22.7538
-22.5726
-22.3985
-22.2369
-22.0853
-21.9363
-21.7834
-21.6249
-21.4613
-21.295
-21.133
-20.9824
-20.8456
-20.7235
-20.6149
-20.5149
-20.4175
-20.3183
-20.2164
-20.113
-20.0104
-19.9135
-19.8277
-19.7557
-19.6999
-19.6623
-19.6448
-19.6497
-19.6812
-19.7446
-19.8455
-19.9864
-20.164
-20.3692
-20.5875
-20.7939
-20.9622
-21.0811
-21.1534
-21.1869
-30.5162
-30.2777
-29.8507
-29.3013
-28.7123
-28.1499
-27.6395
-27.1934
-26.8128
-26.4777
-26.1621
-25.8445
-25.5208
-25.1916
-24.8585
-24.5388
-24.2503
-23.9956
-23.7757
-23.5888
-23.4222
-23.2604
-23.0916
-22.9149
-22.7327
-22.5475
-22.3707
-22.2112
-22.0646
-21.9205
-21.7692
-21.6095
-21.4425
-21.2696
-21.1009
-20.9463
-20.8078
-20.6863
-20.581
-20.4852
-20.3907
-20.2915
-20.1873
-20.0797
-19.9706
-19.8667
-19.775
-19.698
-19.6377
-19.5965
-19.5757
-19.5777
-19.6072
-19.6712
-19.7775
-19.9309
-20.1281
-20.3595
-20.6099
-20.8478
-21.0366
-21.1643
-21.2383
-21.2714
-30.907
-30.6224
-30.1224
-29.484
-28.8142
-28.1958
-27.6477
-27.1807
-26.7981
-26.47
-26.1615
-25.8433
-25.5141
-25.1759
-24.8263
-24.4906
-24.1946
-23.9371
-23.7197
-23.543
-23.3892
-23.2381
-23.0734
-22.8971
-22.713
-22.5218
-22.3406
-22.1842
-22.0445
-21.9068
-21.7572
-21.5963
-21.4256
-21.2445
-21.0674
-20.9087
-20.7684
-20.6475
-20.5467
-20.4564
-20.3661
-20.2669
-20.1602
-20.0482
-19.9315
-19.8195
-19.7218
-19.6395
-19.5745
-19.5295
-19.5051
-19.5034
-19.5296
-19.5927
-19.7032
-19.8693
-20.0871
-20.3464
-20.6339
-20.9089
-21.1199
-21.2544
-21.3276
-21.3587
-31.332
-30.9909
-30.4072
-29.6645
-28.9023
-28.2271
-27.6408
-27.1534
-26.7742
-26.4591
-26.1628
-25.844
-25.5092
-25.1629
-24.793
-24.4374
-24.1343
-23.874
-23.6589
-23.4951
-23.3571
-23.2191
-23.0582
-22.8816
-22.6955
-22.4954
-22.3075
-22.1552
-22.0248
-21.8957
-21.7479
-21.5854
-21.4113
-21.2198
-21.032
-20.8694
-20.7271
-20.6067
-20.5119
-20.429
-20.344
-20.2447
-20.1351
-20.0189
-19.8933
-19.7719
-19.6681
-19.5804
-19.5104
-19.4618
-19.4334
-19.4273
-19.4488
-19.5089
-19.6221
-19.8009
-20.0404
-20.3288
-20.659
-20.9789
-21.2132
-21.3516
-21.4207
-21.4478
-31.7947
-31.3833
-30.7057
-29.8404
-28.9724
-28.2424
-27.618
-27.1094
-26.7407
-26.4456
-26.1676
-25.8474
-25.5064
-25.1543
-24.7588
-24.3778
-24.0697
-23.8062
-23.5923
-23.445
-23.3265
-23.2048
-23.0462
-22.8683
-22.6811
-22.4682
-22.2699
-22.124
-22.0057
-21.8883
-21.7413
-21.5769
-21.4005
-21.1955
-20.994
-20.8285
-20.684
-20.5636
-20.4768
-20.4031
-20.3253
-20.2252
-20.1123
-19.9923
-19.856
-19.7233
-19.6141
-19.521
-19.4456
-19.3936
-19.3613
-19.3499
-19.365
-19.4201
-19.5337
-19.7255
-19.9877
-20.3051
-20.6847
-21.0598
-21.3182
-21.4559
-21.5165
-21.5375
-32.2991
-31.7989
-31.0195
-30.0091
-29.0187
-28.2411
-27.5786
-27.0463
-26.6976
-26.43
-26.1785
-25.8537
-25.5055
-25.1526
-24.7239
-24.3099
-24.0011
-23.7338
-23.5186
-23.3928
-23.2976
-23.1966
-23.0376
-22.8569
-22.6711
-22.44
-22.2261
-22.0899
-21.9873
-21.8856
-21.7377
-21.5705
-21.3945
-21.1717
-20.9523
-20.7862
-20.6392
-20.5173
-20.4412
-20.3789
-20.3107
-20.2084
-20.0916
-19.9694
-19.8198
-19.6734
-19.56
-19.4615
-19.38
-19.3254
-19.289
-19.2719
-19.2789
-19.3263
-19.4374
-19.6428
-19.9289
-20.2731
-20.7099
-21.1548
-21.4368
-21.5673
-21.6141
-21.6265
-32.8504
-32.2348
-31.3514
-30.1676
-29.0338
-28.2239
-27.5231
-26.9608
-26.6451
-26.413
-26.1989
-25.863
-25.5053
-25.1613
-24.6885
-24.2306
-23.9297
-23.6573
-23.4359
-23.3386
-23.2709
-23.1967
-23.0324
-22.8468
-22.6678
-22.4106
-22.1736
-22.0527
-21.9697
-21.8893
-21.7368
-21.5657
-21.3951
-21.1485
-20.9051
-20.7431
-20.5928
-20.4667
-20.4052
-20.3566
-20.3015
-20.1943
-20.0725
-19.9512
-19.7847
-19.6212
-19.5062
-19.4022
-19.3136
-19.2576
-19.2173
-19.1939
-19.1909
-19.2277
-19.3323
-19.5525
-19.8646
-20.2298
-20.733
-21.2679
-21.571
-21.6855
-21.7123
-21.7133
-33.4551
-32.6857
-31.7066
-30.3131
-29.0077
-28.1937
-27.4524
-26.8479
-26.5843
-26.3944
-26.2337
-25.8747
-25.5035
-25.1857
-24.6527
-24.135
-23.8578
-23.5778
-23.3412
-23.283
-23.2461
-23.2081
-23.0301
-22.8363
-22.6743
-22.38
-22.1088
-22.0124
-21.9524
-21.9019
-21.7384
-21.5611
-21.4052
-21.1258
-20.8498
-20.7004
-20.5454
-20.4102
-20.3691
-20.3361
-20.2992
-20.1827
-20.0541
-19.9394
-19.7508
-19.5651
-19.4533
-19.3435
-19.2461
-19.1908
-19.1465
-19.1168
-19.1017
-19.1249
-19.2173
-19.4546
-19.7964
-20.171
-20.7511
-21.4051
-21.723
-21.8095
-21.8094
-21.7964
-34.122
-33.1413
-32.0939
-30.442
-28.9263
-28.1562
-27.3689
-26.7009
-26.5177
-26.3733
-26.2897
-25.8873
-25.4957
-25.2337
-24.6167
-24.0161
-23.7892
-23.4967
-23.2301
-23.2274
-23.2225
-23.235
-23.0298
-22.8227
-22.6957
-22.348
-22.0267
-21.9696
-21.9349
-21.927
-21.7415
-21.5543
-21.429
-21.1038
-20.7823
-20.6602
-20.4977
-20.3454
-20.3337
-20.317
-20.3061
-20.1731
-20.0351
-19.9366
-19.718
-19.503
-19.4025
-19.2859
-19.1766
-19.1257
-19.0771
-19.0413
-19.012
-19.0185
-19.0905
-19.3488
-19.7273
-20.0911
-20.76
-21.575
-21.8951
-21.938
-21.9038
-21.8744
-34.863
-33.5845
-32.5276
-30.5511
-28.7702
-28.1219
-27.2764
-26.5094
-26.4497
-26.3468
-26.3766
-25.8983
-25.4747
-25.3168
-24.5805
-23.8632
-23.7304
-23.4163
-23.0962
-23.1743
-23.1982
-23.2836
-23.0298
-22.8014
-22.7393
-22.3147
-21.9205
-21.9263
-21.9153
-21.9695
-21.7447
-21.5413
-21.4726
-21.0824
-20.6969
-20.6258
-20.451
-20.2686
-20.3003
-20.298
-20.3255
-20.1644
-20.0127
-19.9465
-19.6863
-19.4315
-19.3555
-19.2301
-19.104
-19.0631
-19.0093
-18.9684
-18.9224
-18.9099
-18.9497
-19.235
-19.6626
-19.9828
-20.7533
-21.7893
-22.0888
-22.0692
-21.9936
-21.9459
-35.6945
-33.9877
-33.0305
-30.6365
-28.5125
-28.1076
-27.1803
-26.2584
-26.3886
-26.3088
-26.5084
-25.9036
-25.4293
-25.4516
-24.5442
-23.661
-23.6913
-23.34
-22.93
-23.1286
-23.1691
-23.3625
-23.0274
-22.7651
-22.8157
-22.2799
-21.7807
-21.8863
-21.8904
-22.0369
-21.7458
-21.5161
-21.5452
-21.0615
-20.5851
-20.6029
-20.4071
-20.1747
-20.2716
-20.2772
-20.3621
-20.1552
-19.9832
-19.9745
-19.6555
-19.3461
-19.3152
-19.1768
-19.0263
-19.0044
-18.9433
-18.8992
-18.8334
-18.8008
-18.7914
-19.1124
-19.6109
-19.8359
-20.7214
-22.0648
-22.3048
-22.2
-22.0768
-22.0097
-36.6397
-34.3082
-33.6373
-30.6946
-28.1152
-28.1394
-27.0877
-25.926
-26.3483
-26.2481
-26.705
-25.8973
-25.3426
-25.662
-24.5072
-23.3876
-23.6872
-23.2721
-22.7177
-23.0987
-23.1281
-23.4843
-23.0187
-22.7031
-22.9401
-22.2434
-21.5939
-21.8569
-21.8542
-22.1396
-21.7414
-21.4694
-21.6594
-21.0408
-20.4349
-20.5995
-20.3682
-20.0559
-20.2521
-20.2503
-20.4226
-20.1434
-19.9407
-20.0285
-19.6251
-19.24
-19.2861
-19.1269
-18.9408
-18.9518
-18.8786
-18.8348
-18.7454
-18.6944
-18.611
-18.9796
-19.5852
-19.6375
-20.6509
-22.4251
-22.5419
-22.3268
-22.1515
-22.0649
-37.731
-34.4824
-34.3996
-30.7208
-27.5265
-28.2556
-27.0078
-25.4812
-26.3514
-26.1457
-26.9942
-25.8712
-25.1897
-25.9813
-24.4691
-23.0124
-23.7404
-23.2182
-22.4397
-23.098
-23.0628
-23.6666
-22.9985
-22.5997
-23.1339
-22.2046
-21.3421
-21.8498
-21.7966
-22.2927
-21.7272
-21.3878
-21.8335
-21.02
-20.2295
-20.628
-20.3375
-19.9017
-20.2492
-20.2107
-20.5167
-20.1261
-19.8768
-20.1195
-19.5947
-19.104
-19.2746
-19.0812
-18.8432
-18.9081
-18.8144
-18.7769
-18.6582
-18.5952
-18.4022
-18.8335
-19.6048
-19.3706
-20.5226
-22.9025
-22.7955
-22.445
-22.2157
-22.1106
-39.0131
-34.4178
-35.3919
-30.7103
-26.6758
-28.5112
-26.9518
-24.8801
-26.4328
-25.9707
-27.4153
-25.8138
-24.9357
-26.4555
-24.4285
-22.4934
-23.8827
-23.1854
-22.0686
-23.148
-22.9537
-23.9342
-22.9594
-22.4324
-23.4264
-22.1627
-21.0007
-21.884
-21.7013
-22.5169
-21.697
-21.2524
-22.0923
-20.9985
-19.9459
-20.7056
-20.3187
-19.6967
-20.2746
-20.1478
-20.6578
-20.0991
-19.7797
-20.2627
-19.563
-18.9254
-19.2903
-19.0408
-18.7277
-18.8779
-18.749
-18.7275
-18.5707
-18.5096
-18.1566
-18.6688
-19.697
-19.0136
-20.3099
-23.5413
-23.0563
-22.5492
-22.268
-22.1465
-40.5477
-33.9836
-36.7199
-30.6567
-25.4686
-28.9827
-26.9324
-24.0622
-26.6451
-25.676
-28.0222
-25.7105
-24.5322
-27.1467
-24.3836
-21.7743
-24.1585
-23.1822
-21.5664
-23.2809
-22.7709
-24.3212
-22.8921
-22.1706
-23.8575
-22.1158
-20.5372
-21.9878
-21.5436
-22.841
-21.6431
-21.0368
-22.4693
-20.9751
-19.5532
-20.8565
-20.3166
-19.4203
-20.3459
-20.045
-20.8643
-20.0573
-19.6331
-20.479
-19.5286
-18.6874
-19.3464
-19.0065
-18.5862
-18.8676
-18.6792
-18.6892
-18.4806
-18.4473
-17.8637
-18.4767
-19.8997
-18.5392
-19.9768
-24.4016
-23.3076
-22.6337
-22.3072
-22.1727
-42.4182
-32.999
-38.5291
-30.5517
-23.7803
-29.7744
-26.9641
-22.9456
-27.0654
-25.1915
-28.8882
-25.5423
-23.914
-28.1374
-24.3312
-20.7803
-24.6281
-23.2183
-20.882
-23.544
-22.4701
-24.8739
-22.7844
-21.7728
-24.48
-22.061
-19.908
-22.203
-21.2862
-23.3038
-21.5552
-20.7058
-23.0094
-20.9484
-19.0105
-21.1137
-20.3364
-19.0442
-20.4892
-19.8783
-21.1615
-19.9939
-19.415
-20.796
-19.489
-18.3678
-19.4612
-18.9786
-18.4079
-18.8866
-18.6003
-18.6661
-18.3837
-18.4213
-17.51
-18.2434
-20.264
-17.9138
-19.4751
-25.5627
-23.5227
-22.6931
-22.3329
-22.1894
-44.7356
-31.2201
-41.0164
-30.3835
-21.4494
-31.0247
-27.0622
-21.4213
-27.8027
-24.4163
-30.1111
-25.285
-22.9947
-29.5352
-24.2667
-19.4145
-25.3716
-23.3047
-19.947
-24.0045
-21.9876
-25.6543
-22.6207
-21.1835
-25.3626
-21.9934
-19.0564
-22.5881
-20.8756
-23.9573
-21.4204
-20.2119
-23.7702
-20.9153
-18.2642
-21.5205
-20.3834
-18.5303
-20.7404
-19.6119
-21.5823
-19.8992
-19.0956
-21.2488
-19.4395
-17.9364
-19.6578
-18.9553
-18.1766
-18.9458
-18.5034
-18.6615
-18.2711
-18.4473
-17.0771
-17.9457
-20.8544
-17.093
-18.7384
-27.1256
-23.6577
-22.7201
-22.3417
-22.1938
)
;

boundaryField
{
    left
    {
        type            calculated;
        value           nonuniform List<scalar> 
32
(
-27.5094
-27.5368
-27.5893
-27.6646
-27.7611
-27.8779
-28.0141
-28.1694
-28.3439
-28.5378
-28.7515
-28.986
-29.2423
-29.5218
-29.8259
-30.1566
-30.5162
-30.907
-31.332
-31.7947
-32.2991
-32.8504
-33.4551
-34.122
-34.863
-35.6945
-36.6397
-37.731
-39.0131
-40.5477
-42.4182
-44.7356
)
;
    }
    right
    {
        type            calculated;
        value           nonuniform List<scalar> 
32
(
-20.5263
-20.5324
-20.5441
-20.5612
-20.5836
-20.6112
-20.6442
-20.6826
-20.7265
-20.776
-20.8311
-20.8919
-20.9581
-21.0297
-21.1061
-21.1869
-21.2714
-21.3587
-21.4478
-21.5375
-21.6265
-21.7133
-21.7964
-21.8744
-21.9459
-22.0097
-22.0649
-22.1106
-22.1465
-22.1727
-22.1894
-22.1938
)
;
    }
    interface
    {
        type            calculated;
        value           nonuniform List<scalar> 
64
(
-46.0218
-30.0971
-42.4577
-30.2819
-20.1006
-31.7842
-27.1299
-20.5417
-28.2665
-23.9413
-30.8258
-25.1307
-22.4475
-30.351
-24.2308
-18.625
-25.8233
-23.3619
-19.4071
-24.294
-21.6916
-26.1102
-22.5227
-20.8332
-25.8786
-21.9556
-18.567
-22.8317
-20.624
-24.339
-21.3393
-19.9176
-24.2139
-20.8967
-17.8325
-21.7673
-20.4144
-18.2333
-20.8981
-19.4485
-21.8282
-19.8426
-18.9061
-21.5139
-19.4114
-17.6883
-19.7797
-18.9443
-18.0454
-18.9868
-18.4488
-18.6643
-18.2093
-18.4753
-16.838
-17.777
-21.2149
-16.6275
-18.3015
-28.0214
-23.6982
-22.7241
-22.341
-22.1921
)
;
    }
    bottom
    {
        type            calculated;
        value           nonuniform List<scalar> 
64
(
-27.5023
-27.4687
-27.4024
-27.3055
-27.1807
-27.0311
-26.8604
-26.672
-26.4695
-26.2561
-26.0347
-25.8078
-25.5779
-25.3467
-25.116
-24.8872
-24.6614
-24.4395
-24.2222
-24.0099
-23.8029
-23.6014
-23.4053
-23.2147
-23.0294
-22.8493
-22.6744
-22.5045
-22.3396
-22.1798
-22.025
-21.8752
-21.7307
-21.5915
-21.4579
-21.33
-21.2081
-21.0924
-20.9831
-20.8805
-20.7848
-20.6962
-20.6151
-20.5418
-20.4767
-20.42
-20.3721
-20.3332
-20.3037
-20.2835
-20.2725
-20.2704
-20.2766
-20.2905
-20.3108
-20.3363
-20.3653
-20.3963
-20.4272
-20.4564
-20.4821
-20.5028
-20.5173
-20.5248
)
;
    }
    defaultFaces
    {
        type            empty;
    }
}


// ************************************************************************* //
