/*--------------------------------*- C++ -*----------------------------------*\
| =========                 |                                                 |
| \\      /  F ield         | OpenFOAM: The Open Source CFD Toolbox           |
|  \\    /   O peration     | Version:  5.x                                   |
|   \\  /    A nd           | Web:      www.OpenFOAM.org                      |
|    \\/     M anipulation  |                                                 |
\*---------------------------------------------------------------------------*/
FoamFile
{
    version     2.0;
    format      ascii;
    class       volScalarField;
    location    "2.6001";
    object      T;
}
// * * * * * * * * * * * * * * * * * * * * * * * * * * * * * * * * * * * * * //

dimensions      [0 0 0 1 0 0 0];

internalField   nonuniform List<scalar> 
2048
(
9.80242
9.80266
9.80313
9.80383
9.80473
9.8058
9.80703
9.80838
9.80984
9.81137
9.81296
9.81459
9.81624
9.8179
9.81956
9.8212
9.82283
9.82442
9.82598
9.82751
9.82899
9.83044
9.83185
9.83322
9.83455
9.83584
9.8371
9.83832
9.83951
9.84065
9.84177
9.84284
9.84388
9.84488
9.84584
9.84676
9.84764
9.84847
9.84925
9.84999
9.85068
9.85131
9.8519
9.85242
9.85289
9.8533
9.85364
9.85392
9.85413
9.85428
9.85436
9.85437
9.85433
9.85423
9.85408
9.8539
9.85369
9.85347
9.85325
9.85304
9.85285
9.8527
9.8526
9.85254
9.41569
9.41641
9.41783
9.4199
9.42257
9.42577
9.42942
9.43344
9.43776
9.44231
9.44703
9.45186
9.45675
9.46167
9.46658
9.47145
9.47625
9.48097
9.48558
9.49009
9.49449
9.49877
9.50294
9.50698
9.51092
9.51474
9.51846
9.52207
9.52557
9.52896
9.53225
9.53543
9.5385
9.54146
9.5443
9.54702
9.54961
9.55207
9.55439
9.55657
9.5586
9.56049
9.56221
9.56377
9.56515
9.56636
9.56738
9.56821
9.56883
9.56926
9.56949
9.56954
9.5694
9.5691
9.56866
9.56811
9.56748
9.56681
9.56614
9.56551
9.56496
9.56451
9.5642
9.56404
9.04533
9.04653
9.04888
9.05231
9.05673
9.06202
9.06804
9.07467
9.08178
9.08926
9.09701
9.10494
9.11297
9.12103
9.12907
9.13704
9.14489
9.15261
9.16016
9.16753
9.17471
9.1817
9.18849
9.1951
9.20153
9.20777
9.21383
9.21972
9.22544
9.23098
9.23635
9.24155
9.24657
9.2514
9.25604
9.26048
9.26471
9.26873
9.27253
9.27609
9.27942
9.2825
9.28532
9.28787
9.29014
9.29212
9.29378
9.29514
9.29616
9.29686
9.29723
9.29729
9.29705
9.29654
9.2958
9.29487
9.29382
9.2927
9.29157
9.29051
9.28958
9.28883
9.2883
9.28803
8.69034
8.69202
8.69531
8.70012
8.7063
8.71367
8.72205
8.73125
8.74111
8.75147
8.76218
8.77313
8.7842
8.79531
8.80637
8.81733
8.82813
8.83872
8.84908
8.85919
8.86904
8.87862
8.88793
8.89699
8.90579
8.91434
8.92265
8.93072
8.93855
8.94615
8.95352
8.96064
8.96752
8.97415
8.98052
8.98662
8.99243
8.99794
9.00315
9.00805
9.01262
9.01685
9.02072
9.02423
9.02736
9.03008
9.03237
9.03423
9.03564
9.0366
9.0371
9.03716
9.03681
9.03607
9.03501
9.03368
9.03217
9.03057
9.02896
9.02745
9.02612
9.02504
9.02429
9.02391
8.34982
8.35199
8.35625
8.36247
8.37043
8.37991
8.39066
8.40244
8.41503
8.42823
8.44185
8.45575
8.46979
8.48385
8.49786
8.51171
8.52535
8.53871
8.55178
8.56451
8.57691
8.58896
8.60068
8.61207
8.62314
8.6339
8.64435
8.65451
8.66437
8.67393
8.6832
8.69218
8.70085
8.7092
8.71723
8.72491
8.73224
8.73919
8.74576
8.75193
8.7577
8.76304
8.76793
8.77237
8.77632
8.77977
8.78267
8.78503
8.78681
8.78801
8.78863
8.78867
8.78818
8.7872
8.78579
8.78403
8.78203
8.77991
8.77778
8.77578
8.77401
8.77259
8.7716
8.77109
8.02293
8.02562
8.0309
8.03857
8.04838
8.06001
8.07317
8.08755
8.10286
8.11887
8.13537
8.15216
8.1691
8.18606
8.20292
8.21958
8.23596
8.252
8.26766
8.28292
8.29775
8.31217
8.32619
8.3398
8.35304
8.3659
8.3784
8.39055
8.40234
8.41378
8.42488
8.43563
8.44601
8.45603
8.46565
8.47486
8.48364
8.49198
8.49985
8.50726
8.51417
8.52058
8.52647
8.53181
8.53656
8.54071
8.54422
8.54705
8.54919
8.55063
8.55135
8.55137
8.55072
8.54946
8.54767
8.54544
8.54291
8.54021
8.53752
8.53498
8.53274
8.53094
8.52968
8.52904
7.70892
7.71216
7.7185
7.72771
7.73944
7.7533
7.76893
7.78593
7.80398
7.82279
7.84213
7.86177
7.88156
7.90134
7.92098
7.94037
7.95941
7.97803
7.99619
8.01385
8.03102
8.0477
8.0639
8.07965
8.09495
8.10982
8.12427
8.13831
8.15195
8.1652
8.17805
8.19049
8.20253
8.21413
8.22529
8.23597
8.24615
8.25582
8.26495
8.27354
8.28157
8.28901
8.29586
8.30207
8.30761
8.31245
8.31655
8.31986
8.32235
8.32401
8.32482
8.32479
8.32397
8.3224
8.32019
8.31745
8.31433
8.31101
8.30768
8.30455
8.30179
8.29958
8.29803
8.29723
7.40707
7.4109
7.41839
7.42922
7.44297
7.45916
7.47732
7.49699
7.5178
7.53941
7.56156
7.58402
7.6066
7.62915
7.6515
7.67354
7.69516
7.71627
7.73682
7.7568
7.7762
7.79503
7.81331
7.83108
7.84835
7.86513
7.88145
7.89731
7.91271
7.92768
7.9422
7.95628
7.9699
7.98304
7.99567
8.00777
8.0193
8.03025
8.04059
8.05032
8.05942
8.06786
8.07563
8.0827
8.08902
8.09454
8.09921
8.10299
8.10583
8.10771
8.1086
8.10852
8.10749
8.10559
8.10292
8.09961
8.09584
8.09183
8.08781
8.08402
8.08069
8.07801
8.07614
8.07518
7.11673
7.1212
7.12993
7.1425
7.15839
7.17701
7.19779
7.22019
7.24378
7.26819
7.29312
7.31836
7.34369
7.36894
7.39395
7.41857
7.44268
7.4662
7.48906
7.51125
7.53277
7.55364
7.57391
7.5936
7.61275
7.63136
7.64945
7.66704
7.68413
7.70074
7.71686
7.73251
7.74765
7.76227
7.77633
7.7898
7.80263
7.81481
7.82632
7.83714
7.84727
7.85668
7.86536
7.87326
7.88034
7.88653
7.89178
7.89602
7.89921
7.9013
7.90227
7.90212
7.90088
7.89861
7.89543
7.8915
7.88702
7.88224
7.87745
7.87293
7.86896
7.86578
7.86355
7.86241
6.83728
6.84245
6.85252
6.86698
6.88515
6.90633
6.92983
6.95502
6.98141
7.00861
7.03631
7.06428
7.0923
7.12021
7.14781
7.17495
7.20149
7.22733
7.25241
7.2767
7.30024
7.32306
7.34521
7.36674
7.38767
7.40802
7.42781
7.44705
7.46574
7.48392
7.50158
7.51872
7.53534
7.55139
7.56683
7.58161
7.5957
7.60907
7.62169
7.63357
7.64469
7.65504
7.66459
7.67331
7.68114
7.688
7.69383
7.69854
7.70207
7.70438
7.70542
7.70519
7.70371
7.70106
7.69733
7.69272
7.68746
7.68183
7.67619
7.67086
7.66619
7.66244
7.65983
7.6585
6.56813
6.57408
6.58563
6.60212
6.62275
6.64664
6.67295
6.701
6.73022
6.7602
6.79063
6.82128
6.85196
6.88246
6.91261
6.94221
6.97111
6.99919
7.02639
7.0527
7.07815
7.10281
7.12675
7.15001
7.17264
7.19466
7.21606
7.23687
7.2571
7.27677
7.2959
7.31449
7.33252
7.34995
7.36673
7.38279
7.39809
7.4126
7.42629
7.43918
7.45125
7.46251
7.47292
7.48244
7.49101
7.49855
7.50495
7.51013
7.51402
7.51654
7.51765
7.51734
7.51561
7.51253
7.50823
7.50288
7.49675
7.4902
7.48361
7.47739
7.47194
7.46758
7.46455
7.46301
6.30875
6.31556
6.32873
6.34746
6.37073
6.39748
6.42673
6.45769
6.48976
6.52249
6.55562
6.58891
6.62218
6.65524
6.68788
6.71989
6.75108
6.78133
6.81056
6.83878
6.86604
6.89244
6.91807
6.94298
6.96723
6.99083
7.01378
7.03609
7.05777
7.07887
7.0994
7.11938
7.13878
7.15755
7.17562
7.19293
7.20939
7.225
7.23972
7.25357
7.26655
7.27868
7.28993
7.30025
7.30956
7.31776
7.32474
7.3304
7.33464
7.33739
7.33858
7.33818
7.3362
7.33268
7.32774
7.3216
7.31454
7.30696
7.29933
7.29212
7.28582
7.2808
7.27732
7.27554
6.0586
6.06637
6.08135
6.10253
6.12865
6.15844
6.19075
6.22469
6.2596
6.29507
6.33083
6.3667
6.40252
6.43809
6.47317
6.50754
6.54097
6.5733
6.60448
6.63451
6.66348
6.69151
6.71873
6.74521
6.77101
6.79612
6.82055
6.84428
6.86734
6.88979
6.91166
6.93298
6.9537
6.97378
6.99312
7.01162
7.02922
7.04587
7.06157
7.07634
7.0902
7.10317
7.11523
7.12633
7.13638
7.14525
7.15282
7.15897
7.16358
7.16656
7.16783
7.16735
7.1651
7.16113
7.15553
7.14853
7.14046
7.13176
7.12297
7.11469
7.10745
7.10171
7.09775
7.09573
5.81719
5.82604
5.84304
5.86691
5.89612
5.92914
5.96463
6.0016
6.03936
6.0775
6.11584
6.15423
6.19254
6.23056
6.26806
6.30474
6.34035
6.37471
6.40774
6.43948
6.47004
6.4996
6.52831
6.55628
6.58355
6.61012
6.63596
6.66104
6.68542
6.70915
6.7323
6.75489
6.7769
6.79825
6.81883
6.8385
6.85719
6.87485
6.89148
6.90712
6.92181
6.93559
6.94845
6.96032
6.9711
6.98066
6.98883
6.99548
7.00047
7.00369
7.00505
7.0045
7.00198
6.99754
6.99125
6.98334
6.97417
6.96425
6.9542
6.94471
6.93646
6.92995
6.92548
6.92322
5.58405
5.59412
5.61336
5.64022
5.67278
5.70922
5.74802
5.78806
5.82864
5.86941
5.91024
5.95108
5.99181
6.03225
6.07212
6.11109
6.14883
6.18514
6.21994
6.25328
6.28532
6.3163
6.34642
6.3758
6.40448
6.43245
6.45963
6.48601
6.51162
6.53656
6.56092
6.58475
6.60801
6.63061
6.65239
6.67321
6.69296
6.71158
6.72909
6.74554
6.76102
6.77558
6.78922
6.80186
6.81338
6.82363
6.83241
6.83956
6.84494
6.84842
6.84989
6.84927
6.8465
6.84158
6.83458
6.82571
6.81536
6.8041
6.79265
6.78186
6.77251
6.76517
6.76018
6.75767
5.35873
5.37018
5.39194
5.42209
5.4583
5.49837
5.54058
5.58374
5.6271
5.6704
5.71363
5.75683
5.79994
5.84275
5.88498
5.9262
5.96603
6.00422
6.0407
6.07552
6.10893
6.14122
6.17266
6.20338
6.23341
6.26273
6.29121
6.31881
6.34557
6.37165
6.39717
6.42219
6.44666
6.47049
6.49346
6.5154
6.53617
6.55571
6.57405
6.59127
6.60749
6.62279
6.63718
6.65058
6.66286
6.67381
6.68321
6.69089
6.69667
6.70042
6.70201
6.70134
6.69833
6.69294
6.6852
6.67532
6.66371
6.651
6.63803
6.62579
6.61524
6.60705
6.60153
6.59877
5.14078
5.1538
5.17838
5.21218
5.25235
5.29627
5.34202
5.3883
5.43438
5.48011
5.52562
5.57111
5.61652
5.66166
5.70623
5.7497
5.79157
5.83159
5.86965
5.90585
5.9405
5.97399
6.00665
6.03864
6.06998
6.10061
6.13035
6.1591
6.18694
6.21407
6.24069
6.26685
6.29251
6.31755
6.34171
6.36475
6.3865
6.40692
6.42603
6.44395
6.46087
6.47689
6.49202
6.50617
6.51921
6.53087
6.54092
6.54913
6.55533
6.55936
6.56108
6.56039
6.55716
6.55131
6.54282
6.53188
6.51893
6.50465
6.49001
6.47618
6.46436
6.45528
6.44922
6.44622
4.9298
4.94459
4.97234
5.0102
5.05468
5.10265
5.15203
5.20145
5.25017
5.29818
5.34585
5.39352
5.44117
5.48861
5.53551
5.58123
5.62511
5.66689
5.70645
5.74391
5.77966
5.81423
5.84804
5.88124
5.91384
5.94575
5.97673
6.00656
6.03539
6.06349
6.09114
6.1184
6.14522
6.17148
6.19683
6.22093
6.24365
6.2649
6.28472
6.30328
6.32083
6.33753
6.35339
6.3683
6.38211
6.39452
6.40521
6.41397
6.4206
6.42492
6.42681
6.42611
6.42269
6.41639
6.40716
6.39512
6.38074
6.36479
6.3483
6.33272
6.31953
6.30954
6.30298
6.29975
4.72536
4.74219
4.77349
4.81585
4.86502
4.91724
4.97035
5.02291
5.07413
5.12427
5.17393
5.22369
5.27353
5.32322
5.37248
5.42046
5.46631
5.50979
5.55078
5.58935
5.62607
5.66159
5.69647
5.73083
5.76465
5.79784
5.83002
5.86088
5.89059
5.91958
5.9482
5.97652
6.00448
6.03196
6.0585
6.08366
6.10731
6.12935
6.14981
6.16895
6.18708
6.20443
6.221
6.23666
6.25126
6.26443
6.27579
6.28511
6.29218
6.29681
6.29887
6.29819
6.29461
6.28791
6.27794
6.26477
6.24889
6.23113
6.21263
6.19511
6.18045
6.16957
6.16253
6.15911
4.52708
4.54625
4.5815
4.62888
4.68315
4.73979
4.7967
4.85239
4.90598
4.95804
5.00952
5.06129
5.11324
5.16513
5.21679
5.26708
5.31485
5.35997
5.40231
5.44187
5.4794
5.51574
5.55162
5.58709
5.62208
5.65657
5.68996
5.72175
5.75225
5.78202
5.81157
5.84091
5.86998
5.89869
5.92645
5.95265
5.97719
5.99999
6.02103
6.04066
6.05931
6.07728
6.09455
6.11095
6.12637
6.14034
6.15237
6.16225
6.16978
6.17473
6.17698
6.17636
6.17266
6.16559
6.1549
6.14057
6.12311
6.10345
6.08273
6.06305
6.04684
6.03508
6.02763
6.02405
4.33458
4.35645
4.39606
4.44905
4.50887
4.57006
4.63084
4.68965
4.7454
4.79917
4.85226
4.90595
4.95998
5.014
5.06812
5.12078
5.17042
5.21713
5.26075
5.30114
5.33932
5.37634
5.41317
5.44971
5.48583
5.52164
5.55626
5.5889
5.62008
5.6505
5.68094
5.71128
5.74141
5.7714
5.80042
5.82761
5.85303
5.87656
5.89809
5.91813
5.93722
5.9558
5.97376
5.99089
6.00717
6.02197
6.03467
6.04513
6.05313
6.0584
6.06085
6.06032
6.05655
6.04917
6.0378
6.02228
6.00317
5.98152
5.95836
5.93624
5.91841
5.90583
5.89804
5.89436
4.14747
4.1725
4.21689
4.27614
4.34203
4.4078
4.4725
4.53444
4.59213
4.64735
4.70179
4.75737
4.81342
4.86946
4.92615
4.98129
5.0327
5.08096
5.12583
5.16687
5.20552
5.24306
5.28081
5.3184
5.35557
5.39277
5.42867
5.46207
5.49378
5.52474
5.55603
5.58735
5.61848
5.64981
5.68015
5.70829
5.73457
5.7588
5.78073
5.8011
5.82055
5.83973
5.85836
5.8762
5.89338
5.90907
5.92243
5.93347
5.94195
5.94754
5.95022
5.9498
5.94602
5.93839
5.9264
5.90965
5.88883
5.86513
5.83928
5.81438
5.79486
5.78157
5.77356
5.76984
3.96537
3.99415
4.04368
4.10995
4.1825
4.25278
4.32144
4.38656
4.44588
4.50226
4.55775
4.61522
4.67327
4.73116
4.79059
4.84839
4.90141
4.95118
4.99729
5.03878
5.07772
5.11558
5.15425
5.19289
5.23101
5.26971
5.30699
5.341
5.37311
5.40444
5.43659
5.46886
5.5009
5.53366
5.56541
5.59443
5.62154
5.64648
5.66871
5.6893
5.70901
5.72879
5.74811
5.76661
5.78476
5.8014
5.81539
5.82702
5.83601
5.84191
5.84482
5.84454
5.84081
5.83301
5.82047
5.80247
5.77986
5.75411
5.72529
5.69717
5.67594
5.66207
5.65398
5.65029
3.78791
3.8212
3.8761
3.9503
4.0302
4.10473
4.17739
4.24582
4.30635
4.36361
4.41979
4.47923
4.53927
4.59873
4.66114
4.72184
4.77623
4.8275
4.87491
4.91658
4.95563
4.99358
5.03324
5.07292
5.11184
5.1522
5.19101
5.22544
5.2578
5.28931
5.32235
5.35557
5.38838
5.42271
5.45601
5.48577
5.51371
5.53939
5.56177
5.58249
5.60234
5.62277
5.64279
5.66186
5.68106
5.69874
5.7133
5.72553
5.73506
5.74124
5.74439
5.74429
5.74067
5.73279
5.71981
5.70051
5.67602
5.64829
5.61622
5.5843
5.56137
5.54714
5.53913
5.53554
3.6147
3.65353
3.71382
3.79704
3.88514
3.96335
4.04009
4.11207
4.17328
4.23115
4.28752
4.34912
4.41119
4.47178
4.53754
4.6015
4.65686
4.70964
4.75848
4.80001
4.839
4.87674
4.91752
4.95828
4.99772
5.03998
5.08056
5.11516
5.14763
5.17905
5.2131
5.24729
5.28063
5.31672
5.35177
5.38205
5.41083
5.43733
5.45968
5.48045
5.50027
5.52142
5.54216
5.56168
5.58206
5.60091
5.61594
5.62876
5.63888
5.6453
5.64871
5.6488
5.64536
5.6375
5.62421
5.60356
5.57707
5.54757
5.51189
5.47542
5.45089
5.43658
5.42883
5.42544
3.4453
3.49112
3.55641
3.65
3.74737
3.82829
3.90926
3.98521
4.04635
4.10462
4.16052
4.22465
4.28885
4.34988
4.41951
4.48725
4.54296
4.59731
4.64786
4.68878
4.7276
4.76472
4.80686
4.84878
4.88832
4.93284
4.97552
5.0099
5.04238
5.07336
5.10861
5.14382
5.17731
5.21547
5.25255
5.28302
5.31267
5.34014
5.36221
5.38296
5.40254
5.42455
5.44606
5.46579
5.48754
5.50772
5.52304
5.53649
5.54726
5.55385
5.55753
5.55783
5.55466
5.5469
5.53352
5.51142
5.48273
5.45185
5.41221
5.37014
5.34426
5.33022
5.32294
5.31982
3.27926
3.33409
3.40339
3.50906
3.61709
3.69914
3.78459
3.86521
3.92522
3.98384
4.03836
4.10563
4.17214
4.23255
4.30682
4.37906
4.43416
4.49024
4.54292
4.58259
4.62121
4.65714
4.70106
4.74428
4.78326
4.83055
4.8758
4.90942
4.94186
4.97191
5.00869
5.04503
5.07811
5.11874
5.15826
5.18838
5.219
5.24768
5.26913
5.28984
5.30887
5.33196
5.35432
5.37392
5.3973
5.41905
5.43437
5.44849
5.46002
5.46665
5.47063
5.47114
5.46832
5.46076
5.44756
5.42389
5.39272
5.3611
5.31711
5.26804
5.24125
5.22791
5.22132
5.21855
3.11605
3.18275
3.25412
3.3741
3.4946
3.57535
3.66576
3.75213
3.8095
3.86868
3.9205
3.99186
4.06104
4.11923
4.19922
4.27699
4.33004
4.38812
4.44363
4.48114
4.5197
4.55363
4.59995
4.6447
4.68213
4.73289
4.78139
4.81343
4.84593
4.87436
4.91317
4.95083
4.98263
5.02634
5.06885
5.09785
5.12958
5.15985
5.18017
5.20093
5.21897
5.24349
5.26681
5.28576
5.31113
5.33477
5.34967
5.36456
5.37699
5.38349
5.38782
5.38852
5.38615
5.37885
5.36621
5.3408
5.30668
5.27531
5.22657
5.16861
5.14166
5.12953
5.12383
5.12149
2.95505
3.03769
3.10778
3.24499
3.38041
3.45627
3.55243
3.64614
3.69871
3.75909
3.80635
3.88324
3.9556
4.00926
4.09648
4.18121
4.2301
4.29066
4.35
4.38405
4.42296
4.45373
4.50337
4.55001
4.58443
4.63968
4.69232
4.72161
4.75449
4.78031
4.82192
4.86118
4.89045
4.93806
4.98435
5.01107
5.04418
5.07659
5.09507
5.11611
5.13253
5.15896
5.18345
5.20099
5.22887
5.25482
5.26869
5.28447
5.29804
5.30412
5.3089
5.30974
5.30793
5.30091
5.28936
5.26199
5.22421
5.19456
5.14068
5.07123
5.04533
5.03499
5.03036
5.0285
2.7955
2.89982
2.96331
3.12166
3.27524
3.34103
3.44422
3.54756
3.59224
3.65518
3.6952
3.77967
3.85604
3.90182
3.99841
4.09204
4.13375
4.19754
4.26219
4.29088
4.33101
4.35693
4.41122
4.46029
4.4896
4.55072
4.60873
4.63356
4.66753
4.6893
4.73482
4.77612
4.80107
4.85373
4.90487
4.92766
4.96256
4.99792
5.01352
5.03531
5.04919
5.07827
5.10421
5.11922
5.15033
5.17918
5.19111
5.20804
5.22304
5.22831
5.2337
5.23458
5.23349
5.22669
5.21694
5.18733
5.14479
5.11898
5.05961
4.97517
4.95217
4.94419
4.9408
4.93945
2.63647
2.77051
2.81928
3.00401
3.18009
3.22851
3.34073
3.45691
3.4893
3.55723
3.58615
3.68113
3.76273
3.79594
3.90482
4.00998
4.04024
4.10844
4.18043
4.20107
4.24395
4.2626
4.32342
4.37571
4.39695
4.46584
4.53085
4.54879
4.58513
4.6008
4.6518
4.6958
4.71388
4.77318
4.83061
4.84715
4.88448
4.92392
4.93515
4.95854
4.96855
5.0013
5.02912
5.04004
5.07536
5.1079
5.11663
5.13507
5.15193
5.15582
5.16207
5.16283
5.16266
5.15591
5.14891
5.11674
5.06781
5.04879
4.98362
4.87951
4.86215
4.85709
4.85502
4.85422
2.47683
2.65167
2.67387
2.892
3.09632
3.11731
3.24154
3.37498
3.38885
3.46578
3.47814
3.58766
3.67623
3.69042
3.81552
3.93575
3.94868
4.02302
4.10516
4.11394
4.16208
4.17001
4.23995
4.29659
4.30565
4.38489
4.45903
4.46669
4.50751
4.51418
4.57279
4.62045
4.62817
4.69627
4.76192
4.76899
4.8097
4.85474
4.85953
4.88588
4.89015
4.92798
4.95826
4.96294
5.00383
5.04109
5.04485
5.06538
5.08466
5.08635
5.09388
5.09427
5.0953
5.08823
5.08529
5.05018
4.99251
4.98427
4.91317
4.78313
4.77537
4.77362
4.77293
4.77267
)
;

boundaryField
{
    left
    {
        type            zeroGradient;
    }
    right
    {
        type            zeroGradient;
    }
    interface
    {
        type            fixedValue;
        value           nonuniform List<scalar> 
64
(
2.39417
2.59762
2.59762
2.83762
3.06022
3.06022
3.19282
3.33808
3.33808
3.42278
3.42278
3.54253
3.63591
3.63591
3.772
3.9023
3.9023
3.98106
4.0703
4.0703
4.12312
4.12312
4.1995
4.25917
4.25917
4.34545
4.42568
4.42568
4.47046
4.47046
4.53447
4.58468
4.58468
4.65873
4.72989
4.72989
4.77304
4.82199
4.82199
4.85095
4.85095
4.89234
4.9243
4.9243
4.96897
5.00932
5.00932
5.03136
5.05225
5.05225
5.06075
5.06075
5.0626
5.05505
5.05505
5.01825
4.95441
4.95441
4.8803
4.73281
4.73281
4.73281
4.73281
4.73281
)
;
    }
    bottom
    {
        type            fixedValue;
        value           uniform 10;
    }
    defaultFaces
    {
        type            empty;
    }
}


// ************************************************************************* //
