/*--------------------------------*- C++ -*----------------------------------*\
| =========                 |                                                 |
| \\      /  F ield         | OpenFOAM: The Open Source CFD Toolbox           |
|  \\    /   O peration     | Version:  5.x                                   |
|   \\  /    A nd           | Web:      www.OpenFOAM.org                      |
|    \\/     M anipulation  |                                                 |
\*---------------------------------------------------------------------------*/
FoamFile
{
    version     2.0;
    format      ascii;
    class       volScalarField;
    location    "3.3999";
    object      gradTx;
}
// * * * * * * * * * * * * * * * * * * * * * * * * * * * * * * * * * * * * * //

dimensions      [0 -1 0 1 0 0 0];

internalField   nonuniform List<scalar> 
2048
(
0.0077343
0.0229667
0.0375127
0.0509857
0.0630922
0.0736466
0.0825695
0.0898731
0.0956383
0.0999901
0.103075
0.105044
0.106043
0.10621
0.105672
0.10455
0.10296
0.101011
0.098805
0.0964308
0.0939637
0.0914613
0.0889643
0.0864972
0.084072
0.0816907
0.0793487
0.0770364
0.0747401
0.0724429
0.0701252
0.0677661
0.0653455
0.0628464
0.060256
0.0575668
0.0547752
0.05188
0.0488795
0.0457697
0.0425427
0.0391872
0.0356904
0.0320408
0.0282325
0.0242688
0.0201658
0.0159553
0.0116863
0.00742587
0.00325897
-0.000713425
-0.00437749
-0.00761193
-0.0102955
-0.0123167
-0.0135844
-0.0140386
-0.0136597
-0.0124732
-0.0105515
-0.00800996
-0.00499993
-0.00169933
0.0230602
0.0684635
0.111785
0.151857
0.187801
0.219069
0.245437
0.266961
0.283901
0.296645
0.30564
0.31134
0.314181
0.314567
0.312876
0.309465
0.304674
0.298829
0.292233
0.285152
0.277811
0.27038
0.262977
0.255675
0.248503
0.241467
0.234552
0.227727
0.220953
0.214178
0.207343
0.200386
0.193244
0.185866
0.178215
0.170268
0.162016
0.153459
0.144592
0.135405
0.125874
0.115965
0.105637
0.0948531
0.083592
0.0718609
0.0597052
0.0472173
0.0345415
0.0218764
0.00947434
-0.00236325
-0.0132955
-0.0229577
-0.0309834
-0.0370339
-0.0408311
-0.0421905
-0.0410489
-0.0374815
-0.0317052
-0.0240668
-0.0150212
-0.0051047
0.0382583
0.113545
0.185267
0.251441
0.310593
0.361836
0.404846
0.439772
0.467105
0.487536
0.501838
0.510777
0.515073
0.515384
0.512321
0.506461
0.498364
0.488565
0.477568
0.465818
0.453686
0.441452
0.429306
0.417354
0.405641
0.394166
0.382899
0.37179
0.360772
0.34976
0.338654
0.327345
0.315729
0.303714
0.29124
0.278272
0.2648
0.25083
0.236362
0.221382
0.20585
0.189705
0.172872
0.155281
0.136888
0.117695
0.0977688
0.0772564
0.0563911
0.035498
0.0149932
-0.00462347
-0.0227821
-0.0388679
-0.0522584
-0.0623725
-0.0687283
-0.0710011
-0.0690735
-0.0630657
-0.053341
-0.0404849
-0.0252642
-0.00858415
0.0536427
0.159121
0.259374
0.351525
0.433485
0.504055
0.562875
0.610277
0.64707
0.674318
0.693164
0.704704
0.709936
0.709753
0.704977
0.696391
0.68476
0.670833
0.655318
0.638847
0.62194
0.604983
0.588226
0.571799
0.555743
0.540043
0.524649
0.509491
0.494474
0.47948
0.464364
0.448967
0.433133
0.416729
0.399665
0.381902
0.363436
0.344289
0.324475
0.303982
0.282754
0.260697
0.237693
0.213624
0.188409
0.162034
0.134577
0.106229
0.0773076
0.0482589
0.0196597
-0.00778987
-0.0332839
-0.0559431
-0.0748657
-0.0891994
-0.0982265
-0.101454
-0.0986922
-0.0900997
-0.0761948
-0.0578193
-0.0360739
-0.0122551
0.0694972
0.20601
0.335364
0.453677
0.558208
0.647485
0.721215
0.780037
0.825201
0.858246
0.880744
0.894141
0.899701
0.898527
0.891619
0.87994
0.864457
0.846134
0.8259
0.804586
0.782869
0.761237
0.739988
0.719255
0.699057
0.679348
0.660053
0.641081
0.622315
0.603604
0.584756
0.565549
0.545765
0.525219
0.503794
0.481445
0.458192
0.434086
0.409168
0.383437
0.356822
0.329188
0.300355
0.270144
0.238415
0.205122
0.170342
0.134302
0.0973942
0.0601817
0.0233995
-0.0120502
-0.0451152
-0.0746305
-0.0993827
-0.118205
-0.130099
-0.134361
-0.1307
-0.119309
-0.100875
-0.0765255
-0.0477314
-0.0162123
0.0860938
0.25499
0.414417
0.559332
0.686298
0.793635
0.881252
0.950272
1.00255
1.04023
1.06538
1.07983
1.08506
1.08236
1.07286
1.05766
1.03794
1.01488
0.989648
0.96331
0.93671
0.910437
0.884816
0.859954
0.835821
0.812323
0.789351
0.766799
0.744536
0.722382
0.700092
0.677369
0.653913
0.629477
0.603906
0.577162
0.549301
0.520427
0.490631
0.459932
0.428244
0.39538
0.36108
0.325073
0.287144
0.24719
0.205276
0.161654
0.116784
0.0713394
0.0262103
-0.0174981
-0.0584768
-0.0952503
-0.126252
-0.149945
-0.164986
-0.170406
-0.165775
-0.151311
-0.127894
-0.0969824
-0.060467
-0.0205329
0.103706
0.306835
0.497689
0.66986
0.819169
0.943822
1.04413
1.12192
1.17987
1.22088
1.24762
1.26226
1.26652
1.26176
1.24918
1.23001
1.2056
1.17738
1.14682
1.11523
1.08365
1.05277
1.02291
0.994115
0.96627
0.939205
0.912775
0.886867
0.861355
0.83604
0.810615
0.784688
0.757854
0.729777
0.700263
0.669286
0.636964
0.603484
0.569013
0.533607
0.497169
0.45944
0.420055
0.378622
0.334816
0.288462
0.239591
0.188475
0.135635
0.0818482
0.0281526
-0.0241455
-0.0734721
-0.118015
-0.155806
-0.184868
-0.203432
-0.210186
-0.204513
-0.186645
-0.157691
-0.119507
-0.0744682
-0.0252786
0.12262
0.362351
0.586354
0.786611
0.958155
1.09922
1.21077
1.29565
1.35762
1.40054
1.42773
1.44173
1.4444
1.43709
1.42098
1.39736
1.36776
1.33392
1.29762
1.2605
1.22383
1.18838
1.15445
1.12195
1.09064
1.06023
1.03055
1.00149
0.972973
0.944783
0.916549
0.887755
0.857853
0.826389
0.793117
0.758036
0.721357
0.683393
0.644422
0.604565
0.563709
0.521505
0.477447
0.430982
0.381642
0.329151
0.273497
0.214962
0.154126
0.0918596
0.0293404
-0.0319329
-0.0901187
-0.143044
-0.188282
-0.223334
-0.245902
-0.254232
-0.24745
-0.225792
-0.190647
-0.144358
-0.0898816
-0.0304961
0.143144
0.422395
0.681644
0.910956
1.10454
1.26087
1.38192
1.47191
1.53604
1.5793
1.60579
1.61837
1.61892
1.60864
1.58858
1.56004
1.52472
1.4847
1.44219
1.39923
1.35734
1.3174
1.2796
1.24368
1.20917
1.17565
1.1429
1.11087
1.07957
1.04879
1.0181
0.986807
0.954172
0.91958
0.882713
0.843614
0.802631
0.760256
0.71693
0.672866
0.627939
0.581681
0.533398
0.482329
0.427819
0.369465
0.3072
0.241316
0.172446
0.101552
0.0299322
-0.0407383
-0.108357
-0.17037
-0.223837
-0.265632
-0.292804
-0.30303
-0.295083
-0.269188
-0.227086
-0.171741
-0.106811
-0.0362157
0.165617
0.487902
0.784874
1.04431
1.2596
1.42973
1.55814
1.65093
1.71508
1.75703
1.78168
1.79216
1.79018
1.77664
1.75229
1.71835
1.67671
1.62988
1.58062
1.53145
1.48423
1.4399
1.39852
1.35951
1.32211
1.28571
1.25004
1.21518
1.18128
1.14822
1.11546
1.08207
1.04707
1.00962
0.969296
0.926216
0.880918
0.834145
0.786569
0.738534
0.689902
0.64005
0.588035
0.532828
0.473538
0.409604
0.3409
0.267732
0.190791
0.111121
0.0301213
-0.0503856
-0.128058
-0.199951
-0.262549
-0.311988
-0.344503
-0.357036
-0.347886
-0.317235
-0.267284
-0.201801
-0.125311
-0.0424493
0.190418
0.559907
0.897469
1.18817
1.42457
1.60662
1.73983
1.8327
1.89451
1.93339
1.95512
1.96296
1.95824
1.94129
1.91239
1.87257
1.82396
1.76962
1.71297
1.65717
1.6045
1.55597
1.51136
1.46968
1.42976
1.39069
1.3522
1.31458
1.27824
1.2432
1.20878
1.17378
1.13682
1.09678
1.05312
1.00603
0.956331
0.905105
0.853336
0.801557
0.749612
0.696671
0.641469
0.582633
0.51898
0.449759
0.374783
0.294394
0.20935
0.12077
0.0301273
-0.0606518
-0.149026
-0.231668
-0.304428
-0.362569
-0.401325
-0.416694
-0.406325
-0.370314
-0.311463
-0.234615
-0.145379
-0.0491865
0.217972
0.639561
1.02099
1.34409
1.6007
1.79231
1.92721
2.01703
2.07386
2.10783
2.12567
2.13054
2.12308
2.10277
2.06919
2.02303
1.96672
1.90404
1.83925
1.77633
1.7181
1.66563
1.61828
1.57445
1.5324
1.49088
1.4496
1.40919
1.37053
1.33382
1.29823
1.26213
1.22369
1.18137
1.13443
1.08324
1.02897
0.97315
0.917192
0.861883
0.807052
0.751586
0.6938
0.631896
0.564324
0.49011
0.409022
0.32147
0.228301
0.130701
0.0301867
-0.0712747
-0.171008
-0.265332
-0.349411
-0.417485
-0.463562
-0.48244
-0.470875
-0.42879
-0.359794
-0.270179
-0.166946
-0.0563902
0.248762
0.72815
1.15715
1.51376
1.78924
1.98741
2.12033
2.20351
2.25242
2.27962
2.29277
2.29461
2.28468
2.26131
2.22302
2.17005
2.10521
2.03322
1.95942
1.88884
1.82497
1.76891
1.71943
1.67408
1.63039
1.58663
1.54247
1.49913
1.45818
1.42013
1.38392
1.34735
1.30796
1.26368
1.21351
1.15802
1.09891
1.03827
0.978059
0.919428
0.862181
0.804822
0.745123
0.680762
0.609746
0.530828
0.44377
0.349107
0.247801
0.141107
0.030544
-0.0819596
-0.193695
-0.300684
-0.397368
-0.476794
-0.531483
-0.554718
-0.542034
-0.493025
-0.412383
-0.308396
-0.189858
-0.0639916
0.283334
0.827115
1.30782
1.69895
1.99139
2.19243
2.31908
2.39152
2.42932
2.44789
2.45576
2.45483
2.44302
2.41712
2.37427
2.31399
2.23967
2.15727
2.07344
1.99452
1.92495
1.86581
1.81499
1.7689
1.72412
1.67829
1.63105
1.58446
1.54117
1.50216
1.46597
1.42964
1.38994
1.34406
1.29064
1.23057
1.16622
1.10042
1.03582
0.97407
0.914936
0.856397
0.795524
0.72938
0.655421
0.572074
0.479155
0.37742
0.267979
0.152158
0.031442
-0.0923868
-0.216723
-0.337397
-0.448101
-0.540498
-0.60532
-0.633986
-0.620347
-0.563393
-0.469268
-0.349054
-0.213865
-0.0718847
0.322314
0.938064
1.47507
1.90156
2.20833
2.40771
2.52316
2.58027
2.60345
2.61155
2.61391
2.61086
2.59808
2.57051
2.52342
2.45527
2.37033
2.27626
2.18119
2.09317
2.01787
1.95632
1.90516
1.85922
1.81403
1.76632
1.71559
1.6652
1.61943
1.57987
1.54447
1.5092
1.46994
1.42288
1.36612
1.30105
1.23098
1.15954
1.09033
1.02565
0.965235
0.906325
0.84509
0.777897
0.701534
0.613997
0.515279
0.406494
0.288932
0.164
0.0331132
-0.102219
-0.239683
-0.375074
-0.501341
-0.608537
-0.685271
-0.720719
-0.70643
-0.640289
-0.530409
-0.391803
-0.238603
-0.0799212
0.366418
1.06278
1.66115
2.12362
2.44119
2.63343
2.73212
2.76878
2.77354
2.76942
2.76641
2.76237
2.74985
2.7218
2.67103
2.59433
2.49745
2.39028
2.28257
2.18449
2.10347
2.04042
1.99014
1.94542
1.9006
1.85121
1.79636
1.74132
1.6928
1.6532
1.6195
1.58623
1.54828
1.50055
1.44027
1.36964
1.29323
1.21555
1.14138
1.07397
1.01298
0.954624
0.893903
0.826467
0.748277
0.656738
0.55221
0.436379
0.310719
0.176738
0.0357699
-0.11111
-0.262122
-0.413252
-0.556754
-0.680797
-0.77148
-0.815414
-0.801004
-0.724159
-0.595664
-0.436131
-0.263579
-0.0879071
0.416481
1.20323
1.86847
2.36731
2.69096
2.86951
2.94534
2.95595
2.93811
2.92014
2.91247
2.90908
2.89835
2.87138
2.8178
2.73169
2.62122
2.49944
2.37744
2.26813
2.18143
2.11809
2.07021
2.02787
1.98438
1.93357
1.87364
1.8127
1.76104
1.72205
1.69117
1.66091
1.6253
1.57755
1.51341
1.43648
1.35304
1.26837
1.18874
1.1188
1.05808
1.00133
0.942038
0.875244
0.795869
0.700424
0.589976
0.46709
0.333358
0.190437
0.0395961
-0.11871
-0.283545
-0.451402
-0.613944
-0.757102
-0.864021
-0.918575
-0.904937
-0.815525
-0.664773
-0.481331
-0.288164
-0.0956006
0.473493
1.36157
2.09963
2.63497
2.95851
3.11558
3.16214
3.14056
3.09551
3.06224
3.05129
3.05083
3.04356
3.0197
2.96457
2.86785
2.74183
2.60386
2.46565
2.34365
2.25137
2.1893
2.14568
2.10695
2.06594
2.01414
1.94773
1.87914
1.82378
1.7863
1.75957
1.73339
1.70137
1.65441
1.5859
1.50169
1.41047
1.31787
1.23212
1.15984
1.10042
1.04649
0.989558
0.924382
0.844563
0.745171
0.628557
0.498608
0.356831
0.20511
0.0447381
-0.124681
-0.303427
-0.488927
-0.672458
-0.837228
-0.962861
-1.0307
-1.0193
-0.91502
-0.737318
-0.526475
-0.311579
-0.102715
0.538663
1.54012
2.35734
2.92923
3.24445
3.37087
3.38177
3.32134
3.24389
3.19409
3.18215
3.18761
3.18542
3.16717
3.11246
3.00335
2.85932
2.70375
2.54708
2.41049
2.3128
2.25406
2.21696
2.18298
2.1459
2.09383
2.01899
1.94027
1.88055
1.84578
1.82489
1.80376
1.77681
1.73182
1.65805
1.56532
1.46565
1.36398
1.27118
1.19677
1.13992
1.09023
1.03649
0.974023
0.894673
0.791082
0.667868
0.530893
0.381081
0.220713
0.0512979
-0.128696
-0.321211
-0.525159
-0.731796
-0.920919
-1.06782
-1.15225
-1.14545
-1.02343
-0.812679
-0.570375
-0.332903
-0.108923
0.613529
1.74132
2.64434
3.25307
3.5491
3.6341
3.6036
3.49703
3.38122
3.31391
3.30441
3.31968
3.32374
3.31423
3.26286
3.13871
2.97359
2.79946
2.62162
2.46797
2.36509
2.31242
2.28462
2.2562
2.22483
2.17379
2.08777
1.99559
1.93072
1.90038
1.8874
1.87201
1.85194
1.8106
1.73018
1.62732
1.51874
1.40661
1.30549
1.22918
1.17652
1.13274
1.08283
1.02429
0.946605
0.838236
0.70774
0.563894
0.406022
0.237135
0.0593265
-0.130458
-0.336319
-0.559353
-0.791428
-1.00792
-1.17851
-1.28356
-1.28513
-1.14177
-0.889957
-0.611552
-0.35109
-0.113871
0.700132
1.96771
2.96328
3.61003
3.87234
3.90328
3.82723
3.66643
3.5052
3.41975
3.41757
3.44767
3.45805
3.46118
3.4177
3.27434
3.08421
2.89155
2.68925
2.51526
2.40751
2.36446
2.3494
2.32666
2.30328
2.25556
2.15447
2.04437
1.97347
1.94996
1.94753
1.93799
1.92701
1.89184
1.80256
1.68747
1.57006
1.44571
1.33455
1.2566
1.21018
1.17431
1.12844
1.07526
1.00091
0.886678
0.747893
0.597579
0.431545
0.254195
0.068821
-0.129705
-0.348162
-0.590678
-0.850799
-1.09805
-1.29427
-1.42476
-1.44061
-1.27133
-0.967871
-0.648213
-0.36499
-0.117195
0.801294
2.2218
3.31651
4.00453
4.21344
4.17549
4.05279
3.82848
3.61329
3.50944
3.52132
3.57279
3.5875
3.60816
3.57958
3.41051
3.19035
2.98095
2.75001
2.55133
2.43912
2.41036
2.41242
2.39413
2.38168
2.34113
2.2195
2.08559
2.0078
1.99446
2.00603
2.00128
2.00213
1.97703
1.87534
1.74532
1.62009
1.48128
1.35775
1.27846
1.24091
1.21545
1.17308
1.12693
1.05836
0.936402
0.787889
0.63197
0.457521
0.271623
0.0797249
-0.126223
-0.356154
-0.618191
-0.909345
-1.19129
-1.41404
-1.57563
-1.61487
-1.41377
-1.04461
-0.678229
-0.373407
-0.118545
0.921056
2.50598
3.70572
4.44236
4.57084
4.4465
4.28134
3.98229
3.70257
3.58058
3.61553
3.69709
3.71053
3.75493
3.75214
3.54718
3.29049
3.06916
2.80403
2.57488
2.4588
2.45036
2.47526
2.45791
2.4602
2.4332
2.28324
2.11792
2.03248
2.03387
2.06402
2.0611
2.07726
2.06816
1.94853
1.80003
1.66966
1.51337
1.37434
1.2941
1.26876
1.25693
1.21625
1.17917
1.12006
0.987314
0.827078
0.667204
0.483814
0.289053
0.091934
-0.119855
-0.35973
-0.640812
-0.966487
-1.28794
-1.53629
-1.73536
-1.8119
-1.57123
-1.11764
-0.699146
-0.375163
-0.117613
1.06532
2.82227
4.13145
4.93136
4.94183
4.71039
4.51537
4.12713
3.76972
3.63046
3.70023
3.82382
3.82461
3.90074
3.94052
3.68386
3.38216
3.15857
2.85153
2.58434
2.46518
2.48475
2.54024
2.51664
2.53867
2.53547
2.34598
2.1396
2.04605
2.06823
2.12331
2.11611
2.15202
2.1681
2.02185
1.85026
1.72006
1.54206
1.38341
1.30271
1.29385
1.29995
1.25711
1.23169
1.18757
1.03918
0.864516
0.703622
0.510276
0.305999
0.105311
-0.110513
-0.358379
-0.657281
-1.02161
-1.38879
-1.65889
-1.90227
-2.03699
-1.74641
-1.18342
-0.708218
-0.369184
-0.114164
1.24278
3.17207
4.59241
5.48244
5.32218
4.95888
4.7596
4.26239
3.81086
3.65607
3.77553
3.958
3.92572
4.04402
4.15202
3.81932
3.46157
3.2529
2.89274
2.57773
2.45661
2.51384
2.61074
2.56797
2.61637
2.65297
2.40775
2.1484
2.04679
2.09761
2.18659
2.16415
2.22561
2.28084
2.09465
1.89392
1.77331
1.56745
1.38384
1.30335
1.31625
1.34625
1.29436
1.28389
1.26317
1.09157
0.898865
0.741884
0.536742
0.321829
0.119708
-0.0981854
-0.351684
-0.666106
-1.07402
-1.4955
-1.77895
-2.07336
-2.29719
-1.94272
-1.23703
-0.702494
-0.354606
-0.108067
1.46626
3.55577
5.08448
6.11096
5.70552
5.18065
5.02196
4.38731
3.82151
3.65403
3.84145
4.10707
4.00786
4.18203
4.39687
3.95129
3.52309
3.35775
2.92778
2.55266
2.43116
2.53782
2.69166
2.60824
2.69182
2.79257
2.4682
2.14157
2.03276
2.12202
2.25788
2.20197
2.29659
2.41198
2.16567
1.92792
1.83248
1.58958
1.37429
1.29493
1.33603
1.39846
1.32597
1.3348
1.35005
1.1437
0.928263
0.783132
0.562999
0.335735
0.135005
-0.0829494
-0.339387
-0.665499
-1.12281
-1.61087
-1.89268
-2.24379
-2.60192
-2.1644
-1.27175
-0.678971
-0.330888
-0.0993196
1.75451
3.97228
5.59943
6.83861
6.08266
5.36034
5.31492
4.50068
3.79647
3.62071
3.89757
4.28189
4.06224
4.31041
4.6894
4.07594
3.55868
3.48142
2.95644
2.50627
2.38667
2.55659
2.79002
2.63199
2.76246
2.96366
2.5262
2.11578
2.00183
2.14124
2.34301
2.22484
2.36262
2.56938
2.23284
1.94785
1.9021
1.6083
1.35315
1.27624
1.35306
1.46031
1.34901
1.38292
1.45272
1.19437
0.950164
0.829213
0.588743
0.34669
0.15116
-0.0649724
-0.321461
-0.653313
-1.16674
-1.73943
-1.99531
-2.40613
-2.96366
-2.41662
-1.27843
-0.634842
-0.297927
-0.0880649
2.13454
4.41833
6.12324
7.69573
6.44058
5.47745
5.65723
4.6002
3.72981
3.55225
3.94255
4.49788
4.07641
4.4226
5.04938
4.18737
3.55714
3.63587
2.97779
2.43518
2.32071
2.5694
2.91573
2.63137
2.82428
3.1789
2.57948
2.06715
1.95176
2.15459
2.45028
2.22602
2.4202
2.76381
2.2929
1.94757
1.98874
1.62309
1.31851
1.24594
1.36688
1.53713
1.35931
1.42603
1.57744
1.24168
0.961145
0.882945
0.613493
0.353409
0.168278
-0.0445143
-0.298221
-0.626973
-1.20395
-1.88798
-2.08091
-2.54951
-3.39887
-2.7056
-1.24482
-0.567846
-0.256155
-0.074596
2.64473
4.88767
6.63392
8.72442
6.76126
5.50494
6.07601
4.68156
3.61484
3.44481
3.97336
4.77665
4.03321
4.50914
5.50368
4.27678
3.50325
3.83804
2.98968
2.33554
2.23078
2.57443
3.08257
2.5955
2.87145
3.45527
2.62399
1.99129
1.88037
2.16048
2.59131
2.19621
2.46421
3.00997
2.34105
1.91874
2.10166
1.63271
1.26825
1.20265
1.37646
1.63632
1.35108
1.46101
1.73273
1.28284
0.956691
0.94847
0.636471
0.354296
0.186696
-0.0219217
-0.270444
-0.583427
-1.23162
-2.06632
-2.14239
-2.65846
-3.92909
-3.03868
-1.15473
-0.476773
-0.20661
-0.0593434
3.33857
5.37006
7.09899
9.98218
7.02013
5.40769
6.60935
4.73722
3.44428
3.29483
3.98425
5.1478
3.90946
4.55683
6.08831
4.33164
3.37679
4.11136
2.98792
2.20312
2.11448
2.56812
3.30939
2.50961
2.89575
3.81522
2.65312
1.88349
1.78566
2.15593
2.782
2.12287
2.48752
3.32748
2.37043
1.85024
2.25372
1.63485
1.19997
1.14508
1.3798
1.76804
1.3165
1.48352
1.93001
1.31384
0.930941
1.03167
0.656432
0.347402
0.207084
0.00238457
-0.239519
-0.519119
-1.24546
-2.28815
-2.17142
-2.71162
-4.58222
-3.42436
-0.987051
-0.362113
-0.150941
-0.0428449
4.28928
5.85006
7.47237
11.5463
7.18424
5.14071
7.3094
4.75463
3.21048
3.09955
3.96535
5.6512
3.67455
4.54778
6.85064
4.33453
3.15142
4.4876
2.9653
2.03345
1.96973
2.5443
3.62157
2.35416
2.88601
4.28812
2.65673
1.73886
1.66615
2.13576
3.04382
1.98945
2.48042
3.7422
2.37152
1.72764
2.46233
1.62552
1.1112
1.07212
1.37351
1.94591
1.2452
1.48777
2.18437
1.32907
0.876421
1.14066
0.671431
0.330381
0.230564
0.0279316
-0.207612
-0.429998
-1.23913
-2.57195
-2.15856
-2.6802
-5.39401
-3.87226
-0.714653
-0.226885
-0.0913524
-0.0257011
5.59514
6.30558
7.69082
13.5189
7.21009
4.64728
8.24587
4.71414
2.90588
2.8576
3.90091
6.33965
3.28879
4.4583
7.85208
4.26193
2.79348
5.00898
2.91029
1.82213
1.79524
2.49311
4.05266
2.10379
2.82749
4.91183
2.61983
1.55278
1.52122
2.09169
3.40512
1.77451
2.43006
4.28761
2.33147
1.53247
2.75066
1.59838
0.999435
0.983104
1.35217
2.18798
1.12369
1.46616
2.51535
1.32087
0.78376
1.28636
0.678529
0.30047
0.258833
0.0542253
-0.17784
-0.311599
-1.20347
-2.94205
-2.09339
-2.52622
-6.40974
-4.39305
-0.30323
-0.0776585
-0.030437
-0.00851926
)
;

boundaryField
{
    left
    {
        type            calculated;
        value           uniform 0;
    }
    right
    {
        type            calculated;
        value           uniform 0;
    }
    interface
    {
        type            calculated;
        value           nonuniform List<scalar> 
64
(
5.59514
6.30558
7.69082
13.5189
7.21009
4.64728
8.24587
4.71414
2.90588
2.8576
3.90091
6.33965
3.28879
4.4583
7.85208
4.26193
2.79348
5.00898
2.91029
1.82213
1.79524
2.49311
4.05266
2.10379
2.82749
4.91183
2.61983
1.55278
1.52122
2.09169
3.40512
1.77451
2.43006
4.28761
2.33147
1.53247
2.75066
1.59838
0.999435
0.983104
1.35217
2.18798
1.12369
1.46616
2.51535
1.32087
0.78376
1.28636
0.678529
0.30047
0.258833
0.0542253
-0.17784
-0.311599
-1.20347
-2.94205
-2.09339
-2.52622
-6.40974
-4.39305
-0.30323
-0.0776585
-0.030437
-0.00851926
)
;
    }
    bottom
    {
        type            calculated;
        value           nonuniform List<scalar> 
64
(
0.0077343
0.0229667
0.0375127
0.0509857
0.0630922
0.0736466
0.0825695
0.0898731
0.0956383
0.0999901
0.103075
0.105044
0.106043
0.10621
0.105672
0.10455
0.10296
0.101011
0.098805
0.0964308
0.0939637
0.0914613
0.0889643
0.0864972
0.084072
0.0816907
0.0793487
0.0770364
0.0747401
0.0724429
0.0701252
0.0677661
0.0653455
0.0628464
0.060256
0.0575668
0.0547752
0.05188
0.0488795
0.0457697
0.0425427
0.0391872
0.0356904
0.0320408
0.0282325
0.0242688
0.0201658
0.0159553
0.0116863
0.00742587
0.00325897
-0.000713425
-0.00437749
-0.00761193
-0.0102955
-0.0123167
-0.0135844
-0.0140386
-0.0136597
-0.0124732
-0.0105515
-0.00800996
-0.00499993
-0.00169933
)
;
    }
    defaultFaces
    {
        type            empty;
    }
}


// ************************************************************************* //
