/*--------------------------------*- C++ -*----------------------------------*\
| =========                 |                                                 |
| \\      /  F ield         | OpenFOAM: The Open Source CFD Toolbox           |
|  \\    /   O peration     | Version:  5.x                                   |
|   \\  /    A nd           | Web:      www.OpenFOAM.org                      |
|    \\/     M anipulation  |                                                 |
\*---------------------------------------------------------------------------*/
FoamFile
{
    version     2.0;
    format      ascii;
    class       volScalarField;
    location    "3.3999";
    object      gradTy;
}
// * * * * * * * * * * * * * * * * * * * * * * * * * * * * * * * * * * * * * //

dimensions      [0 -1 0 1 0 0 0];

internalField   nonuniform List<scalar> 
2048
(
-27.5091
-27.4752
-27.4086
-27.3111
-27.1855
-27.0352
-26.8637
-26.6746
-26.4713
-26.2573
-26.0352
-25.8079
-25.5774
-25.3458
-25.1148
-24.8857
-24.6596
-24.4375
-24.22
-24.0075
-23.8004
-23.5988
-23.4026
-23.2118
-23.0264
-22.8462
-22.6711
-22.5011
-22.336
-22.176
-22.0209
-21.8709
-21.7261
-21.5866
-21.4526
-21.3244
-21.2021
-21.086
-20.9764
-20.8733
-20.7772
-20.6881
-20.6066
-20.5328
-20.4671
-20.4098
-20.3614
-20.322
-20.2919
-20.2712
-20.2597
-20.2572
-20.2631
-20.2766
-20.2967
-20.322
-20.351
-20.3818
-20.4128
-20.442
-20.4677
-20.4885
-20.503
-20.5105
-27.5365
-27.5018
-27.4335
-27.3338
-27.2056
-27.0524
-26.8779
-26.686
-26.4801
-26.2637
-26.0396
-25.8104
-25.5783
-25.3454
-25.1132
-24.8832
-24.6564
-24.4337
-24.2159
-24.0032
-23.796
-23.5944
-23.3982
-23.2075
-23.0222
-22.842
-22.667
-22.497
-22.332
-22.1719
-22.0168
-21.8667
-21.7217
-21.5821
-21.448
-21.3196
-21.1971
-21.0808
-20.971
-20.8677
-20.7714
-20.6821
-20.6003
-20.5262
-20.4602
-20.4027
-20.354
-20.3145
-20.2843
-20.2636
-20.2524
-20.2503
-20.2569
-20.2713
-20.2924
-20.319
-20.3494
-20.3817
-20.4142
-20.4448
-20.4717
-20.4934
-20.5086
-20.5165
-27.5889
-27.5526
-27.4811
-27.377
-27.2437
-27.0849
-26.9048
-26.7074
-26.4966
-26.2756
-26.0475
-25.8149
-25.5799
-25.3444
-25.1101
-24.8783
-24.6502
-24.4265
-24.208
-23.995
-23.7876
-23.5859
-23.3899
-23.1994
-23.0142
-22.8342
-22.6593
-22.4894
-22.3244
-22.1643
-22.009
-21.8588
-21.7136
-21.5736
-21.4392
-21.3104
-21.1876
-21.071
-20.9608
-20.8572
-20.7604
-20.6707
-20.5884
-20.5137
-20.4472
-20.3891
-20.34
-20.3001
-20.2698
-20.2493
-20.2385
-20.2372
-20.245
-20.261
-20.2842
-20.3132
-20.3463
-20.3815
-20.4168
-20.4501
-20.4794
-20.503
-20.5196
-20.5281
-27.6642
-27.6254
-27.5492
-27.4387
-27.2977
-27.1307
-26.9424
-26.7373
-26.5193
-26.292
-26.0584
-25.8209
-25.5817
-25.3427
-25.1054
-24.8712
-24.6412
-24.4161
-24.1967
-23.9832
-23.7756
-23.574
-23.3781
-23.1878
-23.0029
-22.8231
-22.6484
-22.4787
-22.3137
-22.1536
-21.9982
-21.8477
-21.7021
-21.5617
-21.4268
-21.2975
-21.1742
-21.0571
-20.9464
-20.8423
-20.745
-20.6547
-20.5716
-20.4962
-20.4288
-20.37
-20.3201
-20.2798
-20.2492
-20.2288
-20.2186
-20.2184
-20.2278
-20.2462
-20.2723
-20.3048
-20.3418
-20.3812
-20.4207
-20.4579
-20.4907
-20.5171
-20.5356
-20.545
-27.7608
-27.7186
-27.6361
-27.5169
-27.3657
-27.188
-26.9891
-26.7739
-26.5469
-26.3117
-26.0711
-25.8277
-25.5834
-25.34
-25.099
-24.8617
-24.6293
-24.4026
-24.1821
-23.9681
-23.7604
-23.5589
-23.3634
-23.1734
-22.9888
-22.8094
-22.6349
-22.4653
-22.3005
-22.1403
-21.9848
-21.8339
-21.6879
-21.5469
-21.4113
-21.2814
-21.1575
-21.0398
-20.9286
-20.8238
-20.7258
-20.6347
-20.5508
-20.4743
-20.4059
-20.346
-20.2952
-20.254
-20.2231
-20.2027
-20.1931
-20.1942
-20.2058
-20.227
-20.2569
-20.2939
-20.336
-20.3808
-20.4258
-20.4682
-20.5055
-20.5355
-20.5564
-20.5672
-27.8776
-27.831
-27.7404
-27.6101
-27.4462
-27.2551
-27.0431
-26.8159
-26.5781
-26.3336
-26.085
-25.8347
-25.5845
-25.336
-25.0907
-24.8499
-24.6148
-24.3861
-24.1645
-23.9499
-23.7422
-23.5411
-23.346
-23.1565
-22.9724
-22.7933
-22.6192
-22.4498
-22.2851
-22.1249
-21.9692
-21.8179
-21.6713
-21.5296
-21.3932
-21.2626
-21.1379
-21.0195
-20.9076
-20.8023
-20.7035
-20.6115
-20.5264
-20.4487
-20.3789
-20.3177
-20.2656
-20.2235
-20.192
-20.1715
-20.1625
-20.1651
-20.179
-20.2037
-20.2381
-20.2805
-20.3288
-20.3804
-20.4321
-20.4808
-20.5237
-20.5582
-20.5823
-20.5946
-28.0138
-27.9618
-27.861
-27.7171
-27.5376
-27.3303
-27.1028
-26.8616
-26.6116
-26.3566
-26.0992
-25.8414
-25.5847
-25.3305
-25.0803
-24.8356
-24.5974
-24.3667
-24.1439
-23.9289
-23.7214
-23.5208
-23.3264
-23.1376
-22.954
-22.7754
-22.6016
-22.4325
-22.268
-22.1078
-21.9519
-21.8002
-21.6528
-21.5103
-21.3729
-21.2413
-21.1158
-20.9967
-20.8841
-20.7781
-20.6785
-20.5855
-20.4992
-20.4201
-20.3487
-20.2857
-20.2321
-20.1887
-20.1563
-20.1356
-20.1272
-20.1312
-20.1477
-20.1763
-20.2158
-20.2646
-20.3202
-20.3798
-20.4396
-20.496
-20.5456
-20.5854
-20.6131
-20.6273
-28.1692
-28.1105
-27.9972
-27.8367
-27.6384
-27.412
-27.1666
-26.9095
-26.6461
-26.3798
-26.1131
-25.8472
-25.5836
-25.3233
-25.0678
-24.8187
-24.5772
-24.3443
-24.1203
-23.9052
-23.6982
-23.4984
-23.3049
-23.1169
-22.934
-22.7559
-22.5825
-22.4138
-22.2496
-22.0895
-21.9333
-21.781
-21.6329
-21.4892
-21.3507
-21.218
-21.0916
-20.9717
-20.8585
-20.7518
-20.6515
-20.5574
-20.4698
-20.3889
-20.3156
-20.2506
-20.1951
-20.1501
-20.1166
-20.0954
-20.0873
-20.0927
-20.112
-20.1447
-20.1899
-20.2459
-20.3101
-20.379
-20.4484
-20.5139
-20.5713
-20.6172
-20.649
-20.6653
-28.3437
-28.2767
-28.1482
-27.9677
-27.7471
-27.4986
-27.2329
-26.9582
-26.6803
-26.4023
-26.1259
-25.8519
-25.581
-25.3143
-25.0531
-24.7992
-24.554
-24.3189
-24.094
-23.879
-23.6728
-23.4742
-23.2819
-23.0949
-22.9127
-22.7351
-22.5622
-22.3939
-22.23
-22.0701
-21.9138
-21.7609
-21.6117
-21.4668
-21.3269
-21.1929
-21.0655
-20.9449
-20.8311
-20.7239
-20.6229
-20.5277
-20.4386
-20.3558
-20.2802
-20.2129
-20.1551
-20.1081
-20.073
-20.0511
-20.0431
-20.0499
-20.0718
-20.1089
-20.1604
-20.2245
-20.2984
-20.378
-20.4585
-20.5344
-20.6008
-20.6537
-20.6903
-20.7089
-28.5375
-28.4606
-28.3137
-28.1092
-27.8624
-27.5884
-27.2999
-27.0061
-26.713
-26.4231
-26.1372
-25.8551
-25.5769
-25.3034
-25.0361
-24.7769
-24.5279
-24.2904
-24.0648
-23.8503
-23.6455
-23.4486
-23.2578
-23.0719
-22.8904
-22.7133
-22.5409
-22.3731
-22.2098
-22.0502
-21.8938
-21.7402
-21.5898
-21.4433
-21.3017
-21.1663
-21.0377
-20.9164
-20.8023
-20.6947
-20.5931
-20.4969
-20.4061
-20.3212
-20.243
-20.1729
-20.1124
-20.063
-20.0261
-20.003
-19.9949
-20.0027
-20.0273
-20.0689
-20.127
-20.2001
-20.2848
-20.3767
-20.4699
-20.5578
-20.6345
-20.6952
-20.7369
-20.758
-28.7513
-28.6622
-28.4931
-28.2602
-27.9828
-27.6797
-27.3659
-27.0518
-26.7431
-26.4416
-26.1466
-25.8567
-25.5713
-25.2907
-25.0167
-24.7519
-24.4987
-24.2589
-24.0327
-23.8192
-23.6165
-23.4218
-23.2328
-23.0482
-22.8675
-22.6908
-22.5187
-22.3516
-22.189
-22.0299
-21.8735
-21.7193
-21.5674
-21.419
-21.2754
-21.1382
-21.0085
-20.8866
-20.7722
-20.6645
-20.5625
-20.4654
-20.3729
-20.2856
-20.2044
-20.1312
-20.0675
-20.0153
-19.9761
-19.9515
-19.9428
-19.9514
-19.9783
-20.0245
-20.0896
-20.1723
-20.2692
-20.375
-20.4827
-20.5844
-20.6726
-20.7419
-20.789
-20.8127
-28.9859
-28.882
-28.6863
-28.4196
-28.1067
-27.7706
-27.4291
-27.0936
-26.7696
-26.4572
-26.1539
-25.8568
-25.5642
-25.2764
-24.9952
-24.724
-24.4663
-24.224
-23.9977
-23.786
-23.586
-23.3942
-23.2075
-23.0243
-22.8442
-22.6677
-22.4959
-22.3295
-22.1679
-22.0097
-21.8534
-21.6984
-21.5448
-21.3941
-21.2481
-21.1089
-20.9779
-20.8555
-20.7412
-20.6338
-20.5317
-20.4337
-20.3394
-20.2494
-20.1649
-20.0879
-20.0207
-19.9652
-19.9234
-19.8968
-19.8872
-19.8961
-19.9251
-19.9755
-20.0479
-20.1409
-20.2512
-20.3726
-20.4969
-20.6143
-20.7154
-20.7939
-20.8467
-20.8731
-29.2422
-29.1205
-28.8929
-28.5864
-28.2323
-27.8592
-27.4878
-27.1302
-26.7912
-26.4692
-26.1589
-25.8554
-25.556
-25.2606
-24.9715
-24.6933
-24.4305
-24.1858
-23.9598
-23.7505
-23.5543
-23.3661
-23.1822
-23.0005
-22.8208
-22.6441
-22.4724
-22.3069
-22.1467
-21.9897
-21.8338
-21.6779
-21.5224
-21.3688
-21.2199
-21.0784
-20.946
-20.8232
-20.7094
-20.6027
-20.5009
-20.4021
-20.306
-20.213
-20.1247
-20.0436
-19.9723
-19.9131
-19.8682
-19.8393
-19.8282
-19.8369
-19.8675
-19.922
-20.0016
-20.1056
-20.2305
-20.3695
-20.5127
-20.6478
-20.7633
-20.8516
-20.91
-20.9389
-29.5216
-29.3784
-29.1128
-28.7593
-28.3579
-27.9436
-27.54
-27.1599
-26.8072
-26.4774
-26.1619
-25.853
-25.547
-25.2436
-24.9458
-24.6595
-24.3912
-24.144
-23.9187
-23.713
-23.5216
-23.3382
-23.1574
-22.9772
-22.7976
-22.6202
-22.4482
-22.2837
-22.1254
-21.9703
-21.815
-21.6582
-21.5003
-21.3433
-21.1908
-21.0465
-20.9127
-20.7898
-20.677
-20.5716
-20.4705
-20.3713
-20.2732
-20.1769
-20.0843
-19.9984
-19.9225
-19.8593
-19.8108
-19.7792
-19.7663
-19.7742
-19.8057
-19.8636
-19.9504
-20.0659
-20.2068
-20.3653
-20.53
-20.6854
-20.8166
-20.9151
-20.9789
-21.0099
-29.8258
-29.6566
-29.3458
-28.9371
-28.4813
-28.0216
-27.5839
-27.1813
-26.8166
-26.4815
-26.163
-25.8499
-25.5377
-25.226
-24.9181
-24.6226
-24.3481
-24.0985
-23.8744
-23.6734
-23.4884
-23.3107
-23.1335
-22.9547
-22.7747
-22.5959
-22.4232
-22.2599
-22.1044
-21.9517
-21.7974
-21.6396
-21.479
-21.3177
-21.1608
-21.0134
-20.878
-20.7553
-20.644
-20.5407
-20.441
-20.3414
-20.2413
-20.1414
-20.0438
-19.9525
-19.8716
-19.8039
-19.7516
-19.7169
-19.7016
-19.7081
-19.7397
-19.8004
-19.894
-20.0215
-20.1795
-20.3597
-20.5488
-20.7275
-20.8761
-20.9847
-21.0533
-21.0859
-30.1565
-29.956
-29.5918
-29.1183
-28.6002
-28.091
-27.6176
-27.1929
-26.8187
-26.4814
-26.1627
-25.8468
-25.5287
-25.2083
-24.8888
-24.5823
-24.301
-24.0488
-23.8266
-23.6318
-23.4548
-23.2843
-23.1111
-22.9335
-22.7526
-22.5713
-22.397
-22.2353
-22.0835
-21.9344
-21.7813
-21.6226
-21.4588
-21.2922
-21.1299
-20.979
-20.8419
-20.7195
-20.6106
-20.5104
-20.4127
-20.313
-20.2107
-20.1069
-20.0037
-19.9062
-19.8198
-19.7473
-19.6909
-19.6528
-19.6346
-19.6389
-19.6696
-19.7322
-19.832
-19.9717
-20.1481
-20.3522
-20.5693
-20.7748
-20.9424
-21.0608
-21.1328
-21.1662
-30.5161
-30.2776
-29.8506
-29.3012
-28.7122
-28.1498
-27.6393
-27.1932
-26.8126
-26.4775
-26.1618
-25.8442
-25.5205
-25.1912
-24.858
-24.5383
-24.2497
-23.9949
-23.775
-23.5881
-23.4214
-23.2595
-23.0906
-22.9138
-22.7315
-22.5462
-22.3692
-22.2097
-22.063
-21.9187
-21.7672
-21.6073
-21.44
-21.2669
-21.0978
-20.943
-20.8042
-20.6824
-20.5768
-20.4807
-20.386
-20.2864
-20.1818
-20.0737
-19.964
-19.8595
-19.7673
-19.6897
-19.6288
-19.5871
-19.5657
-19.5671
-19.5958
-19.6588
-19.764
-19.9162
-20.1121
-20.3422
-20.5914
-20.8282
-21.0163
-21.1434
-21.2172
-21.2501
-30.9069
-30.6223
-30.1223
-29.4839
-28.814
-28.1957
-27.6475
-27.1805
-26.7979
-26.4698
-26.1613
-25.843
-25.5137
-25.1755
-24.8258
-24.4901
-24.194
-23.9365
-23.7191
-23.5423
-23.3884
-23.2372
-23.0725
-22.8961
-22.7119
-22.5206
-22.3393
-22.1827
-22.0428
-21.905
-21.7553
-21.5942
-21.4232
-21.2418
-21.0644
-20.9054
-20.7648
-20.6437
-20.5426
-20.4522
-20.3615
-20.2619
-20.1548
-20.0423
-19.925
-19.8124
-19.7141
-19.6312
-19.5657
-19.5202
-19.4952
-19.4929
-19.5183
-19.5804
-19.6898
-19.8545
-20.071
-20.3288
-20.615
-20.8888
-21.099
-21.233
-21.306
-21.3369
-31.332
-30.9908
-30.4071
-29.6644
-28.9022
-28.227
-27.6407
-27.1532
-26.774
-26.4589
-26.1625
-25.8438
-25.5089
-25.1625
-24.7926
-24.4369
-24.1338
-23.8734
-23.6583
-23.4944
-23.3564
-23.2184
-23.0573
-22.8806
-22.6945
-22.4943
-22.3062
-22.1538
-22.0232
-21.8941
-21.746
-21.5834
-21.409
-21.2172
-21.0291
-20.8662
-20.7236
-20.603
-20.508
-20.4248
-20.3396
-20.2399
-20.1299
-20.0131
-19.8869
-19.7648
-19.6605
-19.5722
-19.5016
-19.4525
-19.4237
-19.417
-19.4376
-19.4968
-19.6088
-19.7862
-20.0242
-20.311
-20.6397
-20.9583
-21.1917
-21.3296
-21.3985
-21.4255
-31.7947
-31.3833
-30.7057
-29.8403
-28.9723
-28.2423
-27.6178
-27.1092
-26.7405
-26.4454
-26.1674
-25.8471
-25.5062
-25.154
-24.7584
-24.3774
-24.0691
-23.8056
-23.5917
-23.4444
-23.3258
-23.2041
-23.0454
-22.8674
-22.6801
-22.4671
-22.2686
-22.1226
-22.0043
-21.8867
-21.7396
-21.5749
-21.3983
-21.1929
-20.9912
-20.8254
-20.6806
-20.5599
-20.4729
-20.399
-20.321
-20.2205
-20.1072
-19.9867
-19.8497
-19.7164
-19.6065
-19.5128
-19.4369
-19.3844
-19.3517
-19.3398
-19.3541
-19.4082
-19.5206
-19.7108
-19.9713
-20.287
-20.6649
-21.0386
-21.2961
-21.4334
-21.4938
-21.5147
-32.2991
-31.7988
-31.0195
-30.009
-29.0186
-28.241
-27.5785
-27.0462
-26.6974
-26.4299
-26.1783
-25.8535
-25.5053
-25.1523
-24.7235
-24.3095
-24.0006
-23.7332
-23.518
-23.3922
-23.297
-23.1959
-23.0369
-22.8561
-22.6702
-22.4389
-22.2249
-22.0886
-21.986
-21.8841
-21.736
-21.5687
-21.3924
-21.1692
-20.9495
-20.7831
-20.6358
-20.5136
-20.4374
-20.375
-20.3066
-20.2039
-20.0867
-19.9639
-19.8136
-19.6665
-19.5525
-19.4533
-19.3714
-19.3163
-19.2796
-19.262
-19.2682
-19.3145
-19.4245
-19.6281
-19.9124
-20.2548
-20.6898
-21.1329
-21.414
-21.5442
-21.5909
-21.6032
-32.8504
-32.2348
-31.3514
-30.1676
-29.0338
-28.2239
-27.5229
-26.9606
-26.6449
-26.4128
-26.1988
-25.8628
-25.5051
-25.161
-24.6881
-24.2302
-23.9292
-23.6568
-23.4353
-23.338
-23.2703
-23.1961
-23.0317
-22.846
-22.6669
-22.4096
-22.1724
-22.0515
-21.9684
-21.888
-21.7353
-21.564
-21.3931
-21.1461
-20.9023
-20.7401
-20.5894
-20.4631
-20.4015
-20.3528
-20.2976
-20.19
-20.0677
-19.9459
-19.7787
-19.6143
-19.4987
-19.3941
-19.305
-19.2487
-19.208
-19.1843
-19.1805
-19.2162
-19.3196
-19.5379
-19.8479
-20.2112
-20.7124
-21.2453
-21.5474
-21.6617
-21.6885
-21.6895
-33.4552
-32.6857
-31.7066
-30.313
-29.0076
-28.1936
-27.4523
-26.8478
-26.5842
-26.3943
-26.2336
-25.8745
-25.5033
-25.1855
-24.6524
-24.1346
-23.8573
-23.5773
-23.3406
-23.2824
-23.2455
-23.2075
-23.0295
-22.8356
-22.6735
-22.379
-22.1076
-22.0112
-21.9512
-21.9007
-21.737
-21.5595
-21.4033
-21.1235
-20.847
-20.6974
-20.5421
-20.4066
-20.3655
-20.3324
-20.2954
-20.1786
-20.0496
-19.9344
-19.7449
-19.5582
-19.4459
-19.3354
-19.2374
-19.182
-19.1374
-19.1075
-19.0915
-19.1136
-19.2048
-19.44
-19.7795
-20.1522
-20.7301
-21.3818
-21.6987
-21.785
-21.7851
-21.7722
-34.1221
-33.1413
-32.0939
-30.442
-28.9262
-28.1561
-27.3688
-26.7008
-26.5175
-26.3732
-26.2896
-25.8872
-25.4955
-25.2335
-24.6164
-24.0157
-23.7887
-23.4962
-23.2295
-23.2268
-23.222
-23.2345
-23.0293
-22.8221
-22.695
-22.3471
-22.0256
-21.9685
-21.9337
-21.9258
-21.7402
-21.5528
-21.4273
-21.1016
-20.7795
-20.6572
-20.4944
-20.3417
-20.3302
-20.3134
-20.3026
-20.1692
-20.0307
-19.9318
-19.7122
-19.496
-19.3951
-19.2779
-19.1678
-19.1169
-19.0682
-19.0323
-19.0021
-19.0075
-19.0785
-19.3344
-19.7102
-20.0723
-20.7385
-21.5507
-21.8699
-21.913
-21.8791
-21.8499
-34.8631
-33.5846
-32.5277
-30.5511
-28.7702
-28.1218
-27.2764
-26.5093
-26.4496
-26.3467
-26.3766
-25.8982
-25.4746
-25.3167
-24.5803
-23.8628
-23.7299
-23.4158
-23.0957
-23.1738
-23.1977
-23.2831
-23.0293
-22.8008
-22.7387
-22.3138
-21.9194
-21.9252
-21.9142
-21.9685
-21.7435
-21.5399
-21.4711
-21.0803
-20.6941
-20.6229
-20.4478
-20.2649
-20.2968
-20.2946
-20.3222
-20.1607
-20.0085
-19.9421
-19.6806
-19.4245
-19.3482
-19.2221
-19.0951
-19.0544
-19.0006
-18.9599
-18.9127
-18.8991
-18.9382
-19.2207
-19.6452
-19.9639
-20.7314
-21.7639
-22.0627
-22.0435
-21.9684
-21.921
-35.6947
-33.9878
-33.0306
-30.6366
-28.5124
-28.1076
-27.1802
-26.2582
-26.3885
-26.3087
-26.5084
-25.9035
-25.4292
-25.4515
-24.5439
-23.6606
-23.6909
-23.3395
-22.9294
-23.1281
-23.1687
-23.3622
-23.0269
-22.7646
-22.8152
-22.279
-21.7794
-21.8852
-21.8894
-22.036
-21.7446
-21.5147
-21.5439
-21.0594
-20.5822
-20.6
-20.4038
-20.1709
-20.2682
-20.2739
-20.3591
-20.1516
-19.9791
-19.9705
-19.6499
-19.3388
-19.308
-19.1688
-19.0172
-18.9958
-18.9347
-18.8912
-18.8241
-18.7902
-18.7807
-19.0983
-19.593
-19.8171
-20.6992
-22.0381
-22.2778
-22.1737
-22.0512
-21.9845
-36.6399
-34.3083
-33.6374
-30.6946
-28.1151
-28.1394
-27.0877
-25.9259
-26.3483
-26.2481
-26.705
-25.8973
-25.3425
-25.662
-24.507
-23.3871
-23.6869
-23.2716
-22.7171
-23.0982
-23.1277
-23.4841
-23.0183
-22.7026
-22.9397
-22.2425
-21.5926
-21.8558
-21.8532
-22.139
-21.7404
-21.4681
-21.6584
-21.0388
-20.4318
-20.5968
-20.365
-20.052
-20.2488
-20.2471
-20.4201
-20.14
-19.9366
-20.025
-19.6196
-19.2324
-19.2791
-19.1188
-18.9313
-18.9433
-18.8702
-18.8275
-18.7363
-18.6839
-18.6012
-18.9656
-19.5666
-19.619
-20.6285
-22.3967
-22.5138
-22.2999
-22.1255
-22.0393
-37.7312
-34.4826
-34.3997
-30.7209
-27.5265
-28.2556
-27.0078
-25.4811
-26.3513
-26.1456
-26.9943
-25.8711
-25.1896
-25.9814
-24.4688
-23.0119
-23.7401
-23.2177
-22.4391
-23.0976
-23.0624
-23.6665
-22.9981
-22.5991
-23.1337
-22.2038
-21.3406
-21.8489
-21.7956
-22.2924
-21.7262
-21.3865
-21.8329
-21.0181
-20.2261
-20.6254
-20.3343
-19.8975
-20.246
-20.2075
-20.5147
-20.1228
-19.8727
-20.1167
-19.5893
-19.0958
-19.268
-19.0733
-18.8332
-18.8998
-18.806
-18.7705
-18.6493
-18.5845
-18.3937
-18.8197
-19.5851
-19.3527
-20.5001
-22.8721
-22.7663
-22.4176
-22.1894
-22.0848
-39.0133
-34.4179
-35.3921
-30.7104
-26.6757
-28.5112
-26.9517
-24.8799
-26.4327
-25.9707
-27.4155
-25.8138
-24.9356
-26.4557
-24.4283
-22.4928
-23.8825
-23.185
-22.0678
-23.1476
-22.9533
-23.9343
-22.9591
-22.4318
-23.4265
-22.1619
-20.999
-21.8831
-21.7003
-22.5169
-21.6961
-21.2509
-22.0922
-20.9966
-19.9421
-20.7033
-20.3157
-19.6921
-20.2716
-20.1445
-20.6564
-20.0959
-19.7753
-20.261
-19.5578
-18.9163
-19.2841
-19.033
-18.7169
-18.87
-18.7404
-18.7222
-18.5619
-18.4986
-18.1499
-18.6553
-19.6757
-18.9968
-20.2876
-23.5084
-23.026
-22.5213
-22.2414
-22.1206
-40.548
-33.9837
-36.7201
-30.6568
-25.4685
-28.9828
-26.9324
-24.062
-26.6451
-25.676
-28.0225
-25.7105
-24.5321
-27.147
-24.3834
-21.7735
-24.1584
-23.1818
-21.5655
-23.2806
-22.7704
-24.3215
-22.8918
-22.1699
-23.8579
-22.1151
-20.5351
-21.9871
-21.5425
-22.8414
-21.6422
-21.0351
-22.4699
-20.9734
-19.5487
-20.8547
-20.3136
-19.4151
-20.3432
-20.0416
-20.8638
-20.0542
-19.6283
-20.4786
-19.5235
-18.677
-19.341
-18.9989
-18.5742
-18.8603
-18.6703
-18.6855
-18.4719
-18.4355
-17.8594
-18.4636
-19.8761
-18.5242
-19.9551
-24.3652
-23.2763
-22.6054
-22.2805
-22.1466
-42.4185
-32.9991
-38.5294
-30.5518
-23.7801
-29.7745
-26.9641
-22.9453
-27.0655
-25.1914
-28.8885
-25.5423
-23.9138
-28.138
-24.3311
-20.7793
-24.6281
-23.2179
-20.8809
-23.5439
-22.4695
-24.8745
-22.7841
-21.7718
-24.4809
-22.0603
-19.9055
-22.2025
-21.2849
-23.3048
-21.5543
-20.7037
-23.011
-20.9467
-19.0051
-21.1126
-20.3336
-19.0381
-20.487
-19.8744
-21.1622
-19.9907
-19.4095
-20.7974
-19.4841
-18.3556
-19.457
-18.9713
-18.3942
-18.8801
-18.5906
-18.6645
-18.3749
-18.4081
-17.509
-18.2307
-20.237
-17.9013
-19.4544
-25.5219
-23.4905
-22.6646
-22.306
-22.1632
-44.7359
-31.2202
-41.0168
-30.3836
-21.4491
-31.0249
-27.0623
-21.4209
-27.8028
-24.4162
-30.1116
-25.285
-22.9943
-29.5361
-24.2666
-19.4132
-25.3718
-23.3044
-19.9456
-24.0046
-21.9869
-25.6553
-22.6203
-21.1823
-25.3641
-21.9927
-19.0532
-22.588
-20.8739
-23.9591
-21.4194
-20.2092
-23.7731
-20.9138
-18.2574
-21.5203
-20.381
-18.5228
-20.739
-19.6073
-21.5846
-19.8959
-19.0887
-21.2527
-19.4347
-17.9215
-19.6553
-18.9485
-18.1606
-18.9407
-18.4922
-18.6627
-18.262
-18.4316
-17.0805
-17.9333
-20.8223
-17.084
-18.719
-27.0787
-23.6246
-22.6911
-22.3144
-22.1673
)
;

boundaryField
{
    left
    {
        type            calculated;
        value           nonuniform List<scalar> 
32
(
-27.5091
-27.5365
-27.5889
-27.6642
-27.7608
-27.8776
-28.0138
-28.1692
-28.3437
-28.5375
-28.7513
-28.9859
-29.2422
-29.5216
-29.8258
-30.1565
-30.5161
-30.9069
-31.332
-31.7947
-32.2991
-32.8504
-33.4552
-34.1221
-34.8631
-35.6947
-36.6399
-37.7312
-39.0133
-40.548
-42.4185
-44.7359
)
;
    }
    right
    {
        type            calculated;
        value           nonuniform List<scalar> 
32
(
-20.5105
-20.5165
-20.5281
-20.545
-20.5672
-20.5946
-20.6273
-20.6653
-20.7089
-20.758
-20.8127
-20.8731
-20.9389
-21.0099
-21.0859
-21.1662
-21.2501
-21.3369
-21.4255
-21.5147
-21.6032
-21.6895
-21.7722
-21.8499
-21.921
-21.9845
-22.0393
-22.0848
-22.1206
-22.1466
-22.1632
-22.1673
)
;
    }
    interface
    {
        type            calculated;
        value           nonuniform List<scalar> 
64
(
-46.0222
-30.0971
-42.4582
-30.282
-20.1003
-31.7845
-27.1299
-20.5412
-28.2667
-23.9411
-30.8264
-25.1307
-22.447
-30.352
-24.2307
-18.6235
-25.8236
-23.3617
-19.4055
-24.2941
-21.6908
-26.1114
-22.5223
-20.8318
-25.8805
-21.955
-18.5634
-22.8318
-20.622
-24.3413
-21.3383
-19.9145
-24.2175
-20.8952
-17.8248
-21.7677
-20.4121
-18.2251
-20.8972
-19.4434
-21.8313
-19.8392
-18.8984
-21.5192
-19.4067
-17.6719
-19.7782
-18.9377
-18.0278
-18.9826
-18.4367
-18.667
-18.1999
-18.4581
-16.844
-17.7647
-21.1797
-16.6204
-18.2829
-27.9708
-23.6647
-22.6949
-22.3135
-22.1653
)
;
    }
    bottom
    {
        type            calculated;
        value           nonuniform List<scalar> 
64
(
-27.502
-27.4683
-27.4021
-27.3052
-27.1803
-27.0307
-26.86
-26.6716
-26.469
-26.2556
-26.0341
-25.8072
-25.5772
-25.3459
-25.1152
-24.8863
-24.6604
-24.4384
-24.221
-24.0087
-23.8016
-23.5999
-23.4038
-23.213
-23.0275
-22.8473
-22.6722
-22.5021
-22.3371
-22.177
-22.022
-21.872
-21.7272
-21.5878
-21.4538
-21.3257
-21.2034
-21.0874
-20.9778
-20.8748
-20.7787
-20.6897
-20.6082
-20.5345
-20.4689
-20.4117
-20.3633
-20.324
-20.2939
-20.2731
-20.2616
-20.259
-20.2647
-20.278
-20.2978
-20.3228
-20.3514
-20.3819
-20.4124
-20.4413
-20.4667
-20.4872
-20.5015
-20.5089
)
;
    }
    defaultFaces
    {
        type            empty;
    }
}


// ************************************************************************* //
