/*--------------------------------*- C++ -*----------------------------------*\
| =========                 |                                                 |
| \\      /  F ield         | OpenFOAM: The Open Source CFD Toolbox           |
|  \\    /   O peration     | Version:  5.x                                   |
|   \\  /    A nd           | Web:      www.OpenFOAM.org                      |
|    \\/     M anipulation  |                                                 |
\*---------------------------------------------------------------------------*/
FoamFile
{
    version     2.0;
    format      ascii;
    class       volScalarField;
    location    "3.3999";
    object      T;
}
// * * * * * * * * * * * * * * * * * * * * * * * * * * * * * * * * * * * * * //

dimensions      [0 0 0 1 0 0 0];

internalField   nonuniform List<scalar> 
2048
(
9.80242
9.80266
9.80314
9.80383
9.80473
9.8058
9.80703
9.80838
9.80984
9.81137
9.81296
9.81459
9.81625
9.81791
9.81957
9.82121
9.82283
9.82443
9.82599
9.82752
9.829
9.83045
9.83186
9.83323
9.83456
9.83586
9.83712
9.83834
9.83952
9.84067
9.84179
9.84287
9.84391
9.84491
9.84587
9.84679
9.84767
9.8485
9.84929
9.85003
9.85072
9.85136
9.85194
9.85247
9.85295
9.85336
9.8537
9.85399
9.8542
9.85435
9.85444
9.85445
9.85441
9.85432
9.85418
9.854
9.85379
9.85357
9.85335
9.85314
9.85296
9.85281
9.85271
9.85266
9.4157
9.41642
9.41784
9.41991
9.42258
9.42578
9.42943
9.43345
9.43777
9.44232
9.44704
9.45187
9.45677
9.46169
9.4666
9.47147
9.47627
9.48099
9.48561
9.49012
9.49452
9.4988
9.50297
9.50702
9.51096
9.51479
9.5185
9.52212
9.52562
9.52902
9.53231
9.5355
9.53858
9.54154
9.54438
9.54711
9.54971
9.55217
9.5545
9.55669
9.55873
9.56062
9.56236
9.56392
9.56532
9.56654
9.56757
9.5684
9.56904
9.56948
9.56973
9.56978
9.56965
9.56936
9.56893
9.56839
9.56778
9.56712
9.56646
9.56584
9.56529
9.56484
9.56453
9.56438
9.04534
9.04654
9.04889
9.05233
9.05675
9.06203
9.06806
9.07468
9.0818
9.08928
9.09703
9.10496
9.113
9.12106
9.1291
9.13707
9.14493
9.15264
9.1602
9.16757
9.17475
9.18175
9.18855
9.19516
9.20159
9.20784
9.21391
9.2198
9.22553
9.23108
9.23646
9.24166
9.24669
9.25153
9.25618
9.26063
9.26487
9.2689
9.27271
9.27629
9.27963
9.28272
9.28556
9.28812
9.29041
9.2924
9.29409
9.29546
9.2965
9.29722
9.29761
9.29769
9.29747
9.29698
9.29625
9.29534
9.2943
9.2932
9.29208
9.29104
9.29011
9.28937
9.28885
9.28858
8.69036
8.69203
8.69533
8.70014
8.70632
8.71369
8.72207
8.73128
8.74114
8.7515
8.76221
8.77316
8.78423
8.79534
8.80641
8.81737
8.82817
8.83877
8.84914
8.85925
8.8691
8.87869
8.88801
8.89707
8.90588
8.91444
8.92275
8.93083
8.93867
8.94628
8.95366
8.9608
8.96769
8.97433
8.98071
8.98682
8.99265
8.99818
9.0034
9.00832
9.0129
9.01715
9.02105
9.02458
9.02773
9.03047
9.03279
9.03467
9.03611
9.03709
9.03762
9.0377
9.03737
9.03666
9.03563
9.03433
9.03284
9.03126
9.02967
9.02817
9.02685
9.02579
9.02505
9.02466
8.34984
8.35201
8.35628
8.36249
8.37045
8.37993
8.39069
8.40247
8.41506
8.42826
8.44188
8.45578
8.46983
8.4839
8.4979
8.51176
8.5254
8.53878
8.55184
8.56459
8.57699
8.58905
8.60078
8.61217
8.62325
8.63402
8.64448
8.65465
8.66452
8.67409
8.68338
8.69237
8.70105
8.70942
8.71747
8.72517
8.73251
8.73948
8.74608
8.75227
8.75806
8.76342
8.76835
8.77281
8.77679
8.78026
8.7832
8.78558
8.78739
8.78863
8.78928
8.78936
8.7889
8.78795
8.78657
8.78484
8.78287
8.78078
8.77867
8.77669
8.77495
8.77354
8.77255
8.77205
8.02295
8.02565
8.03092
8.0386
8.0484
8.06004
8.0732
8.08758
8.1029
8.11891
8.13541
8.1522
8.16915
8.18611
8.20298
8.21964
8.23603
8.25208
8.26774
8.283
8.29785
8.31227
8.3263
8.33992
8.35317
8.36604
8.37856
8.39071
8.40252
8.41398
8.42509
8.43586
8.44626
8.45629
8.46593
8.47516
8.48397
8.49233
8.50023
8.50766
8.5146
8.52104
8.52696
8.53233
8.53712
8.5413
8.54484
8.54771
8.54989
8.55136
8.55212
8.55218
8.55158
8.55036
8.5486
8.54641
8.54391
8.54125
8.53859
8.53607
8.53386
8.53208
8.53083
8.53019
7.70894
7.71219
7.71853
7.72774
7.73947
7.75334
7.76896
7.78597
7.80402
7.82284
7.84217
7.86182
7.88162
7.9014
7.92105
7.94044
7.95949
7.97812
7.99628
8.01395
8.03113
8.04782
8.06403
8.07978
8.0951
8.10998
8.12445
8.1385
8.15216
8.16542
8.17829
8.19075
8.20281
8.21444
8.22561
8.23632
8.24653
8.25622
8.26539
8.27401
8.28206
8.28954
8.29642
8.30267
8.30825
8.31313
8.31727
8.32062
8.32316
8.32486
8.32571
8.32574
8.32496
8.32344
8.32127
8.31857
8.31549
8.31222
8.30893
8.30582
8.30309
8.3009
8.29936
8.29857
7.4071
7.41093
7.41842
7.42926
7.443
7.4592
7.47736
7.49703
7.51784
7.53946
7.56161
7.58408
7.60667
7.62921
7.65157
7.67362
7.69524
7.71636
7.73693
7.75691
7.77632
7.79516
7.81345
7.83123
7.84852
7.86532
7.88165
7.89752
7.91294
7.92793
7.94247
7.95657
7.97021
7.98338
7.99604
8.00816
8.01972
8.0307
8.04108
8.05084
8.05997
8.06846
8.07627
8.08338
8.08974
8.0953
8.10002
8.10385
8.10674
8.10867
8.10961
8.10958
8.10861
8.10677
8.10414
8.10088
8.09717
8.0932
8.08922
8.08547
8.08216
8.07951
8.07765
8.0767
7.11676
7.12123
7.12996
7.14254
7.15843
7.17705
7.19783
7.22024
7.24383
7.26824
7.29318
7.31842
7.34376
7.36901
7.39403
7.41865
7.44278
7.4663
7.48917
7.51137
7.5329
7.55379
7.57407
7.59377
7.61293
7.63156
7.64967
7.66728
7.68439
7.70101
7.71716
7.73283
7.748
7.76265
7.77674
7.79023
7.8031
7.81531
7.82686
7.83772
7.84788
7.85734
7.86606
7.87401
7.88113
7.88738
7.89268
7.89698
7.90022
7.90237
7.90339
7.9033
7.90212
7.89992
7.8968
7.89292
7.8885
7.88377
7.87903
7.87455
7.87061
7.86745
7.86525
7.86412
6.83731
6.84249
6.85256
6.86701
6.88519
6.90638
6.92987
6.95507
6.98146
7.00866
7.03637
7.06434
7.09238
7.12029
7.1479
7.17504
7.20159
7.22744
7.25253
7.27684
7.30039
7.32322
7.34538
7.36692
7.38787
7.40824
7.42805
7.4473
7.46602
7.48422
7.5019
7.51907
7.53572
7.5518
7.56727
7.58209
7.59621
7.60962
7.62228
7.6342
7.64536
7.65575
7.66536
7.67413
7.68201
7.68893
7.69481
7.69958
7.70318
7.70554
7.70665
7.70649
7.70508
7.70248
7.69883
7.69428
7.68908
7.68351
7.67792
7.67264
7.66801
7.66429
7.6617
7.66037
6.56817
6.57412
6.58567
6.60217
6.6228
6.64668
6.673
6.70105
6.73027
6.76026
6.79069
6.82135
6.85204
6.88255
6.9127
6.94231
6.97122
6.99931
7.02652
7.05284
7.07831
7.10298
7.12693
7.15021
7.17286
7.19489
7.21632
7.23715
7.2574
7.27709
7.29625
7.31487
7.33293
7.35039
7.3672
7.3833
7.39864
7.41319
7.42693
7.43985
7.45197
7.46328
7.47375
7.48333
7.49195
7.49954
7.50601
7.51126
7.51521
7.5178
7.51898
7.51874
7.51709
7.51408
7.50985
7.50457
7.49852
7.49203
7.48549
7.47933
7.47392
7.4696
7.46659
7.46505
6.30878
6.3156
6.32877
6.3475
6.37077
6.39752
6.42678
6.45775
6.48982
6.52256
6.55569
6.58898
6.62226
6.65533
6.68798
6.71999
6.7512
6.78145
6.8107
6.83893
6.86621
6.89262
6.91826
6.94319
6.96746
6.99108
7.01405
7.03638
7.05809
7.07921
7.09977
7.11978
7.13921
7.15802
7.17613
7.19347
7.20998
7.22562
7.24039
7.25429
7.26732
7.27951
7.29081
7.30119
7.31056
7.31882
7.32587
7.33161
7.33592
7.33874
7.34
7.33968
7.33778
7.33434
7.32949
7.32342
7.31644
7.30893
7.30136
7.29422
7.28796
7.28297
7.27952
7.27776
6.05864
6.06641
6.08139
6.10257
6.1287
6.15849
6.1908
6.22475
6.25966
6.29513
6.3309
6.36678
6.40261
6.43818
6.47327
6.50765
6.54109
6.57344
6.60463
6.63467
6.66365
6.6917
6.71893
6.74543
6.77125
6.79638
6.82083
6.84458
6.86768
6.89015
6.91206
6.9334
6.95416
6.97427
6.99365
7.0122
7.02984
7.04654
7.06228
7.0771
7.09102
7.10404
7.11617
7.12733
7.13744
7.14638
7.15403
7.16025
7.16494
7.168
7.16935
7.16895
7.16679
7.1629
7.15739
7.15048
7.14249
7.13387
7.12516
7.11693
7.10975
7.10404
7.10011
7.09811
5.81723
5.82609
5.84308
5.86696
5.89617
5.92919
5.96469
6.00166
6.03942
6.07757
6.11592
6.15432
6.19263
6.23066
6.26817
6.30486
6.34048
6.37485
6.40789
6.43964
6.47022
6.4998
6.52853
6.55652
6.58381
6.61039
6.63625
6.66136
6.68577
6.70953
6.73271
6.75534
6.77739
6.79877
6.81939
6.83911
6.85784
6.87555
6.89223
6.90792
6.92267
6.93651
6.94943
6.96137
6.97223
6.98185
6.9901
6.99683
7.0019
7.0052
7.00665
7.00618
7.00377
6.99941
6.99322
6.98541
6.97633
6.96649
6.95652
6.94711
6.93891
6.93244
6.92801
6.92576
5.5841
5.59417
5.61341
5.64026
5.67283
5.70927
5.74807
5.78812
5.82871
5.86948
5.91032
5.95117
5.99191
6.03236
6.07224
6.11121
6.14896
6.18529
6.2201
6.25345
6.28551
6.31651
6.34664
6.37604
6.40474
6.43273
6.45994
6.48634
6.51198
6.53695
6.56135
6.58521
6.60851
6.63115
6.65298
6.67384
6.69364
6.71231
6.72987
6.74638
6.76192
6.77655
6.79025
6.80296
6.81455
6.82488
6.83374
6.84098
6.84645
6.85001
6.85157
6.85104
6.84838
6.84355
6.83665
6.82789
6.81764
6.80647
6.79512
6.7844
6.77511
6.76782
6.76286
6.76037
5.35877
5.37022
5.39198
5.42213
5.45835
5.49842
5.54064
5.5838
5.62717
5.67047
5.71371
5.75692
5.80004
5.84286
5.88509
5.92633
5.96616
6.00437
6.04086
6.0757
6.10913
6.14143
6.17289
6.20363
6.23368
6.26302
6.29153
6.31916
6.34595
6.37206
6.39761
6.42267
6.44718
6.47105
6.49407
6.51606
6.53688
6.55647
6.57486
6.59214
6.60842
6.6238
6.63826
6.65173
6.66408
6.67511
6.68461
6.69237
6.69824
6.70208
6.70377
6.7032
6.70029
6.69501
6.68738
6.67761
6.6661
6.6535
6.64062
6.62847
6.61799
6.60985
6.60436
6.60162
5.14083
5.15384
5.17843
5.21223
5.25241
5.29633
5.34208
5.38837
5.43445
5.48018
5.52571
5.5712
5.61662
5.66177
5.70635
5.74983
5.79171
5.83174
5.86982
5.90604
5.9407
5.97421
6.00689
6.0389
6.07026
6.10091
6.13068
6.15946
6.18733
6.21449
6.24115
6.26734
6.29305
6.31813
6.34235
6.36543
6.38724
6.40771
6.42687
6.44486
6.46184
6.47792
6.49313
6.50736
6.52048
6.53223
6.54237
6.55067
6.55696
6.56109
6.56291
6.56233
6.55921
6.55346
6.5451
6.53428
6.52144
6.50728
6.49273
6.479
6.46725
6.45822
6.45221
6.44922
4.92984
4.94464
4.97239
5.01025
5.05473
5.1027
5.15209
5.20152
5.25024
5.29826
5.34593
5.39361
5.44127
5.48872
5.53564
5.58136
5.62526
5.66705
5.70663
5.7441
5.77987
5.81445
5.84828
5.8815
5.91412
5.94607
5.97707
6.00693
6.03579
6.06393
6.09161
6.11891
6.14578
6.17208
6.19748
6.22164
6.24441
6.26572
6.28559
6.30422
6.32184
6.33861
6.35454
6.36953
6.38343
6.39592
6.40671
6.41557
6.42229
6.42672
6.4287
6.42812
6.42481
6.41863
6.40953
6.39762
6.38336
6.36753
6.35116
6.33568
6.32256
6.31264
6.30611
6.3029
4.72541
4.74224
4.77353
4.81591
4.86507
4.91729
4.97041
5.02298
5.0742
5.12435
5.17402
5.22379
5.27363
5.32333
5.37261
5.4206
5.46646
5.50995
5.55095
5.58955
5.62628
5.66182
5.69672
5.7311
5.76494
5.79816
5.83037
5.86126
5.89101
5.92002
5.94869
5.97705
6.00505
6.03258
6.05917
6.08439
6.10809
6.13019
6.15071
6.16992
6.18811
6.20554
6.22218
6.23793
6.25262
6.26589
6.27734
6.28676
6.29393
6.29867
6.30083
6.30027
6.29681
6.29023
6.2804
6.26736
6.25162
6.23399
6.21561
6.1982
6.18363
6.1728
6.1658
6.1624
4.52713
4.5463
4.58154
4.62894
4.6832
4.73985
4.79677
4.85246
4.90605
4.95812
5.00961
5.06138
5.11335
5.16525
5.21692
5.26722
5.315
5.36014
5.40249
5.44207
5.47961
5.51597
5.55188
5.58737
5.62238
5.65689
5.69031
5.72214
5.75267
5.78247
5.81206
5.84145
5.87056
5.89933
5.92714
5.9534
5.978
6.00086
6.02195
6.04165
6.06036
6.07842
6.09576
6.11226
6.12777
6.14184
6.15397
6.16396
6.17159
6.17664
6.179
6.1785
6.17492
6.16799
6.15744
6.14326
6.12594
6.10643
6.08583
6.06627
6.05015
6.03846
6.03104
6.02748
4.33462
4.3565
4.39611
4.4491
4.50893
4.57012
4.6309
4.68972
4.74548
4.79925
4.85235
4.90605
4.96009
5.01412
5.06825
5.12092
5.17057
5.2173
5.26093
5.30134
5.33954
5.37658
5.41342
5.44999
5.48613
5.52197
5.55662
5.5893
5.62051
5.65097
5.68144
5.71183
5.742
5.77205
5.80112
5.82838
5.85386
5.87744
5.89904
5.91915
5.93831
5.95697
5.975
5.99223
6.0086
6.02351
6.03631
6.04688
6.05499
6.06037
6.06293
6.06252
6.05888
6.05164
6.04042
6.02505
6.0061
5.9846
5.96158
5.93958
5.92185
5.90934
5.90159
5.89793
4.14751
4.17255
4.21694
4.27619
4.34208
4.40786
4.47257
4.53451
4.59221
4.64743
4.70188
4.75747
4.81353
4.86958
4.92628
4.98144
5.03286
5.08114
5.12602
5.16708
5.20575
5.2433
5.28107
5.31869
5.35589
5.39311
5.42905
5.46247
5.49422
5.52522
5.55655
5.58791
5.61909
5.65047
5.68087
5.70908
5.73541
5.75971
5.7817
5.80213
5.82165
5.84091
5.85964
5.87757
5.89485
5.91065
5.92411
5.93527
5.94386
5.94956
5.95235
5.95206
5.94841
5.94093
5.92909
5.91251
5.89186
5.86832
5.84262
5.81786
5.79844
5.78521
5.77725
5.77354
3.96542
3.9942
4.04373
4.11
4.18255
4.25284
4.32151
4.38663
4.44595
4.50234
4.55785
4.61532
4.67338
4.73128
4.79072
4.84853
4.90157
4.95136
4.99748
5.03899
5.07795
5.11582
5.15452
5.19318
5.23133
5.27006
5.30737
5.34141
5.37355
5.40492
5.43711
5.46942
5.50152
5.53434
5.56615
5.59523
5.6224
5.64741
5.66969
5.69036
5.71014
5.73
5.74941
5.76801
5.78626
5.80301
5.81712
5.82886
5.83797
5.84398
5.847
5.84685
5.84325
5.83561
5.82323
5.80541
5.78298
5.7574
5.72875
5.70078
5.67965
5.66585
5.6578
5.65413
3.78796
3.82125
3.87615
3.95036
4.03026
4.10479
4.17746
4.24589
4.30643
4.3637
4.41988
4.47933
4.53938
4.59885
4.66128
4.72199
4.7764
4.82768
4.8751
4.91679
4.95586
4.99383
5.03351
5.07321
5.11216
5.15255
5.19139
5.22586
5.25825
5.2898
5.32288
5.35615
5.38901
5.4234
5.45677
5.48658
5.51459
5.54034
5.56278
5.58357
5.60349
5.624
5.64411
5.66328
5.6826
5.7004
5.71507
5.72741
5.73706
5.74336
5.74662
5.74665
5.74317
5.73545
5.72263
5.70353
5.67923
5.65168
5.61978
5.58803
5.56521
5.55105
5.54308
5.53951
3.61474
3.65358
3.71387
3.79709
3.88519
3.96341
4.04016
4.11215
4.17336
4.23124
4.28761
4.34922
4.4113
4.4719
4.53767
4.60165
4.65703
4.70982
4.75868
4.80022
4.83923
4.87699
4.91779
4.95858
4.99804
5.04034
5.08095
5.11558
5.14808
5.17954
5.21363
5.24787
5.28126
5.31742
5.35254
5.38288
5.41173
5.4383
5.46071
5.48154
5.50144
5.52268
5.54351
5.56312
5.58363
5.6026
5.61774
5.63069
5.64092
5.64746
5.65098
5.6512
5.64791
5.64021
5.6271
5.60665
5.58036
5.55106
5.51557
5.47927
5.45486
5.44061
5.43291
5.42953
3.44534
3.49116
3.55646
3.65005
3.74743
3.82835
3.90932
3.98529
4.04643
4.10471
4.16062
4.22476
4.28896
4.35
4.41965
4.4874
4.54313
4.5975
4.64806
4.68899
4.72783
4.76497
4.80714
4.84908
4.88864
4.9332
4.97591
5.01033
5.04284
5.07386
5.10915
5.14441
5.17796
5.21618
5.25333
5.28386
5.31358
5.34112
5.36326
5.38407
5.40372
5.42582
5.44743
5.46726
5.48914
5.50945
5.52488
5.53846
5.54935
5.55605
5.55984
5.56027
5.55725
5.54966
5.53645
5.51457
5.48611
5.45543
5.416
5.37412
5.34836
5.33438
5.32714
5.32404
3.2793
3.33413
3.40344
3.50911
3.61714
3.6992
3.78465
3.86529
3.9253
3.98393
4.03845
4.10573
4.17226
4.23267
4.30696
4.37922
4.43433
4.49042
4.54312
4.58281
4.62145
4.6574
4.70134
4.74458
4.78359
4.83091
4.8762
4.90986
4.94232
4.97241
5.00924
5.04563
5.07876
5.11946
5.15905
5.18924
5.21992
5.24868
5.27018
5.29097
5.31007
5.33325
5.3557
5.37541
5.39892
5.4208
5.43624
5.4505
5.46215
5.46889
5.47299
5.47362
5.47096
5.46357
5.45054
5.42711
5.39618
5.36476
5.32099
5.27214
5.24547
5.23219
5.22563
5.22288
3.11609
3.1828
3.25417
3.37415
3.49466
3.57542
3.66583
3.7522
3.80958
3.86876
3.92059
3.99197
4.06115
4.11935
4.19936
4.27715
4.33021
4.38831
4.44383
4.48136
4.51993
4.55389
4.60023
4.645
4.68246
4.73326
4.7818
4.81387
4.8464
4.87486
4.91373
4.95143
4.98329
5.02706
5.06966
5.09872
5.13052
5.16087
5.18124
5.20207
5.22018
5.24478
5.26821
5.28726
5.31278
5.33656
5.35158
5.36659
5.37917
5.38577
5.39021
5.39102
5.38882
5.3817
5.36923
5.34408
5.31023
5.27905
5.23056
5.17284
5.14601
5.13394
5.12826
5.12593
2.95509
3.03774
3.10783
3.24505
3.38047
3.45634
3.5525
3.64621
3.69879
3.75917
3.80644
3.88334
3.95571
4.00938
4.09663
4.18137
4.23027
4.29085
4.35021
4.38427
4.4232
4.45399
4.50365
4.55032
4.58476
4.64005
4.69274
4.72205
4.75496
4.78081
4.82248
4.86179
4.89111
4.93879
4.98517
5.01195
5.04513
5.07763
5.09616
5.11726
5.13374
5.16028
5.18487
5.2025
5.23053
5.25665
5.27062
5.28654
5.30026
5.30643
5.31133
5.31227
5.31064
5.30381
5.29241
5.26533
5.22784
5.19838
5.14476
5.07559
5.0498
5.03951
5.03491
5.03305
2.79554
2.89987
2.96335
3.12171
3.27529
3.34109
3.44428
3.54763
3.59232
3.65527
3.69529
3.77977
3.85615
3.90194
3.99856
4.0922
4.13392
4.19773
4.2624
4.2911
4.33125
4.35718
4.4115
4.4606
4.48993
4.55109
4.60915
4.634
4.66801
4.6898
4.73538
4.77674
4.80172
4.85447
4.90571
4.92855
4.96353
4.99898
5.01462
5.03648
5.0504
5.0796
5.10565
5.12074
5.15201
5.18105
5.19307
5.21014
5.22531
5.23066
5.23616
5.23713
5.23624
5.22964
5.22002
5.19072
5.14851
5.12286
5.06377
4.97967
4.95676
4.94882
4.94545
4.94411
2.63651
2.77055
2.81933
3.00407
3.18015
3.22857
3.3408
3.45699
3.48938
3.55732
3.58624
3.68124
3.76284
3.79607
3.90496
4.01015
4.04041
4.10863
4.18065
4.2013
4.2442
4.26285
4.3237
4.37602
4.39727
4.46621
4.53128
4.54923
4.58562
4.6013
4.65236
4.69642
4.71453
4.77393
4.83147
4.84804
4.88546
4.92499
4.93626
4.95972
4.96976
5.00264
5.03057
5.04155
5.07706
5.10981
5.1186
5.1372
5.15424
5.15818
5.16457
5.16539
5.16544
5.1589
5.152
5.12018
5.07163
5.05272
4.98787
4.88416
4.86687
4.86183
4.85978
4.85897
2.47687
2.65172
2.67392
2.89205
3.09638
3.11737
3.24161
3.37505
3.38893
3.46586
3.47823
3.58777
3.67634
3.69054
3.81566
3.93592
3.94885
4.02321
4.10538
4.11416
4.16232
4.17026
4.24023
4.29691
4.30597
4.38527
4.45947
4.46714
4.50799
4.51467
4.57336
4.62108
4.62881
4.69702
4.7628
4.76988
4.81069
4.85584
4.86064
4.88707
4.89136
4.92933
4.95974
4.96444
5.00555
5.04305
5.04683
5.06754
5.08703
5.08874
5.09642
5.09683
5.09811
5.09128
5.08838
5.05367
4.99644
4.98825
4.91749
4.78794
4.78021
4.77847
4.77778
4.77752
)
;

boundaryField
{
    left
    {
        type            zeroGradient;
    }
    right
    {
        type            zeroGradient;
    }
    interface
    {
        type            fixedValue;
        value           nonuniform List<scalar> 
64
(
2.39421
2.59766
2.59766
2.83767
3.06028
3.06028
3.19288
3.33816
3.33816
3.42286
3.42286
3.54263
3.63603
3.63603
3.77214
3.90247
3.90247
3.98125
4.07053
4.07053
4.12336
4.12336
4.19978
4.25949
4.25949
4.34583
4.42613
4.42613
4.47096
4.47096
4.53503
4.58532
4.58532
4.65949
4.73079
4.73079
4.77403
4.82311
4.82311
4.85215
4.85215
4.8937
4.92579
4.92579
4.9707
5.01131
5.01131
5.03353
5.05465
5.05465
5.06331
5.06331
5.06543
5.05812
5.05812
5.02176
4.9584
4.9584
4.88466
4.73771
4.73771
4.73771
4.73771
4.73771
)
;
    }
    bottom
    {
        type            fixedValue;
        value           uniform 10;
    }
    defaultFaces
    {
        type            empty;
    }
}


// ************************************************************************* //
