/*--------------------------------*- C++ -*----------------------------------*\
| =========                 |                                                 |
| \\      /  F ield         | OpenFOAM: The Open Source CFD Toolbox           |
|  \\    /   O peration     | Version:  5.x                                   |
|   \\  /    A nd           | Web:      www.OpenFOAM.org                      |
|    \\/     M anipulation  |                                                 |
\*---------------------------------------------------------------------------*/
FoamFile
{
    version     2.0;
    format      ascii;
    class       volScalarField;
    location    "8.6";
    object      gradTy;
}
// * * * * * * * * * * * * * * * * * * * * * * * * * * * * * * * * * * * * * //

dimensions      [0 -1 0 1 0 0 0];

internalField   nonuniform List<scalar> 
6300
(
1031.7
1095.35
1159.72
1225.28
1292.48
1361.73
1433.38
1507.73
1585
1665.27
1748.53
1834.64
1923.28
2014.02
2106.28
-0.364707
-1.08749
-1.78982
-2.45622
-3.06869
-3.60602
-4.04366
-4.35428
-4.50931
-4.48172
-4.24989
-3.80237
-3.14264
-2.29237
-1.29179
-0.615226
-1.83525
-3.02299
-4.15371
-5.19807
-6.12088
-6.88059
-7.42992
-7.71824
-7.69613
-7.3223
-6.5725
-5.44886
-3.98715
-2.2585
-0.876179
-2.61528
-4.31316
-5.93749
-7.44891
-8.79875
-9.9278
-10.7664
-11.2375
-11.2621
-10.7705
-9.71632
-8.09303
-5.94874
-3.39178
-1.15037
-3.4365
-5.67684
-7.83416
-9.86125
-11.6974
-13.2653
-14.4705
-15.203
-15.3442
-14.7813
-13.4291
-11.2581
-8.32297
-4.77837
-1.43913
-4.30346
-7.12347
-9.86093
-12.4645
-14.8639
-16.9654
-18.6472
-19.7594
-20.1301
-19.5812
-17.9604
-15.187
-11.3064
-6.53035
-1.7418
-5.21473
-8.65257
-12.0216
-15.2716
-18.3284
-21.085
-23.3932
-25.0573
-25.8352
-25.4529
-23.6442
-20.223
-15.1851
-8.80607
-2.05514
-6.16102
-10.2504
-14.301
-18.2717
-22.0928
-25.6527
-28.7829
-31.2412
-32.7002
-32.7505
-30.94
-26.8754
-20.4049
-11.8476
-2.37283
-7.12369
-11.887
-16.6601
-21.4212
-26.1181
-30.6499
-34.844
-38.4239
-40.9733
-41.9086
-40.4897
-35.9333
-27.7114
-16.0629
-2.68528
-8.07379
-13.5138
-19.0308
-24.6349
-30.308
-35.9845
-41.5189
-46.6364
-50.8602
-53.4204
-53.1763
-48.6565
-38.4443
-22.2238
-2.97975
-8.97234
-15.0633
-21.3143
-27.7791
-34.4942
-41.4607
-48.6103
-55.7422
-62.4102
-67.7359
-70.1383
-67.0717
-55.1854
-32.0221
-3.2411
-9.77247
-16.4524
-23.3837
-30.6728
-38.4286
-46.7532
-55.7188
-65.3111
-75.3017
-84.9739
-92.5686
-94.306
-83.2033
-49.914
-3.45327
-10.4239
-17.5902
-25.0949
-33.0995
-41.7937
-51.4042
-62.2
-74.4808
-88.5107
-104.288
-120.855
-134.379
-133.407
-90.3113
-3.60132
-10.8794
-18.3894
-26.3058
-34.8362
-44.2419
-54.8692
-67.1954
-81.9005
-99.971
-122.812
-152.184
-188.948
-225.731
-209.695
-3.6739
-11.1028
-18.782
-26.9025
-35.697
-45.4681
-56.6347
-69.8109
-85.954
-106.659
-134.805
-176.118
-243.495
-370.871
-665.569
2191.62
2269.32
2346.7
2423.32
2498.77
2572.67
2644.67
2714.47
2781.81
2846.5
2908.35
2967.23
3023.03
3075.67
3125.08
3171.22
3214.05
3253.57
3289.75
3322.61
3352.16
3378.41
3401.4
3421.16
3437.73
3451.16
3461.51
3468.82
3473.16
3474.58
3473.16
3468.94
3462
3452.4
3440.2
3425.46
3408.25
3388.62
3366.64
3342.37
3315.87
3287.21
3256.44
3223.64
3188.86
3152.17
3113.62
3073.27
3031.19
2987.42
2942
2895
2846.44
2796.39
2744.87
2691.94
2637.66
2582.05
2525.19
2467.13
2407.93
2347.64
2286.33
2224.05
2160.88
2096.87
2032.1
1966.64
1900.55
1833.95
1766.91
1699.55
1631.98
1564.35
1496.8
1429.49
1362.57
1296.23
1230.63
1165.95
1102.37
1040.05
979.154
919.833
862.222
806.442
752.592
700.748
650.964
603.264
-0.287412
0.651735
1.58105
2.46861
3.28911
4.02526
4.66791
5.21518
5.67088
6.04274
6.3406
6.57491
6.75569
6.89171
6.99023
7.05694
7.09615
7.11101
7.10395
7.07687
7.03147
6.96937
6.89222
6.80172
6.69963
6.58773
6.46778
6.34151
6.21056
6.07646
5.94058
5.80408
5.66783
5.53241
5.39805
5.26465
5.13185
4.99911
4.86588
4.73172
4.5965
4.46049
4.32436
4.18921
4.0564
3.92736
3.80338
3.6854
3.57376
3.46815
3.36755
3.27034
3.1745
3.07784
2.97837
2.87451
2.76529
2.65048
2.53049
2.40617
2.27857
2.14853
2.01638
1.88161
1.74275
1.59728
1.44184
1.27249
1.08514
0.876052
0.642287
0.382124
0.0953089
-0.21685
-0.551556
-0.904736
-1.27135
-1.64571
-2.0218
-2.39345
-2.75449
-3.09868
-3.41972
-3.71113
-3.96635
-4.17885
-4.34261
-4.45261
-4.50547
-4.50003
-0.520978
1.10135
2.70103
4.22066
5.61578
6.85736
7.93154
8.83764
9.5849
10.189
10.6687
11.0433
11.3305
11.5456
11.7007
11.805
11.8652
11.8861
11.8712
11.8234
11.7451
11.639
11.5076
11.354
11.181
10.9917
10.789
10.5759
10.3552
10.1296
9.90124
9.67231
9.44432
9.21826
8.99448
8.77274
8.55225
8.33191
8.11051
7.88713
7.66136
7.43357
7.20498
6.97758
6.75394
6.53682
6.32874
6.13154
5.946
5.77161
5.60653
5.44775
5.29146
5.13358
4.97032
4.79874
4.61712
4.42515
4.2238
4.01499
3.801
3.58379
3.36435
3.14214
2.9147
2.67764
2.42486
2.14913
1.84286
1.49906
1.11221
0.679023
0.198928
-0.325778
-0.890095
-1.48675
-2.10682
-2.74036
-3.377
-4.0063
-4.61796
-5.2017
-5.74708
-6.24327
-6.67899
-7.04277
-7.32367
-7.51234
-7.60233
-7.59119
-0.815736
1.58403
3.93683
6.15254
8.16418
9.93116
11.4379
12.6896
13.7059
14.5152
15.1491
15.6383
16.0102
16.2868
16.4851
16.6174
16.6918
16.7137
16.6869
16.6147
16.4999
16.3458
16.1562
15.9352
15.6869
15.4159
15.1263
14.8224
14.5082
14.1875
13.8639
13.5403
13.2191
12.9019
12.5891
12.2801
11.9735
11.6673
11.3591
11.0471
10.7302
10.4089
10.0849
9.76158
9.44313
9.1343
8.83946
8.56191
8.30319
8.06266
7.83742
7.62253
7.41168
7.19802
6.97519
6.73834
6.48475
6.2142
5.92873
5.63213
5.32888
5.02306
4.71713
4.41098
4.10128
3.78138
3.44166
3.07044
2.65531
2.18473
1.6495
1.0441
0.3674
-0.377072
-1.18148
-2.0345
-2.92236
-3.83004
-4.74226
-5.64409
-6.52118
-7.35951
-8.14485
-8.86208
-9.49484
-10.0257
-10.4372
-10.7138
-10.8445
-10.8245
-1.19394
2.1343
5.36997
8.37823
11.0649
13.3797
15.3118
16.8805
18.125
19.0941
19.8379
20.4027
20.8271
21.1408
21.365
21.5134
21.5941
21.6115
21.5685
21.4675
21.3114
21.1041
20.8504
20.5558
20.2261
19.8671
19.4845
19.0839
18.6707
18.2501
17.8267
17.4051
16.9887
16.5795
16.1784
15.7844
15.3947
15.0059
14.6136
14.2143
13.8059
13.3884
12.9644
12.5389
12.1189
11.712
11.3257
10.9655
10.6346
10.3321
10.0538
9.79188
9.53633
9.276
9.00063
8.70239
8.37718
8.02506
7.65006
7.25919
6.86083
6.46283
6.07056
5.68524
5.30288
4.91399
4.50413
4.05528
3.54794
2.96379
2.28816
1.51215
0.633772
-0.341741
-1.40258
-2.53176
-3.70903
-4.91287
-6.12216
-7.31719
-8.47991
-9.59335
-10.6404
-11.6023
-12.4572
-13.1802
-13.7446
-14.1253
-14.3032
-14.2699
-1.67214
2.81817
7.13094
11.0674
14.5013
17.3796
19.7092
21.5389
22.9415
23.9979
24.7852
25.3699
25.804
26.1245
26.3549
26.5078
26.5882
26.5972
26.5344
26.4004
26.1975
25.9301
25.6045
25.2279
24.8083
24.3531
23.8697
23.3647
22.8451
22.3174
21.7882
21.2636
20.7487
20.2467
19.7588
19.2833
18.8159
18.3504
17.8792
17.3958
16.8957
16.3783
15.847
15.3095
14.7767
14.2612
13.7751
13.3283
12.9259
12.5677
12.2474
11.9531
11.6688
11.3766
11.0599
10.7062
10.3092
9.86973
9.39512
8.89788
8.39308
7.89518
7.4148
6.95603
6.51464
6.07756
5.62351
5.12504
4.55189
3.87524
3.07206
2.12827
1.04066
-0.182905
-1.52462
-2.95913
-4.45682
-5.98726
-7.522
-9.03624
-10.509
-11.9222
-13.2581
-14.4959
-15.609
-16.5626
-17.3162
-17.8283
-18.0659
-18.0127
-2.25652
3.75769
9.43373
14.4799
18.7378
22.1695
24.8259
26.8119
28.2564
29.289
30.0243
30.554
30.9445
31.2379
31.4563
31.6064
31.6852
31.6861
31.6029
31.4326
31.1765
30.84
30.4318
29.9622
29.4417
28.8801
28.2858
27.6669
27.0312
26.3871
25.7433
25.1084
24.4902
23.8939
23.3214
22.7707
22.2348
21.7031
21.1628
20.6014
20.0108
19.3883
18.7387
18.0735
17.4099
16.7681
16.1684
15.6272
15.1538
14.749
14.4038
14.1002
13.8128
13.5127
13.1727
12.7726
12.3028
11.7652
11.173
10.5477
9.91562
9.30252
8.72817
8.20202
7.72044
7.26581
6.80708
6.30259
5.70509
4.96916
4.05865
2.95174
1.64358
0.146316
-1.51276
-3.29525
-5.15715
-7.05511
-8.95101
-10.8146
-12.6236
-14.3621
-16.0164
-17.5688
-18.9898
-20.2327
-21.2348
-21.9263
-22.2467
-22.1648
-2.92745
5.18397
12.6432
19.027
24.1632
28.0748
30.9068
32.8634
34.1631
35.0068
35.5581
35.9375
36.2234
36.4583
36.6551
36.8064
36.8932
36.895
36.7956
36.5871
36.2699
35.852
35.3464
34.7686
34.1333
33.4527
32.7363
31.9921
31.2284
30.4552
29.6842
28.9282
28.199
27.5055
26.8518
26.2356
25.6466
25.0675
24.4754
23.8483
23.1706
22.4364
21.652
20.8344
20.0106
19.2135
18.4767
17.8273
17.282
16.8434
16.4995
16.2231
15.9743
15.7054
15.371
14.9385
14.3929
13.7386
12.9975
12.2064
11.41
10.6533
9.97135
9.38307
8.88672
8.45924
8.05588
7.61341
7.05698
6.31385
5.32745
4.06445
2.5183
0.70805
-1.32362
-3.51738
-5.80588
-8.12618
-10.4267
-12.6717
-14.8397
-16.9232
-18.9214
-20.8309
-22.6271
-24.2493
-25.6006
-26.5585
-27.0063
-26.8822
-3.60185
7.54881
17.4006
25.3697
31.3512
35.5335
38.2467
39.8589
40.7245
41.1434
41.3371
41.4532
41.5736
41.7311
41.9169
42.0968
42.2214
42.2472
42.143
41.8955
41.5059
40.9878
40.3626
39.6551
38.8876
38.0744
37.2242
36.3427
35.4368
34.5177
33.6011
32.707
31.8539
31.0575
30.3259
29.6587
29.0419
28.4479
27.8362
27.1659
26.4092
25.5547
24.6107
23.6017
22.5707
21.5699
20.6567
19.8754
19.2544
18.7993
18.4957
18.304
18.1626
17.9901
17.7085
17.2653
16.6375
15.8348
14.8922
13.8709
12.8453
11.8944
11.0778
10.4299
9.95203
9.6162
9.35929
9.08672
8.6761
8.00732
6.99308
5.58349
3.77195
1.58735
-0.902248
-3.60423
-6.40983
-9.2266
-11.9834
-14.6401
-17.1784
-19.6075
-21.9545
-24.2565
-26.5151
-28.6559
-30.533
-31.9252
-32.5892
-32.3979
-4.02104
11.7834
24.8679
34.5735
41.1291
45.1071
47.1714
47.9285
47.9279
47.6034
47.2265
46.9613
46.8691
46.9617
47.1859
47.4655
47.6904
47.7852
47.6951
47.4075
46.9254
46.2766
45.4957
44.6269
43.7062
42.7482
41.7559
40.7271
39.663
38.5752
37.4846
36.4253
35.426
34.515
33.7063
33.008
32.403
31.8528
31.2804
30.6066
29.7876
28.8008
27.6616
26.4
25.0859
23.7993
22.6455
21.6917
20.9869
20.5361
20.3295
20.3114
20.3945
20.4312
20.2775
19.8569
19.133
18.1314
16.8991
15.5409
14.1719
12.9413
11.9404
11.2312
10.8119
10.6587
10.6844
10.758
10.6662
10.1975
9.22732
7.6807
5.56225
2.90534
-0.175492
-3.54222
-6.99802
-10.4136
-13.6844
-16.7792
-19.6743
-22.4101
-25.0522
-27.7444
-30.5724
-33.4422
-36.163
-38.3403
-39.403
-39.0846
-3.36984
19.9341
37.2002
48.3122
54.6184
57.4364
57.9795
57.0902
55.599
54.1401
52.9564
52.2219
51.8997
52.0046
52.3767
52.9144
53.3486
53.591
53.5337
53.2011
52.5871
51.7574
50.7576
49.6757
48.5806
47.4735
46.3422
45.1649
43.9256
42.639
41.3253
40.0597
38.8735
37.8275
36.93
36.2254
35.6878
35.2919
34.8731
34.2589
33.4099
32.269
30.8914
29.276
27.5642
25.84
24.3485
23.1518
22.356
21.9237
21.8943
22.1756
22.6954
23.1488
23.2329
22.8874
22.0307
20.7625
19.0896
17.2284
15.3013
13.6596
12.3852
11.617
11.2904
11.4455
11.9426
12.6692
13.2009
13.1115
12.2934
10.603
8.12964
4.8355
0.964691
-3.35024
-7.64241
-11.8073
-15.6372
-19.2043
-22.398
-25.3459
-28.0764
-31.0353
-34.568
-38.4416
-42.5744
-46.3588
-48.2046
-47.5807
1.23182
36.7797
58.3949
68.9707
73.1289
73.0398
70.8483
67.1166
63.2221
60.2785
58.0379
56.8869
56.3139
56.661
57.3272
58.5106
59.2812
59.8268
59.7671
59.3979
58.5577
57.4816
56.1357
54.7416
53.4705
52.2321
50.9931
49.6905
48.2545
46.7401
45.0951
43.5784
42.1175
40.9245
39.8744
39.201
38.7668
38.7628
38.7457
38.2477
37.4512
36.0764
34.4622
32.2895
30.0588
27.544
25.6258
24.0334
23.2003
22.7297
23.0102
23.6949
25.0903
26.3972
26.8054
26.6528
25.5196
23.9748
21.55
19.0093
16.0188
13.8475
12.0999
11.3656
11.0744
11.7387
12.8691
14.8602
16.6287
17.0741
16.6143
14.652
11.878
7.59527
2.74368
-3.19165
-8.47058
-13.6839
-17.9688
-22.1674
-25.4758
-28.5949
-30.7716
-33.4997
-38.0722
-43.0676
-49.4872
-57.1683
-60.5618
-59.0426
21.5986
73.6876
95.4856
98.8703
97.7551
91.6696
85.9333
77.3763
69.4746
65.4033
61.5488
60.7184
59.4015
60.8567
61.5315
64.6997
65.5366
66.9326
66.4449
66.2715
64.8665
63.593
61.5819
59.629
58.3122
56.9902
55.7343
54.4068
52.6953
51.0281
48.6791
47.0156
44.9744
43.8149
42.2753
41.8308
41.2254
42.2514
43.3097
42.6652
42.3243
40.2276
38.8363
35.3852
32.9618
28.3879
26.4329
23.8206
23.5217
22.4532
23.5429
24.19
27.6118
30.9386
31.1844
31.8293
29.6
28.4536
24.1764
21.437
15.5558
13.4244
10.3549
10.4751
9.4818
11.3599
12.5553
17.371
21.961
22.3393
23.0982
19.8692
17.7983
11.1736
6.08272
-3.97864
-9.39352
-16.8976
-20.4249
-26.4122
-28.826
-33.2009
-32.6724
-33.308
-40.9672
-45.6423
-54.5826
-74.1513
-79.9925
-75.6144
113.457
154.212
159.088
135.248
129.537
109.796
105.079
86.6919
70.2106
70.2156
60.705
65.2502
58.4974
66.1758
62.1454
74.2458
70.9865
76.7509
72.6698
74.9187
70.9857
70.7667
66.9443
63.6007
63.1615
61.6535
60.579
59.6764
57.0725
56.2984
51.2764
50.9973
46.5622
47.2529
43.1
44.693
41.3352
45.6942
50.3261
46.646
49.7264
43.3636
46.1771
37.0015
38.9622
25.4612
28.1872
20.2771
24.9517
19.0696
24.7136
20.69
30.2705
39.917
34.9893
41.1449
32.1216
37.4411
24.5888
28.3895
9.69354
14.3529
4.01723
11.1886
3.75492
11.9648
7.02882
20.207
33.3582
27.057
35.3248
23.4189
30.2765
12.5436
16.5798
-11.4558
-7.30723
-25.837
-19.3377
-35.802
-29.3513
-44.8665
-32.8962
-23.0015
-48.1581
-42.074
-44.3719
-110.9
-114.137
-101.248
569.659
286.4
264.041
145.514
181.52
106.282
143.909
93.26
47.2044
88.728
39.619
86.0487
36.8102
88.3534
39.5286
105.907
63.4399
100.744
69.7768
92.4653
71.7545
83.1268
71.6149
63.3877
69.5476
65.69
65.1741
67.3937
58.8128
67.6833
47.0422
60.9613
40.7671
57.6638
35.6485
54.6825
30.331
48.7419
69.3099
40.89
70.7246
33.2838
70.7804
22.5798
67.2255
-0.834061
45.2555
-1.38993
41.5817
-0.913347
39.804
-2.40141
32.8322
69.8806
22.8321
72.3164
13.9878
72.5941
1.01927
67.7353
-29.8018
36.8728
-27.5319
32.9318
-24.4999
31.4983
-24.5833
23.0805
72.7655
10.7935
76.6002
-0.0524894
78.1639
-17.4351
73.2593
-65.279
27.4353
-70.8183
14.8167
-78.1894
1.75441
-96.111
-30.1309
37.7789
-100.335
-26.4352
58.3311
-238.787
-171.502
-144.051
553.084
501.295
452.357
406.126
362.421
321.036
281.748
244.326
208.534
174.14
140.915
108.635
77.0817
46.0441
15.314
-4.4313
-4.28002
-4.06302
-3.79348
-3.48539
-3.15202
-2.80482
-2.45287
-2.10274
-1.75862
-1.42266
-1.09539
-0.77605
-0.462965
-0.153866
-7.47011
-7.20626
-6.83001
-6.36529
-5.8371
-5.26878
-4.68003
-4.08616
-3.49793
-2.92198
-2.36149
-1.81686
-1.28647
-0.767184
-0.254928
-10.6405
-10.2447
-9.68533
-9.0004
-8.22884
-7.40584
-6.56027
-5.71372
-4.88077
-4.06984
-3.28439
-2.52408
-1.78576
-1.06436
-0.353584
-14.0056
-13.4466
-12.666
-11.722
-10.6719
-9.56536
-8.44138
-7.32761
-6.2415
-5.19214
-4.18211
-3.20925
-2.26809
-1.35091
-0.448622
-17.6412
-16.8697
-15.8098
-14.5494
-13.1711
-11.7421
-10.3121
-8.91369
-7.56539
-6.27503
-5.04258
-3.86268
-2.72639
-1.62254
-0.538609
-21.6427
-20.581
-19.1535
-17.4946
-15.7206
-13.9198
-12.1511
-10.4495
-8.83122
-7.29988
-5.85043
-4.47244
-3.15222
-1.87422
-0.621874
-26.1358
-24.6576
-22.7285
-20.5544
-18.2968
-16.0649
-13.9229
-11.9016
-10.01
-8.24272
-6.58672
-5.02434
-3.53577
-2.10022
-0.696531
-31.2927
-29.1849
-26.548
-23.6973
-20.8469
-18.1199
-15.5735
-13.2241
-11.0641
-9.07418
-7.22926
-5.50234
-3.86625
-2.29431
-0.76055
-37.3513
-34.2409
-30.5811
-26.8395
-23.2735
-19.9939
-17.0271
-14.3567
-11.948
-9.76048
-7.75367
-5.88943
-4.13249
-2.4502
-0.811893
-44.6284
-39.8453
-34.6955
-29.8057
-25.4131
-21.5548
-18.1839
-15.2274
-12.6105
-10.2659
-8.13538
-6.16911
-4.32401
-2.56207
-0.848699
-53.4674
-45.8156
-38.5491
-32.2741
-27.018
-22.6279
-18.9262
-15.7582
-13.0005
-10.5571
-8.3527
-6.32749
-4.4323
-2.62532
-0.869516
-63.8755
-51.3999
-41.4107
-33.723
-27.7563
-23.0122
-19.1343
-15.8783
-13.076
-10.609
-8.39071
-6.35576
-4.45229
-2.63736
-0.873546
-73.9519
-54.4967
-41.97
-33.4502
-27.2716
-22.53
-18.7203
-15.5444
-12.8161
-10.4119
-8.24528
-6.25243
-4.38366
-2.59823
-0.860842
-73.7051
-50.6641
-38.5217
-30.8357
-25.3493
-21.1156
-17.672
-14.7627
-12.2319
-9.97702
-7.92593
-6.0249
-4.23162
-2.51101
-0.83242
-3.67233
-11.0975
-18.7714
-26.8839
-35.6668
-45.4224
-56.5699
-69.7274
-85.8639
-106.612
-134.961
-176.984
-246.588
-379.989
-682.988
-3.60919
-10.9024
-18.4257
-26.3534
-34.8941
-44.3138
-54.9696
-67.3644
-82.2361
-100.704
-124.484
-156.051
-197.735
-243.722
-231.417
-3.4941
-10.5472
-17.7992
-25.397
-33.5107
-42.3464
-52.1611
-63.2807
-76.1103
-91.1063
-108.599
-128.091
-145.893
-147.932
-92.7119
-3.33391
-10.0539
-16.9323
-24.082
-31.6257
-39.6986
-48.446
-58.009
-68.4792
-79.7742
-91.3225
-101.305
-104.996
-91.9046
-44.4247
-3.1375
-9.45037
-15.877
-22.4932
-29.373
-36.5822
-44.1641
-52.107
-60.2748
-68.2657
-75.1331
-78.8849
-75.7536
-59.7571
-24.866
-2.91477
-8.76779
-14.6898
-20.7213
-26.8912
-33.2066
-39.6311
-46.0481
-52.1928
-57.537
-61.1069
-61.2445
-55.444
-40.7307
-15.6131
-2.67569
-8.03722
-13.4266
-18.8529
-24.3083
-29.7548
-35.103
-40.1779
-44.6662
-48.0398
-49.4638
-47.7275
-41.3233
-28.929
-10.6024
-2.42955
-7.28725
-12.1376
-16.9642
-21.7314
-26.3711
-30.7644
-34.7148
-37.913
-39.896
-40.0149
-37.4519
-31.3618
-21.2466
-7.59015
-2.18435
-6.54235
-10.8649
-15.1166
-19.2428
-23.1583
-26.7331
-29.7737
-32.0035
-33.0462
-32.4281
-29.6252
-24.1953
-16.0233
-5.63609
-1.94656
-5.82202
-9.64129
-13.356
-16.9003
-20.1821
-23.0726
-25.3955
-26.918
-27.3493
-26.358
-23.6227
-18.9329
-12.338
-4.29656
-1.72103
-5.14066
-8.49023
-11.7136
-14.74
-17.4774
-19.8061
-21.573
-22.5901
-22.6402
-21.4988
-18.9773
-14.9933
-9.65726
-3.34007
-1.51105
-4.5079
-7.42674
-10.2079
-12.7802
-15.0563
-16.9295
-18.2711
-18.9335
-18.7584
-17.5979
-15.3474
-11.9924
-7.65776
-2.63562
-1.31858
-3.92927
-6.45878
-8.84715
-11.0259
-12.915
-14.4218
-15.4409
-15.8582
-15.5609
-14.4538
-12.4842
-9.67188
-6.13559
-2.10413
-1.14448
-3.40697
-5.58878
-7.63193
-9.47249
-11.0391
-12.2528
-13.0283
-13.279
-12.9255
-11.9084
-10.2063
-7.85396
-4.95725
-1.6954
-0.988747
-2.94067
-4.81503
-6.55731
-8.10926
-9.40826
-10.3879
-10.98
-11.1194
-10.7508
-9.83872
-8.37978
-6.414
-4.03244
-1.37621
-0.85076
-2.52821
-4.13294
-5.6148
-6.9216
-7.99908
-8.79193
-9.24606
-9.31253
-8.95333
-8.1487
-6.90518
-5.26272
-3.29832
-1.12381
-0.729478
-2.16624
-3.53613
-4.79382
-5.89313
-6.78749
-7.43113
-7.7812
-7.80114
-7.46513
-6.76339
-5.70756
-4.33495
-2.71009
-0.922182
-0.623606
-1.85067
-3.01722
-4.08277
-5.00691
-5.74996
-6.27413
-6.54553
-6.53687
-6.23084
-5.6239
-4.72986
-3.58231
-2.23507
-0.759744
-0.531719
-1.57711
-2.56842
-3.46988
-4.24642
-4.86436
-5.29259
-5.50429
-5.47904
-5.20544
-4.68374
-3.92817
-2.96832
-1.84897
-0.627967
-0.452362
-1.34109
-2.18198
-2.94372
-3.59603
-4.11045
-4.46138
-4.62754
-4.59363
-4.35229
-3.90595
-3.2683
-2.46505
-1.53344
-0.520445
-0.38411
-1.13828
-1.85049
-2.49351
-3.04136
-3.47003
-3.75845
-3.88968
-3.85222
-3.64146
-3.26097
-2.72341
-2.0509
-1.27442
-0.432289
-0.325615
-0.964587
-1.56702
-2.10938
-2.56943
-2.92697
-3.16465
-3.26892
-3.23112
-3.04847
-2.72503
-2.27222
-1.70894
-1.06097
-0.359718
-0.27563
-0.816264
-1.32526
-1.78238
-2.16866
-2.46713
-2.66346
-2.7468
-2.71057
-2.55322
-2.2789
-1.89772
-1.42576
-0.884505
-0.299774
-0.233022
-0.6899
-1.11953
-1.50455
-1.82886
-2.07819
-2.24072
-2.30769
-2.2741
-2.13919
-1.90696
-1.58625
-1.1907
-0.738225
-0.250118
-0.196775
-0.582456
-0.944758
-1.26886
-1.5411
-1.74951
-1.8843
-1.9384
-1.90795
-1.79274
-1.59643
-1.32673
-0.99517
-0.61668
-0.208882
-0.165991
-0.491242
-0.796508
-1.06917
-1.29767
-1.47195
-1.58391
-1.62781
-1.60067
-1.50257
-1.33686
-1.11016
-0.832215
-0.515481
-0.174566
-0.139881
-0.413902
-0.670894
-0.900138
-1.09187
-1.23765
-1.33076
-1.36653
-1.34263
-1.25934
-1.11963
-0.929177
-0.696186
-0.43107
-0.145954
-0.117755
-0.348384
-0.564544
-0.757151
-0.917966
-1.03992
-1.11743
-1.14667
-1.12584
-1.05529
-0.937634
-0.777721
-0.582458
-0.360544
-0.122056
-0.0990165
-0.292912
-0.474545
-0.636235
-0.771042
-0.873043
-0.937599
-0.961579
-0.943556
-0.883929
-0.784974
-0.650805
-0.487233
-0.301525
-0.102063
-0.0831506
-0.245953
-0.398389
-0.533982
-0.646892
-0.732164
-0.785938
-0.805647
-0.790158
-0.739875
-0.656761
-0.544302
-0.407377
-0.252053
-0.0853084
-0.0697135
-0.20619
-0.333928
-0.447475
-0.54193
-0.61315
-0.657927
-0.67415
-0.660917
-0.618612
-0.54892
-0.454785
-0.340294
-0.210511
-0.0712419
-0.0583249
-0.172494
-0.279318
-0.374221
-0.453099
-0.512493
-0.54974
-0.563101
-0.551857
-0.516362
-0.45805
-0.379398
-0.283827
-0.175554
-0.0594073
-0.0486583
-0.143897
-0.232984
-0.312092
-0.377795
-0.427212
-0.458135
-0.469135
-0.459634
-0.429951
-0.381301
-0.315758
-0.236177
-0.146064
-0.0494248
-0.0404343
-0.11957
-0.193578
-0.25927
-0.313797
-0.354769
-0.380362
-0.389401
-0.381423
-0.356708
-0.316278
-0.261865
-0.195838
-0.121104
-0.0409769
-0.0334132
-0.0988038
-0.159945
-0.214199
-0.259209
-0.293003
-0.31408
-0.32148
-0.314831
-0.294374
-0.260964
-0.216035
-0.161544
-0.0998888
-0.033797
-0.0273889
-0.080987
-0.131095
-0.175545
-0.212407
-0.240065
-0.257294
-0.263313
-0.257824
-0.241034
-0.213647
-0.176842
-0.132224
-0.0817535
-0.02766
-0.0221836
-0.0655935
-0.106171
-0.14216
-0.171994
-0.194367
-0.20829
-0.213135
-0.208664
-0.19505
-0.172867
-0.143073
-0.106967
-0.0661334
-0.0223746
-0.0176429
-0.0521661
-0.0844337
-0.113047
-0.136761
-0.154537
-0.16559
-0.169423
-0.165851
-0.155015
-0.137373
-0.113687
-0.084991
-0.0525443
-0.0177767
-0.0136315
-0.0403047
-0.0652332
-0.0873354
-0.105649
-0.119373
-0.127901
-0.130851
-0.128082
-0.119704
-0.106073
-0.0877787
-0.0656191
-0.0405666
-0.0137242
-0.0100296
-0.0296545
-0.0479947
-0.0642541
-0.0777245
-0.0878166
-0.0940851
-0.0962497
-0.0942077
-0.0880406
-0.0780112
-0.0645538
-0.0482557
-0.0298316
-0.0100923
-0.00672921
-0.0198961
-0.0322007
-0.0431088
-0.0521452
-0.0589145
-0.0631183
-0.0645685
-0.0631969
-0.0590582
-0.0523291
-0.0433011
-0.0323682
-0.0200098
-0.00676941
-0.0036312
-0.0107364
-0.0173764
-0.023263
-0.0281399
-0.0317936
-0.034063
-0.0348465
-0.0341071
-0.0318742
-0.0282431
-0.0233709
-0.0174703
-0.0108001
-0.00365376
-0.000642366
-0.00189951
-0.00307503
-0.00411819
-0.00498371
-0.00563368
-0.00603919
-0.00618173
-0.00605411
-0.00566094
-0.0050186
-0.00415466
-0.00310679
-0.00192107
-0.000649989
0.00232732
0.00688065
0.0111344
0.0149033
0.0180228
0.0203565
0.021802
0.0222954
0.0218145
0.0203793
0.018052
0.0149339
0.011161
0.00689872
0.00233371
0.00536732
0.0158688
0.0256805
0.0343756
0.0415748
0.0469632
0.050304
0.051449
0.0503455
0.0470389
0.0416716
0.0344768
0.0257687
0.0159286
0.0053885
0.00856923
0.0253357
0.0410018
0.0548863
0.0663838
0.0749915
0.0803305
0.0821636
0.0804058
0.0751291
0.0665599
0.0550704
0.0411621
0.0254445
0.00860773
0.0120294
0.0355664
0.0575599
0.077054
0.0931991
0.105289
0.112791
0.115371
0.112909
0.105505
0.0934756
0.0773431
0.0578117
0.0357373
0.0120899
0.0158519
0.0468686
0.0758533
0.101547
0.12283
0.138771
0.148668
0.152079
0.148843
0.139091
0.12324
0.101976
0.0762266
0.0471221
0.0159415
0.0201513
0.0595816
0.0964314
0.129101
0.156169
0.176449
0.189048
0.193401
0.189301
0.176912
0.156762
0.129721
0.0969712
0.059948
0.0202809
0.0250564
0.074086
0.119911
0.160545
0.19422
0.21946
0.235152
0.240591
0.235514
0.220122
0.195066
0.161431
0.120682
0.0746093
0.0252415
0.0307135
0.0908149
0.146995
0.196821
0.238125
0.2691
0.288375
0.29508
0.288889
0.27004
0.239328
0.198078
0.14809
0.091558
0.0309763
0.0372907
0.110266
0.17849
0.239012
0.289202
0.326862
0.350324
0.358522
0.351052
0.328193
0.290904
0.240792
0.18004
0.111318
0.0376629
0.0449829
0.133016
0.215331
0.288375
0.348977
0.394482
0.422868
0.432841
0.423898
0.396363
0.351384
0.290892
0.217523
0.134504
0.0455091
0.0540166
0.159736
0.258609
0.346376
0.419233
0.473986
0.508196
0.520292
0.50965
0.476643
0.422633
0.349932
0.261705
0.161838
0.05476
0.0646564
0.19121
0.309595
0.414728
0.502057
0.567752
0.608877
0.623527
0.61093
0.571503
0.506858
0.419749
0.313968
0.194178
0.0657062
0.0772118
0.228354
0.369782
0.495441
0.599899
0.678574
0.727937
0.745678
0.730836
0.683871
0.606678
0.50253
0.375956
0.232545
0.078694
0.0920447
0.272243
0.440916
0.590871
0.71564
0.809746
0.868949
0.890448
0.873042
0.817224
0.725211
0.60088
0.449633
0.278159
0.0941374
0.109579
0.324133
0.525045
0.703786
0.852667
0.965148
1.03614
1.06223
1.04191
0.975706
0.866179
0.717917
0.537351
0.332485
0.112533
0.130309
0.385493
0.624565
0.837432
1.01496
1.14936
1.23449
1.26622
1.24265
1.16426
1.03404
0.857381
0.641938
0.397285
0.13448
0.154813
0.458037
0.742277
0.995608
1.2072
1.36776
1.46992
1.50862
1.48143
1.3888
1.23413
1.02377
0.766803
0.474685
0.160702
0.18376
0.54376
0.881445
1.18276
1.43488
1.62671
1.7494
1.79674
1.76565
1.65641
1.47289
1.22252
0.916071
0.567265
0.192075
0.217928
0.644975
1.04586
1.40406
1.7044
1.93367
2.08118
2.13933
2.10412
1.97559
1.75806
1.46019
1.09475
0.678161
0.229668
0.258212
0.76435
1.23992
1.66552
2.02326
2.29739
2.475
2.54672
2.50738
2.35656
2.09901
1.74476
1.30894
0.811205
0.274788
0.305636
0.904944
1.46866
1.9741
2.40017
2.72811
2.94232
3.03121
2.98802
2.81162
2.50709
2.08596
1.56611
0.971106
0.329043
0.361366
1.07024
1.73787
2.33778
2.84519
3.23778
3.49666
3.6074
3.56114
3.35564
2.99611
2.4957
1.87546
1.16368
0.394423
0.426713
1.26418
2.05407
2.76568
3.36992
3.84028
4.15383
4.29257
4.24481
4.0066
3.58294
2.98862
2.24837
1.39614
0.473405
0.503136
1.49115
2.42463
3.2681
3.9876
4.55163
4.93235
5.10721
5.06071
4.78631
4.28825
3.58285
2.69902
1.67755
0.569103
0.592236
1.75597
2.85766
3.85658
4.71322
5.39022
5.85378
6.07553
6.03481
5.72128
5.1375
4.30097
3.24523
2.01934
0.68546
0.695732
2.06386
3.36203
4.54383
5.56354
6.37698
6.94309
7.22606
7.1983
6.84388
6.16221
5.17126
3.90957
2.43611
0.827528
0.815425
2.42032
3.94718
5.34361
6.55703
7.53545
8.22895
8.59231
8.58856
8.19366
7.40164
6.22953
4.72093
2.9467
1.00186
0.953138
2.83093
4.62286
6.27042
7.71367
8.89169
9.74401
10.2134
10.2504
9.81915
8.90494
7.52142
5.7167
3.57575
1.21707
1.11062
3.30115
5.39876
7.33904
9.05442
10.474
11.5249
12.1347
12.2372
11.78
10.7341
9.10572
6.94592
4.35596
1.48466
1.28942
3.83587
6.28386
8.56377
10.6005
12.3124
13.6119
14.4081
14.6127
14.1494
12.9676
11.059
8.47379
5.33151
1.8203
1.49071
4.43892
7.28563
9.95731
12.372
14.437
16.0483
17.0923
17.4519
17.0176
15.7057
13.4821
10.3884
6.56321
2.24578
1.71506
5.11239
8.40889
11.5292
14.3862
16.8765
18.8784
20.2517
20.8422
20.4952
19.0769
16.5092
12.811
8.13669
2.79216
1.96217
5.85584
9.6544
13.284
16.6548
19.6551
22.145
23.9543
24.8836
24.7164
23.246
20.3212
15.9113
10.1755
3.50503
2.23055
6.66529
11.0172
15.2182
19.1807
22.7878
25.8842
28.2678
29.686
29.8425
28.4249
25.1644
19.9323
12.8634
4.45367
2.51723
7.53221
12.4846
17.318
21.9532
26.2749
30.118
33.2516
35.3644
36.0613
34.8835
31.3765
25.2287
16.4822
5.74787
2.81741
8.44256
14.0344
19.5555
24.9431
30.094
34.8444
38.9439
42.0258
43.5818
42.9593
39.4222
32.3295
21.4812
7.57079
3.12427
9.37598
15.6332
21.8854
28.0971
34.1911
40.0226
45.3425
49.7466
52.6146
53.0588
49.9367
42.0381
28.6066
10.2486
3.42888
10.3055
17.2354
24.2432
31.3327
38.4701
45.5556
52.3767
58.5337
63.3301
65.6345
63.7676
55.5885
39.1529
14.4118
3.72041
11.1978
18.7834
26.5441
34.5347
42.7848
51.2719
59.8717
68.265
75.7756
81.1063
81.9815
74.872
55.4664
21.4101
3.98652
12.0148
20.2097
28.6851
37.5563
46.9345
56.9096
67.5095
78.6089
89.7342
99.6714
105.74
102.694
81.9535
34.4943
4.21425
12.716
21.4411
30.551
40.2255
50.6692
62.1128
74.8
88.9339
104.517
120.922
135.826
142.802
126.995
62.5292
4.39108
13.2619
22.4051
32.0245
42.3602
53.7092
66.4519
81.0851
98.2518
118.728
143.215
171.416
198.731
205.825
132.642
4.5063
13.6185
23.0382
33.0003
43.791
55.7809
69.4776
85.6101
105.27
130.153
162.926
207.619
268.702
340.4
336.157
4.55231
13.7616
23.2944
33.4005
44.3885
56.6668
70.8112
87.6844
108.662
136.096
174.358
232.439
331.298
527.709
1003.61
4.52561
13.6798
23.1522
33.1881
44.0897
56.2563
70.2493
86.9077
107.568
134.518
172.025
228.94
326.145
520.925
998.019
4.42739
13.3769
22.6185
32.3742
42.9122
54.577
67.8356
83.351
102.106
125.608
156.214
197.46
253.23
318.082
312.457
4.26334
12.8711
21.7276
31.0167
40.9517
51.7905
63.8541
77.5439
93.3454
111.763
133.013
155.891
174.006
164.18
56.9549
-46.7382
-38.072
-31.5823
-26.5618
-22.5167
-19.1447
-16.2558
-13.724
-11.4618
-9.40526
-7.50584
-5.72492
-4.03061
-2.39544
-0.794706
-17.5288
-24.2832
-23.9739
-21.8719
-19.4026
-16.9717
-14.6886
-12.5696
-10.6018
-8.76367
-7.03217
-5.38522
-3.80218
-2.26375
-0.751679
-7.97407
-15.3994
-17.6101
-17.437
-16.2615
-14.6959
-13.0071
-11.31
-9.6517
-8.04792
-6.4997
-5.00107
-3.54271
-2.11374
-0.702592
-4.33786
-10.1367
-12.9016
-13.6979
-13.3911
-12.5056
-11.3312
-10.0234
-8.6636
-7.29348
-5.93272
-4.5889
-3.26279
-1.95133
-0.649353
-2.69942
-6.9809
-9.5599
-10.7246
-10.9226
-10.5156
-9.74794
-8.77269
-7.68258
-6.53245
-5.35391
-4.16438
-2.97265
-1.7823
-0.593837
-1.83687
-5.00725
-7.20028
-8.42246
-8.87397
-8.77602
-8.30866
-7.60165
-6.74315
-5.79107
-4.78265
-3.74132
-2.68153
-1.61195
-0.537764
-1.32387
-3.71225
-5.51479
-6.65543
-7.20682
-7.29287
-7.03571
-6.53573
-5.86861
-5.08876
-4.23419
-3.33104
-2.39716
-1.44478
-0.482613
-0.990961
-2.82405
-4.28886
-5.29754
-5.86272
-6.04797
-5.93129
-5.58579
-5.07229
-4.43827
-3.71941
-2.94207
-2.1256
-1.2844
-0.42958
-0.761392
-2.19157
-3.37965
-4.24756
-4.7824
-5.01268
-4.9857
-4.75244
-4.35962
-3.84663
-3.24519
-2.58024
-1.8712
-1.13345
-0.379554
-0.596123
-1.72718
-2.69273
-3.42884
-3.91351
-4.15597
-4.1833
-4.02985
-3.73033
-3.31636
-2.81505
-2.24898
-1.63672
-0.993711
-0.33314
-0.473338
-1.37772
-2.16511
-2.78467
-3.2128
-3.4486
-3.50641
-3.40864
-3.18049
-2.84671
-2.42985
-1.94976
-1.42357
-0.866153
-0.290685
-0.379918
-1.10948
-1.75401
-2.27342
-2.64559
-2.86479
-2.93751
-2.87792
-2.70397
-2.4347
-2.08854
-1.68253
-1.23209
-0.751119
-0.252325
-0.307517
-0.900275
-1.42977
-1.86439
-2.1846
-2.38266
-2.46045
-2.42657
-2.29363
-2.07606
-1.78876
-1.44613
-1.0618
-0.648452
-0.218028
-0.250584
-0.73499
-1.17141
-1.5348
-1.8084
-1.98402
-2.06091
-2.044
-1.94201
-1.76583
-1.52736
-1.23869
-0.911644
-0.557633
-0.187642
-0.205286
-0.603017
-0.963754
-1.26754
-1.50021
-1.65391
-1.72649
-1.72049
-1.64188
-1.49883
-1.30082
-1.05788
-0.780203
-0.477906
-0.160927
-0.168904
-0.496726
-0.795637
-1.04963
-1.24686
-1.38011
-1.44661
-1.44739
-1.38648
-1.26999
-1.10545
-0.901167
-0.665851
-0.408367
-0.137597
-0.139456
-0.410505
-0.658701
-0.871138