/*--------------------------------*- C++ -*----------------------------------*\
| =========                 |                                                 |
| \\      /  F ield         | OpenFOAM: The Open Source CFD Toolbox           |
|  \\    /   O peration     | Version:  5.x                                   |
|   \\  /    A nd           | Web:      www.OpenFOAM.org                      |
|    \\/     M anipulation  |                                                 |
\*---------------------------------------------------------------------------*/
FoamFile
{
    version     2.0;
    format      ascii;
    class       volScalarField;
    location    "8.6";
    object      T;
}
// * * * * * * * * * * * * * * * * * * * * * * * * * * * * * * * * * * * * * //

dimensions      [0 0 0 1 0 0 0];

internalField   nonuniform List<scalar> 
6300
(
10.3182
10.9571
11.6031
12.2609
12.9349
13.6292
14.3472
15.0917
15.8648
16.6674
17.4993
18.3588
19.2431
20.1477
21.067
10.3158
10.9499
11.5912
12.2447
12.9147
13.6054
14.3205
15.063
15.8351
16.638
17.4714
18.3339
19.2226
20.1327
21.0586
10.3109
10.9353
11.5673
12.2118
12.8736
13.5571
14.2663
15.0046
15.7746
16.5778
17.4143
18.2828
19.1802
20.1018
21.0411
10.3035
10.9132
11.5308
12.1616
12.8107
13.483
14.1829
14.9144
15.6808
16.484
17.325
18.2025
19.1136
20.053
21.0134
10.2934
10.883
11.481
12.093
12.7246
13.3811
14.0677
14.7893
15.5498
16.3525
17.1989
18.0885
19.0184
19.9828
20.9733
10.2805
10.8444
11.4172
12.0049
12.6135
13.249
13.9176
14.625
15.3767
16.1772
17.0293
17.9339
18.8884
19.8865
20.9178
10.2646
10.7969
11.3386
11.8958
12.4753
13.0838
13.7284
14.4163
15.1547
15.9499
16.8072
17.7293
18.7146
19.7567
20.8427
10.2457
10.7401
11.2442
11.7645
12.308
12.8824
13.4959
14.1571
14.8756
15.6605
16.5203
17.461
18.484
19.5828
20.7417
10.2235
10.6737
11.1335
11.6098
12.1099
12.642
13.2154
13.8407
14.5298
15.2959
16.1522
17.1105
18.1771
19.3486
20.6057
10.1982
10.5977
11.0064
11.4313
11.8796
12.3601
12.8829
13.4603
14.1071
14.841
15.6821
16.6512
17.7653
19.0286
20.4204
10.1698
10.5122
10.8633
11.2292
11.6172
12.0358
12.4957
13.0103
13.5971
14.2787
15.0838
16.0469
17.204
18.5797
20.1613
10.1386
10.4182
10.7052
11.005
11.324
11.6702
12.0537
12.488
12.9922
13.5928
14.3274
15.2485
16.4239
17.9249
19.78
10.105
10.3168
10.5342
10.7615
11.0037
11.2672
11.5606
11.8959
12.2909
12.7727
13.3843
14.1956
15.3179
16.9157
19.163
10.0695
10.2097
10.3534
10.5031
10.662
10.8343
11.0256
11.244
11.5026
11.8226
12.2416
12.8314
13.7363
15.2567
17.9738
10.033
10.0992
10.1664
10.2354
10.307
10.3824
10.4632
10.552
10.6529
10.7733
10.9281
11.1519
11.5389
12.401
14.9691
21.9171
22.6911
23.4618
24.2251
24.9769
25.7134
26.4312
27.1274
27.7994
28.445
29.0625
29.6505
30.2079
30.7338
31.2276
31.6887
32.1169
32.512
32.8739
33.2025
33.4981
33.7609
33.991
34.1889
34.355
34.4897
34.5935
34.6671
34.7109
34.7256
34.7118
34.6701
34.6011
34.5056
34.384
34.2371
34.0654
33.8695
33.6502
33.4079
33.1434
32.8572
32.55
32.2224
31.8751
31.5085
31.1235
30.7204
30.3
29.8626
29.4088
28.9391
28.4538
27.9536
27.4388
26.9099
26.3673
25.8117
25.2435
24.6633
24.0717
23.4692
22.8565
22.2342
21.603
20.9634
20.3162
19.6621
19.002
18.3366
17.667
16.9942
16.3196
15.6443
14.9699
14.2979
13.63
12.9678
12.313
11.6675
11.0328
10.4108
9.80289
9.21064
8.63537
8.07827
7.54031
7.02224
6.52457
6.04755
21.9153
22.6954
23.4722
24.2414
24.9986
25.74
26.4621
27.1619
27.8369
28.485
29.1046
29.6942
30.2528
30.7796
31.2741
31.7357
32.1642
32.5593
32.9212
33.2497
33.545
33.8073
34.0369
34.2342
34.3996
34.5336
34.6366
34.7093
34.7523
34.7661
34.7514
34.7088
34.6389
34.5425
34.42
34.2722
34.0996
33.9029
33.6826
33.4395
33.1741
32.887
32.5789
32.2504
31.9021
31.5348
31.1489
30.745
30.3238
29.8857
29.4313
28.9609
28.475
27.9741
27.4586
26.929
26.3858
25.8294
25.2604
24.6793
24.0869
23.4835
22.87
22.2468
21.6146
20.974
20.3258
19.6706
19.0091
18.3423
17.6712
16.9967
16.3201
15.6428
14.9662
14.2919
13.6215
12.9568
12.2996
11.6516
11.0145
10.3902
9.78019
9.18602
8.60907
8.05057
7.51153
6.99273
6.49471
6.01773
21.9114
22.7041
23.4934
24.2745
25.0427
25.7939
26.5246
27.2317
27.9128
28.5658
29.1893
29.782
30.343
30.8716
31.3674
31.8298
32.2588
32.6542
33.0159
33.3441
33.6388
33.9003
34.1289
34.3249
34.489
34.6214
34.7229
34.7939
34.8351
34.8471
34.8306
34.7862
34.7145
34.6162
34.492
34.3424
34.168
33.9695
33.7475
33.5026
33.2353
32.9464
32.6365
32.3062
31.9562
31.5871
31.1995
30.7941
30.3714
29.9319
29.4761
29.0045
28.5173
28.0152
27.4984
26.9674
26.4226
25.8647
25.2941
24.7114
24.1173
23.5122
22.8969
22.2719
21.6378
20.9954
20.3451
19.6876
19.0237
18.3541
17.6798
17.0019
16.3215
15.64
14.9589
14.2798
13.6046
12.9349
12.2726
11.6196
10.9778
10.3488
9.73449
9.13642
8.55605
7.99469
7.45345
6.93318
6.43446
5.95755
21.9049
22.7174
23.5263
24.3258
25.1109
25.8771
26.6207
27.3386
28.0286
28.6888
29.3179
29.915
30.4794
31.0105
31.5081
31.9718
32.4015
32.7971
33.1586
33.4861
33.7799
34.0401
34.2671
34.4613
34.6232
34.7534
34.8524
34.9209
34.9594
34.9687
34.9494
34.9022
34.8278
34.7268
34.5999
34.4476
34.2706
34.0695
33.8449
33.5972
33.3273
33.0356
32.723
32.3899
32.0372
31.6655
31.2754
30.8677
30.4427
30.0012
29.5434
29.0698
28.5808
28.0768
27.558
27.025
26.4781
25.9179
25.3449
24.7596
24.1629
23.5552
22.9373
22.3096
21.6729
21.0276
20.3743
19.7136
19.046
18.3723
17.6934
17.0103
16.3241
15.6363
14.9484
14.2621
13.5794
12.902
12.232
11.5714
10.9222
10.2862
9.66525
9.06115
8.47549
7.90971
7.36505
6.84249
6.34267
5.8659
21.8951
22.7358
23.5722
24.3975
25.206
25.9925
26.7534
27.4855
28.1869
28.8561
29.4923
30.0948
30.6632
31.1974
31.6971
32.1622
32.5927
32.9885
33.3497
33.6764
33.9688
34.2272
34.452
34.6437
34.8027
34.9298
35.0254
35.0903
35.1253
35.1309
35.1079
35.057
34.9789
34.8743
34.7437
34.588
34.4075
34.2029
33.9747
33.7235
33.4499
33.1546
32.8382
32.5014
32.1451
31.7698
31.3763
30.9654
30.5375
30.0932
29.6329
29.1569
28.6656
28.1591
27.6379
27.1021
26.5523
25.989
25.4127
24.8241
24.2238
23.6127
22.9912
22.3601
21.7199
21.071
20.4139
19.749
19.0768
18.3978
17.7128
17.0227
16.3288
15.6324
14.9352
14.2391
13.5461
12.8583
12.1777
11.5067
10.8473
10.2016
9.5716
8.95917
8.36615
7.79418
7.24471
6.71891
6.21757
5.74106
21.881
22.7601
23.6337
24.4934
25.3322
26.1447
26.9269
27.6763
28.3911
29.0707
29.7147
30.3231
30.8959
31.4333
31.9354
32.402
32.8333
33.2293
33.59
33.9155
34.2061
34.4622
34.6841
34.8724
35.0278
35.1508
35.2421
35.3025
35.3328
35.3337
35.3059
35.2503
35.1676
35.0584
34.9235
34.7633
34.5785
34.3696
34.1371
33.8815
33.6034
33.3034
32.9823
32.6407
32.2796
31.8997
31.502
31.087
30.6554
30.2078
29.7445
29.2657
28.7716
28.2623
27.7381
27.199
26.6457
26.0784
25.4979
24.9048
24.3001
23.6845
23.0587
22.4233
21.7789
21.1259
20.4644
19.7947
19.117
18.4316
17.7392
17.0405
16.3368
15.6294
14.9203
14.2115
13.5052
12.8037
12.1096
11.4251
10.7526
10.0943
9.45244
8.8291
8.22635
7.64611
7.09016
6.55998
6.0566
5.58051
21.8616
22.7921
23.7148
24.6189
25.496
26.3401
27.1475
27.9163
28.6457
29.3361
29.988
30.6022
31.1793
31.7198
32.2242
32.6923
33.1244
33.5204
33.8804
34.2044
34.4927
34.7458
34.9641
35.1482
35.2989
35.4168
35.5028
35.5576
35.5822
35.5772
35.5436
35.4822
35.3938
35.2792
35.1389
34.9736
34.7838
34.5699
34.3323
34.0714
33.7879
33.4822
33.1551
32.8076
32.4406
32.055
31.6518
31.2319
30.796
30.3445
29.8778
29.396
28.8989
28.3866
27.8591
27.3162
26.7585
26.1864
25.6006
25.002
24.3917
23.7706
23.1395
22.4992
21.8502
21.1925
20.5264
19.8515
19.1678
18.4753
17.7742
17.0653
16.3496
15.6288
14.9048
14.18
13.457
12.7385
12.0273
11.326
10.6371
9.96317
9.30644
8.66926
8.05397
7.46293
6.89839
6.36234
5.85625
5.3808
21.8359
22.8353
23.8223
24.783
25.707
26.5881
27.4235
28.2125
28.9562
29.6565
30.3152
30.9342
31.5148
32.0581
32.5645
33.0342
33.467
33.863
34.222
34.5441
34.8296
35.079
35.2927
35.4717
35.6166
35.7284
35.8078
35.8559
35.8734
35.8614
35.8208
35.7525
35.6574
35.5363
35.3899
35.2187
35.0232
34.8037
34.5604
34.2936
34.0036
33.6912
33.357
33.0022
32.6278
32.2351
31.8253
31.3995
30.9585
30.5028
30.0325
29.5477
29.0478
28.5326
28.0015
27.4545
26.8917
26.3137
25.7213
25.1158
24.4984
23.8705
23.2332
22.5874
21.9334
21.2712
20.6005
19.9207
19.2311
18.531
17.8204
17.0995
16.3696
15.6324
14.8901
14.1456
13.402
12.6626
11.9306
11.2088
10.5001
9.80706
9.13211
8.47773
7.84655
7.24145
6.66546
6.12145
5.61167
5.13721
21.8031
22.8958
23.9677
24.9994
25.9793
26.9016
27.7657
28.5735
29.329
30.0362
30.6991
31.3209
31.9037
32.449
32.9573
33.4285
33.8623
34.2583
34.6163
34.9361
35.2181
35.4628
35.671
35.8436
35.9815
36.0859
36.1575
36.1975
36.2067
36.1863
36.1373
36.0608
35.9578
35.8293
35.676
35.4983
35.2967
35.0712
34.8218
34.5484
34.2513
33.9309
33.5882
33.2243
32.8408
32.4393
32.0214
31.5885
31.1417
30.6814
30.2078
29.7204
29.2184
28.7008
28.1665
27.615
27.0464
26.4612
25.8605
25.2462
24.6199
23.9836
23.3389
22.6869
22.0279
21.3617
20.6875
20.0038
19.3089
18.6016
17.8808
17.1466
16.4
15.6429
14.8783
14.1096
13.3409
12.576
11.8188
11.0726
10.3404
9.62471
8.92801
8.25264
7.60143
6.97794
6.38638
5.83117
5.31612
4.84316
21.7638
22.9862
24.1703
25.2903
26.334
27.2988
28.1884
29.0097
29.7707
30.4793
31.1419
31.7632
32.3463
32.8927
33.4028
33.8761
34.3115
34.708
35.0649
35.3821
35.6598
35.8987
36.1
36.2648
36.3944
36.4898
36.5523
36.5827
36.5822
36.5518
36.4928
36.4066
36.2945
36.1574
35.9964
35.8119
35.6041
35.3727
35.1171
34.8369
34.5318
34.2023
33.8492
33.4742
33.0792
32.6665
32.2385
31.797
31.3436
30.8788
30.4024
29.9137
29.4111
28.8924
28.3557
27.7998
27.2245
26.6304
26.0192
25.3932
24.7553
24.1084
23.4548
22.796
22.1324
21.4635
20.7877
20.1024
19.4046
18.6911
17.9602
17.2112
16.4451
15.6641
14.872
14.0735
13.2738
12.4781
11.6909
10.916
10.1565
9.41491
8.69302
7.9926
7.31625
6.66834
6.05481
5.48295
4.95989
4.48925
21.7226
23.1315
24.465
25.6909
26.8018
27.8038
28.7091
29.5321
30.2875
30.9883
31.6437
32.2601
32.8411
33.3882
33.901
34.3778
34.8161
35.214
35.5702
35.8843
36.1566
36.3884
36.5809
36.7361
36.8557
36.9408
36.9926
37.012
37
36.9578
36.887
36.7893
36.6663
36.5196
36.3501
36.1585
35.9448
35.7083
35.4474
35.1605
34.847
34.5069
34.1414
33.7523
33.3425
32.9153
32.4743
32.0223
31.5614
31.0921
30.6144
30.1267
29.6263
29.1094
28.572
28.0122
27.429
26.8238
26.1985
25.557
24.9033
24.2424
23.5777
22.9115
22.2441
21.5749
20.9012
20.2189
19.5223
18.8055
18.0653
17.3002
16.5112
15.701
14.8748
14.0388
13.2009
12.3677
11.5451
10.737
9.94687
9.17651
8.42696
7.69775
6.98998
6.3091
5.66311
5.06437
4.52806
4.06147
21.6964
23.3849
24.9143
26.2566
27.4263
28.4475
29.348
30.1515
30.8827
31.5621
32.2011
32.8077
33.3843
33.9328
34.4504
34.9344
35.3784
35.7798
36.1356
36.4461
36.7115
36.9339
37.1151
37.2583
37.366
37.4393
37.4792
37.486
37.4607
37.4046
37.3193
37.2078
37.0719
36.914
36.735
36.5364
36.3178
36.0785
35.8146
35.522
35.2
34.8477
34.4671
34.0597
33.6305
33.1833
32.7254
32.2601
31.7907
31.3172
30.8403
30.3573
29.865
29.3553
28.8203
28.2576
27.6651
27.0456
26.4009
25.7378
25.0614
24.3816
23.7025
23.0283
22.3582
21.6924
21.0266
20.3558
19.6686
18.9534
18.2061
17.4233
16.6077
15.7608
14.8913
14.0065
13.121
12.242
11.3782
10.5319
9.70858
8.90799
8.13149
7.37189
6.62489
5.8995
5.20332
4.55577
3.9958
3.53764
21.7473
23.8671
25.6329
27.0703
28.2644
29.2646
30.1261
30.8744
31.552
32.1939
32.8044
33.3979
33.9674
34.5215
35.0475
35.548
36.0017
36.4106
36.7655
37.0722
37.3278
37.538
37.7036
37.831
37.9251
37.9855
38.0125
38.0058
37.9651
37.8926
37.7889
37.6609
37.5087
37.3381
37.1476
36.9425
36.7201
36.4835
36.2223
35.9255
35.596
35.2285
34.8307
34.3981
33.9437
33.4661
32.9868
32.503
32.0254
31.5467
31.0746
30.6006
30.1281
29.6373
29.1081
28.5452
27.9394
27.3033
26.6295
25.9372
25.2237
24.5194
23.8197
23.1388
22.4656
21.8097
21.1586
20.5161
19.8548
19.147
18.3976
17.5933
16.7488
15.8529
14.9296
13.9749
13.0315
12.094
11.1857
10.2936
9.43735
8.60461
7.81153
7.02775
6.22854
5.44775
4.67337
3.921
3.31683
2.88061
22.1284
24.8587
26.8241
28.234
29.3814
30.2809
31.0666
31.699
32.2722
32.8702
33.432
34.022
34.5723
35.15
35.681
36.2284
36.6892
37.1184
37.4645
37.7715
38.0088
38.2057
38.3468
38.4509
38.5322
38.5791
38.5938
38.5742
38.5146
38.4251
38.2929
38.1481
37.9714
37.7903
37.5805
37.373
37.1423
36.9235
36.6808
36.3754
36.0465
35.6522
35.2438
34.7674
34.2897
33.751
33.2541
32.7365
32.2611
31.7663
31.3112
30.8411
30.4172
29.9741
29.444
28.8941
28.2571
27.6147
26.8845
26.1665
25.3725
24.6501
23.9096
23.2378
22.5478
21.9196
21.2777
20.7033
20.1078
19.4002
18.668
17.8207
16.9636
15.9843
15.013
13.9269
12.9331
11.904
10.9697
10.0037
9.13206
8.24397
7.47804
6.70573
5.80555
4.98666
4.11167
3.07275
2.39595
2.02535
24.0164
26.9513
28.8147
29.7753
30.8552
31.4605
32.2277
32.6083
32.9562
33.5982
34.0185
34.7029
35.1374
35.845
36.2904
37.0329
37.4215
37.9456
38.2189
38.5706
38.7475
38.9533
39.0425
39.103
39.1883
39.2185
39.2241
39.1994
39.1065
39.0186
38.8144
38.6808
38.4399
38.2831
38.0096
37.8364
37.5468
37.3974
37.2288
36.8584
36.5906
36.0957
35.7542
35.1381
34.7229
33.9754
33.5505
32.9085
32.5244
31.9281
31.5689
31.0144
30.7335
30.4357
29.8079
29.3681
28.5819
28.0521
27.1213
26.505
25.4176
24.8065
23.9001
23.3626
22.5407
22.049
21.2991
20.9203
20.522
19.6881
19.1041
18.0616
17.3543
16.1038
15.2612
13.7458
12.8853
11.5773
10.799
9.5776
8.85033
7.70728
7.15361
6.56773
5.26538
4.60627
3.78593
1.70299
1.03409
0.855663
5.54553
5.02714
4.53706
4.07386
3.6358
3.22085
2.82682
2.45144
2.09236
1.74727
1.4139
1.09001
0.77341
0.461989
0.153654
5.51615
4.99875
4.51009
4.04866
3.61262
3.19987
2.80814
2.43508
2.07833
1.73553
1.4044
1.08269
0.768223
0.458894
0.152625
5.4569
4.94154
4.4558
3.99799
3.56609
3.15781
2.77073
2.40238
2.0503
1.7121
1.38545
1.0681
0.757889
0.452729
0.150577
5.36675
4.85463
4.37349
3.92135
3.49588
3.09449
2.71454
2.35336
2.00837
1.67709
1.35717
1.04635
0.742494
0.44355
0.147527
5.24409
4.73665
4.26209
3.81798
3.40151
3.00969
2.63952
2.2881
1.95269
1.63071
1.31976
1.01762
0.722174
0.431442
0.143505
5.08664
4.58569
4.12017
3.68691
3.28244
2.90319
2.54571
2.20681
1.88354
1.57325
1.27353
0.982163
0.697132
0.416532
0.138554
4.89127
4.39925
3.94589
3.527
3.13809
2.77485
2.43328
2.10983
1.80138
1.5052
1.21891
0.940362
0.667646
0.398991
0.132733
4.65378
4.17408
3.7371
3.33702
2.96803
2.62479
2.30269
1.99782
1.70691
1.42725
1.15652
0.892714
0.634087
0.379047
0.126117
4.36855
3.9061
3.49132
3.11591
2.77216
2.45355
2.15482
1.8718
1.60118
1.34035
1.08717
0.839875
0.596931
0.356987
0.118802
4.02793
3.59038
3.20613
2.86308
2.55109
2.26239
1.99122
1.73333
1.48563
1.24577
1.01193
0.782668
0.556763
0.333161
0.110906
3.62152
3.22128
2.8797
2.57912
2.30669
2.05367
1.81428
1.58466
1.36222
1.14514
0.9321
0.722087
0.514281
0.307983
0.102565
3.13536
2.79347
2.51223
2.26696
2.04283
1.8313
1.62754
1.42879
1.23342
1.04045
0.849224
0.659285
0.470282
0.28192
0.093932
2.55217
2.30497
2.10872
1.93364
1.76633
1.60111
1.43576
1.2695
1.10221
0.933999
0.765046
0.595537
0.425635
0.255476
0.0851742
1.85785
1.76547
1.68401
1.5925
1.4877
1.37105
1.24485
1.11122
0.971902
0.828272
0.68141
0.53217
0.381237
0.229173
0.0764611
1.07314
1.21504
1.26932
1.26463
1.2209
1.15051
1.06135
0.958611
0.845888
0.725761
0.60014
0.470488
0.337962
0.203512
0.0679574
9.99913
9.99697
9.99346
9.98757
9.97801
9.96308
9.9404
9.90651
9.85598
9.77971
9.66074
9.46258
9.08908
8.21945
5.52128
9.96868
9.90495
9.83785
9.7648
9.68264
9.58723
9.47286
9.33121
9.14937
8.90607
8.56353
8.04857
7.20641
5.68775
2.72705
9.93898
9.81526
9.68637
9.54835
9.39644
9.22451
9.02424
8.78377
8.48538
8.10131
7.586
6.86173
5.79349
4.15742
1.66433
9.91045
9.72916
9.5412
9.34152
9.12413
8.88145
8.60351
8.27653
7.88086
7.38763
6.75355
5.91372
4.77486
3.22221
1.18185
9.88342
9.6477
9.40416
9.14698
8.86935
8.56287
8.21681
7.81696
7.34406
6.77174
6.06396
5.17332
4.04356
2.62567
0.923918
9.85815
9.57166
9.27658
8.96663
8.63458
8.27175
7.86744
7.40808
6.87628
6.24987
5.50134
4.59897
3.5123
2.22626
0.767421
9.83484
9.50157
9.15933
8.80163
8.42116
8.00943
7.55629
7.04949
6.47418
5.81279
5.04551
4.15258
3.11949
1.94683
0.663699
9.81356
9.4377
9.05281
8.65242
8.22944
7.77584
7.28239
6.73845
6.13184
5.44921
4.67694
3.80351
2.82358
1.74411
0.590715
9.79434
9.38011
8.95704
8.51889
8.05897
7.56991
7.04355
6.47091
5.8423
5.14785
4.3786
3.52838
2.59679
1.59272
0.537196
9.77715
9.32866
8.87173
8.40048
7.90873
7.38987
6.83684
6.24222
5.59845
4.89844
4.13647
3.30975
2.42033
1.47706
0.49678
9.7619
9.28308
8.79635
8.29629
7.7773
7.23354
6.65901
6.04765
5.39366
4.69203
3.9393
3.13467
2.28124
1.38709
0.465587
9.74847
9.24299
8.73022
8.20525
7.66306
7.09858
6.50674
5.88267
5.22195
4.5211
3.77816
2.99347
2.17044
1.3161
0.441112
9.73672
9.20795
8.67257
8.12616
7.56429
6.9826
6.37685
5.74313
5.07811
4.37939
3.646
2.87888
2.08137
1.25946
0.42166
9.72649
9.1775
8.62258
8.0578
7.47929
6.88333
6.26638
5.62532
4.95765
4.26175
3.53726
2.7854
2.00924
1.21384
0.406043
9.71764
9.15117
8.57942
7.99896
7.40642
6.79862
6.17264
5.52599
4.85679
4.16396
3.44753
2.70878
1.95047
1.17684
0.393403
9.71001
9.12849
8.54233
7.94851
7.34414
6.72652
6.09325
5.44232
4.77233
4.08257
3.37328
2.64573
1.90234
1.14663
0.383106
9.70346
9.10903
8.51054
7.90538
7.29106
6.6653
6.02611
5.37189
4.70158
4.01474
3.31171
2.59369
1.86276
1.12186
0.374673
9.69786
9.09238
8.48339
7.86861
7.24592
6.6134
5.96939
5.31263
4.64231
3.95815
3.26056
2.55061
1.83009
1.10147
0.367737
9.69307
9.07818
8.46025
7.83733
7.20761
6.56946
5.92154
5.2628
4.59263
3.9109
3.21798
2.51486
1.80305
1.08461
0.362011
9.68899
9.0661
8.44058
7.81078
7.17515
6.53232
5.88118
5.2209
4.55099
3.8714
3.1825
2.48514
1.78062
1.07065
0.357271
9.68553
9.05583
8.42389
7.78827
7.14768
6.50096
5.84718
5.18567
4.51607
3.83836
3.15288
2.46039
1.76197
1.05906
0.353337
9.68259
9.04713
8.40974
7.76922
7.12446
6.47449
5.81854
5.15607
4.48679
3.8107
3.12815
2.43975
1.74644
1.04941
0.350066
9.6801
9.03976
8.39777
7.75312
7.10485
6.45217
5.79444
5.13119
4.46222
3.78755
3.10747
2.42252
1.73349
1.04137
0.347341
9.678
9.03352
8.38765
7.73952
7.08831
6.43337
5.77415
5.11029
4.44161
3.76815
3.09017
2.40812
1.72267
1.03467
0.34507
9.67622
9.02826
8.37911
7.72804
7.07437
6.41754
5.75709
5.09273
4.42432
3.7519
3.07568
2.39608
1.71364
1.02907
0.343173
9.67472
9.02382
8.37191
7.71837
7.06263
6.40421
5.74275
5.07798
4.40981
3.73827
3.06356
2.38601
1.70609
1.02439
0.341588
9.67345
9.02007
8.36584
7.71022
7.05274
6.39301
5.73069
5.0656
4.39764
3.72685
3.0534
2.37758
1.69977
1.02048
0.340263
9.67239
9.01692
8.36073
7.70337
7.04443
6.38359
5.72057
5.05521
4.38743
3.71728
3.0449
2.37052
1.69448
1.01721
0.339156
9.67149
9.01426
8.35643
7.6976
7.03745
6.37567
5.71207
5.04649
4.37888
3.70926
3.03778
2.36461
1.69006
1.01447
0.338229
9.67074
9.01204
8.35282
7.69276
7.03158
6.36903
5.70494
5.03918
4.37171
3.70255
3.03181
2.35967
1.68636
1.01218
0.337455
9.6701
9.01017
8.34979
7.6887
7.02666
6.36347
5.69897
5.03306
4.36571
3.69693
3.02683
2.35554
1.68327
1.01027
0.336807
9.66957
9.0086
8.34725
7.6853
7.02255
6.35882
5.69397
5.02794
4.36069
3.69224
3.02267
2.35209
1.68069
1.00867
0.336267
9.66913
9.00729
8.34513
7.68247
7.01911
6.35493
5.68981
5.02368
4.35651
3.68833
3.0192
2.34922
1.67854
1.00734
0.335817
9.66876
9.0062
8.34337
7.6801
7.01625
6.3517
5.68634
5.02012
4.35303
3.68507
3.01631
2.34683
1.67676
1.00624
0.335443
9.66846
9.0053
8.34191
7.67814
7.01388
6.34902
5.68347
5.01719
4.35015
3.68238
3.01392
2.34485
1.67528
1.00532
0.335134
9.66821
9.00455
8.3407
7.67653
7.01193
6.34681
5.6811
5.01477
4.34778
3.68017
3.01196
2.34323
1.67406
1.00457
0.33488
9.668
9.00395
8.33972
7.67522
7.01034
6.34502
5.67918
5.0128
4.34585
3.67837
3.01036
2.34191
1.67307
1.00396
0.334673
9.66784
9.00346
8.33893
7.67416
7.00907
6.34357
5.67763
5.01121
4.34431
3.67692
3.00908
2.34085
1.67228
1.00347
0.334507
9.66771
9.00308
8.33831
7.67333
7.00806
6.34244
5.67642
5.00997
4.34309
3.67578
3.00807
2.34001
1.67166
1.00309
0.334377
9.66761
9.00279
8.33785
7.67271
7.0073
6.34158
5.6755
5.00903
4.34217
3.67492
3.00731
2.33938
1.67119
1.00279
0.334279
9.66754
9.00258
8.33751
7.67226
7.00677
6.34098
5.67485
5.00837
4.34152
3.67431
3.00677
2.33894
1.67085
1.00259
0.334209
9.6675
9.00246
8.33731
7.67199
7.00644
6.3406
5.67445
5.00796
4.34112
3.67394
3.00644
2.33866
1.67065
1.00246
0.334166
9.66748
9.00241
8.33723
7.67188
7.0063
6.34045
5.67428
5.00779
4.34095
3.67378
3.0063
2.33855
1.67056
1.00241
0.334148
9.66749
9.00243
8.33726
7.67192
7.00635
6.34051
5.67435
5.00785
4.34102
3.67384
3.00636
2.33859
1.6706
1.00243
0.334155
9.66752
9.00252
8.33741
7.67212
7.0066
6.34079
5.67465
5.00816
4.34132
3.67412
3.0066
2.3388
1.67075
1.00252
0.334187
9.66758
9.00269
8.33769
7.67249
7.00705
6.34129
5.67519
5.00871
4.34186
3.67463
3.00705
2.33917
1.67103
1.00269
0.334245
9.66766
9.00294
8.33809
7.67304
7.00771
6.34204
5.67599
5.00953
4.34266
3.67537
3.00771
2.33971
1.67143
1.00295
0.33433
9.66778
9.00328
8.33865
7.67378
7.0086
6.34304
5.67707
5.01064
4.34374
3.67639
3.00861
2.34046
1.67199
1.00329
0.334446
9.66793
9.00372
8.33936
7.67473
7.00975
6.34435
5.67846
5.01206
4.34514
3.67769
3.00977
2.34141
1.67271
1.00373
0.334596
9.66811
9.00428
8.34025
7.67593
7.0112
6.34599
5.68022
5.01386
4.34689
3.67933
3.01122
2.34262
1.67361
1.00429
0.334784
9.66834
9.00496
8.34136
7.67741
7.01299
6.34801
5.68238
5.01607
4.34906
3.68136
3.01302
2.3441
1.67472
1.00498
0.335017
9.66862
9.00579
8.3427
7.67921
7.01517
6.35047
5.68502
5.01878
4.35171
3.68384
3.01521
2.34592
1.67607
1.00581
0.3353
9.66897
9.0068
8.34433
7.68139
7.01781
6.35345
5.68822
5.02205
4.35491
3.68683
3.01787
2.34812
1.67772
1.00683
0.335644
9.66937
9.00801
8.34629
7.68402
7.02099
6.35705
5.69207
5.02599
4.35877
3.69044
3.02107
2.35077
1.6797
1.00806
0.336059
9.66987
9.00946
8.34864
7.68716
7.0248
6.36135
5.69669
5.03072
4.36341
3.69478
3.02491
2.35395
1.68208
1.00953
0.336557
9.67045
9.01119
8.35145
7.69093
7.02935
6.36651
5.70222
5.03638
4.36896
3.69997
3.02951
2.35776
1.68493
1.01129
0.337154
9.67115
9.01326
8.35481
7.69542
7.03479
6.37266
5.70882
5.04315
4.37559
3.70617
3.03502
2.36232
1.68834
1.0134
0.337869
9.67199
9.01573
8.3588
7.70078
7.04128
6.38
5.7167
5.05122
4.38351
3.71359
3.0416
2.36778
1.69243
1.01593
0.338723
9.67298
9.01867
8.36356
7.70715
7.04901
6.38875
5.72609
5.06085
4.39295
3.72244
3.04946
2.37429
1.6973
1.01895
0.339744
9.67416
9.02216
8.36921
7.71473
7.0582
6.39916
5.73728
5.07233
4.40422
3.73299
3.05884
2.38207
1.70312
1.02255
0.340964
9.67556
9.0263
8.37593
7.72374
7.06913
6.41154
5.75059
5.086
4.41764
3.74558
3.07003
2.39135
1.71008
1.02686
0.342423
9.67722
9.03122
8.3839
7.73445
7.08211
6.42627
5.76643
5.10227
4.43364
3.7606
3.08338
2.40244
1.71839
1.032
0.344166
9.67919
9.03705
8.39336
7.74714
7.09753
6.44377
5.78528
5.12165
4.45271
3.77851
3.09933
2.41569
1.72833
1.03816
0.34625
9.68152
9.04396
8.40457
7.7622
7.11583
6.46456
5.80768
5.14472
4.47543
3.79987
3.11837
2.43152
1.74021
1.04552
0.348745
9.68428
9.05213
8.41784
7.78005
7.13754
6.48924
5.83432
5.17217
4.50251
3.82537
3.14111
2.45046
1.75443
1.05434
0.351734
9.68755
9.06179
8.43353
7.80117
7.16325
6.51852
5.86596
5.20484
4.53479
3.8558
3.1683
2.47312
1.77147
1.06492
0.355319
9.6914
9.0732
8.45207
7.82614
7.1937
6.55325
5.90355
5.24371
4.57326
3.89215
3.20083
2.50027
1.7919
1.07761
0.359624
9.69593
9.08665
8.47394
7.85564
7.22971
6.59438
5.94817
5.28996
4.61913
3.93557
3.23977
2.53283
1.81645
1.09288
0.364804
9.70127
9.10247
8.4997
7.89042
7.27225
6.64308
6.00111
5.34497
4.67384
3.9875
3.28645
2.57195
1.84599
1.11127
0.371049
9.70753
9.12105
8.52997
7.93137
7.32244
6.70067
6.06389
5.4104
4.7391
4.04964
3.34248
2.61902
1.88161
1.13348
0.378596
9.71486
9.14281
8.56548
7.97948
7.38154
6.76867
6.13826
5.48818
4.81698
4.12406
3.40981
2.67577
1.92467
1.16038
0.387746
9.72341
9.16823
8.60702
8.03587
7.451
6.84886
6.22629
5.58062
4.90994
4.21329
3.49089
2.74438
1.97689
1.19308
0.398881
9.73337
9.19783
8.65546
8.1018
7.53245
6.94324
6.33034
5.69042
5.02094
4.32039
3.58872
2.82754
2.04044
1.23298
0.412491
9.7449
9.23216
8.71175
8.1786
7.62767
7.05407
6.45315
5.82075
5.15349
4.44911
3.70702
2.92869
2.11812
1.28193
0.429219
9.75821
9.27181
8.77689
8.26775
7.73865
7.18386
6.59781
5.9753
5.3118
4.60402
3.85048
3.05224
2.21358
1.34237
0.44992
9.77349
9.31737
8.8519
8.37076
7.86744
7.33534
6.76779
6.15828
5.50086
4.7907
4.02497
3.20385
2.33163
1.41755
0.475755
9.79092
9.36941
8.9378
8.48915
8.01623
7.51144
6.9669
6.37453
5.72653
5.01596
4.23791
3.39092
2.47877
1.51196
0.508337
9.81066
9.42845
9.03552
8.62439
8.18712
7.71514
7.19919
6.62941
5.99563
5.28807
4.49872
3.62325
2.66384
1.63194
0.549983
9.83287
9.49494
9.14587
8.77778
8.38211
7.94936
7.46886
6.92873
6.31593
5.61698
4.8193
3.91387
2.89924
1.78666
0.604135
9.85762
9.56916
9.26943
8.95032
8.60284
8.21671
7.77993
7.27848
6.69606
6.01444
5.2147
4.28029
3.20266
1.98996
0.676163
9.88494
9.65121
9.40643
9.14254
8.8504
8.51921
8.13591
7.68444
7.14504
6.49389
5.70362
4.74614
3.59988
2.26344
0.774945
9.91477
9.74092
9.55668
9.35437
9.12505
8.85787
8.53919
8.15142
7.67162
7.06994
6.30861
5.34308
4.12914
2.6425
0.91636
9.94695
9.83784
9.71948
9.58494
9.42598
9.23229
8.99044
8.6823
8.28279
7.75682
7.05539
6.1125
4.84774
3.18788
1.13178
9.98121
9.94117
9.89351
9.83246
9.75099
9.64012
9.48769
9.27658
8.98177
8.56551
7.9698
7.10541
5.8407
4.0084
1.49127
10.0172
10.0498
10.0768
10.0941
10.0964
10.0768
10.0257
9.92896
9.76503
9.49877
9.07076
8.37627
7.22778
5.30446
2.17393
10.0544
10.1622
10.2669
10.3662
10.457
10.5353
10.5952
10.628
10.6193
10.5443
10.3567
9.96234
9.15289
7.43881
3.70197
10.0923
10.2767
10.4608
10.6441
10.8263
11.0065
11.1836
11.3558
11.5195
11.668
11.7862
11.8366
11.7061
10.9778
7.77656
10.1303
10.3916
10.6552
10.9229
11.1968
11.4797
11.7754
12.0894
12.4303
12.8126
13.2627
13.8363
14.6745
16.234
20.4288
10.1677
10.5047
10.8467
11.1973
11.5611
11.9441
12.3544
12.8043
13.3123
13.91
14.6533
15.6523
17.1419
19.6599
24.4102
10.2041
10.6145
11.0321
11.4624
11.912
12.3893
12.906
13.4786
14.1321
14.906
15.8662
17.1273
18.895
21.5353
25.6364
0.441196
0.790764
0.943223
0.999858
1.00073
0.965553
0.905571
0.827853
0.737149
0.636817
0.529329
0.416574
0.300051
0.180999
0.0604914
0.236716
0.541933
0.713303
0.797866
0.825603
0.814621
0.776259
0.71799
0.644973
0.560921
0.468606
0.370172
0.267338
0.161541
0.0540336
0.149049
0.386044
0.543657
0.635326
0.677355
0.682691
0.660762
0.61836
0.560452
0.490756
0.412126
0.32682
0.236681
0.14327
0.0479634
0.103815
0.285276
0.419801
0.507249
0.554578
0.569688
0.559474
0.52949
0.484111
0.426789
0.360277
0.28682
0.208293
0.126312
0.0423237
0.0767518
0.217098
0.328631
0.407028
0.454169
0.474265
0.471908
0.451304
0.416059
0.369198
0.313247
0.250338
0.182301
0.110748
0.0371409
0.0588246
0.168927
0.260469
0.328506
0.372535
0.394428
0.397008
0.383278
0.356068
0.317915
0.271046
0.217414
0.158749
0.0966072
0.0324264
0.0461372
0.133644
0.208627
0.266653
0.30627
0.327998
0.33343
0.324609
0.303673
0.27268
0.233536
0.187983
0.137609
0.0838817
0.0281781
0.0367601
0.107056
0.168556
0.217583
0.252422
0.27288
0.279747
0.27435
0.258258
0.233102
0.200476
0.161897
0.118796
0.0725275
0.0243828
0.0296212
0.0865765
0.137146
0.178361
0.208557
0.227198
0.234576
0.231513
0.219135
0.198709
0.171546
0.138948
0.102182
0.062475
0.0210185
0.0240702
0.0705303
0.112229
0.14679
0.172715
0.189336
0.196652
0.195142
0.185598
0.168992
0.146389
0.118893
0.0876096
0.0536366
0.0180569
0.0196858
0.0577901
0.0922667
0.121214
0.143332
0.157932
0.164854
0.164349
0.156963
0.143436
0.124629
0.101465
0.0749037
0.0459132
0.0154662
0.0161813
0.0475684
0.0761435
0.100379
0.119169
0.131859
0.138212
0.138332
0.13259
0.121547
0.105892
0.0863968
0.0638834
0.0392007
0.0132122
0.0133538
0.0392988
0.0630332
0.0833235
0.099239
0.110186
0.115895
0.116383
0.111897
0.102858
0.0898198
0.0734233
0.0543688
0.0333945
0.0112607
0.011056
0.0325638
0.0523139
0.0693054
0.0827586
0.0921482
0.0972041
0.0978887
0.0943627
0.0869456
0.0760791
0.0622946
0.0461867
0.0283932
0.00957839
0.00917746
0.027049
0.0435097
0.0577436
0.0690991
0.077119
0.081547
0.0823168
0.0795297
0.0734275
0.0643638
0.0527784
0.0391748
0.0241007
0.00813338
0.00763453
0.0225135
0.0362514
0.0481798
0.057755
0.0645831
0.0684293
0.0692138
0.066998
0.061965
0.0543988
0.0446633
0.0331834
0.0204281
0.00689626
0.00636238
0.0187702
0.0302491
0.0402497
0.048318
0.0541171
0.0574369
0.0581936
0.0564218
0.0522609
0.0459396
0.037759
0.0280772
0.0172945
0.0058401
0.00531025
0.0156718
0.025273
0.0336609
0.0404563
0.0453723
0.0482236
0.0489285
0.0475039
0.0440566
0.038771
0.0318967
0.0237353
0.0146272
0.00494063
0.00443791
0.0131011
0.0211392
0.0281775
0.0338991
0.0380606
0.0405003
0.0411416
0.0399902
0.0371282
0.032705
0.0269279
0.0200503
0.0123616
0.00417626
0.0037132
0.0109643
0.0176996
0.0236081
0.028425
0.0319441
0.0340255
0.0345992
0.033664
0.0312833
0.027579
0.022723
0.0169284
0.0104407
0.00352794
0.00311019
0.00918552
0.0148338
0.0197965
0.0238518
0.0268255
0.0285972
0.0291041
0.028341
0.0263573
0.0232525
0.0191695
0.0142876
0.00881471
0.002979
0.00260786
0.00770322
0.012444
0.0166146
0.0200295
0.0225413
0.0240468
0.0244907
0.0238653
0.0222096
0.0196049
0.0161705
0.0120571
0.0074406
0.00251495
0.00218908
0.00646708
0.0104498
0.0139575
0.0168342
0.0189555
0.0202335
0.0206194
0.0201049
0.0187205
0.0165334
0.0136429
0.0101758
0.00628108
0.00212328
0.00183982
0.00543589
0.00878553
0.0117382
0.0141632
0.0159552
0.0170393
0.0173732
0.0169482
0.0157888
0.0139501
0.0115154
0.00859145
0.00530415
0.00179321
0.00154856
0.00457577
0.00739677
0.00988535
0.0119315
0.0134463
0.014366
0.0146538
0.0143014
0.0133284
0.0117805
0.00972749
0.00725929
0.00448246
0.00151555
0.00130581
0.00385881
0.00623876
0.0083396
0.0100686
0.0113506
0.0121312
0.0123788
0.0120855
0.0112671
0.00996168
0.00822777
0.00614137
0.00379271
0.00128243
0.00110377
0.00326196
0.00527449
0.00705195
0.00851602
0.00960297
0.0102664
0.0104792
0.010234
0.00954378
0.00844027
0.00697274
0.00520551
0.00321514
0.0010872
0.000935971
0.00276623
0.0044734
0.00598186
0.0072252
0.00814929
0.00871452
0.00889745
0.00869157
0.00810736
0.00717154
0.00592574
0.00442453
0.00273306
0.000924238
0.000797108
0.00235594
0.00381026
0.00509578
0.006156
0.00694471