/*--------------------------------*- C++ -*----------------------------------*\
| =========                 |                                                 |
| \\      /  F ield         | OpenFOAM: The Open Source CFD Toolbox           |
|  \\    /   O peration     | Version:  5.x                                   |
|   \\  /    A nd           | Web:      www.OpenFOAM.org                      |
|    \\/     M anipulation  |                                                 |
\*---------------------------------------------------------------------------*/
FoamFile
{
    version     2.0;
    format      ascii;
    class       volScalarField;
    location    "3.8";
    object      gradTx;
}
// * * * * * * * * * * * * * * * * * * * * * * * * * * * * * * * * * * * * * //

dimensions      [0 -1 0 1 0 0 0];

internalField   nonuniform List<scalar> 
3200
(
6.52846e-10
-1.98961e-10
-7.10441e-11
-6.46351e-11
-5.62911e-11
-5.45096e-11
-3.09732e-11
-2.93984e-11
-2.13831e-11
-3.22757e-11
-1.46217e-11
-1.03086e-11
-9.87657e-12
-7.4459e-12
-7.22485e-12
-5.53088e-12
-5.37746e-12
-4.14751e-12
-4.0355e-12
-3.12554e-12
-3.0423e-12
-2.36108e-12
-2.2986e-12
-1.78494e-12
-1.73774e-12
-1.34877e-12
-1.31299e-12
-1.01777e-12
-9.90613e-13
-7.66353e-13
-7.45726e-13
-5.75401e-13
-5.59741e-13
-4.30502e-13
-4.18627e-13
-3.20715e-13
-3.11726e-13
-2.37703e-13
-2.30915e-13
-1.75097e-13
-1.69986e-13
-1.2803e-13
-1.24194e-13
-9.2782e-14
-8.99161e-14
-6.65127e-14
-6.4389e-14
-4.70861e-14
-4.56378e-14
-3.37306e-14
-5.09743e-14
-2.30082e-14
-1.51544e-14
-1.43761e-14
-9.69237e-15
-9.27344e-15
-6.09806e-15
-5.82126e-15
-3.71993e-15
-3.53941e-15
-2.19742e-15
-2.08368e-15
-1.25832e-15
-1.18922e-15
-6.99586e-16
-6.59027e-16
-3.77727e-16
-3.54621e-16
-1.97265e-16
-1.84413e-16
-9.81513e-17
-9.09612e-17
-4.0902e-17
-3.68488e-17
-9.76157e-18
-7.93561e-18
-5.16841e-19
-9.47511e-20
-2.14469e-20
4.90707e-18
6.46706e-10
-1.80352e-10
-8.03985e-11
-6.61092e-11
-5.69532e-11
-5.27411e-11
-3.29147e-11
-2.93265e-11
-2.28888e-11
-2.97938e-11
-1.56609e-11
-1.08693e-11
-9.80841e-12
-7.64759e-12
-7.13172e-12
-5.6615e-12
-5.30593e-12
-4.24123e-12
-3.98184e-12
-3.19457e-12
-3.00184e-12
-2.41263e-12
-2.26796e-12
-1.82374e-12
-1.71449e-12
-1.37813e-12
-1.29532e-12
-1.04005e-12
-9.77181e-13
-7.83275e-13
-7.35525e-13
-5.88255e-13
-5.52005e-13
-4.40259e-13
-4.12771e-13
-3.28111e-13
-3.07304e-13
-2.43298e-13
-2.27585e-13
-1.7932e-13
-1.67487e-13
-1.31208e-13
-1.22328e-13
-9.51644e-14
-8.85302e-14
-6.82944e-14
-6.33819e-14
-4.84732e-14
-4.51809e-14
-3.5959e-14
-4.69973e-14
-2.45525e-14
-1.61106e-14
-1.4215e-14
-1.0077e-14
-9.1011e-15
-6.34757e-15
-5.70611e-15
-3.88583e-15
-3.46756e-15
-2.30435e-15
-2.04074e-15
-1.32469e-15
-1.16449e-15
-7.39296e-16
-6.45212e-16
-4.00704e-16
-3.47082e-16
-2.10187e-16
-1.80349e-16
-1.05194e-16
-8.85011e-17
-4.50156e-17
-3.56175e-17
-1.21536e-17
-7.90993e-18
-1.27063e-18
-2.7029e-19
-6.21049e-20
4.89372e-18
6.41677e-10
-1.66856e-10
-8.6326e-11
-6.73776e-11
-5.74171e-11
-5.15969e-11
-3.42064e-11
-2.93683e-11
-2.38605e-11
-2.81534e-11
-1.63262e-11
-1.12807e-11
-9.78416e-12
-7.78341e-12
-7.07672e-12
-5.74749e-12
-5.26272e-12
-4.30271e-12
-3.94927e-12
-3.23979e-12
-2.97722e-12
-2.44637e-12
-2.24929e-12
-1.84914e-12
-1.7003e-12
-1.39734e-12
-1.28454e-12
-1.05462e-12
-9.68984e-13
-7.94343e-13
-7.29299e-13
-5.96664e-13
-5.47284e-13
-4.46642e-13
-4.09198e-13
-3.3295e-13
-3.04607e-13
-2.4696e-13
-2.25556e-13
-1.82084e-13
-1.65965e-13
-1.33289e-13
-1.21192e-13
-9.67249e-14
-8.76878e-14
-6.94627e-14
-6.27742e-14
-4.93952e-14
-4.49608e-14
-3.73766e-14
-4.43593e-14
-2.55365e-14
-1.68049e-14
-1.41435e-14
-1.03351e-14
-8.99978e-15
-6.51254e-15
-5.63806e-15
-3.99561e-15
-3.42547e-15
-2.37527e-15
-2.01587e-15
-1.36882e-15
-1.15034e-15
-7.65754e-16
-6.37409e-16
-4.16042e-16
-3.42872e-16
-2.18825e-16
-1.78096e-16
-1.09896e-16
-8.71119e-17
-4.77652e-17
-3.49484e-17
-1.37766e-17
-7.97994e-18
-1.7988e-18
-4.14111e-19
-9.64526e-20
4.88238e-18
6.38145e-10
-1.58083e-10
-8.97896e-11
-6.82859e-11
-5.77148e-11
-5.0915e-11
-3.49956e-11
-2.94365e-11
-2.44399e-11
-2.71575e-11
-1.67201e-11
-1.15499e-11
-9.77993e-12
-7.86736e-12
-7.04653e-12
-5.79962e-12
-5.23845e-12
-4.33986e-12
-3.93089e-12
-3.26709e-12
-2.9633e-12
-2.46673e-12
-2.23872e-12
-1.86446e-12
-1.69226e-12
-1.40892e-12
-1.27842e-12
-1.06341e-12
-9.64334e-13
-8.01018e-13
-7.25769e-13
-6.01734e-13
-5.44607e-13
-4.50492e-13
-4.07173e-13
-3.35869e-13
-3.03079e-13
-2.49169e-13
-2.24406e-13
-1.83752e-13
-1.65104e-13
-1.34544e-13
-1.2055e-13
-9.76669e-14
-8.72118e-14
-7.01685e-14
-6.24333e-14
-4.99587e-14
-4.48661e-14
-3.82111e-14
-4.27531e-14
-2.61165e-14
-1.72561e-14
-1.41177e-14
-1.04941e-14
-8.94443e-15
-6.6129e-15
-5.60065e-15
-4.06244e-15
-3.40255e-15
-2.41853e-15
-2.00248e-15
-1.39579e-15
-1.14283e-15
-7.81951e-16
-6.33317e-16
-4.25445e-16
-3.40692e-16
-2.24127e-16
-1.76939e-16
-1.12781e-16
-8.6384e-17
-4.94527e-17
-3.46131e-17
-1.47843e-17
-8.06514e-18
-2.135e-18
-5.15202e-19
-1.21227e-19
4.87415e-18
6.36329e-10
-1.53764e-10
-9.13809e-11
-6.8756e-11
-5.78609e-11
-5.05972e-11
-3.53698e-11
-2.94817e-11
-2.47103e-11
-2.66874e-11
-1.6903e-11
-1.16829e-11
-9.78124e-12
-7.90749e-12
-7.03326e-12
-5.82422e-12
-5.2276e-12
-4.35736e-12
-3.92264e-12
-3.27994e-12
-2.95704e-12
-2.47631e-12
-2.23396e-12
-1.87166e-12
-1.68864e-12
-1.41437e-12
-1.27567e-12
-1.06754e-12
-9.6224e-13
-8.04156e-13
-7.24178e-13
-6.04119e-13
-5.43401e-13
-4.52303e-13
-4.06261e-13
-3.37242e-13
-3.02391e-13
-2.50208e-13
-2.23889e-13
-1.84537e-13
-1.64716e-13
-1.35135e-13
-1.20261e-13
-9.81103e-14
-8.69979e-14
-7.05009e-14
-6.2281e-14
-5.02261e-14
-4.48332e-14
-3.85971e-14
-4.19935e-14
-2.63851e-14
-1.74781e-14
-1.4111e-14
-1.057e-14
-8.92019e-15
-6.66038e-15
-5.5842e-15
-4.09406e-15
-3.39253e-15
-2.43902e-15
-1.99669e-15
-1.40859e-15
-1.13961e-15
-7.89643e-16
-6.31585e-16
-4.29915e-16
-3.39779e-16
-2.26649e-16
-1.76458e-16
-1.14152e-16
-8.60759e-17
-5.02555e-17
-3.44766e-17
-1.52672e-17
-8.11854e-18
-2.29867e-18
-5.67198e-19
-1.34181e-19
4.86983e-18
6.36329e-10
-1.53764e-10
-9.1381e-11
-6.8756e-11
-5.78609e-11
-5.05972e-11
-3.53698e-11
-2.94817e-11
-2.47103e-11
-2.66874e-11
-1.6903e-11
-1.16829e-11
-9.78124e-12
-7.90749e-12
-7.03326e-12
-5.82422e-12
-5.2276e-12
-4.35736e-12
-3.92264e-12
-3.27994e-12
-2.95704e-12
-2.47631e-12
-2.23396e-12
-1.87166e-12
-1.68864e-12
-1.41437e-12
-1.27567e-12
-1.06754e-12
-9.6224e-13
-8.04157e-13
-7.24178e-13
-6.04119e-13
-5.43401e-13
-4.52303e-13
-4.06261e-13
-3.37242e-13
-3.02391e-13
-2.50208e-13
-2.23889e-13
-1.84537e-13
-1.64716e-13
-1.35135e-13
-1.20261e-13
-9.81103e-14
-8.69979e-14
-7.05009e-14
-6.2281e-14
-5.02261e-14
-4.48332e-14
-3.85971e-14
-4.19935e-14
-2.6385e-14
-1.7478e-14
-1.4111e-14
-1.057e-14
-8.92019e-15
-6.66037e-15
-5.5842e-15
-4.09406e-15
-3.39253e-15
-2.43902e-15
-1.99669e-15
-1.40859e-15
-1.13961e-15
-7.89643e-16
-6.31585e-16
-4.29915e-16
-3.39779e-16
-2.26649e-16
-1.76458e-16
-1.14152e-16
-8.60759e-17
-5.02555e-17
-3.44766e-17
-1.52672e-17
-8.11852e-18
-2.29866e-18
-5.67192e-19
-1.34175e-19
4.86983e-18
6.38146e-10
-1.58083e-10
-8.97898e-11
-6.82859e-11
-5.77149e-11
-5.0915e-11
-3.49956e-11
-2.94365e-11
-2.44399e-11
-2.71574e-11
-1.67201e-11
-1.15499e-11
-9.77993e-12
-7.86735e-12
-7.04653e-12
-5.79962e-12
-5.23845e-12
-4.33986e-12
-3.93089e-12
-3.26709e-12
-2.9633e-12
-2.46673e-12
-2.23872e-12
-1.86446e-12
-1.69226e-12
-1.40892e-12
-1.27842e-12
-1.06341e-12
-9.64335e-13
-8.01018e-13
-7.25769e-13
-6.01735e-13
-5.44607e-13
-4.50492e-13
-4.07173e-13
-3.35869e-13
-3.03079e-13
-2.49169e-13
-2.24406e-13
-1.83752e-13
-1.65104e-13
-1.34544e-13
-1.2055e-13
-9.76669e-14
-8.72118e-14
-7.01685e-14
-6.24333e-14
-4.99587e-14
-4.48661e-14
-3.82111e-14
-4.27531e-14
-2.61165e-14
-1.72561e-14
-1.41177e-14
-1.04941e-14
-8.94442e-15
-6.6129e-15
-5.60065e-15
-4.06243e-15
-3.40255e-15
-2.41853e-15
-2.00248e-15
-1.39579e-15
-1.14283e-15
-7.8195e-16
-6.33317e-16
-4.25444e-16
-3.40692e-16
-2.24126e-16
-1.76939e-16
-1.1278e-16
-8.63839e-17
-4.94526e-17
-3.4613e-17
-1.47842e-17
-8.0651e-18
-2.13497e-18
-5.15184e-19
-1.2121e-19
4.87415e-18
6.41678e-10
-1.66857e-10
-8.63262e-11
-6.73777e-11
-5.74171e-11
-5.15969e-11
-3.42065e-11
-2.93683e-11
-2.38605e-11
-2.81534e-11
-1.63262e-11
-1.12806e-11
-9.78415e-12
-7.78341e-12
-7.07672e-12
-5.74749e-12
-5.26272e-12
-4.30271e-12
-3.94927e-12
-3.23979e-12
-2.97722e-12
-2.44637e-12
-2.24929e-12
-1.84914e-12
-1.7003e-12
-1.39734e-12
-1.28454e-12
-1.05462e-12
-9.68984e-13
-7.94343e-13
-7.293e-13
-5.96664e-13
-5.47284e-13
-4.46642e-13
-4.09199e-13
-3.3295e-13
-3.04608e-13
-2.4696e-13
-2.25556e-13
-1.82085e-13
-1.65965e-13
-1.33289e-13
-1.21192e-13
-9.67249e-14
-8.76878e-14
-6.94627e-14
-6.27742e-14
-4.93952e-14
-4.49608e-14
-3.73766e-14
-4.43593e-14
-2.55365e-14
-1.68049e-14
-1.41435e-14
-1.03351e-14
-8.99978e-15
-6.51253e-15
-5.63805e-15
-3.99561e-15
-3.42547e-15
-2.37527e-15
-2.01587e-15
-1.36882e-15
-1.15034e-15
-7.65753e-16
-6.37408e-16
-4.16041e-16
-3.42872e-16
-2.18825e-16
-1.78095e-16
-1.09896e-16
-8.71118e-17
-4.77651e-17
-3.49483e-17
-1.37765e-17
-7.97988e-18
-1.79876e-18
-4.14088e-19
-9.64305e-20
4.88238e-18
6.46707e-10
-1.80353e-10
-8.03987e-11
-6.61093e-11
-5.69532e-11
-5.27411e-11
-3.29147e-11
-2.93265e-11
-2.28888e-11
-2.97938e-11
-1.56609e-11
-1.08693e-11
-9.80841e-12
-7.64759e-12
-7.13172e-12
-5.6615e-12
-5.30593e-12
-4.24123e-12
-3.98184e-12
-3.19457e-12
-3.00184e-12
-2.41263e-12
-2.26796e-12
-1.82375e-12
-1.71449e-12
-1.37813e-12
-1.29532e-12
-1.04005e-12
-9.77182e-13
-7.83275e-13
-7.35525e-13
-5.88255e-13
-5.52005e-13
-4.40259e-13
-4.12771e-13
-3.28111e-13
-3.07304e-13
-2.43298e-13
-2.27585e-13
-1.7932e-13
-1.67487e-13
-1.31208e-13
-1.22328e-13
-9.51644e-14
-8.85303e-14
-6.82944e-14
-6.3382e-14
-4.84732e-14
-4.51809e-14
-3.5959e-14
-4.69973e-14
-2.45525e-14
-1.61106e-14
-1.4215e-14
-1.0077e-14
-9.10109e-15
-6.34757e-15
-5.70611e-15
-3.88583e-15
-3.46756e-15
-2.30435e-15
-2.04073e-15
-1.32469e-15
-1.16449e-15
-7.39295e-16
-6.45211e-16
-4.00704e-16
-3.47082e-16
-2.10187e-16
-1.80348e-16
-1.05193e-16
-8.85009e-17
-4.50155e-17
-3.56174e-17
-1.21535e-17
-7.90987e-18
-1.2706e-18
-2.7027e-19
-6.20855e-20
4.89373e-18
6.52847e-10
-1.98961e-10
-7.10442e-11
-6.46351e-11
-5.62912e-11
-5.45096e-11
-3.09732e-11
-2.93984e-11
-2.13831e-11
-3.22757e-11
-1.46217e-11
-1.03086e-11
-9.87657e-12
-7.4459e-12
-7.22485e-12
-5.53089e-12
-5.37747e-12
-4.14751e-12
-4.0355e-12
-3.12554e-12
-3.0423e-12
-2.36108e-12
-2.2986e-12
-1.78494e-12
-1.73774e-12
-1.34877e-12
-1.313e-12
-1.01777e-12
-9.90613e-13
-7.66354e-13
-7.45726e-13
-5.75401e-13
-5.59741e-13
-4.30502e-13
-4.18627e-13
-3.20715e-13
-3.11726e-13
-2.37703e-13
-2.30915e-13
-1.75097e-13
-1.69986e-13
-1.2803e-13
-1.24195e-13
-9.2782e-14
-8.99161e-14
-6.65127e-14
-6.43891e-14
-4.70861e-14
-4.56378e-14
-3.37306e-14
-5.09743e-14
-2.30082e-14
-1.51544e-14
-1.43761e-14
-9.69237e-15
-9.27344e-15
-6.09806e-15
-5.82126e-15
-3.71993e-15
-3.53941e-15
-2.19742e-15
-2.08368e-15
-1.25832e-15
-1.18922e-15
-6.99586e-16
-6.59027e-16
-3.77727e-16
-3.5462e-16
-1.97265e-16
-1.84413e-16
-9.81512e-17
-9.09611e-17
-4.0902e-17
-3.68487e-17
-9.76154e-18
-7.93559e-18
-5.16828e-19
-9.47431e-20
-2.14387e-20
4.90707e-18
4.14005e-06
-3.69182e-06
-2.92052e-07
-1.24378e-07
-1.95481e-08
-9.44899e-09
-1.56071e-09
-7.6784e-10
-1.60264e-10
-1.17903e-10
-3.23159e-11
-1.8126e-11
-1.63119e-11
-1.31453e-11
-1.28128e-11
-1.07553e-11
-1.05537e-11
-8.82671e-12
-8.65974e-12
-7.1917e-12
-7.05095e-12
-5.82174e-12
-5.70463e-12
-4.68987e-12
-4.59362e-12
-3.76465e-12
-3.68628e-12
-3.01414e-12
-2.95073e-12
-2.40864e-12
-2.35758e-12
-1.922e-12
-1.88102e-12
-1.53194e-12
-1.49913e-12
-1.21991e-12
-1.19368e-12
-9.70658e-13
-9.49716e-13
-7.71799e-13
-7.551e-13
-6.13324e-13
-6.00024e-13
-4.87189e-13
-4.76614e-13
-3.86958e-13
-3.78616e-13
-3.07732e-13
-3.02173e-13
-2.53146e-13
-4.10054e-13
-2.01726e-13
-1.57523e-13
-1.52856e-13
-1.25162e-13
-1.22542e-13
-1.01164e-13
-9.91785e-14
-8.26059e-14
-8.10725e-14
-6.83021e-14
-6.71238e-14
-5.73508e-14
-5.64476e-14
-4.89665e-14
-4.82325e-14
-4.17275e-14
-4.10143e-14
-3.3889e-14
-3.31232e-14
-2.55146e-14
-2.47859e-14
-1.85062e-14
-1.76665e-14
-7.77468e-15
-6.9343e-15
-4.22767e-16
-7.53646e-17
-1.69843e-17
-1.22669e-15
4.0509e-06
-3.2576e-06
-5.55076e-07
-1.78824e-07
-4.04946e-08
-1.38984e-08
-3.22692e-09
-1.12477e-09
-2.92627e-10
-1.40722e-10
-4.49204e-11
-2.18458e-11
-1.6953e-11
-1.35544e-11
-1.27393e-11
-1.0917e-11
-1.04475e-11
-8.95328e-12
-8.56681e-12
-7.29916e-12
-6.97354e-12
-5.9121e-12
-5.64115e-12
-4.76472e-12
-4.54203e-12
-3.82596e-12
-3.64461e-12
-3.06394e-12
-2.91722e-12
-2.44885e-12
-2.3307e-12
-1.95434e-12
-1.8595e-12
-1.55788e-12
-1.48193e-12
-1.24066e-12
-1.17995e-12
-9.87242e-13
-9.38777e-13
-7.85033e-13
-7.46388e-13
-6.23874e-13
-5.93096e-13
-4.95591e-13
-4.7112e-13
-3.93671e-13
-3.74399e-13
-3.13635e-13
-3.01309e-13
-2.68498e-13
-3.77421e-13
-2.13962e-13
-1.63464e-13
-1.51964e-13
-1.27396e-13
-1.21289e-13
-1.02777e-13
-9.81781e-14
-8.38521e-14
-8.03029e-14
-6.92641e-14
-6.65369e-14
-5.80868e-14
-5.59951e-14
-4.95119e-14
-4.78106e-14
-4.21657e-14
-4.05145e-14
-3.4367e-14
-3.25977e-14
-2.606e-14
-2.43712e-14
-1.88681e-14
-1.69286e-14
-8.51743e-15
-6.5852e-15
-1.02172e-15
-2.14526e-16
-4.91698e-17
-1.23748e-15
3.97794e-06
-2.94768e-06
-7.25046e-07
-2.23751e-07
-5.69704e-08
-1.77101e-08
-4.55005e-09
-1.43078e-09
-3.97737e-10
-1.61282e-10
-5.46111e-11
-2.48368e-11
-1.75338e-11
-1.386e-11
-1.2706e-11
-1.10244e-11
-1.03821e-11
-9.03546e-12
-8.50906e-12
-7.36889e-12
-6.92552e-12
-5.97079e-12
-5.60185e-12
-4.81339e-12
-4.51015e-12
-3.86585e-12
-3.61888e-12
-3.09635e-12
-2.89654e-12
-2.47504e-12
-2.31413e-12
-1.97541e-12
-1.84625e-12
-1.57477e-12
-1.47135e-12
-1.25419e-12
-1.17151e-12
-9.98048e-13
-9.32042e-13
-7.93658e-13
-7.41026e-13
-6.3075e-13
-5.88832e-13
-5.01068e-13
-4.67742e-13
-3.98055e-13
-3.71838e-13
-3.17598e-13
-3.01263e-13
-2.78179e-13
-3.55681e-13
-2.21678e-13
-1.67843e-13
-1.51594e-13
-1.2889e-13
-1.20531e-13
-1.03832e-13
-9.75661e-14
-8.46666e-14
-7.98323e-14
-6.98932e-14
-6.61784e-14
-5.8568e-14
-5.57179e-14
-4.98657e-14
-4.7546e-14
-4.24439e-14
-4.01942e-14
-3.46696e-14
-3.22628e-14
-2.64113e-14
-2.4109e-14
-1.90873e-14
-1.64494e-14
-9.00094e-15
-6.38128e-15
-1.4304e-15
-3.27995e-16
-7.63386e-17
-1.24665e-15
3.92672e-06
-2.74843e-06
-8.26158e-07
-2.55293e-07
-6.83432e-08
-2.04767e-08
-5.47107e-09
-1.65315e-09
-4.70917e-10
-1.76629e-10
-6.12187e-11
-2.69266e-11
-1.79686e-11
-1.40645e-11
-1.26935e-11
-1.10902e-11
-1.03448e-11
-9.08473e-12
-8.47577e-12
-7.41065e-12
-6.89786e-12
-6.00597e-12
-5.57927e-12
-4.84259e-12
-4.49185e-12
-3.88979e-12
-3.60414e-12
-3.11582e-12
-2.8847e-12
-2.49077e-12
-2.30465e-12
-1.98806e-12
-1.83867e-12
-1.58493e-12
-1.46529e-12
-1.26231e-12
-1.16667e-12
-1.00454e-12
-9.28192e-13
-7.98842e-13
-7.37961e-13
-6.34884e-13
-5.86396e-13
-5.04361e-13
-4.65813e-13
-4.00694e-13
-3.70394e-13
-3.20041e-13
-3.01482e-13
-2.83833e-13
-3.42398e-13
-2.26184e-13
-1.70716e-13
-1.51481e-13
-1.29809e-13
-1.20105e-13
-1.04469e-13
-9.72182e-14
-8.51574e-14
-7.95649e-14
-7.02724e-14
-6.5975e-14
-5.88581e-14
-5.55601e-14
-5.00775e-14
-4.73922e-14
-4.26074e-14
-4.00045e-14
-3.4847e-14
-3.20652e-14
-2.66203e-14
-2.39552e-14
-1.9211e-14
-1.61625e-14
-9.29117e-15
-6.27053e-15
-1.68507e-15
-4.07405e-16
-9.59197e-17
-1.25331e-15
3.9004e-06
-2.65099e-06
-8.73206e-07
-2.71474e-07
-7.415e-08
-2.19276e-08
-5.944e-09
-1.76987e-09
-5.08499e-10
-1.84794e-10
-6.45727e-11
-2.80001e-11
-1.82002e-11
-1.41672e-11
-1.26901e-11
-1.11214e-11
-1.03279e-11
-9.10781e-12
-8.46059e-12
-7.4302e-12
-6.88527e-12
-6.02245e-12
-5.56899e-12
-4.85628e-12
-4.48354e-12
-3.90102e-12
-3.59744e-12
-3.12495e-12
-2.87933e-12
-2.49815e-12
-2.30035e-12
-1.994e-12
-1.83523e-12
-1.58969e-12
-1.46254e-12
-1.26613e-12
-1.16448e-12
-1.00759e-12
-9.26447e-13
-8.01276e-13
-7.36572e-13
-6.36824e-13
-5.85292e-13
-5.05907e-13
-4.6494e-13
-4.01934e-13
-3.69747e-13
-3.21207e-13
-3.01661e-13
-2.86434e-13
-3.36102e-13
-2.28257e-13
-1.72138e-13
-1.51462e-13
-1.30246e-13
-1.19914e-13
-1.04768e-13
-9.70613e-14
-8.53881e-14
-7.94443e-14
-7.04507e-14
-6.58833e-14
-5.89945e-14
-5.54888e-14
-5.01767e-14
-4.73217e-14
-4.26831e-14
-3.99164e-14
-3.49289e-14
-3.19737e-14
-2.67177e-14
-2.38842e-14
-1.92665e-14
-1.60282e-14
-9.42719e-15
-6.22225e-15
-1.80737e-15
-4.48132e-16
-1.06154e-16
-1.2568e-15
3.9004e-06
-2.65099e-06
-8.73207e-07
-2.71474e-07
-7.41498e-08
-2.19275e-08
-5.94393e-09
-1.76984e-09
-5.08487e-10
-1.84789e-10
-6.45714e-11
-2.79997e-11
-1.82001e-11
-1.41671e-11
-1.26901e-11
-1.11214e-11
-1.03279e-11
-9.10781e-12
-8.46059e-12
-7.4302e-12
-6.88527e-12
-6.02245e-12
-5.56899e-12
-4.85628e-12
-4.48354e-12
-3.90102e-12
-3.59744e-12
-3.12495e-12
-2.87933e-12
-2.49815e-12
-2.30035e-12
-1.994e-12
-1.83523e-12
-1.58969e-12
-1.46254e-12
-1.26613e-12
-1.16449e-12
-1.00759e-12
-9.26447e-13
-8.01276e-13
-7.36572e-13
-6.36824e-13
-5.85292e-13
-5.05907e-13
-4.6494e-13
-4.01934e-13
-3.69747e-13
-3.21207e-13
-3.01661e-13
-2.86434e-13
-3.36102e-13
-2.28257e-13
-1.72138e-13
-1.51462e-13
-1.30246e-13
-1.19914e-13
-1.04768e-13
-9.70613e-14
-8.53881e-14
-7.94443e-14
-7.04508e-14
-6.58833e-14
-5.89945e-14
-5.54888e-14
-5.01767e-14
-4.73217e-14
-4.26831e-14
-3.99164e-14
-3.49289e-14
-3.19738e-14
-2.67177e-14
-2.38842e-14
-1.92665e-14
-1.60282e-14
-9.42719e-15
-6.22224e-15
-1.80736e-15
-4.48129e-16
-1.06153e-16
-1.2568e-15
3.92672e-06
-2.74844e-06
-8.26158e-07
-2.55292e-07
-6.83426e-08
-2.04764e-08
-5.47089e-09
-1.65307e-09
-4.70886e-10
-1.76618e-10
-6.12151e-11
-2.69255e-11
-1.79683e-11
-1.40644e-11
-1.26935e-11
-1.10902e-11
-1.03448e-11
-9.08474e-12
-8.47577e-12
-7.41065e-12
-6.89786e-12
-6.00598e-12
-5.57927e-12
-4.84259e-12
-4.49185e-12
-3.88979e-12
-3.60414e-12
-3.11582e-12
-2.8847e-12
-2.49077e-12
-2.30465e-12
-1.98806e-12
-1.83867e-12
-1.58493e-12
-1.46529e-12
-1.26231e-12
-1.16668e-12
-1.00454e-12
-9.28192e-13
-7.98843e-13
-7.37961e-13
-6.34884e-13
-5.86396e-13
-5.04362e-13
-4.65813e-13
-4.00694e-13
-3.70395e-13
-3.20041e-13
-3.01483e-13
-2.83833e-13
-3.42398e-13
-2.26184e-13
-1.70716e-13
-1.51481e-13
-1.29809e-13
-1.20105e-13
-1.04469e-13
-9.72183e-14
-8.51574e-14
-7.9565e-14
-7.02725e-14
-6.5975e-14
-5.88581e-14
-5.55601e-14
-5.00776e-14
-4.73923e-14
-4.26075e-14
-4.00045e-14
-3.48471e-14
-3.20653e-14
-2.66203e-14
-2.39552e-14
-1.9211e-14
-1.61624e-14
-9.29115e-15
-6.27051e-15
-1.68506e-15
-4.07397e-16
-9.59174e-17
-1.2533e-15
3.97794e-06
-2.94769e-06
-7.25046e-07
-2.2375e-07
-5.69697e-08
-1.77097e-08
-4.54981e-09
-1.43067e-09
-3.97697e-10
-1.61268e-10
-5.46065e-11
-2.48353e-11
-1.75334e-11
-1.38599e-11
-1.27059e-11
-1.10244e-11
-1.03821e-11
-9.03547e-12
-8.50907e-12
-7.36889e-12
-6.92552e-12
-5.97079e-12
-5.60186e-12
-4.8134e-12
-4.51015e-12
-3.86585e-12
-3.61888e-12
-3.09636e-12
-2.89655e-12
-2.47504e-12
-2.31413e-12
-1.97541e-12
-1.84625e-12
-1.57477e-12
-1.47135e-12
-1.25419e-12
-1.17151e-12
-9.98048e-13
-9.32043e-13
-7.93658e-13
-7.41026e-13
-6.3075e-13
-5.88833e-13
-5.01069e-13
-4.67743e-13
-3.98055e-13
-3.71839e-13
-3.17599e-13
-3.01263e-13
-2.78179e-13
-3.55681e-13
-2.21678e-13
-1.67843e-13
-1.51594e-13
-1.2889e-13
-1.20531e-13
-1.03832e-13
-9.75662e-14
-8.46667e-14
-7.98324e-14
-6.98933e-14
-6.61785e-14
-5.85681e-14
-5.5718e-14
-4.98657e-14
-4.75461e-14
-4.24439e-14
-4.01943e-14
-3.46696e-14
-3.22628e-14
-2.64113e-14
-2.4109e-14
-1.90873e-14
-1.64494e-14
-9.00093e-15
-6.38126e-15
-1.43038e-15
-3.27985e-16
-7.63358e-17
-1.24665e-15
4.0509e-06
-3.2576e-06
-5.55076e-07
-1.78824e-07
-4.0494e-08
-1.3898e-08
-3.22672e-09
-1.12468e-09
-2.92593e-10
-1.4071e-10
-4.49164e-11
-2.18445e-11
-1.69526e-11
-1.35543e-11
-1.27393e-11
-1.0917e-11
-1.04475e-11
-8.95328e-12
-8.56681e-12
-7.29917e-12
-6.97355e-12
-5.9121e-12
-5.64116e-12
-4.76473e-12
-4.54204e-12
-3.82596e-12
-3.64461e-12
-3.06394e-12
-2.91722e-12
-2.44886e-12
-2.3307e-12
-1.95434e-12
-1.85951e-12
-1.55788e-12
-1.48194e-12
-1.24066e-12
-1.17996e-12
-9.87242e-13
-9.38777e-13
-7.85034e-13
-7.46389e-13
-6.23874e-13
-5.93096e-13
-4.95591e-13
-4.71121e-13
-3.93672e-13
-3.74399e-13
-3.13636e-13
-3.0131e-13
-2.68499e-13
-3.77421e-13
-2.13962e-13
-1.63464e-13
-1.51964e-13
-1.27396e-13
-1.21289e-13
-1.02777e-13
-9.81782e-14
-8.38522e-14
-8.0303e-14
-6.92642e-14
-6.6537e-14
-5.80869e-14
-5.59952e-14
-4.9512e-14
-4.78106e-14
-4.21657e-14
-4.05145e-14
-3.4367e-14
-3.25978e-14
-2.606e-14
-2.43712e-14
-1.88681e-14
-1.69285e-14
-8.51742e-15
-6.58518e-15
-1.02171e-15
-2.14517e-16
-4.91675e-17
-1.23748e-15
4.14005e-06
-3.69182e-06
-2.92053e-07
-1.24378e-07
-1.95478e-08
-9.44883e-09
-1.56063e-09
-7.67805e-10
-1.6025e-10
-1.17898e-10
-3.23143e-11
-1.81255e-11
-1.63118e-11
-1.31453e-11
-1.28128e-11
-1.07553e-11
-1.05537e-11
-8.82671e-12
-8.65974e-12
-7.1917e-12
-7.05095e-12
-5.82175e-12
-5.70463e-12
-4.68987e-12
-4.59362e-12
-3.76465e-12
-3.68628e-12
-3.01414e-12
-2.95074e-12
-2.40864e-12
-2.35758e-12
-1.922e-12
-1.88102e-12
-1.53194e-12
-1.49913e-12
-1.21991e-12
-1.19368e-12
-9.70658e-13
-9.49716e-13
-7.71799e-13
-7.551e-13
-6.13324e-13
-6.00024e-13
-4.87189e-13
-4.76614e-13
-3.86958e-13
-3.78616e-13
-3.07733e-13
-3.02173e-13
-2.53146e-13
-4.10054e-13
-2.01726e-13
-1.57523e-13
-1.52856e-13
-1.25162e-13
-1.22542e-13
-1.01165e-13
-9.91785e-14
-8.2606e-14
-8.10725e-14
-6.83021e-14
-6.71239e-14
-5.73509e-14
-5.64477e-14
-4.89665e-14
-4.82325e-14
-4.17275e-14
-4.10144e-14
-3.3889e-14
-3.31232e-14
-2.55146e-14
-2.47859e-14
-1.85062e-14
-1.76665e-14
-7.77468e-15
-6.93429e-15
-4.22762e-16
-7.53611e-17
-1.69835e-17
-1.22669e-15
4.14185e-06
-3.69329e-06
-2.92237e-07
-1.24497e-07
-1.95654e-08
-9.45904e-09
-1.56188e-09
-7.68288e-10
-1.59985e-10
-1.17246e-10
-3.19326e-11
-1.77887e-11
-1.59799e-11
-1.28565e-11
-1.25284e-11
-1.05121e-11
-1.03146e-11
-8.62458e-12
-8.46121e-12
-7.02536e-12
-6.88771e-12
-5.68586e-12
-5.57137e-12
-4.57948e-12
-4.48541e-12
-3.67536e-12
-3.59878e-12
-2.94215e-12
-2.88021e-12
-2.35076e-12
-2.30089e-12
-1.87556e-12
-1.83555e-12
-1.49476e-12
-1.46272e-12
-1.19019e-12
-1.16458e-12
-9.4694e-13
-9.26504e-13
-7.52899e-13
-7.36606e-13
-5.98283e-13
-5.85308e-13
-4.75233e-13
-4.64917e-13
-3.77461e-13
-3.69323e-13
-3.00183e-13
-2.94761e-13
-2.46942e-13
-4.00012e-13
-1.9679e-13
-1.53676e-13
-1.49123e-13
-1.22113e-13
-1.19558e-13
-9.87091e-14
-9.67722e-14
-8.06106e-14
-7.91153e-14
-6.66639e-14
-6.55153e-14
-5.59903e-14
-5.51103e-14
-4.78247e-14
-4.71102e-14
-4.07827e-14
-4.00885e-14
-3.31474e-14
-3.24005e-14
-2.49704e-14
-2.42589e-14
-1.81292e-14
-1.73077e-14
-7.61795e-15
-6.79467e-15
-4.14247e-16
-7.38452e-17
-1.66419e-17
-1.20147e-15
4.05266e-06
-3.2589e-06
-5.55359e-07
-1.78958e-07
-4.05249e-08
-1.39109e-08
-3.22945e-09
-1.12549e-09
-2.92452e-10
-1.4015e-10
-4.45282e-11
-2.15035e-11
-1.66234e-11
-1.32625e-11
-1.24576e-11
-1.06708e-11
-1.02107e-11
-8.74847e-12
-8.37035e-12
-7.13048e-12
-6.81204e-12
-5.77421e-12
-5.50933e-12
-4.65265e-12
-4.43501e-12
-3.73527e-12
-3.55807e-12
-2.9908e-12
-2.84748e-12
-2.39003e-12
-2.27465e-12
-1.90714e-12
-1.81455e-12
-1.52008e-12
-1.44595e-12
-1.21045e-12
-1.1512e-12
-9.63125e-13
-9.15831e-13
-7.65814e-13
-7.28107e-13
-6.08577e-13
-5.7855e-13
-4.8343e-13
-4.59558e-13
-3.8401e-13
-3.6521e-13
-3.05941e-13
-2.93919e-13
-2.61918e-13
-3.68178e-13
-2.08726e-13
-1.59471e-13
-1.48254e-13
-1.24292e-13
-1.18336e-13
-1.00282e-13
-9.57967e-14
-8.1826e-14
-7.8365e-14
-6.7602e-14
-6.49434e-14
-5.67077e-14
-5.46698e-14
-4.83561e-14
-4.67e-14
-4.12088e-14
-3.96013e-14
-3.36126e-14
-3.1887e-14
-2.5503e-14
-2.38541e-14
-1.84817e-14
-1.65844e-14
-8.34541e-15
-6.45251e-15
-1.00113e-15
-2.10201e-16
-4.81785e-17
-1.21204e-15
3.97967e-06
-2.94887e-06
-7.25392e-07
-2.23898e-07
-5.70104e-08
-1.77247e-08
-4.55362e-09
-1.43173e-09
-3.97645e-10
-1.60772e-10
-5.42152e-11
-2.4491e-11
-1.72057e-11
-1.35661e-11
-1.2426e-11
-1.07764e-11
-1.01469e-11
-8.82893e-12
-8.31389e-12
-7.19869e-12
-6.76509e-12
-5.8316e-12
-5.47092e-12
-4.70023e-12
-4.40386e-12
-3.77425e-12
-3.53295e-12
-3.02247e-12
-2.82729e-12
-2.41561e-12
-2.25847e-12
-1.92771e-12
-1.80161e-12
-1.53658e-12
-1.43561e-12
-1.22365e-12
-1.14295e-12
-9.73672e-13
-9.0926e-13
-7.7423e-13
-7.22876e-13
-6.15286e-13
-5.74391e-13
-4.88773e-13
-4.56263e-13
-3.88285e-13
-3.62713e-13
-3.09807e-13
-2.93874e-13
-2.71362e-13
-3.46971e-13
-2.16254e-13
-1.63742e-13
-1.47894e-13
-1.25749e-13
-1.17597e-13
-1.01311e-13
-9.51999e-14
-8.26203e-14
-7.79063e-14
-6.82155e-14
-6.45941e-14
-5.71769e-14
-5.44e-14
-4.87007e-14
-4.64428e-14
-4.14793e-14
-3.92891e-14
-3.39071e-14
-3.15596e-14
-2.5846e-14
-2.3598e-14
-1.86951e-14
-1.61146e-14
-8.81893e-15
-6.25264e-15
-1.40156e-15
-3.21382e-16
-7.47995e-17
-1.22103e-15
3.92843e-06
-2.74954e-06
-8.2654e-07
-2.5545e-07
-6.83896e-08
-2.04929e-08
-5.47535e-09
-1.65427e-09
-4.70885e-10
-1.76159e-10
-6.08216e-11
-2.65786e-11
-1.76413e-11
-1.37693e-11
-1.24146e-11
-1.0841e-11
-1.01104e-11
-8.87717e-12
-8.28134e-12
-7.23954e-12
-6.73806e-12
-5.86601e-12
-5.44885e-12
-4.72878e-12
-4.38598e-12
-3.79765e-12
-3.51855e-12
-3.04149e-12
-2.81573e-12
-2.43098e-12
-2.24921e-12
-1.94008e-12
-1.79421e-12
-1.54649e-12
-1.4297e-12
-1.23158e-12
-1.13824e-12
-9.80011e-13
-9.05504e-13
-7.79289e-13
-7.19885e-13
-6.19319e-13
-5.72014e-13
-4.91986e-13
-4.54382e-13
-3.9086e-13
-3.61304e-13
-3.1219e-13
-2.94088e-13
-2.76877e-13
-3.34013e-13
-2.2065e-13
-1.66545e-13
-1.47783e-13
-1.26645e-13
-1.17181e-13
-1.01932e-13
-9.48607e-14
-8.3099e-14
-7.76456e-14
-6.85853e-14
-6.43959e-14
-5.74597e-14
-5.42464e-14
-4.89072e-14
-4.62933e-14
-4.16383e-14
-3.91042e-14
-3.40797e-14
-3.13665e-14
-2.60501e-14
-2.34478e-14
-1.88154e-14
-1.58333e-14
-9.10315e-15
-6.14406e-15
-1.65109e-15
-3.99191e-16
-9.39858e-17
-1.22755e-15
3.9021e-06
-2.65206e-06
-8.73606e-07
-2.71636e-07
-7.41996e-08
-2.19446e-08
-5.94864e-09
-1.77108e-09
-5.08497e-10
-1.84344e-10
-6.41755e-11
-2.76511e-11
-1.78733e-11
-1.38714e-11
-1.24116e-11
-1.08717e-11
-1.0094e-11
-8.89977e-12
-8.2665e-12
-7.25867e-12
-6.72575e-12
-5.88213e-12
-5.43881e-12
-4.74216e-12
-4.37786e-12
-3.80863e-12
-3.51201e-12
-3.05041e-12
-2.81048e-12
-2.43819e-12
-2.24501e-12
-1.94587e-12
-1.79085e-12
-1.55114e-12
-1.42702e-12
-1.2353e-12
-1.1361e-12
-9.82986e-13
-9.03801e-13
-7.81663e-13
-7.18531e-13
-6.21212e-13
-5.70937e-13
-4.93494e-13
-4.5353e-13
-3.92069e-13
-3.60673e-13
-3.13327e-13
-2.94262e-13
-2.79415e-13
-3.27871e-13
-2.22672e-13
-1.67932e-13
-1.47765e-13
-1.27072e-13
-1.16996e-13
-1.02224e-13
-9.47077e-14
-8.3324e-14
-7.75281e-14
-6.87592e-14
-6.43066e-14
-5.75926e-14
-5.41771e-14
-4.90038e-14
-4.62248e-14
-4.17118e-14
-3.90182e-14
-3.41594e-14
-3.1277e-14
-2.61451e-14
-2.33785e-14
-1.88694e-14
-1.57016e-14
-9.23635e-15
-6.09673e-15
-1.77092e-15
-4.39096e-16
-1.04014e-16
-1.23097e-15
3.9021e-06
-2.65206e-06
-8.73606e-07
-2.71636e-07
-7.41993e-08
-2.19444e-08
-5.94857e-09
-1.77105e-09
-5.08486e-10
-1.8434e-10
-6.41742e-11
-2.76507e-11
-1.78732e-11
-1.38714e-11
-1.24116e-11
-1.08717e-11
-1.0094e-11
-8.89977e-12
-8.2665e-12
-7.25867e-12
-6.72575e-12
-5.88213e-12
-5.43881e-12
-4.74216e-12
-4.37786e-12
-3.80863e-12
-3.51201e-12
-3.05041e-12
-2.81048e-12
-2.43819e-12
-2.24501e-12
-1.94588e-12
-1.79085e-12
-1.55114e-12
-1.42702e-12
-1.2353e-12
-1.1361e-12
-9.82986e-13
-9.03801e-13
-7.81663e-13
-7.18531e-13
-6.21212e-13
-5.70937e-13
-4.93494e-13
-4.5353e-13
-3.9207e-13
-3.60673e-13
-3.13327e-13
-2.94262e-13
-2.79415e-13
-3.27871e-13
-2.22672e-13
-1.67932e-13
-1.47765e-13
-1.27072e-13
-1.16996e-13
-1.02224e-13
-9.47077e-14
-8.3324e-14
-7.75281e-14
-6.87592e-14
-6.43066e-14
-5.75926e-14
-5.41771e-14
-4.90038e-14
-4.62248e-14
-4.17118e-14
-3.90182e-14
-3.41594e-14
-3.1277e-14
-2.61451e-14
-2.33785e-14
-1.88694e-14
-1.57016e-14
-9.23635e-15
-6.09673e-15
-1.77092e-15
-4.39093e-16
-1.04013e-16
-1.23097e-15
3.92843e-06
-2.74954e-06
-8.2654e-07
-2.55449e-07
-6.8389e-08
-2.04925e-08
-5.47517e-09
-1.65419e-09
-4.70854e-10
-1.76149e-10
-6.08181e-11
-2.65775e-11
-1.7641e-11
-1.37692e-11
-1.24145e-11
-1.0841e-11
-1.01104e-11
-8.87717e-12
-8.28134e-12
-7.23954e-12
-6.73807e-12
-5.86601e-12
-5.44885e-12
-4.72878e-12
-4.38598e-12
-3.79765e-12
-3.51855e-12
-3.04149e-12
-2.81573e-12
-2.43098e-12
-2.24921e-12
-1.94008e-12
-1.79421e-12
-1.54649e-12
-1.4297e-12
-1.23158e-12
-1.13824e-12
-9.80011e-13
-9.05504e-13
-7.79289e-13
-7.19886e-13
-6.19319e-13
-5.72014e-13
-4.91986e-13
-4.54382e-13
-3.9086e-13
-3.61305e-13
-3.1219e-13
-2.94088e-13
-2.76878e-13
-3.34013e-13
-2.2065e-13
-1.66545e-13
-1.47783e-13
-1.26645e-13
-1.17181e-13
-1.01932e-13
-9.48608e-14
-8.3099e-14
-7.76457e-14
-6.85853e-14
-6.4396e-14
-5.74597e-14
-5.42465e-14
-4.89072e-14
-4.62933e-14
-4.16383e-14
-3.91042e-14
-3.40797e-14
-3.13665e-14
-2.60501e-14
-2.34478e-14
-1.88154e-14
-1.58333e-14
-9.10313e-15
-6.14405e-15
-1.65108e-15
-3.99183e-16
-9.39836e-17
-1.22754e-15
3.97967e-06
-2.94887e-06
-7.25392e-07
-2.23897e-07
-5.70097e-08
-1.77243e-08
-4.55338e-09
-1.43162e-09
-3.97606e-10
-1.60758e-10
-5.42105e-11
-2.44895e-11
-1.72053e-11
-1.3566e-11
-1.2426e-11
-1.07764e-11
-1.01469e-11
-8.82894e-12
-8.31389e-12
-7.19869e-12
-6.7651e-12
-5.83161e-12
-5.47093e-12
-4.70023e-12
-4.40386e-12
-3.77425e-12
-3.53295e-12
-3.02247e-12
-2.82729e-12
-2.41561e-12
-2.25847e-12
-1.92772e-12
-1.80161e-12
-1.53658e-12
-1.43561e-12
-1.22365e-12
-1.14295e-12
-9.73672e-13
-9.09261e-13
-7.7423e-13
-7.22876e-13
-6.15286e-13
-5.74391e-13
-4.88773e-13
-4.56264e-13
-3.88286e-13
-3.62713e-13
-3.09807e-13
-2.93874e-13
-2.71362e-13
-3.46971e-13
-2.16254e-13
-1.63742e-13
-1.47894e-13
-1.25749e-13
-1.17597e-13
-1.01311e-13
-9.52e-14
-8.26204e-14
-7.79063e-14
-6.82155e-14
-6.45942e-14
-5.71769e-14
-5.44001e-14
-4.87008e-14
-4.64429e-14
-4.14793e-14
-3.92892e-14
-3.39071e-14
-3.15596e-14
-2.5846e-14
-2.3598e-14
-1.86951e-14
-1.61146e-14
-8.81891e-15
-6.25262e-15
-1.40154e-15
-3.21372e-16
-7.47967e-17
-1.22102e-15
4.05266e-06
-3.25891e-06
-5.55359e-07
-1.78957e-07
-4.05243e-08
-1.39105e-08
-3.22925e-09
-1.1254e-09
-2.92418e-10
-1.40138e-10
-4.45242e-11
-2.15022e-11
-1.66231e-11
-1.32624e-11
-1.24576e-11
-1.06708e-11
-1.02107e-11
-8.74848e-12
-8.37035e-12
-7.13048e-12
-6.81205e-12
-5.77422e-12