/*--------------------------------*- C++ -*----------------------------------*\
| =========                 |                                                 |
| \\      /  F ield         | OpenFOAM: The Open Source CFD Toolbox           |
|  \\    /   O peration     | Version:  5.x                                   |
|   \\  /    A nd           | Web:      www.OpenFOAM.org                      |
|    \\/     M anipulation  |                                                 |
\*---------------------------------------------------------------------------*/
FoamFile
{
    version     2.0;
    format      ascii;
    class       volScalarField;
    location    "4.1";
    object      gradTy;
}
// * * * * * * * * * * * * * * * * * * * * * * * * * * * * * * * * * * * * * //

dimensions      [0 -1 0 1 0 0 0];

internalField   nonuniform List<scalar> 
6300
(
1091.5
1274.96
1459.76
1646.76
1836.8
2030.6
2228.81
2431.93
2640.28
2854
3072.96
3296.73
3524.64
3755.69
3988.64
-0.676369
-2.01527
-3.31154
-4.53317
-5.6432
-6.59843
-7.34922
-7.84068
-8.01583
-7.82112
-7.21427
-6.17373
-4.70801
-2.86206
-0.717787
-1.14269
-3.40622
-5.60225
-7.67945
-9.57751
-11.2247
-12.5369
-13.4191
-13.7702
-13.4924
-12.5046
-10.7608
-8.26799
-5.10065
-1.40367
-1.63087
-4.86465
-8.01174
-11.0048
-13.7626
-16.1858
-18.1543
-19.5283
-20.1534
-19.8733
-18.5508
-16.0966
-12.5022
-7.86858
-2.41662
-2.14695
-6.40974
-10.5752
-14.5653
-18.2821
-21.6013
-24.3662
-26.3864
-27.4416
-27.2964
-25.7285
-22.5723
-17.7755
-11.4548
-3.92612
-2.69411
-8.05205
-13.314
-18.3987
-23.1991
-27.5708
-31.3226
-34.209
-35.9296
-36.1419
-34.494
-30.6881
-24.5723
-16.2483
-6.15059
-3.27157
-9.79031
-16.2298
-22.5165
-28.5445
-34.1599
-39.144
-43.1969
-45.9257
-46.8469
-45.4173
-41.1134
-33.5767
-22.8155
-9.39775
-3.87337
-11.6077
-19.2982
-26.8927
-34.3022
-41.3798
-47.8962
-53.5084
-57.7288
-59.9022
-59.214
-54.771
-45.805
-32.0386
-14.1378
-4.48755
-13.4688
-22.4623
-31.4537
-40.3912
-49.1606
-57.5518
-65.211
-71.5783
-75.8181
-76.765
-72.9506
-62.8333
-45.3957
-21.164
-5.09549
-15.3176
-25.6281
-36.0684
-46.6477
-57.319
-67.939
-78.2046
-87.5546
-95.0261
-99.0762
-97.4325
-87.1811
-65.5467
-31.9818
-5.67225
-17.0777
-28.664
-40.5436
-52.8118
-65.5281
-78.6796
-92.113
-105.408
-117.654
-127.08
-130.521
-122.911
-97.6278
-49.9058
-6.188
-18.6569
-31.4063
-44.6298
-58.5274
-73.3012
-89.1375
-106.159
-124.31
-143.102
-161.068
-174.659
-176.314
-152.147
-83.7144
-6.61082
-19.9551
-33.6743
-48.0414
-63.366
-80.0109
-98.4094
-119.074
-142.568
-169.375
-199.428
-230.731
-255.537
-250.928
-161.959
-6.9109
-20.8784
-35.294
-50.4951
-66.8835
-84.9661
-105.415
-129.157
-157.513
-192.4
-236.537
-293.298
-364.172
-434.068
-397.121
-7.06521
-21.3533
-36.1278
-51.7609
-68.706
-87.5545
-109.126
-134.623
-165.927
-206.171
-261.019
-341.75
-473.782
-724.044
-1304.36
4202.59
4396.41
4588.62
4778.29
4964.54
5146.56
5323.61
5495.06
5660.33
5818.96
5970.57
6114.82
6251.45
6380.27
6501.11
6613.86
6718.42
6814.76
6902.86
6982.74
7054.45
7118.05
7173.66
7221.38
7261.37
7293.78
7318.78
7336.56
7347.3
7351.21
7348.47
7339.3
7323.88
7302.41
7275.07
7242.07
7203.56
7159.74
7110.78
7056.84
6998.1
6934.73
6866.88
6794.72
6718.42
6638.12
6553.98
6466.15
6374.75
6279.91
6181.76
6080.41
5975.96
5868.53
5758.22
5645.14
5529.4
5411.11
5290.39
5167.37
5042.16
4914.89
4785.68
4654.67
4521.98
4387.72
4252.05
4115.09
3977.01
3837.96
3698.14
3557.75
3417.02
3276.23
3135.64
2995.56
2856.32
2718.24
2581.67
2446.96
2314.46
2184.51
2057.43
1933.55
1813.13
1696.45
1583.71
1475.08
1370.69
1270.59
1.41916
3.41143
5.38153
7.26592
9.01446
10.5931
11.984
13.1835
14.199
15.0449
15.7396
16.3015
16.7481
17.0936
17.3493
17.5236
17.6225
17.6505
17.6116
17.5095
17.3486
17.1337
16.8703
16.5645
16.2226
15.8513
15.4569
15.0458
14.6239
14.1966
13.7686
13.344
12.9257
12.5158
12.1154
11.7243
11.3419
10.9667
10.5974
10.2327
9.87184
9.51513
9.16362
8.81925
8.48452
8.1621
7.85434
7.56283
7.28798
7.02885
6.78313
6.54732
6.31719
6.08834
5.85675
5.61938
5.37452
5.12189
4.86252
4.59828
4.3313
4.06325
3.79464
3.52427
3.24893
2.96337
2.66063
2.33264
1.97104
1.56816
1.11789
0.616404
0.0626774
-0.541418
-1.19125
-1.87983
-2.59834
-3.33673
-4.0841
-4.82906
-5.55977
-6.26384
-6.92816
-7.5388
-8.0811
-8.54018
-8.90193
-9.15424
-9.28852
-9.3009
2.28547
5.72003
9.10472
12.3253
15.294
17.9537
20.2778
22.2654
23.9348
25.3159
26.4438
27.353
28.0742
28.632
29.0448
29.3255
29.483
29.5234
29.4523
29.2753
28.9993
28.6322
28.1836
27.6637
27.0835
26.4543
25.7869
25.0923
24.3804
23.6606
22.941
22.2284
21.528
20.8434
20.1759
19.5254
18.8901
18.2672
17.6536
17.0467
16.4451
15.8488
15.2599
14.682
14.1199
13.5788
13.0634
12.5768
12.1203
11.6921
11.2881
10.9019
10.5254
10.1503
9.76919
9.37633
8.96868
8.54606
8.11082
7.66708
7.21952
6.77201
6.32628
5.88083
5.43032
4.96551
4.47383
3.94049
3.35008
2.68837
1.944
1.10988
0.184048
-0.830126
-1.92429
-3.08593
-4.2995
-5.54748
-6.81129
-8.0718
-9.30943
-10.5038
-11.6333
-12.6744
-13.6019
-14.3895
-15.0116
-15.4458
-15.6757
-15.6939
3.03613
8.1013
13.0651
17.7485
22.0195
25.7988
29.0575
31.807
34.0871
35.953
37.4643
38.6767
39.637
40.3806
40.932
41.3066
41.5135
41.5586
41.4471
41.1855
40.7827
40.2501
39.6014
38.8516
38.017
37.1139
36.1582
35.1655
34.1504
33.1263
32.1052
31.0971
30.1097
29.1481
28.214
27.3066
26.4224
25.5561
24.7021
23.8552
23.0126
22.1739
21.3423
20.5239
19.7269
18.9604
18.2327
17.5496
16.9136
16.3224
15.7695
15.2442
14.7332
14.2228
13.7003
13.1563
12.5861
11.9901
11.373
10.743
10.1093
9.47977
8.85904
8.24617
7.63376
7.00778
6.3484
5.63186
4.83313
3.92891
2.90061
1.73666
0.433823
-1.00249
-2.55901
-4.21617
-5.95005
-7.73441
-9.54222
-11.3465
-13.1204
-14.8364
-16.4647
-17.9727
-19.3233
-20.4764
-21.3912
-22.0307
-22.3673
-22.3875
3.63104
10.6284
17.4292
23.7657
29.4528
34.3936
38.5703
42.0246
44.8361
47.1009
48.9154
50.3638
51.5121
52.4062
53.0741
53.5295
53.7775
53.8196
53.6583
53.2994
52.7535
52.0357
51.1649
50.1622
49.0497
47.8496
46.5833
45.2716
43.9338
42.5882
41.2511
39.9365
38.6551
37.4136
36.2144
35.0551
33.9295
32.8282
31.7409
30.6584
29.5749
28.4893
27.4063
26.3356
25.2907
24.2869
23.3383
22.4554
21.6429
20.8984
20.2117
19.5663
18.9411
18.3134
17.6629
16.9746
16.2414
15.4649
14.6544
13.8249
12.9934
12.1755
11.381
10.6114
9.85728
9.09866
8.30578
7.44211
6.46857
5.34862
4.05308
2.56393
0.876313
-1.00124
-3.04831
-5.23539
-7.52737
-9.88703
-12.2777
-14.6645
-17.0144
-19.2945
-21.4691
-23.497
-25.3285
-26.9059
-28.1667
-29.0514
-29.5139
-29.5307
4.04337
13.4393
22.4625
30.7188
37.9612
44.0895
49.1241
53.1689
56.373
58.8985
60.8949
62.4842
63.7543
64.759
65.5235
66.0523
66.3391
66.375
66.1554
65.684
64.9732
64.0432
62.9201
61.6325
60.2103
58.6822
57.0757
55.4168
53.7303
52.0397
50.3666
48.73
47.1447
45.6202
44.159
42.757
41.4033
40.0819
38.7746
37.465
36.1421
34.803
33.4545
32.112
30.7973
29.5357
28.3511
27.2616
26.2763
25.3927
24.5962
23.8612
23.1541
22.4386
21.6815
20.8591
19.9607
18.9903
17.9649
16.9111
15.8596
14.8389
13.8688
12.9556
12.0887
11.2402
10.3664
9.41185
8.31613
7.02241
5.48556
3.67817
1.59348
-0.754721
-3.33484
-6.10241
-9.00612
-11.9939
-15.0175
-18.0345
-21.0079
-23.9033
-26.6838
-29.303
-31.6988
-33.7903
-35.4827
-36.6794
-37.3013
-37.3071
4.27054
16.787
28.5999
39.1317
48.0737
55.3599
61.1028
65.523
68.887
71.4577
73.4604
75.0642
76.3784
77.4575
78.3119
78.9237
79.2619
79.298
79.0151
78.4132
77.5083
76.329
74.9119
73.297
71.5234
69.6277
67.6436
65.602
63.533
61.4661
59.4298
57.4499
55.5474
53.7357
52.0188
50.3898
48.8311
47.3156
45.8121
44.2912
42.7328
41.1308
39.4947
37.8486
36.228
34.6742
33.2273
31.9182
30.7637
29.7621
28.8926
28.1162
27.3798
26.6241
25.7948
24.8535
23.7842
22.5953
21.3166
19.9943
18.6818
17.4297
16.2751
15.2333
14.2939
13.4186
12.5437
11.5851
10.4491
9.04657
7.3079
5.19199
2.69039
-0.173923
-3.35112
-6.77302
-10.3634
-14.0488
-17.7664
-21.4667
-25.1131
-28.6771
-32.1301
-35.4301
-38.5064
-41.2488
-43.5119
-45.1341
-45.975
-45.9586
4.36711
21.1477
36.582
49.8331
60.5696
68.8513
74.9847
79.3961
82.541
84.8331
86.598
88.0592
89.3393
90.4773
91.4477
92.1867
92.6178
92.6779
92.3319
91.5766
90.4362
88.9548
87.1865
85.1875
83.01
80.6987
78.292
75.8246
73.3307
70.8466
68.4096
66.0564
63.8173
61.7129
59.7502
57.9198
56.1945
54.5305
52.8729
51.1696
49.3847
47.5061
45.5475
43.5467
41.5609
39.6573
37.9032
36.3507
35.0293
33.9398
33.0536
32.3121
31.6317
30.9139
30.0677
29.0306
27.7786
26.3279
24.7295
23.0618
21.4155
19.8788
18.5172
17.3624
16.4052
15.5951
14.8399
14.0125
12.9643
11.5534
9.67208
7.25986
4.30828
0.856195
-3.0162
-7.20216
-11.5846
-16.0583
-20.5408
-24.9772
-29.3373
-33.6111
-37.7967
-41.8794
-45.7946
-49.3973
-52.4635
-54.7137
-55.8824
-55.825
4.52396
27.4464
47.7067
64.1545
76.599
85.4347
91.3437
95.09
97.42
98.9638
100.17
101.311
102.501
103.735
104.913
105.889
106.503
106.639
106.234
105.29
103.851
101.989
99.7887
97.3306
94.6846
91.9025
89.0233
86.0808
83.1101
80.1547
77.2646
74.4941
71.8888
69.4821
67.2866
65.2941
63.4656
61.732
59.9956
58.1613
56.1677
53.9923
51.6573
49.2194
46.7712
44.4215
42.2849
40.4467
38.9573
37.8209
37.0023
36.4164
35.9337
35.3851
34.6117
33.5137
32.0553
30.2695
28.2389
26.0949
23.9878
22.0722
20.4579
19.2034
18.3013
17.6891
17.2368
16.7544
15.9985
14.7343
12.7976
10.1013
6.64393
2.4887
-2.23246
-7.35096
-12.6768
-18.0577
-23.3833
-28.5997
-33.6874
-38.6737
-43.6126
-48.5709
-53.5335
-58.3188
-62.5904
-65.8507
-67.5552
-67.4154
5.2999
37.5776
64.3202
84.2389
97.8239
106.232
110.816
112.822
113.429
113.579
113.832
114.491
115.597
117.07
118.666
120.11
121.077
121.374
120.909
119.714
117.871
115.51
112.759
109.742
106.553
103.244
99.8437
96.3752
92.8652
89.3668
85.9453
82.6919
79.6725
76.945
74.5289
72.4304
70.5983
68.9354
67.2575
65.3806
63.2107
60.7065
57.9134
54.9054
51.8381
48.8772
46.2353
44.0388
42.3752
41.2427
40.6143
40.3706
40.3288
40.1785
39.6214
38.5143
36.8019
34.5621
31.9102
29.073
26.2829
23.83
21.8792
20.5352
19.7782
19.5513
19.6754
19.8884
19.7631
18.8821
17.0155
14.0374
9.98305
4.93485
-0.877711
-7.20228
-13.6908
-20.1372
-26.3841
-32.4077
-38.1842
-43.8048
-49.4004
-55.2564
-61.5274
-67.9797
-74.173
-79.2274
-81.8829
-81.5457
8.40077
55.6792
90.7596
113.442
126.503
132.536
134.001
132.572
130.098
128.05
126.912
127.029
128.165
130.231
132.64
135.022
136.615
137.211
136.64
135.073
132.641
129.595
126.117
122.406
118.597
114.721
110.766
106.733
102.608
98.4722
94.388
90.5572
87.0401
83.9637
81.3181
79.1875
77.4918
76.1646
74.8105
73.0261
70.7398
67.8409
64.4837
60.6811
56.7561
52.8779
49.5486
46.8677
45.0329
43.9426
43.6768
44.038
44.8844
45.5617
45.4273
44.3904
42.312
39.4517
35.8523
31.9869
28.0964
24.8685
22.4302
21.0254
20.495
20.9114
21.9891
23.5128
24.6192
24.4522
22.837
19.5262
14.7564
8.48475
1.21741
-6.81445
-14.7621
-22.5011
-29.7033
-36.5686
-42.9024
-48.9691
-54.8101
-61.3415
-69.2571
-78.0107
-87.3928
-96.0553
-100.518
-99.6124
19.7493
91.3466
135.052
156.501
165.3
165.415
161.353
153.82
146.154
141.205
138.181
138.096
139.393
142.896
146.648
151.065
153.587
154.726
153.801
151.672
148.294
144.297
139.807
135.206
130.733
126.309
121.798
117.222
112.361
107.5
102.463
97.9676
93.7698
90.3593
87.3624
85.3156
83.8516
83.4299
82.9801
81.3915
79.148
75.6328
71.6924
66.6302
61.6042
56.0856
51.9257
48.4754
46.6162
45.4527
45.8337
47.0044
49.6808
52.1111
52.5305
51.7636
48.9455
45.4033
40.1747
34.9345
28.953
24.7677
21.4902
20.2541
19.8461
21.3167
23.6582
27.7357
31.3063
32.1052
31.0978
27.1137
21.6898
13.4662
4.4113
-6.54984
-16.1357
-25.6398
-33.5088
-41.4961
-48.0063
-54.4591
-59.226
-65.4338
-75.7797
-87.1366
-101.648
-118.931
-126.881
-124.14
63.4407
167.177
211.396
217.775
216.601
204.307
193.701
175.259
158.294
151.587
145.215
147.174
147.439
155.202
159.696
169.835
172.547
175.212
172.694
170.068
164.834
159.707
153.655
147.819
142.798
138.018
132.921
128.12
122.112
116.781
109.755
104.948
99.3639
96.1578
92.0372
90.6028
88.7091
90.7341
92.7884
90.6986
89.3861
84.0354
80.5155
72.5259
67.1605
57.3353
53.28
47.7907
47.1963
44.7378
46.852
47.8016
54.8303
61.5549
61.3405
62.0892
56.6206
53.7818
44.5127
38.948
27.2221
23.3583
17.6091
18.2888
16.4905
20.4664
22.8259
32.6868
41.9831
42.3579
43.6432
36.7729
32.6532
19.6436
10.3488
-8.26676
-17.6279
-31.134
-37.1447
-48.551
-53.193
-62.3768
-61.5668
-63.5671
-80.8459
-91.7196
-111.911
-155.244
-168.638
-159.787
252.82
328.708
342.224
289.924
283.911
240.769
237.334
194.567
155.663
161.488
140.251
158.689
144.688
172.213
164.616
199.297
191.575
203.159
191.741
192.218
181.221
176.448
167.19
159.261
154.516
150.185
143.62
140.755
130.887
128.505
113.853
113.049
101.534
103.274
92.8447
96.5526
87.9245
97.997
108.565
98.8871
105.441
89.8027
95.776
74.6438
79.14
50.2778
56.7004
40.0587
50.462
37.4394
49.5484
39.846
60.4187
80.9919
68.7647
81.3684
60.5098
71.4209
43.5173
51.8346
14.1704
24.6649
4.47118
19.8926
4.82088
21.9443
11.1919
38.4511
65.5071
51.2996
67.9326
42.4715
56.4184
20.4719
29.7087
-23.3094
-13.1505
-47.4204
-33.0099
-65.3452
-51.8383
-84.6838
-59.8594
-39.698
-95.1336
-82.8833
-88.8462
-234.667
-242.424
-215.054
1183.75
580.05
567.824
295.415
404.681
220.048
337.599
208.31
88.6188
210.354
78.1529
216.91
82.1374
239.797
108.648
289.817
182.798
264.222
193.655
230.885
188.643
199.642
178.807
166.113
165.634
165.566
148.985
163.472
128.879
157.894
98.0042
136.57
84.6145
127.911
73.2906
120.263
60.2077
104.542
153.494
83.6987
153.447
64.4466
150.065
39.8535
139.153
-7.59317
93.3304
-6.62128
87.4581
-6.05159
83.6502
-11.7087
66.0034
147.658
40.4292
148.83
18.6475
144.95
-9.63936
130.932
-68.2328
70.1597
-59.9556
65.4035
-53.2128
63.5602
-55.1817
44.5048
148.447
15.8273
152.834
-8.58082
152.027
-43.767
138.713
-129.329
55.302
-133.808
38.4373
-148.154
16.2627
-190.036
-51.438
93.0301
-206.889
-47.8195
135.614
-512.899
-366.787
-307.034
1165.22
1056.38
953.474
856.196
764.186
677.021
594.241
515.366
439.907
367.378
297.3
229.205
162.638
97.1524
32.3126
-9.18212
-8.89008
-8.4569
-7.90984
-7.27829
-6.59038
-5.87057
-5.13838
-4.40802
-3.68874
-2.98543
-2.29946
-1.62951
-0.97227
-0.32316
-15.4837
-14.9734
-14.2212
-13.2769
-12.1932
-11.0195
-9.79817
-8.56202
-7.3345
-6.13024
-4.95651
-3.81469
-2.70173
-1.61143
-0.535504
-22.066
-21.2982
-20.1773
-18.7831
-17.1977
-15.4962
-13.7403
-11.9769
-10.2376
-8.54109
-6.89559
-5.30099
-3.75125
-2.23619
-0.742921
-29.0649
-27.9755
-26.4065
-24.4802
-22.3182
-20.0268
-17.6899
-15.3674
-13.0976
-10.9008
-8.78365
-6.74233
-4.76604
-2.83911
-0.942902
-36.6443
-35.1318
-32.9923
-30.4123
-27.5675
-24.6027
-21.6248
-18.705
-15.8844
-13.1808
-10.5957
-8.11853
-5.73137
-3.41128
-1.13246
-45.0123
-42.9145
-40.0179
-36.6086
-32.9364
-29.1911
-25.5013
-21.9432
-18.5537
-15.3423
-12.2995
-9.40462
-6.62953
-3.94214
-1.30808
-54.4449
-51.4954
-47.5556
-43.067
-38.3775
-33.7236
-29.2455
-25.0122
-21.0448
-17.3347
-13.8553
-10.5707
-7.43988
-4.41959
-1.4658
-65.3208
-61.0662
-55.6415
-49.7258
-43.7825
-38.0796
-32.7443
-27.8147
-23.2784
-19.096
-15.2162
-11.5829
-8.13953
-4.83047
-1.60132
-78.1656
-71.8061
-64.2179
-56.4114
-48.9464
-42.0675
-35.8368
-30.2237
-25.1575
-20.5545
-16.3302
-12.4049
-8.70477
-5.16137
-1.71029
-93.6803
-83.7728
-73.0113
-62.7545
-53.5233
-45.4065
-38.3109
-32.0851
-26.5731
-21.6338
-17.1448
-13.0015
-9.11316
-5.39984
-1.78874
-112.63
-96.5922
-81.2984
-68.0709
-56.9847
-47.7236
-39.9147
-33.2321
-27.4157
-22.2624
-17.6136
-13.3429
-9.34638
-5.53599
-1.83354
-135.059
-108.666
-87.5181
-71.2447
-58.6201
-48.5877
-40.3913
-33.5125
-27.5945
-22.3861
-17.7041
-13.4097
-9.39333
-5.56411
-1.84293
-156.902
-115.494
-88.8613
-70.7684
-57.6623
-47.615
-39.5496
-32.8313
-27.0633
-21.983
-17.4065
-13.1983
-9.25297
-5.4841
-1.81695
-156.712
-107.545
-81.6628
-65.3041
-53.6444
-44.6597
-37.3602
-31.1992
-25.844
-21.0757
-16.7404
-12.7239
-8.93597
-5.30228
-1.7577
-7.07433
-21.3803
-36.1718
-51.8206
-68.7807
-87.6455
-109.24
-134.781
-166.183
-206.673
-262.171
-344.713
-481.899
-745.668
-1346.36
-6.96218
-21.0331
-35.5553
-50.8706
-67.3896
-85.6365
-106.317
-130.427
-159.431
-195.554
-242.219
-304.385
-386.8
-478.285
-455.707
-6.74821
-20.3723
-34.3878
-49.0844
-64.7981
-81.9369
-101.012
-122.673
-147.732
-177.112
-211.503
-249.992
-285.402
-290.107
-182.295
-6.44553
-19.4396
-32.7471
-46.5913
-61.2164
-76.8921
-93.9105
-112.559
-133.032
-155.189
-177.937
-197.736
-205.326
-180.063
-87.2008
-6.07126
-18.2891
-30.7334
-43.5558
-56.9047
-70.9143
-85.6763
-101.177
-117.161
-132.855
-146.419
-153.954
-148.063
-116.963
-48.7299
-5.64464
-16.9812
-28.457
-40.1542
-52.1337
-64.4135
-76.9287
-89.4578
-101.491
-112
-119.086
-119.496
-108.306
-79.6477
-30.5553
-5.18511
-15.5766
-26.0267
-36.5563
-47.1538
-57.7487
-68.1708
-78.0829
-86.8767
-93.5228
-96.3872
-93.0941
-80.6766
-56.523
-20.7263
-4.71082
-14.131
-23.5408
-32.9112
-42.1753
-51.2035
-59.7667
-67.484
-73.7535
-77.6704
-77.964
-73.0278
-61.197
-41.4834
-14.8249
-4.23746
-12.6927
-21.0822
-29.3395
-37.3604
-44.981
-51.9495
-57.8902
-62.2634
-64.3336
-63.172
-57.7488
-47.1912
-31.2662
-11.0005
-3.77774
-11.2998
-18.7153
-25.9319
-32.8231
-39.211
-44.8459
-49.3845
-52.3723
-53.2405
-51.3388
-46.035
-36.9125
-24.0631
-8.38127
-3.34123
-9.98081
-16.4863
-22.7499
-28.6351
-33.9637
-38.5033
-41.9555
-43.9528
-44.0706
-41.8677
-36.9728
-29.2215
-18.8268
-6.51243
-2.93445
-8.75485
-14.4252
-19.8306
-24.8333
-29.2642
-32.9154
-35.5365
-36.8384
-36.5119
-34.2659
-29.8941
-23.3661
-14.9236
-5.13693
-2.56134
-7.63298
-12.5481
-17.1908
-21.4284
-25.1059
-28.0427
-30.0332
-30.8547
-30.286
-28.14
-24.3124
-18.84
-11.9536
-4.09974
-2.22363
-6.61977
-10.86
-14.8321
-18.4123
-21.4619
-23.827
-25.3415
-25.8362
-25.1551
-23.1817
-19.8729
-15.2955
-9.65556
-3.30249
-1.92141
-5.71476
-9.35801
-12.7456
-15.7645
-18.2929
-20.2017
-21.3579
-21.634
-20.9215
-19.1507
-16.3141
-12.489
-7.85261
-2.68014
-1.65352
-4.91394
-8.03349
-10.915
-13.457
-15.5542
-17.0988
-17.9854
-18.1181
-17.4226
-15.8597
-13.4416
-10.2457
-6.42191
-2.1882
-1.41798
-4.21092
-6.87424
-9.31996
-11.4584
-13.1991
-14.4529
-15.1361
-15.1773
-14.5259
-13.1624
-11.1091
-8.43837
-5.27584
-1.79532
-1.21232
-3.59788
-5.86605
-7.93825
-9.736
-11.1821
-12.203
-12.7325
-12.7174
-12.1236
-10.944
-9.20527
-6.97252
-4.35055
-1.47889
-1.03378
-3.06632
-4.9939
-6.74708
-8.25769
-9.46023
-10.2941
-10.7071
-10.6592
-10.1281
-9.11396
-7.64441
-5.77691
-3.59863
-1.22224
-0.879562
-2.60763
-4.24282
-5.7243
-6.99325
-7.99429
-8.67759
-9.00162
-8.93652
-8.46781
-7.60007
-6.35985
-4.79708
-2.98426
-1.01287
-0.746903
-2.21341
-3.59844
-4.84908
-5.91481
-6.74894
-7.31045
-7.5663
-7.49404
-7.0846
-6.3448
-5.29923
-3.99086
-2.47998
-0.841238
-0.633194
-1.87577
-3.04736
-4.10223
-4.99716
-5.69286
-6.15553
-6.35877
-6.28566
-5.93075
-5.30182
-4.42107
-3.32523
-2.06448
-0.699967
-0.536016
-1.5874
-2.57732
-3.46641
-4.21784
-4.79856
-5.18071
-5.34312
-5.27294
-4.96713
-4.43368
-3.69225
-2.7741
-1.72102
-0.583291
-0.453172
-1.34171
-2.17728
-2.92615
-3.55702
-4.04213
-4.35844
-4.48893
-4.4238
-4.16157
-3.70994
-3.08613
-2.31664
-1.43633
-0.486647
-0.382692
-1.13278
-1.83743
-2.46782
-2.9974
-3.40288
-3.66519
-3.77057
-3.7115
-3.4875
-3.10574
-2.58114
-1.93614
-1.19979
-0.406398
-0.322831
-0.955407
-1.54913
-2.07947
-2.52395
-2.86302
-3.08088
-3.16638
-3.11369
-2.92297
-2.6007
-2.15974
-1.61905
-1.00287
-0.339619
-0.272054
-0.805003
-1.30485
-1.75074
-2.12369
-2.4073
-2.58848
-2.65813
-2.61172
-2.44977
-2.17806
-1.8076
-1.35436
-0.838617
-0.283944
-0.229024
-0.677584
-1.09801
-1.47264
-1.78546
-2.0227
-2.17351
-2.23045
-2.18998
-2.05279
-1.82397
-1.51292
-1.13309
-0.701392
-0.237446
-0.19258
-0.569697
-0.922969
-1.23746
-1.49968
-1.69811
-1.82371
-1.87039
-1.83537
-1.71942
-1.52696
-1.26599
-0.947813
-0.58656
-0.198546
-0.161722
-0.478363
-0.774848
-1.03858
-1.2582
-1.42408
-1.5287
-1.56706
-1.53696
-1.43918
-1.27753
-1.05879
-0.792446
-0.490308
-0.165947
-0.135587
-0.401024
-0.649468
-0.870316
-1.05404
-1.19258
-1.27969
-1.31126
-1.28554
-1.20327
-1.06773
-0.884629
-0.661932
-0.409484
-0.138579
-0.113435
-0.335482
-0.543246
-0.727828
-0.881248
-0.996776
-1.06923
-1.09523
-1.07338
-1.00435
-0.890941
-0.737964
-0.552073
-0.341473
-0.115554
-0.0946321
-0.279856
-0.453118
-0.606974
-0.734762
-0.830879
-0.891031
-0.912435
-0.893966
-0.836243
-0.741626
-0.614152
-0.459368
-0.284098
-0.0961328
-0.0786344
-0.232534
-0.376462
-0.504219
-0.610265
-0.689952
-0.739731
-0.757318
-0.741809
-0.693749
-0.615124
-0.5093
-0.380886
-0.235537
-0.0796966
-0.0649757
-0.192135
-0.311033
-0.416537
-0.504068
-0.569789
-0.610782
-0.625178
-0.612252
-0.572475
-0.507505
-0.420131
-0.314163
-0.194259
-0.0657271
-0.0532553
-0.157472
-0.254903
-0.341335
-0.413011
-0.466794
-0.500298
-0.512005
-0.501337
-0.468691
-0.415439
-0.343873
-0.257114
-0.158973
-0.0537861
-0.0431273
-0.127521
-0.206409
-0.276376
-0.334378
-0.377877
-0.404948
-0.414368
-0.405679
-0.379214
-0.336089
-0.278164
-0.207966
-0.128578
-0.0435011
-0.0342912
-0.101392
-0.164108
-0.219723
-0.265815
-0.300367
-0.321852
-0.329304
-0.322364
-0.301303
-0.267013
-0.220975
-0.165199
-0.102132
-0.0345531
-0.026484
-0.0783062
-0.126739
-0.169681
-0.205263
-0.231928
-0.248498
-0.254231
-0.248853
-0.232576
-0.206093
-0.170548
-0.127494
-0.0788188
-0.0266653
-0.0194723
-0.0575738
-0.0931813
-0.124749
-0.150903
-0.170497
-0.182668
-0.186872
-0.182908
-0.170935
-0.151463
-0.125335
-0.0936918
-0.0579203
-0.0195949
-0.013046
-0.0385729
-0.0624283
-0.0835762
-0.101096
-0.11422
-0.12237
-0.125183
-0.122524
-0.114501
-0.101455
-0.0839518
-0.0627553
-0.0387949
-0.0131245
-0.00701206
-0.0207325
-0.0335549
-0.0449225
-0.0543402
-0.0613961
-0.0657787
-0.0672921
-0.0658646
-0.061553
-0.054541
-0.0451324
-0.0337377
-0.0208566
-0.00705595
-0.0011889
-0.00351566
-0.00569141
-0.00762232
-0.00922457
-0.010428
-0.011179
-0.0114432
-0.0112074
-0.01048
-0.00929111
-0.00769189
-0.00575199
-0.00355677
-0.00120344
0.00459885
0.0135964
0.0220021
0.0294497
0.0356142
0.0402261
0.0430829
0.0440585
0.0431085
0.0402728
0.0356739
0.0295121
0.0220565
0.0136333
0.00461191
0.0105256
0.0311194
0.0503608
0.0674125
0.081531
0.0920987
0.098651
0.100897
0.0987336
0.0922496
0.0817242
0.0676145
0.0505367
0.0312387
0.0105678
0.0167698
0.0495813
0.0802397
0.107412
0.129913
0.146759
0.157209
0.160797
0.157358
0.147032
0.130263
0.107778
0.0805582
0.0497974
0.0168462
0.0235194
0.069538
0.112539
0.150654
0.182222
0.20586
0.22053
0.225577
0.220764
0.206289
0.18277
0.151227
0.113039
0.0698769
0.0236393
0.0309773
0.0915896
0.148231
0.198442
0.240035
0.271189
0.290532
0.2972
0.29088
0.271824
0.240847
0.199292
0.148971
0.0920919
0.031155
0.0393673
0.116398
0.188388
0.252213
0.305095
0.344718
0.369334
0.377842
0.369837
0.345636
0.306269
0.253442
0.189458
0.117124
0.0396241
0.0489404
0.144706
0.234213
0.313583
0.37936
0.428665
0.459321
0.469949
0.460038
0.429976
0.381037
0.315337
0.235741
0.145743
0.0493072
0.0599821
0.177358
0.287077
0.384389
0.46506
0.525561
0.563212
0.576314
0.56423
0.527422
0.467443
0.38688
0.289247
0.178831
0.060503
0.0728208
0.215327
0.348555
0.466747
0.564766
0.638319
0.684146
0.700167
0.685588
0.640955
0.568139
0.470274
0.351627
0.217412
0.0735582
0.0878364
0.259737
0.420473
0.563111
0.681458
0.770328
0.825774
0.845263
0.827813
0.774054
0.686226
0.568097
0.424816
0.262684
0.0888789
0.105471
0.311897
0.504957
0.676339
0.818614
0.925544
0.992365
1.01601
0.995246
0.930807
0.82535
0.683384
0.511091
0.316061
0.106944
0.126241
0.373338
0.604491
0.809777
0.980308
1.10861
1.18894
1.21757
1.193
1.11604
0.98982
0.819725
0.613154
0.379217
0.128321
0.15075
0.445847
0.721984
0.967344
1.17132
1.32497
1.4214
1.45608
1.42714
1.33547
1.18475
0.98139
0.734216
0.454149
0.153687
0.179704
0.53152
0.860845
1.15364
1.39728
1.58107
1.69672
1.73876
1.70483
1.59588
1.41624
1.17347
0.878114
0.543242
0.183851
0.21393
0.632808
1.02507
1.37407
1.66479
1.88447
2.02315
2.07418
2.0346
1.90539
1.69156
1.40206
1.04945
0.649356
0.219784
0.254393
0.752576
1.21933
1.63495
1.98162
2.2441
2.41044
2.47252
2.4266
2.27363
2.01941
1.67447
1.25375
0.775938
0.262657
0.302217
0.894165
1.44908
1.9437
2.3569
2.6705
2.8701
2.94583
2.89292
2.71218
2.41025
1.9995
1.49767
0.927149
0.313885
0.35871
1.06146
1.7207
2.30899
2.80132
3.17603
3.41578
3.50846
3.44798
3.23487
2.87663
2.38776
1.7893
1.10803
0.375183
0.425384
1.25898
2.04157
2.74091
3.32741
3.77526
4.06356
4.17743
4.10901
3.85831
3.43372
2.85211
2.13842
1.32473
0.448643
0.503983
1.4919
2.42024
3.25116
3.94975
4.48526
4.83244
4.97295
4.89659
4.60249
4.09982
3.40815
2.55698
1.58473
0.536824
0.596499
1.76619
2.86653
3.85329
4.68532
5.326
5.74482
5.91903
5.83535
5.49146
4.89716
4.07491
3.0596
1.89727
0.642875
0.705199
2.08862
3.39168
4.56285
5.55374
6.32078
6.82701
7.04416
6.95478
6.5543
5.85275
4.87572
3.6643
2.27373
0.770695
0.832629
2.46683
4.00841
5.39755
6.57756
7.49662
8.10991
8.38211
8.29018
7.82616
6.99961
5.83927
4.39337
2.72828
0.925142
0.981621
2.90934
4.73098
6.37745
7.78255
8.88475
9.62962
9.97287
9.88392
9.34971
8.37821
7.00107
5.27464
3.27867
1.11232
1.15527
3.42551
5.57514
7.52492
9.19784
10.521
11.4282
11.8637
11.7868
11.1769
10.0384
8.40538
6.34305
3.94735
1.33998
1.35691
4.02541
6.55805
8.86459
10.856
12.446
13.5541
14.1102
14.0598
13.371
12.0421
10.1077
7.64291
4.76298
1.61804
1.58999
4.71963
7.69792
10.4231
12.7927
14.7054
16.0634
16.7779
16.7759
16.0095
14.4661
12.1784
9.231
5.76262
1.95939
1.85802
5.51892
9.01353
12.2283
15.0468
17.35
19.0195
19.943
20.0227
19.1874
17.407
14.707
11.1809
6.99473
2.38098
2.16433
6.43365
10.5234
14.3088
17.6585
20.4344
22.4936
23.694
23.9048
23.0216
20.9863
17.8091
13.589
8.52375
2.90549
2.51182
7.47305
12.2445
16.6916
20.6686
24.0164
26.5638
28.132
28.5465
27.6558
25.3584
21.6355
16.5838
10.4368
3.56382
2.90265
8.64418
14.1908
19.4008
24.1153
28.1542
31.3138
33.371
34.0943
33.2665
30.7201
26.3846
20.3391
12.8538
4.39899
3.33772
9.95058
16.3708
22.4539
28.0312
32.9023
36.8291
39.536
40.719
40.0706
37.3241
32.321
25.0941
15.9442
5.47243
3.81622
11.3907
18.7849
25.858
32.4373
38.3059
43.1914
46.7589
48.6153
48.3314
45.4949
39.8016
31.1844
19.9523
6.8744
4.33498
12.9558
21.4219
29.6048
37.3367
44.3921
50.4686
55.1698
57.9975
58.3646
55.6492
49.3123
39.0906
25.242
8.74225
4.8878
14.6283
24.2553
33.6645
42.7056
51.1577
58.7004
64.8815
69.0881
70.5379
68.3183
61.5204
49.5151
32.3726
11.2939
5.46496
16.3796
27.2399
37.9797
48.4832
58.5545
67.8775
75.9638
82.0927
85.2589
84.1661
77.3445
63.5067
42.2363
14.8935
6.05268
18.1685
30.3079
42.4587
54.5606
66.4706
77.913
88.4049
97.1542
102.937
103.992
98.0405
82.6594
56.3168
20.1904
6.63309
19.9409
33.3677
46.9715
60.7708
74.711
88.6081
102.055
114.275
123.898
128.682
125.284
109.424
77.191
28.4416
7.18457
21.6305
36.3043
51.3482
66.8829
82.9808
99.6148
116.558
133.199
148.218
159.053
161.182
147.557
109.534
42.3409
7.68271
23.1617
38.9836
55.3838
72.6033
90.8779
110.406
131.269
153.249
175.442
195.469
208.018
202.632
162.135
68.3847
8.10196
24.4545
41.261
58.8501
77.5905
97.9038
120.27
145.204
173.15
204.169
237.076
267.308
282.088
251.715
124.303
8.41792
25.4321
42.9945
61.5166
81.4849
103.503
128.35
157.045
190.917
231.582
280.539
337.326
392.899
408.681
264.382
8.60999
26.0288
44.0614
63.1785
83.9549
107.138
133.757
165.291
203.965
253.236
318.561
408.186
531.34
676.812
671.449
8.66395
26.199
44.3748
63.6877
84.7527
108.387
135.749
168.577
209.652
263.741
339.704
455.759
654.279
1049.68
2007.36
8.57403
25.924
43.8983
62.9798
83.7656
107.048
133.944
166.134
206.301
259.052
333.005
446.062
640.488
1032.08
1993.26
8.34386
25.2152
42.6527
61.088
81.0445
103.197
128.463
158.151
194.209
239.637
299.147
379.857
489.769
618.93
612.029
7.98616
24.113
40.7138
58.1396
76.7981
97.183
119.909
145.743
175.608
210.443
250.565
293.369
325.679
300.261
76.0404
-99.4317
-80.8609
-66.9905
-56.2848
-47.6763
-40.5124
-34.383
-29.0174
-24.2274
-19.8761
-15.8594
-12.0949
-8.51463
-5.06005
-1.67867
-37.2694
-51.5653
-50.8561
-46.3572
-41.0945
-35.9255
-31.0784
-26.5853
-22.4169
-18.5261
-14.8632
-11.3807
-8.03445
-4.78329
-1.58824
-16.9421
-32.6891
-37.3527
-36.9595
-34.447
-31.1148
-27.5274
-23.9275
-20.4134
-17.0176
-13.7414
-10.5717
-7.48815
-4.46749
-1.48492
-9.20995
-21.5094
-27.3605
-29.033
-28.3685
-26.4807
-23.9849
-21.2098
-18.3276
-15.4258
-12.5456
-9.70267
-6.89811
-4.1252
-1.37272
-5.72791
-14.8076
-20.2696
-22.7292
-23.1391
-22.2686
-20.636
-18.5661
-16.2551
-13.8188
-11.3239
-8.80685
-6.28601
-3.76866
-1.25562
-3.89592
-10.6178
-15.2635
-17.8483
-18.7988
-18.5854
-17.5905
-16.0896
-14.2694
-12.2524
-10.1173
-7.91355
-5.67141
-3.40908
-1.13727
-2.8069
-7.86969
-11.6883
-14.1022
-15.2664
-15.4446
-14.8963
-13.8346
-12.4201
-10.7679
-8.95837
-7.0468
-5.07077
-3.05603
-1.0208
-2.10051
-5.98547
-9.08858
-11.2238
-12.4185
-12.8081
-12.5584
-11.8246
-10.7357
-9.3924
-7.87017
-6.22473
-4.49695
-2.71716
-0.908758
-1.61356
-4.64411
-7.16086
-8.99839
-10.1296
-10.6155
-10.5565
-10.0609
-9.22795
-8.14105
-6.86742
-5.45977
-3.9592
-2.39812
-0.803029
-1.26311
-3.65951
-5.70473
-7.26332
-8.28884
-8.80104
-8.85761
-8.53149
-7.89638
-7.01929
-5.95766
-4.75927
-3.46341
-2.10268
-0.704905
-1.00281
-2.91872
-4.58648
-5.89836
-6.8044
-7.3029
-7.42439
-7.21651
-6.73276
-6.02558
-5.1428
-4.12639
-3.01263
-1.83293
-0.61513
-0.804808
-2.35022
-3.71532
-4.81514
-5.60288
-6.06647
-6.21982
-6.09303
-5.72422
-5.15374
-4.42066
-3.56108
-2.6076
-1.58962
-0.533997
-0.65138
-1.90691
-3.02832
-3.9486
-4.62641
-5.04542
-5.2097
-5.13753
-4.85566
-4.39475
-3.78632
-3.06092
-2.24734
-1.37243
-0.461446
-0.530745
-1.5567
-2.48095
-3.2504
-3.82959
-4.2012
-4.36371
-4.32759
-4.11136
-3.73815
-3.23315
-2.62196
-1.92963
-1.18029
-0.397157
-0.434778
-1.27711
-2.04105
-2.68429
-3.17687
-3.50213
-3.65559
-3.64268
-3.47603
-3.17302
-2.75369
-2.23932
-1.65149
-1.01158
-0.340632
-0.357707
-1.05195
-1.68494
-2.22276
-2.64031
-2.92233
-3.06297
-3.06448
-2.93536
-2.68862
-2.34019
-1.90766
-1.40949
-0.864428
-0.291262
-0.29533
-0.869324
-1.3949
-1.84471
-2.19783
-2.44066
-2.56694
-2.57694
-2.47632
-2.27482
-1.98505
-1.62157
-1.20004
-0.736775
-0.248387
-0.244521
-0.720306
-1.15746
-1.5338
-1.8319
-2.0399
-2.15162
-2.1662
-2.08732
-1.92227
-1.68109