/*--------------------------------*- C++ -*----------------------------------*\
| =========                 |                                                 |
| \\      /  F ield         | OpenFOAM: The Open Source CFD Toolbox           |
|  \\    /   O peration     | Version:  5.x                                   |
|   \\  /    A nd           | Web:      www.OpenFOAM.org                      |
|    \\/     M anipulation  |                                                 |
\*---------------------------------------------------------------------------*/
FoamFile
{
    version     2.0;
    format      ascii;
    class       volScalarField;
    location    "4.5";
    object      T;
}
// * * * * * * * * * * * * * * * * * * * * * * * * * * * * * * * * * * * * * //

dimensions      [0 0 0 1 0 0 0];

internalField   nonuniform List<scalar> 
6300
(
10.861
12.5871
14.326
16.0857
17.8739
19.6976
21.5627
23.4738
25.434
27.4441
29.5029
31.6063
33.7479
35.9182
38.1058
10.8567
12.5744
14.3051
16.0571
17.8383
19.656
21.5165
23.4246
25.3837
27.3952
29.4578
31.5679
33.7187
35.9006
38.1016
10.848
12.5486
14.2628
15.9991
17.7662
19.5716
21.4223
23.3241
25.2809
27.2947
29.3651
31.4884
33.6579
35.8635
38.0919
10.8349
12.5093
14.1981
15.9104
17.6554
19.4417
21.2771
23.1683
25.1207
27.1375
29.219
31.3623
33.5607
35.803
38.0745
10.8169
12.4557
14.1098
15.789
17.5033
19.2625
21.0757
22.9512
24.896
26.9152
29.0108
31.1809
33.419
35.713
38.0455
10.7939
12.3869
13.9961
15.6323
17.3063
19.0292
20.8117
22.6644
24.5967
26.6162
28.7277
30.9313
33.2212
35.5841
37.9992
10.7654
12.302
13.8555
15.4376
17.0603
18.736
20.4775
22.2979
24.2099
26.225
28.3521
30.5949
32.9498
35.4026
37.9278
10.7314
12.2
13.6862
15.2023
16.7612
18.3768
20.0642
21.8395
23.7197
25.7217
27.8605
30.1463
32.5801
35.1485
37.8197
10.6915
12.0803
13.4869
14.924
16.4052
17.9458
19.5629
21.2761
23.1075
25.0812
27.2215
29.5492
32.0754
34.7911
37.6581
10.6457
11.9427
13.2572
14.6016
15.9898
17.438
18.9652
20.5942
22.3529
24.2739
26.3947
28.7535
31.3807
34.2822
37.4163
10.5942
11.7878
12.9975
14.2352
15.5144
16.8511
18.2654
19.7826
21.4356
23.2667
25.3297
27.689
30.4112
33.5404
37.0486
10.5373
11.6166
12.7098
13.8273
14.9812
16.1866
17.4626
18.8351
20.3399
22.0272
23.9681
26.2614
29.0343
32.4193
36.4653
10.476
11.4314
12.3977
13.3829
14.3966
15.4512
16.5631
17.7553
19.0616
20.5339
22.254
24.354
27.045
30.6365
35.4529
10.4111
11.2355
12.0666
12.9098
13.771
14.6585
15.5831
16.561
17.6172
18.7925
20.1596
21.8553
24.1548
27.6287
33.3758
10.344
11.0327
11.7236
12.4184
13.1192
13.8284
14.5498
15.2885
16.0533
16.8593
17.7365
18.7525
20.0901
22.3472
27.8711
40.1146
41.9341
43.7382
45.5185
47.2666
48.975
50.6368
52.2457
53.7966
55.285
56.7071
58.0598
59.3407
60.5477
61.6795
62.7348
63.7128
64.6132
65.4358
66.1807
66.8484
67.4396
67.9551
68.3961
68.7639
69.06
69.2859
69.4434
69.5342
69.5601
69.523
69.4248
69.2672
69.0522
68.7816
68.457
68.0802
67.6529
67.1767
66.6533
66.0843
65.4714
64.816
64.1198
63.3843
62.6109
61.8013
60.9566
60.0784
59.1677
58.2258
57.2539
56.253
55.2242
54.1686
53.0872
51.9812
50.8517
49.6999
48.527
47.3342
46.1227
44.8938
43.6488
42.3889
41.1154
39.8296
38.5328
37.2267
35.9128
34.5929
33.269
31.9433
30.6183
29.2965
27.9807
26.674
25.3793
24.0999
22.8389
21.5994
20.3847
19.1975
18.0407
16.9169
15.8282
14.7767
13.7637
12.7902
11.8568
40.1237
41.9556
43.7721
45.5641
47.3233
49.0416
50.7121
52.3286
53.886
55.3797
56.8062
58.1624
59.4461
60.6554
61.7887
62.8451
63.8238
64.7243
65.5467
66.291
66.9577
67.5475
68.0614
68.5006
68.8663
69.16
69.3835
69.5384
69.6265
69.6498
69.61
69.5091
69.349
69.1314
68.8582
68.5311
68.1519
67.7222
67.2437
66.718
66.1467
65.5314
64.8738
64.1754
63.4377
62.6623
61.8507
61.0041
60.1241
59.2117
58.2682
57.2947
56.2923
55.262
54.2048
53.1218
52.0142
50.883
49.7295
48.5548
47.3602
46.147
44.9163
43.6695
42.4078
41.1324
39.8446
38.5457
37.2373
35.9208
34.598
33.271
31.9418
30.613
29.2872
27.9672
26.6561
25.3569
24.0729
22.8074
21.5636
20.3445
19.1534
17.993
16.8659
15.7746
14.7209
13.7065
12.7323
11.7989
40.1414
41.9988
43.8405
45.6566
47.438
49.1764
50.8644
52.4961
54.0662
55.5704
57.0055
58.3688
59.658
60.8715
62.0079
63.0664
64.0463
64.9471
65.769
66.512
67.1767
67.7638
68.2744
68.7097
69.0711
69.3602
69.5787
69.7285
69.8113
69.8292
69.784
69.6778
69.5123
69.2896
69.0113
68.6793
68.2952
67.8608
67.3776
66.8472
66.2713
65.6515
64.9893
64.2865
63.5445
62.7649
61.9492
61.0989
60.2153
59.2995
58.3528
57.3762
56.3708
55.3374
54.2772
53.1911
52.0802
50.9457
49.7887
48.6105
47.4123
46.1955
44.9613
43.711
42.4456
41.1665
39.8748
38.5718
37.2587
35.9371
34.6087
33.2754
31.9393
30.603
29.2691
27.9405
26.6205
25.3122
24.019
22.7443
21.4915
20.2639
19.0646
17.8968
16.7632
15.6663
14.6084
13.591
12.6153
11.682
40.1669
42.0643
43.9452
45.7985
47.614
49.3829
51.0974
52.7515
54.3404
55.86
57.3077
58.6809
59.978
61.1976
62.3386
63.4001
64.3816
65.2829
66.1038
66.8448
67.5063
68.0893
68.5948
69.0243
69.3791
69.6611
69.872
70.0139
70.0886
70.0983
70.045
69.9306
69.7572
69.5267
69.2408
68.9014
68.5101
68.0685
67.5783
67.041
66.4582
65.8315
65.1625
64.4529
63.7044
62.9185
62.0968
61.2408
60.3518
59.431
58.4795
57.4984
56.4885
55.4507
54.386
53.2952
52.1794
51.0398
49.8776
48.694
47.4905
46.2684
45.0289
43.7732
42.5026
41.2181
39.9207
38.6116
37.2918
35.9627
34.6259
33.2831
31.9366
30.5889
29.2426
27.9011
26.5674
25.2452
23.938
22.6493
21.3828
20.142
18.9303
17.751
16.6073
15.5018
14.4371
13.4152
12.4372
11.504
40.1989
42.1528
44.089
45.9942
47.8568
49.6669
51.4167
53.1003
54.7134
56.2527
57.7161
59.1019
60.4089
61.6361
62.7827
63.848
64.8316
65.7333
66.553
67.2911
67.9482
68.5254
69.0239
69.4452
69.791
70.0632
70.2638
70.3948
70.4586
70.4572
70.3927
70.2674
70.0833
69.8424
69.5464
69.1971
68.7963
68.3453
67.8458
67.2993
66.7072
66.0713
65.3931
64.6745
63.9171
63.1226
62.2928
61.4291
60.533
59.6057
58.6481
57.6611
56.6455
55.602
54.5313
53.4344
52.3121
51.1657
49.9964
48.8056
47.5948
46.3654
45.1188
43.8563
42.5789
41.2874
39.9829
38.666
37.3376
35.9988
34.6509
33.2957
31.9352
30.572
29.209
27.8497
26.4975
25.1563
23.8298
22.5219
21.2367
19.9777
18.7489
17.5538
16.3958
15.2783
14.2042
13.1757
12.1945
11.2615
40.2357
42.2664
44.2769
46.2508
48.1744
50.037
51.8307
53.5501
55.1918
56.754
58.2354
59.6355
60.9539
62.1899
63.343
64.4128
65.3988
66.3008
67.1187
67.8529
68.5043
69.0739
69.5632
69.9739
70.3079
70.5674
70.7546
70.8718
70.9214
70.9057
70.8271
70.6879
70.4903
70.2362
69.9276
69.5662
69.1535
68.691
68.1801
67.6221
67.0185
66.3709
65.6811
64.9509
64.1821
63.3767
62.5366
61.6633
60.7584
59.823
58.858
57.8641
56.8418
55.7915
54.7137
53.6092
52.4788
51.3237
50.1452
48.9451
47.725
46.4865
45.2311
43.9601
42.6745
41.375
40.0622
38.7363
37.3978
36.0474
34.686
33.3152
31.937
30.5541
29.1698
27.7875
26.4114
25.0456
23.6943
22.3617
21.0522
19.7698
18.5186
17.3026
16.1259
14.9922
13.9052
12.8678
11.8822
10.9496
40.2756
42.4087
44.5168
46.5792
48.5794
50.5058
52.351
54.1109
55.7842
57.3707
58.8711
60.2863
61.6165
62.8621
64.0226
65.0975
66.0862
66.9884
67.8039
68.5332
69.1772
69.7371
70.2147
70.6119
70.9312
71.1748
71.3452
71.4452
71.4771
71.4438
71.3478
71.1916
70.9775
70.7077
70.384
70.0081
69.5816
69.1055
68.5811
68.0095
67.3921
66.7305
66.0263
65.2817
64.4989
63.6799
62.8271
61.9422
61.0268
60.082
59.1087
58.1071
57.0774
56.0196
54.9339
53.8205
52.6802
51.5144
50.3246
49.1127
47.8809
46.6311
45.3651
44.0842
42.7895
41.4813
40.1595
38.8241
37.4746
36.1111
34.7341
33.3448
31.9451
30.538
29.1269
27.7161
26.31
24.9135
23.5313
22.1681
20.8283
19.5166
18.2373
16.9947
15.7936
14.6386
13.5344
12.485
11.4935
10.5615
40.317
42.5864
44.822
46.9964
49.0901
51.0909
52.9933
54.7959
56.5007
58.1106
59.6289
61.0583
62.4005
63.6559
64.8245
65.9053
66.8973
67.7998
68.6124
69.3355
69.9701
70.5178
70.9808
71.3614
71.6624
71.8865
72.0365
72.1153
72.1259
72.0713
71.9542
71.7776
71.5439
71.2556
70.9145
70.5221
70.0799
69.5885
69.049
68.4619
67.8285
67.1502
66.4288
65.6668
64.8666
64.0311
63.1628
62.264
61.3364
60.3813
59.3991
58.3897
57.3527
56.2873
55.1929
54.0695
52.9177
51.7388
50.5349
49.3083
48.0619
46.7982
45.5197
44.2277
42.9232
41.6062
40.276
38.9314
37.5709
36.1937
34.7994
33.3887
31.9635
30.5269
29.0832
27.6372
26.1945
24.7604
23.3406
21.9401
20.5638
19.2165
17.9025
16.6269
15.3947
14.2118
13.0844
12.0186
11.019
10.088
40.3591
42.8123
45.2147
47.5294
49.7338
51.8173
53.7784
55.6212
57.353
58.9816
60.514
61.9553
63.3083
64.5741
65.7519
66.84
67.8365
68.7397
69.5488
70.2642
70.8872
71.4197
71.8645
72.2247
72.5033
72.7037
72.8291
72.8827
72.8677
72.7875
72.6454
72.4447
72.1881
71.8784
71.5176
71.1071
70.6478
70.1401
69.5841
68.9801
68.3285
67.6308
66.889
66.1057
65.2844
64.4285
63.5414
62.6262
61.6849
60.7186
59.7277
58.7113
57.6679
56.5957
55.4928
54.3586
53.1934
51.9986
50.7769
49.5317
48.2669
46.9862
45.6927
44.3885
43.0743
41.7495
40.4125
39.0607
37.6909
36.3004
34.8876
33.4528
31.9976
30.5257
29.0422
27.5533
26.0658
24.5865
23.1216
21.6768
20.2574
18.8678
17.5125
16.1961
14.9244
13.7047
12.5456
11.4565
10.4453
9.51604
40.404
43.111
45.7329
48.2207
50.551
52.7193
54.733
56.6056
58.353
59.9903
61.5295
62.9784
64.341
65.618
66.8074
67.9058
68.9089
69.8139
70.6193
71.3251
71.9333
72.4468
72.8691
73.2042
73.4559
73.628
73.7241
73.7476
73.7023
73.5918
73.42
73.1909
72.9078
72.5738
72.1911
71.7611
71.2842
70.7601
70.1875
69.5656
68.894
68.1739
67.4076
66.5985
65.7509
64.8697
63.9597
63.0249
62.0681
61.0906
60.092
59.0708
58.0238
56.9471
55.837
54.6916
53.5107
52.2962
51.0518
49.7824
48.4939
47.1917
45.8805
44.5629
43.2397
41.9097
40.5698
39.2152
37.8398
36.4383
35.0072
33.5455
32.0552
30.5406
29.0085
27.4669
25.925
24.3912
22.873
21.3767
19.9075
18.4694
17.0659
15.7006
14.3789
13.1099
11.906
10.7822
9.75323
8.82692
40.4618
43.5313
46.4439
49.1381
51.6007
53.8433
55.8902
57.7695
59.5107
61.1397
62.6741
64.1248
65.496
66.7872
67.9933
69.1076
70.1218
71.0308
71.8318
72.5256
73.1149
73.6041
73.9983
74.3026
74.522
74.6607
74.7224
74.7107
74.6295
74.4832
74.2762
74.0136
73.6998
73.3383
72.9317
72.4815
71.9877
71.4487
70.861
70.2213
69.5284
68.7826
67.9869
67.1455
66.2647
65.3512
64.4127
63.4544
62.4804
61.4917
60.488
59.4663
58.4215
57.3456
56.2313
55.0748
53.8754
52.6361
51.3617
50.06
48.7396
47.4096
46.0766
44.7446
43.4141
42.0834
40.7475
39.3988
38.0259
36.6183
35.17
33.6788
32.1472
30.5803
28.9878
27.3805
25.772
24.1729
22.5926
21.0373
19.5124
18.0207
16.5642
15.1421
13.7573
12.4212
11.1506
9.97094
8.91324
7.99264
40.5672
44.1771
47.4686
50.3885
52.9666
55.2483
57.2881
59.1314
60.8293
62.4245
63.9382
65.3851
66.7653
68.078
69.3105
70.4524
71.4854
72.4022
73.1978
73.8757
74.4397
74.8974
75.2557
75.5222
75.7033
75.8033
75.8253
75.773
75.6497
75.4608
75.2113
74.9093
74.5593
74.1668
73.734
73.2638
72.7551
72.2063
71.6085
70.9528
70.2378
69.4621
68.6311
67.7484
66.8247
65.868
64.893
63.9057
62.9128
61.9135
60.9092
59.8943
58.863
57.7987
56.6853
55.5189
54.2967
53.0256
51.71
50.364
48.9981
47.6313
46.2706
44.9235
43.5879
42.264
40.9432
39.6164
38.2613
36.8562
35.3942
33.8698
32.2894
30.6566
28.9877
27.2954
25.6049
23.9272
22.2759
20.6536
19.069
17.5211
16.0126
14.5298
13.0652
11.638
10.2643
8.98389
7.87568
6.96886
40.8434
45.2811
49.0278
52.1303
54.7585
57.001
58.9681
60.702
62.2949
63.8259
65.2977
66.7406
68.1307
69.4833
70.7571
71.9532
73.0152
73.9469
74.7325
75.3885
75.9165
76.3327
76.6443
76.8638
77.0004
77.0568
77.0341
76.9364
76.7631
76.5243
76.2211
75.8728
75.4787
75.0524
74.5889
74.1003
73.5793
73.0333
72.4381
71.7687
71.0333
70.2202
69.3487
68.4094
67.431
66.4099
65.39
64.3641
63.3533
62.3415
61.3446
60.3449
59.3511
58.3215
57.2146
56.0425
54.7876
53.4784
52.1011
50.6959
49.257
47.8432
46.4439
45.0852
43.7442
42.4395
41.1465
39.8741
38.5682
37.1752
35.7075
34.1407
32.5064
30.7841
29.0208
27.2072
25.419
23.6428
21.9171
20.2153
18.5724
16.9646
15.4236
13.8908
12.3191
10.7775
9.24323
7.74872
6.54794
5.68109
41.7857
47.3793
51.5142
54.5546
57.1052
59.1496
60.983
62.4748
63.8491
65.3115
66.6981
68.1713
69.5491
71.0009
72.3149
73.6463
74.7314
75.7011
76.4526
77.0846
77.5533
77.9174
78.1645
78.3236
78.4119
78.4233
78.3499
78.2075
77.9699
77.6795
77.2949
76.9009
76.4437
75.9904
75.479
74.9824
74.4385
73.9302
73.3734
72.6788
71.9395
71.0614
70.1629
69.1258
68.0975
66.9494
65.8946
64.7998
63.7944
62.747
61.783
60.7862
59.8899
58.9547
57.837
56.6843
55.3559
54.0284
52.5318
51.0752
49.4791
48.0336
46.5581
45.2206
43.8475
42.5973
41.3197
40.1792
38.9999
37.6012
36.163
34.5082
32.8494
30.9705
29.1256
27.082
25.2153
23.2852
21.5234
19.6918
18.0248
16.3115
14.8225
13.3076
11.5294
9.90625
8.16478
6.09044
4.73923
3.99907
45.6817
51.5775
55.5759
57.6836
60.18
61.6014
63.4892
64.4158
65.2755
66.9053
67.9727
69.7386
70.86
72.7162
73.8464
75.693
76.6128
77.7685
78.3437
79.0147
79.3396
79.6696
79.8105
79.884
79.9329
79.9108
79.7637
79.6146
79.2516
78.9693
78.3812
78.019
77.4019
77.0109
76.3465
75.9314
75.2455
74.8956
74.5061
73.652
73.0445
71.9311
71.1756
69.8282
68.9358
67.3533
66.4558
65.1059
64.2949
63.0313
62.2675
61.0819
60.4838
59.8498
58.5086
57.5784
55.9219
54.821
52.9038
51.6548
49.4833
48.2664
46.4728
45.4062
43.7733
42.7937
41.2946
40.5394
39.7466
38.0836
36.9299
34.8807
33.5087
31.1072
29.516
26.7015
25.1026
22.6846
21.2299
18.9309
17.5436
15.3352
14.2582
13.1033
10.5163
9.20513
7.56548
3.39074
2.05053
1.6911
10.8742
9.85911
8.89912
7.9915
7.13288
6.31936
5.54668
4.81041
4.10601
3.42897
2.77483
2.13923
1.51791
0.906722
0.301571
10.8171
9.80386
8.84658
7.94236
7.08766
6.27839
5.51017
4.77844
4.07858
3.406
2.75624
2.12491
1.50776
0.900664
0.299558
10.7019
9.6925
8.7408
7.84356
6.99686
6.19626
5.43708
4.71452
4.02378
3.36017
2.71916
2.09636
1.48754
0.888599
0.295548
10.5265
9.5233
8.58041
7.69409
6.85981
6.0726
5.32728
4.61868
3.94176
3.29168
2.66382
2.05379
1.4574
0.870629
0.289577
10.288
9.29358
8.36328
7.49243
6.67558
5.90693
5.18065
4.49108
3.83284
3.20091
2.59061
1.99755
1.41762
0.846923
0.281703
9.9817
8.99955
8.08654
7.23662
6.44302
5.69879
4.99723
4.33206
3.69754
3.08846
2.5001
1.92814
1.36859
0.817724
0.272007
9.6015
8.63623
7.74656
6.92437
6.16096
5.44788
4.77731
4.1423
3.53673
2.95525
2.39315
1.84627
1.31083
0.783367
0.260604
9.13909
8.19715
7.33896
6.5532
5.82847
5.15435
4.52175
3.92303
3.35176
2.80258
2.27094
1.75293
1.24509
0.744292
0.247641
8.58325
7.67418
6.85881
6.12087
5.44527
4.81919
4.23225
3.67623
3.14464
2.63232
2.13507
1.64939
1.17227
0.701057
0.233306
7.91872
7.05735
6.30109
5.6261
5.01246
4.4448
3.91174
3.40492
2.9182
2.44695
1.98759
1.53725
1.09353
0.654349
0.217825
7.12464
6.33527
5.66198
5.06988
4.53356
4.03573
3.56491
3.11346
2.67624
2.24964
1.83105
1.41845
1.01022
0.604974
0.201467
6.1729
5.497
4.94159
4.45778
4.01609
3.59958
3.19863
2.80772
2.4236
2.04429
1.66849
1.29526
0.923913
0.553848
0.184534
5.02863
4.53814
4.1495
3.80347
3.47337
3.14781
2.82225
2.49512
2.16612
1.8354
1.5033
1.17017
0.836305
0.501961
0.167349
3.66299
3.47734
3.3147
3.13318
2.92605
2.69598
2.44738
2.18436
1.9103
1.62785
1.33913
1.04579
0.74916
0.450333
0.150247
2.11629
2.39345
2.49875
2.48843
2.40161
2.26262
2.08689
1.88461
1.66282
1.42656
1.17956
0.924685
0.664197
0.399953
0.133552
10.2818
10.8447
11.4055
11.9626
12.5138
13.0564
13.5865
14.098
14.5818
15.0218
15.3878
15.6133
15.5208
14.5112
10.0778
10.2257
10.6753
11.119
11.5522
11.9694
12.3633
12.7235
13.035
13.2745
13.4027
13.35
12.9802
12.0039
9.76488
4.82014
10.171
10.5099
10.8396
11.1529
11.4412
11.6934
11.8942
12.0221
12.0442
11.9092
11.5323
10.7682
9.36373
6.89751
2.82325
10.1183
10.351
10.5716
10.7709
10.938
11.0591
11.1157
11.0825
10.923
10.5836
9.98339
9.00088
7.46082
5.1468
1.91818
10.0684
10.2005
10.3184
10.4113
10.4668
10.4695
10.3995
10.2305
9.92669
9.43897
8.69995
7.62069
6.09533
4.03119
1.43512
10.0217
10.0599
10.0824
10.0777
10.0323
9.93033
9.75196
9.472
9.05809
8.46884
7.65275
6.55026
5.10394
3.28495
1.14247
9.97855
9.93024
9.86543
9.77217
9.637
9.4442
9.17497
8.80653
8.31122
7.6562
6.80438
5.71856
4.37132
2.76334
0.948736
9.93915
9.81199
9.66817
9.49578
9.28172
9.01112
8.66686
8.22912
7.67523
6.98018
6.11848
5.0684
3.81973
2.38521
0.812544
9.90356
9.70531
9.49072
9.24832
8.96568
8.62917
8.22364
7.73235
7.13724
6.41986
5.56336
4.55612
3.39718
2.10301
0.712753
9.87171
9.60996
9.33259
9.02877
8.68704
8.29513
7.83995
7.30765
6.68414
5.95613
5.11292
4.14916
3.06854
1.88752
0.637437
9.84343
9.52544
9.19282
8.83554
8.44322
8.00503
7.5098
6.94626
6.30359
5.57239
4.74616
3.82334
2.80961
1.71997
0.579339
9.81852
9.45108
9.07017
8.66665
8.23123
7.75451
7.22707
6.63981
5.98451
5.25462
4.44647
3.56063
2.60339
1.58783
0.533772
9.79672
9.38608
8.9632
8.51989
8.04793
7.5392
6.98586
6.3806
5.7172
4.9912
4.20072
3.34748
2.43767
1.48242
0.49757
9.77775
9.32958
8.87043
8.39301
7.89014
7.35488
6.78069
6.16175
5.49337
4.77254
3.99854
3.17362
2.3035
1.39755
0.468513
9.76133
9.28071
8.79034
8.28379
7.75484
7.19758
6.60658
5.97721
5.30595
4.59078
3.83171
3.03115
2.1942
1.32872
0.445001
9.74717
9.23862
8.72147
8.19012
7.6392
7.06369
6.45912
5.82177
5.149
4.43951
3.6937
2.91394
2.1047
1.27255
0.42585
9.735
9.20249
8.66246
8.11005
7.54063
6.94999
6.3344
5.69092
5.01754
4.31345
3.57926
2.81719
2.03111
1.2265
0.410169
9.72459
9.17159
8.61205
8.04177
7.45681
6.85359
6.22906
5.58083
4.9074
4.20828
3.48418
2.7371
1.97038
1.18857
0.397272
9.71571
9.14522
8.56908
7.98368
7.38566
6.77199
6.14016
5.48825
4.8151
4.12046
3.40505
2.67065
1.92012
1.15724
0.386628
9.70814
9.12278
8.53255
7.93437
7.32536
6.703
6.06519
5.4104
4.73773
4.04706
3.3391
2.61542
1.87842
1.13129
0.377816
9.70171
9.10371
8.50155
7.89256
7.27434
6.64473
6.00202
5.34496
4.67285
3.98567
3.28407
2.56942
1.84375
1.10974
0.370505
9.69625
9.08754
8.47527
7.85718
7.23121
6.59557
5.94882
5.28996
4.61844
3.93429
3.2381
2.53106
1.81489
1.09181
0.364425
9.69163
9.07385
8.45304
7.82726
7.19479
6.55411
5.90404
5.24374
4.57279
3.89126
3.19968
2.49904
1.79082
1.07688
0.359362
9.68772
9.06228
8.43425
7.802
7.16407
6.51918
5.86636
5.2049
4.5345
3.85522
3.16753
2.47229
1.77073
1.06442
0.35514
9.68441
9.0525
8.41838
7.78068
7.13817
6.48977
5.83466
5.17228
4.50237
3.82502
3.14062
2.44992
1.75395
1.05401
0.351616
9.68162
9.04424
8.405
7.76272
7.11635
6.46502
5.80801
5.14488
4.47542
3.79971
3.11809
2.4312
1.73991
1.04532
0.348671
9.67927
9.03729
8.39372
7.74758
7.09799
6.44419
5.78562
5.12188
4.45281
3.77849
3.09922
2.41554
1.72817
1.03805
0.34621
9.67729
9.03143
8.38423
7.73485
7.08255
6.42669
5.76681
5.10257
4.43385
3.76071
3.08342
2.40242
1.71835
1.03197
0.344151
9.67563
9.0265
8.37624
7.72414
7.06957
6.412
5.75102
5.08637
4.41795
3.74581
3.07019
2.39145
1.71014
1.02688
0.34243
9.67423
9.02236
8.36953
7.71515
7.05867
6.39966
5.73778
5.07279
4.40463
3.73334
3.05911
2.38227
1.70326
1.02263
0.340991
9.67305
9.01889
8.36391
7.70761
7.04954
6.38933
5.72668
5.06143
4.39348
3.7229
3.04985
2.3746
1.69752
1.01908
0.339788
9.67207
9.01598
8.35919
7.70129
7.0419
6.38068
5.71741
5.05192
4.38417
3.71418
3.04212
2.36819
1.69273
1.01611
0.338785
9.67125
9.01355
8.35526
7.69602
7.03551
6.37346
5.70966
5.04399
4.3764
3.70692
3.03567
2.36285
1.68873
1.01364
0.337949
9.67056
9.01152
8.35198
7.69163
7.0302
6.36745
5.70322
5.0374
4.36994
3.70087
3.03031
2.35841
1.68542
1.01159
0.337254
9.67
9.00984
8.34927
7.688
7.0258
6.36248
5.69789
5.03194
4.36459
3.69587
3.02588
2.35474
1.68267
1.00989
0.33668
9.66953
9.00846
8.34703
7.685
7.02218
6.35838
5.6935
5.02745
4.36019
3.69176
3.02223
2.35173
1.68041
1.0085
0.336208
9.66915
9.00734
8.34521
7.68256
7.01922
6.35505
5.68993
5.02379
4.35661
3.68841
3.01926
2.34927
1.67858
1.00736
0.335824
9.66884
9.00643
8.34375
7.6806
7.01685
6.35237
5.68706
5.02085
4.35373
3.68573
3.01688
2.3473
1.6771
1.00645
0.335516
9.6686
9.00572
8.3426
7.67907
7.01499
6.35027
5.6848
5.01855
4.35148
3.68362
3.01501
2.34575
1.67595
1.00574
0.335274
9.66842
9.00519
8.34173
7.6779
7.01359
6.34868
5.6831
5.01681
4.34977
3.68202
3.0136
2.34459
1.67508
1.0052
0.335092
9.66829
9.00481
8.34111
7.67708
7.01259
6.34756
5.6819
5.01557
4.34857
3.6809
3.01261
2.34376
1.67446
1.00482
0.334962
9.66821
9.00458
8.34074
7.67657
7.01198
6.34686
5.68116
5.01481
4.34783
3.6802
3.01199
2.34325
1.67408
1.00458
0.334883
9.66818
9.00448
8.34058
7.67637
7.01173
6.34658
5.68085
5.01451
4.34752
3.67992
3.01174
2.34304
1.67392
1.00449
0.33485
9.6682
9.00452
8.34065
7.67646
7.01184
6.3467
5.68098
5.01464
4.34765
3.68004
3.01185
2.34313
1.67399
1.00453
0.334864
9.66826
9.0047
8.34093
7.67684
7.0123
6.34723
5.68154
5.01521
4.34821
3.68057
3.01231
2.34352
1.67428
1.0047
0.334924
9.66836
9.00502
8.34145
7.67753
7.01314
6.34817
5.68256
5.01625
4.34923
3.68151
3.01315
2.34421
1.6748
1.00502
0.335033
9.66852
9.00549
8.34222
7.67855
7.01437
6.34957
5.68405
5.01778
4.35072
3.68291
3.01439
2.34524
1.67556
1.0055
0.335193
9.66874
9.00613
8.34325
7.67994
7.01605
6.35146
5.68607
5.01985
4.35275
3.6848
3.01607
2.34662
1.6766
1.00614
0.33541
9.66902
9.00695
8.34458
7.68172
7.0182
6.35389
5.68869
5.02252
4.35536
3.68725
3.01823
2.34841
1.67794
1.00697
0.33569
9.66937
9.00798
8.34625
7.68396
7.02091
6.35695
5.69196
5.02587
4.35865
3.69032
3.02095
2.35066
1.67962
1.00801
0.336042
9.6698
9.00926
8.34831
7.68672
7.02425
6.36073
5.69601
5.03001
4.3627
3.6941
3.02431
2.35344
1.6817
1.00929
0.336476
9.67032
9.01081
8.35083
7.69009
7.02833
6.36533
5.70094
5.03506
4.36764
3.69873
3.0284
2.35683
1.68423
1.01086
0.337006
9.67096
9.01269
8.35387
7.69416
7.03326
6.3709
5.70692
5.04117
4.37363
3.70432
3.03336
2.36094
1.6873
1.01276
0.337649
9.67172
9.01495
8.35753
7.69906
7.03919
6.37761
5.71411
5.04854
4.38084
3.71107
3.03934
2.36589
1.691
1.01505
0.338423
9.67264
9.01766
8.36192
7.70494
7.04631
6.38566
5.72274
5.05737
4.3895
3.71916
3.04652
2.37184
1.69545
1.0178
0.339354
9.67374
9.0209
8.36717
7.71197
7.05482
6.39529
5.73306
5.06795
4.39986
3.72886
3.05512
2.37896
1.70078
1.02109
0.340469
9.67504
9.02477
8.37343
7.72036
7.06498
6.40678
5.7454
5.08058
4.41225
3.74045
3.06541
2.38748
1.70716
1.02504
0.341804
9.6766
9.02938
8.38089
7.73037
7.07709
6.42049
5.76011
5.09567
4.42704
3.7543
3.0777
2.39767
1.71478
1.02975
0.3434
9.67845
9.03486
8.38977
7.74227
7.09152
6.43683
5.77765
5.11365
4.44468
3.77083
3.09238
2.40983
1.72389
1.03539
0.345308
9.68066
9.04137
8.40033
7.75643
7.10869
6.45627
5.79854
5.13508
4.46572
3.79055
3.10989
2.42436
1.73477
1.04212
0.347587
9.68327
9.04911
8.41288
7.77326
7.1291
6.4794
5.82341
5.16061
4.4908
3.81407
3.1308
2.44171
1.74776
1.05017
0.350312
9.68638
9.0583
8.42776
7.79324
7.15335
6.5069
5.853
5.19102
4.52069
3.84212
3.15575
2.46243
1.76329
1.05979
0.353568
9.69005
9.06918
8.44542
7.81695
7.18214
6.53958
5.88819
5.22721
4.55631
3.87557
3.18554
2.48718
1.78185
1.07129
0.357464
9.69441
9.08208
8.46635
7.84507
7.21631
6.57841
5.93003
5.27029
4.59875
3.91549
3.22111
2.51676
1.80405
1.08505
0.362126
9.69956
9.09734
8.49112
7.87838
7.25683
6.62449
5.97977
5.32157
4.64933
3.96312
3.26361
2.55213
1.83063
1.10153
0.367712
9.70565
9.11538
8.52042
7.91781
7.30485
6.67917
6.03887
5.38259
4.70962
4.01997
3.31441
2.59448
1.86247
1.12129
0.374412
9.71284
9.13667
8.55502
7.96443
7.36169
6.744
6.10906
5.45519
4.78149
4.08788
3.37519
2.64522
1.90066
1.14502
0.38246
9.7213
9.16176
8.59584
8.01948
7.42892
6.82081
6.19238
5.54157
4.86719
4.16902
3.44797
2.70609
1.94655
1.17356
0.392143
9.73126
9.19128
8.64391
8.0844
7.50833
6.91173
6.29124
5.64432
4.96939
4.26605
3.53521
2.77921
2.00177
1.20795
0.40382
9.74293
9.22594
8.70039
8.16081
7.60199
7.01923
6.40846
5.76651
5.09132
4.38217
3.63993
2.86721
2.06838
1.24948
0.417935
9.7566
9.26652
8.76663
8.25057
7.71227
7.14616
6.54732
5.91179
5.23682
4.52125
3.76581
2.97334
2.14892
1.2998
0.435052
9.77256
9.31392
8.8441
8.35576
7.84187
7.29582
6.71167
6.08443
5.4105
4.68803
3.9174
3.10164
2.2466
1.36098
0.455887
9.79111
9.3691
8.93441
8.47869
7.9938
7.47193
6.90591
6.2895
5.61788
4.88823
4.10034
3.25721
2.36552
1.43566
0.481364
9.81261
9.43307
9.03932
8.62188
8.17139
7.6787
7.13514
6.5329
5.86556
5.12887
4.32161
3.4465
2.51093
1.52733
0.51269
9.83739
9.50692
9.16066
8.78801
8.37827
7.92078
7.40512
6.82148
6.16138
5.41851
4.59001
3.67776
2.6897
1.64053
0.551476
9.86582
9.59173
9.30034
8.97988
8.6183
8.20326
7.72228
7.16316
6.51465
5.7676
4.91654
3.96166
2.91089
1.78144
0.599908
9.89824
9.68854
9.46018
9.20029
8.89544
8.5315
8.09369
7.56689
6.93634
6.18891
5.31515
4.31213
3.18671
1.95852
0.661033
9.93495
9.79832
9.64191
9.45192
9.2136
8.91102
8.52688
8.04266
7.43917
6.69791
5.80351
4.74758
3.53388
2.18371
0.739226
9.97619
9.92181
9.84696
9.73709
9.57638
9.34716
9.02955
8.60123
8.03765
7.31324
6.40403
5.29259
3.97579
2.47439
0.841003
10.0221
10.0595
10.0763
10.0576
9.98669
9.84465
9.60908
9.25369
8.74779
8.05688
7.14494
5.98019
4.54588
2.85672
0.976539
10.0727
10.2116
10.3303
10.4142
10.4464
10.4071
10.2718
10.0106
9.58638
8.95398
8.0614
6.85495
5.29292
3.3717
1.16269
10.1279
10.3776
10.6085
10.8067
10.9558
11.036
11.0219
10.8808
10.5695
10.0317
9.19577
7.97661
6.28936
4.08652
1.42964
10.1873
10.5566
10.9094
11.2332
11.5131
11.7304
11.8602
11.869
11.7098
11.3165
10.5962
9.4233
7.64382
5.11661
1.83713
10.2505
10.7471
11.2304
11.6902
12.1139
12.4854
12.7826
12.9739
13.0127
12.8282
12.3109
11.2911
9.51749
6.66908
2.51877
10.3166
10.9468
11.5677
12.1721
12.7509
13.2921
13.7784
14.1845
14.4705
14.571
14.3745
13.6824
12.1375
9.12559
3.81652
10.3848
11.1529
11.9165
12.6718
13.414
14.1367
14.83
15.4785
16.0569
16.5201
16.7821
16.6659
15.776
13.1773
6.7281
10.454
11.3623
12.271
13.1804
14.0907
15.0016
15.9124
16.8212
17.7234
18.6087
19.4522
20.1866
20.6011
19.9029
14.5056
10.5231
11.5712
12.6249
13.6885
14.7669
15.8666
16.9963
18.1683
19.4014
20.7262
22.198
23.9293
26.1987
29.8917
38.6814
10.591
11.7763
12.972
14.1861
15.4282
16.7107
18.0507
19.4729
21.0155
22.7416
24.7634
27.2981
30.8075
36.3409
46.2373
10.6564
11.974
13.3063
14.6643
16.0614
17.5148
19.0479
20.6937
22.5021
24.5516
26.9722
29.99
34.0105
39.76
48.4358
0.869582
1.55738
1.85672
1.96748
1.96864
1.89903
1.78075
1.6277
1.4492
1.25185
1.04048
0.8188
0.589746
0.355743
0.118891
0.46631
1.06707
1.404
1.56998
1.62417
1.60225
1.52656
1.41179
1.26808
1.10274
0.921191
0.727652
0.525492
0.317525
0.106207
0.293491
0.759957
1.06997
1.2501
1.33253
1.3428
1.29948
1.21595
1.10197
0.964861
0.810218
0.64248
0.465264
0.281631
0.0942827
0.20436
0.561484
0.826119
0.998036
1.09098
1.12055
1.10032
1.04124
0.95192
0.839145
0.70833
0.563883
0.409487
0.248314
0.0832021
0.151055
0.427234
0.646647
0.800803
0.893436
0.932858
0.928124
0.887517
0.818142
0.725946
0.615898
0.492188
0.35841
0.217729
0.0730179
0.115756
0.332399
0.512483
0.646285
0.732831
0.775821
0.780825
0.75376
0.7002
0.625135
0.532947
0.427477
0.312121
0.189939
0.0637528
0.0907795
0.262948
0.410453
0.524576
0.602462
0.645152
0.655787
0.638394
0.597183
0.536206
0.459212
0.369626
0.27057
0.164927
0.055403
0.0723232
0.210622
0.3316
0.428025
0.496527
0.536735
0.550205
0.539558
0.507884
0.458392
0.394217
0.318345
0.233589
0.142609
0.0479428
0.0582742
0.17032
0.269794
0.350858
0.410236
0.446879
0.461364
0.455317
0.430954
0.390768
0.33734
0.273229
0.200928
0.122847
0.0413292
0.0473513
0.138746
0.220769
0.288745
0.339727
0.372403
0.386775
0.38379
0.365005
0.332334
0.287876
0.233799
0.172278
0.105471
0.035507
0.0387247
0.11368
0.181496
0.23843
0.281928
0.310634
0.324236
0.32323
0.308693
0.282083
0.245089
0.199533
0.147297
0.0902864
0.0304134
0.0318298
0.0935698
0.149776
0.197443
0.234396
0.259349
0.271835
0.272063
0.260763
0.239038
0.208246
0.169904
0.125628
0.0770884
0.0259817
0.0262674
0.0773012
0.123985
0.163893
0.195194
0.21672
0.227944
0.228897
0.220067
0.202287
0.176642
0.144393
0.10692
0.065672
0.0221447
0.0217469
0.0640521
0.102899
0.136318
0.162777
0.181241
0.191181
0.192523
0.185585
0.170994
0.149621
0.12251
0.0908307
0.0558375
0.0188366
0.0180516
0.0532037
0.0855803
0.113576
0.135909
0.15168
0.160387
0.161898
0.156413
0.14441
0.126582
0.103796
0.0770421
0.0473967
0.0159952
0.0150165
0.0442822
0.0713028
0.094764
0.113596
0.127024
0.134587
0.136127
0.131767
0.121867
0.106985
0.0878377
0.06526
0.0401747
0.0135624
0.0125142
0.036919
0.0594963
0.0791656
0.095034
0.106439
0.112966
0.114453
0.110967
0.102783
0.0903494
0.0742599
0.0552186
0.0340124
0.0114854
0.0104446
0.0308243
0.0497085
0.0662058
0.0795706
0.0892386
0.0948457
0.096231
0.0934282
0.0866472
0.0762512
0.0627311
0.0466797
0.028767
0.00971658
0.00872874
0.0257679
0.0415776
0.0554204
0.0666734
0.0748576
0.0796554
0.0809159
0.0786506
0.073021
0.0643215
0.0529592
0.0394328
0.0243114
0.00821337
0.00730325
0.0215649
0.0348119
0.0464327
0.0559064
0.0628272
0.0669204
0.0680482
0.0662083
0.0615258
0.0542401
0.0446894
0.033293
0.0205335
0.00693836
0.00611715
0.0180662
0.0291751
0.0389356
0.0469114
0.0527596
0.0562438
0.0572404
0.0557392
0.0518375
0.0457309
0.0377006
0.0280994
0.0173358
0.00585876
0.00512909
0.0151505
0.0244745
0.0326772
0.0393933
0.0443331
0.0472939
0.0481665
0.0469364
0.0436798
0.038557
0.0318024
0.0237125
0.0146333
0.0049461
0.00430536
0.0127191
0.0205521
0.0274506
0.0331083
0.0372802
0.0397934
0.0405522
0.0395401
0.0368174
0.0325158
0.026831
0.0200124
0.0123527
0.00417576
0.00361837
0.0106908
0.0172785
0.0230855
0.0278545
0.0313788
0.0335108
0.0341672
0.0333313
0.0310509
0.0274348
0.0226465
0.0168962
0.0104313
0.00352657
0.00304544
0.00899887
0.0145467
0.0194408
0.0234647
0.0264438
0.0282523
0.0288182
0.0281252
0.0262115
0.0231674
0.0191299
0.0142759
0.00881507
0.00298043
0.00256794
0.00758852
0.0122688
0.0164002
0.0198003
0.0223213
0.0238563
0.0243431
0.0237663
0.0221568
0.0195897
0.0161799
0.012077
0.00745833
0.00252189
0.00217047
0.0064144
0.0103719
0.0138671
0.016746
0.0188834
0.020188
0.0206063
0.0201242
0.0187668
0.0165968
0.0137111
0.010236
0.00632217
0.00213785
0.00184036
0.00543911
0.00879584
0.0117618
0.0142065
0.0160235
0.0171348
0.0174945
0.0170896
0.0159409
0.0141008
0.0116513
0.00869958
0.00537378
0.00181725
0.00156713
0.00463182
0.00749103
0.0100184
0.0121028
0.0136533
0.0146034
0.0149133
0.0145714
0.0135948
0.0120279
0.00994007
0.00742284
0.00458553
0.00155076
0.00134219
0.00396716
0.00641659
0.00858242
0.0103695
0.0117
0.0125165
0.0127845
0.0124938
0.0116586