/*--------------------------------*- C++ -*----------------------------------*\
| =========                 |                                                 |
| \\      /  F ield         | OpenFOAM: The Open Source CFD Toolbox           |
|  \\    /   O peration     | Version:  5.x                                   |
|   \\  /    A nd           | Web:      www.OpenFOAM.org                      |
|    \\/     M anipulation  |                                                 |
\*---------------------------------------------------------------------------*/
FoamFile
{
    version     2.0;
    format      ascii;
    class       volScalarField;
    location    "0.2001";
    object      gradTy;
}
// * * * * * * * * * * * * * * * * * * * * * * * * * * * * * * * * * * * * * //

dimensions      [0 -1 0 1 0 0 0];

internalField   nonuniform List<scalar> 
2048
(
-30.0792
-30.0618
-30.0278
-29.9784
-29.9158
-29.8422
-29.7601
-29.672
-29.5801
-29.4865
-29.3931
-29.3013
-29.2123
-29.1271
-29.0464
-28.9707
-28.9002
-28.8352
-28.7756
-28.7214
-28.6725
-28.6286
-28.5894
-28.5547
-28.5242
-28.4977
-28.4747
-28.4551
-28.4387
-28.4252
-28.4145
-28.4064
-28.4009
-28.3978
-28.3972
-28.399
-28.4034
-28.4104
-28.4202
-28.4329
-28.4487
-28.4679
-28.4908
-28.5177
-28.5489
-28.5847
-28.6255
-28.6714
-28.7226
-28.7793
-28.8412
-28.9082
-28.9795
-29.0543
-29.1314
-29.2093
-29.2861
-29.3598
-29.4283
-29.4894
-29.5411
-29.5816
-29.6094
-29.6236
-30.0908
-30.0727
-30.0375
-29.9866
-29.9221
-29.8464
-29.7623
-29.6722
-29.5785
-29.4834
-29.3887
-29.2958
-29.2061
-29.1202
-29.0391
-28.963
-28.8923
-28.8272
-28.7676
-28.7135
-28.6646
-28.6209
-28.5819
-28.5474
-28.5171
-28.4907
-28.4679
-28.4485
-28.4322
-28.4188
-28.4081
-28.4001
-28.3946
-28.3916
-28.3909
-28.3927
-28.397
-28.4039
-28.4135
-28.426
-28.4416
-28.4606
-28.4833
-28.5099
-28.5409
-28.5765
-28.617
-28.6628
-28.714
-28.7708
-28.833
-28.9004
-28.9725
-29.0483
-29.1267
-29.206
-29.2845
-29.36
-29.4302
-29.493
-29.5461
-29.5878
-29.6164
-29.631
-30.1131
-30.0938
-30.0563
-30.0022
-29.934
-29.8544
-29.7663
-29.6724
-29.5754
-29.4774
-29.3802
-29.2854
-29.1941
-29.1071
-29.025
-28.9483
-28.8773
-28.812
-28.7524
-28.6984
-28.6498
-28.6063
-28.5676
-28.5335
-28.5035
-28.4775
-28.455
-28.4359
-28.4198
-28.4066
-28.3962
-28.3883
-28.3828
-28.3798
-28.3791
-28.3808
-28.3849
-28.3915
-28.4009
-28.413
-28.4283
-28.4469
-28.4691
-28.4952
-28.5257
-28.5608
-28.601
-28.6465
-28.6976
-28.7545
-28.8173
-28.8856
-28.9591
-29.0368
-29.1175
-29.1997
-29.2814
-29.3603
-29.4339
-29.4999
-29.5559
-29.5998
-29.63
-29.6454
-30.1455
-30.1245
-30.0835
-30.0247
-29.951
-29.8656
-29.7717
-29.6725
-29.5707
-29.4685
-29.368
-29.2704
-29.1769
-29.0882
-29.005
-28.9275
-28.8559
-28.7904
-28.7308
-28.677
-28.6288
-28.5857
-28.5476
-28.5139
-28.4845
-28.4589
-28.4369
-28.4182
-28.4025
-28.3896
-28.3793
-28.3716
-28.3662
-28.3632
-28.3624
-28.364
-28.3679
-28.3742
-28.3831
-28.3948
-28.4095
-28.4275
-28.449
-28.4745
-28.5043
-28.5387
-28.5783
-28.6233
-28.6743
-28.7314
-28.7948
-28.8643
-28.9397
-29.0201
-29.1042
-29.1905
-29.2769
-29.3607
-29.4393
-29.51
-29.5701
-29.6173
-29.6498
-29.6664
-30.1879
-30.1644
-30.1188
-30.0538
-29.9727
-29.8796
-29.7782
-29.672
-29.5641
-29.4568
-29.352
-29.2511
-29.1549
-29.0643
-28.9796
-28.9011
-28.829
-28.7632
-28.7037
-28.6502
-28.6024
-28.56
-28.5225
-28.4895
-28.4607
-28.4358
-28.4143
-28.3961
-28.3809
-28.3684
-28.3584
-28.3509
-28.3456
-28.3426
-28.3417
-28.3431
-28.3467
-28.3527
-28.3611
-28.3722
-28.3862
-28.4034
-28.4241
-28.4486
-28.4774
-28.511
-28.5498
-28.5942
-28.6448
-28.702
-28.7661
-28.8371
-28.9148
-28.9985
-29.087
-29.1786
-29.2709
-29.3612
-29.4464
-29.5232
-29.5886
-29.6402
-29.6756
-29.6938
-30.2403
-30.2136
-30.162
-30.0889
-29.9987
-29.8959
-29.7852
-29.6706
-29.5554
-29.4421
-29.3324
-29.2276
-29.1285
-29.0356
-28.9493
-28.8697
-28.797
-28.7311
-28.6717
-28.6186
-28.5714
-28.5297
-28.493
-28.4609
-28.4329
-28.4087
-28.388
-28.3704
-28.3557
-28.3436
-28.334
-28.3267
-28.3216
-28.3186
-28.3176
-28.3188
-28.322
-28.3275
-28.3354
-28.3458
-28.3589
-28.3752
-28.3949
-28.4183
-28.446
-28.4784
-28.5162
-28.5597
-28.6098
-28.6669
-28.7316
-28.8042
-28.8845
-28.9721
-29.0658
-29.1638
-29.2635
-29.3618
-29.455
-29.5395
-29.6116
-29.6684
-29.7076
-29.7276
-30.303
-30.2722
-30.2132
-30.1301
-30.0284
-29.914
-29.7922
-29.6678
-29.5443
-29.4242
-29.3091
-29.2002
-29.0979
-29.0026
-28.9146
-28.8339
-28.7606
-28.6945
-28.6354
-28.5829
-28.5365
-28.4957
-28.4599
-28.4288
-28.4017
-28.3784
-28.3584
-28.3415
-28.3274
-28.3159
-28.3067
-28.2997
-28.2947
-28.2917
-28.2907
-28.2916
-28.2945
-28.2994
-28.3066
-28.3162
-28.3285
-28.3437
-28.3621
-28.3843
-28.4107
-28.4417
-28.4781
-28.5206
-28.5698
-28.6266
-28.6918
-28.7659
-28.849
-28.941
-29.0406
-29.1461
-29.2546
-29.3624
-29.4653
-29.559
-29.6391
-29.7022
-29.7457
-29.7679
-30.3763
-30.3405
-30.2723
-30.1769
-30.0615
-29.9333
-29.7987
-29.6632
-29.5304
-29.4029
-29.2822
-29.1689
-29.0633
-28.9656
-28.8758
-28.7941
-28.7202
-28.654
-28.5953
-28.5435
-28.498
-28.4583
-28.4237
-28.3937
-28.3677
-28.3454
-28.3263
-28.3102
-28.2967
-28.2857
-28.277
-28.2703
-28.2655
-28.2626
-28.2614
-28.2621
-28.2646
-28.269
-28.2754
-28.2841
-28.2953
-28.3093
-28.3265
-28.3472
-28.3721
-28.4015
-28.4363
-28.4773
-28.5254
-28.5816
-28.6469
-28.7224
-28.8084
-28.905
-29.0113
-29.1253
-29.2439
-29.3629
-29.4773
-29.5817
-29.6712
-29.7417
-29.7901
-29.8147
-30.4609
-30.419
-30.3395
-30.2293
-30.0976
-29.9532
-29.804
-29.656
-29.5133
-29.3781
-29.2515
-29.1339
-29.025
-28.9249
-28.8335
-28.7506
-28.6762
-28.6101
-28.5519
-28.501
-28.4567
-28.4182
-28.385
-28.3562
-28.3314
-28.3101
-28.292
-28.2767
-28.264
-28.2537
-28.2454
-28.239
-28.2345
-28.2316
-28.2303
-28.2307
-28.2328
-28.2365
-28.2422
-28.25
-28.26
-28.2728
-28.2885
-28.3076
-28.3307
-28.3584
-28.3913
-28.4305
-28.477
-28.5321
-28.5973
-28.6738
-28.7627
-28.8642
-28.9777
-29.1012
-29.2314
-29.3633
-29.491
-29.608
-29.7082
-29.7869
-29.8408
-29.8683
-30.5576
-30.5082
-30.4149
-30.287
-30.136
-29.973
-29.8073
-29.6457
-29.4925
-29.3494
-29.2172
-29.0953
-28.9834
-28.8809
-28.7878
-28.7039
-28.6291
-28.5632
-28.5056
-28.4558
-28.4129
-28.3759
-28.3441
-28.3167
-28.2932
-28.2731
-28.256
-28.2416
-28.2297
-28.22
-28.2123
-28.2063
-28.202
-28.1992
-28.1978
-28.1979
-28.1995
-28.2026
-28.2075
-28.2142
-28.2231
-28.2344
-28.2486
-28.266
-28.2872
-28.3128
-28.3436
-28.3806
-28.4251
-28.4787
-28.5432
-28.6203
-28.7117
-28.8182
-28.9394
-29.0735
-29.2167
-29.3634
-29.5064
-29.6378
-29.7503
-29.8383
-29.8982
-29.9285
-30.6673
-30.6087
-30.4988
-30.3497
-30.1761
-29.9918
-29.8078
-29.6317
-29.4675
-29.3168
-29.1791
-29.0534
-28.9386
-28.834
-28.7392
-28.6543
-28.5792
-28.5135
-28.4568
-28.4083
-28.367
-28.3318
-28.3016
-28.2758
-28.2536
-28.2347
-28.2187
-28.2053
-28.1942
-28.1852
-28.1781
-28.1725
-28.1684
-28.1657
-28.1642
-28.164
-28.1651
-28.1676
-28.1716
-28.1773
-28.1849
-28.1947
-28.2073
-28.2229
-28.242
-28.2654
-28.2937
-28.3282
-28.3702
-28.4217
-28.4848
-28.5621
-28.6556
-28.7669
-28.8962
-29.0418
-29.1996
-29.3631
-29.5236
-29.6716
-29.7978
-29.8959
-29.9622
-29.9956
-30.7911
-30.7213
-30.5914
-30.4171
-30.2171
-30.0086
-29.8046
-29.6131
-29.4381
-29.28
-29.1375
-29.0083
-28.891
-28.7844
-28.6881
-28.6022
-28.5267
-28.4615
-28.4059
-28.359
-28.3195
-28.2862
-28.2579
-28.2337
-28.213
-28.1953
-28.1804
-28.168
-28.1578
-28.1496
-28.143
-28.1379
-28.1341
-28.1314
-28.1299
-28.1294
-28.13
-28.1318
-28.1349
-28.1395
-28.1457
-28.1541
-28.1649
-28.1786
-28.1956
-28.2166
-28.2422
-28.2737
-28.3127
-28.3614
-28.4225
-28.4991
-28.5942
-28.71
-28.8476
-29.0056
-29.1796
-29.3621
-29.5427
-29.7095
-29.8512
-29.9602
-30.033
-30.0694
-30.9302
-30.8469
-30.6928
-30.4886
-30.2582
-30.0226
-29.7967
-29.5893
-29.4037
-29.239
-29.0924
-28.9605
-28.841
-28.7325
-28.6347
-28.5478
-28.472
-28.4074
-28.3531
-28.308
-28.2707
-28.2396
-28.2133
-28.1908
-28.1716
-28.1552
-28.1414
-28.13
-28.1208
-28.1134
-28.1074
-28.1028
-28.0992
-28.0967
-28.095
-28.0943
-28.0945
-28.0956
-28.0977
-28.1011
-28.106
-28.1129
-28.1219
-28.1336
-28.1484
-28.1668
-28.1895
-28.2177
-28.2532
-28.2984
-28.3565
-28.4316
-28.5274
-28.6474
-28.7934
-28.9646
-29.1563
-29.3602
-29.5637
-29.752
-29.9108
-30.0313
-30.1106
-30.1497
-31.0861
-30.9862
-30.8032
-30.5637
-30.2981
-30.0323
-29.7832
-29.5595
-29.3639
-29.1937
-29.0441
-28.9102
-28.7889
-28.6788
-28.5794
-28.4914
-28.4154
-28.3514
-28.2986
-28.2558
-28.2209
-28.1923
-28.1681
-28.1475
-28.1298
-28.1147
-28.102
-28.0917
-28.0834
-28.0768
-28.0716
-28.0674
-28.0641
-28.0617
-28.06
-28.059
-28.0587
-28.0591
-28.0603
-28.0625
-28.066
-28.0712
-28.0785
-28.0882
-28.1007
-28.1164
-28.136
-28.1606
-28.192
-28.2329
-28.2872
-28.3597
-28.4553
-28.5788
-28.733
-28.9181
-29.1293
-29.357
-29.5868
-29.7996
-29.9773
-30.1095
-30.1947
-30.2362
-31.2604
-31.1403
-30.9228
-30.6417
-30.3357
-30.0367
-29.7629
-29.523
-29.3185
-29.1443
-28.9929
-28.8578
-28.7352
-28.6236
-28.5225
-28.4332
-28.357
-28.2938
-28.2429
-28.2025
-28.1705
-28.1446
-28.1228
-28.1041
-28.0879
-28.074
-28.0624
-28.0531
-28.0459
-28.0402
-28.0356
-28.032
-28.029
-28.0267
-28.0249
-28.0236
-28.0228
-28.0225
-28.0228
-28.0238
-28.026
-28.0295
-28.035
-28.0426
-28.0528
-28.0659
-28.0822
-28.1028
-28.1296
-28.1655
-28.2148
-28.2835
-28.3779
-28.5039
-28.666
-28.8657
-29.098
-29.3522
-29.6119
-29.853
-30.0513
-30.1952
-30.2854
-30.3284
-31.4548
-31.3102
-31.0516
-30.7216
-30.3695
-30.0343
-29.7349
-29.4791
-29.2671
-29.0908
-28.9394
-28.8039
-28.6804
-28.5674
-28.4644
-28.3735
-28.297
-28.2349
-28.1859
-28.1485
-28.1198
-28.0969
-28.0775
-28.0607
-28.0461
-28.0334
-28.0228
-28.0146
-28.0084
-28.0036
-27.9998
-27.9966
-27.994
-27.9918
-27.9899
-27.9884
-27.9872
-27.9862
-27.9855
-27.9853
-27.986
-27.9879
-27.9915
-27.9972
-28.0052
-28.0155
-28.0284
-28.0449
-28.0666
-28.0965
-28.1398
-28.2035
-28.2952
-28.4225
-28.5919
-28.8066
-29.0617
-29.3453
-29.6392
-29.913
-30.1338
-30.2887
-30.3822
-30.4255
-31.6714
-31.4969
-31.1897
-30.8023
-30.3976
-30.0237
-29.698
-29.427
-29.2096
-29.0335
-28.8839
-28.7489
-28.6249
-28.5107
-28.4053
-28.3123
-28.2356
-28.1746
-28.1279
-28.0939
-28.0689
-28.0494
-28.0326
-28.0177
-28.0046
-27.9929
-27.9832
-27.9761
-27.971
-27.9673
-27.9642
-27.9616
-27.9593
-27.9572
-27.9553
-27.9535
-27.9519
-27.9503
-27.9486
-27.9472
-27.9464
-27.9466
-27.9484
-27.9521
-27.9579
-27.9656
-27.9751
-27.9872
-28.0034
-28.0266
-28.0626
-28.1197
-28.2073
-28.3345
-28.5101
-28.7404
-29.0198
-29.3353
-29.6687
-29.9807
-30.226
-30.3904
-30.4848
-30.5268
-31.9126
-31.7013
-31.3371
-30.8825
-30.4181
-30.0035
-29.6515
-29.366
-29.1458
-28.9728
-28.8273
-28.6935
-28.5691
-28.4539
-28.3455
-28.2498
-28.173
-28.1133
-28.0691
-28.0389
-28.0182
-28.0025
-27.9883
-27.9753
-27.9636
-27.9528
-27.9439
-27.9379
-27.934
-27.9314
-27.9291
-27.9269
-27.925
-27.923
-27.921
-27.9191
-27.9171
-27.9148
-27.9122
-27.9095
-27.9072
-27.9058
-27.9057
-27.9074
-27.9113
-27.9166
-27.9225
-27.9302
-27.9406
-27.9561
-27.9836
-28.0325
-28.1145
-28.2398
-28.4202
-28.6664
-28.9717
-29.3213
-29.7001
-30.0577
-30.3292
-30.5004
-30.5923
-30.6311
-32.1811
-31.924
-31.4941
-30.9607
-30.4282
-29.9725
-29.5945
-29.2953
-29.0757
-28.9092
-28.7704
-28.6381
-28.5134
-28.3976
-28.2852
-28.1858
-28.1091
-28.051
-28.0094
-27.9838
-27.968
-27.9565
-27.9448
-27.9335
-27.9233
-27.9132
-27.9049
-27.9
-27.8975
-27.8961
-27.8945
-27.8928
-27.8912
-27.8893
-27.8873
-27.8852
-27.8829
-27.88
-27.8765
-27.8725
-27.8686
-27.8656
-27.8637
-27.8634
-27.8655
-27.8685
-27.871
-27.8742
-27.8786
-27.8857
-27.9031
-27.9422
-28.017
-28.1383
-28.3214
-28.584
-28.9167
-29.3019
-29.7331
-30.146
-30.445
-30.6191
-30.704
-30.737
-32.4799
-32.1653
-31.661
-31.035
-30.425
-29.9296
-29.5265
-29.2142
-28.9994
-28.8432
-28.7144
-28.5834
-28.458
-28.3427
-28.2248
-28.1202
-28.0443
-27.988
-27.949
-27.9287
-27.9185
-27.9117
-27.9024
-27.8927
-27.8839
-27.8741
-27.8661
-27.8625
-27.8616
-27.8615
-27.8606
-27.8594
-27.8581
-27.8563
-27.8542
-27.852
-27.8494
-27.846
-27.8415
-27.8361
-27.8307
-27.826
-27.8223
-27.82
-27.8208
-27.8219
-27.8207
-27.8196
-27.8181
-27.8157
-27.8218
-27.8491
-27.9152
-28.0303
-28.213
-28.493
-28.8548
-29.275
-29.767
-30.2484
-30.5757
-30.7466
-30.8188
-30.843
-32.8128
-32.4247
-31.8387
-31.1034
-30.4044
-29.8743
-29.4474
-29.1215
-28.9172
-28.7755
-28.6606
-28.5296
-28.4031
-28.2899
-28.1644
-28.0524
-27.9788
-27.9244
-27.8877
-27.8738
-27.8699
-27.8685
-27.8612
-27.8527
-27.8457
-27.8358
-27.8277
-27.8256
-27.8263
-27.8277
-27.8275
-27.8266
-27.8258
-27.824
-27.8219
-27.8195
-27.8168
-27.8129
-27.8074
-27.8007
-27.7935
-27.7873
-27.7817
-27.7774
-27.7771
-27.7768
-27.7718
-27.7667
-27.7596
-27.7468
-27.7401
-27.7534
-27.8098
-27.916
-28.094
-28.3928
-28.786
-29.2379
-29.8003
-30.3688
-30.7237
-30.8827
-30.9353
-30.9473
-33.1844
-32.6999
-32.029
-31.1637
-30.3613
-29.8069
-29.3575
-29.0157
-28.8295
-28.7067
-28.6109
-28.4772
-28.3482
-28.2406
-28.1043
-27.9819
-27.9128
-27.8606
-27.8254
-27.8194
-27.8225
-27.8275
-27.8212
-27.8136
-27.8089
-27.7983
-27.7895
-27.7892
-27.7918
-27.795
-27.7952
-27.7947
-27.7943
-27.7925
-27.7903
-27.7879
-27.785
-27.7808
-27.7742
-27.7661
-27.7571
-27.7496
-27.7421
-27.7353
-27.7347
-27.7337
-27.7245
-27.7157
-27.7037
-27.6793
-27.6586
-27.6554
-27.7014
-27.7961
-27.963
-28.2834
-28.7116
-29.1866
-29.8308
-30.5127
-30.8916
-31.0269
-31.0518
-31.0483
-33.6007
-32.9867
-32.2352
-31.2134
-30.2887
-29.7288
-29.2576
-28.8947
-28.7373
-28.6371
-28.5677
-28.426
-28.2927
-28.1966
-28.0445
-27.9072
-27.8472
-27.7969
-27.7615
-27.7656
-27.7764
-27.7891
-27.7827
-27.7754
-27.7738
-27.7616
-27.7513
-27.7534
-27.7582
-27.7635
-27.7639
-27.7635
-27.7638
-27.7619
-27.7594
-27.7571
-27.7542
-27.7498
-27.7422
-27.7326
-27.7216
-27.7128
-27.7035
-27.6938
-27.6937
-27.6929
-27.6785
-27.6668
-27.6512
-27.6137
-27.5778
-27.5548
-27.5911
-27.6718
-27.8178
-28.1646
-28.6338
-29.1158
-29.8549
-30.6879
-31.0823
-31.1783
-31.1664
-31.1438
-34.0694
-33.277
-32.4632
-31.2496
-30.1772
-29.6436
-29.1493
-28.755
-28.6421
-28.5667
-28.5343
-28.3759
-28.2349
-28.1605
-27.9853
-27.8265
-27.7827
-27.7338
-27.6955
-27.7129
-27.7316
-27.754
-27.7455
-27.7376
-27.7411
-27.7257
-27.7128
-27.7183
-27.7254
-27.7335
-27.7335
-27.733
-27.7343
-27.7321
-27.7295
-27.7271
-27.7244
-27.72
-27.7112
-27.7002
-27.6869
-27.6772
-27.6661
-27.6524
-27.6539
-27.6549
-27.6338
-27.6199
-27.6031
-27.5503
-27.4985
-27.4513
-27.4798
-27.5448
-27.6554
-28.0365
-28.5574
-29.0182
-29.8668
-30.9054
-31.2987
-31.3352
-31.277
-31.2321
-34.6009
-33.5573
-32.7232
-31.2692
-30.0138
-29.5576
-29.0349
-28.5915
-28.5468
-28.4946
-28.5153
-28.3258
-28.1725
-28.1362
-27.9265
-27.7369
-27.7212
-27.6719
-27.626
-27.6619
-27.688
-27.7233
-27.7093
-27.6999
-27.7112
-27.6907
-27.6735
-27.6842
-27.6936
-27.7051
-27.7041
-27.7033
-27.706
-27.7032
-27.7003
-27.6981
-27.6955
-27.6916
-27.6813
-27.669
-27.6528
-27.6429
-27.6301
-27.6108
-27.6155
-27.6205
-27.5897
-27.5749
-27.5603
-27.4891
-27.4217
-27.3439
-27.3692
-27.4179
-27.4712
-27.8987
-28.4901
-28.8838
-29.8579
-31.1806
-31.5429
-31.4948
-31.381
-31.3114
-35.2095
-33.8056
-33.0311
-31.2687
-29.7808
-29.4813
-28.9175
-28.3967
-28.4561
-28.4184
-28.5169
-28.2741
-28.1012
-28.1293
-27.8681
-27.6342
-27.6652
-27.6119
-27.5514
-27.6136
-27.645
-27.6982
-27.6739
-27.6614
-27.6853
-27.6565
-27.6329
-27.6512
-27.6624
-27.6787
-27.6754
-27.674
-27.679
-27.6752
-27.6718
-27.6699
-27.6676
-27.6645
-27.6525
-27.639
-27.6191
-27.6099
-27.5959
-27.5682
-27.5783
-27.5905
-27.5457
-27.5314
-27.5244
-27.4298
-27.3488
-27.2308
-27.2606
-27.2957
-27.2587
-27.7507
-28.444
-28.6991
-29.8157
-31.5356
-31.8158
-31.6534
-31.476
-31.3801
-35.9149
-33.9885
-33.4121
-31.244
-29.4535
-29.431
-28.8011
-28.1592
-28.3773
-28.3333
-28.5482
-28.2183
-28.0152
-28.1476
-27.8094
-27.5123
-27.6185
-27.5547
-27.4688
-27.5697
-27.6015
-27.6806
-27.6386
-27.621
-27.6647
-27.6228
-27.5899
-27.6197
-27.6317
-27.6547
-27.6474
-27.645
-27.6535
-27.6479
-27.644
-27.6424
-27.6406
-27.6389
-27.6246
-27.6104
-27.5856
-27.5782
-27.5639
-27.5237
-27.5421
-27.5663
-27.5004
-27.4888
-27.4973
-27.3714
-27.2818
-27.1093
-27.1557
-27.1845
-27.0086
-27.5911
-28.4378
-28.4466
-29.7222
-32.001
-32.1154
-31.8061
-31.5592
-31.437
-36.7442
-34.0557
-33.9038
-31.1899
-28.9984
-29.4311
-28.6903
-27.8629
-28.3226
-28.231
-28.6214
-28.1544
-27.9057
-28.2026
-27.7496
-27.363
-27.587
-27.5014
-27.3743
-27.5327
-27.5556
-27.673
-27.6024
-27.5769
-27.6513
-27.5895
-27.5433
-27.5906
-27.601
-27.6337
-27.6196
-27.6159
-27.6298
-27.6211
-27.6167
-27.6157
-27.6142
-27.6149
-27.5973
-27.5835
-27.5516
-27.548
-27.5348
-27.476
-27.5065
-27.55
-27.4523
-27.4458
-27.4817
-27.3121
-27.2239
-26.9749
-27.0564
-27.094
-26.708
-27.4167
-28.4983
-28.103
-29.552
-32.6191
-32.436
-31.9468
-31.6283
-31.4811
-37.7348
-33.9345
-34.5616
-31.0996
-28.3705
-29.5167
-28.5904
-27.4847
-28.3101
-28.0977
-28.754
-28.0771
-27.7607
-28.3097
-27.6871
-27.1749
-27.5791
-27.4529
-27.2626
-27.5068
-27.5045
-27.6791
-27.5639
-27.527
-27.6481
-27.5559
-27.4913
-27.5649
-27.5694
-27.6166
-27.5919
-27.5862
-27.6082
-27.5946
-27.5898
-27.5897
-27.5883
-27.5928
-27.5705
-27.5585
-27.5164
-27.5193
-27.5098
-27.4233
-27.471
-27.5441
-27.3991
-27.4012
-27.4813
-27.2491
-27.1797
-26.8218
-26.964
-27.0378
-26.3397
-27.2221
-28.6637
-27.6385
-29.2704
-33.4482
-32.765
-32.0685
-31.6813
-31.5121
-38.9373
-33.5225
-35.4646
-30.9639
-27.5098
-29.7369
-28.5067
-26.9933
-28.3673
-27.9118
-28.9698
-27.9787
-27.5637
-28.4904
-27.6197
-26.9332
-27.6067
-27.4105
-27.1261
-27.498
-27.4433
-27.7039
-27.5215
-27.4682
-27.6588
-27.5215
-27.4318
-27.5445
-27.536
-27.6045
-27.5636
-27.5556
-27.5895
-27.5683
-27.5634
-27.5644
-27.5626
-27.573
-27.5438
-27.5361
-27.4794
-27.4923
-27.4906
-27.3634
-27.4349
-27.5527
-27.3378
-27.3529
-27.5014
-27.1774
-27.1563
-26.6413
-26.8799
-27.0352
-25.881
-26.9981
-28.9866
-27.0157
-28.83
-34.5667
-33.0808
-32.1638
-31.7168
-31.53
-40.4198
-32.678
-36.7231
-30.7699
-26.338
-30.159
-28.4439
-26.346
-28.5336
-27.6414
-29.3018
-27.8493
-27.2929
-28.7733
-27.5437
-26.6184
-27.6861
-27.3751
-26.9552
-27.5156
-27.3652
-27.7547
-27.4729
-27.3968
-27.689
-27.4854
-27.3623
-27.5322
-27.4991
-27.5995
-27.5343
-27.5235
-27.5748
-27.5419
-27.5375
-27.5402
-27.5371
-27.5563
-27.5166
-27.5176
-27.4394
-27.4671
-27.4797
-27.2938
-27.3974
-27.5811
-27.265
-27.2983
-27.5494
-27.0902
-27.1639
-26.4222
-26.8044
-27.1127
-25.3027
-26.7303
-29.5378
-26.1874
-28.1683
-36.0793
-33.3484
-32.226
-31.7345
-31.5357
-42.2723
-31.2101
-38.4872
-30.499
-24.7541
-30.8729
-28.4053
-25.4865
-28.8651
-27.24
-29.7938
-27.6752
-26.9196
-29.1958
-27.454
-26.2053
-27.8392
-27.3473
-26.7365
-27.5721
-27.2603
-27.8408
-27.4147
-27.3077
-27.7456
-27.4464
-27.2793
-27.5316
-27.4562
-27.6039
-27.5032
-27.4892
-27.5654
-27.5149
-27.5122
-27.5173
-27.5114
-27.5435
-27.4883
-27.5041
-27.3952
-27.4438
-27.4803
-27.2108
-27.3569
-27.6362
-27.1757
-27.2337
-27.6351
-26.9769
-27.2168
-26.1496
-26.7362
-27.3054
-24.5678
-26.3968
-30.41
-25.0958
-27.2028
-38.1229
-33.5149
-32.25
-31.7346
-31.5299
)
;

boundaryField
{
    left
    {
        type            calculated;
        value           nonuniform List<scalar> 
32
(
-30.0792
-30.0908
-30.1131
-30.1455
-30.1879
-30.2403
-30.303
-30.3763
-30.4609
-30.5576
-30.6673
-30.7911
-30.9302
-31.0861
-31.2604
-31.4548
-31.6714
-31.9126
-32.1811
-32.4799
-32.8128
-33.1844
-33.6007
-34.0694
-34.6009
-35.2095
-35.9149
-36.7442
-37.7348
-38.9373
-40.4198
-42.2723
)
;
    }
    right
    {
        type            calculated;
        value           nonuniform List<scalar> 
32
(
-29.6236
-29.631
-29.6454
-29.6664
-29.6938
-29.7276
-29.7679
-29.8147
-29.8683
-29.9285
-29.9956
-30.0694
-30.1497
-30.2362
-30.3284
-30.4255
-30.5268
-30.6311
-30.737
-30.843
-30.9473
-31.0483
-31.1438
-31.2321
-31.3114
-31.3801
-31.437
-31.4811
-31.5121
-31.53
-31.5357
-31.5299
)
;
    }
    interface
    {
        type            calculated;
        value           nonuniform List<scalar> 
64
(
-43.3038
-30.2929
-39.5171
-30.3416
-23.8449
-31.3155
-28.3924
-24.9956
-29.0802
-26.9996
-30.0861
-27.575
-26.7033
-29.4472
-27.4049
-25.9706
-27.9373
-27.3353
-26.6134
-27.6118
-27.1996
-27.894
-27.3828
-27.258
-27.7815
-27.4258
-27.2338
-27.5348
-27.4329
-27.6088
-27.487
-27.4713
-27.5621
-27.5012
-27.4997
-27.5062
-27.4984
-27.5382
-27.4737
-27.4989
-27.3718
-27.4326
-27.4839
-27.1655
-27.3357
-27.6714
-27.1261
-27.1984
-27.6887
-26.9121
-27.2565
-25.9977
-26.7037
-27.4354
-24.156
-26.2104
-30.9394
-24.4762
-26.6325
-39.2967
-33.5649
-32.2519
-31.7304
-31.5243
)
;
    }
    bottom
    {
        type            calculated;
        value           nonuniform List<scalar> 
64
(
-30.0763
-30.059
-30.0252
-29.9763
-29.9142
-29.8412
-29.7596
-29.6719
-29.5804
-29.4873
-29.3942
-29.3027
-29.2139
-29.1289
-29.0483
-28.9727
-28.9023
-28.8373
-28.7777
-28.7235
-28.6745
-28.6306
-28.5914
-28.5566
-28.5261
-28.4995
-28.4765
-28.4569
-28.4404
-28.4269
-28.4161
-28.408
-28.4025
-28.3994
-28.3988
-28.4007
-28.4051
-28.4121
-28.4219
-28.4347
-28.4505
-28.4698
-28.4928
-28.5198
-28.551
-28.5869
-28.6277
-28.6736
-28.7249
-28.7815
-28.8434
-28.9102
-28.9813
-29.0559
-29.1326
-29.2101
-29.2865
-29.3598
-29.4278
-29.4885
-29.5398
-29.58
-29.6076
-29.6217
)
;
    }
    defaultFaces
    {
        type            empty;
    }
}


// ************************************************************************* //
