/*--------------------------------*- C++ -*----------------------------------*\
| =========                 |                                                 |
| \\      /  F ield         | OpenFOAM: The Open Source CFD Toolbox           |
|  \\    /   O peration     | Version:  5.x                                   |
|   \\  /    A nd           | Web:      www.OpenFOAM.org                      |
|    \\/     M anipulation  |                                                 |
\*---------------------------------------------------------------------------*/
FoamFile
{
    version     2.0;
    format      ascii;
    class       volScalarField;
    location    "0.2001";
    object      gradTx;
}
// * * * * * * * * * * * * * * * * * * * * * * * * * * * * * * * * * * * * * //

dimensions      [0 -1 0 1 0 0 0];

internalField   nonuniform List<scalar> 
2048
(
0.0039687
0.0117289
0.0190057
0.0255251
0.0310758
0.0355513
0.0389098
0.0411805
0.0424458
0.0428217
0.0424409
0.0414382
0.0399416
0.0380673
0.0359176
0.0335811
0.031134
0.0286404
0.0261539
0.0237176
0.0213647
0.0191191
0.016996
0.0150032
0.0131421
0.0114093
0.00979727
0.00829612
0.00689365
0.00557615
0.00432869
0.00313534
0.00197934
0.000843265
-0.000290883
-0.00144148
-0.00262715
-0.00386652
-0.00517795
-0.00657921
-0.00808695
-0.00971607
-0.0114788
-0.0133835
-0.015433
-0.0176224
-0.0199362
-0.0223454
-0.024804
-0.0272461
-0.029584
-0.0317084
-0.033491
-0.0347908
-0.035463
-0.0353722
-0.0344059
-0.0324884
-0.0295924
-0.0257453
-0.0210309
-0.0155843
-0.00958275
-0.00323385
0.0118769
0.0350893
0.0568249
0.0762665
0.0927825
0.10605
0.115957
0.122604
0.12625
0.127253
0.126017
0.122948
0.118428
0.112802
0.106373
0.0994021
0.0921134
0.0846962
0.0773083
0.0700768
0.0630996
0.0564467
0.0501621
0.0442678
0.038767
0.0336484
0.0288896
0.0244601
0.0203237
0.0164396
0.0127634
0.00924798
0.00584359
0.0024986
-0.000840303
-0.0042276
-0.00771849
-0.0113683
-0.0152316
-0.0193614
-0.0238073
-0.0286142
-0.0338193
-0.0394487
-0.0455126
-0.0519985
-0.0588636
-0.0660247
-0.073348
-0.0806405
-0.0876429
-0.0940297
-0.0994167
-0.103379
-0.105478
-0.105303
-0.102508
-0.0968615
-0.0882764
-0.0768333
-0.0627832
-0.0465334
-0.0286182
-0.00965895
0.0198367
0.0585742
0.0947654
0.127031
0.154312
0.176079
0.192179
0.202821
0.208479
0.209782
0.207423
0.20209
0.194418
0.184976
0.174256
0.162682
0.150617
0.138369
0.126194
0.114298
0.102842
0.0919357
0.0816502
0.0720177
0.0630401
0.0546959
0.0469461
0.0397393
0.0330149
0.0267057
0.0207386
0.0150363
0.00951716
0.00409658
-0.00131285
-0.00680052
-0.0124571
-0.0183736
-0.0246401
-0.0313441
-0.0385685
-0.0463887
-0.0548684
-0.0640543
-0.0739685
-0.0845979
-0.0958802
-0.107688
-0.119812
-0.13194
-0.143651
-0.154405
-0.163561
-0.1704
-0.174176
-0.174179
-0.169811
-0.160663
-0.146574
-0.127675
-0.104386
-0.0773967
-0.047613
-0.0160739
0.0280676
0.082824
0.133826
0.179074
0.217063
0.247073
0.26896
0.283107
0.290261
0.291377
0.287475
0.279538
0.268461
0.255027
0.239908
0.223679
0.20683
0.189779
0.172877
0.156405
0.14058
0.125552
0.111411
0.0981947
0.0858999
0.0744908
0.0639094
0.0540817
0.0449225
0.0363383
0.028228
0.0204848
0.0129965
0.0056462
-0.00168646
-0.0091248
-0.0167941
-0.0248203
-0.0333285
-0.042441
-0.0522743
-0.0629356
-0.074518
-0.0870933
-0.100702
-0.11534
-0.130937
-0.147338
-0.164269
-0.181316
-0.197903
-0.213281
-0.226539
-0.236646
-0.242516
-0.243102
-0.237512
-0.225122
-0.205679
-0.179353
-0.146749
-0.108856
-0.0669875
-0.0226207
0.0367737
0.108423
0.174903
0.2335
0.282238
0.320237
0.347431
0.364466
0.372459
0.37276
0.366763
0.355774
0.340948
0.323271
0.303579
0.282582
0.260888
0.239017
0.217408
0.196416
0.17631
0.157273
0.139411
0.122762
0.107308
0.0929957
0.0797443
0.0674555
0.056019
0.0453149
0.0352152
0.0255841
0.0162795
0.00715339
-0.00194676
-0.0111773
-0.0206974
-0.0306674
-0.0412475
-0.0525946
-0.0648598
-0.0781839
-0.0926925
-0.108488
-0.125637
-0.144155
-0.163983
-0.18495
-0.206744
-0.228864
-0.250591
-0.270966
-0.288801
-0.302721
-0.311255
-0.312963
-0.306595
-0.291265
-0.266588
-0.232774
-0.190627
-0.141475
-0.0870872
-0.0294154
0.0461523
0.135934
0.218842
0.291332
0.350918
0.39661
0.428521
0.447687
0.455712
0.454437
0.445688
0.431116
0.412134
0.389915
0.365437
0.339525
0.312889
0.286147
0.259823
0.234342
0.210025
0.187084
0.165632
0.145697
0.127244
0.110192
0.0944334
0.0798451
0.0662905
0.0536242
0.0416916
0.030329
0.019365
0.00862139
-0.0020858
-0.0129451
-0.0241489
-0.0358916
-0.0483681
-0.0617706
-0.0762856
-0.0920891
-0.109342
-0.128182
-0.148713
-0.170983
-0.194957
-0.220478
-0.247215
-0.274605
-0.301804
-0.327649
-0.350657
-0.369077
-0.380991
-0.384491
-0.377892
-0.359968
-0.330162
-0.288713
-0.23666
-0.175725
-0.108197
-0.0365526
0.0564046
0.165924
0.266482
0.353554
0.424106
0.47711
0.513002
0.533373
0.540467
0.536728
0.524481
0.50574
0.482162
0.455083
0.425587
0.394593
0.362899
0.331212
0.300142
0.270189
0.241722
0.214976
0.190064
0.166994
0.145702
0.126075
0.107975
0.0912481
0.0757345
0.0612635
0.047655
0.0347181
0.0222528
0.0100513
-0.00210088
-0.0144237
-0.0271419
-0.0404837
-0.0546786
-0.0699546
-0.0865338
-0.104629
-0.12444
-0.146143
-0.169887
-0.195767
-0.223795
-0.253852
-0.285617
-0.318498
-0.351548
-0.38341
-0.412295
-0.436031
-0.452188
-0.458292
-0.452117
-0.432004
-0.397163
-0.347854
-0.285401
-0.211999
-0.130549
-0.0441084
0.0677429
0.198988
0.318688
0.421148
0.502756
0.562559
0.601507
0.621962
0.626994
0.619787
0.603226
0.579699
0.551083
0.518828
0.484088
0.447839
0.410957
0.374237
0.338378
0.303957
0.271394
0.240943
0.212705
0.186657
0.162692
0.140657
0.120378
0.101673
0.0843576
0.0682374
0.0531082
0.0387528
0.0249432
0.0114424
-0.00199352
-0.0156151
-0.0296788
-0.0444459
-0.0601811
-0.0771477
-0.0956047
-0.115802
-0.137978
-0.162354
-0.18913
-0.218462
-0.250431
-0.284983
-0.32185
-0.360443
-0.39975
-0.438233
-0.473791
-0.503788
-0.525198
-0.534869
-0.529898
-0.508073
-0.468285
-0.410811
-0.337328
-0.250621
-0.154323
-0.0521398
0.080399
0.235768
0.376373
0.49512
0.587801
0.653701
0.694545
0.713738
0.715405
0.703614
0.681877
0.652949
0.618873
0.581155
0.540963
0.499297
0.457093
0.415238
0.374534
0.335641
0.299035
0.264983
0.233561
0.204699
0.178233
0.153961
0.131666
0.111139
0.0921739
0.074556
0.0580581
0.0424371
0.0274372
0.0127929
-0.00176857
-0.016527
-0.0317694
-0.0477903
-0.0648889
-0.0833649
-0.103514
-0.125622
-0.149967
-0.176818
-0.20643
-0.239034
-0.2748
-0.313776
-0.355785
-0.400295
-0.446268
-0.492017
-0.535124
-0.572448
-0.600277
-0.614641
-0.611799
-0.588822
-0.544178
-0.478144
-0.392853
-0.291845
-0.179645
-0.0606834
0.0946307
0.276971
0.44052
0.576517
0.680157
0.751205
0.792503
0.808838
0.805655
0.788069
0.760274
0.725357
0.685453
0.642036
0.59622
0.548988
0.501327
0.454226
0.408608
0.365234
0.32464
0.2871
0.252648
0.221146
0.192358
0.166019
0.14187
0.119672
0.0992037
0.0802342
0.0625151
0.0457771
0.0297366
0.0140999
-0.00143344
-0.0171711
-0.0334297
-0.050536
-0.0688245
-0.0886315
-0.110289
-0.134119
-0.160437
-0.189557
-0.221794
-0.257462
-0.296846
-0.34013
-0.387277
-0.437871
-0.490905
-0.544585
-0.596183
-0.642017
-0.677589
-0.697954
-0.69833
-0.67487
-0.625466
-0.550374
-0.452323
-0.335849
-0.206578
-0.0697518
0.110729
0.323386
0.512207
0.666442
0.780736
0.855669
0.895649
0.907253
0.897552
0.872884
0.838159
0.796729
0.750706
0.701425
0.649861
0.596934
0.543677
0.491208
0.440595
0.392724
0.348202
0.307299
0.269987
0.236033
0.205111
0.176878
0.151029
0.127304
0.105471
0.0852901
0.0664918
0.0487806
0.0318438
0.0153602
-0.000997379
-0.0175626
-0.0346801
-0.0527082
-0.0720173
-0.0929815
-0.115968
-0.141335
-0.169431
-0.20061
-0.235247
-0.273747
-0.316529
-0.363949
-0.416171
-0.472958
-0.533413
-0.59569
-0.656775
-0.712412
-0.757219
-0.78509
-0.789962
-0.766818
-0.712766
-0.627994
-0.516023
-0.382724
-0.235115
-0.0793291
0.129025
0.375902
0.592619
0.766069
0.890443
0.967612
1.00412
1.00883
0.990763
0.95767
0.915189
0.86682
0.814492
0.759272
0.701894
0.643164
0.584169
0.526192
0.470488
0.418099
0.369713
0.32559
0.285607
0.249406
0.216544
0.186591
0.159192
0.134073
0.111005
0.0897441
0.0700034
0.0514571
0.0337624
0.0165705
-0.000470956
-0.0177193
-0.0355446
-0.0543364
-0.0745022
-0.0964554
-0.1206
-0.147324
-0.177006
-0.210034
-0.246835
-0.287907
-0.333823
-0.385151
-0.44231
-0.50533
-0.573511
-0.645031
-0.716631
-0.783466
-0.839168
-0.876269
-0.887136
-0.865267
-0.806708
-0.711479
-0.584164
-0.432458
-0.265155
-0.0893651
0.149898
0.435521
0.683065
0.876647
1.01017
1.08746
1.11794
1.11327
1.08482
1.04193
0.990955
0.935355
0.876669
0.81554
0.752347
0.687721
0.622831
0.559188
0.498279
0.441341
0.389166
0.341987
0.299548
0.261321
0.226723
0.195223
0.166412
0.140018
0.115833
0.0936182
0.0730662
0.0538175
0.0354968
0.0177277
0.000134467
-0.0176605
-0.0360499
-0.0554532
-0.0763174
-0.0990981
-0.124236
-0.152148
-0.183233
-0.217903
-0.256625
-0.299986
-0.348728
-0.403669
-0.465545
-0.534747
-0.610885
-0.692257
-0.775416
-0.854931
-0.923363
-0.971649
-0.990257
-0.970831
-0.907953
-0.8013
-0.656882
-0.484916
-0.296496
-0.0997686
0.173786
0.50338
0.784993
0.999505
1.1408
1.21554
1.23697
1.22012
1.17911
1.12507
1.065
1.00205
0.937101
0.870208
0.801273
0.730669
0.659703
0.590207
0.523956
0.462429
0.406551
0.356508
0.311855
0.271843
0.235721
0.202846
0.17275
0.145183
0.119985
0.0969346
0.0756983
0.0558745
0.0370526
0.0188292
0.000807129
-0.0174074
-0.0362247
-0.0560936
-0.0775035
-0.100957
-0.126935
-0.155874
-0.188191
-0.224305
-0.264703
-0.310049
-0.361269
-0.419462
-0.485743
-0.560973
-0.645207
-0.73698
-0.832732
-0.926479
-1.00965
-1.07133
-1.0997
-1.08414
-1.01722
-0.89794
-0.73422
-0.539816
-0.328807
-0.1104
0.201196
0.580761
0.899998
1.13606
1.28315
1.35205
1.36093
1.32881
1.27291
1.20641
1.13682
1.06662
0.995669
0.923289
0.848758
0.772092
0.694831
0.619263
0.547508
0.481339
0.421856
0.369176
0.322586
0.281049
0.243624
0.209541
0.17827
0.149611
0.12349
0.0997154
0.0779188
0.0576421
0.0384367
0.0198733
0.00153522
-0.0169818
-0.0360994
-0.0562936
-0.0781018
-0.102082
-0.128754
-0.158576
-0.191966
-0.229342
-0.271176
-0.318186
-0.371496
-0.432518
-0.502793
-0.583778
-0.676138
-0.778785
-0.888131
-0.997708
-1.0978
-1.17534
-1.21579
-1.20585
-1.13533
-1.00192
-0.816119
-0.596699
-0.361612
-0.121067
0.232721
0.669112
1.02983
1.28782
1.438
1.49701
1.48942
1.43863
1.36537
1.28519
1.20591
1.12881
1.05229
0.974826
0.894934
0.812097
0.728262
0.646375
0.568922
0.498038
0.435066
0.380019
0.33181
0.289023
0.250524
0.215398
0.183038
0.15334
0.126371
0.101982
0.0797484
0.0591358
0.0396569
0.0208592
0.00230716
-0.0164065
-0.0357055
-0.0560902
-0.0781536
-0.102519
-0.129754
-0.160326
-0.19465
-0.233127
-0.276169
-0.32451
-0.379491
-0.442857
-0.516612
-0.60295
-0.703344
-0.817242
-0.941122
-1.06814
-1.1875
-1.28364
-1.3388
-1.33663
-1.26322
-1.11381
-0.902394
-0.654894
-0.394269
-0.131517
0.269062
0.770054
1.17639
1.4564
1.60603
1.65026
1.62188
1.54875
1.45555
1.36058
1.27177
1.18843
1.10689
1.0249
0.939982
0.850815
0.760045
0.671561
0.588184
0.512486
0.446159
0.389071
0.339607
0.295859
0.256518
0.220515
0.187126
0.156409
0.12865
0.103755
0.0812097
0.060373
0.0407227
0.0217876
0.00311194
-0.0157049
-0.0350758
-0.0555204
-0.077699
-0.102317
-0.129993
-0.161198
-0.196334
-0.235779
-0.279824
-0.329152
-0.385358
-0.450538
-0.527152
-0.618296
-0.726496
-0.851922
-0.991185
-1.13722
-1.27838
-1.39615
-1.4689
-1.47718
-1.40202
-1.23429
-0.992702
-0.713483
-0.42596
-0.141436
0.311067
0.885394
1.34172
1.64354
1.78779
1.81139
1.75763
1.65826
1.54238
1.43171
1.33392
1.24533
1.15945
1.07361
0.98415
0.888396
0.790212
0.694848
0.60528
0.524629
0.455107
0.396373
0.346076
0.301655
0.261711
0.225
0.190604
0.158845
0.13034
0.105052
0.0823281
0.0613724
0.041644
0.0226606
0.00393931
-0.0149011
-0.034244
-0.0546214
-0.0767762
-0.101518
-0.129529
-0.161265
-0.197108
-0.237426
-0.2823
-0.33226
-0.389229
-0.455661
-0.534402
-0.629647
-0.745285
-0.882411
-1.03779
-1.20432
-1.36998
-1.51272
-1.60614
-1.62814
-1.55314
-1.36419
-1.0865
-0.771257
-0.455674
-0.150451
0.359787
1.01712
1.52796
1.85112
1.98366
1.9797
1.89593
1.76621
1.62471
1.49764
1.39194
1.2995
1.20996
1.12108
1.02776
0.925003
0.818768
0.716271
0.620203
0.5344
0.461871
0.401976
0.351334
0.306514
0.266207
0.228975
0.193547
0.160669
0.131446
0.105893
0.0831332
0.0621541
0.0424313
0.0234824
0.00478013
-0.0140197
-0.0332455
-0.0534297
-0.0754207
-0.100163
-0.128416
-0.160596
-0.197053
-0.238196
-0.283771
-0.333994
-0.391251
-0.458372
-0.538392
-0.636861
-0.759418
-0.908324
-1.0804
-1.26871
-1.4618
-1.63318
-1.75036
-1.79012
-1.71832
-1.50454
-1.18299
-0.826677
-0.48222
-0.158142
0.416575
1.16742
1.73728
2.08128
2.19378
2.15406
2.03601
1.87161
1.70128
1.55738
1.44546
1.35106
1.25838
1.16745
1.07126
0.960806
0.845666
0.735887
0.632953
0.541711
0.466398
0.405942
0.355527
0.310533
0.270106
0.232577
0.196027
0.161886
0.131965
0.106295
0.0836604
0.0627387
0.0430948
0.0242596
0.00562662
-0.0130859
-0.0321173
-0.0519816
-0.0736646
-0.0982863
-0.126707
-0.159257
-0.196239
-0.238218
-0.284432
-0.334515
-0.391585
-0.458866
-0.539197
-0.639821
-0.768627
-0.929329
-1.11852
-1.32956
-1.55326
-1.75741
-1.90115
-1.96354
-1.89982
-1.65666
-1.28099
-0.877826
-0.504243
-0.164049
0.483228
1.33861
1.97182
2.33652
2.41796
2.33286
2.17719
1.97353
1.77073
1.60988
1.49421
1.40033
1.30465
1.21282
1.11524
0.995964
0.870778
0.753793
0.643545
0.546448
0.468619
0.408346
0.358839
0.313796
0.273501
0.235966
0.198117
0.162484
0.131881
0.106275
0.083954
0.0631463
0.0436431
0.0250025
0.00647268
-0.0121255
-0.0308987
-0.0503128
-0.0715367
-0.0959176
-0.124452
-0.157316
-0.194719
-0.237616
-0.2845
-0.333983
-0.39039
-0.457399
-0.536935
-0.638431
-0.772657
-0.945161
-1.15174
-1.3859
-1.64375
-1.88542
-2.05771
-2.1485
-2.10059
-1.82224
-1.37886
-0.922381
-0.520259
-0.167704
0.562226
1.53313
2.23343
2.61991
2.65561
2.51382
2.31904
2.07108
1.83155
1.65405
1.53802
1.44791
1.34858
1.25722
1.16051
1.0306
0.893847
0.770159
0.652013
0.548456
0.468446
0.409277
0.361501
0.316364
0.276462
0.239339
0.199887
0.162429
0.131167
0.105853
0.0840707
0.0633946
0.0440818
0.0257257
0.00731406
-0.0111652
-0.0296321
-0.0484586
-0.0690612
-0.0930783
-0.121702
-0.154841
-0.192517
-0.236506
-0.284227
-0.33254
-0.387808
-0.454294
-0.531769
-0.632616
-0.771261
-0.95564
-1.17975
-1.43656
-1.73258
-2.0175
-2.21877
-2.34463
-2.32452
-2.00348
-1.47425
-0.957588
-0.528727
-0.168654
0.657082
1.75347
2.52348
2.9354
2.90553
2.69378
2.46163
2.16349
1.88207
1.68871
1.57684
1.49478
1.38978
1.30056
1.2082
1.06479
0.914438
0.785273
0.658414
0.547534
0.465765
0.408839
0.363821
0.318257
0.279035
0.242941
0.2014
0.161656
0.129787
0.105051
0.0840843
0.0634957
0.0444118
0.0264505
0.0081484
-0.010232
-0.0283638
-0.0464535
-0.0662588
-0.089781
-0.118505
-0.151907
-0.189625
-0.234987
-0.28391
-0.330302
-0.383947
-0.449964
-0.523907
-0.622312
-0.764185
-0.960684
-1.20246
-1.48011
-1.81901
-2.15445
-2.38238
-2.5507
-2.57676
-2.2032
-1.56387
-0.980267
-0.528128
-0.166503
0.772869
2.002
2.84247
3.2883
3.16578
2.86842
2.6058
2.25012
1.92038
1.71261
1.6107
1.54244
1.42755
1.34257
1.2599
1.09847
0.931849
0.799614
0.662824
0.54341
0.460438
0.407149
0.366203
0.319424
0.28122
0.247093
0.202708
0.160064
0.127691
0.103891
0.0840925
0.0634514
0.0446269
0.0272074
0.00897492
-0.00935324
-0.0271453
-0.0443309
-0.0631459
-0.0860267
-0.114911
-0.148611
-0.185987
-0.233138
-0.283917
-0.327346
-0.378849
-0.444935
-0.513589
-0.607466
-0.75114
-0.960317
-1.22007
-1.51473
-1.90212
-2.29791
-2.5458
-2.76428
-2.86425
-2.42499
-1.64309
-0.986866
-0.517088
-0.16095
0.916966
2.28085
3.18944
3.68601
3.43336
3.03196
2.75371
2.33039
1.94429
1.72443
1.63969
1.59313
1.46069
1.38268
1.31786
1.1314
0.945026
0.813957
0.665331
0.535728
0.452308
0.404324
0.369191
0.319719
0.282961
0.252223
0.203837
0.15751
0.124824
0.102399
0.0842257
0.0632475
0.0447111
0.02804
0.00979349
-0.00855568
-0.0260345
-0.0421229
-0.0597364
-0.0818023
-0.110969
-0.145076
-0.181483
-0.231001
-0.284719
-0.323684
-0.372453
-0.439879
-0.501082
-0.588035
-0.731774
-0.954661
-1.23328
-1.53808
-1.98077
-2.4508
-2.70524
-2.98111
-3.19623
-2.6734
-1.70554
-0.973568
-0.494508
-0.151829
1.10011
2.59163
3.56128
4.13889
3.70383
3.17662
2.90936
2.40372
1.95124
1.72283
1.66388
1.65008
1.48729
1.41995
1.38522
1.16305
0.952432
0.829509
0.666007
0.524022
0.441199
0.400469
0.373523
0.318851
0.284119
0.258906
0.204776
0.153799
0.121131
0.100597
0.084658
0.0628442
0.0446365
0.0290099
0.0106028
-0.00786443
-0.0250979
-0.0398587
-0.0560431
-0.0770765
-0.106725
-0.14148
-0.175919
-0.228563
-0.286928
-0.319253
-0.364555
-0.435669
-0.486658
-0.563992
-0.705635
-0.943903
-1.24342
-1.54714
-2.0534
-2.61792
-2.8557
-3.19439
-3.58511
-2.95405
-1.74243
-0.936492
-0.45972
-0.139145
1.33782
2.93504
3.95174
4.66166
3.97082
3.29216
3.07947
2.46929
1.93823
1.70646
1.68318
1.71788
1.50444
1.45287
1.4664
1.19245
0.951904
0.848101
0.664858
0.507694
0.426938
0.395646
0.380202
0.316329
0.284458
0.267921
0.20545
0.148676
0.116563
0.0984996
0.0856224
0.0621651
0.0443603
0.0302036
0.0113974
-0.00730093
-0.0244128
-0.0375628
-0.0520803
-0.0717961
-0.102217
-0.138075
-0.168997
-0.225738
-0.291359
-0.313885
-0.354738
-0.433445
-0.470558
-0.535339
-0.672125
-0.928235
-1.2528
-1.53794
-2.11776
-2.80669
-2.99072
-3.39381
-4.04738
-3.27384
-1.74179
-0.872018
-0.41263
-0.123098
1.65224
3.31047
4.35013
5.27497
4.22535
3.36514
3.27445
2.52575
1.90172
1.67407
1.69708
1.80293
1.5079
1.47926
1.56744
1.21801
0.940477
0.87243
0.661751
0.485989
0.409377
0.389827
0.390585
0.311398
0.283609
0.280321
0.205684
0.141824
0.111091
0.0961049
0.0874299
0.0610818
0.0438228
0.0317405
0.0121627
-0.00687988
-0.0240707
-0.0352525
-0.0478687
-0.0658816
-0.0974708
-0.135224
-0.160297
-0.222331
-0.299096
-0.307286
-0.342309
-0.434703
-0.452946
-0.502141
-0.630459
-0.907752
-1.265
-1.50536
-2.17055
-3.02809
-3.10218
-3.5643
-4.60487
-3.64105
-1.68761
-0.777253
-0.353857
-0.104083
2.07456
3.7153
4.7398
6.0076
4.45492
3.3782
3.50972
2.57066
1.83763
1.62468
1.70438
1.91407
1.49165
1.49601
1.6966
1.23728
0.914185
0.906365
0.656292
0.457982
0.388434
0.382831
0.406503
0.302944
0.28105
0.29752
0.205159
0.132859
0.104724
0.0933753
0.0904934
0.0593949
0.042946
0.0337833
0.0128679
-0.00660482
-0.0241808
-0.0329334
-0.0434406
-0.0592224
-0.0924786
-0.13344
-0.149252
-0.217994
-0.31158
-0.299006
-0.326197
-0.441408
-0.433834
-0.464565
-0.579624
-0.882285
-1.28534
-1.44284
-2.20686
-3.2978
-3.18014
-3.68463
-5.28622
-4.06544
-1.55864
-0.650683
-0.284818
-0.0826851
2.64795
4.14417
5.09619
6.89907
4.64245
3.30916
3.80727
2.59981
1.74129
1.55777
1.70269
2.06323
1.44738
1.49891
1.86491
1.24662
0.86784
0.955316
0.647658
0.422563
0.364146
0.374225
0.430402
0.289395
0.276067
0.321391
0.203344
0.121333
0.0975261
0.0902172
0.0953582
0.0568102
0.0416331
0.0365502
0.0134569
-0.00646186
-0.0248762
-0.0305937
-0.0388483
-0.0516734
-0.0871863
-0.13344
-0.135118
-0.212177
-0.33071
-0.288414
-0.304854
-0.456142
-0.412985
-0.422949
-0.518349
-0.851172
-1.32144
-1.34209
-2.21953
-3.6375
-3.21269
-3.72557
-6.12865
-4.55827
-1.32718
-0.493038
-0.207742
-0.059634
3.43117
4.588
5.38457
8.00274
4.76486
3.13005
4.19742
2.60622
1.60753
1.47357
1.68785
2.26638
1.3639
1.48237
2.08688
1.24088
0.794794
1.02668
0.634378
0.378448
0.336739
0.363204
0.465523
0.268594
0.26773
0.354383
0.199422
0.10674
0.0896463
0.0864499
0.102738
0.0529104
0.0397699
0.0403284
0.0138348
-0.00641132
-0.02632
-0.0281964
-0.0341732
-0.043052
-0.0814636
-0.1362
-0.116947
-0.204059
-0.358962
-0.274666
-0.27612
-0.482271
-0.38978
-0.377887
-0.445094
-0.812948
-1.3838
-1.1928
-2.19828
-4.07634
-3.18589
-3.64792
-7.17994
-5.13229
-0.957624
-0.308378
-0.125587
-0.0357467
4.50271
5.03286
5.55751
9.38943
4.79145
2.80612
4.72098
2.57898
1.43081
1.37345
1.65317
2.54452
1.22645
1.43919
2.38135
1.21289
0.686696
1.13032
0.614041
0.324201
0.306722
0.348429
0.516099
0.237662
0.254857
0.39966
0.192187
0.0885341
0.0813447
0.0817654
0.113559
0.0471212
0.0372278
0.0454895
0.013853
-0.0063769
-0.0287143
-0.0256695
-0.029538
-0.0331382
-0.0750702
-0.143027
-0.0935613
-0.192472
-0.399516
-0.256682
-0.237081
-0.524161
-0.363047
-0.330337
-0.35806
-0.764943
-1.48654
-0.982437
-2.12868
-4.65258
-3.08385
-3.40014
-8.50075
-5.80151
-0.404895
-0.105434
-0.041817
-0.0118482
)
;

boundaryField
{
    left
    {
        type            calculated;
        value           uniform 0;
    }
    right
    {
        type            calculated;
        value           uniform 0;
    }
    interface
    {
        type            calculated;
        value           nonuniform List<scalar> 
64
(
4.50271
5.03286
5.55751
9.38943
4.79145
2.80612
4.72098
2.57898
1.43081
1.37345
1.65317
2.54452
1.22645
1.43919
2.38135
1.21289
0.686696
1.13032
0.614041
0.324201
0.306722
0.348429
0.516099
0.237662
0.254857
0.39966
0.192187
0.0885341
0.0813447
0.0817654
0.113559
0.0471212
0.0372278
0.0454895
0.013853
-0.0063769
-0.0287143
-0.0256695
-0.029538
-0.0331382
-0.0750702
-0.143027
-0.0935613
-0.192472
-0.399516
-0.256682
-0.237081
-0.524161
-0.363047
-0.330337
-0.35806
-0.764943
-1.48654
-0.982437
-2.12868
-4.65258
-3.08385
-3.40014
-8.50075
-5.80151
-0.404895
-0.105434
-0.041817
-0.0118482
)
;
    }
    bottom
    {
        type            calculated;
        value           nonuniform List<scalar> 
64
(
0.0039687
0.0117289
0.0190057
0.0255251
0.0310758
0.0355513
0.0389098
0.0411805
0.0424458
0.0428217
0.0424409
0.0414382
0.0399416
0.0380673
0.0359176
0.0335811
0.031134
0.0286404
0.0261539
0.0237176
0.0213647
0.0191191
0.016996
0.0150032
0.0131421
0.0114093
0.00979727
0.00829612
0.00689365
0.00557615
0.00432869
0.00313534
0.00197934
0.000843265
-0.000290883
-0.00144148
-0.00262715
-0.00386652
-0.00517795
-0.00657921
-0.00808695
-0.00971607
-0.0114788
-0.0133835
-0.015433
-0.0176224
-0.0199362
-0.0223454
-0.024804
-0.0272461
-0.029584
-0.0317084
-0.033491
-0.0347908
-0.035463
-0.0353722
-0.0344059
-0.0324884
-0.0295924
-0.0257453
-0.0210309
-0.0155843
-0.00958275
-0.00323385
)
;
    }
    defaultFaces
    {
        type            empty;
    }
}


// ************************************************************************* //
