/*--------------------------------*- C++ -*----------------------------------*\
| =========                 |                                                 |
| \\      /  F ield         | OpenFOAM: The Open Source CFD Toolbox           |
|  \\    /   O peration     | Version:  5.x                                   |
|   \\  /    A nd           | Web:      www.OpenFOAM.org                      |
|    \\/     M anipulation  |                                                 |
\*---------------------------------------------------------------------------*/
FoamFile
{
    version     2.0;
    format      ascii;
    class       volScalarField;
    location    "2.3001";
    object      gradTx;
}
// * * * * * * * * * * * * * * * * * * * * * * * * * * * * * * * * * * * * * //

dimensions      [0 -1 0 1 0 0 0];

internalField   nonuniform List<scalar> 
2048
(
0.00773163
0.0229587
0.0374995
0.0509671
0.0630682
0.0736173
0.0825347
0.0898327
0.0955921
0.099938
0.103017
0.104979
0.105972
0.106132
0.105586
0.104457
0.102859
0.100902
0.0986863
0.0963024
0.0938248
0.0913113
0.0888025
0.0863228
0.0838842
0.0814888
0.0791319
0.076804
0.0744914
0.0721773
0.0698421
0.0674649
0.0650257
0.0625076
0.0598977
0.0571886
0.0543766
0.0514606
0.0484388
0.0453074
0.0420587
0.0386815
0.0351633
0.0314931
0.0276651
0.023683
0.0195633
0.0153383
0.0110574
0.00678827
0.00261668
-0.00135552
-0.00501355
-0.00823507
-0.0108979
-0.0128897
-0.0141188
-0.0145252
-0.0140892
-0.0128372
-0.0108427
-0.00822237
-0.00512908
-0.00174265
0.0230523
0.06844
0.111746
0.151803
0.18773
0.218982
0.245334
0.266842
0.283765
0.296491
0.305468
0.31115
0.313971
0.314337
0.312625
0.30919
0.304376
0.298506
0.291882
0.284773
0.277401
0.269937
0.2625
0.25516
0.247949
0.240871
0.233911
0.227041
0.220218
0.213393
0.206507
0.199496
0.192299
0.184865
0.177156
0.16915
0.160838
0.152219
0.143289
0.134039
0.124444
0.11447
0.104079
0.0932332
0.0819135
0.0701277
0.0579225
0.0453912
0.0326796
0.0199882
0.00757161
-0.00426625
-0.0151815
-0.0248063
-0.0327713
-0.0387354
-0.0424187
-0.0436363
-0.0423256
-0.038564
-0.0325712
-0.0246984
-0.0154052
-0.00523342
0.0382455
0.113507
0.185203
0.251351
0.310478
0.361695
0.404678
0.439577
0.466883
0.487285
0.501558
0.510467
0.514731
0.515009
0.511911
0.506015
0.497878
0.488039
0.476997
0.465201
0.453018
0.440731
0.428528
0.416515
0.404738
0.393194
0.381855
0.370671
0.359575
0.348481
0.33729
0.325894
0.314187
0.302081
0.289513
0.276448
0.262878
0.248807
0.234236
0.219151
0.203513
0.187263
0.170326
0.152634
0.134144
0.114861
0.0948528
0.0742683
0.0533432
0.0324054
0.0118745
-0.00774513
-0.0258786
-0.0419058
-0.0551993
-0.0651737
-0.071344
-0.0733847
-0.0711794
-0.0648517
-0.0547702
-0.0415272
-0.0258976
-0.00879641
0.0536251
0.159069
0.259287
0.351402
0.433327
0.503861
0.562646
0.610012
0.646766
0.673976
0.692781
0.70428
0.709468
0.70924
0.704417
0.695781
0.684097
0.670114
0.654539
0.638005
0.621029
0.603999
0.587163
0.570653
0.554509
0.538715
0.523223
0.507961
0.492836
0.477729
0.462497
0.44698
0.431023
0.414493
0.397301
0.379405
0.360805
0.34152
0.321564
0.300926
0.279552
0.257349
0.2342
0.209991
0.184643
0.158142
0.13057
0.102122
0.0731154
0.0440017
0.0153625
-0.0120961
-0.0375609
-0.0601448
-0.0789387
-0.0930835
-0.101857
-0.104766
-0.10162
-0.092584
-0.0781833
-0.0592696
-0.0369551
-0.0125503
0.069475
0.205944
0.335254
0.453523
0.55801
0.647242
0.720927
0.779703
0.824821
0.857817
0.880264
0.893609
0.899115
0.897884
0.890917
0.879176
0.863627
0.845234
0.824925
0.803531
0.781728
0.760004
0.738657
0.717819
0.697509
0.677683
0.658264
0.639161
0.620259
0.601406
0.582411
0.563053
0.543113
0.522409
0.500822
0.478308
0.454885
0.430604
0.405508
0.379593
0.352793
0.324972
0.295956
0.265565
0.233666
0.200212
0.165285
0.129114
0.0920954
0.0547956
0.017956
-0.017513
-0.0505497
-0.0799786
-0.104576
-0.123165
-0.134742
-0.138601
-0.134452
-0.122494
-0.103425
-0.0783853
-0.0488612
-0.0165907
0.0860674
0.254911
0.414286
0.559148
0.686062
0.793345
0.880909
0.949875
1.0021
1.03972
1.06481
1.07919
1.08437
1.0816
1.07202
1.05675
1.03695
1.0138
0.988488
0.962055
0.935353
0.908971
0.883232
0.858245
0.833979
0.810339
0.787219
0.76451
0.742083
0.719759
0.697292
0.674387
0.650746
0.62612
0.600355
0.573414
0.54535
0.516268
0.486257
0.455337
0.423425
0.390334
0.355811
0.319586
0.281448
0.2413
0.199206
0.155422
0.110413
0.0648567
0.0196491
-0.0240941
-0.0650516
-0.101734
-0.132561
-0.155983
-0.170648
-0.175583
-0.17036
-0.155205
-0.131012
-0.099257
-0.0618485
-0.0209955
0.103675
0.306744
0.497537
0.669648
0.818896
0.943489
1.04373
1.12146
1.17935
1.22029
1.24696
1.26153
1.26571
1.26088
1.24822
1.22897
1.20446
1.17615
1.14549
1.11379
1.08209
1.05108
1.02109
0.992149
0.96415
0.936921
0.910319
0.884229
0.858528
0.833015
0.807384
0.781246
0.754196
0.7259
0.696162
0.664958
0.632402
0.598681
0.56396
0.528297
0.491596
0.453601
0.413952
0.372262
0.32821
0.281626
0.232542
0.181234
0.128226
0.0742994
0.0204999
-0.0318543
-0.0811739
-0.125629
-0.163232
-0.191991
-0.210124
-0.216314
-0.209946
-0.191263
-0.161389
-0.122204
-0.0761059
-0.0258269
0.122585
0.362247
0.586182
0.786372
0.957847
1.09884
1.21032
1.29513
1.35704
1.39988
1.42699
1.44091
1.4435
1.4361
1.4199
1.39619
1.36649
1.33254
1.29613
1.25889
1.22208
1.18649
1.1524
1.11975
1.08826
1.05767
1.02779
0.998528
0.969792
0.941377
0.912908
0.883875
0.853728
0.822017
0.788492
0.753155
0.716214
0.677978
0.638725
0.598574
0.557416
0.514906
0.470543
0.423781
0.374158
0.321402
0.265504
0.206746
0.145711
0.0832745
0.0206213
-0.0407359
-0.0989369
-0.151786
-0.196833
-0.231557
-0.253644
-0.261333
-0.253752
-0.231151
-0.194939
-0.147487
-0.0917809
-0.0311316
0.143106
0.42228
0.681453
0.91069
1.1042
1.26046
1.38143
1.47134
1.53539
1.57857
1.60497
1.61747
1.61792
1.60755
1.58739
1.55874
1.52331
1.48318
1.44055
1.39745
1.35542
1.31532
1.27735
1.24125
1.20654
1.17282
1.13985
1.1076
1.07605
1.04503
1.01407
0.982511
0.949603
0.914735
0.87759
0.83821
0.796937
0.754261
0.710621
0.666229
0.62096
0.574356
0.525726
0.47432
0.419489
0.360835
0.298294
0.232157
0.163058
0.0919601
0.0201717
-0.0506176
-0.118283
-0.180242
-0.233523
-0.274974
-0.301621
-0.311131
-0.30228
-0.27531
-0.231988
-0.175313
-0.108977
-0.0369403
0.165575
0.487776
0.784664
1.04402
1.25922
1.42927
1.5576
1.65031
1.71438
1.75624
1.78079
1.79118
1.7891
1.77545
1.751
1.71694
1.67518
1.62823
1.57884
1.52952
1.48214
1.43764
1.39607
1.35687
1.31926
1.28263
1.24672
1.21162
1.17745
1.14412
1.11106
1.07738
1.04208
1.00432
0.9637
0.920313
0.874702
0.827603
0.779682
0.731284
0.682272
0.63203
0.579625
0.524039
0.46439
0.400123
0.331112
0.257662
0.180461
0.100553
0.0193454
-0.0613228
-0.139083
-0.210955
-0.273385
-0.322472
-0.354425
-0.366169
-0.356008
-0.324145
-0.272814
-0.205827
-0.12775
-0.0432646
0.190372
0.55977
0.897242
1.18785
1.42416
1.60613
1.73925
1.83204
1.89376
1.93253
1.95417
1.96191
1.95707
1.94001
1.911
1.87106
1.82233
1.76785
1.71106
1.6551
1.60226
1.55354
1.50874
1.46684
1.42669
1.38738
1.34863
1.31074
1.27412
1.23877
1.20404
1.16871
1.13142
1.09106
1.04707
0.999654
0.949622
0.898046
0.845905
0.793727
0.741362
0.687988
0.63235
0.573092
0.509042
0.439454
0.364144
0.283445
0.198113
0.109258
0.0183637
-0.0726275
-0.161142
-0.243809
-0.31643
-0.374223
-0.412385
-0.426896
-0.415407
-0.378039
-0.31764
-0.239105
-0.148096
-0.0500937
0.217923
0.639412
1.02075
1.34375
1.60027
1.79178
1.92659
2.01633
2.07305
2.10692
2.12465
2.12942
2.12184
2.10141
2.0677
2.02142
1.96498
1.90216
1.83722
1.77414
1.71573
1.66305
1.61549
1.57143
1.52913
1.48736
1.4458
1.4051
1.36613
1.32909
1.29315
1.2567
1.21791
1.17523
1.12795
1.07641
1.02179
0.965605
0.909249
0.853508
0.798216
0.742269
0.684
0.621628
0.55362
0.479008
0.397561
0.309676
0.216191
0.11828
0.0174657
-0.0842673
-0.184206
-0.278615
-0.362599
-0.430341
-0.475801
-0.493752
-0.480954
-0.43736
-0.366635
-0.275142
-0.169943
-0.0573898
0.248708
0.727991
1.15689
1.5134
1.78878
1.98685
2.11968
2.20276
2.25157
2.27867
2.2917
2.29342
2.28337
2.25986
2.22145
2.16834
2.10337
2.03124
1.95728
1.88653
1.82247
1.76619
1.71648
1.67089
1.62694
1.5829
1.53845
1.4948
1.45352
1.41512
1.37853
1.34158
1.30181
1.25715
1.20662
1.15078
1.09129
1.03027
0.969637
0.910542
0.85279
0.794901
0.734667
0.66979
0.598298
0.518953
0.431514
0.3365
0.234854
0.127814
0.0168991
-0.0959448
-0.207963
-0.315114
-0.411764
-0.490887
-0.544944
-0.567186
-0.553151
-0.50247
-0.419906
-0.313838
-0.193136
-0.0650831
0.283277
0.826945
1.30754
1.69856
1.9909
2.19184
2.3184
2.39074
2.42843
2.44688
2.45464
2.45358
2.44164
2.4156
2.37262
2.3122
2.23774
2.15519
2.0712
1.9921
1.92233
1.86297
1.8119
1.76554
1.72049
1.67437
1.62683
1.57991
1.53627
1.49688
1.46029
1.42354
1.38343
1.33716
1.28336
1.22292
1.1582
1.09199
1.02696
0.964707
0.905023
0.8459
0.784436
0.717724
0.643249
0.559448
0.466132
0.364033
0.254235
0.138035
0.0169108
-0.107337
-0.232048
-0.352978
-0.463727
-0.555866
-0.620052
-0.647661
-0.632548
-0.573744
-0.477489
-0.354978
-0.21742
-0.0730662
0.322253
0.937882
1.47478
1.90115
2.20782
2.4071
2.52245
2.57945
2.60253
2.61051
2.61273
2.60955
2.59663
2.56891
2.52169
2.45339
2.36832
2.27409
2.17887
2.09066
2.01515
1.95336
1.90194
1.85572
1.81024
1.76222
1.71118
1.66045
1.61431
1.57434
1.53851
1.50279
1.46309
1.41561
1.35846
1.29301
1.22256
1.15072
1.08105
1.01585
0.954832
0.89528
0.833393
0.765576
0.688653
0.600639
0.501514
0.392361
0.274431
0.149091
0.0177377
-0.118102
-0.256051
-0.391809
-0.518222
-0.625223
-0.701325
-0.735657
-0.719764
-0.65158
-0.539339
-0.398205
-0.242428
-0.081189
0.366353
1.06259
1.66083
2.12319
2.44065
2.63279
2.73137
2.76793
2.77258
2.76834
2.76519
2.76101
2.74834
2.72014
2.66922
2.59238
2.49535
2.38804
2.28017
2.1819
2.10065
2.03736
1.9868
1.94178
1.89666
1.84695
1.79177
1.73639
1.68748
1.64744
1.61328
1.57953
1.5411
1.49293
1.43224
1.36123
1.28445
1.20637
1.13173
1.06376
1.00212
0.943057
0.881617
0.813495
0.7347
0.642664
0.537727
0.421532
0.295503
0.161093
0.0195974
-0.12789
-0.279513
-0.431144
-0.574914
-0.698846
-0.788914
-0.831673
-0.815525
-0.736425
-0.605312
-0.443002
-0.267661
-0.0892553
0.416412
1.20303
1.86813
2.36685
2.6904
2.86884
2.94457
2.95507
2.93712
2.91903
2.91121
2.90767
2.89678
2.86966
2.81591
2.72966
2.61905
2.49712
2.37496
2.26547
2.17854
2.11493
2.06676
2.02411
1.98029
1.92916
1.86889
1.8076
1.75553
1.71608
1.68469
1.65392
1.6178
1.56957
1.50503
1.42773
1.34391
1.25885
1.17875
1.10822
1.04679
0.989265
0.929182
0.861632
0.781604
0.685647
0.574799
0.451562
0.317473
0.17411
0.0226793
-0.136348
-0.301938
-0.470451
-0.633409
-0.776562
-0.882894
-0.936221
-0.920703
-0.828801
-0.675142
-0.488653
-0.292482
-0.0970211
0.473419
1.36135
2.09927
2.63449
2.95791
3.11488
3.16134
3.13966
3.09449
3.06109
3.05
3.04938
3.04194
3.0179
2.96262
2.86575
2.73959
2.60147
2.46311
2.34092
2.24841
2.18606
2.14212
2.10306
2.06171
2.00957
1.94284
1.87388
1.81811
1.78013
1.75287
1.72612
1.69355
1.64609
1.57716
1.4926
1.40103
1.30805
1.22184
1.14893
1.08875
1.03396
0.97615
0.910139
0.829613
0.729702
0.612705
0.482431
0.340324
0.188159
0.0271362
-0.143129
-0.322796
-0.509128
-0.693253
-0.858153
-0.983236
-1.0498
-1.03638
-0.929343
-0.748404
-0.53422
-0.316105
-0.104196
0.538584
1.53989
2.35696
2.92873
3.24383
3.37015
3.38095
3.32041
3.24285
3.19292
3.18082
3.18612
3.18375
3.16532
3.11043
3.00118
2.85701
2.70131
2.54448
2.40771
2.30978
2.25075
2.21331
2.17898
2.14153
2.08912
2.01395
1.93489
1.87474
1.83944
1.81797
1.79623
1.76868
1.72316
1.64898
1.55591
1.4559
1.35389
1.26063
1.18558
1.12789
1.07726
1.02255
0.959154
0.879033
0.774926
0.651362
0.514097
0.364001
0.203204
0.0330769
-0.147907
-0.34153
-0.546504
-0.753947
-0.943367
-1.08976
-1.17287
-1.16392
-1.03885
-0.82447
-0.578501
-0.337601
-0.110451
0.613445
1.74107
2.64394
3.25254
3.54846
3.63335
3.60275
3.49608
3.38016
3.31272
3.30305
3.31815
3.32201
3.31231
3.26077
3.13647
2.97121
2.79696
2.61898
2.46515
2.36203
2.30904
2.28088
2.25209
2.22034
2.16894
2.0826
1.9901
1.92478
1.89388
1.88026
1.86423
1.8435
1.80159
1.72077
1.61759
1.50872
1.39627
1.29472
1.21774
1.16417
1.11934
1.06837
1.0088
0.930265
0.821396
0.690599
0.546507
0.388419
0.21914
0.0405601
-0.150378
-0.357558
-0.58183
-0.814959
-1.03196
-1.20209
-1.30577
-1.30507
-1.15832
-0.902428
-0.620004
-0.355911
-0.115428
0.700042
1.96744
2.96286
3.60947
3.87167
3.90251
3.82636
3.66546
3.50414
3.41854
3.41619
3.4461
3.45628
3.4592
3.41553
3.27203
3.08178
2.889
2.68657
2.51241
2.40441
2.36103
2.34559
2.32245
2.29867
2.25056
2.14919
2.03878
1.96744
1.94333
1.94021
1.92996
1.91826
1.88248
1.79281
1.67745
1.55976
1.43516
1.32361
1.24497
1.19754
1.16051
1.11349
1.05914
0.983849
0.869156
0.730138
0.579622
0.413467
0.235792
0.0495916
-0.150279
-0.370294
-0.614263
-0.875733
-1.12375
-1.31954
-1.44864
-1.46212
-1.28907
-0.980984
-0.656917
-0.369877
-0.11876
0.801199
2.22152
3.31607
4.00394
4.21274
4.17469
4.0519
3.8275
3.61222
3.50823
3.51992
3.57118
3.58568
3.60612
3.57733
3.40813
3.18787
2.97834
2.74729
2.54847
2.43601
2.40689
2.40853
2.38983
2.37693
2.33598
2.21411
2.07994
2.0017
1.98771
1.99851
1.99303
1.99308
1.96728
1.86526
1.73501
1.60954
1.47055
1.34669
1.2667
1.22802
1.20126
1.15765
1.11018
1.04054
0.918196
0.769543
0.613457
0.43902
0.252901
0.0601249
-0.147391
-0.379153
-0.64285
-0.935701
-1.21875
-1.44107
-1.60124
-1.6381
-1.43276
-1.05831
-0.687092
-0.378292
-0.120094
0.920953
2.50568
3.70524
4.44173
4.5701
4.44568
4.28043
3.9813
3.7015
3.57936
3.61411
3.69545
3.70868
3.75283
3.74981
3.54474
3.28795
3.0665
2.80129
2.57202
2.45568
2.44685
2.4713
2.45353
2.45533
2.4279
2.27775
2.11222
2.02635
2.02701
2.05633
2.05264
2.0679
2.05802
1.93811
1.78946
1.65884
1.50248
1.36322
1.28226
1.25566
1.24237
1.20038
1.1618
1.10143
0.968424
0.80817
0.648139
0.464937
0.27011
0.0720673
-0.141557
-0.38358
-0.666493
-0.994277
-1.31726
-1.56513
-1.76275
-1.83699
-1.59154
-1.13184
-0.708053
-0.379968
-0.11912
1.06521
2.82195
4.13094
4.93069
4.94107
4.70955
4.51444
4.12614
3.76864
3.62925
3.6988
3.82215
3.82272
3.89858
3.9381
3.68135
3.37958
3.15586
2.84877
2.58149
2.46207
2.48121
2.5362
2.51218
2.53367
2.52999
2.34039
2.13389
2.03991
2.06129
2.11544
2.10746
2.14235
2.15752
2.01111
1.83944
1.70897
1.53104
1.37229
1.29085
1.28055
1.285
1.24085
1.21369
1.16806
1.01961
0.845088
0.683988
0.491071
0.286943
0.085295
-0.132689
-0.383078
-0.683906
-1.05084
-1.42014
-1.68956
-1.93145
-2.06414
-1.76815
-1.198
-0.717029
-0.373822
-0.115602
1.24266
3.17173
4.59187
5.48173
5.32138
4.95802
4.75864
4.26138
3.80979
3.65486
3.77409
3.9563
3.92381
4.0418
4.14949
3.81675
3.45894
3.25013
2.88997
2.57491
2.45353
2.51028
2.60663
2.56345
2.61125
2.64728
2.40207
2.14271
2.04068
2.09061
2.17854
2.15535
2.21564
2.26975
2.08358
1.88289
1.76193
1.55632
1.37279
1.29155
1.30281
1.33092
1.27776
1.26526
1.24264
1.07132
0.878977
0.72164
0.517253
0.302783
0.0996769
-0.120776
-0.377259
-0.693561
-1.10467
-1.52908
-1.81146
-2.10432
-2.32668
-1.96601
-1.25183
-0.711044
-0.358984
-0.109407
1.46613
3.55542
5.08391
6.1102
5.7047
5.17977
5.02097
4.3863
3.82046
3.65285
3.84001
4.10534
4.00593
4.17975
4.39422
3.94865
3.52044
3.35492
2.925
2.54989
2.42815
2.53425
2.68746
2.60369
2.68658
2.78663
2.46243
2.13594
2.02673
2.11497
2.24963
2.19307
2.28632
2.4003
2.15429
1.91672
1.82076
1.57837
1.36338
1.28328
1.32246
1.38268
1.30912
1.31557
1.32835
1.12281
0.908005
0.762198
0.543269
0.316837
0.115112
-0.105895
-0.365905
-0.69362
-1.15485
-1.64697
-1.92701
-2.27643
-2.6341
-2.1894
-1.28655
-0.687071
-0.33491
-0.100534
1.75436
3.97192
5.59883
6.83778
6.08181
5.35945
5.31389
4.49967
3.79545
3.61956
3.89613
4.28011
4.06031
4.30807
4.6866
4.07325
3.55601
3.47849
2.95366
2.50357
2.38373
2.55301
2.78571
2.62744
2.7571
2.95739
2.52035
2.11025
1.99593
2.13416
2.33451
2.2159
2.35208
2.55698
2.22117
1.93656
1.88997
1.59704
1.34246
1.26483
1.3394
1.44401
1.33205
1.36311
1.42962
1.17287
0.929667
0.807453
0.568816
0.328096
0.131582
-0.0882107
-0.349055
-0.681867
-1.2001
-1.77845
-2.03136
-2.44027
-2.999
-2.44351
-1.29291
-0.642278
-0.3015
-0.0891286
2.13438
4.41795
6.1226
7.69483
6.43971
5.47656
5.65615
4.59919
3.72882
3.55114
3.94111
4.49605
4.0745
4.42022
5.04639
4.18463
3.55448
3.63283
2.97502
2.43257
2.31788
2.56583
2.91127
2.62686
2.81882
3.17222
2.57356
2.06178
1.94606
2.14749
2.44147
2.21714
2.40941
2.75052
2.28098
1.9363
1.97607
1.61179
1.30815
1.23489
1.35317
1.52018
1.34241
1.40572
1.5526
1.21965
0.940605
0.860146
0.593419
0.335293
0.149218
-0.067976
-0.327117
-0.655629
-1.2385
-1.93049
-2.11852
-2.58484
-3.43802
-2.73462
-1.25857
-0.574391
-0.259193
-0.0754876
2.64454
4.88727
6.63325
8.72343
6.76037
5.50406
6.07487
4.68056
3.6139
3.44375
3.97193
4.77474
4.03135
4.50672
5.50045
4.27401
3.50064
3.83484
2.98693
2.33305
2.22809
2.57087
3.07791
2.5911
2.86591
3.44804
2.61802
1.98615
1.87493
2.1534
2.58208
2.18752
2.45323
2.99554
2.32895
1.90762
2.08829
1.62141
1.2583
1.19209
1.36273
1.61851
1.3345
1.44029
1.70569
1.2604
0.936388
0.92431
0.616314
0.336852
0.168387
-0.0455204
-0.301005
-0.611729
-1.26714
-2.11312
-2.18129
-2.69447
-3.97292
-3.07012
-1.16719
-0.482191
-0.209036
-0.0600462
3.33835
5.36965
7.0983
9.98107
7.01923
5.40682
6.60813
4.73621
3.44339
3.29385
3.98283
5.14577
3.90769
4.55439
6.08475
4.32886
3.37427
4.10794
2.98519
2.20078
2.11197
2.56459
3.30445
2.50541
2.89016
3.80727
2.64714
1.87863
1.78056
2.14889
2.77219
2.11457
2.47644
3.31157
2.35824
1.8395
2.23937
1.6236
1.19057
1.13516
1.36613
1.74903
1.30058
1.46255
1.90013
1.29118
0.911269
1.00568
0.636282
0.330842
0.189794
-0.0212317
-0.272295
-0.546439
-1.28164
-2.34035
-2.21123
-2.74756
-4.63189
-3.45855
-0.997463
-0.366179
-0.1527
-0.0433484
4.28901
5.84965
7.47165
11.545
7.18334
5.1399
7.30806
4.75364
3.20965
3.09866
3.96395
5.64902
3.67292
4.54535
6.84666
4.33177
3.14906
4.48386
2.96261
2.03129
1.96745
2.54083
3.61623
2.35028
2.88045
4.27922
2.65077
1.73436
1.66148
2.12882
3.03318
1.98177
2.46937
3.72435
2.35939
1.71756
2.44664
1.61439
1.10246
1.06301
1.35998
1.92525
1.23042
1.46681
2.15076
1.30646
0.85793
1.11217
0.651427
0.314935
0.214594
0.0044741
-0.243408
-0.455494
-1.27551
-2.63107
-2.1987
-2.71498
-5.45107
-3.9096
-0.72203
-0.22941
-0.0924112
-0.0260011
5.59481
6.30519
7.6901
13.5175
7.20921
4.64654
8.24437
4.71318
2.90513
2.85682
3.89956
6.33723
3.28738
4.45593
7.84752
4.25924
2.79137
5.00481
2.90767
1.82017
1.79322
2.48973
4.04674
2.1004
2.82205
4.90166
2.614
1.54871
1.51708
2.08493
3.39333
1.76778
2.41924
4.26719
2.31961
1.52347
2.73311
1.58749
0.991493
0.975007
1.33894
2.165
1.11068
1.44559
2.47684
1.29869
0.767197
1.25442
0.65889
0.286376
0.244519
0.0311942
-0.217804
-0.334154
-1.23936
-3.01014
-2.13309
-2.55833
-6.47623
-4.43397
-0.306285
-0.0785174
-0.0307883
-0.00861794
)
;

boundaryField
{
    left
    {
        type            calculated;
        value           uniform 0;
    }
    right
    {
        type            calculated;
        value           uniform 0;
    }
    interface
    {
        type            calculated;
        value           nonuniform List<scalar> 
64
(
5.59481
6.30519
7.6901
13.5175
7.20921
4.64654
8.24437
4.71318
2.90513
2.85682
3.89956
6.33723
3.28738
4.45593
7.84752
4.25924
2.79137
5.00481
2.90767
1.82017
1.79322
2.48973
4.04674
2.1004
2.82205
4.90166
2.614
1.54871
1.51708
2.08493
3.39333
1.76778
2.41924
4.26719
2.31961
1.52347
2.73311
1.58749
0.991493
0.975007
1.33894
2.165
1.11068
1.44559
2.47684
1.29869
0.767197
1.25442
0.65889
0.286376
0.244519
0.0311942
-0.217804
-0.334154
-1.23936
-3.01014
-2.13309
-2.55833
-6.47623
-4.43397
-0.306285
-0.0785174
-0.0307883
-0.00861794
)
;
    }
    bottom
    {
        type            calculated;
        value           nonuniform List<scalar> 
64
(
0.00773163
0.0229587
0.0374995
0.0509671
0.0630682
0.0736173
0.0825347
0.0898327
0.0955921
0.099938
0.103017
0.104979
0.105972
0.106132
0.105586
0.104457
0.102859
0.100902
0.0986863
0.0963024
0.0938248
0.0913113
0.0888025
0.0863228
0.0838842
0.0814888
0.0791319
0.076804
0.0744914
0.0721773
0.0698421
0.0674649
0.0650257
0.0625076
0.0598977
0.0571886
0.0543766
0.0514606
0.0484388
0.0453074
0.0420587
0.0386815
0.0351633
0.0314931
0.0276651
0.023683
0.0195633
0.0153383
0.0110574
0.00678827
0.00261668
-0.00135552
-0.00501355
-0.00823507
-0.0108979
-0.0128897
-0.0141188
-0.0145252
-0.0140892
-0.0128372
-0.0108427
-0.00822237
-0.00512908
-0.00174265
)
;
    }
    defaultFaces
    {
        type            empty;
    }
}


// ************************************************************************* //
