/*--------------------------------*- C++ -*----------------------------------*\
| =========                 |                                                 |
| \\      /  F ield         | OpenFOAM: The Open Source CFD Toolbox           |
|  \\    /   O peration     | Version:  5.x                                   |
|   \\  /    A nd           | Web:      www.OpenFOAM.org                      |
|    \\/     M anipulation  |                                                 |
\*---------------------------------------------------------------------------*/
FoamFile
{
    version     2.0;
    format      ascii;
    class       volScalarField;
    location    "2.3001";
    object      gradTy;
}
// * * * * * * * * * * * * * * * * * * * * * * * * * * * * * * * * * * * * * //

dimensions      [0 -1 0 1 0 0 0];

internalField   nonuniform List<scalar> 
2048
(
-27.5101
-27.4762
-27.4096
-27.3121
-27.1866
-27.0363
-26.8649
-26.6759
-26.4727
-26.2587
-26.0368
-25.8096
-25.5793
-25.3479
-25.117
-24.8881
-24.6622
-24.4403
-24.2231
-24.0109
-23.8041
-23.6028
-23.4069
-23.2165
-23.0315
-22.8517
-22.6771
-22.5075
-22.343
-22.1835
-22.029
-21.8796
-21.7355
-21.5967
-21.4635
-21.3361
-21.2147
-21.0995
-20.9907
-20.8887
-20.7935
-20.7056
-20.6252
-20.5525
-20.488
-20.432
-20.3849
-20.3468
-20.3181
-20.2987
-20.2887
-20.2875
-20.2949
-20.3098
-20.3312
-20.3578
-20.388
-20.4199
-20.4519
-20.482
-20.5084
-20.5297
-20.5446
-20.5523
-27.5374
-27.5027
-27.4345
-27.3348
-27.2066
-27.0535
-26.8791
-26.6872
-26.4815
-26.2652
-26.0412
-25.8121
-25.5802
-25.3475
-25.1154
-24.8856
-24.659
-24.4366
-24.219
-24.0066
-23.7997
-23.5983
-23.4025
-23.2122
-23.0272
-22.8475
-22.6729
-22.5034
-22.3389
-22.1794
-22.0249
-21.8754
-21.7311
-21.5922
-21.4588
-21.3312
-21.2096
-21.0942
-20.9853
-20.883
-20.7877
-20.6995
-20.6188
-20.5459
-20.4811
-20.4249
-20.3775
-20.3393
-20.3105
-20.2912
-20.2814
-20.2807
-20.2887
-20.3044
-20.327
-20.3548
-20.3864
-20.4199
-20.4534
-20.4849
-20.5125
-20.5348
-20.5504
-20.5584
-27.5899
-27.5535
-27.4821
-27.378
-27.2447
-27.086
-26.9059
-26.7087
-26.4979
-26.2771
-26.0491
-25.8166
-25.5818
-25.3465
-25.1123
-24.8807
-24.6528
-24.4294
-24.2111
-23.9983
-23.7912
-23.5899
-23.3942
-23.204
-23.0192
-22.8396
-22.6652
-22.4957
-22.3313
-22.1717
-22.0171
-21.8674
-21.7229
-21.5837
-21.45
-21.322
-21.2
-21.0843
-20.975
-20.8724
-20.7767
-20.688
-20.6068
-20.5334
-20.468
-20.4112
-20.3634
-20.3249
-20.296
-20.2768
-20.2674
-20.2676
-20.2768
-20.2942
-20.3188
-20.3492
-20.3835
-20.4199
-20.4562
-20.4904
-20.5205
-20.5447
-20.5616
-20.5703
-27.6651
-27.6263
-27.5502
-27.4396
-27.2987
-27.1318
-26.9436
-26.7385
-26.5206
-26.2934
-26.0599
-25.8226
-25.5836
-25.3447
-25.1076
-24.8735
-24.6437
-24.4189
-24.1997
-23.9864
-23.7792
-23.5779
-23.3823
-23.1924
-23.0078
-22.8285
-22.6542
-22.4849
-22.3205
-22.1609
-22.0061
-21.8562
-21.7113
-21.5717
-21.4375
-21.309
-21.1866
-21.0704
-20.9606
-20.8575
-20.7612
-20.6719
-20.59
-20.5157
-20.4496
-20.392
-20.3435
-20.3044
-20.2753
-20.2563
-20.2475
-20.2487
-20.2596
-20.2795
-20.307
-20.3409
-20.3792
-20.4198
-20.4604
-20.4986
-20.5321
-20.5591
-20.578
-20.5877
-27.7617
-27.7195
-27.637
-27.5178
-27.3667
-27.1891
-26.9902
-26.7751
-26.5482
-26.3131
-26.0726
-25.8293
-25.5852
-25.3419
-25.1011
-24.864
-24.6318
-24.4053
-24.1851
-23.9713
-23.7639
-23.5627
-23.3675
-23.1779
-22.9937
-22.8146
-22.6406
-22.4715
-22.3072
-22.1475
-21.9926
-21.8423
-21.697
-21.5567
-21.4219
-21.2928
-21.1697
-21.0529
-20.9426
-20.8388
-20.7418
-20.6518
-20.569
-20.4937
-20.4265
-20.3678
-20.3184
-20.2786
-20.2491
-20.2301
-20.222
-20.2246
-20.2376
-20.2604
-20.2918
-20.3302
-20.3736
-20.4197
-20.4658
-20.5092
-20.5473
-20.578
-20.5994
-20.6104
-27.8784
-27.8319
-27.7412
-27.611
-27.4472
-27.2561
-27.0442
-26.817
-26.5794
-26.3349
-26.0865
-25.8363
-25.5862
-25.3379
-25.0927
-24.8521
-24.6172
-24.3888
-24.1674
-23.953
-23.7456
-23.5448
-23.35
-23.1609
-22.9771
-22.7985
-22.6248
-22.4559
-22.2917
-22.132
-21.9769
-21.8262
-21.6803
-21.5393
-21.4037
-21.2738
-21.1499
-21.0325
-20.9215
-20.8171
-20.7193
-20.6284
-20.5445
-20.468
-20.3994
-20.3394
-20.2887
-20.248
-20.2179
-20.1989
-20.1913
-20.1954
-20.2109
-20.2371
-20.273
-20.317
-20.3667
-20.4196
-20.4725
-20.5224
-20.5661
-20.6013
-20.6258
-20.6384
-28.0146
-27.9626
-27.8618
-27.718
-27.5385
-27.3313
-27.1039
-26.8627
-26.6128
-26.3579
-26.1006
-25.8429
-25.5863
-25.3323
-25.0823
-24.8377
-24.5998
-24.3693
-24.1467
-23.932
-23.7248
-23.5244
-23.3303
-23.1418
-22.9586
-22.7804
-22.6071
-22.4385
-22.2744
-22.1148
-21.9594
-21.8083
-21.6617
-21.5198
-21.3832
-21.2523
-21.1277
-21.0095
-20.8978
-20.7927
-20.6942
-20.6022
-20.5171
-20.4391
-20.369
-20.3073
-20.2551
-20.213
-20.1821
-20.1629
-20.1559
-20.1615
-20.1796
-20.2097
-20.2509
-20.3012
-20.3584
-20.4194
-20.4805
-20.5381
-20.5887
-20.6291
-20.6573
-20.6717
-28.1699
-28.1112
-27.9979
-27.8375
-27.6392
-27.4129
-27.1676
-26.9106
-26.6472
-26.3811
-26.1144
-25.8487
-25.5852
-25.3251
-25.0698
-24.8208
-24.5795
-24.3468
-24.1231
-23.9082
-23.7014
-23.5019
-23.3087
-23.121
-22.9385
-22.7608
-22.5878
-22.4196
-22.2558
-22.0963
-21.9407
-21.789
-21.6415
-21.4986
-21.3608
-21.2289
-21.1032
-20.9843
-20.872
-20.7663
-20.6669
-20.5739
-20.4874
-20.4078
-20.3357
-20.272
-20.2179
-20.1743
-20.1422
-20.1225
-20.1159
-20.123
-20.1438
-20.1782
-20.2251
-20.2829
-20.3487
-20.4191
-20.4898
-20.5565
-20.615
-20.6616
-20.694
-20.7106
-28.3444
-28.2774
-28.1489
-27.9685
-27.7479
-27.4995
-27.2338
-26.9592
-26.6814
-26.4035
-26.1272
-25.8533
-25.5826
-25.316
-25.0549
-24.8012
-24.5563
-24.3213
-24.0966
-23.8818
-23.676
-23.4776
-23.2856
-23.0989
-22.917
-22.7399
-22.5674
-22.3995
-22.2362
-22.0768
-21.921
-21.7688
-21.6202
-21.476
-21.3368
-21.2036
-21.0769
-20.9572
-20.8444
-20.7381
-20.6381
-20.544
-20.456
-20.3744
-20.3001
-20.2341
-20.1777
-20.1321
-20.0985
-20.078
-20.0716
-20.08
-20.1037
-20.1425
-20.1958
-20.2617
-20.3373
-20.4186
-20.5005
-20.5778
-20.6453
-20.699
-20.7361
-20.755
-28.5382
-28.4612
-28.3143
-28.1099
-27.8632
-27.5892
-27.3008
-27.0071
-26.7141
-26.4243
-26.1385
-25.8565
-25.5784
-25.305
-25.0379
-24.7789
-24.5301
-24.2928
-24.0673
-23.8531
-23.6485
-23.4519
-23.2613
-23.0758
-22.8946
-22.7179
-22.5459
-22.3786
-22.2157
-22.0566
-21.9008
-21.7478
-21.5981
-21.4523
-21.3114
-21.1767
-21.049
-20.9285
-20.8153
-20.7086
-20.608
-20.5129
-20.4233
-20.3395
-20.2627
-20.1939
-20.1348
-20.0868
-20.0514
-20.0298
-20.0232
-20.0327
-20.0591
-20.1025
-20.1625
-20.2374
-20.3241
-20.4178
-20.5126
-20.6019
-20.6798
-20.7414
-20.7836
-20.8051
-28.7519
-28.6628
-28.4937
-28.2609
-27.9835
-27.6804
-27.3667
-27.0527
-26.7441
-26.4427
-26.1478
-25.858
-25.5727
-25.2923
-25.0185
-24.7538
-24.5008
-24.2611
-24.0351
-23.8219
-23.6194
-23.4249
-23.2363
-23.052
-22.8716
-22.6953
-22.5236
-22.3569
-22.1947
-22.0362
-21.8803
-21.7267
-21.5755
-21.4277
-21.2849
-21.1485
-21.0195
-20.8985
-20.785
-20.6782
-20.5772
-20.4811
-20.3898
-20.3037
-20.2238
-20.1519
-20.0897
-20.0389
-20.0012
-19.9781
-19.971
-19.9813
-20.0101
-20.0581
-20.1252
-20.2099
-20.3088
-20.4165
-20.526
-20.6293
-20.7188
-20.789
-20.8368
-20.8608
-28.9864
-28.8825
-28.6869
-28.4202
-28.1074
-27.7713
-27.4299
-27.0945
-26.7705
-26.4582
-26.155
-25.858
-25.5656
-25.2779
-24.9968
-24.7259
-24.4683
-24.2262
-24.0001
-23.7886
-23.5888
-23.3972
-23.2108
-23.028
-22.8482
-22.672
-22.5006
-22.3346
-22.1735
-22.0157
-21.86
-21.7056
-21.5527
-21.4026
-21.2574
-21.119
-20.9887
-20.8671
-20.7537
-20.6472
-20.546
-20.4491
-20.356
-20.2672
-20.184
-20.1084
-20.0426
-19.9886
-19.9482
-19.9232
-19.9152
-19.9258
-19.9567
-20.0091
-20.0836
-20.1788
-20.2912
-20.4148
-20.541
-20.66
-20.7625
-20.842
-20.8955
-20.9222
-29.2426
-29.1209
-28.8934
-28.587
-28.2329
-27.8599
-27.4885
-27.131
-26.7921
-26.4701
-26.16
-25.8566
-25.5573
-25.262
-24.9731
-24.695
-24.4324
-24.1879
-23.962
-23.753
-23.557
-23.3691
-23.1854
-23.004
-22.8246
-22.6483
-22.477
-22.3118
-22.152
-21.9956
-21.8402
-21.6849
-21.53
-21.3771
-21.2289
-21.0882
-20.9566
-20.8346
-20.7216
-20.6158
-20.5149
-20.4173
-20.3223
-20.2305
-20.1436
-20.0638
-19.9939
-19.9363
-19.8928
-19.8655
-19.8561
-19.8665
-19.899
-19.9555
-20.0373
-20.1437
-20.2709
-20.4122
-20.5575
-20.6944
-20.8114
-20.9008
-20.96
-20.9891
-29.522
-29.3788
-29.1133
-28.7598
-28.3584
-27.9442
-27.5407
-27.1607
-26.808
-26.4782
-26.1629
-25.8541
-25.5482
-25.245
-24.9473
-24.6612
-24.393
-24.146
-23.9209
-23.7154
-23.5242
-23.341
-23.1605
-22.9805
-22.8012
-22.6242
-22.4526
-22.2884
-22.1306
-21.9759
-21.8211
-21.665
-21.5077
-21.3514
-21.1996
-21.0562
-20.9231
-20.801
-20.6889
-20.5844
-20.4843
-20.3861
-20.2891
-20.1941
-20.1028
-20.0184
-19.9439
-19.8822
-19.8353
-19.8052
-19.7939
-19.8035
-19.8369
-19.897
-19.9861
-20.1042
-20.2476
-20.4086
-20.5755
-20.733
-20.8658
-20.9654
-21.03
-21.0613
-29.8261
-29.6569
-29.3463
-28.9376
-28.4818
-28.0221
-27.5845
-27.182
-26.8174
-26.4823
-26.1639
-25.8509
-25.5388
-25.2273
-24.9196
-24.6242
-24.3498
-24.1004
-23.8765
-23.6757
-23.4908
-23.3133
-23.1364
-22.9579
-22.7782
-22.5998
-22.4274
-22.2645
-22.1093
-21.9572
-21.8033
-21.6462
-21.4862
-21.3256
-21.1694
-21.0229
-20.8882
-20.7662
-20.6557
-20.5533
-20.4544
-20.3559
-20.2569
-20.1583
-20.0621
-19.9723
-19.8928
-19.8266
-19.7759
-19.7426
-19.7289
-19.7371
-19.7707
-19.8336
-19.9297
-20.0599
-20.2207
-20.4036
-20.5953
-20.7761
-20.9264
-21.0363
-21.1055
-21.1385
-30.1568
-29.9563
-29.5922
-29.1187
-28.6007
-28.0915
-27.6182
-27.1936
-26.8193
-26.4822
-26.1635
-25.8477
-25.5297
-25.2095
-24.8902
-24.5838
-24.3027
-24.0507
-23.8286
-23.6339
-23.4572
-23.2868
-23.1139
-22.9365
-22.7559
-22.5749
-22.401
-22.2397
-22.0883
-21.9396
-21.787
-21.6288
-21.4657
-21.2999
-21.1383
-20.9882
-20.8519
-20.7302
-20.6221
-20.5226
-20.4258
-20.3271
-20.226
-20.1234
-20.0217
-19.9257
-19.8408
-19.7698
-19.7149
-19.6782
-19.6616
-19.6676
-19.7004
-19.7652
-19.8676
-20.0103
-20.1897
-20.3967
-20.6166
-20.8245
-20.9939
-21.1135
-21.1863
-21.22
-30.5163
-30.2778
-29.8509
-29.3015
-28.7126
-28.1502
-27.6399
-27.1938
-26.8132
-26.4782
-26.1626
-25.8451
-25.5215
-25.1923
-24.8593
-24.5397
-24.2513
-23.9967
-23.7769
-23.5901
-23.4236
-23.2619
-23.0932
-22.9167
-22.7347
-22.5497
-22.3731
-22.2139
-22.0675
-21.9236
-21.7726
-21.6133
-21.4467
-21.2743
-21.1061
-20.952
-20.814
-20.6929
-20.588
-20.4927
-20.3988
-20.3001
-20.1967
-20.0899
-19.9817
-19.8788
-19.7881
-19.712
-19.6526
-19.6122
-19.5923
-19.5954
-19.6261
-19.6916
-19.7996
-19.9549
-20.1541
-20.3874
-20.6396
-20.8791
-21.0691
-21.1975
-21.272
-21.3052
-30.9071
-30.6225
-30.1226
-29.4842
-28.8144
-28.1961
-27.648
-27.181
-26.7985
-26.4704
-26.162
-25.8438
-25.5146
-25.1765
-24.827
-24.4915
-24.1956
-23.9382
-23.7209
-23.5443
-23.3905
-23.2395
-23.075
-22.8989
-22.7149
-22.5239
-22.343
-22.1867
-22.0472
-21.9097
-21.7605
-21.5999
-21.4297
-21.2491
-21.0724
-20.9143
-20.7744
-20.6539
-20.5535
-20.4637
-20.3738
-20.2753
-20.1693
-20.0581
-19.9424
-19.8315
-19.7347
-19.6534
-19.5892
-19.5451
-19.5215
-19.5208
-19.5483
-19.6128
-19.7251
-19.8932
-20.1132
-20.3747
-20.6641
-20.9409
-21.1531
-21.2884
-21.362
-21.3932
-31.3321
-30.991
-30.4073
-29.6647
-28.9025
-28.2274
-27.6411
-27.1537
-26.7745
-26.4595
-26.1632
-25.8445
-25.5097
-25.1635
-24.7937
-24.4382
-24.1353
-23.875
-23.66
-23.4963
-23.3584
-23.2205
-23.0596
-22.8832
-22.6973
-22.4975
-22.3097
-22.1577
-22.0274
-21.8986
-21.751
-21.5889
-21.4152
-21.2242
-21.037
-20.8749
-20.733
-20.6131
-20.5187
-20.4361
-20.3515
-20.2528
-20.144
-20.0285
-19.904
-19.7836
-19.6809
-19.5942
-19.525
-19.4772
-19.4496
-19.4444
-19.4671
-19.5288
-19.6438
-19.8248
-20.0667
-20.3574
-20.6898
-21.0117
-21.2473
-21.3864
-21.4558
-21.483
-31.7947
-31.3834
-30.7058
-29.8405
-28.9726
-28.2426
-27.6182
-27.1097
-26.741
-26.4459
-26.1679
-25.8478
-25.5069
-25.1549
-24.7595
-24.3786
-24.0706
-23.8072
-23.5934
-23.4462
-23.3277
-23.206
-23.0475
-22.8698
-22.6828
-22.4701
-22.2721
-22.1263
-22.0082
-21.8909
-21.7443
-21.5802
-21.4042
-21.1998
-20.9989
-20.8339
-20.6899
-20.5698
-20.4833
-20.41
-20.3326
-20.233
-20.1209
-20.0017
-19.8665
-19.735
-19.6268
-19.5346
-19.4601
-19.4088
-19.3772
-19.3667
-19.3831
-19.4397
-19.5552
-19.7494
-20.0142
-20.3341
-20.7162
-21.0935
-21.3532
-21.4916
-21.5524
-21.5734
-32.2991
-31.7989
-31.0196
-30.0092
-29.0188
-28.2413
-27.5789
-27.0466
-26.6978
-26.4303
-26.1788
-25.8541
-25.5059
-25.1531
-24.7245
-24.3107
-24.0019
-23.7347
-23.5197
-23.3939
-23.2987
-23.1977
-23.0389
-22.8583
-22.6727
-22.4418
-22.2282
-22.0922
-21.9897
-21.8881
-21.7404
-21.5737
-21.398
-21.1758
-20.9571
-20.7915
-20.6449
-20.5234
-20.4476
-20.3856
-20.3177
-20.2159
-20.0998
-19.9785
-19.8301
-19.685
-19.5726
-19.475
-19.3945
-19.3404
-19.3047
-19.2883
-19.2965
-19.3455
-19.4586
-19.6666
-19.9556
-20.3025
-20.742
-21.1893
-21.4727
-21.6039
-21.6508
-21.6631
-32.8503
-32.2348
-31.3514
-30.1677
-29.0339
-28.2241
-27.5233
-26.961
-26.6453
-26.4132
-26.1992
-25.8633
-25.5057
-25.1617
-24.689
-24.2313
-23.9305
-23.6583
-23.4369
-23.3396
-23.2719
-23.1977
-23.0336
-22.8481
-22.6692
-22.4124
-22.1756
-22.0549
-21.9719
-21.8916
-21.7394
-21.5687
-21.3984
-21.1525
-20.9098
-20.7483
-20.5985
-20.4728
-20.4115
-20.363
-20.3081
-20.2016
-20.0804
-19.96
-19.7949
-19.6327
-19.5187
-19.4157
-19.3281
-19.2725
-19.2326
-19.2099
-19.2082
-19.2466
-19.3531
-19.5762
-19.8916
-20.2594
-20.7657
-21.3035
-21.608
-21.7228
-21.7496
-21.7505
-33.455
-32.6856
-31.7066
-30.3131
-29.0077
-28.1938
-27.4526
-26.8481
-26.5845
-26.3946
-26.2339
-25.875
-25.5038
-25.1861
-24.6532
-24.1358
-23.8586
-23.5787
-23.3422
-23.284
-23.247
-23.209
-23.0312
-22.8375
-22.6757
-22.3817
-22.1107
-22.0145
-21.9545
-21.9041
-21.7408
-21.5639
-21.4083
-21.1297
-20.8544
-20.7055
-20.551
-20.4163
-20.3753
-20.3423
-20.3055
-20.1897
-20.0618
-19.9478
-19.7607
-19.5766
-19.4657
-19.357
-19.2605
-19.2056
-19.1615
-19.1323
-19.1185
-19.1434
-19.2376
-19.4781
-19.8236
-20.2009
-20.7845
-21.4419
-21.7612
-21.8477
-21.8475
-21.8342
-34.1219
-33.1411
-32.0938
-30.442
-28.9263
-28.1563
-27.3691
-26.7011
-26.5178
-26.3735
-26.2899
-25.8875
-25.496
-25.2341
-24.6172
-24.0168
-23.79
-23.4976
-23.2311
-23.2283
-23.2234
-23.2358
-23.0308
-22.8239
-22.697
-22.3496
-22.0287
-21.9716
-21.9368
-21.9289
-21.7437
-21.5569
-21.4318
-21.1076
-20.787
-20.6652
-20.5033
-20.3514
-20.3397
-20.3229
-20.312
-20.1797
-20.0424
-19.9446
-19.7278
-19.5145
-19.4148
-19.2994
-19.1911
-19.1402
-19.0918
-19.0562
-19.0284
-19.0366
-19.1102
-19.3722
-19.7548
-20.1212
-20.794
-21.6131
-21.9344
-21.9772
-21.9425
-21.9128
-34.8628
-33.5843
-32.5275
-30.551
-28.7703
-28.122
-27.2766
-26.5096
-26.4498
-26.3469
-26.3767
-25.8985
-25.475
-25.3171
-24.581
-23.8639
-23.7311
-23.4172
-23.0972
-23.1752
-23.199
-23.2843
-23.0307
-22.8024
-22.7404
-22.3162
-21.9225
-21.9282
-21.9171
-21.9711
-21.7468
-21.5438
-21.4752
-21.086
-20.7017
-20.6307
-20.4565
-20.2748
-20.3062
-20.3038
-20.3309
-20.1707
-20.0198
-19.9539
-19.6959
-19.4433
-19.3676
-19.2435
-19.1187
-19.0775
-19.0237
-18.9826
-18.9383
-18.9276
-18.9685
-19.2581
-19.6906
-20.0129
-20.7878
-21.8289
-22.1295
-22.1092
-22.0329
-21.9848
-35.6943
-33.9875
-33.0303
-30.6365
-28.5125
-28.1077
-27.1804
-26.2586
-26.3887
-26.3089
-26.5085
-25.9037
-25.4295
-25.4518
-24.5446
-23.6618
-23.692
-23.3408
-22.931
-23.1294
-23.1699
-23.363
-23.0282
-22.7661
-22.8166
-22.2814
-21.7827
-21.8881
-21.8921
-22.0382
-21.7476
-21.5184
-21.5473
-21.065
-20.59
-20.6076
-20.4125
-20.181
-20.2773
-20.2827
-20.367
-20.1612
-19.9901
-19.9813
-19.6648
-19.3582
-19.3272
-19.1901
-19.0414
-19.0187
-18.9574
-18.9125
-18.8489
-18.8183
-18.8091
-19.1353
-19.6396
-19.8659
-20.7564
-22.1064
-22.3469
-22.2409
-22.1166
-22.049
-36.6394
-34.308
-33.6371
-30.6945
-28.1153
-28.1394
-27.0878
-25.9262
-26.3484
-26.2482
-26.7049
-25.8974
-25.3427
-25.662
-24.5076
-23.3884
-23.6878
-23.2729
-22.7188
-23.0994
-23.1288
-23.4847
-23.0194
-22.7041
-22.9407
-22.2448
-21.5961
-21.8586
-21.8558
-22.1407
-21.7431
-21.4717
-21.6611
-21.0442
-20.4401
-20.6041
-20.3736
-20.0626
-20.2577
-20.2557
-20.4269
-20.1492
-19.9475
-20.0344
-19.6343
-19.2527
-19.2977
-19.1401
-18.9564
-18.9657
-18.8926
-18.847
-18.7605
-18.7117
-18.6272
-19.0021
-19.6149
-19.6669
-20.6862
-22.469
-22.5855
-22.3685
-22.1918
-22.1045
-37.7306
-34.4821
-34.3993
-30.7207
-27.5266
-28.2556
-27.0079
-25.4814
-26.3515
-26.1457
-26.9941
-25.8712
-25.1899
-25.9812
-24.4694
-23.0133
-23.7409
-23.2189
-22.4409
-23.0987
-23.0634
-23.6668
-22.9991
-22.6006
-23.1341
-22.206
-21.3445
-21.8514
-21.7982
-22.2933
-21.7288
-21.3901
-21.8345
-21.0233
-20.2352
-20.6322
-20.3427
-19.9087
-20.2545
-20.2161
-20.5201
-20.1316
-19.8836
-20.1241
-19.6036
-19.1175
-19.2857
-19.0943
-18.8597
-18.9217
-18.8283
-18.7877
-18.6729
-18.6126
-18.4163
-18.8557
-19.6361
-19.3991
-20.5579
-22.9493
-22.8406
-22.4874
-22.2564
-22.1504
-39.0127
-34.4175
-35.3916
-30.7102
-26.676
-28.5111
-26.9518
-24.8804
-26.4328
-25.9708
-27.4151
-25.8138
-24.9359
-26.4551
-24.4288
-22.4945
-23.8831
-23.1861
-22.0699
-23.1486
-22.9544
-23.9341
-22.96
-22.4334
-23.4262
-22.164
-21.0036
-21.8854
-21.703
-22.5169
-21.6985
-21.2548
-22.0924
-21.0016
-19.9523
-20.7093
-20.3238
-19.7045
-20.2796
-20.1532
-20.6601
-20.1044
-19.7869
-20.2657
-19.5717
-18.9404
-19.3005
-19.0537
-18.7455
-18.8909
-18.7631
-18.7364
-18.5851
-18.5276
-18.1679
-18.6906
-19.7307
-19.0404
-20.3449
-23.592
-23.1029
-22.5922
-22.3089
-22.1866
-40.5472
-33.9833
-36.7194
-30.6566
-25.4688
-28.9826
-26.9324
-24.0626
-26.6451
-25.6761
-28.0218
-25.7105
-24.5325
-27.1461
-24.3838
-21.7755
-24.1587
-23.1828
-21.568
-23.2814
-22.7716
-24.3206
-22.8927
-22.1718
-23.8567
-22.117
-20.5406
-21.989
-21.5454
-22.8402
-21.6445
-21.0396
-22.4682
-20.9781
-19.5607
-20.8595
-20.3214
-19.4291
-20.3504
-20.0508
-20.8651
-20.0626
-19.641
-20.4798
-19.5371
-18.7044
-19.3553
-19.019
-18.6058
-18.8798
-18.6939
-18.6957
-18.4949
-18.4666
-17.8712
-18.498
-19.937
-18.5635
-20.011
-24.4572
-23.3557
-22.6771
-22.3484
-22.2129
-42.4176
-32.9987
-38.5285
-30.5515
-23.7806
-29.7741
-26.9641
-22.9461
-27.0653
-25.1916
-28.8875
-25.5422
-23.9144
-28.1365
-24.3314
-20.7819
-24.628
-23.2188
-20.8839
-23.5443
-22.471
-24.8729
-22.7849
-21.7743
-24.4784
-22.0621
-19.9122
-22.2037
-21.2884
-23.302
-21.5567
-20.7092
-23.0067
-20.9511
-19.0196
-21.1156
-20.3409
-19.0545
-20.4927
-19.8847
-21.1604
-19.9992
-19.4242
-20.7937
-19.4972
-18.3878
-19.4681
-18.9905
-18.4301
-18.8972
-18.6162
-18.6691
-18.3981
-18.4428
-17.5122
-18.2641
-20.3065
-17.9341
-19.5078
-25.6249
-23.572
-22.7369
-22.3741
-22.2297
-44.735
-31.2199
-41.0157
-30.3833
-21.45
-31.0244
-27.0623
-21.4221
-27.8025
-24.4167
-30.1103
-25.2851
-22.9954
-29.5339
-24.267
-19.4168
-25.3714
-23.3053
-19.9497
-24.0047
-21.9891
-25.6528
-22.6216
-21.186
-25.3603
-21.9949
-19.0623
-22.5887
-20.8789
-23.9547
-21.4226
-20.2172
-23.766
-20.9187
-18.2766
-21.5218
-20.3886
-18.5439
-20.7439
-19.621
-21.5799
-19.9062
-19.1086
-21.244
-19.4493
-17.963
-19.6641
-18.9689
-18.2054
-18.9568
-18.5244
-18.6629
-18.289
-18.4758
-17.0757
-17.9695
-20.9088
-17.1122
-18.7736
-27.2019
-23.7131
-22.7693
-22.3883
-22.2394
)
;

boundaryField
{
    left
    {
        type            calculated;
        value           nonuniform List<scalar> 
32
(
-27.5101
-27.5374
-27.5899
-27.6651
-27.7617
-27.8784
-28.0146
-28.1699
-28.3444
-28.5382
-28.7519
-28.9864
-29.2426
-29.522
-29.8261
-30.1568
-30.5163
-30.9071
-31.3321
-31.7947
-32.2991
-32.8503
-33.455
-34.1219
-34.8628
-35.6943
-36.6394
-37.7306
-39.0127
-40.5472
-42.4176
-44.735
)
;
    }
    right
    {
        type            calculated;
        value           nonuniform List<scalar> 
32
(
-20.5523
-20.5584
-20.5703
-20.5877
-20.6104
-20.6384
-20.6717
-20.7106
-20.755
-20.8051
-20.8608
-20.9222
-20.9891
-21.0613
-21.1385
-21.22
-21.3052
-21.3932
-21.483
-21.5734
-21.6631
-21.7505
-21.8342
-21.9128
-21.9848
-22.049
-22.1045
-22.1504
-22.1866
-22.2129
-22.2297
-22.2394
)
;
    }
    interface
    {
        type            calculated;
        value           nonuniform List<scalar> 
64
(
-46.0212
-30.097
-42.457
-30.2818
-20.1014
-31.7839
-27.1299
-20.5427
-28.2663
-23.9418
-30.8249
-25.1309
-22.4485
-30.3496
-24.2312
-18.6279
-25.823
-23.3627
-19.4104
-24.2942
-21.6936
-26.1086
-22.524
-20.8364
-25.876
-21.9575
-18.5741
-22.8324
-20.6283
-24.3362
-21.3422
-19.9242
-24.2092
-20.9009
-17.8473
-21.7687
-20.4205
-18.2495
-20.9021
-19.4598
-21.8256
-19.8513
-18.9221
-21.5086
-19.423
-17.7197
-19.7865
-18.9599
-18.0791
-18.9992
-18.4741
-18.6659
-18.2306
-18.5095
-16.8361
-17.8043
-21.2782
-16.6478
-18.3402
-28.1079
-23.7592
-22.7789
-22.3931
-22.2432
)
;
    }
    bottom
    {
        type            calculated;
        value           nonuniform List<scalar> 
64
(
-27.5029
-27.4693
-27.4031
-27.3062
-27.1814
-27.0319
-26.8612
-26.6729
-26.4704
-26.2571
-26.0357
-25.809
-25.5791
-25.348
-25.1174
-24.8887
-24.6631
-24.4413
-24.2242
-24.012
-23.8053
-23.6039
-23.4081
-23.2177
-23.0326
-22.8528
-22.6781
-22.5086
-22.3441
-22.1846
-22.0301
-21.8808
-21.7366
-21.5979
-21.4647
-21.3374
-21.216
-21.1008
-20.9921
-20.8901
-20.7951
-20.7072
-20.6268
-20.5542
-20.4898
-20.4339
-20.3868
-20.3488
-20.3201
-20.3007
-20.2906
-20.2893
-20.2965
-20.3111
-20.3323
-20.3585
-20.3883
-20.42
-20.4515
-20.4812
-20.5074
-20.5284
-20.5431
-20.5507
)
;
    }
    defaultFaces
    {
        type            empty;
    }
}


// ************************************************************************* //
