/*--------------------------------*- C++ -*----------------------------------*\
| =========                 |                                                 |
| \\      /  F ield         | OpenFOAM: The Open Source CFD Toolbox           |
|  \\    /   O peration     | Version:  5.x                                   |
|   \\  /    A nd           | Web:      www.OpenFOAM.org                      |
|    \\/     M anipulation  |                                                 |
\*---------------------------------------------------------------------------*/
FoamFile
{
    version     2.0;
    format      ascii;
    class       volScalarField;
    location    "2.3001";
    object      T;
}
// * * * * * * * * * * * * * * * * * * * * * * * * * * * * * * * * * * * * * //

dimensions      [0 0 0 1 0 0 0];

internalField   nonuniform List<scalar> 
2048
(
9.80241
9.80265
9.80313
9.80382
9.80472
9.8058
9.80702
9.80837
9.80983
9.81136
9.81295
9.81458
9.81623
9.81789
9.81955
9.82119
9.82281
9.82441
9.82597
9.82749
9.82898
9.83042
9.83183
9.8332
9.83453
9.83582
9.83707
9.83829
9.83947
9.84062
9.84173
9.8428
9.84384
9.84483
9.84579
9.84671
9.84758
9.84841
9.84919
9.84992
9.8506
9.85123
9.85181
9.85233
9.8528
9.8532
9.85354
9.85381
9.85402
9.85415
9.85423
9.85424
9.85418
9.85408
9.85393
9.85374
9.85352
9.8533
9.85307
9.85286
9.85267
9.85252
9.85241
9.85236
9.41568
9.4164
9.41781
9.41989
9.42256
9.42575
9.4294
9.43342
9.43774
9.44229
9.44701
9.45183
9.45673
9.46165
9.46655
9.47142
9.47621
9.48093
9.48554
9.49005
9.49444
9.49872
9.50288
9.50692
9.51085
9.51467
9.51838
9.52198
9.52547
9.52886
9.53214
9.53531
9.53838
9.54132
9.54415
9.54686
9.54944
9.55189
9.5542
9.55636
9.55838
9.56025
9.56196
9.56351
9.56488
9.56606
9.56707
9.56788
9.56849
9.5689
9.56911
9.56913
9.56898
9.56866
9.5682
9.56763
9.56699
9.56631
9.56563
9.56499
9.56442
9.56397
9.56365
9.56349
9.04531
9.0465
9.04886
9.05229
9.05671
9.06199
9.06801
9.07464
9.08175
9.08923
9.09698
9.1049
9.11293
9.12099
9.12902
9.13699
9.14484
9.15255
9.16009
9.16745
9.17463
9.18161
9.1884
9.195
9.20141
9.20765
9.2137
9.21958
9.22529
9.23082
9.23618
9.24136
9.24636
9.25118
9.2558
9.26022
9.26444
9.26844
9.27221
9.27576
9.27906
9.28212
9.28491
9.28744
9.28968
9.29163
9.29327
9.2946
9.29559
9.29626
9.29661
9.29663
9.29637
9.29583
9.29506
9.2941
9.29302
9.29187
9.29073
9.28965
9.2887
9.28794
9.2874
9.28713
8.69031
8.69199
8.69528
8.70009
8.70626
8.71363
8.72201
8.73122
8.74107
8.75143
8.76214
8.77308
8.78414
8.79525
8.80631
8.81726
8.82805
8.83864
8.84899
8.85909
8.86893
8.8785
8.8878
8.89685
8.90564
8.91418
8.92247
8.93053
8.93835
8.94593
8.95328
8.96038
8.96724
8.97385
8.9802
8.98627
8.99205
8.99754
9.00272
9.00759
9.01213
9.01633
9.02017
9.02365
9.02673
9.02942
9.03168
9.0335
9.03487
9.03578
9.03624
9.03626
9.03586
9.03509
9.03398
9.03262
9.03108
9.02944
9.0278
9.02626
9.02491
9.02382
9.02306
9.02266
8.34978
8.35195
8.35622
8.36243
8.37039
8.37987
8.39062
8.4024
8.41498
8.42817
8.44179
8.45568
8.46971
8.48378
8.49777
8.51162
8.52525
8.53861
8.55166
8.56439
8.57677
8.58882
8.60052
8.6119
8.62295
8.6337
8.64413
8.65427
8.6641
8.67365
8.6829
8.69185
8.70049
8.70882
8.71682
8.72447
8.73177
8.73869
8.74522
8.75136
8.75709
8.76238
8.76724
8.77163
8.77554
8.77894
8.7818
8.7841
8.78583
8.78698
8.78754
8.78754
8.787
8.78596
8.7845
8.78269
8.78065
8.77848
8.77632
8.77428
8.77249
8.77105
8.77004
8.76952
8.02289
8.02558
8.03085
8.03852
8.04833
8.05996
8.07312
8.08749
8.1028
8.11881
8.13529
8.15208
8.16902
8.18597
8.20282
8.21947
8.23584
8.25188
8.26752
8.28277
8.29759
8.312
8.32599
8.3396
8.35281
8.36566
8.37814
8.39026
8.40203
8.41345
8.42452
8.43524
8.4456
8.45558
8.46516
8.47434
8.48308
8.49138
8.49921
8.50657
8.51344
8.51981
8.52564
8.53093
8.53563
8.53972
8.54317
8.54595
8.54803
8.5494
8.55005
8.55001
8.5493
8.54798
8.54612
8.54383
8.54125
8.5385
8.53576
8.53318
8.53091
8.52908
8.52781
8.52715
7.70887
7.71211
7.71845
7.72766
7.73938
7.75325
7.76887
7.78586
7.80391
7.82272
7.84205
7.86169
7.88147
7.90124
7.92087
7.94025
7.95928
7.97789
7.99603
8.01368
8.03084
8.0475
8.06368
8.07941
8.09469
8.10954
8.12397
8.13798
8.1516
8.16481
8.17763
8.19004
8.20204
8.21361
8.22473
8.23537
8.24551
8.25513
8.26422
8.27275
8.28073
8.28812
8.2949
8.30105
8.30653
8.31131
8.31534
8.31858
8.321
8.32258
8.32332
8.32322
8.32233
8.32069
8.3184
8.31559
8.3124
8.30902
8.30564
8.30246
8.29966
8.29742
8.29584
8.29504
7.40702
7.41085
7.41834
7.42917
7.44291
7.4591
7.47725
7.49692
7.51772
7.53933
7.56147
7.58392
7.6065
7.62903
7.65137
7.6734
7.69501
7.71611
7.73665
7.75661
7.77599
7.7948
7.81307
7.83081
7.84806
7.86482
7.88111
7.89694
7.91231
7.92724
7.94173
7.95577
7.96935
7.98245
7.99504
8.00709
8.01858
8.02947
8.03976
8.04943
8.05847
8.06685
8.07456
8.08156
8.0878
8.09325
8.09785
8.10155
8.10431
8.1061
8.10691
8.10674
8.10564
8.10365
8.10089
8.0975
8.09366
8.08958
8.08549
8.08165
8.07827
8.07555
8.07366
8.07269
7.11667
7.12114
7.12987
7.14244
7.15833
7.17694
7.19771
7.22011
7.24369
7.26809
7.29302
7.31825
7.34357
7.36881
7.39381
7.41842
7.44252
7.46602
7.48887
7.51104
7.53254
7.55339
7.57364
7.59331
7.61243
7.63101
7.64908
7.66664
7.68369
7.70026
7.71635
7.73195
7.74705
7.76163
7.77564
7.78905
7.80183
7.81396
7.8254
7.83616
7.84622
7.85557
7.86417
7.872
7.87899
7.88511
7.89027
7.89443
7.89752
7.89952
7.9004
7.90015
7.89882
7.89646
7.89318
7.88916
7.88459
7.87973
7.87487
7.87029
7.86626
7.86304
7.86079
7.85963
6.83721
6.84239
6.85246
6.86691
6.88508
6.90626
6.92975
6.95493
6.98132
7.00851
7.0362
7.06416
7.09218
7.12007
7.14766
7.17479
7.20131
7.22714
7.2522
7.27647
7.29999
7.32279
7.34492
7.36642
7.38732
7.40765
7.4274
7.44661
7.46527
7.4834
7.50102
7.51812
7.53469
7.55069
7.56607
7.5808
7.59483
7.60814
7.6207
7.6325
7.64355
7.65382
7.6633
7.67194
7.67968
7.68645
7.69218
7.6968
7.70023
7.70244
7.70337
7.70304
7.70146
7.69869
7.69487
7.69015
7.68479
7.67907
7.67335
7.66795
7.66322
7.65942
7.65678
7.65543
6.56807
6.57401
6.58556
6.60205
6.62268
6.64656
6.67287
6.70091
6.73012
6.76009
6.79051
6.82116
6.85182
6.88232
6.91245
6.94203
6.97092
6.99898
7.02616
7.05245
7.07789
7.10252
7.12643
7.14967
7.17227
7.19426
7.21563
7.2364
7.25659
7.27622
7.2953
7.31384
7.33182
7.3492
7.36592
7.38192
7.39716
7.4116
7.42522
7.43803
7.45003
7.4612
7.47153
7.48096
7.48943
7.49687
7.50317
7.50825
7.51202
7.51444
7.51544
7.51501
7.51317
7.50998
7.50555
7.50009
7.49386
7.4872
7.48052
7.47422
7.4687
7.46429
7.46123
7.45966
6.30868
6.31549
6.32866
6.34738
6.37065
6.39739
6.42664
6.4576
6.48965
6.52238
6.55549
6.58878
6.62204
6.65508
6.68771
6.7197
6.75088
6.78111
6.81032
6.83852
6.86576
6.89214
6.91773
6.94262
6.96684
6.9904
7.01332
7.03559
7.05723
7.07828
7.09876
7.11869
7.13803
7.15675
7.17476
7.192
7.2084
7.22393
7.23857
7.25234
7.26525
7.27729
7.28844
7.29866
7.30787
7.31596
7.32284
7.32839
7.33251
7.33514
7.33621
7.33569
7.33358
7.32993
7.32487
7.3186
7.31142
7.30373
7.29599
7.2887
7.28232
7.27724
7.27373
7.27193
6.05852
6.0663
6.08127
6.10245
6.12857
6.15835
6.19066
6.22459
6.25949
6.29495
6.3307
6.36657
6.40237
6.43792
6.47299
6.50734
6.54075
6.57307
6.60423
6.63424
6.66318
6.69119
6.71838
6.74483
6.77059
6.79567
6.82006
6.84375
6.86677
6.88917
6.91099
6.93225
6.95292
6.97293
6.9922
7.01064
7.02816
7.04474
7.06036
7.07504
7.08881
7.10169
7.11365
7.12465
7.13459
7.14335
7.1508
7.15683
7.16132
7.16417
7.16531
7.1647
7.16231
7.1582
7.15247
7.14533
7.13713
7.1283
7.1194
7.11102
7.1037
7.09789
7.09389
7.09186
5.81712
5.82597
5.84296
5.86683
5.89604
5.92904
5.96453
6.00149
6.03924
6.07738
6.11571
6.15409
6.19238
6.23039
6.26787
6.30454
6.34013
6.37447
6.40748
6.43919
6.46973
6.49926
6.52795
6.55588
6.58312
6.60965
6.63544
6.66049
6.68482
6.7085
6.73159
6.75413
6.77608
6.79736
6.81787
6.83747
6.85608
6.87366
6.89021
6.90575
6.92035
6.93404
6.94679
6.95855
6.96922
6.97865
6.9867
6.99322
6.99808
7.00116
7.00239
7.00169
6.99904
6.99444
6.988
6.97995
6.97063
6.96057
6.95039
6.9408
6.93247
6.92588
6.92137
6.91909
5.58398
5.59405
5.61328
5.64013
5.6727
5.70913
5.74792
5.78795
5.82852
5.86928
5.9101
5.95093
5.99165
6.03208
6.07193
6.11088
6.1486
6.18489
6.21966
6.25298
6.285
6.31595
6.34604
6.37539
6.40403
6.43196
6.4591
6.48543
6.51099
6.53588
6.56019
6.58396
6.60715
6.62968
6.65139
6.67213
6.69179
6.71033
6.72775
6.74412
6.7595
6.77396
6.78748
6.8
6.8114
6.82152
6.83017
6.83719
6.84243
6.84577
6.84709
6.84632
6.8434
6.83832
6.83116
6.82213
6.81162
6.80021
6.78863
6.77772
6.76827
6.76086
6.75582
6.75329
5.35865
5.3701
5.39186
5.422
5.45821
5.49827
5.54048
5.58363
5.62698
5.67027
5.71349
5.75668
5.79977
5.84257
5.88477
5.92598
5.96579
6.00396
6.04041
6.07521
6.1086
6.14086
6.17226
6.20295
6.23294
6.26222
6.29066
6.31821
6.34492
6.37094
6.39641
6.42136
6.44577
6.46952
6.49242
6.51428
6.53496
6.55442
6.57266
6.58978
6.6059
6.6211
6.63537
6.64865
6.66079
6.67161
6.68088
6.68841
6.69405
6.69765
6.69908
6.69826
6.69509
6.68952
6.68161
6.67156
6.65977
6.6469
6.63379
6.62142
6.61077
6.6025
6.59693
6.59414
5.1407
5.15372
5.1783
5.2121
5.25226
5.29617
5.34191
5.38819
5.43426
5.47997
5.52548
5.57095
5.61634
5.66147
5.70602
5.74947
5.79132
5.83132
5.86936
5.90553
5.94015
5.97361
6.00624
6.0382
6.0695
6.10008
6.12978
6.15849
6.18627
6.21335
6.2399
6.26599
6.29158
6.31655
6.34063
6.36358
6.38525
6.40558
6.42459
6.44241
6.45922
6.47513
6.49014
6.50416
6.51706
6.52859
6.53849
6.54655
6.5526
6.55647
6.55804
6.55718
6.55378
6.54775
6.53908
6.52795
6.51481
6.50036
6.48555
6.47159
6.45965
6.45049
6.44438
6.44135
4.92972
4.94451
4.97226
5.01011
5.05459
5.10255
5.15193
5.20134
5.25004
5.29804
5.3457
5.39335
5.44099
5.48841
5.5353
5.581
5.62486
5.66661
5.70615
5.74358
5.77931
5.81384
5.84762
5.88078
5.91334
5.94521
5.97614
6.00593
6.0347
6.06274
6.09033
6.11752
6.14427
6.17044
6.19571
6.21973
6.24235
6.26351
6.28323
6.30169
6.31913
6.33572
6.35145
6.36622
6.37989
6.39215
6.40269
6.41129
6.41777
6.42193
6.42365
6.42278
6.41917
6.41269
6.40326
6.39103
6.37645
6.3603
6.34364
6.32791
6.3146
6.30453
6.2979
6.29465
4.72528
4.74211
4.7734
4.81576
4.86492
4.91713
4.97024
5.02279
5.074
5.12413
5.17378
5.22353
5.27335
5.32302
5.37226
5.42022
5.46605
5.5095
5.55047
5.58902
5.62571
5.6612
5.69604
5.73037
5.76414
5.79729
5.82942
5.86022
5.88989
5.91881
5.94737
5.97562
6.0035
6.03089
6.05735
6.08242
6.10597
6.12792
6.14828
6.16731
6.18533
6.20256
6.21899
6.23452
6.24897
6.26199
6.27318
6.28234
6.28925
6.29372
6.2956
6.29475
6.29098
6.28408
6.2739
6.26052
6.24442
6.22646
6.20777
6.19009
6.1753
6.16432
6.15723
6.15377
4.527
4.54617
4.58141
4.62879
4.68305
4.73968
4.79659
4.85227
4.90585
4.9579
5.00937
5.06112
5.11306
5.16493
5.21657
5.26683
5.31458
5.35968
5.40199
5.44153
5.47903
5.51534
5.55118
5.58662
5.62156
5.656
5.68934
5.72108
5.75153
5.78123
5.81071
5.83999
5.86897
5.8976
5.92527
5.95137
5.97582
5.99852
6.01945
6.03898
6.05751
6.07536
6.09249
6.10875
6.12401
6.13782
6.14968
6.1594
6.16676
6.17154
6.17361
6.17281
6.16891
6.16163
6.15073
6.13616
6.11848
6.0986
6.07767
6.05782
6.04148
6.02962
6.0221
6.01849
4.3345
4.35637
4.39598
4.44896
4.50877
4.56995
4.63073
4.68952
4.74527
4.79903
4.8521
4.90578
4.95979
5.01379
5.06789
5.12053
5.17014
5.21683
5.26043
5.30079
5.33894
5.37593
5.41272
5.44923
5.4853
5.52106
5.55563
5.58822
5.61934
5.64971
5.68007
5.71034
5.74038
5.77028
5.79921
5.82631
5.85163
5.87505
5.89648
5.91641
5.93538
5.95384
5.97165
5.98863
6.00475
6.01938
6.03191
6.0422
6.05002
6.05512
6.05739
6.05667
6.05269
6.04509
6.0335
6.01773
5.99838
5.97649
5.95311
5.9308
5.91283
5.90014
5.8923
5.88859
4.14738
4.17242
4.21681
4.27605
4.34193
4.4077
4.47239
4.53432
4.592
4.6472
4.70163
4.7572
4.81323
4.86925
4.92592
4.98104
5.03243
5.08066
5.1255
5.16652
5.20514
5.24264
5.28035
5.31791
5.35504
5.39219
5.42804
5.46138
5.49303
5.52393
5.55515
5.58638
5.61743
5.64867
5.67891
5.70696
5.73313
5.75726
5.77908
5.79934
5.81867
5.83772
5.85621
5.87389
5.8909
5.90641
5.91959
5.93046
5.93876
5.94418
5.94667
5.94606
5.94206
5.93421
5.92197
5.90497
5.88389
5.85993
5.83385
5.80874
5.78907
5.77567
5.7676
5.76385
3.96529
3.99407
4.04359
4.10986
4.1824
4.25268
4.32133
4.38644
4.44574
4.50211
4.5576
4.61505
4.67308
4.73095
4.79035
4.84813
4.90113
4.95088
4.99696
5.03842
5.07733
5.11516
5.1538
5.19239
5.23047
5.26912
5.30634
5.34029
5.37235
5.40362
5.43569
5.46788
5.49984
5.5325
5.56415
5.59307
5.62007
5.64491
5.66702
5.68751
5.70709
5.72675
5.74592
5.76426
5.78222
5.79868
5.81249
5.82393
5.83274
5.83846
5.84118
5.84071
5.83676
5.82873
5.81593
5.79766
5.77477
5.74875
5.71968
5.69134
5.66994
5.65597
5.64782
5.6441
3.78783
3.82112
3.87602
3.95021
4.0301
4.10462
4.17728
4.2457
4.30622
4.36347
4.41963
4.47905
4.53907
4.59851
4.66091
4.72158
4.77595
4.82719
4.87457
4.91622
4.95524
4.99316
5.03278
5.07241
5.11128
5.15159
5.19035
5.22473
5.25703
5.28847
5.32144
5.35458
5.3873
5.42153
5.45473
5.48438
5.51221
5.53778
5.56005
5.58067
5.60039
5.62068
5.64055
5.65946
5.67848
5.69596
5.71034
5.72237
5.73171
5.73772
5.74068
5.74038
5.73653
5.72841
5.71516
5.69557
5.67078
5.64277
5.61042
5.57827
5.55517
5.54083
5.53276
5.52915
3.61462
3.65345
3.71373
3.79695
3.88504
3.96324
4.03998
4.11195
4.17314
4.231
4.28736
4.34894
4.41099
4.47156
4.5373
4.60123
4.65657
4.70933
4.75814
4.79964
4.8386
4.87631
4.91705
4.95777
4.99716
5.03937
5.07989
5.11443
5.14685
5.17821
5.21218
5.24628
5.27953
5.31552
5.35046
5.38063
5.4093
5.4357
5.45794
5.4786
5.4983
5.51931
5.53989
5.55924
5.57943
5.59807
5.61291
5.62554
5.63546
5.6417
5.64492
5.64482
5.64115
5.63303
5.61947
5.59851
5.57169
5.5419
5.50593
5.46919
5.44449
5.43007
5.42227
5.41885
3.44522
3.49104
3.55633
3.64991
3.74727
3.82818
3.90914
3.98509
4.04621
4.10448
4.16036
4.22448
4.28866
4.34966
4.41927
4.48698
4.54267
4.597
4.64751
4.6884
4.72719
4.76428
4.80639
4.84826
4.88775
4.93222
4.97484
5.00917
5.04158
5.07251
5.10768
5.14281
5.17621
5.21425
5.25122
5.28158
5.31112
5.33847
5.36044
5.38108
5.40054
5.42241
5.44375
5.46332
5.48486
5.50483
5.51995
5.5332
5.54377
5.55018
5.55367
5.55378
5.55036
5.54234
5.52869
5.50625
5.47722
5.44604
5.40608
5.36372
5.33766
5.32352
5.31619
5.31305
3.27918
3.33401
3.40331
3.50897
3.61699
3.69903
3.78447
3.86509
3.92508
3.98369
4.0382
4.10545
4.17195
4.23233
4.30658
4.37879
4.43387
4.48991
4.54257
4.58222
4.6208
4.65671
4.70059
4.74376
4.78269
4.82992
4.87511
4.90868
4.94106
4.97105
5.00775
5.04401
5.077
5.11751
5.1569
5.18692
5.21742
5.24598
5.26733
5.28794
5.30685
5.32979
5.35198
5.37142
5.39458
5.41609
5.43123
5.44515
5.45646
5.46292
5.46671
5.46703
5.46396
5.45613
5.44265
5.41862
5.38707
5.35514
5.31081
5.26142
5.23445
5.22102
5.21438
5.2116
3.11597
3.18267
3.25404
3.37401
3.4945
3.57525
3.66564
3.752
3.80937
3.86853
3.92034
3.99169
4.06084
4.11901
4.19897
4.27671
4.32974
4.38779
4.44327
4.48076
4.51929
4.55319
4.59947
4.64417
4.68156
4.73226
4.78069
4.81268
4.84512
4.8735
4.91223
4.94979
4.98151
5.02509
5.06747
5.09637
5.12798
5.15812
5.17835
5.199
5.21694
5.24129
5.26444
5.28324
5.30837
5.33176
5.34648
5.36115
5.37336
5.37969
5.38384
5.38436
5.38172
5.37414
5.36123
5.33543
5.3009
5.26923
5.22013
5.16179
5.13467
5.12246
5.11672
5.11436
2.95497
3.03761
3.1077
3.2449
3.38031
3.45617
3.55231
3.646
3.69858
3.75894
3.80619
3.88306
3.9554
4.00904
4.09624
4.18093
4.2298
4.29033
4.34964
4.38367
4.42255
4.45329
4.50289
4.54948
4.58386
4.63904
4.69161
4.72085
4.75368
4.77944
4.82097
4.86013
4.88933
4.9368
4.98294
5.00958
5.04256
5.07484
5.09323
5.11416
5.13048
5.15674
5.18106
5.19845
5.22607
5.25175
5.26545
5.28101
5.29434
5.30027
5.30486
5.30553
5.30344
5.29613
5.28433
5.25653
5.21829
5.18836
5.13409
5.06421
5.03815
5.02773
5.02308
5.0212
2.79542
2.89975
2.96323
3.12157
3.27513
3.34092
3.4441
3.54742
3.5921
3.65503
3.69504
3.77949
3.85584
3.90161
3.99817
4.09176
4.13344
4.1972
4.26182
4.29049
4.33059
4.35649
4.41074
4.45975
4.48903
4.55007
4.60801
4.63279
4.66671
4.68844
4.73387
4.77507
4.79995
4.85246
4.90343
4.92615
4.96092
4.99613
5.01166
5.03334
5.04713
5.07603
5.10179
5.11667
5.14749
5.17605
5.18784
5.20453
5.21927
5.22441
5.22961
5.23034
5.22894
5.22183
5.21187
5.18178
5.13873
5.11268
5.05287
4.96794
4.94479
4.93676
4.93335
4.93199
2.6364
2.77044
2.81921
3.00393
3.17999
3.2284
3.34061
3.45678
3.48916
3.55708
3.586
3.68096
3.76253
3.79574
3.90457
4.00969
4.03994
4.1081
4.18006
4.20068
4.24354
4.26217
4.32294
4.37517
4.39638
4.46519
4.53011
4.54802
4.58431
4.59995
4.65083
4.69473
4.71276
4.7719
4.82915
4.84563
4.88282
4.92209
4.93327
4.95654
4.96649
4.99904
5.02666
5.03749
5.07249
5.1047
5.11332
5.13151
5.14808
5.15187
5.15792
5.15858
5.15806
5.15097
5.14382
5.11111
5.0616
5.0424
4.97676
4.87205
4.85458
4.84949
4.84742
4.8466
2.47676
2.6516
2.6738
2.89192
3.09622
3.1172
3.24143
3.37484
3.38871
3.46562
3.47799
3.58749
3.67603
3.69022
3.81527
3.93545
3.94837
4.02268
4.10478
4.11355
4.16166
4.16959
4.23946
4.29605
4.3051
4.38423
4.45827
4.46592
4.50667
4.51333
4.57183
4.61937
4.62707
4.69497
4.76042
4.76746
4.80803
4.85287
4.85764
4.88386
4.8881
4.9257
4.95576
4.96041
5.00094
5.03781
5.04152
5.06178
5.08072
5.08237
5.08967
5.09001
5.09064
5.08321
5.0802
5.04448
4.98613
4.97782
4.90619
4.77544
4.76763
4.76586
4.76517
4.7649
)
;

boundaryField
{
    left
    {
        type            zeroGradient;
    }
    right
    {
        type            zeroGradient;
    }
    interface
    {
        type            fixedValue;
        value           nonuniform List<scalar> 
64
(
2.39411
2.59754
2.59754
2.83753
3.06012
3.06012
3.1927
3.33794
3.33794
3.42262
3.42262
3.54235
3.63571
3.63571
3.77175
3.902
3.902
3.98072
4.06991
4.06991
4.12269
4.12269
4.19901
4.25862
4.25862
4.3448
4.42492
4.42492
4.46962
4.46962
4.5335
4.58359
4.58359
4.65744
4.72837
4.72837
4.77135
4.8201
4.8201
4.84891
4.84891
4.89005
4.92178
4.92178
4.96606
5.00599
5.00599
5.02774
5.04826
5.04826
5.0565
5.0565
5.05791
5.04997
5.04997
5.01251
4.94793
4.94793
4.87326
4.72497
4.72497
4.72497
4.72497
4.72497
)
;
    }
    bottom
    {
        type            fixedValue;
        value           uniform 10;
    }
    defaultFaces
    {
        type            empty;
    }
}


// ************************************************************************* //
