# vtk DataFile Version 2.0
generated by CFD-lab course output (written by Tobias Neckel) 
ASCII

DATASET STRUCTURED_GRID
DIMENSIONS  26 51 1 
POINTS 1326 float

0.000000 0.000000 0
0.020000 0.000000 0
0.040000 0.000000 0
0.060000 0.000000 0
0.080000 0.000000 0
0.100000 0.000000 0
0.120000 0.000000 0
0.140000 0.000000 0
0.160000 0.000000 0
0.180000 0.000000 0
0.200000 0.000000 0
0.220000 0.000000 0
0.240000 0.000000 0
0.260000 0.000000 0
0.280000 0.000000 0
0.300000 0.000000 0
0.320000 0.000000 0
0.340000 0.000000 0
0.360000 0.000000 0
0.380000 0.000000 0
0.400000 0.000000 0
0.420000 0.000000 0
0.440000 0.000000 0
0.460000 0.000000 0
0.480000 0.000000 0
0.500000 0.000000 0
0.000000 0.020000 0
0.020000 0.020000 0
0.040000 0.020000 0
0.060000 0.020000 0
0.080000 0.020000 0
0.100000 0.020000 0
0.120000 0.020000 0
0.140000 0.020000 0
0.160000 0.020000 0
0.180000 0.020000 0
0.200000 0.020000 0
0.220000 0.020000 0
0.240000 0.020000 0
0.260000 0.020000 0
0.280000 0.020000 0
0.300000 0.020000 0
0.320000 0.020000 0
0.340000 0.020000 0
0.360000 0.020000 0
0.380000 0.020000 0
0.400000 0.020000 0
0.420000 0.020000 0
0.440000 0.020000 0
0.460000 0.020000 0
0.480000 0.020000 0
0.500000 0.020000 0
0.000000 0.040000 0
0.020000 0.040000 0
0.040000 0.040000 0
0.060000 0.040000 0
0.080000 0.040000 0
0.100000 0.040000 0
0.120000 0.040000 0
0.140000 0.040000 0
0.160000 0.040000 0
0.180000 0.040000 0
0.200000 0.040000 0
0.220000 0.040000 0
0.240000 0.040000 0
0.260000 0.040000 0
0.280000 0.040000 0
0.300000 0.040000 0
0.320000 0.040000 0
0.340000 0.040000 0
0.360000 0.040000 0
0.380000 0.040000 0
0.400000 0.040000 0
0.420000 0.040000 0
0.440000 0.040000 0
0.460000 0.040000 0
0.480000 0.040000 0
0.500000 0.040000 0
0.000000 0.060000 0
0.020000 0.060000 0
0.040000 0.060000 0
0.060000 0.060000 0
0.080000 0.060000 0
0.100000 0.060000 0
0.120000 0.060000 0
0.140000 0.060000 0
0.160000 0.060000 0
0.180000 0.060000 0
0.200000 0.060000 0
0.220000 0.060000 0
0.240000 0.060000 0
0.260000 0.060000 0
0.280000 0.060000 0
0.300000 0.060000 0
0.320000 0.060000 0
0.340000 0.060000 0
0.360000 0.060000 0
0.380000 0.060000 0
0.400000 0.060000 0
0.420000 0.060000 0
0.440000 0.060000 0
0.460000 0.060000 0
0.480000 0.060000 0
0.500000 0.060000 0
0.000000 0.080000 0
0.020000 0.080000 0
0.040000 0.080000 0
0.060000 0.080000 0
0.080000 0.080000 0
0.100000 0.080000 0
0.120000 0.080000 0
0.140000 0.080000 0
0.160000 0.080000 0
0.180000 0.080000 0
0.200000 0.080000 0
0.220000 0.080000 0
0.240000 0.080000 0
0.260000 0.080000 0
0.280000 0.080000 0
0.300000 0.080000 0
0.320000 0.080000 0
0.340000 0.080000 0
0.360000 0.080000 0
0.380000 0.080000 0
0.400000 0.080000 0
0.420000 0.080000 0
0.440000 0.080000 0
0.460000 0.080000 0
0.480000 0.080000 0
0.500000 0.080000 0
0.000000 0.100000 0
0.020000 0.100000 0
0.040000 0.100000 0
0.060000 0.100000 0
0.080000 0.100000 0
0.100000 0.100000 0
0.120000 0.100000 0
0.140000 0.100000 0
0.160000 0.100000 0
0.180000 0.100000 0
0.200000 0.100000 0
0.220000 0.100000 0
0.240000 0.100000 0
0.260000 0.100000 0
0.280000 0.100000 0
0.300000 0.100000 0
0.320000 0.100000 0
0.340000 0.100000 0
0.360000 0.100000 0
0.380000 0.100000 0
0.400000 0.100000 0
0.420000 0.100000 0
0.440000 0.100000 0
0.460000 0.100000 0
0.480000 0.100000 0
0.500000 0.100000 0
0.000000 0.120000 0
0.020000 0.120000 0
0.040000 0.120000 0
0.060000 0.120000 0
0.080000 0.120000 0
0.100000 0.120000 0
0.120000 0.120000 0
0.140000 0.120000 0
0.160000 0.120000 0
0.180000 0.120000 0
0.200000 0.120000 0
0.220000 0.120000 0
0.240000 0.120000 0
0.260000 0.120000 0
0.280000 0.120000 0
0.300000 0.120000 0
0.320000 0.120000 0
0.340000 0.120000 0
0.360000 0.120000 0
0.380000 0.120000 0
0.400000 0.120000 0
0.420000 0.120000 0
0.440000 0.120000 0
0.460000 0.120000 0
0.480000 0.120000 0
0.500000 0.120000 0
0.000000 0.140000 0
0.020000 0.140000 0
0.040000 0.140000 0
0.060000 0.140000 0
0.080000 0.140000 0
0.100000 0.140000 0
0.120000 0.140000 0
0.140000 0.140000 0
0.160000 0.140000 0
0.180000 0.140000 0
0.200000 0.140000 0
0.220000 0.140000 0
0.240000 0.140000 0
0.260000 0.140000 0
0.280000 0.140000 0
0.300000 0.140000 0
0.320000 0.140000 0
0.340000 0.140000 0
0.360000 0.140000 0
0.380000 0.140000 0
0.400000 0.140000 0
0.420000 0.140000 0
0.440000 0.140000 0
0.460000 0.140000 0
0.480000 0.140000 0
0.500000 0.140000 0
0.000000 0.160000 0
0.020000 0.160000 0
0.040000 0.160000 0
0.060000 0.160000 0
0.080000 0.160000 0
0.100000 0.160000 0
0.120000 0.160000 0
0.140000 0.160000 0
0.160000 0.160000 0
0.180000 0.160000 0
0.200000 0.160000 0
0.220000 0.160000 0
0.240000 0.160000 0
0.260000 0.160000 0
0.280000 0.160000 0
0.300000 0.160000 0
0.320000 0.160000 0
0.340000 0.160000 0
0.360000 0.160000 0
0.380000 0.160000 0
0.400000 0.160000 0
0.420000 0.160000 0
0.440000 0.160000 0
0.460000 0.160000 0
0.480000 0.160000 0
0.500000 0.160000 0
0.000000 0.180000 0
0.020000 0.180000 0
0.040000 0.180000 0
0.060000 0.180000 0
0.080000 0.180000 0
0.100000 0.180000 0
0.120000 0.180000 0
0.140000 0.180000 0
0.160000 0.180000 0
0.180000 0.180000 0
0.200000 0.180000 0
0.220000 0.180000 0
0.240000 0.180000 0
0.260000 0.180000 0
0.280000 0.180000 0
0.300000 0.180000 0
0.320000 0.180000 0
0.340000 0.180000 0
0.360000 0.180000 0
0.380000 0.180000 0
0.400000 0.180000 0
0.420000 0.180000 0
0.440000 0.180000 0
0.460000 0.180000 0
0.480000 0.180000 0
0.500000 0.180000 0
0.000000 0.200000 0
0.020000 0.200000 0
0.040000 0.200000 0
0.060000 0.200000 0
0.080000 0.200000 0
0.100000 0.200000 0
0.120000 0.200000 0
0.140000 0.200000 0
0.160000 0.200000 0
0.180000 0.200000 0
0.200000 0.200000 0
0.220000 0.200000 0
0.240000 0.200000 0
0.260000 0.200000 0
0.280000 0.200000 0
0.300000 0.200000 0
0.320000 0.200000 0
0.340000 0.200000 0
0.360000 0.200000 0
0.380000 0.200000 0
0.400000 0.200000 0
0.420000 0.200000 0
0.440000 0.200000 0
0.460000 0.200000 0
0.480000 0.200000 0
0.500000 0.200000 0
0.000000 0.220000 0
0.020000 0.220000 0
0.040000 0.220000 0
0.060000 0.220000 0
0.080000 0.220000 0
0.100000 0.220000 0
0.120000 0.220000 0
0.140000 0.220000 0
0.160000 0.220000 0
0.180000 0.220000 0
0.200000 0.220000 0
0.220000 0.220000 0
0.240000 0.220000 0
0.260000 0.220000 0
0.280000 0.220000 0
0.300000 0.220000 0
0.320000 0.220000 0
0.340000 0.220000 0
0.360000 0.220000 0
0.380000 0.220000 0
0.400000 0.220000 0
0.420000 0.220000 0
0.440000 0.220000 0
0.460000 0.220000 0
0.480000 0.220000 0
0.500000 0.220000 0
0.000000 0.240000 0
0.020000 0.240000 0
0.040000 0.240000 0
0.060000 0.240000 0
0.080000 0.240000 0
0.100000 0.240000 0
0.120000 0.240000 0
0.140000 0.240000 0
0.160000 0.240000 0
0.180000 0.240000 0
0.200000 0.240000 0
0.220000 0.240000 0
0.240000 0.240000 0
0.260000 0.240000 0
0.280000 0.240000 0
0.300000 0.240000 0
0.320000 0.240000 0
0.340000 0.240000 0
0.360000 0.240000 0
0.380000 0.240000 0
0.400000 0.240000 0
0.420000 0.240000 0
0.440000 0.240000 0
0.460000 0.240000 0
0.480000 0.240000 0
0.500000 0.240000 0
0.000000 0.260000 0
0.020000 0.260000 0
0.040000 0.260000 0
0.060000 0.260000 0
0.080000 0.260000 0
0.100000 0.260000 0
0.120000 0.260000 0
0.140000 0.260000 0
0.160000 0.260000 0
0.180000 0.260000 0
0.200000 0.260000 0
0.220000 0.260000 0
0.240000 0.260000 0
0.260000 0.260000 0
0.280000 0.260000 0
0.300000 0.260000 0
0.320000 0.260000 0
0.340000 0.260000 0
0.360000 0.260000 0
0.380000 0.260000 0
0.400000 0.260000 0
0.420000 0.260000 0
0.440000 0.260000 0
0.460000 0.260000 0
0.480000 0.260000 0
0.500000 0.260000 0
0.000000 0.280000 0
0.020000 0.280000 0
0.040000 0.280000 0
0.060000 0.280000 0
0.080000 0.280000 0
0.100000 0.280000 0
0.120000 0.280000 0
0.140000 0.280000 0
0.160000 0.280000 0
0.180000 0.280000 0
0.200000 0.280000 0
0.220000 0.280000 0
0.240000 0.280000 0
0.260000 0.280000 0
0.280000 0.280000 0
0.300000 0.280000 0
0.320000 0.280000 0
0.340000 0.280000 0
0.360000 0.280000 0
0.380000 0.280000 0
0.400000 0.280000 0
0.420000 0.280000 0
0.440000 0.280000 0
0.460000 0.280000 0
0.480000 0.280000 0
0.500000 0.280000 0
0.000000 0.300000 0
0.020000 0.300000 0
0.040000 0.300000 0
0.060000 0.300000 0
0.080000 0.300000 0
0.100000 0.300000 0
0.120000 0.300000 0
0.140000 0.300000 0
0.160000 0.300000 0
0.180000 0.300000 0
0.200000 0.300000 0
0.220000 0.300000 0
0.240000 0.300000 0
0.260000 0.300000 0
0.280000 0.300000 0
0.300000 0.300000 0
0.320000 0.300000 0
0.340000 0.300000 0
0.360000 0.300000 0
0.380000 0.300000 0
0.400000 0.300000 0
0.420000 0.300000 0
0.440000 0.300000 0
0.460000 0.300000 0
0.480000 0.300000 0
0.500000 0.300000 0
0.000000 0.320000 0
0.020000 0.320000 0
0.040000 0.320000 0
0.060000 0.320000 0
0.080000 0.320000 0
0.100000 0.320000 0
0.120000 0.320000 0
0.140000 0.320000 0
0.160000 0.320000 0
0.180000 0.320000 0
0.200000 0.320000 0
0.220000 0.320000 0
0.240000 0.320000 0
0.260000 0.320000 0
0.280000 0.320000 0
0.300000 0.320000 0
0.320000 0.320000 0
0.340000 0.320000 0
0.360000 0.320000 0
0.380000 0.320000 0
0.400000 0.320000 0
0.420000 0.320000 0
0.440000 0.320000 0
0.460000 0.320000 0
0.480000 0.320000 0
0.500000 0.320000 0
0.000000 0.340000 0
0.020000 0.340000 0
0.040000 0.340000 0
0.060000 0.340000 0
0.080000 0.340000 0
0.100000 0.340000 0
0.120000 0.340000 0
0.140000 0.340000 0
0.160000 0.340000 0
0.180000 0.340000 0
0.200000 0.340000 0
0.220000 0.340000 0
0.240000 0.340000 0
0.260000 0.340000 0
0.280000 0.340000 0
0.300000 0.340000 0
0.320000 0.340000 0
0.340000 0.340000 0
0.360000 0.340000 0
0.380000 0.340000 0
0.400000 0.340000 0
0.420000 0.340000 0
0.440000 0.340000 0
0.460000 0.340000 0
0.480000 0.340000 0
0.500000 0.340000 0
0.000000 0.360000 0
0.020000 0.360000 0
0.040000 0.360000 0
0.060000 0.360000 0
0.080000 0.360000 0
0.100000 0.360000 0
0.120000 0.360000 0
0.140000 0.360000 0
0.160000 0.360000 0
0.180000 0.360000 0
0.200000 0.360000 0
0.220000 0.360000 0
0.240000 0.360000 0
0.260000 0.360000 0
0.280000 0.360000 0
0.300000 0.360000 0
0.320000 0.360000 0
0.340000 0.360000 0
0.360000 0.360000 0
0.380000 0.360000 0
0.400000 0.360000 0
0.420000 0.360000 0
0.440000 0.360000 0
[...]
POINT_DATA 1326 

VECTORS velocity float
0.000144 0.000000 0
0.000000 0.000000 0
0.000000 0.000000 0
0.000000 0.000000 0
0.000000 0.000000 0
0.000000 0.000000 0
-0.000000 0.000000 0
-0.000000 0.000000 0
-0.000000 0.000000 0
-0.000000 0.000000 0
-0.000000 0.000000 0
-0.000000 0.000000 0
-0.000000 0.000000 0
-0.000000 0.000000 0
-0.000000 0.000000 0
-0.000000 0.000000 0
-0.000000 0.000000 0
-0.000000 0.000000 0
-0.000000 0.000000 0
-0.000000 0.000000 0
-0.000000 0.000000 0
-0.000000 0.000000 0
-0.000000 0.000000 0
-0.000000 0.000000 0
-0.000000 0.000000 0
-0.000000 0.000000 0
0.000363 -0.000000 0
0.000864 0.000483 0
0.000820 0.000579 0
0.000630 0.000634 0
0.000303 0.000695 0
-0.000155 0.000758 0
-0.000733 0.000818 0
-0.001414 0.000869 0
-0.002181 0.000910 0
-0.003015 0.000941 0
-0.003900 0.000963 0
-0.004817 0.000977 0
-0.005754 0.000983 0
-0.006694 0.000983 0
-0.007627 0.000976 0
-0.008540 0.000963 0
-0.009422 0.000944 0
-0.010260 0.000920 0
-0.011046 0.000890 0
-0.011768 0.000855 0
-0.012415 0.000816 0
-0.012978 0.000774 0
-0.013445 0.000727 0
-0.013799 0.000662 0
-0.014008 0.000493 0
-0.013999 0.000108 0
0.000443 -0.000000 0
0.000990 0.000509 0
0.000933 0.000843 0
0.000585 0.001127 0
-0.000039 0.001395 0
-0.000915 0.001645 0
-0.002014 0.001868 0
-0.003306 0.002058 0
-0.004755 0.002211 0
-0.006329 0.002328 0
-0.007995 0.002411 0
-0.009723 0.002463 0
-0.011486 0.002487 0
-0.013255 0.002483 0
-0.015008 0.002455 0
-0.016721 0.002404 0
-0.018372 0.002330 0
-0.019939 0.002234 0
-0.021401 0.002117 0
-0.022738 0.001979 0
-0.023927 0.001820 0
-0.024949 0.001639 0
-0.025778 0.001431 0
-0.026387 0.001173 0
-0.026752 0.000809 0
-0.026909 0.000335 0
0.000420 -0.000000 0
0.000889 0.000603 0
0.000706 0.001236 0
0.000145 0.001857 0
-0.000792 0.002447 0
-0.002078 0.002986 0
-0.003671 0.003461 0
-0.005529 0.003862 0
-0.007603 0.004185 0
-0.009847 0.004434 0
-0.012219 0.004610 0
-0.014674 0.004720 0
-0.017175 0.004768 0
-0.019683 0.004758 0
-0.022165 0.004694 0
-0.024586 0.004579 0
-0.026914 0.004414 0
-0.029119 0.004201 0
-0.031171 0.003941 0
-0.033038 0.003634 0
-0.034692 0.003280 0
-0.036101 0.002876 0
-0.037238 0.002418 0
-0.038075 0.001888 0
-0.038600 0.001267 0
-0.038842 0.000591 0
0.000347 -0.000000 0
0.000713 0.000833 0
0.000334 0.001839 0
-0.000497 0.002876 0
-0.001781 0.003870 0
-0.003486 0.004777 0
-0.005565 0.005571 0
-0.007962 0.006241 0
-0.010623 0.006782 0
-0.013489 0.007196 0
-0.016508 0.007491 0
-0.019627 0.007672 0
-0.022798 0.007748 0
-0.025973 0.007725 0
-0.029109 0.007610 0
-0.032164 0.007405 0
-0.035097 0.007116 0
-0.037869 0.006743 0
-0.040442 0.006288 0
-0.042778 0.005752 0
-0.044840 0.005136 0
-0.046592 0.004438 0
-0.048004 0.003657 0
-0.049047 0.002787 0
-0.049712 0.001828 0
-0.050003 0.000826 0
0.000256 -0.000000 0
0.000517 0.001225 0
-0.000088 0.002699 0
-0.001227 0.004225 0
-0.002886 0.005688 0
-0.005025 0.007022 0
-0.007587 0.008189 0
-0.010512 0.009172 0
-0.013733 0.009965 0
-0.017186 0.010572 0
-0.020810 0.011000 0
-0.024543 0.011262 0
-0.028330 0.011365 0
-0.032116 0.011321 0
-0.035849 0.011137 0
-0.039480 0.010819 0
-0.042961 0.010372 0
-0.046246 0.009798 0
-0.049289 0.009101 0
-0.052048 0.008283 0
-0.054480 0.007346 0
-0.056546 0.006293 0
-0.058211 0.005125 0
-0.059446 0.003849 0
-0.060236 0.002475 0
-0.060571 0.001050 0
0.000161 0.000000 0
0.000320 0.001787 0
-0.000521 0.003836 0
-0.001985 0.005927 0
-0.004035 0.007920 0
-0.006616 0.009730 0
-0.009663 0.011310 0
-0.013104 0.012639 0
-0.016868 0.013709 0
-0.020882 0.014526 0
-0.025077 0.015100 0
-0.029387 0.015444 0
-0.033749 0.015572 0
-0.038101 0.015496 0
-0.042386 0.015226 0
-0.046548 0.014770 0
-0.050534 0.014134 0
-0.054292 0.013323 0
-0.057771 0.012342 0
-0.060922 0.011195 0
-0.063700 0.009886 0
-0.066061 0.008421 0
-0.067968 0.006809 0
-0.069390 0.005064 0
-0.070303 0.003205 0
-0.070693 0.001279 0
0.000067 0.000000 0
0.000130 0.002516 0
-0.000944 0.005256 0
-0.002737 0.007991 0
-0.005183 0.010572 0
-0.008209 0.012902 0
-0.011737 0.014930 0
-0.015687 0.016629 0
-0.019978 0.017995 0
-0.024532 0.019033 0
-0.029273 0.019758 0
-0.034129 0.020185 0
-0.039033 0.020331 0
-0.043917 0.020211 0
-0.048720 0.019837 0
-0.053380 0.019220 0
-0.057839 0.018367 0
-0.062041 0.017287 0
-0.065931 0.015984 0
-0.069456 0.014465 0
-0.072567 0.012738 0
-0.075216 0.010814 0
-0.077365 0.008706 0
-0.078976 0.006436 0
-0.080023 0.004030 0
-0.080484 0.001535 0
-0.000023 0.000000 0
-0.000050 0.003407 0
-0.001350 0.006954 0
-0.003466 0.010418 0
-0.006304 0.013644 0
-0.009771 0.016537 0
-0.013774 0.019040 0
-0.018221 0.021131 0
-0.023025 0.022806 0
-0.028099 0.024073 0
-0.033364 0.024950 0
-0.038743 0.025456 0
-0.044162 0.025612 0
-0.049552 0.025435 0
-0.054845 0.024941 0
-0.059978 0.024142 0
-0.064889 0.023047 0
-0.069516 0.021667 0
-0.073803 0.020009 0
-0.077692 0.018082 0
-0.081131 0.015898 0
-0.084071 0.013471 0
-0.086467 0.010821 0
-0.088280 0.007975 0
-0.089479 0.004966 0
-0.090037 0.001844 0
-0.000108 0.000000 0
-0.000220 0.004453 0
-0.001736 0.008923 0
-0.004165 0.013198 0
-0.007385 0.017129 0
-0.011282 0.020624 0
-0.015748 0.023632 0
-0.020679 0.026132 0
-0.025979 0.028125 0
-0.031556 0.029625 0
-0.037325 0.030654 0
-0.043204 0.031235 0
-0.049117 0.031392 0
-0.054990 0.031146 0
-0.060754 0.030516 0
-0.066342 0.029516 0
-0.071688 0.028158 0
-0.076729 0.026453 0
-0.081405 0.024411 0
-0.085656 0.022045 0
-0.089427 0.019369 0
-0.092666 0.016402 0
-0.095324 0.013168 0
-0.097359 0.009700 0
-0.098734 0.006038 0
-0.099419 0.002236 0
-0.000187 0.000000 0
-0.000379 0.005645 0
-0.002100 0.011151 0
-0.004828 0.016319 0
-0.008416 0.021014 0
-0.012728 0.025152 0
-0.017641 0.028690 0
-0.023039 0.031615 0
-0.028818 0.033935 0
-0.034879 0.035671 0
-0.041132 0.036850 0
-0.047491 0.037500 0
-0.053877 0.037650 0
-0.060216 0.037325 0
-0.066434 0.036545 0
-0.072462 0.035327 0
-0.078233 0.033687 0
-0.083681 0.031637 0
-0.088745 0.029189 0
-0.093362 0.026357 0
-0.097474 0.023160 0
-0.101026 0.019620 0
-0.103966 0.015766 0
-0.106247 0.011637 0
-0.107829 0.007278 0
-0.108676 0.002747 0
-0.000262 0.000000 0
-0.000528 0.006975 0
-0.002441 0.013624 0
-0.005452 0.019766 0
-0.009390 0.025282 0
-0.014098 0.030102 0
-0.019438 0.034195 0
-0.025284 0.037561 0
-0.031521 0.040217 0
-0.038045 0.042191 0
-0.044761 0.043518 0
-0.051581 0.044233 0
-0.058423 0.044369 0
-0.065209 0.043955 0
-0.071866 0.043014 0
-0.078323 0.041567 0
-0.084512 0.039630 0
-0.090365 0.037217 0
-0.095818 0.034344 0
-0.100808 0.031027 0
-0.105273 0.027285 0
-0.109157 0.023146 0
-0.112403 0.018642 0
-0.114960 0.013815 0
-0.116783 0.008719 0
-0.117831 0.003415 0
-0.000331 0.000000 0
-0.000667 0.008434 0
-0.002760 0.016327 0
-0.006036 0.023520 0
-0.010302 0.029912 0
-0.015385 0.035453 0
-0.021130 0.040128 0
-0.027399 0.043950 0
-0.034071 0.046948 0
-0.041036 0.049163 0
-0.048194 0.050638 0
-0.055454 0.051414 0
-0.062731 0.051531 0
-0.069949 0.051020 0
-0.077031 0.049911 0
-0.083906 0.048225 0
-0.090505 0.045981 0
-0.096761 0.043195 0
-0.102606 0.039884 0
-0.107978 0.036065 0
-0.112812 0.031761 0
-0.117047 0.027002 0
-0.120626 0.021822 0
-0.123491 0.016270 0
-0.125593 0.010401 0
-0.126885 0.004284 0
-0.000395 0.000000 0
-0.000794 0.010013 0
-0.003054 0.019246 0
-0.006577 0.027561 0
-0.011149 0.034883 0
-0.016580 0.041181 0
-0.022704 0.046462 0
-0.029371 0.050755 0
-0.036452 0.054106 0
-0.043832 0.056565 0
-0.051407 0.058188 0
-0.059084 0.059023 0
-0.066777 0.059116 0
-0.074407 0.058506 0
-0.081899 0.057223 0
-0.089181 0.055293 0
-0.096184 0.052737 0
-0.102840 0.049571 0
-0.109081 0.045814 0
-0.114843 0.041484 0
-0.120060 0.036607 0
-0.124668 0.031212 0
-0.128606 0.025338 0
-0.131813 0.019035 0
-0.134233 0.012365 0
-0.135812 0.005399 0
-0.000453 0.000000 0
-0.000911 0.011703 0
-0.003323 0.022362 0
-0.007071 0.031867 0
-0.011924 0.040168 0
-0.017677 0.047260 0
-0.024150 0.053171 0
-0.031186 0.057951 0
-0.038648 0.061662 0
-0.046414 0.064370 0
-0.054379 0.066142 0
-0.062447 0.067036 0
-0.070532 0.067106 0
-0.078554 0.066394 0
-0.086439 0.064937 0
-0.094114 0.062762 0
-0.101511 0.059892 0
-0.108563 0.056344 0
-0.115201 0.052139 0
-0.121360 0.047296 0
-0.126973 0.041839 0
-0.131974 0.035800 0
-0.136297 0.029219 0
-0.139878 0.022149 0
-0.142654 0.014652 0
-0.144566 0.006808 0
-0.000505 0.000000 0
-0.001016 0.013492 0
-0.003564 0.025658 0
-0.007517 0.036415 0
-0.012624 0.045741 0
-0.018669 0.053659 0
-0.025460 0.060223 0
-0.032832 0.065505 0
-0.040641 0.069586 0
-0.048762 0.072549 0
-0.057087 0.074473 0
-0.065518 0.075428 0
-0.073968 0.075476 0
-0.082358 0.074665 0
-0.090614 0.073035 0
-0.098665 0.070618 0
-0.106443 0.067437 0
-0.113881 0.063513 0
-0.120913 0.058863 0
-0.127472 0.053508 0
-0.133489 0.047473 0
-0.138898 0.040788 0
-0.143629 0.033495 0
-0.147614 0.025645 0
-0.150784 0.017305 0
-0.153072 0.008559 0
-0.000551 0.000000 0
-0.001108 0.015371 0
-0.003778 0.029115 0
-0.007910 0.041179 0
-0.013243 0.051572 0
-0.019547 0.060348 0
-0.026622 0.067586 0
-0.034295 0.073384 0
-0.042416 0.077845 0
-0.050858 0.081069 0
-0.059508 0.083150 0
-0.068268 0.084170 0
-0.077052 0.084198 0
-0.085781 0.083292 0
-0.094382 0.081496 0
-0.102786 0.078844 0
-0.110927 0.075360 0
-0.118738 0.071067 0
-0.126154 0.065982 0
-0.133109 0.060124 0
-0.139534 0.053518 0
-0.145361 0.046192 0
-0.150518 0.038188 0
-0.154931 0.029556 0
-0.158527 0.020362 0
-0.161232 0.010697 0
-0.000591 0.000000 0
-0.001187 0.017328 0
-0.003961 0.032712 0
-0.008248 0.046133 0
-0.013777 0.057630 0
-0.020306 0.067290 0
-0.027628 0.075223 0
-0.035564 0.081551 0
-0.043959 0.086401 0
-0.052681 0.089893 0
-0.061618 0.092136 0
-0.070671 0.093225 0
-0.079753 0.093241 0
-0.088786 0.092247 0
-0.097700 0.090293 0
-0.106428 0.087415 0
-0.114905 0.083641 0
-0.123067 0.078992 0
-0.130851 0.073486 0
-0.138191 0.067141 0
-0.145019 0.059977 0
-0.151266 0.052024 0
-0.156858 0.043317 0
-0.161718 0.033907 0
-0.165767 0.023858 0
-0.168923 0.013266 0
-0.000623 0.000000 0
-0.001252 0.019351 0
-0.004112 0.036429 0
-0.008529 0.051247 0
-0.014221 0.063882 0
-0.020940 0.074451 0
-0.028470 0.083096 0
-0.036627 0.089966 0
-0.045254 0.095214 0
-0.054214 0.098980 0
-0.063395 0.101391 0
-0.072698 0.102556 0
-0.082036 0.102566 0
-0.091333 0.101492 0
-0.100522 0.099390 0
-0.109536 0.096300 0
-0.118316 0.092251 0
-0.126799 0.087265 0
-0.134924 0.081358 0
-0.142628 0.074545 0
-0.149845 0.066845 0
-0.156504 0.058283 0
-0.162530 0.048892 0
-0.167845 0.038717 0
-0.172365 0.027820 0
-0.176002 0.016303 0
-0.000649 0.000000 0
-0.001303 0.021426 0
-0.004231 0.040242 0
-0.008751 0.056494 0
-0.014573 0.070293 0
-0.021443 0.081792 0
-0.029141 0.091163 0
-0.037476 0.098587 0
-0.046288 0.104240 0
-0.055441 0.108287 0
-0.064819 0.110871 0
-0.074323 0.112118 0
-0.083869 0.112129 0
-0.093383 0.110985 0
-0.102799 0.108748 0
-0.112056 0.105461 0
-0.121094 0.101155 0
-0.129858 0.095853 0
-0.138288 0.089568 0
-0.146325 0.082314 0
-0.153903 0.074105 0
-0.160954 0.064961 0
-0.167403 0.054911 0
-0.173170 0.043994 0
-0.178168 0.032266 0
-0.182303 0.019837 0
-0.000667 0.000000 0
-0.001339 0.023542 0
-0.004316 0.044129 0
-0.008911 0.061842 0
-0.014830 0.076827 0
-0.021813 0.089271 0
-0.029635 0.099381 0
-0.038104 0.107367 0
-0.047054 0.113432 0
-0.056349 0.117763 0
-0.065871 0.120525 0
-0.075524 0.121859 0
-0.085224 0.121879 0
-0.094900 0.120675 0
-0.104489 0.118315 0
-0.113932 0.114848 0
-0.123177 0.110306 0
-0.132170 0.104711 0
-0.140856 0.098076 0
-0.149180 0.090412 0
-0.157080 0.081727 0
-0.164490 0.072035 0
-0.171336 0.061360 0
-0.177539 0.049734 0
-0.183009 0.037205 0
-0.187649 0.023887 0
-0.000678 0.000000 0
-0.001360 0.025685 0
-0.004368 0.048067 0
-0.009012 0.067261 0
-0.014993 0.083447 0
-0.022050 0.096849 0
-0.029953 0.107705 0
-0.038507 0.116258 0
-0.047545 0.122738 0
-0.056928 0.127356 0
-0.066539 0.130299 0
-0.076282 0.131723 0
-0.086076 0.131757 0
-0.095851 0.130502 0
-0.105549 0.128032 0
-0.115115 0.124402 0
-0.124502 0.119645 0
-0.133661 0.113784 0
-0.142542 0.106830 0
-0.151095 0.098790 0
-0.159262 0.089667 0
-0.166982 0.079470 0
-0.174185 0.068212 0
-0.180791 0.055918 0
-0.186712 0.042628 0
-0.191848 0.028460 0
-0.000682 0.000000 0
-0.001368 0.027842 0
-0.004388 0.052033 0
-0.009053 0.072720 0
-0.015065 0.090118 0
-0.022156 0.104483 0
-0.030096 0.116090 0
-0.038687 0.125210 0
-0.047760 0.132105 0
-0.057175 0.137009 0
-0.066815 0.140132 0
-0.076584 0.141648 0
-0.086404 0.141700 0
-0.096209 0.140400 0
-0.105944 0.137832 0
-0.115560 0.134054 0
-0.125013 0.129104 0
-0.134262 0.123003 0
-0.143264 0.115763 0
-0.151972 0.107384 0
-0.160338 0.097866 0
-0.168304 0.087210 0
-0.175804 0.075421 0
-0.182765 0.062513 0
-0.189098 0.048514 0
-0.194706 0.033548 0
-0.000679 0.000000 0
-0.001362 0.030001 0
-0.004378 0.056005 0
-0.009040 0.078189 0
-0.015049 0.096802 0
-0.022138 0.112133 0
-0.030072 0.124488 0
-0.038652 0.134174 0
-0.047706 0.141478 0
-0.057094 0.146663 0
-0.066698 0.149960 0
-0.076425 0.151565 0
-0.086199 0.151634 0
-0.095956 0.150294 0
-0.105647 0.147635 0
-0.115228 0.143723 0
-0.124663 0.138600 0
-0.133914 0.132287 0
-0.142948 0.124793 0
-0.151726 0.116116 0
-0.160204 0.106250 0
-0.168334 0.095188 0
-0.176057 0.082925 0
-0.183304 0.069464 0
-0.189993 0.054821 0
-0.196028 0.039122 0
-0.000671 0.000000 0
-0.001345 0.032150 0
-0.004342 0.059964 0
-0.008979 0.083643 0
-0.014956 0.103467 0
-0.022007 0.119758 0
-0.029894 0.132856 0
-0.038414 0.143096 0
-0.047395 0.150799 0
-0.056695 0.156254 0
-0.066198 0.159716 0
-0.075810 0.161400 0
-0.085458 0.161483 0
-0.095084 0.160100 0
-0.104642 0.157356 0
-0.114095 0.153321 0
-0.123414 0.148042 0
-0.132569 0.141541 0
-0.141534 0.133826 0
-0.150279 0.124892 0
-0.158770 0.114727 0
-0.166966 0.103316 0
-0.174819 0.090643 0
-0.182266 0.076700 0
-0.189234 0.061490 0
-0.195632 0.045139 0
-0.000659 0.000000 0
-0.001319 0.034281 0
-0.004284 0.063891 0
-0.008877 0.089056 0
-0.014799 0.110083 0
-0.021780 0.127323 0
-0.029582 0.141148 0
-0.037997 0.151927 0
-0.046851 0.160011 0
-0.056002 0.165718 0
-0.065333 0.169327 0
-0.074753 0.171077 0
-0.084191 0.171160 0
-0.093595 0.169730 0
-0.102924 0.166899 0
-0.112148 0.162748 0
-0.121244 0.157326 0
-0.130192 0.150659 0
-0.138975 0.142755 0
-0.147573 0.133604 0
-0.155962 0.123190 0
-0.164111 0.111489 0
-0.171982 0.098476 0
-0.179525 0.084131 0
-0.186676 0.068440 0
-0.193354 0.051530 0
-0.000644 0.000000 0
-0.001287 0.036385 0
-0.004213 0.067774 0
-0.008749 0.094410 0
-0.014596 0.116623 0
-0.021482 0.134793 0
-0.029163 0.149324 0
-0.037429 0.160618 0
-0.046105 0.169056 0
-0.055044 0.174988 0
-0.064132 0.178719 0
-0.073280 0.180511 0
-0.082421 0.180577 0
-0.091507 0.179085 0
-0.100503 0.176161 0
-0.109388 0.171894 0
-0.118146 0.166338 0
-0.126768 0.159525 0
-0.135245 0.151459 0
-0.143569 0.142131 0
-0.151727 0.131518 0
-0.159701 0.119589 0
-0.167465 0.106309 0
-0.174982 0.091646 0
-0.182200 0.075571 0
-0.189052 0.058208 0
-0.000629 0.000000 0
-0.001254 0.038459 0
-0.004137 0.071605 0
-0.008610 0.099691 0
-0.014371 0.123068 0
-0.021142 0.142142 0
-0.028674 0.157348 0
-0.036754 0.169122 0
-0.045200 0.177878 0
-0.053867 0.183997 0
-0.062640 0.187815 0
-0.071433 0.189618 0
-0.080183 0.189639 0
-0.088849 0.188064 0
-0.097404 0.185032 0
-0.105833 0.180643 0
-0.114131 0.174958 0
-0.122298 0.168011 0
-0.130337 0.159808 0
-0.138250 0.150339 0
-0.146038 0.139575 0
-0.153697 0.127480 0
-0.161214 0.114009 0
-0.168566 0.099118 0
-0.175719 0.082762 0
-0.182620 0.065063 0
-0.000616 0.000000 0
-0.001225 0.040503 0
-0.004070 0.075382 0
-0.008482 0.104895 0
-0.014154 0.129406 0
-0.020800 0.149349 0
-0.028163 0.165188 0
-0.036021 0.177396 0
-0.044191 0.186421 0
-0.052525 0.192680 0
-0.060910 0.196538 0
-0.069264 0.198307 0
-0.077528 0.198246 0
-0.085669 0.196558 0
-0.093667 0.193397 0
-0.101518 0.188873 0
-0.109226 0.183056 0
-0.116803 0.175983 0
-0.124263 0.167663 0
-0.131622 0.158085 0
-0.138892 0.147217 0
-0.146085 0.135016 0
-0.153203 0.121431 0
-0.160240 0.106403 0
-0.167180 0.089877 0
-0.173987 0.071965 0
-0.000610 0.000000 0
-0.001207 0.042522 0
-0.004026 0.079114 0
-0.008391 0.110027 0
-0.013984 0.135638 0
-0.020506 0.156403 0
-0.027687 0.172822 0
-0.035298 0.185402 0
-0.043148 0.194634 0
-0.051091 0.200969 0
-0.059014 0.204806 0
-0.066839 0.206487 0
-0.074518 0.206296 0
-0.082023 0.204455 0
-0.089346 0.201134 0
-0.096492 0.196455 0
-0.103476 0.190496 0
-0.110323 0.183300 0
-0.117059 0.174879 0
-0.123712 0.165220 0
-0.130312 0.154290 0
-0.136881 0.142043 0
-0.143441 0.128417 0
-0.150003 0.113347 0
-0.156569 0.096761 0
-0.163126 0.078767 0
-0.000615 0.000000 0
-0.001210 0.044529 0
-0.004026 0.082819 0
-0.008372 0.115106 0
-0.013911 0.141774 0
-0.020322 0.163304 0
-0.027319 0.180232 0
-0.034661 0.193109 0
-0.042153 0.202466 0
-0.049645 0.208797 0
-0.057031 0.212539 0
-0.064240 0.214064 0
-0.071230 0.213682 0
-0.077985 0.211637 0
-0.084508 0.208117 0
-0.090817 0.203255 0
-0.096940 0.197139 0
-0.102913 0.189817 0
-0.108775 0.181305 0
-0.114571 0.171590 0
-0.120341 0.160638 0
-0.126127 0.148398 0
-0.131965 0.134805 0
-0.137885 0.119783 0
-0.143908 0.103251 0
-0.150046 0.085306 0
-0.000637 0.000000 0
-0.001246 0.046543 0
-0.004094 0.086528 0
-0.008467 0.120165 0
-0.013992 0.147840 0
-0.020321 0.170064 0
-0.027144 0.187413 0
-0.034204 0.200488 0
-0.041301 0.209871 0
-0.048286 0.216100 0
-0.055058 0.219653 0
-0.061555 0.220938 0
-0.067748 0.220293 0
-0.073633 0.217985 0
-0.079229 0.214218 0
-0.084565 0.209139 0
-0.089685 0.202844 0
-0.094637 0.195387 0
-0.099476 0.186789 0
-0.104259 0.177038 0
-0.109043 0.166099 0
-0.113883 0.153918 0
-0.118833 0.140427 0
-0.123942 0.125543 0
-0.129252 0.109175 0
-0.134795 0.091409 0
-0.000684 0.000000 0
-0.001330 0.048596 0
-0.004265 0.090291 0
-0.008729 0.125256 0
-0.014304 0.153880 0
-0.020595 0.176708 0
-0.027264 0.194368 0
-0.034036 0.207518 0
-0.040703 0.216801 0
-0.047120 0.222806 0
-0.053196 0.226059 0
-0.058881 0.227006 0
-0.064162 0.226013 0
-0.069053 0.223371 0
-0.073586 0.219301 0
-0.077809 0.213964 0
-0.081781 0.207463 0
-0.085564 0.199861 0
-0.089229 0.191179 0
-0.092845 0.181408 0
-0.096486 0.170514 0
-0.100221 0.158441 0
-0.104121 0.145116 0
-0.108252 0.130454 0
-0.112675 0.114357 0
-0.117447 0.096897 0
-0.000768 0.000000 0
-0.001483 0.050733 0
-0.004579 0.094179 0
-0.009227 0.130456 0
-0.014935 0.159958 0
-0.021253 0.183276 0
-0.027799 0.201106 0
-0.034279 0.214180 0
-0.040481 0.223208 0
-0.046264 0.228844 0
-0.051552 0.231665 0
-0.056316 0.232156 0
-0.060561 0.230717 0
-0.064322 0.227661 0
-0.067651 0.223227 0
-0.070616 0.217586 0
-0.073290 0.210851 0
-0.075754 0.203088 0
-0.078093 0.194322 0
-0.080391 0.184547 0
-0.082735 0.173727 0
-0.085210 0.161806 0
-0.087902 0.148709 0
-0.090892 0.134348 0
-0.094262 0.118622 0
-0.098088 0.101589 0
-0.000902 0.000000 0
-0.001731 0.053016 0
-0.005091 0.098288 0
-0.010045 0.135865 0
-0.015999 0.166159 0
-0.022424 0.189824 0
-0.028887 0.207646 0
-0.035072 0.220452 0
-0.040763 0.229038 0
-0.045835 0.234130 0
-0.050231 0.236363 0
-0.053947 0.236266 0
-0.057018 0.234271 0
-0.059502 0.230714 0
-0.061476 0.225848 0
-0.063028 0.219854 0
-0.064251 0.212854 0
-0.065243 0.204916 0
-0.066104 0.196068 0
-0.066933 0.186303 0
-0.067831 0.175586 0
-0.068897 0.163860 0
-0.070229 0.151050 0
-0.071926 0.137066 0
-0.074083 0.121805 0
-0.076798 0.105311 0
-0.001107 0.000000 0
-0.002112 0.055531 0
-0.005872 0.102745 0
-0.011292 0.141616 0
-0.017633 0.172589 0
-0.024261 0.196416 0
-0.030683 0.214006 0
-0.036559 0.226307 0
-0.041679 0.234223 0
-0.045940 0.238565 0
-0.049317 0.240030 0
-0.051840 0.239196 0
-0.053577 0.236524 0
-0.054619 0.232372 0
-0.055072 0.227005 0
-0.055046 0.220612 0
-0.054656 0.213318 0
-0.054018 0.205193 0
-0.053248 0.196265 0
-0.052459 0.186526 0
-0.051765 0.175943 0
-0.051279 0.164457 0
-0.051111 0.151991 0
-0.051372 0.138455 0
-0.052171 0.123746 0
-0.053621 0.107896 0
-0.001410 0.000000 0
-0.002676 0.058390 0
-0.007018 0.107720 0
-0.013107 0.147878 0
-0.020004 0.179380 0
-0.026940 0.203126 0
-0.033354 0.220197 0
-0.038886 0.231700 0
-0.043344 0.238671 0
-0.046660 0.242020 0
-0.048855 0.242515 0
-0.050005 0.240779 0
-0.050222 0.237303 0
-0.049634 0.232461 0
-0.048379 0.226526 0