# vtk DataFile Version 2.0
generated by CFD-lab course output (written by Tobias Neckel) 
ASCII

DATASET STRUCTURED_GRID
DIMENSIONS  26 51 1 
POINTS 1326 float

0.500000 0.000000 0
0.520000 0.000000 0
0.540000 0.000000 0
0.560000 0.000000 0
0.580000 0.000000 0
0.600000 0.000000 0
0.620000 0.000000 0
0.640000 0.000000 0
0.660000 0.000000 0
0.680000 0.000000 0
0.700000 0.000000 0
0.720000 0.000000 0
0.740000 0.000000 0
0.760000 0.000000 0
0.780000 0.000000 0
0.800000 0.000000 0
0.820000 0.000000 0
0.840000 0.000000 0
0.860000 0.000000 0
0.880000 0.000000 0
0.900000 0.000000 0
0.920000 0.000000 0
0.940000 0.000000 0
0.960000 0.000000 0
0.980000 0.000000 0
1.000000 0.000000 0
0.500000 0.020000 0
0.520000 0.020000 0
0.540000 0.020000 0
0.560000 0.020000 0
0.580000 0.020000 0
0.600000 0.020000 0
0.620000 0.020000 0
0.640000 0.020000 0
0.660000 0.020000 0
0.680000 0.020000 0
0.700000 0.020000 0
0.720000 0.020000 0
0.740000 0.020000 0
0.760000 0.020000 0
0.780000 0.020000 0
0.800000 0.020000 0
0.820000 0.020000 0
0.840000 0.020000 0
0.860000 0.020000 0
0.880000 0.020000 0
0.900000 0.020000 0
0.920000 0.020000 0
0.940000 0.020000 0
0.960000 0.020000 0
0.980000 0.020000 0
1.000000 0.020000 0
0.500000 0.040000 0
0.520000 0.040000 0
0.540000 0.040000 0
0.560000 0.040000 0
0.580000 0.040000 0
0.600000 0.040000 0
0.620000 0.040000 0
0.640000 0.040000 0
0.660000 0.040000 0
0.680000 0.040000 0
0.700000 0.040000 0
0.720000 0.040000 0
0.740000 0.040000 0
0.760000 0.040000 0
0.780000 0.040000 0
0.800000 0.040000 0
0.820000 0.040000 0
0.840000 0.040000 0
0.860000 0.040000 0
0.880000 0.040000 0
0.900000 0.040000 0
0.920000 0.040000 0
0.940000 0.040000 0
0.960000 0.040000 0
0.980000 0.040000 0
1.000000 0.040000 0
0.500000 0.060000 0
0.520000 0.060000 0
0.540000 0.060000 0
0.560000 0.060000 0
0.580000 0.060000 0
0.600000 0.060000 0
0.620000 0.060000 0
0.640000 0.060000 0
0.660000 0.060000 0
0.680000 0.060000 0
0.700000 0.060000 0
0.720000 0.060000 0
0.740000 0.060000 0
0.760000 0.060000 0
0.780000 0.060000 0
0.800000 0.060000 0
0.820000 0.060000 0
0.840000 0.060000 0
0.860000 0.060000 0
0.880000 0.060000 0
0.900000 0.060000 0
0.920000 0.060000 0
0.940000 0.060000 0
0.960000 0.060000 0
0.980000 0.060000 0
1.000000 0.060000 0
0.500000 0.080000 0
0.520000 0.080000 0
0.540000 0.080000 0
0.560000 0.080000 0
0.580000 0.080000 0
0.600000 0.080000 0
0.620000 0.080000 0
0.640000 0.080000 0
0.660000 0.080000 0
0.680000 0.080000 0
0.700000 0.080000 0
0.720000 0.080000 0
0.740000 0.080000 0
0.760000 0.080000 0
0.780000 0.080000 0
0.800000 0.080000 0
0.820000 0.080000 0
0.840000 0.080000 0
0.860000 0.080000 0
0.880000 0.080000 0
0.900000 0.080000 0
0.920000 0.080000 0
0.940000 0.080000 0
0.960000 0.080000 0
0.980000 0.080000 0
1.000000 0.080000 0
0.500000 0.100000 0
0.520000 0.100000 0
0.540000 0.100000 0
0.560000 0.100000 0
0.580000 0.100000 0
0.600000 0.100000 0
0.620000 0.100000 0
0.640000 0.100000 0
0.660000 0.100000 0
0.680000 0.100000 0
0.700000 0.100000 0
0.720000 0.100000 0
0.740000 0.100000 0
0.760000 0.100000 0
0.780000 0.100000 0
0.800000 0.100000 0
0.820000 0.100000 0
0.840000 0.100000 0
0.860000 0.100000 0
0.880000 0.100000 0
0.900000 0.100000 0
0.920000 0.100000 0
0.940000 0.100000 0
0.960000 0.100000 0
0.980000 0.100000 0
1.000000 0.100000 0
0.500000 0.120000 0
0.520000 0.120000 0
0.540000 0.120000 0
0.560000 0.120000 0
0.580000 0.120000 0
0.600000 0.120000 0
0.620000 0.120000 0
0.640000 0.120000 0
0.660000 0.120000 0
0.680000 0.120000 0
0.700000 0.120000 0
0.720000 0.120000 0
0.740000 0.120000 0
0.760000 0.120000 0
0.780000 0.120000 0
0.800000 0.120000 0
0.820000 0.120000 0
0.840000 0.120000 0
0.860000 0.120000 0
0.880000 0.120000 0
0.900000 0.120000 0
0.920000 0.120000 0
0.940000 0.120000 0
0.960000 0.120000 0
0.980000 0.120000 0
1.000000 0.120000 0
0.500000 0.140000 0
0.520000 0.140000 0
0.540000 0.140000 0
0.560000 0.140000 0
0.580000 0.140000 0
0.600000 0.140000 0
0.620000 0.140000 0
0.640000 0.140000 0
0.660000 0.140000 0
0.680000 0.140000 0
0.700000 0.140000 0
0.720000 0.140000 0
0.740000 0.140000 0
0.760000 0.140000 0
0.780000 0.140000 0
0.800000 0.140000 0
0.820000 0.140000 0
0.840000 0.140000 0
0.860000 0.140000 0
0.880000 0.140000 0
0.900000 0.140000 0
0.920000 0.140000 0
0.940000 0.140000 0
0.960000 0.140000 0
0.980000 0.140000 0
1.000000 0.140000 0
0.500000 0.160000 0
0.520000 0.160000 0
0.540000 0.160000 0
0.560000 0.160000 0
0.580000 0.160000 0
0.600000 0.160000 0
0.620000 0.160000 0
0.640000 0.160000 0
0.660000 0.160000 0
0.680000 0.160000 0
0.700000 0.160000 0
0.720000 0.160000 0
0.740000 0.160000 0
0.760000 0.160000 0
0.780000 0.160000 0
0.800000 0.160000 0
0.820000 0.160000 0
0.840000 0.160000 0
0.860000 0.160000 0
0.880000 0.160000 0
0.900000 0.160000 0
0.920000 0.160000 0
0.940000 0.160000 0
0.960000 0.160000 0
0.980000 0.160000 0
1.000000 0.160000 0
0.500000 0.180000 0
0.520000 0.180000 0
0.540000 0.180000 0
0.560000 0.180000 0
0.580000 0.180000 0
0.600000 0.180000 0
0.620000 0.180000 0
0.640000 0.180000 0
0.660000 0.180000 0
0.680000 0.180000 0
0.700000 0.180000 0
0.720000 0.180000 0
0.740000 0.180000 0
0.760000 0.180000 0
0.780000 0.180000 0
0.800000 0.180000 0
0.820000 0.180000 0
0.840000 0.180000 0
0.860000 0.180000 0
0.880000 0.180000 0
0.900000 0.180000 0
0.920000 0.180000 0
0.940000 0.180000 0
0.960000 0.180000 0
0.980000 0.180000 0
1.000000 0.180000 0
0.500000 0.200000 0
0.520000 0.200000 0
0.540000 0.200000 0
0.560000 0.200000 0
0.580000 0.200000 0
0.600000 0.200000 0
0.620000 0.200000 0
0.640000 0.200000 0
0.660000 0.200000 0
0.680000 0.200000 0
0.700000 0.200000 0
0.720000 0.200000 0
0.740000 0.200000 0
0.760000 0.200000 0
0.780000 0.200000 0
0.800000 0.200000 0
0.820000 0.200000 0
0.840000 0.200000 0
0.860000 0.200000 0
0.880000 0.200000 0
0.900000 0.200000 0
0.920000 0.200000 0
0.940000 0.200000 0
0.960000 0.200000 0
0.980000 0.200000 0
1.000000 0.200000 0
0.500000 0.220000 0
0.520000 0.220000 0
0.540000 0.220000 0
0.560000 0.220000 0
0.580000 0.220000 0
0.600000 0.220000 0
0.620000 0.220000 0
0.640000 0.220000 0
0.660000 0.220000 0
0.680000 0.220000 0
0.700000 0.220000 0
0.720000 0.220000 0
0.740000 0.220000 0
0.760000 0.220000 0
0.780000 0.220000 0
0.800000 0.220000 0
0.820000 0.220000 0
0.840000 0.220000 0
0.860000 0.220000 0
0.880000 0.220000 0
0.900000 0.220000 0
0.920000 0.220000 0
0.940000 0.220000 0
0.960000 0.220000 0
0.980000 0.220000 0
1.000000 0.220000 0
0.500000 0.240000 0
0.520000 0.240000 0
0.540000 0.240000 0
0.560000 0.240000 0
0.580000 0.240000 0
0.600000 0.240000 0
0.620000 0.240000 0
0.640000 0.240000 0
0.660000 0.240000 0
0.680000 0.240000 0
0.700000 0.240000 0
0.720000 0.240000 0
0.740000 0.240000 0
0.760000 0.240000 0
0.780000 0.240000 0
0.800000 0.240000 0
0.820000 0.240000 0
0.840000 0.240000 0
0.860000 0.240000 0
0.880000 0.240000 0
0.900000 0.240000 0
0.920000 0.240000 0
0.940000 0.240000 0
0.960000 0.240000 0
0.980000 0.240000 0
1.000000 0.240000 0
0.500000 0.260000 0
0.520000 0.260000 0
0.540000 0.260000 0
0.560000 0.260000 0
0.580000 0.260000 0
0.600000 0.260000 0
0.620000 0.260000 0
0.640000 0.260000 0
0.660000 0.260000 0
0.680000 0.260000 0
0.700000 0.260000 0
0.720000 0.260000 0
0.740000 0.260000 0
0.760000 0.260000 0
0.780000 0.260000 0
0.800000 0.260000 0
0.820000 0.260000 0
0.840000 0.260000 0
0.860000 0.260000 0
0.880000 0.260000 0
0.900000 0.260000 0
0.920000 0.260000 0
0.940000 0.260000 0
0.960000 0.260000 0
0.980000 0.260000 0
1.000000 0.260000 0
0.500000 0.280000 0
0.520000 0.280000 0
0.540000 0.280000 0
0.560000 0.280000 0
0.580000 0.280000 0
0.600000 0.280000 0
0.620000 0.280000 0
0.640000 0.280000 0
0.660000 0.280000 0
0.680000 0.280000 0
0.700000 0.280000 0
0.720000 0.280000 0
0.740000 0.280000 0
0.760000 0.280000 0
0.780000 0.280000 0
0.800000 0.280000 0
0.820000 0.280000 0
0.840000 0.280000 0
0.860000 0.280000 0
0.880000 0.280000 0
0.900000 0.280000 0
0.920000 0.280000 0
0.940000 0.280000 0
0.960000 0.280000 0
0.980000 0.280000 0
1.000000 0.280000 0
0.500000 0.300000 0
0.520000 0.300000 0
0.540000 0.300000 0
0.560000 0.300000 0
0.580000 0.300000 0
0.600000 0.300000 0
0.620000 0.300000 0
0.640000 0.300000 0
0.660000 0.300000 0
0.680000 0.300000 0
0.700000 0.300000 0
0.720000 0.300000 0
0.740000 0.300000 0
0.760000 0.300000 0
0.780000 0.300000 0
0.800000 0.300000 0
0.820000 0.300000 0
0.840000 0.300000 0
0.860000 0.300000 0
0.880000 0.300000 0
0.900000 0.300000 0
0.920000 0.300000 0
0.940000 0.300000 0
0.960000 0.300000 0
0.980000 0.300000 0
1.000000 0.300000 0
0.500000 0.320000 0
0.520000 0.320000 0
0.540000 0.320000 0
0.560000 0.320000 0
0.580000 0.320000 0
0.600000 0.320000 0
0.620000 0.320000 0
0.640000 0.320000 0
0.660000 0.320000 0
0.680000 0.320000 0
0.700000 0.320000 0
0.720000 0.320000 0
0.740000 0.320000 0
0.760000 0.320000 0
0.780000 0.320000 0
0.800000 0.320000 0
0.820000 0.320000 0
0.840000 0.320000 0
0.860000 0.320000 0
0.880000 0.320000 0
0.900000 0.320000 0
0.920000 0.320000 0
0.940000 0.320000 0
0.960000 0.320000 0
0.980000 0.320000 0
1.000000 0.320000 0
0.500000 0.340000 0
0.520000 0.340000 0
0.540000 0.340000 0
0.560000 0.340000 0
0.580000 0.340000 0
0.600000 0.340000 0
0.620000 0.340000 0
0.640000 0.340000 0
0.660000 0.340000 0
0.680000 0.340000 0
0.700000 0.340000 0
0.720000 0.340000 0
0.740000 0.340000 0
0.760000 0.340000 0
0.780000 0.340000 0
0.800000 0.340000 0
0.820000 0.340000 0
0.840000 0.340000 0
0.860000 0.340000 0
0.880000 0.340000 0
0.900000 0.340000 0
0.920000 0.340000 0
0.940000 0.340000 0
0.960000 0.340000 0
0.980000 0.340000 0
1.000000 0.340000 0
0.500000 0.360000 0
0.520000 0.360000 0
0.540000 0.360000 0
0.560000 0.360000 0
0.580000 0.360000 0
0.600000 0.360000 0
0.620000 0.360000 0
0.640000 0.360000 0
0.660000 0.360000 0
0.680000 0.360000 0
0.700000 0.360000 0
0.720000 0.360000 0
0.740000 0.360000 0
0.760000 0.360000 0
0.780000 0.360000 0
0.800000 0.360000 0
0.820000 0.360000 0
0.840000 0.360000 0
0.860000 0.360000 0
0.880000 0.360000 0
0.900000 0.360000 0
0.920000 0.360000 0
0.940000 0.360000 0
[...]
POINT_DATA 1326 

VECTORS velocity float
-0.004450 0.000000 0
-0.000000 0.000000 0
-0.000000 0.000000 0
-0.000000 0.000000 0
-0.000000 0.000000 0
-0.000000 0.000000 0
-0.000000 0.000000 0
-0.000000 0.000000 0
-0.000000 0.000000 0
-0.000000 0.000000 0
-0.000000 0.000000 0
-0.000000 0.000000 0
-0.000000 0.000000 0
-0.000000 0.000000 0
-0.000000 0.000000 0
-0.000000 0.000000 0
0.000000 0.000000 0
0.000000 0.000000 0
0.000000 0.000000 0
0.000000 0.000000 0
0.000000 0.000000 0
0.000000 0.000000 0
0.000000 0.000000 0
0.000000 0.000000 0
0.000000 0.000000 0
0.000000 0.000000 0
-0.014999 0.000108 0
-0.014376 -0.000049 0
-0.014016 0.000107 0
-0.013594 0.000174 0
-0.013092 0.000168 0
-0.012495 0.000128 0
-0.011795 0.000077 0
-0.010997 0.000027 0
-0.010111 -0.000017 0
-0.009151 -0.000052 0
-0.008137 -0.000076 0
-0.007091 -0.000086 0
-0.006038 -0.000082 0
-0.005002 -0.000064 0
-0.004010 -0.000032 0
-0.003087 0.000015 0
-0.002255 0.000074 0
-0.001537 0.000144 0
-0.000947 0.000222 0
-0.000499 0.000307 0
-0.000196 0.000393 0
-0.000036 0.000475 0
0.000000 0.000542 0
-0.000048 0.000566 0
-0.000099 0.000469 0
0.000000 0.000000 0
-0.027117 0.000335 0
-0.026832 -0.000016 0
-0.026524 -0.000173 0
-0.025912 -0.000315 0
-0.025054 -0.000489 0
-0.023974 -0.000687 0
-0.022687 -0.000888 0
-0.021213 -0.001075 0
-0.019574 -0.001237 0
-0.017800 -0.001364 0
-0.015925 -0.001450 0
-0.013990 -0.001490 0
-0.012039 -0.001479 0
-0.010115 -0.001418 0
-0.008265 -0.001306 0
-0.006533 -0.001145 0
-0.004959 -0.000941 0
-0.003579 -0.000699 0
-0.002422 -0.000428 0
-0.001508 -0.000141 0
-0.000841 0.000147 0
-0.000413 0.000413 0
-0.000192 0.000621 0
-0.000116 0.000708 0
-0.000090 0.000562 0
0.000000 0.000000 0
-0.038830 0.000591 0
-0.038470 -0.000032 0
-0.038077 -0.000560 0
-0.037287 -0.001044 0
-0.036135 -0.001519 0
-0.034652 -0.001986 0
-0.032870 -0.002431 0
-0.030818 -0.002834 0
-0.028533 -0.003179 0
-0.026057 -0.003449 0
-0.023439 -0.003633 0
-0.020732 -0.003720 0
-0.017996 -0.003706 0
-0.015290 -0.003586 0
-0.012676 -0.003362 0
-0.010212 -0.003040 0
-0.007954 -0.002628 0
-0.005948 -0.002141 0
-0.004233 -0.001597 0
-0.002834 -0.001022 0
-0.001760 -0.000449 0
-0.000998 0.000078 0
-0.000514 0.000496 0
-0.000245 0.000716 0
-0.000105 0.000605 0
0.000000 0.000000 0
-0.049916 0.000826 0
-0.049474 -0.000159 0
-0.048955 -0.001103 0
-0.047981 -0.002005 0
-0.046564 -0.002872 0
-0.044733 -0.003700 0
-0.042522 -0.004470 0
-0.039970 -0.005160 0
-0.037123 -0.005746 0
-0.034031 -0.006206 0
-0.030757 -0.006523 0
-0.027364 -0.006680 0
-0.023923 -0.006669 0
-0.020509 -0.006486 0
-0.017193 -0.006132 0
-0.014048 -0.005615 0
-0.011140 -0.004952 0
-0.008527 -0.004167 0
-0.006255 -0.003290 0
-0.004355 -0.002363 0
-0.002842 -0.001437 0
-0.001707 -0.000581 0
-0.000919 0.000120 0
-0.000423 0.000552 0
-0.000145 0.000570 0
0.000000 0.000000 0
-0.060458 0.001050 0
-0.059966 -0.000383 0
-0.059333 -0.001801 0
-0.058186 -0.003183 0
-0.056533 -0.004514 0
-0.054395 -0.005776 0
-0.051809 -0.006942 0
-0.048816 -0.007982 0
-0.045469 -0.008865 0
-0.041828 -0.009562 0
-0.037960 -0.010048 0
-0.033941 -0.010301 0
-0.029852 -0.010309 0
-0.025776 -0.010064 0
-0.021798 -0.009570 0
-0.018000 -0.008840 0
-0.014459 -0.007897 0
-0.011244 -0.006774 0
-0.008410 -0.005516 0
-0.005996 -0.004182 0
-0.004023 -0.002845 0
-0.002490 -0.001593 0
-0.001375 -0.000536 0
-0.000632 0.000194 0
-0.000199 0.000434 0
0.000000 0.000000 0
-0.070582 0.001279 0
-0.070068 -0.000675 0
-0.069349 -0.002631 0
-0.068056 -0.004553 0
-0.066196 -0.006411 0
-0.063790 -0.008172 0
-0.060872 -0.009797 0
-0.057487 -0.011247 0
-0.053690 -0.012482 0
-0.049547 -0.013463 0
-0.045132 -0.014157 0
-0.040529 -0.014536 0
-0.035827 -0.014583 0
-0.031118 -0.014288 0
-0.026497 -0.013655 0
-0.022058 -0.012701 0
-0.017889 -0.011456 0
-0.014067 -0.009965 0
-0.010659 -0.008286 0
-0.007714 -0.006498 0
-0.005263 -0.004691 0
-0.003315 -0.002976 0
-0.001857 -0.001486 0
-0.000855 -0.000372 0
-0.000258 0.000190 0
0.000000 0.000000 0
-0.080401 0.001535 0
-0.079895 -0.001006 0
-0.079122 -0.003561 0
-0.077716 -0.006083 0
-0.075685 -0.008528 0
-0.073048 -0.010848 0
-0.069838 -0.012993 0
-0.066100 -0.014912 0
-0.061893 -0.016553 0
-0.057286 -0.017868 0
-0.052358 -0.018813 0
-0.047198 -0.019355 0
-0.041902 -0.019468 0
-0.036574 -0.019141 0
-0.031317 -0.018378 0
-0.026236 -0.017197 0
-0.021429 -0.015636 0
-0.016988 -0.013751 0
-0.012989 -0.011617 0
-0.009495 -0.009326 0
-0.006547 -0.006992 0
-0.004167 -0.004747 0
-0.002354 -0.002743 0
-0.001084 -0.001153 0
-0.000318 -0.000169 0
0.000000 0.000000 0
-0.090010 0.001844 0
-0.089543 -0.001345 0
-0.088751 -0.004558 0
-0.087270 -0.007738 0
-0.085106 -0.010827 0
-0.082276 -0.013767 0
-0.078812 -0.016492 0
-0.074760 -0.018939 0
-0.070177 -0.021044 0
-0.065136 -0.022746 0
-0.059718 -0.023993 0
-0.054019 -0.024739 0
-0.048141 -0.024954 0
-0.042196 -0.024620 0
-0.036298 -0.023741 0
-0.030563 -0.022337 0
-0.025102 -0.020452 0
-0.020019 -0.018153 0
-0.015406 -0.015527 0
-0.011339 -0.012687 0
-0.007873 -0.009766 0
-0.005044 -0.006918 0
-0.002862 -0.004317 0
-0.001317 -0.002156 0
-0.000378 -0.000643 0
0.000000 0.000000 0
-0.099481 0.002236 0
-0.099089 -0.001655 0
-0.098318 -0.005582 0
-0.096802 -0.009477 0
-0.094545 -0.013270 0
-0.091563 -0.016889 0
-0.087885 -0.020257 0
-0.083554 -0.023294 0
-0.078628 -0.025925 0
-0.073178 -0.028075 0
-0.067291 -0.029678 0
-0.061064 -0.030680 0
-0.054608 -0.031038 0
-0.048042 -0.030732 0
-0.041490 -0.029758 0
-0.035082 -0.028141 0
-0.028941 -0.025928 0
-0.023189 -0.023195 0
-0.017931 -0.020045 0
-0.013262 -0.016606 0
-0.009252 -0.013034 0
-0.005951 -0.009506 0
-0.003384 -0.006218 0
-0.001554 -0.003385 0
-0.000439 -0.001233 0
0.000000 0.000000 0
-0.108863 0.002747 0
-0.108585 -0.001898 0
-0.107878 -0.006592 0
-0.106372 -0.011258 0
-0.104067 -0.015814 0
-0.100977 -0.020175 0
-0.097126 -0.024249 0
-0.092555 -0.027944 0
-0.087318 -0.031167 0
-0.081487 -0.033831 0
-0.075148 -0.035855 0
-0.068403 -0.037170 0
-0.061369 -0.037724 0
-0.054172 -0.037486 0
-0.046949 -0.036449 0
-0.039842 -0.034634 0
-0.032991 -0.032093 0
-0.026533 -0.028910 0
-0.020595 -0.025202 0
-0.015287 -0.021115 0
-0.010699 -0.016824 0
-0.006899 -0.012533 0
-0.003928 -0.008462 0
-0.001798 -0.004849 0
-0.000500 -0.001944 0
0.000000 0.000000 0
-0.118185 0.003415 0
-0.118064 -0.002031 0
-0.117466 -0.007544 0
-0.116019 -0.013035 0
-0.113716 -0.018413 0
-0.110566 -0.023578 0
-0.106588 -0.028427 0
-0.101817 -0.032851 0
-0.096305 -0.036741 0
-0.090120 -0.039993 0
-0.083350 -0.042509 0
-0.076098 -0.044206 0
-0.068485 -0.045017 0
-0.060647 -0.044899 0
-0.052733 -0.043837 0
-0.044897 -0.041847 0
-0.037299 -0.038985 0
-0.030095 -0.035339 0
-0.023432 -0.031039 0
-0.017443 -0.026249 0
-0.012239 -0.021169 0
-0.007906 -0.016025 0
-0.004502 -0.011067 0
-0.002056 -0.006560 0
-0.000564 -0.002779 0
0.000000 0.000000 0
-0.127448 0.004284 0
-0.127532 -0.002008 0
-0.127094 -0.008386 0
-0.125757 -0.014756 0
-0.123509 -0.021015 0
-0.120352 -0.027051 0
-0.116297 -0.032746 0
-0.111374 -0.037974 0
-0.105627 -0.042612 0
-0.099123 -0.046534 0
-0.091946 -0.049625 0
-0.084200 -0.051783 0
-0.076011 -0.052922 0
-0.067524 -0.052986 0
-0.058897 -0.051947 0
-0.050303 -0.049815 0
-0.041918 -0.046643 0
-0.033922 -0.042525 0
-0.026485 -0.037602 0
-0.019765 -0.032056 0
-0.013897 -0.026109 0
-0.008990 -0.020017 0
-0.005120 -0.014060 0
-0.002332 -0.008535 0
-0.000633 -0.003747 0
0.000000 -0.000000 0
-0.136632 0.005399 0
-0.136968 -0.001777 0
-0.136743 -0.009066 0
-0.135573 -0.016367 0
-0.133439 -0.023565 0
-0.130333 -0.030539 0
-0.126258 -0.037153 0
-0.121236 -0.043268 0
-0.115303 -0.048739 0
-0.108520 -0.053422 0
-0.100967 -0.057180 0
-0.092748 -0.059888 0
-0.083992 -0.061441 0
-0.074850 -0.061761 0
-0.065493 -0.060806 0
-0.056110 -0.058574 0
-0.046898 -0.055113 0
-0.038061 -0.050519 0
-0.029796 -0.044943 0
-0.022288 -0.038585 0
-0.015702 -0.031692 0
-0.010170 -0.024550 0
-0.005794 -0.017473 0
-0.002633 -0.010796 0
-0.000708 -0.004859 0
0.000000 -0.000000 0
-0.145689 0.006808 0
-0.146328 -0.001287 0
-0.146371 -0.009529 0
-0.145428 -0.017808 0
-0.143470 -0.026003 0
-0.140478 -0.033980 0
-0.136448 -0.041591 0
-0.131387 -0.048677 0
-0.125325 -0.055075 0
-0.118313 -0.060618 0
-0.110424 -0.065145 0
-0.101762 -0.068505 0
-0.092456 -0.070568 0
-0.082662 -0.071232 0
-0.072563 -0.070435 0
-0.062364 -0.068158 0
-0.052286 -0.064440 0
-0.042557 -0.059375 0
-0.033405 -0.053122 0
-0.025048 -0.045898 0
-0.017681 -0.037975 0
-0.011469 -0.029673 0
-0.006536 -0.021346 0
-0.002965 -0.013369 0
-0.000790 -0.006128 0
0.000000 -0.000000 0
-0.154546 0.008559 0
-0.155537 -0.000485 0
-0.155906 -0.009714 0
-0.155250 -0.019016 0
-0.153534 -0.028263 0
-0.150727 -0.037309 0
-0.146810 -0.045992 0
-0.141782 -0.054138 0
-0.135657 -0.061561 0
-0.128476 -0.068071 0
-0.120306 -0.073479 0
-0.111242 -0.077605 0
-0.101413 -0.080289 0
-0.090980 -0.081401 0
-0.080136 -0.080851 0
-0.069102 -0.078599 0
-0.058121 -0.074668 0
-0.047451 -0.069148 0
-0.037352 -0.062200 0
-0.028079 -0.054057 0
-0.019864 -0.045020 0
-0.012906 -0.035443 0
-0.007361 -0.025724 0
-0.003336 -0.016289 0
-0.000883 -0.007572 0
0.000000 -0.000000 0
-0.163102 0.010697 0
-0.164495 0.000682 0
-0.165243 -0.009564 0
-0.164939 -0.019927 0
-0.163534 -0.030274 0
-0.160985 -0.040451 0
-0.157260 -0.050284 0
-0.152342 -0.059578 0
-0.146232 -0.068128 0
-0.138956 -0.075718 0
-0.130569 -0.082127 0
-0.121160 -0.087145 0
-0.110852 -0.090577 0
-0.099807 -0.092257 0
-0.088227 -0.092061 0
-0.076348 -0.089922 0
-0.064435 -0.085839 0
-0.052777 -0.079892 0
-0.041673 -0.072241 0
-0.031414 -0.063134 0
-0.022277 -0.052896 0
-0.014502 -0.041923 0
-0.008282 -0.030663 0
-0.003752 -0.019595 0
-0.000988 -0.009212 0
0.000000 -0.000000 0
-0.171230 0.013266 0
-0.173069 0.002266 0
-0.174252 -0.009018 0
-0.174361 -0.020473 0
-0.173338 -0.031965 0
-0.171125 -0.043330 0
-0.167675 -0.054383 0
-0.162954 -0.064915 0
-0.156947 -0.074695 0
-0.149663 -0.083481 0
-0.141142 -0.091022 0
-0.131460 -0.097070 0
-0.120732 -0.101389 0
-0.109120 -0.103774 0
-0.096829 -0.104058 0
-0.084108 -0.102139 0
-0.071246 -0.097986 0
-0.058563 -0.091658 0
-0.046395 -0.083310 0
-0.035083 -0.073200 0
-0.024947 -0.061680 0
-0.016278 -0.049186 0
-0.009311 -0.036222 0
-0.004220 -0.023330 0
-0.001107 -0.011072 0
0.000000 -0.000000 0
-0.178779 0.016303 0
-0.181104 0.004314 0
-0.182771 -0.008019 0
-0.183354 -0.020589 0
-0.182782 -0.033258 0
-0.180985 -0.045862 0
-0.177898 -0.058202 0
-0.173470 -0.070054 0
-0.167664 -0.081168 0
-0.160472 -0.091270 0
-0.151915 -0.100078 0
-0.142051 -0.107303 0
-0.130985 -0.112664 0
-0.118869 -0.115908 0
-0.105912 -0.116821 0
-0.092371 -0.115252 0
-0.078558 -0.111132 0
-0.064822 -0.104490 0
-0.051542 -0.095469 0
-0.039108 -0.084330 0
-0.027896 -0.071449 0
-0.018251 -0.057307 0
-0.010462 -0.042468 0
-0.004747 -0.027546 0
-0.001242 -0.013180 0
0.000000 -0.000000 0
-0.185579 0.019837 0
-0.188418 0.006867 0
-0.190612 -0.006516 0
-0.191724 -0.020210 0
-0.191671 -0.034081 0
-0.190370 -0.047961 0
-0.187738 -0.061646 0
-0.183702 -0.074896 0
-0.178208 -0.087440 0
-0.171222 -0.098979 0
-0.162742 -0.109192 0
-0.152808 -0.117748 0
-0.141505 -0.124319 0
-0.128975 -0.128594 0
-0.115419 -0.130304 0
-0.101104 -0.129241 0
-0.086355 -0.125283 0
-0.071555 -0.118421 0
-0.057126 -0.108772 0
-0.043509 -0.096594 0
-0.031144 -0.082284 0
-0.020439 -0.066368 0
-0.011747 -0.049474 0
-0.005338 -0.032298 0
-0.001395 -0.015567 0
0.000000 -0.000000 0
-0.191438 0.023887 0
-0.194812 0.009956 0
-0.197565 -0.004462 0
-0.199253 -0.019277 0
-0.199782 -0.034360 0
-0.199053 -0.049543 0
-0.196966 -0.064618 0
-0.193430 -0.079332 0
-0.188363 -0.093396 0
-0.181709 -0.106484 0
-0.173439 -0.118240 0
-0.163566 -0.128288 0
-0.152152 -0.136246 0
-0.139321 -0.141742 0
-0.125263 -0.144440 0
-0.110243 -0.144064 0
-0.094602 -0.140428 0
-0.078747 -0.133468 0
-0.063145 -0.123264 0
-0.048295 -0.110059 0
-0.034705 -0.094266 0
-0.022857 -0.076452 0
-0.013176 -0.057317 0
-0.006001 -0.037645 0
-0.001568 -0.018266 0
0.000000 -0.000000 0
-0.196153 0.028460 0
-0.200068 0.013603 0
-0.203402 -0.001823 0
-0.205702 -0.017740 0
-0.206865 -0.034029 0
-0.206779 -0.050525 0
-0.205327 -0.067017 0
-0.202396 -0.083247 0
-0.197880 -0.098909 0
-0.191694 -0.113650 0
-0.183781 -0.127082 0
-0.174120 -0.138782 0
-0.162747 -0.148312 0
-0.149756 -0.155232 0
-0.135321 -0.159130 0
-0.119699 -0.159650 0
-0.103235 -0.156527 0
-0.086362 -0.149626 0
-0.069585 -0.138972 0
-0.053467 -0.124782 0
-0.038588 -0.107470 0
-0.025515 -0.087645 0
-0.014760 -0.066077 0
-0.006742 -0.043654 0
-0.001763 -0.021316 0
0.000000 -0.000000 0
-0.199513 0.033548 0
-0.203958 0.017814 0
-0.207879 0.001424 0
-0.210815 -0.015561 0
-0.212654 -0.033030 0
-0.213273 -0.050829 0
-0.212538 -0.068749 0
-0.210316 -0.086527 0
-0.206475 -0.103845 0
-0.200902 -0.120331 0
-0.193504 -0.135561 0
-0.184227 -0.149070 0
-0.173068 -0.160358 0
-0.160090 -0.168915 0
-0.145436 -0.174245 0
-0.129348 -0.175897 0
-0.112167 -0.173513 0
-0.094342 -0.166865 0
-0.076417 -0.155907 0
-0.059014 -0.140805 0
-0.042796 -0.121965 0
-0.028423 -0.100028 0
-0.016508 -0.075838 0
-0.007565 -0.050391 0
-0.001981 -0.024756 0
0.000000 -0.000000 0
-0.201306 0.039122 0
-0.206253 0.022578 0
-0.210748 0.005286 0
-0.214327 -0.012713 0
-0.216869 -0.031319 0
-0.218241 -0.050389 0
-0.218296 -0.069722 0
-0.216881 -0.089058 0
-0.213839 -0.108070 0
-0.209025 -0.126370 0
-0.202312 -0.143505 0
-0.193605 -0.158966 0
-0.182857 -0.172197 0
-0.170091 -0.182611 0
-0.155412 -0.189619 0
-0.139031 -0.192667 0
-0.121277 -0.191281 0
-0.102604 -0.185124 0
-0.083590 -0.174048 0
-0.064913 -0.158151 0
-0.047322 -0.137809 0
-0.031584 -0.113680 0
-0.018426 -0.086683 0
-0.008476 -0.057928 0
-0.002225 -0.028629 0
0.000000 -0.000000 0
-0.201329 0.045139 0
-0.206729 0.027865 0
-0.211766 0.009750 0
-0.215976 -0.009188 0
-0.219229 -0.028864 0
-0.221386 -0.049150 0
-0.222289 -0.069857 0
-0.221767 -0.090732 0
-0.219640 -0.111448 0
-0.215732 -0.131606 0
-0.209877 -0.150730 0
-0.201938 -0.168272 0
-0.191819 -0.183619 0
-0.179492 -0.196108 0
-0.165013 -0.205052 0
-0.148553 -0.209780 0
-0.130412 -0.209688 0
-0.111038 -0.204300 0
-0.091031 -0.193346 0
-0.071124 -0.176820 0
-0.052152 -0.155042 0
-0.034998 -0.128672 0
-0.020519 -0.098694 0
-0.009481 -0.066339 0
-0.002497 -0.032980 0
0.000000 -0.000000 0
-0.199396 0.051530 0
-0.205178 0.033624 0
-0.210704 0.014785 0
-0.215509 -0.004998 0
-0.219460 -0.025656 0
-0.222413 -0.047076 0
-0.224204 -0.069090 0
-0.224644 -0.091455 0
-0.223536 -0.113853 0
-0.220671 -0.135880 0
-0.215849 -0.157047 0
-0.208882 -0.176772 0
-0.199625 -0.194391 0
-0.187987 -0.209165 0
-0.173968 -0.220306 0
-0.157680 -0.227017 0
-0.139383 -0.228544 0
-0.119503 -0.224252 0
-0.098645 -0.213710 0
-0.077590 -0.196778 0
-0.057258 -0.173683 0
-0.038655 -0.145061 0
-0.022789 -0.111948 0
-0.010583 -0.075698 0
-0.002799 -0.037857 0
0.000000 -0.000000 0
-0.195346 0.058208 0
-0.201417 0.039782 0
-0.207354 0.020334 0
-0.212694 -0.000180 0
-0.217305 -0.021708 0
-0.221043 -0.044153 0
-0.223736 -0.067374 0
-0.225189 -0.091148 0
-0.225184 -0.115169 0
-0.223489 -0.139041 0
-0.219862 -0.162267 0
-0.214074 -0.184244 0
-0.205918 -0.204262 0
-0.195240 -0.221513 0
-0.181968 -0.235107 0
-0.166144 -0.244113 0
-0.147968 -0.247613 0
-0.127824 -0.244786 0
-0.106308 -0.235006 0
-0.084233 -0.217954 0
-0.062600 -0.193724 0
-0.042543 -0.162889 0
-0.025235 -0.126514 0
-0.011784 -0.086077 0
-0.003133 -0.043310 0
0.000000 -0.000000 0
-0.189050 0.065063 0
-0.195296 0.046241 0
-0.201541 0.026314 0
-0.207330 0.005206 0
-0.212541 -0.017054 0
-0.217023 -0.040393 0
-0.220608 -0.064691 0
-0.223095 -0.089755 0
-0.224254 -0.115301 0
-0.223830 -0.140950 0
-0.221550 -0.166209 0
-0.217136 -0.190464 0
-0.210324 -0.212972 0
-0.200887 -0.232863 0
-0.188673 -0.249150 0
-0.173640 -0.260764 0
-0.155907 -0.266612 0
-0.135795 -0.265660 0
-0.113869 -0.257049 0
-0.090954 -0.240234 0
-0.068122 -0.215121 0
-0.046636 -0.182174 0
-0.027852 -0.142454 0
-0.013087 -0.097548 0
-0.003499 -0.049389 0
0.000000 -0.000000 0
-0.180418 0.071965 0
-0.186705 0.052883 0
-0.193134 0.032620 0
-0.199264 0.011073 0
-0.204982 -0.011763 0
-0.210137 -0.035835 0
-0.214571 -0.061050 0
-0.218084 -0.087249 0
-0.220437 -0.114181 0
-0.221361 -0.141492 0
-0.220553 -0.168708 0
-0.217693 -0.195218 0
-0.212457 -0.220259 0
-0.204546 -0.242912 0
-0.193717 -0.262102 0
-0.179831 -0.276627 0
-0.162906 -0.285206 0
-0.143176 -0.286572 0
-0.121147 -0.279595 0
-0.097631 -0.263449 0
-0.073753 -0.237790 0
-0.050902 -0.202907 0
-0.030629 -0.159811 0
-0.014492 -0.110177 0
-0.003901 -0.056145 0
0.000000 -0.000000 0
-0.169404 0.078767 0
-0.175579 0.059567 0
-0.182047 0.039125 0
-0.188383 0.017306 0
-0.194486 -0.005929 0
-0.200216 -0.030551 0
-0.205425 -0.056493 0
-0.209919 -0.083636 0
-0.213462 -0.111772 0
-0.215774 -0.140582 0
-0.216531 -0.169625 0
-0.215376 -0.198308 0
-0.211932 -0.225867 0
-0.205824 -0.251351 0
-0.196714 -0.273613 0
-0.184353 -0.291323 0
-0.168640 -0.303014 0
-0.149693 -0.307166 0
-0.127928 -0.302342 0
-0.104113 -0.287376 0
-0.079401 -0.261597 0
-0.055297 -0.225045 0
-0.033554 -0.178612 0
-0.015999 -0.124024 0
-0.004339 -0.063629 0
0.000000 -0.000000 0
-0.156006 0.085306 0
-0.161901 0.066135 0
-0.168243 0.045676 0
-0.174623 0.023764 0
-0.180962 0.000323 0
-0.187141 -0.024644 0
-0.193019 -0.051095 0
-0.198415 -0.078959 0
-0.203103 -0.108074 0
-0.206802 -0.138171 0
-0.209177 -0.168853 0
-0.209844 -0.199564 0
-0.208376 -0.229559 0
-0.204328 -0.257878 0
-0.197267 -0.283321 0
-0.186821 -0.304449 0
-0.172753 -0.319614 0
-0.155039 -0.327031 0
-0.133968 -0.324923 0
-0.110226 -0.311723 0
-0.084959 -0.286353 0
-0.059766 -0.248503 0
-0.036605 -0.198858 0
-0.017605 -0.139140 0
-0.004815 -0.071892 0
0.000000 -0.000000 0
-0.140259 0.091409 0
-0.145697 0.072413 0
-0.151735 0.052100 0
-0.157984 0.030277 0
-0.164389 0.006842 0
-0.170862 -0.018242 0
-0.177266 -0.044967 0
-0.183445 -0.073300 0
-0.189189 -0.103133 0
-0.194228 -0.134256 0
-0.198227 -0.166331 0
-0.200784 -0.198856 0
-0.201437 -0.231130 0
-0.199675 -0.262208 0
-0.194972 -0.290867 0
-0.186833 -0.315584 0
-0.174865 -0.334544 0
-0.158877 -0.345699 0
-0.138990 -0.346903 0
-0.115764 -0.336133 0
-0.090293 -0.311805 0
-0.064239 -0.273146 0
-0.039759 -0.220520 0
-0.019307 -0.155562 0
-0.005331 -0.080982 0
0.000000 -0.000000 0
-0.122236 0.096897 0
-0.127034 0.078220 0
-0.132583 0.058215 0
-0.138514 0.036670 0
-0.144800 0.013453 0
-0.151380 -0.011514 0
-0.158136 -0.038260 0
-0.164940 -0.066784 0
-0.171609 -0.097039 0
-0.177892 -0.128882 0
-0.183467 -0.162045 0
-0.187929 -0.196102 0
-0.190792 -0.230416 0
-0.191498 -0.264090 0
-0.189433 -0.295910 0
-0.183977 -0.324304 0
-0.174574 -0.347318 0
-0.160837 -0.362655 0
-0.142684 -0.367783 0
-0.120493 -0.360168 0
-0.095250 -0.337626 0
-0.068634 -0.298785 0
-0.042984 -0.243537 0
-0.021100 -0.173316 0
-0.005888 -0.090946 0
0.000000 -0.000000 0
-0.102022 0.101589 0
-0.106000 0.083370 0
-0.110870 0.063832 0
-0.116289 0.042747 0
-0.122254 0.019960 0
-0.128735 -0.004654 0
-0.135645 -0.031155 0
-0.142888 -0.059575 0
-0.150310 -0.089929 0
-0.157692 -0.122146 0
-0.164738 -0.156042 0
-0.171057 -0.191278 0
-0.176161 -0.227309 0
-0.179456 -0.263316 0
-0.180259 -0.298136 0
-0.177834 -0.330191 0
-0.171456 -0.357432 0
-0.160521 -0.377337 0
-0.144704 -0.386995 0
-0.124144 -0.383314 0
-0.099650 -0.363412 0
-0.072854 -0.325160 0
-0.046244 -0.267803 0
-0.022979 -0.192406 0
-0.006490 -0.101830 0
0.000000 -0.000000 0
-0.079704 0.105311 0
-0.082687 0.087678 0
-0.086694 0.068756 0
-0.091403 0.048306 0
-0.096838 0.026151 0
-0.103001 0.002128 0
-0.109855 -0.023854 0
-0.117323 -0.051867 0
-0.125290 -0.081982 0
-0.133581 -0.114201 0
-0.141936 -0.148428 0
-0.150001 -0.184427 0
-0.157302 -0.221765 0
-0.163239 -0.259739 0
-0.167080 -0.297280 0
-0.167986 -0.332855 0
-0.165071 -0.364379 0
-0.157501 -0.389154 0
-0.144669 -0.403908 0
-0.126412 -0.404970 0
-0.103282 -0.388664 0
-0.076785 -0.351938 0
-0.049498 -0.293160 0
-0.024942 -0.212818 0
-0.007140 -0.113674 0
0.000000 -0.000000 0
-0.055339 0.107896 0
-0.057164 0.090969 0
-0.060134 0.072800 0
-0.063949 0.053144 0
-0.068656 0.031810 0
-0.074289 0.008615 0