/*--------------------------------*- C++ -*----------------------------------*\
| =========                 |                                                 |
| \\      /  F ield         | OpenFOAM: The Open Source CFD Toolbox           |
|  \\    /   O peration     | Version:  5.x                                   |
|   \\  /    A nd           | Web:      www.OpenFOAM.org                      |
|    \\/     M anipulation  |                                                 |
\*---------------------------------------------------------------------------*/
FoamFile
{
    version     2.0;
    format      ascii;
    class       volScalarField;
    location    "19.5";
    object      gradTx;
}
// * * * * * * * * * * * * * * * * * * * * * * * * * * * * * * * * * * * * * //

dimensions      [0 -1 0 1 0 0 0];

internalField   nonuniform List<scalar> 
6300
(
-14.7933
-14.5742
-14.1385
-13.4913
-12.6411
-11.6003
-10.386
-9.02115
-7.53493
-5.9631
-4.34755
-2.73495
-1.17441
0.285827
1.60216
-15.0126
-14.7911
-14.3502
-13.6946
-12.832
-11.774
-10.5368
-9.1428
-7.62082
-6.0071
-4.34488
-2.68319
-1.07441
0.429425
1.78106
-15.4537
-15.2275
-14.7768
-14.1052
-13.2187
-12.1271
-10.8448
-9.39265
-7.79872
-6.09989
-4.34197
-2.57882
-0.869759
0.724954
2.14999
-16.1212
-15.8888
-15.4247
-14.7308
-13.8106
-12.671
-11.3231
-9.78452
-8.08181
-6.25206
-4.34457
-2.42068
-0.551083
1.18981
2.73245
-17.0214
-16.782
-16.3027
-15.5828
-14.6224
-13.4235
-11.9921
-10.3409
-8.49221
-6.48224
-4.36389
-2.20852
-0.103997
1.85261
3.56796
-18.1612
-17.9153
-17.4214
-16.6756
-15.6729
-14.4087
-12.8813
-11.0949
-9.06421
-6.8211
-4.42051
-1.94582
0.490695
2.75636
4.71801
-19.5471
-19.2969
-18.7924
-18.0255
-16.985
-15.6575
-14.0299
-12.0933
-9.84894
-7.31774
-4.55152
-1.64526
1.25594
3.96381
6.27708
-21.1835
-20.9331
-20.4259
-19.6493
-18.5844
-17.2066
-15.4878
-13.3996
-10.9208
-8.04966
-4.82286
-1.33993
2.2142
5.56555
8.39245
-23.0705
-22.8262
-22.3292
-21.5617
-20.4967
-19.097
-17.3154
-15.0969
-12.3853
-9.1375
-5.35063
-1.1061
3.37494
7.69141
11.3016
-25.2019
-24.9724
-24.503
-23.7718
-22.7441
-21.3696
-19.58
-17.2875
-14.3863
-10.7646
-6.33635
-1.10906
4.69993
10.5232
15.4081
-27.563
-27.3587
-26.9388
-26.2787
-25.3384
-24.0573
-22.3479
-20.087
-17.1081
-13.1986
-8.12135
-1.69404
6.01029
14.293
21.4479
-30.1285
-29.961
-29.6149
-29.0661
-28.2737
-27.1737
-25.6673
-23.6049
-20.7607
-16.8007
-11.2567
-3.55635
6.74191
19.1901
30.8971
-32.8616
-32.7421
-32.4939
-32.0972
-31.517
-30.6965
-29.543
-27.9049
-25.5292
-21.9869
-16.5487
-8.01692
5.32311
24.828
47.1076
-35.7145
-35.652
-35.5217
-35.3118
-35.0009
-34.5524
-33.9034
-32.9426
-31.4645
-29.0693
-24.9345
-17.2861
-2.26107
27.6907
79.0072
-38.63
-38.6299
-38.6293
-38.6276
-38.6224
-38.6089
-38.5758
-38.4978
-38.3171
-37.8916
-36.834
-33.9324
-24.7725
9.18807
155.349
2.65935
3.46637
4.12476
4.63237
4.9924
5.21245
5.30335
5.278
5.15027
4.93412
4.64293
4.28905
3.88357
3.43622
2.95539
2.44823
1.92077
1.37806
0.82433
0.263121
-0.302601
-0.870334
-1.43796
-2.00368
-2.56597
-3.12352
-3.67529
-4.22041
-4.75826
-5.28841
-5.81065
-6.32497
-6.8315
-7.33049
-7.82225
-8.30707
-8.78522
-9.25682
-9.72189
-10.1803
-10.6319
-11.0763
-11.5133
-11.9426
-12.3643
-12.7783
-13.1848
-13.5843
-13.9773
-14.3641
-14.7453
-15.1209
-15.491
-15.8553
-16.2132
-16.5638
-16.9061
-17.2388
-17.5608
-17.871
-18.1684
-18.452
-18.7212
-18.975
-19.2125
-19.4327
-19.634
-19.8142
-19.9711
-20.1013
-20.2015
-20.2679
-20.2964
-20.2832
-20.2248
-20.1181
-19.9609
-19.7515
-19.4895
-19.175
-18.8094
-18.3949
-17.9346
-17.4325
-16.8936
-16.3235
-15.7287
-15.1166
-14.4947
-13.8708
2.86141
3.68006
4.34156
4.84459
5.1937
5.39815
5.47048
5.42516
5.27734
5.04194
4.73297
4.36314
3.94366
3.48423
2.99313
2.4773
1.94257
1.39378
0.834967
0.269494
-0.299818
-0.870589
-1.4408
-2.00871
-2.57284
-3.13193
-3.6849
-4.23093
-4.76937
-5.29981
-5.82208
-6.33619
-6.84235
-7.34089
-7.8322
-8.31667
-8.7946
-9.26617
-9.7314
-10.1901
-10.6421
-11.0869
-11.5242
-11.9537
-12.3752
-12.7888
-13.1948
-13.5937
-13.9859
-14.3722
-14.753
-15.1287
-15.4993
-15.8645
-16.2236
-16.5757
-16.9196
-17.254
-17.5777
-17.8893
-18.188
-18.4728
-18.743
-18.9982
-19.2374
-19.4598
-19.6639
-19.8479
-20.0091
-20.1444
-20.2501
-20.3221
-20.3562
-20.3481
-20.2941
-20.1908
-20.0357
-19.8272
-19.5647
-19.2484
-18.8797
-18.4607
-17.9946
-17.4855
-16.9382
-16.3587
-15.7537
-15.1305
-14.4973
-13.8622
3.27797
4.11976
4.78629
5.27816
5.60301
5.7738
5.80677
5.71966
5.5303
5.25548
4.91044
4.50851
4.06107
3.57769
3.0663
2.53344
1.98447
1.4238
0.855064
0.281277
-0.295041
-0.871754
-1.44703
-2.01926
-2.58705
-3.14918
-3.70458
-4.25241
-4.79202
-5.32301
-5.84525
-6.35886
-6.86417
-7.36169
-7.85199
-8.33564
-8.81309
-9.28461
-9.75021
-10.2097
-10.6625
-11.1083
-11.5463
-11.9761
-12.3974
-12.8103
-13.2151
-13.6124
-14.0031
-14.3881
-14.7681
-15.1437
-15.5152
-15.8821
-16.2439
-16.5992
-16.9467
-17.2847
-17.6116
-17.9262
-18.2273
-18.5142
-18.7866
-19.044
-19.2864
-19.5129
-19.7227
-19.914
-20.0842
-20.2299
-20.347
-20.4309
-20.4765
-20.4791
-20.4341
-20.3378
-20.1872
-19.9806
-19.7171
-19.3972
-19.0221
-18.5941
-18.1164
-17.5931
-17.0292
-16.4306
-15.8045
-15.1589
-14.5024
-13.8443
3.9354
4.81149
5.48224
5.95192
6.23389
6.34762
6.31566
6.16116
5.90602
5.5699
5.16961
4.71919
4.23004
3.71128
3.17021
2.61259
2.04305
1.46528
0.882301
0.29658
-0.289808
-0.875094
-1.45772
-2.03629
-2.6095
-3.17617
-3.73522
-4.28576
-4.8271
-5.35883
-5.88087
-6.39348
-6.89721
-7.39286
-7.88133
-8.3635
-8.84009
-9.31152
-9.77781
-10.2386
-10.6932
-11.1407
-11.58
-12.0105
-12.4316
-12.8433
-13.246
-13.6406
-14.0284
-14.4109
-14.7893
-15.1646
-15.5373
-15.9072
-16.2732
-16.6339
-16.9872
-17.331
-17.6633
-17.9823
-18.2869
-18.5765
-18.8513
-19.1116
-19.3577
-19.5901
-19.8081
-20.0103
-20.1944
-20.3564
-20.4916
-20.5944
-20.6586
-20.6783
-20.6478
-20.5627
-20.4193
-20.2156
-19.9508
-19.6252
-19.2404
-18.7988
-18.3037
-17.759
-17.1697
-16.5421
-15.8834
-15.2026
-14.5097
-13.8154
4.87807
5.79863
6.46742
6.89567
7.10674
7.13094
7.00074
6.74727
6.39813
5.97645
5.50076
4.98545
4.44142
3.87683
3.29776
2.70876
2.11332
1.51413
0.913349
0.312725
-0.286274
-0.882363
-1.47436
-2.0611
-2.64144
-3.21418
-3.77818
-4.3324
-4.87605
-5.40862
-5.93009
-6.44088
-6.94189
-7.43435
-7.9197
-8.39937
-8.8745
-9.34577
-9.81327
-10.2764
-10.734
-11.1846
-11.6266
-12.0584
-12.4793
-12.8891
-13.2883
-13.6784
-14.0613
-14.4394
-14.8148
-15.1892
-15.5635
-15.9376
-16.3101
-16.679
-17.0413
-17.3938
-17.7338
-18.0589
-18.3678
-18.6601
-18.9368
-19.1991
-19.4489
-19.6876
-19.9158
-20.1327
-20.336
-20.5214
-20.6828
-20.8132
-20.9047
-20.9494
-20.9402
-20.8712
-20.7381
-20.5384
-20.2716
-19.9383
-19.5404
-19.0806
-18.5621
-17.9889
-17.3655
-16.6979
-15.994
-15.2636
-14.5187
-13.7726
6.17543
7.148
7.79868
8.15185
8.2484
8.1363
7.86306
7.47088
6.99445
6.46052
5.88872
5.29284
4.68222
4.06306
3.43943
2.81406
2.18883
1.56513
0.94404
0.326408
-0.287038
-0.895626
-1.49864
-2.09523
-2.68437
-3.26482
-3.83525
-4.39433
-4.94095
-5.47443
-5.9947
-6.50238
-6.99885
-7.48605
-7.96625
-8.44173
-8.9144
-9.38542
-9.85495
-10.3221
-10.7849
-11.241
-11.6875
-12.1221
-12.543
-12.95
-13.3437
-13.7264
-14.1012
-14.4717
-14.8416
-15.2137
-15.5899
-15.9699
-16.3522
-16.7334
-17.1091
-17.4746
-17.8256
-18.1587
-18.4722
-18.7662
-19.0427
-19.3046
-19.5559
-19.8001
-20.0395
-20.2746
-20.5033
-20.7205
-20.9185
-21.0879
-21.2179
-21.298
-21.3185
-21.2717
-21.1524
-20.9579
-20.6879
-20.3442
-19.9293
-19.4465
-18.8993
-18.2908
-17.6247
-16.906
-16.1426
-15.3454
-14.5293
-13.7119
7.93475
8.96059
9.55807
9.7773
9.69024
9.37344
8.89637
8.31555
7.67329
6.99888
6.31114
5.62123
4.93511
4.25552
3.58343
2.91898
2.26198
1.61225
0.969621
0.333948
-0.294905
-0.917009
-1.53225
-2.14018
-2.73988
-3.32997
-3.90871
-4.47422
-5.02481
-5.55929
-6.07742
-6.58003
-7.06916
-7.54781
-8.01957
-8.48812
-8.95664
-9.42714
-9.90003
-10.3739
-10.8456
-11.311
-11.7655
-12.2051
-12.6269
-13.0298
-13.4149
-13.7857
-14.147
-14.5048
-14.865
-15.2325
-15.6104
-15.999
-16.3958
-16.7956
-17.1915
-17.5763
-17.9429
-18.2865
-18.6045
-18.8975
-19.1692
-19.4253
-19.673
-19.9192
-20.1692
-20.4257
-20.6869
-20.9469
-21.1953
-21.4189
-21.6028
-21.7321
-21.7935
-21.7765
-21.6748
-21.4858
-21.2104
-20.8522
-20.4157
-19.9053
-19.3245
-18.6754
-17.9593
-17.1786
-16.3395
-15.4541
-14.5418
-13.627
10.3246
11.3897
11.8619
11.8435
11.4626
10.8412
10.0788
9.24848
8.39819
7.55618
6.73648
5.94397
5.1784
4.437
3.71629
3.013
2.32453
1.64901
0.985068
0.331558
-0.312588
-0.948362
-1.57648
-2.19704
-2.80928
-3.41151
-4.00126
-4.57565
-5.13186
-5.66774
-6.18248
-6.6771
-7.15456
-7.61947
-8.07748
-8.53454
-8.99596
-9.46537
-9.94369
-10.4287
-10.9153
-11.3966
-11.865
-12.3138
-12.7378
-13.1349
-13.5068
-13.8584
-14.1978
-14.5343
-14.8776
-15.2362
-15.6153
-16.0161
-16.4348
-16.8631
-17.29
-17.7037
-18.0934
-18.451
-18.7726
-19.0594
-19.3179
-19.558
-19.7921
-20.0325
-20.2896
-20.5696
-20.8722
-21.1897
-21.5077
-21.807
-22.0663
-22.2639
-22.381
-22.4032
-22.3227
-22.1377
-21.8521
-21.4729
-21.0082
-20.4651
-19.8479
-19.1564
-18.3867
-17.5351
-16.6028
-15.6017
-14.5576
-13.5081
13.6198
14.6724
14.8717
14.4316
13.5813
12.5116
11.3591
10.2099
9.11095
8.08117
7.12243
6.22774
5.38667
4.58852
3.8239
3.08552
2.3683
1.66899
0.985375
0.315583
-0.342416
-0.990826
-1.63165
-2.26594
-2.89316
-3.51106
-4.11597
-4.7033
-5.26821
-5.80663
-6.31651
-6.79886
-7.25802
-7.70104
-8.13674
-8.57464
-9.02375
-9.4907
-9.97769
-10.4811
-10.9925
-11.5005
-11.9928
-12.458
-12.8873
-13.2764
-13.6276
-13.9488
-14.2525
-14.5539
-14.8684
-15.21
-15.5888
-16.0075
-16.4599
-16.9324
-17.4072
-17.8656
-18.29
-18.6672
-18.9905
-19.2621
-19.4927
-19.6992
-19.9018
-20.1215
-20.3768
-20.6808
-21.0359
-21.4316
-21.8466
-22.2527
-22.6181
-22.9115
-23.1049
-23.1778
-23.1206
-22.9344
-22.6285
-22.2166
-21.7133
-21.1316
-20.4781
-19.7497
-18.9321
-18.0077
-16.9651
-15.8108
-14.5813
-13.3393
18.294
19.1834
18.802
17.61
16.0154
14.301
12.6343
11.0989
9.72389
8.50367
7.41597
6.43409
5.53297
4.69157
3.89356
3.12742
2.38613
1.66622
0.965669
0.282521
-0.386146
-1.0443
-1.69629
-2.3451
-2.99051
-3.62935
-4.25603
-4.86326
-5.4427
-5.98664
-6.49019
-6.95401
-7.38472
-7.79315
-8.19278
-8.59858
-9.02579
-9.48714
-9.988
-10.522
-11.0745
-11.6269
-12.1597
-12.6539
-13.0944
-13.4726
-13.7914
-14.0641
-14.3107
-14.5545
-14.8198
-15.1302
-15.5047
-15.9503
-16.4559
-16.9981
-17.548
-18.0761
-18.5545
-18.9608
-19.2827
-19.5237
-19.7022
-19.8459
-19.987
-20.1588
-20.394
-20.7182
-21.1408
-21.6455
-22.1984
-22.7565
-23.2736
-23.703
-24.0021
-24.1396
-24.104
-23.9033
-23.5574
-23.0915
-22.5314
-21.9012
-21.2162
-20.4711
-19.6311
-18.6504
-17.488
-16.128
-14.6228
-13.091
25.2284
25.5242
23.8989
21.3678
18.6214
16.0214
13.72
11.7567
10.1138
8.73515
7.55691
6.52397
5.59306
4.73197
3.91716
3.13334
2.37304
1.63543
0.920769
0.228489
-0.445127
-1.10672
-1.76559
-2.42923
-3.09736
-3.76519
-4.42415
-5.06327
-5.66834
-6.22483
-6.72108
-7.15684
-7.54347
-7.8979
-8.23989
-8.59166
-8.97862
-9.42662
-9.95056
-10.5361
-11.1565
-11.7816
-12.3819
-12.9273
-13.3909
-13.7544
-14.0215
-14.2168
-14.3727
-14.5239
-14.7061
-14.9581
-15.3181
-15.8066
-16.3991
-17.0524
-17.7201
-18.3581
-18.9227
-19.3757
-19.6913
-19.8749
-19.9614
-19.9962
-20.0275
-20.105
-20.2827
-20.6137
-21.1272
-21.7899
-22.5424
-23.3193
-24.0553
-24.6817
-25.1317
-25.3506
-25.3249
-25.081
-24.6591
-24.1016
-23.4502
-22.7494
-22.0405
-21.3289
-20.5327
-19.5542
-18.2956
-16.6541
-14.7023
-12.7011
36.2304
34.6308
30.2998
25.4354
21.0161
17.3112
14.3187
11.9527
10.1229
8.67782
7.48841
6.46671
5.55239
4.70555
3.89594
3.10522
2.3271
1.57147
0.843494
0.147454
-0.521538
-1.17316
-1.82812
-2.50694
-3.20473
-3.91386
-4.62088
-5.31233
-5.96394
-6.54979
-7.03905
-7.43042
-7.74859
-8.02052
-8.27288
-8.53401
-8.84351
-9.25668
-9.82436
-10.4999
-11.2316
-11.9718
-12.6831
-13.3182
-13.8313
-14.175
-14.3547
-14.4261
-14.4414
-14.4486
-14.4917
-14.6305
-14.9461
-15.5132
-16.2544
-17.0859
-17.9349
-18.7455
-19.4514
-19.988
-20.29
-20.3658
-20.2951
-20.1512
-20.0013
-19.9065
-19.9504
-20.2461
-20.8987
-21.8046
-22.8513
-23.9405
-24.9946
-25.9142
-26.5936
-26.9136
-26.8597
-26.5147
-25.9557
-25.2469
-24.4398
-23.6091
-22.8684
-22.3085
-21.6967
-20.8612
-19.6542
-17.627
-14.8526
-12.021
55.4693
47.6698
37.4687
28.8621
22.3819
17.575
14.0148
11.3766
9.5776
8.25223
7.1782
6.25466
5.4144
4.62536
3.84737
3.05882
2.24865
1.46756
0.72015
0.0273928
-0.623027
-1.23485
-1.85631
-2.5574
-3.29581
-4.06558
-4.84006
-5.61876
-6.35423
-7.01385
-7.49797
-7.8094
-8.02025
-8.17129
-8.29323
-8.40667
-8.55908
-8.86417
-9.54276
-10.3829
-11.2944
-12.2038
-13.0938
-13.8849
-14.5156
-14.8315
-14.8438
-14.716
-14.5217
-14.3214
-14.1394
-14.048
-14.2121
-14.9688
-15.9794
-17.0942
-18.2047
-19.2837
-20.2238
-20.938
-21.2141
-21.0677
-20.7338
-20.3148
-19.8955
-19.5083
-19.2553
-19.3645
-20.3053
-21.6165
-23.0986
-24.6121
-26.1272
-27.4925
-28.573
-29.0148
-28.8133
-28.2564
-27.4677
-26.5336
-25.463
-24.3392
-23.4356
-23.3625
-23.1826
-22.703
-22.1936
-19.6759
-15.0851
-10.6577
93.8471
64.1662
42.3405
29.2261
21.3379
16.0434
12.3827
9.59183
8.35011
7.46447
6.65111
5.92249
5.20243
4.52908
3.81382
3.0434
2.12813
1.31502
0.517965
-0.153756
-0.780199
-1.28275
-1.76993
-2.55417
-3.34177
-4.21054
-5.05321
-5.98748
-6.85375
-7.73062
-8.20556
-8.33318
-8.37802
-8.36394
-8.32576
-8.22315
-8.05475
-7.93377
-9.02848
-10.1629
-11.36
-12.4635
-13.6467
-14.6825
-15.653
-15.9252
-15.5346
-15.1014
-14.6105
-14.1676
-13.6567
-13.0973
-12.6244
-14.0589
-15.5541
-17.1084
-18.5196
-20.0217
-21.3211
-22.5186
-22.7464
-22.0393
-21.2949
-20.4785
-19.7435
-18.9166
-18.0382
-17.2853
-19.1781
-21.1823
-23.3002
-25.2813
-27.4752
-29.4805
-31.4719
-32.0422
-31.2783
-30.3317
-29.1889
-28.0165
-26.5627
-24.7519
-22.8067
-24.5702
-25.0997
-24.5873
-27.6248
-24.71
-15.082
-7.5101
183.213
69.3506
34.6676
22.0642
16.5586
12.1587
9.49806
5.57604
6.6097
6.57247
6.00183
5.57781
4.92301
4.493
3.85953
3.23638
1.86037
1.13922
0.135198
-0.40019
-1.11585
-1.35284
-1.25585
-2.54612
-3.27089
-4.39314
-5.13447
-6.45411
-7.33803
-9.02615
-9.41329
-8.97616
-8.82058
-8.59127
-8.45105
-8.1343
-7.48211
-5.25271
-8.45687
-9.85274
-11.5605
-12.6082
-14.4119
-15.5739
-17.7958
-17.9732
-16.2867
-15.5698
-14.6299
-14.1118
-13.2437
-12.022
-8.28987
-13.0613
-15.0437
-17.3286
-18.7033
-21.0514
-22.5651
-25.4954
-25.6248
-23.0644
-21.9594
-20.5247
-19.7238
-18.3987
-16.6405
-11.3962
-17.8902
-20.5842
-23.6988
-25.6436
-29.0948
-31.4881
-36.4171
-36.9904
-34.0062
-32.6891
-30.9525
-29.9045
-28.1761
-25.358
-16.837
-27.5548
-28.5168
-21.3597
-41.6271
-39.4109
-12.118
0.402855
-13.192
-12.4704
-11.7802
-11.1308
-10.5295
-9.98139
-9.48952
-9.05541
-8.67926
-8.36042
-8.09772
-7.88978
-7.73523
-7.63291
-7.58197
-13.1719
-12.4389
-11.7393
-11.0827
-10.4763
-9.92501
-9.43168
-8.99735
-8.62186
-8.30419
-8.04289
-7.83631
-7.68293
-7.58145
-7.53095
-13.1301
-12.374
-11.6552
-10.9841
-10.3677
-9.81061
-9.31473
-8.88038
-8.50656
-8.19153
-7.93324
-7.72958
-7.57866
-7.47895
-7.42936
-13.0637
-12.2715
-11.5235
-10.8306
-10.1999
-9.63484
-9.13617
-8.70278
-8.33237
-8.02206
-7.76888
-7.57003
-7.42311
-7.32623
-7.27812
-12.9676
-12.1247
-11.3365
-10.6149
-9.96635
-9.39256
-8.89225
-8.46213
-8.09799
-7.79538
-7.55011
-7.35847
-7.21743
-7.12469
-7.0787
-12.834
-11.9229
-11.0827
-10.3262
-9.65787
-9.07672
-8.57803
-8.1554
-7.80199
-7.51131
-7.27764
-7.09625
-6.96339
-6.87632
-6.83322
-12.6505
-11.65
-10.7453
-9.94906
-9.26215
-8.67831
-8.18767
-7.77938
-7.44319
-7.17013
-6.95283
-6.78542
-6.6635
-6.5839
-6.54459
-12.3977
-11.2811
-10.2995
-9.46248
-8.76326
-8.18662
-7.71486
-7.33119
-7.02117
-6.77314
-6.57804
-6.42906
-6.32122
-6.25112
-6.21658
-12.0434
-10.7772
-9.70892
-8.83802
-8.14171
-7.58997
-7.1539
-6.80927
-6.53709
-6.32315
-6.15708
-6.03147
-5.94116
-5.8827
-5.85397
-11.5312
-10.0752
-8.9209
-8.03889
-7.37553
-6.87756
-6.50145
-6.21482
-5.9947
-5.82523
-5.69559
-5.59853
-5.5292
-5.4845
-5.46258
-10.7547
-9.07138
-7.8605
-7.02105
-6.44391
-6.04321
-5.75946
-5.55381
-5.40162
-5.28741
-5.20148
-5.13779
-5.09255
-5.06346
-5.04922
-9.50157
-7.595
-6.42855
-5.74081
-5.33578
-5.09187
-4.9393
-4.83929
-4.7705
-4.72124
-4.68509
-4.65855
-4.6397
-4.62754
-4.62156
-7.32637
-5.37846
-4.51783
-4.1778
-4.06647
-4.04914
-4.06655
-4.09349
-4.11981
-4.14192
-4.15906
-4.17156
-4.18011
-4.18538
-4.18789
-3.27297
-2.07457
-2.08648
-2.38607
-2.70313
-2.97163
-3.18422
-3.34829
-3.47329
-3.56754
-3.63762
-3.68848
-3.72376
-3.74596
-3.75667
4.69725
2.43964
0.632588
-0.576837
-1.38831
-1.95
-2.35041
-2.6421
-2.85747
-3.0173
-3.13535
-3.22096
-3.28044
-3.31798
-3.33614
-41.3028
-41.3601
-41.4792
-41.6702
-41.95
-42.3456
-42.9
-43.6843
-44.8232
-46.5584
-49.4323
-54.9286
-68.1419
-110.624
-288.8
-43.6929
-43.7992
-44.0202
-44.3747
-44.8948
-45.6323
-46.6716
-48.1532
-50.3238
-53.6465
-59.0645
-68.657
-87.2431
-125.311
-194.515
-46.0094
-46.1586
-46.4686
-46.9644
-47.6885
-48.7096
-50.1361
-52.1437
-55.0242
-59.2798
-65.7976
-76.1401
-92.8152
-118.376
-148.288
-48.2223
-48.4065
-48.7881
-49.3955
-50.2762
-51.5052
-53.1971
-55.528
-58.7699
-63.3421
-69.8747
-79.2252
-92.217
-108.419
-122.833
-50.3074
-50.5174
-50.9509
-51.6367
-52.6222
-53.9795
-55.8144
-58.2799
-61.5916
-66.043
-71.9949
-79.7814
-89.3898
-99.702
-107.389
-52.2467
-52.4731
-52.9386
-53.6699
-54.71
-56.122
-57.994
-60.4439
-63.6221
-67.7021
-72.8412
-79.0722
-86.0737
-92.8084
-97.2821
-54.0289
-54.2628
-54.7417
-55.4887
-56.5396
-57.9452
-59.7721
-62.1022
-65.0262
-68.6257
-72.9292
-77.828
-82.9429
-87.4847
-90.2821
-55.6487
-55.8824
-56.3588
-57.0963
-58.1229
-59.4759
-61.201
-63.3479
-65.9613
-69.0604
-72.6037
-76.4337
-80.2099
-83.3725
-85.2245
-57.1063
-57.3334
-57.7946
-58.5034
-59.4796
-60.7482
-62.3368
-64.2698
-66.559
-69.1865
-72.0793
-75.0768
-77.9031
-80.1702
-81.453
-58.4061
-58.622
-59.0585
-59.7247
-60.6332
-61.7985
-63.2334
-64.9443
-66.9218
-69.1285
-71.482
-73.8386
-75.9845
-77.6515
-78.5723
-59.5561
-59.7574
-60.1629
-60.7777
-61.6086
-62.6614
-63.9385
-65.4337
-67.1255
-68.9684
-70.8826
-72.7468
-74.3985
-75.651
-76.331
-60.5663
-60.7511
-61.1219
-61.6809
-62.4298
-63.3686
-64.492
-65.7865
-67.2244
-68.7588
-70.3179
-71.8024
-73.0897
-74.0481
-74.5618
-61.4482
-61.6155
-61.9502
-62.452
-63.1193
-63.9475
-64.9269
-66.0396
-67.2562
-68.532
-69.8049
-70.9949
-72.0094
-72.754
-73.1492
-62.214
-62.3638
-62.6625
-63.1083
-63.6971
-64.4215
-65.2692
-66.2206
-67.2468
-68.3073
-69.3494
-70.3093
-71.1165
-71.7024
-72.0111
-62.8758
-63.0086
-63.2728
-63.6653
-64.1806
-64.8098
-65.5394
-66.3498
-67.2136
-68.0954
-68.9511
-69.7297
-70.3773
-70.8433
-71.0874
-63.4454
-63.5621
-63.794
-64.137
-64.5851
-65.1285
-65.7536
-66.4417
-67.168
-67.9017
-68.6062
-69.241
-69.7643
-70.1382
-70.3332
-63.9338
-64.0358
-64.2379
-64.5359
-64.9233
-65.3904
-65.9241
-66.507
-67.1172
-67.7282
-68.3099
-68.8296
-69.2551
-69.5573
-69.7144
-64.3515
-64.4401
-64.6152
-64.8727
-65.2061
-65.6061
-66.0605
-66.5535
-67.0658
-67.5751
-68.0565
-68.4837
-68.8314
-69.0772
-69.2046
-64.7077
-64.7842
-64.9352
-65.1568
-65.4426
-65.7841
-66.1701
-66.5864
-67.0165
-67.4415
-67.8407
-68.193
-68.4784
-68.6794
-68.7833
-65.0107
-65.0766
-65.2063
-65.3962
-65.6405
-65.9313
-66.2585
-66.6098
-66.9709
-67.3257
-67.6574
-67.9488
-68.1839
-68.349
-68.4342
-65.2681
-65.3245
-65.4356
-65.5979
-65.8062
-66.0532
-66.3302
-66.6264
-66.9295
-67.2261
-67.5022
-67.7438
-67.938
-68.0742
-68.1443
-65.4863
-65.5345
-65.6294
-65.7677
-65.9448
-66.1544
-66.3886
-66.6381
-66.8926
-67.1407
-67.3708
-67.5716
-67.7325
-67.8451
-67.903
-65.671
-65.7121
-65.7929
-65.9106
-66.0609
-66.2384
-66.4362
-66.6464
-66.8601
-67.0678
-67.2599
-67.427
-67.5607
-67.654
-67.7019
-65.8272
-65.8622
-65.9309
-66.0308
-66.1582
-66.3084
-66.4754
-66.6523
-66.8318
-67.0057
-67.1662
-67.3055
-67.4168
-67.4944
-67.5342
-65.9591
-65.9888
-66.0471
-66.1318
-66.2397
-66.3667
-66.5075
-66.6565
-66.8072
-66.9531
-67.0873
-67.2036
-67.2964
-67.3609
-67.3941
-66.0704
-66.0956
-66.145
-66.2168
-66.308
-66.4153
-66.5341
-66.6595
-66.7861
-66.9084
-67.0208
-67.1181
-67.1955
-67.2494
-67.277
-66.1643
-66.1856
-66.2274
-66.2881
-66.3653
-66.4558
-66.556
-66.6616
-66.768
-66.8707
-66.9649
-67.0463
-67.111
-67.156
-67.179
-66.2433
-66.2613
-66.2967
-66.3481
-66.4133
-66.4897
-66.5741
-66.6631
-66.7526
-66.8388
-66.9178
-66.986
-67.0402
-67.0779
-67.0971
-66.3097
-66.325
-66.355
-66.3984
-66.4535
-66.518
-66.5892
-66.6641
-66.7395
-66.8119
-66.8783
-66.9355
-66.9809
-67.0125
-67.0286
-66.3656
-66.3785
-66.4039
-66.4406
-66.4871
-66.5416
-66.6017
-66.6649
-66.7283
-66.7893
-66.8451
-66.8931
-66.9313
-66.9577
-66.9713
-66.4125
-66.4234
-66.4449
-66.4759
-66.5153
-66.5613
-66.6121
-66.6654
-66.7189
-66.7703
-66.8172
-66.8577
-66.8898
-66.912
-66.9234
-66.4517
-66.461
-66.4792
-66.5055
-66.5388
-66.5778
-66.6207
-66.6658
-66.711
-66.7543
-66.7939
-66.828
-66.8551
-66.8738
-66.8834
-66.4846
-66.4924
-66.5079
-66.5302
-66.5585
-66.5915
-66.6279
-66.666
-66.7043
-66.741
-66.7745
-66.8033
-66.8261
-66.8419
-66.85
-66.5119
-66.5186
-66.5317
-66.5507
-66.5748
-66.6029
-66.6338
-66.6662
-66.6987
-66.7298
-66.7582
-66.7827
-66.802
-66.8155
-66.8223
-66.5346
-66.5403
-66.5516
-66.5678
-66.5883
-66.6123
-66.6387
-66.6663
-66.694
-66.7206
-66.7448
-66.7656
-66.7821
-66.7935
-66.7994
-66.5533
-66.5583
-66.5679
-66.5818
-66.5995
-66.6201
-66.6427
-66.6664
-66.6902
-66.713
-66.7337
-66.7515
-66.7657
-66.7754
-66.7804
-66.5686
-66.5729
-66.5812
-66.5933
-66.6086
-66.6264
-66.646
-66.6665
-66.687
-66.7067
-66.7246
-66.7401
-66.7523
-66.7607
-66.765
-66.581
-66.5847
-66.592
-66.6026
-66.6159
-66.6315
-66.6486
-66.6665
-66.6845
-66.7017
-66.7173
-66.7308
-66.7414
-66.7488
-66.7526
-66.5907
-66.594
-66.6005
-66.6099
-66.6217
-66.6355
-66.6507
-66.6666
-66.6825
-66.6977
-66.7116
-66.7235
-66.7329
-66.7394
-66.7428
-66.5982
-66.6012
-66.607
-66.6155
-66.6261
-66.6386
-66.6523
-66.6666
-66.6809
-66.6947
-66.7072
-66.7179
-66.7264
-66.7323
-66.7353
-66.6036
-66.6063
-66.6117
-66.6195
-66.6293
-66.6408
-66.6534
-66.6666
-66.6798
-66.6925
-66.704
-66.7139
-66.7217
-66.7271
-66.7299
-66.607
-66.6096
-66.6147
-66.6221
-66.6314
-66.6422
-66.6542
-66.6666
-66.6791
-66.691
-66.7019
-66.7113
-66.7187
-66.7238
-66.7264
-66.6087
-66.6112
-66.6162
-66.6233
-66.6324
-66.6429
-66.6545
-66.6666
-66.6788
-66.6904
-66.7009
-66.71
-66.7172
-66.7222
-66.7247
-66.6086
-66.6111
-66.6161
-66.6233
-66.6323
-66.6429
-66.6545
-66.6666
-66.6788
-66.6904
-66.701
-66.7101
-66.7173
-66.7223
-66.7248
-66.6067
-66.6094
-66.6145
-66.6219
-66.6312
-66.6421
-66.6541
-66.6666
-66.6792
-66.6912
-66.7021
-66.7115
-66.7189
-66.724
-66.7267
-66.6031
-66.6059
-66.6113
-66.6191
-66.629
-66.6406
-66.6533
-66.6666
-66.6799
-66.6927
-66.7043
-66.7142
-66.7221
-66.7276
-66.7303
-66.5975
-66.6005
-66.6064
-66.6149
-66.6257
-66.6383
-66.6521
-66.6666
-66.6811
-66.6949
-66.7076
-66.7184
-66.727
-66.7329
-66.736
-66.5898
-66.5931
-66.5997
-66.6092
-66.6212
-66.6351
-66.6505
-66.6666
-66.6827
-66.6981
-66.7121
-66.7242
-66.7337
-66.7403
-66.7437
-66.5798
-66.5836
-66.591
-66.6017
-66.6152
-66.631
-66.6484
-66.6666
-66.6848
-66.7022
-66.718
-66.7317
-66.7425
-66.7499
-66.7538
-66.5671
-66.5715
-66.5799
-66.5922
-66.6077
-66.6258
-66.6457
-66.6665
-66.6874
-66.7073
-66.7255
-66.7412
-66.7535
-66.7621
-66.7665
-66.5515
-66.5565
-66.5663
-66.5805
-66.5984
-66.6193
-66.6424
-66.6665
-66.6906
-66.7137
-66.7348
-66.7529
-66.7672
-66.7772
-66.7822
-66.5324
-66.5382
-66.5496
-66.5661
-66.587
-66.6114
-66.6383
-66.6664
-66.6945
-66.7215
-66.7461
-66.7673
-66.784
-66.7956
-66.8015
-66.5092
-66.516
-66.5294
-66.5487
-66.5732
-66.6018
-66.6333
-66.6663
-66.6993
-66.731
-66.7598
-66.7847
-66.8043
-66.818
-66.8249
-66.4813
-66.4893
-66.505
-66.5278
-66.5566
-66.5902
-66.6273
-66.6661
-66.705
-66.7423
-66.7764
-66.8057
-66.8289
-66.845
-66.8532
-66.4478
-66.4572
-66.4758
-66.5026
-66.5366
-66.5763
-66.62
-66.6659
-66.7119
-66.756
-66.7963
-66.8309
-66.8584
-66.8774
-66.8871
-66.4077
-66.4189
-66.4408
-66.4724
-66.5126
-66.5595
-66.6113
-66.6655
-66.72
-66.7723
-66.82
-66.8611
-66.8937
-66.9163
-66.9279
-66.3599
-66.3731
-66.3989
-66.4364
-66.4839
-66.5395
-66.6007
-66.6651
-66.7297
-66.7917
-66.8484
-66.8972
-66.936
-66.9629
-66.9766
-66.3029
-66.3185
-66.3491
-66.3934
-66.4497
-66.5155
-66.5881
-66.6644
-66.7411
-66.8148
-66.8823
-66.9404
-66.9865
-67.0185
-67.0349
-66.235
-66.2535
-66.2897
-66.3422
-66.4088
-66.4867
-66.5729
-66.6635
-66.7546
-66.8423
-66.9226
-66.9919
-67.0469
-67.085
-67.1046
-66.1544
-66.1762
-66.219
-66.2811
-66.3599
-66.4524
-66.5545
-66.6621
-66.7705
-66.8749
-66.9706
-67.0532
-67.1189
-67.1645
-67.1878
-66.0585
-66.0843
-66.1349
-66.2083
-66.3017
-66.4112
-66.5324
-66.6603
-66.7892
-66.9136
-67.0277
-67.1263
-67.2048
-67.2594
-67.2873
-65.9448
-65.9752
-66.035
-66.1218
-66.2322
-66.362
-66.5058
-66.6576
-66.8111
-66.9593
-67.0955
-67.2135
-67.3074
-67.3727
-67.4062
-65.8099
-65.8458
-65.9163
-66.0188
-66.1493
-66.3029
-66.4735
-66.6539
-66.8366
-67.0134
-67.1761
-67.3172
-67.4298
-67.5081
-67.5484
-65.6501
-65.6924
-65.7754
-65.8962
-66.0504
-66.2322
-66.4343
-66.6487
-66.8662
-67.0771
-67.2718
-67.4408
-67.5759
-67.6701
-67.7184
-65.4609
-65.5106
-65.6083
-65.7505
-65.9324
-66.1472
-66.3867
-66.6413
-66.9003
-67.1522
-67.3852
-67.5881
-67.7504
-67.8638
-67.9221
-65.2373
-65.2955
-65.4101
-65.5774
-65.7915
-66.0451
-66.3286
-66.6309
-66.9393
-67.2403
-67.5196
-67.7634
-67.959
-68.0958
-68.1662
-64.9732
-65.0413
-65.1755
-65.3716
-65.6233
-65.9222
-66.2574
-66.6162
-66.9836
-67.3435
-67.6786
-67.9722
-68.2084
-68.3739
-68.4592
-64.6618
-64.7412
-64.8978
-65.1272
-65.4224
-65.774
-66.1699
-66.5954
-67.0331
-67.4638
-67.8666
-68.2208
-68.5068
-68.7077
-68.8114
-64.2953
-64.3875
-64.5697
-64.8371
-65.1823
-65.595
-66.0619
-66.5661
-67.0876
-67.6033
-68.0884
-68.5168
-68.8642
-69.109
-69.2357
-63.8647
-63.9714
-64.1824
-64.4929
-64.8953
-65.3785
-65.928
-66.5248
-67.146
-67.7643
-68.3494
-68.8692
-69.2927
-69.5925
-69.7478
-63.3601
-63.4828
-63.726
-64.085
-64.5521
-65.116
-65.7611
-66.4667
-67.2064
-67.9483
-68.6556
-69.2885
-69.8073
-70.1761
-70.3679
-62.7702
-62.9105
-63.1893
-63.6021
-64.1417
-64.7972
-65.5523
-66.3848
-67.2653
-68.1563
-69.0135
-69.7871
-70.4258
-70.8827
-71.1212
-62.0829
-62.2422
-62.5594
-63.031
-63.651
-64.4091
-65.2897
-66.2697
-67.3167
-68.3879
-69.4295
-70.3793
-71.1707
-71.7409
-72.04
-61.2849
-61.4643
-61.8223
-62.357
-63.0642
-63.9359
-64.9581
-66.108
-67.3515
-68.6399
-69.9092
-71.0814
-72.0693
-72.7875
-73.1664
-60.3624
-60.5623
-60.9625
-61.5632
-62.3633
-63.3583
-64.5378
-65.8815
-67.355
-68.9051
-70.4565
-71.9114
-73.155
-74.0697
-74.5559
-59.3011
-59.5213
-59.9635
-60.631
-61.527
-62.6526
-64.0035
-65.5648
-67.3052
-69.1694
-71.0708
-72.888
-74.4691
-75.6494
-76.2831
-58.087
-58.3261
-58.8081
-59.5402
-60.5313
-61.7906
-63.3229
-65.1236
-67.1695
-69.4079
-71.7436
-74.0286
-76.0616
-77.6086
-78.4503
-56.7068
-56.9622
-57.4791
-58.2694
-59.3495
-60.7389
-62.4561
-64.5122
-66.9002
-69.5788
-72.4516
-75.3441
-77.9917
-80.0575
-81.202
-55.1493
-55.4168
-55.9604
-56.7973
-57.9529
-59.4596
-61.354
-63.6703
-66.4289
-69.6149
-73.1459
-76.8296
-80.3257
-83.146
-84.7484
-53.4061
-53.6797
-54.238
-55.1039
-56.3125
-57.9112
-59.9588
-62.5213
-65.6609
-69.4114
-73.7341
-78.4454
-83.1289
-87.0804
-89.4074
-51.473
-51.7448
-52.302
-53.1727
-54.4013
-56.051
-58.206
-60.9717
-64.4686
-68.8107
-74.0523
-80.0805
-86.4404
-92.1429
-95.6823
-49.3513
-49.6119
-50.1484
-50.9929
-52.1977
-53.8399
-56.0291
-58.9142
-62.6893
-67.5852
-73.8241
-81.4853
-90.2084
-98.7073
-104.415
-47.0486
-47.2874
-47.7809
-48.5631
-49.6903
-51.2492
-53.3689
-56.2388
-60.1317
-65.4272
-72.6082
-82.1526
-94.1319
-107.21
-117.111
-44.5802
-44.7862
-45.2131
-45.8937
-46.8831
-48.269
-50.1879
-52.8529
-56.6
-61.9598
-69.7509
-81.1291
-97.2923
-117.918
-136.684
-41.9689
-42.1315
-42.4693
-43.0099
-43.8007
-44.9188
-46.4887
-48.7156
-51.9486
-56.804
-64.4026
-76.7827
-97.3538
-129.917
-169.288
-39.2448
-39.3552
-39.5848
-39.9525
-40.4911
-41.2549
-42.3334
-43.8797
-46.1704
-49.7432
-55.7338
-66.7481
-89.0873
-137.189
-229.232
-36.4441
-36.4964
-36.6045
-36.7764
-37.0253
-37.3726
-37.8534
-38.5269
-39.5021
-41.0035
-43.5763
-48.8492
-62.9299
-113.946
-353.094
-33.6072
-33.5988
-33.5802
-33.547
-33.4911
-33.3977
-33.2396
-32.9648
-32.4684
-31.5199
-29.544
-24.8339
-11.1232
39.9443
279.609
-30.7762
-30.7085
-30.566
-30.3334
-29.9831
-29.4679
-28.7069
-27.5566
-25.749
-22.7499
-17.4107
-7.06904
14.7412
62.8636
156.11
-27.9925
-27.8702
-27.6146
-27.2018
-26.5897
-25.7089
-24.4447
-22.605
-19.8571
-15.6053
-8.75162
2.73134
22.3329
54.4459
97.3691
15.0859
6.16465
2.57723
0.71684
-0.412021
-1.16132
-1.6857
-2.06471
-2.34387
-2.55118
-2.70466
-2.81632
-2.89414
-2.9434
-2.96727
9.54
5.84693
3.14575
1.3849
0.211934
-0.600537
-1.18237
-1.60913
-1.92685
-2.16478
-2.34216
-2.47193
-2.56279
-2.62048
-2.6485
6.55868
4.84038
3.06123
1.6447
0.585543
-0.199915
-0.786706
-1.22927
-1.56522
-1.82041
-2.01272
-2.15454
-2.25444
-2.31814
-2.34916
4.77059
3.87604
2.72487
1.6563
0.769081
0.0627443
-0.491198
-0.923437
-1.25967
-1.51971
-1.71831
-1.86625
-1.97123
-2.0385
-2.07134
3.60368
3.08989
2.33113
1.54197
0.826998
0.219574
-0.280204
-0.684269
-1.00702
-1.26165
-1.45907
-1.60779
-1.71418
-1.78274
-1.81632
2.79355
2.47383
1.95847
1.37611
0.810221
0.301646
-0.135674
-0.501564
-0.801668
-1.04332
-1.23363
-1.37871
-1.4834
-1.55125
-1.58461
2.20544
1.9936
1.63234
1.1988
0.753639
0.334234
-0.0407477
-0.364541
-0.636903
-0.860637
-1.0396
-1.17767
-1.27818
-1.34372
-1.37605
1.76442
1.61711
1.35641
1.02954
0.679167
0.335968
0.0186317
-0.263233
-0.505902
-0.709034
-0.873974
-1.0027
-1.09723
-1.15924
-1.18994
1.42568
1.31937
1.12641
0.876598
0.599709
0.319741
0.0533775
-0.189141
-0.402354
-0.583949
-0.733484
-0.851483
-0.938849
-0.996496
-1.02513
1.16077
1.08178
0.935886
0.742451
0.522386
0.294062
0.0715642
-0.135399
-0.32076
-0.481125
-0.614888
-0.721529
-0.801103
-0.853895
-0.880202
0.950687
0.890664
0.778367
0.626793
0.450794
0.264336
0.0789624
-0.0966586
-0.256522