/*--------------------------------*- C++ -*----------------------------------*\
| =========                 |                                                 |
| \\      /  F ield         | OpenFOAM: The Open Source CFD Toolbox           |
|  \\    /   O peration     | Version:  5.x                                   |
|   \\  /    A nd           | Web:      www.OpenFOAM.org                      |
|    \\/     M anipulation  |                                                 |
\*---------------------------------------------------------------------------*/
FoamFile
{
    version     2.0;
    format      ascii;
    class       volScalarField;
    location    "19.5";
    object      T;
}
// * * * * * * * * * * * * * * * * * * * * * * * * * * * * * * * * * * * * * //

dimensions      [0 0 0 1 0 0 0];

internalField   nonuniform List<scalar> 
6300
(
9.92576
9.77838
9.63427
9.49561
9.36445
9.24278
9.13244
9.03506
8.95202
8.88436
8.83276
8.79741
8.77806
8.77393
8.78378
9.92466
9.77509
9.62884
9.48808
9.35495
9.23144
9.11947
9.02071
8.93661
8.86829
8.81647
8.78139
8.7628
8.7599
8.77139
9.92245
9.76848
9.6179
9.47294
9.33579
9.20857
9.09325
8.99167
8.9054
8.8357
8.7834
8.74886
8.73183
8.73146
8.74632
9.9191
9.75847
9.60133
9.44998
9.30671
9.17377
9.05329
8.9473
8.8576
8.78567
8.73256
8.69878
8.68415
8.68775
8.70794
9.91459
9.74498
9.57895
9.41892
9.2673
9.12648
8.99883
8.88663
8.79201
8.71679
8.66237
8.62951
8.6182
8.62743
8.65525
9.90889
9.72789
9.55058
9.37946
9.21707
9.066
8.92889
8.80838
8.707
8.62709
8.57057
8.53868
8.53166
8.54849
8.58679
9.90195
9.7071
9.51601
9.33126
9.1555
8.99156
8.84235
8.71096
8.60049
8.51398
8.45413
8.42295
8.42123
8.44807
8.5005
9.89377
9.68256
9.47511
9.27404
9.08212
8.90235
8.73799
8.5926
8.47
8.37418
8.309
8.27772
8.28221
8.32201
8.39352
9.88435
9.65425
9.42782
9.20766
8.99659
8.79773
8.61465
8.45142
8.31271
8.20371
8.12996
8.0967
8.10784
8.1642
8.26166
9.87371
9.62226
9.37426
9.1322
8.89882
8.67731
8.47143
8.28571
8.12568
7.99799
7.91039
7.87126
7.88821
7.96526
8.09867
9.86193
9.58681
9.31476
9.04803
8.78918
8.54126
8.30804
8.09431
7.9063
7.75214
7.64232
7.58972
7.60844
7.70992
7.8943
9.84915
9.54828
9.24993
8.95598
8.66861
8.39051
8.12514
7.87716
7.65304
7.46195
7.31703
7.23681
7.2459
7.37165
7.6297
9.83555
9.50722
9.1807
8.85734
8.53876
8.227
7.92483
7.63614
7.36673
7.12556
6.927
6.79459
6.76666
6.90105
7.26322
9.82135
9.46436
9.10831
8.75393
8.40208
8.05391
7.71103
7.37584
7.05218
6.74655
6.47079
6.24786
6.12507
6.20264
6.67888
9.80685
9.42055
9.03425
8.64796
8.2617
7.87552
7.48952
7.104
6.71957
6.33766
5.96173
5.60098
5.28309
5.10553
5.46685
8.80412
8.82995
8.86189
8.89869
8.9391
8.9819
9.02597
9.07029
9.11394
9.15613
9.19617
9.23351
9.26766
9.29824
9.32493
9.34749
9.36573
9.3795
9.3887
9.39324
9.39309
9.3882
9.37858
9.36423
9.34519
9.32147
9.29313
9.26021
9.22279
9.18091
9.13465
9.08406
9.02923
8.97021
8.90706
8.83984
8.7686
8.69342
8.61432
8.53138
8.44465
8.35419
8.26005
8.1623
8.061
7.95623
7.84803
7.73648
7.62163
7.50353
7.38222
7.25777
7.13021
6.99959
6.86595
6.72937
6.58989
6.4476
6.30258
6.15492
6.00473
5.85211
5.69719
5.54009
5.38094
5.21988
5.05706
4.89265
4.72683
4.5598
4.3918
4.22311
4.05401
3.88483
3.71595
3.54775
3.38065
3.21507
3.05146
2.89025
2.73187
2.57676
2.42529
2.27785
2.13475
1.99629
1.86269
1.73414
1.61075
1.49256
8.79351
8.82109
8.85485
8.89345
8.93559
8.98001
9.02556
9.07119
9.11598
9.15915
9.20001
9.23803
9.27273
9.30376
9.3308
9.35364
9.37209
9.38602
9.39532
9.39993
9.39981
9.39494
9.3853
9.37092
9.35182
9.32804
9.29963
9.26663
9.22911
9.18714
9.14078
9.0901
9.03518
8.97606
8.91283
8.84553
8.77422
8.69895
8.61978
8.53676
8.44995
8.35939
8.26516
8.16732
8.06594
7.96107
7.85279
7.74116
7.62623
7.50806
7.38669
7.26217
7.13455
7.00385
6.87014
6.73346
6.59388
6.45146
6.30631
6.1585
6.00815
5.85537
5.70027
5.54299
5.38364
5.22236
5.05931
4.89463
4.72851
4.56115
4.39277
4.22364
4.05407
3.88437
3.71493
3.54614
3.37842
3.21221
3.04797
2.88613
2.72716
2.57147
2.41948
2.27156
2.12806
1.98926
1.85541
1.7267
1.60323
1.48507
8.77212
8.8033
8.84078
8.88307
8.92875
8.97646
9.02498
9.07324
9.12031
9.16541
9.2079
9.24725
9.28304
9.31493
9.34267
9.36604
9.38489
9.39911
9.40862
9.41336
9.41331
9.40845
9.39878
9.38433
9.36513
9.34121
9.31264
9.27947
9.24177
9.1996
9.15305
9.10218
9.04707
8.98778
8.92437
8.85691
8.78545
8.71003
8.6307
8.54752
8.46054
8.36982
8.2754
8.17738
8.0758
7.97075
7.8623
7.7505
7.63543
7.51712
7.39562
7.27098
7.14323
7.0124
6.87853
6.74167
6.60187
6.45922
6.3138
6.16569
6.01503
5.86191
5.70646
5.5488
5.38905
5.22736
5.06384
4.89864
4.73194
4.56391
4.39477
4.22479
4.05426
3.88352
3.71294
3.54295
3.37398
3.20649
3.04097
2.87787
2.71768
2.56084
2.40778
2.2589
2.11456
1.97508
1.84072
1.71167
1.58807
1.46996
8.73953
8.7764
8.81972
8.86778
8.91892
8.97167
9.02472
9.07693
9.1274
9.17537
9.22023
9.26153
9.29889
9.33203
9.36074
9.38487
9.40428
9.41892
9.42871
9.43362
9.43365
9.42879
9.41906
9.4045
9.38513
9.361
9.33219
9.29875
9.26076
9.2183
9.17145
9.12028
9.06489
9.00533
8.94167
8.87398
8.80228
8.72664
8.64709
8.56368
8.47645
8.38546
8.29077
8.19246
8.09059
7.98526
7.87654
7.7645
7.6492
7.53069
7.40902
7.2842
7.15627
7.02525
6.89115
6.75403
6.61392
6.47091
6.32507
6.17652
6.02537
5.87174
5.71576
5.55755
5.39723
5.23492
5.07073
4.90478
4.73722
4.56821
4.39795
4.22668
4.05471
3.88237
3.71007
3.53824
3.36736
3.19792
3.03043
2.86541
2.70335
2.54474
2.39003
2.23967
2.09405
1.95351
1.81835
1.68879
1.56497
1.44696
8.69516
8.74018
8.79181
8.84797
8.90673
8.96641
9.02558
9.08309
9.13804
9.18973
9.23765
9.28141
9.32074
9.35543
9.38535
9.41039
9.4305
9.44562
9.45573
9.46084
9.46094
9.45607
9.44624
9.43149
9.41189
9.38747
9.35832
9.3245
9.28611
9.24323
9.19597
9.1444
9.08862
9.0287
8.96471
8.89671
8.82472
8.7488
8.66896
8.58524
8.49769
8.40634
8.31128
8.21257
8.1103
8.00458
7.89548
7.78311
7.66751
7.54875
7.42685
7.30184
7.1737
7.04244
6.90807
6.77061
6.63009
6.48659
6.34019
6.19102
6.03921
5.8849
5.72821
5.56928
5.40822
5.24513
5.0801
4.9132
4.74455
4.57427
4.40253
4.22956
4.05564
3.88114
3.70649
3.53214
3.35863
3.18651
3.01633
2.84865
2.68402
2.52297
2.36601
2.21361
2.0662
1.92418
1.7879
1.65761
1.5335
1.41564
8.63818
8.69438
8.75732
8.82436
8.89318
8.96183
9.02878
9.09288
9.1533
9.20946
9.26097
9.3076
9.34919
9.38564
9.41691
9.44296
9.46381
9.47944
9.48989
9.49518
9.49533
9.49039
9.48041
9.46542
9.44549
9.42068
9.39107
9.35676
9.31783
9.27441
9.22659
9.1745
9.11822
9.05785
8.99345
8.92508
8.85276
8.7765
8.69633
8.61225
8.5243
8.43251
8.33695
8.23771
8.13491
8.02866
7.91908
7.80627
7.69031
7.57125
7.44911
7.32389
7.19555
7.06406
6.92938
6.79152
6.65049
6.50637
6.35925
6.20928
6.05661
5.90141
5.74383
5.58403
5.42209
5.2581
5.09209
4.9241
4.75418
4.58238
4.40884
4.23374
4.05737
3.88011
3.70241
3.5248
3.34788
3.17226
2.99858
2.82746
2.65951
2.49531
2.3354
2.18032
2.03056
1.88658
1.74879
1.61753
1.49303
1.37538
8.56752
8.63884
8.71686
8.79814
8.87981
8.95965
9.03604
9.10792
9.17463
9.23581
9.29128
9.34099
9.38497
9.42325
9.45589
9.48297
9.50454
9.52067
9.53141
9.53683
9.53698
9.53191
9.52169
9.50638
9.48603
9.46071
9.43053
9.39557
9.35596
9.31182
9.2633
9.21053
9.15363
9.09271
9.02784
8.95905
8.88637
8.80977
8.72925
8.64477
8.55635
8.46401
8.36783
8.26792
8.16442
8.05747
7.94725
7.83389
7.71749
7.59811
7.47575
7.35036
7.22187
7.09019
6.95522
6.81692
6.67529
6.5304
6.38236
6.23135
6.07758
5.92127
5.76262
5.60179
5.43887
5.2739
5.10688
4.93775
4.76645
4.59297
4.41734
4.23971
4.06036
3.87967
3.69816
3.51644
3.33521
3.1552
2.97712
2.80169
2.62958
2.46143
2.29783
2.13935
1.98657
1.84003
1.70026
1.56771
1.44269
1.32534
8.48183
8.57362
8.67166
8.77132
8.86905
8.96236
9.04973
9.13034
9.20388
9.27031
9.32981
9.38259
9.42888
9.4689
9.50283
9.53083
9.55304
9.56958
9.58053
9.58599
9.58605
9.58078
9.57025
9.55451
9.53363
9.50769
9.47677
9.441
9.40051
9.35547
9.30605
9.25243
9.19476
9.13319
9.06777
8.99856
8.92553
8.84863
8.76777
8.6829
8.59396
8.50098
8.40402
8.30323
8.19879
8.09093
7.97988
7.86582
7.7489
7.62919
7.50666
7.38123
7.25273
7.12097
6.98579
6.84706
6.70474
6.55889
6.40968
6.25734
6.10216
5.94446
5.78451
5.6225
5.45854
5.29263
5.12466
4.95447
4.78184
4.6066
4.42868
4.24814
4.06523
3.88037
3.69416
3.50735
3.32077
3.13531
2.95181
2.7711
2.59393
2.42097
2.25284
2.09017
1.93357
1.78372
1.64132
1.50701
1.38129
1.26438
8.37952
8.49937
8.62406
8.74724
8.86459
8.97359
9.07311
9.16291
9.24328
9.31476
9.37796
9.43347
9.48176
9.52324
9.55823
9.58697
9.60966
9.62645
9.63748
9.64287
9.64273
9.63716
9.62622
9.60997
9.58846
9.56175
9.52994
9.49315
9.45155
9.40535
9.35477
9.30007
9.24146
9.1791
9.11311
9.04349
8.9702
8.8931
8.81202
8.7268
8.63733
8.54359
8.44566
8.34371
8.23802
8.12892
8.01675
7.9018
7.78427
7.66426
7.54171
7.41645
7.28821
7.15664
7.02141
6.8823
6.73921
6.59218
6.44145
6.28735
6.13033
5.97084
5.80929
5.64596
5.48097
5.31427
5.14561
4.97465
4.80093
4.62405
4.44374
4.25994
4.07286
3.88297
3.691
3.49789
3.30471
3.11255
2.92247
2.73541
2.55219
2.37352
2.2
2.03222
1.87084
1.71668
1.57071
1.43393
1.3072
1.19091
8.25886
8.41813
8.57858
8.7315
8.87208
8.99842
9.11043
9.20899
9.29541
9.37106
9.43714
9.49466
9.54438
9.58687
9.62257
9.65177
9.67469
9.69154
9.70246
9.70763
9.70717
9.70119
9.68977
9.67292
9.65068
9.62308
9.59019
9.55215
9.50914
9.46144
9.40936
9.35327
9.29346
9.23019
9.16358
9.09364
9.02027
8.94321
8.86215
8.77674
8.68678
8.59217
8.493
8.38951
8.2821
8.17127
8.05756
7.94141
7.82315
7.7029
7.58058
7.4559
7.32841
7.19749
7.06257
6.92323
6.77927
6.63076
6.478
6.32152
6.16199
6.00014
5.83659
5.67177
5.50583
5.33865
5.16985
4.99875
4.82454
4.64641
4.46379
4.27644
4.08451
3.88854
3.68946
3.48851
3.28713
3.08677
2.88875
2.69415
2.50389
2.31863
2.13887
1.96502
1.79768
1.63784
1.48684
1.34637
1.21804
1.10266
8.1185
8.33516
8.5439
8.73347
8.90003
9.04383
9.16706
9.2725
9.363
9.44106
9.50859
9.56701
9.61732
9.66023
9.69619
9.72551
9.74841
9.76506
9.77567
9.78041
9.77947
9.77299
9.76103
9.74356
9.72054
9.69194
9.65779
9.61821
9.5734
9.52373
9.46965
9.41172
9.35037
9.28599
9.21874
9.14866
9.07555
8.99902
8.91844
8.83317
8.74283
8.64723
8.54648
8.44087
8.33102
8.21769
8.10178
7.98399
7.86483
7.74445
7.62277
7.49935
7.37347
7.24405
7.11002
6.97073
6.82582
6.67539
6.51985
6.36002
6.19692
6.03183
5.86567
5.69914
5.5324
5.36534
5.19732
5.0273
4.85376
4.67518
4.49059
4.29947
4.10194
3.89855
3.69058
3.47969
3.26807
3.05761
2.85005
2.64662
2.44836
2.25579
2.0692
1.88845
1.71372
1.54623
1.38781
1.24131
1.11025
0.99627
7.9596
8.26353
8.53678
8.76853
8.9607
9.1188
9.24922
9.35744
9.44844
9.52616
9.59307
9.65096
9.70084
9.7435
9.77927
9.80843
9.83102
9.84722
9.85722
9.86128
9.85967
9.85258
9.84012
9.82212
9.79834
9.7687
9.73311
9.69169
9.64457
9.59229
9.5354
9.47497
9.41156
9.34583
9.27789
9.20795
9.13566
9.06056
8.98138
8.89682
8.80638
8.70962
8.60685
8.49824
8.38488
8.26772
8.14863
8.02847
7.90819
7.78778
7.66738
7.54625
7.42354
7.29715
7.16499
7.02625
6.88022
6.72733
6.5678
6.40314
6.23467
6.06497
5.89523
5.72672
5.55938
5.39337
5.22761
5.06086
4.89017
4.71255
4.52676
4.3317
4.12775
3.91512
3.69585
3.47189
3.24729
3.02423
2.80538
2.59164
2.3846
2.18431
1.99111
1.80317
1.6193
1.44156
1.27162
1.11399
0.977832
0.866444
7.79487
8.23604
8.58937
8.86052
9.0704
9.23355
9.36332
9.46713
9.55293
9.62675
9.69046
9.74639
9.79471
9.83663
9.8718
9.90075
9.92278
9.93823
9.94724
9.95023
9.94769
9.93985
9.92711
9.90891
9.88449
9.85398
9.81673
9.77331
9.72309
9.66741
9.60619
9.54244
9.47603
9.40877
9.33984
9.27055
9.19973
9.1279
9.052
8.96886
8.87895
8.78062
8.67555
8.56239
8.44414
8.32046
8.19694
8.07306
7.95168
7.83103
7.71299
7.59538
7.47886
7.35851
7.22937
7.09219
6.94447
6.78878
6.62308
6.45171
6.27411
6.09815
5.92298
5.75258
5.5844
5.42099
5.25927
5.10007
4.93652
4.76165
4.57625
4.37667
4.16605
3.94122
3.70784
3.465
3.22426
2.98478
2.75332
2.52698
2.31109
2.1026
1.90544
1.71201
1.51606
1.32563
1.13768
0.955738
0.809747
0.704319
7.69079
8.33499
8.76023
9.04067
9.24733
9.3963
9.51472
9.60268
9.67458
9.74185
9.79899
9.8527
9.8977
9.9394
9.97319
10.003
10.0239
10.0384
10.0458
10.0471
10.0433
10.0341
10.0219
10.0046
9.97931
9.94887
9.90914
9.86465
9.80935
9.75042
9.6805
9.61366
9.54162
9.47403
9.40222
9.33527
9.26517
9.20102
9.13294
9.05055
8.96355
8.86121
8.75583
8.63377
8.51112
8.37288
8.2457
8.11397
7.99401
7.87046
7.75788
7.64285
7.5396
7.43245
7.30528
7.17321
7.02014
6.86455
6.68645
6.5092
6.31113
6.13009
5.94381
5.77518
5.60251
5.44612
5.28723
5.14548
4.99914
4.82585
4.6461
4.43751
4.22475
3.97959
3.73341
3.45506
3.19937
2.93375
2.69384
2.44727
2.2269
2.00456
1.81437
1.62445
1.40486
1.20612
0.995076
0.745706
0.583242
0.49434
7.98371
8.7492
9.13955
9.32699
9.50729
9.60297
9.70993
9.76127
9.80287
9.87143
9.91241
9.97146
10.0054
10.0535
10.0803
10.1178
10.1342
10.1488
10.1532
10.1511
10.1465
10.1325
10.124
10.1116
10.0815
10.0571
10.0083
9.97148
9.90074
9.84918
9.7503
9.69229
9.6007
9.54528
9.45751
9.40443
9.32194
9.27973
9.2344
9.13878
9.07018
8.94611
8.86005
8.70591
8.60048
8.40931
8.30093
8.13787
8.04143
7.89403
7.80624
7.67331
7.60587
7.53514
7.38818
7.28441
7.09937
6.97269
6.74851
6.59661
6.32359
6.16953
5.93918
5.80354
5.5971
5.47481
5.29046
5.19747
5.10052
4.8993
4.75745
4.50432
4.33006
4.0194
3.80526
3.41245
3.18875
2.84568
2.64393
2.32981
2.14553
1.86021
1.72289
1.57959
1.26365
1.10431
0.907651
0.410525
0.250803
0.208559
1.36827
1.24002
1.11886
1.00442
0.896244
0.793828
0.696617
0.604037
0.515509
0.430452
0.3483
0.268498
0.190504
0.113793
0.0378463
1.36091
1.23293
1.11213
0.99814
0.890478
0.788614
0.691978
0.599981
0.512031
0.427544
0.345947
0.266686
0.189221
0.113027
0.0375918
1.34607
1.21863
1.09859
0.985521
0.878906
0.778166
0.682694
0.591871
0.505086
0.42174
0.341255
0.263075
0.186664
0.111502
0.037085
1.32349
1.19691
1.07806
0.966441
0.86145
0.762442
0.668753
0.579719
0.494697
0.413071
0.334256
0.257694
0.182855
0.109232
0.0363307
1.29279
1.16745
1.0503
0.94072
0.838001
0.741393
0.65015
0.563548
0.480907
0.401589
0.324999
0.250586
0.17783
0.106238
0.0353363
1.25341
1.12979
1.01496
0.90813
0.808432
0.714973
0.626898
0.543412
0.46379
0.387373
0.313564
0.24182
0.171639
0.102552
0.0341125
1.2046
1.08331
0.971598
0.868404
0.772617
0.683161
0.599051
0.519408
0.443463
0.370544
0.300061
0.231488
0.164352
0.0982176
0.0326741
1.14533
1.02725
0.919712
0.821263
0.730462
0.645997
0.56673
0.4917
0.420106
0.351277
0.284643
0.219716
0.156062
0.0932915
0.03104
1.07427
0.960643
0.858726
0.766464
0.681965
0.60363
0.530166
0.460552
0.393981
0.32981
0.267518
0.206668
0.146888
0.0878452
0.0292343
0.98958
0.882314
0.788076
0.703896
0.627298
0.556385
0.489747
0.426356
0.365451
0.306462
0.248946
0.19255
0.136976
0.0819659
0.0272858
0.888791
0.790946
0.707363
0.633736
0.566942
0.504858
0.446078
0.389669
0.335002
0.281637
0.229254
0.177607
0.126498
0.0757559
0.0252285
0.768586
0.685309
0.616686
0.556738
0.50187
0.450023
0.400033
0.351237
0.303247
0.255827
0.208822
0.162125
0.115651
0.0693309
0.0231004
0.624898
0.565012
0.517329
0.474655
0.433773
0.393326
0.35279
0.311995
0.27092
0.229599
0.188081
0.146417
0.10465
0.0628153
0.0209425
0.454447
0.432507
0.412956
0.390777
0.365234
0.336715
0.305802
0.27303
0.238836
0.203564
0.167485
0.130812
0.0937157
0.056337
0.0187965
0.262414
0.297608
0.311207
0.310259
0.29967
0.282493
0.26067
0.235485
0.207828
0.178336
0.147482
0.115629
0.0830626
0.0500198
0.016703
9.79356
9.38039
8.96636
8.5508
8.13295
7.7118
7.28604
6.8538
6.41235
5.95734
5.48118
4.96869
4.38261
3.60585
2.17014
9.78167
9.34448
8.90568
8.46407
8.01819
7.56618
7.10554
6.63274
6.14248
5.62627
5.06955
4.44498
3.69641
2.70012
1.19018
9.77014
9.30968
8.84696
8.3803
7.90768
7.42653
6.93348
6.42381
5.89061
5.32333
4.70501
4.00737
3.18221
2.15107
0.814696
9.75911
9.27644
8.79098
8.30068
7.80308
7.29515
6.77297
6.23121
5.66241
5.05581
4.39557
3.65832
2.81106
1.81398
0.642693
9.74872
9.24513
8.73837
8.22611
7.70564
7.17367
6.62605
6.05738
5.46045
4.82555
4.13959
3.38565
2.54396
1.59785
0.549925
9.73905
9.21602
8.68958
8.15725
7.61619
7.06305
6.49375
5.90317
5.28487
4.63073
3.93083
3.1739
2.34938
1.45243
0.493214
9.73014
9.18928
8.64489
8.09444
7.53512
6.96365
6.37621
5.76821
5.13417
4.46768
3.76165
3.0091
2.20509
1.35024
0.455399
9.72205
9.16498
8.6044
8.0378
7.46247
6.87535
6.27295
5.65133
5.00599
4.3321
3.62479
2.88003
2.09611
1.27583
0.428663
9.71475
9.14312
8.56808
7.98723
7.39801
6.79764
6.18305
5.5509
4.89765
4.21972
3.51392
2.77814
2.01239
1.22008
0.408983
9.70824
9.12364
8.5358
7.94247
7.3413
6.72981
6.10533
5.46514
4.80645
4.1267
3.42388
2.69706
1.94711
1.17737
0.394076
9.70247
9.10641
8.50732
7.90315
7.29177
6.67098
6.03854
5.39221
4.72987
4.0497
3.3505
2.63205
1.89556
1.14408
0.382542
9.6974
9.09127
8.48238
7.86884
7.24876
6.62024
5.98139
5.3304
4.66566
3.98591
3.29048
2.57956
1.85444
1.11776
0.373474
9.69297
9.07807
8.46066
7.83906
7.21162
6.57668
5.93267
5.27814
4.61187
3.93301
3.24123
2.53692
1.82134
1.09673
0.366256
9.68912
9.0666
8.44184
7.81335
7.17968
6.53941
5.89125
5.23403
4.56683
3.88909
3.20069
2.5021
1.7945
1.07977
0.360452
9.68579
9.0567
8.42562
7.79124
7.15231
6.50763
5.85611
5.19684
4.52912
3.85257
3.16721
2.47355
1.77262
1.066
0.35575
9.68292
9.04817
8.41168
7.77229
7.12894
6.48059
5.82637
5.16552
4.49753
3.82216
3.1395
2.45003
1.75468
1.05475
0.351915
9.68046
9.04086
8.39974
7.75611
7.10902
6.45764
5.80122
5.13916
4.47107
3.79681
3.11651
2.43062
1.73992
1.04552
0.348772
9.67835
9.03462
8.38955
7.74231
7.0921
6.43819
5.77998
5.11698
4.44891
3.77566
3.0974
2.41453
1.72773
1.03791
0.346185
9.67656
9.02929
8.38087
7.73058
7.07774
6.42173
5.76206
5.09833
4.43033
3.758
3.0815
2.40119
1.71764
1.03162
0.344049
9.67503
9.02476
8.3735
7.72063
7.06557
6.40782
5.74695
5.08265
4.41475
3.74323
3.06824
2.39008
1.70926
1.02641
0.342279
9.67373
9.02091
8.36724
7.71219
7.05528
6.39607
5.73422
5.06947
4.40169
3.73088
3.05717
2.38084
1.70229
1.02208
0.34081
9.67263
9.01764
8.36194
7.70506
7.04658
6.38616
5.7235
5.05839
4.39074
3.72054
3.04792
2.37312
1.69649
1.01847
0.339588
9.6717
9.01488
8.35745
7.69902
7.03924
6.37781
5.71447
5.04908
4.38154
3.71188
3.04019
2.36668
1.69165
1.01547
0.33857
9.67091
9.01255
8.35366
7.69393
7.03305
6.37077
5.70688
5.04126
4.37383
3.70462
3.03372
2.3613
1.68761
1.01296
0.337721
9.67024
9.01058
8.35047
7.68963
7.02783
6.36484
5.7005
5.03469
4.36737
3.69854
3.0283
2.3568
1.68423
1.01087
0.337012
9.66968
9.00891
8.34777
7.68601
7.02343
6.35985
5.69513
5.02917
4.36194
3.69345
3.02377
2.35303
1.68141
1.00912
0.33642
9.66921
9.00751
8.34549
7.68296
7.01973
6.35565
5.69061
5.02453
4.35738
3.68917
3.01997
2.34988
1.67904
1.00766
0.335924
9.66881
9.00633
8.34358
7.68039
7.01662
6.35213
5.68682
5.02065
4.35356
3.68559
3.01679
2.34724
1.67707
1.00643
0.33551
9.66847
9.00533
8.34197
7.67824
7.014
6.34917
5.68364
5.01738
4.35036
3.68259
3.01412
2.34503
1.67541
1.00541
0.335163
9.66819
9.0045
8.34062
7.67642
7.01181
6.34668
5.68097
5.01465
4.34768
3.68008
3.01189
2.34318
1.67403
1.00455
0.334874
9.66795
9.0038
8.33948
7.6749
7.00996
6.3446
5.67874
5.01235
4.34543
3.67798
3.01002
2.34163
1.67287
1.00384
0.334631
9.66775
9.00321
8.33853
7.67363
7.00842
6.34285
5.67687
5.01044
4.34355
3.67622
3.00847
2.34034
1.6719
1.00324
0.334429
9.66759
9.00272
8.33774
7.67256
7.00713
6.3414
5.6753
5.00884
4.34198
3.67475
3.00716
2.33926
1.6711
1.00274
0.33426
9.66745
9.00231
8.33708
7.67168
7.00606
6.34018
5.674
5.00751
4.34068
3.67353
3.00608
2.33837
1.67043
1.00233
0.33412
9.66733
9.00197
8.33653
7.67094
7.00517
6.33918
5.67293
5.0064
4.3396
3.67252
3.00519
2.33762
1.66987
1.00198
0.334004
9.66724
9.00169
8.33607
7.67034
7.00444
6.33835
5.67204
5.00549
4.33871
3.67169
3.00445
2.33701
1.66942
1.0017
0.333909
9.66716
9.00147
8.3357
7.66984
7.00384
6.33767
5.67131
5.00475
4.33798
3.67101
3.00385
2.33651
1.66904
1.00147
0.333831
9.6671
9.00128
8.33541
7.66944
7.00335
6.33712
5.67072
5.00415
4.33739
3.67046
3.00336
2.33611
1.66874
1.00128
0.333768
9.66705
9.00113
8.33517
7.66912
7.00297
6.33669
5.67026
5.00368
4.33693
3.67003
3.00298
2.3358
1.66851
1.00114
0.333718
9.66701
9.00102
8.33499
7.66888
7.00268
6.33636
5.66991
5.00332
4.33658
3.6697
3.00268
2.33555
1.66833
1.00103
0.33368
9.66699
9.00094
8.33486
7.66871
7.00247
6.33612
5.66965
5.00305
4.33632
3.66946
3.00247
2.33538
1.66819
1.00094
0.333653
9.66697
9.00089
8.33478
7.6686
7.00233
6.33597
5.66949
5.00289
4.33616
3.6693
3.00234
2.33527
1.66811
1.00089
0.333635
9.66696
9.00087
8.33474
7.66854
7.00227
6.3359
5.66941
5.00281
4.33608
3.66923
3.00227
2.33521
1.66807
1.00087
0.333627
9.66696
9.00087
8.33474
7.66855
7.00227
6.3359
5.66941
5.00281
4.33608
3.66923
3.00227
2.33521
1.66807
1.00087
0.333627
9.66697
9.0009
8.33478
7.66861
7.00234
6.33598
5.6695
5.0029
4.33617
3.66932
3.00235
2.33527
1.66812
1.0009
0.333637
9.66699
9.00095
8.33487
7.66872
7.00249
6.33614
5.66968
5.00308
4.33634
3.66948
3.00249
2.33539
1.66821
1.00095
0.333655
9.66702
9.00103
8.33501
7.66891
7.00271
6.33639
5.66994
5.00335
4.33661
3.66973
3.00271
2.33558
1.66834
1.00104
0.333684
9.66706
9.00115
8.33519
7.66915
7.00301
6.33673
5.67031
5.00372
4.33697
3.67007
3.00301
2.33583
1.66853
1.00115
0.333723
9.66711
9.0013
8.33543
7.66948
7.0034
6.33717
5.67078
5.00421
4.33745
3.67051
3.00341
2.33615
1.66877
1.0013
0.333774
9.66717
9.00149
8.33574
7.66989
7.0039
6.33773
5.67138
5.00482
4.33805
3.67107
3.0039
2.33656
1.66908
1.00149
0.333838
9.66725
9.00172
8.33612
7.6704
7.00451
6.33843
5.67212
5.00558
4.33879
3.67177
3.00452
2.33707
1.66946
1.00173
0.333918
9.66735
9.00201
8.33658
7.67101
7.00526
6.33927
5.67303
5.00651
4.3397
3.67262
3.00527
2.3377
1.66993
1.00202
0.334015
9.66746
9.00235
8.33714
7.67177
7.00617
6.3403
5.67413
5.00764
4.34081
3.67365
3.00619
2.33845
1.67049
1.00237
0.334134
9.6676
9.00277
8.33782
7.67267
7.00726
6.34154
5.67546
5.00899
4.34214
3.67489
3.00729
2.33937
1.67118
1.00279
0.334276
9.66777
9.00327
8.33863
7.67376
7.00858
6.34302
5.67705
5.01062
4.34373
3.67639
3.00861
2.34046
1.672
1.00329
0.334448
9.66798
9.00387
8.3396
7.67506
7.01015
6.3448
5.67896
5.01258
4.34565
3.67818
3.0102
2.34178
1.67298
1.0039
0.334654
9.66822
9.00459
8.34076
7.67661
7.01203
6.34693
5.68124
5.01491
4.34794
3.68032
3.0121
2.34335
1.67416
1.00463
0.3349
9.66851
9.00544
8.34214
7.67846
7.01427
6.34946
5.68396
5.0177
4.35067
3.68288
3.01437
2.34523
1.67557
1.0055
0.335195
9.66885
9.00645
8.34378
7.68066
7.01694
6.35248
5.6872
5.02103
4.35393
3.68593
3.01709
2.34748
1.67725
1.00654
0.335548
9.66926
9.00766
8.34573
7.68328
7.02011
6.35608
5.69106
5.02499
4.35782
3.68958
3.02032
2.35017
1.67926
1.00779
0.335969
9.66974
9.00909
8.34805
7.68639
7.02389
6.36036
5.69566
5.02971
4.36246
3.69392
3.02419
2.35337
1.68166
1.00927
0.336472
9.67031
9.01079
8.35081
7.69009
7.02837
6.36545
5.70114
5.03533
4.36798
3.69911
3.0288
2.3572
1.68453
1.01105
0.337073
9.671
9.01281
8.35408
7.69448
7.0337
6.37149
5.70765
5.04202
4.37457
3.70529
3.0343
2.36177
1.68796
1.01317
0.337793
9.6718
9.0152
8.35796
7.69969
7.04003
6.37868
5.71539
5.04999
4.38241
3.71267
3.04087
2.36723
1.69205
1.01572
0.338653
9.67276
9.01802
8.36255
7.70586
7.04754
6.38721
5.72459
5.05948
4.39176
3.72147
3.04872
2.37377
1.69696
1.01876
0.339684
9.67389
9.02137
8.36798
7.71316
7.05643
6.39733
5.73553
5.07076
4.40291
3.73198
3.0581
2.38158
1.70284
1.0224
0.34092
9.67522
9.02532
8.37439
7.72181
7.06696
6.40934
5.74852
5.08419
4.4162
3.74452
3.06933
2.39095
1.70988
1.02678
0.342404
9.67679
9.02997
8.38197
7.73202
7.07942
6.42357
5.76394
5.10017
4.43203
3.75951
3.08276
2.40217
1.71834
1.03204
0.344189
9.67864
9.03545
8.39089
7.74406
7.09415
6.44041
5.78225
5.11918
4.45092
3.77742
3.09886
2.41566
1.72852
1.03837
0.346339
9.68081
9.0419
8.40138
7.75825
7.11152
6.46034
5.80395
5.14178
4.47346
3.79886
3.11817
2.43187
1.74079
1.04602
0.348937
9.68335
9.04945
8.4137
7.77492
7.132
6.48388
5.82968
5.16866
4.50034
3.82453
3.14138
2.45142
1.75561
1.05527
0.352084
9.68633
9.05827
8.42811
7.79449
7.15607
6.51165
5.86013
5.20061
4.53243
3.8553
3.16931
2.47503
1.77356
1.06651
0.35591
9.68979
9.06856
8.44494
7.81737
7.18432
6.54435
5.89614
5.23856
4.57074
3.89222
3.20299
2.50363
1.7954
1.08022
0.360583
9.6938
9.0805
8.46451
7.84406
7.21737
6.58277
5.93865
5.28361
4.61649
3.93658
3.2437
2.53839
1.82207
1.09701
0.366319
9.69844
9.09431
8.48719
7.87506
7.25593
6.6278
5.98876
5.33704
4.67113
3.98994
3.29303
2.58081
1.8548
1.11771
0.373407
9.70377
9.11021
8.51334
7.91094
7.30072
6.6804
6.04767
5.40033
4.73637
4.05422
3.35299
2.63281
1.89523
1.14342
0.382238
9.70986
9.1284
8.54334
7.95224
7.35254
6.74161
6.11673
5.47515
4.81425
4.13176
3.4261
2.69689
1.94552
1.17565
0.393352
9.71678
9.14908
8.57754
7.9995
7.41215
6.81251
6.19737
5.56339
4.90713
4.22538
3.51555
2.77635
2.00867
1.21652
0.407522
9.72459
9.17243
8.61625
8.05322
7.4803
6.89416
6.29111
5.66708
5.01771
4.33851
3.62541
2.87559
2.08881
1.26907
0.425893
9.73331
9.19857
8.65971
8.11381
7.55764
6.98756
6.39941
5.78839
5.14899
4.47517
3.76076
3.00049
2.19185
1.33791
0.450241
9.74297
9.22757
8.70807
8.18153
7.64462
7.0935
6.5236
5.92938
5.30417
4.64001
3.92795
3.15897
2.32634
1.43016
0.483487
9.75356
9.25941
8.76133
8.25644
7.74147
7.21249
6.66467
6.09191
5.48639
4.83812
4.13468
3.36164
2.50497
1.55747
0.53083
9.76505
9.29398
8.8193
8.33836
7.84804
7.34455
6.82306
6.27717
5.69828
5.07454
4.38974
3.62238
2.74668
1.73974
0.602489
9.77735
9.33104
8.88163
8.42678
7.96375
7.48912
6.99837
6.48536
5.94132
5.35336
4.70212
3.95834
3.07954
2.0125
0.72118
9.79035
9.37027
8.94772
8.52088
8.08753
7.64487
7.18915
6.71509
6.21484
5.67612
5.07876
4.38807
3.5431
2.44099
0.944761
9.80391
9.41119
9.01681
8.6195
8.21776
7.80967
7.39266
6.963
6.51506
6.0396
5.5202
4.92492
4.18524
3.14318
1.44146
9.81784
9.45327
9.08792
8.72118
8.35239
7.98068
7.60494
7.22361
6.8344
6.43357
6.01433
5.56204
5.03734
4.30344
2.75843
9.83195
9.4959
9.15998
8.8243
8.48904
8.15448
7.82108
7.48969
7.16179
6.84032
6.53139
6.24944
6.03472
6.02697
6.8336
9.84604
9.53844
9.23187
8.92712
8.6252
8.32746
8.03584
7.75332
7.48471
7.23834
7.02971
6.89013
6.88833
7.18495
8.1456
9.85989
9.58026
9.30248
9.02797
8.75845
8.49618
8.24427
8.00728
7.79217
7.61014
7.48007
7.43511
7.53469
7.88177
8.62361
0.107974
0.193743
0.231267
0.245288
0.245604
0.237047
0.222378
0.203333
0.181084
0.156456
0.13006
0.102363
0.0737337
0.0444797
0.0148657
0.0579774
0.132823
0.174916
0.195738
0.202614
0.199976
0.190603
0.176329
0.158421
0.137792
0.115125
0.0909486
0.0656865
0.0396929
0.013277
0.0365282
0.0946454
0.133336
0.15587
0.16623
0.167581
0.162231
0.151847
0.137646
0.120542
0.101238
0.080288
0.0581469
0.0351991
0.011784
0.0254533
0.0699586
0.102974
0.124456
0.1361
0.139838
0.137355
0.130014
0.118886
0.10482
0.0884922
0.0704541
0.0511672
0.0310296
0.0103973
0.0188235
0.0532502
0.0806212
0.0998727
0.111461
0.116413
0.115852
0.110809
0.102167
0.0906682
0.0769337
0.0614869
0.0447779
0.0272033
0.00912316
0.0144297
0.0414413
0.0639062
0.0806108
0.0914284
0.0968152
0.0974614
0.0941017
0.0874301
0.0780684
0.0665636
0.0533957
0.0389895
0.0237278
0.00796439
0.0113192
0.0327896
0.0511911
0.0654365
0.0751671
0.0805093
0.0818517
0.0796943
0.0745609
0.0669562
0.0573482
0.0461641
0.0337948
0.0206006
0.0069204
0.00901959
0.0262688
0.0413619
0.053397
0.0619527
0.0669803
0.068672
0.0673529
0.0634074
0.0572349
0.0492267
0.0397554
0.0291726
0.0178109
0.00598786
0.00726857
0.0212451
0.0336559
0.0437733
0.0511879
0.0557675
0.0575827
0.056835
0.0537999
0.0487879
0.0421209
0.0341183
0.0250912
0.0153413
0.00516132
0.00590682
0.0173085
0.0275425
0.0360262
0.0423915
0.0464739
0.0482728
0.0479052
0.0455648
0.04149
0.0359423
0.0291923
0.0215117
0.0131702
0.00443383
0.00483113
0.0141826
0.0226444
0.02975
0.0351803
0.0387658
0.040467
0.0403451
0.0385338
0.0352147
0.0305984
0.0249122
0.0183911
0.0112732
0.00379749
0.00397124
0.0116745
0.018688
0.0246369
0.0292498
0.0323661
0.0339269
0.0339579
0.0325497
0.0298398
0.0259974
0.0212118
0.0156847
0.00962472
0.00324393
0.00327744
0.00964523
0.0154707
0.0204513
0.0243585
0.0270464
0.028449
0.0285698
0.0274693
0.0252513
0.0220511
0.0180261
0.0133483
0.00819891
0.00276472
0.00271356
0.00799248
0.0128402
0.017011
0.0203137
0.0226191
0.0238609
0.0240297
0.0231648
0.0213446
0.0186774
0.0152936
0.0113392
0.00697085
0.00235161
0.00225258
0.00663914
0.0106796
0.0141735
0.0169612
0.0189303
0.0200177
0.0202072
0.0195236
0.018026
0.0158012
0.0129573
0.00961766
0.00591692
0.00199683
0.00187395
0.00552613
0.0088983
0.0118265
0.0141771
0.0158535
0.016798
0.016991
0.0164474
0.0152122
0.013355
0.0109651
0.00814677
0.00501529
0.00169311
0.00156177
0.00460754
0.00742534
0.00988034
0.0118611
0.0132849
0.0141001
0.0142862
0.0138515
0.0128302
0.0112785
0.00927023
0.00689333
0.00424606
0.00143384
0.0013036
0.00384723
0.00620426
0.00826348
0.00993184
0.0111389
0.0118391
0.0120123
0.0116628
0.0108166
0.00951901
0.00783134
0.00582758
0.00359137
0.00121306
0.00108955
0.00321646
0.00518995
0.006918
0.00832285
0.00934468
0.00994384
0.0101014
0.00981889
0.00911628
0.00803035
0.00661191
0.00492322
0.00303532
0.00102546
0.000911752
0.00269222
0.00434605
0.00579692
0.00697977
0.00784397
0.00835517
0.00849616
0.00826662
0.00768212
0.00677255
0.0055801
0.00415715
0.00256395
0.000866373
0.000763834
0.00225589
0.00364307
0.00486191
0.00585794
0.00658833
0.00702354
0.00714813
0.00696079
0.00647366
0.00571113
0.00470833
0.00350929
0.00216506
0.0007317
0.000640642
0.00189236
0.00305698
0.00408158
0.00492054
0.00553764
0.00590757
0.00601667
0.00586311
0.00545639
0.00481653
0.0039728
0.00296223
0.00182804
0.000617886
0.000537975
0.00158932
0.00256811
0.00343015
0.00413716
0.00465855
0.00497267
0.00506758
0.00494118
0.00460099
0.00406349
0.00335309
0.00250099
0.00154376
0.000521858
0.000452394
0.00133664
0.0021603
0.00288636
0.00348267
0.00392336
0.00418999
0.00427213
0.00416767
0.00388258
0.00343047
0.00283177
0.00211276
0.00130437
0.000440978
0.000381074
0.00112603
0.00182024
0.00243266
0.00293621
0.00330903
0.00353538
0.00360625
0.00351957
0.00328014
0.00289923
0.00239399
0.00178656
0.00110317
0.000372989
0.000321695
0.000950642
0.00153697
0.00205454
0.00248052
0.00279638
0.00298872
0.00304975
0.00297752
0.00277592
0.00245432
0.00202715