/*--------------------------------*- C++ -*----------------------------------*\
| =========                 |                                                 |
| \\      /  F ield         | OpenFOAM: The Open Source CFD Toolbox           |
|  \\    /   O peration     | Version:  5.x                                   |
|   \\  /    A nd           | Web:      www.OpenFOAM.org                      |
|    \\/     M anipulation  |                                                 |
\*---------------------------------------------------------------------------*/
FoamFile
{
    version     2.0;
    format      ascii;
    class       volScalarField;
    location    "2.4999";
    object      gradTx;
}
// * * * * * * * * * * * * * * * * * * * * * * * * * * * * * * * * * * * * * //

dimensions      [0 -1 0 1 0 0 0];

internalField   nonuniform List<scalar> 
2048
(
0.00773294
0.0229626
0.0375059
0.0509761
0.0630799
0.0736316
0.0825517
0.0898524
0.0956146
0.0999634
0.103045
0.105011
0.106007
0.10617
0.105628
0.104502
0.102908
0.100955
0.0987439
0.0963647
0.0938922
0.091384
0.0888808
0.0864073
0.083975
0.0815864
0.0792366
0.0769161
0.0746114
0.0723053
0.0699784
0.0676097
0.0651794
0.0626702
0.0600695
0.0573698
0.0545673
0.051661
0.0486492
0.0455278
0.0422891
0.0389219
0.0354135
0.0317527
0.0279336
0.0239598
0.0198476
0.015629
0.0113532
0.00708771
0.00291785
-0.0010549
-0.00471618
-0.00794414
-0.010617
-0.0126228
-0.0138702
-0.0142991
-0.0138897
-0.0126683
-0.0107077
-0.00812398
-0.0050693
-0.00172261
0.0230561
0.0684515
0.111765
0.151829
0.187765
0.219024
0.245384
0.2669
0.283831
0.296566
0.305552
0.311242
0.314073
0.314449
0.312747
0.309324
0.304521
0.298663
0.292053
0.284957
0.2776
0.270152
0.262731
0.255409
0.248217
0.241159
0.234221
0.227372
0.220572
0.213771
0.20691
0.199924
0.192753
0.185346
0.177664
0.169686
0.161402
0.152811
0.143911
0.13469
0.125125
0.115181
0.104819
0.094001
0.0827079
0.0709468
0.0587637
0.0462515
0.0335553
0.0208749
0.00846377
-0.00337532
-0.0142998
-0.0239433
-0.0319377
-0.0379431
-0.0416803
-0.0429645
-0.0417329
-0.0380619
-0.0321698
-0.0244059
-0.0152275
-0.00517392
0.0382517
0.113526
0.185235
0.251395
0.310534
0.361764
0.40476
0.439672
0.466991
0.487408
0.501694
0.510618
0.514898
0.515192
0.51211
0.506232
0.498114
0.488295
0.477274
0.4655
0.453342
0.441081
0.428905
0.416921
0.405175
0.393664
0.382359
0.371211
0.360152
0.349097
0.337947
0.326592
0.314928
0.302865
0.290341
0.277322
0.263798
0.249774
0.235251
0.220214
0.204626
0.188423
0.171534
0.153889
0.135443
0.1162
0.0962287
0.075676
0.0547767
0.0338577
0.0133367
-0.00628379
-0.0244312
-0.0404878
-0.0538284
-0.0638695
-0.0701276
-0.0722774
-0.070202
-0.0640235
-0.054108
-0.0410447
-0.0256047
-0.00869838
0.0536337
0.159095
0.259329
0.351462
0.433404
0.503956
0.562758
0.610141
0.646914
0.674143
0.692968
0.704487
0.709696
0.70949
0.70469
0.696077
0.684419
0.670463
0.654918
0.638413
0.621471
0.604476
0.587678
0.571207
0.555106
0.539357
0.523912
0.508699
0.493626
0.478573
0.463396
0.447936
0.432037
0.415566
0.398435
0.380601
0.362064
0.342843
0.322954
0.302383
0.281076
0.258941
0.235858
0.211713
0.186425
0.159981
0.132461
0.104057
0.0750871
0.0460007
0.017377
-0.0100805
-0.035562
-0.058184
-0.0770405
-0.0912756
-0.100169
-0.103228
-0.100262
-0.0914324
-0.0772623
-0.0585985
-0.0365479
-0.0124141
0.0694859
0.205976
0.335308
0.453598
0.558106
0.647361
0.721067
0.779866
0.825006
0.858026
0.880498
0.893868
0.8994
0.898197
0.891258
0.879548
0.86403
0.845672
0.825399
0.804043
0.782281
0.760602
0.739302
0.718514
0.698258
0.678488
0.659129
0.640088
0.621251
0.602466
0.58354
0.564254
0.544388
0.523758
0.502248
0.479811
0.456468
0.432268
0.407255
0.381426
0.354711
0.326977
0.298045
0.267736
0.235914
0.202533
0.167671
0.131558
0.0945875
0.0573245
0.0205076
-0.0149564
-0.0480104
-0.0774834
-0.102156
-0.120857
-0.132584
-0.136632
-0.132712
-0.121018
-0.102244
-0.0775252
-0.0483395
-0.0164162
0.0860803
0.254949
0.41435
0.559238
0.686177
0.793487
0.881076
0.950068
1.00232
1.03997
1.06509
1.0795
1.0847
1.08197
1.07243
1.0572
1.03743
1.01433
0.989052
0.962664
0.936012
0.909682
0.883999
0.859072
0.83487
0.811298
0.788249
0.765615
0.743266
0.721024
0.69864
0.675822
0.652269
0.627732
0.602059
0.57521
0.547241
0.518256
0.488345
0.457528
0.425719
0.392733
0.358312
0.322187
0.284144
0.244084
0.20207
0.158358
0.113409
0.0679001
0.0227242
-0.0210078
-0.0619802
-0.0987099
-0.129622
-0.153175
-0.168018
-0.173181
-0.168235
-0.153402
-0.129569
-0.0982057
-0.061211
-0.0207824
0.10369
0.306788
0.497611
0.669751
0.81903
0.943652
1.04392
1.12168
1.1796
1.22058
1.24728
1.26188
1.26611
1.2613
1.24869
1.22947
1.20501
1.17675
1.14614
1.11449
1.08285
1.0519
1.02197
0.993101
0.965176
0.938025
0.911505
0.885503
0.859892
0.834473
0.80894
0.782902
0.755954
0.727762
0.69813
0.667032
0.634585
0.600977
0.566372
0.530829
0.49425
0.456378
0.41685
0.375277
0.331338
0.284857
0.235868
0.184645
0.13171
0.077843
0.024086
-0.0282482
-0.077577
-0.122079
-0.159775
-0.188679
-0.207017
-0.213472
-0.207429
-0.189126
-0.15968
-0.120958
-0.0753508
-0.0255746
0.122602
0.362298
0.586266
0.786489
0.957997
1.09903
1.21054
1.29538
1.35732
1.4002
1.42735
1.44131
1.44394
1.43658
1.42042
1.39676
1.36711
1.33321
1.29685
1.25967
1.22293
1.18741
1.15339
1.12081
1.08941
1.05891
1.02912
0.99996
0.971327
0.943019
0.914662
0.885742
0.855711
0.824117
0.790711
0.755494
0.718676
0.680567
0.641445
0.601431
0.560413
0.518044
0.473822
0.427196
0.377701
0.325065
0.269275
0.210617
0.149668
0.0873041
0.0247065
-0.0366188
-0.0948199
-0.147711
-0.192854
-0.227736
-0.250051
-0.258042
-0.250834
-0.228672
-0.192956
-0.146043
-0.090906
-0.0308395
0.143124
0.422336
0.681546
0.91082
1.10437
1.26066
1.38166
1.47162
1.53571
1.57893
1.60537
1.61791
1.61841
1.60808
1.58797
1.55937
1.524
1.48391
1.44135
1.39831
1.35635
1.31633
1.27844
1.24242
1.20781
1.17419
1.14132
1.10918
1.07775
1.04684
1.01601
0.984579
0.9518
0.917062
0.880048
0.8408
0.799663
0.757127
0.713634
0.669394
0.624284
0.57784
0.52937
0.478118
0.423433
0.364915
0.302497
0.236472
0.167472
0.0964618
0.024744
-0.0459982
-0.11365
-0.175642
-0.229017
-0.270635
-0.297532
-0.307378
-0.29895
-0.27248
-0.229725
-0.173666
-0.10798
-0.0366076
0.165596
0.487838
0.784767
1.04416
1.2594
1.42949
1.55786
1.65061
1.71472
1.75663
1.78122
1.79166
1.78963
1.77603
1.75163
1.71762
1.67592
1.62904
1.57971
1.53046
1.48315
1.43874
1.39726
1.35815
1.32064
1.28412
1.24833
1.21334
1.1793
1.1461
1.11318
1.07964
1.04448
1.00687
0.966385
0.923143
0.877679
0.830732
0.782971
0.734742
0.685906
0.635845
0.58362
0.528207
0.468721
0.404605
0.335731
0.262405
0.185318
0.105512
0.0243924
-0.0562101
-0.133938
-0.20583
-0.268347
-0.317606
-0.349826
-0.361942
-0.352253
-0.320954
-0.270263
-0.203972
-0.126629
-0.0428907
0.190395
0.559837
0.897353
1.188
1.42436
1.60637
1.73953
1.83236
1.89413
1.93295
1.95463
1.96242
1.95764
1.94063
1.91168
1.8718
1.82312
1.76871
1.71199
1.65611
1.60334
1.55472
1.51001
1.46822
1.42817
1.38898
1.35036
1.31259
1.27611
1.24091
1.20632
1.17115
1.13402
1.09381
1.04997
1.00271
0.952835
0.901422
0.849454
0.797462
0.745292
0.692118
0.636682
0.577617
0.513748
0.444326
0.369165
0.288603
0.203396
0.11466
0.0238724
-0.0670308
-0.155491
-0.238157
-0.310852
-0.368816
-0.407262
-0.422177
-0.411212
-0.374474
-0.314793
-0.237038
-0.146849
-0.0496781
0.217947
0.639485
1.02087
1.34392
1.60048
1.79204
1.92689
2.01667
2.07344
2.10736
2.12515
2.12997
2.12244
2.10207
2.06843
2.0222
1.96583
1.90307
1.8382
1.7752
1.71688
1.6643
1.61684
1.57289
1.53071
1.48906
1.44763
1.40707
1.36825
1.33137
1.2956
1.25932
1.22069
1.17818
1.13106
1.07969
1.02523
0.969214
0.913043
0.857504
0.802425
0.746701
0.688656
0.626498
0.558689
0.484257
0.40297
0.315232
0.221884
0.124108
0.0234217
-0.0781969
-0.178052
-0.272434
-0.356474
-0.42438
-0.470136
-0.488523
-0.476301
-0.433409
-0.363485
-0.27286
-0.168568
-0.0569325
0.248735
0.728068
1.15701
1.51357
1.789
1.98712
2.12
2.20313
2.25199
2.27913
2.29222
2.294
2.28401
2.26056
2.22221
2.16917
2.10427
2.0322
1.95832
1.88765
1.82368
1.76751
1.71791
1.67244
1.62861
1.5847
1.54039
1.49689
1.45576
1.41754
1.38113
1.34436
1.30477
1.26029
1.20993
1.15425
1.09494
1.03409
0.97366
0.914782
0.857265
0.799621
0.739634
0.674995
0.60372
0.524568
0.437298
0.342439
0.240941
0.13405
0.0232865
-0.0894122
-0.201312
-0.308402
-0.405081
-0.484357
-0.538717
-0.561428
-0.548024
-0.49812
-0.416445
-0.311338
-0.191634
-0.0645844
0.283305
0.827028
1.30768
1.69875
1.99114
2.19213
2.31873
2.39112
2.42886
2.44737
2.45519
2.45419
2.44231
2.41634
2.37342
2.31307
2.23867
2.1562
2.07229
1.99328
1.9236
1.86435
1.8134
1.76717
1.72225
1.67627
1.62887
1.5821
1.53863
1.49943
1.46302
1.42648
1.38657
1.34048
1.28686
1.22659
1.16204
1.09602
1.03119
0.969175
0.909747
0.850894
0.789704
0.723254
0.649015
0.565418
0.472279
0.37034
0.260696
0.14466
0.0237121
-0.100355
-0.224907
-0.345733
-0.456477
-0.548749
-0.613242
-0.64135
-0.626926
-0.56898
-0.473711
-0.352259
-0.215793
-0.0725271
0.322283
0.937971
1.47492
1.90135
2.20807
2.4074
2.5228
2.57985
2.60298
2.61102
2.6133
2.61019
2.59733
2.56969
2.52253
2.4543
2.3693
2.27515
2.18
2.09188
2.01647
1.9548
1.9035
1.85742
1.81207
1.76421
1.71331
1.66274
1.61678
1.57701
1.54138
1.50588
1.46638
1.41911
1.36214
1.29687
1.2266
1.15494
1.08548
1.02052
0.959789
0.900535
0.838951
0.771422
0.694755
0.606956
0.508012
0.399019
0.281248
0.156084
0.024933
-0.110687
-0.248427
-0.384031
-0.510393
-0.617501
-0.693909
-0.728769
-0.713625
-0.646389
-0.535238
-0.39527
-0.240679
-0.0806114
0.366385
1.06268
1.66099
2.1234
2.44091
2.6331
2.73173
2.76835
2.77305
2.76886
2.76579
2.76167
2.74908
2.72095
2.6701
2.59333
2.49637
2.38913
2.28134
2.18316
2.10202
2.03885
1.98842
1.94354
1.89857
1.84901
1.79399
1.73877
1.69005
1.65022
1.61628
1.58276
1.54455
1.49659
1.4361
1.36527
1.28866
1.21077
1.13634
1.06863
1.0073
0.948562
0.887455
0.81965
0.741132
0.64932
0.544564
0.428527
0.302656
0.168431
0.0271646
-0.120058
-0.271414
-0.422832
-0.566497
-0.690498
-0.780867
-0.824182
-0.808846
-0.730791
-0.600886
-0.439854
-0.265797
-0.0886419
0.416446
1.20313
1.8683
2.36707
2.69067
2.86917
2.94494
2.9555
2.9376
2.91957
2.91182
2.90836
2.89754
2.8705
2.81683
2.73065
2.62011
2.49824
2.37617
2.26676
2.17994
2.11646
2.06843
2.02593
1.98227
1.93129
1.87118
1.81007
1.75819
1.71896
1.68781
1.65729
1.62141
1.57341
1.50906
1.43193
1.34828
1.2634
1.18353
1.11327
1.05217
0.995005
0.935292
0.868092
0.788363
0.692636
0.581964
0.458878
0.324941
0.181767
0.0305937
-0.128117
-0.293376
-0.461605
-0.624391
-0.767567
-0.874188
-0.928098
-0.913458
-0.822709
-0.67039
-0.485303
-0.290512
-0.0963758
0.473455
1.36146
2.09945
2.63473
2.9582
3.11522
3.16173
3.1401
3.09499
3.06165
3.05063
3.05009
3.04273
3.01877
2.96357
2.86677
2.74068
2.60263
2.46435
2.34224
2.24985
2.18763
2.14385
2.10494
2.06376
2.01178
1.9452
1.87642
1.82085
1.78311
1.7561
1.72962
1.69731
1.65009
1.58136
1.49696
1.40555
1.31275
1.22675
1.15414
1.09431
1.03993
0.982522
0.916898
0.836697
0.73702
0.62019
0.490054
0.348084
0.196109
0.0353701
-0.134522
-0.313782
-0.49975
-0.683623
-0.848486
-0.973845
-1.04102
-1.02854
-0.922777
-0.743328
-0.530679
-0.314043
-0.103524
0.538623
1.54
2.35714
2.92898
3.24413
3.3705
3.38135
3.32086
3.24336
3.19349
3.18147
3.18685
3.18456
3.16622
3.11142
3.00224
2.85814
2.7025
2.54574
2.40906
2.31124
2.25236
2.21508
2.18092
2.14364
2.0914
2.01639
1.93749
1.87755
1.8425
1.8213
1.79985
1.77259
1.72732
1.65333
1.56042
1.46057
1.35872
1.26567
1.19092
1.13363
1.08343
1.02918
0.96621
0.886445
0.782569
0.659156
0.522012
0.372031
0.211415
0.0415995
-0.138945
-0.332076
-0.536599
-0.743694
-0.933002
-1.07966
-1.16339
-1.15545
-1.03179
-0.819077
-0.57479
-0.335463
-0.109759
0.613486
1.74119
2.64413
3.2528
3.54877
3.63372
3.60316
3.49654
3.38068
3.3133
3.30371
3.31889
3.32285
3.31324
3.26179
3.13756
2.97237
2.79818
2.62026
2.46652
2.36351
2.31068
2.28269
2.25408
2.22251
2.17129
2.0851
1.99275
1.92765
1.89701
1.8837
1.86798
1.84756
1.80592
1.72529
1.62226
1.51352
1.40122
1.29987
1.2232
1.17006
1.12571
1.07524
1.01615
0.938009
0.829364
0.698694
0.554701
0.396696
0.227579
0.0493369
-0.141087
-0.347679
-0.571403
-0.804072
-1.02087
-1.19124
-1.29557
-1.29593
-1.15075
-0.89673
-0.616148
-0.353719
-0.114724
0.700086
1.96757
2.96307
3.60974
3.872
3.90289
3.82678
3.66593
3.50466
3.41913
3.41686
3.44687
3.45714
3.46017
3.41659
3.27316
3.08296
2.89024
2.68787
2.5138
2.40591
2.3627
2.34744
2.32449
2.3009
2.25298
2.15174
2.04148
1.97035
1.94653
1.94374
1.93383
1.92247
1.88698
1.7975
1.68226
1.5647
1.44021
1.32884
1.25052
1.20356
1.16708
1.1206
1.06679
0.991936
0.877447
0.738523
0.588085
0.421967
0.244422
0.0585842
-0.140685
-0.360002
-0.603325
-0.864202
-1.1119
-1.30791
-1.43769
-1.45228
-1.28096
-0.974998
-0.652949
-0.367658
-0.118053
0.801245
2.22166
3.31628
4.00423
4.21308
4.17508
4.05233
3.82798
3.61274
3.50882
3.5206
3.57197
3.58657
3.60711
3.57842
3.40929
3.18908
2.97961
2.74861
2.54985
2.43752
2.40857
2.41042
2.39191
2.37923
2.33847
2.21672
2.08267
2.00465
1.99097
2.00213
1.99701
1.99744
1.97197
1.87011
1.73996
1.6146
1.47569
1.35198
1.27232
1.23416
1.20802
1.16499
1.11813
1.04899
0.926812
0.778208
0.622182
0.447719
0.261681
0.06929
-0.137521
-0.368459
-0.631417
-0.923517
-1.20609
-1.42864
-1.5895
-1.62748
-1.42409
-1.05206
-0.683056
-0.376078
-0.119396
0.921003
2.50583
3.70548
4.44204
4.57046
4.44608
4.28087
3.98178
3.70202
3.57996
3.6148
3.69625
3.70958
3.75385
3.75094
3.54593
3.28919
3.06779
2.80262
2.57341
2.4572
2.44855
2.47322
2.45565
2.45768
2.43047
2.28041
2.11498
2.02931
2.03032
2.06004
2.05672
2.0724
2.0629
1.94312
1.79453
1.66403
1.50769
1.36854
1.28791
1.26191
1.2493
1.20792
1.17005
1.11026
0.977364
0.817101
0.657125
0.473813
0.278993
0.0813565
-0.13144
-0.372492
-0.654589
-0.981434
-1.30375
-1.55188
-1.75021
-1.82554
-1.58228
-1.12537
-0.704001
-0.377792
-0.118443
1.06526
2.82211
4.13119
4.93102
4.94144
4.70996
4.51489
4.12662
3.76917
3.62984
3.69949
3.82297
3.82364
3.89963
3.93928
3.68257
3.38084
3.15718
2.85011
2.58287
2.46358
2.48293
2.53816
2.51434
2.53609
2.53264
2.34309
2.13665
2.04287
2.06464
2.11924
2.11162
2.147
2.16261
2.01627
1.84463
1.71429
1.53631
1.3776
1.29651
1.28689
1.29212
1.24858
1.22223
1.17731
1.02887
0.854265
0.693243
0.500102
0.295879
0.0946533
-0.122351
-0.371597
-0.671567
-1.03734
-1.4057
-1.67548
-1.9181
-2.05176
-1.75825
-1.19136
-0.713023
-0.371724
-0.114957
1.24272
3.1719
4.59213
5.48207
5.32177
4.95844
4.75911
4.26187
3.81031
3.65545
3.77479
3.95713
3.92474
4.04288
4.15072
3.818
3.46022
3.25148
2.89131
2.57628
2.45502
2.51201
2.60862
2.56564
2.61373
2.65003
2.40482
2.14546
2.04363
2.09399
2.18242
2.15958
2.22044
2.27508
2.0889
1.88818
1.76739
1.56165
1.37807
1.29718
1.30922
1.33822
1.28565
1.2741
1.25237
1.0809
0.888371
0.731182
0.526418
0.311715
0.109042
-0.110246
-0.365372
-0.680839
-1.09051
-1.51361
-1.79654
-2.09017
-2.31325
-1.95542
-1.2451
-0.70716
-0.357006
-0.108808
1.4662
3.55559
5.08419
6.11057
5.7051
5.1802
5.02145
4.38679
3.82097
3.65343
3.84071
4.10618
4.00687
4.18086
4.39551
3.94993
3.52173
3.35629
2.92635
2.55124
2.42961
2.53598
2.68949
2.60589
2.68912
2.7895
2.46522
2.13866
2.02964
2.11837
2.25361
2.19736
2.29126
2.40592
2.15976
1.9221
1.82638
1.58374
1.3686
1.28884
1.32893
1.39019
1.31713
1.32469
1.33864
1.1327
0.917574
0.772065
0.552548
0.325699
0.124412
-0.0952003
-0.353579
-0.680591
-1.14005
-1.63035
-1.91126
-2.26152
-2.61946
-2.17805
-1.27982
-0.683394
-0.333096
-0.0999923
1.75443
3.97209
5.59912
6.83818
6.08222
5.35989
5.31439
4.50016
3.79595
3.62012
3.89683
4.28097
4.06125
4.30921
4.68796
4.07456
3.55731
3.47991
2.95501
2.50488
2.38515
2.55474
2.7878
2.62964
2.75969
2.96043
2.52318
2.11292
1.99877
2.13758
2.33861
2.22021
2.35715
2.56294
2.22678
1.94198
1.89579
1.60243
1.34757
1.27028
1.34591
1.45177
1.34011
1.37251
1.44057
1.18305
0.939348
0.817709
0.578188
0.336815
0.140735
-0.0773803
-0.336229
-0.668637
-1.1847
-1.76049
-2.01482
-2.42469
-2.98295
-2.43132
-1.28634
-0.638905
-0.299891
-0.0886558
2.13446
4.41813
6.12291
7.69527
6.44013
5.47699
5.65668
4.59968
3.7293
3.55168
3.94181
4.49694
4.07543
4.42138
5.04784
4.18596
3.55577
3.63431
2.97637
2.43383
2.31925
2.56756
2.91343
2.62905
2.82146
3.17545
2.57642
2.06437
1.94881
2.15091
2.44572
2.22141
2.4146
2.75691
2.28671
1.94171
1.98214
1.6172
1.3131
1.24016
1.3597
1.52825
1.35044
1.41536
1.56438
1.23008
0.950306
0.87089
0.60286
0.343788
0.158128
-0.0570419
-0.313685
-0.642352
-1.22255
-1.91093
-2.10128
-2.56873
-3.42026
-2.72148
-1.25234
-0.571424
-0.257827
-0.0750929
2.64463
4.88746
6.63357
8.72391
6.7608
5.50449
6.07542
4.68105
3.61436
3.44427
3.97262
4.77567
4.03226
4.5079
5.50202
4.27536
3.50191
3.8364
2.98826
2.33426
2.2294
2.57259
3.08017
2.59323
2.86859
3.45154
2.6209
1.98863
1.87755
2.15681
2.58652
2.19171
2.45851
3.00248
2.33477
1.91295
2.09469
1.62682
1.26306
1.19713
1.36927
1.62699
1.34238
1.45012
1.71851
1.27103
0.945975
0.935695
0.625794
0.345031
0.176947
-0.0345227
-0.286798
-0.598615
-1.25075
-2.09159
-2.16346
-2.67806
-3.95307
-3.0559
-1.16155
-0.479736
-0.207947
-0.0597366
3.33846
5.36985
7.09864
9.98161
7.01967
5.40725
6.60872
4.7367
3.44382
3.29433
3.98352
5.14676
3.90855
4.55558
6.08648
4.33021
3.37549
4.1096
2.98651
2.20191
2.11318
2.5663
3.30685
2.50744
2.89286
3.81112
2.65003
1.88097
1.78302
2.15228
2.77692
2.11857
2.48177
3.31922
2.3641
1.84465
2.24624
1.62898
1.19506
1.13989
1.37264
1.75808
1.30815
1.4725
1.91429
1.30191
0.920557
1.01792
0.64576
0.338605
0.197879
-0.0102259
-0.257056
-0.533777
-1.26495
-2.31634
-2.19298
-2.7312
-4.60941
-3.44311
-0.992751
-0.364337
-0.151912
-0.0431279
4.28914
5.84985
7.472
11.5457
7.18377
5.14029
7.30871
4.75412
3.21005
3.09909
3.96463
5.65008
3.67371
4.54653
6.8486
4.33311
3.1502
4.48568
2.96392
2.03234
1.96855
2.54251
3.61882
2.35216
2.88314
4.28352
2.65365
1.73653
1.66374
2.13217
3.03831
1.98547
2.47469
3.73293
2.36522
1.7224
2.45416
1.61972
1.10663
1.06736
1.36643
1.93508
1.23745
1.47676
2.1667
1.31716
0.866658
1.12559
0.660836
0.322174
0.222064
0.0154061
-0.226763
-0.443675
-1.25873
-2.60388
-2.1803
-2.69916
-5.42527
-3.89277
-0.718694
-0.228267
-0.0919379
-0.0258708
5.59497
6.30538
7.69045
13.5182
7.20964
4.6469
8.2451
4.71365
2.90549
2.8572
3.90022
6.33841
3.28807
4.45708
7.84974
4.26055
2.79239
5.00683
2.90894
1.82112
1.7942
2.49136
4.0496
2.10204
2.82468
4.90658
2.61682
1.55068
1.51907
2.08819
3.39901
1.77102
2.42444
4.27701
2.32531
1.52778
2.74152
1.5927
0.995285
0.978872
1.34524
2.17594
1.11686
1.45535
2.49509
1.3092
0.775013
1.26946
0.668127
0.292977
0.251217
0.0419279
-0.199219
-0.323694
-1.2228
-2.97883
-2.11489
-2.54374
-6.4462
-4.41555
-0.304905
-0.0781286
-0.0306318
-0.00857559
)
;

boundaryField
{
    left
    {
        type            calculated;
        value           uniform 0;
    }
    right
    {
        type            calculated;
        value           uniform 0;
    }
    interface
    {
        type            calculated;
        value           nonuniform List<scalar> 
64
(
5.59497
6.30538
7.69045
13.5182
7.20964
4.6469
8.2451
4.71365
2.90549
2.8572
3.90022
6.33841
3.28807
4.45708
7.84974
4.26055
2.79239
5.00683
2.90894
1.82112
1.7942
2.49136
4.0496
2.10204
2.82468
4.90658
2.61682
1.55068
1.51907
2.08819
3.39901
1.77102
2.42444
4.27701
2.32531
1.52778
2.74152
1.5927
0.995285
0.978872
1.34524
2.17594
1.11686
1.45535
2.49509
1.3092
0.775013
1.26946
0.668127
0.292977
0.251217
0.0419279
-0.199219
-0.323694
-1.2228
-2.97883
-2.11489
-2.54374
-6.4462
-4.41555
-0.304905
-0.0781286
-0.0306318
-0.00857559
)
;
    }
    bottom
    {
        type            calculated;
        value           nonuniform List<scalar> 
64
(
0.00773294
0.0229626
0.0375059
0.0509761
0.0630799
0.0736316
0.0825517
0.0898524
0.0956146
0.0999634
0.103045
0.105011
0.106007
0.10617
0.105628
0.104502
0.102908
0.100955
0.0987439
0.0963647
0.0938922
0.091384
0.0888808
0.0864073
0.083975
0.0815864
0.0792366
0.0769161
0.0746114
0.0723053
0.0699784
0.0676097
0.0651794
0.0626702
0.0600695
0.0573698
0.0545673
0.051661
0.0486492
0.0455278
0.0422891
0.0389219
0.0354135
0.0317527
0.0279336
0.0239598
0.0198476
0.015629
0.0113532
0.00708771
0.00291785
-0.0010549
-0.00471618
-0.00794414
-0.010617
-0.0126228
-0.0138702
-0.0142991
-0.0138897
-0.0126683
-0.0107077
-0.00812398
-0.0050693
-0.00172261
)
;
    }
    defaultFaces
    {
        type            empty;
    }
}


// ************************************************************************* //
