/*--------------------------------*- C++ -*----------------------------------*\
| =========                 |                                                 |
| \\      /  F ield         | OpenFOAM: The Open Source CFD Toolbox           |
|  \\    /   O peration     | Version:  5.x                                   |
|   \\  /    A nd           | Web:      www.OpenFOAM.org                      |
|    \\/     M anipulation  |                                                 |
\*---------------------------------------------------------------------------*/
FoamFile
{
    version     2.0;
    format      ascii;
    class       volScalarField;
    location    "1.5";
    object      gradTx;
}
// * * * * * * * * * * * * * * * * * * * * * * * * * * * * * * * * * * * * * //

dimensions      [0 -1 0 1 0 0 0];

internalField   nonuniform List<scalar> 
2048
(
0.00769638
0.022852
0.0373212
0.0507177
0.0627476
0.073225
0.0820703
0.0892952
0.0949803
0.0992504
0.102252
0.104135
0.105045
0.10512
0.104487
0.103266
0.101573
0.0995161
0.0971957
0.0947011
0.0921068
0.0894702
0.0868318
0.0842163
0.0816357
0.0790925
0.0765826
0.0740971
0.0716231
0.0691446
0.0666432
0.0640989
0.0614929
0.0588088
0.0560345
0.0531626
0.0501899
0.0471153
0.0439378
0.0406544
0.0372591
0.0337428
0.0300954
0.0263085
0.0223792
0.0183136
0.0141306
0.0098649
0.00556851
0.00131241
-0.00281381
-0.00670346
-0.0102363
-0.0132841
-0.0157195
-0.0174256
-0.0183081
-0.0183066
-0.0174038
-0.0156307
-0.0130679
-0.00984115
-0.00611327
-0.0020732
0.0229479
0.0681245
0.111219
0.151066
0.186783
0.217823
0.243962
0.265254
0.281958
0.294461
0.303208
0.308654
0.311234
0.311349
0.309378
0.305675
0.300579
0.294415
0.287481
0.280045
0.272328
0.2645
0.25668
0.248938
0.241307
0.233792
0.22638
0.219043
0.211742
0.204431
0.197052
0.189547
0.181856
0.173931
0.165736
0.157249
0.148461
0.139373
0.129982
0.120281
0.110251
0.0998639
0.0890881
0.0778956
0.0662743
0.0542397
0.0418453
0.0291914
0.0164315
0.00377516
-0.00851135
-0.0201098
-0.0306597
-0.0397757
-0.0470719
-0.0521936
-0.0548528
-0.0548631
-0.0521684
-0.0468603
-0.0391804
-0.0295071
-0.0183314
-0.00621766
0.0380749
0.112992
0.184344
0.250148
0.308932
0.359805
0.402441
0.436989
0.463937
0.483975
0.497874
0.5064
0.510269
0.51014
0.50662
0.500286
0.491693
0.481374
0.469828
0.457499
0.444754
0.431874
0.419045
0.406376
0.393912
0.381653
0.369574
0.357626
0.345747
0.333856
0.321859
0.309654
0.297139
0.28423
0.270866
0.257016
0.242669
0.227831
0.212505
0.19668
0.180327
0.163395
0.145824
0.127559
0.10857
0.0888747
0.068552
0.0477609
0.0267488
0.0058582
-0.0144726
-0.0337154
-0.0512673
-0.0664782
-0.0786914
-0.0872978
-0.0917974
-0.0918618
-0.087385
-0.0785147
-0.0656559
-0.0494484
-0.0307238
-0.0104234
0.053391
0.158363
0.258108
0.349755
0.431211
0.501275
0.559585
0.606471
0.642739
0.66945
0.687746
0.69872
0.703369
0.702585
0.697186
0.687952
0.675645
0.661008
0.644745
0.627483
0.609739
0.591896
0.574203
0.556792
0.539706
0.52293
0.50642
0.490108
0.473906
0.457703
0.441361
0.42473
0.407661
0.390028
0.371746
0.352773
0.333108
0.312769
0.291774
0.270115
0.24775
0.224601
0.20057
0.175562
0.149517
0.12244
0.0944266
0.0656829
0.0365425
0.00747443
-0.0209144
-0.0478846
-0.0725824
-0.0940761
-0.111413
-0.123698
-0.130186
-0.130376
-0.124094
-0.111538
-0.0932869
-0.0702597
-0.0436565
-0.0148131
0.0691802
0.205055
0.333772
0.451451
0.555349
0.643993
0.717084
0.77526
0.819766
0.852139
0.873946
0.886633
0.891463
0.889535
0.881847
0.869359
0.85303
0.83382
0.81265
0.790344
0.767576
0.74483
0.722404
0.700431
0.678934
0.657869
0.637165
0.616736
0.596471
0.57623
0.555829
0.535061
0.513717
0.491622
0.468662
0.444792
0.420029
0.394421
0.368009
0.340799
0.312734
0.283703
0.253554
0.222136
0.189341
0.155146
0.119646
0.0830867
0.045877
0.00860492
-0.0279576
-0.0628574
-0.0949782
-0.123083
-0.145887
-0.162162
-0.170868
-0.17129
-0.163157
-0.146713
-0.122727
-0.0924296
-0.0574288
-0.019487
0.0857142
0.253846
0.412512
0.556671
0.682883
0.789465
0.876324
0.944575
0.996073
1.03295
1.05728
1.07088
1.07524
1.07164
1.06121
1.04506
1.02433
1.00021
0.973874
0.946356
0.918503
0.890899
0.863869
0.837522
0.811831
0.786706
0.762043
0.737739
0.713673
0.689676
0.665515
0.640912
0.615581
0.589286
0.561879
0.533318
0.503653
0.472981
0.441389
0.408901
0.375452
0.340882
0.304971
0.267487
0.228251
0.187192
0.144393
0.100123
0.0548565
0.00929252
-0.0356378
-0.0787664
-0.118702
-0.153872
-0.182615
-0.203308
-0.214549
-0.215351
-0.205308
-0.184705
-0.154525
-0.116363
-0.0722859
-0.0245268
0.103266
0.305511
0.495483
0.666782
0.815223
0.939009
1.03844
1.11535
1.1724
1.2125
1.23828
1.25195
1.2552
1.24941
1.23577
1.2155
1.18993
1.16051
1.12868
1.09573
1.06271
1.03028
0.998793
0.968279
0.938627
0.909674
0.88128
0.853336
0.825725
0.79826
0.770652
0.742532
0.713516
0.683283
0.651644
0.618571
0.584168
0.548609
0.512049
0.474552
0.436038
0.39629
0.354989
0.311799
0.266442
0.218777
0.168855
0.11696
0.0636197
0.00963368
-0.0439166
-0.0956505
-0.14389
-0.186698
-0.221978
-0.247638
-0.261829
-0.263209
-0.25119
-0.226091
-0.189151
-0.142394
-0.0884255
-0.0299973
0.122122
0.360851
0.583859
0.783134
0.953702
1.09379
1.20437
1.28826
1.34923
1.39111
1.41723
1.43014
1.43167
1.4232
1.40589
1.38105
1.35017
1.31498
1.27725
1.23861
1.20032
1.16313
1.12735
1.09291
1.05955
1.02701
0.995095
0.963729
0.932819
0.902177
0.871451
0.840156
0.80777
0.773863
0.738195
0.700757
0.661739
0.62143
0.580091
0.537841
0.494591
0.450043
0.403754
0.355242
0.3041
0.250091
0.193224
0.133779
0.0723326
0.00976931
-0.0526921
-0.113467
-0.170585
-0.221712
-0.264255
-0.295559
-0.313221
-0.315442
-0.301381
-0.271383
-0.227004
-0.170797
-0.106
-0.0359468
0.142589
0.420725
0.678869
0.907094
1.0996
1.25486
1.37484
1.46375
1.52676
1.56889
1.59419
1.60557
1.60486
1.5933
1.57193
1.54203
1.5053
1.46381
1.41974
1.37511
1.33143
1.28956
1.24971
1.21162
1.17483
1.13893
1.1037
1.0691
1.03512
1.0016
0.968109
0.934007
0.898591
0.861278
0.821759
0.780064
0.736507
0.691542
0.645579
0.598824
0.551178
0.502237
0.451391
0.39797
0.341399
0.281323
0.217687
0.150769
0.0811797
0.00987502
-0.061809
-0.132101
-0.198741
-0.258972
-0.309634
-0.347402
-0.369178
-0.372576
-0.356412
-0.321043
-0.268427
-0.201783
-0.125116
-0.0424062
0.165007
0.486067
0.781827
1.04008
1.25419
1.42316
1.55042
1.64203
1.70499
1.7457
1.76906
1.77821
1.77487
1.75992
1.73415
1.69874
1.65559
1.60718
1.55624
1.50525
1.45608
1.40965
1.36601
1.32462
1.28472
1.24571
1.20732
1.16963
1.13278
1.09668
1.0608
1.0243
0.986224
0.94578
0.902566
0.856673
0.808593
0.759009
0.708542
0.65752
0.605834
0.552939
0.498006
0.440125
0.378507
0.31265
0.24243
0.168119
0.0903556
0.0101512
-0.0710687
-0.151376
-0.228238
-0.298454
-0.358225
-0.403428
-0.430104
-0.43511
-0.416789
-0.375497
-0.313702
-0.235497
-0.145825
-0.0493858
0.189752
0.557908
0.894156
1.18357
1.41872
1.59954
1.7315
1.82313
1.88365
1.92119
1.94153
1.94794
1.94174
1.92328
1.89285
1.85147
1.80125
1.74523
1.68679
1.62905
1.57427
1.52346
1.47641
1.43214
1.38949
1.3476
1.30616
1.26546
1.22591
1.18753
1.14968
1.11124
1.07092
1.02763
0.980848
0.930758
0.878102
0.823872
0.768977
0.713916
0.658567
0.602199
0.543695
0.48184
0.415583
0.344243
0.267627
0.186009
0.100055
0.0108129
-0.0802392
-0.171062
-0.258881
-0.34005
-0.41006
-0.463837
-0.496362
-0.503519
-0.483009
-0.435139
-0.363058
-0.272011
-0.168118
-0.0568718
0.217252
0.637399
1.01741
1.33914
1.59442
1.78472
1.91831
2.00682
2.06228
2.09483
2.11118
2.11451
2.10546
2.08353
2.04832
2.00051
1.94251
1.87807
1.8114
1.74643
1.68596
1.63103
1.58104
1.53442
1.48944
1.44488
1.40044
1.35672
1.31458
1.27423
1.2349
1.19504
1.15292
1.10709
1.05684
1.00249
0.945121
0.886142
0.826845
0.767963
0.709358
0.650049
0.588541
0.523243
0.452778
0.376261
0.293437
0.204605
0.110465
0.0120799
-0.0890644
-0.19088
-0.290413
-0.383581
-0.465098
-0.528773
-0.568284
-0.578278
-0.555571
-0.500349
-0.41666
-0.311308
-0.191909
-0.0648217
0.247986
0.725824
1.15331
1.50846
1.78253
1.97933
2.1109
2.1927
2.24018
2.26588
2.27744
2.27763
2.266
2.2409
2.20089
2.14619
2.0796
2.00579
1.93003
1.8573
1.79105
1.73238
1.68007
1.63172
1.5849
1.53789
1.49038
1.44352
1.39884
1.35685
1.31656
1.27588
1.23251
1.18446
1.1308
1.07204
1.00973
0.945806
0.882074
0.81958
0.758167
0.696506
0.63262
0.564453
0.490241
0.408851
0.319999
0.224051
0.121755
0.0141667
-0.097274
-0.210517
-0.322513
-0.42879
-0.523227
-0.598322
-0.646171
-0.659865
-0.635002
-0.571498
-0.474606
-0.35327
-0.217027
-0.0731587
0.282502
0.824623
1.30372
1.69331
1.98427
2.18389
2.30914
2.38016
2.41647
2.43346
2.43966
2.43696
2.42334
2.39561
2.35094
2.28886
2.21274
2.12847
2.04264
1.96149
1.88942
1.8275
1.77365
1.72434
1.67624
1.62699
1.57622
1.52592
1.47866
1.43539
1.39477
1.35397
1.30995
1.26005
1.20299
1.13956
1.07198
1.00283
0.934555
0.868655
0.804932
0.741583
0.676002
0.605594
0.528118
0.44215
0.347427
0.244465
0.13407
0.0172733
-0.104593
-0.229627
-0.354805
-0.47535
-0.584265
-0.672516
-0.730293
-0.748771
-0.721872
-0.648965
-0.536917
-0.397654
-0.243194
-0.0817663
0.321423
0.935401
1.4707
1.89557
2.20081
2.39873
2.51275
2.56839
2.59005
2.5965
2.59708
2.59216
2.57744
2.54793
2.49894
2.42894
2.34217
2.24621
2.14911
2.05879
1.98088
1.91638
1.86198
1.81262
1.76389
1.71259
1.6582
1.60394
1.55396
1.50983
1.46961
1.42949
1.38554
1.33421
1.27367
1.20523
1.13193
1.05714
0.984147
0.915039
0.849575
0.785285
0.718757
0.646784
0.566555
0.476277
0.375809
0.265929
0.147524
0.0215765
-0.110753
-0.247842
-0.386863
-0.522861
-0.647956
-0.751326
-0.820881
-0.845508
-0.816827
-0.733155
-0.603528
-0.444069
-0.270011
-0.0904829
0.365466
1.05994
1.6565
2.11728
2.43327
2.62402
2.72125
2.75644
2.75963
2.7538
2.74892
2.74288
2.72831
2.6982
2.64544
2.56685
2.46812
2.35907
2.24932
2.14891
2.06516
1.99899
1.94526
1.89689
1.84833
1.79519
1.73657
1.67754
1.6246
1.5801
1.54118
1.50262
1.45959
1.40732
1.34316
1.26918
1.18963
1.10868
1.03067
0.958551
0.892007
0.827626
0.760949
0.688146
0.60571
0.511343
0.405197
0.288492
0.162194
0.0272215
-0.115497
-0.264783
-0.418213
-0.570853
-0.71398
-0.834669
-0.918113
-0.950605
-0.920619
-0.824517
-0.674265
-0.491951
-0.296943
-0.099098
0.415465
1.20021
1.86353
2.3606
2.68264
2.85968
2.93405
2.94318
2.92375
2.90401
2.89437
2.88887
2.87595
2.8468
2.79113
2.7031
2.5908
2.46715
2.34314
2.23149
2.14197
2.07531
2.02374
1.97752
1.93008
1.87537
1.81161
1.74662
1.69034
1.64611
1.60955
1.57354
1.53242
1.47981
1.41174
1.33156
1.24513
1.15735
1.0739
0.998973
0.932133
0.868631
0.802641
0.729802
0.645753
0.547444
0.435604
0.312164
0.178118
0.0343148
-0.118593
-0.280067
-0.448342
-0.618783
-0.78195
-0.922401
-1.02209
-1.0646
-1.03416
-0.923583
-0.748825
-0.540531
-0.323307
-0.107351
0.472409
1.35835
2.09438
2.62789
2.94978
3.10535
3.15045
3.1274
3.08076
3.04567
3.03265
3.02994
3.02034
2.99415
2.93685
2.83819
2.71036
2.57058
2.43042
2.30609
2.2109
2.14531
2.09775
2.05488
2.00969
1.95385
1.88361
1.81097
1.75084
1.70772
1.67483
1.64238
1.60434
1.5522
1.47974
1.39246
1.29849
1.20304
1.11357
1.03605
0.969863
0.908353
0.843884
0.771874
0.686884
0.584662
0.466994
0.336918
0.195294
0.0429178
-0.119841
-0.29332
-0.476707
-0.666036
-0.85142
-1.01434
-1.13282
-1.18802
-1.15856
-1.031
-0.826739
-0.588799
-0.348264
-0.114933
0.537506
1.53669
2.35177
2.92176
3.23531
3.36024
3.36971
3.30784
3.22881
3.17714
3.16302
3.16609
3.16142
3.14069
3.08368
2.97264
2.82687
2.66956
2.51103
2.37216
2.27147
2.209
2.16768
2.12929
2.08776
2.03151
1.95292
1.87025
1.80562
1.76481
1.73719
1.70923
1.67569
1.62512
1.54746
1.45192
1.3498
1.24567
1.14936
1.06946
1.00512
0.94689
0.884705
0.814472
0.729353
0.623066
0.499276
0.362696
0.213683
0.0530407
-0.119077
-0.304182
-0.502738
-0.711917
-0.921896
-1.11027
-1.25013
-1.32133
-1.29524
-1.14757
-0.907319
-0.635472
-0.370827
-0.121494
0.612294
1.73766
2.63843
3.24518
3.53955
3.62308
3.59117
3.48322
3.36587
3.29665
3.28484
3.29757
3.29899
3.28682
3.23303
3.10697
2.94019
2.76441
2.58486
2.42903
2.32308
2.26641
2.23406
2.20097
2.16485
2.10947
2.01988
1.92396
1.85408
1.81723
1.79689
1.77409
1.74674
1.69934
1.61519
1.50989
1.39921
1.28515
1.18089
1.09886
1.03783
0.984414
0.92509
0.857688
0.773483
0.662702
0.53228
0.389422
0.233209
0.0646362
-0.116182
-0.312326
-0.525857
-0.755641
-0.992844
-1.21001
-1.37364
-1.46489
-1.44604
-1.27435
-0.989579
-0.678963
-0.389871
-0.126654
0.698812
1.96382
2.95701
3.60169
3.86237
3.89188
3.81446
3.65236
3.48965
3.40226
3.39764
3.42501
3.43261
3.43285
3.38678
3.24158
3.04992
2.8557
2.65189
2.47588
2.36499
2.31764
2.29767
2.26998
2.24149
2.18921
2.08487
1.97139
1.89544
1.86486
1.85436
1.83682
1.81773
1.77589
1.68317
1.56614
1.44699
1.32144
1.2077
1.12381
1.06798
1.02121
0.964947
0.901572
0.81972
0.703594
0.565739
0.417016
0.253767
0.0775934
-0.111079
-0.317469
-0.545489
-0.796314
-1.0637
-1.31348
-1.50267
-1.6188
-1.61334
-1.41268
-1.07213
-0.717347
-0.404173
-0.130027
0.799882
2.21766
3.30984
3.99571
4.20303
4.16371
4.03968
3.81419
3.59761
3.4918
3.50108
3.54962
3.5614
3.57891
3.54751
3.37674
3.15521
2.94432
2.71214
2.51168
2.39628
2.36285
2.35957
2.33609
2.31807
2.27267
2.14829
2.01157
1.92872
1.90765
1.9103
1.89703
1.88877
1.85614
1.75154
1.62025
1.49358
1.35452
1.22922
1.14381
1.09557
1.05772
1.00406
0.94611
0.868692
0.74572
0.599255
0.445428
0.27523
0.0917282
-0.103733
-0.31938
-0.561093
-0.832901
-1.13388
-1.42077
-1.63616
-1.78277
-1.8003
-1.56428
-1.15302
-0.748347
-0.412456
-0.131239
0.91954
2.50157
3.69862
4.43301
4.55998
4.43436
4.26789
3.96781
3.68685
3.56288
3.59503
3.67343
3.68384
3.72476
3.71885
3.5124
3.25455
3.03176
2.76576
2.53516
2.41585
2.40227
2.42132
2.39862
2.39478
2.36247
2.21051
2.0432
1.95275
1.94558
1.96582
1.95398
1.9598
1.94199
1.82032
1.67141
1.5397
1.38444
1.24476
1.15824
1.12066
1.09464
1.04202
0.991178
0.921298
0.78899
0.632254
0.474684
0.297451
0.106773
-0.0941419
-0.317897
-0.572192
-0.864185
-1.20275
-1.5324
-1.77248
-1.95589
-2.01113
-1.73141
-1.22951
-0.769345
-0.413469
-0.129965
1.06368
2.81758
4.1239
4.92142
4.93052
4.6979
4.50157
4.11251
3.75403
3.6128
3.67953
3.79968
3.79739
3.86965
3.90587
3.64808
3.3455
3.12037
2.81294
2.54474
2.42235
2.4362
2.4852
2.45625
2.47143
2.46218
2.27179
2.06455
1.9661
1.97868
2.02263
2.00641
2.03046
2.03611
1.88925
1.71836
1.58655
1.41125
1.2535
1.1664
1.14332
1.13305
1.07813
1.03649
0.978839
0.833209
0.663922
0.50495
0.320268
0.122357
-0.0823153
-0.312933
-0.578433
-0.888701
-1.26962
-1.64948
-1.90938
-2.13623
-2.25146
-1.91692
-1.29781
-0.777415
-0.406076
-0.125957
1.24101
3.1671
4.58437
5.47183
5.31041
4.94608
4.74541
4.24764
3.7953
3.63856
3.75468
3.93336
3.8981
4.01202
4.11581
3.78257
3.42429
3.21381
2.85391
2.5385
2.41415
2.46494
2.55453
2.50669
2.54732
2.5767
2.33217
2.07349
1.96713
2.00704
2.08333
2.0523
2.09999
2.14225
1.95771
1.75914
1.63596
1.43504
1.25439
1.16744
1.16366
1.1745
1.11127
1.08154
1.04318
0.87801
0.69313
0.536626
0.3435
0.137989
-0.0682501
-0.304484
-0.579652
-0.904661
-1.33366
-1.77412
-2.04377
-2.32048
-2.52881
-2.12439
-1.35266
-0.769419
-0.389369
-0.119081
1.46433
3.55052
5.07594
6.09957
5.69332
5.16759
5.00731
4.37248
3.80619
3.63681
3.8205
4.08189
3.97999
4.14915
4.35883
3.9136
3.48534
3.31762
2.8888
2.51406
2.38939
2.48868
2.63413
2.54638
2.62098
2.71269
2.39129
2.0673
1.95399
2.03064
2.15175
2.08859
2.16701
2.26569
2.02454
1.79086
1.69073
1.45584
1.24619
1.16041
1.18169
1.22132
1.13974
1.12546
1.11699
0.92277
0.718332
0.570471
0.366924
0.153021
-0.0518881
-0.292628
-0.575985
-0.909855
-1.39378
-1.9098
-2.17159
-2.50326
-2.85327
-2.3583
-1.38687
-0.742172
-0.36279
-0.109337
1.75236
3.96676
5.59037
6.82628
6.07004
5.34709
5.29972
4.4858
3.78152
3.60391
3.87658
4.25604
4.03433
4.2767
4.64912
4.03739
3.5207
3.43998
2.91737
2.46859
2.34591
2.5073
2.73086
2.56999
2.68991
2.87927
2.44805
2.04277
1.92463
2.04928
2.23349
2.11077
2.22932
2.41379
2.08781
1.80939
1.75504
1.47351
1.22741
1.14423
1.19733
1.27682
1.16102
1.16695
1.204
0.966489
0.737443
0.607773
0.39025
0.166612
-0.0330631
-0.277512
-0.568
-0.901544
-1.44842
-2.06201
-2.28763
-2.67642
-3.23822
-2.6241
-1.39068
-0.692704
-0.326248
-0.0968863
2.13212
4.41256
6.11366
7.68228
6.42759
5.46413
5.64131
4.58529
3.71534
3.53606
3.92157
4.47118
4.04877
4.38816
5.00629
4.1481
3.51926
3.59272
2.93873
2.39874
2.28137
2.52008
2.85445
2.56986
2.75022
3.08875
2.50024
1.99611
1.87694
2.0623
2.33647
2.11249
2.28359
2.59669
2.14446
1.80901
1.83491
1.48754
1.19628
1.11775
1.21016
1.3457
1.17154
1.20414
1.30942
1.00762
0.747697
0.650561
0.413059
0.177681
-0.011432
-0.259324
-0.556869
-0.87634
-1.49526
-2.23891
-2.38539
-2.82801
-3.70141
-2.92834
-1.351
-0.618638
-0.28023
-0.0820453
2.64194
4.88169
6.62385
8.70958
6.74798
5.49172
6.05914
4.66668
3.601
3.42941
3.95246
4.74878
4.00626
4.47414
5.45699
4.237
3.46596
3.79256
2.95073
2.30071
2.19333
2.52523
3.0184
2.53537
2.7962
3.3576
2.54391
1.92303
1.80881
2.06818
2.47179
2.08492
2.32499
2.82818
2.19001
1.78194
1.93889
1.49683
1.1508
1.0798
1.21925
1.43446
1.16632
1.23433
1.44035
1.04387
0.745477
0.701866
0.43472
0.184855
0.013607
-0.238253
-0.544593
-0.830091
-1.53082
-2.45221
-2.45697
-2.94111
-4.26605
-3.27874
-1.25058
-0.518725
-0.225863
-0.0652774
3.33526
5.36395
7.0885
9.96557
7.00667
5.39481
6.59119
4.72242
3.43121
3.28047
3.96353
5.11827
3.88378
4.52155
6.0369
4.29167
3.34079
4.06265
2.94924
2.17028
2.07944
2.51925
3.24118
2.45209
2.81986
3.70767
2.57264
1.81889
1.71842
2.06406
2.65464
2.01618
2.3468
3.12672
2.21802
1.71785
2.07883
1.49921
1.08872
1.02928
1.22282
1.55204
1.1386
1.25388
1.60629
1.0719
0.726136
0.766053
0.454269
0.186407
0.0430073
-0.214414
-0.534252
-0.757787
-1.5499
-2.71815
-2.493
-2.99242
-4.9623
-3.68418
-1.06689
-0.393539
-0.164933
-0.047158
4.28522
5.84392
7.46158
11.5274
7.17076
5.12853
7.28948
4.74002
3.19833
3.0865
3.94495
5.61931
3.65091
4.51263
6.79304
4.29484
3.11768
4.4344
2.92714
2.00301
1.93773
2.4961
3.54764
2.30094
2.81033
4.1675
2.57654
1.67892
1.6044
2.04499
2.90547
1.89053
2.33989
3.5166
2.21955
1.60334
2.27081
1.49104
1.00766
0.96533
1.21786
1.71039
1.07942
1.25792
1.81981
1.08705
0.683801
0.849184
0.47025
0.1802
0.0781751
-0.187754
-0.530308
-0.653493
-1.54489
-3.05858
-2.48266
-2.95057
-5.82889
-4.15469
-0.771045
-0.246364
-0.0998099
-0.0283247
5.59004
6.29956
7.67994
13.4971
7.19684
4.63627
8.22352
4.69987
2.89481
2.84615
3.88106
6.30438
3.26823
4.4239
7.78626
4.22318
2.76334
4.94954
2.87304
1.7945
1.76695
2.44608
3.97063
2.05712
2.75329
4.77388
2.54108
1.49854
1.46624
2.003
3.25137
1.68759
2.29215
4.02929
2.18251
1.42126
2.53621
1.46646
0.905204
0.887512
1.19954
1.92534
0.977052
1.24011
2.09719
1.0829
0.611167
0.959458
0.480505
0.163635
0.121072
-0.157928
-0.538933
-0.510334
-1.50491
-3.50226
-2.41377
-2.77428
-6.91495
-4.70126
-0.326509
-0.0842756
-0.033269
-0.00941505
)
;

boundaryField
{
    left
    {
        type            calculated;
        value           uniform 0;
    }
    right
    {
        type            calculated;
        value           uniform 0;
    }
    interface
    {
        type            calculated;
        value           nonuniform List<scalar> 
64
(
5.59004
6.29956
7.67994
13.4971
7.19684
4.63627
8.22352
4.69987
2.89481
2.84615
3.88106
6.30438
3.26823
4.4239
7.78626
4.22318
2.76334
4.94954
2.87304
1.7945
1.76695
2.44608
3.97063
2.05712
2.75329
4.77388
2.54108
1.49854
1.46624
2.003
3.25137
1.68759
2.29215
4.02929
2.18251
1.42126
2.53621
1.46646
0.905204
0.887512
1.19954
1.92534
0.977052
1.24011
2.09719
1.0829
0.611167
0.959458
0.480505
0.163635
0.121072
-0.157928
-0.538933
-0.510334
-1.50491
-3.50226
-2.41377
-2.77428
-6.91495
-4.70126
-0.326509
-0.0842756
-0.033269
-0.00941505
)
;
    }
    bottom
    {
        type            calculated;
        value           nonuniform List<scalar> 
64
(
0.00769638
0.022852
0.0373212
0.0507177
0.0627476
0.073225
0.0820703
0.0892952
0.0949803
0.0992504
0.102252
0.104135
0.105045
0.10512
0.104487
0.103266
0.101573
0.0995161
0.0971957
0.0947011
0.0921068
0.0894702
0.0868318
0.0842163
0.0816357
0.0790925
0.0765826
0.0740971
0.0716231
0.0691446
0.0666432
0.0640989
0.0614929
0.0588088
0.0560345
0.0531626
0.0501899
0.0471153
0.0439378
0.0406544
0.0372591
0.0337428
0.0300954
0.0263085
0.0223792
0.0183136
0.0141306
0.0098649
0.00556851
0.00131241
-0.00281381
-0.00670346
-0.0102363
-0.0132841
-0.0157195
-0.0174256
-0.0183081
-0.0183066
-0.0174038
-0.0156307
-0.0130679
-0.00984115
-0.00611327
-0.0020732
)
;
    }
    defaultFaces
    {
        type            empty;
    }
}


// ************************************************************************* //
