/*--------------------------------*- C++ -*----------------------------------*\
| =========                 |                                                 |
| \\      /  F ield         | OpenFOAM: The Open Source CFD Toolbox           |
|  \\    /   O peration     | Version:  5.x                                   |
|   \\  /    A nd           | Web:      www.OpenFOAM.org                      |
|    \\/     M anipulation  |                                                 |
\*---------------------------------------------------------------------------*/
FoamFile
{
    version     2.0;
    format      ascii;
    class       volScalarField;
    location    "1.5";
    object      gradTy;
}
// * * * * * * * * * * * * * * * * * * * * * * * * * * * * * * * * * * * * * //

dimensions      [0 -1 0 1 0 0 0];

internalField   nonuniform List<scalar> 
2048
(
-27.5236
-27.4899
-27.4236
-27.3266
-27.2017
-27.0522
-26.8817
-26.6937
-26.4919
-26.2793
-26.059
-25.8335
-25.6051
-25.3758
-25.1472
-24.9208
-24.6976
-24.4786
-24.2645
-24.0557
-23.8524
-23.655
-23.4633
-23.2773
-23.097
-22.9222
-22.753
-22.5891
-22.4307
-22.2776
-22.1299
-21.9877
-21.851
-21.7201
-21.5951
-21.4763
-21.3638
-21.2579
-21.1587
-21.0666
-20.9818
-20.9045
-20.8349
-20.7734
-20.7203
-20.6759
-20.6406
-20.6144
-20.5976
-20.5902
-20.592
-20.6027
-20.6215
-20.6476
-20.6799
-20.7167
-20.7564
-20.7971
-20.8369
-20.8736
-20.9056
-20.9311
-20.9488
-20.958
-27.5508
-27.5163
-27.4483
-27.3491
-27.2216
-27.0692
-26.8958
-26.705
-26.5005
-26.2855
-26.0631
-25.8358
-25.6059
-25.3752
-25.1455
-24.9181
-24.6942
-24.4746
-24.2601
-24.0511
-23.8478
-23.6503
-23.4586
-23.2727
-23.0924
-22.9177
-22.7485
-22.5847
-22.4263
-22.2732
-22.1254
-21.9831
-21.8463
-21.7152
-21.5901
-21.471
-21.3584
-21.2523
-21.153
-21.0607
-20.9756
-20.898
-20.8282
-20.7665
-20.7131
-20.6685
-20.6329
-20.6067
-20.5899
-20.5826
-20.5847
-20.5959
-20.6154
-20.6425
-20.6759
-20.7141
-20.7554
-20.7977
-20.839
-20.8773
-20.9106
-20.9371
-20.9556
-20.9651
-27.603
-27.5668
-27.4957
-27.3921
-27.2594
-27.1014
-26.9223
-26.7261
-26.5166
-26.2972
-26.0708
-25.84
-25.6071
-25.3739
-25.142
-24.9129
-24.6876
-24.467
-24.2518
-24.0424
-23.8389
-23.6413
-23.4497
-23.2639
-23.0838
-22.9093
-22.7402
-22.5764
-22.418
-22.2648
-22.1169
-21.9744
-21.8374
-21.706
-21.5805
-21.4612
-21.3481
-21.2417
-21.142
-21.0494
-20.9639
-20.8859
-20.8156
-20.7534
-20.6995
-20.6544
-20.6185
-20.5919
-20.5751
-20.568
-20.5707
-20.5828
-20.6037
-20.6327
-20.6683
-20.7092
-20.7534
-20.7988
-20.8432
-20.8844
-20.9202
-20.9488
-20.9687
-20.9789
-27.6779
-27.6393
-27.5634
-27.4534
-27.313
-27.1469
-26.9596
-26.7556
-26.5389
-26.3131
-26.0812
-25.8456
-25.6085
-25.3717
-25.1368
-24.9052
-24.678
-24.456
-24.2399
-24.0299
-23.8262
-23.6287
-23.4372
-23.2516
-23.0717
-22.8973
-22.7284
-22.5647
-22.4063
-22.2531
-22.1051
-21.9623
-21.8249
-21.6931
-21.5671
-21.4472
-21.3337
-21.2268
-21.1266
-21.0335
-20.9475
-20.8689
-20.7979
-20.7349
-20.6803
-20.6345
-20.598
-20.571
-20.554
-20.5472
-20.5506
-20.564
-20.5869
-20.6184
-20.6573
-20.702
-20.7505
-20.8004
-20.8493
-20.8947
-20.9342
-20.9657
-20.9877
-20.999
-27.774
-27.732
-27.6498
-27.5311
-27.3806
-27.2037
-27.0058
-26.7918
-26.5661
-26.3323
-26.0934
-25.8518
-25.6095
-25.3683
-25.1297
-24.8951
-24.6655
-24.4418
-24.2246
-24.014
-23.8101
-23.6127
-23.4215
-23.2362
-23.0566
-22.8825
-22.7137
-22.5502
-22.3919
-22.2386
-22.0903
-21.9472
-21.8093
-21.6769
-21.5503
-21.4298
-21.3156
-21.2081
-21.1074
-21.0136
-20.927
-20.8476
-20.7758
-20.7119
-20.6563
-20.6095
-20.5721
-20.5446
-20.5273
-20.5208
-20.525
-20.5399
-20.5652
-20.5999
-20.643
-20.6926
-20.7466
-20.8024
-20.8572
-20.9081
-20.9524
-20.9878
-21.0124
-21.0251
-27.8902
-27.8438
-27.7535
-27.6238
-27.4606
-27.2703
-27.0592
-26.8331
-26.5967
-26.3536
-26.1067
-25.8582
-25.61
-25.3636
-25.1207
-24.8825
-24.6501
-24.4245
-24.2061
-23.9949
-23.791
-23.5938
-23.403
-23.2181
-23.0389
-22.8651
-22.6966
-22.5333
-22.3751
-22.2217
-22.0733
-21.9297
-21.7912
-21.6581
-21.5307
-21.4094
-21.2945
-21.1863
-21.0849
-20.9905
-20.9031
-20.8228
-20.75
-20.6849
-20.6281
-20.5801
-20.5416
-20.5132
-20.4955
-20.4891
-20.4941
-20.5108
-20.5388
-20.5774
-20.6253
-20.6809
-20.7417
-20.8047
-20.8668
-20.9246
-20.9749
-21.015
-21.0429
-21.0572
-28.0258
-27.974
-27.8735
-27.7302
-27.5513
-27.3448
-27.1183
-26.8782
-26.6295
-26.376
-26.1202
-25.8641
-25.6094
-25.3574
-25.1096
-24.8673
-24.6319
-24.4041
-24.1844
-23.9729
-23.769
-23.5723
-23.3821
-23.1978
-23.0191
-22.8457
-22.6775
-22.5145
-22.3563
-22.203
-22.0543
-21.9102
-21.771
-21.637
-21.5087
-21.3864
-21.2706
-21.1617
-21.0596
-20.9645
-20.8763
-20.7951
-20.7211
-20.6547
-20.5964
-20.5469
-20.5069
-20.4774
-20.4591
-20.4526
-20.4584
-20.4768
-20.5078
-20.5507
-20.6043
-20.6669
-20.7356
-20.8073
-20.8781
-20.9441
-21.0015
-21.0472
-21.079
-21.0952
-28.1805
-28.122
-28.009
-27.849
-27.6514
-27.4259
-27.1815
-26.9255
-26.6633
-26.3984
-26.1333
-25.8692
-25.6075
-25.3493
-25.0962
-24.8495
-24.6107
-24.3807
-24.1599
-23.948
-23.7446
-23.5486
-23.3592
-23.1757
-22.9975
-22.8246
-22.6568
-22.494
-22.3361
-22.1827
-22.0338
-21.8892
-21.7492
-21.6141
-21.4846
-21.3612
-21.2445
-21.1348
-21.032
-20.9363
-20.8473
-20.7651
-20.6898
-20.6218
-20.5617
-20.5103
-20.4687
-20.4377
-20.4184
-20.4116
-20.418
-20.4382
-20.4722
-20.5198
-20.5798
-20.6503
-20.7283
-20.8101
-20.8911
-20.9667
-21.0325
-21.0847
-21.1209
-21.1393
-28.3543
-28.2875
-28.1594
-27.9794
-27.7595
-27.5118
-27.247
-26.9734
-26.6967
-26.4201
-26.1453
-25.873
-25.6041
-25.3394
-25.0805
-24.829
-24.5866
-24.3542
-24.1323
-23.9206
-23.7179
-23.523
-23.3348
-23.1521
-22.9746
-22.8021
-22.6347
-22.4722
-22.3146
-22.1614
-22.0123
-21.8671
-21.726
-21.5897
-21.4588
-21.3341
-21.2164
-21.1058
-21.0025
-20.9062
-20.8165
-20.7332
-20.6565
-20.5867
-20.5245
-20.471
-20.4272
-20.3945
-20.3738
-20.3664
-20.3732
-20.395
-20.4322
-20.4847
-20.5516
-20.631
-20.7195
-20.8129
-20.9058
-20.9926
-21.0679
-21.1275
-21.1686
-21.1895
-28.5474
-28.4706
-28.324
-28.1201
-27.874
-27.6008
-27.3132
-27.0206
-26.7286
-26.4401
-26.1557
-25.8753
-25.599
-25.3276
-25.0625
-24.8058
-24.5594
-24.3247
-24.1019
-23.8906
-23.6892
-23.4959
-23.309
-23.1274
-22.9506
-22.7785
-22.6114
-22.4494
-22.2923
-22.1393
-21.9901
-21.8442
-21.7019
-21.564
-21.4315
-21.3054
-21.1865
-21.0752
-20.9714
-20.8746
-20.7843
-20.7001
-20.6218
-20.55
-20.4854
-20.4293
-20.3831
-20.3481
-20.3258
-20.3174
-20.3242
-20.3474
-20.3876
-20.4452
-20.5195
-20.6086
-20.709
-20.8157
-20.9222
-21.0218
-21.108
-21.1758
-21.2223
-21.2458
-28.7604
-28.6714
-28.5027
-28.2703
-27.9936
-27.6913
-27.3784
-27.0654
-26.7579
-26.4578
-26.1643
-25.876
-25.5924
-25.3139
-25.0422
-24.7798
-24.5291
-24.292
-24.0687
-23.8583
-23.6587
-23.4676
-23.2825
-23.1021
-22.9259
-22.7541
-22.5873
-22.4259
-22.2693
-22.1168
-21.9675
-21.8209
-21.6773
-21.5375
-21.403
-21.2752
-21.1551
-21.0431
-20.939
-20.842
-20.7513
-20.666
-20.5862
-20.5121
-20.4448
-20.3858
-20.3366
-20.299
-20.2746
-20.2648
-20.2713
-20.2954
-20.3384
-20.4012
-20.4833
-20.583
-20.6966
-20.8183
-20.9404
-21.0545
-21.1529
-21.2298
-21.2819
-21.3082
-28.994
-28.8903
-28.6951
-28.429
-28.1167
-27.7814
-27.4409
-27.1065
-26.7835
-26.4724
-26.1706
-25.8752
-25.5844
-25.2986
-25.0196
-24.7509
-24.4956
-24.256
-24.0325
-23.8237
-23.6268
-23.4384
-23.2555
-23.0764
-22.9007
-22.7291
-22.5625
-22.4016
-22.246
-22.0942
-21.945
-21.7976
-21.6523
-21.5103
-21.3735
-21.2437
-21.1223
-21.0097
-20.9056
-20.8087
-20.7177
-20.6316
-20.5501
-20.4735
-20.4032
-20.3407
-20.2882
-20.2476
-20.2205
-20.2089
-20.2145
-20.2392
-20.2847
-20.3524
-20.4426
-20.5538
-20.6819
-20.8204
-20.9603
-21.091
-21.203
-21.2896
-21.3476
-21.3766
-29.2495
-29.128
-28.9009
-28.5949
-28.2415
-27.8693
-27.4988
-27.1422
-26.8044
-26.4836
-26.1747
-25.8728
-25.5752
-25.2818
-24.9949
-24.7191
-24.4588
-24.2167
-23.9933
-23.7869
-23.5936
-23.4087
-23.2284
-23.0507
-22.8754
-22.7035
-22.5369
-22.3768
-22.2224
-22.0718
-21.9229
-21.7746
-21.6274
-21.4827
-21.343
-21.211
-21.0882
-20.9751
-20.8713
-20.7749
-20.6841
-20.5973
-20.5139
-20.4346
-20.3608
-20.2945
-20.2382
-20.1941
-20.164
-20.1501
-20.1543
-20.179
-20.2264
-20.2987
-20.3971
-20.5205
-20.6646
-20.822
-20.982
-21.1316
-21.2587
-21.3555
-21.4194
-21.4509
-29.528
-29.385
-29.1199
-28.767
-28.3663
-27.9529
-27.5502
-27.1711
-26.8195
-26.4908
-26.1767
-25.8694
-25.5652
-25.2638
-24.9682
-24.6842
-24.4184
-24.1737
-23.951
-23.748
-23.5594
-23.3791
-23.2018
-23.0255
-22.8502
-22.6776
-22.5106
-22.3514
-22.1988
-22.0499
-21.9015
-21.7523
-21.6028
-21.4548
-21.3117
-21.177
-21.0527
-20.9394
-20.8363
-20.741
-20.6508
-20.5633
-20.4782
-20.3959
-20.318
-20.2474
-20.1869
-20.1388
-20.1054
-20.0887
-20.0909
-20.1148
-20.1635
-20.24
-20.3465
-20.4827
-20.6442
-20.8227
-21.0056
-21.1767
-21.3203
-21.4276
-21.497
-21.5307
-29.8313
-29.6623
-29.3521
-28.944
-28.4889
-28.0301
-27.5933
-27.1917
-26.828
-26.494
-26.1768
-25.8653
-25.5548
-25.2452
-24.9395
-24.6463
-24.3742
-24.1271
-23.9055
-23.707
-23.5246
-23.3499
-23.1761
-23.0011
-22.8254
-22.6513
-22.4835
-22.3253
-22.1753
-22.0287
-21.8812
-21.7311
-21.5789
-21.4268
-21.2795
-21.1418
-21.016
-20.9026
-20.8008
-20.7073
-20.6181
-20.5303
-20.4432
-20.3575
-20.2753
-20.1997
-20.1345
-20.0822
-20.0449
-20.0249
-20.0246
-20.047
-20.0961
-20.176
-20.2903
-20.4399
-20.6203
-20.8222
-21.0312
-21.2268
-21.3885
-21.5063
-21.5804
-21.6156
-30.1611
-29.9608
-29.5972
-29.1243
-28.6071
-28.0988
-27.6263
-27.2026
-26.8292
-26.4931
-26.1755
-25.8611
-25.5447
-25.2264
-24.9092
-24.605
-24.3262
-24.0764
-23.8565
-23.664
-23.4896
-23.3218
-23.1518
-22.9779
-22.8013
-22.6246
-22.4552
-22.2985
-22.152
-22.0087
-21.8623
-21.7112
-21.5561
-21.3989
-21.2464
-21.1053
-20.9778
-20.8647
-20.7648
-20.6739
-20.5865
-20.4985
-20.4093
-20.3201
-20.2327
-20.1516
-20.0813
-20.0244
-19.9829
-19.9592
-19.9558
-19.9758
-20.0242
-20.1065
-20.2282
-20.3916
-20.5923
-20.8199
-21.0587
-21.2825
-21.464
-21.5917
-21.6692
-21.7051
-30.5197
-30.2815
-29.8551
-29.3064
-28.7183
-28.1568
-27.6473
-27.202
-26.8224
-26.4882
-26.1737
-25.8575
-25.5355
-25.2082
-24.8773
-24.5601
-24.2739
-24.0215
-23.8037
-23.619
-23.4546
-23.2953
-23.1294
-22.9563
-22.7782
-22.5976
-22.4254
-22.2707
-22.1289
-21.9902
-21.8453
-21.6931
-21.5346
-21.3712
-21.2123
-21.0674
-20.9382
-20.8254
-20.7285
-20.6412
-20.5563
-20.4682
-20.3768
-20.2838
-20.1906
-20.1032
-20.0275
-19.9657
-19.9197
-19.892
-19.8847
-19.9016
-19.9481
-20.0316
-20.1598
-20.3373
-20.5596
-20.8152
-21.0881
-21.3449
-21.5477
-21.6842
-21.7631
-21.7983
-30.9096
-30.6253
-30.1259
-29.4884
-28.8194
-28.202
-27.6548
-27.1886
-26.8068
-26.4796
-26.1721
-25.8552
-25.5276
-25.1914
-24.8442
-24.511
-24.2173
-23.9621
-23.7468
-23.572
-23.42
-23.2712
-23.1094
-22.9366
-22.7566
-22.57
-22.3935
-22.2415
-22.1063
-21.9737
-21.8304
-21.6769
-21.5149
-21.3438
-21.1769
-21.0281
-20.8971
-20.7848
-20.6918
-20.6095
-20.5281
-20.4399
-20.3461
-20.249
-20.1492
-20.0545
-19.9732
-19.9064
-19.8556
-19.8236
-19.812
-19.8246
-19.868
-19.951
-20.0845
-20.2766
-20.5217
-20.8073
-21.1193
-21.4151
-21.6407
-21.7839
-21.8615
-21.8943
-31.3336
-30.9929
-30.4099
-29.6681
-28.9069
-28.2327
-27.6473
-27.1606
-26.7821
-26.4678
-26.1724
-25.8549
-25.5217
-25.1774
-24.8099
-24.4569
-24.1562
-23.8981
-23.685
-23.5228
-23.3865
-23.2505
-23.0923
-22.9191
-22.7371
-22.5418
-22.3586
-22.2105
-22.0841
-21.9598
-21.818
-21.663
-21.4978
-21.3167
-21.1399
-20.9873
-20.8543
-20.7424
-20.6548
-20.5789
-20.5022
-20.4138
-20.3173
-20.2163
-20.1086
-20.0056
-19.9187
-19.8467
-19.7909
-19.7545
-19.738
-19.7454
-19.7841
-19.8648
-20.0019
-20.2088
-20.478
-20.7949
-21.152
-21.4948
-21.7444
-21.891
-21.9635
-21.992
-31.7953
-31.3844
-30.7075
-29.8432
-28.9763
-28.2473
-27.6238
-27.1161
-26.7479
-26.4534
-26.1762
-25.8572
-25.5179
-25.1677
-24.7748
-24.3965
-24.0907
-23.8294
-23.6175
-23.4716
-23.3543
-23.2343
-23.0783
-22.9038
-22.7207
-22.5128
-22.3195
-22.1773
-22.0626
-21.9493
-21.8084
-21.6514
-21.484
-21.2901
-21.1004
-20.945
-20.81
-20.6979
-20.6174
-20.5498
-20.4794
-20.39
-20.2905
-20.186
-20.0689
-19.956
-19.864
-19.787
-19.7258
-19.685
-19.6633
-19.6645
-19.6969
-19.773
-19.9114
-20.1337
-20.4284
-20.7763
-21.1856
-21.5863
-21.8605
-22.0055
-22.0684
-22.09
-32.2988
-31.799
-31.0205
-30.0112
-29.022
-28.2455
-27.584
-27.0524
-26.7041
-26.437
-26.186
-25.8625
-25.5158
-25.1648
-24.739
-24.328
-24.0214
-23.7563
-23.5431
-23.4182
-23.3239
-23.2242
-23.0678
-22.8905
-22.7086
-22.4829
-22.2743
-22.1415
-22.0417
-21.9434
-21.8015
-21.6419
-21.4747
-21.2641
-21.0574
-20.9014
-20.764
-20.6505
-20.5797
-20.5223
-20.4604
-20.3689
-20.2655
-20.1589
-20.0303
-19.9055
-19.8094
-19.7274
-19.6604
-19.6155
-19.5883
-19.5823
-19.6068
-19.6758
-19.8121
-20.0508
-20.3729
-20.7493
-21.2189
-21.6927
-21.9909
-22.1273
-22.175
-22.187
-32.849
-32.234
-31.3515
-30.169
-29.0366
-28.2277
-27.5279
-26.9664
-26.651
-26.4191
-26.2054
-25.8707
-25.5145
-25.1723
-24.7026
-24.2481
-23.9494
-23.6793
-23.4597
-23.363
-23.2956
-23.2222
-23.0606
-22.8783
-22.703
-22.452
-22.2207
-22.1026
-22.0216
-21.9438
-21.7974
-21.6338
-21.4717
-21.2387
-21.0094
-20.8572
-20.7168
-20.5993
-20.5418
-20.4966
-20.4463
-20.3503
-20.2421
-20.136
-19.9928
-19.8532
-19.7552
-19.6682
-19.5948
-19.5467
-19.5135
-19.4994
-19.5145
-19.5734
-19.703
-19.9601
-20.3121
-20.7107
-21.2503
-21.8186
-22.1377
-22.256
-22.2817
-22.2814
-33.4527
-32.6839
-31.7058
-30.3138
-29.01
-28.197
-27.4567
-26.8532
-26.5896
-26.3997
-26.239
-25.8812
-25.5116
-25.1954
-24.666
-24.1521
-23.8768
-23.5992
-23.3646
-23.3064
-23.2693
-23.2315
-23.0563
-22.8659
-22.7072
-22.4199
-22.1553
-22.0608
-22.0019
-21.9527
-21.7956
-21.6259
-21.4777
-21.2138
-20.9537
-20.8133
-20.6686
-20.5429
-20.5039
-20.4727
-20.4386
-20.334
-20.2194
-20.1186
-19.9565
-19.7979
-19.7019
-19.6099
-19.5288
-19.4789
-19.4396
-19.4165
-19.4207
-19.4666
-19.5825
-19.8613
-20.2481
-20.656
-21.2766
-21.9701
-22.3034
-22.3907
-22.3871
-22.3716
-34.1186
-33.1385
-32.0921
-30.4421
-28.9282
-28.1589
-27.3728
-26.7058
-26.5224
-26.3777
-26.2938
-25.8928
-25.5027
-25.2419
-24.6291
-24.033
-23.8075
-23.5175
-23.2534
-23.2498
-23.2443
-23.256
-23.054
-22.8505
-22.7258
-22.3866
-22.0732
-22.0166
-21.982
-21.9736
-21.7954
-21.616
-21.4967
-21.1897
-20.8868
-20.7718
-20.6204
-20.4789
-20.4667
-20.4501
-20.4392
-20.3195
-20.1961
-20.1091
-19.9213
-19.7379
-19.6505
-19.5529
-19.462
-19.4128
-19.367
-19.3339
-19.326
-19.3563
-19.4485
-19.7543
-20.1843
-20.5792
-21.2934
-22.1563
-22.4902
-22.53
-22.4893
-22.456
-34.8584
-33.5808
-32.5248
-30.5505
-28.772
-28.1241
-27.2799
-26.5142
-26.4538
-26.3504
-26.3794
-25.9027
-25.4807
-25.3233
-24.5921
-23.8802
-23.7479
-23.4367
-23.1197
-23.1959
-23.2186
-23.3019
-23.0521
-22.8274
-22.7662
-22.3519
-21.9678
-21.9719
-21.9602
-22.0115
-21.7953
-21.6002
-21.5346
-21.1661
-20.8031
-20.7358
-20.5732
-20.4041
-20.4316
-20.428
-20.4512
-20.3061
-20.17
-20.1105
-19.8872
-19.6704
-19.6023
-19.4976
-19.3937
-19.3492
-19.2963
-19.2523
-19.2314
-19.2441
-19.2979
-19.6388
-20.1267
-20.4723
-21.294
-22.3898
-22.6998
-22.6716
-22.5863
-22.5333
-35.6888
-33.9832
-33.0266
-30.6354
-28.5141
-28.1092
-27.1834
-26.2633
-26.3922
-26.3118
-26.5097
-25.907
-25.4345
-25.456
-24.5549
-23.6786
-23.7079
-23.3599
-22.9542
-23.1493
-23.1883
-23.3776
-23.0478
-22.7899
-22.8385
-22.3159
-21.8298
-21.9307
-21.9333
-22.0732
-21.7932
-21.5728
-21.5998
-21.143
-20.6948
-20.7105
-20.5286
-20.3137
-20.4009
-20.4042
-20.4788
-20.2924
-20.1378
-20.1275
-19.8539
-19.5916
-19.5597
-19.4446
-19.3228
-19.2892
-19.2277
-19.1719
-19.1377
-19.1329
-19.1263
-19.5142
-20.0851
-20.3244
-21.2683
-22.6885
-22.9328
-22.8127
-22.676
-22.602
-36.6328
-34.3029
-33.6322
-30.6928
-28.117
-28.1403
-27.0904
-25.9313
-26.3513
-26.2505
-26.7044
-25.8998
-25.3472
-25.6637
-24.5171
-23.4065
-23.7025
-23.2914
-22.7433
-23.1182
-23.1463
-23.4956
-23.0375
-22.7272
-22.9577
-22.2783
-21.6464
-21.8997
-21.8957
-22.1691
-21.786
-21.525
-21.7045
-21.1201
-20.5505
-20.7035
-20.4889
-20.2008
-20.3789
-20.3754
-20.5281
-20.2766
-20.0944
-20.1668
-19.8211
-19.496
-19.5261
-19.3946
-19.2471
-19.2342
-19.1616
-19.0932
-19.0455
-19.0265
-18.9276
-19.3789
-20.0743
-20.1211
-21.2021
-23.0772
-23.1879
-22.9491
-22.7563
-22.6612
-37.7228
-34.4765
-34.393
-30.7185
-27.5289
-28.2556
-27.0101
-25.4872
-26.3536
-26.1477
-26.9915
-25.8728
-25.1942
-25.9796
-24.4781
-23.0335
-23.7538
-23.2368
-22.4676
-23.1162
-23.0805
-23.6731
-23.0159
-22.6239
-23.1446
-22.2385
-21.3999
-21.8905
-21.8377
-22.3134
-21.7695
-21.444
-21.8659
-21.0971
-20.3547
-20.7262
-20.4567
-20.0556
-20.3723
-20.3354
-20.6076
-20.2559
-20.0326
-20.238
-19.7881
-19.3762
-19.507
-19.348
-19.1641
-19.1864
-19.098
-19.0163
-18.955
-18.9311
-18.6934
-19.2299
-20.1157
-19.8437
-21.0753
-23.5905
-23.4602
-23.076
-22.8253
-22.7102
-39.0035
-34.4116
-35.3836
-30.7074
-26.6793
-28.5101
-26.9535
-24.8873
-26.4341
-25.9728
-27.4099
-25.8149
-24.9407
-26.4492
-24.4366
-22.5181
-23.8934
-23.203
-22.1
-23.1642
-22.9717
-23.9345
-22.9758
-22.4585
-23.4279
-22.1955
-21.0668
-21.9214
-21.7435
-22.5262
-21.7377
-21.312
-22.1075
-21.0732
-20.0857
-20.7949
-20.4356
-19.864
-20.3918
-20.2746
-20.7294
-20.2269
-19.9421
-20.3541
-19.7538
-19.2219
-19.51
-19.3054
-19.0696
-19.1488
-19.0369
-18.9414
-18.8658
-18.8555
-18.4127
-19.0619
-20.24
-19.4683
-20.8601
-24.2755
-23.7398
-23.1877
-22.8814
-22.7486
-40.5365
-33.9773
-36.7094
-30.6533
-25.4738
-28.98
-26.9335
-24.0714
-26.6452
-25.6786
-28.0132
-25.7111
-24.5388
-27.1344
-24.3907
-21.8044
-24.1652
-23.1984
-21.6032
-23.2941
-22.7906
-24.3133
-22.908
-22.2007
-23.8465
-22.1475
-20.6153
-22.0199
-21.5894
-22.8351
-21.683
-21.104
-22.4613
-21.0473
-19.7149
-20.9322
-20.4298
-19.6073
-20.4537
-20.1784
-20.9102
-20.1846
-19.8091
-20.5331
-19.7166
-19.0195
-19.546
-19.2669
-18.9583
-19.1259
-18.9775
-18.8685
-18.7764
-18.8123
-18.0711
-18.8661
-20.4897
-18.9642
-20.519
-25.1958
-24.009
-23.2784
-22.9237
-22.7766
-42.4052
-32.9934
-38.5158
-30.5476
-23.7881
-29.7694
-26.9643
-22.9578
-27.0635
-25.1955
-28.8744
-25.5427
-23.9236
-28.1171
-24.3372
-20.8185
-24.629
-23.2326
-20.9266
-23.5526
-22.4935
-24.8551
-22.8004
-21.8101
-24.4519
-22.0914
-20.0034
-22.2263
-21.3396
-23.2775
-21.5957
-20.7865
-22.9697
-21.0176
-19.204
-21.1689
-20.444
-19.2596
-20.5817
-20.0249
-21.1727
-20.123
-19.6146
-20.799
-19.6739
-18.7511
-19.63
-19.2322
-18.823
-19.1236
-18.9187
-18.7981
-18.6834
-18.8188
-17.6505
-18.6284
-20.9216
-18.2934
-20.0018
-26.4359
-24.2394
-23.3425
-22.9517
-22.7947
-44.7206
-31.2158
-40.9995
-30.3787
-21.4612
-31.0166
-27.0613
-21.4378
-27.7978
-24.423
-30.0911
-25.2856
-23.0094
-29.504
-24.2714
-19.4644
-25.3643
-23.3163
-20.003
-24.0059
-22.018
-25.6208
-22.6378
-21.2328
-25.3114
-22.0224
-19.1762
-22.5977
-20.9426
-23.9035
-21.4632
-20.3151
-23.6877
-20.9814
-18.5032
-21.5459
-20.4831
-18.7862
-20.809
-19.7826
-21.5466
-20.0334
-19.3335
-21.1825
-19.6215
-18.393
-19.7815
-19.1992
-18.6533
-19.1492
-18.8572
-18.73
-18.5801
-18.8974
-17.1272
-18.3269
-21.61
-17.4078
-19.2416
-28.1055
-24.387
-23.3746
-22.9645
-22.8022
)
;

boundaryField
{
    left
    {
        type            calculated;
        value           nonuniform List<scalar> 
32
(
-27.5236
-27.5508
-27.603
-27.6779
-27.774
-27.8902
-28.0258
-28.1805
-28.3543
-28.5474
-28.7604
-28.994
-29.2495
-29.528
-29.8313
-30.1611
-30.5197
-30.9096
-31.3336
-31.7953
-32.2988
-32.849
-33.4527
-34.1186
-34.8584
-35.6888
-36.6328
-37.7228
-39.0035
-40.5365
-42.4052
-44.7206
)
;
    }
    right
    {
        type            calculated;
        value           nonuniform List<scalar> 
32
(
-20.958
-20.9651
-20.9789
-20.999
-21.0251
-21.0572
-21.0952
-21.1393
-21.1895
-21.2458
-21.3082
-21.3766
-21.4509
-21.5307
-21.6156
-21.7051
-21.7983
-21.8943
-21.992
-22.09
-22.187
-22.2814
-22.3716
-22.456
-22.5333
-22.602
-22.6612
-22.7102
-22.7486
-22.7766
-22.7947
-22.8022
)
;
    }
    interface
    {
        type            calculated;
        value           nonuniform List<scalar> 
64
(
-46.0057
-30.0938
-42.4389
-30.2766
-20.1148
-31.7743
-27.1282
-20.5607
-28.2598
-23.9497
-30.8022
-25.1315
-22.4654
-30.3136
-24.2347
-18.6819
-25.8111
-23.372
-19.4698
-24.2909
-21.7264
-26.0683
-22.5405
-20.8899
-25.8141
-21.9839
-18.701
-22.8328
-20.6996
-24.2695
-21.3839
-20.0345
-24.1068
-20.9611
-18.0983
-21.7751
-20.5095
-18.5132
-20.9523
-19.6344
-21.7657
-19.9804
-19.1676
-21.4079
-19.5922
-18.1881
-19.8768
-19.1828
-18.5583
-19.17
-18.8253
-18.6964
-18.5246
-18.9579
-16.8365
-18.1568
-22.0286
-16.9045
-18.7911
-29.063
-24.4333
-23.382
-22.967
-22.8031
)
;
    }
    bottom
    {
        type            calculated;
        value           nonuniform List<scalar> 
64
(
-27.5165
-27.483
-27.4171
-27.3207
-27.1965
-27.0478
-26.878
-26.6908
-26.4896
-26.2776
-26.0579
-25.8329
-25.6049
-25.3759
-25.1477
-24.9214
-24.6985
-24.4796
-24.2656
-24.0568
-23.8537
-23.6562
-23.4645
-23.2785
-23.0982
-22.9234
-22.7541
-22.5903
-22.4318
-22.2787
-22.1311
-21.9889
-21.8522
-21.7214
-21.5964
-21.4776
-21.3652
-21.2593
-21.1603
-21.0682
-20.9834
-20.9061
-20.8366
-20.7752
-20.7222
-20.6779
-20.6425
-20.6164
-20.5996
-20.5922
-20.5939
-20.6044
-20.6231
-20.649
-20.6809
-20.7173
-20.7567
-20.797
-20.8363
-20.8727
-20.9043
-20.9295
-20.9471
-20.9561
)
;
    }
    defaultFaces
    {
        type            empty;
    }
}


// ************************************************************************* //
