/*--------------------------------*- C++ -*----------------------------------*\
| =========                 |                                                 |
| \\      /  F ield         | OpenFOAM: The Open Source CFD Toolbox           |
|  \\    /   O peration     | Version:  5.x                                   |
|   \\  /    A nd           | Web:      www.OpenFOAM.org                      |
|    \\/     M anipulation  |                                                 |
\*---------------------------------------------------------------------------*/
FoamFile
{
    version     2.0;
    format      ascii;
    class       volScalarField;
    location    "3.3";
    object      gradTx;
}
// * * * * * * * * * * * * * * * * * * * * * * * * * * * * * * * * * * * * * //

dimensions      [0 -1 0 1 0 0 0];

internalField   nonuniform List<scalar> 
6300
(
202.287
203.244
205.138
207.926
211.541
215.885
220.829
226.207
231.812
237.402
242.7
247.408
251.227
253.874
255.111
201.327
202.305
204.242
207.098
210.809
215.283
220.394
225.977
231.826
237.692
243.287
248.296
252.396
255.28
256.689
199.388
200.406
202.426
205.413
209.313
214.042
219.483
225.479
231.821
238.251
244.458
250.091
254.779
258.16
259.926
196.429
197.503
199.639
202.814
206.986
212.087
218.017
224.631
231.726
239.03
246.201
252.83
258.465
262.652
264.995
192.395
193.536
195.813
199.217
203.726
209.301
215.866
223.302
231.419
239.94
248.483
256.561
263.598
268.987
272.184
187.219
188.429
190.857
194.512
199.401
205.521
212.843
221.289
230.705
240.824
251.23
261.331
270.375
277.513
281.945
180.83
182.105
184.673
188.57
193.842
200.538
208.693
218.304
229.287
241.421
254.278
267.157
279.056
288.741
294.973
173.164
174.485
177.159
181.252
186.858
194.093
203.086
213.946
226.716
241.292
257.302
273.961
289.947
303.422
312.35
164.175
165.509
168.226
172.421
178.242
185.889
195.609
207.674
222.337
239.728
259.676
281.434
303.346
322.647
335.821
153.85
155.15
157.812
161.961
167.798
175.612
185.785
198.804
215.228
235.603
260.237
288.753
319.354
347.995
368.345
142.224
143.429
145.908
149.81
155.377
162.972
173.115
186.527
204.167
227.217
256.914
293.984
337.317
381.634
415.298
129.392
130.431
132.581
135.993
140.927
147.783
157.174
170.02
187.692
212.184
246.217
292.948
354.295
425.92
487.425
115.52
116.322
117.989
120.655
124.552
130.057
137.775
148.685
164.397
187.606
222.82
277.292
360.992
480.324
609.059
100.843
101.347
102.397
104.083
106.567
110.117
115.185
122.547
133.605
151.021
180.164
232.405
332.055
525.321
845.079
85.6613
85.8259
86.1674
86.7136
87.5148
88.6584
90.2974
92.7122
96.4521
102.706
114.409
140.109
209.497
443.825
1405.78
254.923
253.478
250.862
247.103
242.262
236.422
229.687
222.163
213.96
205.182
195.923
186.269
176.296
166.07
155.652
145.095
134.449
123.76
113.072
102.424
91.8568
81.4034
71.0957
60.9613
51.024
41.3034
31.8149
22.5701
13.5768
4.8395
-3.64042
-11.8641
-19.8349
-27.5574
-35.0373
-42.2806
-49.2932
-56.0805
-62.6472
-68.9977
-75.1355
-81.0645
-86.7888
-92.3132
-97.6441
-102.789
-107.756
-112.557
-117.2
-121.695
-126.053
-130.28
-134.381
-138.36
-142.217
-145.95
-149.556
-153.032
-156.374
-159.579
-162.644
-165.568
-168.347
-170.98
-173.462
-175.785
-177.938
-179.906
-181.666
-183.194
-184.46
-185.43
-186.071
-186.348
-186.229
-185.685
-184.692
-183.232
-181.293
-178.871
-175.968
-172.596
-168.773
-164.528
-159.898
-154.93
-149.682
-144.218
-138.61
-132.933
256.591
255.162
252.506
248.66
243.696
237.711
230.819
223.139
214.787
205.871
196.489
186.727
176.657
166.346
155.85
145.222
134.509
123.758
113.011
102.309
91.691
81.1924
70.8449
60.6766
50.7112
40.9683
31.4632
22.2071
13.2075
4.46825
-4.00994
-12.229
-20.1928
-27.9072
-35.3784
-42.6131
-49.6178
-56.3982
-62.9589
-69.3039
-75.4364
-81.3594
-87.0764
-92.5919
-97.9119
-103.044
-107.997
-112.783
-117.411
-121.894
-126.241
-130.46
-134.557
-138.535
-142.394
-146.131
-149.743
-153.224
-156.571
-159.78
-162.848
-165.774
-168.557
-171.196
-173.688
-176.028
-178.204
-180.202
-181.999
-183.571
-184.884
-185.903
-186.593
-186.916
-186.839
-186.329
-185.363
-183.92
-181.987
-179.561
-176.643
-173.243
-169.379
-165.079
-160.381
-155.333
-149.991
-144.424
-138.706
-132.919
260.01
258.609
255.862
251.826
246.598
240.304
233.084
225.08
216.423
207.23
197.603
187.624
177.366
166.886
156.238
145.469
134.624
123.748
112.883
102.071
91.3523
80.7627
70.3352
60.0986
50.0769
40.2898
30.7519
21.4741
12.4626
3.72036
-4.75327
-12.9617
-20.9107
-28.6075
-36.0603
-43.2772
-50.2659
-57.0324
-63.5815
-69.9163
-76.0389
-81.9508
-87.6541
-93.1521
-98.4501
-103.556
-108.48
-113.234
-117.832
-122.287
-126.612
-130.815
-134.904
-138.881
-142.746
-146.493
-150.116
-153.609
-156.966
-160.181
-163.254
-166.184
-168.973
-171.622
-174.134
-176.504
-178.726
-180.784
-182.657
-184.317
-185.727
-186.849
-187.641
-188.06
-188.068
-187.63
-186.717
-185.309
-183.391
-180.957
-178.009
-174.554
-170.61
-166.203
-161.368
-156.155
-150.622
-144.843
-138.902
-132.887
265.365
263.99
261.073
256.705
251.031
244.227
236.477
227.959
218.828
209.214
199.219
188.924
178.39
167.667
156.798
145.823
134.783
123.72
112.677
101.699
90.8263
80.0982
69.5495
59.21
49.1041
39.2513
29.6656
20.3566
11.3294
2.58501
-5.87906
-14.0686
-21.9921
-29.6596
-37.0821
-44.2705
-51.234
-57.9799
-64.5128
-70.8345
-76.9448
-82.8427
-88.5274
-94.0001
-99.2649
-104.33
-109.207
-113.911
-118.459
-122.869
-127.156
-131.335
-135.412
-139.39
-143.265
-147.031
-150.676
-154.19
-157.562
-160.788
-163.865
-166.796
-169.587
-172.247
-174.781
-177.194
-179.481
-181.631
-183.621
-185.42
-186.985
-188.269
-189.223
-189.794
-189.937
-189.611
-188.783
-187.43
-185.535
-183.093
-180.101
-176.568
-172.507
-167.94
-162.9
-157.434
-151.605
-145.496
-139.2
-132.826
272.961
271.589
268.372
263.464
257.09
249.509
240.975
231.719
221.927
211.743
201.266
190.566
179.685
168.657
157.508
146.268
134.973
123.661
112.379
101.173
90.0908
79.1743
68.4615
57.9838
47.7662
37.8272
28.1801
18.8326
9.78808
1.0454
-7.40071
-15.5593
-23.4425
-31.0649
-38.4417
-45.5878
-52.5157
-59.2344
-65.7483
-72.057
-78.1567
-84.0416
-89.706
-95.1473
-100.367
-105.374
-110.182
-114.811
-119.284
-123.625
-127.858
-132
-136.062
-140.045
-143.943
-147.742
-151.425
-154.972
-158.37
-161.608
-164.685
-167.608
-170.391
-173.05
-175.603
-178.062
-180.433
-182.706
-184.86
-186.856
-188.645
-190.165
-191.352
-192.143
-192.48
-192.313
-191.604
-190.327
-188.467
-186.016
-182.972
-179.341
-175.13
-170.355
-165.042
-159.233
-152.993
-146.413
-139.61
-132.718
283.277
281.841
278.104
272.331
264.886
256.159
246.512
236.248
225.59
214.69
203.635
192.464
181.191
169.818
158.348
146.794
135.184
123.558
111.968
100.469
89.1151
77.956
67.0339
56.3823
46.0259
35.9822
26.2622
16.8716
7.81148
-0.92191
-9.33698
-17.4469
-25.2691
-32.8241
-40.1338
-47.2195
-54.099
-60.7841
-67.2793
-73.5807
-79.6781
-85.5578
-91.2059
-96.613
-101.777
-106.705
-111.416
-115.935
-120.297
-124.538
-128.69
-132.78
-136.824
-140.822
-144.762
-148.62
-152.367
-155.97
-159.406
-162.658
-165.726
-168.622
-171.371
-174.004
-176.557
-179.057
-181.523
-183.952
-186.324
-188.591
-190.689
-192.537
-194.051
-195.145
-195.746
-195.792
-195.241
-194.064
-192.248
-189.789
-186.687
-182.945
-178.563
-173.543
-167.896
-161.65
-154.867
-147.65
-140.147
-132.536
297.053
295.407
290.765
283.604
274.525
264.131
252.938
241.341
229.601
217.86
206.167
194.508
182.841
171.118
159.307
147.399
135.415
123.403
111.426
99.5546
87.8576
76.3954
65.216
54.3545
43.8345
33.6702
23.8691
14.4341
5.36369
-3.3482
-11.7132
-19.7494
-27.4809
-34.9368
-42.1489
-49.1486
-55.9623
-62.6077
-69.0893
-75.3981
-81.5132
-87.4073
-93.0529
-98.4287
-103.525
-108.349
-112.923
-117.286
-121.486
-125.578
-129.611
-133.627
-137.65
-141.681
-145.698
-149.66
-153.514
-157.21
-160.704
-163.973
-167.013
-169.847
-172.515
-175.074
-177.585
-180.101
-182.662
-185.281
-187.936
-190.568
-193.09
-195.39
-197.35
-198.856
-199.808
-200.131
-199.776
-198.718
-196.952
-194.485
-191.323
-187.469
-182.913
-177.634
-171.61
-164.839
-157.363
-149.297
-140.836
-132.234
315.453
313.285
307.05
297.634
286.058
273.25
259.943
246.637
233.611
220.96
208.647
196.562
184.568
172.544
160.403
148.111
135.687
123.197
110.73
98.3877
86.2611
74.4265
62.9391
51.8342
41.1301
30.8342
20.9482
11.4708
2.39898
-6.27456
-14.5636
-22.4911
-30.0899
-37.4008
-44.4704
-51.3457
-58.0684
-64.667
-71.1484
-77.4946
-83.6667
-89.6147
-95.2882
-100.646
-105.667
-110.353
-114.735
-118.87
-122.832
-126.7
-130.556
-134.464
-138.465
-142.561
-146.713
-150.852
-154.889
-158.737
-162.327
-165.615
-168.598
-171.308
-173.816
-176.213
-178.602
-181.079
-183.718
-186.556
-189.577
-192.704
-195.808
-198.731
-201.302
-203.361
-204.774
-205.445
-205.32
-204.388
-202.665
-200.178
-196.954
-193.001
-188.3
-182.795
-176.399
-169.039
-160.707
-151.513
-141.726
-131.738
340.371
337.017
327.911
314.776
299.36
283.085
266.944
251.528
237.08
223.571
210.798
198.481
186.339
174.136
161.715
149.01
136.054
122.954
109.855
96.9083
84.2429
71.9564
60.1107
48.7358
37.837
27.4074
17.4379
7.92298
-1.13998
-9.75521
-17.9352
-25.7069
-33.1137
-40.213
-47.072
-53.7627
-60.3536
-66.8953
-73.4025
-79.8417
-86.1429
-92.2175
-97.9775
-103.35
-108.29
-112.794
-116.904
-120.705
-124.31
-127.842
-131.425
-135.167
-139.141
-143.357
-147.749
-152.19
-156.534
-160.637
-164.383
-167.698
-170.572
-173.06
-175.273
-177.363
-179.493
-181.821
-184.484
-187.566
-191.065
-194.87
-198.787
-202.575
-205.988
-208.795
-210.808
-211.901
-212.024
-211.196
-209.475
-206.932
-203.631
-199.608
-194.845
-189.235
-182.573
-174.638
-165.288
-154.582
-142.902
-130.914
375.06
369.026
354.574
335.198
313.896
292.724
272.901
255.021
239.193
225.121
212.29
200.148
188.195
176.041
163.432
150.271
136.628
122.708
108.76
95.0223
81.6778
68.8504
56.6035
44.9508
33.8675
23.3169
13.2723
3.72357
-5.32435
-13.8633
-21.8952
-29.4486
-36.5809
-43.3716
-49.9162
-56.3238
-62.7097
-69.1737
-75.7543
-82.3879
-88.9453
-95.2733
-101.225
-106.676
-111.541
-115.801
-119.516
-122.822
-125.892
-128.91
-132.064
-135.536
-139.469
-143.902
-148.71
-153.668
-158.526
-163.052
-167.056
-170.416
-173.103
-175.204
-176.909
-178.455
-180.096
-182.08
-184.645
-187.975
-192.111
-196.874
-201.947
-206.958
-211.545
-215.371
-218.165
-219.75
-220.095
-219.287
-217.466
-214.775
-211.343
-207.277
-202.608
-197.185
-190.579
-182.272
-171.821
-159.05
-144.519
-129.492
425.532
413.156
388.323
358.391
328.242
300.418
276.057
255.555
238.779
224.878
212.791
201.539
190.338
178.601
165.943
152.223
137.6
122.499
107.362
92.5686
78.3669
64.9073
52.2399
40.3448
29.1302
18.497
8.39198
-1.19778
-10.2423
-18.702
-26.5448
-33.7972
-40.5404
-46.885
-52.9581
-58.9163
-64.9536
-71.2844
-78.0301
-85.044
-92.0779
-98.8709
-105.195
-110.844
-115.665
-119.592
-122.717
-125.28
-127.547
-129.781
-132.245
-135.24
-139.076
-143.906
-149.454
-155.291
-160.996
-166.216
-170.655
-174.103
-176.476
-177.917
-178.77
-179.411
-180.202
-181.501
-183.705
-187.221
-192.251
-198.431
-205.192
-211.952
-218.193
-223.432
-227.257
-229.385
-229.823
-228.834
-226.708
-223.682
-219.968
-215.809
-211.456
-206.836
-201.029
-192.992
-181.691
-166.049
-146.85
-126.868
504.009
475.22
429.411
381.895
339.239
303.122
273.654
250.722
234.221
222.023
212.088
202.853
193.251
182.485
169.984
155.472
139.259
122.342
105.47
89.2613
73.9864
59.8228
46.7632
34.7581
23.5548
12.916
2.76891
-6.90491
-16.0032
-24.4295
-32.0452
-38.8796
-45.0744
-50.7895
-56.1657
-61.3949
-66.7753
-72.7978
-79.9197
-87.6712
-95.5573
-103.145
-110.135
-116.202
-121.079
-124.537
-126.728
-128.162
-129.252
-130.319
-131.662
-133.734
-137.25
-142.876
-149.78
-157.104
-164.163
-170.504
-175.68
-179.336
-181.189
-181.476
-180.935
-180.151
-179.577
-179.617
-180.873
-184.285
-190.733
-199.15
-208.437
-217.69
-226.283
-233.528
-238.792
-241.449
-241.603
-240.016
-237.242
-233.578
-229.229
-224.617
-220.686
-218.194
-214.689
-208.41
-197.81
-178.17
-150.304
-121.542
638.331
561.791
472.952
398.396
340.814
296.25
261.838
236.626
223.463
215.907
210.374
204.696
197.838
188.865
176.917
161.172
141.929
122.118
102.62
84.6086
68.0047
53.1475
39.7671
28.0159
17.1655
6.62624
-3.53643
-13.4415
-22.7325
-31.3248
-38.671
-44.8837
-50.2996
-55.1826
-59.5855
-63.6561
-67.6724
-72.7282
-80.9029
-90.1047
-99.4672
-108.277
-116.406
-123.275
-128.536
-131.304
-131.831
-131.539
-130.99
-130.459
-130.029
-130.148
-132.384
-140.007
-149.498
-159.299
-168.364
-176.467
-182.895
-187.164
-188.157
-186.228
-183.447
-180.588
-178.066
-175.979
-174.936
-176.974
-186.377
-198.616
-211.727
-224.376
-236.313
-246.471
-254.081
-257.114
-255.886
-252.902
-249.056
-244.458
-238.864
-232.443
-227.841
-231.008
-232.339
-230.047
-226.943
-202.132
-155.049
-109.444
900.077
666.071
495.923
390.45
323.643
274.754
236.774
205.175
204.629
206.879
208.864
208.237
205.471
199.525
189.316
171.908
145.415
121.444
97.627
77.9285
59.507
44.3447
30.4242
19.9757
10.3278
-0.206615
-10.2134
-20.8632
-30.4683
-40.0152
-46.9297
-52.0357
-56.2927
-60.2671
-63.484
-65.9958
-67.0729
-68.1673
-80.4074
-92.3068
-104.172
-114.391
-124.492
-132.661
-139.582
-141.3
-138.112
-135.285
-132.703
-130.454
-127.602
-123.516
-119.758
-134.447
-148.77
-162.554
-173.949
-184.844
-193.215
-199.709
-199.333
-192.206
-186.072
-180.536
-175.93
-170.836
-164.561
-159.059
-177.934
-196.825
-215.68
-232.087
-248.901
-263.08
-275.956
-278.913
-272.696
-267.025
-261.952
-256.769
-249.687
-237.645
-223.806
-246.462
-255.203
-252.851
-287.33
-258.163
-157.662
-79.0729
1492.87
678.389
425.757
326.821
280.669
237.545
202.521
129.006
181.768
198.228
211.114
214.855
217.682
216.324
212.081
195.725
145.268
120.547
86.7026
69.4087
46.3152
33.7531
16.0808
10.7819
4.76601
-7.80005
-15.965
-29.7899
-38.2887
-52.497
-57.7934
-60.4105
-62.6935
-66.4425
-68.3983
-70.4016
-66.4488
-47.5566
-80.4023
-94.5577
-111.25
-120.673
-135.362
-143.844
-158.121
-158.361
-143.872
-138.681
-133.933
-131.319
-126.952
-116.41
-80.5693
-129.415
-148.817
-169.248
-180.254
-196.854
-206.238
-222.146
-220.229
-196.753
-187.833
-179.144
-174.494
-167.394
-153.07
-106.039
-169.465
-195.086
-223.156
-239.207
-265.283
-281.562
-312.11
-313.921
-288.715
-280.284
-275.002
-271.809
-267.651
-245.43
-167.216
-281.948
-294.039
-222.612
-439.365
-416.909
-128.719
0.795262
-126.703
-120.029
-113.601
-107.517
-101.856
-96.674
-92.0079
-87.878
-84.2911
-81.245
-78.7314
-76.7394
-75.2576
-74.2759
-73.787
-126.572
-119.782
-113.255
-107.093
-101.376
-96.1566
-91.4705
-87.3337
-83.7492
-80.7113
-78.2088
-76.2282
-74.7565
-73.7821
-73.2971
-126.299
-119.271
-112.543
-106.224
-100.395
-95.105
-90.3826
-86.2358
-82.6597
-79.6412
-77.1631
-75.2073
-73.7568
-72.798
-72.3212
-125.858
-118.456
-111.419
-104.865
-98.8722
-93.4849
-88.7179
-84.5659
-81.0113
-78.0295
-75.5941
-73.6798
-72.2646
-71.3311
-70.8674
-125.206
-117.276
-109.811
-102.942
-96.7433
-91.2432
-86.4368
-82.2977
-78.789
-75.8704
-73.503
-71.6523
-70.2897
-69.3934
-68.9489
-124.273
-115.629
-107.606
-100.347
-93.9142
-88.3067
-83.4871
-79.3978
-75.9755
-73.1591
-70.8943
-69.1357
-67.8474
-67.0029
-66.585
-122.949
-113.359
-104.636
-96.9262
-90.2582
-84.5813
-79.8059
-75.8299
-72.5551
-69.8952
-67.7784
-66.1478
-64.9603
-64.1851
-63.8023
-121.05
-110.221
-100.65
-92.4622
-85.6098
-79.9533
-75.3242
-71.5597
-68.5189
-66.0872
-64.1753
-62.716
-61.6602
-60.9739
-60.6359
-118.266
-105.823
-95.279
-86.662
-79.7643
-74.2968
-69.9769
-66.5649
-63.8726
-61.7584
-60.1189
-58.8798
-57.9896
-57.4136
-57.1307
-114.035
-99.5243
-87.9797
-79.1411
-72.4875
-67.4919
-63.7207
-60.8495
-58.6474
-56.9543
-55.661
-54.694
-54.004
-53.5595
-53.3417
-107.278
-90.2584
-77.9733
-69.4342
-63.5514
-59.4615
-56.5637
-54.4643
-52.9122
-51.7494
-50.8763
-50.2303
-49.7722
-49.4781
-49.3341
-95.8143
-76.2566
-64.22
-57.07
-52.8215
-50.2383
-48.6076
-47.5308
-46.7872
-46.2542
-45.8637
-45.5779
-45.3758
-45.2457
-45.182
-75.0323
-54.7322
-45.5789
-41.8035
-40.4257
-40.0619
-40.0968
-40.2636
-40.4508
-40.6158
-40.7459
-40.8414
-40.9065
-40.9465
-40.9655
-35.0508
-22.0602
-21.5594
-24.1387
-27.0152
-29.4862
-31.4536
-32.9755
-34.1361
-35.0115
-35.6623
-36.1345
-36.4619
-36.6679
-36.7673
45.001
23.1018
5.54069
-6.1765
-14.0097
-19.4138
-23.2556
-26.0481
-28.1063
-29.6314
-30.7567
-31.572
-32.1381
-32.4953
-32.668
71.5929
71.4347
71.1016
70.5566
69.7356
68.5329
66.7721
64.1478
60.0903
53.4206
41.3024
15.4549
-54.0455
-297.871
-1372.23
58.9126
58.4728
57.5519
56.0594
53.8372
50.6238
45.9847
39.1747
28.8476
12.3988
-15.6242
-67.5526
-172.571
-395.382
-810.734
46.537
45.8443
44.3985
42.0683
38.6267
33.7043
26.7042
16.6436
1.85541
-20.5859
-55.95
-113.692
-209.294
-359.184
-537.677
34.642
33.7383
31.8588
28.8486
24.444
18.2273
9.54867
-2.60488
-19.8225
-44.5966
-80.7364
-133.538
-208.317
-303.121
-388.571
23.3741
22.3093
20.1039
16.5967
11.5192
4.45965
-5.19412
-18.337
-36.2529
-60.7145
-93.9515
-138.123
-193.434
-253.551
-298.804
12.8452
11.6719
9.25273
5.43486
-0.0294423
-7.50676
-17.5142
-30.7548
-48.1381
-70.7381
-99.5726
-134.973
-175.212
-214.303
-240.463
3.13068
1.89947
-0.627554
-4.58391
-10.1804
-17.7163
-27.5894
-40.2961
-56.4007
-76.4323
-100.634
-128.462
-157.788
-184.032
-200.287
-5.72918
-6.9735
-9.51557
-13.464
-18.9848
-26.303
-35.6969
-47.4777
-61.9365
-79.2308
-99.1754
-120.912
-142.503
-160.698
-171.4
-13.7253
-14.9455
-17.4272
-21.2523
-26.5413
-33.4484
-42.1469
-52.7997
-65.5033
-80.1889
-96.4727
-113.461
-129.577
-142.568
-149.943
-20.8742
-22.0418
-24.4063
-28.0241
-32.9744
-39.35
-47.2397
-56.6977
-67.6936
-80.0372
-93.2808
-106.616
-118.819
-128.337
-133.608
-27.2124
-28.3073
-30.5153
-33.8707
-38.4178
-44.2001
-51.2435
-59.5278
-68.9479
-79.2604
-90.0251
-100.557
-109.927
-117.055
-120.932
-32.7906
-33.7998
-35.8277
-38.89
-43.0034
-48.1747
-54.3854
-61.5692
-69.5824
-78.1696
-86.9308
-95.3052
-102.592
-108.03
-110.95
-37.668
-38.5852
-40.4218
-43.1796
-46.8546
-51.4277
-56.8517
-63.0346
-69.8183
-76.9578
-84.1051
-90.8086
-96.5391
-100.754
-102.994
-41.9087
-42.7322
-44.3762
-46.8323
-50.0822
-54.0897
-58.7912
-64.0828
-69.8071
-75.7405
-81.5876
-86.9876
-91.5392
-94.8485
-96.5942
-45.5777
-46.3096
-47.7668
-49.934
-52.7837
-56.2698
-60.3208
-64.8307
-69.6506
-74.583
-79.3805
-83.7557
-87.4019
-90.0289
-91.4065
-48.7385
-49.3834
-50.6644
-52.5619
-55.0432
-58.0577
-61.5318
-65.3631
-69.4161
-73.519
-77.4667
-81.0298
-83.9722
-86.0768
-87.1753
-51.4514
-52.0156
-53.1338
-54.7845
-56.9325
-59.5265
-62.4946
-65.7418
-69.1469
-72.5628
-75.82
-78.735
-81.1243
-82.8234
-83.7069
-53.7727
-54.2632
-55.2336
-56.6616
-58.5123
-60.7355
-63.2637
-66.0107
-68.8701
-71.7168
-74.4109
-76.8051
-78.7557
-80.1362
-80.8519
-55.7534
-56.1776
-57.0155
-58.2454
-59.8335
-61.7326
-63.881
-66.2016
-68.6021
-70.9767
-73.21
-75.1832
-76.7828
-77.9106
-78.4938
-57.4396
-57.8049
-58.5253
-59.5805
-60.9386
-62.5566
-64.3787
-66.337
-68.3521
-70.3348
-72.1897
-73.8208
-75.1376
-76.0631
-76.5408
-58.8721
-59.1854
-59.8028
-60.7051
-61.8635
-63.2388
-64.7817
-66.4331
-68.1246
-69.7815
-71.3249
-72.6766
-73.7641
-74.5265
-74.9194
-60.087
-60.355
-60.8824
-61.652
-62.6376
-63.8046
-65.1095
-66.5011
-67.9213
-69.307
-70.5931
-71.7157
-72.6165
-73.2465
-73.5708
-61.1158
-61.3444
-61.7939
-62.4488
-63.2859
-64.2746
-65.3772
-66.5494
-67.7418
-68.9016
-69.9748
-70.909
-71.6567
-72.1789
-72.4473
-61.9859
-62.1805
-62.5628
-63.119
-63.8289
-64.6656
-65.5965
-66.5836
-67.585
-68.5564
-69.453
-70.2316
-70.8537
-71.2874
-71.5101
-62.7209
-62.8862
-63.2108
-63.6826
-64.2839
-64.9913
-65.7767
-66.6078
-67.449
-68.2632
-69.013
-69.663
-70.1814
-70.5424
-70.7276
-63.3412
-63.4814
-63.7566
-64.1563
-64.6651
-65.2628
-65.9253
-66.625
-67.3318
-68.0147
-68.6424
-69.1857
-69.6184
-69.9194
-70.0738
-63.864
-63.9829
-64.216
-64.5544
-64.9846
-65.4893
-66.048
-66.6371
-67.2314
-67.8045
-68.3305
-68.7851
-69.1469
-69.3983
-69.5271
-64.3043
-64.405
-64.6024
-64.8886
-65.2522
-65.6784
-66.1496
-66.6457
-67.1455
-67.6269
-68.0682
-68.4491
-68.7519
-68.9622
-69.07
-64.6748
-64.76
-64.927
-65.1691
-65.4764
-65.8363
-66.2338
-66.6518
-67.0725
-67.4772
-67.8477
-68.1673
-68.4212
-68.5974
-68.6876
-64.986
-65.0581
-65.1995
-65.4043
-65.6642
-65.9682
-66.3036
-66.6562
-67.0105
-67.3511
-67.6627
-67.9312
-68.1443
-68.2922
-68.3679
-65.2471
-65.3083
-65.428
-65.6013
-65.8212
-66.0782
-66.3616
-66.6592
-66.9581
-67.2452
-67.5076
-67.7335
-67.9128
-68.0371
-68.1007
-65.4659
-65.5177
-65.6192
-65.7661
-65.9523
-66.17
-66.4098
-66.6614
-66.9139
-67.1563
-67.3777
-67.5683
-67.7194
-67.8242
-67.8778
-65.6486
-65.6926
-65.7788
-65.9036
-66.0617
-66.2463
-66.4497
-66.6629
-66.8768
-67.082
-67.2693
-67.4305
-67.5582
-67.6467
-67.692
-65.8008
-65.8383
-65.9117
-66.018
-66.1526
-66.3097
-66.4827
-66.664
-66.8458
-67.0201
-67.1791
-67.3159
-67.4243
-67.4993
-67.5377
-65.9269
-65.959
-66.0218
-66.1127
-66.2278
-66.3621
-66.5099
-66.6648
-66.82
-66.9687
-67.1044
-67.221
-67.3134
-67.3774
-67.4101
-66.0307
-66.0583
-66.1124
-66.1906
-66.2896
-66.4052
-66.5322
-66.6653
-66.7987
-66.9264
-67.0429
-67.143
-67.2222
-67.2771
-67.3052
-66.1154
-66.1393
-66.1863
-66.2541
-66.34
-66.4402
-66.5504
-66.6657
-66.7812
-66.8919
-66.9927
-67.0794
-67.148
-67.1955
-67.2198
-66.1834
-66.2044
-66.2456
-66.3051
-66.3804
-66.4683
-66.5649
-66.666
-66.7672
-66.8641
-66.9525
-67.0284
-67.0884
-67.13
-67.1513
-66.2368
-66.2555
-66.2922
-66.3451
-66.4122
-66.4903
-66.5762
-66.6662
-66.7562
-66.8423
-66.9209
-66.9883
-67.0417
-67.0786
-67.0975
-66.2772
-66.2942
-66.3274
-66.3754
-66.4361
-66.507
-66.5848
-66.6663
-66.7478
-66.8259
-66.897
-66.958
-67.0063
-67.0398
-67.0569
-66.3058
-66.3215
-66.3523
-66.3968
-66.4531
-66.5188
-66.5909
-66.6664
-66.7419
-66.8142
-66.88
-66.9366
-66.9813
-67.0123
-67.0281
-66.3235
-66.3384
-66.3677
-66.4101
-66.4636
-66.5261
-66.5947
-66.6664
-66.7383
-66.807
-66.8696
-66.9233
-66.9658
-66.9953
-67.0103
-66.3308
-66.3454
-66.3741
-66.4155
-66.468
-66.5291
-66.5962
-66.6665
-66.7367
-66.804
-66.8652
-66.9178
-66.9594
-66.9882
-67.003
-66.3279
-66.3427
-66.3716
-66.4134
-66.4663
-66.5279
-66.5956
-66.6665
-66.7374
-66.8052
-66.867
-66.92
-66.962
-66.991
-67.0059
-66.3147
-66.3301
-66.3601
-66.4035
-66.4585
-66.5225
-66.5928
-66.6664
-66.7401
-66.8105
-66.8747
-66.9298
-66.9734
-67.0036
-67.019
-66.2909
-66.3073
-66.3394
-66.3857
-66.4443
-66.5127
-66.5878
-66.6664
-66.745
-66.8203
-66.8888
-66.9477
-66.9942
-67.0265
-67.043
-66.2557
-66.2736
-66.3087
-66.3594
-66.4235
-66.4982
-66.5804
-66.6663
-66.7523
-66.8346
-66.9096
-66.974
-67.025
-67.0603
-67.0783
-66.2081
-66.2281
-66.2672
-66.3237
-66.3952
-66.4786
-66.5703
-66.6662
-66.7622
-66.8541
-66.9378
-67.0097
-67.0666
-67.106
-67.1262
-66.1466
-66.1692
-66.2136
-66.2776
-66.3587
-66.4533
-66.5572
-66.666
-66.7749
-66.8792
-66.9742
-67.0558
-67.1204
-67.1652
-67.188
-66.0694
-66.0954
-66.1462
-66.2198
-66.3128
-66.4214
-66.5408
-66.6657
-66.7909
-66.9107
-67.0199
-67.1138
-67.188
-67.2395
-67.2658
-65.9741
-66.0042
-66.0631
-66.1483
-66.2562
-66.382
-66.5204
-66.6654
-66.8105
-66.9496
-67.0763
-67.1853
-67.2715
-67.3312
-67.3618
-65.8579
-65.893
-65.9618
-66.0612
-66.1871
-66.334
-66.4955
-66.6648
-66.8344
-66.9969
-67.1451
-67.2725
-67.3734
-67.4433
-67.479
-65.7174
-65.7585
-65.8391
-65.9557
-66.1033
-66.2757
-66.4653
-66.6641
-66.8633
-67.0542
-67.2284
-67.3782
-67.4968
-67.579
-67.621
-65.5482
-65.5967
-65.6915
-65.8287
-66.0024
-66.2054
-66.4288
-66.663
-66.8979
-67.1231
-67.3286
-67.5054
-67.6455
-67.7426
-67.7922
-65.3455
-65.4026
-65.5144
-65.6762
-65.8813
-66.1208
-66.3847
-66.6615
-66.9392
-67.2056
-67.4489
-67.6582
-67.8241
-67.9391
-67.9979
-65.1031
-65.1705
-65.3026
-65.4938
-65.7362
-66.0195
-66.3317
-66.6594
-66.9883
-67.3041
-67.5927
-67.8411
-68.038
-68.1746
-68.2445
-64.8139
-64.8936
-65.0497
-65.2758
-65.5626
-65.898
-66.2679
-66.6564
-67.0467
-67.4216
-67.7644
-68.0596
-68.2939
-68.4564
-68.5396
-64.4693
-64.5636
-64.7482
-65.0158
-65.3553
-65.7526
-66.1912
-66.6521
-67.1157
-67.5613
-67.9691
-68.3206
-68.5996
-68.7933
-68.8924
-64.0593
-64.1708
-64.3892
-64.7058
-65.1078
-65.5787
-66.0988
-66.6462
-67.1971
-67.7272
-68.2129
-68.6318
-68.9647
-69.1957
-69.3141
-63.572
-63.7037
-63.9619
-64.3365
-64.8124
-65.3705
-65.9876
-66.6377
-67.2929
-67.9241
-68.503
-69.0029
-69.4004
-69.6765
-69.8179
-62.9932
-63.1488
-63.4539
-63.8968
-64.4601
-65.1213
-65.8534
-66.6258
-67.4053
-68.1574
-68.848
-69.4451
-69.9203
-70.2507
-70.42
-62.3064
-62.49
-62.8502
-63.3735
-64.0398
-64.8229
-65.6913
-66.609
-67.5367
-68.4333
-69.2579
-69.9719
-70.5408
-70.9367
-71.1397
-61.4922
-61.7085
-62.1333
-62.7509
-63.5383
-64.4653
-65.495
-66.5853
-67.6896
-68.7591
-69.7447
-70.5994
-71.2814
-71.7565
-72.0004
-60.5278
-60.7823
-61.2824
-62.0105
-62.94
-64.0363
-65.2567
-66.5518
-67.8668
-69.1433
-70.3222
-71.3468
-72.1658
-72.737
-73.0304
-59.3867
-59.6856
-60.2734
-61.1301
-62.2259
-63.521
-64.9665
-66.5046
-68.0706
-69.5952
-71.007
-72.237
-73.2221
-73.9103
-74.2642
-58.0381
-58.3883
-59.0775
-60.0837
-61.3733
-62.9015
-64.6119
-66.4379
-68.3032
-70.1253
-71.8181
-73.2971
-74.4846
-75.3157
-75.7436
-56.4464
-56.8555
-57.6616
-58.8405
-60.3552
-62.1554
-64.1772
-66.3438
-68.5659
-70.7452
-72.7776
-74.5596
-75.9946
-77.0012
-77.5201
-54.5707
-55.047
-55.9869
-57.3642
-59.1388
-61.2553
-63.6421
-66.2111
-68.8584
-71.4671
-73.9111
-76.063
-77.8021
-79.0253
-79.657
-52.3643
-52.9167
-54.0084
-55.612
-57.6851
-60.1676
-62.9804
-66.0239
-69.1778
-72.3032
-75.2475
-77.8529
-79.9677
-81.4601
-82.2324
-49.7743
-50.412
-51.6744
-53.534
-55.9471
-58.8505
-62.1586
-65.7601
-69.5169
-73.2649
-76.8192
-79.9835
-82.5654
-84.3949
-85.3441
-46.7415
-47.4737
-48.9257
-51.0716
-53.8685
-57.2525
-61.133
-65.3885
-69.8622
-74.3613
-78.6616
-82.5185
-85.6857
-87.941
-89.1148
-43.2005
-44.0354
-45.6952
-48.1572
-51.3825
-55.3096
-59.8471
-64.8654
-70.1897
-75.5956
-80.8119
-85.5323
-89.439
-92.2381
-93.7006
-39.0796
-40.0246
-41.9077
-44.7128
-48.4091
-52.9429
-58.2273
-64.1299
-70.4605
-76.9616
-83.3066
-89.1111
-93.9614
-97.4631
-99.3018
-34.3028
-35.3623
-37.48
-40.6497
-44.8542
-50.055
-56.1782
-63.0971
-70.6128
-78.4358
-86.1766
-93.3523
-99.4202
-103.843
-106.18
-28.7902
-29.9655
-32.322
-35.8682
-40.6076
-46.5266
-53.5766
-61.6501
-70.5517
-79.9671
-89.439
-98.3628
-106.021
-111.671
-114.68
-22.4617
-23.7485
-26.3379
-30.2582
-35.542
-42.2129
-50.2642
-59.6279
-70.1337
-81.4591
-93.0818
-104.252
-114.017
-121.333
-125.27
-15.2398
-16.627
-19.4298
-23.7014
-29.5132
-36.9407
-46.0404
-56.8127
-69.1465
-82.7447
-97.0387
-111.116
-123.713
-133.341
-138.594
-7.05481
-8.5229
-11.5019
-16.0753
-22.3626
-30.5074
-40.6553
-52.9133
-67.2812
-83.5469
-101.146
-119.008
-135.472
-148.386
-155.566
2.14938
0.630175
-2.46691
-7.25937
-13.9224
-22.6832
-33.8049
-47.5486
-64.0978
-83.4233
-105.07
-127.872
-149.694
-167.414
-177.523
12.4082
10.8787
7.74507
2.85532
-4.02553
-13.2197
-25.1339
-40.2357
-58.9865
-81.688
-108.19
-137.417
-166.765
-191.725
-206.501
23.7289
22.2407
19.1762
14.3524
7.47751
-1.86762
-14.2493
-30.389
-51.1317
-77.3131
-109.419
-146.876
-186.884
-223.107
-245.74
36.0826
34.6969
31.8287
27.2734
20.6957
11.5929
-0.755139
-17.346
-39.4999
-68.8243
-106.931
-154.564
-209.629
-263.927
-300.694
49.398
48.1821
45.6524
41.5985
35.6669
27.3068
15.6851
-0.439879
-22.8887
-54.2368
-97.8266
-157.091
-232.908
-316.919
-381.181
63.5572
62.5792
60.5339
57.2271
52.3241
45.2852
35.2523
20.8575
-0.0977867
-31.1481
-77.8375
-148.121
-250.496
-383.624
-506.292
78.395
77.7169
76.2909
73.9635
70.4642
65.3422
57.8482
46.7103
29.7033
2.80064
-41.4633
-116.867
-246.726
-457.591
-716.588
93.7029
93.3732
92.6733
91.5131
89.7305
87.046
82.9738
76.6385
66.3757
48.8055
16.5354
-47.7959
-186.7
-498.132
-1106.74
109.239
109.286
109.374
109.494
109.622
109.713
109.67
109.293
108.122
105.018
96.7984
73.0618
-6.86274
-332.297
-1919.53
124.742
125.168
126.053
127.469
129.54
132.471
136.599
142.499
151.209
164.782
187.837
232.938
343.467
709.79
2338.28
139.948
140.731
142.363
144.988
148.859
154.396
162.296
173.751
190.919
217.96
263.563
347.378
516.16
875.367
1554.17
154.61
155.703
157.981
161.64
167.021
174.68
185.521
201.036
223.772
258.245
312.754
402.811
556.61
818.998
1241.47
149.29
60.5233
25.0255
6.72861
-4.31439
-11.6125
-16.7022
-20.3708
-23.0671
-25.0659
-26.5438
-27.6178
-28.3658
-28.839
-29.0683
94.2607
57.5499
30.7936
13.4231
1.89895
-6.05403
-11.7314
-15.8847
-18.9702
-21.2768
-22.9941
-24.249
-25.127
-25.6842
-25.9548
64.7239
47.6631
30.0436
16.0574
5.63233
-2.07577
-7.81876
-12.1401
-15.4139
-17.8967
-19.7652
-21.1418
-22.1108
-22.7283
-23.0288
47.0344
38.1637
26.7702
16.2185
7.47888
0.537869
-4.89334
-9.12272
-12.4069
-14.9431
-16.8778
-18.3175
-19.3384
-19.9923
-20.3114
35.5046
30.4159
22.9119
15.1211
8.07633
2.10302
-2.80246
-6.76165
-9.91923
-12.4071
-14.3338
-15.784
-16.8207
-17.4884
-17.8154
27.5082
24.3453
19.2525
13.5054
7.92965
2.92661
-1.36871
-4.95718
-7.89654
-10.2606
-12.1206
-13.5374
-14.5591
-15.2211
-15.5464
21.708
19.6145
16.0472
11.7707
7.38515
3.2587
-0.42583
-3.60343
-6.27324
-8.46415
-10.2152
-11.565
-12.5471
-13.1873
-13.5031
17.3615
15.907
13.3344
10.1116
6.66062
3.28388
0.165021
-2.60229
-4.98245
-6.97307
-8.58818
-9.84792
-10.7725
-11.3788
-11.6789
14.0248
12.9759
11.0729
8.61099
5.88442
3.12996
0.511738
-1.86998
-3.96214
-5.74269
-7.20791
-8.36348
-9.2187
-9.78281
-10.063
11.4164
10.6376
9.19958
7.29402
5.12753
2.88139
0.69421
-1.33873
-3.15817
-4.73123
-6.0426
-7.08755
-7.86698
-8.38394
-8.64151
9.34864
8.75713
7.65081
6.15816
4.42592
2.59183
0.769567
-0.955732
-2.52527
-3.90146
-5.06223
-5.99595
-6.69746
-7.16512
-7.39883
7.69159
7.23407
6.37024
5.18863
3.79499
2.29404
0.777581
-0.680893
-2.02662
-3.22125
-4.23948
-5.06555
-5.69028
-6.1087
-6.31838
6.35218
5.99311
5.31029
4.3663
3.23853
2.007
0.745318
-0.484347
-1.63287
-2.66351
-3.55013
-4.27492
-4.8263
-5.19716
-5.38349
5.26207
4.9769
4.43165
3.67154
2.7541
1.74089
0.690812
-0.344147
-1.32095
-2.20577
-2.97313
-3.60466
-4.08764
-4.41373
-4.57793
4.36993
4.14127
3.70217
3.08601
2.33615
1.50035
0.625803
-0.244327
-1.07291
-1.82956
-2.49042
-3.03753
-3.4579
-3.74267
-3.88636
3.63654
3.45173