/*--------------------------------*- C++ -*----------------------------------*\
| =========                 |                                                 |
| \\      /  F ield         | OpenFOAM: The Open Source CFD Toolbox           |
|  \\    /   O peration     | Version:  5.x                                   |
|   \\  /    A nd           | Web:      www.OpenFOAM.org                      |
|    \\/     M anipulation  |                                                 |
\*---------------------------------------------------------------------------*/
FoamFile
{
    version     2.0;
    format      ascii;
    class       volScalarField;
    location    "3.3";
    object      gradTy;
}
// * * * * * * * * * * * * * * * * * * * * * * * * * * * * * * * * * * * * * //

dimensions      [0 -1 0 1 0 0 0];

internalField   nonuniform List<scalar> 
6300
(
1100.78
1302.83
1506.33
1712.21
1921.36
2134.56
2352.52
2575.79
2804.71
3039.42
3279.8
3525.41
3775.51
4029.03
4284.66
-0.728312
-2.17013
-3.56632
-4.88264
-6.07946
-7.11045
-7.92233
-8.4561
-8.65046
-8.44766
-7.8019
-6.6895
-5.11888
-3.13751
-0.832476
-1.23034
-3.66766
-6.03276
-8.27071
-10.3169
-12.0944
-13.5129
-14.4705
-14.8583
-14.5708
-13.5206
-11.657
-8.98659
-5.58778
-1.61461
-1.75575
-5.23738
-8.62631
-11.8505
-14.8229
-17.4371
-19.5644
-21.0544
-21.7412
-21.4565
-20.0523
-17.4312
-13.5825
-8.61221
-2.75519
-2.311
-6.89978
-11.3846
-15.6819
-19.6871
-23.2668
-26.2531
-28.4415
-29.5954
-29.4618
-27.8007
-24.4329
-19.2998
-12.5234
-4.43936
-2.89946
-8.66607
-14.3303
-19.8054
-24.9766
-29.6896
-33.7394
-36.8626
-38.737
-38.9941
-37.2556
-33.1995
-26.6599
-17.7418
-6.90576
-3.52023
-10.5348
-17.465
-24.2325
-30.7242
-36.7754
-42.152
-46.5325
-49.4955
-50.5218
-49.0277
-44.4495
-36.3984
-24.8778
-10.4893
-4.16689
-12.4877
-20.7622
-28.9354
-36.912
-44.5356
-51.5604
-57.6195
-62.1902
-64.5696
-63.8836
-59.1718
-49.6061
-34.8814
-15.7008
-4.82656
-14.4866
-24.1608
-33.8345
-43.4527
-52.8941
-61.9342
-70.1945
-77.0756
-81.6822
-82.7647
-78.7473
-67.9726
-49.3404
-23.399
-5.47922
-16.4714
-27.5596
-38.7888
-50.17
-61.6536
-73.0874
-84.148
-94.235
-102.318
-106.745
-105.08
-94.1959
-71.1086
-35.209
-6.09812
-18.3601
-30.8172
-43.5909
-56.7843
-70.4625
-84.6133
-99.0743
-113.398
-126.61
-136.817
-140.63
-132.622
-105.689
-54.6971
-6.65121
-20.0536
-33.758
-47.9729
-62.9136
-78.7983
-95.8285
-114.138
-133.67
-153.907
-173.281
-188.001
-189.973
-164.326
-91.2828
-7.10429
-21.4448
-36.1883
-51.6286
-68.0984
-85.9881
-105.764
-127.977
-153.237
-182.065
-214.4
-248.118
-274.942
-270.358
-175.541
-7.42543
-22.4328
-37.9217
-54.2544
-71.8627
-91.2912
-113.261
-138.769
-169.235
-206.715
-254.135
-315.126
-391.318
-466.621
-427.817
-7.58997
-22.9392
-38.8109
-55.6043
-73.8065
-94.052
-117.22
-144.603
-178.216
-221.423
-280.297
-366.931
-508.579
-776.989
-1399.2
4519.49
4732.27
4943.35
5151.74
5356.49
5556.71
5751.6
5940.46
6122.69
6297.75
6465.23
6624.76
6776.06
6918.89
7053.07
7178.47
7295
7402.61
7501.27
7591.01
7671.88
7743.97
7807.38
7862.25
7908.74
7947.03
7977.3
7999.76
8014.62
8022.08
8022.37
8015.7
8002.29
7982.35
7956.07
7923.67
7885.33
7841.24
7791.6
7736.57
7676.35
7611.09
7540.99
7466.21
7386.9
7303.24
7215.38
7123.45
7027.59
6927.94
6824.6
6717.7
6607.32
6493.58
6376.57
6256.4
6133.17
6006.99
5877.96
5746.2
5611.83
5474.96
5335.71
5194.2
5050.56
4904.91
4757.39
4608.13
4457.3
4305.07
4151.66
3997.29
3842.21
3686.73
3531.16
3375.84
3221.15
3067.46
2915.19
2764.73
2616.5
2470.89
2328.3
2189.09
2053.62
1922.2
1795.07
1672.47
1554.54
1441.37
1.46823
3.61624
5.74387
7.78288
9.67927
11.3961
12.9137
14.2275
15.3447
16.28
17.0521
17.6801
18.1817
18.5717
18.8615
19.0598
19.1728
19.2056
19.1626
19.0485
18.8683
18.6281
18.3344
17.9944
17.6154
17.2051
16.7707
16.3193
15.8574
15.3908
14.9248
14.4634
14.0101
13.567
13.1351
12.7145
12.3045
11.9039
11.5112
11.1253
10.7457
10.3726
10.0071
9.65144
9.30808
8.97976
8.66884
8.37686
8.10416
7.84964
7.61081
7.38396
7.16461
6.94806
6.73004
6.50723
6.2776
6.04058
5.79681
5.54777
5.29507
5.03974
4.78153
4.51835
4.24597
3.95799
3.64627
3.30151
2.91419
2.47563
1.97887
1.41957
0.796452
0.111495
-0.630226
-1.42096
-2.25083
-3.10846
-3.9814
-4.85647
-5.7198
-6.55674
-7.35167
-8.0879
-8.74784
-9.31362
-9.76821
-10.097
-10.2894
-10.3404
2.35635
6.05868
9.7134
13.1979
16.4176
19.3106
21.8474
24.0259
25.8644
27.3937
28.6499
29.6685
30.4809
31.1124
31.5816
31.9018
32.0822
32.1296
32.0505
31.852
31.5423
31.1314
30.6305
30.0518
29.4083
28.7126
27.9775
27.2147
26.4354
25.6496
24.866
24.092
23.333
22.5926
21.8726
21.1728
20.4915
19.826
19.1734
18.5311
17.8979
17.2741
16.6618
16.0649
15.4883
14.9374
14.4168
13.9296
13.4768
13.0566
12.6645
12.2936
11.9354
11.5813
11.2233
10.8551
10.4734
10.0773
9.66877
9.25119
8.82841
8.40331
7.97634
7.54451
7.10073
6.63382
6.12909
5.56964
4.93801
4.21813
3.39716
2.46705
1.42539
0.275731
-0.972803
-2.3064
-3.70768
-5.1569
-6.63286
-8.11345
-9.57574
-10.9956
-12.3471
-13.6022
-14.7306
-15.7007
-16.4816
-17.0463
-17.3749
-17.4578
3.11201
8.57028
13.9287
18.9951
23.6271
27.7389
31.2978
34.3148
36.8304
38.9018
40.5908
41.9549
43.0419
43.8878
44.5175
44.9465
45.1841
45.237
45.1118
44.8169
44.3634
43.7656
43.0398
42.2042
41.2775
40.2785
39.2254
38.1353
37.0242
35.9065
34.7951
33.7003
32.6304
31.5905
30.5826
29.606
28.6572
27.7311
26.8221
25.9254
25.0382
24.1606
23.2959
22.4507
21.6332
20.8529
20.118
19.4344
18.8041
18.2248
17.6892
17.1862
16.7019
16.2218
15.7325
15.2241
14.6912
14.1335
13.5551
12.9634
12.3665
11.7709
11.1794
10.5891
9.99007
9.36531
8.69191
7.94289
7.09006
6.10729
4.97372
3.67621
2.21088
0.58337
-1.1919
-3.0934
-5.09457
-7.16594
-9.27677
-11.3959
-13.492
-15.532
-17.4807
-19.2984
-20.9407
-22.3594
-23.5056
-24.3349
-24.8138
-24.9254
3.68836
11.2256
18.5644
25.4177
31.5856
36.9631
41.5289
45.3256
48.4361
50.9608
52.9999
54.6404
55.95
56.9749
57.7427
58.2668
58.5522
58.6011
58.4177
58.0102
57.3927
56.5842
55.6076
54.4879
53.2512
51.9227
50.5269
49.0865
47.6228
46.155
44.7003
43.2734
41.8851
40.5425
39.248
37.9995
36.7905
35.612
34.4536
33.3065
32.1651
31.0288
29.9026
28.7967
27.7252
26.7034
25.7458
24.8627
24.0585
23.3303
22.6673
22.0522
21.4629
20.8758
20.2696
19.6286
18.945
18.2197
17.4612
16.6836
15.9029
15.1328
14.3813
13.6468
12.9167
12.1672
11.364
10.466
9.42955
8.21397
6.78669
5.12741
3.23027
1.10416
-1.22885
-3.73649
-6.37997
-9.11773
-11.9082
-14.7114
-17.4883
-20.1997
-22.8024
-25.2465
-27.4723
-29.4102
-30.9857
-32.1278
-32.7809
-32.9165
4.05149
14.167
23.9
32.8274
40.6829
47.3567
52.868
57.3253
60.8859
63.7199
65.9836
67.8035
69.2688
70.4331
71.3198
71.9319
72.2617
72.301
72.0471
71.5071
70.6982
69.6462
68.3825
66.9415
65.3581
63.6652
61.8938
60.0727
58.2284
56.3857
54.5671
52.7919
51.0753
49.4266
47.8487
46.3373
44.8814
43.4651
42.0703
40.6809
39.2861
37.8838
36.4813
35.0947
33.7468
32.463
31.2676
30.1787
29.205
28.3432
27.5779
26.8824
26.2219
25.5586
24.8582
24.0959
23.2603
22.3548
21.3959
20.4095
19.425
18.4693
17.5597
16.699
15.8726
15.0473
14.1736
13.1894
12.028
10.6265
8.93473
6.92206
4.58031
1.92383
-1.01341
-4.18303
-7.5287
-10.9927
-14.5206
-18.0636
-21.5783
-25.0228
-28.3517
-31.5084
-34.4174
-36.982
-39.0891
-40.624
-41.4928
-41.6455
4.19245
17.6592
30.3954
41.7808
51.4817
59.4239
65.7243
70.616
74.3818
77.2999
79.6065
81.4769
83.0211
84.2909
85.2924
86.0033
86.3898
86.4229
86.0885
85.3913
84.3539
83.0129
81.4126
79.6006
77.6226
75.5207
73.3326
71.0924
68.832
66.582
64.3714
62.2265
60.1679
58.2091
56.3539
54.5953
52.9155
51.2874
49.6797
48.0631
46.4181
44.7393
43.0373
41.3374
39.6762
38.0957
36.6363
35.3292
34.1903
33.2174
32.3884
31.6626
30.9852
30.295
29.5361
28.6688
27.6764
26.567
25.3705
24.1326
22.906
21.7396
20.6678
19.7021
18.8269
17.9975
17.1422
16.1682
14.9724
13.457
11.545
9.19069
6.3837
3.14796
-0.463164
-4.37583
-8.50681
-12.7753
-17.1107
-21.4564
-25.7687
-30.0118
-34.1486
-38.1262
-41.8579
-45.2119
-48.0157
-50.0787
-51.2351
-51.3947
4.16109
22.2034
38.8358
53.1591
64.8126
73.8545
80.6079
85.5268
89.0971
91.7591
93.8562
95.6186
97.1673
98.5337
99.6823
100.54
101.025
101.073
100.651
99.7638
98.4456
96.7514
94.7464
92.4971
90.0642
87.4992
84.8451
82.1398
79.4192
76.7201
74.08
71.5352
69.1155
66.8411
64.7186
62.7386
60.8735
59.0792
57.3005
55.4849
53.5974
51.6269
49.589
47.523
45.488
43.5526
41.7845
40.2358
38.9355
37.8831
37.0487
36.3715
35.7654
35.129
34.3686
33.4203
32.2596
30.9033
29.4032
27.838
26.2987
24.8723
23.6214
22.5736
21.7137
20.9833
20.2802
19.465
18.3757
16.857
14.7908
12.1098
8.80319
4.91138
0.52014
-4.25537
-9.28793
-14.4623
-19.6866
-24.8981
-30.0593
-35.1543
-40.175
-45.0982
-49.8424
-54.2341
-58.0087
-60.8385
-62.4124
-62.56
4.14958
28.7775
50.6007
68.3809
81.9035
91.5793
98.1317
102.377
105.118
107.029
108.585
110.066
111.574
113.088
114.488
115.612
116.288
116.396
115.88
114.754
113.076
110.935
108.429
105.655
102.693
99.6029
96.4286
93.2064
89.9726
86.7703
83.6486
80.6607
77.8508
75.2515
72.8751
70.7133
68.7267
66.8456
64.9712
63.0073
60.8934
58.6085
56.1779
53.6611
51.1534
48.7657
46.6135
44.7819
43.3204
42.2319
41.4794
40.9752
40.5862
40.1384
39.4685
38.4747
37.1215
35.4437
33.5263
31.5032
29.5259
27.7489
26.2795
25.1715
24.411
23.9268
23.5765
23.1537
22.3941
21.0424
18.919
15.9271
12.0626
7.3913
2.05426
-3.76718
-9.86712
-16.0796
-22.2828
-28.4139
-34.4468
-40.4053
-46.3431
-52.3286
-58.3352
-64.1452
-69.3628
-73.407
-75.6433
-75.7347
4.73717
39.3898
68.1866
89.7328
104.533
113.801
118.977
121.395
122.333
122.811
123.422
124.471
125.97
127.804
129.69
131.328
132.367
132.615
131.988
130.538
128.372
125.641
122.498
119.082
115.505
111.827
108.08
104.288
100.479
96.7032
93.0235
89.5285
86.2815
83.3395
80.7215
78.4344
76.4269
74.601
72.7693
70.7447
68.4341
65.7988
62.8896
59.7847
56.6449
53.6384
50.9795
48.7937
47.1671
46.0955
45.5512
45.4118
45.4903
45.4665
45.0332
44.0455
42.4492
40.3275
37.8005
35.1007
32.4635
30.1812
28.4156
27.2674
26.7089
26.6761
26.9758
27.3256
27.2638
26.3377
24.2964
20.9998
16.4824
10.8288
4.28482
-2.87893
-10.2851
-17.7112
-24.9833
-32.0719
-38.9417
-45.6861
-52.4427
-59.5287
-67.1109
-74.909
-82.406
-88.5781
-91.9622
-91.8679
7.71798
58.4342
96.2127
120.798
135.127
141.918
143.792
142.546
140.21
138.402
137.629
138.233
139.884
142.446
145.253
147.906
149.588
150.098
149.283
147.356
144.482
140.946
136.959
132.746
128.465
124.152
119.798
115.399
110.941
106.5
102.135
98.0419
94.2762
90.964
88.0946
85.756
83.8686
82.3681
80.8485
78.8969
76.4458
73.3869
69.8864
65.9617
61.9476
58.0137
54.6677
52.0033
50.2177
49.2028
49.0432
49.5378
50.5448
51.3871
51.3996
50.4957
48.5365
45.7982
42.3263
38.611
34.8929
31.8721
29.6655
28.5169
28.2525
28.9493
30.3054
32.093
33.3806
33.2413
31.4838
27.8329
22.5408
15.5508
7.41051
-1.639
-10.6716
-19.5621
-27.9454
-36.0422
-43.6147
-50.9468
-58.0654
-66.0118
-75.5731
-86.1037
-97.3545
-107.761
-113.288
-112.582
19.3745
96.1095
143.237
166.634
176.574
177.111
173.101
165.262
157.327
152.499
149.851
150.484
152.482
156.735
161.036
165.88
168.493
169.487
168.176
165.535
161.542
156.9
151.743
146.506
141.468
136.535
131.576
126.595
121.373
116.186
110.854
106.081
101.615
97.9484
94.7005
92.4256
90.7506
90.1599
89.5475
87.7659
85.3302
81.6081
77.4916
72.265
67.1324
61.5397
57.372
53.9449
52.1561
51.0759
51.5908
52.9231
55.834
58.4999
59.0832
58.4628
55.7431
52.3226
47.2
42.1227
36.3154
32.3879
29.3894
28.4902
28.4092
30.2703
33.0108
37.5775
41.5493
42.4725
41.3951
37.0266
31.0415
21.927
11.843
-0.425594
-11.2649
-22.1452
-31.3216
-40.769
-48.6349
-56.516
-62.4965
-70.1701
-82.6395
-96.2614
-113.518
-133.971
-143.587
-140.803
65.3926
176.419
224.435
231.845
231.564
218.849
207.923
188.116
169.968
163.456
157.347
160.77
161.834
170.953
176.034
187.064
189.731
192.194
188.983
185.659
179.539
173.592
166.64
159.977
154.322
148.954
143.386
138.136
131.754
126.081
118.766
113.678
107.803
104.329
99.9049
98.2303
96.0708
97.9823
99.9295
97.5759
96.0666
90.3967
86.6947
78.4325
72.9789
63.0131
59.0093
53.5267
53.0732
50.6514
52.9604
54.0346
61.4754
68.6107
68.4993
69.452
63.9579
61.297
52.0077
46.6846
35.0302
31.5649
26.089
27.2843
25.7684
30.3236
33.0854
43.9172
54.107
54.583
56.0444
48.5468
44.0472
29.6983
19.4202
-1.27114
-11.8002
-27.1823
-34.3082
-47.7735
-53.6334
-64.8221
-64.4896
-67.4219
-88.0457
-101.184
-125.08
-175.784
-191.74
-181.915
266.937
347.46
364.101
308.131
304.456
258.01
255.535
208.578
165.852
173.833
151.119
174.45
159.585
190.986
182.468
220.29
211.261
223.072
209.952
209.808
197.285
191.734
181.123
171.995
166.762
161.662
154.74
151.305
141.116
138.342
123.473
122.406
110.534
112.078
101.15
104.734
95.5291
105.754
116.505
106.171
112.795
96.3522
102.465
80.5561
85.3237
55.9019
62.7764
45.8674
56.825
43.4151
56.1087
45.9787
67.5569
89.1573
76.3834
89.7252
68.0931
79.8167
51.1046
60.3636
21.9528
33.6374
13.1822
29.9828
14.385
32.9595
21.5393
51.1813
80.652
65.2742
83.5943
55.75
71.2354
31.6078
41.9926
-16.7501
-5.34664
-44.1076
-28.1653
-65.7287
-50.9573
-89.7176
-61.7799
-39.197
-104.23
-90.6139
-98.0335
-267.632
-277.015
-245.691
1262.02
610.489
608.326
309.108
438.934
233.848
367.198
222.948
88.7138
228.408
78.5833
243.13
90.7102
268.501
122.167
320.976
202.78
289.85
212.23
251.782
204.989
217.157
193.469
178.403
179.005
176.993
161.068
174.198
139.798
168.015
108.3
146.693
93.9409
137.784
81.4965
129.65
67.0059
112.763
163.442
90.3432
162.735
69.8251
158.585
44.2625
146.898
-3.4788
100.789
-1.92273
95.663
-1.41329
92.1202
-7.74002
73.6037
159.2
46.6581
160.357
24.1931
156.561
-4.48007
142.684
-63.2649
81.988
-53.376
79.3315
-46.2097
78.7845
-49.1396
58.6884
171.775
27.4369
177.617
0.554873
177.783
-38.5037
164.105
-133.242
73.3411
-139.808
55.0239
-159.048
28.8033
-210.659
-51.3603
115.194
-233.668
-49.7528
162.551
-590.188
-420.903
-351.537
1322.16
1198.93
1082.35
972.078
867.734
768.847
674.904
585.368
499.692
417.328
337.736
260.388
184.768
110.374
36.7103
-10.2424
-9.94591
-9.48384
-8.88749
-8.1907
-7.42599
-6.62174
-5.80069
-4.97954
-4.16924
-3.37573
-2.60091
-1.84355
-1.10015
-0.36569
-17.2812
-16.7601
-15.9554
-14.9241
-13.7267
-12.4207
-11.055
-9.66808
-8.28732
-6.93017
-5.60553
-4.31551
-3.05711
-1.82365
-0.606071
-24.6478
-23.8578
-22.6534
-21.1263
-19.3712
-17.475
-15.5095
-13.5291
-11.5714
-9.65849
-7.80063
-5.99844
-4.24567
-2.53126
-0.841006
-32.5014
-31.3692
-29.6739
-27.5563
-25.1566
-22.5983
-19.9785
-17.3675
-14.8104
-12.3317
-9.93996
-7.63187
-5.39584
-3.21467
-1.06769
-41.0336
-39.4433
-37.1163
-34.2677
-31.1005
-27.7826
-24.4385
-21.1517
-17.9708
-14.9178
-11.9955
-9.19316
-6.49106
-3.86385
-1.28276
-50.4881
-48.2535
-45.0797
-41.297
-37.1945
-32.9926
-28.841
-24.8297
-21.0029
-17.373
-13.931
-10.6541
-7.5113
-4.46686
-1.48226
-61.1875
-58.0022
-53.6515
-48.6456
-43.3873
-38.1517
-33.1029
-28.3228
-23.8379
-19.6402
-15.7012
-11.9807
-8.43313
-5.00996
-1.66166
-73.5745
-68.9159
-62.8781
-56.2459
-49.557
-43.1236
-37.0956
-31.5201
-26.3854
-21.6486
-17.2525
-13.1343
-9.23043
-5.47814
-1.81606
-88.2629
-81.2082
-72.6984
-63.9025
-55.4706
-47.6896
-40.6353
-34.2764
-28.5346
-23.316
-18.5256
-14.0734
-9.87604
-5.85601
-1.9405
-106.071
-94.9538
-82.8037
-71.1941
-60.7325
-51.5282
-43.479
-36.415
-30.1603
-24.5548
-19.4602
-14.7576
-10.3442
-6.1293
-2.03039
-127.893
-109.731
-92.3671
-77.3366
-64.7365
-54.2109
-45.3368
-37.744
-31.1362
-25.2826
-20.0026
-15.1522
-10.6137
-6.28656
-2.08212
-153.793
-123.708
-99.5963
-81.0477
-66.665
-55.2414
-45.9129
-38.0874
-31.3576
-25.4364
-20.1149
-15.235
-10.6715
-6.32108
-2.09362
-179.094
-131.712
-101.26
-80.592
-65.6335
-54.1759
-44.9853
-37.3347
-30.7698
-24.9902
-19.7855
-15.001
-10.5162
-6.23256
-2.06489
-179.126
-122.781
-93.1407
-74.425
-61.1001
-50.8428
-42.5172
-35.4957
-29.3965
-23.9685
-19.0357
-14.467
-10.1595
-6.028
-1.99824
-7.59874
-22.9651
-38.8525
-55.6601
-73.875
-94.1337
-117.321
-144.743
-178.45
-221.901
-281.442
-369.966
-517.037
-799.697
-1443.17
-7.47745
-22.5896
-38.186
-54.6333
-72.3719
-91.964
-114.166
-140.045
-171.171
-209.927
-259.979
-326.63
-414.955
-512.929
-488.53
-7.24693
-21.8777
-36.9283
-52.7094
-69.5813
-87.9813
-108.457
-131.705
-158.593
-190.109
-226.987
-268.243
-306.17
-311.139
-195.456
-6.92126
-20.8742
-35.1633
-50.0277
-65.7292
-82.5567
-100.823
-120.835
-142.8
-166.565
-190.954
-212.167
-220.272
-193.134
-93.5126
-6.51886
-19.6373
-32.9984
-46.7646
-61.0949
-76.1327
-91.9757
-108.608
-125.756
-142.587
-157.125
-165.19
-158.847
-125.464
-52.2654
-6.06036
-18.2317
-30.5522
-43.1095
-55.9689
-69.1491
-82.58
-96.0234
-108.931
-120.201
-127.792
-128.219
-116.199
-85.4441
-32.7764
-5.56665
-16.7226
-27.9412
-39.2446
-50.6198
-61.9911
-73.1753
-83.8102
-93.2428
-100.368
-103.434
-99.8916
-86.5602
-60.6407
-22.2351
-5.05718
-15.1699
-25.2712
-35.3296
-45.2732
-54.9627
-64.1517
-72.4316
-79.1562
-83.3547
-83.6641
-78.3617
-65.6626
-44.508
-15.9052
-4.5488
-13.6252
-22.6308
-31.4941
-40.103
-48.2815
-55.7593
-62.1329
-66.8233
-69.0414
-67.791
-61.9679
-50.6364
-33.5475
-11.8029
-4.05514
-12.1295
-20.0892
-27.8351
-35.2314
-42.0869
-48.1334
-53.0027
-56.2071
-57.1363
-55.0929
-49.3991
-39.6084
-25.8198
-8.99297
-3.58644
-10.7133
-17.696
-24.4189
-30.7352
-36.4537
-41.3249
-45.0286
-47.1707
-47.2953
-44.9295
-39.6753
-31.3564
-20.2018
-6.98797
-3.14971
-9.39703
-15.4832
-21.2848
-26.6539
-31.4089
-35.3269
-38.1389
-39.5351
-39.1834
-36.7719
-32.0794
-25.0736
-16.0139
-5.51217
-2.74914
-8.19264
-13.468
-18.4509
-22.9988
-26.9454
-30.0967
-32.2322
-33.113
-32.5018
-30.1981
-26.09
-20.217
-12.8272
-4.3993
-2.38662
-7.10495
-11.6559
-15.919
-19.7612
-23.0339
-25.5718
-27.1967
-27.727
-26.9955
-24.8772
-21.326
-16.4137
-10.3613
-3.54384
-2.06219
-6.13348
-10.0436
-13.6793
-16.9191
-19.6325
-21.6807
-22.9212
-23.2171
-22.452
-20.5514
-17.507
-13.402
-8.42664
-2.87604
-1.77464
-5.27388
-8.62189
-11.7143
-14.4424
-16.693
-18.3505
-19.3016
-19.4438
-18.6971
-17.0196
-14.4245
-10.9948
-6.89139
-2.34816
-1.52182
-4.51928
-7.3776
-10.0023
-12.2973
-14.1653
-15.5106
-16.2437
-16.2877
-15.5884
-14.125
-11.9214
-9.05535
-5.66155
-1.92657
-1.30108
-3.86128
-6.29548
-8.51934
-10.4486
-12.0004
-13.0959
-13.6641
-13.6477
-13.0104
-11.7444
-9.87839
-7.48233
-4.66863
-1.58701
-1.10945
-3.29076
-5.35941
-7.24087
-8.86199
-10.1525
-11.0473
-11.4904
-11.4389
-10.8688
-9.78045
-8.20338
-6.1993
-3.86173
-1.3116
-0.943929
-2.79845
-4.55329
-6.14317
-7.50493
-8.57916
-9.31239
-9.66006
-9.59013
-9.08708
-8.15583
-6.82488
-5.14781
-3.20244
-1.08692
-0.801552
-2.37536
-3.86172
-5.20384
-6.34752
-7.24263
-7.84517
-8.11969
-8.0421
-7.60267
-6.80873
-5.68669
-4.28263
-2.66129
-0.902738
-0.679515
-2.01299
-3.27028
-4.4023
-5.36268
-6.10924
-6.60571
-6.82379
-6.7453
-6.3644
-5.68947
-4.7443
-3.56833
-2.2154
-0.751138
-0.575222
-1.70351
-2.76583
-3.71993
-4.52631
-5.14948
-5.55956
-5.73382
-5.65848
-5.3303
-4.75783
-3.96218
-2.97689
-1.84683
-0.625929
-0.486314
-1.43983
-2.3365
-3.14014
-3.81713
-4.3377
-4.67713
-4.81714
-4.74723
-4.46581
-3.98115
-3.31173
-2.48599
-1.54132
-0.522219
-0.410676
-1.21561
-1.97179
-2.64827
-3.21657
-3.65168
-3.93316
-4.04623
-3.98283
-3.74245
-3.33276
-2.76981
-2.07766
-1.28749
-0.436103
-0.346435
-1.02526
-1.6624
-2.23151
-2.70848
-3.07233
-3.30611
-3.39785
-3.3413
-3.13663
-2.7908
-2.31761
-1.73739
-1.07617
-0.364442
-0.291943
-0.863856
-1.40024
-1.87873
-2.27894
-2.58328
-2.7777
-2.85243
-2.80263
-2.62884
-2.33725
-1.93971
-1.45335
-0.899909
-0.304697
-0.245766
-0.727118
-1.17828
-1.5803
-1.91597
-2.17056
-2.33239
-2.39348
-2.35005
-2.20283
-1.95728
-1.62349
-1.2159
-0.752655
-0.2548
-0.206659
-0.611343
-0.99044
-1.32792
-1.60931
-1.82224
-1.95702
-2.00711
-1.96953
-1.8451
-1.63857
-1.35852
-1.01709
-0.62943
-0.213057
-0.173545
-0.513334
-0.831493
-1.1145
-1.35018
-1.52818
-1.64044
-1.68161
-1.64931
-1.54437
-1.37091
-1.13618
-0.850368
-0.526145
-0.178077
-0.1455
-0.430343
-0.696951
-0.933946
-1.1311
-1.27976
-1.37324
-1.40712
-1.37952
-1.29123
-1.14578
-0.949297
-0.71032
-0.439417
-0.14871
-0.12173
-0.360014
-0.582971
-0.78105
-0.945688
-1.06966
-1.14742
-1.17532
-1.15186
-1.07779
-0.956085
-0.791923
-0.592439
-0.36644
-0.124003
-0.101555
-0.300327
-0.486263
-0.651374
-0.788509
-0.891657
-0.956208
-0.979176
-0.959356
-0.897409
-0.795872
-0.659073
-0.492968
-0.304878
-0.103164
-0.0843897
-0.249553
-0.404015
-0.541123
-0.65493
-0.740449
-0.79387
-0.812743
-0.796099
-0.744521
-0.660141
-0.546572
-0.408761
-0.252774
-0.085529
-0.0697353
-0.20621
-0.333817
-0.44705
-0.540991
-0.611526
-0.655522
-0.670971
-0.657098
-0.614407
-0.544678
-0.450905
-0.337174
-0.208488
-0.0705413
-0.0571615
-0.169023
-0.273599
-0.366371
-0.443304
-0.501032
-0.536993
-0.549558
-0.538107
-0.503066
-0.445909
-0.369094
-0.275971
-0.170632
-0.0577308
-0.046297
-0.136893
-0.221579
-0.296688
-0.358954
-0.405649
-0.434709
-0.444822
-0.435494
-0.407083
-0.360788
-0.298606
-0.22325
-0.138027
-0.046698
-0.0368196
-0.108868
-0.176208
-0.235923
-0.285413
-0.322512
-0.345581
-0.353582
-0.346131
-0.323517
-0.286698
-0.237267
-0.177378
-0.109662
-0.0371005
-0.028447
-0.0841101
-0.136133
-0.182257
-0.220477
-0.249117
-0.266915
-0.273073
-0.267296
-0.249813
-0.221366
-0.183188
-0.136943
-0.08466
-0.0286415
-0.020929
-0.0618806
-0.100152
-0.134081
-0.16219
-0.18325
-0.196332
-0.20085
-0.196589
-0.18372
-0.162792
-0.13471
-0.100699
-0.0622523
-0.0210604
-0.0140402
-0.0415123
-0.0671855
-0.0899449
-0.108799
-0.122923
-0.131695
-0.134721
-0.13186
-0.123225
-0.109185
-0.0903479
-0.0675364
-0.0417505
-0.0141244
-0.00757369
-0.0223931
-0.0362424
-0.0485203
-0.0586923
-0.0663129
-0.0710463
-0.0726807
-0.0711386
-0.0664815
-0.0589079
-0.0487458
-0.0364387
-0.0225264
-0.00762083
-0.00133494
-0.00394748
-0.00639035
-0.00855812
-0.0103567
-0.0117073
-0.0125498
-0.0128459
-0.0125805
-0.0117634
-0.0104285
-0.00863316
-0.00645568
-0.00399182
-0.00135062
0.004864
0.0143803
0.0232707
0.0311477
0.0376678
0.0425456
0.0455673
0.0465991
0.0455944
0.0425953
0.0377313
0.0312142
0.0233285
0.0144196
0.00487789
0.0112099
0.0331428
0.0536353
0.0717958
0.0868324
0.0980874
0.105066
0.107458
0.105154
0.0982486
0.0870388
0.0720117
0.0538232
0.0332703
0.0112551
0.017894
0.0529052
0.0856191
0.114613
0.138623
0.156598
0.167749
0.171578
0.167909
0.156891
0.138997
0.115004
0.0859597
0.0531364
0.0179758
0.0251174
0.0742628
0.120186
0.160891
0.194603
0.219848
0.235515
0.240905
0.235766
0.220307
0.19519
0.161504
0.12072
0.0746254
0.0252457
0.0330973
0.0978577
0.158376
0.212023
0.256462
0.289749
0.310416
0.317541
0.310788
0.290429
0.257332
0.212932
0.159168
0.0983952
0.0332875
0.0420731
0.124398
0.201336
0.269549
0.326065
0.368412
0.394721
0.403814
0.395259
0.369394
0.327322
0.270863
0.202481
0.125175
0.042348
0.0523134
0.154679
0.250356
0.335195
0.405506
0.45821
0.490979
0.50234
0.491747
0.459613
0.407302
0.337073
0.251991
0.155789
0.0527059
0.0641237
0.189604
0.306899
0.41093
0.497172
0.56185
0.602102
0.61611
0.603192
0.563842
0.499722
0.413596
0.309221
0.19118
0.064681
0.0778551
0.230213
0.372652
0.499015
0.603811
0.68245
0.731446
0.748575
0.732989
0.68527
0.60742
0.50279
0.375939
0.232444
0.0786442
0.0939141
0.277709
0.449568
0.602075
0.728612
0.823633
0.882915
0.903754
0.885098
0.82762
0.733714
0.607411
0.454214
0.280863
0.0950297
0.112774
0.333492
0.539919
0.723168
0.875294
0.989629
1.06108
1.08636
1.06416
0.995262
0.882502
0.730706
0.546484
0.337948
0.11435
0.134986
0.399199
0.646364
0.865871
1.04822
1.1854
1.2713
1.30192
1.27565
1.19336
1.0584
0.876516
0.655635
0.405491
0.137211
0.161196
0.476742
0.772013
1.03438
1.25249
1.41679
1.5199
1.55699
1.52604
1.42802
1.26686
1.04941
0.785103
0.485626
0.164339
0.19216
0.568361
0.920513
1.2336
1.49413
1.69066
1.81433
1.85929
1.82301
1.70652
1.51442
1.25483
0.938993
0.580904
0.196597
0.228761
0.676678
1.09613
1.46933
1.78021
2.01512
2.16343
2.218
2.17568
2.03751
1.80886
1.49929
1.12222
0.694387
0.235026
0.272032
0.804758
1.30387
1.74832
2.11903
2.39972
2.5776
2.64399
2.59489
2.43132
2.15947
1.79061
1.34071
0.82976
0.280876
0.323175
0.956173
1.54957
2.0785
2.52035
2.85571
3.06917
3.15016
3.09358
2.90032
2.57745
2.13821
1.60158
0.991471
0.335661
0.383588
1.13508
1.84004
2.46914
2.99563
3.39633
3.65273
3.75185
3.68719
3.4593
3.07622
2.55344
1.91346
1.18492
0.401217
0.454889
1.3463
2.18318
2.93103
3.55823
4.03716
4.34548
4.46726
4.39412
4.12604
3.672
3.05004
2.28683
1.41666
0.47978
0.538941
1.59539
2.58812
3.4767
4.22377
4.79644
5.16774
5.31802
5.23639
4.9219
4.38437
3.6447
2.73447
1.69474
0.574088
0.637878
1.88871
3.06539
4.12062
5.01039
5.69555
6.14346
6.3298
6.24036
5.87263
5.2371
4.3578
3.27202
2.029
0.687509
0.75412
2.23351
3.62699
4.87942
5.93909
6.75939
7.3008
7.53307
7.43753
7.0093
6.25909
5.21426
3.91874
2.43162
0.824214
0.890392
2.63797
4.28651
5.77205
7.03398
8.01687
8.67278
8.96395
8.86571
8.36954
7.48565
6.24478
4.6985
2.91777
0.9894
1.04972
3.11118
5.05921
6.81995
8.32261
9.50137
10.298
10.6652
10.5702
9.99898
8.96009
7.48736
5.64105
3.50644
1.1896
1.23542
3.66316
5.96194
8.04705
9.83612
11.2512
12.2215
12.6874
12.6053
11.9531
10.7358
8.98933
6.78377
4.22163
1.4331
1.45103
4.30467
7.01304
9.47967
11.6093
13.3098
14.4951
15.09
15.0362
14.2998
12.8787
10.8101
8.17409
5.09403
1.73051
1.70028
5.04703
8.23197
11.1463
13.6805
15.7261
17.1787
17.943
17.9411
17.1218
15.4714
13.0248
9.87272
6.16326
2.09563
1.98689
5.90173
9.6388
13.0767
16.0909
18.5542
20.34
21.3281
21.4137
20.5208
18.6169
15.7295
11.9583
7.48119
2.54659
2.31442
6.87985
11.2533
15.3014
18.8838
21.8527
24.0553
25.3396
25.5657
24.6217
22.4453
19.0477
14.5342
9.11676
3.10765
2.68599
7.99126
13.0937
17.8494
22.1026
25.6833
28.4082
30.086
30.5301
29.5783
27.1218
23.1406
17.7378
11.1632
3.81189
3.10386
9.24346
15.1748
20.7463
25.7884
30.1081
33.4879
35.689
36.4637
35.5796
32.8571
28.2207
21.755
13.7489
4.70534
3.56903
10.6402
17.5057
24.0108
29.9756
35.1855
39.3861
42.2824
43.5492
42.8573
39.9212
34.5711
26.8418
17.0549
5.85374
4.0806
12.1799
20.0867
27.6505
34.6868
40.9637
46.1899
50.0071
51.9946
51.6933
48.6615
42.5736
33.3574
21.3431
7.35369
4.63516
13.8531
22.9058
31.6563
39.9252
47.4715
53.9718
59.0022
62.0294
62.4252
59.524
52.7483
41.816
27.0027
9.35221
5.2261
15.6409
25.9348
35.9964
45.6652
54.7054
62.7742
69.388
73.8912
75.4464
73.0768
65.8093
52.9697
34.6324
12.0826
5.84295
17.5127
29.1248
40.609
51.8416
62.6136
72.5869
81.2393
87.7999
91.1929
90.0306
82.7396
67.9408
45.1875
15.9346
6.47101
19.4244
32.4036
45.3962
58.3377
71.076
83.3165
94.5428
103.908
110.102
111.24
104.883
88.4356
60.2559
21.6034
7.09112
21.3181
35.673
50.2185
64.9747
79.8839
94.7499
109.138
122.218
132.522
137.654
134.034
117.077
82.5967
30.435
7.68015
23.1228
38.8099
54.8942
71.5052
88.7214
106.515
124.643
142.453
158.534
170.145
172.445
157.888
117.216
45.3137
8.21198
24.7576
41.6708
59.2038
77.6152
97.158
118.046
140.367
163.89
187.649
209.101
222.561
216.833
173.522
73.196
8.65929
26.1371
44.101
62.9033
82.939
104.66
128.582
155.256
185.162
218.366
253.607
286.002
301.875
269.421
133.068
8.99598
27.1789
45.9487
65.746
87.0919
110.634
137.205
167.9
204.142
247.668
300.086
360.915
420.477
437.47
283.068
9.20005
27.8129
47.0827
67.5131
89.7196
114.503
142.964
176.69
218.064
270.792
340.724
436.706
568.639
724.542
718.992
9.25635
27.9906
47.4104
68.0466
90.5573
115.818
145.067
180.168
224.099
281.968
363.271
487.53
700.152
1123.73
2149.66
9.15876
27.6921
46.8931
67.2779
89.4852
114.362
143.105
177.512
220.455
276.869
355.985
476.987
685.165
1104.61
2134.36
8.91124
26.9299
45.5535
65.2434
86.5587
110.221
137.21
168.928
207.455
256.002
319.611
405.903
523.458
661.675
654.508
8.52746
25.7474
43.4732
62.0798
82.0023
103.768
128.032
155.613
187.495
224.676
267.483
313.108
347.4
319.693
78.712
-113.691
-92.3499
-76.436
-64.172
-54.3244
-46.1394
-39.1438
-33.0252
-27.5671
-22.6117
-18.0395
-13.7561
-9.68331
-5.75428
-1.90893
-42.5967
-58.8828
-58.029
-52.8611
-46.8344
-40.925
-35.3903
-30.2649
-25.5134
-21.0811
-16.9105
-12.9468
-9.13937
-5.44081
-1.80652
-19.3537
-37.3179
-42.6171
-42.1461
-39.2626
-35.4502
-31.3523
-27.2445
-23.2379
-19.3686
-15.6375
-12.029
-8.51973
-5.08267
-1.68935
-10.5154
-24.5479
-31.2119
-33.1059
-32.3355
-30.1731
-27.321
-24.1536
-20.8668
-17.5599
-14.2793
-11.0422
-7.84983
-4.6941
-1.56199
-6.53691
-16.8945
-23.119
-25.9158
-26.3747
-25.3748
-23.5082
-21.1453
-18.5096
-15.7328
-12.8906
-10.0243
-7.15442
-4.28908
-1.42898
-4.44463
-12.1112
-17.4063
-20.3488
-21.4268
-21.1782
-20.0399
-18.3262
-16.2501
-13.9511
-11.5186
-9.00868
-6.4558
-3.88039
-1.29447
-3.20138
-8.97469
-13.3273
-16.0764
-17.3998
-17.5992
-16.9711
-15.7587
-14.1452
-12.2618
-10.2001
-8.02288
-5.77276
-3.47895
-1.16205
-2.3952
-6.82469
-10.3616
-12.7939
-14.1533
-14.5947
-14.3078
-13.4697
-12.2276
-10.6963
-8.96186
-7.08761
-5.12002
-3.0935
-1.03461
-1.83963
-5.29448
-8.16289
-10.2563
-11.5441
-12.096
-12.0271
-11.4609
-10.5108
-9.2718
-7.82057
-6.2171
-4.50813
-2.73052
-0.914318
-1.43988
-4.17148
-6.50235
-8.27803
-9.44574
-10.0282
-10.0915
-9.71884
-8.9944
-7.9946
-6.78492
-5.41978
-3.94389
-2.3943
-0.802656
-1.14303
-3.32671
-5.22729
-6.72192
-7.75375
-8.32097
-8.45856
-8.22093
-7.66916
-6.86306
-5.85718
-4.69932
-3.43077
-2.08727
-0.700476
-0.917248
-2.6785
-4.23408
-5.48713
-6.38432
-6.912
-7.08611
-6.94109
-6.52045
-5.87021
-5.03491
-4.05569
-2.96967
-1.8103
-0.608119
-0.742325
-2.1731
-3.45093
-4.49941
-5.27144
-5.74847
-5.93522
-5.8526
-5.53113
-5.0058
-4.31255
-3.48618
-2.55948
-1.56302
-0.525521
-0.604805
-1.7739
-2.82701
-3.70363
-4.36336
-4.78649
-4.97134
-4.92991
-4.68332
-4.25796
-3.68258
-2.98632
-2.19771
-1.34424
-0.452321
-0.495416
-1.45522
-2.32563
-3.05844
-3.61953
-3.98993
-4.16455
-4.14963
-3.9596
-3.61428
-3.13651
-2.55055
-1.88097
-1.15213
-0.387954
-0.407574
-1.19859
-1.91978
-2.53247
-3.0081
-3.32927
-3.48936
-3.49092
-3.3437
-3.06252
-2.66554
-2.17282
-1.60537
-0.984544
-0.331732
-0.336484
-0.990456
-1.58924
-2.10167
-2.5039
-2.78045
-2.92421
-2.9355
-2.82078
-2.59116
-2.26104
-1.84697
-1.36682
-0.839162
-0.282902
-0.278581
-0.820634
-1.31866
-1.74738
-2.08694
-2.32382
-2.45102
-2.46756
-2.37763
-2.18956
-1.9148
-1.56699
-1.16126
-0.713632
-0.240699
-0.231167
-0.681381
-1.09618
-1.45499
-1.74127