/*--------------------------------*- C++ -*----------------------------------*\
| =========                 |                                                 |
| \\      /  F ield         | OpenFOAM: The Open Source CFD Toolbox           |
|  \\    /   O peration     | Version:  5.x                                   |
|   \\  /    A nd           | Web:      www.OpenFOAM.org                      |
|    \\/     M anipulation  |                                                 |
\*---------------------------------------------------------------------------*/
FoamFile
{
    version     2.0;
    format      ascii;
    class       volScalarField;
    location    "3.3";
    object      T;
}
// * * * * * * * * * * * * * * * * * * * * * * * * * * * * * * * * * * * * * //

dimensions      [0 0 0 1 0 0 0];

internalField   nonuniform List<scalar> 
6300
(
11.0102
13.0355
15.0751
17.1383
19.2336
21.3691
23.5513
25.7857
28.0755
30.4219
32.8235
35.2759
37.7717
40.3004
42.8492
11.0054
13.0211
15.0515
17.106
19.1935
21.3222
23.4991
25.73
28.0187
30.3666
32.7725
35.2323
37.7384
40.2802
42.8441
10.9957
12.9921
15.0038
17.0406
19.1121
21.2269
23.3929
25.6165
27.9025
30.253
32.6675
35.1421
37.6693
40.2377
42.8325
10.9808
12.9478
14.9309
16.9406
18.9871
21.0803
23.2289
25.4406
27.7215
30.0751
32.5021
34.9992
37.5587
40.1685
42.8118
10.9605
12.8874
14.8313
16.8036
18.8156
20.8781
23.0016
25.1955
27.4676
29.8238
32.2664
34.7935
37.3977
40.0655
42.7774
10.9346
12.8098
14.7032
16.6269
18.5934
20.6149
22.7038
24.8718
27.1296
29.4859
31.9461
34.5105
37.1727
39.918
42.723
10.9026
12.714
14.5447
16.4075
18.3161
20.2843
22.3268
24.4582
26.6929
29.0439
31.5213
34.1295
36.8645
39.7106
42.6393
10.8642
12.5991
14.3539
16.1423
17.9789
19.8794
21.8608
23.9412
26.1397
28.4755
30.9655
33.6215
36.4447
39.4205
42.5132
10.8192
12.4643
14.1294
15.8288
17.5778
19.3936
21.2956
23.3058
25.4491
27.7526
30.2436
32.9461
35.8723
39.013
42.3253
10.7676
12.3094
13.8707
15.4656
17.1099
18.8216
20.6221
22.5373
24.5982
26.8418
29.3102
32.0466
35.0853
38.4336
42.0452
10.7096
12.1348
13.5782
15.053
16.5744
18.1606
19.8339
21.6229
23.5644
25.7062
28.1087
30.8445
33.9884
37.5908
41.6211
10.6457
11.9422
13.2543
14.5938
15.9742
17.4123
18.9298
20.5558
22.3302
24.3096
26.5739
29.234
32.4329
36.3199
40.9513
10.5766
11.7338
12.9031
14.0936
15.3161
16.5846
17.9173
19.3401
20.891
22.628
24.6431
27.0845
30.189
34.3043
39.7954
10.5036
11.5133
12.5305
13.5612
14.6122
15.6925
16.8146
17.9962
19.2655
20.6683
22.2859
24.2716
26.934
30.9127
37.4404
10.4281
11.2851
12.1446
13.0085
13.8789
14.7588
15.6521
16.5647
17.5063
18.4938
19.5604
20.7819
22.3626
24.9719
31.2391
45.1899
47.3107
49.4145
51.4917
53.5329
55.5294
57.4733
59.3575
61.176
62.9235
64.5957
66.1889
67.7002
69.1271
70.468
71.7213
72.8863
73.9622
74.9489
75.8467
76.656
77.3776
78.0127
78.5626
79.0287
79.413
79.7171
79.9432
80.0933
80.1695
80.174
80.1088
79.9762
79.7782
79.5169
79.1943
78.8122
78.3727
77.8776
77.3286
76.7276
76.0763
75.3765
74.6299
73.838
73.0025
72.1248
71.2065
70.2489
69.2532
68.2206
67.1523
66.0493
64.9126
63.7433
62.5424
61.3108
60.0498
58.7603
57.4435
56.1006
54.7328
53.3412
51.927
50.4915
49.036
47.5618
46.0703
44.5633
43.0426
41.5101
39.9682
38.4196
36.867
35.3138
33.7632
32.219
30.685
29.1652
27.6635
26.184
24.7307
23.3074
21.9178
20.5653
19.2528
17.9831
16.7581
15.5795
14.448
45.1999
47.3347
49.4525
51.5432
53.5969
55.6048
57.5587
59.4518
61.2777
63.0315
64.7089
66.3064
67.821
69.2506
70.5935
71.8482
73.0138
74.09
75.0765
75.9735
76.7816
77.5017
78.1348
78.6824
79.1461
79.5276
79.8289
80.052
80.199
80.2721
80.2735
80.2053
80.0697
79.8687
79.6045
79.2791
78.8943
78.4521
77.9544
77.4028
76.7993
76.1455
75.4433
74.6943
73.9001
73.0624
72.1827
71.2624
70.303
69.3056
68.2714
67.2016
66.0971
64.959
63.7882
62.5857
61.3527
60.09
58.7989
57.4805
56.1359
54.7664
53.373
51.9571
50.5198
49.0623
47.586
46.0922
44.5826
43.0589
41.5231
39.9775
38.4247
36.8676
35.3094
33.7536
32.204
30.6643
29.1386
27.6311
26.1459
24.6871
23.2586
21.8641
20.5072
19.1911
17.9184
16.6912
15.5113
14.3795
45.2192
47.383
49.5294
51.6474
53.7265
55.7573
57.7315
59.6421
61.4829
63.2491
64.9367
66.5425
68.0638
69.4986
70.8452
72.1025
73.2697
74.3463
75.3322
76.2277
77.0334
77.7502
78.3794
78.9224
79.381
79.7571
80.0525
80.2696
80.4104
80.4773
80.4724
80.3981
80.2564
80.0496
79.7796
79.4486
79.0583
78.6108
78.1078
77.5511
76.9425
76.2838
75.5767
74.8229
74.0241
73.1821
72.2982
71.3741
70.411
69.4102
68.3729
67.3
66.1926
65.0516
63.8779
62.6725
61.4364
60.1706
58.8762
57.5545
56.2065
54.8336
53.4368
52.0174
50.5764
49.1151
47.6347
46.1364
44.6216
43.0921
41.5497
39.9966
38.4355
36.8693
35.3012
33.7348
32.174
30.6229
29.0855
27.5663
26.0696
24.5995
23.1603
21.756
20.3903
19.0666
17.7877
16.5562
15.3737
14.2412
45.247
47.4559
49.6468
51.8071
53.9252
55.991
57.9957
59.9323
61.795
63.5794
65.2819
66.8997
68.4306
69.8729
71.2251
72.4862
73.6555
74.7326
75.7175
76.6105
77.4124
78.1243
78.7474
79.2835
79.7343
80.1019
80.3884
80.5963
80.7277
80.7851
80.7708
80.6871
80.5363
80.3206
80.042
79.7025
79.3042
78.8486
78.3378
77.7734
77.1572
76.491
75.7765
75.0156
74.2099
73.3612
72.471
71.541
70.5725
69.5667
68.5247
67.4475
66.3358
65.1906
64.0126
62.8028
61.5621
60.2916
58.9923
57.6655
56.3125
54.9344
53.5326
52.108
50.6618
49.195
47.7086
46.2036
44.6814
43.1433
41.591
40.0268
38.4532
36.8731
35.29
33.7075
32.1298
30.5611
29.006
27.4689
25.9544
24.4672
23.0116
21.5921
20.2126
18.8771
17.5887
16.3503
15.1638
14.0303
45.2815
47.5544
49.808
52.0273
54.199
56.3121
58.3575
60.3284
62.2195
64.0271
65.7485
67.3816
68.9246
70.3763
71.7356
73.0015
74.1734
75.251
76.2344
77.124
77.9206
78.6255
79.2402
79.7665
80.2066
80.5626
80.837
81.0323
81.1509
81.1954
81.1683
81.0721
80.909
80.6814
80.3913
80.0407
79.6315
79.1654
78.6442
78.0696
77.4433
76.767
76.0426
75.2719
74.4568
73.5991
72.7006
71.7628
70.7871
69.7747
68.7266
67.6437
66.5266
65.376
64.1926
62.977
61.7302
60.4532
59.1473
57.8137
56.4539
55.069
53.6604
52.2291
50.7762
49.3024
47.8085
46.2952
44.7634
43.2142
41.6491
40.0701
38.4797
36.8809
35.2773
33.6729
32.0721
30.4795
28.9
27.3384
25.7997
24.2889
22.8107
21.3701
19.9715
18.6194
17.3176
16.0695
14.8774
13.7427
45.3207
47.6804
50.0181
52.3155
54.557
56.7302
58.8263
60.8388
62.7637
64.5986
66.3419
67.9925
69.5496
71.0124
72.3799
73.6515
74.8265
75.9046
76.8858
77.7707
78.5603
79.256
79.8596
80.3732
80.7993
81.1403
81.399
81.578
81.6802
81.7082
81.6648
81.5526
81.374
81.1314
80.827
80.4625
80.04
79.5609
79.0269
78.4396
77.8006
77.1116
76.3746
75.5915
74.7644
73.8952
72.986
72.0383
71.0537
70.0333
68.9781
67.8885
66.7651
65.6081
64.418
63.1954
61.941
60.656
59.3415
57.9992
56.6306
55.2371
53.8202
52.3809
50.9201
49.4383
47.9358
46.4129
44.87
43.3075
41.7268
40.1294
38.5178
36.8952
35.2654
33.6328
32.0022
30.3788
28.7678
27.1746
25.6047
24.0632
22.5556
21.0871
19.6632
18.2889
16.969
15.7078
14.5082
13.372
45.3625
47.8377
50.286
52.6838
55.0127
57.2592
59.4149
61.4749
63.4372
65.3015
67.0682
68.7377
70.31
71.785
73.162
74.4401
75.6186
76.697
77.6753
78.5541
79.3346
80.0184
80.6078
81.1054
81.5138
81.8359
82.0749
82.2338
82.3155
82.3232
82.2597
82.1279
81.9305
81.6699
81.3483
80.9674
80.5291
80.0347
79.4856
78.8832
78.229
77.5247
76.7722
75.9738
75.1317
74.2484
73.3259
72.3663
71.3712
70.3416
69.2782
68.1814
67.0511
65.8872
64.6897
63.4589
62.1954
60.9003
59.5752
58.2219
56.8424
55.4384
54.0116
52.5631
51.0937
49.6034
48.092
46.559
45.004
43.4268
41.8278
40.2086
38.5713
36.9194
35.2571
33.5893
31.9216
30.2597
28.6096
26.9772
25.3682
23.7884
22.2437
20.7399
19.2831
17.8797
16.5358
15.257
14.0475
12.9097
45.4046
48.0336
50.626
53.1511
55.5866
57.9187
60.1408
62.2511
64.2514
66.1446
67.934
69.6221
71.2101
72.6982
74.0858
75.3716
76.5543
77.633
78.6076
79.4786
80.2474
80.9162
81.4878
81.9652
82.3517
82.6507
82.8656
82.9999
83.0568
83.0398
82.9522
82.7971
82.5774
82.2956
81.954
81.5544
81.0983
80.5866
80.0205
79.4008
78.7289
78.0064
77.2353
76.4182
75.5579
74.6571
73.7187
72.7449
71.7375
70.6977
69.6258
68.5218
67.3848
66.214
65.0088
63.7688
62.4946
61.1873
59.8489
58.4819
57.0887
55.6719
54.2335
52.775
51.2967
49.7983
48.2787
46.7363
45.1694
43.5767
41.9577
40.3132
38.6455
36.9582
35.2561
33.5453
31.8321
30.1233
28.4256
26.7455
25.0893
23.463
21.8726
20.3246
18.826
17.3846
16.0087
14.7062
13.4835
12.3441
45.4457
48.2818
51.0627
53.747
56.3089
58.7363
61.027
63.1854
65.2192
67.1367
68.9453
70.65
72.2534
73.7557
75.1556
76.4509
77.6391
78.7185
79.6884
80.5494
81.3035
81.9535
82.5028
82.9553
83.315
83.5859
83.7718
83.8766
83.9039
83.8576
83.7413
83.5586
83.3128
83.0067
82.6426
82.2222
81.7466
81.2163
80.6317
79.9929
79.301
78.5572
77.764
76.9243
76.0415
75.1194
74.1616
73.171
72.1499
71.0992
70.0192
68.9088
67.7664
66.5898
65.3771
64.1273
62.8406
61.5184
60.1633
58.7787
57.3683
55.9358
54.484
53.0146
51.5279
50.023
48.4976
46.9483
45.3715
43.7639
42.1237
40.4508
38.7474
37.0176
35.2675
33.5042
31.7358
29.9704
28.2159
26.4792
24.767
23.0853
21.4402
19.8379
18.2863
16.795
15.3757
14.0402
12.7993
11.6585
45.4876
48.6091
51.638
54.5187
57.2247
59.7503
62.1034
64.2987
66.3537
68.2852
70.1057
71.8234
73.4415
74.96
76.3756
77.6838
78.8801
79.961
80.9252
81.7736
82.5089
83.1349
83.6564
84.0783
84.4056
84.6428
84.7942
84.864
84.8563
84.7752
84.6252
84.4103
84.1344
83.8006
83.4115
82.9687
82.4728
81.9235
81.3199
80.661
79.9468
79.1786
78.3589
77.4915
76.581
75.6324
74.6509
73.6405
72.6039
71.5423
70.4554
69.3413
68.1965
67.0168
65.7981
64.5383
63.237
61.8962
60.5195
59.1119
57.6792
56.2269
54.7591
53.2784
51.7849
50.2768
48.7502
47.1994
45.6173
43.9975
42.3361
40.6317
38.8867
37.106
35.2972
33.4699
31.6347
29.8017
27.9799
26.1772
24.4003
22.6548
20.9457
19.278
17.6593
16.1017
14.6215
13.2381
11.9706
10.8294
45.5405
49.0696
52.4264
55.5416
58.3996
61.0123
63.4066
65.6133
67.6658
69.5929
71.4138
73.1395
74.7727
76.3117
77.7494
79.0775
80.2865
81.3708
82.3281
83.1602
83.8709
84.4663
84.9527
85.337
85.6251
85.8225
85.9334
85.9623
85.9135
85.7916
85.6018
85.3492
85.0385
84.6735
84.2571
83.7909
83.2751
82.7083
82.087
81.4078
80.6696
79.8732
79.0218
78.12
77.1744
76.1922
75.1812
74.1469
73.0932
72.0211
70.9302
69.817
68.6762
67.4991
66.2778
65.0082
63.6896
62.325
60.9193
59.4807
58.0176
56.5394
55.0523
53.5599
52.0621
50.5566
49.0371
47.4948
45.9168
44.2906
42.6096
40.8708
39.077
37.2342
35.3532
33.4466
31.5301
29.6162
27.7162
25.8378
23.9882
22.1716
20.3913
18.6474
16.9441
15.2969
13.7275
12.2687
10.96
9.82118
45.6419
49.7778
53.5623
56.9347
59.9272
62.5887
64.9792
67.1496
69.1579
71.0532
72.8583
74.588
76.2392
77.8089
79.2806
80.6419
81.8718
82.9629
83.9109
84.7208
85.3985
85.9539
86.3956
86.7332
86.9749
87.1258
87.1902
87.172
87.0751
86.9053
86.6679
86.3712
86.0199
85.6199
85.1734
84.6838
84.1502
83.5709
82.9369
82.2389
81.4757
80.6463
79.7566
78.8107
77.8199
76.7927
75.7443
74.6806
73.6083
72.5264
71.4363
70.332
69.2074
68.0445
66.8261
65.5482
64.2077
62.8121
61.366
59.8841
58.3771
56.8643
55.3524
53.8487
52.3499
50.8558
49.3563
47.8412
46.2849
44.6624
42.9657
41.1884
39.3376
37.417
35.4454
33.4371
31.4213
29.4104
27.421
25.4564
23.5281
21.6359
19.7844
17.9578
16.1479
14.3797
12.6744
11.0828
9.70486
8.57775
45.928
50.9918
55.2912
58.8743
61.9311
64.5546
66.8686
68.9185
70.8123
72.6429
74.4108
76.1491
77.8224
79.4464
80.9701
82.3951
83.6563
84.7605
85.6916
86.4709
87.1018
87.6043
87.9876
88.2671
88.4545
88.5532
88.5649
88.4942
88.3409
88.1153
87.8188
87.4708
87.0708
86.6325
86.1511
85.6394
85.0901
84.5115
83.878
83.1632
82.3762
81.5054
80.5716
79.5653
78.5171
77.423
76.3286
75.2258
74.1363
73.0426
71.962
70.8755
69.7929
68.6691
67.4594
66.1775
64.8044
63.3714
61.8633
60.3232
58.7439
57.1872
55.6401
54.1297
52.6303
51.162
49.6973
48.2464
46.7478
45.1401
43.4375
41.6113
39.6979
37.6728
35.59
33.4381
31.3048
29.1733
27.0898
25.0224
23.0155
21.0413
19.1414
17.244
15.2913
13.3716
11.4572
9.58926
8.0883
7.00511
46.9498
53.3062
58.051
61.5716
64.5585
66.9656
69.1377
70.9119
72.5573
74.3224
76.0053
77.8034
79.4759
81.228
82.8013
84.3832
85.6664
86.8068
87.6905
88.4339
88.9893
89.4257
89.7284
89.9328
90.0613
90.1049
90.0579
89.9347
89.7102
89.4269
89.0432
88.6447
88.176
87.7065
87.1715
86.6484
86.0716
85.5306
84.9355
84.1904
83.397
82.4542
81.4905
80.3794
79.2795
78.053
76.9245
75.7511
74.6697
73.5394
72.4955
71.4127
70.4369
69.4167
68.1961
66.9372
65.4869
64.0381
62.4061
60.8178
59.0777
57.4956
55.8742
54.3944
52.8653
51.4623
50.018
48.7196
47.367
45.754
44.0866
42.1593
40.2185
38.011
35.8338
33.4117
31.1853
28.8668
26.7349
24.5009
22.4554
20.3395
18.4946
16.6094
14.3869
12.356
10.1728
7.56714
5.87006
4.93945
51.2667
57.941
62.5732
65.0369
68.0202
69.7147
71.9793
73.0901
74.1294
76.1196
77.4332
79.6381
81.0141
83.2662
84.6195
86.8009
87.8816
89.222
89.8907
90.667
91.0475
91.439
91.61
91.707
91.7897
91.7864
91.6597
91.5203
91.1632
90.8822
90.2883
89.919
89.2814
88.8741
88.1741
87.7341
87.0007
86.6266
86.2081
85.2866
84.6321
83.4324
82.6209
81.1764
80.2235
78.541
77.5842
76.1432
75.2728
73.9109
73.0842
71.7951
71.144
70.4523
68.9871
67.972
66.1663
64.9677
62.8854
61.5304
59.183
57.8599
55.9037
54.7294
52.918
51.8212
50.1281
49.27
48.3608
46.4456
45.1094
42.7263
41.1226
38.3049
36.4299
33.1031
31.1979
28.2912
26.5265
23.7078
21.9963
19.247
17.9058
16.46
13.2067
11.5594
9.49649
4.23661
2.54801
2.0913
13.2555
12.0223
10.8549
9.7503
8.70457
7.71318
6.77109
5.87302
5.01353
4.1872
3.38863
2.61257
1.85384
1.10741
0.368325
13.1876
11.9564
10.792
9.69127
8.65012
7.66376
6.72699
5.83435
4.98031
4.15937
3.36609
2.59519
1.84152
1.10006
0.36588
13.0507
11.8234
10.6652
9.57255
8.54076
7.56466
6.63866
5.757
4.91394
4.10381
3.32112
2.56055
1.81697
1.08541
0.361011
12.842
11.6212
10.4729
9.39279
8.37558
7.41535
6.50589
5.64099
4.81457
4.02076
3.25398
2.50888
1.78038
1.06359
0.353759
12.5577
11.3462
10.2122
9.15002
8.15333
7.21516
6.32847
5.48642
4.68251
3.91064
3.1651
2.44058
1.73206
1.03479
0.344191
12.192
10.9938
9.8794
8.84167
7.87245
6.96338
6.10632
5.29364
4.51836
3.77413
3.05518
2.35624
1.67246
0.999295
0.332405
11.737
10.5574
9.46985
8.46467
7.53132
6.6595
5.8397
5.06339
4.3231
3.61228
2.92519
2.25672
1.60224
0.95751
0.318536
11.1822
10.0287
8.97781
8.01573
7.12856
6.30353
5.5295
4.79705
4.0983
3.42667
2.77656
2.14316
1.52224
0.909958
0.30276
10.5133
9.39734
8.39682
7.49176
6.66358
5.89647
5.17764
4.49693
3.84634
3.21948
2.61117
2.0171
1.43357
0.85731
0.285303
9.71073
8.6504
7.72024
6.89081
6.13742
5.44106
4.78758
4.16664
3.57059
2.9937
2.43151
1.88048
1.33763
0.800395
0.266439
8.74801
7.77317
6.94285
6.21371
5.55416
4.94268
4.36493
3.8114
3.27565
2.75316
2.24066
1.73563
1.23605
0.74019
0.246493
7.5893
6.75132
6.06417
5.46692
4.92277
4.41049
3.918
3.43834
2.96739
2.5026
2.0423
1.58532
1.13075
0.677809
0.225831
6.19015
5.57855
5.0955
4.66697
4.25943
3.85846
3.4582
3.05652
2.65292
2.24751
1.84061
1.43259
1.02378
0.614459
0.20485
4.51345
4.27716
4.07225
3.84597
3.58947
3.30567
2.99975
2.67659
2.34024
1.99387
1.64001
1.28063
0.917316
0.551387
0.183959
2.60826
2.94432
3.07029
3.05514
2.94676
2.77494
2.55849
2.30983
2.03753
1.74771
1.4449
1.13257
0.813458
0.489808
0.163552
10.3582
11.0737
11.7869
12.4957
13.198
13.8904
14.5686
15.2259
15.8516
16.4277
16.92
17.2537
17.2291
16.1728
11.2717
10.2951
10.8832
11.4646
12.0342
12.5857
13.1109
13.5982
14.0306
14.3817
14.6076
14.6297
14.2951
13.2786
10.8437
5.371
10.2335
10.6972
11.1504
11.5852
11.9918
12.3577
12.6659
12.8918
12.9987
12.9289
12.587
11.8099
10.3132
7.62402
3.12952
10.1743
10.5185
10.8491
11.1557
11.4261
11.6446
11.7906
11.8356
11.7385
11.4391
10.8466
9.82437
8.17581
5.65803
2.11339
10.1182
10.3493
10.5644
10.7514
10.8963
10.9818
10.9855
10.8779
10.6188
10.1528
9.40446
8.27379
6.642
4.40512
1.57097
10.0657
10.1912
10.2991
10.3763
10.4078
10.3757
10.2577
10.0254
9.64258
9.06265
8.22781
7.0712
5.52835
3.56696
1.2423
10.0172
10.0454
10.0552
10.0329
9.96348
9.82928
9.60916
9.27749
8.80324
8.14948
7.27459
6.13681
4.70535
2.98105
1.0247
9.97289
9.91252
9.83342
9.72221
9.56414
9.34252
9.03808
8.62858
8.08853
7.38985
6.50391
5.40634
4.08568
2.55628
0.871717
9.93289
9.79261
9.63398
9.44406
9.20893
8.91324
8.53996
8.0703
7.48397
6.76023
5.88019
4.83078
3.61097
2.23925
0.759613
9.89708
9.68544
9.45624
9.19731
8.89576
8.53782
8.10876
7.59303
6.97481
6.23916
5.37406
4.37354
3.24174
1.99715
0.675002
9.8653
9.59045
9.29916
8.98014
8.62174
8.21179
7.73774
7.18692
6.54718
5.80796
4.96197
4.00746
2.95083
1.80892
0.60973
9.83731
9.50688
9.16131
8.79033
8.38351
7.93026
7.42001
6.84255
6.18863
5.4509
4.62524
3.71229
2.71913
1.66046
0.558536
9.81281
9.43383
9.0411
8.6254
8.17751
7.68831
7.14896
6.55127
5.88826
5.15491
4.34911
3.4728
2.53294
1.54202
0.517861
9.79149
9.37034
8.93684
8.48281
8.0002
7.48117
6.9184
6.30535
5.63675
4.90921
4.12194
3.27745
2.38218
1.44667
0.485214
9.77303
9.31542
8.84684
8.36008
7.84816
7.30441
6.72276
6.09799
5.42615
4.70498
3.93449
3.11737
2.25937
1.36933
0.458797
9.75712
9.26811
8.76945
8.25483
7.71821
7.15396
6.55706
5.92333
5.24979
4.53501
3.77941
2.98567
2.15882
1.30623
0.43728
9.74345
9.22752
8.70314
8.16484
7.60745
7.02619
6.41692
5.7763
5.10208
4.39336
3.65083
2.87696
2.07613
1.25448
0.419661
9.73175
9.19279
8.64649
8.08812
7.51326
6.91788
6.29855
5.6526
4.97833
4.2752
3.544
2.78698
2.00789
1.21187
0.405171
9.72177
9.16317
8.59821
8.02285
7.43331
6.82619
6.19865
5.54857
4.87462
4.17652
3.45509
2.71232
1.95142
1.17667
0.393211
9.71326
9.13795
8.55716
7.96744
7.36556
6.74867
6.11442
5.46109
4.78768
4.09405
3.38099
2.65026
1.90457
1.1475
0.383311
9.70603
9.11652
8.52233
7.92047
7.30822
6.6832
6.04345
5.38756
4.71479
4.02507
3.31916
2.59858
1.86563
1.12329
0.375095
9.6999
9.09836
8.4928
7.88071
7.25976
6.62796
5.98367
5.32577
4.65365
3.96734
3.26751
2.55548
1.8332
1.10315
0.368265
9.69471
9.08297
8.46782
7.8471
7.21885
6.58138
5.93335
5.27383
4.60237
3.919
3.22433
2.5195
1.80615
1.08637
0.362576
9.69032
9.06997
8.44671
7.81871
7.18433
6.54213
5.89101
5.2302
4.55934
3.8785
3.18821
2.48944
1.78358
1.07237
0.357833
9.6866
9.05898
8.42888
7.79476
7.15523
6.50908
5.8554
5.19355
4.52324
3.84457
3.15798
2.46431
1.76472
1.06068
0.353873
9.68347
9.04971
8.41384
7.77457
7.13072
6.48127
5.82546
5.16277
4.49296
3.81613
3.13267
2.44328
1.74895
1.05091
0.350564
9.68083
9.04189
8.40117
7.75757
7.11009
6.45788
5.8003
5.13692
4.46756
3.79229
3.11147
2.42568
1.73576
1.04274
0.347799
9.67861
9.03531
8.39051
7.74326
7.09273
6.43822
5.77916
5.11522
4.44625
3.77231
3.09371
2.41095
1.72473
1.03591
0.345486
9.67673
9.02977
8.38153
7.73123
7.07815
6.4217
5.76143
5.09703
4.42839
3.75558
3.07885
2.39862
1.7155
1.0302
0.343552
9.67516
9.02512
8.374
7.72113
7.06591
6.40785
5.74655
5.08177
4.41342
3.74156
3.0664
2.38831
1.70778
1.02542
0.341935
9.67384
9.02122
8.36768
7.71266
7.05565
6.39623
5.73408
5.069
4.4009
3.72984
3.056
2.37969
1.70133
1.02143
0.340584
9.67274
9.01795
8.36238
7.70556
7.04706
6.38652
5.72366
5.05832
4.39043
3.72004
3.04731
2.37249
1.69594
1.0181
0.339457
9.67181
9.01522
8.35796
7.69964
7.03989
6.3784
5.71496
5.04941
4.3817
3.71187
3.04006
2.36649
1.69145
1.01532
0.338517
9.67104
9.01294
8.35428
7.69471
7.03392
6.37166
5.70772
5.042
4.37444
3.70509
3.03404
2.3615
1.68772
1.01302
0.337737
9.67041
9.01106
8.35123
7.69062
7.02897
6.36606
5.70173
5.03587
4.36843
3.69947
3.02906
2.35738
1.68464
1.01111
0.337092
9.66988
9.0095
8.34871
7.68726
7.0249
6.36146
5.6968
5.03082
4.36349
3.69485
3.02496
2.35399
1.6821
1.00954
0.336562
9.66945
9.00824
8.34667
7.68451
7.02158
6.35771
5.69278
5.02671
4.35947
3.69108
3.02163
2.35123
1.68004
1.00827
0.33613
9.66911
9.00722
8.34502
7.68231
7.01892
6.3547
5.68955
5.0234
4.35623
3.68806
3.01895
2.34901
1.67838
1.00724
0.335783
9.66884
9.00642
8.34373
7.68058
7.01683
6.35234
5.68702
5.02081
4.3537
3.68569
3.01685
2.34727
1.67708
1.00644
0.335511
9.66864
9.00582
8.34275
7.67927
7.01524
6.35055
5.6851
5.01885
4.35178
3.6839
3.01526
2.34596
1.6761
1.00583
0.335306
9.66849
9.00539
8.34206
7.67835
7.01412
6.34928
5.68375
5.01747
4.35042
3.68263
3.01414
2.34503
1.67541
1.0054
0.33516
9.6684
9.00513
8.34163
7.67777
7.01343
6.3485
5.68291
5.01661
4.34958
3.68184
3.01344
2.34445
1.67498
1.00514
0.335071
9.66836
9.00502
8.34146
7.67754
7.01315
6.34818
5.68256
5.01625
4.34923
3.68152
3.01316
2.34421
1.6748
1.00503
0.335033
9.66838
9.00506
8.34153
7.67763
7.01326
6.34831
5.6827
5.01639
4.34937
3.68165
3.01327
2.34431
1.67487
1.00507
0.335048
9.66845
9.00526
8.34184
7.67806
7.01377
6.34889
5.68332
5.01703
4.34999
3.68223
3.01378
2.34473
1.67519
1.00527
0.335115
9.66857
9.00562
8.34242
7.67883
7.01471
6.34994
5.68445
5.01819
4.35112
3.68328
3.01472
2.34551
1.67577
1.00562
0.335236
9.66874
9.00614
8.34327
7.67997
7.01608
6.3515
5.68612
5.01989
4.35279
3.68484
3.0161
2.34665
1.67662
1.00615
0.335414
9.66898
9.00685
8.34442
7.68151
7.01795
6.35361
5.68838
5.0222
4.35505
3.68696
3.01797
2.3482
1.67778
1.00687
0.335656
9.6693
9.00777
8.34591
7.6835
7.02036
6.35633
5.69129
5.02518
4.35797
3.68968
3.02039
2.3502
1.67927
1.00779
0.335969
9.66969
9.00893
8.34778
7.686
7.02338
6.35975
5.69496
5.02893
4.36164
3.69311
3.02343
2.35271
1.68115
1.00895
0.336362
9.67017
9.01035
8.35008
7.68909
7.02712
6.36396
5.69948
5.03356
4.36617
3.69735
3.02718
2.35582
1.68347
1.01039
0.336848
9.67075
9.01209
8.35289
7.69285
7.03167
6.36911
5.70499
5.0392
4.37169
3.70251
3.03176
2.35961
1.68631
1.01214
0.33744
9.67147
9.01419
8.35629
7.6974
7.03718
6.37534
5.71167
5.04603
4.37839
3.70877
3.0373
2.3642
1.68974
1.01426
0.338158
9.67232
9.01672
8.36039
7.70289
7.04381
6.38284
5.71971
5.05426
4.38645
3.7163
3.04398
2.36973
1.69388
1.01682
0.339024
9.67334
9.01975
8.36529
7.70946
7.05177
6.39183
5.72935
5.06414
4.39612
3.72535
3.05201
2.37638
1.69885
1.01989
0.340064
9.67457
9.02337
8.37116
7.71732
7.06128
6.40259
5.74089
5.07596
4.40771
3.73619
3.06162
2.38434
1.7048
1.02358
0.341311
9.67603
9.02769
8.37816
7.7267
7.07264
6.41545
5.75468
5.09009
4.42156
3.74915
3.07312
2.39387
1.71193
1.02799
0.342803
9.67777
9.03284
8.3865
7.73788
7.08619
6.43077
5.77113
5.10695
4.43809
3.76464
3.08686
2.40525
1.72045
1.03326
0.344587
9.67984
9.03897
8.39643
7.75119
7.10231
6.44903
5.79074
5.12705
4.45782
3.78311
3.10327
2.41885
1.73063
1.03956
0.34672
9.68231
9.04625
8.40823
7.76702
7.1215
6.47077
5.81409
5.15101
4.48134
3.80516
3.12286
2.4351
1.7428
1.04709
0.349269
9.68523
9.05491
8.42225
7.78583
7.14432
6.49663
5.84189
5.17956
4.50938
3.83145
3.14623
2.45449
1.75733
1.05609
0.352315
9.6887
9.06517
8.4389
7.80817
7.17143
6.52737
5.87497
5.21355
4.54279
3.86281
3.17413
2.47765
1.77469
1.06684
0.355956
9.69281
9.07734
8.45864
7.83468
7.20362
6.56391
5.91432
5.25401
4.58261
3.90022
3.20743
2.50533
1.79544
1.0797
0.360311
9.69768
9.09176
8.48204
7.86611
7.24183
6.60731
5.9611
5.30218
4.63006
3.94484
3.2472
2.5384
1.82026
1.09508
0.365524
9.70344
9.10882
8.50973
7.90336
7.28713
6.65884
6.01671
5.35951
4.68662
3.9981
3.29471
2.57796
1.84998
1.11351
0.371769
9.71025
9.12899
8.54248
7.94744
7.34081
6.71997
6.08278
5.42773
4.75402
4.06167
3.35152
2.6253
1.88558
1.13561
0.379261
9.71828
9.15279
8.58117
7.99956
7.40436
6.79245
6.16125
5.50891
4.83438
4.13759
3.41948
2.68204
1.92828
1.16214
0.388259
9.72775
9.18084
8.62681
8.0611
7.47952
6.87833
6.25441
5.60548
4.93019
4.22832
3.50085
2.75009
1.97959
1.19405
0.399087
9.73887
9.21384
8.68054
8.13367
7.5683
6.97997
6.36495
5.72036
5.04447
4.33681
3.5984
2.83186
2.04135
1.2325
0.412144
9.75193
9.25258
8.74369
8.2191
7.67301
7.10016
6.496
5.85698
5.1808
4.46665
3.7155
2.93026
2.11583
1.27895
0.427929
9.76721
9.29796
8.81774
8.31944
7.79631
7.24207
6.65126
6.01941
5.34349
4.62217
3.85626
3.04894
2.20589
1.33522
0.447071
9.78504
9.35095
8.90434
8.43704
7.94119
7.40939
6.835
6.21245
5.53769
4.80866
4.02578
3.19242
2.31513
1.40364
0.470372
9.80578
9.41262
9.00529
8.57447
8.11104
7.60629
7.05218
6.44174
5.76958
5.03253
4.23035
3.3664
2.44813
1.48717
0.498866
9.82981
9.48413
9.12256
8.73453
8.30957
7.83745
7.30847
6.71388
6.04653
5.30163
4.47781
3.5781
2.61076
1.58969
0.533904
9.85752
9.56668
9.25821
8.92024
8.54084
8.10809
7.61031
7.03656
6.37731
5.62552
4.77797
3.83674
2.81071
1.71632
0.577288
9.88929
9.66147
9.41433
9.13471
8.80916
8.42387
7.9649
7.41859
6.77235
6.01592
5.14316
4.15428
3.05813
1.87394
0.631466
9.92553
9.76968
9.59299
9.38108
9.11896
8.79082
8.38014
7.87001
7.24389
6.48708
5.58899
4.54631
3.36667
2.07204
0.699849
9.96655
9.89236
9.79609
9.66232
9.47458
9.21507
8.86443
8.40196
7.80617
7.05634
6.13523
5.03342
3.75506
2.32399
0.787336
10.0126
10.0304
10.0252
9.98102
9.88004
9.70257
9.42638
9.02648
8.47541
7.74452
6.80694
5.64313
4.2495
2.64924
0.901226
10.0639
10.1842
10.2815
10.3391
10.3386
10.2586
10.0742
9.75595
9.2695
8.57622
7.63574
6.41241
4.88741
3.07711
1.05291
10.1205
10.3541
10.5653
10.7376
10.8523
10.8872
10.815
10.6022
10.2072
9.57956
8.66094
7.39118
5.72342
3.65351
1.26128
10.1821
10.5395
10.8761
11.1761
11.4215
11.59
11.6534
11.5749
11.3065
10.7849
9.92998
8.64631
6.83869
4.45372
1.56016
10.2485
10.7395
11.2121
11.6525
12.0441
12.3659
12.5902
12.6796
12.5814
12.2218
11.4967
10.2653
8.35488
5.6071
2.01651
10.319
10.9522
11.5706
12.1628
12.7151
13.2093
13.6208
13.9144
14.038
13.9124
13.415
12.3557
10.4526
7.34575
2.7801
10.3928
11.1751
11.9471
12.7009
13.4264
14.1102
14.7333
15.2672
15.6675
15.8612
15.7235
15.032
13.3861
10.0975
4.23432
10.4689
11.4051
12.3364
13.2586
14.1666
15.0532
15.9076
16.7127
17.4403
18.0402
18.4164
18.3709
17.4605
14.6369
7.49789
10.5461
11.6386
12.7319
13.8261
14.9217
16.0186
17.116
18.212
19.3019
20.3744
21.4022
22.3104
22.8635
22.1731
16.2175
10.6232
11.8717
13.1266
14.3927
15.6759
16.9835
18.3253
19.7155
21.1753
22.7397
24.471
26.4964
29.1297
33.3658
43.3255
10.6988
12.1002
13.5134
14.9474
16.4132
17.9246
19.5011
21.1705
22.9761
24.9889
27.3353
30.2602
34.2829
40.5834
51.7902
10.7717
12.3205
13.8858
15.4801
17.1186
18.8205
20.6122
22.531
24.6329
27.0064
29.7978
33.2615
37.854
44.3937
54.234
1.07071
1.9151
2.28117
2.41561
2.41574
2.32932
2.18349
1.99528
1.77608
1.53393
1.27476
1.00306
0.722404
0.435742
0.145624
0.573624
1.31159
1.72462
1.92746
1.99308
1.96544
1.872
1.73081
1.55431
1.35141
1.12877
0.891529
0.643792
0.388988
0.130107
0.360761
0.933718
1.31402
1.53459
1.63517
1.64724
1.59365
1.49086
1.35085
1.18258
0.992918
0.787278
0.570081
0.345062
0.115515
0.251063
0.689625
1.01434
1.22503
1.33871
1.37461
1.34946
1.27674
1.16701
1.0286
0.868147
0.691045
0.501796
0.304277
0.101951
0.185504
0.524587
0.793823
0.982825
1.09624
1.14435
1.1383
1.0883
1.00307
0.889917
0.75493
0.603241
0.43925
0.266827
0.0894817
0.142114
0.408049
0.629019
0.793099
0.899128
0.951692
0.95766
0.924317
0.858517
0.766387
0.653304
0.523974
0.382556
0.232792
0.0781349
0.111427
0.322733
0.503717
0.643678
0.739132
0.791381
0.804306
0.782865
0.732237
0.6574
0.562954
0.453096
0.331654
0.202154
0.0679072
0.0887581
0.258471
0.406898
0.525159
0.609131
0.658372
0.674809
0.661672
0.622763
0.562023
0.483302
0.390259
0.286343
0.17481
0.0587675
0.0715071
0.208988
0.331024
0.430447
0.503244
0.548136
0.565843
0.55837
0.528444
0.479128
0.41359
0.334969
0.24632
0.150596
0.0506638
0.0580976
0.17023
0.27085
0.354221
0.41673
0.456772
0.474358
0.470656
0.447583
0.407493
0.352959
0.286641
0.211208
0.129301
0.0435289
0.047509
0.139464
0.222652
0.29248
0.345815
0.380998
0.397652
0.39639
0.378537
0.345884
0.300508
0.24464
0.180589
0.11069
0.0372862
0.0390471
0.114785
0.183729
0.242189
0.287501
0.318089
0.333382
0.333641
0.319764
0.293108
0.255339
0.208319
0.154028
0.0945134
0.0318543
0.0322215
0.0948221
0.152084
0.201028
0.23941
0.265798
0.27955
0.280705
0.269863
0.248048
0.216592
0.177045
0.131094
0.0805189
0.0271509
0.026675
0.0785663
0.126213
0.167199
0.199644
0.222281
0.234462
0.236098
0.227579
0.209678
0.183463
0.150216
0.11137
0.068463
0.0230956
0.0221414
0.0652571
0.104967
0.139301
0.166687
0.186024
0.196694
0.19854
0.191807
0.177081
0.155216
0.127273
0.0944656
0.058115
0.0196122
0.0184181
0.0543127
0.0874526
0.116225
0.139318
0.155782
0.165052
0.166937
0.161585
0.149441
0.131188
0.107707
0.0800206
0.0492609
0.0166297
0.0153485
0.0452806
0.0729705
0.0970927
0.116552
0.130536
0.138538
0.140358
0.136079
0.126039
0.11079
0.0910593
0.0677094
0.0417059
0.0140833
0.01281
0.0378051
0.0609653
0.0811974
0.0975868
0.109442
0.116316
0.118012
0.114572
0.106255
0.0935043
0.0769239
0.0572402
0.0352748
0.0119147
0.0107055
0.0316033
0.0509929
0.0679697
0.0817696
0.0918054
0.0976876
0.0992317
0.0964519
0.0895467
0.0788771
0.0649427
0.0483551
0.029812
0.0100717
0.00895726
0.0264487
0.0426956
0.0569475
0.0685657
0.0770526
0.0820713
0.0834532
0.0811956
0.075452
0.0665164
0.0548034
0.0408275
0.0251803
0.00850849
0.0075027
0.0221581
0.0357831
0.0477538
0.0575355
0.0647074
0.0689797
0.0702012
0.0683592
0.0635734
0.0560837
0.0462351
0.0344601
0.0212599
0.00718493
0.00629111
0.0185829
0.0300191
0.0400798
0.048317
0.0543753
0.0580062
0.0590759
0.0575665
0.0535719
0.0472885
0.039004
0.029082
0.0179468
0.00606607
0.00528113
0.0156017
0.0252099
0.0336717
0.0406113
0.0457283
0.0488107
0.049741
0.0484992
0.0451591
0.0398827
0.0329097
0.0245462
0.0151512
0.00512175
0.00443892
0.0131151
0.0211967
0.0283204
0.0341707
0.0384939
0.0411091
0.0419141
0.0408884
0.0380907
0.0336546
0.0277806
0.0207266
0.012796
0.00432603
0.00373668
0.0110414
0.0178484
0.0238532
0.0287903
0.0324453
0.0346641
0.0353582
0.0345077
0.0321596
0.0284246
0.0234708
0.0175153
0.0108153
0.00365672
0.00315153
0.00931308
0.0150569
0.0201271
0.0242999
0.0273938
0.0292774
0.0298747
0.0291667
0.0271914
0.0240409
0.0198563
0.0148211
0.00915296
0.00309489
0.00266462
0.00787475
0.0127332
0.0170241
0.0205585
0.0231824
0.0247839
0.0252973
0.0247054
0.023039
0.020375
0.0168323
0.0125661
0.00776133
0.0026245
0.00226041
0.00668057
0.0108035
0.0144464
0.0174491
0.0196807
0.0210457
0.0214874
0.0209901
0.0195791
0.0173191
0.0143105
0.0106851
0.00660023
0.00223199
0.00192609
0.00569276
0.00920689
0.0123131
0.014875
0.0167807
0.0179484
0.0183292
0.017909
0.0167087
0.0147829
0.0122168
0.00912303
0.00563584
0.00190596
0.00165112
0.00488027
0.00789349
0.0105578
0.0127563
0.014393
0.0153974
0.0157271
0.0153695
0.014342
0.012691
0.0104896