/*--------------------------------*- C++ -*----------------------------------*\
| =========                 |                                                 |
| \\      /  F ield         | OpenFOAM: The Open Source CFD Toolbox           |
|  \\    /   O peration     | Version:  5.x                                   |
|   \\  /    A nd           | Web:      www.OpenFOAM.org                      |
|    \\/     M anipulation  |                                                 |
\*---------------------------------------------------------------------------*/
FoamFile
{
    version     2.0;
    format      ascii;
    class       volScalarField;
    location    "17.9";
    object      T;
}
// * * * * * * * * * * * * * * * * * * * * * * * * * * * * * * * * * * * * * //

dimensions      [0 0 0 1 0 0 0];

internalField   nonuniform List<scalar> 
6300
(
9.94814
9.84559
9.74654
9.65329
9.56804
9.49289
9.42977
9.38037
9.34612
9.32805
9.32677
9.3424
9.37449
9.42207
9.48366
9.94696
9.84208
9.74074
9.64527
9.55792
9.48084
9.41602
9.36521
9.32991
9.31123
9.30984
9.32589
9.35895
9.40802
9.47153
9.9446
9.83502
9.72906
9.62912
9.53753
9.45653
9.38822
9.33452
9.29705
9.27709
9.27543
9.29232
9.32737
9.37948
9.44695
9.94102
9.82432
9.71136
9.60462
9.50653
9.4195
9.3458
9.28756
9.24666
9.2246
9.22244
9.24057
9.27866
9.33555
9.40924
9.9362
9.80988
9.68744
9.57144
9.46447
9.36912
9.28791
9.22325
9.17738
9.1522
9.14912
9.16883
9.21113
9.27476
9.35737
9.93008
9.79157
9.65705
9.52921
9.41079
9.30459
9.21343
9.14012
9.08739
9.05768
9.05297
9.07445
9.12222
9.19495
9.28978
9.92264
9.76927
9.61998
9.47755
9.34488
9.22499
9.12107
9.03641
8.97435
8.93813
8.93059
8.95375
9.0083
9.09299
9.2043
9.91385
9.74289
9.57604
9.41612
9.26617
9.12942
9.00944
8.91006
8.83545
8.78987
8.77747
8.80163
8.86419
8.96437
9.09785
9.9037
9.71241
9.52515
9.34472
9.17423
9.01708
8.87717
8.75894
8.66747
8.60842
8.58774
8.61107
8.68243
8.80241
8.96601
9.89222
9.67792
9.4674
9.2634
9.06893
8.88748
8.72319
8.58103
8.46706
8.38856
8.35399
8.37243
8.45202
8.5968
8.80203
9.8795
9.63962
9.40314
9.17252
8.95059
8.74072
8.54706
8.37492
8.23116
8.12474
8.06719
8.07261
8.15638
8.33067
8.59487
9.86567
9.59793
9.333
9.07294
8.82019
8.57773
8.34941
8.14041
7.95789
7.81203
7.71738
7.69441
7.77019
7.9746
8.32399
9.85093
9.55344
9.25797
8.96605
8.67949
8.40058
8.13242
7.87939
7.64794
7.44809
7.29586
7.21744
7.25534
7.47351
7.94361
9.83552
9.50691
9.1794
8.85379
8.53112
8.21267
7.90031
7.59676
7.30637
7.03652
6.80051
6.62411
6.56018
6.72044
7.32512
9.81976
9.4593
9.0989
8.73861
8.3785
8.01868
7.65936
7.30094
6.94426
6.59108
6.24554
5.91827
5.6408
5.52291
6.01087
9.55119
9.61955
9.69347
9.77154
9.85233
9.9345
10.0168
10.0981
10.1773
10.2537
10.3265
10.395
10.4589
10.5175
10.5708
10.6183
10.6599
10.6954
10.7248
10.7479
10.7648
10.7755
10.7798
10.778
10.7699
10.7557
10.7355
10.7093
10.6771
10.6391
10.5955
10.5461
10.4913
10.4309
10.3652
10.2942
10.218
10.1367
10.0504
9.95904
9.86284
9.76186
9.65617
9.54588
9.43107
9.31185
9.1883
9.06051
8.92857
8.79256
8.65255
8.50862
8.36083
8.20925
8.05396
7.89503
7.73257
7.56667
7.39744
7.225
7.04949
6.87105
6.68982
6.50595
6.31961
6.13098
5.94022
5.74755
5.55317
5.35735
5.16035
4.96249
4.76413
4.56565
4.36749
4.1701
3.97397
3.7796
3.58751
3.39822
3.21223
3.03004
2.85212
2.67889
2.51075
2.34803
2.19101
2.03989
1.89483
1.75587
9.54111
9.61147
9.68745
9.76755
9.85028
9.93425
10.0182
10.1009
10.1814
10.2588
10.3325
10.4018
10.4662
10.5253
10.5789
10.6267
10.6685
10.7042
10.7336
10.7568
10.7738
10.7844
10.7887
10.7868
10.7786
10.7644
10.744
10.7176
10.6854
10.6473
10.6035
10.554
10.499
10.4386
10.3727
10.3016
10.2253
10.1439
10.0574
9.96596
9.86963
9.76852
9.6627
9.55227
9.43733
9.31797
9.1943
9.06639
8.93434
8.79822
8.65811
8.51408
8.36618
8.2145
8.05909
7.90005
7.73744
7.57138
7.40198
7.22935
7.05364
6.87498
6.69353
6.50944
6.32286
6.13396
5.94292
5.74993
5.5552
5.35897
5.16153
4.96316
4.76424
4.56515
4.36633
4.16824
3.97139
3.77628
3.58345
3.39342
3.20673
3.02387
2.84532
2.67153
2.50291
2.33979
2.18247
2.03116
1.88602
1.74709
9.52076
9.59524
9.67544
9.75969
9.84638
9.93401
10.0212
10.1068
10.1898
10.2693
10.3447
10.4154
10.481
10.541
10.5953
10.6436
10.6858
10.7218
10.7514
10.7747
10.7917
10.8022
10.8065
10.8044
10.7961
10.7816
10.7611
10.7345
10.7019
10.6636
10.6195
10.5698
10.5145
10.4538
10.3877
10.3164
10.2399
10.1582
10.0715
9.9798
9.88323
9.78185
9.67577
9.56506
9.44985
9.33022
9.20629
9.07814
8.94586
8.80954
8.66923
8.525
8.37692
8.22503
8.0694
7.91009
7.7472
7.58082
7.41107
7.23807
7.06195
6.88287
6.70098
6.51643
6.32937
6.13996
5.94836
5.75475
5.55933
5.36231
5.16396
4.96459
4.76454
4.56422
4.36406
4.16457
3.96624
3.76964
3.5753
3.3838
3.19567
3.01145
2.83164
2.65672
2.48711
2.32318
2.16525
2.01355
1.86823
1.72935
9.48974
9.57072
9.65754
9.74827
9.84107
9.93429
10.0265
10.1164
10.2031
10.2857
10.3637
10.4364
10.5036
10.5649
10.6202
10.6693
10.712
10.7484
10.7782
10.8017
10.8186
10.8291
10.8332
10.8309
10.8224
10.8076
10.7867
10.7597
10.7268
10.688
10.6435
10.5934
10.5377
10.4767
10.4102
10.3385
10.2617
10.1797
10.0926
10.0006
9.90363
9.80186
9.69537
9.58425
9.46862
9.34858
9.22425
9.09573
8.96312
8.82648
8.68589
8.54139
8.39303
8.24085
8.08489
7.92522
7.7619
7.59504
7.42476
7.25118
7.07445
6.89474
6.71219
6.52696
6.3392
6.14904
5.95663
5.76212
5.56568
5.3675
5.16782
4.96693
4.76518
4.56299
4.3608
4.15915
3.95858
3.75968
3.56304
3.36927
3.17894
2.99264
2.8109
2.63423
2.4631
2.29792
2.13904
1.98672
1.84113
1.70236
9.44745
9.53771
9.63394
9.73378
9.8351
9.936
10.0349
10.1306
10.2222
10.3088
10.39
10.4653
10.5345
10.5975
10.654
10.704
10.7474
10.7841
10.8143
10.8378
10.8548
10.8651
10.869
10.8664
10.8575
10.8423
10.8209
10.7934
10.7599
10.7206
10.6755
10.6249
10.5687
10.5071
10.4402
10.3681
10.2907
10.2083
10.1208
10.0283
9.93087
9.82858
9.72153
9.60983
9.49362
9.37301
9.24815
9.11913
8.98607
8.84904
8.70809
8.56326
8.41456
8.26202
8.10565
7.94549
7.78162
7.61411
7.4431
7.26874
7.09118
6.91061
6.72719
6.54107
6.3524
6.1613
5.96787
5.77222
5.57447
5.37478
5.17335
4.97045
4.76642
4.56168
4.35673
4.15213
3.94848
3.74642
3.54662
3.34973
3.15639
2.96722
2.78282
2.60373
2.43049
2.26356
2.10335
1.95016
1.80422
1.6656
9.39306
9.49606
9.60507
9.71713
9.82964
9.94047
10.0479
10.1508
10.2482
10.3396
10.4246
10.5029
10.5745
10.6392
10.6971
10.748
10.7921
10.8294
10.8598
10.8834
10.9002
10.9104
10.914
10.911
10.9016
10.8858
10.8637
10.8355
10.8014
10.7613
10.7155
10.6641
10.6073
10.5451
10.4776
10.4049
10.3271
10.2441
10.1561
10.063
9.965
9.86204
9.75427
9.64182
9.52484
9.40349
9.27791
9.14826
9.01464
8.87713
8.73578
8.59059
8.44154
8.2886
8.13177
7.97105
7.80647
7.63815
7.4662
7.29081
7.11218
6.9305
6.74598
6.55879
6.36904
6.17683
5.98223
5.78527
5.586
5.38451
5.18095
4.97554
4.76862
4.56064
4.35211
4.14368
3.93603
3.72988
3.52597
3.32504
3.12779
2.93491
2.74704
2.5648
2.38877
2.21951
2.05751
1.90316
1.75674
1.61835
9.3255
9.4457
9.57174
9.69975
9.82656
9.94971
10.0675
10.1788
10.2829
10.3796
10.4687
10.5502
10.6242
10.6907
10.7499
10.8019
10.8467
10.8843
10.9149
10.9385
10.9552
10.9651
10.9683
10.9647
10.9547
10.9382
10.9153
10.8863
10.8512
10.8102
10.7635
10.7112
10.6535
10.5906
10.5224
10.4491
10.3707
10.2872
10.1986
10.1049
10.0061
9.90233
9.79366
9.68024
9.56227
9.43994
9.31345
9.183
9.04871
8.91067
8.76891
8.62338
8.47401
8.32072
8.16341
8.00205
7.83665
7.66731
7.49418
7.31748
7.13747
6.95442
6.76857
6.5801
6.38915
6.19576
5.99992
5.80158
5.60067
5.39718
5.19115
4.98276
4.77232
4.56031
4.34732
4.13407
3.92137
3.71006
3.501
3.29501
3.09288
2.89535
2.70313
2.51688
2.33729
2.16499
2.00063
1.84472
1.69767
1.55961
9.24345
9.3869
9.53549
9.68406
9.82867
9.96662
10.0963
10.2169
10.3283
10.4304
10.5236
10.6082
10.6845
10.7527
10.8132
10.866
10.9114
10.9493
10.98
11.0035
11.02
11.0294
11.032
11.0278
11.017
10.9996
10.9757
10.9456
10.9094
10.8672
10.8194
10.766
10.7073
10.6434
10.5745
10.5005
10.4215
10.3374
10.2483
10.1539
10.0543
9.94957
9.83978
9.72513
9.60587
9.48227
9.35462
9.22317
9.0881
8.9495
8.80737
8.66161
8.51207
8.35853
8.20081
8.03879
7.87244
7.70185
7.52722
7.34884
7.16708
6.98231
6.79484
6.60493
6.4127
6.21815
6.02116
5.82153
5.61902
5.41343
5.20469
4.99286
4.77825
4.56134
4.34285
4.12363
3.90467
3.68698
3.47157
3.25939
3.05131
2.84812
2.65057
2.45937
2.27526
2.09904
1.93154
1.77353
1.62561
1.48804
9.14538
9.32065
9.49921
9.67402
9.8403
9.99538
10.1381
10.2684
10.3868
10.494
10.5908
10.678
10.7562
10.8259
10.8874
10.9409
10.9866
11.0248
11.0554
11.0787
11.0947
11.1036
11.1055
11.1004
11.0886
11.0701
11.0451
11.0136
10.976
10.9324
10.8831
10.8283
10.7684
10.7035
10.6337
10.559
10.4795
10.395
10.3053
10.2103
10.1098
10.004
9.89281
9.77658
9.65562
9.53035
9.40118
9.26846
9.13247
8.99332
8.85096
8.70522
8.55579
8.40228
8.24433
8.08169
7.91426
7.74213
7.56557
7.38501
7.20097
7.014
6.82458
6.63304
6.43953
6.24399
6.04614
5.84556
5.64173
5.43419
5.22261
5.00694
4.78743
4.56462
4.33937
4.11278
3.88609
3.66057
3.43745
3.21783
3.00266
2.79276
2.58885
2.39161
2.20184
2.02051
1.84876
1.6878
1.53863
1.40175
9.02971
9.24957
9.4683
9.67619
9.86801
10.0418
10.1978
10.337
10.4613
10.5724
10.6719
10.7608
10.8402
10.9108
10.9729
11.0268
11.0728
11.1109
11.1413
11.1641
11.1795
11.1877
11.1887
11.1827
11.1698
11.15
11.1235
11.0905
11.0511
11.0056
10.9545
10.898
10.8366
10.7704
10.6997
10.6245
10.5447
10.4599
10.37
10.2744
10.1731
10.0659
9.95304
9.83473
9.7115
9.58395
9.45273
9.31839
9.18132
9.04166
8.89934
8.75407
8.60529
8.45233
8.29452
8.13141
7.96277
7.78871
7.60961
7.4261
7.23899
7.04915
6.8573
6.66393
6.46924
6.27308
6.07499
5.87421
5.66976
5.46069
5.24637
5.02651
4.8013
4.57136
4.3378
4.10204
3.86578
3.63068
3.39827
3.16983
2.94639
2.72875
2.51748
2.31308
2.11625
1.92816
1.75044
1.58506
1.43395
1.29808
8.89542
9.18009
9.45292
9.70143
9.92158
10.1139
10.2813
10.4271
10.5548
10.6676
10.7679
10.8572
10.9369
11.0077
11.0701
11.1242
11.1701
11.208
11.2379
11.2601
11.2747
11.282
11.282
11.2749
11.2607
11.2395
11.2113
11.1763
11.1348
11.087
11.0335
10.9748
10.9114
10.8439
10.7722
10.6965
10.6167
10.5322
10.4425
10.3468
10.2447
10.136
10.0209
9.89986
9.77349
9.64273
9.50869
9.37217
9.23378
9.09371
8.95191
8.80785
8.66072
8.50928
8.35228
8.18898
8.01899
7.84248
7.65992
7.47231
7.28088
7.08712
6.89211
6.69666
6.50097
6.30489
6.10766
5.90808
5.70436
5.49472
5.27804
5.05372
4.82192
4.58329
4.33932
4.09197
3.84375
3.59688
3.35334
3.11457
2.88176
2.65552
2.4362
2.22362
2.01803
1.82087
1.63431
1.46174
1.30733
1.17305
8.74459
9.1276
9.47249
9.76744
10.0151
10.222
10.3958
10.543
10.6697
10.7809
10.8794
10.9675
11.0463
11.1167
11.179
11.2331
11.2789
11.3164
11.3457
11.3669
11.3804
11.3865
11.3854
11.3772
11.3617
11.3389
11.3088
11.2716
11.2273
11.1765
11.1197
11.0581
10.9923
10.923
10.8503
10.7745
10.6953
10.6121
10.5235
10.4282
10.3256
10.2152
10.0974
9.97247
9.84167
9.70615
9.56809
9.42852
9.28855
9.14818
9.0076
8.86596
8.72228
8.57411
8.41902
8.25608
8.08452
7.90485
7.71739
7.52394
7.32605
7.12678
6.92749
6.72966
6.5332
6.33828
6.14365
5.94785
5.7474
5.53881
5.32066
5.09166
4.85231
4.60285
4.34568
4.08309
3.81976
3.55821
3.30152
3.0507
2.80761
2.57231
2.34518
2.12408
1.90764
1.69829
1.49804
1.31223
1.15172
1.0204
8.59276
9.12993
9.56391
9.90149
10.1672
10.3777
10.5485
10.6884
10.807
10.9121
11.0058
11.0911
11.1677
11.2375
11.2994
11.354
11.3997
11.4367
11.4648
11.4847
11.4967
11.5014
11.4991
11.4898
11.473
11.4487
11.4166
11.3769
11.329
11.2744
11.2128
11.1475
11.0782
11.0069
10.9328
10.8574
10.7794
10.6995
10.6142
10.5201
10.4176
10.305
10.1841
10.0534
9.91658
9.77312
9.62959
9.48537
9.34381
9.20286
9.06474
8.92692
8.79021
8.64884
8.49697
8.33554
8.16165
7.97839
7.78342
7.58189
7.37314
7.16642
6.96071
6.76061
6.56313
6.37122
6.18126
5.99425
5.80211
5.59664
5.37884
5.14446
4.89722
4.63345
4.35982
4.07524
3.79316
3.51254
3.24119
2.97568
2.72224
2.47729
2.24546
2.01782
1.78703
1.5626
1.34095
1.1263
0.954048
0.829658
8.51716
9.28081
9.79409
10.1389
10.3989
10.5902
10.7459
10.8641
10.9637
11.0598
11.1443
11.2269
11.299
11.3695
11.4301
11.4878
11.5327
11.5697
11.5957
11.6138
11.6235
11.626
11.6228
11.613
11.5948
11.57
11.535
11.4938
11.4405
11.3822
11.3113
11.2424
11.1667
11.0947
11.017
10.9438
10.8661
10.7945
10.7176
10.6238
10.5242
10.4064
10.2847
10.1432
10.0009
9.84009
9.69197
9.53827
9.39807
9.25338
9.12134
8.98618
8.86475
8.73858
8.58861
8.43282
8.25219
8.06871
7.85879
7.65015
7.41724
7.20451
6.98575
6.78773
6.58496
6.40127
6.21456
6.04797
5.87593
5.67216
5.46085
5.21571
4.96587
4.67821
4.38967
4.06373
3.7644
3.45348
3.17241
2.88325
2.62458
2.36336
2.13969
1.91606
1.65725
1.42286
1.17378
0.879298
0.687443
0.582447
8.90232
9.79217
10.2668
10.4983
10.7295
10.8538
10.9972
11.0667
11.125
11.2243
11.2855
11.3775
11.4326
11.5156
11.5647
11.6402
11.6767
11.7188
11.7377
11.7549
11.7604
11.7588
11.756
11.7482
11.726
11.7057
11.6623
11.6279
11.5592
11.5078
11.407
11.3469
11.25
11.1906
11.0949
11.0364
10.9442
10.8968
10.8453
10.7359
10.657
10.5134
10.4136
10.2343
10.1115
9.88873
9.76229
9.57163
9.4587
9.28559
9.18235
9.02556
8.94605
8.86252
8.68854
8.56579
8.34673
8.19703
7.93223
7.75327
7.43222
7.25121
6.98086
6.82163
6.57927
6.43559
6.21883
6.10947
5.99541
5.75845
5.59154
5.29368
5.08892
4.72421
4.47331
4.01388
3.75228
3.35142
3.11524
2.7469
2.53059
2.19532
2.03382
1.86497
1.49228
1.30427
1.07199
0.484498
0.295755
0.245775
1.60972
1.4589
1.3164
1.18178
1.05454
0.934052
0.819685
0.710762
0.6066
0.506519
0.409854
0.31595
0.224174
0.133905
0.0445355
1.60108
1.45056
1.30849
1.17441
1.04776
0.927925
0.814233
0.705993
0.602511
0.5031
0.407087
0.31382
0.222665
0.133005
0.0442362
1.58366
1.43377
1.29258
1.15958
1.03416
0.915644
0.803319
0.696459
0.594346
0.496276
0.40157
0.309574
0.219658
0.131211
0.0436402
1.55715
1.40827
1.26847
1.13716
1.01365
0.897163
0.786931
0.682172
0.582131
0.486083
0.393339
0.303246
0.215179
0.128541
0.0427531
1.52111
1.37367
1.23586
1.10694
0.986088
0.872421
0.765061
0.66316
0.565916
0.47258
0.382454
0.294887
0.209269
0.12502
0.0415835
1.47487
1.32943
1.19433
1.06864
0.951334
0.841362
0.737724
0.639483
0.545787
0.455862
0.369005
0.284576
0.201987
0.120685
0.0401442
1.41755
1.27484
1.14338
1.02195
0.909232
0.803961
0.70498
0.611256
0.521883
0.43607
0.353123
0.272424
0.193416
0.115587
0.0384523
1.34794
1.20897
1.0824
0.966535
0.85967
0.760263
0.666973
0.57867
0.494413
0.413409
0.334989
0.258578
0.183666
0.109792
0.0365302
1.26445
1.13069
1.01071
0.902106
0.802643
0.710438
0.62397
0.542035
0.463683
0.388158
0.314844
0.24323
0.172874
0.103385
0.0344059
1.16492
1.0386
0.92764
0.828527
0.738349
0.654869
0.576427
0.50181
0.430122
0.360691
0.292997
0.22662
0.161212
0.0964687
0.0321136
1.04642
0.93116
0.832711
0.746002
0.66735
0.594254
0.525053
0.458649
0.394299
0.331485
0.269828
0.20904
0.148885
0.0891625
0.0296931
0.905042
0.806892
0.726032
0.655412
0.59079
0.529736
0.470877
0.413431
0.356937
0.301117
0.245789
0.190823
0.136122
0.0816028
0.0271892
0.735959
0.665325
0.609107
0.558817
0.510654
0.463018
0.415285
0.367254
0.318897
0.270254
0.221383
0.172341
0.123178
0.0739359
0.02465
0.535285
0.509336
0.486246
0.460088
0.429987
0.396391
0.359986
0.321399
0.281141
0.239617
0.197146
0.153977
0.11031
0.0663125
0.0221248
0.309105
0.350482
0.366448
0.365299
0.352808
0.33257
0.306866
0.27721
0.244647
0.209926
0.173604
0.136108
0.0977733
0.0588782
0.0196611
9.8053
9.4156
9.02501
8.63285
8.23832
7.84038
7.43765
7.02818
6.60909
6.17575
5.72005
5.22558
4.65174
3.86978
2.36195
9.79235
9.37648
8.95892
8.53836
8.11325
7.68161
7.24077
6.7869
6.31427
5.81368
5.26924
4.65098
3.89711
2.871
1.27812
9.77978
9.33855
8.8949
8.44702
7.99271
7.52924
7.05292
6.55864
6.03887
5.48207
4.86967
4.17054
3.33152
2.26581
0.863297
9.76776
9.3023
8.83383
8.36013
7.87854
7.38577
6.87755
6.34806
5.78917
5.18906
4.53033
3.78724
2.92334
1.8945
0.673526
9.75641
9.26812
8.7764
8.27871
7.77211
7.25303
6.71693
6.15791
5.56808
4.93676
4.24957
3.48783
2.62969
1.65662
0.571309
9.74585
9.23633
8.72311
8.20348
7.67436
7.1321
6.57223
5.98915
5.3758
4.72325
4.02058
3.25536
2.41586
1.49667
0.50889
9.73612
9.20712
8.67428
8.13484
7.58573
7.0234
6.44363
5.84142
5.21074
4.54455
3.83503
3.07445
2.25736
1.38434
0.467306
9.72727
9.18056
8.63001
8.07292
7.50629
6.92679
6.33063
5.71344
5.07033
4.39594
3.68492
2.9328
2.13769
1.30259
0.437926
9.7193
9.15666
8.5903
8.01761
7.43578
6.84176
6.23221
5.60347
4.95163
4.27276
3.56334
2.82102
2.04579
1.24138
0.416311
9.71217
9.13535
8.55499
7.96864
7.37372
6.76752
6.14713
5.50954
4.8517
4.1708
3.4646
2.73207
1.97415
1.1945
0.399946
9.70587
9.1165
8.52383
7.92561
7.31951
6.70312
6.07399
5.42966
4.7678
4.0864
3.38414
2.66077
1.9176
1.15796
0.387288
9.70032
9.09994
8.49654
7.88806
7.27243
6.64757
6.01141
5.36196
4.69745
4.01649
3.31835
2.60321
1.87249
1.1291
0.37734
9.69547
9.08549
8.47276
7.85547
7.23177
6.59987
5.95805
5.30471
4.63851
3.95852
3.26436
2.55646
1.83619
1.10603
0.369422
9.69125
9.07294
8.45217
7.82732
7.19679
6.55906
5.91268
5.25638
4.58916
3.91038
3.21992
2.51829
1.80677
1.08743
0.363057
9.68761
9.06209
8.4344
7.80311
7.16683
6.52425
5.8742
5.21565
4.54784
3.87036
3.18323
2.48699
1.78278
1.07233
0.357901
9.68447
9.05276
8.41914
7.78236
7.14123
6.49464
5.84161
5.18134
4.51323
3.83704
3.15286
2.46122
1.76312
1.06
0.353697
9.68177
9.04476
8.40607
7.76464
7.11942
6.46951
5.81407
5.15246
4.48425
3.80927
3.12766
2.43993
1.74694
1.04988
0.350252
9.67947
9.03792
8.39491
7.74953
7.10089
6.4482
5.7908
5.12816
4.45996
3.78609
3.10673
2.42231
1.73358
1.04154
0.347417
9.6775
9.03208
8.38541
7.73668
7.08516
6.43017
5.77117
5.10773
4.4396
3.76674
3.0893
2.40768
1.72252
1.03465
0.345075
9.67583
9.02712
8.37733
7.72578
7.07183
6.41493
5.75462
5.09055
4.42254
3.75056
3.07477
2.39551
1.71334
1.02893
0.343136
9.6744
9.0229
8.37048
7.71654
7.06056
6.40206
5.74067
5.07611
4.40823
3.73702
3.06264
2.38538
1.7057
1.02419
0.341526
9.6732
9.01933
8.36467
7.70872
7.05103
6.39121
5.72893
5.06397
4.39622
3.72569
3.05251
2.37693
1.69934
1.02024
0.340187
9.67218
9.0163
8.35976
7.70211
7.04299
6.38205
5.71904
5.05377
4.38615
3.7162
3.04403
2.36987
1.69404
1.01695
0.339072
9.67131
9.01375
8.35561
7.69653
7.03621
6.37434
5.71072
5.0452
4.37771
3.70825
3.03694
2.36397
1.68961
1.0142
0.338141
9.67058
9.01159
8.3521
7.69183
7.03049
6.36785
5.70373
5.038
4.37062
3.70159
3.03101
2.35904
1.68591
1.01191
0.337364
9.66997
9.00976
8.34915
7.68786
7.02567
6.36238
5.69785
5.03196
4.36467
3.69601
3.02604
2.35491
1.68282
1.00999
0.336715
9.66945
9.00823
8.34666
7.68452
7.02162
6.35779
5.6929
5.02688
4.35968
3.69133
3.02188
2.35146
1.68023
1.00839
0.336172
9.66901
9.00693
8.34456
7.68171
7.01821
6.35393
5.68875
5.02262
4.3555
3.6874
3.01839
2.34857
1.67806
1.00705
0.335718
9.66864
9.00584
8.3428
7.67934
7.01534
6.35068
5.68527
5.01904
4.35199
3.68412
3.01547
2.34615
1.67625
1.00593
0.335339
9.66833
9.00493
8.34132
7.67736
7.01294
6.34796
5.68234
5.01605
4.34905
3.68136
3.01303
2.34412
1.67473
1.00499
0.335021
9.66807
9.00416
8.34007
7.67569
7.01092
6.34567
5.67989
5.01354
4.34659
3.67906
3.01099
2.34243
1.67347
1.0042
0.334756
9.66786
9.00352
8.33903
7.6743
7.00923
6.34376
5.67784
5.01144
4.34453
3.67713
3.00928
2.34101
1.67241
1.00355
0.334534
9.66768
9.00298
8.33816
7.67313
7.00782
6.34217
5.67613
5.00969
4.34281
3.67553
3.00785
2.33983
1.67152
1.003
0.334349
9.66752
9.00254
8.33744
7.67216
7.00664
6.34084
5.67471
5.00823
4.34139
3.67419
3.00667
2.33885
1.67079
1.00255
0.334196
9.6674
9.00216
8.33683
7.67135
7.00567
6.33974
5.67353
5.00702
4.3402
3.67308
3.00569
2.33804
1.67018
1.00217
0.334069
9.66729
9.00186
8.33634
7.67069
7.00487
6.33883
5.67255
5.00602
4.33923
3.67217
3.00488
2.33737
1.66968
1.00186
0.333964
9.66721
9.00161
8.33593
7.67015
7.00421
6.33809
5.67176
5.00521
4.33843
3.67143
3.00422
2.33682
1.66927
1.00161
0.333879
9.66714
9.00141
8.33561
7.66971
7.00368
6.33749
5.67112
5.00455
4.33779
3.67083
3.00369
2.33638
1.66895
1.00141
0.33381
9.66709
9.00125
8.33535
7.66937
7.00326
6.33702
5.67061
5.00404
4.33728
3.67036
3.00327
2.33604
1.66869
1.00125
0.333756
9.66705
9.00112
8.33515
7.6691
7.00295
6.33666
5.67023
5.00364
4.3369
3.67
3.00295
2.33577
1.66849
1.00113
0.333714
9.66702
9.00104
8.33501
7.66891
7.00272
6.3364
5.66995
5.00336
4.33662
3.66974
3.00272
2.33558
1.66835
1.00104
0.333685
9.667
9.00098
8.33492
7.66879
7.00257
6.33623
5.66977
5.00318
4.33644
3.66957
3.00257
2.33546
1.66826
1.00098
0.333666
9.66699
9.00095
8.33488
7.66873
7.0025
6.33616
5.66969
5.00309
4.33636
3.66949
3.0025
2.3354
1.66821
1.00096
0.333657
9.66699
9.00096
8.33488
7.66874
7.00251
6.33616
5.6697
5.0031
4.33637
3.6695
3.00251
2.33541
1.66822
1.00096
0.333658
9.667
9.00099
8.33493
7.66881
7.00259
6.33626
5.6698
5.0032
4.33647
3.66959
3.00259
2.33548
1.66827
1.00099
0.333668
9.66702
9.00105
8.33503
7.66894
7.00275
6.33644
5.66999
5.0034
4.33666
3.66977
3.00275
2.33561
1.66837
1.00105
0.333689
9.66705
9.00114
8.33518
7.66914
7.003
6.33672
5.67029
5.0037
4.33696
3.67005
3.003
2.33581
1.66852
1.00115
0.333721
9.6671
9.00127
8.33539
7.66942
7.00333
6.33709
5.67069
5.00412
4.33736
3.67043
3.00333
2.33609
1.66873
1.00127
0.333764
9.66715
9.00144
8.33566
7.66978
7.00377
6.33759
5.67122
5.00466
4.33789
3.67093
3.00377
2.33645
1.669
1.00144
0.333821
9.66722
9.00165
8.336
7.67024
7.00432
6.33821
5.67189
5.00534
4.33856
3.67155
3.00432
2.33691
1.66934
1.00165
0.333892
9.66731
9.00191
8.33642
7.6708
7.005
6.33898
5.67271
5.00618
4.33938
3.67232
3.00501
2.33748
1.66976
1.00191
0.333981
9.66742
9.00223
8.33693
7.67149
7.00583
6.33992
5.67372
5.00722
4.34039
3.67326
3.00584
2.33817
1.67028
1.00223
0.334089
9.66755
9.00261
8.33756
7.67232
7.00684
6.34106
5.67494
5.00847
4.34162
3.67441
3.00686
2.33901
1.67091
1.00262
0.334221
9.66771
9.00307
8.33831
7.67332
7.00805
6.34243
5.67641
5.00997
4.34309
3.67579
3.00808
2.34002
1.67167
1.00309
0.334379
9.66789
9.00363
8.33921
7.67453
7.00951
6.34408
5.67818
5.01178
4.34487
3.67745
3.00955
2.34124
1.67258
1.00365
0.33457
9.66812
9.00429
8.34028
7.67597
7.01126
6.34605
5.6803
5.01395
4.34699
3.67943
3.01132
2.3427
1.67367
1.00433
0.334798
9.66839
9.00509
8.34157
7.67769
7.01334
6.34841
5.68283
5.01654
4.34953
3.68181
3.01342
2.34444
1.67498
1.00514
0.335071
9.66871
9.00603
8.3431
7.67974
7.01582
6.35122
5.68584
5.01963
4.35256
3.68465
3.01594
2.34653
1.67654
1.0061
0.335399
9.66909
9.00716
8.34492
7.68218
7.01878
6.35457
5.68944
5.02332
4.35618
3.68804
3.01895
2.34903
1.6784
1.00726
0.335789
9.66954
9.00849
8.34708
7.68509
7.02231
6.35856
5.69373
5.02772
4.36049
3.69208
3.02254
2.352
1.68063
1.00864
0.336257
9.67008
9.01008
8.34966
7.68854
7.02649
6.36331
5.69883
5.03295
4.36564
3.6969
3.02683
2.35556
1.6833
1.01029
0.336815
9.67071
9.01197
8.35272
7.69265
7.03147
6.36895
5.7049
5.03919
4.37177
3.70265
3.03194
2.3598
1.68648
1.01226
0.337482
9.67147
9.0142
8.35634
7.69752
7.03738
6.37566
5.71212
5.04661
4.37907
3.70951
3.03805
2.36488
1.69028
1.01461
0.33828
9.67236
9.01685
8.36064
7.70329
7.0444
6.38363
5.72071
5.05545
4.38777
3.71769
3.04534
2.37094
1.69483
1.01743
0.339235
9.67342
9.01999
8.36573
7.71013
7.05272
6.39309
5.73091
5.06597
4.39815
3.72746
3.05405
2.37818
1.70027
1.02081
0.340379
9.67467
9.0237
8.37175
7.71824
7.06258
6.40432
5.74304
5.07849
4.41051
3.73911
3.06445
2.38686
1.70679
1.02485
0.34175
9.67615
9.02808
8.37887
7.72782
7.07427
6.41763
5.75745
5.09338
4.42525
3.75303
3.0769
2.39725
1.71461
1.02971
0.343396
9.67789
9.03324
8.38727
7.73914
7.08808
6.43341
5.77456
5.11111
4.44282
3.76965
3.09181
2.4097
1.724
1.03555
0.345377
9.67994
9.03932
8.39716
7.7525
7.10441
6.45209
5.79486
5.13219
4.46377
3.78953
3.10967
2.42466
1.73529
1.04257
0.347763
9.68235
9.04646
8.40879
7.76822
7.12368
6.47419
5.81893
5.15726
4.48876
3.81331
3.1311
2.44266
1.7489
1.05106
0.350646
9.68517
9.05483
8.42245
7.78671
7.14638
6.50029
5.84746
5.18707
4.51859
3.84179
3.15684
2.46435
1.76535
1.06133
0.354139
9.68846
9.06461
8.43843
7.8084
7.17307
6.53108
5.88123
5.2225
4.55419
3.87593
3.18784
2.49055
1.78528
1.0738
0.358386
9.6923
9.07601
8.45708
7.83376
7.20438
6.56734
5.92116
5.26459
4.59669
3.91689
3.22521
2.52229
1.80952
1.08902
0.363573
9.69675
9.08924
8.47877
7.86334
7.24102
6.60993
5.9683
5.31456
4.64744
3.96611
3.27039
2.56088
1.83912
1.10766
0.369942
9.70188
9.10455
8.50389
7.8977
7.28375
6.65985
6.02386
5.37382
4.70805
4.02532
3.32514
2.60797
1.87547
1.13065
0.377814
9.70779
9.12215
8.53286
7.93744
7.33339
6.71815
6.08917
5.44401
4.78043
4.09666
3.3917
2.6657
1.92036
1.15921
0.387624
9.71454
9.14229
8.56608
7.98319
7.3908
6.78598
6.16573
5.52698
4.86682
4.1827
3.47286
2.73687
1.97624
1.19502
0.399974
9.7222
9.16519
8.60394
8.03553
7.45683
6.86454
6.25512
5.62482
4.96985
4.28661
3.57219
2.82513
2.0464
1.24044
0.415726
9.73083
9.19103
8.64679
8.095
7.5323
6.95499
6.359
5.73979
5.09251
4.41216
3.69418
2.93539
2.13548
1.29888
0.436156
9.74048
9.21994
8.69488
8.16205
7.6179
7.05842
6.47899
5.87426
5.23813
4.56385
3.84451
3.07419
2.25005
1.37545
0.463247
9.75116
9.252
8.74835
8.23695
7.71415
7.17571
6.61655
6.03054
5.41025
4.74682
4.03023
3.25036
2.39966
1.47812
0.500262
9.76286
9.28719
8.80721
8.31977
7.82126
7.30737
6.77274
6.21062
5.61231
4.96669
4.25988
3.47572
2.59846
1.61991
0.553013
9.77555
9.32536
8.87124
8.41027
7.93906
7.45342
6.94803
6.41582
5.84722
5.22907
4.54325
3.76573
2.8676
1.82305
0.632934
9.78912
9.36626
8.94002
8.50789
8.06686
7.61319
7.14193
6.64628
6.11654
5.53841
4.8903
4.13949
3.2384
2.12728
0.765455
9.80345
9.40949
9.0129
8.61168
8.20345
7.78517
7.35275
6.9004
6.41946
5.89636
5.30864
4.61761
3.75506
2.60561
1.01539
9.81838
9.45456
9.08899
8.72033
8.34701
7.96696
7.57742
7.17437
6.75166
6.29916
5.79872
5.21483
4.47093
3.39003
1.57126
9.8337
9.50084
9.16721
8.83223
8.49522
8.15534
7.81145
7.46198
7.10454
6.73523
6.34675
5.92315
5.42081
4.68686
3.0464
9.84919
9.54765
9.24636
8.94553
8.64543
8.34648
8.04935
7.75511
7.46566
7.18459
6.91916
6.68613
6.53151
6.61318
7.61342
9.86463
9.59429
9.3252
9.05831
8.79483
8.53637
8.28523
8.04489
7.82096
7.62308
7.46904
7.39464
7.4781
7.90159
9.07869
9.87979
9.64007
9.40249
9.16871
8.94073
8.72116
8.51359
8.32326
8.15816
8.03109
7.9636
7.9935
8.18853
8.66664
9.60011
0.127172
0.228155
0.272317
0.288804
0.28916
0.279073
0.261793
0.239366
0.213169
0.184174
0.1531
0.120495
0.0867941
0.0523581
0.0174988
0.0682783
0.156407
0.205959
0.230462
0.238547
0.235432
0.22439
0.20758
0.186494
0.162207
0.135522
0.107061
0.0773229
0.0467243
0.0156289
0.0430146
0.111446
0.156996
0.183521
0.19571
0.197294
0.190991
0.178761
0.16204
0.141903
0.119176
0.0945132
0.0684488
0.0414351
0.0138717
0.0299713
0.0823739
0.121244
0.146533
0.160237
0.164633
0.161706
0.15306
0.139957
0.123396
0.104174
0.0829382
0.0602334
0.0365274
0.0122395
0.0221637
0.0626986
0.0949238
0.117588
0.131227
0.137054
0.136391
0.130451
0.120276
0.106738
0.0905678
0.072383
0.0527127
0.0320236
0.0107397
0.0169899
0.0487933
0.0752424
0.0949082
0.107642
0.113982
0.114741
0.110784
0.102928
0.0919055
0.0783609
0.0628587
0.045899
0.0279327
0.00937576
0.0133271
0.038606
0.060271
0.0770419
0.0884968
0.0947848
0.0963639
0.0938226
0.0877781
0.0788245
0.0675128
0.0543461
0.0397842
0.0242516
0.00814685
0.0106195
0.0309281
0.0486978
0.0628667
0.0729388
0.0788569
0.0808476
0.0792937
0.0746478
0.0673805
0.0579523
0.0468019
0.0343432
0.0209676
0.00704911
0.00855775
0.0250131
0.0396249
0.051536
0.0602649
0.0656559
0.0677922
0.0669113
0.0633375
0.0574365
0.0495873
0.0401659
0.0295387
0.0180605
0.00607614
0.00695441
0.0203781
0.032427
0.0424149
0.0499086
0.0547144
0.0568317
0.0563984
0.0536427
0.0488451
0.0423137
0.0343669
0.0253248
0.0155047
0.00521974
0.0056879
0.0166978
0.0266601
0.0350255
0.0414185
0.0456395
0.0476419
0.0474981
0.0453653
0.0414575
0.0360227
0.0293283
0.0216511
0.0132715
0.00447063
0.00467548
0.0137447
0.0220019
0.0290056
0.0344363
0.038105
0.0399422
0.0399784
0.0383204
0.0351299
0.0306061
0.024972
0.0184651
0.0113309
0.00381897
0.00385863
0.0113556
0.0182141
0.0240777
0.0286776
0.0318419
0.033493
0.0336351
0.0323393
0.0297279
0.0259603
0.0212217
0.0157146
0.00965233
0.00325481
0.00319473
0.0094097
0.015117
0.0200273
0.0239154
0.0266295
0.0280914
0.02829
0.0272717
0.0251286
0.0219885
0.0180048
0.0133494
0.00820658
0.00276849
0.00265199
0.00781633
0.0125731
0.0166866
0.0199685
0.0222866
0.0235667
0.0237898
0.0229848
0.0212216
0.0186024
0.0152543
0.0113226
0.00696581
0.0023508
0.0022062
0.00650592
0.010476
0.0139232
0.0166906
0.0186642
0.0197761
0.0200032
0.0193632
0.0179089
0.0157224
0.0129088
0.00959092
0.00590433
0.00199323
0.00183866
0.0054244
0.00874174
0.011632
0.0139639
0.01564
0.0165997
0.0168187
0.0163069
0.0151046
0.0132777
0.0109135
0.00811522
0.0049987
0.00168799
0.00153468
0.00452922
0.00730407
0.00972831
0.0116924
0.0131133
0.0139376
0.0141416
0.01373
0.0127338
0.0112062
0.0092194
0.00686047
0.0042279
0.00142806
0.00128267
0.00378655
0.00610982
0.00814414
0.00979796
0.0110009
0.0117062
0.0118917
0.011559
0.0107319
0.0094535
0.00778367
0.0057957
0.00357323
0.00120719
0.00107332
0.00316929
0.00511619
0.00682414
0.00821659
0.0092339
0.00983567
0.0100016
0.00973138
0.0090433
0.00797255
0.00656881
0.00489373
0.00301824
0.00101988
0.000899149
0.00265552
0.00428845
0.00572319
0.00689566
0.00775542
0.00826771
0.00841436
0.00819382
0.00762038
0.00672277
0.00554233
0.00413089
0.00254855
0.000861306
0.000754085
0.00222746
0.0035983
0.00480433
0.00579183
0.00651819
0.00695361
0.00708202
0.00690125
0.00642251
0.00566935
0.00467621
0.00348671
0.0021517
0.000727286
0.000633181
0.00187058
0.00302259
0.00403718
0.0048693
0.00548295
0.00585265
0.00596434
0.00581555
0.00541516
0.00478254
0.00394643
0.00294355
0.00181692
0.000614201
0.000532386
0.00157298
0.00254228
0.00339672
0.00409846
0.00461707
0.00493083
0.00502749
0.00490455
0.00456904
0.00403699
0.00333244
0.00248629
0.00153498
0.000518943
0.000448375
0.00132489
0.0021417
0.00286228
0.00345475
0.00389341
0.00415973
0.0042431
0.00414111
0.00385939
0.00341121
0.00281674
0.00210205
0.00129797
0.000438853
0.000378413
0.00111825
0.00180795
0.00241677
0.00291785
0.00328939
0.00351564
0.00358741
0.00350245
0.00326529
0.002887
0.00238451
0.00177986
0.00109918
0.000371668
0.000320245