# vtk DataFile Version 2.0
generated by CFD-lab course output (written by Tobias Neckel) 
ASCII

DATASET STRUCTURED_GRID
DIMENSIONS  99 19 1 
POINTS 1881 float

0.000000 0.000000 0
0.100000 0.000000 0
0.200000 0.000000 0
0.300000 0.000000 0
0.400000 0.000000 0
0.500000 0.000000 0
0.600000 0.000000 0
0.700000 0.000000 0
0.800000 0.000000 0
0.900000 0.000000 0
1.000000 0.000000 0
1.100000 0.000000 0
1.200000 0.000000 0
1.300000 0.000000 0
1.400000 0.000000 0
1.500000 0.000000 0
1.600000 0.000000 0
1.700000 0.000000 0
1.800000 0.000000 0
1.900000 0.000000 0
2.000000 0.000000 0
2.100000 0.000000 0
2.200000 0.000000 0
2.300000 0.000000 0
2.400000 0.000000 0
2.500000 0.000000 0
2.600000 0.000000 0
2.700000 0.000000 0
2.800000 0.000000 0
2.900000 0.000000 0
3.000000 0.000000 0
3.100000 0.000000 0
3.200000 0.000000 0
3.300000 0.000000 0
3.400000 0.000000 0
3.500000 0.000000 0
3.600000 0.000000 0
3.700000 0.000000 0
3.800000 0.000000 0
3.900000 0.000000 0
4.000000 0.000000 0
4.100000 0.000000 0
4.200000 0.000000 0
4.300000 0.000000 0
4.400000 0.000000 0
4.500000 0.000000 0
4.600000 0.000000 0
4.700000 0.000000 0
4.800000 0.000000 0
4.900000 0.000000 0
5.000000 0.000000 0
5.100000 0.000000 0
5.200000 0.000000 0
5.300000 0.000000 0
5.400000 0.000000 0
5.500000 0.000000 0
5.600000 0.000000 0
5.700000 0.000000 0
5.800000 0.000000 0
5.900000 0.000000 0
6.000000 0.000000 0
6.100000 0.000000 0
6.200000 0.000000 0
6.300000 0.000000 0
6.400000 0.000000 0
6.500000 0.000000 0
6.600000 0.000000 0
6.700000 0.000000 0
6.800000 0.000000 0
6.900000 0.000000 0
7.000000 0.000000 0
7.100000 0.000000 0
7.200000 0.000000 0
7.300000 0.000000 0
7.400000 0.000000 0
7.500000 0.000000 0
7.600000 0.000000 0
7.700000 0.000000 0
7.800000 0.000000 0
7.900000 0.000000 0
8.000000 0.000000 0
8.100000 0.000000 0
8.200000 0.000000 0
8.300000 0.000000 0
8.400000 0.000000 0
8.500000 0.000000 0
8.600000 0.000000 0
8.700000 0.000000 0
8.800000 0.000000 0
8.900000 0.000000 0
9.000000 0.000000 0
9.100000 0.000000 0
9.200000 0.000000 0
9.300000 0.000000 0
9.400000 0.000000 0
9.500000 0.000000 0
9.600000 0.000000 0
9.700000 0.000000 0
9.800000 0.000000 0
0.000000 0.100000 0
0.100000 0.100000 0
0.200000 0.100000 0
0.300000 0.100000 0
0.400000 0.100000 0
0.500000 0.100000 0
0.600000 0.100000 0
0.700000 0.100000 0
0.800000 0.100000 0
0.900000 0.100000 0
1.000000 0.100000 0
1.100000 0.100000 0
1.200000 0.100000 0
1.300000 0.100000 0
1.400000 0.100000 0
1.500000 0.100000 0
1.600000 0.100000 0
1.700000 0.100000 0
1.800000 0.100000 0
1.900000 0.100000 0
2.000000 0.100000 0
2.100000 0.100000 0
2.200000 0.100000 0
2.300000 0.100000 0
2.400000 0.100000 0
2.500000 0.100000 0
2.600000 0.100000 0
2.700000 0.100000 0
2.800000 0.100000 0
2.900000 0.100000 0
3.000000 0.100000 0
3.100000 0.100000 0
3.200000 0.100000 0
3.300000 0.100000 0
3.400000 0.100000 0
3.500000 0.100000 0
3.600000 0.100000 0
3.700000 0.100000 0
3.800000 0.100000 0
3.900000 0.100000 0
4.000000 0.100000 0
4.100000 0.100000 0
4.200000 0.100000 0
4.300000 0.100000 0
4.400000 0.100000 0
4.500000 0.100000 0
4.600000 0.100000 0
4.700000 0.100000 0
4.800000 0.100000 0
4.900000 0.100000 0
5.000000 0.100000 0
5.100000 0.100000 0
5.200000 0.100000 0
5.300000 0.100000 0
5.400000 0.100000 0
5.500000 0.100000 0
5.600000 0.100000 0
5.700000 0.100000 0
5.800000 0.100000 0
5.900000 0.100000 0
6.000000 0.100000 0
6.100000 0.100000 0
6.200000 0.100000 0
6.300000 0.100000 0
6.400000 0.100000 0
6.500000 0.100000 0
6.600000 0.100000 0
6.700000 0.100000 0
6.800000 0.100000 0
6.900000 0.100000 0
7.000000 0.100000 0
7.100000 0.100000 0
7.200000 0.100000 0
7.300000 0.100000 0
7.400000 0.100000 0
7.500000 0.100000 0
7.600000 0.100000 0
7.700000 0.100000 0
7.800000 0.100000 0
7.900000 0.100000 0
8.000000 0.100000 0
8.100000 0.100000 0
8.200000 0.100000 0
8.300000 0.100000 0
8.400000 0.100000 0
8.500000 0.100000 0
8.600000 0.100000 0
8.700000 0.100000 0
8.800000 0.100000 0
8.900000 0.100000 0
9.000000 0.100000 0
9.100000 0.100000 0
9.200000 0.100000 0
9.300000 0.100000 0
9.400000 0.100000 0
9.500000 0.100000 0
9.600000 0.100000 0
9.700000 0.100000 0
9.800000 0.100000 0
0.000000 0.200000 0
0.100000 0.200000 0
0.200000 0.200000 0
0.300000 0.200000 0
0.400000 0.200000 0
0.500000 0.200000 0
0.600000 0.200000 0
0.700000 0.200000 0
0.800000 0.200000 0
0.900000 0.200000 0
1.000000 0.200000 0
1.100000 0.200000 0
1.200000 0.200000 0
1.300000 0.200000 0
1.400000 0.200000 0
1.500000 0.200000 0
1.600000 0.200000 0
1.700000 0.200000 0
1.800000 0.200000 0
1.900000 0.200000 0
2.000000 0.200000 0
2.100000 0.200000 0
2.200000 0.200000 0
2.300000 0.200000 0
2.400000 0.200000 0
2.500000 0.200000 0
2.600000 0.200000 0
2.700000 0.200000 0
2.800000 0.200000 0
2.900000 0.200000 0
3.000000 0.200000 0
3.100000 0.200000 0
3.200000 0.200000 0
3.300000 0.200000 0
3.400000 0.200000 0
3.500000 0.200000 0
3.600000 0.200000 0
3.700000 0.200000 0
3.800000 0.200000 0
3.900000 0.200000 0
4.000000 0.200000 0
4.100000 0.200000 0
4.200000 0.200000 0
4.300000 0.200000 0
4.400000 0.200000 0
4.500000 0.200000 0
4.600000 0.200000 0
4.700000 0.200000 0
4.800000 0.200000 0
4.900000 0.200000 0
5.000000 0.200000 0
5.100000 0.200000 0
5.200000 0.200000 0
5.300000 0.200000 0
5.400000 0.200000 0
5.500000 0.200000 0
5.600000 0.200000 0
5.700000 0.200000 0
5.800000 0.200000 0
5.900000 0.200000 0
6.000000 0.200000 0
6.100000 0.200000 0
6.200000 0.200000 0
6.300000 0.200000 0
6.400000 0.200000 0
6.500000 0.200000 0
6.600000 0.200000 0
6.700000 0.200000 0
6.800000 0.200000 0
6.900000 0.200000 0
7.000000 0.200000 0
7.100000 0.200000 0
7.200000 0.200000 0
7.300000 0.200000 0
7.400000 0.200000 0
7.500000 0.200000 0
7.600000 0.200000 0
7.700000 0.200000 0
7.800000 0.200000 0
7.900000 0.200000 0
8.000000 0.200000 0
8.100000 0.200000 0
8.200000 0.200000 0
8.300000 0.200000 0
8.400000 0.200000 0
8.500000 0.200000 0
8.600000 0.200000 0
8.700000 0.200000 0
8.800000 0.200000 0
8.900000 0.200000 0
9.000000 0.200000 0
9.100000 0.200000 0
9.200000 0.200000 0
9.300000 0.200000 0
9.400000 0.200000 0
9.500000 0.200000 0
9.600000 0.200000 0
9.700000 0.200000 0
9.800000 0.200000 0
0.000000 0.300000 0
0.100000 0.300000 0
0.200000 0.300000 0
0.300000 0.300000 0
0.400000 0.300000 0
0.500000 0.300000 0
0.600000 0.300000 0
0.700000 0.300000 0
0.800000 0.300000 0
0.900000 0.300000 0
1.000000 0.300000 0
1.100000 0.300000 0
1.200000 0.300000 0
1.300000 0.300000 0
1.400000 0.300000 0
1.500000 0.300000 0
1.600000 0.300000 0
1.700000 0.300000 0
1.800000 0.300000 0
1.900000 0.300000 0
2.000000 0.300000 0
2.100000 0.300000 0
2.200000 0.300000 0
2.300000 0.300000 0
2.400000 0.300000 0
2.500000 0.300000 0
2.600000 0.300000 0
2.700000 0.300000 0
2.800000 0.300000 0
2.900000 0.300000 0
3.000000 0.300000 0
3.100000 0.300000 0
3.200000 0.300000 0
3.300000 0.300000 0
3.400000 0.300000 0
3.500000 0.300000 0
3.600000 0.300000 0
3.700000 0.300000 0
3.800000 0.300000 0
3.900000 0.300000 0
4.000000 0.300000 0
4.100000 0.300000 0
4.200000 0.300000 0
4.300000 0.300000 0
4.400000 0.300000 0
4.500000 0.300000 0
4.600000 0.300000 0
4.700000 0.300000 0
4.800000 0.300000 0
4.900000 0.300000 0
5.000000 0.300000 0
5.100000 0.300000 0
5.200000 0.300000 0
5.300000 0.300000 0
5.400000 0.300000 0
5.500000 0.300000 0
5.600000 0.300000 0
5.700000 0.300000 0
5.800000 0.300000 0
5.900000 0.300000 0
6.000000 0.300000 0
6.100000 0.300000 0
6.200000 0.300000 0
6.300000 0.300000 0
6.400000 0.300000 0
6.500000 0.300000 0
6.600000 0.300000 0
6.700000 0.300000 0
6.800000 0.300000 0
6.900000 0.300000 0
7.000000 0.300000 0
7.100000 0.300000 0
7.200000 0.300000 0
7.300000 0.300000 0
7.400000 0.300000 0
7.500000 0.300000 0
7.600000 0.300000 0
7.700000 0.300000 0
7.800000 0.300000 0
7.900000 0.300000 0
8.000000 0.300000 0
8.100000 0.300000 0
8.200000 0.300000 0
8.300000 0.300000 0
8.400000 0.300000 0
8.500000 0.300000 0
8.600000 0.300000 0
8.700000 0.300000 0
8.800000 0.300000 0
8.900000 0.300000 0
9.000000 0.300000 0
9.100000 0.300000 0
9.200000 0.300000 0
9.300000 0.300000 0
9.400000 0.300000 0
9.500000 0.300000 0
9.600000 0.300000 0
9.700000 0.300000 0
9.800000 0.300000 0
0.000000 0.400000 0
0.100000 0.400000 0
0.200000 0.400000 0
0.300000 0.400000 0
0.400000 0.400000 0
0.500000 0.400000 0
0.600000 0.400000 0
0.700000 0.400000 0
0.800000 0.400000 0
0.900000 0.400000 0
1.000000 0.400000 0
1.100000 0.400000 0
1.200000 0.400000 0
1.300000 0.400000 0
1.400000 0.400000 0
1.500000 0.400000 0
1.600000 0.400000 0
1.700000 0.400000 0
1.800000 0.400000 0
1.900000 0.400000 0
2.000000 0.400000 0
2.100000 0.400000 0
2.200000 0.400000 0
2.300000 0.400000 0
2.400000 0.400000 0
2.500000 0.400000 0
2.600000 0.400000 0
2.700000 0.400000 0
2.800000 0.400000 0
2.900000 0.400000 0
3.000000 0.400000 0
3.100000 0.400000 0
3.200000 0.400000 0
3.300000 0.400000 0
3.400000 0.400000 0
3.500000 0.400000 0
3.600000 0.400000 0
3.700000 0.400000 0
3.800000 0.400000 0
3.900000 0.400000 0
4.000000 0.400000 0
4.100000 0.400000 0
4.200000 0.400000 0
4.300000 0.400000 0
4.400000 0.400000 0
4.500000 0.400000 0
4.600000 0.400000 0
4.700000 0.400000 0
4.800000 0.400000 0
4.900000 0.400000 0
5.000000 0.400000 0
5.100000 0.400000 0
5.200000 0.400000 0
5.300000 0.400000 0
5.400000 0.400000 0
5.500000 0.400000 0
5.600000 0.400000 0
5.700000 0.400000 0
5.800000 0.400000 0
5.900000 0.400000 0
6.000000 0.400000 0
6.100000 0.400000 0
6.200000 0.400000 0
6.300000 0.400000 0
6.400000 0.400000 0
6.500000 0.400000 0
6.600000 0.400000 0
6.700000 0.400000 0
6.800000 0.400000 0
6.900000 0.400000 0
7.000000 0.400000 0
7.100000 0.400000 0
7.200000 0.400000 0
7.300000 0.400000 0
7.400000 0.400000 0
7.500000 0.400000 0
7.600000 0.400000 0
7.700000 0.400000 0
7.800000 0.400000 0
7.900000 0.400000 0
8.000000 0.400000 0
8.100000 0.400000 0
8.200000 0.400000 0
8.300000 0.400000 0
8.400000 0.400000 0
8.500000 0.400000 0
8.600000 0.400000 0
8.700000 0.400000 0
8.800000 0.400000 0
8.900000 0.400000 0
9.000000 0.400000 0
9.100000 0.400000 0
9.200000 0.400000 0
9.300000 0.400000 0
9.400000 0.400000 0
[...]
POINT_DATA 1881 

VECTORS velocity float
0.000000 0.000000 0
0.000000 0.000000 0
0.000000 0.000000 0
0.000000 0.000000 0
0.000000 0.000000 0
0.000000 0.000000 0
0.000000 0.000000 0
0.000000 0.000000 0
0.000000 0.000000 0
0.000000 0.000000 0
0.000000 0.000000 0
-0.000492 0.000000 0
-0.002924 0.000000 0
-0.006337 0.000000 0
-0.010031 0.000000 0
-0.013744 0.000000 0
-0.017450 0.000000 0
-0.021191 0.000000 0
-0.025005 0.000000 0
-0.028889 0.000000 0
-0.032788 0.000000 0
-0.036585 0.000000 0
-0.040114 0.000000 0
-0.043167 0.000000 0
-0.045536 0.000000 0
-0.047052 0.000000 0
-0.047614 0.000000 0
-0.047221 0.000000 0
-0.045883 0.000000 0
-0.043661 0.000000 0
-0.040636 0.000000 0
-0.036942 0.000000 0
-0.032739 0.000000 0
-0.028183 0.000000 0
-0.023377 0.000000 0
-0.018406 0.000000 0
-0.013411 0.000000 0
-0.008500 0.000000 0
-0.003692 0.000000 0
0.000918 0.000000 0
0.005250 0.000000 0
0.009272 0.000000 0
0.012973 0.000000 0
0.016353 0.000000 0
0.019415 0.000000 0
0.022169 0.000000 0
0.024628 0.000000 0
0.026806 0.000000 0
0.028722 0.000000 0
0.030396 0.000000 0
0.031848 0.000000 0
0.033099 0.000000 0
0.034169 0.000000 0
0.035077 0.000000 0
0.035842 0.000000 0
0.036483 0.000000 0
0.037014 0.000000 0
0.037451 0.000000 0
0.037807 0.000000 0
0.038095 0.000000 0
0.038326 0.000000 0
0.038509 0.000000 0
0.038652 0.000000 0
0.038763 0.000000 0
0.038849 0.000000 0
0.038914 0.000000 0
0.038964 0.000000 0
0.039002 0.000000 0
0.039032 0.000000 0
0.039056 0.000000 0
0.039077 0.000000 0
0.039096 0.000000 0
0.039115 0.000000 0
0.039134 0.000000 0
0.039155 0.000000 0
0.039179 0.000000 0
0.039205 0.000000 0
0.039233 0.000000 0
0.039265 0.000000 0
0.039299 0.000000 0
0.039337 0.000000 0
0.039377 0.000000 0
0.039419 0.000000 0
0.039463 0.000000 0
0.039510 0.000000 0
0.039557 0.000000 0
0.039606 0.000000 0
0.039656 0.000000 0
0.039707 0.000000 0
0.039758 0.000000 0
0.039809 0.000000 0
0.039860 0.000000 0
0.039911 0.000000 0
0.039962 0.000000 0
0.040012 0.000000 0
0.040060 0.000000 0
0.040108 0.000000 0
0.040154 0.000000 0
0.040197 0.000000 0
0.000000 0.000000 0
0.000000 0.000000 0
0.000000 0.000000 0
0.000000 0.000000 0
0.000000 0.000000 0
0.000000 0.000000 0
0.000000 0.000000 0
0.000000 0.000000 0
0.000000 0.000000 0
0.000000 0.000000 0
0.000000 0.000491 0
-0.003593 0.002923 0
-0.012709 0.005845 0
-0.024286 0.007107 0
-0.036449 0.007408 0
-0.048466 0.007419 0
-0.060200 0.007446 0
-0.071708 0.007554 0
-0.083029 0.007698 0
-0.094088 0.007784 0
-0.104668 0.007696 0
-0.114402 0.007326 0
-0.122817 0.006581 0
-0.129365 0.005422 0
-0.133533 0.003885 0
-0.134942 0.002078 0
-0.133401 0.000169 0
-0.129042 -0.001731 0
-0.122171 -0.003560 0
-0.113116 -0.005247 0
-0.102150 -0.006719 0
-0.089657 -0.007897 0
-0.076037 -0.008759 0
-0.061682 -0.009362 0
-0.046850 -0.009776 0
-0.031752 -0.009966 0
-0.016675 -0.009907 0
-0.001856 -0.009718 0
0.012423 -0.009418 0
0.026039 -0.008943 0
0.038893 -0.008354 0
0.050919 -0.007722 0
0.062084 -0.007081 0
0.072372 -0.006443 0
0.081788 -0.005817 0
0.090346 -0.005213 0
0.098074 -0.004637 0
0.105008 -0.004095 0
0.111189 -0.003590 0
0.116666 -0.003126 0
0.121488 -0.002703 0
0.125707 -0.002320 0
0.129377 -0.001978 0
0.132548 -0.001674 0
0.135272 -0.001406 0
0.137597 -0.001171 0
0.139568 -0.000968 0
0.141229 -0.000794 0
0.142619 -0.000645 0
0.143774 -0.000519 0
0.144728 -0.000413 0
0.145511 -0.000326 0
0.146149 -0.000255 0
0.146667 -0.000197 0
0.147084 -0.000151 0
0.147421 -0.000115 0
0.147691 -0.000088 0
0.147911 -0.000068 0
0.148090 -0.000054 0
0.148239 -0.000045 0
0.148366 -0.000040 0
0.148478 -0.000038 0
0.148581 -0.000038 0
0.148679 -0.000041 0
0.148776 -0.000045 0
0.148875 -0.000049 0
0.148977 -0.000055 0
0.149085 -0.000060 0
0.149198 -0.000066 0
0.149318 -0.000072 0
0.149445 -0.000077 0
0.149579 -0.000082 0
0.149718 -0.000087 0
0.149864 -0.000091 0
0.150015 -0.000094 0
0.150170 -0.000097 0
0.150329 -0.000099 0
0.150492 -0.000101 0
0.150656 -0.000102 0
0.150822 -0.000102 0
0.150988 -0.000102 0
0.151155 -0.000102 0
0.151321 -0.000101 0
0.151486 -0.000100 0
0.151649 -0.000099 0
0.151810 -0.000096 0
0.151968 -0.000093 0
0.152121 -0.000089 0
0.152266 -0.000087 0
0.000000 0.000000 0
0.000000 0.000000 0
0.000000 0.000000 0
0.000000 0.000000 0
0.000000 0.000000 0
0.000000 0.000000 0
0.000000 0.000000 0
0.000000 0.000000 0
0.000000 0.000000 0
0.000000 0.000000 0
0.000000 0.003592 0
-0.008443 0.012709 0
-0.024837 0.020694 0
-0.043794 0.023741 0
-0.062773 0.024181 0
-0.080854 0.023752 0
-0.097849 0.023242 0
-0.113792 0.022828 0
-0.128682 0.022380 0
-0.142345 0.021640 0
-0.154428 0.020314 0
-0.164375 0.018148 0
-0.171566 0.014962 0
-0.175292 0.010715 0
-0.174938 0.005577 0
-0.170157 -0.000131 0
-0.161407 -0.005900 0
-0.149227 -0.011231 0
-0.134258 -0.015926 0
-0.117064 -0.020021 0
-0.097998 -0.023460 0
-0.077557 -0.026113 0
-0.056148 -0.027975 0
-0.034131 -0.029187 0
-0.011909 -0.029929 0
0.010128 -0.030175 0
0.031783 -0.029896 0
0.052870 -0.029098 0
0.073117 -0.027896 0
0.092421 -0.026470 0
0.110719 -0.024880 0
0.127949 -0.023191 0
0.144064 -0.021453 0
0.159039 -0.019704 0
0.172870 -0.017974 0
0.185571 -0.016286 0
0.197169 -0.014662 0
0.207700 -0.013115 0
0.217210 -0.011658 0
0.225753 -0.010299 0
0.233385 -0.009042 0
0.240168 -0.007889 0
0.246163 -0.006841 0
0.251433 -0.005896 0
0.256042 -0.005049 0
0.260051 -0.004296 0
0.263520 -0.003632 0
0.266505 -0.003050 0
0.269060 -0.002545 0
0.271235 -0.002109 0
0.273078 -0.001737 0
0.274632 -0.001421 0
0.275936 -0.001156 0
0.277027 -0.000935 0
0.277935 -0.000754 0
0.278691 -0.000607 0
0.279320 -0.000490 0
0.279844 -0.000398 0
0.280283 -0.000328 0
0.280654 -0.000276 0
0.280972 -0.000239 0
0.281249 -0.000215 0
0.281496 -0.000201 0
0.281721 -0.000195 0
0.281931 -0.000196 0
0.282133 -0.000201 0
0.282331 -0.000210 0
0.282529 -0.000221 0
0.282730 -0.000233 0
0.282934 -0.000247 0
0.283144 -0.000260 0
0.283361 -0.000273 0
0.283584 -0.000285 0
0.283814 -0.000297 0
0.284051 -0.000306 0
0.284293 -0.000315 0
0.284540 -0.000321 0
0.284791 -0.000327 0
0.285045 -0.000330 0
0.285301 -0.000332 0
0.285559 -0.000333 0
0.285817 -0.000333 0
0.286074 -0.000331 0
0.286331 -0.000328 0
0.286586 -0.000324 0
0.286839 -0.000319 0
0.287089 -0.000310 0
0.287336 -0.000299 0
0.287577 -0.000292 0
0.000000 0.000000 0
0.000000 0.000000 0
0.000000 0.000000 0
0.000000 0.000000 0
0.000000 0.000000 0
0.000000 0.000000 0
0.000000 0.000000 0
0.000000 0.000000 0
0.000000 0.000000 0
0.000000 0.000000 0
0.000000 0.008934 0
-0.012077 0.027761 0
-0.032745 0.041197 0
-0.054580 0.045044 0
-0.074910 0.044469 0
-0.093027 0.042495 0
-0.108894 0.040383 0
-0.122638 0.038388 0
-0.134293 0.036252 0
-0.143636 0.033531 0
-0.150302 0.029727 0
-0.153581 0.024463 0
-0.152867 0.017497 0
-0.147407 0.008793 0
-0.137052 -0.001248 0
-0.122791 -0.011452 0
-0.105500 -0.020761 0
-0.085817 -0.028880 0
-0.064295 -0.035723 0
-0.041331 -0.041507 0
-0.017570 -0.046225 0
0.006675 -0.049747 0
0.031159 -0.052186 0
0.055667 -0.053602 0
0.079885 -0.054035 0
0.103504 -0.053658 0
0.126387 -0.052648 0
0.148424 -0.051052 0
0.169593 -0.048969 0
0.189792 -0.046544 0
0.208951 -0.043882 0
0.227022 -0.041068 0
0.243971 -0.038171 0
0.259785 -0.035249 0
0.274465 -0.032349 0
0.288025 -0.029511 0
0.300493 -0.026765 0
0.311903 -0.024136 0
0.322297 -0.021644 0
0.331722 -0.019301 0
0.340231 -0.017117 0
0.347878 -0.015098 0
0.354719 -0.013243 0
0.360812 -0.011553 0
0.366214 -0.010024 0
0.370981 -0.008649 0
0.375170 -0.007422 0
0.378834 -0.006333 0
0.382024 -0.005375 0
0.384791 -0.004537 0
0.387179 -0.003810 0
0.389232 -0.003184 0
0.390991 -0.002649 0
0.392492 -0.002196 0
0.393771 -0.001816 0
0.394857 -0.001500 0
0.395779 -0.001241 0
0.396562 -0.001031 0
0.397228 -0.000864 0
0.397797 -0.000734 0
0.398287 -0.000634 0
0.398712 -0.000561 0
0.399087 -0.000510 0
0.399421 -0.000476 0
0.399725 -0.000457 0
0.400006 -0.000449 0
0.400271 -0.000451 0
0.400526 -0.000458 0
0.400775 -0.000471 0
0.401021 -0.000487 0
0.401266 -0.000504 0
0.401514 -0.000522 0
0.401764 -0.000540 0
0.402019 -0.000557 0
0.402277 -0.000572 0
0.402540 -0.000586 0
0.402806 -0.000597 0
0.403076 -0.000606 0
0.403348 -0.000612 0
0.403623 -0.000616 0
0.403899 -0.000618 0
0.404176 -0.000618 0
0.404452 -0.000616 0
0.404728 -0.000612 0
0.405003 -0.000607 0
0.405278 -0.000600 0
0.405553 -0.000590 0
0.405829 -0.000577 0
0.406110 -0.000570 0
0.000000 0.000000 0
0.000000 0.000000 0
0.000000 0.000000 0
0.000000 0.000000 0
0.000000 0.000000 0
0.000000 0.000000 0
0.000000 0.000000 0
0.000000 0.000000 0
0.000000 0.000000 0
0.000000 0.000000 0
0.000000 0.015668 0
-0.014196 0.045453 0
-0.035419 0.063198 0
-0.055181 0.065907 0
-0.071417 0.062628 0
-0.084014 0.057735 0
-0.093224 0.052851 0
-0.099332 0.048228 0
-0.102471 0.043380 0
-0.102283 0.037650 0
-0.098495 0.030259 0
-0.090127 0.020712 0
-0.076243 0.008788 0
-0.057908 -0.005099 0
-0.036747 -0.019038 0
-0.014092 -0.031683 0
0.009636 -0.042874 0
0.034135 -0.052436 0
0.059169 -0.060412 0
0.084503 -0.066746 0
0.109676 -0.071466 0
0.134524 -0.074842 0
0.158896 -0.076967 0
0.182654 -0.077913 0
0.205709 -0.077766 0
0.228008 -0.076677 0
0.249435 -0.074816 0
0.269918 -0.072304 0
0.289440 -0.069264 0
0.307964 -0.065827 0
0.325462 -0.062109 0
0.341914 -0.058211 0
0.357314 -0.054216 0
0.371666 -0.050198 0
0.384984 -0.046214 0
0.397294 -0.042315 0
0.408625 -0.038539 0
0.419016 -0.034918 0
0.428507 -0.031477 0
0.437144 -0.028233 0
0.444974 -0.025197 0
0.452046 -0.022377 0
0.458409 -0.019775 0
0.464112 -0.017390 0
0.469204 -0.015218 0
0.473733 -0.013253 0
0.477746 -0.011485 0
0.481287 -0.009905 0
0.484401 -0.008502 0
0.487128 -0.007263 0
0.489507 -0.006178 0
0.491575 -0.005233 0
0.493366 -0.004416 0
0.494912 -0.003715 0
0.496243 -0.003119 0
0.497385 -0.002615 0
0.498364 -0.002195 0
0.499201 -0.001847 0
0.499918 -0.001564 0
0.500532 -0.001335 0
0.501059 -0.001155 0
0.501515 -0.001015 0
0.501912 -0.000910 0
0.502260 -0.000833 0
0.502570 -0.000781 0
0.502849 -0.000748 0
0.503105 -0.000730 0
0.503344 -0.000724 0
0.503570 -0.000728 0
0.503788 -0.000739 0
0.504000 -0.000754 0
0.504210 -0.000771 0
0.504419 -0.000790 0
0.504628 -0.000809 0
0.504839 -0.000827 0
0.505052 -0.000843 0
0.505267 -0.000857 0
0.505485 -0.000869 0
0.505705 -0.000877 0
0.505926 -0.000883 0
0.506149 -0.000886 0
0.506373 -0.000886 0
0.506597 -0.000883 0
0.506822 -0.000879 0
0.507047 -0.000874 0
0.507272 -0.000868 0
0.507501 -0.000862 0
0.507736 -0.000856 0
0.507982 -0.000853 0
0.000000 0.000000 0
0.000000 0.000000 0
0.000000 0.000000 0
0.000000 0.000000 0
0.000000 0.000000 0
0.000000 0.000000 0
0.000000 0.000000 0
0.000000 0.000000 0
0.000000 0.000000 0
0.000000 0.000000 0
0.000000 0.023128 0
-0.015396 0.063176 0
-0.032791 0.082183 0
-0.044663 0.081044 0
-0.050985 0.073303 0
-0.052714 0.064300 0
-0.050339 0.055700 0
-0.044123 0.047635 0
-0.034122 0.039205 0
-0.019783 0.029556 0
-0.000278 0.017570 0
0.023703 0.002209 0
0.050644 -0.014722 0
0.078761 -0.030702 0
0.106663 -0.045064 0
0.134152 -0.057834 0
0.161081 -0.068989 0
0.187367 -0.078414 0
0.212993 -0.086091 0
0.237820 -0.092014 0
0.261911 -0.096246 0
0.285173 -0.098967 0
0.307525 -0.100316 0
0.328916 -0.100415 0
0.349331 -0.099388 0
0.368772 -0.097384 0
0.387221 -0.094558 0
0.404666 -0.091056 0
0.421112 -0.087015 0
0.436566 -0.082567 0
0.451037 -0.077832 0
0.464535 -0.072920 0
0.477080 -0.067922 0
0.488695 -0.062919 0
0.499409 -0.057977 0
0.509256 -0.053152 0
0.518274 -0.048487 0
0.526504 -0.044018 0
0.533988 -0.039772 0
0.540771 -0.035768 0
0.546898 -0.032019 0
0.552412 -0.028532 0
0.557358 -0.025309 0
0.561779 -0.022348 0
0.565716 -0.019645 0
0.569209 -0.017191 0
0.572297 -0.014976 0
0.575016 -0.012989 0
0.577400 -0.011216 0
0.579483 -0.009643 0
0.581295 -0.008257 0
0.582864 -0.007043 0
0.584216 -0.005986 0
0.585377 -0.005073 0
0.586368 -0.004288 0
0.587210 -0.003621 0
0.587923 -0.003057 0
0.588523 -0.002585 0
0.589027 -0.002195 0
0.589447 -0.001875 0
0.589796 -0.001618 0
0.590087 -0.001413 0
0.590328 -0.001254 0
0.590529 -0.001134 0
0.590697 -0.001046 0
0.590839 -0.000985 0
0.590961 -0.000945 0
0.591067 -0.000923 0
0.591163 -0.000915 0
0.591251 -0.000917 0
0.591334 -0.000926 0
0.591414 -0.000941 0
0.591494 -0.000958 0
0.591575 -0.000977 0
0.591658 -0.000996 0
0.591743 -0.001014 0
0.591831 -0.001030 0
0.591923 -0.001043 0
0.592017 -0.001054 0
0.592115 -0.001061 0
0.592215 -0.001065 0
0.592317 -0.001066 0
0.592422 -0.001064 0
0.592529 -0.001061 0
0.592637 -0.001057 0
0.592747 -0.001054 0
0.592862 -0.001053 0
0.592984 -0.001058 0
0.593119 -0.001063 0
0.000000 0.000000 0
0.000000 0.000000 0
0.000000 0.000000 0
0.000000 0.000000 0
0.000000 0.000000 0
0.000000 0.000000 0
0.000000 0.000000 0
0.000000 0.000000 0
0.000000 0.000000 0
0.000000 0.000000 0
0.000000 0.031060 0
-0.015489 0.078240 0
-0.021845 0.092469 0
-0.017456 0.084104 0
-0.006406 0.070677 0
0.008882 0.057085 0
0.028049 0.044260 0
0.051527 0.032013 0
0.079786 0.019042 0
0.111728 0.003806 0
0.146202 -0.013229 0
0.181318 -0.030211 0
0.214954 -0.046270 0
0.246753 -0.061117 0
0.276874 -0.074428 0
0.305410 -0.086101 0
0.332367 -0.096090 0
0.357786 -0.104348 0
0.381745 -0.110864 0
0.404297 -0.115664 0
0.425553 -0.118819 0
0.445569 -0.120456 0
0.464379 -0.120710 0
0.482017 -0.119719 0
0.498527 -0.117622 0
0.513959 -0.114568 0
0.528350 -0.110710 0
0.541740 -0.106195 0
0.554167 -0.101165 0
0.565668 -0.095752 0
0.576281 -0.090078 0
0.586040 -0.084254 0
0.594984 -0.078376 0
0.603149 -0.072526 0
0.610576 -0.066775 0
0.617306 -0.061180 0
0.623379 -0.055787 0
0.628838 -0.050633 0
0.633725 -0.045745 0
0.638082 -0.041143 0
0.641950 -0.036838 0
0.645367 -0.032838 0
0.648372 -0.029142 0
0.651001 -0.025748 0
0.653288 -0.022648 0
0.655267 -0.019834 0
0.656967 -0.017292 0
0.658417 -0.015008 0
0.659644 -0.012969 0
0.660672 -0.011158 0
0.661524 -0.009558 0
0.662219 -0.008154 0
0.662778 -0.006929 0
0.663217 -0.005867 0
0.663552 -0.004952 0
0.663797 -0.004171 0
0.663965 -0.003508 0
0.664067 -0.002951 0
0.664112 -0.002487 0
0.664111 -0.002105 0
0.664071 -0.001795 0
0.663999 -0.001547 0
0.663903 -0.001352 0
0.663786 -0.001202 0
0.663655 -0.001091 0
0.663514 -0.001011 0
0.663365 -0.000958 0
0.663213 -0.000926 0
0.663060 -0.000911 0
0.662908 -0.000910 0
0.662758 -0.000917 0
0.662613 -0.000932 0
0.662474 -0.000951 0
0.662340 -0.000973 0
0.662214 -0.000995 0
0.662095 -0.001017 0
0.661983 -0.001037 0
0.661879 -0.001055 0
0.661782 -0.001069 0
0.661693 -0.001081 0
0.661610 -0.001089 0
0.661533 -0.001093 0
0.661462 -0.001095 0
0.661397 -0.001094 0
0.661335 -0.001093 0
0.661278 -0.001093 0
0.661226 -0.001099 0
0.661179 -0.001114 0
0.661141 -0.001124 0
0.000000 0.000000 0
0.000000 0.000000 0
0.000000 0.000000 0
0.000000 0.000000 0
0.000000 0.000000 0
0.000000 0.000000 0
0.000000 0.000000 0
0.000000 0.000000 0
0.000000 0.000000 0
0.000000 0.000000 0
0.000000 0.038613 0
-0.005828 0.085022 0
0.015465 0.084156 0
0.047971 0.065608 0
0.084907 0.046962 0
0.124619 0.029841 0
0.165884 0.013054 0
0.208118 -0.004098 0
0.250849 -0.020993 0
0.292953 -0.036861 0
0.332737 -0.052023 0
0.369556 -0.066545 0
0.403510 -0.080157 0
0.434659 -0.092620 0
0.463202 -0.103721 0
0.489348 -0.113327 0
0.513269 -0.121365 0
0.535128 -0.127792 0
0.555088 -0.132602 0
0.573305 -0.135822 0
0.589936 -0.137518 0
0.605117 -0.137793 0
0.618961 -0.136764 0
0.631567 -0.134564 0
0.643031 -0.131330 0
0.653439 -0.127207 0
0.662869 -0.122340 0
0.671393 -0.116873 0
0.679076 -0.110943 0
0.685979 -0.104680 0
0.692156 -0.098204 0
0.697659 -0.091623 0
0.702536 -0.085031 0
0.706834 -0.078512 0
0.710595 -0.072134 0
0.713863 -0.065954 0
0.716678 -0.060019 0
0.719080 -0.054365 0
0.721105 -0.049016 0
0.722790 -0.043993 0
0.724168 -0.039304 0
0.725270 -0.034954 0
0.726127 -0.030943 0
0.726766 -0.027265 0
0.727213 -0.023911 0
0.727490 -0.020870 0
0.727621 -0.018127 0
0.727625 -0.015666 0
0.727519 -0.013471 0
0.727320 -0.011523 0
0.727043 -0.009805 0
0.726699 -0.008298 0
0.726302 -0.006984 0
0.725861 -0.005847 0
0.725384 -0.004869 0
0.724881 -0.004033 0
0.724356 -0.003326 0
0.723817 -0.002732 0
0.723268 -0.002239 0
0.722713 -0.001834 0
0.722156 -0.001506 0
0.721601 -0.001245 0
0.721051 -0.001041 0
0.720508 -0.000887 0
0.719973 -0.000774 0
0.719450 -0.000695 0
0.718940 -0.000645 0
0.718442 -0.000618 0
0.717959 -0.000610 0
0.717491 -0.000615 0
0.717038 -0.000632 0
0.716601 -0.000656 0
0.716180 -0.000685 0
0.715776 -0.000717 0
0.715388 -0.000751 0
0.715015 -0.000783 0
0.714659 -0.000814 0
0.714317 -0.000842 0
0.713991 -0.000867 0
0.713678 -0.000888 0
0.713379 -0.000905 0
0.713092 -0.000918 0
0.712817 -0.000928 0
0.712553 -0.000934 0
0.712297 -0.000939 0
0.712048 -0.000944 0
0.711805 -0.000954 0
0.711565 -0.000974 0
0.711325 -0.000987 0
0.000000 0.000000 0
0.000000 0.000000 0
0.000000 0.000000 0
0.000000 0.000000 0
0.000000 0.000000 0
0.000000 0.000000 0
0.000000 0.000000 0
0.000000 0.000000 0
0.000000 0.000000 0
0.000000 0.000000 0
0.000000 0.036886 0
0.068932 0.062778 0
0.143293 0.038677 0
0.210692 0.014662 0
0.271493 -0.005977 0
0.327486 -0.023896 0
0.379384 -0.039237 0
0.427151 -0.052948 0
0.470420 -0.065790 0
0.509708 -0.078084 0
0.545398 -0.089834 0
0.577591 -0.100984 0
0.606466 -0.111371 0
0.632219 -0.120807 0
0.655085 -0.129118 0
0.675312 -0.136170 0
0.693134 -0.141870 0
0.708770 -0.146166 0
0.722430 -0.149041 0
0.734313 -0.150512 0
0.744607 -0.150632 0
0.753480 -0.149480 0
0.761084 -0.147160 0
0.767554 -0.143789 0
0.773013 -0.139493 0
0.777571 -0.134406 0
0.781330 -0.128665 0
0.784377 -0.122403 0
0.786795 -0.115751 0
0.788656 -0.108831 0
0.790023 -0.101758 0
0.790957 -0.094634 0
0.791508 -0.087551 0
0.791725 -0.080585 0
0.791651 -0.073804 0
0.791323 -0.067263 0
0.790779 -0.061003 0
0.790048 -0.055060 0
0.789162 -0.049455 0
0.788144 -0.044205 0
0.787020 -0.039319 0
0.785809 -0.034797 0
0.784530 -0.030638 0
0.783199 -0.026833 0
0.781832 -0.023373 0
0.780440 -0.020242 0
0.779035 -0.017426 0
0.777626 -0.014906 0
0.776221 -0.012664 0
0.774828 -0.010681 0
0.773452 -0.008938 0
0.772097 -0.007414 0
0.770768 -0.006090 0
0.769466 -0.004949 0
0.768194 -0.003972 0
0.766953 -0.003142 0
0.765744 -0.002444 0
0.764566 -0.001862 0
0.763421 -0.001383 0
0.762309 -0.000994 0
0.761231 -0.000683 0
0.760185 -0.000441 0
0.759173 -0.000258 0
0.758195 -0.000125 0
0.757249 -0.000033 0
0.756336 0.000022 0
0.755456 0.000050 0
0.754607 0.000054 0
0.753790 0.000040 0
0.753004 0.000012 0
0.752248 -0.000028 0
0.751522 -0.000074 0
0.750824 -0.000126 0
0.750155 -0.000180 0
0.749512 -0.000234 0
0.748896 -0.000288 0
0.748306 -0.000339 0
0.747740 -0.000387 0
0.747197 -0.000430 0
0.746677 -0.000469 0
0.746178 -0.000503 0
0.745699 -0.000531 0
0.745238 -0.000555 0
0.744794 -0.000574 0
0.744364 -0.000589 0
0.743945 -0.000602 0
0.743533 -0.000615 0
0.743122 -0.000634 0
0.742702 -0.000645 0
0.500000 0.000000 0
0.463550 0.000000 0
0.420698 0.000000 0
0.380569 0.000000 0
0.346022 0.000000 0
0.317830 0.000000 0
0.296060 0.000000 0
0.280790 0.000000 0
0.273029 0.000000 0
0.277254 0.000000 0
0.296284 -0.026532 0
0.375083 -0.054479 0
0.446052 -0.057599 0
0.507405 -0.062596 0
0.560421 -0.069839 0
0.606149 -0.078053 0
0.646238 -0.086608 0
0.681828 -0.095130 0
0.713587 -0.103549 0
0.741819 -0.111842 0
0.766787 -0.119909 0
0.788669 -0.127613 0
0.807636 -0.134782 0
0.823865 -0.141238 0
0.837555 -0.146815 0
0.848914 -0.151377 0
0.858150 -0.154823 0
0.865467 -0.157088 0
0.871063 -0.158145 0
0.875130 -0.157998 0
0.877847 -0.156685 0
0.879383 -0.154270 0
0.879894 -0.150838 0
0.879521 -0.146493 0
0.878394 -0.141347 0
0.876630 -0.135524 0
0.874335 -0.129146 0
0.871607 -0.122338 0
0.868530 -0.115221 0
0.865180 -0.107908 0
0.861624 -0.100505 0
0.857921 -0.093108 0
0.854122 -0.085800 0
0.850270 -0.078654 0
0.846402 -0.071732 0
0.842551 -0.065082 0
0.838742 -0.058745 0
0.834997 -0.052748 0
0.831333 -0.047112 0
0.827764 -0.041851 0
0.824300 -0.036968 0
0.820949 -0.032464 0
0.817715 -0.028333 0
0.814603 -0.024567 0
0.811613 -0.021152 0
0.808745 -0.018073 0
0.805998 -0.015313 0
0.803371 -0.012852 0
0.800860 -0.010673 0
0.798461 -0.008753 0
0.796170 -0.007074 0
0.793982 -0.005614 0
0.791892 -0.004353 0
0.789893 -0.003273 0
0.787978 -0.002355 0
0.786140 -0.001583 0