# vtk DataFile Version 2.0
generated by CFD-lab course output (written by Tobias Neckel) 
ASCII

DATASET STRUCTURED_GRID
DIMENSIONS  99 19 1 
POINTS 1881 float

0.000000 0.000000 0
0.100000 0.000000 0
0.200000 0.000000 0
0.300000 0.000000 0
0.400000 0.000000 0
0.500000 0.000000 0
0.600000 0.000000 0
0.700000 0.000000 0
0.800000 0.000000 0
0.900000 0.000000 0
1.000000 0.000000 0
1.100000 0.000000 0
1.200000 0.000000 0
1.300000 0.000000 0
1.400000 0.000000 0
1.500000 0.000000 0
1.600000 0.000000 0
1.700000 0.000000 0
1.800000 0.000000 0
1.900000 0.000000 0
2.000000 0.000000 0
2.100000 0.000000 0
2.200000 0.000000 0
2.300000 0.000000 0
2.400000 0.000000 0
2.500000 0.000000 0
2.600000 0.000000 0
2.700000 0.000000 0
2.800000 0.000000 0
2.900000 0.000000 0
3.000000 0.000000 0
3.100000 0.000000 0
3.200000 0.000000 0
3.300000 0.000000 0
3.400000 0.000000 0
3.500000 0.000000 0
3.600000 0.000000 0
3.700000 0.000000 0
3.800000 0.000000 0
3.900000 0.000000 0
4.000000 0.000000 0
4.100000 0.000000 0
4.200000 0.000000 0
4.300000 0.000000 0
4.400000 0.000000 0
4.500000 0.000000 0
4.600000 0.000000 0
4.700000 0.000000 0
4.800000 0.000000 0
4.900000 0.000000 0
5.000000 0.000000 0
5.100000 0.000000 0
5.200000 0.000000 0
5.300000 0.000000 0
5.400000 0.000000 0
5.500000 0.000000 0
5.600000 0.000000 0
5.700000 0.000000 0
5.800000 0.000000 0
5.900000 0.000000 0
6.000000 0.000000 0
6.100000 0.000000 0
6.200000 0.000000 0
6.300000 0.000000 0
6.400000 0.000000 0
6.500000 0.000000 0
6.600000 0.000000 0
6.700000 0.000000 0
6.800000 0.000000 0
6.900000 0.000000 0
7.000000 0.000000 0
7.100000 0.000000 0
7.200000 0.000000 0
7.300000 0.000000 0
7.400000 0.000000 0
7.500000 0.000000 0
7.600000 0.000000 0
7.700000 0.000000 0
7.800000 0.000000 0
7.900000 0.000000 0
8.000000 0.000000 0
8.100000 0.000000 0
8.200000 0.000000 0
8.300000 0.000000 0
8.400000 0.000000 0
8.500000 0.000000 0
8.600000 0.000000 0
8.700000 0.000000 0
8.800000 0.000000 0
8.900000 0.000000 0
9.000000 0.000000 0
9.100000 0.000000 0
9.200000 0.000000 0
9.300000 0.000000 0
9.400000 0.000000 0
9.500000 0.000000 0
9.600000 0.000000 0
9.700000 0.000000 0
9.800000 0.000000 0
0.000000 0.100000 0
0.100000 0.100000 0
0.200000 0.100000 0
0.300000 0.100000 0
0.400000 0.100000 0
0.500000 0.100000 0
0.600000 0.100000 0
0.700000 0.100000 0
0.800000 0.100000 0
0.900000 0.100000 0
1.000000 0.100000 0
1.100000 0.100000 0
1.200000 0.100000 0
1.300000 0.100000 0
1.400000 0.100000 0
1.500000 0.100000 0
1.600000 0.100000 0
1.700000 0.100000 0
1.800000 0.100000 0
1.900000 0.100000 0
2.000000 0.100000 0
2.100000 0.100000 0
2.200000 0.100000 0
2.300000 0.100000 0
2.400000 0.100000 0
2.500000 0.100000 0
2.600000 0.100000 0
2.700000 0.100000 0
2.800000 0.100000 0
2.900000 0.100000 0
3.000000 0.100000 0
3.100000 0.100000 0
3.200000 0.100000 0
3.300000 0.100000 0
3.400000 0.100000 0
3.500000 0.100000 0
3.600000 0.100000 0
3.700000 0.100000 0
3.800000 0.100000 0
3.900000 0.100000 0
4.000000 0.100000 0
4.100000 0.100000 0
4.200000 0.100000 0
4.300000 0.100000 0
4.400000 0.100000 0
4.500000 0.100000 0
4.600000 0.100000 0
4.700000 0.100000 0
4.800000 0.100000 0
4.900000 0.100000 0
5.000000 0.100000 0
5.100000 0.100000 0
5.200000 0.100000 0
5.300000 0.100000 0
5.400000 0.100000 0
5.500000 0.100000 0
5.600000 0.100000 0
5.700000 0.100000 0
5.800000 0.100000 0
5.900000 0.100000 0
6.000000 0.100000 0
6.100000 0.100000 0
6.200000 0.100000 0
6.300000 0.100000 0
6.400000 0.100000 0
6.500000 0.100000 0
6.600000 0.100000 0
6.700000 0.100000 0
6.800000 0.100000 0
6.900000 0.100000 0
7.000000 0.100000 0
7.100000 0.100000 0
7.200000 0.100000 0
7.300000 0.100000 0
7.400000 0.100000 0
7.500000 0.100000 0
7.600000 0.100000 0
7.700000 0.100000 0
7.800000 0.100000 0
7.900000 0.100000 0
8.000000 0.100000 0
8.100000 0.100000 0
8.200000 0.100000 0
8.300000 0.100000 0
8.400000 0.100000 0
8.500000 0.100000 0
8.600000 0.100000 0
8.700000 0.100000 0
8.800000 0.100000 0
8.900000 0.100000 0
9.000000 0.100000 0
9.100000 0.100000 0
9.200000 0.100000 0
9.300000 0.100000 0
9.400000 0.100000 0
9.500000 0.100000 0
9.600000 0.100000 0
9.700000 0.100000 0
9.800000 0.100000 0
0.000000 0.200000 0
0.100000 0.200000 0
0.200000 0.200000 0
0.300000 0.200000 0
0.400000 0.200000 0
0.500000 0.200000 0
0.600000 0.200000 0
0.700000 0.200000 0
0.800000 0.200000 0
0.900000 0.200000 0
1.000000 0.200000 0
1.100000 0.200000 0
1.200000 0.200000 0
1.300000 0.200000 0
1.400000 0.200000 0
1.500000 0.200000 0
1.600000 0.200000 0
1.700000 0.200000 0
1.800000 0.200000 0
1.900000 0.200000 0
2.000000 0.200000 0
2.100000 0.200000 0
2.200000 0.200000 0
2.300000 0.200000 0
2.400000 0.200000 0
2.500000 0.200000 0
2.600000 0.200000 0
2.700000 0.200000 0
2.800000 0.200000 0
2.900000 0.200000 0
3.000000 0.200000 0
3.100000 0.200000 0
3.200000 0.200000 0
3.300000 0.200000 0
3.400000 0.200000 0
3.500000 0.200000 0
3.600000 0.200000 0
3.700000 0.200000 0
3.800000 0.200000 0
3.900000 0.200000 0
4.000000 0.200000 0
4.100000 0.200000 0
4.200000 0.200000 0
4.300000 0.200000 0
4.400000 0.200000 0
4.500000 0.200000 0
4.600000 0.200000 0
4.700000 0.200000 0
4.800000 0.200000 0
4.900000 0.200000 0
5.000000 0.200000 0
5.100000 0.200000 0
5.200000 0.200000 0
5.300000 0.200000 0
5.400000 0.200000 0
5.500000 0.200000 0
5.600000 0.200000 0
5.700000 0.200000 0
5.800000 0.200000 0
5.900000 0.200000 0
6.000000 0.200000 0
6.100000 0.200000 0
6.200000 0.200000 0
6.300000 0.200000 0
6.400000 0.200000 0
6.500000 0.200000 0
6.600000 0.200000 0
6.700000 0.200000 0
6.800000 0.200000 0
6.900000 0.200000 0
7.000000 0.200000 0
7.100000 0.200000 0
7.200000 0.200000 0
7.300000 0.200000 0
7.400000 0.200000 0
7.500000 0.200000 0
7.600000 0.200000 0
7.700000 0.200000 0
7.800000 0.200000 0
7.900000 0.200000 0
8.000000 0.200000 0
8.100000 0.200000 0
8.200000 0.200000 0
8.300000 0.200000 0
8.400000 0.200000 0
8.500000 0.200000 0
8.600000 0.200000 0
8.700000 0.200000 0
8.800000 0.200000 0
8.900000 0.200000 0
9.000000 0.200000 0
9.100000 0.200000 0
9.200000 0.200000 0
9.300000 0.200000 0
9.400000 0.200000 0
9.500000 0.200000 0
9.600000 0.200000 0
9.700000 0.200000 0
9.800000 0.200000 0
0.000000 0.300000 0
0.100000 0.300000 0
0.200000 0.300000 0
0.300000 0.300000 0
0.400000 0.300000 0
0.500000 0.300000 0
0.600000 0.300000 0
0.700000 0.300000 0
0.800000 0.300000 0
0.900000 0.300000 0
1.000000 0.300000 0
1.100000 0.300000 0
1.200000 0.300000 0
1.300000 0.300000 0
1.400000 0.300000 0
1.500000 0.300000 0
1.600000 0.300000 0
1.700000 0.300000 0
1.800000 0.300000 0
1.900000 0.300000 0
2.000000 0.300000 0
2.100000 0.300000 0
2.200000 0.300000 0
2.300000 0.300000 0
2.400000 0.300000 0
2.500000 0.300000 0
2.600000 0.300000 0
2.700000 0.300000 0
2.800000 0.300000 0
2.900000 0.300000 0
3.000000 0.300000 0
3.100000 0.300000 0
3.200000 0.300000 0
3.300000 0.300000 0
3.400000 0.300000 0
3.500000 0.300000 0
3.600000 0.300000 0
3.700000 0.300000 0
3.800000 0.300000 0
3.900000 0.300000 0
4.000000 0.300000 0
4.100000 0.300000 0
4.200000 0.300000 0
4.300000 0.300000 0
4.400000 0.300000 0
4.500000 0.300000 0
4.600000 0.300000 0
4.700000 0.300000 0
4.800000 0.300000 0
4.900000 0.300000 0
5.000000 0.300000 0
5.100000 0.300000 0
5.200000 0.300000 0
5.300000 0.300000 0
5.400000 0.300000 0
5.500000 0.300000 0
5.600000 0.300000 0
5.700000 0.300000 0
5.800000 0.300000 0
5.900000 0.300000 0
6.000000 0.300000 0
6.100000 0.300000 0
6.200000 0.300000 0
6.300000 0.300000 0
6.400000 0.300000 0
6.500000 0.300000 0
6.600000 0.300000 0
6.700000 0.300000 0
6.800000 0.300000 0
6.900000 0.300000 0
7.000000 0.300000 0
7.100000 0.300000 0
7.200000 0.300000 0
7.300000 0.300000 0
7.400000 0.300000 0
7.500000 0.300000 0
7.600000 0.300000 0
7.700000 0.300000 0
7.800000 0.300000 0
7.900000 0.300000 0
8.000000 0.300000 0
8.100000 0.300000 0
8.200000 0.300000 0
8.300000 0.300000 0
8.400000 0.300000 0
8.500000 0.300000 0
8.600000 0.300000 0
8.700000 0.300000 0
8.800000 0.300000 0
8.900000 0.300000 0
9.000000 0.300000 0
9.100000 0.300000 0
9.200000 0.300000 0
9.300000 0.300000 0
9.400000 0.300000 0
9.500000 0.300000 0
9.600000 0.300000 0
9.700000 0.300000 0
9.800000 0.300000 0
0.000000 0.400000 0
0.100000 0.400000 0
0.200000 0.400000 0
0.300000 0.400000 0
0.400000 0.400000 0
0.500000 0.400000 0
0.600000 0.400000 0
0.700000 0.400000 0
0.800000 0.400000 0
0.900000 0.400000 0
1.000000 0.400000 0
1.100000 0.400000 0
1.200000 0.400000 0
1.300000 0.400000 0
1.400000 0.400000 0
1.500000 0.400000 0
1.600000 0.400000 0
1.700000 0.400000 0
1.800000 0.400000 0
1.900000 0.400000 0
2.000000 0.400000 0
2.100000 0.400000 0
2.200000 0.400000 0
2.300000 0.400000 0
2.400000 0.400000 0
2.500000 0.400000 0
2.600000 0.400000 0
2.700000 0.400000 0
2.800000 0.400000 0
2.900000 0.400000 0
3.000000 0.400000 0
3.100000 0.400000 0
3.200000 0.400000 0
3.300000 0.400000 0
3.400000 0.400000 0
3.500000 0.400000 0
3.600000 0.400000 0
3.700000 0.400000 0
3.800000 0.400000 0
3.900000 0.400000 0
4.000000 0.400000 0
4.100000 0.400000 0
4.200000 0.400000 0
4.300000 0.400000 0
4.400000 0.400000 0
4.500000 0.400000 0
4.600000 0.400000 0
4.700000 0.400000 0
4.800000 0.400000 0
4.900000 0.400000 0
5.000000 0.400000 0
5.100000 0.400000 0
5.200000 0.400000 0
5.300000 0.400000 0
5.400000 0.400000 0
5.500000 0.400000 0
5.600000 0.400000 0
5.700000 0.400000 0
5.800000 0.400000 0
5.900000 0.400000 0
6.000000 0.400000 0
6.100000 0.400000 0
6.200000 0.400000 0
6.300000 0.400000 0
6.400000 0.400000 0
6.500000 0.400000 0
6.600000 0.400000 0
6.700000 0.400000 0
6.800000 0.400000 0
6.900000 0.400000 0
7.000000 0.400000 0
7.100000 0.400000 0
7.200000 0.400000 0
7.300000 0.400000 0
7.400000 0.400000 0
7.500000 0.400000 0
7.600000 0.400000 0
7.700000 0.400000 0
7.800000 0.400000 0
7.900000 0.400000 0
8.000000 0.400000 0
8.100000 0.400000 0
8.200000 0.400000 0
8.300000 0.400000 0
8.400000 0.400000 0
8.500000 0.400000 0
8.600000 0.400000 0
8.700000 0.400000 0
8.800000 0.400000 0
8.900000 0.400000 0
9.000000 0.400000 0
9.100000 0.400000 0
9.200000 0.400000 0
9.300000 0.400000 0
9.400000 0.400000 0
[...]
POINT_DATA 1881 

VECTORS velocity float
0.000000 0.000000 0
0.000000 0.000000 0
0.000000 0.000000 0
0.000000 0.000000 0
0.000000 0.000000 0
0.000000 0.000000 0
0.000000 0.000000 0
0.000000 0.000000 0
0.000000 0.000000 0
0.000000 0.000000 0
0.000000 0.000000 0
-0.000429 0.000000 0
-0.002801 0.000000 0
-0.006204 0.000000 0
-0.009967 0.000000 0
-0.013861 0.000000 0
-0.017896 0.000000 0
-0.022161 0.000000 0
-0.026730 0.000000 0
-0.031619 0.000000 0
-0.036752 0.000000 0
-0.041941 0.000000 0
-0.046883 0.000000 0
-0.051191 0.000000 0
-0.054476 0.000000 0
-0.056431 0.000000 0
-0.056890 0.000000 0
-0.055829 0.000000 0
-0.053259 0.000000 0
-0.049306 0.000000 0
-0.044200 0.000000 0
-0.038221 0.000000 0
-0.031604 0.000000 0
-0.024509 0.000000 0
-0.017220 0.000000 0
-0.009930 0.000000 0
-0.002738 0.000000 0
0.004149 0.000000 0
0.010563 0.000000 0
0.016456 0.000000 0
0.021802 0.000000 0
0.026588 0.000000 0
0.030812 0.000000 0
0.034483 0.000000 0
0.037620 0.000000 0
0.040251 0.000000 0
0.042408 0.000000 0
0.044131 0.000000 0
0.045460 0.000000 0
0.046439 0.000000 0
0.047112 0.000000 0
0.047524 0.000000 0
0.047722 0.000000 0
0.047751 0.000000 0
0.047631 0.000000 0
0.047384 0.000000 0
0.047039 0.000000 0
0.046626 0.000000 0
0.046169 0.000000 0
0.045690 0.000000 0
0.045206 0.000000 0
0.044731 0.000000 0
0.044279 0.000000 0
0.043857 0.000000 0
0.043475 0.000000 0
0.043137 0.000000 0
0.042847 0.000000 0
0.042608 0.000000 0
0.042421 0.000000 0
0.042284 0.000000 0
0.042196 0.000000 0
0.042156 0.000000 0
0.042160 0.000000 0
0.042199 0.000000 0
0.042267 0.000000 0
0.042358 0.000000 0
0.042467 0.000000 0
0.042588 0.000000 0
0.042716 0.000000 0
0.042847 0.000000 0
0.042976 0.000000 0
0.043101 0.000000 0
0.043220 0.000000 0
0.043330 0.000000 0
0.043430 0.000000 0
0.043520 0.000000 0
0.043600 0.000000 0
0.043669 0.000000 0
0.043729 0.000000 0
0.043780 0.000000 0
0.043823 0.000000 0
0.043858 0.000000 0
0.043887 0.000000 0
0.043910 0.000000 0
0.043928 0.000000 0
0.043943 0.000000 0
0.043954 0.000000 0
0.043962 0.000000 0
0.043968 0.000000 0
0.000000 0.000000 0
0.000000 0.000000 0
0.000000 0.000000 0
0.000000 0.000000 0
0.000000 0.000000 0
0.000000 0.000000 0
0.000000 0.000000 0
0.000000 0.000000 0
0.000000 0.000000 0
0.000000 0.000000 0
0.000000 0.000432 0
-0.003509 0.002804 0
-0.012613 0.005775 0
-0.024364 0.007167 0
-0.036969 0.007659 0
-0.049777 0.007932 0
-0.062733 0.008302 0
-0.075963 0.008835 0
-0.089536 0.009459 0
-0.103344 0.010023 0
-0.117035 0.010322 0
-0.129984 0.010131 0
-0.141332 0.009252 0
-0.150064 0.007599 0
-0.155232 0.005249 0
-0.156155 0.002428 0
-0.152591 -0.000583 0
-0.144870 -0.003608 0
-0.133477 -0.006495 0
-0.118909 -0.009027 0
-0.101796 -0.011050 0
-0.082837 -0.012557 0
-0.062614 -0.013671 0
-0.041462 -0.014343 0
-0.019949 -0.014538 0
0.001371 -0.014441 0
0.021994 -0.014039 0
0.041656 -0.013264 0
0.060141 -0.012271 0
0.077308 -0.011206 0
0.093065 -0.010101 0
0.107356 -0.008982 0
0.120157 -0.007869 0
0.131471 -0.006785 0
0.141325 -0.005747 0
0.149769 -0.004770 0
0.156867 -0.003864 0
0.162701 -0.003038 0
0.167362 -0.002296 0
0.170952 -0.001642 0
0.173579 -0.001077 0
0.175358 -0.000603 0
0.176404 -0.000219 0
0.176835 0.000097 0
0.176771 0.000373 0
0.176281 0.000598 0
0.175447 0.000765 0
0.174351 0.000877 0
0.173070 0.000943 0
0.171671 0.000970 0
0.170216 0.000966 0
0.168755 0.000935 0
0.167334 0.000882 0
0.165990 0.000813 0
0.164751 0.000730 0
0.163642 0.000637 0
0.162678 0.000539 0
0.161870 0.000437 0
0.161221 0.000335 0
0.160732 0.000235 0
0.160397 0.000139 0
0.160211 0.000047 0
0.160162 -0.000032 0
0.160234 -0.000096 0
0.160403 -0.000149 0
0.160649 -0.000190 0
0.160953 -0.000221 0
0.161297 -0.000240 0
0.161665 -0.000251 0
0.162044 -0.000253 0
0.162421 -0.000248 0
0.162788 -0.000238 0
0.163136 -0.000223 0
0.163461 -0.000206 0
0.163759 -0.000187 0
0.164028 -0.000167 0
0.164267 -0.000147 0
0.164476 -0.000127 0
0.164658 -0.000109 0
0.164812 -0.000092 0
0.164943 -0.000077 0
0.165052 -0.000063 0
0.165141 -0.000051 0
0.165214 -0.000041 0
0.165273 -0.000033 0
0.165319 -0.000025 0
0.165356 -0.000019 0
0.165383 -0.000014 0
0.165404 -0.000011 0
0.000000 0.000000 0
0.000000 0.000000 0
0.000000 0.000000 0
0.000000 0.000000 0
0.000000 0.000000 0
0.000000 0.000000 0
0.000000 0.000000 0
0.000000 0.000000 0
0.000000 0.000000 0
0.000000 0.000000 0
0.000000 0.003512 0
-0.008484 0.012616 0
-0.025085 0.020858 0
-0.044501 0.024360 0
-0.064275 0.025417 0
-0.083561 0.025767 0
-0.102229 0.026187 0
-0.120337 0.026804 0
-0.137842 0.027382 0
-0.154444 0.027498 0
-0.169543 0.026639 0
-0.182219 0.024298 0
-0.191332 0.020085 0
-0.195548 0.013908 0
-0.193702 0.006104 0
-0.185431 -0.002621 0
-0.171604 -0.011260 0
-0.153225 -0.019084 0
-0.131203 -0.025924 0
-0.106208 -0.031640 0
-0.078939 -0.036027 0
-0.050077 -0.039133 0
-0.020252 -0.041325 0
0.009748 -0.042615 0
0.039561 -0.042782 0
0.068760 -0.041893 0
0.096891 -0.040237 0
0.123752 -0.038101 0
0.149205 -0.035609 0
0.173076 -0.032884 0
0.195232 -0.030011 0
0.215589 -0.027059 0
0.234096 -0.024085 0
0.250734 -0.021141 0
0.265508 -0.018274 0
0.278451 -0.015520 0
0.289611 -0.012913 0
0.299058 -0.010478 0
0.306877 -0.008237 0
0.313169 -0.006205 0
0.318046 -0.004395 0
0.321631 -0.002815 0
0.324053 -0.001468 0
0.325449 -0.000358 0
0.325977 0.000562 0
0.325799 0.001332 0
0.325027 0.001938 0
0.323777 0.002386 0
0.322158 0.002689 0
0.320276 0.002863 0
0.318227 0.002926 0
0.316096 0.002892 0
0.313962 0.002776 0
0.311890 0.002594 0
0.309938 0.002360 0
0.308149 0.002086 0
0.306558 0.001785 0
0.305188 0.001470 0
0.304053 0.001152 0
0.303157 0.000837 0
0.302496 0.000535 0
0.302059 0.000250 0
0.301829 -0.000010 0
0.301796 -0.000228 0
0.301928 -0.000403 0
0.302193 -0.000538 0
0.302561 -0.000636 0
0.303003 -0.000702 0
0.303494 -0.000738 0
0.304011 -0.000748 0
0.304537 -0.000737 0
0.305055 -0.000708 0
0.305554 -0.000668 0
0.306024 -0.000618 0
0.306460 -0.000562 0
0.306856 -0.000504 0
0.307212 -0.000445 0
0.307527 -0.000388 0
0.307802 -0.000334 0
0.308039 -0.000284 0
0.308242 -0.000238 0
0.308413 -0.000197 0
0.308555 -0.000162 0
0.308673 -0.000131 0
0.308769 -0.000105 0
0.308847 -0.000083 0
0.308910 -0.000064 0
0.308960 -0.000049 0
0.309000 -0.000041 0
0.000000 0.000000 0
0.000000 0.000000 0
0.000000 0.000000 0
0.000000 0.000000 0
0.000000 0.000000 0
0.000000 0.000000 0
0.000000 0.000000 0
0.000000 0.000000 0
0.000000 0.000000 0
0.000000 0.000000 0
0.000000 0.008917 0
-0.012228 0.027891 0
-0.033199 0.041795 0
-0.055478 0.046361 0
-0.076415 0.046722 0
-0.095324 0.045887 0
-0.112186 0.045079 0
-0.127119 0.044449 0
-0.140089 0.043564 0
-0.150744 0.041721 0
-0.158466 0.038096 0
-0.162236 0.031921 0
-0.160920 0.022584 0
-0.153061 0.009974 0
-0.138417 -0.004860 0
-0.118619 -0.019658 0
-0.094988 -0.032776 0
-0.068487 -0.043994 0
-0.039822 -0.053494 0
-0.009816 -0.061273 0
0.021094 -0.067161 0
0.052560 -0.071225 0
0.084158 -0.073477 0
0.115247 -0.074137 0
0.145585 -0.073532 0
0.175029 -0.071753 0
0.203479 -0.069015 0
0.230717 -0.065563 0
0.256585 -0.061581 0
0.280945 -0.057220 0
0.303689 -0.052603 0
0.324744 -0.047835 0
0.344064 -0.043005 0
0.361628 -0.038190 0
0.377434 -0.033457 0
0.391500 -0.028865 0
0.403857 -0.024465 0
0.414551 -0.020300 0
0.423641 -0.016403 0
0.431198 -0.012807 0
0.437304 -0.009535 0
0.442049 -0.006605 0
0.445532 -0.004032 0
0.447860 -0.001821 0
0.449143 0.000027 0
0.449551 0.001553 0
0.449225 0.002792 0
0.448290 0.003751 0
0.446859 0.004448 0
0.445045 0.004907 0
0.442952 0.005151 0
0.440681 0.005205 0
0.438323 0.005094 0
0.435962 0.004843 0
0.433671 0.004477 0
0.431510 0.004023 0
0.429531 0.003505 0
0.427769 0.002948 0
0.426251 0.002372 0
0.424991 0.001798 0
0.423992 0.001243 0
0.423246 0.000719 0
0.422738 0.000236 0
0.422450 -0.000190 0
0.422373 -0.000542 0
0.422473 -0.000819 0
0.422717 -0.001026 0
0.423072 -0.001170 0
0.423508 -0.001256 0
0.423998 -0.001294 0
0.424517 -0.001290 0
0.425046 -0.001253 0
0.425568 -0.001190 0
0.426071 -0.001110 0
0.426545 -0.001017 0
0.426983 -0.000918 0
0.427382 -0.000817 0
0.427740 -0.000717 0
0.428057 -0.000621 0
0.428335 -0.000532 0
0.428575 -0.000450 0
0.428781 -0.000376 0
0.428956 -0.000311 0
0.429103 -0.000255 0
0.429225 -0.000207 0
0.429327 -0.000166 0
0.429411 -0.000132 0
0.429482 -0.000104 0
0.429542 -0.000090 0
0.000000 0.000000 0
0.000000 0.000000 0
0.000000 0.000000 0
0.000000 0.000000 0
0.000000 0.000000 0
0.000000 0.000000 0
0.000000 0.000000 0
0.000000 0.000000 0
0.000000 0.000000 0
0.000000 0.000000 0
0.000000 0.015741 0
-0.014359 0.045819 0
-0.035789 0.064111 0
-0.055705 0.067579 0
-0.072003 0.065265 0
-0.084526 0.061539 0
-0.093526 0.057984 0
-0.099294 0.054706 0
-0.101890 0.051002 0
-0.100892 0.045872 0
-0.095744 0.038131 0
-0.085231 0.026754 0
-0.067666 0.010912 0
-0.044437 -0.008590 0
-0.018050 -0.028329 0
0.009910 -0.046040 0
0.039047 -0.061379 0
0.069071 -0.074234 0
0.099613 -0.084578 0
0.130151 -0.092538 0
0.160411 -0.098385 0
0.190226 -0.102180 0
0.219402 -0.103993 0
0.247905 -0.104024 0
0.275520 -0.102548 0
0.302122 -0.099769 0
0.327636 -0.095909 0
0.351951 -0.091194 0
0.374969 -0.085825 0
0.396607 -0.079976 0
0.416802 -0.073800 0
0.435513 -0.067424 0
0.452718 -0.060960 0
0.468412 -0.054504 0
0.482603 -0.048139 0
0.495312 -0.041937 0
0.506568 -0.035959 0
0.516410 -0.030258 0
0.524883 -0.024880 0
0.532040 -0.019863 0
0.537938 -0.015240 0
0.542640 -0.011037 0
0.546218 -0.007274 0
0.548745 -0.003965 0
0.550303 -0.001123 0
0.550981 0.001256 0
0.550915 0.003205 0
0.550214 0.004758 0
0.548978 0.005940 0
0.547307 0.006777 0
0.545297 0.007296 0
0.543045 0.007527 0
0.540640 0.007501 0
0.538167 0.007253 0
0.535704 0.006818 0
0.533318 0.006232 0
0.531067 0.005533 0
0.528999 0.004756 0
0.527148 0.003935 0
0.525538 0.003103 0
0.524183 0.002286 0
0.523084 0.001509 0
0.522233 0.000792 0
0.521610 0.000142 0
0.521205 -0.000421 0
0.521007 -0.000879 0
0.520987 -0.001232 0
0.521115 -0.001490 0
0.521360 -0.001660 0
0.521692 -0.001754 0
0.522084 -0.001783 0
0.522513 -0.001758 0
0.522959 -0.001691 0
0.523406 -0.001593 0
0.523839 -0.001473 0
0.524251 -0.001341 0
0.524633 -0.001202 0
0.524983 -0.001063 0
0.525299 -0.000928 0
0.525579 -0.000801 0
0.525826 -0.000684 0
0.526040 -0.000577 0
0.526225 -0.000483 0
0.526384 -0.000400 0
0.526519 -0.000329 0
0.526634 -0.000269 0
0.526732 -0.000219 0
0.526816 -0.000179 0
0.526891 -0.000159 0
0.000000 0.000000 0
0.000000 0.000000 0
0.000000 0.000000 0
0.000000 0.000000 0
0.000000 0.000000 0
0.000000 0.000000 0
0.000000 0.000000 0
0.000000 0.000000 0
0.000000 0.000000 0
0.000000 0.000000 0
0.000000 0.023278 0
-0.015550 0.063685 0
-0.032998 0.083145 0
-0.044687 0.082577 0
-0.050533 0.075545 0
-0.051375 0.067412 0
-0.047679 0.059846 0
-0.039690 0.052809 0
-0.027469 0.045158 0
-0.010368 0.035573 0
0.012699 0.022435 0
0.041362 0.003844 0
0.073744 -0.018207 0
0.107126 -0.039636 0
0.139576 -0.059197 0
0.171128 -0.076745 0
0.201786 -0.091924 0
0.231657 -0.104545 0
0.260686 -0.114559 0
0.288943 -0.122054 0
0.316292 -0.127219 0
0.342650 -0.130198 0
0.367970 -0.131138 0
0.392265 -0.130238 0
0.415483 -0.127733 0
0.437585 -0.123854 0
0.458540 -0.118829 0
0.478314 -0.112884 0
0.496874 -0.106226 0
0.514192 -0.099042 0
0.530249 -0.091500 0
0.545042 -0.083743 0
0.558574 -0.075896 0
0.570860 -0.068067 0
0.581924 -0.060351 0
0.591794 -0.052826 0
0.600506 -0.045560 0
0.608098 -0.038610 0
0.614612 -0.032028 0
0.620090 -0.025855 0
0.624578 -0.020129 0
0.628125 -0.014880 0
0.630783 -0.010131 0
0.632606 -0.005901 0
0.633655 -0.002203 0
0.633984 0.000947 0
0.633667 0.003566 0
0.632782 0.005694 0
0.631406 0.007362 0
0.629617 0.008594 0
0.627496 0.009420 0
0.625123 0.009870 0
0.622578 0.009979 0
0.619937 0.009786 0
0.617270 0.009334 0
0.614642 0.008667 0
0.612112 0.007831 0
0.609727 0.006874 0
0.607528 0.005839 0
0.605545 0.004769 0
0.603797 0.003703 0
0.602294 0.002676 0
0.601038 0.001715 0
0.600021 0.000842 0
0.599222 0.000065 0
0.598633 -0.000598 0
0.598248 -0.001132 0
0.598040 -0.001539 0
0.597984 -0.001830 0
0.598051 -0.002015 0
0.598215 -0.002109 0
0.598450 -0.002126 0
0.598733 -0.002082 0
0.599045 -0.001989 0
0.599368 -0.001861 0
0.599691 -0.001711 0
0.600003 -0.001549 0
0.600297 -0.001381 0
0.600569 -0.001216 0
0.600817 -0.001058 0
0.601038 -0.000911 0
0.601235 -0.000776 0
0.601407 -0.000655 0
0.601558 -0.000548 0
0.601688 -0.000456 0
0.601801 -0.000379 0
0.601900 -0.000314 0
0.601987 -0.000264 0
0.602067 -0.000238 0
0.000000 0.000000 0
0.000000 0.000000 0
0.000000 0.000000 0
0.000000 0.000000 0
0.000000 0.000000 0
0.000000 0.000000 0
0.000000 0.000000 0
0.000000 0.000000 0
0.000000 0.000000 0
0.000000 0.000000 0
0.000000 0.031294 0
-0.015667 0.078822 0
-0.021909 0.093253 0
-0.016997 0.085117 0
-0.005018 0.071955 0
0.011744 0.058686 0
0.033004 0.046297 0
0.059269 0.034492 0
0.090991 0.021677 0
0.127210 0.005703 0
0.166677 -0.013599 0
0.207287 -0.034290 0
0.245890 -0.054847 0
0.281842 -0.074414 0
0.315490 -0.092321 0
0.346936 -0.108239 0
0.376320 -0.121895 0
0.403840 -0.133119 0
0.429658 -0.141848 0
0.453947 -0.148126 0
0.476792 -0.152076 0
0.498252 -0.153841 0
0.518392 -0.153591 0
0.537282 -0.151522 0
0.554969 -0.147853 0
0.571492 -0.142812 0
0.586882 -0.136626 0
0.601166 -0.129516 0
0.614363 -0.121692 0
0.626494 -0.113343 0
0.637580 -0.104642 0
0.647645 -0.095741 0
0.656719 -0.086771 0
0.664831 -0.077849 0
0.672019 -0.069069 0
0.678317 -0.060516 0
0.683762 -0.052259 0
0.688395 -0.044358 0
0.692248 -0.036865 0
0.695359 -0.029823 0
0.697763 -0.023270 0
0.699499 -0.017236 0
0.700602 -0.011749 0
0.701113 -0.006831 0
0.701072 -0.002494 0
0.700519 0.001250 0
0.699474 0.004413 0
0.697978 0.007026 0
0.696084 0.009112 0
0.693851 0.010694 0
0.691343 0.011797 0
0.688623 0.012452 0
0.685757 0.012696 0
0.682806 0.012570 0
0.679831 0.012120 0
0.676888 0.011398 0
0.674026 0.010455 0
0.671291 0.009346 0
0.668720 0.008124 0
0.666344 0.006841 0
0.664185 0.005542 0
0.662258 0.004273 0
0.660572 0.003070 0
0.659126 0.001962 0
0.657912 0.000970 0
0.656911 0.000099 0
0.656115 -0.000636 0
0.655517 -0.001224 0
0.655097 -0.001669 0
0.654832 -0.001983 0
0.654697 -0.002180 0
0.654669 -0.002274 0
0.654724 -0.002285 0
0.654839 -0.002227 0
0.654997 -0.002119 0
0.655179 -0.001975 0
0.655375 -0.001808 0
0.655573 -0.001629 0
0.655766 -0.001447 0
0.655948 -0.001270 0
0.656117 -0.001102 0
0.656272 -0.000946 0
0.656410 -0.000806 0
0.656534 -0.000681 0
0.656643 -0.000573 0
0.656740 -0.000481 0
0.656826 -0.000405 0
0.656903 -0.000346 0
0.656975 -0.000315 0
0.000000 0.000000 0
0.000000 0.000000 0
0.000000 0.000000 0
0.000000 0.000000 0
0.000000 0.000000 0
0.000000 0.000000 0
0.000000 0.000000 0
0.000000 0.000000 0
0.000000 0.000000 0
0.000000 0.000000 0
0.000000 0.038950 0
-0.005885 0.085600 0
0.015911 0.084479 0
0.049448 0.065689 0
0.088063 0.046806 0
0.129875 0.029390 0
0.173689 0.012318 0
0.219015 -0.005181 0
0.265498 -0.022784 0
0.311994 -0.040113 0
0.356469 -0.057641 0
0.397682 -0.075366 0
0.435428 -0.092756 0
0.469670 -0.109228 0
0.500658 -0.124281 0
0.528638 -0.137563 0
0.553866 -0.148814 0
0.576614 -0.157868 0
0.597143 -0.164650 0
0.615697 -0.169171 0
0.632478 -0.171508 0
0.647654 -0.171783 0
0.661376 -0.170153 0
0.673779 -0.166801 0
0.684977 -0.161930 0
0.695071 -0.155755 0
0.704144 -0.148492 0
0.712271 -0.140355 0
0.719514 -0.131545 0
0.725929 -0.122252 0
0.731569 -0.112644 0
0.736482 -0.102875 0
0.740712 -0.093077 0
0.744305 -0.083364 0
0.747302 -0.073832 0
0.749742 -0.064566 0
0.751661 -0.055632 0
0.753089 -0.047089 0
0.754053 -0.038987 0
0.754581 -0.031366 0
0.754695 -0.024264 0
0.754416 -0.017712 0
0.753765 -0.011739 0
0.752765 -0.006364 0
0.751430 -0.001602 0
0.749762 0.002551 0
0.747755 0.006114 0
0.745430 0.009093 0
0.742825 0.011498 0
0.739983 0.013345 0
0.736952 0.014657 0
0.733781 0.015464 0
0.730520 0.015804 0
0.727218 0.015720 0
0.723920 0.015260 0
0.720671 0.014480 0
0.717512 0.013436 0
0.714477 0.012187 0
0.711599 0.010793 0
0.708903 0.009311 0
0.706413 0.007794 0
0.704142 0.006294 0
0.702101 0.004852 0
0.700294 0.003506 0
0.698722 0.002283 0
0.697374 0.001201 0
0.696234 0.000265 0
0.695290 -0.000519 0
0.694533 -0.001143 0
0.693949 -0.001615 0
0.693518 -0.001946 0
0.693219 -0.002152 0
0.693030 -0.002251 0
0.692929 -0.002261 0
0.692897 -0.002201 0
0.692916 -0.002089 0
0.692971 -0.001941 0
0.693049 -0.001772 0
0.693142 -0.001591 0
0.693240 -0.001410 0
0.693339 -0.001234 0
0.693434 -0.001068 0
0.693525 -0.000917 0
0.693608 -0.000781 0
0.693684 -0.000662 0
0.693752 -0.000561 0
0.693815 -0.000477 0
0.693872 -0.000413 0
0.693925 -0.000379 0
0.000000 0.000000 0
0.000000 0.000000 0
0.000000 0.000000 0
0.000000 0.000000 0
0.000000 0.000000 0
0.000000 0.000000 0
0.000000 0.000000 0
0.000000 0.000000 0
0.000000 0.000000 0
0.000000 0.000000 0
0.000000 0.037184 0
0.070119 0.062918 0
0.145842 0.037923 0
0.214813 0.012967 0
0.277453 -0.008471 0
0.335504 -0.026939 0
0.389714 -0.042844 0
0.440102 -0.057318 0
0.486375 -0.071302 0
0.528913 -0.085267 0
0.567857 -0.099283 0
0.603044 -0.113243 0
0.634435 -0.126828 0
0.662122 -0.139635 0
0.686324 -0.151278 0
0.707306 -0.161434 0
0.725360 -0.169857 0
0.740782 -0.176381 0
0.753866 -0.180916 0
0.764886 -0.183446 0
0.774093 -0.184017 0
0.781708 -0.182725 0
0.787930 -0.179702 0
0.792938 -0.175110 0
0.796888 -0.169134 0
0.799917 -0.161969 0
0.802148 -0.153817 0
0.803685 -0.144877 0
0.804621 -0.135343 0
0.805040 -0.125391 0
0.805012 -0.115188 0
0.804603 -0.104879 0
0.803870 -0.094591 0
0.802864 -0.084435 0
0.801629 -0.074501 0
0.800204 -0.064868 0
0.798616 -0.055599 0
0.796886 -0.046747 0
0.795034 -0.038354 0
0.793068 -0.030459 0
0.790993 -0.023098 0
0.788813 -0.016301 0
0.786525 -0.010092 0
0.784121 -0.004488 0
0.781569 0.000516 0
0.778833 0.004933 0
0.775911 0.008754 0
0.772819 0.011966 0
0.769580 0.014570 0
0.766224 0.016577 0
0.762784 0.018009 0
0.759294 0.018894 0
0.755789 0.019269 0
0.752302 0.019179 0
0.748866 0.018676 0
0.745511 0.017815 0
0.742265 0.016658 0
0.739154 0.015267 0
0.736200 0.013705 0
0.733422 0.012033 0
0.730837 0.010310 0
0.728456 0.008590 0
0.726288 0.006921 0
0.724338 0.005345 0
0.722608 0.003893 0
0.721092 0.002590 0
0.719783 0.001451 0
0.718664 0.000478 0
0.717721 -0.000327 0
0.716944 -0.000967 0
0.716319 -0.001449 0
0.715830 -0.001785 0
0.715460 -0.001994 0
0.715189 -0.002094 0
0.715000 -0.002106 0
0.714876 -0.002048 0
0.714804 -0.001941 0
0.714771 -0.001799 0
0.714765 -0.001637 0
0.714778 -0.001467 0
0.714805 -0.001296 0
0.714838 -0.001132 0
0.714875 -0.000979 0
0.714913 -0.000840 0
0.714950 -0.000717 0
0.714986 -0.000612 0
0.715019 -0.000524 0
0.715050 -0.000456 0
0.715079 -0.000420 0
0.500000 0.000000 0
0.463553 0.000000 0
0.420730 0.000000 0
0.380653 0.000000 0
0.346170 0.000000 0
0.318054 0.000000 0
0.296392 0.000000 0
0.281288 0.000000 0
0.273791 0.000000 0
0.278519 0.000000 0
0.298197 -0.027274 0
0.378551 -0.056344 0
0.450903 -0.060211 0
0.513589 -0.065920 0
0.567819 -0.073883 0
0.614872 -0.082869 0
0.656484 -0.092279 0
0.693813 -0.101841 0
0.727486 -0.111593 0
0.757701 -0.121592 0
0.784559 -0.131767 0
0.808072 -0.141937 0
0.828267 -0.151825 0
0.845233 -0.161105 0
0.859131 -0.169454 0
0.870172 -0.176587 0
0.878600 -0.182276 0
0.884674 -0.186359 0
0.888658 -0.188739 0
0.890810 -0.189384 0
0.891375 -0.188316 0
0.890580 -0.185608 0
0.888635 -0.181371 0
0.885731 -0.175747 0
0.882043 -0.168899 0
0.877727 -0.161006 0
0.872924 -0.152252 0
0.867758 -0.142821 0
0.862340 -0.132894 0
0.856769 -0.122636 0
0.851130 -0.112202 0
0.845498 -0.101729 0
0.839936 -0.091334 0
0.834499 -0.081119 0
0.829230 -0.071166 0
0.824160 -0.061546 0
0.819309 -0.052311 0
0.814691 -0.043504 0
0.810306 -0.035162 0
0.806144 -0.027318 0
0.802192 -0.020002 0
0.798426 -0.013237 0
0.794813 -0.007040 0
0.791279 -0.001400 0
0.787757 0.003694 0
0.784227 0.008219 0
0.780691 0.012139 0
0.777154 0.015435 0
0.773625 0.018103 0
0.770116 0.020152 0
0.766643 0.021598 0
0.763222 0.022471 0
0.759870 0.022807 0
0.756604 0.022653 0
0.753438 0.022061 0
0.750390 0.021090 0
0.747473 0.019802 0
0.744699 0.018260 0
0.742080 0.016532 0
0.739626 0.014680 0
0.737344 0.012766 0
0.735241 0.010847 0
0.733319 0.008973 0
0.731582 0.007190 0
0.730027 0.005532 0