# vtk DataFile Version 2.0
generated by CFD-lab course output (written by Tobias Neckel) 
ASCII

DATASET STRUCTURED_GRID
DIMENSIONS  99 19 1 
POINTS 1881 float

0.000000 0.000000 0
0.100000 0.000000 0
0.200000 0.000000 0
0.300000 0.000000 0
0.400000 0.000000 0
0.500000 0.000000 0
0.600000 0.000000 0
0.700000 0.000000 0
0.800000 0.000000 0
0.900000 0.000000 0
1.000000 0.000000 0
1.100000 0.000000 0
1.200000 0.000000 0
1.300000 0.000000 0
1.400000 0.000000 0
1.500000 0.000000 0
1.600000 0.000000 0
1.700000 0.000000 0
1.800000 0.000000 0
1.900000 0.000000 0
2.000000 0.000000 0
2.100000 0.000000 0
2.200000 0.000000 0
2.300000 0.000000 0
2.400000 0.000000 0
2.500000 0.000000 0
2.600000 0.000000 0
2.700000 0.000000 0
2.800000 0.000000 0
2.900000 0.000000 0
3.000000 0.000000 0
3.100000 0.000000 0
3.200000 0.000000 0
3.300000 0.000000 0
3.400000 0.000000 0
3.500000 0.000000 0
3.600000 0.000000 0
3.700000 0.000000 0
3.800000 0.000000 0
3.900000 0.000000 0
4.000000 0.000000 0
4.100000 0.000000 0
4.200000 0.000000 0
4.300000 0.000000 0
4.400000 0.000000 0
4.500000 0.000000 0
4.600000 0.000000 0
4.700000 0.000000 0
4.800000 0.000000 0
4.900000 0.000000 0
5.000000 0.000000 0
5.100000 0.000000 0
5.200000 0.000000 0
5.300000 0.000000 0
5.400000 0.000000 0
5.500000 0.000000 0
5.600000 0.000000 0
5.700000 0.000000 0
5.800000 0.000000 0
5.900000 0.000000 0
6.000000 0.000000 0
6.100000 0.000000 0
6.200000 0.000000 0
6.300000 0.000000 0
6.400000 0.000000 0
6.500000 0.000000 0
6.600000 0.000000 0
6.700000 0.000000 0
6.800000 0.000000 0
6.900000 0.000000 0
7.000000 0.000000 0
7.100000 0.000000 0
7.200000 0.000000 0
7.300000 0.000000 0
7.400000 0.000000 0
7.500000 0.000000 0
7.600000 0.000000 0
7.700000 0.000000 0
7.800000 0.000000 0
7.900000 0.000000 0
8.000000 0.000000 0
8.100000 0.000000 0
8.200000 0.000000 0
8.300000 0.000000 0
8.400000 0.000000 0
8.500000 0.000000 0
8.600000 0.000000 0
8.700000 0.000000 0
8.800000 0.000000 0
8.900000 0.000000 0
9.000000 0.000000 0
9.100000 0.000000 0
9.200000 0.000000 0
9.300000 0.000000 0
9.400000 0.000000 0
9.500000 0.000000 0
9.600000 0.000000 0
9.700000 0.000000 0
9.800000 0.000000 0
0.000000 0.100000 0
0.100000 0.100000 0
0.200000 0.100000 0
0.300000 0.100000 0
0.400000 0.100000 0
0.500000 0.100000 0
0.600000 0.100000 0
0.700000 0.100000 0
0.800000 0.100000 0
0.900000 0.100000 0
1.000000 0.100000 0
1.100000 0.100000 0
1.200000 0.100000 0
1.300000 0.100000 0
1.400000 0.100000 0
1.500000 0.100000 0
1.600000 0.100000 0
1.700000 0.100000 0
1.800000 0.100000 0
1.900000 0.100000 0
2.000000 0.100000 0
2.100000 0.100000 0
2.200000 0.100000 0
2.300000 0.100000 0
2.400000 0.100000 0
2.500000 0.100000 0
2.600000 0.100000 0
2.700000 0.100000 0
2.800000 0.100000 0
2.900000 0.100000 0
3.000000 0.100000 0
3.100000 0.100000 0
3.200000 0.100000 0
3.300000 0.100000 0
3.400000 0.100000 0
3.500000 0.100000 0
3.600000 0.100000 0
3.700000 0.100000 0
3.800000 0.100000 0
3.900000 0.100000 0
4.000000 0.100000 0
4.100000 0.100000 0
4.200000 0.100000 0
4.300000 0.100000 0
4.400000 0.100000 0
4.500000 0.100000 0
4.600000 0.100000 0
4.700000 0.100000 0
4.800000 0.100000 0
4.900000 0.100000 0
5.000000 0.100000 0
5.100000 0.100000 0
5.200000 0.100000 0
5.300000 0.100000 0
5.400000 0.100000 0
5.500000 0.100000 0
5.600000 0.100000 0
5.700000 0.100000 0
5.800000 0.100000 0
5.900000 0.100000 0
6.000000 0.100000 0
6.100000 0.100000 0
6.200000 0.100000 0
6.300000 0.100000 0
6.400000 0.100000 0
6.500000 0.100000 0
6.600000 0.100000 0
6.700000 0.100000 0
6.800000 0.100000 0
6.900000 0.100000 0
7.000000 0.100000 0
7.100000 0.100000 0
7.200000 0.100000 0
7.300000 0.100000 0
7.400000 0.100000 0
7.500000 0.100000 0
7.600000 0.100000 0
7.700000 0.100000 0
7.800000 0.100000 0
7.900000 0.100000 0
8.000000 0.100000 0
8.100000 0.100000 0
8.200000 0.100000 0
8.300000 0.100000 0
8.400000 0.100000 0
8.500000 0.100000 0
8.600000 0.100000 0
8.700000 0.100000 0
8.800000 0.100000 0
8.900000 0.100000 0
9.000000 0.100000 0
9.100000 0.100000 0
9.200000 0.100000 0
9.300000 0.100000 0
9.400000 0.100000 0
9.500000 0.100000 0
9.600000 0.100000 0
9.700000 0.100000 0
9.800000 0.100000 0
0.000000 0.200000 0
0.100000 0.200000 0
0.200000 0.200000 0
0.300000 0.200000 0
0.400000 0.200000 0
0.500000 0.200000 0
0.600000 0.200000 0
0.700000 0.200000 0
0.800000 0.200000 0
0.900000 0.200000 0
1.000000 0.200000 0
1.100000 0.200000 0
1.200000 0.200000 0
1.300000 0.200000 0
1.400000 0.200000 0
1.500000 0.200000 0
1.600000 0.200000 0
1.700000 0.200000 0
1.800000 0.200000 0
1.900000 0.200000 0
2.000000 0.200000 0
2.100000 0.200000 0
2.200000 0.200000 0
2.300000 0.200000 0
2.400000 0.200000 0
2.500000 0.200000 0
2.600000 0.200000 0
2.700000 0.200000 0
2.800000 0.200000 0
2.900000 0.200000 0
3.000000 0.200000 0
3.100000 0.200000 0
3.200000 0.200000 0
3.300000 0.200000 0
3.400000 0.200000 0
3.500000 0.200000 0
3.600000 0.200000 0
3.700000 0.200000 0
3.800000 0.200000 0
3.900000 0.200000 0
4.000000 0.200000 0
4.100000 0.200000 0
4.200000 0.200000 0
4.300000 0.200000 0
4.400000 0.200000 0
4.500000 0.200000 0
4.600000 0.200000 0
4.700000 0.200000 0
4.800000 0.200000 0
4.900000 0.200000 0
5.000000 0.200000 0
5.100000 0.200000 0
5.200000 0.200000 0
5.300000 0.200000 0
5.400000 0.200000 0
5.500000 0.200000 0
5.600000 0.200000 0
5.700000 0.200000 0
5.800000 0.200000 0
5.900000 0.200000 0
6.000000 0.200000 0
6.100000 0.200000 0
6.200000 0.200000 0
6.300000 0.200000 0
6.400000 0.200000 0
6.500000 0.200000 0
6.600000 0.200000 0
6.700000 0.200000 0
6.800000 0.200000 0
6.900000 0.200000 0
7.000000 0.200000 0
7.100000 0.200000 0
7.200000 0.200000 0
7.300000 0.200000 0
7.400000 0.200000 0
7.500000 0.200000 0
7.600000 0.200000 0
7.700000 0.200000 0
7.800000 0.200000 0
7.900000 0.200000 0
8.000000 0.200000 0
8.100000 0.200000 0
8.200000 0.200000 0
8.300000 0.200000 0
8.400000 0.200000 0
8.500000 0.200000 0
8.600000 0.200000 0
8.700000 0.200000 0
8.800000 0.200000 0
8.900000 0.200000 0
9.000000 0.200000 0
9.100000 0.200000 0
9.200000 0.200000 0
9.300000 0.200000 0
9.400000 0.200000 0
9.500000 0.200000 0
9.600000 0.200000 0
9.700000 0.200000 0
9.800000 0.200000 0
0.000000 0.300000 0
0.100000 0.300000 0
0.200000 0.300000 0
0.300000 0.300000 0
0.400000 0.300000 0
0.500000 0.300000 0
0.600000 0.300000 0
0.700000 0.300000 0
0.800000 0.300000 0
0.900000 0.300000 0
1.000000 0.300000 0
1.100000 0.300000 0
1.200000 0.300000 0
1.300000 0.300000 0
1.400000 0.300000 0
1.500000 0.300000 0
1.600000 0.300000 0
1.700000 0.300000 0
1.800000 0.300000 0
1.900000 0.300000 0
2.000000 0.300000 0
2.100000 0.300000 0
2.200000 0.300000 0
2.300000 0.300000 0
2.400000 0.300000 0
2.500000 0.300000 0
2.600000 0.300000 0
2.700000 0.300000 0
2.800000 0.300000 0
2.900000 0.300000 0
3.000000 0.300000 0
3.100000 0.300000 0
3.200000 0.300000 0
3.300000 0.300000 0
3.400000 0.300000 0
3.500000 0.300000 0
3.600000 0.300000 0
3.700000 0.300000 0
3.800000 0.300000 0
3.900000 0.300000 0
4.000000 0.300000 0
4.100000 0.300000 0
4.200000 0.300000 0
4.300000 0.300000 0
4.400000 0.300000 0
4.500000 0.300000 0
4.600000 0.300000 0
4.700000 0.300000 0
4.800000 0.300000 0
4.900000 0.300000 0
5.000000 0.300000 0
5.100000 0.300000 0
5.200000 0.300000 0
5.300000 0.300000 0
5.400000 0.300000 0
5.500000 0.300000 0
5.600000 0.300000 0
5.700000 0.300000 0
5.800000 0.300000 0
5.900000 0.300000 0
6.000000 0.300000 0
6.100000 0.300000 0
6.200000 0.300000 0
6.300000 0.300000 0
6.400000 0.300000 0
6.500000 0.300000 0
6.600000 0.300000 0
6.700000 0.300000 0
6.800000 0.300000 0
6.900000 0.300000 0
7.000000 0.300000 0
7.100000 0.300000 0
7.200000 0.300000 0
7.300000 0.300000 0
7.400000 0.300000 0
7.500000 0.300000 0
7.600000 0.300000 0
7.700000 0.300000 0
7.800000 0.300000 0
7.900000 0.300000 0
8.000000 0.300000 0
8.100000 0.300000 0
8.200000 0.300000 0
8.300000 0.300000 0
8.400000 0.300000 0
8.500000 0.300000 0
8.600000 0.300000 0
8.700000 0.300000 0
8.800000 0.300000 0
8.900000 0.300000 0
9.000000 0.300000 0
9.100000 0.300000 0
9.200000 0.300000 0
9.300000 0.300000 0
9.400000 0.300000 0
9.500000 0.300000 0
9.600000 0.300000 0
9.700000 0.300000 0
9.800000 0.300000 0
0.000000 0.400000 0
0.100000 0.400000 0
0.200000 0.400000 0
0.300000 0.400000 0
0.400000 0.400000 0
0.500000 0.400000 0
0.600000 0.400000 0
0.700000 0.400000 0
0.800000 0.400000 0
0.900000 0.400000 0
1.000000 0.400000 0
1.100000 0.400000 0
1.200000 0.400000 0
1.300000 0.400000 0
1.400000 0.400000 0
1.500000 0.400000 0
1.600000 0.400000 0
1.700000 0.400000 0
1.800000 0.400000 0
1.900000 0.400000 0
2.000000 0.400000 0
2.100000 0.400000 0
2.200000 0.400000 0
2.300000 0.400000 0
2.400000 0.400000 0
2.500000 0.400000 0
2.600000 0.400000 0
2.700000 0.400000 0
2.800000 0.400000 0
2.900000 0.400000 0
3.000000 0.400000 0
3.100000 0.400000 0
3.200000 0.400000 0
3.300000 0.400000 0
3.400000 0.400000 0
3.500000 0.400000 0
3.600000 0.400000 0
3.700000 0.400000 0
3.800000 0.400000 0
3.900000 0.400000 0
4.000000 0.400000 0
4.100000 0.400000 0
4.200000 0.400000 0
4.300000 0.400000 0
4.400000 0.400000 0
4.500000 0.400000 0
4.600000 0.400000 0
4.700000 0.400000 0
4.800000 0.400000 0
4.900000 0.400000 0
5.000000 0.400000 0
5.100000 0.400000 0
5.200000 0.400000 0
5.300000 0.400000 0
5.400000 0.400000 0
5.500000 0.400000 0
5.600000 0.400000 0
5.700000 0.400000 0
5.800000 0.400000 0
5.900000 0.400000 0
6.000000 0.400000 0
6.100000 0.400000 0
6.200000 0.400000 0
6.300000 0.400000 0
6.400000 0.400000 0
6.500000 0.400000 0
6.600000 0.400000 0
6.700000 0.400000 0
6.800000 0.400000 0
6.900000 0.400000 0
7.000000 0.400000 0
7.100000 0.400000 0
7.200000 0.400000 0
7.300000 0.400000 0
7.400000 0.400000 0
7.500000 0.400000 0
7.600000 0.400000 0
7.700000 0.400000 0
7.800000 0.400000 0
7.900000 0.400000 0
8.000000 0.400000 0
8.100000 0.400000 0
8.200000 0.400000 0
8.300000 0.400000 0
8.400000 0.400000 0
8.500000 0.400000 0
8.600000 0.400000 0
8.700000 0.400000 0
8.800000 0.400000 0
8.900000 0.400000 0
9.000000 0.400000 0
9.100000 0.400000 0
9.200000 0.400000 0
9.300000 0.400000 0
9.400000 0.400000 0
[...]
POINT_DATA 1881 

VECTORS velocity float
0.000000 0.000000 0
0.000000 0.000000 0
0.000000 0.000000 0
0.000000 0.000000 0
0.000000 0.000000 0
0.000000 0.000000 0
0.000000 0.000000 0
0.000000 0.000000 0
0.000000 0.000000 0
0.000000 0.000000 0
0.000000 0.000000 0
-0.000491 0.000000 0
-0.002923 0.000000 0
-0.006336 0.000000 0
-0.010031 0.000000 0
-0.013745 0.000000 0
-0.017451 0.000000 0
-0.021191 0.000000 0
-0.025005 0.000000 0
-0.028890 0.000000 0
-0.032789 0.000000 0
-0.036587 0.000000 0
-0.040115 0.000000 0
-0.043168 0.000000 0
-0.045537 0.000000 0
-0.047054 0.000000 0
-0.047616 0.000000 0
-0.047223 0.000000 0
-0.045885 0.000000 0
-0.043663 0.000000 0
-0.040637 0.000000 0
-0.036943 0.000000 0
-0.032739 0.000000 0
-0.028183 0.000000 0
-0.023376 0.000000 0
-0.018405 0.000000 0
-0.013408 0.000000 0
-0.008497 0.000000 0
-0.003689 0.000000 0
0.000922 0.000000 0
0.005255 0.000000 0
0.009276 0.000000 0
0.012978 0.000000 0
0.016358 0.000000 0
0.019421 0.000000 0
0.022176 0.000000 0
0.024634 0.000000 0
0.026813 0.000000 0
0.028729 0.000000 0
0.030403 0.000000 0
0.031856 0.000000 0
0.033107 0.000000 0
0.034176 0.000000 0
0.035085 0.000000 0
0.035850 0.000000 0
0.036491 0.000000 0
0.037022 0.000000 0
0.037459 0.000000 0
0.037816 0.000000 0
0.038104 0.000000 0
0.038335 0.000000 0
0.038518 0.000000 0
0.038661 0.000000 0
0.038772 0.000000 0
0.038858 0.000000 0
0.038924 0.000000 0
0.038974 0.000000 0
0.039012 0.000000 0
0.039042 0.000000 0
0.039066 0.000000 0
0.039087 0.000000 0
0.039106 0.000000 0
0.039125 0.000000 0
0.039145 0.000000 0
0.039166 0.000000 0
0.039190 0.000000 0
0.039216 0.000000 0
0.039245 0.000000 0
0.039277 0.000000 0
0.039312 0.000000 0
0.039349 0.000000 0
0.039389 0.000000 0
0.039432 0.000000 0
0.039477 0.000000 0
0.039523 0.000000 0
0.039571 0.000000 0
0.039621 0.000000 0
0.039671 0.000000 0
0.039722 0.000000 0
0.039773 0.000000 0
0.039825 0.000000 0
0.039876 0.000000 0
0.039928 0.000000 0
0.039979 0.000000 0
0.040029 0.000000 0
0.040078 0.000000 0
0.040126 0.000000 0
0.040172 0.000000 0
0.040216 0.000000 0
0.000000 0.000000 0
0.000000 0.000000 0
0.000000 0.000000 0
0.000000 0.000000 0
0.000000 0.000000 0
0.000000 0.000000 0
0.000000 0.000000 0
0.000000 0.000000 0
0.000000 0.000000 0
0.000000 0.000000 0
0.000000 0.000491 0
-0.003591 0.002924 0
-0.012707 0.005846 0
-0.024285 0.007107 0
-0.036450 0.007408 0
-0.048468 0.007419 0
-0.060202 0.007445 0
-0.071709 0.007555 0
-0.083030 0.007699 0
-0.094090 0.007784 0
-0.104672 0.007697 0
-0.114406 0.007326 0
-0.122821 0.006582 0
-0.129369 0.005423 0
-0.133537 0.003886 0
-0.134947 0.002078 0
-0.133406 0.000169 0
-0.129046 -0.001731 0
-0.122174 -0.003560 0
-0.113118 -0.005247 0
-0.102150 -0.006720 0
-0.089655 -0.007898 0
-0.076034 -0.008760 0
-0.061677 -0.009364 0
-0.046844 -0.009778 0
-0.031744 -0.009967 0
-0.016665 -0.009908 0
-0.001845 -0.009719 0
0.012437 -0.009419 0
0.026054 -0.008944 0
0.038909 -0.008355 0
0.050937 -0.007723 0
0.062102 -0.007082 0
0.072392 -0.006443 0
0.081809 -0.005817 0
0.090368 -0.005213 0
0.098097 -0.004637 0
0.105031 -0.004095 0
0.111213 -0.003591 0
0.116691 -0.003126 0
0.121513 -0.002703 0
0.125734 -0.002321 0
0.129404 -0.001978 0
0.132576 -0.001674 0
0.135301 -0.001406 0
0.137626 -0.001172 0
0.139598 -0.000968 0
0.141259 -0.000794 0
0.142649 -0.000645 0
0.143805 -0.000519 0
0.144760 -0.000414 0
0.145543 -0.000326 0
0.146182 -0.000255 0
0.146700 -0.000197 0
0.147118 -0.000151 0
0.147455 -0.000115 0
0.147727 -0.000088 0
0.147946 -0.000068 0
0.148126 -0.000054 0
0.148276 -0.000045 0
0.148404 -0.000040 0
0.148517 -0.000038 0
0.148621 -0.000039 0
0.148720 -0.000041 0
0.148818 -0.000045 0
0.148917 -0.000050 0
0.149021 -0.000055 0
0.149129 -0.000061 0
0.149243 -0.000067 0
0.149364 -0.000072 0
0.149492 -0.000078 0
0.149627 -0.000083 0
0.149768 -0.000087 0
0.149914 -0.000091 0
0.150066 -0.000095 0
0.150223 -0.000097 0
0.150383 -0.000100 0
0.150547 -0.000101 0
0.150712 -0.000102 0
0.150880 -0.000103 0
0.151047 -0.000103 0
0.151215 -0.000103 0
0.151383 -0.000102 0
0.151549 -0.000101 0
0.151714 -0.000099 0
0.151877 -0.000097 0
0.152036 -0.000094 0
0.152190 -0.000090 0
0.152337 -0.000088 0
0.000000 0.000000 0
0.000000 0.000000 0
0.000000 0.000000 0
0.000000 0.000000 0
0.000000 0.000000 0
0.000000 0.000000 0
0.000000 0.000000 0
0.000000 0.000000 0
0.000000 0.000000 0
0.000000 0.000000 0
0.000000 0.003591 0
-0.008441 0.012708 0
-0.024834 0.020694 0
-0.043794 0.023741 0
-0.062775 0.024180 0
-0.080857 0.023751 0
-0.097850 0.023241 0
-0.113793 0.022829 0
-0.128683 0.022382 0
-0.142348 0.021642 0
-0.154433 0.020315 0
-0.164380 0.018149 0
-0.171570 0.014963 0
-0.175295 0.010716 0
-0.174941 0.005578 0
-0.170161 -0.000131 0
-0.161410 -0.005901 0
-0.149228 -0.011232 0
-0.134257 -0.015928 0
-0.117061 -0.020023 0
-0.097993 -0.023462 0
-0.077549 -0.026116 0
-0.056138 -0.027978 0
-0.034119 -0.029191 0
-0.011894 -0.029933 0
0.010145 -0.030179 0
0.031803 -0.029899 0
0.052891 -0.029101 0
0.073141 -0.027899 0
0.092446 -0.026473 0
0.110746 -0.024883 0
0.127979 -0.023193 0
0.144096 -0.021455 0
0.159072 -0.019706 0
0.172905 -0.017976 0
0.185608 -0.016288 0
0.197207 -0.014663 0
0.207739 -0.013117 0
0.217251 -0.011659 0
0.225795 -0.010300 0
0.233429 -0.009043 0
0.240212 -0.007890 0
0.246208 -0.006842 0
0.251480 -0.005897 0
0.256090 -0.005050 0
0.260101 -0.004297 0
0.263570 -0.003633 0
0.266556 -0.003052 0
0.269112 -0.002546 0
0.271289 -0.002110 0
0.273133 -0.001738 0
0.274688 -0.001422 0
0.275994 -0.001157 0
0.277085 -0.000936 0
0.277995 -0.000755 0
0.278753 -0.000608 0
0.279383 -0.000491 0
0.279908 -0.000400 0
0.280349 -0.000329 0
0.280721 -0.000278 0
0.281041 -0.000241 0
0.281319 -0.000217 0
0.281567 -0.000203 0
0.281794 -0.000197 0
0.282006 -0.000198 0
0.282210 -0.000203 0
0.282409 -0.000212 0
0.282609 -0.000223 0
0.282811 -0.000235 0
0.283018 -0.000249 0
0.283230 -0.000262 0
0.283449 -0.000275 0
0.283674 -0.000288 0
0.283906 -0.000299 0
0.284144 -0.000309 0
0.284388 -0.000317 0
0.284638 -0.000324 0
0.284891 -0.000329 0
0.285147 -0.000333 0
0.285406 -0.000335 0
0.285666 -0.000336 0
0.285927 -0.000335 0
0.286187 -0.000334 0
0.286446 -0.000331 0
0.286704 -0.000327 0
0.286960 -0.000322 0
0.287213 -0.000313 0
0.287462 -0.000302 0
0.287706 -0.000295 0
0.000000 0.000000 0
0.000000 0.000000 0
0.000000 0.000000 0
0.000000 0.000000 0
0.000000 0.000000 0
0.000000 0.000000 0
0.000000 0.000000 0
0.000000 0.000000 0
0.000000 0.000000 0
0.000000 0.000000 0
0.000000 0.008933 0
-0.012073 0.027760 0
-0.032742 0.041198 0
-0.054581 0.045044 0
-0.074913 0.044469 0
-0.093029 0.042494 0
-0.108894 0.040383 0
-0.122637 0.038389 0
-0.134294 0.036254 0
-0.143639 0.033532 0
-0.150305 0.029728 0
-0.153583 0.024464 0
-0.152867 0.017498 0
-0.147407 0.008794 0
-0.137051 -0.001249 0
-0.122790 -0.011454 0
-0.105497 -0.020764 0
-0.085812 -0.028883 0
-0.064287 -0.035727 0
-0.041321 -0.041512 0
-0.017557 -0.046231 0
0.006690 -0.049753 0
0.031176 -0.052192 0
0.055686 -0.053608 0
0.079906 -0.054041 0
0.103527 -0.053664 0
0.126413 -0.052654 0
0.148451 -0.051057 0
0.169623 -0.048974 0
0.189824 -0.046550 0
0.208985 -0.043887 0
0.227058 -0.041072 0
0.244009 -0.038175 0
0.259825 -0.035253 0
0.274506 -0.032353 0
0.288069 -0.029515 0
0.300538 -0.026768 0
0.311950 -0.024139 0
0.322345 -0.021647 0
0.331772 -0.019304 0
0.340283 -0.017120 0
0.347931 -0.015100 0
0.354774 -0.013246 0
0.360869 -0.011556 0
0.366272 -0.010026 0
0.371041 -0.008652 0
0.375232 -0.007424 0
0.378897 -0.006336 0
0.382089 -0.005378 0
0.384857 -0.004540 0
0.387247 -0.003813 0
0.389302 -0.003187 0
0.391062 -0.002652 0
0.392566 -0.002199 0
0.393846 -0.001818 0
0.394934 -0.001503 0
0.395858 -0.001244 0
0.396643 -0.001034 0
0.397311 -0.000867 0
0.397882 -0.000737 0
0.398374 -0.000638 0
0.398801 -0.000565 0
0.399178 -0.000513 0
0.399514 -0.000480 0
0.399820 -0.000461 0
0.400103 -0.000453 0
0.400371 -0.000455 0
0.400628 -0.000463 0
0.400879 -0.000475 0
0.401128 -0.000491 0
0.401376 -0.000509 0
0.401626 -0.000527 0
0.401879 -0.000545 0
0.402136 -0.000562 0
0.402398 -0.000577 0
0.402663 -0.000591 0
0.402932 -0.000602 0
0.403205 -0.000611 0
0.403481 -0.000618 0
0.403758 -0.000622 0
0.404038 -0.000624 0
0.404317 -0.000624 0
0.404597 -0.000622 0
0.404877 -0.000618 0
0.405155 -0.000613 0
0.405434 -0.000606 0
0.405712 -0.000596 0
0.405993 -0.000584 0
0.406277 -0.000576 0
0.000000 0.000000 0
0.000000 0.000000 0
0.000000 0.000000 0
0.000000 0.000000 0
0.000000 0.000000 0
0.000000 0.000000 0
0.000000 0.000000 0
0.000000 0.000000 0
0.000000 0.000000 0
0.000000 0.000000 0
0.000000 0.015668 0
-0.014190 0.045454 0
-0.035416 0.063200 0
-0.055183 0.065907 0
-0.071421 0.062627 0
-0.084015 0.057734 0
-0.093222 0.052852 0
-0.099330 0.048230 0
-0.102471 0.043382 0
-0.102285 0.037651 0
-0.098496 0.030260 0
-0.090125 0.020712 0
-0.076238 0.008788 0
-0.057903 -0.005099 0
-0.036741 -0.019040 0
-0.014085 -0.031687 0
0.009645 -0.042879 0
0.034146 -0.052441 0
0.059183 -0.060418 0
0.084519 -0.066753 0
0.109693 -0.071473 0
0.134543 -0.074849 0
0.158916 -0.076975 0
0.182677 -0.077921 0
0.205734 -0.077774 0
0.228034 -0.076685 0
0.249464 -0.074824 0
0.269948 -0.072312 0
0.289471 -0.069272 0
0.307998 -0.065834 0
0.325497 -0.062116 0
0.341952 -0.058217 0
0.357353 -0.054222 0
0.371707 -0.050203 0
0.385027 -0.046220 0
0.397338 -0.042320 0
0.408671 -0.038544 0
0.419063 -0.034923 0
0.428557 -0.031482 0
0.437195 -0.028238 0
0.445027 -0.025202 0
0.452101 -0.022382 0
0.458465 -0.019780 0
0.464170 -0.017395 0
0.469264 -0.015223 0
0.473795 -0.013257 0
0.477809 -0.011489 0
0.481353 -0.009909 0
0.484468 -0.008506 0
0.487197 -0.007268 0
0.489578 -0.006183 0
0.491648 -0.005238 0
0.493441 -0.004421 0
0.494989 -0.003720 0
0.496322 -0.003123 0
0.497466 -0.002620 0
0.498447 -0.002200 0
0.499287 -0.001852 0
0.500005 -0.001569 0
0.500622 -0.001341 0
0.501152 -0.001160 0
0.501610 -0.001021 0
0.502009 -0.000915 0
0.502359 -0.000839 0
0.502671 -0.000787 0
0.502953 -0.000754 0
0.503212 -0.000736 0
0.503453 -0.000731 0
0.503682 -0.000735 0
0.503903 -0.000746 0
0.504118 -0.000761 0
0.504331 -0.000779 0
0.504542 -0.000798 0
0.504755 -0.000817 0
0.504969 -0.000835 0
0.505185 -0.000852 0
0.505403 -0.000866 0
0.505624 -0.000877 0
0.505848 -0.000886 0
0.506073 -0.000892 0
0.506299 -0.000895 0
0.506527 -0.000895 0
0.506755 -0.000893 0
0.506983 -0.000889 0
0.507211 -0.000884 0
0.507441 -0.000878 0
0.507674 -0.000873 0
0.507913 -0.000867 0
0.508163 -0.000864 0
0.000000 0.000000 0
0.000000 0.000000 0
0.000000 0.000000 0
0.000000 0.000000 0
0.000000 0.000000 0
0.000000 0.000000 0
0.000000 0.000000 0
0.000000 0.000000 0
0.000000 0.000000 0
0.000000 0.000000 0
0.000000 0.023129 0
-0.015388 0.063180 0
-0.032790 0.082186 0
-0.044668 0.081045 0
-0.050989 0.073301 0
-0.052713 0.064300 0
-0.050335 0.055701 0
-0.044120 0.047637 0
-0.034121 0.039206 0
-0.019783 0.029556 0
-0.000275 0.017569 0
0.023709 0.002208 0
0.050652 -0.014723 0
0.078770 -0.030704 0
0.106673 -0.045069 0
0.134163 -0.057840 0
0.161094 -0.068995 0
0.187382 -0.078421 0
0.213010 -0.086098 0
0.237838 -0.092022 0
0.261930 -0.096255 0
0.285193 -0.098977 0
0.307547 -0.100326 0
0.328939 -0.100425 0
0.349355 -0.099398 0
0.368798 -0.097393 0
0.387249 -0.094568 0
0.404695 -0.091066 0
0.421143 -0.087024 0
0.436598 -0.082575 0
0.451070 -0.077841 0
0.464570 -0.072928 0
0.477117 -0.067930 0
0.488733 -0.062927 0
0.499448 -0.057985 0
0.509297 -0.053159 0
0.518316 -0.048494 0
0.526547 -0.044025 0
0.534033 -0.039779 0
0.540818 -0.035775 0
0.546946 -0.032025 0
0.552462 -0.028538 0
0.557410 -0.025315 0
0.561832 -0.022354 0
0.565770 -0.019651 0
0.569265 -0.017197 0
0.572355 -0.014982 0
0.575075 -0.012995 0
0.577462 -0.011222 0
0.579547 -0.009650 0
0.581360 -0.008264 0
0.582931 -0.007050 0
0.584285 -0.005993 0
0.585448 -0.005079 0
0.586441 -0.004295 0
0.587285 -0.003628 0
0.588000 -0.003064 0
0.588603 -0.002593 0
0.589108 -0.002202 0
0.589530 -0.001883 0
0.589882 -0.001626 0
0.590175 -0.001421 0
0.590419 -0.001263 0
0.590622 -0.001143 0
0.590793 -0.001055 0
0.590937 -0.000994 0
0.591061 -0.000955 0
0.591171 -0.000933 0
0.591269 -0.000925 0
0.591359 -0.000927 0
0.591445 -0.000936 0
0.591528 -0.000951 0
0.591611 -0.000969 0
0.591695 -0.000988 0
0.591781 -0.001007 0
0.591869 -0.001025 0
0.591960 -0.001042 0
0.592055 -0.001055 0
0.592152 -0.001066 0
0.592253 -0.001073 0
0.592357 -0.001078 0
0.592463 -0.001079 0
0.592571 -0.001078 0
0.592681 -0.001075 0
0.592793 -0.001071 0
0.592908 -0.001068 0
0.593026 -0.001068 0
0.593153 -0.001073 0
0.593292 -0.001078 0
0.000000 0.000000 0
0.000000 0.000000 0
0.000000 0.000000 0
0.000000 0.000000 0
0.000000 0.000000 0
0.000000 0.000000 0
0.000000 0.000000 0
0.000000 0.000000 0
0.000000 0.000000 0
0.000000 0.000000 0
0.000000 0.031063 0
-0.015483 0.078246 0
-0.021848 0.092471 0
-0.017463 0.084103 0
-0.006409 0.070675 0
0.008885 0.057085 0
0.028055 0.044262 0
0.051531 0.032014 0
0.079787 0.019041 0
0.111730 0.003803 0
0.146208 -0.013231 0
0.181328 -0.030213 0
0.214965 -0.046272 0
0.246764 -0.061121 0
0.276885 -0.074434 0
0.305423 -0.086109 0
0.332381 -0.096098 0
0.357802 -0.104356 0
0.381762 -0.110873 0
0.404315 -0.115673 0
0.425572 -0.118829 0
0.445588 -0.120467 0
0.464399 -0.120721 0
0.482038 -0.119729 0
0.498550 -0.117632 0
0.513982 -0.114579 0
0.528374 -0.110721 0
0.541765 -0.106206 0
0.554193 -0.101175 0
0.565695 -0.095762 0
0.576309 -0.090088 0
0.586069 -0.084264 0
0.595014 -0.078385 0
0.603180 -0.072535 0
0.610608 -0.066783 0
0.617339 -0.061188 0
0.623413 -0.055795 0
0.628873 -0.050641 0
0.633762 -0.045753 0
0.638120 -0.041150 0
0.641988 -0.036846 0
0.645407 -0.032845 0
0.648413 -0.029150 0
0.651043 -0.025755 0
0.653332 -0.022656 0
0.655312 -0.019841 0
0.657013 -0.017299 0
0.658465 -0.015016 0
0.659694 -0.012977 0
0.660723 -0.011166 0
0.661576 -0.009567 0
0.662273 -0.008163 0
0.662834 -0.006938 0
0.663275 -0.005876 0
0.663612 -0.004961 0
0.663858 -0.004180 0
0.664028 -0.003517 0
0.664131 -0.002960 0
0.664179 -0.002497 0
0.664179 -0.002115 0
0.664141 -0.001805 0
0.664072 -0.001557 0
0.663977 -0.001362 0
0.663863 -0.001213 0
0.663734 -0.001102 0
0.663594 -0.001023 0
0.663448 -0.000970 0
0.663298 -0.000938 0
0.663147 -0.000924 0
0.662997 -0.000922 0
0.662850 -0.000930 0
0.662708 -0.000945 0
0.662570 -0.000964 0
0.662440 -0.000986 0
0.662316 -0.001009 0
0.662199 -0.001031 0
0.662090 -0.001052 0
0.661989 -0.001070 0
0.661895 -0.001085 0
0.661808 -0.001096 0
0.661728 -0.001105 0
0.661655 -0.001110 0
0.661587 -0.001112 0
0.661524 -0.001111 0
0.661466 -0.001111 0
0.661412 -0.001111 0
0.661363 -0.001117 0
0.661320 -0.001133 0
0.661286 -0.001143 0
0.000000 0.000000 0
0.000000 0.000000 0
0.000000 0.000000 0
0.000000 0.000000 0
0.000000 0.000000 0
0.000000 0.000000 0
0.000000 0.000000 0
0.000000 0.000000 0
0.000000 0.000000 0
0.000000 0.000000 0
0.000000 0.038616 0
-0.005825 0.085026 0
0.015459 0.084156 0
0.047964 0.065605 0
0.084907 0.046960 0
0.124627 0.029842 0
0.165892 0.013056 0
0.208122 -0.004099 0
0.250851 -0.020996 0
0.292957 -0.036865 0
0.332746 -0.052026 0
0.369567 -0.066547 0
0.403521 -0.080160 0
0.434669 -0.092626 0
0.463212 -0.103728 0
0.489360 -0.113336 0
0.513283 -0.121374 0
0.535143 -0.127801 0
0.555103 -0.132611 0
0.573320 -0.135832 0
0.589952 -0.137529 0
0.605133 -0.137804 0
0.618977 -0.136776 0
0.631585 -0.134575 0
0.643049 -0.131341 0
0.653457 -0.127218 0
0.662887 -0.122351 0
0.671412 -0.116884 0
0.679096 -0.110954 0
0.685999 -0.104691 0
0.692176 -0.098214 0
0.697680 -0.091633 0
0.702557 -0.085041 0
0.706855 -0.078521 0
0.710617 -0.072143 0
0.713886 -0.065963 0
0.716701 -0.060028 0
0.719104 -0.054374 0
0.721130 -0.049025 0
0.722815 -0.044001 0
0.724193 -0.039312 0
0.725297 -0.034963 0
0.726154 -0.030951 0
0.726794 -0.027274 0
0.727242 -0.023920 0
0.727520 -0.020879 0
0.727652 -0.018136 0
0.727657 -0.015675 0
0.727552 -0.013480 0
0.727354 -0.011532 0
0.727078 -0.009814 0
0.726736 -0.008308 0
0.726339 -0.006994 0
0.725899 -0.005857 0
0.725424 -0.004879 0
0.724922 -0.004044 0
0.724399 -0.003337 0
0.723861 -0.002744 0
0.723313 -0.002251 0
0.722759 -0.001846 0
0.722204 -0.001518 0
0.721651 -0.001257 0
0.721102 -0.001054 0
0.720560 -0.000899 0
0.720027 -0.000787 0
0.719506 -0.000708 0
0.718996 -0.000658 0
0.718501 -0.000632 0
0.718019 -0.000624 0
0.717552 -0.000630 0
0.717101 -0.000647 0
0.716666 -0.000671 0
0.716247 -0.000701 0
0.715845 -0.000733 0
0.715459 -0.000767 0
0.715088 -0.000800 0
0.714734 -0.000831 0
0.714394 -0.000860 0
0.714069 -0.000885 0
0.713759 -0.000907 0
0.713462 -0.000924 0
0.713177 -0.000938 0
0.712905 -0.000947 0
0.712642 -0.000954 0
0.712389 -0.000959 0
0.712143 -0.000965 0
0.711902 -0.000976 0
0.711664 -0.000996 0
0.711427 -0.001009 0
0.000000 0.000000 0
0.000000 0.000000 0
0.000000 0.000000 0
0.000000 0.000000 0
0.000000 0.000000 0
0.000000 0.000000 0
0.000000 0.000000 0
0.000000 0.000000 0
0.000000 0.000000 0
0.000000 0.000000 0
0.000000 0.036889 0
0.068931 0.062780 0
0.143282 0.038673 0
0.210687 0.014657 0
0.271499 -0.005978 0
0.327497 -0.023894 0
0.379392 -0.039236 0
0.427154 -0.052950 0
0.470421 -0.065796 0
0.509713 -0.078090 0
0.545408 -0.089838 0
0.577602 -0.100987 0
0.606476 -0.111375 0
0.632227 -0.120814 0
0.655094 -0.129126 0
0.675323 -0.136179 0
0.693146 -0.141879 0
0.708782 -0.146175 0
0.722442 -0.149051 0
0.734325 -0.150523 0
0.744618 -0.150643 0
0.753491 -0.149492 0
0.761095 -0.147172 0
0.767566 -0.143800 0
0.773024 -0.139504 0
0.777582 -0.134418 0
0.781340 -0.128676 0
0.784388 -0.122414 0
0.786806 -0.115762 0
0.788666 -0.108842 0
0.790034 -0.101769 0
0.790967 -0.094645 0
0.791519 -0.087561 0
0.791736 -0.080595 0
0.791661 -0.073814 0
0.791334 -0.067272 0
0.790789 -0.061013 0
0.790059 -0.055069 0
0.789173 -0.049464 0
0.788155 -0.044214 0
0.787031 -0.039328 0
0.785820 -0.034806 0
0.784541 -0.030647 0
0.783211 -0.026843 0
0.781844 -0.023382 0
0.780453 -0.020252 0
0.779048 -0.017436 0
0.777639 -0.014916 0
0.776235 -0.012674 0
0.774842 -0.010692 0
0.773467 -0.008948 0
0.772112 -0.007424 0
0.770784 -0.006101 0
0.769483 -0.004960 0
0.768211 -0.003984 0
0.766971 -0.003154 0
0.765762 -0.002456 0
0.764585 -0.001874 0
0.763441 -0.001395 0
0.762330 -0.001006 0
0.761252 -0.000696 0
0.760207 -0.000455 0
0.759196 -0.000272 0
0.758219 -0.000139 0
0.757274 -0.000048 0
0.756362 0.000008 0
0.755482 0.000035 0
0.754634 0.000039 0
0.753818 0.000025 0
0.753033 -0.000004 0
0.752278 -0.000044 0
0.751553 -0.000091 0
0.750856 -0.000143 0
0.750188 -0.000197 0
0.749546 -0.000252 0
0.748932 -0.000306 0
0.748342 -0.000357 0
0.747777 -0.000406 0
0.747236 -0.000450 0
0.746717 -0.000489 0
0.746219 -0.000523 0
0.745741 -0.000552 0
0.745281 -0.000576 0
0.744838 -0.000596 0
0.744410 -0.000611 0
0.743992 -0.000625 0
0.743581 -0.000639 0
0.743171 -0.000658 0
0.742753 -0.000669 0
0.500000 0.000000 0
0.463529 0.000000 0
0.420690 0.000000 0
0.380584 0.000000 0
0.346042 0.000000 0
0.317832 0.000000 0
0.296046 0.000000 0
0.280777 0.000000 0
0.273033 0.000000 0
0.277268 0.000000 0
0.296286 -0.026529 0
0.375075 -0.054478 0
0.446040 -0.057605 0
0.507404 -0.062602 0
0.560432 -0.069839 0
0.606161 -0.078050 0
0.646243 -0.086607 0
0.681828 -0.095134 0
0.713588 -0.103556 0
0.741825 -0.111848 0
0.766796 -0.119913 0
0.788678 -0.127616 0
0.807643 -0.134787 0
0.823871 -0.141245 0
0.837562 -0.146824 0
0.848922 -0.151386 0
0.858158 -0.154831 0
0.865475 -0.157097 0
0.871070 -0.158154 0
0.875136 -0.158009 0
0.877852 -0.156696 0
0.879389 -0.154281 0
0.879899 -0.150849 0
0.879526 -0.146504 0
0.878398 -0.141359 0
0.876633 -0.135535 0
0.874338 -0.129157 0
0.871609 -0.122349 0
0.868531 -0.115232 0
0.865181 -0.107919 0
0.861624 -0.100516 0
0.857921 -0.093118 0
0.854121 -0.085810 0
0.850268 -0.078664 0
0.846400 -0.071741 0
0.842549 -0.065091 0
0.838739 -0.058754 0
0.834993 -0.052757 0
0.831329 -0.047121 0
0.827760 -0.041859 0
0.824295 -0.036977 0
0.820944 -0.032473 0
0.817710 -0.028343 0
0.814597 -0.024576 0
0.811607 -0.021161 0
0.808739 -0.018082 0
0.805992 -0.015322 0
0.803365 -0.012862 0
0.800853 -0.010683 0
0.798454 -0.008764 0
0.796164 -0.007084 0
0.793976 -0.005624 0
0.791885 -0.004365 0
0.789886 -0.003285 0
0.787971 -0.002367 0
0.786134 -0.001595 0