# vtk DataFile Version 2.0
generated by CFD-lab course output (written by Tobias Neckel) 
ASCII

DATASET STRUCTURED_GRID
DIMENSIONS  99 19 1 
POINTS 1881 float

0.000000 0.000000 0
0.100000 0.000000 0
0.200000 0.000000 0
0.300000 0.000000 0
0.400000 0.000000 0
0.500000 0.000000 0
0.600000 0.000000 0
0.700000 0.000000 0
0.800000 0.000000 0
0.900000 0.000000 0
1.000000 0.000000 0
1.100000 0.000000 0
1.200000 0.000000 0
1.300000 0.000000 0
1.400000 0.000000 0
1.500000 0.000000 0
1.600000 0.000000 0
1.700000 0.000000 0
1.800000 0.000000 0
1.900000 0.000000 0
2.000000 0.000000 0
2.100000 0.000000 0
2.200000 0.000000 0
2.300000 0.000000 0
2.400000 0.000000 0
2.500000 0.000000 0
2.600000 0.000000 0
2.700000 0.000000 0
2.800000 0.000000 0
2.900000 0.000000 0
3.000000 0.000000 0
3.100000 0.000000 0
3.200000 0.000000 0
3.300000 0.000000 0
3.400000 0.000000 0
3.500000 0.000000 0
3.600000 0.000000 0
3.700000 0.000000 0
3.800000 0.000000 0
3.900000 0.000000 0
4.000000 0.000000 0
4.100000 0.000000 0
4.200000 0.000000 0
4.300000 0.000000 0
4.400000 0.000000 0
4.500000 0.000000 0
4.600000 0.000000 0
4.700000 0.000000 0
4.800000 0.000000 0
4.900000 0.000000 0
5.000000 0.000000 0
5.100000 0.000000 0
5.200000 0.000000 0
5.300000 0.000000 0
5.400000 0.000000 0
5.500000 0.000000 0
5.600000 0.000000 0
5.700000 0.000000 0
5.800000 0.000000 0
5.900000 0.000000 0
6.000000 0.000000 0
6.100000 0.000000 0
6.200000 0.000000 0
6.300000 0.000000 0
6.400000 0.000000 0
6.500000 0.000000 0
6.600000 0.000000 0
6.700000 0.000000 0
6.800000 0.000000 0
6.900000 0.000000 0
7.000000 0.000000 0
7.100000 0.000000 0
7.200000 0.000000 0
7.300000 0.000000 0
7.400000 0.000000 0
7.500000 0.000000 0
7.600000 0.000000 0
7.700000 0.000000 0
7.800000 0.000000 0
7.900000 0.000000 0
8.000000 0.000000 0
8.100000 0.000000 0
8.200000 0.000000 0
8.300000 0.000000 0
8.400000 0.000000 0
8.500000 0.000000 0
8.600000 0.000000 0
8.700000 0.000000 0
8.800000 0.000000 0
8.900000 0.000000 0
9.000000 0.000000 0
9.100000 0.000000 0
9.200000 0.000000 0
9.300000 0.000000 0
9.400000 0.000000 0
9.500000 0.000000 0
9.600000 0.000000 0
9.700000 0.000000 0
9.800000 0.000000 0
0.000000 0.100000 0
0.100000 0.100000 0
0.200000 0.100000 0
0.300000 0.100000 0
0.400000 0.100000 0
0.500000 0.100000 0
0.600000 0.100000 0
0.700000 0.100000 0
0.800000 0.100000 0
0.900000 0.100000 0
1.000000 0.100000 0
1.100000 0.100000 0
1.200000 0.100000 0
1.300000 0.100000 0
1.400000 0.100000 0
1.500000 0.100000 0
1.600000 0.100000 0
1.700000 0.100000 0
1.800000 0.100000 0
1.900000 0.100000 0
2.000000 0.100000 0
2.100000 0.100000 0
2.200000 0.100000 0
2.300000 0.100000 0
2.400000 0.100000 0
2.500000 0.100000 0
2.600000 0.100000 0
2.700000 0.100000 0
2.800000 0.100000 0
2.900000 0.100000 0
3.000000 0.100000 0
3.100000 0.100000 0
3.200000 0.100000 0
3.300000 0.100000 0
3.400000 0.100000 0
3.500000 0.100000 0
3.600000 0.100000 0
3.700000 0.100000 0
3.800000 0.100000 0
3.900000 0.100000 0
4.000000 0.100000 0
4.100000 0.100000 0
4.200000 0.100000 0
4.300000 0.100000 0
4.400000 0.100000 0
4.500000 0.100000 0
4.600000 0.100000 0
4.700000 0.100000 0
4.800000 0.100000 0
4.900000 0.100000 0
5.000000 0.100000 0
5.100000 0.100000 0
5.200000 0.100000 0
5.300000 0.100000 0
5.400000 0.100000 0
5.500000 0.100000 0
5.600000 0.100000 0
5.700000 0.100000 0
5.800000 0.100000 0
5.900000 0.100000 0
6.000000 0.100000 0
6.100000 0.100000 0
6.200000 0.100000 0
6.300000 0.100000 0
6.400000 0.100000 0
6.500000 0.100000 0
6.600000 0.100000 0
6.700000 0.100000 0
6.800000 0.100000 0
6.900000 0.100000 0
7.000000 0.100000 0
7.100000 0.100000 0
7.200000 0.100000 0
7.300000 0.100000 0
7.400000 0.100000 0
7.500000 0.100000 0
7.600000 0.100000 0
7.700000 0.100000 0
7.800000 0.100000 0
7.900000 0.100000 0
8.000000 0.100000 0
8.100000 0.100000 0
8.200000 0.100000 0
8.300000 0.100000 0
8.400000 0.100000 0
8.500000 0.100000 0
8.600000 0.100000 0
8.700000 0.100000 0
8.800000 0.100000 0
8.900000 0.100000 0
9.000000 0.100000 0
9.100000 0.100000 0
9.200000 0.100000 0
9.300000 0.100000 0
9.400000 0.100000 0
9.500000 0.100000 0
9.600000 0.100000 0
9.700000 0.100000 0
9.800000 0.100000 0
0.000000 0.200000 0
0.100000 0.200000 0
0.200000 0.200000 0
0.300000 0.200000 0
0.400000 0.200000 0
0.500000 0.200000 0
0.600000 0.200000 0
0.700000 0.200000 0
0.800000 0.200000 0
0.900000 0.200000 0
1.000000 0.200000 0
1.100000 0.200000 0
1.200000 0.200000 0
1.300000 0.200000 0
1.400000 0.200000 0
1.500000 0.200000 0
1.600000 0.200000 0
1.700000 0.200000 0
1.800000 0.200000 0
1.900000 0.200000 0
2.000000 0.200000 0
2.100000 0.200000 0
2.200000 0.200000 0
2.300000 0.200000 0
2.400000 0.200000 0
2.500000 0.200000 0
2.600000 0.200000 0
2.700000 0.200000 0
2.800000 0.200000 0
2.900000 0.200000 0
3.000000 0.200000 0
3.100000 0.200000 0
3.200000 0.200000 0
3.300000 0.200000 0
3.400000 0.200000 0
3.500000 0.200000 0
3.600000 0.200000 0
3.700000 0.200000 0
3.800000 0.200000 0
3.900000 0.200000 0
4.000000 0.200000 0
4.100000 0.200000 0
4.200000 0.200000 0
4.300000 0.200000 0
4.400000 0.200000 0
4.500000 0.200000 0
4.600000 0.200000 0
4.700000 0.200000 0
4.800000 0.200000 0
4.900000 0.200000 0
5.000000 0.200000 0
5.100000 0.200000 0
5.200000 0.200000 0
5.300000 0.200000 0
5.400000 0.200000 0
5.500000 0.200000 0
5.600000 0.200000 0
5.700000 0.200000 0
5.800000 0.200000 0
5.900000 0.200000 0
6.000000 0.200000 0
6.100000 0.200000 0
6.200000 0.200000 0
6.300000 0.200000 0
6.400000 0.200000 0
6.500000 0.200000 0
6.600000 0.200000 0
6.700000 0.200000 0
6.800000 0.200000 0
6.900000 0.200000 0
7.000000 0.200000 0
7.100000 0.200000 0
7.200000 0.200000 0
7.300000 0.200000 0
7.400000 0.200000 0
7.500000 0.200000 0
7.600000 0.200000 0
7.700000 0.200000 0
7.800000 0.200000 0
7.900000 0.200000 0
8.000000 0.200000 0
8.100000 0.200000 0
8.200000 0.200000 0
8.300000 0.200000 0
8.400000 0.200000 0
8.500000 0.200000 0
8.600000 0.200000 0
8.700000 0.200000 0
8.800000 0.200000 0
8.900000 0.200000 0
9.000000 0.200000 0
9.100000 0.200000 0
9.200000 0.200000 0
9.300000 0.200000 0
9.400000 0.200000 0
9.500000 0.200000 0
9.600000 0.200000 0
9.700000 0.200000 0
9.800000 0.200000 0
0.000000 0.300000 0
0.100000 0.300000 0
0.200000 0.300000 0
0.300000 0.300000 0
0.400000 0.300000 0
0.500000 0.300000 0
0.600000 0.300000 0
0.700000 0.300000 0
0.800000 0.300000 0
0.900000 0.300000 0
1.000000 0.300000 0
1.100000 0.300000 0
1.200000 0.300000 0
1.300000 0.300000 0
1.400000 0.300000 0
1.500000 0.300000 0
1.600000 0.300000 0
1.700000 0.300000 0
1.800000 0.300000 0
1.900000 0.300000 0
2.000000 0.300000 0
2.100000 0.300000 0
2.200000 0.300000 0
2.300000 0.300000 0
2.400000 0.300000 0
2.500000 0.300000 0
2.600000 0.300000 0
2.700000 0.300000 0
2.800000 0.300000 0
2.900000 0.300000 0
3.000000 0.300000 0
3.100000 0.300000 0
3.200000 0.300000 0
3.300000 0.300000 0
3.400000 0.300000 0
3.500000 0.300000 0
3.600000 0.300000 0
3.700000 0.300000 0
3.800000 0.300000 0
3.900000 0.300000 0
4.000000 0.300000 0
4.100000 0.300000 0
4.200000 0.300000 0
4.300000 0.300000 0
4.400000 0.300000 0
4.500000 0.300000 0
4.600000 0.300000 0
4.700000 0.300000 0
4.800000 0.300000 0
4.900000 0.300000 0
5.000000 0.300000 0
5.100000 0.300000 0
5.200000 0.300000 0
5.300000 0.300000 0
5.400000 0.300000 0
5.500000 0.300000 0
5.600000 0.300000 0
5.700000 0.300000 0
5.800000 0.300000 0
5.900000 0.300000 0
6.000000 0.300000 0
6.100000 0.300000 0
6.200000 0.300000 0
6.300000 0.300000 0
6.400000 0.300000 0
6.500000 0.300000 0
6.600000 0.300000 0
6.700000 0.300000 0
6.800000 0.300000 0
6.900000 0.300000 0
7.000000 0.300000 0
7.100000 0.300000 0
7.200000 0.300000 0
7.300000 0.300000 0
7.400000 0.300000 0
7.500000 0.300000 0
7.600000 0.300000 0
7.700000 0.300000 0
7.800000 0.300000 0
7.900000 0.300000 0
8.000000 0.300000 0
8.100000 0.300000 0
8.200000 0.300000 0
8.300000 0.300000 0
8.400000 0.300000 0
8.500000 0.300000 0
8.600000 0.300000 0
8.700000 0.300000 0
8.800000 0.300000 0
8.900000 0.300000 0
9.000000 0.300000 0
9.100000 0.300000 0
9.200000 0.300000 0
9.300000 0.300000 0
9.400000 0.300000 0
9.500000 0.300000 0
9.600000 0.300000 0
9.700000 0.300000 0
9.800000 0.300000 0
0.000000 0.400000 0
0.100000 0.400000 0
0.200000 0.400000 0
0.300000 0.400000 0
0.400000 0.400000 0
0.500000 0.400000 0
0.600000 0.400000 0
0.700000 0.400000 0
0.800000 0.400000 0
0.900000 0.400000 0
1.000000 0.400000 0
1.100000 0.400000 0
1.200000 0.400000 0
1.300000 0.400000 0
1.400000 0.400000 0
1.500000 0.400000 0
1.600000 0.400000 0
1.700000 0.400000 0
1.800000 0.400000 0
1.900000 0.400000 0
2.000000 0.400000 0
2.100000 0.400000 0
2.200000 0.400000 0
2.300000 0.400000 0
2.400000 0.400000 0
2.500000 0.400000 0
2.600000 0.400000 0
2.700000 0.400000 0
2.800000 0.400000 0
2.900000 0.400000 0
3.000000 0.400000 0
3.100000 0.400000 0
3.200000 0.400000 0
3.300000 0.400000 0
3.400000 0.400000 0
3.500000 0.400000 0
3.600000 0.400000 0
3.700000 0.400000 0
3.800000 0.400000 0
3.900000 0.400000 0
4.000000 0.400000 0
4.100000 0.400000 0
4.200000 0.400000 0
4.300000 0.400000 0
4.400000 0.400000 0
4.500000 0.400000 0
4.600000 0.400000 0
4.700000 0.400000 0
4.800000 0.400000 0
4.900000 0.400000 0
5.000000 0.400000 0
5.100000 0.400000 0
5.200000 0.400000 0
5.300000 0.400000 0
5.400000 0.400000 0
5.500000 0.400000 0
5.600000 0.400000 0
5.700000 0.400000 0
5.800000 0.400000 0
5.900000 0.400000 0
6.000000 0.400000 0
6.100000 0.400000 0
6.200000 0.400000 0
6.300000 0.400000 0
6.400000 0.400000 0
6.500000 0.400000 0
6.600000 0.400000 0
6.700000 0.400000 0
6.800000 0.400000 0
6.900000 0.400000 0
7.000000 0.400000 0
7.100000 0.400000 0
7.200000 0.400000 0
7.300000 0.400000 0
7.400000 0.400000 0
7.500000 0.400000 0
7.600000 0.400000 0
7.700000 0.400000 0
7.800000 0.400000 0
7.900000 0.400000 0
8.000000 0.400000 0
8.100000 0.400000 0
8.200000 0.400000 0
8.300000 0.400000 0
8.400000 0.400000 0
8.500000 0.400000 0
8.600000 0.400000 0
8.700000 0.400000 0
8.800000 0.400000 0
8.900000 0.400000 0
9.000000 0.400000 0
9.100000 0.400000 0
9.200000 0.400000 0
9.300000 0.400000 0
9.400000 0.400000 0
[...]
POINT_DATA 1881 

VECTORS velocity float
0.000000 0.000000 0
0.000000 0.000000 0
0.000000 0.000000 0
0.000000 0.000000 0
0.000000 0.000000 0
0.000000 0.000000 0
0.000000 0.000000 0
0.000000 0.000000 0
0.000000 0.000000 0
0.000000 0.000000 0
0.000000 0.000000 0
-0.000489 0.000000 0
-0.002924 0.000000 0
-0.006339 0.000000 0
-0.010033 0.000000 0
-0.013746 0.000000 0
-0.017450 0.000000 0
-0.021191 0.000000 0
-0.025007 0.000000 0
-0.028894 0.000000 0
-0.032795 0.000000 0
-0.036594 0.000000 0
-0.040124 0.000000 0
-0.043179 0.000000 0
-0.045549 0.000000 0
-0.047066 0.000000 0
-0.047629 0.000000 0
-0.047235 0.000000 0
-0.045896 0.000000 0
-0.043672 0.000000 0
-0.040644 0.000000 0
-0.036947 0.000000 0
-0.032740 0.000000 0
-0.028180 0.000000 0
-0.023370 0.000000 0
-0.018395 0.000000 0
-0.013395 0.000000 0
-0.008480 0.000000 0
-0.003669 0.000000 0
0.000945 0.000000 0
0.005281 0.000000 0
0.009305 0.000000 0
0.013009 0.000000 0
0.016391 0.000000 0
0.019456 0.000000 0
0.022212 0.000000 0
0.024672 0.000000 0
0.026852 0.000000 0
0.028769 0.000000 0
0.030445 0.000000 0
0.031898 0.000000 0
0.033149 0.000000 0
0.034220 0.000000 0
0.035129 0.000000 0
0.035895 0.000000 0
0.036536 0.000000 0
0.037068 0.000000 0
0.037506 0.000000 0
0.037863 0.000000 0
0.038152 0.000000 0
0.038383 0.000000 0
0.038567 0.000000 0
0.038711 0.000000 0
0.038823 0.000000 0
0.038909 0.000000 0
0.038976 0.000000 0
0.039026 0.000000 0
0.039065 0.000000 0
0.039096 0.000000 0
0.039121 0.000000 0
0.039143 0.000000 0
0.039163 0.000000 0
0.039183 0.000000 0
0.039204 0.000000 0
0.039226 0.000000 0
0.039251 0.000000 0
0.039278 0.000000 0
0.039308 0.000000 0
0.039341 0.000000 0
0.039377 0.000000 0
0.039416 0.000000 0
0.039458 0.000000 0
0.039501 0.000000 0
0.039547 0.000000 0
0.039595 0.000000 0
0.039645 0.000000 0
0.039695 0.000000 0
0.039747 0.000000 0
0.039800 0.000000 0
0.039852 0.000000 0
0.039905 0.000000 0
0.039958 0.000000 0
0.040011 0.000000 0
0.040064 0.000000 0
0.040115 0.000000 0
0.040166 0.000000 0
0.040216 0.000000 0
0.040263 0.000000 0
0.040309 0.000000 0
0.000000 0.000000 0
0.000000 0.000000 0
0.000000 0.000000 0
0.000000 0.000000 0
0.000000 0.000000 0
0.000000 0.000000 0
0.000000 0.000000 0
0.000000 0.000000 0
0.000000 0.000000 0
0.000000 0.000000 0
0.000000 0.000493 0
-0.003590 0.002925 0
-0.012710 0.005845 0
-0.024290 0.007105 0
-0.036453 0.007407 0
-0.048469 0.007420 0
-0.060203 0.007448 0
-0.071713 0.007557 0
-0.083039 0.007701 0
-0.094104 0.007786 0
-0.104689 0.007699 0
-0.114427 0.007329 0
-0.122845 0.006585 0
-0.129396 0.005426 0
-0.133565 0.003888 0
-0.134975 0.002080 0
-0.133432 0.000169 0
-0.129069 -0.001733 0
-0.122192 -0.003564 0
-0.113129 -0.005252 0
-0.102153 -0.006725 0
-0.089649 -0.007904 0
-0.076019 -0.008766 0
-0.061652 -0.009371 0
-0.046808 -0.009785 0
-0.031698 -0.009974 0
-0.016608 -0.009915 0
-0.001779 -0.009726 0
0.012512 -0.009425 0
0.026138 -0.008949 0
0.039001 -0.008360 0
0.051037 -0.007728 0
0.062209 -0.007086 0
0.072506 -0.006447 0
0.081928 -0.005821 0
0.090493 -0.005216 0
0.098227 -0.004640 0
0.105167 -0.004097 0
0.111353 -0.003593 0
0.116835 -0.003128 0
0.121661 -0.002705 0
0.125885 -0.002322 0
0.129559 -0.001980 0
0.132734 -0.001675 0
0.135462 -0.001407 0
0.137790 -0.001173 0
0.139765 -0.000970 0
0.141429 -0.000795 0
0.142823 -0.000646 0
0.143981 -0.000520 0
0.144939 -0.000415 0
0.145725 -0.000328 0
0.146367 -0.000256 0
0.146888 -0.000198 0
0.147309 -0.000153 0
0.147649 -0.000117 0
0.147924 -0.000090 0
0.148147 -0.000070 0
0.148331 -0.000056 0
0.148484 -0.000047 0
0.148616 -0.000042 0
0.148732 -0.000040 0
0.148840 -0.000041 0
0.148943 -0.000043 0
0.149045 -0.000047 0
0.149149 -0.000052 0
0.149257 -0.000057 0
0.149370 -0.000063 0
0.149489 -0.000069 0
0.149614 -0.000075 0
0.149747 -0.000080 0
0.149886 -0.000085 0
0.150032 -0.000090 0
0.150184 -0.000094 0
0.150341 -0.000097 0
0.150503 -0.000100 0
0.150668 -0.000102 0
0.150837 -0.000104 0
0.151008 -0.000105 0
0.151181 -0.000106 0
0.151354 -0.000106 0
0.151528 -0.000106 0
0.151701 -0.000105 0
0.151873 -0.000104 0
0.152043 -0.000103 0
0.152212 -0.000100 0
0.152377 -0.000097 0
0.152537 -0.000093 0
0.152689 -0.000091 0
0.000000 0.000000 0
0.000000 0.000000 0
0.000000 0.000000 0
0.000000 0.000000 0
0.000000 0.000000 0
0.000000 0.000000 0
0.000000 0.000000 0
0.000000 0.000000 0
0.000000 0.000000 0
0.000000 0.000000 0
0.000000 0.003593 0
-0.008443 0.012710 0
-0.024841 0.020694 0
-0.043799 0.023741 0
-0.062777 0.024183 0
-0.080859 0.023756 0
-0.097854 0.023247 0
-0.113802 0.022835 0
-0.128697 0.022387 0
-0.142365 0.021648 0
-0.154453 0.020322 0
-0.164402 0.018156 0
-0.171594 0.014970 0
-0.175320 0.010721 0
-0.174964 0.005580 0
-0.170180 -0.000133 0
-0.161422 -0.005907 0
-0.149232 -0.011241 0
-0.134252 -0.015940 0
-0.117044 -0.020038 0
-0.097963 -0.023479 0
-0.077507 -0.026134 0
-0.056083 -0.027997 0
-0.034049 -0.029211 0
-0.011811 -0.029954 0
0.010241 -0.030200 0
0.031913 -0.029919 0
0.053014 -0.029120 0
0.073276 -0.027916 0
0.092593 -0.026489 0
0.110905 -0.024899 0
0.128148 -0.023208 0
0.144276 -0.021469 0
0.159262 -0.019719 0
0.173105 -0.017987 0
0.185817 -0.016299 0
0.197424 -0.014673 0
0.207965 -0.013126 0
0.217485 -0.011668 0
0.226037 -0.010308 0
0.233678 -0.009050 0
0.240469 -0.007898 0
0.246472 -0.006849 0
0.251750 -0.005903 0
0.256367 -0.005056 0
0.260384 -0.004303 0
0.263860 -0.003639 0
0.266852 -0.003057 0
0.269414 -0.002552 0
0.271597 -0.002116 0
0.273448 -0.001744 0
0.275009 -0.001428 0
0.276321 -0.001163 0
0.277419 -0.000942 0
0.278335 -0.000762 0
0.279099 -0.000615 0
0.279736 -0.000498 0
0.280269 -0.000406 0
0.280716 -0.000337 0
0.281096 -0.000285 0
0.281423 -0.000249 0
0.281708 -0.000225 0
0.281964 -0.000211 0
0.282199 -0.000205 0
0.282419 -0.000206 0
0.282631 -0.000211 0
0.282839 -0.000220 0
0.283047 -0.000232 0
0.283258 -0.000245 0
0.283473 -0.000258 0
0.283694 -0.000272 0
0.283921 -0.000285 0
0.284156 -0.000298 0
0.284397 -0.000309 0
0.284645 -0.000319 0
0.284899 -0.000327 0
0.285158 -0.000334 0
0.285421 -0.000340 0
0.285687 -0.000344 0
0.285956 -0.000346 0
0.286226 -0.000347 0
0.286497 -0.000347 0
0.286768 -0.000345 0
0.287037 -0.000343 0
0.287306 -0.000339 0
0.287572 -0.000333 0
0.287836 -0.000325 0
0.288096 -0.000313 0
0.288350 -0.000305 0
0.000000 0.000000 0
0.000000 0.000000 0
0.000000 0.000000 0
0.000000 0.000000 0
0.000000 0.000000 0
0.000000 0.000000 0
0.000000 0.000000 0
0.000000 0.000000 0
0.000000 0.000000 0
0.000000 0.000000 0
0.000000 0.008935 0
-0.012079 0.027762 0
-0.032750 0.041199 0
-0.054586 0.045047 0
-0.074914 0.044474 0
-0.093030 0.042501 0
-0.108898 0.040391 0
-0.122646 0.038397 0
-0.134305 0.036262 0
-0.143650 0.033542 0
-0.150315 0.029737 0
-0.153593 0.024472 0
-0.152875 0.017504 0
-0.147411 0.008796 0
-0.137049 -0.001253 0
-0.122779 -0.011464 0
-0.105475 -0.020780 0
-0.085780 -0.028904 0
-0.064243 -0.035751 0
-0.041264 -0.041539 0
-0.017488 -0.046261 0
0.006772 -0.049785 0
0.031271 -0.052226 0
0.055794 -0.053642 0
0.080028 -0.054075 0
0.103661 -0.053698 0
0.126560 -0.052687 0
0.148611 -0.051089 0
0.169795 -0.049004 0
0.190008 -0.046579 0
0.209181 -0.043915 0
0.227265 -0.041099 0
0.244228 -0.038200 0
0.260054 -0.035276 0
0.274747 -0.032375 0
0.288319 -0.029536 0
0.300799 -0.026788 0
0.312221 -0.024158 0
0.322626 -0.021665 0
0.332063 -0.019321 0
0.340583 -0.017136 0
0.348240 -0.015116 0
0.355092 -0.013261 0
0.361196 -0.011571 0
0.366608 -0.010041 0
0.371386 -0.008665 0
0.375586 -0.007438 0
0.379260 -0.006350 0
0.382461 -0.005391 0
0.385238 -0.004554 0
0.387637 -0.003827 0
0.389701 -0.003201 0
0.391471 -0.002666 0
0.392984 -0.002213 0
0.394273 -0.001833 0
0.395371 -0.001518 0
0.396304 -0.001259 0
0.397099 -0.001050 0
0.397777 -0.000883 0
0.398358 -0.000753 0
0.398860 -0.000654 0
0.399298 -0.000582 0
0.399685 -0.000531 0
0.400032 -0.000498 0
0.400349 -0.000479 0
0.400644 -0.000472 0
0.400922 -0.000474 0
0.401191 -0.000482 0
0.401454 -0.000495 0
0.401714 -0.000511 0
0.401974 -0.000529 0
0.402237 -0.000547 0
0.402502 -0.000566 0
0.402771 -0.000583 0
0.403045 -0.000599 0
0.403323 -0.000613 0
0.403605 -0.000624 0
0.403891 -0.000634 0
0.404179 -0.000640 0
0.404470 -0.000645 0
0.404763 -0.000647 0
0.405056 -0.000647 0
0.405350 -0.000646 0
0.405643 -0.000642 0
0.405936 -0.000637 0
0.406228 -0.000630 0
0.406521 -0.000621 0
0.406816 -0.000608 0
0.407115 -0.000600 0
0.000000 0.000000 0
0.000000 0.000000 0
0.000000 0.000000 0
0.000000 0.000000 0
0.000000 0.000000 0
0.000000 0.000000 0
0.000000 0.000000 0
0.000000 0.000000 0
0.000000 0.000000 0
0.000000 0.000000 0
0.000000 0.015669 0
-0.014199 0.045455 0
-0.035424 0.063201 0
-0.055185 0.065911 0
-0.071419 0.062633 0
-0.084014 0.057742 0
-0.093225 0.052860 0
-0.099335 0.048238 0
-0.102473 0.043390 0
-0.102284 0.037660 0
-0.098491 0.030268 0
-0.090116 0.020718 0
-0.076222 0.008788 0
-0.057878 -0.005106 0
-0.036706 -0.019054 0
-0.014040 -0.031707 0
0.009700 -0.042906 0
0.034212 -0.052473 0
0.059259 -0.060455 0
0.084606 -0.066792 0
0.109792 -0.071515 0
0.134652 -0.074893 0
0.159036 -0.077020 0
0.182807 -0.077968 0
0.205875 -0.077821 0
0.228187 -0.076731 0
0.249627 -0.074868 0
0.270122 -0.072355 0
0.289656 -0.069314 0
0.308193 -0.065875 0
0.325703 -0.062156 0
0.342168 -0.058255 0
0.357580 -0.054258 0
0.371944 -0.050238 0
0.385274 -0.046253 0
0.397595 -0.042352 0
0.408938 -0.038574 0
0.419340 -0.034953 0
0.428843 -0.031510 0
0.437492 -0.028265 0
0.445333 -0.025228 0
0.452416 -0.022407 0
0.458791 -0.019805 0
0.464505 -0.017419 0
0.469609 -0.015247 0
0.474150 -0.013281 0
0.478175 -0.011513 0
0.481728 -0.009933 0
0.484854 -0.008530 0
0.487593 -0.007292 0
0.489985 -0.006207 0
0.492065 -0.005262 0
0.493869 -0.004445 0
0.495428 -0.003745 0
0.496772 -0.003149 0
0.497927 -0.002646 0
0.498919 -0.002226 0
0.499770 -0.001879 0
0.500501 -0.001596 0
0.501129 -0.001368 0
0.501670 -0.001188 0
0.502140 -0.001049 0
0.502551 -0.000945 0
0.502914 -0.000869 0
0.503239 -0.000817 0
0.503534 -0.000785 0
0.503805 -0.000768 0
0.504060 -0.000763 0
0.504302 -0.000768 0
0.504535 -0.000779 0
0.504764 -0.000794 0
0.504990 -0.000813 0
0.505216 -0.000832 0
0.505442 -0.000852 0
0.505670 -0.000870 0
0.505900 -0.000887 0
0.506133 -0.000902 0
0.506368 -0.000914 0
0.506606 -0.000923 0
0.506846 -0.000930 0
0.507088 -0.000933 0
0.507330 -0.000934 0
0.507573 -0.000932 0
0.507817 -0.000929 0
0.508061 -0.000924 0
0.508307 -0.000919 0
0.508556 -0.000913 0
0.508811 -0.000907 0
0.509079 -0.000904 0
0.000000 0.000000 0
0.000000 0.000000 0
0.000000 0.000000 0
0.000000 0.000000 0
0.000000 0.000000 0
0.000000 0.000000 0
0.000000 0.000000 0
0.000000 0.000000 0
0.000000 0.000000 0
0.000000 0.000000 0
0.000000 0.023129 0
-0.015400 0.063179 0
-0.032796 0.082186 0
-0.044666 0.081049 0
-0.050984 0.073308 0
-0.052710 0.064307 0
-0.050334 0.055707 0
-0.044119 0.047642 0
-0.034114 0.039212 0
-0.019769 0.029561 0
-0.000253 0.017572 0
0.023739 0.002204 0
0.050692 -0.014734 0
0.078819 -0.030721 0
0.106732 -0.045092 0
0.134231 -0.057870 0
0.161170 -0.069031 0
0.187467 -0.078463 0
0.213103 -0.086145 0
0.237940 -0.092071 0
0.262041 -0.096307 0
0.285312 -0.099030 0
0.307673 -0.100381 0
0.329074 -0.100481 0
0.349498 -0.099454 0
0.368950 -0.097449 0
0.387409 -0.094622 0
0.404863 -0.091119 0
0.421319 -0.087076 0
0.436783 -0.082626 0
0.451263 -0.077890 0
0.464771 -0.072975 0
0.477326 -0.067975 0
0.488951 -0.062970 0
0.499674 -0.058027 0
0.509531 -0.053200 0
0.518559 -0.048533 0
0.526799 -0.044063 0
0.534293 -0.039816 0
0.541086 -0.035811 0
0.547223 -0.032061 0
0.552748 -0.028573 0
0.557705 -0.025350 0
0.562136 -0.022389 0
0.566084 -0.019685 0
0.569588 -0.017231 0
0.572687 -0.015016 0
0.575418 -0.013029 0
0.577814 -0.011256 0
0.579909 -0.009684 0
0.581733 -0.008299 0
0.583314 -0.007085 0
0.584679 -0.006029 0
0.585852 -0.005116 0
0.586856 -0.004332 0
0.587712 -0.003665 0
0.588438 -0.003102 0
0.589052 -0.002631 0
0.589569 -0.002242 0
0.590003 -0.001923 0
0.590366 -0.001666 0
0.590671 -0.001463 0
0.590927 -0.001305 0
0.591143 -0.001185 0
0.591326 -0.001098 0
0.591483 -0.001038 0
0.591620 -0.000999 0
0.591742 -0.000978 0
0.591853 -0.000971 0
0.591957 -0.000973 0
0.592056 -0.000984 0
0.592153 -0.000999 0
0.592249 -0.001017 0
0.592347 -0.001037 0
0.592446 -0.001057 0
0.592548 -0.001076 0
0.592653 -0.001093 0
0.592762 -0.001107 0
0.592874 -0.001118 0
0.592990 -0.001126 0
0.593108 -0.001131 0
0.593229 -0.001133 0
0.593352 -0.001133 0
0.593477 -0.001130 0
0.593605 -0.001127 0
0.593735 -0.001125 0
0.593869 -0.001125 0
0.594012 -0.001131 0
0.594169 -0.001136 0
0.000000 0.000000 0
0.000000 0.000000 0
0.000000 0.000000 0
0.000000 0.000000 0
0.000000 0.000000 0
0.000000 0.000000 0
0.000000 0.000000 0
0.000000 0.000000 0
0.000000 0.000000 0
0.000000 0.000000 0
0.000000 0.031061 0
-0.015494 0.078243 0
-0.021850 0.092473 0
-0.017456 0.084108 0
-0.006401 0.070681 0
0.008890 0.057090 0
0.028060 0.044264 0
0.051541 0.032015 0
0.079806 0.019041 0
0.111759 0.003801 0
0.146246 -0.013239 0
0.181373 -0.030226 0
0.215019 -0.046292 0
0.246826 -0.061147 0
0.276955 -0.074466 0
0.305500 -0.086146 0
0.332464 -0.096142 0
0.357892 -0.104405 0
0.381858 -0.110926 0
0.404417 -0.115730 0
0.425679 -0.118888 0
0.445701 -0.120527 0
0.464517 -0.120783 0
0.482161 -0.119792 0
0.498679 -0.117695 0
0.514116 -0.114641 0
0.528514 -0.110782 0
0.541910 -0.106266 0
0.554343 -0.101234 0
0.565851 -0.095819 0
0.576470 -0.090144 0
0.586236 -0.084318 0
0.595186 -0.078438 0
0.603359 -0.072586 0
0.610793 -0.066833 0
0.617529 -0.061236 0
0.623609 -0.055842 0
0.629076 -0.050687 0
0.633971 -0.045798 0
0.638335 -0.041195 0
0.642210 -0.036890 0
0.645636 -0.032889 0
0.648649 -0.029193 0
0.651286 -0.025798 0
0.653583 -0.022699 0
0.655570 -0.019884 0
0.657280 -0.017342 0
0.658740 -0.015060 0
0.659976 -0.013021 0
0.661014 -0.011210 0
0.661876 -0.009611 0
0.662582 -0.008208 0
0.663152 -0.006983 0
0.663602 -0.005922 0
0.663948 -0.005009 0
0.664204 -0.004228 0
0.664383 -0.003566 0
0.664496 -0.003010 0
0.664554 -0.002547 0
0.664565 -0.002166 0
0.664537 -0.001857 0
0.664478 -0.001610 0
0.664394 -0.001416 0
0.664290 -0.001268 0
0.664172 -0.001157 0
0.664044 -0.001079 0
0.663908 -0.001027 0
0.663770 -0.000996 0
0.663630 -0.000982 0
0.663491 -0.000981 0
0.663356 -0.000990 0
0.663225 -0.001006 0
0.663100 -0.001026 0
0.662981 -0.001049 0
0.662869 -0.001072 0
0.662764 -0.001095 0
0.662668 -0.001116 0
0.662579 -0.001135 0
0.662497 -0.001151 0
0.662423 -0.001163 0
0.662356 -0.001172 0
0.662295 -0.001178 0
0.662240 -0.001181 0
0.662190 -0.001181 0
0.662146 -0.001181 0
0.662106 -0.001183 0
0.662071 -0.001190 0
0.662042 -0.001207 0
0.662023 -0.001218 0
0.000000 0.000000 0
0.000000 0.000000 0
0.000000 0.000000 0
0.000000 0.000000 0
0.000000 0.000000 0
0.000000 0.000000 0
0.000000 0.000000 0
0.000000 0.000000 0
0.000000 0.000000 0
0.000000 0.000000 0
0.000000 0.038614 0
-0.005834 0.085024 0
0.015462 0.084158 0
0.047976 0.065609 0
0.084920 0.046964 0
0.124636 0.029841 0
0.165903 0.013051 0
0.208141 -0.004105 0
0.250880 -0.021004 0
0.292996 -0.036876 0
0.332791 -0.052041 0
0.369618 -0.066569 0
0.403579 -0.080188 0
0.434733 -0.092659 0
0.463282 -0.103766 0
0.489435 -0.113379 0
0.513361 -0.121423 0
0.535225 -0.127855 0
0.555189 -0.132669 0
0.573409 -0.135892 0
0.590044 -0.137592 0
0.605227 -0.137868 0
0.619074 -0.136842 0
0.631684 -0.134642 0
0.643150 -0.131408 0
0.653561 -0.127284 0
0.662994 -0.122417 0
0.671520 -0.116948 0
0.679207 -0.111017 0
0.686112 -0.104752 0
0.692292 -0.098275 0
0.697798 -0.091691 0
0.702679 -0.085098 0
0.706979 -0.078577 0
0.710744 -0.072197 0
0.714016 -0.066016 0
0.716835 -0.060080 0
0.719241 -0.054425 0
0.721270 -0.049075 0
0.722959 -0.044051 0
0.724342 -0.039361 0
0.725449 -0.035012 0
0.726311 -0.031000 0
0.726956 -0.027323 0
0.727408 -0.023969 0
0.727692 -0.020928 0
0.727829 -0.018186 0
0.727839 -0.015726 0
0.727740 -0.013531 0
0.727548 -0.011584 0
0.727277 -0.009867 0
0.726941 -0.008361 0
0.726552 -0.007048 0
0.726118 -0.005912 0
0.725650 -0.004935 0
0.725154 -0.004101 0
0.724638 -0.003394 0
0.724107 -0.002802 0
0.723566 -0.002310 0
0.723020 -0.001906 0
0.722473 -0.001579 0
0.721927 -0.001319 0
0.721386 -0.001117 0
0.720852 -0.000964 0
0.720327 -0.000852 0
0.719813 -0.000774 0
0.719312 -0.000725 0
0.718824 -0.000700 0
0.718351 -0.000692 0
0.717893 -0.000699 0
0.717450 -0.000717 0
0.717024 -0.000743 0
0.716614 -0.000773 0
0.716220 -0.000806 0
0.715843 -0.000841 0
0.715481 -0.000875 0
0.715136 -0.000907 0
0.714805 -0.000936 0
0.714490 -0.000962 0
0.714188 -0.000985 0
0.713901 -0.001003 0
0.713626 -0.001017 0
0.713363 -0.001028 0
0.713110 -0.001036 0
0.712866 -0.001042 0
0.712630 -0.001049 0
0.712400 -0.001062 0
0.712173 -0.001083 0
0.711947 -0.001098 0
0.000000 0.000000 0
0.000000 0.000000 0
0.000000 0.000000 0
0.000000 0.000000 0
0.000000 0.000000 0
0.000000 0.000000 0
0.000000 0.000000 0
0.000000 0.000000 0
0.000000 0.000000 0
0.000000 0.000000 0
0.000000 0.036887 0
0.068925 0.062779 0
0.143294 0.038674 0
0.210706 0.014658 0
0.271515 -0.005980 0
0.327511 -0.023901 0
0.379409 -0.039247 0
0.427179 -0.052962 0
0.470455 -0.065810 0
0.509753 -0.078107 0
0.545451 -0.089860 0
0.577650 -0.101015 0
0.606528 -0.111408 0
0.632284 -0.120851 0
0.655154 -0.129168 0
0.675384 -0.136225 0
0.693209 -0.141931 0
0.708847 -0.146232 0
0.722508 -0.149110 0
0.734392 -0.150585 0
0.744684 -0.150707 0
0.753557 -0.149558 0
0.761161 -0.147239 0
0.767631 -0.143868 0
0.773089 -0.139572 0
0.777647 -0.134485 0
0.781404 -0.128742 0
0.784451 -0.122479 0
0.786868 -0.115825 0
0.788728 -0.108905 0
0.790095 -0.101830 0
0.791028 -0.094704 0
0.791579 -0.087619 0
0.791796 -0.080652 0
0.791721 -0.073870 0
0.791394 -0.067327 0
0.790849 -0.061067 0
0.790120 -0.055122 0
0.789233 -0.049517 0
0.788217 -0.044266 0
0.787093 -0.039379 0
0.785884 -0.034858 0
0.784606 -0.030699 0
0.783278 -0.026895 0
0.781912 -0.023435 0
0.780523 -0.020305 0
0.779120 -0.017489 0
0.777714 -0.014970 0
0.776312 -0.012730 0
0.774922 -0.010748 0
0.773549 -0.009005 0
0.772198 -0.007482 0
0.770872 -0.006160 0
0.769574 -0.005020 0
0.768306 -0.004044 0
0.767069 -0.003216 0
0.765864 -0.002519 0
0.764691 -0.001938 0
0.763551 -0.001460 0
0.762444 -0.001073 0
0.761370 -0.000764 0
0.760330 -0.000523 0
0.759323 -0.000341 0
0.758349 -0.000209 0
0.757409 -0.000119 0
0.756501 -0.000064 0
0.755626 -0.000038 0
0.754783 -0.000035 0
0.753971 -0.000051 0
0.753191 -0.000081 0
0.752440 -0.000121 0
0.751720 -0.000170 0
0.751028 -0.000222 0
0.750364 -0.000277 0
0.749728 -0.000333 0
0.749118 -0.000388 0
0.748533 -0.000440 0
0.747973 -0.000489 0
0.747436 -0.000534 0
0.746922 -0.000574 0
0.746430 -0.000610 0
0.745957 -0.000640 0
0.745503 -0.000665 0
0.745065 -0.000685 0
0.744642 -0.000702 0
0.744229 -0.000717 0
0.743824 -0.000733 0
0.743420 -0.000754 0
0.743008 -0.000767 0
0.500000 0.000000 0
0.463549 0.000000 0
0.420703 0.000000 0
0.380574 0.000000 0
0.346021 0.000000 0
0.317822 0.000000 0
0.296056 0.000000 0
0.280794 0.000000 0
0.273038 0.000000 0
0.277258 0.000000 0
0.296282 -0.026535 0
0.375080 -0.054487 0
0.446061 -0.057609 0
0.507426 -0.062605 0
0.560448 -0.069846 0
0.606173 -0.078062 0
0.646260 -0.086622 0
0.681853 -0.095150 0
0.713619 -0.103574 0
0.741858 -0.111869 0
0.766830 -0.119939 0
0.788714 -0.127647 0
0.807682 -0.134823 0
0.823913 -0.141285 0
0.837603 -0.146867 0
0.848963 -0.151434 0
0.858199 -0.154884 0
0.865515 -0.157153 0
0.871110 -0.158213 0
0.875173 -0.158070 0
0.877886 -0.156759 0
0.879420 -0.154345 0
0.879928 -0.150914 0
0.879552 -0.146569 0
0.878420 -0.141424 0
0.876651 -0.135600 0
0.874353 -0.129221 0
0.871620 -0.122412 0
0.868539 -0.115293 0
0.865185 -0.107979 0
0.861625 -0.100575 0
0.857918 -0.093175 0
0.854115 -0.085866 0
0.850259 -0.078719 0
0.846388 -0.071795 0
0.842533 -0.065145 0
0.838721 -0.058806 0
0.834972 -0.052809 0
0.831306 -0.047173 0
0.827734 -0.041911 0
0.824267 -0.037028 0
0.820914 -0.032524 0
0.817678 -0.028394 0
0.814564 -0.024629 0
0.811572 -0.021214 0
0.808703 -0.018136 0
0.805955 -0.015377 0
0.803326 -0.012918 0
0.800814 -0.010739 0
0.798414 -0.008821 0
0.796123 -0.007142 0
0.793934 -0.005684 0
0.791843 -0.004425 0
0.789844 -0.003346 0
0.787929 -0.002430 0
0.786093 -0.001658 0