# vtk DataFile Version 2.0
generated by CFD-lab course output (written by Tobias Neckel) 
ASCII

DATASET STRUCTURED_GRID
DIMENSIONS  99 19 1 
POINTS 1881 float

0.000000 0.000000 0
0.100000 0.000000 0
0.200000 0.000000 0
0.300000 0.000000 0
0.400000 0.000000 0
0.500000 0.000000 0
0.600000 0.000000 0
0.700000 0.000000 0
0.800000 0.000000 0
0.900000 0.000000 0
1.000000 0.000000 0
1.100000 0.000000 0
1.200000 0.000000 0
1.300000 0.000000 0
1.400000 0.000000 0
1.500000 0.000000 0
1.600000 0.000000 0
1.700000 0.000000 0
1.800000 0.000000 0
1.900000 0.000000 0
2.000000 0.000000 0
2.100000 0.000000 0
2.200000 0.000000 0
2.300000 0.000000 0
2.400000 0.000000 0
2.500000 0.000000 0
2.600000 0.000000 0
2.700000 0.000000 0
2.800000 0.000000 0
2.900000 0.000000 0
3.000000 0.000000 0
3.100000 0.000000 0
3.200000 0.000000 0
3.300000 0.000000 0
3.400000 0.000000 0
3.500000 0.000000 0
3.600000 0.000000 0
3.700000 0.000000 0
3.800000 0.000000 0
3.900000 0.000000 0
4.000000 0.000000 0
4.100000 0.000000 0
4.200000 0.000000 0
4.300000 0.000000 0
4.400000 0.000000 0
4.500000 0.000000 0
4.600000 0.000000 0
4.700000 0.000000 0
4.800000 0.000000 0
4.900000 0.000000 0
5.000000 0.000000 0
5.100000 0.000000 0
5.200000 0.000000 0
5.300000 0.000000 0
5.400000 0.000000 0
5.500000 0.000000 0
5.600000 0.000000 0
5.700000 0.000000 0
5.800000 0.000000 0
5.900000 0.000000 0
6.000000 0.000000 0
6.100000 0.000000 0
6.200000 0.000000 0
6.300000 0.000000 0
6.400000 0.000000 0
6.500000 0.000000 0
6.600000 0.000000 0
6.700000 0.000000 0
6.800000 0.000000 0
6.900000 0.000000 0
7.000000 0.000000 0
7.100000 0.000000 0
7.200000 0.000000 0
7.300000 0.000000 0
7.400000 0.000000 0
7.500000 0.000000 0
7.600000 0.000000 0
7.700000 0.000000 0
7.800000 0.000000 0
7.900000 0.000000 0
8.000000 0.000000 0
8.100000 0.000000 0
8.200000 0.000000 0
8.300000 0.000000 0
8.400000 0.000000 0
8.500000 0.000000 0
8.600000 0.000000 0
8.700000 0.000000 0
8.800000 0.000000 0
8.900000 0.000000 0
9.000000 0.000000 0
9.100000 0.000000 0
9.200000 0.000000 0
9.300000 0.000000 0
9.400000 0.000000 0
9.500000 0.000000 0
9.600000 0.000000 0
9.700000 0.000000 0
9.800000 0.000000 0
0.000000 0.100000 0
0.100000 0.100000 0
0.200000 0.100000 0
0.300000 0.100000 0
0.400000 0.100000 0
0.500000 0.100000 0
0.600000 0.100000 0
0.700000 0.100000 0
0.800000 0.100000 0
0.900000 0.100000 0
1.000000 0.100000 0
1.100000 0.100000 0
1.200000 0.100000 0
1.300000 0.100000 0
1.400000 0.100000 0
1.500000 0.100000 0
1.600000 0.100000 0
1.700000 0.100000 0
1.800000 0.100000 0
1.900000 0.100000 0
2.000000 0.100000 0
2.100000 0.100000 0
2.200000 0.100000 0
2.300000 0.100000 0
2.400000 0.100000 0
2.500000 0.100000 0
2.600000 0.100000 0
2.700000 0.100000 0
2.800000 0.100000 0
2.900000 0.100000 0
3.000000 0.100000 0
3.100000 0.100000 0
3.200000 0.100000 0
3.300000 0.100000 0
3.400000 0.100000 0
3.500000 0.100000 0
3.600000 0.100000 0
3.700000 0.100000 0
3.800000 0.100000 0
3.900000 0.100000 0
4.000000 0.100000 0
4.100000 0.100000 0
4.200000 0.100000 0
4.300000 0.100000 0
4.400000 0.100000 0
4.500000 0.100000 0
4.600000 0.100000 0
4.700000 0.100000 0
4.800000 0.100000 0
4.900000 0.100000 0
5.000000 0.100000 0
5.100000 0.100000 0
5.200000 0.100000 0
5.300000 0.100000 0
5.400000 0.100000 0
5.500000 0.100000 0
5.600000 0.100000 0
5.700000 0.100000 0
5.800000 0.100000 0
5.900000 0.100000 0
6.000000 0.100000 0
6.100000 0.100000 0
6.200000 0.100000 0
6.300000 0.100000 0
6.400000 0.100000 0
6.500000 0.100000 0
6.600000 0.100000 0
6.700000 0.100000 0
6.800000 0.100000 0
6.900000 0.100000 0
7.000000 0.100000 0
7.100000 0.100000 0
7.200000 0.100000 0
7.300000 0.100000 0
7.400000 0.100000 0
7.500000 0.100000 0
7.600000 0.100000 0
7.700000 0.100000 0
7.800000 0.100000 0
7.900000 0.100000 0
8.000000 0.100000 0
8.100000 0.100000 0
8.200000 0.100000 0
8.300000 0.100000 0
8.400000 0.100000 0
8.500000 0.100000 0
8.600000 0.100000 0
8.700000 0.100000 0
8.800000 0.100000 0
8.900000 0.100000 0
9.000000 0.100000 0
9.100000 0.100000 0
9.200000 0.100000 0
9.300000 0.100000 0
9.400000 0.100000 0
9.500000 0.100000 0
9.600000 0.100000 0
9.700000 0.100000 0
9.800000 0.100000 0
0.000000 0.200000 0
0.100000 0.200000 0
0.200000 0.200000 0
0.300000 0.200000 0
0.400000 0.200000 0
0.500000 0.200000 0
0.600000 0.200000 0
0.700000 0.200000 0
0.800000 0.200000 0
0.900000 0.200000 0
1.000000 0.200000 0
1.100000 0.200000 0
1.200000 0.200000 0
1.300000 0.200000 0
1.400000 0.200000 0
1.500000 0.200000 0
1.600000 0.200000 0
1.700000 0.200000 0
1.800000 0.200000 0
1.900000 0.200000 0
2.000000 0.200000 0
2.100000 0.200000 0
2.200000 0.200000 0
2.300000 0.200000 0
2.400000 0.200000 0
2.500000 0.200000 0
2.600000 0.200000 0
2.700000 0.200000 0
2.800000 0.200000 0
2.900000 0.200000 0
3.000000 0.200000 0
3.100000 0.200000 0
3.200000 0.200000 0
3.300000 0.200000 0
3.400000 0.200000 0
3.500000 0.200000 0
3.600000 0.200000 0
3.700000 0.200000 0
3.800000 0.200000 0
3.900000 0.200000 0
4.000000 0.200000 0
4.100000 0.200000 0
4.200000 0.200000 0
4.300000 0.200000 0
4.400000 0.200000 0
4.500000 0.200000 0
4.600000 0.200000 0
4.700000 0.200000 0
4.800000 0.200000 0
4.900000 0.200000 0
5.000000 0.200000 0
5.100000 0.200000 0
5.200000 0.200000 0
5.300000 0.200000 0
5.400000 0.200000 0
5.500000 0.200000 0
5.600000 0.200000 0
5.700000 0.200000 0
5.800000 0.200000 0
5.900000 0.200000 0
6.000000 0.200000 0
6.100000 0.200000 0
6.200000 0.200000 0
6.300000 0.200000 0
6.400000 0.200000 0
6.500000 0.200000 0
6.600000 0.200000 0
6.700000 0.200000 0
6.800000 0.200000 0
6.900000 0.200000 0
7.000000 0.200000 0
7.100000 0.200000 0
7.200000 0.200000 0
7.300000 0.200000 0
7.400000 0.200000 0
7.500000 0.200000 0
7.600000 0.200000 0
7.700000 0.200000 0
7.800000 0.200000 0
7.900000 0.200000 0
8.000000 0.200000 0
8.100000 0.200000 0
8.200000 0.200000 0
8.300000 0.200000 0
8.400000 0.200000 0
8.500000 0.200000 0
8.600000 0.200000 0
8.700000 0.200000 0
8.800000 0.200000 0
8.900000 0.200000 0
9.000000 0.200000 0
9.100000 0.200000 0
9.200000 0.200000 0
9.300000 0.200000 0
9.400000 0.200000 0
9.500000 0.200000 0
9.600000 0.200000 0
9.700000 0.200000 0
9.800000 0.200000 0
0.000000 0.300000 0
0.100000 0.300000 0
0.200000 0.300000 0
0.300000 0.300000 0
0.400000 0.300000 0
0.500000 0.300000 0
0.600000 0.300000 0
0.700000 0.300000 0
0.800000 0.300000 0
0.900000 0.300000 0
1.000000 0.300000 0
1.100000 0.300000 0
1.200000 0.300000 0
1.300000 0.300000 0
1.400000 0.300000 0
1.500000 0.300000 0
1.600000 0.300000 0
1.700000 0.300000 0
1.800000 0.300000 0
1.900000 0.300000 0
2.000000 0.300000 0
2.100000 0.300000 0
2.200000 0.300000 0
2.300000 0.300000 0
2.400000 0.300000 0
2.500000 0.300000 0
2.600000 0.300000 0
2.700000 0.300000 0
2.800000 0.300000 0
2.900000 0.300000 0
3.000000 0.300000 0
3.100000 0.300000 0
3.200000 0.300000 0
3.300000 0.300000 0
3.400000 0.300000 0
3.500000 0.300000 0
3.600000 0.300000 0
3.700000 0.300000 0
3.800000 0.300000 0
3.900000 0.300000 0
4.000000 0.300000 0
4.100000 0.300000 0
4.200000 0.300000 0
4.300000 0.300000 0
4.400000 0.300000 0
4.500000 0.300000 0
4.600000 0.300000 0
4.700000 0.300000 0
4.800000 0.300000 0
4.900000 0.300000 0
5.000000 0.300000 0
5.100000 0.300000 0
5.200000 0.300000 0
5.300000 0.300000 0
5.400000 0.300000 0
5.500000 0.300000 0
5.600000 0.300000 0
5.700000 0.300000 0
5.800000 0.300000 0
5.900000 0.300000 0
6.000000 0.300000 0
6.100000 0.300000 0
6.200000 0.300000 0
6.300000 0.300000 0
6.400000 0.300000 0
6.500000 0.300000 0
6.600000 0.300000 0
6.700000 0.300000 0
6.800000 0.300000 0
6.900000 0.300000 0
7.000000 0.300000 0
7.100000 0.300000 0
7.200000 0.300000 0
7.300000 0.300000 0
7.400000 0.300000 0
7.500000 0.300000 0
7.600000 0.300000 0
7.700000 0.300000 0
7.800000 0.300000 0
7.900000 0.300000 0
8.000000 0.300000 0
8.100000 0.300000 0
8.200000 0.300000 0
8.300000 0.300000 0
8.400000 0.300000 0
8.500000 0.300000 0
8.600000 0.300000 0
8.700000 0.300000 0
8.800000 0.300000 0
8.900000 0.300000 0
9.000000 0.300000 0
9.100000 0.300000 0
9.200000 0.300000 0
9.300000 0.300000 0
9.400000 0.300000 0
9.500000 0.300000 0
9.600000 0.300000 0
9.700000 0.300000 0
9.800000 0.300000 0
0.000000 0.400000 0
0.100000 0.400000 0
0.200000 0.400000 0
0.300000 0.400000 0
0.400000 0.400000 0
0.500000 0.400000 0
0.600000 0.400000 0
0.700000 0.400000 0
0.800000 0.400000 0
0.900000 0.400000 0
1.000000 0.400000 0
1.100000 0.400000 0
1.200000 0.400000 0
1.300000 0.400000 0
1.400000 0.400000 0
1.500000 0.400000 0
1.600000 0.400000 0
1.700000 0.400000 0
1.800000 0.400000 0
1.900000 0.400000 0
2.000000 0.400000 0
2.100000 0.400000 0
2.200000 0.400000 0
2.300000 0.400000 0
2.400000 0.400000 0
2.500000 0.400000 0
2.600000 0.400000 0
2.700000 0.400000 0
2.800000 0.400000 0
2.900000 0.400000 0
3.000000 0.400000 0
3.100000 0.400000 0
3.200000 0.400000 0
3.300000 0.400000 0
3.400000 0.400000 0
3.500000 0.400000 0
3.600000 0.400000 0
3.700000 0.400000 0
3.800000 0.400000 0
3.900000 0.400000 0
4.000000 0.400000 0
4.100000 0.400000 0
4.200000 0.400000 0
4.300000 0.400000 0
4.400000 0.400000 0
4.500000 0.400000 0
4.600000 0.400000 0
4.700000 0.400000 0
4.800000 0.400000 0
4.900000 0.400000 0
5.000000 0.400000 0
5.100000 0.400000 0
5.200000 0.400000 0
5.300000 0.400000 0
5.400000 0.400000 0
5.500000 0.400000 0
5.600000 0.400000 0
5.700000 0.400000 0
5.800000 0.400000 0
5.900000 0.400000 0
6.000000 0.400000 0
6.100000 0.400000 0
6.200000 0.400000 0
6.300000 0.400000 0
6.400000 0.400000 0
6.500000 0.400000 0
6.600000 0.400000 0
6.700000 0.400000 0
6.800000 0.400000 0
6.900000 0.400000 0
7.000000 0.400000 0
7.100000 0.400000 0
7.200000 0.400000 0
7.300000 0.400000 0
7.400000 0.400000 0
7.500000 0.400000 0
7.600000 0.400000 0
7.700000 0.400000 0
7.800000 0.400000 0
7.900000 0.400000 0
8.000000 0.400000 0
8.100000 0.400000 0
8.200000 0.400000 0
8.300000 0.400000 0
8.400000 0.400000 0
8.500000 0.400000 0
8.600000 0.400000 0
8.700000 0.400000 0
8.800000 0.400000 0
8.900000 0.400000 0
9.000000 0.400000 0
9.100000 0.400000 0
9.200000 0.400000 0
9.300000 0.400000 0
9.400000 0.400000 0
[...]
POINT_DATA 1881 

VECTORS velocity float
0.000000 0.000000 0
0.000000 0.000000 0
0.000000 0.000000 0
0.000000 0.000000 0
0.000000 0.000000 0
0.000000 0.000000 0
0.000000 0.000000 0
0.000000 0.000000 0
0.000000 0.000000 0
0.000000 0.000000 0
0.000000 0.000000 0
0.016121 0.000000 0
0.039302 0.000000 0
0.060820 0.000000 0
0.080254 0.000000 0
0.097372 0.000000 0
0.112124 0.000000 0
0.124607 0.000000 0
0.135002 0.000000 0
0.143534 0.000000 0
0.150440 0.000000 0
0.155944 0.000000 0
0.160257 0.000000 0
0.163561 0.000000 0
0.166018 0.000000 0
0.167764 0.000000 0
0.168917 0.000000 0
0.169574 0.000000 0
0.169820 0.000000 0
0.169722 0.000000 0
0.169340 0.000000 0
0.168723 0.000000 0
0.167911 0.000000 0
0.166939 0.000000 0
0.165836 0.000000 0
0.164625 0.000000 0
0.163328 0.000000 0
0.161961 0.000000 0
0.160539 0.000000 0
0.159074 0.000000 0
0.157576 0.000000 0
0.156054 0.000000 0
0.154516 0.000000 0
0.152967 0.000000 0
0.151413 0.000000 0
0.149858 0.000000 0
0.148308 0.000000 0
0.146764 0.000000 0
0.145230 0.000000 0
0.143708 0.000000 0
0.142201 0.000000 0
0.140710 0.000000 0
0.139238 0.000000 0
0.137786 0.000000 0
0.136355 0.000000 0
0.134946 0.000000 0
0.133561 0.000000 0
0.132200 0.000000 0
0.130865 0.000000 0
0.129556 0.000000 0
0.128274 0.000000 0
0.127020 0.000000 0
0.125795 0.000000 0
0.124599 0.000000 0
0.123433 0.000000 0
0.122297 0.000000 0
0.121192 0.000000 0
0.120119 0.000000 0
0.119078 0.000000 0
0.118069 0.000000 0
0.117093 0.000000 0
0.116150 0.000000 0
0.115241 0.000000 0
0.114366 0.000000 0
0.113526 0.000000 0
0.112721 0.000000 0
0.111950 0.000000 0
0.111216 0.000000 0
0.110517 0.000000 0
0.109854 0.000000 0
0.109228 0.000000 0
0.108638 0.000000 0
0.108085 0.000000 0
0.107569 0.000000 0
0.107090 0.000000 0
0.106649 0.000000 0
0.106246 0.000000 0
0.105880 0.000000 0
0.105552 0.000000 0
0.105262 0.000000 0
0.105010 0.000000 0
0.104796 0.000000 0
0.104620 0.000000 0
0.104483 0.000000 0
0.104384 0.000000 0
0.104323 0.000000 0
0.104301 0.000000 0
0.104319 0.000000 0
0.104381 0.000000 0
0.000000 0.000000 0
0.000000 0.000000 0
0.000000 0.000000 0
0.000000 0.000000 0
0.000000 0.000000 0
0.000000 0.000000 0
0.000000 0.000000 0
0.000000 0.000000 0
0.000000 0.000000 0
0.000000 0.000000 0
0.000000 -0.029397 0
0.034407 -0.060201 0
0.082806 -0.059933 0
0.127721 -0.056162 0
0.168120 -0.051733 0
0.203515 -0.047017 0
0.233860 -0.042344 0
0.259407 -0.037945 0
0.280585 -0.033948 0
0.297892 -0.030407 0
0.311838 -0.027325 0
0.322905 -0.024674 0
0.331528 -0.022411 0
0.338090 -0.020489 0
0.342922 -0.018861 0
0.346307 -0.017483 0
0.348483 -0.016316 0
0.349652 -0.015327 0
0.349983 -0.014487 0
0.349618 -0.013771 0
0.348677 -0.013158 0
0.347258 -0.012631 0
0.345445 -0.012176 0
0.343308 -0.011780 0
0.340907 -0.011434 0
0.338289 -0.011127 0
0.335498 -0.010855 0
0.332567 -0.010610 0
0.329526 -0.010388 0
0.326400 -0.010185 0
0.323209 -0.009996 0
0.319973 -0.009820 0
0.316705 -0.009654 0
0.313418 -0.009495 0
0.310124 -0.009342 0
0.306832 -0.009194 0
0.303549 -0.009050 0
0.300283 -0.008908 0
0.297040 -0.008767 0
0.293825 -0.008628 0
0.290643 -0.008488 0
0.287496 -0.008349 0
0.284390 -0.008209 0
0.281327 -0.008068 0
0.278310 -0.007926 0
0.275341 -0.007783 0
0.272422 -0.007639 0
0.269556 -0.007492 0
0.266745 -0.007344 0
0.263990 -0.007194 0
0.261293 -0.007042 0
0.258656 -0.006888 0
0.256079 -0.006732 0
0.253564 -0.006574 0
0.251112 -0.006414 0
0.248725 -0.006252 0
0.246404 -0.006088 0
0.244149 -0.005922 0
0.241962 -0.005754 0
0.239844 -0.005584 0
0.237795 -0.005413 0
0.235816 -0.005239 0
0.233909 -0.005064 0
0.232073 -0.004886 0
0.230311 -0.004707 0
0.228621 -0.004527 0
0.227006 -0.004345 0
0.225466 -0.004161 0
0.224001 -0.003976 0
0.222612 -0.003789 0
0.221299 -0.003602 0
0.220063 -0.003413 0
0.218905 -0.003222 0
0.217825 -0.003031 0
0.216822 -0.002838 0
0.215899 -0.002645 0
0.215054 -0.002451 0
0.214289 -0.002256 0
0.213603 -0.002060 0
0.212996 -0.001863 0
0.212470 -0.001666 0
0.212023 -0.001469 0
0.211657 -0.001271 0
0.211372 -0.001073 0
0.211166 -0.000875 0
0.211042 -0.000677 0
0.210999 -0.000480 0
0.211037 -0.000289 0
0.211162 -0.000212 0
0.000000 0.000000 0
0.000000 0.000000 0
0.000000 0.000000 0
0.000000 0.000000 0
0.000000 0.000000 0
0.000000 0.000000 0
0.000000 0.000000 0
0.000000 0.000000 0
0.000000 0.000000 0
0.000000 0.000000 0
0.000000 -0.055312 0
0.038499 -0.113316 0
0.090508 -0.112508 0
0.138335 -0.104474 0
0.180756 -0.094915 0
0.217362 -0.084815 0
0.248293 -0.074917 0
0.274000 -0.065694 0
0.295067 -0.057393 0
0.312110 -0.050095 0
0.325713 -0.043783 0
0.336403 -0.038384 0
0.344643 -0.033798 0
0.350830 -0.029922 0
0.355302 -0.026654 0
0.358342 -0.023902 0
0.360190 -0.021586 0
0.361046 -0.019637 0
0.361078 -0.017993 0
0.360427 -0.016606 0
0.359211 -0.015432 0
0.357526 -0.014437 0
0.355457 -0.013590 0
0.353072 -0.012868 0
0.350428 -0.012248 0
0.347575 -0.011715 0
0.344554 -0.011253 0
0.341398 -0.010850 0
0.338138 -0.010497 0
0.334798 -0.010184 0
0.331398 -0.009905 0
0.327955 -0.009655 0
0.324486 -0.009427 0
0.321003 -0.009218 0
0.317515 -0.009025 0
0.314034 -0.008844 0
0.310566 -0.008673 0
0.307119 -0.008510 0
0.303698 -0.008353 0
0.300310 -0.008201 0
0.296957 -0.008053 0
0.293644 -0.007908 0
0.290375 -0.007764 0
0.287153 -0.007622 0
0.283981 -0.007480 0
0.280860 -0.007339 0
0.277794 -0.007197 0
0.274784 -0.007054 0
0.271833 -0.006911 0
0.268941 -0.006767 0
0.266111 -0.006622 0
0.263344 -0.006475 0
0.260641 -0.006326 0
0.258005 -0.006177 0
0.255435 -0.006025 0
0.252933 -0.005872 0
0.250501 -0.005717 0
0.248139 -0.005561 0
0.245849 -0.005402 0
0.243630 -0.005242 0
0.241485 -0.005081 0
0.239414 -0.004917 0
0.237418 -0.004753 0
0.235497 -0.004586 0
0.233653 -0.004418 0
0.231886 -0.004248 0
0.230197 -0.004077 0
0.228587 -0.003905 0
0.227055 -0.003731 0
0.225603 -0.003556 0
0.224231 -0.003380 0
0.222940 -0.003203 0
0.221730 -0.003024 0
0.220601 -0.002844 0
0.219554 -0.002664 0
0.218590 -0.002482 0
0.217708 -0.002300 0
0.216909 -0.002117 0
0.216194 -0.001934 0
0.215562 -0.001749 0
0.215013 -0.001565 0
0.214548 -0.001380 0
0.214167 -0.001194 0
0.213871 -0.001009 0
0.213658 -0.000824 0
0.213530 -0.000639 0
0.213486 -0.000455 0
0.213527 -0.000277 0
0.213651 -0.000202 0
0.000000 0.000000 0
0.000000 0.000000 0
0.000000 0.000000 0
0.000000 0.000000 0
0.000000 0.000000 0
0.000000 0.000000 0
0.000000 0.000000 0
0.000000 0.000000 0
0.000000 0.000000 0
0.000000 0.000000 0
0.000000 -0.083153 0
0.043576 -0.169930 0
0.099870 -0.167689 0
0.150380 -0.154312 0
0.193940 -0.138640 0
0.230505 -0.122411 0
0.260643 -0.106813 0
0.285160 -0.092522 0
0.304895 -0.079832 0
0.320614 -0.068796 0
0.332986 -0.059328 0
0.342576 -0.051279 0
0.349857 -0.044475 0
0.355221 -0.038745 0
0.358993 -0.033929 0
0.361444 -0.029884 0
0.362796 -0.026489 0
0.363238 -0.023638 0
0.362924 -0.021242 0
0.361984 -0.019225 0
0.360525 -0.017526 0
0.358639 -0.016092 0
0.356402 -0.014879 0
0.353876 -0.013850 0
0.351116 -0.012975 0
0.348166 -0.012229 0
0.345063 -0.011589 0
0.341841 -0.011038 0
0.338524 -0.010562 0
0.335137 -0.010148 0
0.331698 -0.009785 0
0.328224 -0.009465 0
0.324729 -0.009180 0
0.321223 -0.008924 0
0.317718 -0.008692 0
0.314222 -0.008481 0
0.310743 -0.008285 0
0.307286 -0.008103 0
0.303858 -0.007932 0
0.300463 -0.007769 0
0.297106 -0.007613 0
0.293790 -0.007463 0
0.290519 -0.007316 0
0.287295 -0.007173 0
0.284121 -0.007032 0
0.281000 -0.006893 0
0.277934 -0.006754 0
0.274924 -0.006616 0
0.271973 -0.006478 0
0.269082 -0.006340 0
0.266253 -0.006201 0
0.263487 -0.006061 0
0.260786 -0.005921 0
0.258151 -0.005779 0
0.255583 -0.005636 0
0.253082 -0.005492 0
0.250652 -0.005346 0
0.248291 -0.005199 0
0.246002 -0.005051 0
0.243786 -0.004901 0
0.241642 -0.004749 0
0.239573 -0.004596 0
0.237578 -0.004442 0
0.235659 -0.004286 0
0.233817 -0.004129 0
0.232051 -0.003970 0
0.230363 -0.003811 0
0.228754 -0.003649 0
0.227223 -0.003487 0
0.225773 -0.003323 0
0.224402 -0.003159 0
0.223112 -0.002993 0
0.221903 -0.002826 0
0.220775 -0.002658 0
0.219729 -0.002490 0
0.218766 -0.002320 0
0.217885 -0.002150 0
0.217086 -0.001979 0
0.216371 -0.001808 0
0.215740 -0.001636 0
0.215192 -0.001463 0
0.214727 -0.001291 0
0.214347 -0.001118 0
0.214050 -0.000945 0
0.213837 -0.000772 0
0.213708 -0.000600 0
0.213664 -0.000428 0
0.213702 -0.000261 0
0.213823 -0.000191 0
0.000000 0.000000 0
0.000000 0.000000 0
0.000000 0.000000 0
0.000000 0.000000 0
0.000000 0.000000 0
0.000000 0.000000 0
0.000000 0.000000 0
0.000000 0.000000 0
0.000000 0.000000 0
0.000000 0.000000 0
0.000000 -0.114146 0
0.051825 -0.232409 0
0.115026 -0.227234 0
0.169383 -0.206446 0
0.214129 -0.182921 0
0.250087 -0.159374 0
0.278625 -0.137403 0
0.301119 -0.117749 0
0.318752 -0.100619 0
0.332480 -0.085927 0
0.343057 -0.073453 0
0.351076 -0.062927 0
0.357007 -0.054078 0
0.361223 -0.046653 0
0.364027 -0.040430 0
0.365665 -0.035216 0
0.366337 -0.030847 0
0.366210 -0.027183 0
0.365421 -0.024109 0
0.364084 -0.021526 0
0.362294 -0.019354 0
0.360132 -0.017525 0
0.357664 -0.015982 0
0.354946 -0.014677 0
0.352025 -0.013572 0
0.348941 -0.012634 0
0.345726 -0.011835 0
0.342410 -0.011151 0
0.339016 -0.010564 0
0.335564 -0.010059 0
0.332072 -0.009620 0
0.328553 -0.009237 0
0.325020 -0.008901 0
0.321484 -0.008604 0
0.317954 -0.008339 0
0.314437 -0.008100 0
0.310940 -0.007883 0
0.307469 -0.007685 0
0.304030 -0.007501 0
0.300626 -0.007329 0
0.297261 -0.007166 0
0.293939 -0.007012 0
0.290663 -0.006864 0
0.287436 -0.006720 0
0.284260 -0.006581 0
0.281137 -0.006444 0
0.278069 -0.006309 0
0.275059 -0.006176 0
0.272108 -0.006043 0
0.269217 -0.005911 0
0.266388 -0.005779 0
0.263623 -0.005647 0
0.260923 -0.005515 0
0.258289 -0.005381 0
0.255721 -0.005247 0
0.253223 -0.005112 0
0.250793 -0.004975 0
0.248434 -0.004838 0
0.246147 -0.004699 0
0.243931 -0.004559 0
0.241789 -0.004418 0
0.239721 -0.004276 0
0.237728 -0.004132 0
0.235810 -0.003987 0
0.233969 -0.003840 0
0.232205 -0.003693 0
0.230518 -0.003544 0
0.228910 -0.003394 0
0.227381 -0.003243 0
0.225931 -0.003091 0
0.224561 -0.002938 0
0.223272 -0.002784 0
0.222064 -0.002629 0
0.220937 -0.002473 0
0.219892 -0.002316 0
0.218929 -0.002158 0
0.218049 -0.002000 0
0.217252 -0.001841 0
0.216537 -0.001682 0
0.215906 -0.001522 0
0.215358 -0.001362 0
0.214894 -0.001201 0
0.214513 -0.001041 0
0.214217 -0.000880 0
0.214004 -0.000720 0
0.213874 -0.000560 0
0.213829 -0.000400 0
0.213866 -0.000245 0
0.213986 -0.000178 0
0.000000 0.000000 0
0.000000 0.000000 0
0.000000 0.000000 0
0.000000 0.000000 0
0.000000 0.000000 0
0.000000 0.000000 0
0.000000 0.000000 0
0.000000 0.000000 0
0.000000 0.000000 0
0.000000 0.000000 0
0.000000 -0.150239 0
0.065381 -0.304185 0
0.139036 -0.293172 0
0.198006 -0.261320 0
0.243118 -0.227226 0
0.277100 -0.194763 0
0.302664 -0.165676 0
0.321952 -0.140452 0
0.336531 -0.118966 0
0.347514 -0.100840 0
0.355704 -0.085630 0
0.361683 -0.072898 0
0.365890 -0.062254 0
0.368657 -0.053358 0
0.370249 -0.045922 0
0.370874 -0.039703 0
0.370701 -0.034498 0
0.369868 -0.030138 0
0.368490 -0.026483 0
0.366662 -0.023415 0
0.364463 -0.020838 0
0.361959 -0.018670 0
0.359205 -0.016844 0
0.356248 -0.015304 0
0.353128 -0.014002 0
0.349877 -0.012899 0
0.346524 -0.011963 0
0.343092 -0.011165 0
0.339601 -0.010484 0
0.336068 -0.009900 0
0.332508 -0.009397 0
0.328933 -0.008962 0
0.325354 -0.008583 0
0.321779 -0.008250 0
0.318216 -0.007957 0
0.314673 -0.007696 0
0.311154 -0.007462 0
0.307665 -0.007250 0
0.304211 -0.007056 0
0.300795 -0.006877 0
0.297420 -0.006710 0
0.294091 -0.006553 0
0.290808 -0.006405 0
0.287576 -0.006262 0
0.284396 -0.006125 0
0.281270 -0.005992 0
0.278200 -0.005862 0
0.275189 -0.005734 0
0.272237 -0.005607 0
0.269345 -0.005482 0
0.266517 -0.005357 0
0.263752 -0.005233 0
0.261052 -0.005108 0
0.258418 -0.004983 0
0.255851 -0.004858 0
0.253354 -0.004731 0
0.250925 -0.004605 0
0.248567 -0.004477 0
0.246281 -0.004348 0
0.244067 -0.004218 0
0.241926 -0.004087 0
0.239859 -0.003955 0
0.237867 -0.003822 0
0.235950 -0.003687 0
0.234110 -0.003552 0
0.232347 -0.003416 0
0.230662 -0.003278 0
0.229055 -0.003139 0
0.227526 -0.003000 0
0.226078 -0.002859 0
0.224709 -0.002717 0
0.223421 -0.002575 0
0.222213 -0.002431 0
0.221088 -0.002287 0
0.220043 -0.002142 0
0.219081 -0.001997 0
0.218202 -0.001850 0
0.217405 -0.001704 0
0.216691 -0.001556 0
0.216060 -0.001409 0
0.215512 -0.001260 0
0.215048 -0.001112 0
0.214668 -0.000964 0
0.214371 -0.000815 0
0.214158 -0.000667 0
0.214028 -0.000519 0
0.213982 -0.000371 0
0.214019 -0.000227 0
0.214138 -0.000166 0
0.000000 0.000000 0
0.000000 0.000000 0
0.000000 0.000000 0
0.000000 0.000000 0
0.000000 0.000000 0
0.000000 0.000000 0
0.000000 0.000000 0
0.000000 0.000000 0
0.000000 0.000000 0
0.000000 0.000000 0
0.000000 -0.194793 0
0.088756 -0.390683 0
0.177742 -0.367788 0
0.240496 -0.318436 0
0.283250 -0.269899 0
0.312545 -0.226778 0
0.332991 -0.190085 0
0.347511 -0.159417 0
0.357919 -0.133951 0
0.365359 -0.112839 0
0.370578 -0.095326 0
0.374082 -0.080781 0
0.376230 -0.068682 0
0.377288 -0.058604 0
0.377459 -0.050196 0
0.376902 -0.043174 0
0.375746 -0.037302 0
0.374095 -0.032387 0
0.372035 -0.028268 0
0.369638 -0.024813 0
0.366964 -0.021911 0
0.364063 -0.019473 0
0.360978 -0.017420 0
0.357744 -0.015690 0
0.354392 -0.014230 0
0.350948 -0.012996 0
0.347433 -0.011950 0
0.343866 -0.011062 0
0.340263 -0.010306 0
0.336636 -0.009660 0
0.332997 -0.009106 0
0.329356 -0.008629 0
0.325722 -0.008216 0
0.322102 -0.007857 0
0.318501 -0.007542 0
0.314926 -0.007264 0
0.311381 -0.007017 0
0.307871 -0.006795 0
0.304399 -0.006595 0
0.300968 -0.006411 0
0.297582 -0.006243 0
0.294242 -0.006086 0
0.290952 -0.005938 0
0.287714 -0.005798 0
0.284529 -0.005664 0
0.281399 -0.005535 0
0.278326 -0.005410 0
0.275312 -0.005288 0
0.272359 -0.005169 0
0.269466 -0.005050 0
0.266637 -0.004933 0
0.263872 -0.004817 0
0.261172 -0.004700 0
0.258538 -0.004584 0
0.255972 -0.004468 0
0.253475 -0.004351 0
0.251047 -0.004234 0
0.248690 -0.004116 0
0.246405 -0.003997 0
0.244192 -0.003877 0
0.242052 -0.003756 0
0.239986 -0.003635 0
0.237995 -0.003512 0
0.236080 -0.003389 0
0.234240 -0.003264 0
0.232478 -0.003139 0
0.230794 -0.003012 0
0.229188 -0.002885 0
0.227661 -0.002756 0
0.226213 -0.002627 0
0.224845 -0.002497 0
0.223558 -0.002366 0
0.222351 -0.002234 0
0.221226 -0.002102 0
0.220183 -0.001969 0
0.219221 -0.001835 0
0.218342 -0.001701 0
0.217546 -0.001566 0
0.216832 -0.001431 0
0.216202 -0.001295 0
0.215654 -0.001159 0
0.215191 -0.001023 0
0.214810 -0.000887 0
0.214513 -0.000750 0
0.214300 -0.000614 0
0.214170 -0.000478 0
0.214124 -0.000342 0
0.214160 -0.000210 0
0.214279 -0.000153 0
0.000000 0.000000 0
0.000000 0.000000 0
0.000000 0.000000 0
0.000000 0.000000 0
0.000000 0.000000 0
0.000000 0.000000 0
0.000000 0.000000 0
0.000000 0.000000 0
0.000000 0.000000 0
0.000000 0.000000 0
0.000000 -0.254274 0
0.132723 -0.501178 0
0.242688 -0.452846 0
0.302998 -0.374738 0
0.336852 -0.307160 0
0.356853 -0.252363 0
0.369259 -0.208472 0
0.377196 -0.173180 0
0.382290 -0.144584 0
0.385442 -0.121237 0
0.387184 -0.102055 0
0.387854 -0.086217 0
0.387680 -0.073090 0
0.386826 -0.062177 0
0.385418 -0.053084 0
0.383553 -0.045494 0
0.381310 -0.039149 0
0.378755 -0.033838 0
0.375942 -0.029388 0
0.372917 -0.025655 0
0.369718 -0.022521 0
0.366379 -0.019888 0
0.362928 -0.017672 0
0.359388 -0.015806 0
0.355781 -0.014232 0
0.352122 -0.012903 0
0.348428 -0.011779 0
0.344711 -0.010826 0
0.340982 -0.010016 0
0.337251 -0.009326 0
0.333524 -0.008737 0
0.329811 -0.008231 0
0.326116 -0.007795 0
0.322444 -0.007417 0
0.318801 -0.007088 0
0.315191 -0.006800 0
0.311617 -0.006545 0
0.308083 -0.006318 0
0.304590 -0.006115 0
0.301143 -0.005931 0
0.297743 -0.005762 0
0.294393 -0.005607 0
0.291093 -0.005462 0
0.287848 -0.005326 0
0.284657 -0.005197 0
0.281522 -0.005074 0
0.278446 -0.004955 0
0.275429 -0.004840 0
0.272474 -0.004727 0
0.269580 -0.004617 0
0.266749 -0.004508 0
0.263983 -0.004399 0
0.261283 -0.004292 0
0.258650 -0.004185 0
0.256084 -0.004078 0
0.253587 -0.003970 0
0.251160 -0.003862 0
0.248804 -0.003754 0
0.246519 -0.003645 0
0.244307 -0.003536 0
0.242167 -0.003426 0
0.240103 -0.003315 0
0.238112 -0.003203 0
0.236198 -0.003090 0
0.234360 -0.002976 0
0.232599 -0.002862 0
0.230915 -0.002746 0
0.229310 -0.002630 0
0.227784 -0.002513 0
0.226337 -0.002395 0
0.224970 -0.002277 0
0.223683 -0.002158 0
0.222477 -0.002038 0
0.221353 -0.001917 0
0.220310 -0.001796 0
0.219349 -0.001674 0
0.218471 -0.001551 0
0.217675 -0.001429 0
0.216961 -0.001305 0
0.216331 -0.001182 0
0.215784 -0.001058 0
0.215321 -0.000934 0
0.214940 -0.000810 0
0.214644 -0.000685 0
0.214430 -0.000561 0
0.214300 -0.000437 0
0.214253 -0.000313 0
0.214290 -0.000192 0
0.214408 -0.000140 0
0.000000 0.000000 0
0.000000 0.000000 0
0.000000 0.000000 0
0.000000 0.000000 0
0.000000 0.000000 0
0.000000 0.000000 0
0.000000 0.000000 0
0.000000 0.000000 0
0.000000 0.000000 0
0.000000 0.000000 0
0.000000 -0.342812 0
0.251548 -0.652644 0
0.357301 -0.546002 0
0.391967 -0.420512 0
0.404319 -0.331641 0
0.408769 -0.267044 0
0.410012 -0.218259 0
0.409738 -0.180248 0
0.408619 -0.149967 0
0.406952 -0.125470 0
0.404881 -0.105440 0
0.402489 -0.088942 0
0.399828 -0.075282 0
0.396939 -0.063929 0
0.393855 -0.054469 0
0.390603 -0.046568 0
0.387210 -0.039961 0
0.383697 -0.034428 0
0.380086 -0.029789 0
0.376395 -0.025898 0
0.372640 -0.022630 0
0.368836 -0.019884 0
0.364995 -0.017573 0
0.361130 -0.015628 0
0.357250 -0.013989 0
0.353364 -0.012605 0
0.349479 -0.011436 0
0.345602 -0.010446 0
0.341740 -0.009606 0
0.337896 -0.008891 0
0.334077 -0.008282 0
0.330285 -0.007761 0
0.326524 -0.007314 0
0.322798 -0.006928 0
0.319110 -0.006593 0
0.315462 -0.006301 0
0.311857 -0.006044 0
0.308296 -0.005817 0
0.304782 -0.005615 0
0.301317 -0.005433 0
0.297902 -0.005268 0
0.294539 -0.005117 0
0.291230 -0.004977 0
0.287976 -0.004847 0
0.284779 -0.004724 0
0.281640 -0.004607 0
0.278559 -0.004496 0
0.275539 -0.004388 0
0.272581 -0.004283 0
0.269685 -0.004181 0
0.266853 -0.004080 0
0.264087 -0.003981 0
0.261386 -0.003882 0
0.258752 -0.003784 0
0.256186 -0.003687 0
0.253690 -0.003589 0
0.251263 -0.003491 0
0.248907 -0.003393 0
0.246623 -0.003294 0
0.244411 -0.003195 0
0.242273 -0.003095 0
0.240209 -0.002995 0
0.238219 -0.002893 0
0.236306 -0.002791 0
0.234468 -0.002689 0
0.232708 -0.002585 0
0.231025 -0.002481 0
0.229421 -0.002376 0
0.227895 -0.002271 0
0.226449 -0.002164 0
0.225083 -0.002057 0
0.223797 -0.001949 0
0.222592 -0.001841 0
0.221468 -0.001732 0
0.220426 -0.001623 0
0.219465 -0.001513 0
0.218587 -0.001402 0
0.217792 -0.001291 0
0.217079 -0.001180 0
0.216449 -0.001069 0
0.215902 -0.000957 0
0.215439 -0.000845 0
0.215059 -0.000732 0
0.214762 -0.000620 0
0.214549 -0.000508 0
0.214418 -0.000395 0
0.214372 -0.000283 0
0.214408 -0.000174 0
0.214526 -0.000127 0
0.500000 0.000000 0
0.475032 0.000000 0
0.470259 0.000000 0
0.469294 0.000000 0
0.470797 0.000000 0
0.475054 0.000000 0
0.483603 0.000000 0
0.500168 0.000000 0
0.534118 0.000000 0
0.612272 0.000000 0
0.628801 -0.390444 0
0.621793 -0.747079 0
0.543015 -0.601206 0
0.503262 -0.429669 0
0.479701 -0.331849 0
0.463906 -0.265915 0
0.452295 -0.217271 0
0.443139 -0.179588 0
0.435513 -0.149567 0
0.428881 -0.125234 0
0.422917 -0.105293 0
0.417410 -0.088829 0
0.412225 -0.075167 0
0.407269 -0.063790 0
0.402481 -0.054292 0
0.397818 -0.046349 0
0.393252 -0.039698 0
0.388762 -0.034122 0
0.384335 -0.029444 0
0.379963 -0.025516 0
0.375638 -0.022217 0
0.371357 -0.019442 0
0.367117 -0.017109 0
0.362917 -0.015144 0
0.358757 -0.013488 0
0.354636 -0.012091 0
0.350555 -0.010912 0
0.346513 -0.009914 0
0.342513 -0.009068 0
0.338554 -0.008350 0
0.334638 -0.007739 0
0.330765 -0.007217 0
0.326937 -0.006770 0
0.323155 -0.006386 0
0.319420 -0.006054 0
0.315733 -0.005765 0
0.312095 -0.005513 0
0.308507 -0.005290 0
0.304970 -0.005093 0
0.301486 -0.004917 0
0.298056 -0.004759 0
0.294681 -0.004614 0
0.291361 -0.004481 0
0.288099 -0.004358 0
0.284894 -0.004243 0
0.281749 -0.004135 0
0.278664 -0.004031 0
0.275641 -0.003932 0
0.272680 -0.003836 0
0.269782 -0.003742 0
0.266948 -0.003650 0
0.264181 -0.003560 0
0.261479 -0.003471 0
0.258845 -0.003383 0
0.256279 -0.003295 0
0.253782 -0.003207 0
0.251356 -0.003119 0
0.249000 -0.003031 0