# vtk DataFile Version 2.0
generated by CFD-lab course output (written by Tobias Neckel) 
ASCII

DATASET STRUCTURED_GRID
DIMENSIONS  99 19 1 
POINTS 1881 float

0.000000 0.000000 0
0.100000 0.000000 0
0.200000 0.000000 0
0.300000 0.000000 0
0.400000 0.000000 0
0.500000 0.000000 0
0.600000 0.000000 0
0.700000 0.000000 0
0.800000 0.000000 0
0.900000 0.000000 0
1.000000 0.000000 0
1.100000 0.000000 0
1.200000 0.000000 0
1.300000 0.000000 0
1.400000 0.000000 0
1.500000 0.000000 0
1.600000 0.000000 0
1.700000 0.000000 0
1.800000 0.000000 0
1.900000 0.000000 0
2.000000 0.000000 0
2.100000 0.000000 0
2.200000 0.000000 0
2.300000 0.000000 0
2.400000 0.000000 0
2.500000 0.000000 0
2.600000 0.000000 0
2.700000 0.000000 0
2.800000 0.000000 0
2.900000 0.000000 0
3.000000 0.000000 0
3.100000 0.000000 0
3.200000 0.000000 0
3.300000 0.000000 0
3.400000 0.000000 0
3.500000 0.000000 0
3.600000 0.000000 0
3.700000 0.000000 0
3.800000 0.000000 0
3.900000 0.000000 0
4.000000 0.000000 0
4.100000 0.000000 0
4.200000 0.000000 0
4.300000 0.000000 0
4.400000 0.000000 0
4.500000 0.000000 0
4.600000 0.000000 0
4.700000 0.000000 0
4.800000 0.000000 0
4.900000 0.000000 0
5.000000 0.000000 0
5.100000 0.000000 0
5.200000 0.000000 0
5.300000 0.000000 0
5.400000 0.000000 0
5.500000 0.000000 0
5.600000 0.000000 0
5.700000 0.000000 0
5.800000 0.000000 0
5.900000 0.000000 0
6.000000 0.000000 0
6.100000 0.000000 0
6.200000 0.000000 0
6.300000 0.000000 0
6.400000 0.000000 0
6.500000 0.000000 0
6.600000 0.000000 0
6.700000 0.000000 0
6.800000 0.000000 0
6.900000 0.000000 0
7.000000 0.000000 0
7.100000 0.000000 0
7.200000 0.000000 0
7.300000 0.000000 0
7.400000 0.000000 0
7.500000 0.000000 0
7.600000 0.000000 0
7.700000 0.000000 0
7.800000 0.000000 0
7.900000 0.000000 0
8.000000 0.000000 0
8.100000 0.000000 0
8.200000 0.000000 0
8.300000 0.000000 0
8.400000 0.000000 0
8.500000 0.000000 0
8.600000 0.000000 0
8.700000 0.000000 0
8.800000 0.000000 0
8.900000 0.000000 0
9.000000 0.000000 0
9.100000 0.000000 0
9.200000 0.000000 0
9.300000 0.000000 0
9.400000 0.000000 0
9.500000 0.000000 0
9.600000 0.000000 0
9.700000 0.000000 0
9.800000 0.000000 0
0.000000 0.100000 0
0.100000 0.100000 0
0.200000 0.100000 0
0.300000 0.100000 0
0.400000 0.100000 0
0.500000 0.100000 0
0.600000 0.100000 0
0.700000 0.100000 0
0.800000 0.100000 0
0.900000 0.100000 0
1.000000 0.100000 0
1.100000 0.100000 0
1.200000 0.100000 0
1.300000 0.100000 0
1.400000 0.100000 0
1.500000 0.100000 0
1.600000 0.100000 0
1.700000 0.100000 0
1.800000 0.100000 0
1.900000 0.100000 0
2.000000 0.100000 0
2.100000 0.100000 0
2.200000 0.100000 0
2.300000 0.100000 0
2.400000 0.100000 0
2.500000 0.100000 0
2.600000 0.100000 0
2.700000 0.100000 0
2.800000 0.100000 0
2.900000 0.100000 0
3.000000 0.100000 0
3.100000 0.100000 0
3.200000 0.100000 0
3.300000 0.100000 0
3.400000 0.100000 0
3.500000 0.100000 0
3.600000 0.100000 0
3.700000 0.100000 0
3.800000 0.100000 0
3.900000 0.100000 0
4.000000 0.100000 0
4.100000 0.100000 0
4.200000 0.100000 0
4.300000 0.100000 0
4.400000 0.100000 0
4.500000 0.100000 0
4.600000 0.100000 0
4.700000 0.100000 0
4.800000 0.100000 0
4.900000 0.100000 0
5.000000 0.100000 0
5.100000 0.100000 0
5.200000 0.100000 0
5.300000 0.100000 0
5.400000 0.100000 0
5.500000 0.100000 0
5.600000 0.100000 0
5.700000 0.100000 0
5.800000 0.100000 0
5.900000 0.100000 0
6.000000 0.100000 0
6.100000 0.100000 0
6.200000 0.100000 0
6.300000 0.100000 0
6.400000 0.100000 0
6.500000 0.100000 0
6.600000 0.100000 0
6.700000 0.100000 0
6.800000 0.100000 0
6.900000 0.100000 0
7.000000 0.100000 0
7.100000 0.100000 0
7.200000 0.100000 0
7.300000 0.100000 0
7.400000 0.100000 0
7.500000 0.100000 0
7.600000 0.100000 0
7.700000 0.100000 0
7.800000 0.100000 0
7.900000 0.100000 0
8.000000 0.100000 0
8.100000 0.100000 0
8.200000 0.100000 0
8.300000 0.100000 0
8.400000 0.100000 0
8.500000 0.100000 0
8.600000 0.100000 0
8.700000 0.100000 0
8.800000 0.100000 0
8.900000 0.100000 0
9.000000 0.100000 0
9.100000 0.100000 0
9.200000 0.100000 0
9.300000 0.100000 0
9.400000 0.100000 0
9.500000 0.100000 0
9.600000 0.100000 0
9.700000 0.100000 0
9.800000 0.100000 0
0.000000 0.200000 0
0.100000 0.200000 0
0.200000 0.200000 0
0.300000 0.200000 0
0.400000 0.200000 0
0.500000 0.200000 0
0.600000 0.200000 0
0.700000 0.200000 0
0.800000 0.200000 0
0.900000 0.200000 0
1.000000 0.200000 0
1.100000 0.200000 0
1.200000 0.200000 0
1.300000 0.200000 0
1.400000 0.200000 0
1.500000 0.200000 0
1.600000 0.200000 0
1.700000 0.200000 0
1.800000 0.200000 0
1.900000 0.200000 0
2.000000 0.200000 0
2.100000 0.200000 0
2.200000 0.200000 0
2.300000 0.200000 0
2.400000 0.200000 0
2.500000 0.200000 0
2.600000 0.200000 0
2.700000 0.200000 0
2.800000 0.200000 0
2.900000 0.200000 0
3.000000 0.200000 0
3.100000 0.200000 0
3.200000 0.200000 0
3.300000 0.200000 0
3.400000 0.200000 0
3.500000 0.200000 0
3.600000 0.200000 0
3.700000 0.200000 0
3.800000 0.200000 0
3.900000 0.200000 0
4.000000 0.200000 0
4.100000 0.200000 0
4.200000 0.200000 0
4.300000 0.200000 0
4.400000 0.200000 0
4.500000 0.200000 0
4.600000 0.200000 0
4.700000 0.200000 0
4.800000 0.200000 0
4.900000 0.200000 0
5.000000 0.200000 0
5.100000 0.200000 0
5.200000 0.200000 0
5.300000 0.200000 0
5.400000 0.200000 0
5.500000 0.200000 0
5.600000 0.200000 0
5.700000 0.200000 0
5.800000 0.200000 0
5.900000 0.200000 0
6.000000 0.200000 0
6.100000 0.200000 0
6.200000 0.200000 0
6.300000 0.200000 0
6.400000 0.200000 0
6.500000 0.200000 0
6.600000 0.200000 0
6.700000 0.200000 0
6.800000 0.200000 0
6.900000 0.200000 0
7.000000 0.200000 0
7.100000 0.200000 0
7.200000 0.200000 0
7.300000 0.200000 0
7.400000 0.200000 0
7.500000 0.200000 0
7.600000 0.200000 0
7.700000 0.200000 0
7.800000 0.200000 0
7.900000 0.200000 0
8.000000 0.200000 0
8.100000 0.200000 0
8.200000 0.200000 0
8.300000 0.200000 0
8.400000 0.200000 0
8.500000 0.200000 0
8.600000 0.200000 0
8.700000 0.200000 0
8.800000 0.200000 0
8.900000 0.200000 0
9.000000 0.200000 0
9.100000 0.200000 0
9.200000 0.200000 0
9.300000 0.200000 0
9.400000 0.200000 0
9.500000 0.200000 0
9.600000 0.200000 0
9.700000 0.200000 0
9.800000 0.200000 0
0.000000 0.300000 0
0.100000 0.300000 0
0.200000 0.300000 0
0.300000 0.300000 0
0.400000 0.300000 0
0.500000 0.300000 0
0.600000 0.300000 0
0.700000 0.300000 0
0.800000 0.300000 0
0.900000 0.300000 0
1.000000 0.300000 0
1.100000 0.300000 0
1.200000 0.300000 0
1.300000 0.300000 0
1.400000 0.300000 0
1.500000 0.300000 0
1.600000 0.300000 0
1.700000 0.300000 0
1.800000 0.300000 0
1.900000 0.300000 0
2.000000 0.300000 0
2.100000 0.300000 0
2.200000 0.300000 0
2.300000 0.300000 0
2.400000 0.300000 0
2.500000 0.300000 0
2.600000 0.300000 0
2.700000 0.300000 0
2.800000 0.300000 0
2.900000 0.300000 0
3.000000 0.300000 0
3.100000 0.300000 0
3.200000 0.300000 0
3.300000 0.300000 0
3.400000 0.300000 0
3.500000 0.300000 0
3.600000 0.300000 0
3.700000 0.300000 0
3.800000 0.300000 0
3.900000 0.300000 0
4.000000 0.300000 0
4.100000 0.300000 0
4.200000 0.300000 0
4.300000 0.300000 0
4.400000 0.300000 0
4.500000 0.300000 0
4.600000 0.300000 0
4.700000 0.300000 0
4.800000 0.300000 0
4.900000 0.300000 0
5.000000 0.300000 0
5.100000 0.300000 0
5.200000 0.300000 0
5.300000 0.300000 0
5.400000 0.300000 0
5.500000 0.300000 0
5.600000 0.300000 0
5.700000 0.300000 0
5.800000 0.300000 0
5.900000 0.300000 0
6.000000 0.300000 0
6.100000 0.300000 0
6.200000 0.300000 0
6.300000 0.300000 0
6.400000 0.300000 0
6.500000 0.300000 0
6.600000 0.300000 0
6.700000 0.300000 0
6.800000 0.300000 0
6.900000 0.300000 0
7.000000 0.300000 0
7.100000 0.300000 0
7.200000 0.300000 0
7.300000 0.300000 0
7.400000 0.300000 0
7.500000 0.300000 0
7.600000 0.300000 0
7.700000 0.300000 0
7.800000 0.300000 0
7.900000 0.300000 0
8.000000 0.300000 0
8.100000 0.300000 0
8.200000 0.300000 0
8.300000 0.300000 0
8.400000 0.300000 0
8.500000 0.300000 0
8.600000 0.300000 0
8.700000 0.300000 0
8.800000 0.300000 0
8.900000 0.300000 0
9.000000 0.300000 0
9.100000 0.300000 0
9.200000 0.300000 0
9.300000 0.300000 0
9.400000 0.300000 0
9.500000 0.300000 0
9.600000 0.300000 0
9.700000 0.300000 0
9.800000 0.300000 0
0.000000 0.400000 0
0.100000 0.400000 0
0.200000 0.400000 0
0.300000 0.400000 0
0.400000 0.400000 0
0.500000 0.400000 0
0.600000 0.400000 0
0.700000 0.400000 0
0.800000 0.400000 0
0.900000 0.400000 0
1.000000 0.400000 0
1.100000 0.400000 0
1.200000 0.400000 0
1.300000 0.400000 0
1.400000 0.400000 0
1.500000 0.400000 0
1.600000 0.400000 0
1.700000 0.400000 0
1.800000 0.400000 0
1.900000 0.400000 0
2.000000 0.400000 0
2.100000 0.400000 0
2.200000 0.400000 0
2.300000 0.400000 0
2.400000 0.400000 0
2.500000 0.400000 0
2.600000 0.400000 0
2.700000 0.400000 0
2.800000 0.400000 0
2.900000 0.400000 0
3.000000 0.400000 0
3.100000 0.400000 0
3.200000 0.400000 0
3.300000 0.400000 0
3.400000 0.400000 0
3.500000 0.400000 0
3.600000 0.400000 0
3.700000 0.400000 0
3.800000 0.400000 0
3.900000 0.400000 0
4.000000 0.400000 0
4.100000 0.400000 0
4.200000 0.400000 0
4.300000 0.400000 0
4.400000 0.400000 0
4.500000 0.400000 0
4.600000 0.400000 0
4.700000 0.400000 0
4.800000 0.400000 0
4.900000 0.400000 0
5.000000 0.400000 0
5.100000 0.400000 0
5.200000 0.400000 0
5.300000 0.400000 0
5.400000 0.400000 0
5.500000 0.400000 0
5.600000 0.400000 0
5.700000 0.400000 0
5.800000 0.400000 0
5.900000 0.400000 0
6.000000 0.400000 0
6.100000 0.400000 0
6.200000 0.400000 0
6.300000 0.400000 0
6.400000 0.400000 0
6.500000 0.400000 0
6.600000 0.400000 0
6.700000 0.400000 0
6.800000 0.400000 0
6.900000 0.400000 0
7.000000 0.400000 0
7.100000 0.400000 0
7.200000 0.400000 0
7.300000 0.400000 0
7.400000 0.400000 0
7.500000 0.400000 0
7.600000 0.400000 0
7.700000 0.400000 0
7.800000 0.400000 0
7.900000 0.400000 0
8.000000 0.400000 0
8.100000 0.400000 0
8.200000 0.400000 0
8.300000 0.400000 0
8.400000 0.400000 0
8.500000 0.400000 0
8.600000 0.400000 0
8.700000 0.400000 0
8.800000 0.400000 0
8.900000 0.400000 0
9.000000 0.400000 0
9.100000 0.400000 0
9.200000 0.400000 0
9.300000 0.400000 0
9.400000 0.400000 0
[...]
POINT_DATA 1881 

VECTORS velocity float
0.000000 0.000000 0
0.000000 0.000000 0
0.000000 0.000000 0
0.000000 0.000000 0
0.000000 0.000000 0
0.000000 0.000000 0
0.000000 0.000000 0
0.000000 0.000000 0
0.000000 0.000000 0
0.000000 0.000000 0
0.000000 0.000000 0
-0.000490 0.000000 0
-0.002923 0.000000 0
-0.006337 0.000000 0
-0.010031 0.000000 0
-0.013745 0.000000 0
-0.017450 0.000000 0
-0.021190 0.000000 0
-0.025004 0.000000 0
-0.028889 0.000000 0
-0.032789 0.000000 0
-0.036586 0.000000 0
-0.040114 0.000000 0
-0.043166 0.000000 0
-0.045535 0.000000 0
-0.047052 0.000000 0
-0.047614 0.000000 0
-0.047221 0.000000 0
-0.045883 0.000000 0
-0.043661 0.000000 0
-0.040636 0.000000 0
-0.036942 0.000000 0
-0.032739 0.000000 0
-0.028183 0.000000 0
-0.023377 0.000000 0
-0.018407 0.000000 0
-0.013411 0.000000 0
-0.008500 0.000000 0
-0.003692 0.000000 0
0.000917 0.000000 0
0.005250 0.000000 0
0.009271 0.000000 0
0.012973 0.000000 0
0.016352 0.000000 0
0.019415 0.000000 0
0.022169 0.000000 0
0.024628 0.000000 0
0.026806 0.000000 0
0.028722 0.000000 0
0.030396 0.000000 0
0.031848 0.000000 0
0.033099 0.000000 0
0.034169 0.000000 0
0.035077 0.000000 0
0.035842 0.000000 0
0.036482 0.000000 0
0.037014 0.000000 0
0.037451 0.000000 0
0.037807 0.000000 0
0.038095 0.000000 0
0.038326 0.000000 0
0.038509 0.000000 0
0.038652 0.000000 0
0.038763 0.000000 0
0.038849 0.000000 0
0.038914 0.000000 0
0.038964 0.000000 0
0.039002 0.000000 0
0.039032 0.000000 0
0.039056 0.000000 0
0.039077 0.000000 0
0.039096 0.000000 0
0.039114 0.000000 0
0.039134 0.000000 0
0.039155 0.000000 0
0.039178 0.000000 0
0.039204 0.000000 0
0.039233 0.000000 0
0.039265 0.000000 0
0.039299 0.000000 0
0.039336 0.000000 0
0.039376 0.000000 0
0.039419 0.000000 0
0.039463 0.000000 0
0.039509 0.000000 0
0.039557 0.000000 0
0.039606 0.000000 0
0.039656 0.000000 0
0.039707 0.000000 0
0.039758 0.000000 0
0.039809 0.000000 0
0.039860 0.000000 0
0.039911 0.000000 0
0.039961 0.000000 0
0.040011 0.000000 0
0.040060 0.000000 0
0.040108 0.000000 0
0.040153 0.000000 0
0.040197 0.000000 0
0.000000 0.000000 0
0.000000 0.000000 0
0.000000 0.000000 0
0.000000 0.000000 0
0.000000 0.000000 0
0.000000 0.000000 0
0.000000 0.000000 0
0.000000 0.000000 0
0.000000 0.000000 0
0.000000 0.000000 0
0.000000 0.000493 0
-0.003589 0.002926 0
-0.012707 0.005847 0
-0.024286 0.007107 0
-0.036450 0.007408 0
-0.048467 0.007419 0
-0.060200 0.007446 0
-0.071707 0.007555 0
-0.083028 0.007698 0
-0.094089 0.007783 0
-0.104670 0.007696 0
-0.114403 0.007325 0
-0.122817 0.006581 0
-0.129364 0.005422 0
-0.133532 0.003886 0
-0.134942 0.002078 0
-0.133401 0.000169 0
-0.129042 -0.001731 0
-0.122171 -0.003560 0
-0.113116 -0.005247 0
-0.102150 -0.006719 0
-0.089657 -0.007897 0
-0.076037 -0.008759 0
-0.061682 -0.009362 0
-0.046850 -0.009777 0
-0.031753 -0.009966 0
-0.016675 -0.009907 0
-0.001857 -0.009718 0
0.012423 -0.009418 0
0.026039 -0.008943 0
0.038893 -0.008354 0
0.050919 -0.007722 0
0.062083 -0.007081 0
0.072372 -0.006443 0
0.081787 -0.005817 0
0.090346 -0.005212 0
0.098074 -0.004637 0
0.105007 -0.004095 0
0.111189 -0.003590 0
0.116665 -0.003126 0
0.121487 -0.002703 0
0.125707 -0.002320 0
0.129376 -0.001978 0
0.132548 -0.001674 0
0.135272 -0.001406 0
0.137597 -0.001171 0
0.139568 -0.000968 0
0.141229 -0.000794 0
0.142618 -0.000645 0
0.143774 -0.000519 0
0.144728 -0.000413 0
0.145510 -0.000326 0
0.146148 -0.000255 0
0.146666 -0.000197 0
0.147084 -0.000151 0
0.147420 -0.000115 0
0.147691 -0.000088 0
0.147910 -0.000068 0
0.148089 -0.000054 0
0.148238 -0.000045 0
0.148365 -0.000040 0
0.148477 -0.000038 0
0.148580 -0.000038 0
0.148678 -0.000041 0
0.148775 -0.000044 0
0.148874 -0.000049 0
0.148976 -0.000055 0
0.149084 -0.000060 0
0.149197 -0.000066 0
0.149317 -0.000072 0
0.149444 -0.000077 0
0.149577 -0.000082 0
0.149717 -0.000087 0
0.149863 -0.000091 0
0.150014 -0.000094 0
0.150169 -0.000097 0
0.150328 -0.000099 0
0.150490 -0.000101 0
0.150655 -0.000102 0
0.150820 -0.000102 0
0.150987 -0.000102 0
0.151153 -0.000102 0
0.151319 -0.000101 0
0.151484 -0.000100 0
0.151647 -0.000099 0
0.151808 -0.000096 0
0.151966 -0.000093 0
0.152119 -0.000089 0
0.152265 -0.000087 0
0.000000 0.000000 0
0.000000 0.000000 0
0.000000 0.000000 0
0.000000 0.000000 0
0.000000 0.000000 0
0.000000 0.000000 0
0.000000 0.000000 0
0.000000 0.000000 0
0.000000 0.000000 0
0.000000 0.000000 0
0.000000 0.003593 0
-0.008441 0.012709 0
-0.024837 0.020693 0
-0.043795 0.023740 0
-0.062774 0.024180 0
-0.080855 0.023751 0
-0.097848 0.023241 0
-0.113791 0.022827 0
-0.128682 0.022380 0
-0.142346 0.021640 0
-0.154430 0.020314 0
-0.164376 0.018147 0
-0.171566 0.014962 0
-0.175291 0.010715 0
-0.174937 0.005577 0
-0.170157 -0.000131 0
-0.161408 -0.005900 0
-0.149227 -0.011231 0
-0.134259 -0.015926 0
-0.117064 -0.020021 0
-0.097998 -0.023459 0
-0.077557 -0.026113 0
-0.056149 -0.027975 0
-0.034131 -0.029187 0
-0.011909 -0.029929 0
0.010127 -0.030175 0
0.031783 -0.029896 0
0.052869 -0.029098 0
0.073116 -0.027896 0
0.092420 -0.026470 0
0.110718 -0.024880 0
0.127949 -0.023191 0
0.144064 -0.021453 0
0.159038 -0.019704 0
0.172870 -0.017974 0
0.185571 -0.016286 0
0.197168 -0.014662 0
0.207699 -0.013115 0
0.217210 -0.011658 0
0.225752 -0.010299 0
0.233384 -0.009042 0
0.240167 -0.007889 0
0.246162 -0.006841 0
0.251432 -0.005896 0
0.256041 -0.005049 0
0.260050 -0.004296 0
0.263519 -0.003632 0
0.266504 -0.003050 0
0.269059 -0.002545 0
0.271234 -0.002109 0
0.273077 -0.001737 0
0.274631 -0.001421 0
0.275935 -0.001156 0
0.277025 -0.000935 0
0.277934 -0.000754 0
0.278690 -0.000607 0
0.279319 -0.000490 0
0.279843 -0.000398 0
0.280282 -0.000328 0
0.280653 -0.000276 0
0.280971 -0.000239 0
0.281248 -0.000215 0
0.281494 -0.000201 0
0.281719 -0.000195 0
0.281930 -0.000196 0
0.282132 -0.000201 0
0.282330 -0.000210 0
0.282527 -0.000221 0
0.282728 -0.000233 0
0.282932 -0.000247 0
0.283142 -0.000260 0
0.283359 -0.000273 0
0.283582 -0.000285 0
0.283812 -0.000296 0
0.284049 -0.000306 0
0.284290 -0.000315 0
0.284537 -0.000321 0
0.284788 -0.000326 0
0.285042 -0.000330 0
0.285299 -0.000332 0
0.285556 -0.000333 0
0.285814 -0.000332 0
0.286072 -0.000331 0
0.286328 -0.000328 0
0.286583 -0.000324 0
0.286836 -0.000319 0
0.287086 -0.000310 0
0.287333 -0.000299 0
0.287574 -0.000292 0
0.000000 0.000000 0
0.000000 0.000000 0
0.000000 0.000000 0
0.000000 0.000000 0
0.000000 0.000000 0
0.000000 0.000000 0
0.000000 0.000000 0
0.000000 0.000000 0
0.000000 0.000000 0
0.000000 0.000000 0
0.000000 0.008934 0
-0.012076 0.027759 0
-0.032745 0.041196 0
-0.054582 0.045043 0
-0.074911 0.044468 0
-0.093027 0.042494 0
-0.108893 0.040381 0
-0.122637 0.038387 0
-0.134293 0.036252 0
-0.143637 0.033530 0
-0.150303 0.029726 0
-0.153582 0.024462 0
-0.152866 0.017496 0
-0.147406 0.008793 0
-0.137052 -0.001248 0
-0.122792 -0.011452 0
-0.105501 -0.020762 0
-0.085818 -0.028880 0
-0.064296 -0.035723 0
-0.041331 -0.041507 0
-0.017570 -0.046225 0
0.006675 -0.049747 0
0.031158 -0.052186 0
0.055666 -0.053602 0
0.079884 -0.054035 0
0.103503 -0.053658 0
0.126387 -0.052648 0
0.148423 -0.051052 0
0.169592 -0.048969 0
0.189791 -0.046544 0
0.208950 -0.043882 0
0.227021 -0.041068 0
0.243970 -0.038170 0
0.259784 -0.035249 0
0.274464 -0.032349 0
0.288024 -0.029511 0
0.300492 -0.026765 0
0.311902 -0.024136 0
0.322296 -0.021644 0
0.331721 -0.019301 0
0.340230 -0.017117 0
0.347877 -0.015097 0
0.354718 -0.013243 0
0.360811 -0.011553 0
0.366212 -0.010024 0
0.370980 -0.008649 0
0.375169 -0.007422 0
0.378833 -0.006333 0
0.382023 -0.005375 0
0.384789 -0.004537 0
0.387177 -0.003810 0
0.389230 -0.003184 0
0.390989 -0.002649 0
0.392491 -0.002196 0
0.393769 -0.001816 0
0.394855 -0.001500 0
0.395777 -0.001241 0
0.396560 -0.001031 0
0.397226 -0.000864 0
0.397795 -0.000734 0
0.398285 -0.000634 0
0.398710 -0.000561 0
0.399085 -0.000510 0
0.399419 -0.000476 0
0.399722 -0.000457 0
0.400003 -0.000449 0
0.400269 -0.000451 0
0.400524 -0.000458 0
0.400772 -0.000471 0
0.401018 -0.000487 0
0.401264 -0.000504 0
0.401511 -0.000522 0
0.401762 -0.000540 0
0.402016 -0.000557 0
0.402274 -0.000572 0
0.402537 -0.000586 0
0.402803 -0.000597 0
0.403073 -0.000606 0
0.403345 -0.000612 0
0.403620 -0.000616 0
0.403896 -0.000618 0
0.404172 -0.000618 0
0.404449 -0.000615 0
0.404724 -0.000612 0
0.405000 -0.000606 0
0.405274 -0.000599 0
0.405549 -0.000590 0
0.405825 -0.000577 0
0.406106 -0.000570 0
0.000000 0.000000 0
0.000000 0.000000 0
0.000000 0.000000 0
0.000000 0.000000 0
0.000000 0.000000 0
0.000000 0.000000 0
0.000000 0.000000 0
0.000000 0.000000 0
0.000000 0.000000 0
0.000000 0.000000 0
0.000000 0.015667 0
-0.014195 0.045451 0
-0.035418 0.063197 0
-0.055182 0.065906 0
-0.071418 0.062626 0
-0.084014 0.057733 0
-0.093223 0.052851 0
-0.099331 0.048228 0
-0.102471 0.043380 0
-0.102285 0.037649 0
-0.098497 0.030258 0
-0.090128 0.020711 0
-0.076242 0.008787 0
-0.057907 -0.005098 0
-0.036746 -0.019037 0
-0.014093 -0.031683 0
0.009635 -0.042875 0
0.034134 -0.052436 0
0.059169 -0.060412 0
0.084503 -0.066746 0
0.109676 -0.071466 0
0.134523 -0.074841 0
0.158895 -0.076966 0
0.182654 -0.077913 0
0.205709 -0.077766 0
0.228007 -0.076677 0
0.249435 -0.074816 0
0.269917 -0.072304 0
0.289439 -0.069264 0
0.307963 -0.065827 0
0.325461 -0.062109 0
0.341913 -0.058211 0
0.357313 -0.054216 0
0.371665 -0.050198 0
0.384983 -0.046214 0
0.397293 -0.042315 0
0.408624 -0.038539 0
0.419015 -0.034918 0
0.428506 -0.031477 0
0.437143 -0.028233 0
0.444973 -0.025197 0
0.452045 -0.022377 0
0.458408 -0.019775 0
0.464110 -0.017390 0
0.469202 -0.015218 0
0.473732 -0.013252 0
0.477744 -0.011485 0
0.481286 -0.009905 0
0.484400 -0.008502 0
0.487127 -0.007263 0
0.489506 -0.006178 0
0.491574 -0.005233 0
0.493365 -0.004416 0
0.494911 -0.003715 0
0.496241 -0.003118 0
0.497383 -0.002615 0
0.498362 -0.002195 0
0.499199 -0.001847 0
0.499916 -0.001563 0
0.500530 -0.001335 0
0.501057 -0.001155 0
0.501513 -0.001015 0
0.501909 -0.000909 0
0.502258 -0.000833 0
0.502567 -0.000780 0
0.502846 -0.000747 0
0.503102 -0.000730 0
0.503341 -0.000724 0
0.503567 -0.000728 0
0.503785 -0.000738 0
0.503997 -0.000753 0
0.504207 -0.000771 0
0.504416 -0.000790 0
0.504625 -0.000809 0
0.504836 -0.000827 0
0.505049 -0.000843 0
0.505264 -0.000857 0
0.505482 -0.000869 0
0.505701 -0.000877 0
0.505923 -0.000883 0
0.506146 -0.000885 0
0.506369 -0.000885 0
0.506594 -0.000883 0
0.506818 -0.000879 0
0.507043 -0.000874 0
0.507268 -0.000868 0
0.507497 -0.000862 0
0.507731 -0.000856 0
0.507978 -0.000853 0
0.000000 0.000000 0
0.000000 0.000000 0
0.000000 0.000000 0
0.000000 0.000000 0
0.000000 0.000000 0
0.000000 0.000000 0
0.000000 0.000000 0
0.000000 0.000000 0
0.000000 0.000000 0
0.000000 0.000000 0
0.000000 0.023127 0
-0.015393 0.063177 0
-0.032790 0.082184 0
-0.044666 0.081045 0
-0.050987 0.073302 0
-0.052714 0.064299 0
-0.050337 0.055700 0
-0.044122 0.047636 0
-0.034122 0.039206 0
-0.019785 0.029556 0
-0.000280 0.017569 0
0.023703 0.002208 0
0.050645 -0.014722 0
0.078762 -0.030701 0
0.106663 -0.045064 0
0.134150 -0.057834 0
0.161080 -0.068989 0
0.187367 -0.078414 0
0.212993 -0.086091 0
0.237820 -0.092013 0
0.261911 -0.096246 0
0.285172 -0.098967 0
0.307524 -0.100316 0
0.328916 -0.100415 0
0.349330 -0.099388 0
0.368771 -0.097384 0
0.387220 -0.094558 0
0.404665 -0.091056 0
0.421111 -0.087015 0
0.436566 -0.082567 0
0.451036 -0.077832 0
0.464535 -0.072920 0
0.477079 -0.067922 0
0.488694 -0.062919 0
0.499408 -0.057977 0
0.509255 -0.053152 0
0.518273 -0.048487 0
0.526503 -0.044018 0
0.533987 -0.039772 0
0.540770 -0.035768 0
0.546897 -0.032019 0
0.552411 -0.028532 0
0.557357 -0.025309 0
0.561778 -0.022348 0
0.565715 -0.019645 0
0.569208 -0.017191 0
0.572296 -0.014976 0
0.575015 -0.012989 0
0.577399 -0.011216 0
0.579482 -0.009643 0
0.581294 -0.008257 0
0.582862 -0.007043 0
0.584215 -0.005986 0
0.585375 -0.005072 0
0.586366 -0.004288 0
0.587209 -0.003621 0
0.587921 -0.003057 0
0.588522 -0.002585 0
0.589025 -0.002195 0
0.589445 -0.001875 0
0.589794 -0.001617 0
0.590085 -0.001413 0
0.590326 -0.001254 0
0.590527 -0.001134 0
0.590695 -0.001046 0
0.590837 -0.000985 0
0.590959 -0.000945 0
0.591065 -0.000923 0
0.591160 -0.000915 0
0.591248 -0.000917 0
0.591331 -0.000926 0
0.591412 -0.000940 0
0.591492 -0.000958 0
0.591572 -0.000977 0
0.591655 -0.000996 0
0.591740 -0.001014 0
0.591828 -0.001030 0
0.591919 -0.001043 0
0.592014 -0.001053 0
0.592111 -0.001061 0
0.592211 -0.001065 0
0.592314 -0.001066 0
0.592419 -0.001064 0
0.592525 -0.001061 0
0.592633 -0.001057 0
0.592744 -0.001053 0
0.592858 -0.001053 0
0.592980 -0.001058 0
0.593115 -0.001062 0
0.000000 0.000000 0
0.000000 0.000000 0
0.000000 0.000000 0
0.000000 0.000000 0
0.000000 0.000000 0
0.000000 0.000000 0
0.000000 0.000000 0
0.000000 0.000000 0
0.000000 0.000000 0
0.000000 0.000000 0
0.000000 0.031061 0
-0.015485 0.078243 0
-0.021846 0.092472 0
-0.017460 0.084104 0
-0.006409 0.070676 0
0.008882 0.057084 0
0.028052 0.044260 0
0.051529 0.032014 0
0.079785 0.019043 0
0.111725 0.003805 0
0.146200 -0.013230 0
0.181318 -0.030212 0
0.214956 -0.046269 0
0.246755 -0.061116 0
0.276873 -0.074428 0
0.305408 -0.086102 0
0.332365 -0.096091 0
0.357786 -0.104348 0
0.381746 -0.110864 0
0.404297 -0.115663 0
0.425553 -0.118818 0
0.445568 -0.120456 0
0.464377 -0.120710 0
0.482016 -0.119718 0
0.498527 -0.117621 0
0.513958 -0.114568 0
0.528349 -0.110710 0
0.541739 -0.106195 0
0.554166 -0.101165 0
0.565668 -0.095752 0
0.576280 -0.090078 0
0.586039 -0.084254 0
0.594983 -0.078376 0
0.603148 -0.072526 0
0.610576 -0.066775 0
0.617305 -0.061179 0
0.623378 -0.055787 0
0.628837 -0.050633 0
0.633725 -0.045745 0
0.638082 -0.041143 0
0.641949 -0.036838 0
0.645366 -0.032837 0
0.648371 -0.029142 0
0.651000 -0.025748 0
0.653287 -0.022648 0
0.655266 -0.019833 0
0.656966 -0.017291 0
0.658416 -0.015008 0
0.659643 -0.012969 0
0.660671 -0.011158 0
0.661522 -0.009558 0
0.662218 -0.008154 0
0.662777 -0.006929 0
0.663216 -0.005867 0
0.663551 -0.004952 0
0.663796 -0.004170 0
0.663964 -0.003508 0
0.664065 -0.002950 0
0.664111 -0.002487 0
0.664109 -0.002105 0
0.664069 -0.001795 0
0.663998 -0.001546 0
0.663901 -0.001351 0
0.663784 -0.001202 0
0.663653 -0.001091 0
0.663512 -0.001011 0
0.663363 -0.000958 0
0.663211 -0.000926 0
0.663058 -0.000911 0
0.662905 -0.000909 0
0.662756 -0.000917 0
0.662611 -0.000932 0
0.662471 -0.000951 0
0.662338 -0.000972 0
0.662212 -0.000995 0
0.662092 -0.001016 0
0.661981 -0.001037 0
0.661877 -0.001054 0
0.661780 -0.001069 0
0.661690 -0.001080 0
0.661607 -0.001088 0
0.661530 -0.001093 0
0.661459 -0.001094 0
0.661394 -0.001094 0
0.661332 -0.001092 0
0.661275 -0.001093 0
0.661223 -0.001098 0
0.661176 -0.001113 0
0.661138 -0.001123 0
0.000000 0.000000 0
0.000000 0.000000 0
0.000000 0.000000 0
0.000000 0.000000 0
0.000000 0.000000 0
0.000000 0.000000 0
0.000000 0.000000 0
0.000000 0.000000 0
0.000000 0.000000 0
0.000000 0.000000 0
0.000000 0.038615 0
-0.005824 0.085026 0
0.015462 0.084159 0
0.047966 0.065608 0
0.084904 0.046961 0
0.124621 0.029840 0
0.165888 0.013055 0
0.208120 -0.004097 0
0.250847 -0.020992 0
0.292948 -0.036862 0
0.332735 -0.052024 0
0.369557 -0.066545 0
0.403513 -0.080156 0
0.434660 -0.092619 0
0.463200 -0.103720 0
0.489345 -0.113328 0
0.513268 -0.121366 0
0.535128 -0.127792 0
0.555089 -0.132601 0
0.573305 -0.135821 0
0.589935 -0.137518 0
0.605116 -0.137793 0
0.618960 -0.136764 0
0.631567 -0.134564 0
0.643031 -0.131330 0
0.653438 -0.127207 0
0.662868 -0.122340 0
0.671392 -0.116873 0
0.679076 -0.110943 0
0.685979 -0.104680 0
0.692156 -0.098204 0
0.697658 -0.091623 0
0.702536 -0.085031 0
0.706833 -0.078512 0
0.710595 -0.072134 0
0.713863 -0.065954 0
0.716678 -0.060019 0
0.719079 -0.054365 0
0.721105 -0.049016 0
0.722789 -0.043992 0
0.724167 -0.039303 0
0.725270 -0.034954 0
0.726126 -0.030943 0
0.726765 -0.027265 0
0.727212 -0.023911 0
0.727490 -0.020870 0
0.727621 -0.018127 0
0.727624 -0.015666 0
0.727518 -0.013470 0
0.727319 -0.011523 0
0.727042 -0.009804 0
0.726699 -0.008297 0
0.726301 -0.006984 0
0.725860 -0.005847 0
0.725384 -0.004868 0
0.724880 -0.004033 0
0.724355 -0.003326 0
0.723816 -0.002732 0
0.723267 -0.002239 0
0.722712 -0.001834 0
0.722155 -0.001506 0
0.721600 -0.001245 0
0.721050 -0.001041 0
0.720506 -0.000886 0
0.719972 -0.000773 0
0.719449 -0.000695 0
0.718938 -0.000644 0
0.718441 -0.000618 0
0.717958 -0.000609 0
0.717489 -0.000615 0
0.717036 -0.000632 0
0.716600 -0.000656 0
0.716179 -0.000685 0
0.715774 -0.000717 0
0.715386 -0.000750 0
0.715014 -0.000783 0
0.714657 -0.000814 0
0.714316 -0.000842 0
0.713989 -0.000867 0
0.713676 -0.000888 0
0.713377 -0.000905 0
0.713090 -0.000918 0
0.712815 -0.000927 0
0.712551 -0.000934 0
0.712295 -0.000938 0
0.712046 -0.000944 0
0.711803 -0.000954 0
0.711562 -0.000973 0
0.711323 -0.000986 0
0.000000 0.000000 0
0.000000 0.000000 0
0.000000 0.000000 0
0.000000 0.000000 0
0.000000 0.000000 0
0.000000 0.000000 0
0.000000 0.000000 0
0.000000 0.000000 0
0.000000 0.000000 0
0.000000 0.000000 0
0.000000 0.036889 0
0.068933 0.062783 0
0.143286 0.038678 0
0.210685 0.014661 0
0.271491 -0.005978 0
0.327490 -0.023896 0
0.379389 -0.039235 0
0.427153 -0.052946 0
0.470416 -0.065790 0
0.509702 -0.078086 0
0.545396 -0.089836 0
0.577594 -0.100984 0
0.606470 -0.111369 0
0.632219 -0.120806 0
0.655082 -0.129118 0
0.675309 -0.136171 0
0.693133 -0.141871 0
0.708771 -0.146166 0
0.722432 -0.149040 0
0.734313 -0.150511 0
0.744605 -0.150632 0
0.753479 -0.149480 0
0.761084 -0.147160 0
0.767554 -0.143788 0
0.773013 -0.139492 0
0.777571 -0.134406 0
0.781329 -0.128665 0
0.784377 -0.122403 0
0.786795 -0.115751 0
0.788656 -0.108831 0
0.790023 -0.101758 0
0.790956 -0.094634 0
0.791508 -0.087551 0
0.791725 -0.080585 0
0.791651 -0.073804 0
0.791323 -0.067263 0
0.790778 -0.061003 0
0.790048 -0.055060 0
0.789161 -0.049455 0
0.788144 -0.044205 0
0.787020 -0.039318 0
0.785808 -0.034797 0
0.784530 -0.030638 0
0.783199 -0.026833 0
0.781832 -0.023373 0
0.780440 -0.020242 0
0.779034 -0.017426 0
0.777626 -0.014906 0
0.776221 -0.012664 0
0.774828 -0.010681 0
0.773451 -0.008937 0
0.772097 -0.007413 0
0.770767 -0.006090 0
0.769466 -0.004949 0
0.768194 -0.003972 0
0.766953 -0.003142 0
0.765743 -0.002444 0
0.764566 -0.001862 0
0.763421 -0.001382 0
0.762309 -0.000993 0
0.761230 -0.000683 0
0.760185 -0.000441 0
0.759173 -0.000258 0
0.758194 -0.000124 0
0.757248 -0.000033 0
0.756336 0.000023 0
0.755455 0.000050 0
0.754607 0.000054 0
0.753789 0.000040 0
0.753003 0.000012 0
0.752247 -0.000027 0
0.751521 -0.000074 0
0.750823 -0.000126 0
0.750154 -0.000179 0
0.749512 -0.000234 0
0.748896 -0.000287 0
0.748305 -0.000338 0
0.747739 -0.000386 0
0.747197 -0.000430 0
0.746676 -0.000468 0
0.746177 -0.000502 0
0.745698 -0.000531 0
0.745237 -0.000554 0
0.744793 -0.000573 0
0.744363 -0.000588 0
0.743944 -0.000601 0
0.743532 -0.000615 0
0.743120 -0.000633 0
0.742701 -0.000644 0
0.500000 0.000000 0
0.463540 0.000000 0
0.420705 0.000000 0
0.380585 0.000000 0
0.346034 0.000000 0
0.317825 0.000000 0
0.296044 0.000000 0
0.280778 0.000000 0
0.273030 0.000000 0
0.277263 0.000000 0
0.296286 -0.026528 0
0.375079 -0.054475 0
0.446042 -0.057600 0
0.507397 -0.062600 0
0.560422 -0.069841 0
0.606156 -0.078051 0
0.646244 -0.086604 0
0.681827 -0.095128 0
0.713580 -0.103550 0
0.741813 -0.111845 0
0.766787 -0.119910 0
0.788674 -0.127611 0
0.807639 -0.134780 0
0.823864 -0.141237 0
0.837551 -0.146816 0
0.848912 -0.151379 0
0.858151 -0.154823 0
0.865469 -0.157087 0
0.871064 -0.158144 0
0.875129 -0.157998 0
0.877845 -0.156685 0
0.879382 -0.154270 0
0.879895 -0.150838 0
0.879522 -0.146492 0
0.878394 -0.141347 0
0.876629 -0.135524 0
0.874335 -0.129146 0
0.871607 -0.122338 0
0.868530 -0.115221 0
0.865180 -0.107908 0
0.861624 -0.100505 0
0.857921 -0.093108 0
0.854122 -0.085800 0
0.850270 -0.078654 0
0.846402 -0.071732 0
0.842551 -0.065082 0
0.838742 -0.058744 0
0.834997 -0.052748 0
0.831333 -0.047112 0
0.827764 -0.041850 0
0.824300 -0.036968 0
0.820949 -0.032464 0
0.817715 -0.028333 0
0.814603 -0.024567 0
0.811613 -0.021152 0
0.808745 -0.018073 0
0.805999 -0.015312 0
0.803371 -0.012852 0
0.800860 -0.010672 0
0.798461 -0.008753 0
0.796171 -0.007073 0
0.793982 -0.005613 0
0.791892 -0.004353 0
0.789893 -0.003273 0
0.787978 -0.002355 0
0.786141 -0.001582 0