# vtk DataFile Version 2.0
generated by CFD-lab course output (written by Tobias Neckel) 
ASCII

DATASET STRUCTURED_GRID
DIMENSIONS  99 19 1 
POINTS 1881 float

0.000000 0.000000 0
0.100000 0.000000 0
0.200000 0.000000 0
0.300000 0.000000 0
0.400000 0.000000 0
0.500000 0.000000 0
0.600000 0.000000 0
0.700000 0.000000 0
0.800000 0.000000 0
0.900000 0.000000 0
1.000000 0.000000 0
1.100000 0.000000 0
1.200000 0.000000 0
1.300000 0.000000 0
1.400000 0.000000 0
1.500000 0.000000 0
1.600000 0.000000 0
1.700000 0.000000 0
1.800000 0.000000 0
1.900000 0.000000 0
2.000000 0.000000 0
2.100000 0.000000 0
2.200000 0.000000 0
2.300000 0.000000 0
2.400000 0.000000 0
2.500000 0.000000 0
2.600000 0.000000 0
2.700000 0.000000 0
2.800000 0.000000 0
2.900000 0.000000 0
3.000000 0.000000 0
3.100000 0.000000 0
3.200000 0.000000 0
3.300000 0.000000 0
3.400000 0.000000 0
3.500000 0.000000 0
3.600000 0.000000 0
3.700000 0.000000 0
3.800000 0.000000 0
3.900000 0.000000 0
4.000000 0.000000 0
4.100000 0.000000 0
4.200000 0.000000 0
4.300000 0.000000 0
4.400000 0.000000 0
4.500000 0.000000 0
4.600000 0.000000 0
4.700000 0.000000 0
4.800000 0.000000 0
4.900000 0.000000 0
5.000000 0.000000 0
5.100000 0.000000 0
5.200000 0.000000 0
5.300000 0.000000 0
5.400000 0.000000 0
5.500000 0.000000 0
5.600000 0.000000 0
5.700000 0.000000 0
5.800000 0.000000 0
5.900000 0.000000 0
6.000000 0.000000 0
6.100000 0.000000 0
6.200000 0.000000 0
6.300000 0.000000 0
6.400000 0.000000 0
6.500000 0.000000 0
6.600000 0.000000 0
6.700000 0.000000 0
6.800000 0.000000 0
6.900000 0.000000 0
7.000000 0.000000 0
7.100000 0.000000 0
7.200000 0.000000 0
7.300000 0.000000 0
7.400000 0.000000 0
7.500000 0.000000 0
7.600000 0.000000 0
7.700000 0.000000 0
7.800000 0.000000 0
7.900000 0.000000 0
8.000000 0.000000 0
8.100000 0.000000 0
8.200000 0.000000 0
8.300000 0.000000 0
8.400000 0.000000 0
8.500000 0.000000 0
8.600000 0.000000 0
8.700000 0.000000 0
8.800000 0.000000 0
8.900000 0.000000 0
9.000000 0.000000 0
9.100000 0.000000 0
9.200000 0.000000 0
9.300000 0.000000 0
9.400000 0.000000 0
9.500000 0.000000 0
9.600000 0.000000 0
9.700000 0.000000 0
9.800000 0.000000 0
0.000000 0.100000 0
0.100000 0.100000 0
0.200000 0.100000 0
0.300000 0.100000 0
0.400000 0.100000 0
0.500000 0.100000 0
0.600000 0.100000 0
0.700000 0.100000 0
0.800000 0.100000 0
0.900000 0.100000 0
1.000000 0.100000 0
1.100000 0.100000 0
1.200000 0.100000 0
1.300000 0.100000 0
1.400000 0.100000 0
1.500000 0.100000 0
1.600000 0.100000 0
1.700000 0.100000 0
1.800000 0.100000 0
1.900000 0.100000 0
2.000000 0.100000 0
2.100000 0.100000 0
2.200000 0.100000 0
2.300000 0.100000 0
2.400000 0.100000 0
2.500000 0.100000 0
2.600000 0.100000 0
2.700000 0.100000 0
2.800000 0.100000 0
2.900000 0.100000 0
3.000000 0.100000 0
3.100000 0.100000 0
3.200000 0.100000 0
3.300000 0.100000 0
3.400000 0.100000 0
3.500000 0.100000 0
3.600000 0.100000 0
3.700000 0.100000 0
3.800000 0.100000 0
3.900000 0.100000 0
4.000000 0.100000 0
4.100000 0.100000 0
4.200000 0.100000 0
4.300000 0.100000 0
4.400000 0.100000 0
4.500000 0.100000 0
4.600000 0.100000 0
4.700000 0.100000 0
4.800000 0.100000 0
4.900000 0.100000 0
5.000000 0.100000 0
5.100000 0.100000 0
5.200000 0.100000 0
5.300000 0.100000 0
5.400000 0.100000 0
5.500000 0.100000 0
5.600000 0.100000 0
5.700000 0.100000 0
5.800000 0.100000 0
5.900000 0.100000 0
6.000000 0.100000 0
6.100000 0.100000 0
6.200000 0.100000 0
6.300000 0.100000 0
6.400000 0.100000 0
6.500000 0.100000 0
6.600000 0.100000 0
6.700000 0.100000 0
6.800000 0.100000 0
6.900000 0.100000 0
7.000000 0.100000 0
7.100000 0.100000 0
7.200000 0.100000 0
7.300000 0.100000 0
7.400000 0.100000 0
7.500000 0.100000 0
7.600000 0.100000 0
7.700000 0.100000 0
7.800000 0.100000 0
7.900000 0.100000 0
8.000000 0.100000 0
8.100000 0.100000 0
8.200000 0.100000 0
8.300000 0.100000 0
8.400000 0.100000 0
8.500000 0.100000 0
8.600000 0.100000 0
8.700000 0.100000 0
8.800000 0.100000 0
8.900000 0.100000 0
9.000000 0.100000 0
9.100000 0.100000 0
9.200000 0.100000 0
9.300000 0.100000 0
9.400000 0.100000 0
9.500000 0.100000 0
9.600000 0.100000 0
9.700000 0.100000 0
9.800000 0.100000 0
0.000000 0.200000 0
0.100000 0.200000 0
0.200000 0.200000 0
0.300000 0.200000 0
0.400000 0.200000 0
0.500000 0.200000 0
0.600000 0.200000 0
0.700000 0.200000 0
0.800000 0.200000 0
0.900000 0.200000 0
1.000000 0.200000 0
1.100000 0.200000 0
1.200000 0.200000 0
1.300000 0.200000 0
1.400000 0.200000 0
1.500000 0.200000 0
1.600000 0.200000 0
1.700000 0.200000 0
1.800000 0.200000 0
1.900000 0.200000 0
2.000000 0.200000 0
2.100000 0.200000 0
2.200000 0.200000 0
2.300000 0.200000 0
2.400000 0.200000 0
2.500000 0.200000 0
2.600000 0.200000 0
2.700000 0.200000 0
2.800000 0.200000 0
2.900000 0.200000 0
3.000000 0.200000 0
3.100000 0.200000 0
3.200000 0.200000 0
3.300000 0.200000 0
3.400000 0.200000 0
3.500000 0.200000 0
3.600000 0.200000 0
3.700000 0.200000 0
3.800000 0.200000 0
3.900000 0.200000 0
4.000000 0.200000 0
4.100000 0.200000 0
4.200000 0.200000 0
4.300000 0.200000 0
4.400000 0.200000 0
4.500000 0.200000 0
4.600000 0.200000 0
4.700000 0.200000 0
4.800000 0.200000 0
4.900000 0.200000 0
5.000000 0.200000 0
5.100000 0.200000 0
5.200000 0.200000 0
5.300000 0.200000 0
5.400000 0.200000 0
5.500000 0.200000 0
5.600000 0.200000 0
5.700000 0.200000 0
5.800000 0.200000 0
5.900000 0.200000 0
6.000000 0.200000 0
6.100000 0.200000 0
6.200000 0.200000 0
6.300000 0.200000 0
6.400000 0.200000 0
6.500000 0.200000 0
6.600000 0.200000 0
6.700000 0.200000 0
6.800000 0.200000 0
6.900000 0.200000 0
7.000000 0.200000 0
7.100000 0.200000 0
7.200000 0.200000 0
7.300000 0.200000 0
7.400000 0.200000 0
7.500000 0.200000 0
7.600000 0.200000 0
7.700000 0.200000 0
7.800000 0.200000 0
7.900000 0.200000 0
8.000000 0.200000 0
8.100000 0.200000 0
8.200000 0.200000 0
8.300000 0.200000 0
8.400000 0.200000 0
8.500000 0.200000 0
8.600000 0.200000 0
8.700000 0.200000 0
8.800000 0.200000 0
8.900000 0.200000 0
9.000000 0.200000 0
9.100000 0.200000 0
9.200000 0.200000 0
9.300000 0.200000 0
9.400000 0.200000 0
9.500000 0.200000 0
9.600000 0.200000 0
9.700000 0.200000 0
9.800000 0.200000 0
0.000000 0.300000 0
0.100000 0.300000 0
0.200000 0.300000 0
0.300000 0.300000 0
0.400000 0.300000 0
0.500000 0.300000 0
0.600000 0.300000 0
0.700000 0.300000 0
0.800000 0.300000 0
0.900000 0.300000 0
1.000000 0.300000 0
1.100000 0.300000 0
1.200000 0.300000 0
1.300000 0.300000 0
1.400000 0.300000 0
1.500000 0.300000 0
1.600000 0.300000 0
1.700000 0.300000 0
1.800000 0.300000 0
1.900000 0.300000 0
2.000000 0.300000 0
2.100000 0.300000 0
2.200000 0.300000 0
2.300000 0.300000 0
2.400000 0.300000 0
2.500000 0.300000 0
2.600000 0.300000 0
2.700000 0.300000 0
2.800000 0.300000 0
2.900000 0.300000 0
3.000000 0.300000 0
3.100000 0.300000 0
3.200000 0.300000 0
3.300000 0.300000 0
3.400000 0.300000 0
3.500000 0.300000 0
3.600000 0.300000 0
3.700000 0.300000 0
3.800000 0.300000 0
3.900000 0.300000 0
4.000000 0.300000 0
4.100000 0.300000 0
4.200000 0.300000 0
4.300000 0.300000 0
4.400000 0.300000 0
4.500000 0.300000 0
4.600000 0.300000 0
4.700000 0.300000 0
4.800000 0.300000 0
4.900000 0.300000 0
5.000000 0.300000 0
5.100000 0.300000 0
5.200000 0.300000 0
5.300000 0.300000 0
5.400000 0.300000 0
5.500000 0.300000 0
5.600000 0.300000 0
5.700000 0.300000 0
5.800000 0.300000 0
5.900000 0.300000 0
6.000000 0.300000 0
6.100000 0.300000 0
6.200000 0.300000 0
6.300000 0.300000 0
6.400000 0.300000 0
6.500000 0.300000 0
6.600000 0.300000 0
6.700000 0.300000 0
6.800000 0.300000 0
6.900000 0.300000 0
7.000000 0.300000 0
7.100000 0.300000 0
7.200000 0.300000 0
7.300000 0.300000 0
7.400000 0.300000 0
7.500000 0.300000 0
7.600000 0.300000 0
7.700000 0.300000 0
7.800000 0.300000 0
7.900000 0.300000 0
8.000000 0.300000 0
8.100000 0.300000 0
8.200000 0.300000 0
8.300000 0.300000 0
8.400000 0.300000 0
8.500000 0.300000 0
8.600000 0.300000 0
8.700000 0.300000 0
8.800000 0.300000 0
8.900000 0.300000 0
9.000000 0.300000 0
9.100000 0.300000 0
9.200000 0.300000 0
9.300000 0.300000 0
9.400000 0.300000 0
9.500000 0.300000 0
9.600000 0.300000 0
9.700000 0.300000 0
9.800000 0.300000 0
0.000000 0.400000 0
0.100000 0.400000 0
0.200000 0.400000 0
0.300000 0.400000 0
0.400000 0.400000 0
0.500000 0.400000 0
0.600000 0.400000 0
0.700000 0.400000 0
0.800000 0.400000 0
0.900000 0.400000 0
1.000000 0.400000 0
1.100000 0.400000 0
1.200000 0.400000 0
1.300000 0.400000 0
1.400000 0.400000 0
1.500000 0.400000 0
1.600000 0.400000 0
1.700000 0.400000 0
1.800000 0.400000 0
1.900000 0.400000 0
2.000000 0.400000 0
2.100000 0.400000 0
2.200000 0.400000 0
2.300000 0.400000 0
2.400000 0.400000 0
2.500000 0.400000 0
2.600000 0.400000 0
2.700000 0.400000 0
2.800000 0.400000 0
2.900000 0.400000 0
3.000000 0.400000 0
3.100000 0.400000 0
3.200000 0.400000 0
3.300000 0.400000 0
3.400000 0.400000 0
3.500000 0.400000 0
3.600000 0.400000 0
3.700000 0.400000 0
3.800000 0.400000 0
3.900000 0.400000 0
4.000000 0.400000 0
4.100000 0.400000 0
4.200000 0.400000 0
4.300000 0.400000 0
4.400000 0.400000 0
4.500000 0.400000 0
4.600000 0.400000 0
4.700000 0.400000 0
4.800000 0.400000 0
4.900000 0.400000 0
5.000000 0.400000 0
5.100000 0.400000 0
5.200000 0.400000 0
5.300000 0.400000 0
5.400000 0.400000 0
5.500000 0.400000 0
5.600000 0.400000 0
5.700000 0.400000 0
5.800000 0.400000 0
5.900000 0.400000 0
6.000000 0.400000 0
6.100000 0.400000 0
6.200000 0.400000 0
6.300000 0.400000 0
6.400000 0.400000 0
6.500000 0.400000 0
6.600000 0.400000 0
6.700000 0.400000 0
6.800000 0.400000 0
6.900000 0.400000 0
7.000000 0.400000 0
7.100000 0.400000 0
7.200000 0.400000 0
7.300000 0.400000 0
7.400000 0.400000 0
7.500000 0.400000 0
7.600000 0.400000 0
7.700000 0.400000 0
7.800000 0.400000 0
7.900000 0.400000 0
8.000000 0.400000 0
8.100000 0.400000 0
8.200000 0.400000 0
8.300000 0.400000 0
8.400000 0.400000 0
8.500000 0.400000 0
8.600000 0.400000 0
8.700000 0.400000 0
8.800000 0.400000 0
8.900000 0.400000 0
9.000000 0.400000 0
9.100000 0.400000 0
9.200000 0.400000 0
9.300000 0.400000 0
9.400000 0.400000 0
[...]
POINT_DATA 1881 

VECTORS velocity float
0.000000 0.000000 0
0.000000 0.000000 0
0.000000 0.000000 0
0.000000 0.000000 0
0.000000 0.000000 0
0.000000 0.000000 0
0.000000 0.000000 0
0.000000 0.000000 0
0.000000 0.000000 0
0.000000 0.000000 0
0.000000 0.000000 0
-0.000495 0.000000 0
-0.002928 0.000000 0
-0.006339 0.000000 0
-0.010032 0.000000 0
-0.013747 0.000000 0
-0.017457 0.000000 0
-0.021205 0.000000 0
-0.025028 0.000000 0
-0.028923 0.000000 0
-0.032833 0.000000 0
-0.036643 0.000000 0
-0.040185 0.000000 0
-0.043250 0.000000 0
-0.045630 0.000000 0
-0.047154 0.000000 0
-0.047718 0.000000 0
-0.047321 0.000000 0
-0.045974 0.000000 0
-0.043737 0.000000 0
-0.040693 0.000000 0
-0.036976 0.000000 0
-0.032748 0.000000 0
-0.028167 0.000000 0
-0.023330 0.000000 0
-0.018331 0.000000 0
-0.013308 0.000000 0
-0.008368 0.000000 0
-0.003533 0.000000 0
0.001102 0.000000 0
0.005456 0.000000 0
0.009497 0.000000 0
0.013216 0.000000 0
0.016613 0.000000 0
0.019690 0.000000 0
0.022457 0.000000 0
0.024927 0.000000 0
0.027116 0.000000 0
0.029041 0.000000 0
0.030723 0.000000 0
0.032182 0.000000 0
0.033439 0.000000 0
0.034514 0.000000 0
0.035427 0.000000 0
0.036196 0.000000 0
0.036841 0.000000 0
0.037376 0.000000 0
0.037816 0.000000 0
0.038176 0.000000 0
0.038468 0.000000 0
0.038702 0.000000 0
0.038888 0.000000 0
0.039034 0.000000 0
0.039149 0.000000 0
0.039238 0.000000 0
0.039307 0.000000 0
0.039361 0.000000 0
0.039403 0.000000 0
0.039436 0.000000 0
0.039464 0.000000 0
0.039489 0.000000 0
0.039512 0.000000 0
0.039535 0.000000 0
0.039559 0.000000 0
0.039584 0.000000 0
0.039612 0.000000 0
0.039642 0.000000 0
0.039675 0.000000 0
0.039711 0.000000 0
0.039750 0.000000 0
0.039791 0.000000 0
0.039835 0.000000 0
0.039881 0.000000 0
0.039929 0.000000 0
0.039978 0.000000 0
0.040029 0.000000 0
0.040081 0.000000 0
0.040134 0.000000 0
0.040187 0.000000 0
0.040240 0.000000 0
0.040294 0.000000 0
0.040346 0.000000 0
0.040399 0.000000 0
0.040450 0.000000 0
0.040501 0.000000 0
0.040551 0.000000 0
0.040598 0.000000 0
0.040644 0.000000 0
0.040686 0.000000 0
0.000000 0.000000 0
0.000000 0.000000 0
0.000000 0.000000 0
0.000000 0.000000 0
0.000000 0.000000 0
0.000000 0.000000 0
0.000000 0.000000 0
0.000000 0.000000 0
0.000000 0.000000 0
0.000000 0.000000 0
0.000000 0.000489 0
-0.003600 0.002920 0
-0.012717 0.005844 0
-0.024294 0.007110 0
-0.036459 0.007416 0
-0.048485 0.007430 0
-0.060233 0.007458 0
-0.071761 0.007568 0
-0.083107 0.007714 0
-0.094193 0.007804 0
-0.104802 0.007721 0
-0.114566 0.007354 0
-0.123008 0.006610 0
-0.129580 0.005446 0
-0.133763 0.003902 0
-0.135174 0.002085 0
-0.133619 0.000166 0
-0.129230 -0.001744 0
-0.122316 -0.003584 0
-0.113207 -0.005280 0
-0.102176 -0.006760 0
-0.089612 -0.007944 0
-0.075918 -0.008810 0
-0.061485 -0.009418 0
-0.046569 -0.009835 0
-0.031386 -0.010023 0
-0.016225 -0.009963 0
-0.001330 -0.009774 0
0.013023 -0.009469 0
0.026709 -0.008989 0
0.039627 -0.008395 0
0.051715 -0.007760 0
0.062936 -0.007115 0
0.073277 -0.006473 0
0.082741 -0.005844 0
0.091344 -0.005237 0
0.099113 -0.004658 0
0.106084 -0.004114 0
0.112300 -0.003607 0
0.117809 -0.003141 0
0.122660 -0.002716 0
0.126907 -0.002332 0
0.130601 -0.001988 0
0.133796 -0.001683 0
0.136542 -0.001414 0
0.138887 -0.001179 0
0.140878 -0.000975 0
0.142558 -0.000801 0
0.143966 -0.000651 0
0.145140 -0.000525 0
0.146111 -0.000420 0
0.146911 -0.000333 0
0.147567 -0.000261 0
0.148102 -0.000204 0
0.148537 -0.000158 0
0.148891 -0.000122 0
0.149179 -0.000095 0
0.149416 -0.000076 0
0.149613 -0.000062 0
0.149780 -0.000053 0
0.149925 -0.000048 0
0.150056 -0.000046 0
0.150177 -0.000047 0
0.150293 -0.000049 0
0.150408 -0.000053 0
0.150525 -0.000058 0
0.150645 -0.000063 0
0.150769 -0.000069 0
0.150900 -0.000074 0
0.151036 -0.000080 0
0.151179 -0.000085 0
0.151328 -0.000090 0
0.151483 -0.000094 0
0.151642 -0.000098 0
0.151806 -0.000101 0
0.151974 -0.000103 0
0.152145 -0.000105 0
0.152318 -0.000106 0
0.152492 -0.000106 0
0.152666 -0.000107 0
0.152840 -0.000106 0
0.153013 -0.000105 0
0.153185 -0.000104 0
0.153354 -0.000102 0
0.153520 -0.000100 0
0.153683 -0.000097 0
0.153841 -0.000093 0
0.153992 -0.000088 0
0.154135 -0.000085 0
0.000000 0.000000 0
0.000000 0.000000 0
0.000000 0.000000 0
0.000000 0.000000 0
0.000000 0.000000 0
0.000000 0.000000 0
0.000000 0.000000 0
0.000000 0.000000 0
0.000000 0.000000 0
0.000000 0.000000 0
0.000000 0.003590 0
-0.008452 0.012708 0
-0.024847 0.020699 0
-0.043807 0.023753 0
-0.062795 0.024200 0
-0.080891 0.023777 0
-0.097905 0.023273 0
-0.113872 0.022867 0
-0.128788 0.022428 0
-0.142478 0.021696 0
-0.154588 0.020376 0
-0.164558 0.018210 0
-0.171766 0.015017 0
-0.175498 0.010753 0
-0.175131 0.005591 0
-0.170317 -0.000146 0
-0.161513 -0.005945 0
-0.149265 -0.011301 0
-0.134217 -0.016022 0
-0.116932 -0.020139 0
-0.097769 -0.023594 0
-0.077224 -0.026259 0
-0.055707 -0.028127 0
-0.033576 -0.029350 0
-0.011247 -0.030099 0
0.010897 -0.030343 0
0.032661 -0.030056 0
0.053848 -0.029247 0
0.074193 -0.028038 0
0.093592 -0.026604 0
0.111982 -0.025006 0
0.129301 -0.023308 0
0.145500 -0.021562 0
0.160555 -0.019805 0
0.174462 -0.018067 0
0.187235 -0.016372 0
0.198901 -0.014740 0
0.209497 -0.013187 0
0.219069 -0.011724 0
0.227671 -0.010359 0
0.235359 -0.009098 0
0.242194 -0.007941 0
0.248240 -0.006889 0
0.253559 -0.005941 0
0.258216 -0.005091 0
0.262270 -0.004336 0
0.265783 -0.003671 0
0.268811 -0.003088 0
0.271408 -0.002581 0
0.273625 -0.002145 0
0.275509 -0.001772 0
0.277103 -0.001456 0
0.278447 -0.001190 0
0.279576 -0.000970 0
0.280524 -0.000789 0
0.281319 -0.000642 0
0.281987 -0.000525 0
0.282550 -0.000434 0
0.283028 -0.000364 0
0.283437 -0.000312 0
0.283794 -0.000276 0
0.284109 -0.000252 0
0.284393 -0.000237 0
0.284655 -0.000231 0
0.284903 -0.000232 0
0.285141 -0.000236 0
0.285375 -0.000245 0
0.285608 -0.000255 0
0.285842 -0.000267 0
0.286080 -0.000279 0
0.286323 -0.000292 0
0.286570 -0.000303 0
0.286823 -0.000314 0
0.287081 -0.000324 0
0.287344 -0.000332 0
0.287611 -0.000339 0
0.287881 -0.000343 0
0.288154 -0.000347 0
0.288427 -0.000348 0
0.288701 -0.000348 0
0.288974 -0.000347 0
0.289246 -0.000344 0
0.289515 -0.000340 0
0.289780 -0.000335 0
0.290042 -0.000329 0
0.290299 -0.000321 0
0.290551 -0.000309 0
0.290797 -0.000294 0
0.291036 -0.000285 0
0.000000 0.000000 0
0.000000 0.000000 0
0.000000 0.000000 0
0.000000 0.000000 0
0.000000 0.000000 0
0.000000 0.000000 0
0.000000 0.000000 0
0.000000 0.000000 0
0.000000 0.000000 0
0.000000 0.000000 0
0.000000 0.008934 0
-0.012085 0.027764 0
-0.032754 0.041210 0
-0.054594 0.045066 0
-0.074933 0.044499 0
-0.093062 0.042533 0
-0.108943 0.040430 0
-0.122701 0.038446 0
-0.134369 0.036322 0
-0.143721 0.033608 0
-0.150391 0.029806 0
-0.153666 0.024534 0
-0.152936 0.017547 0
-0.147444 0.008807 0
-0.137035 -0.001281 0
-0.122706 -0.011533 0
-0.105332 -0.020884 0
-0.085560 -0.029038 0
-0.063941 -0.035915 0
-0.040881 -0.041728 0
-0.017020 -0.046469 0
0.007328 -0.050007 0
0.031919 -0.052458 0
0.056535 -0.053878 0
0.080855 -0.054308 0
0.104574 -0.053930 0
0.127556 -0.052913 0
0.149693 -0.051306 0
0.170962 -0.049213 0
0.191257 -0.046778 0
0.210510 -0.044104 0
0.228673 -0.041277 0
0.245712 -0.038369 0
0.261612 -0.035435 0
0.276376 -0.032525 0
0.290018 -0.029676 0
0.302565 -0.026920 0
0.314053 -0.024282 0
0.324522 -0.021781 0
0.334020 -0.019430 0
0.342600 -0.017239 0
0.350317 -0.015213 0
0.357227 -0.013353 0
0.363386 -0.011659 0
0.368854 -0.010125 0
0.373687 -0.008746 0
0.377939 -0.007516 0
0.381666 -0.006425 0
0.384919 -0.005465 0
0.387747 -0.004626 0
0.390196 -0.003898 0
0.392310 -0.003271 0
0.394129 -0.002735 0
0.395690 -0.002282 0
0.397028 -0.001901 0
0.398173 -0.001585 0
0.399154 -0.001326 0
0.399995 -0.001116 0
0.400719 -0.000949 0
0.401346 -0.000819 0
0.401892 -0.000719 0
0.402374 -0.000645 0
0.402804 -0.000593 0
0.403194 -0.000559 0
0.403552 -0.000539 0
0.403886 -0.000530 0
0.404204 -0.000530 0
0.404510 -0.000536 0
0.404808 -0.000547 0
0.405103 -0.000560 0
0.405396 -0.000575 0
0.405688 -0.000590 0
0.405982 -0.000605 0
0.406278 -0.000619 0
0.406576 -0.000630 0
0.406876 -0.000640 0
0.407177 -0.000647 0
0.407479 -0.000652 0
0.407782 -0.000654 0
0.408084 -0.000654 0
0.408385 -0.000651 0
0.408683 -0.000646 0
0.408979 -0.000638 0
0.409271 -0.000630 0
0.409559 -0.000619 0
0.409844 -0.000607 0
0.410126 -0.000591 0
0.410407 -0.000572 0
0.410690 -0.000561 0
0.000000 0.000000 0
0.000000 0.000000 0
0.000000 0.000000 0
0.000000 0.000000 0
0.000000 0.000000 0
0.000000 0.000000 0
0.000000 0.000000 0
0.000000 0.000000 0
0.000000 0.000000 0
0.000000 0.000000 0
0.000000 0.015670 0
-0.014201 0.045462 0
-0.035423 0.063218 0
-0.055189 0.065936 0
-0.071431 0.062663 0
-0.084033 0.057778 0
-0.093246 0.052904 0
-0.099352 0.048291 0
-0.102482 0.043451 0
-0.102279 0.037723 0
-0.098467 0.030325 0
-0.090059 0.020756 0
-0.076116 0.008792 0
-0.057710 -0.005151 0
-0.036473 -0.019149 0
-0.013738 -0.031849 0
0.010073 -0.043089 0
0.034659 -0.052691 0
0.059782 -0.060701 0
0.085201 -0.067061 0
0.110460 -0.071804 0
0.135393 -0.075197 0
0.159852 -0.077334 0
0.183695 -0.078285 0
0.206838 -0.078136 0
0.229223 -0.077044 0
0.250735 -0.075175 0
0.271304 -0.072654 0
0.290911 -0.069602 0
0.309520 -0.066152 0
0.327101 -0.062421 0
0.343636 -0.058509 0
0.359117 -0.054501 0
0.373548 -0.050469 0
0.386945 -0.046473 0
0.399333 -0.042561 0
0.410741 -0.038774 0
0.421207 -0.035143 0
0.430774 -0.031692 0
0.439486 -0.028438 0
0.447390 -0.025395 0
0.454535 -0.022567 0
0.460971 -0.019959 0
0.466747 -0.017568 0
0.471912 -0.015391 0
0.476513 -0.013422 0
0.480599 -0.011650 0
0.484213 -0.010067 0
0.487399 -0.008662 0
0.490198 -0.007422 0
0.492649 -0.006335 0
0.494789 -0.005389 0
0.496652 -0.004571 0
0.498269 -0.003869 0
0.499672 -0.003272 0
0.500885 -0.002768 0
0.501935 -0.002347 0
0.502843 -0.001999 0
0.503630 -0.001715 0
0.504313 -0.001486 0
0.504910 -0.001304 0
0.505434 -0.001163 0
0.505899 -0.001057 0
0.506314 -0.000979 0
0.506689 -0.000924 0
0.507034 -0.000889 0
0.507353 -0.000868 0
0.507654 -0.000860 0
0.507941 -0.000860 0
0.508218 -0.000866 0
0.508488 -0.000877 0
0.508754 -0.000890 0
0.509016 -0.000904 0
0.509277 -0.000917 0
0.509537 -0.000930 0
0.509797 -0.000940 0
0.510057 -0.000947 0
0.510316 -0.000952 0
0.510575 -0.000953 0
0.510833 -0.000951 0
0.511089 -0.000946 0
0.511343 -0.000938 0
0.511595 -0.000928 0
0.511844 -0.000916 0
0.512089 -0.000902 0
0.512333 -0.000888 0
0.512577 -0.000873 0
0.512824 -0.000858 0
0.513080 -0.000850 0
0.000000 0.000000 0
0.000000 0.000000 0
0.000000 0.000000 0
0.000000 0.000000 0
0.000000 0.000000 0
0.000000 0.000000 0
0.000000 0.000000 0
0.000000 0.000000 0
0.000000 0.000000 0
0.000000 0.000000 0
0.000000 0.023131 0
-0.015396 0.063190 0
-0.032789 0.082207 0
-0.044663 0.081074 0
-0.050985 0.073336 0
-0.052710 0.064338 0
-0.050323 0.055743 0
-0.044088 0.047683 0
-0.034057 0.039253 0
-0.019675 0.029598 0
-0.000111 0.017588 0
0.023941 0.002182 0
0.050959 -0.014805 0
0.079154 -0.030839 0
0.107130 -0.045254 0
0.134692 -0.058077 0
0.161691 -0.069279 0
0.188047 -0.078745 0
0.213739 -0.086457 0
0.238632 -0.092407 0
0.262791 -0.096662 0
0.286118 -0.099399 0
0.308536 -0.100759 0
0.329992 -0.100863 0
0.350472 -0.099836 0
0.369979 -0.097827 0
0.388493 -0.094994 0
0.406004 -0.091482 0
0.422516 -0.087429 0
0.438036 -0.082968 0
0.452572 -0.078220 0
0.466136 -0.073293 0
0.478745 -0.068281 0
0.490425 -0.063265 0
0.501203 -0.058309 0
0.511115 -0.053471 0
0.520198 -0.048794 0
0.528493 -0.044315 0
0.536042 -0.040059 0
0.542891 -0.036046 0
0.549083 -0.032289 0
0.554664 -0.028794 0
0.559677 -0.025565 0
0.564165 -0.022599 0
0.568170 -0.019891 0
0.571732 -0.017433 0
0.574889 -0.015216 0
0.577677 -0.013226 0
0.580132 -0.011450 0
0.582286 -0.009876 0
0.584169 -0.008489 0
0.585810 -0.007274 0
0.587234 -0.006216 0
0.588467 -0.005301 0
0.589530 -0.004517 0
0.590445 -0.003848 0
0.591231 -0.003284 0
0.591903 -0.002811 0
0.592478 -0.002420 0
0.592970 -0.002099 0
0.593391 -0.001840 0
0.593753 -0.001634 0
0.594064 -0.001473 0
0.594334 -0.001350 0
0.594571 -0.001259 0
0.594781 -0.001194 0
0.594969 -0.001151 0
0.595141 -0.001124 0
0.595301 -0.001111 0
0.595451 -0.001107 0
0.595595 -0.001110 0
0.595734 -0.001118 0
0.595872 -0.001128 0
0.596008 -0.001140 0
0.596143 -0.001150 0
0.596279 -0.001160 0
0.596416 -0.001166 0
0.596554 -0.001170 0
0.596692 -0.001171 0
0.596830 -0.001168 0
0.596969 -0.001161 0
0.597107 -0.001151 0
0.597245 -0.001139 0
0.597381 -0.001124 0
0.597516 -0.001109 0
0.597652 -0.001094 0
0.597788 -0.001082 0
0.597930 -0.001076 0
0.598084 -0.001073 0
0.000000 0.000000 0
0.000000 0.000000 0
0.000000 0.000000 0
0.000000 0.000000 0
0.000000 0.000000 0
0.000000 0.000000 0
0.000000 0.000000 0
0.000000 0.000000 0
0.000000 0.000000 0
0.000000 0.000000 0
0.000000 0.031065 0
-0.015485 0.078257 0
-0.021837 0.092493 0
-0.017444 0.084129 0
-0.006387 0.070701 0
0.008916 0.057107 0
0.028111 0.044279 0
0.051629 0.032027 0
0.079941 0.019044 0
0.111947 0.003781 0
0.146495 -0.013291 0
0.181684 -0.030317 0
0.215386 -0.046426 0
0.247247 -0.061325 0
0.277429 -0.074687 0
0.306024 -0.086408 0
0.333034 -0.096441 0
0.358504 -0.104737 0
0.382509 -0.111287 0
0.405107 -0.116114 0
0.426408 -0.119291 0
0.446468 -0.120943 0
0.465321 -0.121207 0
0.483001 -0.120220 0
0.499554 -0.118123 0
0.515027 -0.115066 0
0.529461 -0.111201 0
0.542894 -0.106676 0
0.555363 -0.101634 0
0.566908 -0.096208 0
0.577564 -0.090521 0
0.587367 -0.084683 0
0.596354 -0.078791 0
0.604564 -0.072928 0
0.612037 -0.067163 0
0.618812 -0.061555 0
0.624931 -0.056151 0
0.630438 -0.050987 0
0.635373 -0.046090 0
0.639779 -0.041479 0
0.643696 -0.037168 0
0.647164 -0.033161 0
0.650221 -0.029460 0
0.652904 -0.026061 0
0.655246 -0.022958 0
0.657280 -0.020141 0
0.659037 -0.017596 0
0.660545 -0.015311 0
0.661830 -0.013271 0
0.662918 -0.011459 0
0.663829 -0.009858 0
0.664586 -0.008454 0
0.665206 -0.007228 0
0.665708 -0.006165 0
0.666105 -0.005251 0
0.666413 -0.004468 0
0.666644 -0.003805 0
0.666809 -0.003247 0
0.666918 -0.002782 0
0.666980 -0.002399 0
0.667003 -0.002087 0
0.666994 -0.001836 0
0.666960 -0.001639 0
0.666906 -0.001486 0
0.666836 -0.001371 0
0.666755 -0.001287 0
0.666667 -0.001229 0
0.666574 -0.001191 0
0.666478 -0.001170 0
0.666383 -0.001161 0
0.666289 -0.001161 0
0.666198 -0.001167 0
0.666111 -0.001177 0
0.666028 -0.001189 0
0.665951 -0.001201 0
0.665880 -0.001213 0
0.665814 -0.001221 0
0.665754 -0.001227 0
0.665699 -0.001230 0
0.665649 -0.001228 0
0.665603 -0.001223 0
0.665562 -0.001214 0
0.665524 -0.001202 0
0.665489 -0.001188 0
0.665457 -0.001173 0
0.665426 -0.001159 0
0.665399 -0.001151 0
0.665376 -0.001153 0
0.665361 -0.001156 0
0.000000 0.000000 0
0.000000 0.000000 0
0.000000 0.000000 0
0.000000 0.000000 0
0.000000 0.000000 0
0.000000 0.000000 0
0.000000 0.000000 0
0.000000 0.000000 0
0.000000 0.000000 0
0.000000 0.000000 0
0.000000 0.038620 0
-0.005819 0.085037 0
0.015484 0.084171 0
0.048004 0.065618 0
0.084962 0.046965 0
0.124705 0.029833 0
0.166010 0.013030 0
0.208294 -0.004141 0
0.251083 -0.021058 0
0.293250 -0.036953 0
0.333094 -0.052150 0
0.369966 -0.066714 0
0.403971 -0.080372 0
0.435166 -0.092883 0
0.463753 -0.104030 0
0.489941 -0.113680 0
0.513897 -0.121757 0
0.535786 -0.128221 0
0.555772 -0.133061 0
0.574013 -0.136307 0
0.590667 -0.138023 0
0.605869 -0.138311 0
0.619733 -0.137292 0
0.632358 -0.135096 0
0.643840 -0.131862 0
0.654266 -0.127735 0
0.663714 -0.122861 0
0.672256 -0.117384 0
0.679958 -0.111443 0
0.686880 -0.105168 0
0.693076 -0.098679 0
0.698599 -0.092084 0
0.703497 -0.085479 0
0.707815 -0.078947 0
0.711599 -0.072556 0
0.714890 -0.066366 0
0.717730 -0.060420 0
0.720156 -0.054756 0
0.722208 -0.049400 0
0.723921 -0.044369 0
0.725328 -0.039674 0
0.726461 -0.035320 0
0.727350 -0.031304 0
0.728022 -0.027623 0
0.728503 -0.024268 0
0.728817 -0.021225 0
0.728985 -0.018480 0
0.729027 -0.016019 0
0.728961 -0.013823 0
0.728803 -0.011875 0
0.728567 -0.010157 0
0.728267 -0.008651 0
0.727912 -0.007338 0
0.727515 -0.006200 0
0.727083 -0.005222 0
0.726625 -0.004387 0
0.726146 -0.003679 0
0.725653 -0.003085 0
0.725150 -0.002591 0
0.724642 -0.002185 0
0.724132 -0.001855 0
0.723624 -0.001591 0
0.723120 -0.001384 0
0.722623 -0.001226 0
0.722135 -0.001108 0
0.721657 -0.001025 0
0.721191 -0.000969 0
0.720737 -0.000935 0
0.720298 -0.000920 0
0.719873 -0.000917 0
0.719462 -0.000925 0
0.719067 -0.000940 0
0.718687 -0.000959 0
0.718322 -0.000980 0
0.717972 -0.001002 0
0.717637 -0.001022 0
0.717316 -0.001040 0
0.717009 -0.001055 0
0.716716 -0.001066 0
0.716435 -0.001072 0
0.716166 -0.001074 0
0.715908 -0.001072 0
0.715660 -0.001066 0
0.715421 -0.001056 0
0.715190 -0.001046 0
0.714965 -0.001036 0
0.714743 -0.001031 0
0.714525 -0.001038 0
0.714306 -0.001043 0
0.000000 0.000000 0
0.000000 0.000000 0
0.000000 0.000000 0
0.000000 0.000000 0
0.000000 0.000000 0
0.000000 0.000000 0
0.000000 0.000000 0
0.000000 0.000000 0
0.000000 0.000000 0
0.000000 0.000000 0
0.000000 0.036892 0
0.068960 0.062786 0
0.143344 0.038671 0
0.210767 0.014641 0
0.271596 -0.006013 0
0.327624 -0.023947 0
0.379561 -0.039307 0
0.427370 -0.053038 0
0.470683 -0.065905 0
0.510015 -0.078227 0
0.545747 -0.090011 0
0.577976 -0.101199 0
0.606883 -0.111628 0
0.632664 -0.121107 0
0.655557 -0.129459 0
0.675806 -0.136549 0
0.693643 -0.142285 0
0.709289 -0.146613 0
0.722955 -0.149516 0
0.734841 -0.151010 0
0.745136 -0.151147 0
0.754008 -0.150008 0
0.761609 -0.147695 0
0.768075 -0.144327 0
0.773528 -0.140031 0
0.778081 -0.134940 0
0.781833 -0.129191 0
0.784875 -0.122920 0
0.787287 -0.116257 0
0.789141 -0.109326 0
0.790504 -0.102240 0
0.791433 -0.095104 0
0.791980 -0.088007 0
0.792194 -0.081030 0
0.792118 -0.074238 0
0.791790 -0.067686 0
0.791246 -0.061417 0
0.790517 -0.055466 0
0.789633 -0.049854 0
0.788620 -0.044599 0
0.787501 -0.039708 0
0.786298 -0.035183 0
0.785027 -0.031021 0
0.783707 -0.027215 0
0.782351 -0.023753 0
0.780972 -0.020623 0
0.779581 -0.017807 0
0.778188 -0.015287 0
0.776800 -0.013046 0
0.775424 -0.011064 0
0.774066 -0.009322 0
0.772731 -0.007799 0
0.771422 -0.006477 0
0.770142 -0.005336 0
0.768892 -0.004360 0
0.767674 -0.003531 0
0.766488 -0.002833 0
0.765335 -0.002251 0
0.764215 -0.001771 0
0.763128 -0.001381 0
0.762075 -0.001069 0
0.761054 -0.000824 0
0.760068 -0.000638 0
0.759114 -0.000500 0
0.758194 -0.000404 0
0.757306 -0.000343 0
0.756451 -0.000309 0
0.755627 -0.000298 0
0.754834 -0.000305 0
0.754072 -0.000325 0
0.753340 -0.000355 0
0.752637 -0.000392 0
0.751962 -0.000432 0
0.751315 -0.000474 0
0.750694 -0.000516 0
0.750099 -0.000557 0
0.749530 -0.000594 0
0.748983 -0.000627 0
0.748460 -0.000655 0
0.747958 -0.000679 0
0.747477 -0.000696 0
0.747015 -0.000708 0
0.746571 -0.000715 0
0.746142 -0.000717 0
0.745727 -0.000716 0
0.745322 -0.000713 0
0.744924 -0.000711 0
0.744525 -0.000716 0
0.744120 -0.000720 0
0.500000 0.000000 0
0.463535 0.000000 0
0.420679 0.000000 0
0.380566 0.000000 0
0.346036 0.000000 0
0.317848 0.000000 0
0.296070 0.000000 0
0.280792 0.000000 0
0.273033 0.000000 0
0.277271 0.000000 0
0.296317 -0.026541 0
0.375147 -0.054505 0
0.446137 -0.057638 0
0.507509 -0.062648 0
0.560547 -0.069904 0
0.606298 -0.078134 0
0.646413 -0.086709 0
0.682032 -0.095254 0
0.713819 -0.103698 0
0.742078 -0.112018 0
0.767068 -0.120116 0
0.788968 -0.127855 0
0.807948 -0.135062 0
0.824189 -0.141556 0
0.837887 -0.147169 0
0.849248 -0.151764 0
0.858480 -0.155240 0
0.865788 -0.157534 0
0.871371 -0.158615 0
0.875421 -0.158488 0
0.878119 -0.157190 0
0.879634 -0.154784 0
0.880121 -0.151358 0
0.879722 -0.147015 0
0.878567 -0.141868 0
0.876774 -0.136040 0
0.874451 -0.129655 0
0.871693 -0.122838 0
0.868587 -0.115709 0
0.865208 -0.108385 0
0.861624 -0.100970 0
0.857893 -0.093561 0
0.854066 -0.086241 0
0.850187 -0.079084 0
0.846295 -0.072152 0
0.842419 -0.065493 0
0.838587 -0.059147 0
0.834820 -0.053144 0
0.831135 -0.047503 0
0.827547 -0.042237 0
0.824065 -0.037351 0
0.820698 -0.032845 0
0.817449 -0.028714 0
0.814323 -0.024947 0
0.811321 -0.021533 0
0.808442 -0.018455 0
0.805685 -0.015696 0
0.803049 -0.013237 0
0.800530 -0.011060 0
0.798125 -0.009142 0
0.795829 -0.007465 0
0.793636 -0.006006 0
0.791542 -0.004748 0
0.789541 -0.003670 0
0.787626 -0.002754 0
0.785791 -0.001983 0