# vtk DataFile Version 2.0
generated by CFD-lab course output (written by Tobias Neckel) 
ASCII

DATASET STRUCTURED_GRID
DIMENSIONS  99 19 1 
POINTS 1881 float

0.000000 0.000000 0
0.100000 0.000000 0
0.200000 0.000000 0
0.300000 0.000000 0
0.400000 0.000000 0
0.500000 0.000000 0
0.600000 0.000000 0
0.700000 0.000000 0
0.800000 0.000000 0
0.900000 0.000000 0
1.000000 0.000000 0
1.100000 0.000000 0
1.200000 0.000000 0
1.300000 0.000000 0
1.400000 0.000000 0
1.500000 0.000000 0
1.600000 0.000000 0
1.700000 0.000000 0
1.800000 0.000000 0
1.900000 0.000000 0
2.000000 0.000000 0
2.100000 0.000000 0
2.200000 0.000000 0
2.300000 0.000000 0
2.400000 0.000000 0
2.500000 0.000000 0
2.600000 0.000000 0
2.700000 0.000000 0
2.800000 0.000000 0
2.900000 0.000000 0
3.000000 0.000000 0
3.100000 0.000000 0
3.200000 0.000000 0
3.300000 0.000000 0
3.400000 0.000000 0
3.500000 0.000000 0
3.600000 0.000000 0
3.700000 0.000000 0
3.800000 0.000000 0
3.900000 0.000000 0
4.000000 0.000000 0
4.100000 0.000000 0
4.200000 0.000000 0
4.300000 0.000000 0
4.400000 0.000000 0
4.500000 0.000000 0
4.600000 0.000000 0
4.700000 0.000000 0
4.800000 0.000000 0
4.900000 0.000000 0
5.000000 0.000000 0
5.100000 0.000000 0
5.200000 0.000000 0
5.300000 0.000000 0
5.400000 0.000000 0
5.500000 0.000000 0
5.600000 0.000000 0
5.700000 0.000000 0
5.800000 0.000000 0
5.900000 0.000000 0
6.000000 0.000000 0
6.100000 0.000000 0
6.200000 0.000000 0
6.300000 0.000000 0
6.400000 0.000000 0
6.500000 0.000000 0
6.600000 0.000000 0
6.700000 0.000000 0
6.800000 0.000000 0
6.900000 0.000000 0
7.000000 0.000000 0
7.100000 0.000000 0
7.200000 0.000000 0
7.300000 0.000000 0
7.400000 0.000000 0
7.500000 0.000000 0
7.600000 0.000000 0
7.700000 0.000000 0
7.800000 0.000000 0
7.900000 0.000000 0
8.000000 0.000000 0
8.100000 0.000000 0
8.200000 0.000000 0
8.300000 0.000000 0
8.400000 0.000000 0
8.500000 0.000000 0
8.600000 0.000000 0
8.700000 0.000000 0
8.800000 0.000000 0
8.900000 0.000000 0
9.000000 0.000000 0
9.100000 0.000000 0
9.200000 0.000000 0
9.300000 0.000000 0
9.400000 0.000000 0
9.500000 0.000000 0
9.600000 0.000000 0
9.700000 0.000000 0
9.800000 0.000000 0
0.000000 0.100000 0
0.100000 0.100000 0
0.200000 0.100000 0
0.300000 0.100000 0
0.400000 0.100000 0
0.500000 0.100000 0
0.600000 0.100000 0
0.700000 0.100000 0
0.800000 0.100000 0
0.900000 0.100000 0
1.000000 0.100000 0
1.100000 0.100000 0
1.200000 0.100000 0
1.300000 0.100000 0
1.400000 0.100000 0
1.500000 0.100000 0
1.600000 0.100000 0
1.700000 0.100000 0
1.800000 0.100000 0
1.900000 0.100000 0
2.000000 0.100000 0
2.100000 0.100000 0
2.200000 0.100000 0
2.300000 0.100000 0
2.400000 0.100000 0
2.500000 0.100000 0
2.600000 0.100000 0
2.700000 0.100000 0
2.800000 0.100000 0
2.900000 0.100000 0
3.000000 0.100000 0
3.100000 0.100000 0
3.200000 0.100000 0
3.300000 0.100000 0
3.400000 0.100000 0
3.500000 0.100000 0
3.600000 0.100000 0
3.700000 0.100000 0
3.800000 0.100000 0
3.900000 0.100000 0
4.000000 0.100000 0
4.100000 0.100000 0
4.200000 0.100000 0
4.300000 0.100000 0
4.400000 0.100000 0
4.500000 0.100000 0
4.600000 0.100000 0
4.700000 0.100000 0
4.800000 0.100000 0
4.900000 0.100000 0
5.000000 0.100000 0
5.100000 0.100000 0
5.200000 0.100000 0
5.300000 0.100000 0
5.400000 0.100000 0
5.500000 0.100000 0
5.600000 0.100000 0
5.700000 0.100000 0
5.800000 0.100000 0
5.900000 0.100000 0
6.000000 0.100000 0
6.100000 0.100000 0
6.200000 0.100000 0
6.300000 0.100000 0
6.400000 0.100000 0
6.500000 0.100000 0
6.600000 0.100000 0
6.700000 0.100000 0
6.800000 0.100000 0
6.900000 0.100000 0
7.000000 0.100000 0
7.100000 0.100000 0
7.200000 0.100000 0
7.300000 0.100000 0
7.400000 0.100000 0
7.500000 0.100000 0
7.600000 0.100000 0
7.700000 0.100000 0
7.800000 0.100000 0
7.900000 0.100000 0
8.000000 0.100000 0
8.100000 0.100000 0
8.200000 0.100000 0
8.300000 0.100000 0
8.400000 0.100000 0
8.500000 0.100000 0
8.600000 0.100000 0
8.700000 0.100000 0
8.800000 0.100000 0
8.900000 0.100000 0
9.000000 0.100000 0
9.100000 0.100000 0
9.200000 0.100000 0
9.300000 0.100000 0
9.400000 0.100000 0
9.500000 0.100000 0
9.600000 0.100000 0
9.700000 0.100000 0
9.800000 0.100000 0
0.000000 0.200000 0
0.100000 0.200000 0
0.200000 0.200000 0
0.300000 0.200000 0
0.400000 0.200000 0
0.500000 0.200000 0
0.600000 0.200000 0
0.700000 0.200000 0
0.800000 0.200000 0
0.900000 0.200000 0
1.000000 0.200000 0
1.100000 0.200000 0
1.200000 0.200000 0
1.300000 0.200000 0
1.400000 0.200000 0
1.500000 0.200000 0
1.600000 0.200000 0
1.700000 0.200000 0
1.800000 0.200000 0
1.900000 0.200000 0
2.000000 0.200000 0
2.100000 0.200000 0
2.200000 0.200000 0
2.300000 0.200000 0
2.400000 0.200000 0
2.500000 0.200000 0
2.600000 0.200000 0
2.700000 0.200000 0
2.800000 0.200000 0
2.900000 0.200000 0
3.000000 0.200000 0
3.100000 0.200000 0
3.200000 0.200000 0
3.300000 0.200000 0
3.400000 0.200000 0
3.500000 0.200000 0
3.600000 0.200000 0
3.700000 0.200000 0
3.800000 0.200000 0
3.900000 0.200000 0
4.000000 0.200000 0
4.100000 0.200000 0
4.200000 0.200000 0
4.300000 0.200000 0
4.400000 0.200000 0
4.500000 0.200000 0
4.600000 0.200000 0
4.700000 0.200000 0
4.800000 0.200000 0
4.900000 0.200000 0
5.000000 0.200000 0
5.100000 0.200000 0
5.200000 0.200000 0
5.300000 0.200000 0
5.400000 0.200000 0
5.500000 0.200000 0
5.600000 0.200000 0
5.700000 0.200000 0
5.800000 0.200000 0
5.900000 0.200000 0
6.000000 0.200000 0
6.100000 0.200000 0
6.200000 0.200000 0
6.300000 0.200000 0
6.400000 0.200000 0
6.500000 0.200000 0
6.600000 0.200000 0
6.700000 0.200000 0
6.800000 0.200000 0
6.900000 0.200000 0
7.000000 0.200000 0
7.100000 0.200000 0
7.200000 0.200000 0
7.300000 0.200000 0
7.400000 0.200000 0
7.500000 0.200000 0
7.600000 0.200000 0
7.700000 0.200000 0
7.800000 0.200000 0
7.900000 0.200000 0
8.000000 0.200000 0
8.100000 0.200000 0
8.200000 0.200000 0
8.300000 0.200000 0
8.400000 0.200000 0
8.500000 0.200000 0
8.600000 0.200000 0
8.700000 0.200000 0
8.800000 0.200000 0
8.900000 0.200000 0
9.000000 0.200000 0
9.100000 0.200000 0
9.200000 0.200000 0
9.300000 0.200000 0
9.400000 0.200000 0
9.500000 0.200000 0
9.600000 0.200000 0
9.700000 0.200000 0
9.800000 0.200000 0
0.000000 0.300000 0
0.100000 0.300000 0
0.200000 0.300000 0
0.300000 0.300000 0
0.400000 0.300000 0
0.500000 0.300000 0
0.600000 0.300000 0
0.700000 0.300000 0
0.800000 0.300000 0
0.900000 0.300000 0
1.000000 0.300000 0
1.100000 0.300000 0
1.200000 0.300000 0
1.300000 0.300000 0
1.400000 0.300000 0
1.500000 0.300000 0
1.600000 0.300000 0
1.700000 0.300000 0
1.800000 0.300000 0
1.900000 0.300000 0
2.000000 0.300000 0
2.100000 0.300000 0
2.200000 0.300000 0
2.300000 0.300000 0
2.400000 0.300000 0
2.500000 0.300000 0
2.600000 0.300000 0
2.700000 0.300000 0
2.800000 0.300000 0
2.900000 0.300000 0
3.000000 0.300000 0
3.100000 0.300000 0
3.200000 0.300000 0
3.300000 0.300000 0
3.400000 0.300000 0
3.500000 0.300000 0
3.600000 0.300000 0
3.700000 0.300000 0
3.800000 0.300000 0
3.900000 0.300000 0
4.000000 0.300000 0
4.100000 0.300000 0
4.200000 0.300000 0
4.300000 0.300000 0
4.400000 0.300000 0
4.500000 0.300000 0
4.600000 0.300000 0
4.700000 0.300000 0
4.800000 0.300000 0
4.900000 0.300000 0
5.000000 0.300000 0
5.100000 0.300000 0
5.200000 0.300000 0
5.300000 0.300000 0
5.400000 0.300000 0
5.500000 0.300000 0
5.600000 0.300000 0
5.700000 0.300000 0
5.800000 0.300000 0
5.900000 0.300000 0
6.000000 0.300000 0
6.100000 0.300000 0
6.200000 0.300000 0
6.300000 0.300000 0
6.400000 0.300000 0
6.500000 0.300000 0
6.600000 0.300000 0
6.700000 0.300000 0
6.800000 0.300000 0
6.900000 0.300000 0
7.000000 0.300000 0
7.100000 0.300000 0
7.200000 0.300000 0
7.300000 0.300000 0
7.400000 0.300000 0
7.500000 0.300000 0
7.600000 0.300000 0
7.700000 0.300000 0
7.800000 0.300000 0
7.900000 0.300000 0
8.000000 0.300000 0
8.100000 0.300000 0
8.200000 0.300000 0
8.300000 0.300000 0
8.400000 0.300000 0
8.500000 0.300000 0
8.600000 0.300000 0
8.700000 0.300000 0
8.800000 0.300000 0
8.900000 0.300000 0
9.000000 0.300000 0
9.100000 0.300000 0
9.200000 0.300000 0
9.300000 0.300000 0
9.400000 0.300000 0
9.500000 0.300000 0
9.600000 0.300000 0
9.700000 0.300000 0
9.800000 0.300000 0
0.000000 0.400000 0
0.100000 0.400000 0
0.200000 0.400000 0
0.300000 0.400000 0
0.400000 0.400000 0
0.500000 0.400000 0
0.600000 0.400000 0
0.700000 0.400000 0
0.800000 0.400000 0
0.900000 0.400000 0
1.000000 0.400000 0
1.100000 0.400000 0
1.200000 0.400000 0
1.300000 0.400000 0
1.400000 0.400000 0
1.500000 0.400000 0
1.600000 0.400000 0
1.700000 0.400000 0
1.800000 0.400000 0
1.900000 0.400000 0
2.000000 0.400000 0
2.100000 0.400000 0
2.200000 0.400000 0
2.300000 0.400000 0
2.400000 0.400000 0
2.500000 0.400000 0
2.600000 0.400000 0
2.700000 0.400000 0
2.800000 0.400000 0
2.900000 0.400000 0
3.000000 0.400000 0
3.100000 0.400000 0
3.200000 0.400000 0
3.300000 0.400000 0
3.400000 0.400000 0
3.500000 0.400000 0
3.600000 0.400000 0
3.700000 0.400000 0
3.800000 0.400000 0
3.900000 0.400000 0
4.000000 0.400000 0
4.100000 0.400000 0
4.200000 0.400000 0
4.300000 0.400000 0
4.400000 0.400000 0
4.500000 0.400000 0
4.600000 0.400000 0
4.700000 0.400000 0
4.800000 0.400000 0
4.900000 0.400000 0
5.000000 0.400000 0
5.100000 0.400000 0
5.200000 0.400000 0
5.300000 0.400000 0
5.400000 0.400000 0
5.500000 0.400000 0
5.600000 0.400000 0
5.700000 0.400000 0
5.800000 0.400000 0
5.900000 0.400000 0
6.000000 0.400000 0
6.100000 0.400000 0
6.200000 0.400000 0
6.300000 0.400000 0
6.400000 0.400000 0
6.500000 0.400000 0
6.600000 0.400000 0
6.700000 0.400000 0
6.800000 0.400000 0
6.900000 0.400000 0
7.000000 0.400000 0
7.100000 0.400000 0
7.200000 0.400000 0
7.300000 0.400000 0
7.400000 0.400000 0
7.500000 0.400000 0
7.600000 0.400000 0
7.700000 0.400000 0
7.800000 0.400000 0
7.900000 0.400000 0
8.000000 0.400000 0
8.100000 0.400000 0
8.200000 0.400000 0
8.300000 0.400000 0
8.400000 0.400000 0
8.500000 0.400000 0
8.600000 0.400000 0
8.700000 0.400000 0
8.800000 0.400000 0
8.900000 0.400000 0
9.000000 0.400000 0
9.100000 0.400000 0
9.200000 0.400000 0
9.300000 0.400000 0
9.400000 0.400000 0
[...]
POINT_DATA 1881 

VECTORS velocity float
0.000000 0.000000 0
0.000000 0.000000 0
0.000000 0.000000 0
0.000000 0.000000 0
0.000000 0.000000 0
0.000000 0.000000 0
0.000000 0.000000 0
0.000000 0.000000 0
0.000000 0.000000 0
0.000000 0.000000 0
0.000000 0.000000 0
-0.000492 0.000000 0
-0.002925 0.000000 0
-0.006338 0.000000 0
-0.010031 0.000000 0
-0.013744 0.000000 0
-0.017449 0.000000 0
-0.021190 0.000000 0
-0.025005 0.000000 0
-0.028890 0.000000 0
-0.032789 0.000000 0
-0.036586 0.000000 0
-0.040114 0.000000 0
-0.043167 0.000000 0
-0.045536 0.000000 0
-0.047052 0.000000 0
-0.047614 0.000000 0
-0.047221 0.000000 0
-0.045883 0.000000 0
-0.043662 0.000000 0
-0.040637 0.000000 0
-0.036942 0.000000 0
-0.032739 0.000000 0
-0.028183 0.000000 0
-0.023376 0.000000 0
-0.018406 0.000000 0
-0.013410 0.000000 0
-0.008500 0.000000 0
-0.003692 0.000000 0
0.000918 0.000000 0
0.005251 0.000000 0
0.009272 0.000000 0
0.012973 0.000000 0
0.016353 0.000000 0
0.019416 0.000000 0
0.022170 0.000000 0
0.024629 0.000000 0
0.026807 0.000000 0
0.028723 0.000000 0
0.030397 0.000000 0
0.031849 0.000000 0
0.033100 0.000000 0
0.034170 0.000000 0
0.035078 0.000000 0
0.035843 0.000000 0
0.036484 0.000000 0
0.037015 0.000000 0
0.037452 0.000000 0
0.037808 0.000000 0
0.038097 0.000000 0
0.038327 0.000000 0
0.038510 0.000000 0
0.038653 0.000000 0
0.038765 0.000000 0
0.038850 0.000000 0
0.038916 0.000000 0
0.038966 0.000000 0
0.039004 0.000000 0
0.039033 0.000000 0
0.039058 0.000000 0
0.039078 0.000000 0
0.039097 0.000000 0
0.039116 0.000000 0
0.039136 0.000000 0
0.039157 0.000000 0
0.039180 0.000000 0
0.039206 0.000000 0
0.039235 0.000000 0
0.039267 0.000000 0
0.039301 0.000000 0
0.039338 0.000000 0
0.039378 0.000000 0
0.039421 0.000000 0
0.039465 0.000000 0
0.039511 0.000000 0
0.039559 0.000000 0
0.039608 0.000000 0
0.039658 0.000000 0
0.039709 0.000000 0
0.039760 0.000000 0
0.039811 0.000000 0
0.039863 0.000000 0
0.039914 0.000000 0
0.039964 0.000000 0
0.040014 0.000000 0
0.040063 0.000000 0
0.040110 0.000000 0
0.040156 0.000000 0
0.040200 0.000000 0
0.000000 0.000000 0
0.000000 0.000000 0
0.000000 0.000000 0
0.000000 0.000000 0
0.000000 0.000000 0
0.000000 0.000000 0
0.000000 0.000000 0
0.000000 0.000000 0
0.000000 0.000000 0
0.000000 0.000000 0
0.000000 0.000492 0
-0.003594 0.002923 0
-0.012712 0.005844 0
-0.024288 0.007107 0
-0.036448 0.007409 0
-0.048464 0.007421 0
-0.060199 0.007447 0
-0.071708 0.007554 0
-0.083030 0.007698 0
-0.094090 0.007783 0
-0.104670 0.007696 0
-0.114403 0.007326 0
-0.122817 0.006581 0
-0.129365 0.005422 0
-0.133533 0.003885 0
-0.134943 0.002078 0
-0.133402 0.000169 0
-0.129043 -0.001731 0
-0.122171 -0.003560 0
-0.113117 -0.005247 0
-0.102150 -0.006719 0
-0.089657 -0.007897 0
-0.076037 -0.008759 0
-0.061681 -0.009362 0
-0.046849 -0.009777 0
-0.031751 -0.009966 0
-0.016674 -0.009907 0
-0.001855 -0.009719 0
0.012425 -0.009418 0
0.026041 -0.008943 0
0.038895 -0.008354 0
0.050922 -0.007722 0
0.062086 -0.007081 0
0.072375 -0.006443 0
0.081790 -0.005817 0
0.090349 -0.005213 0
0.098077 -0.004637 0
0.105011 -0.004095 0
0.111192 -0.003590 0
0.116669 -0.003126 0
0.121491 -0.002703 0
0.125711 -0.002320 0
0.129380 -0.001978 0
0.132552 -0.001674 0
0.135276 -0.001406 0
0.137601 -0.001171 0
0.139572 -0.000968 0
0.141233 -0.000794 0
0.142623 -0.000645 0
0.143778 -0.000519 0
0.144733 -0.000413 0
0.145515 -0.000326 0
0.146154 -0.000255 0
0.146671 -0.000197 0
0.147089 -0.000151 0
0.147425 -0.000115 0
0.147696 -0.000088 0
0.147915 -0.000068 0
0.148095 -0.000054 0
0.148244 -0.000045 0
0.148371 -0.000040 0
0.148483 -0.000038 0
0.148586 -0.000038 0
0.148685 -0.000041 0
0.148782 -0.000045 0
0.148881 -0.000049 0
0.148983 -0.000055 0
0.149091 -0.000060 0
0.149204 -0.000066 0
0.149324 -0.000072 0
0.149451 -0.000077 0
0.149585 -0.000082 0
0.149725 -0.000087 0
0.149871 -0.000091 0
0.150022 -0.000094 0
0.150177 -0.000097 0
0.150337 -0.000099 0
0.150499 -0.000101 0
0.150664 -0.000102 0
0.150830 -0.000102 0
0.150996 -0.000102 0
0.151163 -0.000102 0
0.151329 -0.000101 0
0.151494 -0.000100 0
0.151658 -0.000099 0
0.151819 -0.000097 0
0.151977 -0.000093 0
0.152130 -0.000089 0
0.152276 -0.000087 0
0.000000 0.000000 0
0.000000 0.000000 0
0.000000 0.000000 0
0.000000 0.000000 0
0.000000 0.000000 0
0.000000 0.000000 0
0.000000 0.000000 0
0.000000 0.000000 0
0.000000 0.000000 0
0.000000 0.000000 0
0.000000 0.003592 0
-0.008446 0.012707 0
-0.024839 0.020693 0
-0.043794 0.023740 0
-0.062772 0.024181 0
-0.080853 0.023753 0
-0.097848 0.023242 0
-0.113793 0.022828 0
-0.128683 0.022380 0
-0.142346 0.021640 0
-0.154429 0.020314 0
-0.164376 0.018148 0
-0.171566 0.014963 0
-0.175292 0.010716 0
-0.174939 0.005577 0
-0.170158 -0.000131 0
-0.161408 -0.005900 0
-0.149227 -0.011231 0
-0.134259 -0.015926 0
-0.117064 -0.020021 0
-0.097998 -0.023460 0
-0.077556 -0.026113 0
-0.056146 -0.027975 0
-0.034129 -0.029188 0
-0.011907 -0.029930 0
0.010130 -0.030176 0
0.031786 -0.029897 0
0.052872 -0.029099 0
0.073120 -0.027896 0
0.092424 -0.026470 0
0.110723 -0.024880 0
0.127953 -0.023191 0
0.144068 -0.021453 0
0.159043 -0.019704 0
0.172875 -0.017974 0
0.185576 -0.016287 0
0.197174 -0.014662 0
0.207705 -0.013115 0
0.217216 -0.011658 0
0.225758 -0.010299 0
0.233391 -0.009042 0
0.240173 -0.007889 0
0.246168 -0.006841 0
0.251439 -0.005896 0
0.256049 -0.005049 0
0.260058 -0.004296 0
0.263527 -0.003632 0
0.266512 -0.003051 0
0.269067 -0.002545 0
0.271242 -0.002110 0
0.273086 -0.001737 0
0.274640 -0.001421 0
0.275944 -0.001156 0
0.277034 -0.000935 0
0.277943 -0.000754 0
0.278699 -0.000607 0
0.279328 -0.000490 0
0.279853 -0.000398 0
0.280292 -0.000328 0
0.280663 -0.000276 0
0.280981 -0.000240 0
0.281259 -0.000215 0
0.281505 -0.000201 0
0.281730 -0.000196 0
0.281941 -0.000196 0
0.282144 -0.000201 0
0.282342 -0.000210 0
0.282540 -0.000221 0
0.282741 -0.000234 0
0.282945 -0.000247 0
0.283156 -0.000261 0
0.283373 -0.000274 0
0.283596 -0.000286 0
0.283827 -0.000297 0
0.284063 -0.000307 0
0.284306 -0.000315 0
0.284553 -0.000322 0
0.284804 -0.000327 0
0.285059 -0.000331 0
0.285315 -0.000333 0
0.285573 -0.000333 0
0.285832 -0.000333 0
0.286090 -0.000331 0
0.286347 -0.000329 0
0.286602 -0.000325 0
0.286856 -0.000319 0
0.287106 -0.000311 0
0.287353 -0.000299 0
0.287595 -0.000292 0
0.000000 0.000000 0
0.000000 0.000000 0
0.000000 0.000000 0
0.000000 0.000000 0
0.000000 0.000000 0
0.000000 0.000000 0
0.000000 0.000000 0
0.000000 0.000000 0
0.000000 0.000000 0
0.000000 0.000000 0
0.000000 0.008933 0
-0.012080 0.027759 0
-0.032746 0.041196 0
-0.054580 0.045045 0
-0.074908 0.044470 0
-0.093026 0.042496 0
-0.108894 0.040383 0
-0.122639 0.038388 0
-0.134295 0.036253 0
-0.143637 0.033531 0
-0.150302 0.029727 0
-0.153581 0.024463 0
-0.152867 0.017497 0
-0.147408 0.008794 0
-0.137053 -0.001249 0
-0.122792 -0.011452 0
-0.105500 -0.020762 0
-0.085817 -0.028880 0
-0.064295 -0.035724 0
-0.041330 -0.041508 0
-0.017568 -0.046226 0
0.006677 -0.049748 0
0.031162 -0.052187 0
0.055670 -0.053603 0
0.079888 -0.054036 0
0.103506 -0.053659 0
0.126391 -0.052649 0
0.148427 -0.051053 0
0.169598 -0.048969 0
0.189797 -0.046545 0
0.208956 -0.043883 0
0.227026 -0.041068 0
0.243976 -0.038171 0
0.259790 -0.035249 0
0.274470 -0.032350 0
0.288031 -0.029511 0
0.300499 -0.026765 0
0.311909 -0.024137 0
0.322303 -0.021644 0
0.331728 -0.019301 0
0.340238 -0.017118 0
0.347885 -0.015098 0
0.354726 -0.013244 0
0.360819 -0.011554 0
0.366221 -0.010024 0
0.370989 -0.008649 0
0.375178 -0.007422 0
0.378842 -0.006334 0
0.382033 -0.005376 0
0.384799 -0.004538 0
0.387188 -0.003811 0
0.389241 -0.003184 0
0.391000 -0.002649 0
0.392502 -0.002196 0
0.393781 -0.001816 0
0.394867 -0.001500 0
0.395789 -0.001241 0
0.396573 -0.001032 0
0.397239 -0.000865 0
0.397809 -0.000734 0
0.398299 -0.000635 0
0.398724 -0.000562 0
0.399099 -0.000510 0
0.399433 -0.000477 0
0.399737 -0.000458 0
0.400019 -0.000450 0
0.400284 -0.000451 0
0.400540 -0.000459 0
0.400789 -0.000472 0
0.401035 -0.000487 0
0.401281 -0.000505 0
0.401529 -0.000523 0
0.401780 -0.000541 0
0.402034 -0.000558 0
0.402293 -0.000573 0
0.402556 -0.000586 0
0.402823 -0.000598 0
0.403093 -0.000607 0
0.403366 -0.000613 0
0.403641 -0.000617 0
0.403918 -0.000619 0
0.404195 -0.000619 0
0.404472 -0.000617 0
0.404748 -0.000613 0
0.405024 -0.000608 0
0.405299 -0.000601 0
0.405574 -0.000591 0
0.405852 -0.000578 0
0.406133 -0.000571 0
0.000000 0.000000 0
0.000000 0.000000 0
0.000000 0.000000 0
0.000000 0.000000 0
0.000000 0.000000 0
0.000000 0.000000 0
0.000000 0.000000 0
0.000000 0.000000 0
0.000000 0.000000 0
0.000000 0.000000 0
0.000000 0.015667 0
-0.014198 0.045451 0
-0.035418 0.063198 0
-0.055179 0.065908 0
-0.071416 0.062629 0
-0.084013 0.057735 0
-0.093224 0.052852 0
-0.099333 0.048228 0
-0.102472 0.043380 0
-0.102284 0.037650 0
-0.098495 0.030259 0
-0.090126 0.020712 0
-0.076242 0.008788 0
-0.057908 -0.005098 0
-0.036746 -0.019038 0
-0.014091 -0.031684 0
0.009637 -0.042875 0
0.034136 -0.052436 0
0.059171 -0.060413 0
0.084505 -0.066747 0
0.109678 -0.071467 0
0.134527 -0.074843 0
0.158899 -0.076968 0
0.182657 -0.077914 0
0.205712 -0.077767 0
0.228011 -0.076678 0
0.249439 -0.074817 0
0.269922 -0.072305 0
0.289444 -0.069265 0
0.307969 -0.065828 0
0.325466 -0.062110 0
0.341919 -0.058212 0
0.357319 -0.054217 0
0.371671 -0.050198 0
0.384990 -0.046215 0
0.397299 -0.042315 0
0.408631 -0.038540 0
0.419022 -0.034919 0
0.428513 -0.031478 0
0.437151 -0.028234 0
0.444981 -0.025198 0
0.452053 -0.022378 0
0.458416 -0.019776 0
0.464119 -0.017391 0
0.469211 -0.015219 0
0.473741 -0.013253 0
0.477754 -0.011485 0
0.481296 -0.009905 0
0.484410 -0.008502 0
0.487137 -0.007264 0
0.489517 -0.006179 0
0.491585 -0.005234 0
0.493376 -0.004417 0
0.494923 -0.003716 0
0.496253 -0.003119 0
0.497396 -0.002616 0
0.498375 -0.002196 0
0.499213 -0.001848 0
0.499930 -0.001564 0
0.500544 -0.001336 0
0.501072 -0.001155 0
0.501528 -0.001016 0
0.501925 -0.000910 0
0.502273 -0.000834 0
0.502583 -0.000781 0
0.502863 -0.000748 0
0.503119 -0.000731 0
0.503358 -0.000725 0
0.503585 -0.000729 0
0.503803 -0.000740 0
0.504016 -0.000755 0
0.504226 -0.000772 0
0.504435 -0.000791 0
0.504645 -0.000810 0
0.504856 -0.000828 0
0.505070 -0.000845 0
0.505285 -0.000859 0
0.505504 -0.000870 0
0.505724 -0.000879 0
0.505946 -0.000884 0
0.506170 -0.000887 0
0.506394 -0.000887 0
0.506619 -0.000885 0
0.506844 -0.000881 0
0.507069 -0.000876 0
0.507295 -0.000870 0
0.507524 -0.000864 0
0.507760 -0.000858 0
0.508007 -0.000855 0
0.000000 0.000000 0
0.000000 0.000000 0
0.000000 0.000000 0
0.000000 0.000000 0
0.000000 0.000000 0
0.000000 0.000000 0
0.000000 0.000000 0
0.000000 0.000000 0
0.000000 0.000000 0
0.000000 0.000000 0
0.000000 0.023127 0
-0.015396 0.063176 0
-0.032790 0.082184 0
-0.044662 0.081045 0
-0.050984 0.073303 0
-0.052713 0.064301 0
-0.050339 0.055701 0
-0.044125 0.047636 0
-0.034123 0.039205 0
-0.019783 0.029556 0
-0.000277 0.017570 0
0.023705 0.002209 0
0.050645 -0.014722 0
0.078761 -0.030702 0
0.106664 -0.045065 0
0.134153 -0.057835 0
0.161083 -0.068990 0
0.187369 -0.078415 0
0.212995 -0.086092 0
0.237822 -0.092015 0
0.261914 -0.096248 0
0.285176 -0.098969 0
0.307528 -0.100318 0
0.328919 -0.100417 0
0.349333 -0.099390 0
0.368775 -0.097385 0
0.387225 -0.094560 0
0.404670 -0.091058 0
0.421116 -0.087016 0
0.436571 -0.082568 0
0.451041 -0.077833 0
0.464540 -0.072921 0
0.477085 -0.067923 0
0.488700 -0.062920 0
0.499414 -0.057978 0
0.509261 -0.053152 0
0.518279 -0.048488 0
0.526509 -0.044019 0
0.533994 -0.039773 0
0.540777 -0.035769 0
0.546904 -0.032020 0
0.552419 -0.028533 0
0.557365 -0.025310 0
0.561786 -0.022349 0
0.565723 -0.019646 0
0.569216 -0.017192 0
0.572304 -0.014977 0
0.575024 -0.012990 0
0.577409 -0.011217 0
0.579492 -0.009644 0
0.581304 -0.008258 0
0.582873 -0.007044 0
0.584225 -0.005987 0
0.585386 -0.005074 0
0.586378 -0.004289 0
0.587220 -0.003622 0
0.587933 -0.003058 0
0.588534 -0.002586 0
0.589037 -0.002196 0
0.589458 -0.001876 0
0.589808 -0.001619 0
0.590099 -0.001414 0
0.590340 -0.001256 0
0.590541 -0.001135 0
0.590710 -0.001047 0
0.590852 -0.000986 0
0.590974 -0.000947 0
0.591081 -0.000925 0
0.591177 -0.000916 0
0.591265 -0.000918 0
0.591349 -0.000928 0
0.591430 -0.000942 0
0.591510 -0.000960 0
0.591591 -0.000979 0
0.591674 -0.000998 0
0.591760 -0.001016 0
0.591848 -0.001032 0
0.591940 -0.001045 0
0.592035 -0.001055 0
0.592133 -0.001063 0
0.592234 -0.001067 0
0.592337 -0.001068 0
0.592442 -0.001066 0
0.592549 -0.001063 0
0.592658 -0.001059 0
0.592769 -0.001056 0
0.592884 -0.001056 0
0.593007 -0.001061 0
0.593143 -0.001065 0
0.000000 0.000000 0
0.000000 0.000000 0
0.000000 0.000000 0
0.000000 0.000000 0
0.000000 0.000000 0
0.000000 0.000000 0
0.000000 0.000000 0
0.000000 0.000000 0
0.000000 0.000000 0
0.000000 0.000000 0
0.000000 0.031060 0
-0.015489 0.078241 0
-0.021844 0.092470 0
-0.017455 0.084104 0
-0.006405 0.070677 0
0.008882 0.057086 0
0.028049 0.044261 0
0.051526 0.032013 0
0.079784 0.019042 0
0.111728 0.003805 0
0.146204 -0.013229 0
0.181320 -0.030210 0
0.214955 -0.046269 0
0.246754 -0.061117 0
0.276875 -0.074430 0
0.305412 -0.086103 0
0.332369 -0.096092 0
0.357788 -0.104349 0
0.381747 -0.110865 0
0.404299 -0.115665 0
0.425556 -0.118820 0
0.445572 -0.120457 0
0.464381 -0.120712 0
0.482019 -0.119720 0
0.498530 -0.117623 0
0.513961 -0.114570 0
0.528354 -0.110711 0
0.541744 -0.106197 0
0.554170 -0.101166 0
0.565672 -0.095753 0
0.576284 -0.090080 0
0.586044 -0.084255 0
0.594987 -0.078377 0
0.603153 -0.072527 0
0.610581 -0.066776 0
0.617310 -0.061180 0
0.623383 -0.055788 0
0.628843 -0.050634 0
0.633730 -0.045746 0
0.638087 -0.041144 0
0.641955 -0.036839 0
0.645372 -0.032839 0
0.648377 -0.029143 0
0.651006 -0.025749 0
0.653294 -0.022649 0
0.655273 -0.019835 0
0.656973 -0.017293 0
0.658424 -0.015010 0
0.659651 -0.012970 0
0.660679 -0.011159 0
0.661531 -0.009560 0
0.662226 -0.008155 0
0.662786 -0.006930 0
0.663225 -0.005868 0
0.663560 -0.004954 0
0.663806 -0.004172 0
0.663973 -0.003509 0
0.664075 -0.002952 0
0.664121 -0.002488 0
0.664120 -0.002106 0
0.664080 -0.001796 0
0.664009 -0.001548 0
0.663912 -0.001353 0
0.663796 -0.001204 0
0.663666 -0.001092 0
0.663524 -0.001013 0
0.663376 -0.000960 0
0.663224 -0.000928 0
0.663071 -0.000913 0
0.662920 -0.000911 0
0.662771 -0.000919 0
0.662626 -0.000934 0
0.662487 -0.000953 0
0.662354 -0.000974 0
0.662228 -0.000997 0
0.662109 -0.001019 0
0.661998 -0.001039 0
0.661894 -0.001057 0
0.661798 -0.001072 0
0.661708 -0.001083 0
0.661626 -0.001091 0
0.661550 -0.001095 0
0.661479 -0.001097 0
0.661414 -0.001097 0
0.661353 -0.001095 0
0.661297 -0.001096 0
0.661245 -0.001102 0
0.661198 -0.001116 0
0.661161 -0.001127 0
0.000000 0.000000 0
0.000000 0.000000 0
0.000000 0.000000 0
0.000000 0.000000 0
0.000000 0.000000 0
0.000000 0.000000 0
0.000000 0.000000 0
0.000000 0.000000 0
0.000000 0.000000 0
0.000000 0.000000 0
0.000000 0.038613 0
-0.005828 0.085022 0
0.015466 0.084156 0
0.047973 0.065607 0
0.084909 0.046962 0
0.124620 0.029842 0
0.165883 0.013055 0
0.208116 -0.004099 0
0.250848 -0.020994 0
0.292954 -0.036862 0
0.332739 -0.052023 0
0.369557 -0.066544 0
0.403511 -0.080157 0
0.434659 -0.092621 0
0.463203 -0.103722 0
0.489350 -0.113329 0
0.513271 -0.121366 0
0.535129 -0.127794 0
0.555090 -0.132603 0
0.573307 -0.135823 0
0.589939 -0.137520 0
0.605120 -0.137794 0
0.618963 -0.136766 0
0.631569 -0.134566 0
0.643033 -0.131332 0
0.653441 -0.127209 0
0.662872 -0.122342 0
0.671396 -0.116874 0
0.679079 -0.110944 0
0.685981 -0.104682 0
0.692158 -0.098206 0
0.697662 -0.091624 0
0.702539 -0.085033 0
0.706836 -0.078513 0
0.710598 -0.072135 0
0.713866 -0.065955 0
0.716681 -0.060021 0
0.719083 -0.054366 0
0.721108 -0.049018 0
0.722793 -0.043994 0
0.724171 -0.039305 0
0.725273 -0.034955 0
0.726131 -0.030944 0
0.726770 -0.027266 0
0.727216 -0.023913 0
0.727494 -0.020871 0
0.727625 -0.018128 0
0.727629 -0.015667 0
0.727523 -0.013472 0
0.727325 -0.011524 0
0.727047 -0.009806 0
0.726704 -0.008299 0
0.726307 -0.006986 0
0.725866 -0.005848 0
0.725390 -0.004870 0
0.724886 -0.004035 0
0.724362 -0.003328 0
0.723823 -0.002734 0
0.723274 -0.002241 0
0.722719 -0.001836 0
0.722163 -0.001508 0
0.721608 -0.001247 0
0.721058 -0.001043 0
0.720515 -0.000888 0
0.719981 -0.000775 0
0.719458 -0.000697 0
0.718947 -0.000647 0
0.718450 -0.000620 0
0.717967 -0.000612 0
0.717499 -0.000617 0
0.717046 -0.000634 0
0.716610 -0.000658 0
0.716189 -0.000688 0
0.715785 -0.000720 0
0.715397 -0.000753 0
0.715025 -0.000786 0
0.714669 -0.000817 0
0.714328 -0.000845 0
0.714001 -0.000870 0
0.713689 -0.000891 0
0.713390 -0.000908 0
0.713104 -0.000921 0
0.712829 -0.000931 0
0.712565 -0.000937 0
0.712309 -0.000942 0
0.712061 -0.000947 0
0.711818 -0.000957 0
0.711578 -0.000977 0
0.711339 -0.000990 0
0.000000 0.000000 0
0.000000 0.000000 0
0.000000 0.000000 0
0.000000 0.000000 0
0.000000 0.000000 0
0.000000 0.000000 0
0.000000 0.000000 0
0.000000 0.000000 0
0.000000 0.000000 0
0.000000 0.000000 0
0.000000 0.036886 0
0.068931 0.062777 0
0.143294 0.038675 0
0.210695 0.014661 0
0.271495 -0.005975 0
0.327486 -0.023894 0
0.379382 -0.039237 0
0.427149 -0.052949 0
0.470420 -0.065792 0
0.509710 -0.078085 0
0.545400 -0.089834 0
0.577592 -0.100984 0
0.606466 -0.111371 0
0.632219 -0.120808 0
0.655087 -0.129120 0
0.675314 -0.136171 0
0.693135 -0.141872 0
0.708771 -0.146168 0
0.722432 -0.149042 0
0.734315 -0.150514 0
0.744609 -0.150633 0
0.753481 -0.149482 0
0.761085 -0.147162 0
0.767555 -0.143790 0
0.773014 -0.139495 0
0.777573 -0.134408 0
0.781331 -0.128666 0
0.784379 -0.122404 0
0.786797 -0.115752 0
0.788657 -0.108833 0
0.790024 -0.101760 0
0.790958 -0.094636 0
0.791510 -0.087552 0
0.791727 -0.080586 0
0.791652 -0.073805 0
0.791325 -0.067264 0
0.790780 -0.061005 0
0.790050 -0.055061 0
0.789163 -0.049456 0
0.788146 -0.044206 0
0.787021 -0.039320 0
0.785810 -0.034798 0
0.784531 -0.030639 0
0.783201 -0.026835 0
0.781833 -0.023374 0
0.780442 -0.020244 0
0.779036 -0.017427 0
0.777628 -0.014908 0
0.776223 -0.012666 0
0.774830 -0.010683 0
0.773454 -0.008939 0
0.772099 -0.007415 0
0.770770 -0.006092 0
0.769468 -0.004951 0
0.768197 -0.003974 0
0.766955 -0.003144 0
0.765746 -0.002446 0
0.764569 -0.001864 0
0.763424 -0.001384 0
0.762312 -0.000995 0
0.761233 -0.000685 0
0.760188 -0.000443 0
0.759176 -0.000260 0
0.758198 -0.000126 0
0.757252 -0.000035 0
0.756340 0.000021 0
0.755459 0.000048 0
0.754611 0.000052 0
0.753794 0.000038 0
0.753008 0.000009 0
0.752252 -0.000030 0
0.751526 -0.000077 0
0.750828 -0.000128 0
0.750159 -0.000182 0
0.749517 -0.000237 0
0.748901 -0.000290 0
0.748311 -0.000341 0
0.747745 -0.000389 0
0.747203 -0.000433 0
0.746683 -0.000472 0
0.746184 -0.000506 0
0.745705 -0.000534 0
0.745244 -0.000558 0
0.744800 -0.000577 0
0.744370 -0.000592 0
0.743952 -0.000605 0
0.743540 -0.000619 0
0.743128 -0.000637 0
0.742709 -0.000648 0
0.500000 0.000000 0
0.463549 0.000000 0
0.420684 0.000000 0
0.380561 0.000000 0
0.346026 0.000000 0
0.317836 0.000000 0
0.296062 0.000000 0
0.280789 0.000000 0
0.273028 0.000000 0
0.277253 0.000000 0
0.296281 -0.026532 0
0.375081 -0.054481 0
0.446054 -0.057602 0
0.507409 -0.062597 0
0.560424 -0.069837 0
0.606148 -0.078051 0
0.646235 -0.086608 0
0.681827 -0.095131 0
0.713588 -0.103550 0
0.741821 -0.111842 0
0.766789 -0.119908 0
0.788669 -0.127613 0
0.807636 -0.134783 0
0.823866 -0.141239 0
0.837557 -0.146817 0
0.848915 -0.151378 0
0.858150 -0.154824 0
0.865467 -0.157090 0
0.871064 -0.158146 0
0.875131 -0.157999 0
0.877848 -0.156686 0
0.879384 -0.154271 0
0.879895 -0.150840 0
0.879522 -0.146494 0
0.878394 -0.141349 0
0.876630 -0.135525 0
0.874336 -0.129148 0
0.871607 -0.122340 0
0.868530 -0.115223 0
0.865179 -0.107910 0
0.861624 -0.100507 0
0.857921 -0.093109 0
0.854122 -0.085801 0
0.850270 -0.078655 0
0.846402 -0.071733 0
0.842551 -0.065083 0
0.838742 -0.058746 0
0.834996 -0.052749 0
0.831332 -0.047113 0
0.827763 -0.041852 0
0.824299 -0.036969 0
0.820948 -0.032465 0
0.817715 -0.028335 0
0.814602 -0.024568 0
0.811612 -0.021153 0
0.808744 -0.018074 0
0.805998 -0.015314 0
0.803370 -0.012854 0
0.800859 -0.010674 0
0.798460 -0.008755 0
0.796170 -0.007075 0
0.793981 -0.005615 0
0.791891 -0.004355 0
0.789892 -0.003275 0
0.787977 -0.002357 0
0.786140 -0.001584 0