/*--------------------------------*- C++ -*----------------------------------*\
| =========                 |                                                 |
| \\      /  F ield         | OpenFOAM: The Open Source CFD Toolbox           |
|  \\    /   O peration     | Version:  5.x                                   |
|   \\  /    A nd           | Web:      www.OpenFOAM.org                      |
|    \\/     M anipulation  |                                                 |
\*---------------------------------------------------------------------------*/
FoamFile
{
    version     2.0;
    format      ascii;
    class       volScalarField;
    location    "15";
    object      T;
}
// * * * * * * * * * * * * * * * * * * * * * * * * * * * * * * * * * * * * * //

dimensions      [0 0 0 1 0 0 0];

internalField   nonuniform List<scalar> 
6300
(
10.0062
10.0201
10.038
10.0626
10.0965
10.1421
10.2015
10.2766
10.369
10.4796
10.6089
10.7567
10.9223
11.104
11.2998
10.0049
10.016
10.0312
10.0533
10.0848
10.1282
10.1857
10.2594
10.3507
10.4608
10.5903
10.739
10.906
11.0899
11.2883
10.0021
10.0077
10.0176
10.0345
10.0612
10.1002
10.1539
10.2244
10.3136
10.4227
10.5524
10.7028
10.8729
11.0611
11.265
9.99793
9.99526
9.99699
10.006
10.0252
10.0574
10.1051
10.1708
10.2565
10.3639
10.4939
10.6467
10.8216
11.0167
11.2291
9.99228
9.97838
9.96904
9.96734
9.97632
9.99899
10.0383
10.097
10.1777
10.2824
10.4125
10.5686
10.75
10.9548
11.1795
9.98511
9.9569
9.93345
9.91796
9.91369
9.92394
9.95205
10.0013
10.0748
10.1754
10.3051
10.4651
10.655
10.8728
11.1143
9.97635
9.93067
9.88989
9.85734
9.83651
9.83101
9.84463
9.88128
9.94489
10.0392
10.1674
10.3316
10.5322
10.767
11.031
9.96597
9.89954
9.83807
9.785
9.74398
9.71894
9.71415
9.73426
9.7842
9.86906
9.99363
10.1617
10.375
10.6319
10.9262
9.95394
9.86344
9.77784
9.70058
9.63544
9.58659
9.55875
9.55736
9.58856
9.65916
9.77629
9.94651
10.1742
10.4593
10.7945
9.9403
9.82244
9.70924
9.60405
9.5106
9.43318
9.37688
9.34783
9.35346
9.40269
9.50582
9.67375
9.91599
10.2366
10.6283
9.92513
9.77677
9.63262
9.49576
9.36971
9.25864
9.16774
9.10359
9.07474
9.09229
9.17048
9.32662
9.57933
9.94271
10.4142
9.90857
9.72687
9.5487
9.37666
9.21381
9.06391
8.93181
8.82402
8.74957
8.72121
8.75714
8.88289
9.13194
9.54069
10.1273
9.89087
9.67345
9.45863
9.24835
9.04494
8.85135
8.67154
8.51109
8.37827
8.28579
8.25394
8.3158
8.52478
8.9607
9.71133
9.87232
9.61743
9.364
9.11316
8.86624
8.625
8.39189
8.17052
7.9666
7.7897
7.657
7.60153
7.69065
8.06593
9.00465
9.85329
9.55994
9.2668
8.97403
8.68183
8.3905
8.10047
7.81247
7.52788
7.24937
6.98281
6.74262
6.5703
6.60767
7.42526
11.4896
11.6682
11.8509
12.0359
12.2213
12.4055
12.5867
12.7637
12.9351
13.1
13.2574
13.4066
13.5471
13.6784
13.8
13.9119
14.0137
14.1053
14.1867
14.2578
14.3186
14.3692
14.4095
14.4397
14.4599
14.4702
14.4707
14.4616
14.4431
14.4152
14.3782
14.3322
14.2773
14.2138
14.1418
14.0614
13.9728
13.8761
13.7716
13.6592
13.5393
13.412
13.2773
13.1356
12.9869
12.8314
12.6693
12.5008
12.3259
12.1448
11.9577
11.7647
11.5659
11.3614
11.1513
10.9358
10.7151
10.4892
10.2584
10.0228
9.7827
9.53823
9.28962
9.0371
8.7809
8.52128
8.25849
7.99281
7.72458
7.45412
7.18185
6.90821
6.63368
6.35883
6.08426
5.8106
5.53854
5.26878
5.00206
4.73909
4.48058
4.22724
3.97972
3.73864
3.50453
3.27789
3.0591
2.84848
2.64622
2.45241
11.4809
11.6622
11.8476
12.0352
12.2231
12.4095
12.5928
12.7715
12.9444
13.1106
13.269
13.4191
13.5602
13.692
13.8141
13.9262
14.0282
14.12
14.2014
14.2725
14.3332
14.3837
14.4239
14.454
14.474
14.4841
14.4844
14.4751
14.4563
14.4282
14.391
14.3447
14.2896
14.2259
14.1536
14.073
13.9842
13.8873
13.7826
13.67
13.5499
13.4223
13.2874
13.1454
12.9965
12.8408
12.6785
12.5097
12.3346
12.1534
11.9661
11.7729
11.5739
11.3692
11.159
10.9433
10.7223
10.4962
10.2651
10.0293
9.78884
9.54406
9.29513
9.04227
8.78572
8.52573
8.26253
7.99641
7.72767
7.45665
7.18374
6.90938
6.63407
6.35836
6.08286
5.80822
5.53514
5.26435
4.99659
4.73259
4.47309
4.21881
3.97041
3.72853
3.49374
3.26653
3.04731
2.8364
2.634
2.44022
11.4633
11.6501
11.841
12.034
12.2269
12.4179
12.6053
12.7875
12.9635
13.1321
13.2926
13.4443
13.5867
13.7195
13.8423
13.9549
14.0573
14.1493
14.2308
14.3019
14.3625
14.4128
14.4528
14.4825
14.5022
14.5119
14.5118
14.5021
14.4828
14.4542
14.4165
14.3698
14.3143
14.2501
14.1774
14.0963
14.0071
13.9098
13.8046
13.6916
13.571
13.4429
13.3076
13.1651
13.0157
12.8595
12.6968
12.5276
12.3521
12.1705
11.9829
11.7893
11.59
11.3849
11.1743
10.9582
10.7368
10.5102
10.2786
10.0422
9.80115
9.55574
9.30617
9.05265
8.79541
8.53468
8.27068
8.00367
7.73394
7.4618
7.18762
6.91184
6.63495
6.3575
6.08013
5.80352
5.52839
5.2555
4.98563
4.71955
4.45804
4.20184
3.95167
3.70818
3.47199
3.24362
3.02351
2.81202
2.60936
2.41563
11.4365
11.6318
11.8313
12.0326
12.2334
12.4314
12.625
12.8125
12.9929
13.1652
13.3286
13.4827
13.6269
13.7611
13.8849
13.9983
14.1012
14.1935
14.2751
14.3461
14.4066
14.4566
14.4961
14.5254
14.5446
14.5537
14.5529
14.5425
14.5226
14.4933
14.4548
14.4074
14.3512
14.2863
14.2129
14.1313
14.0414
13.9434
13.8376
13.7239
13.6026
13.4739
13.3378
13.1946
13.0445
12.8876
12.7242
12.5543
12.3783
12.1961
12.008
11.8139
11.6141
11.4086
11.1974
10.9807
10.7586
10.5312
10.2988
10.0616
9.81964
9.57331
9.32278
9.06828
8.81002
8.54821
8.28305
8.01476
7.74358
7.46979
7.19373
6.91581
6.63653
6.35646
6.07625
5.79661
5.51834
5.24224
4.96914
4.69987
4.43528
4.17614
3.92324
3.67728
3.43892
3.20876
2.98728
2.77488
2.57181
2.37818
11.3997
11.6072
11.819
12.0321
12.2436
12.4513
12.6532
12.8478
13.034
13.2109
13.3781
13.5351
13.6816
13.8174
13.9425
14.0568
14.1602
14.2528
14.3345
14.4054
14.4656
14.5152
14.5542
14.5828
14.6012
14.6095
14.6078
14.5965
14.5756
14.5453
14.5059
14.4575
14.4003
14.3346
14.2604
14.1778
14.0871
13.9883
13.8816
13.7671
13.6449
13.5152
13.3782
13.234
13.0828
12.925
12.7606
12.5899
12.4131
12.2302
12.0414
11.8468
11.6463
11.4402
11.2283
11.0108
10.7878
10.5595
10.326
10.0875
9.84438
9.59678
9.34498
9.0892
8.82964
8.56646
8.29983
8.02991
7.75688
7.48094
7.20241
6.92166
6.63917
6.35553
6.07144
5.78768
5.5051
5.22458
4.94705
4.67342
4.40459
4.14142
3.88476
3.63538
3.39402
3.16135
2.93795
2.72428
2.52064
2.32716
11.3521
11.5765
11.8049
12.0336
12.2593
12.4794
12.6918
12.895
13.0882
13.2706
13.4421
13.6024
13.7514
13.8891
14.0155
14.1307
14.2347
14.3276
14.4093
14.48
14.5398
14.5887
14.627
14.6548
14.6722
14.6794
14.6766
14.664
14.6419
14.6104
14.5697
14.5201
14.4618
14.3949
14.3196
14.236
14.1443
14.0445
13.9368
13.8212
13.6978
13.5669
13.4286
13.2831
13.1307
12.9716
12.806
12.6342
12.4564
12.2726
12.0831
11.8878
11.6867
11.4798
11.2671
11.0487
10.8246
10.595
10.3601
10.1201
9.8754
9.6262
9.37281
9.11546
8.85433
8.58957
8.32125
8.04945
7.77424
7.49575
7.2142
6.92992
6.64337
6.35517
6.06609
5.77698
5.4888
5.20256
4.91929
4.64
4.36568
4.09729
3.83573
3.58188
3.33656
3.10056
2.87457
2.65919
2.4548
2.26157
11.2928
11.5397
11.7902
12.0394
12.2831
12.5185
12.7434
12.9566
13.1576
13.3461
13.5221
13.6857
13.8373
13.9768
14.1046
14.2207
14.3252
14.4182
14.4998
14.5702
14.6294
14.6775
14.7148
14.7415
14.7576
14.7635
14.7593
14.7452
14.7215
14.6884
14.6462
14.5951
14.5353
14.4671
14.3905
14.3057
14.2129
14.112
14.0031
13.8862
13.7615
13.6292
13.4893
13.3421
13.188
13.0273
12.8602
12.687
12.508
12.3233
12.133
11.937
11.7352
11.5276
11.3141
11.0946
10.8692
10.638
10.4014
10.1595
9.91273
9.66154
9.40622
9.14703
8.88417
8.61769
8.34759
8.0738
7.79624
7.51489
7.22984
6.94135
6.64986
6.35603
6.06069
5.76486
5.46964
5.1762
4.88573
4.59936
4.3182
4.04327
3.77556
3.51604
3.26564
3.02529
2.7959
2.57824
2.37285
2.17999
11.2204
11.4978
11.7774
12.0528
12.3188
12.5724
12.8117
13.0359
13.245
13.4394
13.6197
13.7865
13.9403
14.0814
14.2103
14.3271
14.432
14.5251
14.6065
14.6763
14.7347
14.7818
14.8179
14.8431
14.8578
14.862
14.856
14.8401
14.8145
14.7795
14.7354
14.6824
14.6209
14.5511
14.4731
14.387
14.2929
14.1908
14.0806
13.9624
13.8362
13.702
13.5602
13.411
13.2548
13.0919
12.9229
12.7481
12.5678
12.382
12.1909
11.9943
11.792
11.5839
11.3695
11.1489
10.922
10.6889
10.45
10.2056
9.95638
9.70271
9.44507
9.18381
8.9191
8.65093
8.37914
8.10347
7.8236
7.53926
7.25035
6.95701
6.65965
6.35897
6.05595
5.75179
5.44785
5.14552
4.84619
4.55118
4.26168
3.9788
3.70357
3.43702
3.18019
2.93423
2.70031
2.47957
2.27284
2.08053
11.1335
11.4525
11.7708
12.0794
12.3725
12.6469
12.9015
13.1367
13.3534
13.5529
13.7367
13.9058
14.0612
14.2036
14.3333
14.4506
14.5557
14.6487
14.7296
14.7987
14.856
14.9018
14.9364
14.96
14.9727
14.975
14.9669
14.9487
14.9208
14.8835
14.8371
14.7819
14.7184
14.6467
14.5671
14.4796
14.3843
14.281
14.1696
14.05
13.922
13.7858
13.6416
13.4898
13.3309
13.1654
12.9939
12.817
12.6351
12.4483
12.2565
12.0597
11.8573
11.6488
11.4339
11.2122
10.9835
10.7481
10.5063
10.2588
10.0063
9.74947
9.48905
9.22546
8.9589
8.68927
8.4162
8.13911
7.8573
7.57012
7.27717
6.97839
6.67414
6.36521
6.05277
5.73836
5.42367
5.11046
4.8004
4.495
4.19557
3.90326
3.61906
3.34395
3.07906
2.82578
2.58574
2.36067
2.15204
1.96054
11.0311
11.4081
11.778
12.1284
12.4529
12.7497
13.0193
13.2639
13.4863
13.6891
13.8747
14.0448
14.2009
14.3438
14.4739
14.5916
14.6967
14.7894
14.8697
14.9377
14.9937
15.0379
15.0707
15.0922
15.1027
15.1026
15.0921
15.0713
15.0406
15.0005
14.9512
14.8934
14.8274
14.7536
14.6722
14.5834
14.487
14.3828
14.2703
14.1493
14.0196
13.881
13.7339
13.5787
13.4162
13.2472
13.0726
12.8931
12.7093
12.5215
12.3295
12.1329
11.931
11.723
11.5079
11.2852
11.0546
10.8163
10.5708
10.3191
10.0622
9.80133
9.53747
9.2713
9.00303
8.73247
8.45896
8.18146
7.89864
7.6092
7.31229
7.00756
6.6953
6.37641
6.05239
5.72525
5.3973
5.0708
4.74784
4.43016
4.11918
3.81599
3.52141
3.23613
2.96117
2.69822
2.44958
2.2181
2.00653
1.81625
10.9129
11.374
11.8131
12.2143
12.5733
12.8914
13.173
13.4232
13.6472
13.8499
14.0346
14.204
14.3595
14.5022
14.6325
14.7503
14.8555
14.9479
15.0273
15.094
15.1483
15.1904
15.2209
15.2399
15.248
15.2452
15.2317
15.2079
15.1739
15.1303
15.0776
15.0164
14.9475
14.8712
14.788
14.6979
14.6008
14.4961
14.3832
14.2612
14.1296
13.9883
13.8376
13.6781
13.5108
13.3369
13.1581
12.9752
12.7893
12.6005
12.4088
12.2135
12.0135
11.8072
11.5928
11.3695
11.1367
10.8947
10.6442
10.3867
10.1237
9.85736
9.58913
9.32003
9.05033
8.7798
8.50737
8.23138
7.94938
7.65896
7.35859
7.04749
6.72594
6.39489
6.05643
5.71323
5.36876
5.02598
4.68763
4.3556
4.03153
3.71628
3.41032
3.11341
2.82595
2.55001
2.28869
2.04681
1.83033
1.64205
10.7835
11.3717
11.9024
12.3611
12.7525
13.0857
13.3717
13.6198
13.8389
14.0364
14.2166
14.3828
14.5363
14.6783
14.8087
14.9272
15.0326
15.1247
15.2031
15.2681
15.32
15.3596
15.3872
15.4034
15.4086
15.4029
15.3862
15.3589
15.321
15.2731
15.2158
15.1505
15.0778
14.9987
14.9134
14.8223
14.7251
14.6213
14.509
14.3866
14.2535
14.109
13.9539
13.7885
13.6146
13.4338
13.249
13.0617
12.8732
12.6836
12.4932
12.3008
12.1051
11.9028
11.6906
11.4673
11.2319
10.9852
10.7277
10.4619
10.1899
9.91601
9.64188
9.36951
9.09873
8.82974
8.56077
8.28985
8.01216
7.72293
7.42023
7.10238
6.77016
6.42397
6.0672
5.70297
5.33769
4.97474
4.61823
4.26952
3.93113
3.60315
3.28612
2.97706
2.6741
2.3807
2.09978
1.83892
1.61351
1.4291
10.6658
11.4522
12.0953
12.6049
13.0151
13.3479
13.6251
13.858
14.0615
14.2476
14.4187
14.5797
14.7296
14.8712
15.0019
15.1226
15.2289
15.3211
15.3979
15.4607
15.5095
15.5457
15.5699
15.5827
15.5848
15.576
15.556
15.5249
15.4822
15.4291
15.3656
15.295
15.2174
15.135
15.047
14.9555
14.8589
14.7583
14.6493
14.5274
14.3934
14.245
14.0848
13.9109
13.7282
13.5362
13.3436
13.1495
12.9585
12.7678
12.5803
12.3926
12.206
12.0125
11.8041
11.5823
11.3432
11.0911
10.8229
10.5458
10.259
9.97484
9.69199
9.4166
9.14445
8.87955
8.61692
8.35795
8.09149
7.8062
7.50361
7.1779
6.83443
6.46823
6.08865
5.69417
5.30322
4.91417
4.53755
4.16852
3.81572
3.4742
3.15043
2.83191
2.50843
2.19343
1.88194
1.57998
1.33762
1.16262
10.6651
11.7389
12.4802
12.9915
13.3893
13.6899
13.9419
14.1383
14.3092
14.4802
14.6353
14.7924
14.9347
15.0794
15.2091
15.3389
15.445
15.5397
15.6127
15.6733
15.717
15.7491
15.7685
15.7773
15.7764
15.7653
15.7415
15.7076
15.6582
15.5999
15.5252
15.4496
15.3635
15.2791
15.1856
15.0956
14.9983
14.9072
14.8081
14.6854
14.5541
14.3976
14.2353
14.0459
13.8551
13.6393
13.4401
13.2329
13.0433
12.8471
12.6674
12.4828
12.3166
12.1434
11.9369
11.7222
11.473
11.22
10.9308
10.6438
10.3239
10.0317
9.73125
9.45891
9.17959
8.926
8.66765
8.43675
8.19782
7.91429
7.62018
7.27887
6.93136
6.53165
6.13148
5.68022
5.26593
4.83564
4.44589
4.04408
3.68399
3.31966
3.00712
2.69386
2.33052
2.00105
1.65036
1.23519
0.964712
0.816651
11.2916
12.5044
13.1963
13.5414
13.9035
14.1015
14.3389
14.4553
14.5566
14.7354
14.849
15.0263
15.1363
15.3091
15.416
15.5893
15.6772
15.7895
15.8453
15.9101
15.9408
15.9707
15.9822
15.9858
15.9827
15.9724
15.9416
15.9122
15.8468
15.7943
15.686
15.6191
15.5069
15.4363
15.319
15.2461
15.1284
15.0677
15.0005
14.8557
14.7508
14.5584
14.4245
14.1829
14.0178
13.7182
13.5479
13.2906
13.1377
12.9023
12.7614
12.5464
12.4372
12.3221
12.0814
11.9116
11.6081
11.4012
11.0353
10.789
10.3486
10.1004
9.72992
9.51118
9.17757
8.97918
8.67876
8.52704
8.36825
8.03753
7.80465
7.38867
7.10336
6.59568
6.24781
5.61297
5.25162
4.69866
4.37156
3.85952
3.55832
3.09053
2.86479
2.62789
2.10382
1.83921
1.5116
0.682016
0.415521
0.34475
2.24851
2.03805
1.83914
1.65119
1.4735
1.30522
1.14546
0.993289
0.847751
0.707904
0.572818
0.441585
0.313319
0.187155
0.0622462
2.23652
2.02646
1.82814
1.64093
1.46406
1.29669
1.13786
0.986641
0.84205
0.703134
0.568958
0.438613
0.311213
0.185899
0.0618285
2.21233
2.00313
1.80601
1.62029
1.44513
1.27958
1.12265
0.973348
0.830662
0.693616
0.561262
0.432689
0.307017
0.183396
0.0609968
2.17552
1.96768
1.77247
1.58908
1.41655
1.25382
1.09981
0.953426
0.813626
0.679396
0.549778
0.423858
0.300767
0.17967
0.0597587
2.12545
1.91957
1.72709
1.547
1.37816
1.21934
1.06932
0.926912
0.791007
0.660558
0.534589
0.412193
0.292518
0.174755
0.0581264
2.0612
1.85803
1.66928
1.49366
1.32973
1.17604
1.03119
0.893886
0.762925
0.637229
0.51582
0.397803
0.282355
0.168704
0.0561172
1.98149
1.78206
1.59833
1.4286
1.27104
1.12388
0.98552
0.854503
0.729567
0.609607
0.493652
0.380839
0.27039
0.161587
0.0537552
1.88466
1.69034
1.51337
1.35135
1.20192
1.06293
0.932488
0.809028
0.691225
0.577973
0.468336
0.361508
0.256775
0.153496
0.0510713
1.76843
1.58128
1.41343
1.26149
1.12236
0.993397
0.872467
0.757886
0.648323
0.542717
0.440207
0.340075
0.241705
0.144549
0.0481047
1.62977
1.4529
1.29755
1.15882
1.03262
0.91582
0.806086
0.701717
0.601455
0.504357
0.409693
0.316876
0.225416
0.134888
0.0449028
1.46452
1.30297
1.16503
1.04359
0.933474
0.831164
0.734332
0.64143
0.551415
0.463558
0.377328
0.292316
0.208195
0.124681
0.0415213
1.26715
1.12941
1.01601
0.917032
0.826508
0.741021
0.658637
0.578249
0.499211
0.421127
0.343738
0.266863
0.190363
0.114118
0.0380227
1.03081
0.931512
0.852556
0.782002
0.714494
0.647767
0.580937
0.513712
0.446048
0.377995
0.309631
0.241033
0.172272
0.103403
0.0344742
0.749977
0.713253
0.680687
0.643919
0.601688
0.554608
0.503624
0.449607
0.393268
0.335169
0.275752
0.215365
0.154287
0.0927476
0.0309445
0.433122
0.490825
0.513013
0.51129
0.493726
0.465346
0.429339
0.387818
0.342242
0.293657
0.24284
0.190384
0.13676
0.0823549
0.0275004
9.83578
9.50704
9.17734
8.84595
8.512
8.17434
7.83144
7.48113
7.12012
6.74311
6.34059
5.89303
5.35107
4.5557
2.86057
9.82008
9.45962
9.09719
8.7313
8.36016
7.98145
7.59201
7.18733
6.76054
6.30055
5.78802
5.1862
4.41862
3.3151
1.50669
9.80482
9.41355
9.01942
8.6203
8.21358
7.796
7.36316
6.90886
6.42399
5.89447
5.29745
4.59447
3.71946
2.56398
0.989605
9.79021
9.36946
8.94513
8.51455
8.07454
7.62115
7.14919
6.65161
6.11846
5.53524
4.88046
4.1222
3.21505
2.10374
0.753651
9.7764
9.32785
8.87518
8.41535
7.94479
7.45917
6.95301
6.41907
5.84768
5.22569
4.5353
3.75331
2.85242
1.8093
0.626874
9.76352
9.2891
8.81021
8.32358
7.82548
7.31147
6.7761
6.21252
5.61203
4.96363
4.25376
3.46697
2.58857
1.61161
0.549622
9.75166
9.25346
8.75061
8.23978
7.71722
7.1786
6.61878
6.03159
5.40965
4.74424
4.02564
3.24425
2.39315
1.47295
0.498243
9.74085
9.22103
8.69656
8.16412
7.62011
7.06044
6.48045
5.8748
5.23745
4.56178
3.84113
3.06992
2.24571
1.37213
0.461991
9.73111
9.19183
8.64802
8.09651
7.53387
6.95638
6.35993
5.74003
5.09186
4.41054
3.69171
2.93241
2.13256
1.29671
0.43535
9.7224
9.16578
8.60484
8.03661
7.45794
6.86548
6.25571
5.62488
4.96927
4.28537
3.57039
2.82304
2.04441
1.239
0.415196
9.71469
9.14272
8.56673
7.98396
7.39157
6.78662
6.16609
5.52695
4.86633
4.18176
3.47156
2.73539
1.97487
1.19405
0.399619
9.7079
9.12246
8.53332
7.93799
7.33392
6.71857
6.08938
5.44393
4.78002
4.09594
3.39075
2.66466
1.91941
1.15854
0.387382
9.70196
9.10476
8.50422
7.89808
7.28411
6.66012
6.02398
5.37373
4.70772
4.02478
3.32445
2.60722
1.8748
1.13019
0.377647
9.6968
9.0894
8.47899
7.8636
7.24127
6.61011
5.96836
5.31447
4.64718
3.9657
3.26988
2.56035
1.83865
1.10734
0.369826
9.69234
9.07612
8.45723
7.83394
7.20454
6.56745
5.92118
5.2645
4.59648
3.91659
3.22484
2.52191
1.80918
1.08879
0.363491
9.68849
9.06468
8.43853
7.80852
7.17317
6.53115
5.88123
5.22242
4.55402
3.8757
3.18756
2.49027
1.78504
1.07364
0.358328
9.68519
9.05488
8.42252
7.78679
7.14644
6.50033
5.84745
5.187
4.51846
3.84162
3.15664
2.46414
1.76517
1.06121
0.354097
9.68236
9.04649
8.40884
7.76828
7.12372
6.47421
5.81891
5.1572
4.48867
3.81318
3.13095
2.44251
1.74877
1.05097
0.350616
9.67995
9.03934
8.39719
7.75253
7.10444
6.4521
5.79484
5.13214
4.46369
3.78943
3.10956
2.42455
1.7352
1.04251
0.347742
9.6779
9.03325
8.38729
7.73916
7.0881
6.43341
5.77454
5.11107
4.44276
3.76958
3.09173
2.40962
1.72393
1.0355
0.345361
9.67616
9.02809
8.37889
7.72783
7.07428
6.41763
5.75744
5.09336
4.4252
3.75297
3.07685
2.39719
1.71456
1.02968
0.343386
9.67468
9.02371
8.37177
7.71825
7.06259
6.40432
5.74304
5.07847
4.41048
3.73907
3.06441
2.38682
1.70676
1.02483
0.341742
9.67342
9.02
8.36574
7.71014
7.05273
6.39309
5.73091
5.06596
4.39813
3.72743
3.05402
2.37816
1.70025
1.02079
0.340374
9.67237
9.01686
8.36065
7.7033
7.04441
6.38364
5.72071
5.05545
4.38777
3.71768
3.04532
2.37092
1.69482
1.01742
0.339232
9.67147
9.01421
8.35635
7.69753
7.0374
6.37567
5.71213
5.04662
4.37907
3.70951
3.03804
2.36487
1.69028
1.01461
0.338279
9.67072
9.01198
8.35273
7.69266
7.03149
6.36897
5.70492
5.0392
4.37178
3.70266
3.03195
2.35981
1.68648
1.01226
0.337482
9.67008
9.01009
8.34968
7.68856
7.02652
6.36333
5.69885
5.03298
4.36566
3.69692
3.02684
2.35557
1.68331
1.01029
0.336816
9.66954
9.00851
8.3471
7.68512
7.02234
6.35859
5.69376
5.02775
4.36053
3.69211
3.02257
2.35202
1.68065
1.00865
0.33626
9.66909
9.00717
8.34494
7.68222
7.01882
6.35462
5.68949
5.02337
4.35622
3.68808
3.01899
2.34905
1.67842
1.00727
0.335794
9.66871
9.00605
8.34313
7.67978
7.01587
6.35128
5.6859
5.01969
4.35262
3.6847
3.01599
2.34657
1.67656
1.00612
0.335404
9.66839
9.00511
8.3416
7.67774
7.0134
6.34848
5.6829
5.01661
4.3496
3.68187
3.01348
2.34449
1.67501
1.00516
0.335079
9.66813
9.00432
8.34033
7.67603
7.01133
6.34613
5.68038
5.01404
4.34708
3.67951
3.01139
2.34276
1.67371
1.00436
0.334807
9.6679
9.00366
8.33926
7.6746
7.0096
6.34418
5.67829
5.01189
4.34497
3.67754
3.00964
2.34131
1.67263
1.00369
0.334581
9.66772
9.00311
8.33837
7.67341
7.00816
6.34255
5.67654
5.0101
4.34322
3.67591
3.00819
2.34011
1.67173
1.00313
0.334392
9.66757
9.00266
8.33763
7.67242
7.00696
6.3412
5.67509
5.00862
4.34177
3.67455
3.00698
2.33911
1.67099
1.00267
0.334237
9.66744
9.00228
8.33703
7.67161
7.00598
6.34009
5.6739
5.0074
4.34057
3.67343
3.00599
2.33829
1.67037
1.00229
0.334108
9.66734
9.00198
8.33653
7.67095
7.00518
6.33918
5.67293
5.0064
4.3396
3.67252
3.00519
2.33762
1.66987
1.00198
0.334004
9.66725
9.00173
8.33613
7.67041
7.00453
6.33845
5.67215
5.0056
4.33882
3.67179
3.00454
2.33709
1.66947
1.00173
0.33392
9.66719
9.00154
8.33582
7.66999
7.00402
6.33787
5.67153
5.00497
4.3382
3.67121
3.00403
2.33666
1.66916
1.00154
0.333854
9.66714
9.00139
8.33558
7.66967
7.00363
6.33744
5.67106
5.00449
4.33773
3.67077
3.00364
2.33634
1.66892
1.00139
0.333803
9.6671
9.00128
8.33541
7.66944
7.00336
6.33712
5.67073
5.00415
4.33739
3.67046
3.00336
2.33611
1.66874
1.00128
0.333767
9.66708
9.00121
8.3353
7.6693
7.00318
6.33692
5.67051
5.00393
4.33718
3.67026
3.00318
2.33597
1.66863
1.00122
0.333745
9.66707
9.00118
8.33525
7.66923
7.0031
6.33684
5.67042
5.00383
4.33708
3.67017
3.0031
2.3359
1.66858
1.00119
0.333734
9.66707
9.00119
8.33526
7.66924
7.00312
6.33685
5.67043
5.00385
4.3371
3.67019
3.00312
2.33591
1.66859
1.00119
0.333736
9.66708
9.00123
8.33533
7.66933
7.00322
6.33698
5.67057
5.00399
4.33723
3.67031
3.00323
2.336
1.66866
1.00123
0.33375
9.66711
9.00131
8.33545
7.6695
7.00343
6.33721
5.67082
5.00424
4.33748
3.67054
3.00343
2.33617
1.66879
1.00131
0.333777
9.66715
9.00143
8.33565
7.66976
7.00374
6.33756
5.67119
5.00463
4.33786
3.6709
3.00375
2.33643
1.66898
1.00143
0.333818
9.6672
9.00159
8.33591
7.67011
7.00417
6.33804
5.67171
5.00515
4.33838
3.67138
3.00417
2.33678
1.66925
1.00159
0.333873
9.66728
9.0018
8.33625
7.67057
7.00472
6.33866
5.67237
5.00584
4.33904
3.672
3.00472
2.33724
1.66959
1.00181
0.333944
9.66737
9.00207
8.33668
7.67114
7.00541
6.33945
5.67321
5.00669
4.33988
3.67279
3.00542
2.33782
1.67002
1.00207
0.334034
9.66748
9.00239
8.33721
7.67185
7.00627
6.34041
5.67425
5.00776
4.34092
3.67376
3.00628
2.33853
1.67055
1.0024
0.334146
9.66761
9.00279
8.33785
7.67271
7.00731
6.3416
5.67552
5.00905
4.34219
3.67494
3.00733
2.3394
1.6712
1.0028
0.334282
9.66777
9.00328
8.33863
7.67376
7.00858
6.34303
5.67705
5.01063
4.34373
3.67638
3.00861
2.34046
1.67199
1.00329
0.334447
9.66797
9.00386
8.33958
7.67502
7.01011
6.34476
5.6789
5.01252
4.34559
3.67812
3.01015
2.34173
1.67294
1.00388
0.334646
9.66821
9.00456
8.34071
7.67654
7.01194
6.34683
5.68113
5.01479
4.34782
3.6802
3.012
2.34326
1.67409
1.00459
0.334886
9.66849
9.00539
8.34206
7.67835
7.01413
6.34931
5.68378
5.01752
4.35048
3.6827
3.01421
2.34509
1.67546
1.00544
0.335173
9.66883
9.00639
8.34367
7.68051
7.01675
6.35227
5.68696
5.02077
4.35367
3.68568
3.01686
2.34729
1.6771
1.00645
0.335516
9.66923
9.00757
8.34559
7.68309
7.01987
6.3558
5.69075
5.02466
4.35748
3.68925
3.02002
2.34991
1.67906
1.00767
0.335927
9.66971
9.00899
8.34788
7.68616
7.02359
6.36001
5.69527
5.02929
4.36203
3.69351
3.0238
2.35304
1.68141
1.00912
0.336418
9.67027
9.01067
8.3506
7.6898
7.02801
6.36502
5.70065
5.03481
4.36745
3.69859
3.02831
2.35678
1.68421
1.01085
0.337005
9.67095
9.01266
8.35384
7.69414
7.03327
6.37098
5.70706
5.04139
4.37391
3.70464
3.0337
2.36125
1.68756
1.01292
0.337707
9.67175
9.01503
8.35768
7.69929
7.03953
6.37807
5.71469
5.04922
4.38161
3.71187
3.04012
2.36659
1.69155
1.0154
0.338545
9.6727
9.01784
8.36223
7.70541
7.04695
6.38649
5.72376
5.05855
4.39078
3.72049
3.04779
2.37296
1.69633
1.01836
0.339548
9.67382
9.02116
8.36763
7.71266
7.05576
6.3965
5.73454
5.06965
4.40172
3.73076
3.05695
2.38057
1.70205
1.0219
0.340747
9.67515
9.0251
8.37402
7.72125
7.06621
6.40838
5.74736
5.08286
4.41475
3.74303
3.06789
2.38968
1.70889
1.02614
0.342185
9.67672
9.02976
8.38158
7.73143
7.0786
6.42248
5.76259
5.09859
4.43028
3.75767
3.08097
2.40058
1.71708
1.03123
0.343908
9.67858
9.03525
8.39051
7.74346
7.09326
6.4392
5.78069
5.11729
4.44879
3.77515
3.09661
2.41363
1.7269
1.03733
0.345977
9.68076
9.04173
8.40105
7.75767
7.11061
6.45902
5.80217
5.13955
4.47086
3.79604
3.11534
2.42929
1.7387
1.04466
0.348466
9.68334
9.04936
8.41347
7.77443
7.13111
6.48247
5.82766
5.16603
4.49718
3.82102
3.13778
2.44809
1.75289
1.0535
0.351466
9.68636
9.05832
8.42807
7.79418
7.1553
6.51022
5.8579
5.19752
4.52858
3.8509
3.16471
2.47071
1.77001
1.06417
0.355091
9.68989
9.06882
8.4452
7.81738
7.18379
6.54299
5.89371
5.23496
4.56605
3.88668
3.19708
2.49797
1.79068
1.07708
0.359483
9.69402
9.08109
8.46525
7.84459
7.21728
6.58163
5.93612
5.27946
4.61077
3.92958
3.23603
2.53091
1.81575
1.09277
0.364825
9.69883
9.09539
8.48864
7.8764
7.25657
6.62714
5.98625
5.33233
4.66416
3.98107
3.28302
2.57083
1.84624
1.11191
0.371352
9.70441
9.11198
8.51583
7.9135
7.30253
6.68059
6.04543
5.39508
4.72792
4.04293
3.33983
2.61937
1.88349
1.13537
0.379368
9.71085
9.13116
8.54733
7.95657
7.35612
6.74321
6.11516
5.46949
4.80407
4.11736
3.40869
2.67861
1.92923
1.16431
0.389279
9.71824
9.15321
8.58363
8.00639
7.41836
6.81634
6.19712
5.55762
4.89501
4.20703
3.4924
2.75127
1.98575
1.20028
0.401635
9.72669
9.17843
8.62523
8.0637
7.49031
6.9014
6.29318
5.6618
5.00355
4.31522
3.59451
2.84086
2.05613
1.24541
0.4172
9.73628
9.20709
8.67263
8.12923
7.57303
6.99987
6.40531
5.78462
5.133
4.44587
3.71951
2.95202
2.14456
1.30267
0.437066
9.74707
9.2394
8.72622
8.20366
7.66753
7.11321
6.53557
5.92892
5.28709
4.60375
3.87307
3.09094
2.25688
1.3764
0.462853
9.75913
9.27553
8.78633
8.28751
7.77465
7.24274
6.68597
6.09764
5.47001
4.79452
4.06235
3.26591
2.40145
1.4731
0.497079
9.77246
9.31556
8.85311
8.3811
7.895
7.38951
6.8583
6.29365
5.68616
5.02462
4.29626
3.4881
2.59038
1.6029
0.543899
9.78705
9.35943
8.92654
8.48448
8.0288
7.55414
7.05383
6.51939
5.93985
5.30113
4.58556
3.77249
2.84166
1.78235
0.610721
9.80284
9.40697
9.00632
8.59731
8.17579
7.73658
7.27307
6.77643
6.23463
5.63101
4.94257
4.13864
3.18214
2.03979
0.712134
9.81972
9.45783
9.09189
8.71884
8.33504
7.93589
7.51529
7.06482
6.57232
6.01976
5.37978
4.61072
3.65168
2.42591
0.880638
9.8375
9.5115
9.1824
8.84782
8.50494
8.15007
7.77826
7.38238
6.9517
6.46922
5.90662
5.21473
4.30644
3.03389
1.19914
9.85599
9.56733
9.2767
8.98258
8.68314
8.37602
8.05794
7.7241
7.36705
6.9743
6.52322
5.96898
5.21415
4.03228
1.90899
9.87492
9.62453
9.37341
9.12101
8.86667
8.60956
8.34853
8.08193
7.80717
7.51985
7.21145
6.86251
6.4184
5.6844
3.79568
9.89402
9.68223
9.471
9.26078
9.05213
8.84582
8.64298
8.4454
8.256
8.08004
7.92779
7.8221
7.82394
8.13837
9.64252
9.91298
9.73953
9.56789
9.39945
9.23594
9.07964
8.93377
8.80316
8.69547
8.62373
8.61176
8.707
9.01237
9.76611
11.5066
9.93154
9.79557
9.66254
9.53469
9.41473
9.3062
9.21395
9.14499
9.10996
9.12588
9.22124
9.44592
9.88939
10.7086
12.1409
0.178145
0.319483
0.381225
0.404229
0.404668
0.390507
0.366295
0.334892
0.298223
0.257648
0.21417
0.168554
0.12141
0.0732388
0.0244772
0.09562
0.218988
0.288316
0.322568
0.333842
0.329449
0.313972
0.290431
0.260915
0.226926
0.189588
0.149769
0.108166
0.0653611
0.0218627
0.0602268
0.156021
0.219762
0.256861
0.273894
0.276086
0.267246
0.250118
0.226711
0.198529
0.166727
0.132221
0.0957559
0.0579646
0.0194054
0.0419579
0.11531
0.169708
0.205086
0.224248
0.230383
0.226272
0.214162
0.195821
0.172643
0.145744
0.116032
0.084266
0.051101
0.0171226
0.0310247
0.0877614
0.13286
0.164571
0.183648
0.191791
0.190853
0.182532
0.168287
0.14934
0.126713
0.101268
0.073747
0.0448018
0.0150251
0.0237806
0.0682938
0.105309
0.132826
0.15064
0.159504
0.160558
0.155015
0.144017
0.128591
0.109637
0.0879456
0.0642164
0.0390796
0.0131172
0.0186529
0.0540327
0.0843523
0.10782
0.123846
0.13264
0.134844
0.131283
0.122822
0.110291
0.0944611
0.0760374
0.0556627
0.0339304
0.0113982
0.0148626
0.0432853
0.0681532
0.0879801
0.102072
0.11035
0.113132
0.110955
0.104451
0.0942797
0.081086
0.0654835
0.0480511
0.0293365
0.00986262
0.0119767
0.035006
0.0554542
0.072122
0.0843354
0.091877
0.0948639
0.0936287
0.0886258
0.0803671
0.069383
0.0561996
0.0413297
0.0252695
0.00850148
0.0097326
0.0285187
0.0453801
0.0593567
0.0698421
0.0765655
0.0795266
0.0789186
0.0750609
0.0683466
0.0592065
0.0480866
0.0354344
0.021694
0.00730338
0.00795998
0.0233677
0.037309
0.0490152
0.0579606
0.0638662
0.066667
0.0664645
0.063479
0.0580099
0.0504045
0.041037
0.0302946
0.0185696
0.00625533
0.00654303
0.0192348
0.0307898
0.0405904
0.0481895
0.0533225
0.0558926
0.0559423
0.0536214
0.0491563
0.0428258
0.0349419
0.025837
0.0158544
0.00534359
0.00539982
0.0158911
0.0254888
0.033694
0.0401305
0.044558
0.0468678
0.047066
0.0452523
0.0415976
0.0363253
0.0296945
0.0219885
0.0135059
0.00455425
0.0044707
0.0131679
0.0211544
0.0280256
0.0334663
0.0372639
0.039309
0.0395865
0.0381611
0.0351621
0.0307679
0.0251934
0.0186791
0.011483
0.00387378
0.00371113
0.010938
0.0175944
0.0233505
0.0279428
0.0311863
0.0329774
0.0332891
0.0321625
0.029695
0.0260298
0.0213447
0.0158432
0.00974691
0.00328935
0.00308726
0.00910406
0.0146595
0.0194833
0.0233556
0.0261171
0.0276728
0.0279904
0.0270946
0.0250595
0.0219998
0.0180627
0.0134201
0.0082616
0.00278902
0.00257288
0.00759049
0.0122325
0.0162768
0.0195397
0.021885
0.0232278
0.023534
0.0228177
0.0211352
0.0185789
0.0152706
0.0113551
0.00699435
0.00236189
0.00214747
0.00633768
0.0102205
0.0136126
0.0163608
0.018349
0.0195023
0.0197875
0.0192116
0.0178175
0.01568
0.0128999
0.00959926
0.00591572
0.00199815
0.00179476
0.0052983
0.00854909
0.0113955
0.0137096
0.0153926
0.0163795
0.0166389
0.0161734
0.015016
0.0132272
0.0108907
0.00810919
0.00499957
0.00168906
0.00150176
0.00443439
0.00715842
0.00954811
0.0114963
0.0129197
0.0137616
0.0139937
0.0136155
0.0126527
0.0111546
0.00919054
0.00684689
0.00422286
0.00142692
0.00125798
0.00371529
0.00599987
0.00800716
0.0096475
0.0108503
0.011567
0.0117721
0.0114635
0.0106612
0.00940539
0.00775389
0.00577923
0.00356549
0.00120499
0.00105493
0.0031161
0.00503383
0.00672098
0.00810241
0.00911851
0.0097276
0.0099072
0.00965427
0.00898452
0.00793089
0.00654157
0.00487756
0.00301001
0.0010174
0.000885671
0.0026165
0.00422787
0.00564703
0.00681095
0.00766926
0.00818635
0.00834254
0.0081344
0.00757433
0.00668944
0.00551995
0.00411719
0.00254136
0.00085909
0.000744542
0.00219981
0.00355537
0.00475029
0.00573165
0.0064569
0.00689566
0.00703081
0.00685886
0.00638965
0.00564557
0.00466027
0.00347696
0.0021466
0.000725716
0.000626886
0.00185237
0.00299437
0.00400181
0.00483015
0.00544342
0.00581575
0.00593229
0.00578967
0.00539578
0.00476918
0.00393804
0.00293883
0.00181467
0.000613552
0.000528872
0.00156287
0.00252679
0.00337767
0.00407797
0.00459723
0.0049134
0.0050137
0.00489493
0.00456348
0.00403477
0.0033325
0.00248745
0.00153617
0.000519427
0.000447342
0.00132203
0.00213769
0.00285808
0.00345147
0.00389202
0.00416093
0.00424718
0.00414785
0.00386811
0.00342087
0.00282608
0.00210982