/*--------------------------------*- C++ -*----------------------------------*\
| =========                 |                                                 |
| \\      /  F ield         | OpenFOAM: The Open Source CFD Toolbox           |
|  \\    /   O peration     | Version:  5.x                                   |
|   \\  /    A nd           | Web:      www.OpenFOAM.org                      |
|    \\/     M anipulation  |                                                 |
\*---------------------------------------------------------------------------*/
FoamFile
{
    version     2.0;
    format      ascii;
    class       volScalarField;
    location    "3.6999";
    object      gradTy;
}
// * * * * * * * * * * * * * * * * * * * * * * * * * * * * * * * * * * * * * //

dimensions      [0 -1 0 1 0 0 0];

internalField   nonuniform List<scalar> 
2048
(
-27.5091
-27.4752
-27.4085
-27.3111
-27.1855
-27.0352
-26.8637
-26.6745
-26.4713
-26.2572
-26.0352
-25.8078
-25.5774
-25.3458
-25.1147
-24.8856
-24.6595
-24.4374
-24.2199
-24.0075
-23.8004
-23.5987
-23.4025
-23.2117
-23.0263
-22.8461
-22.671
-22.5009
-22.3359
-22.1758
-22.0207
-21.8707
-21.7259
-21.5864
-21.4524
-21.3241
-21.2018
-21.0857
-20.976
-20.873
-20.7768
-20.6877
-20.6061
-20.5323
-20.4666
-20.4093
-20.3608
-20.3214
-20.2913
-20.2705
-20.259
-20.2565
-20.2623
-20.2758
-20.2959
-20.3212
-20.3501
-20.3809
-20.4119
-20.441
-20.4668
-20.4875
-20.502
-20.5095
-27.5365
-27.5018
-27.4335
-27.3338
-27.2055
-27.0523
-26.8779
-26.6859
-26.4801
-26.2636
-26.0395
-25.8103
-25.5783
-25.3454
-25.1132
-24.8831
-24.6563
-24.4337
-24.2158
-24.0032
-23.7959
-23.5943
-23.3981
-23.2074
-23.0221
-22.8419
-22.6669
-22.4969
-22.3318
-22.1717
-22.0166
-21.8665
-21.7215
-21.5819
-21.4477
-21.3193
-21.1968
-21.0805
-20.9706
-20.8674
-20.771
-20.6817
-20.5998
-20.5257
-20.4597
-20.4022
-20.3534
-20.3139
-20.2837
-20.263
-20.2517
-20.2496
-20.2561
-20.2705
-20.2916
-20.3182
-20.3485
-20.3808
-20.4132
-20.4438
-20.4707
-20.4924
-20.5077
-20.5155
-27.5889
-27.5525
-27.4811
-27.377
-27.2436
-27.0848
-26.9047
-26.7074
-26.4965
-26.2756
-26.0475
-25.8149
-25.5799
-25.3444
-25.1101
-24.8783
-24.6501
-24.4265
-24.2079
-23.9949
-23.7875
-23.5859
-23.3898
-23.1993
-23.0141
-22.8341
-22.6591
-22.4892
-22.3242
-22.1641
-22.0089
-21.8586
-21.7134
-21.5734
-21.4389
-21.3101
-21.1873
-21.0707
-20.9605
-20.8568
-20.76
-20.6703
-20.5879
-20.5133
-20.4467
-20.3886
-20.3394
-20.2995
-20.2692
-20.2486
-20.2378
-20.2365
-20.2442
-20.2602
-20.2834
-20.3124
-20.3454
-20.3806
-20.4159
-20.4491
-20.4784
-20.5021
-20.5186
-20.5271
-27.6642
-27.6254
-27.5492
-27.4386
-27.2976
-27.1307
-26.9424
-26.7372
-26.5193
-26.292
-26.0583
-25.8209
-25.5817
-25.3427
-25.1054
-24.8712
-24.6411
-24.4161
-24.1966
-23.9831
-23.7755
-23.5739
-23.378
-23.1877
-23.0028
-22.823
-22.6483
-22.4785
-22.3136
-22.1534
-21.998
-21.8475
-21.7019
-21.5615
-21.4265
-21.2973
-21.174
-21.0568
-20.9461
-20.842
-20.7446
-20.6543
-20.5712
-20.4957
-20.4283
-20.3695
-20.3196
-20.2792
-20.2486
-20.2282
-20.2179
-20.2177
-20.2271
-20.2454
-20.2715
-20.304
-20.3409
-20.3803
-20.4197
-20.457
-20.4897
-20.5161
-20.5345
-20.544
-27.7608
-27.7186
-27.6361
-27.5169
-27.3657
-27.188
-26.989
-26.7739
-26.5469
-26.3116
-26.0711
-25.8277
-25.5834
-25.3399
-25.0989
-24.8617
-24.6293
-24.4026
-24.1821
-23.968
-23.7603
-23.5588
-23.3633
-23.1733
-22.9887
-22.8093
-22.6348
-22.4652
-22.3003
-22.1401
-21.9846
-21.8337
-21.6877
-21.5467
-21.4111
-21.2812
-21.1572
-21.0395
-20.9282
-20.8235
-20.7255
-20.6343
-20.5503
-20.4739
-20.4054
-20.3454
-20.2946
-20.2535
-20.2225
-20.2021
-20.1924
-20.1935
-20.205
-20.2262
-20.2561
-20.2931
-20.3351
-20.3799
-20.4248
-20.4672
-20.5045
-20.5344
-20.5554
-20.5662
-27.8775
-27.831
-27.7403
-27.6101
-27.4462
-27.2551
-27.0431
-26.8158
-26.5781
-26.3335
-26.085
-25.8347
-25.5845
-25.3359
-25.0906
-24.8498
-24.6147
-24.3861
-24.1644
-23.9498
-23.7422
-23.541
-23.3459
-23.1564
-22.9723
-22.7932
-22.6191
-22.4497
-22.285
-22.1248
-21.969
-21.8177
-21.6711
-21.5294
-21.393
-21.2623
-21.1376
-21.0192
-20.9073
-20.8019
-20.7031
-20.6111
-20.526
-20.4483
-20.3785
-20.3172
-20.2651
-20.223
-20.1914
-20.1709
-20.1619
-20.1644
-20.1783
-20.2029
-20.2373
-20.2797
-20.3279
-20.3794
-20.4311
-20.4799
-20.5227
-20.5572
-20.5812
-20.5936
-28.0138
-27.9618
-27.861
-27.7171
-27.5376
-27.3303
-27.1028
-26.8616
-26.6116
-26.3566
-26.0992
-25.8414
-25.5846
-25.3304
-25.0803
-24.8355
-24.5973
-24.3666
-24.1438
-23.9288
-23.7214
-23.5207
-23.3263
-23.1375
-22.9539
-22.7753
-22.6015
-22.4324
-22.2679
-22.1077
-21.9517
-21.8
-21.6526
-21.51
-21.3727
-21.241
-21.1155
-20.9964
-20.8838
-20.7778
-20.6782
-20.5851
-20.4988
-20.4197
-20.3482
-20.2852
-20.2316
-20.1882
-20.1557
-20.135
-20.1265
-20.1305
-20.147
-20.1755
-20.2149
-20.2637
-20.3193
-20.3788
-20.4386
-20.495
-20.5446
-20.5843
-20.612
-20.6262
-28.1691
-28.1104
-27.9971
-27.8366
-27.6383
-27.412
-27.1666
-26.9095
-26.646
-26.3798
-26.113
-25.8472
-25.5835
-25.3232
-25.0678
-24.8186
-24.5771
-24.3442
-24.1203
-23.9051
-23.6981
-23.4983
-23.3048
-23.1168
-22.9339
-22.7557
-22.5824
-22.4137
-22.2494
-22.0893
-21.9331
-21.7809
-21.6327
-21.489
-21.3505
-21.2177
-21.0913
-20.9714
-20.8582
-20.7515
-20.6512
-20.5571
-20.4694
-20.3885
-20.3151
-20.2502
-20.1946
-20.1495
-20.116
-20.0947
-20.0866
-20.092
-20.1112
-20.1439
-20.1891
-20.2451
-20.3092
-20.3781
-20.4474
-20.5128
-20.5702
-20.6161
-20.648
-20.6642
-28.3436
-28.2767
-28.1482
-27.9677
-27.7471
-27.4986
-27.2329
-26.9582
-26.6802
-26.4023
-26.1259
-25.8519
-25.581
-25.3142
-25.053
-24.7991
-24.554
-24.3188
-24.0939
-23.8789
-23.6728
-23.4742
-23.2818
-23.0948
-22.9126
-22.735
-22.5621
-22.3938
-22.2299
-22.07
-21.9137
-21.7608
-21.6116
-21.4666
-21.3267
-21.1927
-21.0652
-20.9446
-20.8308
-20.7236
-20.6225
-20.5274
-20.4382
-20.3554
-20.2798
-20.2124
-20.1546
-20.1075
-20.0724
-20.0504
-20.0424
-20.0491
-20.0711
-20.1081
-20.1596
-20.2236
-20.2975
-20.3771
-20.4575
-20.5334
-20.5998
-20.6526
-20.6892
-20.7078
-28.5375
-28.4605
-28.3136
-28.1092
-27.8624
-27.5884
-27.2998
-27.0061
-26.713
-26.4231
-26.1372
-25.8551
-25.5769
-25.3034
-25.036
-24.7769
-24.5279
-24.2904
-24.0647
-23.8502
-23.6454
-23.4485
-23.2577
-23.0718
-22.8903
-22.7132
-22.5408
-22.373
-22.2096
-22.05
-21.8936
-21.7401
-21.5896
-21.4431
-21.3015
-21.166
-21.0375
-20.9161
-20.802
-20.6944
-20.5927
-20.4965
-20.4057
-20.3208
-20.2426
-20.1725
-20.1119
-20.0625
-20.0255
-20.0024
-19.9942
-20.002
-20.0265
-20.0681
-20.1262
-20.1992
-20.2839
-20.3757
-20.4689
-20.5568
-20.6334
-20.6941
-20.7358
-20.7569
-28.7513
-28.6622
-28.4931
-28.2602
-27.9828
-27.6797
-27.3658
-27.0518
-26.7431
-26.4416
-26.1466
-25.8567
-25.5712
-25.2907
-25.0167
-24.7519
-24.4987
-24.2588
-24.0326
-23.8192
-23.6164
-23.4217
-23.2328
-23.0482
-22.8674
-22.6907
-22.5186
-22.3515
-22.1889
-22.0298
-21.8734
-21.7191
-21.5672
-21.4188
-21.2752
-21.138
-21.0082
-20.8863
-20.7719
-20.6642
-20.5622
-20.465
-20.3725
-20.2851
-20.204
-20.1307
-20.067
-20.0147
-19.9755
-19.9509
-19.9421
-19.9507
-19.9776
-20.0237
-20.0888
-20.1714
-20.2682
-20.374
-20.4817
-20.5833
-20.6715
-20.7407
-20.7879
-20.8116
-28.9858
-28.8819
-28.6863
-28.4196
-28.1067
-27.7706
-27.4291
-27.0936
-26.7695
-26.4571
-26.1539
-25.8568
-25.5642
-25.2763
-24.9952
-24.724
-24.4662
-24.224
-23.9977
-23.7859
-23.5859
-23.3941
-23.2074
-23.0243
-22.8441
-22.6676
-22.4958
-22.3294
-22.1678
-22.0095
-21.8532
-21.6982
-21.5447
-21.3939
-21.2479
-21.1087
-20.9776
-20.8552
-20.7409
-20.6335
-20.5313
-20.4333
-20.339
-20.2489
-20.1644
-20.0875
-20.0202
-19.9647
-19.9228
-19.8962
-19.8865
-19.8954
-19.9243
-19.9747
-20.047
-20.14
-20.2503
-20.3716
-20.4959
-20.6132
-20.7143
-20.7928
-20.8455
-20.8719
-29.2422
-29.1204
-28.8929
-28.5864
-28.2323
-27.8592
-27.4878
-27.1302
-26.7912
-26.4692
-26.1589
-25.8554
-25.556
-25.2605
-24.9715
-24.6932
-24.4305
-24.1858
-23.9597
-23.7505
-23.5542
-23.3661
-23.1822
-23.0004
-22.8207
-22.644
-22.4723
-22.3067
-22.1465
-21.9896
-21.8336
-21.6777
-21.5222
-21.3686
-21.2197
-21.0781
-20.9457
-20.8229
-20.7091
-20.6024
-20.5005
-20.4018
-20.3056
-20.2126
-20.1243
-20.0431
-19.9718
-19.9126
-19.8676
-19.8387
-19.8276
-19.8362
-19.8668
-19.9212
-20.0007
-20.1047
-20.2296
-20.3685
-20.5116
-20.6467
-20.7621
-20.8504
-20.9088
-20.9377
-29.5216
-29.3784
-29.1128
-28.7593
-28.3578
-27.9436
-27.54
-27.1599
-26.8072
-26.4773
-26.1619
-25.853
-25.547
-25.2436
-24.9457
-24.6595
-24.3911
-24.144
-23.9187
-23.713
-23.5216
-23.3381
-23.1573
-22.9771
-22.7975
-22.6201
-22.4481
-22.2836
-22.1253
-21.9702
-21.8148
-21.658
-21.5001
-21.3431
-21.1906
-21.0463
-20.9124
-20.7895
-20.6767
-20.5713
-20.4702
-20.3709
-20.2728
-20.1765
-20.0838
-19.9979
-19.922
-19.8587
-19.8103
-19.7786
-19.7656
-19.7735
-19.8049
-19.8628
-19.9495
-20.065
-20.2058
-20.3643
-20.5289
-20.6842
-20.8154
-20.9139
-20.9777
-21.0087
-29.8258
-29.6565
-29.3458
-28.9371
-28.4813
-28.0216
-27.5839
-27.1813
-26.8166
-26.4814
-26.1629
-25.8499
-25.5377
-25.226
-24.9181
-24.6225
-24.348
-24.0984
-23.8744
-23.6734
-23.4883
-23.3106
-23.1335
-22.9546
-22.7746
-22.5958
-22.4231
-22.2598
-22.1042
-21.9516
-21.7972
-21.6395
-21.4788
-21.3175
-21.1606
-21.0132
-20.8778
-20.755
-20.6437
-20.5404
-20.4407
-20.3411
-20.2409
-20.141
-20.0434
-19.9521
-19.8711
-19.8034
-19.7511
-19.7163
-19.701
-19.7074
-19.7389
-19.7996
-19.8931
-20.0206
-20.1785
-20.3586
-20.5477
-20.7263
-20.8749
-20.9835
-21.052
-21.0846
-30.1565
-29.956
-29.5918
-29.1183
-28.6002
-28.091
-27.6176
-27.1929
-26.8186
-26.4814
-26.1627
-25.8467
-25.5286
-25.2083
-24.8888
-24.5822
-24.301
-24.0488
-23.8265
-23.6317
-23.4548
-23.2842
-23.111
-22.9334
-22.7525
-22.5712
-22.3969
-22.2352
-22.0834
-21.9343
-21.7812
-21.6224
-21.4586
-21.292
-21.1297
-20.9788
-20.8417
-20.7192
-20.6104
-20.5101
-20.4124
-20.3127
-20.2104
-20.1065
-20.0032
-19.9057
-19.8193
-19.7468
-19.6903
-19.6522
-19.634
-19.6382
-19.6689
-19.7314
-19.8311
-19.9708
-20.1471
-20.3511
-20.5682
-20.7736
-20.9411
-21.0595
-21.1315
-21.1648
-30.5161
-30.2776
-29.8506
-29.3012
-28.7122
-28.1497
-27.6393
-27.1932
-26.8126
-26.4774
-26.1618
-25.8442
-25.5204
-25.1911
-24.858
-24.5383
-24.2497
-23.9949
-23.7749
-23.588
-23.4213
-23.2595
-23.0905
-22.9138
-22.7314
-22.5461
-22.3692
-22.2096
-22.0629
-21.9186
-21.7671
-21.6072
-21.4399
-21.2667
-21.0976
-20.9428
-20.804
-20.6821
-20.5766
-20.4805
-20.3857
-20.2861
-20.1814
-20.0733
-19.9636
-19.8591
-19.7668
-19.6891
-19.6283
-19.5865
-19.565
-19.5664
-19.5951
-19.6581
-19.7632
-19.9153
-20.1111
-20.3411
-20.5902
-20.827
-21.015
-21.1421
-21.2159
-21.2488
-30.9069
-30.6223
-30.1223
-29.4839
-28.814
-28.1957
-27.6475
-27.1805
-26.7979
-26.4698
-26.1613
-25.843
-25.5137
-25.1755
-24.8258
-24.4901
-24.194
-23.9365
-23.719
-23.5423
-23.3884
-23.2372
-23.0725
-22.8961
-22.7119
-22.5205
-22.3392
-22.1826
-22.0428
-21.9049
-21.7552
-21.594
-21.4231
-21.2417
-21.0642
-20.9052
-20.7646
-20.6434
-20.5424
-20.4519
-20.3612
-20.2616
-20.1544
-20.0419
-19.9246
-19.812
-19.7136
-19.6307
-19.5651
-19.5196
-19.4946
-19.4923
-19.5176
-19.5796
-19.689
-19.8536
-20.07
-20.3277
-20.6138
-20.8876
-21.0976
-21.2316
-21.3046
-21.3356
-31.332
-30.9908
-30.4071
-29.6644
-28.9022
-28.227
-27.6407
-27.1532
-26.7739
-26.4589
-26.1625
-25.8437
-25.5089
-25.1625
-24.7925
-24.4369
-24.1338
-23.8734
-23.6582
-23.4944
-23.3564
-23.2183
-23.0573
-22.8806
-22.6944
-22.4942
-22.3061
-22.1537
-22.0232
-21.894
-21.7459
-21.5832
-21.4089
-21.217
-21.0289
-20.866
-20.7234
-20.6028
-20.5077
-20.4246
-20.3393
-20.2396
-20.1296
-20.0127
-19.8865
-19.7644
-19.66
-19.5717
-19.5011
-19.452
-19.4231
-19.4163
-19.437
-19.4961
-19.608
-19.7853
-20.0231
-20.3099
-20.6384
-20.957
-21.1903
-21.3282
-21.3971
-21.4241
-31.7947
-31.3833
-30.7057
-29.8403
-28.9723
-28.2423
-27.6178
-27.1092
-26.7405
-26.4454
-26.1673
-25.8471
-25.5062
-25.1539
-24.7584
-24.3773
-24.0691
-23.8055
-23.5917
-23.4443
-23.3258
-23.204
-23.0453
-22.8673
-22.68
-22.467
-22.2686
-22.1225
-22.0042
-21.8866
-21.7395
-21.5748
-21.3982
-21.1928
-20.991
-20.8252
-20.6804
-20.5597
-20.4727
-20.3988
-20.3208
-20.2202
-20.1069
-19.9864
-19.8493
-19.7159
-19.606
-19.5123
-19.4363
-19.3839
-19.3511
-19.3392
-19.3534
-19.4074
-19.5198
-19.7099
-19.9702
-20.2859
-20.6637
-21.0373
-21.2947
-21.4319
-21.4923
-21.5133
-32.2991
-31.7988
-31.0195
-30.009
-29.0186
-28.241
-27.5785
-27.0462
-26.6974
-26.4299
-26.1783
-25.8535
-25.5053
-25.1523
-24.7235
-24.3095
-24.0005
-23.7332
-23.518
-23.3921
-23.297
-23.1959
-23.0368
-22.856
-22.6701
-22.4388
-22.2248
-22.0886
-21.9859
-21.884
-21.7359
-21.5686
-21.3922
-21.1691
-20.9493
-20.7829
-20.6356
-20.5134
-20.4372
-20.3748
-20.3064
-20.2036
-20.0864
-19.9636
-19.8133
-19.6661
-19.552
-19.4528
-19.3708
-19.3158
-19.279
-19.2614
-19.2675
-19.3138
-19.4236
-19.6272
-19.9113
-20.2536
-20.6885
-21.1315
-21.4125
-21.5427
-21.5894
-21.6017
-32.8504
-32.2348
-31.3514
-30.1676
-29.0338
-28.2239
-27.5229
-26.9606
-26.6449
-26.4128
-26.1988
-25.8628
-25.5051
-25.161
-24.6881
-24.2301
-23.9292
-23.6568
-23.4353
-23.338
-23.2702
-23.196
-23.0317
-22.846
-22.6668
-22.4095
-22.1723
-22.0514
-21.9683
-21.8879
-21.7352
-21.5639
-21.393
-21.1459
-20.9021
-20.7399
-20.5892
-20.4629
-20.4013
-20.3526
-20.2973
-20.1898
-20.0674
-19.9456
-19.7783
-19.6138
-19.4982
-19.3936
-19.3044
-19.2481
-19.2075
-19.1837
-19.1798
-19.2155
-19.3188
-19.537
-19.8469
-20.21
-20.7111
-21.2439
-21.5459
-21.6601
-21.687
-21.688
-33.4552
-32.6857
-31.7066
-30.313
-29.0076
-28.1936
-27.4523
-26.8478
-26.5842
-26.3943
-26.2336
-25.8745
-25.5033
-25.1855
-24.6523
-24.1346
-23.8573
-23.5772
-23.3406
-23.2824
-23.2455
-23.2075
-23.0295
-22.8356
-22.6735
-22.3789
-22.1075
-22.0111
-21.9511
-21.9006
-21.7369
-21.5594
-21.4032
-21.1234
-20.8468
-20.6972
-20.5419
-20.4064
-20.3653
-20.3322
-20.2952
-20.1784
-20.0493
-19.9341
-19.7445
-19.5578
-19.4454
-19.3349
-19.2368
-19.1814
-19.1369
-19.1069
-19.0909
-19.1129
-19.2041
-19.4391
-19.7785
-20.151
-20.7287
-21.3803
-21.6971
-21.7835
-21.7836
-21.7707
-34.1221
-33.1413
-32.0939
-30.442
-28.9262
-28.1561
-27.3688
-26.7008
-26.5175
-26.3732
-26.2896
-25.8872
-25.4955
-25.2335
-24.6164
-24.0157
-23.7887
-23.4962
-23.2295
-23.2268
-23.222
-23.2345
-23.0292
-22.822
-22.695
-22.347
-22.0255
-21.9684
-21.9337
-21.9258
-21.7401
-21.5527
-21.4271
-21.1015
-20.7794
-20.657
-20.4942
-20.3415
-20.3299
-20.3132
-20.3023
-20.1689
-20.0304
-19.9315
-19.7118
-19.4956
-19.3946
-19.2774
-19.1673
-19.1164
-19.0676
-19.0318
-19.0015
-19.0068
-19.0777
-19.3335
-19.7091
-20.0711
-20.7372
-21.5491
-21.8683
-21.9114
-21.8775
-21.8483
-34.8631
-33.5846
-32.5277
-30.5511
-28.7702
-28.1218
-27.2764
-26.5092
-26.4496
-26.3467
-26.3766
-25.8982
-25.4746
-25.3167
-24.5803
-23.8628
-23.7299
-23.4158
-23.0956
-23.1737
-23.1977
-23.2831
-23.0292
-22.8007
-22.7387
-22.3137
-21.9193
-21.9251
-21.9142
-21.9684
-21.7434
-21.5398
-21.471
-21.0801
-20.6939
-20.6228
-20.4476
-20.2647
-20.2966
-20.2944
-20.322
-20.1604
-20.0082
-19.9418
-19.6803
-19.424
-19.3477
-19.2216
-19.0945
-19.0539
-19.0001
-18.9594
-18.9122
-18.8984
-18.9375
-19.2198
-19.6441
-19.9627
-20.73
-21.7623
-22.061
-22.0418
-21.9668
-21.9194
-35.6947
-33.9878
-33.0306
-30.6366
-28.5124
-28.1076
-27.1802
-26.2582
-26.3885
-26.3087
-26.5084
-25.9035
-25.4292
-25.4515
-24.5439
-23.6606
-23.6909
-23.3395
-22.9294
-23.1281
-23.1687
-23.3621
-23.0269
-22.7645
-22.8152
-22.279
-21.7794
-21.8852
-21.8893
-22.036
-21.7446
-21.5147
-21.5438
-21.0593
-20.582
-20.5999
-20.4036
-20.1707
-20.268
-20.2737
-20.359
-20.1514
-19.9788
-19.9702
-19.6495
-19.3384
-19.3076
-19.1683
-19.0167
-18.9953
-18.9342
-18.8907
-18.8235
-18.7896
-18.78
-19.0974
-19.5919
-19.8159
-20.6978
-22.0364
-22.276
-22.172
-22.0496
-21.9829
-36.6399
-34.3083
-33.6374
-30.6946
-28.1151
-28.1394
-27.0877
-25.9259
-26.3482
-26.2481
-26.705
-25.8973
-25.3425
-25.662
-24.507
-23.3871
-23.6868
-23.2716
-22.7171
-23.0982
-23.1276
-23.4841
-23.0183
-22.7025
-22.9397
-22.2425
-21.5925
-21.8558
-21.8531
-22.139
-21.7403
-21.468
-21.6584
-21.0387
-20.4316
-20.5967
-20.3648
-20.0518
-20.2486
-20.2469
-20.4199
-20.1398
-19.9363
-20.0248
-19.6193
-19.2319
-19.2787
-19.1184
-18.9308
-18.9428
-18.8697
-18.827
-18.7358
-18.6832
-18.6006
-18.9648
-19.5654
-19.6179
-20.6271
-22.3949
-22.512
-22.2982
-22.1238
-22.0377
-37.7312
-34.4826
-34.3997
-30.7209
-27.5264
-28.2556
-27.0078
-25.481
-26.3513
-26.1456
-26.9943
-25.8711
-25.1896
-25.9814
-24.4688
-23.0118
-23.7401
-23.2177
-22.439
-23.0976
-23.0623
-23.6665
-22.9981
-22.5991
-23.1337
-22.2038
-21.3405
-21.8488
-21.7955
-22.2923
-21.7262
-21.3864
-21.8329
-21.018
-20.2259
-20.6253
-20.3341
-19.8972
-20.2458
-20.2073
-20.5146
-20.1226
-19.8724
-20.1166
-19.5889
-19.0953
-19.2676
-19.0728
-18.8326
-18.8993
-18.8055
-18.7701
-18.6487
-18.5839
-18.3932
-18.8189
-19.5839
-19.3516
-20.4987
-22.8701
-22.7645
-22.4158
-22.1877
-22.0832
-39.0133
-34.418
-35.3922
-30.7104
-26.6757
-28.5112
-26.9517
-24.8799
-26.4327
-25.9707
-27.4155
-25.8138
-24.9356
-26.4557
-24.4283
-22.4928
-23.8825
-23.185
-22.0678
-23.1476
-22.9532
-23.9343
-22.9591
-22.4318
-23.4265
-22.1619
-20.9989
-21.8831
-21.7003
-22.5169
-21.6961
-21.2508
-22.0922
-20.9965
-19.9419
-20.7032
-20.3155
-19.6918
-20.2714
-20.1443
-20.6563
-20.0957
-19.7751
-20.2609
-19.5574
-18.9158
-19.2838
-19.0325
-18.7163
-18.8695
-18.7399
-18.7219
-18.5614
-18.4979
-18.1495
-18.6545
-19.6744
-18.9958
-20.2862
-23.5063
-23.0241
-22.5195
-22.2398
-22.1189
-40.548
-33.9837
-36.7202
-30.6568
-25.4685
-28.9828
-26.9324
-24.0619
-26.6451
-25.676
-28.0225
-25.7105
-24.5321
-27.147
-24.3834
-21.7735
-24.1583
-23.1817
-21.5655
-23.2806
-22.7704
-24.3215
-22.8918
-22.1699
-23.858
-22.115
-20.535
-21.9871
-21.5424
-22.8414
-21.6421
-21.035
-22.47
-20.9732
-19.5485
-20.8546
-20.3135
-19.4147
-20.3431
-20.0414
-20.8638
-20.054
-19.628
-20.4786
-19.5232
-18.6764
-19.3407
-18.9984
-18.5735
-18.8598
-18.6697
-18.6853
-18.4713
-18.4348
-17.8591
-18.4628
-19.8746
-18.5232
-19.9537
-24.3629
-23.2743
-22.6036
-22.2788
-22.1449
-42.4185
-32.9991
-38.5294
-30.5518
-23.7801
-29.7745
-26.9641
-22.9453
-27.0655
-25.1914
-28.8885
-25.5423
-23.9137
-28.138
-24.3311
-20.7792
-24.6281
-23.2179
-20.8808
-23.5438
-22.4695
-24.8746
-22.784
-21.7718
-24.481
-22.0602
-19.9053
-22.2025
-21.2848
-23.3049
-21.5543
-20.7036
-23.0111
-20.9466
-19.0048
-21.1125
-20.3335
-19.0377
-20.4869
-19.8742
-21.1623
-19.9905
-19.4091
-20.7975
-19.4838
-18.3548
-19.4568
-18.9709
-18.3934
-18.8798
-18.59
-18.6644
-18.3744
-18.4073
-17.509
-18.2299
-20.2353
-17.9005
-19.4531
-25.5193
-23.4884
-22.6628
-22.3043
-22.1616
-44.736
-31.2202
-41.0168
-30.3836
-21.4491
-31.0249
-27.0623
-21.4209
-27.8028
-24.4162
-30.1117
-25.285
-22.9943
-29.5361
-24.2667
-19.4131
-25.3719
-23.3044
-19.9456
-24.0046
-21.9869
-25.6554
-22.6204
-21.1823
-25.3643
-21.9928
-19.0531
-22.5881
-20.8739
-23.9593
-21.4195
-20.2092
-23.7734
-20.9139
-18.2572
-21.5205
-20.3811
-18.5227
-20.7392
-19.6073
-21.585
-19.896
-19.0886
-21.2533
-19.4348
-17.9211
-19.6557
-18.9486
-18.1602
-18.941
-18.4921
-18.6634
-18.2622
-18.4314
-17.0815
-17.9334
-20.8212
-17.0845
-18.7189
-27.0769
-23.6238
-22.6905
-22.3139
-22.1668
)
;

boundaryField
{
    left
    {
        type            calculated;
        value           nonuniform List<scalar> 
32
(
-27.5091
-27.5365
-27.5889
-27.6642
-27.7608
-27.8775
-28.0138
-28.1691
-28.3436
-28.5375
-28.7513
-28.9858
-29.2422
-29.5216
-29.8258
-30.1565
-30.5161
-30.9069
-31.332
-31.7947
-32.2991
-32.8504
-33.4552
-34.1221
-34.8631
-35.6947
-36.6399
-37.7312
-39.0133
-40.548
-42.4185
-44.736
)
;
    }
    right
    {
        type            calculated;
        value           nonuniform List<scalar> 
32
(
-20.5095
-20.5155
-20.5271
-20.544
-20.5662
-20.5936
-20.6262
-20.6642
-20.7078
-20.7569
-20.8116
-20.8719
-20.9377
-21.0087
-21.0846
-21.1648
-21.2488
-21.3356
-21.4241
-21.5133
-21.6017
-21.688
-21.7707
-21.8483
-21.9194
-21.9829
-22.0377
-22.0832
-22.1189
-22.1449
-22.1616
-22.1668
)
;
    }
    interface
    {
        type            calculated;
        value           nonuniform List<scalar> 
64
(
-46.0223
-30.0972
-42.4582
-30.282
-20.1003
-31.7845
-27.1299
-20.5412
-28.2667
-23.9411
-30.8265
-25.1307
-22.447
-30.3521
-24.2307
-18.6235
-25.8237
-23.3617
-19.4055
-24.2942
-21.6908
-26.1116
-22.5224
-20.8319
-25.8808
-21.9551
-18.5634
-22.8321
-20.6221
-24.3417
-21.3385
-19.9146
-24.218
-20.8955
-17.8248
-21.7681
-20.4125
-18.2251
-20.8977
-19.4436
-21.8321
-19.8396
-18.8987
-21.5203
-19.4072
-17.6718
-19.7791
-18.9384
-18.0279
-18.9835
-18.4372
-18.6684
-18.2008
-18.4586
-16.8459
-17.7657
-21.1795
-16.622
-18.2839
-27.97
-23.665
-22.6955
-22.3142
-22.1661
)
;
    }
    bottom
    {
        type            calculated;
        value           nonuniform List<scalar> 
64
(
-27.502
-27.4683
-27.4021
-27.3051
-27.1803
-27.0307
-26.8599
-26.6715
-26.469
-26.2555
-26.0341
-25.8072
-25.5771
-25.3459
-25.1151
-24.8862
-24.6604
-24.4384
-24.221
-24.0086
-23.8015
-23.5999
-23.4037
-23.2129
-23.0274
-22.8472
-22.672
-22.502
-22.3369
-22.1769
-22.0218
-21.8718
-21.727
-21.5875
-21.4536
-21.3254
-21.2031
-21.0871
-20.9774
-20.8744
-20.7783
-20.6893
-20.6078
-20.534
-20.4684
-20.4112
-20.3627
-20.3234
-20.2933
-20.2725
-20.2609
-20.2582
-20.2639
-20.2772
-20.297
-20.3219
-20.3505
-20.381
-20.4115
-20.4403
-20.4657
-20.4862
-20.5005
-20.5079
)
;
    }
    defaultFaces
    {
        type            empty;
    }
}


// ************************************************************************* //
