/*--------------------------------*- C++ -*----------------------------------*\
| =========                 |                                                 |
| \\      /  F ield         | OpenFOAM: The Open Source CFD Toolbox           |
|  \\    /   O peration     | Version:  5.x                                   |
|   \\  /    A nd           | Web:      www.OpenFOAM.org                      |
|    \\/     M anipulation  |                                                 |
\*---------------------------------------------------------------------------*/
FoamFile
{
    version     2.0;
    format      ascii;
    class       volScalarField;
    location    "3.6999";
    object      gradTx;
}
// * * * * * * * * * * * * * * * * * * * * * * * * * * * * * * * * * * * * * //

dimensions      [0 -1 0 1 0 0 0];

internalField   nonuniform List<scalar> 
2048
(
0.00773436
0.0229669
0.037513
0.0509861
0.0630927
0.0736473
0.0825703
0.089874
0.0956393
0.0999912
0.103076
0.105045
0.106045
0.106212
0.105674
0.104552
0.102962
0.101014
0.0988077
0.0964337
0.0939668
0.0914647
0.088968
0.0865012
0.0840763
0.0816953
0.0793536
0.0770417
0.0747458
0.072449
0.0701317
0.067773
0.0653529
0.0628542
0.0602643
0.0575756
0.0547845
0.0518898
0.0488899
0.0457806
0.0425541
0.0391992
0.0357029
0.0320538
0.028246
0.0242828
0.0201803
0.0159702
0.0117015
0.00744136
0.00327462
-0.000697723
-0.00436189
-0.0075966
-0.0102807
-0.0123025
-0.0135711
-0.0140266
-0.013649
-0.0124641
-0.0105442
-0.00800464
-0.00499669
-0.00169824
0.0230603
0.068464
0.111786
0.151859
0.187803
0.21907
0.245439
0.266964
0.283904
0.296649
0.305644
0.311344
0.314186
0.314573
0.312882
0.309471
0.304681
0.298837
0.292241
0.285161
0.27782
0.27039
0.262988
0.255686
0.248516
0.241481
0.234566
0.227743
0.22097
0.214196
0.207363
0.200406
0.193266
0.18589
0.17824
0.170294
0.162044
0.153488
0.144622
0.135437
0.125908
0.116001
0.105674
0.0948916
0.0836321
0.0719024
0.0597481
0.0472614
0.0345865
0.0219222
0.00952072
-0.00231671
-0.0132493
-0.0229122
-0.0309393
-0.0369918
-0.0407917
-0.0421546
-0.0410171
-0.0374545
-0.0316835
-0.024051
-0.0150116
-0.00510147
0.0382586
0.113546
0.185269
0.251443
0.310595
0.361839
0.40485
0.439776
0.46711
0.487542
0.501844
0.510784
0.515081
0.515393
0.51233
0.506471
0.498375
0.488577
0.477581
0.465832
0.453701
0.441468
0.429323
0.417373
0.405661
0.394188
0.382922
0.371815
0.3608
0.34979
0.338686
0.327379
0.315764
0.303752
0.29128
0.278314
0.264845
0.250877
0.236412
0.221434
0.205905
0.189762
0.172932
0.155344
0.136953
0.117763
0.0978389
0.0773285
0.0564649
0.0355732
0.0150692
-0.00454711
-0.0227061
-0.0387931
-0.0521858
-0.0623032
-0.0686634
-0.0709418
-0.069021
-0.0630211
-0.0533053
-0.0404588
-0.0252483
-0.0085788
0.053643
0.159123
0.259376
0.351527
0.433489
0.504059
0.56288
0.610283
0.647077
0.674326
0.693173
0.704714
0.709946
0.709765
0.70499
0.696405
0.684775
0.670849
0.655336
0.638866
0.621961
0.605005
0.58825
0.571825
0.555771
0.540073
0.524682
0.509526
0.494511
0.47952
0.464407
0.449013
0.433181
0.41678
0.39972
0.38196
0.363498
0.344354
0.324544
0.304053
0.282829
0.260776
0.237775
0.21371
0.188499
0.162127
0.134673
0.106328
0.0774091
0.0483623
0.0197645
-0.0076845
-0.0331789
-0.0558396
-0.0747651
-0.0891031
-0.0981363
-0.101372
-0.0986191
-0.0900376
-0.0761451
-0.057783
-0.0360518
-0.0122476
0.0694977
0.206012
0.335367
0.45368
0.558212
0.64749
0.721221
0.780044
0.82521
0.858256
0.880755
0.894153
0.899714
0.898541
0.891634
0.879957
0.864476
0.846155
0.825922
0.80461
0.782894
0.761265
0.740018
0.719287
0.699092
0.679386
0.660094
0.641125
0.622362
0.603655
0.58481
0.565607
0.545826
0.525284
0.503863
0.481518
0.458269
0.434167
0.409254
0.383527
0.356917
0.329287
0.30046
0.270252
0.238528
0.20524
0.170463
0.134427
0.0975225
0.0603126
0.0235323
-0.0119165
-0.0449817
-0.0744987
-0.0992543
-0.118082
-0.129983
-0.134255
-0.130606
-0.119229
-0.100811
-0.0764787
-0.0477029
-0.0162027
0.0860944
0.254991
0.41442
0.559336
0.686304
0.793641
0.88126
0.950281
1.00256
1.04024
1.0654
1.07984
1.08508
1.08238
1.07288
1.05768
1.03796
1.0149
0.989674
0.963338
0.936741
0.91047
0.884851
0.859993
0.835863
0.812368
0.7894
0.766851
0.744592
0.722442
0.700156
0.677437
0.653986
0.629554
0.603988
0.577249
0.549393
0.520524
0.490733
0.460039
0.428358
0.395499
0.361204
0.325204
0.28728
0.247332
0.205422
0.161804
0.116938
0.071497
0.0263703
-0.0173366
-0.0583152
-0.0950904
-0.126096
-0.149795
-0.164846
-0.170277
-0.165661
-0.151214
-0.127815
-0.0969252
-0.0604321
-0.0205212
0.103707
0.306837
0.497692
0.669865
0.819176
0.94383
1.04414
1.12193
1.17988
1.2209
1.24763
1.26227
1.26654
1.26178
1.2492
1.23004
1.20562
1.17741
1.14685
1.11526
1.08369
1.05281
1.02295
0.99416
0.966318
0.939257
0.91283
0.886927
0.86142
0.83611
0.810689
0.784767
0.757938
0.729867
0.700358
0.669387
0.63707
0.603597
0.569131
0.533732
0.4973
0.459578
0.4202
0.378773
0.334974
0.288626
0.23976
0.188649
0.135814
0.0820317
0.0283393
-0.0239567
-0.0732828
-0.117827
-0.155622
-0.184691
-0.203265
-0.210033
-0.204377
-0.18653
-0.157598
-0.119439
-0.0744268
-0.0252647
0.122621
0.362353
0.586358
0.786617
0.958162
1.09923
1.21078
1.29566
1.35764
1.40056
1.42774
1.44175
1.44442
1.43711
1.421
1.39739
1.36779
1.33395
1.29766
1.26054
1.22387
1.18843
1.15449
1.122
1.09069
1.06029
1.03061
1.00156
0.973046
0.944861
0.916632
0.887844
0.857948
0.82649
0.793224
0.758149
0.721477
0.683519
0.644555
0.604706
0.563857
0.521661
0.477611
0.431153
0.381821
0.329336
0.273689
0.215161
0.154329
0.0920684
0.0295533
-0.0317172
-0.0899018
-0.142828
-0.18807
-0.223129
-0.245709
-0.254055
-0.247292
-0.225658
-0.190539
-0.144279
-0.0898336
-0.0304799
0.143145
0.422397
0.681648
0.910962
1.10455
1.26088
1.38193
1.47192
1.53605
1.57932
1.6058
1.6184
1.61894
1.60866
1.58861
1.56007
1.52475
1.48473
1.44223
1.39927
1.35739
1.31744
1.27965
1.24373
1.20923
1.17571
1.14297
1.11095
1.07965
1.04888
1.01819
0.986906
0.954277
0.919692
0.882831
0.843739
0.802764
0.760395
0.717077
0.673022
0.628103
0.581854
0.53358
0.482519
0.428018
0.369672
0.307414
0.241537
0.172674
0.101785
0.0301705
-0.0404961
-0.108113
-0.170126
-0.223597
-0.2654
-0.292584
-0.302827
-0.294902
-0.269034
-0.226963
-0.171651
-0.106756
-0.0361973
0.165618
0.487905
0.784878
1.04432
1.2596
1.42974
1.55815
1.65094
1.7151
1.75705
1.7817
1.79219
1.79021
1.77666
1.75232
1.71838
1.67674
1.62992
1.58067
1.53149
1.48428
1.43995
1.39857
1.35957
1.32218
1.28578
1.25012
1.21526
1.18137
1.14832
1.11556
1.08218
1.04719
1.00974
0.969426
0.926352
0.881063
0.834298
0.78673
0.738705
0.690082
0.640239
0.588235
0.533037
0.473756
0.409831
0.341135
0.267975
0.191041
0.111378
0.0303845
-0.0501173
-0.127786
-0.199679
-0.26228
-0.311727
-0.344256
-0.356807
-0.347682
-0.317061
-0.267144
-0.201699
-0.125249
-0.0424285
0.190419
0.55991
0.897475
1.18817
1.42458
1.60663
1.73984
1.83272
1.89453
1.93341
1.95514
1.96299
1.95826
1.94132
1.91243
1.87261
1.824
1.76966
1.71302
1.65722
1.60455
1.55602
1.51142
1.46975
1.42983
1.39076
1.35228
1.31466
1.27834
1.2433
1.20889
1.17389
1.13695
1.09692
1.05326
1.00618
0.956487
0.90527
0.85351
0.80174
0.749806
0.696876
0.641685
0.58286
0.519217
0.450005
0.375039
0.294658
0.209623
0.12105
0.0304147
-0.060358
-0.148728
-0.231368
-0.30413
-0.362278
-0.401048
-0.416438
-0.406097
-0.370119
-0.311307
-0.234501
-0.14531
-0.0491633
0.217974
0.639564
1.021
1.3441
1.60071
1.79232
1.92722
2.01705
2.07387
2.10785
2.12569
2.13057
2.12311
2.1028
2.06922
2.02307
1.96676
1.90408
1.83929
1.77638
1.71816
1.66568
1.61834
1.57452
1.53248
1.49096
1.44968
1.40928
1.37063
1.33393
1.29834
1.26225
1.22382
1.18151
1.13458
1.0834
1.02913
0.973326
0.917378
0.862079
0.80726
0.751806
0.694033
0.63214
0.564579
0.490375
0.409298
0.321755
0.228595
0.131003
0.0304976
-0.0709558
-0.170683
-0.265003
-0.349083
-0.417164
-0.463256
-0.482155
-0.470621
-0.428573
-0.35962
-0.270053
-0.16687
-0.0563646
0.248763
0.728153
1.15715
1.51377
1.78925
1.98742
2.12035
2.20353
2.25244
2.27965
2.29279
2.29464
2.28471
2.26134
2.22305
2.17009
2.10525
2.03327
1.95947
1.88889
1.82502
1.76897
1.7195
1.67416
1.63047
1.58671
1.54256
1.49922
1.45828
1.42025
1.38404
1.34748
1.30811
1.26383
1.21367
1.15819
1.09908
1.03845
0.978255
0.919637
0.862402
0.805056
0.74537
0.681023
0.610018
0.531112
0.444064
0.349411
0.248115
0.14143
0.0308775
-0.0816162
-0.193343
-0.300327
-0.39701
-0.476442
-0.531145
-0.554404
-0.541753
-0.492786
-0.412192
-0.308258
-0.189775
-0.0639637
0.283336
0.827119
1.30783
1.69896
1.9914
2.19244
2.3191
2.39154
2.42934
2.44791
2.45579
2.45486
2.44305
2.41716
2.37431
2.31403
2.23971
2.15731
2.07349
1.99458
1.92501
1.86587
1.81506
1.76897
1.72421
1.67838
1.63115
1.58456
1.54128
1.50228
1.4661
1.42978
1.39009
1.34422
1.29081
1.23075
1.16641
1.10061
1.03603
0.97429
0.915169
0.856645
0.795787
0.729656
0.655711
0.572376
0.479467
0.377743
0.268312
0.152502
0.0317972
-0.0920196
-0.216345
-0.33701
-0.447712
-0.540113
-0.60495
-0.633641
-0.620039
-0.56313
-0.46906
-0.348903
-0.213774
-0.0718544
0.322315
0.938068
1.47508
1.90157
2.20835
2.40773
2.52318
2.58029
2.60348
2.61158
2.61393
2.61089
2.59811
2.57054
2.52346
2.45531
2.37038
2.27631
2.18125
2.09322
2.01793
1.95639
1.90523
1.8593
1.81412
1.76641
1.71569
1.66531
1.61955
1.58
1.5446
1.50935
1.47009
1.42305
1.3663
1.30124
1.23118
1.15975
1.09054
1.02588
0.96548
0.906585
0.845367
0.77819
0.70184
0.614316
0.515609
0.406835
0.289283
0.164362
0.0334891
-0.101829
-0.239279
-0.374658
-0.50092
-0.60812
-0.684867
-0.720342
-0.706093
-0.640002
-0.530182
-0.39164
-0.238505
-0.0798886
0.366419
1.06278
1.66116
2.12363
2.4412
2.63345
2.73213
2.7688
2.77356
2.76944
2.76644
2.7624
2.74989
2.72184
2.67107
2.59438
2.49749
2.39033
2.28263
2.18455
2.10353
2.04049
1.99022
1.9455
1.90069
1.85131
1.79646
1.74143
1.69292
1.65333
1.61964
1.58639
1.54844
1.50073
1.44045
1.36983
1.29343
1.21577
1.14161
1.07421
1.01324
0.954897
0.894194
0.826775
0.7486
0.657074
0.552557
0.436737
0.311087
0.177119
0.0361654
-0.110697
-0.261692
-0.412808
-0.556301
-0.680345
-0.771042
-0.815003
-0.800636
-0.723847
-0.595418
-0.435955
-0.263475
-0.0878723
0.416483
1.20324
1.86848
2.36732
2.69098
2.86953
2.94536
2.95597
2.93813
2.92017
2.9125
2.90911
2.89838
2.87142
2.81784
2.73173
2.62127
2.49949
2.3775
2.26819
2.1815
2.11816
2.07029
2.02796
1.98448
1.93367
1.87375
1.81282
1.76116
1.72219
1.69131
1.66108
1.62548
1.57773
1.51361
1.43668
1.35325
1.26859
1.18898
1.11904
1.05834
1.00161
0.942342
0.875567
0.796209
0.700776
0.59034
0.467464
0.333742
0.190834
0.0400098
-0.118277
-0.283091
-0.450929
-0.613458
-0.756614
-0.863545
-0.918129
-0.904536
-0.815187
-0.664508
-0.481144
-0.288053
-0.0955639
0.473494
1.36158
2.09964
2.63498
2.95852
3.1156
3.16216
3.14058
3.09553
3.06227
3.05132
3.05086
3.0436
3.01974
2.96462
2.8679
2.74188
2.60391
2.46571
2.34371
2.25144
2.18937
2.14576
2.10704
2.06604
2.01424
1.94784
1.87926
1.82391
1.78644
1.75973
1.73356
1.70155
1.6546
1.5861
1.5019
1.41069
1.3181
1.23236
1.1601
1.1007
1.04679
0.989875
0.924719
0.844919
0.745541
0.628937
0.498997
0.35723
0.205523
0.0451686
-0.124227
-0.302948
-0.488425
-0.671938
-0.836703
-0.962347
-1.03022
-1.01887
-0.914654
-0.737034
-0.526277
-0.311462
-0.102676
0.538665
1.54012
2.35734
2.92925
3.24446
3.37089
3.38179
3.32136
3.24392
3.19411
3.18218
3.18765
3.18546
3.16721
3.1125
3.0034
2.85937
2.70381
2.54714
2.41055
2.31286
2.25414
2.21704
2.18307
2.14599
2.09393
2.0191
1.94039
1.88069
1.84593
1.82505
1.80393
1.777
1.73202
1.65826
1.56554
1.46587
1.36421
1.27142
1.19703
1.14021
1.09054
1.03682
0.974375
0.895045
0.791468
0.668263
0.531297
0.381494
0.221139
0.0517435
-0.128223
-0.320708
-0.524628
-0.731242
-0.920355
-1.06727
-1.15172
-1.14498
-1.02304
-0.812377
-0.570166
-0.332782
-0.108883
0.613531
1.74132
2.64435
3.25308
3.54912
3.63412
3.60362
3.49705
3.38124
3.31393
3.30444
3.31972
3.32378
3.31427
3.26291
3.13876
2.97364
2.79952
2.62168
2.46803
2.36516
2.3125
2.2847
2.25629
2.22493
2.1739
2.08788
1.99572
1.93085
1.90053
1.88756
1.87219
1.85214
1.81081
1.7304
1.62754
1.51898
1.40685
1.30574
1.22945
1.17681
1.13305
1.08317
1.02466
0.946994
0.838638
0.708151
0.564313
0.406448
0.237573
0.0597854
-0.129968
-0.335793
-0.558794
-0.790839
-1.00732
-1.17792
-1.28299
-1.28462
-1.14135
-0.889636
-0.611335
-0.350965
-0.11383
0.700134
1.96771
2.96329
3.61004
3.87236
3.9033
3.82725
3.66645
3.50523
3.41977
3.4176
3.44771
3.45809
3.46123
3.41775
3.27439
3.08427
2.89161
2.68931
2.51533
2.40758
2.36454
2.34949
2.32676
2.30339
2.25567
2.15459
2.0445
1.97361
1.95011
1.9477
1.93817
1.92721
1.89206
1.80278
1.6877
1.5703
1.44595
1.3348
1.25687
1.21047
1.17463
1.1288
1.07564
1.00132
0.887096
0.748318
0.598011
0.431982
0.254642
0.0692912
-0.129199
-0.347615
-0.590091
-0.850175
-1.09741
-1.29363
-1.42415
-1.44005
-1.27088
-0.967533
-0.647988
-0.364863
-0.117154
0.801296
2.22181
3.31652
4.00454
4.21346
4.17551
4.05281
3.8285
3.61331
3.50947
3.52135
3.57283
3.58754
3.6082
3.57963
3.41056
3.19041
2.98101
2.75007
2.55139
2.43919
2.41044
2.41251
2.39423
2.38178
2.34124
2.21962
2.08572
2.00794
1.99462
2.0062
2.00147
2.00234
1.97725
1.87557
1.74556
1.62034
1.48153
1.358
1.27874
1.24121
1.21578
1.17344
1.12732
1.05879
0.936836
0.788328
0.632415
0.457968
0.272078
0.080204
-0.125703
-0.355585
-0.617578
-0.908686
-1.1906
-1.41335
-1.57497
-1.61428
-1.41328
-1.04426
-0.678
-0.373281
-0.118504
0.921058
2.50599
3.70573
4.44237
4.57085
4.44652
4.28136
3.98231
3.7026
3.58061
3.61556
3.69712
3.71057
3.75498
3.75219
3.54724
3.29055
3.06922
2.80409
2.57495
2.45887
2.45044
2.47535
2.45801
2.46031
2.43332
2.28337
2.11805
2.03262
2.03403
2.0642
2.0613
2.07747
2.0684
1.94877
1.80028
1.66991
1.51362
1.3746
1.29438
1.26907
1.25728
1.21662
1.17958
1.1205
0.987764
0.827531
0.667663
0.484269
0.289514
0.0924196
-0.119322
-0.35914
-0.640173
-0.965791
-1.2872
-1.53556
-1.73466
-1.81126
-1.5707
-1.11728
-0.698916
-0.375039
-0.117573
1.06532
2.82227
4.13146
4.93137
4.94185
4.71041
4.5154
4.12716
3.76974
3.63049
3.70026
3.82386
3.82465
3.90079
3.94058
3.68392
3.38222
3.15863
2.85159
2.5844
2.46525
2.48483
2.54033
2.51674
2.53878
2.5356
2.34611
2.13973
2.04619
2.06839
2.12349
2.1163
2.15224
2.16835
2.0221
1.85051
1.72032
1.54231
1.38367
1.30299
1.29416
1.3003
1.2575
1.23211
1.18804
1.03965
0.864981
0.704094
0.51074
0.306462
0.1058
-0.109968
-0.357768
-0.656619
-1.02088
-1.388
-1.65811
-1.90152
-2.03629
-1.74584
-1.18304
-0.70799
-0.369064
-0.114126
1.24278
3.17207
4.59242
5.48245
5.32219
4.9589
4.75963
4.26241
3.81088
3.65609
3.77556
3.95804
3.92577
4.04407
4.15207
3.81938
3.46163
3.25296
2.8928
2.57779
2.45667
2.51392
2.61083
2.56807
2.61649
2.6531
2.40788
2.14853
2.04693
2.09777
2.18678
2.16435
2.22584
2.28109
2.09491
1.89417
1.77358
1.56771
1.3841
1.30363
1.31657
1.34661
1.29475
1.28433
1.26365
1.09205
0.899341
0.74237
0.537212
0.322292
0.120197
-0.0976302
-0.351052
-0.665423
-1.07325
-1.49465
-1.77812
-2.07257
-2.29643
-1.94212
-1.23665
-0.702272
-0.354492
-0.108032
1.46626
3.55578
5.08449
6.11098
5.70554
5.18067
5.02198
4.38733
3.82153
3.65406
3.84148
4.10711
4.00791
4.18208
4.39693
3.95135
3.52315
3.35782
2.92784
2.55272
2.43123
2.5379
2.69176
2.60834
2.69194
2.79271
2.46833
2.1417
2.03289
2.12218
2.25807
2.20218
2.29682
2.41225
2.16594
1.92818
1.83275
1.58984
1.37455
1.29521
1.33635
1.39883
1.32637
1.33525
1.35056
1.1442
0.928747
0.783635
0.563475
0.336193
0.13549
-0.0823856
-0.338732
-0.6648
-1.12201
-1.60996
-1.89181
-2.24295
-2.60108
-2.16375
-1.27136
-0.678761
-0.330783
-0.0992875
1.75451
3.97229
5.59945
6.83862
6.08267
5.36036
5.31494
4.5007
3.79649
3.62074
3.8976
4.28193
4.06228
4.31046
4.68946
4.076
3.55874
3.48148
2.9565
2.50633
2.38673
2.55667
2.79012
2.63209
2.76258
2.9638
2.52633
2.1159
2.00196
2.14141
2.3432
2.22505
2.36286
2.56966
2.23311
1.94811
1.90238
1.60857
1.3534
1.27651
1.35338
1.46069
1.34941
1.38338
1.45327
1.19488
0.950653
0.829735
0.589224
0.347141
0.151638
-0.0644016
-0.32078
-0.652603
-1.16591
-1.73845
-1.99439
-2.40525
-2.96274
-2.41592
-1.27805
-0.634648
-0.297833
-0.0880367
2.13454
4.41834
6.12325
7.69575
6.4406
5.47747
5.65725
4.60022
3.72983
3.55228
3.94258
4.49792
4.07645
4.42265
5.04945
4.18743
3.5572
3.63594
2.97786
2.43523
2.32077
2.56948
2.91583
2.63147
2.82441
3.17906
2.57961
2.06727
1.95189
2.15475
2.45048
2.22622
2.42044
2.76412
2.29318
1.94783
1.98903
1.62335
1.31876
1.24619
1.3672
1.53753
1.35971
1.42651
1.57803
1.2422
0.961636
0.883492
0.613977
0.353849
0.168743
-0.0439383
-0.297508
-0.626261
-1.20309
-1.8869
-2.07996
-2.5486
-3.39785
-2.70484
-1.24446
-0.567676
-0.256076
-0.0745723
2.64473
4.88768
6.63393
8.72444
6.76128
5.50496
6.07603
4.68159
3.61486
3.44483
3.97339
4.77669
4.03325
4.50919
5.50376
4.27685
3.50331
3.83811
2.98975
2.3356
2.23084
2.57451
3.08267
2.5956
2.87158
3.45543
2.62412
1.99141
1.88049
2.16064
2.59152
2.19641
2.46446
3.0103
2.34133
1.91899
2.10197
1.63297
1.26848
1.2029
1.37678
1.63674
1.35147
1.4615
1.73337
1.28338
0.957176
0.94905
0.636957
0.354719
0.187142
-0.0213426
-0.269691
-0.582725
-1.23073
-2.06514
-2.1414
-2.65753
-3.92795
-3.03786
-1.15441
-0.476632
-0.206546
-0.0593246
3.33858
5.37007
7.09901
9.9822
7.02015
5.40771
6.60938
4.73724
3.4443
3.29485
3.98428
5.14784
3.9095
4.55689
6.08839
4.3317
3.37685
4.11144
2.98798
2.20317
2.11453
2.5682
3.30951
2.5097
2.89587
3.8154
2.65326
1.8836
1.78578
2.15609
2.78223
2.12306
2.48777
3.32784
2.37071
1.85049
2.25405
1.63511
1.20019
1.14531
1.38012
1.76848
1.31688
1.48401
1.93072
1.31438
0.931411
1.03229
0.656918
0.347803
0.207506
0.00296384
-0.238712
-0.518441
-1.24456
-2.28684
-2.17041
-2.71069
-4.58092
-3.42346
-0.986778
-0.362006
-0.150894
-0.0428313
4.28928
5.85007
7.47239
11.5463
7.18426
5.14073
7.30943
4.75465
3.2105
3.09957
3.96538
5.65125
3.67458
4.54783
6.85073
4.33459
3.15147
4.48768
2.96536
2.0335
1.96979
2.54438
3.6217
2.35425
2.88613
4.28832
2.65686
1.73896
1.66626
2.13592
3.04406
1.98963
2.48068
3.74261
2.3718
1.72788
2.46269
1.62578
1.1114
1.07233
1.37383
1.9464
1.24555
1.48826
2.18517
1.32961
0.876862
1.14135
0.671912
0.330756
0.230953
0.0285067
-0.206731
-0.429366
-1.23822
-2.57046
-2.15754
-2.67931
-5.39252
-3.87127
-0.714459
-0.226819
-0.0913245
-0.025693
5.59515
6.30559
7.69083
13.519
7.21011
4.6473
8.2459
4.71416
2.9059
2.85761
3.90094
6.3397
3.28883
4.45836
7.85218
4.26199
2.79352
5.00907
2.91035
1.82217
1.79528
2.49318
4.05279
2.10387
2.82762
4.91206
2.61997
1.55287
1.52131
2.09185
3.40539
1.77466
2.43031
4.28808
2.33174
1.53268
2.75107
1.59863
0.99962
0.983293
1.35248
2.18852
1.12399
1.46665
2.51626
1.3214
0.784156
1.28712
0.679002
0.300812
0.259181
0.0547896
-0.176857
-0.311041
-1.20258
-2.94034
-2.09238
-2.52539
-6.408
-4.39197
-0.30315
-0.077636
-0.0304276
-0.00851655
)
;

boundaryField
{
    left
    {
        type            calculated;
        value           uniform 0;
    }
    right
    {
        type            calculated;
        value           uniform 0;
    }
    interface
    {
        type            calculated;
        value           nonuniform List<scalar> 
64
(
5.59515
6.30559
7.69083
13.519
7.21011
4.6473
8.2459
4.71416
2.9059
2.85761
3.90094
6.3397
3.28883
4.45836
7.85218
4.26199
2.79352
5.00907
2.91035
1.82217
1.79528
2.49318
4.05279
2.10387
2.82762
4.91206
2.61997
1.55287
1.52131
2.09185
3.40539
1.77466
2.43031
4.28808
2.33174
1.53268
2.75107
1.59863
0.99962
0.983293
1.35248
2.18852
1.12399
1.46665
2.51626
1.3214
0.784156
1.28712
0.679002
0.300812
0.259181
0.0547896
-0.176857
-0.311041
-1.20258
-2.94034
-2.09238
-2.52539
-6.408
-4.39197
-0.30315
-0.077636
-0.0304276
-0.00851655
)
;
    }
    bottom
    {
        type            calculated;
        value           nonuniform List<scalar> 
64
(
0.00773436
0.0229669
0.037513
0.0509861
0.0630927
0.0736473
0.0825703
0.089874
0.0956393
0.0999912
0.103076
0.105045
0.106045
0.106212
0.105674
0.104552
0.102962
0.101014
0.0988077
0.0964337
0.0939668
0.0914647
0.088968
0.0865012
0.0840763
0.0816953
0.0793536
0.0770417
0.0747458
0.072449
0.0701317
0.067773
0.0653529
0.0628542
0.0602643
0.0575756
0.0547845
0.0518898
0.0488899
0.0457806
0.0425541
0.0391992
0.0357029
0.0320538
0.028246
0.0242828
0.0201803
0.0159702
0.0117015
0.00744136
0.00327462
-0.000697723
-0.00436189
-0.0075966
-0.0102807
-0.0123025
-0.0135711
-0.0140266
-0.013649
-0.0124641
-0.0105442
-0.00800464
-0.00499669
-0.00169824
)
;
    }
    defaultFaces
    {
        type            empty;
    }
}


// ************************************************************************* //
