/*--------------------------------*- C++ -*----------------------------------*\
| =========                 |                                                 |
| \\      /  F ield         | OpenFOAM: The Open Source CFD Toolbox           |
|  \\    /   O peration     | Version:  5.x                                   |
|   \\  /    A nd           | Web:      www.OpenFOAM.org                      |
|    \\/     M anipulation  |                                                 |
\*---------------------------------------------------------------------------*/
FoamFile
{
    version     2.0;
    format      ascii;
    class       volScalarField;
    location    "3.6999";
    object      T;
}
// * * * * * * * * * * * * * * * * * * * * * * * * * * * * * * * * * * * * * //

dimensions      [0 0 0 1 0 0 0];

internalField   nonuniform List<scalar> 
2048
(
9.80242
9.80266
9.80314
9.80383
9.80473
9.8058
9.80703
9.80838
9.80984
9.81137
9.81296
9.81459
9.81625
9.81791
9.81957
9.82121
9.82283
9.82443
9.82599
9.82752
9.829
9.83045
9.83186
9.83323
9.83456
9.83586
9.83712
9.83834
9.83953
9.84068
9.84179
9.84287
9.84391
9.84491
9.84587
9.84679
9.84767
9.8485
9.84929
9.85003
9.85072
9.85136
9.85195
9.85248
9.85295
9.85336
9.85371
9.85399
9.85421
9.85436
9.85444
9.85446
9.85442
9.85432
9.85418
9.854
9.8538
9.85358
9.85336
9.85315
9.85297
9.85282
9.85272
9.85267
9.4157
9.41642
9.41784
9.41991
9.42258
9.42578
9.42943
9.43345
9.43777
9.44232
9.44704
9.45187
9.45677
9.46169
9.4666
9.47147
9.47627
9.48099
9.48561
9.49012
9.49452
9.4988
9.50297
9.50702
9.51096
9.51479
9.51851
9.52212
9.52562
9.52902
9.53232
9.5355
9.53858
9.54154
9.54439
9.54711
9.54971
9.55218
9.55451
9.5567
9.55874
9.56063
9.56237
9.56393
9.56533
9.56655
9.56758
9.56841
9.56905
9.5695
9.56974
9.56979
9.56967
9.56938
9.56895
9.56841
9.5678
9.56714
9.56648
9.56586
9.56531
9.56487
9.56456
9.5644
9.04534
9.04654
9.04889
9.05233
9.05675
9.06203
9.06806
9.07469
9.0818
9.08928
9.09703
9.10497
9.113
9.12106
9.1291
9.13707
9.14493
9.15265
9.1602
9.16757
9.17476
9.18175
9.18855
9.19516
9.20159
9.20784
9.21391
9.21981
9.22553
9.23108
9.23646
9.24167
9.24669
9.25153
9.25619
9.26064
9.26488
9.26891
9.27272
9.2763
9.27964
9.28274
9.28557
9.28814
9.29043
9.29242
9.29411
9.29548
9.29652
9.29724
9.29764
9.29771
9.29749
9.297
9.29628
9.29537
9.29433
9.29323
9.29212
9.29107
9.29015
9.2894
9.28888
9.28862
8.69036
8.69203
8.69533
8.70014
8.70632
8.71369
8.72207
8.73128
8.74114
8.7515
8.76221
8.77316
8.78423
8.79535
8.80641
8.81738
8.82818
8.83878
8.84914
8.85926
8.86911
8.87869
8.88801
8.89707
8.90588
8.91444
8.92276
8.93084
8.93868
8.94629
8.95367
8.9608
8.9677
8.97434
8.98072
8.98683
8.99266
8.99819
9.00342
9.00833
9.01292
9.01717
9.02107
9.0246
9.02775
9.03049
9.03282
9.0347
9.03614
9.03712
9.03765
9.03774
9.03741
9.0367
9.03567
9.03437
9.03288
9.0313
9.02971
9.02822
9.0269
9.02584
9.02509
9.02471
8.34984
8.35201
8.35628
8.36249
8.37045
8.37994
8.39069
8.40247
8.41507
8.42826
8.44189
8.45579
8.46983
8.4839
8.49791
8.51176
8.52541
8.53878
8.55185
8.56459
8.57699
8.58906
8.60078
8.61218
8.62326
8.63403
8.64449
8.65466
8.66453
8.6741
8.68339
8.69238
8.70107
8.70944
8.71748
8.72518
8.73253
8.7395
8.7461
8.75229
8.75808
8.76345
8.76837
8.77284
8.77682
8.78029
8.78323
8.78562
8.78743
8.78866
8.78932
8.7894
8.78894
8.78799
8.78662
8.78489
8.78293
8.78083
8.77873
8.77675
8.775
8.7736
8.77261
8.77211
8.02296
8.02565
8.03092
8.0386
8.0484
8.06004
8.07321
8.08758
8.1029
8.11891
8.13541
8.15221
8.16915
8.18612
8.20298
8.21964
8.23603
8.25208
8.26775
8.28301
8.29785
8.31228
8.3263
8.33993
8.35318
8.36605
8.37856
8.39072
8.40253
8.41399
8.4251
8.43587
8.44627
8.45631
8.46595
8.47518
8.48399
8.49235
8.50025
8.50769
8.51463
8.52107
8.52699
8.53236
8.53715
8.54134
8.54488
8.54776
8.54994
8.55141
8.55217
8.55223
8.55163
8.55041
8.54866
8.54647
8.54398
8.54132
8.53866
8.53614
8.53393
8.53215
8.5309
8.53026
7.70895
7.71219
7.71853
7.72774
7.73947
7.75334
7.76896
7.78597
7.80402
7.82284
7.84218
7.86183
7.88162
7.90141
7.92105
7.94044
7.95949
7.97812
7.99629
8.01396
8.03114
8.04782
8.06404
8.07979
8.0951
8.10999
8.12446
8.13852
8.15217
8.16543
8.1783
8.19077
8.20283
8.21445
8.22563
8.23634
8.24655
8.25625
8.26541
8.27403
8.28209
8.28958
8.29646
8.30271
8.30829
8.31317
8.31731
8.32067
8.32321
8.32491
8.32577
8.3258
8.32502
8.32351
8.32134
8.31864
8.31557
8.31229
8.309
8.3059
8.30318
8.30098
8.29944
8.29865
7.4071
7.41093
7.41843
7.42926
7.44301
7.4592
7.47736
7.49704
7.51785
7.53946
7.56161
7.58408
7.60667
7.62922
7.65158
7.67362
7.69525
7.71637
7.73693
7.75692
7.77633
7.79517
7.81346
7.83124
7.84853
7.86533
7.88166
7.89753
7.91296
7.92794
7.94249
7.95659
7.97023
7.9834
7.99606
8.00819
8.01975
8.03073
8.04111
8.05087
8.06001
8.06849
8.07631
8.08342
8.08978
8.09535
8.10008
8.1039
8.1068
8.10873
8.10968
8.10965
8.10868
8.10684
8.10422
8.10096
8.09725
8.09329
8.08931
8.08556
8.08226
8.0796
8.07775
8.0768
7.11676
7.12124
7.12996
7.14254
7.15843
7.17706
7.19783
7.22024
7.24383
7.26824
7.29318
7.31842
7.34376
7.36902
7.39403
7.41866
7.44278
7.46631
7.48918
7.51138
7.53291
7.5538
7.57408
7.59378
7.61294
7.63157
7.64969
7.66729
7.6844
7.70103
7.71718
7.73285
7.74802
7.76267
7.77676
7.79026
7.80313
7.81534
7.82689
7.83775
7.84792
7.85738
7.8661
7.87406
7.88118
7.88743
7.89274
7.89704
7.90028
7.90243
7.90346
7.90338
7.9022
7.9
7.89688
7.89301
7.88859
7.88387
7.87913
7.87465
7.87072
7.86756
7.86535
7.86422
6.83731
6.84249
6.85256
6.86702
6.8852
6.90638
6.92987
6.95507
6.98147
7.00867
7.03637
7.06435
7.09238
7.12029
7.1479
7.17505
7.2016
7.22745
7.25254
7.27684
7.30039
7.32323
7.34539
7.36693
7.38788
7.40825
7.42806
7.44732
7.46604
7.48424
7.50192
7.5191
7.53574
7.55182
7.56729
7.58212
7.59624
7.60965
7.62232
7.63423
7.6454
7.6558
7.66541
7.67418
7.68206
7.68899
7.69487
7.69965
7.70325
7.70562
7.70673
7.70657
7.70516
7.70257
7.69892
7.69438
7.68918
7.68362
7.67803
7.67275
7.66812
7.66441
7.66182
7.66049
6.56817
6.57412
6.58567
6.60217
6.6228
6.64669
6.67301
6.70106
6.73028
6.76026
6.7907
6.82136
6.85204
6.88255
6.91271
6.94232
6.97123
6.99932
7.02653
7.05285
7.07832
7.10299
7.12694
7.15022
7.17287
7.1949
7.21633
7.23716
7.25742
7.27711
7.29627
7.31489
7.33295
7.35042
7.36723
7.38333
7.39867
7.41322
7.42696
7.4399
7.45202
7.46333
7.4738
7.48338
7.49201
7.49961
7.50607
7.51133
7.51528
7.51788
7.51906
7.51883
7.51718
7.51418
7.50995
7.50467
7.49863
7.49214
7.48561
7.47945
7.47405
7.46972
7.46672
7.46518
6.30879
6.3156
6.32877
6.3475
6.37078
6.39753
6.42679
6.45775
6.48982
6.52256
6.55569
6.58899
6.62227
6.65534
6.68798
6.72
6.7512
6.78146
6.81071
6.83894
6.86622
6.89263
6.91827
6.9432
6.96747
6.99109
7.01407
7.0364
7.05811
7.07923
7.09979
7.1198
7.13924
7.15805
7.17616
7.1935
7.21002
7.22566
7.24043
7.25433
7.26737
7.27956
7.29087
7.30125
7.31062
7.31889
7.32594
7.33168
7.336
7.33882
7.34009
7.33978
7.33788
7.33444
7.32959
7.32353
7.31656
7.30906
7.30149
7.29435
7.2881
7.28311
7.27966
7.2779
6.05864
6.06641
6.0814
6.10258
6.1287
6.15849
6.19081
6.22475
6.25967
6.29514
6.33091
6.36679
6.40261
6.43819
6.47328
6.50766
6.5411
6.57345
6.60464
6.63468
6.66366
6.69171
6.71894
6.74545
6.77126
6.7964
6.82085
6.8446
6.8677
6.89017
6.91208
6.93343
6.95419
6.9743
6.99368
7.01223
7.02988
7.04658
7.06233
7.07715
7.09107
7.1041
7.11622
7.12739
7.13751
7.14645
7.1541
7.16033
7.16502
7.16808
7.16944
7.16905
7.16689
7.16301
7.15751
7.1506
7.14262
7.134
7.12529
7.11707
7.10989
7.10419
7.10026
7.09826
5.81724
5.82609
5.84308
5.86696
5.89618
5.92919
5.96469
6.00166
6.03942
6.07758
6.11592
6.15432
6.19264
6.23067
6.26817
6.30487
6.34049
6.37486
6.4079
6.43965
6.47023
6.49981
6.52854
6.55653
6.58382
6.61041
6.63627
6.66138
6.68579
6.70955
6.73273
6.75537
6.77741
6.79881
6.81942
6.83914
6.85788
6.87559
6.89228
6.90797
6.92272
6.93657
6.94949
6.96144
6.9723
6.98193
6.99018
6.99691
7.00199
7.0053
7.00675
7.00629
7.00388
6.99953
6.99334
6.98554
6.97647
6.96663
6.95667
6.94726
6.93907
6.9326
6.92816
6.92592
5.5841
5.59417
5.61341
5.64027
5.67284
5.70928
5.74808
5.78813
5.82871
5.86949
5.91032
5.95117
5.99191
6.03236
6.07224
6.11122
6.14897
6.18529
6.22011
6.25346
6.28552
6.31652
6.34666
6.37606
6.40476
6.43275
6.45996
6.48636
6.512
6.53697
6.56138
6.58524
6.60854
6.63118
6.65301
6.67388
6.69368
6.71235
6.72992
6.74643
6.76198
6.77661
6.79031
6.80302
6.81463
6.82496
6.83383
6.84107
6.84654
6.85011
6.85167
6.85116
6.84849
6.84368
6.83678
6.82802
6.81778
6.80662
6.79527
6.78456
6.77527
6.76799
6.76303
6.76053
5.35878
5.37023
5.39199
5.42214
5.45835
5.49842
5.54065
5.5838
5.62717
5.67048
5.71372
5.75693
5.80004
5.84286
5.8851
5.92633
5.96617
6.00438
6.04087
6.07571
6.10914
6.14145
6.1729
6.20364
6.2337
6.26304
6.29155
6.31918
6.34597
6.37208
6.39764
6.4227
6.44721
6.47108
6.49411
6.5161
6.53692
6.55652
6.57491
6.59219
6.60848
6.62386
6.63832
6.6518
6.66416
6.67519
6.68469
6.69246
6.69834
6.70218
6.70388
6.70331
6.70042
6.69514
6.68752
6.67775
6.66626
6.65366
6.64079
6.62864
6.61817
6.61003
6.60454
6.6018
5.14083
5.15385
5.17843
5.21224
5.25241
5.29633
5.34208
5.38837
5.43446
5.48019
5.52571
5.5712
5.61662
5.66178
5.70635
5.74984
5.79172
5.83175
5.86983
5.90605
5.94071
5.97422
6.0069
6.03891
6.07028
6.10093
6.1307
6.15948
6.18736
6.21452
6.24117
6.26737
6.29308
6.31817
6.34239
6.36547
6.38728
6.40776
6.42693
6.44492
6.4619
6.47799
6.4932
6.50744
6.52056
6.53232
6.54246
6.55077
6.55707
6.5612
6.56303
6.56245
6.55933
6.5536
6.54524
6.53443
6.5216
6.50744
6.49291
6.47918
6.46743
6.45841
6.4524
6.44941
4.92984
4.94464
4.97239
5.01025
5.05474
5.10271
5.1521
5.20153
5.25024
5.29826
5.34594
5.39361
5.44128
5.48873
5.53564
5.58137
5.62527
5.66705
5.70664
5.74411
5.77988
5.81447
5.8483
5.88152
5.91414
5.94608
5.97709
6.00695
6.03581
6.06395
6.09164
6.11894
6.14581
6.17212
6.19752
6.22168
6.24445
6.26577
6.28564
6.30428
6.3219
6.33867
6.35461
6.36961
6.38351
6.39601
6.40681
6.41567
6.4224
6.42683
6.42882
6.42824
6.42494
6.41877
6.40968
6.39778
6.38353
6.3677
6.35134
6.33586
6.32275
6.31283
6.30631
6.3031
4.72541
4.74224
4.77354
4.81591
4.86508
4.9173
4.97042
5.02298
5.07421
5.12435
5.17403
5.22379
5.27364
5.32334
5.37261
5.42061
5.46647
5.50996
5.55097
5.58956
5.62629
5.66184
5.69674
5.73112
5.76496
5.79818
5.83039
5.86128
5.89103
5.92005
5.94872
5.97708
6.00509
6.03261
6.05921
6.08443
6.10814
6.13024
6.15077
6.16998
6.18818
6.20561
6.22226
6.23801
6.2527
6.26598
6.27744
6.28686
6.29404
6.29878
6.30095
6.3004
6.29694
6.29038
6.28055
6.26753
6.25179
6.23417
6.2158
6.19839
6.18383
6.17301
6.16601
6.16261
4.52713
4.5463
4.58155
4.62894
4.68321
4.73985
4.79677
4.85246
4.90606
4.95813
5.00962
5.06139
5.11336
5.16526
5.21693
5.26722
5.31501
5.36015
5.4025
5.44208
5.47963
5.51599
5.55189
5.58739
5.6224
5.65692
5.69033
5.72216
5.7527
5.7825
5.81209
5.84149
5.8706
5.89937
5.92719
5.95344
5.97805
6.00091
6.02201
6.04171
6.06043
6.07849
6.09584
6.11234
6.12786
6.14193
6.15407
6.16406
6.1717
6.17676
6.17912
6.17863
6.17506
6.16814
6.1576
6.14342
6.12612
6.10661
6.08603
6.06647
6.05036
6.03867
6.03126
6.0277
4.33463
4.3565
4.39612
4.44911
4.50893
4.57012
4.63091
4.68972
4.74549
4.79926
4.85235
4.90606
4.96009
5.01412
5.06826
5.12093
5.17058
5.21731
5.26095
5.30135
5.33955
5.37659
5.41344
5.45001
5.48615
5.52199
5.55664
5.58932
5.62053
5.651
5.68147
5.71186
5.74204
5.77209
5.80117
5.82843
5.85391
5.8775
5.89909
5.91921
5.93837
5.95704
5.97508
5.99231
6.00869
6.0236
6.03641
6.04699
6.0551
6.06049
6.06306
6.06265
6.05902
6.05179
6.04058
6.02522
6.00629
5.9848
5.96178
5.9398
5.92207
5.90956
5.90182
5.89816
4.14751
4.17255
4.21695
4.2762
4.34209
4.40787
4.47257
4.53452
4.59221
4.64743
4.70188
4.75748
4.81353
4.86959
4.92629
4.98145
5.03287
5.08115
5.12603
5.16709
5.20576
5.24331
5.28108
5.31871
5.3559
5.39314
5.42907
5.4625
5.49425
5.52525
5.55658
5.58794
5.61912
5.65051
5.68091
5.70913
5.73546
5.75976
5.78176
5.8022
5.82172
5.84099
5.85971
5.87766
5.89494
5.91074
5.92422
5.93538
5.94398
5.94969
5.95248
5.9522
5.94856
5.94108
5.92926
5.91269
5.89205
5.86852
5.84283
5.81808
5.79867
5.78544
5.77748
5.77378
3.96542
3.9942
4.04373
4.11001
4.18256
4.25285
4.32151
4.38664
4.44596
4.50234
4.55785
4.61533
4.67339
4.73129
4.79073
4.84854
4.90158
4.95137
4.99749
5.039
5.07796
5.11584
5.15454
5.19319
5.23135
5.27008
5.30739
5.34143
5.37358
5.40495
5.43714
5.46946
5.50156
5.53438
5.5662
5.59528
5.62246
5.64746
5.66976
5.69042
5.7102
5.73008
5.74949
5.7681
5.78636
5.80311
5.81722
5.82897
5.83809
5.84411
5.84714
5.847
5.84341
5.83577
5.8234
5.80559
5.78318
5.75761
5.72897
5.701
5.67988
5.66609
5.65804
5.65437
3.78796
3.82125
3.87616
3.95036
4.03026
4.10479
4.17746
4.2459
4.30644
4.3637
4.41989
4.47934
4.53938
4.59886
4.66128
4.722
4.77641
4.82769
4.87511
4.91681
4.95588
4.99385
5.03353
5.07323
5.11218
5.15257
5.19141
5.22588
5.25828
5.28983
5.32292
5.35619
5.38905
5.42344
5.45681
5.48663
5.51464
5.54039
5.56284
5.58363
5.60356
5.62408
5.64419
5.66337
5.68269
5.7005
5.71518
5.72753
5.73719
5.74349
5.74676
5.7468
5.74333
5.73562
5.72281
5.70371
5.67943
5.6519
5.62001
5.58826
5.56545
5.55129
5.54333
5.53976
3.61474
3.65358
3.71387
3.79709
3.8852
3.96341
4.04016
4.11215
4.17336
4.23124
4.28762
4.34923
4.4113
4.47191
4.53768
4.60166
4.65704
4.70983
4.75869
4.80023
4.83925
4.87701
4.91781
4.95859
4.99806
5.04036
5.08097
5.11561
5.14811
5.17957
5.21367
5.24791
5.2813
5.31747
5.35259
5.38293
5.41178
5.43836
5.46077
5.48161
5.50151
5.52275
5.54359
5.56321
5.58373
5.6027
5.61785
5.63081
5.64105
5.6476
5.65112
5.65135
5.64807
5.64038
5.62728
5.60684
5.58057
5.55128
5.5158
5.47951
5.45511
5.44087
5.43317
5.42979
3.44535
3.49117
3.55646
3.65006
3.74743
3.82836
3.90933
3.98529
4.04643
4.10472
4.16062
4.22476
4.28897
4.35001
4.41966
4.48741
4.54314
4.59751
4.64807
4.68901
4.72784
4.76498
4.80715
4.8491
4.88866
4.93322
4.97594
5.01036
5.04286
5.07389
5.10918
5.14445
5.178
5.21623
5.25338
5.28391
5.31364
5.34119
5.36332
5.38414
5.4038
5.4259
5.44751
5.46735
5.48924
5.50955
5.52499
5.53858
5.54948
5.55619
5.55999
5.56042
5.55741
5.54984
5.53664
5.51477
5.48633
5.45565
5.41623
5.37437
5.34862
5.33464
5.32741
5.3243
3.27931
3.33413
3.40344
3.50912
3.61715
3.6992
3.78466
3.86529
3.92531
3.98393
4.03845
4.10573
4.17226
4.23268
4.30697
4.37923
4.43434
4.49044
4.54314
4.58283
4.62146
4.65741
4.70136
4.7446
4.78361
4.83093
4.87623
4.90988
4.94235
4.97244
5.00927
5.04567
5.0788
5.11951
5.1591
5.18929
5.21998
5.24874
5.27025
5.29104
5.31014
5.33333
5.35579
5.3755
5.39902
5.42091
5.43636
5.45062
5.46229
5.46903
5.47314
5.47377
5.47112
5.46375
5.45073
5.42731
5.3964
5.36499
5.32124
5.2724
5.24574
5.23246
5.22591
5.22316
3.1161
3.1828
3.25417
3.37415
3.49466
3.57542
3.66583
3.75221
3.80959
3.86877
3.9206
3.99197
4.06116
4.11936
4.19937
4.27716
4.33022
4.38832
4.44385
4.48138
4.51995
4.5539
4.60024
4.64502
4.68248
4.73328
4.78182
4.8139
4.84642
4.87489
4.91376
4.95147
4.98333
5.02711
5.06971
5.09877
5.13058
5.16093
5.18131
5.20214
5.22025
5.24486
5.2683
5.28736
5.31288
5.33667
5.3517
5.36672
5.37931
5.38591
5.39036
5.39118
5.38899
5.38188
5.36942
5.34429
5.31045
5.27929
5.23081
5.1731
5.14628
5.13422
5.12854
5.12621
2.95509
3.03774
3.10783
3.24505
3.38047
3.45634
3.5525
3.64621
3.6988
3.75918
3.80645
3.88335
3.95572
4.00939
4.09663
4.18138
4.23029
4.29086
4.35023
4.38429
4.42321
4.454
4.50367
4.55033
4.58478
4.64007
4.69276
4.72208
4.75499
4.78084
4.82251
4.86183
4.89115
4.93884
4.98522
5.01201
5.04519
5.07769
5.09622
5.11733
5.13381
5.16036
5.18496
5.20259
5.23063
5.25676
5.27074
5.28667
5.3004
5.30658
5.31148
5.31242
5.31081
5.304
5.2926
5.26554
5.22807
5.19862
5.14502
5.07587
5.05009
5.03979
5.03519
5.03334
2.79554
2.89987
2.96335
3.12171
3.2753
3.34109
3.44429
3.54764
3.59233
3.65527
3.69529
3.77978
3.85616
3.90195
3.99856
4.09221
4.13393
4.19774
4.26241
4.29111
4.33126
4.35719
4.41152
4.46062
4.48995
4.55111
4.60918
4.63403
4.66804
4.68983
4.73542
4.77678
4.80176
4.85452
4.90576
4.9286
4.96359
4.99904
5.01468
5.03655
5.05047
5.07968
5.10574
5.12083
5.15212
5.18117
5.19319
5.21027
5.22545
5.2308
5.23632
5.23729
5.23641
5.22983
5.22021
5.19093
5.14875
5.12311
5.06404
4.97995
4.95705
4.94912
4.94574
4.9444
2.63652
2.77056
2.81933
3.00407
3.18015
3.22858
3.3408
3.457
3.48938
3.55732
3.58625
3.68124
3.76285
3.79607
3.90497
4.01016
4.04042
4.10864
4.18066
4.20131
4.24421
4.26287
4.32372
4.37604
4.39729
4.46624
4.5313
4.54926
4.58565
4.60133
4.65239
4.69646
4.71457
4.77398
4.83153
4.8481
4.88552
4.92506
4.93633
4.95979
4.96984
5.00272
5.03066
5.04165
5.07717
5.10993
5.11872
5.13733
5.15439
5.15833
5.16472
5.16555
5.16561
5.15909
5.1522
5.12039
5.07187
5.05297
4.98814
4.88445
4.86716
4.86213
4.86008
4.85927
2.47687
2.65172
2.67392
2.89206
3.09639
3.11737
3.24162
3.37506
3.38893
3.46587
3.47823
3.58777
3.67635
3.69055
3.81567
3.93593
3.94886
4.02323
4.10539
4.11417
4.16234
4.17028
4.24025
4.29693
4.30599
4.38529
4.4595
4.46716
4.50802
4.5147
4.57339
4.62112
4.62885
4.69707
4.76285
4.76994
4.81075
4.85591
4.86071
4.88715
4.89144
4.92941
4.95983
4.96454
5.00566
5.04317
5.04695
5.06767
5.08718
5.08889
5.09658
5.09699
5.09829
5.09147
5.08857
5.05388
4.99668
4.9885
4.91776
4.78825
4.78052
4.77877
4.77809
4.77782
)
;

boundaryField
{
    left
    {
        type            zeroGradient;
    }
    right
    {
        type            zeroGradient;
    }
    interface
    {
        type            fixedValue;
        value           nonuniform List<scalar> 
64
(
2.39421
2.59766
2.59766
2.83767
3.06029
3.06029
3.19289
3.33816
3.33816
3.42287
3.42287
3.54264
3.63603
3.63603
3.77215
3.90248
3.90248
3.98127
4.07054
4.07054
4.12338
4.12338
4.1998
4.25951
4.25951
4.34586
4.42616
4.42616
4.47099
4.47099
4.53507
4.58536
4.58536
4.65954
4.73084
4.73084
4.77409
4.82317
4.82317
4.85222
4.85222
4.89378
4.92588
4.92588
4.9708
5.01143
5.01143
5.03366
5.0548
5.0548
5.06346
5.06346
5.0656
5.05831
5.05831
5.02198
4.95864
4.95864
4.88493
4.73801
4.73801
4.73801
4.73801
4.73801
)
;
    }
    bottom
    {
        type            fixedValue;
        value           uniform 10;
    }
    defaultFaces
    {
        type            empty;
    }
}


// ************************************************************************* //
