/*--------------------------------*- C++ -*----------------------------------*\
| =========                 |                                                 |
| \\      /  F ield         | OpenFOAM: The Open Source CFD Toolbox           |
|  \\    /   O peration     | Version:  5.x                                   |
|   \\  /    A nd           | Web:      www.OpenFOAM.org                      |
|    \\/     M anipulation  |                                                 |
\*---------------------------------------------------------------------------*/
FoamFile
{
    version     2.0;
    format      ascii;
    class       volScalarField;
    location    "18.6";
    object      gradTx;
}
// * * * * * * * * * * * * * * * * * * * * * * * * * * * * * * * * * * * * * //

dimensions      [0 -1 0 1 0 0 0];

internalField   nonuniform List<scalar> 
6300
(
-12.4056
-12.1787
-11.7274
-11.0575
-10.178
-9.1023
-7.84882
-6.44209
-4.9133
-3.30053
-1.64827
-0.00598259
1.57451
3.04247
4.35229
-12.6329
-12.4033
-11.9464
-11.2674
-10.3746
-9.28035
-8.00238
-6.56447
-4.99759
-3.34033
-1.63865
0.0554779
1.68671
3.20027
4.5467
-13.09
-12.8553
-12.3878
-11.6914
-10.7727
-9.64245
-8.31617
-6.81614
-5.17259
-3.42488
-1.62179
0.179494
1.91623
3.5249
4.94748
-13.782
-13.5406
-13.0585
-12.3379
-11.3829
-10.2008
-8.80403
-7.21163
-5.45207
-3.56514
-1.60348
0.367709
2.27346
4.0352
5.57988
-14.7158
-14.4667
-13.9679
-13.219
-12.2203
-10.9743
-9.48777
-7.7746
-5.85922
-3.78047
-1.59502
0.621032
2.77435
4.76222
6.48636
-15.8991
-15.6427
-15.1278
-14.3503
-13.3054
-11.9886
-10.3985
-8.5401
-6.43008
-4.10283
-1.6175
0.936739
3.44034
5.7526
7.73299
-17.3389
-17.0775
-16.5504
-15.7493
-14.6625
-13.2764
-11.5777
-9.55757
-7.21847
-4.5836
-1.70921
1.30273
4.29733
7.07449
9.42132
-19.0405
-18.7783
-18.2473
-17.4342
-16.3193
-14.8773
-13.0786
-10.8943
-8.30295
-5.3042
-1.93881
1.68573
5.3714
8.82635
11.7096
-21.0044
-20.7481
-20.2265
-19.4212
-18.3036
-16.8349
-14.9656
-12.6384
-9.79511
-6.39178
-2.42789
2.00727
6.67583
11.1496
14.853
-23.2249
-22.9836
-22.4898
-21.7206
-20.6394
-19.1933
-17.3106
-14.8989
-11.8476
-8.04023
-3.38855
2.09507
8.17471
14.2428
19.285
-25.687
-25.4716
-25.0286
-24.3323
-23.3403
-21.9886
-20.1848
-17.7993
-14.6565
-10.5333
-5.18149
1.5865
9.68481
18.3613
25.7958
-28.3647
-28.1875
-27.8211
-27.24
-26.4011
-25.2362
-23.6411
-21.4573
-18.4461
-14.2551
-8.39096
-0.25277
10.6163
23.7215
35.9694
-31.22
-31.0927
-30.8284
-30.4059
-29.7881
-28.9143
-27.6862
-25.9428
-23.4158
-19.6504
-13.8748
-4.82328
9.31099
29.9384
53.4018
-34.2026
-34.1351
-33.9942
-33.7672
-33.4312
-32.9469
-32.2469
-31.2123
-29.6239
-27.0562
-22.6348
-14.477
1.51209
33.3185
87.6688
-37.2531
-37.2509
-37.2462
-37.2377
-37.2227
-37.1953
-37.1424
-37.0357
-36.8117
-36.3159
-35.1315
-31.9623
-22.1047
14.1539
169.616
5.39046
6.16791
6.78568
7.24214
7.54129
7.69175
7.70552
7.59671
7.38034
7.07146
6.6844
6.23232
5.72699
5.17869
4.59628
3.98726
3.35797
2.71372
2.05896
1.39743
0.732269
0.0661425
-0.5987
-1.26034
-1.91716
-2.56778
-3.21109
-3.84619
-4.47242
-5.08933
-5.69672
-6.29456
-6.88296
-7.46219
-8.03253
-8.59428
-9.14765
-9.69276
-10.2296
-10.758
-11.2776
-11.7883
-12.2895
-12.7813
-13.2633
-13.7358
-14.1989
-14.6532
-15.0992
-15.5373
-15.9681
-16.3919
-16.8086
-17.2179
-17.6193
-18.0118
-18.3943
-18.7656
-19.1245
-19.4697
-19.8003
-20.1152
-20.4138
-20.6952
-20.9584
-21.2022
-21.425
-21.6246
-21.7984
-21.9429
-22.0545
-22.1289
-22.1619
-22.1493
-22.0872
-21.9724
-21.8023
-21.5753
-21.2907
-20.9489
-20.5511
-20.0998
-19.5984
-19.0513
-18.4637
-17.842
-17.1932
-16.5252
-15.8463
-15.1652
5.60854
6.39745
7.01763
7.46833
7.75507
7.88826
7.88174
7.75128
7.51327
7.18377
6.77776
6.30875
5.78862
5.22761
4.63439
4.01627
3.37933
2.72868
2.06855
1.4025
0.733534
0.0641737
-0.603416
-1.26739
-1.92616
-2.57839
-3.22297
-3.85901
-4.48586
-5.10308
-5.7105
-6.30813
-6.89618
-7.47497
-8.04488
-8.6063
-9.1595
-9.70464
-10.2417
-10.7704
-11.2906
-11.8016
-12.3032
-12.7951
-13.277
-13.749
-14.2116
-14.6651
-15.1102
-15.5477
-15.9782
-16.4019
-16.819
-17.2293
-17.6319
-18.026
-18.4103
-18.7834
-19.1439
-19.4906
-19.8225
-20.1386
-20.4384
-20.7211
-20.9861
-21.2322
-21.4581
-21.6617
-21.8402
-21.9902
-22.1077
-22.1883
-22.2273
-22.2202
-22.1629
-22.0518
-21.8841
-21.658
-21.3729
-21.0291
-20.6279
-20.1718
-19.6641
-19.1093
-18.5127
-17.8807
-17.2206
-16.5406
-15.8494
-15.156
6.05802
6.86964
7.49328
7.93031
8.18963
8.28562
8.23612
8.06041
7.77769
7.406
6.96158
6.45855
5.90891
5.32268
4.70817
4.07216
3.42028
2.75712
2.08652
1.41165
0.735232
0.0595412
-0.613444
-1.28201
-1.94466
-2.60009
-3.24721
-3.88513
-4.51318
-5.13098
-5.73839
-6.33552
-6.92272
-7.5005
-8.06945
-8.63011
-9.18293
-9.72813
-10.2657
-10.7953
-11.3164
-11.8285
-12.3309
-12.8231
-13.3047
-13.7759
-14.2371
-14.6889
-15.1322
-15.5682
-15.9977
-16.4213
-16.8392
-17.2513
-17.6567
-18.0542
-18.4422
-18.819
-19.183
-19.5327
-19.8671
-20.1855
-20.4873
-20.7724
-21.0406
-21.2912
-21.5232
-21.7346
-21.9228
-22.0841
-22.2139
-22.3073
-22.3589
-22.3634
-22.3159
-22.2124
-22.0496
-21.8256
-21.5395
-21.1917
-20.7837
-20.3178
-19.7975
-19.2272
-18.6125
-17.9597
-17.2767
-16.572
-15.8554
-15.1369
6.76704
7.61216
8.23727
8.64786
8.85901
8.89217
8.77192
8.52331
8.16991
7.73269
7.22954
6.67522
6.08164
5.45828
4.81266
4.15074
3.47727
2.79612
2.11045
1.42291
0.735745
0.0508923
-0.629947
-1.30525
-1.97362
-2.63383
-3.28476
-3.92548
-4.55532
-5.17388
-5.78108
-6.3772
-6.96282
-7.53875
-8.10591
-8.66519
-9.21728
-9.76257
-10.301
-10.8322
-11.3553
-11.8693
-12.3732
-12.8661
-13.3474
-13.8172
-14.2759
-14.7246
-15.1648
-15.5979
-16.0254
-16.4486
-16.8678
-17.2828
-17.6927
-18.0958
-18.4899
-18.8729
-19.2424
-19.5967
-19.9347
-20.2558
-20.56
-20.848
-21.1202
-21.3768
-21.6176
-21.8408
-22.044
-22.2229
-22.3724
-22.4863
-22.558
-22.5811
-22.5494
-22.458
-22.3031
-22.0823
-21.7948
-21.4409
-21.0224
-20.5418
-20.0026
-19.4091
-18.7667
-18.0822
-17.3636
-16.6205
-15.864
-15.1058
7.78305
8.67112
9.28983
9.65227
9.78438
9.71928
9.49223
9.13678
8.68253
8.15406
7.57094
6.94818
6.297
5.62572
4.94044
4.24575
3.54516
2.84145
2.13692
1.43348
0.7328
0.0363462
-0.65453
-1.33854
-2.01444
-2.681
-3.33705
-3.98156
-4.61374
-5.23314
-5.83974
-6.43401
-7.01687
-7.58961
-8.15371
-8.71058
-9.26139
-9.80679
-10.3468
-10.8807
-11.4072
-11.9247
-12.4313
-12.9256
-13.4066
-13.8742
-14.329
-14.7726
-15.2072
-15.6354
-16.0595
-16.4814
-16.9021
-17.3215
-17.7383
-18.1501
-18.5537
-18.9459
-19.3235
-19.6841
-20.0264
-20.3501
-20.6561
-20.946
-21.2218
-21.4852
-21.7368
-21.9759
-22.1998
-22.4039
-22.5818
-22.7257
-22.827
-22.8773
-22.8687
-22.7949
-22.6511
-22.4348
-22.1452
-21.7831
-21.3504
-20.8501
-20.2856
-19.661
-18.9815
-18.2535
-17.4855
-16.6882
-15.8749
-15.06
9.18022
10.1176
10.7111
10.988
10.9934
10.7793
10.3971
9.89224
9.3017
8.65384
7.96916
7.26179
6.5411
5.81309
5.08158
4.34907
3.61735
2.88782
2.16166
1.43995
0.723639
0.013652
-0.689098
-1.38362
-2.06879
-2.74337
-3.40602
-4.05545
-4.69061
-5.31086
-5.91617
-6.50724
-7.08549
-7.65292
-8.21187
-8.76466
-9.31324
-9.85873
-10.4012
-10.9397
-11.472
-11.9955
-12.507
-13.0042
-13.4851
-13.9494
-14.3981
-14.8334
-15.2589
-15.6786
-16.0965
-16.5157
-16.9382
-17.3639
-17.791
-18.2159
-18.6338
-19.0397
-19.4289
-19.7978
-20.1447
-20.4697
-20.775
-21.0642
-21.3413
-21.6103
-21.8738
-22.1325
-22.3838
-22.6224
-22.84
-23.0262
-23.1694
-23.258
-23.2817
-23.2321
-23.1034
-22.8928
-22.5999
-22.2266
-21.7756
-21.2505
-20.6548
-19.992
-19.266
-18.4823
-17.6492
-16.779
-15.8878
-14.9948
11.0732
12.059
12.5877
12.7146
12.5181
12.081
11.4784
10.7707
10.0031
9.20635
8.39977
7.59435
6.79552
6.00528
5.22394
4.45107
3.68622
2.92916
2.17986
1.43849
0.705254
-0.0195749
-0.735615
-1.44224
-2.13849
-2.82298
-3.49406
-4.14993
-4.78898
-5.41011
-6.01313
-6.59895
-7.16968
-7.72841
-8.27885
-8.82479
-9.36947
-9.91493
-10.4615
-11.0075
-11.5496
-12.0832
-12.6035
-13.1059
-13.5875
-14.0471
-14.4862
-14.9082
-15.3188
-15.7244
-16.1314
-16.5453
-16.9694
-17.4041
-17.8467
-18.2914
-18.731
-19.1574
-19.5632
-19.943
-20.2942
-20.6175
-20.9171
-21.1994
-21.4721
-21.743
-22.0178
-22.2994
-22.586
-22.871
-23.1433
-23.3883
-23.59
-23.7321
-23.8002
-23.7829
-23.6734
-23.4689
-23.1704
-22.7815
-22.3073
-21.7523
-21.1204
-20.4136
-19.6333
-18.782
-17.8663
-16.8997
-15.9031
-14.9035
13.6422
14.6585
15.0426
14.9065
14.3888
13.6211
12.7106
11.7353
10.7463
9.77272
8.82843
7.91721
7.03731
6.18448
5.35389
4.54134
3.74373
2.95915
2.18652
1.42518
0.67465
-0.0655607
-0.795777
-1.51591
-2.22517
-2.92198
-3.60406
-4.26868
-4.91317
-5.53547
-6.13485
-6.71238
-7.27113
-7.81583
-8.3523
-8.8867
-9.42452
-9.96948
-10.5224
-11.0809
-11.6393
-12.1902
-12.7254
-13.2376
-13.7214
-14.1744
-14.5986
-14.9995
-15.3858
-15.7678
-16.1562
-16.56
-16.9852
-17.4329
-17.8989
-18.3743
-18.8471
-19.3045
-19.7348
-20.1291
-20.4835
-20.7994
-21.0839
-21.3482
-21.6056
-21.8697
-22.1518
-22.4588
-22.7902
-23.1376
-23.4854
-23.8128
-24.0962
-24.3126
-24.4411
-24.4665
-24.38
-24.1801
-23.8707
-23.4594
-22.9549
-22.3649
-21.6937
-20.9411
-20.1026
-19.1741
-18.1567
-17.0634
-15.9227
-14.7755
17.1806
18.1678
18.2463
17.6477
16.6193
15.3665
14.0358
12.7195
11.4668
10.2967
9.20925
8.19473
7.23992
6.33143
5.45769
4.6099
3.78233
2.97181
2.17676
1.39621
0.629075
-0.126033
-0.870549
-1.6053
-2.32984
-3.04225
-3.73923
-4.41647
-5.06934
-5.69387
-6.28803
-6.85287
-7.39281
-7.91506
-8.42871
-8.94365
-9.46926
-10.0125
-10.5754
-11.1543
-11.7397
-12.3196
-12.8806
-13.4103
-13.8993
-14.3432
-14.7443
-15.1116
-15.4588
-15.8021
-16.1587
-16.5438
-16.9683
-17.4352
-17.9376
-18.4608
-18.9853
-19.4906
-19.9579
-20.3727
-20.728
-21.0264
-21.2797
-21.5066
-21.7291
-21.9701
-22.25
-22.5828
-22.9711
-23.4036
-23.8569
-24.3001
-24.6989
-25.0192
-25.2305
-25.3109
-25.2498
-25.0487
-24.7176
-24.2712
-23.7254
-23.094
-22.3841
-21.5919
-20.7017
-19.6939
-18.5561
-17.2952
-15.9514
-14.5934
22.1945
22.9856
22.4244
21.0073
19.1725
17.2237
15.3403
13.6118
12.0683
10.7016
9.48475
8.38606
7.37561
6.42814
5.52392
4.6492
3.7962
2.96202
2.146
1.3478
0.566071
-0.201853
-0.959465
-1.70946
-2.45205
-3.1848
-3.90285
-4.5994
-5.26634
-5.89601
-6.48343
-7.0292
-7.53994
-8.02666
-8.50323
-8.98521
-9.4886
-10.0269
-10.6056
-11.218
-11.8481
-12.4761
-13.0806
-13.6414
-14.142
-14.5734
-14.9387
-15.2526
-15.537
-15.8173
-16.1199
-16.4707
-16.8902
-17.3862
-17.9463
-18.545
-19.1508
-19.7314
-20.2564
-20.7017
-21.0542
-21.318
-21.5135
-21.6711
-21.8259
-22.0143
-22.2718
-22.6265
-23.0883
-23.6394
-24.2426
-24.8511
-25.4146
-25.8823
-26.2083
-26.3586
-26.321
-26.1043
-25.7302
-25.2258
-24.6191
-23.936
-23.1928
-22.3835
-21.4697
-20.4009
-19.1324
-17.6464
-16.0005
-14.3248
29.6244
29.75
27.8345
24.9678
21.8894
18.9861
16.4213
14.2374
12.4151
10.8903
9.58991
8.45011
7.42037
6.46236
5.54747
4.65701
3.78279
2.92593
2.0894
1.27555
0.483062
-0.292631
-1.05944
-1.82438
-2.58847
-3.34859
-4.0975
-4.82498
-5.51703
-6.159
-6.73882
-7.25597
-7.72163
-8.15287
-8.56991
-8.9959
-9.45769
-9.98286
-10.5874
-11.2559
-11.9596
-12.6661
-13.3435
-13.9591
-14.4841
-14.8987
-15.207
-15.436
-15.6212
-15.8001
-16.0117
-16.2984
-16.7018
-17.2445
-17.8993
-18.619
-19.3525
-20.0518
-20.6695
-21.164
-21.5081
-21.7077
-21.8016
-21.8394
-21.8738
-21.959
-22.1536
-22.5156
-23.0766
-23.7998
-24.6204
-25.4668
-26.268
-26.9493
-27.4386
-27.6768
-27.6497
-27.3863
-26.9303
-26.3275
-25.6226
-24.8641
-24.0965
-23.3255
-22.4608
-21.3953
-20.0218
-18.2276
-16.0922
-13.9019
41.398
39.453
34.6142
29.2329
24.3532
20.2607
16.9533
14.3421
12.333
10.7558
9.46354
8.3554
7.36164
6.43424
5.53563
4.64121
3.74421
2.86037
2
1.17238
0.375734
-0.396327
-1.16218
-1.94063
-2.73066
-3.52859
-4.32304
-5.10161
-5.83987
-6.51149
-7.08445
-7.55689
-7.95288
-8.2995
-8.62366
-8.95499
-9.33545
-9.82451
-10.477
-11.243
-12.0671
-12.898
-13.6952
-14.4074
-14.985
-15.3768
-15.5891
-15.6826
-15.7141
-15.7356
-15.7951
-15.9579
-16.3127
-16.9413
-17.7587
-18.6727
-19.6033
-20.4897
-21.2595
-21.8429
-22.1696
-22.2496
-22.1703
-22.0123
-21.8485
-21.7456
-21.7943
-22.1179
-22.831
-23.8198
-24.961
-26.1471
-27.2937
-28.2928
-29.03
-29.3768
-29.3183
-28.9454
-28.3415
-27.5757
-26.7032
-25.8051
-25.005
-24.4019
-23.7407
-22.8329
-21.5166
-19.2999
-16.2628
-13.1621
61.9578
53.322
42.1752
32.7758
25.6834
20.4044
16.4828
13.5793
11.6289
10.2106
9.07184
8.09579
7.20716
6.36448
5.51758
4.62898
3.68655
2.7609
1.86332
1.02453
0.232923
-0.509029
-1.24684
-2.04027
-2.86153
-3.71364
-4.57149
-5.43631
-6.25866
-7.00607
-7.57484
-7.96787
-8.2552
-8.47843
-8.66705
-8.84331
-9.05676
-9.43078
-10.203
-11.1463
-12.1648
-13.1785
-14.169
-15.0494
-15.7532
-16.1133
-16.1424
-16.0182
-15.8211
-15.6162
-15.4299
-15.3405
-15.5294
-16.3662
-17.4786
-18.7022
-19.9177
-21.0953
-22.1179
-22.8913
-23.1861
-23.0205
-22.6522
-22.1932
-21.7355
-21.3138
-21.0387
-21.1593
-22.1881
-23.6201
-25.2364
-26.8844
-28.5313
-30.013
-31.1834
-31.6602
-31.4396
-30.8368
-29.9857
-28.9773
-27.8203
-26.6046
-25.6295
-25.562
-25.3753
-24.8587
-24.3079
-21.5535
-16.5249
-11.6747
102.907
70.8058
47.219
32.9958
24.4017
18.593
14.546
11.4436
10.1583
9.26288
8.44555
7.71006
6.9863
6.30056
5.55935
4.69405
3.60453
2.62084
1.64181
0.808581
0.0184918
-0.627801
-1.25149
-2.09989
-2.94806
-3.89046
-4.80994
-5.83218
-6.78541
-7.75788
-8.31828
-8.53105
-8.64981
-8.70716
-8.72821
-8.678
-8.5468
-8.46352
-9.68271
-10.9412
-12.2692
-13.4922
-14.8013
-15.9455
-17.0163
-17.3264
-16.9161
-16.4587
-15.9393
-15.4699
-14.9248
-14.3225
-13.8127
-15.3941
-17.0382
-18.7433
-20.2866
-21.9238
-23.3348
-24.6285
-24.8656
-24.0829
-23.2646
-22.3718
-21.5704
-20.6704
-19.7133
-18.8926
-20.9644
-23.1549
-25.4659
-27.6229
-30.0067
-32.181
-34.3355
-34.9473
-34.111
-33.0854
-31.856
-30.5926
-29.0216
-27.0575
-24.9469
-26.8935
-27.4845
-26.9335
-30.272
-27.0818
-16.5299
-8.23277
198.083
76.0286
38.7787
25.1094
19.1089
14.2444
11.2487
6.69104
8.12607
8.20247
7.70121
7.30723
6.7105
6.31631
5.77963
5.08181
3.36994
2.47393
1.21022
0.530414
-0.403096
-0.779197
-0.93261
-2.1599
-2.89893
-4.10034
-4.90042
-6.32747
-7.28445
-9.10309
-9.56229
-9.22956
-9.13284
-8.98813
-8.89194
-8.62925
-7.9678
-5.62066
-9.10577
-10.6358
-12.5245
-13.6821
-15.6708
-16.947
-19.3749
-19.5767
-17.7574
-16.9885
-15.9854
-15.4322
-14.5022
-13.1711
-9.08443
-14.3314
-16.51
-19.017
-20.5199
-23.0781
-24.7202
-27.887
-28.0131
-25.1964
-23.9841
-22.4187
-21.547
-20.1093
-18.1911
-12.4606
-19.5696
-22.516
-25.9168
-28.0346
-31.7835
-34.3772
-39.7089
-40.3192
-37.0546
-35.6271
-33.775
-32.6506
-30.7886
-27.7211
-18.4217
-30.1766
-31.238
-23.4072
-45.6372
-43.2107
-13.2879
0.430986
-14.4239
-13.6358
-12.8818
-12.1722
-11.5151
-10.9161
-10.3785
-9.90396
-9.49278
-9.14423
-8.85704
-8.6297
-8.46074
-8.34886
-8.29317
-14.4021
-13.6015
-12.8371
-12.1197
-11.457
-10.8545
-10.3153
-9.84053
-9.43005
-9.08277
-8.79709
-8.57125
-8.40355
-8.2926
-8.23739
-14.3568
-13.5308
-12.7455
-12.0121
-11.3385
-10.7296
-10.1875
-9.7127
-9.30403
-8.95962
-8.67722
-8.45455
-8.28954
-8.18052
-8.12631
-14.2848
-13.4193
-12.6019
-11.8447
-11.1553
-10.5376
-9.99244
-9.51863
-9.11364
-8.77437
-8.49754
-8.28011
-8.11947
-8.01354
-7.96094
-14.1806
-13.2594
-12.398
-11.6093
-10.9002
-10.2729
-9.72591
-9.25562
-8.85746
-8.52657
-8.25837
-8.04881
-7.89458
-7.79316
-7.74288
-14.0355
-13.0396
-12.1213
-11.2941
-10.5634
-9.92788
-9.38256
-8.92039
-8.5339
-8.21601
-7.96047
-7.7621
-7.6168
-7.52158
-7.47445
-13.8361
-12.7423
-11.7532
-10.8824
-10.1311
-9.49257
-8.95594
-8.50938
-8.14166
-7.84301
-7.60533
-7.42223
-7.28888
-7.20181
-7.15882
-13.5613
-12.3402
-11.2666
-10.351
-9.58607
-8.95524
-8.43916
-8.01943
-7.68028
-7.40895
-7.19552
-7.03255
-6.91459
-6.8379
-6.80012
-13.1759
-11.7906
-10.6218
-9.66879
-8.90685
-8.30309
-7.82593
-7.44881
-7.15099
-6.91691
-6.7352
-6.59777
-6.49897
-6.43501
-6.40358
-12.618
-11.0244
-9.76097
-8.79551
-8.06936
-7.52426
-7.11256
-6.79883
-6.5579
-6.37241
-6.23053
-6.1243
-6.04843
-5.99952
-5.97553
-11.7711
-9.92802
-8.60209
-7.68282
-7.05077
-6.61194
-6.30118
-6.07597
-5.9093
-5.78423
-5.69015
-5.62041
-5.57088
-5.53904
-5.52344
-10.4027
-8.31432
-7.03642
-6.28281
-5.83888
-5.57148
-5.40418
-5.29449
-5.21904
-5.16501
-5.12537
-5.09625
-5.07558
-5.06225
-5.0557
-8.02478
-5.89009
-4.94639
-4.57307
-4.45041
-4.43088
-4.44953
-4.47872
-4.50731
-4.53135
-4.54999
-4.5636
-4.5729
-4.57864
-4.58136
-3.58967
-2.2748
-2.28594
-2.6126
-2.95877
-3.25204
-3.48428
-3.66351
-3.80008
-3.90305
-3.97962
-4.03519
-4.07373
-4.09799
-4.10969
5.13563
2.66654
0.690082
-0.632616
-1.52001
-2.1342
-2.572
-2.89093
-3.1264
-3.30113
-3.43019
-3.52378
-3.5888
-3.62984
-3.6497
-40.0515
-40.1097
-40.2308
-40.4251
-40.7099
-41.1132
-41.6792
-42.4816
-43.6497
-45.4355
-48.4065
-54.1218
-67.9543
-112.684
-300.947
-42.5552
-42.6649
-42.8934
-43.2599
-43.798
-44.5619
-45.6396
-47.1785
-49.4373
-52.903
-58.5691
-68.63
-88.1789
-128.317
-201.414
-44.9828
-45.1379
-45.4601
-45.9757
-46.7293
-47.7927
-49.2799
-51.3755
-54.3867
-58.8426
-65.6798
-76.5493
-94.1059
-121.06
-152.642
-47.3028
-47.4948
-47.8927
-48.5263
-49.4456
-50.7292
-52.4978
-54.9368
-58.3328
-63.1286
-69.9901
-79.8247
-93.507
-110.589
-125.802
-49.4895
-49.7089
-50.1618
-50.8785
-51.909
-53.329
-55.2501
-57.8335
-61.3069
-65.9803
-72.2357
-80.4279
-90.547
-101.417
-109.525
-51.524
-51.7607
-52.2477
-53.013
-54.1019
-55.5808
-57.5427
-60.112
-63.4477
-67.7335
-73.1363
-79.6928
-87.0656
-94.1623
-98.879
-53.394
-53.6389
-54.1405
-54.9228
-56.0239
-57.4974
-59.4133
-61.8584
-64.9287
-68.7109
-73.236
-78.3906
-83.7759
-88.5604
-91.5083
-55.0941
-55.339
-55.8382
-56.6113
-57.6875
-59.1066
-60.9166
-63.1705
-65.9154
-69.1724
-72.8985
-76.9281
-80.9033
-84.2338
-86.1848
-56.6242
-56.8624
-57.3459
-58.0892
-59.1131
-60.4443
-62.1117
-64.1415
-66.5465
-69.3082
-72.3501
-75.5036
-78.4782
-80.8651
-82.216
-57.989
-58.2154
-58.6733
-59.3722
-60.3255
-61.5485
-63.0551
-64.8521
-66.9299
-69.2493
-71.7241
-74.2031
-76.4613
-78.2159
-79.1852
-59.1966
-59.4078
-59.8332
-60.4785
-61.3506
-62.4559
-63.797
-65.3676
-67.1454
-69.0825
-71.0953
-73.0561
-74.7939
-76.112
-76.8276
-60.2575
-60.4514
-60.8406
-61.4274
-62.2137
-63.1994
-64.3794
-65.7393
-67.2503
-68.8632
-70.5025
-72.0638
-73.4181
-74.4264
-74.9669
-61.1838
-61.3595
-61.7108
-62.2377
-62.9383
-63.8081
-64.8369
-66.006
-67.2845
-68.6256
-69.9639
-71.2153
-72.2824
-73.0656
-73.4815
-61.9882
-62.1455
-62.4592
-62.9273
-63.5456
-64.3065
-65.197
-66.1967
-67.2752
-68.3899
-69.4855
-70.4948
-71.3438
-71.96
-72.2848
-62.6834
-62.8229
-63.1003
-63.5126
-64.0538
-64.7148
-65.4813
-66.3328
-67.2407
-68.1675
-69.0671
-69.8857
-70.5668
-71.0568
-71.3136
-63.2818
-63.4045
-63.6479
-64.0083
-64.4789
-65.0498
-65.7066
-66.4296
-67.1929
-67.9642
-68.7048
-69.3721
-69.9224
-70.3156
-70.5206
-63.795
-63.9021
-64.1144
-64.4274
-64.8344
-65.3252
-65.886
-66.4985
-67.1397
-67.782
-68.3934
-68.9398
-69.3871
-69.7049
-69.8701
-64.2338
-64.3269
-64.5108
-64.7813
-65.1316
-65.5519
-66.0294
-66.5474
-67.0859
-67.6212
-68.1272
-68.5763
-68.9418
-69.2003
-69.3343
-64.6081
-64.6884
-64.8471
-65.0799
-65.3802
-65.7391
-66.1446
-66.5821
-67.0342
-67.4808
-67.9004
-68.2708
-68.5708
-68.7821
-68.8914
-64.9265
-64.9957
-65.132
-65.3315
-65.5882
-65.8938
-66.2376
-66.6067
-66.9862
-67.3592
-67.7079
-68.0142
-68.2613
-68.4349
-68.5244
-65.197
-65.2562
-65.3729
-65.5435
-65.7623
-66.0219
-66.313
-66.6242
-66.9427
-67.2545
-67.5447
-67.7986
-68.0029
-68.146
-68.2197
-65.4262
-65.4769
-65.5766
-65.7219
-65.908
-66.1282
-66.3743
-66.6366
-66.904
-67.1648
-67.4067
-67.6177
-67.7869
-67.9052
-67.9661
-65.6204
-65.6635
-65.7484
-65.8721
-66.0301
-66.2166
-66.4245
-66.6453
-66.8699
-67.0882
-67.2901
-67.4657
-67.6062
-67.7043
-67.7547
-65.7845
-65.8212
-65.8934
-65.9984
-66.1323
-66.2901
-66.4656
-66.6516
-66.8401
-67.023
-67.1917
-67.3381
-67.4551
-67.5366
-67.5784
-65.9231
-65.9543
-66.0156
-66.1046
-66.218
-66.3514
-66.4994
-66.656
-66.8144
-66.9676
-67.1087
-67.231
-67.3285
-67.3963
-67.4312
-66.0401
-66.0665
-66.1185
-66.1938
-66.2898
-66.4024
-66.5273
-66.6591
-66.7922
-66.9207
-67.0389
-67.1411
-67.2225
-67.2791
-67.3081
-66.1387
-66.1611
-66.205
-66.2688
-66.3499
-66.4451
-66.5503
-66.6613
-66.7732
-66.8811
-66.9801
-67.0656
-67.1337
-67.1809
-67.2052
-66.2217
-66.2407
-66.2779
-66.3318
-66.4004
-66.4807
-66.5694
-66.6629
-66.757
-66.8476
-66.9306
-67.0023
-67.0593
-67.0988
-67.1191
-66.2915
-66.3076
-66.3391
-66.3847
-66.4426
-66.5104
-66.5852
-66.664
-66.7432
-66.8193
-66.8891
-66.9492
-66.997
-67.0301
-67.0471
-66.3502
-66.3638
-66.3905
-66.429
-66.478
-66.5352
-66.5984
-66.6648
-66.7315
-66.7955
-66.8542
-66.9047
-66.9448
-66.9726
-66.9868
-66.3995
-66.411
-66.4335
-66.4662
-66.5076
-66.556
-66.6093
-66.6653
-66.7216
-66.7756
-66.8249
-66.8674
-66.9011
-66.9245
-66.9365
-66.4408
-66.4505
-66.4696
-66.4973
-66.5323
-66.5733
-66.6184
-66.6657
-66.7132
-66.7588
-66.8004
-66.8363
-66.8647
-66.8844
-66.8945
-66.4752
-66.4835
-66.4997
-66.5232
-66.5529
-66.5877
-66.6259
-66.666
-66.7062
-66.7448
-66.78
-66.8103
-66.8343
-66.8509
-66.8594
-66.504
-66.511
-66.5248
-66.5448
-66.5701
-66.5996
-66.6321
-66.6662
-66.7003
-66.7331
-66.7629
-66.7886
-66.809
-66.8231
-66.8303
-66.5278
-66.5339
-66.5457
-66.5627
-66.5843
-66.6095
-66.6373
-66.6663
-66.6954
-66.7234
-66.7488
-66.7707
-66.788
-66.8
-66.8062
-66.5475
-66.5527
-66.5628
-66.5775
-66.596
-66.6177
-66.6415
-66.6664
-66.6914
-66.7153
-66.7372
-66.7559
-66.7708
-66.781
-66.7863
-66.5636
-66.5681
-66.5768
-66.5895
-66.6056
-66.6243
-66.6449
-66.6665
-66.6881
-66.7088
-66.7276
-66.7438
-66.7567
-66.7656
-66.7701
-66.5765
-66.5805
-66.5881
-66.5992
-66.6133
-66.6297
-66.6477
-66.6665
-66.6854
-66.7035
-66.72
-66.7341
-66.7453
-66.7531
-66.757
-66.5868
-66.5902
-66.5971
-66.6069
-66.6194
-66.6339
-66.6499
-66.6666
-66.6833
-66.6993
-66.7139
-66.7265
-66.7364
-66.7432
-66.7467
-66.5946
-66.5977
-66.6039
-66.6128
-66.624
-66.6371
-66.6515
-66.6666
-66.6817
-66.6961
-66.7093
-66.7206
-66.7295
-66.7357
-66.7389
-66.6002
-66.6031
-66.6088
-66.617
-66.6273
-66.6394
-66.6527
-66.6666
-66.6805
-66.6938
-66.706
-66.7164
-66.7246
-66.7303
-66.7332
-66.6038
-66.6066
-66.6119
-66.6197
-66.6295
-66.6409
-66.6535
-66.6666
-66.6798
-66.6924
-66.7038
-66.7137
-66.7214
-66.7268
-66.7296
-66.6055
-66.6082
-66.6134
-66.621
-66.6305
-66.6416
-66.6538
-66.6666
-66.6794
-66.6917
-66.7028
-66.7124
-66.7199
-66.7252
-66.7279
-66.6054
-66.6081
-66.6133
-66.6209
-66.6304
-66.6416
-66.6538
-66.6666
-66.6794
-66.6917
-66.7029
-66.7125
-66.7201
-66.7253
-66.728
-66.6034
-66.6062
-66.6116
-66.6194
-66.6293
-66.6408
-66.6534
-66.6666
-66.6799
-66.6925
-66.7041
-66.714
-66.7218
-66.7272
-66.73
-66.5995
-66.6024
-66.6082
-66.6165
-66.6269
-66.6392
-66.6526
-66.6666
-66.6807
-66.6941
-66.7064
-66.7169
-66.7252
-66.731
-66.7339
-66.5936
-66.5968
-66.603
-66.612
-66.6234
-66.6367
-66.6513
-66.6666
-66.6819
-66.6965
-66.7099
-66.7213
-66.7304
-66.7367
-66.7399
-66.5854
-66.589
-66.5959
-66.6059
-66.6186
-66.6334
-66.6496
-66.6666
-66.6836
-66.6999
-66.7147
-66.7274
-66.7375
-66.7445
-66.7481
-66.5748
-66.5788
-66.5866
-66.598
-66.6123
-66.629
-66.6473
-66.6666
-66.6858
-66.7042
-66.721
-66.7354
-66.7468
-66.7547
-66.7587
-66.5614
-66.566
-66.575
-66.5879
-66.6043
-66.6235
-66.6445
-66.6665
-66.6886
-66.7097
-66.7289
-66.7454
-66.7585
-66.7676
-66.7722
-66.5448
-66.5501
-66.5605
-66.5755
-66.5945
-66.6166
-66.641
-66.6664
-66.692
-66.7164
-66.7387
-66.7579
-66.773
-66.7835
-66.7889
-66.5246
-66.5308
-66.5428
-66.5603
-66.5824
-66.6082
-66.6366
-66.6664
-66.6962
-66.7247
-66.7507
-66.7731
-66.7908
-66.8031
-66.8093
-66.5001
-66.5073
-66.5214
-66.5419
-66.5678
-66.5981
-66.6314
-66.6662
-66.7012
-66.7347
-66.7652
-66.7915
-66.8123
-66.8267
-66.8341
-66.4705
-66.479
-66.4956
-66.5197
-66.5502
-66.5858
-66.625
-66.6661
-66.7072
-66.7467
-66.7828
-66.8138
-66.8383
-66.8553
-66.864
-66.4351
-66.4451
-66.4647
-66.4931
-66.529
-66.571
-66.6173
-66.6658
-66.7145
-66.7612
-66.8038
-66.8404
-66.8695
-66.8897
-66.9
-66.3926
-66.4045
-66.4276
-66.4612
-66.5037
-66.5533
-66.608
-66.6655
-66.7231
-66.7784
-66.8289
-66.8724
-66.9069
-66.9308
-66.9431
-66.342
-66.356
-66.3834
-66.423
-66.4733
-66.5321
-66.5969
-66.665
-66.7333
-66.799
-66.859
-66.9107
-66.9517
-66.9801
-66.9946
-66.2817
-66.2982
-66.3306
-66.3775
-66.437
-66.5067
-66.5835
-66.6643
-66.7454
-66.8234
-66.8948
-66.9563
-67.0051
-67.039
-67.0563
-66.2099
-66.2295
-66.2678
-66.3233
-66.3937
-66.4763
-66.5674
-66.6633
-66.7597
-66.8525
-66.9375
-67.0108
-67.069
-67.1094
-67.1301
-66.1246
-66.1477
-66.1929
-66.2586
-66.3421
-66.4399
-66.548
-66.6619
-66.7766
-66.887
-66.9883
-67.0757
-67.1452
-67.1935
-67.2182
-66.0232
-66.0504
-66.104
-66.1817
-66.2804
-66.3963
-66.5246
-66.6599
-66.7963
-66.9279
-67.0487
-67.1531
-67.2361
-67.2939
-67.3235
-65.9028
-65.935
-65.9982
-66.09
-66.2069
-66.3442
-66.4964
-66.6571
-66.8195
-66.9763
-67.1205
-67.2453
-67.3447
-67.4138
-67.4493
-65.7601
-65.7981
-65.8726
-65.981
-66.1192
-66.2817
-66.4622
-66.6532
-66.8464
-67.0335
-67.2058
-67.3551
-67.4742
-67.5572
-67.5997
-65.591
-65.6357
-65.7236
-65.8514
-66.0145
-66.2068
-66.4208
-66.6476
-66.8777
-67.101
-67.307
-67.4859
-67.6289
-67.7285
-67.7797
-65.3908
-65.4434
-65.5467
-65.6972
-65.8896
-66.1169
-66.3703
-66.6397
-66.9138
-67.1804
-67.427
-67.6417
-67.8136
-67.9336
-67.9952
-65.1542
-65.2158
-65.3371
-65.514
-65.7406
-66.0088
-66.3088
-66.6287
-66.9551
-67.2736
-67.5692
-67.8272
-68.0343
-68.1791
-68.2536
-64.8748
-64.9468
-65.0888
-65.2962
-65.5626
-65.8787
-66.2334
-66.613
-67.0019
-67.3827
-67.7375
-68.0482
-68.2982
-68.4734
-68.5637
-64.5453
-64.6293
-64.795
-65.0376
-65.3499
-65.7219
-66.1408
-66.591
-67.0542
-67.51
-67.9364
-68.3113
-68.614
-68.8267
-68.9365
-64.1576
-64.2551
-64.4478
-64.7306
-65.0958
-65.5325
-66.0264
-66.5599
-67.1117
-67.6576
-68.171
-68.6246
-68.9923
-69.2515
-69.3856
-63.7021
-63.8149
-64.0381
-64.3665
-64.7921
-65.3033
-65.8846
-66.5161
-67.1734
-67.8278
-68.4471
-68.9975
-69.4458
-69.7632
-69.9277
-63.1682
-63.298
-63.5552
-63.9349
-64.4289
-65.0254
-65.7078
-66.4544
-67.2371
-68.0224
-68.7711
-69.4412
-69.9904
-70.381
-70.5841
-62.5443
-62.6927
-62.9874
-63.4239
-63.9946
-64.6878
-65.4866
-66.3674
-67.2991
-68.2423
-69.1497
-69.9687
-70.6451
-71.129
-71.3815
-61.8173
-61.9857
-62.321
-62.8197
-63.4752
-64.2769
-65.2084
-66.2452
-67.3532
-68.4869
-69.5897
-70.5954
-71.4336
-72.0375
-72.3542
-60.9734
-61.1629
-61.5413
-62.1065
-62.8542
-63.776
-64.8571
-66.0736
-67.3894
-68.7531
-70.097
-71.3383
-72.3846
-73.1455
-73.5469
-59.9978
-60.2091
-60.6319
-61.2667
-62.1124
-63.1644
-64.4117
-65.8331
-67.3922
-69.0331
-70.6757
-72.2165
-73.534
-74.5031
-75.0183
-58.8757
-59.1082
-59.5753
-60.2805
-61.2273
-62.4171
-63.8454
-65.4968
-67.3384
-69.3117
-71.3251
-73.2499
-74.9251
-76.1759
-76.8475
-57.592
-57.8445
-58.3535
-59.1265
-60.1736
-61.5043
-63.1242
-65.0285
-67.1932
-69.5625
-72.0359
-74.4565
-76.611
-78.2507
-79.1431
-56.1331
-56.4027
-56.9482
-57.7824
-58.9229
-60.3906
-62.2054
-64.3795
-66.9057
-69.741
-72.7834
-75.848
-78.6542
-80.8445
-82.0583
-54.4871
-54.7692
-55.3425
-56.2255
-57.4451
-59.036
-61.0373
-63.4858
-66.4037
-69.7758
-73.5153
-77.4188
-81.1252
-84.1165
-85.8163
-52.6453
-52.9335
-53.5219
-54.4348
-55.7094
-57.3964
-59.5585
-62.2663
-65.5863
-69.5554
-74.1333
-79.1263
-84.0928
-88.2851
-90.7547
-50.6034
-50.8895
-51.476
-52.3929
-53.6875
-55.4269
-57.7008
-60.6216
-64.318
-68.9121
-74.463
-80.8523
-87.598
-93.65
-97.4079
-48.363
-48.6368
-49.2008
-50.0889
-51.3567
-53.0863
-55.3939
-58.4384
-62.4264
-67.6045
-74.2103
-82.3307
-91.5849
-100.608
-106.671
-45.9324
-46.1828
-46.7005
-47.5214
-48.7053
-50.3442
-52.5753
-55.5999
-59.7084
-65.3053
-72.9059
-83.0216
-95.7322
-109.621
-120.144
-43.328
-43.5433
-43.9897
-44.7018
-45.738
-47.1911
-49.2058
-52.0087
-55.9567
-61.6147
-69.855
-81.9104
-99.0612
-120.972
-140.923
-40.5743
-40.7433
-41.0946
-41.6572
-42.4812
-43.6479
-45.2891
-47.6222
-51.0177
-56.1309
-64.1547
-77.2607
-99.0843
-133.684
-175.558
-37.7033
-37.8168
-38.0529
-38.4313
-38.9865
-39.7754
-40.892
-42.498
-44.8858
-48.6258
-54.925
-66.5573
-90.2349
-141.344
-239.271
-34.7537
-34.8054
-34.9124
-35.0827
-35.3297
-35.6753
-36.1553
-36.8308
-37.8151
-39.3436
-41.992
-47.489
-62.3357
-116.491
-370.988
-31.7682
-31.7556
-31.7282
-31.6809
-31.6045
-31.4819
-31.2828
-30.9494
-30.3667
-29.284
-27.0809
-21.9281
-7.13851
47.487
302.923
-28.7918
-28.7163
-28.5579
-28.2996
-27.9114
-27.3419
-26.5036
-25.2412
-23.2658
-20.0026
-14.2184
-3.05961
20.3947
72.0131
171.862
-25.8678
-25.7348
-25.4571
-25.0087
-24.3442
-23.3888
-22.0191
-20.0284
-17.0594
-12.4722
-5.08854
7.27019
28.3689
63.0449
110.145
16.5084
6.74448
2.81882
0.783351
-0.451567
-1.27117
-1.8447
-2.25921
-2.5645
-2.79119
-2.95904
-3.08113
-3.16623
-3.22009
-3.2462
10.4391
6.39733
3.44137
1.51465
0.231335
-0.657486
-1.29394
-1.76074
-2.10824
-2.36847
-2.56247
-2.70439
-2.80375
-2.86684
-2.89748
7.17659
5.29609
3.34914
1.79914
0.64028
-0.219049
-0.860981
-1.3451
-1.71259
-1.99172
-2.20205
-2.35717
-2.46644
-2.53611
-2.57003
5.21991
4.24096
2.98123
1.81198
0.841214
0.0684191
-0.537607
-1.01046
-1.37827
-1.66272
-1.87996
-2.04178
-2.15661
-2.23018
-2.26611
3.94303
3.38077
2.55048
1.68696
0.904664
0.240075
-0.30671
-0.74876
-1.10184
-1.38039
-1.59634
-1.75902
-1.8754
-1.95039
-1.98713
3.05657
2.7067
2.14277
1.50554
0.886363
0.32992
-0.148542
-0.548839
-0.877152
-1.14151
-1.3497
-1.5084
-1.62292
-1.69715
-1.73364
2.41306
2.18125
1.78596
1.31157
0.824491
0.365608
-0.044655
-0.398903
-0.696872
-0.941636
-1.13742
-1.28846
-1.39841
-1.4701
-1.50547
1.93051
1.76932
1.48405
1.1264
0.743034
0.36753
0.0203328
-0.288046
-0.553536
-0.775766
-0.956209
-1.09704
-1.20044
-1.26828
-1.30186
1.55987
1.44354
1.23241
0.959071
0.656113
0.349791
0.0583632
-0.206971
-0.440237
-0.638908
-0.802501
-0.931591
-1.02717
-1.09023
-1.12156
1.27002
1.1836
1.02396
0.812306
0.571523
0.321708
0.0782719
-0.148163
-0.350959
-0.526405
-0.672746
-0.789413
-0.876467
-0.934221
-0.963001
1.04016
0.974484
0.851613
0.685767
0.4932
0.289192
0.086374
-0.105771
-0.280672
-0.434111
-0.563594
-0.667794
-0.746105
-0.798323