/*--------------------------------*- C++ -*----------------------------------*\
| =========                 |                                                 |
| \\      /  F ield         | OpenFOAM: The Open Source CFD Toolbox           |
|  \\    /   O peration     | Version:  5.x                                   |
|   \\  /    A nd           | Web:      www.OpenFOAM.org                      |
|    \\/     M anipulation  |                                                 |
\*---------------------------------------------------------------------------*/
FoamFile
{
    version     2.0;
    format      ascii;
    class       volScalarField;
    location    "0.6";
    object      gradTy;
}
// * * * * * * * * * * * * * * * * * * * * * * * * * * * * * * * * * * * * * //

dimensions      [0 -1 0 1 0 0 0];

internalField   nonuniform List<scalar> 
3200
(
7.87035
-6.01098
-0.171254
-1.3683
-0.432505
-0.0192968
-0.448036
0.284445
-0.628307
-0.144616
0.638633
-0.702374
0.661022
-0.83186
0.766738
-0.941485
0.876901
-1.04606
0.984643
-1.14502
1.08759
-1.23816
1.18466
-1.32659
1.27615
-1.41258
1.36347
-1.49996
1.44992
-1.59244
1.53936
-1.69268
1.63525
-1.80139
1.7395
-1.91709
1.85184
-2.03669
1.97019
-2.15589
2.0915
-2.26732
2.2108
-2.35802
2.3174
-2.4134
2.39206
-2.43772
2.33592
-2.78335
0.16406
2.78002
-1.89294
2.17799
-1.71274
1.91061
-1.40219
1.61015
-1.08514
1.28816
-0.800469
0.980219
-0.569724
0.715356
-0.397768
0.507342
-0.277304
0.355204
-0.196278
0.249482
-0.143103
0.178551
-0.108429
0.13198
-0.0858104
0.124533
0.0251019
0.00592581
0.00153033
0.000528549
5.62915
-4.00344
-0.342945
-1.00057
-0.353186
-0.0441861
-0.311392
0.166964
-0.440646
-0.102832
0.425911
-0.458005
0.422376
-0.546811
0.489889
-0.618026
0.561561
-0.685531
0.631861
-0.749272
0.699109
-0.809205
0.762503
-0.86616
0.822155
-0.921687
0.878869
-0.978368
0.934747
-1.03862
0.99235
-1.10409
1.05402
-1.17512
1.12116
-1.2506
1.19372
-1.32841
1.27044
-1.40563
1.34954
-1.47728
1.4281
-1.53462
1.49938
-1.56828
1.5498
-1.58596
1.49465
-1.8921
0.117824
1.91561
-1.18557
1.43843
-1.08857
1.26252
-0.885822
1.06841
-0.679973
0.858182
-0.49741
0.65518
-0.351422
0.479249
-0.244101
0.340286
-0.169844
0.238233
-0.120401
0.167115
-0.088194
0.119322
-0.0672666
0.0879826
-0.0527154
0.0866567
0.0218735
0.00531843
0.00137998
0.000475952
3.77321
-2.52767
-0.341966
-0.685095
-0.260401
-0.0461069
-0.204661
0.0928168
-0.290921
-0.068819
0.269545
-0.284375
0.257531
-0.342193
0.298614
-0.38629
0.343052
-0.427833
0.386757
-0.466975
0.428612
-0.503748
0.468059
-0.538722
0.50512
-0.572906
0.54023
-0.60795
0.574671
-0.645349
0.61005
-0.686087
0.647882
-0.730297
0.689115
-0.777205
0.733796
-0.825434
0.781211
-0.873112
0.830349
-0.917032
0.879606
-0.951618
0.924906
-0.971129
0.957158
-0.983398
0.911564
-1.21722
0.0795783
1.24669
-0.707664
0.904484
-0.659907
0.794045
-0.533895
0.674468
-0.406541
0.543704
-0.294898
0.416317
-0.20678
0.305157
-0.14287
0.216903
-0.0992055
0.15185
-0.070438
0.106402
-0.0518474
0.0758155
-0.0398122
0.0557945
-0.0308471
0.0569269
0.0166987
0.00419097
0.00109438
0.000376405
2.16928
-1.39141
-0.239881
-0.400391
-0.159261
-0.0331844
-0.116252
0.0458266
-0.165535
-0.0395747
0.148739
-0.154723
0.138194
-0.187368
0.160185
-0.21132
0.184346
-0.23377
0.20816
-0.254888
0.230984
-0.274714
0.252494
-0.293583
0.272676
-0.312063
0.291744
-0.331072
0.310383
-0.351422
0.329478
-0.37363
0.349875
-0.397735
0.372127
-0.423283
0.39629
-0.449495
0.422004
-0.47533
0.448763
-0.498991
0.475775
-0.517379
0.500873
-0.52741
0.518809
-0.534709
0.488973
-0.679802
0.0460979
0.702222
-0.372799
0.49724
-0.352317
0.436531
-0.283705
0.371846
-0.214593
0.300571
-0.154561
0.230664
-0.107679
0.169341
-0.0740574
0.120463
-0.0513321
0.0843342
-0.0364976
0.0590453
-0.0269784
0.0420066
-0.020836
0.0308723
-0.0159754
0.0323005
0.0104006
0.00267403
0.000701981
0.000240113
0.707756
-0.443663
-0.0853464
-0.131789
-0.0535612
-0.0119438
-0.0377033
0.0137118
-0.0537119
-0.0129043
0.0475148
-0.0490237
0.0434885
-0.059582
0.0503964
-0.067166
0.0580533
-0.0742545
0.0656095
-0.0809157
0.072855
-0.0871677
0.0796826
-0.0931195
0.0860847
-0.0989556
0.0921242
-0.10497
0.0980168
-0.111419
0.104044
-0.118465
0.110479
-0.126113
0.117502
-0.134214
0.125138
-0.142516
0.133276
-0.150685
0.141763
-0.158144
0.150363
-0.163897
0.158397
-0.166976
0.164146
-0.16941
0.153785
-0.21846
0.0151315
0.226737
-0.115986
0.158545
-0.110482
0.139179
-0.0887313
0.118736
-0.0668593
0.0961171
-0.0479577
0.0738504
-0.0332848
0.0542624
-0.0228297
0.0386168
-0.0158075
0.027035
-0.0112488
0.0189197
-0.00833597
0.0134487
-0.00646015
0.00987717
-0.00492125
0.0104703
0.00352607
0.000918454
0.000241688
8.07235e-05
-0.707725
0.443682
0.0853656
0.131811
0.0535863
0.0119727
0.0377362
-0.0136745
0.0537535
0.0129498
-0.0474661
0.049075
-0.0434349
0.0596377
-0.0503384
0.0672262
-0.057991
0.0743189
-0.0655432
0.0809838
-0.0727852
0.0872391
-0.0796095
0.0931942
-0.0860083
0.0990338
-0.0920441
0.105052
-0.0979325
0.111506
-0.103955
0.118556
-0.110385
0.12621
-0.117403
0.134316
-0.125033
0.142623
-0.133167
0.150796
-0.141651
0.158257
-0.15025
0.164009
-0.158286
0.167084
-0.164043
0.169508
-0.153694
0.218543
-0.0150565
-0.22667
0.116046
-0.158493
0.110527
-0.139142
0.0887622
-0.118711
0.0668792
-0.0961016
0.0479695
-0.0738415
0.0332915
-0.0542574
0.0228334
-0.0386142
0.0158094
-0.0270336
0.0112496
-0.0189193
0.00833609
-0.0134488
0.00645976
-0.00987759
0.00492106
-0.01047
-0.00352514
-0.000917324
-0.000241768
-8.60086e-05
-2.16926
1.39142
0.239895
0.400406
0.159279
0.0332051
0.116275
-0.0457999
0.165565
0.0396075
-0.148704
0.15476
-0.138155
0.187409
-0.160143
0.211364
-0.1843
0.233817
-0.208111
0.254938
-0.230933
0.274767
-0.25244
0.293638
-0.27262
0.312121
-0.291685
0.331133
-0.310321
0.351486
-0.329412
0.373697
-0.349806
0.397807
-0.372054
0.423358
-0.396213
0.449574
-0.421924
0.475411
-0.44868
0.499075
-0.475692
0.517462
-0.500791
0.52749
-0.518732
0.534783
-0.488905
0.679865
-0.0460408
-0.702171
0.372845
-0.4972
0.352352
-0.436501
0.28373
-0.371825
0.21461
-0.300558
0.154572
-0.230656
0.107686
-0.169336
0.0740614
-0.12046
0.0513345
-0.0843323
0.036499
-0.0590443
0.0269791
-0.0420062
0.0208361
-0.0308723
0.0159755
-0.0323
-0.0103997
-0.00267307
-0.000701853
-0.000243714
-3.77321
2.52768
0.341969
0.685098
0.260405
0.0461118
0.204666
-0.0928104
0.290929
0.0688268
-0.269537
0.284384
-0.257522
0.342204
-0.298604
0.386302
-0.34304
0.427845
-0.386745
0.466988
-0.428598
0.503762
-0.468045
0.538737
-0.505104
0.572922
-0.540214
0.607967
-0.574654
0.645367
-0.610032
0.686106
-0.647863
0.730317
-0.689095
0.777226
-0.733775
0.825455
-0.781189
0.873134
-0.830326
0.917056
-0.879583
0.951642
-0.924883
0.971152
-0.957135
0.98342
-0.911543
1.21724
-0.0795597
-1.24667
0.70768
-0.90447
0.65992
-0.794033
0.533905
-0.674459
0.406549
-0.543697
0.294903
-0.416312
0.206784
-0.305153
0.142873
-0.2169
0.0992077
-0.151848
0.0704395
-0.106401
0.0518485
-0.0758147
0.0398129
-0.0557939
0.0308476
-0.0569265
-0.0166983
-0.00419052
-0.00109407
-0.000376959
-5.62916
4.00343
0.342934
1.00055
0.353171
0.0441695
0.311373
-0.166985
0.440622
0.102806
-0.425939
0.457976
-0.422407
0.546779
-0.489922
0.617992
-0.561596
0.685495
-0.631898
0.749234
-0.699149
0.809165
-0.762544
0.866118
-0.822198
0.921643
-0.878914
0.978322
-0.934794
1.03857
-0.9924
1.10404
-1.05408
1.17507
-1.12122
1.25055
-1.19378
1.32835
-1.2705
1.40557
-1.3496
1.47721
-1.42817
1.53456
-1.49944
1.56822
-1.54986
1.58591
-1.4947
1.89205
-0.117864
-1.91565
1.18554
-1.43846
1.08854
-1.26254
0.885806
-1.06842
0.679963
-0.858189
0.497405
-0.655183
0.35142
-0.479251
0.2441
-0.340287
0.169844
-0.238233
0.120401
-0.167114
0.0881944
-0.119321
0.0672672
-0.0879821
0.0527158
-0.0866567
-0.0218739
-0.00531895
-0.00137981
-0.000472723
-7.87039
6.01096
0.171229
1.36827
0.432472
0.0192589
0.447993
-0.284494
0.628252
0.144556
-0.638697
0.702305
-0.661094
0.831785
-0.766816
0.941403
-0.876985
1.04597
-0.984733
1.14493
-1.08769
1.23806
-1.18476
1.32649
-1.27625
1.41247
-1.36358
1.49984
-1.45003
1.59232
-1.53948
1.69255
-1.63538
1.80125
-1.73963
1.91695
-1.85199
2.03655
-1.97034
2.15573
-2.09166
2.26716
-2.21096
2.35787
-2.31755
2.41325
-2.39221
2.43758
-2.33605
2.78323
-0.164171
-2.78012
1.89285
-2.17807
1.71267
-1.91067
1.40214
-1.61019
1.08511
-1.28819
0.800446
-0.980237
0.569709
-0.715368
0.397758
-0.507349
0.277298
-0.355209
0.196274
-0.249485
0.143101
-0.178552
0.108428
-0.131981
0.0858096
-0.124534
-0.0251037
-0.00592783
-0.00153087
-0.000522338
2.33489
-1.91242
-0.58208
0.0510729
-0.308564
0.228451
-0.367066
0.287507
-0.545178
-0.122283
0.561446
-0.614799
0.580141
-0.725835
0.671463
-0.816136
0.764187
-0.898373
0.851484
-0.971851
0.930874
-1.03635
1.0013
-1.0928
1.06299
-1.14297
1.11724
-1.18906
1.16605
-1.23322
1.21166
-1.27719
1.25611
-1.32194
1.30086
-1.36752
1.3466
-1.41291
1.39295
-1.45597
1.43844
-1.49374
1.48047
-1.52303
1.51566
-1.5419
1.53775
-1.56213
1.48777
-1.83254
0.0259891
1.84032
-1.42559
1.53681
-1.46185
1.49344
-1.44343
1.46493
-1.43744
1.4461
-1.45985
1.44696
-1.52724
1.48228
-1.65728
1.57993
-1.82346
1.74785
-1.91182
1.89384
-1.83945
1.88888
-1.71259
2.00521
-0.706219
1.25732
0.253454
0.0588657
0.0143174
0.00431444
1.66459
-1.29544
-0.468228
0.00466565
-0.211798
0.140936
-0.245277
0.174982
-0.380808
-0.0866133
0.374724
-0.400729
0.370911
-0.476896
0.429391
-0.53536
0.489965
-0.588164
0.54722
-0.635156
0.59941
-0.676297
0.645755
-0.712267
0.686332
-0.744284
0.72194
-0.773806
0.753864
-0.802235
0.783572
-0.83066
0.812431
-0.859671
0.841461
-0.889231
0.871165
-0.918596
0.901393
-0.946309
0.931243
-0.970385
0.959072
-0.988756
0.982626
-1.00038
0.996966
-1.01634
0.949824
-1.24971
0.0195153
1.2603
-0.904626
1.00417
-0.943858
0.972009
-0.933235
0.952417
-0.930549
0.938444
-0.947173
0.936151
-0.994134
0.954976
-1.08258
1.01503
-1.19236
1.12634
-1.24518
1.2296
-1.18929
1.23303
-1.09378
1.35052
-0.398462
0.881101
0.221034
0.0528267
0.0129054
0.00388994
1.11264
-0.830012
-0.340275
-0.0142464
-0.137886
0.0828833
-0.155852
0.101385
-0.250564
-0.0577677
0.237323
-0.248707
0.226283
-0.298309
0.261961
-0.334397
0.299659
-0.36673
0.335425
-0.395392
0.368095
-0.42042
0.397136
-0.442284
0.422552
-0.461773
0.444812
-0.479808
0.464704
-0.497256
0.483147
-0.514774
0.50101
-0.532697
0.518961
-0.550964
0.537352
-0.56907
0.556136
-0.586073
0.574795
-0.600711
0.592329
-0.611701
0.607309
-0.61854
0.616144
-0.63021
0.578035
-0.806099
0.0137008
0.816032
-0.547085
0.625336
-0.580886
0.602955
-0.575135
0.590197
-0.574179
0.580541
-0.585676
0.577473
-0.616601
0.586757
-0.673638
0.62199
-0.742627
0.692145
-0.772665
0.760864
-0.732988
0.766967
-0.665956
0.863451
-0.211932
0.582406
0.168894
0.0416213
0.0102288
0.00308388
0.638358
-0.461938
-0.205837
-0.0152411
-0.0778269
0.0431276
-0.0863566
0.0520546
-0.14222
-0.0331357
0.131033
-0.135269
0.121483
-0.163282
0.140621
-0.182835
0.161178
-0.200238
0.180738
-0.215618
0.198634
-0.229019
0.214555
-0.240718
0.228484
-0.251159
0.240666
-0.260848
0.251525
-0.270257
0.261563
-0.279734
0.271264
-0.28945
0.281004
-0.299353
0.290993
-0.309153
0.301226
-0.318319
0.311435
-0.326151
0.321089
-0.331955
0.329393
-0.335517
0.33416
-0.342667
0.309531
-0.451059
0.00817301
0.457973
-0.291376
0.341238
-0.313921
0.327979
-0.311166
0.320779
-0.310953
0.315104
-0.317715
0.312733
-0.335304
0.316762
-0.367254
0.335061
-0.405145
0.373675
-0.420318
0.413018
-0.396619
0.418072
-0.356748
0.480479
-0.100259
0.331974
0.105267
0.0265517
0.00655883
0.00197647
0.208056
-0.148158
-0.0688213
-0.00615515
-0.0251601
0.0133335
-0.0276389
0.0159638
-0.0460858
-0.0107887
0.0418726
-0.0428506
0.038241
-0.0519118
0.0442594
-0.0580946
0.0507846
-0.063577
0.0570036
-0.0684134
0.0626987
-0.0726227
0.0677673
-0.0762958
0.0722014
-0.0795758
0.0760763
-0.0826247
0.0795256
-0.0855913
0.0827096
-0.088585
0.0857827
-0.091657
0.0888669
-0.0947888
0.0920319
-0.0978848
0.0952787
-0.100774
0.0985263
-0.103233
0.101607
-0.105041
0.104267
-0.106142
0.10577
-0.108554
0.0972677
-0.145084
0.00275026
0.147607
-0.0912155
0.108381
-0.0991038
0.103982
-0.0982992
0.101653
-0.0982876
0.0997778
-0.100523
0.0989005
-0.106235
0.0999956
-0.116527
0.10564
-0.128604
0.117951
-0.133213
0.130757
-0.125338
0.132663
-0.112098
0.154167
-0.0291485
0.107869
0.0356975
0.00911479
0.00225748
0.000676856
-0.208013
0.148184
0.0688442
0.00617941
0.0251868
-0.0133039
0.0276716
-0.0159277
0.0461255
0.0108315
-0.0418271
0.0428981
-0.0381915
0.0519631
-0.0442063
0.0581495
-0.0507281
0.0636351
-0.056944
0.0684744
-0.0626364
0.0726863
-0.0677025
0.0763618
-0.0721342
0.0796443
-0.0760064
0.082696
-0.0794528
0.0856658
-0.0826334
0.0886629
-0.0857028
0.0917387
-0.0887832
0.0948745
-0.0919442
0.0979744
-0.0951874
0.100867
-0.0984318
0.103328
-0.10151
0.105138
-0.104169
0.106241
-0.105671
0.108652
-0.0971701
0.145181
-0.00265499
-0.147513
0.0913073
-0.108292
0.0991915
-0.103897
0.0983821
-0.101572
0.098365
-0.0997037
0.100593
-0.0988339
0.106297
-0.0999386
0.116578
-0.105595
0.128641
-0.117922
0.133234
-0.130746
0.125341
-0.132667
0.112088
-0.15418
0.029136
-0.107878
-0.035703
-0.009117
-0.00225975
-0.000687674
-0.638329
0.461956
0.205853
0.0152587
0.0778463
-0.0431062
0.0863802
-0.0520285
0.142249
0.0331666
-0.131
0.135304
-0.121447
0.16332
-0.140582
0.182875
-0.161136
0.200281
-0.180694
0.215662
-0.198588
0.229066
-0.214507
0.240767
-0.228435
0.251209
-0.240615
0.260901
-0.251471
0.270312
-0.261507
0.279792
-0.271205
0.28951
-0.280942
0.299417
-0.290929
0.309219
-0.301158
0.318387
-0.311365
0.326222
-0.321017
0.332027
-0.32932
0.33559
-0.334087
0.34274
-0.309459
0.451131
-0.00810212
-0.457903
0.291444
-0.341171
0.313986
-0.327915
0.311228
-0.320719
0.311011
-0.315048
0.317768
-0.312682
0.335352
-0.316718
0.367293
-0.335027
0.405174
-0.373651
0.420335
-0.413007
0.396624
-0.418073
0.356743
-0.480486
0.100252
-0.33198
-0.105271
-0.0265528
-0.00656001
-0.00198383
-1.11264
0.830016
0.340279
0.0142508
0.137891
-0.082878
0.155857
-0.101379
0.250571
0.0577754
-0.237314
0.248716
-0.226274
0.298319
-0.261951
0.334408
-0.299648
0.366741
-0.335413
0.395404
-0.368082
0.420433
-0.397123
0.442297
-0.422538
0.461787
-0.444798
0.479822
-0.46469
0.497271
-0.483132
0.51479
-0.500994
0.532713
-0.518944
0.550981
-0.537334
0.569089
-0.556118
0.586092
-0.574775
0.60073
-0.59231
0.611721
-0.607288
0.61856
-0.616123
0.630231
-0.578014
0.806119
-0.0136803
-0.816012
0.547105
-0.625317
0.580906
-0.602936
0.575154
-0.590179
0.574197
-0.580524
0.585692
-0.577457
0.616616
-0.586743
0.673651
-0.621978
0.742638
-0.692136
0.772673
-0.760858
0.732992
-0.766964
0.665958
-0.86345
0.211932
-0.582405
-0.168894
-0.0416208
-0.0102284
-0.003085
-1.66461
1.29542
0.468215
-0.00467944
0.211783
-0.140953
0.245258
-0.175003
0.380786
0.0865889
-0.37475
0.400702
-0.370939
0.476867
-0.429421
0.535329
-0.489997
0.588132
-0.547254
0.635122
-0.599444
0.676262
-0.645791
0.712231
-0.68637
0.744246
-0.721979
0.773766
-0.753904
0.802193
-0.783615
0.830617
-0.812475
0.859625
-0.841508
0.889183
-0.871214
0.918546
-0.901444
0.946257
-0.931296
0.970332
-0.959126
0.988701
-0.982681
1.00033
-0.997021
1.01629
-0.949878
1.24965
-0.0195679
-1.26035
0.904575
-1.00422
0.94381
-0.972055
0.933189
-0.952461
0.930507
-0.938484
0.947135
-0.936187
0.994101
-0.955006
1.08255
-1.01506
1.19234
-1.12636
1.24517
-1.22961
1.18929
-1.23302
1.09378
-1.35051
0.39847
-0.881094
-0.22103
-0.052825
-0.0129038
-0.00388333
-2.33494
1.91239
0.58205
-0.0511052
0.308529
-0.228491
0.367022
-0.287555
0.545125
0.122226
-0.561507
0.614735
-0.580207
0.725765
-0.671535
0.816062
-0.764264
0.898293
-0.851566
0.971767
-0.93096
1.03627
-1.00139
1.09271
-1.06308
1.14288
-1.11734
1.18896
-1.16615
1.23312
-1.21177
1.27708
-1.25622
1.32182
-1.30098
1.3674
-1.34672
1.41278
-1.39308
1.45584
-1.43857
1.4936
-1.4806
1.52289
-1.5158
1.54176
-1.53788
1.56199
-1.4879
1.83241
-0.0261232
-1.84045
1.42546
-1.53694
1.46173
-1.49356
1.44331
-1.46505
1.43733
-1.4462
1.45975
-1.44706
1.52715
-1.48236
1.65721
-1.58
1.82341
-1.7479
1.91178
-1.89386
1.83943
-1.88888
1.71259
-2.0052
0.70623
-1.25731
-0.25345
-0.0588646
-0.014316
-0.00430175
2.33848
-1.91499
-0.581473
0.0500728
-0.307676
0.227541
-0.36616
0.286628
-0.544196
-0.122397
0.560485
-0.614215
0.57944
-0.725345
0.670894
-0.815781
0.763752
-0.898156
0.851186
-0.971775
0.930714
-1.03643
1.00128
-1.09303
1.06312
-1.14337
1.11754
-1.18964
1.16653
-1.234
1.21233
-1.27817
1.25697
-1.32311
1.30193
-1.36888
1.34786
-1.41441
1.39438
-1.45759
1.44
-1.49542
1.48213
-1.52473
1.51738
-1.54356
1.53946
-1.56369
1.48937
-1.8341
0.0263719
1.84184
-1.42616
1.53774
-1.46199
1.49392
-1.44301
1.46488
-1.43643
1.44547
-1.45825
1.44573
-1.52512
1.48045
-1.65483
1.57757
-1.8213
1.7455
-1.9102
1.89196
-1.83818
1.88713
-1.71268
2.00492
-0.70602
1.25703
0.253397
0.0588524
0.0143141
0.00431341
1.66716
-1.29712
-0.467902
0.00399851
-0.211227
0.140344
-0.244688
0.174418
-0.380143
-0.086693
0.374059
-0.400366
0.370446
-0.476587
0.429014
-0.535138
0.489674
-0.588033
0.547018
-0.635116
0.599296
-0.676353
0.645734
-0.712426
0.686408
-0.744555
0.722121
-0.774199
0.754159
-0.802756
0.783992
-0.831312
0.812981
-0.860448
0.842142
-0.890122
0.871971
-0.919581
0.902312
-0.947365
0.932253
-0.971482
0.96015
-0.98986
0.983741
-1.00146
0.998083
-1.01735
0.950863
-1.25075
0.0197886
1.26138
-0.90495
1.00481
-0.943911
0.972356
-0.932925
0.95243
-0.929852
0.938083
-0.946092
0.935393
-0.992718
0.953821
-1.08096
1.0135
-1.19097
1.12479
-1.24416
1.22835
-1.1885
1.23182
-1.0939
1.35032
-0.39834
0.880902
0.220984
0.0528147
0.0129024
0.00388902
1.11437
-0.831058
-0.340112
-0.0146701
-0.137536
0.0825173
-0.155487
0.10104
-0.250138
-0.0578207
0.236888
-0.248493
0.225989
-0.298124
0.261722
-0.334265
0.299474
-0.366653
0.335294
-0.395372
0.368019
-0.42046
0.397117
-0.442388
0.422592
-0.461947
0.444917
-0.480057
0.46488
-0.497585
0.483399
-0.515184
0.501343
-0.533184
0.519375
-0.551521
0.537845
-0.569685
0.5567
-0.58673
0.575417
-0.601391
0.592995
-0.612384
0.608
-0.619201
0.616839
-0.630827
0.578678
-0.806756
0.0138845
0.816747
-0.547258
0.625754
-0.580898
0.603192
-0.57492
0.59023
-0.573723
0.580343
-0.584982
0.577028
-0.615703
0.58606
-0.67263
0.621038
-0.741773
0.691168
-0.772057
0.760076
-0.732524
0.76618
-0.666074
0.863314
-0.21186
0.582275
0.168856
0.0416118
0.0102265
0.00308315
0.639355
-0.462507
-0.205764
-0.0154758
-0.0776381
0.0429289
-0.0861584
0.051869
-0.141983
-0.0331659
0.130787
-0.135158
0.121321
-0.163184
0.14049
-0.182766
0.161075
-0.200199
0.180665
-0.215609
0.198591
-0.229043
0.214542
-0.240777
0.228503
-0.251256
0.24072
-0.260986
0.251617
-0.270439
0.261697
-0.27996
0.271441
-0.289717
0.281226
-0.299658
0.291258
-0.309489
0.301529
-0.318676
0.311771
-0.326521
0.32145
-0.332325
0.329769
-0.335875
0.334539
-0.343
0.30988
-0.451422
0.00827901
0.458381
-0.291458
0.341474
-0.313918
0.328118
-0.311039
0.320807
-0.310694
0.315008
-0.317328
0.312501
-0.334808
0.316391
-0.366702
0.334544
-0.404685
0.373138
-0.419996
0.412583
-0.396377
0.417627
-0.356828
0.480399
-0.100222
0.3319
0.105244
0.0265456
0.00655732
0.001976
0.208381
-0.148338
-0.068801
-0.00623028
-0.0251005
0.0132706
-0.0275761
0.0159054
-0.0460095
-0.0107985
0.0417932
-0.0428159
0.0381894
-0.0518811
0.0442174
-0.058073
0.0507518
-0.0635649
0.0569801
-0.0684111
0.0626847
-0.0726307
0.0677629
-0.0763149
0.0722071
-0.0796069
0.0760929
-0.0826689
0.0795543
-0.0856494
0.0827513
-0.0886569
0.0858383
-0.0917421
0.0889367
-0.0948857
0.0921153
-0.0979914
0.0953746
-0.100887
0.0986326
-0.10335
0.101721
-0.105158
0.104386
-0.106255
0.10589
-0.108659
0.0973783
-0.1452
0.00278495
0.147739
-0.0912395
0.108458
-0.0991012
0.104028
-0.0982573
0.101663
-0.098204
0.0997493
-0.100398
0.0988291
-0.106077
0.0998796
-0.116351
0.105476
-0.128459
0.11778
-0.133113
0.130619
-0.125263
0.132519
-0.112126
0.154141
-0.0291373
0.107845
0.0356895
0.00911272
0.00225696
0.000676696
-0.208339
0.148364
0.0688239
0.00625459
0.0251273
-0.013241
0.0276088
-0.0158692
0.0460492
0.0108414
-0.0417477
0.0428635
-0.0381398
0.0519324
-0.0441642
0.058128
-0.0506951
0.0636232
-0.0569204
0.0684722
-0.0626223
0.0726943
-0.067698
0.076381
-0.0721398
0.0796756
-0.0760229
0.0827404
-0.0794813
0.085724
-0.082675
0.088735
-0.0857583
0.091824
-0.0888528
0.0949716
-0.0920275
0.098081
-0.0952831
0.10098
-0.098538
0.103446
-0.101624
0.105256
-0.104287
0.106354
-0.105791
0.108757
-0.0972806
0.145297
-0.00268962
-0.147646
0.0913313
-0.108368
0.0991889
-0.103943
0.0983402
-0.101583
0.0982813
-0.0996752
0.100469
-0.0987625
0.106139
-0.0998226
0.116403
-0.105431
0.128496
-0.117751
0.133133
-0.130607
0.125266
-0.132523
0.112116
-0.154154
0.0291247
-0.107854
-0.0356949
-0.00911493
-0.00225923
-0.00068751
-0.639325
0.462525
0.205781
0.0154934
0.0776575
-0.0429075
0.086182
-0.0518428
0.142012
0.0331969
-0.130754
0.135192
-0.121285
0.163221
-0.140451
0.182806
-0.161033
0.200242
-0.180621
0.215654
-0.198545
0.22909
-0.214494
0.240826
-0.228454
0.251306
-0.240669
0.261039
-0.251563
0.270494
-0.26164
0.280018
-0.271382
0.289778
-0.281164
0.299722
-0.291193
0.309555
-0.301462
0.318745
-0.311702
0.326592
-0.321378
0.332397
-0.329696
0.335948
-0.334466
0.343073
-0.309808
0.451494
-0.00820807
-0.458311
0.291527
-0.341407
0.313983
-0.328054
0.311101
-0.320747
0.310752
-0.314952
0.317381
-0.312451
0.334855
-0.316348
0.366741
-0.33451
0.404714
-0.373114
0.420013
-0.412572
0.396382
-0.417628
0.356823
-0.480407
0.100215
-0.331906
-0.105247
-0.0265467
-0.0065585
-0.00198336
-1.11437
0.831062
0.340116
0.0146744
0.137541
-0.082512
0.155493
-0.101033
0.250145
0.0578283
-0.236879
0.248501
-0.22598
0.298134
-0.261712
0.334276
-0.299463
0.366665
-0.335282
0.395384
-0.368007
0.420473
-0.397104
0.442401
-0.422579
0.461961
-0.444903
0.480072
-0.464865
0.497601
-0.483384
0.5152
-0.501327
0.533201
-0.519358
0.551538
-0.537827
0.569703
-0.556681
0.586749
-0.575397
0.60141
-0.592975
0.612404
-0.607979
0.619222
-0.616818
0.630847
-0.578657
0.806777
-0.0138639
-0.816727
0.547279
-0.625734
0.580917
-0.603173
0.574939
-0.590212
0.573741
-0.580326
0.584998
-0.577012
0.615718
-0.586046
0.672643
-0.621026
0.741784
-0.691159
0.772065
-0.76007
0.732528
-0.766176
0.666076
-0.863313
0.211861
-0.582275
-0.168856
-0.0416113
-0.0102261
-0.00308426
-1.66719
1.29711
0.467889
-0.00401233
0.211211
-0.140361
0.24467
-0.174439
0.38012
0.0866686
-0.374085
0.400339
-0.370474
0.476558
-0.429044
0.535107
-0.489706
0.588
-0.547051
0.635082
-0.599331
0.676317
-0.64577
0.712389
-0.686445
0.744517
-0.72216
0.774159
-0.7542
0.802715
-0.784035
0.831268
-0.813026
0.860403
-0.842189
0.890074
-0.87202
0.919531
-0.902363
0.947313
-0.932306
0.971429
-0.960204
0.989806
-0.983796
1.0014
-0.998138
1.01729
-0.950917
1.25069
-0.0198412
-1.26143
0.904899
-1.00486
0.943863
-0.972403
0.93288
-0.952474
0.92981
-0.938124
0.946053
-0.935429
0.992685
-0.953851
1.08094
-1.01352
1.19095
-1.1248
1.24415
-1.22836
1.1885
-1.23182
1.09391
-1.35031
0.398348
-0.880895
-0.22098
-0.052813
-0.0129008
-0.00388241
-2.33853
1.91496
0.581443
-0.0501052
0.30764
-0.22758
0.366116
-0.286676
0.544143
0.122339
-0.560546
0.614151
-0.579507
0.725276
-0.670967
0.815707
-0.763829
0.898076
-0.851267
0.971691
-0.9308
1.03634
-1.00137
1.09294
-1.06321
1.14328
-1.11763
1.18954
-1.16663
1.2339
-1.21243
1.27806
-1.25708
1.323
-1.30205
1.36876
-1.34798
1.41429
-1.39451
1.45746
-1.44013
1.49529
-1.48226
1.52459
-1.51752
1.54343
-1.5396
1.56355
-1.4895
1.83396
-0.026506
-1.84198
1.42603
-1.53786
1.46187
-1.49404
1.4429
-1.465
1.43632
-1.44558
1.45815
-1.44583
1.52503
-1.48054
1.65476
-1.57763
1.82124
-1.74555
1.91017
-1.89199
1.83816
-1.88713
1.71268
-2.00491
0.706031
-1.25702
-0.253392
-0.0588513
-0.0143127
-0.00430073
7.86745
-6.00947
-0.174066
-1.36574
-0.435007
-0.0167505
-0.450405
0.286784
-0.630919
-0.144397
0.641226
-0.704111
0.66302
-0.833455
0.768493
-0.942828
0.878408
-1.04714
0.985888
-1.14584
1.08857
-1.23872
1.18538
-1.3269
1.27662
-1.41265
1.36369
-1.49981
1.4499
-1.59209
1.53914
-1.69213
1.63482
-1.80063
1.73887
-1.91612
1.851
-2.03551
1.96911
-2.15459
2.09032
-2.26575
2.20938
-2.35622
2.31571
-2.41145
2.39015
-2.43585
2.33402
-2.78159
0.163477
2.77833
-1.89249
2.17713
-1.71269
1.91029
-1.40238
1.6102
-1.08536
1.28837
-0.800569
0.980379
-0.569677
0.715381
-0.397623
0.507245
-0.277124
0.355042
-0.1961
0.249295
-0.142968
0.178398
-0.108315
0.13185
-0.0857168
0.1244
0.0250753
0.00591951
0.00152869
0.000527971
5.62704
-4.00255
-0.34482
-0.998912
-0.354805
-0.0425278
-0.312924
0.168468
-0.442416
-0.102676
0.4277
-0.459093
0.423694
-0.547827
0.491045
-0.618878
0.562558
-0.686212
0.632687
-0.749782
0.699763
-0.809551
0.762988
-0.866344
0.822474
-0.921715
0.879025
-0.978256
0.934751
-1.03838
0.992219
-1.10372
1.05376
-1.17462
1.12077
-1.24996
1.19319
-1.32763
1.26975
-1.40478
1.34878
-1.47624
1.42719
-1.53344
1.4983
-1.56701
1.54856
-1.58476
1.49342
-1.89093
0.117409
1.91441
-1.18534
1.43783
-1.08856
1.26229
-0.885969
1.06844
-0.680122
0.858319
-0.49747
0.655292
-0.351383
0.479273
-0.244
0.340228
-0.169724
0.238129
-0.120285
0.166992
-0.0881091
0.119221
-0.0671944
0.0878969
-0.0526573
0.0865648
0.0218503
0.00531277
0.0013785
0.000475431
3.77178
-2.52718
-0.343154
-0.684078
-0.2614
-0.045078
-0.205606
0.0937387
-0.292057
-0.0687144
0.270711
-0.285024
0.258359
-0.342811
0.29934
-0.386807
0.343679
-0.428243
0.387279
-0.467279
0.429026
-0.503951
0.46837
-0.538825
0.505327
-0.572914
0.540335
-0.607872
0.574681
-0.645193
0.609977
-0.685851
0.647729
-0.729977
0.68888
-0.7768
0.733476
-0.824943
0.780789
-0.872582
0.829893
-0.916385
0.879053
-0.950877
0.924243
-0.97034
0.95639
-0.982655
0.910796
-1.21648
0.0793007
1.24589
-0.707553
0.904089
-0.659926
0.793885
-0.533998
0.674479
-0.406637
0.54379
-0.294932
0.416391
-0.20675
0.305177
-0.142804
0.216869
-0.0991293
0.151787
-0.0703664
0.106326
-0.0517963
0.0757519
-0.0397686
0.0557404
-0.0308128
0.0568667
0.016681
0.00418651
0.0010932
0.000375994
2.16845
-1.39117
-0.240538
-0.399842
-0.159803
-0.0326247
-0.116764
0.0463231
-0.166168
-0.0395145
0.149396
-0.155064
0.138648
-0.187698
0.160583
-0.211595
0.18469
-0.233988
0.208447
-0.255048
0.231214
-0.27482
0.252666
-0.293634
0.272793
-0.312063
0.291805
-0.331026
0.310393
-0.351334
0.329442
-0.373498
0.349796
-0.397558
0.372003
-0.423059
0.39612
-0.449226
0.421778
-0.47504
0.448519
-0.498636
0.475479
-0.516973
0.500515
-0.52698
0.518393
-0.534307
0.488556
-0.679397
0.0459382
0.701762
-0.372753
0.497015
-0.352336
0.436438
-0.283766
0.371849
-0.214646
0.300619
-0.154578
0.230707
-0.107661
0.169353
-0.0740197
0.120446
-0.05129
0.0842999
-0.0364587
0.0590031
-0.0269512
0.0419716
-0.0208128
0.0308426
-0.0159574
0.0322663
0.0103895
0.00267119
0.000701228
0.000239851
0.707484
-0.44359
-0.0855564
-0.131616
-0.0537325
-0.0117664
-0.0378653
0.0138682
-0.0539151
-0.0128847
0.047727
-0.04913
0.0436333
-0.0596857
0.0505232
-0.0672525
0.0581632
-0.0743226
0.0657014
-0.0809657
0.0729284
-0.0872003
0.079738
-0.0931351
0.0861224
-0.0989549
0.0921442
-0.104955
0.0980204
-0.111391
0.104033
-0.118422
0.110454
-0.126056
0.117464
-0.134143
0.125085
-0.142431
0.133204
-0.150593
0.141686
-0.158031
0.15027
-0.163768
0.158284
-0.16684
0.164014
-0.169283
0.153653
-0.218331
0.0150793
0.226587
-0.115975
0.158472
-0.11049
0.139149
-0.0887516
0.118736
-0.0668764
0.0961321
-0.0479629
0.0738641
-0.0332787
0.0542666
-0.0228175
0.0386116
-0.015794
0.0270242
-0.0112365
0.0189063
-0.00832746
0.0134375
-0.00645289
0.00986767
-0.00491569
0.0104593
0.00352233
0.000917477
0.000241429
8.06355e-05
-0.707453
0.44361
0.0855756
0.131638
0.0537576
0.0117953
0.0378982
-0.013831
0.0539567
0.0129302
-0.0476783
0.0491812
-0.0435798
0.0597415
-0.0504652
0.0673126
-0.0581009
0.0743869
-0.0656352
0.0810337
-0.0728587
0.0872717
-0.079665
0.0932098
-0.086046
0.099033
-0.0920642
0.105037
-0.0979362
0.111477
-0.103944
0.118514
-0.11036
0.126153
-0.117364
0.134245
-0.12498
0.142537
-0.133095
0.150704
-0.141575
0.158143
-0.150157
0.16388
-0.158174
0.166947
-0.163911
0.169381
-0.153562
0.218414
-0.0150043
-0.226521
0.116034
-0.15842
0.110534
-0.139111
0.0887825
-0.118711
0.0668962
-0.0961167
0.0479748
-0.0738552
0.0332854
-0.0542617
0.0228211
-0.0386089
0.015796
-0.0270228
0.0112373
-0.0189058
0.00832758
-0.0134377
0.0064525
-0.00986809
0.0049155
-0.0104589
-0.0035214
-0.000916348
-0.000241509
-8.59143e-05
-2.16843
1.39118
0.240551
0.399857
0.159821
0.0326454
0.116788
-0.0462963
0.166198
0.0395473
-0.149361
0.155102
-0.138609
0.187739
-0.160541
0.211639
-0.184645
0.234035
-0.208399
0.255098
-0.231163
0.274872
-0.252613
0.293689
-0.272737
0.312121
-0.291746
0.331087
-0.310331
0.351398
-0.329376
0.373565
-0.349726
0.397629
-0.37193
0.423134
-0.396043
0.449305
-0.421697
0.475121
-0.448436
0.498719
-0.475396
0.517056
-0.500434
0.52706
-0.518315
0.534381
-0.488487
0.67946
-0.0458811
-0.701711
0.372799
-0.496975
0.352371
-0.436408
0.283791
-0.371829
0.214663
-0.300605
0.154589
-0.230698
0.107668
-0.169348
0.0740237
-0.120443
0.0512924
-0.0842981
0.0364601
-0.0590021
0.0269519
-0.0419712
0.0208129
-0.0308425
0.0159576
-0.0322659
-0.0103887
-0.00267023
-0.000701099
-0.000243448
-3.77178
2.52718
0.343157
0.684081
0.261405
0.0450829
0.205612
-0.0937324
0.292064
0.0687223
-0.270702
0.285033
-0.258349
0.342821
-0.299329
0.386818
-0.343667
0.428255
-0.387267
0.467292
-0.429013
0.503965
-0.468355
0.53884
-0.505312
0.572929
-0.540319
0.607889
-0.574664
0.64521
-0.609959
0.685869
-0.64771
0.729997
-0.68886
0.77682
-0.733455
0.824965
-0.780767
0.872604
-0.82987
0.916408
-0.87903
0.9509
-0.924219
0.970363
-0.956368
0.982677
-0.910775
1.2165
-0.0792822
-1.24587
0.707569
-0.904075
0.659939
-0.793874
0.534009
-0.67447
0.406645
-0.543783
0.294937
-0.416386
0.206754
-0.305173
0.142807
-0.216867
0.0991314
-0.151785
0.0703679
-0.106324
0.0517973
-0.0757511
0.0397693
-0.0557399
0.0308133
-0.0568662
-0.0166806
-0.00418606
-0.0010929
-0.000376547
-5.62706
4.00254
0.344809
0.9989
0.354791
0.0425113
0.312905
-0.168489
0.442392
0.10265
-0.427728
0.459064
-0.423724
0.547795
-0.491078
0.618844
-0.562593
0.686175
-0.632724
0.749743
-0.699802
0.809511
-0.763029
0.866302
-0.822517
0.921671
-0.879069
0.97821
-0.934798
1.03833