/*--------------------------------*- C++ -*----------------------------------*\
| =========                 |                                                 |
| \\      /  F ield         | OpenFOAM: The Open Source CFD Toolbox           |
|  \\    /   O peration     | Version:  5.x                                   |
|   \\  /    A nd           | Web:      www.OpenFOAM.org                      |
|    \\/     M anipulation  |                                                 |
\*---------------------------------------------------------------------------*/
FoamFile
{
    version     2.0;
    format      ascii;
    class       volScalarField;
    location    "0.6";
    object      T;
}
// * * * * * * * * * * * * * * * * * * * * * * * * * * * * * * * * * * * * * //

dimensions      [0 0 0 1 0 0 0];

internalField   nonuniform List<scalar> 
3200
(
5.12866
5.74636
5.78208
5.88767
5.89317
5.88089
5.87826
5.83688
5.83143
5.77335
5.70361
5.69557
5.61564
5.60663
5.51405
5.50374
5.39853
5.38692
5.26945
5.25659
5.12743
5.11339
4.97322
4.95806
4.80744
4.79121
4.63051
4.61322
4.44241
4.42405
4.24266
4.22315
4.03039
4.00965
3.80458
3.7825
3.56427
3.54079
3.30884
3.28393
3.03814
3.01183
2.75285
2.72526
2.45506
2.42649
2.14872
2.11957
1.83934
1.80869
1.5225
1.24904
1.2211
0.981338
0.957862
0.748444
0.728443
0.554196
0.537926
0.400208
0.387602
0.283845
0.274493
0.199292
0.192577
0.139418
0.134686
0.0974512
0.0941253
0.0678626
0.065495
0.0465584
0.0448276
0.0307078
0.029391
0.0180882
0.017489
0.0173889
0.0173663
0.0173612
5.19501
5.69789
5.77897
5.87599
5.8892
5.88051
5.87456
5.839
5.8262
5.77213
5.70876
5.68998
5.62083
5.59998
5.52007
5.49622
5.40543
5.37858
5.2772
5.24746
5.13601
5.10353
4.98256
4.9475
4.81751
4.77997
4.64128
4.60129
4.45386
4.41138
4.25482
4.20969
4.04331
3.99532
3.81831
3.76725
3.57889
3.52459
3.3244
3.26679
3.05467
2.99381
2.77033
2.70653
2.4734
2.40734
2.16767
2.10022
1.8577
1.78597
1.52388
1.27193
1.20641
0.998791
0.944452
0.763761
0.717505
0.567137
0.529502
0.410586
0.381419
0.291759
0.270112
0.205075
0.189528
0.143523
0.132563
0.100325
0.092621
0.0698793
0.0643952
0.0479997
0.043991
0.0317715
0.0287325
0.0191194
0.01773
0.0174466
0.0173812
0.0173663
5.24124
5.66629
5.77522
5.86766
5.88611
5.88001
5.87204
5.84022
5.82261
5.77129
5.71213
5.68641
5.62408
5.59569
5.52385
5.49138
5.40976
5.37321
5.28208
5.2416
5.14142
5.09721
4.98847
4.94073
4.82388
4.77277
4.64809
4.59366
4.46111
4.40327
4.26251
4.20107
4.05148
3.98615
3.827
3.75749
3.58814
3.51422
3.33425
3.25582
3.06513
2.98228
2.78141
2.69457
2.48504
2.39513
2.17971
2.08785
1.86923
1.77085
1.52485
1.28735
1.19739
1.01011
0.936091
0.773694
0.710727
0.575564
0.524326
0.417371
0.377653
0.296949
0.267465
0.208877
0.187695
0.146224
0.131289
0.102216
0.0917173
0.0712049
0.0637311
0.0489449
0.0434822
0.0324675
0.0283367
0.0198213
0.0179265
0.0174953
0.0173939
0.0173707
5.27047
5.64734
5.77213
5.86229
5.884
5.87958
5.87047
5.84086
5.82038
5.77076
5.71415
5.6843
5.62598
5.59314
5.52605
5.4885
5.41229
5.37002
5.28493
5.23812
5.14458
5.09346
4.99193
4.93673
4.82762
4.76851
4.65208
4.58913
4.46535
4.39847
4.26702
4.19596
4.05626
3.98071
3.83209
3.75171
3.59357
3.50808
3.34002
3.24932
3.07127
2.97547
2.78792
2.6875
2.49189
2.38792
2.18681
2.08055
1.87594
1.76162
1.52547
1.29686
1.19225
1.01688
0.931254
0.779641
0.706827
0.580627
0.521372
0.42146
0.375521
0.300085
0.265977
0.211178
0.18667
0.147861
0.130579
0.103362
0.0912123
0.0720074
0.0633583
0.049516
0.0431947
0.0328874
0.0281156
0.0202579
0.0180639
0.0175304
0.0174031
0.0173738
5.28463
5.63847
5.77042
5.85965
5.88292
5.87934
5.86971
5.84113
5.8193
5.7705
5.7151
5.68332
5.62685
5.59194
5.52705
5.48715
5.41345
5.36853
5.28625
5.2365
5.14604
5.09171
4.99352
4.93486
4.82934
4.76653
4.65392
4.58703
4.46731
4.39624
4.2691
4.1936
4.05847
3.97819
3.83444
3.74903
3.59607
3.50523
3.34269
3.24631
3.07411
2.9723
2.79093
2.68422
2.49506
2.38458
2.19009
2.07716
1.87901
1.75725
1.52578
1.30139
1.18993
1.02005
0.929044
0.782425
0.705053
0.583001
0.520034
0.423383
0.374562
0.301562
0.265311
0.212264
0.186214
0.148633
0.130262
0.103902
0.0909873
0.0723858
0.0631916
0.049785
0.0430655
0.0330849
0.0280172
0.0204673
0.0181345
0.0175487
0.0174079
0.0173755
5.28463
5.63847
5.77042
5.85965
5.88292
5.87934
5.86971
5.84113
5.8193
5.7705
5.7151
5.68332
5.62685
5.59194
5.52705
5.48715
5.41345
5.36853
5.28625
5.23651
5.14604
5.09172
4.99352
4.93486
4.82934
4.76653
4.65392
4.58704
4.46731
4.39624
4.2691
4.1936
4.05847
3.97819
3.83444
3.74903
3.59607
3.50523
3.34269
3.24631
3.07411
2.9723
2.79093
2.68422
2.49506
2.38458
2.19009
2.07716
1.87901
1.75725
1.52578
1.30139
1.18993
1.02005
0.929044
0.782425
0.705053
0.583002
0.520034
0.423383
0.374562
0.301562
0.265311
0.212264
0.186214
0.148633
0.130262
0.103903
0.0909873
0.0723858
0.0631916
0.049785
0.0430655
0.0330849
0.0280172
0.0204673
0.0181345
0.0175487
0.0174079
0.0173755
5.27047
5.64734
5.77213
5.86229
5.884
5.87958
5.87047
5.84086
5.82038
5.77076
5.71416
5.6843
5.62598
5.59314
5.52605
5.4885
5.41229
5.37002
5.28494
5.23812
5.14458
5.09346
4.99193
4.93673
4.82762
4.76851
4.65208
4.58914
4.46536
4.39847
4.26702
4.19597
4.05626
3.98072
3.83209
3.75171
3.59357
3.50809
3.34002
3.24932
3.07128
2.97547
2.78792
2.6875
2.49189
2.38792
2.18681
2.08055
1.87594
1.76162
1.52547
1.29686
1.19225
1.01688
0.931255
0.779642
0.706828
0.580627
0.521372
0.421461
0.375522
0.300085
0.265977
0.211178
0.18667
0.147861
0.130579
0.103362
0.0912123
0.0720074
0.0633583
0.049516
0.0431947
0.0328874
0.0281156
0.0202579
0.018064
0.0175304
0.0174031
0.0173738
5.24124
5.66629
5.77522
5.86766
5.88611
5.88001
5.87204
5.84022
5.82262
5.77129
5.71213
5.68641
5.62409
5.59569
5.52385
5.49138
5.40976
5.37321
5.28208
5.2416
5.14142
5.09721
4.98847
4.94074
4.82388
4.77278
4.64809
4.59366
4.46111
4.40327
4.26251
4.20107
4.05148
3.98615
3.827
3.75749
3.58814
3.51423
3.33425
3.25582
3.06514
2.98228
2.78141
2.69457
2.48505
2.39513
2.17972
2.08786
1.86923
1.77085
1.52486
1.28735
1.19739
1.01011
0.936092
0.773695
0.710727
0.575565
0.524327
0.417372
0.377654
0.296949
0.267465
0.208877
0.187695
0.146224
0.131289
0.102216
0.0917173
0.0712049
0.0637311
0.0489449
0.0434822
0.0324675
0.0283367
0.0198213
0.0179265
0.0174953
0.0173939
0.0173706
5.19501
5.69789
5.77897
5.87599
5.8892
5.88051
5.87456
5.839
5.8262
5.77213
5.70876
5.68999
5.62083
5.59998
5.52008
5.49622
5.40543
5.37858
5.2772
5.24746
5.13601
5.10353
4.98257
4.9475
4.81751
4.77997
4.64128
4.6013
4.45386
4.41138
4.25482
4.20969
4.04331
3.99532
3.81831
3.76726
3.57889
3.5246
3.3244
3.26679
3.05467
2.99381
2.77033
2.70654
2.4734
2.40734
2.16767
2.10022
1.85771
1.78597
1.52388
1.27193
1.20641
0.998792
0.944453
0.763761
0.717506
0.567138
0.529503
0.410587
0.38142
0.291759
0.270113
0.205075
0.189528
0.143523
0.132563
0.100325
0.0926211
0.0698794
0.0643952
0.0479997
0.043991
0.0317715
0.0287325
0.0191194
0.01773
0.0174466
0.0173812
0.0173662
5.12866
5.74636
5.78208
5.88767
5.89317
5.88089
5.87826
5.83688
5.83143
5.77335
5.70361
5.69557
5.61564
5.60663
5.51405
5.50374
5.39853
5.38692
5.26945
5.25659
5.12744
5.11339
4.97322
4.95806
4.80744
4.79121
4.63051
4.61322
4.44241
4.42405
4.24266
4.22315
4.0304
4.00965
3.80458
3.7825
3.56427
3.54079
3.30884
3.28393
3.03814
3.01183
2.75285
2.72526
2.45506
2.42649
2.14872
2.11957
1.83934
1.80869
1.5225
1.24904
1.2211
0.981338
0.957862
0.748444
0.728443
0.554197
0.537926
0.400208
0.387602
0.283845
0.274493
0.199292
0.192577
0.139419
0.134686
0.0974512
0.0941253
0.0678626
0.065495
0.0465584
0.0448276
0.0307078
0.029391
0.0180882
0.017489
0.0173889
0.0173663
0.0173611
5.71669
5.90187
5.91003
5.89211
5.88987
5.85992
5.85632
5.81732
5.81235
5.76115
5.69997
5.69291
5.62287
5.61499
5.53411
5.52513
5.43374
5.4237
5.32253
5.31152
5.2015
5.18963
5.07179
5.05915
4.93446
4.92114
4.79037
4.77645
4.64016
4.62568
4.48416
4.46914
4.32249
4.30693
4.15509
4.13898
3.98187
3.96521
3.80282
3.78562
3.61814
3.60044
3.42838
3.41024
3.23448
3.21602
3.03774
3.01904
2.83943
2.81956
2.63292
2.44795
2.42841
2.25369
2.2356
2.06429
2.04656
1.878
1.86048
1.6932
1.67566
1.50681
1.48885
1.31382
1.29487
1.10688
1.08633
0.880276
0.858174
0.63974
0.617193
0.402474
0.380699
0.175084
0.15868
0.0467989
0.0407712
0.039756
0.0395271
0.0394758
5.73634
5.88629
5.90473
5.8923
5.88734
5.86168
5.85336
5.81951
5.80782
5.76012
5.7045
5.68803
5.62743
5.60919
5.53938
5.51861
5.43975
5.41654
5.32924
5.30378
5.20885
5.18138
5.0797
5.05046
4.94286
4.91206
4.79921
4.76701
4.64938
4.61588
4.49375
4.459
4.33243
4.29643
4.16539
4.12813
3.99253
3.954
3.81384
3.77407
3.62953
3.58858
3.4401
3.39817
3.24649
3.2038
3.04993
3.00664
2.85111
2.80457
2.63315
2.46304
2.41726
2.26593
2.22405
2.07615
2.03514
1.88963
1.8491
1.70466
1.66408
1.51826
1.47672
1.32552
1.28167
1.11933
1.07181
0.894074
0.842982
0.65476
0.602641
0.417503
0.367249
0.191351
0.153527
0.0572549
0.0432053
0.0403288
0.0396667
0.0395179
5.74998
5.87596
5.90067
5.8922
5.88564
5.86274
5.85142
5.82082
5.80474
5.75942
5.70746
5.6849
5.63029
5.60545
5.54269
5.51442
5.44354
5.41194
5.33347
5.29882
5.21349
5.1761
5.08471
5.04491
4.94819
4.90626
4.80481
4.76098
4.65524
4.60963
4.49983
4.45252
4.33874
4.28973
4.17192
4.1212
3.9993
3.94684
3.82085
3.76669
3.63676
3.58103
3.44756
3.39047
3.25413
3.19602
3.05768
2.99871
2.85843
2.79457
2.63331
2.47315
2.41032
2.27378
2.21673
2.08373
2.02789
1.89705
1.84187
1.71197
1.65671
1.52553
1.46897
1.33292
1.27322
1.12718
1.06248
0.902802
0.833271
0.664332
0.593407
0.427134
0.358823
0.202094
0.150711
0.0644209
0.0451919
0.0408125
0.0397852
0.0395536
5.75859
5.86969
5.89793
5.89202
5.88458
5.86333
5.85024
5.82154
5.80281
5.75897
5.70924
5.68305
5.63195
5.60322
5.54462
5.51192
5.44575
5.4092
5.33595
5.29587
5.21621
5.17297
5.08765
5.04162
4.95131
4.90282
4.80811
4.75741
4.65868
4.60594
4.50341
4.4487
4.34245
4.28578
4.17576
4.11711
4.00328
3.94262
3.82497
3.76234
3.64102
3.57657
3.45195
3.38593
3.25864
3.19143
3.06225
2.99403
2.86267
2.78845
2.63342
2.47936
2.40632
2.27844
2.21243
2.08821
2.02364
1.90143
1.83762
1.71627
1.65237
1.52981
1.46439
1.33725
1.2682
1.13177
1.05695
0.907917
0.827529
0.669977
0.587982
0.432842
0.35393
0.20862
0.149288
0.068903
0.0465832
0.0411612
0.0398712
0.0395796
5.76275
5.86672
5.89655
5.89189
5.88408
5.8636
5.84969
5.82186
5.80189
5.75875
5.71008
5.68219
5.63272
5.60218
5.54551
5.51076
5.44676
5.40793
5.33709
5.2945
5.21747
5.17152
5.089
5.04009
4.95276
4.90123
4.80963
4.75576
4.66027
4.60423
4.50507
4.44693
4.34416
4.28394
4.17754
4.11521
4.00512
3.94066
3.82687
3.76033
3.64299
3.57451
3.45398
3.38383
3.26072
3.18931
3.06437
2.99186
2.86462
2.78555
2.63348
2.48231
2.40449
2.2806
2.21045
2.09029
2.02167
1.90346
1.83565
1.71827
1.65036
1.53178
1.46227
1.33925
1.26587
1.13388
1.05438
0.910276
0.824864
0.672592
0.585475
0.435496
0.351688
0.211704
0.148705
0.0710604
0.0472972
0.0413435
0.0399164
0.0395932
5.76275
5.86672
5.89655
5.8919
5.88408
5.8636
5.84969
5.82186
5.80189
5.75875
5.71008
5.68219
5.63272
5.60218
5.54551
5.51076
5.44676
5.40793
5.33709
5.2945
5.21747
5.17152
5.089
5.04009
4.95276
4.90123
4.80963
4.75576
4.66027
4.60423
4.50507
4.44693
4.34416
4.28394
4.17754
4.11521
4.00512
3.94066
3.82687
3.76033
3.64299
3.57451
3.45398
3.38383
3.26072
3.18931
3.06437
2.99186
2.86462
2.78555
2.63348
2.48231
2.40449
2.2806
2.21045
2.09029
2.02167
1.90346
1.83565
1.71827
1.65036
1.53178
1.46227
1.33925
1.26587
1.13388
1.05438
0.910276
0.824865
0.672593
0.585475
0.435496
0.351688
0.211704
0.148705
0.0710604
0.0472972
0.0413435
0.0399164
0.0395931
5.75859
5.86969
5.89793
5.89202
5.88459
5.86334
5.85025
5.82154
5.80281
5.75897
5.70924
5.68305
5.63195
5.60322
5.54462
5.51193
5.44575
5.4092
5.33595
5.29587
5.21621
5.17297
5.08765
5.04162
4.95131
4.90283
4.80811
4.75741
4.65868
4.60594
4.50341
4.4487
4.34245
4.28578
4.17577
4.11711
4.00328
3.94262
3.82497
3.76235
3.64102
3.57657
3.45195
3.38593
3.25864
3.19143
3.06225
2.99403
2.86268
2.78845
2.63342
2.47936
2.40632
2.27844
2.21243
2.08821
2.02364
1.90143
1.83762
1.71627
1.65237
1.52981
1.46439
1.33725
1.2682
1.13177
1.05695
0.907918
0.827529
0.669978
0.587982
0.432842
0.35393
0.20862
0.149288
0.0689029
0.0465831
0.0411612
0.0398712
0.0395794
5.74998
5.87596
5.90067
5.8922
5.88564
5.86274
5.85142
5.82082
5.80474
5.75942
5.70746
5.6849
5.63029
5.60545
5.5427
5.51442
5.44354
5.41194
5.33347
5.29882
5.21349
5.1761
5.08471
5.04491
4.94819
4.90626
4.80482
4.76098
4.65524
4.60963
4.49984
4.45253
4.33874
4.28973
4.17192
4.1212
3.9993
3.94684
3.82085
3.7667
3.63676
3.58103
3.44756
3.39047
3.25414
3.19602
3.05769
2.99872
2.85843
2.79457
2.63331
2.47316
2.41032
2.27378
2.21673
2.08373
2.0279
1.89705
1.84187
1.71197
1.65671
1.52553
1.46897
1.33292
1.27322
1.12718
1.06249
0.902803
0.833271
0.664332
0.593407
0.427134
0.358823
0.202094
0.15071
0.0644208
0.0451918
0.0408125
0.0397852
0.0395534
5.73634
5.88629
5.90473
5.8923
5.88734
5.86168
5.85336
5.81951
5.80782
5.76013
5.7045
5.68803
5.62743
5.60919
5.53938
5.51861
5.43975
5.41654
5.32924
5.30378
5.20885
5.18138
5.0797
5.05047
4.94286
4.91206
4.79921
4.76701
4.64939
4.61589
4.49375
4.459
4.33243
4.29643
4.16539
4.12813
3.99253
3.954
3.81385
3.77407
3.62953
3.58859
3.4401
3.39817
3.24649
3.2038
3.04993
3.00664
2.85111
2.80458
2.63315
2.46304
2.41726
2.26593
2.22405
2.07615
2.03514
1.88963
1.8491
1.70466
1.66408
1.51826
1.47672
1.32552
1.28168
1.11933
1.07181
0.894075
0.842983
0.65476
0.602642
0.417503
0.367249
0.191351
0.153527
0.0572548
0.0432053
0.0403288
0.0396666
0.0395177
5.71669
5.90187
5.91003
5.89211
5.88987
5.85992
5.85632
5.81732
5.81235
5.76115
5.69997
5.69291
5.62287
5.61499
5.53411
5.52513
5.43374
5.4237
5.32253
5.31152
5.20151
5.18963
5.0718
5.05915
4.93446
4.92114
4.79038
4.77645
4.64016
4.62568
4.48416
4.46914
4.32249
4.30693
4.15509
4.13898
3.98187
3.96522
3.80282
3.78562
3.61814
3.60044
3.42838
3.41025
3.23448
3.21602
3.03775
3.01904
2.83943
2.81957
2.63292
2.44795
2.42841
2.2537
2.2356
2.06429
2.04656
1.878
1.86048
1.6932
1.67566
1.50681
1.48886
1.31382
1.29487
1.10688
1.08633
0.880276
0.858175
0.63974
0.617193
0.402474
0.380699
0.175084
0.15868
0.0467989
0.0407712
0.039756
0.0395271
0.0394758
5.71632
5.90178
5.90996
5.89214
5.88992
5.86007
5.85649
5.81758
5.81263
5.76153
5.70044
5.6934
5.62343
5.61555
5.53473
5.52576
5.43442
5.42438
5.32324
5.31223
5.20223
5.19036
5.07252
5.05988
4.93516
4.92184
4.79103
4.7771
4.64075
4.62626
4.48466
4.46963
4.32287
4.3073
4.15533
4.13921
3.98195
3.96527
3.80271
3.78549
3.61782
3.6001
3.42785
3.4097
3.23374
3.21526
3.03679
3.01806
2.83827
2.81838
2.63157
2.44646
2.42691
2.25211
2.23401
2.06266
2.04493
1.8764
1.85888
1.69169
1.67417
1.50548
1.48755
1.31274
1.29382
1.1061
1.08558
0.879779
0.857701
0.63947
0.616942
0.402387
0.380622
0.175034
0.158632
0.0467776
0.0407512
0.0397362
0.0395074
0.0394562
5.736
5.88617
5.90466
5.89233
5.8874
5.86182
5.85353
5.81977
5.80811
5.7605
5.70496
5.68851
5.62798
5.60976
5.54001
5.51925
5.44043
5.41722
5.32995
5.30449
5.20958
5.18211
5.08043
5.05119
4.94356
4.91276
4.79987
4.76766
4.64998
4.61646
4.49425
4.45948
4.33282
4.29679
4.16563
4.12834
3.99261
3.95405
3.81374
3.77392
3.62922
3.58824
3.43959
3.39761
3.24576
3.20302
3.04899
3.00565
2.84996
2.80338
2.6318
2.46157
2.41575
2.26435
2.22245
2.07452
2.03351
1.88802
1.84751
1.70315
1.66261
1.51692
1.47544
1.32442
1.28064
1.11853
1.07107
0.893558
0.842522
0.654475
0.6024
0.417402
0.367171
0.191299
0.153481
0.0572312
0.0431848
0.0403089
0.0396469
0.0394982
5.74966
5.87584
5.9006
5.89222
5.8857
5.86288
5.85159
5.82107
5.80503
5.75979
5.70792
5.68539
5.63084
5.60602
5.54331
5.51506
5.44421
5.41262
5.33418
5.29953
5.21422
5.17683
5.08543
5.04563
4.94889
4.90695
4.80548
4.76162
4.65584
4.61021
4.50034
4.453
4.33913
4.29009
4.17218
4.12141
3.99939
3.94688
3.82075
3.76654
3.63647
3.58067
3.44705
3.3899
3.25341
3.19523
3.05675
2.99772
2.85729
2.79337
2.63197
2.47169
2.40881
2.2722
2.21513
2.0821
2.02627
1.89545
1.84029
1.71046
1.65525
1.52419
1.4677
1.33181
1.2722
1.12637
1.06176
0.902275
0.832818
0.664037
0.593172
0.427024
0.358744
0.20204
0.150666
0.0643956
0.0451709
0.0407925
0.0397655
0.0395339
5.75828
5.86955
5.89786
5.89204
5.88465
5.86347
5.85042
5.82179
5.80311
5.75935
5.7097
5.68354
5.6325
5.6038
5.54524
5.51256
5.44642
5.40989
5.33665
5.29659
5.21694
5.1737
5.08837
5.04234
4.95202
4.90352
4.80877
4.75805
4.65928
4.60651
4.50392
4.44918
4.34284
4.28613
4.17602
4.11731
4.00337
3.94265
3.82488
3.76219
3.64073
3.57621
3.45145
3.38536
3.25792
3.19064
3.06132
2.99303
2.86154
2.78725
2.63208
2.4779
2.40481
2.27686
2.21083
2.08659
2.02201
1.89983
1.83604
1.71476
1.65091
1.52846
1.46312
1.33615
1.26719
1.13095
1.05623
0.907382
0.827081
0.669677
0.58775
0.432726
0.35385
0.208565
0.149244
0.0688767
0.0465619
0.0411412
0.0398515
0.0395599
5.76245
5.86659
5.89649
5.89191
5.88414
5.86374
5.84987
5.82211
5.80219
5.75913
5.71054
5.68269
5.63326
5.60276
5.54612
5.5114
5.44743
5.40862
5.33779
5.29522
5.21819
5.17225
5.08973
5.04081
4.95346
4.90192
4.81029
4.7564
4.66087
4.6048
4.50558
4.4474
4.34456
4.28429
4.1778
4.11541
4.00521
3.94069
3.82679
3.76017
3.64271
3.57414
3.45348
3.38325
3.26001
3.18851
3.06344
2.99086
2.86348
2.78434
2.63213
2.48086
2.40298
2.27903
2.20885
2.08867
2.02005
1.90186
1.83407
1.71676
1.6489
1.53044
1.461
1.33814
1.26486
1.13306
1.05367
0.909737
0.824418
0.672289
0.585245
0.435376
0.351607
0.211648
0.148661
0.0710336
0.0472758
0.0413234
0.0398966
0.0395735
5.76245
5.86659
5.89649
5.89191
5.88414
5.86374
5.84987
5.82211
5.80219
5.75913
5.71054
5.68269
5.63326
5.60276
5.54612
5.5114
5.44743
5.40862
5.33779
5.29522
5.21819
5.17225
5.08973
5.04081
4.95346
4.90192
4.81029
4.7564
4.66087
4.6048
4.50558
4.4474
4.34456
4.28429
4.1778
4.11541
4.00521
3.94069
3.82679
3.76017
3.64271
3.57414
3.45348
3.38325
3.26001
3.18851
3.06344
2.99086
2.86349
2.78434
2.63213
2.48086
2.40298
2.27903
2.20885
2.08867
2.02005
1.90186
1.83407
1.71676
1.6489
1.53044
1.461
1.33814
1.26486
1.13306
1.05367
0.909737
0.824418
0.672289
0.585245
0.435376
0.351607
0.211648
0.148661
0.0710336
0.0472757
0.0413234
0.0398966
0.0395734
5.75828
5.86955
5.89786
5.89204
5.88465
5.86347
5.85042
5.82179
5.80311
5.75935
5.7097
5.68354
5.6325
5.6038
5.54524
5.51256
5.44642
5.40989
5.33665
5.29659
5.21694
5.1737
5.08837
5.04234
4.95202
4.90352
4.80877
4.75806
4.65928
4.60651
4.50392
4.44918
4.34285
4.28613
4.17602
4.11731
4.00337
3.94265
3.82488
3.76219
3.64073
3.57621
3.45145
3.38536
3.25792
3.19064
3.06132
2.99303
2.86154
2.78725
2.63208
2.4779
2.40481
2.27686
2.21083
2.08659
2.02202
1.89983
1.83604
1.71476
1.65091
1.52846
1.46312
1.33615
1.26719
1.13095
1.05624
0.907382
0.827081
0.669677
0.58775
0.432726
0.35385
0.208565
0.149244
0.0688765
0.0465619
0.0411411
0.0398514
0.0395597
5.74966
5.87584
5.9006
5.89222
5.8857
5.86288
5.85159
5.82107
5.80503
5.7598
5.70792
5.68539
5.63084
5.60602
5.54332
5.51506
5.44421
5.41262
5.33418
5.29953
5.21422
5.17683
5.08544
5.04563
4.94889
4.90695
4.80548
4.76162
4.65584
4.61021
4.50034
4.453
4.33913
4.29009
4.17218
4.12141
3.99939
3.94688
3.82076
3.76655
3.63647
3.58068
3.44706
3.3899
3.25342
3.19523
3.05675
2.99772
2.85729
2.79337
2.63197
2.47169
2.40881
2.2722
2.21513
2.08211
2.02627
1.89545
1.84029
1.71046
1.65525
1.52419
1.4677
1.33182
1.2722
1.12637
1.06176
0.902275
0.832819
0.664038
0.593172
0.427024
0.358744
0.20204
0.150665
0.0643954
0.0451708
0.0407925
0.0397654
0.0395337
5.736
5.88617
5.90466
5.89233
5.8874
5.86182
5.85353
5.81977
5.80811
5.7605
5.70496
5.68851
5.62798
5.60976
5.54001
5.51925
5.44043
5.41722
5.32995
5.30449
5.20958
5.18211
5.08043
5.05119
4.94357
4.91276
4.79987
4.76766
4.64998
4.61646
4.49426
4.45948
4.33282
4.29679
4.16564
4.12834
3.99262
3.95405
3.81375
3.77392
3.62923
3.58824
3.43959
3.39761
3.24576
3.20302
3.04899
3.00565
2.84997
2.80338
2.6318
2.46157
2.41576
2.26435
2.22245
2.07452
2.03351
1.88803
1.84751
1.70316
1.66261
1.51692
1.47544
1.32443
1.28064
1.11853
1.07107
0.893559
0.842522
0.654475
0.6024
0.417402
0.367171
0.191299
0.153481
0.057231
0.0431847
0.0403089
0.0396469
0.039498
5.71632
5.90178
5.90996
5.89214
5.88992
5.86007
5.85649
5.81758
5.81263
5.76153
5.70044
5.6934
5.62343
5.61555
5.53473
5.52576
5.43442
5.42438
5.32324
5.31223
5.20223
5.19036
5.07252
5.05988
4.93516
4.92184
4.79103
4.77711
4.64075
4.62626
4.48466
4.46963
4.32287
4.3073
4.15533
4.13921
3.98195
3.96527
3.80271
3.78549
3.61783
3.6001
3.42785
3.4097
3.23374
3.21526
3.03679
3.01806
2.83827
2.81839
2.63157
2.44646
2.42691
2.25211
2.23401
2.06266
2.04493
1.8764
1.85888
1.6917
1.67417
1.50548
1.48755
1.31274
1.29382
1.1061
1.08558
0.879779
0.857702
0.63947
0.616942
0.402387
0.380622
0.175034
0.158632
0.0467775
0.0407512
0.0397362
0.0395074
0.0394561
5.12939
5.74688
5.78257
5.88786
5.89333
5.88076
5.8781
5.83644
5.83096
5.7726
5.70262
5.69455
5.6144
5.60536
5.51259
5.50226
5.39689
5.38526
5.26765
5.25478
5.12553
5.11148
4.97123
4.95606
4.8054
4.78916
4.62845
4.61116
4.44036
4.42199
4.24064
4.22114
4.02844
4.0077
3.80271
3.78064
3.56251
3.53905
3.30722
3.28233
3.03669
3.01039
2.75158
2.72402
2.45401
2.42547
2.14792
2.11879
1.83878
1.80815
1.52215
1.24884
1.22092
0.981234
0.957763
0.748369
0.728369
0.554111
0.537839
0.400098
0.38749
0.28372
0.274367
0.199166
0.192452
0.139307
0.134576
0.0973608
0.094037
0.0677948
0.0654291
0.0465093
0.04478
0.0306744
0.0293589
0.0180682
0.0174696
0.0173696
0.017347
0.0173419
5.19571
5.69842
5.77943
5.8762
5.88934
5.88039
5.87438
5.83858
5.82571
5.77139
5.70779
5.68895
5.6196
5.5987
5.51863
5.49474
5.4038
5.37691
5.27542
5.24565
5.13411
5.10161
4.98058
4.9455
4.81547
4.77792
4.63921
4.59923
4.45181
4.40933
4.2528
4.20768
4.04135
3.99338
3.81644
3.7654
3.57713
3.52286
3.32278
3.2652
3.0532
2.99238
2.76905
2.7053
2.47234
2.40634
2.16685
2.09945
1.85713
1.78544
1.52353
1.27172
1.20622
0.99868
0.944354
0.763683
0.71743
0.567053
0.529414
0.410478
0.381307
0.291635
0.269987
0.20495
0.189404
0.143411
0.132455
0.100233
0.0925341
0.06981
0.0643304
0.0479493
0.0439443
0.0317371
0.0287012
0.0190983
0.0177103
0.0174272
0.0173619
0.0173471
5.24193
5.66682
5.77567
5.86788
5.88623
5.87991
5.87184
5.83981
5.82211
5.77055
5.71117
5.68537
5.62287
5.59441
5.52242
5.48989
5.40814
5.37154
5.28031
5.23979
5.13952
5.09529
4.98649
4.93873
4.82185
4.77073
4.64603
4.5916
4.45905
4.40123
4.26049
4.19906
4.04951
3.98421
3.82512
3.75564
3.58638
3.5125
3.33262
3.25423
3.06366
2.98087
2.78013
2.69335
2.48398
2.39413
2.17889
2.0871
1.86865
1.77033
1.5245
1.28713
1.19721
1.00999
0.935992
0.773615
0.71065
0.57548
0.524236
0.417264
0.377541
0.296826
0.267339
0.208752
0.187572
0.146112
0.131182
0.102123
0.0916313
0.0711346
0.063667
0.0488937
0.0434362
0.0324324
0.0283058
0.0197995
0.0179066
0.0174759
0.0173746
0.0173514
5.27115
5.64787
5.77257
5.86252
5.88411
5.87949
5.87026
5.84046
5.81986
5.77002
5.7132
5.68325
5.62477
5.59185
5.52462
5.487
5.41067
5.36835
5.28316
5.23631
5.14269
5.09153
4.98995
4.93472
4.82558
4.76647
4.65002
4.58707
4.4633
4.39643
4.265
4.19396
4.0543
3.97878
3.83021
3.74987
3.5918
3.50636
3.33839
3.24774
3.0698
2.97405
2.78663
2.68629
2.49082
2.38693
2.18598
2.0798
1.87534
1.76111
1.52512
1.29663
1.19207
1.01676
0.931155
0.779561
0.70675
0.580542
0.521281
0.421354
0.375409
0.299963
0.265852
0.211054
0.186548
0.147748
0.130472
0.103269
0.0911268
0.0719365
0.0632945
0.0494644
0.043149
0.0328519
0.028085
0.0202356
0.0180439
0.0175109
0.0173838
0.0173546
5.2853
5.639
5.77086
5.85988
5.88304
5.87926
5.86951
5.84073
5.81879
5.76976
5.71416
5.68227
5.62564
5.59065
5.52563
5.48565
5.41183
5.36686
5.28448
5.23469
5.14415
5.08979
4.99154
4.93286
4.8273
4.76449
4.65186
4.58497
4.46526
4.3942
4.26708
4.19159
4.05651
3.97625
3.83256
3.74718
3.5943
3.50351
3.34105
3.24473
3.07264
2.97089
2.78964
2.68301
2.49399
2.38359
2.18926
2.07641
1.87842
1.75675
1.52542
1.30116
1.18975
1.01993
0.928945
0.782344
0.704975
0.582917
0.519943
0.423277
0.374449
0.30144
0.265186
0.212139
0.186092
0.148521
0.130156
0.103809
0.0909021
0.0723147
0.0631279
0.0497331
0.0430199
0.0330492
0.0279866
0.0204448
0.0181144
0.0175293
0.0173886
0.0173562
5.2853
5.639
5.77086
5.85988
5.88304
5.87926
5.86951
5.84073
5.81879
5.76976
5.71416
5.68227
5.62564
5.59065
5.52563
5.48565
5.41183
5.36686
5.28448
5.23469
5.14415
5.08979
4.99154
4.93286
4.8273
4.76449
4.65186
4.58498
4.46526
4.3942
4.26708
4.19159
4.05651
3.97625
3.83256
3.74718
3.5943
3.50351
3.34106
3.24473
3.07264
2.97089
2.78964
2.68301
2.49399
2.38359
2.18926
2.07641
1.87842
1.75675
1.52542
1.30116
1.18975
1.01993
0.928945
0.782344
0.704975
0.582917
0.519943
0.423277
0.374449
0.30144
0.265186
0.212139
0.186092
0.148521
0.130156
0.103809
0.0909021
0.0723147
0.0631279
0.0497331
0.0430199
0.0330492
0.0279866
0.0204448
0.0181144
0.0175293
0.0173886
0.0173562
5.27115
5.64787
5.77257
5.86252
5.88411
5.87949
5.87026
5.84046
5.81987
5.77002
5.7132
5.68325
5.62477
5.59185
5.52462
5.487
5.41067
5.36835
5.28316
5.23631
5.14269
5.09153
4.98995
4.93473
4.82558
4.76647
4.65002
4.58708
4.4633
4.39643
4.265
4.19396
4.0543
3.97878
3.83022
3.74987
3.5918
3.50636
3.33839
3.24775
3.0698
2.97406
2.78663
2.68629
2.49082
2.38693
2.18598
2.0798
1.87535
1.76111
1.52512
1.29663
1.19207
1.01676
0.931156
0.779562
0.70675
0.580542
0.521281
0.421354
0.375409
0.299963
0.265852
0.211054
0.186548
0.147748
0.130472
0.103269
0.0911268
0.0719366
0.0632945
0.0494644
0.043149
0.0328519
0.028085
0.0202356
0.018044
0.017511
0.0173838
0.0173545
5.24193
5.66682
5.77567
5.86788
5.88624
5.87991
5.87184
5.83981
5.82211
5.77055
5.71117
5.68537
5.62287
5.59441
5.52242
5.48989
5.40814
5.37154
5.28031
5.23979
5.13952
5.09529
4.98649
4.93874
4.82185
4.77073
4.64603
4.5916
4.45905
4.40123
4.26049
4.19906
4.04951
3.98421
3.82512
3.75565
3.58638
3.5125
3.33262
3.25424
3.06367
2.98087
2.78013
2.69335
2.48398
2.39413
2.17889
2.0871
1.86865
1.77033
1.5245
1.28713
1.19721
1.00999
0.935993
0.773616
0.710651
0.57548
0.524237
0.417265
0.377541
0.296826
0.267339
0.208752
0.187572
0.146112
0.131182
0.102123
0.0916313
0.0711346
0.063667
0.0488937
0.0434362
0.0324324
0.0283058
0.0197995
0.0179066
0.0174759
0.0173746
0.0173513
5.19571
5.69842
5.77943
5.8762
5.88934
5.88039
5.87438
5.83858
5.82571
5.77139
5.70779
5.68895
5.6196
5.59871
5.51863
5.49474
5.4038
5.37691
5.27542
5.24565
5.13411
5.10161
4.98058
4.9455
4.81548
4.77793
4.63922
4.59923
4.45181
4.40933
4.2528
4.20768
4.04135
3.99338
3.81644
3.7654
3.57713
3.52286
3.32278
3.2652
3.05321
2.99238
2.76905
2.70531
2.47234
2.40634
2.16685
2.09945
1.85713
1.78544
1.52353
1.27172
1.20623
0.998681
0.944355
0.763684
0.717431
0.567053
0.529414
0.410479
0.381308
0.291635
0.269987
0.20495
0.189404
0.143411
0.132455
0.100233
0.0925342
0.0698101
0.0643304
0.0479494
0.0439443
0.0317371
0.0287012
0.0190983
0.0177104
0.0174272
0.017362
0.017347
5.12939
5.74688
5.78257
5.88786
5.89333
5.88076
5.8781
5.83644
5.83096
5.77261
5.70262
5.69455
5.6144
5.60536
5.5126
5.50226
5.39689
5.38526
5.26765
5.25478
5.12553
5.11148
4.97123
4.95606
4.8054
4.78916
4.62845
4.61116
4.44036
4.42199
4.24064
4.22114
4.02844
4.0077
3.80271
3.78064
3.56251
3.53905
3.30722
3.28233
3.03669
3.01039
2.75158
2.72402
2.45401
2.42547
2.14792
2.1188
1.83878
1.80815
1.52215
1.24884
1.22092
0.981234
0.957764
0.74837
0.72837
0.554111
0.537839
0.400098
0.387491
0.28372
0.274367
0.199167
0.192452
0.139307
0.134576
0.0973608
0.094037
0.0677948
0.0654292
0.0465093
0.0447801
0.0306744
0.0293589
0.0180682
0.0174696
0.0173696
0.0173471
0.0173419
)
;

boundaryField
{
    F1_1
    {
        type            fixedValue;
        value           nonuniform List<scalar> 
80
(
5.08313
5.78224
5.78224
5.89551
5.89551
5.88089
5.88089
5.8351
5.8351
5.77419
5.6998
5.6998
5.61162
5.61162
5.5094
5.5094
5.39321
5.39321
5.26348
5.26348
5.12085
5.12085
4.96605
4.96605
4.79972
4.79972
4.62226
4.62226
4.43364
4.43364
4.23334
4.23334
4.0205
4.0205
3.79405
3.79405
3.55306
3.55306
3.29692
3.29692
3.02549
3.02549
2.73948
2.73948
2.44105
2.44105
2.13427
2.13427
1.82516
1.82516
1.52155
1.23268
1.23268
0.968285
0.968285
0.736996
0.736996
0.544565
0.544565
0.392515
0.392515
0.278
0.278
0.19503
0.19503
0.136397
0.136397
0.0953359
0.0953359
0.0663761
0.0663761
0.0454936
0.0454936
0.0299199
0.0299199
0.0173585
0.0173585
0.0173585
0.0173585
0.0173585
)
;
    }
    F1_2
    {
        type            fixedValue;
        value           nonuniform List<scalar> 
80
(
5.70317
5.9132
5.9132
5.89169
5.89169
5.85851
5.85851
5.81554
5.81554
5.76186
5.69662
5.69662
5.61935
5.61935
5.53003
5.53003
5.4291
5.4291
5.31737
5.31737
5.19587
5.19587
5.06574
5.06574
4.92803
4.92803
4.78362
4.78362
4.63311
4.63311
4.47684
4.47684
4.3149
4.3149
4.14723
4.14723
3.97374
3.97374
3.7944
3.7944
3.60945
3.60945
3.41944
3.41944
3.22533
3.22533
3.02846
3.02846
2.83039
2.83039
2.63277
2.43709
2.43709
2.24444
2.24444
2.05528
2.05528
1.86916
1.86916
1.68447
1.68447
1.49806
1.49806
1.30484
1.30484
1.0973
1.0973
0.869696
0.869696
0.628312
0.628312
0.3911
0.3911
0.163166
0.163166
0.0394537
0.0394537
0.0394537
0.0394537
0.0394537
)
;
    }
    F1_3
    {
        type            fixedValue;
        value           nonuniform List<scalar> 
80
(
5.70277
5.91313
5.91313
5.89173
5.89173
5.85867
5.85867
5.81581
5.81581
5.76224
5.6971
5.6971
5.61991
5.61991
5.53066
5.53066
5.42978
5.42978
5.31808
5.31808
5.1966
5.1966
5.06646
5.06646
4.92873
4.92873
4.78428
4.78428
4.6337
4.6337
4.47734
4.47734
4.31528
4.31528
4.14746
4.14746
3.9738
3.9738
3.79428
3.79428
3.60912
3.60912
3.4189
3.4189
3.22458
3.22458
3.02749
3.02749
2.82922
2.82922
2.63142
2.43559
2.43559
2.24285
2.24285
2.05365
2.05365
1.86756
1.86756
1.68297
1.68297
1.49674
1.49674
1.30378
1.30378
1.09654
1.09654
0.869214
0.869214
0.628053
0.628053
0.391023
0.391023
0.163117
0.163117
0.039434
0.039434
0.039434
0.039434
0.039434
)
;
    }
    F1_4
    {
        type            fixedValue;
        value           nonuniform List<scalar> 
80
(
5.08388
5.78274
5.78274
5.89569
5.89569
5.88074
5.88074
5.83464
5.83464
5.77344
5.69879
5.69879
5.61037
5.61037
5.50793
5.50793
5.39156
5.39156
5.26168
5.26168
5.11893
5.11893
4.96405
4.96405
4.79767
4.79767
4.62019
4.62019
4.43158
4.43158
4.23133
4.23133
4.01854
4.01854
3.79218
3.79218
3.55131
3.55131
3.29531
3.29531
3.02404