/*--------------------------------*- C++ -*----------------------------------*\
| =========                 |                                                 |
| \\      /  F ield         | OpenFOAM: The Open Source CFD Toolbox           |
|  \\    /   O peration     | Version:  5.x                                   |
|   \\  /    A nd           | Web:      www.OpenFOAM.org                      |
|    \\/     M anipulation  |                                                 |
\*---------------------------------------------------------------------------*/
FoamFile
{
    version     2.0;
    format      ascii;
    class       volScalarField;
    location    "14";
    object      gradTy;
}
// * * * * * * * * * * * * * * * * * * * * * * * * * * * * * * * * * * * * * //

dimensions      [0 -1 0 1 0 0 0];

internalField   nonuniform List<scalar> 
6300
(
1003.31
1010.09
1017.3
1025.23
1034.16
1044.35
1056.02
1069.38
1084.58
1101.74
1120.89
1142.01
1164.99
1189.66
1215.75
-0.219966
-0.656805
-1.08407
-1.49437
-1.8789
-2.22705
-2.52628
-2.76233
-2.91998
-2.98437
-2.94303
-2.78829
-2.51986
-2.1467
-1.68745
-0.370056
-1.10535
-1.82568
-2.5193
-3.17197
-3.76614
-4.28065
-4.69095
-4.97014
-5.09126
-5.03076
-4.77314
-4.31583
-3.67328
-2.87829
-0.524947
-1.56885
-2.59398
-3.5852
-4.52352
-5.38487
-6.13926
-6.75068
-7.17837
-7.37976
-7.31565
-6.95768
-6.29703
-5.35229
-4.17317
-0.685828
-2.05111
-3.39617
-4.70394
-5.95199
-7.11053
-8.14075
-8.99407
-9.61284
-9.93368
-9.89433
-9.44484
-8.56223
-7.26558
-5.62526
-0.853093
-2.55358
-4.23564
-5.8824
-7.46997
-8.96447
-10.3191
-11.472
-12.3452
-12.8477
-12.8831
-12.3651
-11.2415
-9.52255
-7.30344
-1.02604
-3.07447
-5.11037
-7.11998
-9.08094
-10.9582
-12.6992
-14.2294
-15.4482
-16.2289
-16.4252
-15.8908
-14.5159
-12.2796
-9.30268
-1.20262
-3.60785
-6.01137
-8.40615
-10.7756
-13.088
-15.2901
-17.2981
-18.9892
-20.1942
-20.6978
-20.257
-18.6514
-15.7771
-11.7658
-1.3792
-4.14292
-6.92106
-9.71762
-12.5271
-15.3282
-18.0749
-20.6835
-23.0162
-24.8608
-25.9147
-25.7876
-24.0556
-20.4114
-14.9279
-1.55043
-4.66355
-7.81227
-11.0161
-14.2869
-17.6228
-20.9976
-24.3447
-27.531
-30.3179
-32.3125
-32.923
-31.3719
-26.8848
-19.2219
-1.70941
-5.14856
-8.6483
-12.2475
-15.9817
-19.8782
-23.9477
-28.1667
-32.4449
-36.567
-40.0941
-42.2198
-41.6239
-36.5341
-25.5713
-1.84806
-5.57293
-9.38477
-13.344
-17.5139
-21.9605
-26.7483
-31.9292
-37.5147
-43.4107
-49.2767
-54.2378
-56.3696
-52.0564
-36.3472
-1.95797
-5.91029
-9.97381
-14.2295
-18.7694
-23.7014
-29.1554
-35.287
-42.2737
-50.2841
-59.3638
-69.0848
-77.56
-78.9746
-59.0592
-2.03146
-6.1364
-10.3706
-14.8309
-19.6325
-24.9201
-30.8847
-37.7893
-46.0087
-56.0878
-68.809
-85.1772
-105.811
-127.222
-122.696
-2.0629
-6.23327
-10.541
-15.0908
-20.0096
-25.4616
-31.6736
-38.9764
-47.8837
-59.2488
-74.6069
-97.0036
-133.282
-201.406
-358.06
1240.71
1263.94
1287.53
1311.24
1334.88
1358.24
1381.17
1403.48
1425.07
1445.8
1465.59
1484.36
1502.04
1518.61
1534
1548.21
1561.21
1572.99
1583.54
1592.87
1600.96
1607.83
1613.49
1617.95
1621.22
1623.32
1624.26
1624.07
1622.75
1620.34
1616.84
1612.29
1606.7
1600.1
1592.49
1583.9
1574.36
1563.87
1552.45
1540.13
1526.93
1512.86
1497.95
1482.21
1465.66
1448.33
1430.24
1411.4
1391.83
1371.55
1350.58
1328.92
1306.6
1283.63
1260.02
1235.79
1210.95
1185.53
1159.54
1133
1105.94
1078.39
1050.36
1021.88
992.978
963.682
934.021
904.026
873.733
843.18
812.413
781.481
750.44
719.354
688.289
657.321
626.526
595.986
565.784
536.002
506.723
478.025
449.986
422.675
396.155
370.483
345.705
321.855
298.957
277.023
-1.21209
-0.758642
-0.302188
0.140601
0.556044
0.934241
1.26925
1.55875
1.80337
2.00585
2.17027
2.30131
2.40369
2.48185
2.5397
2.58054
2.60709
2.62155
2.62571
2.62102
2.6087
2.58981
2.56528
2.53594
2.50259
2.46594
2.42668
2.38547
2.34292
2.29963
2.25612
2.21281
2.17002
2.12795
2.0866
2.04584
2.00542
1.96498
1.92416
1.88268
1.84036
1.79725
1.75358
1.7098
1.66649
1.62431
1.58386
1.54558
1.50966
1.476
1.44414
1.41335
1.38271
1.35118
1.3178
1.28179
1.24264
1.20019
1.15456
1.10611
1.0553
1.00252
0.947937
0.891348
0.832093
0.769035
0.700623
0.625024
0.540324
0.44475
0.336908
0.215976
0.0818369
-0.0648596
-0.222728
-0.389743
-0.563382
-0.740799
-0.918973
-1.09483
-1.26532
-1.42741
-1.5781
-1.71435
-1.83317
-1.93161
-2.00701
-2.05719
-2.08073
-2.07722
-2.05424
-1.26934
-0.481987
0.277827
0.986039
1.62588
2.18798
2.66953
3.07287
3.40388
3.67048
3.88131
4.04489
4.16891
4.26003
4.32375
4.36447
4.38572
4.39031
4.38053
4.35832
4.32534
4.2831
4.23297
4.17622
4.11403
4.04755
3.97787
3.90604
3.83306
3.75984
3.68715
3.61556
3.5454
3.4767
3.40919
3.34237
3.27554
3.20798
3.1391
3.06852
2.99627
2.92278
2.84888
2.77567
2.70442
2.6363
2.57219
2.51252
2.45712
2.40518
2.35537
2.30591
2.2549
2.20052
2.1413
2.07634
2.00538
1.92876
1.84729
1.76199
1.67377
1.58314
1.48988
1.39294
1.29031
1.17921
1.05626
0.917914
0.760844
0.582414
0.381042
0.156444
-0.0902593
-0.356604
-0.63898
-0.932923
-1.23344
-1.5353
-1.83329
-2.12228
-2.39724
-2.65321
-2.88511
-3.0878
-3.25614
-3.38526
-3.47113
-3.51103
-3.50406
-2.94805
-1.78376
-0.622333
0.489138
1.51426
2.42922
3.22243
3.89265
4.44622
4.89437
5.25065
5.52906
5.74269
5.90301
6.01949
6.09971
6.14953
6.17351
6.17523
6.15759
6.12306
6.07384
6.01192
5.93916
5.85729
5.76793
5.67266
5.573
5.47044
5.36646
5.26242
5.15952
5.05867
4.96038
4.86471
4.7712
4.67896
4.58678
4.49337
4.39759
4.29874
4.19674
4.09225
3.98661
3.88171
3.7797
3.68263
3.59209
3.50892
3.43293
3.36288
3.29656
3.23107
3.1632
3.08991
3.0088
2.91841
2.81845
2.70969
2.59374
2.47264
2.34828
2.22188
2.0935
1.96174
1.82359
1.67465
1.50949
1.32228
1.10752
0.860791
0.579393
0.262731
-0.087518
-0.467529
-0.871689
-1.29312
-1.72424
-2.15731
-2.5848
-2.9995
-3.39451
-3.76302
-4.09799
-4.39197
-4.63716
-4.82586
-4.95133
-5.00884
-4.99665
-3.91442
-2.29383
-0.690503
0.825051
2.20137
3.40814
4.43431
5.28402
5.97169
6.51743
6.94323
7.27034
7.51757
7.70052
7.83147
7.91972
7.9721
7.99368
7.98834
7.95928
7.90928
7.84094
7.75668
7.65881
7.54947
7.43069
7.30443
7.17263
7.03725
6.90029
6.76371
6.62929
6.49843
6.37195
6.24995
6.13173
6.01581
5.90015
5.7825
5.66084
5.53383
5.40114
5.26371
5.12362
4.98393
4.84819
4.71986
4.60172
4.49529
4.4005
4.31551
4.23687
4.15996
4.07959
3.99086
3.88992
3.77455
3.64446
3.50122
3.34788
3.18823
3.02596
2.8637
2.70224
2.53995
2.37262
2.19366
1.99467
1.76651
1.50041
1.18928
0.828705
0.417558
-0.0417477
-0.543513
-1.07937
-1.63919
-2.21208
-2.78724
-3.35458
-3.90492
-4.42981
-4.92101
-5.36978
-5.76628
-6.09939
-6.35738
-6.52928
-6.60693
-6.58697
-4.9748
-2.77903
-0.632268
1.36149
3.13271
4.64721
5.90039
6.90884
7.70167
8.3133
8.77805
9.12677
9.3851
9.57299
9.70506
9.79149
9.83914
9.85272
9.83575
9.79123
9.72205
9.63109
9.5212
9.39511
9.25538
9.10437
8.94434
8.77756
8.60649
8.43374
8.26207
8.09411
7.93204
7.77723
7.62994
7.48913
7.35245
7.21656
7.0776
6.932
6.77726
6.61258
6.43916
6.26024
6.08065
5.90618
5.74261
5.59465
5.46509
5.35413
5.25915
5.17487
5.09398
5.00818
4.90957
4.792
4.65206
4.48957
4.30748
4.11126
3.90776
3.70378
3.50453
3.31231
3.12556
2.93856
2.74163
2.52202
2.26549
1.95827
1.58913
1.15097
0.641872
0.0652994
-0.570269
-1.25242
-1.96633
-2.69651
-3.42829
-4.14871
-4.84688
-5.51352
-6.13999
-6.71673
-7.23175
-7.66972
-8.01277
-8.24282
-8.34551
-8.3142
-6.14848
-3.19347
-0.353465
2.21863
4.43406
6.26294
7.71934
8.84463
9.69309
10.3212
10.7805
11.1139
11.3546
11.5264
11.6449
11.7197
11.7558
11.7564
11.7234
11.6593
11.5668
11.4492
11.3097
11.1517
10.9782
10.7917
10.5946
10.3894
10.1788
9.96635
9.7558
9.55116
9.35591
9.17241
9.00132
8.84127
8.68868
8.53809
8.38296
8.21701
8.03571
7.83728
7.62326
7.3985
7.17067
6.94916
6.74353
6.56176
6.40876
6.28539
6.18802
6.10863
6.0357
5.95583
5.85618
5.72687
5.56261
5.36346
5.13465
4.88567
4.62851
4.37531
4.13577
3.91499
3.71202
3.51928
3.3227
3.103
2.83791
2.50573
2.08875
1.5758
0.96374
0.257683
-0.529578
-1.37936
-2.26967
-3.17833
-4.08536
-4.97459
-5.83393
-6.65479
-7.43029
-8.15234
-8.80791
-9.37651
-9.83065
-10.1396
-10.2768
-10.2293
-7.44805
-3.44214
0.311308
3.58952
6.2922
8.41527
10.0154
11.1794
12.0023
12.5727
12.9647
13.2352
13.424
13.5571
13.6485
13.7041
13.7245
13.7089
13.6566
13.569
13.4486
13.2993
13.1256
12.9315
12.7205
12.4951
12.2574
12.0096
11.7547
11.4969
11.2418
10.9955
10.7637
10.5505
10.3576
10.1834
10.0228
9.86696
9.70466
9.52491
9.31961
9.0852
8.82357
8.54194
8.25237
7.97003
7.71085
7.48817
7.31051
7.17995
7.0917
7.03378
6.98809
6.93265
6.84618
6.71273
6.52405
6.2807
5.9915
5.6725
5.34415
5.02776
4.74058
4.49261
4.28433
4.10606
3.93763
3.74982
3.50746
3.1758
2.72702
2.14383
1.42141
0.567442
-0.39842
-1.44751
-2.54619
-3.66206
-4.76768
-5.84314
-6.87601
-7.86102
-8.79724
-9.68334
-10.509
-11.2479
-11.8574
-12.2833
-12.4741
-12.403
-8.86369
-3.32725
1.66042
5.78903
8.98472
11.3202
12.9393
14.0053
14.6749
15.0811
15.324
15.4737
15.5737
15.6477
15.7036
15.739
15.745
15.714
15.6409
15.5258
15.3718
15.1847
14.9707
14.7356
14.4834
14.2163
13.9349
13.6402
13.3347
13.0237
12.7151
12.419
12.1446
11.8994
11.6869
11.5063
11.3502
11.2052
11.0516
10.8697
10.6455
10.3724
10.0528
9.69691
9.32377
8.95767
8.62575
8.34987
8.14455
8.01374
7.95184
7.94145
7.95465
7.95428
7.90396
7.77824
7.56431
7.26407
6.89137
6.47292
6.0427
5.63828
5.28903
5.01321
4.81355
4.67878
4.58058
4.4753
4.3057
4.01461
3.55898
2.91244
2.06861
1.03844
-0.147296
-1.44412
-2.79782
-4.16039
-5.49326
-6.77285
-7.98683
-9.13731
-10.2362
-11.3012
-12.3348
-13.3053
-14.1482
-14.7654
-15.0483
-14.9408
-10.3134
-2.42237
4.24626
9.33152
12.915
15.2558
16.6585
17.4005
17.7254
17.8231
17.8164
17.7827
17.7594
17.7632
17.7871
17.8147
17.8178
17.7782
17.6844
17.537
17.3414
17.1075
16.8449
16.5628
16.2666
15.9565
15.63
15.2849
14.9213
14.5457
14.1691
13.8098
13.4821
13.1999
12.9691
12.7923
12.6604
12.5544
12.438
12.274
12.0406
11.7254
11.333
10.8755
10.3838
9.89488
9.45875
9.10882
8.87013
8.74716
8.7367
8.81408
8.93966
9.04677
9.06926
8.96972
8.72787
8.35076
7.85613
7.28931
6.70316
6.16843
5.73088
5.42327
5.2485
5.19806
5.23295
5.29266
5.27816
5.08964
4.66514
3.96446
2.9835
1.73284
0.263214
-1.35937
-3.03716
-4.7019
-6.29597
-7.79734
-9.18937
-10.4882
-11.7239
-12.9644
-14.2518
-15.5463
-16.7641
-17.729
-18.1845
-18.0116
-11.4644
0.242095
9.11149
15.0361
18.6344
20.541
21.3279
21.3947
21.1015
20.7139
20.3458
20.075
19.9043
19.8479
19.8636
19.9238
19.9501
19.9185
19.803
19.616
19.3642
19.0694
18.7452
18.4083
18.0677
17.7184
17.3498
16.9543
16.5232
16.067
15.5964
15.1529
14.7524
14.4244
14.1713
14.0117
13.9314
13.9164
13.8912
13.7765
13.5515
13.1875
12.7052
12.1015
11.438
10.7543
10.1659
9.70589
9.42735
9.31692
9.39343
9.61568
9.94969
10.2595
10.4087
10.3646
10.0847
9.60519
8.92342
8.13212
7.28819
6.55729
5.98429
5.64077
5.50316
5.59326
5.84838
6.21572
6.50008
6.50339
6.16797
5.41907
4.28577
2.74164
0.893105
-1.19596
-3.29607
-5.34588
-7.23281
-8.97988
-10.5267
-11.9302
-13.2053
-14.5605
-16.1587
-17.8979
-19.7443
-21.426
-22.2255
-21.9041
-11.0059
6.99127
18.2162
24.0904
26.7902
27.4396
27.0352
25.9085
24.6145
23.5779
22.7362
22.2241
21.886
21.8302
21.877
22.083
22.1673
22.181
22.026
21.7896
21.4506
21.0752
20.6654
20.2608
19.8829
19.5096
19.1099
18.6766
18.1631
17.6104
16.9866
16.4356
15.9198
15.5428
15.2407
15.1188
15.1099
15.295
15.4749
15.4396
15.2642
14.8217
14.2538
13.4153
12.5228
11.4785
10.6896
10.0433
9.74411
9.61909
9.84184
10.2579
10.996
11.7051
12.028
12.1005
11.7305
11.1523
10.1498
9.05213
7.71186
6.72013
5.90856
5.56304
5.43115
5.75203
6.30336
7.25937
8.12779
8.40595
8.26722
7.42825
6.18067
4.18981
1.87037
-1.01563
-3.62644
-6.22346
-8.37013
-10.45
-12.0695
-13.5564
-14.5706
-15.8059
-17.862
-20.0945
-22.9611
-26.3929
-27.8802
-27.1408
-3.28902
23.4927
35.0255
37.7148
37.8975
35.8548
33.7821
30.6628
27.7562
26.161
24.6514
24.1226
23.4606
23.6644
23.6608
24.4168
24.486
24.686
24.3656
24.1106
23.5892
23.13
22.5778
22.0744
21.6911
21.3386
20.9182
20.5138
19.8593
19.2561
18.2714
17.6676
16.8871
16.5532
16.0504
16.0631
16.0086
16.6809
17.3681
17.3042
17.3613
16.6364
16.1921
14.8066
13.8261
11.8345
11.008
9.88081
9.80994
9.42036
10.0118
10.4361
12.084
13.7068
14.0079
14.4733
13.6759
13.3102
11.5133
10.3213
7.63354
6.62349
5.16165
5.17763
4.70712
5.57888
6.17553
8.42912
10.6054
10.9088
11.3748
10.0258
9.14582
6.1111
3.66348
-1.23156
-3.9766
-7.74944
-9.60353
-12.5829
-13.8029
-15.8631
-15.6173
-15.869
-19.311
-21.3777
-25.3636
-34.1594
-36.7409
-34.6932
38.8705
61.9528
64.57
54.9481
52.2084
44.3122
42.035
35.1098
29.0085
28.6195
25.1534
26.2116
23.7873
25.7963
24.3497
27.7386
26.615
27.9394
26.61
26.8138
25.637
25.3176
24.4184
23.7141
23.4535
23.2644
22.7022
22.7101
21.4804
21.4498
19.0068
19.1526
17.2102
17.8054
16.1168
17.103
15.8595
18.0443
20.3418
18.9937
20.5833
18.046
19.4844
15.6138
16.5842
10.512
11.7583
8.19625
10.3337
7.808
10.4217
8.8514
13.2072
17.6107
15.7503
18.6636
14.9987
17.5284
12.0046
13.7438
5.13844
7.17669
2.28591
5.49206
2.04951
5.80123
3.66103
9.70955
15.7792
13.1768
17.0952
11.9472
15.2132
7.18639
8.98037
-4.54399
-2.8471
-12.0388
-9.21689
-17.2493
-14.3268
-21.4905
-15.9479
-11.3381
-22.7408
-19.8969
-20.8399
-50.8745
-52.2674
-46.3595
259.295
129.881
111.738
62.2705
73.9445
44.678
56.9809
38.3702
22.0355
35.5093
19.1409
33.3155
17.7302
32.9048
18.0757
37.5586
25.2192
35.0144
26.6469
31.5056
26.4505
28.3406
25.9789
24.7153
25.1136
25.7276
23.6659
26.6892
21.3751
27.1181
16.0146
23.6455
13.8795
22.3468
12.3323
21.3542
10.7744
19.2458
28.5659
16.4533
29.7485
13.7312
30.4223
9.45063
29.4844
-1.34855
19.4333
-1.69495
17.5732
-1.20445
16.8571
-1.26616
14.2622
30.535
10.6192
32.3269
7.40172
33.3443
2.03763
32.0631
-12.6829
17.7083
-12.2488
15.3812
-10.9673
14.5084
-10.6447
10.96
33.441
6.05534
35.8716
1.75258
37.5428
-5.87993
36.356
-29.7745
13.9625
-33.6273
6.80052
-37.6903
-0.326301
-45.4143
-14.9347
16.2512
-46.6849
-12.9629
25.5763
-108.833
-78.3064
-65.862
253.954
230.151
207.665
186.426
166.352
147.347
129.308
112.128
95.6982
79.9119
64.6632
49.8493
35.37
21.1278
7.02693
-2.04437
-1.97342
-1.87236
-1.7473
-1.6047
-1.45068
-1.29047
-1.12824
-0.966971
-0.808572
-0.654011
-0.503504
-0.356685
-0.212774
-0.0707134
-3.44617
-3.32243
-3.14722
-2.93163
-2.68721
-2.42467
-2.15305
-1.87934
-1.60844
-1.34336
-1.08552
-0.83508
-0.591248
-0.352571
-0.117153
-4.90853
-4.7229
-4.46243
-4.14476
-3.78781
-3.40773
-3.01771
-2.62762
-2.24409
-1.87091
-1.50963
-1.16004
-0.820649
-0.489106
-0.162478
-6.46034
-6.19814
-5.83478
-5.39713
-4.9115
-4.40066
-3.8824
-3.36932
-2.86933
-2.38653
-1.92203
-1.47477
-1.0422
-0.620718
-0.206129
-8.13613
-7.77445
-7.28136
-6.69742
-6.06035
-5.40098
-4.74187
-4.09787
-3.47737
-2.88383
-2.31716
-1.77481
-1.25263
-0.745437
-0.247446
-9.97921
-9.48203
-8.81869
-8.05074
-7.23144
-6.40095
-5.58618
-4.80288
-4.0584
-3.35422
-2.68793
-2.05466
-1.44806
-0.860944
-0.285659
-12.0465
-11.3556
-10.4605
-9.45527
-8.4136
-7.38513
-6.39895
-5.46901
-4.59909
-3.78669
-3.02566
-2.30781
-1.62399
-0.964608
-0.319904
-14.4155
-13.4332
-12.2122
-10.8961
-9.58244
-8.32691
-7.15542
-6.07503
-5.08218
-4.16776
-3.32016
-2.52691
-1.77547
-1.05358
-0.34925
-17.1936
-15.7494
-14.0588
-12.3344
-10.693
-9.18456
-7.82066
-6.59345
-5.48679
-4.48195
-3.56026
-2.70415
-1.8974
-1.12497
-0.372764
-20.5234
-18.3119
-15.9391
-13.6896
-11.6704
-9.89756
-8.34912
-6.99124
-5.78952
-4.71294
-3.73474
-2.83201
-1.98497
-1.17612
-0.389595
-24.5582
-21.0354
-17.6961
-14.8143
-12.4013
-10.3861
-8.68691
-7.23279
-5.96702
-4.84549
-3.8337
-2.90416
-2.0343
-1.20495
-0.399082
-29.2979
-23.5753
-18.995
-15.4702
-12.7341
-10.5584
-8.77958
-7.28588
-6.0002
-4.86824
-3.85038
-2.91659
-2.04312
-1.21027
-0.400865
-33.8743
-24.9724
-19.2385
-15.337
-12.5065
-10.3335
-8.58708
-7.13085
-5.8796
-4.77682
-3.78292
-2.86866
-2.01129
-1.19212
-0.394972
-33.7318
-23.2013
-17.6492
-14.1328
-11.6211
-9.68209
-8.10424
-6.77076
-5.61046
-4.57646
-3.63578
-2.76382
-1.94123
-1.15192
-0.381874
-2.05429
-6.20666
-10.4941
-15.0194
-19.9076
-25.3207
-31.4827
-38.7218
-47.5503
-58.8275
-74.1212
-96.6026
-133.51
-203.637
-361.739
-2.01292
-6.07905
-10.2691
-14.6764
-19.4125
-24.6184
-30.4829
-37.2696
-45.3634
-55.3443
-68.0947
-84.8705
-106.795
-130.587
-122.902
-1.94357
-5.86534
-9.89316
-14.1051
-18.5909
-23.4588
-28.8423
-34.9094
-41.8658
-49.9376
-59.2724
-69.5621
-78.7811
-79.3942
-49.426
-1.85015
-5.57795
-9.38933
-13.3434
-17.504
-21.9408
-26.727
-31.9315
-37.5933
-43.6537
-49.7869
-54.9969
-56.7428
-49.4381
-23.7859
-1.73761
-5.2325
-8.78636
-12.4382
-16.2253
-20.18
-24.321
-28.6359
-33.0438
-37.3189
-40.9422
-42.8376
-40.9895
-32.2227
-13.3676
-1.61141
-4.84606
-8.11532
-11.4389
-14.8302
-18.2897
-21.794
-25.2756
-28.5863
-31.4362
-33.2971
-33.2776
-30.0408
-22.0126
-8.42162
-1.47698
-4.43555
-7.40646
-10.3927
-13.3876
-16.3681
-19.2828
-22.0338
-24.4487
-26.2402
-26.9574
-25.9514
-22.4195
-15.6655
-5.73405
-1.33935
-4.01644
-6.68695
-9.34023
-11.955
-14.4921
-16.8851
-19.0254
-20.744
-21.79
-21.8142
-20.379
-17.0357
-11.5248
-4.11356
-1.20281
-3.60186
-5.97936
-8.31453
-10.5761
-12.7162
-14.6628
-16.3097
-17.5063
-18.0494
-17.6844
-16.1316
-13.157
-8.70383
-3.05963
-1.07083
-3.20224
-5.30113
-7.33988
-9.28147
-11.0746
-12.6484
-13.9065
-14.7224
-14.9393
-14.3794
-12.8714
-10.305
-6.70992
-2.33557
-0.945976
-2.82518
-4.66461
-6.43267
-8.08986
-9.58532
-10.8533
-11.8103
-12.3544
-12.3686
-11.7326
-10.3462
-8.16719
-5.25716
-1.81762
-0.829968
-2.47571
-4.07763
-5.60241
-7.01052
-8.2539
-9.27399
-10.0008
-10.3543
-10.2494
-9.60688
-8.3715
-6.53699
-4.17208
-1.43554
-0.723812
-2.15665
-3.5442
-4.85312
-6.04552
-7.0775
-7.89827
-8.45049
-8.6725
-8.50352
-7.89279
-6.81276
-5.27509
-3.34503
-1.1469
-0.627918
-1.86904
-3.06534
-4.18471
-5.19189
-6.04772
-6.709
-7.12942
-7.26212
-7.06433
-6.50454
-5.57177
-4.28566
-2.70414
-0.92467
-0.542236
-1.61254
-2.63989
-3.59418
-4.44333
-5.15301
-5.68694
-6.0081
-6.08119
-5.87649
-5.37526
-4.57613
-3.50134
-2.20069
-0.75096
-0.466387
-1.38586
-2.26516
-3.07664
-3.7916
-4.38032
-4.81259
-5.05902
-5.09314
-4.89454
-4.45281
-3.7719
-2.87385
-1.80075
-0.613488
-0.399772
-1.18707
-1.9375
-2.6261
-3.22751
-3.71623
-4.06727
-4.25734
-4.26666
-4.08138
-3.69644
-3.11843
-2.36789
-1.48008
-0.503591
-0.341659
-1.01388
-1.65278
-2.2361
-2.74166
-3.14774
-3.43371
-3.58115
-3.57529
-3.40685
-3.07411
-2.58476
-1.95724
-1.22098
-0.415005
-0.291249
-0.863817
-1.40664
-1.90008
-2.32488
-2.66262
-2.89633
-3.0114
-2.9968
-2.84641
-2.56052
-2.14701
-1.6221
-1.01029
-0.343105
-0.247732
-0.734405
-1.19479
-1.61171
-1.96855
-2.24974
-2.44132
-2.53168
-2.51257
-2.38005
-2.13554
-1.7866
-1.34731
-0.838042
-0.284414
-0.21032
-0.623242
-1.01313
-1.36504
-1.66473
-1.89908
-2.05657
-2.12798
-2.10709
-1.99145
-1.78306
-1.48891
-1.12111
-0.696594
-0.236278
-0.178267
-0.528072
-0.857829
-1.15463
-1.40629
-1.60177
-1.73158
-1.78836
-1.7674
-1.66723
-1.49013
-1.24237
-0.934292
-0.580001
-0.196641
-0.150884
-0.446822
-0.725412
-0.975549
-1.18686
-1.35006
-1.45731
-1.50271
-1.48269
-1.39644
-1.24626
-1.0377
-0.779561
-0.48359
-0.163892
-0.127547
-0.377618
-0.612748
-0.823426
-1.00084
-1.13718
-1.22598
-1.26249
-1.24397
-1.17005
-1.04292
-0.867448
-0.651097
-0.403655
-0.136759
-0.1077
-0.318786
-0.51706
-0.6944
-0.843333
-0.957304
-1.03097
-1.06047
-1.04371
-0.980591
-0.873143
-0.725583
-0.544221
-0.337225
-0.114223
-0.0908464
-0.268851
-0.435905
-0.585097
-0.7101
-0.805415
-0.866611
-0.890558
-0.875639
-0.821913
-0.731218
-0.607185
-0.455143
-0.28191
-0.0954662
-0.0765539
-0.226517
-0.367152
-0.492589
-0.59748
-0.677215
-0.728117
-0.747636
-0.734513
-0.688903
-0.61244
-0.508234
-0.380779
-0.235767
-0.0798259
-0.0644445
-0.190661
-0.308951
-0.414344
-0.502327
-0.569034
-0.611412
-0.627378
-0.615944
-0.577313
-0.512924
-0.425426
-0.318603
-0.197212
-0.066762
-0.0541908
-0.160306
-0.259706
-0.348185
-0.421945
-0.477744
-0.513046
-0.526143
-0.516256
-0.483609
-0.429451
-0.356036
-0.266543
-0.164947
-0.0558322
-0.0455104
-0.134615
-0.218043
-0.292247
-0.354032
-0.400685
-0.430097
-0.440864
-0.432371
-0.40484
-0.359349
-0.297808
-0.222885
-0.137902
-0.046673
-0.0381603
-0.112865
-0.182784
-0.244931
-0.296625
-0.335597
-0.360093
-0.368959
-0.361704
-0.33854
-0.300391
-0.24887
-0.186213
-0.115193
-0.0389837
-0.0319321
-0.0944375
-0.15292
-0.204874
-0.248051
-0.280559
-0.300941
-0.308246
-0.302082
-0.282643
-0.250718
-0.207663
-0.155349
-0.0960862
-0.0325152
-0.0266472
-0.0788032
-0.127589
-0.170909
-0.206885
-0.233941
-0.250868
-0.256885
-0.251676
-0.235417
-0.208774
-0.172884
-0.129309
-0.0799706
-0.0270602
-0.0221527
-0.0655086
-0.106054
-0.142042
-0.171912
-0.194355
-0.208371
-0.213317
-0.208942
-0.195399
-0.173249
-0.14344
-0.107272
-0.066335
-0.0224451
-0.0183176
-0.0541653
-0.0876831
-0.117424
-0.142096
-0.160619
-0.17217
-0.176222
-0.172574
-0.161358
-0.143042
-0.118413
-0.0885444
-0.0547499
-0.0185243
-0.0150291
-0.0444397
-0.0719344
-0.0963243
-0.116549
-0.131723
-0.141175
-0.144474
-0.14146
-0.132246
-0.117217
-0.0970231
-0.0725429
-0.0448527
-0.0151751
-0.0121901
-0.0360442
-0.0583415
-0.0781166
-0.0945092
-0.106802
-0.11445
-0.11711
-0.114652
-0.10717
-0.0949801
-0.078609
-0.0587703
-0.0363351
-0.012293
-0.00971649
-0.0287294
-0.0464998
-0.0622573
-0.075316
-0.0851043
-0.0911898
-0.0932991
-0.0913309
-0.0853621
-0.075646
-0.0626023
-0.0468003
-0.0289334
-0.00978863
-0.0075345
-0.0222774
-0.0360558
-0.0482717
-0.0583933
-0.0659776
-0.07069
-0.0723192
-0.0707878
-0.0661564
-0.0586221
-0.0485109
-0.0362641
-0.0224188
-0.00758451
-0.00557891
-0.0164951
-0.0266965
-0.0357402
-0.0432323
-0.048845
-0.0523308
-0.0535337
-0.0523971
-0.0489661
-0.0433873
-0.0359023
-0.0268376
-0.0165909
-0.00561279
-0.0037911
-0.011209
-0.018141
-0.024286
-0.0293763
-0.0331891
-0.0355565
-0.0363727
-0.0355992
-0.0332672
-0.0294761
-0.0243904
-0.0182319
-0.0112707
-0.00381293
-0.00211735
-0.0062603
-0.0101319
-0.013564
-0.0164071
-0.0185368
-0.0198593
-0.0203153
-0.0198835
-0.0185812
-0.0164639
-0.0136233
-0.0101836
-0.00629535
-0.00212975
-0.000507295
-0.0015
-0.00242796
-0.003251
-0.00393332
-0.00444506
-0.00476357
-0.00487444
-0.00477229
-0.00446101
-0.00395372
-0.00327233
-0.00244653
-0.0015126
-0.000511753
0.00108756
0.00321534
0.00520313
0.00696431
0.00842202
0.00951252
0.010188
0.0104185
0.0101937
0.00952305
0.00843549
0.0069784
0.0052154
0.00322367
0.00109051
0.00271528
0.00802786
0.0129915
0.0173903
0.0210323
0.0237583
0.0254483
0.0260276
0.0254693
0.0237965
0.0210813
0.0174415
0.0130361
0.00805813
0.00272599
0.00442491
0.0130826
0.0211721
0.0283416
0.0342786
0.0387232
0.04148
0.0424264
0.0415186
0.0387937
0.0343689
0.0284361
0.0212544
0.0131384
0.00444466
0.00626793
0.0185319
0.0299915
0.0401488
0.0485609
0.0548599
0.0587685
0.0601125
0.0588294
0.0549713
0.0487034
0.0402978
0.0301213
0.0186199
0.00629909
0.00829975
0.0245395
0.0397151
0.0531674
0.0643103
0.0726562
0.0778374
0.0796226
0.077928
0.0728218
0.0645222
0.053389
0.039908
0.0246704
0.00834606
0.0105813
0.0312859
0.0506352
0.0677895
0.0820017
0.0926498
0.0992641
0.101549
0.0993953
0.0928893
0.0823083
0.0681101
0.0509144
0.0314753
0.0106484
0.013181
0.0389731
0.0630793
0.0844542
0.102168
0.115444
0.123697
0.126556
0.123884
0.115786
0.102606
0.0849123
0.0634783
0.0392439
0.0132768
0.0161764
0.0478309
0.0774197
0.103661
0.125414
0.141726
0.151875
0.155403
0.152141
0.142212
0.126036
0.104312
0.0779863
0.0482155
0.0163124
0.0196566
0.058123
0.094084
0.125984
0.152438
0.172286
0.184649
0.188966
0.185025
0.172974
0.153319
0.126906
0.0948863
0.0586675
0.0198492
0.0237247
0.0701545
0.113567
0.152089
0.184048
0.208043
0.223008
0.228262
0.223541
0.209016
0.185294
0.153392
0.114702
0.0709244
0.023997
0.0285006
0.0842807
0.136447
0.182751
0.221187
0.250069
0.268111
0.274484
0.268863
0.251444
0.222947
0.184592
0.138049
0.0853684
0.0288854
0.0341244
0.100916
0.163395
0.218877
0.264959
0.299621
0.321314
0.329034
0.322377
0.301563
0.267444
0.221476
0.165658
0.102452
0.0346677
0.0407596
0.120546
0.195201
0.261528
0.316659
0.358177
0.384218
0.393567
0.385719
0.360918
0.320168
0.265198
0.198397
0.122715
0.0415268
0.048598
0.143738
0.23279
0.311953
0.377812
0.427477
0.458711
0.470039
0.46083
0.431348
0.382766
0.317133
0.237301
0.1468
0.0496812
0.0578637
0.171158
0.277243
0.371614
0.450208
0.509574
0.547025
0.56077
0.550016
0.515039
0.457202
0.378928
0.283613
0.175481
0.0593929
0.0688186
0.203583
0.329831
0.442228
0.535953
0.606886
0.651799
0.66851
0.65602
0.6146
0.545826
0.452554
0.338823
0.209686
0.0709776
0.0817682
0.24192
0.392034
0.525807
0.637521
0.722264
0.776151
0.796524
0.782111
0.733153
0.651459
0.540384
0.404728
0.250537
0.0848164
0.0970678
0.287226
0.465581
0.624702
0.757815
0.859063
0.923773
0.948688
0.932185
0.874435
0.77749
0.645281
0.483504
0.299392
0.101371
0.115129
0.340726
0.552483
0.741655
0.90023
1.02123
1.09902
1.12961
1.1109
1.04293
0.928005
0.770706
0.577786
0.357903
0.121205
0.136427
0.403835
0.655064
0.87985
1.06873
1.2134
1.30705
1.34475
1.32381
1.24403
1.10794
0.920862
0.690788
0.428087
0.145006
0.161505
0.478177
0.776003
1.04297
1.26793
1.44099
1.55391
1.60061
1.57757
1.48422
1.32328
1.10087
0.826442
0.512423
0.17362
0.190982
0.565604
0.918365
1.23526
1.50317
1.71032
1.84676
1.9049
1.88014
1.77133
1.58129
1.317
0.989585
0.613964
0.208092
0.225557
0.668207
1.08563
1.46155
1.7806
2.02875
2.19396
2.26675
2.24105
2.11485
1.89086
1.57695
1.1862
0.736508
0.249725
0.266006
0.788326
1.2817
1.72733
2.10724
2.40478
2.60531
2.69699
2.67175
2.52626
2.26286
1.89025
1.42373
0.884807
0.30015
0.313186
0.928538
1.51093
2.03874
2.49106
2.84816
3.09223
3.20841
3.18594
3.01952
2.71068
2.26876
1.71153
1.06486
0.361438
0.368018
1.09163
1.77803
2.40257
2.941
3.37
3.66795
3.81609
3.80006
3.61168
3.25089
2.72733
2.06144
1.28431
0.436233
0.43147
1.28057
2.08809
2.82616
3.46691
3.98283
4.34768
4.53775
4.53383
4.32355
3.9041
3.28473
2.48858
1.55302
0.527963
0.50453
1.49837
2.44636
3.31734
4.07947
4.70055
5.14874
5.3941
5.41087
5.18065
4.69611
3.96487
3.01252
1.88386
0.641127
0.588154
1.74801
2.8581
3.88406
4.78996
5.53829
6.09062
6.40915
6.4594
6.21433
5.65942
4.79851
3.65887
2.29392
0.78173
0.683201
2.03218
3.32825
4.53414
5.60983
6.5121
7.19483
7.61044
7.71298
7.46312
6.83519
5.82569
4.46167
2.8062
0.95793
0.790345
2.35307
3.861
5.27461
6.5501
7.63833
8.48448
9.02909
9.21123
8.9744
8.27588
7.09903
5.46682
3.45237
1.18106
0.909956
2.71201
4.45924
6.11094
7.62036
8.93262
9.98347
10.6994
11.0004
10.8062
10.0487
8.68856
6.73736
4.27689
1.46724
1.04196
3.109
5.12377
7.04605
8.82748
10.4084
11.715
12.6578
13.1332
13.0293
12.2399
10.6885
8.36154
5.34386
1.8401
1.18569
3.54226
5.85249
8.0789
10.1738
12.0746
13.699
14.9408
15.6683
15.7282
14.9601
13.2269
10.4653
6.74837
2.33547
1.33968
4.00768
6.63938
9.20304
11.6549
13.9327
15.9485
17.5807
18.6669
19.0022
18.3504
16.4795
13.2325
8.63612
3.01001
1.50157
4.49828
7.47346
10.4048
13.2567
15.9725
18.4644
20.5998
22.1868
22.9614
22.5873
20.6875
16.9367
11.2389
3.9581
1.66789
5.00381
8.33796
11.6616
14.9528
18.1679
21.2277
23.9995
26.2707
27.7182
27.8837
26.1808
21.9929
14.941
5.34742
1.83412
5.51052
9.20971
12.9408
16.7018
20.4708
24.191
27.7469
30.9263
33.3652
34.4773
33.3995
29.038
20.4079
7.50148
1.99467
6.00136
10.0592
14.1992
18.4452
22.8075
27.2681
31.7554
36.0962
39.9332
42.5916
42.8985
39.0472
28.8443
11.1114
2.14317
6.45662
10.8517
15.3837
20.1078
25.0757
30.3267
35.8655
41.6157
47.3196
52.3386
55.2847
53.467
42.5097
17.8393
2.27284
6.85514
11.549
16.4347
21.6009
27.1473
33.1851
39.8285
47.167
55.1815
63.5248
70.9787
74.2333
65.6977
32.2115
2.37706
7.17611
12.1131
17.2909
22.8297
28.8776
35.6227
43.3088
52.2487
62.8145
75.3282
89.5883
103.187
106.212
68.0674
2.45005
7.40124
12.5099
17.8961
23.7049
30.1235
37.4066
45.9181
56.2009
69.0946
85.9183
108.657
139.482
175.316
171.972
2.48754
7.51692
12.714
18.2078
24.1566
30.769
38.3372
47.297
58.3398
72.6449
92.4002
122.109
172.298
271.625
512.402
2.48732
7.51609
12.712
18.2033
24.1473
30.7504
38.3014
47.2291
58.2128
72.4098
91.9696
121.337
170.989
269.704
510.677
2.44951
7.39915
12.5047
17.8843
23.6801
30.0735
37.3093
45.733
55.8541
68.45
84.7273
106.478
135.607
168.99
164.537
2.37652
7.17389
12.107
17.2763
22.7977
28.8115
35.492
43.058
51.7764
61.9331
73.6835
86.4951
97.2696
94.5508
43.8278
-21.3847
-17.4307
-14.4665
-12.1711
-10.3204
-8.77665
-7.4534
-6.29329
-5.25638
-4.31355
-3.44258
-2.62585
-1.84877
-1.09876
-0.364526
-8.0219
-11.1184
-10.9809
-10.0212
-8.89202
-7.77949
-6.73396
-5.7632
-4.86141
-4.01882
-3.22497
-2.46977
-1.7438
-1.03825
-0.344754
-3.65024
-7.05166
-8.06628
-7.98898
-7.452
-6.73574
-5.96253
-5.18516
-4.42529
-3.69022
-2.98048
-2.29336
-1.62464
-0.969354
-0.322209
-1.98622
-4.6424
-5.90987
-6.27587
-6.13642
-5.73148
-5.19393
-4.59493
-3.97192
-3.344
-2.72025
-2.10417
-1.49614
-0.894793
-0.297768
-1.23627
-3.19749
-4.37942
-4.91371
-5.00514
-4.81928
-4.46795
-4.02133
-3.52191
-2.99485
-2.45466
-1.90936
-1.363
-0.817222
-0.272289
-0.841373
-2.29373
-3.29867
-3.85904
-4.06638
-4.02194
-3.80812
-3.48436
-3.09107
-2.65479
-2.19261
-1.71527
-1.22942
-0.739059
-0.24656
-0.606462
-1.70066
-2.52663
-3.0495
-3.30245
-3.34218
-3.22459
-2.99566
-2.69005
-2.33271
-1.94105
-1.52708
-1.09898
-0.662373
-0.22126
-0.453995
-1.29384
-1.96506
-2.42738
-2.68655
-2.77164
-2.71836
-2.56017
-2.32495
-2.03443
-1.70498
-1.34869
-0.974431
-0.58881
-0.196935
-0.348843
-1.00412
-1.54854
-1.94631
-2.19152
-2.29718
-2.28495
-2.17816
-1.99822
-1.76316
-1.48754
-1.18276
-0.857765
-0.519586
-0.173992
-0.273135
-0.791385
-1.23383
-1.57119
-1.79336
-1.90456
-1.91718
-1.84694
-1.70974
-1.52005
-1.29032
-1.03087
-0.750244
-0.455506
-0.152708
-0.216884
-0.631281
-0.992094
-1.27603
-1.47227
-1.58039
-1.60694
-1.5622
-1.45769
-1.30475
-1.11372
-0.893686
-0.652514
-0.397018
-0.133242
-0.174083
-0.508383
-0.803733
-1.04177
-1.21235
-1.31284
-1.34621
-1.31894
-1.23926
-1.11588
-0.957245
-0.771173
-0.564726
-0.344277
-0.115654
-0.140911
-0.412528
-0.655167
-0.85434
-1.00109
-1.09188
-1.12757
-1.11207
-1.05117
-0.95148
-0.81982
-0.662801
-0.486657
-0.297208
-0.0999306
-0.114824
-0.336792
-0.536779
-0.703306
-0.828696
-0.909193
-0.944452
-0.936724
-0.890001
-0.809276
-0.699998