/*--------------------------------*- C++ -*----------------------------------*\
| =========                 |                                                 |
| \\      /  F ield         | OpenFOAM: The Open Source CFD Toolbox           |
|  \\    /   O peration     | Version:  5.x                                   |
|   \\  /    A nd           | Web:      www.OpenFOAM.org                      |
|    \\/     M anipulation  |                                                 |
\*---------------------------------------------------------------------------*/
FoamFile
{
    version     2.0;
    format      ascii;
    class       volScalarField;
    location    "1.8";
    object      gradTx;
}
// * * * * * * * * * * * * * * * * * * * * * * * * * * * * * * * * * * * * * //

dimensions      [0 -1 0 1 0 0 0];

internalField   nonuniform List<scalar> 
2048
(
0.00772002
0.0229242
0.0374421
0.0508869
0.062965
0.0734909
0.082385
0.0896591
0.0953943
0.0997153
0.102768
0.104705
0.10567
0.105801
0.105226
0.104066
0.102435
0.100444
0.0981919
0.0957695
0.093251
0.0906941
0.0881393
0.0856111
0.0831214
0.0806725
0.0782598
0.0758738
0.0735013
0.0711255
0.0687272
0.0662858
0.0637817
0.0611979
0.0585221
0.0557465
0.0528677
0.0498846
0.0467958
0.0435976
0.040283
0.0368418
0.0332622
0.0295344
0.0256538
0.0216251
0.017466
0.0132098
0.00890738
0.00462814
0.000459685
-0.00349372
-0.00711462
-0.0102779
-0.0128589
-0.0147429
-0.0158372
-0.0160814
-0.0154567
-0.0139916
-0.0117627
-0.00889098
-0.00553418
-0.00187815
0.023018
0.0683378
0.111577
0.151566
0.187425
0.218609
0.244892
0.266329
0.283181
0.295834
0.304735
0.310338
0.313079
0.313361
0.311561
0.308036
0.303125
0.297154
0.290423
0.2832
0.275707
0.268115
0.260542
0.253058
0.245696
0.23846
0.231335
0.224293
0.217293
0.210285
0.203212
0.196011
0.188623
0.180995
0.17309
0.164888
0.156379
0.147561
0.138433
0.128984
0.119194
0.10903
0.0984562
0.0874396
0.0759634
0.064039
0.0517161
0.0390916
0.0263152
0.0135921
0.00118283
-0.0106017
-0.0214095
-0.0308643
-0.038589
-0.0442358
-0.0475208
-0.0482582
-0.0463879
-0.0419937
-0.0353047
-0.0266846
-0.0166076
-0.00563507
0.0381896
0.11334
0.184927
0.250964
0.30998
0.361086
0.403957
0.438742
0.465931
0.486214
0.500363
0.509145
0.513278
0.513419
0.510178
0.504134
0.495841
0.485837
0.474621
0.462639
0.45026
0.437763
0.425338
0.413091
0.401067
0.389265
0.377656
0.366191
0.354804
0.343411
0.331915
0.320208
0.308187
0.295764
0.282877
0.269491
0.255599
0.241204
0.226308
0.210898
0.194939
0.178375
0.161138
0.143164
0.124416
0.104904
0.0847008
0.0639609
0.0429258
0.0219313
0.00140626
-0.018133
-0.0360981
-0.0518547
-0.0647613
-0.0742212
-0.0797421
-0.0809966
-0.0778726
-0.0705041
-0.0592757
-0.0448005
-0.0278768
-0.00945634
0.0535486
0.158841
0.258908
0.350873
0.432647
0.503029
0.56166
0.60887
0.645465
0.672511
0.691149
0.702474
0.707482
0.707068
0.70205
0.693211
0.681315
0.667107
0.651294
0.634506
0.617262
0.599945
0.582806
0.565974
0.549492
0.533343
0.51748
0.501832
0.486308
0.470791
0.455138
0.439195
0.422805
0.40584
0.388211
0.369876
0.350833
0.331103
0.3107
0.289614
0.267797
0.24516
0.221594
0.196993
0.171285
0.144466
0.116621
0.0879536
0.058789
0.029588
0.000945156
-0.0264168
-0.0516651
-0.0738916
-0.0921665
-0.105614
-0.113499
-0.115327
-0.110911
-0.100433
-0.0844409
-0.0638151
-0.0397014
-0.0134649
0.0693788
0.205657
0.334778
0.452857
0.557155
0.646197
0.71969
0.778271
0.823189
0.855981
0.878217
0.891344
0.896625
0.89516
0.88795
0.875955
0.86014
0.841467
0.82086
0.799149
0.777008
0.754925
0.733196
0.711953
0.691218
0.670944
0.651058
0.631468
0.612061
0.592689
0.573162
0.553264
0.53278
0.511528
0.48939
0.466324
0.442345
0.417503
0.391841
0.365359
0.337994
0.309619
0.28007
0.249177
0.216817
0.182954
0.147676
0.11122
0.0739906
0.0365659
-0.000296862
-0.0356661
-0.0684538
-0.0974554
-0.121418
-0.139142
-0.149605
-0.152096
-0.146334
-0.132536
-0.111432
-0.0842011
-0.0523729
-0.0177593
0.0859522
0.254567
0.413716
0.558353
0.685041
0.792098
0.879434
0.948167
1.00015
1.03753
1.06237
1.07649
1.0814
1.07835
1.06849
1.05292
1.0328
1.00932
0.983652
0.956842
0.929737
0.902926
0.87673
0.851259
0.826483
0.802307
0.778626
0.755333
0.7323
0.709351
0.686245
0.662691
0.638395
0.613112
0.58669
0.559088
0.53036
0.500606
0.469916
0.438311
0.405713
0.371949
0.336774
0.299936
0.261236
0.220588
0.178063
0.133927
0.0886511
0.0429243
-0.00233766
-0.0459932
-0.0866875
-0.122893
-0.152989
-0.175395
-0.188734
-0.192024
-0.184847
-0.167455
-0.140781
-0.106351
-0.0661295
-0.0224191
0.103542
0.306346
0.496878
0.668728
0.817718
0.94205
1.04203
1.11949
1.17711
1.21778
1.24415
1.25842
1.2623
1.25714
1.24415
1.22455
1.19969
1.171
1.13993
1.1078
1.07564
1.04413
1.01361
0.984109
0.955518
0.927669
0.900416
0.873648
0.847241
0.821001
0.794625
0.767731
0.739921
0.710864
0.680366
0.6484
0.615078
0.58058
0.545069
0.508606
0.471099
0.432308
0.391888
0.349472
0.304755
0.257579
0.207986
0.156257
0.102921
0.0487709
-0.00512673
-0.0574229
-0.106486
-0.150437
-0.187236
-0.214847
-0.231455
-0.235732
-0.227071
-0.205749
-0.172942
-0.130591
-0.0811643
-0.0275078
0.122435
0.361798
0.585438
0.785334
0.956518
1.09722
1.20841
1.29292
1.35452
1.39705
1.42383
1.43742
1.43966
1.4319
1.41533
1.39123
1.36113
1.32676
1.28989
1.25217
1.21484
1.17869
1.14401
1.11071
1.07856
1.04726
1.01665
0.986619
0.957082
0.927839
0.898523
0.868628
0.837618
0.805045
0.770664
0.734471
0.696668
0.657556
0.617407
0.576342
0.534257
0.490827
0.44557
0.397966
0.347573
0.294134
0.237647
0.178399
0.116973
0.054253
-0.0085552
-0.0699031
-0.127878
-0.180222
-0.224417
-0.257883
-0.278261
-0.283775
-0.273562
-0.247915
-0.208306
-0.157188
-0.0976273
-0.0330731
0.142938
0.42178
0.680626
0.909539
1.10273
1.25866
1.37931
1.4689
1.53261
1.57545
1.60149
1.61362
1.61369
1.60291
1.58235
1.55328
1.51741
1.4768
1.43368
1.39005
1.34744
1.30672
1.26809
1.23128
1.19584
1.16133
1.12755
1.09444
1.062
1.03004
0.998139
0.965614
0.931741
0.895916
0.857823
0.8175
0.775278
0.731634
0.686997
0.641578
0.59526
0.547606
0.497955
0.445585
0.389878
0.330451
0.267245
0.200551
0.130996
0.0595485
-0.0124655
-0.0833152
-0.150812
-0.212294
-0.264704
-0.304811
-0.329583
-0.336662
-0.324837
-0.294402
-0.247208
-0.18635
-0.115623
-0.0391455
0.165391
0.487227
0.783757
1.04276
1.25761
1.42732
1.5553
1.64765
1.71136
1.75284
1.77701
1.78699
1.78449
1.77041
1.74551
1.71099
1.66876
1.62132
1.57139
1.52149
1.47349
1.42831
1.38602
1.34604
1.30761
1.27013
1.23333
1.19728
1.16213
1.12777
1.09366
1.05891
1.02255
0.98374
0.942082
0.897674
0.851036
0.802885
0.753872
0.704335
0.654148
0.602721
0.54916
0.492485
0.431851
0.366722
0.296975
0.222904
0.145186
0.0648562
-0.016661
-0.097482
-0.175161
-0.246619
-0.308191
-0.355876
-0.385804
-0.394868
-0.381386
-0.345626
-0.289927
-0.218224
-0.135206
-0.0457361
0.190171
0.559172
0.896256
1.18648
1.42242
1.60402
1.73677
1.82918
1.89051
1.92888
1.95009
1.95739
1.95211
1.93458
1.90509
1.86467
1.81543
1.76043
1.70306
1.64649
1.59297
1.54353
1.49793
1.4552
1.41416
1.37393
1.33421
1.29529
1.2576
1.22114
1.18524
1.14874
1.11029
1.06879
1.02368
0.975177
0.924051
0.87135
0.818026
0.7646
0.71093
0.656229
0.599291
0.538812
0.473665
0.403129
0.327017
0.245644
0.159736
0.070386
-0.0209153
-0.112176
-0.20073
-0.283083
-0.354898
-0.41126
-0.447268
-0.458855
-0.44369
-0.401975
-0.336688
-0.252883
-0.156369
-0.0528329
0.217705
0.638767
1.01968
1.34228
1.5984
1.78952
1.92394
2.01328
2.06959
2.10303
2.12031
2.1246
2.11654
2.09561
2.0614
2.0146
1.95764
1.89425
1.82872
1.76499
1.70586
1.6524
1.60399
1.55902
1.51578
1.47301
1.43041
1.38862
1.34849
1.31023
1.27303
1.2353
1.19524
1.15134
1.10288
1.05019
0.994416
0.937041
0.879422
0.822324
0.765591
0.708165
0.648441
0.584706
0.515486
0.439844
0.35754
0.268939
0.174828
0.0763493
-0.0249819
-0.127127
-0.227263
-0.321501
-0.404773
-0.471091
-0.514289
-0.529078
-0.512238
-0.46382
-0.38766
-0.290317
-0.179036
-0.060396
0.248475
0.727297
1.15575
1.51182
1.78678
1.98445
2.11688
2.19954
2.24792
2.27456
2.28711
2.28833
2.27775
2.25372
2.21477
2.16113
2.09561
2.0229
1.94833
1.87689
1.81207
1.75496
1.70434
1.65778
1.61281
1.56771
1.52217
1.47735
1.43483
1.39511
1.35715
1.31881
1.27767
1.2317
1.17992
1.12288
1.06221
0.999947
0.937982
0.877423
0.818089
0.758554
0.696695
0.630303
0.557479
0.477028
0.388691
0.292933
0.190628
0.0829494
-0.0286033
-0.14203
-0.254444
-0.361615
-0.457693
-0.53544
-0.58715
-0.605998
-0.587541
-0.53153
-0.442944
-0.330419
-0.203043
-0.0683527
0.283027
0.826203
1.30633
1.69689
1.98879
2.1893
2.31544
2.38735
2.4246
2.44257
2.44982
2.44823
2.43573
2.40913
2.36559
2.30461
2.22958
2.14645
2.06182
1.98202
1.91145
1.8512
1.79917
1.75177
1.70564
1.65841
1.60971
1.56156
1.5166
1.4758
1.43772
1.39946
1.35788
1.3102
1.2551
1.19343
1.1275
1.06003
0.993596
0.929777
0.868359
0.807409
0.744134
0.675738
0.599808
0.514831
0.420592
0.317745
0.20727
0.090372
-0.0315206
-0.156552
-0.281903
-0.403095
-0.513468
-0.604322
-0.666103
-0.69009
-0.670158
-0.605481
-0.502573
-0.372962
-0.228127
-0.0765913
0.321985
0.93709
1.47348
1.89938
2.20559
2.40443
2.51935
2.57592
2.59853
2.60601
2.6077
2.60395
2.59044
2.56213
2.51432
2.44545
2.3598
2.26498
2.16911
2.08017
2.00383
1.94111
1.88865
1.84133
1.79471
1.74553
1.69328
1.64127
1.59374
1.55225
1.51481
1.47746
1.43615
1.38719
1.32869
1.26201
1.19034
1.11722
1.04611
0.979233
0.916322
0.854743
0.790836
0.721149
0.642638
0.55339
0.45334
0.343458
0.224862
0.098777
-0.033483
-0.17034
-0.309221
-0.445544
-0.571835
-0.677695
-0.751362
-0.781849
-0.760721
-0.686073
-0.566491
-0.417574
-0.253906
-0.084957
0.366067
1.06174
1.65946
2.12131
2.4383
2.63
2.72814
2.76426
2.76844
2.76368
2.75997
2.75518
2.74189
2.71306
2.66153
2.5841
2.48649
2.37858
2.27007
2.17106
2.08895
2.02466
1.973
1.92682
1.88049
1.82956
1.77315
1.71644
1.66607
1.62442
1.58851
1.55298
1.51283
1.46309
1.40102
1.32877
1.2508
1.17145
1.09534
1.0256
0.961885
0.900569
0.836876
0.766674
0.686149
0.592833
0.486995
0.370124
0.24347
0.10829
-0.0342572
-0.183031
-0.335932
-0.488492
-0.632465
-0.755456
-0.843089
-0.881787
-0.859967
-0.773757
-0.634541
-0.463717
-0.279866
-0.0932474
0.416107
1.20213
1.86667
2.36487
2.68793
2.86593
2.94122
2.95128
2.93285
2.91422
2.90581
2.90163
2.89008
2.86229
2.80791
2.72105
2.60987
2.48735
2.36456
2.25431
2.16649
2.10183
2.05249
2.0086
1.96351
1.91111
1.84959
1.78696
1.73337
1.69219
1.65891
1.62622
1.58823
1.53833
1.47239
1.39387
1.30891
1.22262
1.14105
1.06864
1.00495
0.944917
0.882323
0.812454
0.730538
0.633272
0.521579
0.397753
0.263124
0.118995
-0.0336359
-0.194259
-0.361534
-0.531402
-0.694965
-0.837447
-0.941371
-0.990426
-0.968785
-0.869057
-0.706442
-0.510653
-0.305349
-0.101211
0.473095
1.3604
2.09773
2.6324
2.95533
3.11186
3.15788
3.13575
3.09011
3.05616
3.04444
3.04314
3.035
3.01026
2.95431
2.85683
2.73011
2.59142
2.45243
2.3295
2.23607
2.17261
2.12742
2.08704
2.04436
1.99091
1.92291
1.85262
1.79527
1.75544
1.72613
1.6973
1.66271
1.61347
1.54313
1.4574
1.36475
1.27063
1.18297
1.10809
1.04542
0.987844
0.927234
0.858628
0.776034
0.674809
0.557065
0.426324
0.283811
0.130927
-0.0314465
-0.203665
-0.385488
-0.573667
-0.758885
-0.92346
-1.04619
-1.10828
-1.08827
-0.972614
-0.781751
-0.557412
-0.329547
-0.10855
0.538239
1.53887
2.35532
2.92652
3.24113
3.36701
3.37738
3.31641
3.23838
3.18788
3.17513
3.1797
3.17658
3.1574
3.10181
2.99196
2.84725
2.69099
2.53357
2.39607
2.29719
2.23698
2.19822
2.16248
2.12362
2.06985
1.99345
1.91307
1.85131
1.81403
1.79033
1.76633
1.73658
1.68915
1.61357
1.51942
1.41843
1.31538
1.22074
1.14363
1.0832
1.02946
0.97164
0.905325
0.822923
0.717532
0.593362
0.455788
0.305483
0.144067
-0.0275582
-0.210908
-0.40723
-0.614603
-0.823726
-1.01326
-1.15737
-1.23581
-1.21982
-1.08523
-0.85981
-0.602757
-0.351506
-0.114925
0.613077
1.73999
2.6422
3.25021
3.54564
3.6301
3.59908
3.49199
3.37561
3.30759
3.29723
3.31156
3.31463
3.30412
3.25184
3.12695
2.96118
2.7864
2.60787
2.45334
2.34925
2.295
2.26541
2.23514
2.20188
2.14908
2.06156
1.96781
1.90085
1.86781
1.85178
1.8333
1.81015
1.76618
1.68401
1.57986
1.4701
1.3568
1.25397
1.17485
1.11824
1.06993
1.01552
0.952652
0.871575
0.761504
0.630303
0.486082
0.328058
0.158335
-0.0218875
-0.215674
-0.426178
-0.653444
-0.888953
-1.10664
-1.27454
-1.37336
-1.36521
-1.20793
-0.939679
-0.645153
-0.370137
-0.119971
0.69965
1.9663
2.96102
3.60702
3.86873
3.89915
3.82259
3.6613
3.49953
3.41335
3.41027
3.43936
3.4487
3.45075
3.40629
3.26222
3.07149
2.8782
2.67529
2.50048
2.39149
2.34676
2.32978
2.30508
2.27967
2.23011
2.12765
2.01611
1.9431
1.91668
1.91092
1.89805
1.88366
1.84562
1.7547
1.63852
1.52006
1.39483
1.28218
1.20132
1.15051
1.10957
1.05877
1.00068
0.922498
0.806761
0.66761
0.517152
0.351428
0.173579
-0.0144002
-0.217691
-0.441749
-0.689324
-0.954008
-1.20344
-1.39701
-1.52106
-1.52677
-1.34203
-1.02002
-0.68274
-0.384255
-0.12331
0.800779
2.2203
3.31411
4.00135
4.20968
4.17122
4.04803
3.82328
3.60758
3.503
3.51391
3.5643
3.57792
3.5974
3.56776
3.39803
3.17733
2.96733
2.73587
2.53647
2.423
2.39242
2.3924
2.37207
2.35741
2.31491
2.1921
2.05697
1.97706
1.96055
1.96847
1.96018
1.95723
1.92891
1.82579
1.69494
1.56878
1.42947
1.30476
1.22248
1.18
1.14885
1.10116
1.04939
0.976399
0.85329
0.704862
0.548986
0.375464
0.18957
-0.00511042
-0.216735
-0.453373
-0.721256
-1.01831
-1.30371
-1.52372
-1.67865
-1.7076
-1.48924
-1.09895
-0.713314
-0.392623
-0.124583
0.920504
2.50439
3.70316
4.43899
4.56691
4.44211
4.27647
3.97703
3.69685
3.57412
3.60804
3.68843
3.70074
3.74385
3.73988
3.53435
3.27719
3.05527
2.78976
2.56001
2.44266
2.43223
2.45486
2.43541
2.43527
2.40616
2.2553
2.08906
2.00153
1.99943
2.02555
2.01893
2.0308
2.01803
1.8973
1.7483
1.61704
1.46075
1.321
1.2377
1.20679
1.18851
1.14221
1.09866
1.03429
0.900997
0.741439
0.581672
0.400026
0.205985
0.00592766
-0.212645
-0.460525
-0.748087
-1.08126
-1.40785
-1.65311
-1.84526
-1.91177
-1.65174
-1.17383
-0.734334
-0.394024
-0.123472
1.06472
2.82058
4.12873
4.92778
4.93775
4.70588
4.51038
4.12183
3.76401
3.62403
3.69267
3.815
3.81464
3.88934
3.92779
3.67068
3.36861
3.14441
2.83716
2.56954
2.4491
2.46647
2.51945
2.49374
2.51309
2.50749
2.31752
2.11066
2.01505
2.03335
2.08392
2.07298
2.10401
2.11574
1.96895
1.79729
1.66609
1.48876
1.33002
1.2462
1.23094
1.22969
1.18116
1.1482
1.09764
0.949667
0.776452
0.61547
0.424959
0.222389
0.0186353
-0.205332
-0.462762
-0.768457
-1.14221
-1.51683
-1.78296
-2.0191
-2.14476
-1.83232
-1.24099
-0.742962
-0.387353
-0.119737
1.24214
3.17028
4.58952
5.47862
5.31794
4.95426
4.75447
4.25704
3.8052
3.64969
3.76793
3.949
3.91562
4.03229
4.13872
3.80579
3.44781
3.23843
2.8783
2.56308
2.44069
2.49545
2.58954
2.54477
2.59014
2.6239
2.37881
2.11955
2.01595
2.06238
2.14626
2.12024
2.17606
2.22594
2.0401
1.83987
1.71787
1.51359
1.33072
1.24709
1.25258
1.27407
1.21678
1.19745
1.16852
0.99889
0.808651
0.650924
0.450087
0.238211
0.0329353
-0.19479
-0.459786
-0.780727
-1.20039
-1.63249
-1.91029
-2.197
-2.41386
-2.03447
-1.29534
-0.736151
-0.371724
-0.113245
1.46556
3.55388
5.08141
6.10687
5.70113
5.17594
5.01667
4.38194
3.81595
3.64777
3.83382
4.09789
3.99767
4.16999
4.38292
3.93743
3.50917
3.34291
2.91331
2.53827
2.41553
2.51937
2.66999
2.58485
2.66495
2.76218
2.43879
2.11301
2.0023
2.08652
2.21649
2.15752
2.24554
2.35412
2.10954
1.87303
1.77536
1.53527
1.3218
1.23933
1.27172
1.32414
1.24717
1.24548
1.24991
1.04796
0.836311
0.689005
0.475193
0.252713
0.0487907
-0.181095
-0.451519
-0.782902
-1.2548
-1.758
-2.03117
-2.37386
-2.72884
-2.26256
-1.3299
-0.710803
-0.346588
-0.103998
1.75373
3.9703
5.59618
6.83418
6.07812
5.35557
5.30943
4.4953
3.79105
3.61461
3.88993
4.27247
4.05205
4.29808
4.67465
4.06178
3.54469
3.46611
2.94195
2.49224
2.37143
2.5381
2.76778
2.60858
2.73497
2.9316
2.49637
2.08775
1.97202
2.10557
2.30037
2.18018
2.31017
2.50792
2.17523
1.89248
1.84293
1.55366
1.3017
1.22175
1.28827
1.38347
1.26959
1.29088
1.34601
1.09576
0.857081
0.731312
0.499978
0.26495
0.0662576
-0.164404
-0.438213
-0.772546
-1.30405
-1.89834
-2.14061
-2.54189
-3.10263
-2.52189
-1.33523
-0.664024
-0.311848
-0.0921485
2.13367
4.41626
6.1198
7.69091
6.43591
5.47266
5.65149
4.59481
3.72457
3.54637
3.93492
4.48817
4.06633
4.41002
5.03362
4.17296
3.5432
3.61995
2.96333
2.42163
2.30602
2.55092
2.89273
2.60818
2.79626
3.1447
2.54928
2.03991
1.92292
2.11884
2.40605
2.18163
2.36651
2.69789
2.23403
1.89222
1.92693
1.56823
1.26858
1.19312
1.30178
1.45711
1.28011
1.33157
1.4626
1.14054
0.867825
0.780313
0.523987
0.273722
0.0855541
-0.144945
-0.420584
-0.74669
-1.34607
-2.061
-2.23239
-2.68967
-3.55236
-2.81886
-1.29864
-0.593495
-0.267966
-0.0780051
2.64373
4.88552
6.63031
8.7191
6.75649
5.50019
6.06993
4.67619
3.60983
3.43922
3.96577
4.76652
4.02339
4.49636
5.48662
4.26221
3.48954
3.82128
2.97528
2.3226
2.21682
2.55603
3.05852
2.57286
2.84301
3.41826
2.59351
1.96515
1.85283
2.12478
2.54493
2.15276
2.40955
2.93835
2.28123
1.86414
2.03634
1.57781
1.22034
1.15212
1.31125
1.55212
1.27328
1.3646
1.60761
1.17973
0.864416
0.83966
0.546506
0.277528
0.107144
-0.122991
-0.399985
-0.701749
-1.37768
-2.25671
-2.29901
-2.801
-4.10041
-3.161
-1.20339
-0.497983
-0.216027
-0.0620182
3.33738
5.36787
7.09524
9.97623
7.0153
5.40306
6.60282
4.73188
3.43955
3.28963
3.97673
5.13708
3.90012
4.54396
6.06954
4.31701
3.36357
4.09344
2.97364
2.19094
2.10144
2.54987
3.28387
2.48799
2.86709
3.77452
2.62254
1.85878
1.75983
2.12045
2.73266
2.08129
2.43233
3.24848
2.31015
1.79746
2.18362
1.58014
1.15465
1.09756
1.31479
1.67811
1.24174
1.38594
1.79163
1.2096
0.841521
0.914567
0.566415
0.274509
0.131837
-0.0988207
-0.378602
-0.633467
-1.39418
-2.50041
-2.33163
-2.85353
-4.77585
-3.55701
-1.02764
-0.378017
-0.157755
-0.0447501
4.28783
5.84786
7.46851
11.5396
7.17941
5.13634
7.30224
4.74937
3.20609
3.09483
3.95796
5.63964
3.66596
4.53497
6.82963
4.32002
3.13904
4.46804
2.95123
2.02218
1.95785
2.52632
3.59395
2.33419
2.85746
4.24252
2.6263
1.71597
1.64248
2.10075
2.99031
1.95097
2.42536
3.65351
2.3115
1.67813
2.38565
1.57137
1.06907
1.02843
1.30915
1.84804
1.17569
1.3902
2.02868
1.22495
0.792364
1.01225
0.581983
0.262402
0.160896
-0.0726624
-0.359686
-0.536887
-1.38858
-2.81227
-2.3201
-2.81718
-5.61593
-4.0167
-0.74336
-0.236753
-0.095444
-0.026828
5.59332
6.30344
7.68693
13.5111
7.20535
4.64333
8.23784
4.70901
2.90189
2.85347
3.89373
6.32687
3.28133
4.44577
7.82808
4.24778
2.78243
4.98715
2.89658
1.81191
1.78476
2.47559
4.02205
2.08632
2.79953
4.85972
2.58999
1.53209
1.50021
2.05754
3.34574
1.74078
2.37609
4.18614
2.27273
1.48822
2.66487
1.54535
0.961139
0.944151
1.28916
2.07901
1.0624
1.3703
2.33691
1.21865
0.708478
1.14241
0.590621
0.238503
0.196154
-0.0446181
-0.347796
-0.40639
-1.35087
-3.21879
-2.25314
-2.65229
-6.66789
-4.55093
-0.315096
-0.0810138
-0.0317904
-0.00888582
)
;

boundaryField
{
    left
    {
        type            calculated;
        value           uniform 0;
    }
    right
    {
        type            calculated;
        value           uniform 0;
    }
    interface
    {
        type            calculated;
        value           nonuniform List<scalar> 
64
(
5.59332
6.30344
7.68693
13.5111
7.20535
4.64333
8.23784
4.70901
2.90189
2.85347
3.89373
6.32687
3.28133
4.44577
7.82808
4.24778
2.78243
4.98715
2.89658
1.81191
1.78476
2.47559
4.02205
2.08632
2.79953
4.85972
2.58999
1.53209
1.50021
2.05754
3.34574
1.74078
2.37609
4.18614
2.27273
1.48822
2.66487
1.54535
0.961139
0.944151
1.28916
2.07901
1.0624
1.3703
2.33691
1.21865
0.708478
1.14241
0.590621
0.238503
0.196154
-0.0446181
-0.347796
-0.40639
-1.35087
-3.21879
-2.25314
-2.65229
-6.66789
-4.55093
-0.315096
-0.0810138
-0.0317904
-0.00888582
)
;
    }
    bottom
    {
        type            calculated;
        value           nonuniform List<scalar> 
64
(
0.00772002
0.0229242
0.0374421
0.0508869
0.062965
0.0734909
0.082385
0.0896591
0.0953943
0.0997153
0.102768
0.104705
0.10567
0.105801
0.105226
0.104066
0.102435
0.100444
0.0981919
0.0957695
0.093251
0.0906941
0.0881393
0.0856111
0.0831214
0.0806725
0.0782598
0.0758738
0.0735013
0.0711255
0.0687272
0.0662858
0.0637817
0.0611979
0.0585221
0.0557465
0.0528677
0.0498846
0.0467958
0.0435976
0.040283
0.0368418
0.0332622
0.0295344
0.0256538
0.0216251
0.017466
0.0132098
0.00890738
0.00462814
0.000459685
-0.00349372
-0.00711462
-0.0102779
-0.0128589
-0.0147429
-0.0158372
-0.0160814
-0.0154567
-0.0139916
-0.0117627
-0.00889098
-0.00553418
-0.00187815
)
;
    }
    defaultFaces
    {
        type            empty;
    }
}


// ************************************************************************* //
