/*--------------------------------*- C++ -*----------------------------------*\
| =========                 |                                                 |
| \\      /  F ield         | OpenFOAM: The Open Source CFD Toolbox           |
|  \\    /   O peration     | Version:  5.x                                   |
|   \\  /    A nd           | Web:      www.OpenFOAM.org                      |
|    \\/     M anipulation  |                                                 |
\*---------------------------------------------------------------------------*/
FoamFile
{
    version     2.0;
    format      ascii;
    class       volScalarField;
    location    "2.9001";
    object      gradTy;
}
// * * * * * * * * * * * * * * * * * * * * * * * * * * * * * * * * * * * * * //

dimensions      [0 -1 0 1 0 0 0];

internalField   nonuniform List<scalar> 
2048
(
-27.5092
-27.4754
-27.4087
-27.3112
-27.1857
-27.0354
-26.8638
-26.6747
-26.4715
-26.2574
-26.0354
-25.8081
-25.5777
-25.3461
-25.1151
-24.886
-24.6599
-24.4378
-24.2204
-24.008
-23.8009
-23.5993
-23.4031
-23.2124
-23.027
-22.8469
-22.6718
-22.5019
-22.3369
-22.1769
-22.0219
-21.872
-21.7273
-21.5879
-21.454
-21.3259
-21.2037
-21.0877
-20.9782
-20.8753
-20.7792
-20.6904
-20.609
-20.5353
-20.4697
-20.4127
-20.3644
-20.3252
-20.2953
-20.2747
-20.2634
-20.2611
-20.2672
-20.2809
-20.3012
-20.3267
-20.3558
-20.3868
-20.4179
-20.4472
-20.4731
-20.4939
-20.5085
-20.516
-27.5366
-27.5019
-27.4336
-27.3339
-27.2057
-27.0525
-26.8781
-26.6861
-26.4803
-26.2639
-26.0398
-25.8106
-25.5786
-25.3457
-25.1135
-24.8835
-24.6567
-24.4341
-24.2163
-24.0036
-23.7965
-23.5949
-23.3988
-23.2081
-23.0228
-22.8427
-22.6678
-22.4978
-22.3329
-22.1729
-22.0178
-21.8678
-21.7229
-21.5834
-21.4493
-21.321
-21.1987
-21.0825
-20.9728
-20.8697
-20.7734
-20.6843
-20.6026
-20.5287
-20.4629
-20.4055
-20.357
-20.3177
-20.2877
-20.2672
-20.2562
-20.2543
-20.261
-20.2756
-20.2969
-20.3237
-20.3542
-20.3867
-20.4193
-20.45
-20.4771
-20.4989
-20.5141
-20.522
-27.589
-27.5527
-27.4812
-27.3772
-27.2438
-27.085
-26.9049
-26.7076
-26.4967
-26.2758
-26.0477
-25.8151
-25.5801
-25.3447
-25.1104
-24.8786
-24.6505
-24.4269
-24.2084
-23.9954
-23.7881
-23.5864
-23.3904
-23.1999
-23.0148
-22.8349
-22.66
-22.4902
-22.3252
-22.1652
-22.0101
-21.8599
-21.7148
-21.5749
-21.4405
-21.3119
-21.1892
-21.0727
-20.9626
-20.8591
-20.7625
-20.6729
-20.5907
-20.5162
-20.4499
-20.392
-20.343
-20.3033
-20.2732
-20.2529
-20.2422
-20.2411
-20.2491
-20.2653
-20.2887
-20.3179
-20.3512
-20.3865
-20.422
-20.4554
-20.4848
-20.5085
-20.5251
-20.5337
-27.6644
-27.6255
-27.5493
-27.4388
-27.2978
-27.1308
-26.9425
-26.7374
-26.5194
-26.2922
-26.0585
-25.8211
-25.582
-25.343
-25.1057
-24.8715
-24.6415
-24.4165
-24.1971
-23.9836
-23.7761
-23.5745
-23.3787
-23.1884
-23.0035
-22.8238
-22.6492
-22.4794
-22.3146
-22.1545
-21.9992
-21.8488
-21.7033
-21.563
-21.4281
-21.299
-21.1758
-21.0588
-20.9482
-20.8443
-20.7471
-20.6569
-20.574
-20.4987
-20.4315
-20.3728
-20.3231
-20.2829
-20.2526
-20.2324
-20.2223
-20.2223
-20.232
-20.2505
-20.2769
-20.3096
-20.3467
-20.3863
-20.4259
-20.4633
-20.4961
-20.5226
-20.5411
-20.5507
-27.7609
-27.7187
-27.6362
-27.517
-27.3659
-27.1881
-26.9892
-26.7741
-26.5471
-26.3118
-26.0713
-25.8279
-25.5836
-25.3402
-25.0993
-24.862
-24.6297
-24.403
-24.1825
-23.9685
-23.7608
-23.5594
-23.3639
-23.174
-22.9894
-22.81
-22.6356
-22.4661
-22.3013
-22.1412
-21.9857
-21.835
-21.689
-21.5482
-21.4127
-21.2829
-21.1591
-21.0415
-20.9303
-20.8257
-20.7279
-20.6369
-20.5531
-20.4768
-20.4085
-20.3488
-20.2981
-20.2572
-20.2265
-20.2063
-20.1969
-20.1982
-20.2099
-20.2314
-20.2615
-20.2987
-20.3409
-20.3859
-20.431
-20.4736
-20.511
-20.5411
-20.5621
-20.5729
-27.8777
-27.8311
-27.7405
-27.6102
-27.4463
-27.2552
-27.0432
-26.816
-26.5783
-26.3337
-26.0852
-25.8349
-25.5847
-25.3362
-25.0909
-24.8502
-24.6151
-24.3865
-24.1648
-23.9503
-23.7427
-23.5415
-23.3465
-23.1571
-22.973
-22.794
-22.6199
-22.4506
-22.2859
-22.1258
-21.9701
-21.819
-21.6724
-21.5308
-21.3946
-21.264
-21.1394
-21.0212
-20.9094
-20.8041
-20.7055
-20.6136
-20.5287
-20.4512
-20.3816
-20.3205
-20.2686
-20.2267
-20.1953
-20.1751
-20.1663
-20.169
-20.1832
-20.2081
-20.2427
-20.2853
-20.3338
-20.3855
-20.4374
-20.4863
-20.5293
-20.5639
-20.588
-20.6004
-28.0139
-27.9619
-27.8611
-27.7172
-27.5377
-27.3304
-27.103
-26.8617
-26.6118
-26.3568
-26.0994
-25.8416
-25.5849
-25.3307
-25.0806
-24.8358
-24.5977
-24.367
-24.1442
-23.9293
-23.7218
-23.5213
-23.3269
-23.1381
-22.9546
-22.776
-22.6023
-22.4333
-22.2688
-22.1087
-21.9528
-21.8012
-21.6539
-21.5115
-21.3742
-21.2427
-21.1173
-20.9983
-20.8859
-20.78
-20.6805
-20.5877
-20.5015
-20.4225
-20.3513
-20.2885
-20.2351
-20.1919
-20.1597
-20.1392
-20.1309
-20.1351
-20.1519
-20.1806
-20.2204
-20.2694
-20.3253
-20.385
-20.445
-20.5016
-20.5513
-20.5912
-20.6189
-20.6332
-28.1693
-28.1105
-27.9973
-27.8368
-27.6385
-27.4121
-27.1668
-26.9097
-26.6462
-26.38
-26.1132
-25.8474
-25.5838
-25.3235
-25.0681
-24.8189
-24.5775
-24.3446
-24.1207
-23.9056
-23.6986
-23.4989
-23.3054
-23.1174
-22.9345
-22.7565
-22.5832
-22.4145
-22.2503
-22.0903
-21.9342
-21.7821
-21.634
-21.4904
-21.352
-21.2194
-21.093
-20.9733
-20.8602
-20.7537
-20.6535
-20.5596
-20.472
-20.3913
-20.3182
-20.2534
-20.1981
-20.1532
-20.1199
-20.0989
-20.091
-20.0967
-20.1161
-20.1491
-20.1945
-20.2508
-20.3152
-20.3843
-20.4538
-20.5195
-20.5771
-20.6231
-20.655
-20.6713
-28.3437
-28.2768
-28.1483
-27.9678
-27.7472
-27.4987
-27.233
-26.9583
-26.6804
-26.4024
-26.1261
-25.8521
-25.5812
-25.3145
-25.0533
-24.7994
-24.5543
-24.3192
-24.0943
-23.8793
-23.6732
-23.4747
-23.2824
-23.0954
-22.9132
-22.7357
-22.5628
-22.3946
-22.2308
-22.071
-21.9147
-21.7619
-21.6128
-21.468
-21.3282
-21.1943
-21.0669
-20.9464
-20.8328
-20.7257
-20.6248
-20.5298
-20.4408
-20.3582
-20.2828
-20.2156
-20.158
-20.1112
-20.0763
-20.0545
-20.0468
-20.0538
-20.076
-20.1133
-20.165
-20.2294
-20.3035
-20.3834
-20.464
-20.5401
-20.6067
-20.6597
-20.6963
-20.715
-28.5376
-28.4606
-28.3137
-28.1093
-27.8625
-27.5885
-27.3
-27.0063
-26.7131
-26.4233
-26.1374
-25.8553
-25.5771
-25.3036
-25.0363
-24.7772
-24.5282
-24.2907
-24.0651
-23.8506
-23.6459
-23.449
-23.2582
-23.0724
-22.8909
-22.7139
-22.5415
-22.3738
-22.2105
-22.051
-21.8946
-21.7412
-21.5909
-21.4444
-21.303
-21.1676
-21.0391
-20.918
-20.8039
-20.6965
-20.595
-20.4989
-20.4083
-20.3235
-20.2455
-20.1756
-20.1153
-20.0661
-20.0294
-20.0065
-19.9985
-20.0066
-20.0314
-20.0733
-20.1317
-20.205
-20.29
-20.3821
-20.4755
-20.5637
-20.6405
-20.7013
-20.7431
-20.7643
-28.7514
-28.6623
-28.4932
-28.2603
-27.9829
-27.6798
-27.366
-27.0519
-26.7433
-26.4418
-26.1468
-25.8569
-25.5715
-25.2909
-25.017
-24.7521
-24.499
-24.2591
-24.033
-23.8196
-23.6168
-23.4222
-23.2333
-23.0487
-22.868
-22.6914
-22.5194
-22.3523
-22.1897
-22.0307
-21.8744
-21.7202
-21.5684
-21.4201
-21.2766
-21.1395
-21.0099
-20.8881
-20.7738
-20.6663
-20.5644
-20.4674
-20.3751
-20.2879
-20.2069
-20.1338
-20.0704
-20.0183
-19.9794
-19.9549
-19.9465
-19.9553
-19.9825
-20.0289
-20.0943
-20.1772
-20.2744
-20.3805
-20.4884
-20.5903
-20.6788
-20.7481
-20.7954
-20.8191
-28.9859
-28.882
-28.6864
-28.4197
-28.1068
-27.7707
-27.4292
-27.0938
-26.7697
-26.4573
-26.154
-25.8569
-25.5644
-25.2765
-24.9954
-24.7243
-24.4665
-24.2243
-23.998
-23.7863
-23.5863
-23.3945
-23.2079
-23.0248
-22.8447
-22.6682
-22.4965
-22.3301
-22.1686
-22.0104
-21.8542
-21.6993
-21.5458
-21.3952
-21.2493
-21.1102
-20.9793
-20.8569
-20.7428
-20.6355
-20.5335
-20.4356
-20.3415
-20.2516
-20.1673
-20.0906
-20.0235
-19.9682
-19.9266
-19.9002
-19.8908
-19.8999
-19.9292
-19.9799
-20.0526
-20.1459
-20.2565
-20.3782
-20.5028
-20.6203
-20.7217
-20.8003
-20.8532
-20.8796
-29.2422
-29.1205
-28.893
-28.5865
-28.2324
-27.8593
-27.4879
-27.1303
-26.7913
-26.4693
-26.1591
-25.8556
-25.5562
-25.2607
-24.9717
-24.6935
-24.4307
-24.1861
-23.96
-23.7509
-23.5546
-23.3665
-23.1826
-23.001
-22.8213
-22.6447
-22.473
-22.3075
-22.1473
-21.9904
-21.8346
-21.6788
-21.5233
-21.3698
-21.221
-21.0796
-20.9473
-20.8246
-20.7109
-20.6044
-20.5027
-20.4041
-20.3081
-20.2152
-20.1271
-20.0462
-19.975
-19.9161
-19.8714
-19.8427
-19.8319
-19.8408
-19.8716
-19.9264
-20.0063
-20.1106
-20.2359
-20.3752
-20.5186
-20.654
-20.7697
-20.8581
-20.9167
-20.9456
-29.5217
-29.3784
-29.1129
-28.7594
-28.3579
-27.9437
-27.5401
-27.16
-26.8073
-26.4775
-26.162
-25.8531
-25.5472
-25.2438
-24.9459
-24.6597
-24.3914
-24.1443
-23.919
-23.7133
-23.522
-23.3385
-23.1578
-22.9776
-22.798
-22.6207
-22.4488
-22.2843
-22.1261
-21.971
-21.8158
-21.659
-21.5013
-21.3443
-21.1919
-21.0478
-20.914
-20.7912
-20.6785
-20.5732
-20.4723
-20.3732
-20.2752
-20.1791
-20.0866
-20.0009
-19.9252
-19.8622
-19.814
-19.7826
-19.7699
-19.778
-19.8097
-19.868
-19.9551
-20.071
-20.2122
-20.3711
-20.536
-20.6917
-20.8232
-20.9218
-20.9858
-21.0168
-29.8258
-29.6566
-29.3459
-28.9372
-28.4813
-28.0217
-27.584
-27.1814
-26.8167
-26.4816
-26.1631
-25.8501
-25.5378
-25.2262
-24.9183
-24.6228
-24.3483
-24.0987
-23.8747
-23.6737
-23.4887
-23.311
-23.1339
-22.9551
-22.7752
-22.5964
-22.4237
-22.2605
-22.105
-21.9524
-21.7981
-21.6405
-21.4799
-21.3187
-21.1619
-21.0146
-20.8793
-20.7566
-20.6455
-20.5423
-20.4427
-20.3433
-20.2433
-20.1435
-20.0462
-19.955
-19.8743
-19.8068
-19.7548
-19.7203
-19.7052
-19.7119
-19.7437
-19.8047
-19.8986
-20.0265
-20.1849
-20.3655
-20.555
-20.734
-20.8829
-20.9917
-21.0603
-21.0929
-30.1566
-29.956
-29.5919
-29.1183
-28.6003
-28.0911
-27.6177
-27.193
-26.8187
-26.4815
-26.1628
-25.8469
-25.5288
-25.2085
-24.889
-24.5825
-24.3012
-24.0491
-23.8268
-23.632
-23.4551
-23.2846
-23.1114
-22.9338
-22.753
-22.5717
-22.3975
-22.2359
-22.0841
-21.9351
-21.782
-21.6234
-21.4596
-21.2932
-21.1309
-20.9801
-20.8432
-20.7209
-20.6121
-20.5119
-20.4143
-20.3148
-20.2127
-20.109
-20.006
-19.9087
-19.8225
-19.7502
-19.694
-19.6561
-19.6381
-19.6427
-19.6736
-19.7365
-19.8366
-19.9768
-20.1536
-20.3581
-20.5756
-20.7815
-20.9493
-21.0679
-21.14
-21.1734
-30.5161
-30.2776
-29.8507
-29.3012
-28.7122
-28.1498
-27.6394
-27.1932
-26.8127
-26.4775
-26.1619
-25.8443
-25.5206
-25.1913
-24.8581
-24.5385
-24.2499
-23.9952
-23.7752
-23.5883
-23.4217
-23.2598
-23.0909
-22.9142
-22.7319
-22.5466
-22.3697
-22.2102
-22.0635
-21.9193
-21.7679
-21.6081
-21.4409
-21.2678
-21.0989
-20.9441
-20.8055
-20.6837
-20.5782
-20.4823
-20.3876
-20.2882
-20.1837
-20.0758
-19.9663
-19.862
-19.7699
-19.6925
-19.6319
-19.5903
-19.5691
-19.5707
-19.5997
-19.6631
-19.7687
-19.9213
-20.1177
-20.3482
-20.5979
-20.835
-21.0234
-21.1507
-21.2246
-21.2576
-30.9069
-30.6223
-30.1224
-29.484
-28.8141
-28.1957
-27.6476
-27.1806
-26.798
-26.4699
-26.1614
-25.8431
-25.5138
-25.1756
-24.826
-24.4903
-24.1942
-23.9367
-23.7193
-23.5426
-23.3887
-23.2375
-23.0728
-22.8965
-22.7123
-22.521
-22.3397
-22.1832
-22.0434
-21.9056
-21.756
-21.5949
-21.424
-21.2427
-21.0654
-20.9066
-20.766
-20.645
-20.544
-20.4536
-20.3631
-20.2636
-20.1566
-20.0443
-19.9272
-19.8149
-19.7168
-19.6341
-19.5687
-19.5234
-19.4986
-19.4965
-19.5222
-19.5846
-19.6944
-19.8596
-20.0766
-20.335
-20.6215
-20.8958
-21.1063
-21.2405
-21.3136
-21.3445
-31.332
-30.9909
-30.4072
-29.6645
-28.9023
-28.227
-27.6407
-27.1532
-26.774
-26.459
-26.1626
-25.8438
-25.509
-25.1626
-24.7927
-24.4371
-24.134
-23.8736
-23.6585
-23.4947
-23.3567
-23.2186
-23.0576
-22.881
-22.6948
-22.4947
-22.3066
-22.1543
-22.0238
-21.8946
-21.7467
-21.584
-21.4098
-21.218
-21.0301
-20.8673
-20.7248
-20.6043
-20.5093
-20.4263
-20.3411
-20.2416
-20.1317
-20.0151
-19.8891
-19.7672
-19.6631
-19.575
-19.5047
-19.4557
-19.4271
-19.4205
-19.4415
-19.501
-19.6134
-19.7913
-20.0298
-20.3172
-20.6464
-20.9655
-21.1992
-21.3373
-21.4062
-21.4333
-31.7947
-31.3833
-30.7057
-29.8404
-28.9723
-28.2423
-27.6179
-27.1093
-26.7406
-26.4455
-26.1674
-25.8472
-25.5063
-25.1541
-24.7585
-24.3775
-24.0693
-23.8058
-23.5919
-23.4446
-23.326
-23.2043
-23.0456
-22.8677
-22.6804
-22.4675
-22.2691
-22.1231
-22.0048
-21.8873
-21.7402
-21.5756
-21.3991
-21.1938
-20.9921
-20.8265
-20.6818
-20.5612
-20.4742
-20.4004
-20.3225
-20.2221
-20.109
-19.9886
-19.8519
-19.7188
-19.6091
-19.5156
-19.4399
-19.3876
-19.355
-19.3433
-19.3579
-19.4123
-19.5251
-19.7159
-19.977
-20.2933
-20.6718
-21.046
-21.3038
-21.4413
-21.5017
-21.5227
-32.2991
-31.7988
-31.0195
-30.009
-29.0187
-28.241
-27.5786
-27.0462
-26.6974
-26.4299
-26.1784
-25.8536
-25.5054
-25.1524
-24.7236
-24.3096
-24.0007
-23.7334
-23.5182
-23.3924
-23.2972
-23.1961
-23.0371
-22.8564
-22.6705
-22.4393
-22.2253
-22.0891
-21.9864
-21.8846
-21.7366
-21.5693
-21.3931
-21.1701
-20.9505
-20.7842
-20.6369
-20.5149
-20.4387
-20.3763
-20.308
-20.2054
-20.0883
-19.9658
-19.8157
-19.6689
-19.555
-19.4561
-19.3743
-19.3195
-19.2828
-19.2654
-19.2719
-19.3186
-19.4289
-19.6332
-19.9181
-20.2612
-20.6968
-21.1405
-21.4219
-21.5523
-21.599
-21.6113
-32.8504
-32.2348
-31.3514
-30.1676
-29.0338
-28.2239
-27.523
-26.9607
-26.645
-26.4129
-26.1988
-25.8629
-25.5052
-25.1611
-24.6882
-24.2303
-23.9294
-23.657
-23.4355
-23.3382
-23.2705
-23.1963
-23.032
-22.8463
-22.6672
-22.4099
-22.1728
-22.0519
-21.9688
-21.8884
-21.7358
-21.5646
-21.3938
-21.1469
-20.9033
-20.7411
-20.5906
-20.4643
-20.4028
-20.3541
-20.2989
-20.1915
-20.0693
-19.9477
-19.7807
-19.6166
-19.5013
-19.3969
-19.308
-19.2518
-19.2112
-19.1876
-19.1841
-19.2202
-19.324
-19.543
-19.8537
-20.2177
-20.7196
-21.2532
-21.5557
-21.67
-21.6968
-21.6978
-33.4552
-32.6857
-31.7066
-30.313
-29.0076
-28.1936
-27.4523
-26.8479
-26.5842
-26.3943
-26.2336
-25.8746
-25.5034
-25.1856
-24.6525
-24.1348
-23.8575
-23.5775
-23.3408
-23.2826
-23.2457
-23.2077
-23.0297
-22.8359
-22.6738
-22.3793
-22.108
-22.0116
-21.9516
-21.9011
-21.7375
-21.56
-21.404
-21.1243
-20.8479
-20.6984
-20.5432
-20.4078
-20.3667
-20.3337
-20.2967
-20.18
-20.0511
-19.9361
-19.7469
-19.5605
-19.4484
-19.3382
-19.2404
-19.185
-19.1405
-19.1107
-19.095
-19.1175
-19.2091
-19.4451
-19.7854
-20.1587
-20.7374
-21.39
-21.7072
-21.7936
-21.7936
-21.7807
-34.1221
-33.1413
-32.0939
-30.442
-28.9262
-28.1562
-27.3689
-26.7008
-26.5176
-26.3732
-26.2896
-25.8872
-25.4956
-25.2336
-24.6165
-24.0158
-23.7889
-23.4964
-23.2297
-23.227
-23.2222
-23.2347
-23.0295
-22.8223
-22.6953
-22.3474
-22.0259
-21.9689
-21.9341
-21.9262
-21.7406
-21.5533
-21.4278
-21.1024
-20.7805
-20.6582
-20.4955
-20.343
-20.3314
-20.3146
-20.3038
-20.1705
-20.0322
-19.9335
-19.7142
-19.4984
-19.3976
-19.2806
-19.1708
-19.1199
-19.0712
-19.0354
-19.0055
-19.0113
-19.0826
-19.3394
-19.7162
-20.0788
-20.746
-21.5592
-21.8787
-21.9217
-21.8877
-21.8585
-34.8631
-33.5845
-32.5276
-30.5511
-28.7702
-28.1218
-27.2764
-26.5093
-26.4496
-26.3467
-26.3766
-25.8982
-25.4746
-25.3167
-24.5804
-23.863
-23.7301
-23.416
-23.0958
-23.1739
-23.1979
-23.2833
-23.0294
-22.801
-22.7389
-22.3141
-21.9198
-21.9255
-21.9146
-21.9688
-21.7439
-21.5404
-21.4716
-21.081
-20.695
-20.6239
-20.4489
-20.2662
-20.298
-20.2958
-20.3233
-20.1619
-20.0099
-19.9436
-19.6826
-19.4269
-19.3507
-19.2248
-19.0981
-19.0574
-19.0036
-18.9628
-18.9161
-18.9028
-18.9422
-19.2256
-19.6513
-19.9704
-20.739
-21.7728
-22.0718
-22.0525
-21.9772
-21.9297
-35.6946
-33.9877
-33.0306
-30.6366
-28.5124
-28.1076
-27.1803
-26.2583
-26.3885
-26.3088
-26.5084
-25.9036
-25.4293
-25.4516
-24.544
-23.6607
-23.691
-23.3397
-22.9296
-23.1283
-23.1689
-23.3623
-23.0271
-22.7648
-22.8154
-22.2793
-21.7799
-21.8856
-21.8897
-22.0363
-21.745
-21.5152
-21.5443
-21.0601
-20.5832
-20.601
-20.4049
-20.1722
-20.2694
-20.275
-20.3601
-20.1529
-19.9805
-19.9719
-19.6518
-19.3413
-19.3105
-19.1715
-19.0203
-18.9988
-18.9377
-18.8939
-18.8273
-18.7939
-18.7844
-19.1032
-19.5992
-19.8236
-20.707
-22.0475
-22.2873
-22.1829
-22.0602
-21.9933
-36.6399
-34.3083
-33.6374
-30.6946
-28.1152
-28.1394
-27.0877
-25.9259
-26.3483
-26.2481
-26.705
-25.8973
-25.3425
-25.662
-24.5071
-23.3873
-23.687
-23.2718
-22.7173
-23.0984
-23.1278
-23.4841
-23.0184
-22.7028
-22.9399
-22.2428
-21.593
-21.8562
-21.8535
-22.1392
-21.7407
-21.4685
-21.6588
-21.0395
-20.4329
-20.5977
-20.3661
-20.0534
-20.2499
-20.2482
-20.421
-20.1412
-19.938
-20.0262
-19.6215
-19.235
-19.2815
-19.1216
-18.9346
-18.9462
-18.8731
-18.83
-18.7394
-18.6875
-18.6046
-18.9704
-19.5731
-19.6254
-20.6363
-22.4067
-22.5237
-22.3094
-22.1346
-22.0483
-37.7311
-34.4825
-34.3997
-30.7208
-27.5265
-28.2556
-27.0078
-25.4811
-26.3513
-26.1457
-26.9943
-25.8711
-25.1896
-25.9813
-24.4689
-23.0121
-23.7402
-23.2179
-22.4393
-23.0977
-23.0625
-23.6666
-22.9982
-22.5993
-23.1338
-22.2041
-21.3411
-21.8492
-21.7959
-22.2925
-21.7265
-21.3869
-21.8331
-21.0188
-20.2273
-20.6263
-20.3354
-19.8989
-20.2471
-20.2086
-20.5154
-20.1239
-19.8741
-20.1177
-19.5911
-19.0986
-19.2702
-19.076
-18.8367
-18.9026
-18.8089
-18.7727
-18.6523
-18.5882
-18.3966
-18.8245
-19.592
-19.3589
-20.5079
-22.8827
-22.7766
-22.4272
-22.1986
-22.0938
-39.0132
-34.4179
-35.3921
-30.7103
-26.6758
-28.5112
-26.9517
-24.88
-26.4327
-25.9707
-27.4154
-25.8138
-24.9356
-26.4556
-24.4284
-22.493
-23.8826
-23.1851
-22.0681
-23.1478
-22.9534
-23.9343
-22.9592
-22.432
-23.4265
-22.1622
-20.9996
-21.8834
-21.7007
-22.5169
-21.6964
-21.2514
-22.0922
-20.9973
-19.9434
-20.7041
-20.3167
-19.6937
-20.2726
-20.1456
-20.6569
-20.097
-19.7768
-20.2616
-19.5596
-18.9194
-19.2862
-19.0357
-18.7206
-18.8727
-18.7434
-18.724
-18.5649
-18.5024
-18.1522
-18.66
-19.6831
-19.0026
-20.2954
-23.5199
-23.0366
-22.5311
-22.2507
-22.1297
-40.5479
-33.9837
-36.72
-30.6568
-25.4685
-28.9828
-26.9324
-24.062
-26.6451
-25.676
-28.0224
-25.7105
-24.5321
-27.1469
-24.3835
-21.7738
-24.1584
-23.1819
-21.5658
-23.2807
-22.7706
-24.3214
-22.8919
-22.1702
-23.8578
-22.1153
-20.5358
-21.9874
-21.5429
-22.8412
-21.6425
-21.0357
-22.4697
-20.974
-19.5503
-20.8553
-20.3146
-19.4168
-20.3442
-20.0427
-20.864
-20.0552
-19.6299
-20.4787
-19.5252
-18.6806
-19.3428
-19.0015
-18.5784
-18.8628
-18.6733
-18.6867
-18.4748
-18.4396
-17.8608
-18.4681
-19.8843
-18.5294
-19.9626
-24.378
-23.2873
-22.6153
-22.2898
-22.1557
-42.4184
-32.9991
-38.5293
-30.5518
-23.7802
-29.7744
-26.9641
-22.9454
-27.0655
-25.1914
-28.8884
-25.5423
-23.9138
-28.1378
-24.3311
-20.7796
-24.6281
-23.2181
-20.8813
-23.5439
-22.4697
-24.8743
-22.7842
-21.7721
-24.4806
-22.0605
-19.9063
-22.2027
-21.2854
-23.3045
-21.5546
-20.7044
-23.0104
-20.9473
-19.007
-21.113
-20.3346
-19.0402
-20.4877
-19.8757
-21.162
-19.9918
-19.4114
-20.7969
-19.4858
-18.3598
-19.4584
-18.9738
-18.3989
-18.8823
-18.594
-18.665
-18.3779
-18.4126
-17.5093
-18.2351
-20.2464
-17.9056
-19.4616
-25.5363
-23.5018
-22.6746
-22.3154
-22.1724
-44.7358
-31.2201
-41.0166
-30.3836
-21.4492
-31.0248
-27.0623
-21.4211
-27.8028
-24.4162
-30.1114
-25.285
-22.9944
-29.5358
-24.2667
-19.4136
-25.3718
-23.3045
-19.9461
-24.0046
-21.9871
-25.655
-22.6205
-21.1827
-25.3636
-21.9929
-19.0543
-22.5881
-20.8745
-23.9585
-21.4198
-20.2102
-23.7721
-20.9143
-18.2597
-21.5204
-20.3818
-18.5254
-20.7395
-19.6089
-21.5838
-19.8971
-19.0911
-21.2513
-19.4363
-17.9267
-19.6562
-18.9508
-18.1662
-18.9425
-18.4961
-18.6623
-18.2652
-18.4371
-17.0793
-17.9376
-20.8335
-17.0871
-18.7258
-27.0953
-23.6363
-22.7013
-22.3241
-22.1766
)
;

boundaryField
{
    left
    {
        type            calculated;
        value           nonuniform List<scalar> 
32
(
-27.5092
-27.5366
-27.589
-27.6644
-27.7609
-27.8777
-28.0139
-28.1693
-28.3437
-28.5376
-28.7514
-28.9859
-29.2422
-29.5217
-29.8258
-30.1566
-30.5161
-30.9069
-31.332
-31.7947
-32.2991
-32.8504
-33.4552
-34.1221
-34.8631
-35.6946
-36.6399
-37.7311
-39.0132
-40.5479
-42.4184
-44.7358
)
;
    }
    right
    {
        type            calculated;
        value           nonuniform List<scalar> 
32
(
-20.516
-20.522
-20.5337
-20.5507
-20.5729
-20.6004
-20.6332
-20.6713
-20.715
-20.7643
-20.8191
-20.8796
-20.9456
-21.0168
-21.0929
-21.1734
-21.2576
-21.3445
-21.4333
-21.5227
-21.6113
-21.6978
-21.7807
-21.8585
-21.9297
-21.9933
-22.0483
-22.0938
-22.1297
-22.1557
-22.1724
-22.1766
)
;
    }
    interface
    {
        type            calculated;
        value           nonuniform List<scalar> 
64
(
-46.0221
-30.0971
-42.458
-30.282
-20.1004
-31.7844
-27.1299
-20.5414
-28.2666
-23.9412
-30.8262
-25.1307
-22.4472
-30.3517
-24.2307
-18.624
-25.8235
-23.3617
-19.4061
-24.2941
-21.6911
-26.111
-22.5225
-20.8323
-25.8798
-21.9552
-18.5646
-22.8318
-20.6227
-24.3405
-21.3387
-19.9156
-24.2163
-20.8958
-17.8275
-21.7676
-20.4129
-18.2279
-20.8976
-19.4452
-21.8303
-19.8404
-18.9011
-21.5174
-19.4083
-17.6776
-19.7787
-18.94
-18.034
-18.9841
-18.4409
-18.666
-18.2032
-18.4641
-16.8419
-17.769
-21.1922
-16.6229
-18.2895
-27.9888
-23.6766
-22.7053
-22.3233
-22.1748
)
;
    }
    bottom
    {
        type            calculated;
        value           nonuniform List<scalar> 
64
(
-27.5021
-27.4685
-27.4022
-27.3053
-27.1804
-27.0309
-26.8601
-26.6717
-26.4692
-26.2558
-26.0343
-25.8074
-25.5774
-25.3462
-25.1155
-24.8866
-24.6607
-24.4388
-24.2214
-24.0091
-23.802
-23.6004
-23.4043
-23.2136
-23.0281
-22.848
-22.6729
-22.5029
-22.338
-22.178
-22.023
-21.8731
-21.7284
-21.589
-21.4552
-21.3271
-21.205
-21.0891
-20.9796
-20.8767
-20.7808
-20.692
-20.6106
-20.537
-20.4715
-20.4145
-20.3663
-20.3272
-20.2973
-20.2767
-20.2653
-20.2629
-20.2688
-20.2823
-20.3023
-20.3274
-20.3562
-20.3869
-20.4176
-20.4465
-20.472
-20.4926
-20.507
-20.5144
)
;
    }
    defaultFaces
    {
        type            empty;
    }
}


// ************************************************************************* //
