/*--------------------------------*- C++ -*----------------------------------*\
| =========                 |                                                 |
| \\      /  F ield         | OpenFOAM: The Open Source CFD Toolbox           |
|  \\    /   O peration     | Version:  5.x                                   |
|   \\  /    A nd           | Web:      www.OpenFOAM.org                      |
|    \\/     M anipulation  |                                                 |
\*---------------------------------------------------------------------------*/
FoamFile
{
    version     2.0;
    format      ascii;
    class       volScalarField;
    location    "2.9001";
    object      gradTx;
}
// * * * * * * * * * * * * * * * * * * * * * * * * * * * * * * * * * * * * * //

dimensions      [0 -1 0 1 0 0 0];

internalField   nonuniform List<scalar> 
2048
(
0.00773397
0.0229657
0.0375111
0.0509833
0.0630892
0.073643
0.0825652
0.089868
0.0956325
0.0999836
0.103068
0.105036
0.106034
0.1062
0.105661
0.104538
0.102947
0.100998
0.0987901
0.0964147
0.0939462
0.0914424
0.0889438
0.0864752
0.0840482
0.0816651
0.0793212
0.0770068
0.0747085
0.0724091
0.070089
0.0677275
0.0653045
0.0628028
0.0602099
0.057518
0.0547237
0.0518257
0.0488223
0.0457095
0.0424795
0.0391211
0.0356212
0.0319687
0.0281576
0.0241913
0.0200859
0.0158732
0.0116023
0.00734053
0.00317275
-0.00079986
-0.00446334
-0.00769625
-0.0103772
-0.0123946
-0.0136572
-0.014105
-0.0137184
-0.012523
-0.0105914
-0.00803913
-0.00501769
-0.00170529
0.0230592
0.0684606
0.11178
0.151851
0.187792
0.219058
0.245424
0.266946
0.283884
0.296626
0.305618
0.311316
0.314155
0.314539
0.312845
0.30943
0.304637
0.298789
0.292189
0.285105
0.277759
0.270324
0.262917
0.255609
0.248433
0.241392
0.23447
0.22764
0.220859
0.214078
0.207236
0.200272
0.193123
0.185738
0.178079
0.170124
0.161864
0.153298
0.144423
0.135227
0.125688
0.11577
0.105433
0.09464
0.0833706
0.0716316
0.0594687
0.0469743
0.034293
0.0216236
0.00921891
-0.00261944
-0.0135501
-0.0232079
-0.031226
-0.0372653
-0.0410474
-0.0423879
-0.0412235
-0.0376298
-0.0318239
-0.0241535
-0.0150741
-0.00512245
0.0382567
0.113541
0.185259
0.251429
0.310578
0.361818
0.404825
0.439748
0.467077
0.487505
0.501803
0.510738
0.51503
0.515337
0.51227
0.506405
0.498303
0.488499
0.477496
0.46574
0.453602
0.441361
0.429207
0.417248
0.405527
0.394042
0.382766
0.371648
0.36062
0.349597
0.33848
0.32716
0.315531
0.303505
0.291018
0.278036
0.264552
0.250568
0.236086
0.221091
0.205545
0.189385
0.172538
0.154933
0.136526
0.11732
0.0973819
0.0768587
0.0559843
0.035084
0.0145744
-0.0050438
-0.0232002
-0.0392791
-0.0526575
-0.0627535
-0.0690848
-0.0713266
-0.0693616
-0.0633104
-0.0535371
-0.0406282
-0.0253514
-0.00861345
0.0536405
0.159115
0.259363
0.351509
0.433465
0.504031
0.562846
0.610244
0.647032
0.674275
0.693116
0.704651
0.709877
0.709689
0.704907
0.696314
0.684677
0.670743
0.65522
0.638741
0.621825
0.604859
0.588092
0.571654
0.555587
0.539875
0.524468
0.509296
0.494265
0.479257
0.464126
0.448713
0.432862
0.416442
0.399361
0.38158
0.363096
0.343931
0.324097
0.303584
0.282336
0.260259
0.237235
0.213146
0.187912
0.161519
0.134045
0.105682
0.076748
0.0476889
0.0190826
-0.00836984
-0.0338616
-0.0565121
-0.0754187
-0.0897279
-0.0987216
-0.101907
-0.099093
-0.0904404
-0.0764679
-0.0580188
-0.0361955
-0.0122959
0.0694944
0.206002
0.335351
0.453657
0.558183
0.647455
0.721179
0.779995
0.825154
0.858193
0.880684
0.894074
0.899628
0.898446
0.891531
0.879844
0.864353
0.846021
0.825778
0.804453
0.782725
0.761082
0.73982
0.719073
0.698861
0.679137
0.659826
0.640837
0.622054
0.603324
0.584456
0.56523
0.545425
0.524859
0.503412
0.481041
0.457765
0.433635
0.408693
0.382937
0.356296
0.328636
0.299778
0.269541
0.237789
0.204472
0.169671
0.133611
0.0966869
0.0594605
0.0226683
-0.0127861
-0.0458495
-0.0753551
-0.100088
-0.118881
-0.130732
-0.134941
-0.131214
-0.119746
-0.101225
-0.0767815
-0.0478874
-0.0162647
0.0860905
0.25498
0.414401
0.559309
0.686269
0.793599
0.881209
0.950222
1.0025
1.04017
1.06531
1.07975
1.08498
1.08227
1.07275
1.05755
1.03781
1.01474
0.989502
0.963152
0.936539
0.910252
0.884616
0.859738
0.835588
0.812071
0.789081
0.766508
0.744224
0.722048
0.699734
0.676987
0.653508
0.629046
0.603449
0.576679
0.548791
0.519889
0.490063
0.459334
0.427615
0.39472
0.360389
0.324351
0.286392
0.246411
0.204471
0.160824
0.115933
0.0704711
0.0253287
-0.018387
-0.0593655
-0.0961292
-0.127109
-0.150768
-0.16576
-0.171115
-0.166404
-0.151846
-0.128323
-0.0972959
-0.0606579
-0.0205971
0.103702
0.306824
0.49767
0.669834
0.819135
0.943781
1.04408
1.12186
1.1798
1.22081
1.24753
1.26217
1.26642
1.26165
1.24906
1.22988
1.20546
1.17723
1.14666
1.11505
1.08346
1.05256
1.02268
0.993867
0.966002
0.938915
0.912463
0.886532
0.860996
0.835655
0.810202
0.784248
0.757385
0.72928
0.699736
0.668728
0.636375
0.602863
0.568357
0.532917
0.496442
0.458677
0.419255
0.377786
0.333945
0.287558
0.238656
0.187511
0.134646
0.080837
0.0271241
-0.0251849
-0.0745137
-0.119048
-0.156816
-0.185839
-0.204346
-0.211026
-0.205259
-0.18728
-0.158201
-0.119879
-0.0746949
-0.0253548
0.122616
0.362338
0.586333
0.786582
0.958116
1.09917
1.21071
1.29558
1.35755
1.40046
1.42763
1.44163
1.44429
1.43696
1.42084
1.39721
1.3676
1.33375
1.29743
1.2603
1.22361
1.18814
1.15419
1.12167
1.09034
1.05991
1.0302
1.00112
0.972569
0.944349
0.916084
0.887259
0.857324
0.825828
0.792522
0.757407
0.720693
0.682692
0.643683
0.603786
0.562888
0.520642
0.476542
0.430035
0.380655
0.328126
0.272437
0.213869
0.153002
0.0907093
0.0281683
-0.0331202
-0.0913119
-0.14423
-0.189446
-0.224456
-0.246961
-0.255206
-0.248316
-0.22653
-0.191239
-0.144791
-0.0901449
-0.0305845
0.143139
0.42238
0.68162
0.910923
1.1045
1.26082
1.38185
1.47184
1.53596
1.57921
1.60568
1.61826
1.61879
1.6085
1.58843
1.55988
1.52454
1.48451
1.44199
1.399
1.3571
1.31714
1.27931
1.24337
1.20884
1.17529
1.14251
1.11046
1.07912
1.04831
1.01759
0.986258
0.953587
0.918958
0.882054
0.842918
0.801896
0.75948
0.716111
0.672003
0.627029
0.580724
0.532393
0.481276
0.426721
0.368324
0.306019
0.240097
0.171192
0.100267
0.0286196
-0.0420714
-0.109701
-0.171711
-0.225156
-0.266908
-0.294012
-0.304142
-0.296073
-0.270031
-0.227763
-0.172236
-0.107112
-0.0363167
0.165612
0.487887
0.784848
1.04428
1.25955
1.42967
1.55807
1.65085
1.715
1.75693
1.78157
1.79204
1.79005
1.77649
1.75213
1.71817
1.67651
1.62968
1.5804
1.53121
1.48397
1.43962
1.39821
1.35918
1.32175
1.28532
1.24962
1.21473
1.1808
1.1477
1.11489
1.08147
1.04643
1.00894
0.968577
0.925455
0.880116
0.833299
0.785676
0.737592
0.688907
0.639002
0.586933
0.531673
0.472332
0.408351
0.339602
0.266391
0.189412
0.109704
0.0286717
-0.051862
-0.129551
-0.201446
-0.264026
-0.313422
-0.345864
-0.358291
-0.349004
-0.318188
-0.268048
-0.202359
-0.12565
-0.0425631
0.190412
0.55989
0.897441
1.18813
1.42452
1.60656
1.73975
1.83262
1.89442
1.93328
1.955
1.96283
1.95809
1.94113
1.91222
1.87238
1.82376
1.7694
1.71273
1.65691
1.60421
1.55566
1.51103
1.46933
1.42937
1.39027
1.35175
1.31409
1.27772
1.24264
1.20818
1.17313
1.13613
1.09605
1.05234
1.00521
0.955465
0.904192
0.852373
0.800539
0.748536
0.695536
0.640274
0.581379
0.51767
0.448397
0.373372
0.292937
0.207849
0.119226
0.0285444
-0.0622692
-0.150668
-0.233319
-0.306065
-0.364164
-0.402843
-0.418098
-0.407578
-0.371381
-0.312319
-0.235238
-0.145758
-0.0493133
0.217966
0.639542
1.02096
1.34405
1.60065
1.79224
1.92713
2.01695
2.07376
2.10771
2.12554
2.1304
2.12292
2.1026
2.069
2.02283
1.9665
1.9038
1.83899
1.77606
1.71781
1.6653
1.61792
1.57407
1.53199
1.49044
1.44912
1.40867
1.36997
1.33322
1.29758
1.26144
1.22295
1.18058
1.1336
1.08236
1.02804
0.972174
0.916162
0.860795
0.8059
0.750369
0.692516
0.630547
0.562914
0.488642
0.407502
0.319901
0.226684
0.129036
0.0284745
-0.0730302
-0.172798
-0.26714
-0.351212
-0.419246
-0.465244
-0.483998
-0.472267
-0.429976
-0.360742
-0.270869
-0.167364
-0.0565302
0.248755
0.72813
1.15712
1.51371
1.78918
1.98734
2.12025
2.20342
2.25232
2.27951
2.29264
2.29446
2.28452
2.26112
2.22282
2.16983
2.10498
2.03297
1.95916
1.88855
1.82465
1.76856
1.71906
1.67368
1.62996
1.58615
1.54196
1.49858
1.45758
1.4195
1.38323
1.34661
1.30718
1.26284
1.21263
1.15709
1.09793
1.03723
0.976967
0.918274
0.860958
0.803526
0.743753
0.679321
0.608237
0.529259
0.442145
0.347429
0.246072
0.139324
0.0287069
-0.0838499
-0.195631
-0.30265
-0.399336
-0.478727
-0.533335
-0.556438
-0.543571
-0.494334
-0.413427
-0.309154
-0.190316
-0.0641447
0.283327
0.827094
1.30779
1.6989
1.99133
2.19235
2.319
2.39142
2.42921
2.44776
2.45562
2.45468
2.44285
2.41693
2.37407
2.31376
2.23942
2.15701
2.07316
1.99422
1.92462
1.86545
1.8146
1.76847
1.72367
1.6778
1.63052
1.58388
1.54055
1.50149
1.46524
1.42886
1.38911
1.34318
1.28971
1.22959
1.16519
1.09933
1.03467
0.972854
0.913645
0.855026
0.794072
0.727849
0.653818
0.570405
0.477428
0.375639
0.266144
0.150264
0.0294852
-0.0944083
-0.218804
-0.33952
-0.450239
-0.542607
-0.607349
-0.635874
-0.622037
-0.564829
-0.470412
-0.34988
-0.214362
-0.0720507
0.322306
0.938041
1.47504
1.90151
2.20827
2.40764
2.52307
2.58017
2.60334
2.61142
2.61376
2.6107
2.5979
2.57031
2.52321
2.45503
2.37008
2.27599
2.1809
2.09285
2.01752
1.95595
1.90475
1.85878
1.81355
1.7658
1.71503
1.6646
1.61878
1.57917
1.54371
1.50838
1.46906
1.42195
1.36514
1.30002
1.22989
1.1584
1.08913
1.02438
0.96388
0.904883
0.843559
0.776279
0.699837
0.612233
0.513454
0.404614
0.286995
0.162
0.0310422
-0.104368
-0.241906
-0.377356
-0.503652
-0.61083
-0.687484
-0.722785
-0.708279
-0.641858
-0.531653
-0.392697
-0.239139
-0.0800996
0.36641
1.06276
1.66111
2.12357
2.44112
2.63335
2.73202
2.76868
2.77342
2.76928
2.76626
2.7622
2.74966
2.72159
2.67081
2.59409
2.49718
2.39
2.28227
2.18416
2.10311
2.04004
1.98972
1.94496
1.90011
1.85067
1.79578
1.74069
1.69212
1.65247
1.61871
1.58538
1.54736
1.49958
1.43924
1.36856
1.2921
1.21437
1.14013
1.07265
1.01157
0.953114
0.892295
0.824764
0.74649
0.654879
0.550291
0.434404
0.308686
0.17464
0.0335912
-0.11338
-0.264485
-0.415694
-0.559243
-0.683279
-0.773887
-0.817665
-0.803021
-0.725867
-0.59701
-0.437091
-0.264152
-0.0880971
0.416472
1.20321
1.86843
2.36725
2.69089
2.86943
2.94524
2.95584
2.93799
2.92
2.91231
2.9089
2.89815
2.87117
2.81756
2.73143
2.62095
2.49914
2.37713
2.2678
2.18107
2.11769
2.06977
2.0274
1.98386
1.93302
1.87304
1.81206
1.76034
1.72129
1.69034
1.66002
1.62435
1.57652
1.51234
1.43536
1.35186
1.26714
1.18745
1.11742
1.05661
0.999752
0.940356
0.873458
0.793992
0.698472
0.587965
0.465025
0.331237
0.188247
0.0373168
-0.121098
-0.286046
-0.454003
-0.616613
-0.759781
-0.866629
-0.921022
-0.90713
-0.817376
-0.666221
-0.482356
-0.288771
-0.0958012
0.473484
1.36155
2.09959
2.63491
2.95843
3.11549
3.16204
3.14045
3.09538
3.0621
3.05113
3.05065
3.04336
3.01947
2.96433
2.86759
2.74155
2.60356
2.46533
2.34331
2.251
2.18889
2.14523
2.10646
2.06541
2.01356
1.94711
1.87847
1.82306
1.78551
1.75872
1.73246
1.70037
1.65335
1.58478
1.50052
1.40925
1.3166
1.23079
1.15842
1.0989
1.04486
0.987803
0.922513
0.842596
0.743129
0.626457
0.496457
0.354627
0.202837
0.0423662
-0.127178
-0.306061
-0.491687
-0.675311
-0.840111
-0.96568
-1.03335
-1.02168
-0.91702
-0.738869
-0.527561
-0.312216
-0.102924
0.538653
1.54009
2.35729
2.92917
3.24437
3.37078
3.38167
3.32122
3.24376
3.19394
3.18198
3.18743
3.18521
3.16694
3.1122
3.00308
2.85903
2.70345
2.54675
2.41014
2.31242
2.25365
2.2165
2.18247
2.14534
2.09323
2.01835
1.93959
1.87981
1.84498
1.82401
1.8028
1.77577
1.73071
1.65688
1.56411
1.46439
1.36268
1.26981
1.19531
1.13836
1.08854
1.03467
0.972072
0.892616
0.78895
0.665682
0.52866
0.378801
0.218365
0.0488424
-0.131297
-0.323975
-0.528076
-0.734837
-0.924014
-1.07086
-1.15512
-1.14803
-1.02559
-0.814331
-0.571516
-0.333566
-0.109139
0.613519
1.74129
2.64429
3.25301
3.54902
3.63401
3.60349
3.49691
3.38109
3.31376
3.30424
3.31949
3.32352
3.31399
3.2626
3.13843
2.97329
2.79915
2.62129
2.46761
2.3647
2.31199
2.28414
2.25568
2.22426
2.17318
2.08711
1.9949
1.92996
1.89955
1.88649
1.87102
1.85086
1.80945
1.72898
1.62607
1.51745
1.40527
1.30409
1.22769
1.17491
1.13099
1.08094
1.02226
0.944456
0.836014
0.705471
0.561583
0.403673
0.234722
0.0567974
-0.133156
-0.339209
-0.562427
-0.79466
-1.01124
-1.18178
-1.28665
-1.28792
-1.14409
-0.891707
-0.61274
-0.35177
-0.114092
0.700121
1.96767
2.96323
3.60996
3.87226
3.90319
3.82712
3.66631
3.50507
3.4196
3.4174
3.44748
3.45783
3.46094
3.41743
3.27405
3.08391
2.89123
2.68891
2.5149
2.40712
2.36403
2.34892
2.32613
2.3027
2.25493
2.1538
2.04366
1.9727
1.94912
1.9466
1.93697
1.92589
1.89065
1.80131
1.68618
1.56873
1.44435
1.33313
1.25509
1.20853
1.17251
1.12649
1.07314
0.998668
0.884367
0.745543
0.595193
0.429132
0.251727
0.0662294
-0.132492
-0.351175
-0.593904
-0.854226
-1.1016
-1.29777
-1.42809
-1.44362
-1.27382
-0.969714
-0.649438
-0.365681
-0.117417
0.801282
2.22177
3.31646
4.00446
4.21335
4.17539
4.05268
3.82836
3.61316
3.50929
3.52114
3.57259
3.58727
3.6079
3.57929
3.41021
3.19004
2.98062
2.74967
2.55097
2.43873
2.40992
2.41193
2.39359
2.38108
2.34047
2.21882
2.08488
2.00703
1.9936
2.00507
2.00023
2.00098
1.97578
1.87405
1.744
1.61873
1.4799
1.35632
1.27694
1.23923
1.2136
1.17106
1.12473
1.05602
0.934002
0.785462
0.629511
0.455052
0.269113
0.0770833
-0.129091
-0.359285
-0.621565
-0.91297
-1.19509
-1.41779
-1.5792
-1.61813
-1.41644
-1.04654
-0.679479
-0.374099
-0.118765
0.921043
2.50594
3.70566
4.44228
4.57074
4.4464
4.28123
3.98216
3.70244
3.58043
3.61535
3.69688
3.7103
3.75467
3.75184
3.54688
3.29017
3.06882
2.80368
2.57452
2.45841
2.44991
2.47476
2.45736
2.45958
2.43253
2.28255
2.1172
2.0317
2.033
2.06304
2.06003
2.07606
2.06687
1.94719
1.79867
1.66827
1.51196
1.3729
1.29256
1.26706
1.25504
1.21417
1.1769
1.11761
0.984824
0.824577
0.664673
0.481296
0.286514
0.0892567
-0.122795
-0.362977
-0.644327
-0.97031
-1.29199
-1.5403
-1.73919
-1.81543
-1.57409
-1.11964
-0.700403
-0.375844
-0.117828
1.0653
2.82223
4.13139
4.93127
4.94173
4.71028
4.51526
4.12701
3.76958
3.63031
3.70005
3.82361
3.82437
3.90047
3.94022
3.68355
3.38184
3.15823
2.85118
2.58398
2.46479
2.4843
2.53973
2.51607
2.53803
2.53478
2.34527
2.13887
2.04527
2.06735
2.12231
2.115
2.15078
2.16675
2.02047
1.84887
1.71863
1.54064
1.38197
1.30117
1.29212
1.298
1.25499
1.22933
1.18501
1.0366
0.861947
0.701016
0.507715
0.303445
0.102614
-0.113517
-0.361741
-0.660925
-1.02563
-1.39313
-1.66316
-1.90635
-2.04081
-1.74947
-1.18548
-0.709463
-0.369843
-0.11437
1.24276
3.17202
4.59234
5.48235
5.32208
4.95877
4.75948
4.26226
3.81072
3.65592
3.77535
3.95779
3.92548
4.04374
4.1517
3.819
3.46124
3.25255
2.89239
2.57737
2.45622
2.51339
2.61022
2.5674
2.61573
2.65225
2.40703
2.14768
2.04601
2.09672
2.18557
2.16302
2.22434
2.27942
2.09323
1.8925
1.77185
1.56601
1.38241
1.30182
1.3145
1.34425
1.29219
1.28145
1.26047
1.0889
0.896236
0.739196
0.534144
0.319277
0.117009
-0.101245
-0.355166
-0.669864
-1.07823
-1.50014
-1.78347
-2.0777
-2.30135
-1.94601
-1.23912
-0.703703
-0.355228
-0.108259
1.46625
3.55573
5.08441
6.11087
5.70542
5.18054
5.02183
4.38718
3.82137
3.65388
3.84127
4.10686
4.00762
4.18175
4.39654
3.95096
3.52276
3.3574
2.92743
2.55231
2.43078
2.53737
2.69113
2.60767
2.69116
2.79182
2.46747
2.14085
2.03199
2.12112
2.25683
2.20084
2.29527
2.41049
2.16422
1.92648
1.83097
1.58813
1.37288
1.29342
1.33426
1.3964
1.32377
1.33228
1.3472
1.14095
0.925585
0.780354
0.56037
0.333203
0.132325
-0.0860572
-0.342996
-0.669348
-1.12722
-1.61587
-1.89746
-2.24837
-2.60646
-2.16794
-1.27384
-0.680118
-0.331461
-0.0994941
1.75449
3.97224
5.59936
6.8385
6.08255
5.36023
5.31479
4.50055
3.79634
3.62057
3.89739
4.28166
4.062
4.31012
4.68905
4.0756
3.55834
3.48105
2.95609
2.50593
2.3863
2.55614
2.78948
2.63141
2.76178
2.96287
2.52546
2.11508
2.00108
2.14034
2.34193
2.2237
2.36128
2.56779
2.23135
1.9464
1.90054
1.60685
1.35176
1.27476
1.35128
1.45819
1.3468
1.38032
1.44969
1.19154
0.947454
0.826325
0.586088
0.344199
0.148523
-0.0681194
-0.325215
-0.65722
-1.17133
-1.74483
-2.00033
-2.41093
-2.96866
-2.42044
-1.28048
-0.635896
-0.298436
-0.0882183
2.13452
4.41828
6.12316
7.69562
6.44047
5.47734
5.65709
4.60007
3.72969
3.55211
3.94237
4.49765
4.07617
4.4223
5.049
4.18702
3.55681
3.63549
2.97745
2.43485
2.32035
2.56895
2.91517
2.6308
2.82359
3.17806
2.57873
2.06646
1.95104
2.15368
2.44916
2.22489
2.41882
2.76211
2.29138
1.94613
1.98711
1.62163
1.31717
1.2445
1.3651
1.53492
1.3571
1.42337
1.57418
1.23878
0.95843
0.87992
0.610819
0.350983
0.165711
-0.047691
-0.302151
-0.630893
-1.20871
-1.89386
-2.08615
-2.55448
-3.40442
-2.70973
-1.24677
-0.568775
-0.256589
-0.0747251
2.64471
4.88762
6.63383
8.7243
6.76115
5.50483
6.07586
4.68144
3.61472
3.44467
3.97318
4.77641
4.03298
4.50884
5.50328
4.27644
3.50292
3.83764
2.98934
2.33523
2.23044
2.57398
3.08198
2.59494
2.87075
3.45436
2.62323
1.99064
1.87968
2.15958
2.59013
2.1951
2.46281
3.00812
2.33951
1.91731
2.09994
1.63125
1.26696
1.20128
1.37467
1.634
1.34892
1.45829
1.72918
1.27989
0.954007
0.945265
0.633787
0.35196
0.184231
-0.0251163
-0.274599
-0.587298
-1.23651
-2.0728
-2.14781
-2.66353
-3.93532
-3.04316
-1.15651
-0.477543
-0.206957
-0.0594455
3.33854
5.37001
7.09891
9.98204
7.02001
5.40758
6.6092
4.73709
3.44416
3.29471
3.98407
5.14754
3.90924
4.55653
6.08786
4.33129
3.37647
4.11093
2.98758
2.20283
2.11416
2.56767
3.30877
2.50908
2.89504
3.81422
2.65237
1.88287
1.78501
2.15503
2.78076
2.12181
2.4861
3.32544
2.36887
1.84886
2.25187
1.6334
1.19876
1.14379
1.37802
1.76556
1.31443
1.48077
1.92609
1.31086
0.928341
1.02822
0.65375
0.345184
0.204758
-0.000811556
-0.243973
-0.522852
-1.25045
-2.29538
-2.17696
-2.71669
-4.58929
-3.42924
-0.988533
-0.36269
-0.151193
-0.0429184
4.28924
5.85001
7.47228
11.5461
7.18412
5.14061
7.30923
4.7545
3.21037
3.09944
3.96517
5.65093
3.67434
4.54748
6.85014
4.33418
3.15112
4.48713
2.96496
2.03318
1.96945
2.54386
3.6209
2.35367
2.8853
4.28699
2.65597
1.73829
1.66556
2.13488
3.04246
1.98847
2.47901
3.73992
2.36997
1.72635
2.46031
1.62409
1.11007
1.07094
1.37175
1.94322
1.24327
1.48502
2.17996
1.3261
0.873976
1.13688
0.668768
0.328312
0.228418
0.0247579
-0.212473
-0.43348
-1.24414
-2.58014
-2.16415
-2.68511
-5.40214
-3.8776
-0.715704
-0.227244
-0.0915045
-0.0257453
5.5951
6.30554
7.69073
13.5188
7.20998
4.64719
8.24568
4.71402
2.90578
2.8575
3.90074
6.33934
3.28862
4.45801
7.8515
4.26159
2.79321
5.00846
2.90996
1.82188
1.79498
2.49268
4.05191
2.10336
2.8268
4.91054
2.6191
1.55226
1.52069
2.09083
3.40362
1.77365
2.42868
4.285
2.32995
1.53132
2.7484
1.59697
0.998407
0.982055
1.35045
2.18499
1.12199
1.46347
2.5103
1.31796
0.78157
1.28212
0.675916
0.298581
0.256911
0.0511103
-0.183265
-0.314676
-1.20841
-2.95148
-2.09892
-2.53076
-6.41923
-4.39892
-0.303666
-0.0777806
-0.0304876
-0.00853393
)
;

boundaryField
{
    left
    {
        type            calculated;
        value           uniform 0;
    }
    right
    {
        type            calculated;
        value           uniform 0;
    }
    interface
    {
        type            calculated;
        value           nonuniform List<scalar> 
64
(
5.5951
6.30554
7.69073
13.5188
7.20998
4.64719
8.24568
4.71402
2.90578
2.8575
3.90074
6.33934
3.28862
4.45801
7.8515
4.26159
2.79321
5.00846
2.90996
1.82188
1.79498
2.49268
4.05191
2.10336
2.8268
4.91054
2.6191
1.55226
1.52069
2.09083
3.40362
1.77365
2.42868
4.285
2.32995
1.53132
2.7484
1.59697
0.998407
0.982055
1.35045
2.18499
1.12199
1.46347
2.5103
1.31796
0.78157
1.28212
0.675916
0.298581
0.256911
0.0511103
-0.183265
-0.314676
-1.20841
-2.95148
-2.09892
-2.53076
-6.41923
-4.39892
-0.303666
-0.0777806
-0.0304876
-0.00853393
)
;
    }
    bottom
    {
        type            calculated;
        value           nonuniform List<scalar> 
64
(
0.00773397
0.0229657
0.0375111
0.0509833
0.0630892
0.073643
0.0825652
0.089868
0.0956325
0.0999836
0.103068
0.105036
0.106034
0.1062
0.105661
0.104538
0.102947
0.100998
0.0987901
0.0964147
0.0939462
0.0914424
0.0889438
0.0864752
0.0840482
0.0816651
0.0793212
0.0770068
0.0747085
0.0724091
0.070089
0.0677275
0.0653045
0.0628028
0.0602099
0.057518
0.0547237
0.0518257
0.0488223
0.0457095
0.0424795
0.0391211
0.0356212
0.0319687
0.0281576
0.0241913
0.0200859
0.0158732
0.0116023
0.00734053
0.00317275
-0.00079986
-0.00446334
-0.00769625
-0.0103772
-0.0123946
-0.0136572
-0.014105
-0.0137184
-0.012523
-0.0105914
-0.00803913
-0.00501769
-0.00170529
)
;
    }
    defaultFaces
    {
        type            empty;
    }
}


// ************************************************************************* //
