/*--------------------------------*- C++ -*----------------------------------*\
| =========                 |                                                 |
| \\      /  F ield         | OpenFOAM: The Open Source CFD Toolbox           |
|  \\    /   O peration     | Version:  5.x                                   |
|   \\  /    A nd           | Web:      www.OpenFOAM.org                      |
|    \\/     M anipulation  |                                                 |
\*---------------------------------------------------------------------------*/
FoamFile
{
    version     2.0;
    format      ascii;
    class       volScalarField;
    location    "2.9001";
    object      T;
}
// * * * * * * * * * * * * * * * * * * * * * * * * * * * * * * * * * * * * * //

dimensions      [0 0 0 1 0 0 0];

internalField   nonuniform List<scalar> 
2048
(
9.80242
9.80266
9.80314
9.80383
9.80473
9.8058
9.80703
9.80838
9.80984
9.81137
9.81296
9.81459
9.81624
9.81791
9.81956
9.82121
9.82283
9.82443
9.82599
9.82751
9.829
9.83045
9.83186
9.83323
9.83456
9.83585
9.83711
9.83833
9.83952
9.84067
9.84178
9.84286
9.8439
9.8449
9.84586
9.84678
9.84766
9.84849
9.84928
9.85002
9.85071
9.85134
9.85193
9.85246
9.85293
9.85334
9.85368
9.85396
9.85418
9.85433
9.85441
9.85443
9.85438
9.85429
9.85414
9.85396
9.85376
9.85354
9.85331
9.85311
9.85292
9.85278
9.85267
9.85262
9.41569
9.41641
9.41783
9.41991
9.42258
9.42578
9.42942
9.43345
9.43777
9.44232
9.44704
9.45187
9.45676
9.46168
9.46659
9.47146
9.47626
9.48098
9.4856
9.49011
9.49451
9.49879
9.50296
9.50701
9.51095
9.51477
9.51849
9.5221
9.5256
9.529
9.53229
9.53548
9.53855
9.54151
9.54436
9.54708
9.54967
9.55214
9.55446
9.55665
9.55869
9.56058
9.56231
9.56387
9.56526
9.56648
9.5675
9.56833
9.56897
9.56941
9.56965
9.56969
9.56956
9.56927
9.56884
9.56829
9.56767
9.56701
9.56635
9.56572
9.56517
9.56473
9.56442
9.56426
9.04534
9.04653
9.04889
9.05232
9.05674
9.06203
9.06805
9.07468
9.08179
9.08928
9.09703
9.10496
9.11299
9.12105
9.12909
9.13706
9.14492
9.15263
9.16018
9.16755
9.17474
9.18173
9.18853
9.19514
9.20157
9.20781
9.21388
9.21978
9.2255
9.23104
9.23642
9.24162
9.24664
9.25148
9.25613
9.26058
9.26482
9.26884
9.27265
9.27622
9.27956
9.28264
9.28548
9.28804
9.29032
9.2923
9.29398
9.29535
9.29639
9.2971
9.29748
9.29755
9.29732
9.29683
9.2961
9.29518
9.29414
9.29302
9.29191
9.29085
9.28993
9.28918
9.28866
9.28839
8.69035
8.69203
8.69532
8.70013
8.70631
8.71368
8.72206
8.73127
8.74113
8.75149
8.7622
8.77315
8.78422
8.79533
8.8064
8.81736
8.82816
8.83876
8.84912
8.85923
8.86908
8.87866
8.88798
8.89704
8.90585
8.9144
8.92272
8.93079
8.93863
8.94624
8.95361
8.96074
8.96763
8.97427
8.98065
8.98675
8.99257
8.9981
9.00332
9.00822
9.01281
9.01705
9.02094
9.02446
9.0276
9.03033
9.03265
9.03452
9.03595
9.03692
9.03744
9.03752
9.03718
9.03646
9.03541
9.0341
9.03261
9.03102
9.02942
9.02792
9.0266
9.02553
9.02478
9.0244
8.34983
8.352
8.35627
8.36248
8.37045
8.37993
8.39068
8.40246
8.41505
8.42825
8.44187
8.45577
8.46981
8.48388
8.49789
8.51174
8.52538
8.53875
8.55182
8.56456
8.57696
8.58902
8.60074
8.61214
8.62322
8.63398
8.64444
8.6546
8.66446
8.67404
8.68332
8.6923
8.70098
8.70935
8.71738
8.72508
8.73242
8.73938
8.74597
8.75216
8.75793
8.76329
8.7682
8.77266
8.77663
8.78009
8.78302
8.78539
8.78719
8.78841
8.78905
8.78912
8.78865
8.78769
8.7863
8.78456
8.78258
8.78047
8.77836
8.77637
8.77462
8.77321
8.77222
8.77171
8.02295
8.02564
8.03091
8.03859
8.04839
8.06003
8.07319
8.08757
8.10289
8.1189
8.13539
8.15219
8.16913
8.1861
8.20296
8.21962
8.236
8.25205
8.26771
8.28297
8.29781
8.31224
8.32626
8.33988
8.35313
8.366
8.3785
8.39065
8.40246
8.41391
8.42502
8.43578
8.44618
8.4562
8.46583
8.47506
8.48385
8.49221
8.5001
8.50752
8.51446
8.52089
8.52679
8.53215
8.53693
8.5411
8.54463
8.54749
8.54965
8.55111
8.55185
8.5519
8.55128
8.55005
8.54828
8.54607
8.54356
8.54089
8.53822
8.53569
8.53347
8.53168
8.53043
8.52979
7.70894
7.71218
7.71852
7.72773
7.73946
7.75333
7.76895
7.78595
7.80401
7.82282
7.84216
7.86181
7.8816
7.90138
7.92103
7.94042
7.95946
7.97809
7.99625
8.01392
8.03109
8.04778
8.06399
8.07974
8.09504
8.10992
8.12439
8.13844
8.15209
8.16534
8.1782
8.19066
8.20271
8.21433
8.2255
8.2362
8.2464
8.25609
8.26524
8.27385
8.28189
8.28936
8.29623
8.30246
8.30803
8.3129
8.31702
8.32036
8.32288
8.32456
8.3254
8.32541
8.32462
8.32308
8.3209
8.31818
8.31509
8.3118
8.30849
8.30538
8.30264
8.30044
8.2989
8.2981
7.40709
7.41092
7.41841
7.42924
7.44299
7.45919
7.47734
7.49702
7.51783
7.53944
7.56159
7.58406
7.60664
7.62919
7.65155
7.67359
7.69521
7.71633
7.73689
7.75687
7.77628
7.79511
7.81341
7.83118
7.84846
7.86525
7.88158
7.89745
7.91287
7.92784
7.94238
7.95647
7.9701
7.98326
7.99591
8.00803
8.01958
8.03055
8.04091
8.05066
8.05978
8.06825
8.07605
8.08314
8.08949
8.09504
8.09974
8.10355
8.10643
8.10834
8.10926
8.10922
8.10823
8.10636
8.10372
8.10044
8.09671
8.09272
8.08873
8.08496
8.08165
8.07899
8.07713
8.07617
7.11675
7.12122
7.12995
7.14252
7.15842
7.17704
7.19782
7.22022
7.24381
7.26822
7.29316
7.3184
7.34373
7.36899
7.394
7.41862
7.44274
7.46627
7.48913
7.51133
7.53285
7.55374
7.57401
7.59372
7.61287
7.63149
7.6496
7.6672
7.6843
7.70092
7.71706
7.73272
7.74788
7.76252
7.7766
7.79008
7.80294
7.81514
7.82667
7.83752
7.84767
7.85711
7.86582
7.87375
7.88086
7.88709
7.89237
7.89665
7.89987
7.902
7.90301
7.90289
7.90169
7.89947
7.89633
7.89243
7.88798
7.88324
7.87848
7.87399
7.87004
7.86687
7.86466
7.86352
6.8373
6.84247
6.85255
6.867
6.88518
6.90636
6.92986
6.95505
6.98145
7.00865
7.03635
7.06432
7.09235
7.12026
7.14787
7.17501
7.20156
7.2274
7.25249
7.27679
7.30034
7.32316
7.34532
7.36686
7.3878
7.40816
7.42797
7.44721
7.46593
7.48411
7.50179
7.51895
7.53559
7.55166
7.56712
7.58192
7.59604
7.60943
7.62208
7.63398
7.64513
7.65551
7.6651
7.67385
7.68171
7.68861
7.69447
7.69922
7.7028
7.70514
7.70622
7.70604
7.7046
7.70199
7.69831
7.69374
7.68851
7.68293
7.67732
7.67202
7.66737
7.66365
7.66105
7.65972
6.56816
6.57411
6.58565
6.60215
6.62278
6.64667
6.67299
6.70103
6.73026
6.76024
6.79067
6.82133
6.85201
6.88252
6.91267
6.94228
6.97118
6.99927
7.02648
7.05279
7.07825
7.10292
7.12687
7.15014
7.17278
7.19481
7.21623
7.23705
7.2573
7.27698
7.29613
7.31474
7.33279
7.35024
7.36704
7.38313
7.39845
7.41299
7.42671
7.43962
7.45173
7.46301
7.47346
7.48302
7.49163
7.4992
7.50564
7.51087
7.5148
7.51736
7.51852
7.51825
7.51658
7.51355
7.50928
7.50398
7.4979
7.49139
7.48484
7.47866
7.47323
7.4689
7.46588
7.46434
6.30877
6.31558
6.32876
6.34749
6.37076
6.39751
6.42677
6.45773
6.4898
6.52254
6.55566
6.58896
6.62224
6.6553
6.68794
6.71996
6.75116
6.78141
6.81065
6.83888
6.86615
6.89256
6.91819
6.94312
6.96738
6.99099
7.01396
7.03628
7.05798
7.07909
7.09964
7.11964
7.13906
7.15786
7.17596
7.19328
7.20978
7.22541
7.24016
7.25404
7.26706
7.27922
7.29051
7.30086
7.31021
7.31846
7.32548
7.33119
7.33548
7.33827
7.33951
7.33916
7.33723
7.33376
7.32888
7.32279
7.31578
7.30825
7.30066
7.29349
7.28722
7.28222
7.27875
7.27699
6.05862
6.0664
6.08138
6.10256
6.12868
6.15847
6.19079
6.22473
6.25964
6.29511
6.33088
6.36676
6.40258
6.43815
6.47324
6.50761
6.54105
6.57339
6.60458
6.63462
6.66359
6.69164
6.71886
6.74536
6.77116
6.79629
6.82073
6.84448
6.86756
6.89003
6.91192
6.93325
6.954
6.9741
6.99347
7.012
7.02963
7.04631
7.06204
7.07684
7.09074
7.10374
7.11585
7.12699
7.13707
7.14599
7.15361
7.15981
7.16447
7.1675
7.16882
7.1684
7.1662
7.16228
7.15675
7.1498
7.14179
7.13314
7.1244
7.11615
7.10895
7.10323
7.09929
7.09728
5.81722
5.82607
5.84306
5.86694
5.89616
5.92917
5.96467
6.00164
6.0394
6.07755
6.11589
6.15429
6.1926
6.23063
6.26813
6.30482
6.34043
6.3748
6.40784
6.43959
6.47016
6.49973
6.52845
6.55644
6.58372
6.6103
6.63615
6.66125
6.68565
6.7094
6.73257
6.75519
6.77722
6.7986
6.81919
6.8389
6.85762
6.87531
6.89197
6.90764
6.92237
6.9362
6.94909
6.96101
6.97184
6.98144
6.98966
6.99636
7.0014
7.00468
7.0061
7.0056
7.00315
6.99876
6.99254
6.98469
6.97558
6.96571
6.95571
6.94627
6.93806
6.93157
6.92713
6.92488
5.58408
5.59415
5.61339
5.64025
5.67282
5.70926
5.74806
5.7881
5.82869
5.86946
5.91029
5.95114
5.99188
6.03232
6.0722
6.11117
6.14892
6.18524
6.22004
6.25339
6.28544
6.31644
6.34657
6.37596
6.40465
6.43263
6.45984
6.48623
6.51185
6.53682
6.5612
6.58506
6.60834
6.63096
6.65278
6.67362
6.6934
6.71206
6.7296
6.74609
6.76161
6.77622
6.78989
6.80258
6.81415
6.82445
6.83328
6.84049
6.84593
6.84946
6.85099
6.85043
6.84773
6.84287
6.83594
6.82713
6.81685
6.80565
6.79426
6.78351
6.7742
6.7669
6.76193
6.75943
5.35876
5.37021
5.39197
5.42212
5.45833
5.4984
5.54062
5.58378
5.62714
5.67045
5.71368
5.75689
5.8
5.84282
5.88505
5.92628
5.96612
6.00432
6.0408
6.07564
6.10906
6.14136
6.17281
6.20354
6.23359
6.26292
6.29142
6.31904
6.34582
6.37192
6.39746
6.4225
6.447
6.47086
6.49387
6.51583
6.53663
6.55621
6.57458
6.59184
6.6081
6.62345
6.63789
6.65134
6.66366
6.67466
6.68413
6.69186
6.6977
6.70151
6.70316
6.70256
6.69962
6.69429
6.68663
6.67681
6.66527
6.65263
6.63972
6.62754
6.61704
6.60888
6.60338
6.60063
5.14081
5.15383
5.17841
5.21222
5.25239
5.29631
5.34206
5.38834
5.43443
5.48016
5.52568
5.57117
5.61658
5.66173
5.70631
5.74978
5.79166
5.83169
5.86976
5.90597
5.94063
5.97413
6.00681
6.03881
6.07016
6.10081
6.13057
6.15934
6.1872
6.21435
6.24099
6.26717
6.29286
6.31793
6.34213
6.36519
6.38699
6.40744
6.42658
6.44455
6.4615
6.47757
6.49275
6.50695
6.52004
6.53177
6.54187
6.55014
6.5564
6.56049
6.56228
6.56166
6.5585
6.55272
6.54431
6.53345
6.52057
6.50637
6.49179
6.47802
6.46624
6.4572
6.45117
6.44818
4.92983
4.94462
4.97237
5.01023
5.05471
5.10268
5.15207
5.2015
5.25021
5.29823
5.3459
5.39358
5.44124
5.48868
5.53559
5.58132
5.62521
5.66699
5.70657
5.74403
5.7798
5.81438
5.8482
5.88141
5.91403
5.94596
5.97695
6.00681
6.03565
6.06378
6.09145
6.11874
6.14559
6.17187
6.19726
6.2214
6.24415
6.26544
6.28529
6.3039
6.32149
6.33824
6.35414
6.36911
6.38297
6.39544
6.40619
6.41502
6.42171
6.4261
6.42805
6.42742
6.42407
6.41786
6.40871
6.39675
6.38245
6.36658
6.35016
6.33465
6.32151
6.31156
6.30502
6.3018
4.72539
4.74222
4.77352
4.81589
4.86505
4.91727
4.97039
5.02295
5.07418
5.12432
5.17399
5.22376
5.2736
5.32329
5.37256
5.42055
5.46641
5.5099
5.55089
5.58948
5.62621
5.66174
5.69664
5.73101
5.76484
5.79805
5.83025
5.86113
5.89086
5.91987
5.94852
5.97687
6.00486
6.03236
6.05894
6.08414
6.10782
6.1299
6.1504
6.16958
6.18776
6.20516
6.22177
6.23749
6.25215
6.26539
6.27681
6.28619
6.29333
6.29803
6.30015
6.29955
6.29605
6.28943
6.27955
6.26646
6.25067
6.233
6.21457
6.19712
6.18252
6.17168
6.16466
6.16125
4.52711
4.54628
4.58153
4.62892
4.68318
4.73983
4.79675
4.85243
4.90603
4.95809
5.00958
5.06135
5.11331
5.16521
5.21688
5.26717
5.31495
5.36008
5.40243
5.442
5.47954
5.5159
5.55179
5.58727
5.62228
5.65678
5.69019
5.72201
5.75253
5.78232
5.81189
5.84127
5.87036
5.89911
5.92691
5.95314
5.97772
6.00056
6.02164
6.04131
6.06
6.07803
6.09534
6.11181
6.12729
6.14132
6.15342
6.16337
6.17096
6.17598
6.1783
6.17776
6.17414
6.16716
6.15656
6.14232
6.12496
6.10539
6.08475
6.06515
6.049
6.03728
6.02985
6.02629
4.33461
4.35649
4.3961
4.44909
4.50891
4.57009
4.63088
4.68969
4.74545
4.79923
4.85232
4.90602
4.96005
5.01408
5.0682
5.12087
5.17052
5.21724
5.26087
5.30127
5.33946
5.37649
5.41334
5.4499
5.48603
5.52186
5.55649
5.58916
5.62036
5.65081
5.68127
5.71164
5.7418
5.77183
5.80088
5.82812
5.85358
5.87714
5.89871
5.9188
5.93793
5.95657
5.97457
5.99177
6.00811
6.02298
6.03575
6.04628
6.05435
6.05969
6.06221
6.06176
6.05807
6.05078
6.03951
6.02409
6.00509
5.98353
5.96046
5.93842
5.92065
5.90812
5.90036
5.89669
4.1475
4.17254
4.21693
4.27618
4.34207
4.40784
4.47255
4.53449
4.59218
4.6474
4.70185
4.75744
4.81349
4.86954
4.92624
4.98139
5.03281
5.08108
5.12595
5.16701
5.20567
5.24322
5.28098
5.31859
5.35578
5.393
5.42892
5.46234
5.49407
5.52506
5.55637
5.58771
5.61888
5.65025
5.68062
5.70881
5.73512
5.75939
5.78137
5.80178
5.82127
5.84051
5.8592
5.8771
5.89435
5.9101
5.92353
5.93465
5.9432
5.94887
5.95161
5.95128
5.94758
5.94005
5.92816
5.91152
5.89081
5.86721
5.84146
5.81665
5.7972
5.78394
5.77596
5.77225
3.9654
3.99418
4.04371
4.10999
4.18253
4.25282
4.32148
4.38661
4.44593
4.50231
4.55781
4.61529
4.67334
4.73124
4.79068
4.84848
4.90152
4.9513
4.99742
5.03892
5.07787
5.11574
5.15443
5.19308
5.23122
5.26994
5.30724
5.34127
5.3734
5.40476
5.43693
5.46923
5.50131
5.53411
5.5659
5.59496
5.62211
5.64709
5.66936
5.68999
5.70975
5.72959
5.74897
5.76753
5.78575
5.80246
5.81652
5.82822
5.83729
5.84327
5.84625
5.84605
5.84241
5.83471
5.82227
5.80439
5.7819
5.75626
5.72755
5.69952
5.67836
5.66453
5.65647
5.65279
3.78794
3.82123
3.87614
3.95034
4.03024
4.10477
4.17744
4.24587
4.30641
4.36367
4.41985
4.4793
4.53934
4.59881
4.66123
4.72194
4.77634
4.82762
4.87504
4.91672
4.95578
4.99375
5.03342
5.07311
5.11205
5.15243
5.19126
5.22572
5.2581
5.28963
5.3227
5.35595
5.3888
5.42316
5.45651
5.4863
5.51428
5.54001
5.56243
5.5832
5.60309
5.62358
5.64365
5.6628
5.68207
5.69983
5.71446
5.72676
5.73637
5.74263
5.74585
5.74584
5.74231
5.73453
5.72165
5.70248
5.67812
5.65051
5.61854
5.58673
5.56387
5.54969
5.5417
5.53813
3.61473
3.65356
3.71385
3.79707
3.88517
3.96339
4.04014
4.11212
4.17333
4.23121
4.28758
4.34919
4.41126
4.47186
4.53763
4.6016
4.65697
4.70976
4.75861
4.80015
4.83916
4.87691
4.9177
4.95847
4.99793
5.04022
5.08081
5.11544
5.14793
5.17937
5.21345
5.24767
5.28105
5.31718
5.35228
5.3826
5.41142
5.43797
5.46036
5.48117
5.50104
5.52225
5.54305
5.56263
5.58309
5.60202
5.61712
5.63002
5.64022
5.64672
5.6502
5.65037
5.64703
5.63927
5.6261
5.60558
5.57922
5.54985
5.51429
5.47793
5.45348
5.43921
5.43149
5.4281
3.44533
3.49115
3.55644
3.65004
3.74741
3.82833
3.9093
3.98526
4.0464
4.10468
4.16058
4.22472
4.28892
4.34996
4.4196
4.48735
4.54307
4.59744
4.64799
4.68892
4.72775
4.76488
4.80704
4.84898
4.88853
4.93308
4.97578
5.01019
5.04268
5.07369
5.10896
5.14421
5.17774
5.21594
5.25307
5.28357
5.31327
5.34079
5.3629
5.38369
5.40332
5.42539
5.44696
5.46675
5.48859
5.50885
5.52424
5.53778
5.54863
5.55529
5.55904
5.55943
5.55635
5.54871
5.53544
5.51348
5.48494
5.45419
5.41468
5.37273
5.34693
5.33293
5.32568
5.32257
3.27929
3.33412
3.40342
3.5091
3.61712
3.69918
3.78463
3.86526
3.92527
3.9839
4.03842
4.10569
4.17222
4.23263
4.30691
4.37916
4.43427
4.49036
4.54306
4.58274
4.62137
4.65731
4.70124
4.74448
4.78348
4.83079
4.87607
4.90971
4.94216
4.97224
5.00905
5.04543
5.07854
5.11922
5.15878
5.18895
5.21961
5.24834
5.26982
5.29058
5.30966
5.33281
5.35523
5.3749
5.39836
5.4202
5.4356
5.44981
5.46142
5.46812
5.47218
5.47276
5.47005
5.4626
5.44951
5.426
5.39498
5.36349
5.31964
5.27071
5.244
5.2307
5.22413
5.22137
3.11608
3.18278
3.25415
3.37413
3.49464
3.5754
3.6658
3.75218
3.80956
3.86873
3.92056
3.99193
4.06111
4.11931
4.19931
4.27709
4.33015
4.38824
4.44376
4.48129
4.51985
4.5538
4.60013
4.6449
4.68234
4.73314
4.78166
4.81372
4.84623
4.87469
4.91354
4.95123
4.98306
5.02681
5.06938
5.09842
5.1302
5.16052
5.18087
5.20168
5.21976
5.24434
5.26773
5.28675
5.31221
5.33594
5.35092
5.36589
5.37842
5.38498
5.38939
5.39016
5.3879
5.38072
5.36818
5.34294
5.309
5.27775
5.22917
5.17136
5.14449
5.1324
5.12672
5.12438
2.95507
3.03772
3.10781
3.24503
3.38045
3.45631
3.55247
3.64618
3.69877
3.75914
3.80641
3.88331
3.95568
4.00934
4.09658
4.18131
4.23022
4.29078
4.35014
4.3842
4.42312
4.4539
4.50355
4.55021
4.58465
4.63992
4.6926
4.7219
4.7548
4.78064
4.82229
4.86158
4.89089
4.93854
4.98489
5.01165
5.04481
5.07727
5.09578
5.11687
5.13332
5.15983
5.18439
5.20198
5.22996
5.25602
5.26995
5.28583
5.29949
5.30564
5.31049
5.31139
5.30971
5.30281
5.29135
5.26417
5.22658
5.19705
5.14334
5.07407
5.04825
5.03793
5.03332
5.03146
2.79552
2.89985
2.96334
3.12169
3.27527
3.34107
3.44426
3.54761
3.5923
3.65524
3.69526
3.77974
3.85612
3.9019
3.99851
4.09215
4.13386
4.19766
4.26233
4.29102
4.33117
4.35709
4.4114
4.46049
4.48981
4.55096
4.60901
4.63385
4.66785
4.68963
4.73519
4.77653
4.8015
4.85422
4.90542
4.92825
4.9632
4.99862
5.01424
5.03608
5.04998
5.07914
5.10516
5.12022
5.15143
5.18041
5.1924
5.20942
5.22453
5.22985
5.23531
5.23625
5.23529
5.22862
5.21895
5.18955
5.14722
5.12152
5.06232
4.9781
4.95516
4.94721
4.94383
4.94248
2.6365
2.77054
2.81931
3.00405
3.18013
3.22855
3.34077
3.45697
3.48935
3.55729
3.58621
3.6812
3.7628
3.79602
3.90491
4.01009
4.04035
4.10856
4.18058
4.20122
4.24411
4.26276
4.32361
4.37592
4.39716
4.46608
4.53113
4.54908
4.58545
4.60113
4.65217
4.69621
4.71431
4.77368
4.83118
4.84774
4.88513
4.92462
4.93588
4.95931
4.96935
5.00218
5.03007
5.04103
5.07648
5.10916
5.11792
5.13647
5.15345
5.15737
5.16371
5.16451
5.16448
5.15787
5.15093
5.11899
5.0703
5.05136
4.9864
4.88254
4.86522
4.86017
4.85812
4.85731
2.47685
2.6517
2.6739
2.89204
3.09636
3.11735
3.24159
3.37503
3.3889
3.46583
3.4782
3.58773
3.6763
3.6905
3.81562
3.93586
3.94879
4.02315
4.1053
4.11408
4.16224
4.17018
4.24013
4.2968
4.30586
4.38514
4.45932
4.46698
4.50783
4.5145
4.57317
4.62087
4.62859
4.69676
4.7625
4.76958
4.81035
4.85546
4.86026
4.88666
4.89095
4.92886
4.95923
4.96393
5.00496
5.04237
5.04615
5.0668
5.08621
5.08792
5.09554
5.09595
5.09714
5.09022
5.08731
5.05246
4.99507
4.98687
4.91599
4.78627
4.77852
4.77678
4.77609
4.77582
)
;

boundaryField
{
    left
    {
        type            zeroGradient;
    }
    right
    {
        type            zeroGradient;
    }
    interface
    {
        type            fixedValue;
        value           nonuniform List<scalar> 
64
(
2.3942
2.59765
2.59765
2.83765
3.06026
3.06026
3.19286
3.33813
3.33813
3.42283
3.42283
3.54259
3.63599
3.63599
3.7721
3.90241
3.90241
3.98119
4.07045
4.07045
4.12328
4.12328
4.19968
4.25938
4.25938
4.3457
4.42598
4.42598
4.47079
4.47079
4.53484
4.5851
4.5851
4.65923
4.73048
4.73048
4.77369
4.82272
4.82272
4.85174
4.85174
4.89323
4.92528
4.92528
4.9701
5.01062
5.01062
5.03278
5.05382
5.05382
5.06242
5.06242
5.06445
5.05706
5.05706
5.02054
4.95701
4.95701
4.88314
4.736
4.736
4.736
4.736
4.736
)
;
    }
    bottom
    {
        type            fixedValue;
        value           uniform 10;
    }
    defaultFaces
    {
        type            empty;
    }
}


// ************************************************************************* //
