/*--------------------------------*- C++ -*----------------------------------*\
| =========                 |                                                 |
| \\      /  F ield         | OpenFOAM: The Open Source CFD Toolbox           |
|  \\    /   O peration     | Version:  5.x                                   |
|   \\  /    A nd           | Web:      www.OpenFOAM.org                      |
|    \\/     M anipulation  |                                                 |
\*---------------------------------------------------------------------------*/
FoamFile
{
    version     2.0;
    format      ascii;
    class       volScalarField;
    location    "1.4001";
    object      gradTx;
}
// * * * * * * * * * * * * * * * * * * * * * * * * * * * * * * * * * * * * * //

dimensions      [0 -1 0 1 0 0 0];

internalField   nonuniform List<scalar> 
2048
(
0.00768096
0.0228054
0.0372434
0.0506091
0.0626081
0.0730547
0.081869
0.0890628
0.0947165
0.0989548
0.101924
0.103774
0.104651
0.104691
0.104023
0.102766
0.101036
0.0989403
0.0965797
0.0940433
0.0914053
0.0887233
0.0860376
0.0833731
0.080742
0.078147
0.0755844
0.0730454
0.0705178
0.0679858
0.0654315
0.0628357
0.0601797
0.0574476
0.0546276
0.0517125
0.0486991
0.0455864
0.0423736
0.0390579
0.0356338
0.0320927
0.0284252
0.0246237
0.0206858
0.0166183
0.0124405
0.00818726
0.00391101
-0.000316934
-0.00440644
-0.00825008
-0.0117267
-0.0147071
-0.0170627
-0.018676
-0.0194522
-0.0193309
-0.0182952
-0.0163774
-0.0136598
-0.01027
-0.00637313
-0.00216029
0.0229022
0.0679867
0.110989
0.150745
0.186371
0.21732
0.243367
0.264568
0.281179
0.293587
0.302239
0.307588
0.310069
0.310083
0.308008
0.304198
0.298993
0.292714
0.285662
0.278102
0.270256
0.262294
0.254334
0.246447
0.238667
0.230999
0.22343
0.215935
0.208475
0.201005
0.19347
0.185811
0.177973
0.169906
0.161575
0.15296
0.144053
0.134851
0.125356
0.115559
0.105443
0.0949824
0.0841468
0.0729105
0.0612635
0.0492229
0.0368434
0.0242261
0.0115254
-0.00104818
-0.0132268
-0.02469
-0.0350745
-0.0439919
-0.0510532
-0.055901
-0.0582459
-0.0579014
-0.0548132
-0.0490762
-0.0409368
-0.0307797
-0.019103
-0.0064765
0.0380002
0.112767
0.183968
0.249624
0.308259
0.358983
0.401471
0.435869
0.462666
0.482551
0.496295
0.504662
0.50837
0.508075
0.504387
0.497879
0.489106
0.478602
0.466863
0.454333
0.441378
0.428277
0.41522
0.402314
0.389605
0.377096
0.364761
0.352554
0.340414
0.328263
0.316009
0.303552
0.290795
0.277654
0.264069
0.25001
0.235467
0.220444
0.204946
0.188964
0.172469
0.155415
0.137744
0.119406
0.100374
0.0806674
0.0603683
0.0396362
0.0187198
-0.00203704
-0.0221936
-0.0412181
-0.0585028
-0.0733921
-0.0852239
-0.0933844
-0.097371
-0.0968548
-0.0917328
-0.0821581
-0.0685441
-0.0515409
-0.0319936
-0.01085
0.0532885
0.158054
0.257594
0.349036
0.430289
0.50015
0.558257
0.604939
0.641
0.667502
0.685584
0.696342
0.70077
0.69976
0.694131
0.68466
0.672109
0.657219
0.640692
0.623155
0.605122
0.586978
0.568972
0.551235
0.533813
0.516692
0.49983
0.483161
0.466599
0.450037
0.43334
0.416363
0.39896
0.381008
0.362422
0.343162
0.323227
0.302636
0.281404
0.259527
0.236965
0.213645
0.189473
0.164362
0.138255
0.111161
0.0831781
0.054514
0.0255031
-0.00338423
-0.031538
-0.0582138
-0.0825509
-0.103609
-0.120428
-0.132105
-0.13789
-0.137282
-0.13011
-0.116581
-0.0972848
-0.0731561
-0.0454148
-0.0154046
0.069051
0.204666
0.333124
0.450547
0.55419
0.642578
0.715415
0.773335
0.817583
0.849692
0.871233
0.883648
0.8882
0.885989
0.878012
0.865227
0.848593
0.829066
0.807565
0.784914
0.761784
0.73866
0.715838
0.693454
0.671532
0.650031
0.628881
0.607999
0.587279
0.566582
0.545731
0.524524
0.502756
0.480257
0.456914
0.432684
0.407581
0.381654
0.354943
0.327455
0.299138
0.269885
0.239553
0.207999
0.175121
0.140902
0.105439
0.0689782
0.0319292
-0.00511924
-0.0413919
-0.0759291
-0.107605
-0.135172
-0.157331
-0.172846
-0.180668
-0.180082
-0.17082
-0.153139
-0.127822
-0.09612
-0.0596698
-0.0202416
0.0855593
0.25338
0.411736
0.555589
0.681496
0.787775
0.87433
0.942277
0.993466
1.03003
1.05404
1.06731
1.07135
1.06741
1.05664
1.04013
1.01904
0.994546
0.967814
0.939885
0.9116
0.883542
0.856037
0.829197
0.802996
0.777346
0.752147
0.727298
0.702682
0.678134
0.653429
0.628295
0.602453
0.575671
0.547805
0.518813
0.488743
0.457689
0.425736
0.392912
0.359153
0.324309
0.288169
0.250514
0.211173
0.170082
0.127325
0.0831709
0.0380943
-0.00720704
-0.0517989
-0.0945054
-0.133923
-0.168464
-0.196447
-0.216238
-0.226424
-0.226015
-0.214609
-0.192507
-0.160711
-0.120842
-0.0750062
-0.0254434
0.103086
0.30497
0.494583
0.665529
0.813619
0.937056
1.03614
1.1127
1.1694
1.20913
1.23455
1.24784
1.25071
1.24453
1.23049
1.20981
1.18384
1.15398
1.1217
1.08828
1.05475
1.02181
0.989765
0.958677
0.928432
0.898869
0.869851
0.841271
0.813017
0.784907
0.756661
0.727919
0.698305
0.667506
0.635336
0.601766
0.566896
0.530895
0.493916
0.456022
0.41714
0.377062
0.335485
0.292085
0.246598
0.19889
0.149015
0.0972537
0.0441314
-0.0095566
-0.0627262
-0.113988
-0.161648
-0.203748
-0.238168
-0.262796
-0.275768
-0.27574
-0.262128
-0.235268
-0.196428
-0.147662
-0.091624
-0.0310754
0.121918
0.360238
0.58284
0.781716
0.951889
1.09159
1.20177
1.28527
1.34584
1.38732
1.41302
1.42551
1.42662
1.4177
1.39995
1.37465
1.34331
1.30763
1.26941
1.23024
1.19138
1.1536
1.11719
1.0821
1.04807
1.01483
0.982209
0.950118
0.918474
0.887094
0.855637
0.823627
0.790558
0.756007
0.719738
0.681741
0.6422
0.601395
0.55958
0.516874
0.473195
0.428257
0.381637
0.332872
0.281572
0.22751
0.170695
0.111403
0.0502022
-0.0120303
-0.0740752
-0.134338
-0.190827
-0.241183
-0.282779
-0.312935
-0.329225
-0.329846
-0.313963
-0.281943
-0.235376
-0.176855
-0.109677
-0.0371865
0.142362
0.420042
0.677735
0.905518
1.09759
1.25242
1.37196
1.46044
1.52302
1.5647
1.58954
1.60045
1.59927
1.58722
1.56536
1.53496
1.49772
1.4557
1.41108
1.36586
1.32156
1.27903
1.23849
1.19967
1.16213
1.12546
1.08944
1.05402
1.01922
0.984865
0.950546
0.915638
0.879453
0.84142
0.801234
0.758924
0.714793
0.669282
0.62279
0.57552
0.527379
0.477982
0.426745
0.373023
0.316264
0.256123
0.192548
0.125804
0.0564891
-0.0144539
-0.0856919
-0.155443
-0.221421
-0.280833
-0.330479
-0.366995
-0.387256
-0.388868
-0.370653
-0.332998
-0.277901
-0.208633
-0.129272
-0.0438072
0.164756
0.485314
0.780579
1.03835
1.25199
1.42049
1.54728
1.63843
1.70091
1.74113
1.76399
1.77263
1.76877
1.75329
1.72698
1.69103
1.64733
1.59836
1.54682
1.4952
1.44534
1.39819
1.35378
1.31159
1.27087
1.231
1.19174
1.15316
1.1154
1.07836
1.04156
1.00416
0.965229
0.923989
0.880048
0.833491
0.784794
0.734621
0.683576
0.631978
0.579728
0.526304
0.470911
0.412673
0.350833
0.284901
0.214753
0.140642
0.0631855
-0.0166267
-0.0973769
-0.177126
-0.253308
-0.322677
-0.38138
-0.425244
-0.450273
-0.453311
-0.43271
-0.388861
-0.324288
-0.243142
-0.150459
-0.0509478
0.189479
0.557087
0.892797
1.18169
1.41632
1.59664
1.72812
1.81924
1.87926
1.91627
1.93607
1.94192
1.93515
1.91612
1.88512
1.84316
1.79236
1.73573
1.67665
1.61823
1.56272
1.51112
1.46324
1.4181
1.37455
1.33172
1.28934
1.24766
1.20711
1.16771
1.12884
1.0894
1.04813
1.00397
0.956407
0.905611
0.852304
0.797451
0.741932
0.686235
0.630247
0.573268
0.514224
0.45195
0.385431
0.314007
0.23748
0.156095
0.0704868
-0.0183314
-0.108896
-0.199155
-0.286296
-0.366611
-0.435522
-0.48789
-0.518648
-0.52366
-0.500637
-0.449933
-0.374764
-0.280453
-0.173228
-0.0585937
0.216955
0.636509
1.01594
1.33711
1.59185
1.78161
1.91469
2.00267
2.05759
2.08958
2.10535
2.10808
2.09841
2.07587
2.04005
1.99163
1.93302
1.86794
1.8006
1.73491
1.67366
1.61788
1.56699
1.51941
1.47346
1.42791
1.38244
1.33768
1.29445
1.25298
1.21251
1.17155
1.1284
1.08162
1.03054
0.975451
0.917409
0.857781
0.797822
0.738243
0.678917
0.618902
0.556763
0.490971
0.420202
0.343594
0.260882
0.172328
0.0785808
-0.0193451
-0.119988
-0.22125
-0.320126
-0.412457
-0.492869
-0.555084
-0.592719
-0.600395
-0.57494
-0.516594
-0.429496
-0.320546
-0.197491
-0.0667014
0.247666
0.724866
1.15173
1.50629
1.77978
1.97603
2.10705
2.1883
2.23522
2.26032
2.27126
2.27081
2.25852
2.23276
2.1921
2.13676
2.06954
1.99507
1.91862
1.84513
1.77806
1.71847
1.66518
1.61581
1.56794
1.51987
1.47128
1.42329
1.37744
1.33424
1.2927
1.25081
1.2063
1.15724
1.1027
1.04317
0.98018
0.915601
0.851175
0.787924
0.725699
0.663224
0.598598
0.529852
0.455285
0.373801
0.285096
0.189483
0.0876395
-0.0194481
-0.130379
-0.243092
-0.354476
-0.45996
-0.553312
-0.626919
-0.672797
-0.684002
-0.656149
-0.589219
-0.488578
-0.363298
-0.223072
-0.0751923
0.282158
0.823595
1.30203
1.69098
1.98135
2.18039
2.30508
2.37552
2.41125
2.42761
2.43315
2.42977
2.41544
2.38701
2.34166
2.27892
2.20214
2.1172
2.03065
1.94873
1.87578
1.81289
1.75799
1.70759
1.65836
1.60798
1.55607
1.50458
1.45607
1.41149
1.3695
1.32737
1.28211
1.23111
1.17313
1.10894
1.04068
0.970872
0.901887
0.835167
0.770531
0.706241
0.639796
0.568705
0.490818
0.404757
0.310231
0.207678
0.0978111
-0.0184341
-0.139786
-0.264331
-0.388968
-0.508794
-0.616673
-0.703433
-0.759158
-0.774981
-0.744841
-0.668187
-0.552029
-0.40846
-0.249688
-0.0839479
0.321054
0.9343
1.46889
1.8931
2.19772
2.39505
2.50848
2.56354
2.58459
2.59039
2.59027
2.58462
2.56916
2.5389
2.48919
2.4185
2.33107
2.23442
2.1366
2.04548
1.96665
1.90112
1.84559
1.79505
1.74513
1.69264
1.63706
1.58156
1.53026
1.4847
1.443
1.4014
1.3561
1.30359
1.2421
1.1729
1.09896
1.02354
0.949819
0.87983
0.813337
0.747961
0.68042
0.607642
0.526938
0.436574
0.336368
0.226994
0.109213
-0.016119
-0.14793
-0.284592
-0.423172
-0.558559
-0.682701
-0.784605
-0.852041
-0.873849
-0.841667
-0.753903
-0.619778
-0.455634
-0.276932
-0.0928038
0.365071
1.05876
1.65457
2.11466
2.43
2.62015
2.71679
2.75139
2.75396
2.74745
2.74183
2.73502
2.71965
2.68875
2.63523
2.55594
2.45654
2.34681
2.23634
2.13511
2.0504
1.98313
1.92819
1.87856
1.82873
1.77434
1.71449
1.6542
1.59986
1.55382
1.51327
1.4731
1.42858
1.37504
1.30991
1.2352
1.15506
1.07352
0.994796
0.921737
0.854032
0.788392
0.720531
0.646778
0.563788
0.469353
0.363557
0.247478
0.121927
-0.0123483
-0.154548
-0.30349
-0.456612
-0.608783
-0.751079
-0.870356
-0.951631
-0.981142
-0.947387
-0.846822
-0.691646
-0.504244
-0.304261
-0.101546
0.415043
1.19895
1.86148
2.35783
2.67921
2.85564
2.92941
2.93795
2.91789
2.89745
2.88703
2.8807
2.86693
2.83694
2.78047
2.69172
2.57876
2.45444
2.32973
2.21725
2.12673
2.0589
2.00605
1.95847
1.90967
1.85367
1.78866
1.72238
1.66465
1.61875
1.5804
1.54262
1.49986
1.44589
1.37685
1.29598
1.20903
1.12073
1.0366
0.960677
0.892523
0.827561
0.760186
0.686224
0.601528
0.503182
0.391806
0.269139
0.135996
-0.0070052
-0.159395
-0.320635
-0.488773
-0.658924
-0.821423
-0.960554
-1.05804
-1.09741
-1.06292
-0.947473
-0.767321
-0.553508
-0.330982
-0.109911
0.471958
1.35701
2.09221
2.62496
2.94617
3.10112
3.14564
3.12201
3.07473
3.03891
3.02508
3.02148
3.01097
2.98388
2.92575
2.82636
2.69789
2.55746
2.41662
2.29147
2.19525
2.12841
2.07946
2.03515
1.98851
1.93132
1.85984
1.78591
1.72427
1.67936
1.64451
1.6101
1.57026
1.51665
1.44321
1.35532
1.26092
1.16507
1.07498
0.996398
0.928723
0.865517
0.799434
0.726093
0.640341
0.538132
0.421076
0.291949
0.151423
-1.63646e-05
-0.162258
-0.335643
-0.519107
-0.708363
-0.89329
-1.05502
-1.17127
-1.22317
-1.18938
-1.05651
-0.846323
-0.602401
-0.356243
-0.117584
0.537024
1.53526
2.34946
2.91866
3.23153
3.35585
3.36474
3.30229
3.22264
3.17022
3.15524
3.15737
3.15173
3.13003
3.07214
2.96038
2.81398
2.65605
2.49688
2.35721
2.25547
2.19166
2.14883
2.1089
2.06582
2.00817
1.92837
1.84446
1.77827
1.73552
1.70574
1.67564
1.64008
1.58792
1.50931
1.41327
1.31083
1.20645
1.10962
1.02861
0.962553
0.902355
0.838302
0.766485
0.680458
0.574262
0.451273
0.315846
0.168171
0.00864216
-0.162958
-0.348152
-0.547045
-0.756401
-0.966188
-1.15356
-1.29116
-1.35892
-1.32822
-1.17474
-0.92795
-0.649621
-0.379043
-0.124211
0.611779
1.73614
2.63597
3.2419
3.53559
3.61852
3.58605
3.47755
3.35958
3.2896
3.27688
3.2886
3.28898
3.27577
3.22105
3.09428
2.9269
2.75054
2.57041
2.41382
2.30678
2.24867
2.2147
2.17995
2.14217
2.08533
1.9946
1.89752
1.82605
1.78709
1.76437
1.73922
1.70962
1.66046
1.57542
1.46976
1.3589
1.24479
1.14015
1.05695
0.993957
0.938241
0.876775
0.807485
0.722177
0.611613
0.482229
0.340746
0.186167
0.0189393
-0.16136
-0.357827
-0.572011
-0.802247
-1.03958
-1.256
-1.41734
-1.50499
-1.48128
-1.30322
-1.0112
-0.693557
-0.398242
-0.129408
0.69826
1.96219
2.95439
3.59823
3.85822
3.88715
3.80918
3.64657
3.48327
3.3951
3.38951
3.4158
3.4223
3.42141
3.37434
3.22846
3.03625
2.84148
2.63717
2.46047
2.34847
2.29956
2.27781
2.24837
2.21808
2.16425
2.0589
1.9444
1.86685
1.83396
1.82081
1.80072
1.77908
1.73527
1.64177
1.52458
1.40538
1.28004
1.16612
1.08102
1.02291
0.973449
0.914771
0.849136
0.765914
0.650198
0.513683
0.366557
0.20531
0.0307828
-0.157368
-0.36438
-0.593439
-0.844995
-1.11291
-1.36228
-1.54913
-1.66149
-1.65097
-1.44329
-1.09466
-0.732259
-0.412602
-0.132782
0.799291
2.21593
3.30706
3.99204
4.1987
4.15882
4.03426
3.8083
3.59117
3.48458
3.49281
3.54019
3.55081
3.56708
3.53459
3.36319
3.14118
2.92977
2.6972
2.49613
2.37961
2.34447
2.33924
2.31391
2.29393
2.24686
2.12166
1.98414
1.89969
1.87606
1.87577
1.85975
1.8486
1.81369
1.70852
1.57729
1.45069
1.31219
1.18699
1.10032
1.04941
1.00841
0.952087
0.891419
0.812254
0.689992
0.54525
0.393213
0.225472
0.0440114
-0.150925
-0.36758
-0.6108
-0.883592
-1.18558
-1.47252
-1.68544
-1.82811
-1.84048
-1.59673
-1.17635
-0.76342
-0.42083
-0.133957
0.918905
2.49973
3.69566
4.42911
4.55545
4.42932
4.26232
3.96184
3.68038
3.55563
3.58665
3.66378
3.67299
3.71254
3.70541
3.49843
3.24018
3.01688
2.75063
2.51956
2.39911
2.38364
2.40053
2.37593
2.3699
2.33574
2.18324
2.01544
1.92341
1.91339
1.93032
1.9156
1.91809
1.89759
1.77566
1.62714
1.49555
1.34126
1.2021
1.11428
1.07352
1.0438
0.988339
0.934213
0.862037
0.73091
0.576379
0.420709
0.246504
0.0583836
-0.142
-0.367263
-0.623644
-0.916792
-1.25695
-1.58729
-1.82465
-2.00392
-2.05408
-1.76578
-1.25349
-0.784387
-0.42166
-0.132602
1.063
2.81562
4.12074
4.91726
4.9258
4.69271
4.49585
4.10646
3.74757
3.60556
3.67106
3.78983
3.78632
3.85705
3.89187
3.63368
3.33082
3.10515
2.79766
2.52917
2.40562
2.41736
2.46395
2.43309
2.44581
2.43443
2.24391
2.03663
1.93663
1.94597
1.98616
1.96704
1.98722
1.98956
1.84295
1.67286
1.54108
1.36733
1.21062
1.1222
1.09531
1.08064
1.02287
0.977242
0.916479
0.772763
0.606299
0.449163
0.268242
0.0735624
-0.130573
-0.363346
-0.631659
-0.943089
-1.32631
-1.70778
-1.96447
-2.18694
-2.29745
-1.95333
-1.32224
-0.792199
-0.413944
-0.128469
1.24027
3.16502
4.58101
5.46738
5.3055
4.94075
4.73952
4.24154
3.78889
3.63136
3.74614
3.9233
3.88685
3.99903
4.10116
3.76775
3.40934
3.19822
2.83851
2.52305
2.39755
2.44593
2.53279
2.48315
2.52096
2.54776
2.30371
2.04555
1.93772
1.97389
2.04584
2.01208
2.05522
2.09327
1.90979
1.71255
1.58907
1.39048
1.21156
1.12328
1.11488
1.12044
1.05462
1.02001
0.977331
0.815209
0.633943
0.478906
0.290499
0.0890934
-0.116602
-0.355827
-0.634747
-0.960628
-1.39281
-1.83617
-2.10177
-2.37378
-2.57823
-2.16302
-1.37728
-0.78368
-0.396766
-0.121421
1.46351
3.54832
5.07236
6.0948
5.68822
5.16214
5.00122
4.36633
3.79987
3.62972
3.81191
4.07158
3.96862
4.13579
4.34341
3.89838
3.47018
3.30158
2.8733
2.49884
2.37302
2.46953
2.61183
2.52257
2.59389
2.68232
2.36227
2.03956
1.92485
1.99713
2.11314
2.04772
2.12076
2.21388
1.97505
1.74339
1.64224
1.41072
1.20371
1.1166
1.13226
1.16541
1.08199
1.0617
1.04709
0.857666
0.657861
0.510592
0.313054
0.104375
-0.0999875
-0.344785
-0.633144
-0.967109
-1.4553
-1.97611
-2.23244
-2.55897
-2.90663
-2.39936
-1.41131
-0.755609
-0.369563
-0.111461
1.75146
3.96444
5.58657
6.82112
6.06476
5.34157
5.29339
4.47962
3.77534
3.597
3.86796
4.24545
4.02293
4.26299
4.63278
4.02181
3.50542
3.42339
2.90182
2.4537
2.32991
2.48806
2.70789
2.54608
2.66213
2.84712
2.4185
2.01545
1.89602
2.01549
2.19355
2.06958
2.18166
2.35858
2.03684
1.76136
1.70462
1.42791
1.18562
1.10113
1.14734
1.21874
1.10259
1.10109
1.12927
0.8992
0.676104
0.545353
0.335619
0.118621
-0.0805119
-0.330361
-0.627563
-0.959658
-1.51217
-2.1333
-2.35117
-2.73418
-3.29623
-2.66786
-1.41443
-0.70498
-0.33225
-0.0987527
2.1311
4.41013
6.10963
7.67664
6.42215
5.45857
5.63468
4.5791
3.70935
3.52938
3.91295
4.46023
4.03748
4.37414
4.98878
4.1322
3.50401
3.57541
2.92316
2.38432
2.2659
2.5008
2.83061
2.54609
2.72181
3.05434
2.47022
1.96947
1.84914
2.02833
2.29487
2.07141
2.23468
2.53728
2.0922
1.76087
1.78207
1.44159
1.15558
1.07579
1.15974
1.28492
1.11302
1.13638
1.22875
0.938366
0.686098
0.584996
0.357795
0.130811
-0.0577766
-0.312729
-0.619392
-0.934702
-1.56098
-2.31621
-2.45135
-2.88724
-3.76503
-2.97515
-1.37342
-0.629395
-0.285322
-0.0836185
2.64076
4.87918
6.61961
8.70334
6.74241
5.4862
6.0521
4.66049
3.59526
3.42306
3.94386
4.73733
3.99524
4.45988
5.438
4.22088
3.45093
3.7743
2.93518
2.2869
2.17857
2.50596
2.99338
2.51209
2.7673
3.32027
2.51351
1.89738
1.78218
2.03415
2.428
2.04457
2.27508
2.76345
2.13673
1.73435
1.88289
1.45064
1.11161
1.03946
1.16856
1.37018
1.10858
1.16503
1.3522
0.973011
0.684491
0.632242
0.378994
0.13964
-0.0311196
-0.292035
-0.610924
-0.887839
-1.59811
-2.53694
-2.5249
-3.00092
-4.3366
-3.32903
-1.27076
-0.527596
-0.22993
-0.0665285
3.33385
5.36137
7.08409
9.95859
7.00102
5.38943
6.58361
4.71626
3.42579
3.27454
3.95499
5.10613
3.87326
4.50715
6.01598
4.27545
3.32626
4.04308
2.93377
2.15723
2.0656
2.50009
3.21454
2.42978
2.79067
3.6665
2.54203
1.79458
1.69332
2.03013
2.60786
1.9774
2.29629
3.05514
2.16415
1.67174
2.01857
1.453
1.05153
0.991119
1.17209
1.48304
1.08283
1.1836
1.50856
1.00002
0.66699
0.691025
0.398331
0.143453
0.000474202
-0.268319
-0.605654
-0.813722
-1.61815
-2.81229
-2.56224
-3.05151
-5.04159
-3.73847
-1.08367
-0.400176
-0.167885
-0.048066
4.28351
5.84133
7.45704
11.5195
7.16511
5.12343
7.28115
4.73393
3.19329
3.08109
3.93654
5.60618
3.64122
4.49828
6.76957
4.27872
3.10405
4.413
2.91186
1.9909
1.92505
2.47716
3.51871
2.28025
2.78119
4.12126
2.54599
1.65633
1.58127
2.01139
2.85456
1.85448
2.28939
3.43607
2.16574
1.56
2.20473
1.44512
0.97299
0.929974
1.16744
1.63494
1.02724
1.1875
1.70962
1.01499
0.628183
0.76683
0.414486
0.140186
0.0384693
-0.241399
-0.608595
-0.705977
-1.61321
-3.16487
-2.55223
-3.0071
-5.91932
-4.21356
-0.782878
-0.250474
-0.101592
-0.0288764
5.58788
6.29701
7.67536
13.488
7.19127
4.63166
8.21417
4.69392
2.89022
2.8414
3.87287
6.28985
3.25978
4.40983
7.75943
4.20743
2.75115
4.92561
2.8581
1.7835
1.75572
2.42757
3.93847
2.03892
2.72469
4.72095
2.51102
1.47808
1.44556
1.97012
3.19468
1.65581
2.24254
3.937
2.12968
1.38245
2.46216
1.42132
0.873629
0.855648
1.14999
1.84099
0.930666
1.17078
1.97069
1.01191
0.561364
0.867084
0.425519
0.127305
0.0848753
-0.210719
-0.626654
-0.557165
-1.57206
-3.62438
-2.48231
-2.82571
-7.01973
-4.7654
-0.331385
-0.0856709
-0.0338652
-0.00960332
)
;

boundaryField
{
    left
    {
        type            calculated;
        value           uniform 0;
    }
    right
    {
        type            calculated;
        value           uniform 0;
    }
    interface
    {
        type            calculated;
        value           nonuniform List<scalar> 
64
(
5.58788
6.29701
7.67536
13.488
7.19127
4.63166
8.21417
4.69392
2.89022
2.8414
3.87287
6.28985
3.25978
4.40983
7.75943
4.20743
2.75115
4.92561
2.8581
1.7835
1.75572
2.42757
3.93847
2.03892
2.72469
4.72095
2.51102
1.47808
1.44556
1.97012
3.19468
1.65581
2.24254
3.937
2.12968
1.38245
2.46216
1.42132
0.873629
0.855648
1.14999
1.84099
0.930666
1.17078
1.97069
1.01191
0.561364
0.867084
0.425519
0.127305
0.0848753
-0.210719
-0.626654
-0.557165
-1.57206
-3.62438
-2.48231
-2.82571
-7.01973
-4.7654
-0.331385
-0.0856709
-0.0338652
-0.00960332
)
;
    }
    bottom
    {
        type            calculated;
        value           nonuniform List<scalar> 
64
(
0.00768096
0.0228054
0.0372434
0.0506091
0.0626081
0.0730547
0.081869
0.0890628
0.0947165
0.0989548
0.101924
0.103774
0.104651
0.104691
0.104023
0.102766
0.101036
0.0989403
0.0965797
0.0940433
0.0914053
0.0887233
0.0860376
0.0833731
0.080742
0.078147
0.0755844
0.0730454
0.0705178
0.0679858
0.0654315
0.0628357
0.0601797
0.0574476
0.0546276
0.0517125
0.0486991
0.0455864
0.0423736
0.0390579
0.0356338
0.0320927
0.0284252
0.0246237
0.0206858
0.0166183
0.0124405
0.00818726
0.00391101
-0.000316934
-0.00440644
-0.00825008
-0.0117267
-0.0147071
-0.0170627
-0.018676
-0.0194522
-0.0193309
-0.0182952
-0.0163774
-0.0136598
-0.01027
-0.00637313
-0.00216029
)
;
    }
    defaultFaces
    {
        type            empty;
    }
}


// ************************************************************************* //
