/*--------------------------------*- C++ -*----------------------------------*\
| =========                 |                                                 |
| \\      /  F ield         | OpenFOAM: The Open Source CFD Toolbox           |
|  \\    /   O peration     | Version:  5.x                                   |
|   \\  /    A nd           | Web:      www.OpenFOAM.org                      |
|    \\/     M anipulation  |                                                 |
\*---------------------------------------------------------------------------*/
FoamFile
{
    version     2.0;
    format      ascii;
    class       volScalarField;
    location    "1.4001";
    object      T;
}
// * * * * * * * * * * * * * * * * * * * * * * * * * * * * * * * * * * * * * //

dimensions      [0 0 0 1 0 0 0];

internalField   nonuniform List<scalar> 
2048
(
9.80227
9.80251
9.80298
9.80367
9.80456
9.80563
9.80685
9.80819
9.80963
9.81115
9.81272
9.81433
9.81597
9.8176
9.81924
9.82085
9.82245
9.82401
9.82554
9.82703
9.82848
9.82989
9.83125
9.83258
9.83386
9.8351
9.8363
9.83746
9.83858
9.83966
9.84071
9.84171
9.84267
9.84359
9.84447
9.8453
9.84608
9.84682
9.84751
9.84814
9.84873
9.84926
9.84973
9.85014
9.8505
9.85079
9.85102
9.85118
9.85127
9.8513
9.85126
9.85116
9.85101
9.8508
9.85055
9.85026
9.84996
9.84966
9.84936
9.84909
9.84885
9.84866
9.84853
9.84846
9.41526
9.41597
9.41738
9.41944
9.42209
9.42527
9.42889
9.43287
9.43715
9.44166
9.44633
9.4511
9.45594
9.46079
9.46563
9.47042
9.47514
9.47976
9.48428
9.48869
9.49297
9.49714
9.50117
9.50508
9.50887
9.51254
9.51609
9.51952
9.52284
9.52604
9.52912
9.53208
9.53493
9.53765
9.54024
9.5427
9.54502
9.5472
9.54923
9.55111
9.55284
9.55441
9.55581
9.55704
9.55809
9.55895
9.55963
9.56011
9.56038
9.56047
9.56035
9.56005
9.55958
9.55896
9.55821
9.55736
9.55646
9.55554
9.55465
9.55383
9.55312
9.55255
9.55215
9.55195
9.04463
9.04582
9.04816
9.05157
9.05596
9.0612
9.06718
9.07375
9.0808
9.08821
9.09588
9.10372
9.11165
9.1196
9.12752
9.13536
9.14308
9.15065
9.15804
9.16524
9.17224
9.17903
9.18562
9.19201
9.19819
9.20418
9.20998
9.21558
9.221
9.22622
9.23125
9.23609
9.24074
9.24518
9.24942
9.25343
9.25723
9.26079
9.26412
9.2672
9.27002
9.27259
9.27488
9.27689
9.27861
9.28003
9.28113
9.28191
9.28237
9.2825
9.28231
9.28181
9.28102
9.27998
9.27873
9.27731
9.27581
9.27427
9.27278
9.2714
9.27021
9.26926
9.2686
9.26826
8.68939
8.69106
8.69433
8.69911
8.70524
8.71256
8.72087
8.73
8.73978
8.75003
8.76063
8.77146
8.7824
8.79336
8.80426
8.81505
8.82566
8.83605
8.8462
8.85607
8.86567
8.87498
8.88401
8.89276
8.90124
8.90945
8.91739
8.92507
8.93248
8.93965
8.94655
8.95319
8.95956
8.96566
8.97147
8.97698
8.98219
8.98708
8.99165
8.99588
8.99976
9.00328
9.00643
9.0092
9.01157
9.01352
9.01504
9.01612
9.01675
9.01692
9.01664
9.01593
9.01482
9.01335
9.01158
9.00959
9.00746
9.00528
9.00317
9.00122
8.99952
8.99818
8.99724
8.99676
8.34864
8.3508
8.35504
8.36121
8.36912
8.37853
8.3892
8.40088
8.41336
8.42643
8.43992
8.45366
8.46753
8.48141
8.49522
8.50885
8.52225
8.53537
8.54816
8.56061
8.57269
8.58441
8.59577
8.60678
8.61745
8.62777
8.63776
8.64742
8.65676
8.66577
8.67446
8.68283
8.69086
8.69854
8.70586
8.71282
8.71939
8.72555
8.73131
8.73665
8.74154
8.74599
8.74998
8.75348
8.75648
8.75895
8.76088
8.76225
8.76304
8.76325
8.76288
8.76195
8.7605
8.75859
8.75628
8.75367
8.75088
8.74803
8.74525
8.74269
8.74047
8.73869
8.73746
8.73683
8.02154
8.02421
8.02946
8.03708
8.04682
8.05838
8.07144
8.0857
8.10088
8.11675
8.13307
8.14968
8.16643
8.18316
8.19978
8.21618
8.23229
8.24803
8.26337
8.27827
8.29274
8.30676
8.32035
8.33351
8.34626
8.35861
8.37055
8.38211
8.39328
8.40407
8.41447
8.42449
8.43411
8.44332
8.4521
8.46043
8.46831
8.47571
8.48261
8.48901
8.49489
8.50024
8.50503
8.50924
8.51285
8.51584
8.51817
8.51982
8.52077
8.52101
8.52054
8.51939
8.51759
8.51521
8.51233
8.50907
8.50557
8.50199
8.4985
8.49528
8.49249
8.49026
8.48871
8.48792
7.70733
7.71055
7.71686
7.72601
7.73766
7.75143
7.76694
7.78381
7.80171
7.82036
7.8395
7.85894
7.87849
7.89802
7.91739
7.93647
7.95519
7.97347
7.99126
8.00852
8.02526
8.04148
8.0572
8.07241
8.08715
8.10143
8.11524
8.12861
8.14153
8.15402
8.16606
8.17766
8.18881
8.19948
8.20967
8.21934
8.22847
8.23705
8.24506
8.25249
8.25931
8.26552
8.2711
8.27601
8.28023
8.28371
8.28644
8.28837
8.28948
8.28975
8.28918
8.28779
8.28562
8.28274
8.27925
8.2753
8.27104
8.26668
8.26242
8.25849
8.25507
8.25235
8.25046
8.24949
7.40531
7.40912
7.41657
7.42733
7.44099
7.45708
7.47511
7.49463
7.51527
7.53669
7.55862
7.58085
7.60317
7.62543
7.64748
7.66918
7.69043
7.71116
7.7313
7.75083
7.76974
7.78806
7.80579
7.82297
7.83961
7.85572
7.87132
7.88641
7.90101
7.91512
7.92873
7.94186
7.95447
7.96656
7.9781
7.98905
7.9994
8.00912
8.01819
8.02661
8.03435
8.0414
8.04773
8.05332
8.05813
8.06212
8.06524
8.06745
8.06872
8.06902
8.06835
8.06671
8.06415
8.06075
8.05661
8.05191
8.04683
8.04162
8.03653
8.03181
8.02771
8.02445
8.02219
8.02103
7.11481
7.11926
7.12793
7.14044
7.15623
7.17474
7.19537
7.21761
7.24101
7.2652
7.28991
7.31488
7.33992
7.36486
7.38952
7.41377
7.43749
7.46058
7.48298
7.50467
7.52566
7.54597
7.56563
7.58467
7.60312
7.62099
7.63829
7.65504
7.67123
7.68689
7.70201
7.71659
7.73062
7.74407
7.75692
7.76911
7.78063
7.79145
7.80155
7.81091
7.81953
7.82739
7.83447
7.84073
7.84613
7.85061
7.85413
7.85663
7.85806
7.85839
7.85761
7.85572
7.85275
7.8488
7.84398
7.83847
7.83251
7.82637
7.82036
7.81478
7.80995
7.8061
7.80343
7.80206
6.83522
6.84036
6.85038
6.86476
6.88283
6.90388
6.92722
6.95223
6.97842
7.00539
7.03283
7.06051
7.08823
7.11579
7.14302
7.16975
7.19586
7.22123
7.24581
7.26957
7.29254
7.31474
7.33623
7.35704
7.37722
7.39676
7.41568
7.434
7.45172
7.46886
7.48542
7.50141
7.5168
7.53157
7.54567
7.55907
7.57172
7.5836
7.59468
7.60496
7.61443
7.62307
7.63087
7.63779
7.64377
7.64875
7.65267
7.65546
7.65707
7.65744
7.65655
7.6544
7.65101
7.64648
7.64093
7.63456
7.62764
7.62049
7.61348
7.60697
7.60132
7.59683
7.59373
7.59213
6.56595
6.57187
6.58336
6.59977
6.62028
6.64403
6.67018
6.69803
6.72703
6.75676
6.78691
6.81726
6.8476
6.87773
6.90748
6.93664
6.96508
6.99266
7.01932
7.04505
7.06989
7.09389
7.11711
7.13961
7.16143
7.18257
7.20304
7.22286
7.24203
7.26058
7.27852
7.29586
7.31257
7.32861
7.34394
7.3585
7.37224
7.38513
7.39716
7.40832
7.41861
7.42801
7.43652
7.44408
7.45064
7.45613
7.46046
7.46355
7.46533
7.46575
7.46476
7.46235
7.45854
7.4534
7.44708
7.43979
7.43183
7.42358
7.41547
7.40794
7.40141
7.39623
7.39265
7.39081
6.30645
6.31323
6.32634
6.34498
6.36813
6.39473
6.4238
6.45456
6.48639
6.51886
6.55169
6.58465
6.61756
6.65023
6.68243
6.71398
6.74467
6.77438
6.80305
6.83065
6.85726
6.88296
6.90782
6.93192
6.9553
6.97797
6.99992
7.02117
7.04173
7.06162
7.08088
7.09951
7.11749
7.13478
7.15129
7.16698
7.18178
7.19565
7.20858
7.22058
7.23165
7.2418
7.25099
7.2592
7.26634
7.27233
7.27707
7.28048
7.28246
7.28294
7.28185
7.27919
7.27494
7.26918
7.26205
7.25378
7.2447
7.23526
7.22594
7.21729
7.2098
7.20387
7.19978
7.1977
6.05621
6.06395
6.07886
6.09994
6.12593
6.15556
6.18768
6.22141
6.25607
6.29126
6.3267
6.36223
6.39767
6.43281
6.46744
6.50131
6.53421
6.56599
6.59656
6.62594
6.65422
6.68151
6.70792
6.73355
6.75842
6.78254
6.80591
6.82852
6.85039
6.87157
6.89209
6.91196
6.93117
6.94966
6.96734
6.98412
6.99994
7.01475
7.02855
7.04135
7.05317
7.06403
7.0739
7.08273
7.09046
7.09696
7.10214
7.10587
7.10806
7.10861
7.10745
7.10453
7.09985
7.09346
7.08548
7.07617
7.06589
7.05514
7.04451
7.03464
7.0261
7.01937
7.01475
7.0124
5.81472
5.82354
5.84046
5.86423
5.89331
5.92615
5.96144
5.99818
6.03568
6.07353
6.11154
6.14957
6.18747
6.22505
6.26206
6.29823
6.33328
6.36705
6.39944
6.4305
6.46034
6.48912
6.51699
6.54406
6.57036
6.59588
6.62061
6.64451
6.66762
6.69001
6.71173
6.73281
6.75321
6.77287
6.79169
6.80953
6.82634
6.84206
6.85668
6.87024
6.88278
6.89432
6.90485
6.91431
6.92262
6.92965
6.93527
6.93935
6.94176
6.9424
6.94118
6.93803
6.93292
6.92588
6.91702
6.90661
6.89504
6.88288
6.87082
6.85961
6.84994
6.84236
6.83718
6.83455
5.58152
5.59155
5.61072
5.63746
5.66988
5.70614
5.74472
5.78453
5.82483
5.86529
5.90578
5.94624
5.98655
6.02653
6.06589
6.10431
6.14147
6.17716
6.2113
6.24393
6.27522
6.30539
6.33463
6.36306
6.39072
6.4176
6.44362
6.46875
6.49304
6.51657
6.53944
6.56167
6.58323
6.60405
6.62397
6.64286
6.66062
6.6772
6.69261
6.70689
6.7201
6.7323
6.74348
6.75357
6.76247
6.77003
6.77611
6.78054
6.7832
6.78396
6.7827
6.77933
6.7738
6.76611
6.75635
6.74478
6.73183
6.71815
6.70452
6.69185
6.68096
6.67248
6.66672
6.66382
5.35614
5.36755
5.38923
5.41926
5.45531
5.49519
5.53719
5.58009
5.62317
5.66616
5.70903
5.75184
5.7945
5.83683
5.87852
5.91918
5.9584
5.99594
6.03173
6.06583
6.09846
6.12991
6.16043
6.19016
6.21913
6.24731
6.27458
6.30089
6.32628
6.35088
6.37483
6.39817
6.42087
6.44282
6.46384
6.48375
6.50244
6.51985
6.53599
6.55093
6.56479
6.57762
6.58943
6.60014
6.60964
6.61776
6.62431
6.62912
6.63204
6.63293
6.63165
6.6281
6.62217
6.61383
6.60315
6.59036
6.57595
6.56062
6.54529
6.53101
6.51882
6.5094
6.50307
6.49989
5.13816
5.15113
5.17562
5.2093
5.24931
5.29302
5.33854
5.38457
5.43036
5.47575
5.5209
5.56597
5.61092
5.65556
5.69958
5.74245
5.78369
5.82304
5.86039
5.89584
5.92968
5.9623
5.99402
6.02499
6.05523
6.08467
6.11315
6.14056
6.16698
6.19258
6.21756
6.24197
6.26577
6.28884
6.31095
6.33187
6.35145
6.36965
6.38648
6.40205
6.4165
6.42994
6.44236
6.45369
6.4638
6.47249
6.47953
6.48473
6.48794
6.48898
6.48772
6.484
6.4777
6.46873
6.45711
6.44306
6.42709
6.41
6.3928
6.37678
6.36319
6.3528
6.34589
6.34246
4.92714
4.94189
4.96954
5.00727
5.05157
5.09934
5.14848
5.19764
5.24605
5.29372
5.34101
5.38826
5.43544
5.48235
5.52868
5.57378
5.61701
5.65809
5.69693
5.73361
5.76853
5.80221
5.83505
5.86719
5.89865
5.92933
5.959
5.98745
6.01481
6.04134
6.06729
6.09273
6.1176
6.1418
6.165
6.1869
6.20735
6.2263
6.24376
6.2599
6.2749
6.28892
6.30195
6.3139
6.32464
6.33391
6.34145
6.34707
6.35058
6.3518
6.35058
6.34673
6.34009
6.33051
6.31795
6.30259
6.28498
6.26599
6.24676
6.22882
6.21374
6.20238
6.19492
6.19124
4.72268
4.73946
4.77066
4.81289
4.86187
4.91387
4.96674
5.01902
5.06993
5.11973
5.169
5.21833
5.26767
5.31682
5.36548
5.41282
5.458
5.50076
5.541
5.57879
5.61466
5.64927
5.68315
5.71642
5.74905
5.78098
5.81181
5.84124
5.86945
5.89681
5.92368
5.95012
5.97605
6.00137
6.02567
6.04853
6.06983
6.0895
6.10754
6.12417
6.13968
6.15425
6.16788
6.18045
6.19183
6.20171
6.20978
6.21582
6.21965
6.22107
6.21992
6.21598
6.20904
6.19888
6.1854
6.16869
6.14935
6.12834
6.10688
6.08683
6.07017
6.05784
6.04987
6.04599
4.52439
4.54351
4.57865
4.62589
4.67996
4.73637
4.79304
4.84844
4.90171
4.95342
5.00451
5.05583
5.10728
5.15861
5.20965
5.25926
5.30634
5.35073
5.3923
5.43106
5.46773
5.50314
5.538
5.57235
5.60612
5.6393
5.67129
5.70163
5.73059
5.75869
5.78643
5.81383
5.84078
5.86725
5.89267
5.91648
5.9386
5.95895
5.9775
5.99458
6.01053
6.02564
6.03985
6.05304
6.06509
6.07561
6.0842
6.09068
6.09485
6.0965
6.09544
6.09145
6.08426
6.07358
6.05919
6.04109
6.01994
5.9968
5.97291
5.95051
5.93218
5.91891
5.91051
5.90646
4.33189
4.35371
4.39321
4.44603
4.50565
4.5666
4.62712
4.68564
4.74108
4.79449
4.84718
4.90041
4.95392
5.00736
5.06084
5.11281
5.16173
5.20769
5.25052
5.2901
5.32741
5.36349
5.39928
5.43467
5.46954
5.50399
5.53717
5.56833
5.59793
5.62667
5.65524
5.68357
5.71152
5.73916
5.76574
5.79047
5.81339
5.83439
5.85339
5.87083
5.88717
5.9028
5.91759
5.93138
5.94412
5.95532
5.96444
5.97137
5.9759
5.97779
5.97686
5.97287
5.96547
5.95432
5.93907
5.91954
5.8965
5.87113
5.84457
5.81954
5.79947
5.78533
5.77659
5.77244
4.14478
4.16976
4.21403
4.27311
4.33878
4.40431
4.46874
4.53039
4.58775
4.64261
4.69665
4.75176
4.80728
4.86272
4.91875
4.97318
5.02385
5.07134
5.1154
5.15563
5.19341
5.22999
5.26667
5.30309
5.33898
5.37478
5.4092
5.44108
5.4712
5.50044
5.52983
5.55906
5.58795
5.61683
5.64462
5.67022
5.69391
5.71556
5.73492
5.75265
5.7693
5.78544
5.80082
5.8152
5.82867
5.84058
5.85024
5.85762
5.86252
5.86466
5.8639
5.85995
5.85241
5.84086
5.8248
5.80381
5.77878
5.75114
5.72166
5.69363
5.67176
5.65687
5.6479
5.64371
3.9627
3.99142
4.04082
4.10691
4.17923
4.24927
4.31765
4.38246
4.44145
4.49748
4.55257
4.60956
4.66706
4.72434
4.78308
4.84013
4.8924
4.94139
4.98668
5.02735
5.06542
5.10232
5.1399
5.17733
5.21415
5.25139
5.28714
5.31962
5.35013
5.37973
5.40992
5.44005
5.46978
5.49999
5.52908
5.55548
5.57993
5.60221
5.62184
5.63978
5.65667
5.67333
5.68928
5.70421
5.71848
5.73115
5.74132
5.74916
5.75447
5.75687
5.75629
5.75243
5.74481
5.73294
5.71616
5.69366
5.66656
5.63664
5.60394
5.57245
5.54876
5.53328
5.52425
5.5201
3.78527
3.81848
3.87325
3.94726
4.02692
4.10119
4.17357
4.24168
4.30189
4.3588
4.41457
4.47352
4.533
4.59184
4.65353
4.71346
4.76708
4.81755
4.86412
4.90497
4.94316
4.98015
5.0187
5.05715
5.09473
5.13358
5.17081
5.2037
5.23445
5.26422
5.29527
5.32629
5.35674
5.38839
5.41891
5.44598
5.47119
5.49414
5.51392
5.53197
5.54898
5.5662
5.58275
5.59817
5.61329
5.62681
5.63744
5.64575
5.65148
5.65414
5.65378
5.65006
5.64242
5.63032
5.61295
5.58887
5.55958
5.52748
5.49124
5.45568
5.4302
5.41436
5.40544
5.40143
3.61208
3.65084
3.71098
3.79399
3.88184
3.95979
4.03624
4.1079
4.16879
4.2263
4.28227
4.34337
4.40487
4.46483
4.52984
4.59299
4.64758
4.69954
4.74753
4.78824
4.82637
4.86316
4.90281
4.94231
4.98041
5.02109
5.06002
5.09308
5.12395
5.15364
5.18563
5.21757
5.24851
5.2818
5.31392
5.34148
5.36744
5.39113
5.41089
5.429
5.44599
5.46384
5.48101
5.49679
5.51288
5.52733
5.53836
5.54715
5.55332
5.55622
5.55611
5.55258
5.54499
5.53274
5.51497
5.48922
5.45759
5.42354
5.38341
5.34297
5.31581
5.29993
5.29132
5.28753
3.44272
3.48845
3.5536
3.64696
3.74406
3.82472
3.90538
3.98101
4.04183
4.09975
4.15526
4.21888
4.28249
4.34289
4.41174
4.47863
4.53356
4.58707
4.63674
4.67686
4.71483
4.75102
4.792
4.83264
4.87083
4.9137
4.95465
4.98752
5.01839
5.04767
5.0808
5.1137
5.14479
5.17998
5.21397
5.2417
5.26845
5.29302
5.31254
5.33063
5.34743
5.36602
5.38385
5.39983
5.41703
5.43255
5.44383
5.45311
5.45979
5.46289
5.46305
5.45977
5.45227
5.43998
5.42205
5.3945
5.3603
5.32474
5.28033
5.23391
5.20535
5.1898
5.18174
5.17826
3.27672
3.33145
3.40061
3.50603
3.61377
3.69556
3.78069
3.86097
3.92068
3.97895
4.03309
4.09983
4.16576
4.22554
4.29897
4.37032
4.42466
4.47986
4.53164
4.57054
4.60831
4.64335
4.68607
4.72798
4.76563
4.81117
4.8546
4.88674
4.91759
4.946
4.98057
5.01454
5.04525
5.08272
5.11895
5.14637
5.17399
5.19964
5.21862
5.23669
5.25303
5.27255
5.29111
5.307
5.32552
5.34229
5.35362
5.36342
5.37066
5.37391
5.37437
5.37139
5.36405
5.35178
5.33406
5.30453
5.26739
5.23105
5.18195
5.12804
5.09858
5.08384
5.07655
5.07346
3.11356
3.18015
3.25137
3.37108
3.49127
3.57177
3.66185
3.74785
3.80494
3.86377
3.91524
3.98605
4.05462
4.11222
4.19131
4.26812
4.32044
4.37762
4.43217
4.46897
4.50668
4.53978
4.58483
4.62824
4.6644
4.71329
4.75985
4.79049
4.82139
4.84827
4.88478
4.91999
4.94951
4.98982
5.0288
5.0552
5.08383
5.11089
5.12888
5.147
5.1625
5.18325
5.20265
5.21803
5.23816
5.25643
5.26748
5.27787
5.28577
5.28905
5.28985
5.28724
5.28008
5.26789
5.25087
5.21911
5.17849
5.1425
5.08826
5.02484
4.99529
4.98192
4.97562
4.97301
2.9526
3.03513
3.10508
3.24199
3.37706
3.45269
3.5485
3.64182
3.69414
3.75417
3.80111
3.87742
3.94915
4.00227
4.08853
4.17221
4.22043
4.28005
4.33837
4.37177
4.40984
4.43985
4.48815
4.5334
4.56665
4.61987
4.67041
4.69842
4.72971
4.75411
4.79327
4.82999
4.85717
4.90108
4.94352
4.96786
4.99772
5.0267
5.04305
5.06144
5.07554
5.09795
5.11836
5.1326
5.15476
5.17485
5.18517
5.19624
5.20493
5.20809
5.20929
5.20711
5.20016
5.18802
5.17242
5.13808
5.09314
5.05918
4.99936
4.92366
4.89533
4.88395
4.87884
4.87676
2.79311
2.8973
2.96066
3.11867
3.27186
3.33746
3.44028
3.54319
3.58767
3.65025
3.68999
3.77384
3.84956
3.89488
3.99041
4.08288
4.12402
4.18683
4.25036
4.27851
4.31778
4.34306
4.39591
4.44351
4.47184
4.53072
4.58641
4.61016
4.64249
4.66308
4.70594
4.74457
4.76773
4.81633
4.8632
4.88396
4.91544
4.94704
4.96085
4.9799
4.99182
5.01653
5.03817
5.05037
5.07516
5.09751
5.10641
5.11835
5.128
5.1308
5.13248
5.13082
5.1241
5.11189
5.09867
5.06132
5.01079
4.98125
4.91543
4.8237
4.7986
4.78984
4.78609
4.78459
2.63416
2.76802
2.8167
3.00105
3.17668
3.22496
3.33679
3.4525
3.48473
3.55229
3.58101
3.6753
3.7562
3.78909
3.89677
4.00064
4.03048
4.09764
4.16839
4.18864
4.23061
4.24879
4.30802
4.35875
4.37928
4.44567
4.50806
4.52523
4.55982
4.57464
4.62268
4.66385
4.68063
4.73539
4.78801
4.80307
4.83676
4.87197
4.88192
4.90238
4.91098
4.93886
4.96207
4.97096
4.99918
5.02438
5.0309
5.04402
5.05487
5.05697
5.05925
5.05817
5.0517
5.03915
5.02964
4.98874
4.93074
4.90898
4.83677
4.724
4.70509
4.69954
4.69727
4.69636
2.47459
2.64921
2.67137
2.88906
3.09287
3.11379
3.23761
3.37048
3.38429
3.4608
3.47308
3.58183
3.66964
3.6837
3.80745
3.92618
3.93893
4.01215
4.09286
4.10147
4.14859
4.15633
4.22445
4.27941
4.28817
4.36456
4.4357
4.44303
4.48189
4.4882
4.54346
4.58803
4.5952
4.65811
4.71823
4.72467
4.76143
4.80161
4.80585
4.82891
4.83259
4.86485
4.89012
4.89393
4.9267
4.95551
4.95833
4.97306
4.98542
4.98635
4.9894
4.98901
4.98282
4.96942
4.96541
4.9203
4.85214
4.84272
4.76384
4.62336
4.61492
4.613
4.61224
4.61194
)
;

boundaryField
{
    left
    {
        type            zeroGradient;
    }
    right
    {
        type            zeroGradient;
    }
    interface
    {
        type            fixedValue;
        value           nonuniform List<scalar> 
64
(
2.39197
2.59516
2.59516
2.83469
3.05673
3.05673
3.18889
3.33354
3.33354
3.41778
3.41778
3.5367
3.62929
3.62929
3.76393
3.89259
3.89259
3.97018
4.05785
4.05785
4.10956
4.10956
4.18397
4.24187
4.24187
4.32507
4.40204
4.40204
4.44468
4.44468
4.50504
4.552
4.552
4.62045
4.68558
4.68558
4.72457
4.76822
4.76822
4.79357
4.79357
4.82892
4.85558
4.85558
4.89146
4.92262
4.92262
4.93852
4.95187
4.95187
4.95545
4.95545
4.94944
4.9352
4.9352
4.88756
4.81229
4.81229
4.72994
4.5708
4.5708
4.5708
4.5708
4.5708
)
;
    }
    bottom
    {
        type            fixedValue;
        value           uniform 10;
    }
    defaultFaces
    {
        type            empty;
    }
}


// ************************************************************************* //
