/*--------------------------------*- C++ -*----------------------------------*\
| =========                 |                                                 |
| \\      /  F ield         | OpenFOAM: The Open Source CFD Toolbox           |
|  \\    /   O peration     | Version:  5.x                                   |
|   \\  /    A nd           | Web:      www.OpenFOAM.org                      |
|    \\/     M anipulation  |                                                 |
\*---------------------------------------------------------------------------*/
FoamFile
{
    version     2.0;
    format      ascii;
    class       volScalarField;
    location    "12.6";
    object      gradTx;
}
// * * * * * * * * * * * * * * * * * * * * * * * * * * * * * * * * * * * * * //

dimensions      [0 -1 0 1 0 0 0];

internalField   nonuniform List<scalar> 
6300
(
16.5227
16.8443
17.4823
18.4259
19.6575
21.1521
22.8757
24.7838
26.8211
28.921
31.0073
32.997
34.8049
36.35
37.5622
16.2003
16.5271
17.176
18.137
19.3937
20.9224
22.6903
24.6538
26.7575
28.9337
31.1031
33.178
35.0669
36.6819
37.9467
15.5502
15.8871
16.5569
17.5515
18.857
20.4527
22.3084
24.3827
26.6206
28.9522
31.2925
33.5439
35.6018
37.3631
38.7373
14.5625
14.9132
15.6122
16.6542
18.0295
19.7221
21.707
23.9471
26.3892
28.9611
31.5698
34.1024
36.4323
38.4304
39.981
13.2234
13.5903
14.3238
15.4228
16.8837
18.6982
20.8497
23.3087
26.0272
28.9324
31.9222
34.8626
37.5938
39.9443
41.756
11.5166
11.8999
12.6691
13.8287
15.3836
17.3366
19.6841
22.4099
25.4774
28.8184
32.323
35.8312
39.135
41.996
44.1843
9.4258
9.82293
10.6233
11.8385
13.4847
15.5797
18.1392
21.1687
24.6532
28.54
32.7191
37.0033
41.1181
44.7196
47.4534
6.93711
7.34197
8.16179
9.41666
11.1361
13.3577
16.1233
19.4718
23.4257
27.9682
33.0094
38.3438
43.6137
48.3097
51.8555
4.04285
4.44532
5.26452
6.52946
8.28472
10.5909
13.5237
17.1687
21.6088
26.897
33.0055
39.7478
46.6821
53.0491
57.8616
0.745439
1.13126
1.92081
3.15123
4.88165
7.19683
10.211
14.0695
18.9432
25.0045
32.3668
40.9588
50.3166
59.3419
66.2701
-2.93845
-2.58717
-1.86445
-0.727672
0.893134
3.10305
6.05325
9.95445
15.0891
21.8102
30.4973
41.4028
54.2825
67.7304
78.534
-6.97425
-6.67767
-6.06441
-5.09124
-3.68515
-1.73169
0.943809
4.60523
9.6476
16.6491
26.4085
39.8716
57.6788
78.7619
97.5577
-11.3072
-11.0854
-10.6249
-9.88834
-8.81141
-7.28909
-5.15222
-2.12563
2.24619
8.7294
18.6147
33.9953
57.7977
92.0792
129.919
-15.8625
-15.7325
-15.4618
-15.0264
-14.3836
-13.4616
-12.1386
-10.2024
-7.26734
-2.59325
5.32467
19.6962
47.4361
101.836
193.116
-20.5482
-20.5209
-20.464
-20.3722
-20.2356
-20.0357
-19.7386
-19.2785
-18.5206
-17.1605
-14.4198
-7.97206
10.4129
74.7122
343.564
38.3512
38.7519
38.858
38.6738
38.2134
37.498
36.5538
35.4096
34.0947
32.6373
31.0634
29.3962
27.6559
25.8595
24.0217
22.1547
20.2686
18.3722
16.4728
14.5769
12.69
10.8169
8.96184
7.12839
5.31965
3.5382
1.78616
0.0651585
-1.62358
-3.27924
-4.90141
-6.48996
-8.04506
-9.56701
-11.0562
-12.5131
-13.9379
-15.3308
-16.6916
-18.0202
-19.3161
-20.579
-21.8086
-23.0049
-24.1682
-25.2992
-26.3991
-27.4693
-28.5114
-29.5272
-30.5181
-31.4852
-32.4292
-33.35
-34.2471
-35.1192
-35.9647
-36.7818
-37.5687
-38.3237
-39.0451
-39.7318
-40.3825
-40.996
-41.5707
-42.1044
-42.5941
-43.0356
-43.4236
-43.7517
-44.0123
-44.1975
-44.2987
-44.3076
-44.2168
-44.0197
-43.7112
-43.2878
-42.7482
-42.0927
-41.3238
-40.4459
-39.4654
-38.3908
-37.2323
-36.0023
-34.7151
-33.3862
-32.0326
-30.6716
38.7655
39.1754
39.275
39.0708
38.5798
37.8266
36.841
35.6547
34.2992
32.8044
31.1971
29.5009
27.7358
25.9187
24.0634
22.1816
20.2831
18.376
16.4675
14.5636
12.6698
10.7907
8.93047
7.09261
5.28019
3.49574
1.74136
0.0186392
-1.67123
-3.32749
-4.94978
-6.53809
-8.09269
-9.61404
-11.1027
-12.5591
-13.9838
-15.3767
-16.7379
-18.067
-19.3634
-20.6267
-21.8563
-23.0521
-24.2143
-25.3437
-26.4415
-27.5093
-28.549
-29.5626
-30.5519
-31.5181
-32.4621
-33.3838
-34.2826
-35.1569
-36.005
-36.8248
-37.6142
-38.3714
-39.0947
-39.7831
-40.4356
-41.0513
-41.6292
-42.1673
-42.6629
-43.112
-43.5094
-43.8482
-44.1206
-44.3178
-44.4309
-44.4508
-44.3694
-44.1796
-43.8759
-43.4548
-42.9145
-42.2555
-41.4803
-40.5931
-39.6006
-38.5109
-37.3347
-36.0844
-34.7746
-33.4215
-32.0427
-30.6568
39.6175
40.0448
40.1285
39.8799
39.3226
38.4892
37.4164
36.1424
34.7035
33.1326
31.4582
29.7042
27.8902
26.0321
24.1427
22.2322
20.3094
18.3815
16.4551
14.5356
12.6281
10.7371
8.86662
7.02002
5.20028
3.40988
1.65085
-0.0752447
-1.7673
-3.42464
-5.04705
-6.6347
-8.18812
-9.70805
-11.1953
-12.6508
-14.075
-15.4682
-16.8302
-18.1605
-19.4582
-20.7224
-21.9523
-23.1473
-24.3074
-25.4334
-26.5267
-27.5893
-28.6238
-29.6326
-30.6183
-31.5826
-32.5266
-33.4503
-34.3527
-35.232
-36.0857
-36.9111
-37.7057
-38.4672
-39.1941
-39.8855
-40.541
-41.1607
-41.7443
-42.2907
-42.798
-43.2625
-43.6788
-44.0397
-44.3364
-44.5588
-44.6966
-44.7393
-44.6774
-44.5028
-44.2092
-43.7926
-43.2512
-42.5852
-41.7972
-40.8917
-39.8749
-38.7553
-37.5433
-36.2518
-34.8959
-33.4931
-32.0629
-30.6256
40.9577
41.4081
41.4596
41.1324
40.4624
39.4955
38.2809
36.8669
35.2972
33.6091
31.8331
29.9932
28.1076
26.1902
24.2516
22.3001
20.3425
18.3847
16.4322
14.4898
12.5623
10.6538
8.76813
6.90856
5.07795
3.27873
1.51284
-0.218214
-1.91337
-3.57209
-5.19433
-6.78055
-8.33168
-9.84894
-11.3337
-12.7873
-14.2107
-15.6043
-16.9679
-18.3006
-19.601
-20.8674
-22.0982
-23.2923
-24.4493
-25.5698
-26.6556
-27.7095
-28.735
-29.7357
-30.7151
-31.676
-32.6199
-33.5469
-34.4556
-35.3434
-36.2066
-37.0414
-37.8442
-38.6123
-39.344
-40.0389
-40.6977
-41.3216
-41.9122
-42.47
-42.9942
-43.4819
-43.9276
-44.3232
-44.6584
-44.9212
-45.0986
-45.1778
-45.1471
-44.9967
-44.7192
-44.3098
-43.7666
-43.0901
-42.283
-41.3498
-40.2968
-39.1321
-37.866
-36.5114
-35.0843
-33.604
-32.0927
-30.5746
42.8703
43.3448
43.3352
42.8776
42.0291
40.8575
39.4316
37.8147
36.0605
34.2114
32.2995
30.3472
28.3701
26.3783
24.3787
22.3763
20.3753
18.3799
16.3942
14.4225
12.4689
10.5374
8.63181
6.75518
4.9103
3.09946
1.32456
-0.412918
-2.11195
-3.77207
-5.39344
-6.97689
-8.52391
-10.0365
-11.5169
-12.9672
-14.3891
-15.7834
-17.1499
-18.487
-19.7925
-21.0634
-22.2968
-23.4905
-24.6433
-25.7557
-26.8301
-27.8703
-28.8814
-29.8689
-30.8381
-31.7934
-32.7371
-33.6694
-34.5883
-35.4896
-36.3678
-37.2172
-38.0323
-38.8094
-39.5465
-40.2438
-40.9038
-41.5301
-42.1268
-42.6971
-43.2425
-43.7611
-44.2478
-44.6931
-45.0843
-45.4059
-45.6414
-45.774
-45.7887
-45.6731
-45.4184
-45.019
-44.4734
-43.7825
-42.9497
-41.9799
-40.879
-39.6545
-38.3157
-36.8749
-35.3488
-33.759
-32.1322
-30.4981
45.4876
45.9778
45.8551
45.1847
44.0602
42.5848
40.8567
38.9597
36.9596
34.9037
32.8232
30.7365
28.6532
26.5771
24.5092
22.4499
20.3998
18.3608
16.3359
14.3286
12.3432
10.3837
8.45352
6.55592
4.69346
2.86832
1.08231
-0.663027
-2.36659
-4.02786
-5.64711
-7.22562
-8.76564
-10.2703
-11.7432
-13.1878
-14.607
-16.0024
-17.3738
-18.7188
-20.0335
-21.3131
-22.5523
-23.7471
-24.895
-25.9962
-27.0535
-28.0727
-29.0613
-30.028
-30.981
-31.927
-32.8702
-33.8109
-34.7458
-35.6685
-36.5702
-37.4417
-38.2748
-39.0636
-39.8056
-40.5021
-41.158
-41.7807
-42.3787
-42.9596
-43.5285
-44.086
-44.627
-45.1404
-45.6097
-46.0143
-46.3317
-46.5393
-46.6173
-46.5495
-46.3251
-45.9385
-45.3888
-44.6788
-43.8133
-42.7981
-41.6388
-40.3411
-38.9118
-37.3608
-35.7044
-33.967
-32.1817
-30.3878
49.0139
49.4924
49.1626
48.1448
46.5958
44.6754
42.5242
40.2525
37.9384
35.6307
33.355
31.1203
28.9252
26.7634
24.627
22.5097
20.4079
18.3212
16.2516
14.2031
12.1802
10.1873
8.22816
6.30589
4.42277
2.58071
0.781442
-0.973337
-2.68215
-4.34412
-5.95941
-7.52968
-9.05822
-10.5498
-12.01
-13.4448
-14.8591
-16.256
-17.6353
-18.9938
-20.3249
-21.6204
-22.8716
-24.0709
-25.2137
-26.2993
-27.3316
-28.3188
-29.2726
-30.2063
-31.1333
-32.0644
-33.0064
-33.9602
-34.9206
-35.877
-36.8155
-37.7211
-38.5806
-39.3847
-40.1296
-40.8182
-41.4594
-42.0664
-42.6546
-43.239
-43.8306
-44.434
-45.0453
-45.6507
-46.2277
-46.7478
-47.1793
-47.4909
-47.6552
-47.6509
-47.4649
-47.0922
-46.5345
-45.7983
-44.892
-43.8232
-42.5974
-41.2169
-39.6825
-37.9981
-36.1762
-34.2436
-32.2432
-30.2305
53.7699
54.1698
53.4601
51.869
49.6653
47.0976
44.3644
41.6056
38.9073
36.3111
33.8273
31.4464
29.1489
26.9125
24.7168
22.5468
20.394
18.2563
16.1366
14.0403
11.9736
9.94192
7.94958
5.99933
4.09284
2.23137
0.416446
-1.34986
-3.06518
-4.72757
-6.3365
-7.89378
-9.40396
-10.8742
-12.3133
-13.7311
-15.1362
-16.5345
-17.9268
-19.3079
-20.6674
-21.9914
-23.2652
-24.4758
-25.6145
-26.6789
-27.6741
-28.6125
-29.5122
-30.3941
-31.2793
-32.1857
-33.125
-34.0995
-35.1007
-36.111
-37.1077
-38.0665
-38.9658
-39.7904
-40.5342
-41.2022
-41.8094
-42.3784
-42.9357
-43.5074
-44.1149
-44.7703
-45.4716
-46.2011
-46.9271
-47.6082
-48.1989
-48.6542
-48.9353
-49.0134
-48.873
-48.5116
-47.9368
-47.1625
-46.2039
-45.0739
-43.7783
-42.3137
-40.6689
-38.8328
-36.807
-34.6174
-32.3221
-30.006
60.278
60.444
59.0255
56.4744
53.2577
49.7571
46.2404
42.8711
39.7284
36.8291
34.1508
31.6517
29.284
27.0023
24.7692
22.5586
20.3577
18.1652
15.9877
13.8348
11.7162
9.63974
7.61018
5.62959
3.69796
1.81492
-0.0186098
-1.79984
-3.52443
-5.18796
-6.78789
-8.3256
-9.80718
-11.2431
-12.6472
-14.0353
-15.4228
-16.8214
-18.2341
-19.653
-21.0607
-22.4342
-23.7493
-24.9839
-26.1221
-27.1578
-28.0979
-28.9616
-29.7771
-30.5768
-31.3942
-32.2591
-33.1926
-34.2
-35.267
-36.3643
-37.454
-38.4969
-39.458
-40.3118
-41.0476
-41.6732
-42.2139
-42.7069
-43.1955
-43.7236
-44.3298
-45.0398
-45.8567
-46.7562
-47.6905
-48.5984
-49.4127
-50.0679
-50.5071
-50.69
-50.5987
-50.2375
-49.6259
-48.7912
-47.7622
-46.5624
-45.2021
-43.6697
-41.93
-39.9404
-37.6733
-35.1427
-32.4308
-29.68
69.4361
68.9987
66.2207
62.0371
57.258
52.4383
47.903
43.8092
40.1982
37.0281
34.2157
31.6673
29.2946
27.0217
24.7886
22.5561
20.3088
18.0523
15.8028
13.5794
11.398
9.26974
7.20008
5.18919
3.23297
1.32711
-0.529033
-2.33139
-4.07159
-5.73988
-7.32882
-8.83814
-10.276
-11.6577
-13.0041
-14.3402
-15.6935
-17.0875
-18.5322
-20.0139
-21.5027
-22.9609
-24.3491
-25.6306
-26.7767
-27.7738
-28.6312
-29.3799
-30.0641
-30.7336
-31.4401
-32.2334
-33.1534
-34.214
-35.3894
-36.6279
-37.867
-39.0447
-40.1042
-41.0025
-41.7191
-42.266
-42.6865
-43.041
-43.3978
-43.8268
-44.3949
-45.1545
-46.1225
-47.2602
-48.4915
-49.7227
-50.8551
-51.7918
-52.4472
-52.7606
-52.7126
-52.3234
-51.6355
-50.6993
-49.5659
-48.2813
-46.873
-45.3236
-43.5504
-41.4468
-38.9188
-35.9285
-32.595
-29.188
82.9086
80.9224
75.4384
68.4567
61.3158
54.7092
48.9286
44.0512
40.0322
36.7112
33.8998
31.4293
29.1611
26.9829
24.8067
22.5745
20.2727
17.9287
15.5801
13.2633
11.0029
8.81514
6.70515
4.66993
2.69536
0.767642
-1.11695
-2.95246
-4.72228
-6.406
-7.98432
-9.45345
-10.8255
-12.1231
-13.3754
-14.6204
-15.905
-17.2805
-18.7768
-20.3644
-21.9886
-23.5878
-25.1022
-26.4719
-27.6455
-28.5907
-29.3204
-29.8908
-30.3718
-30.8367
-31.3605
-32.025
-32.9112
-34.0622
-35.4205
-36.8899
-38.3682
-39.7619
-40.982
-41.9545
-42.6342
-43.0404
-43.2534
-43.3713
-43.4957
-43.7292
-44.1834
-44.9686
-46.1433
-47.6289
-49.2922
-50.9885
-52.5787
-53.9202
-54.8792
-55.3512
-55.317
-54.8388
-54.0019
-52.8908
-51.5866
-50.1776
-48.7467
-47.2992
-45.6459
-43.5639
-40.8294
-37.2081
-32.8645
-28.3925
104.091
97.8813
86.8114
75.1043
64.604
55.79
48.6531
43.0565
38.8604
35.6597
33.0923
30.8995
28.8975
26.9408
24.905
22.6928
20.2969
17.8113
15.3115
12.8656
10.5032
8.2483
6.10241
4.06322
2.09023
0.146021
-1.77553
-3.66812
-5.49689
-7.22382
-8.79692
-10.2084
-11.4823
-12.6533
-13.7572
-14.8431
-15.9857
-17.2992
-18.8895
-20.6617
-22.5104
-24.3365
-26.0633
-27.5952
-28.8428
-29.7173
-30.2388
-30.5299
-30.7023
-30.8546
-31.0778
-31.4968
-32.2874
-33.6112
-35.2913
-37.1385
-38.9908
-40.7286
-42.216
-43.3274
-43.9424
-44.0927
-43.9565
-43.6918
-43.436
-43.3132
-43.4948
-44.2213
-45.7158
-47.7414
-50.0445
-52.4065
-54.6598
-56.5985
-58.012
-58.67
-58.56
-57.8702
-56.7626
-55.3597
-53.7576
-52.1047
-50.6439
-49.5704
-48.3584
-46.6202
-44.0167
-39.5272
-33.3187
-26.9611
140.761
121.838
99.1004
80.012
65.4622
54.4546
46.1586
40.0441
36.2545
33.6953
31.7451
30.0942
28.5678
27.0123
25.2566
23.0751
20.4499
17.714
14.9647
12.3472
9.8486
7.5242
5.34588
3.36104
1.44355
-0.508271
-2.47583
-4.47564
-6.41809
-8.26307
-9.84215
-11.1613
-12.2871
-13.2799
-14.1646
-14.9842
-15.82
-16.9188
-18.7403
-20.8483
-23.0644
-25.2278
-27.3048
-29.1274
-30.5771
-31.3519
-31.4884
-31.3395
-31.0613
-30.7702
-30.5126
-30.4328
-30.8955
-32.6467
-34.9208
-37.3794
-39.7775
-42.0552
-43.9909
-45.4147
-45.9194
-45.5568
-44.8443
-43.9987
-43.1842
-42.4584
-42.021
-42.3675
-44.5228
-47.4536
-50.7114
-53.9804
-57.193
-60.0327
-62.2318
-63.0939
-62.6373
-61.5024
-59.9478
-58.1149
-56.0008
-53.7547
-51.9826
-52.0404
-51.8279
-50.9218
-49.9192
-44.321
-33.987
-24.0065
213.08
151.287
106.133
78.3832
61.2186
49.2136
40.5219
33.6832
31.8763
30.8535
29.9661
29.109
28.2798
27.3715
26.2206
24.0961
20.762
17.6354
14.4281
11.6573
8.94289
6.58962
4.31059
2.56179
0.84625
-1.13991
-3.1297
-5.36569
-7.47957
-9.68511
-11.2615
-12.3925
-13.2832
-14.062
-14.6654
-15.1017
-15.2755
-15.4972
-18.1784
-20.879
-23.6939
-26.243
-28.912
-31.1964
-33.2825
-33.9051
-33.1486
-32.3348
-31.4383
-30.637
-29.6908
-28.5875
-27.6476
-30.9289
-34.2844
-37.7067
-40.7373
-43.8739
-46.5022
-48.8249
-49.1447
-47.5241
-45.9232
-44.2601
-42.8043
-41.1876
-39.4176
-37.9088
-42.2125
-46.6942
-51.3615
-55.635
-60.2626
-64.3885
-68.3763
-69.416
-67.6904
-65.7384
-63.5332
-61.2742
-58.4336
-54.7213
-50.6857
-54.899
-56.2957
-55.3616
-62.4387
-55.9341
-34.1459
-17.0366
379.209
156.771
88.1044
61.5098
49.5445
39.2006
32.2161
20.0757
26.3685
27.8158
28.1432
28.083
28.1049
28.0797
28.586
26.8587
20.7746
17.6728
13.2625
10.8861
7.51687
5.54795
2.51168
1.71454
0.638604
-1.76632
-3.429
-6.43152
-8.40895
-12.0129
-13.3222
-13.9695
-14.4402
-15.0966
-15.4065
-15.5968
-14.662
-10.5336
-17.5881
-20.745
-24.7055
-27.0854
-31.0725
-33.5504
-38.095
-38.4438
-34.8907
-33.4486
-31.678
-30.7121
-29.0947
-26.5063
-18.3208
-29.1038
-33.5511
-38.5975
-41.5439
-46.4238
-49.4533
-55.1183
-55.1638
-49.4623
-47.0912
-44.2226
-42.6556
-40.137
-36.4376
-25.0797
-39.6453
-45.6671
-52.5781
-56.779
-64.0536
-68.9425
-78.7654
-79.7192
-73.0687
-70.3383
-67.1953
-65.2702
-62.121
-56.1528
-37.5096
-61.8128
-64.1193
-48.2646
-94.515
-89.5547
-27.5667
0.703238
-29.1875
-27.6067
-26.092
-24.6647
-23.3414
-22.1337
-21.0491
-20.0912
-19.2606
-18.5563
-17.9757
-17.516
-17.1743
-16.948
-16.8353
-29.1467
-27.5403
-26.0043
-24.5604
-23.2253
-22.0104
-20.9222
-19.9635
-19.1342
-18.4322
-17.8546
-17.3978
-17.0586
-16.8341
-16.7224
-29.062
-27.4033
-25.824
-24.347
-22.9889
-21.7601
-20.6656
-19.7062
-18.8801
-18.1837
-17.6124
-17.1619
-16.828
-16.6073
-16.4976
-28.9269
-27.1868
-25.5409
-24.0142
-22.6229
-21.3753
-20.2735
-19.3154
-18.4962
-17.8096
-17.2493
-16.8092
-16.4839
-16.2694
-16.1629
-28.7305
-26.8757
-25.1384
-23.5459
-22.1129
-20.8443
-19.7374
-18.7855
-17.9793
-17.3091
-16.7658
-16.3413
-16.0288
-15.8233
-15.7214
-28.4557
-26.4466
-24.5909
-22.9177
-21.4384
-20.1512
-19.0462
-18.1095
-17.326
-16.6815
-16.1634
-15.7612
-15.4665
-15.2734
-15.1779
-28.0758
-25.8637
-23.8605
-22.0953
-20.5714
-19.2757
-18.1866
-17.2801
-16.5337
-15.9274
-15.4449
-15.0732
-14.8025
-14.6258
-14.5385
-27.5481
-25.0718
-22.8917
-21.0312
-19.4762
-18.1934
-17.144
-16.2905
-15.6009
-15.0492
-14.6154
-14.2841
-14.0444
-13.8885
-13.8118
-26.8013
-23.9833
-21.6031
-19.6613
-18.1084
-16.8777
-15.9052
-15.1367
-14.5299
-14.0531
-13.6831
-13.4033
-13.2022
-13.072
-13.008
-25.7091
-22.4566
-19.8756
-17.9024
-16.418
-15.3037
-14.4621
-13.821
-13.3288
-12.95
-12.6604
-12.4436
-12.2889
-12.1891
-12.1402
-24.0333
-20.2582
-17.5402
-15.6545
-14.3574
-13.4566
-12.8185
-12.3562
-12.0142
-11.7576
-11.5647
-11.4218
-11.3204
-11.2552
-11.2232
-21.2956
-17.0027
-14.372
-12.8179
-11.9004
-11.3464
-10.9991
-10.771
-10.6139
-10.5014
-10.4189
-10.3584
-10.3155
-10.2878
-10.2743
-16.4903
-12.0847
-10.1272
-9.34437
-9.07964
-9.02959
-9.06031
-9.11453
-9.16893
-9.21511
-9.25104
-9.27729
-9.29524
-9.3063
-9.31155
-7.45977
-4.71846
-4.70764
-5.35263
-6.04411
-6.63185
-7.09789
-7.45777
-7.73206
-7.93891
-8.0927
-8.20433
-8.28174
-8.33046
-8.35397
10.386
5.37834
1.3678
-1.31432
-3.11225
-4.35573
-5.24155
-5.88653
-6.36254
-6.71566
-6.97643
-7.16548
-7.29682
-7.37971
-7.41981
-24.869
-24.9378
-25.0817
-25.3142
-25.6583
-26.1515
-26.855
-27.8718
-29.3885
-31.7797
-35.9177
-44.2777
-65.614
-137.66
-448.623
-28.7494
-28.9013
-29.2185
-29.7296
-30.4847
-31.5657
-33.1071
-35.3369
-38.6616
-43.8572
-52.5295
-68.2716
-99.5144
-164.811
-285.262
-32.5245
-32.7504
-33.2207
-33.9758
-35.085
-36.6603
-38.8815
-42.0421
-46.6355
-53.5206
-64.2317
-81.501
-109.766
-153.658
-205.546
-36.1431
-36.43
-37.0255
-37.9763
-39.3617
-41.3065
-44.0037
-47.7524
-53.0183
-60.5272
-71.3799
-87.094
-109.166
-136.953
-161.862
-39.5626
-39.8954
-40.5836
-41.6753
-43.2503
-45.4304
-48.396
-52.4091
-57.8435
-65.2116
-75.1519
-88.2719
-104.597
-122.246
-135.476
-42.7513
-43.1143
-43.8617
-45.0388
-46.7187
-49.0089
-52.0609
-56.079
-61.3261
-68.1096
-76.7156
-87.2238
-99.109
-110.606
-118.276
-45.6881
-46.0663
-46.8416
-48.0534
-49.7633
-52.0586
-55.055
-58.8956
-63.7418
-69.7421
-76.9582
-85.2194
-93.8902
-101.624
-106.403
-48.3624
-48.7426
-49.5186
-50.7221
-52.4014
-54.6216
-57.4628
-61.0139
-65.3561
-70.5303
-76.4749
-82.9302
-89.3219
-94.6938
-97.8474
-50.7728
-51.1442
-51.8989
-53.0605
-54.664
-56.7533
-59.3778
-62.5827
-66.3928
-70.7835
-75.6369
-80.6852
-85.4616
-89.3038
-91.4819
-52.9255
-53.2797
-53.9966
-55.0923
-56.5892
-58.5135
-60.8897
-63.7312
-67.0263
-70.7155
-74.6634
-78.6289
-82.25
-85.0693
-86.6289
-54.8322
-55.1636
-55.8314
-56.8454
-58.2177
-59.96
-62.0784
-64.5649
-67.3861
-70.4678
-73.6776
-76.8117
-79.5951
-81.7095
-82.8587
-56.5089
-56.8138
-57.426
-58.3498
-59.5893
-61.1454
-63.0114
-65.166
-67.565
-70.131
-72.7443
-75.2381
-77.4046
-79.0199
-79.8864
-57.974
-58.2506
-58.8042
-59.635
-60.741
-62.1157
-63.7441
-65.5975
-67.6279
-69.7614
-71.8941
-73.8915
-75.597
-76.8501
-77.5158
-59.2471
-59.4951
-59.9901
-60.7291
-61.7062
-62.9099
-64.3205
-65.9061
-67.6191
-69.3924
-71.1377
-72.7476
-74.1033
-75.0882
-75.6075
-60.348
-60.5682
-61.0065
-61.658
-62.5141
-63.5605
-64.7753
-66.1262
-67.5685
-69.0428
-70.4753
-71.7803
-72.8671
-73.6496
-74.0597
-61.296
-61.4899
-61.8748
-62.4448
-63.1898
-64.0941
-65.1355
-66.283
-67.4957
-68.7222
-69.9013
-70.9646
-71.8421
-72.4694
-72.7967
-62.1094
-62.2789
-62.6147
-63.1102
-63.7548
-64.5326
-65.4221
-66.3944
-67.4133
-68.4345
-69.4076
-70.2779
-70.9908
-71.4976
-71.761
-62.8052
-62.9525
-63.2437
-63.6722
-64.2273
-64.8937
-65.6511
-66.4736
-67.3291
-68.1803
-68.9854
-69.7004
-70.2827
-70.6946
-70.9082
-63.3987
-63.526
-63.7774
-64.1463
-64.6224
-65.1915
-65.8351
-66.5298
-67.248
-67.9581
-68.6256
-69.2151
-69.6928
-70.0295
-70.2036
-63.9039
-64.0135
-64.2295
-64.5459
-64.953
-65.4377
-65.9834
-66.5696
-67.1726
-67.7655
-68.3201
-68.8075
-69.2008
-69.4772
-69.6198
-64.333
-64.427
-64.6121
-64.8825
-65.2296
-65.6416
-66.1036
-66.5979
-67.1041
-67.5996
-68.0611
-68.4651
-68.79
-69.0178
-69.1351
-64.6969
-64.7772
-64.9353
-65.1659
-65.4612
-65.8107
-66.2014
-66.6179
-67.0429
-67.4574
-67.8419
-68.1776
-68.4468
-68.635
-68.7319
-65.005
-65.0735
-65.2082
-65.4044
-65.6551
-65.9512
-66.2813
-66.6321
-66.9889
-67.3359
-67.6568
-67.9361
-68.1597
-68.3157
-68.396
-65.2655
-65.3238
-65.4383
-65.605
-65.8176
-66.0681
-66.3468
-66.6422
-66.9419
-67.2325
-67.5006
-67.7335
-67.9194
-68.0491
-68.1157
-65.4856
-65.5351
-65.6323
-65.7736
-65.9537
-66.1655
-66.4006
-66.6493
-66.9011
-67.1446
-67.3689
-67.5633
-67.7183
-67.8262
-67.8816
-65.6713
-65.7133
-65.7957
-65.9154
-66.0678
-66.2467
-66.445
-66.6544
-66.8659
-67.0702
-67.258
-67.4205
-67.5499
-67.6399
-67.686
-65.8278
-65.8634
-65.9333
-66.0346
-66.1633
-66.3144
-66.4817
-66.658
-66.8358
-67.0072
-67.1646
-67.3006
-67.4088
-67.484
-67.5225
-65.9597
-65.9898
-66.0489
-66.1346
-66.2434
-66.371
-66.512
-66.6605
-66.8101
-66.9541
-67.0861
-67.2
-67.2906
-67.3535
-67.3857
-66.0706
-66.0961
-66.1461
-66.2186
-66.3105
-66.4183
-66.5372
-66.6623
-66.7882
-66.9092
-67.0201
-67.1157
-67.1916
-67.2443
-67.2713
-66.1637
-66.1853
-66.2277
-66.289
-66.3667
-66.4577
-66.5581
-66.6636
-66.7696
-66.8715
-66.9647
-67.045
-67.1088
-67.153
-67.1756
-66.2419
-66.2602
-66.2961
-66.3479
-66.4137
-66.4906
-66.5754
-66.6645
-66.7539
-66.8398
-66.9183
-66.9859
-67.0395
-67.0766
-67.0957
-66.3074
-66.3229
-66.3533
-66.3973
-66.453
-66.5181
-66.5898
-66.6651
-66.7407
-66.8132
-66.8794
-66.9364
-66.9816
-67.0129
-67.0289
-66.3622
-66.3753
-66.4011
-66.4384
-66.4857
-66.541
-66.6018
-66.6656
-66.7295
-66.7909
-66.8469
-66.8951
-66.9333
-66.9598
-66.9733
-66.4077
-66.419
-66.4409
-66.4727
-66.5129
-66.5599
-66.6117
-66.6659
-66.7202
-66.7723
-66.8199
-66.8608
-66.8932
-66.9156
-66.9271
-66.4455
-66.4551
-66.4739
-66.5011
-66.5355
-66.5756
-66.6198
-66.6661
-66.7125
-66.757
-66.7975
-66.8324
-66.86
-66.8791
-66.8889
-66.4767
-66.4849
-66.5011
-66.5244
-66.554
-66.5885
-66.6265
-66.6663
-66.7061
-66.7443
-66.7791
-66.809
-66.8327
-66.8491
-66.8574
-66.5021
-66.5092
-66.5232
-66.5435
-66.5691
-66.599
-66.6319
-66.6664
-66.7009
-66.7339
-66.764
-66.7899
-66.8104
-66.8246
-66.8318
-66.5225
-66.5288
-66.541
-66.5588
-66.5813
-66.6075
-66.6363
-66.6665
-66.6967
-66.7256
-66.7519
-66.7746
-66.7925
-66.8049
-66.8112
-66.5386
-66.5441
-66.5551
-66.5708
-66.5908
-66.6141
-66.6397
-66.6665
-66.6933
-66.719
-66.7424
-66.7625
-66.7784
-66.7894
-66.7951
-66.5508
-66.5558
-66.5657
-66.58
-66.5981
-66.6191
-66.6423
-66.6666
-66.6908
-66.714
-66.7352
-66.7534
-66.7677
-66.7777
-66.7828
-66.5594
-66.5641
-66.5733
-66.5865
-66.6032
-66.6227
-66.6442
-66.6666
-66.689
-66.7105
-66.7301
-66.7469
-66.7601
-66.7693
-66.774
-66.5649
-66.5693
-66.578
-66.5906
-66.6065
-66.625
-66.6453
-66.6666
-66.6879
-66.7083
-66.7268
-66.7428
-66.7554
-66.7641
-66.7686
-66.5672
-66.5716
-66.5801
-66.5923
-66.6079
-66.6259
-66.6458
-66.6666
-66.6874
-66.7073
-66.7254
-66.741
-66.7533
-66.7618
-66.7662
-66.5666
-66.571
-66.5795
-66.5919
-66.6075
-66.6257
-66.6457
-66.6666
-66.6875
-66.7076
-66.7258
-66.7415
-66.7539
-66.7625
-66.7669
-66.5629
-66.5674
-66.5763
-66.5891
-66.6053
-66.6242
-66.6449
-66.6666
-66.6883
-66.7091
-66.728
-66.7443
-66.7571
-66.766
-66.7705
-66.5561
-66.5609
-66.5703
-66.584
-66.6012
-66.6214
-66.6435
-66.6666
-66.6897
-66.7119
-66.732
-66.7494
-66.7631
-66.7726
-66.7774
-66.5459
-66.5512
-66.5615
-66.5764
-66.5952
-66.6172
-66.6413
-66.6666
-66.6918
-66.716
-66.7381
-66.757
-66.772
-66.7823
-66.7876
-66.5321
-66.5379
-66.5494
-66.566
-66.587
-66.6115
-66.6384
-66.6665
-66.6947
-66.7217
-66.7462
-66.7673
-66.784
-66.7956
-66.8015
-66.5142
-66.5208
-66.5338
-66.5526
-66.5764
-66.6041
-66.6346
-66.6665
-66.6984
-66.729
-66.7568
-66.7808
-66.7997
-66.8128
-66.8195
-66.4917
-66.4993
-66.5142
-66.5357
-66.563
-66.5948
-66.6298
-66.6664
-66.7031
-66.7382
-66.7702
-66.7977
-66.8194
-66.8345
-66.8422
-66.4639
-66.4727
-66.4899
-66.5149
-66.5465
-66.5833
-66.6239
-66.6663
-66.7088
-66.7495
-66.7866
-66.8185
-66.8438
-66.8612
-66.8702
-66.4299
-66.4402
-66.4604
-66.4895
-66.5263
-66.5693
-66.6166
-66.6661
-66.7158
-66.7633
-66.8067
-66.844
-66.8735
-66.8939
-66.9044
-66.3889
-66.4009
-66.4245
-66.4586
-66.5018
-66.5523
-66.6078
-66.6659
-66.7242
-66.7801
-66.831
-66.8748
-66.9095
-66.9336
-66.9459
-66.3395
-66.3536
-66.3814
-66.4215
-66.4724
-66.5317
-66.5971
-66.6656
-66.7343
-66.8002
-66.8603
-66.912
-66.953
-66.9814
-66.9959
-66.2802
-66.2969
-66.3296
-66.377
-66.437
-66.5071
-66.5842
-66.6652
-66.7464
-66.8243
-66.8955
-66.9567
-67.0052
-67.0388
-67.056
-66.2094
-66.2291
-66.2677
-66.3237
-66.3946
-66.4774
-66.5688
-66.6646
-66.7608
-66.8531
-66.9375
-67.0101
-67.0677
-67.1076
-67.128
-66.1248
-66.1481
-66.1938
-66.26
-66.3438
-66.442
-66.5501
-66.6637
-66.7779
-66.8875
-66.9877
-67.074
-67.1425
-67.1899
-67.2142
-66.0241
-66.0516
-66.1057
-66.1839
-66.2833
-66.3995
-66.5277
-66.6625
-66.7981
-66.9283
-67.0475
-67.1503
-67.2318
-67.2884
-67.3173
-65.9042
-65.9368
-66.0007
-66.0933
-66.2109
-66.3487
-66.5008
-66.6609
-66.8219
-66.9769
-67.1188
-67.2412
-67.3385
-67.406
-67.4405
-65.7616
-65.8002
-65.8758
-65.9854
-66.1246
-66.2879
-66.4684
-66.6585
-66.85
-67.0345
-67.2036
-67.3497
-67.4658
-67.5464
-67.5878
-65.5923
-65.6379
-65.7272
-65.8568
-66.0217
-66.2151
-66.4292
-66.6551
-66.8829
-67.1027
-67.3045
-67.4789
-67.6177
-67.7142
-67.7637
-65.3915
-65.4452
-65.5507
-65.7038
-65.8988
-66.128
-66.382
-66.6503
-66.9215
-67.1835
-67.4244
-67.6329
-67.799
-67.9146
-67.9739
-65.1532
-65.2166
-65.341
-65.5218
-65.7523
-66.0235
-66.3248
-66.6436
-66.9664
-67.2789
-67.5668
-67.8163
-68.0154
-68.1541
-68.2253
-64.8711
-64.9456
-65.0921
-65.3053
-65.5775
-65.8983
-66.2554
-66.6341
-67.0184
-67.3914
-67.7357
-68.0348
-68.2738
-68.4405
-68.5261
-64.5371
-64.6247
-64.7969
-65.0479
-65.3688
-65.748
-66.1709
-66.6207
-67.0784
-67.5238
-67.936
-68.295
-68.5824
-68.7831
-68.8863
-64.1424
-64.245
-64.4471
-64.742
-65.1198
-65.5672
-66.0678
-66.6018
-67.147
-67.6792
-68.1733
-68.6048
-68.9512
-69.1935
-69.3182
-63.6763
-63.7963
-64.0328
-64.3784
-64.8224
-65.3496
-65.9414
-66.5751
-67.2245
-67.861
-68.4541
-68.9738
-69.3922
-69.6855
-69.8367
-63.127
-63.2668
-63.5427
-63.9467
-64.4671
-65.0872
-65.786
-66.5374
-67.3111
-68.0728
-68.7859
-69.4132
-69.9199
-70.2762
-70.4601
-62.4805
-62.6429
-62.9635
-63.4343
-64.0425
-64.7702
-65.5939
-66.4843
-67.406
-68.3184
-69.1772
-69.9364
-70.5522
-70.9865
-71.2112
-61.7214
-61.909
-62.2801
-62.8265
-63.5349
-64.3865
-65.3556
-66.4095
-67.5074
-68.6013
-69.6375
-70.5591
-71.3104
-71.8424
-72.1183
-60.8321
-61.0477
-61.475
-62.1062
-62.928
-63.9212
-65.0586
-66.3041
-67.6114
-68.9243
-70.1775
-71.3
-72.2209
-72.8761
-73.2169
-59.7931
-60.0393
-60.5285
-61.2535
-62.2022
-63.3557
-64.6864
-66.1556
-67.7117
-69.2888
-70.8082
-72.181
-73.3158
-74.128
-74.5522
-58.5832
-58.8623
-59.4182
-60.2455
-61.3341
-62.6672
-64.2181
-65.9469
-67.7972
-69.6934
-71.5405
-73.2272
-74.6346
-75.6495
-76.182
-57.1795
-57.4932
-58.1196
-59.0561
-60.2963
-61.8275
-63.6262
-65.6539
-67.8509
-70.1322
-72.3842
-74.4674
-76.2258
-77.5058
-78.1815
-55.5581
-55.9069
-56.6057
-57.6558
-59.0566
-60.802
-62.8754
-65.2432
-67.8461
-70.5912
-73.345
-75.933
-78.1493
-79.7817
-80.6502
-53.6945
-54.0776
-54.8479
-56.012
-57.5776
-59.5487
-61.9203
-64.6692
-67.7425
-71.0441
-74.421
-77.6567
-80.4782
-82.5879
-83.7219
-51.5649
-51.9797
-52.8166
-54.0896
-55.817
-58.0174
-60.7032
-63.8699
-67.4804
-71.4446
-75.595
-79.6679
-83.3013
-86.0716
-87.581
-49.1475
-49.5886
-50.4826
-51.8517
-53.728
-56.1491
-59.1522
-62.7624
-66.9728
-71.7156
-76.8228
-81.9841
-86.7236
-90.4308
-92.4881
-46.4238
-46.8834
-47.8187
-49.2618
-51.2607
-53.8766
-57.1798
-61.2381
-66.0954
-71.7337
-78.0129
-84.5933
-90.8626
-95.9357
-98.8236
-43.3811
-43.8479
-44.8022
-46.2862
-48.365
-51.127
-54.683
-59.1589
-64.6757
-71.3065
-78.9939
-87.4182
-95.8322
-102.958
-107.164
-40.0144
-40.474
-41.418
-42.8978
-44.9949
-47.8261
-51.5475
-56.3568
-62.4825
-70.1455
-79.463
-90.2502
-101.696
-112.007
-118.426
-36.3288
-36.764
-37.6619
-39.0808
-41.1154
-43.907
-47.6567
-52.6407
-59.2217
-67.8357
-78.9113
-92.6243
-108.349
-123.757
-134.145
-32.3413
-32.7328
-33.5443
-34.8364
-36.7103
-39.3227
-42.9087
-47.8158
-54.549
-63.8164
-76.528
-93.6011
-115.222
-138.993
-157.078
-28.082
-28.4103
-29.0933
-30.1881
-31.7925
-34.0625
-37.2436
-41.723
-48.1165
-57.4054
-71.1157
-91.4195
-120.602
-158.176
-192.57
-23.5951
-23.8417
-24.3565
-25.1863
-26.4127
-28.1698
-30.677
-34.301
-39.6737
-47.9241
-61.1247
-83.0721
-120.154
-179.566
-251.946
-18.9371
-19.0873
-19.4013
-19.9094
-20.6647
-21.7565
-23.3353
-25.6649
-29.2326
-35.0053
-45.0596
-64.2149
-104.197
-191.951
-361.583
-14.1753
-14.2194
-14.3117
-14.4611
-14.6833
-15.0051
-15.4725
-16.1693
-17.2607
-19.1135
-22.6747
-30.8944
-55.0654
-147.475
-589.018
-9.3832
-9.31848
-9.18286
-8.9626
-8.63321
-8.15309
-7.45095
-6.4
-4.76044
-2.03583
2.94508
13.503
41.4543
139.455
587.1
-4.63647
-4.46719
-4.11316
-3.54025
-2.68815
-1.45565
0.327927
2.95993
6.9857
13.4744
24.6914
45.8211
89.3276
183.575
363.914
-0.00773862
0.255359
0.804099
1.68779
2.9923
4.8586
7.51706
11.3513
17.0208
25.7007
39.5534
62.5989
101.963
167.906
265.975
33.6451
13.7197
5.71922
1.57699
-0.932939
-2.59707
-3.76063
-4.60103
-5.21971
-5.67893
-6.01884
-6.26603
-6.43831
-6.54733
-6.60017
21.2677
13.0214
6.99567
3.07188
0.460907
-1.34588
-2.63871
-3.58635
-4.29146
-4.81927
-5.21263
-5.50032
-5.70172
-5.82958
-5.89167
14.6167
10.7811
6.81236
3.65508
1.29629
-0.451604
-1.75649
-2.74005
-3.4863
-4.05292
-4.47976
-4.79449
-5.01614
-5.15745
-5.22625
10.6291
8.63299
6.06551
3.68373
1.70742
0.135032
-1.09738
-2.05853
-2.80585
-3.3836
-3.82472
-4.15324
-4.38631
-4.53564
-4.60855
8.02774
6.8816
5.18966
3.43077
1.83803
0.485576
-0.626654
-1.52548
-2.24314
-2.80914
-3.24784
-3.57825
-3.81458
-3.96685
-4.04144
6.2222
5.50919
4.36025
3.06239
1.80177
0.669292
-0.304117
-1.11822
-1.78573
-2.32306
-2.74613
-3.06857
-3.3012
-3.45198
-3.52609
4.91174
4.43945
3.63423
2.66814
1.67649
0.742538
-0.0922048
-0.812766
-1.41869
-1.91631
-2.31427
-2.62122
-2.84464
-2.99032
-3.06218
3.92922
3.60089
3.01989
2.2916
1.51114
0.746882
0.0404151
-0.58691
-1.12686
-1.57874
-1.94559
-2.23185
-2.44203
-2.5799
-2.64814
3.17467
2.93776
2.5078
1.95126
1.33453
0.711084
0.118075
-0.421723
-0.89619
-1.30022
-1.63286
-1.89531
-2.08961
-2.2178
-2.28147
2.58463
2.40865
2.0836
1.65271
1.16257
0.654142
0.158783
-0.301902
-0.714423
-1.07126
-1.36885
-1.60608
-1.78307
-1.90049
-1.959
2.11676
1.98304
1.73289
1.39527
1.00331
0.588117
0.175408
-0.215524
-0.571322
-0.88342
-1.14676
-1.35866
-1.5179
-1.62408
-1.67714
1.74174
1.63828
1.44289
1.17557
0.86017
0.520363
0.176909
-0.153542
-0.458563
-0.729435
-0.960382
-1.1478
-1.28956
-1.38453
-1.43212
1.43856
1.35733
1.20285
0.989238
0.733972
0.455136
0.169379
-0.109219
-0.369516
-0.60317
-0.804226
-0.968623
-1.09371
-1.17786
-1.22014
1.19176
1.12724