/*--------------------------------*- C++ -*----------------------------------*\
| =========                 |                                                 |
| \\      /  F ield         | OpenFOAM: The Open Source CFD Toolbox           |
|  \\    /   O peration     | Version:  5.x                                   |
|   \\  /    A nd           | Web:      www.OpenFOAM.org                      |
|    \\/     M anipulation  |                                                 |
\*---------------------------------------------------------------------------*/
FoamFile
{
    version     2.0;
    format      ascii;
    class       volScalarField;
    location    "11.9";
    object      gradTy;
}
// * * * * * * * * * * * * * * * * * * * * * * * * * * * * * * * * * * * * * //

dimensions      [0 -1 0 1 0 0 0];

internalField   nonuniform List<scalar> 
6300
(
1011.12
1033.54
1056.48
1080.26
1105.21
1131.63
1159.78
1189.88
1222.11
1256.57
1293.28
1332.18
1373.09
1415.78
1459.88
-0.258921
-0.772663
-1.27371
-1.75238
-2.19724
-2.5947
-2.92883
-3.18169
-3.33436
-3.36857
-3.26936
-3.0281
-2.64568
-2.13477
-1.52021
-0.436104
-1.30189
-2.14776
-2.95825
-3.71481
-4.39493
-4.97169
-5.41413
-5.68874
-5.76232
-5.60645
-5.2033
-4.55186
-3.6728
-2.60997
-0.61971
-1.85105
-3.05716
-4.21801
-5.30879
-6.29847
-7.1488
-7.81433
-8.24409
-8.38543
-8.19072
-7.62672
-6.68558
-5.39454
-3.82016
-0.811385
-2.4254
-4.01183
-5.5478
-7.00384
-8.34133
-9.51065
-10.4503
-11.0878
-11.3446
-11.1442
-10.4272
-9.16916
-7.3996
-5.21316
-1.0118
-3.02732
-5.01689
-6.95749
-8.81734
-10.5523
-12.1021
-13.3881
-14.3122
-14.7606
-14.6143
-13.7686
-12.1641
-9.82141
-6.86929
-1.2203
-3.65518
-6.0709
-8.44785
-10.7557
-12.9482
-14.9574
-16.6878
-18.0121
-18.7713
-18.7834
-17.8689
-15.897
-12.8526
-8.90096
-1.43451
-4.30217
-7.16361
-10.0072
-12.8093
-15.5273
-18.0912
-20.3933
-22.2771
-23.5289
-23.8791
-23.0263
-20.7023
-16.791
-11.4783
-1.65006
-4.95534
-8.27405
-11.608
-14.9469
-18.2604
-21.4867
-24.5168
-27.1738
-29.1879
-30.1776
-29.6545
-27.0949
-22.1307
-14.8839
-1.86044
-5.59502
-9.36916
-13.2038
-17.1098
-21.0804
-25.078
-29.0134
-32.713
-35.871
-37.9884
-38.3193
-35.8917
-29.753
-19.645
-2.05712
-6.19508
-10.4037
-14.728
-19.208
-23.8733
-28.7314
-33.7454
-38.7934
-43.5945
-47.5856
-49.742
-48.3997
-41.3445
-26.8991
-2.23004
-6.72441
-11.3225
-16.0963
-21.1207
-26.4732
-32.2284
-38.4431
-45.1205
-52.1276
-59.0168
-64.6633
-66.6201
-60.3261
-39.6008
-2.36865
-7.14994
-12.0656
-17.2137
-22.705
-28.6702
-35.2656
-42.6777
-51.1173
-60.7782
-71.6904
-83.2738
-93.0907
-93.7382
-67.1969
-2.46325
-7.44099
-12.5763
-17.9875
-23.8154
-30.2368
-37.4856
-45.8844
-55.8924
-68.1767
-83.692
-103.65
-128.73
-154.338
-146.404
-2.50657
-7.57439
-12.8109
-18.3446
-24.3319
-30.9755
-38.5554
-47.4814
-58.3907
-72.3437
-91.2499
-118.904
-163.838
-248.48
-443.665
1501.23
1539.23
1577.35
1615.33
1652.89
1689.8
1725.82
1760.77
1794.47
1826.78
1857.6
1886.84
1914.41
1940.27
1964.37
1986.69
2007.21
2025.91
2042.8
2057.87
2071.14
2082.61
2092.3
2100.24
2106.45
2110.95
2113.77
2114.95
2114.51
2112.49
2108.92
2103.83
2097.26
2089.25
2079.82
2069.01
2056.84
2043.36
2028.59
2012.57
1995.33
1976.9
1957.31
1936.61
1914.81
1891.96
1868.09
1843.22
1817.39
1790.62
1762.94
1734.37
1704.94
1674.66
1643.56
1611.67
1579
1545.58
1511.45
1476.62
1441.13
1405.02
1368.31
1331.04
1293.24
1254.95
1216.2
1177.04
1137.51
1097.67
1057.56
1017.25
976.811
936.328
895.886
855.577
815.503
775.766
736.473
697.729
659.641
622.31
585.834
550.303
515.8
482.397
450.154
419.117
389.316
360.766
-0.893817
-0.302258
0.288098
0.856228
1.38514
1.86281
2.2824
2.64168
2.94218
3.18808
3.3851
3.53963
3.65796
3.74586
3.80831
3.84944
3.87255
3.88024
3.8746
3.85731
3.82978
3.79325
3.74886
3.69766
3.64065
3.57881
3.51307
3.44433
3.37347
3.30132
3.22861
3.15598
3.08391
3.01269
2.94239
2.87289
2.80389
2.73498
2.66574
2.59582
2.52507
2.45361
2.38182
2.31037
2.24009
2.17192
2.10669
2.04506
1.9873
1.93329
1.88246
1.83387
1.78628
1.73835
1.68883
1.63667
1.58122
1.52223
1.45987
1.39456
1.32688
1.25728
1.18592
1.11249
1.03606
0.955116
0.867585
0.771058
0.663021
0.541158
0.403644
0.249394
0.0782334
-0.109039
-0.310682
-0.524144
-0.746246
-0.973393
-1.20177
-1.42747
-1.64662
-1.85532
-2.04968
-2.22579
-2.37967
-2.50748
-2.60565
-2.67128
-2.70244
-2.69852
-1.52519
-0.502184
0.515217
1.4892
2.3899
3.19703
3.89992
4.49634
4.99056
5.39126
5.70948
5.95696
6.14496
6.28349
6.38098
6.44423
6.47854
6.48803
6.47592
6.44483
6.39696
6.33427
6.25858
6.17163
6.07507
5.9705
5.85948
5.74352
5.62412
5.50267
5.38048
5.25867
5.1381
5.01927
4.90232
4.78697
4.67262
4.55844
4.44357
4.32728
4.20921
4.08948
3.9688
3.84836
3.72977
3.61481
3.5051
3.40192
3.30586
3.21675
3.13357
3.05454
2.97735
2.89951
2.8186
2.73274
2.64072
2.54218
2.43754
2.32783
2.2143
2.09806
1.97967
1.85876
1.73383
1.6022
1.46017
1.3033
1.12693
0.926738
0.69928
0.442482
0.155945
-0.158941
-0.499076
-0.859909
-1.23581
-1.62048
-2.00732
-2.38972
-2.76115
-3.1152
-3.44542
-3.74524
-4.00787
-4.22653
-4.39479
-4.50722
-4.56013
-4.55223
-2.20941
-0.693778
0.805142
2.22802
3.52975
4.68172
5.67117
6.49857
7.17405
7.71368
8.13618
8.46042
8.70367
8.8807
9.00346
9.08117
9.12076
9.12742
9.10511
9.05705
8.986
8.89453
8.78508
8.66
8.52159
8.37205
8.21356
8.04826
7.87827
7.70566
7.53239
7.36017
7.19034
7.02373
6.8605
6.70017
6.54166
6.38348
6.224
6.06187
5.89628
5.72729
5.55595
5.38423
5.21479
5.05064
4.89465
4.74903
4.61494
4.4922
4.37919
4.27302
4.16987
4.06552
3.95599
3.83813
3.71004
3.57132
3.42296
3.26701
3.10602
2.94235
2.77743
2.61118
2.44159
2.26464
2.07447
1.86395
1.62548
1.35189
1.03747
0.678689
0.274762
-0.17221
-0.6574
-1.17372
-1.7125
-2.26419
-2.81904
-3.36752
-3.90052
-4.4092
-4.88477
-5.31804
-5.69922
-6.018
-6.26416
-6.42871
-6.50524
-6.49128
-2.96758
-0.86134
1.20453
3.14126
4.88524
6.40045
7.67579
8.71961
9.55324
10.2049
10.7045
11.0806
11.3578
11.5562
11.6909
11.7731
11.8105
11.8086
11.7715
11.7025
11.6046
11.4808
11.3342
11.1677
10.9843
10.7866
10.5776
10.3599
10.1364
9.90979
9.68296
9.4584
9.23816
9.0235
8.8147
8.61096
8.41044
8.21056
8.00847
7.80163
7.58844
7.3687
7.14388
6.91701
6.69239
6.47495
6.26947
6.07974
5.90788
5.75382
5.61516
5.48736
5.36431
5.23919
5.10557
4.95843
4.79487
4.61454
4.4195
4.21363
4.0018
3.78861
3.57728
3.36858
3.16013
2.94627
2.71823
2.46503
2.17473
1.836
1.43968
0.98006
0.455715
-0.130296
-0.770744
-1.45505
-2.17044
-2.9032
-3.63978
-4.3675
-5.07474
-5.75075
-6.38488
-6.96572
-7.48031
-7.91392
-8.25096
-8.47682
-8.58054
-8.55742
-3.81888
-0.970596
1.79006
4.33223
6.57035
8.46476
10.014
11.2436
12.1949
12.9152
13.4511
13.8435
14.1259
14.3237
14.4545
14.5299
14.5573
14.5411
14.4843
14.3899
14.2609
14.1005
13.9125
13.7004
13.4679
13.2182
12.9547
12.6806
12.3994
12.1148
11.8308
11.551
11.2785
11.0154
10.7622
10.5177
10.2788
10.0414
9.80034
9.5511
9.29057
9.01798
8.73528
8.44708
8.16019
7.88258
7.62212
7.38525
7.17571
6.99378
6.836
6.69537
6.5622
6.42557
6.27511
6.10281
5.9043
5.6794
5.43204
5.16929
4.89994
4.63262
4.37377
4.12599
3.88688
3.64868
3.39857
3.11988
2.79408
2.40338
1.93335
1.37496
0.725777
-0.00969232
-0.820638
-1.69133
-2.60307
-3.53643
-4.47303
-5.39668
-6.2937
-7.15235
-7.96148
-8.70858
-9.37775
-9.9487
-10.3977
-10.7006
-10.8383
-10.8018
-4.77844
-0.953692
2.69014
5.96092
8.75024
11.0259
12.8122
14.1682
15.1689
15.8911
16.4041
16.7648
17.016
17.1875
17.2976
17.356
17.3669
17.3318
17.2513
17.1272
16.9622
16.7601
16.5254
16.2626
15.9761
15.6697
15.347
15.0115
14.6673
14.3192
13.9726
13.633
13.3054
12.9931
12.6973
12.4162
12.1454
11.8775
11.6041
11.3169
11.0102
10.682
10.3347
9.97543
9.61478
9.26564
8.94099
8.65156
8.40392
8.19914
8.03232
7.89279
7.76525
7.63203
7.47627
7.28512
7.05186
6.77679
6.46689
6.13459
5.79533
5.46459
5.15449
4.87106
4.61248
4.36841
4.12023
3.84272
3.50703
3.08515
2.55442
1.90072
1.12024
0.219742
-0.784357
-1.86832
-3.00442
-4.16484
-5.32473
-6.46402
-7.56771
-8.62506
-9.62722
-10.5635
-11.4165
-12.1589
-12.7544
-13.1621
-13.3469
-13.2909
-5.84892
-0.676409
4.1272
8.28261
11.6694
14.2912
16.2295
17.6037
18.5431
19.1675
19.5758
19.8429
20.0203
20.1391
20.2144
20.2498
20.2422
20.1869
20.0805
19.9227
19.7162
19.466
19.1779
18.8582
18.5122
18.1441
17.757
17.3542
16.9401
16.5207
16.1036
15.6973
15.3096
14.9465
14.6104
14.2995
14.007
13.7211
13.4271
13.1103
12.7603
12.3728
11.951
11.5052
11.0523
10.6129
10.2087
9.85726
9.56999
9.34942
9.18895
9.07253
8.9761
8.87057
8.72801
8.5277
8.25928
7.92396
7.53369
7.10959
6.67813
6.26655
5.89651
5.58007
5.31695
5.09379
4.8839
4.64912
4.34388
3.92345
3.35236
2.60885
1.68736
0.598201
-0.633217
-1.97037
-3.37083
-4.79408
-6.20617
-7.58265
-8.90845
-10.1772
-11.3878
-12.5382
-13.6142
-14.5807
-15.3814
-15.9446
-16.2018
-16.1176
-6.99871
0.131761
6.49721
11.7106
15.6896
18.54
20.4581
21.6642
22.3697
22.7536
22.9494
23.0491
23.1074
23.1519
23.1873
23.2042
23.1849
23.1142
22.9822
22.7869
22.5319
22.2247
21.8745
21.4902
21.0789
20.6443
20.188
19.7118
19.2192
18.7175
18.2176
17.7332
17.2771
16.8597
16.4859
16.155
15.8575
15.5751
15.2816
14.9504
14.5631
14.1117
13.6005
13.0441
12.4691
11.9086
11.399
10.9695
10.6389
10.4121
10.2811
10.2225
10.199
10.1615
10.0619
9.86746
9.56211
9.1494
8.64836
8.09434
7.5315
7.00792
6.56056
6.2116
5.96315
5.79939
5.68276
5.55633
5.34597
4.97812
4.39801
3.57275
2.49539
1.18102
-0.330275
-1.9817
-3.7048
-5.43977
-7.13916
-8.77455
-10.3315
-11.8134
-13.2354
-14.62
-15.9696
-17.2414
-18.3506
-19.1673
-19.5486
-19.4201
-8.0942
2.04113
10.5256
16.9153
21.3344
24.1311
25.7115
26.4449
26.659
26.6098
26.4609
26.3139
26.2137
26.177
26.186
26.2098
26.201
26.1288
25.9741
25.7364
25.4219
25.0447
24.6192
24.1603
23.6783
23.1748
22.647
22.0922
21.5106
20.911
20.3085
19.7276
19.1883
18.7092
18.299
17.9618
17.6855
17.4446
17.1898
16.8704
16.4577
15.9363
15.3143
14.6093
13.8646
13.1303
12.4737
11.9387
11.558
11.3363
11.2686
11.3214
11.4419
11.5412
11.5322
11.3665
11.0192
10.5017
9.83897
9.09149
8.32798
7.63924
7.0826
6.69809
6.48711
6.43682
6.49545
6.58415
6.57458
6.33819
5.79644
4.89947
3.64452
2.04728
0.174311
-1.88991
-4.02179
-6.13675
-8.16435
-10.0794
-11.8627
-13.5356
-15.1366
-16.7524
-18.4367
-20.1363
-21.7405
-23.0172
-23.6291
-23.4194
-8.66377
6.32754
17.57
24.9573
29.3152
31.4737
32.1851
31.9741
31.3279
30.6103
29.9705
29.512
29.2294
29.1372
29.1642
29.2634
29.3091
29.2632
29.0864
28.7975
28.4034
27.9354
27.413
26.865
26.3098
25.7414
25.1461
24.5126
23.8292
23.1099
22.3694
21.6635
21.0139
20.461
20.0083
19.6823
19.464
19.3354
19.1923
18.926
18.51
17.9071
17.1489
16.2332
15.2462
14.2417
13.3744
12.6873
12.2492
12.04
12.0837
12.3241
12.7162
13.0783
13.2291
13.1282
12.7224
12.0641
11.1528
10.1128
9.0179
8.08138
7.35783
6.93569
6.78068
6.91831
7.26578
7.75433
8.13066
8.13881
7.70718
6.74248
5.28735
3.31136
0.955095
-1.6999
-4.36236
-6.95877
-9.35083
-11.5733
-13.5521
-15.3608
-17.0158
-18.7856
-20.881
-23.1679
-25.6014
-27.8236
-28.8924
-28.494
-6.94928
16.0124
30.166
37.3611
40.4625
40.8987
39.986
38.1289
36.0987
34.4979
33.2179
32.4557
31.97
31.9248
32.0375
32.393
32.5481
32.5851
32.3589
32.0092
31.49
30.9034
30.2424
29.5789
28.9593
28.3458
27.6993
27.0037
26.1987
25.3381
24.3798
23.5174
22.6992
22.0674
21.5343
21.2468
21.1124
21.2462
21.3712
21.1965
20.8307
20.1009
19.2093
17.9591
16.6524
15.1545
14.015
13.0765
12.6102
12.3791
12.6148
13.1079
14.0332
14.9191
15.288
15.3282
14.7888
13.9902
12.6515
11.2127
9.47931
8.2164
7.19858
6.78824
6.65247
7.09728
7.83257
9.08577
10.2166
10.5724
10.3852
9.2914
7.67989
5.12278
2.16579
-1.49933
-4.79823
-8.0752
-10.7815
-13.4184
-15.4862
-17.4076
-18.7294
-20.35
-23.0492
-25.9884
-29.7665
-34.2905
-36.2684
-35.3295
4.44395
38.3804
52.7819
55.6595
55.4473
52.2654
49.1461
44.532
40.2503
37.9226
35.7191
35.0005
34.0753
34.4841
34.5605
35.8104
35.9562
36.2853
35.8085
35.4641
34.6728
33.9779
33.0747
32.2288
31.5992
30.9967
30.3224
29.6514
28.6476
27.7061
26.2514
25.307
24.1156
23.5309
22.7061
22.5901
22.3741
23.169
23.9811
23.7414
23.6749
22.5272
21.7856
19.7657
18.3333
15.551
14.3657
12.7854
12.6322
12.0457
12.7746
13.2692
15.4062
17.5041
17.8197
18.3627
17.228
16.6938
14.2939
12.7364
9.263
7.99822
6.16435
6.24514
5.68802
6.85774
7.65333
10.5933
13.4182
13.7875
14.3687
12.5856
11.4339
7.50988
4.39604
-1.82624
-5.26573
-10.0134
-12.3123
-16.0826
-17.6314
-20.3175
-20.0126
-20.3609
-24.8718
-27.6005
-32.8574
-44.4233
-47.844
-45.1989
60.7526
88.8772
91.9906
78.4061
74.7073
63.5413
60.4583
50.4561
41.5877
41.1685
36.0818
37.8425
34.2597
37.5218
35.3937
40.8176
39.1001
41.1456
39.0676
39.5622
37.7168
37.3522
35.8242
34.5674
34.2001
33.7513
32.9408
32.7785
31.0067
30.8135
27.388
27.4527
24.6585
25.3402
22.8576
24.0775
22.1804
25.0673
28.1058
26.0371
28.0764
24.3688
26.2029
20.7269
21.9583
13.6481
15.2856
10.4399
13.2785
9.81837
13.2725
11.0658
16.8362
22.6556
20.0245
23.8134
18.8025
22.0847
14.7234
17.0196
5.86668
8.59995
2.37346
6.62103
2.23734
7.15734
4.38658
12.2667
20.1561
16.6979
21.7569
14.9707
19.1802
8.73062
11.1027
-6.15997
-3.84907
-15.4773
-11.7238
-21.9453
-18.1384
-27.5338
-20.3551
-14.377
-29.2602
-25.5717
-26.8629
-66.2843
-68.1539
-60.4533
347.748
175.389
155.242
86.9157
104.718
63.176
81.7326
54.746
30.757
51.1344
26.5831
48.3778
24.5861
48.32
25.3506
56.107
36.8239
51.9424
38.6206
47.0287
38.6267
42.4003
38.1819
35.6239
36.9167
37.0252
34.6243
38.222
31.0913
38.5741
23.4976
33.7138
20.1952
31.7049
17.6762
30.0522
15.0967
26.7464
39.5836
22.4163
40.7524
18.2291
41.1459
12.0285
39.322
-2.5802
25.5406
-2.9718
22.9941
-2.36609
21.9211
-2.62533
18.1947
39.9751
12.9838
41.935
8.43438
42.8013
1.24533
40.6689
-17.5262
22.1032
-16.5005
19.4255
-14.611
18.5312
-14.2178
13.9263
43.2339
7.34296
46.2016
1.52141
48.0353
-8.51232
46.0832
-38.6799
17.6398
-43.091
8.98846
-48.0087
0.36582
-58.6169
-18.9684
21.647
-60.3915
-16.3718
34.0393
-142.219
-102.244
-85.9416
330.737
299.749
270.471
242.817
216.676
191.926
168.433
146.057
124.658
104.095
84.2327
64.936
46.0749
27.5223
9.1537
-2.65655
-2.56507
-2.43432
-2.27224
-2.08721
-1.88719
-1.67902
-1.46812
-1.25839
-1.05234
-0.851242
-0.655379
-0.464292
-0.276973
-0.0920504
-4.47826
-4.31869
-4.09199
-3.81254
-3.49537
-3.1544
-2.80143
-2.44559
-2.09327
-1.74843
-1.41293
-1.087
-0.769641
-0.458961
-0.152506
-6.37875
-6.13937
-5.80233
-5.39052
-4.92726
-4.43357
-3.92669
-3.4195
-2.92065
-2.43515
-1.96503
-1.51005
-1.0683
-0.636718
-0.211516
-8.39575
-8.0576
-7.58735
-7.01989
-6.3895
-5.72587
-5.05221
-4.38501
-3.73464
-3.10646
-2.50198
-1.91985
-1.35677
-0.80809
-0.268354
-10.5744
-10.1078
-9.46945
-8.71208
-7.8849
-7.02811
-6.17122
-5.33364
-4.52639
-3.75404
-3.01653
-2.31058
-1.63081
-0.970511
-0.322161
-12.9714
-12.3296
-11.4704
-10.474
-9.40978
-8.33034
-7.27082
-6.25187
-5.28318
-4.36674
-3.49948
-2.6751
-1.88538
-1.12097
-0.371937
-15.6614
-14.7687
-13.6085
-12.3034
-10.9498
-9.61253
-8.32975
-7.11977
-5.98764
-4.93021
-3.93951
-3.00493
-2.1146
-1.25603
-0.416554
-18.7463
-17.4754
-15.8911
-14.1813
-12.4733
-10.8401
-9.31578
-7.9097
-6.61733
-5.42689
-4.32335
-3.29049
-2.31202
-1.37198
-0.4548
-22.3668
-20.4952
-18.2993
-16.0572
-13.9217
-11.9587
-10.1834
-8.58583
-7.14499
-5.83662
-4.63644
-3.5216
-2.47099
-1.46506
-0.485458
-26.7103
-23.8389
-20.7533
-17.8261
-15.1977
-12.8895
-10.8733
-9.10506
-7.54011
-6.13808
-4.86413
-3.68844
-2.58525
-1.53181
-0.507417
-31.979
-27.3964
-23.0488
-19.296
-16.1531
-13.5282
-11.315
-9.42091
-7.7722
-6.31137
-4.99349
-3.78274
-2.64973
-1.56947
-0.519815
-38.175
-30.7185
-24.7494
-20.1557
-16.5902
-13.7551
-11.4374
-9.49128
-7.8163
-6.34164
-5.01567
-3.79925
-2.66142
-1.57652
-0.522176
-44.1646
-32.5526
-25.0743
-19.987
-16.2967
-13.4643
-11.1881
-9.2904
-7.65998
-6.22313
-4.92822
-3.73712
-2.62016
-1.55299
-0.514537
-43.9961
-30.2526
-23.008
-18.4208
-15.1453
-12.6171
-10.5602
-8.82213
-7.31
-5.9626
-4.7369
-3.6008
-2.52907
-1.50074
-0.497507
-2.50035
-7.55505
-12.7763
-18.2913
-24.2547
-30.8675
-38.4083
-47.286
-58.1408
-72.048
-90.9737
-118.902
-164.939
-252.766
-451.455
-2.45333
-7.40988
-12.5199
-17.8993
-23.6867
-30.058
-37.2489
-45.5902
-55.5657
-67.9066
-83.7295
-104.633
-132.085
-162.105
-153.19
-2.37166
-7.15806
-12.0764
-17.224
-22.713
-28.6791
-35.2904
-42.7593
-51.3476
-61.3466
-72.9563
-85.8181
-97.445
-98.481
-61.498
-2.26005
-6.81455
-11.4736
-16.3113
-21.408
-26.8518
-32.7362
-39.1507
-46.1493
-53.6676
-61.3125
-67.8596
-70.1598
-61.2582
-29.5365
-2.12455
-6.39842
-10.7466
-15.2186
-19.8618
-24.7182
-29.8137
-35.1362
-40.5899
-45.9005
-50.4306
-52.8495
-50.6531
-39.8825
-16.5685
-1.97183
-5.9306
-9.9337
-14.0067
-18.1675
-22.4186
-26.7332
-31.0303
-35.1295
-38.675
-41.0148
-41.0441
-37.1001
-27.2172
-10.4221
-1.80859
-5.43196
-9.07214
-12.7339
-16.4104
-20.0746
-23.6646
-27.0614
-30.0535
-32.2866
-33.2031
-31.9977
-27.6711
-19.3517
-7.08746
-1.64104
-4.92161
-8.19553
-11.4507
-14.6618
-17.782
-20.7301
-23.3735
-25.5041
-26.8121
-26.8647
-25.1186
-21.0144
-14.2257
-5.07961
-1.47451
-4.41585
-7.3319
-10.1979
-12.9762
-15.6087
-18.0072
-20.0415
-21.5259
-22.209
-21.7753
-19.877
-16.2218
-10.7366
-3.77528
-1.3133
-3.92762
-6.50296
-9.00601
-11.3918
-13.5978
-15.5371
-17.0911
-18.1039
-18.3813
-17.7028
-15.8552
-12.7
-8.27256
-2.8801
-1.16061
-3.46643
-5.72417
-7.89545
-9.93217
-11.7721
-13.3345
-14.5166
-15.1925
-15.2175
-14.442
-12.7412
-10.0617
-6.47856
-2.24026
-1.01861
-3.03861
-5.00536
-6.87829
-8.60912
-10.1389
-11.3958
-12.2935
-12.7331
-12.6093
-11.8236
-10.307
-8.05087
-5.13946
-1.76862
-0.888577
-2.64772
-4.35168
-5.95975
-7.42558
-8.6953
-9.70648
-10.3884
-10.6649
-10.4607
-9.71266
-8.38615
-6.49502
-4.11938
-1.41253
-0.771036
-2.29515
-3.76454
-5.13994
-6.37816
-7.43113
-8.24571
-8.76479
-8.93047
-8.68974
-8.00336
-6.85737
-5.2756
-3.32926
-1.13852
-0.665959
-1.98056
-3.24264
-4.41534
-5.45934
-6.33246
-6.99007
-7.38652
-7.47817
-7.22818
-6.61318
-5.63117
-4.30931
-2.70885
-0.924421
-0.572903
-1.70243
-2.78278
-3.78008
-4.65913
-5.3834
-5.91573
-6.21985
-6.26307
-6.02005
-5.4778
-4.64093
-3.53646
-2.21616
-0.755052
-0.491147
-1.45844
-2.38057
-3.22692
-3.96637
-4.56759
-4.99981
-5.23432
-5.24668
-5.01969
-4.54697
-3.8365
-2.91347
-1.82125
-0.619698
-0.419802
-1.2458
-2.03096
-2.74796
-3.36958
-3.8691
-4.22116
-4.40303
-4.39645
-4.18992
-3.7812
-3.17965
-2.40794
-1.50224
-0.51062
-0.357901
-1.06152
-1.72867
-2.33522
-2.85754
-3.27299
-3.56066
-3.70256
-3.68505
-3.50054
-3.1493
-2.64095
-1.99545
-1.24289
-0.422109
-0.304453
-0.902572
-1.46844
-1.98094
-2.41971
-2.76558
-3.00136
-3.11277
-3.08958
-2.92692
-2.62647
-2.19749
-1.65728
-1.03089
-0.349872
-0.258495
-0.76601
-1.24525
-1.67787
-2.04636
-2.33459
-2.5284
-2.61642
-2.59096
-2.44896
-2.19287
-1.83124
-1.37895
-0.856833
-0.290635
-0.219113
-0.649078
-1.05443
-1.4193
-1.72875
-1.96916
-2.1289
-2.19885
-2.17324
-2.05022
-1.83255
-1.52794
-1.1491
-0.713375
-0.241863
-0.185465
-0.549238
-0.891703
-1.19922
-1.45905
-1.65975
-1.79171
-1.84764
-1.82314
-1.71719
-1.53259
-1.27617
-0.958749
-0.594763
-0.201572
-0.156787
-0.464189
-0.753239
-1.01225
-1.23039
-1.39806
-1.50732
-1.55228
-1.52958
-1.43876
-1.2825
-1.06676
-0.800723
-0.496428
-0.168192
-0.132394
-0.391882
-0.635629
-0.853658
-1.03678
-1.17694
-1.26755
-1.30388
-1.28333
-1.20577
-1.07369
-0.892267
-0.66926
-0.414713
-0.14047
-0.111678
-0.330504
-0.535875
-0.719297
-0.872995
-0.990205
-1.06548
-1.09496
-1.07666
-1.01063
-0.899143
-0.746646
-0.559695
-0.346674
-0.117399
-0.0941096
-0.278465
-0.451358
-0.605574
-0.734541
-0.832589
-0.895196
-0.919222
-0.903115
-0.847061
-0.753064
-0.624946
-0.46823
-0.289918
-0.098161
-0.0792232
-0.234385
-0.379808
-0.509379
-0.617554
-0.699579
-0.751698
-0.771347
-0.757308
-0.70983
-0.630675
-0.523101
-0.391759
-0.242497
-0.0820927
-0.0666171
-0.197067
-0.319263
-0.428038
-0.518721
-0.58733
-0.630743
-0.646858
-0.634718
-0.594592
-0.528016
-0.437758
-0.327728
-0.202812
-0.0686496
-0.0559443
-0.165478
-0.268036
-0.359257
-0.435215
-0.492574
-0.528741
-0.541988
-0.531556
-0.497718
-0.441799
-0.366142
-0.274031
-0.169548
-0.0573839
-0.0469063
-0.138733
-0.224678
-0.301073
-0.36462
-0.412532
-0.44265
-0.453556
-0.444644
-0.416175
-0.369284
-0.30595
-0.228925
-0.141615
-0.0479259
-0.0392469
-0.116071
-0.187952
-0.251809
-0.304882
-0.344842
-0.369898
-0.378883
-0.371311
-0.347423
-0.308184
-0.255263
-0.190959
-0.118113
-0.039969
-0.0327467
-0.0968413
-0.156795
-0.210032
-0.254246
-0.287499
-0.308305
-0.315703
-0.309305
-0.289326
-0.256585
-0.212478
-0.158925
-0.0982869
-0.033258
-0.0272176
-0.0804862
-0.130302
-0.17452
-0.211221
-0.238797
-0.256021
-0.262102
-0.256729
-0.240091
-0.212877
-0.176251
-0.13181
-0.0815094
-0.0275795
-0.0224983
-0.066528
-0.107696
-0.144226
-0.174531
-0.197283
-0.211473
-0.216453
-0.211974
-0.198198
-0.175702
-0.145451
-0.108763
-0.0672518
-0.0227544
-0.0184504
-0.0545563
-0.0883106
-0.118254
-0.143084
-0.161714
-0.173318
-0.177371
-0.173672
-0.16236
-0.143911
-0.119119
-0.089064
-0.0550677
-0.0186313
-0.0149543
-0.0442173
-0.071571
-0.0958307
-0.115941
-0.131022
-0.140406
-0.143671
-0.140656
-0.131478
-0.116524
-0.0964403
-0.0721018
-0.0445776
-0.0150817
-0.0119062
-0.035204
-0.0569794
-0.0762884
-0.0922907
-0.104286
-0.111744
-0.114329
-0.111918
-0.104605
-0.0926992
-0.0767156
-0.0573514
-0.0354565
-0.0119955
-0.00921548
-0.0272476
-0.0441002
-0.0590419
-0.0714223
-0.0806994
-0.0864638
-0.0884573
-0.0865849
-0.0809205
-0.0717053
-0.0593379
-0.0443579
-0.0274226
-0.00927736
-0.00680161
-0.0201102
-0.0325476
-0.0435737
-0.0527082
-0.0595516
-0.0638019
-0.0652692
-0.0638839
-0.0597013
-0.0528999
-0.043774
-0.0327221
-0.0202287
-0.0068435
-0.00459225
-0.0135778
-0.0219748
-0.0294186
-0.035585
-0.0402041
-0.0430723
-0.0440615
-0.043125
-0.0403003
-0.0357082
-0.0295474
-0.022087
-0.0136539
-0.00461918
-0.00252103
-0.00745389
-0.0120637
-0.0161504
-0.0195359
-0.0220721
-0.0236472
-0.0241907
-0.023677
-0.0221265
-0.0196055
-0.0162232
-0.0121271
-0.00749689
-0.00253624
-0.000525629
-0.00155426
-0.00251592
-0.00336905
-0.00407658
-0.00460751
-0.00493831
-0.00505395
-0.00494872
-0.00462653
-0.00410092
-0.0033945
-0.00253808
-0.00156929
-0.000530948
0.00145406
0.00429887
0.00695653
0.0093112
0.0112601
0.0127181
0.0136212
0.0139294
0.0136289
0.0127322
0.0112781
0.00933002
0.00697292
0.00431
0.00145799
0.00347768
0.0102819
0.0166393
0.0222731
0.0269377
0.030429
0.0325936
0.0333354
0.0326203
0.0304778
0.0270002
0.0223385
0.0166962
0.0103206
0.00349135
0.00560622
0.0165752
0.0268244
0.0359079
0.0434298
0.049061
0.0525537
0.0537528
0.0526027
0.0491504
0.0435443
0.0360276
0.0269287
0.016646
0.00563125
0.00790374
0.0233683
0.0378187
0.0506269
0.0612345
0.0691775
0.0741062
0.0758012
0.0741833
0.0693183
0.0614147
0.0508153
0.0379828
0.0234797
0.00794314
0.0104393
0.0308655
0.0499532
0.0668735
0.0808891
0.0913867
0.0979038
0.100149
0.0980182
0.0915958
0.0811567
0.0671533
0.0501969
0.0310308
0.0104978
0.013289
0.0392917
0.0635925
0.0851367
0.102986
0.116359
0.124667
0.127536
0.124832
0.116662
0.103373
0.0855415
0.063945
0.039531
0.0133737
0.0165382
0.0488995
0.0791457
0.105965
0.12819
0.144849
0.155205
0.158793
0.155441
0.145281
0.128743
0.106543
0.0796493
0.0492414
0.0166591
0.0202838
0.0599759
0.0970778
0.129983
0.15726
0.177714
0.190442
0.194868
0.190777
0.178328
0.158045
0.130804
0.097793
0.0604613
0.0204555
0.0246372
0.0728504
0.117924
0.157908
0.191065
0.215944
0.231441
0.236855
0.231917
0.216813
0.192177
0.159071
0.118936
0.0735377
0.0248803
0.0297274
0.0879048
0.142302
0.190572
0.230619
0.260687
0.279442
0.286028
0.280114
0.261916
0.232191
0.192216
0.143734
0.0888765
0.0300711
0.0357043
0.105583
0.170935
0.228946
0.277099
0.313284
0.335891
0.343879
0.33684
0.31502
0.27932
0.231268
0.172958
0.106956
0.0361899
0.0427432
0.126405
0.204665
0.274163
0.331888
0.375309
0.402487
0.412164
0.403829
0.37776
0.335024
0.277443
0.207522
0.128344
0.043429
0.0510488
0.150976
0.244479
0.327553
0.396607
0.448612
0.481235
0.492952
0.483129
0.452072
0.401036
0.332184
0.248512
0.153714
0.0520171
0.0608608
0.180008
0.291533
0.390676
0.473162
0.535369
0.574497
0.588694
0.577171
0.540255
0.479414
0.397215
0.297227
0.183873
0.0622279
0.0724597
0.214333
0.347182
0.465364
0.563795
0.638151
0.685066
0.702294
0.688841
0.645048
0.572622
0.474596
0.355221
0.21979
0.0743898
0.0861731
0.254923
0.413013
0.553765
0.671141
0.759983
0.816245
0.837194
0.821574
0.76972
0.683603
0.566798
0.424362
0.262627
0.0888981
0.102383
0.302914
0.490881
0.658396
0.798297
0.904434
0.971941
0.997482
0.979463
0.918179
0.815889
0.676794
0.506904
0.31379
0.106231
0.121535
0.359626
0.582947
0.782197
0.948893
1.0757
1.15677
1.18801
1.16739
1.09511
0.973726
0.80817
0.605568
0.374981
0.126966
0.144142
0.426592
0.691726
0.928598
1.12718
1.27873
1.37619
1.41455
1.39118
1.30612
1.16223
0.965265
0.723662
0.448272
0.151811
0.170798
0.505581
0.820124
1.10158
1.33812
1.51931
1.63665
1.68394
1.6578
1.55797
1.3876
1.15335
0.865213
0.536192
0.181627
0.202183
0.598622
0.971489
1.30576
1.58747
1.80423
1.94573
2.00432
1.97558
1.85879
1.65732
1.37883
1.03515
0.641845
0.217474
0.23907
0.708029
1.14965
1.54642
1.88191
2.14139
2.31236
2.38534
2.35449
2.21839
1.98051
1.64958
1.23954
0.769067
0.260666
0.282331
0.836413
1.35896
1.82961
2.22914
2.53999
2.74704
2.83842
2.80648
2.64865
2.3683
1.97526
1.48589
0.92262
0.312834
0.332935
0.986693
1.60428
2.16219
2.63792
3.01065
3.26201
3.37713
3.34586
3.16397
2.83433
2.36782
1.78354
1.10847
0.37603
0.39195
1.16208
1.89104
2.55181
3.11822
3.56557
3.87155
4.01748
3.98982
3.78186
3.3954
2.84212
2.14423
1.33414
0.452851
0.46052
1.36606
2.22513
3.00693
3.68117
4.21864
4.59221
4.77835
4.75895
4.52367
4.07229
3.41683
2.58283
1.60924
0.54662
0.539853
1.60229
2.61285
3.53673
4.33908
4.98548
5.44301
5.6819
5.67795
5.4155
4.89087
4.1155
3.11833
1.94617
0.661644
0.63117
1.87454
3.06075
4.1509
5.10524
5.88343
6.44558
6.75406
6.77642
6.48937
5.88351
4.96818
3.77533
2.3611
0.803582
0.735654
2.18647
3.57533
4.85935
5.99367
6.93137
7.62426
8.02484
8.08969
7.78459
7.09103
6.01352
4.58604
2.87553
0.979989
0.854361
2.54142
4.16268
5.67172
7.0186
8.14926
9.00588
9.5287
9.65981
9.34949
8.56511
7.30185
5.59327
3.51842
1.20114
0.988105
2.94203
4.82793
6.59665
8.19361
9.55738
10.6192
11.3045
11.5364
11.2435
10.3717
8.89936
6.85481
4.32963
1.4813
1.13732
3.38985
5.57452
7.64081
9.5305
11.1751
12.494
13.3951
13.7773
13.5396
12.5952
10.8942
8.45008
5.36523
1.84081
1.30186
3.88479
6.40327
8.80753
11.0375
13.0188
14.659
15.8458
16.4486
16.3262
15.3441
13.4049
10.4903
6.70605
2.30946
1.48085
4.42444
7.31127
10.0952
12.7172
15.0993
17.1386
18.7019
19.6234
19.7097
18.7575
16.5929
13.1342
8.47207
2.93251
1.67239
5.00346
8.29067
11.4953
14.5633
17.4177
19.9486
22.0036
23.3782
23.8142
23.0128
20.6794
16.6139
10.8473
3.78154
1.87343
5.61291
9.32736
12.9901
16.5578
19.9606
23.0891
25.7775
27.7846
28.7778
28.3318
25.9686
21.2746
14.1248
4.97589
2.07959
6.2397
10.3999
14.5508
18.6666
22.6938
26.535
30.0242
32.895
34.7406
34.9819
32.8763
27.6407
18.7903
6.72777
2.28509
6.86636
11.4788
16.1358
20.8367
25.5561
30.225
34.7004
38.717
41.8172
43.2615
41.9573
36.5169
25.6863
9.44695
2.48287
7.4713
12.5268
17.6901
22.9938
28.4534
34.0493
39.6947
45.1752
50.0435
53.4495
53.9104
49.1358
36.3381
14.0095
2.66489
8.02962
13.4997
19.1467
25.0426
31.2557
37.8389
44.8033
52.0582
59.2849
65.6822
69.4987
67.326
53.6083
22.5236
2.82262
8.51472
14.3497
20.4304
26.8711
33.8006
41.3635
49.7099
58.9605
69.1016
79.7065
89.2455
93.5331
82.9383
40.7337
2.94778
8.90053
15.0289
21.464
28.3597
35.9056
44.3436
53.9881
65.2439
78.5957
94.4704
112.638
130.074
134.219
86.2091
3.0332
9.16431
15.495
22.1776
29.3967
37.3908
46.4856
57.1469
70.0712
86.337
107.641
136.539
175.844
221.718
218.078
3.07365
9.28941
15.7167
22.5185
29.8952
38.1115
47.5393
58.7336
72.5776
90.5789
115.537
153.211
217.051
343.598
650.305
3.06655
9.26753
15.6782
22.4598
29.8105
37.9907
47.3658
58.4798
72.1962
89.989
114.601
151.711
214.71
340.364
647.532
3.01229
9.09997
15.382
22.0059
29.1494
37.0398
45.9845
56.4182
68.9835
84.6628
104.985
132.232
168.858
211.075
206.226
2.9142
8.79735
14.8483
21.1911
27.9694
35.3566
43.5687
52.8761
63.6075
76.1113
90.561
106.237
119.12
114.47
47.9754
-27.8951
-22.7306
-18.8608
-15.8656
-13.4513
-11.4382
-9.7129
-8.20062
-6.84915
-5.62043
-4.48547
-3.42126
-2.40876
-1.43156
-0.474934
-10.463
-14.4985
-14.3168
-13.0636
-11.5902
-10.1392
-8.77584
-7.51029
-6.33484
-5.23669
-4.20215
-3.21805
-2.2721
-1.35278
-0.449193
-4.76043
-9.19494
-10.5165
-10.4145
-9.71351
-8.77914
-7.77082
-6.75732
-5.76679
-4.80872
-3.88374
-2.98833
-2.11693
-1.26307
-0.419837
-2.59
-6.05302
-7.70484
-8.18124
-7.99877
-7.4704
-6.76932
-5.98833
-5.17617
-4.35772
-3.54478
-2.74191
-1.94957
-1.16596
-0.388005
-1.61191
-4.16881
-5.70936
-6.40544
-6.52418
-6.28151
-5.82327
-5.24092
-4.58986
-3.90285
-3.1988
-2.48814
-1.77613
-1.06492
-0.354816
-1.09694
-2.99035
-4.30028
-5.03051
-5.30049
-5.24228
-4.96335
-4.54119
-4.02847
-3.45978
-2.85738
-2.23528
-1.60212
-0.963094
-0.321299
-0.790632
-2.21706
-3.29371
-3.97515
-4.30468
-4.35628
-4.20284
-3.90431
-3.5059
-3.0401
-2.52962
-1.99009
-1.43217
-0.863184
-0.288338
-0.591837
-1.68665
-2.56158
-3.16414
-3.50184
-3.61263
-3.54305
-3.33677
-3.03011
-2.65141
-2.22201
-1.75764
-1.26989
-0.767337
-0.256644
-0.454743
-1.30894
-2.01857
-2.53702
-2.85655
-2.99419
-2.97816
-2.8389
-2.60431
-2.29791
-1.93865
-1.54143
-1.11787
-0.677137
-0.22675
-0.356043
-1.03159
-1.60831
-2.04801
-2.33756
-2.48244
-2.49883
-2.40722
-2.22835
-1.98109
-1.68165
-1.3435
-0.977759
-0.593636
-0.199016
-0.282711
-0.822877
-1.29318
-1.66326
-1.91901
-2.0599
-2.09447
-2.03611
-1.89986
-1.7005
-1.45151
-1.16473
-0.850405
-0.51742
-0.173649
-0.226915
-0.662668
-1.04764
-1.3579
-1.58021
-1.71116
-1.75463
-1.71906
-1.61518
-1.45436
-1.24759
-1.00507
-0.736002
-0.44869
-0.15073
-0.183673
-0.537715
-0.85398
-1.11358
-1.30485
-1.42317
-1.46966
-1.44944
-1.37004
-1.2401
-1.06849
-0.863838
-0.634262
-0.387351
-0.130239
-0.149667
-0.438992
-0.699662
-0.916712
-1.08014
-1.18505
-1.23099
-1.2209
-1.15999
-1.05477
-0.912332
-0.739905
-0.544554
-0.333093
-0.112085
-0.122612
-0.360166
-0.575627
-0.757073
-0.896053
-0.987861
-1.03122
-1.02765