/*--------------------------------*- C++ -*----------------------------------*\
| =========                 |                                                 |
| \\      /  F ield         | OpenFOAM: The Open Source CFD Toolbox           |
|  \\    /   O peration     | Version:  5.x                                   |
|   \\  /    A nd           | Web:      www.OpenFOAM.org                      |
|    \\/     M anipulation  |                                                 |
\*---------------------------------------------------------------------------*/
FoamFile
{
    version     2.0;
    format      ascii;
    class       volScalarField;
    location    "11.9";
    object      T;
}
// * * * * * * * * * * * * * * * * * * * * * * * * * * * * * * * * * * * * * //

dimensions      [0 0 0 1 0 0 0];

internalField   nonuniform List<scalar> 
6300
(
10.1121
10.338
10.569
10.8084
11.0594
11.3249
11.6075
11.9093
12.2321
12.5768
12.9436
13.3317
13.7396
14.1648
14.6038
10.1104
10.3329
10.5605
10.7968
11.0448
11.3077
11.5881
11.8883
12.2102
12.5546
12.9221
13.3118
13.7223
14.1508
14.5938
10.1069
10.3225
10.5435
10.7733
11.0154
11.273
11.5489
11.8457
12.1654
12.5094
12.8782
13.2711
13.6867
14.1221
14.5734
10.1016
10.3068
10.5176
10.7376
10.9705
11.2198
11.4887
11.7801
12.0964
12.4394
12.81
13.2078
13.6312
14.0773
14.5416
10.0945
10.2855
10.4824
10.689
10.9093
11.147
11.4059
11.6894
12.0006
12.3417
12.7144
13.1186
13.553
14.0142
14.497
10.0854
10.2583
10.4373
10.6267
10.8305
11.053
11.2985
11.5711
11.8746
12.2125
12.5871
12.9992
13.4478
13.9293
14.4373
10.0743
10.225
10.382
10.5498
10.7329
10.936
11.1639
11.4217
11.7143
12.0465
12.4221
12.8432
13.3097
13.8177
14.3596
10.061
10.1852
10.3159
10.4577
10.6154
10.794
10.9993
11.2373
11.5144
11.8371
12.2114
12.6418
13.1299
13.6723
14.2593
10.0456
10.1389
10.2387
10.3497
10.4767
10.6254
10.802
11.0138
11.2688
11.5759
11.9445
12.3827
12.8957
13.4819
14.13
10.028
10.0861
10.1504
10.2255
10.3164
10.4288
10.5696
10.747
10.9709
11.2533
11.6078
12.0487
12.588
13.2296
13.9616
10.0084
10.027
10.0514
10.0856
10.1345
10.2038
10.3005
10.4335
10.6145
10.8585
11.1847
11.6163
12.1778
12.8869
13.7371
9.98687
9.9622
9.94237
9.93099
9.93225
9.95135
9.99496
10.0721
10.195
10.3814
10.6561
11.0539
11.62
12.4028
13.4237
9.96378
9.89252
9.82491
9.76369
9.71211
9.67434
9.65591
9.66466
9.71211
9.81597
10.0044
10.3231
10.8454
11.6803
12.9451
9.9395
9.8192
9.70106
9.58671
9.47815
9.37794
9.28965
9.2185
9.1727
9.16587
9.22233
9.38843
9.75819
10.528
12.0797
9.91452
9.74371
9.57339
9.40394
9.23581
9.0696
8.9062
8.74697
8.59426
8.45243
8.33055
8.25006
8.27083
8.59358
10.017
15.0152
15.3933
15.7726
16.1505
16.5244
16.8919
17.2507
17.599
17.935
18.2573
18.5648
18.8566
19.1319
19.3902
19.631
19.8541
20.0592
20.2462
20.4151
20.5659
20.6986
20.8135
20.9106
20.9901
21.0524
21.0976
21.126
21.138
21.1339
21.1139
21.0784
21.0278
20.9624
20.8824
20.7884
20.6805
20.5591
20.4245
20.2771
20.1171
19.9449
19.7608
19.5652
19.3584
19.1406
18.9124
18.6738
18.4254
18.1672
17.8997
17.6231
17.3376
17.0434
16.7408
16.43
16.1112
15.7847
15.4508
15.1096
14.7616
14.4069
14.046
13.6792
13.3067
12.929
12.5463
12.1592
11.7679
11.373
10.9749
10.5742
10.1717
9.76787
9.36366
8.95991
8.55753
8.15753
7.76091
7.36873
6.98204
6.60188
6.22926
5.86514
5.51041
5.16589
4.83228
4.51017
4.20002
3.90211
3.6166
15.0094
15.3913
15.7745
16.1561
16.5335
16.9041
17.2657
17.6164
17.9544
18.2784
18.5873
18.8801
19.1562
19.4151
19.6564
19.8797
20.0849
20.272
20.4409
20.5915
20.7241
20.8387
20.9355
21.0148
21.0766
21.1214
21.1495
21.161
21.1564
21.1359
21.0999
21.0488
20.9829
20.9025
20.808
20.6996
20.5778
20.4427
20.2948
20.1344
19.9617
19.7772
19.5811
19.3738
19.1556
18.9268
18.6879
18.439
18.1805
17.9126
17.6357
17.3498
17.0553
16.7524
16.4413
16.1221
15.7953
15.4609
15.1193
14.7709
14.4158
14.0544
13.6871
13.3141
12.9359
12.5527
12.1649
11.773
11.3773
10.9784
10.5769
10.1733
9.76834
9.36289
8.9578
8.55401
8.15254
7.75442
7.36073
6.97254
6.59094
6.21694
5.85153
5.49565
5.15011
4.81566
4.49291
4.18232
3.88421
3.59872
14.9974
15.3872
15.7784
16.1676
16.5521
16.9291
17.2964
17.6518
17.9938
18.3211
18.6325
18.9274
19.2051
19.4651
19.7072
19.9311
20.1366
20.3238
20.4926
20.643
20.7752
20.8893
20.9855
21.0641
21.1252
21.1692
21.1963
21.2069
21.2013
21.1799
21.143
21.0909
21.024
20.9427
20.8472
20.7379
20.6152
20.4792
20.3304
20.169
19.9954
19.8099
19.6128
19.4046
19.1854
18.9558
18.716
18.4663
18.207
17.9384
17.6608
17.3743
17.0791
16.7756
16.4638
16.144
15.8163
15.4812
15.1388
14.7895
14.4335
14.0712
13.7029
13.3289
12.9497
12.5654
12.1765
11.7833
11.3862
10.9857
10.5823
10.1766
9.76943
9.36148
8.95369
8.54705
8.1426
7.74144
7.34469
6.95349
6.56895
6.19215
5.82414
5.4659
5.1183
4.78213
4.45806
4.14659
3.84806
3.56263
14.9789
15.3812
15.7848
16.1859
16.5813
16.9681
17.3437
17.7063
18.0542
18.3862
18.7015
18.9992
19.2791
19.5408
19.784
20.0086
20.2145
20.4018
20.5704
20.7204
20.8521
20.9654
21.0607
21.1382
21.1981
21.2409
21.2666
21.2759
21.2688
21.2459
21.2076
21.154
21.0857
21.0029
20.906
20.7954
20.6712
20.5339
20.3837
20.2209
20.0459
19.859
19.6605
19.4507
19.2302
18.9991
18.758
18.507
18.2466
17.977
17.6983
17.4109
17.1149
16.8104
16.4976
16.1768
15.8481
15.5117
15.1681
14.8174
14.4601
14.0964
13.7267
13.3513
12.9705
12.5847
12.1941
11.7991
11.3999
10.997
10.5909
10.1821
9.77146
9.35972
8.94782
8.53682
8.12782
7.72201
7.32058
6.92475
6.53571
6.15463
5.78262
5.42074
5.06995
4.73113
4.40501
4.09217
3.793
3.50768
14.9532
15.3734
15.7945
16.2122
16.6227
17.0228
17.4098
17.7818
18.1373
18.4753
18.7953
19.0966
19.3792
19.6427
19.8873
20.1127
20.319
20.5063
20.6747
20.8241
20.9549
21.0672
21.1612
21.2373
21.2956
21.3366
21.3606
21.3679
21.3589
21.334
21.2936
21.2381
21.1678
21.0832
20.9844
20.8719
20.746
20.6069
20.4548
20.2902
20.1133
19.9244
19.724
19.5123
19.2897
19.0568
18.8139
18.5612
18.2993
18.0282
17.7483
17.4597
17.1625
16.8569
16.5429
16.2207
15.8905
15.5526
15.2073
14.8548
14.4956
14.13
13.7584
13.3812
12.9985
12.6107
12.218
11.8206
11.4187
11.0127
10.6031
10.1902
9.77493
9.35804
8.94055
8.52358
8.10835
7.69616
7.28831
6.88614
6.49094
6.10397
5.72645
5.35954
5.00431
4.66177
4.33278
4.01802
3.71796
3.43281
14.9195
15.364
15.8088
16.2487
16.679
17.0961
17.4973
17.8807
18.2453
18.5903
18.9155
19.2209
19.5063
19.7719
20.0178
20.244
20.4507
20.6379
20.8058
20.9545
21.0841
21.195
21.2874
21.3615
21.4178
21.4566
21.4782
21.4831
21.4716
21.4441
21.4012
21.3432
21.2705
21.1834
21.0823
20.9676
20.8394
20.6981
20.5439
20.377
20.1977
20.0063
19.8033
19.5891
19.364
19.1286
18.8834
18.6286
18.3648
18.0921
17.8106
17.5207
17.2222
16.9152
16.5997
16.2759
15.944
15.604
15.2565
14.9017
14.5401
14.1721
13.7982
13.4187
13.0337
12.6436
12.2485
11.8484
11.4434
11.0337
10.6197
10.2017
9.78058
9.35711
8.93241
8.50772
8.08441
7.66394
7.24778
6.8374
6.43422
6.03962
5.65493
5.28143
4.92035
4.57285
4.23999
3.92264
3.62139
3.33653
14.8768
15.3539
15.8303
16.2988
16.7541
17.1921
17.6101
18.0066
18.3812
18.7336
19.0643
19.3735
19.6617
19.9292
20.1764
20.4033
20.6102
20.7972
20.9644
21.1119
21.2401
21.3492
21.4395
21.5113
21.565
21.601
21.6197
21.6215
21.6069
21.5763
21.5303
21.4691
21.3934
21.3035
21.1997
21.0823
20.9516
20.8077
20.6509
20.4813
20.2991
20.1048
19.8987
19.6812
19.4529
19.2145
18.9663
18.7089
18.4428
18.1681
17.8851
17.5936
17.2938
16.9854
16.6684
16.3428
16.0086
15.6662
15.3159
14.9582
14.5936
14.2227
13.8459
13.4637
13.0763
12.6837
12.286
11.883
11.4746
11.0608
10.6417
10.2177
9.78945
9.35785
8.92413
8.48975
8.05629
7.62543
7.19885
6.77821
6.36506
5.96092
5.56722
5.18536
4.81676
4.4628
4.12482
3.804
3.50119
3.21677
14.8239
15.3449
15.8627
16.3679
16.854
17.3166
17.7535
18.1641
18.5487
18.9081
19.2436
19.5562
19.8466
20.1157
20.3637
20.5912
20.7981
20.9846
21.1508
21.297
21.4234
21.5302
21.6179
21.6868
21.7373
21.77
21.7851
21.7833
21.7649
21.7305
21.6807
21.6158
21.5366
21.4433
21.3363
21.2159
21.0823
20.9357
20.776
20.6033
20.4179
20.22
20.01
19.7886
19.5563
19.314
19.0622
18.8017
18.5329
18.256
17.9713
17.6785
17.3775
17.0678
16.7493
16.4216
16.085
15.7396
15.3858
15.0244
14.656
14.2814
13.9013
13.5161
13.126
12.731
12.3309
11.9252
11.5135
11.0954
10.6707
10.2397
9.80298
9.36151
8.91672
8.47035
8.02432
7.58065
7.14129
6.70812
6.28286
5.86712
5.46238
5.07016
4.69202
4.32967
3.9849
3.65939
3.35445
3.07071
14.7598
15.3404
15.9128
16.4645
16.9875
17.4779
17.9346
18.3587
18.752
19.117
19.4558
19.7703
20.0621
20.332
20.5806
20.8083
21.015
21.2009
21.366
21.5104
21.6345
21.7385
21.823
21.8884
21.9352
21.9639
21.9748
21.9686
21.9457
21.9067
21.8523
21.7831
21.6996
21.6024
21.4919
21.3683
21.2317
21.0821
20.9194
20.7435
20.5543
20.3523
20.1377
19.9113
19.674
19.4267
19.1705
18.9061
18.6342
18.3551
18.0688
17.7751
17.4733
17.1628
16.843
16.5133
16.1738
15.8247
15.4666
15.1004
14.7271
14.348
13.9638
13.5753
13.1826
12.7856
12.3836
11.976
11.5615
11.1393
10.7088
10.2699
9.82319
9.36981
8.91147
8.45034
7.98887
7.52955
7.07473
6.62655
6.18689
5.75738
5.33946
4.9346
4.54448
4.17118
3.8172
3.48511
3.17715
2.89442
14.684
15.3476
15.9926
16.6021
17.1678
17.6874
18.1627
18.5974
18.996
19.3632
19.7026
20.0171
20.3088
20.5787
20.8275
21.0552
21.2618
21.4469
21.6105
21.7528
21.874
21.9747
22.0554
22.1166
22.1589
22.1829
22.1889
22.1775
22.1493
22.1049
22.045
21.9705
21.8821
21.7804
21.666
21.539
21.3995
21.2472
21.0816
20.9023
20.7091
20.5022
20.282
20.0495
19.8057
19.5521
19.2902
19.0211
18.7456
18.4643
18.1769
17.883
17.5814
17.271
16.9505
16.619
16.2762
15.9226
15.5588
15.1863
14.8066
14.4216
14.0325
13.6403
13.2452
12.847
12.4445
12.0363
11.6204
11.195
10.7587
10.3112
9.85289
9.38513
8.91011
8.43072
7.95023
7.47185
6.99851
6.53263
6.07623
5.63085
5.19767
4.77776
4.37263
3.98485
3.61789
3.27605
2.96348
2.68231
14.5979
15.3812
16.1233
16.8028
17.4142
17.9605
18.4489
18.8876
19.2852
19.6492
19.985
20.2966
20.5864
20.8555
21.1044
21.3325
21.5391
21.7235
21.8854
22.0251
22.1429
22.2394
22.3154
22.3717
22.4088
22.4273
22.4277
22.4104
22.3759
22.325
22.2585
22.1776
22.0834
21.9766
21.8579
21.7275
21.5854
21.431
21.2632
21.0809
20.8835
20.671
20.444
20.2035
19.9513
19.6893
19.4199
19.1449
18.8654
18.5818
18.2942
18.0015
17.7021
17.3936
17.0736
16.7407
16.3942
16.0347
15.6634
15.2822
14.8937
14.5008
14.1055
13.7093
13.3123
12.9143
12.5136
12.1076
11.693
11.266
10.8247
10.3679
9.89608
9.41076
8.91496
8.41254
7.90844
7.40681
6.91144
6.42496
5.94964
5.48666
5.03673
4.59955
4.17574
3.76846
3.38239
3.02477
2.70457
2.42603
14.5107
15.4741
16.344
17.1013
17.7541
18.3169
18.8064
19.2368
19.6226
19.9754
20.302
20.6074
20.8933
21.1614
21.4108
21.6405
21.8479
22.0321
22.1922
22.3287
22.4421
22.5334
22.6036
22.6539
22.6851
22.6977
22.6918
22.6678
22.6259
22.5671
22.4924
22.4038
22.3024
22.1897
22.0662
21.9327
21.7888
21.6339
21.4654
21.2808
21.0793
20.8604
20.625
20.3741
20.1106
19.837
19.5577
19.2748
18.9906
18.7051
18.4186
18.1295
17.8358
17.5326
17.2151
16.8816
16.5307
16.1638
15.7818
15.3885
14.987
14.5832
14.1797
13.779
13.3809
12.9854
12.5899
12.1914
11.783
11.3577
10.9128
10.446
9.95864
9.45135
8.92922
8.39672
7.86298
7.33268
6.81149
6.30116
5.80519
5.32363
4.85736
4.40204
3.95501
3.52149
3.10586
2.71958
2.38564
2.11243
14.459
15.7015
16.7266
17.55
18.2234
18.7785
19.2486
19.6502
20.0072
20.3391
20.6494
20.9457
21.2258
21.494
21.7451
21.9803
22.19
22.3752
22.5326
22.6653
22.7727
22.8575
22.9203
22.9632
22.988
22.9943
22.9817
22.9505
22.8999
22.8317
22.7461
22.648
22.5374
22.4179
22.2885
22.1525
22.0077
21.8559
21.6906
21.5048
21.3001
21.073
20.8282
20.5627
20.2843
19.9924
19.7002
19.4064
19.1176
18.8294
18.5465
18.2637
17.9828
17.692
17.3794
17.0472
16.69
16.3145
15.9164
15.5065
15.0833
14.6651
14.2495
13.845
13.4454
13.0562
12.6702
12.2894
11.8973
11.4775
11.0324
10.5537
10.0497
9.51321
8.95827
8.38256
7.81247
7.24531
6.69581
6.1566
5.63991
5.13851
4.66214
4.19255
3.71476
3.24869
2.78706
2.33896
1.9792
1.71944
14.5996
16.2417
17.3996
18.2145
18.863
19.3622
19.7893
20.1275
20.4276
20.7339
21.0164
21.3074
21.5748
21.8511
22.102
22.3567
22.5671
22.7578
22.9084
23.038
23.1356
23.213
23.2651
23.2985
23.3171
23.3176
23.2983
23.2608
23.1988
23.1212
23.0174
22.9099
22.7847
22.6603
22.5203
22.3845
22.2363
22.0973
21.9451
21.7557
21.5528
21.3109
21.0607
20.7694
20.4773
20.148
19.845
19.5305
19.2433
18.946
18.6741
18.3948
18.1439
17.8827
17.5715
17.2488
16.8752
16.4977
16.0677
15.6432
15.1722
14.7432
14.3029
13.9039
13.4946
13.1225
12.7429
12.4033
12.0514
11.6335
11.2002
10.6978
10.1873
9.60155
9.01714
8.36019
7.75767
7.13241
6.56524
5.97951
5.45256
4.91728
4.45711
3.99483
3.45757
2.96948
2.44872
1.83111
1.42875
1.20845
15.674
17.479
18.5664
19.1181
19.7176
20.0493
20.4578
20.6593
20.8389
21.1625
21.371
21.7026
21.911
22.2445
22.453
22.7967
22.972
23.1981
23.314
23.4565
23.527
23.6045
23.6368
23.6546
23.672
23.6693
23.6405
23.6061
23.52
23.448
23.2938
23.197
23.0305
22.9247
22.7457
22.634
22.4513
22.3573
22.2527
22.0255
21.8616
21.5604
21.3522
20.9772
20.7235
20.2654
20.006
19.6152
19.3831
19.0258
18.812
18.485
18.3195
18.1451
17.7799
17.5235
17.066
16.7562
16.2108
15.8468
15.2006
14.8371
14.2969
13.9774
13.4901
13.1994
12.7579
12.5347
12.3004
11.8114
11.4675
10.8531
10.4333
9.68782
9.18033
8.25936
7.73549
6.93576
6.46133
5.71769
5.27715
4.58784
4.25504
3.90501
3.12955
2.73726
2.2498
1.01327
0.616126
0.510378
3.31617
3.006
2.71279
2.43572
2.1737
1.92554
1.68992
1.46546
1.25077
1.04447
0.84517
0.65155
0.4623
0.276148
0.0918447
3.29856
2.98898
2.69663
2.42062
2.15982
1.91298
1.67873
1.45567
1.24238
1.03744
0.839484
0.64717
0.459197
0.274297
0.0912293
3.26304
2.95469
2.66411
2.39027
2.13196
1.8878
1.65634
1.4361
1.22561
1.02342
0.828145
0.638442
0.453014
0.270609
0.0900037
3.209
2.90261
2.61479
2.34437
2.08992
1.84989
1.62271
1.40676
1.20051
1.00247
0.811225
0.62543
0.443804
0.265118
0.0881792
3.13547
2.83191
2.54806
2.28246
2.03341
1.79913
1.57781
1.36771
1.16719
0.974716
0.788844
0.608241
0.431648
0.257875
0.0857734
3.04108
2.74146
2.46305
2.20397
1.96213
1.73538
1.52166
1.31906
1.12582
0.940342
0.761186
0.587033
0.416669
0.248956
0.0828121
2.92398
2.62975
2.35867
2.10822
1.87572
1.65857
1.45438
1.26104
1.07666
0.899635
0.728514
0.562029
0.399032
0.238464
0.0793302
2.78165
2.49486
2.23364
1.99449
1.77393
1.56877
1.37624
1.19402
1.02016
0.853007
0.691196
0.533531
0.378961
0.226536
0.0753733
2.61075
2.33438
2.0865
1.86215
1.65672
1.46632
1.28779
1.11864
0.956912
0.80103
0.649724
0.501931
0.35674
0.213344
0.0709991
2.40673
2.14536
1.91582
1.71087
1.52446
1.35197
1.18993
1.03583
0.887808
0.744469
0.604729
0.467721
0.332721
0.199097
0.0662773
2.16342
1.92447
1.72052
1.54101
1.37829
1.22714
1.08412
0.946925
0.814012
0.684298
0.556995
0.431499
0.30732
0.184043
0.0612899
1.87252
1.66858
1.50075
1.35434
1.22051
1.09418
0.972463
0.853728
0.737006
0.621707
0.507447
0.393953
0.281016
0.168461
0.056129
1.52383
1.37655
1.25954
1.15509
1.05522
0.956577
0.857818
0.758507
0.658568
0.558071
0.457125
0.355844
0.254326
0.152653
0.0508936
1.10902
1.05421
1.00576
0.95123
0.888708
0.819075
0.743716
0.663902
0.58068
0.494875
0.407133
0.317968
0.227787
0.13693
0.0456855
0.640543
0.725493
0.758054
0.755349
0.72929
0.687291
0.634056
0.572699
0.505368
0.433608
0.358561
0.281101
0.201923
0.121593
0.0406029
9.89146
9.67404
9.45555
9.23516
9.01187
8.78436
8.55085
8.30872
8.054
7.78012
7.4751
7.11367
6.63054
5.81132
3.77397
9.87075
9.61145
9.34974
9.08374
8.8112
8.52921
8.23376
7.91903
7.57613
7.19051
6.73655
6.16506
5.37273
4.12789
1.92523
9.85057
9.55055
9.24689
8.93684
8.61709
8.2834
7.93003
7.54888
7.1279
6.64834
6.07961
5.36978
4.42913
3.10957
1.2208
9.83122
9.49215
9.14846
8.79667
8.43265
8.05123
7.64558
7.20637
6.72034
6.16807
5.52062
4.73476
3.74864
2.48654
0.900268
9.81291
9.43697
9.05566
8.66499
8.26029
7.83587
7.38443
6.89637
6.35875
5.75388
5.05773
4.23878
3.2598
2.0886
0.728526
9.79581
9.38551
8.96935
8.54303
8.10162
7.63926
7.14869
6.62077
6.04384
5.40306
4.68011
3.85393
2.90443
1.82183
0.624125
9.78004
9.33813
8.8901
8.43154
7.9575
7.46223
6.93887
6.3792
5.77325
5.10929
4.37415
3.55471
2.64146
1.63498
0.554825
9.76567
9.29498
8.81815
8.3308
7.82812
7.30468
6.75428
6.16975
5.54295
4.86495
4.12672
3.32064
2.44324
1.4993
0.506001
9.75269
9.2561
8.75351
8.2407
7.71314
7.16586
6.59337
5.98964
5.34818
4.66243
3.9264
3.13607
2.29122
1.39789
0.470164
9.74109
9.22138
8.69595
8.16083
7.61185
7.04454
6.45416
5.83572
5.18418
4.4948
3.7638
2.98935
2.17288
1.32036
0.44308
9.7308
9.19064
8.64512
8.0906
7.52327
6.93923
6.33442
5.70479
5.04645
4.35607
3.63136
2.87182
2.07956
1.26001
0.422163
9.72175
9.16361
8.60055
8.02924
7.44631
6.84834
6.23192
5.59378
4.93097
4.24118
3.5231
2.777
2.00518
1.21238
0.405742
9.71383
9.14
8.5617
7.97596
7.37979
6.77025
6.14449
5.4999
4.83423
4.14592
3.4343
2.70003
1.94538
1.17436
0.392686
9.70694
9.11948
8.52802
7.92991
7.32255
6.70341
6.07014
5.42064
4.75322
4.06683
3.36122
2.63723
1.89693
1.14372
0.3822
9.70098
9.10174
8.49896
7.89029
7.27349
6.64639
6.00706
5.35382
4.68539
4.00109
3.30091
2.58574
1.85745
1.11887
0.373711
9.69584
9.08647
8.47398
7.85632
7.23156
6.59787
5.95364
5.29753
4.62859
3.94636
3.251
2.54338
1.82511
1.09858
0.366793
9.69143
9.07337
8.45258
7.82729
7.19583
6.55667
5.90847
5.25015
4.58101
3.90075
3.20961
2.5084
1.79851
1.08193
0.361126
9.68765
9.06216
8.4343
7.80254
7.16545
6.52175
5.87031
5.21029
4.54114
3.8627
3.17522
2.47943
1.77655
1.06822
0.356465
9.68443
9.05261
8.41873
7.78149
7.13967
6.49219
5.83811
5.17677
4.50773
3.83092
3.14659
2.4554
1.75838
1.05689
0.352616
9.68169
9.04447
8.40549
7.76362
7.11783
6.4672
5.81097
5.14858
4.47973
3.80436
3.12273
2.43542
1.74329
1.04751
0.349429
9.67936
9.03756
8.39426
7.74848
7.09935
6.44609
5.78809
5.12489
4.45624
3.78214
3.10282
2.41878
1.73075
1.03971
0.346785
9.67738
9.03171
8.38474
7.73566
7.08372
6.42829
5.76883
5.10497
4.43654
3.76354
3.08618
2.4049
1.72031
1.03323
0.344586
9.67571
9.02675
8.37668
7.72482
7.07053
6.41327
5.75261
5.08824
4.42002
3.74797
3.07228
2.39331
1.7116
1.02782
0.342754
9.67429
9.02255
8.36987
7.71567
7.05941
6.40062
5.73896
5.07418
4.40616
3.73492
3.06064
2.38363
1.70433
1.02331
0.341226
9.67309
9.01901
8.36413
7.70795
7.05003
6.38997
5.72749
5.06237
4.39453
3.72399
3.0509
2.37553
1.69826
1.01955
0.339951
9.67208
9.01602
8.35928
7.70144
7.04213
6.38101
5.71784
5.05245
4.38477
3.71483
3.04275
2.36876
1.69318
1.0164
0.338885
9.67123
9.0135
8.3552
7.69596
7.03548
6.37347
5.70973
5.04412
4.37658
3.70714
3.03592
2.36309
1.68893
1.01377
0.337994
9.67051
9.01138
8.35176
7.69135
7.02988
6.36713
5.70292
5.03713
4.36972
3.70071
3.03019
2.35834
1.68537
1.01157
0.337249
9.66991
9.00959
8.34887
7.68747
7.02518
6.36181
5.6972
5.03126
4.36396
3.69531
3.0254
2.35437
1.6824
1.00973
0.336626
9.6694
9.00809
8.34644
7.68422
7.02124
6.35734
5.69241
5.02635
4.35914
3.6908
3.02139
2.35105
1.67991
1.00819
0.336105
9.66898
9.00684
8.3444
7.68148
7.01793
6.3536
5.68839
5.02223
4.3551
3.68702
3.01804
2.34827
1.67783
1.0069
0.335669
9.66862
9.00578
8.34269
7.6792
7.01516
6.35047
5.68503
5.01879
4.35173
3.68386
3.01524
2.34595
1.6761
1.00583
0.335306
9.66832
9.0049
8.34127
7.67729
7.01285
6.34785
5.68222
5.01592
4.34891
3.68123
3.0129
2.34401
1.67465
1.00494
0.335003
9.66808
9.00417
8.34008
7.6757
7.01092
6.34568
5.67989
5.01353
4.34657
3.67904
3.01096
2.34241
1.67345
1.00419
0.334752
9.66787
9.00356
8.33909
7.67438
7.00933
6.34387
5.67796
5.01155
4.34463
3.67723
3.00936
2.34108
1.67245
1.00358
0.334543
9.6677
9.00306
8.33828
7.67329
7.00802
6.34239
5.67637
5.00992
4.34304
3.67574
3.00803
2.33998
1.67164
1.00307
0.334372
9.66756
9.00265
8.33762
7.67241
7.00694
6.34118
5.67507
5.00859
4.34174
3.67452
3.00696
2.33909
1.67097
1.00266
0.334233
9.66745
9.00232
8.33709
7.6717
7.00608
6.3402
5.67402
5.00752
4.3407
3.67354
3.00609
2.33837
1.67043
1.00233
0.334121
9.66736
9.00206
8.33667
7.67114
7.00541
6.33944
5.67321
5.00669
4.33988
3.67278
3.00541
2.33781
1.67001
1.00207
0.334033
9.6673
9.00187
8.33636
7.67071
7.00489
6.33886
5.67258
5.00605
4.33925
3.6722
3.0049
2.33738
1.66969
1.00187
0.333966
9.66725
9.00173
8.33613
7.67041
7.00453
6.33845
5.67214
5.0056
4.33881
3.67178
3.00453
2.33708
1.66947
1.00173
0.333919
9.66722
9.00164
8.33599
7.67022
7.0043
6.33819
5.67187
5.00532
4.33853
3.67152
3.0043
2.33689
1.66933
1.00164
0.333889
9.66721
9.0016
8.33593
7.67014
7.0042
6.33808
5.67175
5.0052
4.33842
3.67141
3.0042
2.33681
1.66927
1.00161
0.333877
9.66721
9.00162
8.33595
7.67017
7.00423
6.33811
5.67178
5.00523
4.33845
3.67145
3.00423
2.33684
1.66928
1.00162
0.333881
9.66723
9.00168
8.33605
7.6703
7.00439
6.33829
5.67197
5.00543
4.33864
3.67163
3.00439
2.33697
1.66938
1.00168
0.333901
9.66727
9.00179
8.33623
7.67054
7.00468
6.33862
5.67233
5.00579
4.339
3.67196
3.00468
2.33721
1.66956
1.00179
0.333939
9.66733
9.00195
8.33649
7.6709
7.00511
6.33911
5.67285
5.00632
4.33952
3.67245
3.00512
2.33757
1.66983
1.00196
0.333995
9.6674
9.00218
8.33686
7.67138
7.0057
6.33977
5.67356
5.00705
4.34023
3.67311
3.00571
2.33805
1.6702
1.00218
0.334071
9.6675
9.00247
8.33733
7.67201
7.00646
6.34063
5.67448
5.00799
4.34115
3.67397
3.00647
2.33869
1.67067
1.00247
0.33417
9.66762
9.00283
8.33792
7.6728
7.00742
6.34171
5.67564
5.00918
4.34231
3.67506
3.00743
2.33948
1.67126
1.00284
0.334294
9.66778
9.00328
8.33864
7.67378
7.0086
6.34305
5.67707
5.01064
4.34374
3.67639
3.00862
2.34046
1.67199
1.00329
0.334447
9.66796
9.00383
8.33953
7.67497
7.01004
6.34467
5.67881
5.01242
4.34549
3.67803
3.01006
2.34166
1.67289
1.00385
0.334635
9.66819
9.0045
8.34061
7.67641
7.01178
6.34664
5.68093
5.01459
4.34761
3.68001
3.01182
2.34311
1.67398
1.00452
0.334862
9.66846
9.0053
8.34191
7.67814
7.01388
6.34902
5.68347
5.01719
4.35016
3.68239
3.01393
2.34486
1.67529
1.00533
0.335136
9.66878
9.00626
8.34346
7.68022
7.0164
6.35187
5.68652
5.02032
4.35322
3.68526
3.01647
2.34697
1.67686
1.0063
0.335465
9.66917
9.0074
8.34532
7.68271
7.01941
6.35527
5.69018
5.02406
4.35689
3.68869
3.01952
2.34949
1.67875
1.00747
0.33586
9.66963
9.00877
8.34753
7.68568
7.02301
6.35934
5.69455
5.02853
4.36128
3.69279
3.02316
2.3525
1.681
1.00886
0.336332
9.67018
9.0104
8.35018
7.68922
7.0273
6.3642
5.69975
5.03387
4.36651
3.69769
3.02751
2.35611
1.6837
1.01053
0.336897
9.67084
9.01234
8.35332
7.69344
7.03241
6.36998
5.70596
5.04024
4.37276
3.70354
3.0327
2.36041
1.68692
1.01253
0.337572
9.67162
9.01465
8.35706
7.69845
7.03849
6.37686
5.71336
5.04783
4.3802
3.71052
3.0389
2.36556
1.69077
1.01491
0.338379
9.67255
9.01739
8.3615
7.70441
7.04571
6.38505
5.72216
5.05686
4.38908
3.71885
3.0463
2.37169
1.69537
1.01776
0.339343
9.67365
9.02065
8.36677
7.71149
7.0543
6.39479
5.73264
5.06763
4.39966
3.72877
3.05513
2.37902
1.70086
1.02116
0.340495
9.67495
9.0245
8.37303
7.71989
7.0645
6.40636
5.7451
5.08044
4.41227
3.74061
3.06567
2.38778
1.70743
1.02523
0.341873
9.67649
9.02907
8.38044
7.72985
7.0766
6.42011
5.75992
5.09569
4.42729
3.75474
3.07826
2.39825
1.71528
1.0301
0.343522
9.67832
9.03448
8.38922
7.74165
7.09096
6.43643
5.77753
5.11384
4.44519
3.77159
3.09329
2.41076
1.72468
1.03593
0.345497
9.68048
9.04087
8.3996
7.75562
7.10797
6.4558
5.79845
5.13545
4.46653
3.79171
3.11127
2.42574
1.73594
1.04291
0.347866
9.68302
9.04842
8.41187
7.77214
7.12811
6.47877
5.82331
5.16115
4.49197
3.81574
3.13276
2.44368
1.74945
1.0513
0.350711
9.68603
9.05732
8.42634
7.79166
7.15193
6.50598
5.85282
5.19173
4.5223
3.84445
3.1585
2.4652
1.76567
1.06139
0.354134
9.68956
9.06779
8.44339
7.81467
7.18008
6.53819
5.88784
5.22811
4.55846
3.87877
3.18935
2.49105
1.78519
1.07354
0.358259
9.6937
9.08008
8.46343
7.84177
7.21329
6.57629
5.92936
5.27137
4.60161
3.91984
3.22638
2.52215
1.80872
1.08821
0.363244
9.69855
9.09449
8.48694
7.87362
7.2524
6.62129
5.97855
5.32281
4.6531
3.96903
3.27087
2.55964
1.83716
1.10597
0.369286
9.70422
9.11133
8.51444
7.91096
7.29837
6.67435
6.03678
5.38394
4.71455
4.028
3.32443
2.60495
1.87164
1.12756
0.376637
9.71082
9.13093
8.54652
7.95461
7.35229
6.73681
6.10563
5.45656
4.78793
4.09877
3.38905
2.65987
1.91359
1.1539
0.385619
9.71846
9.15368
8.58382
8.00548
7.41535
6.81017
6.18688
5.54275
4.87555
4.18382
3.46719
2.72665
1.96486
1.1862
0.396656
9.72728
9.17997
8.62699
8.06455
7.48885
6.8961
6.28261
5.64496
4.9802
4.28616
3.56191
2.80819
2.02784
1.22606
0.410308
9.73742
9.21018
8.67673
8.13283
7.57419
6.99642
6.39512
5.766
5.10517
4.40948
3.67711
2.90822
2.10569
1.27562
0.427336
9.74898
9.24471
8.73371
8.21135
7.67281
7.11308
6.52693
5.90906
5.25434
4.55827
3.81765
3.03161
2.20268
1.33783
0.448799
9.7621
9.28392
8.79858
8.30109
7.78614
7.24807
6.68076
6.0777
5.43223
4.73797
3.98973
3.18477
2.3246
1.41682
0.476211
9.77686
9.32811
8.87189
8.40293
7.91553
7.40337
6.85941
6.27579
5.64398
4.95517
4.2012
3.37626
2.47957
1.51862
0.511824
9.79332
9.37747
8.95404
8.51759
8.06211
7.58075
7.06558
6.50732
5.8953
5.2176
4.46193
3.61758
2.67918
1.65224
0.559143
9.81151
9.4321
9.04522
8.64545
8.22664
7.7816
7.30165
6.77619
6.19223
5.53418
4.78423
3.9242
2.94025
1.83179
0.623954
9.83141
9.49191
9.14535
8.78652
8.40939
8.00669
7.56933
7.08566
6.54059
5.91456
5.18295
4.31687
3.28779
2.08034
0.716592
9.8529
9.55662
9.254
8.94028
8.60987
8.25583
7.86914
7.43777
6.94515
6.36824
5.67505
4.82271
3.75918
2.43742
0.857446
9.87582
9.62574
9.37035
9.10563
8.82676
8.52761
8.19998
7.83239
7.40823
6.90264
6.27766
5.47518
4.40989
2.97381
1.09198
9.89994
9.69853
9.49316
9.28079
9.05772
8.81917
8.55853
8.26627
7.92782
7.51993
7.00349
6.31013
5.31807
3.81973
1.53634
9.92495
9.77408
9.62083
9.46336
9.29943
9.12604
8.93904
8.73219
8.49562
8.21257
7.85216
7.35249
6.57779
5.2108
2.5288
9.95049
9.85127
9.75141
9.65042
9.54767
9.44235
9.33329
9.21871
9.09568
8.95888
8.79751
8.58578
8.2488
7.51502
5.17098
9.97618
9.9289
9.88277
9.83867
9.79768
9.76123
9.73136
9.71108
9.70525
9.72222
9.77778
9.906
10.1953
10.9374
13.3672
10.0016
10.0057
10.0127
10.0247
10.0445
10.0755
10.1227
10.1934
10.2989
10.4587
10.7075
11.1143
11.8273
13.1878
15.9632
10.0264
10.0806
10.1391
10.2054
10.2835
10.3786
10.4978
10.6514
10.855
11.1333
11.5275
12.1099
13.0096
14.4554
16.8043
0.263389
0.472186
0.563305
0.597191
0.597759
0.576781
0.540974
0.494563
0.440388
0.380455
0.316242
0.248881
0.179266
0.108139
0.036141
0.141339
0.323622
0.426002
0.476544
0.493144
0.486609
0.463713
0.428918
0.385308
0.335102
0.279956
0.221151
0.159717
0.0965107
0.0322817
0.089005
0.230544
0.324693
0.379464
0.404589
0.407795
0.39471
0.369391
0.334807
0.293177
0.246207
0.195246
0.141397
0.0855922
0.0286544
0.061998
0.170373
0.250726
0.302969
0.331252
0.34029
0.334199
0.316296
0.289195
0.254957
0.215227
0.171346
0.124435
0.0754596
0.0252844
0.0458383
0.12966
0.196279
0.24311
0.271276
0.283288
0.281888
0.269586
0.248538
0.220548
0.187127
0.149548
0.108904
0.0661595
0.0221877
0.0351328
0.100893
0.15557
0.196212
0.222515
0.235598
0.237144
0.228948
0.212698
0.189909
0.161913
0.129877
0.0948326
0.0577109
0.0193708
0.0275559
0.0798209
0.124607
0.159268
0.182934
0.195917
0.199165
0.1939
0.181396
0.162885
0.139504
0.112293
0.0822025
0.050108
0.0168327
0.0219556
0.0639418
0.100675
0.129959
0.150771
0.162993
0.167097
0.163876
0.154266
0.139241
0.119753
0.0967087
0.0709631
0.0433245
0.0145652
0.0176919
0.05171
0.0819143
0.106533
0.12457
0.135706
0.140115
0.138287
0.130895
0.118695
0.102471
0.0829992
0.0610377
0.037319
0.0125553
0.0143765
0.0421262
0.0670321
0.0876756
0.103161
0.11309
0.117461
0.116561
0.110861
0.100942
0.0874421
0.0710182
0.052332
0.0320389
0.010786
0.0117579
0.0345168
0.0551092
0.0723993
0.085611
0.0943323
0.0984674
0.0981665
0.0937555
0.0856767
0.0744431
0.0606075
0.0447417
0.0274251
0.00923834
0.00966469
0.0284116
0.0454791
0.0599546
0.071178
0.0787585
0.0825533
0.0826256
0.0791965
0.0726008
0.0632503
0.051606
0.0381586
0.0234153
0.00789188
0.00797595
0.0234723
0.0376485
0.0497677
0.0592741
0.0658129
0.0692236
0.0695155
0.0668358
0.0614374
0.0536499
0.0438563
0.032475
0.0199469
0.00672617
0.00660348
0.0194496
0.031246
0.0413949
0.0494304
0.055039
0.0580591
0.0584683
0.0563625
0.0519325
0.0454421
0.0372087
0.0275876
0.0169594
0.00572123
0.00548149
0.0161558
0.0259875
0.0344892
0.0412718
0.0460621
0.0487071
0.0491671
0.0475026
0.043858
0.0384444
0.0315246
0.0233991
0.0143954
0.00485809
0.00455995
0.0134469
0.0216523
0.028777
0.0344962
0.0385746
0.0408721
0.0413408
0.0400175
0.0370114
0.0324922
0.0266773
0.0198204
0.0122017
0.00411914
0.00380015
0.0112111
0.0180673
0.0240406
0.0288598
0.0323236
0.0343066
0.0347586
0.0337005
0.0312153
0.0274397
0.0225534
0.0167705
0.01033
0.0034883
0.00317176
0.0093606
0.0150954
0.0201054
0.0241643
0.0271007
0.0288038
0.029225
0.0283741
0.0263151
0.023158
0.0190521
0.0141772
0.00873694
0.00295107
0.00265077
0.00782531
0.0126265
0.0168305
0.0202481
0.0227338
0.0241912
0.0245743
0.0238866
0.0221771
0.0195352
0.0160844
0.0119764
0.00738378
0.00249455
0.00221797
0.00654918
0.0105723
0.0141016
0.0169789
0.0190809
0.0203243
0.020667
0.0201084
0.0186864
0.0164738
0.0135731
0.0101119
0.00623654
0.00210736
0.00185786
0.00548694
0.00886093
0.0118254
0.0142479
0.0160242
0.0170826
0.0173854
0.0169296
0.0157447
0.01389
0.011451
0.00853483
0.00526555
0.00177953
0.0015579
0.00460181
0.00743387
0.0099254
0.0119654
0.013466
0.0143654
0.0146306
0.014257
0.0132679
0.0117119
0.00966023
0.0072029
0.00444501
0.00150243
0.00130786
0.00386373
0.00624322
0.00833885
0.0100576
0.011325
0.0120885
0.0123191
0.0120117
0.0111847
0.00987797
0.00815102
0.00607963
0.00375268
0.00126857
0.00109935
0.00324812
0.00524964
0.00701399
0.00846298
0.00953382
0.0101816
0.0103812
0.0101272
0.00943442
0.00833577
0.00688093
0.00513376
0.00316946
0.00107152
0.000925501
0.00273473
0.00442072
0.00590804
0.00713094
0.00803632
0.00858597
0.00875801
0.00854744
0.00796591
0.00704082
0.00581379
0.00433864
0.00267902
0.000905793
0.000780653
0.00230691
0.00372972
0.00498567
0.00601934
0.00678578
0.00725246
0.00740049
0.00722516
0.0067359
0.0059555
0.00491891
0.00367158
0.00226744
0.000766693
0.000660137
0.0019509
0.00315455
0.00421762
0.00509325
0.00574335
0.00614017
0.00626743
0.00612083
0.00570802
0.00504803
0.00417032
0.00311337
0.00192295
0.000650248
0.000560105
0.00165537
0.00267699
0.00357969
0.00432375
0.00487676
0.00521502