/*--------------------------------*- C++ -*----------------------------------*\
| =========                 |                                                 |
| \\      /  F ield         | OpenFOAM: The Open Source CFD Toolbox           |
|  \\    /   O peration     | Version:  5.x                                   |
|   \\  /    A nd           | Web:      www.OpenFOAM.org                      |
|    \\/     M anipulation  |                                                 |
\*---------------------------------------------------------------------------*/
FoamFile
{
    version     2.0;
    format      ascii;
    class       volScalarField;
    location    "2.6";
    object      gradTx;
}
// * * * * * * * * * * * * * * * * * * * * * * * * * * * * * * * * * * * * * //

dimensions      [0 -1 0 1 0 0 0];

internalField   nonuniform List<scalar> 
3200
(
7.61518e-05
-4.54186e-06
-9.09749e-06
-9.2612e-06
-7.77259e-06
-7.59473e-06
-5.46476e-06
-5.29039e-06
-3.85415e-06
-5.88044e-06
-2.70093e-06
-1.91233e-06
-1.83355e-06
-1.38662e-06
-1.34588e-06
-1.03201e-06
-1.00356e-06
-7.75046e-07
-7.54216e-07
-5.84761e-07
-5.69249e-07
-4.42168e-07
-4.30504e-07
-3.3454e-07
-3.25719e-07
-2.5296e-07
-2.46267e-07
-1.90988e-07
-1.85902e-07
-1.43875e-07
-1.40009e-07
-1.08067e-07
-1.0513e-07
-8.08789e-08
-7.86502e-08
-6.02688e-08
-5.85811e-08
-4.46788e-08
-4.34038e-08
-3.29172e-08
-3.19568e-08
-2.40725e-08
-2.33515e-08
-1.74471e-08
-1.69084e-08
-1.25085e-08
-1.21093e-08
-8.85582e-09
-8.5835e-09
-6.34437e-09
-9.58798e-09
-4.32782e-09
-2.85064e-09
-2.70425e-09
-1.82326e-09
-1.74446e-09
-1.14716e-09
-1.09509e-09
-6.99802e-10
-6.65844e-10
-4.1339e-10
-3.91994e-10
-2.36724e-10
-2.23726e-10
-1.31612e-10
-1.23982e-10
-7.10617e-11
-6.67147e-11
-3.71114e-11
-3.46937e-11
-1.84652e-11
-1.71126e-11
-7.69492e-12
-6.93239e-12
-1.83646e-12
-1.49294e-12
-9.72297e-14
-1.78232e-14
-4.03419e-15
9.23108e-13
7.58323e-05
-4.7615e-06
-8.64167e-06
-9.02322e-06
-7.83632e-06
-7.43325e-06
-5.62869e-06
-5.23429e-06
-4.12155e-06
-5.42552e-06
-2.88553e-06
-2.01383e-06
-1.82062e-06
-1.42357e-06
-1.32852e-06
-1.05618e-06
-9.9024e-07
-7.92442e-07
-7.44207e-07
-5.97606e-07
-5.61692e-07
-4.51778e-07
-4.24775e-07
-3.41786e-07
-3.21365e-07
-2.5845e-07
-2.42955e-07
-1.95158e-07
-1.83383e-07
-1.47045e-07
-1.38094e-07
-1.10477e-07
-1.03677e-07
-8.27091e-08
-7.75502e-08
-6.16569e-08
-5.77502e-08
-4.57294e-08
-4.27779e-08
-3.37104e-08
-3.14871e-08
-2.46695e-08
-2.30006e-08
-1.78948e-08
-1.66477e-08
-1.28434e-08
-1.19198e-08
-9.11658e-09
-8.49754e-09
-6.76345e-09
-8.83988e-09
-4.61827e-09
-3.03048e-09
-2.67394e-09
-1.89561e-09
-1.71204e-09
-1.19408e-09
-1.07342e-09
-7.31006e-10
-6.52324e-10
-4.33503e-10
-3.83913e-10
-2.49209e-10
-2.19071e-10
-1.39082e-10
-1.21382e-10
-7.53839e-11
-6.52962e-11
-3.95423e-11
-3.39289e-11
-1.979e-11
-1.66497e-11
-8.46876e-12
-6.7007e-12
-2.28645e-12
-1.48809e-12
-2.39033e-13
-5.08431e-14
-1.16821e-14
9.20598e-13
7.55703e-05
-4.8839e-06
-8.32575e-06
-8.84794e-06
-7.86864e-06
-7.32779e-06
-5.73617e-06
-5.20688e-06
-4.29224e-06
-5.12433e-06
-3.00338e-06
-2.08816e-06
-1.81582e-06
-1.44843e-06
-1.31824e-06
-1.07208e-06
-9.82188e-07
-8.03849e-07
-7.38127e-07
-6.06019e-07
-5.57091e-07
-4.58067e-07
-4.21281e-07
-3.46527e-07
-3.18708e-07
-2.62041e-07
-2.40933e-07
-1.97885e-07
-1.81845e-07
-1.49118e-07
-1.36926e-07
-1.12053e-07
-1.02791e-07
-8.39064e-08
-7.68791e-08
-6.2565e-08
-5.72434e-08
-4.64169e-08
-4.23964e-08
-3.42296e-08
-3.1201e-08
-2.50603e-08
-2.2787e-08
-1.8188e-08
-1.64893e-08
-1.3063e-08
-1.18055e-08
-9.28991e-09
-8.45613e-09
-7.03005e-09
-8.34366e-09
-4.80334e-09
-3.16105e-09
-2.66048e-09
-1.94414e-09
-1.69297e-09
-1.22511e-09
-1.06062e-09
-7.51653e-10
-6.44404e-10
-4.46843e-10
-3.79233e-10
-2.5751e-10
-2.1641e-10
-1.44059e-10
-1.19914e-10
-7.82689e-11
-6.45039e-11
-4.11671e-11
-3.35049e-11
-2.06746e-11
-1.63883e-11
-8.98598e-12
-6.5748e-12
-2.59177e-12
-1.50125e-12
-3.3839e-13
-7.78966e-14
-1.8143e-14
9.18464e-13
7.53861e-05
-4.9471e-06
-8.12655e-06
-8.73264e-06
-7.88336e-06
-7.26429e-06
-5.8011e-06
-5.19484e-06
-4.39302e-06
-4.94121e-06
-3.07296e-06
-2.13676e-06
-1.8148e-06
-1.46379e-06
-1.31258e-06
-1.08171e-06
-9.77662e-07
-8.10743e-07
-7.34695e-07
-6.11098e-07
-5.54487e-07
-4.61862e-07
-4.19302e-07
-3.49386e-07
-3.17201e-07
-2.64206e-07
-2.39786e-07
-1.99529e-07
-1.80972e-07
-1.50368e-07
-1.36263e-07
-1.13003e-07
-1.02288e-07
-8.46284e-08
-7.64986e-08
-6.31128e-08
-5.69561e-08
-4.68316e-08
-4.21803e-08
-3.45428e-08
-3.1039e-08
-2.52962e-08
-2.26661e-08
-1.8365e-08
-1.63997e-08
-1.31956e-08
-1.17414e-08
-9.39584e-09
-8.4383e-09
-7.18698e-09
-8.04152e-09
-4.91242e-09
-3.2459e-09
-2.65561e-09
-1.97405e-09
-1.68255e-09
-1.24399e-09
-1.05358e-09
-7.64222e-10
-6.40089e-10
-4.54979e-10
-3.76714e-10
-2.62583e-10
-2.14995e-10
-1.47105e-10
-1.19144e-10
-8.00376e-11
-6.40936e-11
-4.21644e-11
-3.32871e-11
-2.12171e-11
-1.62513e-11
-9.30342e-12
-6.51169e-12
-2.78133e-12
-1.51727e-12
-4.01636e-13
-9.69124e-14
-2.28033e-14
9.16916e-13
7.52913e-05
-4.97353e-06
-8.03019e-06
-8.67547e-06
-7.88877e-06
-7.23445e-06
-5.83166e-06
-5.19053e-06
-4.43972e-06
-4.8547e-06
-3.10522e-06
-2.16075e-06
-1.81492e-06
-1.47112e-06
-1.31009e-06
-1.08626e-06
-9.75637e-07
-8.13989e-07
-7.33153e-07
-6.13488e-07
-5.53316e-07
-4.63647e-07
-4.18411e-07
-3.50731e-07
-3.16523e-07
-2.65224e-07
-2.3927e-07
-2.00302e-07
-1.80579e-07
-1.50956e-07
-1.35964e-07
-1.1345e-07
-1.02061e-07
-8.49679e-08
-7.63271e-08
-6.33704e-08
-5.68268e-08
-4.70266e-08
-4.2083e-08
-3.46901e-08
-3.09661e-08
-2.54071e-08
-2.26117e-08
-1.84483e-08
-1.63595e-08
-1.32581e-08
-1.17127e-08
-9.44611e-09
-8.4321e-09
-7.25957e-09
-7.89863e-09
-4.96292e-09
-3.28764e-09
-2.65435e-09
-1.98831e-09
-1.67799e-09
-1.25291e-09
-1.05048e-09
-7.7017e-10
-6.38204e-10
-4.58834e-10
-3.75623e-10
-2.64989e-10
-2.14389e-10
-1.48552e-10
-1.18818e-10
-8.08785e-11
-6.39217e-11
-4.26388e-11
-3.31965e-11
-2.14751e-11
-1.61933e-11
-9.45443e-12
-6.486e-12
-2.87216e-12
-1.52731e-12
-4.32424e-13
-1.06694e-13
-2.52403e-14
9.16103e-13
7.52914e-05
-4.97356e-06
-8.0302e-06
-8.67547e-06
-7.88877e-06
-7.23445e-06
-5.83166e-06
-5.19053e-06
-4.43972e-06
-4.8547e-06
-3.10522e-06
-2.16075e-06
-1.81492e-06
-1.47112e-06
-1.31009e-06
-1.08626e-06
-9.75637e-07
-8.13989e-07
-7.33153e-07
-6.13488e-07
-5.53316e-07
-4.63647e-07
-4.18411e-07
-3.50731e-07
-3.16523e-07
-2.65224e-07
-2.3927e-07
-2.00302e-07
-1.80579e-07
-1.50956e-07
-1.35964e-07
-1.1345e-07
-1.02061e-07
-8.49679e-08
-7.63271e-08
-6.33704e-08
-5.68268e-08
-4.70266e-08
-4.2083e-08
-3.46901e-08
-3.09661e-08
-2.54071e-08
-2.26117e-08
-1.84483e-08
-1.63595e-08
-1.32581e-08
-1.17127e-08
-9.44611e-09
-8.4321e-09
-7.25957e-09
-7.89863e-09
-4.96292e-09
-3.28764e-09
-2.65435e-09
-1.98831e-09
-1.67799e-09
-1.25291e-09
-1.05048e-09
-7.70169e-10
-6.38204e-10
-4.58834e-10
-3.75623e-10
-2.64989e-10
-2.14389e-10
-1.48552e-10
-1.18818e-10
-8.08784e-11
-6.39217e-11
-4.26388e-11
-3.31965e-11
-2.14751e-11
-1.61933e-11
-9.45443e-12
-6.48599e-12
-2.87216e-12
-1.52731e-12
-4.32422e-13
-1.06693e-13
-2.52394e-14
9.16103e-13
7.53862e-05
-4.94719e-06
-8.12656e-06
-8.73265e-06
-7.88336e-06
-7.26429e-06
-5.8011e-06
-5.19484e-06
-4.39302e-06
-4.94121e-06
-3.07296e-06
-2.13676e-06
-1.8148e-06
-1.46379e-06
-1.31258e-06
-1.08171e-06
-9.77662e-07
-8.10743e-07
-7.34695e-07
-6.11098e-07
-5.54488e-07
-4.61862e-07
-4.19302e-07
-3.49386e-07
-3.17202e-07
-2.64206e-07
-2.39786e-07
-1.99529e-07
-1.80972e-07
-1.50368e-07
-1.36263e-07
-1.13003e-07
-1.02288e-07
-8.46284e-08
-7.64986e-08
-6.31128e-08
-5.69561e-08
-4.68316e-08
-4.21803e-08
-3.45428e-08
-3.1039e-08
-2.52962e-08
-2.26661e-08
-1.8365e-08
-1.63997e-08
-1.31956e-08
-1.17414e-08
-9.39584e-09
-8.4383e-09
-7.18698e-09
-8.04152e-09
-4.91241e-09
-3.2459e-09
-2.65561e-09
-1.97404e-09
-1.68255e-09
-1.24399e-09
-1.05358e-09
-7.64222e-10
-6.40089e-10
-4.54979e-10
-3.76714e-10
-2.62582e-10
-2.14995e-10
-1.47105e-10
-1.19144e-10
-8.00376e-11
-6.40935e-11
-4.21644e-11
-3.32871e-11
-2.12171e-11
-1.62512e-11
-9.3034e-12
-6.51167e-12
-2.78132e-12
-1.51726e-12
-4.01632e-13
-9.69102e-14
-2.2801e-14
9.16916e-13
7.55705e-05
-4.88402e-06
-8.32576e-06
-8.84795e-06
-7.86865e-06
-7.3278e-06
-5.73618e-06
-5.20689e-06
-4.29224e-06
-5.12433e-06
-3.00338e-06
-2.08816e-06
-1.81582e-06
-1.44843e-06
-1.31824e-06
-1.07208e-06
-9.82188e-07
-8.03849e-07
-7.38128e-07
-6.06019e-07
-5.57091e-07
-4.58067e-07
-4.21282e-07
-3.46527e-07
-3.18708e-07
-2.62041e-07
-2.40933e-07
-1.97885e-07
-1.81845e-07
-1.49118e-07
-1.36926e-07
-1.12053e-07
-1.02791e-07
-8.39064e-08
-7.68791e-08
-6.25651e-08
-5.72434e-08
-4.64169e-08
-4.23964e-08
-3.42296e-08
-3.1201e-08
-2.50603e-08
-2.2787e-08
-1.8188e-08
-1.64893e-08
-1.3063e-08
-1.18055e-08
-9.28991e-09
-8.45613e-09
-7.03006e-09
-8.34366e-09
-4.80333e-09
-3.16105e-09
-2.66047e-09
-1.94414e-09
-1.69297e-09
-1.22511e-09
-1.06062e-09
-7.51653e-10
-6.44404e-10
-4.46843e-10
-3.79233e-10
-2.5751e-10
-2.16409e-10
-1.44059e-10
-1.19914e-10
-7.82688e-11
-6.45038e-11
-4.11671e-11
-3.35048e-11
-2.06746e-11
-1.63882e-11
-8.98596e-12
-6.57479e-12
-2.59175e-12
-1.50124e-12
-3.38385e-13
-7.78937e-14
-1.81398e-14
9.18465e-13
7.58325e-05
-4.76161e-06
-8.64168e-06
-9.02324e-06
-7.83632e-06
-7.43326e-06
-5.62869e-06
-5.23429e-06
-4.12155e-06
-5.42552e-06
-2.88553e-06
-2.01383e-06
-1.82062e-06
-1.42357e-06
-1.32852e-06
-1.05618e-06
-9.90241e-07
-7.92442e-07
-7.44207e-07
-5.97606e-07
-5.61692e-07
-4.51778e-07
-4.24775e-07
-3.41787e-07
-3.21365e-07
-2.5845e-07
-2.42955e-07
-1.95158e-07
-1.83383e-07
-1.47045e-07
-1.38094e-07
-1.10477e-07
-1.03677e-07
-8.27092e-08
-7.75503e-08
-6.16569e-08
-5.77502e-08
-4.57294e-08
-4.27779e-08
-3.37104e-08
-3.14871e-08
-2.46695e-08
-2.30006e-08
-1.78948e-08
-1.66477e-08
-1.28434e-08
-1.19198e-08
-9.11659e-09
-8.49755e-09
-6.76345e-09
-8.83988e-09
-4.61827e-09
-3.03048e-09
-2.67394e-09
-1.89561e-09
-1.71204e-09
-1.19408e-09
-1.07342e-09
-7.31005e-10
-6.52323e-10
-4.33503e-10
-3.83913e-10
-2.49209e-10
-2.19071e-10
-1.39082e-10
-1.21382e-10
-7.53838e-11
-6.52962e-11
-3.95422e-11
-3.39289e-11
-1.979e-11
-1.66496e-11
-8.46874e-12
-6.70069e-12
-2.28644e-12
-1.48809e-12
-2.39028e-13
-5.08405e-14
-1.16792e-14
9.20598e-13
7.61519e-05
-4.54191e-06
-9.0975e-06
-9.26121e-06
-7.77259e-06
-7.59473e-06
-5.46476e-06
-5.29039e-06
-3.85415e-06
-5.88044e-06
-2.70093e-06
-1.91233e-06
-1.83355e-06
-1.38662e-06
-1.34588e-06
-1.03201e-06
-1.00356e-06
-7.75046e-07
-7.54217e-07
-5.84761e-07
-5.6925e-07
-4.42168e-07
-4.30504e-07
-3.34541e-07
-3.25719e-07
-2.52961e-07
-2.46267e-07
-1.90989e-07
-1.85902e-07
-1.43875e-07
-1.40009e-07
-1.08067e-07
-1.0513e-07
-8.08789e-08
-7.86503e-08
-6.02688e-08
-5.85811e-08
-4.46788e-08
-4.34038e-08
-3.29172e-08
-3.19568e-08
-2.40725e-08
-2.33515e-08
-1.74471e-08
-1.69084e-08
-1.25085e-08
-1.21093e-08
-8.85583e-09
-8.5835e-09
-6.34438e-09
-9.58799e-09
-4.32782e-09
-2.85064e-09
-2.70425e-09
-1.82326e-09
-1.74446e-09
-1.14716e-09
-1.09509e-09
-6.99802e-10
-6.65844e-10
-4.1339e-10
-3.91994e-10
-2.36724e-10
-2.23726e-10
-1.31612e-10
-1.23982e-10
-7.10617e-11
-6.67147e-11
-3.71114e-11
-3.46937e-11
-1.84652e-11
-1.71126e-11
-7.69492e-12
-6.93238e-12
-1.83645e-12
-1.49294e-12
-9.72278e-14
-1.78222e-14
-4.03293e-15
9.23108e-13
0.00214026
-0.00184905
-0.000149654
-6.586e-05
-1.36607e-05
-8.62106e-06
-4.62602e-06
-4.23285e-06
-3.81054e-06
-6.45641e-06
-3.35581e-06
-2.83012e-06
-2.76884e-06
-2.38191e-06
-2.34244e-06
-1.98765e-06
-1.95273e-06
-1.63837e-06
-1.6079e-06
-1.33777e-06
-1.31184e-06
-1.08474e-06
-1.06308e-06
-8.75096e-07
-8.57249e-07
-7.03334e-07
-6.8877e-07
-5.6373e-07
-5.51925e-07
-4.50905e-07
-4.41384e-07
-3.60092e-07
-3.5244e-07
-2.8721e-07
-2.81075e-07
-2.28842e-07
-2.23933e-07
-1.82174e-07
-1.78252e-07
-1.44911e-07
-1.41781e-07
-1.15196e-07
-1.12701e-07
-9.15311e-08
-8.95466e-08
-7.27174e-08
-7.11512e-08
-5.78406e-08
-5.67968e-08
-4.75886e-08
-7.70907e-08
-3.79273e-08
-2.96196e-08
-2.87423e-08
-2.35368e-08
-2.30443e-08
-1.90256e-08
-1.86522e-08
-1.55364e-08
-1.52481e-08
-1.28468e-08
-1.26253e-08
-1.07876e-08
-1.06177e-08
-9.21087e-09
-9.07283e-09
-7.84945e-09
-7.71533e-09
-6.37512e-09
-6.23108e-09
-4.79986e-09
-4.66279e-09
-3.48148e-09
-3.32351e-09
-1.46262e-09
-1.30453e-09
-7.95317e-11
-1.41766e-11
-3.19426e-12
-2.30774e-10
0.00209553
-0.00163187
-0.000281106
-9.30855e-05
-2.41114e-05
-1.08371e-05
-5.46763e-06
-4.43339e-06
-4.07629e-06
-5.94769e-06
-3.54563e-06
-2.90691e-06
-2.75468e-06
-2.41162e-06
-2.31972e-06
-2.01321e-06
-1.93243e-06
-1.66116e-06
-1.59067e-06
-1.3575e-06
-1.2975e-06
-1.10141e-06
-1.0513e-06
-8.88949e-07
-8.47657e-07
-7.14707e-07
-6.81007e-07
-5.72986e-07
-5.45672e-07
-4.58394e-07
-4.36362e-07
-3.66124e-07
-3.48416e-07
-2.92053e-07
-2.77856e-07
-2.32722e-07
-2.21362e-07
-1.85278e-07
-1.762e-07
-1.4739e-07
-1.40147e-07
-1.17173e-07
-1.11401e-07
-9.31069e-08
-8.85148e-08
-7.39771e-08
-7.03589e-08
-5.89489e-08
-5.66347e-08
-5.04741e-08
-7.09552e-08
-4.02274e-08
-3.07361e-08
-2.85746e-08
-2.39566e-08
-2.28086e-08
-1.93286e-08
-1.84641e-08
-1.57706e-08
-1.51033e-08
-1.30277e-08
-1.25149e-08
-1.09259e-08
-1.05326e-08
-9.3134e-09
-8.99344e-09
-7.93183e-09
-7.62128e-09
-6.465e-09
-6.13221e-09
-4.90244e-09
-4.58476e-09
-3.54955e-09
-3.18468e-09
-1.60234e-09
-1.23884e-09
-1.92207e-10
-4.03539e-11
-9.24744e-12
-2.32803e-10
0.00205892
-0.00147685
-0.000366047
-0.000115548
-3.23334e-05
-1.27366e-05
-6.13567e-06
-4.60676e-06
-4.25286e-06
-5.60989e-06
-3.66488e-06
-2.96423e-06
-2.74814e-06
-2.43126e-06
-2.30556e-06
-2.02972e-06
-1.91974e-06
-1.6759e-06
-1.57993e-06
-1.37029e-06
-1.28859e-06
-1.11224e-06
-1.044e-06
-8.97953e-07
-8.41725e-07
-7.22104e-07
-6.76213e-07
-5.7901e-07
-5.41813e-07
-4.63269e-07
-4.33265e-07
-3.70052e-07
-3.45936e-07
-2.95208e-07
-2.75873e-07
-2.3525e-07
-2.19778e-07
-1.873e-07
-1.74937e-07
-1.49006e-07
-1.3914e-07
-1.18462e-07
-1.106e-07
-9.4134e-08
-8.78803e-08
-7.47995e-08
-6.98778e-08
-5.96929e-08
-5.6626e-08
-5.22936e-08
-6.68678e-08
-4.16778e-08
-3.15591e-08
-2.8505e-08
-2.42374e-08
-2.26661e-08
-1.95269e-08
-1.83489e-08
-1.59237e-08
-1.50147e-08
-1.31459e-08
-1.24474e-08
-1.10164e-08
-1.04804e-08
-9.37989e-09
-8.94366e-09
-7.98412e-09
-7.56102e-09
-6.52189e-09
-6.06919e-09
-4.9685e-09
-4.53541e-09
-3.59077e-09
-3.09452e-09
-1.6933e-09
-1.20048e-09
-2.69086e-10
-6.16981e-11
-1.43571e-11
-2.34526e-10
0.00203322
-0.00137717
-0.000416574
-0.000131317
-3.80096e-05
-1.41158e-05
-6.60058e-06
-4.73301e-06
-4.36092e-06
-5.40411e-06
-3.73432e-06
-3.00212e-06
-2.7456e-06
-2.44323e-06
-2.29738e-06
-2.03958e-06
-1.91238e-06
-1.68471e-06
-1.57373e-06
-1.37794e-06
-1.28346e-06
-1.11873e-06
-1.03981e-06
-9.03354e-07
-8.38319e-07
-7.26544e-07
-6.73464e-07
-5.82628e-07
-5.39602e-07
-4.66197e-07
-4.31492e-07
-3.72412e-07
-3.44516e-07
-2.97104e-07
-2.74738e-07
-2.36769e-07
-2.18872e-07
-1.88515e-07
-1.74214e-07
-1.49976e-07
-1.38565e-07
-1.19237e-07
-1.10142e-07
-9.47515e-08
-8.75178e-08
-7.52946e-08
-6.96064e-08
-6.01515e-08
-5.66672e-08
-5.33562e-08
-6.43704e-08
-4.25249e-08
-3.20991e-08
-2.84836e-08
-2.441e-08
-2.25859e-08
-1.96465e-08
-1.82835e-08
-1.60159e-08
-1.49644e-08
-1.32172e-08
-1.24091e-08
-1.10709e-08
-1.04507e-08
-9.4197e-09
-8.91472e-09
-8.01486e-09
-7.52531e-09
-6.55525e-09
-6.03201e-09
-5.00779e-09
-4.50647e-09
-3.61402e-09
-3.04054e-09
-1.74789e-09
-1.17964e-09
-3.16995e-10
-7.66356e-11
-1.80398e-11
-2.35777e-10
0.00202002
-0.00132843
-0.000440084
-0.000139407
-4.09081e-05
-1.48392e-05
-6.83929e-06
-4.79929e-06
-4.41228e-06
-5.30678e-06
-3.76619e-06
-3.02094e-06
-2.74485e-06
-2.4489e-06
-2.29365e-06
-2.04419e-06
-1.90901e-06
-1.68883e-06
-1.5709e-06
-1.38152e-06
-1.28113e-06
-1.12176e-06
-1.0379e-06
-9.05885e-07
-8.36771e-07
-7.28625e-07
-6.72216e-07
-5.84324e-07
-5.38598e-07
-4.67571e-07
-4.30687e-07
-3.73519e-07
-3.43873e-07
-2.97993e-07
-2.74224e-07
-2.37482e-07
-2.18461e-07
-1.89085e-07
-1.73887e-07
-1.50432e-07
-1.38304e-07
-1.196e-07
-1.09935e-07
-9.50413e-08
-8.73536e-08
-7.55272e-08
-6.94846e-08
-6.03703e-08
-5.67007e-08
-5.3845e-08
-6.31866e-08
-4.29145e-08
-3.23662e-08
-2.848e-08
-2.44922e-08
-2.25501e-08
-1.97028e-08
-1.82539e-08
-1.60593e-08
-1.49417e-08
-1.32507e-08
-1.23919e-08
-1.10965e-08
-1.04373e-08
-9.43834e-09
-8.90144e-09
-8.02907e-09
-7.50872e-09
-6.57065e-09
-6.01479e-09
-5.0261e-09
-4.49311e-09
-3.62445e-09
-3.01528e-09
-1.77348e-09
-1.17055e-09
-3.40001e-10
-8.42966e-11
-1.99646e-11
-2.36434e-10
0.00202002
-0.00132843
-0.000440084
-0.000139407
-4.09081e-05
-1.48392e-05
-6.83926e-06
-4.79928e-06
-4.41228e-06
-5.30678e-06
-3.76619e-06
-3.02094e-06
-2.74485e-06
-2.4489e-06
-2.29365e-06
-2.04419e-06
-1.90901e-06
-1.68883e-06
-1.5709e-06
-1.38152e-06
-1.28113e-06
-1.12177e-06
-1.0379e-06
-9.05885e-07
-8.36771e-07
-7.28625e-07
-6.72216e-07
-5.84324e-07
-5.38599e-07
-4.67571e-07
-4.30687e-07
-3.73519e-07
-3.43873e-07
-2.97993e-07
-2.74224e-07
-2.37482e-07
-2.18461e-07
-1.89085e-07
-1.73887e-07
-1.50432e-07
-1.38304e-07
-1.196e-07
-1.09935e-07
-9.50414e-08
-8.73537e-08
-7.55272e-08
-6.94846e-08
-6.03703e-08
-5.67008e-08
-5.3845e-08
-6.31866e-08
-4.29145e-08
-3.23662e-08
-2.848e-08
-2.44922e-08
-2.25501e-08
-1.97028e-08
-1.82539e-08
-1.60593e-08
-1.49417e-08
-1.32507e-08
-1.23919e-08
-1.10965e-08
-1.04373e-08
-9.43834e-09
-8.90144e-09
-8.02907e-09
-7.50872e-09
-6.57065e-09
-6.01479e-09
-5.0261e-09
-4.49311e-09
-3.62445e-09
-3.01528e-09
-1.77347e-09
-1.17055e-09
-3.4e-10
-8.42962e-11
-1.99645e-11
-2.36433e-10
0.00203322
-0.00137718
-0.000416574
-0.000131317
-3.80094e-05
-1.41157e-05
-6.60052e-06
-4.73299e-06
-4.36092e-06
-5.40411e-06
-3.73432e-06
-3.00212e-06
-2.7456e-06
-2.44323e-06
-2.29738e-06
-2.03958e-06
-1.91238e-06
-1.68471e-06
-1.57373e-06
-1.37794e-06
-1.28346e-06
-1.11873e-06
-1.03981e-06
-9.03354e-07
-8.38319e-07
-7.26544e-07
-6.73464e-07
-5.82628e-07
-5.39602e-07
-4.66197e-07
-4.31492e-07
-3.72412e-07
-3.44517e-07
-2.97104e-07
-2.74738e-07
-2.36769e-07
-2.18872e-07
-1.88515e-07
-1.74214e-07
-1.49976e-07
-1.38565e-07
-1.19237e-07
-1.10142e-07
-9.47516e-08
-8.75178e-08
-7.52946e-08
-6.96064e-08
-6.01515e-08
-5.66673e-08
-5.33562e-08
-6.43704e-08
-4.25249e-08
-3.20991e-08
-2.84836e-08
-2.441e-08
-2.2586e-08
-1.96465e-08
-1.82835e-08
-1.60159e-08
-1.49644e-08
-1.32172e-08
-1.24091e-08
-1.10709e-08
-1.04507e-08
-9.41971e-09
-8.91472e-09
-8.01486e-09
-7.52531e-09
-6.55526e-09
-6.03201e-09
-5.0078e-09
-4.50647e-09
-3.61402e-09
-3.04054e-09
-1.74789e-09
-1.17963e-09
-3.16993e-10
-7.66345e-11
-1.80395e-11
-2.35776e-10
0.00205892
-0.00147685
-0.000366047
-0.000115548
-3.23331e-05
-1.27365e-05
-6.13559e-06
-4.60673e-06
-4.25285e-06
-5.60989e-06
-3.66488e-06
-2.96423e-06
-2.74814e-06
-2.43126e-06
-2.30556e-06
-2.02972e-06
-1.91974e-06
-1.6759e-06
-1.57994e-06
-1.37029e-06
-1.2886e-06
-1.11224e-06
-1.04401e-06
-8.97954e-07
-8.41725e-07
-7.22104e-07
-6.76214e-07
-5.79011e-07
-5.41813e-07
-4.63269e-07
-4.33265e-07
-3.70053e-07
-3.45936e-07
-2.95208e-07
-2.75873e-07
-2.3525e-07
-2.19778e-07
-1.873e-07
-1.74937e-07
-1.49006e-07
-1.3914e-07
-1.18462e-07
-1.106e-07
-9.41341e-08
-8.78803e-08
-7.47995e-08
-6.98778e-08
-5.96929e-08
-5.6626e-08
-5.22936e-08
-6.68678e-08
-4.16778e-08
-3.15591e-08
-2.8505e-08
-2.42374e-08
-2.26661e-08
-1.95269e-08
-1.83489e-08
-1.59237e-08
-1.50148e-08
-1.31459e-08
-1.24474e-08
-1.10164e-08
-1.04804e-08
-9.3799e-09
-8.94367e-09
-7.98412e-09
-7.56102e-09
-6.52189e-09
-6.06919e-09
-4.9685e-09
-4.53541e-09
-3.59077e-09
-3.09452e-09
-1.69329e-09
-1.20047e-09
-2.69083e-10
-6.16966e-11
-1.43568e-11
-2.34525e-10
0.00209553
-0.00163187
-0.000281106
-9.30853e-05
-2.41111e-05
-1.0837e-05
-5.46756e-06
-4.43336e-06
-4.07629e-06
-5.94769e-06
-3.54563e-06
-2.90691e-06
-2.75469e-06
-2.41162e-06
-2.31972e-06
-2.01321e-06
-1.93243e-06
-1.66116e-06
-1.59067e-06
-1.3575e-06
-1.2975e-06
-1.10142e-06
-1.0513e-06
-8.8895e-07
-8.47657e-07
-7.14707e-07
-6.81008e-07
-5.72987e-07
-5.45672e-07
-4.58394e-07
-4.36362e-07
-3.66125e-07
-3.48416e-07
-2.92054e-07
-2.77856e-07
-2.32723e-07
-2.21362e-07
-1.85278e-07
-1.762e-07
-1.4739e-07
-1.40147e-07
-1.17173e-07
-1.11401e-07
-9.3107e-08
-8.85149e-08
-7.39771e-08
-7.03589e-08
-5.89489e-08
-5.66347e-08
-5.04742e-08
-7.09552e-08
-4.02274e-08
-3.07361e-08
-2.85746e-08
-2.39566e-08
-2.28087e-08
-1.93287e-08
-1.84641e-08
-1.57706e-08
-1.51033e-08
-1.30277e-08
-1.25149e-08
-1.09259e-08
-1.05326e-08
-9.3134e-09
-8.99345e-09
-7.93184e-09
-7.62129e-09
-6.465e-09
-6.13222e-09
-4.90244e-09
-4.58476e-09
-3.54955e-09
-3.18468e-09
-1.60234e-09
-1.23884e-09
-1.92205e-10
-4.03525e-11
-9.24715e-12
-2.32802e-10
0.00214027
-0.00184905
-0.000149654
-6.586e-05
-1.36606e-05
-8.621e-06
-4.626e-06
-4.23284e-06
-3.81053e-06
-6.45641e-06
-3.35581e-06
-2.83012e-06
-2.76884e-06
-2.38191e-06
-2.34244e-06
-1.98765e-06
-1.95273e-06
-1.63838e-06
-1.6079e-06
-1.33777e-06
-1.31184e-06
-1.08474e-06
-1.06308e-06
-8.75096e-07
-8.57249e-07
-7.03334e-07
-6.8877e-07
-5.6373e-07
-5.51926e-07
-4.50905e-07
-4.41384e-07
-3.60093e-07
-3.5244e-07
-2.8721e-07
-2.81075e-07
-2.28842e-07
-2.23933e-07
-1.82174e-07
-1.78252e-07
-1.44911e-07
-1.41781e-07
-1.15196e-07
-1.12701e-07
-9.15311e-08
-8.95467e-08
-7.27174e-08
-7.11513e-08
-5.78406e-08
-5.67968e-08
-4.75887e-08
-7.70907e-08
-3.79273e-08
-2.96196e-08
-2.87423e-08
-2.35369e-08
-2.30443e-08
-1.90256e-08
-1.86522e-08
-1.55364e-08
-1.52481e-08
-1.28468e-08
-1.26253e-08
-1.07876e-08
-1.06177e-08
-9.21087e-09
-9.07283e-09
-7.84945e-09
-7.71533e-09
-6.37512e-09
-6.23108e-09
-4.79986e-09
-4.66279e-09
-3.48148e-09
-3.32351e-09
-1.46262e-09
-1.30453e-09
-7.95309e-11
-1.41761e-11
-3.19417e-12
-2.30774e-10
0.00214017
-0.00184973
-0.000149699
-6.58725e-05
-1.36193e-05
-8.57583e-06
-4.57605e-06
-4.18238e-06
-3.76033e-06
-6.36941e-06
-3.30992e-06
-2.79066e-06
-2.73014e-06
-2.34806e-06
-2.30909e-06
-1.95888e-06
-1.92442e-06
-1.61425e-06
-1.58419e-06
-1.31776e-06
-1.29218e-06
-1.06826e-06
-1.04691e-06
-8.61615e-07
-8.44026e-07
-6.9236e-07
-6.7801e-07
-5.54832e-07
-5.43205e-07
-4.43716e-07
-4.3434e-07
-3.54301e-07
-3.46767e-07
-2.82556e-07
-2.76517e-07
-2.25111e-07
-2.20279e-07
-1.79189e-07
-1.7533e-07
-1.42528e-07
-1.39449e-07
-1.13297e-07
-1.10843e-07
-9.002e-08
-8.80682e-08
-7.15165e-08
-6.99762e-08
-5.68859e-08
-5.58594e-08
-4.68042e-08
-7.58212e-08
-3.73034e-08
-2.91337e-08
-2.8271e-08
-2.31523e-08
-2.2668e-08
-1.87164e-08
-1.83492e-08
-1.52857e-08
-1.50022e-08
-1.26417e-08
-1.2424e-08
-1.06181e-08
-1.04513e-08
-9.06998e-09
-8.93451e-09
-7.73474e-09
-7.6031e-09
-6.28682e-09
-6.14518e-09
-4.73606e-09
-4.60113e-09
-3.43856e-09
-3.28276e-09
-1.44491e-09
-1.28875e-09
-7.85687e-11
-1.40049e-11
-3.15556e-12
-2.27884e-10
0.00209542
-0.00163246
-0.0002812
-9.31051e-05
-2.40767e-05
-1.07931e-05
-5.41829e-06
-4.38268e-06
-4.02347e-06
-5.86779e-06
-3.49724e-06
-2.86649e-06
-2.71617e-06
-2.37739e-06
-2.28666e-06
-1.98412e-06
-1.9044e-06
-1.63674e-06
-1.5672e-06
-1.33721e-06
-1.27804e-06
-1.0847e-06
-1.0353e-06
-8.75271e-07
-8.34575e-07
-7.03567e-07
-6.70364e-07
-5.63952e-07
-5.37047e-07
-4.51092e-07
-4.29396e-07
-3.6024e-07
-3.42806e-07
-2.87324e-07
-2.7335e-07
-2.2893e-07
-2.1775e-07
-1.82243e-07
-1.73312e-07
-1.44967e-07
-1.37841e-07
-1.15242e-07
-1.09564e-07
-9.15701e-08
-8.70535e-08
-7.27554e-08
-6.9197e-08
-5.79758e-08
-5.57e-08
-4.96422e-08
-6.97868e-08
-3.95658e-08
-3.02317e-08
-2.81062e-08
-2.35651e-08
-2.24362e-08
-1.90143e-08
-1.81642e-08
-1.5516e-08
-1.48599e-08
-1.28195e-08
-1.23155e-08
-1.07541e-08
-1.03678e-08
-9.17068e-09
-8.85669e-09
-7.8155e-09
-7.51068e-09
-6.37502e-09
-6.04777e-09
-4.83705e-09
-4.52432e-09
-3.50541e-09
-3.14555e-09
-1.58287e-09
-1.22385e-09
-1.89879e-10
-3.9865e-11
-9.13539e-12
-2.29888e-10
0.0020588
-0.00147738
-0.000366172
-0.000115574
-3.23037e-05
-1.26937e-05
-6.08679e-06
-4.55584e-06
-4.19843e-06
-5.53474e-06
-3.61494e-06
-2.92308e-06
-2.70971e-06
-2.39679e-06
-2.27269e-06
-2.00042e-06
-1.89188e-06
-1.65129e-06
-1.55661e-06
-1.34983e-06
-1.26927e-06
-1.09538e-06
-1.02811e-06
-8.84147e-07
-8.28731e-07
-7.10857e-07
-6.65643e-07
-5.69887e-07
-5.33248e-07
-4.55894e-07
-4.26348e-07
-3.64108e-07
-3.40365e-07
-2.9043e-07
-2.71398e-07
-2.31418e-07
-2.16192e-07
-1.84233e-07
-1.72069e-07
-1.46557e-07
-1.36851e-07
-1.1651e-07
-1.08776e-07
-9.25804e-08
-8.64294e-08
-7.35643e-08
-6.87239e-08
-5.87075e-08
-5.56915e-08
-5.14316e-08
-6.57667e-08
-4.09923e-08
-3.10412e-08
-2.80377e-08
-2.38412e-08
-2.22961e-08
-1.92093e-08
-1.8051e-08
-1.56665e-08
-1.47729e-08
-1.29358e-08
-1.22492e-08
-1.0843e-08
-1.03166e-08
-9.236e-09
-8.80789e-09
-7.86675e-09
-7.45145e-09
-6.43083e-09
-5.98566e-09
-4.90208e-09
-4.47574e-09
-3.54587e-09
-3.05644e-09
-1.67268e-09
-1.18593e-09
-2.65825e-10
-6.09506e-11
-1.41832e-11
-2.31591e-10
0.00203309
-0.00137767
-0.000416717
-0.000131348
-3.79832e-05
-1.40737e-05
-6.55202e-06
-4.68194e-06
-4.30557e-06
-5.33188e-06
-3.68348e-06
-2.9605e-06
-2.7072e-06
-2.40861e-06
-2.26462e-06
-2.01015e-06
-1.88462e-06
-1.65998e-06
-1.5505e-06
-1.35738e-06
-1.26421e-06
-1.10178e-06
-1.02397e-06
-8.89471e-07
-8.25376e-07
-7.15233e-07
-6.62935e-07
-5.73451e-07
-5.31071e-07
-4.58778e-07
-4.24602e-07
-3.66432e-07
-3.38968e-07
-2.92296e-07
-2.70282e-07
-2.32913e-07
-2.153e-07
-1.85429e-07
-1.71358e-07
-1.47512e-07
-1.36285e-07
-1.17272e-07
-1.08326e-07
-9.31878e-08
-8.6073e-08
-7.40513e-08
-6.8457e-08
-5.91585e-08
-5.57322e-08
-5.24767e-08
-6.33104e-08
-4.18254e-08
-3.15722e-08
-2.80167e-08
-2.40109e-08
-2.22173e-08
-1.9327e-08
-1.79867e-08
-1.57572e-08
-1.47234e-08
-1.30058e-08
-1.22116e-08
-1.08966e-08
-1.02874e-08
-9.27511e-09
-8.77952e-09
-7.89687e-09
-7.41636e-09
-6.46355e-09
-5.94902e-09
-4.94076e-09
-4.44725e-09
-3.56867e-09
-3.00307e-09
-1.72658e-09
-1.16534e-09
-3.13153e-10
-7.57071e-11
-1.78212e-11
-2.32826e-10
0.00201988
-0.00132891
-0.000440235
-0.00013944
-4.08834e-05
-1.47975e-05
-6.79088e-06
-4.74815e-06
-4.35651e-06
-5.23593e-06
-3.71495e-06
-2.97908e-06
-2.70646e-06
-2.41421e-06
-2.26094e-06
-2.0147e-06
-1.88129e-06
-1.66404e-06
-1.5477e-06
-1.36091e-06
-1.2619e-06
-1.10477e-06
-1.02209e-06
-8.91966e-07
-8.23851e-07
-7.17284e-07
-6.61705e-07
-5.75122e-07
-5.30083e-07
-4.60131e-07
-4.2381e-07
-3.67522e-07
-3.38334e-07
-2.93171e-07
-2.69775e-07
-2.33615e-07
-2.14896e-07
-1.8599e-07
-1.71036e-07
-1.4796e-07
-1.36029e-07
-1.1763e-07
-1.08122e-07
-9.34729e-08
-8.59115e-08
-7.428e-08
-6.83373e-08
-5.93738e-08
-5.57652e-08
-5.29574e-08
-6.21461e-08
-4.22087e-08
-3.18349e-08
-2.80132e-08
-2.40918e-08
-2.2182e-08
-1.93823e-08
-1.79577e-08
-1.57998e-08
-1.47011e-08
-1.30388e-08
-1.21947e-08
-1.09218e-08
-1.02743e-08
-9.29342e-09
-8.76651e-09
-7.9108e-09
-7.40005e-09
-6.47865e-09
-5.93205e-09
-4.95879e-09
-4.4341e-09
-3.5789e-09
-2.9781e-09
-1.75184e-09
-1.15636e-09
-3.3588e-10
-8.32752e-11
-1.97227e-11
-2.33475e-10
0.00201988
-0.00132891
-0.000440235
-0.00013944
-4.08833e-05
-1.47974e-05
-6.79086e-06
-4.74814e-06
-4.35651e-06
-5.23593e-06
-3.71495e-06
-2.97908e-06
-2.70646e-06
-2.41421e-06
-2.26094e-06
-2.0147e-06
-1.88129e-06
-1.66405e-06
-1.5477e-06
-1.36091e-06
-1.2619e-06
-1.10477e-06
-1.02209e-06
-8.91967e-07
-8.23851e-07
-7.17284e-07
-6.61705e-07
-5.75122e-07
-5.30083e-07
-4.60131e-07
-4.2381e-07
-3.67522e-07
-3.38334e-07
-2.93171e-07
-2.69775e-07
-2.33615e-07
-2.14896e-07
-1.8599e-07
-1.71036e-07
-1.4796e-07
-1.36029e-07
-1.1763e-07
-1.08122e-07
-9.34729e-08
-8.59115e-08
-7.42801e-08
-6.83373e-08
-5.93738e-08
-5.57652e-08
-5.29574e-08
-6.21461e-08
-4.22087e-08
-3.18349e-08
-2.80132e-08
-2.40918e-08
-2.2182e-08
-1.93823e-08
-1.79577e-08
-1.57998e-08
-1.47011e-08
-1.30388e-08
-1.21947e-08
-1.09218e-08
-1.02743e-08
-9.29342e-09
-8.76651e-09
-7.9108e-09
-7.40005e-09
-6.47865e-09
-5.93205e-09
-4.95879e-09
-4.4341e-09
-3.5789e-09
-2.9781e-09
-1.75184e-09
-1.15636e-09
-3.35879e-10
-8.32748e-11
-1.97226e-11
-2.33475e-10
0.00203309
-0.00137768
-0.000416717
-0.000131348
-3.7983e-05
-1.40735e-05
-6.55196e-06
-4.68192e-06
-4.30556e-06
-5.33187e-06
-3.68348e-06
-2.9605e-06
-2.7072e-06
-2.40861e-06
-2.26462e-06
-2.01015e-06
-1.88462e-06
-1.65998e-06
-1.5505e-06
-1.35738e-06
-1.26421e-06
-1.10178e-06
-1.02397e-06
-8.89472e-07
-8.25376e-07
-7.15233e-07
-6.62935e-07
-5.73451e-07
-5.31071e-07
-4.58778e-07
-4.24602e-07
-3.66432e-07
-3.38968e-07
-2.92296e-07
-2.70282e-07
-2.32913e-07
-2.153e-07
-1.85429e-07
-1.71358e-07
-1.47512e-07
-1.36285e-07
-1.17272e-07
-1.08326e-07
-9.31878e-08
-8.6073e-08
-7.40513e-08
-6.8457e-08
-5.91586e-08
-5.57322e-08
-5.24767e-08
-6.33104e-08
-4.18254e-08
-3.15722e-08
-2.80167e-08
-2.40109e-08
-2.22173e-08
-1.9327e-08
-1.79867e-08
-1.57572e-08
-1.47234e-08
-1.30058e-08
-1.22116e-08
-1.08966e-08
-1.02874e-08
-9.27512e-09
-8.77953e-09
-7.89687e-09
-7.41636e-09
-6.46355e-09
-5.94902e-09
-4.94076e-09
-4.44725e-09
-3.56867e-09
-3.00307e-09
-1.72658e-09
-1.16533e-09
-3.13152e-10
-7.57059e-11
-1.7821e-11
-2.32826e-10
0.0020588
-0.00147739
-0.000366172
-0.000115574
-3.23034e-05
-1.26935e-05
-6.08672e-06
-4.55581e-06
-4.19842e-06
-5.53474e-06
-3.61494e-06
-2.92308e-06
-2.70971e-06
-2.39679e-06
-2.27269e-06
-2.00042e-06
-1.89188e-06
-1.65129e-06
-1.55661e-06
-1.34983e-06
-1.26927e-06
-1.09538e-06
-1.02811e-06
-8.84148e-07
-8.28731e-07
-7.10858e-07
-6.65643e-07
-5.69887e-07
-5.33248e-07
-4.55894e-07
-4.26348e-07
-3.64108e-07
-3.40365e-07
-2.9043e-07
-2.71398e-07
-2.31418e-07
-2.16192e-07
-1.84233e-07
-1.72069e-07
-1.46557e-07
-1.36851e-07
-1.1651e-07
-1.08776e-07
-9.25804e-08
-8.64295e-08
-7.35643e-08
-6.87239e-08
-5.87076e-08
-5.56916e-08
-5.14317e-08
-6.57667e-08
-4.09923e-08
-3.10412e-08
-2.80377e-08
-2.38412e-08
-2.22961e-08
-1.92093e-08
-1.8051e-08
-1.56665e-08
-1.47729e-08
-1.29358e-08
-1.22492e-08
-1.0843e-08
-1.03166e-08
-9.23601e-09
-8.8079e-09
-7.86675e-09
-7.45146e-09
-6.43083e-09
-5.98566e-09
-4.90208e-09
-4.47574e-09
-3.54587e-09
-3.05644e-09
-1.67267e-09
-1.18593e-09
-2.65823e-10
-6.0949e-11
-1.41828e-11
-2.3159e-10
0.00209542
-0.00163246
-0.0002812
-9.31049e-05
-2.40765e-05
-1.0793e-05
-5.41822e-06
-4.38265e-06
-4.02347e-06
-5.86779e-06
-3.49724e-06
-2.86649e-06
-2.71617e-06
-2.3774e-06
-2.28666e-06
-1.98412e-06
-1.9044e-06
-1.63674e-06
-1.5672e-06
-1.33721e-06
-1.27804e-06
-1.0847e-06
-1.0353e-06
-8.75271e-07
-8.34575e-07
-7.03568e-07
-6.70365e-07