/*--------------------------------*- C++ -*----------------------------------*\
| =========                 |                                                 |
| \\      /  F ield         | OpenFOAM: The Open Source CFD Toolbox           |
|  \\    /   O peration     | Version:  5.x                                   |
|   \\  /    A nd           | Web:      www.OpenFOAM.org                      |
|    \\/     M anipulation  |                                                 |
\*---------------------------------------------------------------------------*/
FoamFile
{
    version     2.0;
    format      ascii;
    class       volScalarField;
    location    "2.6";
    object      T;
}
// * * * * * * * * * * * * * * * * * * * * * * * * * * * * * * * * * * * * * //

dimensions      [0 0 0 1 0 0 0];

internalField   nonuniform List<scalar> 
3200
(
4.00314e-06
3.61205e-06
3.54895e-06
2.7023e-06
2.62283e-06
1.92504e-06
1.86336e-06
1.37856e-06
1.33432e-06
9.93149e-07
7.46275e-07
7.23056e-07
5.55042e-07
5.39701e-07
4.16379e-07
4.05113e-07
3.13178e-07
3.04757e-07
2.35674e-07
2.29335e-07
1.77198e-07
1.7241e-07
1.32981e-07
1.2936e-07
9.95267e-08
9.67878e-08
7.42307e-08
7.21611e-08
5.51318e-08
5.35709e-08
4.07443e-08
3.95701e-08
2.99376e-08
2.90571e-08
2.18497e-08
2.11921e-08
1.58228e-08
1.5334e-08
1.13549e-08
1.09936e-08
8.06319e-09
7.7979e-09
5.65595e-09
5.46275e-09
3.91124e-09
3.77191e-09
2.66039e-09
2.56099e-09
1.77481e-09
1.70264e-09
1.14037e-09
7.4384e-10
7.07585e-10
4.58776e-10
4.3716e-10
2.76449e-10
2.62714e-10
1.61734e-10
1.53205e-10
9.17535e-11
8.66205e-11
5.04145e-11
4.74211e-11
2.67421e-11
2.50485e-11
1.35809e-11
1.26503e-11
6.47474e-12
5.97882e-12
2.7636e-12
2.50945e-12
9.17072e-13
7.98197e-13
1.4758e-13
1.04958e-13
-3.60659e-14
-4.43362e-14
-4.57888e-14
-4.61186e-14
-4.61923e-14
3.95728e-06
3.62596e-06
3.48113e-06
2.76179e-06
2.5788e-06
1.97816e-06
1.83548e-06
1.41529e-06
1.31205e-06
1.00313e-06
7.69499e-07
7.14581e-07
5.68116e-07
5.32519e-07
4.25759e-07
3.99668e-07
3.20141e-07
3.00644e-07
2.40897e-07
2.26223e-07
1.81136e-07
1.70054e-07
1.35959e-07
1.27576e-07
1.0178e-07
9.54398e-08
7.59351e-08
7.11443e-08
5.64193e-08
5.28061e-08
4.17148e-08
3.89966e-08
3.06672e-08
2.86289e-08
2.23962e-08
2.08739e-08
1.62306e-08
1.50989e-08
1.16576e-08
1.08211e-08
8.28657e-09
7.67238e-09
5.81963e-09
5.37232e-09
4.03015e-09
3.70755e-09
2.74581e-09
2.51557e-09
1.83415e-09
1.66581e-09
1.1578e-09
7.81823e-10
6.95974e-10
4.78775e-10
4.2858e-10
2.89214e-10
2.57377e-10
1.69806e-10
1.50035e-10
9.67055e-11
8.48022e-11
5.33552e-11
4.64109e-11
2.84343e-11
2.45038e-11
1.45261e-11
1.23655e-11
6.98768e-12
5.8359e-12
3.03345e-12
2.44301e-12
1.05446e-12
7.78041e-13
2.07579e-13
1.07971e-13
-2.10653e-14
-4.08387e-14
-4.49686e-14
-4.5923e-14
-4.61368e-14
3.92465e-06
3.63238e-06
3.43626e-06
2.79981e-06
2.55147e-06
2.01294e-06
1.81869e-06
1.43933e-06
1.298e-06
1.0101e-06
7.85568e-07
7.09763e-07
5.76752e-07
5.28181e-07
4.31908e-07
3.96357e-07
3.24701e-07
2.98138e-07
2.44316e-07
2.24326e-07
1.83714e-07
1.68617e-07
1.37907e-07
1.26489e-07
1.03254e-07
9.46177e-08
7.70504e-08
7.05244e-08
5.7262e-08
5.234e-08
4.23502e-08
3.86474e-08
3.11449e-08
2.83683e-08
2.27542e-08
2.06804e-08
1.64977e-08
1.49561e-08
1.1856e-08
1.07164e-08
8.43307e-09
7.59635e-09
5.92704e-09
5.31765e-09
4.10824e-09
3.66872e-09
2.80194e-09
2.48817e-09
1.87295e-09
1.64256e-09
1.16995e-09
8.08195e-10
6.89612e-10
4.9209e-10
4.23564e-10
2.97676e-10
2.54267e-10
1.75165e-10
1.48205e-10
9.99996e-11
8.3765e-11
5.53153e-11
4.58417e-11
2.95643e-11
2.42007e-11
1.51584e-11
1.22093e-11
7.33151e-12
5.75895e-12
3.2148e-12
2.40846e-12
1.14734e-12
7.69638e-13
2.4874e-13
1.12158e-13
-1.04362e-14
-3.79672e-14
-4.42753e-14
-4.57569e-14
-4.60896e-14
3.90369e-06
3.63492e-06
3.40898e-06
2.82227e-06
2.53571e-06
2.03393e-06
1.80928e-06
1.45382e-06
1.2898e-06
1.01452e-06
7.95678e-07
7.07225e-07
5.82002e-07
5.25745e-07
4.35624e-07
3.94487e-07
3.27453e-07
2.9672e-07
2.46378e-07
2.23251e-07
1.85269e-07
1.67802e-07
1.39082e-07
1.25872e-07
1.04144e-07
9.41518e-08
7.77232e-08
7.01732e-08
5.77703e-08
5.2076e-08
4.27335e-08
3.84497e-08
3.14332e-08
2.82209e-08
2.29703e-08
2.05711e-08
1.6659e-08
1.48755e-08
1.19759e-08
1.06574e-08
8.52161e-09
7.55353e-09
5.99199e-09
5.28692e-09
4.15549e-09
3.64695e-09
2.83592e-09
2.47281e-09
1.89634e-09
1.62898e-09
1.17764e-09
8.24829e-10
6.86398e-10
5.00239e-10
4.20837e-10
3.02834e-10
2.52582e-10
1.78436e-10
1.47224e-10
1.02013e-10
8.32154e-11
5.65156e-11
4.5544e-11
3.02573e-11
2.40445e-11
1.55468e-11
1.21301e-11
7.54302e-12
5.72079e-12
3.32658e-12
2.39208e-12
1.20486e-12
7.6695e-13
2.74521e-13
1.15782e-13
-3.61134e-15
-3.59451e-14
-4.37749e-14
-4.56363e-14
-4.60553e-14
3.89343e-06
3.6357e-06
3.39608e-06
2.83268e-06
2.52853e-06
2.04381e-06
1.80508e-06
1.46064e-06
1.28603e-06
1.01667e-06
8.0056e-07
7.06147e-07
5.84486e-07
5.24655e-07
4.37373e-07
3.93646e-07
3.28748e-07
2.96082e-07
2.47349e-07
2.22767e-07
1.86e-07
1.67435e-07
1.39635e-07
1.25594e-07
1.04562e-07
9.39421e-08
7.80396e-08
7.00151e-08
5.80094e-08
5.19572e-08
4.29138e-08
3.83608e-08
3.15688e-08
2.81546e-08
2.3072e-08
2.05219e-08
1.6735e-08
1.48392e-08
1.20323e-08
1.06309e-08
8.5633e-09
7.53434e-09
6.02259e-09
5.27317e-09
4.17775e-09
3.63722e-09
2.85194e-09
2.46595e-09
1.90733e-09
1.62274e-09
1.18137e-09
8.32873e-10
6.85083e-10
5.04109e-10
4.19648e-10
3.05277e-10
2.51849e-10
1.79986e-10
1.46801e-10
1.02969e-10
8.29806e-11
5.70857e-11
4.54183e-11
3.05868e-11
2.39794e-11
1.57316e-11
1.20976e-11
7.64379e-12
5.70541e-12
3.3799e-12
2.38575e-12
1.23239e-12
7.66427e-13
2.86945e-13
1.17827e-13
-2.70804e-16
-3.49037e-14
-4.35132e-14
-4.55731e-14
-4.60372e-14
3.89343e-06
3.6357e-06
3.39608e-06
2.83268e-06
2.52853e-06
2.04381e-06
1.80508e-06
1.46064e-06
1.28603e-06
1.01667e-06
8.0056e-07
7.06147e-07
5.84486e-07
5.24655e-07
4.37373e-07
3.93646e-07
3.28748e-07
2.96082e-07
2.47349e-07
2.22767e-07
1.86e-07
1.67435e-07
1.39635e-07
1.25594e-07
1.04562e-07
9.39421e-08
7.80396e-08
7.00151e-08
5.80094e-08
5.19572e-08
4.29138e-08
3.83608e-08
3.15688e-08
2.81546e-08
2.3072e-08
2.05219e-08
1.6735e-08
1.48392e-08
1.20323e-08
1.06309e-08
8.5633e-09
7.53434e-09
6.02259e-09
5.27317e-09
4.17775e-09
3.63722e-09
2.85194e-09
2.46595e-09
1.90733e-09
1.62274e-09
1.18137e-09
8.32873e-10
6.85083e-10
5.04108e-10
4.19648e-10
3.05277e-10
2.51849e-10
1.79986e-10
1.46801e-10
1.02969e-10
8.29806e-11
5.70857e-11
4.54183e-11
3.05868e-11
2.39793e-11
1.57316e-11
1.20976e-11
7.64378e-12
5.70541e-12
3.3799e-12
2.38575e-12
1.23239e-12
7.66426e-13
2.86945e-13
1.17827e-13
-2.71017e-16
-3.49038e-14
-4.35132e-14
-4.55731e-14
-4.60372e-14
3.9037e-06
3.63493e-06
3.40898e-06
2.82227e-06
2.53571e-06
2.03393e-06
1.80928e-06
1.45382e-06
1.2898e-06
1.01452e-06
7.95678e-07
7.07225e-07
5.82003e-07
5.25745e-07
4.35624e-07
3.94487e-07
3.27453e-07
2.9672e-07
2.46378e-07
2.23251e-07
1.85269e-07
1.67802e-07
1.39082e-07
1.25872e-07
1.04144e-07
9.41519e-08
7.77232e-08
7.01732e-08
5.77703e-08
5.2076e-08
4.27335e-08
3.84497e-08
3.14332e-08
2.82209e-08
2.29703e-08
2.05711e-08
1.6659e-08
1.48755e-08
1.19759e-08
1.06574e-08
8.52161e-09
7.55353e-09
5.99199e-09
5.28692e-09
4.15549e-09
3.64695e-09
2.83592e-09
2.47281e-09
1.89634e-09
1.62898e-09
1.17764e-09
8.24828e-10
6.86398e-10
5.00238e-10
4.20837e-10
3.02834e-10
2.52582e-10
1.78436e-10
1.47224e-10
1.02013e-10
8.32154e-11
5.65155e-11
4.5544e-11
3.02573e-11
2.40445e-11
1.55468e-11
1.21301e-11
7.54301e-12
5.72078e-12
3.32657e-12
2.39207e-12
1.20486e-12
7.66948e-13
2.7452e-13
1.15781e-13
-3.61192e-15
-3.59454e-14
-4.37751e-14
-4.56364e-14
-4.60552e-14
3.92467e-06
3.63238e-06
3.43626e-06
2.79981e-06
2.55147e-06
2.01294e-06
1.81869e-06
1.43933e-06
1.298e-06
1.0101e-06
7.85568e-07
7.09763e-07
5.76752e-07
5.28181e-07
4.31909e-07
3.96357e-07
3.24701e-07
2.98139e-07
2.44316e-07
2.24326e-07
1.83714e-07
1.68617e-07
1.37907e-07
1.26489e-07
1.03255e-07
9.46178e-08
7.70504e-08
7.05245e-08
5.7262e-08
5.234e-08
4.23502e-08
3.86474e-08
3.11449e-08
2.83683e-08
2.27542e-08
2.06804e-08
1.64977e-08
1.49561e-08
1.1856e-08
1.07164e-08
8.43307e-09
7.59635e-09
5.92704e-09
5.31765e-09
4.10824e-09
3.66872e-09
2.80194e-09
2.48817e-09
1.87295e-09
1.64256e-09
1.16994e-09
8.08194e-10
6.89611e-10
4.9209e-10
4.23564e-10
2.97676e-10
2.54267e-10
1.75165e-10
1.48205e-10
9.99995e-11
8.3765e-11
5.53152e-11
4.58416e-11
2.95642e-11
2.42007e-11
1.51584e-11
1.22093e-11
7.3315e-12
5.75894e-12
3.21479e-12
2.40846e-12
1.14733e-12
7.69635e-13
2.48738e-13
1.12157e-13
-1.0437e-14
-3.79676e-14
-4.42755e-14
-4.5757e-14
-4.60895e-14
3.95729e-06
3.62596e-06
3.48113e-06
2.76179e-06
2.57881e-06
1.97816e-06
1.83548e-06
1.41529e-06
1.31205e-06
1.00313e-06
7.69499e-07
7.14581e-07
5.68116e-07
5.3252e-07
4.25759e-07
3.99668e-07
3.20141e-07
3.00644e-07
2.40897e-07
2.26223e-07
1.81137e-07
1.70054e-07
1.35959e-07
1.27576e-07
1.0178e-07
9.54398e-08
7.59351e-08
7.11443e-08
5.64194e-08
5.28061e-08
4.17148e-08
3.89966e-08
3.06672e-08
2.86289e-08
2.23962e-08
2.08739e-08
1.62306e-08
1.50989e-08
1.16576e-08
1.08211e-08
8.28657e-09
7.67238e-09
5.81963e-09
5.37232e-09
4.03015e-09
3.70755e-09
2.74581e-09
2.51557e-09
1.83415e-09
1.66581e-09
1.1578e-09
7.81823e-10
6.95974e-10
4.78775e-10
4.2858e-10
2.89214e-10
2.57377e-10
1.69806e-10
1.50034e-10
9.67054e-11
8.48021e-11
5.33551e-11
4.64109e-11
2.84342e-11
2.45037e-11
1.4526e-11
1.23655e-11
6.98767e-12
5.83589e-12
3.03345e-12
2.443e-12
1.05445e-12
7.78038e-13
2.07578e-13
1.07969e-13
-2.1066e-14
-4.08391e-14
-4.49688e-14
-4.59231e-14
-4.61367e-14
4.00314e-06
3.61205e-06
3.54895e-06
2.7023e-06
2.62283e-06
1.92504e-06
1.86336e-06
1.37856e-06
1.33432e-06
9.93149e-07
7.46275e-07
7.23056e-07
5.55042e-07
5.39701e-07
4.1638e-07
4.05113e-07
3.13178e-07
3.04757e-07
2.35674e-07
2.29335e-07
1.77198e-07
1.7241e-07
1.32981e-07
1.2936e-07
9.95267e-08
9.67878e-08
7.42307e-08
7.21611e-08
5.51318e-08
5.35709e-08
4.07443e-08
3.95701e-08
2.99376e-08
2.90571e-08
2.18497e-08
2.11921e-08
1.58228e-08
1.5334e-08
1.13549e-08
1.09936e-08
8.06319e-09
7.79791e-09
5.65595e-09
5.46275e-09
3.91124e-09
3.77191e-09
2.66039e-09
2.56099e-09
1.77481e-09
1.70264e-09
1.14037e-09
7.4384e-10
7.07585e-10
4.58776e-10
4.3716e-10
2.76449e-10
2.62714e-10
1.61734e-10
1.53205e-10
9.17534e-11
8.66204e-11
5.04145e-11
4.74211e-11
2.67421e-11
2.50485e-11
1.35809e-11
1.26503e-11
6.47473e-12
5.97882e-12
2.76359e-12
2.50945e-12
9.17071e-13
7.98196e-13
1.47579e-13
1.04957e-13
-3.60661e-14
-4.43364e-14
-4.57889e-14
-4.61186e-14
-4.61922e-14
0.000194984
1.90423e-05
1.00791e-05
4.07687e-06
3.49314e-06
2.7108e-06
2.63103e-06
2.2482e-06
2.20774e-06
1.86715e-06
1.5621e-06
1.53157e-06
1.27909e-06
1.25468e-06
1.0409e-06
1.02044e-06
8.42136e-07
8.25164e-07
6.78298e-07
6.64374e-07
5.44521e-07
5.33191e-07
4.36047e-07
4.26883e-07
3.48537e-07
3.41158e-07
2.78204e-07
2.72281e-07
2.21831e-07
2.17088e-07
1.7674e-07
1.7295e-07
1.40731e-07
1.37706e-07
1.1201e-07
1.09598e-07
8.91256e-08
8.72049e-08
7.09082e-08
6.93798e-08
5.64171e-08
5.52017e-08
4.48975e-08
4.39315e-08
3.57444e-08
3.49769e-08
2.84726e-08
2.78617e-08
2.26886e-08
2.21821e-08
1.79297e-08
1.4473e-08
1.4137e-08
1.1511e-08
1.12628e-08
9.15736e-09
8.95832e-09
7.2548e-09
7.0931e-09
5.70116e-09
5.56829e-09
4.41648e-09
4.30576e-09
3.33772e-09
3.24399e-09
2.41664e-09
2.33671e-09
1.63169e-09
1.56518e-09
9.94178e-10
9.42068e-10
5.14193e-10
4.75789e-10
1.66044e-10
1.43438e-10
1.97821e-11
1.29855e-11
1.1829e-11
1.15679e-11
1.15095e-11
0.000176206
3.33474e-05
1.30188e-05
5.23676e-06
3.71024e-06
2.82562e-06
2.62653e-06
2.27886e-06
2.18319e-06
1.87123e-06
1.58842e-06
1.51667e-06
1.29773e-06
1.2412e-06
1.05657e-06
1.00923e-06
8.5525e-07
8.15984e-07
6.89133e-07
6.56917e-07
5.53384e-07
5.27167e-07
4.43242e-07
4.22037e-07
3.54347e-07
3.37271e-07
2.82877e-07
2.69171e-07
2.25578e-07
2.14603e-07
1.79739e-07
1.70967e-07
1.43126e-07
1.36126e-07
1.13921e-07
1.0834e-07
9.06487e-08
8.62038e-08
7.21209e-08
6.85838e-08
5.73819e-08
5.45691e-08
4.56645e-08
4.34291e-08
3.63538e-08
3.45776e-08
2.89561e-08
2.75417e-08
2.30612e-08
2.18782e-08
1.80138e-08
1.47827e-08
1.39911e-08
1.17091e-08
1.11336e-08
9.31344e-09
8.85276e-09
7.38057e-09
7.00636e-09
5.80352e-09
5.49603e-09
4.50075e-09
4.24454e-09
3.40816e-09
3.19128e-09
2.47682e-09
2.29194e-09
1.68363e-09
1.52981e-09
1.03713e-09
9.16588e-10
5.4689e-10
4.58112e-10
1.91935e-10
1.39645e-10
3.1701e-11
1.57601e-11
1.24802e-11
1.17248e-11
1.15555e-11
0.000163141
4.27511e-05
1.54564e-05
6.14632e-06
3.90162e-06
2.91299e-06
2.62795e-06
2.29942e-06
2.16728e-06
1.87413e-06
1.60629e-06
1.50765e-06
1.30987e-06
1.23283e-06
1.06674e-06
1.00228e-06
8.63769e-07
8.10301e-07
6.96179e-07
6.52308e-07
5.5915e-07
5.23448e-07
4.47926e-07
4.19048e-07
3.58131e-07
3.34875e-07
2.8592e-07
2.67254e-07
2.28019e-07
2.13073e-07
1.81692e-07
1.69746e-07
1.44687e-07
1.35153e-07
1.15166e-07
1.07565e-07
9.16412e-08
8.55876e-08
7.29112e-08
6.80939e-08
5.80107e-08
5.41799e-08
4.61645e-08
4.31199e-08
3.67511e-08
3.43319e-08
2.92711e-08
2.73441e-08
2.33019e-08
2.16815e-08
1.80725e-08
1.49947e-08
1.39047e-08
1.18388e-08
1.10542e-08
9.41507e-09
8.7876e-09
7.46238e-09
6.95271e-09
5.87001e-09
5.45124e-09
4.55542e-09
4.2065e-09
3.45378e-09
3.15846e-09
2.5158e-09
2.26409e-09
1.71738e-09
1.50799e-09
1.06519e-09
9.01069e-10
5.68345e-10
4.47528e-10
2.09268e-10
1.38075e-10
3.99389e-11
1.80278e-11
1.30303e-11
1.1858e-11
1.15946e-11
0.000154892
4.84305e-05
1.71744e-05
6.77312e-06
4.04266e-06
2.97215e-06
2.63108e-06
2.3121e-06
2.15778e-06
1.876e-06
1.61737e-06
1.50257e-06
1.31716e-06
1.22801e-06
1.07283e-06
9.98274e-07
8.68877e-07
8.07036e-07
7.00405e-07
6.49663e-07
5.62611e-07
5.21317e-07
4.50739e-07
4.17336e-07
3.60403e-07
3.33504e-07
2.87749e-07
2.66157e-07
2.29486e-07
2.12197e-07
1.82866e-07
1.69048e-07
1.45625e-07
1.34596e-07
1.15915e-07
1.07123e-07
9.22379e-08
8.52354e-08
7.33864e-08
6.78139e-08
5.83887e-08
5.39575e-08
4.64651e-08
4.29432e-08
3.69899e-08
3.41914e-08
2.94605e-08
2.72308e-08
2.34453e-08
2.15641e-08
1.81097e-08
1.5127e-08
1.38572e-08
1.19171e-08
1.10089e-08
9.47613e-09
8.75026e-09
7.51147e-09
6.92191e-09
5.90988e-09
5.42547e-09
4.58816e-09
4.18456e-09
3.48108e-09
3.13949e-09
2.53911e-09
2.24801e-09
1.73762e-09
1.49548e-09
1.0821e-09
8.92283e-10
5.81317e-10
4.41636e-10
2.19915e-10
1.37582e-10
4.51264e-11
1.96183e-11
1.34269e-11
1.19547e-11
1.1623e-11
0.0001509
5.11013e-05
1.80579e-05
7.09289e-06
4.1172e-06
3.00208e-06
2.63328e-06
2.31815e-06
2.15335e-06
1.87692e-06
1.62267e-06
1.5003e-06
1.32058e-06
1.22582e-06
1.07569e-06
9.96452e-07
8.7127e-07
8.05551e-07
7.02387e-07
6.48461e-07
5.64234e-07
5.20349e-07
4.52058e-07
4.16559e-07
3.61469e-07
3.32882e-07
2.88607e-07
2.6566e-07
2.30174e-07
2.118e-07
1.83417e-07
1.68732e-07
1.46065e-07
1.34344e-07
1.16266e-07
1.06922e-07
9.25179e-08
8.50758e-08
7.36094e-08
6.76871e-08
5.85662e-08
5.38567e-08
4.66061e-08
4.28632e-08
3.7102e-08
3.41278e-08
2.95493e-08
2.71793e-08
2.35123e-08
2.15093e-08
1.81278e-08
1.51906e-08
1.38363e-08
1.1954e-08
1.09883e-08
9.50477e-09
8.73331e-09
7.53449e-09
6.90791e-09
5.92856e-09
5.41374e-09
4.60349e-09
4.17455e-09
3.49384e-09
3.13082e-09
2.55001e-09
2.24068e-09
1.7471e-09
1.48981e-09
1.09004e-09
8.88329e-10
5.87427e-10
4.39018e-10
2.24982e-10
1.3749e-10
4.76344e-11
2.04352e-11
1.36343e-11
1.20055e-11
1.16379e-11
0.0001509
5.11013e-05
1.80579e-05
7.09288e-06
4.11719e-06
3.00208e-06
2.63328e-06
2.31815e-06
2.15335e-06
1.87692e-06
1.62267e-06
1.5003e-06
1.32058e-06
1.22582e-06
1.07569e-06
9.96452e-07
8.7127e-07
8.05551e-07
7.02387e-07
6.48461e-07
5.64234e-07
5.20349e-07
4.52058e-07
4.16559e-07
3.61469e-07
3.32882e-07
2.88607e-07
2.6566e-07
2.30174e-07
2.118e-07
1.83417e-07
1.68732e-07
1.46065e-07
1.34344e-07
1.16266e-07
1.06922e-07
9.25179e-08
8.50758e-08
7.36094e-08
6.76871e-08
5.85662e-08
5.38567e-08
4.66062e-08
4.28632e-08
3.7102e-08
3.41278e-08
2.95493e-08
2.71793e-08
2.35123e-08
2.15093e-08
1.81278e-08
1.51906e-08
1.38363e-08
1.1954e-08
1.09883e-08
9.50477e-09
8.73331e-09
7.53449e-09
6.90791e-09
5.92856e-09
5.41374e-09
4.60349e-09
4.17455e-09
3.49384e-09
3.13082e-09
2.55001e-09
2.24068e-09
1.7471e-09
1.48981e-09
1.09004e-09
8.88329e-10
5.87427e-10
4.39018e-10
2.24982e-10
1.3749e-10
4.76343e-11
2.04351e-11
1.36343e-11
1.20055e-11
1.16379e-11
0.000154892
4.84305e-05
1.71744e-05
6.77309e-06
4.04265e-06
2.97215e-06
2.63108e-06
2.3121e-06
2.15778e-06
1.876e-06
1.61737e-06
1.50257e-06
1.31716e-06
1.22801e-06
1.07284e-06
9.98274e-07
8.68877e-07
8.07036e-07
7.00406e-07
6.49663e-07
5.62612e-07
5.21317e-07
4.50739e-07
4.17336e-07
3.60403e-07
3.33504e-07
2.87749e-07
2.66158e-07
2.29486e-07
2.12197e-07
1.82866e-07
1.69048e-07
1.45625e-07
1.34596e-07
1.15915e-07
1.07123e-07
9.22379e-08
8.52354e-08
7.33864e-08
6.78139e-08
5.83888e-08
5.39575e-08
4.64651e-08
4.29432e-08
3.69899e-08
3.41914e-08
2.94605e-08
2.72308e-08
2.34453e-08
2.15641e-08
1.81097e-08
1.5127e-08
1.38572e-08
1.19171e-08
1.10089e-08
9.47613e-09
8.75026e-09
7.51148e-09
6.92191e-09
5.90988e-09
5.42547e-09
4.58817e-09
4.18456e-09
3.48108e-09
3.13949e-09
2.53911e-09
2.24801e-09
1.73762e-09
1.49548e-09
1.0821e-09
8.92282e-10
5.81316e-10
4.41635e-10
2.19915e-10
1.37582e-10
4.51262e-11
1.96181e-11
1.34269e-11
1.19547e-11
1.16229e-11
0.000163141
4.2751e-05
1.54564e-05
6.14629e-06
3.9016e-06
2.91298e-06
2.62795e-06
2.29942e-06
2.16728e-06
1.87413e-06
1.60629e-06
1.50765e-06
1.30987e-06
1.23283e-06
1.06674e-06
1.00228e-06
8.63769e-07
8.10302e-07
6.96179e-07
6.52308e-07
5.5915e-07
5.23449e-07
4.47926e-07
4.19048e-07
3.58131e-07
3.34876e-07
2.8592e-07
2.67254e-07
2.28019e-07
2.13073e-07
1.81692e-07
1.69746e-07
1.44687e-07
1.35153e-07
1.15166e-07
1.07565e-07
9.16413e-08
8.55877e-08
7.29113e-08
6.8094e-08
5.80107e-08
5.41799e-08
4.61645e-08
4.31199e-08
3.67511e-08
3.43319e-08
2.92712e-08
2.73441e-08
2.33019e-08
2.16815e-08
1.80725e-08
1.49947e-08
1.39047e-08
1.18388e-08
1.10542e-08
9.41508e-09
8.78761e-09
7.46238e-09
6.95272e-09
5.87001e-09
5.45124e-09
4.55542e-09
4.2065e-09
3.45379e-09
3.15846e-09
2.5158e-09
2.26409e-09
1.71738e-09
1.50799e-09
1.06519e-09
9.01068e-10
5.68345e-10
4.47527e-10
2.09268e-10
1.38075e-10
3.99385e-11
1.80277e-11
1.30302e-11
1.1858e-11
1.15945e-11
0.000176206
3.33473e-05
1.30188e-05
5.23673e-06
3.71023e-06
2.82561e-06
2.62653e-06
2.27886e-06
2.18319e-06
1.87123e-06
1.58842e-06
1.51667e-06
1.29773e-06
1.2412e-06
1.05657e-06
1.00923e-06
8.5525e-07
8.15984e-07
6.89134e-07
6.56917e-07
5.53384e-07
5.27167e-07
4.43243e-07
4.22037e-07
3.54348e-07
3.37272e-07
2.82877e-07
2.69171e-07
2.25578e-07
2.14604e-07
1.79739e-07
1.70967e-07
1.43126e-07
1.36126e-07
1.13921e-07
1.0834e-07
9.06487e-08
8.62039e-08
7.21209e-08
6.85838e-08
5.73819e-08
5.45692e-08
4.56646e-08
4.34291e-08
3.63539e-08
3.45776e-08
2.89562e-08
2.75417e-08
2.30613e-08
2.18782e-08
1.80138e-08
1.47827e-08
1.39911e-08
1.17091e-08
1.11336e-08
9.31344e-09
8.85277e-09
7.38058e-09
7.00636e-09
5.80352e-09
5.49603e-09
4.50075e-09
4.24454e-09
3.40816e-09
3.19128e-09
2.47682e-09
2.29194e-09
1.68363e-09
1.52981e-09
1.03713e-09
9.16588e-10
5.46889e-10
4.58112e-10
1.91935e-10
1.39644e-10
3.17007e-11
1.576e-11
1.24802e-11
1.17247e-11
1.15554e-11
0.000194984
1.90422e-05
1.00791e-05
4.07686e-06
3.49313e-06
2.7108e-06
2.63103e-06
2.2482e-06
2.20774e-06
1.86715e-06
1.5621e-06
1.53157e-06
1.27909e-06
1.25468e-06
1.0409e-06
1.02044e-06
8.42136e-07
8.25164e-07
6.78298e-07
6.64375e-07
5.44521e-07
5.33191e-07
4.36047e-07
4.26883e-07
3.48537e-07
3.41158e-07
2.78204e-07
2.72281e-07
2.21831e-07
2.17088e-07
1.7674e-07
1.7295e-07
1.40731e-07
1.37706e-07
1.1201e-07
1.09598e-07
8.91257e-08
8.7205e-08
7.09082e-08
6.93798e-08
5.64171e-08
5.52017e-08
4.48975e-08
4.39315e-08
3.57444e-08
3.49769e-08
2.84726e-08
2.78618e-08
2.26886e-08
2.21821e-08
1.79297e-08
1.4473e-08
1.4137e-08
1.1511e-08
1.12628e-08
9.15736e-09
8.95832e-09
7.2548e-09
7.0931e-09
5.70116e-09
5.56829e-09
4.41648e-09
4.30576e-09
3.33772e-09
3.24399e-09
2.41664e-09
2.33671e-09
1.63169e-09
1.56518e-09
9.94178e-10
9.42068e-10
5.14193e-10
4.75789e-10
1.66044e-10
1.43438e-10
1.9782e-11
1.29855e-11
1.18289e-11
1.15679e-11
1.15095e-11
0.000195012
1.90053e-05
1.00389e-05
4.03535e-06
3.45167e-06
2.67342e-06
2.59408e-06
2.21581e-06
2.17585e-06
1.83978e-06
1.53891e-06
1.50879e-06
1.25984e-06
1.23577e-06
1.02503e-06
1.00486e-06
8.29146e-07
8.12422e-07
6.6772e-07
6.54003e-07
5.35945e-07
5.24785e-07
4.29118e-07
4.20095e-07
3.42957e-07
3.35692e-07
2.73721e-07
2.67891e-07
2.18238e-07
2.1357e-07
1.73866e-07
1.70136e-07
1.38436e-07
1.3546e-07
1.1018e-07
1.07808e-07
8.76694e-08
8.57801e-08
6.97505e-08
6.82471e-08
5.54976e-08
5.43022e-08
4.41679e-08
4.32179e-08
3.51659e-08
3.44111e-08
2.80143e-08
2.74135e-08
2.23257e-08
2.18276e-08
1.76453e-08
1.42454e-08
1.39149e-08
1.13321e-08
1.10878e-08
9.01683e-09
8.82104e-09
7.1452e-09
6.98611e-09
5.61663e-09
5.48589e-09
4.35246e-09
4.2435e-09
3.29064e-09
3.19837e-09
2.38365e-09
2.30491e-09
1.61017e-09
1.54461e-09
9.8149e-10
9.30087e-10
5.07884e-10
4.69975e-10
1.64028e-10
1.41699e-10
1.95378e-11
1.28235e-11
1.1681e-11
1.1423e-11
1.13654e-11
0.000176226
3.33156e-05
1.29797e-05
5.19567e-06
3.66923e-06
2.788e-06
2.58992e-06
2.24617e-06
2.15165e-06
1.84382e-06
1.56487e-06
1.4941e-06
1.27822e-06
1.22248e-06
1.04048e-06
9.93818e-07
8.42071e-07
8.03378e-07
6.78397e-07
6.46658e-07
5.44676e-07
5.18854e-07
4.36205e-07
4.15324e-07
3.48678e-07
3.31867e-07
2.78321e-07
2.6483e-07
2.21926e-07
2.11126e-07
1.76817e-07
1.68186e-07
1.40793e-07
1.33905e-07
1.12061e-07
1.0657e-07
8.91676e-08
8.47954e-08
7.09433e-08
6.74643e-08
5.64466e-08
5.36802e-08
4.49224e-08
4.27238e-08
3.57654e-08
3.40184e-08
2.84898e-08
2.70987e-08
2.26922e-08
2.15287e-08
1.7728e-08
1.455e-08
1.37714e-08
1.15269e-08
1.09608e-08
9.17036e-09
8.71719e-09
7.26892e-09
6.90077e-09
5.71733e-09
5.41478e-09
4.43538e-09
4.18323e-09
3.35996e-09
3.14645e-09
2.4429e-09
2.26078e-09
1.66135e-09
1.50971e-09
1.02384e-09
9.04937e-10
5.4014e-10
4.52505e-10
1.89599e-10
1.37949e-10
3.13123e-11
1.55645e-11
1.23243e-11
1.1578e-11
1.14108e-11
0.000163157
4.27228e-05
1.54183e-05
6.10559e-06
3.86093e-06
2.87522e-06
2.59156e-06
2.26654e-06
2.13597e-06
1.8467e-06
1.5825e-06
1.48521e-06
1.29019e-06
1.21424e-06
1.05051e-06
9.86968e-07
8.50468e-07
7.9778e-07
6.85339e-07
6.42119e-07
5.50356e-07
5.15193e-07
4.40818e-07
4.12382e-07
3.52403e-07
3.29509e-07
2.81318e-07
2.62944e-07
2.24329e-07
2.0962e-07
1.7874e-07
1.66985e-07
1.42329e-07
1.32948e-07
1.13286e-07
1.05809e-07
9.0144e-08
8.41894e-08
7.17207e-08
6.69825e-08
5.70651e-08
5.32974e-08
4.54141e-08
4.24197e-08
3.6156e-08
3.37768e-08
2.87996e-08
2.69044e-08
2.29289e-08
2.13352e-08
1.77857e-08
1.47586e-08
1.36865e-08
1.16544e-08
1.08827e-08
9.27033e-09
8.65309e-09
7.3494e-09
6.84798e-09
5.78275e-09
5.3707e-09
4.48917e-09
4.14577e-09
3.40487e-09
3.11412e-09
2.48127e-09
2.23333e-09
1.6946e-09
1.48818e-09
1.05151e-09
8.89616e-10
5.61305e-10
4.42042e-10
2.06718e-10
1.36398e-10
3.94503e-11
1.78047e-11
1.28677e-11
1.17097e-11
1.14494e-11
0.000154904
4.84043e-05
1.7137e-05
6.73264e-06
4.00218e-06
2.93431e-06
2.59481e-06
2.27911e-06
2.12662e-06
1.84856e-06
1.59343e-06
1.48021e-06
1.29738e-06
1.20949e-06
1.05652e-06
9.83026e-07
8.55502e-07
7.94564e-07
6.89504e-07
6.39514e-07
5.53766e-07
5.13094e-07
4.43588e-07
4.10696e-07
3.54641e-07
3.28159e-07
2.83118e-07
2.61865e-07
2.25773e-07
2.08758e-07
1.79895e-07
1.66298e-07
1.43252e-07
1.32401e-07
1.14022e-07
1.05373e-07
9.0731e-08
8.38429e-08
7.21881e-08
6.67071e-08
5.74369e-08
5.30786e-08
4.57097e-08
4.22459e-08
3.63909e-08
3.36387e-08
2.89858e-08
2.6793e-08
2.307e-08
2.12197e-08
1.78223e-08
1.48887e-08
1.36397e-08
1.17315e-08
1.08381e-08
9.33039e-09
8.61635e-09
7.39769e-09
6.81768e-09
5.82197e-09
5.34534e-09
4.52139e-09
4.12417e-09
3.43173e-09
3.09543e-09
2.50422e-09
2.21748e-09
1.71453e-09
1.47584e-09
1.06818e-09
8.80941e-10
5.741e-10
4.36217e-10
2.17233e-10
1.3591e-10
4.45749e-11
1.93759e-11
1.32596e-11
1.18052e-11
1.14775e-11
0.000150912
5.10761e-05
1.80208e-05
7.05254e-06
4.07682e-06
2.9642e-06
2.59707e-06
2.28512e-06
2.12225e-06
1.84946e-06
1.59866e-06
1.47797e-06
1.30075e-06
1.20732e-06
1.05933e-06
9.8123e-07
8.57861e-07
7.93101e-07
6.91456e-07
6.38331e-07
5.55365e-07
5.12141e-07
4.44888e-07
4.09931e-07
3.55691e-07
3.27546e-07
2.83962e-07
2.61376e-07
2.2645e-07
2.08368e-07
1.80437e-07
1.65987e-07
1.43685e-07
1.32153e-07
1.14368e-07
1.05176e-07
9.10064e-08
8.36859e-08
7.24074e-08
6.65823e-08
5.76114e-08
5.29795e-08
4.58485e-08
4.21672e-08
3.65012e-08
3.35761e-08
2.90732e-08
2.67424e-08
2.31358e-08
2.11658e-08
1.78401e-08
1.49512e-08
1.36192e-08
1.17677e-08
1.08179e-08
9.35856e-09
8.59967e-09
7.42033e-09
6.8039e-09
5.84035e-09
5.33379e-09
4.53647e-09
4.11432e-09
3.44429e-09
3.0869e-09
2.51495e-09
2.21025e-09
1.72387e-09
1.47024e-09
1.07601e-09
8.77038e-10
5.80127e-10
4.33628e-10
2.22237e-10
1.35819e-10
4.70525e-11
2.01829e-11
1.34645e-11
1.18553e-11
1.14922e-11
0.000150912
5.10761e-05
1.80208e-05
7.05253e-06
4.07681e-06
2.9642e-06
2.59707e-06
2.28512e-06
2.12225e-06
1.84946e-06
1.59866e-06
1.47797e-06
1.30075e-06
1.20732e-06
1.05933e-06
9.81231e-07
8.57861e-07
7.93101e-07
6.91456e-07
6.38331e-07
5.55365e-07
5.12141e-07
4.44888e-07
4.09931e-07
3.55691e-07
3.27546e-07
2.83963e-07
2.61376e-07
2.2645e-07
2.08368e-07
1.80437e-07
1.65987e-07
1.43685e-07
1.32153e-07
1.14368e-07
1.05176e-07
9.10065e-08
8.36859e-08
7.24074e-08
6.65823e-08
5.76114e-08
5.29795e-08
4.58485e-08
4.21672e-08
3.65012e-08
3.35761e-08
2.90732e-08
2.67424e-08
2.31358e-08
2.11658e-08
1.78401e-08
1.49512e-08
1.36192e-08
1.17677e-08
1.08179e-08
9.35856e-09
8.59967e-09
7.42033e-09
6.8039e-09
5.84035e-09
5.33379e-09
4.53647e-09
4.11432e-09
3.44429e-09
3.0869e-09
2.51495e-09
2.21025e-09
1.72387e-09
1.47024e-09
1.07601e-09
8.77038e-10
5.80127e-10
4.33628e-10
2.22236e-10
1.35818e-10
4.70524e-11
2.01828e-11
1.34644e-11
1.18553e-11
1.14922e-11
0.000154905
4.84043e-05
1.71369e-05
6.73261e-06
4.00216e-06
2.93431e-06
2.59481e-06
2.27911e-06
2.12662e-06
1.84856e-06
1.59343e-06
1.48021e-06
1.29738e-06
1.20949e-06
1.05652e-06
9.83026e-07
8.55502e-07
7.94564e-07
6.89504e-07
6.39515e-07
5.53766e-07
5.13094e-07
4.43589e-07
4.10696e-07
3.54641e-07
3.28159e-07
2.83118e-07
2.61865e-07
2.25773e-07
2.08758e-07
1.79895e-07
1.66298e-07
1.43252e-07
1.32401e-07
1.14022e-07
1.05373e-07
9.0731e-08
8.38429e-08
7.21881e-08
6.67071e-08
5.74369e-08
5.30786e-08
4.57097e-08
4.2246e-08
3.63909e-08
3.36387e-08
2.89858e-08
2.6793e-08
2.307e-08
2.12197e-08
1.78223e-08
1.48887e-08
1.36397e-08
1.17315e-08
1.08381e-08
9.33039e-09
8.61635e-09
7.39769e-09
6.81768e-09
5.82197e-09
5.34534e-09
4.52139e-09
4.12417e-09
3.43173e-09
3.09543e-09
2.50422e-09
2.21748e-09
1.71453e-09
1.47584e-09
1.06818e-09
8.80941e-10
5.74099e-10
4.36216e-10
2.17232e-10
1.35909e-10
4.45747e-11
1.93758e-11
1.32595e-11
1.18052e-11
1.14774e-11
0.000163157
4.27227e-05
1.54183e-05
6.10556e-06
3.86091e-06
2.87522e-06
2.59155e-06
2.26654e-06
2.13597e-06
1.8467e-06
1.5825e-06
1.48521e-06
1.29019e-06
1.21424e-06
1.05051e-06
9.86968e-07
8.50468e-07
7.97781e-07
6.85339e-07
6.42119e-07
5.50356e-07
5.15193e-07
4.40818e-07
4.12382e-07
3.52404e-07
3.29509e-07
2.81318e-07
2.62944e-07
2.24329e-07
2.0962e-07
1.7874e-07
1.66985e-07
1.42329e-07
1.32948e-07
1.13286e-07
1.05809e-07
9.01441e-08
8.41894e-08
7.17208e-08
6.69825e-08
5.70651e-08
5.32974e-08
4.54141e-08
4.24197e-08
3.61561e-08
3.37768e-08
2.87996e-08
2.69044e-08
2.29289e-08
2.13352e-08
1.77857e-08
1.47586e-08
1.36865e-08
1.16545e-08
1.08827e-08
9.27033e-09
8.65309e-09
7.3494e-09
6.84799e-09
5.78275e-09
5.3707e-09
4.48917e-09
4.14577e-09
3.40487e-09
3.11412e-09
2.48127e-09
2.23333e-09
1.6946e-09
1.48818e-09
1.05151e-09
8.89615e-10
5.61304e-10
4.42042e-10
2.06717e-10
1.36398e-10
3.945e-11
1.78045e-11
1.28676e-11
1.17096e-11
1.14494e-11
0.000176226
3.33156e-05
1.29797e-05
5.19564e-06
3.66921e-06
2.78799e-06
2.58992e-06
2.24617e-06
2.15165e-06
1.84383e-06
1.56487e-06
1.4941e-06
1.27822e-06
1.22248e-06
1.04048e-06
9.93818e-07
8.42071e-07
8.03379e-07
6.78397e-07
6.46659e-07
5.44676e-07
5.18855e-07
4.36205e-07
4.15324e-07
3.48678e-07
3.31867e-07
2.78322e-07
2.6483e-07
2.21926e-07
2.11126e-07
1.76817e-07
1.68186e-07
1.40793e-07
1.33905e-07
1.12061e-07
1.0657e-07
8.91677e-08
8.47955e-08
7.09434e-08
6.74643e-08
5.64466e-08
5.36802e-08
4.49224e-08
4.27238e-08
3.57654e-08
3.40184e-08
2.84898e-08
2.70987e-08
2.26922e-08
2.15287e-08
1.7728e-08
1.455e-08
1.37714e-08
1.15269e-08
1.09608e-08
9.17036e-09
8.7172e-09
7.26893e-09
6.90077e-09
5.71733e-09
5.41478e-09
4.43538e-09
4.18323e-09
3.35997e-09
3.14645e-09
2.4429e-09
2.26078e-09
1.66135e-09
1.50971e-09
1.02384e-09
9.04937e-10
5.4014e-10
4.52504e-10
1.89599e-10
1.37949e-10
3.1312e-11
1.55643e-11
1.23243e-11
1.1578e-11
1.14108e-11
0.000195012
1.90052e-05
1.00389e-05
4.03533e-06
3.45166e-06
2.67342e-06
2.59408e-06
2.21581e-06
2.17585e-06
1.83978e-06
1.53891e-06
1.50879e-06
1.25984e-06
1.23577e-06
1.02503e-06
1.00486e-06
8.29146e-07
8.12422e-07
6.67721e-07
6.54003e-07
5.35945e-07
5.24786e-07
4.29119e-07
4.20095e-07
3.42957e-07
3.35692e-07
2.73721e-07
2.67891e-07
2.18238e-07
2.13571e-07
1.73866e-07
1.70137e-07
1.38436e-07
1.3546e-07
1.1018e-07
1.07808e-07
8.76694e-08
8.57801e-08
6.97505e-08
6.82472e-08
5.54977e-08
5.43023e-08
4.4168e-08
4.32179e-08
3.5166e-08
3.44111e-08
2.80143e-08
2.74135e-08
2.23257e-08
2.18276e-08
1.76453e-08
1.42454e-08
1.39149e-08
1.13321e-08
1.10878e-08
9.01684e-09
8.82104e-09
7.1452e-09
6.98612e-09
5.61663e-09
5.4859e-09
4.35246e-09
4.2435e-09
3.29065e-09
3.19837e-09
2.38365e-09
2.30492e-09
1.61017e-09
1.54461e-09
9.8149e-10
9.30087e-10
5.07884e-10
4.69974e-10
1.64028e-10
1.41699e-10
1.95377e-11
1.28235e-11
1.16809e-11
1.1423e-11
1.13654e-11
3.96322e-06
3.57536e-06
3.51283e-06
2.67418e-06
2.59547e-06
1.90451e-06
1.84344e-06
1.36355e-06
1.31975e-06
9.82141e-07
7.37899e-07
7.1493e-07
5.48744e-07
5.33571e-07
4.11613e-07
4.00471e-07
3.09565e-07
3.01238e-07
2.32935e-07
2.26669e-07
1.75125e-07
1.70393e-07
1.31416e-07
1.27837e-07
9.83487e-08
9.56416e-08
7.33471e-08
7.13017e-08
5.44719e-08
5.29293e-08
4.02539e-08
3.90935e-08
2.95753e-08
2.87053e-08
2.15839e-08
2.09341e-08
1.56293e-08
1.51463e-08
1.12153e-08
1.08584e-08
7.96358e-09
7.70152e-09
5.58573e-09
5.3949e-09
3.86245e-09