/*--------------------------------*- C++ -*----------------------------------*\
| =========                 |                                                 |
| \\      /  F ield         | OpenFOAM: The Open Source CFD Toolbox           |
|  \\    /   O peration     | Version:  5.x                                   |
|   \\  /    A nd           | Web:      www.OpenFOAM.org                      |
|    \\/     M anipulation  |                                                 |
\*---------------------------------------------------------------------------*/
FoamFile
{
    version     2.0;
    format      ascii;
    class       volScalarField;
    location    "14.8";
    object      gradTx;
}
// * * * * * * * * * * * * * * * * * * * * * * * * * * * * * * * * * * * * * //

dimensions      [0 -1 0 1 0 0 0];

internalField   nonuniform List<scalar> 
6300
(
2.34466
2.62013
3.16711
3.97731
5.03744
6.32819
7.82318
9.48786
11.2788
13.1434
15.0212
16.8456
18.5479
20.0619
21.3298
2.06867
2.34809
2.90334
3.72685
4.80626
6.1234
7.65294
9.36107
11.2044
13.1297
15.0739
16.9671
18.7355
20.3075
21.62
1.51275
1.79972
2.37082
3.21995
4.33683
5.70567
7.30354
9.09846
11.0477
13.0963
15.1772
17.2127
19.1188
20.8119
22.2176
0.669328
0.96667
1.55973
2.44478
3.61489
5.05836
6.7565
8.681
10.7909
13.03
15.3252
17.587
19.7145
21.6032
23.1585
-0.471926
-0.162607
0.456149
1.38402
2.61906
4.15582
5.98257
8.07754
10.4044
12.9071
15.5058
18.0953
20.5483
22.7272
24.5035
-1.92301
-1.60183
-0.957058
0.0155608
1.32098
2.96277
4.93985
7.24165
9.84133
12.6875
15.6951
18.7393
21.6554
24.2533
26.3469
-3.69579
-3.36513
-2.69861
-1.6862
-0.314
1.43387
3.57188
6.10731
9.03127
12.3058
15.8473
19.5106
23.0802
26.2829
28.8341
-5.7997
-5.46478
-4.78655
-3.74825
-2.32516
-0.485682
1.80593
4.58386
7.87011
11.6564
15.8771
20.3751
24.8713
28.9635
32.1912
-8.23898
-7.90823
-7.23504
-6.19558
-4.7532
-2.85788
-0.446887
2.55156
6.20836
10.572
15.6289
21.2406
27.0657
32.508
36.7829
-11.0095
-10.6946
-10.0502
-9.04631
-7.63466
-5.74624
-3.28767
-0.139628
3.83919
8.79385
14.8255
21.8921
29.6422
37.2193
43.2281
-14.0953
-13.8108
-13.2255
-12.3052
-10.9934
-9.20521
-6.81842
-3.6621
0.493654
5.93816
12.9864
21.8594
32.3911
43.498
52.653
-17.4661
-17.2282
-16.7363
-15.956
-14.8289
-13.2633
-11.1191
-8.18449
-4.14114
1.47818
9.32208
20.1672
34.564
51.7278
67.3117
-21.0751
-20.8999
-20.5359
-19.954
-19.1032
-17.9002
-16.2108
-13.816
-10.3524
-5.20689
2.65594
14.9225
33.9691
61.5363
92.3125
-24.8598
-24.7606
-24.554
-24.2214
-23.73
-23.024
-22.0083
-20.5168
-18.2458
-14.6098
-8.41451
2.89703
24.8524
68.1347
141.25
-28.744
-28.7292
-28.6982
-28.6479
-28.5718
-28.4577
-28.282
-27.9975
-27.5045
-26.5726
-24.6017
-19.7729
-5.59221
44.8982
257.946
22.2489
22.8423
23.2078
23.347
23.2689
22.9885
22.525
21.8999
21.1355
20.2535
19.2741
18.2155
17.0936
15.9223
14.7131
13.4759
12.2189
10.949
9.6722
8.39336
7.11681
5.84619
4.58463
3.33481
2.09896
0.878956
-0.3237
-1.50784
-2.67262
-3.81749
-4.94218
-6.04667
-7.1311
-8.19575
-9.24095
-10.267
-11.2741
-12.2623
-13.2314
-14.1813
-15.1115
-16.0216
-16.9112
-17.7801
-18.6285
-19.4565
-20.2648
-21.0543
-21.8259
-22.5807
-23.3195
-24.043
-24.7513
-25.4441
-26.1208
-26.7801
-27.4206
-28.0408
-28.6388
-29.2133
-29.7628
-30.2862
-30.7824
-31.2503
-31.6886
-32.0956
-32.469
-32.8054
-33.1008
-33.3502
-33.548
-33.6878
-33.7632
-33.7679
-33.696
-33.5426
-33.3038
-32.977
-32.5613
-32.0569
-31.4659
-30.7917
-30.0395
-29.2158
-28.3286
-27.3874
-26.4031
-25.3877
-24.354
-23.3154
22.5659
23.1697
23.5331
23.6594
23.5596
23.2516
22.7571
22.0999
21.3043
20.3932
19.3876
18.306
17.1645
15.9764
14.7531
13.5041
12.2371
10.9588
9.67478
8.38982
7.10803
5.83292
4.56755
3.31451
2.076
0.853851
-0.350464
-1.5358
-2.70134
-3.84658
-4.97131
-6.07555
-7.15956
-8.22373
-9.26848
-10.2942
-11.3012
-12.2896
-13.2591
-14.2095
-15.1403
-16.0509
-16.9408
-17.8096
-18.6575
-19.4846
-20.2917
-21.0797
-21.8499
-22.6034
-23.3414
-24.0645
-24.7732
-25.4671
-26.1454
-26.8068
-27.4497
-28.0722
-28.6725
-29.2489
-29.8001
-30.325
-30.8227
-31.2925
-31.7333
-32.1438
-32.5217
-32.864
-33.1666
-33.4243
-33.631
-33.7801
-33.8646
-33.8777
-33.813
-33.6652
-33.43
-33.1048
-32.6884
-32.1812
-31.5851
-30.9038
-30.1421
-29.3068
-28.4059
-27.4491
-26.4475
-25.4136
-24.3609
-23.3033
23.2187
23.8424
24.1995
24.2965
24.1497
23.7826
23.2227
22.4989
21.639
20.6686
19.6101
18.4826
17.3019
16.0808
14.8299
13.5577
12.2712
10.9765
9.67845
8.38149
7.08938
5.80544
4.53253
3.27313
2.02935
0.802944
-0.404655
-1.59235
-2.75936
-3.90526
-5.02993
-6.13357
-7.21659
-8.27963
-9.32335
-10.3484
-11.3551
-12.3438
-13.3142
-14.2659
-15.198
-16.1098
-17.0004
-17.8693
-18.7162
-19.5414
-20.3458
-21.1307
-21.8976
-22.6483
-23.3843
-24.1067
-24.8161
-25.5122
-26.1941
-26.86
-27.5078
-28.1353
-28.7401
-29.3204
-29.8748
-30.4025
-30.9029
-31.376
-31.8214
-32.2384
-32.6253
-32.9795
-33.2966
-33.5712
-33.7966
-33.965
-34.0685
-34.099
-34.0493
-33.913
-33.6855
-33.3636
-32.946
-32.433
-31.8269
-31.131
-30.3505
-29.4919
-28.5634
-27.5749
-26.5381
-25.4663
-24.3744
-23.2778
24.2463
24.8983
25.2399
25.284
25.0562
24.5905
23.9239
23.0932
22.1322
21.0703
19.9315
18.7354
17.4969
16.2277
14.9369
13.6314
12.3171
10.9986
9.6803
8.36589
7.05874
5.76185
4.47787
3.2091
1.95753
0.724836
-0.48761
-1.67875
-2.84785
-3.99455
-5.11888
-6.22124
-7.30239
-8.36331
-9.40509
-10.4287
-11.435
-12.4242
-13.3962
-14.3501
-15.2849
-16.1991
-17.0912
-17.9603
-18.8058
-19.628
-20.4278
-21.2072
-21.9684
-22.714
-23.4464
-24.1674
-24.8778
-25.5776
-26.2653
-26.9388
-27.5949
-28.2306
-28.8427
-29.429
-29.9878
-30.5187
-31.0221
-31.4989
-31.9499
-32.3758
-32.7758
-33.1477
-33.4874
-33.7887
-34.0437
-34.2431
-34.377
-34.4355
-34.4097
-34.2919
-34.0764
-33.7597
-33.3403
-32.8188
-32.1973
-31.4797
-30.6708
-29.7772
-28.8069
-27.77
-26.6786
-25.5477
-24.3942
-23.2362
25.7151
26.4006
26.708
26.6622
26.305
25.687
24.8607
23.8745
22.7704
21.582
20.3351
19.0486
17.7357
16.4056
15.0647
13.7177
12.3684
11.0202
9.67626
8.33959
7.0131
5.69947
4.40111
3.12013
1.85839
0.617451
-0.601349
-1.79696
-2.96864
-4.1161
-5.23947
-6.33948
-7.4173
-8.47451
-9.51287
-10.5341
-11.5394
-12.5294
-13.504
-14.4619
-15.4013
-16.3199
-17.2151
-18.0852
-18.9289
-19.7464
-20.5391
-21.3096
-22.0615
-22.7986
-23.5247
-24.2429
-24.9547
-25.66
-26.3569
-27.0422
-27.7112
-28.3594
-28.9822
-29.5766
-30.1406
-30.6743
-31.1793
-31.6584
-32.1144
-32.5501
-32.9663
-33.362
-33.7331
-34.0725
-34.3704
-34.615
-34.7935
-34.8931
-34.9021
-34.8109
-34.6127
-34.3032
-33.8813
-33.3479
-32.7059
-31.9592
-31.1128
-30.1727
-29.1462
-28.0429
-26.8758
-25.6615
-24.42
-23.1742
27.7287
28.4465
28.6841
28.4883
27.9286
27.0831
26.027
24.8252
23.5294
22.1774
20.7953
19.3993
17.9988
16.5985
15.2008
13.8069
12.4179
11.0354
9.66145
8.29838
6.94872
5.6149
4.29913
3.00332
1.72914
0.478072
-0.748579
-1.94968
-3.1244
-4.27234
-5.39375
-6.48965
-7.56185
-8.61281
-9.64533
-10.6622
-11.6656
-12.6568
-13.6356
-14.6002
-15.5476
-16.474
-17.3751
-18.2477
-19.0896
-19.9004
-20.6822
-21.4387
-22.1754
-22.8986
-23.6143
-24.3273
-25.0405
-25.754
-26.4651
-27.1685
-27.8573
-28.5242
-29.1625
-29.7674
-30.3366
-30.8709
-31.3736
-31.8505
-32.3079
-32.7518
-33.1861
-33.6114
-34.024
-34.4155
-34.7733
-35.0817
-35.3233
-35.4807
-35.5384
-35.4838
-35.3085
-35.0082
-34.5824
-34.0332
-33.3648
-32.5819
-31.6895
-30.6921
-29.5954
-28.4074
-27.1407
-25.8138
-24.452
-23.0849
30.4474
31.1831
31.2838
30.8378
29.9631
28.7819
27.4025
25.9108
24.3685
22.8158
21.2751
19.7562
18.2611
16.7874
15.3311
13.8886
12.4577
11.0381
9.63068
8.23761
6.8613
5.50415
4.16822
2.85519
1.56649
0.303418
-0.93269
-2.14048
-3.31876
-4.46681
-5.58476
-6.67395
-7.73699
-8.77761
-9.80028
-10.8096
-11.8094
-12.802
-13.7875
-14.7632
-15.7242
-16.6641
-17.5762
-18.4543
-19.2946
-20.0961
-20.8613
-21.596
-22.3087
-23.0093
-23.7074
-24.4112
-25.1257
-25.8513
-26.584
-27.3154
-28.0346
-28.7299
-29.3907
-30.0093
-30.5826
-31.1123
-31.6049
-32.0703
-32.5205
-32.967
-33.4184
-33.8786
-34.3448
-34.8066
-35.2471
-35.6443
-35.9738
-36.2115
-36.3358
-36.3301
-36.1841
-35.8937
-35.4606
-34.8897
-34.188
-33.3621
-32.4167
-31.3542
-30.1759
-28.8851
-27.4917
-26.0162
-24.4911
-22.9584
34.1225
34.8336
34.6704
33.8038
32.4386
30.7658
28.9392
27.0685
25.2223
23.4365
21.7228
20.0784
18.4922
16.9508
15.4411
13.9533
12.4812
11.0228
9.57904
8.15246
6.74611
5.36267
4.00416
2.6719
1.3668
0.0898318
-1.15766
-2.37385
-3.55671
-4.70463
-5.81721
-6.89591
-7.94437
-8.96821
-9.97444
-10.9706
-11.9634
-12.9574
-13.9533
-14.9471
-15.931
-16.8944
-17.8258
-18.7152
-19.5554
-20.3439
-21.084
-21.7848
-22.4593
-23.1231
-23.792
-24.4796
-25.1944
-25.9382
-26.7045
-27.4797
-28.2461
-28.9849
-29.6791
-30.3162
-30.8911
-31.4069
-31.8747
-32.3117
-32.7383
-33.1746
-33.6376
-34.1368
-34.6714
-35.2281
-35.7828
-36.3039
-36.7563
-37.1051
-37.3199
-37.378
-37.2669
-36.9845
-36.5366
-35.9342
-35.1898
-34.3139
-33.3122
-32.1827
-30.9179
-29.5101
-27.9607
-26.2896
-24.5411
-22.7788
39.164
39.7424
39.0691
37.4875
35.3564
32.9708
30.5392
28.1904
25.9889
23.9527
22.0705
20.3161
18.6586
17.0681
15.5195
13.9949
12.4845
10.9862
9.50242
8.03801
6.59771
5.18512
3.80216
2.44936
1.12651
-0.166299
-1.42779
-2.65526
-3.845
-4.99338
-6.09845
-7.1614
-8.18718
-9.18412
-10.1631
-11.1363
-12.1156
-13.11
-14.1218
-15.1453
-16.1672
-17.1703
-18.1359
-19.0468
-19.8903
-20.661
-21.3633
-22.0111
-22.625
-23.2295
-23.8497
-24.5083
-25.2212
-25.9925
-26.8117
-27.6562
-28.4971
-29.304
-30.0492
-30.7125
-31.2844
-31.7702
-32.1886
-32.5679
-32.9415
-33.3435
-33.8042
-34.3438
-34.9658
-35.652
-36.3664
-37.0621
-37.6874
-38.1914
-38.5293
-38.6692
-38.5962
-38.3131
-37.8348
-37.1829
-36.3805
-35.4467
-34.3911
-33.2059
-31.8655
-30.3385
-28.6046
-26.6744
-24.6104
-22.5197
46.277
46.453
44.7748
41.9616
38.6399
35.2414
32.0198
29.0996
26.517
24.2468
22.2336
20.4139
18.7281
17.1247
15.563
14.0156
12.4703
10.9283
9.39771
7.88859
6.40924
4.96474
3.55659
2.18357
0.842843
-0.467613
-1.74697
-2.99107
-4.19286
-5.34452
-6.44035
-7.4804
-8.47148
-9.42587
-10.3599
-11.2931
-12.2462
-13.2372
-14.2736
-15.3455
-16.4304
-17.5001
-18.5246
-19.4754
-20.3298
-21.0764
-21.7209
-22.2859
-22.804
-23.313
-23.8518
-24.4585
-25.1635
-25.9777
-26.8822
-27.8376
-28.7967
-29.7114
-30.5372
-31.2398
-31.8015
-32.2303
-32.5583
-32.8318
-33.1035
-33.4276
-33.8566
-34.4319
-35.1674
-36.0348
-36.9765
-37.9212
-38.7929
-39.5162
-40.0236
-40.2663
-40.2277
-39.9223
-39.3825
-38.6481
-37.7597
-36.7547
-35.6562
-34.4522
-33.0816
-31.4646
-29.5307
-27.2518
-24.7177
-22.1319
56.7694
55.8326
52.1144
47.1666
42.033
37.2562
33.0657
29.5225
26.5949
24.1705
22.1175
20.3187
18.6786
17.1207
15.5854
14.0329
12.4511
10.8538
9.26174
7.69609
6.17034
4.69181
3.26031
1.87112
0.515483
-0.813801
-2.11698
-3.38787
-4.61294
-5.77609
-6.86253
-7.86989
-8.80858
-9.69684
-10.558
-11.4211
-12.322
-13.2989
-14.3743
-15.5266
-16.7155
-17.8948
-19.0191
-20.0425
-20.9245
-21.6386
-22.1927
-22.6278
-22.9962
-23.3531
-23.7558
-24.2668
-24.9481
-25.8329
-26.8787
-28.0136
-29.1601
-30.2462
-31.2024
-31.9694
-32.5095
-32.8351
-33.0062
-33.0981
-33.1894
-33.3603
-33.6981
-34.2888
-35.1788
-36.31
-37.582
-38.8849
-40.1117
-41.1515
-41.8984
-42.2681
-42.2428
-41.8684
-41.21
-40.3343
-39.3064
-38.1971
-37.0725
-35.9382
-34.6521
-33.0465
-30.9531
-28.1961
-24.8995
-21.5104
73.314
69.2162
61.2241
52.6386
44.9109
38.4257
33.1787
29.058
25.9477
23.5587
21.6348
19.9946
18.5104
17.0838
15.6322
14.0921
12.454
10.7712
9.08753
7.44584
5.86324
4.35094
2.90292
1.51021
0.150055
-1.19768
-2.53356
-3.85071
-5.12219
-6.31814
-7.39859
-8.35826
-9.21823
-10.0068
-10.753
-11.4948
-12.2883
-13.2185
-14.364
-15.6551
-17.0143
-18.3682
-19.6589
-20.813
-21.7606
-22.4308
-22.8357
-23.0657
-23.2044
-23.327
-23.5035
-23.8298
-24.4395
-25.4556
-26.7469
-28.1724
-29.6099
-30.9678
-32.1398
-33.0254
-33.526
-33.662
-33.5678
-33.3646
-33.1602
-33.0522
-33.1749
-33.7142
-34.8424
-36.3822
-38.1424
-39.9576
-41.6995
-43.2079
-44.3157
-44.8383
-44.7602
-44.2227
-43.35
-42.2394
-40.9695
-39.661
-38.5022
-37.6421
-36.6824
-35.33
-33.3309
-29.917
-25.2138
-20.4037
102.047
88.2062
71.1878
56.8759
45.9996
37.8119
31.6693
27.138
24.2617
22.2768
20.7431
19.4456
18.2586
17.0828
15.8061
14.2919
12.5213
10.6895
8.85272
7.11036
5.45477
3.91738
2.46579
1.10232
-0.233325
-1.59868
-2.97715
-4.37935
-5.74019
-7.02649
-8.10855
-8.99012
-9.73065
-10.3776
-10.9546
-11.4937
-12.0577
-12.8279
-14.1439
-15.6852
-17.3208
-18.9324
-20.4951
-21.8805
-22.9961
-23.6048
-23.7304
-23.6347
-23.4355
-23.2232
-23.0353
-22.9842
-23.3456
-24.6818
-26.4216
-28.3136
-30.1739
-31.957
-33.4892
-34.6352
-35.0674
-34.8199
-34.2859
-33.6327
-32.992
-32.4117
-32.0516
-32.2911
-33.913
-36.1366
-38.6232
-41.1355
-43.6231
-45.8405
-47.5755
-48.2729
-47.9386
-47.059
-45.8324
-44.3734
-42.6876
-40.9092
-39.5013
-39.489
-39.2779
-38.5445
-37.7457
-33.4941
-25.682
-18.1416
158.914
111.771
77.2522
56.1645
43.2158
34.2521
27.8393
22.8341
21.2917
20.3447
19.511
18.7369
17.9903
17.2266
16.3217
14.8606
12.6762
10.6146
8.48166
6.6497
4.87585
3.36011
1.90162
0.65425
-0.574023
-1.98086
-3.38661
-4.96756
-6.46557
-8.02892
-9.10721
-9.82504
-10.3777
-10.8493
-11.2106
-11.4566
-11.5299
-11.6513
-13.5992
-15.5793
-17.6614
-19.5671
-21.5862
-23.3364
-24.9611
-25.4743
-24.9436
-24.3523
-23.6854
-23.0839
-22.3699
-21.5441
-20.8479
-23.3263
-25.8767
-28.5003
-30.8486
-33.3069
-35.3943
-37.2727
-37.5868
-36.3901
-35.1751
-33.8824
-32.7363
-31.4537
-30.0643
-28.8768
-32.1169
-35.5117
-39.0663
-42.3487
-45.9351
-49.1672
-52.3287
-53.1923
-51.9018
-50.3945
-48.6489
-46.8332
-44.5387
-41.6233
-38.4901
-41.6218
-42.6249
-41.8526
-47.1322
-42.1976
-25.7587
-12.8437
290.094
117.155
63.9748
43.7321
34.6931
27.0185
21.9819
13.5436
17.4638
18.2491
18.1927
17.9881
17.7465
17.5732
17.6378
16.4705
12.6539
10.6424
7.67692
6.1052
3.92508
2.72026
1.03334
0.178603
-0.657659
-2.36468
-3.54379
-5.67525
-7.09682
-9.72982
-10.6249
-10.8978
-11.1414
-11.4795
-11.6325
-11.668
-10.9329
-7.84458
-13.0079
-15.3265
-18.2558
-20.0383
-23.0641
-24.973
-28.5263
-28.8465
-26.244
-25.1785
-23.8405
-23.1066
-21.8652
-19.9173
-13.7784
-21.8668
-25.226
-29.0832
-31.3643
-35.1907
-37.6001
-42.1623
-42.2813
-37.9865
-36.1757
-33.9206
-32.6768
-30.6491
-27.7858
-19.0866
-30.0976
-34.656
-39.9012
-43.1235
-48.7567
-52.595
-60.3905
-61.2131
-56.1766
-54.0728
-51.5656
-49.9819
-47.2833
-42.6506
-28.457
-46.8192
-48.5278
-36.4455
-71.2267
-67.467
-20.7605
0.583133
-22.1836
-20.9786
-19.8246
-18.7377
-17.7303
-16.8113
-15.9862
-15.2575
-14.6259
-14.0903
-13.6489
-13.2994
-13.0397
-12.8677
-12.782
-22.1517
-20.9274
-19.7573
-18.6579
-17.6417
-16.7173
-15.8894
-15.1603
-14.5296
-13.9959
-13.5568
-13.2096
-12.9517
-12.7811
-12.6962
-22.0857
-20.8218
-19.619
-18.4946
-17.4612
-16.5264
-15.6939
-14.9644
-14.3363
-13.8068
-13.3726
-13.0302
-12.7764
-12.6087
-12.5254
-21.9804
-20.6549
-19.4019
-18.2402
-17.1817
-16.2329
-15.3952
-14.6668
-14.0441
-13.5223
-13.0965
-12.762
-12.5149
-12.3519
-12.271
-21.8275
-20.4153
-19.0934
-17.8821
-16.7925
-15.8281
-14.9869
-14.2634
-13.6508
-13.1416
-12.7289
-12.4064
-12.169
-12.0129
-11.9355
-21.6139
-20.0852
-18.674
-17.4021
-16.278
-15.3
-14.4606
-13.749
-13.1539
-12.6644
-12.2709
-11.9654
-11.7416
-11.595
-11.5224
-21.3191
-19.6373
-18.1151
-16.7742
-15.617
-14.6331
-13.8062
-13.118
-12.5513
-12.091
-11.7247
-11.4426
-11.237
-11.1029
-11.0366
-20.9106
-19.0296
-17.3745
-15.9624
-14.7824
-13.8091
-13.0129
-12.3653
-11.8421
-11.4235
-11.0943
-10.8429
-10.661
-10.5427
-10.4845
-20.3341
-18.1959
-16.3907
-14.9183
-13.741
-12.808
-12.0707
-11.4881
-11.028
-10.6665
-10.3859
-10.1737
-10.0212
-9.92241
-9.8739
-19.4939
-17.0291
-15.0737
-13.5792
-12.455
-11.611
-10.9737
-10.4881
-10.1153
-9.82837
-9.60894
-9.44468
-9.32738
-9.25177
-9.2147
-18.2096
-15.3524
-13.2959
-11.8695
-10.8885
-10.2073
-9.72488
-9.37529
-9.11665
-8.92262
-8.77671
-8.66858
-8.59182
-8.54247
-8.51831
-16.1195
-12.8748
-10.8876
-9.71426
-9.02216
-8.60466
-8.34309
-8.1714
-8.05325
-7.96864
-7.90657
-7.86103
-7.82872
-7.80789
-7.79766
-12.4646
-9.13978
-7.66517
-7.07773
-6.8811
-6.84599
-6.8713
-6.91388
-6.9562
-6.99201
-7.01983
-7.04014
-7.05404
-7.06261
-7.06667
-5.61529
-3.55431
-3.5555
-4.0503
-4.57845
-5.02681
-5.38217
-5.65652
-5.8656
-6.02327
-6.1405
-6.22559
-6.2846
-6.32174
-6.33967
7.89697
4.09338
1.04781
-0.989456
-2.35553
-3.30058
-3.97397
-4.46436
-4.82633
-5.09489
-5.29323
-5.43704
-5.53695
-5.6
-5.63051
-32.3183
-32.3821
-32.5152
-32.7294
-33.0453
-33.4954
-34.1328
-35.0462
-36.3941
-38.4911
-42.0602
-49.1268
-66.7839
-125.414
-376.065
-35.5236
-35.655
-35.9289
-36.3696
-37.0189
-37.9452
-39.2603
-41.1524
-43.9556
-48.3042
-55.5029
-68.4578
-93.9589
-146.895
-244.072
-38.6379
-38.8291
-39.2271
-39.8651
-40.8003
-42.1252
-43.9871
-46.6261
-50.4441
-56.138
-64.9486
-79.0763
-102.082
-137.652
-179.561
-41.6195
-41.8599
-42.3587
-43.1542
-44.3114
-45.9323
-48.1745
-51.2811
-55.6299
-61.8077
-70.7015
-83.5291
-101.48
-124.008
-144.152
-44.4342
-44.7114
-45.2844
-46.1924
-47.5005
-49.3081
-51.7616
-55.0735
-59.5458
-65.5914
-73.7228
-84.4232
-97.7003
-112.019
-122.732
-47.0566
-47.3577
-47.9775
-48.9527
-50.3429
-52.2353
-54.7527
-58.0601
-62.3692
-67.9267
-74.9601
-83.5279
-93.1969
-102.532
-108.751
-49.47
-49.7829
-50.4239
-51.4251
-52.8365
-54.7287
-57.1951
-60.351
-64.3257
-69.2371
-75.132
-81.8677
-88.9249
-95.21
-99.0894
-51.6663
-51.9801
-52.6204
-53.6128
-54.9963
-56.8234
-59.1587
-62.0732
-65.6316
-69.8646
-74.7199
-79.9841
-85.189
-89.5583
-92.1212
-53.6448
-53.9508
-54.5724
-55.5288
-56.848
-58.5653
-60.7202
-63.3484
-66.4689
-70.0599
-74.0238
-78.1417
-82.0334
-85.1608
-86.9326
-55.4108
-55.7023
-56.2921
-57.1931
-58.4233
-60.0035
-61.9529
-64.2818
-66.9794
-69.9962
-73.2208
-76.4564
-79.4082
-81.7047
-82.9744
-56.9744
-57.2468
-57.7957
-58.6288
-59.7556
-61.1853
-62.9222
-64.9592
-67.2683
-69.7881
-72.4102
-74.9682
-77.2382
-78.9615
-79.8978
-58.3489
-58.5993
-59.1021
-59.8605
-60.8776
-62.1538
-63.6831
-65.4476
-67.4107
-69.5089
-71.644
-73.6799
-75.4476
-76.7648
-77.4713
-59.5496
-59.7766
-60.231
-60.9126
-61.8197
-62.9466
-64.2806
-65.7982
-67.4595
-69.204
-70.9467
-72.5778
-73.9698
-74.9922
-75.5353
-60.5926
-60.7961
-61.2021
-61.8081
-62.6091
-63.5955
-64.7508
-66.0489
-67.4504
-68.9004
-70.3267
-71.6418
-72.7487
-73.5525
-73.9763
-61.4944
-61.6749
-62.0343
-62.5684
-63.2699
-64.1271
-65.1219
-66.2277
-67.4076
-68.6132
-69.784
-70.8503
-71.7379
-72.3767
-72.7116
-62.2708
-62.4297
-62.7452
-63.2123
-63.8226
-64.5633
-65.4159
-66.355
-67.3471
-68.3501
-69.314
-70.1829
-70.8997
-71.4121
-71.6794
-62.9368
-63.0757
-63.3509
-63.7568
-64.2847
-64.9217
-65.6498
-66.4455
-67.279
-68.1142
-68.9098
-69.621
-70.2036
-70.6176
-70.8327
-63.5065
-63.6271
-63.8657
-64.2167
-64.6712
-65.2168
-65.8368
-66.5098
-67.2097
-67.9059
-68.5641
-69.1486
-69.6244
-69.9611
-70.1355
-63.9924
-64.0966
-64.3025
-64.6046
-64.9944
-65.4603
-65.987
-66.5555
-67.1431
-67.7238
-68.2696
-68.7516
-69.142
-69.4172
-69.5594
-64.4059
-64.4956
-64.6725
-64.9315
-65.2648
-65.6616
-66.1082
-66.5879
-67.0811
-67.5661
-68.0195
-68.418
-68.7396
-68.9655
-69.0821
-64.7571
-64.834
-64.9856
-65.207
-65.4911
-65.8283
-66.2064
-66.6108
-67.0249
-67.4302
-67.8076
-68.1379
-68.4036
-68.5898
-68.6857
-65.0549
-65.1207
-65.2501
-65.4388
-65.6805
-65.9666
-66.2863
-66.6271
-66.9747
-67.3137
-67.6283
-67.9027
-68.1228
-68.2768
-68.356
-65.3071
-65.3631
-65.4734
-65.634
-65.8392
-66.0815
-66.3516
-66.6386
-66.9305
-67.2143
-67.4768
-67.7052
-67.888
-68.0156
-68.0812
-65.5203
-65.568
-65.6617
-65.7981
-65.9721
-66.1771
-66.4051
-66.6468
-66.8919
-67.1296
-67.349
-67.5394
-67.6915
-67.7975
-67.8519
-65.7004
-65.7409
-65.8205
-65.9361
-66.0834
-66.2567
-66.4491
-66.6526
-66.8585
-67.0578
-67.2412
-67.4002
-67.5269
-67.6152
-67.6605
-65.8523
-65.8867
-65.9542
-66.0521
-66.1767
-66.3231
-66.4854
-66.6567
-66.8297
-66.9968
-67.1504
-67.2833
-67.3891
-67.4628
-67.5005
-65.9804
-66.0096
-66.0667
-66.1496
-66.2549
-66.3786
-66.5154
-66.6596
-66.8051
-66.9453
-67.074
-67.1852
-67.2737
-67.3352
-67.3667
-66.0883
-66.113
-66.1613
-66.2314
-66.3205
-66.4248
-66.5402
-66.6617
-66.784
-66.9018
-67.0098
-67.103
-67.177
-67.2285
-67.2548
-66.179
-66.1999
-66.2408
-66.3001
-66.3754
-66.4635
-66.5608
-66.6631
-66.7661
-66.8651
-66.9558
-67.034
-67.0961
-67.1392
-67.1612
-66.2553
-66.273
-66.3076
-66.3577
-66.4213
-66.4958
-66.5779
-66.6642
-66.7509
-66.8342
-66.9104
-66.9761
-67.0283
-67.0644
-67.083
-66.3193
-66.3342
-66.3635
-66.406
-66.4598
-66.5227
-66.5921
-66.6649
-66.738
-66.8082
-66.8724
-66.9277
-66.9716
-67.002
-67.0175
-66.3729
-66.3856
-66.4104
-66.4464
-66.4919
-66.5452
-66.6038
-66.6654
-66.7272
-66.7865
-66.8406
-66.8872
-66.9242
-66.9498
-66.9629
-66.4177
-66.4284
-66.4495
-66.4801
-66.5187
-66.5639
-66.6136
-66.6658
-66.7181
-66.7683
-66.8141
-66.8535
-66.8847
-66.9063
-66.9174
-66.455
-66.4642
-66.4821
-66.5081
-66.541
-66.5794
-66.6217
-66.666
-66.7105
-66.7531
-66.7919
-66.8254
-66.8518
-66.8702
-66.8796
-66.4859
-66.4938
-66.5091
-66.5313
-66.5595
-66.5923
-66.6284
-66.6662
-66.7041
-66.7405
-66.7736
-66.8021
-66.8246
-66.8403
-66.8483
-66.5114
-66.5182
-66.5314
-66.5505
-66.5746
-66.6028
-66.6339
-66.6663
-66.6989
-66.7301
-66.7585
-66.7829
-66.8023
-66.8157
-66.8225
-66.5323
-66.5381
-66.5495
-66.5661
-66.587
-66.6115
-66.6383
-66.6664
-66.6946
-66.7216
-66.7462
-66.7673
-66.784
-66.7956
-66.8015
-66.549
-66.5541
-66.5642
-66.5787
-66.597
-66.6184
-66.6419
-66.6665
-66.6911
-66.7147
-66.7362
-66.7547
-66.7693
-66.7795
-66.7846
-66.5622
-66.5668
-66.5757
-66.5886
-66.6048
-66.6238
-66.6447
-66.6665
-66.6884
-66.7093
-66.7284
-66.7448
-66.7578
-66.7667
-66.7713
-66.5723
-66.5764
-66.5844
-66.5961
-66.6108
-66.628
-66.6468
-66.6666
-66.6863
-66.7052
-66.7225
-66.7373
-66.749
-66.7571
-66.7612
-66.5795
-66.5833
-66.5907
-66.6015
-66.6151
-66.6309
-66.6484
-66.6666
-66.6848
-66.7023
-66.7182
-66.7319
-66.7427
-66.7502
-66.754
-66.584
-66.5876
-66.5947
-66.6049
-66.6178
-66.6328
-66.6493
-66.6666
-66.6839
-66.7005
-66.7155
-66.7285
-66.7387
-66.7458
-66.7494
-66.5861
-66.5896
-66.5965
-66.6064
-66.619
-66.6337
-66.6498
-66.6666
-66.6835
-66.6996
-66.7143
-66.7269
-66.7369
-66.7438
-66.7474
-66.5857
-66.5892
-66.5961
-66.6061
-66.6188
-66.6335
-66.6497
-66.6666
-66.6836
-66.6998
-66.7145
-66.7272
-66.7373
-66.7442
-66.7478
-66.5828
-66.5865
-66.5936
-66.604
-66.6171
-66.6323
-66.6491
-66.6666
-66.6842
-66.7009
-66.7162
-66.7294
-66.7397
-66.7469
-66.7506
-66.5774
-66.5813
-66.5889
-66.6
-66.6139
-66.6301
-66.6479
-66.6666
-66.6853
-66.7031
-66.7194
-66.7334
-66.7445
-66.7521
-66.756
-66.5693
-66.5736
-66.5819
-66.5939
-66.6091
-66.6268
-66.6462
-66.6666
-66.687
-66.7064
-66.7242
-66.7395
-66.7515
-66.7599
-66.7641
-66.5583
-66.563
-66.5723
-66.5856
-66.6025
-66.6222
-66.6439
-66.6666
-66.6892
-66.711
-66.7307
-66.7477
-66.7612
-66.7705
-66.7752
-66.544
-66.5493
-66.5598
-66.5749
-66.594
-66.6163
-66.6409
-66.6665
-66.6922
-66.7168
-66.7392
-66.7585
-66.7737
-66.7842
-66.7896
-66.526
-66.5321
-66.5441
-66.5614
-66.5833
-66.6089
-66.637
-66.6665
-66.6959
-66.7242
-66.7499
-66.772
-66.7895
-66.8016
-66.8078
-66.5037
-66.5108
-66.5246
-66.5447
-66.5701
-66.5997
-66.6323
-66.6664
-66.7005
-66.7332
-66.7631
-66.7887
-66.809
-66.823
-66.8302
-66.4765
-66.4848
-66.5009
-66.5243
-66.5539
-66.5885
-66.6264
-66.6663
-66.7061
-66.7443
-66.7792
-66.8091
-66.8328
-66.8492
-66.8576
-66.4436
-66.4533
-66.4722
-66.4996
-66.5343
-66.5748
-66.6194
-66.6661
-66.7129
-66.7577
-66.7987
-66.8339
-66.8617
-66.881
-66.8909
-66.4039
-66.4153
-66.4376
-66.4698
-66.5107
-66.5583
-66.6108
-66.6658
-66.721
-66.7739
-66.8222
-66.8637
-66.8966
-66.9194
-66.931
-66.3564
-66.3698
-66.3961
-66.4341
-66.4823
-66.5385
-66.6005
-66.6655
-66.7307
-66.7932
-66.8504
-66.8995
-66.9384
-66.9654
-66.9792
-66.2995
-66.3154
-66.3464
-66.3913
-66.4482
-66.5148
-66.5881
-66.665
-66.7422
-66.8164
-66.8841
-66.9424
-66.9886
-67.0206
-67.037
-66.2317
-66.2504
-66.2871
-66.3402
-66.4075
-66.4863
-66.5731
-66.6643
-66.7559
-66.8439
-66.9244
-66.9936
-67.0486
-67.0867
-67.1062
-66.1508
-66.1729
-66.2163
-66.2792
-66.3589
-66.4522
-66.5552
-66.6634
-66.7722
-66.8767
-66.9724
-67.0548
-67.1203
-67.1657
-67.1889
-66.0546
-66.0807
-66.1321
-66.2064
-66.3009
-66.4114
-66.5336
-66.662
-66.7913
-66.9157
-67.0296
-67.1279
-67.2059
-67.2601
-67.2878
-65.9402
-65.9711
-66.0318
-66.1198
-66.2316
-66.3626
-66.5075
-66.6601
-66.8139
-66.9619
-67.0977
-67.2149
-67.3081
-67.3728
-67.406
-65.8043
-65.8408
-65.9125
-66.0166
-66.149
-66.3043
-66.4762
-66.6574
-66.8403
-67.0167
-67.1787
-67.3186
-67.43
-67.5074
-67.5471
-65.643
-65.6861
-65.7708
-65.8938
-66.0504
-66.2343
-66.4383
-66.6536
-66.8713
-67.0816
-67.2749
-67.4422
-67.5755
-67.6683
-67.7158
-65.4518
-65.5026
-65.6025
-65.7477
-65.9328
-66.1506
-66.3924
-66.6483
-66.9074
-67.1582
-67.3892
-67.5894
-67.7492
-67.8605
-67.9175
-65.2252
-65.2851
-65.4027
-65.5739
-65.7925
-66.0501
-66.3367
-66.6407
-66.9492
-67.2485
-67.5248
-67.7648
-67.9565
-68.0902
-68.1589
-64.9571
-65.0274
-65.1658
-65.3673
-65.625
-65.9295
-66.269
-66.6301
-66.9974
-67.3548
-67.6856
-67.9736
-68.2042
-68.3652
-68.448
-64.6401
-64.7226
-64.8849
-65.1217
-65.4252
-65.7845
-66.1863
-66.615
-67.0526
-67.4797
-67.8761
-68.2223
-68.5001
-68.6945
-68.7945
-64.2659
-64.3623
-64.5523
-64.8299
-65.1865
-65.6099
-66.0851
-66.5937
-67.115
-67.6257
-68.1016
-68.5185
-68.854
-69.0892
-69.2105
-63.8247
-63.9371
-64.1587
-64.4834
-64.9014
-65.3994
-65.9605
-66.5638
-67.1847
-67.7959
-68.368
-68.8712
-69.2775
-69.5631
-69.7106
-63.3055
-63.436
-63.6937
-64.072
-64.5606
-65.1452
-65.8067
-66.5215
-67.2613
-67.9934
-68.6822
-69.2911
-69.7848
-70.133
-70.3131
-62.6957
-62.8465
-63.1449
-63.5841
-64.1533
-64.8375
-65.6158
-66.4619
-67.3431
-68.2208
-69.0519
-69.7909
-70.3932
-70.8196
-71.0407
-61.9813
-62.1546
-62.4983
-63.0058
-63.6663
-64.4644
-65.378
-66.378
-67.4273
-68.4807
-69.4857
-70.3856
-71.1237
-71.6487
-71.9218
-61.1464
-61.3445
-61.738
-62.3211
-63.0839
-64.011
-65.0801
-66.2598
-67.5088
-68.774
-69.9923
-71.0927
-72.002
-72.6527
-72.9925
-60.1741
-60.3988
-60.8462
-61.5118
-62.3873
-63.4591
-64.7053
-66.0937
-67.5788
-69.1
-70.5809
-71.9326
-73.0599
-73.8727
-74.299
-59.0457
-59.2984
-59.8028
-60.5566
-61.5546
-62.786
-64.2317
-65.8604
-67.6239
-69.4538
-71.2591
-72.9281
-74.3363
-75.3609
-75.9017
-57.742
-58.0231
-58.5862
-59.432
-60.5598
-61.9641
-63.6312
-65.5334
-67.6229
-69.8248
-72.032
-74.1048
-75.8789
-77.185
-77.8797
-56.2431
-56.5522
-57.1733
-58.1117
-59.373
-60.9598
-62.8673
-65.0764
-67.5438
-70.192
-72.8981
-75.4889
-77.7465
-79.4337
-80.3402
-54.5297
-54.8646
-55.5402
-56.5673
-57.9601
-59.7327
-61.8942
-64.4399
-67.3392
-70.5189
-73.8443
-77.1044
-80.0102
-82.2243
-83.4301
-52.5837
-52.9404
-53.663
-54.769
-56.2834
-58.2356
-60.6543
-63.558
-66.94
-70.7445
-74.8358
-78.9657
-82.7541
-85.7151
-87.3573
-50.3901
-50.7624
-51.5196
-52.6873
-54.3029
-56.4146
-59.0775
-62.344
-66.2473
-70.7708
-75.8006
-81.0641
-86.0726
-90.1215
-92.4249
-47.9381
-48.317
-49.0914
-50.2945
-51.9778
-54.2111
-57.0815
-60.6877
-65.1239
-70.4454
-76.6031
-83.3394
-90.0574
-95.7398
-99.0918
-45.223
-45.5972
-46.3655
-47.5684
-49.2709
-51.5651
-54.5746
-58.4551
-63.3859
-69.5392
-77.0037
-85.6274
-94.7611
-102.976
-108.086
-42.2481
-42.604
-43.3377
-44.4956
-46.1532
-48.4225
-51.463
-55.4931
-60.7987
-67.7226
-76.5993
-87.561
-100.103
-112.369
-120.629
-39.0263
-39.3485
-40.0156
-41.076
-42.6107
-44.7445
-47.6643
-51.6455
-57.0878
-64.5497
-74.747
-88.3974
-105.635
-124.544
-138.908
-35.581
-35.8537
-36.4205
-37.3272
-38.6523
-40.5208
-43.1284
-46.7834
-51.9743
-59.4772
-70.4967
-86.7428
-110.006
-139.874
-167.162
-31.9464
-32.1549
-32.5895
-33.2881
-34.3168
-35.7838
-37.8654
-40.8548
-45.2552
-51.9627
-62.617
-80.2151
-109.79
-156.995
-214.365
-28.1672
-28.2995
-28.5753
-29.0198
-29.677
-30.6202
-31.9722
-33.9463
-36.9342
-41.7075
-49.9152
-65.37
-97.3312
-167.056
-301.408
-24.2965
-24.3445
-24.4442
-24.6041
-24.8389
-25.1729
-25.6471
-26.334
-27.3735
-29.0676
-32.1808
-39.0624
-58.6472
-132.237
-481.75
-20.3928
-20.3538
-20.2716
-20.1367
-19.9322
-19.6285
-19.1744
-18.4771
-17.3583
-15.4426
-11.8299
-3.93336
17.5399
94.1967
447.268
-16.5164
-16.3934
-16.1358
-15.718
-15.0945
-14.1887
-12.8708
-10.9133
-7.89708
-2.99649
5.54577
21.7672
55.4047
128.674
269.407
-12.7258
-12.5268
-12.1115
-11.4423
-10.4531
-9.03541
-7.01156
-4.08495
0.255076
6.92005
17.588
35.3729
65.7464
116.301
189.282
25.508
10.4089
4.34323
1.20107
-0.70377
-1.96719
-2.85083
-3.48921
-3.95925
-4.3082
-4.56651
-4.75438
-4.88532
-4.96818
-5.00835
16.1263
9.8769
5.30884
2.33318
0.352405
-1.01873
-2.00009
-2.71959
-3.25505
-3.65592
-3.95472
-4.17327
-4.32627
-4.42341
-4.47059
11.0844
8.17723
5.16856
2.77438
0.985212
-0.340928
-1.33118
-2.07775
-2.64428
-3.0745
-3.39863
-3.63764
-3.80598
-3.9133
-3.96556
8.06113
6.54802
4.60151
2.79541
1.29646
0.103619
-0.831499
-1.56091
-2.12815
-2.56672
-2.90162
-3.15105
-3.32802
-3.44141
-3.49677
6.08861
5.21973
3.93691
2.60312
1.39512
0.369189
-0.474656
-1.15669
-1.70134
-2.13093
-2.46393
-2.71476
-2.89418
-3.00978
-3.06641
4.71943
4.17884
3.30767
2.32345
1.36734
0.508304
-0.230176
-0.84788
-1.35441
-1.7622
-2.0833
-2.32804
-2.50463
-2.61908
-2.67534
3.72561
3.3675
2.7569
2.02425
1.27213
0.563692
-0.0695663
-0.616263
-1.07603
-1.45365
-1.75566
-1.98862
-2.1582
-2.26877
-2.32332
2.98044
2.73147
2.29087
1.73854
1.14659
0.566865
0.0309316
-0.445009
-0.854698
-1.19759
-1.47597
-1.69321
-1.85272
-1.95736
-2.00915
2.40815
2.22849
1.90241
1.48032
1.01254
0.539626
0.0897669
-0.319758
-0.679745
-0.98631
-1.23872
-1.43788
-1.58533
-1.68262
-1.73094
1.96061
1.82715
1.58063
1.25381
0.882042
0.496372
0.120592
-0.228906
-0.541886
-0.81263
-1.03844
-1.21845
-1.35276
-1.44186
-1.48626
1.60573
1.50431
1.31458
1.05851
0.761194
0.446246
0.133165
-0.163413
-0.433351
-0.670146
-0.869957
-1.03074
-1.15157
-1.23214
-1.27241
1.32127
1.24279
1.0946
0.891828
0.652587
0.394821
0.134276
-0.116417
-0.347829
-0.553341
-0.728568
-0.870769
-0.978337
-1.05039
-1.08651
1.09128
1.02968
0.912501
0.750471
0.556839