/*--------------------------------*- C++ -*----------------------------------*\
| =========                 |                                                 |
| \\      /  F ield         | OpenFOAM: The Open Source CFD Toolbox           |
|  \\    /   O peration     | Version:  5.x                                   |
|   \\  /    A nd           | Web:      www.OpenFOAM.org                      |
|    \\/     M anipulation  |                                                 |
\*---------------------------------------------------------------------------*/
FoamFile
{
    version     2.0;
    format      ascii;
    class       volScalarField;
    location    "14.8";
    object      gradTy;
}
// * * * * * * * * * * * * * * * * * * * * * * * * * * * * * * * * * * * * * //

dimensions      [0 -1 0 1 0 0 0];

internalField   nonuniform List<scalar> 
6300
(
1001.07
1003.34
1006.04
1009.42
1013.74
1019.26
1026.19
1034.74
1045.04
1057.22
1071.31
1087.31
1105.13
1124.6
1145.5
-0.20868
-0.623234
-1.02909
-1.41952
-1.78646
-2.12013
-2.40898
-2.63978
-2.79838
-2.87087
-2.8455
-2.71487
-2.47838
-2.14391
-1.72834
-0.350927
-1.04842
-1.73235
-2.39203
-3.01442
-3.5834
-4.07946
-4.47983
-4.75953
-4.89336
-4.85918
-4.64212
-4.23919
-3.66309
-2.94347
-0.497519
-1.48716
-2.45984
-3.40183
-4.29578
-5.1196
-5.84562
-6.44056
-6.86655
-7.08387
-7.05576
-6.75524
-6.1732
-5.32579
-4.25792
-0.649512
-1.94283
-3.21801
-4.45962
-5.64723
-6.75353
-7.74282
-8.57018
-9.18216
-9.51975
-9.5247
-9.1498
-8.37249
-7.20886
-5.72239
-0.80722
-2.41664
-4.00975
-5.5714
-7.07996
-8.50446
-9.80192
-10.9152
-11.7721
-12.2882
-12.3735
-11.9468
-10.9581
-9.41478
-7.40237
-0.969936
-2.90674
-4.83289
-6.73624
-8.5967
-10.3824
-12.0452
-13.5163
-14.7029
-15.4875
-15.734
-15.3056
-14.0982
-12.0897
-9.38799
-1.13571
-3.40749
-5.6788
-7.94391
-10.1882
-12.3831
-14.4799
-16.4019
-18.0357
-19.2248
-19.7694
-19.4431
-18.0394
-15.4576
-11.8143
-1.3011
-3.90867
-6.53089
-9.17237
-11.8289
-14.4819
-17.0895
-19.5755
-21.813
-23.6064
-24.6755
-24.658
-23.1585
-19.8871
-14.9027
-1.46112
-4.39519
-7.36368
-10.3857
-13.4733
-16.6259
-19.8206
-22.9974
-26.0343
-28.7121
-30.6682
-31.3546
-30.0494
-26.0292
-19.0594
-1.60931
-4.84727
-8.14289
-11.5333
-15.0526
-18.7275
-22.5696
-26.559
-30.6145
-34.5393
-37.9301
-40.0427
-39.655
-35.1209
-25.1466
-1.73817
-5.24164
-8.82725
-12.5521
-16.4761
-20.6619
-25.1711
-30.0543
-35.325
-40.9003
-46.4701
-51.2308
-53.407
-49.6528
-35.3687
-1.83988
-5.55384
-9.37233
-13.3715
-17.6377
-22.2727
-27.3985
-33.1618
-39.7308
-47.2665
-55.8188
-65.0031
-73.0889
-74.7147
-56.682
-1.90737
-5.76149
-9.73667
-13.9238
-18.4305
-23.3924
-28.988
-35.4635
-43.1695
-52.6156
-64.5352
-79.8733
-99.2306
-119.435
-115.869
-1.93545
-5.84802
-9.88903
-14.1562
-18.7681
-23.8781
-29.6975
-36.5345
-44.8677
-55.491
-69.8325
-90.7239
-124.525
-187.923
-333.557
1165.71
1184.68
1204.05
1223.63
1243.22
1262.65
1281.76
1300.39
1318.42
1335.76
1352.3
1367.97
1382.73
1396.52
1409.31
1421.08
1431.8
1441.46
1450.05
1457.58
1464.04
1469.43
1473.77
1477.06
1479.31
1480.54
1480.76
1479.98
1478.22
1475.5
1471.83
1467.24
1461.73
1455.33
1448.05
1439.91
1430.91
1421.09
1410.45
1399.02
1386.8
1373.81
1360.07
1345.6
1330.41
1314.53
1297.96
1280.73
1262.85
1244.33
1225.19
1205.45
1185.1
1164.18
1142.68
1120.62
1098.02
1074.9
1051.26
1027.14
1002.54
977.502
952.035
926.164
899.916
873.313
846.383
819.154
791.658
763.931
736.013
707.949
679.79
651.592
623.418
595.335
567.412
539.723
512.344
485.348
458.812
432.806
407.399
382.655
358.63
335.376
312.933
291.334
270.599
250.738
-1.29545
-0.880855
-0.462045
-0.054465
0.329144
0.679481
0.990861
1.26092
1.49002
1.68051
1.83595
1.96055
2.05858
2.13408
2.19066
2.23138
2.2588
2.275
2.28168
2.28022
2.27178
2.25736
2.23782
2.21394
2.18643
2.15593
2.12308
2.08847
2.05266
2.01618
1.97951
1.94306
1.9071
1.87181
1.8372
1.80314
1.76939
1.7356
1.70144
1.66662
1.63098
1.59451
1.55744
1.52014
1.48315
1.44704
1.41237
1.37952
1.34869
1.31977
1.29237
1.26581
1.23925
1.21176
1.18248
1.15068
1.11592
1.07805
1.03717
0.993647
0.947893
0.900285
0.850989
0.79984
0.746253
0.689211
0.627316
0.558911
0.482257
0.395745
0.298106
0.188587
0.0670808
-0.0658256
-0.208871
-0.36021
-0.517543
-0.678273
-0.839643
-0.998853
-1.15312
-1.29969
-1.43583
-1.55881
-1.66592
-1.75452
-1.82221
-1.86704
-1.88776
-1.884
-2.19282
-1.47494
-0.752292
-0.0526608
0.601541
1.19454
1.71731
2.16688
2.54502
2.8568
3.10922
3.31006
3.46699
3.58708
3.67646
3.74025
3.78261
3.80689
3.81579
3.81149
3.79584
3.77042
3.73662
3.69569
3.64877
3.59696
3.54126
3.48267
3.42214
3.36058
3.29883
3.2376
3.17742
3.11858
3.06111
3.00475
2.94901
2.89324
2.83677
2.779
2.71957
2.65847
2.59606
2.53307
2.47049
2.40945
2.35101
2.296
2.24478
2.19722
2.15259
2.10967
2.06688
2.02247
1.97479
1.92252
1.86484
1.80151
1.73286
1.65964
1.5828
1.5032
1.42131
1.337
1.24931
1.15647
1.05595
0.944708
0.819512
0.677347
0.515808
0.333448
0.13
-0.0935197
-0.334873
-0.590769
-0.857137
-1.12942
-1.40284
-1.67264
-1.93415
-2.18279
-2.41406
-2.62338
-2.8061
-2.95759
-3.0735
-3.15021
-3.18529
-3.17798
-3.14139
-2.07603
-1.00957
0.0143694
0.961875
1.81049
2.54895
3.17547
3.69533
4.11831
4.45651
4.72249
4.92816
5.084
5.1988
5.27966
5.33214
5.36063
5.36858
5.3588
5.33366
5.29523
5.24535
5.18571
5.11786
5.04324
4.96328
4.87933
4.79277
4.70493
4.61708
4.53032
4.44548
4.36306
4.28309
4.20513
4.12834
4.05159
3.97365
3.89344
3.81027
3.72401
3.63523
3.5451
3.45531
3.36781
3.28446
3.20671
3.13533
3.07015
3.01008
2.9531
2.89659
2.83763
2.77347
2.70191
2.62165
2.53241
2.4349
2.33063
2.22147
2.10918
1.99492
1.87881
1.75959
1.6346
1.49985
1.35042
1.18104
0.986687
0.763344
0.508529
0.221689
-0.0956623
-0.440051
-0.806363
-1.18832
-1.57901
-1.97135
-2.35846
-2.73376
-3.09099
-3.42396
-3.72629
-3.99128
-4.21191
-4.38128
-4.49335
-4.5439
-4.53141
-4.16226
-2.67851
-1.20543
0.191692
1.46485
2.58531
3.54203
4.33791
4.98537
5.50218
5.90801
6.22202
6.46133
6.64028
6.7703
6.86017
6.91649
6.94421
6.94717
6.9285
6.8909
6.83681
6.76844
6.68786
6.59696
6.49754
6.39132
6.28006
6.16554
6.04961
5.93406
5.82055
5.71038
5.60433
5.50247
5.40413
5.30793
5.21196
5.11411
5.01245
4.9057
4.7935
4.67662
4.55692
4.43714
4.32049
4.21011
4.10855
4.01721
3.93603
3.86337
3.79612
3.73008
3.66054
3.58305
3.49408
3.39163
3.27543
3.14692
3.00889
2.86486
2.71821
2.57142
2.42528
2.27839
2.12696
1.96505
1.78507
1.57869
1.33794
1.05636
0.729889
0.357472
-0.05872
-0.513512
-0.999285
-1.50679
-2.02608
-2.54727
-3.06114
-3.55929
-4.03402
-4.47785
-4.88288
-5.24024
-5.53995
-5.77148
-5.92499
-5.99321
-5.97315
-5.27736
-3.26565
-1.29189
0.547559
2.18774
3.596
4.76682
5.71418
6.46367
7.04595
7.49184
7.82923
8.08151
8.26709
8.39969
8.48911
8.54212
8.56354
8.55701
8.52556
8.47202
8.39906
8.30926
8.20499
8.08847
7.96174
7.82678
7.68562
7.54051
7.39386
7.24825
7.10612
6.96952
6.83971
6.71693
6.6002
6.48734
6.3752
6.26019
6.13897
6.00914
5.8699
5.72224
5.56902
5.41463
5.26428
5.12324
4.99583
4.8846
4.78978
4.70903
4.63757
4.56876
4.49506
4.40929
4.30583
4.18156
4.03632
3.87279
3.69596
3.51214
3.32758
3.14713
2.97298
2.80383
2.63455
2.45641
2.25786
2.02594
1.74813
1.41415
1.01752
0.556411
0.033927
-0.542241
-1.16079
-1.80819
-2.47029
-3.13363
-3.78634
-4.41844
-5.02145
-5.58751
-6.108
-6.57211
-6.9661
-7.27391
-7.47935
-7.56953
-7.5386
-6.50732
-3.79795
-1.18473
1.19059
3.24489
4.94892
6.3138
7.37578
8.18319
8.78659
9.23238
9.55948
9.79822
9.97068
10.0918
10.171
10.2138
10.2237
10.2033
10.155
10.0817
9.98616
9.87147
9.74036
9.59529
9.43841
9.27176
9.09751
8.91829
8.73725
8.55804
8.38437
8.21949
8.0656
7.92332
7.79134
7.66633
7.54319
7.41585
7.27848
7.12678
6.95901
6.77646
6.58344
6.38688
6.19527
6.01734
5.86039
5.72895
5.62386
5.54187
5.47574
5.41501
5.34751
5.26153
5.14805
5.00221
4.82404
4.61829
4.3936
4.16094
3.9315
3.71423
3.51393
3.32989
3.15533
2.97756
2.77908
2.53968
2.23956
1.86254
1.39837
0.844075
0.20422
-0.509611
-1.28042
-2.08812
-2.91242
-3.73499
-4.54097
-5.3192
-6.06182
-6.76255
-7.41409
-8.00474
-8.51614
-8.92359
-9.19949
-9.32012
-9.27373
-7.86759
-4.19162
-0.734853
2.29605
4.80656
6.79041
8.29723
9.40434
10.1969
10.7546
11.1443
11.4175
11.6109
11.7487
11.8448
11.9057
11.9334
11.928
11.8901
11.8212
11.7238
11.6015
11.4579
11.2965
11.1197
10.9298
10.7283
10.5172
10.2993
10.0787
9.86052
9.65062
9.45431
9.27546
9.11555
8.97313
8.8433
8.71793
8.58666
8.43928
8.26823
8.0701
7.84643
7.60365
7.35266
7.10723
6.8819
6.68887
6.536
6.42531
6.3525
6.30675
6.27164
6.22718
6.15397
6.03744
5.87
5.65206
5.39161
5.10325
4.80567
4.51842
4.25741
4.03199
3.84279
3.6812
3.52901
3.3597
3.1413
2.84215
2.43683
1.90942
1.25535
0.481434
-0.394549
-1.34653
-2.34379
-3.35666
-4.35991
-5.33518
-6.27093
-7.16221
-8.00813
-8.80755
-9.55124
-10.2156
-10.7624
-11.143
-11.311
-11.2424
-9.35455
-4.26963
0.328267
4.15076
7.12638
9.31855
10.856
11.8857
12.5487
12.9646
13.2239
13.3902
13.5036
13.5868
13.6485
13.6883
13.7004
13.6793
13.6217
13.5282
13.4018
13.2475
13.0702
12.8745
12.6633
12.4379
12.1987
11.9468
11.6844
11.4166
11.1511
10.8974
10.6641
10.4581
10.2827
10.1369
10.0139
9.90123
9.78076
9.63425
9.44879
9.21806
8.944
8.63576
8.31052
7.99036
7.70005
7.45962
7.28245
7.17232
7.12427
7.12256
7.14184
7.14834
7.1089
7.00025
6.81058
6.54141
6.20522
5.82629
5.43563
5.06767
4.74947
4.49799
4.31605
4.19365
4.1052
4.0111
3.8593
3.59773
3.18703
2.60293
1.83928
0.905726
-0.169952
-1.34731
-2.57686
-3.81459
-5.02499
-6.18616
-7.28652
-8.32774
-9.32052
-10.2811
-11.2118
-12.0842
-12.8405
-13.3925
-13.6423
-13.5397
-10.9008
-3.64653
2.50769
7.2246
10.5737
12.7885
14.1449
14.8939
15.255
15.3989
15.4365
15.4381
15.4387
15.4548
15.4825
15.5097
15.5142
15.4819
15.4039
15.2813
15.1189
14.9252
14.7079
14.4736
14.226
13.9644
13.6864
13.3901
13.0759
12.7502
12.4236
12.1134
11.8332
11.5956
11.406
11.2665
11.1686
11.0945
11.0112
10.8842
10.6934
10.4273
10.0897
9.69126
9.25996
8.82944
8.44531
8.13825
7.93133
7.82894
7.82832
7.90717
8.02949
8.13469
8.16255
8.07882
7.86473
7.52634
7.07951
6.56534
6.03205
5.54444
5.14465
4.86308
4.70283
4.6565
4.68884
4.74491
4.73471
4.5674
4.18631
3.55439
2.6673
1.53411
0.200545
-1.27343
-2.79859
-4.31227
-5.76132
-7.12498
-8.38751
-9.56322
-10.6795
-11.7977
-12.9563
-14.1199
-15.213
-16.077
-16.481
-16.3179
-12.2131
-1.43994
6.75627
12.2678
15.6538
17.4936
18.3074
18.4593
18.2727
17.9849
17.6993
17.4859
17.3498
17.3045
17.3158
17.3621
17.3795
17.3486
17.2485
17.0901
16.8796
16.6351
16.3681
16.0904
15.807
15.513
15.1986
14.8575
14.4822
14.0831
13.6709
13.2846
12.9393
12.6623
12.4552
12.3347
12.2872
12.2996
12.3028
12.2243
12.0448
11.7377
11.3214
10.7925
10.2067
9.60016
9.07803
8.67114
8.4282
8.33752
8.41647
8.62773
8.94039
9.23101
9.37551
9.34372
9.09655
8.6661
8.04949
7.33063
6.56148
5.89351
5.36842
5.05232
4.92442
5.005
5.23723
5.5731
5.83535
5.84395
5.54583
4.87238
3.8488
2.45023
0.772425
-1.12656
-3.03754
-4.90364
-6.6212
-8.20993
-9.61398
-10.8847
-12.0359
-13.2564
-14.6941
-16.2571
-17.9153
-19.424
-20.1364
-19.8374
-12.108
4.47689
14.87
20.3714
22.961
23.6769
23.4241
22.5132
21.437
20.5689
19.8589
19.4236
19.1313
19.0736
19.0997
19.2575
19.3155
19.3159
19.1786
18.9751
18.6905
18.3787
18.0451
17.7166
17.4045
17.0926
16.7504
16.3758
15.9242
15.4365
14.8822
14.3981
13.9487
13.6297
13.3813
13.2992
13.3209
13.5195
13.7133
13.7115
13.5812
13.2071
12.7165
11.9772
11.1848
10.2508
9.54627
8.96939
8.70722
8.60324
8.81545
9.20364
9.88434
10.5391
10.8436
10.92
10.5936
10.0752
9.16796
8.16958
6.94644
6.03805
5.29244
4.97166
4.84691
5.13616
5.63742
6.50827
7.30218
7.56311
7.44675
6.69547
5.57122
3.76936
1.66371
-0.961553
-3.34023
-5.70807
-7.6658
-9.56006
-11.0317
-12.3778
-13.2918
-14.4018
-16.2508
-18.2566
-20.8325
-23.9171
-25.2475
-24.5693
-5.43469
19.3101
30.0275
32.6668
32.9657
31.2543
29.4877
26.8048
24.3012
22.9247
21.6229
21.1549
20.5747
20.7216
20.6937
21.2961
21.3341
21.4813
21.2037
20.9764
20.5402
20.1535
19.7145
19.3191
19.0012
18.7157
18.3486
18.0048
17.4179
16.8854
15.9922
15.4615
14.7699
14.4953
14.0679
14.114
14.0997
14.746
15.4056
15.3833
15.4687
14.8441
14.4696
13.238
12.3667
10.5709
9.83054
8.81436
8.75837
8.41355
8.96094
9.35821
10.8656
12.3512
12.6401
13.0764
12.3668
12.0442
10.4176
9.33208
6.87811
5.94812
4.60464
4.60869
4.17319
4.96199
5.50532
7.5542
9.53645
9.82548
10.2619
9.05554
8.26936
5.5259
3.30325
-1.15161
-3.65846
-7.10298
-8.80169
-11.5187
-12.6298
-14.493
-14.2651
-14.4829
-17.5815
-19.4349
-23.0169
-30.936
-33.2508
-31.3901
32.6936
54.343
56.8177
48.3322
45.8646
38.9101
36.8701
30.8372
25.5414
25.1723
22.185
23.0469
20.9704
22.6202
21.3791
24.1466
23.1946
24.2572
23.1554
23.2773
22.3177
22.0026
21.3201
20.8089
20.5504
20.4553
19.912
19.9831
18.8321
18.8525
16.5793
16.7556
14.9896
15.58
14.0714
15.0151
13.9261
15.9524
18.0789
16.899
18.3777
16.1198
17.4562
13.979
14.8791
9.37041
10.5111
7.27576
9.22458
6.93826
9.32177
7.91336
11.8775
15.886
14.2232
16.8823
13.5819
15.8902
10.8871
12.4645
4.61449
6.45293
1.97571
4.87804
1.73583
5.1407
3.20462
8.69547
14.2083
11.875
15.4421
10.8099
13.7854
6.53195
8.15669
-4.14725
-2.62681
-11.0122
-8.47158
-15.7898
-13.1454
-19.6195
-14.5965
-10.4159
-20.705
-18.1242
-18.9558
-46.025
-47.2666
-41.9237
234.127
116.986
99.3897
55.3314
65.2242
39.4889
50.0022
33.8081
19.6875
31.1902
17.2043
29.1706
16.0004
28.6819
16.2925
32.3534
22.1543
30.15
23.3451
27.136
23.1676
24.3809
22.6796
21.9351
21.8646
22.8406
20.5914
23.7214
18.56
24.123
13.6397
20.8471
11.8167
19.6877
10.5441
18.8436
9.26702
17.0151
25.5136
14.5871
26.6679
12.2204
27.3748
8.41708
26.6207
-1.40456
17.4935
-1.72733
15.79
-1.261
15.1435
-1.26735
12.8258
27.5879
9.5834
29.2702
6.72075
30.2653
1.88106
29.1729
-11.5999
16.0528
-11.2792
13.852
-10.1288
13.0108
-9.79039
9.80536
30.1791
5.42813
32.4296
1.60958
34.0316
-5.24631
33.0677
-27.0495
12.6696
-30.6543
6.05565
-34.4067
-0.529572
-41.3016
-13.7145
14.4877
-42.3608
-11.899
22.8876
-98.3047
-70.7634
-59.5387
229.851
208.302
187.945
168.72
150.549
133.348
117.021
101.472
86.603
72.3165
58.5168
45.1107
32.0077
19.1193
6.35893
-1.85365
-1.78883
-1.69683
-1.58319
-1.45375
-1.31404
-1.16879
-1.02176
-0.875645
-0.732161
-0.592178
-0.455883
-0.322941
-0.192642
-0.064022
-3.12455
-3.01153
-2.85206
-2.65618
-2.43434
-2.19621
-1.94998
-1.70193
-1.4565
-1.21639
-0.982872
-0.756085
-0.535304
-0.319206
-0.106065
-4.45015
-4.28067
-4.04367
-3.75511
-3.43119
-3.08649
-2.73296
-2.37947
-2.03202
-1.69401
-1.36683
-1.05027
-0.742979
-0.442808
-0.147097
-5.85653
-5.61729
-5.2868
-4.88936
-4.44876
-3.98557
-3.51585
-3.05096
-2.59806
-2.16079
-1.74015
-1.33518
-0.943525
-0.561944
-0.18661
-7.37484
-7.04507
-6.59681
-6.06671
-5.48888
-4.89113
-4.29386
-3.71044
-3.14842
-2.61091
-2.09779
-1.60674
-1.13399
-0.674826
-0.224005
-9.04415
-8.59125
-7.98856
-7.29172
-6.54884
-5.79617
-5.05798
-4.34847
-3.67425
-3.03661
-2.43333
-1.86
-1.31085
-0.779356
-0.258587
-10.9157
-10.287
-9.47433
-8.56265
-7.61848
-6.68665
-5.79336
-4.95117
-4.16345
-3.4279
-2.73891
-2.08905
-1.47003
-0.873153
-0.289573
-13.0595
-12.1667
-11.0589
-9.86594
-8.67569
-7.53848
-6.47758
-5.49933
-4.60043
-3.7726
-3.0053
-2.28725
-1.60707
-0.953638
-0.31612
-15.5721
-14.2612
-12.7286
-11.1663
-9.67975
-8.31389
-7.07906
-5.96807
-4.96628
-4.05671
-3.22243
-2.44753
-1.71733
-1.0182
-0.337385
-18.5821
-16.5771
-14.4279
-12.391
-10.563
-8.95818
-7.5566
-6.32755
-5.23986
-4.26547
-3.38013
-2.56311
-1.79648
-1.06444
-0.3526
-22.2272
-19.0372
-16.0146
-13.4066
-11.2228
-9.39915
-7.86151
-6.54557
-5.40009
-4.38513
-3.46948
-2.62825
-1.84103
-1.09047
-0.361168
-26.5069
-21.3298
-17.1864
-13.9977
-11.5225
-9.55399
-7.9446
-6.59307
-5.42972
-4.40542
-3.48435
-2.63935
-1.84891
-1.09523
-0.362763
-30.6366
-22.5882
-17.4034
-13.8752
-11.3152
-9.34964
-7.76975
-6.45231
-5.32023
-4.32244
-3.42312
-2.59584
-1.82002
-1.07875
-0.357413
-30.501
-20.9827
-15.9637
-12.7844
-10.5132
-8.75953
-7.33236
-6.12609
-5.0764
-4.14091
-3.28981
-2.50085
-1.75654
-1.04234
-0.345545
-1.9262
-5.81947
-9.83873
-14.0799
-18.6595
-23.7284
-29.4949
-36.2641
-44.5119
-55.0357
-69.2896
-90.2127
-124.509
-189.577
-336.081
-1.88649
-5.69699
-9.62295
-13.7513
-18.1857
-23.0574
-28.5414
-34.8826
-42.4373
-51.7425
-63.6136
-79.2086
-99.553
-121.566
-114.239
-1.8207
-5.49432
-9.26658
-13.21
-17.4081
-21.961
-26.9926
-32.658
-39.147
-46.6672
-55.3512
-64.9055
-73.4367
-73.9311
-45.9723
-1.73252
-5.22311
-8.79129
-12.4919
-16.384
-20.532
-25.0035
-29.8614
-35.1404
-40.7835
-46.4844
-51.3125
-52.9007
-46.0543
-22.1402
-1.6266
-4.898
-8.22399
-11.6406
-15.1822
-18.8784
-22.7459
-26.7722
-30.8806
-34.8593
-38.2234
-39.9696
-38.222
-30.0295
-12.4513
-1.50802
-4.53495
-7.59372
-10.7024
-13.873
-17.1056
-20.3778
-23.6258
-26.7108
-29.3616
-31.0857
-31.0527
-28.019
-20.5223
-7.84884
-1.38187
-4.14975
-6.92873
-9.72121
-12.5207
-15.3053
-18.0265
-20.5926
-22.8423
-24.5074
-25.1678
-24.2192
-20.9153
-14.6098
-5.34647
-1.25282
-3.75684
-6.25432
-8.73503
-11.1788
-13.5489
-15.7828
-17.779
-19.3797
-20.3508
-20.3671
-19.0211
-15.8959
-10.7512
-3.83688
-1.1249
-3.36844
-5.59151
-7.77448
-9.8879
-11.8869
-13.704
-15.24
-16.3543
-16.8574
-16.5122
-15.0585
-12.2789
-8.12152
-2.85463
-1.00131
-2.99424
-4.95652
-6.86217
-8.67642
-10.3513
-11.8204
-12.9937
-13.7533
-13.9529
-13.4271
-12.0165
-9.61877
-6.26225
-2.17958
-0.884434
-2.64131
-4.36082
-6.01328
-7.56169
-8.95842
-10.142
-11.0346
-11.541
-11.5522
-10.9562
-9.66
-7.62437
-4.90722
-1.69653
-0.775881
-2.31432
-3.81165
-5.23662
-6.55223
-7.71352
-8.66577
-9.34366
-9.67254
-9.57312
-8.97166
-7.8169
-6.10322
-3.8949
-1.34011
-0.676575
-2.01587
-3.3127
-4.53587
-5.6499
-6.61375
-7.37996
-7.89503
-8.10145
-7.9426
-7.37126
-6.36189
-4.92553
-3.12316
-1.07078
-0.586888
-1.74688
-2.8649
-3.91088
-4.85184
-5.65117
-6.26852
-6.66068
-6.78395
-6.5985
-6.07501
-5.20336
-4.00198
-2.52501
-0.863393
-0.506768
-1.50704
-2.4671
-3.35879
-4.15209
-4.81493
-5.31342
-5.61302
-5.6808
-5.4891
-5.02049
-4.27379
-3.2698
-2.05507
-0.701253
-0.435853
-1.29511
-2.11678
-2.87499
-3.54293
-4.09279
-4.4964
-4.7263
-4.75782
-4.57196
-4.15906
-3.52285
-2.68396
-1.6817
-0.57292
-0.37358
-1.10928
-1.8105
-2.45388
-3.01573
-3.47221
-3.79998
-3.97732
-3.98578
-3.81246
-3.45268
-2.91264
-2.21154
-1.38231
-0.470317
-0.319259
-0.947398
-1.54438
-2.08938
-2.56168
-2.94097
-3.20801
-3.34559
-3.33994
-3.18243
-2.87146
-2.41426
-1.82808
-1.14038
-0.387603
-0.272144
-0.807147
-1.31434
-1.77535
-2.17221
-2.48768
-2.70592
-2.8133
-2.79954
-2.65894
-2.39178
-2.00544
-1.51511
-0.943631
-0.320463
-0.231474
-0.686203
-1.11636
-1.50587
-1.83923
-2.10189
-2.2808
-2.36514
-2.3472
-2.22332
-1.99484
-1.66884
-1.25848
-0.782773
-0.265655
-0.196512
-0.582321
-0.946597
-1.27538
-1.55535
-1.77425
-1.92133
-1.98799
-1.96841
-1.86032
-1.66561
-1.3908
-1.04722
-0.650671
-0.2207
-0.166559
-0.493389
-0.801479
-1.07877
-1.31387
-1.49647
-1.61771
-1.67071
-1.65108
-1.55747
-1.39199
-1.16052
-0.872729
-0.541776
-0.18368
-0.140972
-0.417468
-0.677749
-0.91144
-1.10885
-1.26129
-1.36147
-1.40385
-1.38512
-1.30452
-1.1642
-0.969351
-0.728206
-0.451729
-0.153094
-0.119167
-0.352805
-0.57248
-0.769306
-0.935045
-1.0624
-1.14535
-1.17943
-1.16211
-1.09303
-0.974255
-0.810326
-0.608215
-0.377066
-0.12775
-0.100622
-0.297836
-0.483076
-0.648755
-0.787888
-0.894354
-0.963158
-0.990701
-0.975032
-0.916053
-0.815666
-0.677811
-0.508385
-0.315018
-0.1067
-0.0848756
-0.25118
-0.407252
-0.546634
-0.663413
-0.752452
-0.809613
-0.831975
-0.818026
-0.767825
-0.68309
-0.567215
-0.425179
-0.263349
-0.0891803
-0.0715222
-0.211628
-0.343018
-0.460205
-0.558197
-0.632683
-0.680231
-0.698458
-0.686191
-0.643574
-0.572137
-0.474784
-0.355715
-0.220247
-0.074571
-0.0602087
-0.178129
-0.288643
-0.387105
-0.469301
-0.531618
-0.571205
-0.586115
-0.575427
-0.539333
-0.479176
-0.397432
-0.297637
-0.184233
-0.0623681
-0.0506293
-0.14977
-0.242636
-0.325299
-0.394207
-0.446335
-0.479313
-0.491544
-0.482304
-0.4518
-0.401202
-0.332613
-0.249007
-0.154094
-0.0521587
-0.0425199
-0.125769
-0.203714
-0.273041
-0.330764
-0.374349
-0.401825
-0.411881
-0.403943
-0.37822
-0.335718
-0.278222
-0.208226
-0.128832
-0.0436032
-0.0356535
-0.105451
-0.170776
-0.22884
-0.277137
-0.313546
-0.336431
-0.344712
-0.337932
-0.316288
-0.280646
-0.23251
-0.173972
-0.10762
-0.0364208
-0.0298355
-0.0882369
-0.142879
-0.191421
-0.231762
-0.262135
-0.281177
-0.288
-0.282239
-0.264077
-0.234248
-0.19402
-0.145143
-0.0897731
-0.0303789
-0.0248989
-0.073633
-0.119218
-0.159695
-0.19331
-0.21859
-0.234405
-0.240026
-0.235158
-0.219965
-0.19507
-0.161535
-0.120821
-0.0747208
-0.0252837
-0.020701
-0.0612155
-0.0991037
-0.132733
-0.160645
-0.181616
-0.194712
-0.199334
-0.195245
-0.182589
-0.161891
-0.134036
-0.100238
-0.0619856
-0.0209734
-0.0171192
-0.0506216
-0.0819463
-0.109741
-0.132799
-0.150109
-0.160903
-0.164691
-0.16128
-0.150798
-0.13368
-0.110663
-0.0827489
-0.0511663
-0.0173118
-0.0140483
-0.0415395
-0.0672399
-0.0900379
-0.108943
-0.123126
-0.13196
-0.135044
-0.132226
-0.123613
-0.109565
-0.090689
-0.0678069
-0.0419244
-0.0141844
-0.0113976
-0.0337009
-0.0545486
-0.0730379
-0.0883646
-0.0998577
-0.107009
-0.109495
-0.107196
-0.100201
-0.0888034
-0.0734968
-0.0549482
-0.0339721
-0.0114935
-0.00908858
-0.0268728
-0.0434948
-0.0582338
-0.0704484
-0.0796039
-0.0852959
-0.0872686
-0.0854274
-0.0798442
-0.070756
-0.0585554
-0.0437748
-0.0270629
-0.00915581
-0.00705233
-0.0208518
-0.0337483
-0.0451824
-0.0546562
-0.0617549
-0.0661655
-0.0676902
-0.0662567
-0.0619215
-0.0548694
-0.0454054
-0.0339425
-0.0209836
-0.00709895
-0.00522801
-0.0154576
-0.0250173
-0.0334921
-0.0405129
-0.0457724
-0.0490387
-0.0501658
-0.0491005
-0.0458853
-0.0406574
-0.0336432
-0.0251489
-0.0155469
-0.00525961
-0.00356092
-0.0105284
-0.0170395
-0.0228114
-0.0275925
-0.0311737
-0.0333972
-0.0341637
-0.0334371
-0.0312465
-0.0276857
-0.0229088
-0.0171244
-0.010586
-0.00358129
-0.00200098
-0.00591623
-0.00957502
-0.0128184
-0.0155052
-0.0175178
-0.0187674
-0.0191982
-0.0187901
-0.0175592
-0.0155583
-0.0128739
-0.00962333
-0.00594901
-0.00201258
-0.00050124
-0.00148208
-0.00239892
-0.00321204
-0.00388607
-0.00439151
-0.004706
-0.00481535
-0.00471425
-0.00440658
-0.00390535
-0.0032322
-0.00241647
-0.001494
-0.000505453
0.000983476
0.00290762
0.00470517
0.00629779
0.00761599
0.00860213
0.00921292
0.0094214
0.00921813
0.00861164
0.00762817
0.00631052
0.00471625
0.00291514
0.000986139
0.00249791
0.0073852
0.0119515
0.0159981
0.0193486
0.0218563
0.0234111
0.023944
0.0234304
0.0218916
0.0193937
0.0160453
0.0119926
0.00741307
0.00250777
0.0040877
0.0120856
0.0195587
0.0261818
0.0316663
0.0357722
0.0383189
0.0391932
0.0383545
0.0358373
0.0317497
0.026269
0.0196346
0.0121372
0.00410594
0.00580072
0.0171505
0.0277559
0.037156
0.0449411
0.0507705
0.0543877
0.0556315
0.054444
0.0508735
0.0450728
0.0372938
0.0278759
0.0172319
0.00582952
0.00768846
0.0227321
0.03679
0.0492515
0.0595737
0.0673048
0.0721043
0.073758
0.0721881
0.0674579
0.0597696
0.0494564
0.0369684
0.0228532
0.00773129
0.0098076
0.0289981
0.0469325
0.0628324
0.0760052
0.0858745
0.0920051
0.0941225
0.0921264
0.0860961
0.0762888
0.0631289
0.0471907
0.0291734
0.00986959
0.0122216
0.0361362
0.0584876
0.0783065
0.0947303
0.10704
0.114692
0.117343
0.114865
0.107357
0.0951356
0.0787303
0.0588567
0.0363867
0.0123102
0.0150024
0.0443597
0.071801
0.0961379
0.116312
0.131439
0.140852
0.144124
0.141098
0.131889
0.116887
0.0967398
0.0723252
0.0447155
0.0151283
0.018233
0.0539134
0.0872698
0.11686
0.141397
0.159807
0.171274
0.175278
0.171622
0.160444
0.142212
0.117712
0.088012
0.0544172
0.0184112
0.0220089
0.0650807
0.105354
0.141089
0.170736
0.192995
0.206877
0.211751
0.20737
0.193895
0.171888
0.142294
0.106403
0.065793
0.0222608
0.0264414
0.0781913
0.126588
0.169547
0.205204
0.231998
0.248736
0.254648
0.249432
0.233271
0.206832
0.171249
0.12807
0.0791975
0.0267973
0.0316606
0.09363
0.151598
0.203073
0.245827
0.277985
0.29811
0.305271
0.299093
0.279781
0.248126
0.205477
0.153691
0.095051
0.0321633
0.0378184
0.111847
0.181115
0.242654
0.293806
0.332325
0.356485
0.365157
0.357873
0.334861
0.297052
0.246049
0.184071
0.113854
0.0385281
0.0450925
0.13337
0.215997
0.289449
0.350555
0.396635
0.425613
0.43612
0.427573
0.400216
0.355138
0.294241
0.220171
0.136203
0.0460946
0.0536912
0.158816
0.25725
0.344814
0.417737
0.472818
0.507564
0.520313
0.510331
0.477874
0.424207
0.35158
0.263143
0.162815
0.0551059
0.0638574
0.188906
0.306051
0.410343
0.497307
0.563121
0.604789
0.620289
0.608694
0.570257
0.50644
0.419896
0.31437
0.194552
0.0658548
0.0758749
0.224483
0.363776
0.487904
0.59156
0.670187
0.720181
0.739076
0.725694
0.680261
0.604454
0.501389
0.37552
0.232455
0.0786948
0.0900735
0.266529
0.43203
0.579679
0.703191
0.797132
0.857166
0.880272
0.864948
0.811353
0.721393
0.598716
0.44861
0.277783
0.0940547
0.106835
0.316179
0.512677
0.688213
0.835352
0.94762
1.01979
1.04815
1.03077
0.967693
0.861046
0.715088
0.536085
0.332069
0.112456
0.126601
0.374748
0.607877
0.816463
0.991724
1.12595
1.21282
1.24779
1.22833
1.15428
1.02799
0.854403
0.640926
0.397184
0.134538
0.149876
0.443744
0.720118
0.967849
1.17659
1.33715
1.44191
1.48521
1.46379
1.37714
1.22779
1.02141
0.76678
0.475425
0.161084
0.177235
0.524887
0.852245
1.14631
1.3949
1.58709
1.71365
1.76756
1.74453
1.64353
1.46717
1.22192
0.918131
0.569625
0.193063
0.209326
0.62012
1.00749
1.35633
1.65237
1.88261
2.03585
2.10333
2.07942
1.96225
1.75437
1.46309
1.10053
0.683306
0.231684
0.246873
0.731616
1.18948
1.60302
1.95553
2.23158
2.41758
2.50256
2.47904
2.34395
2.09949
1.75373
1.32087
0.820871
0.278459
0.290669
0.861771
1.40226
1.89207
2.31177
2.64306
2.86944
2.97712
2.95613
2.8016
2.51494
2.10486
1.58784
0.987881
0.335307
0.341572
1.01318
1.65022
2.22979
2.72939
3.12739
3.40372
3.541
3.52594
3.35097
3.01607
2.53023
1.9124
1.19142
0.404678
0.400484
1.18859
1.93807
2.62302
3.21757
3.69619
4.03454
4.21066
4.20676
4.0114
3.62202
3.04724
2.30856
1.44063
0.489749
0.468324
1.39083
2.27071
3.07903
3.78621
4.36238
4.778
5.00532
5.0205
4.80653
4.35668
3.67806
2.79446
1.74744
0.594689
0.545983
1.62265
2.65305
3.60523
4.44583
5.14003
5.65218
5.94725
5.99335
5.76544
5.25018
4.45119
3.39384
2.12767
0.725057
0.634265
1.88658
3.08969
4.20891
5.20707
6.04406
6.67708
7.06205
7.15644
6.92387
6.34067
5.40373
4.1382
2.60262
0.88841
0.733803
2.18468
3.58455
4.89663
6.08022
7.08969
7.87418
8.3786
8.54653
8.32573
7.67677
6.58441
5.07006
3.20161
1.09524
0.844948
2.5182
4.14036
5.67354
7.07424
8.29151
9.26572
9.92877
10.2065
10.0249
9.32075
8.0581
6.24781
3.9658
1.36046
0.967648
2.88718
4.75793
6.5424
8.19561
9.66207
10.8733
11.7464
12.1854
12.0868
11.3525
9.91203
7.75309
4.95452
1.70594
1.10129
3.29001
5.43538
7.50239
9.4466
11.2098
12.7156
13.8655
14.5376
14.5901
13.8746
12.2648
9.7025
6.25571
2.16483
1.24455
3.72294
6.1672
8.5476
10.8232
12.9362
14.8049
16.3163
17.3201
17.6266
17.0178
15.279
12.2661
8.00415
2.78951
1.39522
4.17954
6.94333
9.66551
12.3128
14.8323
17.1422
19.1196
20.5865
21.2988
20.9454
19.1781
15.6969
10.4142
3.66723
1.55016
4.65037
7.7483
10.8354
13.8909
16.8737
19.7103
22.2771
24.377
25.7109
25.8548
24.2671
20.3788
13.8409
4.95295
1.70514
5.12275
8.56076
12.0271
15.5194
19.0167
22.4657
25.7589
28.6992
30.9491
31.9666
30.9537
26.9007
18.8995
6.94554
1.85504
5.58093
9.35349
13.2007
17.1444
21.193
25.3292
29.4855
33.5007
37.0432
39.4881
39.7513
36.1641
26.7029
10.2833
1.99393
6.00667
10.0943
14.3074
18.6964
23.3084
28.1785
33.3099
38.6302
43.8993
48.5246
51.2224
49.5066
39.3384
16.5009
2.11555
6.38037
10.7479
15.2917
20.0934
25.2444
30.8462
37.003
43.7951
51.2021
58.8995
65.7582
68.7183
60.7717
29.7768
2.21376
6.68272
11.2789
16.0969
21.2477
26.8673
33.1284
40.2548
48.5329
58.3028
69.8565
83.0007
95.5038
98.2104
62.885
2.28317
6.8967
11.6557
16.671
22.0764
28.0444
34.8095
42.7065
52.2344
64.1646
79.7085
100.688
129.092
162.059
158.802
2.31978
7.00959
11.8546
16.9741
22.5143
28.6679
35.7044
44.0253
54.2674
67.5163
85.7854
113.219
159.509
251.064
473.013
2.32149
7.01466
11.8628
16.9848
22.5262
28.6781
35.7073
44.0097
54.2122
67.3813
85.4975
112.653
158.493
249.516
471.586
2.28834
6.91208
11.6807
16.7041
22.1141
28.079
34.8257
42.6744
52.0963
63.8105
78.9315
99.112
126.099
156.96
152.623
2.22249
6.70881
11.3218
16.1549
21.3164
26.9368
33.1788
40.2463
48.3884
57.8733
68.8515
80.8434
91.014
88.8454
42.6259
-19.3354
-15.763
-13.0841
-11.0093
-9.33593
-7.93994
-6.74316
-5.69381
-4.75582
-3.90286
-3.11487
-2.37592
-1.67282
-0.994193
-0.329836
-7.25359
-10.0548
-9.93156
-9.06439
-8.04358
-7.03761
-6.09207
-5.21404
-4.39831
-3.63607
-2.91788
-2.23462
-1.57779
-0.939411
-0.311935
-3.30088
-6.37734
-7.29553
-7.22613
-6.74085
-6.09326
-5.39404
-4.69095
-4.00363
-3.33867
-2.69659
-2.07495
-1.46993
-0.87705
-0.291529
-1.79625
-4.19864
-5.34526
-5.67662
-5.55077
-5.18472
-4.69863
-4.15689
-3.59337
-3.02536
-2.46109
-1.90373
-1.35364
-0.80957
-0.269408
-1.11809
-2.89195
-3.96111
-4.44456
-4.52746
-4.3595
-4.04184
-3.63792
-3.18619
-2.70943
-2.22076
-1.72744
-1.23314
-0.73937
-0.24635
-0.760982
-2.07462
-2.98365
-3.49063
-3.6783
-3.63822
-3.4449
-3.15211
-2.79638
-2.40174
-1.98364
-1.55182
-1.11228
-0.668641
-0.223068
-0.548536
-1.53824
-2.28539
-2.7584
-2.98729
-3.02331
-2.91701
-2.70998
-2.43357
-2.11033
-1.75604
-1.38154
-0.994246
-0.599251
-0.200175
-0.410642
-1.17031
-1.77746
-2.19569
-2.43018
-2.50721
-2.45906
-2.31601
-2.10325
-1.84046
-1.54245
-1.22013
-0.881554
-0.532691
-0.178165
-0.315538
-0.908264
-1.40072
-1.76056
-1.98239
-2.07801
-2.06699
-1.97042
-1.80766
-1.59504
-1.34571
-1.07001
-0.775998
-0.470058
-0.157407
-0.247062
-0.715845
-1.11607
-1.42125
-1.62224
-1.72286
-1.7343
-1.67078
-1.54668
-1.37511
-1.16729
-0.932589
-0.67872
-0.412082
-0.138151
-0.196183
-0.57103
-0.897413
-1.15426
-1.33179
-1.42961
-1.45365
-1.41319
-1.31867
-1.18032
-1.00752
-0.808475
-0.590301
-0.359166
-0.120539
-0.157469
-0.459866
-0.727034
-0.942362
-1.09668
-1.18759
-1.21779
-1.19313
-1.12106
-1.00946
-0.865961
-0.697637
-0.510879
-0.311451
-0.104627
-0.127464
-0.373161
-0.592649
-0.772822
-0.905581
-0.987717
-1.02
-1.00599
-0.950908
-0.860735
-0.741637
-0.599595
-0.44025
-0.268868
-0.0904018
-0.103867
-0.304655
-0.48556
-0.636201