/*--------------------------------*- C++ -*----------------------------------*\
| =========                 |                                                 |
| \\      /  F ield         | OpenFOAM: The Open Source CFD Toolbox           |
|  \\    /   O peration     | Version:  5.x                                   |
|   \\  /    A nd           | Web:      www.OpenFOAM.org                      |
|    \\/     M anipulation  |                                                 |
\*---------------------------------------------------------------------------*/
FoamFile
{
    version     2.0;
    format      ascii;
    class       volScalarField;
    location    "9.8";
    object      T;
}
// * * * * * * * * * * * * * * * * * * * * * * * * * * * * * * * * * * * * * //

dimensions      [0 0 0 1 0 0 0];

internalField   nonuniform List<scalar> 
6300
(
10.2304
10.6933
11.1625
11.642
12.1358
12.6473
13.1798
13.7356
14.3167
14.9241
15.5576
16.216
16.897
17.5969
18.311
10.2283
10.687
11.1521
11.6278
12.118
12.6264
13.1562
13.7102
14.2904
14.8978
15.5325
16.1934
16.8779
17.5824
18.3021
10.224
10.6742
11.1311
11.5989
12.0819
12.5839
13.1085
13.6586
14.2367
14.8441
15.4811
16.1468
16.8386
17.5527
18.2836
10.2175
10.6548
11.0991
11.5549
12.0267
12.5188
13.035
13.579
14.1535
14.7606
15.401
16.0739
16.777
17.5059
18.2545
10.2087
10.6285
11.0556
11.4949
11.9513
12.4294
12.9337
13.4686
14.0377
14.6437
15.2881
15.9708
16.6893
17.4391
18.2129
10.1974
10.5948
10.9998
11.4178
11.854
12.3136
12.8019
13.3241
13.8848
14.4882
15.1368
15.8315
16.5703
17.3481
18.1562
10.1835
10.5533
10.9311
11.3225
11.7332
12.169
12.6361
13.1408
13.6893
14.2873
14.9394
15.648
16.4122
17.2267
18.0806
10.167
10.5038
10.8489
11.2079
11.5872
11.993
12.4326
12.9136
13.4441
14.0322
14.6852
15.4086
16.2037
17.0655
17.9807
10.1477
10.446
10.7525
11.0732
11.4144
11.7833
12.1877
12.6369
13.1412
13.7119
14.3606
15.0974
15.9284
16.8507
17.8484
10.1257
10.3798
10.642
10.9179
11.214
11.5378
11.8979
12.305
12.7719
13.3136
13.9476
14.692
15.5614
16.5602
17.6713
10.1011
10.3057
10.5176
10.7423
10.986
11.2559
11.5611
11.9134
12.3275
12.8229
13.4243
14.1613
15.0651
16.1573
17.4278
10.074
10.2241
10.3804
10.5478
10.7316
10.9385
11.1773
11.4597
11.8017
12.2261
12.7651
13.4637
14.3801
15.5758
17.0764
10.0449
10.1362
10.2323
10.3368
10.4539
10.5892
10.7499
10.9463
11.1935
11.5145
11.9463
12.5482
13.4156
14.6893
16.5194
10.0142
10.0435
10.0757
10.1131
10.1582
10.2145
10.2868
10.3821
10.5112
10.6923
10.9572
11.367
12.0446
13.2464
15.4688
9.98255
9.9479
9.91404
9.88154
9.85113
9.82373
9.80066
9.78397
9.77701
9.78594
9.82322
9.91779
10.1494
10.7827
12.8652
18.9737
19.5783
20.1816
20.7798
21.3697
21.9478
22.5114
23.058
23.5852
24.0913
24.5748
25.0345
25.4693
25.8786
26.2618
26.6185
26.9483
27.2512
27.527
27.7758
27.9976
28.1927
28.3612
28.5035
28.6198
28.7105
28.7761
28.817
28.8337
28.8267
28.7965
28.7436
28.6685
28.5718
28.4539
28.3155
28.157
27.9789
27.7818
27.5662
27.3326
27.0815
26.8136
26.5294
26.2293
25.9139
25.5838
25.2395
24.8814
24.51
24.1257
23.7289
23.32
22.8994
22.4676
22.0248
21.5715
21.1081
20.6351
20.1529
19.662
19.1629
18.656
18.1419
17.6211
17.094
16.5613
16.0235
15.4813
14.9353
14.3863
13.8353
13.283
12.7307
12.1795
11.6305
11.0852
10.5448
10.0108
9.48452
8.96735
8.46063
7.96562
7.48351
7.01538
6.56215
6.12461
5.70335
5.29877
4.91105
18.9703
19.5801
20.1885
20.7917
21.3862
21.9685
22.5358
23.0854
23.6153
24.1236
24.6088
25.0698
25.5058
25.9159
26.2996
26.6567
26.9868
27.2897
27.5655
27.8142
28.0358
28.2305
28.3986
28.5404
28.6561
28.7463
28.8112
28.8515
28.8674
28.8597
28.8287
28.7751
28.6992
28.6017
28.4831
28.344
28.1847
28.0059
27.808
27.5916
27.3572
27.1054
26.8367
26.5517
26.2508
25.9348
25.6039
25.2589
24.9002
24.5281
24.1432
23.7459
23.3365
22.9153
22.4829
22.0396
21.5857
21.1217
20.648
20.1651
19.6735
19.1737
18.6661
18.1513
17.6297
17.1019
16.5684
16.0297
15.4864
14.9393
14.3891
13.8367
13.2829
12.729
12.176
11.6251
11.0779
10.5355
9.9995
9.47124
8.95216
8.44361
7.94691
7.46326
6.99379
6.53945
6.10106
5.67924
5.27439
4.88672
18.9632
19.5837
20.2027
20.816
21.4198
22.0105
22.5851
23.1411
23.6761
24.1887
24.6773
25.141
25.579
25.9906
26.3755
26.7333
27.0639
27.367
27.6427
27.8911
28.1122
28.3062
28.4735
28.6143
28.7289
28.8178
28.8815
28.9203
28.9349
28.9256
28.8932
28.838
28.7606
28.6616
28.5415
28.4008
28.2401
28.0598
27.8604
27.6425
27.4066
27.1532
26.8829
26.5963
26.2939
25.9763
25.6441
25.2977
24.9376
24.5643
24.1783
23.7798
23.3693
22.9471
22.5136
22.0691
21.614
21.1487
20.6738
20.1895
19.6966
19.1953
18.6863
18.1701
17.647
17.1177
16.5825
16.0421
15.4969
14.9476
14.3949
13.8397
13.2829
12.7256
12.1691
11.6145
11.0633
10.5169
9.97683
9.44459
8.92163
8.40939
7.90925
7.42248
6.95028
6.49368
6.05355
5.63058
5.2252
4.83763
18.9519
19.5892
20.2247
20.8538
21.4719
22.0755
22.6612
23.2264
23.7691
24.2878
24.7813
25.2488
25.6897
26.1035
26.49
26.8488
27.18
27.4833
27.7589
28.0068
28.2271
28.4201
28.5861
28.7253
28.8383
28.9253
28.987
29.0237
29.036
29.0246
28.9898
28.9323
28.8527
28.7515
28.6291
28.4862
28.3232
28.1406
27.939
27.7188
27.4806
27.2248
26.9522
26.6632
26.3584
26.0386
25.7041
25.3557
24.9937
24.6186
24.2308
23.8308
23.4187
22.9949
22.5597
22.1135
21.6566
21.1895
20.7125
20.2262
19.7312
19.2278
18.7167
18.1983
17.6732
17.1416
16.6041
16.061
15.513
14.9604
14.4041
13.8448
13.2834
12.7211
12.1591
11.5987
11.0415
10.489
9.94275
9.4044
8.87551
8.35761
7.85218
7.36061
6.88419
6.42407
5.98125
5.55647
5.15028
4.76289
18.9359
19.597
20.2558
20.9068
21.5449
22.1659
22.7663
23.3438
23.8964
24.4229
24.9225
25.3947
25.8391
26.2555
26.6438
27.0039
27.3357
27.6392
27.9145
28.1617
28.381
28.5725
28.7367
28.8739
28.9845
29.069
29.1279
29.1617
29.1711
29.1566
29.1187
29.0582
28.9755
28.8712
28.7458
28.6
28.434
28.2485
28.0439
27.8207
27.5793
27.3204
27.0445
26.7523
26.4444
26.1214
25.784
25.4327
25.0681
24.6907
24.3007
23.8986
23.4845
23.0587
22.6214
22.1729
21.7136
21.2439
20.7643
20.2752
19.7773
19.2711
18.7572
18.2361
17.7081
17.1737
16.6332
16.0869
15.5352
14.9785
14.4174
13.8526
13.285
12.7159
12.1464
11.5782
11.0128
10.4518
9.89716
9.35044
8.81342
8.28774
7.77503
7.2768
6.7945
6.32946
5.88283
5.45553
5.04819
4.66108
18.9141
19.6077
20.2981
20.9783
21.6423
22.2855
22.9043
23.4966
24.0609
24.5964
25.1028
25.5801
26.0284
26.4476
26.8379
27.1993
27.5317
27.8354
28.1102
28.3565
28.5743
28.7639
28.9257
29.0602
29.1678
29.249
29.3044
29.3346
29.3401
29.3217
29.2799
29.2154
29.1289
29.0208
28.8917
28.7422
28.5726
28.3835
28.1752
27.9482
27.7029
27.44
27.16
26.8636
26.5515
26.2245
25.8833
25.5285
25.1607
24.7804
24.3878
23.9832
23.5667
23.1386
22.6988
22.2476
21.7853
21.3124
20.8293
20.3366
19.8351
19.3253
18.8079
18.2834
17.7521
17.2144
16.6705
16.1204
15.5644
15.0027
14.4357
13.8641
13.2888
12.7109
12.1319
11.5535
10.9774
10.4056
9.83991
9.28238
8.73483
8.19907
7.67687
7.16992
6.67986
6.20824
5.75648
5.32575
4.91687
4.53021
18.8856
19.6226
20.3547
21.0728
21.7695
22.4398
23.0804
23.6894
24.2664
24.8114
25.3247
25.8071
26.2591
26.681
27.0732
27.4359
27.7689
28.0726
28.3468
28.5917
28.8077
28.9949
29.1538
29.2849
29.3887
29.4658
29.5168
29.5424
29.5432
29.52
29.4734
29.4041
29.3128
29.2001
29.0666
28.9128
28.739
28.5456
28.333
28.1015
27.8515
27.5837
27.2986
26.997
26.6798
26.3477
26.0018
25.6427
25.271
24.8873
24.4918
24.0845
23.6655
23.2348
22.7922
22.3379
21.872
21.3951
20.9077
20.4105
19.9044
19.3901
18.8685
18.34
17.8051
17.2638
16.7162
16.1622
15.6015
15.0342
14.4605
13.8808
13.2959
12.7073
12.1164
11.5252
10.9357
10.3502
9.77083
9.19979
8.63911
8.09076
7.55664
7.03861
6.53854
6.05833
5.59975
5.16442
4.75348
4.36747
18.8492
19.6445
20.4314
21.1976
21.9345
22.6366
23.3014
23.9282
24.5178
25.0715
25.5909
26.0776
26.5327
26.9569
27.3508
27.7146
28.0482
28.3517
28.6251
28.8684
29.082
29.2662
29.4215
29.5484
29.6476
29.7197
29.7654
29.7854
29.7805
29.7515
29.699
29.624
29.5271
29.409
29.2704
29.1116
28.9331
28.735
28.5175
28.2809
28.0255
27.7518
27.4605
27.1525
26.8289
26.4906
26.1388
25.7745
25.3983
25.0108
24.6122
24.2023
23.7809
23.3477
22.9022
22.4444
21.9744
21.4926
20.9998
20.4969
19.985
19.4653
18.9386
18.4057
17.8668
17.3221
16.771
16.2132
15.648
15.0749
14.4936
13.9045
13.3084
12.7067
12.1012
11.4941
10.8881
10.2858
9.68963
9.10212
8.52549
7.96182
7.4131
6.88131
6.36855
5.87713
5.40948
4.96787
4.55411
4.16906
18.804
19.6785
20.5374
21.3644
22.1492
22.887
23.5768
24.2203
24.8204
25.3806
25.904
26.3932
26.8502
27.2761
27.6714
28.0362
28.3704
28.6738
28.9461
29.1875
29.3983
29.5787
29.7295
29.8513
29.945
30.0111
30.0505
30.0639
30.0522
30.0162
29.9567
29.8748
29.7714
29.6471
29.5027
29.3385
29.1549
28.9517
28.7291
28.4869
28.2254
27.9448
27.6461
27.3302
26.9985
26.6525
26.2935
25.9229
25.5416
25.15
24.7484
24.3363
23.913
23.4777
23.0296
22.5681
22.0933
21.6056
21.106
20.5959
20.0767
19.5502
19.0175
18.4796
17.9368
17.389
16.8353
16.2747
15.7056
15.1269
14.5378
13.9382
13.3288
12.7113
12.0879
11.4614
10.8352
10.2123
9.59583
8.98863
8.39306
7.81124
7.24507
6.69648
6.16772
5.66163
5.18159
4.73114
4.31333
3.92967
18.7503
19.7348
20.6892
21.5917
22.4314
23.2061
23.9186
24.5745
25.1802
25.7423
26.2659
26.755
27.2122
27.6388
28.0354
28.4016
28.7367
29.0401
29.3113
29.5504
29.7576
29.9335
30.0788
30.1945
30.2815
30.3406
30.3725
30.3782
30.3584
30.314
30.2463
30.1563
30.0451
29.9137
29.7629
29.593
29.4042
29.1961
28.9684
28.7204
28.4521
28.1636
27.8559
27.5302
27.1884
26.8325
26.4645
26.0863
25.699
25.3033
24.8992
24.4859
24.062
23.6258
23.1758
22.7107
22.2304
21.7354
21.2271
20.7075
20.1788
19.6435
19.1035
18.5602
18.0139
17.4641
16.9094
16.3479
15.7768
15.1936
14.5967
13.9856
13.3608
12.7242
12.0788
11.4283
10.7771
10.1293
9.48859
8.85822
8.24069
7.63797
7.05161
6.48297
5.93412
5.40854
4.911
4.44733
4.02328
3.64173
18.6912
19.8339
20.9157
21.9089
22.8069
23.6145
24.3417
25.0004
25.6026
26.1589
26.677
27.1623
27.6176
28.0445
28.4428
28.8112
29.1481
29.4522
29.7224
29.9588
30.1616
30.3317
30.4703
30.5785
30.6576
30.7086
30.732
30.7287
30.6994
30.6452
30.5674
30.4677
30.3474
30.2079
30.05
29.8742
29.6806
29.4685
29.2364
28.9828
28.7072
28.4096
28.091
27.753
27.3982
27.0293
26.6499
26.2622
25.8682
25.4684
25.0629
24.6502
24.2283
23.7936
23.3431
22.8749
22.3882
21.8841
21.3642
20.8317
20.2899
19.7431
19.1941
18.6448
18.0955
17.5457
16.9932
16.4346
15.8651
15.2798
14.676
14.0524
13.4096
12.7497
12.0768
11.3961
10.7139
10.0357
9.36638
8.70914
8.06687
7.44103
6.8325
6.24084
5.6669
5.11499
4.59153
4.10642
3.67194
3.29391
18.6404
20.0206
21.2695
22.3628
23.3124
24.1381
24.8632
25.5073
26.0908
26.6303
27.1352
27.6123
28.0637
28.4912
28.8925
29.2659
29.6066
29.9125
30.1819
30.415
30.6122
30.775
30.9049
31.004
31.074
31.1157
31.1296
31.1161
31.0757
31.0098
30.9198
30.8083
30.677
30.528
30.3622
30.1808
29.9833
29.7691
29.5347
29.2765
28.9937
28.6854
28.3537
27.9996
27.6276
27.2411
26.8466
26.4469
26.0452
25.6415
25.2364
24.8275
24.4124
23.984
23.5356
23.0651
22.5709
22.0551
21.5192
20.9688
20.4081
19.8457
19.2847
18.729
18.1777
17.6311
17.0855
16.5369
15.9757
15.3925
14.7838
14.1465
13.4827
12.7936
12.0859
11.3657
10.6448
9.9294
9.22658
8.53838
7.86924
7.21907
6.58898
5.97311
5.36787
4.78041
4.21675
3.69256
3.23925
2.86833
18.649
20.3961
21.8472
23.0234
23.9959
24.8064
25.501
26.1013
26.6418
27.151
27.6329
28.0988
28.544
28.975
29.3822
29.7674
30.1145
30.4251
30.6929
30.9225
31.1118
31.2653
31.3835
31.4708
31.5306
31.5624
31.5661
31.5416
31.4883
31.4085
31.3025
31.1768
31.0316
30.872
30.6965
30.5099
30.3097
30.0984
29.8668
29.6052
29.3161
28.9947
28.6479
28.2717
27.8774
27.464
27.0502
26.634
26.2247
25.8161
25.4148
25.0135
24.6151
24.2027
23.7595
23.2892
22.7842
22.2548
21.6948
21.1201
20.5286
19.9456
19.3676
18.8064
18.2528
17.7147
17.1818
16.657
16.1178
15.5417
14.9323
14.2785
13.5922
12.8639
12.1129
11.3359
10.5679
9.80472
9.06554
8.34002
7.64416
6.96806
6.32486
5.68995
5.04315
4.41147
3.78508
3.17654
2.68785
2.33499
18.9295
21.1978
22.8203
23.9772
24.9123
25.6413
26.2741
26.781
27.2375
27.7108
28.1531
28.615
29.0441
29.4927
29.903
30.3232
30.6746
30.9989
31.2587
31.4874
31.6625
31.8058
31.9062
31.9768
32.027
32.0491
32.0428
32.0083
31.9387
31.8446
31.713
31.5731
31.4064
31.2382
31.0463
30.8583
30.6514
30.4564
30.2417
29.9729
29.6847
29.3401
28.984
28.5694
28.1543
27.6869
27.257
26.8108
26.4028
25.9799
25.5929
25.1949
24.8375
24.4655
24.022
23.563
23.0323
22.498
21.8913
21.2952
20.6364
20.0382
19.4261
18.8724
18.3054
17.7906
17.266
16.7975
16.313
15.7384
15.1444
14.4572
13.7619
12.9668
12.1771
11.293
10.4837
9.64536
8.88469
8.09883
7.39048
6.66957
6.04871
5.42383
4.69657
4.03485
3.32763
2.4879
1.94082
1.64131
20.4737
22.9291
24.4633
25.2502
26.1253
26.6141
27.2284
27.5327
27.8088
28.3149
28.6447
29.1778
29.5159
30.0652
30.4089
30.9779
31.273
31.6651
31.8689
32.1288
32.2587
32.4077
32.4712
32.5115
32.5635
32.576
32.5596
32.5249
32.4237
32.3341
32.135
32.0074
31.7827
31.6382
31.3897
31.2336
30.9753
30.8425
30.6937
30.3683
30.1338
29.7016
29.4038
28.8674
28.5061
27.8554
27.487
26.9319
26.6017
26.0917
25.7862
25.3173
25.0806
24.8309
24.3062
23.9395
23.2854
22.845
22.0722
21.5603
20.6568
20.1501
19.4003
18.9573
18.2826
17.8802
17.2693
16.9608
16.6377
15.9629
15.4903
14.6475
14.0748
13.0618
12.377
11.1423
10.441
9.37405
8.73995
7.74589
7.15476
6.22692
5.77822
5.30504
4.25554
3.72367
3.06094
1.37778
0.837277
0.693296
4.50308
4.08189
3.68376
3.30753
2.95176
2.61479
2.29485
1.99005
1.69852
1.41837
1.14774
0.884805
0.627806
0.375012
0.124726
4.47913
4.05877
3.66181
3.28702
2.9329
2.59773
2.27965
1.97676
1.68712
1.40883
1.14001
0.878857
0.623592
0.372497
0.12389
4.43084
4.01216
3.61761
3.24579
2.89505
2.56352
2.24923
1.95017
1.66434
1.38979
1.12461
0.867003
0.615195
0.367489
0.122226
4.35736
3.94137
3.5506
3.18343
2.83794
2.51204
2.20355
1.91033
1.63026
1.36134
1.10164
0.849332
0.602687
0.360031
0.119748
4.25742
3.8453
3.45994
3.09933
2.76119
2.44308
2.14257
1.85729
1.58501
1.32364
1.07124
0.825988
0.586179
0.350195
0.116481
4.12916
3.72241
3.34445
2.99272
2.66437
2.3565
2.06632
1.79122
1.52882
1.27696
1.03368
0.797187
0.565836
0.338083
0.112459
3.97007
3.57068
3.20269
2.86268
2.54702
2.25219
1.97495
1.71242
1.46207
1.22168
0.98931
0.763231
0.541885
0.323835
0.107731
3.77676
3.38749
3.03289
2.70823
2.40879
2.13024
1.86884
1.62142
1.38533
1.15836
0.938633
0.72453
0.514628
0.307637
0.102357
3.54469
3.16957
2.8331
2.52853
2.24963
1.99112
1.74872
1.51905
1.29945
1.08778
0.882314
0.681618
0.484452
0.289721
0.096417
3.26771
2.91294
2.60135
2.32312
2.07005
1.83585
1.61584
1.4066
1.20561
1.01097
0.821213
0.635162
0.451835
0.270374
0.0900049
2.93744
2.61308
2.3362
2.09249
1.87157
1.66636
1.47216
1.28588
1.1054
0.929262
0.756393
0.585974
0.417342
0.249931
0.0832322
2.5426
2.2657
2.03784
1.83906
1.65735
1.48582
1.32055
1.15933
1.00083
0.844269
0.689109
0.534988
0.381621
0.228771
0.0762238
2.06928
1.86924
1.71035
1.56852
1.43292
1.29898
1.16488
1.03003
0.894323
0.757855
0.620775
0.483238
0.345377
0.207305
0.0691144
1.50611
1.4316
1.36578
1.29172
1.20682
1.11227
1.00994
0.901567
0.788558
0.672039
0.55289
0.431804
0.309339
0.185954
0.0620419
0.869934
0.985235
1.02943
1.02574
0.990356
0.933326
0.861039
0.777721
0.686291
0.588843
0.486931
0.381742
0.274216
0.165127
0.0551399
9.95331
9.85954
9.76454
9.66738
9.56688
9.46151
9.34915
9.2267
9.08936
8.9291
8.73112
8.46368
8.04377
7.19585
4.77882
9.927
9.78005
9.63014
9.47499
9.31183
9.13704
8.94565
8.7304
8.48009
8.17632
7.78648
7.24759
6.42675
5.02465
2.38628
9.90136
9.70262
9.49936
9.28814
9.06483
8.82409
8.5587
8.25841
7.90791
7.48327
6.94531
6.22725
5.21336
3.71193
1.47579
9.87673
9.62831
9.37409
9.10969
8.82992
8.52822
8.19597
7.82126
7.38718
6.86888
6.22916
5.41233
4.33848
2.90941
1.06214
9.85341
9.55803
9.25588
8.9419
8.61021
8.25357
7.86269
7.42533
6.92492
6.33878
5.63599
4.77587
3.71026
2.3973
0.840837
9.83163
9.49246
9.14587
8.78641
8.40783
8.00266
7.56167
7.07316
6.52218
5.88967
5.15204
4.2821
3.25379
2.05427
0.706486
9.81152
9.43203
9.04478
8.64417
8.2239
7.77663
7.29363
6.76435
6.17602
5.51355
4.75996
3.8983
2.91619
1.81421
0.617398
9.79318
9.37698
8.95297
8.51559
8.0587
7.5754
7.05773
6.49653
5.88134
5.20069
4.44291
3.59813
2.66182
1.63999
0.554687
9.77662
9.32735
8.87045
8.40054
7.91184
7.39802
6.85204
6.26618
5.63211
4.94137
4.18626
3.36152
2.46683
1.50986
0.508687
9.76181
9.28302
8.79695
8.29853
7.78243
7.24296
6.67405
6.0693
5.42223
4.72674
3.97795
3.17347
2.31508
1.41041
0.47394
9.74867
9.24375
8.73201
8.20878
7.66923
7.10834
6.52093
5.9018
5.24597
4.54912
3.80831
3.02287
2.19546
1.33304
0.447117
9.7371
9.20922
8.67506
8.13037
7.57085
6.99212
6.38983
5.75978
5.09818
4.40203
3.66967
2.90139
2.10015
1.27198
0.426068
9.72698
9.17904
8.6254
8.06226
7.4858
6.89226
6.27801
5.63966
4.97437
4.28008
3.55595
2.80281
2.02352
1.22326
0.409336
9.71817
9.15282
8.58235
8.00339
7.41261
6.80679
6.1829
5.53825
4.87069
4.17884
3.46238
2.72237
1.96147
1.18402
0.395901
9.71055
9.13014
8.54519
7.95273
7.34987
6.73386
6.1022
5.45275
4.78388
4.09468
3.38516
2.65644
1.9109
1.15218
0.385027
9.70398
9.11061
8.51325
7.90929
7.29625
6.67179
6.03386
5.38073
4.71118
4.02463
3.32127
2.60219
1.86949
1.12619
0.376167
9.69834
9.09386
8.48588
7.87216
7.25055
6.61909
5.97606
5.3201
4.65029
3.96625
3.26828
2.55741
1.83543
1.10488
0.368911
9.69352
9.07953
8.46251
7.84051
7.21169
6.57441
5.92724
5.2691
4.59927
3.91755
3.22426
2.52033
1.80732
1.08733
0.362942
9.68939
9.0673
8.44259
7.81358
7.17871
6.53659
5.88605
5.2262
4.55652
3.87688
3.18761
2.48957
1.78405
1.07282
0.358015
9.68589
9.0569
8.42565
7.79072
7.15076
6.50462
5.85131
5.19013
4.52067
3.84288
3.15707
2.46399
1.76474
1.06081
0.353935
9.6829
9.04806
8.41128
7.77134
7.12712
6.47762
5.82204
5.15982
4.49062
3.81444
3.13159
2.44269
1.74869
1.05083
0.35055
9.68037
9.04057
8.3991
7.75494
7.10713
6.45484
5.79739
5.13433
4.46541
3.79064
3.1103
2.42492
1.73532
1.04253
0.347735
9.67823
9.03422
8.3888
7.74108
7.09025
6.43563
5.77664
5.11292
4.44427
3.77071
3.0925
2.41009
1.72418
1.03561
0.34539
9.67642
9.02886
8.38009
7.72937
7.07602
6.41944
5.75918
5.09493
4.42653
3.75402
3.07761
2.3977
1.71487
1.02984
0.343435
9.67489
9.02432
8.37274
7.71949
7.06402
6.40581
5.7445
5.07981
4.41165
3.74002
3.06514
2.38734
1.7071
1.02502
0.341802
9.6736
9.0205
8.36654
7.71117
7.05391
6.39434
5.73215
5.06712
4.39916
3.7283
3.0547
2.37867
1.7006
1.02099
0.340438
9.67251
9.01728
8.36131
7.70416
7.0454
6.38469
5.72177
5.05646
4.38868
3.71847
3.04596
2.37141
1.69516
1.01763
0.339298
9.67159
9.01456
8.35691
7.69825
7.03824
6.37659
5.71306
5.04752
4.3799
3.71023
3.03864
2.36534
1.69061
1.01481
0.338344
9.67082
9.01228
8.35321
7.69329
7.03223
6.36978
5.70574
5.04001
4.37253
3.70333
3.03251
2.36026
1.6868
1.01245
0.337547
9.67017
9.01036
8.3501
7.68913
7.02718
6.36406
5.69961
5.03372
4.36636
3.69755
3.02738
2.356
1.68362
1.01048
0.33688
9.66963
9.00875
8.3475
7.68563
7.02295
6.35927
5.69447
5.02845
4.3612
3.69272
3.02309
2.35245
1.68096
1.00884
0.336323
9.66917
9.0074
8.34531
7.68271
7.01941
6.35526
5.69017
5.02405
4.35688
3.68868
3.01951
2.34948
1.67874
1.00746
0.335858
9.66879
9.00627
8.34349
7.68026
7.01645
6.35192
5.68658
5.02037
4.35328
3.68531
3.01652
2.347
1.67689
1.00632
0.335471
9.66847
9.00534
8.34197
7.67823
7.01399
6.34913
5.6836
5.01732
4.35028
3.68251
3.01404
2.34495
1.67535
1.00537
0.335149
9.66821
9.00456
8.34071
7.67654
7.01195
6.34683
5.68112
5.01479
4.34781
3.68019
3.01198
2.34325
1.67408
1.00458
0.334883
9.66799
9.00392
8.33967
7.67515
7.01027
6.34493
5.67909
5.01271
4.34577
3.67828
3.01029
2.34185
1.67303
1.00393
0.334664
9.66782
9.0034
8.33883
7.67402
7.0089
6.34338
5.67743
5.01101
4.34411
3.67673
3.00892
2.34071
1.67218
1.00341
0.334486
9.66767
9.00298
8.33815
7.67311
7.0078
6.34214
5.6761
5.00965
4.34277
3.67548
3.00781
2.33979
1.6715
1.00298
0.334343
9.66756
9.00265
8.33762
7.6724
7.00693
6.34116
5.67505
5.00858
4.34172
3.6745
3.00694
2.33908
1.67096
1.00265
0.334231
9.66748
9.0024
8.33721
7.67186
7.00628
6.34042
5.67426
5.00777
4.34093
3.67376
3.00629
2.33853
1.67055
1.0024
0.334146
9.66742
9.00222
8.33693
7.67148
7.00582
6.3399
5.6737
5.00719
4.34037
3.67324
3.00582
2.33815
1.67026
1.00222
0.334086
9.66738
9.00211
8.33675
7.67124
7.00553
6.33958
5.67335
5.00684
4.34002
3.67291
3.00553
2.33791
1.67009
1.00211
0.334048
9.66737
9.00207
8.33667
7.67114
7.00541
6.33944
5.67321
5.00669
4.33987
3.67278
3.00541
2.33781
1.67001
1.00207
0.334033
9.66737
9.00208
8.3367
7.67118
7.00545
6.33949
5.67326
5.00674
4.33993
3.67283
3.00546
2.33785
1.67004
1.00208
0.334038
9.6674
9.00216
8.33683
7.67135
7.00566
6.33973
5.67351
5.007
4.34018
3.67306
3.00566
2.33802
1.67017
1.00216
0.334065
9.66745
9.00231
8.33707
7.67166
7.00604
6.34016
5.67397
5.00747
4.34064
3.67349
3.00605
2.33833
1.6704
1.00231
0.334115
9.66752
9.00252
8.33741
7.67213
7.00661
6.34079
5.67466
5.00817
4.34132
3.67413
3.00661
2.3388
1.67075
1.00253
0.334188
9.66762
9.00281
8.33789
7.67276
7.00737
6.34166
5.67558
5.00911
4.34225
3.675
3.00738
2.33944
1.67123
1.00282
0.334287
9.66775
9.00319
8.3385
7.67358
7.00836
6.34277
5.67677
5.01034
4.34345
3.67611
3.00837
2.34026
1.67184
1.0032
0.334415
9.66791
9.00366
8.33926
7.6746
7.0096
6.34417
5.67828
5.01187
4.34495
3.67752
3.00961
2.34129
1.67261
1.00367
0.334576
9.6681
9.00425
8.34021
7.67587
7.01113
6.3459
5.68013
5.01377
4.34681
3.67925
3.01115
2.34256
1.67356
1.00426
0.334775
9.66834
9.00496
8.34136
7.67741
7.01299
6.34801
5.68239
5.01608
4.34907
3.68137
3.01303
2.34411
1.67472
1.00498
0.335018
9.66864
9.00582
8.34275
7.67928
7.01525
6.35057
5.68513
5.01888
4.35181
3.68394
3.0153
2.34599
1.67613
1.00585
0.335313
9.66899
9.00686
8.34443
7.68152
7.01797
6.35364
5.68842
5.02226
4.35512
3.68703
3.01804
2.34826
1.67783
1.0069
0.335667
9.66941
9.0081
8.34644
7.68422
7.02124
6.35733
5.69238
5.02631
4.35909
3.69074
3.02133
2.35099
1.67987
1.00816
0.336094
9.66991
9.00959
8.34885
7.68744
7.02514
6.36174
5.69711
5.03116
4.36384
3.69518
3.02527
2.35425
1.68231
1.00967
0.336605
9.67051
9.01136
8.35172
7.69129
7.0298
6.36701
5.70277
5.03695
4.36952
3.7005
3.02999
2.35816
1.68523
1.01148
0.337217
9.67122
9.01347
8.35514
7.69588
7.03535
6.3733
5.70951
5.04386
4.3763
3.70685
3.03562
2.36283
1.68872
1.01364
0.337949
9.67207
9.01598
8.35921
7.70133
7.04197
6.38079
5.71755
5.05211
4.38439
3.71442
3.04235
2.3684
1.6929
1.01622
0.338823
9.67308
9.01897
8.36406
7.70783
7.04984
6.3897
5.72713
5.06193
4.39403
3.72346
3.05038
2.37506
1.69788
1.01931
0.339868
9.67428
9.02252
8.36981
7.71554
7.0592
6.40031
5.73853
5.07364
4.40553
3.73424
3.05996
2.38301
1.70384
1.023
0.341116
9.6757
9.02673
8.37664
7.72471
7.07032
6.41292
5.7521
5.08758
4.41923
3.7471
3.0714
2.39251
1.71096
1.0274
0.342609
9.67739
9.03173
8.38474
7.73558
7.08352
6.42791
5.76824
5.10417
4.43556
3.76244
3.08505
2.40385
1.71946
1.03267
0.344394
9.67939
9.03764
8.39433
7.74848
7.09919
6.44571
5.78742
5.12392
4.45501
3.78073
3.10135
2.41741
1.72964
1.03898
0.34653
9.68175
9.04465
8.4057
7.76376
7.11778
6.46684
5.81023
5.14743
4.4782
3.80256
3.12083
2.43362
1.74181
1.04653
0.349089
9.68455
9.05292
8.41914
7.78185
7.1398
6.49192
5.83733
5.17541
4.50584
3.82862
3.14411
2.45302
1.7564
1.05559
0.352158
9.68785
9.06269
8.43502
7.80324
7.16588
6.52166
5.86952
5.2087
4.53878
3.85974
3.17196
2.47627
1.7739
1.06645
0.355844
9.69173
9.07421
8.45375
7.8285
7.19672
6.55689
5.90773
5.2483
4.57806
3.89692
3.2053
2.50415
1.79491
1.07952
0.360278
9.6963
9.08776
8.47582
7.85829
7.23316
6.5986
5.95307
5.29541
4.6249
3.94138
3.24527
2.53764
1.8202
1.09527
0.365624
9.70166
9.10367
8.50175
7.89337
7.27614
6.64792
6.00683
5.35143
4.68079
3.99459
3.29323
2.57793
1.85069
1.11428
0.372085
9.70794
9.12232
8.53217
7.93458
7.32677
6.70616
6.07052
5.41804
4.74747
4.05831
3.35088
2.62652
1.88755
1.1373
0.379917
9.71527
9.1441
8.56776
7.98289
7.38627
6.77485
6.14591
5.4972
4.82707
4.1347
3.42029
2.68524
1.93225
1.16529
0.389446
9.7238
9.16946
8.60926
8.03937
7.45604
6.85569
6.23503
5.59123
4.92211
4.2264
3.50403
2.75642
1.98664
1.19944
0.401093
9.73369
9.19888
8.6575
8.10518
7.53763
6.95063
6.34022
5.70285
5.03561
4.33659
3.6053
2.843
2.05311
1.24133
0.415407
9.7451
9.23286
8.71332
8.18157
7.63271
7.06182
6.46413
5.83519
5.17116
4.46921
3.72809
2.94873
2.1348
1.29304
0.433119
9.75819
9.27191
8.77761
8.26985
7.74308
7.1916
6.60974
5.99191
5.33304
4.62901
3.87743
3.07846
2.2358
1.35735
0.455218
9.77313
9.31653
8.85125
8.37134
7.87059
7.3425
6.7803
6.17712
5.52626
4.82184
4.05966
3.23852
2.36166
1.4381
0.483083
9.79007
9.36716
8.93504
8.48728
8.01707
7.51706
6.97932
6.39543
5.75668
5.05476
4.28283
3.43727
2.51995
1.54069
0.518691
9.80912
9.42419
9.02969
8.61882
8.18424
7.71781
7.21039
6.65181
6.03094
5.33629
4.55714
3.68584
2.72123
1.67296
0.564979
9.83035
9.48788
9.13568
8.76681
8.37353
7.94701
7.47698
6.95143
6.35644
5.67647
4.89542
3.99919
2.98061
1.8467
0.626524
9.85381
9.5583
9.25326
8.93175
8.58589
8.20641
7.78211
7.29925
6.74094
6.08685
5.31366
4.3975
3.32007
2.08033
0.710893
9.87942
9.63533
9.38227
9.11358
8.82157
8.49692
8.1279
7.69944
7.19193
6.5799
5.83116
4.90778
3.77224
2.40402
0.831612
9.90707
9.7186
9.52211
9.31159
9.07992
8.81822
8.51494
8.15451
7.71549
7.16788
6.46991
5.56539
4.38596
2.86951
1.01539
9.93653
9.80743
9.67169
9.52428
9.3591
9.16838
8.94163
8.66414
8.31443
7.86024
7.25206
6.41387
5.2337
3.56946
1.32185
9.96748
9.90086
9.82937
9.74928
9.656
9.54353
9.40354
9.22388
8.98589
8.6595
8.19391
7.49981
6.41758
4.67449
1.90338
9.99952
9.99765
9.99301
9.98343
9.96621
9.93776
9.89297
9.82409
9.7187
9.55539
9.29439
8.85522
8.06036
6.4934
3.20408
10.0322
10.0964
10.1601
10.2229
10.2842
10.3433
10.3991
10.4496
10.4917
10.5191
10.5186
10.4576
10.2393
9.50833
6.67062
10.0649
10.1954
10.3277
10.4633
10.6037
10.7512
10.9088
11.081
11.2748
11.502
11.7846
12.1691
12.7741
13.9862
17.4312
10.0973
10.2932
10.4932
10.7003
10.9182
11.152
11.4083
11.6973
12.0347
12.4465
12.9799
13.7274
14.8872
16.9134
20.8247
10.1288
10.3882
10.6536
10.9297
11.2217
11.537
11.8851
12.2801
12.7427
13.3064
14.0264
14.9994
16.3985
18.5314
21.8879
0.357703
0.64124
0.764969
0.810981
0.811751
0.783264
0.734641
0.671619
0.598051
0.516664
0.429465
0.337987
0.243449
0.146856
0.0490807
0.191945
0.439487
0.578515
0.647149
0.66969
0.660817
0.629726
0.582477
0.523257
0.455077
0.380189
0.300331
0.216902
0.131066
0.0438399
0.120872
0.313084
0.440939
0.515318
0.549437
0.553792
0.536024
0.501643
0.454678
0.398144
0.334359
0.265153
0.192024
0.116238
0.0389141
0.0841955
0.231372
0.340493
0.41144
0.449848
0.462123
0.453853
0.429542
0.392739
0.346243
0.292288
0.232696
0.168989
0.102478
0.0343377
0.0622502
0.176083
0.266554
0.330153
0.368403
0.384716
0.382816
0.36611
0.337526
0.299516
0.254129
0.203095
0.147899
0.0898489
0.0301323
0.047712
0.137017
0.211271
0.266465
0.302187
0.319954
0.322055
0.310924
0.288856
0.257909
0.219889
0.176382
0.128789
0.0783757
0.026307
0.0374224
0.108401
0.169224
0.216296
0.248436
0.266067
0.270479
0.263329
0.246349
0.22121
0.189457
0.152503
0.111638
0.0680507
0.0228601
0.0298171
0.0868371
0.136723
0.176493
0.204757
0.221357
0.22693
0.222556
0.209505
0.189101
0.162635
0.131339
0.0963742
0.0588386
0.0197809
0.024027
0.0702261
0.111246
0.14468
0.169176
0.1843
0.190287
0.187805
0.177767
0.161198
0.139165
0.112721
0.0828951
0.0506829
0.0170513
0.0195246
0.057211
0.0910354
0.119071
0.140103
0.153587
0.159523
0.158301
0.15056
0.13709
0.118755
0.0964501
0.0710724
0.0435123
0.0146486
0.0159683
0.0468771
0.0748437
0.0983254
0.116268
0.128113
0.133729
0.133321
0.12733
0.116358
0.101102
0.0823118
0.0607644
0.0372464
0.0125467
0.0131257
0.0385859
0.0617655
0.0814248
0.0966675
0.106963
0.112117
0.112215
0.107558
0.0986005
0.0859015
0.0700873
0.051824
0.0318008
0.0107181
0.0108323
0.0318781
0.0511311
0.0675904
0.0805013
0.0893819
0.0940141
0.0944106
0.0907714
0.0834398
0.0728635
0.0595625
0.0441053
0.0270905
0.00913502
0.00896835
0.026415
0.0424361
0.0562195
0.0671329
0.07475
0.0788518
0.0794076
0.0765477
0.0705313
0.0617166
0.0505345
0.0374677
0.0230332
0.00777022
0.0074446
0.0219417
0.0352945
0.0468409
0.0560526
0.0625586
0.0661509
0.0667757
0.0645152
0.0595653
0.0522129
0.0428148
0.0317794
0.019551
0.00659798
0.00619304
0.0182627
0.0294068
0.0390832
0.0468507
0.0523898
0.0555101
0.0561468
0.0543495
0.0502669
0.0441292
0.0362317
0.026919
0.0165717
0.00559441
0.00516114
0.0152263
0.024538
0.0326506
0.0391957
0.0439001
0.0465933
0.0472073
0.0457702
0.042395
0.0372671
0.0306309
0.0227769
0.0140298
0.00473763
0.00430771
0.012713
0.0205017
0.027306
0.0328186
0.0368066
0.0391198
0.0396917
0.0385362
0.0357397
0.031452
0.0258755
0.0192547
0.0118661
0.00400799
0.00360012
0.0106278
0.0171486
0.0228582
0.0274998
0.0308757
0.032855
0.0333753
0.0324414
0.0301196
0.0265315
0.0218449
0.0162656
0.0100282
0.00338795
0.00301228
0.00889463
0.0143586
0.0191518
0.0230595
0.0259144
0.027603
0.0280684
0.0273098
0.0253786
0.0223735
0.0184341
0.0137332
0.00847004
0.00286206
0.00252317
0.00745186
0.0120341
0.0160601
0.0193502
0.0217626
0.0232
0.0236113
0.0229923
0.021383
0.0188642
0.0155518
0.0115912
0.00715118
0.0024168
0.00211575
0.0062496
0.0100958
0.0134794
0.01625
0.0182878
0.0195093
0.0198694
0.0193621
0.0180188
0.0159057
0.0131193
0.00978207
0.00603665
0.00204041
0.0017761
0.00524704
0.00847844
0.0113244
0.0136584
0.0153796
0.0164165
0.0167296
0.0163122
0.015189
0.0134145
0.0110693
0.00825626
0.00509622
0.00172275
0.00149286
0.00441077
0.00712873
0.00952462
0.0114923
0.0129464
0.0138261
0.0140971
0.0137522
0.0128114
0.0113195
0.00934392
0.00697136
0.00430395
0.00145507
0.00125668
0.00371331
0.0060026
0.00802214
0.00968263
0.010912
0.0116583
0.0118919
0.011606
0.0108163
0.00956023
0.00789413
0.00589113
0.00363765
0.00122991
0.00105987
0.00313202
0.00506373
0.0067689
0.00817228
0.00921285
0.00984644
0.0100474
0.00980936
0.0091451
0.00808557
0.00667822
0.00498476
0.00307843
0.00104091
0.000896095
0.00264823
0.00428211
0.00572516
0.00691377
0.00779623
0.00833489
0.00850763
0.00830862
0.00774824
0.00685235
0.00566092
0.00422617
0.00261026
0.000882665
0.000760126
0.00224653
0.00363297
0.00485803
0.00586779
0.00661828
0.00707734
0.00722592
0.00705873
0.00658428
0.00582428
0.00481253