/*--------------------------------*- C++ -*----------------------------------*\
| =========                 |                                                 |
| \\      /  F ield         | OpenFOAM: The Open Source CFD Toolbox           |
|  \\    /   O peration     | Version:  5.x                                   |
|   \\  /    A nd           | Web:      www.OpenFOAM.org                      |
|    \\/     M anipulation  |                                                 |
\*---------------------------------------------------------------------------*/
FoamFile
{
    version     2.0;
    format      ascii;
    class       volScalarField;
    location    "18";
    object      gradTx;
}
// * * * * * * * * * * * * * * * * * * * * * * * * * * * * * * * * * * * * * //

dimensions      [0 -1 0 1 0 0 0];

internalField   nonuniform List<scalar> 
6300
(
-10.6262
-10.3933
-9.93052
-9.24363
-8.34227
-7.24051
-5.95778
-4.51979
-2.9592
-1.31583
0.363877
2.02843
3.62396
5.09787
6.40305
-10.8593
-10.6237
-10.1549
-9.45842
-8.543
-7.42181
-6.11338
-4.64273
-3.04232
-1.35253
0.378667
2.09709
3.74521
5.26621
6.60898
-11.3284
-11.0874
-10.6073
-9.89244
-8.94982
-7.79066
-6.43152
-4.89577
-3.21519
-1.43098
0.405862
2.23569
3.9932
5.61244
7.03342
-12.0387
-11.7905
-11.295
-10.5545
-9.57349
-8.35984
-6.92659
-5.294
-3.49202
-1.56243
0.439698
2.44623
4.37905
6.1565
7.70291
-12.9976
-12.7411
-12.2279
-11.4574
-10.4301
-9.14896
-7.62131
-5.86197
-3.89683
-1.76676
0.468762
2.73012
4.91991
6.93122
8.6621
-14.2132
-13.949
-13.4184
-12.6173
-11.5409
-10.1849
-8.54804
-6.6361
-4.4669
-2.07691
0.471616
3.08519
5.63887
7.98596
9.98048
-15.6933
-15.4235
-14.8795
-14.0529
-12.9317
-11.502
-9.75019
-7.66784
-5.2581
-2.54596
0.409056
3.49979
6.56403
9.3929
11.7649
-17.4434
-17.1724
-16.6237
-15.7834
-14.6314
-13.1413
-11.2832
-9.02728
-6.35205
-3.25825
0.210424
3.94049
7.72418
11.2564
14.1817
-19.4648
-19.1995
-18.6596
-17.826
-16.6693
-15.1491
-13.2144
-10.8063
-7.86492
-4.34574
-0.249964
4.3272
9.13546
13.7264
17.4992
-21.7517
-21.5014
-20.9895
-20.192
-19.071
-17.5716
-15.6194
-13.119
-9.95588
-6.01017
-1.1921
4.48246
10.7637
17.014
22.1733
-24.2891
-24.0653
-23.6052
-22.8819
-21.8513
-20.447
-18.573
-16.0946
-12.8298
-8.54729
-2.99106
4.03065
12.4224
21.3921
29.0346
-27.0504
-26.8659
-26.4844
-25.8793
-25.0057
-23.7925
-22.1312
-19.857
-16.7215
-12.3585
-6.25585
2.20843
13.5025
27.097
39.7476
-29.9966
-29.8636
-29.5873
-29.1456
-28.4997
-27.5863
-26.3027
-24.4809
-21.8411
-17.9096
-11.8827
-2.44405
12.2818
33.7451
58.0901
-33.0761
-33.0047
-32.8559
-32.6162
-32.2615
-31.7505
-31.0126
-29.9231
-28.2526
-25.5564
-20.9215
-12.3842
4.32296
37.5109
94.1211
-36.2271
-36.2234
-36.2155
-36.202
-36.1797
-36.1419
-36.0743
-35.9463
-35.6901
-35.142
-33.8632
-30.4946
-20.1172
17.8535
180.246
7.4273
8.18297
8.77077
9.18944
9.44357
9.54256
9.49929
9.32873
9.04679
8.6693
8.21131
7.68658
7.10738
6.48441
5.82683
5.14244
4.43778
3.71836
2.9888
2.25297
1.51415
0.775105
0.0381873
-0.694603
-1.42157
-2.1413
-2.85263
-3.55463
-4.24663
-4.92817
-5.59902
-6.25917
-6.90872
-7.54793
-8.17709
-8.79646
-9.40626
-10.0066
-10.5973
-11.1784
-11.7493
-12.3099
-12.8598
-13.3986
-13.9264
-14.4433
-14.9494
-15.4454
-15.9317
-16.4089
-16.8777
-17.3382
-17.7905
-18.2343
-18.6689
-19.0935
-19.5068
-19.9077
-20.2947
-20.6668
-21.0228
-21.3617
-21.6829
-21.9853
-22.2682
-22.5301
-22.7694
-22.9838
-23.1705
-23.326
-23.4462
-23.5269
-23.5633
-23.5513
-23.4865
-23.3657
-23.186
-22.9458
-22.6443
-22.2818
-21.8599
-21.381
-20.8488
-20.2677
-19.6436
-18.9831
-18.2937
-17.5837
-16.8621
-16.1379
7.65728
8.42428
9.01395
9.42599
9.6666
9.74708
9.68223
9.48878
9.18405
8.78493
8.30712
7.76474
7.17016
6.53399
5.86522
5.17141
4.45884
3.73279
2.99765
2.25712
1.51433
0.771909
0.0321262
-0.70309
-1.43209
-2.15349
-2.86613
-3.5691
-4.26172
-4.94358
-5.61447
-6.27441
-6.92362
-7.5624
-8.19115
-8.81022
-9.41988
-10.0203
-10.6113
-11.1927
-11.7642
-12.3253
-12.8755
-13.4145
-13.9421
-14.4585
-14.964
-15.4591
-15.9445
-16.4211
-16.8894
-17.3498
-17.8026
-18.2473
-18.6832
-19.1095
-19.5246
-19.9273
-20.3161
-20.6897
-21.047
-21.3872
-21.7095
-22.0134
-22.298
-22.5624
-22.8049
-23.0235
-23.2152
-23.3765
-23.503
-23.5902
-23.633
-23.6268
-23.5671
-23.4501
-23.273
-23.0338
-22.7318
-22.3672
-21.9417
-21.4576
-20.9187
-20.3296
-19.6959
-19.0245
-18.3231
-17.6003
-16.8655
-16.1283
8.1312
8.92059
9.51254
9.90905
10.1199
10.1605
10.05
9.80873
9.45694
9.01359
8.49565
7.91783
7.29258
6.63028
5.93947
5.22717
4.49913
3.76012
3.0141
2.26439
1.51382
0.764791
0.019376
-0.720625
-1.45365
-2.17836
-2.89361
-3.5985
-4.29237
-4.97481
-5.64569
-6.30514
-6.95351
-7.59131
-8.21912
-8.83748
-9.44683
-10.0474
-10.639
-11.2214
-11.794
-12.3562
-12.9072
-13.4465
-13.9739
-14.4893
-14.9933
-15.4865
-15.9701
-16.445
-16.9122
-17.3724
-17.826
-18.2726
-18.7114
-19.1412
-19.5602
-19.9668
-20.3592
-20.7359
-21.0958
-21.4381
-21.7626
-22.0689
-22.3569
-22.6259
-22.8748
-23.1016
-23.3036
-23.4767
-23.6163
-23.717
-23.7731
-23.7791
-23.7299
-23.621
-23.4491
-23.212
-22.909
-22.5403
-22.1074
-21.6131
-21.0608
-20.4553
-19.8023
-19.1088
-18.383
-17.634
-16.8722
-16.1082
8.87853
9.7008
10.2922
10.6591
10.8178
10.7913
10.6057
10.2875
9.86136
9.34936
8.77011
8.13893
7.46811
6.76739
6.04445
5.30536
4.55501
3.79735
3.03567
2.27275
1.51095
0.752335
-0.00128899
-0.748311
-1.48728
-2.21692
-2.93608
-3.64384
-4.33952
-5.02272
-5.6934
-6.35183
-6.99862
-7.63458
-8.26065
-8.8777
-9.48643
-10.0872
-10.6799
-11.2641
-11.8388
-12.4031
-12.9557
-13.4957
-14.0227
-14.5366
-15.0379
-15.5279
-16.0079
-16.4797
-16.9448
-17.4045
-17.8593
-18.309
-18.7525
-19.1881
-19.6135
-20.0265
-20.4246
-20.806
-21.1695
-21.5146
-21.8415
-22.1506
-22.4427
-22.718
-22.9761
-23.2154
-23.4331
-23.6249
-23.7852
-23.9077
-23.9852
-24.0108
-23.9783
-23.8822
-23.7186
-23.485
-23.1805
-22.8054
-22.3616
-21.8516
-21.2792
-20.6491
-19.9668
-19.2396
-18.4759
-17.6861
-16.8819
-16.0757
9.94899
10.8131
11.3947
11.7085
11.7821
11.6509
11.3521
10.9212
10.3891
9.78165
9.11907
8.41684
7.68643
6.93625
6.17244
5.39959
4.62122
3.84019
3.05887
2.27933
1.50336
0.732563
-0.0315769
-0.78769
-1.53446
-2.27063
-2.99503
-3.70663
-4.40467
-5.0887
-5.75875
-6.4153
-7.05931
-7.69209
-8.31513
-8.92987
-9.53746
-10.1385
-10.733
-11.3202
-11.8986
-12.4666
-13.0221
-13.5637
-14.0903
-14.6018
-15.0989
-15.5833
-16.0574
-16.5238
-16.9852
-17.4435
-17.8998
-18.354
-18.8047
-19.2494
-19.6847
-20.1073
-20.5138
-20.9016
-21.2695
-21.6172
-21.9457
-22.2567
-22.5525
-22.8347
-23.1042
-23.3601
-23.5997
-23.8182
-24.0086
-24.1627
-24.2716
-24.326
-24.318
-24.2405
-24.0888
-23.86
-23.5533
-23.1694
-22.7106
-22.1798
-21.5807
-20.9176
-20.196
-19.4225
-18.6063
-17.7589
-16.8941
-16.0275
11.4203
12.3317
12.8828
13.1032
13.041
12.7514
12.2885
11.7002
11.0252
10.293
9.52483
8.73504
7.93298
7.12451
6.31324
5.50153
4.69107
3.88325
3.07936
2.28061
1.48816
0.703086
-0.0735395
-0.840622
-1.59699
-2.34137
-3.07247
-3.78902
-4.49001
-5.17485
-5.84355
-6.49684
-7.13618
-7.76362
-8.38154
-8.9923
-9.59784
-10.1993
-10.7967
-11.3888
-11.9735
-12.5478
-13.1086
-13.6531
-14.1795
-14.6875
-15.1779
-15.6534
-16.1178
-16.5751
-17.0298
-17.4852
-17.9432
-18.404
-18.8654
-19.3238
-19.7742
-20.211
-20.6295
-21.0259
-21.3984
-21.7472
-22.0747
-22.3846
-22.6815
-22.9695
-23.2515
-23.528
-23.7966
-24.0515
-24.2839
-24.4828
-24.636
-24.7311
-24.7572
-24.7054
-24.5697
-24.3469
-24.0368
-23.6412
-23.1631
-22.6061
-21.974
-21.2704
-20.4994
-19.6668
-18.7815
-17.8564
-16.9087
-15.959
13.4126
14.3688
14.8464
14.9048
14.6271
14.1009
13.4052
12.6036
11.7432
10.8559
9.96142
9.07064
8.18852
7.31655
6.45447
5.60149
4.75691
3.92047
3.09227
2.27269
1.4622
0.661322
-0.129354
-0.909085
-1.67686
-2.43133
-3.1709
-3.89386
-4.59866
-5.28427
-5.95054
-6.59846
-7.23017
-7.84883
-8.45822
-9.0622
-9.66406
-10.2658
-10.8678
-11.4682
-12.0633
-12.6484
-13.2183
-13.7684
-14.2953
-14.7982
-15.2783
-15.7396
-16.188
-16.6302
-17.0732
-17.5228
-17.9825
-18.4527
-18.9304
-19.4097
-19.8828
-20.3411
-20.7769
-21.1844
-21.5611
-21.9078
-22.2288
-22.5311
-22.823
-23.1127
-23.4064
-23.7071
-24.013
-24.317
-24.6073
-24.8686
-25.0836
-25.2354
-25.3084
-25.291
-25.1755
-24.9593
-24.6433
-24.2314
-23.7288
-23.1404
-22.47
-21.7199
-20.8913
-19.9869
-19.0137
-17.9861
-16.9262
-15.8629
16.1146
17.0947
17.4135
17.1899
16.5706
15.6944
14.674
13.5914
12.4996
11.4288
10.3924
9.39352
8.42921
7.4941
6.58239
5.68913
4.81088
3.94566
3.09263
2.25153
1.42226
0.604757
-0.20103
-0.994862
-1.77595
-2.54282
-3.29332
-4.0249
-4.73496
-5.42156
-6.084
-6.72342
-7.34294
-7.94738
-8.54268
-9.13512
-9.73033
-10.3321
-10.9412
-11.5549
-12.1674
-12.7708
-13.3565
-13.9168
-14.4458
-14.9415
-15.4056
-15.8443
-16.2668
-16.684
-17.1071
-17.5458
-18.0065
-18.4903
-18.9928
-19.5044
-20.0125
-20.5034
-20.9647
-21.3872
-21.7667
-22.105
-22.4096
-22.6923
-22.9676
-23.2498
-23.5511
-23.8785
-24.2318
-24.6019
-24.9722
-25.3206
-25.6223
-25.8526
-25.9897
-26.0173
-25.9264
-25.7151
-25.3877
-24.9522
-24.4178
-23.7924
-23.0807
-22.2822
-21.3921
-20.4057
-19.3244
-18.1619
-16.9486
-15.728
19.8339
20.7725
20.761
20.0446
18.8839
17.4951
16.0323
14.5921
13.2257
11.9518
10.7692
9.66631
8.62761
7.63775
6.68352
5.75498
4.84588
3.95315
3.07568
2.21318
1.36528
0.531213
-0.290017
-1.09907
-1.8956
-2.67793
-3.44306
-4.18694
-4.90509
-5.59365
-6.2506
-6.87704
-7.47742
-8.05906
-8.63121
-9.20403
-9.78713
-10.3877
-11.0078
-11.6433
-12.2846
-12.9186
-13.5314
-14.1099
-14.6443
-15.13
-15.5695
-15.9723
-16.3531
-16.729
-17.1183
-17.5371
-17.9969
-18.501
-19.042
-19.6041
-20.1667
-20.708
-21.2081
-21.6517
-22.0316
-22.3506
-22.6215
-22.8641
-23.1019
-23.3593
-23.6579
-24.0126
-24.4261
-24.8863
-25.3684
-25.8396
-26.2635
-26.6038
-26.8285
-26.9143
-26.8502
-26.6378
-26.2876
-25.8152
-25.2374
-24.5686
-23.8163
-22.9761
-22.0314
-20.9611
-19.7517
-18.4108
-16.9811
-15.5359
25.1004
25.8181
25.1232
23.5385
21.5252
19.4021
17.3579
15.4863
13.8182
12.3432
11.0311
9.84636
8.75543
7.72989
6.74744
5.79264
4.85715
3.93849
3.03703
2.15367
1.28824
0.439087
-0.396629
-1.2214
-2.03576
-2.83788
-3.62345
-4.38607
-5.11788
-5.81125
-6.46117
-7.06817
-7.63886
-8.18436
-8.71877
-9.25808
-9.8188
-10.4149
-11.0523
-11.7235
-12.412
-13.0968
-13.7554
-14.3666
-14.9128
-15.3849
-15.7861
-16.1321
-16.446
-16.7549
-17.0868
-17.469
-17.9235
-18.4584
-19.0606
-19.7027
-20.3513
-20.9719
-21.5326
-22.0078
-22.3839
-22.6653
-22.874
-23.0424
-23.2079
-23.4092
-23.6838
-24.0615
-24.5529
-25.139
-25.7801
-26.4265
-27.0248
-27.5211
-27.867
-28.0268
-27.9874
-27.7586
-27.3631
-26.8297
-26.1879
-25.4649
-24.678
-23.8205
-22.8513
-21.7164
-20.3682
-18.7875
-17.0359
-15.2521
32.8989
32.8975
30.7659
27.6492
24.3237
21.1951
18.4347
16.0874
14.1323
12.4997
11.1094
9.89108
8.78886
7.75973
6.77131
5.8023
4.84398
3.8989
2.97212
2.06819
1.18765
0.327489
-0.519103
-1.35881
-2.1936
-3.02172
-3.83692
-4.62963
-5.38604
-6.09146
-6.73355
-7.31159
-7.83657
-8.32562
-8.79924
-9.28123
-9.79945
-10.3827
-11.0478
-11.7786
-12.5449
-13.3125
-14.0478
-14.7165
-15.288
-15.7417
-16.082
-16.3377
-16.5462
-16.7473
-16.9825
-17.2967
-17.7342
-18.3188
-19.0215
-19.7919
-20.5758
-21.322
-21.9801
-22.5064
-22.8723
-23.0845
-23.1843
-23.2248
-23.262
-23.3532
-23.561
-23.9465
-24.5433
-25.3122
-26.184
-27.0825
-27.9325
-28.6548
-29.1732
-29.4257
-29.3972
-29.1189
-28.6371
-28
-27.2549
-26.453
-25.6413
-24.8255
-23.9095
-22.7788
-21.319
-19.4102
-17.1369
-14.8045
45.2467
43.0439
37.8267
32.0602
26.8378
22.4571
18.9161
16.1231
13.9816
12.3071
10.9396
9.76838
8.7168
7.7307
6.76699
5.79632
4.81154
3.83275
2.87415
1.94888
1.05754
0.196229
-0.651601
-1.50341
-2.36115
-3.22421
-4.08284
-4.92548
-5.72767
-6.46285
-7.09819
-7.63139
-8.086
-8.48907
-8.86762
-9.25218
-9.68636
-10.2327
-10.9488
-11.7825
-12.6757
-13.5745
-14.436
-15.2062
-15.8327
-16.2616
-16.4997
-16.6112
-16.6566
-16.6907
-16.7644
-16.9468
-17.3327
-18.0089
-18.8846
-19.8616
-20.8545
-21.7985
-22.6169
-23.2359
-23.5816
-23.6651
-23.5799
-23.4116
-23.2379
-23.1293
-23.1819
-23.5268
-24.2856
-25.3368
-26.5491
-27.808
-29.0236
-30.082
-30.8622
-31.2287
-31.1664
-30.7721
-30.1343
-29.3254
-28.4036
-27.4547
-26.6101
-25.9747
-25.2764
-24.3146
-22.9164
-20.5574
-17.3229
-14.0198
66.7901
57.5302
45.6783
35.6879
28.1398
22.5099
18.3202
15.2202
13.1584
11.6723
10.4868
9.47322
8.55025
7.66922
6.77249
5.81051
4.77032
3.73737
2.72807
1.78063
0.884078
0.0454888
-0.778441
-1.63949
-2.52111
-3.43314
-4.3518
-5.27962
-6.16579
-6.97802
-7.60989
-8.06436
-8.40963
-8.68778
-8.92731
-9.15162
-9.41174
-9.83803
-10.6803
-11.7004
-12.7986
-13.8901
-14.9556
-15.9028
-16.6619
-17.056
-17.0993
-16.98
-16.783
-16.5769
-16.3895
-16.3038
-16.513
-17.4115
-18.6017
-19.9082
-21.2034
-22.4557
-23.5407
-24.3589
-24.6682
-24.4884
-24.0948
-23.6062
-23.1201
-22.6729
-22.3817
-22.5111
-23.6065
-25.1295
-26.8467
-28.5955
-30.341
-31.9094
-33.1466
-33.6488
-33.4134
-32.7758
-31.8776
-30.8132
-29.5909
-28.3061
-27.2773
-27.2141
-27.0226
-26.4787
-25.8971
-22.965
-17.6074
-12.4392
109.654
75.7481
50.848
35.7982
26.6788
20.4883
16.1549
12.8222
11.5058
10.6045
9.7861
9.04737
8.32303
7.6301
6.87172
5.93709
4.71846
3.60777
2.4927
1.53897
0.627014
-0.126477
-0.851926
-1.74605
-2.63732
-3.63259
-4.60762
-5.69377
-6.71041
-7.75293
-8.37705
-8.65457
-8.82986
-8.94209
-9.00885
-8.99947
-8.89776
-8.8443
-10.1557
-11.5059
-12.9309
-14.2429
-15.6454
-16.8703
-18.0162
-18.3556
-17.9331
-17.4602
-16.9225
-16.4358
-15.8681
-15.2359
-14.7005
-16.3938
-18.1511
-19.9706
-21.6141
-23.3535
-24.8485
-26.2145
-26.4586
-25.6196
-24.7462
-23.7967
-22.9459
-21.9916
-20.9755
-20.104
-22.3113
-24.6423
-27.0985
-29.3875
-31.9132
-34.2134
-36.4889
-37.1307
-36.2393
-35.1542
-33.86
-32.5279
-30.8679
-28.7884
-26.5538
-28.6381
-29.2759
-28.6967
-32.2623
-28.8653
-17.6187
-8.77621
209.161
80.9966
41.8325
27.3684
20.9998
15.792
12.5483
7.52028
9.25514
9.41729
8.97039
8.60057
8.05038
7.68502
7.22452
6.47244
4.51097
3.48431
2.02488
1.23702
0.141666
-0.338901
-0.68259
-1.85676
-2.60382
-3.86124
-4.70346
-6.20802
-7.21777
-9.13033
-9.64331
-9.39197
-9.34088
-9.26184
-9.20001
-8.98022
-8.31422
-5.88517
-9.57497
-11.2035
-13.2261
-14.4651
-16.5908
-17.9515
-20.5315
-20.7524
-18.8389
-18.0339
-16.9883
-16.4114
-15.4392
-14.0284
-9.67864
-15.2839
-17.6108
-20.2863
-21.8864
-24.6031
-26.3416
-29.6852
-29.8087
-26.7997
-25.5072
-23.8449
-22.9205
-21.3993
-19.3607
-13.2636
-20.8376
-23.9745
-27.5907
-29.8382
-33.8098
-36.5526
-42.1835
-42.8202
-39.3436
-37.8333
-35.8966
-34.7144
-32.7489
-29.4936
-19.6111
-32.1446
-33.2812
-24.946
-48.6532
-46.0689
-14.1679
0.451926
-15.3498
-14.5116
-13.7096
-12.9549
-12.2559
-11.6186
-11.0466
-10.5417
-10.1042
-9.73333
-9.42773
-9.18582
-9.00602
-8.88697
-8.8277
-15.3266
-14.4752
-13.6622
-12.899
-12.1941
-11.5531
-10.9794
-10.4742
-10.0375
-9.66794
-9.36395
-9.12362
-8.94517
-8.8271
-8.76834
-15.2787
-14.4002
-13.5649
-12.7847
-12.0681
-11.4202
-10.8435
-10.3383
-9.9034
-9.53691
-9.2364
-8.99944
-8.82384
-8.70782
-8.65013
-15.2025
-14.2819
-13.4124
-12.6068
-11.8733
-11.2161
-10.636
-10.1318
-9.70084
-9.33979
-9.0452
-8.81381
-8.64285
-8.53012
-8.47414
-15.0921
-14.1122
-13.1958
-12.3566
-11.6021
-10.9346
-10.3525
-9.852
-9.42827
-9.07613
-8.79069
-8.56767
-8.40353
-8.29559
-8.24207
-14.9384
-13.879
-12.9018
-12.0215
-11.2439
-10.5676
-9.98722
-9.49534
-9.084
-8.74566
-8.47369
-8.26255
-8.10791
-8.00655
-7.95639
-14.7272
-13.5633
-12.5106
-11.5838
-10.7842
-10.1046
-9.53336
-9.05803
-8.66663
-8.34874
-8.09575
-7.90086
-7.75891
-7.66624
-7.62048
-14.4359
-13.1362
-11.9934
-11.0187
-10.2045
-9.53293
-8.98353
-8.5367
-8.17566
-7.88682
-7.65963
-7.48613
-7.36057
-7.27893
-7.23871
-14.0271
-12.5523
-11.3078
-10.2932
-9.48192
-8.83907
-8.33101
-7.92949
-7.6124
-7.36317
-7.16972
-7.02341
-6.91822
-6.85012
-6.81666
-13.4348
-11.7379
-10.3924
-9.36418
-8.59085
-8.01032
-7.57188
-7.23777
-6.9812
-6.78367
-6.63259
-6.51948
-6.43869
-6.38661
-6.36107
-12.5351
-10.5719
-9.15949
-8.18022
-7.5069
-7.0394
-6.70834
-6.46842
-6.29088
-6.15765
-6.05744
-5.98315
-5.9304
-5.89648
-5.87988
-11.0801
-8.85503
-7.49333
-6.69021
-6.21704
-5.93198
-5.7536
-5.63663
-5.55617
-5.49855
-5.45628
-5.42524
-5.4032
-5.38899
-5.38201
-8.54983
-6.27472
-5.26855
-4.87018
-4.739
-4.7178
-4.73738
-4.76827
-4.79856
-4.82406
-4.84383
-4.85826
-4.86812
-4.87421
-4.8771
-3.82785
-2.42536
-2.43589
-2.7829
-3.15094
-3.46281
-3.70981
-3.90044
-4.0457
-4.15523
-4.23667
-4.29578
-4.33677
-4.36258
-4.37503
5.46506
2.83703
0.733269
-0.674559
-1.61901
-2.27266
-2.73857
-3.07796
-3.32853
-3.51446
-3.6518
-3.75138
-3.82057
-3.86424
-3.88537
-39.1191
-39.178
-39.3005
-39.4973
-39.7859
-40.1948
-40.7696
-41.5855
-42.7754
-44.5989
-47.6423
-53.5209
-67.8147
-114.22
-309.997
-41.7074
-41.8198
-42.0537
-42.4292
-42.9807
-43.7643
-44.8707
-46.4523
-48.7768
-52.3491
-58.2001
-68.6099
-88.8763
-130.556
-206.554
-44.2178
-44.3773
-44.7087
-45.239
-46.0146
-47.1095
-48.642
-50.8032
-53.9116
-58.5169
-65.592
-76.8543
-95.0676
-123.06
-155.886
-46.6176
-46.8155
-47.2256
-47.8787
-48.8267
-50.151
-51.9767
-54.4962
-58.0072
-62.9696
-70.0761
-80.2715
-94.4682
-112.206
-128.013
-48.88
-49.1064
-49.5738
-50.3136
-51.3776
-52.8443
-54.8297
-57.5009
-61.0948
-65.9336
-72.4151
-80.9096
-91.4093
-102.695
-111.117
-50.9854
-51.2299
-51.7329
-52.5235
-53.6488
-55.1776
-57.2064
-59.8647
-63.3178
-67.7569
-73.3563
-80.1551
-87.8047
-95.1711
-100.069
-52.921
-53.1741
-53.6924
-54.5012
-55.6397
-57.1636
-59.146
-61.6767
-64.8561
-68.7744
-73.4646
-78.8097
-84.3965
-89.3619
-92.4221
-54.6809
-54.9341
-55.4503
-56.2498
-57.3631
-58.8314
-60.7047
-63.0383
-65.8813
-69.2559
-73.1181
-77.2965
-81.4199
-84.8756
-86.9003
-56.2651
-56.5114
-57.0116
-57.7805
-58.8401
-60.2178
-61.944
-64.046
-66.5372
-69.3988
-72.5518
-75.8216
-78.9067
-81.3829
-82.7845
-57.6782
-57.9125
-58.3862
-59.1095
-60.0962
-61.3623
-62.9223
-64.7834
-66.9359
-69.3394
-71.9046
-74.4748
-76.8165
-78.6364
-79.642
-58.9287
-59.1473
-59.5876
-60.2555
-61.1583
-62.3027
-63.6915
-65.3184
-67.1602
-69.1676
-71.2538
-73.2866
-75.0885
-76.4555
-77.1977
-60.0275
-60.2282
-60.631
-61.2385
-62.0526
-63.0734
-64.2955
-65.7041
-67.2697
-68.9411
-70.6401
-72.2586
-73.6627
-74.7082
-75.2687
-60.9868
-61.1687
-61.5324
-62.0779
-62.8035
-63.7043
-64.7699
-65.981
-67.3056
-68.6953
-70.0823
-71.3796
-72.4858
-73.2979
-73.729
-61.82
-61.9828
-62.3076
-62.7924
-63.4327
-64.2208
-65.1432
-66.1789
-67.2963
-68.4515
-69.5869
-70.6331
-71.5131
-72.152
-72.4887
-62.5401
-62.6845
-62.9718
-63.3987
-63.9593
-64.6439
-65.438
-66.3201
-67.2608
-68.2213
-69.1535
-70.002
-70.7079
-71.2159
-71.4821
-63.1599
-63.287
-63.5391
-63.9123
-64.3998
-64.9912
-65.6716
-66.4206
-67.2115
-68.0107
-68.7782
-69.4699
-70.0402
-70.4477
-70.6603
-63.6916
-63.8025
-64.0223
-64.3466
-64.7681
-65.2765
-65.8575
-66.4921
-67.1565
-67.822
-68.4557
-69.0219
-69.4855
-69.8149
-69.9861
-64.1462
-64.2425
-64.433
-64.7133
-65.0761
-65.5115
-66.0062
-66.5429
-67.1008
-67.6555
-68.1798
-68.6453
-69.0241
-69.292
-69.4308
-64.5339
-64.6171
-64.7815
-65.0226
-65.3337
-65.7055
-66.1256
-66.5789
-67.0473
-67.5101
-67.9449
-68.3287
-68.6396
-68.8587
-68.9719
-64.8638
-64.9354
-65.0766
-65.2833
-65.5492
-65.8658
-66.222
-66.6045
-66.9976
-67.3841
-67.7454
-68.0628
-68.3189
-68.4988
-68.5917
-65.1439
-65.2053
-65.3263
-65.5029
-65.7296
-65.9986
-66.3001
-66.6226
-66.9526
-67.2757
-67.5764
-67.8395
-68.0512
-68.1995
-68.2758
-65.3815
-65.434
-65.5372
-65.6878
-65.8806
-66.1087
-66.3637
-66.6354
-66.9125
-67.1827
-67.4334
-67.652
-67.8274
-67.95
-68.0131
-65.5826
-65.6273
-65.7153
-65.8434
-66.0071
-66.2003
-66.4157
-66.6445
-66.8772
-67.1034
-67.3126
-67.4946
-67.6402
-67.7418
-67.7941
-65.7526
-65.7907
-65.8655
-65.9742
-66.113
-66.2765
-66.4583
-66.651
-66.8464
-67.0359
-67.2106
-67.3624
-67.4836
-67.568
-67.6114
-65.8963
-65.9286
-65.992
-66.0843
-66.2018
-66.34
-66.4933
-66.6556
-66.8197
-66.9785
-67.1247
-67.2514
-67.3524
-67.4227
-67.4588
-66.0174
-66.0449
-66.0986
-66.1768
-66.2761
-66.3929
-66.5222
-66.6588
-66.7967
-66.9299
-67.0523
-67.1582
-67.2426
-67.3012
-67.3313
-66.1196
-66.1428
-66.1884
-66.2545
-66.3385
-66.4371
-66.5461
-66.6611
-66.777
-66.8888
-66.9914
-67.08
-67.1505
-67.1995
-67.2247
-66.2056
-66.2253
-66.2638
-66.3197
-66.3907
-66.4739
-66.5659
-66.6627
-66.7602
-66.8541
-66.9402
-67.0144
-67.0735
-67.1145
-67.1355
-66.278
-66.2946
-66.3272
-66.3745
-66.4345
-66.5047
-66.5823
-66.6639
-66.7459
-66.8248
-66.8971
-66.9594
-67.0089
-67.0432
-67.0608
-66.3388
-66.3529
-66.3805
-66.4204
-66.4711
-66.5305
-66.5959
-66.6647
-66.7338
-66.8002
-66.861
-66.9133
-66.9548
-66.9837
-66.9984
-66.3898
-66.4017
-66.4251
-66.4589
-66.5018
-66.552
-66.6072
-66.6653
-66.7235
-66.7795
-66.8307
-66.8747
-66.9096
-66.9339
-66.9463
-66.4326
-66.4427
-66.4625
-66.4911
-66.5274
-66.5699
-66.6166
-66.6657
-66.7149
-66.7621
-66.8053
-66.8424
-66.8719
-66.8923
-66.9027
-66.4683
-66.4769
-66.4937
-66.518
-66.5488
-66.5848
-66.6244
-66.666
-66.7076
-66.7476
-66.7841
-66.8155
-66.8403
-66.8576
-66.8664
-66.4981
-66.5054
-66.5197
-66.5404
-66.5666
-66.5972
-66.6309
-66.6662
-66.7016
-66.7355
-66.7664
-66.7931
-66.8141
-66.8288
-66.8362
-66.5228
-66.529
-66.5413
-66.5589
-66.5813
-66.6074
-66.6362
-66.6663
-66.6965
-66.7254
-66.7518
-66.7745
-66.7924
-66.8049
-66.8112
-66.5432
-66.5485
-66.559
-66.5742
-66.5934
-66.6159
-66.6406
-66.6664
-66.6923
-66.7171
-66.7397
-66.7592
-66.7746
-66.7852
-66.7907
-66.5598
-66.5644
-66.5735
-66.5867
-66.6033
-66.6228
-66.6441
-66.6665
-66.6889
-66.7103
-66.7299
-66.7467
-66.76
-66.7692
-66.7739
-66.5732
-66.5773
-66.5852
-66.5968
-66.6113
-66.6283
-66.647
-66.6665
-66.6861
-66.7049
-66.7219
-66.7366
-66.7482
-66.7563
-66.7604
-66.5838
-66.5874
-66.5945
-66.6047
-66.6176
-66.6327
-66.6492
-66.6666
-66.6839
-66.7005
-66.7157
-66.7287
-66.7389
-66.7461
-66.7497
-66.5919
-66.5951
-66.6015
-66.6107
-66.6224
-66.636
-66.651
-66.6666
-66.6823
-66.6972
-66.7109
-66.7226
-66.7319
-66.7383
-66.7416
-66.5977
-66.6007
-66.6066
-66.6151
-66.6259
-66.6384
-66.6522
-66.6666
-66.681
-66.6949
-66.7074
-66.7182
-66.7268
-66.7327
-66.7357
-66.6014
-66.6043
-66.6099
-66.6179
-66.6281
-66.6399
-66.653
-66.6666
-66.6803
-66.6933
-66.7052
-66.7154
-66.7235
-66.7291
-66.732
-66.6032
-66.606
-66.6114
-66.6192
-66.6291
-66.6407
-66.6534
-66.6666
-66.6799
-66.6926
-66.7042
-66.7141
-66.722
-66.7274
-66.7302
-66.603
-66.6058
-66.6112
-66.6191
-66.629
-66.6406
-66.6533
-66.6666
-66.6799
-66.6927
-66.7043
-66.7142
-66.7221
-66.7276
-66.7304
-66.6009
-66.6038
-66.6094
-66.6175
-66.6278
-66.6397
-66.6529
-66.6666
-66.6804
-66.6935
-66.7055
-66.7158
-66.724
-66.7296
-66.7325
-66.5969
-66.5999
-66.6059
-66.6145
-66.6254
-66.6381
-66.652
-66.6666
-66.6812
-66.6952
-66.7079
-66.7189
-66.7275
-66.7335
-66.7366
-66.5907
-66.594
-66.6005
-66.6098
-66.6217
-66.6355
-66.6507
-66.6666
-66.6825
-66.6977
-66.7116
-66.7235
-66.7329
-66.7395
-66.7428
-66.5822
-66.5858
-66.593
-66.6035
-66.6166
-66.632
-66.6489
-66.6666
-66.6843
-66.7012
-66.7166
-66.7299
-66.7404
-66.7476
-66.7513
-66.5711
-66.5753
-66.5834
-66.5952
-66.6101
-66.6275
-66.6466
-66.6666
-66.6866
-66.7057
-66.7232
-66.7382
-66.75
-66.7583
-66.7625
-66.5571
-66.5619
-66.5712
-66.5847
-66.6018
-66.6217
-66.6436
-66.6665
-66.6894
-66.7114
-66.7314
-66.7486
-66.7623
-66.7717
-66.7765
-66.5399
-66.5454
-66.5562
-66.5718
-66.5915
-66.6146
-66.6399
-66.6664
-66.693
-66.7185
-66.7417
-66.7616
-66.7774
-66.7883
-66.7939
-66.5188
-66.5252
-66.5378
-66.556
-66.579
-66.6059
-66.6354
-66.6663
-66.6974
-66.7271
-66.7541
-66.7774
-66.7959
-66.8086
-66.8152
-66.4933
-66.5008
-66.5155
-66.5368
-66.5638
-66.5953
-66.6299
-66.6662
-66.7026
-66.7375
-66.7693
-66.7966
-66.8183
-66.8333
-66.841
-66.4625
-66.4713
-66.4886
-66.5137
-66.5454
-66.5825
-66.6233
-66.666
-66.7089
-66.75
-66.7875
-66.8198
-66.8453
-66.863
-66.8721
-66.4256
-66.436
-66.4564
-66.486
-66.5234
-66.5671
-66.6153
-66.6658
-66.7164
-66.765
-66.8094
-66.8476
-66.8778
-66.8988
-66.9095
-66.3814
-66.3937
-66.4179
-66.4527
-66.497
-66.5487
-66.6056
-66.6654
-66.7254
-66.783
-66.8356
-66.8808
-66.9167
-66.9416
-66.9544
-66.3287
-66.3433
-66.3718
-66.4131
-66.4654
-66.5266
-66.594
-66.6649
-66.736
-66.8044
-66.8668
-66.9207
-66.9633
-66.9929
-67.0081
-66.266
-66.2832
-66.3169
-66.3657
-66.4276
-66.5001
-66.5801
-66.6642
-66.7486
-66.8298
-66.9041
-66.9682
-67.019
-67.0543
-67.0723
-66.1912
-66.2116
-66.2514
-66.3092
-66.3826
-66.4685
-66.5633
-66.6631
-66.7635
-66.8601
-66.9486
-67.0249
-67.0855
-67.1275
-67.1491
-66.1024
-66.1264
-66.1735
-66.2419
-66.3288
-66.4306
-66.5431
-66.6617
-66.781
-66.896
-67.0015
-67.0925
-67.1648
-67.215
-67.2408
-65.9968
-66.0252
-66.0809
-66.1618
-66.2646
-66.3853
-66.5188
-66.6596
-66.8016
-66.9386
-67.0643
-67.173
-67.2595
-67.3196
-67.3504
-65.8715
-65.9051
-65.9709
-66.0664
-66.1881
-66.331
-66.4894
-66.6567
-66.8257
-66.989
-67.1391
-67.269
-67.3725
-67.4444
-67.4814
-65.723
-65.7625
-65.8401
-65.953
-66.0968
-66.2659
-66.4538
-66.6526
-66.8538
-67.0485
-67.2279
-67.3833
-67.5073
-67.5937
-67.638
-65.5469
-65.5935
-65.6849
-65.818
-65.9878
-66.188
-66.4106
-66.6468
-66.8863
-67.1187
-67.3332
-67.5195
-67.6683
-67.7721
-67.8254
-65.3386
-65.3933
-65.5008
-65.6575
-65.8578
-66.0943
-66.3581
-66.6386
-66.9239
-67.2014
-67.4581
-67.6817
-67.8606
-67.9855
-68.0497
-65.0923
-65.1564
-65.2826
-65.4668
-65.7026
-65.9818
-66.294
-66.627
-66.9668
-67.2984
-67.6062
-67.8748
-68.0904
-68.2411
-68.3187
-64.8015
-64.8765
-65.0242
-65.2401
-65.5173
-65.8464
-66.2156
-66.6107
-67.0155
-67.412
-67.7813
-68.1048
-68.3651
-68.5476
-68.6416
-64.4586
-64.546
-64.7184
-64.9709
-65.2959
-65.6831
-66.1191
-66.5877
-67.0699
-67.5444
-67.9883
-68.3787
-68.6939
-68.9154
-69.0297
-64.055
-64.1565
-64.357
-64.6514
-65.0314
-65.4858
-66
-66.5553
-67.1297
-67.698
-68.2325
-68.7048
-69.0877
-69.3576
-69.4972
-63.5809
-63.6983
-63.9305
-64.2723
-64.7152
-65.2472
-65.8522
-66.5096
-67.1938
-67.8751
-68.5199
-69.093
-69.5599
-69.8904
-70.0617
-63.0253
-63.1604
-63.428
-63.823
-64.3371
-64.9578
-65.6681
-66.4452
-67.26
-68.0775
-68.8571
-69.5549
-70.1268
-70.5336
-70.7451
-62.376
-62.5304
-62.837
-63.2911
-63.8849
-64.6063
-65.4377
-66.3545
-67.3244
-68.3063
-69.2511
-70.1041
-70.8085
-71.3124
-71.5754
-61.6195
-61.7947
-62.1435
-62.6622
-63.3442
-64.1785
-65.1478
-66.227
-67.3804
-68.5607
-69.709
-70.7564
-71.6294
-72.2585
-72.5884
-60.7413
-60.9385
-61.332
-61.9199
-62.6978
-63.6568
-64.7818
-66.0479
-67.4176
-68.8375
-70.237
-71.5297
-72.6196
-73.4122
-73.8304
-59.7262
-59.9459
-60.3856
-61.0458
-61.9255
-63.0199
-64.3177
-65.797
-67.42
-69.1284
-70.839
-72.4439
-73.8163
-74.826
-75.3628
-58.5587
-58.8005
-59.2861
-60.0194
-61.0041
-62.2417
-63.7277
-65.4462
-67.3632
-69.4177
-71.5145
-73.5195
-75.2648
-76.5681
-77.268
-57.2233
-57.4857
-58.0147
-58.8184
-59.9071
-61.291
-62.9761
-64.9577
-67.2108
-69.6777
-72.2536
-74.7753
-77.0202
-78.7291
-79.6592
-55.7058
-55.9858
-56.5527
-57.4196
-58.6051
-60.1312
-62.0187
-64.2806
-66.9099
-69.8619
-73.0305
-76.2233
-79.1479
-81.4309
-82.6962
-53.9939
-54.2868
-54.8822
-55.7995
-57.0668
-58.7204
-60.8013
-63.3484
-66.3849
-69.8956
-73.7904
-77.8577
-81.7209
-84.8394
-86.6119
-52.0786
-52.3777
-52.9885
-53.9363
-55.2602
-57.0129
-59.2603
-62.0763
-65.5306
-69.6626
-74.4307
-79.6336
-84.8109
-89.1826
-91.7584
-49.9556
-50.2523
-50.8607
-51.8121
-53.1558
-54.962
-57.3244
-60.3608
-64.2059
-68.9877
-74.7689
-81.4272
-88.4604
-94.7728
-98.6935
-47.6267
-47.9104
-48.4949
-49.4155
-50.7302
-52.5248
-54.9207
-58.0838
-62.2305
-67.6188
-74.498
-82.9604
-92.6104
-102.024
-108.351
-45.1009
-45.3599
-45.8956
-46.7453
-47.9715
-49.6701
-51.9841
-55.1239
-59.393
-65.2145
-73.1277
-83.6689
-96.9245
-111.418
-122.403
-42.3952
-42.6174
-43.0783
-43.8139
-44.8848
-46.388
-48.4742
-51.3796
-55.4774
-61.3575
-69.9324
-82.4924
-100.379
-123.248
-144.082
-39.5354
-39.7092
-40.0705
-40.6495
-41.4982
-42.7011
-44.3954
-46.8075
-50.3241
-55.6293
-63.9698
-77.6167
-100.373
-136.49
-180.23
-36.555
-36.6708
-36.9117
-37.2981
-37.8656
-38.6731
-39.8182
-41.4685
-43.9287
-47.7932
-54.3222
-66.4148
-91.0896
-144.44
-246.751
-33.4945
-33.5457
-33.6519
-33.821
-34.0665
-34.4108
-34.8901
-35.5672
-36.5582
-38.1068
-40.8113
-46.4752
-61.8925
-118.388
-384.321
-30.3984
-30.3826
-30.3486
-30.2909
-30.199
-30.0547
-29.825
-29.4479
-28.8008
-27.618
-25.2454
-19.7627
-4.16898
53.1079
320.295
-27.3135
-27.2324
-27.062
-26.7846
-26.368
-25.7582
-24.8622
-23.5163
-21.4157
-17.9556
-11.8396
-0.0718345
24.6077
78.8315
183.601
-24.2852
-24.1443
-23.85
-23.375
-22.6715
-21.6605
-20.2121
-18.1089
-14.9749
-10.1379
-2.35911
10.6524
32.8669
69.4532
119.667
17.5776
7.1803
3.00039
0.83333
-0.4813
-1.35375
-1.96421
-2.4054
-2.73033
-2.9716
-3.15023
-3.28017
-3.37074
-3.42806
-3.45584
11.1149
6.81103
3.66356
1.61217
0.245912
-0.700295
-1.3778
-1.87469
-2.24459
-2.52157
-2.72806
-2.87911
-2.98486
-3.05202
-3.08463
7.64104
5.63862
3.56554
1.91521
0.681418
-0.233434
-0.916811
-1.43217
-1.82335
-2.12047
-2.34436
-2.50948
-2.62578
-2.69994
-2.73604
5.55764
4.51524
3.17392
1.92898
0.895429
0.0726822
-0.572492
-1.07587
-1.46742
-1.77022
-2.00146
-2.17372
-2.29594
-2.37426
-2.41251
4.19809
3.59941
2.71535
1.79594
0.963039
0.255483
-0.326634
-0.797235
-1.17311
-1.46963
-1.69952
-1.87269
-1.99658
-2.0764
-2.11551
3.25426
2.88173
2.28129
1.60282
0.943593
0.35117
-0.158215
-0.584373
-0.933889
-1.21532
-1.43694
-1.60589
-1.72779
-1.80681
-1.84565
2.56911
2.3223
1.90141
1.39633
0.877745
0.38919
-0.0475925
-0.424731
-0.741948
-1.00252
-1.21094
-1.37173
-1.48877
-1.5651
-1.60275
2.05534
1.88372
1.58
1.1992
0.791038
0.391252
0.021611
-0.306697
-0.589339
-0.825923
-1.01802
-1.16794
-1.27802
-1.35024
-1.38599
1.66074
1.53688
1.31208
1.02106
0.698508
0.372379
0.0621103
-0.220372
-0.468711
-0.680217
-0.854376
-0.991804
-1.09355
-1.16069
-1.19404
1.35213
1.26012
1.09015
0.864812
0.608456
0.342487
0.0833136
-0.157757
-0.373658
-0.56044
-0.716235
-0.840437
-0.933113
-0.994598
-1.02524
1.10741
1.03749
0.906668
0.730095
0.525074
0.307875
0.0919447
-0.11262
-0.298824
-0.462178
-0.600027
-0.710958
-0.794328
-0.849919
-0.877704