/*--------------------------------*- C++ -*----------------------------------*\
| =========                 |                                                 |
| \\      /  F ield         | OpenFOAM: The Open Source CFD Toolbox           |
|  \\    /   O peration     | Version:  5.x                                   |
|   \\  /    A nd           | Web:      www.OpenFOAM.org                      |
|    \\/     M anipulation  |                                                 |
\*---------------------------------------------------------------------------*/
FoamFile
{
    version     2.0;
    format      ascii;
    class       volScalarField;
    location    "18";
    object      gradTy;
}
// * * * * * * * * * * * * * * * * * * * * * * * * * * * * * * * * * * * * * //

dimensions      [0 -1 0 1 0 0 0];

internalField   nonuniform List<scalar> 
6300
(
994.599
983.915
973.582
963.83
954.88
946.945
940.218
934.873
931.055
928.872
928.387
929.614
932.513
936.984
942.877
-0.176044
-0.526148
-0.870081
-1.20298
-1.51889
-1.81052
-2.06905
-2.28426
-2.44503
-2.54024
-2.56017
-2.49826
-2.35291
-2.12902
-1.83834
-0.295617
-0.883799
-1.46244
-2.02386
-2.55851
-3.05435
-3.49655
-3.86756
-4.14782
-4.31726
-4.35772
-4.25623
-4.00858
-3.62238
-3.11829
-0.418233
-1.25099
-2.072
-2.87153
-3.63694
-4.35182
-4.99524
-5.54162
-5.96144
-6.22326
-6.29722
-6.16036
-5.8028
-5.23365
-4.48402
-0.544564
-1.6299
-2.70305
-3.75328
-4.76588
-5.72073
-6.59094
-7.34218
-7.93304
-8.31706
-8.44752
-8.28514
-7.80856
-7.02532
-5.97909
-0.674693
-2.02099
-3.35702
-4.67264
-5.95258
-7.17425
-8.30558
-9.30313
-10.1114
-10.6644
-10.8906
-10.7241
-10.121
-9.08
-7.65929
-0.807909
-2.42232
-4.03139
-5.62766
-7.1975
-8.7181
-10.1539
-11.4533
-12.5451
-13.3384
-13.7265
-13.5996
-12.8712
-11.5143
-9.60075
-0.942522
-2.82899
-4.71854
-6.60906
-8.49164
-10.3466
-12.1388
-13.8109
-15.2773
-16.4177
-17.077
-17.0767
-16.2496
-14.5053
-11.9162
-1.07571
-3.23257
-5.4047
-7.59839
-9.81331
-12.038
-14.2435
-16.3742
-18.3353
-19.978
-21.0872
-21.3806
-20.5452
-18.3411
-14.7876
-1.20343
-3.62087
-6.06927
-8.56647
-11.1252
-13.7485
-16.4231
-19.1071
-21.7114
-24.0719
-25.9129
-26.813
-26.2095
-23.5261
-18.5437
-1.32058
-3.97819
-6.685
-9.47303
-12.3723
-15.4077
-18.5932
-21.9195
-25.3312
-28.6851
-31.6795
-33.7489
-33.9535
-31.01
-23.8705
-1.42126
-4.28629
-7.21948
-10.2684
-13.4831
-16.9167
-20.6224
-24.6464
-29.0087
-33.6577
-38.371
-42.5493
-44.8457
-42.6899
-32.4927
-1.49943
-4.5262
-7.63824
-10.8977
-14.3751
-18.1535
-22.3331
-27.0349
-32.3992
-38.566
-45.5971
-53.2317
-60.1897
-62.4113
-49.7759
-1.54968
-4.68081
-7.90955
-11.3091
-14.966
-18.9891
-23.5216
-28.7607
-34.9871
-42.6097
-52.2195
-64.5902
-80.2701
-96.9892
-96.1617
-1.56816
-4.73778
-8.01004
-11.4629
-15.1907
-19.3151
-24.0034
-29.499
-36.1785
-44.6659
-56.0808
-72.6393
-99.3107
-149.113
-263.048
949.402
956.04
963.242
970.861
978.755
986.786
994.829
1002.77
1010.51
1017.96
1025.06
1031.73
1037.93
1043.63
1048.78
1053.37
1057.38
1060.78
1063.58
1065.77
1067.34
1068.3
1068.63
1068.35
1067.47
1065.98
1063.89
1061.21
1057.95
1054.12
1049.73
1044.78
1039.28
1033.25
1026.69
1019.61
1012.02
1003.92
995.328
986.247
976.685
966.652
956.156
945.206
933.812
921.982
909.727
897.054
883.973
870.491
856.615
842.352
827.708
812.691
797.307
781.564
765.471
749.038
732.275
715.195
697.811
680.137
662.187
643.977
625.522
606.838
587.945
568.86
549.605
530.205
510.687
491.081
471.422
451.75
432.107
412.539
393.094
373.823
354.778
336.01
317.57
299.508
281.871
264.702
248.04
231.919
216.367
201.405
187.047
173.299
-1.52696
-1.22345
-0.912275
-0.605312
-0.312601
-0.0417208
0.20238
0.41722
0.602386
0.759019
0.889295
0.995969
1.082
1.1503
1.20357
1.24417
1.27417
1.29529
1.30896
1.31637
1.31848
1.3161
1.30989
1.30042
1.2882
1.27369
1.25732
1.23954
1.22076
1.20142
1.18189
1.16252
1.14358
1.1252
1.10743
1.09018
1.07325
1.05637
1.03927
1.02166
1.0034
0.984421
0.964835
0.944884
0.924914
0.905329
0.886511
0.868751
0.852185
0.836752
0.82218
0.808005
0.793631
0.778401
0.761689
0.742985
0.721963
0.698509
0.672712
0.644819
0.61515
0.583992
0.551494
0.517575
0.48186
0.443667
0.402042
0.355841
0.303858
0.244968
0.178281
0.103269
0.0198543
-0.0715485
-0.170047
-0.274332
-0.382773
-0.493523
-0.604629
-0.71411
-0.820005
-0.920391
-1.01337
-1.09708
-1.16964
-1.22929
-1.27441
-1.30371
-1.31636
-1.31216
-2.57761
-2.05143
-1.51384
-0.986225
-0.486264
-0.0268809
0.383942
0.742704
1.04952
1.30713
1.51987
1.69295
1.83169
1.94123
2.02619
2.09059
2.13782
2.17073
2.19163
2.20241
2.20465
2.1996
2.18833
2.17175
2.15065
2.12576
2.09779
2.06747
2.0355
2.00264
1.96955
1.93686
1.90504
1.87436
1.84488
1.81644
1.78865
1.76098
1.73288
1.70381
1.67344
1.64165
1.60863
1.57482
1.5409
1.50765
1.47583
1.44601
1.4185
1.39322
1.36966
1.34699
1.32408
1.29969
1.27265
1.242
1.20715
1.16791
1.12453
1.07754
1.02764
0.975478
0.921451
0.865519
0.807082
0.74495
0.677395
0.602316
0.517464
0.420731
0.310427
0.185527
0.0458414
-0.107919
-0.27417
-0.450581
-0.634258
-0.821961
-1.0103
-1.1959
-1.37547
-1.54581
-1.70378
-1.84625
-1.97004
-2.07202
-2.14928
-2.1994
-2.2208
-2.21303
-3.67822
-2.89593
-2.10114
-1.32743
-0.601613
0.0577605
0.640343
1.14285
1.56738
1.91966
2.20743
2.43918
2.62327
2.76739
2.87825
2.96153
3.02193
3.06327
3.08866
3.10059
3.1011
3.09187
3.07425
3.0494
3.01836
2.98206
2.94146
2.89755
2.85136
2.80397
2.75645
2.70976
2.66465
2.62159
2.58066
2.54157
2.50367
2.46604
2.42768
2.38767
2.34534
2.30049
2.25337
2.20474
2.15575
2.10775
2.06208
2.01979
1.98146
1.94702
1.91572
1.88617
1.8565
1.82466
1.78866
1.74692
1.69849
1.64316
1.58141
1.51432
1.44326
1.36952
1.29403
1.21695
1.13751
1.05393
0.963479
0.862761
0.748084
0.615943
0.463501
0.288994
0.0920169
-0.126376
-0.363734
-0.616432
-0.880006
-1.14953
-1.41998
-1.68644
-1.94427
-2.18907
-2.41655
-2.62233
-2.80185
-2.95037
-3.06325
-3.13648
-3.16727
-3.15471
-4.85036
-3.75833
-2.65795
-1.59953
-0.621148
0.253127
1.0122
1.65542
2.18943
2.62525
2.9758
3.25418
3.47256
3.64158
3.77017
3.86558
3.93364
3.97896
4.00522
4.01537
4.01177
3.99637
3.97073
3.93616
3.89381
3.84474
3.79009
3.73109
3.66911
3.60568
3.54234
3.48055
3.4215
3.36592
3.31397
3.26518
3.21848
3.17234
3.12505
3.07501
3.02107
2.96276
2.90045
2.83535
2.76934
2.70467
2.64362
2.58803
2.53897
2.49647
2.45942
2.42566
2.39222
2.35575
2.31307
2.26162
2.19994
2.12777
2.04612
1.95697
1.86284
1.76623
1.66902
1.5719
1.47403
1.37291
1.26446
1.14341
1.00395
0.840492
0.648445
0.424916
0.169124
-0.117435
-0.43112
-0.766534
-1.1171
-1.47571
-1.83531
-2.18931
-2.53176
-2.85722
-3.1605
-3.43618
-3.67824
-3.87997
-4.03428
-4.1346
-4.17613
-4.15699
-6.11741
-4.63277
-3.15431
-1.75638
-0.490732
0.614426
1.55095
2.32531
2.95296
3.45369
3.84815
4.15565
4.39299
4.57406
4.7099
4.80908
4.87815
4.92216
4.94506
4.94999
4.93952
4.91569
4.88015
4.83421
4.77899
4.71555
4.64507
4.56899
4.48905
4.40733
4.32608
4.2475
4.17345
4.10512
4.04283
3.98588
3.93256
3.88039
3.82647
3.76808
3.70318
3.63087
3.55165
3.46738
3.38109
3.29649
3.2174
3.14696
3.08712
3.03815
2.99848
2.96479
2.93238
2.8959
2.85018
2.79117
2.71655
2.62612
2.52172
2.40687
2.28608
2.1639
2.04395
1.92799
1.81532
1.70253
1.58365
1.45065
1.29447
1.10628
0.878796
0.607367
0.29061
-0.0693576
-0.467145
-0.89475
-1.34254
-1.80038
-2.25863
-2.70877
-3.14364
-3.55725
-3.94412
-4.29836
-4.61267
-4.8778
-5.08297
-5.21733
-5.2723
-5.2441
-7.50378
-5.49817
-3.53461
-1.72259
-0.129049
1.21875
2.32347
3.2067
3.8995
4.43543
4.84601
5.15843
5.39474
5.57195
5.70273
5.79624
5.85906
5.89608
5.91108
5.90714
5.88684
5.85223
5.8049
5.74599
5.67636
5.59685
5.50849
5.4128
5.31193
5.20868
5.10634
5.0083
4.91752
4.836
4.76439
4.70172
4.64537
4.59131
4.53472
4.4709
4.39633
4.30932
4.21048
4.10268
3.99075
3.88076
3.77905
3.69098
3.61997
3.56679
3.52928
3.50239
3.47874
3.44966
3.40675
3.34349
3.25626
3.14491
3.01266
2.86561
2.71159
2.55866
2.41343
2.27961
2.15702
2.04119
1.92341
1.7915
1.63131
1.42886
1.17265
0.855306
0.474527
0.0333835
-0.460035
-0.993704
-1.55332
-2.1243
-2.69346
-3.25004
-3.78598
-4.29563
-4.77459
-5.21792
-5.61779
-5.96185
-6.23353
-6.41427
-6.48816
-6.44747
-9.03302
-6.30295
-3.69658
-1.37412
0.586598
2.17322
3.4151
4.36252
5.0722
5.59793
5.98549
6.27112
6.48188
6.63702
6.74955
6.8279
6.87746
6.90204
6.90469
6.88821
6.8551
6.80745
6.74668
6.67356
6.58836
6.49128
6.38286
6.26448
6.13862
6.00911
5.88081
5.75906
5.64866
5.55302
5.47347
5.40886
5.35528
5.3063
5.25377
5.18962
5.10778
5.00522
4.88263
4.74433
4.59799
4.45352
4.32147
4.21083
4.12752
4.07324
4.04516
4.03571
4.03329
4.02368
3.993
3.93068
3.83105
3.69411
3.52526
3.33474
3.13584
2.94264
2.76678
2.61536
2.48929
2.38294
2.28379
2.17337
2.02926
1.82911
1.55481
1.19483
0.74561
0.211637
-0.394732
-1.05508
-1.74749
-2.45062
-3.14621
-3.82082
-4.46599
-5.07801
-5.6562
-6.1999
-6.70308
-7.14999
-7.5149
-7.76494
-7.86888
-7.81071
-10.7192
-6.92957
-3.44971
-0.504819
1.8408
3.62397
4.9306
5.86057
6.50973
6.95937
7.27172
7.4916
7.64909
7.76345
7.84558
7.90099
7.93184
7.93956
7.92587
7.89322
7.84432
7.78154
7.70626
7.61854
7.51748
7.40204
7.2716
7.12693
6.97062
6.80783
6.64587
6.49352
6.35857
6.24692
6.16108
6.10017
6.05862
6.02644
5.98959
5.93387
5.8491
5.73002
5.57746
5.3976
5.20262
5.00844
4.83311
4.6914
4.59335
4.54205
4.53426
4.55898
4.59827
4.62812
4.62486
4.57165
4.45961
4.28931
4.06913
3.81601
3.55195
3.30171
3.08503
2.91465
2.79326
2.7144
2.66046
2.60383
2.50798
2.33619
2.06039
1.66292
1.13879
0.4942
-0.251639
-1.0702
-1.92615
-2.78773
-3.62905
-4.43391
-5.19363
-5.90901
-6.58737
-7.2401
-7.86931
-8.45609
-8.96156
-9.3259
-9.4829
-9.39871
-12.5368
-7.11018
-2.43265
1.22721
3.90453
5.76036
6.98785
7.76233
8.23389
8.51783
8.69045
8.80127
8.87776
8.93565
8.97941
9.0088
9.01884
9.00722
8.97363
8.92092
8.85281
8.7729
8.68304
8.58199
8.46659
8.33365
8.1801
8.00544
7.81119
7.60465
7.39635
7.20219
7.03423
6.9029
6.81209
6.76287
6.74775
6.75261
6.75186
6.71926
6.63915
6.50233
6.3109
6.07197
5.80542
5.53556
5.29568
5.10848
4.99121
4.94757
4.97596
5.06069
5.17623
5.27966
5.32811
5.29675
5.17154
4.95578
4.65992
4.31249
3.94767
3.61194
3.33615
3.14293
3.03555
3.00955
3.0406
3.09033
3.09568
2.99268
2.74081
2.31306
1.70509
0.922233
-0.0041416
-1.03174
-2.09696
-3.15424
-4.1646
-5.11218
-5.98526
-6.79343
-7.55554
-8.31425
-9.09668
-9.87931
-10.6114
-11.1854
-11.4442
-11.3152
-14.3053
-6.21242
0.0495235
4.37387
7.15091
8.80105
9.69674
10.0995
10.2274
10.2357
10.1973
10.1595
10.1323
10.1273
10.133
10.1436
10.1361
10.1056
10.0479
9.96982
9.87729
9.77757
9.67491
9.56509
9.4399
9.29392
9.11795
8.9111
8.66845
8.40294
8.12545
7.87209
7.6561
7.49948
7.40218
7.37544
7.40709
7.48581
7.55897
7.57206
7.50983
7.35231
7.11173
6.78515
6.412
6.01857
5.68144
5.42393
5.28213
5.24848
5.33562
5.51713
5.7708
6.0095
6.14543
6.15617
6.01303
5.7368
5.32421
4.83322
4.30077
3.83514
3.46763
3.24693
3.15996
3.22189
3.39322
3.64015
3.83879
3.86296
3.67394
3.22217
2.52272
1.55644
0.388653
-0.939547
-2.2796
-3.5887
-4.7909
-5.89801
-6.87064
-7.7444
-8.52878
-9.35441
-10.3239
-11.3753
-12.4891
-13.4989
-13.9639
-13.738
-15.2059
-2.67848
5.32136
9.74853
12.0203
12.9286
13.116
12.8332
12.3934
12.0217
11.7039
11.5029
11.3557
11.304
11.2803
11.305
11.2871
11.2436
11.1525
11.0402
10.9129
10.7873
10.6779
10.5711
10.444
10.2982
10.1011
9.86915
9.55946
9.21936
8.82066
8.48907
8.19334
8.01153
7.89154
7.9048
7.99955
8.2279
8.45347
8.53418
8.51862
8.32276
8.0373
7.56627
7.04868
6.4214
5.95339
5.57364
5.41818
5.37626
5.56024
5.87046
6.38771
6.88811
7.14379
7.23795
7.04694
6.71493
6.10214
5.41438
4.5584
3.91778
3.38841
3.15905
3.07062
3.27731
3.63758
4.26006
4.83374
5.04076
4.98598
4.4885
3.72512
2.48136
1.01298
-0.829754
-2.50631
-4.17659
-5.55366
-6.87701
-7.89798
-8.82366
-9.44225
-10.187
-11.4327
-12.7813
-14.516
-16.5964
-17.4784
-16.9884
-11.516
7.37532
15.7376
18.2264
18.8526
18.0939
17.2119
15.7929
14.4611
13.7297
13.0423
12.7684
12.4414
12.4403
12.3576
12.5276
12.4749
12.45
12.2874
12.1321
11.9458
11.7734
11.6769
11.6064
11.4747
11.3763
11.1344
10.939
10.4941
10.12
9.41908
9.0543
8.56643
8.43441
8.18891
8.31672
8.3995
8.97388
9.55647
9.63481
9.78694
9.42214
9.22998
8.41434
7.84325
6.5948
6.09819
5.40029
5.39067
5.17867
5.60304
5.9256
7.02881
8.11906
8.37467
8.73029
8.28384
8.09732
6.98801
6.23771
4.5059
3.84017
2.87718
2.86821
2.55629
3.11158
3.50433
4.95025
6.35665
6.59552
6.93547
6.1377
5.61923
3.72973
2.17638
-0.959236
-2.74201
-5.18662
-6.39371
-8.29135
-9.06245
-10.345
-10.1739
-10.2982
-12.3934
-13.631
-16.0451
-21.4193
-22.9684
-21.6658
15.0563
32.5911
34.6116
29.3863
27.6786
23.4364
22.0804
18.6264
15.6638
15.3737
13.7846
14.1101
13.0573
13.6935
13.0705
14.0702
13.6221
13.8541
13.4112
13.2681
12.9582
12.6494
12.6379
12.7293
12.4568
12.6604
12.1001
12.3673
11.3264
11.4907
9.53283
9.79614
8.42648
9.0201
7.94811
8.79285
8.09094
9.70744
11.385
10.6286
11.7991
10.2723
11.3199
8.90967
9.61264
5.68497
6.53232
4.23529
5.65406
4.0642
5.79194
4.85608
7.68809
10.5514
9.46105
11.3771
9.14593
10.808
7.35641
8.47399
2.91779
4.1902
0.991744
3.01322
0.792827
3.17952
1.85418
5.69698
9.56044
8.00437
10.5229
7.38435
9.48733
4.49371
5.61798
-3.03708
-2.02488
-7.97889
-6.2395
-11.3281
-9.49054
-13.9597
-10.4802
-7.57117
-14.5889
-12.7867
-13.3117
-31.7501
-32.5648
-28.8839
161.972
80.1468
63.9189
35.4807
40.1541
24.6226
29.9699
20.7526
13.0179
18.8887
11.7698
17.4365
11.2414
16.7601
11.4469
17.6978
13.7902
16.23
14.1036
14.6443
13.9692
13.0976
13.4509
14.3763
12.7538
15.0446
11.8745
15.6796
10.4236
15.9174
6.4484
12.8898
5.45971
12.0046
4.9475
11.4965
4.44418
10.3534
16.7187
8.84779
17.6955
7.41583
18.3893
4.92231
18.0505
-2.10054
11.4947
-2.28009
10.2502
-1.82725
9.81673
-1.63882
8.30264
18.6771
6.21844
19.9964
4.40192
20.8828
1.14541
20.3208
-8.50317
10.9786
-8.41006
9.26681
-7.60453
8.59305
-7.23782
6.41418
20.5685
3.54594
22.2569
1.08333
23.5747
-3.55188
23.142
-19.0355
8.72383
-21.8493
3.74718
-24.338
-0.836725
-29.0203
-9.96464
9.45049
-29.4848
-8.59102
15.2174
-67.4586
-48.6346
-40.9698
158.845
143.937
129.858
116.565
104.004
92.1149
80.8324
70.0889
59.8164
49.9473
40.4152
31.1556
22.1057
13.2044
4.39165
-1.28955
-1.24315
-1.17818
-1.09847
-1.00805
-0.910708
-0.809706
-0.707605
-0.606246
-0.506792
-0.409824
-0.315457
-0.223443
-0.13328
-0.0442926
-2.17332
-2.09252
-1.97999
-1.84267
-1.68777
-1.52193
-1.35074
-1.17853
-1.0083
-0.841898
-0.680159
-0.52315
-0.370353
-0.22083
-0.0733749
-3.09456
-2.97361
-2.80657
-2.60445
-2.37842
-2.13847
-1.8928
-1.64746
-1.40654
-1.17233
-0.945756
-0.726628
-0.513983
-0.306311
-0.101751
-4.07109
-3.90076
-3.66819
-3.39013
-3.08294
-2.76073
-2.43449
-2.11197
-1.79803
-1.49513
-1.2039
-0.923616
-0.652636
-0.388675
-0.129067
-5.12419
-4.8901
-4.57526
-4.20491
-3.80247
-3.38699
-2.97242
-2.56787
-2.17846
-1.80624
-1.45107
-1.1113
-0.784261
-0.466684
-0.15491
-6.28051
-5.96012
-5.53779
-5.05174
-4.53498
-4.01232
-3.50031
-3.00862
-2.54168
-2.10028
-1.68284
-1.28622
-0.90642
-0.538884
-0.178796
-7.57496
-7.13198
-6.56395
-5.92923
-5.27334
-4.62693
-4.00786
-3.42459
-2.87932
-2.37036
-1.89375
-1.44433
-1.0163
-0.603631
-0.200185
-9.0551
-8.42879
-7.65672
-6.82779
-6.00217
-5.21416
-4.47955
-3.80252
-3.18062
-2.60805
-2.07747
-1.58102
-1.11082
-0.659146
-0.218497
-10.7867
-9.87129
-8.80627
-7.72295
-6.6933
-5.74793
-4.89363
-4.12526
-3.43256
-2.80373
-2.22704
-1.69145
-1.18679
-0.703634
-0.23315
-12.8569
-11.4634
-9.97406
-8.56438
-7.30008
-6.19056
-5.22174
-4.37228
-3.6206
-2.94725
-2.33548
-1.77094
-1.24124
-0.735445
-0.243618
-15.3592
-13.1513
-11.0621
-9.26034
-7.75201
-6.49244
-5.43041
-4.52148
-3.73026
-3.02917
-2.39666
-1.81556
-1.27176
-0.753284
-0.24949
-18.2921
-14.7203
-11.8624
-9.66282
-7.95509
-6.59672
-5.48592
-4.55293
-3.74974
-3.04247
-2.40642
-1.82286
-1.27696
-0.756431
-0.250547
-21.1161
-15.5752
-12.0043
-9.57335
-7.80871
-6.45336
-5.36356
-4.45455
-3.67325
-2.98451
-2.36366
-1.79248
-1.25678
-0.744922
-0.24681
-21.0068
-14.4598
-11.0063
-8.81744
-7.25297
-6.04438
-5.06037
-4.22838
-3.50418
-2.85863
-2.2712
-1.72659
-1.21275
-0.71966
-0.238577
-1.55711
-4.70378
-7.95043
-11.3731
-15.0636
-19.1408
-23.7683
-29.1843
-35.7602
-44.1154
-55.377
-71.8165
-98.6034
-149.124
-262.287
-1.52221
-4.59626
-7.7614
-11.086
-14.6515
-18.5605
-22.9491
-28.0073
-34.0104
-41.3708
-50.712
-62.9105
-78.7121
-95.6139
-89.3198
-1.46673
-4.42548
-7.46157
-10.6317
-14.0009
-17.6469
-21.665
-26.1741
-31.3178
-37.2505
-44.0624
-51.5018
-58.0563
-58.212
-36.0368
-1.39369
-4.20097
-7.06861
-10.0391
-13.1581
-16.4747
-20.0399
-23.8999
-28.0771
-32.5197
-36.9771
-40.7073
-41.8435
-36.3174
-17.4054
-1.30683
-3.93452
-6.60419
-9.34336
-12.178
-15.1298
-18.2099
-21.4055
-24.6521
-27.7782
-30.3968
-31.7144
-30.2572
-23.7182
-9.81475
-1.21023
-3.6389
-6.09147
-8.58125
-11.1165
-13.6958
-16.2997
-18.8754
-21.3107
-23.389
-24.7197
-24.6484
-22.1998
-16.2331
-6.20051
-1.10794
-3.32667
-5.55289
-7.78752
-10.0244
-12.2448
-14.4089
-16.4428
-18.2172
-19.5189
-20.016
-19.233
-16.5857
-11.5713
-4.23101
-1.00364
-3.00924
-5.00842
-6.99222
-8.94366
-10.8327
-12.6087
-14.1903
-15.4518
-16.2076
-16.2011
-15.1123
-12.6153
-8.52455
-3.04052
-0.900524
-2.69625
-4.47463
-6.21934
-7.90625
-9.49902
-10.9434
-12.1601
-13.0375
-13.4256
-13.1377
-11.9694
-9.75154
-6.4454
-2.26459
-0.801096
-2.39529
-3.96419
-5.48656
-6.93419
-8.2684
-9.43606
-10.3654
-10.963
-11.1131
-10.6855
-9.55547
-7.64351
-4.97363
-1.73057
-0.707221
-2.11187
-3.48605
-4.80567
-6.04086
-7.15339
-8.09418
-8.80122
-9.19911
-9.20179
-8.72115
-7.68444
-6.06178
-3.89989
-1.34797
-0.62014
-1.84962
-3.04577
-4.18338
-5.23267
-6.15762
-6.91458
-7.45163
-7.70964
-7.62605
-7.14291
-6.2203
-4.8545
-3.09699
-1.06539
-0.540561
-1.61049
-2.64615
-3.62241
-4.5108
-5.27849
-5.88766
-6.29579
-6.45737
-6.32774
-5.86984
-5.06391
-3.91921
-2.48443
-0.851677
-0.46875
-1.39515
-2.28776
-3.12243
-3.87273
-4.50941
-5.00032
-5.31114
-5.40729
-5.25737
-4.83842
-4.14276
-3.18533
-2.00933
-0.68699
-0.404645
-1.20328
-1.9696
-2.68103
-3.31355
-3.84154
-4.23801
-4.47554
-4.52808
-4.37381
-3.99913
-3.40336
-2.60324
-1.63586
-0.558156
-0.347938
-1.03383
-1.68956
-2.29442
-2.82695
-3.26498
-3.58605
-3.76839
-3.79245
-3.64328
-3.31337
-2.80586
-2.13729
-1.33899
-0.456132
-0.298166
-0.885316
-1.44483
-1.95803
-2.40596
-2.76962
-3.03043
-3.17112
-3.17711
-3.03825
-2.75092
-2.32019
-1.76141
-1.10084
-0.374528
-0.254767
-0.75599
-1.23227
-1.66696
-2.04349
-2.34568
-2.5582
-2.66739
-2.66236
-2.5363
-2.28805
-1.92343
-1.45623
-0.908328
-0.308717
-0.217137
-0.643984
-1.04858
-1.41625
-1.73264
-1.984
-2.15772
-2.24298
-2.23163
-2.1192
-1.90597
-1.5979
-1.20707
-0.751725
-0.255281
-0.184666
-0.547424
-0.890537
-1.20117
-1.46693
-1.67622
-1.81866
-1.88565
-1.87108
-1.77208
-1.58977
-1.32981
-1.00273
-0.623657
-0.211648
-0.156757
-0.464505
-0.755046
-1.01723
-1.24043
-1.41486
-1.53199
-1.58495
-1.56915
-1.48281
-1.32747
-1.10835
-0.834477
-0.518461
-0.175851
-0.132852
-0.393533
-0.639245
-0.860355
-1.04779
-1.1933
-1.28986
-1.33199
-1.31621
-1.24146
-1.10946
-0.924897
-0.695491
-0.431731
-0.146368
-0.112435
-0.332955
-0.540526
-0.726868
-0.884246
-1.00574
-1.08553
-1.11923
-1.1042
-1.03986
-0.927939
-0.772584
-0.580358
-0.360001
-0.122004
-0.0950386
-0.281367
-0.456548
-0.61349
-0.745622
-0.84713
-0.913207
-0.940314
-0.926437
-0.871308
-0.776576
-0.645873
-0.484758
-0.300519
-0.101814
-0.0802452
-0.237518
-0.385235
-0.51734
-0.628262
-0.713121
-0.767939
-0.789853
-0.777313
-0.730251
-0.65019
-0.540277
-0.405214
-0.251082
-0.0850435
-0.0676855
-0.200306
-0.32476
-0.435896
-0.528999
-0.599972
-0.645518
-0.663314
-0.65216
-0.612107
-0.544533
-0.452144
-0.338912
-0.209912
-0.0710837
-0.0570357
-0.168762
-0.273534
-0.366974
-0.4451
-0.504476
-0.542367
-0.556876
-0.547072
-0.513073
-0.456104
-0.378483
-0.283557
-0.175566
-0.0594425
-0.0480138
-0.142049
-0.230175
-0.308686
-0.374221
-0.423899
-0.455449
-0.46732
-0.458782
-0.42999
-0.382016
-0.316838
-0.237275
-0.146868
-0.0497185
-0.0403755
-0.119437
-0.193492
-0.259407
-0.314351
-0.35591
-0.382195
-0.391936
-0.384556
-0.360224
-0.319873
-0.265182
-0.198521
-0.122851
-0.0415829
-0.0339101
-0.100302
-0.162462
-0.217747
-0.263775
-0.298526
-0.320428
-0.328439
-0.322101
-0.301582
-0.267686
-0.221837
-0.166024
-0.10272
-0.0347653
-0.0284365
-0.0841048
-0.136205
-0.182513
-0.221029
-0.250062
-0.268308
-0.274906
-0.269492
-0.252227
-0.223799
-0.18541
-0.138728
-0.0858172
-0.0290422
-0.0237993
-0.0703849
-0.113971
-0.15269
-0.184866
-0.209089
-0.224274
-0.229712
-0.225113
-0.210623
-0.186828
-0.154742
-0.115758
-0.0715976
-0.0242283
-0.0198655
-0.0587476
-0.0951167
-0.127409
-0.154226
-0.174393
-0.187007
-0.191488
-0.187602
-0.175478
-0.155616
-0.128862
-0.0963819
-0.0596063
-0.0201693
-0.0165212
-0.0488551
-0.0790926
-0.10593
-0.128205
-0.144939
-0.155389
-0.159075
-0.155809
-0.145707
-0.129188
-0.106959
-0.0799882
-0.049463
-0.0167362
-0.0136687
-0.0404183
-0.0654289
-0.0876205
-0.106029
-0.119849
-0.128466
-0.131488
-0.128764
-0.120393
-0.106725
-0.0883482
-0.0660626
-0.0408484
-0.0138208
-0.0112242
-0.033189
-0.0537227
-0.0719371
-0.0870405
-0.0983716
-0.105428
-0.107891
-0.105638
-0.0987557
-0.0875322
-0.0724512
-0.0541704
-0.0334929
-0.0113317
-0.00911563
-0.0269533
-0.0436268
-0.0584138
-0.0706711
-0.079862
-0.0855802
-0.0875678
-0.0857284
-0.0801328
-0.0710175
-0.0587761
-0.0439423
-0.0271675
-0.00919138
-0.00728029
-0.0215261
-0.0348407
-0.0466469
-0.0564307
-0.0637638
-0.0683225
-0.0699019
-0.0684264
-0.0639536
-0.0566736
-0.0469009
-0.0350619
-0.0216762
-0.0073334
-0.00566352
-0.0167454
-0.0271021
-0.0362842
-0.0438918
-0.0495921
-0.0531334
-0.0543572
-0.0532055
-0.0497238
-0.0440604
-0.0364604
-0.0272556
-0.0168496
-0.00570037
-0.00421698
-0.0124682
-0.0201791
-0.0270148
-0.0326774
-0.0369193
-0.0395535
-0.0404621
-0.0396024
-0.0370087
-0.0327918
-0.0271344
-0.0202833
-0.0125389
-0.00424198
-0.00289728
-0.00856626
-0.0138638
-0.0185597
-0.0224495
-0.0253629
-0.0271716
-0.0277948
-0.0272032
-0.0254207
-0.0225235
-0.0186371
-0.0139312
-0.00861198
-0.00291346
-0.00166479
-0.00492221
-0.00796619
-0.0106645
-0.0128996
-0.0145736
-0.0156129
-0.015971
-0.015631
-0.0146068
-0.012942
-0.0107089
-0.00800485
-0.00494845
-0.00167407
-0.000482406
-0.00142636
-0.00230861
-0.0030909
-0.00373919
-0.00422509
-0.00452715
-0.00463179
-0.00453401
-0.00423762
-0.00375523
-0.00310767
-0.00232321
-0.00143627
-0.000485911
0.000685495
0.00202665
0.00327956
0.00438964
0.00530844
0.00599578
0.0064215
0.00656681
0.00642512
0.00600238
0.00531689
0.00439848
0.00328726
0.00203187
0.000687345
0.00187411
0.00554091
0.0089669
0.012003
0.0145168
0.0163983
0.0175648
0.0179647
0.0175794
0.0164248
0.0145507
0.0120385
0.00899783
0.0055619
0.00188154
0.00311927
0.00922238
0.0149249
0.019979
0.0241641
0.0272972
0.0292405
0.0299076
0.0292677
0.0273468
0.0242276
0.0200454
0.0149828
0.00926165
0.00313316
0.00445846
0.0131819
0.0213333
0.0285582
0.0345418
0.0390222
0.0418023
0.0427582
0.0418454
0.0391009
0.0346425
0.0286636
0.0214251
0.0132442
0.00448049
0.00593196
0.0175387
0.028385
0.0379994
0.0459632
0.0519278
0.0556306
0.0569062
0.0556948
0.0520451
0.0461132
0.0381563
0.0285216
0.0176315
0.00596477
0.00758401
0.0224236
0.0362918
0.0485867
0.0587726
0.066404
0.0711441
0.072781
0.0712371
0.0665738
0.05899
0.048814
0.0364898
0.022558
0.00763154
0.00946408
0.027983
0.0452912
0.0606381
0.0733558
0.0828875
0.0888124
0.0908644
0.0889453
0.0831304
0.0736666
0.0609632
0.0455742
0.0281751
0.00953203
0.0116283
0.0343829
0.0556523
0.0745152
0.0901511
0.101875
0.10917
0.111705
0.109358
0.10222
0.0905926
0.0749769
0.0560544
0.0346558
0.0117249
0.0141411
0.0418141
0.0676843
0.0906329
0.109662
0.123939
0.132831
0.135935
0.133099
0.124428
0.110288
0.0912867
0.0682537
0.0422006
0.0142778
0.017077
0.050497
0.0817449
0.109472
0.132473
0.149742
0.160511
0.16429
0.160889
0.150433
0.133357
0.110396
0.08255
0.0510435
0.0172703
0.0205225
0.0606881
0.0982504
0.131591
0.159265
0.180058
0.193045
0.19763
0.193579
0.181034
0.160514
0.132897
0.0993878
0.0614601
0.0207956
0.0245788
0.0726866
0.117687
0.157646
0.190833
0.215794
0.231412
0.236967
0.232167
0.217172
0.192597
0.159491
0.119293
0.0737769
0.0249644
0.0293639
0.0868428
0.140624
0.188403
0.228114
0.258016
0.276767
0.283494
0.277832
0.259962
0.230605
0.191007
0.142892
0.0883823
0.0299085
0.0350162
0.103567
0.167728
0.224761
0.272206
0.307979
0.330472
0.338621
0.331975
0.310727
0.275722
0.228438
0.17093
0.10574
0.035785
0.0416974
0.123338
0.199781
0.267777
0.324401
0.367165
0.394135
0.404022
0.396258
0.371044
0.329365
0.272969
0.204302
0.126407
0.0427829
0.0495967
0.146718
0.237698
0.31869
0.386219
0.437317
0.469659
0.481678
0.472656
0.442793
0.393227
0.32602
0.244081
0.15105
0.0511292
0.0589347
0.174362
0.28255
0.378952
0.459445
0.520491
0.559295
0.573942
0.563525
0.528221
0.469338
0.389299
0.291561
0.180479
0.0610983
0.069968
0.207034
0.335584
0.450259
0.546174
0.61911
0.665702
0.683611
0.671673
0.630021
0.56014
0.464866
0.348306
0.215669
0.0730228
0.0829941
0.245618
0.398253
0.534592
0.648857
0.73602
0.792025
0.814001
0.800454
0.751422
0.668572
0.555213
0.416214
0.25781
0.0873072
0.098356
0.291137
0.472238
0.634252
0.770357
0.874564
0.941976
0.969057
0.953873
0.896304
0.798188
0.663364
0.497596
0.308352
0.104446
0.116448
0.344766
0.559474
0.751901
0.914006
1.03865
1.11993
1.15346
1.13672
1.06934
0.953291
0.793
0.595277
0.369074
0.125047
0.137717
0.407845
0.662179
0.890605
1.08366
1.23286
1.33104
1.37276
1.35473
1.27617
1.13911
0.948626
0.712733
0.442172
0.149862
0.162669
0.48189
0.782873
1.05387
1.28377
1.46249
1.58134
1.63355
1.61477
1.5236
1.36204
1.13578
0.85426
0.530372
0.179824
0.19187
0.568597
0.924389
1.24565
1.51942
1.73368
1.87792
1.94364
1.92508
1.81991
1.62988
1.3613
1.02521
0.637082
0.216106
0.22594
0.669841
1.08988
1.47043
1.79637
2.0535
2.22901
2.31224
2.29553
2.17515
1.95227
1.6337
1.23228
0.766604
0.26019
0.265551
0.787652
1.28278
1.73311
2.12111
2.42998
2.64417
2.75024
2.73795
2.60155
2.34109
1.96364
1.48395
0.924416
0.313971
0.311411
0.924188
1.5068
2.03906
2.5008
2.87221
3.1344
3.27042
3.26655
3.11408
2.81115
2.36457
1.79108
1.11757
0.379901
0.364243
1.08167
1.76578
2.39396
2.94321
3.39026
3.71224
3.88772
3.89834
3.73108
3.38094
2.85361
2.16764
1.35529
0.461198
0.424755
1.26228
2.06358
2.80368
3.45656
3.99515
4.39181
4.61948
4.65362
4.47507
4.07377
3.4528
2.63197
1.64976
0.562148
0.493589
1.46804
2.40388
3.27396
4.04927
4.69857
5.18871
5.48563
5.55658
5.37373
4.91913
4.19075
3.20836
2.01741
0.688572
0.571258
1.70061
2.78982
3.81004
4.72945
5.51251
6.11976
6.50866
6.63576
6.46107
5.9546
5.10509
3.92958
2.48079
0.848541
0.658067
1.96104
3.22366
4.41611
5.5043
6.4485
7.20243
7.71345
7.92449
7.77879
7.22824
6.24579
4.84054
3.07158
1.05353
0.75401
2.24949
3.70621
5.09455
6.37912
7.51659
8.45375
9.12651
9.46092
9.37762
8.80179
7.68007
6.00406
3.83533
1.32031
0.858659
2.56484
4.23625
5.84501
7.35606
8.72376
9.88863
10.7745
11.2874
11.3184
10.7544
9.49923
7.50973
4.83955
1.67432
0.971036
2.90434
4.80975
6.66332
8.4325
10.0717
11.5172
12.6815
13.4484
13.6725
13.1869
11.8283
9.48804
6.18755
2.15568
1.0895
3.26318
5.41923
7.5402
9.59915
11.5542
13.3411
14.8643
15.9863
16.5194
16.2254
14.8391
12.1331
8.04342
2.83114
1.21166
3.63424
6.05306
8.4601
10.8379
13.1533
15.348
17.3256
18.9331
19.9404
20.0226
18.7663
15.7391
10.6788
3.81908
1.33432
4.0079
6.69503
9.40025
12.12
14.8362
17.5058
20.0437
22.2967
24.0039
24.7492
23.9231
20.757
14.5637
5.34757
1.45356
4.37213
7.3244
10.3303
13.4045
16.5514
19.7548
22.9598
26.0391
28.7353
30.567
30.7047
27.877
20.5478
7.90309
1.56484
4.71295
7.91651
11.2128
14.6385
18.2272
22.0026
25.963
30.0476
34.0667
37.5611
39.5455
38.1228
30.2232
12.654
1.66331
5.01524
8.44421
12.0053
15.7592
19.7733
24.1219
28.8798
34.1015
39.7625
45.6038
50.752
52.8664
46.6133
22.7791
1.7442
5.264
8.8801
12.664
16.699
21.0871
25.9569
31.4743
37.8503
45.3327
54.1275
64.065
73.4206
75.2121
47.9904
1.80328
5.44586
9.19942
13.1482
17.3937
22.0662
27.3421
33.4725
40.8305
49.9915
61.8575
77.7817
99.2272
123.959
120.951
1.83733
5.55062
9.38314
13.4263
17.7918
22.6262
28.1338
34.618
42.5586
52.7715
66.7688
87.6637
122.751
191.968
359.808
1.84456
5.57256
9.42056
13.4804
17.8642
22.7186
28.2473
34.7521
42.7084
52.9231
66.8899
87.6892
122.574
191.489
359.237
1.82477
5.51113
9.31082
13.3095
17.6098
22.3425
27.6829
33.8779
41.2897
50.469
62.2658
77.9325
98.7639
122.376
118.378
1.77941
5.37098
9.06286
12.9291
17.0551
21.5443
26.525
32.1586
38.6435
46.1967
54.954
64.5889
73.0226
72.4341
39.1575
-13.3141
-10.8606
-9.01907
-7.59158
-6.43949
-5.47778
-4.6529
-3.92934
-3.28236
-2.69387
-2.15011
-1.6401
-1.15479
-0.68633
-0.2277
-4.99574
-6.92814
-6.84576
-6.24995
-5.5475
-4.85469
-4.20312
-3.59781
-3.03525
-2.50944
-2.0139
-1.54239
-1.08907
-0.64844
-0.215319
-2.27399
-4.39478
-5.02893
-4.98235
-4.64876
-4.20293
-3.72119
-3.23655
-2.7626
-2.30395
-1.86098
-1.43204
-1.01452
-0.605335
-0.201213
-1.23776
-2.89378
-3.68481
-3.91401
-3.82794
-3.57607
-3.24124
-2.86786
-2.47931
-2.08756
-1.69831
-1.31375
-0.934169
-0.558711
-0.185929
-0.770612
-1.99344
-2.73082
-3.0646
-3.12222
-3.0068
-2.78803
-2.50967
-2.19823
-1.86943
-1.53235
-1.19201
-0.850949
-0.510224
-0.170003
-0.524567
-1.43021
-2.0571
-2.40693
-2.53664
-2.50928
-2.37619
-2.17443
-1.92919
-1.65704
-1.36865
-1.07075
-0.76749
-0.461383
-0.153925
-0.378167
-1.06054
-1.57577
-1.90209
-2.06012
-2.08516
-2.01203
-1.86937
-1.67881
-1.45591
-1.21154
-0.953201
-0.686005
-0.413476
-0.13812
-0.283127
-0.806922
-1.22563
-1.51412
-1.67595
-1.7292
-1.69612
-1.59756
-1.45089
-1.26968
-1.06413
-0.841795
-0.608219
-0.367531
-0.122926
-0.21757
-0.626283
-0.965894
-1.21409
-1.36716
-1.43319
-1.42568
-1.35915
-1.24695
-1.10033
-0.928368
-0.73819
-0.535367
-0.324302
-0.108599
-0.170364
-0.493626
-0.769635
-0.980125
-1.11879
-1.18825
-1.1962
-1.15244
-1.0669
-0.94858
-0.805249
-0.643361
-0.468234
-0.28429
-0.0953092
-0.135286
-0.393781
-0.618869
-0.796026
-0.918491
-0.985997
-1.00262
-0.974755
-0.909591
-0.814192
-0.695011
-0.557719
-0.407222
-0.247775
-0.0831556
-0.108592
-0.317131
-0.501385
-0.6499
-0.756347
-0.819075
-0.839934
-0.822959
-0.773274
-0.696313
-0.597345