/*--------------------------------*- C++ -*----------------------------------*\
| =========                 |                                                 |
| \\      /  F ield         | OpenFOAM: The Open Source CFD Toolbox           |
|  \\    /   O peration     | Version:  5.x                                   |
|   \\  /    A nd           | Web:      www.OpenFOAM.org                      |
|    \\/     M anipulation  |                                                 |
\*---------------------------------------------------------------------------*/
FoamFile
{
    version     2.0;
    format      ascii;
    class       volScalarField;
    location    "18";
    object      T;
}
// * * * * * * * * * * * * * * * * * * * * * * * * * * * * * * * * * * * * * //

dimensions      [0 0 0 1 0 0 0];

internalField   nonuniform List<scalar> 
6300
(
9.94658
9.8409
9.73871
9.64229
9.55384
9.47544
9.40903
9.35629
9.31863
9.2971
9.29232
9.30438
9.33288
9.37686
9.43484
9.94541
9.83741
9.73294
9.63431
9.54377
9.46345
9.39533
9.34118
9.30248
9.28033
9.27543
9.28791
9.31737
9.36281
9.42269
9.94306
9.83038
9.72131
9.61823
9.52346
9.43923
9.36765
9.3106
9.26973
9.2463
9.24111
9.25442
9.28583
9.33428
9.39807
9.9395
9.81973
9.70369
9.59383
9.4926
9.40236
9.3254
9.26383
9.21952
9.19399
9.18827
9.20278
9.2372
9.29036
9.36033
9.93469
9.80536
9.67987
9.5608
9.45072
9.3522
9.26774
9.19977
9.1505
9.12183
9.11517
9.13121
9.16977
9.22961
9.30839
9.9286
9.78713
9.64963
9.51876
9.39728
9.28795
9.19358
9.11699
9.06086
9.02765
9.01932
9.03708
9.08102
9.14986
9.24074
9.9212
9.76494
9.61273
9.46735
9.33167
9.20871
9.10163
9.01371
8.94827
8.90855
8.89735
8.91673
8.96735
9.04801
9.15521
9.91245
9.73869
9.569
9.40621
9.25333
9.11358
8.9905
8.88792
8.80996
8.76088
8.74479
8.76509
8.8236
8.91957
9.04873
9.90235
9.70836
9.51836
9.33516
9.16184
9.00178
8.85886
8.73749
8.64273
8.58019
8.55581
8.57519
8.64236
8.7579
8.91689
9.89093
9.67403
9.4609
9.25424
9.05706
8.87282
8.70563
8.56044
8.44325
8.36132
8.32305
8.33748
8.4127
8.55275
8.75298
9.87828
9.63594
9.39697
9.16384
8.93933
8.72681
8.53039
8.35535
8.2085
8.09875
8.03755
8.03893
8.11817
8.28738
8.54601
9.86452
9.59447
9.3272
9.06478
8.80962
8.56467
8.33377
8.12205
7.93663
7.78761
7.68946
7.6625
7.73363
7.93255
8.27557
9.84985
9.55021
9.25258
8.95847
8.66967
8.38847
8.11795
7.86242
7.62833
7.4256
7.27014
7.18795
7.22125
7.43358
7.89616
9.83453
9.50395
9.17444
8.84683
8.52211
8.2016
7.8871
7.58135
7.28864
7.0163
6.77752
6.59786
6.52983
6.68432
7.28005
9.81886
9.4566
9.09439
8.73229
8.37035
8.00869
7.64751
7.28721
6.92859
6.5734
6.22575
5.89614
5.61585
5.4938
5.97292
9.49908
9.56447
9.63546
9.71065
9.78862
9.86804
9.94766
10.0264
10.1031
10.1771
10.2476
10.314
10.3757
10.4325
10.4838
10.5296
10.5695
10.6035
10.6315
10.6533
10.669
10.6786
10.682
10.6792
10.6704
10.6555
10.6347
10.608
10.5755
10.5372
10.4933
10.4439
10.389
10.3287
10.2632
10.1925
10.1166
10.0357
9.94982
9.85906
9.76351
9.66324
9.55834
9.44891
9.33503
9.2168
9.09431
8.96765
8.83689
8.70212
8.56341
8.42082
8.27444
8.12432
7.97053
7.81317
7.65231
7.48805
7.32051
7.14981
6.97607
6.79943
6.62004
6.43805
6.25362
6.06691
5.87811
5.68742
5.49505
5.30125
5.10628
4.91048
4.71417
4.51775
4.32165
4.12631
3.93222
3.73988
3.54979
3.36247
3.17843
2.99814
2.82208
2.65066
2.48428
2.32327
2.1679
2.01837
1.87483
1.73734
9.48897
9.55634
9.62937
9.70657
9.78647
9.86768
9.94892
10.0291
10.1071
10.1821
10.2535
10.3206
10.3829
10.4401
10.4918
10.5378
10.578
10.6121
10.6402
10.6621
10.6778
10.6873
10.6907
10.6879
10.679
10.664
10.6431
10.6162
10.5836
10.5452
10.5012
10.4516
10.3966
10.3362
10.2706
10.1997
10.1237
10.0427
9.95674
9.86587
9.77019
9.6698
9.56477
9.45521
9.3412
9.22284
9.10022
8.97344
8.84257
8.7077
8.56889
8.42621
8.27972
8.1295
7.9756
7.81811
7.65711
7.4927
7.32499
7.1541
6.98016
6.80332
6.62371
6.44149
6.25682
6.06986
5.88078
5.68977
5.49705
5.30285
5.10745
4.91114
4.71428
4.51725
4.3205
4.12447
3.92966
3.73659
3.54576
3.35772
3.17298
2.99203
2.81535
2.64338
2.47652
2.31512
2.15945
2.00973
1.86611
1.72864
9.46854
9.54
9.61722
9.69854
9.78237
9.86721
9.95171
10.0347
10.1152
10.1923
10.2654
10.3339
10.3974
10.4555
10.5079
10.5545
10.595
10.6294
10.6577
10.6797
10.6954
10.7049
10.7082
10.7052
10.6962
10.681
10.6598
10.6328
10.5999
10.5612
10.517
10.4671
10.4119
10.3512
10.2853
10.2143
10.1381
10.0568
9.9706
9.8795
9.78358
9.68293
9.57764
9.46781
9.35353
9.23491
9.11204
8.98502
8.85393
8.71885
8.57985
8.43698
8.29031
8.13988
7.98577
7.82803
7.66675
7.50202
7.33397
7.1627
6.98837
6.81111
6.63107
6.4484
6.26325
6.07578
5.88616
5.69454
5.50113
5.30615
5.10985
4.91254
4.71457
4.51632
4.31825
4.12082
3.92457
3.73001
3.5377
3.34819
3.16203
2.97973
2.80181
2.62872
2.46089
2.29868
2.14241
1.9923
1.84851
1.7111
9.43741
9.51531
9.59909
9.68685
9.77674
9.86714
9.9566
10.0439
10.1281
10.2083
10.2839
10.3544
10.4195
10.4789
10.5323
10.5796
10.6207
10.6556
10.684
10.7061
10.7219
10.7313
10.7344
10.7313
10.722
10.7065
10.685
10.6576
10.6243
10.5853
10.5406
10.4904
10.4347
10.3737
10.3075
10.2361
10.1595
10.0779
9.9914
9.89995
9.80366
9.70263
9.59695
9.4867
9.37202
9.25299
9.12974
9.00236
8.87094
8.73556
8.59628
8.45315
8.30621
8.15549
8.00106
7.84295
7.68126
7.51606
7.34748
7.17565
7.00071
6.82283
6.64214
6.4588
6.27296
6.08476
5.89433
5.70182
5.5074
5.31127
5.11365
4.91485
4.71519
4.5151
4.31501
4.11546
3.91698
3.72015
3.52556
3.3338
3.14547
2.96111
2.78127
2.60646
2.43712
2.27368
2.11646
1.96575
1.82169
1.68438
9.39498
9.48208
9.5752
9.67199
9.77034
9.86836
9.96452
10.0576
10.1465
10.2307
10.3096
10.3827
10.4498
10.5108
10.5655
10.6137
10.6554
10.6907
10.7194
10.7417
10.7574
10.7667
10.7696
10.7662
10.7565
10.7406
10.7187
10.6907
10.6569
10.6173
10.5721
10.5213
10.4652
10.4037
10.337
10.2651
10.1881
10.1061
10.0192
9.92725
9.83048
9.72894
9.62271
9.5119
9.39665
9.27707
9.15328
9.02542
8.89356
8.75779
8.61817
8.47471
8.32744
8.17638
8.02154
7.86297
7.70072
7.53489
7.3656
7.19299
7.01724
6.8385
6.65695
6.47274
6.286
6.09686
5.90542
5.71179
5.51609
5.31846
5.11912
4.91832
4.71641
4.5138
4.31097
4.1085
3.90697
3.70702
3.5093
3.31446
3.12314
2.93595
2.75348
2.57627
2.40485
2.23967
2.08114
1.92957
1.78516
1.648
9.34041
9.44014
9.54593
9.65486
9.76432
9.87221
9.97684
10.077
10.1718
10.2608
10.3434
10.4195
10.489
10.5517
10.6077
10.657
10.6994
10.7351
10.7641
10.7865
10.8021
10.8113
10.8139
10.81
10.7999
10.7834
10.7608
10.7322
10.6977
10.6574
10.6114
10.56
10.5032
10.441
10.3738
10.3014
10.2239
10.1414
10.0539
9.96145
9.86409
9.76189
9.65496
9.54341
9.4274
9.30709
9.18261
9.05412
8.92172
8.78549
8.64547
8.50166
8.35405
8.20261
8.04732
7.88818
7.72525
7.55862
7.3884
7.21479
7.03797
6.85815
6.67552
6.49024
6.30244
6.11221
5.91962
5.72469
5.52748
5.32808
5.12662
4.92335
4.71858
4.51275
4.30639
4.10013
3.89463
3.69063
3.48885
3.29002
3.09483
2.90397
2.71806
2.53773
2.36356
2.19608
2.03578
1.88305
1.73817
1.60124
9.27263
9.38943
9.51211
9.63687
9.76052
9.88065
9.99554
10.1041
10.2056
10.2998
10.3865
10.4658
10.5377
10.6023
10.6596
10.7099
10.753
10.7891
10.8183
10.8407
10.8562
10.8651
10.8672
10.8629
10.8521
10.835
10.8116
10.7821
10.7467
10.7055
10.6586
10.6063
10.5486
10.4858
10.4178
10.3448
10.2668
10.1837
10.0957
10.0026
9.90455
9.80156
9.69374
9.58125
9.46427
9.343
9.21763
9.08836
8.95531
8.81856
8.67814
8.534
8.38609
8.2343
8.07854
7.91879
7.75505
7.58741
7.41603
7.24113
7.06296
6.88178
6.69783
6.5113
6.32231
6.13091
5.9371
5.74081
5.54198
5.34059
5.1367
4.93047
4.72222
4.51241
4.30163
4.0906
3.88011
3.67101
3.46413
3.26029
3.06027
2.86481
2.6746
2.49031
2.3126
2.14212
1.97948
1.82522
1.67972
1.54312
9.19033
9.33018
9.47524
9.6204
9.76174
9.89658
10.0233
10.1411
10.2498
10.3495
10.4403
10.5227
10.5969
10.6632
10.7218
10.7729
10.8166
10.8531
10.8824
10.9046
10.9199
10.9283
10.93
10.925
10.9134
10.8954
10.871
10.8405
10.8039
10.7615
10.7136
10.6601
10.6015
10.5378
10.469
10.3954
10.3168
10.2332
10.1446
10.0509
9.95201
9.84807
9.73916
9.62547
9.50722
9.3847
9.25819
9.12794
8.99412
8.85683
8.71606
8.57171
8.42363
8.2716
8.11545
7.95505
7.79038
7.62151
7.44866
7.2721
7.0922
6.90932
6.72379
6.53583
6.34558
6.15304
5.95808
5.76052
5.56011
5.35666
5.15008
4.94045
4.72807
4.51341
4.29719
4.08025
3.86357
3.64815
3.43498
3.22502
3.01911
2.81806
2.62257
2.43338
2.2512
2.07684
1.91111
1.75477
1.60841
1.47229
9.09197
9.26337
9.43818
9.60938
9.77225
9.92412
10.0638
10.1913
10.307
10.4117
10.5062
10.5912
10.6673
10.735
10.7946
10.8464
10.8906
10.9272
10.9564
10.9784
10.9933
11.0012
11.0022
10.9964
10.9839
10.9648
10.9392
10.9074
10.8694
10.8256
10.7762
10.7215
10.6616
10.5968
10.5273
10.453
10.3739
10.2899
10.2008
10.1064
10.0067
9.90166
9.79139
9.67614
9.55623
9.43207
9.30406
9.17257
9.03786
8.90002
8.75904
8.61472
8.46675
8.31477
8.1584
7.9974
7.83167
7.66129
7.48654
7.30782
7.12567
6.94063
6.75316
6.5636
6.3721
6.17857
5.98277
5.78427
5.58256
5.37717
5.16779
4.95437
4.73713
4.51664
4.29374
4.0695
3.84516
3.622
3.4012
3.18387
2.97095
2.76325
2.56147
2.36631
2.17854
1.99912
1.82919
1.66992
1.52234
1.3869
8.97595
9.19159
9.40625
9.61031
9.79856
9.96906
10.1219
10.2584
10.38
10.4887
10.5858
10.6725
10.7499
10.8184
10.8787
10.9309
10.9752
11.0118
11.0409
11.0625
11.0768
11.0839
11.0841
11.0773
11.0637
11.0434
11.0164
10.983
10.9433
10.8977
10.8465
10.79
10.7287
10.6627
10.5923
10.5174
10.438
10.3537
10.2644
10.1695
10.069
9.96267
9.85071
9.73342
9.61127
9.48487
9.35486
9.22177
9.08599
8.94767
8.80674
8.66289
8.51559
8.36416
8.20795
8.04649
7.87957
7.7073
7.53004
7.34842
7.16324
6.97536
6.78549
6.59412
6.40145
6.20733
6.01129
5.8126
5.61027
5.40338
5.19128
4.97371
4.75084
4.5233
4.29216
4.05885
3.82504
3.59239
3.3624
3.13634
2.91524
2.69987
2.49083
2.28857
2.09382
1.90772
1.73188
1.56825
1.41875
1.28432
8.84123
9.12116
9.38953
9.63393
9.85035
10.0393
10.2036
10.3466
10.4717
10.5821
10.68
10.7673
10.8449
10.9137
10.9742
11.0266
11.0709
11.1073
11.1359
11.1569
11.1704
11.1767
11.1758
11.168
11.1532
11.1314
11.1028
11.0675
11.0257
10.9777
10.9241
10.8655
10.8023
10.7349
10.6635
10.5882
10.5088
10.4249
10.3358
10.2408
10.1395
10.0317
9.91761
9.79758
9.67234
9.54278
9.40998
9.27474
9.13768
8.99897
8.85856
8.71593
8.57028
8.42036
8.26497
8.10334
7.9351
7.76041
7.57973
7.39407
7.20463
7.01287
6.81989
6.62646
6.43281
6.23876
6.04359
5.84608
5.64448
5.43703
5.22261
5.00063
4.77123
4.53509
4.29365
4.04886
3.80323
3.55891
3.31791
3.08163
2.85124
2.62738
2.41036
2.20002
1.9966
1.80153
1.61696
1.44622
1.29345
1.1606
8.68984
9.06734
9.40724
9.69778
9.94158
10.1451
10.3159
10.4603
10.5846
10.6934
10.7897
10.8757
10.9525
11.021
11.0813
11.1338
11.178
11.214
11.2418
11.2619
11.2743
11.2795
11.2776
11.2686
11.2525
11.2293
11.1988
11.1612
11.1167
11.0658
11.009
10.9475
10.8818
10.8127
10.7403
10.6649
10.5861
10.5035
10.4156
10.321
10.2192
10.1097
9.99295
9.86912
9.73951
9.60524
9.46848
9.33025
9.19163
9.05264
8.91345
8.77323
8.63101
8.48435
8.33086
8.16961
7.99983
7.82204
7.63652
7.44509
7.24926
7.05206
6.85484
6.65906
6.46465
6.27176
6.07916
5.8854
5.68704
5.48064
5.26476
5.03815
4.8013
4.55443
4.29993
4.04006
3.77945
3.52062
3.26658
3.01838
2.77783
2.54499
2.32025
2.10149
1.88734
1.68021
1.4821
1.29827
1.13947
1.00956
8.53712
9.06759
9.49595
9.8289
10.0908
10.2979
10.4659
10.6032
10.7196
10.8225
10.9141
10.9973
11.072
11.1398
11.1998
11.2527
11.2967
11.3322
11.359
11.3777
11.3886
11.3924
11.3894
11.3794
11.3621
11.3374
11.3049
11.2649
11.2169
11.1621
11.1006
11.0353
10.9662
10.8951
10.8214
10.7463
10.6688
10.5895
10.5049
10.4115
10.3099
10.1982
10.0784
9.9489
9.81331
9.67121
9.52904
9.38622
9.24604
9.1065
8.96976
8.83334
8.69803
8.55812
8.40784
8.2481
8.07604
7.89471
7.70178
7.50236
7.2958
7.09122
6.88765
6.68964
6.49422
6.30431
6.11634
5.93128
5.74115
5.53784
5.32233
5.0904
4.84574
4.58471
4.31391
4.03227
3.7531
3.47538
3.20684
2.94409
2.69328
2.4509
2.22152
1.99628
1.76795
1.54591
1.32664
1.11429
0.943885
0.820832
8.45952
9.21485
9.72199
10.0623
10.3186
10.507
10.6601
10.7762
10.8738
10.968
11.0505
11.1311
11.2013
11.2698
11.3285
11.3843
11.4275
11.463
11.4876
11.5045
11.5132
11.515
11.5111
11.5008
11.482
11.4568
11.4215
11.38
11.3266
11.2682
11.1974
11.1285
11.0531
10.9814
10.9041
10.8312
10.7541
10.6829
10.6067
10.5137
10.4149
10.2982
10.1775
10.0374
9.89638
9.73714
9.59045
9.43825
9.29944
9.15621
9.02551
8.89174
8.77158
8.64674
8.49835
8.34422
8.16551
7.98398
7.77628
7.56984
7.33938
7.12886
6.91238
6.71643
6.51577
6.33399
6.14924
5.9844
5.81418
5.61255
5.40347
5.16091
4.91368
4.62902
4.34346
4.02087
3.72461
3.41689
3.13871
2.85255
2.59658
2.33809
2.11677
1.89552
1.63947
1.40759
1.16119
0.869887
0.680104
0.576242
8.83824
9.71942
10.1882
10.4166
10.6443
10.7666
10.9075
10.9758
11.0329
11.13
11.1898
11.2795
11.3332
11.4137
11.4612
11.5341
11.5691
11.6093
11.6272
11.643
11.6478
11.6454
11.6422
11.634
11.6112
11.5906
11.5469
11.5122
11.4434
11.3919
11.2912
11.2312
11.1347
11.0755
10.9803
10.9222
10.8307
10.7836
10.7326
10.624
10.5458
10.4036
10.3048
10.1271
10.0056
9.7849
9.65969
9.47092
9.35912
9.18778
9.0856
8.93046
8.85179
8.76915
8.59706
8.47564
8.25896
8.11087
7.84891
7.67184
7.35415
7.17503
6.90749
6.74991
6.51008
6.3679
6.15342
6.04522
5.93236
5.69793
5.53279
5.23808
5.03548
4.67459
4.42627
3.97153
3.7126
3.3158
3.08205
2.71753
2.50347
2.17171
2.01191
1.84486
1.47617
1.29017
1.0604
0.479286
0.292588
0.243154
1.59272
1.44349
1.30249
1.1693
1.04339
0.924181
0.811021
0.703249
0.600187
0.501165
0.40552
0.31261
0.221804
0.132489
0.0440646
1.58417
1.43524
1.29467
1.162
1.03669
0.918118
0.805626
0.69853
0.596142
0.497781
0.402783
0.310502
0.22031
0.131598
0.0437684
1.56693
1.41863
1.27893
1.14733
1.02323
0.905966
0.794827
0.689097
0.588062
0.491029
0.397324
0.306301
0.217335
0.129824
0.0431787
1.54071
1.39339
1.25507
1.12515
1.00293
0.887679
0.778611
0.674959
0.575975
0.480943
0.38918
0.300039
0.212903
0.127182
0.0423009
1.50504
1.35916
1.2228
1.09524
0.975663
0.863197
0.756971
0.656147
0.559931
0.467582
0.378409
0.291768
0.207056
0.123698
0.0411437
1.45928
1.31538
1.1817
1.05734
0.941274
0.832465
0.729922
0.63272
0.540015
0.45104
0.365102
0.281566
0.199851
0.119408
0.0397196
1.40256
1.26135
1.13129
1.01114
0.899614
0.795457
0.697523
0.60479
0.516362
0.431457
0.349387
0.269542
0.19137
0.114364
0.0380455
1.33367
1.19618
1.07095
0.956308
0.850574
0.752218
0.659915
0.572548
0.489181
0.409034
0.331445
0.255842
0.181722
0.108631
0.0361437
1.25106
1.11871
1.00001
0.892557
0.794147
0.702918
0.617366
0.536298
0.458776
0.38405
0.311512
0.240656
0.171044
0.102291
0.0340418
1.15257
1.0276
0.917814
0.819752
0.730531
0.647935
0.570324
0.496497
0.425569
0.356873
0.289896
0.224222
0.159506
0.0954477
0.0317737
1.03532
0.921288
0.823886
0.738098
0.660281
0.58796
0.519493
0.453793
0.390125
0.327975
0.266972
0.206827
0.147309
0.0882187
0.0293788
0.895434
0.798331
0.718333
0.648465
0.584529
0.524124
0.46589
0.409052
0.353157
0.297928
0.243186
0.188803
0.134681
0.0807388
0.0269014
0.728139
0.658262
0.602644
0.552891
0.505241
0.458111
0.410885
0.363363
0.31552
0.267392
0.219038
0.170515
0.121873
0.073153
0.024389
0.529593
0.503926
0.481085
0.455208
0.425427
0.392189
0.356171
0.317993
0.278162
0.237079
0.195058
0.152346
0.109142
0.0656102
0.0218904
0.305817
0.346759
0.362558
0.361424
0.349067
0.329044
0.303614
0.274272
0.242054
0.207702
0.171765
0.134666
0.0967376
0.0582546
0.0194528
9.80448
9.41314
9.02092
8.62713
8.23097
7.83141
7.42708
7.01602
6.59537
6.16051
5.70339
5.20767
4.63297
3.85137
2.34857
9.7916
9.37425
8.95521
8.53318
8.10662
7.67356
7.23134
6.77615
6.30229
5.80061
5.25531
4.63661
3.88311
2.85908
1.27199
9.77911
9.33654
8.89156
8.44236
7.98678
7.52207
7.04459
6.54923
6.02853
5.471
4.85819
4.15916
3.3211
2.25781
0.859907
9.76716
9.30049
8.83085
8.35598
7.87327
7.37945
6.87025
6.33991
5.78033
5.17977
4.52093
3.77825
2.9155
1.88888
0.671376
9.75588
9.26652
8.77375
8.27504
7.76748
7.24749
6.71059
6.1509
5.56057
4.929
4.2419
3.4807
2.62371
1.65252
0.569817
9.74537
9.23492
8.72078
8.20026
7.6703
7.12728
6.56675
5.98316
5.36946
4.7168
4.01432
3.24967
2.41122
1.49358
0.507796
9.73571
9.20587
8.67223
8.13202
7.5822
7.01923
6.43893
5.83631
5.2054
4.53919
3.82991
3.0699
2.25371
1.38197
0.466475
9.72691
9.17947
8.62823
8.07047
7.50323
6.9232
6.3266
5.70911
5.06584
4.39148
3.68072
2.92912
2.13479
1.30073
0.43728
9.71898
9.15572
8.58875
8.01549
7.43314
6.83869
6.22879
5.59981
4.94787
4.26906
3.55989
2.81802
2.04346
1.23989
0.4158
9.7119
9.13454
8.55365
7.96681
7.37146
6.76489
6.14421
5.50644
4.84855
4.16772
3.46176
2.72963
1.97226
1.1933
0.399536
9.70563
9.1158
8.52268
7.92404
7.31757
6.70088
6.07152
5.42705
4.76515
4.08384
3.3818
2.65877
1.91607
1.157
0.386957
9.70011
9.09934
8.49555
7.88672
7.27078
6.64566
6.00931
5.35975
4.69523
4.01436
3.31641
2.60156
1.87124
1.1283
0.37707
9.69529
9.08497
8.47192
7.85432
7.23036
6.59825
5.95627
5.30285
4.63666
3.95674
3.26275
2.55509
1.83516
1.10538
0.369201
9.6911
9.0725
8.45145
7.82634
7.1956
6.55769
5.91118
5.25482
4.58761
3.9089
3.21858
2.51716
1.80592
1.0869
0.362876
9.68748
9.06172
8.43379
7.80228
7.16582
6.52309
5.87294
5.21433
4.54653
3.86912
3.18211
2.48605
1.78207
1.07189
0.357751
9.68436
9.05244
8.41862
7.78166
7.14037
6.49366
5.84055
5.18023
4.51214
3.836
3.15192
2.46044
1.76253
1.05963
0.353573
9.68168
9.04449
8.40563
7.76404
7.1187
6.46868
5.81317
5.15153
4.48333
3.8084
3.12689
2.43928
1.74645
1.04957
0.350149
9.67939
9.03769
8.39454
7.74903
7.10027
6.4475
5.79004
5.12738
4.45919
3.78536
3.10608
2.42177
1.73317
1.04129
0.347331
9.67744
9.03189
8.38509
7.73626
7.08464
6.42958
5.77053
5.10707
4.43895
3.76613
3.08875
2.40723
1.72218
1.03444
0.345004
9.67577
9.02695
8.37706
7.72542
7.0714
6.41444
5.75408
5.09
4.42199
3.75004
3.07431
2.39514
1.71305
1.02876
0.343076
9.67436
9.02276
8.37025
7.71624
7.06019
6.40165
5.74022
5.07564
4.40777
3.73659
3.06226
2.38506
1.70547
1.02404
0.341476
9.67316
9.01921
8.36448
7.70847
7.05072
6.39086
5.72855
5.06358
4.39584
3.72533
3.05219
2.37666
1.69915
1.02012
0.340145
9.67214
9.0162
8.3596
7.7019
7.04273
6.38176
5.71872
5.05344
4.38583
3.7159
3.04377
2.36965
1.69387
1.01685
0.339037
9.67128
9.01366
8.35547
7.69635
7.03599
6.37409
5.71046
5.04493
4.37744
3.708
3.03672
2.36379
1.68947
1.01412
0.338112
9.67056
9.01152
8.35199
7.69167
7.0303
6.36764
5.7035
5.03777
4.37039
3.70138
3.03082
2.35888
1.68579
1.01184
0.33734
9.66995
9.0097
8.34905
7.68773
7.02552
6.36221
5.69766
5.03176
4.36448
3.69583
3.02588
2.35478
1.68272
1.00993
0.336695
9.66943
9.00818
8.34658
7.68441
7.02149
6.35764
5.69274
5.02672
4.35952
3.69118
3.02175
2.35135
1.68015
1.00834
0.336155
9.669
9.00689
8.34449
7.68161
7.0181
6.3538
5.68862
5.02248
4.35536
3.68728
3.01828
2.34847
1.67799
1.00701
0.335704
9.66863
9.00581
8.34274
7.67926
7.01525
6.35057
5.68515
5.01893
4.35188
3.68401
3.01538
2.34607
1.67619
1.00589
0.335326
9.66832
9.0049
8.34127
7.67729
7.01286
6.34787
5.68225
5.01595
4.34895
3.68127
3.01295
2.34405
1.67468
1.00496
0.335011
9.66807
9.00414
8.34003
7.67564
7.01085
6.3456
5.67981
5.01345
4.34651
3.67898
3.01092
2.34237
1.67342
1.00418
0.334747
9.66785
9.0035
8.339
7.67425
7.00917
6.3437
5.67778
5.01137
4.34446
3.67707
3.00922
2.34096
1.67237
1.00353
0.334527
9.66767
9.00296
8.33813
7.67309
7.00777
6.34211
5.67608
5.00963
4.34276
3.67547
3.0078
2.33979
1.67149
1.00298
0.334343
9.66752
9.00252
8.33741
7.67213
7.0066
6.34079
5.67466
5.00818
4.34134
3.67415
3.00663
2.33882
1.67077
1.00253
0.334191
9.66739
9.00215
8.33681
7.67133
7.00563
6.3397
5.67349
5.00698
4.34016
3.67305
3.00565
2.33801
1.67016
1.00216
0.334064
9.66729
9.00185
8.33632
7.67067
7.00484
6.3388
5.67252
5.00599
4.33919
3.67214
3.00485
2.33734
1.66966
1.00185
0.33396
9.66721
9.0016
8.33592
7.67013
7.00418
6.33806
5.67173
5.00518
4.3384
3.6714
3.00419
2.3368
1.66926
1.0016
0.333875
9.66714
9.0014
8.33559
7.66969
7.00366
6.33747
5.67109
5.00453
4.33776
3.6708
3.00366
2.33636
1.66893
1.0014
0.333807
9.66709
9.00124
8.33534
7.66935
7.00324
6.337
5.67059
5.00401
4.33726
3.67033
3.00325
2.33602
1.66867
1.00124
0.333753
9.66704
9.00112
8.33514
7.66909
7.00293
6.33664
5.67021
5.00362
4.33687
3.66997
3.00293
2.33576
1.66848
1.00112
0.333712
9.66702
9.00103
8.335
7.6689
7.0027
6.33638
5.66993
5.00334
4.3366
3.66972
3.0027
2.33557
1.66834
1.00103
0.333682
9.667
9.00097
8.33491
7.66878
7.00255
6.33622
5.66975
5.00316
4.33642
3.66955
3.00255
2.33545
1.66825
1.00098
0.333663
9.66699
9.00095
8.33487
7.66872
7.00248
6.33614
5.66967
5.00307
4.33634
3.66947
3.00249
2.33539
1.6682
1.00095
0.333655
9.66699
9.00095
8.33487
7.66873
7.00249
6.33615
5.66968
5.00308
4.33635
3.66948
3.00249
2.33539
1.66821
1.00095
0.333655
9.667
9.00098
8.33492
7.66879
7.00257
6.33624
5.66978
5.00318
4.33644
3.66957
3.00257
2.33546
1.66826
1.00098
0.333666
9.66702
9.00104
8.33502
7.66893
7.00273
6.33642
5.66997
5.00338
4.33664
3.66975
3.00273
2.3356
1.66836
1.00104
0.333687
9.66705
9.00114
8.33517
7.66913
7.00298
6.33669
5.67026
5.00368
4.33693
3.67003
3.00298
2.3358
1.66851
1.00114
0.333718
9.66709
9.00126
8.33538
7.6694
7.00331
6.33707
5.67067
5.00409
4.33734
3.67041
3.00331
2.33607
1.66871
1.00127
0.333761
9.66715
9.00143
8.33564
7.66976
7.00374
6.33756
5.67119
5.00463
4.33786
3.6709
3.00375
2.33643
1.66898
1.00143
0.333818
9.66722
9.00164
8.33598
7.67021
7.00429
6.33818
5.67185
5.0053
4.33852
3.67152
3.0043
2.33689
1.66932
1.00164
0.333889
9.66731
9.00189
8.3364
7.67077
7.00496
6.33894
5.67267
5.00614
4.33934
3.67228
3.00497
2.33745
1.66974
1.0019
0.333977
9.66741
9.00221
8.33691
7.67145
7.00579
6.33987
5.67367
5.00717
4.34035
3.67322
3.0058
2.33814
1.67026
1.00222
0.334084
9.66754
9.00259
8.33753
7.67228
7.00679
6.34101
5.67489
5.00841
4.34156
3.67436
3.00681
2.33897
1.67088
1.0026
0.334214
9.6677
9.00305
8.33827
7.67328
7.008
6.34237
5.67635
5.0099
4.34303
3.67573
3.00803
2.33998
1.67163
1.00307
0.334372
9.66789
9.0036
8.33917
7.67447
7.00945
6.34401
5.6781
5.0117
4.34479
3.67737
3.00949
2.34119
1.67254
1.00363
0.334561
9.66811
9.00426
8.34023
7.67591
7.01118
6.34597
5.68021
5.01385
4.3469
3.67935
3.01124
2.34263
1.67362
1.0043
0.334788
9.66837
9.00505
8.34151
7.67761
7.01325
6.34831
5.68272
5.01643
4.34942
3.68171
3.01333
2.34437
1.67492
1.0051
0.33506
9.66869
9.00599
8.34303
7.67965
7.01572
6.3511
5.68571
5.0195
4.35243
3.68452
3.01583
2.34644
1.67647
1.00606
0.335384
9.66907
9.00711
8.34484
7.68208
7.01865
6.35443
5.68929
5.02316
4.35602
3.68789
3.01882
2.34892
1.67832
1.00721
0.335773
9.66952
9.00843
8.34699
7.68496
7.02215
6.35839
5.69354
5.02753
4.36031
3.6919
3.02239
2.35188
1.68054
1.00858
0.336237
9.67005
9.01001
8.34955
7.68839
7.02631
6.3631
5.69861
5.03273
4.36541
3.69669
3.02664
2.35541
1.68318
1.01022
0.336791
9.67068
9.01188
8.35258
7.69247
7.03126
6.36871
5.70464
5.03892
4.3715
3.7024
3.03172
2.35962
1.68634
1.01217
0.337454
9.67144
9.01411
8.35619
7.6973
7.03713
6.37537
5.71181
5.04629
4.37876
3.70922
3.03779
2.36466
1.69012
1.01451
0.338246
9.67232
9.01674
8.36045
7.70304
7.04409
6.38328
5.72034
5.05507
4.3874
3.71734
3.04503
2.37068
1.69464
1.01731
0.339194
9.67338
9.01985
8.36551
7.70984
7.05236
6.39268
5.73047
5.06552
4.3977
3.72704
3.05367
2.37788
1.70004
1.02066
0.34033
9.67462
9.02353
8.37149
7.71788
7.06216
6.40383
5.74252
5.07795
4.40998
3.73861
3.06401
2.38649
1.70651
1.02468
0.341692
9.67609
9.02788
8.37856
7.7274
7.07376
6.41705
5.75683
5.09274
4.42461
3.75243
3.07637
2.39681
1.71428
1.0295
0.343327
9.67782
9.03301
8.3869
7.73864
7.08748
6.43272
5.77382
5.11034
4.44206
3.76894
3.09118
2.40918
1.7236
1.0353
0.345294
9.67985
9.03905
8.39672
7.75191
7.1037
6.45128
5.79398
5.13128
4.46287
3.78869
3.10891
2.42403
1.73482
1.04228
0.347664
9.68224
9.04614
8.40828
7.76753
7.12283
6.47322
5.81789
5.15618
4.4877
3.8123
3.13019
2.44191
1.74833
1.05071
0.350527
9.68504
9.05445
8.42184
7.78589
7.14538
6.49915
5.84622
5.18579
4.51732
3.84059
3.15576
2.46344
1.76467
1.06091
0.353995
9.68831
9.06417
8.43771
7.80743
7.17188
6.52973
5.87976
5.22098
4.55267
3.87449
3.18654
2.48947
1.78446
1.0733
0.358213
9.69212
9.07549
8.45623
7.83262
7.20298
6.56573
5.91942
5.26278
4.59488
3.91517
3.22366
2.52099
1.80853
1.0884
0.363365
9.69654
9.08863
8.47777
7.86199
7.23937
6.60804
5.96624
5.3124
4.64528
3.96405
3.26853
2.55931
1.83793
1.10692
0.369689
9.70164
9.10383
8.50273
7.89612
7.28181
6.65761
6.02141
5.37126
4.70547
4.02286
3.3229
2.60608
1.87403
1.12975
0.377507
9.70751
9.12132
8.5315
7.9356
7.33111
6.71551
6.08628
5.44096
4.77735
4.0937
3.389
2.66341
1.91861
1.15811
0.387248
9.71421
9.14132
8.5645
7.98103
7.38813
6.78289
6.16231
5.52336
4.86315
4.17915
3.4696
2.73408
1.97409
1.19367
0.399512
9.72182
9.16407
8.6021
8.03301
7.45371
6.86091
6.25109
5.62054
4.96548
4.28234
3.56824
2.82173
2.04377
1.23877
0.415154
9.73039
9.18973
8.64466
8.09208
7.52867
6.95075
6.35426
5.73472
5.08729
4.40702
3.68938
2.93122
2.13223
1.2968
0.43544
9.73998
9.21845
8.69242
8.15868
7.6137
7.05348
6.47344
5.86827
5.23191
4.55766
3.83866
3.06905
2.24599
1.37283
0.462339
9.75059
9.2503
8.74554
8.23309
7.7093
7.16997
6.61006
6.02348
5.40285
4.73936
4.02309
3.24399
2.39455
1.47478
0.499091
9.76222
9.28525
8.80401
8.31535
7.8157
7.30075
6.7652
6.20234
5.60353
4.95773
4.25115
3.46776
2.59194
1.61556
0.551465
9.77481
9.32317
8.86762
8.40526
7.93271
7.44583
6.93931
6.40614
5.83683
5.21829
4.53254
3.75573
2.85916
1.81724
0.63081
9.7883
9.3638
8.93595
8.50223
8.05967
7.60454
7.13191
6.63505
6.10432
5.5255
4.87717
4.12686
3.22732
2.11928
0.762366
9.80254
9.40676
9.00835
8.60535
8.19536
7.77538
7.34134
6.88747
6.40519
5.88099
5.2926
4.6016
3.74027
2.59413
1.01046
9.81737
9.45153
9.08395
8.7133
8.33799
7.95599
7.56453
7.15962
6.73516
6.28105
5.77929
5.1946
4.451
3.37281
1.56221
9.83259
9.49752
9.16168
8.82448
8.48526
8.14315
7.79704
7.44535
7.0857
6.71418
6.32356
5.89796
5.39406
4.66011
3.02631
9.84799
9.54404
9.24034
8.93707
8.63452
8.33309
8.03342
7.73659
7.44447
7.16057
6.89211
6.65567
6.49685
6.57229
7.55901
9.86333
9.5904
9.31869
9.04916
8.78299
8.52179
8.26783
8.02455
7.79751
7.59624
7.43839
7.35944
7.43696
7.8516
9.01359
9.8784
9.63589
9.39552
9.1589
8.92802
8.70547
8.49481
8.30122
8.13263
8.00172
7.92987
7.95454
8.14292
8.61188
9.53198
0.12582
0.225732
0.269426
0.28574
0.286093
0.276114
0.259018
0.236829
0.21091
0.182223
0.151478
0.119218
0.0858746
0.0518034
0.0173134
0.0675529
0.154746
0.203774
0.228017
0.236017
0.232936
0.222011
0.205379
0.184517
0.160488
0.134086
0.105927
0.0765037
0.0462293
0.0154633
0.0425578
0.110263
0.15533
0.181574
0.193635
0.195202
0.188966
0.176866
0.160322
0.140399
0.117913
0.0935117
0.0677235
0.0409961
0.0137247
0.0296531
0.0814997
0.119958
0.144978
0.158538
0.162887
0.159991
0.151437
0.138474
0.122088
0.103069
0.0820592
0.059595
0.0361403
0.0121098
0.0219285
0.0620333
0.0939167
0.11634
0.129836
0.135601
0.134945
0.129068
0.119001
0.105606
0.0896079
0.0716158
0.052154
0.0316842
0.0106259
0.0168096
0.0482756
0.0744442
0.0939015
0.106501
0.112773
0.113524
0.109609
0.101837
0.0909313
0.0775303
0.0621924
0.0454126
0.0276366
0.00927639
0.0131858
0.0381965
0.0596317
0.0762248
0.0875583
0.0937797
0.0953421
0.0928278
0.0868474
0.0779889
0.0667971
0.05377
0.0393625
0.0239945
0.0080605
0.0105068
0.0306
0.0481813
0.0621999
0.0721653
0.0780207
0.0799903
0.0784529
0.0738564
0.0666661
0.0573379
0.0463057
0.0339791
0.0207453
0.00697439
0.00846698
0.0247478
0.0392046
0.0509895
0.0596258
0.0649596
0.0670734
0.0662018
0.0626659
0.0568276
0.0490616
0.0397401
0.0292255
0.017869
0.00601173
0.00688065
0.020162
0.0320831
0.0419651
0.0493793
0.0541342
0.0562291
0.0558004
0.0530739
0.0483273
0.0418651
0.0340026
0.0250564
0.0153403
0.00516441
0.00562758
0.0165207
0.0263773
0.034654
0.0409792
0.0451555
0.0471367
0.0469944
0.0448843
0.0410179
0.0356408
0.0290174
0.0214216
0.0131308
0.00442324
0.00462589
0.013599
0.0217686
0.028698
0.0340711
0.0377009
0.0395187
0.0395545
0.0379141
0.0347574
0.0302816
0.0247073
0.0182693
0.0112107
0.00377848
0.00381771
0.0112352
0.0180209
0.0238224
0.0283734
0.0315043
0.0331378
0.0332784
0.0319964
0.0294127
0.025685
0.0209967
0.0155479
0.00955
0.00322031
0.00316085
0.00930992
0.0149566
0.0198149
0.0236618
0.0263472
0.0277935
0.02799
0.0269825
0.0248622
0.0217554
0.0178139
0.0132079
0.00811957
0.00273913
0.00262387
0.00773345
0.0124398
0.0165096
0.0197567
0.0220502
0.0233169
0.0235375
0.0227411
0.0209966
0.0184052
0.0150925
0.0112025
0.00689196
0.00232588
0.00218281
0.00643693
0.0103649
0.0137756
0.0165136
0.0184663
0.0195664
0.0197911
0.0191579
0.017719
0.0155557
0.0127719
0.00948924
0.00584173
0.0019721
0.00181916
0.00536688
0.00864905
0.0115086
0.0138158
0.0154742
0.0164237
0.0166404
0.016134
0.0149444
0.013137
0.0107978
0.00802918
0.00494571
0.00167009
0.00151841
0.0044812
0.00722663
0.00962517
0.0115684
0.0129743
0.0137899
0.0139916
0.0135845
0.0125988
0.0110874
0.00912166
0.00678774
0.00418308
0.00141292
0.00126907
0.00374641
0.00604505
0.0080578
0.00969409
0.0108843
0.0115821
0.0117657
0.0114365
0.0106181
0.0093533
0.00770116
0.00573427
0.00353536
0.00119439
0.00106194
0.0031357
0.00506196
0.00675181
0.0081295
0.00913603
0.00973143
0.00989562
0.00962825
0.00894746
0.00788805
0.00649919
0.00484186
0.00298625
0.00100907
0.000889621
0.00262738
0.00424301
0.00566254
0.00682259
0.00767325
0.00818011
0.0083252
0.008107
0.00753963
0.00665154
0.0054836
0.00408712
0.00252155
0.00085218
0.000746097
0.00220386
0.00356019
0.00475344
0.00573048
0.00644915
0.00687995
0.00700701
0.00682815
0.00635448
0.0056093
0.00462668
0.00344978
0.00212891
0.000719583
0.000626477
0.00185077
0.00299059
0.00399444
0.00481775
0.0054249
0.00579069
0.00590119
0.00575399
0.00535783
0.00473191
0.00390465
0.00291239
0.00179769
0.000607699
0.000526753
0.00155634
0.00251538
0.00336078
0.0040551
0.00456822
0.00487866
0.0049743
0.00485266
0.00452071
0.00399428
0.00329718
0.00245999
0.00151874
0.000513453
0.000443636
0.00131089
0.00211907
0.00283202
0.00341824
0.00385226
0.00411576
0.00419826
0.00409734
0.0038186
0.00337516
0.00278697
0.00207983
0.00128426
0.000434215
0.000374419
0.00110645
0.00178886
0.00239126
0.00288705
0.00325467
0.00347853
0.00354955
0.00346548
0.00323083
0.00285653
0.00235934
0.00176107
0.00108758
0.000367746
0.000316871
0.000936451
0.00151422