/*--------------------------------*- C++ -*----------------------------------*\
| =========                 |                                                 |
| \\      /  F ield         | OpenFOAM: The Open Source CFD Toolbox           |
|  \\    /   O peration     | Version:  5.x                                   |
|   \\  /    A nd           | Web:      www.OpenFOAM.org                      |
|    \\/     M anipulation  |                                                 |
\*---------------------------------------------------------------------------*/
FoamFile
{
    version     2.0;
    format      ascii;
    class       volScalarField;
    location    "1.6";
    object      gradTx;
}
// * * * * * * * * * * * * * * * * * * * * * * * * * * * * * * * * * * * * * //

dimensions      [0 -1 0 1 0 0 0];

internalField   nonuniform List<scalar> 
3200
(
1.0599
-0.0390452
-0.106534
-0.109485
-0.0989824
-0.097405
-0.0750969
-0.0732627
-0.0569563
-0.0893973
-0.0424498
-0.031572
-0.030458
-0.0239904
-0.023388
-0.0185889
-0.0181452
-0.0144742
-0.0141333
-0.0112856
-0.0110204
-0.00879401
-0.00858637
-0.00683893
-0.00667588
-0.00530265
-0.00517456
-0.00409604
-0.00399552
-0.00315009
-0.0030714
-0.00241056
-0.00234915
-0.00183443
-0.00178668
-0.0013874
-0.00135043
-0.0010421
-0.0010136
-0.000776669
-0.000754822
-0.000573724
-0.000557067
-0.000419466
-0.000406848
-0.000303006
-0.000293542
-0.000215914
-0.000209407
-0.000155556
-0.000235578
-0.000106604
-7.04735e-05
-6.68864e-05
-4.52262e-05
-4.32856e-05
-2.85313e-05
-2.72435e-05
-1.74426e-05
-1.65998e-05
-1.03218e-05
-9.78929e-06
-5.91909e-06
-5.59492e-06
-3.29482e-06
-3.10421e-06
-1.78094e-06
-1.67221e-06
-9.31188e-07
-8.70653e-07
-4.64098e-07
-4.30208e-07
-1.94196e-07
-1.75084e-07
-4.73508e-08
-3.86804e-08
-2.51049e-09
-4.59572e-10
-1.04003e-10
1.92316e-08
1.05646
-0.0434024
-0.100229
-0.107037
-0.0991376
-0.0955915
-0.0767952
-0.0726904
-0.0606493
-0.0823788
-0.0451872
-0.0329963
-0.030259
-0.0245174
-0.0231127
-0.0189527
-0.0179248
-0.0147497
-0.0139607
-0.0114987
-0.0108848
-0.00896034
-0.00847975
-0.0069694
-0.00659204
-0.00540518
-0.00510873
-0.00417661
-0.00394397
-0.0032133
-0.00303116
-0.00246002
-0.00231787
-0.001873
-0.00176247
-0.00141736
-0.00133178
-0.00106526
-0.000999312
-0.000794497
-0.000743931
-0.000587374
-0.000548819
-0.000429859
-0.00040065
-0.000310883
-0.000288994
-0.000222128
-0.000207347
-0.000165771
-0.000217173
-0.000113722
-7.48717e-05
-6.61351e-05
-4.70022e-05
-4.24818e-05
-2.96891e-05
-2.67047e-05
-1.82156e-05
-1.62628e-05
-1.08216e-05
-9.58746e-06
-6.23012e-06
-5.47851e-06
-3.48126e-06
-3.03912e-06
-1.88898e-06
-1.63666e-06
-9.9202e-07
-8.51476e-07
-4.97279e-07
-4.18602e-07
-2.13586e-07
-1.69271e-07
-5.86054e-08
-3.84569e-08
-6.1666e-09
-1.31085e-09
-3.01165e-10
1.91664e-08
1.05364
-0.0461095
-0.0959243
-0.105178
-0.0991183
-0.0943875
-0.0779055
-0.0724352
-0.0629912
-0.0777167
-0.0469244
-0.0340422
-0.03018
-0.0248708
-0.0229474
-0.0191911
-0.0177902
-0.0149297
-0.0138549
-0.0116377
-0.0108017
-0.00906886
-0.00841427
-0.0070545
-0.00654054
-0.00547206
-0.00506829
-0.00422916
-0.00391232
-0.00325454
-0.00300647
-0.00249229
-0.00229869
-0.00189817
-0.00174763
-0.00143692
-0.00132036
-0.0010804
-0.000990568
-0.000806149
-0.000737274
-0.000596299
-0.000543784
-0.000436657
-0.000396873
-0.000316043
-0.000286244
-0.000226258
-0.000206358
-0.000172265
-0.000204962
-0.000118254
-7.80647e-05
-6.57991e-05
-4.81932e-05
-4.20085e-05
-3.04544e-05
-2.6386e-05
-1.87269e-05
-1.60652e-05
-1.1153e-05
-9.4705e-06
-6.43688e-06
-5.41188e-06
-3.60546e-06
-3.00232e-06
-1.96109e-06
-1.61679e-06
-1.03268e-06
-8.40839e-07
-5.19436e-07
-4.12047e-07
-2.26546e-07
-1.6611e-07
-6.62384e-08
-3.87185e-08
-8.72505e-09
-2.00815e-09
-4.67723e-10
1.9111e-08
1.05166
-0.0476687
-0.0932416
-0.10393
-0.0990451
-0.0936529
-0.0785745
-0.0723383
-0.0643657
-0.0748749
-0.0479447
-0.0347269
-0.0301585
-0.0250884
-0.0228552
-0.0193351
-0.0177138
-0.0150382
-0.0137947
-0.0117214
-0.0107542
-0.00913415
-0.00837691
-0.0071057
-0.00651115
-0.0055123
-0.00504523
-0.00426079
-0.00389427
-0.00327935
-0.0029924
-0.00251172
-0.00228776
-0.00191333
-0.00173918
-0.0014487
-0.00131386
-0.00108951
-0.000985598
-0.000813171
-0.000733493
-0.00060168
-0.000540927
-0.000440758
-0.000394733
-0.000319158
-0.000284697
-0.000228781
-0.000205934
-0.000176085
-0.000197524
-0.000120924
-8.01397e-05
-6.56759e-05
-4.89268e-05
-4.17494e-05
-3.09198e-05
-2.62106e-05
-1.90381e-05
-1.59574e-05
-1.13551e-05
-9.40747e-06
-6.56321e-06
-5.37645e-06
-3.68148e-06
-2.98302e-06
-2.00529e-06
-1.6065e-06
-1.05763e-06
-8.35374e-07
-5.33024e-07
-4.08611e-07
-2.34499e-07
-1.64524e-07
-7.09759e-08
-3.90782e-08
-1.0352e-08
-2.49816e-09
-5.87858e-10
1.90708e-08
1.05064
-0.0483789
-0.0919535
-0.103305
-0.0989912
-0.0933048
-0.078889
-0.07231
-0.0650001
-0.0735299
-0.0484159
-0.0350651
-0.0301567
-0.0251922
-0.0228142
-0.0194029
-0.0176794
-0.0150891
-0.0137675
-0.0117608
-0.0107328
-0.00916481
-0.00836001
-0.00712974
-0.00649785
-0.00553119
-0.00503479
-0.00427563
-0.0038861
-0.00329101
-0.00298603
-0.00252085
-0.00228282
-0.00192045
-0.00173537
-0.00145424
-0.00131093
-0.0010938
-0.000983355
-0.000816472
-0.000731788
-0.00060421
-0.00053964
-0.000442686
-0.00039377
-0.000320624
-0.000284005
-0.000229978
-0.000205788
-0.000177852
-0.000194007
-0.00012216
-8.11604e-05
-6.56431e-05
-4.92767e-05
-4.16359e-05
-3.11399e-05
-2.61334e-05
-1.91854e-05
-1.59103e-05
-1.14509e-05
-9.38017e-06
-6.62313e-06
-5.36127e-06
-3.71759e-06
-2.97483e-06
-2.0263e-06
-1.60219e-06
-1.0695e-06
-8.331e-07
-5.39486e-07
-4.07156e-07
-2.38283e-07
-1.63878e-07
-7.32456e-08
-3.931e-08
-1.11435e-08
-2.75018e-09
-6.50677e-10
1.90497e-08
1.05064
-0.0483794
-0.0919536
-0.103305
-0.0989913
-0.0933048
-0.078889
-0.07231
-0.0650001
-0.0735299
-0.0484159
-0.0350651
-0.0301567
-0.0251922
-0.0228142
-0.0194029
-0.0176794
-0.0150891
-0.0137675
-0.0117608
-0.0107328
-0.00916481
-0.00836001
-0.00712974
-0.00649785
-0.00553119
-0.00503479
-0.00427563
-0.0038861
-0.00329101
-0.00298603
-0.00252085
-0.00228282
-0.00192045
-0.00173537
-0.00145424
-0.00131093
-0.0010938
-0.000983355
-0.000816472
-0.000731788
-0.00060421
-0.00053964
-0.000442686
-0.00039377
-0.000320624
-0.000284005
-0.000229978
-0.000205788
-0.000177852
-0.000194007
-0.00012216
-8.11604e-05
-6.56431e-05
-4.92767e-05
-4.16359e-05
-3.11399e-05
-2.61334e-05
-1.91854e-05
-1.59103e-05
-1.14509e-05
-9.38017e-06
-6.62313e-06
-5.36126e-06
-3.71758e-06
-2.97483e-06
-2.0263e-06
-1.60218e-06
-1.0695e-06
-8.331e-07
-5.39485e-07
-4.07156e-07
-2.38282e-07
-1.63877e-07
-7.32455e-08
-3.931e-08
-1.11434e-08
-2.75015e-09
-6.50654e-10
1.90497e-08
1.05166
-0.04767
-0.0932419
-0.10393
-0.0990452
-0.093653
-0.0785746
-0.0723383
-0.0643657
-0.0748749
-0.0479447
-0.0347269
-0.0301585
-0.0250884
-0.0228552
-0.0193351
-0.0177138
-0.0150382
-0.0137947
-0.0117215
-0.0107542
-0.00913415
-0.00837692
-0.0071057
-0.00651115
-0.0055123
-0.00504523
-0.00426079
-0.00389427
-0.00327935
-0.0029924
-0.00251172
-0.00228776
-0.00191333
-0.00173918
-0.0014487
-0.00131386
-0.00108951
-0.000985598
-0.000813171
-0.000733493
-0.00060168
-0.000540927
-0.000440758
-0.000394733
-0.000319158
-0.000284697
-0.000228781
-0.000205934
-0.000176085
-0.000197524
-0.000120924
-8.01396e-05
-6.56759e-05
-4.89267e-05
-4.17494e-05
-3.09198e-05
-2.62106e-05
-1.90381e-05
-1.59574e-05
-1.13551e-05
-9.40747e-06
-6.56321e-06
-5.37645e-06
-3.68148e-06
-2.98301e-06
-2.00529e-06
-1.6065e-06
-1.05763e-06
-8.35373e-07
-5.33023e-07
-4.0861e-07
-2.34499e-07
-1.64523e-07
-7.09756e-08
-3.9078e-08
-1.03519e-08
-2.49809e-09
-5.87797e-10
1.90709e-08
1.05364
-0.0461111
-0.0959247
-0.105178
-0.0991184
-0.0943876
-0.0779055
-0.0724353
-0.0629912
-0.0777167
-0.0469244
-0.0340422
-0.03018
-0.0248708
-0.0229474
-0.0191911
-0.0177902
-0.0149297
-0.0138549
-0.0116377
-0.0108017
-0.00906886
-0.00841427
-0.00705451
-0.00654054
-0.00547206
-0.0050683
-0.00422917
-0.00391232
-0.00325454
-0.00300648
-0.00249229
-0.00229869
-0.00189817
-0.00174763
-0.00143692
-0.00132036
-0.0010804
-0.000990569
-0.00080615
-0.000737274
-0.0005963
-0.000543784
-0.000436658
-0.000396873
-0.000316043
-0.000286244
-0.000226258
-0.000206358
-0.000172265
-0.000204962
-0.000118254
-7.80646e-05
-6.5799e-05
-4.81932e-05
-4.20084e-05
-3.04543e-05
-2.6386e-05
-1.87269e-05
-1.60652e-05
-1.1153e-05
-9.4705e-06
-6.43688e-06
-5.41188e-06
-3.60545e-06
-3.00232e-06
-1.96108e-06
-1.61679e-06
-1.03268e-06
-8.40838e-07
-5.19435e-07
-4.12046e-07
-2.26545e-07
-1.66109e-07
-6.6238e-08
-3.87182e-08
-8.72488e-09
-2.00805e-09
-4.67643e-10
1.9111e-08
1.05646
-0.0434038
-0.100229
-0.107037
-0.0991378
-0.0955916
-0.0767953
-0.0726905
-0.0606494
-0.0823788
-0.0451872
-0.0329963
-0.030259
-0.0245174
-0.0231127
-0.0189527
-0.0179248
-0.0147497
-0.0139607
-0.0114987
-0.0108849
-0.00896035
-0.00847975
-0.0069694
-0.00659204
-0.00540518
-0.00510873
-0.00417661
-0.00394398
-0.0032133
-0.00303117
-0.00246002
-0.00231787
-0.001873
-0.00176247
-0.00141736
-0.00133178
-0.00106526
-0.000999312
-0.000794497
-0.000743931
-0.000587374
-0.000548819
-0.000429859
-0.00040065
-0.000310883
-0.000288994
-0.000222128
-0.000207348
-0.000165771
-0.000217173
-0.000113722
-7.48717e-05
-6.6135e-05
-4.70021e-05
-4.24817e-05
-2.96891e-05
-2.67047e-05
-1.82156e-05
-1.62628e-05
-1.08216e-05
-9.58746e-06
-6.23012e-06
-5.4785e-06
-3.48125e-06
-3.03911e-06
-1.88898e-06
-1.63666e-06
-9.92018e-07
-8.51475e-07
-4.97279e-07
-4.18602e-07
-2.13586e-07
-1.6927e-07
-5.86051e-08
-3.84567e-08
-6.16646e-09
-1.31076e-09
-3.01095e-10
1.91664e-08
1.0599
-0.0390458
-0.106534
-0.109485
-0.0989825
-0.097405
-0.0750969
-0.0732627
-0.0569563
-0.0893973
-0.0424498
-0.031572
-0.030458
-0.0239904
-0.023388
-0.0185889
-0.0181452
-0.0144742
-0.0141333
-0.0112856
-0.0110204
-0.00879402
-0.00858637
-0.00683893
-0.00667589
-0.00530265
-0.00517456
-0.00409604
-0.00399553
-0.00315009
-0.0030714
-0.00241056
-0.00234915
-0.00183443
-0.00178668
-0.0013874
-0.00135043
-0.0010421
-0.0010136
-0.000776669
-0.000754823
-0.000573724
-0.000557067
-0.000419467
-0.000406848
-0.000303006
-0.000293542
-0.000215914
-0.000209407
-0.000155556
-0.000235578
-0.000106604
-7.04735e-05
-6.68864e-05
-4.52262e-05
-4.32856e-05
-2.85313e-05
-2.72435e-05
-1.74426e-05
-1.65998e-05
-1.03218e-05
-9.78929e-06
-5.91908e-06
-5.59492e-06
-3.29482e-06
-3.10421e-06
-1.78094e-06
-1.67221e-06
-9.31187e-07
-8.70652e-07
-4.64097e-07
-4.30208e-07
-1.94196e-07
-1.75084e-07
-4.73507e-08
-3.86803e-08
-2.51043e-09
-4.59537e-10
-1.03974e-10
1.92316e-08
1.20389
-0.264083
-0.0591377
-0.049285
-0.0458471
-0.0454154
-0.0453173
-0.0454352
-0.04531
-0.0790515
-0.0420487
-0.0368711
-0.0362404
-0.0324022
-0.031997
-0.0282429
-0.0278624
-0.0243235
-0.0239708
-0.0207428
-0.0204246
-0.0175489
-0.0172676
-0.0147495
-0.0145046
-0.0123276
-0.0121168
-0.0102533
-0.0100735
-0.00849095
-0.00833868
-0.0070034
-0.00687523
-0.00575486
-0.00564756
-0.00471218
-0.00462277
-0.0038454
-0.00377125
-0.00312802
-0.00306678
-0.00253687
-0.00248651
-0.00205188
-0.00201068
-0.0016559
-0.00162258
-0.00133539
-0.00131304
-0.00111233
-0.00181075
-0.000895713
-0.000705425
-0.000685209
-0.000565041
-0.000553618
-0.000459835
-0.00045109
-0.000377719
-0.000370909
-0.000313956
-0.000308689
-0.000264853
-0.000260794
-0.000227086
-0.000223767
-0.000194241
-0.000190983
-0.000158252
-0.000154717
-0.000119438
-0.000116052
-8.67865e-05
-8.28597e-05
-3.64977e-05
-3.25565e-05
-1.98466e-06
-3.53757e-07
-7.97139e-08
-5.76912e-06
1.19659
-0.236361
-0.0747562
-0.0527451
-0.0468613
-0.0456732
-0.0454695
-0.0458416
-0.0477424
-0.0726229
-0.0443442
-0.0376962
-0.0361142
-0.0326946
-0.0317505
-0.0285076
-0.0276276
-0.0245748
-0.0237592
-0.020974
-0.020238
-0.0177561
-0.0171055
-0.0149317
-0.0143652
-0.0124857
-0.0119981
-0.010389
-0.00997306
-0.00860646
-0.00825418
-0.00710104
-0.00680453
-0.00583693
-0.00558868
-0.0047808
-0.00457395
-0.00390251
-0.00373093
-0.00317534
-0.00303364
-0.0025759
-0.00245939
-0.00208396
-0.00198863
-0.00168227
-0.00160531
-0.00135939
-0.00131009
-0.00117917
-0.00166639
-0.000949606
-0.000731175
-0.000681327
-0.000574706
-0.000548083
-0.000466886
-0.000446636
-0.000383221
-0.000367461
-0.000318236
-0.000306046
-0.000268148
-0.000258748
-0.000229536
-0.000221843
-0.000196219
-0.000188677
-0.000160438
-0.000152272
-0.000121961
-0.000114113
-8.84661e-05
-7.93967e-05
-3.99768e-05
-3.09154e-05
-4.79629e-06
-1.00697e-06
-2.30772e-07
-5.81972e-06
1.19062
-0.216431
-0.0847908
-0.0555599
-0.0476875
-0.0458913
-0.0455985
-0.0461866
-0.0492555
-0.0683205
-0.0457743
-0.0383184
-0.0360613
-0.0328879
-0.0315957
-0.0286776
-0.0274796
-0.0247365
-0.0236263
-0.021123
-0.0201211
-0.01789
-0.0170042
-0.0150496
-0.0142783
-0.0125881
-0.0119241
-0.010477
-0.00991056
-0.00868135
-0.00820167
-0.00716438
-0.00676063
-0.00589018
-0.00555214
-0.00482534
-0.00454367
-0.0039396
-0.00370595
-0.00320608
-0.00301312
-0.00260128
-0.00244262
-0.00210481
-0.001975
-0.00169945
-0.00159479
-0.00137553
-0.00131039
-0.00122126
-0.00157017
-0.00098356
-0.000750175
-0.000679711
-0.000581168
-0.000544727
-0.000471496
-0.000443906
-0.000386814
-0.000365349
-0.000321034
-0.000304429
-0.0002703
-0.000257493
-0.000231124
-0.000220635
-0.000197472
-0.000187197
-0.00016182
-0.000150712
-0.000123586
-0.000112886
-8.94819e-05
-7.71471e-05
-4.22411e-05
-2.99562e-05
-6.71459e-06
-1.53958e-06
-3.58285e-07
-5.86272e-06
1.18643
-0.203553
-0.0907285
-0.0575199
-0.0482702
-0.046049
-0.0456918
-0.0464319
-0.0501283
-0.0656821
-0.0466004
-0.0387323
-0.0360448
-0.0330056
-0.0315057
-0.0287786
-0.0273931
-0.0248326
-0.0235489
-0.0212119
-0.0200533
-0.0179698
-0.0169455
-0.0151201
-0.014228
-0.0126493
-0.0118814
-0.0105296
-0.00987449
-0.00872617
-0.00817139
-0.0072023
-0.00673533
-0.00592208
-0.0055311
-0.00485204
-0.00452625
-0.00396183
-0.00369159
-0.00322452
-0.00300133
-0.0026165
-0.00243298
-0.00211733
-0.00196719
-0.00170978
-0.00158884
-0.00138548
-0.00131164
-0.00124582
-0.00151137
-0.00100337
-0.000762649
-0.00067921
-0.000585139
-0.000542838
-0.000474274
-0.000442352
-0.000388977
-0.000364147
-0.000322719
-0.000303511
-0.000271598
-0.000256778
-0.000232074
-0.000219932
-0.000198208
-0.000186319
-0.000162629
-0.000149791
-0.000124551
-0.000112166
-9.0054e-05
-7.57997e-05
-4.36001e-05
-2.9435e-05
-7.90999e-06
-1.91231e-06
-4.50186e-07
-5.89392e-06
1.18428
-0.197237
-0.093481
-0.0585209
-0.0485712
-0.0461315
-0.0457407
-0.0465585
-0.0505263
-0.0644285
-0.0469774
-0.0389385
-0.0360419
-0.0330614
-0.0314644
-0.0288257
-0.0273533
-0.0248774
-0.0235133
-0.0212533
-0.0200222
-0.0180071
-0.0169186
-0.015153
-0.014205
-0.0126779
-0.0118619
-0.0105542
-0.00985804
-0.00874715
-0.00815758
-0.00722006
-0.0067238
-0.00593702
-0.00552152
-0.00486454
-0.00451832
-0.00397224
-0.00368505
-0.00323315
-0.00299597
-0.00262363
-0.0024286
-0.00212319
-0.00196364
-0.00171463
-0.00158617
-0.00139023
-0.00131255
-0.00125712
-0.00148349
-0.00101248
-0.000768821
-0.000679125
-0.00058703
-0.000541991
-0.000475581
-0.000441649
-0.000389994
-0.000363605
-0.000323511
-0.000303096
-0.000272207
-0.000256454
-0.000232519
-0.00021961
-0.000198548
-0.000185911
-0.000163003
-0.000149364
-0.000125001
-0.000111833
-9.03106e-05
-7.51691e-05
-4.42369e-05
-2.92077e-05
-8.484e-06
-2.10348e-06
-4.98219e-07
-5.9103e-06
1.18428
-0.197237
-0.0934811
-0.0585209
-0.0485712
-0.0461315
-0.0457407
-0.0465585
-0.0505263
-0.0644285
-0.0469774
-0.0389385
-0.0360419
-0.0330614
-0.0314644
-0.0288257
-0.0273533
-0.0248774
-0.0235133
-0.0212533
-0.0200222
-0.0180071
-0.0169186
-0.015153
-0.014205
-0.0126779
-0.0118619
-0.0105542
-0.00985804
-0.00874715
-0.00815758
-0.00722006
-0.0067238
-0.00593702
-0.00552152
-0.00486454
-0.00451832
-0.00397224
-0.00368505
-0.00323315
-0.00299597
-0.00262363
-0.0024286
-0.00212319
-0.00196364
-0.00171463
-0.00158617
-0.00139023
-0.00131255
-0.00125712
-0.00148349
-0.00101248
-0.000768821
-0.000679125
-0.00058703
-0.000541991
-0.000475581
-0.00044165
-0.000389994
-0.000363605
-0.000323511
-0.000303097
-0.000272207
-0.000256454
-0.000232519
-0.00021961
-0.000198548
-0.000185911
-0.000163003
-0.000149364
-0.000125001
-0.000111833
-9.03106e-05
-7.51691e-05
-4.42369e-05
-2.92077e-05
-8.48398e-06
-2.10346e-06
-4.98216e-07
-5.91029e-06
1.18643
-0.203555
-0.0907287
-0.0575199
-0.0482702
-0.046049
-0.0456918
-0.046432
-0.0501284
-0.0656821
-0.0466004
-0.0387323
-0.0360448
-0.0330056
-0.0315057
-0.0287786
-0.0273931
-0.0248326
-0.0235489
-0.0212119
-0.0200533
-0.0179699
-0.0169455
-0.0151201
-0.014228
-0.0126493
-0.0118814
-0.0105296
-0.0098745
-0.00872618
-0.00817139
-0.00720231
-0.00673533
-0.00592209
-0.0055311
-0.00485204
-0.00452625
-0.00396183
-0.00369159
-0.00322452
-0.00300133
-0.0026165
-0.00243298
-0.00211733
-0.00196719
-0.00170978
-0.00158884
-0.00138548
-0.00131164
-0.00124583
-0.00151137
-0.00100337
-0.00076265
-0.00067921
-0.000585139
-0.000542838
-0.000474275
-0.000442352
-0.000388978
-0.000364148
-0.000322719
-0.000303511
-0.000271598
-0.000256778
-0.000232074
-0.000219932
-0.000198209
-0.000186319
-0.000162629
-0.000149791
-0.000124551
-0.000112166
-9.0054e-05
-7.57996e-05
-4.36e-05
-2.9435e-05
-7.90993e-06
-1.91228e-06
-4.50176e-07
-5.89389e-06
1.19063
-0.216433
-0.0847911
-0.0555599
-0.0476875
-0.0458914
-0.0455985
-0.0461866
-0.0492556
-0.0683205
-0.0457743
-0.0383184
-0.0360614
-0.0328879
-0.0315957
-0.0286777
-0.0274796
-0.0247365
-0.0236263
-0.0211231
-0.0201212
-0.01789
-0.0170042
-0.0150496
-0.0142783
-0.0125881
-0.0119241
-0.010477
-0.00991057
-0.00868136
-0.00820168
-0.00716438
-0.00676063
-0.00589019
-0.00555214
-0.00482535
-0.00454368
-0.0039396
-0.00370596
-0.00320609
-0.00301312
-0.00260128
-0.00244262
-0.00210481
-0.001975
-0.00169946
-0.00159479
-0.00137553
-0.00131039
-0.00122126
-0.00157017
-0.00098356
-0.000750175
-0.000679711
-0.000581168
-0.000544728
-0.000471496
-0.000443906
-0.000386814
-0.000365349
-0.000321034
-0.00030443
-0.000270301
-0.000257493
-0.000231124
-0.000220636
-0.000197473
-0.000187197
-0.00016182
-0.000150712
-0.000123586
-0.000112886
-8.94819e-05
-7.71471e-05
-4.2241e-05
-2.99562e-05
-6.71452e-06
-1.53953e-06
-3.58273e-07
-5.86269e-06
1.1966
-0.236363
-0.0747565
-0.0527452
-0.0468614
-0.0456733
-0.0454696
-0.0458416
-0.0477425
-0.072623
-0.0443443
-0.0376962
-0.0361142
-0.0326946
-0.0317505
-0.0285076
-0.0276276
-0.0245748
-0.0237593
-0.020974
-0.020238
-0.0177561
-0.0171055
-0.0149318
-0.0143652
-0.0124857
-0.0119981
-0.0103891
-0.00997306
-0.00860647
-0.00825419
-0.00710105
-0.00680453
-0.00583693
-0.00558868
-0.0047808
-0.00457395
-0.00390251
-0.00373093
-0.00317534
-0.00303364
-0.00257591
-0.00245939
-0.00208396
-0.00198863
-0.00168227
-0.00160531
-0.0013594
-0.00131009
-0.00117917
-0.00166639
-0.000949607
-0.000731175
-0.000681327
-0.000574706
-0.000548083
-0.000466886
-0.000446636
-0.000383221
-0.000367461
-0.000318237
-0.000306046
-0.000268148
-0.000258748
-0.000229536
-0.000221844
-0.000196219
-0.000188677
-0.000160438
-0.000152272
-0.000121962
-0.000114113
-8.84661e-05
-7.93966e-05
-3.99767e-05
-3.09153e-05
-4.79623e-06
-1.00693e-06
-2.30763e-07
-5.8197e-06
1.20389
-0.264084
-0.0591378
-0.049285
-0.0458471
-0.0454155
-0.0453173
-0.0454352
-0.04531
-0.0790516
-0.0420487
-0.0368711
-0.0362404
-0.0324022
-0.031997
-0.0282429
-0.0278624
-0.0243235
-0.0239708
-0.0207428
-0.0204246
-0.0175489
-0.0172676
-0.0147495
-0.0145046
-0.0123276
-0.0121168
-0.0102533
-0.0100735
-0.00849095
-0.00833868
-0.0070034
-0.00687524
-0.00575487
-0.00564757
-0.00471218
-0.00462278
-0.0038454
-0.00377125
-0.00312802
-0.00306678
-0.00253687
-0.00248651
-0.00205188
-0.00201068
-0.0016559
-0.00162258
-0.00133539
-0.00131304
-0.00111233
-0.00181075
-0.000895713
-0.000705425
-0.000685209
-0.000565041
-0.000553618
-0.000459836
-0.00045109
-0.000377719
-0.00037091
-0.000313956
-0.000308689
-0.000264853
-0.000260794
-0.000227086
-0.000223767
-0.000194241
-0.000190983
-0.000158252
-0.000154717
-0.000119438
-0.000116052
-8.67865e-05
-8.28597e-05
-3.64977e-05
-3.25565e-05
-1.98464e-06
-3.53742e-07
-7.97105e-08
-5.76911e-06
1.19942
-0.264163
-0.0590368
-0.0491733
-0.0457007
-0.0452661
-0.0451512
-0.0452668
-0.0451276
-0.0787205
-0.0418654
-0.0366987
-0.0360696
-0.0322393
-0.0318352
-0.0280911
-0.0277118
-0.0241843
-0.0238329
-0.0206169
-0.0203
-0.0174365
-0.0171564
-0.01465
-0.0144063
-0.0122405
-0.0120309
-0.0101778
-0.00999902
-0.00842595
-0.00827462
-0.00694789
-0.00682058
-0.00570783
-0.00560127
-0.0046726
-0.00458385
-0.00381232
-0.00373873
-0.00310056
-0.0030398
-0.0025142
-0.00246426
-0.00203329
-0.00199244
-0.00164072
-0.00160769
-0.00132304
-0.00130089
-0.00110198
-0.00179386
-0.000887341
-0.00069882
-0.000678792
-0.000559752
-0.000548437
-0.000455547
-0.000446885
-0.000374223
-0.00036748
-0.00031109
-0.000305877
-0.000262496
-0.000258481
-0.000225151
-0.000221871
-0.000192714
-0.000189495
-0.000157126
-0.000153626
-0.000118653
-0.000115297
-8.62995e-05
-8.24002e-05
-3.63006e-05
-3.23814e-05
-1.97395e-06
-3.51846e-07
-7.92831e-08
-5.7356e-06
1.19213
-0.236422
-0.0746695
-0.052634
-0.0467182
-0.0455231
-0.0453043
-0.0456706
-0.0475505
-0.0723189
-0.0441511
-0.0375212
-0.0359435
-0.0325312
-0.0315893
-0.0283552
-0.0274778
-0.0244349
-0.0236221
-0.0208473
-0.0201142
-0.0176428
-0.0169951
-0.0148315
-0.0142677
-0.0123979
-0.0119128
-0.0103128
-0.00989918
-0.00854079
-0.00819068
-0.00704493
-0.00675036
-0.00578934
-0.00554282
-0.00474073
-0.00453539
-0.00386901
-0.00369874
-0.00314751
-0.00300694
-0.00255293
-0.00243738
-0.0020651
-0.00197058
-0.00166687
-0.00159058
-0.00134683
-0.00129796
-0.00116819
-0.00165085
-0.000940733
-0.000724331
-0.000674947
-0.000569327
-0.000542956
-0.000462531
-0.000442475
-0.000379672
-0.000364066
-0.000315329
-0.000303262
-0.000265757
-0.000256459
-0.000227575
-0.000219973
-0.000194666
-0.000187212
-0.000159286
-0.000151201
-0.000121155
-0.000113376
-8.79603e-05
-7.89545e-05
-3.97593e-05
-3.07487e-05
-4.77039e-06
-1.00153e-06
-2.29525e-07
-5.78593e-06
1.18616
-0.216479
-0.0847133
-0.0554496
-0.0475466
-0.0457409
-0.0454338
-0.0460135
-0.0490576
-0.0680346
-0.0455751
-0.0381414
-0.0358906
-0.0327241
-0.031435
-0.0285248
-0.0273302
-0.024596
-0.0234897
-0.0209958
-0.0199979
-0.0177761
-0.0168943
-0.0149488
-0.0141813
-0.0124997
-0.0118393
-0.0104002
-0.00983709
-0.00861524
-0.00813852
-0.00710787
-0.00670677
-0.00584224
-0.00550655
-0.00478496
-0.00450536
-0.00390582
-0.00367397
-0.00317801
-0.00298659
-0.0025781
-0.00242075
-0.00208578
-0.00195707
-0.0016839
-0.00158015
-0.00136282
-0.00129826
-0.0012099
-0.00155553
-0.000974371
-0.000743155
-0.000673347
-0.000575729
-0.000539632
-0.000467097
-0.000439771
-0.00038323
-0.000361976
-0.000318099
-0.000301663
-0.000267889
-0.000255219
-0.000229146
-0.00021878
-0.000195904
-0.000185748
-0.000160651
-0.000149653
-0.000122765
-0.00011216
-8.89641e-05
-7.67159e-05
-4.20104e-05
-2.97944e-05
-6.6783e-06
-1.53126e-06
-3.56349e-07
-5.82869e-06
1.18197
-0.203593
-0.0906566
-0.0574103
-0.0481307
-0.0458984
-0.0455274
-0.0462575
-0.049927
-0.0654072
-0.0463977
-0.0385539
-0.0358739
-0.0328415
-0.0313453
-0.0286255
-0.0272441
-0.0246919
-0.0234126
-0.0210843
-0.0199303
-0.0178557
-0.0168358
-0.015019
-0.0141313
-0.0125606
-0.0117968
-0.0104526
-0.00980124
-0.0086598
-0.00810844
-0.00714556
-0.00668165
-0.00587393
-0.00548567
-0.00481147
-0.00448807
-0.00392789
-0.00365972
-0.00319631
-0.0029749
-0.00259319
-0.00241119
-0.00209819
-0.00194933
-0.00169414
-0.00157426
-0.00137269
-0.0012995
-0.00123424
-0.00149728
-0.000994
-0.000755513
-0.000672852
-0.000579663
-0.000537761
-0.000469849
-0.000438232
-0.000385373
-0.000360786
-0.000319768
-0.000300755
-0.000269173
-0.000254512
-0.000230086
-0.000218087
-0.00019663
-0.000184879
-0.00016145
-0.000148739
-0.000123722
-0.000111446
-8.95291e-05
-7.53748e-05
-4.33613e-05
-2.92758e-05
-7.86723e-06
-1.90198e-06
-4.47753e-07
-5.85972e-06
1.17981
-0.197272
-0.0934117
-0.0584118
-0.0484324
-0.0459808
-0.0455764
-0.0463834
-0.0503234
-0.064159
-0.0467732
-0.0387595
-0.035871
-0.0328972
-0.0313041
-0.0286725
-0.0272044
-0.0247366
-0.0233772
-0.0211256
-0.0198994
-0.0178928
-0.0168091
-0.0150517
-0.0141084
-0.0125891
-0.0117774
-0.010477
-0.00978489
-0.00868065
-0.00809473
-0.0071632
-0.00667021
-0.00588877
-0.00547616
-0.00482388
-0.0044802
-0.00393822
-0.00365324
-0.00320488
-0.00296958
-0.00260027
-0.00240685
-0.00210401
-0.00194581
-0.00169895
-0.0015716
-0.0013774
-0.0013004
-0.00124542
-0.00146966
-0.00100302
-0.000761628
-0.000672768
-0.000581537
-0.000536922
-0.000471143
-0.000437537
-0.00038638
-0.000360249
-0.000320553
-0.000300345
-0.000269776
-0.000254193
-0.000230526
-0.000217768
-0.000196966
-0.000184475
-0.000161819
-0.000148315
-0.000124167
-0.000111116
-8.97823e-05
-7.47471e-05
-4.39943e-05
-2.90496e-05
-8.43814e-06
-2.09211e-06
-4.95527e-07
-5.87602e-06
1.17981
-0.197273
-0.0934118
-0.0584118
-0.0484325
-0.0459809
-0.0455764
-0.0463835
-0.0503234
-0.064159
-0.0467732
-0.0387595
-0.035871
-0.0328972
-0.0313041
-0.0286725
-0.0272044
-0.0247366
-0.0233772
-0.0211256
-0.0198994
-0.0178928
-0.0168091
-0.0150517
-0.0141084
-0.0125891
-0.0117774
-0.010477
-0.00978489
-0.00868065
-0.00809473
-0.0071632
-0.00667021
-0.00588877
-0.00547616
-0.00482388
-0.0044802
-0.00393823
-0.00365324
-0.00320488
-0.00296958
-0.00260027
-0.00240685
-0.00210401
-0.00194581
-0.00169895
-0.0015716
-0.0013774
-0.0013004
-0.00124542
-0.00146966
-0.00100302
-0.000761628
-0.000672768
-0.000581537
-0.000536922
-0.000471143
-0.000437537
-0.000386381
-0.000360249
-0.000320553
-0.000300345
-0.000269776
-0.000254193
-0.000230526
-0.000217768
-0.000196966
-0.000184475
-0.000161819
-0.000148315
-0.000124167
-0.000111116
-8.97823e-05
-7.47471e-05
-4.39943e-05
-2.90496e-05
-8.43812e-06
-2.09209e-06
-4.95523e-07
-5.87601e-06
1.18197
-0.203594
-0.0906568
-0.0574103
-0.0481308
-0.0458984
-0.0455274
-0.0462576
-0.049927
-0.0654073
-0.0463977
-0.0385539
-0.0358739
-0.0328415
-0.0313453
-0.0286256
-0.0272441
-0.0246919
-0.0234126
-0.0210843
-0.0199303
-0.0178557
-0.0168358
-0.015019
-0.0141313
-0.0125606
-0.0117968
-0.0104526
-0.00980125
-0.0086598
-0.00810845
-0.00714556
-0.00668166
-0.00587394
-0.00548568
-0.00481147
-0.00448807
-0.00392789
-0.00365972
-0.00319631
-0.0029749
-0.00259319
-0.00241119
-0.00209819
-0.00194933
-0.00169414
-0.00157426
-0.00137269
-0.0012995
-0.00123424
-0.00149728
-0.000994
-0.000755513
-0.000672852
-0.000579663
-0.000537761
-0.000469849
-0.000438232
-0.000385374
-0.000360786
-0.000319769
-0.000300755
-0.000269173
-0.000254512
-0.000230086
-0.000218087
-0.00019663
-0.000184879
-0.00016145
-0.000148739
-0.000123722
-0.000111446
-8.9529e-05
-7.53747e-05
-4.33612e-05
-2.92757e-05
-7.86718e-06
-1.90194e-06
-4.47744e-07
-5.8597e-06
1.18616
-0.216481
-0.0847136
-0.0554496
-0.0475467
-0.045741
-0.0454338
-0.0460136
-0.0490577
-0.0680346
-0.0455752
-0.0381414
-0.0358906
-0.0327241
-0.031435
-0.0285248
-0.0273303
-0.0245961
-0.0234897
-0.0209958
-0.0199979
-0.0177761
-0.0168943
-0.0149489
-0.0141813
-0.0124997
-0.0118393
-0.0104002
-0.00983709
-0.00861524
-0.00813853
-0.00710787
-0.00670678
-0.00584225
-0.00550656
-0.00478497
-0.00450536
-0.00390582
-0.00367397
-0.00317802
-0.00298659
-0.0025781
-0.00242075
-0.00208578
-0.00195707
-0.0016839
-0.00158015
-0.00136282
-0.00129826
-0.0012099
-0.00155553
-0.000974371
-0.000743155
-0.000673347
-0.000575729
-0.000539633
-0.000467097
-0.000439772
-0.000383231
-0.000361976
-0.0003181
-0.000301663
-0.000267889
-0.000255219
-0.000229146
-0.000218781
-0.000195904
-0.000185748
-0.000160651
-0.000149653
-0.000122765
-0.00011216
-8.89641e-05
-7.67158e-05
-4.20103e-05
-2.97943e-05
-6.67824e-06
-1.53121e-06
-3.56337e-07
-5.82867e-06
1.19213
-0.236424
-0.0746698
-0.052634
-0.0467182
-0.0455232
-0.0453043
-0.0456706
-0.0475506
-0.072319
-0.0441512
-0.0375212
-0.0359435
-0.0325312
-0.0315893
-0.0283552
-0.0274778
-0.0244349
-0.0236221
-0.0208473
-0.0201142
-0.0176428
-0.0169951
-0.0148315
-0.0142677
-0.0123979
-0.0119128
-0.0103128
-0.00989919
-0.00854079
-0.00819069
-0.00704493
-0.00675037
-0.00578935
-0.00554282
-0.00474073
-0.0045354
-0.00386901
-0.00369874
-0.00314751
-0.00300694
-0.00255293
-0.00243738
-0.0020651
-0.00197058
-0.00166687
-0.00159058
-0.00134683
-0.00129796
-0.00116819
-0.00165085
-0.000940733
-0.000724331
-0.000674947
-0.000569328
-0.000542956
-0.000462531
-0.000442475
-0.000379672
-0.000364067
-0.00031533
-0.000303262
-0.000265758
-0.000256459
-0.000227575
-0.000219973
-0.000194667
-0.000187213
-0.000159286
-0.000151201
-0.000121155
-0.000113376
-8.79603e-05
-7.89544e-05
-3.97593e-05
-3.07486e-05
-4.77033e-06
-1.00149e-06
-2.29516e-07
-5.78591e-06
1.19942
-0.264164
-0.0590369
-0.0491733
-0.0457007
-0.0452661
-0.0451512
-0.0452668
-0.0451276
-0.0787205
-0.0418654
-0.0366987
-0.0360696
-0.0322394
-0.0318352
-0.0280911
-0.0277118
-0.0241843
-0.0238329
-0.020617
-0.0203
-0.0174365
-0.0171564
-0.0146501
-0.0144063
-0.0122406
-0.0120309
-0.0101778
-0.00999902
-0.00842595
-0.00827462
-0.0069479
-0.00682058
-0.00570783
-0.00560128
-0.0046726
-0.00458385
-0.00381232
-0.00373874
-0.00310056
-0.0030398
-0.00251421
-0.00246427
-0.00203329
-0.00199244
-0.00164073
-0.00160769
-0.00132304
-0.00130089
-0.00110198
-0.00179386
-0.000887341
-0.00069882
-0.000678792
-0.000559752
-0.000548438
-0.000455547
-0.000446885
-0.000374223
-0.00036748
-0.000311091
-0.000305877
-0.000262496
-0.000258481
-0.000225151
-0.000221872
-0.000192714
-0.000189495
-0.000157126
-0.000153626
-0.000118653
-0.000115297
-8.62995e-05
-8.24002e-05
-3.63005e-05
-3.23814e-05
-1.97393e-06
-3.51831e-07
-7.92798e-08
-5.7356e-06
1.05815
-0.0390789
-0.106454
-0.109398
-0.0988736
-0.0972951
-0.0749912
-0.0731573
-0.0568578
-0.0892303
-0.0423634
-0.0314993
-0.0303868
-0.0239285
-0.023327
-0.0185361
-0.0180932
-0.0144296
-0.0140895
-0.0112482
-0.0109837
-0.00876296
-0.00855587
-0.00681335
-0.00665078
-0.00528176
-0.00515408
-0.00407913
-0.00397896
-0.00313652
-0.00305811
-0.00239977
-0.00233859
-0.00182592
-0.00177836
-0.00138075
-0.00134394
-0.00103695
-0.00100858
-0.000772727
-0.000750981
-0.000570738
-0.000554161
-0.000417233
-0.000404677
-0.000301359