/*--------------------------------*- C++ -*----------------------------------*\
| =========                 |                                                 |
| \\      /  F ield         | OpenFOAM: The Open Source CFD Toolbox           |
|  \\    /   O peration     | Version:  5.x                                   |
|   \\  /    A nd           | Web:      www.OpenFOAM.org                      |
|    \\/     M anipulation  |                                                 |
\*---------------------------------------------------------------------------*/
FoamFile
{
    version     2.0;
    format      ascii;
    class       volScalarField;
    location    "1.6";
    object      T;
}
// * * * * * * * * * * * * * * * * * * * * * * * * * * * * * * * * * * * * * //

dimensions      [0 0 0 1 0 0 0];

internalField   nonuniform List<scalar> 
3200
(
0.0546089
0.051381
0.0507044
0.0407276
0.0397559
0.0308293
0.0300154
0.0233196
0.0226891
0.017624
0.0137494
0.013379
0.0105922
0.0103332
0.00819315
0.00799444
0.00633426
0.00617992
0.00488684
0.00476659
0.00375828
0.00366455
0.00287888
0.00280591
0.00219499
0.00213832
0.00166473
0.00162087
0.00125512
0.00122131
0.000940112
0.000914174
0.000699055
0.000679259
0.000515612
0.000500592
0.000376872
0.000365549
0.000272662
0.000264188
0.000194995
0.000188706
0.000137623
0.000133
9.56762e-05
9.23148e-05
6.53756e-05
6.29605e-05
4.37842e-05
4.20198e-05
2.82286e-05
1.8462e-05
1.75681e-05
1.14147e-05
1.08795e-05
6.89204e-06
6.55094e-06
4.03891e-06
3.82659e-06
2.29464e-06
2.16661e-06
1.26247e-06
1.18768e-06
6.70558e-07
6.2819e-07
3.41076e-07
3.17769e-07
1.62982e-07
1.50548e-07
6.98634e-08
6.34826e-08
2.34536e-08
2.04618e-08
4.034e-09
2.95337e-09
-7.01079e-10
-9.14671e-10
-9.52128e-10
-9.60628e-10
-9.62528e-10
0.0542153
0.0514308
0.049875
0.0414079
0.0391713
0.0314942
0.0296121
0.0238147
0.0223431
0.0177497
0.0141052
0.013231
0.0108056
0.0102051
0.00835386
0.00789383
0.00645859
0.00610135
0.00498362
0.00470528
0.00383375
0.0036168
0.00293771
0.00276882
0.00224077
0.00210962
0.00170026
0.00159874
0.0012826
0.00120435
0.000961266
0.00090123
0.000715264
0.000669443
0.000527965
0.000493197
0.000386229
0.000360019
0.000279703
0.000260087
0.000200253
0.000185694
0.000141516
0.000130812
9.85299e-05
9.07474e-05
6.74416e-05
6.1848e-05
4.52288e-05
4.11132e-05
2.86517e-05
1.93959e-05
1.72796e-05
1.19087e-05
1.06661e-05
7.2085e-06
6.41788e-06
4.23959e-06
3.74741e-06
2.41803e-06
2.12113e-06
1.33587e-06
1.16238e-06
7.12858e-07
6.14534e-07
3.64733e-07
3.10622e-07
1.75835e-07
1.46956e-07
7.66328e-08
6.18085e-08
2.69049e-08
1.99483e-08
5.54624e-09
3.02121e-09
-3.14299e-10
-8.24479e-10
-9.30959e-10
-9.55565e-10
-9.61076e-10
0.0539328
0.0514313
0.0493219
0.0418389
0.0388041
0.031927
0.0293654
0.0241365
0.0221218
0.0178374
0.0143502
0.0131449
0.0109459
0.0101269
0.00845886
0.00783219
0.00653975
0.00605316
0.00504678
0.00466767
0.003883
0.00358751
0.00297612
0.00274608
0.00227067
0.00209203
0.00172346
0.0015852
0.00130055
0.00119397
0.000975092
0.000893318
0.000725862
0.000663449
0.000536045
0.000488686
0.000392353
0.00035665
0.000284314
0.000257593
0.000203699
0.000183866
0.000144069
0.000129488
0.000100403
8.98003e-05
6.87987e-05
6.1176e-05
4.61729e-05
4.05402e-05
2.89464e-05
2.0044e-05
1.7121e-05
1.22375e-05
1.05411e-05
7.41822e-06
6.34029e-06
4.37279e-06
3.70169e-06
2.50009e-06
2.09517e-06
1.38479e-06
1.14812e-06
7.41104e-07
6.06933e-07
3.80558e-07
3.067e-07
1.84449e-07
1.45021e-07
8.11814e-08
6.0937e-08
2.92378e-08
1.97324e-08
6.58328e-09
3.1214e-09
-4.05633e-11
-7.50448e-10
-9.13068e-10
-9.51262e-10
-9.5984e-10
0.0537501
0.0514156
0.0489833
0.0420915
0.0385903
0.032187
0.029225
0.0243295
0.0219911
0.0178929
0.0145037
0.0130985
0.011031
0.0100826
0.00852213
0.00779709
0.00658861
0.00602571
0.0050848
0.00464624
0.00391265
0.00357082
0.00299924
0.00273313
0.00228867
0.00208201
0.00173744
0.00157749
0.00131136
0.00118806
0.000983423
0.000888824
0.000732251
0.000660048
0.000540918
0.00048613
0.000396048
0.000354743
0.000287097
0.000256184
0.000205779
0.000182834
0.000145611
0.000128742
0.000101536
8.92683e-05
6.96198e-05
6.07986e-05
4.67417e-05
4.02051e-05
2.91332e-05
2.04527e-05
1.70407e-05
1.24387e-05
1.04732e-05
7.54605e-06
6.29821e-06
4.45407e-06
3.67715e-06
2.55026e-06
2.0814e-06
1.41475e-06
1.14066e-06
7.58426e-07
6.03012e-07
3.90277e-07
3.0471e-07
1.89748e-07
1.4406e-07
8.3985e-08
6.05229e-08
3.06825e-08
1.96619e-08
7.23263e-09
3.2095e-09
1.35041e-10
-6.98325e-10
-9.00157e-10
-9.48141e-10
-9.58943e-10
0.0536604
0.0514033
0.0488225
0.042208
0.0384921
0.0323088
0.0291616
0.0244199
0.0219306
0.0179199
0.0145776
0.0130783
0.0110711
0.0100627
0.00855186
0.00778124
0.00661157
0.0060133
0.00510265
0.00463655
0.00392658
0.00356328
0.0030101
0.00272727
0.00229712
0.00207749
0.001744
0.00157401
0.00131644
0.0011854
0.000987339
0.000886797
0.000735254
0.000658515
0.000543209
0.000484979
0.000397786
0.000353886
0.000288406
0.00025555
0.000206759
0.000182371
0.000146338
0.000128407
0.000102069
8.90303e-05
7.00068e-05
6.06298e-05
4.7009e-05
4.0051e-05
2.92238e-05
2.06503e-05
1.70078e-05
1.25343e-05
1.04435e-05
7.60659e-06
6.27989e-06
4.4926e-06
3.66655e-06
2.57406e-06
2.07552e-06
1.42897e-06
1.1375e-06
7.66662e-07
6.01375e-07
3.94903e-07
3.03891e-07
1.92273e-07
1.43673e-07
8.53223e-08
6.03629e-08
3.13738e-08
1.96473e-08
7.54551e-09
3.25952e-09
2.20943e-10
-6.71485e-10
-8.93403e-10
-9.46503e-10
-9.58471e-10
0.0536605
0.0514033
0.0488225
0.042208
0.0384921
0.0323088
0.0291616
0.0244199
0.0219306
0.0179199
0.0145776
0.0130783
0.0110711
0.0100627
0.00855186
0.00778124
0.00661157
0.0060133
0.00510265
0.00463655
0.00392658
0.00356328
0.0030101
0.00272727
0.00229712
0.00207749
0.001744
0.00157401
0.00131644
0.0011854
0.000987339
0.000886797
0.000735254
0.000658515
0.000543209
0.000484979
0.000397786
0.000353886
0.000288406
0.00025555
0.000206759
0.000182371
0.000146338
0.000128407
0.000102069
8.90303e-05
7.00068e-05
6.06298e-05
4.70089e-05
4.0051e-05
2.92238e-05
2.06503e-05
1.70078e-05
1.25343e-05
1.04435e-05
7.60659e-06
6.27989e-06
4.4926e-06
3.66655e-06
2.57406e-06
2.07552e-06
1.42897e-06
1.1375e-06
7.66661e-07
6.01375e-07
3.94903e-07
3.03891e-07
1.92272e-07
1.43673e-07
8.53223e-08
6.03628e-08
3.13737e-08
1.96472e-08
7.54549e-09
3.25951e-09
2.20937e-10
-6.71489e-10
-8.93405e-10
-9.46504e-10
-9.58471e-10
0.0537503
0.0514157
0.0489833
0.0420915
0.0385903
0.032187
0.029225
0.0243295
0.0219911
0.0178929
0.0145037
0.0130985
0.011031
0.0100826
0.00852213
0.0077971
0.00658862
0.00602571
0.0050848
0.00464624
0.00391265
0.00357082
0.00299924
0.00273313
0.00228867
0.00208201
0.00173744
0.00157749
0.00131136
0.00118806
0.000983423
0.000888824
0.000732251
0.000660048
0.000540918
0.00048613
0.000396048
0.000354743
0.000287097
0.000256184
0.000205779
0.000182834
0.000145611
0.000128742
0.000101536
8.92683e-05
6.96198e-05
6.07986e-05
4.67417e-05
4.02051e-05
2.91331e-05
2.04527e-05
1.70407e-05
1.24387e-05
1.04731e-05
7.54605e-06
6.29821e-06
4.45407e-06
3.67715e-06
2.55026e-06
2.0814e-06
1.41475e-06
1.14066e-06
7.58425e-07
6.03011e-07
3.90277e-07
3.0471e-07
1.89748e-07
1.4406e-07
8.39848e-08
6.05228e-08
3.06824e-08
1.96618e-08
7.23259e-09
3.20947e-09
1.35023e-10
-6.98335e-10
-9.00162e-10
-9.48144e-10
-9.58942e-10
0.053933
0.0514314
0.0493219
0.0418389
0.0388041
0.031927
0.0293654
0.0241365
0.0221218
0.0178374
0.0143502
0.0131449
0.0109459
0.0101269
0.00845887
0.00783219
0.00653975
0.00605317
0.00504678
0.00466768
0.00388301
0.00358751
0.00297612
0.00274608
0.00227067
0.00209203
0.00172346
0.0015852
0.00130055
0.00119397
0.000975092
0.000893318
0.000725863
0.00066345
0.000536045
0.000488686
0.000392353
0.00035665
0.000284314
0.000257593
0.000203699
0.000183866
0.000144069
0.000129488
0.000100403
8.98003e-05
6.87987e-05
6.1176e-05
4.61729e-05
4.05402e-05
2.89464e-05
2.0044e-05
1.7121e-05
1.22375e-05
1.05411e-05
7.41822e-06
6.34029e-06
4.37278e-06
3.70169e-06
2.50009e-06
2.09517e-06
1.38479e-06
1.14812e-06
7.41103e-07
6.06932e-07
3.80557e-07
3.067e-07
1.84449e-07
1.45021e-07
8.11812e-08
6.09369e-08
2.92377e-08
1.97323e-08
6.58322e-09
3.12136e-09
-4.05867e-11
-7.50461e-10
-9.13075e-10
-9.51265e-10
-9.59839e-10
0.0542154
0.0514309
0.0498751
0.041408
0.0391713
0.0314942
0.0296122
0.0238147
0.0223431
0.0177497
0.0141052
0.013231
0.0108056
0.0102051
0.00835386
0.00789383
0.00645859
0.00610135
0.00498362
0.00470528
0.00383375
0.0036168
0.00293772
0.00276882
0.00224078
0.00210962
0.00170026
0.00159874
0.0012826
0.00120435
0.000961266
0.000901231
0.000715265
0.000669444
0.000527965
0.000493197
0.000386229
0.000360019
0.000279703
0.000260087
0.000200253
0.000185694
0.000141516
0.000130812
9.85299e-05
9.07474e-05
6.74416e-05
6.1848e-05
4.52288e-05
4.11132e-05
2.86517e-05
1.93959e-05
1.72796e-05
1.19087e-05
1.06661e-05
7.2085e-06
6.41788e-06
4.23958e-06
3.74741e-06
2.41803e-06
2.12113e-06
1.33587e-06
1.16238e-06
7.12857e-07
6.14533e-07
3.64732e-07
3.10622e-07
1.75834e-07
1.46956e-07
7.66326e-08
6.18084e-08
2.69048e-08
1.99482e-08
5.54619e-09
3.02118e-09
-3.14319e-10
-8.24491e-10
-9.30965e-10
-9.55567e-10
-9.61075e-10
0.054609
0.051381
0.0507044
0.0407276
0.0397559
0.0308293
0.0300154
0.0233197
0.0226891
0.017624
0.0137494
0.013379
0.0105922
0.0103332
0.00819315
0.00799444
0.00633426
0.00617992
0.00488685
0.00476659
0.00375829
0.00366455
0.00287888
0.00280591
0.00219499
0.00213832
0.00166473
0.00162087
0.00125512
0.00122131
0.000940112
0.000914174
0.000699056
0.00067926
0.000515612
0.000500592
0.000376872
0.000365549
0.000272662
0.000264189
0.000194995
0.000188706
0.000137623
0.000133
9.56762e-05
9.23148e-05
6.53756e-05
6.29606e-05
4.37842e-05
4.20198e-05
2.82286e-05
1.8462e-05
1.75681e-05
1.14147e-05
1.08795e-05
6.89204e-06
6.55094e-06
4.03891e-06
3.82659e-06
2.29464e-06
2.16661e-06
1.26247e-06
1.18768e-06
6.70558e-07
6.28189e-07
3.41076e-07
3.17769e-07
1.62982e-07
1.50548e-07
6.98633e-08
6.34825e-08
2.34536e-08
2.04618e-08
4.03398e-09
2.95336e-09
-7.01087e-10
-9.14676e-10
-9.5213e-10
-9.60629e-10
-9.62528e-10
0.072669
0.0477198
0.0462606
0.0418061
0.0413321
0.0372214
0.0367906
0.0326896
0.0322471
0.0281586
0.0243419
0.0239538
0.0206548
0.0203297
0.0174146
0.01713
0.0145903
0.0143438
0.012158
0.0119467
0.0100837
0.00990424
0.00832878
0.00817748
0.00685383
0.00672702
0.00562107
0.00551534
0.00459574
0.00450799
0.00374664
0.00367412
0.0030463
0.0029866
0.00247082
0.00242184
0.0019996
0.00195957
0.00161506
0.00158244
0.00130226
0.00127576
0.00104857
0.00102711
0.000843383
0.000826045
0.000677793
0.000663787
0.000544254
0.000532482
0.00043302
0.000351407
0.000343449
0.000280865
0.000274928
0.00022436
0.000219566
0.000178377
0.000174457
0.000140605
0.000137366
0.00010921
0.000106498
8.27242e-05
8.04181e-05
6.00156e-05
5.80414e-05
4.05916e-05
3.89431e-05
2.47664e-05
2.34714e-05
1.28226e-05
1.18662e-05
4.14394e-06
3.58021e-06
4.94165e-07
3.2456e-07
2.95699e-07
2.89184e-07
2.87728e-07
0.0699887
0.0496708
0.0463525
0.0421951
0.041078
0.037509
0.0365107
0.0329621
0.0319266
0.0281878
0.0246643
0.0237534
0.0208946
0.020142
0.0176252
0.0169669
0.0147744
0.0142042
0.0123169
0.0118282
0.0102195
0.00980444
0.00844393
0.00809389
0.00695076
0.00665737
0.00570219
0.00545756
0.00466328
0.00446026
0.00380264
0.00363484
0.00309253
0.00295439
0.00250884
0.00239552
0.00203076
0.00193813
0.00164051
0.00156503
0.00132298
0.00126167
0.00106539
0.00101573
0.000856989
0.000816867
0.000688762
0.000656336
0.000552823
0.000525327
0.000434906
0.000358688
0.000339946
0.000285571
0.000271813
0.0002281
0.000217005
0.000181412
0.000172341
0.00014309
0.000135595
0.000111266
0.00010499
8.44513e-05
7.91156e-05
6.14977e-05
5.69312e-05
4.18758e-05
3.80636e-05
2.5832e-05
2.28363e-05
1.36359e-05
1.1425e-05
4.78926e-06
3.48533e-06
7.9158e-07
3.93795e-07
3.11951e-07
2.93098e-07
2.88874e-07
0.0681209
0.0509414
0.0464778
0.0424624
0.0409218
0.0376936
0.0363327
0.0331338
0.031714
0.0282082
0.024882
0.0236308
0.0210501
0.0200247
0.0177613
0.0168651
0.0148936
0.0141171
0.0124199
0.0117545
0.0103076
0.0097424
0.00851862
0.00804198
0.00701365
0.00661415
0.00575485
0.00542174
0.00470715
0.00443068
0.00383901
0.00361052
0.00312258
0.00293445
0.00253356
0.00237924
0.00205102
0.00192487
0.00165706
0.00155428
0.00133645
0.00125297
0.00107633
0.0010087
0.000865846
0.000811204
0.0006959
0.000651725
0.000558348
0.000520686
0.000436221
0.000363668
0.000337865
0.000288651
0.000269894
0.000230534
0.000215422
0.000183384
0.000171031
0.000144703
0.000134496
0.0001126
0.000104053
8.55696e-05
7.83038e-05
6.24572e-05
5.62402e-05
4.271e-05
3.75205e-05
2.6528e-05
2.24493e-05
1.41694e-05
1.11607e-05
5.22125e-06
3.44601e-06
9.97135e-07
4.50381e-07
3.25676e-07
2.96424e-07
2.89848e-07
0.06694
0.0517031
0.0465847
0.0426302
0.0408327
0.0378032
0.0362278
0.033234
0.0315846
0.0282212
0.0250164
0.0235612
0.0211432
0.0199567
0.0178426
0.0168061
0.0149648
0.0140668
0.0124815
0.0117119
0.0103603
0.00970661
0.00856333
0.00801206
0.00705133
0.00658926
0.0057864
0.00540112
0.00473344
0.00441368
0.00386082
0.00359654
0.00314059
0.002923
0.00254838
0.00236989
0.00206318
0.00191727
0.001667
0.00154811
0.00134455
0.00124798
0.0010829
0.00100468
0.000871164
0.000807959
0.000700186
0.000649075
0.000561638
0.000517911
0.000437055
0.000366774
0.000336718
0.000290509
0.000268797
0.000231995
0.000214513
0.000184568
0.000170278
0.00014567
0.000133863
0.000113398
0.000103512
8.62383e-05
7.78344e-05
6.30309e-05
5.58412e-05
4.321e-05
3.72092e-05
2.69471e-05
2.22301e-05
1.4492e-05
1.10135e-05
5.48658e-06
3.43357e-06
1.12657e-06
4.90067e-07
3.35574e-07
2.98836e-07
2.90555e-07
0.0663682
0.0520595
0.0466445
0.0427114
0.0407924
0.0378542
0.0361793
0.0332802
0.0315234
0.0282275
0.0250806
0.0235298
0.0211867
0.0199256
0.0178806
0.0167792
0.014998
0.0140438
0.0125103
0.0116925
0.010385
0.00969029
0.00858426
0.00799843
0.00706896
0.00657793
0.00580117
0.00539174
0.00474576
0.00440593
0.00387104
0.00359018
0.00314903
0.0029178
0.00255533
0.00236564
0.00206888
0.00191381
0.00167166
0.00154531
0.00134834
0.00124571
0.00108598
0.00100285
0.000873658
0.000806486
0.000702195
0.00064787
0.000563172
0.000516615
0.00043746
0.000368265
0.000336212
0.000291383
0.0002683
0.00023268
0.0002141
0.000185122
0.000169936
0.000146123
0.000133575
0.000113772
0.000103265
8.6551e-05
7.762e-05
6.32991e-05
5.5659e-05
4.34443e-05
3.70679e-05
2.7144e-05
2.21315e-05
1.46439e-05
1.09481e-05
5.61284e-06
3.43122e-06
1.18915e-06
5.1045e-07
3.40749e-07
3.00103e-07
2.90927e-07
0.0663683
0.0520595
0.0466446
0.0427114
0.0407925
0.0378542
0.0361793
0.0332802
0.0315235
0.0282275
0.0250806
0.0235298
0.0211867
0.0199256
0.0178806
0.0167792
0.014998
0.0140438
0.0125103
0.0116925
0.010385
0.00969029
0.00858426
0.00799843
0.00706896
0.00657793
0.00580117
0.00539174
0.00474576
0.00440594
0.00387104
0.00359018
0.00314904
0.0029178
0.00255533
0.00236564
0.00206888
0.00191381
0.00167166
0.00154531
0.00134834
0.00124571
0.00108598
0.00100285
0.000873658
0.000806486
0.000702195
0.00064787
0.000563172
0.000516615
0.00043746
0.000368265
0.000336212
0.000291383
0.0002683
0.00023268
0.0002141
0.000185122
0.000169936
0.000146123
0.000133575
0.000113772
0.000103265
8.6551e-05
7.762e-05
6.32991e-05
5.5659e-05
4.34443e-05
3.70679e-05
2.7144e-05
2.21315e-05
1.46439e-05
1.09481e-05
5.61284e-06
3.43122e-06
1.18915e-06
5.10449e-07
3.40748e-07
3.00102e-07
2.90927e-07
0.0669402
0.0517031
0.0465847
0.0426303
0.0408327
0.0378033
0.0362278
0.0332341
0.0315846
0.0282212
0.0250164
0.0235612
0.0211432
0.0199567
0.0178426
0.0168061
0.0149648
0.0140668
0.0124815
0.0117119
0.0103603
0.00970662
0.00856334
0.00801207
0.00705133
0.00658927
0.0057864
0.00540113
0.00473344
0.00441368
0.00386082
0.00359654
0.00314059
0.002923
0.00254839
0.00236989
0.00206318
0.00191727
0.001667
0.00154811
0.00134455
0.00124798
0.0010829
0.00100468
0.000871164
0.000807959
0.000700186
0.000649075
0.000561638
0.000517911
0.000437055
0.000366774
0.000336718
0.000290509
0.000268797
0.000231995
0.000214513
0.000184568
0.000170278
0.00014567
0.000133863
0.000113398
0.000103512
8.62383e-05
7.78344e-05
6.30309e-05
5.58412e-05
4.321e-05
3.72092e-05
2.69471e-05
2.22301e-05
1.4492e-05
1.10135e-05
5.48657e-06
3.43356e-06
1.12656e-06
4.90063e-07
3.35572e-07
2.98835e-07
2.90554e-07
0.0681211
0.0509415
0.0464778
0.0424624
0.0409218
0.0376937
0.0363327
0.0331338
0.031714
0.0282083
0.024882
0.0236308
0.0210501
0.0200247
0.0177613
0.0168651
0.0148936
0.0141172
0.0124199
0.0117545
0.0103076
0.00974241
0.00851862
0.00804199
0.00701366
0.00661416
0.00575485
0.00542174
0.00470715
0.00443069
0.00383902
0.00361052
0.00312258
0.00293446
0.00253356
0.00237924
0.00205102
0.00192487
0.00165706
0.00155428
0.00133646
0.00125297
0.00107633
0.0010087
0.000865846
0.000811205
0.000695901
0.000651725
0.000558348
0.000520686
0.000436222
0.000363668
0.000337866
0.000288651
0.000269894
0.000230534
0.000215422
0.000183384
0.000171031
0.000144703
0.000134496
0.0001126
0.000104053
8.55696e-05
7.83038e-05
6.24572e-05
5.62402e-05
4.271e-05
3.75205e-05
2.6528e-05
2.24493e-05
1.41694e-05
1.11607e-05
5.22123e-06
3.44599e-06
9.97125e-07
4.50376e-07
3.25674e-07
2.96423e-07
2.89846e-07
0.0699888
0.0496708
0.0463526
0.0421952
0.0410781
0.037509
0.0365107
0.0329621
0.0319266
0.0281878
0.0246643
0.0237534
0.0208947
0.020142
0.0176252
0.0169669
0.0147744
0.0142042
0.012317
0.0118282
0.0102196
0.00980445
0.00844394
0.0080939
0.00695076
0.00665737
0.00570219
0.00545757
0.00466329
0.00446026
0.00380264
0.00363484
0.00309254
0.00295439
0.00250884
0.00239552
0.00203076
0.00193813
0.00164051
0.00156503
0.00132298
0.00126167
0.00106539
0.00101573
0.00085699
0.000816868
0.000688763
0.000656337
0.000552823
0.000525327
0.000434907
0.000358689
0.000339946
0.000285571
0.000271813
0.0002281
0.000217005
0.000181412
0.000172341
0.00014309
0.000135595
0.000111266
0.00010499
8.44513e-05
7.91156e-05
6.14977e-05
5.69312e-05
4.18758e-05
3.80635e-05
2.5832e-05
2.28363e-05
1.36358e-05
1.1425e-05
4.78924e-06
3.48532e-06
7.91572e-07
3.93791e-07
3.11949e-07
2.93097e-07
2.88872e-07
0.072669
0.0477199
0.0462606
0.0418061
0.0413321
0.0372214
0.0367906
0.0326896
0.0322471
0.0281586
0.0243419
0.0239538
0.0206548
0.0203297
0.0174146
0.01713
0.0145903
0.0143438
0.012158
0.0119467
0.0100837
0.00990424
0.00832878
0.00817748
0.00685383
0.00672702
0.00562107
0.00551534
0.00459574
0.00450799
0.00374665
0.00367412
0.00304631
0.0029866
0.00247082
0.00242184
0.0019996
0.00195957
0.00161506
0.00158244
0.00130226
0.00127576
0.00104857
0.00102711
0.000843383
0.000826045
0.000677793
0.000663787
0.000544254
0.000532483
0.00043302
0.000351407
0.000343449
0.000280865
0.000274928
0.000224361
0.000219566
0.000178377
0.000174457
0.000140605
0.000137366
0.00010921
0.000106498
8.27242e-05
8.04181e-05
6.00156e-05
5.80414e-05
4.05916e-05
3.89431e-05
2.47664e-05
2.34714e-05
1.28226e-05
1.18662e-05
4.14393e-06
3.58021e-06
4.94162e-07
3.24558e-07
2.95698e-07
2.89184e-07
2.87727e-07
0.0724497
0.0474925
0.0460334
0.0415888
0.0411161
0.0370187
0.0365895
0.0325036
0.0320628
0.0279909
0.0241907
0.0238043
0.0205209
0.0201974
0.0172969
0.0170138
0.0144878
0.0142427
0.0120694
0.0118594
0.0100077
0.00982937
0.00826404
0.00811373
0.00679903
0.0066731
0.00557498
0.00547001
0.0045572
0.00447011
0.0037146
0.00364265
0.00301981
0.00296059
0.00244903
0.00240046
0.00198177
0.00194208
0.00160054
0.0015682
0.00129048
0.00126422
0.00103906
0.0010178
0.000835733
0.000818553
0.000671661
0.000657784
0.000539357
0.000527695
0.000429159
0.000348309
0.000340425
0.000278427
0.000272546
0.000222451
0.000217702
0.000176897
0.000173014
0.000139474
0.000136266
0.000108365
0.000105678
8.21158e-05
7.98298e-05
5.96007e-05
5.76426e-05
4.03293e-05
3.86932e-05
2.46167e-05
2.33306e-05
1.27514e-05
1.18009e-05
4.12144e-06
3.56083e-06
4.91379e-07
3.22689e-07
2.93984e-07
2.87505e-07
2.86056e-07
0.0697686
0.0494443
0.0461264
0.0419773
0.040863
0.0373055
0.0363107
0.0327751
0.0317436
0.02802
0.0245117
0.0236049
0.0207596
0.0200106
0.0175065
0.0168516
0.014671
0.0141039
0.0122275
0.0117417
0.0101427
0.00973023
0.00837846
0.00803072
0.00689531
0.00660395
0.00565553
0.00541267
0.00462425
0.00442275
0.00377017
0.00360368
0.00306568
0.00292865
0.00248674
0.00237436
0.00201267
0.00192082
0.00162577
0.00155095
0.00131102
0.00125026
0.00105573
0.00100652
0.000849217
0.000809461
0.00068253
0.000650403
0.000547847
0.000520607
0.000431028
0.000355522
0.000336955
0.000283089
0.00026946
0.000226156
0.000215164
0.000179903
0.000170917
0.000141936
0.00013451
0.000110403
0.000104184
8.38273e-05
7.8538e-05
6.10698e-05
5.65408e-05
4.16032e-05
3.78196e-05
2.56746e-05
2.26995e-05
1.35591e-05
1.13619e-05
4.76312e-06
3.46642e-06
7.87187e-07
3.9155e-07
3.10148e-07
2.91398e-07
2.87196e-07
0.0679003
0.0507156
0.0462524
0.0422442
0.0407074
0.0374896
0.0361333
0.0329462
0.031532
0.0280405
0.0247285
0.0234829
0.0209144
0.0198939
0.017642
0.0167504
0.0147895
0.0140174
0.0123299
0.0116684
0.0102303
0.0096686
0.00845268
0.00797918
0.00695779
0.00656105
0.00570782
0.00537712
0.0046678
0.00439341
0.00380627
0.00357956
0.00309548
0.00290888
0.00251126
0.00235822
0.00203276
0.00190769
0.00164218
0.00154029
0.00132438
0.00124163
0.00106657
0.000999557
0.000857993
0.00080385
0.000689603
0.000645834
0.000553321
0.000516008
0.000432331
0.000360455
0.000334894
0.00028614
0.000267559
0.000228567
0.000213596
0.000181857
0.000169619
0.000143534
0.000133421
0.000111724
0.000103255
8.49356e-05
7.77329e-05
6.2021e-05
5.58549e-05
4.24306e-05
3.72801e-05
2.63655e-05
2.23148e-05
1.40891e-05
1.10989e-05
5.19267e-06
3.42727e-06
9.9163e-07
4.47831e-07
3.23799e-07
2.94705e-07
2.88165e-07
0.066719
0.0514776
0.0463597
0.0424119
0.0406187
0.0375989
0.0360289
0.0330461
0.0314031
0.0280534
0.0248624
0.0234137
0.021007
0.0198263
0.0177229
0.0166918
0.0148603
0.0139673
0.0123911
0.0116261
0.0102827
0.00963305
0.00849711
0.00794947
0.00699522
0.00653634
0.00573915
0.00535666
0.0046939
0.00437653
0.00382792
0.00356569
0.00311336
0.00289752
0.00252597
0.00234896
0.00204482
0.00190015
0.00165203
0.00153418
0.0013324
0.00123669
0.00107308
0.000995567
0.000863264
0.000800635
0.000693849
0.000643209
0.000556581
0.00051326
0.000433157
0.000363532
0.000333757
0.000287981
0.000266472
0.000230015
0.000212696
0.00018303
0.000168873
0.000144492
0.000132794
0.000112515
0.000102719
8.55982e-05
7.72674e-05
6.25896e-05
5.54588e-05
4.29266e-05
3.69708e-05
2.67816e-05
2.20969e-05
1.44094e-05
1.09524e-05
5.45649e-06
3.41488e-06
1.12037e-06
4.87302e-07
3.33644e-07
2.97104e-07
2.88868e-07
0.0661471
0.0518342
0.0464198
0.042493
0.0405786
0.0376497
0.0359806
0.0330921
0.0313422
0.0280598
0.0249263
0.0233824
0.0210504
0.0197954
0.0177607
0.0166649
0.0148934
0.0139445
0.0124198
0.0116068
0.0103072
0.00961684
0.00851791
0.00793593
0.00701274
0.00652509
0.00575383
0.00534734
0.00470612
0.00436885
0.00383806
0.00355938
0.00312174
0.00289236
0.00253286
0.00234474
0.00205047
0.00189672
0.00165665
0.0015314
0.00133616
0.00123444
0.00107614
0.000993756
0.000865735
0.000799176
0.00069584
0.000642015
0.000558101
0.000511976
0.000433559
0.00036501
0.000333256
0.000288847
0.000265979
0.000230693
0.000212287
0.000183579
0.000168533
0.000144941
0.000132508
0.000112886
0.000102474
8.5908e-05
7.70547e-05
6.28555e-05
5.52779e-05
4.31589e-05
3.68304e-05
2.6977e-05
2.19989e-05
1.45603e-05
1.08872e-05
5.58204e-06
3.41254e-06
1.1826e-06
5.07575e-07
3.3879e-07
2.98364e-07
2.89238e-07
0.0661471
0.0518342
0.0464198
0.042493
0.0405787
0.0376498
0.0359806
0.0330921
0.0313422
0.0280598
0.0249263
0.0233825
0.0210504
0.0197954
0.0177607
0.0166649
0.0148934
0.0139445
0.0124198
0.0116068
0.0103072
0.00961684
0.00851791
0.00793593
0.00701274
0.00652509
0.00575383
0.00534734
0.00470612
0.00436885
0.00383806
0.00355938
0.00312174
0.00289236
0.00253286
0.00234474
0.00205047
0.00189672
0.00165665
0.0015314
0.00133616
0.00123444
0.00107614
0.000993756
0.000865735
0.000799176
0.000695841
0.000642015
0.000558101
0.000511976
0.000433559
0.00036501
0.000333256
0.000288847
0.000265979
0.000230693
0.000212287
0.000183579
0.000168533
0.000144941
0.000132508
0.000112886
0.000102474
8.5908e-05
7.70547e-05
6.28555e-05
5.52779e-05
4.31589e-05
3.68304e-05
2.6977e-05
2.19989e-05
1.45603e-05
1.08872e-05
5.58203e-06
3.41253e-06
1.1826e-06
5.07573e-07
3.3879e-07
2.98364e-07
2.89237e-07
0.0667192
0.0514777
0.0463598
0.042412
0.0406187
0.0375989
0.0360289
0.0330462
0.0314031
0.0280535
0.0248624
0.0234137
0.021007
0.0198263
0.0177229
0.0166918
0.0148603
0.0139674
0.0123911
0.0116261
0.0102827
0.00963306
0.00849712
0.00794947
0.00699522
0.00653634
0.00573916
0.00535666
0.0046939
0.00437653
0.00382792
0.00356569
0.00311336
0.00289752
0.00252597
0.00234896
0.00204482
0.00190015
0.00165203
0.00153418
0.0013324
0.00123669
0.00107308
0.000995568
0.000863264
0.000800635
0.00069385
0.00064321
0.000556581
0.00051326
0.000433157
0.000363532
0.000333757
0.000287981
0.000266472
0.000230015
0.000212696
0.00018303
0.000168873
0.000144492
0.000132794
0.000112515
0.000102719
8.55982e-05
7.72674e-05
6.25896e-05
5.54588e-05
4.29266e-05
3.69708e-05
2.67816e-05
2.20969e-05
1.44094e-05
1.09523e-05
5.45648e-06
3.41487e-06
1.12036e-06
4.87297e-07
3.33641e-07
2.97103e-07
2.88867e-07
0.0679005
0.0507156
0.0462524
0.0422443
0.0407074
0.0374896
0.0361333
0.0329462
0.031532
0.0280405
0.0247285
0.023483
0.0209144
0.0198939
0.017642
0.0167504
0.0147895
0.0140174
0.0123299
0.0116684
0.0102303
0.00966861
0.00845268
0.00797918
0.0069578
0.00656105
0.00570782
0.00537712
0.0046678
0.00439341
0.00380627
0.00357956
0.00309549
0.00290888
0.00251126
0.00235822
0.00203277
0.00190769
0.00164218
0.00154029
0.00132438
0.00124163
0.00106657
0.000999557
0.000857994
0.00080385
0.000689604
0.000645835
0.000553321
0.000516009
0.000432331
0.000360456
0.000334894
0.00028614
0.000267559
0.000228567
0.000213596
0.000181857
0.000169619
0.000143534
0.000133421
0.000111724
0.000103255
8.49356e-05
7.7733e-05
6.2021e-05
5.58549e-05
4.24306e-05
3.72801e-05
2.63655e-05
2.23148e-05
1.40891e-05
1.10988e-05
5.19265e-06
3.42726e-06
9.9162e-07
4.47825e-07
3.23797e-07
2.94704e-07
2.88163e-07
0.0697688
0.0494443
0.0461264
0.0419774
0.040863
0.0373055
0.0363107
0.0327751
0.0317436
0.0280201
0.0245117
0.0236049
0.0207596
0.0200106
0.0175065
0.0168517
0.014671
0.0141039
0.0122275
0.0117417
0.0101428
0.00973024
0.00837847
0.00803073
0.00689532
0.00660395
0.00565553
0.00541267
0.00462425
0.00442275
0.00377017
0.00360368
0.00306568
0.00292865
0.00248675
0.00237436
0.00201267
0.00192083
0.00162577
0.00155095
0.00131102
0.00125026
0.00105573
0.00100652
0.000849218
0.000809461
0.000682531
0.000650403
0.000547847
0.000520607
0.000431028
0.000355522
0.000336955
0.000283089
0.00026946
0.000226156
0.000215164
0.000179903
0.000170917
0.000141936
0.00013451
0.000110403
0.000104184
8.38274e-05
7.85381e-05
6.10698e-05
5.65408e-05
4.16032e-05
3.78195e-05
2.56746e-05
2.26995e-05
1.35591e-05
1.13619e-05
4.76311e-06
3.46641e-06
7.87179e-07
3.91545e-07
3.10146e-07
2.91396e-07
2.87194e-07
0.0724498
0.0474925
0.0460334
0.0415888
0.0411161
0.0370187
0.0365895
0.0325036
0.0320628
0.0279909
0.0241907
0.0238043
0.0205209
0.0201974
0.0172969
0.0170138
0.0144878
0.0142427
0.0120694
0.0118594
0.0100077
0.00982938
0.00826404
0.00811373
0.00679903
0.0066731
0.00557498
0.00547001
0.0045572
0.00447011
0.0037146
0.00364265
0.00301981
0.00296059
0.00244903
0.00240046
0.00198177
0.00194208
0.00160054
0.0015682
0.00129048
0.00126422
0.00103906
0.0010178
0.000835734
0.000818554
0.000671661
0.000657784
0.000539357
0.000527695
0.000429159
0.000348309
0.000340425
0.000278427
0.000272546
0.000222451
0.000217702
0.000176897
0.000173014
0.000139475
0.000136266
0.000108365
0.000105678
8.21158e-05
7.98298e-05
5.96007e-05
5.76427e-05
4.03293e-05
3.86932e-05
2.46167e-05
2.33306e-05
1.27514e-05
1.18008e-05
4.12143e-06
3.56083e-06
4.91376e-07
3.22687e-07
2.93983e-07
2.87504e-07
2.86055e-07
0.054523
0.0512915
0.0506151
0.0406461
0.0396753
0.0307588
0.0299458
0.0232596
0.0226301
0.0175739
0.0137071
0.0133375
0.0105572
0.0102988
0.00816431
0.00796614
0.0063107
0.00615681
0.00486774
0.00474787
0.00374292
0.0036495
0.00286662
0.00279392
0.00218529
0.00212884
0.00165711
0.00161343
0.0012492
0.00121553
0.000935547
0.000909723
0.00069557
0.000675864
0.000512978
0.000498028
0.000374903
0.000363635
0.000271208
0.000262776
0.000193935
0.000187678
0.000136861
0.000132262
9.51379e-05
9.17946e-05
6.50021e-05
6.26003e-05
4.35303e-05
4.17757e-05
2.80623e-05
1.83516e-05
1.74628e-05
1.13451e-05
1.08131e-05
6.84922e-06
6.51014e-06
4.01326e-06
3.80223e-06
2.27974e-06
2.1525e-06
1.25409e-06
1.17978e-06
6.66027e-07
6.23936e-07
3.38738e-07
3.15588e-07
1.61856e-07
1.49507e-07
6.93813e-08
6.30445e-08
2.32915e-08
2.03202e-08
4.00432e-09
2.93109e-09
-6.97691e-10
-9.09788e-10
-9.46983e-10
-9.55424e-10
-9.57311e-10
0.0541291
0.0513418
0.0497866
0.041326
0.0390915
0.0314229
0.0295432
0.023754
0.0222848
0.0176995
0.0140622
0.0131899
0.0107701
0.010171
0.00832462
0.00786583
0.00643468
0.0060785
0.00496422
0.00468677
0.00381814
0.00360193
0.00292525
0.00275697
0.0022309
0.00210025
0.00169251
0.0015914
0.00127656
0.00119864
0.000956611
0.000896839
0.000711707
0.000666095
0.000525274
0.000490669
0.000384216
0.000358132
0.000278214
0.000258697
0.000199166
0.000184682
0.000140734
0.000130087
9.79766e-05
9.02359e-05
6.70569e-05
6.14939e-05
4.49669e-05
4.08743e-05
2.84831e-05
1.92801e-05
1.7176e-05
1.18363e-05
1.06009e-05
7.16381e-06
6.3779e-06
4.21273e-06
3.72355e-06
2.40237e-06
2.10732e-06
1.32703e-06
1.15466e-06
7.08053e-07
6.10374e-07
3.62238e-07
3.08491e-07
1.74622e-07
1.45941e-07
7.61039e-08
6.13819e-08
2.67189e-08
1.98101e-08
5.50626e-09
2.99853e-09
-3.13612e-10
-8.20226e-10
-9.25963e-10
-9.50396e-10
-9.55869e-10
0.0538464
0.0513426
0.049234
0.0417567
0.0387248
0.0318553
0.0292969
0.0240754
0.0220639
0.017787
0.0143067
0.013104
0.0109101
0.0100931
0.00842936
0.00780437
0.00651562
0.00603047
0.00502719
0.0046493
0.00386723
0.00357275
0.00296352
0.00273432
0.00226069
0.00208273
0.00171562
0.00157791
0.00129444
0.00118831
0.000970378
0.000888963
0.000722258
0.000660129
0.000533317
0.000486181
0.000390311
0.000354781
0.000282802
0.000256216
0.000202595
0.000182864
0.000143274
0.000128769