/*--------------------------------*- C++ -*----------------------------------*\
| =========                 |                                                 |
| \\      /  F ield         | OpenFOAM: The Open Source CFD Toolbox           |
|  \\    /   O peration     | Version:  5.x                                   |
|   \\  /    A nd           | Web:      www.OpenFOAM.org                      |
|    \\/     M anipulation  |                                                 |
\*---------------------------------------------------------------------------*/
FoamFile
{
    version     2.0;
    format      ascii;
    class       volScalarField;
    location    "0.1";
    object      T;
}
// * * * * * * * * * * * * * * * * * * * * * * * * * * * * * * * * * * * * * //

dimensions      [0 0 0 1 0 0 0];

internalField   nonuniform List<scalar> 
3200
(
5.6972
5.9647
5.97879
5.99707
5.99841
5.99951
5.99962
5.99992
5.99995
6.00024
6.00054
6.00057
6.00087
6.00091
6.00122
6.00126
6.00159
6.00162
6.00196
6.002
6.00235
6.00239
6.00276
6.00279
6.00317
6.00321
6.00359
6.00363
6.00402
6.00406
6.00446
6.0045
6.00491
6.00495
6.00535
6.0054
6.00581
6.00585
6.00626
6.0063
6.00671
6.00676
6.00717
6.00721
6.00762
6.00766
6.00806
6.0081
6.0085
6.00854
6.00894
6.0093
6.00933
6.00951
6.00949
6.009
6.00881
6.00596
6.00526
5.99512
5.99301
5.96371
5.95836
5.88686
5.87533
5.72782
5.70673
5.45097
5.41815
5.04432
5.00009
4.5251
4.47053
3.90009
3.83236
3.07951
3.0402
3.03369
3.03223
3.0319
5.7258
5.94315
5.97511
5.99452
5.99789
5.9993
5.9996
5.99989
5.99997
6.00024
6.00052
6.00059
6.00085
6.00093
6.0012
6.00128
6.00156
6.00165
6.00194
6.00202
6.00233
6.00242
6.00273
6.00282
6.00314
6.00323
6.00357
6.00366
6.004
6.00409
6.00443
6.00453
6.00488
6.00498
6.00533
6.00543
6.00578
6.00588
6.00623
6.00633
6.00669
6.00679
6.00714
6.00724
6.00759
6.00769
6.00803
6.00813
6.00847
6.00857
6.00894
6.00927
6.00933
6.00948
6.00943
6.00897
6.00853
6.00597
6.00432
5.99533
5.9904
5.96465
5.95221
5.88984
5.8631
5.73517
5.68633
5.46541
5.38952
5.06718
4.96491
4.55504
4.42878
3.93561
3.77993
3.14649
3.0558
3.03738
3.03315
3.0322
5.74571
5.92901
5.97194
5.99261
5.99744
5.99914
5.99957
5.99987
5.99999
6.00024
6.0005
6.00061
6.00084
6.00094
6.00119
6.0013
6.00155
6.00166
6.00193
6.00204
6.00232
6.00243
6.00272
6.00284
6.00313
6.00325
6.00355
6.00368
6.00398
6.00411
6.00442
6.00455
6.00486
6.00499
6.00531
6.00544
6.00576
6.0059
6.00621
6.00635
6.00667
6.0068
6.00712
6.00726
6.00757
6.0077
6.00802
6.00815
6.00846
6.0086
6.00893
6.00924
6.00933
6.00945
6.00938
6.00894
6.00834
6.00594
6.00367
5.99537
5.98862
5.96506
5.94806
5.89139
5.85492
5.73935
5.67282
5.47404
5.37073
5.08123
4.94202
4.57362
4.40169
3.95762
3.74661
3.19175
3.0685
3.0405
3.03394
3.03246
5.75828
5.92049
5.96965
5.99134
5.99711
5.99902
5.99955
5.99986
6
6.00024
6.00049
6.00061
6.00083
6.00095
6.00118
6.0013
6.00154
6.00167
6.00192
6.00205
6.00231
6.00244
6.00271
6.00285
6.00312
6.00326
6.00354
6.00369
6.00397
6.00412
6.00441
6.00456
6.00485
6.00501
6.0053
6.00545
6.00575
6.00591
6.0062
6.00636
6.00666
6.00681
6.00711
6.00727
6.00756
6.00771
6.00801
6.00816
6.00845
6.00861
6.00893
6.00923
6.00933
6.00944
6.00936
6.00892
6.00821
6.00591
6.00327
5.99535
5.98751
5.9652
5.94549
5.89213
5.84989
5.74155
5.66458
5.47884
5.35938
5.08924
4.92829
4.58433
4.38547
3.9703
3.72702
3.21974
3.07737
3.04275
3.03451
3.03264
5.76437
5.91648
5.96846
5.9907
5.99695
5.99897
5.99954
5.99985
6
6.00024
6.00049
6.00062
6.00083
6.00096
6.00118
6.00131
6.00154
6.00167
6.00191
6.00205
6.0023
6.00245
6.0027
6.00285
6.00311
6.00327
6.00354
6.00369
6.00397
6.00412
6.0044
6.00456
6.00485
6.00501
6.0053
6.00546
6.00575
6.00591
6.0062
6.00637
6.00665
6.00682
6.00711
6.00727
6.00756
6.00772
6.008
6.00816
6.00844
6.00861
6.00893
6.00922
6.00933
6.00943
6.00934
6.00891
6.00815
6.00589
6.00307
5.99533
5.98698
5.96524
5.94426
5.89241
5.8475
5.74249
5.66069
5.48097
5.35403
5.09288
4.92185
4.58921
4.37787
3.97607
3.71798
3.23311
3.08192
3.04393
3.03481
3.03274
5.76437
5.91648
5.96846
5.9907
5.99695
5.99897
5.99954
5.99985
6
6.00024
6.00049
6.00062
6.00083
6.00096
6.00118
6.00131
6.00154
6.00167
6.00191
6.00205
6.0023
6.00245
6.0027
6.00285
6.00311
6.00327
6.00354
6.00369
6.00397
6.00412
6.0044
6.00456
6.00485
6.00501
6.0053
6.00546
6.00575
6.00591
6.0062
6.00637
6.00665
6.00682
6.00711
6.00727
6.00756
6.00772
6.008
6.00816
6.00844
6.00861
6.00893
6.00922
6.00933
6.00943
6.00934
6.00891
6.00815
6.00589
6.00307
5.99533
5.98698
5.96524
5.94426
5.89241
5.8475
5.7425
5.66069
5.48097
5.35404
5.09288
4.92185
4.58921
4.37787
3.97607
3.71798
3.23311
3.08192
3.04393
3.03481
3.03274
5.75829
5.92049
5.96965
5.99134
5.99711
5.99902
5.99955
5.99986
6
6.00024
6.00049
6.00061
6.00083
6.00095
6.00118
6.0013
6.00154
6.00167
6.00192
6.00205
6.00231
6.00244
6.00271
6.00285
6.00312
6.00326
6.00354
6.00369
6.00397
6.00412
6.00441
6.00456
6.00485
6.00501
6.0053
6.00545
6.00575
6.00591
6.0062
6.00636
6.00666
6.00681
6.00711
6.00727
6.00756
6.00771
6.00801
6.00816
6.00845
6.00861
6.00893
6.00923
6.00933
6.00944
6.00936
6.00892
6.00821
6.00591
6.00327
5.99535
5.98751
5.9652
5.94549
5.89213
5.84989
5.74156
5.66459
5.47884
5.35938
5.08925
4.92829
4.58433
4.38547
3.9703
3.72702
3.21974
3.07738
3.04275
3.03451
3.03264
5.74571
5.92901
5.97194
5.99261
5.99744
5.99914
5.99957
5.99987
5.99999
6.00024
6.0005
6.00061
6.00084
6.00094
6.00119
6.0013
6.00155
6.00166
6.00193
6.00204
6.00232
6.00243
6.00272
6.00284
6.00313
6.00325
6.00355
6.00368
6.00398
6.00411
6.00442
6.00455
6.00486
6.00499
6.00531
6.00544
6.00576
6.0059
6.00621
6.00635
6.00667
6.0068
6.00712
6.00726
6.00757
6.0077
6.00802
6.00815
6.00846
6.0086
6.00893
6.00924
6.00933
6.00945
6.00938
6.00894
6.00834
6.00594
6.00367
5.99537
5.98862
5.96506
5.94806
5.89139
5.85492
5.73935
5.67282
5.47405
5.37074
5.08123
4.94203
4.57363
4.40169
3.95762
3.74661
3.19176
3.0685
3.0405
3.03394
3.03245
5.7258
5.94315
5.97511
5.99452
5.99789
5.9993
5.9996
5.99989
5.99997
6.00024
6.00052
6.00059
6.00085
6.00093
6.0012
6.00128
6.00156
6.00165
6.00194
6.00202
6.00233
6.00242
6.00273
6.00282
6.00314
6.00323
6.00357
6.00366
6.004
6.00409
6.00443
6.00453
6.00488
6.00498
6.00533
6.00543
6.00578
6.00588
6.00623
6.00633
6.00669
6.00679
6.00714
6.00724
6.00759
6.00769
6.00803
6.00813
6.00847
6.00857
6.00894
6.00927
6.00933
6.00948
6.00943
6.00897
6.00853
6.00597
6.00432
5.99533
5.9904
5.96465
5.95222
5.88984
5.86311
5.73517
5.68634
5.46541
5.38952
5.06718
4.96491
4.55504
4.42878
3.93561
3.77994
3.14649
3.0558
3.03739
3.03316
3.0322
5.6972
5.9647
5.97879
5.99707
5.99841
5.99951
5.99962
5.99992
5.99995
6.00024
6.00054
6.00057
6.00087
6.00091
6.00122
6.00126
6.00159
6.00162
6.00196
6.002
6.00235
6.00239
6.00276
6.00279
6.00317
6.00321
6.00359
6.00363
6.00402
6.00406
6.00446
6.0045
6.00491
6.00495
6.00535
6.0054
6.00581
6.00585
6.00626
6.0063
6.00671
6.00676
6.00717
6.00721
6.00762
6.00766
6.00806
6.0081
6.0085
6.00854
6.00894
6.0093
6.00933
6.00951
6.00949
6.009
6.00881
6.00596
6.00526
5.99512
5.99301
5.96371
5.95836
5.88686
5.87533
5.72782
5.70673
5.45097
5.41816
5.04432
5.00009
4.5251
4.47053
3.90009
3.83236
3.07951
3.0402
3.03369
3.03223
3.0319
6.03686
5.99867
5.99695
6.00014
6.00025
6.00017
6.00018
6.00029
6.0003
6.00042
6.00054
6.00055
6.00067
6.00069
6.00081
6.00083
6.00096
6.00097
6.00111
6.00112
6.00126
6.00128
6.00142
6.00144
6.00159
6.0016
6.00175
6.00177
6.00192
6.00194
6.00209
6.00211
6.00226
6.00228
6.00243
6.00245
6.00261
6.00262
6.00278
6.00279
6.00295
6.00297
6.00312
6.00314
6.00329
6.00331
6.00346
6.00347
6.00362
6.00363
6.00376
6.00383
6.00382
6.00363
6.00356
6.00255
6.00233
5.99914
5.99855
5.99066
5.98941
5.97343
5.97118
5.94418
5.94068
5.90065
5.89549
5.83747
5.82936
5.73457
5.71926
5.52749
5.49327
5.03394
4.97079
4.18871
4.1481
4.14139
4.13989
4.13955
6.03282
6.00188
5.99798
6.00001
6.00021
6.00018
6.00019
6.00028
6.00031
6.00042
6.00053
6.00056
6.00066
6.00069
6.0008
6.00084
6.00095
6.00098
6.0011
6.00113
6.00125
6.00129
6.00141
6.00145
6.00158
6.00161
6.00174
6.00178
6.00191
6.00195
6.00208
6.00212
6.00225
6.00229
6.00242
6.00246
6.0026
6.00263
6.00277
6.00281
6.00294
6.00298
6.00311
6.00315
6.00328
6.00332
6.00344
6.00348
6.00361
6.00364
6.00375
6.00381
6.0038
6.00362
6.00346
6.00256
6.00204
5.99924
5.99788
5.991
5.98809
5.97424
5.96903
5.94569
5.93756
5.90291
5.89095
5.84046
5.82161
5.73853
5.70285
5.53416
5.45478
5.05809
4.91323
4.25768
4.16413
4.14517
4.14081
4.13984
6.03001
6.004
5.99878
5.99996
6.00019
6.00018
6.0002
6.00028
6.00032
6.00042
6.00052
6.00056
6.00066
6.0007
6.0008
6.00084
6.00094
6.00099
6.00109
6.00114
6.00125
6.0013
6.00141
6.00146
6.00157
6.00162
6.00173
6.00178
6.0019
6.00195
6.00207
6.00212
6.00224
6.00229
6.00242
6.00247
6.00259
6.00264
6.00276
6.00281
6.00293
6.00298
6.0031
6.00315
6.00327
6.00332
6.00344
6.00349
6.0036
6.00364
6.00375
6.0038
6.00378
6.00361
6.0034
6.00256
6.00184
5.99928
5.99742
5.99118
5.98721
5.97471
5.96761
5.94658
5.93552
5.90426
5.88795
5.84219
5.81643
5.7406
5.69176
5.53725
5.42898
5.07217
4.8761
4.30415
4.17718
4.14835
4.1416
4.14008
6.02823
6.00529
5.99931
5.99994
6.00017
6.00018
6.0002
6.00028
6.00032
6.00042
6.00052
6.00057
6.00066
6.0007
6.0008
6.00085
6.00094
6.00099
6.00109
6.00114
6.00125
6.0013
6.0014
6.00146
6.00157
6.00162
6.00173
6.00179
6.0019
6.00196
6.00207
6.00213
6.00224
6.0023
6.00241
6.00247
6.00258
6.00264
6.00276
6.00282
6.00293
6.00299
6.0031
6.00316
6.00327
6.00333
6.00343
6.00349
6.00359
6.00365
6.00374
6.0038
6.00377
6.0036
6.00335
6.00256
6.00172
5.9993
5.99713
5.99126
5.98667
5.97495
5.96674
5.94708
5.93427
5.90501
5.88612
5.84312
5.81325
5.74158
5.68489
5.53848
5.41311
5.07981
4.854
4.33283
4.18629
4.15065
4.14217
4.14026
6.02738
6.0059
5.99958
5.99993
6.00016
6.00018
6.0002
6.00028
6.00032
6.00042
6.00052
6.00057
6.00065
6.00071
6.00079
6.00085
6.00094
6.00099
6.00109
6.00115
6.00124
6.0013
6.0014
6.00146
6.00156
6.00162
6.00173
6.00179
6.0019
6.00196
6.00207
6.00213
6.00224
6.0023
6.00241
6.00247
6.00258
6.00265
6.00276
6.00282
6.00293
6.00299
6.0031
6.00316
6.00327
6.00333
6.00343
6.00349
6.00359
6.00365
6.00374
6.00379
6.00376
6.0036
6.00333
6.00255
6.00166
5.9993
5.997
5.9913
5.98641
5.97506
5.96633
5.9473
5.93368
5.90534
5.88526
5.84353
5.81173
5.74196
5.6816
5.53887
5.40556
5.08314
4.8437
4.3465
4.19096
4.15185
4.14247
4.14035
6.02738
6.0059
5.99958
5.99993
6.00016
6.00018
6.0002
6.00028
6.00032
6.00042
6.00052
6.00057
6.00065
6.00071
6.00079
6.00085
6.00094
6.00099
6.00109
6.00115
6.00124
6.0013
6.0014
6.00146
6.00156
6.00162
6.00173
6.00179
6.0019
6.00196
6.00207
6.00213
6.00224
6.0023
6.00241
6.00247
6.00258
6.00265
6.00276
6.00282
6.00293
6.00299
6.0031
6.00316
6.00327
6.00333
6.00343
6.00349
6.00359
6.00365
6.00374
6.00379
6.00376
6.0036
6.00333
6.00255
6.00166
5.9993
5.997
5.9913
5.98641
5.97506
5.96633
5.9473
5.93368
5.90534
5.88526
5.84353
5.81173
5.74196
5.6816
5.53887
5.40556
5.08314
4.8437
4.3465
4.19096
4.15185
4.14247
4.14035
6.02823
6.00529
5.99931
5.99994
6.00017
6.00018
6.0002
6.00028
6.00032
6.00042
6.00052
6.00057
6.00066
6.0007
6.0008
6.00085
6.00094
6.00099
6.00109
6.00114
6.00125
6.0013
6.0014
6.00146
6.00157
6.00162
6.00173
6.00179
6.0019
6.00196
6.00207
6.00213
6.00224
6.0023
6.00241
6.00247
6.00258
6.00264
6.00276
6.00282
6.00293
6.00299
6.0031
6.00316
6.00327
6.00333
6.00343
6.00349
6.00359
6.00365
6.00374
6.0038
6.00377
6.0036
6.00335
6.00256
6.00172
5.9993
5.99713
5.99126
5.98667
5.97495
5.96674
5.94708
5.93427
5.90501
5.88612
5.84312
5.81325
5.74158
5.68489
5.53848
5.41311
5.07981
4.854
4.33283
4.18629
4.15065
4.14217
4.14026
6.03001
6.004
5.99878
5.99996
6.00019
6.00018
6.0002
6.00028
6.00032
6.00042
6.00052
6.00056
6.00066
6.0007
6.0008
6.00084
6.00094
6.00099
6.00109
6.00114
6.00125
6.0013
6.00141
6.00146
6.00157
6.00162
6.00173
6.00178
6.0019
6.00195
6.00207
6.00212
6.00224
6.00229
6.00242
6.00247
6.00259
6.00264
6.00276
6.00281
6.00293
6.00298
6.0031
6.00315
6.00327
6.00332
6.00344
6.00349
6.0036
6.00364
6.00375
6.0038
6.00378
6.00361
6.0034
6.00256
6.00184
5.99928
5.99742
5.99118
5.98721
5.97471
5.96761
5.94658
5.93552
5.90426
5.88795
5.8422
5.81643
5.7406
5.69176
5.53725
5.42898
5.07217
4.8761
4.30415
4.17718
4.14835
4.1416
4.14008
6.03282
6.00188
5.99798
6.00001
6.00021
6.00018
6.00019
6.00028
6.00031
6.00042
6.00053
6.00056
6.00066
6.00069
6.0008
6.00084
6.00095
6.00098
6.0011
6.00113
6.00125
6.00129
6.00141
6.00145
6.00158
6.00161
6.00174
6.00178
6.00191
6.00195
6.00208
6.00212
6.00225
6.00229
6.00242
6.00246
6.0026
6.00263
6.00277
6.00281
6.00294
6.00298
6.00311
6.00315
6.00328
6.00332
6.00344
6.00348
6.00361
6.00364
6.00375
6.00381
6.0038
6.00362
6.00346
6.00257
6.00204
5.99924
5.99788
5.991
5.98809
5.97424
5.96903
5.94569
5.93757
5.90291
5.89095
5.84046
5.82161
5.73853
5.70285
5.53416
5.45478
5.0581
4.91323
4.25768
4.16413
4.14517
4.14081
4.13984
6.03686
5.99867
5.99695
6.00014
6.00025
6.00017
6.00018
6.00029
6.0003
6.00042
6.00054
6.00055
6.00067
6.00069
6.00081
6.00083
6.00096
6.00097
6.00111
6.00112
6.00126
6.00128
6.00142
6.00144
6.00159
6.0016
6.00175
6.00177
6.00192
6.00194
6.00209
6.00211
6.00226
6.00228
6.00243
6.00245
6.00261
6.00262
6.00278
6.00279
6.00295
6.00297
6.00312
6.00314
6.00329
6.00331
6.00346
6.00347
6.00362
6.00363
6.00376
6.00383
6.00382
6.00363
6.00356
6.00255
6.00233
5.99914
5.99855
5.99066
5.98941
5.97343
5.97118
5.94418
5.94068
5.90065
5.89549
5.83747
5.82936
5.73457
5.71926
5.52749
5.49327
5.03394
4.97079
4.18871
4.1481
4.14139
4.13989
4.13955
6.03613
5.99818
5.99647
5.99977
5.99989
5.99995
5.99996
6.00022
6.00025
6.00053
6.00082
6.00086
6.00115
6.00119
6.0015
6.00153
6.00186
6.00189
6.00223
6.00226
6.00261
6.00265
6.003
6.00304
6.00341
6.00345
6.00382
6.00386
6.00424
6.00428
6.00467
6.00471
6.0051
6.00514
6.00554
6.00558
6.00597
6.00601
6.00641
6.00645
6.00685
6.00689
6.00729
6.00733
6.00772
6.00776
6.00815
6.00819
6.00857
6.00861
6.00897
6.00927
6.00929
6.00931
6.00927
6.00845
6.00825
6.00521
6.00464
5.99682
5.99556
5.97951
5.97725
5.94997
5.94642
5.9059
5.90069
5.84201
5.83384
5.73839
5.72302
5.5307
5.49639
5.03601
4.97274
4.18946
4.14878
4.14207
4.14056
4.14022
6.03211
6.00136
5.99751
5.99963
5.99986
5.99994
5.99999
6.00021
6.00027
6.00053
6.0008
6.00088
6.00113
6.00121
6.00148
6.00155
6.00183
6.00191
6.0022
6.00229
6.00259
6.00267
6.00298
6.00307
6.00338
6.00347
6.0038
6.00389
6.00422
6.00431
6.00464
6.00474
6.00507
6.00517
6.00551
6.0056
6.00595
6.00604
6.00639
6.00648
6.00682
6.00692
6.00726
6.00735
6.00769
6.00779
6.00812
6.00821
6.00854
6.00863
6.00897
6.00924
6.00928
6.00929
6.00918
6.00845
6.00797
6.0053
6.00396
5.99715
5.99424
5.98032
5.97507
5.95149
5.94327
5.90819
5.8961
5.84505
5.82605
5.74241
5.70657
5.53739
5.45782
5.06023
4.91511
4.25853
4.16484
4.14585
4.14149
4.14051
6.02932
6.00348
5.9983
5.99957
5.99984
5.99994
6
6.0002
6.00029
6.00053
6.00079
6.00089
6.00112
6.00122
6.00146
6.00157
6.00182
6.00193
6.00219
6.0023
6.00257
6.00269
6.00297
6.00308
6.00337
6.00349
6.00378
6.0039
6.0042
6.00433
6.00463
6.00475
6.00506
6.00519
6.00549
6.00562
6.00593
6.00606
6.00637
6.0065
6.00681
6.00694
6.00724
6.00737
6.00768
6.0078
6.0081
6.00823
6.00852
6.00865
6.00896
6.00922
6.00927
6.00927
6.00913
6.00844
6.00778
6.00534
6.00351
5.99732
5.99335
5.98079
5.97363
5.95239
5.9412
5.90956
5.89307
5.84681
5.82084
5.7445
5.69546
5.5405
5.43196
5.07435
4.87792
4.30508
4.17791
4.14904
4.14228
4.14075
6.02756
6.00476
5.99884
5.99955
5.99983
5.99994
6.00001
6.00019
6.0003
6.00053
6.00078
6.0009
6.00111
6.00123
6.00146
6.00158
6.00181
6.00194
6.00218
6.00231
6.00256
6.0027
6.00296
6.00309
6.00336
6.0035
6.00377
6.00391
6.00419
6.00434
6.00462
6.00476
6.00505
6.0052
6.00548
6.00563
6.00592
6.00607
6.00636
6.00651
6.0068
6.00695
6.00723
6.00738
6.00767
6.00781
6.00809
6.00824
6.00852
6.00866
6.00896
6.00921
6.00927
6.00926
6.00909
6.00843
6.00766
6.00534
6.00322
5.9974
5.9928
5.98103
5.97276
5.95289
5.93994
5.91032
5.89122
5.84776
5.81764
5.74551
5.68857
5.54174
5.41607
5.08202
4.85579
4.3338
4.18704
4.15134
4.14285
4.14093
6.02671
6.00537
5.99911
5.99954
5.99982
5.99993
6.00001
6.00019
6.00031
6.00053
6.00077
6.0009
6.00111
6.00123
6.00145
6.00158
6.00181
6.00194
6.00218
6.00232
6.00256
6.0027
6.00295
6.0031
6.00336
6.0035
6.00377
6.00392
6.00419
6.00434
6.00461
6.00477
6.00504
6.0052
6.00548
6.00564
6.00592
6.00608
6.00635
6.00651
6.00679
6.00695
6.00723
6.00739
6.00766
6.00782
6.00809
6.00824
6.00851
6.00867
6.00896
6.0092
6.00927
6.00925
6.00907
6.00843
6.0076
6.00534
6.00309
5.99743
5.99254
5.98114
5.97234
5.95311
5.93934
5.91066
5.89035
5.84817
5.81611
5.7459
5.68528
5.54213
5.4085
5.08536
4.84548
4.3475
4.19171
4.15254
4.14315
4.14102
6.02671
6.00537
5.99911
5.99954
5.99982
5.99993
6.00001
6.00019
6.00031
6.00053
6.00077
6.0009
6.00111
6.00123
6.00145
6.00158
6.00181
6.00194
6.00218
6.00232
6.00256
6.0027
6.00295
6.0031
6.00336
6.0035
6.00377
6.00392
6.00419
6.00434
6.00461
6.00477
6.00504
6.0052
6.00548
6.00564
6.00592
6.00608
6.00635
6.00651
6.00679
6.00695
6.00723
6.00739
6.00766
6.00782
6.00809
6.00824
6.00851
6.00867
6.00896
6.0092
6.00927
6.00925
6.00907
6.00843
6.0076
6.00535
6.00309
5.99743
5.99254
5.98114
5.97234
5.95311
5.93934
5.91066
5.89035
5.84817
5.81612
5.7459
5.68528
5.54213
5.4085
5.08536
4.84548
4.3475
4.19171
4.15254
4.14315
4.14102
6.02756
6.00476
5.99884
5.99955
5.99983
5.99994
6.00001
6.00019
6.0003
6.00053
6.00078
6.0009
6.00111
6.00123
6.00146
6.00158
6.00181
6.00194
6.00218
6.00231
6.00256
6.0027
6.00296
6.00309
6.00336
6.0035
6.00377
6.00391
6.00419
6.00434
6.00462
6.00476
6.00505
6.0052
6.00548
6.00563
6.00592
6.00607
6.00636
6.00651
6.0068
6.00695
6.00723
6.00738
6.00767
6.00781
6.00809
6.00824
6.00852
6.00866
6.00896
6.00921
6.00927
6.00926
6.00909
6.00843
6.00766
6.00534
6.00322
5.9974
5.9928
5.98103
5.97276
5.95289
5.93994
5.91032
5.89122
5.84776
5.81764
5.74551
5.68857
5.54174
5.41607
5.08202
4.85579
4.3338
4.18704
4.15134
4.14285
4.14093
6.02932
6.00348
5.9983
5.99957
5.99984
5.99994
6
6.0002
6.00029
6.00053
6.00079
6.00089
6.00112
6.00122
6.00146
6.00157
6.00182
6.00193
6.00219
6.0023
6.00257
6.00269
6.00297
6.00308
6.00337
6.00349
6.00378
6.0039
6.0042
6.00433
6.00463
6.00475
6.00506
6.00519
6.00549
6.00562
6.00593
6.00606
6.00637
6.0065
6.00681
6.00694
6.00724
6.00737
6.00768
6.0078
6.0081
6.00823
6.00852
6.00865
6.00896
6.00922
6.00927
6.00927
6.00913
6.00844
6.00778
6.00534
6.00351
5.99732
5.99335
5.98079
5.97363
5.95239
5.9412
5.90956
5.89307
5.84681
5.82084
5.7445
5.69546
5.5405
5.43197
5.07435
4.87793
4.30508
4.17791
4.14904
4.14228
4.14075
6.03211
6.00136
5.99751
5.99963
5.99986
5.99994
5.99999
6.00021
6.00027
6.00053
6.0008
6.00088
6.00113
6.00121
6.00148
6.00155
6.00183
6.00191
6.0022
6.00229
6.00259
6.00267
6.00298
6.00307
6.00338
6.00347
6.0038
6.00389
6.00422
6.00431
6.00464
6.00474
6.00507
6.00517
6.00551
6.0056
6.00595
6.00604
6.00639
6.00648
6.00682
6.00692
6.00726
6.00735
6.00769
6.00779
6.00812
6.00821
6.00854
6.00863
6.00897
6.00924
6.00928
6.00929
6.00918
6.00845
6.00797
6.0053
6.00396
5.99715
5.99424
5.98032
5.97507
5.95149
5.94327
5.90819
5.8961
5.84505
5.82605
5.74241
5.70658
5.53739
5.45782
5.06024
4.91511
4.25853
4.16484
4.14585
4.14149
4.14051
6.03613
5.99818
5.99647
5.99977
5.99989
5.99995
5.99996
6.00022
6.00025
6.00053
6.00082
6.00086
6.00115
6.00119
6.0015
6.00153
6.00186
6.00189
6.00223
6.00226
6.00261
6.00265
6.003
6.00304
6.00341
6.00345
6.00382
6.00386
6.00424
6.00428
6.00467
6.00471
6.0051
6.00514
6.00554
6.00558
6.00597
6.00601
6.00641
6.00645
6.00685
6.00689
6.00729
6.00733
6.00772
6.00776
6.00815
6.00819
6.00857
6.00861
6.00897
6.00927
6.00929
6.00931
6.00927
6.00845
6.00825
6.00521
6.00464
5.99682
5.99556
5.97951
5.97725
5.94997
5.94642
5.9059
5.90069
5.84201
5.83384
5.73839
5.72302
5.5307
5.49639
5.03601
4.97274
4.18946
4.14878
4.14207
4.14056
4.14022
5.69832
5.96565
5.97973
5.99785
5.99918
6.00013
6.00023
6.00037
6.00039
6.00051
6.00063
6.00065
6.00077
6.00078
6.00091
6.00092
6.00105
6.00106
6.0012
6.00121
6.00135
6.00136
6.0015
6.00152
6.00166
6.00168
6.00182
6.00184
6.00199
6.002
6.00215
6.00217
6.00232
6.00233
6.00248
6.0025
6.00265
6.00267
6.00282
6.00283
6.00298
6.003
6.00315
6.00316
6.00331
6.00332
6.00347
6.00348
6.00362
6.00364
6.00377
6.00387
6.00388
6.00381
6.00377
6.00305
6.00285
5.9998
5.99907
5.9888
5.98668
5.95736
5.95202
5.88069
5.8692
5.72211
5.70107
5.44596
5.41322
5.0401
4.99595
4.52162
4.46711
3.89724
3.82957
3.07727
3.03799
3.03149
3.03003
3.0297
5.7269
5.94411
5.97604
5.99531
5.99865
5.99993
6.00019
6.00035
6.0004
6.00051
6.00062
6.00065
6.00076
6.00079
6.0009
6.00093
6.00104
6.00107
6.00119
6.00122
6.00134
6.00137
6.00149
6.00153
6.00165
6.00169
6.00181
6.00185
6.00198
6.00201
6.00214
6.00218
6.00231
6.00234
6.00247
6.00251
6.00264
6.00268
6.00281
6.00284
6.00297
6.00301
6.00314
6.00317
6.0033
6.00333
6.00346
6.00349
6.00361
6.00365
6.00377
6.00386
6.00386
6.0038
6.00369
6.00304
6.00255
5.99982
5.99813
5.98902
5.98407
5.95831
5.94589
5.88366
5.857
5.72943
5.68073
5.46036
5.38463
5.06291
4.96081
4.55151
4.4254
3.93272
3.77718
3.14421
3.05358
3.03518
3.03096
3.03
5.7468
5.92998
5.97285
5.99341
5.99819
5.99978
6.00016
6.00034
6.0004
6.00051
6.00062
6.00066
6.00075
6.00079
6.00089
6.00093
6.00103
6.00108
6.00118
6.00123
6.00133
6.00138
6.00149
6.00153
6.00165
6.00169
6.00181
6.00186
6.00197
6.00202
6.00213
6.00218
6.0023
6.00235
6.00247
6.00252
6.00263
6.00268
6.0028
6.00285
6.00297
6.00302
6.00313
6.00318
6.00329
6.00334
6.00345
6.0035
6.00361
6.00366
6.00377
6.00385
6.00386
6.00379
6.00364
6.00302
6.00235
5.9998
5.99748
5.98907
5.98229
5.95872
5.94175
5.88521
5.84884
5.7336
5.66725
5.46896
5.36588
5.07693
4.93795
4.57006
4.39833
3.95471
3.74388
3.18944
3.06627
3.0383
3.03174
3.03026
5.75936
5.92146
5.97056
5.99214
5.99786
5.99967
6.00014
6.00033
6.0004
6.00051
6.00061
6.00066
6.00075
6.0008
6.00089
6.00094
6.00103
6.00108
6.00118
6.00123
6.00133
6.00138
6.00148
6.00154
6.00164
6.0017
6.0018
6.00186
6.00197
6.00202
6.00213
6.00219
6.0023
6.00235
6.00246
6.00252
6.00263
6.00269
6.0028
6.00285
6.00296
6.00302
6.00313
6.00318
6.00329
6.00334
6.00345
6.0035
6.0036
6.00366
6.00376
6.00385
6.00385
6.00378
6.00361
6.00301
6.00222
5.99977
5.99707
5.98906
5.98118
5.95886
5.93918
5.88595
5.84383
5.7358
5.65903
5.47375
5.35454
5.08493
4.92423
4.58075
4.38212
3.96736
3.7243
3.2174
3.07514
3.04055
3.03231
3.03044
5.76545
5.91746
5.96937
5.9915
5.99769
5.99961
6.00013
6.00033
6.00041
6.00051
6.00061
6.00066
6.00075
6.0008
6.00089
6.00094
6.00103
6.00108
6.00118
6.00123
6.00133
6.00138
6.00148
6.00154
6.00164
6.0017
6.0018
6.00186
6.00196
6.00202
6.00213
6.00219
6.0023
6.00236
6.00246
6.00252
6.00263
6.00269
6.0028
6.00286
6.00296
6.00302
6.00313
6.00318
6.00329
6.00335
6.00345
6.0035
6.0036
6.00366
6.00376
6.00384
6.00385
6.00378
6.00359
6.003
6.00216
5.99975
5.99687
5.98904
5.98065
5.9589
5.93796
5.88623
5.84144
5.73674
5.65514
5.47587
5.34921
5.08855
4.9178
4.58562
4.37454
3.97313
3.71526
3.23076
3.07969
3.04172
3.03261
3.03054
5.76545
5.91746
5.96937
5.9915
5.99769
5.99961
6.00013
6.00033
6.00041
6.00051
6.00061
6.00066
6.00075
6.0008
6.00089
6.00094
6.00103
6.00108
6.00118
6.00123
6.00133
6.00138
6.00148
6.00154
6.00164
6.0017
6.0018
6.00186
6.00196
6.00202
6.00213
6.00219
6.0023
6.00236
6.00246
6.00252
6.00263
6.00269
6.0028
6.00286
6.00296
6.00302
6.00313
6.00318
6.00329
6.00335
6.00345
6.0035
6.0036
6.00366
6.00376
6.00384
6.00385
6.00378
6.00359
6.003
6.00216
5.99975
5.99687
5.98904
5.98065
5.9589
5.93796
5.88623
5.84144
5.73674
5.65514
5.47587
5.34921
5.08855
4.9178
4.58562
4.37454
3.97313
3.71526
3.23076
3.07969
3.04172
3.03261
3.03054
5.75936
5.92146
5.97056
5.99214
5.99786
5.99967
6.00014
6.00033
6.0004
6.00051
6.00061
6.00066
6.00075
6.0008
6.00089
6.00094
6.00103
6.00108
6.00118
6.00123
6.00133
6.00138
6.00148
6.00154
6.00164
6.0017
6.0018
6.00186
6.00197
6.00202
6.00213
6.00219
6.0023
6.00235
6.00246
6.00252
6.00263
6.00269
6.0028
6.00285
6.00296
6.00302
6.00313
6.00318
6.00329
6.00334
6.00345
6.0035
6.0036
6.00366
6.00376
6.00385
6.00385
6.00378
6.00361
6.00301
6.00222
5.99977
5.99707
5.98906
5.98118
5.95886
5.93919
5.88595
5.84383
5.7358
5.65903
5.47375
5.35455
5.08493
4.92423
4.58075
4.38212
3.96737
3.7243
3.2174
3.07514
3.04055
3.03232
3.03044
5.7468
5.92998
5.97285
5.99341
5.99819
5.99978
6.00016
6.00034
6.0004
6.00051
6.00062
6.00066
6.00075
6.00079
6.00089
6.00093
6.00103
6.00108
6.00118
6.00123
6.00133
6.00138
6.00149
6.00153
6.00165
6.00169
6.00181
6.00186
6.00197
6.00202
6.00213
6.00218
6.0023
6.00235
6.00247
6.00252
6.00263
6.00268
6.0028
6.00285
6.00297
6.00302
6.00313
6.00318
6.00329
6.00334
6.00345
6.0035
6.00361
6.00366
6.00377
6.00385
6.00386
6.00379
6.00364
6.00302
6.00235
5.9998
5.99748
5.98907
5.98229
5.95872
5.94175
5.88521
5.84884
5.7336
5.66725
5.46897
5.36588
5.07693
4.93796
4.57007
4.39833
3.95471
3.74388
3.18944
3.06628
3.0383
3.03174
3.03026
5.7269
5.94411
5.97604
5.99531
5.99865
5.99993
6.00019
6.00035
6.0004
6.00051
6.00062
6.00065
6.00076
6.00079
6.0009
6.00093
6.00104
6.00107
6.00119
6.00122
6.00134
6.00137
6.00149
6.00153
6.00165
6.00169
6.00181
6.00185
6.00198
6.00201
6.00214
6.00218
6.00231
6.00234
6.00247
6.00251
6.00264
6.00268
6.00281
6.00284
6.00297
6.00301
6.00314
6.00317
6.0033
6.00333
6.00346
6.00349
6.00361
6.00365
6.00377
6.00386
6.00386
6.0038
6.00369
6.00304
6.00255
5.99982
5.99813
5.98902
5.98407
5.95831
5.94589
5.88367
5.85701
5.72944
5.68073
5.46036
5.38463
5.06291
4.96081
4.55151
4.4254
3.93272
3.77718
3.14421
3.05358
3.03518
3.03096
3.03
5.69832
5.96565
5.97973
5.99785
5.99918
6.00013
6.00023
6.00037
6.00039
6.00051
6.00063
6.00065
6.00077
6.00078
6.00091
6.00092
6.00105
6.00106
6.0012
6.00121
6.00135
6.00136
6.0015
6.00152
6.00166
6.00168
6.00182
6.00184
6.00199
6.002
6.00215
6.00217
6.00232
6.00233
6.00248
6.0025
6.00265
6.00267
6.00282
6.00283
6.00298
6.003
6.00315
6.00316
6.00331
6.00332
6.00347
6.00348
6.00362
6.00364
6.00377
6.00387
6.00388
6.00381
6.00377
6.00305
6.00285
5.9998
5.99907
5.9888
5.98668
5.95736
5.95202
5.88069
5.8692
5.72211
5.70108
5.44596
5.41322
5.0401
4.99595
4.52162
4.46711
3.89724
3.82957
3.07727
3.038
3.03149
3.03003
3.0297
)
;

boundaryField
{
    F1_1
    {
        type            fixedValue;
        value           nonuniform List<scalar> 
80
(
5.67755
5.98055
5.98055
5.99868
5.99868
5.99963
5.99963
5.99994
5.99994
6.00024
6.00056
6.00056
6.00089
6.00089
6.00124
6.00124
6.0016
6.0016
6.00198
6.00198
6.00237
6.00237
6.00277
6.00277
6.00319
6.00319
6.00361
6.00361
6.00404
6.00404
6.00448
6.00448
6.00493
6.00493
6.00538
6.00538
6.00583
6.00583
6.00628
6.00628
6.00673
6.00673
6.00719
6.00719
6.00764
6.00764
6.00808
6.00808
6.00852
6.00852
6.00894
6.00932
6.00932
6.00952
6.00952
6.00901
6.00901
6.00592
6.00592
5.99486
5.99486
5.96276
5.96276
5.88417
5.88417
5.72161
5.72161
5.43929
5.43929
5.02629
5.02629
4.50172
4.50172
3.87227
3.87227
3.03174
3.03174
3.03174
3.03174
3.03174
)
;
    }
    F1_2
    {
        type            fixedValue;
        value           nonuniform List<scalar> 
80
(
6.03965
5.99634
5.99634
6.00027
6.00027
6.00017
6.00017
6.0003
6.0003
6.00042
6.00054
6.00054
6.00068
6.00068
6.00082
6.00082
6.00097
6.00097
6.00112
6.00112
6.00127
6.00127
6.00143
6.00143
6.00159
6.00159
6.00176
6.00176
6.00193
6.00193
6.0021
6.0021
6.00227
6.00227
6.00244
6.00244
6.00261
6.00261
6.00279
6.00279
6.00296
6.00296
6.00313
6.00313
6.0033
6.0033
6.00346
6.00346
6.00362
6.00362
6.00376
6.00383
6.00383
6.00363
6.00363
6.00253
6.00253
5.99904
5.99904
5.99036
5.99036
5.97275
5.97275
5.94296
5.94296
5.89882
5.89882
5.83497
5.83497
5.73099
5.73099
5.52101
5.52101
5.01394
5.01394
4.1394
4.1394
4.1394
4.1394
4.1394
)
;
    }
    F1_3
    {
        type            fixedValue;
        value           nonuniform List<scalar> 
80
(
6.0389
5.99586
5.99586
5.9999
5.9999
5.99995
5.99995
6.00023
6.00023
6.00053
6.00084
6.00084
6.00117
6.00117
6.00151
6.00151
6.00187
6.00187
6.00224
6.00224
6.00263
6.00263
6.00302
6.00302
6.00343
6.00343
6.00384
6.00384
6.00426
6.00426
6.00469
6.00469
6.00512
6.00512
6.00556
6.00556
6.00599
6.00599
6.00643
6.00643
6.00687
6.00687
6.00731
6.00731
6.00774
6.00774
6.00817
6.00817
6.00858
6.00858
6.00898
6.0093
6.0093
6.00932
6.00932
6.00844
6.00844
6.00512
6.00512
5.99652
5.99652
5.97883
5.97883
5.94874
5.94874
5.90405
5.90405
5.83948
5.83948
5.73479
5.73479
5.52419
5.52419
5.01596
5.01596
4.14007
4.14007
4.14007
4.14007
4.14007
)
;
    }
    F1_4
    {
        type            fixedValue;
        value           nonuniform List<scalar> 
80
(
5.67868
5.98149
5.98149
5.99946
5.99946
6.00025
6.00025
6.00039
6.00039
6.00051
6.00064
6.00064
6.00077
6.00077
6.00091
6.00091
6.00106
6.00106
6.0012
6.0012
6.00136
6.00136
6.00151
6.00151
6.00167
6.00167
6.00183
6.00183
6.00199
6.00199
6.00216
6.00216
6.00233
6.00233
6.00249
6.00249
6.00266
6.00266
6.00283
6.00283
6.00299
6.00299
6.00315
6.00315
6.00332
6.00332
6.00348
6.00348
6.00363
6.00363
6.00378
6.00388
6.00388
6.00382
6.00382
6.00305
6.00305
5.99974
5.99974
5.98852
5.98852
5.95641
5.95641
5.87801
5.87801
5.71593
5.71593
5.43431
5.43431
5.02212
5.02212
4.49828
4.49828
3.86945
3.86945
3.02954
3.02954
3.02954
3.02954
3.02954
)
;
    }
    F2_1
    {
        type            fixedValue;
        value           nonuniform List<scalar> 
80
(
5.67755
5.98055
5.98055
5.99868
5.99868
5.99963
5.99963
5.99994
5.99994
6.00024
6.00056
6.00056
6.00089
6.00089
6.00124
6.00124
6.0016
6.0016
6.00198
6.00198
6.00237
6.00237
6.00277
6.00277
6.00319
6.00319
6.00361
6.00361
6.00404
6.00404
6.00448
6.00448
6.00493
6.00493
6.00538
6.00538
6.00583
6.00583
6.00628
6.00628
6.00673
6.00673
6.00719
6.00719
6.00764
6.00764
6.00808
6.00808
6.00852
6.00852
6.00894
6.00932
6.00932
6.00952
6.00952
6.00901
6.00901
6.00592
6.00592
5.99486
5.99486
5.96276
5.96276
5.88417
5.88417
5.72161
5.72161
5.43929
5.43929
5.02629
5.02629
4.50172
4.50172
3.87227
3.87227
3.03174
3.03174
3.03174
3.03174
3.03174
)
;
    }
    F2_2
    {
        type            fixedValue;
        value           nonuniform List<scalar> 
80
(
6.03965
5.99634
5.99634
6.00027
6.00027
6.00017
6.00017
6.0003
6.0003
6.00042
6.00054
6.00054