/*--------------------------------*- C++ -*----------------------------------*\
| =========                 |                                                 |
| \\      /  F ield         | OpenFOAM: The Open Source CFD Toolbox           |
|  \\    /   O peration     | Version:  5.x                                   |
|   \\  /    A nd           | Web:      www.OpenFOAM.org                      |
|    \\/     M anipulation  |                                                 |
\*---------------------------------------------------------------------------*/
FoamFile
{
    version     2.0;
    format      ascii;
    class       volScalarField;
    location    "12.8";
    object      T;
}
// * * * * * * * * * * * * * * * * * * * * * * * * * * * * * * * * * * * * * //

dimensions      [0 0 0 1 0 0 0];

internalField   nonuniform List<scalar> 
6300
(
10.0745
10.2249
10.3802
10.5432
10.717
10.9044
11.1076
11.3289
11.5698
11.8313
12.1137
12.4165
12.7383
13.077
13.4297
10.0729
10.2202
10.3723
10.5324
10.7035
10.8884
11.0896
11.3092
11.5491
11.8103
12.0932
12.3973
12.7213
13.063
13.4192
10.0696
10.2106
10.3565
10.5107
10.6762
10.856
11.0529
11.2693
11.5071
11.7676
12.0514
12.3582
12.6866
13.0342
13.3977
10.0648
10.196
10.3325
10.4775
10.6344
10.8065
10.9968
11.2079
11.4423
11.7015
11.9866
12.2974
12.6325
12.9895
13.3644
10.0582
10.1763
10.2998
10.4324
10.5775
10.7388
10.9196
11.1232
11.3525
11.6096
11.896
12.2121
12.5566
12.9267
13.3178
10.0498
10.1511
10.2582
10.3747
10.5045
10.6515
10.8197
11.0129
11.2347
11.4882
11.7757
12.0982
12.4549
12.8427
13.256
10.0395
10.1203
10.207
10.3036
10.4141
10.543
10.6947
10.8739
11.0851
11.3327
11.6204
11.9502
12.3221
12.733
13.1761
10.0272
10.0836
10.146
10.2185
10.3055
10.4117
10.5423
10.7028
10.8991
11.1372
11.4227
11.7599
12.1502
12.5911
13.074
10.013
10.0409
10.0748
10.1188
10.1775
10.256
10.3599
10.4958
10.6712
10.8942
11.1733
11.5162
11.9277
12.4069
12.9437
9.99682
9.99232
9.99352
10.0045
10.0298
10.0747
10.1454
10.2493
10.3956
10.5951
10.8601
11.2039
11.6375
12.1649
12.7758
9.97877
9.938
9.90242
9.87581
9.86248
9.86761
9.89756
9.96045
10.0668
10.2302
10.4682
10.8017
11.2533
11.8393
12.5548
9.95902
9.87849
9.80234
9.7338
9.67669
9.63566
9.61676
9.62808
9.68081
9.79078
9.9805
10.2814
10.7347
11.3843
12.2505
9.93784
9.81459
9.69461
9.58036
9.47477
9.38156
9.30572
9.25426
9.23755
9.27153
9.38155
9.60878
10.0196
10.7124
11.794
9.9156
9.74742
9.58115
9.41824
9.26046
9.11007
8.97025
8.84564
8.74356
8.6762
8.66531
8.75251
9.02232
9.65158
10.9849
9.89273
9.67833
9.46431
9.25099
9.03872
8.82799
8.61952
8.41447
8.21482
8.02433
7.85093
7.71356
7.66554
7.88661
9.09418
13.7626
14.0699
14.3795
14.6891
14.9963
15.2989
15.595
15.8828
16.1608
16.4277
16.6825
16.9243
17.1524
17.3663
17.5657
17.7502
17.9197
18.0739
18.2129
18.3367
18.4453
18.5387
18.6172
18.6809
18.7299
18.7645
18.7848
18.7913
18.7839
18.7632
18.7292
18.6823
18.6228
18.5509
18.4668
18.3708
18.2633
18.1443
18.0142
17.8733
17.7218
17.5599
17.3879
17.2061
17.0148
16.8141
16.6044
16.386
16.1589
15.9235
15.6799
15.4284
15.1691
14.9022
14.628
14.3465
14.058
13.7627
13.4609
13.1528
12.8386
12.5187
12.1934
11.8629
11.5275
11.1876
10.8435
10.4956
10.1443
9.78999
9.4333
9.07476
8.71502
8.35481
7.9949
7.63614
7.27941
6.92564
6.57578
6.23078
5.89157
5.55906
5.23411
4.91754
4.61006
4.31232
4.02484
3.74803
3.48216
3.22735
13.7557
14.0664
14.3795
14.6924
15.0027
15.3082
15.6068
15.8967
16.1765
16.445
16.701
16.9437
17.1726
17.3871
17.5869
17.7717
17.9413
18.0956
18.2347
18.3583
18.4668
18.5601
18.6383
18.7017
18.7504
18.7847
18.8047
18.8108
18.8031
18.7819
18.7476
18.7003
18.6404
18.5681
18.4837
18.3873
18.2794
18.1601
18.0297
17.8884
17.7364
17.5742
17.4018
17.2197
17.0279
16.8269
16.6169
16.3981
16.1707
15.935
15.6912
15.4394
15.1799
14.9127
14.6381
14.3564
14.0675
13.7719
13.4698
13.1613
12.8467
12.5264
12.2007
11.8697
11.5339
11.1935
10.8488
10.5003
10.1484
9.79336
9.43584
9.07637
8.7156
8.35426
7.99315
7.63311
7.27505
6.91993
6.56871
6.22236
5.88184
5.54809
5.22199
4.90437
4.59599
4.29749
4.00943
3.73223
3.46617
3.21139
13.7416
14.0594
14.3796
14.6993
15.0159
15.3272
15.6308
15.9251
16.2085
16.4799
16.7383
16.983
17.2133
17.4289
17.6295
17.8148
17.9847
18.1392
18.2782
18.4017
18.5099
18.6028
18.6806
18.7434
18.7916
18.8252
18.8445
18.8498
18.8414
18.8194
18.7843
18.7363
18.6756
18.6025
18.5174
18.4203
18.3117
18.1916
18.0605
17.9184
17.7658
17.6028
17.4296
17.2467
17.0542
16.8525
16.6418
16.4223
16.1943
15.9581
15.7137
15.4614
15.2013
14.9337
14.6585
14.3762
14.0867
13.7905
13.4876
13.1783
12.863
12.5419
12.2152
11.8834
11.5467
11.2053
10.8596
10.51
10.1567
9.80023
9.44105
9.07972
8.71689
8.35329
7.98974
7.62712
7.26638
6.90851
6.55453
6.20546
5.8623
5.52603
5.19759
4.87785
4.56761
4.26758
3.97833
3.70034
3.43391
3.17917
13.72
14.0489
14.3801
14.7104
15.0369
15.3569
15.6681
15.9689
16.2577
16.5335
16.7953
17.0426
17.275
17.4922
17.6938
17.8799
18.0502
18.2048
18.3437
18.467
18.5748
18.6671
18.7441
18.8062
18.8533
18.8859
18.9042
18.9084
18.8988
18.8757
18.8394
18.7902
18.7284
18.6542
18.5679
18.4698
18.3601
18.239
18.1067
17.9636
17.8098
17.6456
17.4714
17.2873
17.0937
16.8908
16.679
16.4586
16.2297
15.9926
15.7474
15.4943
15.2335
14.9651
14.6892
14.406
14.1156
13.8183
13.5143
13.2039
12.8874
12.565
12.2372
11.9041
11.566
11.2232
10.876
10.5247
10.1695
9.81089
9.44924
9.08513
8.71918
8.35215
7.98488
7.61832
7.25348
6.89141
6.53321
6.17996
5.83276
5.49263
5.16059
4.83758
4.52448
4.22206
3.93098
3.65177
3.38476
3.13011
13.6902
14.0349
14.3818
14.727
15.067
15.3989
15.7204
16.0297
16.3255
16.6068
16.873
17.1236
17.3585
17.5775
17.7804
17.9673
18.1381
18.2928
18.4316
18.5545
18.6616
18.7531
18.8291
18.89
18.9359
18.9671
18.9839
18.9866
18.9754
18.9508
18.9129
18.8621
18.7987
18.7231
18.6353
18.5357
18.4246
18.3021
18.1684
18.0238
17.8686
17.7029
17.527
17.3413
17.1462
16.9418
16.7286
16.5068
16.2767
16.0384
15.7923
15.5383
15.2765
15.0072
14.7303
14.4459
14.1543
13.8556
13.5502
13.2382
12.92
12.596
12.2665
11.9317
11.5919
11.2473
10.8982
10.5448
10.1872
9.82575
9.46088
9.09306
8.72291
8.35123
7.9789
7.60695
7.23648
6.86865
6.50466
6.1457
5.79294
5.44751
5.11052
4.78299
4.46591
4.16016
3.8665
3.58557
3.31776
3.06327
13.6514
14.0178
14.3858
14.7508
15.1085
15.4558
15.7902
16.1099
16.414
16.7017
16.9728
17.2271
17.4647
17.6857
17.8899
18.0777
18.2489
18.4037
18.5421
18.6644
18.7706
18.861
18.9358
18.9951
19.0394
19.0688
19.0837
19.0844
19.0713
19.0446
19.0047
18.9519
18.8866
18.809
18.7195
18.6181
18.5053
18.381
18.2456
18.0992
17.9421
17.7745
17.5966
17.4089
17.2117
17.0053
16.7903
16.5668
16.3351
16.0956
15.8482
15.5931
15.3303
15.0599
14.7818
14.4961
14.203
13.9026
13.5952
13.2812
12.9609
12.6348
12.3032
11.9663
11.6245
11.2779
10.9266
10.5707
10.2102
9.84547
9.47665
9.10421
8.72877
8.35113
7.97229
7.59336
7.21559
6.84029
6.4688
6.10243
5.74248
5.39019
5.04675
4.71331
4.39097
4.08078
3.78367
3.50041
3.23154
2.97731
13.6026
13.998
14.3941
14.7848
15.1651
15.5312
15.8808
16.2125
16.5257
16.8203
17.0965
17.3545
17.5948
17.8176
18.0231
18.2116
18.3831
18.5378
18.6758
18.7972
18.9023
18.9912
19.0643
19.1218
19.164
19.1912
19.2037
19.202
19.1864
19.1572
19.1148
19.0595
18.9919
18.912
18.8203
18.7169
18.6021
18.4759
18.3384
18.1899
18.0305
17.8605
17.6802
17.4899
17.2901
17.0813
16.8638
16.6382
16.4048
16.1637
15.915
15.6588
15.395
15.1235
14.8441
14.5569
14.2619
13.9594
13.6496
13.333
13.0102
12.6814
12.3473
12.008
11.6639
11.3151
10.9614
10.6029
10.2394
9.8709
9.49751
9.11957
8.73768
8.35268
7.96569
7.578
7.19105
6.80637
6.42547
6.04985
5.68093
5.32005
4.96851
4.62758
4.29849
3.98252
3.68083
3.39448
3.12422
2.87039
13.5425
13.977
14.4101
14.8337
15.2417
15.6302
15.997
16.3416
16.6641
16.9653
17.2461
17.5074
17.7498
17.9741
18.1807
18.3697
18.5413
18.6957
18.833
18.9534
19.057
19.1441
19.2151
19.2702
19.3099
19.3344
19.3441
19.3394
19.3208
19.2885
19.2431
19.1849
19.1144
19.0319
18.9377
18.832
18.715
18.5866
18.4469
18.2961
18.1341
17.9612
17.7778
17.5843
17.3813
17.1693
16.949
16.7209
16.4853
16.2425
15.9926
15.7353
15.4706
15.1981
14.9175
14.6286
14.3315
14.0264
13.7137
13.3939
13.0676
12.7356
12.3985
12.0566
11.7101
11.359
11.0032
10.6422
10.2757
9.90325
9.5248
9.14051
8.75094
8.35702
7.96
7.56147
7.16317
6.7669
6.37447
5.98755
5.60771
5.2364
4.87495
4.52471
4.1871
3.86362
3.55587
3.26534
2.99319
2.73998
13.4701
13.9576
14.4397
14.905
15.3464
15.7601
16.1451
16.5022
16.8331
17.1396
17.4237
17.687
17.9309
18.1561
18.3632
18.5525
18.7241
18.8781
19.0144
19.1334
19.2351
19.32
19.3885
19.4408
19.4774
19.4986
19.505
19.4968
19.4745
19.4385
19.3895
19.3278
19.2539
19.1684
19.0714
18.9633
18.8439
18.7133
18.5714
18.418
18.2531
18.0769
17.8898
17.6923
17.4851
17.2692
17.0452
16.814
16.5759
16.3314
16.0803
15.8225
15.5573
15.2842
15.0026
14.7121
14.4126
14.1043
13.7877
13.4637
13.1332
12.7972
12.4564
12.1115
11.7626
11.4097
11.0522
10.6894
10.3203
9.94413
9.56037
9.16895
8.77038
8.36568
7.95641
7.54453
7.13226
6.72185
6.31544
5.91498
5.52217
5.13846
4.76518
4.40362
4.05529
3.72204
3.40607
3.10969
2.83486
2.58257
13.3845
13.9461
14.4933
15.0107
15.4906
15.931
16.3333
16.7006
17.0368
17.3458
17.6309
17.8945
18.1385
18.3639
18.5712
18.7607
18.9321
19.0855
19.2206
19.3378
19.4373
19.5194
19.5847
19.6337
19.6666
19.6841
19.6865
19.6742
19.6475
19.6072
19.5538
19.4879
19.4101
19.3211
19.2211
19.1103
18.9888
18.8562
18.7121
18.5561
18.3881
18.2081
18.0164
17.8139
17.6015
17.3803
17.1517
16.9166
16.6758
16.4295
16.1777
15.9199
15.6552
15.3823
15.1003
14.8083
14.506
14.1938
13.8723
13.5428
13.2066
12.8653
12.5201
12.1719
11.8209
11.4668
11.1088
10.7454
10.375
9.99582
9.60683
9.20759
8.79852
8.38082
7.95646
7.52805
7.09857
6.67093
6.24777
5.83133
5.42342
5.02545
4.63847
4.26344
3.90169
3.55552
3.22801
2.92295
2.64405
2.39319
13.2867
13.9553
14.5896
15.17
15.6916
16.1568
16.5717
16.9434
17.2795
17.5863
17.8687
18.1301
18.3726
18.5974
18.8048
18.9945
19.166
19.3187
19.4525
19.5676
19.6642
19.7429
19.8044
19.8492
19.878
19.8911
19.889
19.8718
19.8401
19.7945
19.7358
19.6648
19.5823
19.4892
19.3859
19.2727
19.1493
19.0153
18.8697
18.7115
18.5402
18.3557
18.1585
17.9495
17.7301
17.502
17.2673
17.0273
16.7832
16.5353
16.2836
16.0271
15.7645
15.4935
15.2122
14.9191
14.6137
14.2965
13.9684
13.6312
13.2872
12.9389
12.5881
12.2362
11.8835
11.5295
11.1729
10.8115
10.4421
10.0615
9.66792
9.26026
8.839
8.40541
7.96226
7.51302
7.06215
6.61345
6.17036
5.73529
5.31032
4.89652
4.49452
4.10405
3.72564
3.36209
3.01757
2.6985
2.41285
2.16439
13.1841
14.0139
14.763
15.414
15.9738
16.4548
16.8719
17.2376
17.5641
17.8618
18.1366
18.3927
18.632
18.8558
19.0635
19.2545
19.4266
19.5791
19.7113
19.8236
19.9165
19.9909
20.0477
20.0877
20.1117
20.12
20.1127
20.0902
20.0525
20.0005
19.9351
19.8578
19.7697
19.6719
19.5649
19.4493
19.3248
19.1908
19.0451
18.8854
18.711
18.5214
18.3175
18.0999
17.8711
17.6332
17.3901
17.1437
16.8958
16.6465
16.396
16.143
15.8856
15.6196
15.3407
15.0473
14.7383
14.4147
14.0773
13.7294
13.3738
13.0158
12.6576
12.3016
11.9477
11.5958
11.2438
10.889
10.5251
10.146
9.7491
9.33243
8.8971
8.4437
7.97673
7.50026
7.02253
6.54782
6.08132
5.62467
5.18106
4.75055
4.33391
3.92724
3.52813
3.14123
2.77043
2.42589
2.12808
1.88444
13.1086
14.1887
15.0777
15.7893
16.3689
16.8448
17.2462
17.5877
17.8901
18.1702
18.431
18.6794
18.9135
19.1371
19.346
19.5414
19.7152
19.8684
19.9983
20.1073
20.1952
20.2642
20.3148
20.3489
20.3676
20.3709
20.3583
20.33
20.2853
20.2257
20.1513
20.0663
19.9707
19.8676
19.756
19.6386
19.5138
19.383
19.2405
19.0802
18.9036
18.7075
18.4959
18.2661
18.0249
17.7715
17.5176
17.2619
17.0103
16.759
16.512
16.2648
16.019
15.7641
15.4898
15.1979
14.8836
14.5527
14.2011
13.8386
13.4637
13.0927
12.7236
12.3641
12.0086
11.6623
11.3186
10.9794
10.63
10.2557
9.85868
9.43137
8.98108
8.50141
8.00479
7.48921
6.97847
6.47027
5.97801
5.49518
5.03286
4.58456
4.15889
3.7395
3.31299
2.89714
2.48544
2.08596
1.76527
1.53371
13.1986
14.6383
15.6477
16.3543
16.9134
17.3417
17.7064
17.994
18.248
18.506
18.7432
18.9865
19.2096
19.4395
19.6478
19.859
20.0333
20.191
20.3151
20.4213
20.5009
20.5636
20.6056
20.6318
20.6457
20.6444
20.6264
20.5931
20.5391
20.4719
20.3824
20.2898
20.1821
20.0752
19.955
19.8384
19.7113
19.5918
19.461
19.2984
19.124
18.9158
18.7001
18.4486
18.1959
17.9105
17.6475
17.3741
17.1242
16.8652
16.6281
16.3844
16.1651
15.9365
15.6639
15.3808
15.0526
14.7201
14.3407
13.9653
13.5478
13.1669
12.7756
12.4206
12.0562
11.7249
11.3868
11.0842
10.7707
10.3982
10.0117
9.56329
9.10727
8.58341
8.06008
7.47108
6.93068
6.36969
5.86107
5.33609
4.86441
4.38591
3.97477
3.56198
3.08245
2.64705
2.18283
1.63256
1.27407
1.0778
14.1133
15.7073
16.6536
17.1315
17.6462
17.9301
18.2773
18.4483
18.6
18.8716
19.0461
19.3226
19.496
19.7724
19.9452
20.2296
20.3748
20.562
20.6574
20.7734
20.8306
20.8928
20.9185
20.9325
20.9452
20.9418
20.916
20.8859
20.8118
20.7499
20.6177
20.5347
20.3922
20.3017
20.1487
20.0532
19.8972
19.8168
19.7273
19.5332
19.3927
19.1346
18.9556
18.6328
18.4136
18.017
17.7919
17.4525
17.2507
16.9398
16.7535
16.4688
16.3244
16.172
15.853
15.6285
15.2274
14.955
14.4743
14.1523
13.579
13.256
12.775
12.4905
12.0561
11.797
11.4037
11.2048
10.9961
10.5605
10.2539
9.70599
9.33103
8.66455
8.20981
7.38289
6.91244
6.19361
5.76761
5.10016
4.70574
4.09019
3.793
3.4805
2.78833
2.43841
2.0041
0.902967
0.549281
0.455152
2.95923
2.68241
2.42075
2.17348
1.93967
1.71821
1.50795
1.30766
1.11608
0.931988
0.754152
0.581382
0.412513
0.246408
0.0819533
2.94351
2.66722
2.40632
2.16001
1.92728
1.707
1.49797
1.29892
1.10859
0.925717
0.749077
0.577473
0.409743
0.244756
0.0814041
2.9118
2.63661
2.37729
2.13292
1.9024
1.68452
1.47798
1.28145
1.09362
0.913203
0.738957
0.569683
0.404225
0.241465
0.0803103
2.86355
2.59012
2.33327
2.09194
1.86488
1.65069
1.44796
1.25526
1.07122
0.894507
0.723857
0.558071
0.396005
0.236564
0.078682
2.79791
2.527
2.2737
2.03668
1.81444
1.60538
1.40788
1.22041
1.04149
0.869736
0.703882
0.54273
0.385157
0.2301
0.0765349
2.71364
2.44626
2.19781
1.96662
1.75081
1.54848
1.35777
1.17699
1.00456
0.839058
0.679198
0.523803
0.371788
0.22214
0.0738922
2.6091
2.34653
2.10464
1.88115
1.67368
1.47992
1.29773
1.1252
0.960691
0.802729
0.65004
0.501489
0.356049
0.212777
0.0707848
2.48203
2.22612
1.99303
1.77964
1.58284
1.39977
1.22799
1.0654
0.910259
0.761116
0.616737
0.476056
0.338137
0.202133
0.0672537
2.32946
2.08286
1.86169
1.66152
1.47822
1.30834
1.14904
0.998123
0.853819
0.714732
0.579726
0.447856
0.318307
0.19036
0.0633501
2.14732
1.91413
1.70935
1.52649
1.36019
1.20629
1.06171
0.92422
0.79215
0.664256
0.539574
0.417328
0.296873
0.177646
0.0591365
1.93013
1.71698
1.53504
1.3749
1.22974
1.09489
0.967287
0.844883
0.726296
0.610562
0.496977
0.385004
0.274207
0.164212
0.054686
1.6705
1.48861
1.33892
1.20833
1.08894
0.976238
0.867652
0.761719
0.65758
0.554709
0.452763
0.3515
0.250734
0.150308
0.0500807
1.35933
1.22802
1.12368
1.03053
0.941454
0.853455
0.765352
0.676751
0.587588
0.497925
0.40786
0.317495
0.226918
0.136202
0.045409
0.989241
0.940427
0.897256
0.848637
0.792877
0.730766
0.66354
0.592336
0.518089
0.441535
0.363252
0.283698
0.203237
0.122173
0.0407618
0.571346
0.647181
0.676264
0.673874
0.650642
0.613183
0.565696
0.510959
0.450891
0.386868
0.319912
0.250803
0.180159
0.108488
0.0362266
9.87165
9.61463
9.35657
9.09669
8.83402
8.56732
8.29488
8.01425
7.72169
7.41109
7.07135
6.67923
6.17512
5.36434
3.44876
9.85272
9.55743
9.25988
8.95834
8.65072
8.33431
8.00541
7.65867
7.28591
6.87381
6.39899
5.81667
5.03312
3.83856
1.77623
9.8343
9.5018
9.16595
8.82421
8.47352
8.10997
7.72832
7.32114
6.87742
6.38006
5.80125
5.09384
4.17654
2.91537
1.1385
9.81663
9.4485
9.07612
8.69629
8.30523
7.89819
7.46895
7.00896
6.50615
5.94286
5.29279
4.51674
3.55873
2.35028
0.848079
9.79992
9.39814
8.99144
8.57616
8.14803
7.70183
7.23091
6.72652
6.17688
5.56591
4.87181
4.066
3.11481
1.98919
0.692345
9.78432
9.35121
8.91273
8.46494
8.00336
7.52262
7.0161
6.47549
5.89017
5.24668
4.52838
3.71621
2.79201
1.74701
0.597608
9.76994
9.308
8.84046
8.36331
7.872
7.3613
6.82497
6.2555
5.64386
4.97938
4.25012
3.44422
2.55309
1.57731
0.534687
9.75684
9.26867
8.77488
8.27149
7.7541
7.21777
6.65683
6.06479
5.43423
4.75706
4.02508
3.23141
2.37294
1.45404
0.490338
9.74501
9.23323
8.71597
8.18939
7.64934
7.09131
6.5103
5.90081
5.25697
4.57279
3.84288
3.06359
2.23476
1.36188
0.457774
9.73444
9.2016
8.66353
8.11663
7.55708
6.98082
6.38354
5.76069
5.1077
4.42027
3.69497
2.93016
2.12716
1.2914
0.433156
9.72507
9.17359
8.61723
8.05265
7.4764
6.88492
6.27452
5.6415
4.98235
4.29404
3.57449
2.82327
2.0423
1.23654
0.41414
9.71682
9.14897
8.57663
7.99677
7.40631
6.80216
6.18119
5.54045
4.87725
4.18949
3.476
2.73702
1.97466
1.19322
0.399208
9.7096
9.12746
8.54124
7.94824
7.34574
6.73106
6.1016
5.455
4.78921
4.10281
3.39521
2.667
1.92026
1.15864
0.387334
9.70333
9.10878
8.51057
7.90631
7.29362
6.67021
6.03392
5.38285
4.71548
4.03084
3.32872
2.60987
1.87619
1.13077
0.377796
9.6979
9.09262
8.48411
7.87024
7.24895
6.6183
5.9765
5.32203
4.65375
3.97101
3.27384
2.56303
1.84027
1.10816
0.370074
9.69322
9.07872
8.46136
7.83931
7.21078
6.57413
5.92787
5.2708
4.60205
3.92121
3.22842
2.52448
1.81085
1.0897
0.36378
9.68921
9.06679
8.44188
7.81288
7.17826
6.53662
5.88675
5.22768
4.55875
3.87971
3.19076
2.49265
1.78664
1.07456
0.358625
9.68577
9.05659
8.42524
7.79035
7.1506
6.50483
5.85202
5.1914
4.52247
3.84508
3.15946
2.46629
1.76667
1.06208
0.354383
9.68284
9.04788
8.41106
7.77118
7.12713
6.47792
5.82271
5.16089
4.49206
3.81616
3.13341
2.44442
1.75013
1.05178
0.350881
9.68034
9.04048
8.39901
7.75492
7.10725
6.45517
5.798
5.13523
4.46657
3.79198
3.1117
2.42624
1.7364
1.04323
0.347982
9.67822
9.03419
8.38879
7.74113
7.09042
6.43596
5.77718
5.11367
4.4452
3.77176
3.09358
2.41109
1.72499
1.03614
0.345575
9.67642
9.02886
8.38012
7.72946
7.0762
6.41976
5.75965
5.09554
4.42727
3.75483
3.07844
2.39846
1.71549
1.03024
0.343574
9.67489
9.02434
8.37279
7.7196
7.0642
6.40609
5.74489
5.08031
4.41223
3.74066
3.06578
2.38792
1.70756
1.02532
0.341907
9.6736
9.02053
8.36659
7.71127
7.05407
6.39458
5.73247
5.06751
4.39961
3.72879
3.05519
2.37911
1.70095
1.02122
0.340516
9.67252
9.0173
8.36136
7.70424
7.04553
6.38488
5.72202
5.05676
4.38903
3.71884
3.04633
2.37174
1.69542
1.01779
0.339356
9.6716
9.01458
8.35695
7.69832
7.03834
6.37672
5.71324
5.04774
4.38015
3.7105
3.0389
2.36557
1.69079
1.01493
0.338386
9.67082
9.01229
8.35323
7.69333
7.03229
6.36986
5.70586
5.04015
4.3727
3.70351
3.03269
2.36041
1.68693
1.01253
0.337575
9.67017
9.01036
8.3501
7.68913
7.0272
6.36409
5.69966
5.03379
4.36645
3.69765
3.02748
2.35609
1.68369
1.01053
0.336897
9.66962
9.00873
8.34747
7.6856
7.02292
6.35925
5.69446
5.02845
4.36121
3.69274
3.02312
2.35248
1.68099
1.00885
0.33633
9.66916
9.00737
8.34526
7.68264
7.01933
6.35518
5.69009
5.02398
4.35682
3.68863
3.01947
2.34945
1.67872
1.00745
0.335855
9.66877
9.00622
8.3434
7.68015
7.01632
6.35178
5.68643
5.02023
4.35314
3.68519
3.01642
2.34692
1.67683
1.00628
0.335459
9.66845
9.00526
8.34185
7.67807
7.0138
6.34893
5.68338
5.0171
4.35007
3.68231
3.01387
2.34481
1.67525
1.00531
0.335128
9.66818
9.00446
8.34055
7.67633
7.01169
6.34654
5.68082
5.01448
4.34751
3.67992
3.01174
2.34305
1.67393
1.00449
0.334853
9.66795
9.00379
8.33947
7.67488
7.00994
6.34456
5.6787
5.01231
4.34538
3.67792
3.00997
2.34159
1.67284
1.00381
0.334624
9.66776
9.00324
8.33857
7.67368
7.00849
6.34292
5.67694
5.01051
4.34361
3.67627
3.00851
2.34038
1.67193
1.00325
0.334434
9.66761
9.00278
8.33784
7.67269
7.00729
6.34157
5.67549
5.00902
4.34216
3.67492
3.00731
2.33938
1.67119
1.00279
0.334278
9.66748
9.00241
8.33723
7.67189
7.00631
6.34047
5.67431
5.00781
4.34098
3.67381
3.00633
2.33857
1.67058
1.00242
0.334151
9.66738
9.00211
8.33675
7.67124
7.00553
6.33958
5.67336
5.00684
4.34003
3.67292
3.00554
2.33792
1.67009
1.00212
0.334049
9.6673
9.00188
8.33637
7.67073
7.00491
6.33888
5.67261
5.00608
4.33928
3.67222
3.00492
2.3374
1.66971
1.00188
0.333969
9.66724
9.0017
8.33608
7.67034
7.00444
6.33835
5.67204
5.0055
4.33871
3.67169
3.00445
2.33701
1.66942
1.0017
0.333908
9.6672
9.00157
8.33587
7.67007
7.00411
6.33798
5.67164
5.00508
4.33831
3.67131
3.00411
2.33674
1.66921
1.00157
0.333865
9.66717
9.00149
8.33574
7.66989
7.0039
6.33774
5.67138
5.00482
4.33805
3.67107
3.0039
2.33656
1.66908
1.00149
0.333838
9.66716
9.00145
8.33569
7.66982
7.00381
6.33764
5.67127
5.00471
4.33794
3.67097
3.00381
2.33649
1.66902
1.00146
0.333826
9.66716
9.00146
8.3357
7.66984
7.00383
6.33766
5.6713
5.00474
4.33797
3.671
3.00384
2.33651
1.66904
1.00147
0.333829
9.66718
9.00152
8.33579
7.66995
7.00397
6.33782
5.67147
5.00492
4.33814
3.67116
3.00398
2.33662
1.66913
1.00152
0.333847
9.66721
9.00162
8.33595
7.67017
7.00424
6.33812
5.67179
5.00524
4.33846
3.67145
3.00424
2.33684
1.66929
1.00162
0.333881
9.66726
9.00177
8.33619
7.67049
7.00463
6.33856
5.67226
5.00572
4.33893
3.67189
3.00463
2.33716
1.66953
1.00177
0.333932
9.66733
9.00197
8.33652
7.67093
7.00516
6.33916
5.6729
5.00638
4.33957
3.67249
3.00516
2.3376
1.66986
1.00197
0.334
9.66742
9.00223
8.33694
7.6715
7.00584
6.33993
5.67373
5.00723
4.3404
3.67327
3.00585
2.33817
1.67028
1.00224
0.33409
9.66753
9.00256
8.33747
7.67221
7.0067
6.3409
5.67478
5.00829
4.34145
3.67425
3.00672
2.33889
1.67082
1.00257
0.334202
9.66767
9.00297
8.33813
7.67309
7.00777
6.34211
5.67607
5.00961
4.34274
3.67546
3.00779
2.33977
1.67148
1.00298
0.33434
9.66784
9.00346
8.33893
7.67417
7.00907
6.34358
5.67764
5.01122
4.34432
3.67693
3.00909
2.34086
1.67229
1.00348
0.334509
9.66804
9.00406
8.33991
7.67547
7.01064
6.34536
5.67955
5.01318
4.34623
3.67872
3.01068
2.34217
1.67327
1.00408
0.334714
9.66828
9.00478
8.34108
7.67703
7.01254
6.3475
5.68185
5.01553
4.34853
3.68087
3.01259
2.34375
1.67445
1.00481
0.334962
9.66858
9.00565
8.34248
7.67891
7.01481
6.35007
5.6846
5.01835
4.3513
3.68346
3.01488
2.34565
1.67587
1.00569
0.335259
9.66893
9.00669
8.34416
7.68116
7.01753
6.35315
5.6879
5.02173
4.35461
3.68656
3.01763
2.34792
1.67758
1.00675
0.335615
9.66935
9.00792
8.34616
7.68384
7.02078
6.35683
5.69185
5.02577
4.35857
3.69026
3.02092
2.35065
1.67961
1.00801
0.336042
9.66984
9.0094
8.34855
7.68704
7.02466
6.36121
5.69655
5.03059
4.3633
3.69469
3.02485
2.3539
1.68205
1.00951
0.336552
9.67044
9.01115
8.35139
7.69085
7.02927
6.36643
5.70216
5.03634
4.36894
3.69997
3.02954
2.35779
1.68496
1.01131
0.337162
9.67114
9.01323
8.35476
7.69538
7.03476
6.37265
5.70884
5.0432
4.37567
3.70627
3.03513
2.36243
1.68844
1.01347
0.33789
9.67198
9.01571
8.35877
7.70076
7.04129
6.38005
5.71679
5.05136
4.38368
3.71379
3.04182
2.36798
1.69259
1.01604
0.338761
9.67297
9.01865
8.36354
7.70715
7.04904
6.38884
5.72625
5.06108
4.39324
3.72276
3.04979
2.3746
1.69755
1.01911
0.339801
9.67415
9.02213
8.36919
7.71474
7.05825
6.39929
5.7375
5.07265
4.40462
3.73345
3.05931
2.38251
1.70348
1.02278
0.341046
9.67554
9.02626
8.37588
7.72373
7.06919
6.41171
5.75089
5.08643
4.41819
3.74621
3.07068
2.39196
1.71057
1.02718
0.342535
9.67719
9.03114
8.38381
7.73439
7.08215
6.42645
5.76679
5.10282
4.43436
3.76143
3.08426
2.40326
1.71906
1.03244
0.344319
9.67914
9.03692
8.39319
7.74701
7.09752
6.44395
5.7857
5.12233
4.45363
3.7796
3.10049
2.41679
1.72923
1.03875
0.346458
9.68144
9.04374
8.40427
7.76194
7.11571
6.46469
5.80815
5.14555
4.4766
3.8013
3.1199
2.43299
1.74143
1.04633
0.349027
9.68415
9.05177
8.41735
7.77957
7.13723
6.48927
5.8348
5.17317
4.50399
3.82722
3.14315
2.45242
1.75607
1.05544
0.352117
9.68734
9.06123
8.43274
7.80036
7.16266
6.51837
5.86643
5.20602
4.53666
3.85822
3.17101
2.47577
1.7737
1.06641
0.355842
9.69109
9.07234
8.45085
7.82484
7.19265
6.55278
5.90393
5.2451
4.57563
3.89531
3.20444
2.50385
1.79494
1.07965
0.360343
9.69547
9.08536
8.47209
7.85361
7.22799
6.59343
5.94837
5.29155
4.62213
3.93973
3.24461
2.5377
1.82062
1.09569
0.365798
9.70059
9.10057
8.49694
7.88734
7.26952
6.64136
6.00097
5.34677
4.67763
3.99298
3.29298
2.57861
1.85175
1.11518
0.372434
9.70655
9.11829
8.52593
7.92679
7.31824
6.69779
6.06315
5.41236
4.74389
4.05689
3.35133
2.62819
1.88963
1.13896
0.380543
9.71346
9.13885
8.55963
7.97276
7.37521
6.76407
6.13656
5.49021
4.82303
4.13369
3.42187
2.68848
1.93591
1.16812
0.390504
9.72144
9.1626
8.59865
8.02614
7.44163
6.8417
6.22304
5.58253
4.91754
4.2261
3.5074
2.76209
1.99275
1.20409
0.402825
9.7306
9.18992
8.64361
8.08785
7.51875
6.93235
6.32468
5.69186
5.0304
4.33745
3.61139
2.85238
2.06302
1.24882
0.418191
9.74105
9.22114
8.69512
8.15882
7.60788
7.03777
6.44377
5.82109
5.16511
4.47179
3.73826
2.96374
2.15053
1.30494
0.437555
9.75291
9.25659
8.75377
8.23995
7.71033
7.15977
6.58276
5.97343
5.32577
4.63404
3.89359
3.10195
2.26054
1.3762
0.462282
9.76626
9.29655
8.82007
8.33204
7.82731
7.30015
6.7442
6.15238
5.517
4.83014
4.08445
3.27474
2.40033
1.46801
0.494398
9.78116
9.34121
8.89438
8.43574
7.95985
7.4605
6.93053
6.36157
5.74399
5.06707
4.31975
3.49244
2.58035
1.58849
0.537057
9.79762
9.39065
8.97689
8.55141
8.10867
7.64212
7.14393
6.60452
6.01218
5.35288
4.6106
3.76902
2.81575
1.75033
0.595465
9.81563
9.44479
9.06752
8.67908
8.274
7.8457
7.38594
6.8842
6.32686
5.6963
4.97039
4.12315
3.12903
1.97429
0.678913
9.83509
9.50339
9.1659
8.81829
8.45546
8.07112
7.6571
7.20249
6.69236
6.10593
5.41442
4.57928
3.55383
2.2959
0.805727
9.85587
9.56602
9.27131
8.96805
8.65186
8.31713
7.95642
7.55933
7.11083
6.58851
5.95817
5.16755
4.14005
2.7788
1.01676
9.87773
9.63202
9.38264
9.1268
8.86111
8.58118
8.28098
7.95184
7.58056
7.14609
6.61319
5.92031
4.95802
3.54001
1.4163
9.90043
9.70055
9.49844
9.29237
9.08024
8.85928
8.62563
8.37359
8.09413
7.77201
7.37929
6.86013
6.09243
4.79126
2.30812
9.92362
9.77064
9.61699
9.46215
9.30548
9.14617
8.98304
8.81436
8.63731
8.44691
8.23315
7.97251
7.59729
6.86329
4.68125
9.94696
9.84119
9.73635
9.63317
9.53255
9.43569
9.34428
9.26091
9.18973
9.138
9.11954
9.16441
9.35124
9.94088
12.0408
9.97009
9.91108
9.85455
9.80241
9.757
9.72139
9.69991
9.69895
9.72862
9.80595
9.96189
10.2577
10.8254
11.9696
14.3761
9.99266
9.97925
9.9697
9.96696
9.97461
9.99727
10.0413
10.1157
10.2344
10.4193
10.7071
11.162
11.8992
13.1216
15.1438
0.234946
0.421223
0.502529
0.532774
0.533293
0.514585
0.482646
0.441243
0.392912
0.339442
0.282153
0.222053
0.159943
0.0964825
0.0322454
0.126081
0.288699
0.380042
0.425141
0.439958
0.434135
0.413713
0.382673
0.343768
0.298976
0.249776
0.197312
0.1425
0.0861074
0.0288019
0.0793999
0.205669
0.289665
0.338534
0.360954
0.363819
0.352149
0.329563
0.29871
0.261569
0.219664
0.174198
0.126155
0.0763654
0.0255655
0.0553086
0.151992
0.22368
0.270291
0.295526
0.303593
0.298162
0.282192
0.258014
0.227469
0.192023
0.152873
0.11102
0.0673247
0.0225587
0.0408932
0.115673
0.175107
0.216889
0.242019
0.252738
0.251491
0.240517
0.22174
0.196769
0.166952
0.133425
0.0971635
0.0590269
0.0197956
0.031343
0.0900097
0.13879
0.175049
0.198518
0.210191
0.211572
0.20426
0.189763
0.169433
0.144456
0.115874
0.0846083
0.051489
0.0172824
0.0245836
0.0712113
0.111167
0.142091
0.163205
0.174789
0.177688
0.172991
0.161837
0.145322
0.124462
0.100186
0.0733396
0.0447055
0.0150178
0.0195875
0.0570452
0.0898167
0.115943
0.134511
0.145416
0.149078
0.146204
0.137631
0.124227
0.106841
0.0862814
0.0633118
0.0386533
0.0129948
0.0157838
0.0461329
0.0730797
0.0950434
0.111136
0.121072
0.125005
0.123375
0.11678
0.105896
0.0914215
0.0740498
0.0544564
0.0332952
0.0112015
0.012826
0.0375828
0.0598027
0.0782201
0.0920361
0.100894
0.104794
0.103991
0.0989064
0.0900578
0.0780133
0.0633605
0.0466893
0.0285843
0.00962303
0.0104898
0.0307942
0.0491658
0.0645913
0.0763784
0.0841594
0.0878488
0.0875806
0.0836455
0.076438
0.0664158
0.0540722
0.0399173
0.0244679
0.00824219
0.00862237
0.0253474
0.0405743
0.0534888
0.0635019
0.0702651
0.0736508
0.0737155
0.0706564
0.064772
0.0564299
0.0460413
0.034044
0.0208904
0.00704091
0.00711577
0.0209409
0.0335883
0.0444005
0.0528818
0.0587156
0.0617586
0.0620191
0.0596285
0.0548123
0.0478647
0.0391272
0.0289732
0.017796
0.00600088
0.00589132
0.0173521
0.0278763
0.0369307
0.0440997
0.0491035
0.051798
0.0521632
0.0502845
0.0463323
0.0405419
0.0331964
0.0246127
0.0151306
0.0051043
0.00489034
0.0144135
0.0231849
0.0307698
0.0368209
0.0410947
0.0434546
0.043865
0.0423801
0.0391285
0.0342987
0.0281251
0.0208759
0.0128431
0.00433423
0.00406819
0.0119967
0.0193172
0.0256736
0.0307761
0.0344147
0.0364644
0.0368827
0.0357021
0.0330202
0.0289884
0.0238006
0.0176831
0.0108859
0.00367496
0.00339033
0.0100021
0.0161189
0.021448
0.0257475
0.0288378
0.030607
0.0310103
0.0300663
0.0278491
0.0244807
0.0201214
0.0149621
0.00921611
0.00311214
0.00282972
0.00835114
0.0134675
0.0179372
0.0215584
0.0241781
0.0256977
0.0260734
0.0253144
0.0234774
0.0206608
0.0169976
0.0126484
0.0077948
0.00263284
0.00236492
0.00698143
0.0112649
0.0150155
0.0180646
0.0202823
0.0215825
0.0219243
0.0213108
0.0197856
0.0174286
0.01435
0.0106849
0.00658755
0.00222555
0.00197879
0.00584293
0.00943222
0.0125809
0.015148
0.0170233
0.0181326
0.0184384
0.01794
0.0166714
0.0146974
0.0121095
0.00902148
0.00556404
0.00188011
0.00165752
0.00489526
0.00790542
0.0105502
0.0127115
0.0142963
0.0152405
0.0155107
0.0151041
0.0140469
0.0123923
0.0102163
0.00761452
0.00469776
0.00158765
0.00138991
0.00410559
0.00663228
0.00885515
0.0106752
0.0120139
0.0128164
0.013053
0.0127197
0.0118373
0.0104491
0.0086186
0.00642624
0.00396572
0.00134043
0.00116684
0.00344713
0.00557006
0.00743974
0.00897313
0.0101039
0.0107851
0.0109909
0.0107166
0.00997874
0.00881293
0.00727218
0.00542412
0.00334807
0.00113179
0.000980824
0.00289793
0.00468366
0.00625778
0.00755056
0.00850595
0.00908393
0.00926195
0.0090354
0.00841728
0.00743707
0.00613909
0.00458029
0.00282776
0.000956002
0.000825732
0.00243993
0.00394416
0.00527115
0.00636223
0.00717001
0.00766041
0.00781391
0.00762603
0.0071072
0.00628183
0.00518708
0.00387094
0.00239023
0.000808151
0.000696513
0.00205827
0.00332772
0.00444831
0.00537057
0.0060544
0.00647079
0.00660286
0.00644643
0.00600991
0.00531362
0.00438875
0.00327586
0.00202306
0.000684059
0.000589003
0.00174068
0.00281463
0.00376315
0.00454443
0.00512448
0.00547854
0.00559209
0.00546129
0.00509296
0.00450409
0.00372096
0.00277789
0.00171574
0.000580182