/*--------------------------------*- C++ -*----------------------------------*\
| =========                 |                                                 |
| \\      /  F ield         | OpenFOAM: The Open Source CFD Toolbox           |
|  \\    /   O peration     | Version:  5.x                                   |
|   \\  /    A nd           | Web:      www.OpenFOAM.org                      |
|    \\/     M anipulation  |                                                 |
\*---------------------------------------------------------------------------*/
FoamFile
{
    version     2.0;
    format      ascii;
    class       volScalarField;
    location    "11.2";
    object      gradTy;
}
// * * * * * * * * * * * * * * * * * * * * * * * * * * * * * * * * * * * * * //

dimensions      [0 -1 0 1 0 0 0];

internalField   nonuniform List<scalar> 
6300
(
1014.57
1043.91
1073.79
1104.58
1136.62
1170.21
1205.65
1243.16
1282.93
1325.05
1369.53
1416.3
1465.17
1515.84
1567.94
-0.276309
-0.824386
-1.35842
-1.86771
-2.3397
-2.75948
-3.10963
-3.37061
-3.52185
-3.5436
-3.41976
-3.14126
-2.70945
-2.1386
-1.45622
-0.465574
-1.3896
-2.29155
-3.15435
-3.95759
-4.67655
-5.2818
-5.7396
-6.01349
-6.06752
-5.87109
-5.40535
-4.66984
-3.68792
-2.50816
-0.661962
-1.9769
-3.26382
-4.50052
-5.6597
-6.70727
-7.60136
-8.2924
-8.7249
-8.84179
-8.59166
-7.93909
-6.87656
-5.43498
-3.68816
-0.867324
-2.59219
-4.28627
-5.9242
-7.47339
-8.89143
-10.1239
-11.1037
-11.7519
-11.983
-11.7146
-10.8827
-9.46228
-7.48725
-5.06269
-1.08245
-3.23824
-5.36483
-7.43652
-9.41815
-11.261
-12.8991
-14.2464
-15.1958
-15.6236
-15.4008
-14.4148
-12.6024
-9.98889
-6.71736
-1.3067
-3.91347
-6.49823
-9.03887
-11.5016
-13.8352
-15.9651
-17.7867
-19.161
-19.9147
-19.8502
-18.7731
-16.5435
-13.1485
-8.77233
-1.53754
-4.61068
-7.67569
-10.719
-13.7139
-16.6131
-19.3392
-21.7742
-23.7468
-25.0238
-25.3118
-24.2836
-21.65
-17.289
-11.4098
-1.77029
-5.31596
-8.87474
-12.4475
-16.0219
-19.5637
-23.0043
-26.2237
-29.0278
-31.1217
-32.0893
-31.3993
-28.4837
-22.9476
-14.9338
-1.99791
-6.00809
-10.0597
-14.1742
-18.3624
-22.6153
-26.8903
-31.0884
-35.0186
-38.3457
-40.524
-40.7403
-37.9375
-31.084
-19.9129
-2.21117
-6.65876
-11.1815
-15.8272
-20.638
-25.6445
-30.8528
-36.2207
-41.6122
-46.7179
-50.9205
-53.1002
-51.4419
-43.5379
-27.5791
-2.39914
-7.23417
-12.1804
-17.3148
-22.7177
-28.4716
-34.6556
-41.3288
-48.4911
-55.9927
-63.3395
-69.2975
-71.1915
-64.0465
-41.1429
-2.55032
-7.69831
-12.991
-18.5337
-24.4461
-30.8683
-37.9687
-45.9475
-55.0302
-65.4219
-77.1466
-89.5583
-99.9793
-100.313
-70.899
-2.65412
-8.01769
-13.5513
-19.3829
-25.6643
-32.5867
-40.403
-49.4617
-60.2596
-73.5174
-90.266
-111.809
-138.853
-166.327
-156.944
-2.70258
-8.1669
-13.8137
-19.782
-26.2411
-33.4107
-41.5943
-51.2363
-63.0284
-78.1215
-98.59
-128.556
-177.297
-269.194
-481.295
1616.58
1661.14
1705.74
1750.07
1793.84
1836.79
1878.67
1919.26
1958.39
1995.9
2031.67
2065.6
2097.62
2127.66
2155.68
2181.65
2205.55
2227.37
2247.1
2264.76
2280.34
2293.86
2305.35
2314.82
2322.31
2327.84
2331.45
2333.18
2333.06
2331.13
2327.43
2322
2314.89
2306.12
2295.74
2283.8
2270.32
2255.35
2238.92
2221.08
2201.86
2181.3
2159.45
2136.34
2112.02
2086.51
2059.87
2032.13
2003.32
1973.48
1942.63
1910.81
1878.04
1844.35
1809.76
1774.31
1738.02
1700.92
1663.05
1624.44
1585.12
1545.13
1504.5
1463.28
1421.5
1379.21
1336.43
1293.22
1249.63
1205.71
1161.52
1117.13
1072.62
1028.07
983.591
939.27
895.219
851.551
808.38
765.822
723.991
682.998
642.949
603.942
566.067
529.402
494.012
459.947
427.24
395.908
-0.763671
-0.111419
0.537997
1.16167
1.74116
2.26354
2.72153
3.11298
3.4398
3.70675
3.92028
4.08747
4.21527
4.31
4.37706
4.42086
4.44493
4.452
4.44423
4.42337
4.39087
4.34805
4.2961
4.23617
4.16936
4.09677
4.01946
3.93844
3.85474
3.76931
3.683
3.59655
3.51054
3.42532
3.34099
3.25744
3.17435
3.09128
3.00778
2.92349
2.83826
2.75224
2.6659
2.57999
2.49549
2.41347
2.33491
2.26053
2.1907
2.12528
2.06368
2.00484
1.94743
1.88996
1.83104
1.76956
1.70479
1.63648
1.56483
1.49034
1.41365
1.33528
1.25542
1.17372
1.08918
1.0001
0.904217
0.798869
0.681281
0.548896
0.399689
0.232446
0.0469437
-0.155981
-0.374467
-0.605772
-0.846472
-1.09269
-1.34031
-1.58511
-1.82289
-2.04941
-2.26045
-2.4517
-2.61884
-2.75761
-2.86411
-2.93511
-2.96849
-2.96353
-1.30918
-0.181555
0.937283
2.00614
2.99261
3.87489
4.64174
5.29116
5.82828
6.26295
6.60753
6.87509
7.07801
7.22724
7.33191
7.39929
7.43499
7.4433
7.42756
7.39042
7.33417
7.26086
7.17244
7.07078
6.95771
6.83503
6.70451
6.56789
6.42687
6.28309
6.13806
5.99309
5.84918
5.70696
5.56661
5.42786
5.29007
5.15236
5.01376
4.87351
4.73124
4.58714
4.44201
4.29728
4.15477
4.01653
3.88443
3.75992
3.64373
3.53569
3.43468
3.33878
3.24543
3.15187
3.05548
2.95416
2.84661
2.73248
2.61228
2.48714
2.3585
2.22761
2.09509
1.96054
1.82233
1.6775
1.52194
1.35079
1.15889
0.941472
0.694735
0.416361
0.105862
-0.235302
-0.60381
-0.994769
-1.40211
-1.81905
-2.23847
-2.65322
-3.05623
-3.44055
-3.79914
-4.12481
-4.41014
-4.64766
-4.83027
-4.952
-5.00873
-4.99901
-1.90863
-0.238742
1.40888
2.96959
4.3945
5.65289
6.73149
7.63154
8.36479
8.94938
9.40626
9.75632
10.0186
10.2092
10.341
10.4239
10.4651
10.4699
10.4423
10.3856
10.3027
10.1961
10.0685
9.92248
9.76055
9.58524
9.39901
9.20433
9.00364
8.79935
8.59373
8.38877
8.18607
7.98658
7.79058
7.59757
7.40637
7.21536
7.02277
6.8271
6.62752
6.42414
6.21821
6.01199
5.80856
5.61136
5.42363
5.24794
5.08563
4.93654
4.79893
4.66959
4.5443
4.41842
4.28756
4.14824
3.99844
3.83775
3.66732
3.48947
3.30707
3.12275
2.93812
2.75309
2.56545
2.37075
2.16254
1.93296
1.67362
1.37664
1.03569
0.646882
0.20927
-0.274922
-0.800511
-1.35987
-1.94365
-2.54156
-3.14309
-3.73795
-4.31627
-4.86849
-5.38501
-5.8558
-6.2701
-6.61656
-6.88394
-7.06228
-7.1445
-7.1278
-2.5832
-0.263903
2.0056
4.12858
6.03615
7.68979
9.07841
10.2122
11.1155
11.8198
12.3589
12.7641
13.0625
13.276
13.4208
13.5087
13.5477
13.5431
13.4991
13.4188
13.3053
13.1617
12.9913
12.7972
12.5829
12.3514
12.1059
11.8496
11.5858
11.3177
11.0486
10.7814
10.5185
10.2614
10.0105
9.76489
9.52264
9.28088
9.03645
8.78657
8.52949
8.26508
7.99506
7.72294
7.45364
7.19277
6.94576
6.71694
6.50873
6.32113
6.15149
5.9948
5.84427
5.69238
5.53202
5.35766
5.16618
4.95726
4.73326
4.49858
4.25863
4.01856
3.78193
3.5496
3.31893
3.08365
2.83411
2.55818
2.24274
1.87529
1.44576
0.947856
0.379933
-0.25475
-0.948407
-1.68963
-2.46465
-3.25869
-4.05714
-4.84633
-5.61373
-6.34768
-7.03659
-7.66797
-8.22758
-8.69922
-9.06569
-9.31084
-9.42258
-9.39561
-3.35146
-0.217149
2.81351
5.59797
8.04367
10.1086
11.7925
13.1251
14.1529
14.9288
15.5048
15.926
16.2293
16.442
16.583
16.6645
16.6934
16.6738
16.6086
16.5003
16.3518
16.1666
15.9486
15.7019
15.4304
15.1382
14.8289
14.5064
14.1747
13.8382
13.5014
13.1686
12.8433
12.528
12.2234
11.9281
11.6388
11.3509
11.0586
10.757
10.4427
10.1147
9.77556
9.43048
9.08722
8.75485
8.44231
8.15687
7.90279
7.68045
7.48601
7.31171
7.14678
6.9791
6.79721
6.59228
6.35956
6.09902
5.8151
5.51577
5.21085
4.9099
4.62006
4.34416
4.07953
3.81755
3.54408
3.24074
2.88715
2.46374
1.95468
1.35003
0.647095
-0.149295
-1.02745
-1.97038
-2.95792
-3.96912
-4.9842
-5.98576
-6.95906
-7.89143
-8.77072
-9.58323
-10.3115
-10.9331
-11.4219
-11.7513
-11.9002
-11.8584
-4.22684
-0.0211596
3.9759
7.55508
10.5994
13.0756
15.0125
16.4768
17.5526
18.3258
18.8732
19.2578
19.5264
19.7111
19.8311
19.8959
19.9088
19.8702
19.7802
19.6396
19.4512
19.2188
18.9473
18.6421
18.308
17.9496
17.571
17.1764
16.7707
16.3593
15.9486
15.5449
15.1538
14.7794
14.4229
14.0826
13.7534
13.4272
13.0945
12.746
12.3755
11.9807
11.5647
11.1355
10.7053
10.2885
9.90002
9.55182
9.25132
8.99978
8.79174
8.6153
8.45344
8.28649
8.09576
7.86709
7.5932
7.27462
6.91932
6.54122
6.15754
5.78545
5.4383
5.12269
4.83649
4.5682
4.29726
3.99586
3.63226
3.17572
2.60142
1.8939
1.04901
0.0740839
-1.01305
-2.18671
-3.41693
-4.67377
-5.93052
-7.16566
-8.36312
-9.51137
-10.6008
-11.6196
-12.5487
-13.358
-14.0073
-14.4516
-14.6521
-14.5891
-5.20797
0.475102
5.73978
10.2821
13.9727
16.8186
18.9121
20.3869
21.3874
22.0469
22.4755
22.7557
22.9436
23.0726
23.1578
23.2012
23.1976
23.14
23.0236
22.8471
22.6129
22.3263
21.9939
21.623
21.2198
20.7892
20.3352
19.8617
19.3739
18.8787
18.3848
17.9021
17.4397
17.0041
16.5983
16.2204
15.8627
15.5123
15.1522
14.7662
14.3425
13.8766
13.3723
12.8415
12.3033
11.781
11.2991
10.8775
10.5288
10.256
10.0515
9.89743
9.76696
9.62766
9.44849
9.20661
8.89076
8.50268
8.05597
7.57431
7.08718
6.62474
6.21081
5.85854
5.56737
5.32239
5.09405
4.84027
4.51096
4.05706
3.43976
2.63538
1.63797
0.458871
-0.874229
-2.32171
-3.83772
-5.37863
-6.90802
-8.39984
-9.83804
-11.216
-12.5325
-13.7851
-14.9582
-16.0132
-16.8877
-17.5028
-17.7832
-17.6896
-6.25413
1.57349
8.54337
14.2349
18.5619
21.6444
23.7016
24.9788
25.7116
26.0992
26.2899
26.385
26.4441
26.4958
26.543
26.5726
26.5623
26.4929
26.3519
26.136
25.8486
25.4978
25.0943
24.6486
24.1692
23.6608
23.1257
22.566
21.9861
21.3943
20.8033
20.2287
19.6851
19.1842
18.732
18.3275
17.9602
17.6095
17.2458
16.839
16.3688
15.8263
15.2166
14.5567
13.8768
13.2141
12.61
12.0969
11.6959
11.4124
11.2373
11.1444
11.092
11.0251
10.8904
10.6515
10.2913
9.81414
9.24192
8.61427
7.98031
7.39324
6.89362
6.50555
6.2309
6.05182
5.92668
5.7927
5.56835
5.17299
4.54683
3.65421
2.48795
1.06486
-0.57122
-2.35854
-4.22308
-6.10047
-7.93998
-9.71151
-11.4
-13.0093
-14.5563
-16.0651
-17.5381
-18.9281
-20.1416
-21.0358
-21.453
-21.3115
-7.20984
3.90653
13.1872
20.1517
24.9425
27.9464
29.6138
30.3541
30.5324
30.4342
30.2411
30.0651
29.9543
29.9247
29.9527
30.0006
30.0113
29.948
29.7871
29.5271
29.1744
28.7445
28.2544
27.7219
27.1595
26.5699
25.9506
25.2985
24.6143
23.9081
23.1973
22.5097
21.868
21.2935
20.796
20.3803
20.0329
19.7248
19.4005
19.0024
18.4986
17.872
17.1324
16.3002
15.4246
14.5624
13.7892
13.1541
12.6933
12.412
12.3043
12.3325
12.4374
12.5196
12.4818
12.2708
11.8595
11.2621
10.5073
9.66293
8.80554
8.03544
7.41543
6.98888
6.75646
6.70324
6.77174
6.87493
6.87169
6.62101
6.03734
5.06686
3.70755
1.97736
-0.0505607
-2.28431
-4.59004
-6.87694
-9.06986
-11.1428
-13.0758
-14.8926
-16.6347
-18.3968
-20.2372
-22.0973
-23.8551
-25.2554
-25.9272
-25.6976
-7.54385
8.88277
21.1658
29.1982
33.8959
36.1731
36.8614
36.5396
35.752
34.9067
34.1685
33.6525
33.3487
33.2713
33.3349
33.483
33.5679
33.5446
33.3659
33.0531
32.6123
32.0794
31.4768
30.8394
30.1903
29.5235
28.8239
28.0788
27.2756
26.43
25.5593
24.7263
23.9557
23.2935
22.7437
22.3364
22.0503
21.8652
21.6628
21.3197
20.8066
20.082
19.1829
18.1078
16.9547
15.7843
14.7709
13.9618
13.4338
13.1633
13.177
13.4116
13.8167
14.1885
14.324
14.1795
13.6973
12.938
11.9029
10.7317
9.50637
8.46276
7.65991
7.19387
7.02513
7.18051
7.56793
8.11146
8.53233
8.54953
8.08579
7.04036
5.46218
3.31953
0.767428
-2.10549
-4.98317
-7.78784
-10.3716
-12.7748
-14.9182
-16.8824
-18.6836
-20.6151
-22.907
-25.4129
-28.0829
-30.5233
-31.6987
-31.2637
-5.30443
19.8259
35.2655
43.0462
46.3337
46.6866
45.5623
43.3945
41.0535
39.2239
37.7749
36.933
36.4158
36.414
36.5941
37.0554
37.2793
37.3637
37.1367
36.7624
36.1814
35.5136
34.7479
33.9724
33.2455
32.5229
31.7615
30.9418
29.9966
28.987
27.8657
26.8518
25.8863
25.1306
24.485
24.1169
23.9212
24.0296
24.1266
23.881
23.4181
22.5424
21.4861
20.0268
18.5089
16.7793
15.4575
14.3639
13.8025
13.5047
13.7307
14.2445
15.2433
16.197
16.5689
16.574
15.9334
15.0105
13.4939
11.8777
9.94507
8.54285
7.41891
6.97028
6.82663
7.32322
8.13892
9.52423
10.7739
11.1702
10.9715
9.78067
8.02928
5.25103
2.04712
-1.92005
-5.48164
-9.01701
-11.9333
-14.781
-17.0186
-19.107
-20.5449
-22.3141
-25.2688
-28.4918
-32.641
-37.6124
-39.789
-38.763
7.66274
44.7234
60.3935
63.3642
62.9968
59.3268
55.7649
50.498
45.6177
42.992
40.5062
39.7449
38.7401
39.2938
39.4473
40.9688
41.1904
41.6303
41.1187
40.7682
39.8744
39.0876
38.0324
37.0344
36.2938
35.577
34.7821
33.9845
32.8096
31.7037
30.0168
28.9067
27.514
26.8082
25.8261
25.6484
25.3535
26.2097
27.0831
26.7541
26.6235
25.2623
24.3688
22.0295
20.3671
17.1867
15.8148
13.9992
13.7913
13.0912
13.8697
14.3785
16.7344
19.0427
19.3413
19.898
18.5754
17.9375
15.228
13.4788
9.61973
8.2219
6.20517
6.30724
5.70591
7.00616
7.88941
11.132
14.244
14.6474
15.2858
13.3279
12.0748
7.79527
4.42576
-2.31877
-6.01791
-11.1376
-13.5939
-17.6657
-19.3338
-22.2682
-21.9291
-22.3056
-27.2438
-30.237
-36.0148
-48.7255
-52.4907
-49.5937
70.1066
100.422
103.807
88.4879
84.4146
71.8104
68.4224
57.0442
46.9351
46.5585
40.7543
42.9074
38.8199
42.7497
40.3304
46.7541
44.7869
47.2667
44.8689
45.556
43.4133
43.048
41.2345
39.7258
39.3075
38.7439
37.8067
37.5705
35.5233
35.2572
31.3375
31.3689
28.1528
28.8838
26.0091
27.3491
25.1284
28.3652
31.7711
29.3421
31.6011
27.3089
29.3338
23.0578
24.4115
14.9904
16.8114
11.3197
14.4895
10.5491
14.3976
11.8529
18.2945
24.7828
21.7426
25.9283
20.2318
23.848
15.5797
18.1185
5.75076
8.79267
1.9409
6.65762
1.8474
7.29007
4.2428
12.9284
21.6147
17.7864
23.3388
15.8605
20.4788
9.0294
11.6648
-7.10237
-4.50812
-17.0929
-12.9279
-24.0109
-19.8251
-30.1426
-22.2823
-15.7277
-32.0192
-27.9715
-29.4048
-72.7191
-74.7851
-66.3382
386.125
194.897
174.152
97.4162
118.115
71.0208
92.584
61.7615
34.2362
57.9392
29.5424
55.0548
27.3534
55.3468
28.4783
64.6204
41.9783
59.9252
44.1748
54.4171
44.3912
49.092
43.9962
40.8453
42.529
42.447
39.8202
43.7627
35.6708
44.0703
26.9671
38.5059
23.1063
36.1502
20.1215
34.1757
17.0434
30.2756
44.8602
25.1778
46.0109
20.2579
46.2506
13.0983
43.9705
-3.39548
28.3374
-3.83315
25.4254
-3.20981
24.1309
-3.61377
19.7865
44.2428
13.7376
46.1879
8.47728
46.8713
0.368573
44.2229
-20.3087
23.6098
-18.9825
20.7263
-16.7757
19.799
-16.2996
14.7234
47.0058
7.41662
50.1554
0.97362
52.0197
-10.019
49.723
-42.6466
18.8593
-47.1679
9.69525
-52.3431
0.568301
-64.193
-20.7549
23.7485
-66.0829
-17.8131
37.5141
-156.11
-112.217
-94.3174
362.952
328.945
296.816
266.467
237.781
210.62
184.839
160.283
136.8
114.235
92.4376
71.2613
50.563
30.2032
10.0454
-2.9169
-2.81606
-2.67225
-2.49414
-2.29092
-2.0713
-1.84277
-1.61126
-1.38107
-1.15492
-0.93421
-0.719253
-0.50954
-0.303965
-0.101021
-4.91693
-4.74111
-4.49181
-4.18478
-3.83645
-3.46209
-3.07462
-2.68402
-2.29733
-1.91885
-1.55064
-1.19294
-0.844645
-0.503687
-0.167368
-7.00315
-6.73954
-6.36902
-5.91665
-5.40795
-4.86595
-4.30954
-3.75284
-3.20533
-2.67249
-2.15654
-1.65721
-1.1724
-0.698764
-0.232127
-9.21686
-8.84476
-8.328
-7.70478
-7.01265
-6.28415
-5.54472
-4.81242
-4.09862
-3.4092
-2.74579
-2.10693
-1.48897
-0.886831
-0.294503
-11.6075
-11.0945
-10.3933
-9.56168
-8.65362
-7.71317
-6.77268
-5.85342
-4.96747
-4.11985
-3.31046
-2.53572
-1.78971
-1.06507
-0.353551
-14.2373
-13.5322
-12.5888
-11.4949
-10.3268
-9.14212
-7.9793
-6.86104
-5.79794
-4.7922
-3.84043
-2.93573
-2.06906
-1.23018
-0.408174
-17.1881
-16.2081
-14.9345
-13.5021
-12.0166
-10.549
-9.14126
-7.81338
-6.57096
-5.41052
-4.32329
-3.29767
-2.3206
-1.37839
-0.457136
-20.5719
-19.1773
-17.4388
-15.5624
-13.6881
-11.896
-10.2232
-8.68017
-7.26192
-5.95553
-4.74449
-3.61102
-2.53725
-1.50563
-0.499105
-24.5433
-22.49
-20.0807
-17.6206
-15.2774
-13.1233
-11.1752
-9.42205
-7.84092
-6.40513
-5.08805
-3.86463
-2.71169
-1.60778
-0.532746
-29.3082
-26.1584
-22.7733
-19.5614
-16.6773
-14.1446
-11.9321
-9.99179
-8.27446
-6.73591
-5.33789
-4.04771
-2.83707
-1.68101
-0.556842
-35.0891
-30.0619
-25.292
-21.1743
-17.7257
-14.8454
-12.4168
-10.3383
-8.52912
-6.92605
-5.47984
-4.15117
-2.90782
-1.72234
-0.570446
-41.8889
-33.7078
-27.1584
-22.1178
-18.2054
-15.0943
-12.5511
-10.4155
-8.5775
-6.95925
-5.50416
-4.16928
-2.92064
-1.73007
-0.573036
-48.464
-35.7216
-27.5154
-21.9329
-17.8835
-14.7753
-12.2775
-10.1951
-8.40595
-6.82919
-5.40819
-4.10109
-2.87535
-1.70425
-0.564652
-48.2816
-33.1987
-25.2484
-20.2145
-16.62
-13.8456
-11.5885
-9.68125
-8.02189
-6.54329
-5.19823
-3.9515
-2.77538
-1.6469
-0.545963
-2.69733
-8.15048
-13.7841
-19.736
-26.1738
-33.3159
-41.4647
-51.0646
-62.8118
-77.8765
-98.3992
-128.72
-178.765
-274.352
-490.824
-2.64774
-7.99734
-13.5134
-19.3218
-25.5729
-32.458
-40.2336
-49.2596
-60.0633
-73.4422
-90.6152
-113.331
-143.206
-175.953
-166.485
-2.56057
-7.7285
-13.0397
-18.6
-24.5315
-30.9816
-38.1338
-46.2199
-55.5261
-66.3724
-78.981
-92.9713
-105.653
-106.869
-66.7991
-2.44089
-7.36008
-12.393
-17.6203
-23.1297
-29.0172
-35.3853
-42.3324
-49.919
-58.078
-66.3864
-73.5193
-76.0605
-66.4539
-32.0629
-2.29521
-6.91263
-11.6111
-16.4446
-21.4652
-26.7189
-32.2346
-38.0004
-43.914
-49.6796
-54.6076
-57.255
-54.9036
-43.2504
-17.9754
-2.13076
-6.40883
-10.7355
-15.1388
-19.6387
-24.2384
-28.9097
-33.5656
-38.0116
-41.8626
-44.4122
-44.4618
-40.2056
-29.5061
-11.3017
-1.95479
-5.87125
-9.80644
-13.7659
-17.7428
-21.708
-25.5954
-29.2762
-32.5219
-34.9489
-35.9525
-34.6587
-29.9816
-20.9733
-7.68272
-1.77403
-5.32062
-8.86048
-12.3808
-15.8547
-19.2316
-22.4242
-25.2888
-27.6005
-29.0233
-29.0881
-27.2047
-22.7652
-15.414
-5.5046
-1.59426
-4.77461
-7.928
-11.0279
-14.0338
-16.8832
-19.4806
-21.6852
-23.2961
-24.0405
-23.5763
-21.5256
-17.5707
-11.6311
-4.09017
-1.42016
-4.2473
-7.03258
-9.74019
-12.3217
-14.7095
-16.8096
-18.4938
-19.5931
-19.897
-19.1659
-17.1686
-13.7542
-8.96028
-3.11973
-1.2552
-3.749
-6.19105
-8.53998
-10.7439
-12.7354
-14.4274
-15.7086
-16.4424
-16.4719
-15.6348
-13.7956
-10.8957
-7.01616
-2.42628
-1.10174
-3.28663
-5.41412
-7.44042
-9.31339
-10.9694
-12.3304
-13.3033
-13.7807
-13.6485
-12.7996
-11.1591
-8.7173
-5.5653
-1.91524
-0.961171
-2.86408
-4.70743
-6.44728
-8.03354
-9.40795
-10.5029
-11.2419
-11.5424
-11.3226
-10.514
-9.07889
-7.0321
-4.46026
-1.52947
-0.834089
-2.48288
-4.07257
-5.56074
-6.90073
-8.04051
-8.92257
-9.48506
-9.66521
-9.40552
-8.66334
-7.42343
-5.71145
-3.60448
-1.23266
-0.720465
-2.14269
-3.50817
-4.77707
-5.90688
-6.85198
-7.56404
-7.99361
-8.0934
-7.82343
-7.15829
-6.09573
-4.66506
-2.93258
-1.00079
-0.619826
-1.84189
-3.0108
-4.08995
-5.04126
-5.82523
-6.4016
-6.73111
-6.7783
-6.51571
-5.92916
-5.0236
-3.82823
-2.39907
-0.817383
-0.531397
-1.57798
-2.57573
-3.49157
-4.29182
-4.94258
-5.41054
-5.66461
-5.67828
-5.4329
-4.92151
-4.1527
-3.15371
-1.97147
-0.670822
-0.454224
-1.34797
-2.19754
-2.97342
-3.64615
-4.18683
-4.56798
-4.765
-4.75809
-4.53478
-4.09258
-3.44162
-2.60641
-1.62609
-0.552724
-0.38726
-1.14861
-1.87051
-2.52688
-3.09215
-3.54182
-3.85325
-4.00696
-3.98816
-3.78861
-3.40858
-2.85847
-2.15985
-1.34531
-0.456898
-0.329437
-0.976643
-1.58897
-2.14358
-2.61842
-2.99277
-3.24802
-3.36869
-3.3437
-3.16776
-2.84267
-2.37843
-1.79378
-1.11582
-0.378697
-0.279713
-0.828893
-1.34749
-1.81565
-2.21445
-2.52641
-2.73621
-2.83154
-2.80406
-2.65045
-2.37335
-1.982
-1.4925
-0.927397
-0.314573
-0.237104
-0.702376
-1.14102
-1.53588
-1.87077
-2.13098
-2.30388
-2.37964
-2.35197
-2.21889
-1.98335
-1.6537
-1.2437
-0.772111
-0.261779
-0.200697
-0.594346
-0.964945
-1.29774
-1.57893
-1.79615
-1.93899
-1.99956
-1.97307
-1.85845
-1.65869
-1.3812
-1.03766
-0.643722
-0.218166
-0.169666
-0.502319
-0.815118
-1.09542
-1.3315
-1.51297
-1.63122
-1.6799
-1.65537
-1.55711
-1.38801
-1.15454
-0.866618
-0.537284
-0.182036
-0.14327
-0.424077
-0.687853
-0.923801
-1.12198
-1.27367
-1.37175
-1.41108
-1.38886
-1.30494
-1.16201
-0.965676
-0.724328
-0.448839
-0.15203
-0.120854
-0.357658
-0.579906
-0.778405
-0.94474
-1.07159
-1.15307
-1.18499
-1.16519
-1.09375
-0.973099
-0.808067
-0.605741
-0.375196
-0.127058
-0.101842
-0.301346
-0.488446
-0.655337
-0.794908
-0.901022
-0.968783
-0.994794
-0.977372
-0.916717
-0.814998
-0.676348
-0.506745
-0.313767
-0.106236
-0.0857326
-0.253644
-0.411016
-0.551237
-0.668305
-0.757076
-0.813485
-0.834756
-0.819571
-0.768195
-0.682536
-0.56612
-0.423978
-0.262442
-0.0888448
-0.0720904
-0.213258
-0.345495
-0.463209
-0.561347
-0.635598
-0.682583
-0.700028
-0.686894
-0.643474
-0.571428
-0.473752
-0.354676
-0.21949
-0.0742948
-0.0605401
-0.179072
-0.290056
-0.388773
-0.470973
-0.533048
-0.57219
-0.586529
-0.575243
-0.538628
-0.478114
-0.39624
-0.296559
-0.183486
-0.0621015
-0.0507588
-0.150128
-0.243133
-0.325803
-0.394572
-0.44642
-0.479015
-0.490819
-0.481178
-0.450372
-0.399629
-0.331092
-0.247739
-0.153254
-0.0518647
-0.0424692
-0.125601
-0.203384
-0.272485
-0.329916
-0.373159
-0.400275
-0.409999
-0.401807
-0.375958
-0.333499
-0.276231
-0.206646
-0.127815
-0.0432524
-0.0354339
-0.104788
-0.169662
-0.227269
-0.275112
-0.311094
-0.33361
-0.341616
-0.334694
-0.313077
-0.277648
-0.229921
-0.171972
-0.106356
-0.0359885
-0.0294492
-0.0870856
-0.140987
-0.18883
-0.228541
-0.25838
-0.277017
-0.283597
-0.277784
-0.259783
-0.230337
-0.190708
-0.142622
-0.0881954
-0.0298418
-0.0243408
-0.0719763
-0.116516
-0.156038
-0.188825
-0.213441
-0.228794
-0.234182
-0.229337
-0.214434
-0.190095
-0.157366
-0.117673
-0.0727614
-0.0246185
-0.0199586
-0.0590162
-0.0955299
-0.127921
-0.154781
-0.174935
-0.187488
-0.191873
-0.187872
-0.175636
-0.155679
-0.128859
-0.096347
-0.0595708
-0.0201548
-0.0161734
-0.0478221
-0.0774057
-0.103643
-0.125394
-0.141704
-0.151854
-0.155385
-0.152124
-0.142198
-0.126026
-0.104304
-0.0779814
-0.0482128
-0.0163116
-0.0128727
-0.0380616
-0.0616046
-0.0824811
-0.0997826
-0.112752
-0.120815
-0.123611
-0.121005
-0.113098
-0.100226
-0.0829443
-0.062008
-0.0383354
-0.0129695
-0.00995825
-0.0294438
-0.0476548
-0.0638009
-0.0771793
-0.0872043
-0.0934337
-0.0955881
-0.093565
-0.0874442
-0.0774862
-0.0641218
-0.0479342
-0.0296335
-0.0100253
-0.00734301
-0.021711
-0.0351384
-0.0470422
-0.056904
-0.0642923
-0.0688812
-0.0704654
-0.06897
-0.0644546
-0.0571118
-0.0472594
-0.0353275
-0.0218394
-0.00738841
-0.00494854
-0.0146312
-0.0236797
-0.0317012
-0.0383461
-0.0433237
-0.0464146
-0.0474807
-0.0464717
-0.043428
-0.0384796
-0.0318407
-0.0238013
-0.0147137
-0.00497772
-0.00270292
-0.00799169
-0.0129342
-0.0173158
-0.0209457
-0.023665
-0.0253539
-0.0259367
-0.0253861
-0.0237238
-0.0210209
-0.0173945
-0.0130027
-0.0080382
-0.00271937
-0.000538586
-0.00159259
-0.00257802
-0.0034523
-0.00417746
-0.00472173
-0.00506096
-0.00517972
-0.00507211
-0.00474211
-0.00420355
-0.00347958
-0.00260176
-0.0016087
-0.000544286
0.00160966
0.00475891
0.00770097
0.0103076
0.0124652
0.0140792
0.0150789
0.0154201
0.0150874
0.0140948
0.0124851
0.0103285
0.00771915
0.00477125
0.00161403
0.00380655
0.0112542
0.0182128
0.0243794
0.0294851
0.0333065
0.0356758
0.0364878
0.0357051
0.03336
0.0295535
0.0244509
0.0182751
0.0112965
0.0038215
0.00611827
0.0180892
0.0292744
0.0391876
0.0473965
0.0535421
0.0573539
0.0586625
0.0574073
0.0536398
0.0475216
0.0393184
0.0293883
0.0181664
0.0061456
0.0086144
0.0254695
0.0412192
0.055179
0.0667405
0.0753978
0.0807697
0.0826171
0.0808538
0.0755514
0.0669372
0.0553847
0.0413983
0.025591
0.0086574
0.01137
0.0336172
0.0544067
0.0728355
0.0881006
0.0995342
0.106632
0.109078
0.106757
0.0997624
0.0883926
0.0731408
0.0546725
0.0337976
0.0114338
0.0144677
0.0427768
0.069233
0.0926882
0.112121
0.12668
0.135725
0.138849
0.135906
0.12701
0.112543
0.0931298
0.0696176
0.0430378
0.01456
0.0180003
0.0532227
0.0861429
0.115333
0.139524
0.157656
0.168927
0.172833
0.169185
0.158127
0.140127
0.115964
0.0866922
0.0535956
0.0181322
0.0220732
0.0652669
0.105642
0.14145
0.171134
0.193393
0.207244
0.212061
0.20761
0.194063
0.17199
0.142346
0.106422
0.0657964
0.0222605
0.0268075
0.0792678
0.128312
0.171818
0.207897
0.234968
0.251832
0.257722
0.25235
0.235916
0.20911
0.173087
0.129416
0.0800176
0.0270727
0.0323434
0.0956407
0.154826
0.207344
0.250915
0.28363
0.304037
0.311203
0.30477
0.28497
0.25263
0.209137
0.156387
0.0967006
0.0327184
0.0388441
0.114868
0.185968
0.24908
0.301469
0.340838
0.365433
0.374126
0.36647
0.342731
0.303892
0.251614
0.188174
0.116366
0.0393738
0.0465
0.137515
0.222655
0.298261
0.361062
0.408302
0.437871
0.448399
0.439334
0.410975
0.364483
0.301839
0.22577
0.13963
0.0472481
0.0555339
0.164241
0.26596
0.356334
0.431457
0.488034
0.523526
0.536276
0.525592
0.491808
0.436288
0.361386
0.270359
0.167227
0.0565901
0.0662064
0.19582
0.31714
0.424994
0.514727
0.582403
0.624971
0.64042
0.627888
0.587732
0.521548
0.432126
0.323351
0.200035
0.0676976
0.0788225
0.233155
0.377671
0.506234
0.613312
0.694203
0.745244
0.763991
0.749361
0.701726
0.62294
0.516303
0.386439
0.239106
0.0809279
0.0937387
0.277304
0.449276
0.602389
0.730076
0.826726
0.887936
0.910733
0.893748
0.837346
0.743668
0.616604
0.461655
0.285707
0.096711
0.11137
0.329503
0.533973
0.716197
0.868387
0.983852
1.0573
1.08509
1.0655
0.998844
0.887575
0.736265
0.55145
0.341367
0.115567
0.132201
0.391188
0.634113
0.850856
1.03219
1.17015
1.25835
1.29235
1.26993
1.19131
1.05928
0.879187
0.658787
0.407937
0.138125
0.156789
0.464025
0.752428
1.0101
1.22612
1.39099
1.49703
1.53878
1.51338
1.42086
1.26436
1.05009
0.787263
0.487673
0.165155
0.185781
0.549937
0.892081
1.19825
1.45555
1.65268
1.78034
1.83182
1.80341
1.69484
1.50953
1.25471
0.941262
0.583325
0.197593
0.219916
0.651129
1.05671
1.42032
1.72677
1.96258
2.11654
2.18033
2.14911
2.02209
1.80296
1.50003
1.12615
0.698275
0.236595
0.260033
0.770117
1.25048
1.68206
2.04703
2.32931
2.51535
2.59479
2.5613
2.4133
2.15457
1.79459
1.34853
0.836695
0.283589
0.30708
0.909739
1.47811
1.99006
2.42468
2.76286
2.98816
3.08766
3.053
2.88139
2.57647
2.14893
1.61656
1.00377
0.340352
0.362111
1.07317
1.7449
2.35176
2.86927
3.27478
3.5483
3.67366
3.63977
3.44201
3.08351
2.57605
1.94043
1.20599
0.409118
0.426283
1.26389
2.05673
2.77547
3.39162
3.87833
4.21131
4.37022
4.34031
4.11424
3.69396
3.09213
2.33291
1.45156
0.492712
0.500842
1.48568
2.42002
3.27039
4.00384
4.5886
4.99516
5.19787
5.17702
4.92131
4.43045
3.71749
2.81019
1.75094
0.594756
0.587095
1.74253
2.84159
3.84647
4.71927
5.42257
5.92053
6.18073
6.17679
5.89162
5.32114
4.47777
3.39295
2.11762
0.719941
0.686369
2.03851
3.32855
4.51425
5.55238
6.39909
7.01095
7.34697
7.3718
7.06002
6.40129
5.4057
4.10799
2.56923
0.874431
0.799942
2.37758
3.88794
5.28446
6.51837
7.53865
8.29286
8.72925
8.80051
8.46928
7.71531
6.54338
4.9904
3.12918
1.06646
0.928956
2.76336
4.52636
6.16754
7.63265
8.86291
9.7954
10.365
10.5087
10.172
9.31951
7.94562
6.08681
3.82905
1.30722
1.07429
3.1987
5.24933
7.17285
8.90996
10.3939
11.5499
12.2965
12.5502
12.233
11.2857
9.68454
7.46021
4.71228
1.61227
1.23639
3.68524
6.06054
8.30753
10.363
12.1525
13.5884
14.5703
14.9881
14.7315
13.7058
11.8562
9.19716
5.83999
2.00377
1.41511
4.22282
6.9608
9.57514
12.0007
14.1566
15.9423
17.2356
17.8942
17.7639
16.698
14.5898
11.4189
7.30031
2.51424
1.60944
4.80878
7.94686
10.9738
13.8255
16.4175
18.6379
20.3416
21.348
21.446
20.4138
18.0612
14.2986
9.22414
3.19302
1.81732
5.43724
9.01005
12.494
15.8307
18.9364
21.6921
23.9316
25.4324
25.9127
25.0464
22.5117
18.0892
11.8122
4.11824
2.03539
6.09839
10.1349
14.1163
17.996
21.6984
25.1046
28.0345
30.2253
31.3144
30.8376
28.2728
23.1676
15.3843
5.42014
2.25886
6.77788
11.2979
15.8092
20.2843
24.6657
28.8478
32.6503
35.7832
37.8032
38.0784
35.7979
30.1057
20.4707
7.3304
2.48142
7.45664
12.4668
17.527
22.6376
27.7714
32.8542
37.731
42.1136
45.5033
47.0937
45.6919
39.7816
27.991
10.2965
2.69535
8.11108
13.6008
19.2098
24.9744
30.9123
37.0034
43.1545
49.1331
54.4526
58.1866
58.7165
53.5406
39.611
15.2755
2.89188
8.71404
14.652
20.7845
27.1908
33.9464
41.1108
48.6976
56.61
64.5026
71.5038
75.703
73.3782
58.4568
24.5706
3.06172
9.23652
15.5679
22.1687
29.1643
36.6966
44.9244
54.0141
64.1001
75.1712
86.7662
97.2195
101.963
90.4722
44.4592
3.19587
9.65018
16.2966
23.2787
30.765
38.9634
48.1393
58.6382
70.9055
85.4752
102.821
122.7
141.819
146.461
94.143
3.28655
9.93034
16.7921
24.0384
31.8709
40.551
50.435
62.0339
76.1114
93.8508
117.114
148.709
191.729
242.004
238.248
3.32812
10.059
17.0206
24.3906
32.3881
41.3022
51.5395
63.7077
78.7737
98.3893
125.622
166.781
236.598
375.065
710.643
3.31784
10.0274
16.9653
24.307
32.2686
41.1342
51.3028
63.3686
78.2759
97.6375
124.456
164.952
233.792
371.242
707.4
3.25622
9.83719
16.6293
23.7928
31.5209
40.0612
49.7481
61.0556
74.6842
91.7063
113.792
143.437
183.338
229.422
224.419
3.147
9.50029
16.0353
22.8864
30.2091
38.1915
47.0675
57.1302
68.7351
82.2576
97.8789
114.798
128.59
123.077
49.6565
-30.6129
-24.9446
-20.6977
-17.4106
-14.7612
-12.552
-10.6588
-8.99924
-7.51617
-6.16781
-4.92232
-3.75447
-2.64336
-1.57099
-0.521191
-11.4824
-15.9107
-15.7111
-14.3359
-12.7189
-11.1266
-9.63048
-8.24169
-6.95178
-5.74669
-4.6114
-3.53147
-2.4934
-1.48454
-0.492944
-5.22417
-10.0905
-11.5408
-11.4288
-10.6595
-9.63412
-8.5276
-7.41541
-6.32843
-5.27705
-4.262
-3.27938
-2.32312
-1.38609
-0.460728
-2.84229
-6.64258
-8.45526
-8.97803
-8.77777
-8.19794
-7.42859
-6.57154
-5.68029
-4.78213
-3.89003
-3.00896
-2.13945
-1.27952
-0.425796
-1.76891
-4.57484
-6.26543
-7.02929
-7.15958
-6.89328
-6.39041
-5.75135
-5.03688
-4.28297
-3.51035
-2.73048
-1.94912
-1.16864
-0.389375
-1.20379
-3.28161
-4.71911
-5.52046
-5.81674
-5.75285
-5.44675
-4.98348
-4.42082
-3.79676
-3.13569
-2.453
-1.75817
-1.0569
-0.352594
-0.86764
-2.433
-3.61452
-4.36232
-4.72395
-4.78057
-4.61218
-4.28459
-3.84737
-3.3362
-2.776
-2.18392
-1.57166
-0.947259
-0.316422
-0.649482
-1.85094
-2.81108
-3.47232
-3.84292
-3.96449
-3.88814
-3.66177
-3.32524
-2.90966
-2.43843
-1.92884
-1.39358
-0.842078
-0.281642
-0.499036
-1.43643
-2.21518
-2.78413
-3.13479
-3.28583
-3.26824
-3.11542
-2.85797
-2.52173
-2.12749
-1.69158
-1.22675
-0.743093
-0.248837
-0.390722
-1.13207
-1.76496
-2.24749
-2.56525
-2.72424
-2.74222
-2.64169
-2.4454
-2.17406
-1.84545
-1.47437
-1.073
-0.65146
-0.218401
-0.310248
-0.903029
-1.41914
-1.82527
-2.10593
-2.26054
-2.29848
-2.23443
-2.08492
-1.86614
-1.59289
-1.27818
-0.933241
-0.567821
-0.190564
-0.249019
-0.727216
-1.14969
-1.49016
-1.73414
-1.87784
-1.92554
-1.88651
-1.77252
-1.59602
-1.36912
-1.10297
-0.807696
-0.492397
-0.165412
-0.201564
-0.590094
-0.937166
-1.22206
-1.43196
-1.5618
-1.61281
-1.59063
-1.5035
-1.3609
-1.17257
-0.947986
-0.696047
-0.425084
-0.142926
-0.164247
-0.481755
-0.767816
-1.00601
-1.18536
-1.30048
-1.3509
-1.33983
-1.27299
-1.15752
-1.00121
-0.811982
-0.597601
-0.365541
-0.123004
-0.134556
-0.39525
-0.631701
-0.830822
-0.983341
-1.08409
-1.13168
-1.12776
-1.07624
-0.982478
-0.852685
-0.693441
-0.511427