/*--------------------------------*- C++ -*----------------------------------*\
| =========                 |                                                 |
| \\      /  F ield         | OpenFOAM: The Open Source CFD Toolbox           |
|  \\    /   O peration     | Version:  5.x                                   |
|   \\  /    A nd           | Web:      www.OpenFOAM.org                      |
|    \\/     M anipulation  |                                                 |
\*---------------------------------------------------------------------------*/
FoamFile
{
    version     2.0;
    format      ascii;
    class       volScalarField;
    location    "4.1001";
    object      gradTx;
}
// * * * * * * * * * * * * * * * * * * * * * * * * * * * * * * * * * * * * * //

dimensions      [0 -1 0 1 0 0 0];

internalField   nonuniform List<scalar> 
2048
(
0.00773439
0.022967
0.0375132
0.0509863
0.0630929
0.0736476
0.0825707
0.0898744
0.0956398
0.0999918
0.103077
0.105046
0.106046
0.106212
0.105674
0.104553
0.102963
0.101015
0.0988089
0.0964351
0.0939683
0.0914663
0.0889697
0.0865031
0.0840783
0.0816974
0.0793559
0.0770442
0.0747485
0.0724519
0.0701347
0.0677762
0.0653563
0.0628578
0.0602682
0.0575797
0.0547889
0.0518944
0.0488947
0.0457857
0.0425594
0.0392048
0.0357087
0.0320599
0.0282524
0.0242894
0.0201871
0.0159771
0.0117086
0.00744859
0.00328194
-0.000690387
-0.0043546
-0.00758943
-0.0102737
-0.0122959
-0.0135649
-0.0140209
-0.013644
-0.0124598
-0.0105408
-0.00800216
-0.00499518
-0.00169773
0.0230604
0.0684643
0.111787
0.151859
0.187803
0.219071
0.24544
0.266965
0.283906
0.29665
0.305645
0.311346
0.314188
0.314575
0.312885
0.309474
0.304684
0.29884
0.292244
0.285165
0.277824
0.270394
0.262993
0.255692
0.248522
0.241487
0.234573
0.22775
0.220977
0.214204
0.207372
0.200416
0.193276
0.1859
0.178251
0.170306
0.162057
0.153501
0.144637
0.135452
0.125924
0.116017
0.105691
0.0949096
0.0836508
0.0719218
0.0597681
0.0472819
0.0346076
0.0219436
0.00954239
-0.00229496
-0.0132276
-0.0228909
-0.0309186
-0.0369721
-0.0407733
-0.0421378
-0.0410022
-0.0374419
-0.0316734
-0.0240436
-0.0150071
-0.00509995
0.0382587
0.113547
0.18527
0.251443
0.310597
0.361841
0.404852
0.439778
0.467112
0.487544
0.501847
0.510787
0.515084
0.515397
0.512334
0.506476
0.49838
0.488583
0.477587
0.465838
0.453708
0.441476
0.429332
0.417382
0.405671
0.394198
0.382933
0.371827
0.360812
0.349803
0.3387
0.327394
0.315781
0.30377
0.291299
0.278334
0.264866
0.250899
0.236435
0.221458
0.20593
0.189789
0.17296
0.155373
0.136984
0.117794
0.0978716
0.0773621
0.0564993
0.0356083
0.0151047
-0.00451143
-0.0226706
-0.0387581
-0.0521518
-0.0622708
-0.068633
-0.0709141
-0.0689965
-0.0630002
-0.0532885
-0.0404466
-0.0252408
-0.0085763
0.0536432
0.159123
0.259377
0.351529
0.43349
0.504061
0.562882
0.610286
0.64708
0.674329
0.693177
0.704718
0.709951
0.70977
0.704996
0.696411
0.684782
0.670857
0.655344
0.638875
0.62197
0.605016
0.588261
0.571837
0.555784
0.540087
0.524697
0.509542
0.494529
0.479539
0.464427
0.449034
0.433204
0.416804
0.399746
0.381987
0.363526
0.344384
0.324575
0.304087
0.282864
0.260813
0.237814
0.213751
0.188541
0.16217
0.134718
0.106374
0.0774565
0.0484106
0.0198134
-0.00763528
-0.0331299
-0.0557913
-0.0747181
-0.0890582
-0.0980941
-0.101333
-0.098585
-0.0900086
-0.0761218
-0.0577659
-0.0360414
-0.0122442
0.0694979
0.206013
0.335368
0.453682
0.558214
0.647493
0.721224
0.780048
0.825214
0.85826
0.88076
0.894158
0.89972
0.898548
0.891642
0.879965
0.864484
0.846164
0.825933
0.804621
0.782906
0.761278
0.740032
0.719303
0.699108
0.679404
0.660113
0.641145
0.622384
0.603678
0.584835
0.565633
0.545854
0.525315
0.503895
0.481552
0.458305
0.434205
0.409294
0.383569
0.356961
0.329334
0.300508
0.270303
0.238581
0.205294
0.17052
0.134485
0.0975824
0.0603737
0.0235943
-0.011854
-0.0449193
-0.0744371
-0.0991943
-0.118025
-0.129929
-0.134206
-0.130563
-0.119192
-0.100781
-0.0764569
-0.0476896
-0.0161983
0.0860947
0.254992
0.414422
0.559338
0.686306
0.793644
0.881263
0.950285
1.00257
1.04025
1.0654
1.07985
1.08509
1.08239
1.07288
1.05769
1.03797
1.01491
0.989686
0.963351
0.936755
0.910486
0.884868
0.860011
0.835882
0.812389
0.789422
0.766875
0.744618
0.72247
0.700186
0.677469
0.65402
0.62959
0.604027
0.57729
0.549436
0.52057
0.490781
0.46009
0.42841
0.395554
0.361263
0.325264
0.287343
0.247397
0.20549
0.161874
0.11701
0.0715705
0.0264451
-0.0172611
-0.0582397
-0.0950157
-0.126023
-0.149725
-0.16478
-0.170217
-0.165607
-0.151168
-0.127779
-0.0968985
-0.0604158
-0.0205157
0.103707
0.306838
0.497694
0.669867
0.819178
0.943833
1.04414
1.12193
1.17989
1.2209
1.24764
1.26228
1.26654
1.26179
1.24921
1.23005
1.20564
1.17742
1.14687
1.11528
1.0837
1.05283
1.02297
0.994181
0.966341
0.939281
0.912857
0.886955
0.86145
0.836142
0.810723
0.784804
0.757978
0.729909
0.700402
0.669434
0.63712
0.603649
0.569186
0.53379
0.497362
0.459643
0.420267
0.378844
0.335047
0.288702
0.239839
0.188731
0.135898
0.0821174
0.0284265
-0.0238685
-0.0731943
-0.117739
-0.155536
-0.184608
-0.203187
-0.209962
-0.204314
-0.186475
-0.157555
-0.119407
-0.0744075
-0.0252582
0.122621
0.362354
0.58636
0.786619
0.958165
1.09923
1.21078
1.29566
1.35764
1.40056
1.42775
1.44176
1.44443
1.43712
1.42101
1.3974
1.36781
1.33397
1.29767
1.26056
1.22389
1.18845
1.15452
1.12203
1.09072
1.06032
1.03064
1.00159
0.97308
0.944898
0.916671
0.887886
0.857992
0.826537
0.793274
0.758202
0.721532
0.683578
0.644618
0.604771
0.563926
0.521734
0.477687
0.431233
0.381904
0.329423
0.273779
0.215253
0.154425
0.0921659
0.0296527
-0.0316164
-0.0898005
-0.142727
-0.187971
-0.223034
-0.245618
-0.253972
-0.247218
-0.225595
-0.190488
-0.144242
-0.0898111
-0.0304724
0.143145
0.422398
0.68165
0.910965
1.10455
1.26088
1.38193
1.47193
1.53606
1.57933
1.60581
1.6184
1.61895
1.60867
1.58862
1.56008
1.52476
1.48475
1.44225
1.39929
1.35741
1.31747
1.27967
1.24376
1.20926
1.17574
1.143
1.11098
1.07968
1.04892
1.01824
0.986952
0.954326
0.919744
0.882886
0.843798
0.802825
0.760461
0.717146
0.673095
0.628179
0.581935
0.533665
0.482608
0.428111
0.369768
0.307514
0.24164
0.17278
0.101894
0.0302818
-0.040383
-0.107999
-0.170012
-0.223484
-0.265291
-0.292482
-0.302732
-0.294818
-0.268962
-0.226905
-0.171609
-0.10673
-0.0361886
0.165619
0.487906
0.78488
1.04432
1.25961
1.42974
1.55815
1.65095
1.71511
1.75706
1.78171
1.7922
1.79022
1.77668
1.75234
1.71839
1.67676
1.62994
1.58068
1.53151
1.4843
1.43998
1.3986
1.3596
1.32221
1.28581
1.25015
1.2153
1.18141
1.14836
1.1156
1.08223
1.04724
1.0098
0.969486
0.926416
0.88113
0.834369
0.786805
0.738784
0.690165
0.640328
0.588327
0.533134
0.473858
0.409937
0.341245
0.268088
0.191158
0.111498
0.0305074
-0.049992
-0.127659
-0.199552
-0.262155
-0.311605
-0.34414
-0.3567
-0.347586
-0.316979
-0.267079
-0.201652
-0.12522
-0.0424188
0.19042
0.559912
0.897477
1.18818
1.42458
1.60664
1.73985
1.83272
1.89454
1.93341
1.95515
1.963
1.95828
1.94133
1.91244
1.87262
1.82402
1.76968
1.71304
1.65724
1.60457
1.55605
1.51145
1.46978
1.42986
1.3908
1.35232
1.3147
1.27838
1.24335
1.20894
1.17395
1.137
1.09698
1.05332
1.00625
0.95656
0.905347
0.853591
0.801826
0.749896
0.696972
0.641786
0.582966
0.519328
0.450121
0.375158
0.294781
0.20975
0.12118
0.0305489
-0.0602207
-0.148588
-0.231227
-0.30399
-0.362142
-0.400918
-0.416318
-0.40599
-0.370028
-0.311234
-0.234448
-0.145278
-0.0491525
0.217974
0.639565
1.021
1.3441
1.60072
1.79232
1.92723
2.01706
2.07388
2.10786
2.1257
2.13058
2.12312
2.10282
2.06924
2.02308
1.96678
1.9041
1.83932
1.77641
1.71818
1.66571
1.61837
1.57455
1.53251
1.491
1.44973
1.40933
1.37068
1.33398
1.2984
1.26231
1.22389
1.18157
1.13465
1.08347
1.02921
0.973408
0.917464
0.862171
0.807357
0.751909
0.694141
0.632253
0.564698
0.490499
0.409426
0.321888
0.228732
0.131144
0.0306427
-0.0708068
-0.170531
-0.26485
-0.34893
-0.417014
-0.463113
-0.482023
-0.470502
-0.428472
-0.359539
-0.269994
-0.166834
-0.0563527
0.248764
0.728155
1.15716
1.51377
1.78925
1.98743
2.12036
2.20353
2.25245
2.27966
2.29281
2.29465
2.28472
2.26135
2.22307
2.1701
2.10527
2.03329
1.95949
1.88891
1.82505
1.769
1.71953
1.67419
1.63051
1.58675
1.5426
1.49927
1.45833
1.4203
1.3841
1.34754
1.30817
1.2639
1.21375
1.15827
1.09917
1.03854
0.978347
0.919734
0.862505
0.805165
0.745486
0.681144
0.610146
0.531244
0.444201
0.349553
0.248261
0.141581
0.0310332
-0.0814558
-0.193178
-0.30016
-0.396843
-0.476278
-0.530987
-0.554257
-0.541622
-0.492675
-0.412102
-0.308193
-0.189735
-0.0639505
0.283336
0.827121
1.30783
1.69896
1.9914
2.19245
2.31911
2.39155
2.42935
2.44792
2.4558
2.45487
2.44307
2.41717
2.37433
2.31405
2.23973
2.15734
2.07351
1.9946
1.92504
1.8659
1.81509
1.76901
1.72425
1.67843
1.63119
1.58461
1.54133
1.50234
1.46616
1.42984
1.39016
1.3443
1.29089
1.23083
1.1665
1.1007
1.03613
0.974392
0.915278
0.85676
0.795909
0.729785
0.655847
0.572516
0.479613
0.377893
0.268468
0.152662
0.0319631
-0.0918481
-0.216168
-0.33683
-0.44753
-0.539933
-0.604777
-0.63348
-0.619894
-0.563007
-0.468962
-0.348833
-0.213731
-0.0718401
0.322316
0.93807
1.47508
1.90157
2.20835
2.40773
2.52319
2.5803
2.60348
2.61159
2.61394
2.6109
2.59812
2.57056
2.52348
2.45533
2.3704
2.27633
2.18127
2.09325
2.01796
1.95642
1.90526
1.85934
1.81416
1.76646
1.71574
1.66536
1.6196
1.58006
1.54467
1.50942
1.47017
1.42313
1.36638
1.30133
1.23127
1.15984
1.09065
1.02599
0.965594
0.906707
0.845496
0.778326
0.701983
0.614465
0.515763
0.406994
0.289447
0.164532
0.0336646
-0.101647
-0.23909
-0.374464
-0.500724
-0.607924
-0.684679
-0.720166
-0.705935
-0.639868
-0.530075
-0.391563
-0.238459
-0.0798733
0.36642
1.06279
1.66116
2.12364
2.44121
2.63345
2.73214
2.76881
2.77357
2.76946
2.76645
2.76241
2.7499
2.72185
2.67109
2.5944
2.49752
2.39036
2.28265
2.18458
2.10356
2.04052
1.99025
1.94554
1.90074
1.85135
1.79651
1.74149
1.69298
1.65339
1.61971
1.58646
1.54852
1.50081
1.44054
1.36993
1.29353
1.21587
1.14171
1.07432
1.01336
0.955024
0.894329
0.826919
0.748751
0.657231
0.552719
0.436904
0.311259
0.177296
0.0363501
-0.110505
-0.261491
-0.4126
-0.55609
-0.680133
-0.770836
-0.81481
-0.800463
-0.723701
-0.595303
-0.435873
-0.263426
-0.087856
0.416483
1.20324
1.86848
2.36732
2.69098
2.86954
2.94537
2.95598
2.93814
2.92018
2.91251
2.90913
2.8984
2.87144
2.81786
2.73175
2.6213
2.49951
2.37752
2.26822
2.18153
2.11819
2.07032
2.028
1.98452
1.93372
1.8738
1.81288
1.76122
1.72225
1.69138
1.66115
1.62556
1.57781
1.5137
1.43678
1.35335
1.26869
1.18909
1.11916
1.05847
1.00174
0.942484
0.875718
0.796367
0.700941
0.59051
0.467638
0.333922
0.19102
0.0402029
-0.118074
-0.282879
-0.450708
-0.613231
-0.756386
-0.863323
-0.91792
-0.904348
-0.815028
-0.664383
-0.481056
-0.288001
-0.0955467
0.473495
1.36158
2.09964
2.63499
2.95853
3.1156
3.16216
3.14059
3.09554
3.06228
3.05134
3.05088
3.04361
3.01975
2.96464
2.86792
2.7419
2.60393
2.46574
2.34374
2.25147
2.18941
2.1458
2.10708
2.06609
2.01429
1.9479
1.87931
1.82397
1.7865
1.7598
1.73364
1.70163
1.65469
1.58619
1.502
1.41079
1.31821
1.23248
1.16022
1.10082
1.04693
0.990023
0.924877
0.845085
0.745713
0.629114
0.499179
0.357416
0.205715
0.0453696
-0.124015
-0.302725
-0.48819
-0.671695
-0.836457
-0.962106
-1.02999
-1.01866
-0.914482
-0.736901
-0.526184
-0.311407
-0.102658
0.538665
1.54012
2.35735
2.92925
3.24447
3.3709
3.3818
3.32137
3.24393
3.19413
3.18219
3.18766
3.18548
3.16723
3.11252
3.00343
2.8594
2.70383
2.54716
2.41058
2.3129
2.25417
2.21708
2.18311
2.14604
2.09398
2.01915
1.94045
1.88075
1.846
1.82512
1.80401
1.77709
1.73211
1.65836
1.56564
1.46598
1.36432
1.27154
1.19715
1.14034
1.09068
1.03698
0.974539
0.895219
0.791648
0.668448
0.531486
0.381687
0.221338
0.0519515
-0.128003
-0.320474
-0.52438
-0.730984
-0.920091
-1.06701
-1.15148
-1.14476
-1.02285
-0.812235
-0.570068
-0.332725
-0.108865
0.613532
1.74133
2.64435
3.25309
3.54912
3.63413
3.60363
3.49706
3.38125
3.31395
3.30445
3.31973
3.32379
3.31429
3.26293
3.13878
2.97366
2.79955
2.62171
2.46806
2.36519
2.31253
2.28474
2.25633
2.22498
2.17396
2.08794
1.99578
1.93092
1.90059
1.88764
1.87227
1.85223
1.8109
1.7305
1.62765
1.51908
1.40696
1.30585
1.22957
1.17694
1.1332
1.08333
1.02483
0.947175
0.838825
0.708342
0.564508
0.406647
0.237777
0.0599996
-0.129739
-0.335548
-0.558533
-0.790564
-1.00704
-1.17764
-1.28273
-1.28438
-1.14115
-0.889486
-0.611233
-0.350906
-0.113811
0.700135
1.96771
2.9633
3.61005
3.87237
3.90331
3.82726
3.66646
3.50524
3.41979
3.41761
3.44772
3.45811
3.46125
3.41777
3.27442
3.08429
2.89164
2.68934
2.51536
2.40761
2.36458
2.34953
2.3268
2.30344
2.25572
2.15464
2.04456
1.97367
1.95018
1.94778
1.93826
1.9273
1.89216
1.80289
1.68781
1.57041
1.44607
1.33492
1.257
1.21061
1.17478
1.12896
1.07582
1.00151
0.887291
0.748516
0.598212
0.432185
0.254851
0.0695106
-0.128963
-0.347359
-0.589817
-0.849884
-1.09711
-1.29333
-1.42386
-1.4398
-1.27066
-0.967374
-0.647883
-0.364804
-0.117135
0.801297
2.22181
3.31653
4.00455
4.21346
4.17552
4.05282
3.82851
3.61333
3.50948
3.52137
3.57284
3.58756
3.60823
3.57965
3.41059
3.19044
2.98103
2.7501
2.55142
2.43922
2.41048
2.41255
2.39427
2.38183
2.3413
2.21968
2.08578
2.00801
1.99469
2.00628
2.00156
2.00244
1.97735
1.87568
1.74567
1.62045
1.48165
1.35812
1.27887
1.24135
1.21594
1.17361
1.12751
1.05898
0.937039
0.788533
0.632622
0.458176
0.27229
0.0804277
-0.12546
-0.35532
-0.617291
-0.908377
-1.19028
-1.41303
-1.57467
-1.614
-1.41305
-1.04409
-0.677893
-0.373221
-0.118485
0.921059
2.50599
3.70574
4.44238
4.57086
4.44653
4.28137
3.98232
3.70261
3.58062
3.61557
3.69714
3.71059
3.755
3.75221
3.54726
3.29058
3.06924
2.80412
2.57498
2.4589
2.45047
2.47539
2.45806
2.46036
2.43338
2.28343
2.11811
2.03269
2.0341
2.06428
2.06139
2.07757
2.06851
1.94888
1.80039
1.67003
1.51374
1.37472
1.29451
1.26922
1.25744
1.2168
1.17978
1.12071
0.987974
0.827742
0.667876
0.484482
0.289728
0.0926462
-0.119073
-0.358865
-0.639875
-0.965466
-1.28685
-1.53522
-1.73433
-1.81096
-1.57045
-1.1171
-0.698808
-0.37498
-0.117555
1.06532
2.82228
4.13147
4.93138
4.94185
4.71042
4.51541
4.12717
3.76975
3.6305
3.70027
3.82388
3.82467
3.90081
3.9406
3.68394
3.38225
3.15866
2.85162
2.58443
2.46528
2.48487
2.54037
2.51678
2.53883
2.53565
2.34616
2.13979
2.04626
2.06846
2.12357
2.1164
2.15234
2.16846
2.02221
1.85062
1.72044
1.54243
1.38379
1.30312
1.2943
1.30046
1.25768
1.23231
1.18825
1.03987
0.865198
0.704314
0.510956
0.306678
0.106028
-0.109713
-0.357483
-0.65631
-1.02054
-1.38763
-1.65775
-1.90117
-2.03596
-1.74558
-1.18286
-0.707882
-0.369007
-0.114108
1.24278
3.17208
4.59243
5.48246
5.3222
4.95891
4.75964
4.26242
3.81089
3.65611
3.77558
3.95806
3.92579
4.0441
4.1521
3.81941
3.46166
3.25299
2.89283
2.57782
2.45671
2.51396
2.61088
2.56812
2.61654
2.65316
2.40794
2.14859
2.04699
2.09785
2.18686
2.16444
2.22594
2.28121
2.09502
1.89429
1.7737
1.56783
1.38422
1.30375
1.31671
1.34678
1.29493
1.28453
1.26388
1.09227
0.899563
0.742597
0.537432
0.322507
0.120425
-0.0973711
-0.350757
-0.665104
-1.07289
-1.49426
-1.77773
-2.0722
-2.29607
-1.94183
-1.23646
-0.702168
-0.354438
-0.108015
1.46627
3.55578
5.0845
6.11099
5.70555
5.18068
5.02199
4.38734
3.82154
3.65407
3.8415
4.10713
4.00793
4.18211
4.39695
3.95137
3.52318
3.35785
2.92787
2.55275
2.43126
2.53794
2.6918
2.60839
2.692
2.79277
2.46839
2.14176
2.03296
2.12226
2.25816
2.20227
2.29693
2.41238
2.16606
1.9283
1.83288
1.58996
1.37467
1.29533
1.3365
1.399
1.32655
1.33546
1.3508
1.14443
0.928973
0.783869
0.563697
0.336407
0.135717
-0.0821226
-0.338426
-0.664473
-1.12163
-1.60954
-1.8914
-2.24256
-2.60069
-2.16344
-1.27118
-0.678662
-0.330733
-0.0992724
1.75451
3.9723
5.59945
6.83863
6.08268
5.36037
5.31495
4.50071
3.79651
3.62075
3.89762
4.28194
4.0623
4.31049
4.68949
4.07603
3.55877
3.48151
2.95653
2.50636
2.38676
2.55671
2.79016
2.63214
2.76264
2.96387
2.52639
2.11596
2.00202
2.14148
2.3433
2.22514
2.36298
2.56979
2.23323
1.94823
1.90251
1.60869
1.35351
1.27663
1.35353
1.46087
1.3496
1.3836
1.45352
1.19512
0.950882
0.829978
0.589448
0.347352
0.151861
-0.0641354
-0.320462
-0.652272
-1.16552
-1.73799
-1.99397
-2.40484
-2.9623
-2.41559
-1.27787
-0.634557
-0.297789
-0.0880234
2.13454
4.41834
6.12326
7.69576
6.44061
5.47748
5.65726
4.60023
3.72984
3.55229
3.94259
4.49794
4.07647
4.42268
5.04948
4.18746
3.55723
3.63597
2.97789
2.43526
2.3208
2.56952
2.91588
2.63152
2.82447
3.17913
2.57967
2.06732
1.95196
2.15482
2.45058
2.22632
2.42056
2.76426
2.2933
1.94795
1.98917
1.62347
1.31887
1.24631
1.36735
1.53771
1.35989
1.42674
1.5783
1.24245
0.961864
0.883747
0.614202
0.354054
0.16896
-0.0436696
-0.297175
-0.625929
-1.20269
-1.8864
-2.07951
-2.54817
-3.39737
-2.70448
-1.24429
-0.567596
-0.256038
-0.0745611
2.64473
4.88768
6.63394
8.72445
6.76129
5.50497
6.07604
4.6816
3.61487
3.44484
3.9734
4.77671
4.03327
4.50922
5.50379
4.27687
3.50334
3.83815
2.98977
2.33562
2.23087
2.57455
3.08272
2.59564
2.87164
3.45551
2.62419
1.99147
1.88055
2.16072
2.59162
2.1965
2.46458
3.01045
2.34146
1.91911
2.10211
1.63309
1.26859
1.20301
1.37693
1.63694
1.35166
1.46173
1.73367
1.28362
0.957402
0.94932
0.637184
0.354917
0.18735
-0.0210725
-0.269339
-0.582397
-1.23032
-2.06459
-2.14094
-2.65709
-3.92741
-3.03747
-1.15425
-0.476566
-0.206516
-0.0593157
3.33858
5.37007
7.09902
9.98222
7.02016
5.40772
6.60939
4.73725
3.4443
3.29486
3.98429
5.14786
3.90952
4.55691
6.08842
4.33173
3.37687
4.11148
2.98801
2.2032
2.11456
2.56823
3.30956
2.50975
2.89593
3.81548
2.65332
1.88365
1.78583
2.15617
2.78233
2.12315
2.48789
3.32801
2.37084
1.85061
2.2542
1.63523
1.20029
1.14542
1.38027
1.76869
1.31705
1.48424
1.93105
1.31463
0.93163
1.03259
0.657144
0.347991
0.207702
0.00323396
-0.238335
-0.518125
-1.24413
-2.28622
-2.16993
-2.71026
-4.58031
-3.42303
-0.98665
-0.361956
-0.150873
-0.0428249
4.28929
5.85007
7.47239
11.5463
7.18427
5.14074
7.30945
4.75466
3.2105
3.09958
3.96539
5.65127
3.6746
4.54786
6.85078
4.33462
3.15149
4.48772
2.96539
2.03353
1.96981
2.54442
3.62175
2.35429
2.88619
4.28841
2.65692
1.73901
1.66631
2.136
3.04417
1.98971
2.48079
3.7428
2.37193
1.72798
2.46286
1.6259
1.11149
1.07243
1.37397
1.94662
1.24571
1.48849
2.18554
1.32986
0.877068
1.14166
0.672137
0.330931
0.231135
0.0287748
-0.20632
-0.429072
-1.2378
-2.56977
-2.15706
-2.67888
-5.39181
-3.87081
-0.714368
-0.226788
-0.0913113
-0.0256892
5.59516
6.3056
7.69084
13.519
7.21012
4.64731
8.24592
4.71417
2.9059
2.85762
3.90096
6.33972
3.28884
4.45838
7.85223
4.26202
2.79354
5.00912
2.91038
1.8222
1.7953
2.49322
4.05285
2.1039
2.82767
4.91217
2.62003
1.55292
1.52135
2.09192
3.40552
1.77473
2.43043
4.2883
2.33187
1.53278
2.75126
1.59875
0.999706
0.983381
1.35263
2.18877
1.12414
1.46688
2.51668
1.32164
0.78434
1.28748
0.679222
0.300971
0.259343
0.0550526
-0.176399
-0.310782
-1.20216
-2.93954
-2.09191
-2.525
-6.40717
-4.39145
-0.303112
-0.0776255
-0.0304232
-0.00851527
)
;

boundaryField
{
    left
    {
        type            calculated;
        value           uniform 0;
    }
    right
    {
        type            calculated;
        value           uniform 0;
    }
    interface
    {
        type            calculated;
        value           nonuniform List<scalar> 
64
(
5.59516
6.3056
7.69084
13.519
7.21012
4.64731
8.24592
4.71417
2.9059
2.85762
3.90096
6.33972
3.28884
4.45838
7.85223
4.26202
2.79354
5.00912
2.91038
1.8222
1.7953
2.49322
4.05285
2.1039
2.82767
4.91217
2.62003
1.55292
1.52135
2.09192
3.40552
1.77473
2.43043
4.2883
2.33187
1.53278
2.75126
1.59875
0.999706
0.983381
1.35263
2.18877
1.12414
1.46688
2.51668
1.32164
0.78434
1.28748
0.679222
0.300971
0.259343
0.0550526
-0.176399
-0.310782
-1.20216
-2.93954
-2.09191
-2.525
-6.40717
-4.39145
-0.303112
-0.0776255
-0.0304232
-0.00851527
)
;
    }
    bottom
    {
        type            calculated;
        value           nonuniform List<scalar> 
64
(
0.00773439
0.022967
0.0375132
0.0509863
0.0630929
0.0736476
0.0825707
0.0898744
0.0956398
0.0999918
0.103077
0.105046
0.106046
0.106212
0.105674
0.104553
0.102963
0.101015
0.0988089
0.0964351
0.0939683
0.0914663
0.0889697
0.0865031
0.0840783
0.0816974
0.0793559
0.0770442
0.0747485
0.0724519
0.0701347
0.0677762
0.0653563
0.0628578
0.0602682
0.0575797
0.0547889
0.0518944
0.0488947
0.0457857
0.0425594
0.0392048
0.0357087
0.0320599
0.0282524
0.0242894
0.0201871
0.0159771
0.0117086
0.00744859
0.00328194
-0.000690387
-0.0043546
-0.00758943
-0.0102737
-0.0122959
-0.0135649
-0.0140209
-0.013644
-0.0124598
-0.0105408
-0.00800216
-0.00499518
-0.00169773
)
;
    }
    defaultFaces
    {
        type            empty;
    }
}


// ************************************************************************* //
