/*--------------------------------*- C++ -*----------------------------------*\
| =========                 |                                                 |
| \\      /  F ield         | OpenFOAM: The Open Source CFD Toolbox           |
|  \\    /   O peration     | Version:  5.x                                   |
|   \\  /    A nd           | Web:      www.OpenFOAM.org                      |
|    \\/     M anipulation  |                                                 |
\*---------------------------------------------------------------------------*/
FoamFile
{
    version     2.0;
    format      ascii;
    class       volScalarField;
    location    "18.2";
    object      T;
}
// * * * * * * * * * * * * * * * * * * * * * * * * * * * * * * * * * * * * * //

dimensions      [0 0 0 1 0 0 0];

internalField   nonuniform List<scalar> 
6300
(
9.94352
9.83173
9.7234
9.62078
9.52607
9.44133
9.36847
9.30919
9.26488
9.23659
9.22493
9.23005
9.25153
9.28845
9.33938
9.94237
9.82827
9.71767
9.61287
9.51608
9.42943
9.35488
9.29419
9.24883
9.21992
9.20813
9.21364
9.23605
9.27441
9.32719
9.94003
9.8213
9.70615
9.59693
9.49594
9.40541
9.32742
9.26384
9.21631
9.1861
9.174
9.18029
9.2046
9.24589
9.30251
9.93651
9.81075
9.68868
9.57274
9.46534
9.36884
9.2855
9.21742
9.16646
9.13412
9.12145
9.12888
9.15611
9.20201
9.26467
9.93175
9.7965
9.66507
9.54
9.42383
9.3191
9.22831
9.15386
9.09794
9.06245
9.04878
9.05765
9.0889
9.14132
9.21263
9.92571
9.77845
9.6351
9.49834
9.37086
9.25541
9.15477
9.07174
9.00898
8.96892
8.95353
8.96401
9.00048
9.06169
9.14486
9.91838
9.75646
9.59855
9.44739
9.30584
9.17687
9.06362
8.96932
8.89728
8.8507
8.83237
8.84433
8.88728
8.96005
9.05922
9.90971
9.73046
9.55523
9.38683
9.22823
9.08261
8.95348
8.84462
8.76011
8.70418
8.6809
8.69363
8.74423
8.83196
8.95267
9.89971
9.70042
9.50508
9.31647
9.13761
8.97186
8.82305
8.69555
8.59434
8.525
8.49338
8.50504
8.56399
8.67086
8.82083
9.88841
9.66644
9.4482
9.23635
9.03386
8.84416
8.6713
8.52016
8.39669
8.30805
8.26255
8.26913
8.3358
8.46662
8.65705
9.87588
9.62874
9.38492
9.14686
8.91732
8.69961
8.49779
8.31708
8.16419
8.04794
7.97961
7.97307
8.04344
8.20272
8.45047
9.86227
9.5877
9.31587
9.04883
8.78894
8.53914
8.30318
8.08614
7.89505
7.73987
7.63486
7.60009
7.66212
7.85032
8.18089
9.84776
9.54391
9.24204
8.94364
8.65048
8.3648
8.08963
7.82925
7.58998
7.38161
7.21983
7.13028
7.15461
7.35551
7.80337
9.8326
9.49814
9.16474
8.83321
8.50452
8.17995
7.86129
7.55122
7.25398
6.97675
6.73255
6.54655
6.47049
6.61371
7.19192
9.8171
9.45131
9.08557
8.71992
8.35442
7.98917
7.62435
7.26035
6.89794
6.53884
6.18704
5.85287
5.56707
5.43687
5.89873
9.39718
9.45676
9.52203
9.59158
9.66404
9.73809
9.81249
9.88614
9.95806
10.0274
10.0934
10.1555
10.2132
10.2661
10.3138
10.3561
10.3929
10.4239
10.4491
10.4684
10.4817
10.4891
10.4906
10.4861
10.4758
10.4596
10.4376
10.41
10.3767
10.3379
10.2936
10.244
10.1891
10.129
10.0638
9.9935
9.91828
9.83819
9.75328
9.66365
9.56936
9.47051
9.36716
9.25942
9.14737
9.03109
8.91068
8.78621
8.65777
8.52543
8.38926
8.24933
8.1057
7.95843
7.8076
7.65328
7.49556
7.33453
7.1703
7.00298
6.8327
6.6596
6.48381
6.30548
6.12477
5.94185
5.75688
5.57006
5.38161
5.19175
5.00077
4.80896
4.61667
4.42427
4.23219
4.04085
3.85075
3.66236
3.47618
3.29272
3.11246
2.93589
2.76346
2.59559
2.43265
2.27496
2.12281
1.97638
1.83582
1.70118
9.38699
9.44853
9.5158
9.58733
9.66169
9.73751
9.81351
9.88857
9.96171
10.0321
10.099
10.1618
10.22
10.2734
10.3215
10.3641
10.401
10.4322
10.4575
10.4768
10.4902
10.4976
10.499
10.4945
10.4841
10.4678
10.4457
10.418
10.3846
10.3456
10.3012
10.2515
10.1965
10.1362
10.0709
10.0005
9.92521
9.845
9.75999
9.67024
9.57584
9.47687
9.3734
9.26553
9.15335
9.03695
8.91642
8.79184
8.66329
8.53086
8.39459
8.25457
8.11084
7.96348
7.81254
7.6581
7.50024
7.33906
7.17466
7.00716
6.83669
6.66339
6.48739
6.30884
6.1279
5.94472
5.75948
5.57236
5.38356
5.19332
5.0019
4.8096
4.61677
4.42378
4.23105
4.03905
3.84824
3.65913
3.47223
3.28806
3.10712
2.9299
2.75687
2.58845
2.42504
2.26698
2.11453
1.96792
1.82727
1.69266
9.36643
9.43198
9.50337
9.57896
9.65719
9.73658
9.81581
9.8937
9.96928
10.0417
10.1103
10.1745
10.2339
10.2881
10.3369
10.3801
10.4174
10.4489
10.4744
10.4938
10.5072
10.5146
10.5159
10.5113
10.5007
10.4842
10.4619
10.4339
10.4003
10.3611
10.3165
10.2665
10.2112
10.1508
10.0852
10.0146
9.93907
9.85865
9.77342
9.68345
9.58881
9.48959
9.38588
9.27775
9.16532
9.04866
8.92789
8.80309
8.67433
8.5417
8.40525
8.26505
8.12114
7.97359
7.82243
7.66776
7.50963
7.34815
7.18342
7.01556
6.8447
6.67099
6.49457
6.31559
6.13418
5.95051
5.76473
5.57701
5.38754
5.19653
5.00424
4.81097
4.61704
4.42286
4.22884
4.03547
3.84324
3.65268
3.46432
3.27872
3.09639
2.91785
2.7436
2.57409
2.40973
2.25088
2.09784
1.95084
1.81003
1.67547
9.33509
9.40696
9.48481
9.56674
9.65096
9.73583
9.81994
9.9021
9.9813
10.0568
10.1279
10.1941
10.2551
10.3107
10.3604
10.4043
10.4422
10.4741
10.4998
10.5194
10.5328
10.5401
10.5413
10.5365
10.5257
10.5089
10.4863
10.458
10.4239
10.3844
10.3394
10.289
10.2333
10.1725
10.1066
10.0357
9.95985
9.87912
9.79357
9.70326
9.60828
9.5087
9.4046
9.29608
9.18325
9.06622
8.94508
8.81993
8.69086
8.55794
8.42123
8.28077
8.13661
7.98878
7.83732
7.6823
7.52377
7.36183
7.19659
7.02818
6.85674
6.68243
6.50537
6.32574
6.14366
5.95927
5.77271
5.58412
5.39366
5.20153
5.00795
4.81321
4.61764
4.42164
4.22566
4.0302
3.83579
3.643
3.45242
3.26461
3.08016
2.8996
2.72348
2.55227
2.38644
2.22638
2.07242
1.92483
1.78377
1.6493
9.29237
9.3733
9.46033
9.55117
9.6437
9.7361
9.82683
9.91466
9.99864
10.078
10.1524
10.2212
10.2842
10.3413
10.3923
10.4371
10.4757
10.508
10.534
10.5537
10.5671
10.5743
10.5753
10.5702
10.5591
10.5419
10.5189
10.49
10.4555
10.4154
10.3698
10.3189
10.2628
10.2015
10.1351
10.0638
9.98755
9.90642
9.82045
9.72972
9.63428
9.5342
9.42958
9.32053
9.20715
9.08958
8.96793
8.84232
8.71283
8.57955
8.44251
8.30174
8.15727
8.00911
7.85727
7.70179
7.54273
7.38018
7.21426
7.0451
6.87286
6.69772
6.51983
6.33934
6.15639
5.97109
5.78355
5.59386
5.40214
5.20855
5.01328
4.81659
4.61881
4.42035
4.22168
4.02336
3.82597
3.63013
3.43648
3.24565
3.05827
2.87494
2.69624
2.5227
2.35482
2.19307
2.03782
1.88939
1.74798
1.61367
9.23745
9.3308
9.43031
9.53308
9.63659
9.73872
9.83783
9.9327
10.0225
10.1066
10.1847
10.2564
10.3218
10.3807
10.433
10.4789
10.5181
10.5509
10.5771
10.5969
10.6103
10.6174
10.6181
10.6126
10.601
10.5833
10.5596
10.5301
10.4949
10.4542
10.4079
10.3563
10.2995
10.2377
10.1708
10.0989
10.0222
9.94056
9.85411
9.76286
9.66685
9.56615
9.46086
9.35109
9.237
9.11872
8.99641
8.8702
8.74019
8.60647
8.46906
8.32796
8.18317
8.03465
7.88238
7.72637
7.56665
7.40332
7.2365
7.06636
6.8931
6.7169
6.53796
6.35643
6.17244
5.98608
5.7974
5.60645
5.41327
5.21794
5.0206
4.82149
4.62091
4.4193
4.21717
4.01514
3.81387
3.61406
3.41643
3.22169
3.03052
2.8436
2.66153
2.48493
2.31436
2.15035
1.99338
1.84383
1.70196
1.56787
9.16925
9.27938
9.39551
9.5139
9.63139
9.74561
9.85485
9.95801
10.0544
10.1438
10.2259
10.3009
10.3686
10.4294
10.4831
10.5299
10.5698
10.603
10.6295
10.6493
10.6626
10.6694
10.6697
10.6637
10.6515
10.6331
10.6087
10.5784
10.5424
10.5007
10.4535
10.4011
10.3435
10.2809
10.2134
10.141
10.0637
9.98157
9.89459
9.80275
9.70607
9.60461
9.49847
9.3878
9.27277
9.15357
9.03041
8.90345
8.77282
8.6386
8.50082
8.35942
8.21435
8.0655
7.9128
7.75619
7.59569
7.4314
7.26345
7.09206
6.91748
6.73996
6.55973
6.37699
6.19184
6.00435
5.81448
5.6222
5.42743
5.23016
5.03044
4.82843
4.62445
4.41894
4.21248
4.00578
3.79962
3.59481
3.39218
3.19254
2.99664
2.80521
2.61893
2.43846
2.26443
2.09749
1.93823
1.78718
1.6447
1.51094
9.08646
9.21926
9.35743
9.49592
9.63086
9.75961
9.88057
9.99294
10.0965
10.1912
10.2775
10.3555
10.4256
10.488
10.543
10.5907
10.6312
10.6648
10.6913
10.7111
10.7241
10.7305
10.7304
10.7238
10.7108
10.6916
10.6662
10.6349
10.5977
10.5549
10.5067
10.4532
10.3947
10.3312
10.263
10.1899
10.1121
10.0295
9.94197
9.84951
9.75208
9.64971
9.54253
9.43069
9.31444
9.19405
9.06979
8.94189
8.81053
8.6758
8.53769
8.39611
8.25089
8.10183
7.94875
7.79153
7.63014
7.46466
7.29527
7.12228
6.94602
6.76685
6.58508
6.40095
6.21457
6.02596
5.83498
5.64146
5.44515
5.24586
5.04351
4.83818
4.63015
4.4199
4.20811
3.99562
3.78338
3.57238
3.3636
3.15796
2.9563
2.75939
2.56795
2.38267
2.20428
2.03354
1.87125
1.71816
1.57485
1.44157
8.98752
9.15136
9.31883
9.48299
9.63919
9.78477
9.91859
10.0405
10.1511
10.2509
10.3408
10.4215
10.4935
10.5573
10.6133
10.6617
10.7027
10.7364
10.7629
10.7825
10.7951
10.801
10.8002
10.7928
10.779
10.7588
10.7323
10.6997
10.6611
10.617
10.5673
10.5125
10.4528
10.3884
10.3193
10.2457
10.1674
10.0843
9.99638
9.90333
9.8051
9.70168
9.59319
9.47985
9.362
9.24002
9.11431
8.98523
8.85301
8.71777
8.57948
8.43794
8.29286
8.14387
7.9906
7.83281
7.6704
7.50346
7.33223
7.15714
6.97869
6.79741
6.61376
6.42807
6.24047
6.0509
5.85911
5.66467
5.4671
5.26592
5.06083
4.85178
4.639
4.42303
4.20469
3.98505
3.76532
3.54673
3.33048
3.11762
2.90908
2.70567
2.50807
2.31695
2.13307
1.95739
1.791
1.63506
1.49055
1.35795
8.87082
9.0782
9.28492
9.48148
9.66274
9.82677
9.97365
10.1045
10.221
10.3248
10.4174
10.4998
10.5731
10.6378
10.6945
10.7433
10.7845
10.8182
10.8445
10.8637
10.8758
10.881
10.8794
10.8712
10.8563
10.8349
10.807
10.7728
10.7326
10.6867
10.6353
10.5788
10.5177
10.4521
10.3822
10.308
10.2294
10.1462
10.058
9.96452
9.86549
9.76085
9.65074
9.53543
9.41542
9.29127
9.16362
9.03299
8.89976
8.76407
8.62586
8.48481
8.3404
8.19198
8.03889
7.88067
7.71713
7.54835
7.37469
7.19677
7.01537
6.83132
6.64533
6.45788
6.26914
6.079
5.88698
5.69236
5.49419
5.29154
5.0838
4.8707
4.6524
4.42952
4.20312
3.97459
3.74557
3.51769
3.29242
3.07101
2.85447
2.64355
2.43882
2.24077
2.05006
1.86784
1.69567
1.53547
1.3891
1.25748
8.73528
9.00594
9.26557
9.50194
9.71105
9.8934
10.0517
10.1891
10.3092
10.4148
10.5083
10.5913
10.6649
10.73
10.7868
10.8358
10.877
10.9105
10.9364
10.9549
10.9663
10.9707
10.9682
10.9589
10.9429
10.9201
10.8906
10.8547
10.8123
10.7641
10.7104
10.6518
10.5889
10.5219
10.4511
10.3765
10.298
10.2151
10.1272
10.0336
9.93385
9.82782
9.71565
9.59769
9.47468
9.34746
9.21711
9.08441
8.94995
8.81391
8.67623
8.5364
8.39364
8.24673
8.09447
7.93612
7.77131
7.60018
7.4232
7.24135
7.05578
6.86795
6.67892
6.48946
6.29978
6.10972
5.91855
5.7251
5.52765
5.32446
5.11445
4.89703
4.67235
4.44104
4.20455
3.96477
3.72416
3.48485
3.24879
3.01736
2.79172
2.57248
2.35995
2.15399
1.9548
1.76381
1.5831
1.41594
1.26638
1.13632
8.58279
8.94951
9.27965
9.56158
9.79781
9.99466
10.1595
10.2987
10.4181
10.5223
10.6143
10.6962
10.769
10.8337
10.8905
10.9394
10.9804
11.0135
11.0388
11.0564
11.0668
11.0701
11.0667
11.0563
11.0391
11.0149
10.9836
10.9454
10.9005
10.8493
10.7925
10.7311
10.6657
10.597
10.5253
10.4506
10.3727
10.2911
10.2045
10.1113
10.0112
9.90353
9.78877
9.66714
9.53987
9.40807
9.27388
9.13826
9.00231
8.86602
8.72957
8.59214
8.45277
8.30908
8.15872
8.00077
7.83449
7.66035
7.47866
7.29117
7.09937
6.90623
6.71306
6.5213
6.33088
6.14197
5.95332
5.76356
5.56929
5.36714
5.15571
4.93377
4.70178
4.45997
4.21068
3.95611
3.70083
3.44728
3.19844
2.95533
2.71973
2.4917
2.27162
2.05741
1.84773
1.64495
1.45099
1.27104
1.11559
0.988411
8.42831
8.9457
9.36307
9.68697
9.94121
10.1419
10.3043
10.4367
10.5486
10.6473
10.7348
10.814
10.8848
10.9488
11.0052
11.0545
11.0952
11.1278
11.1519
11.1683
11.1773
11.1793
11.1749
11.1637
11.1452
11.1197
11.0864
11.0459
10.9975
10.9425
10.881
10.8159
10.7471
10.6766
10.6035
10.5293
10.4527
10.3744
10.291
10.1991
10.0992
9.9894
9.87171
9.7446
9.61151
9.47207
9.3326
9.19252
9.05507
8.91828
8.78426
8.65059
8.51803
8.38099
8.23381
8.07738
7.9089
7.73134
7.54242
7.34713
7.14484
6.94448
6.7451
6.55116
6.35976
6.17376
5.98967
5.80844
5.62224
5.42313
5.21208
4.98493
4.7453
4.48963
4.22437
3.94846
3.67496
3.4029
3.13983
2.88246
2.63681
2.39944
2.17481
1.95428
1.73072
1.51335
1.29871
1.09086
0.924063
0.803615
8.34683
9.08587
9.58102
9.91258
10.1616
10.3442
10.4923
10.6043
10.6981
10.7883
10.8672
10.9437
11.0103
11.0748
11.1299
11.1818
11.2217
11.2541
11.2762
11.2908
11.2976
11.2977
11.2927
11.2812
11.2615
11.2355
11.1995
11.1575
11.1038
11.0452
10.9745
10.9059
10.8309
10.7598
10.6832
10.6112
10.535
10.4649
10.3898
10.2983
10.2012
10.0865
9.96811
9.83057
9.69219
9.53598
9.39211
9.24287
9.1068
8.96642
8.83837
8.70733
8.58964
8.46739
8.32212
8.17123
7.9963
7.81859
7.61525
7.41311
7.18742
6.98125
6.76923
6.5773
6.38078
6.20275
6.02183
5.8604
5.69371
5.49628
5.29154
5.05401
4.81188
4.53307
4.25332
3.93728
3.64701
3.3455
3.07298
2.79267
2.54196
2.2888
2.07209
1.85546
1.6048
1.37781
1.13664
0.851533
0.665789
0.564139
8.71296
9.57718
10.0345
10.2569
10.4777
10.5961
10.7321
10.7978
10.8527
10.9456
11.0027
11.0879
11.1386
11.2144
11.2589
11.3265
11.3588
11.3952
11.4111
11.4243
11.4276
11.4235
11.4195
11.4107
11.3868
11.3656
11.321
11.2861
11.2169
11.1654
11.0648
11.0051
10.9092
10.8505
10.7564
10.6989
10.6087
10.5623
10.5121
10.4054
10.3286
10.189
10.0919
9.91766
9.79844
9.58203
9.45924
9.27419
9.16462
8.99675
8.89667
8.74477
8.66775
8.58686
8.41846
8.29963
8.08761
7.94268
7.68629
7.51293
7.20182
7.02639
6.76434
6.61
6.3751
6.23586
6.02584
5.91989
5.80939
5.57988
5.41819
5.12965
4.93124
4.57779
4.33452
3.88893
3.63521
3.24634
3.01731
2.66024
2.45059
2.12568
1.9692
1.80565
1.44475
1.26269
1.03782
0.46912
0.286412
0.238041
1.55956
1.41343
1.27536
1.14494
1.02165
0.904922
0.794119
0.688591
0.587676
0.490717
0.397066
0.306093
0.21718
0.129727
0.0431459
1.55119
1.40535
1.2677
1.13779
1.01509
0.898985
0.788835
0.68397
0.583715
0.487404
0.394386
0.304028
0.215717
0.128855
0.0428559
1.5343
1.38908
1.25228
1.12342
1.00191
0.887085
0.77826
0.674732
0.575803
0.480792
0.38904
0.299914
0.212804
0.127117
0.0422784
1.50861
1.36436
1.22892
1.1017
0.982029
0.869176
0.76238
0.660888
0.563967
0.470915
0.381065
0.293782
0.208464
0.12453
0.0414189
1.47368
1.33083
1.19731
1.07241
0.955325
0.845201
0.741189
0.642466
0.548256
0.457832
0.370518
0.285684
0.202738
0.121118
0.0402857
1.42887
1.28796
1.15707
1.0353
0.921647
0.815106
0.7147
0.619525
0.528753
0.441633
0.357487
0.275694
0.195682
0.116918
0.0388912
1.37331
1.23505
1.1077
0.990053
0.880851
0.778866
0.682974
0.592175
0.505592
0.422457
0.3421
0.26392
0.187378
0.111978
0.0372519
1.30585
1.17122
1.0486
0.936355
0.832828
0.736524
0.646147
0.560603
0.478976
0.400501
0.32453
0.250504
0.177931
0.106364
0.0353896
1.22494
1.09536
0.979136
0.873927
0.777572
0.688249
0.604482
0.525107
0.449202
0.376036
0.305012
0.235634
0.167475
0.100157
0.0333315
1.12849
1.00613
0.898645
0.802634
0.715278
0.634408
0.558419
0.486134
0.416687
0.349425
0.283845
0.219542
0.156177
0.0934557
0.0311106
1.01367
0.902029
0.806669
0.722678
0.64649
0.575681
0.508646
0.444319
0.38198
0.321129
0.261399
0.202509
0.144234
0.0863773
0.0287656
0.876691
0.781631
0.703314
0.634911
0.572316
0.513175
0.456159
0.400509
0.345783
0.291708
0.238109
0.184861
0.131869
0.0790532
0.0263398
0.712883
0.644483
0.590038
0.541331
0.494681
0.448539
0.402301
0.355773
0.30893
0.261808
0.214464
0.166955
0.119328
0.0716256
0.0238798
0.518488
0.493373
0.471018
0.445688
0.416533
0.383993
0.348729
0.31135
0.272352
0.232127
0.190984
0.149164
0.106863
0.06424
0.0214333
0.299403
0.339496
0.35497
0.353864
0.341768
0.322166
0.297268
0.268541
0.236997
0.203363
0.168177
0.131853
0.0947171
0.0570378
0.0190465
9.80288
9.40834
9.01292
8.61594
8.2166
7.81388
7.4064
6.99224
6.56854
6.13073
5.67081
5.17263
4.59627
3.81538
2.32241
9.79014
9.36989
8.94794
8.52305
8.09366
7.65782
7.21289
6.75512
6.27886
5.77505
5.22807
4.60852
3.85574
2.83578
1.26
9.77779
9.3326
8.88502
8.43327
7.97518
7.50807
7.0283
6.53084
6.00831
5.44935
4.83573
4.13691
3.30074
2.24216
0.853279
9.76598
9.29697
8.825
8.34787
7.86298
7.36709
6.85599
6.32398
5.76304
5.1616
4.50256
3.76067
2.90019
1.8779
0.667171
9.75483
9.26338
8.76856
8.26787
7.75841
7.23667
6.6982
6.13719
5.5459
4.91384
4.2269
3.46677
2.61202
1.6445
0.566901
9.74445
9.23215
8.7162
8.19395
7.66237
7.11787
6.55605
5.97143
5.35706
4.70418
4.00208
3.23857
2.40215
1.48755
0.505659
9.73489
9.20344
8.66822
8.12651
7.5753
7.01108
6.42974
5.82633
5.19495
4.52871
3.8199
3.06098
2.24658
1.37731
0.464852
9.7262
9.17735
8.62473
8.06568
7.49726
6.91619
6.31874
5.70064
5.05707
4.38278
3.67252
2.92193
2.12912
1.29708
0.436016
9.71836
9.15387
8.58572
8.01134
7.42799
6.83267
6.22208
5.59264
4.9405
4.26183
3.55315
2.81218
2.0389
1.23699
0.414801
9.71136
9.13294
8.55103
7.96324
7.36704
6.75974
6.13851
5.50039
4.84238
4.16171
3.45621
2.72486
1.96858
1.19097
0.398736
9.70517
9.11442
8.52043
7.92098
7.31379
6.69649
6.06668
5.42194
4.75998
4.07884
3.37721
2.65485
1.91306
1.1551
0.38631
9.69972
9.09816
8.49362
7.8841
7.26755
6.64194
6.00522
5.35545
4.69089
4.01019
3.31261
2.59833
1.86877
1.12676
0.376543
9.69495
9.08396
8.47027
7.85208
7.22761
6.59509
5.95281
5.29923
4.63302
3.95326
3.25959
2.55243
1.83313
1.10411
0.368769
9.69081
9.07163
8.45004
7.82444
7.19327
6.55501
5.90826
5.25178
4.58456
3.90599
3.21595
2.51495
1.80424
1.08585
0.36252
9.68723
9.06098
8.43259
7.80066
7.16384
6.52083
5.87047
5.21177
4.54398
3.86669
3.17992
2.48422
1.78068
1.07103
0.357458
9.68415
9.05182
8.4176
7.78029
7.1387
6.49175
5.83847
5.17808
4.51
3.83397
3.1501
2.45891
1.76138
1.05892
0.35333
9.6815
9.04396
8.40477
7.76288
7.11728
6.46706
5.81142
5.14971
4.48153
3.8067
3.12537
2.43801
1.74549
1.04898
0.349947
9.67924
9.03724
8.39381
7.74804
7.09908
6.44614
5.78857
5.12586
4.45768
3.78394
3.1048
2.42071
1.73237
1.04079
0.347163
9.67731
9.03151
8.38447
7.73543
7.08363
6.42843
5.76929
5.10579
4.43769
3.76493
3.08769
2.40634
1.72151
1.03402
0.344864
9.67566
9.02663
8.37654
7.72472
7.07054
6.41347
5.75304
5.08892
4.42093
3.74905
3.07342
2.3944
1.7125
1.02841
0.342959
9.67427
9.02249
8.36981
7.71565
7.05947
6.40083
5.73934
5.07474
4.40688
3.73575
3.06151
2.38444
1.705
1.02375
0.341379
9.67308
9.01898
8.36411
7.70797
7.05012
6.39017
5.72781
5.06282
4.39509
3.72463
3.05156
2.37614
1.69876
1.01987
0.340064
9.67208
9.01601
8.35928
7.70148
7.04222
6.38118
5.7181
5.0528
4.3852
3.71531
3.04324
2.36921
1.69355
1.01664
0.338968
9.67123
9.0135
8.35521
7.696
7.03556
6.37361
5.70993
5.04439
4.37691
3.7075
3.03628
2.36342
1.6892
1.01395
0.338055
9.67051
9.01138
8.35176
7.69138
7.02994
6.36723
5.70306
5.03732
4.36995
3.70096
3.03045
2.35858
1.68557
1.01169
0.337292
9.66991
9.00959
8.34886
7.68748
7.02521
6.36186
5.69729
5.03138
4.36411
3.69548
3.02557
2.35453
1.68253
1.00981
0.336654
9.6694
9.00808
8.34642
7.6842
7.02123
6.35735
5.69243
5.0264
4.35921
3.69088
3.02149
2.35113
1.67998
1.00824
0.336121
9.66897
9.00681
8.34436
7.68144
7.01788
6.35355
5.68836
5.02221
4.3551
3.68703
3.01806
2.34829
1.67786
1.00692
0.335675
9.66861
9.00574
8.34263
7.67911
7.01507
6.35037
5.68493
5.0187
4.35165
3.6838
3.0152
2.34592
1.67608
1.00582
0.335303
9.6683
9.00484
8.34117
7.67716
7.0127
6.34769
5.68206
5.01576
4.34877
3.6811
3.0128
2.34393
1.67459
1.0049
0.334991
9.66805
9.00409
8.33995
7.67553
7.01072
6.34545
5.67966
5.01329
4.34635
3.67884
3.01079
2.34226
1.67334
1.00413
0.33473
9.66784
9.00346
8.33893
7.67416
7.00906
6.34358
5.67764
5.01123
4.34433
3.67695
3.00911
2.34087
1.6723
1.00349
0.334512
9.66766
9.00293
8.33807
7.67301
7.00768
6.34201
5.67596
5.00951
4.34264
3.67537
3.00771
2.33971
1.67144
1.00295
0.334331
9.66751
9.00249
8.33736
7.67206
7.00652
6.3407
5.67456
5.00808
4.34124
3.67406
3.00655
2.33875
1.67072
1.0025
0.33418
9.66739
9.00212
8.33677
7.67127
7.00557
6.33962
5.6734
5.00689
4.34008
3.67297
3.00558
2.33795
1.67012
1.00213
0.334055
9.66728
9.00182
8.33628
7.67062
7.00478
6.33873
5.67245
5.00591
4.33912
3.67207
3.00479
2.3373
1.66963
1.00183
0.333953
9.6672
9.00158
8.33589
7.67008
7.00413
6.338
5.67167
5.00511
4.33834
3.67134
3.00414
2.33676
1.66923
1.00158
0.333869
9.66713
9.00138
8.33557
7.66965
7.00361
6.33742
5.67104
5.00447
4.33771
3.67075
3.00362
2.33633
1.6689
1.00138
0.333801
9.66708
9.00122
8.33531
7.66932
7.0032
6.33695
5.67054
5.00396
4.33721
3.67029
3.00321
2.33599
1.66865
1.00123
0.333748
9.66704
9.0011
8.33512
7.66906
7.00289
6.3366
5.67016
5.00358
4.33683
3.66993
3.00289
2.33573
1.66846
1.00111
0.333707
9.66701
9.00102
8.33498
7.66887
7.00267
6.33634
5.66989
5.0033
4.33656
3.66968
3.00267
2.33554
1.66832
1.00102
0.333678
9.66699
9.00096
8.33489
7.66875
7.00252
6.33618
5.66971
5.00312
4.33638
3.66951
3.00252
2.33542
1.66823
1.00096
0.333659
9.66698
9.00094
8.33485
7.66869
7.00245
6.3361
5.66963
5.00303
4.3363
3.66944
3.00245
2.33536
1.66818
1.00094
0.33365
9.66698
9.00094
8.33485
7.6687
7.00246
6.33611
5.66964
5.00304
4.33631
3.66944
3.00246
2.33537
1.66819
1.00094
0.333651
9.66699
9.00097
8.3349
7.66877
7.00254
6.3362
5.66974
5.00314
4.3364
3.66954
3.00254
2.33544
1.66824
1.00097
0.333662
9.66701
9.00103
8.335
7.6689
7.0027
6.33638
5.66993
5.00333
4.3366
3.66971
3.0027
2.33557
1.66833
1.00103
0.333682
9.66705
9.00112
8.33515
7.66909
7.00294
6.33665
5.67022
5.00363
4.33689
3.66998
3.00294
2.33576
1.66848
1.00112
0.333713
9.66709
9.00125
8.33535
7.66937
7.00326
6.33702
5.67061
5.00404
4.33728
3.67036
3.00327
2.33604
1.66869
1.00125
0.333756
9.66714
9.00141
8.33561
7.66972
7.00369
6.3375
5.67113
5.00457
4.3378
3.67084
3.0037
2.33639
1.66895
1.00141
0.333811
9.66721
9.00161
8.33595
7.67016
7.00423
6.33811
5.67178
5.00523
4.33845
3.67145
3.00424
2.33684
1.66929
1.00162
0.333881
9.6673
9.00187
8.33636
7.67072
7.0049
6.33886
5.67259
5.00606
4.33926
3.67221
3.00491
2.33739
1.6697
1.00188
0.333968
9.6674
9.00218
8.33686
7.67139
7.00571
6.33979
5.67358
5.00707
4.34025
3.67313
3.00573
2.33807
1.67021
1.00219
0.334074
9.66753
9.00256
8.33747
7.67221
7.0067
6.3409
5.67478
5.00829
4.34145
3.67425
3.00672
2.33889
1.67082
1.00257
0.334203
9.66768
9.00301
8.33821
7.67319
7.00789
6.34225
5.67622
5.00977
4.3429
3.6756
3.00792
2.33989
1.67157
1.00303
0.334358
9.66787
9.00355
8.33909
7.67437
7.00932
6.34386
5.67795
5.01154
4.34463
3.67723
3.00936
2.34108
1.67246
1.00358
0.334544
9.66809
9.00421
8.34014
7.67578
7.01103
6.3458
5.68002
5.01367
4.34671
3.67917
3.01109
2.34251
1.67353
1.00424
0.334768
9.66835
9.00498
8.3414
7.67747
7.01307
6.3481
5.6825
5.0162
4.3492
3.6815
3.01315
2.34422
1.67481
1.00503
0.335036
9.66866
9.00591
8.3429
7.67948
7.0155
6.35086
5.68546
5.01923
4.35217
3.68428
3.01562
2.34626
1.67634
1.00598
0.335357
9.66904
9.00701
8.34468
7.68187
7.0184
6.35414
5.68898
5.02285
4.35572
3.6876
3.01857
2.34871
1.67817
1.00711
0.33574
9.66948
9.00832
8.34681
7.68472
7.02185
6.35805
5.69318
5.02715
4.35994
3.69156
3.02208
2.35162
1.68035
1.00846
0.336197
9.67001
9.00988
8.34933
7.6881
7.02596
6.3627
5.69818
5.03228
4.36498
3.69629
3.02628
2.35511
1.68296
1.01008
0.336744
9.67063
9.01172
8.35232
7.69212
7.03083
6.36823
5.70412
5.03839
4.37099
3.70192
3.03129
2.35927
1.68608
1.01201
0.337398
9.67137
9.01392
8.35588
7.69689
7.03662
6.3748
5.7112
5.04567
4.37814
3.70864
3.03727
2.36424
1.6898
1.01432
0.33818
9.67225
9.01651
8.36009
7.70255
7.0435
6.38261
5.71961
5.05433
4.38667
3.71666
3.04442
2.37017
1.69426
1.01708
0.339115
9.67329
9.01958
8.36508
7.70925
7.05165
6.39188
5.72961
5.06463
4.39683
3.72622
3.05295
2.37727
1.69959
1.02039
0.340235
9.67451
9.02322
8.37098
7.71719
7.06132
6.40288
5.74149
5.0769
4.40894
3.73764
3.06314
2.38577
1.70598
1.02435
0.341579
9.67596
9.02751
8.37795
7.72658
7.07276
6.41592
5.75561
5.09149
4.42338
3.75127
3.07534
2.39595
1.71363
1.0291
0.343192
9.67767
9.03257
8.38617
7.73767
7.0863
6.43138
5.77237
5.10885
4.44059
3.76756
3.08994
2.40815
1.72283
1.03482
0.345132
9.67967
9.03852
8.39587
7.75076
7.1023
6.44969
5.79226
5.12951
4.46112
3.78703
3.10744
2.42281
1.73389
1.04171
0.34747
9.68203
9.04552
8.40727
7.76617
7.12117
6.47134
5.81584
5.15407
4.48561
3.81033
3.12843
2.44043
1.74723
1.05002
0.350294
9.6848
9.05372
8.42064
7.78428
7.14341
6.49691
5.84379
5.18328
4.51483
3.83823
3.15366
2.46168
1.76334
1.06008
0.353715
9.68802
9.0633
8.4363
7.80553
7.16957
6.52708
5.87688
5.21799
4.5497
3.87168
3.18402
2.48735
1.78286
1.0723
0.357876
9.69178
9.07447
8.45457
7.83038
7.20025
6.5626
5.916
5.25923
4.59134
3.91181
3.22063
2.51845
1.80661
1.0872
0.362957
9.69614
9.08744
8.47583
7.85936
7.23615
6.60433
5.96219
5.30818
4.64106
3.96002
3.26489
2.55624
1.83561
1.10547
0.369195
9.70117
9.10244
8.50045
7.89303
7.27801
6.65324
6.01662
5.36624
4.70044
4.01803
3.31852
2.60237
1.87121
1.12798
0.376906
9.70696
9.11969
8.52884
7.93198
7.32666
6.71037
6.08062
5.435
4.77135
4.08791
3.38372
2.65892
1.91518
1.15596
0.386514
9.71357
9.13943
8.56139
7.97681
7.38291
6.77684
6.15562
5.5163
4.85598
4.1722
3.46322
2.72862
1.96991
1.19103
0.398609
9.72108
9.16187
8.5985
8.0281
7.44762
6.85381
6.24321
5.61216
4.95692
4.27399
3.56051
2.81508
2.03863
1.23551
0.414035
9.72954
9.18719
8.64049
8.08639
7.52158
6.94245
6.345
5.72481
5.07709
4.39698
3.68
2.92306
2.12586
1.29273
0.43404
9.739
9.21554
8.68763
8.1521
7.60548
7.04381
6.46259
5.85656
5.21976
4.54557
3.82724
3.059
2.23805
1.36771
0.460565
9.74947
9.24697
8.74005
8.22553
7.69982
7.15876
6.59739
6.00969
5.38838
4.7248
4.00914
3.23152
2.38455
1.46824
0.496804
9.76095
9.28146
8.79775
8.30672
7.80481
7.28781
6.75046
6.18615
5.58635
4.94019
4.23407
3.45221
2.57919
1.60704
0.54844
9.77338
9.31889
8.86053
8.39545
7.9203
7.43098
6.92227
6.38724
5.81652
5.19721
4.51161
3.73618
2.84267
1.80588
0.626657
9.78669
9.359
8.92799
8.49117
8.04561
7.58761
7.11233
6.61311
6.08042
5.50027
4.8515
4.10215
3.20565
2.10362
0.756327
9.80075
9.40141
8.99946
8.59296
8.17955
7.75625
7.31903
6.8622
6.37728
5.85096
5.26125
4.57029
3.71136
2.57168
1.00083
9.81539
9.44562
9.07411
8.69955
8.32036
7.93454
7.53933
7.1308
6.70289
6.24565
5.74131
5.15507
4.41203
3.33914
1.5445
9.83043
9.49103
9.15086
8.80934
8.46578
8.11933
7.76888
7.41284
7.04886
6.67304
6.27823
5.84871
5.34176
4.60782
2.98703
9.84564
9.53699
9.22856
8.92054
8.61319
8.30691
8.0023
7.70039
7.40303
7.11362
6.83922
6.59611
6.4291
6.49233
7.45265
9.8608
9.58278
9.30596
9.03127
8.75986
8.49331
8.23382
7.98479
7.75165
7.54377
7.37848
7.29064
7.35652
7.75385
8.88632
9.87569
9.62774
9.38188
9.1397
8.90316
8.67478
8.45808
8.25813
8.08272
7.94432
7.86393
7.87839
8.05375
8.50483
9.3988
0.123183
0.221005
0.263788
0.279763
0.28011
0.270341
0.253604
0.23188
0.206503
0.178416
0.148313
0.116728
0.0840807
0.0507213
0.0169517
0.066138
0.151507
0.19951
0.223248
0.231081
0.228066
0.21737
0.201087
0.180661
0.157134
0.131284
0.103713
0.0749054
0.0452635
0.0151403
0.0416669
0.107955
0.15208
0.177776
0.189585
0.191121
0.185016
0.173169
0.156972
0.137465
0.115449
0.0915578
0.0663085
0.0401396
0.013438
0.0290325
0.0797944
0.117448
0.141946
0.155222
0.159481
0.156647
0.148271
0.13558
0.119537
0.100916
0.0803445
0.0583498
0.0353852
0.0118567
0.0214697
0.0607355
0.0919522
0.113907
0.127121
0.132766
0.132124
0.12637
0.116513
0.103399
0.0877352
0.0701192
0.0510641
0.0310221
0.0104039
0.0164579
0.0472658
0.0728871
0.0919377
0.104274
0.110415
0.111151
0.107318
0.0997079
0.0890307
0.0759099
0.0608926
0.0444635
0.0270591
0.00908253
0.01291
0.0373976
0.0583845
0.0746307
0.0857274
0.0918189
0.0933488
0.0908872
0.085032
0.0763587
0.0654009
0.0526462
0.0385398
0.0234931
0.00789204
0.0102871
0.02996
0.0471737
0.0608992
0.0706563
0.0763894
0.0783179
0.0768128
0.0723125
0.0652726
0.0561394
0.0453379
0.0332689
0.0203117
0.00682862
0.0082899
0.0242302
0.0383847
0.0499232
0.058379
0.0636014
0.065671
0.0648178
0.0613559
0.0556397
0.048036
0.0389094
0.0286146
0.0174955
0.00588607
0.00673676
0.0197404
0.0314122
0.0410875
0.0483468
0.0530023
0.0550534
0.0546339
0.0519644
0.047317
0.04099
0.0332918
0.0245326
0.0150197
0.00505646
0.00550989
0.0161752
0.0258258
0.0339294
0.0401224
0.0442114
0.0461512
0.0460119
0.043946
0.0401604
0.0348957
0.0284108
0.0209738
0.0128564
0.00433078
0.00452916
0.0133146
0.0213134
0.0280979
0.0333587
0.0369126
0.0386925
0.0387276
0.0371214
0.0340308
0.0296486
0.0241908
0.0178874
0.0109764
0.0036995
0.00373788
0.0110002
0.0176441
0.0233243
0.0277802
0.0308456
0.032445
0.0325827
0.0313275
0.0287978
0.0251481
0.0205577
0.0152229
0.00935036
0.00315299
0.00309476
0.00911525
0.0146439
0.0194006
0.0231671
0.0257963
0.0272124
0.0274048
0.0264184
0.0243425
0.0213006
0.0174415
0.0129317
0.00794983
0.00268187
0.00256901
0.00757175
0.0121797
0.0161645
0.0193437
0.0215892
0.0228294
0.0230454
0.0222657
0.0205577
0.0180204
0.014777
0.0109684
0.00674789
0.00227726
0.00213717
0.00630235
0.0101482
0.0134876
0.0161684
0.0180802
0.0191574
0.0193774
0.0187574
0.0173486
0.0152305
0.012505
0.00929087
0.00571962
0.00193088
0.00178113
0.00525468
0.00846824
0.011268
0.013527
0.0151507
0.0160804
0.0162925
0.0157968
0.014632
0.0128624
0.0105721
0.00786135
0.00484233
0.00163518
0.00148667
0.00438752
0.00707556
0.00942396
0.0113266
0.0127031
0.0135016
0.0136992
0.0133005
0.0123355
0.0108557
0.008931
0.00664587
0.00409565
0.00138339
0.00124255
0.00366811
0.0059187
0.00788938
0.00949147
0.0106568
0.01134
0.0115198
0.0111975
0.0103962
0.00915781
0.00754021
0.00561442
0.00346147
0.00116943
0.00103975
0.00307017
0.00495618
0.00661071
0.00795961
0.00894511
0.00952807
0.00968883
0.00942705
0.00876049
0.00772322
0.00636338
0.00474069
0.00292385
0.000987985
0.000871034
0.00257249
0.00415436
0.00554424
0.00668005
0.00751293
0.00800921
0.00815127
0.00793763
0.00738212
0.00651258
0.00536904
0.00400174
0.00246887
0.000834378
0.000730515
0.00215783
0.00348583
0.00465416
0.0056108
0.00631446
0.00673627
0.00686067
0.00668555
0.00622177
0.00549216
0.00453006
0.00337774
0.00208445
0.000704555
0.0006134
0.00181214
0.00292816
0.00391105
0.00471718
0.00531166
0.00566981
0.00577801
0.00563388
0.005246
0.00463313
0.00382315
0.00285159
0.00176017
0.000595014
0.000515765
0.00152388
0.00246291
0.00329068
0.00397051
0.00447293
0.00477689
0.00487054
0.00475144
0.00442641
0.00391097
0.00322841
0.00240868
0.00148706
0.000502743
0.000434391
0.00128357
0.00207491
0.00277301
0.00334701
0.00377198
0.00402999
0.00411077
0.00401196
0.00373903
0.00330483
0.0027289
0.00203649
0.0012575
0.000425168
0.000366627
0.00108342
0.00175164
0.0023415
0.00282697
0.00318695
0.00340614
0.00347569
0.00339337
0.0031636
0.00279709
0.00231025
0.00172443
0.00106495
0.000360094
0.00031029
0.000917002
0.00148277