/*--------------------------------*- C++ -*----------------------------------*\
| =========                 |                                                 |
| \\      /  F ield         | OpenFOAM: The Open Source CFD Toolbox           |
|  \\    /   O peration     | Version:  5.x                                   |
|   \\  /    A nd           | Web:      www.OpenFOAM.org                      |
|    \\/     M anipulation  |                                                 |
\*---------------------------------------------------------------------------*/
FoamFile
{
    version     2.0;
    format      ascii;
    class       volScalarField;
    location    "1.5";
    object      gradTx;
}
// * * * * * * * * * * * * * * * * * * * * * * * * * * * * * * * * * * * * * //

dimensions      [0 -1 0 1 0 0 0];

internalField   nonuniform List<scalar> 
3200
(
2.47739
-0.0760356
-0.23542
-0.242699
-0.224719
-0.221615
-0.174337
-0.17045
-0.134934
-0.21342
-0.10223
-0.0770024
-0.0743994
-0.059198
-0.0577735
-0.0463218
-0.0452573
-0.0363839
-0.0355562
-0.0285951
-0.0279441
-0.0224471
-0.0219325
-0.0175784
-0.0171707
-0.0137199
-0.013397
-0.010665
-0.0104095
-0.00825156
-0.00805006
-0.00635079
-0.00619238
-0.0048594
-0.00473536
-0.00369422
-0.00359753
-0.00278821
-0.00271322
-0.00208737
-0.00202953
-0.00154831
-0.00150395
-0.00113628
-0.00110249
-0.000823598
-0.000798134
-0.000588662
-0.000571096
-0.00042528
-0.000644738
-0.000292136
-0.000193496
-0.000183693
-0.000124404
-0.000119087
-7.86011e-05
-7.50645e-05
-4.81152e-05
-4.57962e-05
-2.85042e-05
-2.70369e-05
-1.63622e-05
-1.54678e-05
-9.11654e-06
-8.59006e-06
-4.93273e-06
-4.63214e-06
-2.58242e-06
-2.41494e-06
-1.28961e-06
-1.1958e-06
-5.42299e-07
-4.89369e-07
-1.35593e-07
-1.11377e-07
-7.20062e-09
-1.3161e-09
-2.97807e-10
4.01164e-08
2.47001
-0.0869592
-0.22079
-0.237555
-0.224618
-0.21767
-0.177924
-0.169263
-0.143525
-0.196602
-0.108725
-0.0803249
-0.073925
-0.0604317
-0.0571102
-0.0471863
-0.0447208
-0.0370476
-0.0351316
-0.0291143
-0.0276076
-0.0228566
-0.0216655
-0.0179027
-0.0169591
-0.0139769
-0.0132295
-0.0108686
-0.0102774
-0.00841252
-0.00794619
-0.00647767
-0.00611107
-0.00495905
-0.004672
-0.00377217
-0.00354841
-0.00284889
-0.00267534
-0.00213438
-0.00200049
-0.00158452
-0.00148185
-0.00116401
-0.0010858
-0.000844726
-0.000785831
-0.000605424
-0.000565533
-0.000453128
-0.000594336
-0.00031159
-0.000205503
-0.000181629
-0.000129261
-0.000116877
-8.17762e-05
-7.3581e-05
-5.02395e-05
-4.48668e-05
-2.98804e-05
-2.64796e-05
-1.72198e-05
-1.5146e-05
-9.63122e-06
-8.41e-06
-5.23127e-06
-4.53373e-06
-2.75066e-06
-2.36183e-06
-1.38145e-06
-1.16365e-06
-5.9598e-07
-4.73248e-07
-1.66681e-07
-1.10414e-07
-1.76699e-08
-3.75349e-09
-8.6236e-10
3.99287e-08
2.46396
-0.0938659
-0.210843
-0.233598
-0.224277
-0.215036
-0.180267
-0.168759
-0.148963
-0.185423
-0.11284
-0.0827669
-0.0737338
-0.0612582
-0.0567108
-0.0477522
-0.0443923
-0.0374807
-0.0348709
-0.0294529
-0.0274007
-0.0231235
-0.0215013
-0.018114
-0.0168289
-0.0141445
-0.0131265
-0.0110013
-0.0101962
-0.00851748
-0.00788237
-0.00656044
-0.00606114
-0.00502408
-0.00463312
-0.00382305
-0.00351829
-0.00288852
-0.00265213
-0.00216509
-0.00198272
-0.00160819
-0.00146833
-0.00118214
-0.00107562
-0.00085856
-0.000778383
-0.000616562
-0.000562867
-0.000470827
-0.00056089
-0.000323975
-0.000214221
-0.000180702
-0.000132519
-0.000115575
-8.38744e-05
-7.27028e-05
-5.16447e-05
-4.43216e-05
-3.07928e-05
-2.61565e-05
-1.77899e-05
-1.49618e-05
-9.97408e-06
-8.30818e-06
-5.43051e-06
-4.47872e-06
-2.8631e-06
-2.33235e-06
-1.44277e-06
-1.14549e-06
-6.31858e-07
-4.64476e-07
-1.87755e-07
-1.10909e-07
-2.49852e-08
-5.74947e-09
-1.33927e-09
3.97693e-08
2.45971
-0.0979059
-0.204664
-0.230923
-0.223932
-0.213421
-0.181678
-0.168584
-0.152149
-0.178603
-0.115253
-0.0843663
-0.0736795
-0.0617669
-0.0564872
-0.0480937
-0.0442054
-0.0377414
-0.0347222
-0.0296565
-0.0272826
-0.0232841
-0.0214075
-0.0182411
-0.0167545
-0.0142452
-0.0130676
-0.0110811
-0.0101498
-0.00858061
-0.00784594
-0.00661023
-0.00603265
-0.00506322
-0.00461096
-0.00385367
-0.00350113
-0.00291238
-0.00263893
-0.00218359
-0.00197262
-0.00162245
-0.00146066
-0.00119307
-0.00106984
-0.00086691
-0.000774193
-0.000623367
-0.000561728
-0.000481237
-0.000540518
-0.00033127
-0.000219886
-0.000180361
-0.000134524
-0.000114862
-8.51503e-05
-7.22193e-05
-5.24998e-05
-4.40241e-05
-3.13492e-05
-2.59823e-05
-1.81382e-05
-1.48638e-05
-1.01839e-05
-8.25474e-06
-5.55265e-06
-4.4502e-06
-2.9321e-06
-2.31721e-06
-1.48037e-06
-1.13597e-06
-6.53876e-07
-4.60071e-07
-2.0083e-07
-1.11764e-07
-2.96318e-08
-7.15178e-09
-1.68325e-09
3.96535e-08
2.45752
-0.0997662
-0.201703
-0.229576
-0.223725
-0.212654
-0.182341
-0.168541
-0.153619
-0.175374
-0.116366
-0.0851567
-0.0736734
-0.0620094
-0.0563876
-0.0482544
-0.0441211
-0.0378639
-0.0346549
-0.0297521
-0.0272291
-0.0233594
-0.021365
-0.0183007
-0.0167208
-0.0142925
-0.013041
-0.0111186
-0.0101288
-0.00861025
-0.00782945
-0.00663361
-0.00601977
-0.00508159
-0.00460093
-0.00386806
-0.00349338
-0.0029236
-0.00263297
-0.00219228
-0.00196806
-0.00162915
-0.0014572
-0.00119821
-0.00106724
-0.000870839
-0.000772317
-0.000626595
-0.000561336
-0.00048605
-0.000530882
-0.000334646
-0.000222673
-0.000180268
-0.000135481
-0.00011455
-8.57537e-05
-7.20063e-05
-5.29044e-05
-4.3894e-05
-3.16128e-05
-2.59069e-05
-1.83034e-05
-1.48218e-05
-1.02836e-05
-8.23208e-06
-5.61071e-06
-4.43824e-06
-2.96493e-06
-2.3109e-06
-1.49825e-06
-1.13194e-06
-6.6435e-07
-4.58275e-07
-2.07092e-07
-1.12339e-07
-3.18906e-08
-7.87286e-09
-1.86312e-09
3.95928e-08
2.45752
-0.0997672
-0.201703
-0.229576
-0.223725
-0.212654
-0.182341
-0.168541
-0.153619
-0.175374
-0.116366
-0.0851567
-0.0736734
-0.0620095
-0.0563876
-0.0482544
-0.0441211
-0.0378639
-0.0346549
-0.0297521
-0.0272291
-0.0233594
-0.021365
-0.0183007
-0.0167208
-0.0142925
-0.013041
-0.0111186
-0.0101288
-0.00861025
-0.00782945
-0.00663361
-0.00601977
-0.00508159
-0.00460093
-0.00386806
-0.00349338
-0.0029236
-0.00263297
-0.00219228
-0.00196806
-0.00162915
-0.0014572
-0.00119821
-0.00106724
-0.000870839
-0.000772317
-0.000626595
-0.000561336
-0.00048605
-0.000530882
-0.000334646
-0.000222672
-0.000180268
-0.000135481
-0.00011455
-8.57537e-05
-7.20063e-05
-5.29044e-05
-4.3894e-05
-3.16128e-05
-2.59068e-05
-1.83034e-05
-1.48218e-05
-1.02836e-05
-8.23208e-06
-5.61071e-06
-4.43824e-06
-2.96493e-06
-2.3109e-06
-1.49825e-06
-1.13194e-06
-6.64349e-07
-4.58275e-07
-2.07092e-07
-1.12339e-07
-3.18905e-08
-7.87278e-09
-1.86307e-09
3.95928e-08
2.45971
-0.0979087
-0.204664
-0.230923
-0.223932
-0.213421
-0.181678
-0.168584
-0.15215
-0.178603
-0.115253
-0.0843663
-0.0736795
-0.0617669
-0.0564872
-0.0480937
-0.0442054
-0.0377415
-0.0347222
-0.0296565
-0.0272826
-0.0232841
-0.0214075
-0.0182411
-0.0167545
-0.0142452
-0.0130677
-0.0110811
-0.0101498
-0.00858061
-0.00784594
-0.00661023
-0.00603265
-0.00506322
-0.00461096
-0.00385368
-0.00350113
-0.00291239
-0.00263893
-0.00218359
-0.00197262
-0.00162245
-0.00146066
-0.00119307
-0.00106984
-0.00086691
-0.000774193
-0.000623367
-0.000561728
-0.000481237
-0.000540518
-0.00033127
-0.000219886
-0.000180361
-0.000134524
-0.000114862
-8.51503e-05
-7.22193e-05
-5.24998e-05
-4.40241e-05
-3.13492e-05
-2.59823e-05
-1.81382e-05
-1.48638e-05
-1.01839e-05
-8.25473e-06
-5.55265e-06
-4.4502e-06
-2.9321e-06
-2.31721e-06
-1.48037e-06
-1.13597e-06
-6.53875e-07
-4.6007e-07
-2.00829e-07
-1.11764e-07
-2.96314e-08
-7.15157e-09
-1.68312e-09
3.96536e-08
2.46397
-0.0938695
-0.210844
-0.233599
-0.224278
-0.215036
-0.180267
-0.168759
-0.148963
-0.185423
-0.11284
-0.0827669
-0.0737338
-0.0612582
-0.0567108
-0.0477522
-0.0443923
-0.0374807
-0.0348709
-0.0294529
-0.0274008
-0.0231236
-0.0215013
-0.018114
-0.0168289
-0.0141445
-0.0131265
-0.0110013
-0.0101962
-0.00851748
-0.00788237
-0.00656044
-0.00606114
-0.00502409
-0.00463312
-0.00382305
-0.00351829
-0.00288852
-0.00265213
-0.00216509
-0.00198272
-0.00160819
-0.00146833
-0.00118214
-0.00107562
-0.00085856
-0.000778383
-0.000616562
-0.000562867
-0.000470827
-0.00056089
-0.000323975
-0.000214221
-0.000180702
-0.000132519
-0.000115575
-8.38743e-05
-7.27028e-05
-5.16447e-05
-4.43216e-05
-3.07928e-05
-2.61565e-05
-1.77899e-05
-1.49618e-05
-9.97407e-06
-8.30818e-06
-5.43051e-06
-4.47871e-06
-2.86309e-06
-2.33235e-06
-1.44276e-06
-1.14549e-06
-6.31856e-07
-4.64474e-07
-1.87754e-07
-1.10908e-07
-2.49848e-08
-5.74919e-09
-1.3391e-09
3.97693e-08
2.47002
-0.0869624
-0.220791
-0.237555
-0.224619
-0.21767
-0.177925
-0.169263
-0.143525
-0.196603
-0.108725
-0.0803249
-0.073925
-0.0604317
-0.0571103
-0.0471863
-0.0447208
-0.0370476
-0.0351316
-0.0291143
-0.0276076
-0.0228566
-0.0216655
-0.0179027
-0.0169591
-0.013977
-0.0132295
-0.0108686
-0.0102774
-0.00841252
-0.0079462
-0.00647768
-0.00611107
-0.00495906
-0.004672
-0.00377217
-0.00354841
-0.0028489
-0.00267534
-0.00213438
-0.00200049
-0.00158452
-0.00148185
-0.00116401
-0.0010858
-0.000844726
-0.000785831
-0.000605425
-0.000565533
-0.000453128
-0.000594336
-0.00031159
-0.000205503
-0.000181629
-0.000129261
-0.000116877
-8.17762e-05
-7.3581e-05
-5.02395e-05
-4.48668e-05
-2.98804e-05
-2.64796e-05
-1.72198e-05
-1.5146e-05
-9.63122e-06
-8.41e-06
-5.23126e-06
-4.53373e-06
-2.75065e-06
-2.36182e-06
-1.38144e-06
-1.16365e-06
-5.95979e-07
-4.73246e-07
-1.6668e-07
-1.10413e-07
-1.76695e-08
-3.75325e-09
-8.62209e-10
3.99288e-08
2.47739
-0.0760369
-0.23542
-0.242699
-0.224719
-0.221615
-0.174338
-0.17045
-0.134934
-0.21342
-0.10223
-0.0770024
-0.0743994
-0.059198
-0.0577735
-0.0463218
-0.0452573
-0.0363839
-0.0355562
-0.0285951
-0.0279441
-0.0224471
-0.0219325
-0.0175784
-0.0171707
-0.0137199
-0.013397
-0.010665
-0.0104096
-0.00825156
-0.00805006
-0.00635079
-0.00619238
-0.0048594
-0.00473536
-0.00369422
-0.00359754
-0.00278821
-0.00271322
-0.00208737
-0.00202953
-0.00154832
-0.00150395
-0.00113628
-0.00110249
-0.000823598
-0.000798134
-0.000588662
-0.000571096
-0.00042528
-0.000644738
-0.000292136
-0.000193496
-0.000183693
-0.000124404
-0.000119087
-7.86011e-05
-7.50645e-05
-4.81152e-05
-4.57962e-05
-2.85042e-05
-2.70369e-05
-1.63622e-05
-1.54678e-05
-9.11654e-06
-8.59006e-06
-4.93273e-06
-4.63213e-06
-2.58242e-06
-2.41494e-06
-1.28961e-06
-1.1958e-06
-5.42298e-07
-4.89368e-07
-1.35592e-07
-1.11376e-07
-7.20046e-09
-1.316e-09
-2.97746e-10
4.01164e-08
2.52687
-0.400278
-0.116042
-0.102583
-0.100086
-0.0996387
-0.100005
-0.10034
-0.100509
-0.175863
-0.0938364
-0.0828378
-0.0814863
-0.0733989
-0.0725399
-0.064549
-0.0637351
-0.0561215
-0.0553589
-0.0483383
-0.0476426
-0.0413178
-0.0406958
-0.0350928
-0.0345448
-0.0296425
-0.0291652
-0.0249169
-0.0245046
-0.0208509
-0.0204973
-0.017375
-0.0170736
-0.01442
-0.0141644
-0.0119205
-0.0117048
-0.00981653
-0.00963542
-0.00805383
-0.00790246
-0.00658413
-0.00645825
-0.00536488
-0.00526076
-0.00435893
-0.0042739
-0.00353691
-0.00347984
-0.00296299
-0.00483467
-0.00239775
-0.00189619
-0.00184275
-0.00152495
-0.00149467
-0.00124537
-0.00122208
-0.00102617
-0.00100797
-0.000855354
-0.000841225
-0.000723439
-0.000712523
-0.000621753
-0.000612799
-0.000532977
-0.000524139
-0.000435041
-0.000425393
-0.000328831
-0.00031955
-0.000239208
-0.000228404
-0.000100669
-8.98055e-05
-5.47427e-06
-9.75746e-07
-2.19872e-07
-1.59437e-05
2.51518
-0.360563
-0.137507
-0.10752
-0.101301
-0.100008
-0.100254
-0.101264
-0.105908
-0.161562
-0.0989595
-0.0846328
-0.0812337
-0.074016
-0.0720135
-0.0651105
-0.0632276
-0.0566601
-0.0548965
-0.0488391
-0.0472301
-0.0417718
-0.0403331
-0.0354967
-0.0342292
-0.0299972
-0.0288929
-0.025225
-0.0242712
-0.0211165
-0.0202985
-0.0176024
-0.0169051
-0.0146135
-0.0140222
-0.0120844
-0.0115855
-0.0099547
-0.0095357
-0.00816974
-0.00781953
-0.0066809
-0.00638965
-0.0054453
-0.00520441
-0.00442577
-0.00422942
-0.00359867
-0.00347304
-0.00314031
-0.00444893
-0.00254151
-0.00196432
-0.00183248
-0.00155048
-0.00147992
-0.00126408
-0.00121016
-0.00104085
-0.000998708
-0.000866815
-0.000834113
-0.000732285
-0.000707006
-0.000628343
-0.000607588
-0.00053831
-0.000517846
-0.000440978
-0.000418689
-0.00033573
-0.00031422
-0.000243808
-0.000218856
-0.000110251
-8.52748e-05
-1.32294e-05
-2.77745e-06
-6.36531e-07
-1.60833e-05
2.50561
-0.331901
-0.151249
-0.111507
-0.102319
-0.100316
-0.100472
-0.102041
-0.109265
-0.151991
-0.102151
-0.0859902
-0.0811334
-0.0744241
-0.0716828
-0.0654708
-0.0629073
-0.0570063
-0.0546056
-0.0491617
-0.0469714
-0.0420647
-0.0401061
-0.0357577
-0.0340321
-0.0302265
-0.028723
-0.0254244
-0.0241258
-0.0212885
-0.0201748
-0.0177497
-0.0168002
-0.014739
-0.0139339
-0.0121908
-0.0115114
-0.0100443
-0.00947379
-0.00824496
-0.0077681
-0.00674374
-0.00634713
-0.00549754
-0.00516954
-0.0044693
-0.0042023
-0.00364019
-0.0034745
-0.00325196
-0.0041918
-0.00263205
-0.00201462
-0.00182821
-0.00156755
-0.00147096
-0.00127632
-0.00120284
-0.00105043
-0.000993034
-0.000874302
-0.000829761
-0.000738065
-0.000703621
-0.000632612
-0.000604314
-0.000541686
-0.000513806
-0.000444729
-0.000414409
-0.000340169
-0.000310843
-0.000246587
-0.000212652
-0.000116487
-8.26263e-05
-1.85203e-05
-4.2465e-06
-9.88244e-07
-1.62019e-05
2.4989
-0.31333
-0.159354
-0.11427
-0.103048
-0.100536
-0.100632
-0.102591
-0.111201
-0.146122
-0.103995
-0.0868947
-0.0811066
-0.0746729
-0.0714903
-0.0656846
-0.0627199
-0.0572119
-0.054436
-0.0493538
-0.0468209
-0.0422393
-0.0399744
-0.0359134
-0.0339178
-0.0303635
-0.0286247
-0.0255436
-0.0240417
-0.0213913
-0.0201032
-0.0178378
-0.0167397
-0.0148141
-0.0138829
-0.0122544
-0.0114686
-0.010098
-0.00943813
-0.00829003
-0.00773848
-0.0067814
-0.00632267
-0.00552886
-0.0051495
-0.00449544
-0.00418694
-0.00366583
-0.0034782
-0.00331707
-0.00403463
-0.00268486
-0.00204765
-0.00182689
-0.00157804
-0.00146591
-0.00128369
-0.00119868
-0.00105619
-0.000989804
-0.000878812
-0.000827287
-0.000741547
-0.00070169
-0.000635166
-0.000602407
-0.000543668
-0.000511408
-0.000446924
-0.000411881
-0.000342807
-0.000308861
-0.000248152
-0.000208936
-0.000120229
-8.11865e-05
-2.18173e-05
-5.27458e-06
-1.24173e-06
-1.6288e-05
2.49544
-0.304207
-0.163103
-0.115679
-0.103428
-0.100651
-0.100717
-0.102875
-0.112084
-0.143333
-0.104836
-0.0873458
-0.0811047
-0.0747908
-0.071402
-0.0657841
-0.0626337
-0.0573077
-0.054358
-0.0494433
-0.0467519
-0.0423208
-0.039914
-0.0359862
-0.0338656
-0.0304275
-0.0285798
-0.0255993
-0.0240033
-0.0214394
-0.0200706
-0.017879
-0.0167121
-0.0148492
-0.0138596
-0.0122842
-0.0114491
-0.0101232
-0.00942188
-0.00831113
-0.007725
-0.00679903
-0.00631154
-0.00554354
-0.0051404
-0.00450771
-0.00418003
-0.00367807
-0.00348079
-0.003347
-0.00396011
-0.00270913
-0.002064
-0.00182667
-0.00158303
-0.00146365
-0.00128715
-0.00119679
-0.0010589
-0.000988344
-0.000880932
-0.00082617
-0.000743183
-0.000700817
-0.000636361
-0.000601531
-0.000544582
-0.000510293
-0.000447936
-0.000410709
-0.000344036
-0.000307946
-0.000248853
-0.000207196
-0.000121983
-8.05585e-05
-2.34005e-05
-5.80185e-06
-1.37422e-06
-1.63332e-05
2.49544
-0.304208
-0.163103
-0.115679
-0.103428
-0.100651
-0.100717
-0.102875
-0.112084
-0.143333
-0.104836
-0.0873458
-0.0811047
-0.0747908
-0.071402
-0.0657841
-0.0626337
-0.0573077
-0.054358
-0.0494433
-0.0467519
-0.0423208
-0.039914
-0.0359862
-0.0338656
-0.0304275
-0.0285798
-0.0255993
-0.0240033
-0.0214394
-0.0200706
-0.017879
-0.0167121
-0.0148492
-0.0138596
-0.0122842
-0.0114491
-0.0101232
-0.00942188
-0.00831114
-0.007725
-0.00679903
-0.00631154
-0.00554354
-0.0051404
-0.00450771
-0.00418003
-0.00367807
-0.00348079
-0.003347
-0.00396011
-0.00270913
-0.002064
-0.00182667
-0.00158303
-0.00146365
-0.00128715
-0.00119679
-0.0010589
-0.000988345
-0.000880932
-0.000826171
-0.000743183
-0.000700817
-0.000636361
-0.000601531
-0.000544582
-0.000510293
-0.000447936
-0.000410709
-0.000344036
-0.000307946
-0.000248853
-0.000207196
-0.000121982
-8.05585e-05
-2.34005e-05
-5.80181e-06
-1.37421e-06
-1.63331e-05
2.4989
-0.313333
-0.159355
-0.114271
-0.103048
-0.100536
-0.100632
-0.102591
-0.111201
-0.146122
-0.103995
-0.0868947
-0.0811066
-0.0746729
-0.0714903
-0.0656847
-0.06272
-0.057212
-0.054436
-0.0493538
-0.046821
-0.0422393
-0.0399744
-0.0359135
-0.0339179
-0.0303635
-0.0286247
-0.0255436
-0.0240418
-0.0213913
-0.0201032
-0.0178378
-0.0167397
-0.0148141
-0.0138829
-0.0122544
-0.0114686
-0.010098
-0.00943813
-0.00829004
-0.00773849
-0.0067814
-0.00632268
-0.00552887
-0.00514951
-0.00449545
-0.00418694
-0.00366583
-0.0034782
-0.00331708
-0.00403463
-0.00268486
-0.00204765
-0.00182689
-0.00157804
-0.00146592
-0.00128369
-0.00119868
-0.00105619
-0.000989804
-0.000878813
-0.000827287
-0.000741547
-0.000701691
-0.000635166
-0.000602407
-0.000543668
-0.000511408
-0.000446924
-0.000411881
-0.000342807
-0.000308861
-0.000248151
-0.000208936
-0.000120229
-8.11863e-05
-2.18172e-05
-5.27449e-06
-1.2417e-06
-1.62879e-05
2.50562
-0.331904
-0.15125
-0.111507
-0.102319
-0.100316
-0.100472
-0.102041
-0.109265
-0.151991
-0.102151
-0.0859903
-0.0811335
-0.0744241
-0.0716828
-0.0654708
-0.0629073
-0.0570063
-0.0546056
-0.0491618
-0.0469714
-0.0420647
-0.0401061
-0.0357577
-0.0340321
-0.0302265
-0.028723
-0.0254244
-0.0241258
-0.0212885
-0.0201748
-0.0177497
-0.0168002
-0.014739
-0.0139339
-0.0121908
-0.0115114
-0.0100444
-0.0094738
-0.00824497
-0.0077681
-0.00674374
-0.00634714
-0.00549754
-0.00516954
-0.0044693
-0.0042023
-0.0036402
-0.0034745
-0.00325196
-0.00419181
-0.00263205
-0.00201462
-0.00182821
-0.00156755
-0.00147096
-0.00127632
-0.00120285
-0.00105043
-0.000993035
-0.000874303
-0.000829762
-0.000738066
-0.000703621
-0.000632613
-0.000604315
-0.000541687
-0.000513806
-0.000444729
-0.000414409
-0.000340169
-0.000310843
-0.000246587
-0.000212652
-0.000116486
-8.26261e-05
-1.85201e-05
-4.24638e-06
-9.8821e-07
-1.62018e-05
2.51519
-0.360566
-0.137508
-0.10752
-0.101301
-0.100008
-0.100254
-0.101264
-0.105908
-0.161562
-0.0989596
-0.0846328
-0.0812338
-0.074016
-0.0720136
-0.0651105
-0.0632277
-0.0566602
-0.0548965
-0.0488392
-0.0472302
-0.0417718
-0.0403331
-0.0354967
-0.0342293
-0.0299972
-0.0288929
-0.025225
-0.0242713
-0.0211165
-0.0202986
-0.0176024
-0.0169051
-0.0146135
-0.0140222
-0.0120845
-0.0115855
-0.00995471
-0.0095357
-0.00816974
-0.00781954
-0.00668091
-0.00638965
-0.0054453
-0.00520441
-0.00442578
-0.00422943
-0.00359867
-0.00347304
-0.00314031
-0.00444893
-0.00254151
-0.00196432
-0.00183248
-0.00155048
-0.00147992
-0.00126408
-0.00121016
-0.00104085
-0.000998708
-0.000866815
-0.000834114
-0.000732286
-0.000707007
-0.000628344
-0.000607589
-0.00053831
-0.000517846
-0.000440978
-0.000418689
-0.00033573
-0.00031422
-0.000243808
-0.000218856
-0.000110251
-8.52746e-05
-1.32292e-05
-2.77735e-06
-6.36503e-07
-1.60832e-05
2.52687
-0.400279
-0.116043
-0.102583
-0.100086
-0.0996387
-0.100006
-0.10034
-0.100509
-0.175863
-0.0938365
-0.0828378
-0.0814863
-0.0733989
-0.0725399
-0.0645491
-0.0637351
-0.0561216
-0.0553589
-0.0483383
-0.0476426
-0.0413178
-0.0406958
-0.0350928
-0.0345448
-0.0296426
-0.0291652
-0.0249169
-0.0245046
-0.0208509
-0.0204973
-0.017375
-0.0170736
-0.01442
-0.0141644
-0.0119205
-0.0117049
-0.00981653
-0.00963543
-0.00805383
-0.00790247
-0.00658414
-0.00645825
-0.00536488
-0.00526076
-0.00435893
-0.0042739
-0.00353691
-0.00347984
-0.00296299
-0.00483468
-0.00239775
-0.00189619
-0.00184275
-0.00152495
-0.00149467
-0.00124537
-0.00122208
-0.00102617
-0.00100797
-0.000855354
-0.000841225
-0.000723439
-0.000712523
-0.000621754
-0.0006128
-0.000532977
-0.000524139
-0.000435041
-0.000425393
-0.000328831
-0.00031955
-0.000239208
-0.000228404
-0.000100669
-8.98054e-05
-5.47421e-06
-9.75705e-07
-2.19863e-07
-1.59437e-05
2.51878
-0.400459
-0.115907
-0.102429
-0.0998699
-0.099417
-0.0997494
-0.100079
-0.100218
-0.175325
-0.0935338
-0.0825449
-0.0811953
-0.073114
-0.072256
-0.064276
-0.0634634
-0.0558644
-0.0551034
-0.0480998
-0.047406
-0.0410995
-0.0404795
-0.0348953
-0.0343493
-0.0294659
-0.0289904
-0.0247604
-0.0243499
-0.0207136
-0.0203617
-0.0172555
-0.0169557
-0.0143169
-0.0140628
-0.0118324
-0.011618
-0.00974174
-0.00956182
-0.00799084
-0.00784051
-0.00653147
-0.00640649
-0.00532115
-0.0052178
-0.00432283
-0.00423845
-0.00350724
-0.00345062
-0.00293788
-0.00479357
-0.00237729
-0.00187994
-0.00182694
-0.00151185
-0.00148183
-0.00123469
-0.0012116
-0.00101743
-0.000999384
-0.000848163
-0.000834166
-0.000717511
-0.000706704
-0.000616886
-0.000608031
-0.00052915
-0.000520409
-0.000432238
-0.000422679
-0.00032689
-0.000317684
-0.000238023
-0.000227288
-0.000100191
-8.93815e-05
-5.44834e-06
-9.71116e-07
-2.18828e-07
-1.58617e-05
2.50709
-0.36071
-0.137397
-0.107367
-0.101091
-0.0997849
-0.1
-0.100998
-0.105601
-0.161068
-0.0986407
-0.0843363
-0.0809424
-0.0737306
-0.0717304
-0.0648368
-0.0629571
-0.0564021
-0.0546423
-0.0485995
-0.0469948
-0.0415522
-0.0401181
-0.035298
-0.034035
-0.0298192
-0.0287194
-0.0250672
-0.0241178
-0.0209779
-0.020164
-0.0174817
-0.0167882
-0.0145094
-0.0139216
-0.0119954
-0.0114995
-0.00987905
-0.00946278
-0.00810598
-0.00775818
-0.00662757
-0.0063384
-0.00540098
-0.00516189
-0.00438917
-0.00419433
-0.00356852
-0.00344386
-0.00311371
-0.0044111
-0.00251983
-0.00194749
-0.00181677
-0.00153717
-0.00146721
-0.00125324
-0.00119979
-0.00103197
-0.000990212
-0.000859521
-0.000827124
-0.000726275
-0.000701248
-0.000623409
-0.000602884
-0.000534417
-0.000514178
-0.000438108
-0.000416024
-0.000333733
-0.000312398
-0.000242575
-0.000217781
-0.000109724
-8.48712e-05
-1.31666e-05
-2.76427e-06
-6.3351e-07
-1.60006e-05
2.49752
-0.332023
-0.151155
-0.111355
-0.102112
-0.100091
-0.100219
-0.101772
-0.108948
-0.151526
-0.101822
-0.0856909
-0.0808417
-0.0741384
-0.0714002
-0.0651967
-0.0626374
-0.0567477
-0.0543521
-0.0489214
-0.0467369
-0.0418444
-0.0398919
-0.0355581
-0.0338387
-0.0300477
-0.0285503
-0.0252658
-0.0239731
-0.0211491
-0.0200409
-0.0176283
-0.016684
-0.0146342
-0.0138337
-0.012101
-0.0114258
-0.00996813
-0.0094013
-0.00818072
-0.00770712
-0.00668997
-0.00629621
-0.00545284
-0.00512729
-0.00443237
-0.00416743
-0.00360972
-0.0034453
-0.00322442
-0.00415617
-0.0026096
-0.00199737
-0.00181254
-0.00155409
-0.00145833
-0.00126537
-0.00119254
-0.00104147
-0.000984592
-0.000866941
-0.000822816
-0.000732001
-0.0006979
-0.000627636
-0.00059965
-0.000537753
-0.000510178
-0.000441815
-0.000411774
-0.000338136
-0.00030905
-0.000245323
-0.000211604
-0.000115927
-8.22343e-05
-1.84324e-05
-4.22634e-06
-9.83554e-07
-1.61186e-05
2.4908
-0.313438
-0.159269
-0.11412
-0.102844
-0.100311
-0.10038
-0.10232
-0.110879
-0.145675
-0.10366
-0.0865934
-0.0808146
-0.074387
-0.071208
-0.0654103
-0.0624505
-0.056953
-0.054183
-0.0491131
-0.0465869
-0.0420185
-0.0397606
-0.0357134
-0.0337249
-0.0301842
-0.0284524
-0.0253845
-0.0238894
-0.0212515
-0.0199698
-0.017716
-0.0166238
-0.0147089
-0.0137831
-0.0121643
-0.0113834
-0.0100215
-0.00936589
-0.00822549
-0.00767772
-0.00672737
-0.00627193
-0.00548394
-0.00510741
-0.00445832
-0.00415219
-0.00363515
-0.00344896
-0.00328899
-0.00400034
-0.00266196
-0.00203013
-0.00181123
-0.00156449
-0.00145333
-0.00127268
-0.00118841
-0.00104719
-0.000981392
-0.000871411
-0.000820367
-0.00073545
-0.000695991
-0.000630165
-0.000597767
-0.000539709
-0.000507803
-0.000443985
-0.000409264
-0.000340752
-0.000307083
-0.000246869
-0.000207903
-0.00011965
-8.08007e-05
-2.17138e-05
-5.24955e-06
-1.23584e-06
-1.62043e-05
2.48735
-0.304307
-0.163022
-0.115529
-0.103226
-0.100426
-0.100465
-0.102602
-0.11176
-0.142895
-0.104499
-0.0870435
-0.0808125
-0.0745048
-0.0711199
-0.0655097
-0.0623644
-0.0570486
-0.0541053
-0.0492024
-0.0465181
-0.0420998
-0.0397005
-0.0357859
-0.0336729
-0.0302479
-0.0284077
-0.02544
-0.0238512
-0.0212994
-0.0199373
-0.0177571
-0.0165963
-0.0147439
-0.01376
-0.0121939
-0.011364
-0.0100465
-0.00934975
-0.00824645
-0.00766434
-0.00674488
-0.00626089
-0.00549851
-0.00509837
-0.0044705
-0.00414533
-0.00364729
-0.00345153
-0.00331867
-0.00392645
-0.00268603
-0.00204634
-0.00181101
-0.00156945
-0.00145109
-0.00127612
-0.00118655
-0.00104987
-0.000979946
-0.000873512
-0.000819261
-0.000737071
-0.000695128
-0.000631348
-0.000596902
-0.000540612
-0.000506699
-0.000444985
-0.0004081
-0.000341971
-0.000306175
-0.000247562
-0.00020617
-0.000121394
-8.01754e-05
-2.32894e-05
-5.7743e-06
-1.3677e-06
-1.62492e-05
2.48735
-0.304308
-0.163022
-0.115529
-0.103226
-0.100426
-0.100465
-0.102602
-0.11176
-0.142895
-0.104499
-0.0870435
-0.0808125
-0.0745048
-0.0711199
-0.0655097
-0.0623644
-0.0570486
-0.0541053
-0.0492024
-0.0465181
-0.0420998
-0.0397005
-0.0357859
-0.0336729
-0.030248
-0.0284077
-0.02544
-0.0238512
-0.0212994
-0.0199373
-0.0177571
-0.0165963
-0.0147439
-0.01376
-0.0121939
-0.011364
-0.0100465
-0.00934975
-0.00824646
-0.00766434
-0.00674488
-0.00626089
-0.00549851
-0.00509838
-0.0044705
-0.00414534
-0.00364729
-0.00345153
-0.00331867
-0.00392645
-0.00268603
-0.00204634
-0.00181101
-0.00156945
-0.00145109
-0.00127612
-0.00118655
-0.00104987
-0.000979946
-0.000873512
-0.000819262
-0.000737072
-0.000695129
-0.000631348
-0.000596902
-0.000540612
-0.000506699
-0.000444985
-0.0004081
-0.000341971
-0.000306175
-0.000247562
-0.00020617
-0.000121394
-8.01753e-05
-2.32893e-05
-5.77427e-06
-1.36769e-06
-1.62492e-05
2.4908
-0.31344
-0.15927
-0.11412
-0.102844
-0.100311
-0.10038
-0.10232
-0.110879
-0.145675
-0.10366
-0.0865935
-0.0808146
-0.074387
-0.0712081
-0.0654104
-0.0624505
-0.056953
-0.054183
-0.0491131
-0.0465869
-0.0420186
-0.0397607
-0.0357134
-0.0337249
-0.0301842
-0.0284524
-0.0253845
-0.0238894
-0.0212515
-0.0199698
-0.017716
-0.0166238
-0.0147089
-0.0137831
-0.0121643
-0.0113834
-0.0100215
-0.00936589
-0.00822549
-0.00767773
-0.00672737
-0.00627194
-0.00548395
-0.00510741
-0.00445832
-0.00415219
-0.00363515
-0.00344897
-0.003289
-0.00400034
-0.00266196
-0.00203013
-0.00181123
-0.00156449
-0.00145333
-0.00127268
-0.00118841
-0.00104719
-0.000981392
-0.000871412
-0.000820367
-0.000735451
-0.000695992
-0.000630165
-0.000597767
-0.000539709
-0.000507804
-0.000443985
-0.000409264
-0.000340753
-0.000307083
-0.000246869
-0.000207902
-0.000119649
-8.08006e-05
-2.17136e-05
-5.24945e-06
-1.23581e-06
-1.62042e-05
2.49753
-0.332027
-0.151155
-0.111355
-0.102113
-0.100092
-0.100219
-0.101772
-0.108949
-0.151526
-0.101822
-0.085691
-0.0808418
-0.0741385
-0.0714003
-0.0651968
-0.0626375
-0.0567477
-0.0543522
-0.0489215
-0.0467369
-0.0418444
-0.0398919
-0.0355581
-0.0338387
-0.0300477
-0.0285503
-0.0252658
-0.0239731
-0.0211491
-0.0200409
-0.0176283
-0.016684
-0.0146342
-0.0138337
-0.0121011
-0.0114258
-0.00996814
-0.00940131
-0.00818072
-0.00770712
-0.00668997
-0.00629621
-0.00545285
-0.00512729
-0.00443237
-0.00416743
-0.00360972
-0.0034453
-0.00322443
-0.00415617
-0.0026096
-0.00199737
-0.00181254
-0.00155409
-0.00145833
-0.00126537
-0.00119254
-0.00104147
-0.000984592
-0.000866942
-0.000822817
-0.000732001
-0.000697901
-0.000627636
-0.00059965
-0.000537753
-0.000510178
-0.000441816
-0.000411774
-0.000338136
-0.00030905
-0.000245323
-0.000211604
-0.000115927
-8.22341e-05
-1.84322e-05
-4.22622e-06
-9.8352e-07
-1.61185e-05
2.5071
-0.360713
-0.137398
-0.107367
-0.101091
-0.099785
-0.1
-0.100998
-0.105601
-0.161068
-0.0986408
-0.0843364
-0.0809424
-0.0737307
-0.0717305
-0.0648369
-0.0629571
-0.0564021
-0.0546423
-0.0485996
-0.0469948
-0.0415523
-0.0401181
-0.035298
-0.0340351
-0.0298192
-0.0287194
-0.0250672
-0.0241178
-0.0209779
-0.020164
-0.0174818
-0.0167882
-0.0145095
-0.0139216
-0.0119954
-0.0114995
-0.00987906
-0.00946278
-0.00810599
-0.00775819
-0.00662757
-0.0063384
-0.00540098
-0.00516189
-0.00438918
-0.00419434
-0.00356852
-0.00344386
-0.00311372
-0.00441111
-0.00251983
-0.0019475
-0.00181677
-0.00153717
-0.00146721
-0.00125325
-0.00119979
-0.00103197
-0.000990213
-0.000859521
-0.000827125
-0.000726275
-0.000701248
-0.00062341
-0.000602884
-0.000534418
-0.000514179
-0.000438108
-0.000416024
-0.000333733
-0.000312398
-0.000242575
-0.000217781
-0.000109724
-8.4871e-05
-1.31665e-05
-2.76417e-06
-6.33483e-07
-1.60005e-05
2.51878
-0.40046
-0.115908
-0.102429
-0.09987
-0.0994171
-0.0997494
-0.10008
-0.100218
-0.175325
-0.0935339
-0.0825449
-0.0811953
-0.073114
-0.072256
-0.0642761
-0.0634634
-0.0558645
-0.0551034
-0.0480999
-0.047406
-0.0410996
-0.0404795
-0.0348953
-0.0343493
-0.0294659
-0.0289905
-0.0247604
-0.0243499
-0.0207136
-0.0203618
-0.0172555
-0.0169557
-0.0143169
-0.0140628
-0.0118324
-0.011618
-0.00974174
-0.00956182
-0.00799084
-0.00784052
-0.00653147
-0.00640649
-0.00532115
-0.0052178
-0.00432284
-0.00423846
-0.00350725
-0.00345062
-0.00293789
-0.00479357
-0.00237729
-0.00187994
-0.00182694
-0.00151185
-0.00148183
-0.00123469
-0.0012116
-0.00101743
-0.000999384
-0.000848163
-0.000834166
-0.000717511
-0.000706704
-0.000616886
-0.000608031
-0.00052915
-0.000520409
-0.000432239
-0.000422679
-0.00032689
-0.000317684
-0.000238023
-0.000227288
-0.000100191
-8.93814e-05
-5.44828e-06
-9.71075e-07
-2.18819e-07
-1.58616e-05
2.47509
-0.0761376
-0.235376
-0.242646
-0.224619
-0.221513
-0.174223
-0.170334
-0.134815
-0.213209
-0.102117
-0.0769004
-0.0742989
-0.0591058
-0.0576822
-0.0462391
-0.0451755
-0.0363106
-0.0354837
-0.0285309
-0.0278808
-0.0223916
-0.0218777
-0.017531
-0.017124
-0.0136799
-0.0133575
-0.0106315
-0.0103767
-0.00822393
-0.00802294
-0.00632824
-0.00617028
-0.00484121
-0.00471755
-0.00367971
-0.00358335
-0.00277678
-0.00270205
-0.00207848
-0.00202084
-0.00154148
-0.00149729
-0.00113111
-0.00109746
-0.00081974
-0.000794385
-0.000585835
-0.000568346
-0.00042319
-0.000641541
-0.000290671
-0.000192508
-0.000182753
-0.000123755
-0.000118465
-7.81814e-05
-7.46627e-05
-4.78512e-05
-4.55442e-05
-2.83431e-05
-2.68835e-05
-1.62668e-05
-1.53773e-05
-9.06191e-06
-8.53843e-06
-4.90245e-06
-4.60363e-06
-2.5663e-06
-2.39985e-06
-1.28159e-06
-1.18837e-06
-5.38979e-07
-4.86378e-07
-1.34757e-07
-1.10689e-07
-7.1562e-09
-1.30798e-09
-2.95971e-10
3.98829e-08
2.46772
-0.0870447
-0.220758
-0.237501
-0.224523
-0.217567
-0.177811
-0.169146
-0.1434
-0.196409
-0.108605
-0.0802209
-0.0738247
-0.0603389
-0.0570195
-0.047103
-0.0446395
-0.0369737
-0.0350597
-0.0290495
-0.0275448
-0.0228006
-0.0216113
-0.0178547
-0.0169128
-0.0139364
-0.0131905
-0.0108347
-0.0102449
-0.00838451
-0.00791937