/*--------------------------------*- C++ -*----------------------------------*\
| =========                 |                                                 |
| \\      /  F ield         | OpenFOAM: The Open Source CFD Toolbox           |
|  \\    /   O peration     | Version:  5.x                                   |
|   \\  /    A nd           | Web:      www.OpenFOAM.org                      |
|    \\/     M anipulation  |                                                 |
\*---------------------------------------------------------------------------*/
FoamFile
{
    version     2.0;
    format      ascii;
    class       volScalarField;
    location    "1.5";
    object      gradTy;
}
// * * * * * * * * * * * * * * * * * * * * * * * * * * * * * * * * * * * * * //

dimensions      [0 -1 0 1 0 0 0];

internalField   nonuniform List<scalar> 
3200
(
-0.0888757
0.012251
-0.227086
0.188965
-0.170594
0.186992
-0.122309
0.142443
-0.104116
0.0337281
0.101991
-0.0484112
0.0642397
-0.0411476
0.0491466
-0.0325106
0.0384234
-0.0255837
0.0301771
-0.0201117
0.0237228
-0.0157778
0.0186312
-0.0123406
0.0145996
-0.00961567
0.0114038
-0.00745936
0.00887244
-0.00575773
0.00687143
-0.00441961
0.00529434
-0.00337165
0.00405589
-0.00255464
0.00308746
-0.00192087
0.00233371
-0.0014319
0.00175003
-0.00105688
0.00130056
-0.000771152
0.000956523
-0.000555211
0.000694549
-0.000395389
0.000488537
-0.000314116
0.000137002
0.000304308
-0.000108334
0.00016646
-7.77952e-05
0.000107088
-4.86642e-05
6.79461e-05
-2.91474e-05
4.1776e-05
-1.68591e-05
2.48492e-05
-9.44531e-06
1.43166e-05
-5.13663e-06
8.0047e-06
-2.71e-06
4.34785e-06
-1.37622e-06
2.289e-06
-6.5353e-07
1.16433e-06
-2.20148e-07
5.07385e-07
1.22447e-09
1.30585e-07
2.68413e-08
6.23262e-09
1.49332e-09
4.31782e-10
-0.0658777
-0.00124004
-0.155029
0.121643
-0.109524
0.123849
-0.0766272
0.0942015
-0.0681695
0.0240557
0.0718165
-0.0289912
0.0429942
-0.0256629
0.0326934
-0.0203495
0.0255412
-0.0160243
0.0200571
-0.0125979
0.0157682
-0.00988095
0.012386
-0.00772506
0.00970827
-0.0060158
0.00758557
-0.00466345
0.00590393
-0.00359666
0.0045743
-0.00275822
0.00352605
-0.00210199
0.00270261
-0.00159078
0.00205846
-0.00119454
0.00155689
-0.000889102
0.00116832
-0.000655082
0.000868947
-0.000476986
0.000639671
-0.000342595
0.00046486
-0.000243842
0.000325361
-0.000202696
9.76268e-05
0.000216543
-6.15696e-05
0.000112918
-4.66167e-05
7.23443e-05
-2.90574e-05
4.59779e-05
-1.72489e-05
2.83303e-05
-9.87593e-06
1.68873e-05
-5.47408e-06
9.74888e-06
-2.94421e-06
5.46122e-06
-1.53484e-06
2.97228e-06
-7.67755e-07
1.5689e-06
-3.54824e-07
8.03128e-07
-1.03292e-07
3.5533e-07
2.1173e-08
9.45198e-08
2.35129e-08
5.59678e-09
1.34603e-09
3.89461e-10
-0.0454939
-0.00603186
-0.100227
0.0746014
-0.067067
0.0780327
-0.0458225
0.0592661
-0.042426
0.0161451
0.0475704
-0.0164956
0.0273633
-0.0152684
0.0206876
-0.0121534
0.0161507
-0.0095766
0.0126813
-0.00752946
0.00997008
-0.00590433
0.00783276
-0.00461412
0.00614077
-0.0035911
0.00479945
-0.00278185
0.00373669
-0.00214372
0.00289621
-0.00164244
0.00223343
-0.00125036
0.00171262
-0.000945146
0.00130508
-0.000708769
0.000987628
-0.000526728
0.000741597
-0.00038739
0.000551962
-0.000281472
0.000406653
-0.00020167
0.000295732
-0.000143482
0.000206019
-0.000124458
6.54709e-05
0.000144631
-3.29308e-05
7.27197e-05
-2.65911e-05
4.64049e-05
-1.65159e-05
2.95341e-05
-9.70742e-06
1.82326e-05
-5.49418e-06
1.08884e-05
-3.00774e-06
6.29671e-06
-1.59655e-06
3.53321e-06
-8.2022e-07
1.92629e-06
-4.02568e-07
1.01906e-06
-1.79479e-07
5.24443e-07
-4.10745e-08
2.34965e-07
2.48096e-08
6.42228e-08
1.80583e-08
4.41345e-09
1.06685e-09
3.09009e-10
-0.0267157
-0.00550994
-0.0562172
0.0401906
-0.0361067
0.0429508
-0.0241965
0.0325834
-0.0231092
0.00930634
0.0271318
-0.00832756
0.0151829
-0.00802549
0.0114265
-0.00640937
0.00891572
-0.00505333
0.00699982
-0.00397337
0.00550349
-0.0031152
0.00432418
-0.00243361
0.00339067
-0.00189312
0.00265061
-0.00146564
0.00206419
-0.00112865
0.00160035
-0.000864054
0.00123449
-0.000657206
0.00094695
-0.000496283
0.00072188
-0.000371741
0.000546517
-0.000275901
0.000410566
-0.000202605
0.000305742
-0.000146942
0.00022539
-0.00010506
0.000163997
-7.4729e-05
0.000113828
-6.70748e-05
3.77156e-05
8.29652e-05
-1.56386e-05
4.0706e-05
-1.34686e-05
2.58938e-05
-8.33982e-06
1.6497e-05
-4.85699e-06
1.01986e-05
-2.71901e-06
6.09892e-06
-1.47065e-06
3.53155e-06
-7.70472e-07
1.98406e-06
-3.89945e-07
1.08308e-06
-1.87569e-07
5.73923e-07
-8.03089e-08
2.96489e-07
-1.25488e-08
1.3403e-07
1.84544e-08
3.73445e-08
1.13011e-08
2.81759e-09
6.84082e-10
1.98347e-10
-0.00880535
-0.00213312
-0.0181117
0.0126692
-0.0113777
0.0137017
-0.00754116
0.0103876
-0.00732717
0.00304206
0.00881677
-0.00252515
0.00486514
-0.00249431
0.00365226
-0.00199593
0.00284888
-0.00157418
0.00223656
-0.00123781
0.00175849
-0.000970368
0.00138175
-0.000757902
0.00108356
-0.000589413
0.000847151
-0.000456162
0.000659812
-0.000351141
0.000511622
-0.000268698
0.000394726
-0.00020427
0.000302839
-0.000154163
0.000230906
-0.0001154
0.000174852
-8.5583e-05
0.000131389
-6.27909e-05
9.7871e-05
-4.54917e-05
7.21727e-05
-3.24855e-05
5.25282e-05
-2.31046e-05
3.63849e-05
-2.11433e-05
1.23229e-05
2.70383e-05
-4.55563e-06
1.31043e-05
-4.09433e-06
8.3213e-06
-2.53059e-06
5.30441e-06
-1.46535e-06
3.28167e-06
-8.14635e-07
1.96393e-06
-4.37188e-07
1.13798e-06
-2.27066e-07
6.39745e-07
-1.13763e-07
3.49467e-07
-5.39581e-08
1.85342e-07
-2.24254e-08
9.59384e-08
-2.26533e-09
4.35719e-08
6.71527e-09
1.22609e-08
3.8404e-09
9.67421e-10
2.35407e-10
6.83219e-11
0.00882863
0.00214167
0.0181161
-0.0126657
0.0113802
-0.0136998
0.00754258
-0.0103866
0.0073279
-0.00304152
-0.0088163
0.00252564
-0.00486464
0.00249481
-0.00365179
0.00199636
-0.0028485
0.00157451
-0.00223628
0.00123806
-0.00175827
0.000970553
-0.0013816
0.000758038
-0.00108344
0.000589512
-0.000847068
0.000456232
-0.000659754
0.000351189
-0.000511582
0.000268731
-0.000394699
0.000204291
-0.000302822
0.000154176
-0.000230896
0.000115408
-0.000174846
8.55868e-05
-0.000131386
6.27922e-05
-9.78706e-05
4.54915e-05
-7.21735e-05
3.24843e-05
-5.25297e-05
2.31027e-05
-3.63873e-05
2.11406e-05
-1.23258e-05
-2.70409e-05
4.55359e-06
-1.31058e-05
4.0932e-06
-8.32218e-06
2.52988e-06
-5.30499e-06
1.46487e-06
-3.28206e-06
8.14318e-07
-1.96419e-06
4.36986e-07
-1.13814e-06
2.26942e-07
-6.39842e-07
1.13688e-07
-3.49525e-07
5.39142e-08
-1.85375e-07
2.24004e-08
-9.59568e-08
2.25212e-09
-4.3581e-08
-6.72109e-09
-1.22644e-08
-3.84231e-09
-9.68384e-10
-2.35818e-10
-6.83634e-11
0.026732
0.00551614
0.0562205
-0.0401878
0.0361088
-0.0429492
0.0241977
-0.0325824
0.0231099
-0.00930578
-0.0271313
0.00832804
-0.0151824
0.00802595
-0.0114261
0.00640974
-0.00891538
0.00505362
-0.00699956
0.0039736
-0.00550329
0.00311537
-0.00432404
0.00243374
-0.00339056
0.00189321
-0.00265053
0.0014657
-0.00206413
0.0011287
-0.00160031
0.000864087
-0.00123447
0.000657229
-0.000946932
0.000496298
-0.000721868
0.000371751
-0.000546509
0.000275907
-0.000410561
0.000202608
-0.00030574
0.000146944
-0.000225389
0.000105061
-0.000163997
7.47285e-05
-0.000113829
6.70734e-05
-3.77172e-05
-8.29666e-05
1.56374e-05
-4.07069e-05
1.34679e-05
-2.58943e-05
8.33942e-06
-1.64974e-05
4.85672e-06
-1.01988e-05
2.71882e-06
-6.09907e-06
1.47052e-06
-3.53164e-06
7.70396e-07
-1.98412e-06
3.89898e-07
-1.08312e-06
1.87541e-07
-5.73944e-07
8.02929e-08
-2.96501e-07
1.25402e-08
-1.34036e-07
-1.84583e-08
-3.73468e-08
-1.13023e-08
-2.81824e-09
-6.84362e-10
-1.98374e-10
0.0454971
0.00603338
0.100229
-0.0746003
0.0670678
-0.078032
0.0458231
-0.0592655
0.0424264
-0.0161448
-0.0475701
0.0164959
-0.0273631
0.0152686
-0.0206874
0.0121536
-0.0161505
0.00957675
-0.0126811
0.00752958
-0.00996998
0.00590442
-0.00783268
0.00461419
-0.00614071
0.00359116
-0.0047994
0.00278189
-0.00373665
0.00214375
-0.00289619
0.00164247
-0.00223341
0.00125038
-0.00171261
0.000945158
-0.00130507
0.000708778
-0.00098762
0.000526734
-0.000741592
0.000387395
-0.000551958
0.000281475
-0.000406651
0.000201672
-0.00029573
0.000143483
-0.000206018
0.000124459
-6.54705e-05
-0.000144631
3.2931e-05
-7.27195e-05
2.65912e-05
-4.64048e-05
1.6516e-05
-2.95341e-05
9.70747e-06
-1.82325e-05
5.4942e-06
-1.08884e-05
3.00775e-06
-6.29671e-06
1.59655e-06
-3.53321e-06
8.20221e-07
-1.92629e-06
4.02568e-07
-1.01906e-06
1.79479e-07
-5.24444e-07
4.10739e-08
-2.34965e-07
-2.481e-08
-6.42231e-08
-1.80585e-08
-4.41354e-09
-1.06689e-09
-3.09011e-10
0.0658638
0.00123515
0.155027
-0.121645
0.109523
-0.12385
0.0766266
-0.0942019
0.0681692
-0.0240559
-0.0718167
0.028991
-0.0429944
0.0256627
-0.0326936
0.0203493
-0.0255414
0.0160241
-0.0200572
0.0125977
-0.0157683
0.00988087
-0.0123861
0.007725
-0.00970832
0.00601576
-0.0075856
0.00466342
-0.00590395
0.00359664
-0.00457432
0.0027582
-0.00352606
0.00210199
-0.00270261
0.00159077
-0.00205846
0.00119453
-0.00155689
0.000889103
-0.00116832
0.000655083
-0.000868945
0.000476988
-0.000639669
0.000342597
-0.000464858
0.000243844
-0.000325359
0.000202698
-9.76247e-05
-0.000216541
6.15711e-05
-0.000112917
4.66175e-05
-7.23436e-05
2.90579e-05
-4.59775e-05
1.72493e-05
-2.83301e-05
9.87614e-06
-1.68872e-05
5.47422e-06
-9.74878e-06
2.9443e-06
-5.46116e-06
1.53488e-06
-2.97224e-06
7.67784e-07
-1.56887e-06
3.5484e-07
-8.03116e-07
1.033e-07
-3.55325e-07
-2.11694e-08
-9.45177e-08
-2.35117e-08
-5.59619e-09
-1.34578e-09
-3.89436e-10
0.0888469
-0.0122624
0.22708
-0.188971
0.17059
-0.186995
0.122306
-0.142445
0.104115
-0.0337294
-0.101992
0.0484101
-0.0642408
0.0411466
-0.0491475
0.0325098
-0.0384241
0.0255831
-0.0301776
0.0201113
-0.0237232
0.0157775
-0.0186316
0.0123403
-0.0145998
0.00961547
-0.011404
0.00745921
-0.00887257
0.00575762
-0.00687152
0.00441954
-0.0052944
0.00337159
-0.00405594
0.00255461
-0.00308749
0.00192085
-0.00233373
0.00143188
-0.00175004
0.00105687
-0.00130056
0.000771146
-0.000956527
0.000555209
-0.00069455
0.000395389
-0.000488536
0.000314117
-0.000137
-0.000304306
0.000108336
-0.000166459
7.77961e-05
-0.000107087
4.86647e-05
-6.79456e-05
2.91478e-05
-4.17756e-05
1.68594e-05
-2.4849e-05
9.44549e-06
-1.43164e-05
5.13674e-06
-8.0046e-06
2.71007e-06
-4.3478e-06
1.37626e-06
-2.28897e-06
6.53555e-07
-1.16431e-06
2.20162e-07
-5.07375e-07
-1.21806e-09
-1.30581e-07
-2.68391e-08
-6.23151e-09
-1.49284e-09
-4.31737e-10
-0.481517
0.359978
-0.0228498
0.0911716
-0.0744209
0.0786099
-0.0782798
0.0761281
-0.0874811
0.00710822
0.0870027
-0.058329
0.0671225
-0.0544565
0.0595051
-0.0477667
0.0524546
-0.0413331
0.0456981
-0.0354582
0.0394246
-0.0302081
0.0337443
-0.0255852
0.0286935
-0.021559
0.0242621
-0.0180823
0.0204134
-0.015101
0.0170975
-0.0125594
0.0142593
-0.010404
0.0118439
-0.00858497
0.00979877
-0.00705711
0.00807549
-0.00577982
0.00663027
-0.00471721
0.005424
-0.00383777
0.00442194
-0.00311478
0.0035901
-0.0025397
0.00283651
-0.00237978
0.000585568
0.00233938
-0.00123913
0.00156845
-0.00108364
0.00125557
-0.000892305
0.00102318
-0.0007386
0.000840896
-0.000619154
0.000698583
-0.000527315
0.000588737
-0.000456185
0.000506471
-0.000389906
0.00043894
-0.000310928
0.000363678
-0.000226505
0.000277229
-0.000158994
0.000217321
-4.01253e-05
9.81244e-05
1.98738e-05
4.60624e-06
1.10777e-06
3.24229e-07
-0.344687
0.2384
-0.00280071
0.0623655
-0.0474222
0.0512019
-0.0508072
0.0488696
-0.0593113
0.00509204
0.0600487
-0.0364811
0.0442866
-0.0347167
0.0391605
-0.030431
0.0345517
-0.0262922
0.0301281
-0.0225257
0.026011
-0.0191698
0.0222767
-0.0162212
0.0189521
-0.0136576
0.0160323
-0.0114468
0.0134946
-0.00955305
0.0113068
-0.0079401
0.00943335
-0.00657335
0.00783815
-0.00542078
0.00648691
-0.00445337
0.00534784
-0.00364521
0.00439216
-0.00297337
0.00359413
-0.00241779
0.00293083
-0.00196169
0.002379
-0.0016037
0.00186259
-0.001577
0.000417755
0.00163735
-0.000753713
0.00104522
-0.000681041
0.000832201
-0.000562497
0.000677454
-0.000466339
0.000556187
-0.000391683
0.000461447
-0.000334365
0.000388317
-0.000289853
0.000334024
-0.000247426
0.000290476
-0.00019576
0.000242039
-0.000140836
0.000185352
-9.73039e-05
0.000148454
-1.85438e-05
6.93645e-05
1.73522e-05
4.13428e-06
9.98466e-07
2.92418e-07
-0.231206
0.14976
0.00496045
0.0405259
-0.0287902
0.0317906
-0.0314291
0.0299
-0.0380686
0.00343171
0.0391338
-0.0217439
0.0278242
-0.0211082
0.0245398
-0.0184921
0.0216691
-0.0159536
0.0189102
-0.0136509
0.0163369
-0.0116049
0.0139991
-0.00981115
0.0119153
-0.00825411
0.0100838
-0.00691311
0.00849076
-0.0057656
0.00711668
-0.00478912
0.00593942
-0.00396233
0.00493661
-0.00326562
0.00408683
-0.00268125
0.0033702
-0.00219341
0.00276872
-0.00178816
0.00226626
-0.0014533
0.00184842
-0.00117878
0.00150007
-0.00096636
0.00116427
-0.00099216
0.000280458
0.00107932
-0.000436272
0.000662655
-0.000408318
0.000524882
-0.000338314
0.000426861
-0.000280922
0.000350124
-0.000236402
0.000290136
-0.000202271
0.00024383
-0.00017569
0.000209714
-0.000149784
0.000182925
-0.000117596
0.000153193
-8.35564e-05
0.000117808
-5.67648e-05
9.60884e-05
-7.16455e-06
4.61978e-05
1.3277e-05
3.25796e-06
7.91334e-07
2.31961e-07
-0.132988
0.0821214
0.00547876
0.0228546
-0.0153797
0.017307
-0.0170559
0.0160807
-0.0212247
0.00198466
0.0220649
-0.0114405
0.0152871
-0.0112966
0.0134537
-0.00989258
0.0118871
-0.00852441
0.0103801
-0.00728655
0.0089721
-0.00618913
0.00769142
-0.00522865
0.00654888
-0.00439603
0.00554395
-0.00367969
0.00466945
-0.00306724
0.00391481
-0.00254644
0.00326803
-0.00210577
0.00271691
-0.00173464
0.00224975
-0.00142354
0.00185568
-0.00116398
0.00152483
-0.00094849
0.00124836
-0.000770546
0.00101836
-0.000624843
0.000826289
-0.000513488
0.00063691
-0.000544944
0.000161699
0.000613508
-0.000223732
0.000366605
-0.000216015
0.000289193
-0.000179467
0.000235007
-0.000149218
0.000192621
-0.00012577
0.000159472
-0.000107815
0.000133882
-9.37979e-05
0.000115138
-7.98837e-05
0.000100659
-6.23203e-05
8.46209e-05
-4.38229e-05
6.52859e-05
-2.93341e-05
5.39589e-05
-2.05466e-06
2.64797e-05
8.28413e-06
2.0787e-06
5.07398e-07
1.48831e-07
-0.0433925
0.026133
0.00221784
0.00739003
-0.00482286
0.0054895
-0.00539771
0.00506503
-0.00681453
0.000650596
0.00712816
-0.00355676
0.00487278
-0.00354723
0.00428314
-0.00310574
0.00378562
-0.00267441
0.0033068
-0.00228473
0.00285904
-0.00193969
0.00245149
-0.00163799
0.00208772
-0.00137665
0.00176765
-0.00115195
0.00148905
-0.000959919
0.00124858
-0.000796696
0.00104243
-0.000658636
0.000866751
-0.000542405
0.000717807
-0.000445003
0.000592146
-0.000363765
0.000486627
-0.000296343
0.000398439
-0.000240689
0.000325059
-0.00019515
0.000263722
-0.000160603
0.0002025
-0.000173569
5.2868e-05
0.000199021
-6.85025e-05
0.00011729
-6.73878e-05
9.23126e-05
-5.60759e-05
7.49844e-05
-4.666e-05
6.14358e-05
-3.93643e-05
5.08369e-05
-3.37822e-05
4.26546e-05
-2.94177e-05
3.66799e-05
-2.50394e-05
3.21061e-05
-1.9464e-05
2.70458e-05
-1.36051e-05
2.09028e-05
-9.02698e-06
1.73972e-05
-3.29532e-07
8.6292e-06
2.81077e-06
7.13577e-07
1.74638e-07
5.11882e-08
0.0434135
-0.0261251
-0.00221324
-0.00738556
0.0048269
-0.00548578
0.00540109
-0.00506202
0.00681715
-0.000648289
-0.00712607
0.00355871
-0.00487095
0.00354894
-0.00428156
0.00310718
-0.0037843
0.00267562
-0.0033057
0.00228573
-0.00285813
0.00194051
-0.00245074
0.00163867
-0.00208711
0.00137721
-0.00176715
0.0011524
-0.00148864
0.000960289
-0.00124824
0.000796997
-0.00104216
0.00065888
-0.000866532
0.000542601
-0.000717631
0.000445161
-0.000592005
0.000363892
-0.000486514
0.000296444
-0.000398348
0.00024077
-0.000324987
0.000195215
-0.000263665
0.000160652
-0.00020246
0.0001736
-5.28434e-05
-0.000199
6.85234e-05
-0.00011727
6.74071e-05
-9.22949e-05
5.60917e-05
-7.49706e-05
4.66719e-05
-6.14258e-05
3.93726e-05
-5.08303e-05
3.37871e-05
-4.26512e-05
2.94197e-05
-3.66791e-05
2.5039e-05
-3.21074e-05
1.94619e-05
-2.70485e-05
1.36021e-05
-2.09058e-05
9.024e-06
-1.73998e-05
3.27472e-07
-8.63063e-06
-2.81163e-06
-7.14e-07
-1.74829e-07
-5.14229e-08
0.133003
-0.0821157
-0.00547524
-0.0228512
0.0153828
-0.0173041
0.0170585
-0.0160784
0.0212267
-0.00198283
-0.0220632
0.011442
-0.0152856
0.0112979
-0.0134524
0.00989373
-0.011886
0.00852537
-0.0103792
0.00728735
-0.00897138
0.0061898
-0.00769082
0.00522919
-0.00654838
0.00439648
-0.00554354
0.00368006
-0.00466912
0.00306754
-0.00391454
0.00254668
-0.00326781
0.00210596
-0.00271673
0.0017348
-0.00224961
0.00142367
-0.00185556
0.00116409
-0.00152473
0.000948574
-0.00124828
0.000770614
-0.0010183
0.000624897
-0.000826242
0.000513529
-0.000636875
0.000544971
-0.000161677
-0.000613489
0.000223751
-0.000366587
0.000216031
-0.000289178
0.00017948
-0.000234995
0.000149228
-0.000192613
0.000125777
-0.000159466
0.00010782
-0.000133879
9.38003e-05
-0.000115137
7.98841e-05
-0.000100659
6.23193e-05
-8.46223e-05
4.38212e-05
-6.52878e-05
2.93322e-05
-5.39606e-05
2.05332e-06
-2.64807e-05
-8.28469e-06
-2.07898e-06
-5.07521e-07
-1.4899e-07
0.231209
-0.149759
-0.0049593
-0.0405248
0.0287913
-0.0317896
0.03143
-0.0298992
0.0380693
-0.00343102
-0.0391332
0.0217445
-0.0278237
0.0211087
-0.0245393
0.0184925
-0.0216687
0.0159539
-0.0189099
0.0136512
-0.0163366
0.0116052
-0.0139988
0.00981137
-0.0119151
0.00825429
-0.0100836
0.00691326
-0.00849063
0.00576573
-0.00711657
0.00478922
-0.00593932
0.00396241
-0.00493653
0.00326569
-0.00408677
0.0026813
-0.00337015
0.00219345
-0.00276868
0.00178819
-0.00226623
0.00145333
-0.0018484
0.0011788
-0.00150005
0.000966379
-0.00116425
0.000992174
-0.000280445
-0.00107931
0.000436282
-0.000662646
0.000408326
-0.000524874
0.00033832
-0.000426856
0.000280927
-0.000350119
0.000236406
-0.000290133
0.000202274
-0.000243827
0.000175692
-0.000209713
0.000149786
-0.000182924
0.000117597
-0.000153193
8.35566e-05
-0.000117808
5.67647e-05
-9.60884e-05
7.16445e-06
-4.61979e-05
-1.3277e-05
-3.25798e-06
-7.91341e-07
-2.31984e-07
0.344674
-0.238405
0.00279823
-0.0623679
0.0474201
-0.0512039
0.0508054
-0.0488712
0.0593099
-0.00509324
-0.0600498
0.0364801
-0.0442876
0.0347158
-0.0391613
0.0304303
-0.0345524
0.0262915
-0.0301287
0.0225252
-0.0260115
0.0191693
-0.0222771
0.0162208
-0.0189524
0.0136573
-0.0160326
0.0114466
-0.0134948
0.00955286
-0.011307
0.00793995
-0.00943348
0.00657323
-0.00783826
0.00542068
-0.006487
0.00445329
-0.00534791
0.00364515
-0.00439222
0.00297332
-0.00359417
0.00241775
-0.00293087
0.00196166
-0.00237903
0.00160368
-0.0018626
0.00157699
-0.000417766
-0.00163736
0.000753703
-0.00104523
0.000681032
-0.000832209
0.000562489
-0.000677461
0.000466333
-0.000556191
0.000391679
-0.00046145
0.000334363
-0.000388318
0.000289852
-0.000334023
0.000247427
-0.000290475
0.000195762
-0.000242038
0.000140838
-0.00018535
9.73058e-05
-0.000148453
1.85451e-05
-6.93636e-05
-1.73517e-05
-4.13401e-06
-9.98345e-07
-2.92274e-07
0.481491
-0.359988
0.022843
-0.0911782
0.0744149
-0.0786155
0.0782747
-0.0761327
0.0874771
-0.00711184
-0.087006
0.0583259
-0.0671254
0.0544538
-0.0595075
0.0477644
-0.0524567
0.0413312
-0.0456998
0.0354566
-0.0394261
0.0302068
-0.0337455
0.0255841
-0.0286945
0.0215581
-0.024263
0.0180816
-0.0204141
0.0151004
-0.017098
0.0125589
-0.0142598
0.0104036
-0.0118443
0.00858464
-0.00979906
0.00705684
-0.00807573
0.00577961
-0.00663047
0.00471704
-0.00542416
0.00383763
-0.00442206
0.00311467
-0.0035902
0.00253961
-0.00283659
0.00237972
-0.000585617
-0.00233942
0.00123909
-0.00156849
0.00108361
-0.0012556
0.000892277
-0.00102321
0.000738578
-0.000840914
0.000619138
-0.000698596
0.000527304
-0.000588745
0.000456179
-0.000506475
0.000389904
-0.00043894
0.000310929
-0.000363676
0.000226508
-0.000277226
0.000158997
-0.000217319
4.01275e-05
-9.81229e-05
-1.98728e-05
-4.60579e-06
-1.10757e-06
-3.23956e-07
-0.481738
0.360191
-0.0226619
0.0910794
-0.074231
0.0784486
-0.0780676
0.075942
-0.0872145
0.00711858
0.0867338
-0.0581118
0.0668906
-0.0542371
0.0592788
-0.0475575
0.0522369
-0.0411374
0.0454923
-0.0352778
0.0392331
-0.0300438
0.0335686
-0.0254373
0.0285342
-0.0214272
0.0241192
-0.0179661
0.0202866
-0.0149994
0.0169859
-0.0124713
0.0141621
-0.0103283
0.0117599
-0.0085205
0.0097268
-0.00700259
0.00801432
-0.00573406
0.00657867
-0.00467908
0.0053808
-0.0038062
0.00438601
-0.00308879
0.00356046
-0.00251826
0.00281279
-0.00235951
0.000580762
0.00231947
-0.00122847
0.00155502
-0.00107433
0.00124479
-0.000884657
0.0010144
-0.000732323
0.000833712
-0.000613981
0.000692679
-0.000523046
0.000583864
-0.000452692
0.000502433
-0.000387219
0.000435722
-0.00030903
0.000361299
-0.000225235
0.000275546
-0.000158286
0.000216244
-3.99472e-05
9.76592e-05
1.97795e-05
4.58438e-06
1.10251e-06
3.22692e-07
-0.344843
0.23855
-0.00266381
0.0623122
-0.0472951
0.0510998
-0.0506672
0.0487525
-0.0591281
0.00509926
0.0598653
-0.0363428
0.0441351
-0.0345751
0.0390129
-0.0302963
0.0344095
-0.0261663
0.0299934
-0.0224099
0.0258855
-0.0190645
0.0221614
-0.0161266
0.0188474
-0.0135734
0.0159384
-0.0113727
0.0134111
-0.00948833
0.0112334
-0.00788409
0.00936927
-0.00652528
0.00778274
-0.00537986
0.0064394
-0.00441881
0.00530743
-0.00361623
0.00435805
-0.00294925
0.00356555
-0.00239784
0.00290706
-0.00194527
0.00235939
-0.00159014
0.00184703
-0.00156355
0.000414328
0.00162343
-0.000747217
0.00103627
-0.000675182
0.000825055
-0.000557676
0.000671638
-0.00046238
0.000551431
-0.000388418
0.000457539
-0.000331669
0.000385091
-0.00028765
0.000331343
-0.000245745
0.000288329
-0.000194587
0.000240445
-0.000140061
0.000184215
-9.68884e-05
0.000147714
-1.84662e-05
6.90351e-05
1.72699e-05
4.11466e-06
9.9373e-07
2.91032e-07
-0.23131
0.149859
0.00505355
0.0404968
-0.0287093
0.031729
-0.0313411
0.0298298
-0.0379496
0.00343645
0.0390154
-0.02166
0.0277299
-0.0210212
0.024448
-0.0184093
0.0215806
-0.0158764
0.0188262
-0.0135801
0.0162585
-0.0115406
0.013927
-0.00975344
0.0118498
-0.00820285
0.0100249
-0.00686801
0.00843845
-0.00572628
0.0070706
-0.00475512
0.0058992
-0.00393319
0.00490182
-0.00324084
0.00405697
-0.00266034
0.00334479
-0.0021759
0.00274726
-0.0017736
0.00224827
-0.00144127
0.00183345
-0.00116889
0.00148771
-0.000958168
0.00115456
-0.000983684
0.000278158
0.00107015
-0.000432506
0.000656984
-0.000404804
0.000520375
-0.000335415
0.000423196
-0.000278539
0.000347127
-0.000234435
0.000287675
-0.000200647
0.000241797
-0.000174365
0.000208021
-0.00014878
0.000181563
-0.000116905
0.000152177
-8.31058e-05
0.000117079
-5.6533e-05
9.56072e-05
-7.13836e-06
4.59782e-05
1.32139e-05
3.2425e-06
7.8758e-07
2.30861e-07
-0.133047
0.0821773
0.00553282
0.0228405
-0.0153348
0.0172742
-0.0170076
0.0160436
-0.0211578
0.00198735
0.0219986
-0.0113957
0.0152356
-0.0112496
0.0134037
-0.00984792
0.0118388
-0.00848286
0.0103342
-0.00724843
0.00892928
-0.00615459
0.00765199
-0.00519768
0.00651303
-0.00436855
0.00551172
-0.00365554
0.00464077
-0.0030462
0.00388954
-0.00252827
0.00324596
-0.00209021
0.00269781
-0.00172143
0.00223335
-0.0014124
0.00184171
-0.00115466
0.00151303
-0.000940745
0.00123846
-0.000764152
0.00101012
-0.00061959
0.000819489
-0.000509127
0.000631601
-0.000540284
0.000160374
0.000608295
-0.000221798
0.000363469
-0.000214154
0.00028671
-0.000177929
0.000232989
-0.000147953
0.000190972
-0.000124725
0.000158117
-0.000106953
0.000132763
-9.30948e-05
0.000114204
-7.93542e-05
9.99053e-05
-6.19596e-05
8.40569e-05
-4.35906e-05
6.48793e-05
-2.92192e-05
5.36878e-05
-2.04975e-06
2.63537e-05
8.24479e-06
2.06884e-06
5.04991e-07
1.48125e-07
-0.0434118
0.0261511
0.00223556
0.00738586
-0.00480848
0.00547923
-0.0053823
0.00505345
-0.00679296
0.000651462
0.00710683
-0.0035427
0.00485644
-0.00353239
0.00426727
-0.00309165
0.00377028
-0.00266132
0.00329223
-0.00227272
0.00284543
-0.00192881
0.00243895
-0.00162825
0.00207632
-0.00136802
0.0017574
-0.00114436
0.00147992
-0.000953314
0.00124053
-0.000790996
0.0010354
-0.000653757
0.000860663
-0.000538262
0.000712579
-0.000441513
0.000587693
-0.000360846
0.000482864
-0.000293919
0.000395282
-0.000238689
0.000322431
-0.000193507
0.000261553
-0.000159238
0.000200813
-0.000172084
5.24347e-05
0.00019733
-6.79097e-05
0.000116287
-6.68073e-05
9.15201e-05
-5.55954e-05
7.43403e-05
-4.62646e-05
6.09096e-05
-3.90377e-05
5.04048e-05
-3.35124e-05
4.22977e-05
-2.91979e-05
3.63817e-05
-2.48745e-05
3.18649e-05
-1.93523e-05
2.68651e-05
-1.35337e-05
2.07721e-05
-8.99249e-06
1.73096e-05
-3.29607e-07
8.58811e-06
2.79742e-06
7.1019e-07
1.73809e-07
5.09455e-08
0.0434328
-0.0261432
-0.00223098
-0.0073814
0.0048125
-0.00547553
0.00538567
-0.00505046
0.00679558
-0.000649167
-0.00710475
0.00354465
-0.00485462
0.00353409
-0.0042657
0.00309309
-0.00376896
0.00266252
-0.00329114
0.00227371
-0.00284452
0.00192963
-0.0024382
0.00162892
-0.00207571
0.00136857
-0.0017569
0.00114481
-0.00147951
0.000953682
-0.0012402
0.000791294
-0.00103513
0.000653999
-0.000860446
0.000538457
-0.000712405
0.00044167
-0.000587553
0.000360972
-0.000482752
0.00029402
-0.000395192
0.000238769
-0.000322359
0.000193571
-0.000261497
0.000159286
-0.000200774
0.000172115
-5.24102e-05
-0.000197309
6.79304e-05
-0.000116266
6.68266e-05
-9.15025e-05
5.56111e-05
-7.43266e-05
4.62765e-05
-6.08996e-05
3.9046e-05
-5.03982e-05
3.35173e-05
-4.22943e-05
2.92e-05
-3.63809e-05
2.48741e-05
-3.18663e-05
1.93503e-05
-2.68677e-05
1.35308e-05
-2.07752e-05
8.98953e-06
-1.73122e-05
3.27556e-07
-8.58953e-06
-2.79828e-06
-7.10612e-07
-1.73999e-07
-5.11792e-08
0.133062
-0.0821715
-0.00552932
-0.0228371
0.0153379
-0.0172714
0.0170102
-0.0160413
0.0211599
-0.00198552
-0.021997
0.0113972
-0.0152342
0.0112509
-0.0134024
0.00984907
-0.0118377
0.00848382
-0.0103333
0.00724923
-0.00892856
0.00615524
-0.00765139
0.00519822
-0.00651254
0.004369
-0.00551131
0.0036559
-0.00464044
0.0030465
-0.00388927
0.00252851
-0.00324574
0.0020904
-0.00269763
0.00172159
-0.00223321
0.00141253
-0.0018416
0.00115476
-0.00151293
0.000940829
-0.00123838
0.000764219
-0.00101006
0.000619643
-0.000819442
0.000509168
-0.000631567
0.000540311
-0.000160351
-0.000608275
0.000221817
-0.000363451
0.000214171
-0.000286695
0.000177943
-0.000232977
0.000147963
-0.000190963
0.000124732
-0.000158111
0.000106957
-0.00013276
9.30972e-05
-0.000114203
7.93547e-05
-9.99056e-05
6.19587e-05
-8.40583e-05
4.35889e-05
-6.48812e-05
2.92173e-05
-5.36895e-05
2.04842e-06
-2.63546e-05
-8.24535e-06
-2.06911e-06
-5.05113e-07
-1.48284e-07
0.231313
-0.149857
-0.00505241
-0.0404957
0.0287103
-0.031728
0.031342
-0.029829
0.0379504
-0.00343577
-0.0390148
0.0216606
-0.0277293
0.0210217
-0.0244476
0.0184098
-0.0215802
0.0158768
-0.0188259
0.0135804
-0.0162582
0.0115409
-0.0139268
0.00975366
-0.0118496
0.00820302
-0.0100248
0.00686816
-0.00843831
0.0057264
-0.00707049
0.00475522
-0.00589911
0.00393327
-0.00490174
0.00324091
-0.00405691
0.0026604
-0.00334474
0.00217595
-0.00274722
0.00177364
-0.00224824
0.0014413
-0.00183342
0.00116892
-0.00148769
0.000958187
-0.00115454
0.000983699
-0.000278145
-0.00107014
0.000432516
-0.000656975
0.000404812
-0.000520368
0.000335421
-0.00042319
0.000278544
-0.000347123
0.000234439
-0.000287672
0.00020065
-0.000241795
0.000174367
-0.000208019
0.000148781
-0.000181562
0.000116905
-0.000152177
8.3106e-05
-0.000117079
5.6533e-05
-9.56073e-05
7.13827e-06
-4.59782e-05
-1.3214e-05
-3.24252e-06
-7.87587e-07
-2.30884e-07
0.344831
-0.238554
0.00266133
-0.0623146
0.0472929
-0.0511018
0.0506654
-0.0487541
0.0591267
-0.00510046
-0.0598663
0.0363418
-0.0441361
0.0345742
-0.0390137
0.0302955
-0.0344101
0.0261657
-0.029994
0.0224094
-0.025886
0.0190641
-0.0221618
0.0161262
-0.0188477
0.0135731
-0.0159386
0.0113724
-0.0134113
0.00948815
-0.0112335
0.00788394
-0.0093694
0.00652516
-0.00778285
0.00537976
-0.00643949
0.00441873
-0.0053075
0.00361617
-0.00435811
0.0029492
-0.0035656
0.0023978
-0.0029071
0.00194524
-0.00235941
0.00159011
-0.00184705
0.00156354
-0.000414338
-0.00162344
0.000747208
-0.00103628
0.000675173
-0.000825063
0.000557669
-0.000671644
0.000462374
-0.000551435
0.000388414
-0.000457542
0.000331667
-0.000385092
0.00028765
-0.000331342
0.000245746
-0.000288328
0.000194589
-0.000240443
0.000140063
-0.000184213
9.68903e-05
-0.000147713
1.84675e-05
-6.90342e-05
-1.72693e-05
-4.1144e-06
-9.93609e-07
-2.90888e-07
0.481712
-0.360201
0.0226551
-0.091086
0.0742251
-0.0784542
0.0780625
-0.0759465
0.0872104
-0.00712219
-0.0867371
0.0581088
-0.0668934
0.0542344
-0.0592813
0.0475553
-0.052239
0.0411355
-0.045494
0.0352762
-0.0392346
0.0300425
-0.0335697
0.0254362
-0.0285352
0.0214263
-0.02412
0.0179654
-0.0202872
0.0149988
-0.0169865
0.0124708
-0.0141626
0.0103279
-0.0117603
0.00852018
-0.00972709
0.00700232
-0.00801455
0.00573385
-0.00657886
0.00467891
-0.00538095
0.00380606
-0.00438614
0.00308868
-0.00356055
0.00251818
-0.00281286
0.00235945
-0.000580811
-0.00231951
0.00122843
-0.00155505
0.00107429
-0.00124482
0.000884629
-0.00101443
0.000732301
-0.00083373
0.000613966
-0.000692692
0.000523036
-0.000583872
0.000452686
-0.000502437
0.000387217
-0.000435723
0.000309031
-0.000361297
0.000225237
-0.000275543
0.000158289
-0.000216241
3.99494e-05
-9.76577e-05
-1.97785e-05
-4.58393e-06
-1.10231e-06
-3.22421e-07
-0.0889994
0.0123626
-0.227014
0.188941
-0.170502
0.186917
-0.122215
0.142357
-0.104011
0.0337219
0.101886
-0.0483385
0.0641576
-0.0410785
0.0490723
-0.0324488
0.0383565
-0.0255292
0.0301176
-0.0200643
0.0236707
-0.015737
0.018586
-0.0123059
0.0145608
-0.0095865
0.011371
-0.00743512
0.00884496
-0.00573783
0.00684869
-0.00440346
0.00527574
-0.00335869
0.00404086
-0.00254437
0.00307544
-0.00191282
0.00232421
-0.00142567
0.00174262
-0.00105213
0.00129485
-0.000767579
0.000952188
-0.00055257
0.00069131
-0.000393463
0.000486202
-0.000312551
0.000136359
0.000302793
-0.00010777
0.000165613
-7.73837e-05
0.000106531
-4.84002e-05
6.75848e-05
-2.89844e-05
4.15477e-05
-1.67617e-05
2.47093e-05
-9.38894e-06
1.42334e-05
-5.10514e-06
7.95687e-06
-2.69302e-06
4.32121e-06
-1.3675e-06
2.2747e-06
-6.49484e-07
1.15708e-06
-2.18831e-07
5.04281e-07
1.22303e-09
1.2978e-07
2.66758e-08
6.19422e-09
1.48413e-09
4.29133e-10
-0.0659654
-0.00116282
-0.154975
0.121632
-0.109462
0.123802
-0.0765654
0.0941468
-0.0680977
0.0240514
0.0717447
-0.0289456
0.0429402
-0.0256187
0.0326446
-0.02031
0.0254973
-0.0159895
0.020018
-0.0125676
0.0157338
-0.00985498
0.0123562
-0.00770302
0.00968268
-0.00599731
0.00756387
-0.00464812
0.00588575
-0.0035841
0.00455925
-0.00274803
0.00351372
-0.00209384
0.00269263
-0.00158432