/*--------------------------------*- C++ -*----------------------------------*\
| =========                 |                                                 |
| \\      /  F ield         | OpenFOAM: The Open Source CFD Toolbox           |
|  \\    /   O peration     | Version:  5.x                                   |
|   \\  /    A nd           | Web:      www.OpenFOAM.org                      |
|    \\/     M anipulation  |                                                 |
\*---------------------------------------------------------------------------*/
FoamFile
{
    version     2.0;
    format      ascii;
    class       volScalarField;
    location    "12";
    object      gradTy;
}
// * * * * * * * * * * * * * * * * * * * * * * * * * * * * * * * * * * * * * //

dimensions      [0 -1 0 1 0 0 0];

internalField   nonuniform List<scalar> 
6300
(
1010.67
1032.18
1054.2
1077.06
1101.08
1126.56
1153.75
1182.88
1214.12
1247.58
1283.27
1321.13
1361
1402.64
1445.69
-0.256653
-0.765916
-1.26267
-1.73735
-2.17869
-2.57327
-2.90535
-3.15722
-3.31015
-3.3461
-3.25023
-3.01397
-2.63816
-2.13525
-1.52972
-0.432258
-1.29045
-2.129
-2.93268
-3.68319
-4.35829
-4.93139
-5.37194
-5.64678
-5.72308
-5.57271
-5.17798
-4.53779
-3.67246
-2.62519
-0.614193
-1.83462
-3.03019
-4.18115
-5.26305
-6.24524
-7.08995
-7.75229
-8.18188
-8.32665
-8.13946
-7.58738
-6.66248
-5.39153
-3.8401
-0.804077
-2.40361
-3.97599
-5.49867
-6.94258
-8.26963
-9.43082
-10.3653
-11.0017
-11.2621
-11.0711
-10.3695
-9.1332
-7.39106
-5.23632
-1.00257
-2.99975
-4.97142
-6.8949
-8.73889
-10.4598
-11.9982
-13.2764
-14.1975
-14.6489
-14.513
-13.6863
-12.1096
-9.80305
-6.89345
-1.209
-3.62139
-6.01501
-8.37057
-10.6582
-12.8323
-14.8259
-16.5445
-17.8627
-18.623
-18.6457
-17.753
-15.8157
-12.8181
-8.92291
-1.42102
-4.26178
-7.09658
-9.91408
-12.691
-15.3854
-17.9281
-20.213
-22.0855
-23.3345
-23.6934
-22.8643
-20.5818
-16.7305
-11.4932
-1.63431
-4.90809
-8.19536
-11.4981
-14.8062
-18.0898
-21.2881
-24.2937
-26.9317
-28.9358
-29.929
-29.4287
-26.9167
-22.0289
-14.8842
-1.84242
-5.54086
-9.27864
-13.0766
-16.9457
-20.8793
-24.8407
-28.7418
-32.4114
-35.5477
-37.6577
-38.0045
-35.6274
-29.5841
-19.6176
-2.03691
-6.13425
-10.3017
-14.5838
-19.0204
-23.641
-28.4532
-33.421
-38.4242
-43.1856
-47.1495
-49.3038
-48.0042
-41.0625
-26.8184
-2.20784
-6.65749
-11.2099
-15.9363
-20.9111
-26.2109
-31.9099
-38.0644
-44.6783
-51.6208
-58.4503
-64.0566
-66.0229
-59.843
-39.4076
-2.34479
-7.07791
-11.9441
-17.0403
-22.4764
-28.3815
-34.9105
-42.2482
-50.6034
-60.1683
-70.9739
-82.4489
-92.1874
-92.8783
-66.7194
-2.43816
-7.3652
-12.4482
-17.8042
-23.5724
-29.9279
-37.1022
-45.4142
-55.3183
-67.4745
-82.8275
-102.577
-127.398
-152.763
-145.024
-2.4808
-7.4965
-12.679
-18.1556
-24.0808
-30.6552
-38.1557
-46.9875
-57.7806
-71.5834
-90.2837
-117.632
-162.065
-245.749
-438.7
1486.09
1523.23
1560.51
1597.66
1634.41
1670.53
1705.79
1740
1773
1804.64
1834.82
1863.44
1890.44
1915.76
1939.36
1961.21
1981.3
1999.6
2016.13
2030.87
2043.85
2055.06
2064.53
2072.28
2078.33
2082.7
2085.43
2086.54
2086.07
2084.04
2080.49
2075.46
2068.97
2061.05
2051.75
2041.09
2029.1
2015.82
2001.27
1985.48
1968.5
1950.35
1931.05
1910.66
1889.19
1866.68
1843.17
1818.67
1793.23
1766.85
1739.58
1711.43
1682.43
1652.59
1621.94
1590.51
1558.3
1525.36
1491.71
1457.37
1422.38
1386.76
1350.56
1313.8
1276.51
1238.74
1200.51
1161.87
1122.87
1083.55
1043.97
1004.19
964.283
924.329
884.412
844.626
805.07
765.845
727.057
688.812
651.212
614.359
578.35
543.274
509.212
476.236
444.405
413.764
384.344
356.159
-0.912113
-0.328606
0.253927
0.814715
1.33695
1.80876
2.22332
2.57842
2.87553
3.11876
3.31373
3.46672
3.58395
3.67112
3.73315
3.7741
3.79726
3.80521
3.80003
3.78337
3.75665
3.72109
3.67782
3.62789
3.57228
3.51194
3.4478
3.38075
3.31165
3.24129
3.17042
3.09964
3.02943
2.96007
2.89163
2.82398
2.75683
2.68976
2.62237
2.55431
2.48543
2.41584
2.34592
2.27631
2.20784
2.14142
2.07788
2.01784
1.96159
1.90899
1.85949
1.81214
1.76574
1.71897
1.67056
1.61952
1.56517
1.50729
1.44602
1.3818
1.31519
1.24663
1.17628
1.10384
1.0284
0.948439
0.86194
0.766518
0.659693
0.539181
0.403182
0.250629
0.0813522
-0.103855
-0.303268
-0.51436
-0.733986
-0.958589
-1.18439
-1.40754
-1.62418
-1.83049
-2.02261
-2.19667
-2.34876
-2.47507
-2.5721
-2.63698
-2.6678
-2.66398
-1.55559
-0.546459
0.457505
1.41895
2.30834
3.10559
3.80011
4.38964
4.87835
5.27475
5.58969
5.83476
6.02105
6.15846
6.2553
6.3183
6.35273
6.36268
6.35135
6.32133
6.27481
6.21376
6.13997
6.05515
5.96094
5.85891
5.75059
5.63747
5.52101
5.40259
5.28348
5.16477
5.04731
4.93159
4.81773
4.70546
4.59418
4.48308
4.37128
4.2581
4.14314
4.02655
3.909
3.79166
3.67612
3.5641
3.45722
3.35671
3.26317
3.1764
3.09541
3.01843
2.9432
2.86724
2.78819
2.70416
2.61398
2.51728
2.41449
2.3066
2.19486
2.08036
1.96365
1.84436
1.72103
1.59102
1.45065
1.29557
1.12117
0.923184
0.698224
0.444245
0.160856
-0.150562
-0.486939
-0.84377
-1.21548
-1.59584
-1.97833
-2.3564
-2.7236
-3.07358
-3.39998
-3.6963
-3.95587
-4.17196
-4.33825
-4.44938
-4.50171
-4.49398
-2.25179
-0.756624
0.722594
2.12725
3.41273
4.55071
5.52849
6.34645
7.01452
7.54847
7.96673
8.2879
8.52901
8.70467
8.82666
8.90413
8.94395
8.95129
8.93009
8.88356
8.81444
8.7253
8.61854
8.49649
8.36141
8.21548
8.06083
7.89956
7.73375
7.56543
7.39651
7.22868
7.06324
6.90099
6.74209
6.58607
6.43184
6.27793
6.12276
5.96497
5.80376
5.6392
5.47229
5.30497
5.13985
4.9799
4.8279
4.68606
4.55549
4.436
4.32602
4.22267
4.12219
4.02042
3.91343
3.79811
3.6726
3.53648
3.39072
3.23736
3.0789
2.91767
2.75509
2.59107
2.42365
2.24884
2.06089
1.85275
1.61692
1.34634
1.03535
0.680498
0.280999
-0.161059
-0.640895
-1.1515
-1.68428
-2.2298
-2.77841
-3.32069
-3.8476
-4.35043
-4.82048
-5.2487
-5.6254
-5.94041
-6.18367
-6.34629
-6.42197
-6.40828
-3.02182
-0.943861
1.09502
3.00711
4.72951
6.22651
7.48703
8.51918
9.34389
9.98886
10.4837
10.8564
11.1313
11.3282
11.4622
11.5443
11.5821
11.5811
11.5454
11.4784
11.383
11.2623
11.1193
10.9567
10.7777
10.5848
10.3808
10.1684
9.95029
9.72932
9.50817
9.28932
9.07477
8.86575
8.66252
8.46428
8.26922
8.07481
7.87822
7.67695
7.46942
7.25542
7.03638
6.81529
6.59636
6.38443
6.18418
5.99937
5.83204
5.68213
5.54727
5.42298
5.30323
5.18131
5.05086
4.90693
4.74667
4.56972
4.37809
4.17563
3.96712
3.75711
3.54877
3.34286
3.13706
2.92577
2.70036
2.44998
2.16287
1.82782
1.4358
0.981187
0.462574
-0.117008
-0.750403
-1.42714
-2.13459
-2.85917
-3.58748
-4.30696
-5.00613
-5.67435
-6.30111
-6.87514
-7.38363
-7.81209
-8.1451
-8.36828
-8.47081
-8.44808
-3.88497
-1.07466
1.65021
4.16031
6.37103
8.24302
9.77463
10.9909
11.9324
12.6458
13.1769
13.5661
13.8464
14.0429
14.173
14.2485
14.2764
14.2613
14.2064
14.1145
13.9886
13.8321
13.6485
13.4414
13.2143
12.9705
12.7133
12.4459
12.1715
11.894
11.617
11.3443
11.0789
10.8227
10.5763
10.3384
10.1062
9.87536
9.64096
9.39849
9.14491
8.87943
8.60396
8.32303
8.04332
7.77265
7.51877
7.288
7.08401
6.90709
6.75379
6.61723
6.48787
6.35492
6.20818
6.03972
5.84523
5.62454
5.38149
5.12305
4.8579
4.59454
4.33934
4.09486
3.85877
3.6234
3.37612
3.10047
2.77817
2.39166
1.92669
1.37435
0.732246
0.0048294
-0.797203
-1.65828
-2.55993
-3.4829
-4.409
-5.32221
-6.20899
-7.05774
-7.85743
-8.59571
-9.2569
-9.82098
-10.2645
-10.5638
-10.6999
-10.6638
-4.8566
-1.08243
2.51458
5.74453
8.50018
10.7495
12.5161
13.8581
14.8492
15.5652
16.0743
16.4325
16.6822
16.8529
16.9626
17.0211
17.0327
16.9989
16.9206
16.7995
16.6383
16.4408
16.2115
15.9547
15.6749
15.3758
15.0607
14.7333
14.3974
14.0578
13.7199
13.3889
13.0697
12.7657
12.4779
12.2046
11.9414
11.6811
11.4154
11.1362
10.8377
10.518
10.1795
9.82917
9.47739
9.13683
8.82025
8.53822
8.29717
8.09817
7.93638
7.80129
7.67783
7.54858
7.39691
7.21015
6.98166
6.71171
6.40718
6.08028
5.74626
5.42039
5.11462
4.83495
4.57959
4.33835
4.09287
3.81827
3.48608
3.06863
2.54355
1.8969
1.12491
0.234254
-0.758829
-1.83086
-2.95441
-4.10196
-5.24889
-6.37533
-7.46644
-8.51157
-9.50199
-10.4271
-11.2698
-12.0033
-12.5914
-12.9941
-13.1766
-13.1214
-5.93993
-0.835196
3.90728
8.01146
11.3581
13.9504
15.8684
17.2297
18.1615
18.7818
19.1881
19.4544
19.6313
19.7499
19.8251
19.8607
19.8537
19.7998
19.6958
19.5415
19.3395
19.0947
18.8131
18.5007
18.1627
17.8032
17.4252
17.0321
16.628
16.2188
15.812
15.4159
15.0382
14.6847
14.3578
14.0557
13.7717
13.4942
13.2088
12.901
12.5604
12.183
11.7717
11.3369
10.8948
10.466
10.0715
9.72898
9.44937
9.23526
9.08014
8.96821
8.87576
8.77414
8.63581
8.44033
8.17746
7.84835
7.46475
7.04746
6.62258
6.21698
5.85206
5.53977
5.27984
5.05914
4.85134
4.6188
4.31653
3.90038
3.33529
2.59976
1.68827
0.611015
-0.606909
-1.92939
-3.31444
-4.72197
-6.11835
-7.47937
-8.79007
-10.0442
-11.2405
-12.3771
-13.44
-14.3946
-15.1853
-15.7414
-15.9954
-15.9122
-7.10457
-0.0666376
6.21866
11.3687
15.3017
18.1216
20.0215
21.2186
21.921
22.3051
22.5025
22.6037
22.6632
22.708
22.7433
22.76
22.7411
22.6716
22.542
22.3507
22.1009
21.8003
21.4577
21.082
20.6802
20.2557
19.8102
19.3453
18.8645
18.3749
17.8872
17.4149
16.9705
16.5641
16.2007
15.8795
15.5911
15.3176
15.0332
14.7116
14.3351
13.8954
13.3968
12.8537
12.2921
11.7446
11.247
10.828
10.5062
10.2864
10.1607
10.1061
10.0859
10.0516
9.95606
9.76668
9.46773
9.06261
8.57001
8.02474
7.47033
6.95424
6.51297
6.16847
5.92289
5.76067
5.6448
5.5191
5.31037
4.94601
4.37188
3.55546
2.48982
1.18985
-0.304885
-1.93823
-3.64247
-5.3584
-7.03902
-8.65615
-10.1954
-11.6601
-13.0653
-14.4332
-15.7661
-17.0221
-18.1172
-18.9235
-19.2997
-19.1727
-8.21985
1.78529
10.1642
16.4778
20.8478
23.6172
25.1864
25.9192
26.1385
26.0966
25.9545
25.8125
25.7152
25.6792
25.6875
25.71
25.7004
25.6289
25.4766
25.2432
24.9349
24.5654
24.149
23.7004
23.2294
22.7376
22.2223
21.6807
21.1129
20.5276
19.9396
19.373
18.8473
18.3809
17.9823
17.6554
17.3884
17.1561
16.9103
16.601
16.2
15.6922
15.0852
14.3966
13.6686
12.9507
12.3088
11.7865
11.4158
11.2014
11.1384
11.194
11.316
11.417
11.411
11.2504
10.9105
10.4025
9.75076
9.01486
8.26257
7.58346
7.03422
6.65442
6.44561
6.39518
6.45215
6.53867
6.52809
6.29346
5.75715
4.86983
3.62864
2.049
0.196593
-1.84507
-3.95376
-6.04573
-8.05117
-9.94504
-11.7082
-13.3617
-14.9437
-16.5398
-18.203
-19.8811
-21.4647
-22.7247
-23.3285
-23.1211
-8.82211
5.97879
17.0833
24.3852
28.6984
30.8412
31.556
31.36
30.7329
30.033
29.4072
28.9577
28.6796
28.5875
28.612
28.7071
28.7499
28.7033
28.5287
28.2446
27.8578
27.3993
26.8879
26.3521
25.8097
25.2546
24.6734
24.0549
23.3877
22.6854
21.9625
21.2735
20.64
20.1015
19.6617
19.3463
19.1369
19.0155
18.88
18.6236
18.2201
17.6329
16.8927
15.9975
15.0318
14.0485
13.1998
12.5282
12.1014
11.8997
11.9467
12.1874
12.5773
12.9375
13.0896
12.9934
12.5966
11.9503
11.0539
10.0297
8.95048
8.02673
7.31246
6.89517
6.74122
6.87597
7.21781
7.69893
8.06926
8.07613
7.64866
6.69454
5.25563
3.30168
0.971387
-1.65463
-4.28838
-6.85692
-9.22325
-11.4215
-13.378
-15.1658
-16.8009
-18.5489
-20.6179
-22.8755
-25.2774
-27.4705
-28.525
-28.1311
-7.17897
15.4951
29.4784
36.5961
39.6732
40.1206
39.2361
37.4202
35.4313
33.8615
32.605
31.855
31.3754
31.327
31.4337
31.7783
31.9273
31.9611
31.7375
31.3929
30.8831
30.308
29.661
29.0124
28.4071
27.8082
27.1772
26.4983
25.7123
24.8718
23.9354
23.0933
22.2948
21.6793
21.161
20.884
20.7575
20.8945
21.023
20.8573
20.504
19.793
18.9226
17.6993
16.4197
14.9516
13.8354
12.9166
12.4621
12.2392
12.4756
12.9655
13.8808
14.7574
15.1251
15.1689
14.6414
13.8576
12.5404
11.1232
9.41411
8.16791
7.16264
6.75629
6.62072
7.05819
7.78257
9.01834
10.1335
10.4839
10.2982
9.21705
7.62395
5.09603
2.17176
-1.45324
-4.71707
-7.95944
-10.6375
-13.2459
-15.2909
-17.1897
-18.4956
-20.0959
-22.7608
-25.662
-29.3908
-33.8554
-35.8068
-34.8792
4.00342
37.5256
51.7598
54.6253
54.4343
51.3172
48.2569
43.7285
39.5255
37.2381
35.0727
34.362
33.4493
33.8426
33.9119
35.1304
35.2697
35.5889
35.1195
34.7784
34.0016
33.3195
32.4358
31.6093
30.9945
30.4071
29.7492
29.0952
28.1147
27.1954
25.772
24.8498
23.6852
23.1164
22.3123
22.2041
21.9984
22.7851
23.5889
23.3607
23.3024
22.1822
21.4602
19.4815
18.0786
15.3475
14.1861
12.6358
12.4892
11.9168
12.6388
13.1309
15.2394
17.3097
17.6266
18.1668
17.0548
16.5328
14.1709
12.6366
9.21092
7.96191
6.15016
6.22723
5.67482
6.82705
7.6107
10.5112
13.2988
13.6634
14.237
12.4765
11.3382
7.46094
4.38106
-1.77206
-5.17671
-9.8746
-12.152
-15.8818
-17.4142
-20.0671
-19.7662
-20.1099
-24.5633
-27.2564
-32.4443
-43.859
-47.2342
-44.622
59.496
87.3293
90.4101
77.0548
73.4082
62.4313
59.391
49.5681
40.8609
40.439
35.4456
37.1597
33.6427
36.8246
34.7349
40.0366
38.3527
40.3523
38.3165
38.7914
36.9836
36.6212
35.128
33.9016
33.5425
33.1076
32.3158
32.1624
30.4289
30.2449
26.887
26.9557
24.218
24.8926
22.4615
23.6652
21.8103
24.6511
27.6413
25.6195
27.6301
23.9982
25.8076
20.435
21.6505
13.4836
15.0974
10.3343
13.13
9.73062
13.1337
10.9692
16.6534
22.387
19.8068
23.5443
18.619
21.8576
14.6098
16.8741
5.87374
8.56665
2.41822
6.60503
2.27464
7.12702
4.39094
12.1669
19.9532
16.5422
21.537
14.8404
18.9968
8.67789
11.0161
-6.04828
-3.77374
-15.2749
-11.5746
-21.6813
-17.9237
-27.1976
-20.1083
-14.2053
-28.9
-25.2581
-26.5304
-65.439
-67.2826
-59.6802
342.642
172.775
152.727
85.5019
102.936
62.1152
80.2907
53.7993
30.2644
50.2213
26.1585
47.4888
24.1885
47.3966
24.9129
55.0008
36.1301
50.9251
37.8965
46.0902
37.8827
41.5499
37.4345
34.9434
36.1984
36.3206
33.9617
37.5035
30.5108
37.8636
23.0665
33.1016
19.8357
31.1397
17.3756
29.5296
14.8591
26.3011
38.91
22.0705
40.0819
17.9778
40.4961
11.9006
38.732
-2.4654
25.1904
-2.85273
22.691
-2.25177
21.6454
-2.49562
17.9957
39.4356
12.8885
41.3956
8.42618
42.2824
1.35056
40.212
-17.1822
21.9024
-16.1969
19.2472
-14.3491
18.3539
-13.9666
13.8073
42.7313
7.3162
45.6721
1.57546
47.4993
-8.3318
45.5905
-38.1728
17.466
-42.5652
8.88476
-47.4451
0.332011
-57.8909
-18.7419
21.3598
-59.6412
-16.183
33.5798
-140.392
-100.933
-84.8408
326.513
295.92
267.017
239.715
213.909
189.475
166.281
144.191
123.065
102.765
83.1566
64.1064
45.4862
27.1706
9.03675
-2.62258
-2.5323
-2.40323
-2.24322
-2.06056
-1.8631
-1.65758
-1.44938
-1.24233
-1.03891
-0.840374
-0.647012
-0.458364
-0.273436
-0.0908751
-4.42101
-4.26352
-4.03974
-3.76387
-3.45074
-3.11413
-2.76567
-2.41437
-2.06655
-1.72611
-1.39489
-1.07313
-0.759815
-0.453101
-0.150559
-6.29725
-6.06096
-5.72825
-5.32171
-4.86436
-4.37697
-3.87656
-3.37584
-2.88336
-2.40406
-1.93995
-1.49077
-1.05466
-0.628589
-0.208816
-8.28854
-7.95474
-7.4905
-6.93029
-6.30795
-5.65278
-4.98772
-4.32903
-3.68696
-3.0668
-2.47003
-1.89534
-1.33944
-0.797772
-0.264928
-10.4394
-9.97882
-9.34861
-8.6009
-7.78426
-6.9384
-6.09244
-5.26555
-4.4686
-3.70612
-2.97802
-2.28108
-1.60999
-0.958119
-0.318048
-12.8059
-12.1723
-11.3241
-10.3403
-9.28969
-8.22401
-7.17801
-6.17206
-5.21573
-4.31099
-3.4548
-2.64094
-1.8613
-1.10665
-0.367188
-15.4617
-14.5804
-13.4349
-12.1464
-10.81
-9.48983
-8.22342
-7.02887
-5.9112
-4.86726
-3.8892
-2.96656
-2.08759
-1.23999
-0.411235
-18.5073
-17.2525
-15.6884
-14.0003
-12.3141
-10.7017
-9.19685
-7.80872
-6.53284
-5.3576
-4.26814
-3.24847
-2.2825
-1.35446
-0.448992
-22.0817
-20.2338
-18.0658
-15.8522
-13.744
-11.8061
-10.0534
-8.4762
-7.05376
-5.76208
-4.57723
-3.47663
-2.43943
-1.44635
-0.479258
-26.3698
-23.5348
-20.4885
-17.5985
-15.0036
-12.7249
-10.7344
-8.98879
-7.44381
-6.05968
-4.802
-3.64133
-2.55223
-1.51224
-0.500936
-31.5711
-27.0467
-22.7546
-19.0496
-15.9468
-13.3554
-11.1705
-9.30059
-7.67293
-6.23076
-4.92971
-3.73442
-2.61588
-1.54943
-0.513175
-37.6875
-30.3261
-24.4333
-19.8982
-16.3783
-13.5794
-11.2913
-9.37004
-7.71645
-6.26063
-4.95159
-3.75072
-2.62743
-1.55638
-0.515505
-43.5999
-32.1365
-24.7539
-19.7315
-16.0885
-13.2922
-11.0452
-9.17171
-7.56212
-6.14362
-4.86526
-3.68938
-2.58668
-1.53315
-0.507963
-43.4331
-29.8656
-22.7139
-18.1853
-14.9517
-12.4558
-10.4252
-8.7094
-7.21659
-5.88641
-4.67637
-3.5548
-2.49675
-1.48156
-0.491151
-2.47444
-7.47674
-12.6438
-18.1013
-24.0022
-30.5454
-38.0061
-46.7887
-57.5259
-71.2806
-89.9956
-117.608
-163.116
-249.917
-446.254
-2.42776
-7.3326
-12.3892
-17.7122
-23.4385
-29.7422
-36.8561
-45.1072
-54.9735
-67.1775
-82.8222
-103.487
-130.618
-160.277
-151.434
-2.3468
-7.08299
-11.9496
-17.0429
-22.4737
-28.376
-34.9161
-42.3036
-50.7972
-60.6845
-72.1622
-84.875
-96.3624
-97.3741
-60.7981
-2.23625
-6.74276
-11.3526
-16.139
-21.1814
-26.5667
-32.3874
-38.7317
-45.6527
-53.0865
-60.6438
-67.1134
-69.3816
-60.5727
-29.203
-2.10208
-6.33073
-10.6328
-15.0571
-19.6507
-24.4548
-29.4948
-34.7589
-40.1519
-45.4025
-49.8801
-52.2686
-50.0925
-39.4382
-16.3829
-1.9509
-5.86764
-9.82814
-13.8577
-17.9738
-22.1789
-26.4465
-30.6963
-34.7498
-38.255
-40.5669
-40.5935
-36.6906
-26.9153
-10.3061
-1.78934
-5.37412
-8.97545
-12.598
-16.235
-19.8595
-23.4103
-26.7697
-29.7282
-31.9357
-32.8407
-31.6469
-27.3664
-19.1379
-7.00895
-1.62352
-4.86907
-8.10796
-11.3282
-14.5047
-17.591
-20.507
-23.1211
-25.2279
-26.5206
-26.5717
-24.8436
-20.7836
-14.069
-5.02357
-1.45874
-4.3686
-7.25339
-10.0886
-12.8369
-15.4408
-17.8131
-19.8249
-21.2926
-21.9676
-21.5379
-19.6597
-16.044
-10.6187
-3.73376
-1.29923
-3.88552
-6.4332
-8.9093
-11.2693
-13.4514
-15.3695
-16.9063
-17.9077
-18.1816
-17.5099
-15.682
-12.5611
-8.1819
-2.8485
-1.14816
-3.42921
-5.66267
-7.81055
-9.82524
-11.6452
-13.1905
-14.3595
-15.0278
-15.0521
-14.2848
-12.6023
-9.9518
-6.40769
-2.21574
-1.00766
-3.00593
-4.95152
-6.80424
-8.51634
-10.0295
-11.2727
-12.1604
-12.5951
-12.4724
-11.6949
-10.1947
-7.96302
-5.08333
-1.7493
-0.879014
-2.61922
-4.30481
-5.89552
-7.34548
-8.60141
-9.60154
-10.2759
-10.5493
-10.3471
-9.60705
-8.29485
-6.42423
-4.07444
-1.39712
-0.762729
-2.27042
-3.72396
-5.0845
-6.30931
-7.35085
-8.15652
-8.66988
-8.83365
-8.59542
-7.91638
-6.78277
-5.21816
-3.29299
-1.12611
-0.658778
-1.9592
-3.20766
-4.36768
-5.40037
-6.26401
-6.91444
-7.30652
-7.3971
-7.14974
-6.54134
-5.56995
-4.26243
-2.67936
-0.914356
-0.566721
-1.68406
-2.75274
-3.73926
-4.60878
-5.32519
-5.85171
-6.15248
-6.19517
-5.95474
-5.41832
-4.5905
-3.49801
-2.19206
-0.746837
-0.485843
-1.44269
-2.35485
-3.19205
-3.92349
-4.51818
-4.94569
-5.17763
-5.1898
-4.96523
-4.49761
-3.79483
-2.88181
-1.80145
-0.61296
-0.415267
-1.23234
-2.00901
-2.71825
-3.33313
-3.82724
-4.17546
-4.35533
-4.3488
-4.14448
-3.74016
-3.14513
-2.38179
-1.48592
-0.505072
-0.354033
-1.05005
-1.70998
-2.30996
-2.82663
-3.23756
-3.5221
-3.66245
-3.64511
-3.46258
-3.11513
-2.61229
-1.97378
-1.22939
-0.417524
-0.301161
-0.892812
-1.45256
-1.95951
-2.39352
-2.73564
-2.96886
-3.07905
-3.0561
-2.89518
-2.59798
-2.17364
-1.63929
-1.0197
-0.346074
-0.255699
-0.757724
-1.23178
-1.65971
-2.02422
-2.30932
-2.50102
-2.58807
-2.56288
-2.42241
-2.16909
-1.81138
-1.36399
-0.847534
-0.287481
-0.216742
-0.642056
-1.04302
-1.40394
-1.71003
-1.94784
-2.10584
-2.17503
-2.14968
-2.02799
-1.81268
-1.51137
-1.13664
-0.705635
-0.239239
-0.183458
-0.543294
-0.882052
-1.18624
-1.44325
-1.64178
-1.77231
-1.82763
-1.80338
-1.69857
-1.51597
-1.26233
-0.94835
-0.588312
-0.199386
-0.15509
-0.459165
-0.745086
-1.00129
-1.21707
-1.38292
-1.49099
-1.53546
-1.51301
-1.42317
-1.26859
-1.05519
-0.79204
-0.491044
-0.166368
-0.13096
-0.38764
-0.628748
-0.844415
-1.02555
-1.16419
-1.25382
-1.28975
-1.26942
-1.1927
-1.06205
-0.882594
-0.662004
-0.410217
-0.138947
-0.110469
-0.326925
-0.530073
-0.711509
-0.863541
-0.979481
-1.05394
-1.0831
-1.06499
-0.999681
-0.889397
-0.738553
-0.553628
-0.342915
-0.116126
-0.0930908
-0.27545
-0.446471
-0.599016
-0.726587
-0.823572
-0.885499
-0.909264
-0.893331
-0.837882
-0.744903
-0.618173
-0.463155
-0.286775
-0.0970969
-0.0783655
-0.231847
-0.375695
-0.503863
-0.610866
-0.692002
-0.743556
-0.762991
-0.749104
-0.70214
-0.623841
-0.517433
-0.387513
-0.239869
-0.081203
-0.0658959
-0.194933
-0.315806
-0.423403
-0.513105
-0.58097
-0.623912
-0.639853
-0.627843
-0.588151
-0.522296
-0.433015
-0.324177
-0.200615
-0.0679057
-0.0553387
-0.163687
-0.265134
-0.355368
-0.430503
-0.487241
-0.523016
-0.536119
-0.5258
-0.492328
-0.437013
-0.362176
-0.271063
-0.167711
-0.0567622
-0.0463986
-0.137232
-0.222247
-0.297815
-0.360674
-0.408066
-0.437859
-0.448646
-0.439831
-0.411669
-0.365285
-0.302637
-0.226446
-0.140082
-0.0474069
-0.0388223
-0.114815
-0.185918
-0.249085
-0.301583
-0.341111
-0.365896
-0.374783
-0.367293
-0.343663
-0.304849
-0.2525
-0.188893
-0.116834
-0.0395364
-0.0323927
-0.0957943
-0.1551
-0.207761
-0.251497
-0.28439
-0.304971
-0.312289
-0.30596
-0.286197
-0.25381
-0.21018
-0.157206
-0.0972237
-0.0328983
-0.0269236
-0.0796168
-0.128895
-0.172635
-0.208939
-0.236218
-0.253255
-0.25927
-0.253955
-0.237497
-0.210576
-0.174347
-0.130386
-0.0806286
-0.0272815
-0.0222556
-0.0658103
-0.106534
-0.14267
-0.172648
-0.195155
-0.209191
-0.214117
-0.209686
-0.19606
-0.173806
-0.143881
-0.107589
-0.0665261
-0.0225088
-0.0182517
-0.053969
-0.0873598
-0.11698
-0.141543
-0.159973
-0.171452
-0.175461
-0.171802
-0.160612
-0.142361
-0.117836
-0.0881048
-0.0544746
-0.0184306
-0.0147937
-0.0437427
-0.0708028
-0.094802
-0.114697
-0.129616
-0.138899
-0.142128
-0.139146
-0.130066
-0.115273
-0.0954048
-0.0713276
-0.044099
-0.0149198
-0.011779
-0.0348279
-0.0563707
-0.0754734
-0.0913047
-0.103172
-0.11055
-0.113108
-0.110723
-0.103487
-0.0917086
-0.0758958
-0.0567385
-0.0350776
-0.0118673
-0.00911779
-0.0269588
-0.0436327
-0.058416
-0.0706651
-0.0798438
-0.0855471
-0.0875194
-0.0856668
-0.0800625
-0.070945
-0.0587087
-0.0438876
-0.0271318
-0.00917898
-0.00673049
-0.0199
-0.0322072
-0.043118
-0.0521571
-0.0589288
-0.0631347
-0.0645866
-0.0632157
-0.0590769
-0.0523466
-0.0433162
-0.0323798
-0.0200171
-0.00677191
-0.00454556
-0.0134397
-0.0217514
-0.0291195
-0.0352232
-0.0397953
-0.0426343
-0.0436134
-0.0426864
-0.0398905
-0.035345
-0.0292469
-0.0218623
-0.013515
-0.0045722
-0.00249737
-0.00738394
-0.0119505
-0.0159989
-0.0193526
-0.021865
-0.0234252
-0.0239636
-0.0234547
-0.0219188
-0.0194214
-0.0160709
-0.0120132
-0.00742649
-0.00251242
-0.000524296
-0.00155031
-0.00250953
-0.00336048
-0.00406618
-0.00459573
-0.00492564
-0.00504095
-0.00493595
-0.00461457
-0.00409029
-0.00338568
-0.00253148
-0.00156521
-0.000529564
0.00143311
0.00423694
0.0068563
0.00917705
0.0110979
0.0125349
0.0134249
0.0137287
0.0134325
0.0125488
0.0111157
0.0091956
0.00687245
0.0042479
0.00143699
0.00343382
0.0101522
0.0164294
0.0219922
0.0265979
0.0300452
0.0321825
0.0329149
0.0322089
0.0300934
0.0266596
0.0220567
0.0164856
0.0101904
0.00344731
0.00553811
0.0163739
0.0264985
0.0354717
0.0429022
0.048465
0.0519153
0.0530998
0.0519637
0.0485533
0.0430153
0.03559
0.0266015
0.0164438
0.00556284
0.00780934
0.0230892
0.0373671
0.0500222
0.0605031
0.0683513
0.0732212
0.0748959
0.0732973
0.0684904
0.0606812
0.0502084
0.0375292
0.0231993
0.00784826
0.0103158
0.0305002
0.0493621
0.0660822
0.0799319
0.0903053
0.0967452
0.0989643
0.0968583
0.0905118
0.0801963
0.0663586
0.0496029
0.0306636
0.0103736
0.0131327
0.0388294
0.0628442
0.0841348
0.101774
0.11499
0.1232
0.126036
0.123363
0.115289
0.102157
0.0845347
0.0631924
0.0390657
0.0132163
0.0163443
0.0483261
0.0782176
0.104722
0.126687
0.14315
0.153385
0.156931
0.153618
0.143577
0.127234
0.105294
0.0787151
0.0486638
0.0164637
0.0200465
0.0592742
0.0959421
0.128462
0.15542
0.175635
0.188213
0.192588
0.188545
0.176241
0.156196
0.129274
0.0966486
0.0597538
0.0202161
0.0243494
0.0719995
0.116546
0.156063
0.188834
0.213422
0.228738
0.234088
0.229208
0.21428
0.189932
0.157212
0.117547
0.0726785
0.0245896
0.0293805
0.0868792
0.140642
0.188349
0.227928
0.257645
0.276181
0.28269
0.276845
0.258859
0.229481
0.189973
0.142057
0.0878392
0.0297201
0.0352881
0.104352
0.168943
0.226277
0.273868
0.309632
0.331974
0.339869
0.332912
0.311346
0.276063
0.228571
0.170941
0.105709
0.0357678
0.0422451
0.124932
0.202281
0.270968
0.32802
0.370936
0.397797
0.40736
0.399122
0.373357
0.331119
0.274209
0.205103
0.126848
0.0429227
0.0504542
0.149218
0.241631
0.323737
0.391987
0.443386
0.475629
0.487209
0.4775
0.446805
0.396362
0.328313
0.245616
0.151923
0.0514109
0.0601521
0.177913
0.288138
0.386127
0.467652
0.529135
0.567806
0.581837
0.570447
0.533961
0.473829
0.392587
0.293764
0.181731
0.0615029
0.0716162
0.211838
0.34314
0.459947
0.557231
0.630721
0.677089
0.694115
0.680818
0.637535
0.565952
0.469067
0.351083
0.217229
0.0735231
0.0851702
0.251956
0.408206
0.54732
0.663329
0.751136
0.806742
0.827446
0.812007
0.760755
0.675641
0.560196
0.419419
0.259567
0.0878625
0.101192
0.299389
0.485169
0.650734
0.789006
0.893907
0.960626
0.985869
0.968058
0.907486
0.806386
0.668911
0.500999
0.310134
0.104993
0.120121
0.355442
0.576165
0.773096
0.937851
1.06318
1.14331
1.17418
1.1538
1.08235
0.962386
0.798756
0.598514
0.370613
0.125487
0.142465
0.42163
0.683679
0.917795
1.11406
1.26385
1.36018
1.39808
1.37498
1.29091
1.1487
0.954021
0.715231
0.443049
0.150042
0.168811
0.499702
0.810585
1.08877
1.32255
1.50163
1.6176
1.66434
1.6385
1.53982
1.37144
1.13991
0.855132
0.529944
0.17951
0.199832
0.591662
0.960192
1.29057
1.569
1.78323
1.92308
1.98099
1.95258
1.83714
1.63801
1.36277
1.02309
0.634366
0.21494
0.236291
0.699799
1.13629
1.52844
1.86003
2.11648
2.28546
2.35757
2.32708
2.19255
1.95744
1.63036
1.2251
0.760103
0.257627
0.27905
0.826693
1.34316
1.80834
2.20322
2.51044
2.71507
2.80539
2.7738
2.6178
2.34071
1.95224
1.46857
0.911864
0.309187
0.329068
0.97523
1.58564
2.13706
2.60726
2.97564
3.22406
3.33783
3.30691
3.12711
2.80131
2.34022
1.76275
1.09554
0.371645
0.387398
1.14859
1.86907
2.52216
3.08198
3.52411
3.82652
3.97073
3.94336
3.7378
3.35583
2.80899
2.11923
1.31858
0.447568
0.455175
1.3502
2.19929
2.97201
3.6384
4.1696
4.5388
4.72274
4.70353
4.47096
4.02482
3.37698
2.5527
1.59046
0.54024
0.53359
1.5837
2.58253
3.49567
4.28868
4.92754
5.37971
5.61578
5.61183
5.3524
4.83384
4.06749
3.08194
1.92345
0.653918
0.623853
1.85281
3.02525
4.10273
5.04596
5.81508
6.37064
6.67546
6.6975
6.41374
5.81489
4.91019
3.73124
2.33352
0.794193
0.727132
2.16114
3.53389
4.803
5.92412
6.85087
7.53564
7.93147
7.99547
7.69383
7.00829
5.9433
4.53245
2.84191
0.96853
0.844472
2.51199
4.11447
5.60599
6.93719
8.05465
8.90123
9.41785
9.5473
9.24047
8.46513
7.21653
5.52786
3.47725
1.18708
0.976679
2.908
4.77207
6.52027
8.09865
9.44649
10.4959
11.173
11.402
11.1124
10.2506
8.7953
6.77458
4.27893
1.46395
1.12418
3.35069
5.51008
7.55242
9.42013
11.0455
12.349
13.2393
13.6168
13.3816
12.448
10.7667
8.35108
5.30232
1.81921
1.28685
3.83997
6.32935
8.70576
10.9098
12.868
14.4888
15.6615
16.257
16.1356
15.1647
13.2479
10.3672
6.6273
2.28233
1.4638
4.37348
7.227
9.97873
12.5702
14.9245
16.9398
18.4846
19.3949
19.4796
18.538
16.3983
12.9799
8.37242
2.89799
1.65317
4.94594
8.19529
11.3629
14.3953
17.2164
19.7175
21.748
23.1059
23.5361
22.7433
20.4366
16.4184
10.7195
3.73694
1.85195
5.54853
9.22028
12.8408
16.3671
19.7302
22.8219
25.4783
27.4611
28.4416
27.9997
25.6633
21.0238
13.9579
4.91704
2.05581
6.16832
10.2808
14.3839
18.4521
22.4324
26.2284
29.6761
32.5122
34.3347
34.5716
32.4892
27.3142
18.5677
6.64794
2.25905
6.78807
11.3478
15.9513
20.5979
25.2624
29.8764
34.2986
38.2668
41.3287
42.7537
41.4625
36.0844
25.381
9.33442
2.45469
7.38643
12.3843
17.4885
22.7312
28.1273
33.6576
39.236
44.6506
49.4592
52.8218
53.2736
48.5524
35.9046
13.8418
2.63478
7.93882
13.3469
18.9295
24.7577
30.8988
37.405
44.287
51.4549
58.5933
64.9108
68.6768
66.5244
52.9662
22.2525
2.79089
8.41894
14.1881
20.1998
26.5668
33.4165
40.8912
49.1391
58.2791
68.2971
78.7711
88.1892
92.4167
81.9408
40.2405
2.91485
8.80104
14.8607
21.2232
28.0406
35.4999
43.8401
53.3713
64.4932
77.6838
93.3639
111.305
128.519
132.598
85.159
2.99956
9.06262
15.3228
21.9306
29.0683
36.9715
45.9615
56.4986
69.2702
85.3409
106.385
134.927
173.741
219.032
215.409
3.03986
9.18721
15.5436
22.2699
29.5642
37.688
47.0083
58.0736
71.7556
89.5431
114.2
151.413
214.462
339.433
642.321
3.03317
9.16659
15.5072
22.2145
29.484
37.5733
46.8431
57.8308
71.3894
88.9743
113.294
149.956
212.182
336.276
639.609
2.97987
9.00199
15.2163
21.7685
28.8343
36.6384
45.4845
55.8023
68.2264
83.7276
103.817
130.745
166.937
208.643
203.815
2.88325
8.70389
14.6905
20.9657
27.6716
34.9797
43.1036
52.3106
62.926
75.2945
89.5886
105.1
117.862
113.324
47.7446
-27.538
-22.4398
-18.6196
-15.6628
-13.2794
-11.292
-9.58877
-8.09583
-6.76163
-5.54861
-4.42816
-3.37754
-2.37798
-1.41327
-0.468865
-10.3291
-14.313
-14.1337
-12.8966
-11.4421
-10.0096
-8.66368
-7.41431
-6.25388
-5.16976
-4.14845
-3.17693
-2.24307
-1.3355
-0.443453
-4.69952
-9.07731
-10.382
-10.2813
-9.58933
-8.66691
-7.67149
-6.67095
-5.69309
-4.74726
-3.83411
-2.95014
-2.08988
-1.24693
-0.414471
-2.55687
-5.97559
-7.60631
-8.07663
-7.8965
-7.37489
-6.68279
-5.91178
-5.11001
-4.30202
-3.49948
-2.70686
-1.92465
-1.15106
-0.383046
-1.59129
-4.11549
-5.63635
-6.32353
-6.44076
-6.20121
-5.74883
-5.17393
-4.53119
-3.85296
-3.15791
-2.45634
-1.75343
-1.05131
-0.350281
-1.08291
-2.95211
-4.24528
-4.96618
-5.23272
-5.17526
-4.89989
-4.48314
-3.97697
-3.41556
-2.82086
-2.20671
-1.58164
-0.950784
-0.317193
-0.780521
-2.18871
-3.2516
-3.92432
-4.24964
-4.30058
-4.14911
-3.8544
-3.46108
-3.00124
-2.49728
-1.96465
-1.41386
-0.85215
-0.284652
-0.584269
-1.66509
-2.52883
-3.12368
-3.45707
-3.56644
-3.49775
-3.29411
-2.99137
-2.61751
-2.1936
-1.73518
-1.25365
-0.757528
-0.253363
-0.448928
-1.2922
-1.99276
-2.50458
-2.82003
-2.95591
-2.94009
-2.80261
-2.57101
-2.26853
-1.91387
-1.52173
-1.10358
-0.668481
-0.223851
-0.35149
-1.0184
-1.58774
-2.02183
-2.30767
-2.4507
-2.46688
-2.37644
-2.19986
-1.95576
-1.66015
-1.32633
-0.96526
-0.586048
-0.196472
-0.279096
-0.812355
-1.27665
-1.642
-1.89448
-2.03356
-2.06769
-2.01007
-1.87557
-1.67876
-1.43295
-1.14984
-0.839533
-0.510806
-0.171429
-0.224014
-0.654194
-1.03425
-1.34053
-1.56001
-1.68929
-1.73219
-1.69708
-1.59453
-1.43576
-1.23164
-0.99222
-0.726593
-0.442954
-0.148803
-0.181324
-0.53084
-0.843061
-1.09934
-1.28817
-1.40497
-1.45086
-1.43091
-1.35253
-1.22425
-1.05483
-0.852794
-0.626153
-0.382399
-0.128574
-0.147754
-0.433379
-0.690716
-0.904991
-1.06633
-1.16989
-1.21525
-1.20529
-1.14516
-1.04128
-0.900668
-0.730445
-0.537592
-0.328835
-0.110652
-0.121044
-0.35556
-0.568267
-0.747392
-0.884596
-0.97523
-1.01804
-1.01451
-0.968162