/*--------------------------------*- C++ -*----------------------------------*\
| =========                 |                                                 |
| \\      /  F ield         | OpenFOAM: The Open Source CFD Toolbox           |
|  \\    /   O peration     | Version:  5.x                                   |
|   \\  /    A nd           | Web:      www.OpenFOAM.org                      |
|    \\/     M anipulation  |                                                 |
\*---------------------------------------------------------------------------*/
FoamFile
{
    version     2.0;
    format      ascii;
    class       volScalarField;
    location    "12";
    object      gradTx;
}
// * * * * * * * * * * * * * * * * * * * * * * * * * * * * * * * * * * * * * //

dimensions      [0 -1 0 1 0 0 0];

internalField   nonuniform List<scalar> 
6300
(
21.5937
21.9318
22.6022
23.5932
24.8859
26.453
28.2578
30.2523
32.3768
34.5598
36.7194
38.7666
40.6103
42.1641
43.3536
21.2547
21.5985
22.2807
23.2906
24.6105
26.2145
28.0671
30.1213
32.3173
34.5822
36.8308
38.9691
40.8992
42.5273
43.7722
20.5711
20.9257
21.6308
22.6772
24.0499
25.7264
27.6738
29.8475
32.1879
34.6197
37.0515
39.3787
41.4891
43.2726
44.6329
19.532
19.9017
20.6385
21.7364
23.1849
24.9663
27.0534
29.4059
31.9661
34.6562
37.3759
40.004
42.4048
44.4399
45.9864
18.1223
18.5097
19.2842
20.4443
21.9859
23.8995
26.1668
28.7555
31.6135
34.6621
37.7908
40.8557
43.6849
46.0949
47.917
16.3243
16.7298
17.5435
18.7699
20.4139
22.478
24.9577
27.835
31.0693
34.5869
38.2685
41.9419
45.3832
48.3368
50.5569
14.12
14.5409
15.3891
16.6768
18.421
20.6401
23.3501
26.5563
30.241
34.3466
38.7534
43.2591
47.5682
51.3111
54.1086
11.4939
11.9238
12.7943
14.1266
15.9521
18.3104
21.2455
24.7981
28.9909
33.8039
39.1385
44.7719
50.3182
55.2296
58.888
8.43719
8.86533
9.73679
11.0824
12.9497
15.403
18.5225
22.3989
27.1196
32.7387
39.2236
46.3707
53.702
60.3997
65.404
4.95153
5.36276
6.2043
7.51583
9.36041
11.8284
15.0416
19.1546
24.3488
30.8066
38.6456
47.7841
57.718
67.2621
74.5196
1.05391
1.42911
2.20108
3.4154
5.14692
7.50795
10.66
14.8282
20.3136
27.4924
36.7669
48.401
62.1223
76.4096
87.8044
-3.21962
-2.90201
-2.24523
-1.20293
0.303152
2.39565
5.26166
9.18364
14.5842
22.0813
32.5274
46.9293
65.9593
88.4479
108.396
-7.81142
-7.57296
-7.07772
-6.28574
-5.12772
-3.49085
-1.19346
2.05975
6.75731
13.7203
24.331
40.8284
66.336
103.025
143.398
-12.6423
-12.5013
-12.2076
-11.7352
-11.0381
-10.0385
-8.60508
-6.50924
-3.33586
1.71081
10.2468
25.7159
55.5299
113.916
211.707
-17.6148
-17.583
-17.5167
-17.41
-17.2515
-17.0207
-16.6797
-16.1564
-15.3031
-13.7888
-10.7715
-3.74248
16.1504
85.3997
374.25
44.0931
44.4218
44.4315
44.1278
43.5262
42.6503
41.5288
40.1931
38.675
37.005
35.2113
33.3187
31.3491
29.3207
27.2493
25.148
23.0276
20.8976
18.7659
16.6397
14.5249
12.4268
10.3501
8.29882
6.27648
4.28597
2.3297
0.409581
-1.47298
-3.31703
-5.12201
-6.88776
-8.61438
-10.3022
-11.9517
-13.5631
-15.1369
-16.6732
-18.1719
-19.6327
-21.0552
-22.4391
-23.7842
-25.0904
-26.3582
-27.5885
-28.7826
-29.9421
-31.069
-32.1653
-33.2327
-34.2725
-35.2857
-36.2723
-37.2317
-38.163
-39.0645
-39.9343
-40.7708
-41.5721
-42.3367
-43.0635
-43.7511
-44.3986
-45.0042
-45.5657
-46.08
-46.5427
-46.9482
-47.2896
-47.5589
-47.7475
-47.8463
-47.8465
-47.74
-47.5198
-47.1803
-46.718
-46.1311
-45.4201
-44.5876
-43.6381
-42.5787
-41.4181
-40.1676
-38.8403
-37.4514
-36.0178
-34.5576
-33.0896
44.5427
44.8802
44.8819
44.5556
43.9202
43.003
41.8364
40.4549
38.8929
37.1825
35.3528
33.429
31.4328
29.3821
27.292
25.1748
23.0409
20.8994
18.7578
16.6229
14.5004
12.3957
10.3132
8.25698
6.23046
4.23653
2.27756
0.355434
-1.52848
-3.37327
-5.17847
-6.94401
-8.67015
-10.3573
-12.0062
-13.6172
-15.1908
-16.7271
-18.2261
-19.6874
-21.1105
-22.4947
-23.8397
-25.1453
-26.4119
-27.6402
-28.8318
-29.9886
-31.1127
-32.2064
-33.2718
-34.3105
-35.3234
-36.3108
-37.2718
-38.2053
-39.1094
-39.9819
-40.8208
-41.6243
-42.3907
-43.1191
-43.8085
-44.4582
-45.067
-45.6331
-46.1537
-46.6245
-47.0399
-47.3927
-47.6746
-47.8761
-47.9876
-47.9996
-47.9032
-47.6908
-47.3566
-46.8967
-46.3092
-45.5946
-44.7553
-43.796
-42.7237
-41.5471
-40.2776
-38.9285
-37.5153
-36.0557
-34.5685
-33.0736
45.4671
45.8211
45.8035
45.4274
44.719
43.7139
42.4524
40.9758
39.3234
37.5309
35.6288
33.643
31.5943
29.4998
27.3729
25.2249
23.0649
20.9009
18.7397
16.5876
14.4501
12.3322
10.2382
8.17216
6.13734
4.1366
2.17228
0.246196
-1.64034
-3.4865
-5.29199
-7.05694
-8.78187
-10.4676
-12.115
-13.7249
-15.298
-16.8346
-18.3344
-19.797
-21.2214
-22.6065
-23.9516
-25.2561
-26.5201
-27.7444
-28.9309
-30.0816
-31.1996
-32.2878
-33.3489
-34.385
-35.3975
-36.3865
-37.3511
-38.2895
-39.1991
-40.0773
-40.9214
-41.7291
-42.4989
-43.2301
-43.9225
-44.576
-45.1907
-45.7655
-46.2983
-46.7854
-47.221
-47.5974
-47.9052
-48.1337
-48.2717
-48.3081
-48.2326
-48.0366
-47.7134
-47.2585
-46.6698
-45.9479
-45.0951
-44.1163
-43.0181
-41.8095
-40.5017
-39.1083
-37.6457
-36.1327
-34.59
-33.0398
46.9205
47.2959
47.2404
46.7766
45.9442
44.7932
43.3773
41.7488
39.955
38.0361
36.0248
33.9467
31.8213
29.6632
27.4838
25.2917
23.0942
20.8978
18.7082
16.531
14.3713
12.2338
10.1229
8.04214
5.99496
3.98411
2.01184
0.0799411
-1.81034
-3.65831
-5.46385
-7.22742
-8.94997
-10.6328
-12.2775
-13.8854
-15.4576
-16.9946
-18.4961
-19.9612
-21.3884
-22.7757
-24.1216
-25.4248
-26.6849
-27.9029
-29.0807
-30.2215
-31.3291
-32.4077
-33.4614
-34.4932
-35.5049
-36.4968
-37.4675
-38.4144
-39.3336
-40.2213
-41.0737
-41.8878
-42.6622
-43.3965
-44.0917
-44.7493
-45.371
-45.9576
-46.5082
-47.0199
-47.4868
-47.9003
-48.2493
-48.521
-48.7014
-48.777
-48.735
-48.5651
-48.2591
-47.8121
-47.2219
-46.4889
-45.6159
-44.6077
-43.4709
-42.2142
-40.8484
-39.3873
-37.8482
-36.2518
-34.622
-32.9847
48.994
49.3903
49.2641
48.6555
47.6272
46.2529
44.6073
42.759
40.7659
38.6735
36.5162
34.3177
32.0945
29.8569
27.6123
25.3656
23.1215
20.8843
18.6584
16.4489
14.2602
12.0971
9.96366
7.8636
5.80012
3.77591
1.79318
-0.146297
-2.04129
-3.89119
-5.6961
-7.45687
-9.1751
-10.853
-12.4929
-14.0972
-15.6678
-17.2055
-18.71
-20.1798
-21.6123
-23.0043
-24.3527
-25.655
-26.9102
-28.1188
-29.2835
-30.4085
-31.4997
-32.5632
-33.6049
-34.6296
-35.6402
-36.637
-37.6178
-38.5785
-39.5131
-40.4156
-41.2803
-42.1033
-42.8826
-43.6187
-44.3144
-44.9738
-45.6013
-46.2008
-46.7736
-47.3182
-47.8287
-48.2953
-48.7042
-49.0389
-49.2815
-49.4143
-49.4212
-49.2887
-49.0074
-48.5714
-47.9789
-47.2309
-46.3308
-45.2837
-44.096
-42.7754
-41.3317
-39.7782
-38.1328
-36.4186
-34.6644
-32.9023
51.8299
52.2362
51.9816
51.138
49.8075
48.1022
46.1285
43.977
41.7186
39.4039
37.0658
34.7239
32.3875
30.0603
27.743
25.4355
23.1384
20.8538
18.585
16.3361
14.112
11.9173
9.75614
7.63221
5.54858
3.50784
1.51216
-0.436638
-2.3372
-4.18886
-5.99184
-7.74749
-9.45826
-11.1275
-12.7593
-14.3574
-15.925
-17.4638
-18.9736
-20.4518
-21.8942
-23.2954
-24.6498
-25.9528
-27.202
-28.3975
-29.5428
-30.644
-31.7098
-32.7495
-33.7724
-34.786
-35.7949
-36.7996
-37.7968
-38.7794
-39.7383
-40.6636
-41.5466
-42.381
-43.1644
-43.8986
-44.5888
-45.2434
-45.8715
-46.4816
-47.0792
-47.6649
-48.2334
-48.7727
-49.2652
-49.6888
-50.0192
-50.2325
-50.3072
-50.2261
-49.9776
-49.5556
-48.9592
-48.1913
-47.2568
-46.1617
-44.9119
-43.5132
-41.9727
-40.3011
-38.5157
-36.6427
-34.7178
-32.7834
55.6483
56.0326
55.5461
54.3205
52.5264
50.3372
47.9048
45.3484
42.7517
40.1669
37.6205
35.1212
32.6666
30.2489
27.859
25.4897
23.1369
20.8002
18.4822
16.1875
13.9213
11.6889
9.49479
7.3426
5.23515
3.17476
1.16355
-0.796474
-2.70354
-4.55658
-6.35569
-8.10265
-9.80103
-11.4561
-13.074
-14.6613
-16.2235
-17.7638
-19.2822
-20.775
-22.2352
-23.6534
-25.0204
-26.3278
-27.5706
-28.7482
-29.865
-30.9303
-31.9568
-32.9594
-33.9527
-34.9487
-35.955
-36.9726
-37.9961
-39.014
-40.0113
-40.9721
-41.8821
-42.7316
-43.5168
-44.241
-44.914
-45.5504
-46.1671
-46.7799
-47.4011
-48.0357
-48.6793
-49.3171
-49.925
-50.4722
-50.925
-51.2497
-51.4169
-51.404
-51.1969
-50.7903
-50.1861
-49.3909
-48.4134
-47.2618
-45.9416
-44.4548
-42.8021
-40.9874
-39.0241
-36.9411
-34.7845
-32.6142
60.7949
61.0816
60.1739
58.3207
55.8134
52.9213
49.8588
46.7768
43.7672
40.8739
38.1066
35.4534
32.8919
30.3967
27.9449
25.5197
23.1118
20.7193
18.3457
15.9973
13.6816
11.4051
9.17287
6.98838
4.85381
2.77077
0.74115
-1.23259
-3.14769
-5.00191
-6.79458
-8.52765
-10.2061
-11.8378
-13.4326
-15.0012
-16.5531
-18.095
-19.6275
-21.1451
-22.636
-24.0851
-25.4763
-26.7954
-28.0328
-29.1861
-30.2611
-31.2717
-32.2378
-33.1824
-34.1286
-35.0963
-36.0981
-37.1367
-38.2029
-39.2777
-40.3364
-41.353
-42.3043
-43.1741
-43.9563
-44.6565
-45.2913
-45.8854
-46.4674
-47.0657
-47.7033
-48.393
-49.1329
-49.9038
-50.6713
-51.3912
-52.0144
-52.493
-52.7853
-52.8608
-52.7029
-52.309
-51.6873
-50.8523
-49.8203
-48.6043
-47.2105
-45.6346
-43.8641
-41.887
-39.7047
-37.3449
-34.8705
-32.373
67.8321
67.8492
66.1621
63.2615
59.6532
55.7495
51.8399
48.1
44.6143
41.3989
38.4277
35.653
33.0211
30.4814
27.992
25.5241
23.0639
20.6107
18.1722
15.7599
13.3852
11.0572
8.78196
6.56214
4.39811
2.28975
0.238236
-1.75316
-3.6795
-5.53581
-7.3192
-9.03116
-10.6784
-12.2725
-13.8288
-15.3647
-16.8972
-18.4392
-19.9942
-21.5531
-23.0968
-24.5999
-26.0357
-27.3801
-28.6157
-29.7362
-30.7495
-31.6769
-32.5493
-33.4025
-34.2732
-35.194
-36.1879
-37.2606
-38.3967
-39.564
-40.7217
-41.8273
-42.8432
-43.7422
-44.5133
-45.1656
-45.7267
-46.2371
-46.7438
-47.2941
-47.9296
-48.6775
-49.5414
-50.4946
-51.4857
-52.4487
-53.3115
-54.0039
-54.4654
-54.653
-54.548
-54.155
-53.495
-52.5969
-51.4912
-50.2024
-48.7411
-47.0941
-45.2231
-43.0818
-40.6402
-37.9131
-34.9895
-32.023
77.7273
77.0694
73.8963
69.2204
63.9169
58.5851
53.5752
49.0562
45.071
41.5717
38.465
35.6463
33.0171
30.4929
28.0073
25.517
23.0056
20.4804
17.9606
15.468
13.0211
10.6332
8.31099
6.05536
3.86214
1.72677
-0.351297
-2.3674
-4.31215
-6.17464
-7.9466
-9.62772
-11.227
-12.7615
-14.2541
-15.7327
-17.2274
-18.7645
-20.3547
-21.9828
-23.6155
-25.2111
-26.7264
-28.121
-29.3637
-30.4402
-31.361
-32.1607
-32.8878
-33.597
-34.3449
-35.186
-36.1635
-37.2925
-38.5448
-39.8637
-41.1813
-42.4303
-43.5497
-44.4937
-45.2409
-45.8054
-46.2343
-46.5935
-46.9568
-47.3994
-47.9931
-48.7943
-49.8206
-51.03
-52.34
-53.6497
-54.8531
-55.8467
-56.539
-56.8659
-56.8071
-56.3848
-55.6446
-54.64
-53.425
-52.0482
-50.5383
-48.8756
-46.9707
-44.7083
-41.9863
-38.7639
-35.1696
-31.4947
92.2722
89.91
83.7931
76.0819
68.2204
60.9559
54.6023
49.2426
44.8271
41.1781
38.0868
35.3658
32.8612
30.4481
28.0289
25.5397
22.9666
20.3421
17.7094
15.1099
12.5719
10.1142
7.74392
5.45854
3.24273
1.0812
-1.03009
-3.08441
-5.06319
-6.94374
-8.70469
-10.3419
-11.8689
-13.3106
-14.6995
-16.0773
-17.4963
-19.0129
-20.6603
-22.4054
-24.1873
-25.9376
-27.5904
-29.0801
-30.3508
-31.3679
-32.1464
-32.7485
-33.2514
-33.7353
-34.2821
-34.981
-35.9203
-37.1465
-38.5965
-40.1646
-41.7392
-43.219
-44.5083
-45.528
-46.231
-46.6396
-46.8415
-46.9434
-47.0549
-47.2863
-47.7574
-48.5864
-49.8356
-51.4197
-53.1941
-55.0029
-56.6965
-58.1224
-59.1383
-59.6334
-59.5888
-59.0719
-58.1741
-56.9853
-55.5912
-54.085
-52.5547
-51.0053
-49.2327
-46.9958
-44.0526
-40.1498
-35.4651
-30.6402
115.121
108.156
95.9841
83.1584
71.6641
62.0143
54.1976
48.0685
43.4786
39.9807
37.1746
34.7732
32.5729
30.4117
28.1507
25.6826
23.0011
20.215
17.4102
14.663
12.0067
9.4693
7.05441
4.76142
2.54509
0.363246
-1.7909
-3.91018
-5.9556
-7.88497
-9.64081
-11.2147
-12.6334
-13.9354
-15.1604
-16.3625
-17.6244
-19.0727
-20.825
-22.7747
-24.8044
-26.804
-28.6888
-30.354
-31.7026
-32.6386
-33.1853
-33.4789
-33.642
-33.7826
-33.9996
-34.4293
-35.2634
-36.6778
-38.4778
-40.4553
-42.4331
-44.2815
-45.8544
-47.0178
-47.6444
-47.771
-47.5921
-47.279
-46.9798
-46.8275
-47.0056
-47.7726
-49.368
-51.5347
-53.9979
-56.5213
-58.9246
-60.9878
-62.4866
-63.1776
-63.0498
-62.3067
-61.122
-59.6257
-57.9182
-56.1557
-54.598
-53.4559
-52.1626
-50.2998
-47.5003
-42.661
-35.9623
-29.1006
154.64
133.899
109.114
88.3155
72.4498
60.4314
51.3618
44.6768
40.5567
37.7865
35.6789
33.8903
32.2277
30.5181
28.5704
26.132
23.186
20.1143
17.0276
14.0847
11.27
8.64773
6.18913
3.95378
1.79769
-0.394651
-2.6019
-4.84228
-7.01505
-9.07598
-10.8388
-12.3107
-13.5658
-14.6711
-15.6538
-16.5615
-17.4837
-18.6944
-20.7049
-23.0282
-25.4645
-27.8353
-30.1029
-32.0836
-33.648
-34.4691
-34.5884
-34.3964
-34.0643
-33.7192
-33.4104
-33.2947
-33.7701
-35.6533
-38.1027
-40.745
-43.3128
-45.7401
-47.7896
-49.2796
-49.7773
-49.3414
-48.5355
-47.5937
-46.6926
-45.8921
-45.4052
-45.7653
-48.077
-51.222
-54.7143
-58.212
-61.6417
-64.665
-66.9974
-67.9
-67.3962
-66.1764
-64.5179
-62.5694
-60.3237
-57.9306
-56.0422
-56.1236
-55.9119
-54.9518
-53.8847
-47.8491
-36.6937
-25.9181
232.5
165.464
116.504
86.3679
67.6943
54.6013
45.0912
37.5909
35.6901
34.6374
33.7232
32.8251
31.9496
30.9667
29.6961
27.312
23.5513
20.0348
16.4376
13.3215
10.2559
7.59029
5.00221
3.03193
1.10243
-1.13109
-3.36518
-5.87167
-8.23543
-10.6962
-12.4554
-13.7188
-14.7136
-15.583
-16.2551
-16.7392
-16.9273
-17.164
-20.1342
-23.1185
-26.2186
-29.0146
-31.9296
-34.4119
-36.6634
-37.3095
-36.4394
-35.5152
-34.5049
-33.603
-32.5426
-31.3086
-30.2489
-33.8132
-37.4492
-41.1414
-44.394
-47.7423
-50.5298
-52.9697
-53.2541
-51.4439
-49.6738
-47.8494
-46.26
-44.5044
-42.5846
-40.9469
-45.5853
-50.4088
-55.4221
-59.9998
-64.9433
-69.3363
-73.5662
-74.6469
-72.7729
-70.677
-68.3306
-65.9405
-62.9407
-58.9781
-54.6493
-59.2124
-60.7385
-59.7569
-67.4234
-60.4089
-36.8778
-18.4011
411.152
170.996
96.7849
67.9132
54.9017
43.6109
35.9259
22.4407
29.6018
31.2881
31.7438
31.7268
31.8257
31.8287
32.4248
30.4734
23.5647
20.0708
15.1546
12.4853
8.66572
6.42096
2.92556
2.05126
0.844924
-1.86672
-3.73615
-7.1065
-9.31601
-13.3263
-14.7858
-15.5136
-16.0415
-16.7788
-17.1267
-17.343
-16.3006
-11.6971
-19.5429
-23.0417
-27.41
-30.0223
-34.3788
-37.0721
-41.9897
-42.3328
-38.3676
-36.7572
-34.7887
-33.7147
-31.9242
-29.0711
-20.0686
-31.8694
-36.714
-42.1704
-45.3368
-50.5512
-53.7699
-59.7629
-59.7463
-53.488
-50.8894
-47.7661
-46.0663
-43.3525
-39.3573
-27.0905
-42.8266
-49.3215
-56.7565
-61.2602
-69.0367
-74.2418
-84.6688
-85.6478
-78.4681
-75.5374
-72.2056
-70.1884
-66.9433
-60.5521
-40.4515
-66.6736
-69.1752
-52.1083
-102.102
-96.7517
-29.7832
0.746913
-31.4888
-29.7837
-28.1499
-26.6103
-25.1829
-23.8802
-22.7103
-21.6769
-20.7809
-20.0211
-19.3948
-18.8989
-18.5303
-18.2861
-18.1646
-31.4447
-29.7121
-28.0553
-26.4978
-25.0578
-23.7472
-22.5734
-21.5392
-20.6445
-19.8873
-19.2642
-18.7714
-18.4055
-18.1633
-18.0428
-31.3533
-29.5644
-27.8608
-26.2676
-24.8028
-23.4772
-22.2965
-21.2616
-20.3705
-19.6192
-19.0029
-18.5169
-18.1567
-17.9186
-17.8003
-31.2077
-29.3309
-27.5556
-25.9088
-24.408
-23.0622
-21.8736
-20.8401
-19.9563
-19.2157
-18.6112
-18.1364
-17.7855
-17.5541
-17.4391
-30.9959
-28.9954
-27.1216
-25.4038
-23.858
-22.4895
-21.2954
-20.2684
-19.3987
-18.6757
-18.0896
-17.6316
-17.2945
-17.0728
-16.9629
-30.6998
-28.5328
-26.5312
-24.7263
-23.1305
-21.7419
-20.5499
-19.5393
-18.6941
-17.9987
-17.4397
-17.0058
-16.6879
-16.4796
-16.3764
-30.2905
-27.9046
-25.7437
-23.8394
-22.1955
-20.7976
-19.6226
-18.6446
-17.8393
-17.1852
-16.6646
-16.2636
-15.9715
-15.7809
-15.6867
-29.7221
-27.051
-24.6991
-22.6919
-21.0142
-19.6303
-18.4979
-17.577
-16.833
-16.2378
-15.7697
-15.4123
-15.1536
-14.9854
-14.9026
-28.9178
-25.8777
-23.3097
-21.2146
-19.5389
-18.211
-17.1616
-16.3324
-15.6776
-15.1632
-14.7639
-14.462
-14.245
-14.1045
-14.0355
-27.7415
-24.232
-21.4469
-19.3176
-17.7156
-16.513
-15.6049
-14.913
-14.3819
-13.9731
-13.6606
-13.4266
-13.2596
-13.1519
-13.0991
-25.936
-21.8618
-18.9281
-16.8928
-15.4928
-14.5204
-13.8317
-13.3327
-12.9635
-12.6866
-12.4784
-12.3242
-12.2147
-12.1443
-12.1099
-22.985
-18.3508
-15.5107
-13.8327
-12.842
-12.2439
-11.8688
-11.6224
-11.4528
-11.3313
-11.2422
-11.1769
-11.1305
-11.1006
-11.086
-17.8027
-13.0453
-10.931
-10.085
-9.7986
-9.74409
-9.77689
-9.83516
-9.8937
-9.94341
-9.9821
-10.0104
-10.0297
-10.0416
-10.0473
-8.05876
-5.09656
-5.08285
-5.77769
-6.52314
-7.15688
-7.65944
-8.04755
-8.34335
-8.56643
-8.7323
-8.85269
-8.93617
-8.98872
-9.01408
11.2029
5.80074
1.47392
-1.41966
-3.3593
-4.70075
-5.65635
-6.35212
-6.86562
-7.24655
-7.52786
-7.7318
-7.87348
-7.96289
-8.00615
-22.2025
-22.2732
-22.4209
-22.6597
-23.0138
-23.5223
-24.2492
-25.3026
-26.8794
-29.3753
-33.7163
-42.5386
-65.1917
-142.042
-474.612
-26.3245
-26.4838
-26.8163
-27.3526
-28.1454
-29.2816
-30.9039
-33.2544
-36.7653
-42.2638
-51.4633
-68.2031
-101.502
-171.225
-300.015
-30.3362
-30.5744
-31.0706
-31.8675
-33.0388
-34.7037
-37.0533
-40.4005
-45.2713
-52.5826
-63.974
-82.3681
-112.517
-159.39
-214.852
-34.1827
-34.4861
-35.1162
-36.1226
-37.5897
-39.6503
-42.5103
-46.4886
-52.0827
-60.068
-71.622
-88.3699
-111.918
-141.588
-168.204
-37.8187
-38.1713
-38.9007
-40.0581
-41.7286
-44.042
-47.1908
-51.4549
-57.2337
-65.0751
-75.6631
-89.6496
-107.066
-125.908
-140.039
-41.21
-41.5951
-42.3882
-43.6376
-45.4211
-47.8537
-51.097
-55.3695
-60.9524
-68.1748
-77.3439
-88.5469
-101.226
-113.497
-121.687
-44.3341
-44.7357
-45.5591
-46.8462
-48.6629
-51.1026
-54.2886
-58.3744
-63.5326
-69.9227
-77.6119
-86.4193
-95.668
-103.921
-109.021
-47.1796
-47.5835
-48.4081
-49.6872
-51.4723
-53.8332
-56.8555
-60.6345
-65.2574
-70.7686
-77.1032
-83.985
-90.8016
-96.5326
-99.8978
-49.7446
-50.1394
-50.9417
-52.1768
-53.882
-56.1045
-58.8971
-62.3084
-66.3655
-71.0426
-76.2144
-81.5959
-86.6891
-90.7873
-93.1109
-52.0357
-52.4124
-53.1748
-54.3401
-55.9325
-57.98
-60.5089
-63.534
-67.043
-70.973
-75.1799
-79.4067
-83.2675
-86.274
-87.9374
-54.0652
-54.4177
-55.1282
-56.2069
-57.667
-59.5213
-61.7762
-64.4236
-67.4282
-70.7111
-74.1314
-77.4718
-80.439
-82.6934
-83.9189
-55.8502
-56.1745
-56.8259
-57.8089
-59.128
-60.7844
-62.7709
-65.0652
-67.6202
-70.3538
-73.1383
-75.7959
-78.1054
-79.8273
-80.7512
-57.4099
-57.7042
-58.2934
-59.1776
-60.3548
-61.8182
-63.5519
-65.5256
-67.6882
-69.961
-72.2333
-74.3619
-76.1796
-77.5153
-78.225
-58.7653
-59.0293
-59.5561
-60.3428
-61.3829
-62.6644
-64.1664
-65.855
-67.6795
-69.5686
-71.4281
-73.1436
-74.5883
-75.6381
-76.1916
-59.9375
-60.1719
-60.6385
-61.332
-62.2434
-63.3576
-64.6511
-66.0899
-67.6261
-69.1966
-70.7228
-72.1133
-73.2714
-74.1053
-74.5424
-60.947
-61.1534
-61.5632
-62.17
-62.9632
-63.9261
-65.0351
-66.2572
-67.5489
-68.8554
-70.1116
-71.2445
-72.1795
-72.848
-73.1968
-61.8132
-61.9936
-62.3511
-62.8787
-63.565
-64.3933
-65.3406
-66.3761
-67.4613
-68.5492
-69.5859
-70.5131
-71.2727
-71.8127
-72.0934
-62.5541
-62.7109
-63.021
-63.4772
-64.0683
-64.778
-65.5847
-66.4606
-67.3719
-68.2786
-69.1362
-69.898
-70.5184
-70.9573
-71.1848
-63.1862
-63.3217
-63.5894
-63.9822
-64.4892
-65.0953
-65.7806
-66.5206
-67.2856
-68.042
-68.7531
-69.3811
-69.89
-70.2487
-70.4342
-63.7242
-63.8408
-64.0709
-64.4078
-64.8413
-65.3575
-65.9387
-66.5631
-67.2053
-67.837
-68.4277
-68.9469
-69.366
-69.6604
-69.8124
-64.1812
-64.2812
-64.4783
-64.7663
-65.136
-65.5747
-66.0668
-66.5933
-67.1324
-67.6603
-68.1518
-68.5822
-68.9284
-69.171
-69.2961
-64.5687
-64.6542
-64.8226
-65.0682
-65.3826
-65.7549
-66.171
-66.6147
-67.0673
-67.5088
-67.9185
-68.276
-68.5628
-68.7633
-68.8665
-64.8968
-64.9698
-65.1132
-65.3222
-65.5892
-65.9046
-66.2561
-66.6298
-67.0099
-67.3794
-67.7213
-68.0188
-68.257
-68.4232
-68.5087
-65.1743
-65.2364
-65.3584
-65.5358
-65.7623
-66.0291
-66.3259
-66.6406
-66.9597
-67.2693
-67.5549
-67.8029
-68.0011
-68.1392
-68.2101
-65.4087
-65.4615
-65.565
-65.7155
-65.9072
-66.1328
-66.3832
-66.6482
-66.9163
-67.1758
-67.4147
-67.6217
-67.7868
-67.9018
-67.9608
-65.6065
-65.6512
-65.739
-65.8665
-66.0287
-66.2193
-66.4305
-66.6536
-66.8789
-67.0965
-67.2965
-67.4696
-67.6074
-67.7033
-67.7525
-65.7732
-65.8111
-65.8855
-65.9934
-66.1305
-66.2915
-66.4696
-66.6574
-66.8468
-67.0294
-67.197
-67.3419
-67.4571
-67.5372
-67.5783
-65.9136
-65.9457
-66.0087
-66.0999
-66.2159
-66.3517
-66.5019
-66.6601
-66.8194
-66.9728
-67.1134
-67.2348
-67.3313
-67.3983
-67.4326
-66.0317
-66.0589
-66.1122
-66.1893
-66.2873
-66.4021
-66.5288
-66.662
-66.7961
-66.925
-67.0431
-67.145
-67.2258
-67.282
-67.3107
-66.131
-66.154
-66.199
-66.2643
-66.3472
-66.4441
-66.551
-66.6634
-66.7763
-66.8848
-66.9841
-67.0697
-67.1376
-67.1847
-67.2088
-66.2142
-66.2337
-66.2719
-66.3272
-66.3972
-66.4792
-66.5695
-66.6643
-66.7596
-66.851
-66.9347
-67.0067
-67.0638
-67.1034
-67.1237
-66.284
-66.3005
-66.3329
-66.3797
-66.439
-66.5084
-66.5848
-66.665
-66.7455
-66.8227
-66.8933
-66.954
-67.0021
-67.0355
-67.0526
-66.3423
-66.3563
-66.3838
-66.4235
-66.4739
-66.5328
-66.5975
-66.6655
-66.7336
-66.799
-66.8587
-66.91
-66.9507
-66.9789
-66.9934
-66.3908
-66.4028
-66.4262
-66.46
-66.5029
-66.553
-66.6081
-66.6658
-66.7237
-66.7793
-66.8299
-66.8735
-66.908
-66.9319
-66.9441
-66.4311
-66.4413
-66.4613
-66.4902
-66.5269
-66.5697
-66.6168
-66.6661
-66.7155
-66.7629
-66.8061
-66.8432
-66.8726
-66.893
-66.9034
-66.4642
-66.473
-66.4902
-66.5151
-66.5466
-66.5834
-66.6239
-66.6662
-66.7087
-66.7494
-66.7864
-66.8183
-66.8435
-66.861
-66.8699
-66.4912
-66.4989
-66.5138
-66.5354
-66.5627
-66.5946
-66.6297
-66.6664
-66.7031
-66.7383
-66.7704
-66.798
-66.8198
-66.8349
-66.8427
-66.513
-66.5197
-66.5328
-66.5517
-66.5756
-66.6036
-66.6343
-66.6665
-66.6986
-66.7295
-66.7576
-66.7817
-66.8008
-66.814
-66.8208
-66.5301
-66.536
-66.5477
-66.5645
-66.5858
-66.6106
-66.6379
-66.6665
-66.6951
-66.7225
-66.7474
-66.7689
-66.7858
-66.7976
-66.8036
-66.543
-66.5484
-66.559
-66.5742
-66.5935
-66.616
-66.6407
-66.6666
-66.6924
-66.7172
-66.7398
-66.7591
-66.7745
-66.7851
-66.7905
-66.5523
-66.5573
-66.567
-66.5811
-66.599
-66.6198
-66.6427
-66.6666
-66.6905
-66.7134
-66.7343
-66.7522
-66.7664
-66.7762
-66.7812
-66.558
-66.5628
-66.572
-66.5854
-66.6024
-66.6222
-66.6439
-66.6666
-66.6893
-66.7111
-66.7309
-66.7479
-66.7614
-66.7707
-66.7754
-66.5605
-66.5651
-66.5742
-66.5873
-66.6039
-66.6232
-66.6444
-66.6666
-66.6888
-66.7101
-66.7294
-66.746
-66.7592
-66.7683
-66.7729
-66.5598
-66.5644
-66.5736
-66.5867
-66.6034
-66.6229
-66.6442
-66.6666
-66.689
-66.7104
-66.7299
-66.7466
-66.7598
-66.769
-66.7737
-66.5558
-66.5606
-66.5701
-66.5838
-66.6011
-66.6212
-66.6434
-66.6666
-66.6898
-66.712
-66.7322
-66.7496
-66.7633
-66.7728
-66.7777
-66.5484
-66.5536
-66.5637
-66.5783
-66.5967
-66.6182
-66.6419
-66.6666
-66.6913
-66.715
-66.7366
-66.7551
-66.7697
-66.7799
-66.7851
-66.5375
-66.5432
-66.5542
-66.5701
-66.5902
-66.6137
-66.6395
-66.6666
-66.6936
-66.7195
-66.743
-66.7633
-66.7793
-66.7904
-66.796
-66.5227
-66.529
-66.5412
-66.559
-66.5814
-66.6076
-66.6364
-66.6665
-66.6967
-66.7255
-66.7518
-66.7744
-66.7922
-66.8046
-66.8109
-66.5035
-66.5106
-66.5245
-66.5446
-66.5701
-66.5997
-66.6323
-66.6665
-66.7006
-66.7333
-66.7632
-66.7888
-66.809
-66.823
-66.8302
-66.4794
-66.4875
-66.5035
-66.5266
-66.5557
-66.5898
-66.6272
-66.6664
-66.7056
-66.7432
-66.7774
-66.8068
-66.8301
-66.8463
-66.8545
-66.4496
-66.4591
-66.4775
-66.5042
-66.538
-66.5775
-66.6208
-66.6663
-66.7118
-66.7553
-66.7951
-66.8292
-66.8562
-66.8749
-66.8845
-66.4133
-66.4243
-66.4458
-66.477
-66.5164
-66.5624
-66.6131
-66.6661
-66.7192
-66.7701
-66.8166
-66.8565
-66.8881
-66.9099
-66.9211
-66.3693
-66.3822
-66.4075
-66.444
-66.4902
-66.5442
-66.6036
-66.6659
-66.7283
-66.7881
-66.8426
-66.8895
-66.9267
-66.9524
-66.9656
-66.3164
-66.3316
-66.3613
-66.4042
-66.4587
-66.5222
-66.5922
-66.6656
-66.7391
-66.8096
-66.874
-66.9293
-66.9732
-67.0036
-67.0191
-66.253
-66.2708
-66.3059
-66.3566
-66.4208
-66.4958
-66.5784
-66.6651
-66.752
-66.8354
-66.9116
-66.9771
-67.029
-67.065
-67.0834
-66.1771
-66.1982
-66.2396
-66.2995
-66.3754
-66.4641
-66.5618
-66.6644
-66.7674
-66.8663
-66.9566
-67.0343
-67.096
-67.1387
-67.1606
-66.0866
-66.1115
-66.1604
-66.2313
-66.3211
-66.4261
-66.5419
-66.6635
-66.7857
-66.903
-67.0103
-67.1027
-67.176
-67.2269
-67.2529
-65.9787
-66.0082
-66.0661
-66.1499
-66.2562
-66.3806
-66.5179
-66.6622
-66.8073
-66.9468
-67.0744
-67.1844
-67.2717
-67.3323
-67.3633
-65.8504
-65.8853
-65.9537
-66.0528
-66.1788
-66.3262
-66.4891
-66.6604
-66.8329
-66.9988
-67.1507
-67.2818
-67.3859
-67.4582
-67.4952
-65.6978
-65.739
-65.8199
-65.9373
-66.0863
-66.2611
-66.4543
-66.6579
-66.8629
-67.0604
-67.2415
-67.3979
-67.5222
-67.6086
-67.6528
-65.5165
-65.5653
-65.6609
-65.7997
-65.9761
-66.1832
-66.4124
-66.6542
-66.8982
-67.1335
-67.3495
-67.5363
-67.6849
-67.7882
-67.8411
-65.3015
-65.359
-65.4719
-65.6359
-65.8446
-66.0899
-66.3618
-66.6491
-66.9394
-67.2199
-67.4779
-67.7011
-67.879
-68.0027
-68.0662
-65.0465
-65.1143
-65.2474
-65.441
-65.6877
-65.9781
-66.3006
-66.6419
-66.9875
-67.3221
-67.6303
-67.8975
-68.1107
-68.2592
-68.3354
-64.7444
-64.8242
-64.981
-65.2092
-65.5006
-65.844
-66.2262
-66.6317
-67.0432
-67.4425
-67.8111
-68.1314
-68.3873
-68.5658
-68.6574
-64.3869
-64.4806
-64.665
-64.9337
-65.2772
-65.683
-66.1358
-66.6173
-67.1074
-67.5842
-68.0256
-68.4099
-68.7177
-68.9326
-69.0431
-63.9643
-64.0742
-64.2905
-64.6061
-65.0105
-65.4895
-66.0253
-66.597
-67.1807
-67.7505
-68.2796
-68.7417
-69.1125
-69.372
-69.5055
-63.4654
-63.5939
-63.847
-64.2169
-64.6921
-65.2565
-65.89
-66.5684
-67.2637
-67.9451
-68.5802
-69.1367
-69.5847
-69.8988
-70.0607
-62.8774
-63.027
-63.3223
-63.7548
-64.3117
-64.9755
-65.7235
-66.528
-67.3563
-68.1719
-68.9354
-69.6071
-70.1497
-70.5312
-70.7282
-62.1854
-62.3591
-62.7023
-63.2062
-63.8571
-64.636
-65.5178
-66.471
-67.4578
-68.4347
-69.3542
-70.1672
-70.8267
-71.2918
-71.5325
-61.3729
-61.5736
-61.9708
-62.5555
-63.3137
-64.2252
-65.2626
-66.3907
-67.5661
-68.7374
-69.847
-70.8339
-71.6385
-72.2083
-72.5038
-60.421
-60.6517
-61.109
-61.7844
-62.6639
-63.7268
-64.9443
-66.2776
-67.6773
-69.083
-70.425
-71.6271
-72.6134
-73.3152
-73.6803
-59.309
-59.5724
-60.0958
-60.8716
-61.8868
-63.1213
-64.5456
-66.1183
-67.7842
-69.473
-71.1
-72.5703
-73.7857
-74.6558
-75.1102
-58.0141
-58.3127
-58.9075
-59.7925
-60.9573
-62.3839
-64.0438
-65.8944
-67.8753
-69.9057
-71.8838
-73.6903
-75.1979
-76.2851
-76.8556
-56.512
-56.8474
-57.5175
-58.5193
-59.8462
-61.4846
-63.4096
-65.5799
-67.932
-70.3748
-72.7866
-75.018
-76.9018
-78.2731
-78.9971
-54.7769
-55.1499
-55.8972
-57.0204
-58.5188
-60.3862
-62.605
-65.1393
-67.9258
-70.8653
-73.8147
-76.587
-78.9615
-80.7106
-81.6413
-52.7829
-53.1925
-54.0161
-55.2609
-56.9353
-59.0439
-61.5814
-64.5234
-67.8134
-71.3488
-74.9657
-78.4321
-81.4554
-83.7164
-84.9318
-50.5046
-50.9478
-51.8424
-53.2033
-55.0503
-57.4037
-60.277
-63.6658
-67.5307
-71.7755
-76.2211
-80.5849
-84.4787
-87.448
-89.066
-47.9185
-48.3899
-49.345
-50.8082
-52.8138
-55.4026
-58.6147
-62.4775
-66.9843
-72.0628
-77.5334
-83.0638
-88.1437
-92.118
-94.3238
-45.0053
-45.4961
-46.495
-48.0366
-50.1724
-52.9686
-56.5007
-60.8421
-66.0407
-72.0777
-78.804
-85.8556
-92.5763
-98.0159
-101.113
-41.7514
-42.2496
-43.2682
-44.8526
-47.0726
-50.0236
-53.8247
-58.6115
-64.5148
-71.6139
-79.8486
-88.8771
-97.8982
-105.54
-110.053
-38.1518
-38.6419
-39.6486
-41.2273
-43.4654
-46.4883
-50.4642
-55.6056
-62.1585
-70.3616
-80.3419
-91.9035
-104.178
-115.238
-122.126
-34.2122
-34.6756
-35.6322
-37.1441
-39.3133
-42.2915
-46.2945
-51.6195
-58.6564
-67.8749
-79.7371
-94.4349
-111.299
-127.832
-138.982
-29.9509
-30.3672
-31.2302
-32.6049
-34.5998
-37.383
-41.2069
-46.4447
-53.6392
-63.5522
-77.1632
-95.4613
-118.652
-144.163
-163.581
-25.4008
-25.7489
-26.4733
-27.6351
-29.3389
-31.7521
-35.1377
-39.9113
-46.7344
-56.6616
-71.3343
-93.0902
-124.392
-164.725
-201.665
-20.6094
-20.8696
-21.4129
-22.2892
-23.5858
-25.446
-28.1047
-31.9548
-37.6742
-46.4756
-60.5865
-84.09
-123.859
-187.643
-265.399
-15.6376
-15.7941
-16.1215
-16.6518
-17.4417
-18.5858
-20.2448
-22.7003
-26.4741
-32.6027
-43.3162
-63.7944
-106.647
-200.858
-383.129
-10.5576
-10.6002
-10.6895
-10.8347
-11.0518
-11.3683
-11.8322
-12.5309
-13.639
-15.5463
-19.265
-27.9607
-53.7707
-152.919
-627.434
-5.44838
-5.3743
-5.21926
-4.96795
-4.59322
-4.04902
-3.25684
-2.07762
-0.249443
2.76756
8.24197
19.7577
50.0356
155.69
637.227
-0.391101
-0.20512
0.183716
0.812606
1.7472
3.09759
5.04914
7.92435
12.3139
19.3743
31.5531
54.4462
101.496
203.269
397.813
4.53651
4.82269
5.4195
6.38039
7.79839
9.82617
12.7131
16.874
23.0217
32.426
47.4231
72.3583
114.951
186.422
293.511
36.3082
14.8042
6.17049
1.70077
-1.00742
-2.80293
-4.0583
-4.965
-5.63247
-6.12791
-6.49461
-6.76129
-6.94715
-7.06477
-7.12177
22.9507
14.0512
7.54841
3.31422
0.496844
-1.4527
-2.84762
-3.87007
-4.63084
-5.2003
-5.6247
-5.93508
-6.15237
-6.29032
-6.35731
15.7731
11.6337
7.35085
3.94376
1.39844
-0.487607
-1.89559
-2.95684
-3.76202
-4.37337
-4.83391
-5.17348
-5.41262
-5.56509
-5.63931
11.47
9.31575
6.54505
3.97482
1.8422
0.145498
-1.18432
-2.22141
-3.02776
-3.65115
-4.1271
-4.48156
-4.73302
-4.89414
-4.97281
8.6627
7.42584
5.59999
3.70193
1.98322
0.523822
-0.676328
-1.64619
-2.42055
-3.03127
-3.50462
-3.86113
-4.11612
-4.28041
-4.36089
6.71431
5.94487
4.70501
3.30447
1.94414
0.722109
-0.328255
-1.20671
-1.92696
-2.50675
-2.96324
-3.31115
-3.56217
-3.72485
-3.80482
5.30019
4.79053
3.92159
2.87907
1.80899
0.801179
-0.0995614
-0.877083
-1.5309
-2.06784
-2.49724
-2.82845
-3.06951
-3.22671
-3.30424
4.23995
3.88564
3.25867
2.47277
1.63059
0.805888
0.0435634
-0.633355
-1.21599
-1.70358
-2.09942
-2.4083
-2.63508
-2.78385
-2.85748
3.42572
3.17006
2.70609
2.10553
1.44002
0.767275
0.127378
-0.455097
-0.96707
-1.40303
-1.76196
-2.04516
-2.25481
-2.39313
-2.46183
2.78901
2.59911
2.24835
1.78337
1.25448
0.705841
0.171314
-0.325793
-0.770926
-1.15597
-1.47708
-1.73306
-1.92404
-2.05074
-2.11387
2.28415
2.13985
1.86991
1.50559
1.08263
0.634603
0.189261
-0.23258
-0.616506
-0.953276
-1.23743
-1.46608
-1.63791
-1.75247
-1.80973
1.87947
1.76782
1.55698
1.26852
0.928175
0.561497
0.190885
-0.165693
-0.494829
-0.787115
-1.03632
-1.23855
-1.39152
-1.49399
-1.54534
1.55231
1.46466
1.29796
1.06745
0.792001
0.491116
0.182763
-0.117862
-0.398739
-0.650865
-0.867815
-1.04521
-1.18018
-1.27098
-1.3166
1.286
1.21637
1.08323
0.897594
0.673483
0.425916
0.169274
-0.0837445