/*--------------------------------*- C++ -*----------------------------------*\
| =========                 |                                                 |
| \\      /  F ield         | OpenFOAM: The Open Source CFD Toolbox           |
|  \\    /   O peration     | Version:  5.x                                   |
|   \\  /    A nd           | Web:      www.OpenFOAM.org                      |
|    \\/     M anipulation  |                                                 |
\*---------------------------------------------------------------------------*/
FoamFile
{
    version     2.0;
    format      ascii;
    class       volScalarField;
    location    "12";
    object      T;
}
// * * * * * * * * * * * * * * * * * * * * * * * * * * * * * * * * * * * * * //

dimensions      [0 0 0 1 0 0 0];

internalField   nonuniform List<scalar> 
6300
(
10.1075
10.3243
10.5462
10.7764
11.018
11.2741
11.5471
11.8392
12.1521
12.4868
12.8433
13.2212
13.6187
14.0334
14.462
10.1058
10.3193
10.5378
10.7649
11.0036
11.2571
11.5279
11.8184
12.1303
12.4648
12.822
13.2014
13.6014
14.0194
14.4519
10.1024
10.309
10.5209
10.7416
10.9745
11.2226
11.489
11.7761
12.0859
12.4199
12.7783
13.1609
13.5659
13.9907
14.4314
10.0972
10.2934
10.4952
10.7062
10.93
11.1699
11.4293
11.711
12.0174
12.3503
12.7105
13.0978
13.5106
13.9459
14.3994
10.0901
10.2723
10.4603
10.658
10.8692
11.0977
11.3472
11.6211
11.9223
12.2533
12.6156
13.0091
13.4327
13.8828
14.3546
10.0811
10.2454
10.4157
10.5962
10.7911
11.0045
11.2407
11.5037
11.7974
12.1251
12.4891
12.8904
13.3279
13.7981
14.2947
10.0701
10.2123
10.3609
10.5201
10.6944
10.8885
11.1072
11.3555
11.6384
11.9603
12.3253
12.7354
13.1905
13.6868
14.2167
10.0569
10.1729
10.2954
10.4288
10.5779
10.7479
10.9442
11.1728
11.4401
11.7526
12.1162
12.5354
13.0116
13.5417
14.1162
10.0417
10.1271
10.219
10.3218
10.4406
10.5808
10.7487
10.9513
11.1966
11.4937
11.8514
12.2781
12.7788
13.3522
13.9868
10.0242
10.0748
10.1315
10.1989
10.2818
10.3861
10.5184
10.6869
10.9015
11.1739
11.5176
11.9468
12.4733
13.1012
13.8185
10.0048
10.0163
10.0334
10.0603
10.1017
10.1632
10.2519
10.3764
10.5484
10.7827
11.0983
11.518
12.0663
12.7605
13.5945
9.98351
9.9521
9.92547
9.90719
9.90141
9.91325
9.94933
10.0185
10.133
10.3102
10.5746
10.9607
11.5132
12.2799
13.2822
9.96065
9.88312
9.80919
9.74157
9.68348
9.63901
9.61366
9.61514
9.65485
9.75029
9.92926
10.2369
10.7458
11.5636
12.8063
9.93662
9.81054
9.68659
9.56639
9.45189
9.34562
9.25112
9.17352
9.12093
9.10681
9.15515
9.31174
9.66946
10.4223
11.9478
9.91189
9.73582
9.56023
9.38548
9.21203
9.04045
8.87162
8.70686
8.54849
8.4008
8.27271
8.18537
8.19786
8.50838
9.90586
14.8639
15.2334
15.6043
15.9739
16.3397
16.6993
17.0506
17.3915
17.7205
18.0361
18.3372
18.6229
18.8925
19.1454
19.3812
19.5996
19.8003
19.9834
20.1486
20.2961
20.426
20.5382
20.6331
20.7107
20.7714
20.8153
20.8428
20.8542
20.8496
20.8296
20.7944
20.7442
20.6796
20.6007
20.5079
20.4015
20.2818
20.1492
20.0039
19.8463
19.6767
19.4954
19.3027
19.099
18.8845
18.6597
18.4247
18.18
17.9257
17.6622
17.3896
17.1083
16.8184
16.5202
16.2139
15.8997
15.5778
15.2486
14.9122
14.5691
14.2194
13.8635
13.5017
13.1343
12.7617
12.3842
12.0023
11.6162
11.2265
10.8337
10.4384
10.0411
9.64259
9.24365
8.84515
8.44799
8.05315
7.66165
7.27452
6.8928
6.51751
6.14967
5.79021
5.44003
5.09991
4.77057
4.45257
4.14637
3.85227
3.57041
14.8579
15.2312
15.6059
15.9792
16.3485
16.7112
17.0652
17.4085
17.7395
18.0567
18.3592
18.6459
18.9163
19.1698
19.406
19.6247
19.8256
20.0087
20.1739
20.3213
20.451
20.563
20.6576
20.7349
20.7952
20.8387
20.8658
20.8767
20.8717
20.8512
20.8155
20.7649
20.6998
20.6204
20.5271
20.4203
20.3002
20.1671
20.0214
19.8634
19.6933
19.5115
19.3184
19.1142
18.8993
18.674
18.4386
18.1935
17.9388
17.6749
17.402
17.1204
16.8302
16.5317
16.225
15.9105
15.5882
15.2586
14.9219
14.5783
14.2281
13.8718
13.5095
13.1416
12.7685
12.3905
12.008
11.6213
11.2309
10.8373
10.441
10.0427
9.64308
9.24292
8.84309
8.44453
8.04824
7.65525
7.26663
6.88343
6.50672
6.13751
5.77679
5.42545
5.08433
4.75416
4.43553
4.1289
3.8346
3.55276
14.8457
15.2268
15.6094
15.9902
16.3665
16.7355
17.095
17.4431
17.778
18.0985
18.4035
18.6923
18.9642
19.2188
19.4559
19.6751
19.8763
20.0595
20.2246
20.3718
20.5011
20.6126
20.7066
20.7833
20.8428
20.8856
20.9118
20.9218
20.9159
20.8944
20.8578
20.8062
20.7401
20.6599
20.5657
20.4579
20.3369
20.203
20.0564
19.8974
19.7264
19.5437
19.3496
19.1445
18.9287
18.7025
18.4663
18.2203
17.9649
17.7003
17.4268
17.1445
16.8537
16.5546
16.2473
15.9321
15.6091
15.2787
14.9412
14.5967
14.2457
13.8884
13.5252
13.1564
12.7822
12.4032
12.0195
11.6315
11.2397
10.8445
10.4464
10.0461
9.64421
9.24158
8.83908
8.4377
8.03847
7.64248
7.25083
6.86464
6.48503
6.11306
5.74976
5.39609
5.05293
4.72106
4.40113
4.09364
3.79892
3.51713
14.8268
15.2203
15.6151
16.0076
16.3947
16.7733
17.1412
17.4963
17.837
18.1622
18.471
18.7626
19.0367
19.293
19.5311
19.751
19.9527
20.136
20.301
20.4478
20.5765
20.6873
20.7804
20.856
20.9144
20.9559
20.9808
20.9894
20.9821
20.9593
20.9212
20.8682
20.8007
20.719
20.6235
20.5144
20.3921
20.2568
20.1088
19.9485
19.7761
19.592
19.3965
19.19
18.9728
18.7453
18.5078
18.2606
18.0041
17.7384
17.4639
17.1807
16.889
16.589
16.2808
15.9645
15.6405
15.309
14.9702
14.6244
14.272
13.9134
13.5488
13.1785
12.8029
12.4223
12.037
11.6472
11.2533
10.8558
10.455
10.0516
9.6463
9.23991
8.83335
8.42766
8.02393
7.62334
7.22706
6.83631
6.45225
6.07604
5.70879
5.35153
5.00522
4.67072
4.34876
4.03992
3.74456
3.46288
14.8006
15.2117
15.6238
16.0328
16.4347
16.8265
17.2056
17.57
17.9183
18.2494
18.5628
18.858
19.1348
19.3929
19.6324
19.8531
20.0552
20.2385
20.4032
20.5495
20.6774
20.7871
20.879
20.9532
21.0101
21.0499
21.073
21.0798
21.0705
21.0457
21.0057
20.9508
20.8814
20.7979
20.7005
20.5897
20.4656
20.3285
20.1788
20.0167
19.8425
19.6565
19.4591
19.2506
19.0315
18.8021
18.5629
18.3141
18.056
17.7891
17.5133
17.229
16.9362
16.635
16.3255
16.008
15.6826
15.3495
15.009
14.6615
14.3073
13.9468
13.5803
13.2082
12.8307
12.4482
12.0607
11.6686
11.2721
10.8715
10.4671
10.0597
9.64983
9.23835
8.82626
8.41467
8.00478
7.59788
7.19526
6.79823
6.40808
6.02605
5.65335
5.29112
4.94043
4.60226
4.27746
3.96671
3.67048
3.38897
14.7664
15.2014
15.637
16.0678
16.4893
16.8979
17.291
17.6667
18.0239
18.362
18.6806
18.9798
19.2594
19.5195
19.7604
19.9819
20.1843
20.3676
20.5319
20.6773
20.8041
20.9125
21.0028
21.0751
21.13
21.1676
21.1884
21.1928
21.1811
21.1539
21.1113
21.054
20.9822
20.8963
20.7967
20.6837
20.5575
20.4183
20.2664
20.1021
19.9255
19.7371
19.5373
19.3263
19.1047
18.873
18.6314
18.3806
18.1207
17.8521
17.5749
17.2892
16.9951
16.6926
16.3818
16.0627
15.7355
15.4004
15.0577
14.7079
14.3514
13.9885
13.6197
13.2454
12.8657
12.4809
12.091
11.6962
11.2966
10.8923
10.4837
10.0712
9.65555
9.23757
8.81834
8.39911
7.98124
7.56615
7.15531
6.75017
6.35213
5.96255
5.58276
5.21402
4.85754
4.51448
4.18586
3.87255
3.57515
3.29392
14.7229
15.1902
15.6568
16.116
16.5621
16.9914
17.4011
17.7898
18.1569
18.5023
18.8264
19.1293
19.4117
19.6738
19.9159
20.1381
20.3407
20.5237
20.6874
20.8318
20.9571
21.0638
21.152
21.222
21.2743
21.3093
21.3273
21.3287
21.314
21.2836
21.238
21.1777
21.103
21.0143
20.9121
20.7964
20.6677
20.526
20.3716
20.2047
20.0254
19.8341
19.6312
19.4171
19.1924
18.9576
18.7132
18.4598
18.1977
17.9272
17.6484
17.3613
17.0659
16.7621
16.4497
16.1288
15.7995
15.462
15.1166
14.7639
14.4044
14.0386
13.6671
13.2901
12.9079
12.5206
12.1282
11.7306
11.3276
10.9193
10.5057
10.0872
9.66448
9.23845
8.81032
8.3815
7.95359
7.52822
7.10708
6.69179
6.2839
5.8849
5.4962
5.1192
4.75529
4.40584
4.07217
3.75543
3.45648
3.17569
14.6692
15.1797
15.6872
16.1826
16.6593
17.1129
17.5413
17.9438
18.3209
18.6733
19.0021
19.3084
19.593
19.8566
20.0996
20.3224
20.525
20.7076
20.8703
21.0133
21.1369
21.2413
21.327
21.3942
21.4435
21.4751
21.4896
21.4875
21.4691
21.435
21.3857
21.3218
21.2436
21.1517
21.0463
20.9278
20.7963
20.6519
20.4947
20.3248
20.1423
19.9475
19.7409
19.5229
19.2943
19.0557
18.8078
18.5513
18.2866
18.014
17.7336
17.4452
17.1487
16.8436
16.5297
16.2069
15.8751
15.5346
15.1859
14.8295
14.4663
14.0969
13.722
13.3421
12.9573
12.5676
12.1728
11.7726
11.3663
10.9537
10.5346
10.1092
9.67805
9.24225
8.80317
8.3625
7.92215
7.48412
7.05034
6.62266
6.2028
5.79232
5.39273
5.00548
4.63215
4.27441
3.93403
3.61267
3.31162
3.03149
14.6041
15.1735
15.735
16.2762
16.7893
17.2704
17.7185
18.1344
18.5201
18.878
19.2101
19.5184
19.8043
20.0688
20.3124
20.5353
20.7378
20.9197
21.0813
21.2226
21.3439
21.4457
21.5282
21.592
21.6376
21.6653
21.6758
21.6693
21.6465
21.608
21.5543
21.486
21.4038
21.308
21.1992
21.0776
20.9431
20.7959
20.6358
20.4627
20.2766
20.0777
19.8666
19.6438
19.4103
19.1669
18.9147
18.6544
18.3867
18.1119
17.83
17.5407
17.2434
16.9376
16.6224
16.2976
15.963
15.6189
15.2659
14.9049
14.5369
14.163
13.7841
13.4009
13.0135
12.6218
12.2253
11.823
11.414
10.9973
10.5724
10.1392
9.69824
9.25067
8.79818
8.34292
7.8873
7.43378
6.98471
6.5422
6.1081
5.68401
5.27139
4.87166
4.48649
4.11794
3.76846
3.44061
3.13657
2.85745
14.5271
15.1784
15.8116
16.41
16.9653
17.4753
17.9417
18.3682
18.7593
19.1194
19.4522
19.7605
20.0463
20.3108
20.5545
20.7776
20.9798
21.161
21.3211
21.4603
21.5789
21.6773
21.7561
21.8159
21.8571
21.8802
21.8858
21.8744
21.8464
21.8025
21.7435
21.6701
21.583
21.4829
21.3703
21.2454
21.1081
20.9583
20.7954
20.619
20.429
20.2254
20.0088
19.78
19.5401
19.2906
19.0328
18.7679
18.4968
18.2198
17.9368
17.6474
17.3504
17.0446
16.7288
16.4022
16.0644
15.7159
15.3573
14.99
14.6157
14.236
13.8523
13.4654
13.0757
12.6828
12.2857
11.8829
11.4725
11.0526
10.622
10.1803
9.72785
9.26605
8.79707
8.32373
7.8493
7.37695
6.90956
6.44954
5.99889
5.55912
5.13142
4.71682
4.31683
3.93397
3.57169
3.2342
2.92562
2.64804
14.4397
15.2092
15.9382
16.6057
17.2063
17.7427
18.2222
18.6528
19.0429
19.3999
19.7292
20.0347
20.3186
20.5824
20.8261
21.0495
21.2518
21.4323
21.5908
21.7275
21.8426
21.937
22.0112
22.0661
22.1022
22.1201
22.1202
22.1029
22.0688
22.0185
21.9531
21.8735
21.7807
21.6756
21.5589
21.4307
21.2909
21.1391
20.974
20.7947
20.6006
20.3916
20.1683
19.9318
19.6836
19.4259
19.1608
18.8901
18.615
18.3359
18.0528
17.7646
17.4698
17.1659
16.8506
16.5226
16.1812
15.827
15.4609
15.0852
14.7021
14.3147
13.9248
13.534
13.1424
12.7497
12.3543
11.9538
11.5445
11.1232
10.6875
10.2366
9.77082
9.29165
8.80211
8.30601
7.80822
7.31287
6.82369
6.3433
5.87393
5.41678
4.97252
4.54087
4.12243
3.72032
3.33917
2.98611
2.67
2.39503
14.3507
15.298
16.1533
16.8977
17.5393
18.0921
18.5728
18.9954
19.374
19.7201
20.0403
20.3396
20.6199
20.8825
21.1267
21.3517
21.5548
21.735
21.8917
22.0252
22.1361
22.2253
22.2939
22.3429
22.3733
22.3853
22.3793
22.3555
22.3141
22.2562
22.1827
22.0955
21.9958
21.885
21.7636
21.6323
21.4908
21.3386
21.173
20.9915
20.7934
20.5781
20.3467
20.0999
19.8408
19.5716
19.2968
19.0185
18.7388
18.4578
18.1758
17.8911
17.6019
17.3034
16.9906
16.6621
16.3164
15.9549
15.5784
15.1906
14.7947
14.3965
13.9985
13.6033
13.2106
12.8204
12.4301
12.0369
11.6339
11.2141
10.775
10.3142
9.83296
9.33208
8.8165
8.29064
7.76354
7.23981
6.72509
6.22111
5.73133
5.2558
4.7954
4.34584
3.90447
3.47646
3.06614
2.68479
2.35512
2.08542
14.2962
15.5191
16.5278
17.3377
17.9997
18.5452
19.0069
19.4012
19.7515
20.0771
20.3813
20.6718
20.9461
21.2089
21.4548
21.6851
21.8903
22.0715
22.2256
22.3553
22.4603
22.5431
22.6044
22.6463
22.6703
22.6763
22.6637
22.6329
22.583
22.516
22.4318
22.3353
22.2266
22.1092
21.9821
21.8483
21.7061
21.5569
21.3945
21.2119
21.0107
20.7875
20.5468
20.2857
20.012
19.7249
19.4375
19.1485
18.8643
18.5807
18.3023
18.0239
17.7474
17.461
17.1532
16.826
16.4741
16.1041
15.7117
15.3076
14.8904
14.478
14.068
13.6691
13.2748
12.8909
12.51
12.1341
11.7472
11.3328
10.8935
10.4209
9.9233
9.39357
8.84555
8.27695
7.71388
7.15368
6.61094
6.07838
5.56812
5.07298
4.60261
4.13895
3.66721
3.20708
2.75135
2.309
1.95387
1.69744
14.4308
16.0485
17.1885
17.9902
18.6279
19.1185
19.538
19.87
20.1645
20.4648
20.7418
21.0269
21.2889
21.5594
21.805
22.0543
22.2602
22.4468
22.5941
22.7208
22.8161
22.8917
22.9426
22.9751
22.9931
22.9935
22.9743
22.9374
22.8764
22.8001
22.6982
22.5925
22.4695
22.3473
22.2098
22.0764
21.9308
21.7943
21.6447
21.4587
21.2594
21.0217
20.7759
20.4896
20.2023
19.8785
19.5805
19.2712
18.9886
18.6961
18.4285
18.1537
17.9067
17.6496
17.3432
17.0254
16.6575
16.2855
15.8618
15.4434
14.9789
14.5558
14.1215
13.7279
13.3241
12.9569
12.5823
12.2471
11.8999
11.4874
11.0597
10.5637
10.0597
9.4813
8.90412
8.2552
7.66
7.04232
6.48205
5.90347
5.38304
4.85446
4.40008
3.94364
3.4132
2.93133
2.41725
1.80761
1.41044
1.19298
15.4861
17.2657
18.336
18.8788
19.4679
19.7938
20.1947
20.3926
20.5688
20.8859
21.0902
21.415
21.619
21.9454
22.1495
22.4858
22.6574
22.8786
22.9919
23.1311
23.2
23.2756
23.307
23.3243
23.3412
23.3384
23.3101
23.2761
23.1916
23.1209
22.9695
22.8744
22.711
22.6071
22.4313
22.3216
22.1423
22.05
21.9473
21.7243
21.5633
21.2674
21.0629
20.6944
20.445
19.9946
19.7395
19.3551
19.1269
18.7753
18.565
18.2433
18.0804
17.9088
17.5493
17.2969
16.8464
16.5413
16.0039
15.6451
15.0079
14.6493
14.1164
13.8012
13.3203
13.0334
12.5978
12.3775
12.1463
11.6637
11.3242
10.7177
10.3032
9.56713
9.06587
8.15598
7.6384
6.84818
6.37945
5.64476
5.20964
4.52903
4.20044
3.85484
3.08921
2.70192
2.22074
1.00022
0.608214
0.503838
3.27382
2.9676
2.67814
2.4046
2.14594
1.90095
1.66833
1.44674
1.23479
1.03112
0.834372
0.643226
0.456394
0.27262
0.0906713
3.25643
2.9508
2.66219
2.3897
2.13223
1.88854
1.65729
1.43708
1.22651
1.02419
0.828759
0.638902
0.45333
0.270792
0.0900637
3.22137
2.91696
2.63008
2.35974
2.10473
1.86368
1.63518
1.41775
1.20995
1.01034
0.817565
0.630285
0.447227
0.267152
0.0888538
3.16801
2.86553
2.5814
2.31442
2.06322
1.82626
1.60198
1.38879
1.18517
0.989664
0.800861
0.617439
0.438134
0.26173
0.0870525
3.09542
2.79574
2.51551
2.2533
2.00744
1.77614
1.55765
1.35024
1.15228
0.962263
0.778766
0.60047
0.426134
0.25458
0.0846775
3.00224
2.70644
2.43159
2.17582
1.93706
1.71321
1.50222
1.30221
1.11143
0.928327
0.75146
0.579533
0.411345
0.245775
0.081754
2.88663
2.59616
2.32854
2.08129
1.85175
1.63738
1.4358
1.24493
1.06291
0.88814
0.719206
0.554848
0.393934
0.235417
0.0783165
2.74612
2.46299
2.2051
1.96901
1.75127
1.54873
1.35866
1.17877
1.00712
0.842108
0.682364
0.526714
0.374119
0.223642
0.0744102
2.5774
2.30455
2.05984
1.83836
1.63555
1.44758
1.27133
1.10435
0.944685
0.790795
0.641422
0.495517
0.352182
0.210618
0.0700918
2.37598
2.11794
1.89134
1.689
1.50498
1.33469
1.17472
1.02259
0.876464
0.734956
0.597002
0.461745
0.328469
0.196553
0.0654304
2.13576
1.89988
1.69853
1.52131
1.36067
1.21146
1.07026
0.934824
0.80361
0.675553
0.549877
0.425985
0.303393
0.181691
0.0605067
1.84858
1.64725
1.48157
1.33703
1.20491
1.08019
0.960035
0.842817
0.727587
0.613762
0.500962
0.388918
0.277424
0.166308
0.0554117
1.50434
1.35894
1.24344
1.14032
1.04174
0.94435
0.846854
0.748812
0.650151
0.550938
0.451283
0.351296
0.251075
0.150702
0.0502432
1.09483
1.04073
0.9929
0.939068
0.877347
0.808605
0.734209
0.655417
0.573258
0.48855
0.40193
0.313904
0.224876
0.13518
0.0451016
0.632345
0.716213
0.748359
0.745691
0.719966
0.678505
0.625951
0.565378
0.498909
0.428066
0.353978
0.277509
0.199342
0.120039
0.0400839
9.88907
9.66688
9.44361
9.21846
8.99042
8.75818
8.51997
8.2732
8.01392
7.73561
7.42641
7.06128
6.57564
5.75745
3.73479
9.86857
9.60494
9.3389
9.06861
8.79185
8.5057
8.20621
7.88762
7.54112
7.15232
6.69585
6.12305
5.33179
4.09301
1.90728
9.84861
9.54467
9.23712
8.92325
8.59977
8.26248
7.9057
7.52141
7.09769
6.61599
6.04604
5.3365
4.39868
3.08616
1.21088
9.82946
9.48689
9.13974
8.78456
8.41728
8.03277
7.62428
7.18256
6.6945
6.14091
5.49314
4.70847
3.72575
2.47011
0.893977
9.81134
9.43229
9.04791
8.65427
8.24675
7.8197
7.36591
6.87588
6.33681
5.73121
5.03531
4.21795
3.24232
2.07662
0.724164
9.79442
9.38138
8.96252
8.53361
8.08977
7.62519
7.1327
6.60325
6.02531
5.3842
4.66181
3.83732
2.89087
1.81281
0.620928
9.77883
9.33449
8.88411
8.42331
7.94719
7.45005
6.92514
6.36428
5.75765
5.09363
4.35919
3.54139
2.63081
1.62803
0.552397
9.7646
9.29181
8.81293
8.32364
7.81919
7.2942
6.74252
6.15709
5.52984
4.85194
4.11446
3.30988
2.43476
1.49384
0.504112
9.75177
9.25334
8.74898
8.23451
7.70544
7.15687
6.58335
5.97893
5.33718
4.65162
3.91633
3.12733
2.28442
1.39355
0.46867
9.74029
9.219
8.69204
8.1555
7.60524
7.03685
6.44564
5.82667
5.17496
4.48581
3.7555
2.98222
2.16736
1.31686
0.441883
9.73011
9.18858
8.64176
8.08602
7.51762
6.93268
6.3272
5.69715
5.03872
4.34859
3.6245
2.86596
2.07506
1.25718
0.421195
9.72115
9.16184
8.59766
8.02533
7.44149
6.84277
6.2258
5.58735
4.9245
4.23494
3.51742
2.77218
2.0015
1.21007
0.404954
9.71332
9.13848
8.55923
7.97262
7.37568
6.76552
6.13932
5.49448
4.8288
4.14072
3.42958
2.69605
1.94235
1.17246
0.39204
9.7065
9.11819
8.52592
7.92707
7.31906
6.69941
6.06577
5.41608
4.74867
4.06249
3.3573
2.63393
1.89443
1.14216
0.381669
9.70061
9.10064
8.49717
7.88787
7.27053
6.64301
6.00338
5.34998
4.68158
3.99746
3.29764
2.583
1.85538
1.11758
0.373272
9.69552
9.08554
8.47246
7.85427
7.22906
6.59501
5.95053
5.29431
4.62539
3.94333
3.24828
2.5411
1.82339
1.09751
0.36643
9.69116
9.07258
8.45129
7.82555
7.19371
6.55425
5.90585
5.24744
4.57832
3.89821
3.20734
2.5065
1.79708
1.08104
0.360825
9.68743
9.06149
8.43321
7.80107
7.16366
6.51971
5.8681
5.20801
4.53889
3.86057
3.17332
2.47785
1.77536
1.06748
0.356214
9.68424
9.05204
8.4178
7.78025
7.13816
6.49047
5.83626
5.17485
4.50584
3.82914
3.145
2.45408
1.75738
1.05628
0.352407
9.68153
9.04399
8.40471
7.76257
7.11655
6.46575
5.8094
5.14697
4.47814
3.80286
3.1214
2.43431
1.74246
1.04699
0.349255
9.67922
9.03716
8.3936
7.74759
7.09827
6.44487
5.78677
5.12353
4.45491
3.78089
3.1017
2.41785
1.73006
1.03928
0.346639
9.67726
9.03136
8.38418
7.73491
7.08282
6.42726
5.76772
5.10384
4.43543
3.76249
3.08525
2.40412
1.71973
1.03287
0.344464
9.67561
9.02646
8.37621
7.72419
7.06977
6.41241
5.75168
5.08728
4.41908
3.74709
3.07149
2.39266
1.71112
1.02752
0.342652
9.67421
9.02231
8.36948
7.71514
7.05876
6.39989
5.73818
5.07338
4.40537
3.73418
3.05998
2.38308
1.70392
1.02306
0.34114
9.67302
9.0188
8.36379
7.7075
7.04948
6.38936
5.72683
5.06169
4.39386
3.72337
3.05035
2.37507
1.69792
1.01934
0.339879
9.67202
9.01585
8.359
7.70107
7.04167
6.38049
5.71728
5.05188
4.38421
3.7143
3.04228
2.36837
1.69289
1.01622
0.338825
9.67118
9.01335
8.35496
7.69564
7.03509
6.37303
5.70926
5.04364
4.37611
3.70671
3.03553
2.36277
1.68869
1.01362
0.337943
9.67047
9.01126
8.35156
7.69108
7.02956
6.36677
5.70252
5.03673
4.36932
3.70034
3.02987
2.35807
1.68517
1.01145
0.337206
9.66988
9.00949
8.3487
7.68725
7.02491
6.3615
5.69687
5.03093
4.36363
3.695
3.02513
2.35414
1.68223
1.00962
0.33659
9.66937
9.00801
8.34629
7.68403
7.02101
6.35708
5.69213
5.02606
4.35886
3.69054
3.02116
2.35085
1.67977
1.0081
0.336075
9.66895
9.00676
8.34428
7.68132
7.01774
6.35338
5.68815
5.02199
4.35487
3.6868
3.01785
2.3481
1.67771
1.00683
0.335644
9.6686
9.00572
8.34259
7.67906
7.015
6.35028
5.68483
5.01858
4.35153
3.68368
3.01507
2.34581
1.67599
1.00577
0.335284
9.66831
9.00485
8.34118
7.67717
7.01271
6.34769
5.68205
5.01574
4.34874
3.68107
3.01276
2.3439
1.67456
1.00488
0.334985
9.66806
9.00412
8.34001
7.6756
7.01081
6.34554
5.67975
5.01338
4.34643
3.67891
3.01084
2.34231
1.67337
1.00415
0.334736
9.66786
9.00352
8.33903
7.6743
7.00923
6.34376
5.67783
5.01142
4.34451
3.67711
3.00925
2.34099
1.67239
1.00354
0.33453
9.66769
9.00303
8.33823
7.67322
7.00793
6.34229
5.67626
5.00981
4.34293
3.67564
3.00795
2.33991
1.67158
1.00304
0.334361
9.66755
9.00262
8.33758
7.67235
7.00687
6.34109
5.67498
5.0085
4.34165
3.67444
3.00688
2.33903
1.67092
1.00263
0.334223
9.66744
9.0023
8.33705
7.67164
7.00602
6.34013
5.67394
5.00744
4.34062
3.67347
3.00603
2.33832
1.67039
1.0023
0.334112
9.66736
9.00204
8.33664
7.67109
7.00535
6.33937
5.67313
5.00661
4.3398
3.67271
3.00535
2.33776
1.66998
1.00205
0.334025
9.66729
9.00185
8.33632
7.67067
7.00484
6.3388
5.67252
5.00598
4.33919
3.67214
3.00484
2.33734
1.66966
1.00185
0.333959
9.66724
9.00171
8.3361
7.67037
7.00448
6.33839
5.67208
5.00554
4.33875
3.67173
3.00448
2.33704
1.66944
1.00171
0.333912
9.66722
9.00162
8.33596
7.67018
7.00425
6.33813
5.67181
5.00526
4.33848
3.67147
3.00425
2.33685
1.6693
1.00163
0.333883
9.6672
9.00159
8.3359
7.6701
7.00415
6.33803
5.67169
5.00514
4.33836
3.67136
3.00416
2.33677
1.66924
1.00159
0.333871
9.66721
9.0016
8.33592
7.67013
7.00418
6.33806
5.67173
5.00517
4.33839
3.67139
3.00419
2.3368
1.66925
1.0016
0.333874
9.66723
9.00166
8.33601
7.67026
7.00434
6.33823
5.67191
5.00537
4.33858
3.67157
3.00434
2.33693
1.66935
1.00166
0.333895
9.66726
9.00177
8.33619
7.67049
7.00463
6.33856
5.67226
5.00572
4.33893
3.6719
3.00463
2.33716
1.66953
1.00177
0.333932
9.66732
9.00193
8.33646
7.67085
7.00505
6.33904
5.67278
5.00625
4.33945
3.67238
3.00506
2.33752
1.66979
1.00193
0.333987
9.66739
9.00215
8.33682
7.67133
7.00564
6.3397
5.67348
5.00697
4.34015
3.67304
3.00564
2.338
1.67015
1.00216
0.334063
9.66749
9.00244
8.33728
7.67195
7.00639
6.34055
5.67439
5.0079
4.34106
3.67389
3.0064
2.33862
1.67062
1.00244
0.33416
9.66761
9.0028
8.33786
7.67273
7.00733
6.34161
5.67554
5.00907
4.34221
3.67496
3.00734
2.33941
1.67121
1.00281
0.334283
9.66776
9.00324
8.33858
7.67369
7.0085
6.34293
5.67695
5.01052
4.34362
3.67628
3.00852
2.34038
1.67193
1.00326
0.334435
9.66795
9.00379
8.33946
7.67487
7.00992
6.34454
5.67867
5.01228
4.34535
3.6779
3.00995
2.34156
1.67282
1.0038
0.33462
9.66817
9.00444
8.34053
7.67629
7.01165
6.34649
5.68076
5.01442
4.34744
3.67985
3.01168
2.343
1.67389
1.00447
0.334844
9.66844
9.00523
8.34181
7.67801
7.01372
6.34884
5.68328
5.01699
4.34996
3.68221
3.01377
2.34473
1.67519
1.00527
0.335115
9.66876
9.00618
8.34334
7.68007
7.01621
6.35165
5.68629
5.02008
4.35299
3.68504
3.01628
2.34681
1.67674
1.00623
0.335441
9.66914
9.00732
8.34518
7.68253
7.01919
6.35502
5.68991
5.02378
4.35662
3.68843
3.01929
2.3493
1.6786
1.00738
0.335831
9.6696
9.00867
8.34737
7.68546
7.02274
6.35904
5.69422
5.0282
4.36095
3.69249
3.02289
2.35228
1.68083
1.00876
0.336297
9.67014
9.01028
8.34998
7.68896
7.02698
6.36384
5.69937
5.03348
4.36612
3.69733
3.02719
2.35584
1.6835
1.01041
0.336856
9.67079
9.0122
8.35309
7.69313
7.03203
6.36955
5.70551
5.03977
4.3723
3.70311
3.03232
2.3601
1.68669
1.01238
0.337523
9.67156
9.01448
8.35678
7.69808
7.03804
6.37636
5.71281
5.04727
4.37966
3.71001
3.03845
2.36518
1.69049
1.01474
0.33832
9.67248
9.01719
8.36117
7.70397
7.04518
6.38445
5.72152
5.0562
4.38843
3.71824
3.04576
2.37125
1.69504
1.01755
0.339273
9.67357
9.02041
8.36639
7.71097
7.05367
6.39408
5.73187
5.06684
4.39889
3.72805
3.05449
2.37849
1.70047
1.02091
0.340411
9.67485
9.02422
8.37257
7.71927
7.06375
6.40551
5.74419
5.0795
4.41135
3.73975
3.06491
2.38715
1.70696
1.02493
0.341773
9.67638
9.02873
8.3799
7.72911
7.07571
6.4191
5.75883
5.09458
4.4262
3.75371
3.07735
2.39749
1.71472
1.02975
0.343403
9.67818
9.03408
8.38857
7.74078
7.0899
6.43524
5.77624
5.11252
4.44389
3.77037
3.09221
2.40986
1.72401
1.03551
0.345356
9.68032
9.0404
8.39883
7.75459
7.10671
6.45438
5.79692
5.13387
4.46498
3.79026
3.10997
2.42466
1.73514
1.04241
0.347697
9.68283
9.04786
8.41096
7.77092
7.12662
6.47708
5.82149
5.15928
4.49012
3.814
3.13122
2.4424
1.74848
1.0507
0.350509
9.6858
9.05665
8.42526
7.79021
7.15017
6.50397
5.85066
5.1895
4.5201
3.84237
3.15666
2.46367
1.76452
1.06067
0.353891
9.68929
9.067
8.44211
7.81295
7.17798
6.53581
5.88526
5.22545
4.55584
3.8763
3.18715
2.48921
1.7838
1.07268
0.357968
9.69339
9.07915
8.46192
7.83974
7.21081
6.57346
5.9263
5.26821
4.59849
3.91689
3.22374
2.51995
1.80706
1.08718
0.362895
9.69818
9.0934
8.48515
7.87121
7.24946
6.61794
5.97493
5.31905
4.64937
3.96551
3.26771
2.55701
1.83517
1.10474
0.368867
9.70379
9.11003
8.51234
7.90812
7.2949
6.67038
6.03248
5.37947
4.71011
4.02379
3.32065
2.60179
1.86925
1.12607
0.376132
9.7103
9.12941
8.54405
7.95126
7.3482
6.73212
6.10052
5.45124
4.78263
4.09374
3.38452
2.65606
1.91071
1.1521
0.385009
9.71786
9.1519
8.58091
8.00155
7.41052
6.80463
6.18083
5.53644
4.86923
4.17779
3.46174
2.72206
1.96138
1.18403
0.395916
9.72658
9.17788
8.62358
8.05994
7.48318
6.88956
6.27545
5.63746
4.97267
4.27894
3.55536
2.80265
2.02362
1.22342
0.409408
9.7366
9.20775
8.67275
8.12742
7.56753
6.98872
6.38665
5.75709
5.09618
4.40082
3.66921
2.90151
2.10056
1.2724
0.426237
9.74803
9.24188
8.72907
8.20503
7.66501
7.10403
6.51693
5.89848
5.24362
4.54787
3.80811
3.02345
2.19641
1.33387
0.447447
9.76099
9.28064
8.7932
8.29374
7.77703
7.23746
6.66898
6.06517
5.41943
4.72548
3.97817
3.17481
2.3169
1.41194
0.474536
9.77558
9.32431
8.86566
8.39441
7.90493
7.39096
6.84556
6.26095
5.62871
4.94014
4.18716
3.36406
2.47005
1.51253
0.509729
9.79186
9.37311
8.94687
8.50775
8.04982
7.5663
7.04934
6.4898
5.87711
5.19951
4.44484
3.60253
2.66729
1.64457
0.556487
9.80985
9.42712
9.03701
8.63415
8.21246
7.76484
7.2827
6.75555
6.17058
5.51238
4.76335
3.90554
2.92528
1.82199
0.620528
9.82951
9.48625
9.136
8.7736
8.39311
7.98734
7.54728
7.06145
6.51489
5.88832
5.1574
4.29358
3.2687
2.06759
0.712061
9.85076
9.55023
9.24341
8.92562
8.59131
8.23363
7.84366
7.40949
6.91476
6.3367
5.64372
4.79344
3.73449
2.4204
0.851226
9.87342
9.61856
9.35844
9.0891
8.80574
8.50232
8.1707
7.79956
7.37248
6.86487
6.23924
5.43819
4.37744
2.95036
1.08294
9.89727
9.69054
9.47988
9.26228
9.0341
8.79057
8.52517
8.22847
7.88608
7.47499
6.95657
6.26326
5.27477
3.78608
1.5219
9.922
9.76524
9.60612
9.44282
9.27309
9.09398
8.90137
8.68909
8.44736
8.1596
7.79531
7.29328
6.51942
5.16033
2.50225
9.94726
9.84158
9.73526
9.62779
9.51857
9.40676
9.2912
9.17012
9.04058
8.89734
8.72966
8.51203
8.17044
7.43662
5.11205
9.97267
9.91836
9.86518
9.81398
9.76582
9.72212
9.68484
9.65698
9.64329
9.65199
9.69864
9.81683
10.0938
10.8175
13.2076
9.99782
9.99436
9.99371
9.99804
10.01
10.033
10.0719
10.134
10.2304
10.3802
10.6179
11.0113
11.7068
13.0412
15.7722
10.0223
10.0684
10.1188
10.1768
10.2464
10.3328
10.4429
10.587
10.7804
11.0475
11.4289
11.9959
12.8761
14.2949
16.6045
0.260018
0.466146
0.556101
0.589555
0.590117
0.569407
0.534058
0.488241
0.434758
0.375592
0.3122
0.245699
0.176974
0.106756
0.035679
0.13953
0.319483
0.420554
0.470451
0.486838
0.480388
0.457785
0.423435
0.380383
0.330818
0.276377
0.218324
0.157675
0.0952771
0.0318691
0.0878666
0.227595
0.320541
0.374612
0.399416
0.402581
0.389664
0.364669
0.330527
0.289429
0.243059
0.192751
0.13959
0.0844981
0.0282881
0.0612051
0.168194
0.24752
0.299095
0.327016
0.335939
0.329926
0.312253
0.285498
0.251697
0.212475
0.169155
0.122844
0.074495
0.0249612
0.0452521
0.128002
0.193769
0.240002
0.267807
0.279666
0.278284
0.26614
0.24536
0.217729
0.184735
0.147636
0.107512
0.0653138
0.021904
0.0346835
0.0996027
0.153581
0.193703
0.21967
0.232586
0.234113
0.226021
0.209978
0.187481
0.159843
0.128216
0.0936203
0.0569732
0.0191232
0.0272035
0.0788002
0.123014
0.157232
0.180595
0.193412
0.196619
0.191421
0.179077
0.160803
0.137721
0.110858
0.0811516
0.0494674
0.0166175
0.0216748
0.0631242
0.0993876
0.128298
0.148843
0.160909
0.164961
0.161781
0.152294
0.137461
0.118222
0.0954723
0.0700559
0.0427707
0.014379
0.0174657
0.0510488
0.0808669
0.105171
0.122978
0.133971
0.138323
0.136519
0.129221
0.117177
0.10116
0.0819381
0.0602574
0.0368419
0.0123948
0.0141927
0.0415875
0.066175
0.0865546
0.101842
0.111644
0.115959
0.11507
0.109443
0.0996519
0.0863241
0.0701102
0.0516629
0.0316293
0.0106481
0.0116075
0.0340754
0.0544045
0.0714736
0.0845163
0.0931261
0.0972084
0.0969114
0.0925568
0.0845812
0.0734913
0.0598326
0.0441697
0.0270745
0.00912022
0.00954111
0.0280483
0.0448975
0.059188
0.0702679
0.0777515
0.0814978
0.0815692
0.0781839
0.0716726
0.0624416
0.0509462
0.0376707
0.0231159
0.00779098
0.00787396
0.0231722
0.0371671
0.0491314
0.0585162
0.0649714
0.0683385
0.0686267
0.0659812
0.0606519
0.052964
0.0432956
0.0320598
0.0196919
0.00664017
0.00651904
0.0192009
0.0308465
0.0408656
0.0487984
0.0543352
0.0573167
0.0577207
0.0556418
0.0512685
0.0448611
0.036733
0.0272348
0.0167426
0.00564808
0.0054114
0.0159492
0.0256552
0.0340482
0.040744
0.0454731
0.0480843
0.0485384
0.0468952
0.0432972
0.0379528
0.0311215
0.0230999
0.0142113
0.00479597
0.00450164
0.0132749
0.0213754
0.028409
0.0340551
0.0380814
0.0403495
0.0408122
0.0395058
0.0365382
0.0320768
0.0263362
0.019567
0.0120457
0.00406648
0.00375156
0.0110678
0.0178363
0.0237332
0.0284908
0.0319103
0.0338679
0.0343142
0.0332696
0.0308162
0.0270888
0.0222651
0.0165561
0.010198
0.0034437
0.00313121
0.00924091
0.0149023
0.0198483
0.0238553
0.0267541
0.0284355
0.0288513
0.0280113
0.0259786
0.0228619
0.0188084
0.0139959
0.00862523
0.00291334
0.00261688
0.00772525
0.0124651
0.0166153
0.0199892
0.0224431
0.0238818
0.0242601
0.0235812
0.0218935
0.0192854
0.0158788
0.0118232
0.00728936
0.00246265
0.00218961
0.00646544
0.0104371
0.0139213
0.0167618
0.018837
0.0200644
0.0204027
0.0198513
0.0184475
0.0162631
0.0133996
0.00998257
0.0061568
0.00208041
0.0018341
0.00541679
0.00874763
0.0116742
0.0140657
0.0158193
0.0168642
0.0171631
0.0167132
0.0155434
0.0137124
0.0113046
0.0084257
0.00519822
0.00175678
0.00153798
0.00454297
0.00733882
0.00979849
0.0118124
0.0132938
0.0141817
0.0144435
0.0140747
0.0130983
0.0115622
0.00953672
0.0071108
0.00438817
0.00148322
0.00129113
0.00381433
0.0061634
0.00823224
0.00992897
0.0111802
0.011934
0.0121616
0.0118582
0.0110417
0.00975168
0.00804681
0.0060019
0.0037047
0.00125235
0.00108529
0.00320659
0.00518253
0.00692431
0.00835479
0.00941193
0.0100515
0.0102484
0.00999777
0.00931381
0.0082292
0.00679296
0.00506813
0.00312894
0.00105782
0.00091367
0.00269977
0.00436421
0.00583252
0.00703979
0.00793359
0.00847622
0.00864606
0.00843817
0.00786408
0.00695082
0.00573947
0.00428318
0.00264477
0.000894214
0.000770675
0.00227742
0.00368205
0.00492195
0.0059424
0.00669905
0.00715976
0.00730589
0.00713281
0.0066498
0.00587938
0.00485603
0.00362465
0.00223846
0.000756893
0.0006517
0.00192597
0.00311424
0.00416372
0.00502817
0.00566996
0.0060617
0.00618734
0.00604261
0.00563507
0.00498352
0.00411703
0.00307358
0.00189837
0.000641938
0.000552949
0.00163422
0.00264279
0.00353395
0.0042685