/*--------------------------------*- C++ -*----------------------------------*\
| =========                 |                                                 |
| \\      /  F ield         | OpenFOAM: The Open Source CFD Toolbox           |
|  \\    /   O peration     | Version:  5.x                                   |
|   \\  /    A nd           | Web:      www.OpenFOAM.org                      |
|    \\/     M anipulation  |                                                 |
\*---------------------------------------------------------------------------*/
FoamFile
{
    version     2.0;
    format      ascii;
    class       volScalarField;
    location    "3.3";
    object      gradTx;
}
// * * * * * * * * * * * * * * * * * * * * * * * * * * * * * * * * * * * * * //

dimensions      [0 -1 0 1 0 0 0];

internalField   nonuniform List<scalar> 
3200
(
6.85039e-08
-6.24949e-09
-8.16872e-09
-8.21194e-09
-6.88547e-09
-6.71841e-09
-4.70552e-09
-4.54543e-09
-3.2971e-09
-5.01753e-09
-2.29746e-09
-1.62192e-09
-1.55452e-09
-1.17316e-09
-1.13844e-09
-8.71601e-10
-8.47436e-10
-6.53664e-10
-6.36017e-10
-4.92623e-10
-4.79506e-10
-3.72151e-10
-3.62303e-10
-2.81348e-10
-2.7391e-10
-2.12603e-10
-2.06965e-10
-1.60432e-10
-1.56152e-10
-1.20803e-10
-1.17552e-10
-9.0704e-11
-8.82355e-11
-6.78634e-11
-6.59915e-11
-5.05573e-11
-4.91404e-11
-3.74716e-11
-3.64016e-11
-2.76026e-11
-2.67968e-11
-2.0183e-11
-1.95783e-11
-1.46264e-11
-1.41747e-11
-1.04853e-11
-1.01505e-11
-7.42285e-12
-7.19454e-12
-5.31744e-12
-8.03583e-12
-3.62712e-12
-2.38901e-12
-2.26631e-12
-1.52796e-12
-1.46191e-12
-9.61331e-13
-9.17695e-13
-5.86431e-13
-5.57972e-13
-3.46413e-13
-3.28483e-13
-1.98368e-13
-1.87476e-13
-1.10287e-13
-1.03893e-13
-5.9547e-14
-5.59044e-14
-3.10979e-14
-2.90719e-14
-1.54731e-14
-1.43396e-14
-6.44803e-15
-5.80905e-15
-1.53887e-15
-1.25102e-15
-8.14778e-17
-1.49371e-17
-3.38101e-18
7.73574e-16
6.81687e-08
-6.17657e-09
-7.93023e-09
-8.03962e-09
-6.94758e-09
-6.56662e-09
-4.86228e-09
-4.49965e-09
-3.52728e-09
-4.63e-09
-2.45563e-09
-1.70892e-09
-1.54358e-09
-1.20473e-09
-1.12372e-09
-8.92167e-10
-8.36163e-10
-6.68428e-10
-6.27559e-10
-5.035e-10
-4.7313e-10
-3.80274e-10
-3.57475e-10
-2.87464e-10
-2.70244e-10
-2.17231e-10
-2.04179e-10
-1.63944e-10
-1.54034e-10
-1.2347e-10
-1.15944e-10
-9.27301e-11
-8.7016e-11
-6.94014e-11
-6.50684e-11
-5.17232e-11
-4.84433e-11
-3.83537e-11
-3.58767e-11
-2.82683e-11
-2.6403e-11
-2.06839e-11
-1.92841e-11
-1.5002e-11
-1.39562e-11
-1.07662e-11
-9.99177e-12
-7.64151e-12
-7.1225e-12
-5.66873e-12
-7.40887e-12
-3.87057e-12
-2.53976e-12
-2.24092e-12
-1.5886e-12
-1.43474e-12
-1.00066e-12
-8.99541e-13
-6.12583e-13
-5.46645e-13
-3.6327e-13
-3.21713e-13
-2.08832e-13
-1.83577e-13
-1.16547e-13
-1.01715e-13
-6.31693e-14
-5.4716e-14
-3.31351e-14
-2.84312e-14
-1.65833e-14
-1.39518e-14
-7.09652e-15
-5.61494e-15
-1.91597e-15
-1.24697e-15
-2.0031e-16
-4.26101e-17
-9.79058e-18
7.7147e-16
6.78939e-08
-6.09435e-09
-7.75747e-09
-7.91532e-09
-6.9812e-09
-6.46772e-09
-4.96533e-09
-4.47823e-09
-3.67443e-09
-4.37353e-09
-2.55667e-09
-1.77265e-09
-1.53958e-09
-1.22598e-09
-1.11502e-09
-9.05703e-10
-8.29352e-10
-6.78112e-10
-6.22425e-10
-5.10626e-10
-4.69249e-10
-3.85591e-10
-3.54532e-10
-2.91467e-10
-2.68009e-10
-2.20258e-10
-2.02479e-10
-1.6624e-10
-1.52742e-10
-1.25215e-10
-1.14962e-10
-9.40555e-11
-8.62718e-11
-7.04076e-11
-6.45053e-11
-5.2486e-11
-4.80182e-11
-3.89309e-11
-3.55567e-11
-2.87041e-11
-2.61631e-11
-2.10119e-11
-1.9105e-11
-1.5248e-11
-1.38234e-11
-1.09503e-11
-9.89596e-12
-7.78685e-12
-7.08781e-12
-5.89222e-12
-6.993e-12
-4.02569e-12
-2.64921e-12
-2.22965e-12
-1.62928e-12
-1.41877e-12
-1.02667e-12
-8.88813e-13
-6.29889e-13
-5.4001e-13
-3.74451e-13
-3.17793e-13
-2.15789e-13
-1.81347e-13
-1.20718e-13
-1.00485e-13
-6.55871e-14
-5.40523e-14
-3.44968e-14
-2.8076e-14
-1.73247e-14
-1.37328e-14
-7.52998e-15
-5.50947e-15
-2.17183e-15
-1.258e-15
-2.83573e-16
-6.52829e-17
-1.52053e-17
7.69682e-16
6.77007e-08
-6.0279e-09
-7.64487e-09
-7.83462e-09
-6.99792e-09
-6.4083e-09
-5.0277e-09
-4.46943e-09
-3.76141e-09
-4.21765e-09
-2.61636e-09
-1.81431e-09
-1.53877e-09
-1.23911e-09
-1.11023e-09
-9.13908e-10
-8.25527e-10
-6.83965e-10
-6.19528e-10
-5.14929e-10
-4.67055e-10
-3.888e-10
-3.52865e-10
-2.93881e-10
-2.66742e-10
-2.22084e-10
-2.01515e-10
-1.67625e-10
-1.52009e-10
-1.26267e-10
-1.14406e-10
-9.48548e-11
-8.58499e-11
-7.10144e-11
-6.4186e-11
-5.29461e-11
-4.77773e-11
-3.92791e-11
-3.53755e-11
-2.8967e-11
-2.60273e-11
-2.12098e-11
-1.90037e-11
-1.53965e-11
-1.37483e-11
-1.10616e-11
-9.84222e-12
-7.87569e-12
-7.07288e-12
-6.02377e-12
-6.73979e-12
-4.11713e-12
-2.72033e-12
-2.22558e-12
-1.65435e-12
-1.41005e-12
-1.04249e-12
-8.82917e-13
-6.40425e-13
-5.36396e-13
-3.8127e-13
-3.15683e-13
-2.20041e-13
-1.80162e-13
-1.23271e-13
-9.98397e-14
-6.70695e-14
-5.37087e-14
-3.53326e-14
-2.78936e-14
-1.77794e-14
-1.36181e-14
-7.79601e-15
-5.4566e-15
-2.33068e-15
-1.27144e-15
-3.36574e-16
-8.12193e-17
-1.91109e-17
7.68384e-16
6.76014e-08
-5.99148e-09
-7.58928e-09
-7.79489e-09
-7.00467e-09
-6.38044e-09
-5.0571e-09
-4.46654e-09
-3.80176e-09
-4.14402e-09
-2.64404e-09
-1.83488e-09
-1.5389e-09
-1.24539e-09
-1.10813e-09
-9.17781e-10
-8.23817e-10
-6.86722e-10
-6.18228e-10
-5.16954e-10
-4.66068e-10
-3.9031e-10
-3.52115e-10
-2.95016e-10
-2.66171e-10
-2.22943e-10
-2.01081e-10
-1.68277e-10
-1.51679e-10
-1.26762e-10
-1.14155e-10
-9.52307e-11
-8.56598e-11
-7.12998e-11
-6.40423e-11
-5.31625e-11
-4.76689e-11
-3.94429e-11
-3.5294e-11
-2.90907e-11
-2.59662e-11
-2.1303e-11
-1.89582e-11
-1.54664e-11
-1.37146e-11
-1.1114e-11
-9.81821e-12
-7.91785e-12
-7.06769e-12
-6.08462e-12
-6.62004e-12
-4.15946e-12
-2.75533e-12
-2.22453e-12
-1.66631e-12
-1.40623e-12
-1.04998e-12
-8.80323e-13
-6.4541e-13
-5.34817e-13
-3.84501e-13
-3.14769e-13
-2.22057e-13
-1.79655e-13
-1.24484e-13
-9.95666e-14
-6.77742e-14
-5.35647e-14
-3.57302e-14
-2.78178e-14
-1.79956e-14
-1.35695e-14
-7.92256e-15
-5.43508e-15
-2.40681e-15
-1.27985e-15
-3.62375e-16
-8.94164e-17
-2.11531e-17
7.67703e-16
6.76015e-08
-5.99152e-09
-7.58929e-09
-7.7949e-09
-7.00467e-09
-6.38044e-09
-5.0571e-09
-4.46654e-09
-3.80176e-09
-4.14402e-09
-2.64404e-09
-1.83488e-09
-1.5389e-09
-1.24538e-09
-1.10813e-09
-9.17781e-10
-8.23817e-10
-6.86722e-10
-6.18228e-10
-5.16954e-10
-4.66068e-10
-3.9031e-10
-3.52115e-10
-2.95016e-10
-2.66171e-10
-2.22943e-10
-2.01081e-10
-1.68277e-10
-1.51679e-10
-1.26762e-10
-1.14155e-10
-9.52307e-11
-8.56598e-11
-7.12998e-11
-6.40423e-11
-5.31625e-11
-4.76689e-11
-3.94429e-11
-3.5294e-11
-2.90907e-11
-2.59662e-11
-2.1303e-11
-1.89582e-11
-1.54664e-11
-1.37146e-11
-1.1114e-11
-9.81821e-12
-7.91785e-12
-7.06769e-12
-6.08462e-12
-6.62004e-12
-4.15946e-12
-2.75533e-12
-2.22453e-12
-1.66631e-12
-1.40622e-12
-1.04998e-12
-8.80322e-13
-6.4541e-13
-5.34817e-13
-3.84501e-13
-3.14769e-13
-2.22057e-13
-1.79655e-13
-1.24484e-13
-9.95665e-14
-6.77742e-14
-5.35647e-14
-3.57302e-14
-2.78178e-14
-1.79956e-14
-1.35695e-14
-7.92255e-15
-5.43508e-15
-2.4068e-15
-1.27985e-15
-3.62373e-16
-8.94153e-17
-2.11521e-17
7.67703e-16
6.77009e-08
-6.02801e-09
-7.6449e-09
-7.83463e-09
-6.99793e-09
-6.40831e-09
-5.0277e-09
-4.46943e-09
-3.76141e-09
-4.21765e-09
-2.61636e-09
-1.81431e-09
-1.53877e-09
-1.23911e-09
-1.11023e-09
-9.13908e-10
-8.25528e-10
-6.83965e-10
-6.19528e-10
-5.14929e-10
-4.67055e-10
-3.888e-10
-3.52866e-10
-2.93881e-10
-2.66742e-10
-2.22084e-10
-2.01515e-10
-1.67625e-10
-1.5201e-10
-1.26267e-10
-1.14406e-10
-9.48548e-11
-8.58499e-11
-7.10145e-11
-6.41861e-11
-5.29461e-11
-4.77773e-11
-3.92791e-11
-3.53755e-11
-2.8967e-11
-2.60273e-11
-2.12098e-11
-1.90037e-11
-1.53965e-11
-1.37483e-11
-1.10616e-11
-9.84222e-12
-7.87569e-12
-7.07288e-12
-6.02377e-12
-6.73979e-12
-4.11713e-12
-2.72033e-12
-2.22558e-12
-1.65435e-12
-1.41004e-12
-1.04249e-12
-8.82916e-13
-6.40424e-13
-5.36396e-13
-3.8127e-13
-3.15682e-13
-2.2004e-13
-1.80162e-13
-1.23271e-13
-9.98396e-14
-6.70694e-14
-5.37086e-14
-3.53326e-14
-2.78936e-14
-1.77793e-14
-1.3618e-14
-7.79599e-15
-5.45659e-15
-2.33067e-15
-1.27143e-15
-3.36569e-16
-8.12165e-17
-1.91083e-17
7.68385e-16
6.78941e-08
-6.09449e-09
-7.75751e-09
-7.91533e-09
-6.98121e-09
-6.46772e-09
-4.96533e-09
-4.47824e-09
-3.67443e-09
-4.37353e-09
-2.55667e-09
-1.77265e-09
-1.53957e-09
-1.22598e-09
-1.11502e-09
-9.05703e-10
-8.29353e-10
-6.78112e-10
-6.22426e-10
-5.10626e-10
-4.6925e-10
-3.85592e-10
-3.54532e-10
-2.91467e-10
-2.68009e-10
-2.20258e-10
-2.02479e-10
-1.6624e-10
-1.52742e-10
-1.25215e-10
-1.14963e-10
-9.40556e-11
-8.62719e-11
-7.04076e-11
-6.45053e-11
-5.2486e-11
-4.80182e-11
-3.89309e-11
-3.55568e-11
-2.87041e-11
-2.61631e-11
-2.10119e-11
-1.9105e-11
-1.5248e-11
-1.38234e-11
-1.09503e-11
-9.89596e-12
-7.78686e-12
-7.08781e-12
-5.89222e-12
-6.993e-12
-4.02569e-12
-2.6492e-12
-2.22965e-12
-1.62928e-12
-1.41877e-12
-1.02667e-12
-8.88813e-13
-6.29889e-13
-5.4001e-13
-3.74451e-13
-3.17793e-13
-2.15789e-13
-1.81347e-13
-1.20718e-13
-1.00485e-13
-6.55871e-14
-5.40522e-14
-3.44967e-14
-2.8076e-14
-1.73246e-14
-1.37328e-14
-7.52995e-15
-5.50945e-15
-2.17181e-15
-1.25799e-15
-2.83567e-16
-6.52792e-17
-1.52019e-17
7.69682e-16
6.81689e-08
-6.17669e-09
-7.93026e-09
-8.03963e-09
-6.94759e-09
-6.56662e-09
-4.86228e-09
-4.49966e-09
-3.52728e-09
-4.63e-09
-2.45563e-09
-1.70892e-09
-1.54358e-09
-1.20473e-09
-1.12372e-09
-8.92167e-10
-8.36163e-10
-6.68429e-10
-6.2756e-10
-5.03501e-10
-4.7313e-10
-3.80274e-10
-3.57475e-10
-2.87465e-10
-2.70245e-10
-2.17231e-10
-2.04179e-10
-1.63944e-10
-1.54035e-10
-1.2347e-10
-1.15944e-10
-9.27301e-11
-8.7016e-11
-6.94014e-11
-6.50684e-11
-5.17232e-11
-4.84433e-11
-3.83537e-11
-3.58767e-11
-2.82683e-11
-2.6403e-11
-2.06839e-11
-1.92841e-11
-1.5002e-11
-1.39562e-11
-1.07662e-11
-9.99177e-12
-7.64151e-12
-7.12251e-12
-5.66873e-12
-7.40887e-12
-3.87057e-12
-2.53976e-12
-2.24092e-12
-1.58859e-12
-1.43474e-12
-1.00066e-12
-8.99541e-13
-6.12583e-13
-5.46645e-13
-3.6327e-13
-3.21713e-13
-2.08832e-13
-1.83576e-13
-1.16547e-13
-1.01715e-13
-6.31692e-14
-5.4716e-14
-3.3135e-14
-2.84312e-14
-1.65833e-14
-1.39518e-14
-7.0965e-15
-5.61493e-15
-1.91595e-15
-1.24696e-15
-2.00305e-16
-4.2607e-17
-9.78751e-18
7.7147e-16
6.8504e-08
-6.24954e-09
-8.16873e-09
-8.21194e-09
-6.88547e-09
-6.71841e-09
-4.70552e-09
-4.54543e-09
-3.2971e-09
-5.01753e-09
-2.29746e-09
-1.62192e-09
-1.55452e-09
-1.17316e-09
-1.13844e-09
-8.71601e-10
-8.47436e-10
-6.53665e-10
-6.36017e-10
-4.92623e-10
-4.79506e-10
-3.72151e-10
-3.62303e-10
-2.81348e-10
-2.7391e-10
-2.12603e-10
-2.06965e-10
-1.60432e-10
-1.56152e-10
-1.20803e-10
-1.17552e-10
-9.0704e-11
-8.82355e-11
-6.78634e-11
-6.59915e-11
-5.05573e-11
-4.91404e-11
-3.74716e-11
-3.64016e-11
-2.76026e-11
-2.67968e-11
-2.0183e-11
-1.95783e-11
-1.46264e-11
-1.41747e-11
-1.04853e-11
-1.01505e-11
-7.42285e-12
-7.19454e-12
-5.31744e-12
-8.03583e-12
-3.62712e-12
-2.38901e-12
-2.26631e-12
-1.52796e-12
-1.46191e-12
-9.61331e-13
-9.17695e-13
-5.86431e-13
-5.57972e-13
-3.46413e-13
-3.28483e-13
-1.98368e-13
-1.87476e-13
-1.10287e-13
-1.03893e-13
-5.9547e-14
-5.59044e-14
-3.10979e-14
-2.90719e-14
-1.54731e-14
-1.43396e-14
-6.44802e-15
-5.80904e-15
-1.53887e-15
-1.25101e-15
-8.14758e-17
-1.49358e-17
-3.37972e-18
7.73574e-16
5.52994e-05
-4.92656e-05
-3.89998e-06
-1.66259e-06
-2.63916e-07
-1.29163e-07
-2.38575e-08
-1.32794e-08
-5.073e-09
-6.60061e-09
-3.05276e-09
-2.45188e-09
-2.37988e-09
-2.03229e-09
-1.99677e-09
-1.69003e-09
-1.6599e-09
-1.39019e-09
-1.36408e-09
-1.13316e-09
-1.11101e-09
-9.17417e-10
-8.9897e-10
-7.39103e-10
-7.23939e-10
-5.93324e-10
-5.80974e-10
-4.75061e-10
-4.6507e-10
-3.79642e-10
-3.71596e-10
-3.02949e-10
-2.9649e-10
-2.41473e-10
-2.36301e-10
-1.92293e-10
-1.88158e-10
-1.53007e-10
-1.49706e-10
-1.21662e-10
-1.1903e-10
-9.66822e-11
-9.45858e-11
-7.67995e-11
-7.51326e-11
-6.09999e-11
-5.96848e-11
-4.85111e-11
-4.76348e-11
-3.99063e-11
-6.46417e-11
-3.18005e-11
-2.48323e-11
-2.40966e-11
-1.97309e-11
-1.93179e-11
-1.5948e-11
-1.56349e-11
-1.30223e-11
-1.27806e-11
-1.07674e-11
-1.05817e-11
-9.04105e-12
-8.89867e-12
-7.71932e-12
-7.60361e-12
-6.57813e-12
-6.46571e-12
-5.34244e-12
-5.22172e-12
-4.02226e-12
-3.90739e-12
-2.91742e-12
-2.78504e-12
-1.22564e-12
-1.09316e-12
-6.66474e-14
-1.18809e-14
-2.6775e-15
-1.93383e-13
5.41096e-05
-4.34714e-05
-7.40968e-06
-2.38911e-06
-5.43406e-07
-1.88528e-07
-4.60982e-08
-1.80592e-08
-6.99632e-09
-6.49644e-09
-3.36513e-09
-2.56077e-09
-2.37695e-09
-2.06115e-09
-1.97791e-09
-1.71233e-09
-1.64258e-09
-1.40978e-09
-1.34938e-09
-1.15004e-09
-1.09881e-09
-9.31644e-10
-8.88968e-10
-7.50895e-10
-7.1581e-10
-6.02983e-10
-5.74408e-10
-4.82908e-10
-4.59787e-10
-3.85979e-10
-3.67359e-10
-3.08045e-10
-2.93099e-10
-2.45561e-10
-2.33592e-10
-1.95564e-10
-1.85996e-10
-1.55621e-10
-1.47982e-10
-1.23748e-10
-1.17657e-10
-9.83452e-11
-9.34937e-11
-7.8124e-11
-7.42666e-11
-6.20581e-11
-5.902e-11
-4.94416e-11
-4.74986e-11
-4.23265e-11
-5.94974e-11
-3.37294e-11
-2.57689e-11
-2.39561e-11
-2.00831e-11
-1.91203e-11
-1.62022e-11
-1.54772e-11
-1.32188e-11
-1.26593e-11
-1.09191e-11
-1.04892e-11
-9.15708e-12
-8.82734e-12
-7.8053e-12
-7.53709e-12
-6.64722e-12
-6.38692e-12
-5.41779e-12
-5.13888e-12
-4.10824e-12
-3.84201e-12
-2.97447e-12
-2.66871e-12
-1.34274e-12
-1.03813e-12
-1.6107e-13
-3.38191e-14
-7.75139e-15
-1.95084e-13
5.31359e-05
-3.93359e-05
-9.6777e-06
-2.9886e-06
-7.63245e-07
-2.39386e-07
-6.37592e-08
-2.21583e-08
-8.49651e-09
-6.49731e-09
-3.58434e-09
-2.64478e-09
-2.37927e-09
-2.08069e-09
-1.96633e-09
-1.72679e-09
-1.63177e-09
-1.42246e-09
-1.34023e-09
-1.16099e-09
-1.09124e-09
-9.40885e-10
-8.82775e-10
-7.58561e-10
-7.10785e-10
-6.09268e-10
-5.70354e-10
-4.88016e-10
-4.56529e-10
-3.90106e-10
-3.64748e-10
-3.11365e-10
-2.9101e-10
-2.48224e-10
-2.31923e-10
-1.97696e-10
-1.84664e-10
-1.57324e-10
-1.4692e-10
-1.25108e-10
-1.16811e-10
-9.9429e-11
-9.28216e-11
-7.89873e-11
-7.37341e-11
-6.2749e-11
-5.86164e-11
-5.00663e-11
-4.74913e-11
-4.38526e-11
-5.60702e-11
-3.49458e-11
-2.64592e-11
-2.38978e-11
-2.03186e-11
-1.90009e-11
-1.63685e-11
-1.53807e-11
-1.33472e-11
-1.25851e-11
-1.10183e-11
-1.04327e-11
-9.23294e-12
-8.78363e-12
-7.86107e-12
-7.49539e-12
-6.69107e-12
-6.33643e-12
-5.46549e-12
-5.08608e-12
-4.16362e-12
-3.80067e-12
-3.00903e-12
-2.59317e-12
-1.41896e-12
-1.00598e-12
-2.25495e-13
-5.1707e-14
-1.20344e-14
-1.96529e-13
5.24524e-05
-3.66771e-05
-1.10269e-05
-3.4095e-06
-9.14994e-07
-2.763e-07
-7.60528e-08
-2.51373e-08
-9.52929e-09
-6.53439e-09
-3.72448e-09
-2.70178e-09
-2.38287e-09
-2.09284e-09
-1.95974e-09
-1.73544e-09
-1.62551e-09
-1.43005e-09
-1.33495e-09
-1.16755e-09
-1.08687e-09
-9.46424e-10
-8.79216e-10
-7.63161e-10
-7.07902e-10
-6.1304e-10
-5.6803e-10
-4.91083e-10
-4.54663e-10
-3.92585e-10
-3.63253e-10
-3.1336e-10
-2.89815e-10
-2.49824e-10
-2.30968e-10
-1.98977e-10
-1.83903e-10
-1.58348e-10
-1.46313e-10
-1.25925e-10
-1.16328e-10
-1.00081e-10
-9.24375e-11
-7.95064e-11
-7.343e-11
-6.31651e-11
-5.83888e-11
-5.04514e-11
-4.75259e-11
-4.47439e-11
-5.39763e-11
-3.56562e-11
-2.69122e-11
-2.38799e-11
-2.04634e-11
-1.89337e-11
-1.64688e-11
-1.53259e-11
-1.34246e-11
-1.25429e-11
-1.10781e-11
-1.04006e-11
-9.27866e-12
-8.75876e-12
-7.89447e-12
-7.47115e-12
-6.71685e-12
-6.30652e-12
-5.49347e-12
-5.05494e-12
-4.19657e-12
-3.77643e-12
-3.02852e-12
-2.54794e-12
-1.46471e-12
-9.8852e-13
-2.65644e-13
-6.42256e-14
-1.51213e-14
-1.97578e-13
5.21012e-05
-3.53767e-05
-1.16547e-05
-3.62542e-06
-9.92476e-07
-2.95659e-07
-8.23655e-08
-2.6701e-08
-1.00564e-08
-6.56366e-09
-3.79297e-09
-2.73054e-09
-2.38527e-09
-2.09866e-09
-1.95676e-09
-1.73949e-09
-1.62265e-09
-1.43359e-09
-1.33254e-09
-1.17062e-09
-1.08489e-09
-9.49019e-10
-8.77597e-10
-7.65317e-10
-7.06592e-10
-6.14809e-10
-5.66975e-10
-4.92522e-10
-4.53817e-10
-3.93748e-10
-3.62575e-10
-3.14296e-10
-2.89273e-10
-2.50575e-10
-2.30536e-10
-1.99578e-10
-1.83557e-10
-1.58828e-10
-1.46038e-10
-1.26308e-10
-1.16109e-10
-1.00386e-10
-9.22635e-11
-7.97501e-11
-7.32923e-11
-6.33605e-11
-5.82867e-11
-5.06352e-11
-4.7554e-11
-4.51539e-11
-5.29838e-11
-3.5983e-11
-2.71362e-11
-2.38769e-11
-2.05325e-11
-1.89037e-11
-1.6516e-11
-1.53011e-11
-1.34609e-11
-1.25239e-11
-1.11062e-11
-1.03861e-11
-9.30016e-12
-8.74752e-12
-7.9101e-12
-7.46003e-12
-6.72878e-12
-6.29262e-12
-5.50638e-12
-5.04051e-12
-4.21192e-12
-3.76524e-12
-3.03727e-12
-2.52677e-12
-1.48615e-12
-9.8091e-13
-2.84923e-13
-7.0646e-14
-1.67347e-14
-1.98129e-13
5.21012e-05
-3.53767e-05
-1.16547e-05
-3.62541e-06
-9.92473e-07
-2.95657e-07
-8.23646e-08
-2.67006e-08
-1.00563e-08
-6.5636e-09
-3.79295e-09
-2.73054e-09
-2.38527e-09
-2.09866e-09
-1.95676e-09
-1.73949e-09
-1.62265e-09
-1.43359e-09
-1.33254e-09
-1.17062e-09
-1.08489e-09
-9.49019e-10
-8.77597e-10
-7.65317e-10
-7.06592e-10
-6.14809e-10
-5.66975e-10
-4.92522e-10
-4.53817e-10
-3.93748e-10
-3.62575e-10
-3.14296e-10
-2.89273e-10
-2.50575e-10
-2.30536e-10
-1.99578e-10
-1.83557e-10
-1.58828e-10
-1.46038e-10
-1.26308e-10
-1.16109e-10
-1.00386e-10
-9.22635e-11
-7.97501e-11
-7.32923e-11
-6.33605e-11
-5.82868e-11
-5.06352e-11
-4.7554e-11
-4.51539e-11
-5.29838e-11
-3.5983e-11
-2.71362e-11
-2.38769e-11
-2.05325e-11
-1.89037e-11
-1.65161e-11
-1.53011e-11
-1.34609e-11
-1.25239e-11
-1.11062e-11
-1.03861e-11
-9.30016e-12
-8.74752e-12
-7.9101e-12
-7.46003e-12
-6.72878e-12
-6.29262e-12
-5.50638e-12
-5.04051e-12
-4.21192e-12
-3.76524e-12
-3.03727e-12
-2.52677e-12
-1.48615e-12
-9.80909e-13
-2.84923e-13
-7.06455e-14
-1.67346e-14
-1.98129e-13
5.24524e-05
-3.66771e-05
-1.10269e-05
-3.40949e-06
-9.14987e-07
-2.76296e-07
-7.60504e-08
-2.51363e-08
-9.52889e-09
-6.53424e-09
-3.72443e-09
-2.70177e-09
-2.38287e-09
-2.09284e-09
-1.95974e-09
-1.73544e-09
-1.62551e-09
-1.43005e-09
-1.33495e-09
-1.16755e-09
-1.08688e-09
-9.46425e-10
-8.79216e-10
-7.63162e-10
-7.07902e-10
-6.13041e-10
-5.68031e-10
-4.91084e-10
-4.54664e-10
-3.92585e-10
-3.63253e-10
-3.1336e-10
-2.89815e-10
-2.49824e-10
-2.30968e-10
-1.98977e-10
-1.83903e-10
-1.58348e-10
-1.46313e-10
-1.25925e-10
-1.16328e-10
-1.00081e-10
-9.24375e-11
-7.95065e-11
-7.34301e-11
-6.31651e-11
-5.83889e-11
-5.04514e-11
-4.75259e-11
-4.47439e-11
-5.39763e-11
-3.56562e-11
-2.69122e-11
-2.38799e-11
-2.04634e-11
-1.89337e-11
-1.64688e-11
-1.53259e-11
-1.34246e-11
-1.2543e-11
-1.10781e-11
-1.04006e-11
-9.27867e-12
-8.75876e-12
-7.89447e-12
-7.47115e-12
-6.71686e-12
-6.30652e-12
-5.49347e-12
-5.05494e-12
-4.19657e-12
-3.77643e-12
-3.02852e-12
-2.54794e-12
-1.46471e-12
-9.88518e-13
-2.65642e-13
-6.42243e-14
-1.51209e-14
-1.97578e-13
5.31359e-05
-3.93359e-05
-9.67771e-06
-2.98859e-06
-7.63236e-07
-2.3938e-07
-6.37561e-08
-2.21569e-08
-8.49599e-09
-6.49712e-09
-3.58428e-09
-2.64477e-09
-2.37926e-09
-2.08069e-09
-1.96633e-09
-1.72679e-09
-1.63177e-09
-1.42246e-09
-1.34023e-09
-1.16099e-09
-1.09124e-09
-9.40886e-10
-8.82776e-10
-7.58562e-10
-7.10786e-10
-6.09268e-10
-5.70354e-10
-4.88016e-10
-4.5653e-10
-3.90106e-10
-3.64748e-10
-3.11365e-10
-2.9101e-10
-2.48224e-10
-2.31923e-10
-1.97696e-10
-1.84664e-10
-1.57324e-10
-1.4692e-10
-1.25108e-10
-1.16812e-10
-9.94291e-11
-9.28217e-11
-7.89874e-11
-7.37342e-11
-6.27491e-11
-5.86165e-11
-5.00664e-11
-4.74913e-11
-4.38526e-11
-5.60702e-11
-3.49458e-11
-2.64592e-11
-2.38978e-11
-2.03186e-11
-1.90009e-11
-1.63685e-11
-1.53807e-11
-1.33472e-11
-1.25851e-11
-1.10183e-11
-1.04327e-11
-9.23294e-12
-8.78364e-12
-7.86108e-12
-7.4954e-12
-6.69108e-12
-6.33643e-12
-5.4655e-12
-5.08608e-12
-4.16362e-12
-3.80067e-12
-3.00903e-12
-2.59317e-12
-1.41896e-12
-1.00598e-12
-2.25493e-13
-5.17053e-14
-1.2034e-14
-1.96528e-13
5.41096e-05
-4.34714e-05
-7.40969e-06
-2.3891e-06
-5.43399e-07
-1.88523e-07
-4.60955e-08
-1.8058e-08
-6.99587e-09
-6.49628e-09
-3.36508e-09
-2.56075e-09
-2.37694e-09
-2.06115e-09
-1.97791e-09
-1.71233e-09
-1.64258e-09
-1.40978e-09
-1.34938e-09
-1.15004e-09
-1.09881e-09
-9.31645e-10
-8.88969e-10
-7.50895e-10
-7.1581e-10
-6.02984e-10
-5.74408e-10
-4.82908e-10
-4.59788e-10
-3.85979e-10
-3.67359e-10
-3.08046e-10
-2.93099e-10
-2.45561e-10
-2.33592e-10
-1.95565e-10
-1.85996e-10
-1.55621e-10
-1.47982e-10
-1.23748e-10
-1.17657e-10
-9.83453e-11
-9.34937e-11
-7.8124e-11
-7.42666e-11
-6.20582e-11
-5.90201e-11
-4.94417e-11
-4.74987e-11
-4.23265e-11
-5.94974e-11
-3.37294e-11
-2.57689e-11
-2.39561e-11
-2.00831e-11
-1.91203e-11
-1.62022e-11
-1.54772e-11
-1.32188e-11
-1.26593e-11
-1.09191e-11
-1.04892e-11
-9.15709e-12
-8.82735e-12
-7.80531e-12
-7.5371e-12
-6.64722e-12
-6.38692e-12
-5.41779e-12
-5.13888e-12
-4.10825e-12
-3.84202e-12
-2.97447e-12
-2.66871e-12
-1.34273e-12
-1.03812e-12
-1.61068e-13
-3.38177e-14
-7.75104e-15
-1.95083e-13
5.52994e-05
-4.92656e-05
-3.89998e-06
-1.66259e-06
-2.63913e-07
-1.29161e-07
-2.38564e-08
-1.32789e-08
-5.07282e-09
-6.60055e-09
-3.05274e-09
-2.45188e-09
-2.37988e-09
-2.03229e-09
-1.99677e-09
-1.69003e-09
-1.6599e-09
-1.39019e-09
-1.36408e-09
-1.13316e-09
-1.11101e-09
-9.17417e-10
-8.98971e-10
-7.39103e-10
-7.23939e-10
-5.93324e-10
-5.80975e-10
-4.75061e-10
-4.6507e-10
-3.79642e-10
-3.71596e-10
-3.02949e-10
-2.9649e-10
-2.41474e-10
-2.36301e-10
-1.92293e-10
-1.88159e-10
-1.53007e-10
-1.49706e-10
-1.21662e-10
-1.1903e-10
-9.66822e-11
-9.45858e-11
-7.67995e-11
-7.51326e-11
-6.09999e-11
-5.96849e-11
-4.85111e-11
-4.76348e-11
-3.99063e-11
-6.46417e-11
-3.18005e-11
-2.48324e-11
-2.40966e-11
-1.97309e-11
-1.93179e-11
-1.5948e-11
-1.56349e-11
-1.30223e-11
-1.27806e-11
-1.07675e-11
-1.05817e-11
-9.04106e-12
-8.89868e-12
-7.71933e-12
-7.60361e-12
-6.57813e-12
-6.46571e-12
-5.34244e-12
-5.22172e-12
-4.02226e-12
-3.90739e-12
-2.91742e-12
-2.78504e-12
-1.22564e-12
-1.09316e-12
-6.66466e-14
-1.18803e-14
-2.67738e-15
-1.93382e-13
5.53223e-05
-4.92851e-05
-3.90239e-06
-1.66412e-06
-2.64093e-07
-1.29243e-07
-2.38189e-08
-1.32313e-08
-5.01626e-09
-6.50042e-09
-2.99964e-09
-2.40641e-09
-2.33531e-09
-1.99356e-09
-1.95863e-09
-1.65737e-09
-1.62778e-09
-1.36299e-09
-1.33736e-09
-1.11073e-09
-1.089e-09
-8.99069e-10
-8.80973e-10
-7.24174e-10
-7.09303e-10
-5.81231e-10
-5.69123e-10
-4.653e-10
-4.55506e-10
-3.71785e-10
-3.639e-10
-2.96639e-10
-2.90311e-10
-2.36417e-10
-2.31351e-10
-1.88249e-10
-1.842e-10
-1.49778e-10
-1.46546e-10
-1.19088e-10
-1.16511e-10
-9.46333e-11
-9.25811e-11
-7.51706e-11
-7.35389e-11
-5.97059e-11
-5.84188e-11
-4.74826e-11
-4.66249e-11
-3.90613e-11
-6.3274e-11
-3.11283e-11
-2.43086e-11
-2.35885e-11
-1.93161e-11
-1.89119e-11
-1.5614e-11
-1.53076e-11
-1.27512e-11
-1.25146e-11
-1.05451e-11
-1.03634e-11
-8.8567e-12
-8.7175e-12
-7.56506e-12
-7.45204e-12
-6.45115e-12
-6.34133e-12
-5.24337e-12
-5.12522e-12
-3.94991e-12
-3.83737e-12
-2.86774e-12
-2.7378e-12
-1.20504e-12
-1.07481e-12
-6.55271e-14
-1.16811e-14
-2.63247e-15
-1.90053e-13
5.4132e-05
-4.34887e-05
-7.4134e-06
-2.39084e-06
-5.43758e-07
-1.88641e-07
-4.60779e-08
-1.80143e-08
-6.93813e-09
-6.40482e-09
-3.30927e-09
-2.51419e-09
-2.3326e-09
-2.02197e-09
-1.94013e-09
-1.67928e-09
-1.61078e-09
-1.38223e-09
-1.32294e-09
-1.1273e-09
-1.07703e-09
-9.13029e-10
-8.71164e-10
-7.35741e-10
-7.01334e-10
-5.90703e-10
-5.62687e-10
-4.72992e-10
-4.5033e-10
-3.77996e-10
-3.59749e-10
-3.01633e-10
-2.8699e-10
-2.40422e-10
-2.28698e-10
-1.91453e-10
-1.82082e-10
-1.52338e-10
-1.44858e-10
-1.21131e-10
-1.15167e-10
-9.62614e-11
-9.15121e-11
-7.64671e-11
-7.26913e-11
-6.07417e-11
-5.77681e-11
-4.83934e-11
-4.64918e-11
-4.14302e-11
-5.82385e-11
-3.30164e-11
-2.52252e-11
-2.3451e-11
-1.96607e-11
-1.87185e-11
-1.58628e-11
-1.51533e-11
-1.29434e-11
-1.2396e-11
-1.06935e-11
-1.02729e-11
-8.97019e-12
-8.64783e-12
-7.64911e-12
-7.38715e-12
-6.51855e-12
-6.26427e-12
-5.31696e-12
-5.04399e-12
-4.03416e-12
-3.77333e-12
-2.92351e-12
-2.62338e-12
-1.32011e-12
-1.02068e-12
-1.58362e-13
-3.32504e-14
-7.62104e-15
-1.91725e-13
5.31579e-05
-3.93516e-05
-9.68226e-06
-2.99051e-06
-7.63725e-07
-2.39527e-07
-6.37527e-08
-2.21161e-08
-8.43769e-09
-6.41149e-09
-3.52679e-09
-2.59738e-09
-2.33503e-09
-2.04122e-09
-1.92877e-09
-1.69348e-09
-1.60017e-09
-1.39468e-09
-1.31396e-09
-1.13805e-09
-1.06961e-09
-9.22096e-10
-8.65091e-10
-7.43261e-10
-6.96408e-10
-5.96866e-10
-5.58714e-10
-4.78e-10
-4.47138e-10
-3.8204e-10
-3.57191e-10
-3.04886e-10
-2.84944e-10
-2.4303e-10
-2.27063e-10
-1.93541e-10
-1.80779e-10
-1.54006e-10
-1.43818e-10
-1.22462e-10
-1.1434e-10
-9.73225e-11
-9.08543e-11
-7.73122e-11
-7.21702e-11
-6.1418e-11
-5.73731e-11
-4.90048e-11
-4.64847e-11
-4.2924e-11
-5.48838e-11
-3.42071e-11
-2.59009e-11
-2.3394e-11
-1.98912e-11
-1.86016e-11
-1.60255e-11
-1.50589e-11
-1.30691e-11
-1.23234e-11
-1.07905e-11
-1.02177e-11
-9.04439e-12
-8.60515e-12
-7.70363e-12
-7.34647e-12
-6.56132e-12
-6.21489e-12
-5.36353e-12
-4.99221e-12
-4.08841e-12
-3.73282e-12
-2.95727e-12
-2.54907e-12
-1.39501e-12
-9.89065e-13
-2.21703e-13
-5.08374e-14
-1.1832e-14
-1.93146e-13
5.24742e-05
-3.66918e-05
-1.10319e-05
-3.41154e-06
-9.1556e-07
-2.76462e-07
-7.60557e-08
-2.50972e-08
-9.47025e-09
-6.45216e-09
-3.66597e-09
-2.65384e-09
-2.33868e-09
-2.05319e-09
-1.9223e-09
-1.70198e-09
-1.59403e-09
-1.40213e-09
-1.30878e-09
-1.14449e-09
-1.06533e-09
-9.27531e-10
-8.61601e-10
-7.47773e-10
-6.93581e-10
-6.00566e-10
-5.56437e-10
-4.81007e-10
-4.45309e-10
-3.8447e-10
-3.55727e-10
-3.06841e-10
-2.83773e-10
-2.44598e-10
-2.26129e-10
-1.94795e-10
-1.80033e-10
-1.55008e-10
-1.43224e-10
-1.23262e-10
-1.13867e-10
-9.79604e-11
-9.04783e-11
-7.78204e-11
-7.18726e-11
-6.18252e-11
-5.71504e-11
-4.93817e-11
-4.65186e-11
-4.37964e-11
-5.28342e-11
-3.49025e-11
-2.63443e-11
-2.33765e-11
-2.0033e-11
-1.85359e-11
-1.61238e-11
-1.50053e-11
-1.31448e-11
-1.22822e-11
-1.0849e-11
-1.01863e-11
-9.08913e-12
-8.58086e-12
-7.73628e-12
-7.32282e-12
-6.58647e-12
-6.18563e-12
-5.39084e-12
-4.96166e-12
-4.12069e-12
-3.70906e-12
-2.97629e-12
-2.50457e-12
-1.43997e-12
-9.7189e-13
-2.61176e-13
-6.31455e-14
-1.4867e-14
-1.94178e-13
5.21228e-05
-3.53909e-05
-1.166e-05
-3.62752e-06
-9.93084e-07
-2.95831e-07
-8.2373e-08
-2.66619e-08
-9.99732e-09
-6.48315e-09
-3.73402e-09
-2.68233e-09
-2.34109e-09
-2.05893e-09
-1.91938e-09
-1.70596e-09
-1.59122e-09
-1.40561e-09
-1.30641e-09
-1.1475e-09
-1.06338e-09
-9.30077e-10
-8.60014e-10
-7.49888e-10
-6.92297e-10
-6.023e-10
-5.55403e-10
-4.82418e-10
-4.4448e-10
-3.8561e-10
-3.55063e-10
-3.07758e-10
-2.83243e-10
-2.45334e-10
-2.25705e-10
-1.95384e-10
-1.79695e-10
-1.55479e-10
-1.42955e-10
-1.23637e-10
-1.13652e-10
-9.82598e-11
-9.0308e-11
-7.80589e-11
-7.17378e-11
-6.20165e-11
-5.70505e-11
-4.95616e-11
-4.65461e-11
-4.41977e-11
-5.18627e-11
-3.52223e-11
-2.65636e-11
-2.33736e-11
-2.01005e-11
-1.85066e-11
-1.617e-11
-1.4981e-11
-1.31804e-11
-1.22636e-11
-1.08765e-11
-1.01722e-11
-9.11016e-12
-8.56988e-12
-7.75157e-12
-7.31198e-12
-6.5981e-12
-6.17203e-12
-5.40344e-12
-4.94751e-12
-4.13573e-12
-3.6981e-12
-2.98483e-12
-2.48374e-12
-1.46104e-12
-9.64404e-13
-2.80131e-13
-6.94578e-14
-1.64533e-14
-1.94719e-13
5.21228e-05
-3.53909e-05
-1.166e-05
-3.62752e-06
-9.93081e-07
-2.95829e-07
-8.23722e-08
-2.66616e-08
-9.99717e-09
-6.4831e-09
-3.734e-09
-2.68233e-09
-2.34109e-09
-2.05893e-09
-1.91938e-09
-1.70596e-09
-1.59122e-09
-1.40561e-09
-1.30641e-09
-1.1475e-09
-1.06338e-09
-9.30077e-10
-8.60014e-10
-7.49888e-10
-6.92297e-10
-6.02301e-10
-5.55403e-10
-4.82418e-10
-4.4448e-10
-3.8561e-10
-3.55063e-10
-3.07758e-10
-2.83243e-10
-2.45334e-10
-2.25705e-10
-1.95384e-10
-1.79695e-10
-1.55479e-10
-1.42955e-10
-1.23638e-10
-1.13652e-10
-9.82598e-11
-9.0308e-11
-7.80589e-11
-7.17378e-11
-6.20165e-11
-5.70505e-11
-4.95616e-11
-4.65461e-11
-4.41977e-11
-5.18627e-11
-3.52223e-11
-2.65636e-11
-2.33736e-11
-2.01005e-11
-1.85066e-11
-1.617e-11
-1.49811e-11
-1.31804e-11
-1.22636e-11
-1.08765e-11
-1.01722e-11
-9.11016e-12
-8.56989e-12
-7.75157e-12
-7.31198e-12
-6.5981e-12
-6.17203e-12
-5.40344e-12
-4.94751e-12
-4.13573e-12
-3.6981e-12
-2.98483e-12
-2.48374e-12
-1.46104e-12
-9.64403e-13
-2.8013e-13
-6.94573e-14
-1.64531e-14
-1.94719e-13
5.24742e-05
-3.66918e-05
-1.1032e-05
-3.41153e-06
-9.15553e-07
-2.76457e-07
-7.60533e-08
-2.50962e-08
-9.46984e-09
-6.45202e-09
-3.66592e-09
-2.65382e-09
-2.33867e-09
-2.05319e-09
-1.9223e-09
-1.70198e-09
-1.59403e-09
-1.40213e-09
-1.30878e-09
-1.14449e-09
-1.06533e-09
-9.27532e-10
-8.61602e-10
-7.47774e-10
-6.93582e-10
-6.00566e-10
-5.56437e-10
-4.81007e-10
-4.4531e-10
-3.8447e-10
-3.55727e-10
-3.06841e-10
-2.83773e-10
-2.44598e-10
-2.26129e-10
-1.94796e-10
-1.80033e-10
-1.55008e-10
-1.43224e-10
-1.23262e-10
-1.13867e-10
-9.79605e-11
-9.04784e-11
-7.78204e-11
-7.18726e-11
-6.18252e-11
-5.71504e-11
-4.93817e-11
-4.65186e-11
-4.37964e-11
-5.28342e-11
-3.49025e-11
-2.63443e-11
-2.33765e-11
-2.0033e-11
-1.85359e-11
-1.61238e-11
-1.50053e-11
-1.31448e-11
-1.22822e-11
-1.0849e-11
-1.01863e-11
-9.08913e-12
-8.58086e-12
-7.73629e-12
-7.32282e-12
-6.58648e-12
-6.18563e-12
-5.39084e-12
-4.96166e-12
-4.12069e-12
-3.70906e-12
-2.97629e-12
-2.50457e-12
-1.43997e-12
-9.71888e-13
-2.61174e-13
-6.31442e-14
-1.48667e-14
-1.94177e-13
5.3158e-05
-3.93517e-05
-9.68226e-06
-2.9905e-06
-7.63716e-07
-2.39521e-07
-6.37496e-08
-2.21148e-08
-8.43717e-09
-6.4113e-09
-3.52673e-09
-2.59736e-09
-2.33502e-09
-2.04122e-09
-1.92877e-09
-1.69348e-09
-1.60017e-09
-1.39468e-09
-1.31396e-09
-1.13805e-09
-1.06961e-09
-9.22096e-10
-8.65092e-10
-7.43262e-10
-6.96408e-10
-5.96866e-10
-5.58714e-10
-4.78e-10
-4.47138e-10
-3.8204e-10
-3.57191e-10
-3.04887e-10
-2.84944e-10
-2.43031e-10
-2.27064e-10
-1.93541e-10
-1.80779e-10
-1.54006e-10
-1.43819e-10
-1.22462e-10
-1.1434e-10
-9.73226e-11
-9.08544e-11
-7.73123e-11
-7.21702e-11
-6.1418e-11
-5.73732e-11
-4.90049e-11
-4.64847e-11
-4.2924e-11
-5.48839e-11
-3.42071e-11
-2.59009e-11
-2.3394e-11
-1.98912e-11
-1.86016e-11
-1.60256e-11
-1.50589e-11
-1.30691e-11
-1.23234e-11
-1.07905e-11
-1.02177e-11
-9.0444e-12
-8.60516e-12
-7.70364e-12
-7.34648e-12
-6.56133e-12
-6.21489e-12
-5.36354e-12
-4.99221e-12
-4.08841e-12
-3.73282e-12
-2.95726e-12
-2.54907e-12
-1.39501e-12
-9.89062e-13
-2.21701e-13
-5.08358e-14
-1.18316e-14
-1.93145e-13
5.4132e-05
-4.34887e-05
-7.4134e-06
-2.39084e-06
-5.4375e-07
-1.88635e-07
-4.60752e-08
-1.80131e-08
-6.93768e-09
-6.40466e-09
-3.30921e-09
-2.51417e-09
-2.3326e-09
-2.02197e-09
-1.94013e-09
-1.67928e-09
-1.61078e-09
-1.38223e-09
-1.32294e-09
-1.12731e-09
-1.07703e-09
-9.13029e-10
-8.71165e-10