/*--------------------------------*- C++ -*----------------------------------*\
| =========                 |                                                 |
| \\      /  F ield         | OpenFOAM: The Open Source CFD Toolbox           |
|  \\    /   O peration     | Version:  5.x                                   |
|   \\  /    A nd           | Web:      www.OpenFOAM.org                      |
|    \\/     M anipulation  |                                                 |
\*---------------------------------------------------------------------------*/
FoamFile
{
    version     2.0;
    format      ascii;
    class       volScalarField;
    location    "3.3";
    object      gradTy;
}
// * * * * * * * * * * * * * * * * * * * * * * * * * * * * * * * * * * * * * //

dimensions      [0 -1 0 1 0 0 0];

internalField   nonuniform List<scalar> 
3200
(
-7.44054e-09
3.9564e-09
-6.96238e-09
6.71647e-09
-4.96533e-09
5.86342e-09
-3.07831e-09
3.9252e-09
-2.40298e-09
1.02958e-09
2.3604e-09
-9.61068e-10
1.36877e-09
-7.88961e-10
9.83672e-10
-5.95394e-10
7.29471e-10
-4.48751e-10
5.46598e-10
-3.3904e-10
4.11762e-10
-2.56437e-10
3.11025e-10
-1.93938e-10
2.35157e-10
-1.46514e-10
1.77743e-10
-1.1048e-10
1.34178e-10
-8.30962e-11
1.01085e-10
-6.22989e-11
7.59469e-11
-4.65243e-11
5.68655e-11
-3.45814e-11
4.24025e-11
-2.55606e-11
3.14616e-11
-1.87663e-11
2.32055e-11
-1.36667e-11
1.69943e-11
-9.8553e-12
1.23383e-11
-7.02325e-12
8.85849e-12
-4.95717e-12
6.1719e-12
-3.90719e-12
1.73981e-12
3.7878e-12
-1.32893e-12
2.05715e-12
-9.51917e-13
1.31626e-12
-5.93339e-13
8.31517e-13
-3.54286e-13
5.09421e-13
-2.04398e-13
3.0212e-13
-1.14263e-13
1.73632e-13
-6.20133e-14
9.687e-14
-3.26459e-14
5.25061e-14
-1.65303e-14
2.75779e-14
-7.80912e-15
1.39826e-14
-2.57947e-15
6.04705e-15
8.77629e-17
1.47957e-15
3.04551e-16
7.06302e-17
1.68151e-17
4.77223e-18
-5.39312e-09
2.34324e-09
-4.61745e-09
4.39948e-09
-3.13435e-09
3.92082e-09
-1.88088e-09
2.62177e-09
-1.54491e-09
7.35127e-10
1.67512e-09
-5.60935e-10
9.21497e-10
-4.8623e-10
6.5737e-10
-3.69135e-10
4.86863e-10
-2.78717e-10
3.64624e-10
-2.10761e-10
2.74608e-10
-1.5948e-10
2.07405e-10
-1.20626e-10
1.56814e-10
-9.11205e-11
1.18537e-10
-6.86927e-11
8.9497e-11
-5.16457e-11
6.7438e-11
-3.86993e-11
5.06802e-11
-2.88812e-11
3.7959e-11
-2.14499e-11
2.83153e-11
-1.5839e-11
2.10187e-11
-1.16149e-11
1.55114e-11
-8.44631e-12
1.1367e-11
-6.07987e-12
8.25918e-12
-4.32347e-12
5.93397e-12
-3.05064e-12
4.11394e-12
-2.51699e-12
1.24005e-12
2.69717e-12
-7.52842e-13
1.39618e-12
-5.69528e-13
8.89543e-13
-3.53825e-13
5.62843e-13
-2.09417e-13
3.45551e-13
-1.19607e-13
2.05362e-13
-6.61558e-14
1.18257e-13
-3.55102e-14
6.61011e-14
-1.84701e-14
3.59006e-14
-9.20966e-15
1.89062e-14
-4.23016e-15
9.64842e-15
-1.19606e-15
4.23869e-15
3.01831e-16
1.0739e-15
2.66884e-16
6.34268e-17
1.51557e-17
4.30522e-18
-3.65625e-09
1.31657e-09
-2.91293e-09
2.74335e-09
-1.88794e-09
2.49162e-09
-1.09637e-09
1.66449e-09
-9.45243e-10
4.93836e-10
1.11652e-09
-3.09844e-10
5.89579e-10
-2.85769e-10
4.17687e-10
-2.18336e-10
3.08979e-10
-1.6516e-10
2.31296e-10
-1.25003e-10
1.74155e-10
-9.46288e-11
1.31522e-10
-7.15837e-11
9.94409e-11
-5.40692e-11
7.51739e-11
-4.07503e-11
5.67647e-11
-3.06252e-11
4.27813e-11
-2.29358e-11
3.21579e-11
-1.71054e-11
2.40926e-11
-1.26937e-11
1.79778e-11
-9.36388e-12
1.33504e-11
-6.85831e-12
9.85709e-12
-4.97988e-12
7.22758e-12
-3.57803e-12
5.25509e-12
-2.53879e-12
3.7779e-12
-1.79108e-12
2.60697e-12
-1.54297e-12
8.31766e-13
1.80242e-12
-4.01027e-13
8.9955e-13
-3.24313e-13
5.70783e-13
-2.00822e-13
3.61643e-13
-1.17701e-13
2.22436e-13
-6.64576e-14
1.32435e-13
-3.63064e-14
7.63934e-14
-1.92333e-14
4.27715e-14
-9.85765e-15
2.32703e-14
-4.82084e-15
1.22826e-14
-2.13303e-15
6.30236e-15
-4.64287e-16
2.80493e-15
3.27405e-16
7.31341e-16
2.05057e-16
5.00187e-17
1.20113e-17
3.41698e-18
-2.11931e-09
6.56796e-10
-1.60493e-09
1.49775e-09
-1.00282e-09
1.3804e-09
-5.6644e-10
9.21508e-10
-5.07965e-10
2.84839e-10
6.39575e-10
-1.52035e-10
3.2844e-10
-1.4864e-10
2.31427e-10
-1.14205e-10
1.71037e-10
-8.65271e-11
1.2799e-10
-6.55393e-11
9.63531e-11
-4.96321e-11
7.2761e-11
-3.75492e-11
5.50129e-11
-2.83598e-11
4.15901e-11
-2.13692e-11
3.14083e-11
-1.60542e-11
2.36744e-11
-1.20178e-11
1.77986e-11
-8.95774e-12
1.33375e-11
-6.64277e-12
9.95487e-12
-4.89606e-12
7.39477e-12
-3.58225e-12
5.46179e-12
-2.59778e-12
4.00651e-12
-1.86355e-12
2.91458e-12
-1.31978e-12
2.09622e-12
-9.31048e-13
1.44124e-12
-8.3048e-13
4.79219e-13
1.0343e-12
-1.89626e-13
5.03708e-13
-1.64008e-13
3.18575e-13
-1.01271e-13
2.02046e-13
-5.8817e-14
1.24443e-13
-3.285e-14
7.41917e-14
-1.77315e-14
4.28509e-14
-9.27056e-15
2.40208e-14
-4.68013e-15
1.30855e-14
-2.24204e-15
6.91836e-15
-9.50935e-16
3.56376e-15
-1.34323e-16
1.60083e-15
2.37616e-16
4.25944e-16
1.28369e-16
3.19334e-17
7.70125e-18
2.19465e-18
-6.94153e-10
1.9775e-10
-5.12224e-10
4.75648e-10
-3.13606e-10
4.41899e-10
-1.74296e-10
2.94887e-10
-1.59856e-10
9.31315e-11
2.08295e-10
-4.52702e-11
1.05468e-10
-4.59138e-11
7.40951e-11
-3.53956e-11
5.47328e-11
-2.68423e-11
4.09496e-11
-2.03406e-11
3.08246e-11
-1.5407e-11
2.32763e-11
-1.1657e-11
1.75986e-11
-8.8038e-12
1.3305e-11
-6.63286e-12
1.00483e-11
-4.98214e-12
7.57455e-12
-3.72855e-12
5.69513e-12
-2.77823e-12
4.26815e-12
-2.05941e-12
3.18609e-12
-1.51714e-12
2.3671e-12
-1.10936e-12
1.74867e-12
-8.03888e-13
1.28304e-12
-5.76143e-13
9.33611e-13
-4.07577e-13
6.71625e-13
-2.87535e-13
4.60838e-13
-2.61596e-13
1.56585e-13
3.3714e-13
-5.50755e-14
1.62185e-13
-4.98086e-14
1.02391e-13
-3.07042e-14
6.4972e-14
-1.77313e-14
4.00463e-14
-9.83471e-15
2.38924e-14
-5.26719e-15
1.38088e-14
-2.72999e-15
7.74576e-15
-1.36414e-15
4.22239e-15
-6.44143e-16
2.23436e-15
-2.64804e-16
1.15329e-15
-2.19119e-17
5.2055e-16
8.5705e-17
1.39959e-16
4.36297e-17
1.09636e-17
2.64959e-18
7.57774e-19
6.94981e-10
-1.97504e-10
5.12326e-10
-4.75587e-10
3.13634e-10
-4.41887e-10
1.743e-10
-2.94889e-10
1.5985e-10
-9.31387e-11
-2.083e-10
4.52691e-11
-1.05466e-10
4.59178e-11
-7.40905e-11
3.54001e-11
-5.47287e-11
2.68459e-11
-4.09464e-11
2.03434e-11
-3.08223e-11
1.54091e-11
-2.32745e-11
1.16584e-11
-1.75974e-11
8.80484e-12
-1.33042e-11
6.63358e-12
-1.00477e-11
4.98262e-12
-7.57415e-12
3.72886e-12
-5.69488e-12
2.77843e-12
-4.268e-12
2.05952e-12
-3.18601e-12
1.5172e-12
-2.36706e-12
1.10938e-12
-1.74867e-12
8.03882e-13
-1.28305e-12
5.76125e-13
-9.33634e-13
4.07551e-13
-6.71653e-13
2.87503e-13
-4.60874e-13
2.61554e-13
-1.56628e-13
-3.37177e-13
5.50464e-14
-1.62206e-13
4.97927e-14
-1.02404e-13
3.06944e-14
-6.498e-14
1.77248e-14
-4.00516e-14
9.83041e-15
-2.38958e-14
5.26447e-15
-1.3811e-14
2.72832e-15
-7.74705e-15
1.36315e-15
-4.22316e-15
6.4356e-16
-2.2348e-15
2.64473e-16
-1.15354e-15
2.17379e-17
-5.20669e-16
-8.57811e-17
-1.40005e-16
-4.36552e-17
-1.09774e-17
-2.65574e-18
-7.5345e-19
2.11989e-09
-6.56613e-10
1.60502e-09
-1.4977e-09
1.00285e-09
-1.38038e-09
5.66451e-10
-9.21502e-10
5.07967e-10
-2.84838e-10
-6.39574e-10
1.52038e-10
-3.28436e-10
1.48646e-10
-2.31422e-10
1.1421e-10
-1.71033e-10
8.6531e-11
-1.27986e-10
6.55422e-11
-9.63505e-11
4.96343e-11
-7.27591e-11
3.75508e-11
-5.50115e-11
2.8361e-11
-4.15891e-11
2.13701e-11
-3.14076e-11
1.60548e-11
-2.36739e-11
1.20183e-11
-1.77983e-11
8.95801e-12
-1.33373e-11
6.64294e-12
-9.95473e-12
4.89617e-12
-7.39469e-12
3.58232e-12
-5.46174e-12
2.59782e-12
-4.00649e-12
1.86356e-12
-2.91457e-12
1.31978e-12
-2.09623e-12
9.31038e-13
-1.44126e-12
8.30459e-13
-4.79242e-13
-1.03432e-12
1.8961e-13
-5.0372e-13
1.63999e-13
-3.18582e-13
1.01266e-13
-2.0205e-13
5.88132e-14
-1.24446e-13
3.28475e-14
-7.41937e-14
1.77298e-14
-4.28522e-14
9.26954e-15
-2.40216e-14
4.67951e-15
-1.3086e-14
2.24167e-15
-6.91865e-15
9.50721e-16
-3.56392e-15
1.34209e-16
-1.60091e-15
-2.37666e-16
-4.25975e-16
-1.28386e-16
-3.19428e-17
-7.70564e-18
-2.19168e-18
3.65637e-09
-1.31652e-09
2.91297e-09
-2.74332e-09
1.88796e-09
-2.4916e-09
1.09639e-09
-1.66448e-09
9.45254e-10
-4.93828e-10
-1.11651e-09
3.0985e-10
-5.89574e-10
2.85774e-10
-4.17682e-10
2.1834e-10
-3.08975e-10
1.65163e-10
-2.31293e-10
1.25006e-10
-1.74153e-10
9.46305e-11
-1.31521e-10
7.1585e-11
-9.94399e-11
5.40701e-11
-7.51731e-11
4.0751e-11
-5.67642e-11
3.06257e-11
-4.27809e-11
2.29362e-11
-3.21575e-11
1.71057e-11
-2.40924e-11
1.26939e-11
-1.79776e-11
9.36402e-12
-1.33503e-11
6.8584e-12
-9.85701e-12
4.97994e-12
-7.22752e-12
3.57808e-12
-5.25505e-12
2.53882e-12
-3.77787e-12
1.7911e-12
-2.60696e-12
1.54298e-12
-8.31761e-13
-1.80241e-12
4.0103e-13
-8.99548e-13
3.24315e-13
-5.70782e-13
2.00823e-13
-3.61642e-13
1.17701e-13
-2.22436e-13
6.64579e-14
-1.32435e-13
3.63065e-14
-7.63933e-14
1.92333e-14
-4.27715e-14
9.85765e-15
-2.32703e-14
4.82083e-15
-1.22826e-14
2.13302e-15
-6.30237e-15
4.64276e-16
-2.80494e-15
-3.27411e-16
-7.31345e-16
-2.0506e-16
-5.00203e-17
-1.20123e-17
-3.41648e-18
5.39263e-09
-2.34338e-09
4.6174e-09
-4.3995e-09
3.13434e-09
-3.92082e-09
1.88089e-09
-2.62177e-09
1.54492e-09
-7.35118e-10
-1.67511e-09
5.60939e-10
-9.21496e-10
4.8623e-10
-6.57371e-10
3.69134e-10
-4.86864e-10
2.78716e-10
-3.64625e-10
2.10761e-10
-2.74609e-10
1.59479e-10
-2.07405e-10
1.20626e-10
-1.56814e-10
9.11203e-11
-1.18537e-10
6.86925e-11
-8.94971e-11
5.16456e-11
-6.74381e-11
3.86992e-11
-5.06802e-11
2.88812e-11
-3.7959e-11
2.14499e-11
-2.83153e-11
1.5839e-11
-2.10187e-11
1.1615e-11
-1.55114e-11
8.44634e-12
-1.1367e-11
6.0799e-12
-8.25914e-12
4.3235e-12
-5.93394e-12
3.05066e-12
-4.11391e-12
2.51702e-12
-1.24002e-12
-2.69714e-12
7.52862e-13
-1.39616e-12
5.69539e-13
-8.89534e-13
3.53832e-13
-5.62838e-13
2.09421e-13
-3.45547e-13
1.1961e-13
-2.0536e-13
6.61577e-14
-1.18255e-13
3.55113e-14
-6.61002e-14
1.84707e-14
-3.59001e-14
9.21004e-15
-1.89059e-14
4.23037e-15
-9.64827e-15
1.19617e-15
-4.23862e-15
-3.01784e-16
-1.07387e-15
-2.66869e-16
-6.34185e-17
-1.51521e-17
-4.30785e-18
7.43949e-09
-3.95674e-09
6.9622e-09
-6.71659e-09
4.96526e-09
-5.86347e-09
3.07828e-09
-3.92523e-09
2.40296e-09
-1.02959e-09
-2.36041e-09
9.61056e-10
-1.36878e-09
7.88947e-10
-9.83686e-10
5.95382e-10
-7.29482e-10
4.48742e-10
-5.46607e-10
3.39033e-10
-4.11768e-10
2.56432e-10
-3.1103e-10
1.93934e-10
-2.3516e-10
1.46511e-10
-1.77745e-10
1.10478e-10
-1.3418e-10
8.30948e-11
-1.01087e-10
6.22979e-11
-7.59478e-11
4.65236e-11
-5.68661e-11
3.4581e-11
-4.24029e-11
2.55603e-11
-3.14618e-11
1.87661e-11
-2.32057e-11
1.36665e-11
-1.69944e-11
9.85523e-12
-1.23384e-11
7.02322e-12
-8.85851e-12
4.95717e-12
-6.17189e-12
3.90721e-12
-1.73978e-12
-3.78777e-12
1.32895e-12
-2.05714e-12
9.51928e-13
-1.31625e-12
5.93346e-13
-8.31511e-13
3.54291e-13
-5.09417e-13
2.04402e-13
-3.02117e-13
1.14265e-13
-1.7363e-13
6.20148e-14
-9.68688e-14
3.26468e-14
-5.25054e-14
1.65309e-14
-2.75774e-14
7.80947e-15
-1.39824e-14
2.57966e-15
-6.04692e-15
-8.76773e-17
-1.47952e-15
-3.04521e-16
-7.06135e-17
-1.68072e-17
-4.77741e-18
-5.941e-05
4.70352e-05
8.08198e-06
3.31243e-06
6.48993e-07
2.64708e-07
4.94329e-08
2.33479e-08
1.15795e-09
2.16683e-09
3.2144e-09
-1.54642e-09
2.01975e-09
-1.46198e-09
1.66871e-09
-1.21918e-09
1.39036e-09
-9.9809e-10
1.14572e-09
-8.10186e-10
9.35113e-10
-6.53895e-10
7.57797e-10
-5.25598e-10
6.10925e-10
-4.21227e-10
4.90671e-10
-3.36856e-10
3.93013e-10
-2.68953e-10
3.14161e-10
-2.14473e-10
2.5075e-10
-1.70859e-10
1.99903e-10
-1.35999e-10
1.59214e-10
-1.08172e-10
1.26704e-10
-8.5983e-11
1.00759e-10
-6.83096e-11
8.00772e-11
-5.42517e-11
6.36077e-11
-4.30996e-11
5.04611e-11
-3.44808e-11
3.90956e-11
-3.17496e-11
8.40068e-12
3.1209e-11
-1.60638e-11
2.0597e-11
-1.3933e-11
1.62849e-11
-1.13663e-11
1.31313e-11
-9.32961e-12
1.06925e-11
-7.76226e-12
8.81022e-12
-6.56617e-12
7.37021e-12
-5.64556e-12
6.29758e-12
-4.79857e-12
5.42403e-12
-3.80852e-12
4.46991e-12
-2.76448e-12
3.39308e-12
-1.9358e-12
2.65101e-12
-4.87141e-13
1.19469e-12
2.41998e-13
5.60997e-14
1.34979e-14
3.95525e-15
-4.24211e-05
3.16036e-05
7.22737e-06
2.715e-06
5.97305e-07
2.18359e-07
4.61886e-08
1.885e-08
1.79428e-09
1.73245e-09
2.31083e-09
-9.25434e-10
1.34633e-09
-9.22344e-10
1.10433e-09
-7.70158e-10
9.20566e-10
-6.29511e-10
7.59194e-10
-5.10291e-10
6.20026e-10
-4.11422e-10
5.02685e-10
-3.30445e-10
4.05391e-10
-2.64678e-10
3.25672e-10
-2.11576e-10
2.60899e-10
-1.68875e-10
2.08581e-10
-1.34636e-10
1.66498e-10
-1.07237e-10
1.32747e-10
-8.53448e-11
1.05734e-10
-6.78732e-11
8.41491e-11
-5.39443e-11
6.69217e-11
-4.28521e-11
5.31875e-11
-3.40312e-11
4.22484e-11
-2.70389e-11
3.35027e-11
-2.1697e-11
2.57265e-11
-2.09795e-11
5.9952e-12
2.1878e-11
-9.7313e-12
1.37436e-11
-8.73721e-12
1.08052e-11
-7.15206e-12
8.70253e-12
-5.88115e-12
7.0783e-12
-4.90359e-12
5.82415e-12
-4.1584e-12
4.86475e-12
-3.58322e-12
4.15601e-12
-3.04214e-12
3.59132e-12
-2.39572e-12
2.97603e-12
-1.71753e-12
2.26921e-12
-1.18395e-12
1.81116e-12
-2.24608e-13
8.44592e-13
2.11297e-13
5.03518e-14
1.21662e-14
3.56714e-15
-2.83935e-05
2.01077e-05
5.57794e-06
2.02165e-06
4.76e-07
1.63709e-07
3.71394e-08
1.39362e-08
1.74878e-09
1.27132e-09
1.55905e-09
-5.25415e-10
8.53979e-10
-5.5502e-10
6.95567e-10
-4.64142e-10
5.80043e-10
-3.78805e-10
4.7871e-10
-3.06647e-10
3.91178e-10
-2.46979e-10
3.17277e-10
-1.98217e-10
2.55944e-10
-1.58678e-10
2.05658e-10
-1.26791e-10
1.64781e-10
-1.01171e-10
1.31753e-10
-8.06396e-11
1.0518e-10
-6.42174e-11
8.3865e-11
-5.10998e-11
6.68038e-11
-4.06334e-11
5.3169e-11
-3.22909e-11
4.2286e-11
-2.56487e-11
3.36089e-11
-2.03678e-11
2.66966e-11
-1.6185e-11
2.11618e-11
-1.30288e-11
1.6113e-11
-1.31652e-11
4.02601e-12
1.44402e-11
-5.60784e-12
8.72353e-12
-5.22677e-12
6.82163e-12
-4.29374e-12
5.48818e-12
-3.53716e-12
4.45935e-12
-2.95547e-12
3.66461e-12
-2.51252e-12
3.05669e-12
-2.1696e-12
2.61087e-12
-1.83987e-12
2.26268e-12
-1.43788e-12
1.88428e-12
-1.01816e-12
1.44266e-12
-6.9022e-13
1.17242e-12
-8.63566e-14
5.62547e-13
1.61675e-13
3.96791e-14
9.64233e-15
2.82958e-15
-1.63064e-05
1.11327e-05
3.48937e-06
1.24776e-06
3.0531e-07
1.01609e-07
2.39468e-08
8.57818e-09
1.23326e-09
7.78653e-10
9.01498e-10
-2.64489e-10
4.72693e-10
-2.94497e-10
3.82838e-10
-2.46618e-10
3.1934e-10
-2.01025e-10
2.63697e-10
-1.62549e-10
2.15572e-10
-1.30808e-10
1.74902e-10
-1.04916e-10
1.41124e-10
-8.3949e-11
1.13415e-10
-6.70561e-11
9.08834e-11
-5.34927e-11
7.26737e-11
-4.26289e-11
5.80205e-11
-3.39424e-11
4.62651e-11
-2.70056e-11
3.68549e-11
-2.14718e-11
2.93339e-11
-1.70618e-11
2.33305e-11
-1.35511e-11
1.85436e-11
-1.07605e-11
1.47297e-11
-8.55161e-12
1.16723e-11
-6.90311e-12
8.82817e-12
-7.21669e-12
2.32168e-12
8.21557e-12
-2.86432e-12
4.83051e-12
-2.75999e-12
3.7613e-12
-2.27425e-12
3.02351e-12
-1.87635e-12
2.45481e-12
-1.57054e-12
2.01536e-12
-1.33789e-12
1.67924e-12
-1.1573e-12
1.43409e-12
-9.80484e-13
1.24556e-12
-7.6145e-13
1.04112e-12
-5.33625e-13
7.99637e-13
-3.5647e-13
6.58437e-13
-2.44774e-14
3.22457e-13
1.00877e-13
2.53168e-14
6.18259e-15
1.81545e-15
-5.31698e-06
3.56087e-06
1.18462e-06
4.21849e-07
1.05041e-07
3.44558e-08
8.25764e-09
2.89722e-09
4.41175e-10
2.62322e-10
2.95082e-10
-8.00363e-11
1.5128e-10
-9.20244e-11
1.22139e-10
-7.71276e-11
1.01894e-10
-6.28246e-11
8.41646e-11
-5.07674e-11
6.88205e-11
-4.0834e-11
5.5846e-11
-3.27394e-11
4.50662e-11
-2.61896e-11
3.6221e-11
-2.09155e-11
2.9027e-11
-1.66825e-11
2.32122e-11
-1.3293e-11
1.85326e-11
-1.05833e-11
1.47782e-11
-8.41977e-12
1.17727e-11
-6.69405e-12
9.37044e-12
-5.31888e-12
7.45285e-12
-4.22425e-12
5.92377e-12
-3.35425e-12
4.70543e-12
-2.66587e-12
3.72805e-12
-2.15552e-12
2.80921e-12
-2.29611e-12
7.59136e-13
2.66636e-12
-8.74844e-13
1.5462e-12
-8.60074e-13
1.20112e-12
-7.09983e-13
9.65071e-13
-5.86284e-13
7.83213e-13
-4.91234e-13
6.42659e-13
-4.18963e-13
5.35153e-13
-3.62781e-13
4.56975e-13
-3.07195e-13
3.9736e-13
-2.37718e-13
3.32801e-13
-1.65602e-13
2.56047e-13
-1.09659e-13
2.12298e-13
-3.83116e-15
1.05084e-13
3.42272e-14
8.69061e-15
2.12792e-15
6.2431e-16
5.31719e-06
-3.56091e-06
-1.18471e-06
-4.21918e-07
-1.05082e-07
-3.44753e-08
-8.26585e-09
-2.90029e-09
-4.42215e-10
-2.62634e-10
-2.95152e-10
8.00425e-11
-1.51252e-10
9.20561e-11
-1.22108e-10
7.71552e-11
-1.0187e-10
6.28465e-11
-8.41453e-11
5.07845e-11
-6.88054e-11
4.08474e-11
-5.58341e-11
3.27499e-11
-4.50568e-11
2.6198e-11
-3.62136e-11
2.0922e-11
-2.90212e-11
1.66877e-11
-2.32075e-11
1.32971e-11
-1.85289e-11
1.05866e-11
-1.47753e-11
8.42237e-12
-1.17703e-11
6.69611e-12
-9.36861e-12
5.32051e-12
-7.45139e-12
4.22556e-12
-5.92261e-12
3.35529e-12
-4.7045e-12
2.6667e-12
-3.72733e-12
2.15613e-12
-2.80872e-12
2.29648e-12
-7.58852e-13
-2.66611e-12
8.75095e-13
-1.54595e-12
8.60318e-13
-1.2009e-12
7.10185e-13
-9.64896e-13
5.86435e-13
-7.83086e-13
4.91338e-13
-6.42577e-13
4.19025e-13
-5.35111e-13
3.62804e-13
-4.56969e-13
3.07187e-13
-3.9738e-13
2.37688e-13
-3.32839e-13
1.65561e-13
-2.5609e-13
1.09618e-13
-2.12334e-13
3.80344e-15
-1.05103e-13
-3.42386e-14
-8.69617e-15
-2.13031e-15
-6.27409e-16
1.63065e-05
-1.11328e-05
-3.48943e-06
-1.24781e-06
-3.05337e-07
-1.01623e-07
-2.39523e-08
-8.58024e-09
-1.23395e-09
-7.78853e-10
-9.01536e-10
2.64501e-10
-4.72668e-10
2.94525e-10
-3.82812e-10
2.46641e-10
-3.19319e-10
2.01044e-10
-2.6368e-10
1.62564e-10
-2.15559e-10
1.3082e-10
-1.74891e-10
1.04925e-10
-1.41115e-10
8.39563e-11
-1.13409e-10
6.70619e-11
-9.08782e-11
5.34973e-11
-7.26696e-11
4.26325e-11
-5.80172e-11
3.39452e-11
-4.62625e-11
2.70079e-11
-3.68528e-11
2.14737e-11
-2.93323e-11
1.70632e-11
-2.33292e-11
1.35523e-11
-1.85426e-11
1.07614e-11
-1.47289e-11
8.55234e-12
-1.16716e-11
6.90366e-12
-8.82771e-12
7.21705e-12
-2.3214e-12
-8.21533e-12
2.86456e-12
-4.83028e-12
2.76021e-12
-3.7611e-12
2.27443e-12
-3.02336e-12
1.87649e-12
-2.4547e-12
1.57064e-12
-2.01529e-12
1.33795e-12
-1.67919e-12
1.15733e-12
-1.43407e-12
9.80489e-13
-1.24556e-12
7.61437e-13
-1.04114e-12
5.33601e-13
-7.99663e-13
3.56445e-13
-6.58459e-13
2.44593e-14
-3.22469e-13
-1.00885e-13
-2.53204e-14
-6.18412e-15
-1.81756e-15
2.83936e-05
-2.01077e-05
-5.57795e-06
-2.02165e-06
-4.76003e-07
-1.63711e-07
-3.71401e-08
-1.39364e-08
-1.74885e-09
-1.27133e-09
-1.55904e-09
5.25429e-10
-8.53964e-10
5.55034e-10
-6.95555e-10
4.64153e-10
-5.80033e-10
3.78814e-10
-4.78701e-10
3.06654e-10
-3.91171e-10
2.46985e-10
-3.17272e-10
1.98222e-10
-2.5594e-10
1.58682e-10
-2.05654e-10
1.26794e-10
-1.64778e-10
1.01173e-10
-1.31751e-10
8.06415e-11
-1.05178e-10
6.42189e-11
-8.38637e-11
5.1101e-11
-6.68028e-11
4.06344e-11
-5.31682e-11
3.22917e-11
-4.22853e-11
2.56493e-11
-3.36084e-11
2.03683e-11
-2.66962e-11
1.61853e-11
-2.11615e-11
1.30291e-11
-1.61127e-11
1.31654e-11
-4.02582e-12
-1.44401e-11
5.60799e-12
-8.7234e-12
5.22689e-12
-6.82152e-12
4.29384e-12
-5.4881e-12
3.53723e-12
-4.45929e-12
2.95552e-12
-3.66456e-12
2.51256e-12
-3.05665e-12
2.16963e-12
-2.61084e-12
1.83989e-12
-2.26267e-12
1.43789e-12
-1.88428e-12
1.01816e-12
-1.44266e-12
6.90219e-13
-1.17243e-12
8.6355e-14
-5.62549e-13
-1.61676e-13
-3.96794e-14
-9.6424e-15
-2.8299e-15
4.2421e-05
-3.16036e-05
-7.22731e-06
-2.71496e-06
-5.9728e-07
-2.18347e-07
-4.61835e-08
-1.88481e-08
-1.79363e-09
-1.73225e-09
-2.31078e-09
9.25437e-10
-1.34634e-09
9.2233e-10
-1.10435e-09
7.70146e-10
-9.20577e-10
6.29501e-10
-7.59203e-10
5.10283e-10
-6.20033e-10
4.11416e-10
-5.0269e-10
3.3044e-10
-4.05395e-10
2.64674e-10
-3.25675e-10
2.11573e-10
-2.60902e-10
1.68873e-10
-2.08583e-10
1.34634e-10
-1.66499e-10
1.07235e-10
-1.32748e-10
8.53437e-11
-1.05735e-10
6.78723e-11
-8.41499e-11
5.39436e-11
-6.69223e-11
4.28516e-11
-5.3188e-11
3.40308e-11
-4.22488e-11
2.70386e-11
-3.3503e-11
2.16967e-11
-2.57267e-11
2.09794e-11
-5.9953e-12
-2.18781e-11
9.7312e-12
-1.37437e-11
8.7371e-12
-1.08053e-11
7.15197e-12
-8.70261e-12
5.88108e-12
-7.07835e-12
4.90355e-12
-5.82419e-12
4.15838e-12
-4.86476e-12
3.58321e-12
-4.156e-12
3.04215e-12
-3.5913e-12
2.39575e-12
-2.976e-12
1.71755e-12
-2.26918e-12
1.18397e-12
-1.81114e-12
2.24626e-13
-8.4458e-13
-2.11289e-13
-5.03483e-14
-1.21646e-14
-3.56525e-15
5.94097e-05
-4.70351e-05
-8.08188e-06
-3.31235e-06
-6.48947e-07
-2.64686e-07
-4.94236e-08
-2.33444e-08
-1.1568e-09
-2.1665e-09
-3.21435e-09
1.54638e-09
-2.0198e-09
1.46192e-09
-1.66876e-09
1.21913e-09
-1.39041e-09
9.9805e-10
-1.14575e-09
8.10154e-10
-9.35141e-10
6.5387e-10
-7.57819e-10
5.25578e-10
-6.10942e-10
4.21212e-10
-4.90685e-10
3.36844e-10
-3.93024e-10
2.68943e-10
-3.14169e-10
2.14465e-10
-2.50757e-10
1.70852e-10
-1.99909e-10
1.35994e-10
-1.59219e-10
1.08168e-10
-1.26707e-10
8.59799e-11
-1.00762e-10
6.83071e-11
-8.00794e-11
5.42497e-11
-6.36095e-11
4.30981e-11
-5.04624e-11
3.44796e-11
-3.90966e-11
3.17488e-11
-8.40133e-12
-3.12095e-11
1.60632e-11
-2.05975e-11
1.39325e-11
-1.62853e-11
1.13659e-11
-1.31317e-11
9.32931e-12
-1.06927e-11
7.76205e-12
-8.8104e-12
6.56602e-12
-7.37032e-12
5.64548e-12
-6.29763e-12
4.79854e-12
-5.42404e-12
3.80853e-12
-4.46989e-12
2.76451e-12
-3.39304e-12
1.93584e-12
-2.65097e-12
4.87171e-13
-1.19467e-12
-2.41985e-13
-5.60937e-14
-1.34955e-14
-3.95162e-15
-5.94336e-05
4.70536e-05
8.08431e-06
3.3146e-06
6.49401e-07
2.64887e-07
4.95197e-08
2.33227e-08
1.21217e-09
2.16298e-09
3.16481e-09
-1.51493e-09
1.98256e-09
-1.43375e-09
1.637e-09
-1.19547e-09
1.36356e-09
-9.78452e-10
1.12335e-09
-7.94068e-10
9.1665e-10
-6.40751e-10
7.42672e-10
-5.14931e-10
5.98608e-10
-4.12605e-10
4.80687e-10
-3.29907e-10
3.84949e-10
-2.63367e-10
3.07667e-10
-2.09992e-10
2.45534e-10
-1.67272e-10
1.95722e-10
-1.33133e-10
1.55869e-10
-1.05885e-10
1.24031e-10
-8.41615e-11
9.86281e-11
-6.68606e-11
7.83807e-11
-5.31003e-11
6.22588e-11
-4.21852e-11
4.93906e-11
-3.37499e-11
3.82666e-11
-3.10776e-11
8.22167e-12
3.05488e-11
-1.57254e-11
2.01624e-11
-1.36404e-11
1.59422e-11
-1.11287e-11
1.28561e-11
-9.13582e-12
1.04695e-11
-7.60256e-12
8.62778e-12
-6.43308e-12
7.21927e-12
-5.53382e-12
6.17079e-12
-4.7074e-12
5.3185e-12
-3.73924e-12
4.38657e-12
-2.7156e-12
3.33148e-12
-1.90382e-12
2.60584e-12
-4.79104e-13
1.1746e-12
2.37928e-13
5.51563e-14
1.3271e-14
3.88876e-15
-4.24379e-05
3.1616e-05
7.22963e-06
2.71667e-06
5.97677e-07
2.18506e-07
4.62563e-08
1.88371e-08
1.83188e-09
1.72987e-09
2.27657e-09
-9.05858e-10
1.3217e-09
-9.04453e-10
1.08338e-09
-7.55144e-10
9.02838e-10
-6.17102e-10
7.44391e-10
-5.0012e-10
6.07796e-10
-4.03138e-10
4.92661e-10
-3.23728e-10
3.97224e-10
-2.59252e-10
3.1905e-10
-2.07205e-10
2.5555e-10
-1.65363e-10
2.04272e-10
-1.3182e-10
1.63036e-10
-1.04983e-10
1.29971e-10
-8.35446e-11
1.03513e-10
-6.64375e-11
8.23749e-11
-5.2801e-11
6.55067e-11
-4.19429e-11
5.20608e-11
-3.33089e-11
4.13525e-11
-2.64652e-11
3.2792e-11
-2.1237e-11
2.51809e-11
-2.05356e-11
5.86748e-12
2.14152e-11
-9.52645e-12
1.34536e-11
-8.55383e-12
1.05778e-11
-7.00264e-12
8.52004e-12
-5.75909e-12
6.93058e-12
-4.80284e-12
5.70343e-12
-4.07428e-12
4.76495e-12
-3.51252e-12
4.0721e-12
-2.98465e-12
3.52122e-12
-2.35242e-12
2.9204e-12
-1.68735e-12
2.22787e-12
-1.1646e-12
1.78026e-12
-2.20961e-13
8.30386e-13
2.07743e-13
4.95051e-14
1.19616e-14
3.50718e-15
-2.84048e-05
2.01156e-05
5.57976e-06
2.02283e-06
4.76294e-07
1.63819e-07
3.71881e-08
1.39303e-08
1.77341e-09
1.26968e-09
1.5367e-09
-5.13818e-10
8.38454e-10
-5.44205e-10
6.82392e-10
-4.55074e-10
5.68885e-10
-3.71324e-10
4.69384e-10
-3.00525e-10
3.83468e-10
-2.41997e-10
3.10955e-10
-1.94181e-10
2.50792e-10
-1.5542e-10
2.01479e-10
-1.24168e-10
1.61404e-10
-9.90642e-11
1.29033e-10
-7.89513e-11
1.02994e-10
-6.28668e-11
8.21121e-11
-5.00212e-11
6.5401e-11
-3.97734e-11
5.20483e-11
-3.16062e-11
4.13921e-11
-2.51043e-11
3.28971e-11
-1.99354e-11
2.61305e-11
-1.58415e-11
2.07129e-11
-1.27527e-11
1.57712e-11
-1.28866e-11
3.94025e-12
1.41347e-11
-5.48987e-12
8.53939e-12
-5.11712e-12
6.67803e-12
-4.20409e-12
5.37306e-12
-3.46381e-12
4.36624e-12
-2.89481e-12
3.58859e-12
-2.4618e-12
2.99389e-12
-2.12693e-12
2.55802e-12
-1.80528e-12
2.21839e-12
-1.41206e-12
1.84897e-12
-1.00039e-12
1.4163e-12
-6.79073e-13
1.15239e-12
-8.50023e-14
5.53082e-13
1.58956e-13
3.90118e-14
9.4802e-15
2.78202e-15
-1.63128e-05
1.11371e-05
3.49054e-06
1.24847e-06
3.05497e-07
1.01678e-07
2.39762e-08
8.57589e-09
1.24721e-09
7.77751e-10
8.88892e-10
-2.58419e-10
4.64142e-10
-2.88736e-10
3.75595e-10
-2.41791e-10
3.13202e-10
-1.97049e-10
2.58563e-10
-1.59299e-10
2.11326e-10
-1.28166e-10
1.71419e-10
-1.02777e-10
1.38284e-10
-8.22232e-11
1.11112e-10
-6.56674e-11
8.90219e-11
-5.23778e-11
7.11738e-11
-4.17356e-11
5.6815e-11
-3.32279e-11
4.52984e-11
-2.64351e-11
3.60811e-11
-2.10171e-11
2.87157e-11
-1.66999e-11
2.28374e-11
-1.32634e-11
1.81509e-11
-1.0532e-11
1.44174e-11
-8.37012e-12
1.14247e-11
-6.75679e-12
8.64093e-12
-7.06402e-12
2.27224e-12
8.04173e-12
-2.80409e-12
4.72853e-12
-2.70211e-12
3.68211e-12
-2.22679e-12
2.96008e-12
-1.83747e-12
2.40354e-12
-1.53834e-12
1.97353e-12
-1.31092e-12
1.6447e-12
-1.1346e-12
1.40501e-12
-9.62129e-13
1.22112e-12
-7.47849e-13
1.02158e-12
-5.24361e-13
7.84995e-13
-3.50773e-13
6.47175e-13
-2.41264e-14
3.17029e-13
9.91807e-14
2.4891e-14
6.07864e-15
1.78493e-15
-5.31909e-06
3.56225e-06
1.18502e-06
4.22084e-07
1.05105e-07
3.44789e-08
8.26747e-09
2.89666e-09
4.45691e-10
2.62034e-10
2.91009e-10
-7.81548e-11
1.48551e-10
-9.02202e-11
1.19829e-10
-7.56166e-11
9.99365e-11
-6.15809e-11
8.25268e-11
-4.97514e-11
6.74655e-11
-4.00085e-11
5.47343e-11
-3.20714e-11
4.41598e-11
-2.56509e-11
3.54856e-11
-2.0482e-11
2.84326e-11
-1.63346e-11
2.27332e-11
-1.30143e-11
1.81476e-11
-1.03604e-11
1.44695e-11
-8.24186e-12
1.15255e-11
-6.55225e-12
9.17298e-12
-5.20602e-12
7.29534e-12
-4.13455e-12
5.79832e-12
-3.28301e-12
4.60566e-12
-2.60929e-12
3.64897e-12
-2.10982e-12
2.74963e-12
-2.24754e-12
7.4297e-13
2.60994e-12
-8.56454e-13
1.51356e-12
-8.4204e-13
1.17583e-12
-6.9517e-13
9.4482e-13
-5.7414e-13
7.66849e-13
-4.8117e-13
6.29313e-13
-4.10527e-13
5.24139e-13
-3.55675e-13
4.47699e-13
-3.01458e-13
3.89555e-13
-2.33485e-13
3.26548e-13
-1.62736e-13
2.51353e-13
-1.07917e-13
2.08665e-13
-3.78727e-15
1.03315e-13
3.36515e-14
8.54446e-15
2.09214e-15
6.13815e-16
5.3193e-06
-3.56229e-06
-1.18511e-06
-4.22153e-07
-1.05146e-07
-3.44984e-08
-8.27569e-09
-2.89974e-09
-4.46734e-10
-2.62347e-10
-2.91079e-10
7.81602e-11
-1.48524e-10
9.02512e-11
-1.19799e-10
7.56437e-11
-9.99124e-11
6.16023e-11
-8.25079e-11
4.97682e-11
-6.74507e-11
4.00216e-11
-5.47226e-11
3.20817e-11
-4.41506e-11
2.5659e-11
-3.54784e-11
2.04885e-11
-2.84269e-11
1.63397e-11
-2.27287e-11
1.30183e-11
-1.8144e-11
1.03636e-11
-1.44666e-11
8.2444e-12
-1.15233e-11
6.55426e-12
-9.17118e-12
5.20762e-12
-7.2939e-12
4.13583e-12
-5.79718e-12
3.28403e-12
-4.60475e-12
2.6101e-12
-3.64827e-12
2.11042e-12
-2.74915e-12
2.2479e-12
-7.42691e-13
-2.60969e-12
8.567e-13
-1.51331e-12
8.4228e-13
-1.17561e-12
6.95368e-13
-9.44647e-13
5.74288e-13
-7.66724e-13
4.81272e-13
-6.29232e-13
4.10587e-13
-5.24098e-13
3.55699e-13
-4.47693e-13
3.01451e-13
-3.89575e-13
2.33456e-13
-3.26585e-13
1.62696e-13
-2.51395e-13
1.07877e-13
-2.087e-13
3.76001e-15
-1.03334e-13
-3.36627e-14
-8.54993e-15
-2.09449e-15
-6.16863e-16
1.6313e-05
-1.11371e-05
-3.4906e-06
-1.24852e-06
-3.05524e-07
-1.01691e-07
-2.39817e-08
-8.57795e-09
-1.2479e-09
-7.77952e-10
-8.88931e-10
2.5843e-10
-4.64117e-10
2.88763e-10
-3.75569e-10
2.41814e-10
-3.13181e-10
1.97067e-10
-2.58547e-10
1.59313e-10
-2.11314e-10
1.28177e-10
-1.71409e-10
1.02786e-10
-1.38276e-10
8.22304e-11
-1.11105e-10
6.56731e-11
-8.90169e-11
5.23823e-11
-7.11698e-11
4.17392e-11
-5.68119e-11
3.32307e-11
-4.52958e-11
2.64374e-11
-3.60791e-11
2.10189e-11
-2.87141e-11
1.67013e-11
-2.28361e-11
1.32645e-11
-1.81499e-11
1.05329e-11
-1.44166e-11
8.37084e-12
-1.1424e-11
6.75732e-12
-8.64049e-12
7.06437e-12
-2.27196e-12
-8.04149e-12
2.80433e-12
-4.7283e-12
2.70232e-12
-3.68192e-12
2.22696e-12
-2.95992e-12
1.8376e-12
-2.40342e-12
1.53844e-12
-1.97345e-12
1.31098e-12
-1.64465e-12
1.13463e-12
-1.40499e-12
9.62134e-13
-1.22113e-12
7.47836e-13
-1.0216e-12
5.24338e-13
-7.8502e-13
3.50748e-13
-6.47198e-13
2.41086e-14
-3.17042e-13
-9.91881e-14
-2.48946e-14
-6.08014e-15
-1.78701e-15
2.84049e-05
-2.01156e-05
-5.57977e-06
-2.02284e-06
-4.76297e-07
-1.63821e-07
-3.71887e-08
-1.39305e-08
-1.77348e-09
-1.26969e-09
-1.53669e-09
5.13832e-10
-8.3844e-10
5.44219e-10
-6.82379e-10
4.55085e-10
-5.68875e-10
3.71333e-10
-4.69376e-10
3.00532e-10
-3.83461e-10
2.42003e-10
-3.1095e-10
1.94186e-10
-2.50788e-10
1.55424e-10
-2.01476e-10
1.24171e-10
-1.61402e-10
9.90665e-11
-1.2903e-10
7.89532e-11
-1.02992e-10
6.28682e-11
-8.21108e-11
5.00223e-11
-6.53999e-11
3.97743e-11
-5.20474e-11
3.16069e-11
-4.13915e-11
2.51049e-11
-3.28965e-11
1.99359e-11
-2.61301e-11
1.58419e-11
-2.07126e-11
1.2753e-11
-1.5771e-11
1.28869e-11
-3.94007e-12
-1.41346e-11
5.49001e-12
-8.53926e-12
5.11723e-12
-6.67793e-12
4.20419e-12
-5.37297e-12
3.46388e-12
-4.36618e-12
2.89487e-12
-3.58854e-12
2.46184e-12
-2.99385e-12
2.12696e-12
-2.558e-12
1.8053e-12
-2.21838e-12
1.41207e-12
-1.84897e-12
1.00039e-12
-1.4163e-12
6.79072e-13
-1.15239e-12
8.50008e-14
-5.53083e-13
-1.58956e-13
-3.90122e-14
-9.48027e-15
-2.78233e-15
4.24378e-05
-3.1616e-05
-7.22957e-06
-2.71662e-06
-5.97652e-07
-2.18494e-07
-4.62512e-08
-1.88352e-08
-1.83123e-09
-1.72967e-09
-2.27652e-09
9.05861e-10
-1.32172e-09
9.04439e-10
-1.0834e-09
7.55132e-10
-9.02849e-10
6.17092e-10
-7.44399e-10
5.00113e-10
-6.07802e-10
4.03132e-10
-4.92666e-10
3.23723e-10
-3.97229e-10
2.59248e-10
-3.19053e-10
2.07203e-10
-2.55552e-10
1.65361e-10
-2.04274e-10
1.31818e-10
-1.63037e-10
1.04982e-10
-1.29972e-10
8.35435e-11
-1.03514e-10
6.64366e-11
-8.23757e-11
5.28003e-11
-6.55074e-11
4.19423e-11
-5.20613e-11
3.33084e-11
-4.13529e-11
2.64648e-11
-3.27923e-11
2.12368e-11
-2.51811e-11
2.05355e-11
-5.86758e-12
-2.14152e-11
9.52635e-12
-1.34537e-11
8.55372e-12
-1.05779e-11
7.00256e-12
-8.52012e-12
5.75903e-12
-6.93063e-12
4.8028e-12
-5.70346e-12
4.07426e-12
-4.76496e-12
3.51252e-12
-4.0721e-12
2.98466e-12
-3.5212e-12
2.35245e-12
-2.92037e-12
1.68738e-12
-2.22785e-12
1.16463e-12
-1.78024e-12
2.20978e-13
-8.30374e-13
-2.07736e-13
-4.95016e-14
-1.19601e-14
-3.50531e-15
5.94333e-05
-4.70536e-05
-8.08421e-06
-3.31453e-06
-6.49355e-07
-2.64864e-07
-4.95104e-08
-2.33192e-08
-1.21101e-09
-2.16266e-09
-3.16476e-09
1.5149e-09
-1.98261e-09
1.43369e-09
-1.63705e-09
1.19542e-09
-1.3636e-09
9.78413e-10
-1.12339e-09
7.94037e-10
-9.16677e-10
6.40726e-10
-7.42694e-10
5.14912e-10
-5.98625e-10
4.12589e-10
-4.80701e-10
3.29895e-10
-3.8496e-10
2.63357e-10
-3.07676e-10
2.09985e-10