/*--------------------------------*- C++ -*----------------------------------*\
| =========                 |                                                 |
| \\      /  F ield         | OpenFOAM: The Open Source CFD Toolbox           |
|  \\    /   O peration     | Version:  5.x                                   |
|   \\  /    A nd           | Web:      www.OpenFOAM.org                      |
|    \\/     M anipulation  |                                                 |
\*---------------------------------------------------------------------------*/
FoamFile
{
    version     2.0;
    format      ascii;
    class       volScalarField;
    location    "14.4";
    object      T;
}
// * * * * * * * * * * * * * * * * * * * * * * * * * * * * * * * * * * * * * //

dimensions      [0 0 0 1 0 0 0];

internalField   nonuniform List<scalar> 
6300
(
10.0222
10.0681
10.1182
10.1753
10.242
10.3208
10.414
10.5234
10.6506
10.7966
10.9619
11.1461
11.3483
11.567
11.7996
10.0208
10.0638
10.1112
10.1656
10.2299
10.3064
10.3977
10.5056
10.6318
10.7773
10.9428
11.128
11.3319
11.5528
11.7884
10.0179
10.0553
10.0971
10.1462
10.2054
10.2774
10.3647
10.4694
10.5935
10.7381
10.904
11.0911
11.2984
11.524
11.7654
10.0136
10.0423
10.0756
10.1166
10.1681
10.233
10.3141
10.4139
10.5345
10.6776
10.844
11.0339
11.2464
11.4795
11.7301
10.0077
10.0248
10.0466
10.0764
10.1173
10.1724
10.2449
10.3376
10.4531
10.5936
10.7604
10.954
11.1737
11.4173
11.6811
10.0003
10.0024
10.0096
10.025
10.0522
10.0945
10.1554
10.2384
10.3467
10.4832
10.6499
10.848
11.0771
11.3347
11.6166
9.99114
9.97511
9.96421
9.96192
9.97189
9.99789
10.0439
10.1139
10.2121
10.3424
10.508
10.711
10.9518
11.2279
11.534
9.98032
9.94267
9.91022
9.88657
9.87555
9.88127
9.90821
9.96122
10.0455
10.1662
10.3285
10.5362
10.791
11.0911
11.4296
9.96778
9.90503
9.84742
9.79858
9.76245
9.74342
9.74645
9.77723
9.84221
9.94852
10.1036
10.3143
10.585
10.9156
11.2981
9.95354
9.86224
9.77584
9.69786
9.63223
9.58346
9.55691
9.55901
9.59758
9.68199
9.82303
10.0321
10.3192
10.6882
11.1312
9.93769
9.81454
9.69582
9.58478
9.48513
9.40128
9.33867
9.30427
9.30707
9.35877
9.47435
9.67202
9.97126
10.3867
10.9153
9.92039
9.76238
9.6081
9.4603
9.32221
9.19781
9.09221
9.01231
8.96762
8.97162
9.04353
9.21026
9.50705
9.97211
10.6241
9.90187
9.70651
9.51389
9.3261
9.14559
8.97551
8.82003
8.68509
8.57944
8.51653
8.51786
8.61837
8.87451
9.37044
10.1984
9.88245
9.64787
9.41485
9.18459
8.95854
8.73857
8.52729
8.32856
8.14846
7.99717
7.89295
7.8708
8.00211
8.43668
9.46749
9.86253
9.58766
9.31304
9.03887
8.76539
8.49292
8.22197
7.95338
7.68865
7.43072
7.18592
6.96973
6.82641
6.9066
7.8151
12.0231
12.232
12.4447
12.659
12.8732
13.0853
13.2937
13.4969
13.6936
13.8827
14.0633
14.2346
14.3961
14.5471
14.6875
14.8168
14.935
15.0418
15.1373
15.2213
15.2939
15.3551
15.405
15.4437
15.4713
15.488
15.4938
15.4891
15.4739
15.4484
15.4128
15.3672
15.312
15.2472
15.173
15.0896
14.9972
14.896
14.7861
14.6677
14.5409
14.406
14.2631
14.1125
13.9542
13.7886
13.6157
13.4358
13.249
13.0555
12.8554
12.6488
12.436
12.2169
11.9919
11.7609
11.5242
11.282
11.0344
10.7817
10.524
10.2616
9.99468
9.72353
9.44838
9.16951
8.8872
8.60175
8.3135
8.02283
7.73018
7.43601
7.14086
6.84533
6.55006
6.25574
5.96312
5.67295
5.386
5.10307
4.82492
4.5523
4.28591
4.02643
3.77443
3.53045
3.29491
3.06814
2.85035
2.64166
12.0148
12.2266
12.4421
12.6592
12.876
13.0905
13.3011
13.5061
13.7044
13.8949
14.0765
14.2487
14.4108
14.5624
14.7031
14.8328
14.9511
15.0581
15.1536
15.2376
15.3101
15.3712
15.421
15.4595
15.4869
15.5033
15.509
15.504
15.4885
15.4627
15.4268
15.3811
15.3255
15.2605
15.1861
15.1024
15.0098
14.9083
14.7981
14.6795
14.5524
14.4173
14.2741
14.1232
13.9647
13.7988
13.6257
13.4456
13.2585
13.0648
12.8645
12.6577
12.4447
12.2255
12.0002
11.769
11.5321
11.2896
11.0417
10.7887
10.5307
10.2679
10.0007
9.72915
9.45363
9.17435
8.8916
8.60566
8.31687
8.0256
7.73225
7.43732
7.14132
6.84486
6.5486
6.25323
5.95951
5.66822
5.38016
5.09612
4.8169
4.54326
4.27593
4.01558
3.76285
3.51825
3.28224
3.05515
2.83722
2.62855
11.998
12.2156
12.437
12.6598
12.8819
13.1013
13.3162
13.525
13.7264
13.9195
14.1032
14.2771
14.4405
14.5932
14.7346
14.8648
14.9835
15.0907
15.1862
15.2702
15.3426
15.4034
15.4529
15.4911
15.5181
15.5341
15.5392
15.5337
15.5177
15.4914
15.455
15.4087
15.3527
15.2871
15.2122
15.1281
15.0349
14.9329
14.8223
14.7031
14.5755
14.4399
14.2962
14.1447
13.9857
13.8193
13.6457
13.465
13.2776
13.0834
12.8827
12.6756
12.4622
12.2425
12.0168
11.7852
11.5478
11.3048
11.0563
10.8027
10.544
10.2806
10.0127
9.74043
9.46416
9.18409
8.90047
8.61358
8.32372
8.03124
7.73653
7.44005
7.14235
6.84403
6.54575
6.24826
5.95233
5.65878
5.36845
5.08217
4.80077
4.52507
4.25582
3.99374
3.73949
3.49364
3.25667
3.02895
2.81072
2.6021
11.9723
12.199
12.4296
12.6613
12.8917
13.1186
13.3399
13.5543
13.7604
13.9573
14.1441
14.3204
14.4857
14.6397
14.7823
14.9132
15.0324
15.1398
15.2354
15.3193
15.3914
15.4519
15.5009
15.5386
15.565
15.5803
15.5847
15.5784
15.5616
15.5345
15.4973
15.4501
15.3933
15.327
15.2513
15.1665
15.0726
14.9699
14.8585
14.7385
14.6102
14.4737
14.3292
14.177
14.0171
13.8499
13.6755
13.4942
13.3061
13.1113
12.91
12.7023
12.4884
12.2682
12.0419
11.8096
11.5715
11.3276
11.0783
10.8237
10.5641
10.2997
10.0307
9.7574
9.48003
9.1988
8.91394
8.62566
8.33424
8.03997
7.74323
7.44446
7.14419
6.84304
6.5417
6.24096
5.94164
5.64463
5.35082
5.06111
4.77639
4.49752
4.22533
3.96058
3.70399
3.4562
3.21774
2.98903
2.77035
2.56183
11.937
12.1769
12.4205
12.6647
12.9065
13.1435
13.3737
13.5954
13.8076
14.0093
14.2
14.3793
14.5469
14.7027
14.8465
14.9783
15.098
15.2057
15.3014
15.385
15.4568
15.5168
15.5652
15.6021
15.6276
15.6419
15.6453
15.638
15.6201
15.5919
15.5536
15.5054
15.4475
15.3801
15.3035
15.2176
15.1228
15.0192
14.9068
14.7858
14.6565
14.5189
14.3733
14.2199
14.059
13.8906
13.7152
13.5329
13.3439
13.1484
12.9464
12.738
12.5234
12.3025
12.0754
11.8423
11.6032
11.3582
11.1077
10.8519
10.5909
10.3251
10.0548
9.78012
9.50134
9.21865
8.9322
8.64216
8.34874
8.05217
7.75277
7.45094
7.14721
6.84222
6.53671
6.23152
5.92756
5.6258
5.32723
5.03281
4.74352
4.46031
4.18405
3.91561
3.65578
3.40527
3.16473
2.93463
2.71533
2.50696
11.8914
12.1491
12.4104
12.6712
12.9281
13.1782
13.4193
13.6502
13.8696
14.0771
14.2722
14.4549
14.6251
14.7827
14.9279
15.0606
15.1809
15.2888
15.3844
15.4678
15.539
15.5983
15.6458
15.6817
15.7061
15.7192
15.7213
15.7126
15.6933
15.6637
15.624
15.5744
15.5152
15.4465
15.3686
15.2816
15.1856
15.0808
14.9672
14.8451
14.7144
14.5755
14.4285
14.2736
14.1112
13.9415
13.7647
13.5812
13.3911
13.1946
12.9917
12.7826
12.5672
12.3455
12.1176
11.8834
11.6431
11.3968
11.1447
10.8872
10.6246
10.3571
10.085
9.80863
9.52818
9.24377
8.9555
8.66344
8.36768
8.06835
7.76569
7.46005
7.15196
6.84206
6.53117
6.22022
5.91024
5.60232
5.29756
4.99705
4.70186
4.413
4.13147
3.8582
3.59408
3.33997
3.09662
2.86466
2.64453
2.4364
11.8344
12.1162
12.401
12.6834
12.9593
13.2255
13.4799
13.7212
13.9487
14.1624
14.3622
14.5484
14.7211
14.8806
15.0271
15.1606
15.2813
15.3894
15.4848
15.5677
15.6383
15.6967
15.743
15.7776
15.8006
15.8122
15.8126
15.8022
15.7812
15.7498
15.7083
15.6571
15.5962
15.526
15.4466
15.3583
15.261
15.1548
15.0399
14.9163
14.7841
14.6436
14.4948
14.338
14.1737
14.0022
13.8237
13.6387
13.4473
13.2497
13.0459
12.836
12.6199
12.3974
12.1685
11.9332
11.6914
11.4434
11.1895
10.9299
10.6651
10.3954
10.1213
9.84293
9.5606
9.27434
8.98414
8.68994
8.39164
8.08922
7.78279
7.47263
7.15921
6.84324
6.52562
6.20744
5.88989
5.57422
5.26171
4.95358
4.65101
4.35511
4.06694
3.78754
3.51793
3.25912
3.01207
2.77763
2.5564
2.34865
11.7647
12.079
12.3947
12.7049
13.0044
13.2898
13.5591
13.8118
14.0478
14.2675
14.4717
14.661
14.836
14.9971
15.1447
15.2789
15.4
15.508
15.6031
15.6853
15.755
15.8121
15.8571
15.8901
15.9113
15.921
15.9195
15.907
15.8838
15.8503
15.8067
15.7533
15.6905
15.6185
15.5375
15.4476
15.3489
15.2413
15.1249
14.9998
14.8658
14.7232
14.5723
14.4132
14.2466
14.0727
13.8921
13.7052
13.5123
13.3135
13.1089
12.8983
12.6816
12.4584
12.2286
11.992
11.7486
11.4985
11.2422
10.9799
10.7124
10.4401
10.1634
9.88287
9.59855
9.31047
9.01846
8.72222
8.42142
8.11578
7.80519
7.48979
7.17005
6.8467
6.52082
6.19368
5.86675
5.54152
5.21948
4.90204
4.59049
4.28602
3.98974
3.70275
3.42619
3.16129
2.90934
2.67154
2.44883
2.24164
11.681
12.0395
12.3963
12.7417
13.0697
13.3769
13.6623
13.9263
14.17
14.3949
14.6026
14.7942
14.9707
15.1329
15.2813
15.416
15.5372
15.6451
15.7396
15.821
15.8894
15.945
15.9882
16.0193
16.0384
16.0458
16.0419
16.027
16.0012
15.9651
15.9189
15.8631
15.7979
15.7238
15.641
15.5494
15.4493
15.3403
15.2225
15.0957
14.9597
14.8148
14.6612
14.4993
14.3296
14.1528
13.9695
13.7803
13.5856
13.3856
13.1802
12.9693
12.7523
12.5289
12.2984
12.0605
11.8152
11.5626
11.3032
11.0375
10.7665
10.4908
10.2112
9.92811
9.64181
9.35216
9.05876
8.76099
8.45808
8.14937
7.83441
7.51315
7.18598
6.85375
6.51774
6.17957
5.84108
5.50415
5.17058
4.84196
4.51973
4.20509
3.89912
3.60289
3.3176
3.04478
2.78619
2.54369
2.31888
2.11252
11.5823
12.0026
12.414
12.8036
13.1648
13.4954
13.7963
14.0699
14.3192
14.5471
14.7564
14.9488
15.126
15.2886
15.4374
15.5724
15.6936
15.8011
15.8949
15.9751
16.0419
16.0957
16.1368
16.1655
16.1821
16.1869
16.1802
16.1622
16.1334
16.0941
16.0448
15.986
15.9181
15.8416
15.7567
15.6636
15.5621
15.452
15.3329
15.2044
15.0664
14.9188
14.7619
14.5963
14.4227
14.242
14.0552
13.8631
13.6664
13.4652
13.2595
13.0488
12.8324
12.6093
12.3786
12.1397
11.8922
11.6365
11.373
11.1028
10.8271
10.547
10.2637
9.97792
9.68979
9.39914
9.10526
8.80703
8.50302
8.19185
7.87261
7.54493
7.20912
6.86617
6.51769
6.16585
5.81311
5.4619
5.11446
4.77264
4.43797
4.11161
3.79444
3.48722
3.19104
2.90774
2.63982
2.39035
2.16232
1.95723
11.4686
11.9783
12.4631
12.9065
13.3037
13.6564
13.9694
14.2483
14.4988
14.7262
14.9342
15.1255
15.3018
15.4642
15.6131
15.7483
15.8697
15.9768
16.0696
16.1483
16.2131
16.2645
16.303
16.3288
16.3425
16.3443
16.3344
16.313
16.2805
16.2374
16.1842
16.1217
16.0506
15.9713
15.8842
15.7896
15.6871
15.5764
15.4566
15.3268
15.1867
15.036
14.8751
14.7046
14.5257
14.3398
14.1483
13.9526
13.7534
13.5512
13.3457
13.1363
12.9219
12.7005
12.4705
12.2309
11.981
11.7213
11.4524
11.176
10.8937
10.6078
10.3199
10.0309
9.74126
9.45064
9.15791
8.86129
8.55814
8.24587
7.92286
7.5883
7.24247
6.88643
6.52242
6.15332
5.78284
5.41416
5.05019
4.69295
4.3442
4.00485
3.67539
3.3556
3.04589
2.74852
2.46685
2.2061
1.9727
1.7697
11.3451
11.9899
12.5718
13.0756
13.5065
13.8745
14.1914
14.4672
14.7118
14.9331
15.1358
15.3234
15.4975
15.6592
15.8082
15.9442
16.0659
16.1728
16.2644
16.3412
16.4034
16.4518
16.487
16.5096
16.5199
16.5184
16.5049
16.4796
16.4427
16.3949
16.3368
16.2697
16.1945
16.1119
16.0225
15.9265
15.8238
15.7137
15.5944
15.464
15.322
15.1677
15.0018
14.8249
14.6388
14.4452
14.2474
14.0467
13.8448
13.6416
13.4374
13.231
13.0211
12.804
12.5762
12.3366
12.0839
11.819
11.5426
11.2573
10.9655
10.6715
10.3772
10.0848
9.794
9.50505
9.21604
8.92483
8.62627
8.31523
7.98966
7.64777
7.29043
6.91808
6.53439
6.1427
5.7499
5.35958
4.97613
4.60098
4.23684
3.88377
3.54237
3.20942
2.88293
2.56665
2.26374
1.98241
1.73929
1.54039
11.237
12.092
12.7927
13.3496
13.7997
14.1661
14.4726
14.7311
14.9581
15.1665
15.359
15.5408
15.7109
15.8722
16.0218
16.1607
16.2834
16.3907
16.4806
16.5549
16.6135
16.658
16.6891
16.7076
16.7144
16.7094
16.6921
16.6627
16.6206
16.5671
16.5022
16.4294
16.3486
16.2624
16.1699
16.0732
15.9709
15.864
15.7479
15.6179
15.4747
15.3158
15.1444
14.9582
14.7625
14.5568
14.3504
14.1425
13.9377
13.7332
13.5321
13.3308
13.1305
12.9227
12.699
12.4608
12.204
11.9334
11.6454
11.3481
11.0402
10.7353
10.4318
10.1362
9.84399
9.55945
9.27723
8.99885
8.7123
8.40542
8.07987
7.72943
7.35992
6.966
6.55779
6.13364
5.71332
5.29504
4.89006
4.49313
4.1135
3.74584
3.39713
3.05392
2.70521
2.36552
2.02951
1.70369
1.44216
1.25333
11.257
12.4163
13.2204
13.7775
14.2132
14.5438
14.8225
15.0404
15.231
15.4226
15.5973
15.775
15.9367
16.1018
16.2505
16.4002
16.5229
16.6333
16.719
16.7909
16.8436
16.8835
16.9088
16.9224
16.9258
16.9179
16.8965
16.8638
16.8146
16.7555
16.6787
16.6003
16.5104
16.4218
16.3231
16.2277
16.1243
16.0274
15.9215
15.7903
15.6497
15.482
15.308
15.1049
14.9004
14.669
14.4556
14.2335
14.0303
13.8197
13.627
13.4288
13.2504
13.0643
12.8425
12.6118
12.344
12.0723
11.7618
11.4537
11.1105
10.7971
10.4748
10.1826
9.88277
9.6104
9.33277
9.08452
8.8275
8.52237
8.20582
7.83843
7.46445
7.0344
6.60406
6.11898
5.67371
5.21128
4.79233
4.36028
3.97285
3.58059
3.24392
2.90629
2.51448
2.15906
1.78058
1.33236
1.04035
0.880489
11.9502
13.2521
14.0036
14.3799
14.778
14.9963
15.2597
15.389
15.5022
15.703
15.8311
16.0321
16.1573
16.3551
16.4778
16.6781
16.7802
16.9113
16.9769
17.0545
17.0918
17.13
17.1452
17.1517
17.1533
17.1455
17.1172
17.0885
17.0227
16.9692
16.8573
16.7877
16.67
16.5956
16.4712
16.3938
16.2682
16.2034
16.1314
15.9762
15.8636
15.657
15.5132
15.2537
15.0767
14.7554
14.5729
14.2971
14.1332
13.8806
13.7294
13.4983
13.3811
13.2573
12.9984
12.8159
12.4896
12.2672
11.8742
11.6099
11.1378
10.8716
10.4745
10.2399
9.88188
9.66881
9.34588
9.18273
9.01184
8.65569
8.4049
7.95681
7.64964
7.10314
6.72907
6.04695
5.65873
5.06487
4.71342
4.16314
3.8391
3.33526
3.09206
2.83664
2.27131
1.98579
1.63207
0.736052
0.448227
0.37174
2.42209
2.19542
1.98119
1.77876
1.58736
1.4061
1.23401
1.07008
0.913297
0.762642
0.617114
0.475735
0.33755
0.20163
0.0670603
2.40918
2.18296
1.96936
1.76771
1.57721
1.39691
1.22583
1.06292
0.907158
0.757506
0.612958
0.472534
0.335282
0.200277
0.0666105
2.38316
2.15785
1.94555
1.74551
1.55682
1.37849
1.20945
1.04861
0.894897
0.747257
0.60467
0.466154
0.330764
0.197581
0.0657148
2.34357
2.11971
1.90945
1.71191
1.52606
1.35077
1.18485
1.02716
0.876552
0.731944
0.592303
0.456644
0.324032
0.193568
0.0643815
2.2897
2.06794
1.86061
1.66662
1.48473
1.31364
1.15202
0.998609
0.852196
0.711657
0.575945
0.444082
0.315149
0.188275
0.0626234
2.22057
2.00172
1.79839
1.60919
1.43259
1.26702
1.11097
0.963046
0.821954
0.686535
0.555732
0.428584
0.304203
0.181758
0.0604596
2.13481
1.91995
1.72202
1.53915
1.3694
1.21086
1.06179
0.920635
0.78603
0.656787
0.531858
0.410314
0.291316
0.174093
0.0579155
2.0306
1.82124
1.63055
1.45598
1.29498
1.14522
1.00468
0.87166
0.744736
0.622716
0.504591
0.389492
0.276652
0.165378
0.0550247
1.90551
1.70383
1.52295
1.35923
1.2093
1.07034
0.940038
0.816579
0.698527
0.584742
0.474293
0.366407
0.260419
0.155741
0.0518293
1.75623
1.5656
1.39816
1.24865
1.11265
0.986787
0.868541
0.756078
0.648045
0.543423
0.441425
0.341418
0.242874
0.145334
0.0483803
1.57831
1.40414
1.25545
1.12455
1.00586
0.895601
0.791249
0.691139
0.594143
0.499474
0.406561
0.314962
0.224323
0.134339
0.0447377
1.36572
1.21719
1.09492
0.988211
0.890633
0.798494
0.709707
0.623077
0.537906
0.453765
0.370376
0.287542
0.205113
0.12296
0.0409688
1.11111
1.00397
0.918813
0.842733
0.769952
0.698026
0.625997
0.553549
0.480631
0.407298
0.333631
0.259715
0.185624
0.111417
0.0371459
0.808459
0.768774
0.733613
0.693946
0.648407
0.597653
0.542699
0.484482
0.423767
0.361158
0.297132
0.232061
0.166247
0.0999371
0.0333432
0.466908
0.529039
0.552909
0.551021
0.53207
0.501471
0.462659
0.417908
0.36879
0.316433
0.261672
0.205147
0.147364
0.0887401
0.0296326
9.84418
9.53223
9.2193
8.90465
8.58738
8.26633
7.93992
7.6059
7.2609
6.8994
6.51155
6.07692
5.54376
4.74472
2.998
9.82772
9.48251
9.13527
8.78445
8.42818
8.06404
7.68877
7.29763
6.88348
6.43468
5.93095
5.33367
4.56232
3.43747
1.56968
9.81172
9.43421
9.05372
8.66803
8.27442
7.86949
7.44862
7.00534
6.53009
6.00808
5.41531
4.71127
3.82635
2.64614
1.02441
9.79639
9.38796
8.97579
8.55709
8.12853
7.68599
7.22402
6.73524
6.20917
5.6306
4.97692
4.21448
3.29543
2.16139
0.775729
9.7819
9.3443
8.9024
8.45298
7.99235
7.51596
7.01804
6.49101
5.9247
5.30528
4.61403
3.82645
2.91379
1.85137
0.642184
9.76839
9.30364
8.83421
8.35667
7.86711
7.36088
6.83226
6.27405
5.67711
5.02985
4.31801
3.52528
2.63615
1.64327
0.560844
9.75594
9.26622
8.77164
8.26869
7.75344
7.22135
6.66703
6.08399
5.46445
4.79925
4.07816
3.29103
2.43056
1.49736
0.506767
9.74459
9.23218
8.71489
8.18925
7.65146
7.09725
6.52172
5.91926
5.28349
4.60746
3.88416
3.1077
2.27548
1.39129
0.468622
9.73436
9.20152
8.66392
8.11824
7.56089
6.98796
6.39512
5.77765
5.13049
4.4485
3.72708
2.9631
2.15647
1.31195
0.440596
9.72522
9.17416
8.61858
8.05533
7.48113
6.89247
6.28562
5.65666
5.00166
4.31693
3.59954
2.8481
2.06377
1.25125
0.419397
9.71712
9.14994
8.57855
8.00003
7.41142
6.80962
6.19146
5.55375
4.89348
4.20803
3.49564
2.75595
1.99064
1.20399
0.403016
9.70998
9.12866
8.54345
7.95174
7.35086
6.73813
6.11087
5.46652
4.80277
4.11783
3.41069
2.68159
1.93233
1.16666
0.390149
9.70375
9.11007
8.51288
7.90982
7.29853
6.67672
6.04214
5.39274
4.72679
4.04304
3.34101
2.62121
1.88543
1.13684
0.379914
9.69833
9.09393
8.48638
7.87359
7.25352
6.62417
5.9837
5.33047
4.66316
3.98094
3.28365
2.57193
1.84743
1.11282
0.37169
9.69364
9.07998
8.46352
7.84243
7.21494
6.57934
5.93412
5.27797
4.60988
3.92932
3.2363
2.53153
1.81646
1.09332
0.365031
9.6896
9.06797
8.44388
7.81572
7.18197
6.5412
5.89214
5.23374
4.56526
3.88635
3.19712
2.49827
1.79108
1.0774
0.359603
9.68613
9.05766
8.42705
7.7929
7.15389
6.50882
5.85664
5.19652
4.52789
3.85053
3.16462
2.47081
1.7702
1.06433
0.355156
9.68316
9.04885
8.41268
7.77344
7.13001
6.48137
5.82666
5.1652
4.49657
3.82064
3.13762
2.44807
1.75296
1.05357
0.351497
9.68063
9.04134
8.40044
7.75689
7.10975
6.45814
5.80136
5.13887
4.47033
3.79568
3.11514
2.4292
1.73869
1.04468
0.348476
9.67847
9.03495
8.39003
7.74285
7.09258
6.4385
5.78003
5.11672
4.44833
3.77482
3.0964
2.41351
1.72685
1.03731
0.345974
9.67664
9.02952
8.3812
7.73095
7.07805
6.42192
5.76206
5.09811
4.42988
3.75737
3.08076
2.40044
1.717
1.03119
0.343898
9.67508
9.02491
8.37372
7.72087
7.06578
6.40793
5.74692
5.08246
4.41441
3.74276
3.06769
2.38954
1.7088
1.0261
0.342171
9.67377
9.02101
8.36739
7.71236
7.05541
6.39613
5.73418
5.06932
4.40143
3.73053
3.05677
2.38044
1.70196
1.02185
0.340732
9.67266
9.01772
8.36204
7.70517
7.04667
6.3862
5.72346
5.05827
4.39054
3.72028
3.04763
2.37284
1.69625
1.01831
0.339532
9.67172
9.01493
8.35753
7.6991
7.0393
6.37783
5.71444
5.04899
4.3814
3.71169
3.03998
2.36648
1.69148
1.01535
0.338531
9.67092
9.01258
8.35372
7.69399
7.03309
6.37078
5.70686
5.0412
4.37374
3.70449
3.03358
2.36116
1.68749
1.01288
0.337694
9.67025
9.01061
8.35051
7.68968
7.02787
6.36486
5.70049
5.03466
4.36731
3.69846
3.02821
2.3567
1.68415
1.01082
0.336994
9.66969
9.00894
8.34781
7.68606
7.02347
6.35988
5.69514
5.02916
4.36191
3.6934
3.02372
2.35298
1.68136
1.00909
0.336409
9.66921
9.00754
8.34553
7.68301
7.01978
6.3557
5.69065
5.02456
4.35739
3.68917
3.01995
2.34985
1.67902
1.00764
0.335919
9.66882
9.00636
8.34362
7.68045
7.01668
6.35219
5.68688
5.02069
4.3536
3.68562
3.0168
2.34724
1.67707
1.00643
0.33551
9.66848
9.00537
8.34202
7.6783
7.01408
6.34925
5.68372
5.01746
4.35043
3.68265
3.01417
2.34506
1.67544
1.00542
0.335168
9.6682
9.00454
8.34068
7.67651
7.01191
6.34679
5.68108
5.01475
4.34778
3.68017
3.01197
2.34324
1.67407
1.00458
0.334882
9.66797
9.00385
8.33956
7.67501
7.01009
6.34473
5.67888
5.0125
4.34556
3.6781
3.01013
2.34172
1.67293
1.00387
0.334644
9.66777
9.00327
8.33863
7.67375
7.00857
6.34302
5.67705
5.01062
4.34372
3.67638
3.0086
2.34045
1.67199
1.00329
0.334446
9.66761
9.00279
8.33785
7.67272
7.00732
6.3416
5.67552
5.00906
4.3422
3.67495
3.00734
2.33941
1.67121
1.00281
0.334283
9.66748
9.0024
8.33722
7.67186
7.00629
6.34043
5.67427
5.00778
4.34095
3.67378
3.0063
2.33855
1.67056
1.00241
0.334148
9.66737
9.00208
8.3367
7.67117
7.00544
6.33948
5.67325
5.00673
4.33992
3.67282
3.00545
2.33785
1.67004
1.00208
0.334038
9.66728
9.00182
8.33628
7.67061
7.00476
6.33871
5.67243
5.00589
4.3391
3.67205
3.00477
2.33728
1.66962
1.00182
0.33395
9.66721
9.00161
8.33595
7.67016
7.00423
6.33811
5.67178
5.00523
4.33845
3.67145
3.00424
2.33684
1.66928
1.00162
0.333881
9.66716
9.00146
8.3357
7.66983
7.00382
6.33765
5.67129
5.00473
4.33796
3.67099
3.00383
2.3365
1.66903
1.00146
0.333828
9.66712
9.00135
8.33552
7.66959
7.00353
6.33732
5.67094
5.00437
4.33761
3.67066
3.00354
2.33626
1.66885
1.00135
0.33379
9.6671
9.00128
8.3354
7.66944
7.00335
6.33712
5.67072
5.00414
4.33738
3.67045
3.00335
2.33611
1.66874
1.00128
0.333766
9.66709
9.00125
8.33535
7.66937
7.00327
6.33702
5.67062
5.00404
4.33728
3.67036
3.00327
2.33604
1.66869
1.00125
0.333756
9.66709
9.00125
8.33536
7.66938
7.00328
6.33704
5.67064
5.00406
4.33731
3.67038
3.00329
2.33605
1.6687
1.00126
0.333758
9.66711
9.0013
8.33543
7.66948
7.0034
6.33717
5.67078
5.0042
4.33745
3.67051
3.0034
2.33615
1.66877
1.0013
0.333773
9.66713
9.00138
8.33557
7.66966
7.00362
6.33742
5.67104
5.00448
4.33771
3.67076
3.00362
2.33633
1.66891
1.00138
0.333802
9.66718
9.00151
8.33577
7.66993
7.00395
6.33779
5.67144
5.00488
4.33811
3.67113
3.00395
2.3366
1.66911
1.00151
0.333844
9.66723
9.00168
8.33605
7.6703
7.0044
6.3383
5.67199
5.00544
4.33865
3.67164
3.0044
2.33698
1.66939
1.00168
0.333902
9.66731
9.0019
8.33641
7.67078
7.00498
6.33896
5.67269
5.00616
4.33936
3.6723
3.00499
2.33746
1.66975
1.00191
0.333978
9.6674
9.00218
8.33686
7.67139
7.00571
6.33979
5.67358
5.00707
4.34025
3.67313
3.00572
2.33807
1.67021
1.00219
0.334073
9.66752
9.00253
8.33742
7.67214
7.00662
6.34081
5.67467
5.00819
4.34135
3.67415
3.00663
2.33882
1.67077
1.00254
0.334191
9.66766
9.00295
8.3381
7.67305
7.00772
6.34206
5.67601
5.00956
4.34269
3.67541
3.00774
2.33974
1.67146
1.00296
0.334335
9.66784
9.00346
8.33893
7.67416
7.00906
6.34357
5.67764
5.01122
4.34431
3.67693
3.00909
2.34086
1.67229
1.00348
0.334509
9.66804
9.00407
8.33993
7.67549
7.01068
6.3454
5.67959
5.01322
4.34627
3.67876
3.01072
2.3422
1.6733
1.0041
0.33472
9.66829
9.00481
8.34112
7.67709
7.01261
6.34758
5.68194
5.01562
4.34863
3.68096
3.01267
2.34382
1.6745
1.00485
0.334973
9.66859
9.00569
8.34255
7.679
7.01493
6.3502
5.68475
5.0185
4.35145
3.6836
3.01501
2.34575
1.67595
1.00574
0.335276
9.66895
9.00674
8.34425
7.68129
7.01769
6.35333
5.6881
5.02194
4.35482
3.68675
3.01781
2.34807
1.67769
1.00681
0.335639
9.66937
9.008
8.34628
7.68401
7.02099
6.35706
5.69211
5.02604
4.35884
3.69052
3.02115
2.35084
1.67976
1.0081
0.336073
9.66988
9.00949
8.3487
7.68725
7.02492
6.36151
5.69688
5.03094
4.36364
3.69502
3.02514
2.35415
1.68224
1.00963
0.336592
9.67048
9.01126
8.35157
7.6911
7.02959
6.3668
5.70256
5.03677
4.36937
3.70038
3.02991
2.3581
1.6852
1.01146
0.337212
9.67119
9.01337
8.35499
7.69569
7.03514
6.37309
5.70933
5.04371
4.37619
3.70678
3.03559
2.36282
1.68873
1.01365
0.337953
9.67203
9.01587
8.35904
7.70113
7.04175
6.38058
5.71738
5.05199
4.38432
3.71441
3.04238
2.36846
1.69295
1.01626
0.338838
9.67304
9.01884
8.36385
7.70759
7.04959
6.38948
5.72696
5.06184
4.39401
3.72351
3.05048
2.37519
1.698
1.01939
0.339897
9.67422
9.02235
8.36955
7.71524
7.05889
6.40005
5.73835
5.07356
4.40556
3.73437
3.06015
2.38323
1.70404
1.02313
0.341164
9.67563
9.02651
8.3763
7.72432
7.06993
6.4126
5.75189
5.08752
4.41932
3.74732
3.07171
2.39285
1.71126
1.02761
0.342683
9.67729
9.03143
8.38429
7.73506
7.08301
6.42749
5.76798
5.10413
4.43572
3.76279
3.08552
2.40436
1.71991
1.03298
0.344503
9.67925
9.03723
8.39372
7.74777
7.0985
6.44515
5.7871
5.12389
4.45528
3.78125
3.10205
2.41815
1.73029
1.03943
0.346689
9.68155
9.04408
8.40485
7.76278
7.11682
6.46607
5.80978
5.1474
4.47859
3.80332
3.12183
2.43468
1.74275
1.04718
0.349318
9.68427
9.05213
8.41797
7.78048
7.13847
6.49085
5.83671
5.17536
4.50639
3.8297
3.14553
2.45454
1.75775
1.05651
0.352487
9.68746
9.06159
8.43339
7.80133
7.16401
6.52015
5.86864
5.20862
4.53956
3.86126
3.17398
2.47844
1.77582
1.06778
0.356316
9.69119
9.07268
8.45147
7.82583
7.1941
6.55475
5.90647
5.24817
4.57913
3.89906
3.20817
2.50724
1.79767
1.08142
0.360957
9.69556
9.08564
8.47264
7.85456
7.22947
6.59557
5.95125
5.29517
4.62637
3.94437
3.24932
2.54204
1.82415
1.098
0.366601
9.70063
9.10073
8.49734
7.88816
7.27096
6.64362
6.00419
5.351
4.68276
3.99876
3.29896
2.58422
1.85636
1.11822
0.373496
9.70652
9.11825
8.52605
7.92732
7.31949
6.70006
6.06669
5.41727
4.75011
4.0641
3.35897
2.63549
1.89572
1.14301
0.381966
9.71332
9.1385
8.5593
7.9728
7.37607
6.76619
6.14033
5.49587
4.83054
4.14273
3.43171
2.69809
1.94405
1.17359
0.392439
9.72112
9.16178
8.59762
8.02539
7.44178
6.8434
6.22688
5.58894
4.9266
4.23746
3.52016
2.77486
2.00378
1.21161
0.405498
9.73004
9.1884
8.64154
8.08589
7.51774
6.93322
6.32831
5.69896
5.04125
4.35174
3.62805
2.86953
2.07815
1.2593
0.421949
9.74016
9.21864
8.69156
8.15506
7.60506
7.03718
6.44671
5.82867
5.17797
4.48977
3.76012
2.987
2.17161
1.31983
0.442949
9.75155
9.25273
8.74812
8.23361
7.70481
7.15682
6.58424
5.98105
5.34073
4.65657
3.92238
3.13382
2.29035
1.39778
0.470212
9.76427
9.29086
8.81154
8.32209
7.81786
7.29354
6.74303
6.15922
5.53393
4.8581
4.1224
3.31876
2.44319
1.50002
0.506406
9.77833
9.33308
8.88199
8.42084
7.94485
7.44845
6.92494
6.36617
5.76222
5.10121
4.36959
3.55364
2.64296
1.63729
0.555929
9.79372
9.37935
8.95943
8.52988
8.08601
7.62217
7.13132
6.6045
6.03014
5.39333
4.67534
3.8543
2.9087
1.82713
0.62663
9.81037
9.42947
9.04355
8.64887
8.24104
7.81463
7.36266
6.87583
6.34142
5.74181
5.05265
4.24144
3.26885
2.09954
0.733969
9.82815
9.48307
9.13375
8.77698
8.40895
8.02483
7.61821
7.18019
6.69796
6.15245
5.51472
4.74063
3.76562
2.50824
0.912394
9.84689
9.53962
9.22912
8.91291
8.58804
8.25065
7.89555
7.51524
7.09842
6.62713
6.07146
5.37934
4.45846
3.15197
1.2498
9.86636
9.59842
9.32843
9.05486
8.77579
8.48877
8.19038
7.87563
7.53668
7.1604
6.72294
6.17689
5.41906
4.20934
2.0021
9.88628
9.65862
9.43024
9.2006
8.96906
8.73476
8.49657
8.25281
8.00085
7.73614
7.44981
7.12147
6.69344
5.95943
4.00228
9.90637
9.71932
9.53291
9.34767
9.16422
8.98344
8.8066
8.63566
8.47385
8.32687
8.20583
8.13527
8.18026
8.55889
10.202
9.92631
9.77956
9.63477
9.49347
9.35751
9.22937
9.11252
9.01216
8.93652
8.89955
8.92675
9.06877
9.43535
10.2802
12.176
9.9458
9.83843
9.73421
9.63555
9.54536
9.46744
9.40698
9.37147
9.3723
9.42764
9.5679
9.84629
10.3583
11.2715
12.8414
0.192028
0.344348
0.41087
0.435642
0.4361
0.420827
0.394726
0.360879
0.32136
0.277634
0.230781
0.181626
0.130825
0.0789182
0.0263753
0.103065
0.236025
0.310732
0.347634
0.359774
0.355031
0.338345
0.312971
0.28116
0.244532
0.204295
0.161386
0.116555
0.0704304
0.0235582
0.0649125
0.168154
0.236845
0.27682
0.295168
0.297525
0.287993
0.269531
0.244304
0.213933
0.179663
0.142478
0.103184
0.0624609
0.0209106
0.0452207
0.124275
0.182897
0.22102
0.241666
0.248273
0.24384
0.230786
0.211018
0.18604
0.157052
0.125034
0.0908034
0.0550653
0.0184509
0.0334364
0.0945824
0.143184
0.177356
0.197912
0.206685
0.205671
0.196702
0.181349
0.16093
0.136545
0.109126
0.079469
0.0482778
0.0161908
0.0256287
0.0736007
0.113491
0.143145
0.16234
0.171891
0.173024
0.167049
0.155196
0.138571
0.118145
0.0947702
0.0691993
0.042112
0.014135
0.0201022
0.0582308
0.0909053
0.116195
0.133464
0.14294
0.145314
0.141475
0.132356
0.118851
0.101792
0.0819384
0.0599822
0.0365634
0.0122827
0.0160173
0.0466479
0.0734472
0.0948135
0.109999
0.118919
0.121916
0.119569
0.112559
0.101598
0.0873796
0.0705657
0.0517803
0.0316132
0.010628
0.0129071
0.0377251
0.0597615
0.0777234
0.0908848
0.0990113
0.102229
0.100898
0.0955058
0.0866056
0.0747685
0.0605616
0.0445374
0.0272307
0.00916128
0.0104886
0.0307337
0.0489047
0.0639664
0.0752657
0.0825108
0.0857013
0.0850457
0.080888
0.0736521
0.0638023
0.051819
0.0381848
0.0233777
0.00787023
0.00857821
0.0251826
0.0402065
0.0528216
0.0624614
0.0688254
0.0718433
0.0716247
0.0684072
0.0625132
0.0543172
0.0442224
0.0326461
0.020011
0.00674086
0.00705117
0.0207286
0.0331809
0.0437424
0.0519315
0.0574628
0.0602322
0.0602856
0.0577843
0.0529724
0.0461502
0.0376543
0.0278425
0.0170851
0.00575836
0.00581916
0.0171252
0.0274681
0.0363104
0.0432466
0.0480178
0.0505068
0.0507202
0.0487655
0.044827
0.0391452
0.0319996
0.0236954
0.0145543
0.00490777
0.00481787
0.0141904
0.0227971
0.0302018
0.0360649
0.0401572
0.042361
0.0426599
0.0411238
0.0378918
0.0331564
0.0271491
0.0201292
0.0123744
0.00417449
0.00399931
0.0117873
0.0189606
0.0251636
0.0301124
0.0336077
0.0355378
0.0358736
0.0346594
0.0320003
0.0280505
0.0230016
0.017073
0.0105035
0.00354469
0.00332698
0.00981097
0.0157977
0.0209961
0.025169
0.0281449
0.0298213
0.0301635
0.0291981
0.0270049
0.0237076
0.0194649
0.0144619
0.00890292
0.00300552
0.00277265
0.00817983
0.0131822
0.0175405
0.0210567
0.0235841
0.0250311
0.025361
0.0245891
0.0227759
0.0200211
0.016456
0.0122366
0.00753729
0.00254523
0.00231419
0.00682972
0.011014
0.0146694
0.017631
0.0197735
0.0210163
0.0213236
0.0207029
0.0192006
0.0168972
0.0139013
0.0103444
0.00637492
0.00215325
0.00193409
0.00570961
0.00921276
0.0122802
0.0147738
0.0165875
0.0176509
0.0179305
0.0174288
0.0161815
0.0142539
0.0117361
0.00873862
0.00538762
0.00182017
0.00161833
0.00477859
0.00771407
0.0102892
0.0123887
0.0139225
0.0148297
0.0150798
0.0146723
0.0136348
0.0120203
0.00990384
0.00737829
0.0045506
0.00153767
0.00135561
0.00400363
0.00646552
0.00862859
0.0103962
0.0116924
0.0124647
0.0126857
0.0123531
0.0114886
0.0101353
0.0083556
0.00622771
0.00384218
0.0012985
0.00113678
0.00335789
0.00542442
0.00724247
0.00873109
0.00982602
0.0104824
0.0106759
0.0104033
0.0096816
0.00854622
0.0070491
0.00525598
0.00324354
0.00109633
0.000954372
0.00281946
0.00455583
0.00608507
0.00733926
0.00826414
0.00882134
0.00898963
0.00876535
0.00816183
0.0072083
0.00594809
0.00443652
0.00273847
0.000925723
0.000802271
0.00237038
0.00383104
0.00511861
0.00617605
0.00695753
0.00743031
0.00757593
0.00739064
0.00688504
0.00608328
0.00502158
0.00374653
0.00231302
0.00078198
0.000675464
0.00199591
0.0032264
0.00431191
0.00520444
0.00586522
0.00626639
0.00639197
0.00623829
0.00581387
0.00513871
0.00424318
0.00316654
0.00195528
0.000661091
0.00056982
0.00168388
0.00272243
0.00363919
0.0043937
0.00495316
0.00529381
0.00540187
0.0052739
0.00491678
0.00434714
0.0035905
0.00268003
0.0016551
0.00055964
0.000481937
0.00142427
0.00230301
0.00307911
0.00371838
0.00419299
0.0044827
0.00457562
0.0044686
0.00416722
0.00368539