/*--------------------------------*- C++ -*----------------------------------*\
| =========                 |                                                 |
| \\      /  F ield         | OpenFOAM: The Open Source CFD Toolbox           |
|  \\    /   O peration     | Version:  5.x                                   |
|   \\  /    A nd           | Web:      www.OpenFOAM.org                      |
|    \\/     M anipulation  |                                                 |
\*---------------------------------------------------------------------------*/
FoamFile
{
    version     2.0;
    format      ascii;
    class       volScalarField;
    location    "11";
    object      gradTx;
}
// * * * * * * * * * * * * * * * * * * * * * * * * * * * * * * * * * * * * * //

dimensions      [0 -1 0 1 0 0 0];

internalField   nonuniform List<scalar> 
6300
(
31.5835
31.9544
32.6896
33.7754
35.1902
36.9027
38.8706
41.0392
43.3405
45.6931
48.0042
50.1731
52.0971
53.6791
54.8364
31.2115
31.589
32.3378
33.4454
34.8914
36.6461
38.6687
40.9054
43.288
45.7334
48.1452
50.4168
52.4377
54.1027
55.321
30.461
30.851
31.6262
32.7758
34.2827
36.1204
38.2515
40.6244
43.1713
45.8062
48.4252
50.9097
53.133
54.9714
56.3171
29.3194
29.727
30.5388
31.748
33.342
35.3002
37.5912
40.1683
42.9654
45.8935
48.8384
51.6624
54.2121
56.3315
57.8828
27.7693
28.1974
29.0531
30.3343
32.0358
34.1462
36.6437
39.4909
42.6273
45.9628
49.371
52.6884
55.72
58.2585
60.1145
25.7899
26.2392
27.1408
28.4993
30.3197
32.6038
35.3455
38.523
42.089
45.958
49.9934
53.9987
57.7196
60.8667
63.1634
23.3601
23.8279
24.7704
26.2013
28.1387
30.6028
33.6103
37.1655
41.2465
45.7855
50.6446
55.5922
60.2916
64.324
67.2613
20.4615
20.9406
21.9108
23.3957
25.4299
28.0573
31.3263
35.2811
39.9448
45.2916
51.2062
57.4324
63.5294
68.8749
72.7698
17.0828
17.5614
18.5355
20.0397
22.1269
24.8691
28.3555
32.6867
37.9587
44.2288
51.4549
59.4004
67.5174
74.8748
80.2713
13.2246
13.6856
14.6291
16.0996
18.168
20.9355
24.5388
29.1506
34.9733
42.2086
50.9831
61.1954
72.2634
82.8342
90.7535
8.9045
9.32649
10.1948
11.5608
13.5088
16.1654
19.7124
24.4025
30.5741
38.648
49.0721
62.1331
77.5051
93.4434
106.012
4.16153
4.52018
5.26189
6.43908
8.14026
10.504
13.7417
18.1721
24.2715
32.7359
44.5227
60.7582
82.1787
107.42
129.637
-0.940904
-0.669982
-0.107316
0.792527
2.10825
3.96791
6.57751
10.2716
15.603
23.5001
35.5234
54.1968
83.0298
124.419
169.751
-6.31501
-6.15265
-5.81446
-5.27067
-4.46847
-3.31895
-1.672
0.732857
4.36791
10.137
19.8725
37.4743
71.3233
137.472
247.961
-11.8522
-11.8118
-11.7279
-11.593
-11.3932
-11.1039
-10.6802
-10.0369
-9.00208
-7.19368
-3.64574
4.50347
27.316
106.181
433.953
55.4907
55.6896
55.5221
54.9958
54.1294
52.9507
51.493
49.7925
47.8858
45.8077
43.5904
41.262
38.8472
36.3667
33.8381
31.2762
28.6935
26.1007
23.507
20.9207
18.349
15.7982
13.2741
10.7817
8.3254
5.90889
3.53531
1.2072
-1.07351
-3.30543
-5.4877
-7.61992
-9.70204
-11.7343
-13.717
-15.6506
-17.5352
-19.3711
-21.158
-22.8955
-24.5832
-26.2207
-27.8076
-29.3441
-30.8307
-32.2685
-33.6592
-35.0048
-36.3078
-37.5706
-38.7955
-39.9843
-41.138
-42.2573
-43.3416
-44.3901
-45.401
-46.3726
-47.3032
-48.191
-49.0346
-49.833
-50.5851
-51.29
-51.9462
-52.5515
-53.1026
-53.595
-54.0224
-54.3773
-54.6509
-54.8337
-54.9154
-54.8864
-54.7375
-54.4607
-54.0501
-53.5014
-52.8126
-51.9844
-51.0194
-49.9229
-48.7025
-47.3682
-45.9326
-44.4105
-42.8191
-41.1775
-39.5062
-37.8265
56.0088
56.2159
56.0377
55.4841
54.578
53.3513
51.8414
50.0883
48.1314
46.0074
43.7492
41.3856
38.9408
36.4351
33.8853
31.3055
28.7074
26.1013
23.4959
20.8993
18.3183
15.7594
13.2281
10.7295
8.26781
5.84684
3.46967
1.13882
-1.14383
-3.37695
-5.55977
-7.692
-9.77376
-11.8055
-13.7876
-15.7208
-17.6053
-19.4413
-21.2287
-22.9669
-24.6552
-26.293
-27.8799
-29.4155
-30.9005
-32.3359
-33.7235
-35.0657
-36.3651
-37.6246
-38.8469
-40.0339
-41.1871
-42.3069
-43.3927
-44.4433
-45.4568
-46.4311
-47.3641
-48.2538
-49.099
-49.8988
-50.6524
-51.3594
-52.0187
-52.6287
-53.1865
-53.6876
-54.1259
-54.4935
-54.781
-54.9782
-55.0742
-55.0583
-54.9207
-54.6528
-54.2481
-53.7021
-53.0128
-52.1805
-51.2081
-50.1006
-48.8657
-47.5135
-46.0564
-44.5097
-42.8908
-41.2197
-39.5177
-37.8075
57.0735
57.2958
57.0922
56.4789
55.4871
54.1582
52.5388
50.6766
48.6165
46.399
44.0589
41.6252
39.1213
36.5662
33.975
31.3602
28.7322
26.1
23.4717
20.8547
18.2555
15.6804
13.1348
10.6237
8.15134
5.72149
3.33719
1.0009
-1.28554
-3.52093
-5.70466
-7.8367
-9.91749
-11.9478
-13.9286
-15.8608
-17.7449
-19.5814
-21.3699
-23.1096
-24.7995
-26.4384
-28.0252
-29.5594
-31.0412
-32.4716
-33.8527
-35.1874
-36.4792
-37.7317
-38.9483
-40.1317
-41.2837
-42.4046
-43.4938
-44.5492
-45.5684
-46.5483
-47.4863
-48.38
-49.2282
-50.0301
-50.7861
-51.4964
-52.1614
-52.7803
-53.3512
-53.87
-54.3304
-54.724
-55.0404
-55.2676
-55.3932
-55.4047
-55.2906
-55.0411
-54.6488
-54.1085
-53.4181
-52.5778
-51.5903
-50.461
-49.1972
-47.8089
-46.3088
-44.712
-43.0372
-41.3055
-39.5406
-37.7675
58.7467
58.9877
58.7355
58.0175
56.8804
55.3822
53.5849
51.5486
49.3271
46.9661
44.5025
41.9648
39.3747
36.7484
34.098
31.4332
28.7623
26.0926
23.4308
20.7837
18.1576
15.5584
12.9914
10.4617
7.97344
5.53033
3.1354
0.791088
-1.50085
-3.73932
-5.92397
-8.05514
-10.1338
-12.1613
-14.1394
-16.0696
-17.9531
-19.7903
-21.5809
-23.3237
-25.0169
-26.6584
-28.246
-29.7784
-31.2553
-32.6777
-34.0481
-35.3704
-36.6493
-37.8898
-39.0968
-40.2742
-41.4242
-42.5475
-43.6426
-44.7067
-45.7357
-46.7253
-47.6714
-48.5711
-49.423
-50.227
-50.9846
-51.698
-52.3695
-53.0004
-53.5901
-54.1355
-54.6303
-55.065
-55.4273
-55.7027
-55.8757
-55.931
-55.8545
-55.6343
-55.2616
-54.7304
-54.0384
-53.186
-52.1762
-51.0142
-49.7072
-48.2649
-46.6994
-45.0262
-43.2648
-41.4386
-39.5747
-37.7026
61.132
61.3886
61.0482
60.1584
58.7925
57.0357
54.9741
52.6861
50.2375
47.68
45.0517
42.379
39.6795
36.9643
34.2408
31.5145
28.7902
26.0729
23.3683
20.6821
18.0206
15.3894
12.7941
10.2397
7.73028
5.26957
2.86058
0.505737
-1.7932
-4.03524
-6.22028
-8.34914
-10.4236
-12.4459
-14.419
-16.3455
-18.2275
-20.0659
-21.8604
-23.6089
-25.3085
-26.9554
-28.5457
-30.0768
-31.5473
-32.9581
-34.3124
-35.6154
-36.874
-38.0956
-39.2875
-40.4553
-41.6026
-42.7301
-43.8355
-44.9139
-45.9591
-46.964
-47.9226
-48.8305
-49.6859
-50.4899
-51.2459
-51.9592
-52.6353
-53.2788
-53.892
-54.4731
-55.0159
-55.5095
-55.9384
-56.2843
-56.5269
-56.6464
-56.6246
-56.4465
-56.1016
-55.5832
-54.889
-54.0202
-52.9805
-51.7753
-50.4115
-48.8976
-47.2445
-45.4669
-43.585
-41.6253
-39.6201
-37.606
64.3916
64.648
64.1506
62.9838
61.2661
59.1269
56.6882
54.0537
51.3036
48.4948
45.6637
42.8309
40.0059
37.1913
34.387
31.5921
28.8071
26.0345
23.2785
20.5447
17.8392
15.1684
12.5378
9.9525
7.41676
4.93413
2.50763
0.139775
-2.16754
-4.41326
-6.59744
-8.72149
-10.7882
-12.8013
-14.7656
-16.6854
-18.5644
-20.4046
-22.2056
-23.9643
-25.6757
-27.3333
-28.9304
-30.4619
-31.9247
-33.3194
-34.6499
-35.9238
-37.1513
-38.3437
-39.512
-40.6653
-41.809
-42.944
-44.0664
-45.1685
-46.2396
-47.2687
-48.246
-49.1646
-50.0222
-50.8211
-51.5681
-52.2731
-52.9472
-53.6003
-54.2392
-54.8649
-55.4717
-56.0462
-56.5685
-57.0137
-57.3547
-57.5644
-57.6187
-57.4984
-57.1905
-56.6882
-55.9903
-55.0999
-54.0223
-52.764
-51.3312
-49.73
-47.968
-46.0572
-44.0169
-41.8768
-39.6776
-37.4675
68.7761
68.9918
68.2157
66.6012
64.3456
61.6483
58.6834
55.5868
52.4533
49.3407
46.2773
43.2708
40.3163
37.4028
34.5187
31.6547
28.8057
25.9717
23.1564
20.3659
17.6077
14.8889
12.2158
9.5937
7.02654
4.51769
2.0701
-0.313462
-2.63064
-4.87989
-7.06117
-9.17639
-11.2297
-13.227
-15.1759
-17.0837
-18.957
-20.7996
-22.6113
-24.3875
-26.12
-27.7977
-29.4093
-30.9454
-32.4
-33.7725
-35.0683
-36.2985
-37.4785
-38.6258
-39.7577
-40.8885
-42.0272
-43.1751
-44.3261
-45.4668
-46.58
-47.6474
-48.653
-49.5858
-50.4421
-51.2262
-51.9501
-52.6309
-53.2884
-53.9416
-54.6045
-55.2832
-55.973
-56.6572
-57.3087
-57.8926
-58.3707
-58.7053
-58.8634
-58.8197
-58.5585
-58.074
-57.3681
-56.4482
-55.3238
-54.0033
-52.4925
-50.7932
-48.9054
-46.8333
-44.5916
-42.2131
-39.7503
-37.2716
74.6791
74.7622
73.4866
71.1406
68.0599
64.5536
60.8671
57.1721
53.572
50.1147
46.808
43.6349
40.5666
37.5714
34.6209
31.6947
28.7821
25.8814
22.9978
20.1403
17.319
14.5432
11.8203
9.15546
6.55213
4.01284
1.54026
-0.862384
-3.19157
-5.44441
-7.61997
-9.72041
-11.7515
-13.7225
-15.645
-17.5315
-19.3936
-21.2386
-23.0676
-24.8736
-26.6427
-28.3567
-29.9966
-31.5457
-32.9929
-34.3354
-35.5806
-36.7449
-37.8521
-38.9295
-40.0043
-41.0998
-42.2312
-43.4014
-44.5997
-45.804
-46.9856
-48.1145
-49.1641
-50.1165
-50.9652
-51.7175
-52.3931
-53.0212
-53.6353
-54.268
-54.9462
-55.6849
-56.4816
-57.3147
-58.1453
-58.923
-59.5924
-60.0996
-60.3979
-60.4533
-60.2474
-59.7777
-59.0534
-58.0904
-56.9066
-55.5161
-53.9248
-52.127
-50.1077
-47.8527
-45.363
-42.67
-39.8455
-36.9937
82.7414
82.4876
80.2974
76.7365
72.3855
67.7171
63.0617
58.6194
54.4843
50.6711
47.1452
43.8473
40.7111
37.6746
34.6873
31.7146
28.7407
25.7658
22.8011
19.862
16.9643
14.1209
11.3407
8.6284
5.98529
3.41178
0.909595
-1.51716
-3.86245
-6.12021
-8.28689
-10.3641
-12.3598
-14.2876
-16.1656
-18.0144
-19.8543
-21.7004
-23.5567
-25.4123
-27.2442
-29.0221
-30.7143
-32.2923
-33.7359
-35.0381
-36.2087
-37.2731
-38.2682
-39.2362
-40.2203
-41.2589
-42.3788
-43.5866
-44.864
-46.1732
-47.4665
-48.6947
-49.8146
-50.7957
-51.6264
-52.3182
-52.9039
-53.4311
-53.9543
-54.5281
-55.2002
-56.0019
-56.9371
-57.9751
-59.0573
-60.1083
-61.0469
-61.7938
-62.2814
-62.4621
-62.3155
-61.8473
-61.0813
-60.0499
-58.7863
-57.3173
-55.6535
-53.7789
-51.6488
-49.2096
-46.4264
-43.3158
-39.9792
-36.5924
94.0643
92.9996
89.0802
83.4685
77.1667
70.8598
64.948
59.6231
54.9316
50.8129
47.1533
43.8258
40.7109
37.7062
34.7317
31.7356
28.6998
25.635
22.5667
19.5237
16.531
13.6073
10.7631
8.00137
5.31801
2.70782
0.170193
-2.2893
-4.65941
-6.92711
-9.08252
-11.1252
-13.0658
-14.9243
-16.728
-18.5099
-20.3058
-22.1471
-24.0463
-25.985
-27.923
-29.8104
-31.5958
-33.2318
-34.6819
-35.9298
-36.9889
-37.9006
-38.7224
-39.5191
-40.3571
-41.3002
-42.3989
-43.6707
-45.0816
-46.5647
-48.0402
-49.43
-50.6641
-51.6908
-52.4869
-53.0707
-53.498
-53.8459
-54.1996
-54.6458
-55.2666
-56.126
-57.2437
-58.5709
-60.0131
-61.4549
-62.7763
-63.8606
-64.6059
-64.9413
-64.8456
-64.3449
-63.4907
-62.3428
-60.9609
-59.398
-57.6849
-55.7981
-53.6343
-51.0609
-47.9607
-44.2863
-40.1845
-35.9888
110.687
107.62
100.298
91.1931
81.9539
73.4325
65.9873
59.7135
54.5526
50.2923
46.6823
43.4972
40.5513
37.6936
34.8063
31.8132
28.6999
25.5087
22.2952
19.1125
15.998
12.9786
10.0664
7.26124
4.54514
1.89922
-0.681821
-3.19021
-5.60381
-7.89567
-10.0404
-12.0331
-13.8897
-15.6397
-17.3215
-18.9848
-20.6918
-22.51
-24.4788
-26.558
-28.6741
-30.7449
-32.6921
-34.4383
-35.9184
-37.0928
-37.9807
-38.6567
-39.2123
-39.742
-40.3419
-41.1165
-42.1692
-43.5539
-45.1947
-46.966
-48.7367
-50.3885
-51.8117
-52.9168
-53.6525
-54.0475
-54.2056
-54.2513
-54.3111
-54.5112
-54.9885
-55.8772
-57.2477
-59.0003
-60.9686
-62.9739
-64.8464
-66.4145
-67.5198
-68.0405
-67.9579
-67.3505
-66.3218
-64.972
-63.3952
-61.6939
-59.9659
-58.2153
-56.2087
-53.67
-50.3212
-45.8717
-40.5246
-35.0142
136.767
128.366
114.082
99.1093
85.7068
74.4546
65.3391
58.2001
52.8758
48.8345
45.5985
42.8233
40.2638
37.7228
35.0324
32.0632
28.8115
25.414
21.9791
18.6023
15.3278
12.1954
9.2153
6.39265
3.67106
0.997089
-1.63851
-4.22764
-6.72347
-9.076
-11.2171
-13.1369
-14.867
-16.453
-17.9413
-19.3967
-20.9174
-22.6555
-24.7521
-27.0776
-29.4901
-31.8569
-34.0772
-36.0275
-37.5946
-38.6678
-39.2772
-39.5856
-39.7387
-39.8632
-40.0745
-40.5319
-41.4607
-43.0675
-45.1191
-47.3676
-49.6036
-51.6757
-53.4163
-54.674
-55.3078
-55.3648
-55.0744
-54.6357
-54.2195
-53.977
-54.117
-54.9339
-56.7005
-59.1184
-61.8698
-64.6834
-67.3539
-69.634
-71.2746
-72.0074
-71.8252
-70.962
-69.6146
-67.9272
-66.0081
-64.0276
-62.2783
-61.0006
-59.5487
-57.4448
-54.2662
-48.7489
-41.0994
-33.2594
181.812
157.582
128.856
104.761
86.3612
72.398
61.8431
54.0725
49.3501
46.2161
43.8502
41.8378
39.9487
37.9663
35.659
32.7195
29.1321
25.3725
21.5786
17.9444
14.4526
11.1923
8.13718
5.37827
2.72823
0.0395713
-2.66216
-5.39944
-8.04946
-10.5607
-12.7122
-14.5137
-16.0518
-17.4065
-18.6084
-19.7141
-20.8295
-22.2846
-24.6951
-27.4714
-30.3713
-33.1794
-35.8505
-38.1681
-39.9812
-40.9098
-41.0064
-40.7375
-40.3055
-39.8586
-39.4519
-39.2679
-39.7751
-41.9399
-44.7592
-47.7864
-50.7058
-53.4391
-55.7155
-57.3286
-57.7929
-57.1815
-56.1559
-54.9868
-53.8769
-52.891
-52.2699
-52.6223
-55.2146
-58.7553
-62.6807
-66.5981
-70.4223
-73.7736
-76.3356
-77.2906
-76.6723
-75.2695
-73.3962
-71.2148
-68.7085
-66.0272
-63.9109
-64.0357
-63.8268
-62.7662
-61.5782
-54.6959
-41.9477
-29.6292
270.424
193.269
136.957
102.212
80.6251
65.4321
54.3366
45.5543
43.5362
42.4905
41.5921
40.6737
39.7672
38.6767
37.1953
34.3081
29.6999
25.3799
20.9474
17.0811
13.2438
9.89339
6.63227
4.20693
1.84089
-0.899203
-3.63466
-6.69686
-9.57516
-12.5636
-14.7109
-16.2697
-17.5005
-18.5798
-19.4137
-20.017
-20.2524
-20.5374
-24.1109
-27.6869
-31.384
-34.6986
-38.1323
-41.0345
-43.6406
-44.3494
-43.2611
-42.1237
-40.8933
-39.7953
-38.5081
-37.0078
-35.702
-39.8691
-44.099
-48.3597
-52.0752
-55.8597
-58.9688
-61.6364
-61.8262
-59.5937
-57.4433
-55.2518
-53.3549
-51.2789
-49.0204
-47.0845
-52.3623
-57.8373
-63.5022
-68.6459
-74.1707
-79.0488
-83.7097
-84.8385
-82.648
-80.2535
-77.6204
-74.9695
-71.6601
-67.2124
-62.3154
-67.5505
-69.3304
-68.2702
-77.0892
-69.0892
-42.1766
-21.0449
473.379
198.94
114.001
80.7147
65.6798
52.5648
43.4979
27.2949
36.3211
38.5521
39.3619
39.4917
39.8495
39.9491
40.755
38.3742
29.8518
25.5487
19.5003
16.1756
11.3335
8.46556
3.92362
2.95004
1.49205
-1.84472
-4.13667
-8.25904
-10.9422
-15.7773
-17.557
-18.4976
-19.1672
-20.106
-20.5509
-20.8493
-19.6034
-14.0543
-23.5226
-27.7277
-32.9467
-36.0457
-41.1788
-44.3266
-50.0315
-50.3761
-45.5858
-43.6429
-41.2896
-40.004
-37.8702
-34.4672
-23.7472
-37.7071
-43.3938
-49.7172
-53.3444
-59.2519
-62.8571
-69.5114
-69.3465
-61.8867
-58.7888
-55.092
-53.0898
-49.9287
-45.3057
-31.1581
-49.2252
-56.645
-65.0733
-70.1441
-78.8495
-84.6355
-96.1687
-97.165
-88.9163
-85.5801
-81.869
-79.6714
-76.2498
-69.0436
-46.1286
-76.04
-78.9229
-59.5473
-116.818
-110.715
-34.0807
0.842267
-35.9954
-34.0455
-32.1774
-30.4173
-28.7854
-27.2964
-25.9591
-24.7779
-23.7539
-22.8854
-22.1696
-21.6028
-21.1814
-20.9024
-20.7635
-35.9446
-33.9633
-32.0689
-30.2885
-28.6423
-27.1443
-25.8025
-24.6205
-23.5979
-22.7324
-22.0202
-21.4571
-21.0388
-20.762
-20.6243
-35.839
-33.7937
-31.8461
-30.025
-28.3505
-26.8355
-25.4859
-24.3031
-23.2846
-22.4259
-21.7216
-21.1661
-20.7544
-20.4823
-20.3471
-35.671
-33.5257
-31.4965
-29.6143
-27.8989
-26.3607
-25.0023
-23.8211
-22.811
-21.9646
-21.2738
-20.7311
-20.33
-20.0656
-19.9342
-35.4273
-33.141
-30.9995
-29.0364
-27.2698
-25.7058
-24.3412
-23.1675
-22.1736
-21.3473
-20.6775
-20.1541
-19.7688
-19.5154
-19.3898
-35.0869
-32.6109
-30.3238
-28.2614
-26.4378
-24.8511
-23.4888
-22.334
-21.368
-20.5734
-19.9346
-19.4386
-19.0754
-18.8373
-18.7194
-34.6173
-31.8916
-29.4228
-27.2471
-25.3687
-23.7714
-22.4287
-21.3111
-20.3909
-19.6434
-19.0485
-18.5903
-18.2565
-18.0386
-17.931
-33.9662
-30.9151
-28.2284
-25.9351
-24.0183
-22.4369
-21.1431
-20.0908
-19.2406
-18.5604
-18.0255
-17.6171
-17.3215
-17.1294
-17.0347
-33.0462
-29.5737
-26.64
-24.2464
-22.3319
-20.8146
-19.6156
-18.6681
-17.9199
-17.3321
-16.8758
-16.5309
-16.2829
-16.1224
-16.0435
-31.702
-27.6931
-24.5112
-22.0783
-20.248
-18.8739
-17.8362
-17.0457
-16.4388
-15.9718
-15.6147
-15.3474
-15.1565
-15.0335
-14.9732
-29.6401
-24.985
-21.6329
-19.3072
-17.7075
-16.5964
-15.8096
-15.2394
-14.8176
-14.5013
-14.2634
-14.0872
-13.9621
-13.8817
-13.8424
-26.2703
-20.9738
-17.7278
-15.8101
-14.678
-13.9945
-13.5659
-13.2845
-13.0908
-12.9521
-12.8504
-12.7758
-12.7228
-12.6887
-12.672
-20.3509
-14.9117
-12.4943
-11.5271
-11.1997
-11.1374
-11.175
-11.2418
-11.3088
-11.3657
-11.41
-11.4424
-11.4646
-11.4782
-11.4847
-9.2165
-5.82743
-5.81045
-6.60414
-7.45602
-8.18036
-8.75485
-9.19854
-9.53674
-9.7918
-9.98146
-10.1191
-10.2146
-10.2747
-10.3037
12.8017
6.62896
1.68415
-1.6229
-3.83979
-5.37304
-6.46534
-7.26067
-7.84767
-8.28315
-8.60475
-8.83791
-8.99989
-9.10212
-9.15158
-16.9655
-17.04
-17.1959
-17.4484
-17.8236
-18.364
-19.1395
-20.2686
-21.9677
-24.6754
-29.4227
-39.162
-64.4069
-150.668
-525.452
-21.5627
-21.7366
-22.1
-22.6866
-23.5549
-24.8013
-26.5846
-29.1746
-33.0548
-39.1518
-49.3899
-68.0901
-105.419
-183.805
-328.888
-26.0394
-26.3021
-26.8496
-27.7295
-29.024
-30.8661
-33.4698
-37.1851
-42.6027
-50.7527
-63.4808
-84.0811
-117.919
-170.624
-233.074
-30.334
-30.6703
-31.3687
-32.4849
-34.1131
-36.4023
-39.5832
-44.0138
-50.2534
-59.1747
-72.105
-90.8792
-117.317
-150.674
-180.627
-34.3953
-34.7872
-35.5979
-36.8849
-38.7434
-41.3194
-44.8289
-49.5865
-56.0418
-64.8126
-76.6709
-92.3555
-111.91
-133.086
-148.98
-38.1848
-38.6135
-39.4966
-40.8881
-42.8757
-45.5885
-49.208
-53.9804
-60.2225
-68.3062
-78.5793
-91.1441
-105.377
-119.164
-128.371
-41.6769
-42.1245
-43.0424
-44.4777
-46.5046
-49.2279
-52.7868
-57.3539
-63.1245
-70.2794
-78.896
-88.7739
-99.1544
-108.423
-114.154
-44.8583
-45.309
-46.2291
-47.6567
-49.65
-52.2873
-55.6654
-59.8917
-65.0654
-71.2375
-78.3367
-86.0544
-93.7036
-100.138
-103.917
-47.727
-48.1677
-49.0636
-50.4431
-52.3482
-54.8323
-57.9549
-61.7716
-66.3131
-71.5517
-77.3479
-83.3823
-89.0964
-93.6958
-96.3044
-50.2898
-50.7106
-51.5623
-52.8645
-54.6445
-56.9339
-59.7627
-63.148
-67.0767
-71.4788
-76.1934
-80.9326
-85.263
-88.6363
-90.503
-52.5604
-52.9543
-53.7484
-54.9543
-56.587
-58.661
-61.1839
-64.1472
-67.5115
-71.1889
-75.0218
-78.7666
-82.094
-84.6229
-85.9977
-54.5577
-54.9203
-55.6486
-56.7479
-58.2233
-60.0764
-62.2995
-64.8677
-67.7289
-70.791
-73.9113
-76.8903
-79.4796
-81.4107
-82.447
-56.3032
-56.6324
-57.2913
-58.2803
-59.5973
-61.2348
-63.1753
-65.385
-67.8067
-70.3527
-72.8988
-75.2845
-77.3222
-78.8199
-79.6157
-57.8203
-58.1155
-58.7049
-59.585
-60.7488
-62.183
-63.8642
-65.7549
-67.7982
-69.9142
-71.9977
-73.9203
-75.5396
-76.7164
-77.337
-59.1323
-59.3946
-59.9166
-60.6927
-61.7126
-62.9597
-64.4078
-66.0188
-67.7392
-69.4984
-71.2083
-72.7665
-74.0644
-74.9991
-75.4891
-60.2624
-60.4933
-60.9519
-61.631
-62.5188
-63.5967
-64.8383
-66.2067
-67.6533
-69.1168
-70.5241
-71.7935
-72.8413
-73.5905
-73.9814
-61.232
-61.434
-61.8341
-62.4246
-63.1929
-64.1201
-65.1807
-66.3403
-67.5557
-68.7742
-69.9356
-70.9744
-71.8256
-72.4306
-72.7452
-62.0616
-62.237
-62.5841
-63.0949
-63.7565
-64.5511
-65.4543
-66.4352
-67.4558
-68.4714
-69.4321
-70.2856
-70.9806
-71.4724
-71.7274
-62.7693
-62.921
-63.2206
-63.6603
-64.2279
-64.9065
-65.6739
-66.5026
-67.3594
-68.2066
-69.0031
-69.7067
-70.2768
-70.6787
-70.8866
-63.3716
-63.5022
-63.7598
-64.1369
-64.6223
-65.2003
-65.8511
-66.5503
-67.2696
-67.977
-68.6387
-69.2204
-69.6899
-70.0197
-70.19
-63.8833
-63.9953
-64.216
-64.5384
-64.9523
-65.4436
-65.9946
-66.5842
-67.188
-67.7793
-68.3298
-68.812
-69.1998
-69.4716
-69.6117
-64.3172
-64.413
-64.6015
-64.8765
-65.2286
-65.6454
-66.1114
-66.6083
-67.1152
-67.6097
-68.0685
-68.469
-68.7903
-69.0149
-69.1306
-64.6847
-64.7664
-64.927
-65.1609
-65.4599
-65.8131
-66.2068
-66.6253
-67.0509
-67.4648
-67.8477
-68.181
-68.4478
-68.634
-68.7297
-64.9954
-65.0649
-65.2015
-65.4002
-65.6537
-65.9526
-66.2849
-66.6373
-66.9948
-67.3415
-67.6614
-67.9392
-68.1612
-68.3159
-68.3953
-65.2579
-65.3169
-65.4329
-65.6014
-65.8161
-66.0687
-66.3492
-66.6459
-66.9462
-67.2368
-67.5044
-67.7363
-67.9212
-68.05
-68.1161
-65.4794
-65.5295
-65.6278
-65.7705
-65.9522
-66.1656
-66.4022
-66.652
-66.9043
-67.148
-67.372
-67.5659
-67.7203
-67.8277
-67.8828
-65.6661
-65.7085
-65.7918
-65.9126
-66.0662
-66.2465
-66.4459
-66.6562
-66.8684
-67.0729
-67.2607
-67.4229
-67.552
-67.6417
-67.6877
-65.8233
-65.8592
-65.9297
-66.0319
-66.1618
-66.3139
-66.4822
-66.6593
-66.8377
-67.0095
-67.167
-67.303
-67.411
-67.4861
-67.5245
-65.9555
-65.986
-66.0456
-66.1321
-66.2418
-66.3703
-66.5122
-66.6614
-66.8116
-66.956
-67.0883
-67.2024
-67.2929
-67.3558
-67.388
-66.0667
-66.0924
-66.1429
-66.216
-66.3088
-66.4174
-66.5371
-66.663
-66.7894
-66.911
-67.0222
-67.1181
-67.1941
-67.2469
-67.2739
-66.1599
-66.1818
-66.2245
-66.2864
-66.3649
-66.4566
-66.5578
-66.664
-66.7707
-66.8732
-66.9668
-67.0475
-67.1115
-67.1558
-67.1785
-66.238
-66.2565
-66.2928
-66.3452
-66.4117
-66.4894
-66.575
-66.6648
-66.7549
-66.8415
-66.9205
-66.9885
-67.0424
-67.0798
-67.0989
-66.3033
-66.319
-66.3498
-66.3943
-66.4507
-66.5167
-66.5892
-66.6653
-66.7417
-66.8149
-66.8818
-66.9393
-66.9849
-67.0165
-67.0326
-66.3576
-66.371
-66.3972
-66.4352
-66.4832
-66.5393
-66.601
-66.6657
-66.7306
-66.7928
-66.8496
-66.8984
-66.937
-66.9638
-66.9775
-66.4027
-66.4141
-66.4366
-66.469
-66.5101
-66.558
-66.6107
-66.666
-66.7214
-66.7744
-66.8229
-66.8645
-66.8974
-66.9203
-66.9319
-66.4398
-66.4497
-66.4689
-66.4968
-66.5322
-66.5734
-66.6187
-66.6662
-66.7138
-66.7593
-66.8009
-66.8366
-66.8649
-66.8844
-66.8945
-66.4701
-66.4786
-66.4953
-66.5195
-66.5502
-66.5859
-66.6252
-66.6663
-66.7075
-66.747
-66.783
-66.8139
-66.8383
-66.8553
-66.8639
-66.4944
-66.5019
-66.5166
-66.5378
-66.5646
-66.5959
-66.6304
-66.6664
-66.7025
-66.7371
-66.7686
-66.7956
-66.817
-66.8318
-66.8394
-66.5135
-66.5202
-66.5332
-66.5521
-66.576
-66.6038
-66.6345
-66.6665
-66.6986
-66.7293
-66.7572
-66.7813
-66.8003
-66.8134
-66.8202
-66.528
-66.534
-66.5459
-66.563
-66.5846
-66.6098
-66.6375
-66.6665
-66.6956
-66.7234
-66.7487
-66.7704
-66.7876
-66.7995
-66.8056
-66.5383
-66.5439
-66.5548
-66.5707
-66.5907
-66.614
-66.6397
-66.6666
-66.6934
-66.7192
-66.7426
-66.7627
-66.7786
-66.7896
-66.7953
-66.5447
-66.55
-66.5604
-66.5754
-66.5945
-66.6167
-66.6411
-66.6666
-66.6921
-66.7165
-66.7388
-66.7579
-66.773
-66.7835
-66.7888
-66.5474
-66.5526
-66.5628
-66.5775
-66.5961
-66.6178
-66.6416
-66.6666
-66.6916
-66.7154
-66.7372
-66.7559
-66.7707
-66.7809
-66.7861
-66.5465
-66.5517
-66.562
-66.5768
-66.5956
-66.6174
-66.6415
-66.6666
-66.6917
-66.7158
-66.7377
-66.7566
-66.7714
-66.7817
-66.787
-66.5419
-66.5473
-66.558
-66.5734
-66.5929
-66.6156
-66.6405
-66.6666
-66.6927
-66.7177
-66.7404
-66.76
-66.7754
-66.7861
-66.7916
-66.5336
-66.5394
-66.5507
-66.5672
-66.5879
-66.6121
-66.6387
-66.6666
-66.6944
-66.7211
-66.7454
-66.7662
-66.7827
-66.7941
-66.7999
-66.5212
-66.5276
-66.54
-66.5579
-66.5806
-66.607
-66.6361
-66.6665
-66.697
-66.7261
-66.7527
-66.7755
-66.7935
-66.806
-66.8124
-66.5044
-66.5115
-66.5253
-66.5453
-66.5706
-66.6001
-66.6326
-66.6665
-66.7005
-66.733
-66.7626
-66.788
-66.8082
-66.8221
-66.8292
-66.4828
-66.4908
-66.5065
-66.5291
-66.5578
-66.5912
-66.628
-66.6664
-66.7049
-66.7418
-66.7754
-66.8043
-66.8271
-66.8429
-66.851
-66.4555
-66.4647
-66.4827
-66.5087
-66.5416
-66.58
-66.6222
-66.6663
-66.7106
-66.7529
-66.7915
-66.8247
-66.8509
-66.8691
-66.8784
-66.4219
-66.4326
-66.4534
-66.4835
-66.5216
-66.5661
-66.615
-66.6662
-66.7175
-66.7666
-66.8114
-66.8499
-66.8804
-66.9015
-66.9123
-66.3809
-66.3934
-66.4176
-66.4528
-66.4972
-66.5491
-66.6062
-66.666
-66.7259
-66.7833
-66.8357
-66.8807
-66.9163
-66.941
-66.9536
-66.3313
-66.3459
-66.3743
-66.4155
-66.4677
-66.5286
-66.5956
-66.6658
-66.7361
-66.8036
-66.8651
-66.918
-66.9599
-66.9889
-67.0037
-66.2716
-66.2887
-66.3222
-66.3707
-66.4321
-66.5038
-66.5827
-66.6654
-66.7484
-66.8279
-66.9005
-66.9629
-67.0124
-67.0466
-67.0642
-66.2
-66.2202
-66.2597
-66.3169
-66.3893
-66.4739
-66.5671
-66.6649
-66.7629
-66.857
-66.9429
-67.0168
-67.0754
-67.116
-67.1368
-66.1145
-66.1383
-66.1849
-66.2525
-66.3381
-66.4382
-66.5484
-66.6642
-66.7803
-66.8918
-66.9937
-67.0814
-67.1509
-67.1991
-67.2238
-66.0123
-66.0405
-66.0957
-66.1755
-66.2768
-66.3953
-66.5259
-66.6631
-66.8009
-66.9333
-67.0543
-67.1585
-67.2412
-67.2986
-67.3279
-65.8907
-65.924
-65.9892
-66.0837
-66.2037
-66.344
-66.4989
-66.6617
-66.8253
-66.9826
-67.1266
-67.2507
-67.3491
-67.4175
-67.4525
-65.7459
-65.7853
-65.8624
-65.9743
-66.1163
-66.2826
-66.4663
-66.6596
-66.8541
-67.0413
-67.2127
-67.3605
-67.478
-67.5595
-67.6013
-65.5738
-65.6203
-65.7116
-65.8439
-66.012
-66.2092
-66.4271
-66.6567
-66.888
-67.1108
-67.3151
-67.4915
-67.6318
-67.7292
-67.7791
-65.3693
-65.4243
-65.5322
-65.6887
-65.8877
-66.1213
-66.3798
-66.6526
-66.9278
-67.1932
-67.4369
-67.6476
-67.8153
-67.9318
-67.9915
-65.1268
-65.1916
-65.319
-65.5039
-65.7393
-66.016
-66.3227
-66.6468
-66.9743
-67.2907
-67.5817
-67.8336
-68.0342
-68.1739
-68.2455
-64.8391
-64.9156
-65.0658
-65.2841
-65.5624
-65.8899
-66.2536
-66.6386
-67.0285
-67.4059
-67.7536
-68.0551
-68.2956
-68.4631
-68.5491
-64.4984
-64.5884
-64.7653
-65.0227
-65.3512
-65.7386
-66.1697
-66.6271
-67.0913
-67.5417
-67.9576
-68.3189
-68.6077
-68.809
-68.9125
-64.0952
-64.2009
-64.4088
-64.7118
-65.0992
-65.557
-66.0676
-66.6108
-67.1636
-67.7015
-68.1995
-68.6331
-68.9804
-69.2229
-69.3476
-63.6186
-63.7425
-63.9864
-64.3423
-64.7984
-65.3386
-65.943
-66.5878
-67.2462
-67.8891
-68.486
-69.0074
-69.4258
-69.7186
-69.8693
-63.056
-63.2008
-63.4862
-63.9034
-64.4392
-65.0757
-65.7902
-66.5554
-67.3397
-68.1085
-68.825
-69.453
-69.9585
-70.3129
-70.4956
-62.3928
-62.5615
-62.8944
-63.382
-64.01
-64.7586
-65.6022
-66.5096
-67.444
-68.3641
-69.2256
-69.9836
-70.596
-71.0265
-71.2488
-61.6125
-61.8083
-62.1952
-62.7633
-63.4972
-64.3755
-65.37
-66.4451
-67.5583
-68.6605
-69.698
-70.6154
-71.3597
-71.8847
-72.1563
-60.6963
-60.9225
-61.3702
-62.0294
-62.8842
-63.9119
-65.0817
-66.3542
-67.6801
-69.0017
-70.2537
-71.3675
-72.2756
-72.9188
-73.2523
-59.623
-59.8829
-60.3983
-61.1596
-62.1511
-63.3495
-64.7223
-66.2261
-67.805
-69.3911
-70.9054
-72.2623
-73.3755
-74.1678
-74.58
-58.3692
-58.666
-59.2558
-60.1301
-61.2743
-62.666
-64.272
-66.0457
-67.925
-69.8304
-71.6665
-73.3261
-74.6983
-75.6807
-76.1938
-56.9094
-57.2458
-57.9158
-58.9131
-60.2258
-61.8337
-63.7052
-65.7921
-68.0267
-70.3177
-72.5502
-74.5896
-76.2917
-77.5195
-78.1638
-55.2161
-55.5939
-56.3486
-57.4771
-58.9722
-60.8186
-62.9887
-65.4361
-68.0893
-70.8456
-73.5678
-76.0871
-78.2144
-79.7633
-80.5811
-53.2605
-53.6804
-54.5219
-55.7867
-57.4746
-59.5787
-62.0796
-64.9371
-68.0803
-71.3971
-74.7264
-77.8568
-80.5387
-82.5147
-83.5663
-51.0134
-51.4743
-52.4013
-53.8027
-55.6882
-58.0634
-60.923
-64.2398
-67.9506
-71.9399
-76.023
-79.9377
-83.3532
-85.908
-87.2816
-48.4462
-48.9448
-49.9512
-51.4826
-53.5617
-56.2118
-59.4489
-63.2687
-67.6276
-72.4175
-77.4365
-82.3653
-86.7651
-90.1214
-91.9506
-45.533
-46.0629
-47.1367
-48.7823
-51.0387
-53.9526
-57.5703
-61.9234
-67.0054
-72.7358
-78.9125
-85.1602
-90.9015
-95.3951
-97.8896
-42.2521
-42.8033
-43.9254
-45.6579
-48.0592
-51.2048
-55.181
-60.0719
-65.9328
-72.7443
-80.3391
-88.3065
-95.9043
-102.057
-105.561
-38.5886
-39.1475
-40.2905
-42.0693
-44.5631
-47.8803
-52.1566
-57.5467
-64.2001
-72.2088
-81.5067
-91.7092
-101.911
-110.557
-115.665
-34.5372
-35.0862
-36.2143
-37.9843
-40.4954
-43.8899
-48.3589
-54.1443
-61.5263
-70.7778
-82.0461
-95.1126
-108.996
-121.515
-129.316
-30.1048
-30.623
-31.6927
-33.3848
-35.8144
-39.1535
-43.6473
-49.6331
-57.5544
-67.9463
-81.3367
-97.9483
-117.029
-135.749
-148.383
-25.313
-25.777
-26.7393
-28.2734
-30.502
-33.6154
-37.8996
-43.7779
-51.8668
-63.0325
-78.3903
-99.0692
-125.311
-154.21
-176.222
-20.1992
-20.5853
-21.3892
-22.6799
-24.5754
-27.2646
-31.0452
-36.3878
-44.0428
-55.2076
-71.7486
-96.3263
-131.749
-177.453
-219.347
-14.8177
-15.1038
-15.7015
-16.6669
-18.098
-20.1562
-23.1062
-27.3921
-33.7815
-43.6495
-59.5259
-86.0519
-131.046
-203.339
-291.563
-9.23809
-9.40627
-9.7587
-10.3309
-11.1856
-12.4287
-14.24
-16.936
-21.1049
-27.9193
-39.9076
-62.9522
-111.386
-218.162
-425.044
-3.54212
-3.58128
-3.66381
-3.79906
-4.00383
-4.30711
-4.75998
-5.45745
-6.59154
-8.59661
-12.6117
-22.2213
-51.2083
-163.467
-702.189
2.18051
2.2733
2.46719
2.78054
3.24586
3.91788
4.88941
6.32367
8.526
12.1214
18.5688
31.9658
66.7961
187.386
734.962
7.83815
8.05712
8.51469
9.25408
10.3515
11.9343
14.2168
17.5707
22.6753
30.8582
44.9226
71.2677
125.244
241.717
463.982
13.3431
13.6747
14.3659
15.4784
17.1194
19.4642
22.7994
27.601
34.6862
45.5097
62.7473
91.3802
140.289
222.579
347.367
41.503
16.9216
7.05291
1.94396
-1.15152
-3.20381
-4.63875
-5.67518
-6.43816
-7.00451
-7.42371
-7.72858
-7.94106
-8.07552
-8.14069
26.2342
16.0612
8.62814
3.78829
0.567933
-1.66046
-3.25493
-4.42365
-5.29327
-5.94422
-6.42937
-6.78419
-7.03258
-7.19028
-7.26686
18.0297
13.298
8.40242
4.50794
1.59852
-0.557323
-2.16672
-3.3798
-4.30018
-4.99902
-5.52547
-5.91364
-6.18701
-6.3613
-6.44615
13.1109
10.6485
7.4814
4.54347
2.10577
0.166345
-1.35372
-2.53918
-3.46091
-4.17349
-4.71755
-5.12274
-5.41019
-5.59437
-5.6843
9.90208
8.48824
6.40116
4.23156
2.26697
0.598789
-0.773059
-1.88168
-2.76684
-3.46494
-4.00602
-4.41355
-4.70504
-4.89284
-4.98484
7.67494
6.79541
5.37817
3.77725
2.2223
0.825443
-0.375196
-1.37933
-2.20264
-2.86539
-3.3872
-3.7849
-4.07183
-4.2578
-4.34921
6.05851
5.47593
4.48267
3.29099
2.06782
0.915824
-0.113788
-1.00255
-1.74992
-2.36369
-2.85454
-3.23314
-3.5087
-3.68839
-3.77702
4.84659
4.44159
3.72492
2.82657
1.8639
0.921206
0.0498102
-0.723962
-1.38996
-1.94733
-2.3998
-2.75289
-3.01212
-3.18217
-3.26635
3.91588
3.62364
3.09329
2.4068
1.64607
0.877067
0.145614
-0.520203
-1.10543
-1.60378
-2.01407
-2.33779
-2.57744
-2.73556
-2.81409
3.18807
2.971
2.57006
2.03855
1.43398
0.806844
0.195834
-0.372402
-0.881228
-1.32136
-1.68843
-1.98104
-2.19935
-2.34418
-2.41635
2.61098
2.44604
2.13747
1.72102
1.23754
0.725413
0.216348
-0.265853
-0.704717
-1.08968
-1.4145
-1.67586
-1.87228
-2.00324
-2.06869
2.1484
2.02078
1.77978
1.45003
1.06099
0.641846
0.218204
-0.189398
-0.565632
-0.899742
-1.18461
-1.41577
-1.59063
-1.70777
-1.76647
1.77443
1.67424
1.48369
1.2202
0.905334
0.561394
0.208919
-0.134724
-0.455794
-0.743998
-0.991994
-1.19477
-1.34906
-1.45286
-1.50501
1.47002
1.39043
1.23824
1.02604
0.769858
0.486865
0.193499
-0.0957257
-0.368773
-0.616169