/*--------------------------------*- C++ -*----------------------------------*\
| =========                 |                                                 |
| \\      /  F ield         | OpenFOAM: The Open Source CFD Toolbox           |
|  \\    /   O peration     | Version:  5.x                                   |
|   \\  /    A nd           | Web:      www.OpenFOAM.org                      |
|    \\/     M anipulation  |                                                 |
\*---------------------------------------------------------------------------*/
FoamFile
{
    version     2.0;
    format      ascii;
    class       volScalarField;
    location    "11";
    object      gradTy;
}
// * * * * * * * * * * * * * * * * * * * * * * * * * * * * * * * * * * * * * //

dimensions      [0 -1 0 1 0 0 0];

internalField   nonuniform List<scalar> 
6300
(
1015.65
1047.14
1079.2
1112.17
1146.42
1182.25
1219.96
1259.79
1301.91
1346.42
1393.34
1442.57
1493.93
1547.1
1601.71
-0.281788
-0.840688
-1.38513
-1.9041
-2.38471
-2.81162
-3.16697
-3.43072
-3.58179
-3.59995
-3.46878
-3.17904
-2.73223
-2.14309
-1.43996
-0.474856
-1.41723
-2.33687
-3.21621
-4.03425
-4.76561
-5.38008
-5.84305
-6.11716
-6.16561
-5.95712
-5.47248
-4.71144
-3.69813
-2.4826
-0.675261
-2.01652
-3.3289
-4.58956
-5.77041
-6.83642
-7.74462
-8.44414
-8.87812
-8.9881
-8.72151
-8.04223
-6.94282
-5.45531
-3.65573
-0.884916
-2.64466
-4.37263
-6.04271
-7.62137
-9.065
-10.3178
-11.3107
-11.963
-12.1871
-11.8985
-11.032
-9.56225
-7.52453
-5.02709
-1.10465
-3.30452
-5.4742
-7.58719
-9.60726
-11.4843
-13.1506
-14.5177
-15.476
-15.8986
-15.6533
-14.625
-12.7494
-10.0533
-6.68399
-1.33381
-3.99456
-6.63243
-9.22454
-11.7361
-14.1143
-16.2826
-18.1335
-19.5245
-20.2778
-20.1909
-19.0649
-16.7572
-13.2551
-8.74899
-1.56984
-4.70743
-7.83632
-10.9424
-13.9979
-16.9542
-19.7317
-22.209
-24.2105
-25.4969
-25.7672
-24.6866
-21.959
-17.4608
-11.4081
-1.80795
-5.42894
-9.06296
-12.7106
-16.359
-19.9726
-23.4807
-26.7602
-29.6113
-31.7317
-32.6943
-31.9548
-28.9314
-23.2208
-14.972
-2.04094
-6.13738
-10.2758
-14.4781
-18.7547
-23.0961
-27.4583
-31.7393
-35.7425
-39.1238
-41.3233
-41.5067
-38.5906
-31.519
-20.0221
-2.25933
-6.80375
-11.4248
-16.171
-21.0853
-26.1987
-31.5168
-36.9957
-42.4953
-47.6974
-51.968
-54.1578
-52.4051
-44.2425
-27.8195
-2.45197
-7.39343
-12.4484
-17.6955
-23.2167
-29.0961
-35.4142
-42.231
-49.5452
-57.202
-64.693
-70.7507
-72.6293
-65.2261
-41.6542
-2.60704
-7.86951
-13.2799
-18.9459
-24.9896
-31.5546
-38.8126
-46.9683
-56.2518
-66.872
-78.8508
-91.5222
-102.135
-102.378
-72.083
-2.71367
-8.19761
-13.8555
-19.8182
-26.241
-33.3197
-41.3129
-50.5773
-61.6213
-75.1825
-92.3151
-114.352
-142.008
-170.065
-160.246
-2.7637
-8.35164
-14.1263
-20.2301
-26.8363
-34.1698
-42.5414
-52.4063
-64.473
-79.9206
-100.875
-131.559
-181.48
-275.628
-492.97
1652.63
1699.25
1745.89
1792.22
1837.95
1882.81
1926.54
1968.92
2009.77
2048.94
2086.28
2121.72
2155.16
2186.54
2215.83
2242.98
2267.98
2290.81
2311.48
2329.98
2346.33
2360.54
2372.63
2382.62
2390.55
2396.45
2400.35
2402.29
2402.3
2400.44
2396.74
2391.23
2383.98
2375
2364.36
2352.08
2338.22
2322.8
2305.87
2287.48
2267.65
2246.45
2223.89
2200.04
2174.93
2148.6
2121.09
2092.44
2062.7
2031.88
2000.03
1967.18
1933.35
1898.58
1862.88
1826.3
1788.85
1750.58
1711.52
1671.69
1631.15
1589.92
1548.04
1505.55
1462.5
1418.91
1374.85
1330.34
1285.44
1240.22
1194.72
1149.02
1103.21
1057.37
1011.59
965.983
920.66
875.735
831.324
787.547
744.52
702.357
661.167
621.051
582.099
544.393
507.999
472.968
439.335
407.115
-0.727118
-0.0562154
0.611387
1.2522
1.84735
2.38361
2.85361
3.25518
3.59036
3.8641
4.08307
4.25456
4.38572
4.48301
4.55197
4.59711
4.62197
4.62935
4.62142
4.59993
4.56635
4.52201
4.46813
4.40588
4.33641
4.26083
4.18024
4.09573
4.00832
3.91903
3.82874
3.73823
3.64809
3.55869
3.47016
3.38237
3.295
3.20762
3.11975
3.03103
2.94133
2.85078
2.75989
2.66946
2.58049
2.4941
2.4113
2.33286
2.25915
2.19005
2.12492
2.06272
2.00203
1.94136
1.87926
1.81459
1.74662
1.6751
1.60023
1.52254
1.4427
1.36126
1.27842
1.19382
1.10643
1.01452
0.915754
0.80739
0.686575
0.550674
0.397603
0.226106
0.0359426
-0.172035
-0.39593
-0.632939
-0.879561
-1.13183
-1.38554
-1.63637
-1.88001
-2.11214
-2.32841
-2.52441
-2.69569
-2.83788
-2.94696
-3.01961
-3.05363
-3.04828
-1.24859
-0.0888174
1.06125
2.15938
3.1724
4.07802
4.86485
5.53095
6.08171
6.52736
6.88067
7.15507
7.36332
7.51664
7.62435
7.69385
7.73083
7.73964
7.72359
7.68539
7.62731
7.55145
7.45976
7.35419
7.2366
7.10888
6.97284
6.83031
6.68307
6.5328
6.38109
6.2293
6.07848
5.92928
5.78191
5.63611
5.49121
5.34631
5.20044
5.05281
4.90305
4.75137
4.59863
4.44628
4.29626
4.15067
4.01146
3.88015
3.7575
3.64333
3.53651
3.43504
3.33631
3.23748
3.13583
3.02922
2.91634
2.79683
2.67121
2.5407
2.40678
2.27075
2.13327
1.99393
1.85106
1.70161
1.54137
1.36531
1.16816
0.944983
0.69187
0.40643
0.0881439
-0.261502
-0.63912
-1.03971
-1.45706
-1.88424
-2.31396
-2.73891
-3.15187
-3.5457
-3.91319
-4.24696
-4.53938
-4.78277
-4.96984
-5.09442
-5.15227
-5.14189
-1.82443
-0.107139
1.58626
3.18949
4.65251
5.94395
7.05039
7.97331
8.72496
9.32414
9.79244
10.1514
10.4206
10.6165
10.7523
10.838
10.8809
10.8863
10.8583
10.8001
10.7145
10.6043
10.4721
10.3205
10.1521
9.96957
9.77549
9.5724
9.36285
9.14935
8.93426
8.71967
8.50723
8.29795
8.09212
7.88925
7.68813
7.48711
7.28435
7.07835
6.86824
6.65418
6.43745
6.22044
6.00633
5.79869
5.6009
5.41562
5.24426
5.08665
4.941
4.80401
4.67135
4.53822
4.4001
4.25345
4.09617
3.92788
3.74978
3.5643
3.37441
3.18284
2.99126
2.7996
2.6056
2.40467
2.19018
1.95404
1.68761
1.38279
1.03307
0.634414
0.185856
-0.310347
-0.848903
-1.42201
-2.02011
-2.63268
-3.24896
-3.85845
-4.45103
-5.01693
-5.54629
-6.02882
-6.45347
-6.80857
-7.08253
-7.26511
-7.34901
-7.33132
-2.47586
-0.0910993
2.24108
4.4215
6.37966
8.07628
9.50026
10.6624
11.5879
12.3095
12.8618
13.2772
13.5835
13.8031
13.9526
14.0439
14.085
14.0813
14.0367
13.9544
13.8375
13.6891
13.5125
13.311
13.0881
12.8471
12.5913
12.324
12.0486
11.7684
11.4869
11.2072
10.9316
10.6619
10.3983
10.1401
9.88517
9.63063
9.3732
9.11004
8.83937
8.56107
8.27695
7.99067
7.70734
7.43276
7.17259
6.93132
6.71146
6.51301
6.33325
6.16701
6.00731
5.84638
5.67691
5.49321
5.2921
5.07327
4.83921
4.59447
4.34467
4.09515
3.84959
3.60888
3.37033
3.12747
2.87037
2.58657
2.26254
1.88545
1.44491
0.934452
0.35237
-0.298016
-1.00874
-1.76814
-2.56213
-3.37558
-4.19358
-5.00214
-5.78846
-6.54059
-7.24667
-7.89387
-8.46755
-8.95106
-9.32667
-9.57778
-9.69189
-9.66354
-3.22131
0.000879461
3.11463
5.97379
8.48365
10.6014
12.3275
13.6925
14.7448
15.5391
16.1287
16.5604
16.8719
17.0911
17.2373
17.3227
17.3542
17.3357
17.2698
17.1591
17.0063
16.815
16.5892
16.3331
16.0509
15.7467
15.4243
15.0879
14.7417
14.3901
14.0378
13.6893
13.3484
13.0176
12.6975
12.3869
12.0824
11.779
11.471
11.1532
10.8222
10.477
10.1202
9.75734
9.39638
9.04676
8.71773
8.41683
8.14848
7.91307
7.70666
7.52121
7.34564
7.16744
6.9748
6.75863
6.51409
6.24118
5.94455
5.63246
5.31508
5.00229
4.70146
4.41553
4.14175
3.87125
3.58946
3.27748
2.91432
2.47988
1.95785
1.33803
0.617626
-0.198414
-1.09813
-2.06411
-3.07574
-4.11159
-5.15144
-6.17753
-7.17479
-8.13026
-9.03152
-9.86449
-10.6112
-11.2486
-11.7498
-12.0875
-12.2397
-12.196
-4.07373
0.248994
4.35474
8.02897
11.1521
13.6905
15.6743
17.1729
18.273
19.0632
19.6229
20.0168
20.2929
20.4841
20.6097
20.6791
20.6952
20.6582
20.5676
20.4242
20.2306
19.9907
19.7096
19.3928
19.0454
18.6722
18.2777
17.8661
17.4425
17.0128
16.5832
16.1606
15.7508
15.3578
14.9832
14.625
14.278
13.934
13.5831
13.2157
12.8253
12.4099
11.9724
11.5214
11.0693
10.6313
10.2226
9.85566
9.53825
9.27159
9.05007
8.86139
8.68797
8.50951
8.30674
8.0651
7.77712
7.44343
7.07235
6.67828
6.27906
5.89239
5.53207
5.20488
4.90865
4.63149
4.35225
4.04227
3.66894
3.20062
2.6118
1.88661
1.02079
0.0218645
-1.09189
-2.29416
-3.55428
-4.84162
-6.12892
-7.39418
-8.62105
-9.79775
-10.9145
-11.9591
-12.912
-13.7422
-14.4083
-14.864
-15.0693
-15.0038
-5.03056
0.809417
6.21597
10.8775
14.662
17.5774
19.7193
21.226
22.2465
22.9185
23.3552
23.6418
23.8356
23.9708
24.0621
24.1112
24.1121
24.057
23.9405
23.7609
23.5206
23.2248
22.8806
22.4955
22.0762
21.6278
21.1546
20.6607
20.1515
19.6342
19.1179
18.6128
18.1281
17.671
17.2443
16.8462
16.4687
16.0984
15.718
15.3105
14.864
14.3737
13.8436
13.2862
12.7213
12.173
11.6665
11.2227
10.8544
10.5646
10.3457
10.1791
10.037
9.88609
9.69419
9.43783
9.1055
8.69911
8.23281
7.73113
7.22455
6.74419
6.31462
5.94934
5.64775
5.39445
5.15899
4.89804
4.56008
4.09465
3.46188
2.63749
1.6154
0.407312
-0.958369
-2.44103
-3.99371
-5.57182
-7.13815
-8.66616
-10.1395
-11.5516
-12.9011
-14.1857
-15.3893
-16.4719
-17.3695
-18.0009
-18.2885
-18.1916
-6.04833
1.9936
9.1495
14.9883
19.4228
22.5773
24.6779
25.978
26.7205
27.1109
27.3022
27.3987
27.4613
27.5189
27.5737
27.6113
27.6078
27.5427
27.4025
27.1834
26.8886
26.5268
26.1087
25.6458
25.147
24.6173
24.0594
23.4756
22.8703
22.2524
21.6348
21.0336
20.4641
19.9384
19.4626
19.0359
18.6473
18.2757
17.8902
17.4601
16.9641
16.3931
15.7527
15.0605
14.3477
13.653
13.019
12.4794
12.056
11.7542
11.5646
11.4601
11.3977
11.3204
11.1733
10.9188
10.5394
10.04
9.44312
8.78997
8.13127
7.52189
7.00361
6.60118
6.31642
6.13087
6.00159
5.86393
5.634
5.22889
4.5872
3.67239
2.47723
1.01909
-0.656956
-2.4876
-4.39701
-6.31939
-8.20296
-10.0171
-11.7466
-13.3957
-14.9815
-16.5292
-18.0408
-19.468
-20.7142
-21.6327
-22.0612
-21.9153
-6.96492
4.45319
13.9789
21.1206
26.0262
29.0943
30.789
31.5322
31.7007
31.5892
31.385
31.2034
31.0933
31.0703
31.1091
31.1694
31.1912
31.1354
30.977
30.7139
30.3523
29.9087
29.4004
28.8467
28.2611
27.6466
27.0007
26.3204
25.6064
24.8693
24.1269
23.408
22.7361
22.1331
21.6094
21.1699
20.8007
20.472
20.126
19.7035
19.1713
18.5119
17.7356
16.8637
15.9472
15.0449
14.235
13.5682
13.082
12.7815
12.6605
12.6801
12.7791
12.8547
12.8063
12.5791
12.1456
11.5206
10.7341
9.85638
8.96654
8.168
7.52539
7.08319
6.84188
6.7859
6.85593
6.96234
6.95987
6.70353
6.10551
5.11076
3.71752
1.94447
-0.133081
-2.42086
-4.78174
-7.12292
-9.36775
-11.49
-13.4695
-15.3308
-17.1167
-18.9244
-20.8137
-22.7243
-24.5307
-25.97
-26.6606
-26.4246
-7.23085
9.63752
22.2411
30.4724
35.275
37.5892
38.2706
37.9151
37.0848
36.2019
35.4361
34.9062
34.6007
34.5336
34.6145
34.7842
34.8875
34.8772
34.7033
34.3875
33.9355
33.3849
32.7589
32.0951
31.4183
30.7226
29.9927
29.2153
28.3774
27.4953
26.5867
25.7165
24.9103
24.2155
23.6364
23.2043
22.8974
22.6947
22.4737
22.1066
21.5632
20.8007
19.8577
18.7328
17.5279
16.3056
15.2463
14.3987
13.8421
13.5518
13.5554
13.7873
14.1956
14.5692
14.6982
14.538
14.0291
13.2351
12.1577
10.9417
9.6717
8.59091
7.75989
7.2772
7.10168
7.26065
7.65903
8.21861
8.65238
8.67123
8.19613
7.12394
5.50571
3.30935
0.694509
-2.24788
-5.19385
-8.06425
-10.7081
-13.1676
-15.3617
-17.3736
-19.2197
-21.2014
-23.5551
-26.1301
-28.875
-31.3847
-32.5939
-32.147
-4.83497
20.9633
36.7995
44.761
48.1063
48.4337
47.2442
44.9802
42.5434
40.6448
39.1465
38.2847
37.7637
37.7826
37.9909
38.4932
38.7462
38.8534
38.6327
38.2561
37.6593
36.9683
36.1707
35.3606
34.6016
33.8465
33.0519
32.1962
31.2108
30.1582
28.9899
27.9317
26.9228
26.13
25.4504
25.0576
24.8428
24.9428
25.0306
24.7626
24.2695
23.3484
22.2407
20.7163
19.1326
17.3307
15.9518
14.8094
14.2177
13.8983
14.1206
14.64
15.6611
16.6351
17.0062
16.998
16.3225
15.3571
13.7804
12.1039
10.1039
8.6536
7.49228
7.02838
6.87938
7.39019
8.22958
9.65562
10.942
11.3498
11.1462
9.92307
8.12606
5.2765
1.99349
-2.07
-5.71496
-9.33195
-12.3141
-15.2272
-17.5164
-19.655
-21.1275
-22.9425
-25.9778
-29.2909
-33.558
-38.6717
-40.9115
-39.8576
8.61086
46.634
62.697
65.6968
65.283
61.4621
57.7643
52.2933
47.2261
44.5104
41.9395
41.1717
40.1482
40.7579
40.9431
42.5603
42.8138
43.3006
42.7854
42.4409
41.5177
40.7042
39.5994
38.5517
37.778
37.0265
36.1977
35.3631
34.1401
32.9867
31.2338
30.0752
28.6231
27.8806
26.8508
26.6536
26.3339
27.2078
28.099
27.7421
27.5912
26.1639
25.2232
22.7846
21.0507
17.7462
16.316
14.4263
14.2009
13.4642
14.2575
14.7695
17.1942
19.5685
19.8596
20.4186
19.0329
18.3589
15.5462
13.7318
9.74412
8.29981
6.22009
6.32579
5.70665
7.04631
7.95508
11.2935
14.4963
14.9087
15.5639
13.5484
12.2618
7.86764
4.4162
-2.49492
-6.27641
-11.5139
-14.0193
-18.1853
-19.8879
-22.8953
-22.5419
-22.9261
-28.0002
-31.0776
-37.0214
-50.0967
-53.9716
-50.9944
72.9385
103.925
107.404
91.5468
87.3647
74.3123
70.8371
59.0246
48.5225
48.1671
42.1358
44.4269
40.1807
44.3442
41.8331
48.5909
46.5453
49.1906
46.6922
47.4587
45.2182
44.8594
42.9459
41.3481
40.9224
40.318
39.3521
39.0892
36.9691
36.6786
32.622
32.6413
29.3021
30.0451
27.0525
28.4264
26.1064
29.4481
32.965
30.4252
32.7514
28.2789
30.3628
23.8387
25.2308
15.4634
17.3422
11.6472
14.9211
10.8272
14.7999
12.1453
18.8005
25.5019
22.3279
26.6397
20.7189
24.4409
15.8749
18.4895
5.72247
8.86155
1.80145
6.6675
1.7138
7.32336
4.1824
13.1269
22.0693
18.1181
23.8278
16.1243
20.8728
9.1016
11.8212
-7.42599
-4.74078
-17.6293
-13.333
-24.69
-20.3801
-30.9744
-22.8937
-16.1558
-32.8973
-28.7359
-30.2149
-74.7692
-76.8978
-68.2134
397.903
200.828
179.95
100.583
122.218
73.3694
95.9138
63.8674
35.2061
59.9957
30.3466
57.094
28.1021
57.5405
29.3743
67.2966
43.5204
62.4859
45.8956
56.805
46.2071
51.2518
45.8359
42.4552
44.3223
44.1283
41.4926
45.4881
37.162
45.7921
28.1394
40.042
24.1012
37.5876
20.9649
35.5169
17.7249
31.4348
46.5512
26.0996
47.7004
20.9514
47.8967
13.4921
45.4792
-3.59105
29.2738
-4.04805
26.2498
-3.42667
24.8849
-3.88614
20.3394
45.6548
14.0155
47.5948
8.51828
48.2165
0.102649
45.3961
-21.2046
24.1095
-19.7914
21.1491
-17.4906
20.2006
-16.9938
14.9629
48.2083
7.41511
51.4062
0.768557
53.2718
-10.5317
50.8581
-43.94
19.2209
-48.491
9.89427
-53.7551
0.589835
-65.9452
-21.3119
24.4248
-67.8942
-18.2719
38.6204
-160.534
-115.394
-96.9861
373.225
338.256
305.217
274.009
244.511
216.582
190.07
164.82
140.672
117.468
95.054
73.2784
51.9942
31.0581
10.3297
-3.00013
-2.89626
-2.74824
-2.56499
-2.35595
-2.13006
-1.89503
-1.65694
-1.42022
-1.18765
-0.960681
-0.739631
-0.523976
-0.312576
-0.103883
-5.05714
-4.87606
-4.6195
-4.30363
-3.94533
-3.5603
-3.1618
-2.76011
-2.36244
-1.97323
-1.59458
-1.22674
-0.868573
-0.517955
-0.172109
-7.20269
-6.93126
-6.54999
-6.08463
-5.56138
-5.00394
-4.43172
-3.8592
-3.29616
-2.74821
-2.21763
-1.70415
-1.20561
-0.718557
-0.238703
-9.47921
-9.09616
-8.56448
-7.92341
-7.21154
-6.4623
-5.70187
-4.94878
-4.21474
-3.50578
-2.82357
-2.16661
-1.53115
-0.911949
-0.302844
-11.9375
-11.4095
-10.6882
-9.83285
-8.89894
-7.93177
-6.96458
-6.01925
-5.10819
-4.23654
-3.40422
-2.60753
-1.8404
-1.09524
-0.363563
-14.6415
-13.9161
-12.9457
-11.8207
-10.6195
-9.40112
-8.20533
-7.05537
-5.96215
-4.92792
-3.94919
-3.01887
-2.12765
-1.26502
-0.419733
-17.6755
-16.6674
-15.3576
-13.8846
-12.3569
-10.8478
-9.40012
-8.03464
-6.75703
-5.56372
-4.44571
-3.39105
-2.38631
-1.41742
-0.470079
-21.1545
-19.7203
-17.9325
-16.003
-14.0757
-12.2327
-10.5126
-8.92591
-7.46751
-6.12414
-4.87881
-3.71326
-2.60908
-1.54826
-0.513235
-25.2376
-23.1264
-20.6489
-18.1192
-15.7098
-13.4948
-11.4915
-9.68874
-8.06286
-6.58643
-5.23208
-3.97403
-2.78845
-1.65329
-0.547827
-30.1366
-26.8981
-23.4174
-20.1148
-17.1492
-14.5448
-12.2698
-10.2746
-8.50864
-6.92655
-5.48898
-4.16228
-2.91737
-1.72859
-0.572604
-36.0806
-30.9118
-26.0072
-21.7732
-18.2271
-15.2654
-12.7681
-10.6309
-8.77048
-7.12206
-5.63493
-4.26866
-2.99012
-1.77109
-0.586592
-43.0727
-34.6607
-27.9263
-22.7433
-18.7203
-15.5213
-12.9062
-10.7102
-8.82021
-7.15618
-5.65992
-4.28727
-3.0033
-1.77904
-0.589254
-49.8341
-36.7316
-28.2935
-22.5531
-18.3893
-15.1933
-12.6249
-10.4836
-8.64379
-7.02243
-5.56123
-4.21715
-2.95672
-1.75248
-0.580631
-49.6472
-34.1376
-25.9625
-20.7862
-17.0901
-14.2373
-11.9164
-9.95515
-8.24886
-6.72844
-5.34532
-4.06332
-2.85392
-1.69351
-0.561413
-2.75872
-8.33604
-14.0981
-20.1861
-26.7717
-34.0787
-42.4166
-52.2411
-64.2657
-79.6899
-100.708
-131.771
-183.057
-281.047
-503.021
-2.70831
-8.18035
-13.8229
-19.7649
-26.1603
-33.2054
-41.1628
-50.4017
-61.4627
-75.1637
-92.7555
-116.033
-146.658
-180.248
-170.605
-2.61941
-7.90615
-13.3397
-19.0285
-25.0976
-31.6983
-39.0188
-47.2966
-56.8258
-67.9349
-80.8533
-95.1931
-108.2
-109.471
-68.4425
-2.49719
-7.52993
-12.6792
-18.0278
-23.6656
-29.6911
-36.2096
-43.3221
-51.0912
-59.449
-67.963
-75.2771
-77.8922
-68.0661
-32.8464
-2.34833
-7.07269
-11.8802
-16.8262
-21.9642
-27.3414
-32.9876
-38.8912
-44.9476
-50.8542
-55.9053
-58.6233
-56.2232
-44.2956
-18.4119
-2.18022
-6.55766
-10.985
-15.4911
-20.0964
-24.8045
-29.5867
-34.354
-38.9076
-42.8533
-45.4677
-45.5234
-41.1699
-30.2166
-11.5747
-2.00028
-6.00793
-10.0349
-14.087
-18.1572
-22.2161
-26.1958
-29.9649
-33.2893
-35.7763
-36.8068
-35.4852
-30.6992
-21.4767
-7.86752
-1.8154
-5.44475
-9.06734
-12.6702
-16.2257
-19.6825
-22.9509
-25.8843
-28.2521
-29.7105
-29.7789
-27.8527
-23.309
-15.783
-5.63657
-1.63151
-4.88621
-8.11341
-11.2861
-14.3628
-17.2795
-19.9387
-22.1962
-23.8463
-24.6097
-24.1359
-22.0377
-17.9897
-11.909
-4.18797
-1.45339
-4.34672
-7.1973
-9.96852
-12.6108
-15.0551
-17.2053
-18.9299
-20.056
-20.368
-19.6206
-17.5767
-14.0817
-9.17391
-3.19416
-1.28461
-3.83688
-6.33624
-8.74041
-10.9963
-13.035
-14.7672
-16.0791
-16.8309
-16.8618
-16.0055
-14.1232
-11.1548
-7.18317
-2.48407
-1.12759
-3.36376
-5.54123
-7.61522
-9.53237
-11.2275
-12.621
-13.6172
-14.1064
-13.9714
-13.1029
-11.4238
-8.92437
-5.6976
-1.96079
-0.983744
-2.93136
-4.81805
-6.59887
-8.22256
-9.62951
-10.7505
-11.5073
-11.8151
-11.5904
-10.763
-9.29415
-7.19898
-4.56618
-1.5658
-0.853694
-2.54125
-4.16834
-5.69158
-7.06319
-8.22996
-9.13298
-9.70895
-9.89358
-9.62798
-8.86845
-7.59933
-5.84689
-3.69
-1.26192
-0.737411
-2.19309
-3.59072
-4.88953
-6.04602
-7.01349
-7.74246
-8.18232
-8.28463
-8.00844
-7.3277
-6.2401
-4.77561
-3.00211
-1.02453
-0.634414
-1.88524
-3.08169
-4.18628
-5.16006
-5.96257
-6.55264
-6.89003
-6.93845
-6.66976
-6.06944
-5.14253
-3.9189
-2.45592
-0.836753
-0.543911
-1.61514
-2.63641
-3.57384
-4.39299
-5.05915
-5.53822
-5.79836
-5.81243
-5.56133
-5.03792
-4.25098
-3.22837
-2.01816
-0.68671
-0.464925
-1.37972
-2.24933
-3.04351
-3.73213
-4.28559
-4.67579
-4.87751
-4.8705
-4.64196
-4.18936
-3.52304
-2.66809
-1.66458
-0.565808
-0.396387
-1.17568
-1.9146
-2.58646
-3.16509
-3.62538
-3.9442
-4.10158
-4.08237
-3.87815
-3.48917
-2.92608
-2.21095
-1.37714
-0.467711
-0.337203
-0.99967
-1.62643
-2.19413
-2.68019
-3.06339
-3.32469
-3.44824
-3.42269
-3.24262
-2.90986
-2.43467
-1.83621
-1.14221
-0.387656
-0.28631
-0.848441
-1.37927
-1.85848
-2.2667
-2.58604
-2.80081
-2.8984
-2.87029
-2.71308
-2.42944
-2.02885
-1.52779
-0.949329
-0.322012
-0.242696
-0.718944
-1.16794
-1.57211
-1.91491
-2.18127
-2.35827
-2.43584
-2.40753
-2.27131
-2.03022
-1.69279
-1.2731
-0.790366
-0.267968
-0.205431
-0.608368
-0.987712
-1.32836
-1.61619
-1.83855
-1.98477
-2.04678
-2.01968
-1.90235
-1.69789
-1.41384
-1.06219
-0.658939
-0.223324
-0.173669
-0.514172
-0.834353
-1.12127
-1.36293
-1.54868
-1.66974
-1.71957
-1.69447
-1.59389
-1.4208
-1.18182
-0.887099
-0.549983
-0.186338
-0.146651
-0.434084
-0.704086
-0.945605
-1.14847
-1.30374
-1.40414
-1.4444
-1.42167
-1.33577
-1.18947
-0.988493
-0.741444
-0.459446
-0.155623
-0.123706
-0.366099
-0.593592
-0.796777
-0.967041
-1.09689
-1.18029
-1.21297
-1.19271
-1.11958
-0.996086
-0.827157
-0.620053
-0.384061
-0.13006
-0.104246
-0.308458
-0.499974
-0.670806
-0.813673
-0.922293
-0.991656
-1.01828
-1.00045
-0.938368
-0.834248
-0.692325
-0.518717
-0.32118
-0.108746
-0.0877559
-0.25963
-0.420717
-0.564248
-0.684081
-0.774949
-0.832691
-0.854466
-0.838924
-0.786336
-0.698656
-0.579491
-0.433993
-0.268641
-0.0909435
-0.0737918
-0.218291
-0.353649
-0.474142
-0.574597
-0.650601
-0.698697
-0.716555
-0.703112
-0.658668
-0.584922
-0.48494
-0.363052
-0.224674
-0.0760495
-0.0619688
-0.183298
-0.296901
-0.397948
-0.482089
-0.54563
-0.585696
-0.600374
-0.588823
-0.551344
-0.489402
-0.405596
-0.303561
-0.187819
-0.0635679
-0.0519564
-0.15367
-0.248869
-0.333491
-0.403882
-0.456955
-0.49032
-0.502403
-0.492535
-0.461002
-0.409062
-0.338908
-0.253587
-0.156872
-0.053089
-0.043471
-0.128564
-0.208181
-0.278913
-0.337699
-0.381962
-0.409718
-0.419672
-0.411287
-0.384829
-0.341368
-0.282749
-0.211522
-0.130831
-0.0442731
-0.0362693
-0.107259
-0.173663
-0.232627
-0.281599
-0.31843
-0.341476
-0.349672
-0.342587
-0.32046
-0.284197
-0.235344
-0.176028
-0.108865
-0.0368373
-0.0301431
-0.0891376
-0.144309
-0.19328
-0.233927
-0.264468
-0.283545
-0.29028
-0.284331
-0.265905
-0.235766
-0.195203
-0.145983
-0.0902742
-0.0305452
-0.0249138
-0.0736706
-0.119259
-0.159711
-0.19327
-0.218466
-0.23418
-0.239696
-0.234736
-0.219483
-0.194571
-0.161071
-0.120444
-0.0744747
-0.0251982
-0.0204278
-0.0604034
-0.0977753
-0.130928
-0.15842
-0.179047
-0.191896
-0.196383
-0.192289
-0.179765
-0.159339
-0.131889
-0.0986122
-0.0609714
-0.0206287
-0.0165527
-0.0489436
-0.0792212
-0.106074
-0.128335
-0.145028
-0.155416
-0.159029
-0.155693
-0.145534
-0.128982
-0.106751
-0.0798108
-0.0493438
-0.0166942
-0.0131735
-0.0389512
-0.0630445
-0.0844089
-0.102115
-0.115387
-0.123639
-0.126501
-0.123833
-0.115742
-0.102568
-0.0848833
-0.0634576
-0.0392316
-0.0132727
-0.0101897
-0.0301281
-0.0487623
-0.0652837
-0.078973
-0.0892311
-0.0956053
-0.0978099
-0.0957398
-0.0894767
-0.0792873
-0.0656124
-0.0490485
-0.0303224
-0.0102584
-0.00751195
-0.0222105
-0.0359469
-0.0481246
-0.0582134
-0.0657717
-0.0704662
-0.0720869
-0.0705571
-0.0659379
-0.0584261
-0.048347
-0.0361406
-0.022342
-0.00755846
-0.00506008
-0.014961
-0.0242135
-0.0324158
-0.0392105
-0.0443004
-0.047461
-0.0485512
-0.0475194
-0.0444071
-0.0393472
-0.0325587
-0.024338
-0.0150455
-0.00508996
-0.00276041
-0.00816168
-0.0132093
-0.0176841
-0.0213913
-0.0241685
-0.0258933
-0.0264886
-0.0259262
-0.0242286
-0.0214683
-0.0177647
-0.0132794
-0.00820928
-0.00277725
-0.000543751
-0.00160786
-0.00260276
-0.00348546
-0.00421763
-0.00476718
-0.00510973
-0.00522971
-0.00512112
-0.00478799
-0.00424426
-0.00351331
-0.00262701
-0.00162432
-0.000549571
0.00165667
0.0048979
0.00792588
0.0106087
0.0128292
0.0144904
0.0155193
0.0158705
0.015528
0.0145064
0.0128498
0.0106302
0.0079446
0.00491061
0.00166117
0.00390715
0.0115517
0.0186942
0.0250237
0.0302643
0.0341868
0.0366187
0.0374521
0.0366487
0.0342417
0.0303346
0.0250971
0.0187581
0.0115951
0.00392251
0.0062755
0.018554
0.0300268
0.0401947
0.0486146
0.0549181
0.0588279
0.0601701
0.0588827
0.0550183
0.0487429
0.0403289
0.0301436
0.0186333
0.00630355
0.008833
0.0261158
0.0422652
0.0565793
0.0684342
0.0773111
0.0828195
0.0847138
0.0829058
0.0774688
0.0686359
0.0567903
0.042449
0.0262405
0.00887712
0.0116565
0.0344644
0.0557779
0.0746711
0.0903211
0.102043
0.10932
0.111828
0.109448
0.102277
0.0906206
0.0749843
0.0560506
0.0346495
0.011722
0.0148308
0.0438504
0.0709707
0.0950146
0.114935
0.12986
0.139132
0.142335
0.139317
0.130199
0.115368
0.0954676
0.0713652
0.0441181
0.0149255
0.0184509
0.0545551
0.0882994
0.118221
0.143017
0.161603
0.173157
0.17716
0.173421
0.162086
0.143636
0.118868
0.0888629
0.0549375
0.0185862
0.0226248
0.0668979
0.108282
0.144985
0.175411
0.198226
0.212423
0.217361
0.212799
0.198913
0.176289
0.145904
0.109082
0.067441
0.0228169
0.0274766
0.0812465
0.131515
0.176107
0.213087
0.240834
0.258118
0.264156
0.25865
0.241806
0.214331
0.177408
0.132648
0.0820154
0.0277487
0.0331501
0.098026
0.158687
0.212515
0.257173
0.290705
0.311621
0.318966
0.312373
0.292079
0.258932
0.214355
0.160289
0.0991132
0.0335347
0.0398124
0.117732
0.190603
0.255289
0.308984
0.349335
0.374544
0.383454
0.375606
0.351276
0.311469
0.257888
0.192866
0.119268
0.0403557
0.0476586
0.140942
0.228202
0.305693
0.370059
0.418476
0.448783
0.459574
0.450283
0.421218
0.373568
0.309363
0.231398
0.143111
0.0484259
0.0569171
0.168332
0.272584
0.36521
0.442205
0.500192
0.536569
0.549637
0.538688
0.504063
0.44716
0.370392
0.277097
0.171395
0.0580005
0.0678551
0.200696
0.325038
0.435578
0.527547
0.596909
0.640538
0.656373
0.64353
0.602375
0.534542
0.442894
0.331409
0.20502
0.0693846
0.080785
0.238959
0.387074
0.518839
0.628584
0.71149
0.763804
0.78302
0.768027
0.719207
0.63846
0.529167
0.396068
0.245064
0.0829444
0.096072
0.284207
0.46046
0.617386
0.748253
0.847311
0.910048
0.933414
0.916009
0.858204
0.762195
0.631966
0.473158
0.292826
0.0991208
0.114142
0.337704
0.547263
0.734025
0.890005
1.00835
1.08362
1.11211
1.09204
1.02372
0.909686
0.754608
0.56519
0.349872
0.118446
0.13549
0.400923
0.649894
0.872033
1.05789
1.19928
1.28968
1.32453
1.30156
1.22099
1.08567
0.901091
0.675201
0.418102
0.141567
0.16069
0.475571
0.77115
1.03523
1.25663
1.42562
1.5343
1.57709
1.55107
1.45626
1.29585
1.07625
0.806881
0.499826
0.169271
0.190403
0.563617
0.914274
1.22806
1.49178
1.69381
1.82466
1.87743
1.84833
1.73706
1.54714
1.28597
0.96472
0.597864
0.202518
0.225385
0.667324
1.08299
1.45565
1.76973
2.01143
2.16923
2.23462
2.20263
2.07247
1.84788
1.53741
1.15422
0.715682
0.242493
0.266499
0.789267
1.28158
1.7239
2.09795
2.38728
2.57796
2.6594
2.62509
2.47342
2.20826
1.83932
1.38214
0.857556
0.29066
0.314713
0.932355
1.51486
2.03955
2.48499
2.83161
3.06253
3.16453
3.12904
2.95317
2.64068
2.2025
1.65687
1.0288
0.348841
0.37111
1.09984
1.78827
2.41022
2.94063
3.35625
3.63661
3.76513
3.73043
3.52778
3.16037
2.64028
1.98883
1.23608
0.419324
0.436873
1.29529
2.10784
2.84445
3.47595
3.9748
4.31611
4.47903
4.44842
4.21677
3.78605
3.16925
2.39112
1.48778
0.505009
0.513278
1.52257
2.48013
3.35164
4.10336
4.70271
5.11945
5.32728
5.30598
5.04397
4.54093
3.81023
2.88032
1.79465
0.609606
0.601665
1.78578
2.91214
3.94201
4.83654
5.55739
6.06782
6.3346
6.33066
6.03849
5.45387
4.58953
3.47767
2.17051
0.737926
0.703392
2.08907
3.41114
4.62631
5.69029
6.55814
7.18533
7.52986
7.55546
7.23604
6.56101
5.54067
4.21062
2.63344
0.896288
0.819768
2.43652
3.98436
5.41557
6.6802
7.72595
8.49908
8.94653
9.01978
8.6805
7.90789
6.70683
5.11514
3.20744
1.09313
0.951961
2.8318
4.63852
6.32046
7.82204
9.08302
10.0389
10.623
10.7705
10.4258
9.55223
8.14422
6.23907
3.92489
1.33994
1.10086
3.27785
5.37929
7.35054
9.13089
10.6519
11.8369
12.6025
12.8629
12.5383
11.5676
9.92678
7.64699
4.83034
1.65267
1.26694
3.77632
6.21042
8.51314
10.6198
12.454
13.926
14.9328
15.3616
15.0992
14.0484
12.153
9.42766
5.98647
2.05405
1.45003
4.32705
7.13272
9.81185
12.2977
14.5074
16.3381
17.6643
18.3401
18.2074
17.1157
14.9553
11.7054
7.48369
2.57743
1.64909
4.92729
8.14284
11.2447
14.1673
16.8241
19.1003
20.8473
21.8799
21.9816
20.9248
18.5142
14.6579
9.45622
3.27341
1.862
5.57098
9.23185
12.8019
16.2214
19.4048
22.2298
24.5263
26.0661
26.5601
25.6739
23.077
18.5445
12.11
4.22215
2.08532
6.24805
10.3838
14.4635
18.4394
22.2342
25.7262
28.7306
30.9782
32.0969
31.6107
28.9838
23.7519
15.773
5.55725
2.31412
6.94378
11.5747
16.1971
20.7831
25.2738
29.561
33.4603
36.6741
38.748
39.0338
36.6995
30.8665
20.9893
7.51643
2.54193
7.63858
12.7713
17.9559
23.1927
28.4544
33.6649
38.6656
43.1613
46.6405
48.2762
46.8445
40.7893
28.7025
10.5588
2.76083
8.30824
13.9319
19.6783
25.5849
31.6703
37.9143
44.2215
50.3539
55.8129
59.6483
60.1999
54.9004
40.6215
15.6664
2.96182
8.92492
15.007
21.2891
27.8528
34.7759
42.1195
49.8984
58.0138
66.1123
73.3002
77.6181
75.2466
59.954
25.2028
3.13538
9.45887
15.9432
22.7043
29.871
37.5891
46.0221
55.3411
65.6851
77.0435
88.9446
99.6808
104.565
92.799
45.6101
3.27228
9.88106
16.6871
23.8377
31.506
39.9055
49.309
60.0716
72.6512
87.5971
105.397
125.806
145.446
150.242
96.5944
3.36456
10.1662
17.1915
24.6114
32.633
41.5244
51.6518
63.5399
77.9734
96.1679
120.037
152.465
196.634
248.27
244.481
3.40644
10.2959
17.4219
24.967
33.1556
42.2847
52.7715
65.24
80.6831
100.797
128.732
170.969
242.634
384.787
729.291
3.39515
10.2612
17.3612
24.8754
33.025
42.1017
52.5147
64.8739
80.1485
99.9941
127.494
169.035
239.681
380.778
725.902
3.33123
10.0639
17.0129
24.3423
32.2503
40.9905
50.9059
62.4825
76.4387
93.8747
116.505
146.889
187.802
235.08
230.034
3.21854
9.71632
16.4001
23.4074
30.8975
39.0629
48.1431
58.438
70.3117
84.1476
100.129
117.43
131.501
125.718
50.1523
-31.479
-25.6502
-21.2831
-17.9031
-15.1787
-12.9071
-10.9603
-9.25384
-7.72883
-6.34232
-5.0616
-3.86071
-2.71816
-1.61544
-0.53594
-11.8072
-16.3608
-16.1555
-14.7413
-13.0787
-11.4413
-9.90292
-8.47486
-7.14847
-5.90929
-4.74189
-3.6314
-2.56395
-1.52655
-0.506893
-5.37195
-10.376
-11.8672
-11.7521
-10.961
-9.90665
-8.76885
-7.6252
-6.50748
-5.42636
-4.38259
-3.37218
-2.38885
-1.42531
-0.473765
-2.92269
-6.83048
-8.69444
-9.23199
-9.02609
-8.42985
-7.63875
-6.75746
-5.841
-4.91744
-4.0001
-3.0941
-2.19999
-1.31573
-0.437844
-1.81895
-4.70426
-6.44267
-7.22814
-7.36212
-7.0883
-6.57121
-5.91407
-5.1794
-4.40416
-3.60968
-2.80774
-2.00428
-1.20171
-0.400394
-1.23784
-3.37444
-4.85261
-5.67663
-5.98129
-5.91561
-5.60085
-5.12448
-4.54591
-3.90418
-3.22441
-2.52241
-1.80792
-1.08681
-0.362572
-0.892185
-2.50183
-3.71677
-4.48573
-4.85759
-4.91582
-4.74268
-4.40581
-3.95623
-3.4306
-2.85455
-2.24572
-1.61614
-0.974064
-0.325376
-0.667857
-1.9033
-2.89061
-3.57056
-3.95164
-4.07666
-3.99815
-3.76538
-3.41933
-2.99199
-2.50743
-1.98342
-1.43301
-0.865907
-0.289612
-0.513154
-1.47707
-2.27785
-2.8629
-3.22348
-3.3788
-3.36071
-3.20357
-2.93884
-2.59309
-2.18769
-1.73944
-1.26147
-0.764121
-0.255878
-0.401777
-1.1641
-1.8149
-2.31108
-2.63783
-2.80132
-2.81981
-2.71644
-2.51459
-2.23558
-1.89767
-1.51609
-1.10336
-0.669896
-0.224582
-0.319026
-0.928579
-1.4593
-1.87692
-2.16552
-2.3245
-2.36352
-2.29766
-2.14391
-1.91895
-1.63797
-1.31435
-0.959651
-0.58389
-0.195957
-0.256065
-0.747793
-1.18222
-1.53233
-1.78321
-1.93098
-1.98003
-1.9399
-1.82267
-1.64119
-1.40786
-1.13419
-0.830553
-0.506332
-0.170094
-0.207268
-0.606791
-0.963684
-1.25664
-1.47248
-1.606
-1.65845
-1.63564
-1.54605
-1.39941
-1.20576
-0.974813
-0.715745
-0.437114
-0.146971
-0.168894
-0.495388
-0.789544
-1.03448
-1.2189
-1.33729
-1.38913
-1.37775
-1.30901
-1.19027
-1.02954
-0.834962
-0.614514
-0.375886
-0.126485
-0.138363
-0.406436
-0.649577
-0.854333
-1.01117
-1.11477
-1.1637
-1.15967
-1.10669
-1.01028
-0.876817