/*--------------------------------*- C++ -*----------------------------------*\
| =========                 |                                                 |
| \\      /  F ield         | OpenFOAM: The Open Source CFD Toolbox           |
|  \\    /   O peration     | Version:  5.x                                   |
|   \\  /    A nd           | Web:      www.OpenFOAM.org                      |
|    \\/     M anipulation  |                                                 |
\*---------------------------------------------------------------------------*/
FoamFile
{
    version     2.0;
    format      ascii;
    class       volScalarField;
    location    "15.8";
    object      T;
}
// * * * * * * * * * * * * * * * * * * * * * * * * * * * * * * * * * * * * * //

dimensions      [0 0 0 1 0 0 0];

internalField   nonuniform List<scalar> 
6300
(
9.98731
9.96324
9.94306
9.92931
9.92442
9.93069
9.95021
9.9848
10.0359
10.1046
10.1914
10.2962
10.4183
10.5564
10.7085
9.98601
9.95935
9.93663
9.92043
9.91324
9.91741
9.93511
9.96823
10.0183
10.0865
10.1734
10.2789
10.4023
10.5423
10.6968
9.98338
9.9515
9.92366
9.90253
9.89067
9.89058
9.90455
9.93465
9.98259
10.0497
10.1366
10.2435
10.3697
10.5136
10.6731
9.9794
9.9396
9.90398
9.87532
9.85633
9.84967
9.85784
9.88318
9.92767
9.99292
10.0799
10.1889
10.3192
10.4693
10.6366
9.97402
9.92351
9.87734
9.83843
9.80965
9.79389
9.79395
9.8125
9.85197
9.91438
10.0011
10.1128
10.2489
10.4077
10.5862
9.96719
9.90307
9.84345
9.79137
9.74993
9.72226
9.71154
9.72088
9.7533
9.81145
9.8974
10.0123
10.1559
10.3265
10.5202
9.95886
9.87811
9.802
9.73367
9.67642
9.63367
9.60902
9.60617
9.62885
9.68066
9.76466
9.88295
10.036
10.2219
10.4362
9.94899
9.84853
9.75274
9.66488
9.58838
9.52697
9.48467
9.46587
9.47525
9.51764
9.59761
9.71882
9.88304
10.0889
10.3308
9.93758
9.81426
9.69555
9.5847
9.48525
9.40113
9.3368
9.29736
9.28862
9.317
9.38925
9.51164
9.68844
9.91977
10.1991
9.92465
9.77538
9.63048
9.49312
9.36677
9.25548
9.16401
9.09813
9.06481
9.07245
9.13073
9.24998
9.43925
9.70259
10.0336
9.91027
9.73211
9.55789
9.3905
9.23322
9.08998
8.96562
8.8663
8.80003
8.77721
8.81119
8.91825
9.11594
9.41774
9.82169
9.8946
9.68488
9.47845
9.27775
9.08562
8.90558
8.74215
8.6014
8.49175
8.42513
8.41853
8.49585
8.68847
9.03067
9.54004
9.87786
9.63437
9.39328
9.15642
8.92593
8.70456
8.49597
8.30537
8.14043
8.01298
7.94193
7.9581
8.11136
8.47636
9.13562
9.86033
9.58144
9.30389
9.02869
8.7571
8.49072
8.2318
7.98367
7.75159
7.54442
7.37807
7.28321
7.32248
7.62773
8.45765
9.84237
9.52716
9.21212
8.89736
8.58305
8.26941
7.95681
7.64589
7.33782
7.03499
6.7427
6.47415
6.26758
6.25438
6.96459
10.8585
11.0012
11.1485
11.2987
11.4501
11.6011
11.7501
11.896
12.0374
12.1735
12.3035
12.4265
12.5421
12.6498
12.7493
12.8403
12.9227
12.9962
13.0608
13.1164
13.1631
13.2008
13.2296
13.2496
13.2608
13.2633
13.2573
13.2428
13.2201
13.1892
13.1502
13.1033
13.0487
12.9864
12.9167
12.8395
12.7552
12.6637
12.5652
12.4599
12.3478
12.2292
12.1041
11.9726
11.835
11.6914
11.5419
11.3866
11.2257
11.0592
10.8874
10.7103
10.528
10.3406
10.1482
9.951
9.74906
9.54255
9.33161
9.11641
8.89712
8.67394
8.44707
8.21669
7.98303
7.74632
7.50677
7.26467
7.02028
6.77394
6.52599
6.27684
6.02694
5.77679
5.52694
5.27796
5.03049
4.78515
4.5426
4.3035
4.06851
3.83824
3.61329
3.39422
3.18152
2.97562
2.77689
2.5856
2.40191
2.22593
10.8494
10.9945
11.1443
11.2969
11.4506
11.6037
11.7546
11.9022
12.0451
12.1824
12.3133
12.4371
12.5533
12.6615
12.7614
12.8527
12.9352
13.0088
13.0735
13.1292
13.1758
13.2135
13.2422
13.262
13.2731
13.2755
13.2693
13.2547
13.2317
13.2006
13.1614
13.1143
13.0595
12.9971
12.9271
12.8498
12.7653
12.6736
12.5749
12.4694
12.3572
12.2383
12.113
11.9814
11.8436
11.6997
11.55
11.3946
11.2335
11.0669
10.8949
10.7176
10.5351
10.3476
10.1551
9.95767
9.75554
9.5488
9.33763
9.12217
8.90262
8.67916
8.45199
8.22132
7.98734
7.75028
7.51037
7.26786
7.02302
6.77616
6.52763
6.27784
6.02723
5.7763
5.5256
5.27574
5.02734
4.78106
4.53757
4.29755
4.06165
3.83053
3.60479
3.385
3.17168
2.96527
2.76615
2.5746
2.3908
2.21484
10.8309
10.981
11.1359
11.2935
11.4519
11.6093
11.764
11.9149
12.0606
12.2003
12.3331
12.4585
12.576
12.6851
12.7857
12.8776
12.9605
13.0343
13.0991
13.1548
13.2014
13.2389
13.2674
13.287
13.2978
13.2998
13.2933
13.2783
13.255
13.2234
13.1839
13.1364
13.0812
13.0184
12.948
12.8704
12.7855
12.6934
12.5944
12.4885
12.3759
12.2566
12.1309
11.9989
11.8607
11.7164
11.5663
11.4105
11.2491
11.0821
10.9099
10.7323
10.5495
10.3617
10.1688
9.97106
9.76852
9.56135
9.34969
9.13373
8.91364
8.68962
8.46188
8.2306
7.99599
7.75827
7.51763
7.27432
7.02858
6.7807
6.53103
6.27994
6.02789
5.77539
5.52301
5.27135
5.02109
4.77291
4.5275
4.28559
4.04787
3.81501
3.58767
3.36643
3.15184
2.94439
2.74448
2.5524
2.36837
2.19247
10.8026
10.9607
11.1236
11.2889
11.4545
11.6185
11.779
11.9349
12.0848
12.2279
12.3636
12.4912
12.6104
12.721
12.8226
12.9152
12.9986
13.0727
13.1377
13.1933
13.2398
13.2771
13.3053
13.3246
13.3349
13.3364
13.3294
13.3138
13.2898
13.2577
13.2175
13.1695
13.1137
13.0503
12.9794
12.9012
12.8157
12.7232
12.6236
12.5172
12.404
12.2841
12.1578
12.0251
11.8863
11.7414
11.5907
11.4344
11.2724
11.105
10.9323
10.7543
10.5711
10.3828
10.1895
9.9912
9.78806
9.58023
9.36785
9.15111
8.93021
8.70534
8.47673
8.24456
8.00904
7.77034
7.52866
7.28418
7.03712
6.78775
6.53637
6.28335
6.02913
5.77425
5.51928
5.26489
5.01178
4.76068
4.51235
4.26755
4.02703
3.79152
3.5617
3.33823
3.12169
2.91263
2.71148
2.5186
2.3342
2.1584
10.764
10.9334
11.1076
11.2838
11.4595
11.6324
11.8008
11.9632
12.1186
12.2662
12.4054
12.5359
12.6573
12.7695
12.8723
12.9658
13.0498
13.1243
13.1894
13.245
13.2913
13.3283
13.3561
13.3748
13.3845
13.3853
13.3775
13.3611
13.3364
13.3034
13.2624
13.2135
13.157
13.0928
13.0212
12.9423
12.8561
12.7629
12.6626
12.5554
12.4414
12.3208
12.1936
12.0601
11.9204
11.7747
11.6232
11.4661
11.3035
11.1355
10.9622
10.7837
10.6
10.4111
10.2172
10.0182
9.81426
9.60553
9.39217
9.17437
8.95236
8.72636
8.4966
8.26327
8.02656
7.78662
7.54361
7.29765
7.04892
6.79761
6.54399
6.28839
6.03127
5.77315
5.51467
5.25653
4.9995
4.7444
4.49206
4.2433
3.99894
3.75978
3.52656
3.29999
3.08075
2.86943
2.66655
2.47253
2.28764
2.112
10.7142
10.8991
11.0886
11.2794
11.4682
11.6528
11.831
12.0016
12.1636
12.3165
12.4598
12.5934
12.7173
12.8313
12.9355
13.0299
13.1145
13.1894
13.2546
13.3101
13.3561
13.3926
13.4198
13.4377
13.4466
13.4466
13.4378
13.4204
13.3946
13.3606
13.3185
13.2686
13.211
13.1459
13.0734
12.9936
12.9066
12.8125
12.7114
12.6033
12.4884
12.3667
12.2385
12.1038
11.963
11.8162
11.6637
11.5056
11.3421
11.1734
10.9995
10.8204
10.6361
10.4466
10.252
10.0522
9.84725
9.63739
9.42276
9.2036
8.98015
8.7527
8.52149
8.28674
8.04862
7.80724
7.5627
7.31504
7.06434
6.81072
6.55436
6.29557
6.03476
5.77251
5.50949
5.2465
4.98439
4.72409
4.46654
4.21265
3.96333
3.71943
3.48178
3.25117
3.02836
2.81404
2.60884
2.41329
2.22774
2.05234
10.6522
10.8579
11.0679
11.2776
11.4832
11.6821
11.8721
12.0522
12.2217
12.3803
12.528
12.665
12.7913
12.9072
13.0127
13.108
13.1932
13.2683
13.3335
13.3888
13.4343
13.4702
13.4966
13.5136
13.5215
13.5203
13.5103
13.4916
13.4645
13.4291
13.3857
13.3345
13.2757
13.2094
13.1359
13.0551
12.9672
12.8722
12.7701
12.661
12.5449
12.422
12.2924
12.1563
12.014
11.8658
11.712
11.5527
11.3882
11.2187
11.0441
10.8644
10.6796
10.4895
10.2941
10.0933
9.88727
9.67601
9.45978
9.23887
9.01361
8.78435
8.55138
8.31497
8.07527
7.83234
7.58618
7.33672
7.0839
6.82768
6.56816
6.30555
6.04027
5.7729
5.50421
5.23511
4.96662
4.69978
4.43569
4.17538
3.91985
3.67003
3.42683
3.1911
2.96369
2.74546
2.53721
2.33962
2.1532
1.97817
10.5766
10.8104
11.0474
11.2815
11.508
11.7239
11.9275
12.118
12.2953
12.4597
12.6117
12.7517
12.8803
12.9978
13.1045
13.2006
13.2862
13.3614
13.4265
13.4814
13.5263
13.5613
13.5867
13.6026
13.6092
13.6066
13.5951
13.5749
13.5461
13.5091
13.4641
13.4113
13.351
13.2834
13.2086
13.1267
13.0378
12.9418
12.8387
12.7285
12.6111
12.4867
12.3554
12.2176
12.0735
11.9234
11.7679
11.6072
11.4416
11.2711
11.0959
10.9157
10.7305
10.5399
10.3438
10.1421
9.93465
9.72168
9.50343
9.2803
9.05274
8.82122
8.58615
8.34785
8.10646
7.862
7.61432
7.36317
7.10825
6.84934
6.58632
6.31933
6.04872
5.77514
5.49947
5.22281
4.94638
4.67148
4.39935
4.13119
3.8681
3.61108
3.36107
3.11899
2.88579
2.6625
2.45018
2.24984
2.06224
1.88774
10.4861
10.7583
11.0311
11.2961
11.5479
11.7835
12.0017
12.2027
12.3874
12.5569
12.7124
12.8549
12.9852
13.1039
13.2114
13.3081
13.394
13.4692
13.5339
13.5882
13.6323
13.6663
13.6904
13.7049
13.71
13.7057
13.6924
13.6702
13.6395
13.6004
13.5534
13.4987
13.4367
13.3675
13.2914
13.2084
13.1185
13.0216
12.9175
12.8061
12.6873
12.5612
12.4279
12.2877
12.1412
11.9889
11.8312
11.6687
11.5017
11.3303
11.1546
10.9742
10.7889
10.5982
10.4016
10.1989
9.9899
9.77483
9.55401
9.328
9.09747
8.8631
8.62549
8.38507
8.14201
7.89622
7.64738
7.39495
7.13829
6.87682
6.61015
6.33823
6.06138
5.78031
5.49609
5.2101
4.92391
4.63911
4.35723
4.07965
3.80755
3.54199
3.28386
3.03405
2.79358
2.5637
2.34588
2.14167
1.95239
1.77868
10.3793
10.7052
11.0258
11.3298
11.6112
11.8679
12.1005
12.3108
12.5012
12.6742
12.8317
12.9754
13.1066
13.2259
13.334
13.431
13.5169
13.592
13.6562
13.7097
13.7526
13.7853
13.8079
13.8207
13.8239
13.8177
13.8023
13.7778
13.7447
13.7032
13.6537
13.5967
13.5325
13.4616
13.384
13.2999
13.2092
13.1116
13.0068
12.8943
12.774
12.6458
12.51
12.367
12.2173
12.0619
11.9014
11.7366
11.568
11.3957
11.2198
11.0398
10.855
10.6648
10.4681
10.2645
10.0538
9.83615
9.61198
9.38212
9.14761
8.90954
8.66879
8.426
8.18138
7.93475
7.68552
7.43274
7.17519
6.9117
6.64147
6.36417
6.08006
5.78994
5.4952
5.19764
4.89938
4.6025
4.30889
4.02014
3.73757
3.46215
3.19464
2.93565
2.68609
2.4475
2.22195
2.01199
1.82012
1.64756
10.2559
10.6596
11.0445
11.396
11.7097
11.9869
12.2312
12.4474
12.6401
12.8135
12.9707
13.114
13.2448
13.3642
13.4724
13.5695
13.6555
13.7303
13.7937
13.8461
13.8876
13.9186
13.9394
13.9502
13.9513
13.9428
13.9249
13.8978
13.8618
13.8172
13.7646
13.7047
13.638
13.5649
13.4858
13.4008
13.3096
13.2119
13.1068
12.9936
12.8718
12.7414
12.6024
12.4555
12.3016
12.1419
11.9776
11.8098
11.6393
11.4663
11.2908
11.112
10.929
10.7404
10.5444
10.3404
10.1277
9.90671
9.67799
9.44284
9.20279
8.95971
8.71494
8.46947
8.22353
7.97693
7.72869
7.47732
7.22056
6.95621
6.68288
6.39983
6.10731
5.80616
5.49829
5.18612
4.87282
4.56111
4.25349
3.9517
3.65724
3.3709
3.09309
2.82361
2.56279
2.3125
2.07554
1.85625
1.66
1.48933
10.1195
10.6409
11.1111
11.5164
11.861
12.1531
12.4025
12.6177
12.8067
12.976
13.1296
13.2703
13.3995
13.5182
13.6264
13.724
13.8102
13.8846
13.9471
13.998
14.0377
14.0665
14.0851
14.0936
14.0923
14.0813
14.0607
14.0305
13.9909
13.9426
13.8859
13.8223
13.7523
13.6769
13.5961
13.5103
13.4193
13.3225
13.2183
13.105
12.9821
12.8489
12.7061
12.554
12.3943
12.2283
12.0587
11.8869
11.7141
11.5405
11.3661
11.1901
11.0111
10.8262
10.6324
10.4284
10.2135
9.98824
9.75314
9.51048
9.26223
9.01217
8.76199
8.5135
8.26655
8.02134
7.77628
7.52954
7.27676
7.01356
6.73818
6.44906
6.14689
5.83201
5.50748
5.17616
4.84389
4.51379
4.18962
3.87265
3.56519
3.2673
2.9795
2.69906
2.42427
2.15827
1.90366
1.66729
1.46305
1.29597
9.99064
10.6959
11.2709
11.7244
12.0876
12.3805
12.623
12.8256
13.0014
13.1611
13.3069
13.4432
13.5692
13.6874
13.7957
13.895
13.9815
14.056
14.117
14.1661
14.2031
14.2292
14.245
14.2509
14.2471
14.2337
14.2101
14.1766
14.1327
14.0796
14.0173
13.949
13.8745
13.7963
13.7133
13.6274
13.5373
13.4437
13.3428
13.2303
13.1068
12.9702
12.8231
12.6634
12.4958
12.3196
12.143
11.9651
11.7901
11.6155
11.4439
11.2723
11.1017
10.9249
10.7347
10.5322
10.314
10.0839
9.83907
9.58611
9.32416
9.06474
8.80653
8.55521
8.30697
8.06548
7.8262
7.5904
7.3479
7.08838
6.8132
6.51703
6.20471
5.87168
5.52641
5.16751
4.81181
4.45787
4.11535
3.77987
3.4593
3.14916
2.85528
2.56635
2.27309
1.98763
1.70548
1.43204
1.21258
1.05412
9.9655
10.9383
11.6054
12.0625
12.4154
12.6803
12.901
13.0718
13.2194
13.3659
13.498
13.6307
13.75
13.8705
13.9777
14.084
14.1702
14.2464
14.3042
14.3512
14.384
14.4067
14.4189
14.4219
14.4157
14.4004
14.3735
14.3376
14.2875
14.2298
14.157
14.0842
14.0021
13.9223
13.8345
13.7504
13.6599
13.5755
13.4839
13.371
13.2503
13.1067
12.9578
12.7843
12.6093
12.4115
12.2289
12.0391
11.8655
11.6859
11.5215
11.3529
11.201
11.0429
10.8545
10.6586
10.4314
10.2006
9.9366
9.67455
9.38231
9.11544
8.84102
8.5924
8.33754
8.10634
7.871
7.6608
7.44343
7.18567
6.91834
6.60817
6.29229
5.92889
5.56487
5.15419
4.77711
4.38546
4.0309
3.66556
3.33836
3.00753
2.7239
2.43986
2.11063
1.8122
1.49473
1.11903
0.874277
0.740305
10.5133
11.621
12.2422
12.5503
12.8698
13.0437
13.2505
13.3515
13.4388
13.5915
13.6879
13.8372
13.9292
14.0727
14.1607
14.3021
14.3733
14.4629
14.5069
14.5566
14.5792
14.5991
14.6061
14.6061
14.5971
14.5839
14.5495
14.5189
14.4532
14.4016
14.2967
14.2326
14.1262
14.0598
13.9502
13.8824
13.7736
13.7174
13.6556
13.5228
13.4266
13.2506
13.128
12.9069
12.7558
12.4812
12.3252
12.0895
11.9495
11.7341
11.6054
11.409
11.3093
11.2043
10.985
10.8302
10.5537
10.365
10.0312
9.80637
9.40384
9.17693
8.83826
8.63846
8.33397
8.15308
7.87952
7.74142
7.59706
7.29665
7.08512
6.70743
6.44824
5.98693
5.67048
5.09241
4.76335
4.25961
3.96191
3.49628
3.22259
2.79792
2.5931
2.3784
1.90378
1.6642
1.36778
0.617467
0.376429
0.312478
2.04079
1.84971
1.66913
1.49853
1.33724
1.1845
1.0395
0.901392
0.769311
0.642398
0.519809
0.400718
0.284321
0.169834
0.0564851
2.02988
1.83918
1.65914
1.4892
1.32866
1.17674
1.0326
0.895354
0.764133
0.638066
0.516304
0.398019
0.282409
0.168693
0.0561059
2.00788
1.81796
1.63903
1.47045
1.31146
1.1612
1.01878
0.883282
0.753792
0.629424
0.509316
0.39264
0.278599
0.166421
0.0553508
1.97442
1.78574
1.60855
1.44209
1.2855
1.13781
0.998034
0.86519
0.738322
0.616512
0.498888
0.384623
0.272925
0.163037
0.0542267
1.92889
1.74201
1.5673
1.40386
1.25062
1.10649
0.970342
0.841113
0.717784
0.599407
0.485098
0.374032
0.265436
0.158576
0.0527448
1.87047
1.68608
1.51478
1.3554
1.20663
1.06716
0.935723
0.811124
0.692286
0.578227
0.468058
0.360968
0.256209
0.153082
0.0509208
1.79802
1.61704
1.45032
1.2963
1.15333
1.0198
0.89425
0.775366
0.662
0.55315
0.447933
0.345568
0.245348
0.146621
0.0487766
1.71002
1.53371
1.37314
1.22614
1.09056
0.96445
0.8461
0.73408
0.627191
0.524432
0.424952
0.328019
0.232989
0.139277
0.0463404
1.60441
1.43464
1.28237
1.14454
1.01832
0.901324
0.79161
0.687652
0.588246
0.492428
0.399418
0.308565
0.219309
0.131156
0.0436476
1.47845
1.31805
1.17715
1.05132
0.936855
0.830901
0.731353
0.636666
0.545704
0.45761
0.371722
0.287508
0.204526
0.122387
0.0407415
1.32839
1.18193
1.05686
0.94673
0.84686
0.754062
0.666225
0.581949
0.500287
0.420581
0.342347
0.265218
0.188895
0.113123
0.0376725
1.14922
1.0244
0.921604
0.831867
0.749782
0.672253
0.597529
0.52461
0.45291
0.382073
0.311864
0.242119
0.172712
0.103537
0.0344974
0.934761
0.844822
0.773287
0.709342
0.648138
0.587631
0.52702
0.466045
0.404666
0.342931
0.280912
0.218679
0.156295
0.0938138
0.0312772
0.680025
0.646834
0.61737
0.584066
0.545791
0.503105
0.45687
0.407877
0.356774
0.304071
0.25017
0.195386
0.139975
0.0841446
0.0280743
0.392712
0.445112
0.465284
0.463756
0.447848
0.422122
0.389473
0.351816
0.310477
0.266405
0.220306
0.17272
0.124072
0.0747144
0.0249491
9.82586
9.47726
9.12773
8.77656
8.42287
8.06558
7.7032
7.33362
6.9537
6.55833
6.1385
5.67566
5.12331
4.33231
2.69817
9.81105
9.43254
9.05216
8.66847
8.27975
7.8838
7.47762
7.05692
6.6152
6.14199
5.61907
5.01189
4.24878
3.17046
1.43225
9.79667
9.38913
8.97887
8.56387
8.14165
7.70913
7.26212
6.7948
6.29857
5.76016
5.15813
4.45641
3.59311
2.46687
0.948468
9.7829
9.34759
8.90889
8.46426
8.01071
7.54449
7.06072
6.55276
6.01122
5.4225
4.76643
4.01311
3.12005
2.03559
0.727556
9.76989
9.3084
8.84301
8.37085
7.88855
7.39204
6.87612
6.33402
5.75662
5.13159
4.44225
3.66685
2.77988
1.75958
0.608777
9.75777
9.27192
8.78185
8.28447
7.77627
7.25306
6.7097
6.13977
5.5351
4.88534
4.17782
3.39805
2.53232
1.57417
0.536356
9.7466
9.23836
8.72575
8.20561
7.6744
7.12805
6.56174
5.96966
5.34487
4.6792
3.96356
3.18895
2.34892
1.44409
0.488168
9.73643
9.20785
8.67489
8.13442
7.58304
7.01691
6.43166
5.82225
5.18302
4.50777
3.79025
3.02527
2.21053
1.34949
0.454154
9.72726
9.18038
8.62923
8.07081
7.50192
6.91905
6.31834
5.69556
5.04619
4.36567
3.6499
2.89613
2.1043
1.27869
0.42915
9.71907
9.15587
8.58861
8.01447
7.43051
6.83358
6.22035
5.58732
4.93098
4.24805
3.53594
2.79342
2.02153
1.2245
0.410229
9.71181
9.13418
8.55276
7.96496
7.3681
6.75942
6.13609
5.49527
4.83424
4.1507
3.44309
2.71109
1.95622
1.18229
0.395603
9.70543
9.11513
8.52134
7.92173
7.3139
6.69545
6.06399
5.41723
4.75313
4.07007
3.36717
2.64464
1.90413
1.14895
0.384111
9.69985
9.09849
8.49397
7.8842
7.26706
6.6405
6.0025
5.35125
4.68518
4.0032
3.30488
2.59069
1.86223
1.12232
0.374968
9.69499
9.08404
8.47026
7.85178
7.22678
6.59348
5.95023
5.29555
4.62828
3.94769
3.25361
2.54665
1.82827
1.10085
0.367621
9.6908
9.07155
8.4498
7.8239
7.19226
6.55338
5.90588
5.24859
4.58064
3.90153
3.21129
2.51053
1.80058
1.08343
0.361671
9.68718
9.0608
8.43222
7.8
7.16277
6.51926
5.86833
5.20904
4.54074
3.86311
3.17626
2.48081
1.7779
1.0692
0.35682
9.68408
9.05158
8.41716
7.77958
7.13764
6.49029
5.83657
5.17575
4.50732
3.83108
3.1472
2.45626
1.75923
1.05752
0.352845
9.68142
9.0437
8.40431
7.76217
7.11628
6.46574
5.80976
5.14774
4.47932
3.80436
3.12306
2.43593
1.74383
1.0479
0.349574
9.67915
9.03698
8.39335
7.74737
7.09816
6.44496
5.78713
5.12419
4.45585
3.78204
3.10296
2.41906
1.73107
1.03995
0.346873
9.67722
9.03126
8.38405
7.7348
7.0828
6.42739
5.76805
5.10439
4.43617
3.76338
3.0862
2.40503
1.72048
1.03336
0.344637
9.67559
9.0264
8.37615
7.72416
7.06981
6.41256
5.75198
5.08774
4.41967
3.74778
3.07222
2.39334
1.71168
1.02789
0.34278
9.6742
9.02228
8.36945
7.71515
7.05883
6.40005
5.73844
5.07375
4.40584
3.73472
3.06054
2.3836
1.70434
1.02334
0.341236
9.67302
9.01879
8.36379
7.70753
7.04956
6.3895
5.72705
5.06199
4.39423
3.72378
3.05077
2.37546
1.69823
1.01954
0.33995
9.67202
9.01585
8.35901
7.7011
7.04174
6.38061
5.71746
5.05211
4.38449
3.71461
3.04259
2.36866
1.69312
1.01638
0.338877
9.67118
9.01336
8.35497
7.69567
7.03515
6.37312
5.70939
5.04381
4.37632
3.70693
3.03575
2.36297
1.68886
1.01373
0.337981
9.67047
9.01125
8.35156
7.6911
7.02959
6.36683
5.70261
5.03684
4.36946
3.70049
3.03002
2.35821
1.68529
1.01152
0.337232
9.66987
9.00948
8.34869
7.68725
7.02492
6.36153
5.69692
5.03099
4.36371
3.6951
3.02523
2.35423
1.6823
1.00967
0.336607
9.66937
9.00799
8.34628
7.68401
7.02099
6.35707
5.69213
5.02608
4.35889
3.69058
3.02121
2.3509
1.67981
1.00813
0.336083
9.66895
9.00674
8.34424
7.68128
7.01769
6.35333
5.68811
5.02196
4.35484
3.68679
3.01784
2.34811
1.67772
1.00683
0.335645
9.66859
9.00568
8.34254
7.67899
7.01492
6.3502
5.68474
5.0185
4.35146
3.68361
3.01502
2.34577
1.67597
1.00575
0.335279
9.66829
9.0048
8.3411
7.67707
7.01259
6.34756
5.68192
5.01561
4.34862
3.68096
3.01267
2.34382
1.67451
1.00485
0.334973
9.66804
9.00406
8.3399
7.67546
7.01064
6.34536
5.67956
5.01319
4.34625
3.67874
3.0107
2.34219
1.67329
1.00409
0.334718
9.66783
9.00344
8.3389
7.67412
7.00902
6.34352
5.67759
5.01117
4.34427
3.67689
3.00906
2.34083
1.67227
1.00346
0.334505
9.66766
9.00292
8.33807
7.673
7.00766
6.34199
5.67594
5.00949
4.34262
3.67535
3.00769
2.3397
1.67142
1.00294
0.334328
9.66751
9.0025
8.33737
7.67208
7.00654
6.34072
5.67458
5.0081
4.34126
3.67407
3.00656
2.33876
1.67072
1.00251
0.334182
9.66739
9.00214
8.3368
7.67131
7.00562
6.33968
5.67346
5.00695
4.34014
3.67302
3.00563
2.33799
1.67015
1.00215
0.334061
9.66729
9.00186
8.33634
7.67069
7.00486
6.33882
5.67255
5.00602
4.33922
3.67217
3.00487
2.33736
1.66968
1.00186
0.333963
9.66722
9.00162
8.33596
7.67018
7.00425
6.33814
5.67181
5.00526
4.33848
3.67148
3.00426
2.33686
1.6693
1.00163
0.333884
9.66715
9.00144
8.33567
7.66979
7.00377
6.3376
5.67123
5.00467
4.3379
3.67093
3.00378
2.33646
1.669
1.00144
0.333822
9.66711
9.0013
8.33544
7.66949
7.00341
6.33718
5.67079
5.00422
4.33746
3.67052
3.00341
2.33616
1.66878
1.0013
0.333774
9.66707
9.0012
8.33528
7.66927
7.00315
6.33689
5.67047
5.00389
4.33714
3.67022
3.00315
2.33594
1.66861
1.0012
0.333741
9.66705
9.00114
8.33518
7.66913
7.00298
6.3367
5.67027
5.00369
4.33694
3.67004
3.00298
2.3358
1.66851
1.00114
0.333719
9.66704
9.00111
8.33513
7.66907
7.00291
6.33661
5.67018
5.00359
4.33685
3.66995
3.00291
2.33574
1.66846
1.00111
0.333709
9.66704
9.00111
8.33514
7.66908
7.00292
6.33663
5.67019
5.00361
4.33686
3.66996
3.00292
2.33575
1.66847
1.00112
0.333711
9.66706
9.00115
8.3352
7.66916
7.00302
6.33674
5.67032
5.00373
4.33698
3.67008
3.00302
2.33583
1.66853
1.00115
0.333724
9.66708
9.00123
8.33532
7.66932
7.00321
6.33696
5.67055
5.00397
4.33722
3.67029
3.00321
2.33599
1.66865
1.00123
0.333749
9.66712
9.00134
8.3355
7.66956
7.0035
6.33729
5.6709
5.00433
4.33757
3.67062
3.0035
2.33623
1.66883
1.00134
0.333786
9.66717
9.00149
8.33574
7.66989
7.00389
6.33773
5.67138
5.00482
4.33805
3.67107
3.0039
2.33656
1.66908
1.00149
0.333837
9.66724
9.00168
8.33606
7.67031
7.00441
6.33831
5.672
5.00545
4.33867
3.67165
3.00441
2.33699
1.6694
1.00169
0.333904
9.66732
9.00193
8.33646
7.67085
7.00505
6.33904
5.67278
5.00625
4.33945
3.67238
3.00506
2.33752
1.6698
1.00194
0.333988
9.66742
9.00223
8.33695
7.67151
7.00585
6.33995
5.67375
5.00724
4.34042
3.67329
3.00587
2.33819
1.67029
1.00224
0.334092
9.66755
9.00261
8.33755
7.67231
7.00683
6.34105
5.67493
5.00845
4.34161
3.6744
3.00685
2.339
1.6709
1.00262
0.334219
9.6677
9.00306
8.33828
7.67329
7.00801
6.34239
5.67637
5.00992
4.34304
3.67574
3.00804
2.33999
1.67164
1.00307
0.334373
9.66788
9.0036
8.33916
7.67447
7.00944
6.344
5.67809
5.01169
4.34478
3.67736
3.00948
2.34117
1.67253
1.00362
0.334559
9.66811
9.00425
8.34022
7.67588
7.01115
6.34593
5.68017
5.01381
4.34686
3.67931
3.0112
2.3426
1.6736
1.00428
0.334783
9.66837
9.00503
8.34148
7.67757
7.0132
6.34825
5.68265
5.01636
4.34935
3.68164
3.01327
2.34431
1.67488
1.00508
0.335051
9.66868
9.00596
8.34299
7.67959
7.01564
6.35101
5.68562
5.01939
4.35232
3.68442
3.01574
2.34636
1.67641
1.00602
0.335371
9.66906
9.00707
8.34478
7.682
7.01855
6.35431
5.68915
5.02302
4.35588
3.68775
3.01869
2.34881
1.67824
1.00716
0.335755
9.6695
9.00839
8.34692
7.68486
7.02202
6.35824
5.69337
5.02735
4.36012
3.69173
3.02222
2.35174
1.68043
1.00851
0.336214
9.67003
9.00996
8.34946
7.68827
7.02616
6.36292
5.6984
5.0325
4.36518
3.69647
3.02643
2.35523
1.68305
1.01013
0.336762
9.67066
9.01182
8.35248
7.69232
7.03107
6.36848
5.70438
5.03864
4.37121
3.70212
3.03146
2.3594
1.68617
1.01206
0.337416
9.67141
9.01403
8.35606
7.69713
7.0369
6.3751
5.7115
5.04595
4.3784
3.70887
3.03746
2.36438
1.6899
1.01438
0.338199
9.6723
9.01665
8.36031
7.70284
7.04383
6.38296
5.71997
5.05466
4.38697
3.71691
3.04462
2.37033
1.69436
1.01714
0.339135
9.67335
9.01976
8.36535
7.70961
7.05206
6.39231
5.73004
5.06503
4.39718
3.72651
3.05317
2.37744
1.6997
1.02045
0.340255
9.67459
9.02344
8.37132
7.71763
7.06182
6.4034
5.742
5.07736
4.40934
3.73796
3.06338
2.38594
1.70608
1.0244
0.341597
9.67606
9.02778
8.37838
7.72713
7.07338
6.41657
5.75623
5.09204
4.42384
3.75163
3.07559
2.39611
1.71373
1.02915
0.343205
9.67779
9.03292
8.38672
7.73837
7.08708
6.43218
5.77312
5.10951
4.44112
3.76795
3.09019
2.40829
1.7229
1.03485
0.345137
9.67983
9.03897
8.39656
7.75164
7.10328
6.45068
5.79318
5.13029
4.46173
3.78745
3.10768
2.42291
1.73391
1.04169
0.34746
9.68223
9.04609
8.40816
7.76729
7.12242
6.47258
5.81698
5.15501
4.4863
3.81076
3.12863
2.44046
1.74716
1.04994
0.35026
9.68505
9.05446
8.42179
7.78572
7.145
6.49848
5.84521
5.18441
4.51561
3.83866
3.15377
2.46157
1.76313
1.0599
0.353643
9.68835
9.06426
8.43779
7.80739
7.1716
6.52908
5.87865
5.21937
4.55059
3.87206
3.18397
2.48702
1.78243
1.07195
0.357743
9.69221
9.07573
8.45651
7.8328
7.20289
6.56517
5.91824
5.26092
4.59234
3.91211
3.22034
2.51777
1.80583
1.08659
0.362728
9.6967
9.08908
8.47836
7.86252
7.23958
6.60766
5.96505
5.31027
4.64219
3.96017
3.2642
2.55503
1.83428
1.10445
0.368819
9.70191
9.10458
8.50376
7.89716
7.2825
6.65758
6.02031
5.36886
4.70171
4.01791
3.31722
2.60032
1.86904
1.12635
0.376298
9.70793
9.12249
8.53318
7.9374
7.33255
6.71606
6.08543
5.43834
4.7728
4.08739
3.38148
2.65561
1.91172
1.15335
0.385545
9.71484
9.1431
8.56709
7.98394
7.39069
6.78436
6.16197
5.52062
4.8577
4.17109
3.45961
2.72341
1.96446
1.18691
0.397073
9.72273
9.16667
8.60597
8.03748
7.4579
6.86382
6.25167
5.61789
4.95903
4.27206
3.5549
2.80699
2.03011
1.229
0.411591
9.73169
9.19344
8.65026
8.09872
7.53519
6.9558
6.3564
5.73258
5.07987
4.39401
3.67154
2.9107
2.11259
1.28241
0.430116
9.74178
9.22365
8.70036
8.16828
7.62349
7.06169
6.47807
5.86733
5.22373
4.54136
3.81481
3.04028
2.21735
1.35116
0.454159
9.75305
9.25743
8.75655
8.24666
7.72361
7.18272
6.61857
6.0249
5.3945
4.7194
3.99141
3.20347
2.35215
1.4413
0.486061
9.76552
9.29486
8.819
8.33416
7.83611
7.31989
6.77957
6.20797
5.59631
4.93416
4.20962
3.41068
2.52827
1.56226
0.529688
9.77918
9.33591
8.88768
8.43085
7.96122
7.47379
6.9623
6.41884
5.83319
5.19223
4.47951
3.67584
2.76246
1.72945
0.591927
9.79396
9.3804
8.96233
8.53641
8.0987
7.64438
7.16722
6.659
6.10847
5.50012
4.81253
4.0172
3.07971
1.9692
0.686341
9.80975
9.42801
9.04244
8.65015
8.24771
7.83081
7.39372
6.92853
6.4239
5.86301
5.22038
4.45726
3.51709
2.32865
0.843125
9.82642
9.47829
9.12721
8.77093
8.40677
8.03125
7.63971
7.22544
6.77839
6.28267
5.71189
5.02027
4.12687
2.89441
1.1393
9.84374
9.53061
9.21558
8.89719
8.57369
8.24282
7.90147
7.54509
7.16666
6.75444
6.28729
5.72338
4.9721
3.8231
1.79899
9.8615
9.58426
9.30627
9.02698
8.74573
8.46166
8.17365
7.88006
7.57838
7.26435
6.92986
6.5566
6.09351
5.3595
3.55163
9.87942
9.63841
9.39786
9.15813
8.91971
8.68323
8.44969
8.22063
7.99865
7.78845
7.59933
7.45216
7.40302
7.64161
8.98159
9.89724
9.69224
9.48887
9.28838
9.09232
8.90275
8.72261
8.55626
8.41072
8.29789
8.23965
8.27962
8.5127
9.15884
10.7158
9.91469
9.74494
9.57788
9.41553
9.2604
9.11572
8.98592
8.87744
8.80005
8.7694
8.81172
8.97295
9.33548
10.0435
11.3133
0.161539
0.289737
0.34576
0.366646
0.367062
0.354231
0.332277
0.303798
0.270538
0.233734
0.194293
0.152912
0.110143
0.066443
0.022206
0.0867142
0.198607
0.261498
0.292578
0.302817
0.298842
0.28481
0.263462
0.236691
0.205861
0.17199
0.135868
0.0981273
0.0592954
0.0198338
0.0546212
0.141505
0.199324
0.232982
0.248439
0.250435
0.242422
0.22689
0.20566
0.180097
0.15125
0.119948
0.0868679
0.0525847
0.0176043
0.0380546
0.104585
0.153928
0.186022
0.203408
0.208978
0.205254
0.194272
0.177636
0.156613
0.132213
0.10526
0.0764437
0.0463575
0.0155332
0.0281394
0.0796007
0.120508
0.149274
0.166582
0.173972
0.173124
0.165578
0.152658
0.135472
0.114947
0.091866
0.0669005
0.0406426
0.0136302
0.0215695
0.0619446
0.0955197
0.120481
0.136642
0.144685
0.145643
0.140616
0.130642
0.116649
0.0994563
0.0797797
0.0582541
0.0354513
0.0118994
0.0169189
0.04901
0.076512
0.0977995
0.112338
0.120316
0.122317
0.119089
0.111414
0.100048
0.0856891
0.0689767
0.0504941
0.0307799
0.0103399
0.0134811
0.0392621
0.0618191
0.0798041
0.0925877
0.100098
0.102622
0.100648
0.0947491
0.0855234
0.0735556
0.0594024
0.0435891
0.0266124
0.0089468
0.0108636
0.0317526
0.0503008
0.0654201
0.0764992
0.0833408
0.086051
0.0849313
0.0803937
0.0729027
0.0629391
0.0509804
0.0374916
0.0229229
0.007712
0.00882812
0.0258684
0.0411631
0.0538412
0.0633527
0.069452
0.0721385
0.0715875
0.0680886
0.0619984
0.0537076
0.0436206
0.0321436
0.0196793
0.00662513
0.00722029
0.0211962
0.0338422
0.0444608
0.0525753
0.0579326
0.0604736
0.0602903
0.0575825
0.0526217
0.0457229
0.0372256
0.027481
0.016845
0.00567438
0.00593504
0.0174475
0.0279289
0.036819
0.0437122
0.0483685
0.0507001
0.0507455
0.0486404
0.0445903
0.0388479
0.0316965
0.0234373
0.0143819
0.00484729
0.00489808
0.0144146
0.0231205
0.0305635
0.0364021
0.0404184
0.0425138
0.0426938
0.0410487
0.0377337
0.0329512
0.0269364
0.0199462
0.0122515
0.00413125
0.00405531
0.0119444
0.0191889
0.0254218
0.0303571
0.033802
0.0356572
0.0359091
0.0346162
0.0318959
0.0279099
0.0228533
0.0169442
0.0104165
0.00351398
0.00336633
0.00992173
0.0159598
0.0211811
0.0253468
0.0282891
0.0299139
0.0301968
0.0291748
0.0269367
0.023612
0.0193621
0.0143716
0.00884159
0.00298383
0.00280044
0.00825825
0.0132976
0.0176733
0.0211859
0.0236909
0.0251021
0.0253903
0.0245778
0.0227317
0.0199563
0.016385
0.0121736
0.00749425
0.00252997
0.00233386
0.00688533
0.0110961
0.0147647
0.0177245
0.0198521
0.0210701
0.0213479
0.0206982
0.019172
0.0168532
0.0138522
0.0103004
0.00634471
0.00214252
0.00194798
0.00574895
0.00927106
0.0123481
0.0148411
0.0166446
0.0176908
0.0179496
0.0174271
0.0161626
0.0142236
0.0117018
0.0087077
0.00536628
0.00181257
0.00162806
0.00480616
0.00775501
0.0103371
0.0124362
0.013963
0.0148581
0.0150935
0.0146713
0.0136214
0.0119987
0.00987929
0.00735607
0.00453525
0.0015322
0.00136229
0.00402254
0.00649359
0.00866134
0.0104286
0.0117198
0.0124835
0.0126941
0.0123511
0.0114777
0.0101187
0.00833707
0.00621107
0.00383071
0.00129442
0.00114117
0.00337029
0.00544273
0.00726363
0.00875166
0.00984281
0.0104929
0.010679
0.0103991
0.0096713
0.00853209
0.00703394
0.00524264
0.00323444
0.00109311
0.000956989
0.0028268
0.0045665
0.00609702
0.00735021
0.00827199
0.00882454
0.00898747
0.00875804
0.00815048
0.00719466
0.00593432
0.00442478
0.0027306
0.000922954
0.000803472
0.00237366
0.00383549
0.00512294
0.00617884
0.0069575
0.00742661
0.00756832
0.0073795
0.00687142
0.00606865
0.00500769
0.00373511
0.00230552
0.000779367
0.000675473
0.00199574
0.00322555
0.00430962
0.00519995
0.00585793
0.00625599
0.00637862
0.00622262
0.00579694
0.00512189
0.00422798
0.00315444
0.00194748
0.0006584
0.000568769
0.00168064
0.00271677
0.00363082
0.00438237
0.00493879
0.0052766
0.00538235
0.00525295
0.00489558
0.00432707
0.00357298
0.0026664
0.00164645
0.000556676
0.000479885
0.00141811
0.00229275
0.00306482
0.00370025
0.00417142
0.00445832
0.00454933
0.00444156
0.00414081
0.00366108
0.00302385
0.00225707
0.0013939
0.00047132
0.000405959
0.00119973
0.00193993
0.00259369
0.00313218
0.00353198
0.00377602
0.0038543
0.00376416
0.0035103
0.00310443