/*--------------------------------*- C++ -*----------------------------------*\
| =========                 |                                                 |
| \\      /  F ield         | OpenFOAM: The Open Source CFD Toolbox           |
|  \\    /   O peration     | Version:  5.x                                   |
|   \\  /    A nd           | Web:      www.OpenFOAM.org                      |
|    \\/     M anipulation  |                                                 |
\*---------------------------------------------------------------------------*/
FoamFile
{
    version     2.0;
    format      ascii;
    class       volScalarField;
    location    "2.7";
    object      T;
}
// * * * * * * * * * * * * * * * * * * * * * * * * * * * * * * * * * * * * * //

dimensions      [0 0 0 1 0 0 0];

internalField   nonuniform List<scalar> 
2048
(
9.80242
9.80266
9.80313
9.80383
9.80473
9.8058
9.80703
9.80838
9.80984
9.81137
9.81296
9.81459
9.81624
9.8179
9.81956
9.82121
9.82283
9.82442
9.82598
9.82751
9.829
9.83044
9.83185
9.83322
9.83455
9.83585
9.83711
9.83833
9.83951
9.84066
9.84177
9.84285
9.84389
9.84489
9.84585
9.84677
9.84765
9.84848
9.84926
9.85
9.85069
9.85133
9.85191
9.85244
9.85291
9.85331
9.85366
9.85394
9.85415
9.8543
9.85438
9.8544
9.85435
9.85425
9.85411
9.85393
9.85372
9.8535
9.85328
9.85307
9.85288
9.85273
9.85263
9.85258
9.41569
9.41641
9.41783
9.4199
9.42258
9.42577
9.42942
9.43344
9.43776
9.44231
9.44703
9.45186
9.45676
9.46168
9.46659
9.47145
9.47626
9.48097
9.48559
9.4901
9.4945
9.49878
9.50295
9.50699
9.51093
9.51476
9.51847
9.52208
9.52558
9.52898
9.53227
9.53545
9.53852
9.54148
9.54432
9.54704
9.54964
9.5521
9.55442
9.5566
9.55864
9.56053
9.56225
9.56381
9.5652
9.56641
9.56743
9.56826
9.56889
9.56933
9.56956
9.56961
9.56947
9.56917
9.56874
9.56819
9.56756
9.5669
9.56623
9.56561
9.56505
9.56461
9.5643
9.56413
9.04533
9.04653
9.04888
9.05232
9.05674
9.06202
9.06804
9.07467
9.08179
9.08927
9.09702
9.10495
9.11298
9.12104
9.12908
9.13705
9.1449
9.15262
9.16017
9.16754
9.17472
9.18171
9.18851
9.19512
9.20154
9.20779
9.21385
9.21975
9.22546
9.23101
9.23638
9.24158
9.2466
9.25143
9.25608
9.26052
9.26476
9.26878
9.27258
9.27615
9.27948
9.28256
9.28539
9.28794
9.29022
9.2922
9.29387
9.29523
9.29626
9.29696
9.29734
9.29741
9.29717
9.29667
9.29593
9.29501
9.29396
9.29284
9.29172
9.29066
9.28973
9.28898
9.28846
9.28819
8.69035
8.69202
8.69532
8.70013
8.7063
8.71367
8.72205
8.73126
8.74112
8.75148
8.76219
8.77314
8.78421
8.79532
8.80639
8.81734
8.82814
8.83874
8.8491
8.85921
8.86906
8.87864
8.88795
8.89701
8.90581
8.91437
8.92268
8.93075
8.93859
8.94619
8.95356
8.96069
8.96757
8.9742
8.98058
8.98667
8.99249
8.99801
9.00323
9.00813
9.0127
9.01693
9.02082
9.02433
9.02746
9.03019
9.03249
9.03436
9.03578
9.03674
9.03725
9.03732
9.03697
9.03624
9.03518
9.03387
9.03236
9.03076
9.02916
9.02765
9.02633
9.02526
9.02451
9.02412
8.34982
8.352
8.35626
8.36247
8.37044
8.37992
8.39067
8.40245
8.41504
8.42824
8.44186
8.45576
8.4698
8.48387
8.49787
8.51172
8.52536
8.53873
8.5518
8.56453
8.57693
8.58899
8.60071
8.6121
8.62318
8.63394
8.64439
8.65455
8.66441
8.67398
8.68325
8.69223
8.70091
8.70927
8.7173
8.72498
8.73232
8.73928
8.74585
8.75203
8.7578
8.76315
8.76805
8.7725
8.77646
8.77991
8.78282
8.78519
8.78698
8.78819
8.78881
8.78887
8.78839
8.78741
8.78601
8.78426
8.78227
8.78016
8.77804
8.77604
8.77428
8.77286
8.77187
8.77136
8.02294
8.02563
8.03091
8.03858
8.04838
8.06002
8.07318
8.08756
8.10287
8.11888
8.13538
8.15217
8.16912
8.18608
8.20293
8.2196
8.23598
8.25202
8.26769
8.28294
8.29778
8.3122
8.32622
8.33984
8.35308
8.36594
8.37845
8.39059
8.40239
8.41384
8.42494
8.43569
8.44609
8.4561
8.46573
8.47495
8.48373
8.49208
8.49996
8.50737
8.5143
8.52072
8.52661
8.53196
8.53672
8.54088
8.5444
8.54724
8.5494
8.55084
8.55157
8.5516
8.55097
8.54972
8.54793
8.54572
8.54319
8.54051
8.53782
8.53529
8.53306
8.53127
8.53001
8.52936
7.70893
7.71217
7.71851
7.72772
7.73944
7.75331
7.76894
7.78594
7.80399
7.82281
7.84214
7.86179
7.88158
7.90136
7.921
7.94039
7.95943
7.97806
7.99621
8.01388
8.03105
8.04773
8.06394
8.07969
8.09499
8.10986
8.12432
8.13837
8.15201
8.16526
8.17812
8.19057
8.20261
8.21422
8.22538
8.23607
8.24626
8.25594
8.26508
8.27368
8.28171
8.28917
8.29602
8.30224
8.3078
8.31265
8.31675
8.32007
8.32258
8.32425
8.32507
8.32506
8.32425
8.3227
8.3205
8.31777
8.31466
8.31135
8.30804
8.30491
8.30216
8.29995
8.29841
8.29761
7.40708
7.41091
7.4184
7.42923
7.44298
7.45917
7.47733
7.497
7.51781
7.53943
7.56157
7.58404
7.60662
7.62917
7.65152
7.67356
7.69518
7.7163
7.73685
7.75683
7.77623
7.79506
7.81335
7.83112
7.8484
7.86519
7.88151
7.89737
7.91278
7.92775
7.94228
7.95636
7.96999
7.98313
7.99577
8.00788
8.01942
8.03038
8.04073
8.05047
8.05958
8.06803
8.07582
8.0829
8.08922
8.09476
8.09945
8.10324
8.10609
8.10798
8.10889
8.10882
8.10782
8.10593
8.10327
8.09997
8.09622
8.09222
8.08821
8.08443
8.08111
8.07844
8.07657
8.07561
7.11674
7.12121
7.12994
7.14251
7.1584
7.17702
7.1978
7.22021
7.24379
7.2682
7.29314
7.31838
7.34371
7.36896
7.39397
7.41859
7.44271
7.46623
7.48909
7.51128
7.5328
7.55368
7.57396
7.59365
7.6128
7.63142
7.64952
7.66711
7.68421
7.70082
7.71695
7.7326
7.74775
7.76238
7.77645
7.78992
7.80277
7.81496
7.82647
7.83731
7.84745
7.85687
7.86556
7.87348
7.88057
7.88677
7.89204
7.8963
7.8995
7.90161
7.90259
7.90246
7.90123
7.89899
7.89582
7.89191
7.88744
7.88268
7.8779
7.87339
7.86943
7.86626
7.86404
7.8629
6.83729
6.84246
6.85253
6.86699
6.88516
6.90635
6.92984
6.95503
6.98143
7.00862
7.03633
7.06429
7.09232
7.12023
7.14783
7.17498
7.20152
7.22736
7.25244
7.27674
7.30028
7.32311
7.34526
7.36679
7.38773
7.40808
7.42788
7.44712
7.46582
7.484
7.50167
7.51883
7.53545
7.55151
7.56695
7.58175
7.59585
7.60923
7.62186
7.63375
7.64488
7.65524
7.66481
7.67355
7.68139
7.68827
7.69411
7.69884
7.70239
7.70471
7.70577
7.70556
7.7041
7.70146
7.69776
7.69316
7.68792
7.68231
7.67668
7.67137
7.66671
7.66297
7.66036
7.65903
6.56814
6.57409
6.58564
6.60214
6.62277
6.64665
6.67297
6.70102
6.73024
6.76021
6.79065
6.8213
6.85198
6.88249
6.91264
6.94224
6.97114
6.99922
7.02643
7.05274
7.0782
7.10286
7.1268
7.15007
7.17271
7.19473
7.21614
7.23695
7.25719
7.27686
7.296
7.3146
7.33264
7.35008
7.36687
7.38294
7.39825
7.41277
7.42648
7.43937
7.45146
7.46273
7.47316
7.4827
7.49128
7.49883
7.50525
7.51045
7.51436
7.5169
7.51803
7.51774
7.51603
7.51298
7.50869
7.50336
7.49726
7.49072
7.48415
7.47794
7.4725
7.46816
7.46513
7.46359
6.30876
6.31557
6.32874
6.34747
6.37074
6.39749
6.42675
6.45771
6.48977
6.52251
6.55564
6.58893
6.62221
6.65527
6.68791
6.71992
6.75111
6.78136
6.8106
6.83882
6.86609
6.89249
6.91812
6.94304
6.9673
6.9909
7.01386
7.03617
7.05786
7.07896
7.09951
7.11949
7.1389
7.15768
7.17577
7.19308
7.20956
7.22518
7.23991
7.25377
7.26678
7.27892
7.29018
7.30052
7.30984
7.31806
7.32507
7.33075
7.33501
7.33778
7.33899
7.33861
7.33665
7.33315
7.32824
7.32212
7.31508
7.30752
7.29991
7.29272
7.28643
7.28142
7.27794
7.27617
6.05861
6.06638
6.08136
6.10254
6.12866
6.15845
6.19077
6.22471
6.25962
6.29509
6.33085
6.36673
6.40255
6.43811
6.4732
6.50757
6.541
6.57334
6.60452
6.63456
6.66353
6.69157
6.71879
6.74528
6.77108
6.7962
6.82063
6.84437
6.86744
6.8899
6.91178
6.9331
6.95383
6.97392
6.99327
7.01179
7.0294
7.04606
7.06178
7.07656
7.09043
7.10342
7.1155
7.12662
7.13668
7.14558
7.15317
7.15934
7.16397
7.16697
7.16827
7.16781
7.16559
7.16163
7.15606
7.14909
7.14104
7.13236
7.12359
7.11533
7.1081
7.10237
7.09842
7.09641
5.8172
5.82606
5.84305
5.86692
5.89614
5.92915
5.96465
6.00162
6.03937
6.07753
6.11586
6.15426
6.19257
6.23059
6.26809
6.30477
6.34039
6.37475
6.40778
6.43952
6.47009
6.49966
6.52838
6.55635
6.58363
6.6102
6.63604
6.66114
6.68552
6.70926
6.73242
6.75502
6.77704
6.7984
6.81899
6.83868
6.85738
6.87505
6.8917
6.90735
6.92206
6.93586
6.94873
6.96062
6.97143
6.981
6.9892
6.99587
7.00088
7.00412
7.00551
7.00498
7.00249
6.99807
6.99181
6.98393
6.97479
6.96489
6.95486
6.94539
6.93716
6.93066
6.9262
6.92394
5.58406
5.59414
5.61338
5.64023
5.6728
5.70924
5.74803
5.78808
5.82866
5.86943
5.91026
5.9511
5.99184
6.03228
6.07216
6.11113
6.14887
6.18518
6.21998
6.25333
6.28538
6.31636
6.34649
6.37587
6.40456
6.43253
6.45972
6.4861
6.51172
6.53667
6.56105
6.58489
6.60816
6.63076
6.65256
6.67339
6.69315
6.71179
6.72931
6.74578
6.76128
6.77586
6.78951
6.80217
6.81372
6.82399
6.83279
6.83997
6.84537
6.84888
6.85037
6.84978
6.84704
6.84215
6.83517
6.82633
6.81601
6.80477
6.79335
6.78258
6.77325
6.76593
6.76094
6.75844
5.35874
5.37019
5.39195
5.4221
5.45831
5.49838
5.5406
5.58375
5.62712
5.67042
5.71365
5.75686
5.79997
5.84278
5.88501
5.92624
5.96607
6.00426
6.04074
6.07558
6.10899
6.14129
6.17273
6.20345
6.23349
6.26281
6.29131
6.31891
6.34568
6.37177
6.3973
6.42232
6.44681
6.47065
6.49364
6.51559
6.53637
6.55593
6.57428
6.59152
6.60776
6.62308
6.63749
6.65091
6.66321
6.67418
6.68361
6.69132
6.69712
6.70089
6.70251
6.70187
6.69889
6.69353
6.68582
6.67597
6.66439
6.65171
6.63877
6.62655
6.61603
6.60785
6.60234
6.59958
5.1408
5.15381
5.1784
5.2122
5.25237
5.29629
5.34204
5.38832
5.4344
5.48013
5.52565
5.57113
5.61655
5.66169
5.70626
5.74973
5.79161
5.83163
5.8697
5.9059
5.94056
5.97405
6.00672
6.03872
6.07006
6.1007
6.13045
6.15921
6.18705
6.21419
6.24082
6.26699
6.29267
6.31772
6.3419
6.36494
6.38671
6.40715
6.42627
6.44421
6.46115
6.47718
6.49234
6.50651
6.51957
6.53126
6.54133
6.54957
6.5558
6.55985
6.56161
6.56094
6.55775
6.55192
6.54347
6.53257
6.51964
6.5054
6.49078
6.47698
6.46518
6.45612
6.45007
6.44707
4.92981
4.9446
4.97236
5.01022
5.05469
5.10266
5.15205
5.20147
5.25019
5.2982
5.34587
5.39354
5.4412
5.48864
5.53555
5.58127
5.62515
5.66693
5.7065
5.74396
5.77972
5.81429
5.84811
5.88132
5.91392
5.94584
5.97682
6.00667
6.0355
6.06362
6.09128
6.11855
6.14538
6.17165
6.19702
6.22114
6.24387
6.26514
6.28497
6.30355
6.32112
6.33784
6.35372
6.36865
6.38249
6.39492
6.40564
6.41443
6.42109
6.42544
6.42735
6.42668
6.42329
6.41703
6.40784
6.39584
6.38149
6.36557
6.34911
6.33356
6.32039
6.31042
6.30387
6.30064
4.72537
4.74221
4.7735
4.81587
4.86503
4.91725
4.97037
5.02293
5.07415
5.12429
5.17396
5.22372
5.27356
5.32325
5.37252
5.4205
5.46636
5.50984
5.55083
5.58941
5.62613
5.66166
5.69655
5.73091
5.76473
5.79793
5.83012
5.86099
5.89071
5.91971
5.94834
5.97668
6.00465
6.03213
6.05869
6.08387
6.10753
6.12959
6.15007
6.16923
6.18738
6.20475
6.22134
6.23702
6.25165
6.26485
6.27623
6.28558
6.29268
6.29734
6.29943
6.29879
6.29524
6.28857
6.27864
6.26551
6.24967
6.23195
6.21348
6.19599
6.18136
6.17049
6.16346
6.16004
4.5271
4.54627
4.58151
4.6289
4.68316
4.7398
4.79672
4.85241
4.906
4.95806
5.00955
5.06132
5.11328
5.16517
5.21683
5.26712
5.3149
5.36002
5.40236
5.44193
5.47946
5.51581
5.55169
5.58717
5.62217
5.65666
5.69006
5.72186
5.75238
5.78215
5.81171
5.84107
5.87015
5.89887
5.92665
5.95286
5.97742
6.00024
6.02129
6.04095
6.05961
6.07761
6.0949
6.11133
6.12677
6.14077
6.15283
6.16274
6.1703
6.17528
6.17756
6.17697
6.17331
6.16628
6.15563
6.14134
6.12392
6.1043
6.08361
6.06396
6.04778
6.03604
6.0286
6.02502
4.33459
4.35647
4.39608
4.44907
4.50889
4.57007
4.63086
4.68967
4.74543
4.7992
4.85228
4.90598
4.96001
5.01403
5.06816
5.12082
5.17046
5.21718
5.2608
5.3012
5.33938
5.37641
5.41324
5.44979
5.48592
5.52173
5.55636
5.58902
5.6202
5.65064
5.68108
5.71144
5.74158
5.77159
5.80062
5.82784
5.85327
5.87681
5.89836
5.91843
5.93753
5.95614
5.97411
5.99128
6.00758
6.02241
6.03514
6.04563
6.05366
6.05896
6.06145
6.06095
6.05721
6.04987
6.03855
6.02307
6.00401
5.9824
5.95927
5.93719
5.91938
5.90682
5.89905
5.89537
4.14748
4.17252
4.21691
4.27616
4.34204
4.40782
4.47252
4.53446
4.59215
4.64737
4.70181
4.7574
4.81345
4.86949
4.92619
4.98134
5.03275
5.08102
5.12588
5.16693
5.20559
5.24313
5.28088
5.31848
5.35566
5.39287
5.42878
5.46219
5.49391
5.52488
5.55618
5.58751
5.61865
5.65
5.68035
5.70852
5.73481
5.75906
5.78101
5.8014
5.82086
5.84007
5.85873
5.8766
5.8938
5.90952
5.92291
5.93399
5.9425
5.94812
5.95083
5.95045
5.9467
5.93912
5.92717
5.91047
5.8897
5.86604
5.84023
5.81537
5.79588
5.7826
5.77461
5.77089
3.96538
3.99417
4.04369
4.10997
4.18251
4.2528
4.32146
4.38658
4.4459
4.50228
4.55778
4.61525
4.6733
4.73119
4.79063
4.84843
4.90146
4.95124
4.99734
5.03884
5.07779
5.11565
5.15433
5.19297
5.23111
5.26981
5.3071
5.34112
5.37324
5.40458
5.43674
5.46902
5.50108
5.53386
5.56563
5.59466
5.62179
5.64675
5.66899
5.6896
5.70933
5.72914
5.74849
5.76702
5.78519
5.80186
5.81588
5.82755
5.83657
5.8425
5.84544
5.8452
5.84151
5.83376
5.82126
5.80331
5.78075
5.75504
5.72628
5.6982
5.67699
5.66314
5.65507
5.65138
3.78793
3.82122
3.87612
3.95032
4.03022
4.10475
4.17741
4.24584
4.30638
4.36364
4.41982
4.47926
4.5393
4.59876
4.66118
4.72188
4.77628
4.82756
4.87496
4.91664
4.9557
4.99366
5.03332
5.073
5.11193
5.1523
5.19112
5.22556
5.25793
5.28945
5.32251
5.35574
5.38856
5.42291
5.45623
5.486
5.51396
5.53966
5.56206
5.5828
5.60267
5.62312
5.64317
5.66227
5.6815
5.69922
5.71381
5.72607
5.73563
5.74185
5.74503
5.74497
5.74139
5.73355
5.72061
5.70137
5.67694
5.64926
5.61723
5.58536
5.56246
5.54825
5.54025
5.53667
3.61471
3.65354
3.71383
3.79705
3.88515
3.96336
4.04011
4.11209
4.1733
4.23117
4.28755
4.34915
4.41122
4.47181
4.53758
4.60154
4.65691
4.70969
4.75854
4.80007
4.83907
4.87681
4.9176
4.95837
4.99781
5.04009
5.08067
5.11528
5.14776
5.17919
5.21325
5.24746
5.28081
5.31693
5.35199
5.38229
5.41109
5.43761
5.45998
5.48077
5.50061
5.52179
5.54255
5.56209
5.58251
5.60139
5.61645
5.62931
5.63946
5.64592
5.64936
5.64949
5.64609
5.63828
5.62504
5.60444
5.57801
5.54856
5.51294
5.47651
5.45202
5.43772
5.42999
5.4266
3.44531
3.49113
3.55643
3.65002
3.74739
3.82831
3.90928
3.98524
4.04637
4.10465
4.16055
4.22468
4.28888
4.34991
4.41955
4.48729
4.54301
4.59737
4.64792
4.68884
4.72766
4.76479
4.80694
4.84887
4.88841
4.93294
4.97563
5.01003
5.04251
5.0735
5.10876
5.14399
5.1775
5.21568
5.25278
5.28326
5.31293
5.34043
5.36251
5.38328
5.40288
5.42492
5.44645
5.46621
5.488
5.50822
5.52357
5.53706
5.54786
5.55448
5.55819
5.55853
5.5554
5.54769
5.53436
5.51232
5.4837
5.45287
5.41329
5.37127
5.34542
5.33139
5.32413
5.32102
3.27927
3.3341
3.4034
3.50908
3.6171
3.69915
3.78461
3.86524
3.92524
3.98387
4.03838
4.10565
4.17218
4.23258
4.30686
4.37911
4.43421
4.49029
4.54298
4.58266
4.62128
4.65722
4.70114
4.74437
4.78336
4.83065
4.87592
4.90955
4.94199
4.97206
5.00885
5.04521
5.0783
5.11895
5.15849
5.18863
5.21927
5.24797
5.26943
5.29017
5.30922
5.33234
5.35472
5.37435
5.39776
5.41955
5.43491
5.44907
5.46063
5.4673
5.47131
5.47185
5.46908
5.46157
5.44841
5.42481
5.39371
5.36214
5.31821
5.2692
5.24245
5.22912
5.22254
5.21978
3.11606
3.18277
3.25413
3.37411
3.49462
3.57537
3.66578
3.75215
3.80953
3.8687
3.92053
3.99189
4.06107
4.11927
4.19926
4.27703
4.33009
4.38817
4.44369
4.48121
4.51976
4.55371
4.60003
4.64479
4.68222
4.733
4.78151
4.81356
4.84606
4.87451
4.91333
4.951
4.98282
5.02655
5.06908
5.0981
5.12985
5.16014
5.18048
5.20126
5.21932
5.24386
5.26721
5.2862
5.31161
5.33528
5.35022
5.36514
5.37762
5.38414
5.38851
5.38924
5.38691
5.37966
5.36707
5.34174
5.30769
5.27637
5.22771
5.16981
5.14289
5.13078
5.12509
5.12275
2.95506
3.0377
3.10779
3.24501
3.38042
3.45629
3.55245
3.64616
3.69874
3.75911
3.80638
3.88327
3.95563
4.00929
4.09652
4.18126
4.23015
4.29071
4.35006
4.38412
4.42303
4.45381
4.50345
4.5501
4.58452
4.63979
4.69244
4.72174
4.75463
4.78045
4.82208
4.86135
4.89064
4.93827
4.98459
5.01133
5.04445
5.07689
5.09538
5.11644
5.13288
5.15934
5.18386
5.20142
5.22934
5.25534
5.26924
5.28507
5.29868
5.30478
5.3096
5.31046
5.30871
5.30174
5.29023
5.26294
5.22524
5.19565
5.14184
5.07247
5.0466
5.03627
5.03165
5.02979
2.79551
2.89984
2.96332
3.12167
3.27525
3.34105
3.44424
3.54758
3.59227
3.6552
3.69522
3.7797
3.85607
3.90186
3.99845
4.09209
4.1338
4.19759
4.26225
4.29094
4.33108
4.357
4.4113
4.46038
4.48969
4.55082
4.60885
4.63368
4.66767
4.68944
4.73499
4.7763
4.80126
4.85394
4.90511
4.92792
4.96284
4.99823
5.01384
5.03565
5.04954
5.07865
5.10463
5.11966
5.15081
5.17972
5.19168
5.20864
5.22369
5.22899
5.23441
5.23531
5.23428
5.22754
5.21782
5.1883
5.14585
5.12009
5.06079
4.97644
4.95347
4.9455
4.94211
4.94077
2.63649
2.77052
2.8193
3.00403
3.18011
3.22853
3.34075
3.45694
3.48932
3.55726
3.58618
3.68116
3.76276
3.79598
3.90486
4.01003
4.04029
4.10849
4.1805
4.20114
4.24402
4.26267
4.3235
4.3758
4.39704
4.46594
4.53097
4.54892
4.58527
4.60095
4.65196
4.69598
4.71407
4.7734
4.83086
4.84741
4.88477
4.92423
4.93547
4.95888
4.9689
5.00169
5.02954
5.04048
5.07585
5.10845
5.11719
5.13568
5.1526
5.15649
5.16279
5.16356
5.16346
5.15676
5.1498
5.11772
5.0689
5.04991
4.98483
4.88083
4.86348
4.85843
4.85637
4.85556
2.47684
2.65169
2.67389
2.89202
3.09634
3.11733
3.24156
3.375
3.38887
3.4658
3.47817
3.58769
3.67626
3.69046
3.81556
3.9358
3.94873
4.02308
4.10522
4.114
4.16215
4.17009
4.24003
4.29668
4.30575
4.385
4.45916
4.46682
4.50765
4.51432
4.57296
4.62064
4.62836
4.69649
4.76217
4.76925
4.80999
4.85506
4.85985
4.88622
4.8905
4.92837
4.95868
4.96337
5.00433
5.04165
5.04542
5.066
5.08534
5.08704
5.09461
5.09501
5.09611
5.0891
5.08617
5.05118
4.99363
4.9854
4.9144
4.7845
4.77674
4.77499
4.77431
4.77404
)
;

boundaryField
{
    left
    {
        type            zeroGradient;
    }
    right
    {
        type            zeroGradient;
    }
    interface
    {
        type            fixedValue;
        value           nonuniform List<scalar> 
64
(
2.39418
2.59763
2.59763
2.83763
3.06024
3.06024
3.19284
3.3381
3.3381
3.4228
3.4228
3.54256
3.63594
3.63594
3.77204
3.90235
3.90235
3.98112
4.07037
4.07037
4.12319
4.12319
4.19958
4.25927
4.25927
4.34556
4.42581
4.42581
4.47061
4.47061
4.53463
4.58486
4.58486
4.65895
4.73015
4.73015
4.77332
4.82231
4.82231
4.8513
4.8513
4.89273
4.92473
4.92473
4.96947
5.00989
5.00989
5.03198
5.05294
5.05294
5.06148
5.06148
5.06341
5.05593
5.05593
5.01925
4.95555
4.95555
4.88154
4.7342
4.7342
4.7342
4.7342
4.7342
)
;
    }
    bottom
    {
        type            fixedValue;
        value           uniform 10;
    }
    defaultFaces
    {
        type            empty;
    }
}


// ************************************************************************* //
