/*--------------------------------*- C++ -*----------------------------------*\
| =========                 |                                                 |
| \\      /  F ield         | OpenFOAM: The Open Source CFD Toolbox           |
|  \\    /   O peration     | Version:  5.x                                   |
|   \\  /    A nd           | Web:      www.OpenFOAM.org                      |
|    \\/     M anipulation  |                                                 |
\*---------------------------------------------------------------------------*/
FoamFile
{
    version     2.0;
    format      ascii;
    class       volScalarField;
    location    "16.2";
    object      gradTy;
}
// * * * * * * * * * * * * * * * * * * * * * * * * * * * * * * * * * * * * * //

dimensions      [0 -1 0 1 0 0 0];

internalField   nonuniform List<scalar> 
6300
(
997.814
993.57
989.71
986.482
984.13
982.88
982.941
984.498
987.699
992.653
999.414
1007.98
1018.3
1030.22
1043.57
-0.192271
-0.57442
-0.949146
-1.31065
-1.65195
-1.9645
-2.23813
-2.46113
-2.62088
-2.70486
-2.70235
-2.60638
-2.41584
-2.1371
-1.78449
-0.323116
-0.965648
-1.59664
-2.20693
-2.78522
-3.31746
-3.78648
-4.17215
-4.45222
-4.60406
-4.60755
-4.44877
-4.12412
-3.64374
-3.03276
-0.457652
-1.3684
-2.26483
-3.1352
-3.96454
-4.73362
-5.41817
-5.98878
-6.41178
-6.65163
-6.67503
-6.45703
-5.98815
-5.28099
-4.37351
-0.596739
-1.78547
-2.95907
-4.10446
-5.20409
-6.23428
-7.16376
-7.95295
-8.55445
-8.91557
-8.98387
-8.71613
-8.0904
-7.11847
-5.85384
-0.740575
-2.21768
-3.68151
-5.11946
-6.51308
-7.83564
-9.04963
-10.1048
-10.9375
-11.4723
-11.6287
-11.3332
-10.5388
-9.24864
-7.53436
-0.888451
-2.66313
-4.42982
-6.17875
-7.89309
-9.54551
-11.0942
-12.4791
-13.6182
-14.4074
-14.7254
-14.449
-13.483
-11.8028
-9.49813
-1.03855
-3.11654
-5.19586
-7.27259
-9.33498
-11.359
-13.3027
-15.0991
-16.6488
-17.8137
-18.4163
-18.2544
-17.1413
-14.9814
-11.869
-1.18774
-3.56862
-5.96446
-8.38074
-10.8152
-13.2528
-15.6582
-17.9656
-20.0642
-21.7821
-22.8717
-23.011
-21.8461
-19.1123
-14.8485
-1.33151
-4.00571
-6.7126
-9.47065
-12.2922
-15.1786
-18.1118
-21.0408
-23.8603
-26.3787
-28.2772
-29.0716
-28.1199
-24.773
-18.8038
-1.46407
-4.41011
-7.40955
-10.497
-13.7044
-17.0576
-20.5695
-24.2254
-27.9572
-31.595
-34.7867
-36.8779
-36.7888
-33.0558
-24.5086
-1.57875
-4.76106
-8.01848
-11.4033
-14.9705
-18.7779
-22.883
-27.334
-32.1478
-37.2573
-42.3963
-46.8644
-49.1016
-46.1526
-33.9259
-1.66861
-5.03688
-8.49998
-12.127
-15.9964
-20.2005
-24.8503
-30.0796
-36.0426
-42.8896
-50.6768
-59.0816
-66.6005
-68.5269
-53.2115
-1.72742
-5.21782
-8.81748
-12.6084
-16.6876
-21.1772
-26.238
-32.0914
-39.053
-47.5817
-58.3392
-72.1843
-89.6915
-108.143
-105.957
-1.75067
-5.28947
-8.94372
-12.8012
-16.9683
-21.5825
-26.8328
-32.9949
-40.496
-50.0447
-62.9135
-81.6246
-111.838
-168.394
-298.076
1056.9
1069.67
1082.93
1096.49
1110.21
1123.91
1137.45
1150.71
1163.58
1175.95
1187.75
1198.91
1209.38
1219.11
1228.07
1236.25
1243.61
1250.14
1255.84
1260.71
1264.73
1267.92
1270.27
1271.8
1272.5
1272.39
1271.48
1269.78
1267.3
1264.05
1260.05
1255.31
1249.84
1243.65
1236.76
1229.18
1220.92
1211.99
1202.4
1192.16
1181.3
1169.81
1157.71
1145.02
1131.74
1117.9
1103.5
1088.56
1073.09
1057.09
1040.59
1023.58
1006.09
988.116
969.67
950.765
931.413
911.626
891.419
870.809
849.811
828.444
806.727
784.679
762.32
739.67
716.753
693.592
670.213
646.648
622.929
599.095
575.189
551.258
527.354
503.535
479.859
456.388
433.185
410.315
387.839
365.818
344.31
323.367
303.039
283.366
264.384
246.118
228.587
211.798
-1.41286
-1.05428
-0.689751
-0.332936
0.00478824
0.314987
0.592349
0.834454
1.04128
1.21455
1.35717
1.47259
1.56445
1.63621
1.69104
1.73165
1.76034
1.77904
1.7893
1.7924
1.78942
1.78126
1.76867
1.75234
1.73287
1.71081
1.68669
1.66103
1.6343
1.60699
1.57951
1.55222
1.52539
1.49917
1.47357
1.44848
1.42366
1.39882
1.37363
1.34781
1.3212
1.29377
1.26567
1.23722
1.20886
1.18107
1.15432
1.12896
1.10514
1.08279
1.06158
1.04093
1.02014
0.998414
0.975005
0.94931
0.920945
0.889782
0.855939
0.819716
0.781498
0.741625
0.700265
0.657303
0.612266
0.564312
0.512267
0.454733
0.390237
0.317411
0.235172
0.142877
0.040428
-0.0716771
-0.192366
-0.320064
-0.452808
-0.588379
-0.724423
-0.858552
-0.988394
-1.11161
-1.22591
-1.32897
-1.41853
-1.49237
-1.54851
-1.58533
-1.60179
-1.59762
-2.38795
-1.76672
-1.1374
-0.524554
0.0517904
0.577291
1.04346
1.44705
1.789
2.07323
2.3054
2.492
2.63955
2.75413
2.84113
2.90513
2.94991
2.97856
2.99359
2.99705
2.99065
2.97581
2.95376
2.92557
2.89222
2.85461
2.81361
2.77005
2.72477
2.67856
2.63219
2.58628
2.54133
2.49761
2.45513
2.41367
2.37279
2.3319
2.29035
2.2476
2.20328
2.15732
2.10999
2.06189
2.01383
1.96679
1.92165
1.87913
1.83957
1.80285
1.76838
1.73512
1.70172
1.6667
1.62865
1.58643
1.53936
1.48724
1.43036
1.36939
1.30515
1.23844
1.1697
1.09885
1.02513
0.94708
0.862565
0.769019
0.663703
0.54405
0.408008
0.254335
0.0827942
-0.105758
-0.309416
-0.525375
-0.750156
-0.979863
-1.21042
-1.43776
-1.65789
-1.86695
-2.06111
-2.23653
-2.3893
-2.51556
-2.61169
-2.67468
-2.70254
-2.69468
-3.4136
-2.49094
-1.56147
-0.663759
0.17185
0.924869
1.5845
2.1482
2.61966
3.00665
3.31905
3.56742
3.76188
3.91153
4.02412
4.10604
4.16245
4.19743
4.21429
4.21567
4.20378
4.18049
4.14742
4.10597
4.05745
4.00305
3.94394
3.8813
3.81629
3.75013
3.68393
3.61872
3.55526
3.49399
3.43496
3.37779
3.3217
3.26567
3.20857
3.1494
3.08747
3.0226
2.9552
2.88624
2.81713
2.74951
2.68499
2.62483
2.56968
2.51946
2.47323
2.4293
2.38543
2.33914
2.28808
2.23036
2.16486
2.09137
2.0105
1.92357
1.83221
1.738
1.642
1.54436
1.4441
1.339
1.22573
1.10012
0.957682
0.794161
0.606113
0.391406
0.149549
-0.118187
-0.408848
-0.718072
-1.04049
-1.3702
-1.70113
-2.0274
-2.3434
-2.6438
-2.92336
-3.17673
-3.39828
-3.58216
-3.72262
-3.81465
-3.85477
-3.84178
-4.51112
-3.22482
-1.93964
-0.71336
0.411023
1.40712
2.26387
2.98238
3.57218
4.04766
4.42511
4.72066
4.94895
5.12249
5.25147
5.34391
5.40604
5.44264
5.45748
5.4536
5.43355
5.3995
5.35335
5.2968
5.23138
5.15851
5.07961
4.99617
4.90974
4.82197
4.73451
4.64887
4.56626
4.4874
4.41236
4.34057
4.27077
4.20123
4.13003
4.0554
3.97612
3.89176
3.80289
3.71104
3.6185
3.52802
3.44229
3.36351
3.29293
3.23054
3.17497
3.1236
3.07284
3.01867
2.95729
2.88567
2.80208
2.70629
2.59956
2.4843
2.36355
2.24033
2.11681
1.9938
1.87018
1.74285
1.60679
1.45559
1.28216
1.07973
0.842739
0.567704
0.253692
-0.0974844
-0.481431
-0.891649
-1.32024
-1.75866
-2.19846
-2.63172
-3.05128
-3.45056
-3.82323
-4.16266
-4.46142
-4.7112
-4.9032
-5.02928
-5.08342
-5.0632
-5.70317
-3.95708
-2.23299
-0.616204
0.834969
2.0901
3.14238
4.00197
4.68941
5.2299
5.64917
5.97081
6.21493
6.39769
6.53149
6.62552
6.68647
6.71927
6.72772
6.71492
6.68356
6.63601
6.57437
6.50052
6.41613
6.32274
6.22194
6.11545
6.00523
5.89349
5.78258
5.67479
5.572
5.4754
5.38523
5.30061
5.21957
5.1393
5.05654
4.96825
4.87221
4.76755
4.65501
4.53695
4.41705
4.29979
4.1897
4.09052
4.0045
3.93191
3.87081
3.81714
3.76526
3.70872
3.64135
3.55833
3.45697
3.3371
3.20102
3.05303
2.89859
2.74316
2.59103
2.4442
2.30172
2.15936
2.00977
1.84316
1.64852
1.41514
1.13425
0.800225
0.411447
-0.0294962
-0.516086
-1.03868
-1.58572
-2.14504
-2.7051
-3.2557
-3.78826
-4.29555
-4.7709
-5.20707
-5.59504
-5.92335
-6.17865
-6.34744
-6.41906
-6.3887
-7.01228
-4.65749
-2.37168
-0.28038
1.54142
3.06547
4.29864
5.2698
6.01861
6.58709
7.0142
7.33299
7.56966
7.74378
7.86918
7.95517
8.00784
8.03139
8.02898
8.00342
7.95734
7.89326
7.81345
7.7199
7.6143
7.49814
7.37296
7.2406
7.10339
6.96429
6.82666
6.69399
6.56931
6.45466
6.3506
6.25598
6.16778
6.08145
5.99152
5.89274
5.7812
5.65516
5.51557
5.36598
5.21227
5.06173
4.92187
4.79903
4.6972
4.61721
4.55637
4.50855
4.46482
4.41478
4.34837
4.25783
4.13893
3.99165
3.82001
3.63145
3.43542
3.24164
3.05796
2.88869
2.73345
2.58663
2.43757
2.27141
2.07095
1.81929
1.50255
1.11188
0.6446
0.104496
-0.498625
-1.15027
-1.83325
-2.53013
-3.22514
-3.90544
-4.56143
-5.18632
-5.77478
-6.32071
-6.81438
-7.2405
-7.5785
-7.80539
-7.90141
-7.8569
-8.45795
-5.25845
-2.23015
0.443628
2.67676
4.45988
5.83242
6.8581
7.6078
8.1482
8.53557
8.81381
9.01485
9.16043
9.26404
9.3332
9.37161
9.38131
9.36403
9.32191
9.25752
9.17362
9.0728
8.95714
8.82817
8.68702
8.53483
8.37323
8.20483
8.03348
7.86413
7.70223
7.55273
7.41919
7.30294
7.20263
7.11385
7.02931
6.93979
6.83616
6.71159
6.56285
6.39104
6.20149
6.00347
5.80881
5.63005
5.4778
5.35897
5.27545
5.2237
5.19455
5.17398
5.14489
5.09062
4.99861
4.86223
4.68172
4.46383
4.22105
3.96946
3.726
3.50454
3.3134
3.15343
3.01753
2.89036
2.74942
2.56748
2.3175
1.97766
1.53418
0.982942
0.329548
-0.410981
-1.21642
-2.06048
-2.91762
-3.76608
-4.58992
-5.37911
-6.1293
-6.83968
-7.50936
-8.13079
-8.68434
-9.13816
-9.45159
-9.58596
-9.52139
-10.0455
-5.61286
-1.57813
1.8021
4.45991
6.44531
7.86549
8.84369
9.49827
9.92962
10.2141
10.4058
10.5399
10.6375
10.7085
10.7555
10.7767
10.7701
10.7348
10.6725
10.5858
10.4784
10.3535
10.2136
10.0596
9.89185
9.71027
9.5157
9.31055
9.09986
8.8909
8.69265
8.51323
8.35887
8.23236
8.13275
8.05386
7.98442
7.90846
7.80978
7.67685
7.50384
7.29211
7.04926
6.78993
6.53308
6.30014
6.10852
5.96999
5.88802
5.85857
5.86827
5.8955
5.91132
5.88731
5.80336
5.64914
5.42571
5.14357
4.8234
4.49188
4.17875
3.90757
3.69332
3.53884
3.43595
3.36306
3.28655
3.16208
2.94518
2.60207
2.11172
1.46846
0.680151
-0.229779
-1.22688
-2.26876
-3.31749
-4.34234
-5.32419
-6.25283
-7.12945
-7.96303
-8.76738
-9.54478
-10.2716
-10.8998
-11.3555
-11.5569
-11.462
-11.7285
-5.39446
0.0161707
4.20054
7.21078
9.24388
10.5341
11.2944
11.7093
11.9217
12.0252
12.0797
12.1166
12.1521
12.1866
12.214
12.2209
12.1991
12.1438
12.0571
11.9429
11.8072
11.6551
11.4892
11.3099
11.1156
10.9035
10.6724
10.4233
10.1628
9.90128
9.65502
9.43666
9.25751
9.12212
9.03208
8.97932
8.94801
8.9089
8.83183
8.69889
8.4997
8.23711
7.9199
7.57191
7.22208
6.90985
6.66199
6.49872
6.42417
6.43625
6.51599
6.63265
6.73437
6.76954
6.70856
6.53499
6.25351
5.87734
5.44141
4.98714
4.57042
4.22798
3.98653
3.84936
3.8106
3.84044
3.89218
3.88923
3.75408
3.43802
2.90895
2.16239
1.20544
0.0765307
-1.17325
-2.46751
-3.75208
-4.98082
-6.13529
-7.20164
-8.19174
-9.12862
-10.0643
-11.0316
-12.0011
-12.91
-13.6255
-13.9542
-13.8065
-13.2707
-3.84671
3.37583
8.28947
11.3683
13.1115
13.965
14.2413
14.2108
14.0696
13.9057
13.7779
13.6942
13.6669
13.6737
13.7009
13.7053
13.6749
13.5969
13.4799
13.3296
13.1586
12.9749
12.7827
12.5805
12.3636
12.1225
11.8538
11.551
11.2257
10.8883
10.5759
10.3023
10.0918
9.94522
9.87639
9.87253
9.92147
9.96267
9.93299
9.81504
9.58554
9.25945
8.83359
8.35527
7.85567
7.42566
7.09242
6.89849
6.8344
6.91532
7.10941
7.39016
7.65212
7.78912
7.7748
7.57515
7.21662
6.69612
6.0848
5.42734
4.85415
4.40202
4.12867
4.01726
4.08557
4.2854
4.57576
4.80594
4.82268
4.57998
4.01862
3.15858
1.97768
0.556262
-1.05617
-2.68076
-4.26758
-5.72671
-7.07368
-8.26065
-9.33097
-10.2962
-11.316
-12.5154
-13.8178
-15.1986
-16.4527
-17.0377
-16.7733
-13.6722
0.870676
10.0597
15.0204
17.4495
18.261
18.2279
17.631
16.8724
16.2508
15.7348
15.4137
15.1911
15.1335
15.1322
15.2215
15.2409
15.22
15.1073
14.9515
14.7471
14.5293
14.3083
14.0914
13.8735
13.6476
13.3826
13.0853
12.7124
12.3072
11.8406
11.442
11.0781
10.8351
10.6576
10.6283
10.6909
10.9073
11.1197
11.1625
11.093
10.8116
10.4266
9.824
9.17044
8.39023
7.80327
7.32338
7.11243
7.03693
7.23248
7.57912
8.1758
8.75083
9.02763
9.10894
8.84509
8.41397
7.64668
6.79563
5.74717
4.96452
4.31955
4.03854
3.92721
4.17202
4.60083
5.34677
6.03075
6.26561
6.18152
5.55914
4.61752
3.097
1.31178
-0.920878
-2.94769
-4.96628
-6.63345
-8.24184
-9.48708
-10.621
-11.3847
-12.3084
-13.8503
-15.5214
-17.6692
-20.2431
-21.3439
-20.7579
-8.5014
13.2979
22.8318
25.3961
25.8593
24.626
23.3022
21.2531
19.3362
18.28
17.2829
16.9074
16.4503
16.5186
16.46
16.8425
16.8343
16.8969
16.6796
16.493
16.1837
15.9045
15.6354
15.4014
15.1778
14.9877
14.6889
14.4252
13.9203
13.4769
12.695
12.2576
11.6799
11.484
11.1563
11.248
11.2875
11.8988
12.5207
12.5534
12.6759
12.1869
11.9071
10.8876
10.1679
8.64638
8.02663
7.16696
7.13124
6.84907
7.33201
7.6887
8.99251
10.2789
10.5475
10.94
10.3558
10.0953
8.71779
7.79064
5.68418
4.87659
3.71291
3.70404
3.32428
3.99345
4.45957
6.20695
7.90226
8.1678
8.55811
7.55933
6.91005
4.59744
2.71161
-1.08198
-3.22644
-6.17093
-7.62474
-9.93284
-10.8737
-12.4439
-12.2427
-12.4104
-14.9991
-16.5381
-19.526
-26.1544
-28.0786
-26.4968
23.8082
43.3874
45.6405
38.797
36.7115
31.1207
29.4202
24.6838
20.5603
20.223
17.9353
18.5178
16.9523
18.0857
17.1517
19.0255
18.3248
18.9762
18.2068
18.2104
17.576
17.2641
16.9113
16.6955
16.4331
16.4836
15.944
16.1118
15.0386
15.1333
13.0526
13.2746
11.731
12.3219
11.0502
11.9419
11.0599
12.8742
14.7694
13.8144
15.1384
13.2601
14.4521
11.5186
12.3193
7.60325
8.59476
5.82336
7.50428
5.55879
7.61266
6.43377
9.83364
13.2719
11.8885
14.1768
11.3998
13.3846
9.13974
10.4832
3.75024
5.3009
1.44278
3.90312
1.21037
4.10681
2.47278
7.14161
11.8322
9.8898
12.9346
9.05574
11.5974
5.48288
6.85824
-3.61819
-2.35342
-9.52246
-7.38606
-13.5928
-11.3544
-16.8175
-12.5695
-9.02629
-17.6596
-15.4684
-16.1405
-38.8397
-39.8619
-35.3562
197.796
98.4253
81.5476
45.3461
52.6111
32.0134
39.91
27.2322
16.3321
24.9749
14.455
23.2214
13.5681
22.6302
13.8004
24.9161
17.8684
23.1017
18.6211
20.8467
18.5041
18.683
17.9903
18.057
17.2381
18.8295
16.1806
19.5859
14.4754
19.9225
10.0948
16.8341
8.70912
15.8422
7.82925
15.1904
6.95014
13.7333
21.1229
11.7941
22.2127
9.91237
22.9382
6.77289
22.4152
-1.6583
14.5819
-1.9311
13.0998
-1.49011
12.5489
-1.41414
10.6199
23.2083
7.94278
24.7077
5.58728
25.6447
1.51488
24.8064
-10.1117
13.5142
-9.92548
11.523
-8.95155
10.7444
-8.58974
8.04529
25.3137
4.4306
27.2812
1.30697
28.7496
-4.41678
28.0717
-23.0614
10.6646
-26.2734
4.8671
-29.4134
-0.744499
-35.1748
-11.8812
11.8924
-35.9071
-10.2752
18.9645
-82.7392
-59.605
-50.1809
194.144
175.932
158.732
142.489
127.139
112.609
98.8186
85.6865
73.1293
61.0646
49.4114
38.0911
27.0268
16.144
5.36934
-1.57096
-1.51523
-1.43665
-1.33994
-1.23001
-1.11151
-0.988446
-0.863954
-0.740301
-0.618924
-0.500546
-0.385315
-0.272938
-0.162808
-0.0541065
-2.64782
-2.55069
-2.41456
-2.2479
-2.05954
-1.85762
-1.649
-1.439
-1.23132
-1.02822
-0.830754
-0.639024
-0.452404
-0.269764
-0.0896352
-3.77067
-3.62515
-3.42296
-3.17756
-2.90261
-2.61039
-2.31094
-2.01172
-1.71774
-1.43187
-1.15522
-0.887617
-0.627887
-0.374203
-0.124305
-4.96141
-4.75625
-4.47452
-4.13673
-3.76291
-3.37037
-2.97261
-2.57918
-2.19604
-1.82627
-1.47064
-1.12832
-0.797316
-0.474852
-0.157686
-6.24622
-5.96385
-5.58211
-5.13188
-4.64189
-4.13553
-3.62993
-3.13631
-2.66097
-2.20649
-1.77273
-1.35771
-0.958192
-0.570197
-0.189272
-7.65785
-7.27074
-6.75809
-6.16674
-5.53719
-4.8999
-4.27524
-3.67511
-3.105
-2.56597
-2.05608
-1.57156
-1.10754
-0.658465
-0.218474
-9.23931
-8.70304
-8.01266
-7.23972
-6.44014
-5.65156
-4.89597
-4.18384
-3.51794
-2.89626
-2.31402
-1.76492
-1.24192
-0.737646
-0.244631
-11.0492
-10.2893
-9.34965
-8.33923
-7.33201
-6.37016
-5.47319
-4.64629
-3.88661
-3.18709
-2.5388
-1.93215
-1.35755
-0.805562
-0.267033
-13.1684
-12.0554
-10.7573
-9.43545
-8.17839
-7.02382
-5.98024
-5.04148
-4.19508
-3.42666
-2.7219
-2.06733
-1.45054
-0.860016
-0.284969
-15.7047
-14.0064
-12.1885
-10.4668
-8.92218
-7.5664
-6.38242
-5.34425
-4.42553
-3.60253
-2.85476
-2.16471
-1.51724
-0.898984
-0.297791
-18.7732
-16.0767
-13.5235
-11.321
-9.47701
-7.9371
-6.6387
-5.5275
-4.5602
-3.70312
-2.92988
-2.21949
-1.55471
-0.920878
-0.304998
-22.3728
-18.0037
-14.5074
-11.8166
-9.72763
-8.06621
-6.70771
-5.56677
-4.58462
-3.71981
-2.94212
-2.22864
-1.56121
-0.924808
-0.306317
-25.8425
-19.0575
-14.6858
-11.7102
-9.55062
-7.89228
-6.55908
-5.44719
-4.49163
-3.64934
-2.89013
-2.1917
-1.53667
-0.910816
-0.301773
-25.7185
-17.6979
-13.4678
-10.7875
-8.87231
-7.39313
-6.18907
-5.17121
-4.28534
-3.49575
-2.77733
-2.11132
-1.48296
-0.879999
-0.29173
-1.74051
-5.25816
-8.88871
-12.7181
-16.8504
-21.4203
-26.6137
-32.7021
-40.1086
-49.5413
-62.2894
-80.9562
-111.474
-169.22
-298.945
-1.70322
-5.1432
-8.68637
-12.4104
-16.4076
-20.7949
-25.7278
-31.4234
-38.1973
-46.5239
-57.1219
-71.0077
-89.0659
-108.507
-101.699
-1.64261
-4.95656
-8.35843
-11.9128
-15.6939
-19.7904
-24.3121
-29.3957
-35.2077
-41.9291
-49.671
-58.1609
-65.6973
-66.021
-40.9724
-1.56205
-4.70884
-7.92455
-11.2578
-14.761
-18.4906
-22.5061
-26.8619
-31.5864
-36.6254
-41.7005
-45.9761
-47.3367
-41.1546
-19.7575
-1.46571
-4.41324
-7.40901
-10.4848
-13.6707
-16.9923
-20.4636
-24.0719
-27.7467
-31.2963
-34.2853
-35.8157
-34.2142
-26.8536
-11.1246
-1.35819
-4.08411
-6.83787
-9.63517
-12.4861
-15.39
-18.3259
-21.2356
-23.9936
-26.3564
-27.8824
-27.8301
-25.0908
-18.3639
-7.01939
-1.24404
-3.73562
-6.23648
-8.74828
-11.2647
-13.7654
-16.2063
-18.5046
-20.5151
-21.9973
-22.5755
-21.7102
-18.7367
-13.0808
-4.78518
-1.12745
-3.38068
-5.62744
-7.85813
-10.0542
-12.1822
-14.1857
-15.9733
-17.4033
-18.2661
-18.2708
-17.0543
-14.2451
-9.63078
-3.43615
-1.012
-3.03022
-5.02954
-6.992
-8.89082
-10.6854
-12.3149
-13.6903
-14.6854
-15.1306
-14.8142
-13.5041
-11.0072
-7.27812
-2.55773
-0.900569
-2.69287
-4.45722
-6.17002
-7.7998
-9.30324
-10.6207
-11.6712
-12.3493
-12.524
-12.0476
-10.7782
-8.62485
-5.61384
-1.95364
-0.795267
-2.37492
-3.92067
-5.40566
-6.79646
-8.05019
-9.11162
-9.91083
-10.3626
-10.3695
-9.83159
-8.66594
-6.83811
-4.40035
-1.52114
-0.697518
-2.0805
-3.42629
-4.70667
-5.88827
-6.93065
-7.78463
-8.39165
-8.68486
-8.5934
-8.05148
-7.01352
-5.47489
-3.49341
-1.20188
-0.608137
-1.8119
-2.97732
-4.07625
-5.07674
-5.94189
-6.62908
-7.09034
-7.27419
-7.13005
-6.61578
-5.70877
-4.41917
-2.80176
-0.960534
-0.527445
-1.5699
-2.5745
-3.51416
-4.35918
-5.07667
-5.6304
-5.98163
-6.09125
-5.92368
-5.45278
-4.66969
-3.59106
-2.26553
-0.77463
-0.455383
-1.3542
-2.21678
-3.01776
-3.73016
-4.32515
-4.7723
-5.04067
-5.10078
-4.92791
-4.50657
-3.83581
-2.9344
-1.84413
-0.62925
-0.391617
-1.16364
-1.90181
-2.58287
-3.18267
-3.67626
-4.03834
-4.2443
-4.27207
-4.10467
-3.73353
-3.16207
-2.40888
-1.50926
-0.514155
-0.335634
-0.99659
-1.62651
-2.20439
-2.70891
-3.11869
-3.41276
-3.57166
-3.57888
-3.4229
-3.09957
-2.61453
-1.98504
-1.24068
-0.422118
-0.286808
-0.851087
-1.38733
-1.87683
-2.30094
-2.64144
-2.88104
-3.00434
-2.99899
-2.85731
-2.5779
-2.16729
-1.64097
-1.02362
-0.347909
-0.244466
-0.725048
-1.18062
-1.59466
-1.95103
-2.23424
-2.43008
-2.52633
-2.51378
-2.38735
-2.14733
-1.80037
-1.36011
-0.847068
-0.287665
-0.207921
-0.616373
-1.00273
-1.35255
-1.6519
-1.8877
-2.04826
-2.12387
-2.10762
-1.99626
-1.79102
-1.49825
-1.12979
-0.70271
-0.23848
-0.176508
-0.523039
-0.850213
-1.14548
-1.39689
-1.59342
-1.72542
-1.78519
-1.76751
-1.67037
-1.49547
-1.24868
-0.940171
-0.584146
-0.198133
-0.149599
-0.443144
-0.719847
-0.968867
-1.17998
-1.34392
-1.45274
-1.50027
-1.48258
-1.39846
-1.24983
-1.04196
-0.783546
-0.486404
-0.164906
-0.126613
-0.374943
-0.608702
-0.818568
-0.995834
-1.1327
-1.22262
-1.26064
-1.24377
-1.17135
-1.04532
-0.870342
-0.653812
-0.405573
-0.13745
-0.107026
-0.316859
-0.514146
-0.690903
-0.839732
-0.954083
-1.02854
-1.05911
-1.04352
-0.981465
-0.874787
-0.727576
-0.546094
-0.338549
-0.1147
-0.0903689
-0.267485
-0.433844
-0.582629
-0.707568
-0.803162
-0.864928
-0.889639
-0.875544
-0.822562
-0.732402
-0.608606
-0.456472
-0.282846
-0.0958031
-0.0762259
-0.225581
-0.365744
-0.490913
-0.595778
-0.675727
-0.727044
-0.747108
-0.734566
-0.689471
-0.613371
-0.509314
-0.381771
-0.23646
-0.0800745
-0.0642329
-0.190059
-0.308055
-0.413294
-0.501289
-0.568172
-0.61086
-0.627217
-0.616189
-0.577909
-0.513751
-0.426327
-0.319407
-0.197765
-0.0669586
-0.0540725
-0.159974
-0.259223
-0.347646
-0.421459
-0.477416
-0.512959
-0.52634
-0.516734
-0.484314
-0.430287
-0.356879
-0.267264
-0.165432
-0.0560031
-0.0454698
-0.134507
-0.217908
-0.292143
-0.354025
-0.400835
-0.430445
-0.441423
-0.433119
-0.405721
-0.360278
-0.298683
-0.223603
-0.138373
-0.0468372
-0.0381876
-0.112955
-0.182957
-0.245218
-0.297056
-0.336196
-0.360868
-0.369895
-0.362762
-0.339657
-0.301486
-0.24985
-0.186991
-0.115693
-0.0391561
-0.032022
-0.0947098
-0.153381
-0.205529
-0.248904
-0.281602
-0.302153
-0.309587
-0.303494
-0.284054
-0.252042
-0.20881
-0.156238
-0.0966491
-0.032708
-0.0267982
-0.0792541
-0.128333
-0.171932
-0.208165
-0.235443
-0.252544
-0.258671
-0.253494
-0.23718
-0.210387
-0.174256
-0.130357
-0.0806275
-0.027284
-0.0223662
-0.0661429
-0.107091
-0.143449
-0.173644
-0.19635
-0.210556
-0.215603
-0.211228
-0.19758
-0.175217
-0.145095
-0.108524
-0.0671155
-0.0227102
-0.0185978
-0.054996
-0.0890345
-0.119246
-0.144321
-0.163161
-0.174925
-0.179076
-0.175402
-0.164031
-0.145435
-0.120411
-0.0900488
-0.0556844
-0.0188413
-0.0153829
-0.0454875
-0.0736351
-0.0986103
-0.119329
-0.134883
-0.144581
-0.147984
-0.144918
-0.135498
-0.120117
-0.0994344
-0.0743526
-0.0459745
-0.0155552
-0.0126273
-0.0373377
-0.0604383
-0.0809299
-0.0979219
-0.11067
-0.11861
-0.121381
-0.118848
-0.111105
-0.0984786
-0.0815121
-0.0609452
-0.0376818
-0.012749
-0.0102494
-0.0303056
-0.049053
-0.0656793
-0.0794615
-0.0897962
-0.0962262
-0.0984617
-0.096394
-0.0901028
-0.0798539
-0.0660896
-0.0494102
-0.0305481
-0.0103351
-0.00817869
-0.0241825
-0.0391402
-0.0524035
-0.063395
-0.0716335
-0.0767552
-0.07853
-0.0768728
-0.0718484
-0.06367
-0.0526911
-0.0393907
-0.0243524
-0.00823881
-0.00635351
-0.0187855
-0.0304041
-0.040705
-0.0492398
-0.0556348
-0.059608
-0.0609814
-0.0596896
-0.0557839
-0.0494305
-0.0409045
-0.0305778
-0.0189034
-0.00639521
-0.00471928
-0.0139534
-0.0225828
-0.0302329
-0.0365703
-0.0413177
-0.044266
-0.0452832
-0.0443213
-0.0414188
-0.0366996
-0.0303681
-0.0227006
-0.0140334
-0.00474756
-0.003227
-0.00954114
-0.0154416
-0.0206721
-0.0250047
-0.0282499
-0.0302647
-0.0309591
-0.0303004
-0.0283152
-0.0250883
-0.0207594
-0.0155177
-0.00959276
-0.00324526
-0.00183183
-0.0054161
-0.00876555
-0.0117347
-0.0141942
-0.0160364
-0.0171802
-0.0175745
-0.0172006
-0.0160737
-0.0142419
-0.0117846
-0.008809
-0.00544559
-0.00184226
-0.00049178
-0.0014541
-0.00235356
-0.0031512
-0.0038123
-0.00430793
-0.00461617
-0.00472315
-0.00462372
-0.00432172
-0.00382995
-0.00316965
-0.00236963
-0.001465
-0.000495637
0.000833515
0.00246426
0.00398772
0.0053375
0.0064547
0.00729047
0.00780812
0.00798481
0.00781253
0.00729852
0.006465
0.00534828
0.0039971
0.00247063
0.000835769
0.002184
0.00645711
0.0104496
0.0139877
0.0169171
0.0191097
0.0204691
0.0209351
0.020486
0.0191406
0.0169566
0.014029
0.0104855
0.00648152
0.00219264
0.00360037
0.0106448
0.0172269
0.0230604
0.027891
0.0315074
0.0337505
0.0345205
0.0337819
0.0315648
0.0279645
0.0231372
0.0172938
0.0106902
0.00361642
0.00512528
0.0151535
0.024524
0.0328295
0.039708
0.0448586
0.0480546
0.0491535
0.0481042
0.0449494
0.0398242
0.032951
0.0246298
0.0152253
0.00515067
0.00680458
0.0201188
0.0325605
0.0435894
0.0527248
0.059567
0.0638146
0.065278
0.0638885
0.059702
0.0528976
0.0437701
0.0327179
0.0202256
0.00684236
0.00868867
0.0256898
0.0415781
0.0556638
0.0673337
0.0760768
0.0815077
0.0833833
0.0816147
0.0762724
0.0675839
0.0559255
0.0418059
0.0258445
0.00874338
0.010834
0.0320335
0.0518471
0.0694157
0.0839745
0.0948864
0.101669
0.104019
0.101822
0.0951659
0.0843323
0.0697898
0.0521729
0.0322546
0.0109122
0.0133046
0.0393394
0.0636749
0.0852573
0.103148
0.116563
0.124909
0.127811
0.125126
0.11696
0.103656
0.0857886
0.0641376
0.0396534
0.0134157
0.0161739
0.047825
0.0774143
0.103662
0.125428
0.141758
0.151929
0.155481
0.152237
0.14232
0.126147
0.104415
0.0780696
0.0482697
0.0163313
0.0195271
0.0577422
0.0934737
0.125179
0.151482
0.17123
0.183546
0.187868
0.183981
0.172025
0.152499
0.126243
0.0944001
0.0583709
0.0197496
0.023463
0.0693836
0.112328
0.150447
0.182087
0.205862
0.220712
0.225956
0.221327
0.206985
0.183525
0.15195
0.113637
0.070272
0.0237773
0.028097
0.0830912
0.134534
0.180214
0.218154
0.24669
0.264548
0.2709
0.265416
0.248276
0.220184
0.182337
0.136382
0.0843458
0.0285408
0.0335641
0.0992649
0.16074
0.215355
0.260749
0.294932
0.316371
0.324064
0.317596
0.297172
0.263615
0.218352
0.163349
0.101036
0.0341907
0.0400221
0.118373
0.191708
0.256898
0.31113
0.352023
0.377738
0.387059
0.379468
0.355185
0.315176
0.261129
0.195393
0.120874
0.0409068
0.0476559
0.140963
0.228332
0.306049
0.37077
0.419654
0.450487
0.461795
0.452929
0.424117
0.376482
0.312023
0.233534
0.144494
0.0489049
0.0566815
0.167677
0.271656
0.364224
0.441407
0.499816
0.536791
0.55054
0.54024
0.506117
0.449471
0.372657
0.279
0.172662
0.0584448
0.0673506
0.199263
0.322903
0.43308
0.52508
0.59486
0.639223
0.655981
0.644091
0.603754
0.536464
0.444985
0.333272
0.206301
0.0698402
0.0799564
0.236591
0.383499
0.514555
0.62418
0.707552
0.760821
0.781312
0.767692
0.720107
0.64025
0.531363
0.398137
0.246527
0.0834714
0.0948384
0.280673
0.455099
0.610912
0.741508
0.841143
0.905178
0.930327
0.914877
0.858866
0.764193
0.634639
0.475766
0.294702
0.0998013
0.112388
0.332675
0.539624
0.724775
0.880333
0.999452
1.07653
1.10753
1.09022
1.02447
0.912356
0.758272
0.568802
0.352484
0.119396
0.133055
0.393939
0.639283
0.859185
1.04446
1.18695
1.27989
1.31827
1.29921
1.22225
1.08966
0.906474
0.680479
0.421909
0.14295
0.157349
0.465992
0.756605
1.01764
1.23829
1.40884
1.52112
1.5689
1.54839
1.45867
1.30209
1.0844
0.814775
0.505491
0.171324
0.185849
0.550564
0.894464
1.20413
1.46689
1.6712
1.80714
1.86694
1.84561
1.74152
1.55695
1.29839
0.976605
0.606349
0.205588
0.219196
0.649586
1.05609
1.42319
1.73608
1.98104
2.14602
2.22131
2.20029
2.08026
1.86318
1.55626
1.17209
0.728389
0.247083
0.258098
0.765193
1.24507
1.6799
2.05243
2.3464
2.54718
2.64255
2.62372
2.48637
2.2318
1.86777
1.40892
0.876535
0.297508
0.303319
0.899697
1.46533
1.97986
2.42331
2.77646
3.02152
3.1431
3.12942
2.97386
2.67642
2.24512
1.6968
1.05706
0.359034
0.355663
1.05555
1.72106
2.32918
2.8569
3.28157
3.5816
3.73754
3.73365
3.55987
3.21399
2.70372
2.04816
1.27807
0.434474
0.415952
1.23526
2.01664
2.73431
3.36202
3.87322
4.24172
4.44295
4.45583
4.26537
3.86569
3.2632
2.47905
1.55011
0.527516
0.484983
1.44132
2.35644
3.2019
3.94804
4.56394
5.01797
5.27913
5.3192
5.11613
4.65821
3.9488
3.01046
1.88718
0.64308
0.56348
1.67598
2.7446
3.73846
4.62448
5.36703
5.92815
6.26881
6.3514
6.14384
5.62535
4.79336
3.6703
2.30814
0.787851
0.652014
1.94111
3.18466
4.34988
5.40054
6.29607
6.99138
7.43766
7.58504
7.38744
6.81017
5.84001
4.49617
2.83889
0.971098
0.750914
2.23785
3.6791
5.04082
6.28428
7.36414
8.2275
8.81404
9.05821
8.89466
8.2678
7.14614
5.53966
3.51582
1.20601
0.860152
2.56631
4.22873
5.81388
7.28159
8.5825
9.65582
10.4281
10.8145
10.7236
10.069
8.78889
6.87296
4.39133
1.51189
0.979206
2.92513
4.83201
6.66844
8.39469
9.95888
11.2931
12.3102
12.9021
12.9438
12.3045
10.8732
8.59907
5.54308
1.918
1.10693
3.31105
5.48418
7.59949
9.62029
11.4949
13.1506
14.4873
15.3719
15.6369
15.09
13.5426
10.8681
7.09
2.47056
1.2414
3.71847
6.17646
8.59613
10.9474
13.1828
15.2296
16.9784
18.2717
18.8938
18.5703
16.9946
13.9036
9.22115
3.24649
1.37984
4.1391
6.89533
9.64024
12.3548
15.0017
17.5153
19.7856
21.6377
22.8072
22.92
21.499
18.044
12.2496
4.38235
1.51857
4.56182
7.62203
10.7054
13.809
16.9132
19.97
22.8831
25.4775
27.4543
28.3347
27.4157
23.809
16.7176
6.14138
1.65304
4.97274
8.33258
11.7565
15.2627
18.8575
22.5243
26.2019
29.7461
32.8627
34.9989
35.1988
31.9938
23.6054
9.08547
1.77805
5.35577
8.99859
12.7504
16.6547
20.7518
25.0711
29.6132
34.3116
38.9516
43.0077
45.3463
43.7778
34.7511
14.5649
1.88803
5.69356
9.58886
13.6383
17.9128
22.4917
27.4629
32.9158
38.9176
45.4458
52.209
58.2067
60.741
53.6463
26.2551
1.97753
5.96897
10.0721
14.3698
18.9592
23.9592
29.5202
35.8369
43.1578
51.7765
61.9416
73.4718
84.3905
86.6361
55.3888
2.04175
6.16682
10.42
14.8987
19.7206
25.0368
31.0526
38.0606
46.4966
57.0331
70.726
89.161
114.062
142.884
139.751
2.07709
6.27565
10.6113
15.1893
20.1386
25.6285
31.8957
39.2924
48.3764
60.0975
76.2167
100.359
141.011
221.323
416.037
2.08158
6.28925
10.6343
15.222
20.181
25.6802
31.9545
39.3524
48.4247
60.1072
76.1352
100.092
140.418
220.313
415.041
2.05517
6.20741
10.4887
14.9966
19.8484
25.1935
31.2327
38.2495
46.6601
57.0988
70.5472
88.4563
112.345
139.558
135.391
1.99964
6.03594
10.1856
14.5324
19.1731
24.2246
29.8321
36.1783
43.4868
52.0001
61.8611
72.6674
81.9646
80.5923
40.8882
-16.302
-13.294
-11.0373
-9.28872
-7.87799
-6.70074
-5.69123
-4.80589
-4.01438
-3.29453
-2.62944
-2.0057
-1.41218
-0.839298
-0.278449
-6.11625
-8.48016
-8.37778
-7.64748
-6.7871
-5.93889
-5.14139
-4.40067
-3.71239
-3.06915
-2.46301
-1.88631
-1.33188
-0.793007
-0.263323
-2.78367
-5.37895
-6.15427
-6.0965
-5.6877
-5.14177
-4.55208
-3.95899
-3.37908
-2.81797
-2.2761
-1.75144
-1.24077
-0.740328
-0.246084
-1.515
-3.54158
-4.50923
-4.78924
-4.6835
-4.375
-3.96509
-3.50813
-3.0327
-2.55342
-2.07723
-1.60684
-1.14256
-0.683337
-0.227401
-0.94312
-2.43954
-3.34169
-3.74984
-3.82006
-3.6786
-3.41076
-3.07006
-2.68897
-2.28669
-1.87432
-1.45799
-1.04081
-0.624059
-0.207931
-0.641946
-1.75017
-2.51717
-2.94506
-3.10359
-3.06995
-2.90698
-2.66003
-2.35993
-2.02695
-1.67414
-1.30972
-0.938765
-0.564341
-0.188273
-0.462759
-1.29774
-1.92814
-2.32732
-2.52056
-2.55108
-2.46149
-2.28688
-2.0537
-1.78097
-1.482
-1.16597
-0.839121
-0.50576
-0.168946
-0.346445
-0.987364
-1.49965
-1.85258
-2.05051
-2.11559
-2.07504
-1.95439
-1.77491
-1.55319
-1.30172
-1.02972
-0.743993
-0.449571
-0.150366
-0.266218
-0.766308
-1.18182
-1.48547
-1.6727
-1.75343
-1.74418
-1.66275
-1.52544
-1.34605
-1.13567
-0.903009
-0.654893
-0.396702
-0.132843
-0.208451
-0.603978
-0.941674
-1.19919
-1.36882
-1.45375
-1.46345
-1.40988
-1.3052
-1.16043
-0.985073
-0.787022
-0.572784
-0.347766
-0.116589
-0.165527
-0.481803
-0.757197
-0.973934
-1.12375
-1.20631
-1.22663
-1.19251
-1.11277
-0.996043
-0.850231
-0.682269
-0.498158
-0.303104
-0.101724
-0.132865
-0.388015
-0.613446
-0.795144
-0.925366
-1.00209
-1.0276
-1.00681
-0.946012
-0.851847
-0.730763
-0.588725
-0.431126
-0.262832
-0.0882944
-0.107549
-0.314861
-0.500062
-0.652094
-0.764124
-0.833442
-0.860698
-0.848891
-0.802419
-0.726336
-0.625841
-0.505982
-0.371518