/*--------------------------------*- C++ -*----------------------------------*\
| =========                 |                                                 |
| \\      /  F ield         | OpenFOAM: The Open Source CFD Toolbox           |
|  \\    /   O peration     | Version:  5.x                                   |
|   \\  /    A nd           | Web:      www.OpenFOAM.org                      |
|    \\/     M anipulation  |                                                 |
\*---------------------------------------------------------------------------*/
FoamFile
{
    version     2.0;
    format      ascii;
    class       volScalarField;
    location    "2.5";
    object      gradTx;
}
// * * * * * * * * * * * * * * * * * * * * * * * * * * * * * * * * * * * * * //

dimensions      [0 -1 0 1 0 0 0];

internalField   nonuniform List<scalar> 
3200
(
0.000206843
-1.21135e-05
-2.45981e-05
-2.50512e-05
-2.10723e-05
-2.05949e-05
-1.48562e-05
-1.43861e-05
-1.05022e-05
-1.60374e-05
-7.37353e-06
-5.22769e-06
-5.01319e-06
-3.79501e-06
-3.68389e-06
-2.82703e-06
-2.74932e-06
-2.12467e-06
-2.06771e-06
-1.60401e-06
-1.56155e-06
-1.21349e-06
-1.18154e-06
-9.18511e-07
-8.94325e-07
-6.94776e-07
-6.76414e-07
-5.24724e-07
-5.10763e-07
-3.95386e-07
-3.84769e-07
-2.97044e-07
-2.88976e-07
-2.22351e-07
-2.16228e-07
-1.65715e-07
-1.61077e-07
-1.22864e-07
-1.19359e-07
-9.05295e-08
-8.78889e-08
-6.621e-08
-6.42277e-08
-4.79906e-08
-4.65091e-08
-3.44084e-08
-3.33103e-08
-2.43617e-08
-2.36127e-08
-1.74536e-08
-2.63772e-08
-1.19063e-08
-7.84262e-09
-7.4399e-09
-5.01623e-09
-4.79945e-09
-3.15615e-09
-3.01291e-09
-1.92538e-09
-1.83195e-09
-1.13738e-09
-1.07851e-09
-6.51311e-10
-6.1555e-10
-3.62114e-10
-3.41121e-10
-1.95518e-10
-1.83558e-10
-1.02108e-10
-9.54557e-11
-5.0805e-11
-4.70834e-11
-2.11718e-11
-1.90737e-11
-5.05286e-12
-4.10771e-12
-2.67519e-13
-4.90388e-14
-1.10996e-14
2.53965e-12
0.000205982
-1.27283e-05
-2.33535e-05
-2.44086e-05
-2.12404e-05
-2.0159e-05
-1.52977e-05
-1.42345e-05
-1.12291e-05
-1.4796e-05
-7.8765e-06
-5.50393e-06
-4.97783e-06
-3.89568e-06
-3.63644e-06
-2.89297e-06
-2.71288e-06
-2.1722e-06
-2.0403e-06
-1.63915e-06
-1.54084e-06
-1.2398e-06
-1.16582e-06
-9.38367e-07
-8.82379e-07
-7.09829e-07
-6.67322e-07
-5.36163e-07
-5.03845e-07
-4.04087e-07
-3.7951e-07
-3.03661e-07
-2.84984e-07
-2.27379e-07
-2.13205e-07
-1.69529e-07
-1.58792e-07
-1.25751e-07
-1.17638e-07
-9.27099e-08
-8.65973e-08
-6.78514e-08
-6.32625e-08
-4.92217e-08
-4.57922e-08
-3.53294e-08
-3.27892e-08
-2.50789e-08
-2.33762e-08
-1.86064e-08
-2.43191e-08
-1.27054e-08
-8.33736e-09
-7.3565e-09
-5.21525e-09
-4.71023e-09
-3.28525e-09
-2.95329e-09
-2.01122e-09
-1.79475e-09
-1.19271e-09
-1.05627e-09
-6.85663e-10
-6.02744e-10
-3.82665e-10
-3.33968e-10
-2.07409e-10
-1.79655e-10
-1.08796e-10
-9.33514e-11
-5.44499e-11
-4.58097e-11
-2.33009e-11
-1.84363e-11
-6.29095e-12
-4.09436e-12
-6.57677e-13
-1.3989e-13
-3.21418e-14
2.53274e-12
0.000205277
-1.30742e-05
-2.24916e-05
-2.39348e-05
-2.1325e-05
-1.98742e-05
-1.5587e-05
-1.41606e-05
-1.1693e-05
-1.39741e-05
-8.19752e-06
-5.70626e-06
-4.96467e-06
-3.96339e-06
-3.60833e-06
-2.93636e-06
-2.69084e-06
-2.20337e-06
-2.02365e-06
-1.66216e-06
-1.52823e-06
-1.25702e-06
-1.15624e-06
-9.51357e-07
-8.75088e-07
-7.19674e-07
-6.61772e-07
-5.43645e-07
-4.99622e-07
-4.09777e-07
-3.76299e-07
-3.07989e-07
-2.82548e-07
-2.30668e-07
-2.1136e-07
-1.72025e-07
-1.57399e-07
-1.27641e-07
-1.16589e-07
-9.41371e-08
-8.58104e-08
-6.89261e-08
-6.26749e-08
-5.00281e-08
-4.53563e-08
-3.59332e-08
-3.24747e-08
-2.55556e-08
-2.32623e-08
-1.93398e-08
-2.29539e-08
-1.32145e-08
-8.69655e-09
-7.31946e-09
-5.34877e-09
-4.65777e-09
-3.37061e-09
-2.91806e-09
-2.06803e-09
-1.77296e-09
-1.22941e-09
-1.0434e-09
-7.08501e-10
-5.9542e-10
-3.96358e-10
-3.29928e-10
-2.15347e-10
-1.77475e-10
-1.13266e-10
-9.21847e-11
-5.68838e-11
-4.50904e-11
-2.47239e-11
-1.80899e-11
-7.13099e-12
-4.13056e-12
-9.31049e-13
-2.14324e-13
-4.99183e-14
2.52687e-12
0.000204781
-1.32546e-05
-2.19484e-05
-2.3623e-05
-2.1363e-05
-1.97026e-05
-1.57618e-05
-1.41281e-05
-1.19668e-05
-1.34743e-05
-8.38703e-06
-5.83852e-06
-4.96183e-06
-4.00521e-06
-3.59286e-06
-2.96265e-06
-2.67845e-06
-2.22221e-06
-2.01424e-06
-1.67605e-06
-1.52109e-06
-1.26741e-06
-1.15082e-06
-9.59191e-07
-8.70954e-07
-7.25611e-07
-6.58623e-07
-5.48155e-07
-4.97226e-07
-4.13208e-07
-3.74478e-07
-3.10599e-07
-2.81166e-07
-2.32651e-07
-2.10314e-07
-1.73529e-07
-1.56609e-07
-1.28781e-07
-1.15995e-07
-9.49981e-08
-8.53649e-08
-6.95746e-08
-6.23425e-08
-5.05148e-08
-4.511e-08
-3.62981e-08
-3.22983e-08
-2.5847e-08
-2.32133e-08
-1.97715e-08
-2.21227e-08
-1.35146e-08
-8.92997e-09
-7.30606e-09
-5.43103e-09
-4.62911e-09
-3.42254e-09
-2.89869e-09
-2.10261e-09
-1.76109e-09
-1.2518e-09
-1.03647e-09
-7.22457e-10
-5.91528e-10
-4.0474e-10
-3.27809e-10
-2.20213e-10
-1.76346e-10
-1.1601e-10
-9.15856e-11
-5.83765e-11
-4.47135e-11
-2.55973e-11
-1.79162e-11
-7.65254e-12
-4.17463e-12
-1.10506e-12
-2.66644e-13
-6.27407e-14
2.52261e-12
0.000204525
-1.33308e-05
-2.16858e-05
-2.34683e-05
-2.13768e-05
-1.96219e-05
-1.58441e-05
-1.41165e-05
-1.20937e-05
-1.32382e-05
-8.47486e-06
-5.9038e-06
-4.96211e-06
-4.02519e-06
-3.58604e-06
-2.97505e-06
-2.67291e-06
-2.23107e-06
-2.01002e-06
-1.68259e-06
-1.51788e-06
-1.2723e-06
-1.14837e-06
-9.62876e-07
-8.69092e-07
-7.28403e-07
-6.57205e-07
-5.50276e-07
-4.96146e-07
-4.14821e-07
-3.73657e-07
-3.11826e-07
-2.80544e-07
-2.33584e-07
-2.09843e-07
-1.74237e-07
-1.56254e-07
-1.29317e-07
-1.15727e-07
-9.54031e-08
-8.51644e-08
-6.98796e-08
-6.2193e-08
-5.07438e-08
-4.49994e-08
-3.64698e-08
-3.22195e-08
-2.59852e-08
-2.31962e-08
-1.99712e-08
-2.17296e-08
-1.36535e-08
-9.0448e-09
-7.30259e-09
-5.47028e-09
-4.61656e-09
-3.4471e-09
-2.89017e-09
-2.11897e-09
-1.7559e-09
-1.2624e-09
-1.03347e-09
-7.29077e-10
-5.89861e-10
-4.08721e-10
-3.26911e-10
-2.22527e-10
-1.75873e-10
-1.17316e-10
-9.13364e-11
-5.90864e-11
-4.45539e-11
-2.60128e-11
-1.78455e-11
-7.90246e-12
-4.20225e-12
-1.18977e-12
-2.93556e-13
-6.94458e-14
2.52037e-12
0.000204526
-1.33309e-05
-2.16858e-05
-2.34684e-05
-2.13768e-05
-1.96219e-05
-1.58441e-05
-1.41165e-05
-1.20937e-05
-1.32382e-05
-8.47486e-06
-5.9038e-06
-4.96211e-06
-4.02519e-06
-3.58604e-06
-2.97505e-06
-2.67291e-06
-2.23107e-06
-2.01002e-06
-1.68259e-06
-1.51788e-06
-1.2723e-06
-1.14837e-06
-9.62876e-07
-8.69092e-07
-7.28403e-07
-6.57205e-07
-5.50276e-07
-4.96146e-07
-4.14821e-07
-3.73657e-07
-3.11826e-07
-2.80544e-07
-2.33584e-07
-2.09843e-07
-1.74237e-07
-1.56254e-07
-1.29317e-07
-1.15727e-07
-9.54031e-08
-8.51644e-08
-6.98796e-08
-6.2193e-08
-5.07438e-08
-4.49994e-08
-3.64698e-08
-3.22195e-08
-2.59852e-08
-2.31962e-08
-1.99712e-08
-2.17296e-08
-1.36535e-08
-9.0448e-09
-7.30259e-09
-5.47028e-09
-4.61656e-09
-3.4471e-09
-2.89017e-09
-2.11897e-09
-1.7559e-09
-1.2624e-09
-1.03347e-09
-7.29077e-10
-5.89861e-10
-4.08721e-10
-3.26911e-10
-2.22527e-10
-1.75873e-10
-1.17316e-10
-9.13364e-11
-5.90863e-11
-4.45539e-11
-2.60128e-11
-1.78455e-11
-7.90245e-12
-4.20225e-12
-1.18977e-12
-2.93554e-13
-6.94434e-14
2.52037e-12
0.000204781
-1.32549e-05
-2.19484e-05
-2.36231e-05
-2.1363e-05
-1.97026e-05
-1.57618e-05
-1.41281e-05
-1.19668e-05
-1.34743e-05
-8.38702e-06
-5.83852e-06
-4.96183e-06
-4.00521e-06
-3.59286e-06
-2.96265e-06
-2.67845e-06
-2.22221e-06
-2.01424e-06
-1.67605e-06
-1.52109e-06
-1.26741e-06
-1.15082e-06
-9.59191e-07
-8.70954e-07
-7.25611e-07
-6.58624e-07
-5.48156e-07
-4.97226e-07
-4.13208e-07
-3.74478e-07
-3.10599e-07
-2.81166e-07
-2.32651e-07
-2.10314e-07
-1.73529e-07
-1.56609e-07
-1.28781e-07
-1.15995e-07
-9.49981e-08
-8.53649e-08
-6.95746e-08
-6.23425e-08
-5.05148e-08
-4.511e-08
-3.62981e-08
-3.22983e-08
-2.5847e-08
-2.32133e-08
-1.97715e-08
-2.21227e-08
-1.35145e-08
-8.92996e-09
-7.30606e-09
-5.43103e-09
-4.62911e-09
-3.42254e-09
-2.89869e-09
-2.10261e-09
-1.76109e-09
-1.2518e-09
-1.03647e-09
-7.22456e-10
-5.91528e-10
-4.0474e-10
-3.27809e-10
-2.20213e-10
-1.76346e-10
-1.1601e-10
-9.15855e-11
-5.83765e-11
-4.47134e-11
-2.55973e-11
-1.79162e-11
-7.65251e-12
-4.17461e-12
-1.10505e-12
-2.66638e-13
-6.27342e-14
2.52261e-12
0.000205277
-1.30745e-05
-2.24916e-05
-2.39349e-05
-2.1325e-05
-1.98742e-05
-1.5587e-05
-1.41606e-05
-1.1693e-05
-1.39741e-05
-8.19752e-06
-5.70625e-06
-4.96467e-06
-3.96339e-06
-3.60833e-06
-2.93636e-06
-2.69084e-06
-2.20337e-06
-2.02365e-06
-1.66216e-06
-1.52823e-06
-1.25702e-06
-1.15624e-06
-9.51357e-07
-8.75089e-07
-7.19675e-07
-6.61772e-07
-5.43645e-07
-4.99622e-07
-4.09777e-07
-3.763e-07
-3.07989e-07
-2.82548e-07
-2.30668e-07
-2.1136e-07
-1.72025e-07
-1.57399e-07
-1.27641e-07
-1.16589e-07
-9.41371e-08
-8.58104e-08
-6.89261e-08
-6.2675e-08
-5.00281e-08
-4.53564e-08
-3.59332e-08
-3.24747e-08
-2.55556e-08
-2.32623e-08
-1.93398e-08
-2.29539e-08
-1.32145e-08
-8.69654e-09
-7.31945e-09
-5.34877e-09
-4.65777e-09
-3.37061e-09
-2.91806e-09
-2.06803e-09
-1.77296e-09
-1.22941e-09
-1.0434e-09
-7.08501e-10
-5.9542e-10
-3.96358e-10
-3.29927e-10
-2.15347e-10
-1.77474e-10
-1.13266e-10
-9.21846e-11
-5.68837e-11
-4.50903e-11
-2.47239e-11
-1.80898e-11
-7.13096e-12
-4.13054e-12
-9.31035e-13
-2.14316e-13
-4.99096e-14
2.52687e-12
0.000205983
-1.27286e-05
-2.33535e-05
-2.44086e-05
-2.12404e-05
-2.0159e-05
-1.52977e-05
-1.42345e-05
-1.12291e-05
-1.4796e-05
-7.8765e-06
-5.50393e-06
-4.97783e-06
-3.89568e-06
-3.63644e-06
-2.89297e-06
-2.71288e-06
-2.1722e-06
-2.0403e-06
-1.63915e-06
-1.54084e-06
-1.2398e-06
-1.16583e-06
-9.38367e-07
-8.82379e-07
-7.09829e-07
-6.67322e-07
-5.36164e-07
-5.03846e-07
-4.04087e-07
-3.7951e-07
-3.03661e-07
-2.84984e-07
-2.27379e-07
-2.13205e-07
-1.69529e-07
-1.58792e-07
-1.25751e-07
-1.17638e-07
-9.271e-08
-8.65973e-08
-6.78515e-08
-6.32625e-08
-4.92218e-08
-4.57922e-08
-3.53294e-08
-3.27892e-08
-2.50789e-08
-2.33762e-08
-1.86064e-08
-2.43191e-08
-1.27054e-08
-8.33736e-09
-7.3565e-09
-5.21525e-09
-4.71023e-09
-3.28525e-09
-2.95329e-09
-2.01122e-09
-1.79475e-09
-1.19271e-09
-1.05627e-09
-6.85663e-10
-6.02744e-10
-3.82665e-10
-3.33968e-10
-2.07409e-10
-1.79655e-10
-1.08796e-10
-9.33513e-11
-5.44498e-11
-4.58096e-11
-2.33008e-11
-1.84362e-11
-6.29092e-12
-4.09434e-12
-6.57664e-13
-1.39882e-13
-3.21339e-14
2.53274e-12
0.000206843
-1.21136e-05
-2.45982e-05
-2.50512e-05
-2.10723e-05
-2.0595e-05
-1.48562e-05
-1.43861e-05
-1.05022e-05
-1.60374e-05
-7.37353e-06
-5.2277e-06
-5.01319e-06
-3.79501e-06
-3.68389e-06
-2.82703e-06
-2.74932e-06
-2.12467e-06
-2.06771e-06
-1.60401e-06
-1.56155e-06
-1.21349e-06
-1.18154e-06
-9.18511e-07
-8.94325e-07
-6.94776e-07
-6.76414e-07
-5.24725e-07
-5.10763e-07
-3.95386e-07
-3.84769e-07
-2.97044e-07
-2.88976e-07
-2.22351e-07
-2.16228e-07
-1.65715e-07
-1.61077e-07
-1.22864e-07
-1.19359e-07
-9.05295e-08
-8.78889e-08
-6.62101e-08
-6.42277e-08
-4.79906e-08
-4.65091e-08
-3.44084e-08
-3.33103e-08
-2.43617e-08
-2.36127e-08
-1.74536e-08
-2.63772e-08
-1.19063e-08
-7.84262e-09
-7.4399e-09
-5.01623e-09
-4.79945e-09
-3.15615e-09
-3.01291e-09
-1.92538e-09
-1.83195e-09
-1.13738e-09
-1.07851e-09
-6.51311e-10
-6.1555e-10
-3.62114e-10
-3.41121e-10
-1.95518e-10
-1.83558e-10
-1.02108e-10
-9.54556e-11
-5.0805e-11
-4.70833e-11
-2.11717e-11
-1.90737e-11
-5.05284e-12
-4.1077e-12
-2.67514e-13
-4.90359e-14
-1.10961e-14
2.53965e-12
0.00365809
-0.00309979
-0.000254391
-0.000114111
-2.69273e-05
-1.84986e-05
-1.17633e-05
-1.11093e-05
-1.02873e-05
-1.75193e-05
-9.12593e-06
-7.70867e-06
-7.54336e-06
-6.4958e-06
-6.38885e-06
-5.42614e-06
-5.33132e-06
-4.4769e-06
-4.39401e-06
-3.65871e-06
-3.58807e-06
-2.96908e-06
-2.91e-06
-2.39698e-06
-2.34825e-06
-1.92774e-06
-1.88794e-06
-1.54598e-06
-1.51369e-06
-1.23718e-06
-1.21112e-06
-9.8844e-07
-9.67473e-07
-7.88673e-07
-7.71853e-07
-6.28596e-07
-6.15128e-07
-5.00542e-07
-4.89776e-07
-3.9825e-07
-3.89656e-07
-3.16646e-07
-3.09795e-07
-2.51638e-07
-2.46186e-07
-1.99943e-07
-1.95639e-07
-1.59056e-07
-1.56187e-07
-1.30877e-07
-2.1202e-07
-1.04314e-07
-8.147e-08
-7.90576e-08
-6.47428e-08
-6.33883e-08
-5.23361e-08
-5.13092e-08
-4.27394e-08
-4.19465e-08
-3.53419e-08
-3.47325e-08
-2.96776e-08
-2.92104e-08
-2.53406e-08
-2.49609e-08
-2.15956e-08
-2.12266e-08
-1.75397e-08
-1.71434e-08
-1.32059e-08
-1.28288e-08
-9.57873e-09
-9.1441e-09
-4.02419e-09
-3.58921e-09
-2.18819e-10
-3.90047e-11
-8.78844e-12
-6.34942e-10
0.00358302
-0.00273601
-0.000474467
-0.000159708
-4.44049e-05
-2.22015e-05
-1.31813e-05
-1.1469e-05
-1.09413e-05
-1.61221e-05
-9.63629e-06
-7.91526e-06
-7.50471e-06
-6.57612e-06
-6.3271e-06
-5.49544e-06
-5.2761e-06
-4.5388e-06
-4.34707e-06
-3.71238e-06
-3.54896e-06
-3.0145e-06
-2.87783e-06
-2.43477e-06
-2.32203e-06
-1.9588e-06
-1.8667e-06
-1.57129e-06
-1.49656e-06
-1.25768e-06
-1.19735e-06
-1.00496e-06
-9.56439e-07
-8.01947e-07
-7.63022e-07
-6.39237e-07
-6.08071e-07
-5.09057e-07
-4.84143e-07
-4.05054e-07
-3.85166e-07
-3.22076e-07
-3.06221e-07
-2.55967e-07
-2.43351e-07
-2.03404e-07
-1.93461e-07
-1.62102e-07
-1.55742e-07
-1.38811e-07
-1.95145e-07
-1.1064e-07
-8.45402e-08
-7.85964e-08
-6.5897e-08
-6.27401e-08
-5.31694e-08
-5.07916e-08
-4.33836e-08
-4.15482e-08
-3.58393e-08
-3.44288e-08
-3.00581e-08
-2.89762e-08
-2.56226e-08
-2.47425e-08
-2.18222e-08
-2.09679e-08
-1.77869e-08
-1.68714e-08
-1.34881e-08
-1.26141e-08
-9.76598e-09
-8.76212e-09
-4.4086e-09
-3.40849e-09
-5.28828e-10
-1.11027e-10
-2.54426e-11
-6.40523e-10
0.00352158
-0.00247633
-0.000616669
-0.000197325
-5.81574e-05
-2.53766e-05
-1.43066e-05
-1.17812e-05
-1.13668e-05
-1.51914e-05
-9.95598e-06
-8.06936e-06
-7.48672e-06
-6.6292e-06
-6.28863e-06
-5.54022e-06
-5.24156e-06
-4.57884e-06
-4.31783e-06
-3.74717e-06
-3.52467e-06
-3.04399e-06
-2.8579e-06
-2.45933e-06
-2.30581e-06
-1.97901e-06
-1.85358e-06
-1.58776e-06
-1.486e-06
-1.27102e-06
-1.18887e-06
-1.01572e-06
-9.49637e-07
-8.10592e-07
-7.5758e-07
-6.46168e-07
-6.03724e-07
-5.14604e-07
-4.80674e-07
-4.09488e-07
-3.82401e-07
-3.25615e-07
-3.04021e-07
-2.58788e-07
-2.41606e-07
-2.05663e-07
-1.92138e-07
-1.64147e-07
-1.55718e-07
-1.43815e-07
-1.83904e-07
-1.14629e-07
-8.68034e-08
-7.84049e-08
-6.66691e-08
-6.23479e-08
-5.37147e-08
-5.04749e-08
-4.38046e-08
-4.13047e-08
-3.61645e-08
-3.42432e-08
-3.03069e-08
-2.88327e-08
-2.58055e-08
-2.46056e-08
-2.1966e-08
-2.08021e-08
-1.79435e-08
-1.6698e-08
-1.36698e-08
-1.24783e-08
-9.87939e-09
-8.51407e-09
-4.65884e-09
-3.30293e-09
-7.40347e-10
-1.69752e-10
-3.9501e-11
-6.45265e-10
0.00347845
-0.00230936
-0.000701254
-0.000223732
-6.76528e-05
-2.76823e-05
-1.50896e-05
-1.20088e-05
-1.16225e-05
-1.4623e-05
-1.01416e-05
-8.17121e-06
-7.47964e-06
-6.66153e-06
-6.26639e-06
-5.56694e-06
-5.22153e-06
-4.60277e-06
-4.30092e-06
-3.76799e-06
-3.51067e-06
-3.06166e-06
-2.84644e-06
-2.47406e-06
-2.29649e-06
-1.99113e-06
-1.84605e-06
-1.59765e-06
-1.47994e-06
-1.27903e-06
-1.18401e-06
-1.02218e-06
-9.45744e-07
-8.15786e-07
-7.54467e-07
-6.50333e-07
-6.01237e-07
-5.17938e-07
-4.7869e-07
-4.12152e-07
-3.8082e-07
-3.27742e-07
-3.02764e-07
-2.60484e-07
-2.4061e-07
-2.07024e-07
-1.91392e-07
-1.65407e-07
-1.55832e-07
-1.46737e-07
-1.77035e-07
-1.16959e-07
-8.82884e-08
-7.83459e-08
-6.71437e-08
-6.21275e-08
-5.40437e-08
-5.02949e-08
-4.40583e-08
-4.11663e-08
-3.63605e-08
-3.41379e-08
-3.04569e-08
-2.8751e-08
-2.5915e-08
-2.45259e-08
-2.20506e-08
-2.07039e-08
-1.80352e-08
-1.65957e-08
-1.37779e-08
-1.23987e-08
-9.94335e-09
-8.36554e-09
-4.80904e-09
-3.24559e-09
-8.72161e-10
-2.1085e-10
-4.96332e-11
-6.48706e-10
0.00345628
-0.0022277
-0.00074061
-0.000237278
-7.25017e-05
-2.88919e-05
-1.54917e-05
-1.21282e-05
-1.17426e-05
-1.43536e-05
-1.02267e-05
-8.22178e-06
-7.4775e-06
-6.67684e-06
-6.25624e-06
-5.57942e-06
-5.21236e-06
-4.61395e-06
-4.2932e-06
-3.77773e-06
-3.50429e-06
-3.06994e-06
-2.84122e-06
-2.48096e-06
-2.29226e-06
-1.99681e-06
-1.84263e-06
-1.60228e-06
-1.47719e-06
-1.28279e-06
-1.1818e-06
-1.02521e-06
-9.43978e-07
-8.18223e-07
-7.53055e-07
-6.52287e-07
-6.00109e-07
-5.19502e-07
-4.7779e-07
-4.13402e-07
-3.80103e-07
-3.2874e-07
-3.02194e-07
-2.6128e-07
-2.40159e-07
-2.07663e-07
-1.91058e-07
-1.66008e-07
-1.55924e-07
-1.48081e-07
-1.73779e-07
-1.1803e-07
-8.90228e-08
-7.83361e-08
-6.73699e-08
-6.2029e-08
-5.41984e-08
-5.02136e-08
-4.41775e-08
-4.11038e-08
-3.64527e-08
-3.40904e-08
-3.05274e-08
-2.87141e-08
-2.59663e-08
-2.44894e-08
-2.20897e-08
-2.06582e-08
-1.80776e-08
-1.65484e-08
-1.38283e-08
-1.2362e-08
-9.97206e-09
-8.29603e-09
-4.87944e-09
-3.22059e-09
-9.35458e-10
-2.31928e-10
-5.4929e-11
-6.50513e-10
0.00345628
-0.0022277
-0.00074061
-0.000237278
-7.25016e-05
-2.88918e-05
-1.54917e-05
-1.21282e-05
-1.17426e-05
-1.43536e-05
-1.02267e-05
-8.22178e-06
-7.47751e-06
-6.67684e-06
-6.25624e-06
-5.57942e-06
-5.21236e-06
-4.61395e-06
-4.2932e-06
-3.77773e-06
-3.50429e-06
-3.06994e-06
-2.84122e-06
-2.48096e-06
-2.29226e-06
-1.99681e-06
-1.84263e-06
-1.60228e-06
-1.47719e-06
-1.28279e-06
-1.1818e-06
-1.02521e-06
-9.43978e-07
-8.18223e-07
-7.53055e-07
-6.52288e-07
-6.00109e-07
-5.19502e-07
-4.7779e-07
-4.13403e-07
-3.80103e-07
-3.2874e-07
-3.02194e-07
-2.6128e-07
-2.40159e-07
-2.07663e-07
-1.91058e-07
-1.66008e-07
-1.55924e-07
-1.48081e-07
-1.73779e-07
-1.1803e-07
-8.90228e-08
-7.83361e-08
-6.73699e-08
-6.2029e-08
-5.41984e-08
-5.02136e-08
-4.41775e-08
-4.11038e-08
-3.64527e-08
-3.40904e-08
-3.05274e-08
-2.87141e-08
-2.59663e-08
-2.44894e-08
-2.20897e-08
-2.06582e-08
-1.80776e-08
-1.65484e-08
-1.38283e-08
-1.2362e-08
-9.97206e-09
-8.29603e-09
-4.87943e-09
-3.22059e-09
-9.35456e-10
-2.31927e-10
-5.49288e-11
-6.50512e-10
0.00347845
-0.00230937
-0.000701254
-0.000223732
-6.76525e-05
-2.76821e-05
-1.50896e-05
-1.20087e-05
-1.16225e-05
-1.4623e-05
-1.01416e-05
-8.17121e-06
-7.47964e-06
-6.66153e-06
-6.26639e-06
-5.56694e-06
-5.22153e-06
-4.60277e-06
-4.30093e-06
-3.76799e-06
-3.51067e-06
-3.06166e-06
-2.84644e-06
-2.47406e-06
-2.29649e-06
-1.99113e-06
-1.84605e-06
-1.59765e-06
-1.47994e-06
-1.27903e-06
-1.18401e-06
-1.02218e-06
-9.45744e-07
-8.15786e-07
-7.54467e-07
-6.50333e-07
-6.01237e-07
-5.17938e-07
-4.7869e-07
-4.12152e-07
-3.8082e-07
-3.27742e-07
-3.02764e-07
-2.60484e-07
-2.4061e-07
-2.07024e-07
-1.91392e-07
-1.65407e-07
-1.55832e-07
-1.46737e-07
-1.77035e-07
-1.16959e-07
-8.82884e-08
-7.83459e-08
-6.71437e-08
-6.21276e-08
-5.40437e-08
-5.02949e-08
-4.40583e-08
-4.11663e-08
-3.63605e-08
-3.41379e-08
-3.04569e-08
-2.8751e-08
-2.5915e-08
-2.4526e-08
-2.20506e-08
-2.07039e-08
-1.80352e-08
-1.65957e-08
-1.3778e-08
-1.23987e-08
-9.94334e-09
-8.36553e-09
-4.80903e-09
-3.24558e-09
-8.72156e-10
-2.10847e-10
-4.96325e-11
-6.48704e-10
0.00352158
-0.00247634
-0.000616669
-0.000197325
-5.8157e-05
-2.53763e-05
-1.43064e-05
-1.17812e-05
-1.13668e-05
-1.51914e-05
-9.95599e-06
-8.06937e-06
-7.48672e-06
-6.6292e-06
-6.28863e-06
-5.54022e-06
-5.24157e-06
-4.57885e-06
-4.31783e-06
-3.74717e-06
-3.52467e-06
-3.04399e-06
-2.8579e-06
-2.45933e-06
-2.30581e-06
-1.97901e-06
-1.85358e-06
-1.58776e-06
-1.486e-06
-1.27102e-06
-1.18887e-06
-1.01572e-06
-9.49638e-07
-8.10592e-07
-7.57581e-07
-6.46168e-07
-6.03724e-07
-5.14604e-07
-4.80674e-07
-4.09488e-07
-3.82401e-07
-3.25615e-07
-3.04021e-07
-2.58788e-07
-2.41607e-07
-2.05663e-07
-1.92138e-07
-1.64147e-07
-1.55718e-07
-1.43815e-07
-1.83904e-07
-1.14629e-07
-8.68034e-08
-7.84049e-08
-6.66691e-08
-6.23479e-08
-5.37148e-08
-5.0475e-08
-4.38046e-08
-4.13047e-08
-3.61645e-08
-3.42433e-08
-3.03069e-08
-2.88327e-08
-2.58055e-08
-2.46056e-08
-2.1966e-08
-2.08021e-08
-1.79435e-08
-1.6698e-08
-1.36698e-08
-1.24783e-08
-9.87939e-09
-8.51407e-09
-4.65883e-09
-3.30292e-09
-7.40341e-10
-1.69748e-10
-3.95001e-11
-6.45262e-10
0.00358302
-0.00273601
-0.000474467
-0.000159708
-4.44045e-05
-2.22013e-05
-1.31812e-05
-1.1469e-05
-1.09413e-05
-1.61221e-05
-9.63629e-06
-7.91526e-06
-7.50471e-06
-6.57612e-06
-6.32711e-06
-5.49545e-06
-5.27611e-06
-4.5388e-06
-4.34707e-06
-3.71238e-06
-3.54896e-06
-3.0145e-06
-2.87784e-06
-2.43477e-06
-2.32203e-06
-1.9588e-06
-1.8667e-06
-1.57129e-06
-1.49657e-06
-1.25768e-06
-1.19735e-06
-1.00496e-06
-9.56439e-07
-8.01947e-07
-7.63022e-07
-6.39237e-07
-6.08071e-07
-5.09057e-07
-4.84143e-07
-4.05054e-07
-3.85166e-07
-3.22077e-07
-3.06221e-07
-2.55967e-07
-2.43351e-07
-2.03404e-07
-1.93461e-07
-1.62102e-07
-1.55742e-07
-1.38812e-07
-1.95146e-07
-1.1064e-07
-8.45402e-08
-7.85964e-08
-6.5897e-08
-6.27401e-08
-5.31695e-08
-5.07917e-08
-4.33837e-08
-4.15483e-08
-3.58393e-08
-3.44288e-08
-3.00582e-08
-2.89763e-08
-2.56227e-08
-2.47425e-08
-2.18222e-08
-2.09679e-08
-1.7787e-08
-1.68714e-08
-1.34881e-08
-1.26141e-08
-9.76598e-09
-8.76212e-09
-4.40859e-09
-3.40849e-09
-5.28823e-10
-1.11023e-10
-2.54419e-11
-6.40521e-10
0.0036581
-0.00309979
-0.000254391
-0.000114111
-2.69271e-05
-1.84985e-05
-1.17633e-05
-1.11092e-05
-1.02873e-05
-1.75194e-05
-9.12593e-06
-7.70867e-06
-7.54337e-06
-6.4958e-06
-6.38885e-06
-5.42614e-06
-5.33133e-06
-4.4769e-06
-4.39401e-06
-3.65872e-06
-3.58807e-06
-2.96908e-06
-2.91e-06
-2.39698e-06
-2.34825e-06
-1.92774e-06
-1.88794e-06
-1.54598e-06
-1.51369e-06
-1.23719e-06
-1.21112e-06
-9.88441e-07
-9.67473e-07
-7.88674e-07
-7.71853e-07
-6.28596e-07
-6.15129e-07
-5.00542e-07
-4.89776e-07
-3.9825e-07
-3.89656e-07
-3.16646e-07
-3.09795e-07
-2.51638e-07
-2.46186e-07
-1.99943e-07
-1.95639e-07
-1.59056e-07
-1.56187e-07
-1.30877e-07
-2.1202e-07
-1.04314e-07
-8.147e-08
-7.90576e-08
-6.47428e-08
-6.33884e-08
-5.23361e-08
-5.13092e-08
-4.27395e-08
-4.19465e-08
-3.53419e-08
-3.47326e-08
-2.96776e-08
-2.92105e-08
-2.53406e-08
-2.49609e-08
-2.15956e-08
-2.12266e-08
-1.75397e-08
-1.71434e-08
-1.32059e-08
-1.28288e-08
-9.57873e-09
-9.1441e-09
-4.02418e-09
-3.58921e-09
-2.18817e-10
-3.90031e-11
-8.78819e-12
-6.34942e-10
0.00365704
-0.00310088
-0.000254427
-0.000114092
-2.68139e-05
-1.83787e-05
-1.16349e-05
-1.09798e-05
-1.01586e-05
-1.7296e-05
-9.00799e-06
-7.60701e-06
-7.44365e-06
-6.40835e-06
-6.30267e-06
-5.35166e-06
-5.25801e-06
-4.4143e-06
-4.33246e-06
-3.60665e-06
-3.53692e-06
-2.92613e-06
-2.86784e-06
-2.36178e-06
-2.31372e-06
-1.89904e-06
-1.85979e-06
-1.52268e-06
-1.49085e-06
-1.21833e-06
-1.19264e-06
-9.73233e-07
-9.52576e-07
-7.76441e-07
-7.59873e-07
-6.18781e-07
-6.05519e-07
-4.92685e-07
-4.82085e-07
-3.91974e-07
-3.83513e-07
-3.11643e-07
-3.04899e-07
-2.47656e-07
-2.42289e-07
-1.96777e-07
-1.92541e-07
-1.56538e-07
-1.53715e-07
-1.28808e-07
-2.08672e-07
-1.02669e-07
-8.01886e-08
-7.78147e-08
-6.37286e-08
-6.23958e-08
-5.15206e-08
-5.05103e-08
-4.20785e-08
-4.12984e-08
-3.48014e-08
-3.4202e-08
-2.92315e-08
-2.87723e-08
-2.497e-08
-2.45971e-08
-2.12945e-08
-2.09321e-08
-1.73086e-08
-1.69186e-08
-1.30392e-08
-1.26678e-08
-9.46708e-09
-9.03813e-09
-3.97815e-09
-3.54823e-09
-2.16317e-10
-3.85584e-11
-8.68787e-12
-6.27419e-10
0.00358194
-0.00273696
-0.000474583
-0.0001597
-4.43032e-05
-2.20837e-05
-1.30538e-05
-1.13388e-05
-1.08058e-05
-1.5917e-05
-9.51193e-06
-7.81114e-06
-7.40543e-06
-6.48773e-06
-6.24169e-06
-5.42013e-06
-5.20349e-06
-4.47543e-06
-4.28614e-06
-3.65963e-06
-3.49834e-06
-2.97095e-06
-2.83612e-06
-2.39906e-06
-2.28786e-06
-1.92967e-06
-1.83886e-06
-1.54763e-06
-1.47397e-06
-1.23853e-06
-1.17908e-06
-9.89511e-07
-9.41707e-07
-7.89518e-07
-7.51177e-07
-6.29262e-07
-5.9857e-07
-5.0107e-07
-4.76539e-07
-3.98673e-07
-3.79093e-07
-3.16988e-07
-3.01381e-07
-2.51916e-07
-2.39499e-07
-2.00183e-07
-1.90397e-07
-1.59536e-07
-1.53277e-07
-1.36617e-07
-1.92064e-07
-1.08895e-07
-8.32101e-08
-7.73609e-08
-6.48644e-08
-6.1758e-08
-5.23407e-08
-5.00011e-08
-4.27124e-08
-4.09067e-08
-3.52907e-08
-3.39034e-08
-2.96057e-08
-2.85423e-08
-2.52472e-08
-2.43829e-08
-2.15168e-08
-2.06777e-08
-1.75513e-08
-1.66504e-08
-1.33173e-08
-1.24563e-08
-9.65111e-09
-8.66037e-09
-4.358e-09
-3.36953e-09
-5.22779e-10
-1.09757e-10
-2.51515e-11
-6.32935e-10
0.00352048
-0.00247719
-0.000616836
-0.000197328
-5.80642e-05
-2.52606e-05
-1.41799e-05
-1.16504e-05
-1.12271e-05
-1.49985e-05
-9.82764e-06
-7.96341e-06
-7.38765e-06
-6.5402e-06
-6.20369e-06
-5.46437e-06
-5.16939e-06
-4.51498e-06
-4.25728e-06
-3.69398e-06
-3.47438e-06
-3.00006e-06
-2.81646e-06
-2.42329e-06
-2.27187e-06
-1.9496e-06
-1.82592e-06
-1.56387e-06
-1.46356e-06
-1.25168e-06
-1.17072e-06
-1.00011e-06
-9.35008e-07
-7.98035e-07
-7.45818e-07
-6.36089e-07
-5.9429e-07
-5.06533e-07
-4.73124e-07
-4.03038e-07
-3.76372e-07
-3.20472e-07
-2.99216e-07
-2.54693e-07
-2.37782e-07
-2.02407e-07
-1.89096e-07
-1.61548e-07
-1.53254e-07
-1.41542e-07
-1.81e-07
-1.12821e-07
-8.54374e-08
-7.71725e-08
-6.56242e-08
-6.13721e-08
-5.28773e-08
-4.96895e-08
-4.31266e-08
-4.06671e-08
-3.56107e-08
-3.3721e-08
-2.98504e-08
-2.84013e-08
-2.5427e-08
-2.42486e-08
-2.16579e-08
-2.05147e-08
-1.7705e-08
-1.64794e-08
-1.34963e-08
-1.23225e-08
-9.7625e-09
-8.41503e-09
-4.60525e-09
-3.26514e-09
-7.31876e-10
-1.6781e-10
-3.9049e-11
-6.37623e-10
0.00347733
-0.00231016
-0.000701452
-0.000223742
-6.75652e-05
-2.75676e-05
-1.49635e-05
-1.18775e-05
-1.14805e-05
-1.44375e-05
-1.0011e-05
-8.06403e-06
-7.38065e-06
-6.57216e-06
-6.18173e-06
-5.49077e-06
-5.14962e-06
-4.53861e-06
-4.24059e-06
-3.71453e-06
-3.46057e-06
-3.0175e-06
-2.80516e-06
-2.43782e-06
-2.26269e-06
-1.96156e-06
-1.81851e-06
-1.57362e-06
-1.45759e-06
-1.25957e-06
-1.16593e-06
-1.00648e-06
-9.31173e-07
-8.03152e-07
-7.42752e-07
-6.40192e-07
-5.91841e-07
-5.09816e-07
-4.71171e-07
-4.05662e-07
-3.74816e-07
-3.22565e-07
-2.97978e-07
-2.56363e-07
-2.36802e-07
-2.03746e-07
-1.88362e-07
-1.62789e-07
-1.53366e-07
-1.44417e-07
-1.74239e-07
-1.15114e-07
-8.68988e-08
-7.71145e-08
-6.60912e-08
-6.11553e-08
-5.32009e-08
-4.95123e-08
-4.33762e-08
-4.0531e-08
-3.58035e-08
-3.36175e-08
-2.99979e-08
-2.83211e-08
-2.55347e-08
-2.41705e-08
-2.17408e-08
-2.0418e-08
-1.7795e-08
-1.63786e-08
-1.36028e-08
-1.22441e-08
-9.82527e-09
-8.26809e-09
-4.75365e-09
-3.20843e-09
-8.62179e-10
-2.08437e-10
-4.90653e-11
-6.41024e-10
0.00345516
-0.00222847
-0.000740822
-0.000237292
-7.24168e-05
-2.87778e-05
-1.53658e-05
-1.19967e-05
-1.15995e-05
-1.41717e-05
-1.0095e-05
-8.11399e-06
-7.37854e-06
-6.58729e-06
-6.17171e-06
-5.5031e-06
-5.14056e-06
-4.54965e-06
-4.23297e-06
-3.72415e-06
-3.45427e-06
-3.02566e-06
-2.80001e-06
-2.44463e-06
-2.25851e-06
-1.96716e-06
-1.81514e-06
-1.57819e-06
-1.45488e-06
-1.26328e-06
-1.16376e-06
-1.00947e-06
-9.29434e-07
-8.05553e-07
-7.41362e-07
-6.42117e-07
-5.90731e-07
-5.11357e-07
-4.70286e-07
-4.06893e-07
-3.74111e-07
-3.23548e-07
-2.97417e-07
-2.57146e-07
-2.36358e-07
-2.04375e-07
-1.88032e-07
-1.63381e-07
-1.53457e-07
-1.4574e-07
-1.71035e-07
-1.16168e-07
-8.76216e-08
-7.71049e-08
-6.63138e-08
-6.10583e-08
-5.33532e-08
-4.94324e-08
-4.34935e-08
-4.04696e-08
-3.58942e-08
-3.35708e-08
-3.00673e-08
-2.82849e-08
-2.55851e-08
-2.41347e-08
-2.17791e-08
-2.03731e-08
-1.78366e-08
-1.63318e-08
-1.36524e-08
-1.22079e-08
-9.85344e-09
-8.19932e-09
-4.8232e-09
-3.18371e-09
-9.24751e-10
-2.29274e-10
-5.43005e-11
-6.42811e-10
0.00345516
-0.00222847
-0.000740822
-0.000237292
-7.24167e-05
-2.87777e-05
-1.53657e-05
-1.19966e-05
-1.15995e-05
-1.41717e-05
-1.0095e-05
-8.11399e-06
-7.37854e-06
-6.58729e-06
-6.17171e-06
-5.5031e-06
-5.14056e-06
-4.54965e-06
-4.23298e-06
-3.72415e-06
-3.45427e-06
-3.02566e-06
-2.80001e-06
-2.44463e-06
-2.25851e-06
-1.96716e-06
-1.81514e-06
-1.57819e-06
-1.45488e-06
-1.26328e-06
-1.16376e-06
-1.00947e-06
-9.29434e-07
-8.05553e-07
-7.41362e-07
-6.42117e-07
-5.90731e-07
-5.11357e-07
-4.70286e-07
-4.06893e-07
-3.74111e-07
-3.23548e-07
-2.97417e-07
-2.57146e-07
-2.36358e-07
-2.04375e-07
-1.88032e-07
-1.63381e-07
-1.53457e-07
-1.4574e-07
-1.71035e-07
-1.16168e-07
-8.76216e-08
-7.71049e-08
-6.63138e-08
-6.10583e-08
-5.33532e-08
-4.94324e-08
-4.34935e-08
-4.04696e-08
-3.58942e-08
-3.35708e-08
-3.00673e-08
-2.82849e-08
-2.55851e-08
-2.41347e-08
-2.17791e-08
-2.03731e-08
-1.78366e-08
-1.63318e-08
-1.36524e-08
-1.22079e-08
-9.85344e-09
-8.19932e-09
-4.8232e-09
-3.1837e-09
-9.24749e-10
-2.29273e-10
-5.43002e-11
-6.4281e-10
0.00347733
-0.00231017
-0.000701452
-0.000223742
-6.75649e-05
-2.75674e-05
-1.49634e-05
-1.18774e-05
-1.14805e-05
-1.44375e-05
-1.0011e-05
-8.06403e-06
-7.38065e-06
-6.57216e-06
-6.18173e-06
-5.49077e-06
-5.14962e-06
-4.53861e-06
-4.2406e-06
-3.71453e-06
-3.46057e-06
-3.0175e-06
-2.80516e-06
-2.43782e-06
-2.26269e-06
-1.96156e-06
-1.81851e-06
-1.57362e-06
-1.45759e-06
-1.25957e-06
-1.16593e-06
-1.00648e-06
-9.31174e-07
-8.03152e-07
-7.42752e-07
-6.40192e-07
-5.91841e-07
-5.09817e-07
-4.71171e-07
-4.05662e-07
-3.74816e-07
-3.22566e-07
-2.97978e-07
-2.56363e-07
-2.36802e-07
-2.03746e-07
-1.88362e-07
-1.62789e-07
-1.53366e-07
-1.44418e-07
-1.74239e-07
-1.15114e-07
-8.68988e-08
-7.71145e-08
-6.60913e-08
-6.11553e-08
-5.3201e-08
-4.95124e-08
-4.33762e-08
-4.0531e-08
-3.58035e-08
-3.36175e-08
-2.99979e-08
-2.83211e-08
-2.55347e-08
-2.41705e-08
-2.17408e-08
-2.0418e-08
-1.77951e-08
-1.63786e-08
-1.36028e-08
-1.22441e-08
-9.82527e-09
-8.26808e-09
-4.75364e-09
-3.20842e-09
-8.62174e-10
-2.08434e-10
-4.90645e-11
-6.41023e-10
0.00352048
-0.00247719
-0.000616836
-0.000197327
-5.80638e-05
-2.52603e-05
-1.41798e-05
-1.16503e-05
-1.12271e-05
-1.49985e-05
-9.82764e-06
-7.96341e-06
-7.38765e-06
-6.5402e-06
-6.20369e-06
-5.46437e-06
-5.1694e-06
-4.51498e-06
-4.25728e-06
-3.69398e-06
-3.47438e-06
-3.00006e-06
-2.81646e-06
-2.42329e-06
-2.27187e-06
-1.9496e-06
-1.82593e-06
-1.56387e-06
-1.46356e-06
-1.25168e-06
-1.17072e-06
-1.00011e-06
-9.35009e-07
-7.98035e-07
-7.45819e-07
-6.3609e-07
-5.9429e-07
-5.06533e-07
-4.73125e-07
-4.03039e-07
-3.76372e-07
-3.20472e-07
-2.99216e-07
-2.54693e-07
-2.37782e-07
-2.02407e-07
-1.89096e-07
-1.61548e-07
-1.53254e-07
-1.41542e-07
-1.81e-07
-1.12821e-07
-8.54374e-08
-7.71725e-08
-6.56242e-08
-6.13722e-08
-5.28773e-08
-4.96895e-08
-4.31266e-08
-4.06671e-08
-3.56107e-08
-3.37211e-08
-2.98505e-08
-2.84014e-08
-2.5427e-08
-2.42486e-08
-2.16579e-08
-2.05147e-08
-1.7705e-08
-1.64794e-08
-1.34963e-08
-1.23225e-08
-9.7625e-09
-8.41502e-09
-4.60524e-09
-3.26513e-09
-7.31869e-10
-1.67805e-10
-3.90481e-11
-6.37621e-10
0.00358194
-0.00273697
-0.000474583
-0.0001597
-4.43028e-05
-2.20835e-05
-1.30537e-05
-1.13388e-05
-1.08058e-05
-1.5917e-05
-9.51194e-06
-7.81114e-06
-7.40544e-06
-6.48774e-06
-6.24169e-06
-5.42013e-06
-5.20349e-06
-4.47543e-06
-4.28614e-06
-3.65963e-06
-3.49834e-06
-2.97096e-06
-2.83612e-06
-2.39906e-06