# vtk DataFile Version 2.0
generated by CFD-lab course output (written by Tobias Neckel) 
ASCII

DATASET STRUCTURED_GRID
DIMENSIONS  99 19 1 
POINTS 1881 float

0.000000 0.000000 0
0.100000 0.000000 0
0.200000 0.000000 0
0.300000 0.000000 0
0.400000 0.000000 0
0.500000 0.000000 0
0.600000 0.000000 0
0.700000 0.000000 0
0.800000 0.000000 0
0.900000 0.000000 0
1.000000 0.000000 0
1.100000 0.000000 0
1.200000 0.000000 0
1.300000 0.000000 0
1.400000 0.000000 0
1.500000 0.000000 0
1.600000 0.000000 0
1.700000 0.000000 0
1.800000 0.000000 0
1.900000 0.000000 0
2.000000 0.000000 0
2.100000 0.000000 0
2.200000 0.000000 0
2.300000 0.000000 0
2.400000 0.000000 0
2.500000 0.000000 0
2.600000 0.000000 0
2.700000 0.000000 0
2.800000 0.000000 0
2.900000 0.000000 0
3.000000 0.000000 0
3.100000 0.000000 0
3.200000 0.000000 0
3.300000 0.000000 0
3.400000 0.000000 0
3.500000 0.000000 0
3.600000 0.000000 0
3.700000 0.000000 0
3.800000 0.000000 0
3.900000 0.000000 0
4.000000 0.000000 0
4.100000 0.000000 0
4.200000 0.000000 0
4.300000 0.000000 0
4.400000 0.000000 0
4.500000 0.000000 0
4.600000 0.000000 0
4.700000 0.000000 0
4.800000 0.000000 0
4.900000 0.000000 0
5.000000 0.000000 0
5.100000 0.000000 0
5.200000 0.000000 0
5.300000 0.000000 0
5.400000 0.000000 0
5.500000 0.000000 0
5.600000 0.000000 0
5.700000 0.000000 0
5.800000 0.000000 0
5.900000 0.000000 0
6.000000 0.000000 0
6.100000 0.000000 0
6.200000 0.000000 0
6.300000 0.000000 0
6.400000 0.000000 0
6.500000 0.000000 0
6.600000 0.000000 0
6.700000 0.000000 0
6.800000 0.000000 0
6.900000 0.000000 0
7.000000 0.000000 0
7.100000 0.000000 0
7.200000 0.000000 0
7.300000 0.000000 0
7.400000 0.000000 0
7.500000 0.000000 0
7.600000 0.000000 0
7.700000 0.000000 0
7.800000 0.000000 0
7.900000 0.000000 0
8.000000 0.000000 0
8.100000 0.000000 0
8.200000 0.000000 0
8.300000 0.000000 0
8.400000 0.000000 0
8.500000 0.000000 0
8.600000 0.000000 0
8.700000 0.000000 0
8.800000 0.000000 0
8.900000 0.000000 0
9.000000 0.000000 0
9.100000 0.000000 0
9.200000 0.000000 0
9.300000 0.000000 0
9.400000 0.000000 0
9.500000 0.000000 0
9.600000 0.000000 0
9.700000 0.000000 0
9.800000 0.000000 0
0.000000 0.100000 0
0.100000 0.100000 0
0.200000 0.100000 0
0.300000 0.100000 0
0.400000 0.100000 0
0.500000 0.100000 0
0.600000 0.100000 0
0.700000 0.100000 0
0.800000 0.100000 0
0.900000 0.100000 0
1.000000 0.100000 0
1.100000 0.100000 0
1.200000 0.100000 0
1.300000 0.100000 0
1.400000 0.100000 0
1.500000 0.100000 0
1.600000 0.100000 0
1.700000 0.100000 0
1.800000 0.100000 0
1.900000 0.100000 0
2.000000 0.100000 0
2.100000 0.100000 0
2.200000 0.100000 0
2.300000 0.100000 0
2.400000 0.100000 0
2.500000 0.100000 0
2.600000 0.100000 0
2.700000 0.100000 0
2.800000 0.100000 0
2.900000 0.100000 0
3.000000 0.100000 0
3.100000 0.100000 0
3.200000 0.100000 0
3.300000 0.100000 0
3.400000 0.100000 0
3.500000 0.100000 0
3.600000 0.100000 0
3.700000 0.100000 0
3.800000 0.100000 0
3.900000 0.100000 0
4.000000 0.100000 0
4.100000 0.100000 0
4.200000 0.100000 0
4.300000 0.100000 0
4.400000 0.100000 0
4.500000 0.100000 0
4.600000 0.100000 0
4.700000 0.100000 0
4.800000 0.100000 0
4.900000 0.100000 0
5.000000 0.100000 0
5.100000 0.100000 0
5.200000 0.100000 0
5.300000 0.100000 0
5.400000 0.100000 0
5.500000 0.100000 0
5.600000 0.100000 0
5.700000 0.100000 0
5.800000 0.100000 0
5.900000 0.100000 0
6.000000 0.100000 0
6.100000 0.100000 0
6.200000 0.100000 0
6.300000 0.100000 0
6.400000 0.100000 0
6.500000 0.100000 0
6.600000 0.100000 0
6.700000 0.100000 0
6.800000 0.100000 0
6.900000 0.100000 0
7.000000 0.100000 0
7.100000 0.100000 0
7.200000 0.100000 0
7.300000 0.100000 0
7.400000 0.100000 0
7.500000 0.100000 0
7.600000 0.100000 0
7.700000 0.100000 0
7.800000 0.100000 0
7.900000 0.100000 0
8.000000 0.100000 0
8.100000 0.100000 0
8.200000 0.100000 0
8.300000 0.100000 0
8.400000 0.100000 0
8.500000 0.100000 0
8.600000 0.100000 0
8.700000 0.100000 0
8.800000 0.100000 0
8.900000 0.100000 0
9.000000 0.100000 0
9.100000 0.100000 0
9.200000 0.100000 0
9.300000 0.100000 0
9.400000 0.100000 0
9.500000 0.100000 0
9.600000 0.100000 0
9.700000 0.100000 0
9.800000 0.100000 0
0.000000 0.200000 0
0.100000 0.200000 0
0.200000 0.200000 0
0.300000 0.200000 0
0.400000 0.200000 0
0.500000 0.200000 0
0.600000 0.200000 0
0.700000 0.200000 0
0.800000 0.200000 0
0.900000 0.200000 0
1.000000 0.200000 0
1.100000 0.200000 0
1.200000 0.200000 0
1.300000 0.200000 0
1.400000 0.200000 0
1.500000 0.200000 0
1.600000 0.200000 0
1.700000 0.200000 0
1.800000 0.200000 0
1.900000 0.200000 0
2.000000 0.200000 0
2.100000 0.200000 0
2.200000 0.200000 0
2.300000 0.200000 0
2.400000 0.200000 0
2.500000 0.200000 0
2.600000 0.200000 0
2.700000 0.200000 0
2.800000 0.200000 0
2.900000 0.200000 0
3.000000 0.200000 0
3.100000 0.200000 0
3.200000 0.200000 0
3.300000 0.200000 0
3.400000 0.200000 0
3.500000 0.200000 0
3.600000 0.200000 0
3.700000 0.200000 0
3.800000 0.200000 0
3.900000 0.200000 0
4.000000 0.200000 0
4.100000 0.200000 0
4.200000 0.200000 0
4.300000 0.200000 0
4.400000 0.200000 0
4.500000 0.200000 0
4.600000 0.200000 0
4.700000 0.200000 0
4.800000 0.200000 0
4.900000 0.200000 0
5.000000 0.200000 0
5.100000 0.200000 0
5.200000 0.200000 0
5.300000 0.200000 0
5.400000 0.200000 0
5.500000 0.200000 0
5.600000 0.200000 0
5.700000 0.200000 0
5.800000 0.200000 0
5.900000 0.200000 0
6.000000 0.200000 0
6.100000 0.200000 0
6.200000 0.200000 0
6.300000 0.200000 0
6.400000 0.200000 0
6.500000 0.200000 0
6.600000 0.200000 0
6.700000 0.200000 0
6.800000 0.200000 0
6.900000 0.200000 0
7.000000 0.200000 0
7.100000 0.200000 0
7.200000 0.200000 0
7.300000 0.200000 0
7.400000 0.200000 0
7.500000 0.200000 0
7.600000 0.200000 0
7.700000 0.200000 0
7.800000 0.200000 0
7.900000 0.200000 0
8.000000 0.200000 0
8.100000 0.200000 0
8.200000 0.200000 0
8.300000 0.200000 0
8.400000 0.200000 0
8.500000 0.200000 0
8.600000 0.200000 0
8.700000 0.200000 0
8.800000 0.200000 0
8.900000 0.200000 0
9.000000 0.200000 0
9.100000 0.200000 0
9.200000 0.200000 0
9.300000 0.200000 0
9.400000 0.200000 0
9.500000 0.200000 0
9.600000 0.200000 0
9.700000 0.200000 0
9.800000 0.200000 0
0.000000 0.300000 0
0.100000 0.300000 0
0.200000 0.300000 0
0.300000 0.300000 0
0.400000 0.300000 0
0.500000 0.300000 0
0.600000 0.300000 0
0.700000 0.300000 0
0.800000 0.300000 0
0.900000 0.300000 0
1.000000 0.300000 0
1.100000 0.300000 0
1.200000 0.300000 0
1.300000 0.300000 0
1.400000 0.300000 0
1.500000 0.300000 0
1.600000 0.300000 0
1.700000 0.300000 0
1.800000 0.300000 0
1.900000 0.300000 0
2.000000 0.300000 0
2.100000 0.300000 0
2.200000 0.300000 0
2.300000 0.300000 0
2.400000 0.300000 0
2.500000 0.300000 0
2.600000 0.300000 0
2.700000 0.300000 0
2.800000 0.300000 0
2.900000 0.300000 0
3.000000 0.300000 0
3.100000 0.300000 0
3.200000 0.300000 0
3.300000 0.300000 0
3.400000 0.300000 0
3.500000 0.300000 0
3.600000 0.300000 0
3.700000 0.300000 0
3.800000 0.300000 0
3.900000 0.300000 0
4.000000 0.300000 0
4.100000 0.300000 0
4.200000 0.300000 0
4.300000 0.300000 0
4.400000 0.300000 0
4.500000 0.300000 0
4.600000 0.300000 0
4.700000 0.300000 0
4.800000 0.300000 0
4.900000 0.300000 0
5.000000 0.300000 0
5.100000 0.300000 0
5.200000 0.300000 0
5.300000 0.300000 0
5.400000 0.300000 0
5.500000 0.300000 0
5.600000 0.300000 0
5.700000 0.300000 0
5.800000 0.300000 0
5.900000 0.300000 0
6.000000 0.300000 0
6.100000 0.300000 0
6.200000 0.300000 0
6.300000 0.300000 0
6.400000 0.300000 0
6.500000 0.300000 0
6.600000 0.300000 0
6.700000 0.300000 0
6.800000 0.300000 0
6.900000 0.300000 0
7.000000 0.300000 0
7.100000 0.300000 0
7.200000 0.300000 0
7.300000 0.300000 0
7.400000 0.300000 0
7.500000 0.300000 0
7.600000 0.300000 0
7.700000 0.300000 0
7.800000 0.300000 0
7.900000 0.300000 0
8.000000 0.300000 0
8.100000 0.300000 0
8.200000 0.300000 0
8.300000 0.300000 0
8.400000 0.300000 0
8.500000 0.300000 0
8.600000 0.300000 0
8.700000 0.300000 0
8.800000 0.300000 0
8.900000 0.300000 0
9.000000 0.300000 0
9.100000 0.300000 0
9.200000 0.300000 0
9.300000 0.300000 0
9.400000 0.300000 0
9.500000 0.300000 0
9.600000 0.300000 0
9.700000 0.300000 0
9.800000 0.300000 0
0.000000 0.400000 0
0.100000 0.400000 0
0.200000 0.400000 0
0.300000 0.400000 0
0.400000 0.400000 0
0.500000 0.400000 0
0.600000 0.400000 0
0.700000 0.400000 0
0.800000 0.400000 0
0.900000 0.400000 0
1.000000 0.400000 0
1.100000 0.400000 0
1.200000 0.400000 0
1.300000 0.400000 0
1.400000 0.400000 0
1.500000 0.400000 0
1.600000 0.400000 0
1.700000 0.400000 0
1.800000 0.400000 0
1.900000 0.400000 0
2.000000 0.400000 0
2.100000 0.400000 0
2.200000 0.400000 0
2.300000 0.400000 0
2.400000 0.400000 0
2.500000 0.400000 0
2.600000 0.400000 0
2.700000 0.400000 0
2.800000 0.400000 0
2.900000 0.400000 0
3.000000 0.400000 0
3.100000 0.400000 0
3.200000 0.400000 0
3.300000 0.400000 0
3.400000 0.400000 0
3.500000 0.400000 0
3.600000 0.400000 0
3.700000 0.400000 0
3.800000 0.400000 0
3.900000 0.400000 0
4.000000 0.400000 0
4.100000 0.400000 0
4.200000 0.400000 0
4.300000 0.400000 0
4.400000 0.400000 0
4.500000 0.400000 0
4.600000 0.400000 0
4.700000 0.400000 0
4.800000 0.400000 0
4.900000 0.400000 0
5.000000 0.400000 0
5.100000 0.400000 0
5.200000 0.400000 0
5.300000 0.400000 0
5.400000 0.400000 0
5.500000 0.400000 0
5.600000 0.400000 0
5.700000 0.400000 0
5.800000 0.400000 0
5.900000 0.400000 0
6.000000 0.400000 0
6.100000 0.400000 0
6.200000 0.400000 0
6.300000 0.400000 0
6.400000 0.400000 0
6.500000 0.400000 0
6.600000 0.400000 0
6.700000 0.400000 0
6.800000 0.400000 0
6.900000 0.400000 0
7.000000 0.400000 0
7.100000 0.400000 0
7.200000 0.400000 0
7.300000 0.400000 0
7.400000 0.400000 0
7.500000 0.400000 0
7.600000 0.400000 0
7.700000 0.400000 0
7.800000 0.400000 0
7.900000 0.400000 0
8.000000 0.400000 0
8.100000 0.400000 0
8.200000 0.400000 0
8.300000 0.400000 0
8.400000 0.400000 0
8.500000 0.400000 0
8.600000 0.400000 0
8.700000 0.400000 0
8.800000 0.400000 0
8.900000 0.400000 0
9.000000 0.400000 0
9.100000 0.400000 0
9.200000 0.400000 0
9.300000 0.400000 0
9.400000 0.400000 0
[...]
POINT_DATA 1881 

VECTORS velocity float
0.500000 0.000000 0
0.502097 0.000000 0
0.506735 0.000000 0
0.514324 0.000000 0
0.525265 0.000000 0
0.539868 0.000000 0
0.558138 0.000000 0
0.579485 0.000000 0
0.602500 0.000000 0
0.624895 0.000000 0
0.644750 0.000000 0
0.661132 0.000000 0
0.673945 0.000000 0
0.683579 0.000000 0
0.690601 0.000000 0
0.695516 0.000000 0
0.698590 0.000000 0
0.699787 0.000000 0
0.698852 0.000000 0
0.695447 0.000000 0
0.689344 0.000000 0
0.680534 0.000000 0
0.669244 0.000000 0
0.655914 0.000000 0
0.641137 0.000000 0
0.625611 0.000000 0
0.610091 0.000000 0
0.595351 0.000000 0
0.582148 0.000000 0
0.571204 0.000000 0
0.563217 0.000000 0
0.558913 0.000000 0
0.559026 0.000000 0
0.563949 0.000000 0
0.573483 0.000000 0
0.586642 0.000000 0
0.601616 0.000000 0
0.616048 0.000000 0
0.627566 0.000000 0
0.634437 0.000000 0
0.635999 0.000000 0
0.632406 0.000000 0
0.624214 0.000000 0
0.612245 0.000000 0
0.597444 0.000000 0
0.580769 0.000000 0
0.563131 0.000000 0
0.545379 0.000000 0
0.528306 0.000000 0
0.512683 0.000000 0
0.499286 0.000000 0
0.488925 0.000000 0
0.482426 0.000000 0
0.480493 0.000000 0
0.483325 0.000000 0
0.490653 0.000000 0
0.502002 0.000000 0
0.516748 0.000000 0
0.534109 0.000000 0
0.553087 0.000000 0
0.572369 0.000000 0
0.590279 0.000000 0
0.604891 0.000000 0
0.614427 0.000000 0
0.617850 0.000000 0
0.615099 0.000000 0
0.606590 0.000000 0
0.593047 0.000000 0
0.575504 0.000000 0
0.555251 0.000000 0
0.533758 0.000000 0
0.512593 0.000000 0
0.493318 0.000000 0
0.477352 0.000000 0
0.465810 0.000000 0
0.459326 0.000000 0
0.457893 0.000000 0
0.460698 0.000000 0
0.466678 0.000000 0
0.474981 0.000000 0
0.485025 0.000000 0
0.496446 0.000000 0
0.508994 0.000000 0
0.522398 0.000000 0
0.536234 0.000000 0
0.549807 0.000000 0
0.562123 0.000000 0
0.571975 0.000000 0
0.578196 0.000000 0
0.580005 0.000000 0
0.577157 0.000000 0
0.569704 0.000000 0
0.557982 0.000000 0
0.542703 0.000000 0
0.525014 0.000000 0
0.506516 0.000000 0
0.489172 0.000000 0
0.475101 0.000000 0
0.467069 0.000000 0
1.000000 -0.002079 0
1.004755 -0.006709 0
1.014665 -0.012212 0
1.030466 -0.018519 0
1.053037 -0.025534 0
1.083193 -0.032863 0
1.121226 -0.039607 0
1.166190 -0.044352 0
1.215317 -0.045393 0
1.262771 -0.042225 0
1.304139 -0.036208 0
1.337728 -0.029165 0
1.363721 -0.022419 0
1.383214 -0.016633 0
1.397578 -0.011916 0
1.407997 -0.007965 0
1.415084 -0.004248 0
1.418695 -0.000239 0
1.418107 0.004362 0
1.412473 0.009527 0
1.401229 0.014930 0
1.384334 0.020115 0
1.362285 0.024632 0
1.336014 0.028117 0
1.306759 0.030311 0
1.275962 0.031053 0
1.245175 0.030265 0
1.215977 0.027947 0
1.189902 0.024150 0
1.168379 0.018936 0
1.152740 0.012298 0
1.144271 0.004201 0
1.144229 -0.005022 0
1.153585 -0.014439 0
1.172369 -0.022672 0
1.199030 -0.028111 0
1.230257 -0.029384 0
1.261401 -0.025928 0
1.287431 -0.018370 0
1.304246 -0.008416 0
1.309825 0.002047 0
1.304360 0.011800 0
1.289171 0.020175 0
1.266099 0.026783 0
1.237185 0.031489 0
1.204446 0.034324 0
1.169769 0.035400 0
1.134882 0.034834 0
1.101384 0.032704 0
1.070781 0.029028 0
1.044503 0.023764 0
1.023859 0.016865 0
1.009914 0.008438 0
1.003371 -0.000893 0
1.004572 -0.010154 0
1.013488 -0.018670 0
1.029763 -0.026086 0
1.052731 -0.032096 0
1.081442 -0.036326 0
1.114592 -0.038247 0
1.150294 -0.037178 0
1.185868 -0.032507 0
1.217855 -0.024133 0
1.242424 -0.012946 0
1.256183 -0.000661 0
1.257346 0.011270 0
1.246437 0.022062 0
1.224991 0.031094 0
1.195151 0.037803 0
1.159507 0.041753 0
1.120937 0.042664 0
1.082419 0.040446 0
1.046800 0.035246 0
1.016509 0.027513 0
0.993237 0.018031 0
0.977709 0.007922 0
0.969705 -0.001368 0
0.968409 -0.008781 0
0.972672 -0.014278 0
0.981404 -0.018343 0
0.993830 -0.021462 0
1.009513 -0.023964 0
1.028237 -0.025947 0
1.049774 -0.027236 0
1.073607 -0.027404 0
1.098687 -0.025884 0
1.123351 -0.022164 0
1.145397 -0.016069 0
1.162335 -0.008025 0
1.171821 0.001043 0
1.172340 0.010305 0
1.163831 0.019178 0
1.147077 0.027004 0
1.123570 0.032971 0
1.095497 0.036189 0
1.065631 0.035843 0
1.037069 0.031416 0
1.012756 0.022104 0
0.995423 0.014066 0
1.000000 -0.004729 0
1.004908 -0.014631 0
1.014817 -0.025695 0
1.030495 -0.038358 0
1.053142 -0.052715 0
1.084217 -0.068177 0
1.125004 -0.082985 0
1.175480 -0.094072 0
1.233783 -0.096551 0
1.288227 -0.088787 0
1.332678 -0.074922 0
1.366581 -0.059548 0
1.391523 -0.045457 0
1.409582 -0.033833 0
1.422830 -0.024755 0
1.433006 -0.017475 0
1.441040 -0.010670 0
1.446594 -0.002996 0
1.448258 0.006247 0
1.444574 0.016900 0
1.434637 0.028158 0
1.418367 0.038960 0
1.396389 0.048334 0
1.369794 0.055537 0
1.339956 0.060061 0
1.308414 0.061592 0
1.276806 0.059991 0
1.246776 0.055278 0
1.219870 0.047604 0
1.197443 0.037171 0
1.180629 0.024121 0
1.170462 0.008528 0
1.168118 -0.009293 0
1.175036 -0.028114 0
1.191959 -0.045417 0
1.218062 -0.057860 0
1.250812 -0.062345 0
1.286148 -0.057152 0
1.318773 -0.042825 0
1.343060 -0.022373 0
1.354885 -0.000094 0
1.353674 0.020672 0
1.341366 0.038277 0
1.320332 0.052002 0
1.292999 0.061667 0
1.261602 0.067428 0
1.228111 0.069575 0
1.194232 0.068396 0
1.161462 0.064111 0
1.131115 0.056889 0
1.104308 0.046930 0
1.081867 0.034597 0
1.064226 0.020495 0
1.051444 0.005349 0
1.043623 -0.010108 0
1.041049 -0.025179 0
1.044067 -0.039229 0
1.052995 -0.051664 0
1.068191 -0.061844 0
1.089893 -0.068833 0
1.117726 -0.071258 0
1.150248 -0.067543 0
1.184797 -0.056539 0
1.217597 -0.038313 0
1.244090 -0.014910 0
1.259994 0.009758 0
1.263529 0.032366 0
1.255855 0.051295 0
1.238900 0.065493 0
1.215007 0.074222 0
1.186712 0.077096 0
1.156522 0.074144 0
1.126691 0.065917 0
1.098992 0.053569 0
1.074567 0.038806 0
1.053901 0.023537 0
1.037029 0.009306 0
1.023978 -0.002962 0
1.014671 -0.012990 0
1.008927 -0.021152 0
1.006803 -0.028104 0
1.008660 -0.034401 0
1.015038 -0.040255 0
1.026379 -0.045365 0
1.042656 -0.048907 0
1.063171 -0.049738 0
1.086570 -0.046703 0
1.110962 -0.038978 0
1.134024 -0.026418 0
1.153109 -0.010000 0
1.165692 0.007995 0
1.170433 0.025267 0
1.167720 0.040264 0
1.158672 0.051583 0
1.144870 0.057941 0
1.128090 0.058429 0
1.109981 0.052877 0
1.091713 0.041646 0
1.073310 0.032166 0
1.000000 -0.006971 0
1.003922 -0.021509 0
1.012112 -0.037797 0
1.025569 -0.056840 0
1.046025 -0.079253 0
1.076052 -0.104721 0
1.118938 -0.130860 0
1.177102 -0.153112 0
1.254101 -0.158120 0
1.318389 -0.141103 0
1.363255 -0.114550 0
1.393051 -0.088003 0
1.412400 -0.065417 0
1.424768 -0.047933 0
1.433124 -0.035327 0
1.440162 -0.026163 0
1.447683 -0.017827 0
1.455318 -0.007450 0
1.460104 0.006389 0
1.458907 0.023152 0
1.450153 0.041141 0
1.433795 0.058366 0
1.410775 0.073207 0
1.382478 0.084552 0
1.350468 0.091694 0
1.316422 0.094204 0
1.282099 0.091906 0
1.249269 0.084886 0
1.219549 0.073490 0
1.194196 0.058186 0
1.174007 0.039290 0
1.159499 0.016726 0
1.151315 -0.009581 0
1.150873 -0.038266 0
1.159682 -0.065685 0
1.178068 -0.086953 0
1.205456 -0.097464 0
1.240138 -0.093885 0
1.278280 -0.075275 0
1.313541 -0.044521 0
1.338401 -0.008561 0
1.347755 0.025324 0
1.343011 0.053521 0
1.327408 0.075155 0
1.304017 0.090222 0
1.275474 0.099216 0
1.243951 0.102774 0
1.211204 0.101486 0
1.178657 0.095824 0
1.147465 0.086185 0
1.118543 0.073015 0
1.092535 0.056951 0
1.069729 0.038864 0
1.049971 0.019716 0
1.032705 0.000248 0
1.017489 -0.019107 0
1.004928 -0.038023 0
0.997100 -0.056211 0
0.996541 -0.073215 0
1.005312 -0.087774 0
1.023971 -0.097526 0
1.051356 -0.099572 0
1.084980 -0.091478 0
1.121493 -0.072236 0
1.156941 -0.043054 0
1.186797 -0.008165 0
1.206558 0.026203 0
1.215055 0.055726 0
1.213499 0.078654 0
1.203622 0.093944 0
1.187374 0.101152 0
1.166689 0.100470 0
1.143305 0.092779 0
1.118666 0.079639 0
1.093909 0.063124 0
1.069882 0.045462 0
1.047122 0.028557 0
1.025808 0.013579 0
1.006100 0.000776 0
0.988456 -0.010472 0
0.973911 -0.021192 0
0.964153 -0.032197 0
0.960828 -0.043664 0
0.964797 -0.054851 0
0.975867 -0.064193 0
0.992967 -0.069795 0
1.014508 -0.069953 0
1.038686 -0.063520 0
1.063664 -0.050170 0
1.087604 -0.030623 0
1.108498 -0.007017 0
1.124089 0.017151 0
1.133385 0.038766 0
1.136647 0.055823 0
1.134526 0.066772 0
1.127811 0.070732 0
1.117219 0.067793 0
1.103312 0.058775 0
1.086446 0.050565 0
1.000000 -0.008637 0
1.002512 -0.026727 0
1.007932 -0.047339 0
1.017364 -0.072268 0
1.032959 -0.103192 0
1.058558 -0.141082 0
1.100570 -0.184020 0
1.166913 -0.229216 0
1.280428 -0.237823 0
1.349820 -0.197929 0
1.383013 -0.149576 0
1.398718 -0.108689 0
1.405241 -0.077169 0
1.406150 -0.054544 0
1.404393 -0.040136 0
1.403657 -0.032026 0
1.407785 -0.025818 0
1.417959 -0.015411 0
1.429542 0.002664 0
1.434445 0.026855 0
1.429559 0.053273 0
1.415212 0.078341 0
1.392991 0.099653 0
1.364634 0.115846 0
1.331786 0.126119 0
1.296138 0.129964 0
1.259548 0.127147 0
1.223996 0.117834 0
1.191313 0.102686 0
1.162675 0.082723 0
1.138204 0.058830 0
1.117184 0.031234 0
1.098613 -0.000653 0
1.081859 -0.036468 0
1.069685 -0.072600 0
1.066702 -0.103626 0
1.076932 -0.124411 0
1.102239 -0.129970 0
1.140776 -0.116220 0
1.186846 -0.082488 0
1.231455 -0.034302 0
1.264120 0.016067 0
1.278939 0.058629 0
1.279094 0.091001 0
1.268171 0.113605 0
1.249206 0.127498 0
1.224680 0.133849 0
1.196612 0.133693 0
1.166634 0.127853 0
1.136062 0.117006 0
1.105911 0.101863 0
1.076764 0.083414 0
1.048494 0.063064 0
1.020130 0.042380 0
0.990500 0.022381 0
0.959742 0.002607 0
0.930485 -0.018831 0
0.907637 -0.043269 0
0.896343 -0.070047 0
0.898631 -0.096256 0
0.913556 -0.117296 0
0.938729 -0.128547 0
0.971346 -0.126673 0
1.008540 -0.110271 0
1.047400 -0.080209 0
1.084767 -0.039856 0
1.116597 0.004111 0
1.138854 0.044357 0
1.151158 0.076929 0
1.154396 0.100351 0
1.149828 0.114031 0
1.138825 0.118215 0
1.122694 0.113942 0
1.102585 0.102968 0
1.079425 0.087592 0
1.053882 0.070326 0
1.026450 0.053382 0
0.997778 0.038064 0
0.969148 0.024365 0
0.942712 0.011040 0
0.921064 -0.003797 0
0.906495 -0.021315 0
0.900467 -0.040897 0
0.903069 -0.060400 0
0.913243 -0.077073 0
0.929406 -0.088376 0
0.949887 -0.092420 0
0.973120 -0.088131 0
0.997691 -0.075334 0
1.022321 -0.054832 0
1.045770 -0.028489 0
1.066476 0.000382 0
1.082515 0.027708 0
1.093212 0.050443 0
1.098459 0.066777 0
1.098332 0.075737 0
1.092999 0.077375 0
1.082738 0.072419 0
1.067936 0.066703 0
1.000000 -0.009471 0
1.000595 -0.029427 0
1.002025 -0.052645 0
1.005108 -0.081863 0
1.011760 -0.120440 0
1.026260 -0.172320 0
1.057941 -0.239200 0
1.124150 -0.332956 0
1.294559 -0.341015 0
1.337389 -0.243679 0
1.329538 -0.163443 0
1.316243 -0.110227 0
1.302570 -0.072837 0
1.287154 -0.047071 0
1.269957 -0.032824 0
1.253859 -0.029547 0
1.245802 -0.032122 0
1.252999 -0.029201 0
1.274345 -0.010093 0
1.296091 0.023139 0
1.304306 0.060377 0
1.300644 0.094938 0
1.287943 0.123787 0
1.267980 0.145760 0
1.241833 0.160193 0
1.210723 0.166445 0
1.176390 0.164052 0
1.141127 0.153129 0
1.107258 0.134820 0
1.075616 0.111307 0
1.043864 0.084795 0
1.007692 0.056331 0
0.965327 0.025757 0
0.920258 -0.009326 0
0.880513 -0.050519 0
0.857733 -0.094195 0
0.857871 -0.132996 0
0.879898 -0.157722 0
0.919967 -0.159875 0
0.973073 -0.135194 0
1.032830 -0.085830 0
1.090444 -0.022155 0
1.134491 0.038552 0
1.160514 0.085928 0
1.171723 0.120115 0
1.171043 0.142709 0
1.160949 0.155370 0
1.143578 0.159536 0
1.120727 0.156377 0
1.093751 0.146911 0
1.063314 0.132317 0
1.029124 0.114372 0
0.990192 0.095505 0
0.946232 0.077717 0
0.899645 0.060644 0
0.856069 0.040917 0
0.822085 0.014090 0
0.802011 -0.022061 0
0.796756 -0.064201 0
0.804238 -0.104980 0
0.821557 -0.137618 0
0.846352 -0.157358 0
0.876872 -0.161286 0
0.911557 -0.148286 0
0.948714 -0.119278 0
0.986408 -0.077359 0
1.022297 -0.027880 0
1.052533 0.021168 0
1.074278 0.063115 0
1.087354 0.095278 0
1.092178 0.116726 0
1.089432 0.127606 0
1.079835 0.129020 0
1.063999 0.122910 0
1.042369 0.111830 0
1.015381 0.098440 0
0.983923 0.084664 0
0.949927 0.070884 0
0.916591 0.055845 0
0.887798 0.037616 0
0.866833 0.015028 0
0.855156 -0.011596 0
0.852443 -0.040234 0
0.857324 -0.067623 0
0.868147 -0.090526 0
0.883449 -0.106437 0
0.902040 -0.113664 0
0.922926 -0.111321 0
0.945200 -0.099368 0
0.967991 -0.078699 0
0.990433 -0.051170 0
1.011589 -0.019592 0
1.029933 0.012031 0
1.043946 0.039880 0
1.052950 0.061653 0
1.056518 0.076191 0
1.054413 0.083386 0
1.046613 0.083838 0
1.033238 0.081686 0
1.000000 -0.009220 0
0.998313 -0.028739 0
0.994802 -0.051848 0
0.989414 -0.081998 0
0.982551 -0.124337 0
0.976274 -0.187251 0
0.977856 -0.281896 0
1.009121 -0.465821 0
1.198903 -0.451053 0
1.149837 -0.232902 0
1.061611 -0.128425 0
1.014057 -0.081712 0
0.983637 -0.048065 0
0.953722 -0.021920 0
0.916687 -0.006832 0
0.879046 -0.007864 0
0.851330 -0.024953 0
0.849113 -0.043949 0
0.881775 -0.040424 0
0.938139 -0.003102 0
0.990655 0.048724 0
1.023204 0.094708 0
1.041454 0.132321 0
1.048148 0.161959 0
1.043302 0.183379 0
1.027201 0.195411 0
1.000584 0.196750 0
0.964058 0.186975 0
0.917595 0.168208 0
0.861182 0.146129 0
0.797056 0.126767 0
0.731356 0.109784 0
0.673351 0.086792 0
0.632818 0.048356 0
0.614696 -0.010069 0
0.617130 -0.080979 0
0.635912 -0.146569 0
0.667651 -0.192058 0
0.710605 -0.209389 0
0.763715 -0.195345 0
0.825157 -0.151667 0
0.891253 -0.085590 0
0.954672 -0.011437 0
1.004201 0.053773 0
1.037356 0.103080 0
1.056227 0.138275 0
1.062617 0.161317 0
1.058182 0.173918 0
1.044261 0.177684 0
1.021568 0.174423 0
0.989972 0.166493 0
0.948946 0.156541 0
0.899240 0.145963 0
0.845059 0.132934 0
0.794384 0.112552 0
0.755893 0.080175 0
0.734685 0.035235 0
0.730170 -0.017932 0
0.737144 -0.072266 0
0.750728 -0.121051 0
0.768403 -0.159405 0
0.789486 -0.183858 0
0.814123 -0.191874 0
0.842412 -0.182109 0
0.873856 -0.155057 0
0.907265 -0.113435 0
0.940955 -0.062011 0
0.972669 -0.007621 0
0.998680 0.042111 0
1.017361 0.082453 0
1.028236 0.111957 0
1.031218 0.130560 0
1.026348 0.139376 0
1.013693 0.140437 0
0.993490 0.136213 0
0.966587 0.128775 0
0.935009 0.118840 0
0.902147 0.105399 0
0.872133 0.086497 0
0.848592 0.060801 0
0.833543 0.028848 0
0.827141 -0.006921 0
0.827962 -0.043060 0
0.834110 -0.076101 0
0.844067 -0.103195 0
0.856851 -0.122266 0
0.871878 -0.131894 0
0.888751 -0.131288 0
0.907065 -0.120396 0
0.926298 -0.100062 0
0.945795 -0.072085 0
0.964785 -0.039117 0
0.982302 -0.004647 0
0.996718 0.027428 0
1.006881 0.054206 0
1.012024 0.074273 0
1.011639 0.087281 0
1.005521 0.093594 0
0.993761 0.095304 0
1.000000 -0.007774 0
0.996083 -0.024216 0
0.987606 -0.043741 0
0.973228 -0.069606 0
0.950624 -0.107291 0
0.916065 -0.167612 0
0.863838 -0.272034 0
0.789911 -0.553993 0
0.551639 -0.384587 0
0.494231 0.000000 0
0.425121 -0.018410 0
0.365965 -0.032240 0
0.353555 -0.012491 0
0.346664 0.019886 0
0.326519 0.041860 0
0.301020 0.035816 0
0.288790 -0.002184 0
0.306618 -0.059642 0
0.360425 -0.099115 0
0.447069 -0.085738 0
0.547722 -0.024685 0
0.636807 0.044142 0
0.700704 0.098847 0
0.742755 0.143916 0
0.764395 0.181143 0
0.765456 0.209170 0
0.745771 0.227204 0
0.705245 0.236127 0
0.645313 0.237708 0
0.572175 0.231859 0
0.499179 0.214634 0
0.443457 0.180048 0
0.417364 0.124305 0
0.422524 0.049336 0
0.450003 -0.034825 0
0.483999 -0.115405 0
0.516397 -0.183509 0
0.547610 -0.232408 0
0.581583 -0.255933 0
0.622474 -0.249741 0
0.672500 -0.213364 0
0.730905 -0.151666 0
0.794071 -0.074391 0
0.853838 0.003248 0
0.900526 0.068093 0
0.932836 0.117452 0
0.951374 0.153419 0
0.956760 0.177895 0
0.949413 0.192994 0
0.929451 0.201204 0
0.897205 0.204944 0
0.854618 0.205109 0
0.806853 0.199399 0
0.762123 0.182581 0
0.728657 0.149819 0
0.710836 0.100625 0
0.707843 0.039821 0
0.715384 -0.024512 0
0.727872 -0.084752 0
0.741544 -0.136234 0
0.754998 -0.176373 0
0.768600 -0.203073 0
0.783756 -0.214207 0
0.802031 -0.208015 0
0.824274 -0.184126 0
0.850143 -0.144455 0
0.878273 -0.093281 0
0.906731 -0.036554 0
0.932662 0.018426 0
0.953109 0.065724 0
0.966772 0.102871 0
0.972894 0.129497 0
0.971015 0.146548 0
0.961012 0.155771 0
0.943431 0.158939 0
0.919934 0.156924 0
0.893487 0.149108 0
0.867877 0.133764 0
0.846617 0.109403 0
0.831869 0.076209 0
0.824096 0.036483 0
0.822479 -0.006011 0
0.825507 -0.047199 0
0.831559 -0.083724 0
0.839471 -0.113264 0
0.848638 -0.134245 0
0.858922 -0.145561 0
0.870449 -0.146504 0
0.883351 -0.136912 0
0.897549 -0.117427 0
0.912654 -0.089654 0
0.928004 -0.056098 0
0.942743 -0.019900 0
0.955620 0.015302 0
0.965224 0.046347 0
0.970592 0.071434 0
0.971087 0.089890 0
0.966457 0.101715 0
0.956873 0.106963 0
1.000000 -0.005294 0
0.994480 -0.016332 0
0.982410 -0.028988 0
0.961432 -0.045009 0
0.926932 -0.067163 0
0.869845 -0.100453 0
0.770858 -0.155730 0
0.587966 -0.250746 0
0.000000 -0.155366 0
0.000000 0.000000 0
0.000000 0.000000 0
-0.027501 -0.019229 0
-0.042608 -0.028757 0
-0.069969 0.005123 0
-0.098752 0.038818 0
-0.116952 0.029870 0
-0.107501 -0.030547 0
-0.069305 -0.115580 0
-0.012612 -0.180872 0
0.065640 -0.190396 0
0.167704 -0.141011 0
0.277571 -0.058270 0
0.372976 0.026376 0
0.440153 0.098272 0
0.480356 0.160683 0
0.495103 0.214043 0
0.485739 0.256969 0
0.455860 0.287442 0
0.413810 0.301291 0
0.373085 0.292277 0
0.348251 0.255498 0
0.348407 0.191609 0
0.373268 0.107734 0
0.413888 0.015723 0
0.454802 -0.071538 0
0.487714 -0.147365 0
0.510844 -0.210172 0
0.526316 -0.257239 0
0.539371 -0.284247 0
0.556776 -0.286256 0
0.584292 -0.260093 0
0.624163 -0.207156 0
0.674285 -0.134366 0
0.729300 -0.052678 0
0.779512 0.024086 0
0.817534 0.087431 0
0.842095 0.137396 0
0.852801 0.175883 0
0.849597 0.204997 0
0.833120 0.226636 0
0.805677 0.241332 0
0.772272 0.246899 0
0.740369 0.238466 0
0.717473 0.211138 0
0.707836 0.163847 0
0.711018 0.100998 0
0.723264 0.030695 0
0.739443 -0.037954 0
0.754985 -0.098421 0
0.767426 -0.148172 0
0.775933 -0.186457 0
0.781186 -0.212611 0
0.785217 -0.225301 0
0.790826 -0.222623 0
0.800507 -0.203165 0
0.815388 -0.167431 0
0.834855 -0.118596 0
0.857018 -0.062006 0
0.879377 -0.004264 0
0.898573 0.048346 0
0.912505 0.092173 0
0.919944 0.126320 0
0.920231 0.151262 0
0.913398 0.168024 0
0.900472 0.177294 0
0.883649 0.178723 0
0.866003 0.170900 0
0.850646 0.152273 0
0.839753 0.122509 0
0.834065 0.083326 0
0.833113 0.038243 0
0.835802 -0.008328 0
0.840728 -0.052136 0
0.846582 -0.090061 0
0.852433 -0.120271 0
0.857855 -0.141713 0
0.862957 -0.153701 0
0.868286 -0.155714 0
0.874549 -0.147493 0
0.882272 -0.129362 0
0.891541 -0.102538 0
0.901948 -0.069204 0
0.912706 -0.032261 0
0.922779 0.004947 0
0.930808 0.039234 0
0.935746 0.068411 0
0.936919 0.091416 0
0.934074 0.107807 0
0.927415 0.115883 0
1.000000 -0.002244 0
0.993949 -0.006615 0
0.980775 -0.010687 0
0.958024 -0.014119 0
0.921010 -0.015692 0
0.861061 -0.011526 0
0.761694 0.009855 0
0.589806 0.113749 0
0.275844 0.100257 0
0.000000 0.000000 0
0.000000 0.000000 0
0.000000 0.000000 0
-0.020507 0.028704 0
-0.103796 0.076037 0
-0.164564 0.088848 0
-0.191251 0.044570 0
-0.170010 -0.049827 0
-0.137406 -0.154528 0
-0.106811 -0.234056 0
-0.071949 -0.266050 0
-0.017564 -0.236612 0
0.057857 -0.161125 0
0.143544 -0.063731 0
0.217263 0.036540 0
0.268734 0.126200 0
0.299235 0.203795 0
0.311853 0.266456 0
0.312946 0.308067 0
0.312789 0.320495 0
0.322731 0.297431 0
0.350326 0.239324 0
0.396160 0.155042 0
0.454156 0.058832 0
0.509956 -0.032192 0
0.552997 -0.108644 0
0.581087 -0.171438 0
0.593860 -0.222104 0
0.592958 -0.260929 0
0.582903 -0.286387 0
0.571238 -0.294657 0
0.566901 -0.280747 0
0.576801 -0.241654 0
0.602645 -0.179524 0
0.640534 -0.101975 0
0.682963 -0.020139 0
0.719660 0.054872 0
0.745643 0.118156 0
0.759492 0.170397 0
0.761250 0.212680 0
0.752662 0.245130 0
0.737712 0.265797 0
0.722429 0.270424 0
0.713207 0.254205 0
0.714206 0.215123 0
0.725793 0.156283 0
0.745221 0.085204 0
0.768431 0.011404 0
0.790444 -0.056226 0
0.808060 -0.112730 0
0.819594 -0.157178 0
0.824300 -0.190128 0
0.822553 -0.212353 0
0.816185 -0.223843 0
0.808468 -0.223301 0
0.803312 -0.208685 0
0.803816 -0.178800 0
0.811038 -0.134908 0
0.823844 -0.081073 0
0.839735 -0.023126 0
0.855458 0.032599 0
0.868172 0.081502 0
0.876263 0.121773 0
0.879016 0.153097 0
0.876658 0.175534 0
0.870450 0.188692 0
0.862528 0.191397 0
0.855322 0.182114 0
0.850770 0.160017 0
0.849758 0.125988 0
0.852131 0.082852 0
0.857098 0.034750 0
0.863617 -0.013622 0
0.870428 -0.057975 0
0.876425 -0.095425 0