# vtk DataFile Version 2.0
generated by CFD-lab course output (written by Tobias Neckel) 
ASCII

DATASET STRUCTURED_GRID
DIMENSIONS  99 19 1 
POINTS 1881 float

0.000000 0.000000 0
0.100000 0.000000 0
0.200000 0.000000 0
0.300000 0.000000 0
0.400000 0.000000 0
0.500000 0.000000 0
0.600000 0.000000 0
0.700000 0.000000 0
0.800000 0.000000 0
0.900000 0.000000 0
1.000000 0.000000 0
1.100000 0.000000 0
1.200000 0.000000 0
1.300000 0.000000 0
1.400000 0.000000 0
1.500000 0.000000 0
1.600000 0.000000 0
1.700000 0.000000 0
1.800000 0.000000 0
1.900000 0.000000 0
2.000000 0.000000 0
2.100000 0.000000 0
2.200000 0.000000 0
2.300000 0.000000 0
2.400000 0.000000 0
2.500000 0.000000 0
2.600000 0.000000 0
2.700000 0.000000 0
2.800000 0.000000 0
2.900000 0.000000 0
3.000000 0.000000 0
3.100000 0.000000 0
3.200000 0.000000 0
3.300000 0.000000 0
3.400000 0.000000 0
3.500000 0.000000 0
3.600000 0.000000 0
3.700000 0.000000 0
3.800000 0.000000 0
3.900000 0.000000 0
4.000000 0.000000 0
4.100000 0.000000 0
4.200000 0.000000 0
4.300000 0.000000 0
4.400000 0.000000 0
4.500000 0.000000 0
4.600000 0.000000 0
4.700000 0.000000 0
4.800000 0.000000 0
4.900000 0.000000 0
5.000000 0.000000 0
5.100000 0.000000 0
5.200000 0.000000 0
5.300000 0.000000 0
5.400000 0.000000 0
5.500000 0.000000 0
5.600000 0.000000 0
5.700000 0.000000 0
5.800000 0.000000 0
5.900000 0.000000 0
6.000000 0.000000 0
6.100000 0.000000 0
6.200000 0.000000 0
6.300000 0.000000 0
6.400000 0.000000 0
6.500000 0.000000 0
6.600000 0.000000 0
6.700000 0.000000 0
6.800000 0.000000 0
6.900000 0.000000 0
7.000000 0.000000 0
7.100000 0.000000 0
7.200000 0.000000 0
7.300000 0.000000 0
7.400000 0.000000 0
7.500000 0.000000 0
7.600000 0.000000 0
7.700000 0.000000 0
7.800000 0.000000 0
7.900000 0.000000 0
8.000000 0.000000 0
8.100000 0.000000 0
8.200000 0.000000 0
8.300000 0.000000 0
8.400000 0.000000 0
8.500000 0.000000 0
8.600000 0.000000 0
8.700000 0.000000 0
8.800000 0.000000 0
8.900000 0.000000 0
9.000000 0.000000 0
9.100000 0.000000 0
9.200000 0.000000 0
9.300000 0.000000 0
9.400000 0.000000 0
9.500000 0.000000 0
9.600000 0.000000 0
9.700000 0.000000 0
9.800000 0.000000 0
0.000000 0.100000 0
0.100000 0.100000 0
0.200000 0.100000 0
0.300000 0.100000 0
0.400000 0.100000 0
0.500000 0.100000 0
0.600000 0.100000 0
0.700000 0.100000 0
0.800000 0.100000 0
0.900000 0.100000 0
1.000000 0.100000 0
1.100000 0.100000 0
1.200000 0.100000 0
1.300000 0.100000 0
1.400000 0.100000 0
1.500000 0.100000 0
1.600000 0.100000 0
1.700000 0.100000 0
1.800000 0.100000 0
1.900000 0.100000 0
2.000000 0.100000 0
2.100000 0.100000 0
2.200000 0.100000 0
2.300000 0.100000 0
2.400000 0.100000 0
2.500000 0.100000 0
2.600000 0.100000 0
2.700000 0.100000 0
2.800000 0.100000 0
2.900000 0.100000 0
3.000000 0.100000 0
3.100000 0.100000 0
3.200000 0.100000 0
3.300000 0.100000 0
3.400000 0.100000 0
3.500000 0.100000 0
3.600000 0.100000 0
3.700000 0.100000 0
3.800000 0.100000 0
3.900000 0.100000 0
4.000000 0.100000 0
4.100000 0.100000 0
4.200000 0.100000 0
4.300000 0.100000 0
4.400000 0.100000 0
4.500000 0.100000 0
4.600000 0.100000 0
4.700000 0.100000 0
4.800000 0.100000 0
4.900000 0.100000 0
5.000000 0.100000 0
5.100000 0.100000 0
5.200000 0.100000 0
5.300000 0.100000 0
5.400000 0.100000 0
5.500000 0.100000 0
5.600000 0.100000 0
5.700000 0.100000 0
5.800000 0.100000 0
5.900000 0.100000 0
6.000000 0.100000 0
6.100000 0.100000 0
6.200000 0.100000 0
6.300000 0.100000 0
6.400000 0.100000 0
6.500000 0.100000 0
6.600000 0.100000 0
6.700000 0.100000 0
6.800000 0.100000 0
6.900000 0.100000 0
7.000000 0.100000 0
7.100000 0.100000 0
7.200000 0.100000 0
7.300000 0.100000 0
7.400000 0.100000 0
7.500000 0.100000 0
7.600000 0.100000 0
7.700000 0.100000 0
7.800000 0.100000 0
7.900000 0.100000 0
8.000000 0.100000 0
8.100000 0.100000 0
8.200000 0.100000 0
8.300000 0.100000 0
8.400000 0.100000 0
8.500000 0.100000 0
8.600000 0.100000 0
8.700000 0.100000 0
8.800000 0.100000 0
8.900000 0.100000 0
9.000000 0.100000 0
9.100000 0.100000 0
9.200000 0.100000 0
9.300000 0.100000 0
9.400000 0.100000 0
9.500000 0.100000 0
9.600000 0.100000 0
9.700000 0.100000 0
9.800000 0.100000 0
0.000000 0.200000 0
0.100000 0.200000 0
0.200000 0.200000 0
0.300000 0.200000 0
0.400000 0.200000 0
0.500000 0.200000 0
0.600000 0.200000 0
0.700000 0.200000 0
0.800000 0.200000 0
0.900000 0.200000 0
1.000000 0.200000 0
1.100000 0.200000 0
1.200000 0.200000 0
1.300000 0.200000 0
1.400000 0.200000 0
1.500000 0.200000 0
1.600000 0.200000 0
1.700000 0.200000 0
1.800000 0.200000 0
1.900000 0.200000 0
2.000000 0.200000 0
2.100000 0.200000 0
2.200000 0.200000 0
2.300000 0.200000 0
2.400000 0.200000 0
2.500000 0.200000 0
2.600000 0.200000 0
2.700000 0.200000 0
2.800000 0.200000 0
2.900000 0.200000 0
3.000000 0.200000 0
3.100000 0.200000 0
3.200000 0.200000 0
3.300000 0.200000 0
3.400000 0.200000 0
3.500000 0.200000 0
3.600000 0.200000 0
3.700000 0.200000 0
3.800000 0.200000 0
3.900000 0.200000 0
4.000000 0.200000 0
4.100000 0.200000 0
4.200000 0.200000 0
4.300000 0.200000 0
4.400000 0.200000 0
4.500000 0.200000 0
4.600000 0.200000 0
4.700000 0.200000 0
4.800000 0.200000 0
4.900000 0.200000 0
5.000000 0.200000 0
5.100000 0.200000 0
5.200000 0.200000 0
5.300000 0.200000 0
5.400000 0.200000 0
5.500000 0.200000 0
5.600000 0.200000 0
5.700000 0.200000 0
5.800000 0.200000 0
5.900000 0.200000 0
6.000000 0.200000 0
6.100000 0.200000 0
6.200000 0.200000 0
6.300000 0.200000 0
6.400000 0.200000 0
6.500000 0.200000 0
6.600000 0.200000 0
6.700000 0.200000 0
6.800000 0.200000 0
6.900000 0.200000 0
7.000000 0.200000 0
7.100000 0.200000 0
7.200000 0.200000 0
7.300000 0.200000 0
7.400000 0.200000 0
7.500000 0.200000 0
7.600000 0.200000 0
7.700000 0.200000 0
7.800000 0.200000 0
7.900000 0.200000 0
8.000000 0.200000 0
8.100000 0.200000 0
8.200000 0.200000 0
8.300000 0.200000 0
8.400000 0.200000 0
8.500000 0.200000 0
8.600000 0.200000 0
8.700000 0.200000 0
8.800000 0.200000 0
8.900000 0.200000 0
9.000000 0.200000 0
9.100000 0.200000 0
9.200000 0.200000 0
9.300000 0.200000 0
9.400000 0.200000 0
9.500000 0.200000 0
9.600000 0.200000 0
9.700000 0.200000 0
9.800000 0.200000 0
0.000000 0.300000 0
0.100000 0.300000 0
0.200000 0.300000 0
0.300000 0.300000 0
0.400000 0.300000 0
0.500000 0.300000 0
0.600000 0.300000 0
0.700000 0.300000 0
0.800000 0.300000 0
0.900000 0.300000 0
1.000000 0.300000 0
1.100000 0.300000 0
1.200000 0.300000 0
1.300000 0.300000 0
1.400000 0.300000 0
1.500000 0.300000 0
1.600000 0.300000 0
1.700000 0.300000 0
1.800000 0.300000 0
1.900000 0.300000 0
2.000000 0.300000 0
2.100000 0.300000 0
2.200000 0.300000 0
2.300000 0.300000 0
2.400000 0.300000 0
2.500000 0.300000 0
2.600000 0.300000 0
2.700000 0.300000 0
2.800000 0.300000 0
2.900000 0.300000 0
3.000000 0.300000 0
3.100000 0.300000 0
3.200000 0.300000 0
3.300000 0.300000 0
3.400000 0.300000 0
3.500000 0.300000 0
3.600000 0.300000 0
3.700000 0.300000 0
3.800000 0.300000 0
3.900000 0.300000 0
4.000000 0.300000 0
4.100000 0.300000 0
4.200000 0.300000 0
4.300000 0.300000 0
4.400000 0.300000 0
4.500000 0.300000 0
4.600000 0.300000 0
4.700000 0.300000 0
4.800000 0.300000 0
4.900000 0.300000 0
5.000000 0.300000 0
5.100000 0.300000 0
5.200000 0.300000 0
5.300000 0.300000 0
5.400000 0.300000 0
5.500000 0.300000 0
5.600000 0.300000 0
5.700000 0.300000 0
5.800000 0.300000 0
5.900000 0.300000 0
6.000000 0.300000 0
6.100000 0.300000 0
6.200000 0.300000 0
6.300000 0.300000 0
6.400000 0.300000 0
6.500000 0.300000 0
6.600000 0.300000 0
6.700000 0.300000 0
6.800000 0.300000 0
6.900000 0.300000 0
7.000000 0.300000 0
7.100000 0.300000 0
7.200000 0.300000 0
7.300000 0.300000 0
7.400000 0.300000 0
7.500000 0.300000 0
7.600000 0.300000 0
7.700000 0.300000 0
7.800000 0.300000 0
7.900000 0.300000 0
8.000000 0.300000 0
8.100000 0.300000 0
8.200000 0.300000 0
8.300000 0.300000 0
8.400000 0.300000 0
8.500000 0.300000 0
8.600000 0.300000 0
8.700000 0.300000 0
8.800000 0.300000 0
8.900000 0.300000 0
9.000000 0.300000 0
9.100000 0.300000 0
9.200000 0.300000 0
9.300000 0.300000 0
9.400000 0.300000 0
9.500000 0.300000 0
9.600000 0.300000 0
9.700000 0.300000 0
9.800000 0.300000 0
0.000000 0.400000 0
0.100000 0.400000 0
0.200000 0.400000 0
0.300000 0.400000 0
0.400000 0.400000 0
0.500000 0.400000 0
0.600000 0.400000 0
0.700000 0.400000 0
0.800000 0.400000 0
0.900000 0.400000 0
1.000000 0.400000 0
1.100000 0.400000 0
1.200000 0.400000 0
1.300000 0.400000 0
1.400000 0.400000 0
1.500000 0.400000 0
1.600000 0.400000 0
1.700000 0.400000 0
1.800000 0.400000 0
1.900000 0.400000 0
2.000000 0.400000 0
2.100000 0.400000 0
2.200000 0.400000 0
2.300000 0.400000 0
2.400000 0.400000 0
2.500000 0.400000 0
2.600000 0.400000 0
2.700000 0.400000 0
2.800000 0.400000 0
2.900000 0.400000 0
3.000000 0.400000 0
3.100000 0.400000 0
3.200000 0.400000 0
3.300000 0.400000 0
3.400000 0.400000 0
3.500000 0.400000 0
3.600000 0.400000 0
3.700000 0.400000 0
3.800000 0.400000 0
3.900000 0.400000 0
4.000000 0.400000 0
4.100000 0.400000 0
4.200000 0.400000 0
4.300000 0.400000 0
4.400000 0.400000 0
4.500000 0.400000 0
4.600000 0.400000 0
4.700000 0.400000 0
4.800000 0.400000 0
4.900000 0.400000 0
5.000000 0.400000 0
5.100000 0.400000 0
5.200000 0.400000 0
5.300000 0.400000 0
5.400000 0.400000 0
5.500000 0.400000 0
5.600000 0.400000 0
5.700000 0.400000 0
5.800000 0.400000 0
5.900000 0.400000 0
6.000000 0.400000 0
6.100000 0.400000 0
6.200000 0.400000 0
6.300000 0.400000 0
6.400000 0.400000 0
6.500000 0.400000 0
6.600000 0.400000 0
6.700000 0.400000 0
6.800000 0.400000 0
6.900000 0.400000 0
7.000000 0.400000 0
7.100000 0.400000 0
7.200000 0.400000 0
7.300000 0.400000 0
7.400000 0.400000 0
7.500000 0.400000 0
7.600000 0.400000 0
7.700000 0.400000 0
7.800000 0.400000 0
7.900000 0.400000 0
8.000000 0.400000 0
8.100000 0.400000 0
8.200000 0.400000 0
8.300000 0.400000 0
8.400000 0.400000 0
8.500000 0.400000 0
8.600000 0.400000 0
8.700000 0.400000 0
8.800000 0.400000 0
8.900000 0.400000 0
9.000000 0.400000 0
9.100000 0.400000 0
9.200000 0.400000 0
9.300000 0.400000 0
9.400000 0.400000 0
[...]
POINT_DATA 1881 

VECTORS velocity float
0.500000 0.000000 0
0.502228 0.000000 0
0.507121 0.000000 0
0.515062 0.000000 0
0.526414 0.000000 0
0.541441 0.000000 0
0.560069 0.000000 0
0.581606 0.000000 0
0.604507 0.000000 0
0.626322 0.000000 0
0.644993 0.000000 0
0.659481 0.000000 0
0.669635 0.000000 0
0.675867 0.000000 0
0.678913 0.000000 0
0.679671 0.000000 0
0.679095 0.000000 0
0.678085 0.000000 0
0.677373 0.000000 0
0.677369 0.000000 0
0.678007 0.000000 0
0.678711 0.000000 0
0.678575 0.000000 0
0.676672 0.000000 0
0.672331 0.000000 0
0.665265 0.000000 0
0.655507 0.000000 0
0.643375 0.000000 0
0.629361 0.000000 0
0.614071 0.000000 0
0.598181 0.000000 0
0.582400 0.000000 0
0.567452 0.000000 0
0.554056 0.000000 0
0.542936 0.000000 0
0.534852 0.000000 0
0.530659 0.000000 0
0.531199 0.000000 0
0.536908 0.000000 0
0.547664 0.000000 0
0.562648 0.000000 0
0.580280 0.000000 0
0.598350 0.000000 0
0.614347 0.000000 0
0.626007 0.000000 0
0.631926 0.000000 0
0.631875 0.000000 0
0.626285 0.000000 0
0.615919 0.000000 0
0.601769 0.000000 0
0.584932 0.000000 0
0.566507 0.000000 0
0.547533 0.000000 0
0.528966 0.000000 0
0.511697 0.000000 0
0.496575 0.000000 0
0.484436 0.000000 0
0.476081 0.000000 0
0.472173 0.000000 0
0.472962 0.000000 0
0.478077 0.000000 0
0.486971 0.000000 0
0.499071 0.000000 0
0.513799 0.000000 0
0.530530 0.000000 0
0.548483 0.000000 0
0.566586 0.000000 0
0.583396 0.000000 0
0.597190 0.000000 0
0.606307 0.000000 0
0.609680 0.000000 0
0.607127 0.000000 0
0.598937 0.000000 0
0.585704 0.000000 0
0.568366 0.000000 0
0.548180 0.000000 0
0.526678 0.000000 0
0.505581 0.000000 0
0.486644 0.000000 0
0.471428 0.000000 0
0.461049 0.000000 0
0.455962 0.000000 0
0.455823 0.000000 0
0.459513 0.000000 0
0.465906 0.000000 0
0.474181 0.000000 0
0.483816 0.000000 0
0.494507 0.000000 0
0.506051 0.000000 0
0.518219 0.000000 0
0.530622 0.000000 0
0.542623 0.000000 0
0.553315 0.000000 0
0.561610 0.000000 0
0.566460 0.000000 0
0.567148 0.000000 0
0.563318 0.000000 0
0.554706 0.000000 0
0.540713 0.000000 0
1.000000 -0.002214 0
1.005024 -0.007095 0
1.015457 -0.012810 0
1.031978 -0.019277 0
1.055402 -0.026366 0
1.086450 -0.033645 0
1.125266 -0.040165 0
1.170705 -0.044445 0
1.219722 -0.044726 0
1.266127 -0.040499 0
1.305216 -0.033176 0
1.335083 -0.024660 0
1.355760 -0.016404 0
1.368327 -0.009297 0
1.374406 -0.003823 0
1.375895 -0.000198 0
1.374785 0.001580 0
1.372985 0.001730 0
1.372085 0.000734 0
1.373046 -0.000612 0
1.375791 -0.001316 0
1.379000 -0.000547 0
1.380528 0.002050 0
1.378268 0.006241 0
1.370813 0.011409 0
1.357576 0.016832 0
1.338722 0.021891 0
1.314956 0.026148 0
1.287334 0.029302 0
1.257116 0.031175 0
1.225684 0.031663 0
1.194480 0.030719 0
1.164962 0.028332 0
1.138568 0.024502 0
1.116701 0.019189 0
1.100750 0.012262 0
1.092100 0.003638 0
1.092087 -0.006264 0
1.101757 -0.016479 0
1.121329 -0.025751 0
1.149695 -0.032620 0
1.184268 -0.035701 0
1.221153 -0.034061 0
1.255569 -0.027647 0
1.282650 -0.017567 0
1.298628 -0.005856 0
1.301962 0.005651 0
1.293406 0.015962 0
1.274686 0.024517 0
1.247976 0.030985 0
1.215610 0.035259 0
1.179887 0.037395 0
1.142951 0.037536 0
1.106759 0.035830 0
1.073085 0.032384 0
1.043533 0.027254 0
1.019499 0.020487 0
1.002057 0.012255 0
0.991824 0.003112 0
0.988944 -0.005911 0
0.993199 -0.014018 0
1.004108 -0.021002 0
1.021093 -0.026835 0
1.043522 -0.031466 0
1.070690 -0.034689 0
1.101635 -0.036058 0
1.134840 -0.034912 0
1.168006 -0.030602 0
1.198067 -0.022906 0
1.221533 -0.012484 0
1.235164 -0.000815 0
1.236998 0.010747 0
1.227224 0.021425 0
1.207107 0.030572 0
1.178582 0.037523 0
1.144144 0.041685 0
1.106704 0.042595 0
1.069382 0.040030 0
1.035193 0.034148 0
1.006648 0.025591 0
0.985350 0.015463 0
0.971787 0.005223 0
0.965476 -0.003552 0
0.965403 -0.010084 0
0.970284 -0.014669 0
0.979012 -0.017911 0
0.990857 -0.020326 0
1.005441 -0.022236 0
1.022595 -0.023712 0
1.042117 -0.024571 0
1.063515 -0.024405 0
1.085810 -0.022694 0
1.107466 -0.018987 0
1.126473 -0.013144 0
1.140556 -0.005538 0
1.147543 0.003142 0
1.145982 0.012442 0
1.135522 0.022605 0
1.115857 0.029112 0
1.000000 -0.005000 0
1.005187 -0.015418 0
1.015635 -0.026929 0
1.032066 -0.039930 0
1.055633 -0.054461 0
1.087711 -0.069860 0
1.129470 -0.084263 0
1.180706 -0.094468 0
1.239287 -0.095438 0
1.293039 -0.085513 0
1.335521 -0.068975 0
1.365976 -0.050565 0
1.385748 -0.033268 0
1.396669 -0.018669 0
1.400771 -0.007589 0
1.400211 -0.000389 0
1.397210 0.002916 0
1.393980 0.002721 0
1.392521 -0.000033 0
1.394334 -0.003677 0
1.399650 -0.005930 0
1.406701 -0.004722 0
1.412218 0.000730 0
1.413173 0.009712 0
1.407901 0.020699 0
1.395912 0.032096 0
1.377649 0.042622 0
1.354067 0.051386 0
1.326392 0.057836 0
1.295980 0.061642 0
1.264256 0.062624 0
1.232673 0.060707 0
1.202669 0.055896 0
1.175609 0.048243 0
1.152740 0.037799 0
1.135177 0.024582 0
1.123921 0.008645 0
1.120012 -0.009675 0
1.124716 -0.029256 0
1.138780 -0.047944 0
1.161876 -0.062938 0
1.192651 -0.071451 0
1.228744 -0.071289 0
1.266543 -0.061482 0
1.301111 -0.043043 0
1.326883 -0.019300 0
1.339463 0.005230 0
1.338209 0.027277 0
1.325233 0.045426 0
1.303087 0.059071 0
1.274402 0.068084 0
1.241667 0.072653 0
1.207125 0.073121 0
1.172739 0.069859 0
1.140178 0.063217 0
1.110787 0.053577 0
1.085522 0.041467 0
1.064868 0.027666 0
1.048839 0.013104 0
1.037258 -0.001385 0
1.030174 -0.015174 0
1.027714 -0.027904 0
1.030165 -0.039422 0
1.037950 -0.049603 0
1.051623 -0.058115 0
1.071526 -0.064149 0
1.097280 -0.066368 0
1.127479 -0.063223 0
1.159681 -0.053521 0
1.190547 -0.037090 0
1.216074 -0.015459 0
1.232356 0.007943 0
1.237384 0.029892 0
1.231922 0.048640 0
1.217597 0.062959 0
1.196534 0.071873 0
1.171113 0.074756 0
1.143711 0.071505 0
1.116441 0.062728 0
1.090929 0.049839 0
1.068194 0.034858 0
1.048693 0.019871 0
1.032583 0.006382 0
1.020061 -0.004809 0
1.011069 -0.013610 0
1.005445 -0.020574 0
1.003258 -0.026430 0
1.004841 -0.031739 0
1.010651 -0.036676 0
1.021004 -0.040921 0
1.035770 -0.043693 0
1.054236 -0.043950 0
1.075129 -0.040663 0
1.096721 -0.033090 0
1.116907 -0.021070 0
1.133307 -0.005426 0
1.143722 0.012021 0
1.147214 0.030126 0
1.144320 0.041504 0
1.000000 -0.007382 0
1.004204 -0.022708 0
1.012936 -0.039689 0
1.027176 -0.059277 0
1.048623 -0.082018 0
1.079806 -0.107495 0
1.123956 -0.133171 0
1.183365 -0.154271 0
1.261448 -0.157068 0
1.325774 -0.136742 0
1.369445 -0.106120 0
1.396732 -0.074895 0
1.411913 -0.047107 0
1.417743 -0.024326 0
1.416569 -0.007363 0
1.410559 0.003379 0
1.402191 0.007837 0
1.394159 0.006440 0
1.389073 0.000395 0
1.389358 -0.007734 0
1.396489 -0.013689 0
1.408464 -0.013131 0
1.420023 -0.004437 0
1.425587 0.010563 0
1.422773 0.028674 0
1.411535 0.047080 0
1.392942 0.063735 0
1.368434 0.077400 0
1.339496 0.087382 0
1.307583 0.093303 0
1.274143 0.094962 0
1.240627 0.092298 0
1.208441 0.085389 0
1.178857 0.074424 0
1.152920 0.059614 0
1.131425 0.041075 0
1.114959 0.018797 0
1.103938 -0.007061 0
1.098933 -0.035242 0
1.101051 -0.062904 0
1.111053 -0.086483 0
1.129790 -0.102557 0
1.157693 -0.107942 0
1.193514 -0.100007 0
1.233498 -0.077903 0
1.271445 -0.044210 0
1.299921 -0.005682 0
1.313321 0.030183 0
1.312348 0.059633 0
1.299940 0.081812 0
1.279024 0.096675 0
1.252301 0.104668 0
1.222140 0.106460 0
1.190543 0.102774 0
1.159135 0.094334 0
1.129157 0.081906 0
1.101463 0.066401 0
1.076504 0.048936 0
1.054314 0.030718 0
1.034520 0.012750 0
1.016592 -0.004477 0
1.000465 -0.020996 0
0.987321 -0.037071 0
0.979569 -0.052922 0
0.979649 -0.068262 0
0.989014 -0.081711 0
1.007536 -0.090860 0
1.033686 -0.092999 0
1.065047 -0.085971 0
1.098711 -0.068875 0
1.131454 -0.042625 0
1.159657 -0.010566 0
1.179443 0.021855 0
1.189345 0.050354 0
1.190147 0.072907 0
1.183207 0.088165 0
1.170152 0.095415 0
1.152614 0.094700 0
1.132064 0.086929 0
1.109749 0.073838 0
1.086722 0.057699 0
1.063872 0.040834 0
1.041846 0.025080 0
1.021008 0.011430 0
1.001792 -0.000054 0
0.984864 -0.010101 0
0.971300 -0.019723 0
0.962577 -0.029629 0
0.959975 -0.039875 0
0.964033 -0.049690 0
0.974399 -0.057637 0
0.990021 -0.062053 0
1.009451 -0.061472 0
1.031094 -0.054922 0
1.053365 -0.042124 0
1.074730 -0.023674 0
1.093527 -0.001465 0
1.108085 0.022008 0
1.118197 0.036979 0
1.000000 -0.009188 0
1.002784 -0.028340 0
1.008736 -0.049905 0
1.018958 -0.075621 0
1.035594 -0.107098 0
1.062500 -0.145203 0
1.106117 -0.187830 0
1.174371 -0.231967 0
1.290424 -0.237854 0
1.361007 -0.193516 0
1.394482 -0.139940 0
1.409952 -0.093041 0
1.415467 -0.054285 0
1.413152 -0.023326 0
1.404159 -0.000391 0
1.389774 0.014011 0
1.372703 0.019335 0
1.356344 0.015852 0
1.344010 0.004774 0
1.338620 -0.011096 0
1.344058 -0.025048 0
1.360154 -0.028272 0
1.380848 -0.016391 0
1.396040 0.006971 0
1.399148 0.034749 0
1.391140 0.061924 0
1.374369 0.085719 0
1.350962 0.104827 0
1.322609 0.118680 0
1.290733 0.126987 0
1.256719 0.129572 0
1.222001 0.126403 0
1.188008 0.117659 0
1.155969 0.103757 0
1.126662 0.085224 0
1.100278 0.062538 0
1.076486 0.036129 0
1.054305 0.006354 0
1.032335 -0.026363 0
1.011688 -0.060056 0
0.997920 -0.091667 0
0.996831 -0.118081 0
1.011564 -0.135005 0
1.041613 -0.137283 0
1.083526 -0.120976 0
1.131631 -0.085730 0
1.178326 -0.036656 0
1.214626 0.014845 0
1.234654 0.058805 0
1.240309 0.092392 0
1.234479 0.115719 0
1.219894 0.129534 0
1.198994 0.134876 0
1.173895 0.132861 0
1.146363 0.124600 0
1.117787 0.111245 0
1.089104 0.094116 0
1.060621 0.074811 0
1.031903 0.055084 0
1.002130 0.036334 0
0.971155 0.018877 0
0.940654 0.001366 0
0.914166 -0.018525 0
0.896094 -0.041928 0
0.889729 -0.067558 0
0.895521 -0.092032 0
0.911888 -0.111036 0
0.936468 -0.120731 0
0.966796 -0.118544 0
1.000491 -0.103497 0
1.035246 -0.076408 0
1.068657 -0.040050 0
1.097714 0.000199 0
1.118962 0.037933 0
1.131688 0.069094 0
1.136370 0.091864 0
1.133867 0.105347 0
1.125167 0.109591 0
1.111251 0.105594 0
1.093026 0.095180 0
1.071309 0.080734 0
1.046832 0.064747 0
1.020340 0.049245 0
0.992844 0.035244 0
0.965926 0.022533 0
0.941748 0.009918 0
0.922578 -0.004143 0
0.910195 -0.020414 0
0.905578 -0.038132 0
0.908583 -0.055344 0
0.918194 -0.069682 0
0.933004 -0.079003 0
0.951543 -0.081736 0
0.972445 -0.077004 0
0.994504 -0.064706 0
1.016682 -0.045588 0
1.038053 -0.021334 0
1.057456 0.005455 0
1.073600 0.023187 0
1.000000 -0.010155 0
1.000837 -0.031436 0
1.002757 -0.055867 0
1.006580 -0.086140 0
1.014250 -0.125568 0
1.030113 -0.178025 0
1.063652 -0.245049 0
1.132454 -0.338584 0
1.307332 -0.343711 0
1.352251 -0.240806 0
1.346424 -0.155073 0
1.336288 -0.095888 0
1.327700 -0.050309 0
1.316979 -0.013010 0
1.298758 0.016035 0
1.273157 0.034854 0
1.243310 0.041279 0
1.213681 0.035139 0
1.188665 0.018115 0
1.171443 -0.007793 0
1.165306 -0.035238 0
1.176552 -0.049923 0
1.204878 -0.040315 0
1.239723 -0.007736 0
1.264050 0.033570 0
1.271755 0.071853 0
1.268132 0.103908 0
1.256271 0.129154 0
1.237769 0.147605 0
1.213720 0.159187 0
1.185324 0.163687 0
1.154064 0.161002 0
1.121573 0.151414 0
1.089035 0.135765 0
1.056087 0.115300 0
1.020152 0.091247 0
0.978081 0.064771 0
0.929932 0.037095 0
0.880925 0.007382 0
0.839236 -0.028480 0
0.813694 -0.071617 0
0.808747 -0.116193 0
0.823169 -0.152720 0
0.853764 -0.171969 0
0.897035 -0.167927 0
0.949177 -0.139019 0
1.005542 -0.088683 0
1.059776 -0.026147 0
1.102738 0.033947 0
1.130096 0.081983 0
1.143750 0.117087 0
1.145866 0.140150 0
1.138553 0.152455 0
1.123751 0.155402 0
1.103107 0.150438 0
1.077779 0.139160 0
1.048196 0.123564 0
1.014029 0.106133 0
0.974886 0.089206 0
0.931809 0.073495 0
0.888514 0.056997 0
0.850840 0.035994 0
0.824103 0.007491 0
0.810744 -0.028482 0
0.810179 -0.067685 0
0.819960 -0.103866 0
0.837531 -0.131805 0
0.860946 -0.147905 0
0.888758 -0.149993 0
0.919662 -0.137327 0
0.952281 -0.110794 0
0.985095 -0.073039 0
1.016346 -0.028454 0
1.043176 0.016377 0
1.063068 0.055495 0
1.075550 0.085984 0
1.080693 0.106616 0
1.078821 0.117314 0
1.070341 0.119070 0
1.055654 0.113779 0
1.035181 0.103891 0
1.009558 0.091802 0
0.980011 0.079067 0
0.948711 0.065843 0
0.918730 0.051041 0
0.893406 0.033247 0
0.875320 0.011829 0
0.865461 -0.012629 0
0.863429 -0.038262 0
0.868050 -0.062307 0
0.877938 -0.082059 0
0.891830 -0.095401 0
0.908660 -0.100913 0
0.927520 -0.097884 0
0.947601 -0.086361 0
0.968162 -0.067223 0
0.988516 -0.042239 0
1.007996 -0.013539 0
1.025169 0.006246 0
1.000000 -0.010021 0
0.998504 -0.031094 0
0.995390 -0.055652 0
0.990611 -0.087120 0
0.984612 -0.130638 0
0.979550 -0.194612 0
0.982922 -0.290178 0
1.017032 -0.475653 0
1.212193 -0.457658 0
1.164290 -0.232616 0
1.078958 -0.123985 0
1.035841 -0.074323 0
1.018181 -0.034972 0
1.003694 0.005633 0
0.978348 0.043449 0
0.939744 0.069471 0
0.890195 0.078818 0
0.835028 0.070496 0
0.783021 0.047003 0
0.746127 0.012249 0
0.734558 -0.030164 0
0.754773 -0.067838 0
0.803383 -0.079558 0
0.872035 -0.052204 0
0.944893 0.002713 0
1.001688 0.057835 0
1.035950 0.101196 0
1.054820 0.135184 0
1.061268 0.161225 0
1.056549 0.179426 0
1.041819 0.189222 0
1.018140 0.190148 0
0.985970 0.182684 0
0.944688 0.169238 0
0.893132 0.154104 0
0.831781 0.140544 0
0.765310 0.126353 0
0.703250 0.103515 0
0.657266 0.064341 0
0.634680 0.007185 0
0.633572 -0.061170 0
0.647459 -0.127552 0
0.671478 -0.180021 0
0.703749 -0.211153 0
0.744079 -0.216397 0
0.792149 -0.194244 0
0.846384 -0.147257 0
0.903619 -0.082354 0
0.958277 -0.011519 0
1.001630 0.051377 0
1.031367 0.099945 0
1.048492 0.134727 0
1.054222 0.156988 0
1.049790 0.168303 0
1.036161 0.170568 0
1.013758 0.166152 0
0.982493 0.157862 0
0.942559 0.148117 0
0.896034 0.137301 0
0.848077 0.122704 0
0.805983 0.099846 0
0.776112 0.065778 0
0.761164 0.021574 0
0.759516 -0.028000 0
0.766855 -0.076770 0
0.779604 -0.119381 0
0.795905 -0.152019 0
0.815162 -0.171957 0
0.837345 -0.177261 0
0.862378 -0.167023 0
0.889757 -0.141846 0
0.918499 -0.104119 0
0.947274 -0.057885 0
0.974386 -0.008792 0
0.996936 0.036717 0
1.013361 0.074237 0
1.022996 0.102075 0
1.025519 0.119943 0
1.020778 0.128760 0
1.008774 0.130339 0
0.989853 0.126829 0
0.965071 0.119916 0
0.936543 0.110090 0
0.907387 0.096524 0
0.881095 0.077838 0
0.860552 0.053328 0
0.847306 0.023801 0
0.841460 -0.008523 0
0.841914 -0.040721 0
0.847193 -0.069854 0
0.856055 -0.093461 0
0.867622 -0.109725 0
0.881307 -0.117427 0
0.896669 -0.115946 0
0.913273 -0.105348 0
0.930617 -0.086502 0
0.948102 -0.061168 0
0.965035 -0.031198 0
0.980227 -0.010021 0
1.000000 -0.008659 0
0.996200 -0.026827 0
0.987976 -0.047979 0
0.973989 -0.075369 0
0.951944 -0.114515 0
0.918185 -0.176344 0
0.867169 -0.282539 0
0.795261 -0.567862 0
0.557909 -0.392710 0
0.500505 0.000000 0
0.432869 -0.017315 0
0.377743 -0.035109 0
0.389421 -0.018150 0
0.418376 0.026841 0
0.417853 0.079998 0
0.385978 0.123015 0
0.334286 0.145998 0
0.276504 0.142308 0
0.229978 0.107004 0
0.214404 0.040660 0
0.239261 -0.043883 0
0.291719 -0.118744 0
0.362746 -0.157578 0
0.450750 -0.149250 0
0.553159 -0.096089 0
0.655524 -0.019210 0
0.737767 0.050769 0
0.793381 0.103830 0
0.828121 0.145869 0
0.844332 0.178630 0
0.843036 0.202091 0
0.824476 0.216847 0
0.788411 0.224861 0
0.735505 0.228599 0
0.670176 0.228206 0
0.602879 0.219071 0
0.548003 0.193307 0
0.517064 0.145146 0
0.512801 0.075962 0
0.529253 -0.004777 0
0.554216 -0.084390 0
0.579009 -0.154096 0
0.602035 -0.209012 0
0.625542 -0.244577 0
0.653184 -0.256334 0
0.688072 -0.241327 0
0.731186 -0.200155 0
0.780909 -0.138044 0
0.833623 -0.064067 0
0.882843 0.008890 0
0.921367 0.070222 0
0.947928 0.117292 0
0.962532 0.151153 0
0.965408 0.173459 0
0.956705 0.186466 0
0.936541 0.192825 0
0.905668 0.194759 0
0.866713 0.192588 0
0.825036 0.183686 0
0.787777 0.163546 0
0.761061 0.128962 0
0.747421 0.080815 0
0.745529 0.024090 0
0.751849 -0.034169 0
0.762241 -0.087770 0
0.773976 -0.132914 0
0.785975 -0.167361 0
0.798444 -0.189345 0
0.812351 -0.197212 0
0.828765 -0.189743 0
0.848208 -0.166919 0
0.870339 -0.130558 0
0.894070 -0.084344 0
0.917890 -0.033288 0
0.939616 0.016518 0
0.956823 0.059922 0
0.968237 0.094456 0
0.973036 0.119531 0
0.970726 0.135814 0
0.961232 0.144703 0
0.945190 0.147593 0
0.924239 0.145111 0
0.901028 0.136749 0
0.878716 0.121289 0
0.860102 0.097876 0
0.846890 0.067036 0
0.839499 0.030921 0
0.837388 -0.007238 0
0.839448 -0.043995 0
0.844424 -0.076448 0
0.851360 -0.102487 0
0.859697 -0.120654 0
0.869223 -0.129960 0
0.879919 -0.129850 0
0.891770 -0.120310 0
0.904595 -0.102052 0
0.917950 -0.076657 0
0.931130 -0.045665 0
0.942915 -0.023443 0
1.000000 -0.006222 0
0.994508 -0.019075 0
0.982516 -0.033449 0
0.961652 -0.051096 0
0.927295 -0.074843 0
0.870393 -0.109847 0
0.771525 -0.167261 0
0.588538 -0.264665 0
0.000000 -0.162906 0
0.000000 0.000000 0
0.000000 0.000000 0
-0.025405 -0.038959 0
-0.041744 -0.075590 0
-0.041124 -0.022786 0
-0.043648 0.075856 0
-0.060058 0.153043 0
-0.086158 0.188290 0
-0.106212 0.174795 0
-0.102027 0.109092 0
-0.061392 0.002963 0
-0.002284 -0.107476 0
0.058639 -0.191325 0
0.120707 -0.238593 0
0.190601 -0.242622 0
0.273820 -0.202067 0
0.370103 -0.126779 0
0.466544 -0.036667 0
0.543471 0.044823 0
0.595047 0.110268 0
0.624196 0.164505 0
0.632044 0.209072 0
0.619374 0.244769 0
0.588611 0.271651 0
0.546093 0.287470 0
0.502943 0.286731 0
0.472336 0.262721 0
0.463722 0.212175 0
0.478281 0.138726 0
0.509257 0.052161 0
0.544808 -0.034222 0
0.574970 -0.110922 0
0.596600 -0.175371 0
0.609969 -0.226558 0
0.618096 -0.262310 0
0.626134 -0.278931 0
0.639913 -0.272247 0
0.663636 -0.240098 0
0.698017 -0.184794 0
0.740216 -0.113456 0
0.785226 -0.036371 0
0.825276 0.034857 0
0.855350 0.093558 0
0.874107 0.139504 0
0.880969 0.174126 0
0.875818 0.199431 0
0.859408 0.217186 0
0.834196 0.227687 0
0.804929 0.228747 0
0.777961 0.216236 0
0.759027 0.186679 0
0.750911 0.140204 0
0.752854 0.081313 0
0.761876 0.017149 0
0.774136 -0.044709 0
0.786315 -0.098894 0
0.796462 -0.143113 0
0.803853 -0.176486 0
0.808968 -0.198335 0
0.813345 -0.207585 0
0.819080 -0.202884 0
0.827989 -0.183423 0
0.840833 -0.149983 0
0.857092 -0.105439 0
0.875310 -0.054340 0
0.893558 -0.002219 0
0.909213 0.045614 0
0.920492 0.085860 0
0.926270 0.117452 0
0.925955 0.140562 0
0.919624 0.155873 0
0.908244 0.163821 0
0.893716 0.164076 0
0.878562 0.155612 0
0.865237 0.137450 0
0.855435 0.109663 0
0.849785 0.073930 0
0.848029 0.033303 0
0.849422 -0.008473 0
0.852954 -0.047757 0
0.857599 -0.081766 0
0.862593 -0.108734 0
0.867545 -0.127588 0
0.872475 -0.137649 0
0.877726 -0.138494 0
0.883755 -0.130024 0
0.890855 -0.112682 0
0.898951 -0.087703 0
0.907522 -0.056163 0
0.915443 -0.033219 0
1.000000 -0.003170 0
0.993885 -0.009351 0
0.980610 -0.015132 0
0.957713 -0.020157 0
0.920479 -0.023266 0
0.860122 -0.020583 0
0.760005 -0.000692 0
0.586657 0.100565 0
0.272002 0.092733 0
0.000000 0.000000 0
0.000000 0.000000 0
0.000000 0.000000 0
-0.037507 -0.000970 0
-0.115677 0.028756 0
-0.151243 0.098939 0
-0.164634 0.165527 0
-0.164135 0.192147 0
-0.139717 0.158166 0
-0.079817 0.062177 0
-0.012209 -0.059081 0
0.038930 -0.163913 0
0.074456 -0.241740 0
0.100992 -0.289544 0
0.127410 -0.302368 0
0.164320 -0.275597 0
0.217527 -0.211941 0
0.284500 -0.122605 0
0.353851 -0.024680 0
0.409238 0.065139 0
0.446108 0.141627 0
0.464951 0.206909 0
0.467555 0.260276 0
0.458953 0.298139 0
0.448001 0.314267 0
0.445328 0.301966 0
0.459071 0.258297 0
0.491191 0.187368 0
0.537191 0.099619 0
0.587825 0.009444 0
0.630764 -0.070484 0
0.661515 -0.136179 0
0.678934 -0.189097 0
0.683292 -0.230514 0
0.676764 -0.260748 0
0.664084 -0.278154 0
0.652328 -0.278831 0
0.649009 -0.258263 0
0.658925 -0.214627 0
0.682024 -0.151280 0
0.713965 -0.076174 0
0.748083 0.000093 0
0.776675 0.068456 0
0.796369 0.125529 0
0.805931 0.171744 0
0.805442 0.208024 0
0.796574 0.234444 0
0.782916 0.249234 0
0.769537 0.248821 0
0.761419 0.229588 0
0.761491 0.190597 0
0.769749 0.135137 0
0.784016 0.069852 0
0.801287 0.002812 0
0.817963 -0.058604 0
0.831600 -0.110093 0
0.840696 -0.150451 0
0.844525 -0.179867 0
0.843348 -0.198839 0
0.838659 -0.207328 0
0.833073 -0.204390 0
0.829604 -0.188674 0
0.830548 -0.159665 0
0.836627 -0.118824 0
0.846943 -0.069756 0
0.859596 -0.017387 0
0.872104 0.032986 0
0.882247 0.077397 0
0.888670 0.114066 0
0.890765 0.142457 0
0.888732 0.162412 0
0.883617 0.173499 0
0.877117 0.174791 0
0.871111 0.165228 0