# vtk DataFile Version 2.0
generated by CFD-lab course output (written by Tobias Neckel) 
ASCII

DATASET STRUCTURED_GRID
DIMENSIONS  99 19 1 
POINTS 1881 float

0.000000 0.000000 0
0.100000 0.000000 0
0.200000 0.000000 0
0.300000 0.000000 0
0.400000 0.000000 0
0.500000 0.000000 0
0.600000 0.000000 0
0.700000 0.000000 0
0.800000 0.000000 0
0.900000 0.000000 0
1.000000 0.000000 0
1.100000 0.000000 0
1.200000 0.000000 0
1.300000 0.000000 0
1.400000 0.000000 0
1.500000 0.000000 0
1.600000 0.000000 0
1.700000 0.000000 0
1.800000 0.000000 0
1.900000 0.000000 0
2.000000 0.000000 0
2.100000 0.000000 0
2.200000 0.000000 0
2.300000 0.000000 0
2.400000 0.000000 0
2.500000 0.000000 0
2.600000 0.000000 0
2.700000 0.000000 0
2.800000 0.000000 0
2.900000 0.000000 0
3.000000 0.000000 0
3.100000 0.000000 0
3.200000 0.000000 0
3.300000 0.000000 0
3.400000 0.000000 0
3.500000 0.000000 0
3.600000 0.000000 0
3.700000 0.000000 0
3.800000 0.000000 0
3.900000 0.000000 0
4.000000 0.000000 0
4.100000 0.000000 0
4.200000 0.000000 0
4.300000 0.000000 0
4.400000 0.000000 0
4.500000 0.000000 0
4.600000 0.000000 0
4.700000 0.000000 0
4.800000 0.000000 0
4.900000 0.000000 0
5.000000 0.000000 0
5.100000 0.000000 0
5.200000 0.000000 0
5.300000 0.000000 0
5.400000 0.000000 0
5.500000 0.000000 0
5.600000 0.000000 0
5.700000 0.000000 0
5.800000 0.000000 0
5.900000 0.000000 0
6.000000 0.000000 0
6.100000 0.000000 0
6.200000 0.000000 0
6.300000 0.000000 0
6.400000 0.000000 0
6.500000 0.000000 0
6.600000 0.000000 0
6.700000 0.000000 0
6.800000 0.000000 0
6.900000 0.000000 0
7.000000 0.000000 0
7.100000 0.000000 0
7.200000 0.000000 0
7.300000 0.000000 0
7.400000 0.000000 0
7.500000 0.000000 0
7.600000 0.000000 0
7.700000 0.000000 0
7.800000 0.000000 0
7.900000 0.000000 0
8.000000 0.000000 0
8.100000 0.000000 0
8.200000 0.000000 0
8.300000 0.000000 0
8.400000 0.000000 0
8.500000 0.000000 0
8.600000 0.000000 0
8.700000 0.000000 0
8.800000 0.000000 0
8.900000 0.000000 0
9.000000 0.000000 0
9.100000 0.000000 0
9.200000 0.000000 0
9.300000 0.000000 0
9.400000 0.000000 0
9.500000 0.000000 0
9.600000 0.000000 0
9.700000 0.000000 0
9.800000 0.000000 0
0.000000 0.100000 0
0.100000 0.100000 0
0.200000 0.100000 0
0.300000 0.100000 0
0.400000 0.100000 0
0.500000 0.100000 0
0.600000 0.100000 0
0.700000 0.100000 0
0.800000 0.100000 0
0.900000 0.100000 0
1.000000 0.100000 0
1.100000 0.100000 0
1.200000 0.100000 0
1.300000 0.100000 0
1.400000 0.100000 0
1.500000 0.100000 0
1.600000 0.100000 0
1.700000 0.100000 0
1.800000 0.100000 0
1.900000 0.100000 0
2.000000 0.100000 0
2.100000 0.100000 0
2.200000 0.100000 0
2.300000 0.100000 0
2.400000 0.100000 0
2.500000 0.100000 0
2.600000 0.100000 0
2.700000 0.100000 0
2.800000 0.100000 0
2.900000 0.100000 0
3.000000 0.100000 0
3.100000 0.100000 0
3.200000 0.100000 0
3.300000 0.100000 0
3.400000 0.100000 0
3.500000 0.100000 0
3.600000 0.100000 0
3.700000 0.100000 0
3.800000 0.100000 0
3.900000 0.100000 0
4.000000 0.100000 0
4.100000 0.100000 0
4.200000 0.100000 0
4.300000 0.100000 0
4.400000 0.100000 0
4.500000 0.100000 0
4.600000 0.100000 0
4.700000 0.100000 0
4.800000 0.100000 0
4.900000 0.100000 0
5.000000 0.100000 0
5.100000 0.100000 0
5.200000 0.100000 0
5.300000 0.100000 0
5.400000 0.100000 0
5.500000 0.100000 0
5.600000 0.100000 0
5.700000 0.100000 0
5.800000 0.100000 0
5.900000 0.100000 0
6.000000 0.100000 0
6.100000 0.100000 0
6.200000 0.100000 0
6.300000 0.100000 0
6.400000 0.100000 0
6.500000 0.100000 0
6.600000 0.100000 0
6.700000 0.100000 0
6.800000 0.100000 0
6.900000 0.100000 0
7.000000 0.100000 0
7.100000 0.100000 0
7.200000 0.100000 0
7.300000 0.100000 0
7.400000 0.100000 0
7.500000 0.100000 0
7.600000 0.100000 0
7.700000 0.100000 0
7.800000 0.100000 0
7.900000 0.100000 0
8.000000 0.100000 0
8.100000 0.100000 0
8.200000 0.100000 0
8.300000 0.100000 0
8.400000 0.100000 0
8.500000 0.100000 0
8.600000 0.100000 0
8.700000 0.100000 0
8.800000 0.100000 0
8.900000 0.100000 0
9.000000 0.100000 0
9.100000 0.100000 0
9.200000 0.100000 0
9.300000 0.100000 0
9.400000 0.100000 0
9.500000 0.100000 0
9.600000 0.100000 0
9.700000 0.100000 0
9.800000 0.100000 0
0.000000 0.200000 0
0.100000 0.200000 0
0.200000 0.200000 0
0.300000 0.200000 0
0.400000 0.200000 0
0.500000 0.200000 0
0.600000 0.200000 0
0.700000 0.200000 0
0.800000 0.200000 0
0.900000 0.200000 0
1.000000 0.200000 0
1.100000 0.200000 0
1.200000 0.200000 0
1.300000 0.200000 0
1.400000 0.200000 0
1.500000 0.200000 0
1.600000 0.200000 0
1.700000 0.200000 0
1.800000 0.200000 0
1.900000 0.200000 0
2.000000 0.200000 0
2.100000 0.200000 0
2.200000 0.200000 0
2.300000 0.200000 0
2.400000 0.200000 0
2.500000 0.200000 0
2.600000 0.200000 0
2.700000 0.200000 0
2.800000 0.200000 0
2.900000 0.200000 0
3.000000 0.200000 0
3.100000 0.200000 0
3.200000 0.200000 0
3.300000 0.200000 0
3.400000 0.200000 0
3.500000 0.200000 0
3.600000 0.200000 0
3.700000 0.200000 0
3.800000 0.200000 0
3.900000 0.200000 0
4.000000 0.200000 0
4.100000 0.200000 0
4.200000 0.200000 0
4.300000 0.200000 0
4.400000 0.200000 0
4.500000 0.200000 0
4.600000 0.200000 0
4.700000 0.200000 0
4.800000 0.200000 0
4.900000 0.200000 0
5.000000 0.200000 0
5.100000 0.200000 0
5.200000 0.200000 0
5.300000 0.200000 0
5.400000 0.200000 0
5.500000 0.200000 0
5.600000 0.200000 0
5.700000 0.200000 0
5.800000 0.200000 0
5.900000 0.200000 0
6.000000 0.200000 0
6.100000 0.200000 0
6.200000 0.200000 0
6.300000 0.200000 0
6.400000 0.200000 0
6.500000 0.200000 0
6.600000 0.200000 0
6.700000 0.200000 0
6.800000 0.200000 0
6.900000 0.200000 0
7.000000 0.200000 0
7.100000 0.200000 0
7.200000 0.200000 0
7.300000 0.200000 0
7.400000 0.200000 0
7.500000 0.200000 0
7.600000 0.200000 0
7.700000 0.200000 0
7.800000 0.200000 0
7.900000 0.200000 0
8.000000 0.200000 0
8.100000 0.200000 0
8.200000 0.200000 0
8.300000 0.200000 0
8.400000 0.200000 0
8.500000 0.200000 0
8.600000 0.200000 0
8.700000 0.200000 0
8.800000 0.200000 0
8.900000 0.200000 0
9.000000 0.200000 0
9.100000 0.200000 0
9.200000 0.200000 0
9.300000 0.200000 0
9.400000 0.200000 0
9.500000 0.200000 0
9.600000 0.200000 0
9.700000 0.200000 0
9.800000 0.200000 0
0.000000 0.300000 0
0.100000 0.300000 0
0.200000 0.300000 0
0.300000 0.300000 0
0.400000 0.300000 0
0.500000 0.300000 0
0.600000 0.300000 0
0.700000 0.300000 0
0.800000 0.300000 0
0.900000 0.300000 0
1.000000 0.300000 0
1.100000 0.300000 0
1.200000 0.300000 0
1.300000 0.300000 0
1.400000 0.300000 0
1.500000 0.300000 0
1.600000 0.300000 0
1.700000 0.300000 0
1.800000 0.300000 0
1.900000 0.300000 0
2.000000 0.300000 0
2.100000 0.300000 0
2.200000 0.300000 0
2.300000 0.300000 0
2.400000 0.300000 0
2.500000 0.300000 0
2.600000 0.300000 0
2.700000 0.300000 0
2.800000 0.300000 0
2.900000 0.300000 0
3.000000 0.300000 0
3.100000 0.300000 0
3.200000 0.300000 0
3.300000 0.300000 0
3.400000 0.300000 0
3.500000 0.300000 0
3.600000 0.300000 0
3.700000 0.300000 0
3.800000 0.300000 0
3.900000 0.300000 0
4.000000 0.300000 0
4.100000 0.300000 0
4.200000 0.300000 0
4.300000 0.300000 0
4.400000 0.300000 0
4.500000 0.300000 0
4.600000 0.300000 0
4.700000 0.300000 0
4.800000 0.300000 0
4.900000 0.300000 0
5.000000 0.300000 0
5.100000 0.300000 0
5.200000 0.300000 0
5.300000 0.300000 0
5.400000 0.300000 0
5.500000 0.300000 0
5.600000 0.300000 0
5.700000 0.300000 0
5.800000 0.300000 0
5.900000 0.300000 0
6.000000 0.300000 0
6.100000 0.300000 0
6.200000 0.300000 0
6.300000 0.300000 0
6.400000 0.300000 0
6.500000 0.300000 0
6.600000 0.300000 0
6.700000 0.300000 0
6.800000 0.300000 0
6.900000 0.300000 0
7.000000 0.300000 0
7.100000 0.300000 0
7.200000 0.300000 0
7.300000 0.300000 0
7.400000 0.300000 0
7.500000 0.300000 0
7.600000 0.300000 0
7.700000 0.300000 0
7.800000 0.300000 0
7.900000 0.300000 0
8.000000 0.300000 0
8.100000 0.300000 0
8.200000 0.300000 0
8.300000 0.300000 0
8.400000 0.300000 0
8.500000 0.300000 0
8.600000 0.300000 0
8.700000 0.300000 0
8.800000 0.300000 0
8.900000 0.300000 0
9.000000 0.300000 0
9.100000 0.300000 0
9.200000 0.300000 0
9.300000 0.300000 0
9.400000 0.300000 0
9.500000 0.300000 0
9.600000 0.300000 0
9.700000 0.300000 0
9.800000 0.300000 0
0.000000 0.400000 0
0.100000 0.400000 0
0.200000 0.400000 0
0.300000 0.400000 0
0.400000 0.400000 0
0.500000 0.400000 0
0.600000 0.400000 0
0.700000 0.400000 0
0.800000 0.400000 0
0.900000 0.400000 0
1.000000 0.400000 0
1.100000 0.400000 0
1.200000 0.400000 0
1.300000 0.400000 0
1.400000 0.400000 0
1.500000 0.400000 0
1.600000 0.400000 0
1.700000 0.400000 0
1.800000 0.400000 0
1.900000 0.400000 0
2.000000 0.400000 0
2.100000 0.400000 0
2.200000 0.400000 0
2.300000 0.400000 0
2.400000 0.400000 0
2.500000 0.400000 0
2.600000 0.400000 0
2.700000 0.400000 0
2.800000 0.400000 0
2.900000 0.400000 0
3.000000 0.400000 0
3.100000 0.400000 0
3.200000 0.400000 0
3.300000 0.400000 0
3.400000 0.400000 0
3.500000 0.400000 0
3.600000 0.400000 0
3.700000 0.400000 0
3.800000 0.400000 0
3.900000 0.400000 0
4.000000 0.400000 0
4.100000 0.400000 0
4.200000 0.400000 0
4.300000 0.400000 0
4.400000 0.400000 0
4.500000 0.400000 0
4.600000 0.400000 0
4.700000 0.400000 0
4.800000 0.400000 0
4.900000 0.400000 0
5.000000 0.400000 0
5.100000 0.400000 0
5.200000 0.400000 0
5.300000 0.400000 0
5.400000 0.400000 0
5.500000 0.400000 0
5.600000 0.400000 0
5.700000 0.400000 0
5.800000 0.400000 0
5.900000 0.400000 0
6.000000 0.400000 0
6.100000 0.400000 0
6.200000 0.400000 0
6.300000 0.400000 0
6.400000 0.400000 0
6.500000 0.400000 0
6.600000 0.400000 0
6.700000 0.400000 0
6.800000 0.400000 0
6.900000 0.400000 0
7.000000 0.400000 0
7.100000 0.400000 0
7.200000 0.400000 0
7.300000 0.400000 0
7.400000 0.400000 0
7.500000 0.400000 0
7.600000 0.400000 0
7.700000 0.400000 0
7.800000 0.400000 0
7.900000 0.400000 0
8.000000 0.400000 0
8.100000 0.400000 0
8.200000 0.400000 0
8.300000 0.400000 0
8.400000 0.400000 0
8.500000 0.400000 0
8.600000 0.400000 0
8.700000 0.400000 0
8.800000 0.400000 0
8.900000 0.400000 0
9.000000 0.400000 0
9.100000 0.400000 0
9.200000 0.400000 0
9.300000 0.400000 0
9.400000 0.400000 0
[...]
POINT_DATA 1881 

VECTORS velocity float
0.500000 0.000000 0
0.502224 0.000000 0
0.507192 0.000000 0
0.515308 0.000000 0
0.526975 0.000000 0
0.542494 0.000000 0
0.561818 0.000000 0
0.584279 0.000000 0
0.608328 0.000000 0
0.631465 0.000000 0
0.651538 0.000000 0
0.667323 0.000000 0
0.678405 0.000000 0
0.684821 0.000000 0
0.686870 0.000000 0
0.685063 0.000000 0
0.680054 0.000000 0
0.672650 0.000000 0
0.663784 0.000000 0
0.654463 0.000000 0
0.645697 0.000000 0
0.638418 0.000000 0
0.633406 0.000000 0
0.631221 0.000000 0
0.632117 0.000000 0
0.635753 0.000000 0
0.641134 0.000000 0
0.646737 0.000000 0
0.650914 0.000000 0
0.652404 0.000000 0
0.650529 0.000000 0
0.645114 0.000000 0
0.636388 0.000000 0
0.624827 0.000000 0
0.611056 0.000000 0
0.595757 0.000000 0
0.579639 0.000000 0
0.563416 0.000000 0
0.547807 0.000000 0
0.533536 0.000000 0
0.521351 0.000000 0
0.512055 0.000000 0
0.506539 0.000000 0
0.505681 0.000000 0
0.509950 0.000000 0
0.519329 0.000000 0
0.533321 0.000000 0
0.550904 0.000000 0
0.570531 0.000000 0
0.590193 0.000000 0
0.607585 0.000000 0
0.620498 0.000000 0
0.627411 0.000000 0
0.627955 0.000000 0
0.622529 0.000000 0
0.611864 0.000000 0
0.596961 0.000000 0
0.579002 0.000000 0
0.559236 0.000000 0
0.538905 0.000000 0
0.519192 0.000000 0
0.501197 0.000000 0
0.485943 0.000000 0
0.474339 0.000000 0
0.467114 0.000000 0
0.464655 0.000000 0
0.466706 0.000000 0
0.472549 0.000000 0
0.481478 0.000000 0
0.492909 0.000000 0
0.506377 0.000000 0
0.521454 0.000000 0
0.537620 0.000000 0
0.554121 0.000000 0
0.569858 0.000000 0
0.583407 0.000000 0
0.593234 0.000000 0
0.598114 0.000000 0
0.597540 0.000000 0
0.591563 0.000000 0
0.580522 0.000000 0
0.565102 0.000000 0
0.546366 0.000000 0
0.525756 0.000000 0
0.505036 0.000000 0
0.486116 0.000000 0
0.470761 0.000000 0
0.460240 0.000000 0
0.455065 0.000000 0
0.454861 0.000000 0
0.458430 0.000000 0
0.464575 0.000000 0
0.472437 0.000000 0
0.481477 0.000000 0
0.491393 0.000000 0
0.502000 0.000000 0
0.513097 0.000000 0
0.524337 0.000000 0
0.534787 0.000000 0
1.000000 -0.002250 0
1.005007 -0.007231 0
1.015575 -0.013104 0
1.032435 -0.019794 0
1.056481 -0.027180 0
1.088500 -0.034829 0
1.128702 -0.041774 0
1.175986 -0.046506 0
1.227348 -0.047193 0
1.276494 -0.043208 0
1.318514 -0.035852 0
1.351194 -0.026871 0
1.374069 -0.017506 0
1.387430 -0.008477 0
1.391936 -0.000258 0
1.388592 0.006796 0
1.378706 0.012391 0
1.363912 0.016247 0
1.346130 0.018163 0
1.327449 0.018061 0
1.309967 0.016019 0
1.295621 0.012270 0
1.286023 0.007179 0
1.282362 0.001282 0
1.285198 -0.004526 0
1.294016 -0.009007 0
1.306842 -0.010967 0
1.320406 -0.009760 0
1.331019 -0.005651 0
1.335761 0.000394 0
1.333195 0.007289 0
1.323126 0.014139 0
1.306176 0.020286 0
1.283441 0.025330 0
1.256252 0.029068 0
1.226025 0.031411 0
1.194190 0.032333 0
1.162180 0.031823 0
1.131425 0.029869 0
1.103359 0.026443 0
1.079416 0.021467 0
1.061010 0.014798 0
1.049487 0.006360 0
1.046038 -0.003427 0
1.051592 -0.013663 0
1.066541 -0.023385 0
1.090459 -0.031586 0
1.121946 -0.037217 0
1.158659 -0.039292 0
1.197342 -0.037053 0
1.233922 -0.030301 0
1.263905 -0.019819 0
1.283265 -0.007449 0
1.289642 0.004889 0
1.283202 0.016096 0
1.265550 0.025568 0
1.238845 0.032858 0
1.205571 0.037720 0
1.168318 0.040089 0
1.129625 0.040036 0
1.091878 0.037699 0
1.057235 0.033240 0
1.027549 0.026849 0
1.004245 0.018819 0
0.988169 0.009675 0
0.979497 0.000399 0
0.977884 -0.007904 0
0.982639 -0.014781 0
0.992976 -0.020370 0
1.008232 -0.024909 0
1.027900 -0.028553 0
1.051556 -0.031250 0
1.078635 -0.032673 0
1.108119 -0.032241 0
1.138294 -0.029288 0
1.166708 -0.023377 0
1.190376 -0.014707 0
1.206240 -0.004306 0
1.211909 0.006551 0
1.206693 0.017017 0
1.191325 0.026458 0
1.167254 0.034151 0
1.136610 0.039339 0
1.102101 0.041323 0
1.066825 0.039633 0
1.033926 0.034268 0
1.006110 0.025870 0
0.985163 0.015690 0
0.971695 0.005373 0
0.965281 -0.003370 0
0.964927 -0.009720 0
0.969337 -0.014013 0
0.977362 -0.016907 0
0.988227 -0.018960 0
1.001526 -0.020526 0
1.017082 -0.021706 0
1.034737 -0.022338 0
1.054133 -0.021691 0
1.074391 -0.020386 0
1.000000 -0.005046 0
1.005164 -0.015626 0
1.015733 -0.027445 0
1.032487 -0.040906 0
1.056652 -0.056050 0
1.089669 -0.072205 0
1.132784 -0.087481 0
1.185852 -0.098653 0
1.246928 -0.100509 0
1.303618 -0.091158 0
1.349336 -0.074700 0
1.383225 -0.055564 0
1.406251 -0.036250 0
1.419347 -0.017886 0
1.423247 -0.001185 0
1.418923 0.013205 0
1.407629 0.024653 0
1.391059 0.032547 0
1.371284 0.036433 0
1.350601 0.036132 0
1.331335 0.031801 0
1.315618 0.023921 0
1.305208 0.013248 0
1.301478 0.000829 0
1.305445 -0.011641 0
1.317111 -0.021623 0
1.334517 -0.026368 0
1.353651 -0.024158 0
1.369513 -0.015344 0
1.378028 -0.002177 0
1.377625 0.012628 0
1.368617 0.027017 0
1.352109 0.039685 0
1.329570 0.049920 0
1.302528 0.057410 0
1.272463 0.062054 0
1.240785 0.063834 0
1.208860 0.062752 0
1.178024 0.058806 0
1.149579 0.051993 0
1.124756 0.042332 0
1.104638 0.029911 0
1.090061 0.014954 0
1.081640 -0.002123 0
1.080116 -0.020521 0
1.086229 -0.038882 0
1.100258 -0.055415 0
1.121951 -0.068204 0
1.150646 -0.075395 0
1.184986 -0.075258 0
1.222413 -0.066554 0
1.258922 -0.049333 0
1.289346 -0.025729 0
1.308520 0.000068 0
1.313751 0.024093 0
1.306255 0.044352 0
1.288314 0.059971 0
1.262512 0.070519 0
1.231502 0.075937 0
1.197832 0.076429 0
1.163829 0.072379 0
1.131483 0.064318 0
1.102324 0.052979 0
1.077317 0.039368 0
1.056808 0.024737 0
1.040649 0.010274 0
1.028649 -0.003154 0
1.020728 -0.015104 0
1.016844 -0.025605 0
1.017220 -0.034935 0
1.022314 -0.043334 0
1.032757 -0.050742 0
1.048988 -0.056568 0
1.070797 -0.059661 0
1.097091 -0.058590 0
1.125921 -0.052082 0
1.154621 -0.039531 0
1.179950 -0.021533 0
1.198427 -0.000455 0
1.207437 0.020580 0
1.206778 0.039433 0
1.197569 0.054707 0
1.181529 0.065144 0
1.160741 0.069775 0
1.137375 0.068166 0
1.113397 0.060707 0
1.090350 0.048755 0
1.069259 0.034407 0
1.050681 0.019875 0
1.034948 0.006760 0
1.022459 -0.004063 0
1.013317 -0.012441 0
1.007417 -0.018896 0
1.004787 -0.024169 0
1.005676 -0.028858 0
1.010454 -0.033213 0
1.019427 -0.037053 0
1.032611 -0.039655 0
1.049861 -0.040319 0
1.000000 -0.007436 0
1.004185 -0.022983 0
1.013036 -0.040418 0
1.027577 -0.060694 0
1.049577 -0.084350 0
1.081632 -0.110962 0
1.127053 -0.137968 0
1.188210 -0.160657 0
1.268944 -0.164947 0
1.336182 -0.145616 0
1.383184 -0.115471 0
1.414636 -0.083796 0
1.434921 -0.053641 0
1.445794 -0.025485 0
1.447419 0.000155 0
1.440194 0.022404 0
1.425144 0.040244 0
1.404054 0.052580 0
1.379266 0.058609 0
1.353449 0.058003 0
1.329341 0.051000 0
1.309431 0.038400 0
1.295616 0.021335 0
1.289186 0.001064 0
1.291605 -0.020145 0
1.304105 -0.038065 0
1.325400 -0.047500 0
1.351243 -0.044760 0
1.375082 -0.030042 0
1.390202 -0.007733 0
1.393259 0.016696 0
1.385384 0.039655 0
1.368770 0.059330 0
1.345620 0.074907 0
1.317826 0.086168 0
1.286960 0.093148 0
1.254376 0.095930 0
1.221312 0.094577 0
1.188944 0.089143 0
1.158385 0.079704 0
1.130652 0.066401 0
1.106590 0.049486 0
1.086747 0.029352 0
1.071204 0.006513 0
1.059651 -0.018256 0
1.052325 -0.043526 0
1.050485 -0.067304 0
1.055779 -0.087600 0
1.070109 -0.102319 0
1.094413 -0.108812 0
1.127683 -0.104231 0
1.166769 -0.086749 0
1.206678 -0.057048 0
1.241130 -0.019521 0
1.263825 0.018351 0
1.272356 0.050996 0
1.268632 0.076594 0
1.255092 0.094526 0
1.234262 0.104765 0
1.208571 0.107704 0
1.180209 0.104044 0
1.151023 0.094741 0
1.122443 0.081011 0
1.095450 0.064332 0
1.070582 0.046339 0
1.047959 0.028552 0
1.027311 0.012012 0
1.008341 -0.002981 0
0.991232 -0.016866 0
0.977175 -0.030382 0
0.968436 -0.044092 0
0.967147 -0.057923 0
0.974438 -0.070711 0
0.990044 -0.080343 0
1.012561 -0.084411 0
1.039918 -0.080906 0
1.069739 -0.068736 0
1.099520 -0.048113 0
1.126587 -0.020940 0
1.147824 0.008660 0
1.160922 0.036320 0
1.165954 0.059395 0
1.163774 0.076162 0
1.155585 0.085473 0
1.142671 0.086974 0
1.126217 0.081289 0
1.107271 0.070005 0
1.086802 0.055356 0
1.065747 0.039680 0
1.044931 0.024848 0
1.024956 0.011908 0
1.006472 0.001027 0
0.990236 -0.008378 0
0.977215 -0.017220 0
0.968626 -0.026194 0
0.965561 -0.035458 0
0.968557 -0.044495 0
0.977450 -0.052125 0
0.991615 -0.055939 0
1.000000 -0.009248 0
1.002769 -0.028673 0
1.008823 -0.050822 0
1.019301 -0.077434 0
1.036412 -0.110104 0
1.064069 -0.149690 0
1.108777 -0.194065 0
1.178511 -0.240536 0
1.297037 -0.248479 0
1.369477 -0.205409 0
1.405176 -0.153164 0
1.424587 -0.107310 0
1.437259 -0.067418 0
1.445009 -0.030393 0
1.444953 0.004405 0
1.435145 0.035468 0
1.416044 0.060783 0
1.389531 0.078416 0
1.358283 0.087031 0
1.325439 0.086053 0
1.294344 0.075820 0
1.268059 0.057659 0
1.248536 0.033509 0
1.236115 0.004853 0
1.230681 -0.026547 0
1.235514 -0.055413 0
1.252373 -0.073508 0
1.280045 -0.073850 0
1.313345 -0.054318 0
1.342904 -0.020359 0
1.358610 0.017450 0
1.358474 0.051503 0
1.346723 0.079443 0
1.326878 0.100859 0
1.301435 0.116064 0
1.272159 0.125498 0
1.240414 0.129475 0
1.207381 0.128177 0
1.174153 0.121726 0
1.141739 0.110278 0
1.110984 0.094121 0
1.082423 0.073810 0
1.055966 0.050334 0
1.030543 0.024969 0
1.004440 -0.001641 0
0.977272 -0.029713 0
0.952863 -0.058865 0
0.938313 -0.087821 0
0.938457 -0.114022 0
0.954179 -0.132827 0
0.983516 -0.138908 0
1.023012 -0.128329 0
1.068326 -0.100094 0
1.114285 -0.057087 0
1.154580 -0.007142 0
1.182539 0.039539 0
1.196947 0.077230 0
1.199656 0.104884 0
1.192788 0.122452 0
1.178494 0.130478 0
1.158780 0.129923 0
1.135404 0.122080 0
1.109775 0.108548 0
1.082847 0.091225 0
1.055002 0.072224 0
1.026100 0.053540 0
0.995973 0.036459 0
0.965301 0.020971 0
0.936248 0.005557 0
0.912069 -0.012141 0
0.896105 -0.033305 0
0.890630 -0.056744 0
0.895734 -0.079463 0
0.909946 -0.097783 0
0.931200 -0.108464 0
0.957393 -0.109261 0
0.986552 -0.099134 0
1.016851 -0.078384 0
1.046520 -0.048765 0
1.073596 -0.013762 0
1.095283 0.021297 0
1.110027 0.051850 0
1.117811 0.075509 0
1.119028 0.090875 0
1.114250 0.097530 0
1.104109 0.096104 0
1.089267 0.088167 0
1.070440 0.075927 0
1.048424 0.061741 0
1.024148 0.047548 0
0.998798 0.034394 0
0.973967 0.022277 0
0.951626 0.010359 0
0.933738 -0.002561 0
0.921820 -0.017205 0
0.916754 -0.033144 0
0.918585 -0.048942 0
0.926630 -0.062712 0
0.939997 -0.070182 0
1.000000 -0.010216 0
1.000824 -0.031810 0
1.002816 -0.056936 0
1.006832 -0.088278 0
1.014865 -0.129124 0
1.031299 -0.183334 0
1.065641 -0.252408 0
1.135450 -0.348912 0
1.311713 -0.355919 0
1.355457 -0.253764 0
1.348418 -0.170589 0
1.338751 -0.115887 0
1.336150 -0.074072 0
1.341388 -0.033188 0
1.344544 0.010010 0
1.336416 0.051303 0
1.316950 0.085849 0
1.287921 0.110334 0
1.251927 0.122698 0
1.212214 0.121942 0
1.172688 0.108389 0
1.137205 0.084223 0
1.107570 0.053292 0
1.082320 0.018930 0
1.058957 -0.019537 0
1.039872 -0.059757 0
1.036739 -0.092040 0
1.056243 -0.105747 0
1.096120 -0.092908 0
1.146835 -0.052996 0
1.193613 0.001126 0
1.222298 0.051538 0
1.232860 0.090921 0
1.230946 0.120189 0
1.219923 0.140881 0
1.201921 0.154163 0
1.178543 0.160701 0
1.151190 0.160830 0
1.121112 0.154778 0
1.089188 0.142867 0
1.055376 0.125711 0
1.018232 0.104498 0
0.975606 0.081227 0
0.927240 0.058038 0
0.877255 0.035016 0
0.833063 0.008055 0
0.801810 -0.028340 0
0.788061 -0.073189 0
0.791681 -0.118179 0
0.809909 -0.153867 0
0.839782 -0.173064 0
0.878712 -0.171563 0
0.924108 -0.148328 0
0.972959 -0.105782 0
1.021473 -0.049908 0
1.063873 0.008624 0
1.094364 0.059472 0
1.112751 0.098681 0
1.120253 0.125922 0
1.118371 0.141708 0
1.108640 0.147130 0
1.092416 0.143742 0
1.070679 0.133563 0
1.043865 0.119100 0
1.011988 0.103081 0
0.975325 0.087577 0
0.935546 0.072807 0
0.896386 0.056741 0
0.862923 0.036364 0
0.839487 0.009760 0
0.827789 -0.022652 0
0.827133 -0.057552 0
0.835432 -0.090025 0
0.850490 -0.115808 0
0.870571 -0.131858 0
0.894366 -0.136259 0
0.920750 -0.128196 0
0.948615 -0.108086 0
0.976804 -0.077692 0
1.004070 -0.040109 0
1.028730 -0.000115 0
1.048316 0.036863 0
1.061859 0.067157 0
1.069040 0.089031 0
1.069814 0.101889 0
1.064284 0.106268 0
1.052666 0.103668 0
1.035341 0.096194 0
1.013013 0.085969 0
0.986940 0.074472 0
0.959116 0.062087 0
0.932187 0.048197 0
0.908980 0.031849 0
0.891768 0.012584 0
0.881613 -0.009211 0
0.878418 -0.032223 0
0.881406 -0.054371 0
0.889530 -0.073536 0
0.901912 -0.084093 0
1.000000 -0.010077 0
0.998490 -0.031487 0
0.995410 -0.056822 0
0.990744 -0.089484 0
0.984968 -0.134578 0
0.980260 -0.200468 0
0.984103 -0.298212 0
1.018741 -0.486610 0
1.213382 -0.468491 0
1.159803 -0.242119 0
1.068476 -0.136467 0
1.019040 -0.095051 0
0.994927 -0.070063 0
1.000413 -0.038795 0
1.022533 0.009369 0
1.031232 0.063054 0
1.025331 0.109271 0
1.005835 0.143434 0
0.972899 0.162737 0
0.926763 0.165300 0
0.868523 0.150842 0
0.801829 0.122789 0
0.734837 0.088405 0
0.679393 0.053474 0
0.645690 0.015901 0
0.636872 -0.033201 0
0.652316 -0.089891 0
0.689944 -0.133243 0
0.746863 -0.144909 0
0.818636 -0.117851 0
0.897637 -0.058018 0
0.969409 0.012252 0
1.020081 0.070790 0
1.050617 0.113789 0
1.066077 0.145082 0
1.069133 0.166871 0
1.061658 0.180200 0
1.045091 0.185602 0
1.020249 0.183721 0
0.986920 0.176008 0
0.943849 0.165071 0
0.890047 0.153575 0
0.827592 0.141324 0
0.763955 0.123320 0
0.710652 0.092539 0
0.677650 0.045737 0
0.667289 -0.013858 0
0.673556 -0.077686 0
0.689592 -0.135865 0
0.711813 -0.180927 0
0.739457 -0.207714 0
0.772902 -0.212661 0
0.812191 -0.194349 0
0.856254 -0.154457 0
0.902859 -0.098060 0
0.948772 -0.033358 0
0.988133 0.028348 0
1.017005 0.078991 0
1.035269 0.116828 0
1.043411 0.142086 0
1.042124 0.155874 0
1.031998 0.160037 0
1.013324 0.157094 0
0.986231 0.149911 0
0.951379 0.140758 0
0.911080 0.129978 0
0.869869 0.115395 0
0.833573 0.093592 0
0.807103 0.062455 0
0.792645 0.022993 0
0.789359 -0.020950 0
0.794236 -0.064386 0
0.804438 -0.102819 0
0.818211 -0.132922 0
0.834739 -0.152341 0
0.853724 -0.159441 0
0.874964 -0.153387 0
0.898047 -0.134443 0
0.922262 -0.104226 0
0.946650 -0.065693 0
0.970064 -0.022954 0
0.990580 0.018718 0
1.006360 0.054782 0
1.016502 0.082917 0
1.020449 0.102282 0
1.017866 0.113247 0
1.008664 0.117104 0
0.993151 0.115576 0
0.972281 0.110140 0
0.947849 0.101442 0
0.922417 0.089144 0
0.898846 0.072411 0
0.879612 0.050775 0
0.866254 0.024804 0
0.859218 -0.003855 0
0.857935 -0.032937 0
0.861345 -0.060054 0
0.868412 -0.083217 0
0.878387 -0.096029 0
1.000000 -0.008706 0
0.996184 -0.027215 0
0.987955 -0.049187 0
0.973993 -0.077840 0
0.952010 -0.118646 0
0.918369 -0.182470 0
0.867540 -0.290886 0
0.796033 -0.578193 0
0.557668 -0.398293 0
0.496230 0.000000 0
0.424411 -0.019661 0
0.359782 -0.042346 0
0.366038 -0.055452 0
0.413830 -0.060800 0
0.476866 -0.020816 0
0.528880 0.048498 0
0.553963 0.111242 0
0.556537 0.162766 0
0.535193 0.201773 0
0.489366 0.226329 0
0.422894 0.233336 0
0.348519 0.217919 0
0.284169 0.175737 0
0.247834 0.108081 0
0.249661 0.022981 0
0.284237 -0.066393 0
0.334716 -0.145125 0
0.392197 -0.200297 0
0.456144 -0.221599 0
0.528957 -0.203774 0
0.611485 -0.149652 0
0.699991 -0.070912 0
0.780255 0.009707 0
0.839822 0.074187 0
0.879491 0.122358 0
0.902151 0.158575 0
0.909244 0.184736 0
0.901479 0.202233 0
0.878876 0.212944 0
0.841278 0.219261 0
0.790049 0.222579 0
0.730603 0.220752 0
0.673293 0.207320 0
0.629986 0.174980 0
0.607988 0.121325 0
0.606843 0.051424 0
0.620192 -0.024240 0
0.638904 -0.095487 0
0.657602 -0.156433 0
0.675194 -0.203734 0
0.693227 -0.234158 0
0.714445 -0.244305 0
0.741300 -0.231686 0
0.774655 -0.196454 0
0.813339 -0.142431 0
0.854687 -0.076655 0
0.894876 -0.008764 0
0.928114 0.051540 0
0.952148 0.099512 0
0.966353 0.134849 0
0.970512 0.158539 0
0.964513 0.172537 0
0.948425 0.179325 0
0.923030 0.181040 0
0.890678 0.178227 0
0.855743 0.169083 0
0.823810 0.150311 0
0.799702 0.119507 0
0.785698 0.077292 0
0.781275 0.027504 0
0.784190 -0.024242 0
0.791534 -0.072630 0
0.801024 -0.114000 0
0.811469 -0.146109 0
0.822633 -0.167372 0
0.834935 -0.176486 0
0.849009 -0.172524 0
0.865241 -0.155390 0
0.883480 -0.126299 0
0.903025 -0.087916 0
0.922808 -0.044049 0
0.941445 0.000564 0
0.956852 0.041231 0
0.967678 0.074937 0
0.973009 0.100519 0
0.972269 0.118046 0
0.965307 0.128379 0
0.952589 0.132574 0
0.935390 0.131267 0
0.915775 0.124332 0
0.896243 0.111087 0
0.879127 0.091000 0
0.866042 0.064440 0
0.857664 0.032977 0
0.853887 -0.000893 0
0.854064 -0.034350 0
0.857242 -0.064848 0
0.862546 -0.090578 0
0.869363 -0.104840 0
1.000000 -0.006257 0
0.994492 -0.019436 0
0.982463 -0.034632 0
0.961543 -0.053544 0
0.927082 -0.078957 0
0.870024 -0.115997 0
0.770913 -0.175876 0
0.587326 -0.275434 0
0.000000 -0.168690 0
0.000000 0.000000 0
0.000000 0.000000 0
-0.029811 -0.046833 0
-0.051310 -0.124118 0
-0.014890 -0.149630 0
0.013977 -0.105687 0
0.061694 -0.014048 0
0.106637 0.081611 0
0.131563 0.162206 0
0.131455 0.229917 0
0.108893 0.277610 0
0.075947 0.291698 0
0.057079 0.261524 0
0.064911 0.189097 0
0.099320 0.087983 0
0.149715 -0.020508 0
0.200502 -0.118267 0
0.245519 -0.197858 0
0.285385 -0.254670 0
0.325160 -0.281671 0
0.371705 -0.273197 0
0.429913 -0.229057 0
0.500120 -0.156525 0
0.577318 -0.069048 0
0.647241 0.014546 0
0.699058 0.082746 0
0.732446 0.137112 0
0.747898 0.180865 0
0.745618 0.215964 0
0.726382 0.243918 0
0.693022 0.264831 0
0.652044 0.275742 0
0.613619 0.270330 0
0.588372 0.241942 0
0.582351 0.188628 0
0.594427 0.115687 0
0.618240 0.033539 0
0.644824 -0.045914 0
0.667507 -0.115093 0
0.683760 -0.172154 0
0.693545 -0.216555 0
0.698977 -0.246971 0
0.703953 -0.260741 0
0.713057 -0.254563 0
0.729746 -0.226501 0
0.754840 -0.178097 0
0.786389 -0.114899 0
0.820769 -0.045083 0
0.852913 0.021715 0
0.878165 0.078584 0
0.894742 0.123718 0
0.901741 0.157709 0
0.898812 0.182118 0
0.886432 0.198573 0
0.866477 0.207653 0
0.842573 0.208041 0
0.819560 0.196842 0
0.801942 0.171434 0
0.792231 0.131703 0
0.790408 0.080882 0
0.794694 0.024501 0
0.802637 -0.031208 0
0.811731 -0.081219 0
0.820235 -0.122754 0
0.827245 -0.154532 0
0.832749 -0.175810 0
0.837569 -0.185821 0
0.843058 -0.183698 0
0.850543 -0.168920 0
0.860749 -0.142015 0
0.873519 -0.105026 0
0.887950 -0.061377 0
0.902709 -0.015330 0
0.915954 0.028545 0
0.925989 0.066755 0
0.931706 0.097685 0
0.932472 0.120943 0
0.928212 0.136780 0
0.919562 0.145488 0
0.907898 0.146950 0
0.895114 0.140585 0
0.883158 0.125788 0
0.873530 0.102610 0
0.866998 0.072237 0
0.863643 0.036957 0
0.863097 -0.000256 0
0.864721 -0.036291 0
0.867702 -0.068536 0
0.871288 -0.095338 0
0.874920 -0.110180 0
1.000000 -0.003192 0
0.993873 -0.009673 0
0.980540 -0.016241 0
0.957531 -0.022463 0
0.920140 -0.027127 0
0.859507 -0.026299 0
0.758873 -0.008190 0
0.584558 0.089418 0
0.270094 0.085733 0
0.000000 0.000000 0
0.000000 0.000000 0
0.000000 0.000000 0
-0.045645 -0.069190 0
-0.116818 -0.126093 0
-0.167981 -0.097406 0
-0.170992 -0.044166 0
-0.133382 0.041373 0
-0.092152 0.137952 0
-0.062293 0.224453 0
-0.041043 0.281846 0
-0.013042 0.285160 0
0.034858 0.228964 0
0.104154 0.133499 0
0.182191 0.023274 0
0.246902 -0.078209 0
0.292579 -0.162206 0
0.320461 -0.230010 0
0.333377 -0.279939 0
0.337744 -0.307924 0
0.343293 -0.308531 0
0.359903 -0.278074 0
0.393142 -0.218324 0
0.441895 -0.137421 0
0.498915 -0.047560 0
0.550251 0.037146 0
0.587336 0.109729 0
0.608624 0.171559 0
0.614278 0.223743 0
0.606700 0.265534 0
0.591416 0.293595 0
0.576838 0.301980 0
0.571904 0.284425 0
0.582262 0.238589 0
0.607834 0.168929 0
0.643763 0.085442 0
0.682756 0.001033 0
0.716070 -0.073502 0
0.740230 -0.134422 0
0.753980 -0.182472 0
0.757252 -0.218955 0
0.751538 -0.244574 0
0.740414 -0.258390 0
0.729394 -0.257483 0
0.724454 -0.238242 0
0.729608 -0.199078 0
0.745200 -0.142588 0
0.768237 -0.075294 0
0.794030 -0.005861 0
0.816827 0.057679 0
0.833379 0.111268 0
0.842216 0.154464 0
0.843042 0.187841 0
0.836876 0.211656 0
0.826247 0.224895 0
0.814870 0.225141 0
0.806560 0.209711 0
0.803840 0.177639 0
0.807203 0.131040 0
0.815490 0.074829 0
0.826796 0.015276 0
0.838835 -0.041279 0
0.849557 -0.090227 0
0.857541 -0.129514 0
0.861925 -0.158625 0
0.862579 -0.177700 0
0.860315 -0.186800 0
0.856846 -0.185504 0
0.854335 -0.173086 0
0.854626 -0.149280 0
0.858569 -0.115121 0
0.865829 -0.073243 0
0.875208 -0.027444 0
0.885059 0.017947 0
0.893543 0.059178 0