# vtk DataFile Version 2.0
generated by CFD-lab course output (written by Tobias Neckel) 
ASCII

DATASET STRUCTURED_GRID
DIMENSIONS  99 19 1 
POINTS 1881 float

0.000000 0.000000 0
0.100000 0.000000 0
0.200000 0.000000 0
0.300000 0.000000 0
0.400000 0.000000 0
0.500000 0.000000 0
0.600000 0.000000 0
0.700000 0.000000 0
0.800000 0.000000 0
0.900000 0.000000 0
1.000000 0.000000 0
1.100000 0.000000 0
1.200000 0.000000 0
1.300000 0.000000 0
1.400000 0.000000 0
1.500000 0.000000 0
1.600000 0.000000 0
1.700000 0.000000 0
1.800000 0.000000 0
1.900000 0.000000 0
2.000000 0.000000 0
2.100000 0.000000 0
2.200000 0.000000 0
2.300000 0.000000 0
2.400000 0.000000 0
2.500000 0.000000 0
2.600000 0.000000 0
2.700000 0.000000 0
2.800000 0.000000 0
2.900000 0.000000 0
3.000000 0.000000 0
3.100000 0.000000 0
3.200000 0.000000 0
3.300000 0.000000 0
3.400000 0.000000 0
3.500000 0.000000 0
3.600000 0.000000 0
3.700000 0.000000 0
3.800000 0.000000 0
3.900000 0.000000 0
4.000000 0.000000 0
4.100000 0.000000 0
4.200000 0.000000 0
4.300000 0.000000 0
4.400000 0.000000 0
4.500000 0.000000 0
4.600000 0.000000 0
4.700000 0.000000 0
4.800000 0.000000 0
4.900000 0.000000 0
5.000000 0.000000 0
5.100000 0.000000 0
5.200000 0.000000 0
5.300000 0.000000 0
5.400000 0.000000 0
5.500000 0.000000 0
5.600000 0.000000 0
5.700000 0.000000 0
5.800000 0.000000 0
5.900000 0.000000 0
6.000000 0.000000 0
6.100000 0.000000 0
6.200000 0.000000 0
6.300000 0.000000 0
6.400000 0.000000 0
6.500000 0.000000 0
6.600000 0.000000 0
6.700000 0.000000 0
6.800000 0.000000 0
6.900000 0.000000 0
7.000000 0.000000 0
7.100000 0.000000 0
7.200000 0.000000 0
7.300000 0.000000 0
7.400000 0.000000 0
7.500000 0.000000 0
7.600000 0.000000 0
7.700000 0.000000 0
7.800000 0.000000 0
7.900000 0.000000 0
8.000000 0.000000 0
8.100000 0.000000 0
8.200000 0.000000 0
8.300000 0.000000 0
8.400000 0.000000 0
8.500000 0.000000 0
8.600000 0.000000 0
8.700000 0.000000 0
8.800000 0.000000 0
8.900000 0.000000 0
9.000000 0.000000 0
9.100000 0.000000 0
9.200000 0.000000 0
9.300000 0.000000 0
9.400000 0.000000 0
9.500000 0.000000 0
9.600000 0.000000 0
9.700000 0.000000 0
9.800000 0.000000 0
0.000000 0.100000 0
0.100000 0.100000 0
0.200000 0.100000 0
0.300000 0.100000 0
0.400000 0.100000 0
0.500000 0.100000 0
0.600000 0.100000 0
0.700000 0.100000 0
0.800000 0.100000 0
0.900000 0.100000 0
1.000000 0.100000 0
1.100000 0.100000 0
1.200000 0.100000 0
1.300000 0.100000 0
1.400000 0.100000 0
1.500000 0.100000 0
1.600000 0.100000 0
1.700000 0.100000 0
1.800000 0.100000 0
1.900000 0.100000 0
2.000000 0.100000 0
2.100000 0.100000 0
2.200000 0.100000 0
2.300000 0.100000 0
2.400000 0.100000 0
2.500000 0.100000 0
2.600000 0.100000 0
2.700000 0.100000 0
2.800000 0.100000 0
2.900000 0.100000 0
3.000000 0.100000 0
3.100000 0.100000 0
3.200000 0.100000 0
3.300000 0.100000 0
3.400000 0.100000 0
3.500000 0.100000 0
3.600000 0.100000 0
3.700000 0.100000 0
3.800000 0.100000 0
3.900000 0.100000 0
4.000000 0.100000 0
4.100000 0.100000 0
4.200000 0.100000 0
4.300000 0.100000 0
4.400000 0.100000 0
4.500000 0.100000 0
4.600000 0.100000 0
4.700000 0.100000 0
4.800000 0.100000 0
4.900000 0.100000 0
5.000000 0.100000 0
5.100000 0.100000 0
5.200000 0.100000 0
5.300000 0.100000 0
5.400000 0.100000 0
5.500000 0.100000 0
5.600000 0.100000 0
5.700000 0.100000 0
5.800000 0.100000 0
5.900000 0.100000 0
6.000000 0.100000 0
6.100000 0.100000 0
6.200000 0.100000 0
6.300000 0.100000 0
6.400000 0.100000 0
6.500000 0.100000 0
6.600000 0.100000 0
6.700000 0.100000 0
6.800000 0.100000 0
6.900000 0.100000 0
7.000000 0.100000 0
7.100000 0.100000 0
7.200000 0.100000 0
7.300000 0.100000 0
7.400000 0.100000 0
7.500000 0.100000 0
7.600000 0.100000 0
7.700000 0.100000 0
7.800000 0.100000 0
7.900000 0.100000 0
8.000000 0.100000 0
8.100000 0.100000 0
8.200000 0.100000 0
8.300000 0.100000 0
8.400000 0.100000 0
8.500000 0.100000 0
8.600000 0.100000 0
8.700000 0.100000 0
8.800000 0.100000 0
8.900000 0.100000 0
9.000000 0.100000 0
9.100000 0.100000 0
9.200000 0.100000 0
9.300000 0.100000 0
9.400000 0.100000 0
9.500000 0.100000 0
9.600000 0.100000 0
9.700000 0.100000 0
9.800000 0.100000 0
0.000000 0.200000 0
0.100000 0.200000 0
0.200000 0.200000 0
0.300000 0.200000 0
0.400000 0.200000 0
0.500000 0.200000 0
0.600000 0.200000 0
0.700000 0.200000 0
0.800000 0.200000 0
0.900000 0.200000 0
1.000000 0.200000 0
1.100000 0.200000 0
1.200000 0.200000 0
1.300000 0.200000 0
1.400000 0.200000 0
1.500000 0.200000 0
1.600000 0.200000 0
1.700000 0.200000 0
1.800000 0.200000 0
1.900000 0.200000 0
2.000000 0.200000 0
2.100000 0.200000 0
2.200000 0.200000 0
2.300000 0.200000 0
2.400000 0.200000 0
2.500000 0.200000 0
2.600000 0.200000 0
2.700000 0.200000 0
2.800000 0.200000 0
2.900000 0.200000 0
3.000000 0.200000 0
3.100000 0.200000 0
3.200000 0.200000 0
3.300000 0.200000 0
3.400000 0.200000 0
3.500000 0.200000 0
3.600000 0.200000 0
3.700000 0.200000 0
3.800000 0.200000 0
3.900000 0.200000 0
4.000000 0.200000 0
4.100000 0.200000 0
4.200000 0.200000 0
4.300000 0.200000 0
4.400000 0.200000 0
4.500000 0.200000 0
4.600000 0.200000 0
4.700000 0.200000 0
4.800000 0.200000 0
4.900000 0.200000 0
5.000000 0.200000 0
5.100000 0.200000 0
5.200000 0.200000 0
5.300000 0.200000 0
5.400000 0.200000 0
5.500000 0.200000 0
5.600000 0.200000 0
5.700000 0.200000 0
5.800000 0.200000 0
5.900000 0.200000 0
6.000000 0.200000 0
6.100000 0.200000 0
6.200000 0.200000 0
6.300000 0.200000 0
6.400000 0.200000 0
6.500000 0.200000 0
6.600000 0.200000 0
6.700000 0.200000 0
6.800000 0.200000 0
6.900000 0.200000 0
7.000000 0.200000 0
7.100000 0.200000 0
7.200000 0.200000 0
7.300000 0.200000 0
7.400000 0.200000 0
7.500000 0.200000 0
7.600000 0.200000 0
7.700000 0.200000 0
7.800000 0.200000 0
7.900000 0.200000 0
8.000000 0.200000 0
8.100000 0.200000 0
8.200000 0.200000 0
8.300000 0.200000 0
8.400000 0.200000 0
8.500000 0.200000 0
8.600000 0.200000 0
8.700000 0.200000 0
8.800000 0.200000 0
8.900000 0.200000 0
9.000000 0.200000 0
9.100000 0.200000 0
9.200000 0.200000 0
9.300000 0.200000 0
9.400000 0.200000 0
9.500000 0.200000 0
9.600000 0.200000 0
9.700000 0.200000 0
9.800000 0.200000 0
0.000000 0.300000 0
0.100000 0.300000 0
0.200000 0.300000 0
0.300000 0.300000 0
0.400000 0.300000 0
0.500000 0.300000 0
0.600000 0.300000 0
0.700000 0.300000 0
0.800000 0.300000 0
0.900000 0.300000 0
1.000000 0.300000 0
1.100000 0.300000 0
1.200000 0.300000 0
1.300000 0.300000 0
1.400000 0.300000 0
1.500000 0.300000 0
1.600000 0.300000 0
1.700000 0.300000 0
1.800000 0.300000 0
1.900000 0.300000 0
2.000000 0.300000 0
2.100000 0.300000 0
2.200000 0.300000 0
2.300000 0.300000 0
2.400000 0.300000 0
2.500000 0.300000 0
2.600000 0.300000 0
2.700000 0.300000 0
2.800000 0.300000 0
2.900000 0.300000 0
3.000000 0.300000 0
3.100000 0.300000 0
3.200000 0.300000 0
3.300000 0.300000 0
3.400000 0.300000 0
3.500000 0.300000 0
3.600000 0.300000 0
3.700000 0.300000 0
3.800000 0.300000 0
3.900000 0.300000 0
4.000000 0.300000 0
4.100000 0.300000 0
4.200000 0.300000 0
4.300000 0.300000 0
4.400000 0.300000 0
4.500000 0.300000 0
4.600000 0.300000 0
4.700000 0.300000 0
4.800000 0.300000 0
4.900000 0.300000 0
5.000000 0.300000 0
5.100000 0.300000 0
5.200000 0.300000 0
5.300000 0.300000 0
5.400000 0.300000 0
5.500000 0.300000 0
5.600000 0.300000 0
5.700000 0.300000 0
5.800000 0.300000 0
5.900000 0.300000 0
6.000000 0.300000 0
6.100000 0.300000 0
6.200000 0.300000 0
6.300000 0.300000 0
6.400000 0.300000 0
6.500000 0.300000 0
6.600000 0.300000 0
6.700000 0.300000 0
6.800000 0.300000 0
6.900000 0.300000 0
7.000000 0.300000 0
7.100000 0.300000 0
7.200000 0.300000 0
7.300000 0.300000 0
7.400000 0.300000 0
7.500000 0.300000 0
7.600000 0.300000 0
7.700000 0.300000 0
7.800000 0.300000 0
7.900000 0.300000 0
8.000000 0.300000 0
8.100000 0.300000 0
8.200000 0.300000 0
8.300000 0.300000 0
8.400000 0.300000 0
8.500000 0.300000 0
8.600000 0.300000 0
8.700000 0.300000 0
8.800000 0.300000 0
8.900000 0.300000 0
9.000000 0.300000 0
9.100000 0.300000 0
9.200000 0.300000 0
9.300000 0.300000 0
9.400000 0.300000 0
9.500000 0.300000 0
9.600000 0.300000 0
9.700000 0.300000 0
9.800000 0.300000 0
0.000000 0.400000 0
0.100000 0.400000 0
0.200000 0.400000 0
0.300000 0.400000 0
0.400000 0.400000 0
0.500000 0.400000 0
0.600000 0.400000 0
0.700000 0.400000 0
0.800000 0.400000 0
0.900000 0.400000 0
1.000000 0.400000 0
1.100000 0.400000 0
1.200000 0.400000 0
1.300000 0.400000 0
1.400000 0.400000 0
1.500000 0.400000 0
1.600000 0.400000 0
1.700000 0.400000 0
1.800000 0.400000 0
1.900000 0.400000 0
2.000000 0.400000 0
2.100000 0.400000 0
2.200000 0.400000 0
2.300000 0.400000 0
2.400000 0.400000 0
2.500000 0.400000 0
2.600000 0.400000 0
2.700000 0.400000 0
2.800000 0.400000 0
2.900000 0.400000 0
3.000000 0.400000 0
3.100000 0.400000 0
3.200000 0.400000 0
3.300000 0.400000 0
3.400000 0.400000 0
3.500000 0.400000 0
3.600000 0.400000 0
3.700000 0.400000 0
3.800000 0.400000 0
3.900000 0.400000 0
4.000000 0.400000 0
4.100000 0.400000 0
4.200000 0.400000 0
4.300000 0.400000 0
4.400000 0.400000 0
4.500000 0.400000 0
4.600000 0.400000 0
4.700000 0.400000 0
4.800000 0.400000 0
4.900000 0.400000 0
5.000000 0.400000 0
5.100000 0.400000 0
5.200000 0.400000 0
5.300000 0.400000 0
5.400000 0.400000 0
5.500000 0.400000 0
5.600000 0.400000 0
5.700000 0.400000 0
5.800000 0.400000 0
5.900000 0.400000 0
6.000000 0.400000 0
6.100000 0.400000 0
6.200000 0.400000 0
6.300000 0.400000 0
6.400000 0.400000 0
6.500000 0.400000 0
6.600000 0.400000 0
6.700000 0.400000 0
6.800000 0.400000 0
6.900000 0.400000 0
7.000000 0.400000 0
7.100000 0.400000 0
7.200000 0.400000 0
7.300000 0.400000 0
7.400000 0.400000 0
7.500000 0.400000 0
7.600000 0.400000 0
7.700000 0.400000 0
7.800000 0.400000 0
7.900000 0.400000 0
8.000000 0.400000 0
8.100000 0.400000 0
8.200000 0.400000 0
8.300000 0.400000 0
8.400000 0.400000 0
8.500000 0.400000 0
8.600000 0.400000 0
8.700000 0.400000 0
8.800000 0.400000 0
8.900000 0.400000 0
9.000000 0.400000 0
9.100000 0.400000 0
9.200000 0.400000 0
9.300000 0.400000 0
9.400000 0.400000 0
[...]
POINT_DATA 1881 

VECTORS velocity float
0.500000 0.000000 0
0.502248 0.000000 0
0.507197 0.000000 0
0.515226 0.000000 0
0.526700 0.000000 0
0.541883 0.000000 0
0.560689 0.000000 0
0.582415 0.000000 0
0.605492 0.000000 0
0.627431 0.000000 0
0.646134 0.000000 0
0.660520 0.000000 0
0.670390 0.000000 0
0.676110 0.000000 0
0.678374 0.000000 0
0.678064 0.000000 0
0.676150 0.000000 0
0.673598 0.000000 0
0.671299 0.000000 0
0.669924 0.000000 0
0.669813 0.000000 0
0.670781 0.000000 0
0.672096 0.000000 0
0.672709 0.000000 0
0.671575 0.000000 0
0.667954 0.000000 0
0.661499 0.000000 0
0.652239 0.000000 0
0.640484 0.000000 0
0.626730 0.000000 0
0.611582 0.000000 0
0.595712 0.000000 0
0.579824 0.000000 0
0.564637 0.000000 0
0.550871 0.000000 0
0.539254 0.000000 0
0.530550 0.000000 0
0.525617 0.000000 0
0.525337 0.000000 0
0.530221 0.000000 0
0.540254 0.000000 0
0.554774 0.000000 0
0.572396 0.000000 0
0.591080 0.000000 0
0.608381 0.000000 0
0.621901 0.000000 0
0.629899 0.000000 0
0.631782 0.000000 0
0.627851 0.000000 0
0.618781 0.000000 0
0.605516 0.000000 0
0.589152 0.000000 0
0.570825 0.000000 0
0.551633 0.000000 0
0.532598 0.000000 0
0.514662 0.000000 0
0.498712 0.000000 0
0.485608 0.000000 0
0.476164 0.000000 0
0.471075 0.000000 0
0.470688 0.000000 0
0.474700 0.000000 0
0.482541 0.000000 0
0.493626 0.000000 0
0.507393 0.000000 0
0.523278 0.000000 0
0.540616 0.000000 0
0.558506 0.000000 0
0.575693 0.000000 0
0.590585 0.000000 0
0.601476 0.000000 0
0.607025 0.000000 0
0.606718 0.000000 0
0.600690 0.000000 0
0.589382 0.000000 0
0.573574 0.000000 0
0.554387 0.000000 0
0.533259 0.000000 0
0.511874 0.000000 0
0.492031 0.000000 0
0.475427 0.000000 0
0.463380 0.000000 0
0.456584 0.000000 0
0.454953 0.000000 0
0.457533 0.000000 0
0.463112 0.000000 0
0.470756 0.000000 0
0.479847 0.000000 0
0.490022 0.000000 0
0.501065 0.000000 0
0.512773 0.000000 0
0.524836 0.000000 0
0.536719 0.000000 0
0.547619 0.000000 0
0.556502 0.000000 0
0.562266 0.000000 0
0.564000 0.000000 0
0.561069 0.000000 0
0.552315 0.000000 0
1.000000 -0.002244 0
1.005062 -0.007187 0
1.015604 -0.012968 0
1.032302 -0.019501 0
1.055977 -0.026654 0
1.087341 -0.033986 0
1.126526 -0.040539 0
1.172361 -0.044814 0
1.221757 -0.045032 0
1.268441 -0.040662 0
1.307627 -0.033111 0
1.337327 -0.024279 0
1.357486 -0.015614 0
1.369077 -0.008010 0
1.373629 -0.001981 0
1.372978 0.002201 0
1.369120 0.004446 0
1.364088 0.004843 0
1.359760 0.003677 0
1.357627 0.001492 0
1.358486 -0.000845 0
1.362010 -0.002272 0
1.366575 -0.001922 0
1.369708 0.000518 0
1.369054 0.004748 0
1.363049 0.010074 0
1.351039 0.015712 0
1.333175 0.021010 0
1.310165 0.025502 0
1.283067 0.028894 0
1.253144 0.031007 0
1.221765 0.031745 0
1.190360 0.031060 0
1.160376 0.028936 0
1.133253 0.025365 0
1.110406 0.020302 0
1.093236 0.013617 0
1.083137 0.005194 0
1.081448 -0.004623 0
1.089274 -0.014934 0
1.107015 -0.024566 0
1.133888 -0.032150 0
1.167722 -0.036309 0
1.205055 -0.035985 0
1.241424 -0.030818 0
1.271948 -0.021513 0
1.292349 -0.009877 0
1.300182 0.002050 0
1.295505 0.013000 0
1.279842 0.022331 0
1.255273 0.029623 0
1.224148 0.034684 0
1.188852 0.037511 0
1.151661 0.038218 0
1.114667 0.036963 0
1.079769 0.033876 0
1.048672 0.029044 0
1.022861 0.022538 0
1.003498 0.014523 0
0.991281 0.005466 0
0.986392 -0.003635 0
0.988625 -0.011864 0
0.997479 -0.018936 0
1.012361 -0.024861 0
1.032667 -0.029660 0
1.057777 -0.033229 0
1.086923 -0.035232 0
1.118898 -0.035079 0
1.151785 -0.032079 0
1.182866 -0.025781 0
1.208833 -0.016438 0
1.226314 -0.005240 0
1.232733 0.006337 0
1.227436 0.017337 0
1.211344 0.027115 0
1.186090 0.034992 0
1.153932 0.040310 0
1.117631 0.042509 0
1.080271 0.041223 0
1.044971 0.036442 0
1.014497 0.028648 0
0.990815 0.018841 0
0.974795 0.008425 0
0.966227 -0.000950 0
0.964223 -0.008160 0
0.967532 -0.013223 0
0.974940 -0.016735 0
0.985576 -0.019267 0
0.998953 -0.021218 0
1.014852 -0.022751 0
1.033115 -0.023771 0
1.053383 -0.023946 0
1.074876 -0.022783 0
1.096275 -0.019782 0
1.115742 -0.014647 0
1.131067 -0.007499 0
1.139928 0.001198 0
1.140388 0.011685 0
1.130862 0.018870 0
1.000000 -0.005054 0
1.005225 -0.015589 0
1.015780 -0.027232 0
1.032392 -0.040372 0
1.056218 -0.055037 0
1.088628 -0.070554 0
1.130788 -0.085035 0
1.182468 -0.095249 0
1.241518 -0.096102 0
1.295638 -0.085896 0
1.338309 -0.068913 0
1.368722 -0.049888 0
1.388133 -0.031781 0
1.398241 -0.016176 0
1.400941 -0.003931 0
1.398257 0.004484 0
1.392347 0.008877 0
1.385497 0.009361 0
1.379910 0.006471 0
1.377484 0.001287 0
1.379527 -0.004372 0
1.385992 -0.008081 0
1.394775 -0.007702 0
1.402252 -0.002492 0
1.405035 0.006654 0
1.401309 0.018013 0
1.390603 0.029868 0
1.373366 0.040867 0
1.350585 0.050097 0
1.323501 0.057007 0
1.293469 0.061287 0
1.261896 0.062765 0
1.230210 0.061367 0
1.199826 0.057084 0
1.172108 0.049947 0
1.148316 0.039993 0
1.129585 0.027245 0
1.116907 0.011764 0
1.111229 -0.006158 0
1.113725 -0.025584 0
1.125253 -0.044626 0
1.145759 -0.060713 0
1.174254 -0.071167 0
1.208892 -0.073698 0
1.246706 -0.066886 0
1.283342 -0.050919 0
1.313377 -0.028232 0
1.331649 -0.003158 0
1.335750 0.020334 0
1.327142 0.040224 0
1.308264 0.055686 0
1.281761 0.066411 0
1.250228 0.072476 0
1.216059 0.074174 0
1.181387 0.071880 0
1.148044 0.065983 0
1.117525 0.056896 0
1.090925 0.045162 0
1.068850 0.031568 0
1.051400 0.017093 0
1.038370 0.002643 0
1.029725 -0.011100 0
1.025526 -0.023749 0
1.025989 -0.035199 0
1.031494 -0.045424 0
1.042599 -0.054261 0
1.059795 -0.061123 0
1.083016 -0.064862 0
1.111251 -0.063966 0
1.142469 -0.057045 0
1.173728 -0.043446 0
1.201352 -0.023898 0
1.221358 -0.001121 0
1.230787 0.021387 0
1.229496 0.041342 0
1.218807 0.057407 0
1.200631 0.068453 0
1.177236 0.073655 0
1.150992 0.072655 0
1.124097 0.065769 0
1.098339 0.054152 0
1.074933 0.039698 0
1.054517 0.024586 0
1.037332 0.010572 0
1.023609 -0.001305 0
1.013418 -0.010718 0
1.006596 -0.018044 0
1.003109 -0.024013 0
1.003202 -0.029277 0
1.007287 -0.034162 0
1.015745 -0.038530 0
1.028616 -0.041761 0
1.045402 -0.042892 0
1.065039 -0.040866 0
1.085992 -0.034792 0
1.106335 -0.024186 0
1.123843 -0.009322 0
1.136348 0.009066 0
1.142563 0.021699 0
1.000000 -0.007461 0
1.004242 -0.022960 0
1.013084 -0.040141 0
1.027509 -0.059942 0
1.049220 -0.082897 0
1.080752 -0.108570 0
1.125341 -0.134391 0
1.185266 -0.155558 0
1.263987 -0.158214 0
1.328808 -0.137465 0
1.372806 -0.106205 0
1.400293 -0.074115 0
1.415485 -0.045147 0
1.420923 -0.020828 0
1.418727 -0.002003 0
1.410772 0.010798 0
1.399391 0.017220 0
1.387301 0.017294 0
1.377254 0.011700 0
1.371683 0.001883 0
1.372741 -0.009357 0
1.381508 -0.017532 0
1.395618 -0.018199 0
1.409603 -0.009748 0
1.417468 0.005693 0
1.416442 0.024502 0
1.406600 0.043650 0
1.389090 0.061021 0
1.365445 0.075359 0
1.337200 0.085999 0
1.305813 0.092602 0
1.272699 0.094994 0
1.239255 0.093119 0
1.206841 0.087028 0
1.176711 0.076866 0
1.149933 0.062816 0
1.127354 0.045017 0
1.109589 0.023542 0
1.097010 -0.001444 0
1.089909 -0.028956 0
1.089230 -0.056596 0
1.095884 -0.081145 0
1.110907 -0.099436 0
1.135213 -0.108432 0
1.168336 -0.105265 0
1.207474 -0.088185 0
1.247329 -0.058189 0
1.280824 -0.020331 0
1.301145 0.017499 0
1.306305 0.049811 0
1.298864 0.074999 0
1.281708 0.092715 0
1.257603 0.103207 0
1.229060 0.107054 0
1.198254 0.104973 0
1.166991 0.097733 0
1.136683 0.086158 0
1.108334 0.071209 0
1.082528 0.054042 0
1.059428 0.035941 0
1.038786 0.018035 0
1.020083 0.000975 0
1.003085 -0.015203 0
0.988519 -0.030830 0
0.978525 -0.046269 0
0.975613 -0.061528 0
0.981588 -0.075646 0
0.996784 -0.086532 0
1.020067 -0.091530 0
1.049302 -0.088257 0
1.081808 -0.075320 0
1.114606 -0.052872 0
1.144428 -0.023102 0
1.167519 0.009194 0
1.181178 0.039091 0
1.185619 0.063853 0
1.181947 0.081877 0
1.171643 0.092145 0
1.156290 0.094361 0
1.137366 0.089094 0
1.116147 0.077812 0
1.093726 0.062663 0
1.071051 0.046026 0
1.048894 0.029958 0
1.027736 0.015753 0
1.008003 0.003789 0
0.990302 -0.006426 0
0.975551 -0.015873 0
0.965076 -0.025396 0
0.960247 -0.035294 0
0.961852 -0.045101 0
0.969830 -0.053603 0
0.983362 -0.059206 0
1.001150 -0.060373 0
1.021691 -0.055943 0
1.043478 -0.045350 0
1.065128 -0.028816 0
1.085361 -0.007035 0
1.102821 0.008744 0
1.000000 -0.009292 0
1.002821 -0.028673 0
1.008880 -0.050504 0
1.019281 -0.076512 0
1.036179 -0.108291 0
1.063442 -0.146687 0
1.107528 -0.189559 0
1.176373 -0.233907 0
1.293297 -0.239655 0
1.364413 -0.194725 0
1.398304 -0.140409 0
1.414329 -0.092580 0
1.420617 -0.052423 0
1.418922 -0.019423 0
1.409759 0.006221 0
1.394059 0.023831 0
1.374253 0.032360 0
1.353680 0.031507 0
1.335843 0.022094 0
1.323688 0.005797 0
1.319542 -0.014206 0
1.326791 -0.030974 0
1.344801 -0.035805 0
1.367893 -0.024338 0
1.386249 -0.000187 0
1.392007 0.028874 0
1.385878 0.057215 0
1.370448 0.082013 0
1.348103 0.101978 0
1.320661 0.116631 0
1.289572 0.125778 0
1.256176 0.129314 0
1.221818 0.127215 0
1.187839 0.119619 0
1.155435 0.106846 0
1.125443 0.089343 0
1.098208 0.067581 0
1.073541 0.042103 0
1.050540 0.013523 0
1.027660 -0.017801 0
1.005016 -0.050597 0
0.987687 -0.082384 0
0.981950 -0.110491 0
0.991739 -0.131124 0
1.017260 -0.139147 0
1.055739 -0.129917 0
1.102329 -0.101590 0
1.150457 -0.056982 0
1.191963 -0.005151 0
1.218982 0.042501 0
1.230789 0.080276 0
1.230094 0.107667 0
1.219580 0.125120 0
1.201748 0.133518 0
1.178819 0.133944 0
1.152693 0.127548 0
1.124905 0.115547 0
1.096560 0.099312 0
1.068184 0.080468 0
1.039586 0.060830 0
1.010069 0.041983 0
0.979296 0.024598 0
0.948454 0.007814 0
0.920608 -0.010639 0
0.899865 -0.032517 0
0.889915 -0.057322 0
0.891966 -0.082292 0
0.904912 -0.103338 0
0.926579 -0.116482 0
0.954566 -0.118786 0
0.986546 -0.108751 0
1.020299 -0.086521 0
1.053617 -0.054039 0
1.084006 -0.015367 0
1.108014 0.023238 0
1.123825 0.056635 0
1.131616 0.082426 0
1.132052 0.099310 0
1.126012 0.106930 0
1.114412 0.105911 0
1.098133 0.097793 0
1.077996 0.084795 0
1.054762 0.069417 0
1.029191 0.053886 0
1.002220 0.039585 0
0.975246 0.026716 0
0.950257 0.014408 0
0.929494 0.001212 0
0.914874 -0.013973 0
0.907621 -0.030938 0
0.907966 -0.048114 0
0.915170 -0.063272 0
0.927963 -0.074213 0
0.944925 -0.079195 0
0.964703 -0.077120 0
0.986110 -0.067624 0
1.008168 -0.051205 0
1.030135 -0.028627 0
1.051170 -0.011534 0
1.000000 -0.010282 0
1.000871 -0.031845 0
1.002886 -0.056606 0
1.006871 -0.087248 0
1.014780 -0.127068 0
1.030981 -0.179929 0
1.064985 -0.247332 0
1.134418 -0.341336 0
1.310318 -0.346265 0
1.355444 -0.242483 0
1.349814 -0.156133 0
1.340386 -0.096440 0
1.333666 -0.049747 0
1.325287 -0.009971 0
1.308974 0.022868 0
1.284145 0.046315 0
1.253169 0.057608 0
1.220105 0.055709 0
1.189481 0.041692 0
1.165014 0.018175 0
1.148582 -0.012474 0
1.142967 -0.042802 0
1.154727 -0.059299 0
1.184321 -0.051196 0
1.222298 -0.018427 0
1.252053 0.024866 0
1.263947 0.065201 0
1.263031 0.098788 0
1.253180 0.125137 0
1.236356 0.144521 0
1.213790 0.157077 0
1.186671 0.162740 0
1.156383 0.161447 0
1.124423 0.153402 0
1.091946 0.139254 0
1.058823 0.120035 0
1.022907 0.096914 0
0.981172 0.071209 0
0.933132 0.044439 0
0.883384 0.016571 0
0.839823 -0.016618 0
0.810771 -0.058074 0
0.801558 -0.103484 0
0.811584 -0.143741 0
0.837856 -0.169269 0
0.877068 -0.173262 0
0.925811 -0.152915 0
0.980128 -0.109970 0
1.034868 -0.051030 0
1.082280 0.010980 0
1.115230 0.063881 0
1.134071 0.103918 0
1.140768 0.131549 0
1.137351 0.147810 0
1.125757 0.154023 0
1.107700 0.151642 0
1.084491 0.142286 0
1.056801 0.127924 0
1.024550 0.111011 0
0.987349 0.094051 0
0.945758 0.078321 0
0.902679 0.062588 0
0.863398 0.043483 0
0.833556 0.017759 0
0.816409 -0.015574 0
0.812177 -0.053627 0
0.818824 -0.090642 0
0.833761 -0.121144 0
0.854888 -0.141184 0
0.880668 -0.148225 0
0.909824 -0.141056 0
0.941070 -0.119947 0
0.973010 -0.086813 0
1.004091 -0.045206 0
1.032198 -0.000731 0
1.054286 0.040248 0
1.069328 0.073648 0
1.077177 0.097749 0
1.078018 0.111999 0
1.072177 0.116972 0
1.060014 0.114228 0
1.041918 0.106032 0
1.018438 0.094829 0
0.990586 0.082499 0
0.960198 0.069698 0
0.930031 0.055751 0
0.903329 0.039324 0
0.882943 0.019510 0
0.870402 -0.003523 0
0.865719 -0.028386 0
0.867981 -0.052650 0
0.875884 -0.073600 0
0.888148 -0.088961 0
0.903676 -0.097113 0
0.921538 -0.097129 0
0.940931 -0.088815 0
0.961135 -0.072841 0
0.981506 -0.050037 0
1.001252 -0.032422 0
1.000000 -0.010167 0
0.998529 -0.031566 0
0.995490 -0.056510 0
0.990837 -0.088414 0
0.985028 -0.132411 0
0.980241 -0.196902 0
0.984008 -0.293007 0
1.018707 -0.479251 0
1.214676 -0.460691 0
1.166094 -0.234231 0
1.080294 -0.125363 0
1.037045 -0.076442 0
1.021264 -0.037327 0
1.013643 0.005273 0
0.995402 0.047373 0
0.963516 0.079644 0
0.918584 0.096405 0
0.863754 0.095195 0
0.804872 0.077179 0
0.752046 0.046686 0
0.718007 0.007828 0
0.711279 -0.037122 0
0.734879 -0.077158 0
0.785249 -0.091914 0
0.855080 -0.067926 0
0.931032 -0.012783 0
0.993380 0.046228 0
1.032372 0.092771 0
1.054311 0.128643 0
1.063247 0.156012 0
1.060820 0.175454 0
1.048330 0.186712 0
1.026918 0.189456 0
0.997166 0.184048 0
0.958589 0.172438 0
0.909882 0.158375 0
0.850790 0.145231 0
0.784873 0.131878 0
0.720887 0.111312 0
0.670672 0.075512 0
0.643183 0.022021 0
0.638175 -0.044115 0
0.649135 -0.111303 0
0.670385 -0.167424 0
0.699449 -0.204638 0
0.736023 -0.217882 0
0.780122 -0.204656 0
0.830729 -0.166043 0
0.885353 -0.107309 0
0.939914 -0.037867 0
0.986638 0.028480 0
1.020382 0.082124 0
1.041592 0.121835 0
1.051258 0.148525 0
1.050523 0.163589 0
1.040393 0.168808 0
1.021442 0.166441 0
0.993729 0.159248 0
0.957308 0.149916 0
0.913579 0.139618 0
0.866667 0.126650 0
0.823206 0.106957 0
0.789889 0.076937 0
0.770529 0.036351 0
0.764903 -0.011137 0
0.769428 -0.059735 0
0.780255 -0.103874 0
0.795050 -0.139402 0
0.812852 -0.163390 0
0.833468 -0.173724 0
0.856858 -0.169157 0
0.882686 -0.149712 0
0.910166 -0.117064 0
0.938140 -0.074557 0
0.965198 -0.026959 0
0.988973 0.019501 0
1.007253 0.059533 0
1.019154 0.090619 0
1.024215 0.111928 0
1.022194 0.123914 0
1.013008 0.128050 0
0.996852 0.126369 0
0.974502 0.120748 0
0.947672 0.112124 0
0.919101 0.100138 0
0.892128 0.083584 0
0.869827 0.061495 0
0.854188 0.034139 0
0.845814 0.003251 0
0.844038 -0.028517 0
0.847509 -0.058279 0
0.854932 -0.083440 0
0.865328 -0.102005 0
0.878028 -0.112585 0
0.892550 -0.114375 0
0.908462 -0.107221 0
0.925275 -0.091781 0
0.942388 -0.068744 0
0.958860 -0.050679 0
1.000000 -0.008818 0
0.996213 -0.027344 0
0.988033 -0.048921 0
0.974121 -0.076795 0
0.952185 -0.116483 0
0.918589 -0.178921 0
0.867819 -0.285809 0
0.796342 -0.572014 0
0.558920 -0.395043 0
0.500884 0.000000 0
0.432794 -0.017602 0
0.376727 -0.037416 0
0.392783 -0.026343 0
0.432395 0.015899 0
0.446297 0.073003 0
0.426382 0.123138 0
0.382157 0.157371 0
0.322965 0.169417 0
0.262476 0.153389 0
0.219503 0.105028 0
0.212859 0.028287 0
0.244824 -0.059674 0
0.299573 -0.133272 0
0.370619 -0.171403 0
0.456380 -0.164218 0
0.555433 -0.113444 0
0.657394 -0.036148 0
0.742245 0.037849 0
0.800835 0.094253 0
0.838116 0.138003 0
0.857098 0.171985 0
0.859038 0.196633 0
0.844349 0.212603 0
0.812811 0.221724 0
0.764631 0.226532 0
0.702951 0.227831 0
0.636481 0.221922 0
0.578691 0.201113 0
0.541992 0.158643 0
0.531202 0.094280 0
0.542232 0.015883 0
0.564634 -0.064025 0
0.588394 -0.135695 0
0.610466 -0.194060 0
0.632154 -0.234915 0
0.656720 -0.253943 0
0.687491 -0.247624 0
0.726157 -0.215206 0
0.771919 -0.160222 0
0.821836 -0.090310 0
0.871166 -0.016592 0
0.912210 0.048959 0
0.941984 0.100668 0
0.960182 0.138873 0
0.966914 0.164882 0
0.962308 0.180718 0
0.946439 0.188944 0
0.919759 0.192053 0
0.884150 0.191157 0
0.843966 0.184690 0
0.805733 0.168692 0
0.775927 0.139365 0
0.758237 0.096161 0
0.752540 0.042746 0
0.756062 -0.014471 0
0.764899 -0.068977 0
0.775913 -0.116263 0
0.787525 -0.153741 0
0.799500 -0.179604 0
0.812513 -0.192234 0
0.827576 -0.190278 0
0.845399 -0.173259 0
0.865949 -0.142271 0
0.888421 -0.100241 0
0.911500 -0.051567 0
0.933498 -0.001810 0
0.951865 0.043466 0
0.965046 0.080784 0
0.972072 0.108957 0
0.972324 0.128177 0
0.965551 0.139569 0
0.952101 0.144537 0
0.933212 0.144008 0
0.911132 0.137899 0
0.888803 0.125240 0
0.869119 0.105024 0
0.854147 0.077263 0
0.844739 0.043522 0
0.840695 0.006626 0
0.841168 -0.030082 0
0.844961 -0.063544 0
0.851036 -0.091419 0
0.858708 -0.112058 0
0.867643 -0.124336 0
0.877745 -0.127563 0
0.888981 -0.121541 0
0.901190 -0.106768 0
0.913948 -0.083621 0
0.926343 -0.065202 0
1.000000 -0.006388 0
0.994506 -0.019611 0
0.982524 -0.034427 0
0.961673 -0.052577 0
0.927324 -0.076891 0
0.870432 -0.112549 0
0.771547 -0.170772 0
0.588442 -0.268981 0
0.000000 -0.165240 0
0.000000 0.000000 0
0.000000 0.000000 0
-0.025884 -0.044713 0
-0.044017 -0.092991 0
-0.032165 -0.048233 0
-0.021405 0.053392 0
-0.025961 0.143788 0
-0.047156 0.199820 0
-0.073373 0.214869 0
-0.087432 0.180630 0
-0.070304 0.096292 0
-0.018950 -0.017494 0
0.041309 -0.123837 0
0.099203 -0.202960 0
0.157210 -0.248728 0
0.222234 -0.252748 0
0.299733 -0.213806 0
0.390056 -0.140594 0
0.483674 -0.050679 0
0.561329 0.032764 0
0.614907 0.099740 0
0.646710 0.154524 0
0.657901 0.199453 0
0.649064 0.235676 0
0.621941 0.263759 0
0.581591 0.282294 0
0.537756 0.286524 0
0.503165 0.269491 0
0.488348 0.226369 0
0.496486 0.158804 0
0.522574 0.075276 0
0.556479 -0.011408 0
0.587109 -0.090277 0
0.610085 -0.157137 0
0.624770 -0.211190 0
0.633248 -0.250900 0
0.639896 -0.273224 0
0.650307 -0.274097 0
0.669268 -0.250477 0
0.698653 -0.202993 0
0.736742 -0.137118 0
0.779307 -0.061899 0
0.820043 0.011300 0
0.852338 0.073857 0
0.874180 0.123589 0
0.884736 0.161457 0
0.883675 0.189277 0
0.871351 0.208986 0
0.849499 0.221532 0
0.821947 0.225704 0
0.794426 0.218032 0
0.772868 0.194688 0
0.761041 0.154452 0
0.759340 0.100325 0
0.765523 0.038528 0
0.776254 -0.023494 0
0.788034 -0.079584 0
0.798566 -0.126500 0
0.806718 -0.162990 0
0.812498 -0.188381 0
0.816999 -0.201805 0
0.822059 -0.202046 0
0.829558 -0.188088 0
0.840620 -0.160090 0
0.855186 -0.120112 0
0.872157 -0.072039 0
0.889866 -0.020866 0
0.906022 0.027984 0
0.918523 0.070409 0
0.926070 0.104649 0
0.927889 0.130433 0
0.923797 0.148270 0
0.914399 0.158706 0
0.901213 0.161715 0
0.886494 0.156532 0
0.872681 0.142150 0
0.861712 0.118238 0
0.854573 0.085874 0
0.851318 0.047590 0
0.851402 0.006821 0
0.853977 -0.032784 0
0.858045 -0.068147 0
0.862768 -0.097187 0
0.867624 -0.118613 0
0.872474 -0.131622 0
0.877524 -0.135714 0
0.883163 -0.130666 0
0.889701 -0.116747 0
0.897130 -0.093897 0
0.904874 -0.075434 0
1.000000 -0.003334 0
0.993868 -0.009882 0
0.980568 -0.016099 0
0.957628 -0.021608 0
0.920338 -0.025255 0
0.859867 -0.023156 0
0.759534 -0.003830 0
0.585768 0.096304 0
0.271020 0.090176 0
0.000000 0.000000 0
0.000000 0.000000 0
0.000000 0.000000 0
-0.043033 -0.018378 0
-0.119491 -0.006707 0
-0.152087 0.066804 0
-0.158264 0.148890 0
-0.155497 0.204780 0
-0.139535 0.209684 0
-0.095065 0.150309 0
-0.022288 0.036541 0
0.045667 -0.083328 0
0.094085 -0.177832 0
0.127242 -0.249181 0
0.149921 -0.294442 0
0.171701 -0.306750 0
0.203260 -0.281274 0
0.250850 -0.220098 0
0.312831 -0.133433 0
0.379886 -0.036988 0
0.435760 0.052613 0
0.474070 0.128983 0
0.494733 0.194272 0
0.498916 0.248556 0
0.490693 0.289191 0
0.477932 0.310714 0
0.470936 0.306257 0
0.478644 0.271331 0
0.504562 0.207794 0
0.545589 0.124422 0
0.594085 0.034291 0
0.638197 -0.048651 0
0.671356 -0.117633 0
0.691932 -0.173360 0
0.699703 -0.217229 0
0.696078 -0.250048 0
0.684757 -0.271006 0
0.671921 -0.277002 0
0.664952 -0.263557 0
0.669620 -0.227700 0
0.687469 -0.170970 0
0.715498 -0.099899 0
0.748039 -0.024077 0
0.777590 0.046525 0
0.799515 0.106469 0
0.812049 0.155381 0
0.814782 0.194097 0
0.808720 0.223117 0
0.796651 0.241453 0
0.783026 0.246226 0
0.772815 0.233768 0
0.769641 0.202076 0
0.774484 0.152892 0
0.785905 0.091680 0
0.801279 0.025834 0
0.817431 -0.036980 0
0.831547 -0.091289 0
0.841899 -0.134948 0
0.847478 -0.167675 0
0.848130 -0.189889 0
0.844815 -0.201798 0
0.839656 -0.202839 0
0.835466 -0.191823 0
0.834768 -0.167902 0
0.838834 -0.131781 0
0.847341 -0.086250 0
0.858772 -0.035677 0
0.871013 0.014807 0
0.881691 0.060734 0
0.889233 0.099588 0
0.892782 0.130448 0
0.892231 0.153057 0
0.888282 0.167118 0
0.882355 0.171911 0