# vtk DataFile Version 2.0
generated by CFD-lab course output (written by Tobias Neckel) 
ASCII

DATASET STRUCTURED_GRID
DIMENSIONS  99 19 1 
POINTS 1881 float

0.000000 0.000000 0
0.100000 0.000000 0
0.200000 0.000000 0
0.300000 0.000000 0
0.400000 0.000000 0
0.500000 0.000000 0
0.600000 0.000000 0
0.700000 0.000000 0
0.800000 0.000000 0
0.900000 0.000000 0
1.000000 0.000000 0
1.100000 0.000000 0
1.200000 0.000000 0
1.300000 0.000000 0
1.400000 0.000000 0
1.500000 0.000000 0
1.600000 0.000000 0
1.700000 0.000000 0
1.800000 0.000000 0
1.900000 0.000000 0
2.000000 0.000000 0
2.100000 0.000000 0
2.200000 0.000000 0
2.300000 0.000000 0
2.400000 0.000000 0
2.500000 0.000000 0
2.600000 0.000000 0
2.700000 0.000000 0
2.800000 0.000000 0
2.900000 0.000000 0
3.000000 0.000000 0
3.100000 0.000000 0
3.200000 0.000000 0
3.300000 0.000000 0
3.400000 0.000000 0
3.500000 0.000000 0
3.600000 0.000000 0
3.700000 0.000000 0
3.800000 0.000000 0
3.900000 0.000000 0
4.000000 0.000000 0
4.100000 0.000000 0
4.200000 0.000000 0
4.300000 0.000000 0
4.400000 0.000000 0
4.500000 0.000000 0
4.600000 0.000000 0
4.700000 0.000000 0
4.800000 0.000000 0
4.900000 0.000000 0
5.000000 0.000000 0
5.100000 0.000000 0
5.200000 0.000000 0
5.300000 0.000000 0
5.400000 0.000000 0
5.500000 0.000000 0
5.600000 0.000000 0
5.700000 0.000000 0
5.800000 0.000000 0
5.900000 0.000000 0
6.000000 0.000000 0
6.100000 0.000000 0
6.200000 0.000000 0
6.300000 0.000000 0
6.400000 0.000000 0
6.500000 0.000000 0
6.600000 0.000000 0
6.700000 0.000000 0
6.800000 0.000000 0
6.900000 0.000000 0
7.000000 0.000000 0
7.100000 0.000000 0
7.200000 0.000000 0
7.300000 0.000000 0
7.400000 0.000000 0
7.500000 0.000000 0
7.600000 0.000000 0
7.700000 0.000000 0
7.800000 0.000000 0
7.900000 0.000000 0
8.000000 0.000000 0
8.100000 0.000000 0
8.200000 0.000000 0
8.300000 0.000000 0
8.400000 0.000000 0
8.500000 0.000000 0
8.600000 0.000000 0
8.700000 0.000000 0
8.800000 0.000000 0
8.900000 0.000000 0
9.000000 0.000000 0
9.100000 0.000000 0
9.200000 0.000000 0
9.300000 0.000000 0
9.400000 0.000000 0
9.500000 0.000000 0
9.600000 0.000000 0
9.700000 0.000000 0
9.800000 0.000000 0
0.000000 0.100000 0
0.100000 0.100000 0
0.200000 0.100000 0
0.300000 0.100000 0
0.400000 0.100000 0
0.500000 0.100000 0
0.600000 0.100000 0
0.700000 0.100000 0
0.800000 0.100000 0
0.900000 0.100000 0
1.000000 0.100000 0
1.100000 0.100000 0
1.200000 0.100000 0
1.300000 0.100000 0
1.400000 0.100000 0
1.500000 0.100000 0
1.600000 0.100000 0
1.700000 0.100000 0
1.800000 0.100000 0
1.900000 0.100000 0
2.000000 0.100000 0
2.100000 0.100000 0
2.200000 0.100000 0
2.300000 0.100000 0
2.400000 0.100000 0
2.500000 0.100000 0
2.600000 0.100000 0
2.700000 0.100000 0
2.800000 0.100000 0
2.900000 0.100000 0
3.000000 0.100000 0
3.100000 0.100000 0
3.200000 0.100000 0
3.300000 0.100000 0
3.400000 0.100000 0
3.500000 0.100000 0
3.600000 0.100000 0
3.700000 0.100000 0
3.800000 0.100000 0
3.900000 0.100000 0
4.000000 0.100000 0
4.100000 0.100000 0
4.200000 0.100000 0
4.300000 0.100000 0
4.400000 0.100000 0
4.500000 0.100000 0
4.600000 0.100000 0
4.700000 0.100000 0
4.800000 0.100000 0
4.900000 0.100000 0
5.000000 0.100000 0
5.100000 0.100000 0
5.200000 0.100000 0
5.300000 0.100000 0
5.400000 0.100000 0
5.500000 0.100000 0
5.600000 0.100000 0
5.700000 0.100000 0
5.800000 0.100000 0
5.900000 0.100000 0
6.000000 0.100000 0
6.100000 0.100000 0
6.200000 0.100000 0
6.300000 0.100000 0
6.400000 0.100000 0
6.500000 0.100000 0
6.600000 0.100000 0
6.700000 0.100000 0
6.800000 0.100000 0
6.900000 0.100000 0
7.000000 0.100000 0
7.100000 0.100000 0
7.200000 0.100000 0
7.300000 0.100000 0
7.400000 0.100000 0
7.500000 0.100000 0
7.600000 0.100000 0
7.700000 0.100000 0
7.800000 0.100000 0
7.900000 0.100000 0
8.000000 0.100000 0
8.100000 0.100000 0
8.200000 0.100000 0
8.300000 0.100000 0
8.400000 0.100000 0
8.500000 0.100000 0
8.600000 0.100000 0
8.700000 0.100000 0
8.800000 0.100000 0
8.900000 0.100000 0
9.000000 0.100000 0
9.100000 0.100000 0
9.200000 0.100000 0
9.300000 0.100000 0
9.400000 0.100000 0
9.500000 0.100000 0
9.600000 0.100000 0
9.700000 0.100000 0
9.800000 0.100000 0
0.000000 0.200000 0
0.100000 0.200000 0
0.200000 0.200000 0
0.300000 0.200000 0
0.400000 0.200000 0
0.500000 0.200000 0
0.600000 0.200000 0
0.700000 0.200000 0
0.800000 0.200000 0
0.900000 0.200000 0
1.000000 0.200000 0
1.100000 0.200000 0
1.200000 0.200000 0
1.300000 0.200000 0
1.400000 0.200000 0
1.500000 0.200000 0
1.600000 0.200000 0
1.700000 0.200000 0
1.800000 0.200000 0
1.900000 0.200000 0
2.000000 0.200000 0
2.100000 0.200000 0
2.200000 0.200000 0
2.300000 0.200000 0
2.400000 0.200000 0
2.500000 0.200000 0
2.600000 0.200000 0
2.700000 0.200000 0
2.800000 0.200000 0
2.900000 0.200000 0
3.000000 0.200000 0
3.100000 0.200000 0
3.200000 0.200000 0
3.300000 0.200000 0
3.400000 0.200000 0
3.500000 0.200000 0
3.600000 0.200000 0
3.700000 0.200000 0
3.800000 0.200000 0
3.900000 0.200000 0
4.000000 0.200000 0
4.100000 0.200000 0
4.200000 0.200000 0
4.300000 0.200000 0
4.400000 0.200000 0
4.500000 0.200000 0
4.600000 0.200000 0
4.700000 0.200000 0
4.800000 0.200000 0
4.900000 0.200000 0
5.000000 0.200000 0
5.100000 0.200000 0
5.200000 0.200000 0
5.300000 0.200000 0
5.400000 0.200000 0
5.500000 0.200000 0
5.600000 0.200000 0
5.700000 0.200000 0
5.800000 0.200000 0
5.900000 0.200000 0
6.000000 0.200000 0
6.100000 0.200000 0
6.200000 0.200000 0
6.300000 0.200000 0
6.400000 0.200000 0
6.500000 0.200000 0
6.600000 0.200000 0
6.700000 0.200000 0
6.800000 0.200000 0
6.900000 0.200000 0
7.000000 0.200000 0
7.100000 0.200000 0
7.200000 0.200000 0
7.300000 0.200000 0
7.400000 0.200000 0
7.500000 0.200000 0
7.600000 0.200000 0
7.700000 0.200000 0
7.800000 0.200000 0
7.900000 0.200000 0
8.000000 0.200000 0
8.100000 0.200000 0
8.200000 0.200000 0
8.300000 0.200000 0
8.400000 0.200000 0
8.500000 0.200000 0
8.600000 0.200000 0
8.700000 0.200000 0
8.800000 0.200000 0
8.900000 0.200000 0
9.000000 0.200000 0
9.100000 0.200000 0
9.200000 0.200000 0
9.300000 0.200000 0
9.400000 0.200000 0
9.500000 0.200000 0
9.600000 0.200000 0
9.700000 0.200000 0
9.800000 0.200000 0
0.000000 0.300000 0
0.100000 0.300000 0
0.200000 0.300000 0
0.300000 0.300000 0
0.400000 0.300000 0
0.500000 0.300000 0
0.600000 0.300000 0
0.700000 0.300000 0
0.800000 0.300000 0
0.900000 0.300000 0
1.000000 0.300000 0
1.100000 0.300000 0
1.200000 0.300000 0
1.300000 0.300000 0
1.400000 0.300000 0
1.500000 0.300000 0
1.600000 0.300000 0
1.700000 0.300000 0
1.800000 0.300000 0
1.900000 0.300000 0
2.000000 0.300000 0
2.100000 0.300000 0
2.200000 0.300000 0
2.300000 0.300000 0
2.400000 0.300000 0
2.500000 0.300000 0
2.600000 0.300000 0
2.700000 0.300000 0
2.800000 0.300000 0
2.900000 0.300000 0
3.000000 0.300000 0
3.100000 0.300000 0
3.200000 0.300000 0
3.300000 0.300000 0
3.400000 0.300000 0
3.500000 0.300000 0
3.600000 0.300000 0
3.700000 0.300000 0
3.800000 0.300000 0
3.900000 0.300000 0
4.000000 0.300000 0
4.100000 0.300000 0
4.200000 0.300000 0
4.300000 0.300000 0
4.400000 0.300000 0
4.500000 0.300000 0
4.600000 0.300000 0
4.700000 0.300000 0
4.800000 0.300000 0
4.900000 0.300000 0
5.000000 0.300000 0
5.100000 0.300000 0
5.200000 0.300000 0
5.300000 0.300000 0
5.400000 0.300000 0
5.500000 0.300000 0
5.600000 0.300000 0
5.700000 0.300000 0
5.800000 0.300000 0
5.900000 0.300000 0
6.000000 0.300000 0
6.100000 0.300000 0
6.200000 0.300000 0
6.300000 0.300000 0
6.400000 0.300000 0
6.500000 0.300000 0
6.600000 0.300000 0
6.700000 0.300000 0
6.800000 0.300000 0
6.900000 0.300000 0
7.000000 0.300000 0
7.100000 0.300000 0
7.200000 0.300000 0
7.300000 0.300000 0
7.400000 0.300000 0
7.500000 0.300000 0
7.600000 0.300000 0
7.700000 0.300000 0
7.800000 0.300000 0
7.900000 0.300000 0
8.000000 0.300000 0
8.100000 0.300000 0
8.200000 0.300000 0
8.300000 0.300000 0
8.400000 0.300000 0
8.500000 0.300000 0
8.600000 0.300000 0
8.700000 0.300000 0
8.800000 0.300000 0
8.900000 0.300000 0
9.000000 0.300000 0
9.100000 0.300000 0
9.200000 0.300000 0
9.300000 0.300000 0
9.400000 0.300000 0
9.500000 0.300000 0
9.600000 0.300000 0
9.700000 0.300000 0
9.800000 0.300000 0
0.000000 0.400000 0
0.100000 0.400000 0
0.200000 0.400000 0
0.300000 0.400000 0
0.400000 0.400000 0
0.500000 0.400000 0
0.600000 0.400000 0
0.700000 0.400000 0
0.800000 0.400000 0
0.900000 0.400000 0
1.000000 0.400000 0
1.100000 0.400000 0
1.200000 0.400000 0
1.300000 0.400000 0
1.400000 0.400000 0
1.500000 0.400000 0
1.600000 0.400000 0
1.700000 0.400000 0
1.800000 0.400000 0
1.900000 0.400000 0
2.000000 0.400000 0
2.100000 0.400000 0
2.200000 0.400000 0
2.300000 0.400000 0
2.400000 0.400000 0
2.500000 0.400000 0
2.600000 0.400000 0
2.700000 0.400000 0
2.800000 0.400000 0
2.900000 0.400000 0
3.000000 0.400000 0
3.100000 0.400000 0
3.200000 0.400000 0
3.300000 0.400000 0
3.400000 0.400000 0
3.500000 0.400000 0
3.600000 0.400000 0
3.700000 0.400000 0
3.800000 0.400000 0
3.900000 0.400000 0
4.000000 0.400000 0
4.100000 0.400000 0
4.200000 0.400000 0
4.300000 0.400000 0
4.400000 0.400000 0
4.500000 0.400000 0
4.600000 0.400000 0
4.700000 0.400000 0
4.800000 0.400000 0
4.900000 0.400000 0
5.000000 0.400000 0
5.100000 0.400000 0
5.200000 0.400000 0
5.300000 0.400000 0
5.400000 0.400000 0
5.500000 0.400000 0
5.600000 0.400000 0
5.700000 0.400000 0
5.800000 0.400000 0
5.900000 0.400000 0
6.000000 0.400000 0
6.100000 0.400000 0
6.200000 0.400000 0
6.300000 0.400000 0
6.400000 0.400000 0
6.500000 0.400000 0
6.600000 0.400000 0
6.700000 0.400000 0
6.800000 0.400000 0
6.900000 0.400000 0
7.000000 0.400000 0
7.100000 0.400000 0
7.200000 0.400000 0
7.300000 0.400000 0
7.400000 0.400000 0
7.500000 0.400000 0
7.600000 0.400000 0
7.700000 0.400000 0
7.800000 0.400000 0
7.900000 0.400000 0
8.000000 0.400000 0
8.100000 0.400000 0
8.200000 0.400000 0
8.300000 0.400000 0
8.400000 0.400000 0
8.500000 0.400000 0
8.600000 0.400000 0
8.700000 0.400000 0
8.800000 0.400000 0
8.900000 0.400000 0
9.000000 0.400000 0
9.100000 0.400000 0
9.200000 0.400000 0
9.300000 0.400000 0
9.400000 0.400000 0
[...]
POINT_DATA 1881 

VECTORS velocity float
0.500000 0.000000 0
0.502083 0.000000 0
0.506704 0.000000 0
0.514279 0.000000 0
0.525221 0.000000 0
0.539846 0.000000 0
0.558173 0.000000 0
0.579625 0.000000 0
0.602811 0.000000 0
0.625452 0.000000 0
0.645639 0.000000 0
0.662429 0.000000 0
0.675702 0.000000 0
0.685788 0.000000 0
0.693146 0.000000 0
0.698120 0.000000 0
0.700826 0.000000 0
0.701143 0.000000 0
0.698846 0.000000 0
0.693746 0.000000 0
0.685824 0.000000 0
0.675284 0.000000 0
0.662544 0.000000 0
0.648190 0.000000 0
0.632923 0.000000 0
0.617511 0.000000 0
0.602748 0.000000 0
0.589415 0.000000 0
0.578248 0.000000 0
0.569945 0.000000 0
0.565204 0.000000 0
0.564739 0.000000 0
0.568966 0.000000 0
0.577728 0.000000 0
0.590092 0.000000 0
0.604302 0.000000 0
0.618043 0.000000 0
0.628986 0.000000 0
0.635434 0.000000 0
0.636738 0.000000 0
0.633029 0.000000 0
0.624840 0.000000 0
0.612969 0.000000 0
0.598331 0.000000 0
0.581855 0.000000 0
0.564424 0.000000 0
0.546865 0.000000 0
0.529956 0.000000 0
0.514454 0.000000 0
0.501132 0.000000 0
0.490797 0.000000 0
0.484284 0.000000 0
0.482325 0.000000 0
0.485168 0.000000 0
0.492584 0.000000 0
0.504113 0.000000 0
0.519116 0.000000 0
0.536765 0.000000 0
0.555989 0.000000 0
0.575385 0.000000 0
0.593192 0.000000 0
0.607440 0.000000 0
0.616388 0.000000 0
0.619122 0.000000 0
0.615685 0.000000 0
0.606549 0.000000 0
0.592495 0.000000 0
0.574603 0.000000 0
0.554183 0.000000 0
0.532704 0.000000 0
0.511705 0.000000 0
0.492698 0.000000 0
0.477048 0.000000 0
0.465820 0.000000 0
0.459622 0.000000 0
0.458430 0.000000 0
0.461433 0.000000 0
0.467597 0.000000 0
0.476099 0.000000 0
0.486375 0.000000 0
0.498062 0.000000 0
0.510903 0.000000 0
0.524607 0.000000 0
0.538711 0.000000 0
0.552472 0.000000 0
0.564843 0.000000 0
0.574580 0.000000 0
0.580513 0.000000 0
0.581906 0.000000 0
0.578562 0.000000 0
0.570568 0.000000 0
0.558306 0.000000 0
0.542543 0.000000 0
0.524483 0.000000 0
0.505765 0.000000 0
0.488351 0.000000 0
0.474265 0.000000 0
0.465333 0.000000 0
0.463725 0.000000 0
1.000000 -0.002068 0
1.004725 -0.006684 0
1.014598 -0.012189 0
1.030367 -0.018512 0
1.052932 -0.025564 0
1.083124 -0.032951 0
1.121264 -0.039779 0
1.166428 -0.044637 0
1.215884 -0.045822 0
1.263828 -0.042811 0
1.305865 -0.036949 0
1.340298 -0.030031 0
1.367268 -0.023327 0
1.387768 -0.017416 0
1.402950 -0.012314 0
1.413651 -0.007663 0
1.420103 -0.003000 0
1.421916 0.002002 0
1.418458 0.007415 0
1.409225 0.013038 0
1.394128 0.018477 0
1.373595 0.023290 0
1.348506 0.027101 0
1.320085 0.029627 0
1.289781 0.030682 0
1.259179 0.030175 0
1.229905 0.028094 0
1.203541 0.024498 0
1.181562 0.019468 0
1.165310 0.013041 0
1.156059 0.005206 0
1.155034 -0.003756 0
1.163209 -0.012978 0
1.180678 -0.021110 0
1.205977 -0.026554 0
1.235854 -0.027928 0
1.265690 -0.024659 0
1.290505 -0.017368 0
1.306298 -0.007733 0
1.311153 0.002420 0
1.305278 0.011911 0
1.289950 0.020073 0
1.266958 0.026521 0
1.238282 0.031125 0
1.205875 0.033916 0
1.171564 0.034997 0
1.137026 0.034476 0
1.103824 0.032417 0
1.073446 0.028829 0
1.047314 0.023663 0
1.026749 0.016852 0
1.012853 0.008475 0
1.006387 -0.000881 0
1.007760 -0.010255 0
1.017008 -0.018941 0
1.033804 -0.026526 0
1.057459 -0.032644 0
1.086946 -0.036862 0
1.120837 -0.038608 0
1.157083 -0.037189 0
1.192827 -0.032038 0
1.224465 -0.023179 0
1.248113 -0.011666 0
1.260485 0.000717 0
1.260105 0.012586 0
1.247742 0.023200 0
1.225053 0.031955 0
1.194264 0.038320 0
1.158014 0.041906 0
1.119185 0.042485 0
1.080713 0.040013 0
1.045373 0.034663 0
1.015500 0.026883 0
0.992703 0.017431 0
0.977642 0.007396 0
0.970069 -0.001805 0
0.969173 -0.009162 0
0.973825 -0.014662 0
0.982971 -0.018773 0
0.995868 -0.021958 0
1.012097 -0.024523 0
1.031438 -0.026539 0
1.053636 -0.027802 0
1.078112 -0.027859 0
1.103731 -0.026126 0
1.128730 -0.022102 0
1.150813 -0.015664 0
1.167429 -0.007320 0
1.176236 0.001957 0
1.175838 0.011344 0
1.166311 0.020262 0
1.148538 0.028029 0
1.124107 0.033828 0
1.095294 0.036782 0
1.064937 0.036135 0
1.036142 0.031502 0
1.011821 0.023019 0
0.994185 0.010541 0
0.984951 0.001293 0
1.000000 -0.004705 0
1.004875 -0.014574 0
1.014743 -0.025635 0
1.030383 -0.038330 0
1.053011 -0.052756 0
1.084108 -0.068330 0
1.124976 -0.083301 0
1.175615 -0.094615 0
1.234218 -0.097383 0
1.289131 -0.089949 0
1.334241 -0.076430 0
1.369025 -0.061364 0
1.395077 -0.047438 0
1.414431 -0.035658 0
1.428969 -0.025865 0
1.440005 -0.017129 0
1.447809 -0.008237 0
1.451515 0.001668 0
1.449871 0.012712 0
1.441949 0.024348 0
1.427514 0.035645 0
1.407060 0.045633 0
1.381612 0.053517 0
1.352533 0.058729 0
1.321388 0.060908 0
1.289858 0.059877 0
1.259652 0.055636 0
1.232394 0.048341 0
1.209513 0.038228 0
1.192189 0.025503 0
1.181462 0.010283 0
1.178467 -0.007138 0
1.184639 -0.025626 0
1.200805 -0.042744 0
1.226206 -0.055147 0
1.258244 -0.059683 0
1.292695 -0.054623 0
1.324128 -0.040583 0
1.346969 -0.020629 0
1.357401 0.001036 0
1.355172 0.021219 0
1.342212 0.038335 0
1.320855 0.051681 0
1.293452 0.061094 0
1.262157 0.066729 0
1.228859 0.068859 0
1.195200 0.067748 0
1.162632 0.063588 0
1.132449 0.056517 0
1.105770 0.046702 0
1.083451 0.034466 0
1.065967 0.020367 0
1.053426 0.005097 0
1.045967 -0.010617 0
1.043927 -0.026036 0
1.047667 -0.040440 0
1.057494 -0.053130 0
1.073716 -0.063363 0
1.096492 -0.070118 0
1.125331 -0.071970 0
1.158642 -0.067362 0
1.193584 -0.055266 0
1.226183 -0.036001 0
1.251744 -0.011976 0
1.266088 0.012756 0
1.267932 0.035063 0
1.258655 0.053489 0
1.240298 0.067048 0
1.215270 0.075087 0
1.186139 0.077309 0
1.155408 0.073820 0
1.125302 0.065221 0
1.097550 0.052678 0
1.073237 0.037866 0
1.052793 0.022641 0
1.036207 0.008475 0
1.023484 -0.003751 0
1.014522 -0.013791 0
1.009150 -0.022036 0
1.007462 -0.029119 0
1.009847 -0.035563 0
1.016865 -0.041532 0
1.028944 -0.046666 0
1.046009 -0.050087 0
1.067286 -0.050609 0
1.091339 -0.047073 0
1.116186 -0.038691 0
1.139407 -0.025415 0
1.158275 -0.008401 0
1.170265 0.009932 0
1.174220 0.027306 0
1.170656 0.042210 0
1.160781 0.053249 0
1.146245 0.059174 0
1.128876 0.059155 0
1.110372 0.053119 0
1.092034 0.041959 0
1.074524 0.026870 0
1.057404 0.015961 0
1.000000 -0.006933 0
1.003889 -0.021418 0
1.012035 -0.037698 0
1.025448 -0.056782 0
1.045873 -0.079289 0
1.075898 -0.104913 0
1.118823 -0.131282 0
1.177087 -0.153867 0
1.254312 -0.159311 0
1.318960 -0.142808 0
1.364370 -0.116826 0
1.394967 -0.090858 0
1.415483 -0.068733 0
1.429506 -0.051314 0
1.439996 -0.037881 0
1.449188 -0.026489 0
1.457736 -0.014502 0
1.463861 -0.000054 0
1.464535 0.016985 0
1.457916 0.035398 0
1.443521 0.053367 0
1.422054 0.069192 0
1.394841 0.081627 0
1.363464 0.089850 0
1.329646 0.093357 0
1.295214 0.091910 0
1.262031 0.085558 0
1.231834 0.074638 0
1.206013 0.059675 0
1.185463 0.041100 0
1.170704 0.018939 0
1.162344 -0.006920 0
1.161795 -0.035299 0
1.170728 -0.062661 0
1.189509 -0.083978 0
1.217326 -0.094404 0
1.252121 -0.090537 0
1.289722 -0.071642 0
1.323566 -0.041006 0
1.346239 -0.005778 0
1.353352 0.027106 0
1.346840 0.054394 0
1.329952 0.075285 0
1.305707 0.089825 0
1.276650 0.098512 0
1.244852 0.101958 0
1.211981 0.100705 0
1.179391 0.095171 0
1.148201 0.085693 0
1.119320 0.072662 0
1.093406 0.056657 0
1.070772 0.038502 0
1.051278 0.019122 0
1.034370 -0.000752 0
1.019606 -0.020634 0
1.007652 -0.040086 0
1.000600 -0.058684 0
1.000951 -0.075849 0
1.010737 -0.090212 0
1.030463 -0.099330 0
1.058884 -0.100283 0
1.093396 -0.090714 0
1.130480 -0.069822 0
1.165963 -0.039185 0
1.195072 -0.003600 0
1.213393 0.030635 0
1.220302 0.059592 0
1.217183 0.081708 0
1.205876 0.096068 0
1.188400 0.102351 0
1.166725 0.100853 0
1.142603 0.092525 0
1.117476 0.078951 0
1.092458 0.062191 0
1.068357 0.044428 0
1.045645 0.027506 0
1.024437 0.012526 0
1.004861 -0.000325 0
0.987384 -0.011709 0
0.973098 -0.022650 0
0.963775 -0.033922 0
0.961073 -0.045632 0
0.965810 -0.056942 0
0.977716 -0.066196 0
0.995647 -0.071452 0
1.017950 -0.070998 0
1.042770 -0.063729 0
1.068222 -0.049406 0
1.092410 -0.028897 0
1.113227 -0.004597 0
1.128395 0.019873 0
1.137108 0.041470 0
1.139711 0.058241 0
1.136925 0.068688 0
1.129591 0.072009 0
1.118488 0.068344 0
1.104264 0.058867 0
1.087473 0.045171 0
1.068470 0.034945 0
1.000000 -0.008586 0
1.002479 -0.026600 0
1.007853 -0.047195 0
1.017235 -0.072169 0
1.032785 -0.103203 0
1.058351 -0.141276 0
1.100347 -0.184481 0
1.166696 -0.230084 0
1.280256 -0.239235 0
1.349701 -0.199992 0
1.383072 -0.152429 0
1.399165 -0.112475 0
1.406486 -0.081980 0
1.409020 -0.060168 0
1.410244 -0.045532 0
1.413832 -0.034858 0
1.422196 -0.022905 0
1.433270 -0.005125 0
1.439969 0.018659 0
1.437586 0.045363 0
1.425421 0.071508 0
1.404770 0.094313 0
1.377388 0.112107 0
1.345006 0.123924 0
1.309391 0.129156 0
1.272466 0.127491 0
1.236316 0.119018 0
1.202951 0.104361 0
1.173801 0.084606 0
1.149193 0.060822 0
1.128433 0.033413 0
1.110452 0.001786 0
1.094582 -0.033994 0
1.083502 -0.070443 0
1.081685 -0.101733 0
1.092845 -0.122287 0
1.118748 -0.127016 0
1.157475 -0.112028 0
1.203058 -0.077141 0
1.246060 -0.028744 0
1.275882 0.020622 0
1.287860 0.061738 0
1.285616 0.092818 0
1.272795 0.114400 0
1.252395 0.127586 0
1.226828 0.133531 0
1.198025 0.133212 0
1.167540 0.127369 0
1.136633 0.116589 0
1.106286 0.101499 0
1.077084 0.083016 0
1.048903 0.062498 0
1.020749 0.041503 0
0.991368 0.021061 0
0.960790 0.000690 0
0.931628 -0.021426 0
0.908956 -0.046420 0
0.898094 -0.073489 0
0.901060 -0.099620 0
0.916852 -0.120109 0
0.943021 -0.130288 0
0.976686 -0.126857 0
1.014870 -0.108565 0
1.054507 -0.076565 0
1.092214 -0.034671 0
1.123566 0.009836 0
1.144762 0.049702 0
1.155815 0.081477 0
1.157754 0.103874 0
1.151942 0.116463 0
1.139820 0.119621 0
1.122744 0.114473 0
1.101886 0.102825 0
1.078167 0.086988 0
1.052214 0.069456 0
1.024469 0.052397 0
0.995545 0.037036 0
0.966744 0.023266 0
0.940279 0.009732 0
0.918811 -0.005506 0
0.904667 -0.023533 0
0.899291 -0.043562 0
0.902672 -0.063305 0
0.913663 -0.079919 0
0.930620 -0.090839 0
0.951841 -0.094193 0
0.975737 -0.088959 0
1.000873 -0.075051 0
1.025949 -0.053403 0
1.049678 -0.026050 0
1.070367 0.003428 0
1.086124 0.030896 0
1.096399 0.053434 0
1.101136 0.069296 0
1.100462 0.077593 0
1.094581 0.078446 0
1.083776 0.072974 0
1.068464 0.062663 0
1.049190 0.054377 0
1.000000 -0.009405 0
1.000563 -0.029264 0
1.001947 -0.052453 0
1.004976 -0.081712 0
1.011571 -0.120403 0
1.026010 -0.172470 0
1.057622 -0.239613 0
1.123736 -0.333757 0
1.293874 -0.342302 0
1.336191 -0.245615 0
1.327870 -0.166289 0
1.314112 -0.114274 0
1.300031 -0.078588 0
1.284810 -0.055060 0
1.269776 -0.042681 0
1.259601 -0.038435 0
1.261306 -0.033935 0
1.277274 -0.017824 0
1.299042 0.012671 0
1.310145 0.049946 0
1.308571 0.086183 0
1.297143 0.117225 0
1.277904 0.141391 0
1.252108 0.157848 0
1.220988 0.165898 0
1.186252 0.164986 0
1.150220 0.155075 0
1.115468 0.137158 0
1.083438 0.113443 0
1.052454 0.086480 0
1.018181 0.057694 0
0.977974 0.026946 0
0.934298 -0.008335 0
0.894484 -0.049752 0
0.870603 -0.093313 0
0.869789 -0.131464 0
0.891541 -0.155166 0
0.931986 -0.155949 0
0.985783 -0.129584 0
1.045965 -0.078597 0
1.102879 -0.014691 0
1.144786 0.044663 0
1.168522 0.090354 0
1.177672 0.123049 0
1.175247 0.144480 0
1.163728 0.156330 0
1.145225 0.159996 0
1.121498 0.156565 0
1.093861 0.146949 0
1.062931 0.132213 0
1.028341 0.114043 0
0.989007 0.094841 0
0.944586 0.076663 0
0.897539 0.059215 0
0.853648 0.039114 0
0.819564 0.011757 0
0.799654 -0.025141 0
0.794809 -0.067943 0
0.802890 -0.108960 0
0.820976 -0.141284 0
0.846699 -0.160112 0
0.878277 -0.162559 0
0.914085 -0.147641 0
0.952331 -0.116526 0
0.990941 -0.072656 0
1.027354 -0.021910 0
1.057340 0.027346 0
1.078431 0.068720 0
1.090624 0.099944 0
1.094459 0.120288 0
1.090706 0.130055 0
1.080144 0.130462 0
1.063409 0.123531 0
1.040941 0.111865 0
1.013158 0.098128 0
0.980960 0.084178 0
0.946356 0.070255 0
0.912675 0.054945 0
0.883908 0.036229 0
0.863331 0.012967 0
0.852283 -0.014398 0
0.850314 -0.043633 0
0.855952 -0.071309 0
0.867497 -0.094140 0
0.883476 -0.109626 0
0.902705 -0.116109 0
0.924189 -0.112756 0
0.947013 -0.099615 0
0.970289 -0.077699 0
0.993126 -0.049011 0
1.014545 -0.016570 0
1.032877 0.015440 0
1.046697 0.043230 0
1.055375 0.064627 0
1.058522 0.078565 0
1.055918 0.085031 0
1.047532 0.084984 0
1.033601 0.079756 0
1.014666 0.074640 0
1.000000 -0.009142 0
0.998285 -0.028541 0
0.994732 -0.051607 0
0.989290 -0.081790 0
0.982363 -0.124233 0
0.976008 -0.187319 0
0.977488 -0.282192 0
1.008618 -0.466321 0
1.197951 -0.451678 0
1.147622 -0.233984 0
1.058285 -0.130351 0
1.009548 -0.084636 0
0.976901 -0.052669 0
0.945879 -0.029900 0
0.910508 -0.020315 0
0.878922 -0.026383 0
0.864644 -0.040575 0
0.882264 -0.042859 0
0.929464 -0.014210 0
0.982564 0.035835 0
1.017884 0.084510 0
1.037541 0.124981 0
1.045596 0.157143 0
1.042126 0.180841 0
1.027149 0.195014 0
1.001231 0.198261 0
0.964991 0.189806 0
0.918565 0.171151 0
0.862093 0.147630 0
0.797868 0.126092 0
0.732031 0.107908 0
0.673707 0.085684 0
0.632414 0.049509 0
0.613235 -0.006739 0
0.614785 -0.077032 0
0.633365 -0.143224 0
0.665746 -0.189211 0
0.710039 -0.206263 0
0.764931 -0.191115 0
0.828341 -0.145836 0
0.896215 -0.078195 0
0.960094 -0.003902 0
1.008829 0.059935 0
1.040904 0.107677 0
1.058632 0.141532 0
1.063907 0.163556 0
1.058428 0.175444 0
1.043543 0.178735 0
1.019932 0.175159 0
0.987389 0.167022 0
0.945298 0.156944 0
0.894400 0.146259 0
0.839072 0.132977 0
0.787611 0.112006 0
0.748955 0.078674 0
0.728217 0.032578 0
0.724498 -0.021655 0
0.732222 -0.076716 0
0.746457 -0.125780 0
0.764780 -0.163911 0
0.786615 -0.187585 0
0.812175 -0.194241 0
0.841544 -0.182616 0
0.874144 -0.153418 0
0.908669 -0.109690 0
0.943311 -0.056559 0
0.975521 -0.001372 0
1.001450 0.048196 0
1.019707 0.087848 0
1.029925 0.116385 0
1.032097 0.133939 0
1.026314 0.141773 0
1.012667 0.142031 0
0.991411 0.137241 0
0.963451 0.129440 0
0.930937 0.119203 0
0.897432 0.105325 0
0.867212 0.085719 0
0.843922 0.059081 0
0.829478 0.026123 0
0.823846 -0.010512 0
0.825412 -0.047226 0
0.832207 -0.080483 0
0.842721 -0.107438 0
0.856005 -0.126042 0
0.871513 -0.134901 0
0.888868 -0.133262 0
0.907664 -0.121147 0
0.927362 -0.099513 0
0.947282 -0.070303 0
0.966625 -0.036319 0
0.984343 -0.001254 0
0.998750 0.030938 0
1.008754 0.057473 0
1.013614 0.077051 0
1.012837 0.089436 0
1.006225 0.095291 0
0.994013 0.095530 0
0.977037 0.093716 0
1.000000 -0.007685 0
0.996060 -0.023989 0
0.987550 -0.043456 0
0.973126 -0.069340 0
0.950460 -0.107114 0
0.915817 -0.167583 0
0.863468 -0.272210 0
0.789329 -0.554209 0
0.551167 -0.384656 0
0.492927 0.000000 0
0.423130 -0.018909 0
0.362514 -0.032885 0
0.348127 -0.014905 0
0.341526 0.011344 0
0.325611 0.024281 0
0.309297 0.007433 0
0.311335 -0.037274 0
0.346292 -0.082642 0
0.417309 -0.087628 0
0.513834 -0.038474 0
0.605712 0.031207 0
0.673799 0.089514 0
0.719515 0.136806 0
0.744869 0.176297 0
0.749262 0.206795 0
0.732308 0.227147 0
0.693831 0.237749 0
0.635077 0.240066 0
0.561788 0.234150 0
0.486989 0.216556 0
0.428294 0.181870 0
0.399315 0.126576 0
0.402896 0.052148 0
0.430740 -0.032116 0
0.466479 -0.113441 0
0.500966 -0.182424 0
0.534291 -0.231835 0
0.570435 -0.255127 0
0.613615 -0.247882 0
0.666026 -0.209877 0
0.726805 -0.146441 0
0.792171 -0.067948 0
0.852930 0.009547 0
0.899650 0.073249 0
0.931592 0.121479 0
0.949494 0.156536 0
0.954043 0.180362 0
0.945673 0.195064 0
0.924490 0.203106 0
0.890831 0.206851 0
0.846769 0.207036 0
0.797769 0.201073 0
0.752405 0.183460 0
0.719087 0.149340 0
0.702051 0.098517 0
0.700140 0.036223 0
0.708693 -0.029136 0
0.721870 -0.089893 0
0.735952 -0.141512 0
0.749692 -0.181437 0
0.763642 -0.207504 0
0.779361 -0.217485 0
0.798479 -0.209607 0
0.821787 -0.183648 0
0.848813 -0.141820 0
0.878038 -0.088759 0
0.907395 -0.030789 0
0.933689 0.024538 0
0.954097 0.071473 0
0.967402 0.107900 0
0.972910 0.133668 0
0.970203 0.149895 0
0.959207 0.158437 0
0.940551 0.161084 0
0.916040 0.158606 0
0.888829 0.150202 0
0.862866 0.133985 0
0.841708 0.108460 0
0.827425 0.073967 0
0.820313 0.033048 0
0.819403 -0.010326 0
0.823037 -0.051990 0
0.829551 -0.088613 0
0.837804 -0.117932 0
0.847244 -0.138413 0
0.857794 -0.148967 0
0.869628 -0.148903 0
0.882895 -0.138105 0
0.897500 -0.117313 0
0.913017 -0.088271 0
0.928747 -0.053629 0
0.943795 -0.016683 0
0.956806 0.018821 0
0.966392 0.049764 0
0.971612 0.074484 0
0.971853 0.092421 0
0.966900 0.103807 0
0.957070 0.108943 0
0.943396 0.109914 0
1.000000 -0.005197 0
0.994466 -0.016085 0
0.982376 -0.028669 0
0.961367 -0.044695 0
0.926820 -0.066916 0
0.869664 -0.100314 0
0.770567 -0.155692 0
0.587471 -0.250651 0
0.000000 -0.155270 0
0.000000 0.000000 0
0.000000 0.000000 0
-0.028277 -0.018992 0
-0.043946 -0.031670 0
-0.066939 -0.007378 0
-0.091694 0.011918 0
-0.103214 -0.012104 0
-0.086246 -0.077569 0
-0.044643 -0.148832 0
0.019644 -0.181751 0
0.113405 -0.152567 0
0.225173 -0.075455 0
0.324710 0.011179 0
0.398176 0.086075 0
0.444165 0.151096 0
0.463997 0.207578 0
0.458824 0.253698 0
0.431997 0.287045 0
0.391566 0.303203 0
0.350970 0.295731 0
0.325195 0.259600 0
0.324129 0.195596 0
0.348339 0.111094 0
0.389413 0.018092 0
0.431588 -0.070316 0
0.466003 -0.147256 0
0.490643 -0.211033 0
0.507606 -0.258674 0
0.522251 -0.285582 0
0.541488 -0.286702 0
0.571109 -0.259022 0
0.613261 -0.204338 0
0.665660 -0.130024 0
0.722608 -0.047541 0
0.773709 0.029018 0
0.811921 0.091691 0
0.836198 0.141106 0
0.846226 0.179267 0
0.842006 0.208290 0
0.824274 0.230004 0
0.795548 0.244746 0
0.761177 0.250011 0
0.728981 0.240629 0
0.706617 0.211666 0
0.698162 0.162370 0
0.702805 0.097630 0
0.716427 0.025946 0
0.733535 -0.043376 0
0.749526 -0.103968 0
0.762029 -0.153596 0
0.770362 -0.191597 0
0.775411 -0.217251 0
0.779436 -0.229074 0
0.785405 -0.225038 0
0.795848 -0.203749 0
0.811771 -0.165938 0
0.832365 -0.115137 0
0.855548 -0.057020 0
0.878603 0.001497 0
0.898040 0.054139 0
0.911850 0.097576 0
0.918855 0.131141 0
0.918453 0.155478 0
0.910763 0.171686 0
0.896952 0.180412 0
0.879399 0.181166 0
0.861348 0.172381 0
0.845989 0.152451 0
0.835451 0.121165 0
0.830343 0.080481 0
0.830042 0.034150 0
0.833325 -0.013231 0
0.838699 -0.057370 0
0.844826 -0.095243 0
0.850798 -0.125125 0
0.856242 -0.146028 0
0.861350 -0.157281 0
0.866746 -0.158359 0
0.873188 -0.149014 0
0.881204 -0.129631 0
0.890840 -0.101547 0
0.901629 -0.067094 0
0.912735 -0.029310 0
0.923054 0.008343 0
0.931189 0.042669 0
0.936115 0.071590 0
0.937190 0.094148 0
0.934225 0.110075 0
0.927567 0.119032 0
0.918186 0.122031 0
1.000000 -0.002146 0
0.993945 -0.006359 0
0.980768 -0.010353 0
0.958010 -0.013777 0
0.920984 -0.015401 0
0.861018 -0.011317 0
0.761628 0.009995 0
0.589733 0.113673 0
0.275940 0.100123 0
0.000000 0.000000 0
0.000000 0.000000 0
0.000000 0.000000 0
-0.020689 0.022065 0
-0.105342 0.059095 0
-0.168387 0.060560 0
-0.191250 0.001986 0
-0.173991 -0.095845 0
-0.147371 -0.188531 0
-0.116854 -0.245676 0
-0.070745 -0.244003 0
-0.000199 -0.180096 0
0.086477 -0.083488 0
0.166131 0.017352 0
0.224043 0.110478 0
0.260073 0.192140 0
0.277318 0.259154 0
0.281910 0.305016 0
0.284042 0.321104 0
0.295336 0.300535 0
0.323853 0.243411 0
0.370694 0.158738 0
0.430067 0.061303 0
0.487343 -0.031094 0
0.531585 -0.108702 0
0.560592 -0.172493 0
0.574007 -0.224021 0
0.573550 -0.263438 0
0.563939 -0.289005 0
0.552982 -0.296736 0
0.549811 -0.281648 0
0.561335 -0.240989 0
0.589072 -0.177293 0
0.628840 -0.098500 0
0.672677 -0.016062 0
0.709969 0.058993 0
0.735987 0.122233 0
0.749440 0.174556 0
0.750511 0.217019 0
0.741171 0.249568 0
0.725725 0.269952 0
0.710527 0.273609 0
0.702134 0.255640 0
0.704588 0.214286 0
0.717930 0.153161 0
0.739074 0.080262 0
0.763692 0.005502 0
0.786451 -0.062227 0
0.804281 -0.118381 0
0.815583 -0.162342 0
0.819722 -0.194816 0
0.817245 -0.216574 0
0.810224 -0.227475 0
0.802189 -0.226015 0
0.797224 -0.210010 0
0.798416 -0.178334 0
0.806630 -0.132532 0
0.820471 -0.077023 0
0.837224 -0.017952 0
0.853405 0.038229 0
0.866206 0.087088 0
0.874068 0.127068 0
0.876355 0.157990 0
0.873415 0.179941 0
0.866669 0.192451 0
0.858413 0.194215 0
0.851180 0.183617 0
0.846908 0.159887 0
0.846396 0.124111 0
0.849367 0.079381 0
0.854927 0.030070 0
0.861944 -0.018977 0
0.869071 -0.063485 0
0.875184 -0.100706 0
0.879441 -0.129342 0