# vtk DataFile Version 2.0
generated by CFD-lab course output (written by Tobias Neckel) 
ASCII

DATASET STRUCTURED_GRID
DIMENSIONS  99 19 1 
POINTS 1881 float

0.000000 0.000000 0
0.100000 0.000000 0
0.200000 0.000000 0
0.300000 0.000000 0
0.400000 0.000000 0
0.500000 0.000000 0
0.600000 0.000000 0
0.700000 0.000000 0
0.800000 0.000000 0
0.900000 0.000000 0
1.000000 0.000000 0
1.100000 0.000000 0
1.200000 0.000000 0
1.300000 0.000000 0
1.400000 0.000000 0
1.500000 0.000000 0
1.600000 0.000000 0
1.700000 0.000000 0
1.800000 0.000000 0
1.900000 0.000000 0
2.000000 0.000000 0
2.100000 0.000000 0
2.200000 0.000000 0
2.300000 0.000000 0
2.400000 0.000000 0
2.500000 0.000000 0
2.600000 0.000000 0
2.700000 0.000000 0
2.800000 0.000000 0
2.900000 0.000000 0
3.000000 0.000000 0
3.100000 0.000000 0
3.200000 0.000000 0
3.300000 0.000000 0
3.400000 0.000000 0
3.500000 0.000000 0
3.600000 0.000000 0
3.700000 0.000000 0
3.800000 0.000000 0
3.900000 0.000000 0
4.000000 0.000000 0
4.100000 0.000000 0
4.200000 0.000000 0
4.300000 0.000000 0
4.400000 0.000000 0
4.500000 0.000000 0
4.600000 0.000000 0
4.700000 0.000000 0
4.800000 0.000000 0
4.900000 0.000000 0
5.000000 0.000000 0
5.100000 0.000000 0
5.200000 0.000000 0
5.300000 0.000000 0
5.400000 0.000000 0
5.500000 0.000000 0
5.600000 0.000000 0
5.700000 0.000000 0
5.800000 0.000000 0
5.900000 0.000000 0
6.000000 0.000000 0
6.100000 0.000000 0
6.200000 0.000000 0
6.300000 0.000000 0
6.400000 0.000000 0
6.500000 0.000000 0
6.600000 0.000000 0
6.700000 0.000000 0
6.800000 0.000000 0
6.900000 0.000000 0
7.000000 0.000000 0
7.100000 0.000000 0
7.200000 0.000000 0
7.300000 0.000000 0
7.400000 0.000000 0
7.500000 0.000000 0
7.600000 0.000000 0
7.700000 0.000000 0
7.800000 0.000000 0
7.900000 0.000000 0
8.000000 0.000000 0
8.100000 0.000000 0
8.200000 0.000000 0
8.300000 0.000000 0
8.400000 0.000000 0
8.500000 0.000000 0
8.600000 0.000000 0
8.700000 0.000000 0
8.800000 0.000000 0
8.900000 0.000000 0
9.000000 0.000000 0
9.100000 0.000000 0
9.200000 0.000000 0
9.300000 0.000000 0
9.400000 0.000000 0
9.500000 0.000000 0
9.600000 0.000000 0
9.700000 0.000000 0
9.800000 0.000000 0
0.000000 0.100000 0
0.100000 0.100000 0
0.200000 0.100000 0
0.300000 0.100000 0
0.400000 0.100000 0
0.500000 0.100000 0
0.600000 0.100000 0
0.700000 0.100000 0
0.800000 0.100000 0
0.900000 0.100000 0
1.000000 0.100000 0
1.100000 0.100000 0
1.200000 0.100000 0
1.300000 0.100000 0
1.400000 0.100000 0
1.500000 0.100000 0
1.600000 0.100000 0
1.700000 0.100000 0
1.800000 0.100000 0
1.900000 0.100000 0
2.000000 0.100000 0
2.100000 0.100000 0
2.200000 0.100000 0
2.300000 0.100000 0
2.400000 0.100000 0
2.500000 0.100000 0
2.600000 0.100000 0
2.700000 0.100000 0
2.800000 0.100000 0
2.900000 0.100000 0
3.000000 0.100000 0
3.100000 0.100000 0
3.200000 0.100000 0
3.300000 0.100000 0
3.400000 0.100000 0
3.500000 0.100000 0
3.600000 0.100000 0
3.700000 0.100000 0
3.800000 0.100000 0
3.900000 0.100000 0
4.000000 0.100000 0
4.100000 0.100000 0
4.200000 0.100000 0
4.300000 0.100000 0
4.400000 0.100000 0
4.500000 0.100000 0
4.600000 0.100000 0
4.700000 0.100000 0
4.800000 0.100000 0
4.900000 0.100000 0
5.000000 0.100000 0
5.100000 0.100000 0
5.200000 0.100000 0
5.300000 0.100000 0
5.400000 0.100000 0
5.500000 0.100000 0
5.600000 0.100000 0
5.700000 0.100000 0
5.800000 0.100000 0
5.900000 0.100000 0
6.000000 0.100000 0
6.100000 0.100000 0
6.200000 0.100000 0
6.300000 0.100000 0
6.400000 0.100000 0
6.500000 0.100000 0
6.600000 0.100000 0
6.700000 0.100000 0
6.800000 0.100000 0
6.900000 0.100000 0
7.000000 0.100000 0
7.100000 0.100000 0
7.200000 0.100000 0
7.300000 0.100000 0
7.400000 0.100000 0
7.500000 0.100000 0
7.600000 0.100000 0
7.700000 0.100000 0
7.800000 0.100000 0
7.900000 0.100000 0
8.000000 0.100000 0
8.100000 0.100000 0
8.200000 0.100000 0
8.300000 0.100000 0
8.400000 0.100000 0
8.500000 0.100000 0
8.600000 0.100000 0
8.700000 0.100000 0
8.800000 0.100000 0
8.900000 0.100000 0
9.000000 0.100000 0
9.100000 0.100000 0
9.200000 0.100000 0
9.300000 0.100000 0
9.400000 0.100000 0
9.500000 0.100000 0
9.600000 0.100000 0
9.700000 0.100000 0
9.800000 0.100000 0
0.000000 0.200000 0
0.100000 0.200000 0
0.200000 0.200000 0
0.300000 0.200000 0
0.400000 0.200000 0
0.500000 0.200000 0
0.600000 0.200000 0
0.700000 0.200000 0
0.800000 0.200000 0
0.900000 0.200000 0
1.000000 0.200000 0
1.100000 0.200000 0
1.200000 0.200000 0
1.300000 0.200000 0
1.400000 0.200000 0
1.500000 0.200000 0
1.600000 0.200000 0
1.700000 0.200000 0
1.800000 0.200000 0
1.900000 0.200000 0
2.000000 0.200000 0
2.100000 0.200000 0
2.200000 0.200000 0
2.300000 0.200000 0
2.400000 0.200000 0
2.500000 0.200000 0
2.600000 0.200000 0
2.700000 0.200000 0
2.800000 0.200000 0
2.900000 0.200000 0
3.000000 0.200000 0
3.100000 0.200000 0
3.200000 0.200000 0
3.300000 0.200000 0
3.400000 0.200000 0
3.500000 0.200000 0
3.600000 0.200000 0
3.700000 0.200000 0
3.800000 0.200000 0
3.900000 0.200000 0
4.000000 0.200000 0
4.100000 0.200000 0
4.200000 0.200000 0
4.300000 0.200000 0
4.400000 0.200000 0
4.500000 0.200000 0
4.600000 0.200000 0
4.700000 0.200000 0
4.800000 0.200000 0
4.900000 0.200000 0
5.000000 0.200000 0
5.100000 0.200000 0
5.200000 0.200000 0
5.300000 0.200000 0
5.400000 0.200000 0
5.500000 0.200000 0
5.600000 0.200000 0
5.700000 0.200000 0
5.800000 0.200000 0
5.900000 0.200000 0
6.000000 0.200000 0
6.100000 0.200000 0
6.200000 0.200000 0
6.300000 0.200000 0
6.400000 0.200000 0
6.500000 0.200000 0
6.600000 0.200000 0
6.700000 0.200000 0
6.800000 0.200000 0
6.900000 0.200000 0
7.000000 0.200000 0
7.100000 0.200000 0
7.200000 0.200000 0
7.300000 0.200000 0
7.400000 0.200000 0
7.500000 0.200000 0
7.600000 0.200000 0
7.700000 0.200000 0
7.800000 0.200000 0
7.900000 0.200000 0
8.000000 0.200000 0
8.100000 0.200000 0
8.200000 0.200000 0
8.300000 0.200000 0
8.400000 0.200000 0
8.500000 0.200000 0
8.600000 0.200000 0
8.700000 0.200000 0
8.800000 0.200000 0
8.900000 0.200000 0
9.000000 0.200000 0
9.100000 0.200000 0
9.200000 0.200000 0
9.300000 0.200000 0
9.400000 0.200000 0
9.500000 0.200000 0
9.600000 0.200000 0
9.700000 0.200000 0
9.800000 0.200000 0
0.000000 0.300000 0
0.100000 0.300000 0
0.200000 0.300000 0
0.300000 0.300000 0
0.400000 0.300000 0
0.500000 0.300000 0
0.600000 0.300000 0
0.700000 0.300000 0
0.800000 0.300000 0
0.900000 0.300000 0
1.000000 0.300000 0
1.100000 0.300000 0
1.200000 0.300000 0
1.300000 0.300000 0
1.400000 0.300000 0
1.500000 0.300000 0
1.600000 0.300000 0
1.700000 0.300000 0
1.800000 0.300000 0
1.900000 0.300000 0
2.000000 0.300000 0
2.100000 0.300000 0
2.200000 0.300000 0
2.300000 0.300000 0
2.400000 0.300000 0
2.500000 0.300000 0
2.600000 0.300000 0
2.700000 0.300000 0
2.800000 0.300000 0
2.900000 0.300000 0
3.000000 0.300000 0
3.100000 0.300000 0
3.200000 0.300000 0
3.300000 0.300000 0
3.400000 0.300000 0
3.500000 0.300000 0
3.600000 0.300000 0
3.700000 0.300000 0
3.800000 0.300000 0
3.900000 0.300000 0
4.000000 0.300000 0
4.100000 0.300000 0
4.200000 0.300000 0
4.300000 0.300000 0
4.400000 0.300000 0
4.500000 0.300000 0
4.600000 0.300000 0
4.700000 0.300000 0
4.800000 0.300000 0
4.900000 0.300000 0
5.000000 0.300000 0
5.100000 0.300000 0
5.200000 0.300000 0
5.300000 0.300000 0
5.400000 0.300000 0
5.500000 0.300000 0
5.600000 0.300000 0
5.700000 0.300000 0
5.800000 0.300000 0
5.900000 0.300000 0
6.000000 0.300000 0
6.100000 0.300000 0
6.200000 0.300000 0
6.300000 0.300000 0
6.400000 0.300000 0
6.500000 0.300000 0
6.600000 0.300000 0
6.700000 0.300000 0
6.800000 0.300000 0
6.900000 0.300000 0
7.000000 0.300000 0
7.100000 0.300000 0
7.200000 0.300000 0
7.300000 0.300000 0
7.400000 0.300000 0
7.500000 0.300000 0
7.600000 0.300000 0
7.700000 0.300000 0
7.800000 0.300000 0
7.900000 0.300000 0
8.000000 0.300000 0
8.100000 0.300000 0
8.200000 0.300000 0
8.300000 0.300000 0
8.400000 0.300000 0
8.500000 0.300000 0
8.600000 0.300000 0
8.700000 0.300000 0
8.800000 0.300000 0
8.900000 0.300000 0
9.000000 0.300000 0
9.100000 0.300000 0
9.200000 0.300000 0
9.300000 0.300000 0
9.400000 0.300000 0
9.500000 0.300000 0
9.600000 0.300000 0
9.700000 0.300000 0
9.800000 0.300000 0
0.000000 0.400000 0
0.100000 0.400000 0
0.200000 0.400000 0
0.300000 0.400000 0
0.400000 0.400000 0
0.500000 0.400000 0
0.600000 0.400000 0
0.700000 0.400000 0
0.800000 0.400000 0
0.900000 0.400000 0
1.000000 0.400000 0
1.100000 0.400000 0
1.200000 0.400000 0
1.300000 0.400000 0
1.400000 0.400000 0
1.500000 0.400000 0
1.600000 0.400000 0
1.700000 0.400000 0
1.800000 0.400000 0
1.900000 0.400000 0
2.000000 0.400000 0
2.100000 0.400000 0
2.200000 0.400000 0
2.300000 0.400000 0
2.400000 0.400000 0
2.500000 0.400000 0
2.600000 0.400000 0
2.700000 0.400000 0
2.800000 0.400000 0
2.900000 0.400000 0
3.000000 0.400000 0
3.100000 0.400000 0
3.200000 0.400000 0
3.300000 0.400000 0
3.400000 0.400000 0
3.500000 0.400000 0
3.600000 0.400000 0
3.700000 0.400000 0
3.800000 0.400000 0
3.900000 0.400000 0
4.000000 0.400000 0
4.100000 0.400000 0
4.200000 0.400000 0
4.300000 0.400000 0
4.400000 0.400000 0
4.500000 0.400000 0
4.600000 0.400000 0
4.700000 0.400000 0
4.800000 0.400000 0
4.900000 0.400000 0
5.000000 0.400000 0
5.100000 0.400000 0
5.200000 0.400000 0
5.300000 0.400000 0
5.400000 0.400000 0
5.500000 0.400000 0
5.600000 0.400000 0
5.700000 0.400000 0
5.800000 0.400000 0
5.900000 0.400000 0
6.000000 0.400000 0
6.100000 0.400000 0
6.200000 0.400000 0
6.300000 0.400000 0
6.400000 0.400000 0
6.500000 0.400000 0
6.600000 0.400000 0
6.700000 0.400000 0
6.800000 0.400000 0
6.900000 0.400000 0
7.000000 0.400000 0
7.100000 0.400000 0
7.200000 0.400000 0
7.300000 0.400000 0
7.400000 0.400000 0
7.500000 0.400000 0
7.600000 0.400000 0
7.700000 0.400000 0
7.800000 0.400000 0
7.900000 0.400000 0
8.000000 0.400000 0
8.100000 0.400000 0
8.200000 0.400000 0
8.300000 0.400000 0
8.400000 0.400000 0
8.500000 0.400000 0
8.600000 0.400000 0
8.700000 0.400000 0
8.800000 0.400000 0
8.900000 0.400000 0
9.000000 0.400000 0
9.100000 0.400000 0
9.200000 0.400000 0
9.300000 0.400000 0
9.400000 0.400000 0
[...]
POINT_DATA 1881 

VECTORS velocity float
0.500000 0.000000 0
0.502245 0.000000 0
0.507183 0.000000 0
0.515196 0.000000 0
0.526647 0.000000 0
0.541800 0.000000 0
0.560569 0.000000 0
0.582256 0.000000 0
0.605294 0.000000 0
0.627201 0.000000 0
0.645887 0.000000 0
0.660279 0.000000 0
0.670189 0.000000 0
0.675993 0.000000 0
0.678394 0.000000 0
0.678282 0.000000 0
0.676625 0.000000 0
0.674386 0.000000 0
0.672418 0.000000 0
0.671359 0.000000 0
0.671472 0.000000 0
0.672481 0.000000 0
0.673598 0.000000 0
0.673778 0.000000 0
0.672036 0.000000 0
0.667724 0.000000 0
0.660577 0.000000 0
0.650694 0.000000 0
0.638428 0.000000 0
0.624299 0.000000 0
0.608931 0.000000 0
0.593002 0.000000 0
0.577222 0.000000 0
0.562312 0.000000 0
0.548992 0.000000 0
0.537991 0.000000 0
0.530090 0.000000 0
0.526162 0.000000 0
0.527046 0.000000 0
0.533133 0.000000 0
0.544274 0.000000 0
0.559630 0.000000 0
0.577639 0.000000 0
0.596121 0.000000 0
0.612586 0.000000 0
0.624742 0.000000 0
0.631121 0.000000 0
0.631430 0.000000 0
0.626091 0.000000 0
0.615855 0.000000 0
0.601714 0.000000 0
0.584782 0.000000 0
0.566184 0.000000 0
0.546993 0.000000 0
0.528201 0.000000 0
0.510727 0.000000 0
0.495442 0.000000 0
0.483195 0.000000 0
0.474784 0.000000 0
0.470849 0.000000 0
0.471602 0.000000 0
0.476633 0.000000 0
0.485365 0.000000 0
0.497220 0.000000 0
0.511639 0.000000 0
0.528034 0.000000 0
0.545682 0.000000 0
0.563584 0.000000 0
0.580375 0.000000 0
0.594390 0.000000 0
0.603960 0.000000 0
0.607937 0.000000 0
0.606038 0.000000 0
0.598497 0.000000 0
0.585849 0.000000 0
0.568975 0.000000 0
0.549088 0.000000 0
0.527699 0.000000 0
0.506538 0.000000 0
0.487393 0.000000 0
0.471881 0.000000 0
0.461170 0.000000 0
0.455763 0.000000 0
0.455355 0.000000 0
0.458833 0.000000 0
0.465040 0.000000 0
0.473131 0.000000 0
0.482564 0.000000 0
0.493025 0.000000 0
0.504313 0.000000 0
0.516210 0.000000 0
0.528351 0.000000 0
0.540131 0.000000 0
0.550675 0.000000 0
0.558910 0.000000 0
0.563766 0.000000 0
0.564438 0.000000 0
0.560385 0.000000 0
0.550536 0.000000 0
1.000000 -0.002239 0
1.005056 -0.007171 0
1.015578 -0.012939 0
1.032243 -0.019460 0
1.055871 -0.026600 0
1.087174 -0.033920 0
1.126285 -0.040464 0
1.172038 -0.044736 0
1.221350 -0.044960 0
1.267964 -0.040611 0
1.307109 -0.033099 0
1.336814 -0.024324 0
1.357042 -0.015737 0
1.368789 -0.008230 0
1.373608 -0.002315 0
1.373351 0.001745 0
1.370021 0.003882 0
1.365630 0.004205 0
1.362013 0.003031 0
1.360574 0.000956 0
1.361960 -0.001110 0
1.365634 -0.002116 0
1.369805 -0.001292 0
1.372007 0.001557 0
1.370055 0.006050 0
1.362590 0.011459 0
1.349142 0.017027 0
1.329996 0.022145 0
1.305941 0.026388 0
1.278084 0.029488 0
1.247713 0.031286 0
1.216215 0.031695 0
1.185028 0.030674 0
1.155601 0.028214 0
1.129366 0.024303 0
1.107735 0.018883 0
1.092103 0.011810 0
1.083861 0.003025 0
1.084320 -0.006991 0
1.094481 -0.017243 0
1.114502 -0.026507 0
1.143264 -0.033372 0
1.178244 -0.036492 0
1.215665 -0.034945 0
1.250861 -0.028617 0
1.278982 -0.018529 0
1.296126 -0.006683 0
1.300509 0.005031 0
1.292747 0.015575 0
1.274539 0.024373 0
1.248061 0.031067 0
1.215683 0.035524 0
1.179760 0.037781 0
1.142508 0.037975 0
1.105953 0.036258 0
1.071930 0.032750 0
1.042084 0.027522 0
1.017827 0.020649 0
1.000222 0.012337 0
0.989846 0.003172 0
0.986788 -0.005794 0
0.990769 -0.013773 0
1.001262 -0.020598 0
1.017673 -0.026283 0
1.039394 -0.030821 0
1.065774 -0.034048 0
1.095945 -0.035552 0
1.128516 -0.034694 0
1.161334 -0.030805 0
1.191472 -0.023582 0
1.215522 -0.013545 0
1.230219 -0.002076 0
1.233401 0.009441 0
1.225000 0.020189 0
1.206161 0.029520 0
1.178708 0.036758 0
1.145058 0.041271 0
1.108081 0.042545 0
1.070901 0.040302 0
1.036582 0.034653 0
1.007711 0.026219 0
0.985983 0.016114 0
0.971964 0.005813 0
0.965217 -0.003071 0
0.964744 -0.009686 0
0.969256 -0.014299 0
0.977615 -0.017524 0
0.989056 -0.019894 0
1.003179 -0.021750 0
1.019804 -0.023185 0
1.038745 -0.024038 0
1.059549 -0.023921 0
1.081296 -0.022324 0
1.102515 -0.018778 0
1.121248 -0.013091 0
1.135231 -0.005529 0
1.142207 0.003381 0
1.140509 0.013902 0
1.128855 0.021035 0
1.000000 -0.005045 0
1.005218 -0.015559 0
1.015754 -0.027178 0
1.032333 -0.040291 0
1.056111 -0.054928 0
1.088457 -0.070419 0
1.130539 -0.084879 0
1.182128 -0.095083 0
1.241078 -0.095948 0
1.295111 -0.085783 0
1.337723 -0.068875 0
1.368114 -0.049960 0
1.387561 -0.032006 0
1.397789 -0.016598 0
1.400726 -0.004592 0
1.398427 0.003566 0
1.393064 0.007714 0
1.386914 0.008013 0
1.382155 0.005068 0
1.380618 0.000066 0
1.383468 -0.005047 0
1.390331 -0.007839 0
1.398778 -0.006380 0
1.405138 -0.000259 0
1.406354 0.009416 0
1.400936 0.020911 0
1.388626 0.032589 0
1.370003 0.043194 0
1.346114 0.051901 0
1.318229 0.058215 0
1.287715 0.061853 0
1.255988 0.062667 0
1.224480 0.060594 0
1.194606 0.055640 0
1.167709 0.047843 0
1.145024 0.037240 0
1.127654 0.023851 0
1.116572 0.007760 0
1.112774 -0.010640 0
1.117460 -0.030196 0
1.131313 -0.048792 0
1.154022 -0.063744 0
1.184362 -0.072399 0
1.220192 -0.072612 0
1.258151 -0.063310 0
1.293507 -0.045259 0
1.320721 -0.021524 0
1.335104 0.003377 0
1.335448 0.025964 0
1.323733 0.044678 0
1.302488 0.058847 0
1.274359 0.068291 0
1.241887 0.073165 0
1.207389 0.073797 0
1.172907 0.070567 0
1.140175 0.063858 0
1.110587 0.054091 0
1.085117 0.041850 0
1.064245 0.027969 0
1.047966 0.013422 0
1.036083 -0.000935 0
1.028615 -0.014487 0
1.025654 -0.026916 0
1.027467 -0.038142 0
1.034480 -0.048108 0
1.047268 -0.056556 0
1.066219 -0.062743 0
1.091038 -0.065388 0
1.120435 -0.062954 0
1.152105 -0.054185 0
1.182871 -0.038744 0
1.208880 -0.017877 0
1.226230 0.005218 0
1.232611 0.027238 0
1.228526 0.046287 0
1.215485 0.061097 0
1.195532 0.070621 0
1.170996 0.074151 0
1.144236 0.071494 0
1.117370 0.063186 0
1.092048 0.050595 0
1.069330 0.035744 0
1.049722 0.020764 0
1.033409 0.007219 0
1.020624 -0.004040 0
1.011348 -0.012871 0
1.005415 -0.019800 0
1.002865 -0.025564 0
1.004003 -0.030748 0
1.009267 -0.035567 0
1.018980 -0.039746 0
1.033050 -0.042551 0
1.050823 -0.042965 0
1.071092 -0.039953 0
1.092199 -0.032716 0
1.112114 -0.020958 0
1.128538 -0.005278 0
1.139380 0.013352 0
1.143747 0.025894 0
1.000000 -0.007447 0
1.004235 -0.022916 0
1.013058 -0.040060 0
1.027449 -0.059820 0
1.049112 -0.082730 0
1.080577 -0.108361 0
1.125083 -0.134146 0
1.184906 -0.155287 0
1.263497 -0.157954 0
1.328209 -0.137267 0
1.372122 -0.106113 0
1.399540 -0.074174 0
1.414692 -0.045425 0
1.420162 -0.021406 0
1.418124 -0.002956 0
1.410503 0.009416 0
1.399668 0.015409 0
1.388350 0.015127 0
1.379267 0.009339 0
1.374823 -0.000352 0
1.377187 -0.010828 0
1.386941 -0.017440 0
1.401071 -0.016114 0
1.413761 -0.006020 0
1.419483 0.010253 0
1.416308 0.029182 0
1.404558 0.047956 0
1.385498 0.064650 0
1.360659 0.078153 0
1.331550 0.087878 0
1.299616 0.093518 0
1.266275 0.094920 0
1.232928 0.092046 0
1.200930 0.084976 0
1.171505 0.073876 0
1.145672 0.058930 0
1.124221 0.040254 0
1.107721 0.017899 0
1.096503 -0.007880 0
1.091006 -0.035780 0
1.092280 -0.063065 0
1.101167 -0.086414 0
1.118721 -0.102655 0
1.145586 -0.108728 0
1.180730 -0.101930 0
1.220658 -0.081101 0
1.259456 -0.048286 0
1.289811 -0.009704 0
1.305671 0.026938 0
1.306912 0.057328 0
1.296350 0.080436 0
1.276865 0.096119 0
1.251175 0.104745 0
1.221702 0.106950 0
1.190519 0.103468 0
1.159318 0.095065 0
1.129399 0.082575 0
1.101652 0.066986 0
1.076551 0.049483 0
1.054149 0.031328 0
1.034093 0.013552 0
1.015873 -0.003348 0
0.999423 -0.019452 0
0.985848 -0.035111 0
0.977518 -0.050621 0
0.976857 -0.065784 0
0.985346 -0.079320 0
1.002916 -0.088907 0
1.028120 -0.091870 0
1.058632 -0.086017 0
1.091655 -0.070319 0
1.124116 -0.045438 0
1.152590 -0.014294 0
1.173275 0.017889 0
1.184326 0.046643 0
1.186355 0.069749 0
1.180613 0.085756 0
1.168652 0.093838 0
1.152057 0.093927 0
1.132267 0.086841 0
1.110513 0.074259 0
1.087852 0.058441 0
1.065191 0.041734 0
1.043228 0.026027 0
1.022375 0.012375 0
1.003091 0.000910 0
0.986040 -0.009041 0
0.972253 -0.018483 0
0.963147 -0.028153 0
0.959992 -0.038161 0
0.963369 -0.047821 0
0.972993 -0.055765 0
0.987882 -0.060366 0
1.006647 -0.060155 0
1.027753 -0.054114 0
1.049690 -0.041868 0
1.071061 -0.023885 0
1.090480 -0.001306 0
1.106603 0.014590 0
1.000000 -0.009274 0
1.002815 -0.028615 0
1.008855 -0.050397 0
1.019224 -0.076349 0
1.036074 -0.108066 0
1.063270 -0.146401 0
1.107270 -0.189216 0
1.176002 -0.233508 0
1.292758 -0.239260 0
1.363767 -0.194419 0
1.397566 -0.140218 0
1.413461 -0.092542 0
1.419561 -0.052639 0
1.417696 -0.020035 0
1.408501 0.005074 0
1.392987 0.022034 0
1.373654 0.029878 0
1.353864 0.028423 0
1.337087 0.018599 0
1.326222 0.002143 0
1.323818 -0.017177 0
1.333028 -0.031738 0
1.352285 -0.033203 0
1.374765 -0.018668 0
1.390310 0.006864 0
1.392987 0.035830 0
1.384408 0.063392 0
1.367172 0.087085 0
1.343484 0.105841 0
1.315039 0.119249 0
1.283243 0.127119 0
1.249439 0.129345 0
1.214996 0.125930 0
1.181256 0.117054 0
1.149362 0.103093 0
1.120046 0.084515 0
1.093518 0.061795 0
1.069445 0.035477 0
1.046749 0.006076 0
1.023964 -0.025971 0
1.002265 -0.058949 0
0.987477 -0.090179 0
0.985544 -0.116812 0
0.999510 -0.134619 0
1.028770 -0.138384 0
1.069956 -0.123990 0
1.117707 -0.090686 0
1.164917 -0.042845 0
1.203020 0.008859 0
1.225472 0.053995 0
1.233398 0.088890 0
1.229547 0.113462 0
1.216596 0.128323 0
1.196986 0.134448 0
1.172859 0.132946 0
1.146020 0.124972 0
1.117898 0.111752 0
1.089463 0.094693 0
1.061062 0.075467 0
1.032323 0.055875 0
1.002509 0.037336 0
0.971542 0.020180 0
0.941092 0.003108 0
0.914600 -0.016236 0
0.896281 -0.039115 0
0.889393 -0.064381 0
0.894458 -0.088800 0
0.909973 -0.108161 0
0.933638 -0.118668 0
0.963041 -0.117720 0
0.995870 -0.104230 0
1.029901 -0.078815 0
1.062870 -0.043945 0
1.092021 -0.004503 0
1.113901 0.033204 0
1.127495 0.064807 0
1.133163 0.088321 0
1.131672 0.102705 0
1.123941 0.107878 0
1.110894 0.104729 0
1.093406 0.095010 0
1.072284 0.081066 0
1.048277 0.065387 0
1.022160 0.050033 0
0.994956 0.036096 0
0.968217 0.023464 0
0.944055 0.011037 0
0.924697 -0.002672 0
0.911909 -0.018487 0
0.906696 -0.035789 0
0.908999 -0.052747 0
0.917886 -0.067064 0
0.932004 -0.076620 0
0.949926 -0.079824 0
0.970322 -0.075759 0
0.992039 -0.064267 0
1.014128 -0.046068 0
1.035850 -0.022189 0
1.056179 -0.004550 0
1.000000 -0.010261 0
1.000865 -0.031774 0
1.002864 -0.056475 0
1.006820 -0.087045 0
1.014686 -0.126787 0
1.030825 -0.179566 0
1.064745 -0.246888 0
1.134065 -0.340786 0
1.309783 -0.345729 0
1.354879 -0.242085 0
1.349222 -0.155819 0
1.339663 -0.096180 0
1.332560 -0.049667 0
1.323656 -0.010344 0
1.306889 0.021764 0
1.281812 0.044274 0
1.250944 0.054539 0
1.218438 0.051698 0
1.188808 0.036978 0
1.165655 0.012908 0
1.150769 -0.017648 0
1.148255 -0.045914 0
1.163777 -0.057849 0
1.195827 -0.044046 0
1.232856 -0.007975 0
1.258012 0.035077 0
1.266081 0.073763 0
1.262635 0.105565 0
1.250888 0.130278 0
1.232503 0.148111 0
1.208646 0.159109 0
1.180541 0.163157 0
1.149629 0.160221 0
1.117415 0.150602 0
1.084884 0.135078 0
1.051474 0.114767 0
1.014603 0.090852 0
0.971427 0.064668 0
0.922509 0.037603 0
0.873471 0.008708 0
0.832505 -0.026573 0
0.807914 -0.069689 0
0.803521 -0.114686 0
0.817878 -0.151955 0
0.847809 -0.172380 0
0.889973 -0.170046 0
0.940815 -0.143255 0
0.996068 -0.095021 0
1.049982 -0.033621 0
1.093995 0.026944 0
1.122892 0.076356 0
1.138152 0.112916 0
1.141794 0.137301 0
1.135849 0.150682 0
1.122223 0.154429 0
1.102553 0.150021 0
1.078011 0.139127 0
1.049070 0.123816 0
1.015483 0.106618 0
0.976933 0.089877 0
0.934458 0.074329 0
0.891649 0.058067 0
0.854178 0.037490 0
0.827315 0.009702 0
0.813539 -0.025412 0
0.812370 -0.063959 0
0.821457 -0.099899 0
0.838272 -0.128086 0
0.860868 -0.144938 0
0.887805 -0.148251 0
0.917812 -0.137183 0
0.949569 -0.112443 0
0.981635 -0.076418 0
1.012373 -0.033145 0
1.039229 0.011166 0
1.059519 0.050483 0
1.072634 0.081577 0
1.078545 0.103059 0
1.077505 0.114704 0
1.069866 0.117375 0
1.056000 0.112868 0
1.036317 0.103568 0
1.011448 0.091856 0
0.982589 0.079347 0
0.951832 0.066318 0
0.922139 0.051810 0
0.896774 0.034478 0
0.878330 0.013662 0
0.867905 -0.010152 0
0.865205 -0.035251 0
0.869146 -0.059011 0
0.878392 -0.078770 0
0.891696 -0.092406 0
0.908003 -0.098474 0
0.926416 -0.096227 0
0.946149 -0.085674 0
0.966494 -0.067696 0
0.986812 -0.043357 0
1.006290 -0.024991 0
1.000000 -0.010142 0
0.998525 -0.031485 0
0.995472 -0.056358 0
0.990797 -0.088178 0
0.984954 -0.132082 0
0.980119 -0.196470 0
0.983817 -0.292467 0
1.018416 -0.478556 0
1.214262 -0.460084 0
1.165828 -0.233868 0
1.080157 -0.125014 0
1.036984 -0.075890 0
1.020911 -0.036633 0
1.011861 0.005645 0
0.992143 0.046928 0
0.958805 0.077987 0
0.912728 0.093257 0
0.857463 0.090558 0
0.799409 0.071375 0
0.749217 0.040169 0
0.719364 0.000212 0
0.717898 -0.044745 0
0.746708 -0.080774 0
0.801455 -0.087753 0
0.873667 -0.055327 0
0.947791 0.002597 0
1.004499 0.058761 0
1.038566 0.102270 0
1.057137 0.135964 0
1.063204 0.161481 0
1.058218 0.179073 0
1.043431 0.188355 0
1.019900 0.189048 0
0.987999 0.181792 0
0.946987 0.169027 0
0.895604 0.154792 0
0.834294 0.141841 0
0.767844 0.127571 0
0.706050 0.104036 0
0.660712 0.064038 0
0.638961 0.006613 0
0.638427 -0.061192 0
0.652330 -0.126776 0
0.675763 -0.178910 0
0.706929 -0.210487 0
0.745748 -0.217005 0
0.792038 -0.196786 0
0.844394 -0.152015 0
0.899901 -0.089074 0
0.953630 -0.018920 0
0.997236 0.044727 0
1.027662 0.094554 0
1.045702 0.130621 0
1.052449 0.154014 0
1.049060 0.166237 0
1.036466 0.169179 0
1.015105 0.165230 0
0.984941 0.157216 0
0.946202 0.147599 0
0.900881 0.136896 0
0.853895 0.122618 0
0.812257 0.100459 0
0.782212 0.067442 0
0.766582 0.024404 0
0.764095 -0.024169 0
0.770684 -0.072298 0
0.782810 -0.114700 0
0.798539 -0.147571 0
0.817186 -0.168202 0
0.838663 -0.174667 0
0.862892 -0.165999 0
0.889418 -0.142642 0
0.917330 -0.106752 0
0.945382 -0.062100 0
0.972037 -0.013946 0
0.994586 0.031400 0
1.011293 0.069293 0
1.021424 0.097832 0
1.024599 0.116556 0
1.020627 0.126233 0
1.009481 0.128557 0
0.991473 0.125615 0
0.967598 0.119113 0
0.939858 0.109648 0
0.911235 0.096545 0
0.885114 0.078520 0
0.864367 0.054846 0
0.850625 0.026197 0
0.844132 -0.005362 0
0.843936 -0.037030 0
0.848629 -0.065934 0
0.856982 -0.089614 0
0.868104 -0.106231 0
0.881389 -0.114545 0
0.896381 -0.113906 0
0.912647 -0.104345 0
0.929677 -0.086731 0
0.946850 -0.061986 0
0.963201 -0.043039 0
1.000000 -0.008792 0
0.996210 -0.027255 0
0.988023 -0.048754 0
0.974098 -0.076536 0
0.952142 -0.116120 0
0.918518 -0.178440 0
0.867705 -0.285195 0
0.796151 -0.571242 0
0.558762 -0.394612 0
0.500855 0.000000 0
0.432880 -0.017532 0
0.377063 -0.036938 0
0.392440 -0.024539 0
0.430123 0.018434 0
0.440945 0.074828 0
0.418391 0.123694 0
0.372222 0.155882 0
0.312636 0.165011 0
0.254193 0.145214 0
0.216087 0.092942 0
0.216226 0.013668 0
0.252724 -0.073258 0
0.310696 -0.141410 0
0.384880 -0.171011 0
0.474106 -0.154318 0
0.575877 -0.095763 0
0.675866 -0.017021 0
0.755119 0.052919 0
0.808379 0.105631 0
0.841352 0.147021 0
0.856301 0.178874 0
0.854263 0.201468 0
0.835466 0.215646 0
0.799646 0.223507 0
0.747456 0.227467 0
0.683257 0.227458 0
0.617279 0.218612 0
0.563512 0.192914 0
0.533051 0.144739 0
0.528409 0.075802 0
0.543741 -0.004284 0
0.567403 -0.083057 0
0.591069 -0.152024 0
0.613054 -0.206560 0
0.635387 -0.242373 0
0.661560 -0.255160 0
0.694646 -0.241904 0
0.735727 -0.202889 0
0.783364 -0.142862 0
0.834168 -0.070396 0
0.882407 0.002319 0
0.920782 0.064445 0
0.947637 0.112509 0
0.962847 0.147319 0
0.966570 0.170407 0
0.958921 0.183971 0
0.940004 0.190647 0
0.910522 0.192715 0
0.872936 0.190674 0
0.832311 0.182180 0
0.795499 0.162951 0
0.768535 0.129750 0
0.754130 0.083165 0
0.751267 0.027820 0
0.756702 -0.029512 0
0.766473 -0.082673 0
0.777826 -0.127753 0
0.789573 -0.162462 0
0.801782 -0.185064 0
0.815299 -0.193960 0
0.831135 -0.187941 0
0.849837 -0.166884 0
0.871151 -0.132386 0
0.894090 -0.087855 0
0.917239 -0.038041 0
0.938647 0.011224 0
0.955858 0.054737 0
0.967537 0.089751 0
0.972824 0.115498 0
0.971189 0.132492 0
0.962513 0.142020 0
0.947355 0.145448 0
0.927235 0.143469 0
0.904653 0.135709 0
0.882647 0.121060 0
0.863984 0.098677 0
0.850427 0.068966 0
0.842512 0.033896 0
0.839817 -0.003462 0
0.841345 -0.039749 0
0.845888 -0.072059 0
0.852486 -0.098245 0
0.860553 -0.116813 0
0.869836 -0.126751 0
0.880283 -0.127485 0
0.891853 -0.118969 0
0.904340 -0.101900 0
0.917262 -0.076882 0
0.929636 -0.057459 0
1.000000 -0.006360 0
0.994506 -0.019519 0
0.982522 -0.034254 0
0.961669 -0.052309 0
0.927319 -0.076514 0
0.870426 -0.112045 0
0.771542 -0.170110 0
0.588458 -0.268162 0
0.000000 -0.164796 0
0.000000 0.000000 0
0.000000 0.000000 0
-0.025758 -0.043675 0
-0.043517 -0.089685 0
-0.033776 -0.042853 0
-0.025646 0.058666 0
-0.032810 0.146713 0
-0.055460 0.199009 0
-0.081041 0.208579 0
-0.091954 0.167912 0
-0.069649 0.078129 0
-0.016025 -0.036425 0
0.044455 -0.139218 0
0.102681 -0.212936 0
0.162371 -0.251169 0
0.230597 -0.246333 0
0.311987 -0.199172 0
0.405402 -0.120490 0
0.497683 -0.030252 0
0.570442 0.049722 0
0.619083 0.113551 0
0.646164 0.166154 0
0.652615 0.209182 0
0.639141 0.243659 0
0.608117 0.269795 0
0.565751 0.285412 0
0.522908 0.284969 0
0.492421 0.261587 0
0.483444 0.211802 0
0.497026 0.139144 0
0.526551 0.053353 0
0.560757 -0.032379 0
0.589960 -0.108520 0
0.610979 -0.172430 0
0.623930 -0.223235 0
0.631579 -0.259000 0
0.638809 -0.276268 0
0.651272 -0.270957 0
0.673197 -0.240738 0
0.705504 -0.187520 0
0.745644 -0.117970 0
0.788922 -0.041891 0
0.828178 0.029320 0
0.858085 0.088550 0
0.877141 0.135075 0
0.884686 0.170158 0
0.880537 0.195739 0
0.865336 0.213625 0
0.841337 0.224280 0
0.812984 0.225806 0
0.786338 0.214331 0
0.767034 0.186393 0
0.758011 0.141828 0
0.758813 0.084712 0
0.766731 0.021834 0
0.778193 -0.039374 0
0.789941 -0.093420 0
0.799981 -0.137800 0
0.807482 -0.171528 0
0.812769 -0.193931 0
0.817205 -0.204024 0
0.822749 -0.200541 0
0.831173 -0.182661 0
0.843312 -0.151008 0
0.858787 -0.108192 0
0.876277 -0.058506 0
0.893979 -0.007220 0
0.909433 0.040402 0
0.920796 0.080864 0
0.926906 0.112902 0
0.927132 0.136542 0
0.921479 0.152389 0
0.910803 0.160892 0
0.896867 0.161813 0
0.882064 0.154234 0
0.868787 0.137213 0
0.858757 0.110739 0
0.852695 0.076316 0
0.850447 0.036806 0
0.851350 -0.004196 0
0.854478 -0.043102 0
0.858843 -0.077076 0
0.863672 -0.104280 0
0.868544 -0.123582 0
0.873424 -0.134275 0
0.878599 -0.135923 0
0.884477 -0.128402 0
0.891319 -0.112140 0
0.899022 -0.087282 0
0.906885 -0.067695 0
1.000000 -0.003307 0
0.993871 -0.009791 0
0.980575 -0.015928 0
0.957643 -0.021345 0
0.920362 -0.024888 0
0.859912 -0.022674 0
0.759619 -0.003238 0
0.585930 0.097115 0
0.271198 0.090666 0
0.000000 0.000000 0
0.000000 0.000000 0
0.000000 0.000000 0
-0.042029 -0.014871 0
-0.118872 0.000568 0
-0.151790 0.073866 0
-0.159415 0.153509 0
-0.157412 0.204108 0
-0.140132 0.201496 0
-0.092396 0.133812 0
-0.019227 0.017010 0
0.045498 -0.100438 0
0.091018 -0.191971 0
0.122201 -0.259333 0
0.144656 -0.298935 0
0.168545 -0.303943 0
0.204102 -0.270577 0
0.256044 -0.202725 0
0.321022 -0.112130 0
0.387370 -0.015777 0
0.439697 0.071292 0
0.474149 0.145335 0
0.490972 0.208484 0
0.491908 0.260137 0
0.481967 0.296892 0
0.469889 0.312675 0
0.466106 0.300788 0
0.478564 0.258078 0
0.509113 0.188313 0
0.553293 0.101637 0
0.602312 0.012075 0
0.644253 -0.067692 0
0.674524 -0.133281 0
0.691915 -0.185999 0
0.696585 -0.227167 0
0.690500 -0.257256 0
0.678073 -0.274857 0
0.666053 -0.276298 0
0.661770 -0.257127 0
0.670111 -0.215315 0
0.691344 -0.153819 0
0.721498 -0.080222 0
0.754354 -0.004723 0
0.782426 0.063541 0
0.802145 0.120712 0
0.812151 0.167005 0
0.812387 0.203316 0
0.804318 0.229842 0
0.791253 0.245064 0
0.777989 0.245670 0
0.769376 0.228129 0
0.768436 0.191277 0
0.775412 0.137973 0
0.788382 0.074447 0
0.804551 0.008441 0
0.820556 -0.052720 0
0.833941 -0.104459 0
0.843159 -0.145294 0
0.847405 -0.175252 0
0.846806 -0.194791 0
0.842667 -0.203944 0
0.837397 -0.201912 0
0.833873 -0.187452 0
0.834388 -0.160004 0
0.839793 -0.120823 0
0.849372 -0.073235 0
0.861382 -0.021934 0
0.873514 0.027919 0
0.883560 0.072275 0
0.890134 0.109160 0
0.892571 0.137917 0
0.890981 0.158347 0
0.886288 0.170058 0
0.880073 0.172206 0