# vtk DataFile Version 2.0
generated by CFD-lab course output (written by Tobias Neckel) 
ASCII

DATASET STRUCTURED_GRID
DIMENSIONS  99 19 1 
POINTS 1881 float

0.000000 0.000000 0
0.100000 0.000000 0
0.200000 0.000000 0
0.300000 0.000000 0
0.400000 0.000000 0
0.500000 0.000000 0
0.600000 0.000000 0
0.700000 0.000000 0
0.800000 0.000000 0
0.900000 0.000000 0
1.000000 0.000000 0
1.100000 0.000000 0
1.200000 0.000000 0
1.300000 0.000000 0
1.400000 0.000000 0
1.500000 0.000000 0
1.600000 0.000000 0
1.700000 0.000000 0
1.800000 0.000000 0
1.900000 0.000000 0
2.000000 0.000000 0
2.100000 0.000000 0
2.200000 0.000000 0
2.300000 0.000000 0
2.400000 0.000000 0
2.500000 0.000000 0
2.600000 0.000000 0
2.700000 0.000000 0
2.800000 0.000000 0
2.900000 0.000000 0
3.000000 0.000000 0
3.100000 0.000000 0
3.200000 0.000000 0
3.300000 0.000000 0
3.400000 0.000000 0
3.500000 0.000000 0
3.600000 0.000000 0
3.700000 0.000000 0
3.800000 0.000000 0
3.900000 0.000000 0
4.000000 0.000000 0
4.100000 0.000000 0
4.200000 0.000000 0
4.300000 0.000000 0
4.400000 0.000000 0
4.500000 0.000000 0
4.600000 0.000000 0
4.700000 0.000000 0
4.800000 0.000000 0
4.900000 0.000000 0
5.000000 0.000000 0
5.100000 0.000000 0
5.200000 0.000000 0
5.300000 0.000000 0
5.400000 0.000000 0
5.500000 0.000000 0
5.600000 0.000000 0
5.700000 0.000000 0
5.800000 0.000000 0
5.900000 0.000000 0
6.000000 0.000000 0
6.100000 0.000000 0
6.200000 0.000000 0
6.300000 0.000000 0
6.400000 0.000000 0
6.500000 0.000000 0
6.600000 0.000000 0
6.700000 0.000000 0
6.800000 0.000000 0
6.900000 0.000000 0
7.000000 0.000000 0
7.100000 0.000000 0
7.200000 0.000000 0
7.300000 0.000000 0
7.400000 0.000000 0
7.500000 0.000000 0
7.600000 0.000000 0
7.700000 0.000000 0
7.800000 0.000000 0
7.900000 0.000000 0
8.000000 0.000000 0
8.100000 0.000000 0
8.200000 0.000000 0
8.300000 0.000000 0
8.400000 0.000000 0
8.500000 0.000000 0
8.600000 0.000000 0
8.700000 0.000000 0
8.800000 0.000000 0
8.900000 0.000000 0
9.000000 0.000000 0
9.100000 0.000000 0
9.200000 0.000000 0
9.300000 0.000000 0
9.400000 0.000000 0
9.500000 0.000000 0
9.600000 0.000000 0
9.700000 0.000000 0
9.800000 0.000000 0
0.000000 0.100000 0
0.100000 0.100000 0
0.200000 0.100000 0
0.300000 0.100000 0
0.400000 0.100000 0
0.500000 0.100000 0
0.600000 0.100000 0
0.700000 0.100000 0
0.800000 0.100000 0
0.900000 0.100000 0
1.000000 0.100000 0
1.100000 0.100000 0
1.200000 0.100000 0
1.300000 0.100000 0
1.400000 0.100000 0
1.500000 0.100000 0
1.600000 0.100000 0
1.700000 0.100000 0
1.800000 0.100000 0
1.900000 0.100000 0
2.000000 0.100000 0
2.100000 0.100000 0
2.200000 0.100000 0
2.300000 0.100000 0
2.400000 0.100000 0
2.500000 0.100000 0
2.600000 0.100000 0
2.700000 0.100000 0
2.800000 0.100000 0
2.900000 0.100000 0
3.000000 0.100000 0
3.100000 0.100000 0
3.200000 0.100000 0
3.300000 0.100000 0
3.400000 0.100000 0
3.500000 0.100000 0
3.600000 0.100000 0
3.700000 0.100000 0
3.800000 0.100000 0
3.900000 0.100000 0
4.000000 0.100000 0
4.100000 0.100000 0
4.200000 0.100000 0
4.300000 0.100000 0
4.400000 0.100000 0
4.500000 0.100000 0
4.600000 0.100000 0
4.700000 0.100000 0
4.800000 0.100000 0
4.900000 0.100000 0
5.000000 0.100000 0
5.100000 0.100000 0
5.200000 0.100000 0
5.300000 0.100000 0
5.400000 0.100000 0
5.500000 0.100000 0
5.600000 0.100000 0
5.700000 0.100000 0
5.800000 0.100000 0
5.900000 0.100000 0
6.000000 0.100000 0
6.100000 0.100000 0
6.200000 0.100000 0
6.300000 0.100000 0
6.400000 0.100000 0
6.500000 0.100000 0
6.600000 0.100000 0
6.700000 0.100000 0
6.800000 0.100000 0
6.900000 0.100000 0
7.000000 0.100000 0
7.100000 0.100000 0
7.200000 0.100000 0
7.300000 0.100000 0
7.400000 0.100000 0
7.500000 0.100000 0
7.600000 0.100000 0
7.700000 0.100000 0
7.800000 0.100000 0
7.900000 0.100000 0
8.000000 0.100000 0
8.100000 0.100000 0
8.200000 0.100000 0
8.300000 0.100000 0
8.400000 0.100000 0
8.500000 0.100000 0
8.600000 0.100000 0
8.700000 0.100000 0
8.800000 0.100000 0
8.900000 0.100000 0
9.000000 0.100000 0
9.100000 0.100000 0
9.200000 0.100000 0
9.300000 0.100000 0
9.400000 0.100000 0
9.500000 0.100000 0
9.600000 0.100000 0
9.700000 0.100000 0
9.800000 0.100000 0
0.000000 0.200000 0
0.100000 0.200000 0
0.200000 0.200000 0
0.300000 0.200000 0
0.400000 0.200000 0
0.500000 0.200000 0
0.600000 0.200000 0
0.700000 0.200000 0
0.800000 0.200000 0
0.900000 0.200000 0
1.000000 0.200000 0
1.100000 0.200000 0
1.200000 0.200000 0
1.300000 0.200000 0
1.400000 0.200000 0
1.500000 0.200000 0
1.600000 0.200000 0
1.700000 0.200000 0
1.800000 0.200000 0
1.900000 0.200000 0
2.000000 0.200000 0
2.100000 0.200000 0
2.200000 0.200000 0
2.300000 0.200000 0
2.400000 0.200000 0
2.500000 0.200000 0
2.600000 0.200000 0
2.700000 0.200000 0
2.800000 0.200000 0
2.900000 0.200000 0
3.000000 0.200000 0
3.100000 0.200000 0
3.200000 0.200000 0
3.300000 0.200000 0
3.400000 0.200000 0
3.500000 0.200000 0
3.600000 0.200000 0
3.700000 0.200000 0
3.800000 0.200000 0
3.900000 0.200000 0
4.000000 0.200000 0
4.100000 0.200000 0
4.200000 0.200000 0
4.300000 0.200000 0
4.400000 0.200000 0
4.500000 0.200000 0
4.600000 0.200000 0
4.700000 0.200000 0
4.800000 0.200000 0
4.900000 0.200000 0
5.000000 0.200000 0
5.100000 0.200000 0
5.200000 0.200000 0
5.300000 0.200000 0
5.400000 0.200000 0
5.500000 0.200000 0
5.600000 0.200000 0
5.700000 0.200000 0
5.800000 0.200000 0
5.900000 0.200000 0
6.000000 0.200000 0
6.100000 0.200000 0
6.200000 0.200000 0
6.300000 0.200000 0
6.400000 0.200000 0
6.500000 0.200000 0
6.600000 0.200000 0
6.700000 0.200000 0
6.800000 0.200000 0
6.900000 0.200000 0
7.000000 0.200000 0
7.100000 0.200000 0
7.200000 0.200000 0
7.300000 0.200000 0
7.400000 0.200000 0
7.500000 0.200000 0
7.600000 0.200000 0
7.700000 0.200000 0
7.800000 0.200000 0
7.900000 0.200000 0
8.000000 0.200000 0
8.100000 0.200000 0
8.200000 0.200000 0
8.300000 0.200000 0
8.400000 0.200000 0
8.500000 0.200000 0
8.600000 0.200000 0
8.700000 0.200000 0
8.800000 0.200000 0
8.900000 0.200000 0
9.000000 0.200000 0
9.100000 0.200000 0
9.200000 0.200000 0
9.300000 0.200000 0
9.400000 0.200000 0
9.500000 0.200000 0
9.600000 0.200000 0
9.700000 0.200000 0
9.800000 0.200000 0
0.000000 0.300000 0
0.100000 0.300000 0
0.200000 0.300000 0
0.300000 0.300000 0
0.400000 0.300000 0
0.500000 0.300000 0
0.600000 0.300000 0
0.700000 0.300000 0
0.800000 0.300000 0
0.900000 0.300000 0
1.000000 0.300000 0
1.100000 0.300000 0
1.200000 0.300000 0
1.300000 0.300000 0
1.400000 0.300000 0
1.500000 0.300000 0
1.600000 0.300000 0
1.700000 0.300000 0
1.800000 0.300000 0
1.900000 0.300000 0
2.000000 0.300000 0
2.100000 0.300000 0
2.200000 0.300000 0
2.300000 0.300000 0
2.400000 0.300000 0
2.500000 0.300000 0
2.600000 0.300000 0
2.700000 0.300000 0
2.800000 0.300000 0
2.900000 0.300000 0
3.000000 0.300000 0
3.100000 0.300000 0
3.200000 0.300000 0
3.300000 0.300000 0
3.400000 0.300000 0
3.500000 0.300000 0
3.600000 0.300000 0
3.700000 0.300000 0
3.800000 0.300000 0
3.900000 0.300000 0
4.000000 0.300000 0
4.100000 0.300000 0
4.200000 0.300000 0
4.300000 0.300000 0
4.400000 0.300000 0
4.500000 0.300000 0
4.600000 0.300000 0
4.700000 0.300000 0
4.800000 0.300000 0
4.900000 0.300000 0
5.000000 0.300000 0
5.100000 0.300000 0
5.200000 0.300000 0
5.300000 0.300000 0
5.400000 0.300000 0
5.500000 0.300000 0
5.600000 0.300000 0
5.700000 0.300000 0
5.800000 0.300000 0
5.900000 0.300000 0
6.000000 0.300000 0
6.100000 0.300000 0
6.200000 0.300000 0
6.300000 0.300000 0
6.400000 0.300000 0
6.500000 0.300000 0
6.600000 0.300000 0
6.700000 0.300000 0
6.800000 0.300000 0
6.900000 0.300000 0
7.000000 0.300000 0
7.100000 0.300000 0
7.200000 0.300000 0
7.300000 0.300000 0
7.400000 0.300000 0
7.500000 0.300000 0
7.600000 0.300000 0
7.700000 0.300000 0
7.800000 0.300000 0
7.900000 0.300000 0
8.000000 0.300000 0
8.100000 0.300000 0
8.200000 0.300000 0
8.300000 0.300000 0
8.400000 0.300000 0
8.500000 0.300000 0
8.600000 0.300000 0
8.700000 0.300000 0
8.800000 0.300000 0
8.900000 0.300000 0
9.000000 0.300000 0
9.100000 0.300000 0
9.200000 0.300000 0
9.300000 0.300000 0
9.400000 0.300000 0
9.500000 0.300000 0
9.600000 0.300000 0
9.700000 0.300000 0
9.800000 0.300000 0
0.000000 0.400000 0
0.100000 0.400000 0
0.200000 0.400000 0
0.300000 0.400000 0
0.400000 0.400000 0
0.500000 0.400000 0
0.600000 0.400000 0
0.700000 0.400000 0
0.800000 0.400000 0
0.900000 0.400000 0
1.000000 0.400000 0
1.100000 0.400000 0
1.200000 0.400000 0
1.300000 0.400000 0
1.400000 0.400000 0
1.500000 0.400000 0
1.600000 0.400000 0
1.700000 0.400000 0
1.800000 0.400000 0
1.900000 0.400000 0
2.000000 0.400000 0
2.100000 0.400000 0
2.200000 0.400000 0
2.300000 0.400000 0
2.400000 0.400000 0
2.500000 0.400000 0
2.600000 0.400000 0
2.700000 0.400000 0
2.800000 0.400000 0
2.900000 0.400000 0
3.000000 0.400000 0
3.100000 0.400000 0
3.200000 0.400000 0
3.300000 0.400000 0
3.400000 0.400000 0
3.500000 0.400000 0
3.600000 0.400000 0
3.700000 0.400000 0
3.800000 0.400000 0
3.900000 0.400000 0
4.000000 0.400000 0
4.100000 0.400000 0
4.200000 0.400000 0
4.300000 0.400000 0
4.400000 0.400000 0
4.500000 0.400000 0
4.600000 0.400000 0
4.700000 0.400000 0
4.800000 0.400000 0
4.900000 0.400000 0
5.000000 0.400000 0
5.100000 0.400000 0
5.200000 0.400000 0
5.300000 0.400000 0
5.400000 0.400000 0
5.500000 0.400000 0
5.600000 0.400000 0
5.700000 0.400000 0
5.800000 0.400000 0
5.900000 0.400000 0
6.000000 0.400000 0
6.100000 0.400000 0
6.200000 0.400000 0
6.300000 0.400000 0
6.400000 0.400000 0
6.500000 0.400000 0
6.600000 0.400000 0
6.700000 0.400000 0
6.800000 0.400000 0
6.900000 0.400000 0
7.000000 0.400000 0
7.100000 0.400000 0
7.200000 0.400000 0
7.300000 0.400000 0
7.400000 0.400000 0
7.500000 0.400000 0
7.600000 0.400000 0
7.700000 0.400000 0
7.800000 0.400000 0
7.900000 0.400000 0
8.000000 0.400000 0
8.100000 0.400000 0
8.200000 0.400000 0
8.300000 0.400000 0
8.400000 0.400000 0
8.500000 0.400000 0
8.600000 0.400000 0
8.700000 0.400000 0
8.800000 0.400000 0
8.900000 0.400000 0
9.000000 0.400000 0
9.100000 0.400000 0
9.200000 0.400000 0
9.300000 0.400000 0
9.400000 0.400000 0
[...]
POINT_DATA 1881 

VECTORS velocity float
0.500000 0.000000 0
0.502142 0.000000 0
0.506950 0.000000 0
0.514848 0.000000 0
0.526264 0.000000 0
0.541523 0.000000 0
0.560638 0.000000 0
0.583015 0.000000 0
0.607206 0.000000 0
0.630815 0.000000 0
0.651769 0.000000 0
0.668912 0.000000 0
0.681847 0.000000 0
0.690515 0.000000 0
0.694994 0.000000 0
0.695444 0.000000 0
0.692146 0.000000 0
0.685520 0.000000 0
0.676164 0.000000 0
0.664842 0.000000 0
0.652439 0.000000 0
0.639910 0.000000 0
0.628208 0.000000 0
0.618226 0.000000 0
0.610748 0.000000 0
0.606424 0.000000 0
0.605758 0.000000 0
0.608902 0.000000 0
0.615373 0.000000 0
0.623957 0.000000 0
0.632839 0.000000 0
0.640050 0.000000 0
0.644052 0.000000 0
0.644098 0.000000 0
0.640053 0.000000 0
0.632210 0.000000 0
0.621144 0.000000 0
0.607563 0.000000 0
0.592223 0.000000 0
0.575875 0.000000 0
0.559257 0.000000 0
0.543094 0.000000 0
0.528113 0.000000 0
0.515061 0.000000 0
0.504735 0.000000 0
0.498003 0.000000 0
0.495739 0.000000 0
0.498461 0.000000 0
0.506183 0.000000 0
0.518531 0.000000 0
0.534749 0.000000 0
0.553676 0.000000 0
0.573744 0.000000 0
0.592995 0.000000 0
0.609241 0.000000 0
0.620468 0.000000 0
0.625456 0.000000 0
0.624097 0.000000 0
0.616862 0.000000 0
0.604533 0.000000 0
0.588166 0.000000 0
0.568996 0.000000 0
0.548352 0.000000 0
0.527569 0.000000 0
0.507937 0.000000 0
0.490659 0.000000 0
0.476806 0.000000 0
0.467239 0.000000 0
0.462477 0.000000 0
0.462489 0.000000 0
0.466547 0.000000 0
0.473811 0.000000 0
0.483598 0.000000 0
0.495402 0.000000 0
0.508845 0.000000 0
0.523564 0.000000 0
0.539070 0.000000 0
0.554609 0.000000 0
0.569085 0.000000 0
0.581125 0.000000 0
0.589322 0.000000 0
0.592657 0.000000 0
0.590783 0.000000 0
0.583777 0.000000 0
0.571997 0.000000 0
0.556158 0.000000 0
0.537379 0.000000 0
0.517183 0.000000 0
0.497417 0.000000 0
0.480022 0.000000 0
0.466677 0.000000 0
0.458446 0.000000 0
0.455546 0.000000 0
0.457231 0.000000 0
0.462233 0.000000 0
0.469530 0.000000 0
0.478501 0.000000 0
0.488953 0.000000 0
0.501353 0.000000 0
1.000000 -0.002162 0
1.004839 -0.006982 0
1.015080 -0.012731 0
1.031490 -0.019337 0
1.055006 -0.026692 0
1.086481 -0.034383 0
1.126236 -0.041486 0
1.173311 -0.046546 0
1.224884 -0.047776 0
1.274884 -0.044546 0
1.318603 -0.038097 0
1.353981 -0.030079 0
1.380621 -0.021595 0
1.398678 -0.013142 0
1.408359 -0.004927 0
1.409916 0.002846 0
1.403831 0.009918 0
1.390918 0.015972 0
1.372387 0.020666 0
1.349812 0.023710 0
1.325025 0.024915 0
1.299996 0.024212 0
1.276695 0.021663 0
1.256954 0.017439 0
1.242354 0.011785 0
1.234184 0.004974 0
1.233441 -0.002487 0
1.240558 -0.009612 0
1.254840 -0.015045 0
1.273971 -0.017449 0
1.294169 -0.016072 0
1.311114 -0.011192 0
1.321273 -0.004031 0
1.322851 0.004010 0
1.315689 0.011890 0
1.300582 0.018910 0
1.278851 0.024649 0
1.252038 0.028922 0
1.221721 0.031687 0
1.189433 0.032963 0
1.156655 0.032776 0
1.124832 0.031138 0
1.095398 0.028025 0
1.069779 0.023370 0
1.049378 0.017049 0
1.035497 0.008985 0
1.029235 -0.000470 0
1.031418 -0.010455 0
1.042456 -0.020081 0
1.062163 -0.028576 0
1.089646 -0.035152 0
1.123290 -0.038998 0
1.160759 -0.039318 0
1.198902 -0.035493 0
1.233798 -0.027466 0
1.261185 -0.016207 0
1.277373 -0.003620 0
1.280445 0.008601 0
1.270970 0.019568 0
1.250635 0.028698 0
1.221673 0.035535 0
1.186646 0.039809 0
1.148257 0.041422 0
1.109190 0.040408 0
1.071979 0.036903 0
1.038878 0.031124 0
1.011707 0.023413 0
0.991659 0.014322 0
0.979166 0.004742 0
0.973954 -0.004077 0
0.975325 -0.011330 0
0.982341 -0.017059 0
0.994173 -0.021599 0
1.010229 -0.025255 0
1.030121 -0.028168 0
1.053519 -0.030230 0
1.079868 -0.031048 0
1.108094 -0.030017 0
1.136427 -0.026517 0
1.162434 -0.020237 0
1.183261 -0.011531 0
1.196110 -0.001461 0
1.198998 0.008878 0
1.191631 0.018784 0
1.174820 0.027616 0
1.150079 0.034613 0
1.119604 0.038968 0
1.086171 0.039955 0
1.052901 0.037155 0
1.022842 0.030735 0
0.998444 0.021571 0
0.981112 0.011126 0
0.971077 0.001210 0
0.967727 -0.006691 0
0.969993 -0.012302 0
0.976681 -0.016270 0
0.986921 -0.019424 0
1.000337 -0.022852 0
1.017338 -0.024797 0
1.000000 -0.004870 0
1.004989 -0.015126 0
1.015216 -0.026679 0
1.031493 -0.039949 0
1.055078 -0.055005 0
1.087490 -0.071228 0
1.130049 -0.086807 0
1.182727 -0.098619 0
1.243744 -0.101553 0
1.301023 -0.093715 0
1.348228 -0.079104 0
1.384685 -0.062013 0
1.411570 -0.044686 0
1.429918 -0.027735 0
1.440004 -0.011238 0
1.441781 0.004524 0
1.435507 0.018989 0
1.421888 0.031431 0
1.402187 0.041089 0
1.378103 0.047343 0
1.351627 0.049794 0
1.324899 0.048306 0
1.300056 0.043018 0
1.279043 0.034319 0
1.263462 0.022749 0
1.254573 0.008901 0
1.253514 -0.006373 0
1.261316 -0.021389 0
1.277952 -0.033392 0
1.301327 -0.039303 0
1.327214 -0.037117 0
1.350156 -0.027082 0
1.365183 -0.011723 0
1.369731 0.005586 0
1.364096 0.022269 0
1.349698 0.036840 0
1.328328 0.048545 0
1.301813 0.057130 0
1.271839 0.062602 0
1.239932 0.065061 0
1.207501 0.064594 0
1.175873 0.061249 0
1.146330 0.055043 0
1.120077 0.046008 0
1.098169 0.034270 0
1.081378 0.020130 0
1.070156 0.004066 0
1.064952 -0.013234 0
1.066386 -0.030758 0
1.074886 -0.047199 0
1.090566 -0.061131 0
1.113292 -0.071113 0
1.142556 -0.075607 0
1.176968 -0.073031 0
1.213823 -0.062273 0
1.249020 -0.043565 0
1.277470 -0.019250 0
1.294349 0.006410 0
1.297654 0.029812 0
1.288833 0.049294 0
1.270106 0.063983 0
1.244009 0.073409 0
1.213178 0.077448 0
1.180173 0.076270 0
1.147324 0.070304 0
1.116564 0.060263 0
1.089278 0.047210 0
1.066196 0.032532 0
1.047434 0.017697 0
1.032783 0.003832 0
1.022153 -0.008397 0
1.015407 -0.018858 0
1.012533 -0.027898 0
1.013830 -0.035957 0
1.019838 -0.043297 0
1.031165 -0.049751 0
1.048056 -0.054577 0
1.070037 -0.056560 0
1.095807 -0.054340 0
1.123341 -0.046832 0
1.150020 -0.033676 0
1.172764 -0.015738 0
1.188443 0.004476 0
1.195062 0.024173 0
1.192839 0.041546 0
1.182944 0.055208 0
1.167096 0.063899 0
1.147304 0.066695 0
1.125576 0.063322 0
1.103646 0.054450 0
1.082801 0.041724 0
1.063853 0.027361 0
1.047279 0.013379 0
1.033543 0.001081 0
1.023078 -0.008956 0
1.015951 -0.016931 0
1.012106 -0.023658 0
1.011534 -0.030416 0
1.014191 -0.034482 0
1.000000 -0.007172 0
1.004005 -0.022224 0
1.012503 -0.039239 0
1.026544 -0.059197 0
1.047923 -0.082678 0
1.079277 -0.109330 0
1.123944 -0.136702 0
1.184358 -0.160235 0
1.264463 -0.166084 0
1.331760 -0.149051 0
1.379668 -0.121757 0
1.413015 -0.093409 0
1.436683 -0.066827 0
1.453260 -0.041577 0
1.462790 -0.016793 0
1.464024 0.007338 0
1.456438 0.029804 0
1.440476 0.049284 0
1.417518 0.064442 0
1.389501 0.074261 0
1.358683 0.078109 0
1.327504 0.075775 0
1.298416 0.067514 0
1.273609 0.054029 0
1.254699 0.036256 0
1.242627 0.014935 0
1.238165 -0.009214 0
1.243045 -0.034034 0
1.258517 -0.055038 0
1.283496 -0.066697 0
1.314404 -0.064896 0
1.345407 -0.049164 0
1.369321 -0.023617 0
1.380393 0.005085 0
1.378059 0.031923 0
1.365005 0.054679 0
1.344005 0.072532 0
1.317461 0.085409 0
1.287301 0.093564 0
1.255066 0.097297 0
1.222048 0.096831 0
1.189402 0.092303 0
1.158195 0.083815 0
1.129409 0.071525 0
1.103872 0.055743 0
1.082123 0.036993 0
1.064233 0.015952 0
1.049777 -0.006689 0
1.038446 -0.030016 0
1.031169 -0.052753 0
1.029786 -0.073553 0
1.036507 -0.090982 0
1.053067 -0.102987 0
1.079562 -0.106752 0
1.114118 -0.099513 0
1.153157 -0.079851 0
1.191787 -0.048949 0
1.224218 -0.011586 0
1.244887 0.025078 0
1.252403 0.056238 0
1.248533 0.080353 0
1.235482 0.096734 0
1.215601 0.105254 0
1.191170 0.106259 0
1.164245 0.100509 0
1.136539 0.089167 0
1.109354 0.073778 0
1.083565 0.056163 0
1.059645 0.038152 0
1.037659 0.021199 0
1.017385 0.006042 0
0.998809 -0.007442 0
0.982534 -0.020025 0
0.970177 -0.032561 0
0.963912 -0.045503 0
0.965387 -0.058447 0
0.975073 -0.069919 0
0.992208 -0.077766 0
1.015181 -0.079819 0
1.041943 -0.074449 0
1.070284 -0.060957 0
1.097941 -0.039887 0
1.122469 -0.013424 0
1.141043 0.014383 0
1.152070 0.039729 0
1.155823 0.060351 0
1.153133 0.074605 0
1.145084 0.081472 0
1.132781 0.080811 0
1.117222 0.073508 0
1.099323 0.061362 0
1.080007 0.046647 0
1.060210 0.031520 0
1.040732 0.017509 0
1.022260 0.005289 0
1.005535 -0.005299 0
0.991310 -0.015007 0
0.980386 -0.024936 0
0.973483 -0.031384 0
1.000000 -0.008894 0
1.002589 -0.027650 0
1.008293 -0.049218 0
1.018266 -0.075362 0
1.034727 -0.107721 0
1.061578 -0.147229 0
1.105288 -0.191882 0
1.173807 -0.239146 0
1.290720 -0.248970 0
1.362356 -0.208921 0
1.397776 -0.160342 0
1.417180 -0.119020 0
1.430698 -0.084933 0
1.442622 -0.053845 0
1.452335 -0.022008 0
1.455133 0.010868 0
1.447885 0.042529 0
1.430531 0.070342 0
1.404721 0.092055 0
1.372705 0.106168 0
1.337005 0.111784 0
1.300395 0.108568 0
1.265803 0.096908 0
1.235880 0.078035 0
1.212227 0.053743 0
1.194808 0.025450 0
1.182490 -0.006778 0
1.175444 -0.041724 0
1.178001 -0.073831 0
1.192605 -0.095184 0
1.219642 -0.099030 0
1.256103 -0.082009 0
1.294441 -0.046722 0
1.323837 -0.003152 0
1.335937 0.037661 0
1.332817 0.070893 0
1.318866 0.096086 0
1.297416 0.113829 0
1.270878 0.124994 0
1.241020 0.130310 0
1.209224 0.130253 0
1.176648 0.125097 0
1.144322 0.115031 0
1.113144 0.100326 0
1.083755 0.081551 0
1.056211 0.059765 0
1.029592 0.036408 0
1.002271 0.012550 0
0.973500 -0.012149 0
0.945657 -0.038535 0
0.924964 -0.066464 0
0.917311 -0.094387 0
0.924783 -0.118655 0
0.946214 -0.134077 0
0.978799 -0.135865 0
1.019032 -0.121234 0
1.062970 -0.090315 0
1.106104 -0.046697 0
1.142868 0.001621 0
1.167805 0.045644 0
1.180569 0.080900 0
1.182677 0.106336 0
1.175964 0.121757 0
1.162318 0.127624 0
1.143517 0.124932 0
1.121100 0.115152 0
1.096268 0.100180 0
1.069782 0.082237 0
1.041922 0.063599 0
1.012711 0.046088 0
0.982544 0.030449 0
0.952898 0.015989 0
0.926441 0.000733 0
0.906268 -0.017335 0
0.895029 -0.038507 0
0.893870 -0.060911 0
0.902138 -0.081397 0
0.918154 -0.096668 0
0.939955 -0.104074 0
0.965638 -0.101936 0
0.993456 -0.089677 0
1.021807 -0.067927 0
1.049128 -0.038630 0
1.073569 -0.005433 0
1.092637 0.026761 0
1.105357 0.054142 0
1.111733 0.074636 0
1.112076 0.087045 0
1.106825 0.091182 0
1.096483 0.087905 0
1.081636 0.078937 0
1.062995 0.066473 0
1.041429 0.052653 0
1.018007 0.039029 0
0.994092 0.026240 0
0.971397 0.014019 0
0.951800 0.001491 0
0.936909 -0.012589 0
0.928173 -0.022543 0
1.000000 -0.009776 0
1.000657 -0.030531 0
1.002326 -0.054912 0
1.005869 -0.085619 0
1.013265 -0.125973 0
1.028845 -0.179879 0
1.062005 -0.248931 0
1.130139 -0.345679 0
1.303516 -0.354636 0
1.345719 -0.256091 0
1.337056 -0.176572 0
1.324586 -0.126333 0
1.316917 -0.092273 0
1.318357 -0.063221 0
1.329160 -0.029312 0
1.340452 0.011780 0
1.339898 0.054398 0
1.327118 0.092441 0
1.304187 0.122260 0
1.273238 0.141969 0
1.236473 0.150414 0
1.196608 0.146974 0
1.157027 0.132027 0
1.121125 0.107613 0
1.090191 0.077341 0
1.061758 0.044685 0
1.032105 0.010165 0
1.000675 -0.029533 0
0.974333 -0.072191 0
0.966694 -0.108338 0
0.983386 -0.128401 0
1.022078 -0.123976 0
1.075457 -0.091355 0
1.132210 -0.036406 0
1.177933 0.022942 0
1.203389 0.071746 0
1.212527 0.107930 0
1.209686 0.133394 0
1.197774 0.149955 0
1.178937 0.158947 0
1.154898 0.161199 0
1.127092 0.157200 0
1.096588 0.147315 0
1.063754 0.132088 0
1.027807 0.112672 0
0.987038 0.091152 0
0.940627 0.069890 0
0.891223 0.049405 0
0.845303 0.026601 0
0.810049 -0.004212 0
0.790407 -0.045201 0
0.787520 -0.090795 0
0.799093 -0.131884 0
0.822122 -0.160764 0
0.854105 -0.172329 0
0.892900 -0.164025 0
0.936254 -0.136027 0
0.981518 -0.091491 0
1.025360 -0.036627 0
1.062497 0.018533 0
1.088740 0.065477 0
1.104234 0.101336 0
1.109917 0.125609 0
1.107010 0.138702 0
1.096759 0.141725 0
1.080222 0.136413 0
1.058094 0.125092 0
1.030664 0.110505 0
0.998158 0.095219 0
0.961551 0.080573 0
0.923425 0.065852 0
0.888001 0.048658 0
0.859887 0.026604 0
0.842106 -0.001149 0
0.835198 -0.033104 0
0.837882 -0.065554 0
0.848123 -0.094200 0
0.864034 -0.115582 0
0.884150 -0.127304 0
0.907313 -0.127953 0
0.932488 -0.117128 0
0.958655 -0.095562 0
0.984767 -0.065191 0
1.009696 -0.029130 0
1.031723 0.007938 0
1.048828 0.041253 0
1.060290 0.067884 0
1.065780 0.086378 0
1.065188 0.096401 0
1.058554 0.098695 0
1.046090 0.094847 0
1.028269 0.086852 0
1.005992 0.076507 0
0.980762 0.064845 0
0.954740 0.051898 0
0.930532 0.036992 0
0.910686 0.019481 0
0.897019 -0.001308 0
0.890773 -0.016139 0
1.000000 -0.009562 0
0.998353 -0.029984 0
0.995011 -0.054420 0
0.989954 -0.086285 0
0.983632 -0.130682 0
0.978153 -0.195964 0
0.980853 -0.293180 0
1.013672 -0.480662 0
1.204862 -0.464542 0
1.150132 -0.242452 0
1.056697 -0.139210 0
1.004168 -0.098885 0
0.969090 -0.078710 0
0.954771 -0.066093 0
0.966617 -0.044110 0
0.998676 0.000124 0
1.025369 0.055857 0
1.035838 0.106047 0
1.033560 0.145928 0
1.018813 0.173877 0
0.991330 0.188411 0
0.951334 0.188013 0
0.899332 0.172395 0
0.836808 0.144882 0
0.768458 0.113122 0
0.703427 0.083550 0
0.652456 0.054318 0
0.623166 0.016055 0
0.616646 -0.039847 0
0.631163 -0.104241 0
0.664846 -0.154426 0
0.715388 -0.174088 0
0.779898 -0.156851 0
0.853985 -0.105627 0
0.929465 -0.033521 0
0.991832 0.036296 0
1.033320 0.089785 0
1.057832 0.128577 0
1.068430 0.155738 0
1.067301 0.173182 0
1.056187 0.182093 0
1.036308 0.183402 0
1.008026 0.178364 0
0.970617 0.169103 0
0.922927 0.158263 0
0.865621 0.146942 0
0.803945 0.132224 0
0.747911 0.107877 0
0.708038 0.069029 0
0.689593 0.016367 0
0.689676 -0.043927 0
0.701209 -0.103067 0
0.719235 -0.153253 0
0.741915 -0.189087 0
0.769250 -0.206644 0
0.801637 -0.203388 0
0.838823 -0.178940 0
0.879520 -0.135807 0
0.921549 -0.079361 0
0.961888 -0.017740 0
0.995323 0.039159 0
1.019419 0.085156 0
1.033984 0.118979 0
1.039328 0.140778 0
1.035897 0.151716 0
1.024022 0.153814 0
1.003866 0.149735 0
0.975768 0.142169 0
0.941032 0.132708 0
0.902739 0.120818 0
0.865672 0.103997 0
0.834937 0.079526 0
0.814077 0.046628 0
0.804073 0.007355 0
0.803447 -0.034282 0
0.809529 -0.073834 0
0.820116 -0.107547 0
0.833883 -0.132695 0
0.850183 -0.147354 0
0.868707 -0.150277 0
0.889157 -0.141022 0
0.911043 -0.120210 0
0.933647 -0.089676 0
0.956073 -0.052392 0
0.977238 -0.012373 0
0.995231 0.025574 0
1.008620 0.057681 0
1.016593 0.082143 0
1.018618 0.098404 0
1.014395 0.107000 0
1.003941 0.109220 0
0.987758 0.106570 0
0.967041 0.100159 0
0.943746 0.090280 0
0.920380 0.076469 0
0.899503 0.058074 0
0.883173 0.035004 0
0.872622 0.007324 0
0.868480 -0.012210 0
1.000000 -0.008135 0
0.996093 -0.025543 0
0.987695 -0.046501 0
0.973479 -0.074225 0
0.951135 -0.114160 0
0.916972 -0.177097 0
0.865366 -0.284453 0
0.792561 -0.569687 0
0.553669 -0.393303 0
0.491963 0.000000 0
0.419142 -0.020471 0
0.352303 -0.038729 0
0.344187 -0.042882 0
0.371750 -0.060753 0
0.410060 -0.073222 0
0.466968 -0.046978 0
0.535540 0.017231 0
0.587889 0.084244 0
0.620111 0.139280 0
0.631459 0.184195 0
0.618778 0.217891 0
0.581541 0.238975 0
0.521924 0.246563 0
0.447114 0.238498 0
0.371422 0.210734 0
0.314028 0.160700 0
0.290276 0.090437 0
0.303887 0.006281 0
0.342985 -0.080191 0
0.390155 -0.156547 0
0.438995 -0.212636 0
0.491182 -0.239028 0
0.550555 -0.229950 0
0.619312 -0.185975 0
0.696193 -0.114908 0
0.774344 -0.032112 0
0.839429 0.041926 0
0.885504 0.098279 0
0.914862 0.140482 0
0.928921 0.171185 0
0.928596 0.192188 0
0.914252 0.205356 0
0.885797 0.213002 0
0.843654 0.217183 0
0.790851 0.217665 0
0.734888 0.210134 0
0.686556 0.187602 0
0.655077 0.145314 0
0.643521 0.084923 0
0.648558 0.014157 0
0.663013 -0.056810 0
0.679959 -0.120349 0
0.696353 -0.172587 0
0.712154 -0.210780 0
0.729139 -0.232055 0
0.749705 -0.233604 0
0.775587 -0.213916 0
0.806920 -0.174220 0
0.842186 -0.118999 0
0.878843 -0.055245 0
0.913203 0.007943 0
0.940728 0.062672 0
0.959912 0.105697 0
0.970110 0.136785 0
0.970994 0.157028 0
0.962401 0.168440 0
0.944570 0.173341 0
0.918741 0.173336 0
0.887801 0.168245 0
0.856225 0.155930 0
0.828911 0.133653 0
0.809426 0.100253 0
0.798945 0.057469 0
0.796522 0.009483 0
0.800077 -0.038559 0
0.807216 -0.082223 0
0.816226 -0.118553 0
0.826261 -0.145650 0
0.837214 -0.162130 0
0.849436 -0.166929 0
0.863359 -0.159468 0
0.879138 -0.140057 0
0.896467 -0.110224 0
0.914619 -0.072724 0
0.932593 -0.031222 0
0.949006 0.009869 0
0.962056 0.046519 0
0.970596 0.076377 0
0.973839 0.098596 0
0.971344 0.113369 0
0.963142 0.121482 0
0.949913 0.123750 0
0.933082 0.120517 0
0.914691 0.111505 0
0.896986 0.096141 0
0.881895 0.074199 0
0.870645 0.046362 0
0.863686 0.013385 0
0.861009 -0.009611 0
1.000000 -0.005656 0
0.994460 -0.017674 0
0.982376 -0.031792 0
0.961372 -0.049710 0
0.926800 -0.074167 0
0.869592 -0.110194 0
0.770316 -0.168771 0
0.586750 -0.266749 0
0.000000 -0.163940 0
0.000000 0.000000 0
0.000000 0.000000 0
-0.031060 -0.034523 0
-0.050231 -0.098163 0
-0.023084 -0.131971 0
-0.010275 -0.139332 0
0.016063 -0.125361 0
0.076107 -0.065069 0
0.154706 0.021472 0
0.217162 0.102355 0
0.251327 0.175208 0
0.255796 0.238329 0
0.237308 0.284873 0
0.205474 0.306833 0
0.175008 0.295395 0
0.161662 0.246220 0
0.174033 0.164707 0
0.210585 0.064466 0
0.258584 -0.036653 0
0.303841 -0.126120 0
0.341548 -0.200261 0
0.372164 -0.255456 0
0.400578 -0.285646 0
0.433873 -0.284983 0
0.477969 -0.251269 0
0.534762 -0.188556 0
0.601384 -0.106944 0
0.669311 -0.021380 0
0.724898 0.053139 0
0.763830 0.112317 0
0.786188 0.159443 0
0.792029 0.196757 0
0.781637 0.226196 0
0.756442 0.248959 0
0.720496 0.264046 0
0.681463 0.267026 0
0.649282 0.251237 0
0.632113 0.212038 0
0.632463 0.150917 0
0.646929 0.075553 0
0.669015 -0.003119 0
0.691123 -0.075323 0
0.709068 -0.136403 0
0.721326 -0.185447 0
0.728405 -0.221875 0
0.732673 -0.244201 0
0.737845 -0.249843 0
0.747750 -0.236158 0
0.764715 -0.202409 0
0.788614 -0.151288 0
0.817193 -0.088760 0
0.847110 -0.022730 0
0.873722 0.038444 0
0.893838 0.089594 0
0.905989 0.129694 0
0.909382 0.159421 0
0.903837 0.180234 0
0.890151 0.193391 0
0.870550 0.198934 0
0.848711 0.195221 0
0.828929 0.179705 0
0.814659 0.150796 0
0.807401 0.109493 0
0.806669 0.059533 0
0.810823 0.006225 0
0.817782 -0.044974 0
0.825595 -0.089982 0
0.832923 -0.126592 0
0.839138 -0.153684 0
0.844369 -0.170532 0
0.849414 -0.176426 0
0.855407 -0.170728 0
0.863327 -0.153320 0
0.873558 -0.125158 0
0.885761 -0.088521 0
0.899028 -0.046763 0
0.912125 -0.003892 0
0.923336 0.036087 0
0.931302 0.070357 0
0.935119 0.097654 0
0.934343 0.117695 0
0.929095 0.130650 0
0.920161 0.136628 0
0.908935 0.135379 0
0.897139 0.126375 0
0.886394 0.109265 0
0.877828 0.084415 0
0.871919 0.053213 0
0.868577 0.016959 0
0.867330 -0.008088 0
1.000000 -0.002591 0
0.993905 -0.007908 0
0.980635 -0.013397 0
0.957717 -0.018638 0
0.920444 -0.022375 0
0.860024 -0.020612 0
0.759821 -0.001611 0
0.586387 0.097521 0
0.272487 0.090337 0
0.000000 0.000000 0
0.000000 0.000000 0
0.000000 0.000000 0
-0.035435 -0.051774 0
-0.113633 -0.100714 0
-0.173808 -0.112374 0
-0.195691 -0.133364 0
-0.175874 -0.121416 0
-0.114970 -0.056813 0
-0.042465 0.042657 0
0.012606 0.145560 0
0.046005 0.231913 0
0.067547 0.289306 0
0.087868 0.308873 0
0.119176 0.282321 0
0.168906 0.211722 0
0.235501 0.111787 0
0.306174 0.005889 0
0.363188 -0.086978 0
0.402949 -0.163162 0
0.425691 -0.224876 0
0.433293 -0.271665 0
0.431006 -0.300738 0
0.427604 -0.307344 0
0.433077 -0.286867 0
0.454502 -0.238328 0
0.492852 -0.166666 0
0.542927 -0.081593 0
0.594078 0.003755 0
0.634474 0.079188 0
0.660652 0.142981 0
0.671967 0.196734 0
0.669472 0.240939 0
0.656660 0.274139 0
0.639914 0.292160 0
0.627479 0.288878 0
0.626505 0.259485 0
0.639855 0.204425 0
0.665353 0.130503 0
0.697772 0.048377 0
0.730118 -0.030030 0
0.756450 -0.096860 0
0.774528 -0.150550 0
0.783406 -0.191924 0
0.783312 -0.222130 0
0.776097 -0.241501 0
0.765550 -0.248685 0
0.756846 -0.240789 0
0.754848 -0.215088 0
0.762054 -0.171480 0
0.777714 -0.113743 0
0.798668 -0.048589 0
0.820587 0.015940 0
0.838966 0.073426 0
0.851489 0.121238 0
0.857081 0.159176 0
0.855756 0.187667 0
0.848801 0.206625 0
0.838799 0.214773 0
0.829095 0.209864 0
0.822717 0.189981 0
0.821318 0.155180 0
0.824889 0.108244 0
0.832275 0.054049 0
0.841891 -0.001628 0
0.851819 -0.053330 0
0.860472 -0.097364 0
0.866693 -0.132096 0
0.869832 -0.157097 0
0.869943 -0.172409 0
0.867926 -0.177972 0
0.865382 -0.173385 0
0.864127 -0.158210 0
0.865522 -0.132660 0
0.870010 -0.098195 0
0.877082 -0.057588 0