# vtk DataFile Version 2.0
generated by CFD-lab course output (written by Tobias Neckel) 
ASCII

DATASET STRUCTURED_GRID
DIMENSIONS  99 19 1 
POINTS 1881 float

0.000000 0.000000 0
0.100000 0.000000 0
0.200000 0.000000 0
0.300000 0.000000 0
0.400000 0.000000 0
0.500000 0.000000 0
0.600000 0.000000 0
0.700000 0.000000 0
0.800000 0.000000 0
0.900000 0.000000 0
1.000000 0.000000 0
1.100000 0.000000 0
1.200000 0.000000 0
1.300000 0.000000 0
1.400000 0.000000 0
1.500000 0.000000 0
1.600000 0.000000 0
1.700000 0.000000 0
1.800000 0.000000 0
1.900000 0.000000 0
2.000000 0.000000 0
2.100000 0.000000 0
2.200000 0.000000 0
2.300000 0.000000 0
2.400000 0.000000 0
2.500000 0.000000 0
2.600000 0.000000 0
2.700000 0.000000 0
2.800000 0.000000 0
2.900000 0.000000 0
3.000000 0.000000 0
3.100000 0.000000 0
3.200000 0.000000 0
3.300000 0.000000 0
3.400000 0.000000 0
3.500000 0.000000 0
3.600000 0.000000 0
3.700000 0.000000 0
3.800000 0.000000 0
3.900000 0.000000 0
4.000000 0.000000 0
4.100000 0.000000 0
4.200000 0.000000 0
4.300000 0.000000 0
4.400000 0.000000 0
4.500000 0.000000 0
4.600000 0.000000 0
4.700000 0.000000 0
4.800000 0.000000 0
4.900000 0.000000 0
5.000000 0.000000 0
5.100000 0.000000 0
5.200000 0.000000 0
5.300000 0.000000 0
5.400000 0.000000 0
5.500000 0.000000 0
5.600000 0.000000 0
5.700000 0.000000 0
5.800000 0.000000 0
5.900000 0.000000 0
6.000000 0.000000 0
6.100000 0.000000 0
6.200000 0.000000 0
6.300000 0.000000 0
6.400000 0.000000 0
6.500000 0.000000 0
6.600000 0.000000 0
6.700000 0.000000 0
6.800000 0.000000 0
6.900000 0.000000 0
7.000000 0.000000 0
7.100000 0.000000 0
7.200000 0.000000 0
7.300000 0.000000 0
7.400000 0.000000 0
7.500000 0.000000 0
7.600000 0.000000 0
7.700000 0.000000 0
7.800000 0.000000 0
7.900000 0.000000 0
8.000000 0.000000 0
8.100000 0.000000 0
8.200000 0.000000 0
8.300000 0.000000 0
8.400000 0.000000 0
8.500000 0.000000 0
8.600000 0.000000 0
8.700000 0.000000 0
8.800000 0.000000 0
8.900000 0.000000 0
9.000000 0.000000 0
9.100000 0.000000 0
9.200000 0.000000 0
9.300000 0.000000 0
9.400000 0.000000 0
9.500000 0.000000 0
9.600000 0.000000 0
9.700000 0.000000 0
9.800000 0.000000 0
0.000000 0.100000 0
0.100000 0.100000 0
0.200000 0.100000 0
0.300000 0.100000 0
0.400000 0.100000 0
0.500000 0.100000 0
0.600000 0.100000 0
0.700000 0.100000 0
0.800000 0.100000 0
0.900000 0.100000 0
1.000000 0.100000 0
1.100000 0.100000 0
1.200000 0.100000 0
1.300000 0.100000 0
1.400000 0.100000 0
1.500000 0.100000 0
1.600000 0.100000 0
1.700000 0.100000 0
1.800000 0.100000 0
1.900000 0.100000 0
2.000000 0.100000 0
2.100000 0.100000 0
2.200000 0.100000 0
2.300000 0.100000 0
2.400000 0.100000 0
2.500000 0.100000 0
2.600000 0.100000 0
2.700000 0.100000 0
2.800000 0.100000 0
2.900000 0.100000 0
3.000000 0.100000 0
3.100000 0.100000 0
3.200000 0.100000 0
3.300000 0.100000 0
3.400000 0.100000 0
3.500000 0.100000 0
3.600000 0.100000 0
3.700000 0.100000 0
3.800000 0.100000 0
3.900000 0.100000 0
4.000000 0.100000 0
4.100000 0.100000 0
4.200000 0.100000 0
4.300000 0.100000 0
4.400000 0.100000 0
4.500000 0.100000 0
4.600000 0.100000 0
4.700000 0.100000 0
4.800000 0.100000 0
4.900000 0.100000 0
5.000000 0.100000 0
5.100000 0.100000 0
5.200000 0.100000 0
5.300000 0.100000 0
5.400000 0.100000 0
5.500000 0.100000 0
5.600000 0.100000 0
5.700000 0.100000 0
5.800000 0.100000 0
5.900000 0.100000 0
6.000000 0.100000 0
6.100000 0.100000 0
6.200000 0.100000 0
6.300000 0.100000 0
6.400000 0.100000 0
6.500000 0.100000 0
6.600000 0.100000 0
6.700000 0.100000 0
6.800000 0.100000 0
6.900000 0.100000 0
7.000000 0.100000 0
7.100000 0.100000 0
7.200000 0.100000 0
7.300000 0.100000 0
7.400000 0.100000 0
7.500000 0.100000 0
7.600000 0.100000 0
7.700000 0.100000 0
7.800000 0.100000 0
7.900000 0.100000 0
8.000000 0.100000 0
8.100000 0.100000 0
8.200000 0.100000 0
8.300000 0.100000 0
8.400000 0.100000 0
8.500000 0.100000 0
8.600000 0.100000 0
8.700000 0.100000 0
8.800000 0.100000 0
8.900000 0.100000 0
9.000000 0.100000 0
9.100000 0.100000 0
9.200000 0.100000 0
9.300000 0.100000 0
9.400000 0.100000 0
9.500000 0.100000 0
9.600000 0.100000 0
9.700000 0.100000 0
9.800000 0.100000 0
0.000000 0.200000 0
0.100000 0.200000 0
0.200000 0.200000 0
0.300000 0.200000 0
0.400000 0.200000 0
0.500000 0.200000 0
0.600000 0.200000 0
0.700000 0.200000 0
0.800000 0.200000 0
0.900000 0.200000 0
1.000000 0.200000 0
1.100000 0.200000 0
1.200000 0.200000 0
1.300000 0.200000 0
1.400000 0.200000 0
1.500000 0.200000 0
1.600000 0.200000 0
1.700000 0.200000 0
1.800000 0.200000 0
1.900000 0.200000 0
2.000000 0.200000 0
2.100000 0.200000 0
2.200000 0.200000 0
2.300000 0.200000 0
2.400000 0.200000 0
2.500000 0.200000 0
2.600000 0.200000 0
2.700000 0.200000 0
2.800000 0.200000 0
2.900000 0.200000 0
3.000000 0.200000 0
3.100000 0.200000 0
3.200000 0.200000 0
3.300000 0.200000 0
3.400000 0.200000 0
3.500000 0.200000 0
3.600000 0.200000 0
3.700000 0.200000 0
3.800000 0.200000 0
3.900000 0.200000 0
4.000000 0.200000 0
4.100000 0.200000 0
4.200000 0.200000 0
4.300000 0.200000 0
4.400000 0.200000 0
4.500000 0.200000 0
4.600000 0.200000 0
4.700000 0.200000 0
4.800000 0.200000 0
4.900000 0.200000 0
5.000000 0.200000 0
5.100000 0.200000 0
5.200000 0.200000 0
5.300000 0.200000 0
5.400000 0.200000 0
5.500000 0.200000 0
5.600000 0.200000 0
5.700000 0.200000 0
5.800000 0.200000 0
5.900000 0.200000 0
6.000000 0.200000 0
6.100000 0.200000 0
6.200000 0.200000 0
6.300000 0.200000 0
6.400000 0.200000 0
6.500000 0.200000 0
6.600000 0.200000 0
6.700000 0.200000 0
6.800000 0.200000 0
6.900000 0.200000 0
7.000000 0.200000 0
7.100000 0.200000 0
7.200000 0.200000 0
7.300000 0.200000 0
7.400000 0.200000 0
7.500000 0.200000 0
7.600000 0.200000 0
7.700000 0.200000 0
7.800000 0.200000 0
7.900000 0.200000 0
8.000000 0.200000 0
8.100000 0.200000 0
8.200000 0.200000 0
8.300000 0.200000 0
8.400000 0.200000 0
8.500000 0.200000 0
8.600000 0.200000 0
8.700000 0.200000 0
8.800000 0.200000 0
8.900000 0.200000 0
9.000000 0.200000 0
9.100000 0.200000 0
9.200000 0.200000 0
9.300000 0.200000 0
9.400000 0.200000 0
9.500000 0.200000 0
9.600000 0.200000 0
9.700000 0.200000 0
9.800000 0.200000 0
0.000000 0.300000 0
0.100000 0.300000 0
0.200000 0.300000 0
0.300000 0.300000 0
0.400000 0.300000 0
0.500000 0.300000 0
0.600000 0.300000 0
0.700000 0.300000 0
0.800000 0.300000 0
0.900000 0.300000 0
1.000000 0.300000 0
1.100000 0.300000 0
1.200000 0.300000 0
1.300000 0.300000 0
1.400000 0.300000 0
1.500000 0.300000 0
1.600000 0.300000 0
1.700000 0.300000 0
1.800000 0.300000 0
1.900000 0.300000 0
2.000000 0.300000 0
2.100000 0.300000 0
2.200000 0.300000 0
2.300000 0.300000 0
2.400000 0.300000 0
2.500000 0.300000 0
2.600000 0.300000 0
2.700000 0.300000 0
2.800000 0.300000 0
2.900000 0.300000 0
3.000000 0.300000 0
3.100000 0.300000 0
3.200000 0.300000 0
3.300000 0.300000 0
3.400000 0.300000 0
3.500000 0.300000 0
3.600000 0.300000 0
3.700000 0.300000 0
3.800000 0.300000 0
3.900000 0.300000 0
4.000000 0.300000 0
4.100000 0.300000 0
4.200000 0.300000 0
4.300000 0.300000 0
4.400000 0.300000 0
4.500000 0.300000 0
4.600000 0.300000 0
4.700000 0.300000 0
4.800000 0.300000 0
4.900000 0.300000 0
5.000000 0.300000 0
5.100000 0.300000 0
5.200000 0.300000 0
5.300000 0.300000 0
5.400000 0.300000 0
5.500000 0.300000 0
5.600000 0.300000 0
5.700000 0.300000 0
5.800000 0.300000 0
5.900000 0.300000 0
6.000000 0.300000 0
6.100000 0.300000 0
6.200000 0.300000 0
6.300000 0.300000 0
6.400000 0.300000 0
6.500000 0.300000 0
6.600000 0.300000 0
6.700000 0.300000 0
6.800000 0.300000 0
6.900000 0.300000 0
7.000000 0.300000 0
7.100000 0.300000 0
7.200000 0.300000 0
7.300000 0.300000 0
7.400000 0.300000 0
7.500000 0.300000 0
7.600000 0.300000 0
7.700000 0.300000 0
7.800000 0.300000 0
7.900000 0.300000 0
8.000000 0.300000 0
8.100000 0.300000 0
8.200000 0.300000 0
8.300000 0.300000 0
8.400000 0.300000 0
8.500000 0.300000 0
8.600000 0.300000 0
8.700000 0.300000 0
8.800000 0.300000 0
8.900000 0.300000 0
9.000000 0.300000 0
9.100000 0.300000 0
9.200000 0.300000 0
9.300000 0.300000 0
9.400000 0.300000 0
9.500000 0.300000 0
9.600000 0.300000 0
9.700000 0.300000 0
9.800000 0.300000 0
0.000000 0.400000 0
0.100000 0.400000 0
0.200000 0.400000 0
0.300000 0.400000 0
0.400000 0.400000 0
0.500000 0.400000 0
0.600000 0.400000 0
0.700000 0.400000 0
0.800000 0.400000 0
0.900000 0.400000 0
1.000000 0.400000 0
1.100000 0.400000 0
1.200000 0.400000 0
1.300000 0.400000 0
1.400000 0.400000 0
1.500000 0.400000 0
1.600000 0.400000 0
1.700000 0.400000 0
1.800000 0.400000 0
1.900000 0.400000 0
2.000000 0.400000 0
2.100000 0.400000 0
2.200000 0.400000 0
2.300000 0.400000 0
2.400000 0.400000 0
2.500000 0.400000 0
2.600000 0.400000 0
2.700000 0.400000 0
2.800000 0.400000 0
2.900000 0.400000 0
3.000000 0.400000 0
3.100000 0.400000 0
3.200000 0.400000 0
3.300000 0.400000 0
3.400000 0.400000 0
3.500000 0.400000 0
3.600000 0.400000 0
3.700000 0.400000 0
3.800000 0.400000 0
3.900000 0.400000 0
4.000000 0.400000 0
4.100000 0.400000 0
4.200000 0.400000 0
4.300000 0.400000 0
4.400000 0.400000 0
4.500000 0.400000 0
4.600000 0.400000 0
4.700000 0.400000 0
4.800000 0.400000 0
4.900000 0.400000 0
5.000000 0.400000 0
5.100000 0.400000 0
5.200000 0.400000 0
5.300000 0.400000 0
5.400000 0.400000 0
5.500000 0.400000 0
5.600000 0.400000 0
5.700000 0.400000 0
5.800000 0.400000 0
5.900000 0.400000 0
6.000000 0.400000 0
6.100000 0.400000 0
6.200000 0.400000 0
6.300000 0.400000 0
6.400000 0.400000 0
6.500000 0.400000 0
6.600000 0.400000 0
6.700000 0.400000 0
6.800000 0.400000 0
6.900000 0.400000 0
7.000000 0.400000 0
7.100000 0.400000 0
7.200000 0.400000 0
7.300000 0.400000 0
7.400000 0.400000 0
7.500000 0.400000 0
7.600000 0.400000 0
7.700000 0.400000 0
7.800000 0.400000 0
7.900000 0.400000 0
8.000000 0.400000 0
8.100000 0.400000 0
8.200000 0.400000 0
8.300000 0.400000 0
8.400000 0.400000 0
8.500000 0.400000 0
8.600000 0.400000 0
8.700000 0.400000 0
8.800000 0.400000 0
8.900000 0.400000 0
9.000000 0.400000 0
9.100000 0.400000 0
9.200000 0.400000 0
9.300000 0.400000 0
9.400000 0.400000 0
[...]
POINT_DATA 1881 

VECTORS velocity float
0.500000 0.000000 0
0.502099 0.000000 0
0.506738 0.000000 0
0.514329 0.000000 0
0.525272 0.000000 0
0.539875 0.000000 0
0.558141 0.000000 0
0.579481 0.000000 0
0.602484 0.000000 0
0.624859 0.000000 0
0.644686 0.000000 0
0.661032 0.000000 0
0.673802 0.000000 0
0.683392 0.000000 0
0.690376 0.000000 0
0.695271 0.000000 0
0.698359 0.000000 0
0.699614 0.000000 0
0.698782 0.000000 0
0.695516 0.000000 0
0.689572 0.000000 0
0.680918 0.000000 0
0.669768 0.000000 0
0.656545 0.000000 0
0.641832 0.000000 0
0.626321 0.000000 0
0.610762 0.000000 0
0.595928 0.000000 0
0.582577 0.000000 0
0.571433 0.000000 0
0.563195 0.000000 0
0.558587 0.000000 0
0.558354 0.000000 0
0.562928 0.000000 0
0.572164 0.000000 0
0.585143 0.000000 0
0.600115 0.000000 0
0.614747 0.000000 0
0.626639 0.000000 0
0.633980 0.000000 0
0.636014 0.000000 0
0.632851 0.000000 0
0.625021 0.000000 0
0.613328 0.000000 0
0.598715 0.000000 0
0.582144 0.000000 0
0.564536 0.000000 0
0.546745 0.000000 0
0.529571 0.000000 0
0.513784 0.000000 0
0.500162 0.000000 0
0.489512 0.000000 0
0.482660 0.000000 0
0.480328 0.000000 0
0.482765 0.000000 0
0.489726 0.000000 0
0.500746 0.000000 0
0.515213 0.000000 0
0.532365 0.000000 0
0.551230 0.000000 0
0.570534 0.000000 0
0.588635 0.000000 0
0.603622 0.000000 0
0.613680 0.000000 0
0.617681 0.000000 0
0.615490 0.000000 0
0.607492 0.000000 0
0.594378 0.000000 0
0.577154 0.000000 0
0.557090 0.000000 0
0.535643 0.000000 0
0.514379 0.000000 0
0.494868 0.000000 0
0.478552 0.000000 0
0.466580 0.000000 0
0.459637 0.000000 0
0.457780 0.000000 0
0.460257 0.000000 0
0.465992 0.000000 0
0.474110 0.000000 0
0.484005 0.000000 0
0.495300 0.000000 0
0.507738 0.000000 0
0.521060 0.000000 0
0.534860 0.000000 0
0.548474 0.000000 0
0.560934 0.000000 0
0.571049 0.000000 0
0.577634 0.000000 0
0.579862 0.000000 0
0.577446 0.000000 0
0.570416 0.000000 0
0.559076 0.000000 0
0.544098 0.000000 0
0.526587 0.000000 0
0.508103 0.000000 0
0.490586 0.000000 0
0.476156 0.000000 0
0.467602 0.000000 0
1.000000 -0.002080 0
1.004759 -0.006712 0
1.014673 -0.012216 0
1.030478 -0.018522 0
1.053052 -0.025535 0
1.083207 -0.032860 0
1.121236 -0.039597 0
1.166186 -0.044332 0
1.215289 -0.045361 0
1.262704 -0.042177 0
1.304016 -0.036145 0
1.337533 -0.029087 0
1.363438 -0.022333 0
1.382835 -0.016550 0
1.397109 -0.011858 0
1.407473 -0.007959 0
1.414574 -0.004319 0
1.418300 -0.000401 0
1.417929 0.004119 0
1.412590 0.009229 0
1.401681 0.014615 0
1.385117 0.019819 0
1.363360 0.024386 0
1.337312 0.027946 0
1.308193 0.030232 0
1.277430 0.031077 0
1.246566 0.030398 0
1.217180 0.028189 0
1.190807 0.024498 0
1.168884 0.019386 0
1.152748 0.012853 0
1.143689 0.004851 0
1.142973 -0.004327 0
1.151616 -0.013793 0
1.169749 -0.022195 0
1.195963 -0.027929 0
1.227083 -0.029582 0
1.258541 -0.026503 0
1.285286 -0.019215 0
1.303079 -0.009358 0
1.309687 0.001145 0
1.305152 0.011009 0
1.290731 0.019538 0
1.268242 0.026319 0
1.239724 0.031195 0
1.207206 0.034189 0
1.172593 0.035409 0
1.137630 0.034974 0
1.103929 0.032969 0
1.073006 0.029416 0
1.046298 0.024279 0
1.025127 0.017509 0
1.010582 0.009190 0
1.003394 -0.000100 0
1.003929 -0.009392 0
1.012182 -0.017973 0
1.027820 -0.025479 0
1.050204 -0.031609 0
1.078414 -0.036005 0
1.111191 -0.038156 0
1.146721 -0.037391 0
1.182408 -0.033073 0
1.214859 -0.025030 0
1.240256 -0.014047 0
1.255125 -0.001799 0
1.257468 0.010200 0
1.247638 0.021121 0
1.227102 0.030345 0
1.197952 0.037295 0
1.162740 0.041518 0
1.124327 0.042718 0
1.085693 0.040781 0
1.049712 0.035832 0
1.018865 0.028293 0
0.994925 0.018919 0
0.978707 0.008804 0
0.970061 -0.000616 0
0.968209 -0.008208 0
0.972018 -0.013849 0
0.980375 -0.018009 0
0.992473 -0.021187 0
1.007850 -0.023729 0
1.026275 -0.025756 0
1.047538 -0.027117 0
1.071158 -0.027409 0
1.096144 -0.026069 0
1.120892 -0.022571 0
1.143245 -0.016696 0
1.160732 -0.008809 0
1.170971 0.000192 0
1.172337 0.009449 0
1.164647 0.018373 0
1.148623 0.026322 0
1.125685 0.032492 0
1.097955 0.035997 0
1.068163 0.036002 0
1.039386 0.031948 0
1.014604 0.022984 0
0.996617 0.015124 0
1.000000 -0.004732 0
1.004911 -0.014638 0
1.014825 -0.025703 0
1.030508 -0.038366 0
1.053158 -0.052718 0
1.084235 -0.068172 0
1.125020 -0.082967 0
1.175485 -0.094035 0
1.233768 -0.096488 0
1.288177 -0.088693 0
1.332574 -0.074794 0
1.366404 -0.059387 0
1.391250 -0.045272 0
1.409191 -0.033647 0
1.422312 -0.024611 0
1.432381 -0.017434 0
1.440382 -0.010799 0
1.446040 -0.003327 0
1.447949 0.005735 0
1.444612 0.016270 0
1.435069 0.027492 0
1.419181 0.038338 0
1.397534 0.047819 0
1.371194 0.055178 0
1.341514 0.059891 0
1.310024 0.061634 0
1.278352 0.060256 0
1.248141 0.055764 0
1.220942 0.048302 0
1.198125 0.038067 0
1.180838 0.025207 0
1.170116 0.009791 0
1.167109 -0.007905 0
1.173261 -0.026750 0
1.189409 -0.044320 0
1.214868 -0.057306 0
1.247248 -0.062551 0
1.282626 -0.058179 0
1.315797 -0.044518 0
1.341105 -0.024381 0
1.354191 -0.002053 0
1.354106 0.018974 0
1.342700 0.036926 0
1.322340 0.051023 0
1.295460 0.061050 0
1.264323 0.067144 0
1.230925 0.069587 0
1.197000 0.068674 0
1.164066 0.064634 0
1.133454 0.057640 0
1.106300 0.047887 0
1.083459 0.035723 0
1.065394 0.021740 0
1.052187 0.006660 0
1.043911 -0.008779 0
1.040844 -0.023880 0
1.043327 -0.038009 0
1.051675 -0.050579 0
1.066250 -0.060970 0
1.087322 -0.068289 0
1.114597 -0.071198 0
1.146743 -0.068120 0
1.181213 -0.057832 0
1.214331 -0.040252 0
1.241595 -0.017200 0
1.258628 0.007499 0
1.263298 0.030376 0
1.256625 0.049696 0
1.240476 0.064371 0
1.217163 0.073633 0
1.189210 0.077054 0
1.159137 0.074623 0
1.129226 0.066835 0
1.101304 0.054793 0
1.076571 0.040164 0
1.055568 0.024869 0
1.038355 0.010503 0
1.024953 -0.001952 0
1.015310 -0.012161 0
1.009240 -0.020450 0
1.006767 -0.027469 0
1.008230 -0.033797 0
1.014159 -0.039683 0
1.025018 -0.044877 0
1.040834 -0.048600 0
1.060975 -0.049728 0
1.084143 -0.047095 0
1.108496 -0.039834 0
1.131751 -0.027721 0
1.151290 -0.011600 0
1.164542 0.006329 0
1.170001 0.023718 0
1.167947 0.038966 0
1.159441 0.050670 0
1.146029 0.057524 0
1.129478 0.058571 0
1.111453 0.053560 0
1.093166 0.042770 0
1.074694 0.033496 0
1.000000 -0.006975 0
1.003925 -0.021519 0
1.012120 -0.037810 0
1.025583 -0.056852 0
1.046044 -0.079259 0
1.076074 -0.104716 0
1.118961 -0.130838 0
1.177121 -0.153062 0
1.254107 -0.158031 0
1.318371 -0.140966 0
1.363195 -0.114359 0
1.392926 -0.087755 0
1.412179 -0.065116 0
1.424410 -0.047606 0
1.432579 -0.035034 0
1.439407 -0.026018 0
1.446773 -0.017969 0
1.454441 -0.007959 0
1.459519 0.005553 0
1.458763 0.022114 0
1.450510 0.040050 0
1.434620 0.057357 0
1.411997 0.072376 0
1.384006 0.083968 0
1.352199 0.091403 0
1.318241 0.094240 0
1.283880 0.092284 0
1.250884 0.085602 0
1.220881 0.074519 0
1.195157 0.059499 0
1.174538 0.040874 0
1.159552 0.018595 0
1.150813 -0.007458 0
1.149652 -0.036078 0
1.157639 -0.063788 0
1.175192 -0.085758 0
1.201823 -0.097332 0
1.235983 -0.095048 0
1.274078 -0.077689 0
1.309983 -0.047745 0
1.336162 -0.011850 0
1.347059 0.022505 0
1.343533 0.051309 0
1.328844 0.073563 0
1.306082 0.089216 0
1.277932 0.098729 0
1.246613 0.102736 0
1.213921 0.101836 0
1.181313 0.096518 0
1.149967 0.087184 0
1.120822 0.074277 0
1.094543 0.058418 0
1.071452 0.040466 0
1.051433 0.021388 0
1.033952 0.001957 0
1.018533 -0.017381 0
1.005641 -0.036301 0
0.997261 -0.054523 0
0.995929 -0.071643 0
1.003792 -0.086494 0
1.021560 -0.096804 0
1.048208 -0.099683 0
1.081352 -0.092614 0
1.117714 -0.074426 0
1.153399 -0.046092 0
1.183954 -0.011500 0
1.204777 0.023127 0
1.214302 0.053171 0
1.213651 0.076759 0
1.204512 0.092787 0
1.188824 0.100747 0
1.168525 0.100768 0
1.145371 0.093668 0
1.120834 0.080950 0
1.096075 0.064656 0
1.071970 0.047022 0
1.049091 0.030002 0
1.027645 0.014840 0
1.007780 0.001868 0
0.989919 -0.009464 0
0.975039 -0.020174 0
0.964779 -0.031118 0
0.960821 -0.042541 0
0.964110 -0.053790 0
0.974546 -0.063363 0
0.991127 -0.069375 0
1.012299 -0.070089 0
1.036271 -0.064302 0
1.061209 -0.051600 0
1.085284 -0.032597 0
1.106524 -0.009260 0
1.122657 0.014970 0
1.132521 0.036883 0
1.136319 0.054411 0
1.134672 0.065961 0
1.128361 0.070577 0
1.118112 0.068260 0
1.104494 0.059744 0
1.087864 0.051785 0
1.000000 -0.008642 0
1.002515 -0.026741 0
1.007940 -0.047358 0
1.017378 -0.072286 0
1.032980 -0.103204 0
1.058584 -0.141082 0
1.100601 -0.183999 0
1.166950 -0.229162 0
1.280470 -0.237723 0
1.349864 -0.197768 0
1.383046 -0.149341 0
1.398723 -0.108367 0
1.405187 -0.076750 0
1.405979 -0.054034 0
1.403999 -0.039595 0
1.402909 -0.031619 0
1.406615 -0.025825 0
1.416551 -0.016067 0
1.428377 0.001419 0
1.433890 0.025283 0
1.429668 0.051639 0
1.415897 0.076855 0
1.394154 0.098437 0
1.366178 0.114978 0
1.333610 0.125659 0
1.298126 0.129956 0
1.261565 0.127615 0
1.225894 0.118768 0
1.192958 0.104038 0
1.163993 0.084421 0
1.139197 0.060823 0
1.117905 0.033531 0
1.099126 0.002009 0
1.082110 -0.033563 0
1.069269 -0.069850 0
1.065245 -0.101483 0
1.074166 -0.123337 0
1.098164 -0.130429 0
1.135727 -0.118509 0
1.181491 -0.086458 0
1.226749 -0.039124 0
1.261009 0.011608 0
1.277534 0.055146 0
1.279006 0.088479 0
1.269058 0.111966 0
1.250789 0.126616 0
1.226736 0.133602 0
1.198960 0.133977 0
1.169130 0.128591 0
1.138593 0.118134 0
1.108392 0.103314 0
1.079158 0.085096 0
1.050833 0.064855 0
1.022508 0.044166 0
0.992987 0.024128 0
0.962243 0.004440 0
0.932692 -0.016729 0
0.909082 -0.040859 0
0.896662 -0.067493 0
0.897766 -0.093912 0
0.911643 -0.115608 0
0.935982 -0.127908 0
0.967999 -0.127334 0
1.004838 -0.112294 0
1.043604 -0.083436 0
1.081186 -0.043876 0
1.113699 0.000032 0
1.136891 0.040825 0
1.150097 0.074164 0
1.154151 0.098462 0
1.150286 0.113045 0
1.139863 0.118078 0
1.124195 0.114528 0
1.104447 0.104091 0
1.081566 0.089030 0
1.056245 0.071855 0
1.028988 0.054831 0
1.000415 0.039363 0
0.971734 0.025568 0
0.945023 0.012294 0
0.922865 -0.002326 0
0.907590 -0.019576 0
0.900761 -0.039010 0
0.902598 -0.058599 0
0.912122 -0.075614 0
0.927779 -0.087477 0
0.947897 -0.092237 0
0.970898 -0.088742 0
0.995356 -0.076731 0
1.019987 -0.056913 0
1.043555 -0.031043 0
1.064572 -0.002278 0
1.081064 0.025306 0
1.092247 0.048521 0
1.097988 0.065482 0
1.098350 0.075131 0
1.093494 0.077427 0
1.083687 0.073017 0
1.069304 0.067592 0
1.000000 -0.009478 0
1.000598 -0.029445 0
1.002033 -0.052669 0
1.005122 -0.081887 0
1.011782 -0.120459 0
1.026290 -0.172327 0
1.057981 -0.239188 0
1.124202 -0.332916 0
1.294645 -0.340934 0
1.337523 -0.243534 0
1.329713 -0.163213 0
1.316459 -0.109891 0
1.302825 -0.072361 0
1.287423 -0.046404 0
1.270122 -0.031955 0
1.253657 -0.028626 0
1.244812 -0.031603 0
1.251105 -0.029715 0
1.272035 -0.011781 0
1.294501 0.020828 0
1.303662 0.058046 0
1.300702 0.092874 0
1.288582 0.122098 0
1.269130 0.144516 0
1.243433 0.159458 0
1.212681 0.166288 0
1.178566 0.164521 0
1.143338 0.154216 0
1.109342 0.136429 0
1.077566 0.113271 0
1.045911 0.086975 0
1.010087 0.058680 0
0.968007 0.028351 0
0.922821 -0.006211 0
0.882205 -0.046914 0
0.857736 -0.090648 0
0.856008 -0.130247 0
0.876349 -0.156601 0
0.915046 -0.161009 0
0.967202 -0.138762 0
1.026633 -0.091362 0
1.084884 -0.028275 0
1.130616 0.033316 0
1.158228 0.082044 0
1.170750 0.117437 0
1.171127 0.141054 0
1.161865 0.154568 0
1.145131 0.159446 0
1.122758 0.156888 0
1.096149 0.147925 0
1.066043 0.133715 0
1.032240 0.115981 0
0.993778 0.097121 0
0.950236 0.079241 0
0.903730 0.062229 0
0.859658 0.042922 0
0.824662 0.016869 0
0.803324 -0.018485 0
0.796847 -0.060319 0
0.803325 -0.101469 0
0.819858 -0.135014 0
0.844025 -0.156035 0
0.874040 -0.161467 0
0.908348 -0.150027 0
0.945282 -0.122436 0
0.982938 -0.081592 0
1.019040 -0.032574 0
1.049923 0.016775 0
1.072445 0.059502 0
1.086306 0.092601 0
1.091876 0.115038 0
1.089817 0.126861 0
1.080850 0.129085 0
1.065595 0.123581 0
1.044510 0.112860 0
1.018019 0.099603 0
0.986948 0.085835 0
0.953114 0.072097 0
0.919610 0.057262 0
0.890294 0.039408 0
0.868554 0.017262 0
0.856036 -0.009011 0
0.852552 -0.037545 0
0.856796 -0.065148 0
0.867121 -0.088540 0
0.882039 -0.105146 0
0.900341 -0.113205 0
0.921018 -0.111759 0
0.943162 -0.100686 0
0.965899 -0.080793 0
0.988367 -0.053844 0
1.009646 -0.022537 0
1.028297 0.009209 0
1.042716 0.037488 0
1.052183 0.059859 0
1.056253 0.075072 0
1.054671 0.082923 0
1.047399 0.083933 0
1.034529 0.082091 0
1.000000 -0.009229 0
0.998316 -0.028761 0
0.994809 -0.051878 0
0.989427 -0.082030 0
0.982571 -0.124364 0
0.976304 -0.187268 0
0.977897 -0.281898 0
1.009178 -0.465814 0
1.199001 -0.451034 0
1.150047 -0.232831 0
1.061911 -0.128272 0
1.014454 -0.081471 0
0.984224 -0.047700 0
0.954392 -0.021318 0
0.917250 -0.005821 0
0.879192 -0.006303 0
0.850640 -0.023267 0
0.846778 -0.043285 0
0.877862 -0.041973 0
0.933853 -0.006340 0
0.987607 0.045441 0
1.021550 0.091937 0
1.040710 0.130012 0
1.048261 0.160131 0
1.044275 0.182111 0
1.029009 0.194828 0
1.003195 0.196964 0
0.967477 0.188001 0
0.921862 0.169821 0
0.866250 0.147864 0
0.802587 0.128316 0
0.736686 0.111448 0
0.677650 0.089287 0
0.635409 0.052248 0
0.615501 -0.004758 0
0.616453 -0.075281 0
0.634041 -0.141943 0
0.664734 -0.189459 0
0.706683 -0.209356 0
0.758849 -0.198040 0
0.819532 -0.156802 0
0.885299 -0.092371 0
0.949329 -0.018194 0
1.000323 0.048349 0
1.034836 0.099071 0
1.054923 0.135505 0
1.062390 0.159600 0
1.058897 0.173087 0
1.045818 0.177577 0
1.023934 0.174852 0
0.993188 0.167227 0
0.953049 0.157367 0
0.904071 0.146865 0
0.850101 0.134221 0
0.798849 0.114714 0
0.759089 0.083517 0
0.736336 0.039613 0
0.730510 -0.013037 0
0.736665 -0.067486 0
0.749764 -0.116917 0
0.767087 -0.156303 0
0.787823 -0.182086 0
0.812080 -0.191653 0
0.839988 -0.183532 0
0.871115 -0.158022 0
0.904332 -0.117630 0
0.937995 -0.066950 0
0.969962 -0.012577 0
0.996551 0.037783 0
1.015899 0.079034 0
1.027481 0.109537 0
1.031187 0.129106 0
1.027046 0.138752 0
1.015119 0.140433 0
0.995614 0.136608 0
0.969300 0.129420 0
0.938077 0.119739 0
0.905218 0.106704 0
0.874828 0.088391 0
0.850620 0.063353 0
0.834784 0.031935 0
0.827641 -0.003570 0
0.827878 -0.039766 0
0.833597 -0.073165 0
0.843237 -0.100854 0
0.855770 -0.120694 0
0.870587 -0.131213 0
0.887279 -0.131560 0
0.905449 -0.121609 0
0.924588 -0.102115 0
0.944052 -0.074788 0
0.963082 -0.042206 0
0.980758 -0.007762 0
0.995484 0.024635 0
1.006046 0.051945 0
1.011653 0.072643 0
1.011775 0.086282 0
1.006177 0.093159 0
0.994901 0.095205 0
1.000000 -0.007783 0
0.996085 -0.024241 0
0.987611 -0.043775 0
0.973238 -0.069644 0
0.950641 -0.107327 0
0.916091 -0.167640 0
0.863878 -0.272050 0
0.789975 -0.554009 0
0.551682 -0.384599 0
0.494349 0.000000 0
0.425293 -0.018368 0
0.366257 -0.032191 0
0.354072 -0.012288 0
0.347272 0.020578 0
0.326833 0.043253 0
0.300577 0.037990 0
0.287205 0.000815 0
0.303674 -0.056933 0
0.356003 -0.098852 0
0.441358 -0.088913 0
0.542134 -0.029648 0
0.632776 0.039774 0
0.698428 0.095391 0
0.741887 0.140954 0
0.764957 0.178714 0
0.767500 0.207374 0
0.749372 0.226061 0
0.710444 0.235558 0
0.651929 0.237668 0
0.579513 0.232559 0
0.505993 0.216552 0
0.448440 0.183629 0
0.419837 0.129638 0
0.422674 0.055947 0
0.448864 -0.027953 0
0.482639 -0.109182 0
0.515069 -0.178519 0
0.546084 -0.229236 0
0.579481 -0.255118 0
0.619489 -0.251605 0
0.668547 -0.217807 0
0.726140 -0.158068 0
0.788883 -0.081704 0
0.849285 -0.003459 0
0.897209 0.062841 0
0.930743 0.113503 0
0.950464 0.150598 0
0.957000 0.176021 0
0.950795 0.191855 0
0.931987 0.200559 0
0.900846 0.204605 0
0.859101 0.205104 0
0.811588 0.200076 0
0.766317 0.184471 0
0.731664 0.153250 0
0.712441 0.105444 0
0.708258 0.045456 0
0.715041 -0.018806 0
0.727228 -0.079567 0
0.740844 -0.131885 0
0.754295 -0.173070 0
0.767812 -0.201024 0
0.782731 -0.213628 0
0.800635 -0.209058 0
0.822460 -0.186777 0
0.847978 -0.148468 0
0.875902 -0.098201 0
0.904339 -0.041778 0
0.930594 0.013568 0
0.951558 0.061674 0
0.965848 0.099753 0
0.972669 0.127299 0
0.971534 0.145155 0
0.962280 0.155015 0
0.945373 0.158682 0
0.922355 0.157143 0
0.896078 0.149921 0
0.870285 0.135350 0
0.848554 0.111863 0
0.833194 0.079455 0
0.824808 0.040246 0
0.822672 -0.002101 0
0.825330 -0.043498 0
0.831144 -0.080503 0
0.838903 -0.110710 0
0.847954 -0.132493 0
0.858120 -0.144711 0
0.869511 -0.146618 0
0.882267 -0.137992 0
0.896332 -0.119394 0
0.911347 -0.092336 0
0.926674 -0.059242 0
0.941470 -0.023192 0
0.954549 0.012202 0
0.964464 0.043690 0
0.970223 0.069343 0
0.971158 0.088399 0
0.966977 0.100806 0
0.957786 0.106426 0
1.000000 -0.005304 0
0.994481 -0.016359 0
0.982413 -0.029026 0
0.961438 -0.045052 0
0.926942 -0.067206 0
0.869861 -0.100493 0
0.770886 -0.155771 0
0.588014 -0.250803 0
0.000000 -0.155401 0
0.000000 0.000000 0
0.000000 0.000000 0
-0.027437 -0.019310 0
-0.042497 -0.028706 0
-0.070052 0.005928 0
-0.099028 0.040880 0
-0.117724 0.033330 0
-0.109141 -0.026359 0
-0.071220 -0.112079 0
-0.014941 -0.179654 0
0.062186 -0.192469 0
0.162944 -0.145974 0
0.272924 -0.064353 0
0.369906 0.020905 0
0.438958 0.093606 0
0.480888 0.156502 0
0.497345 0.210420 0
0.489608 0.254028 0
0.460991 0.285454 0
0.419389 0.300764 0
0.377966 0.293813 0
0.351410 0.259402 0
0.349430 0.197615 0
0.372517 0.115062 0
0.412346 0.023228 0
0.453572 -0.064717 0
0.487154 -0.141478 0
0.510952 -0.205380 0
0.526786 -0.253865 0
0.539666 -0.282755 0
0.556301 -0.287101 0
0.582640 -0.263448 0
0.621288 -0.212702 0
0.670517 -0.141335 0
0.725247 -0.059974 0
0.776200 0.017618 0
0.815295 0.082254 0
0.841020 0.133346 0
0.852942 0.172759 0
0.850970 0.202593 0
0.835646 0.224806 0
0.809074 0.240120 0
0.775988 0.246631 0
0.743679 0.239655 0
0.719768 0.214153 0
0.708885 0.168599 0
0.710990 0.106931 0
0.722540 0.037021 0
0.738528 -0.032000 0
0.754204 -0.093283 0
0.766948 -0.143980 0
0.775789 -0.183267 0
0.781268 -0.210517 0
0.785301 -0.224471 0
0.790646 -0.223257 0
0.799863 -0.205362 0
0.814229 -0.171069 0
0.833281 -0.123307 0
0.855225 -0.067267 0
0.877627 -0.009433 0
0.897172 0.043783 0
0.911613 0.088428 0
0.919662 0.123422 0
0.920610 0.149143 0
0.914416 0.166597 0
0.902000 0.176536 0
0.885453 0.178719 0
0.867786 0.171813 0
0.852142 0.154231 0
0.840804 0.125486 0
0.834646 0.087102 0
0.833292 0.042460 0
0.835681 -0.004087 0
0.840437 -0.048234 0
0.846233 -0.086735 0
0.852099 -0.117661 0
0.857558 -0.139908 0
0.862672 -0.152766 0
0.867950 -0.155703 0
0.874095 -0.148427 0
0.881662 -0.131193 0
0.890779 -0.105128 0
0.901081 -0.072327 0
0.911811 -0.035636 0
0.921968 0.001642 0
0.930200 0.036273 0
0.935425 0.065950 0
0.936931 0.089527 0
0.934421 0.106530 0
0.928036 0.115024 0
1.000000 -0.002255 0
0.993949 -0.006642 0
0.980775 -0.010726 0
0.958024 -0.014164 0
0.921011 -0.015739 0
0.861063 -0.011572 0
0.761696 0.009809 0
0.589805 0.113708 0
0.275827 0.100240 0
0.000000 0.000000 0
0.000000 0.000000 0
0.000000 0.000000 0
-0.020549 0.029094 0
-0.103733 0.077116 0
-0.164261 0.090930 0
-0.191189 0.048107 0
-0.169759 -0.045685 0
-0.136600 -0.151129 0
-0.105738 -0.232254 0
-0.071514 -0.266795 0
-0.018496 -0.240382 0
0.055597 -0.167185 0
0.141125 -0.070639 0
0.215994 0.029977 0
0.268833 0.120333 0
0.300576 0.198662 0
0.314155 0.262425 0
0.315597 0.305788 0
0.314912 0.320705 0
0.323536 0.300551 0
0.349466 0.245100 0
0.393874 0.162533 0
0.451160 0.066729 0
0.507599 -0.025102 0
0.551731 -0.102753 0
0.581037 -0.166555 0
0.595020 -0.218144 0
0.595108 -0.257944 0
0.585544 -0.284628 0
0.573623 -0.294575 0
0.568265 -0.282789 0
0.576696 -0.245941 0
0.601139 -0.185659 0
0.638105 -0.109138 0
0.680370 -0.027204 0
0.717748 0.048687 0
0.744681 0.112954 0
0.759582 0.166075 0
0.762360 0.209155 0
0.754576 0.242461 0
0.739993 0.264268 0
0.724484 0.270504 0
0.714496 0.256304 0
0.714473 0.219274 0
0.725121 0.162036 0
0.743903 0.091797 0
0.766855 0.017926 0
0.789053 -0.050464 0
0.807088 -0.107982 0
0.819182 -0.153465 0
0.824503 -0.187385 0
0.823303 -0.210532 0
0.817267 -0.223002 0
0.809543 -0.223616 0
0.804023 -0.210356 0
0.803934 -0.181883 0
0.810543 -0.139195 0
0.822892 -0.086121 0
0.838564 -0.028376 0
0.854387 0.027691 0
0.867416 0.077265 0
0.875948 0.118304 0
0.879188 0.150404 0
0.877268 0.173628 0
0.871354 0.187648 0
0.863511 0.191361 0
0.856166 0.183235 0
0.851324 0.162335 0
0.849974 0.129363 0
0.852045 0.086971 0
0.856784 0.039215 0
0.863183 -0.009243 0
0.869990 -0.054046 0
0.876083 -0.092160 0