# vtk DataFile Version 2.0
generated by CFD-lab course output (written by Tobias Neckel) 
ASCII

DATASET STRUCTURED_GRID
DIMENSIONS  99 19 1 
POINTS 1881 float

0.000000 0.000000 0
0.100000 0.000000 0
0.200000 0.000000 0
0.300000 0.000000 0
0.400000 0.000000 0
0.500000 0.000000 0
0.600000 0.000000 0
0.700000 0.000000 0
0.800000 0.000000 0
0.900000 0.000000 0
1.000000 0.000000 0
1.100000 0.000000 0
1.200000 0.000000 0
1.300000 0.000000 0
1.400000 0.000000 0
1.500000 0.000000 0
1.600000 0.000000 0
1.700000 0.000000 0
1.800000 0.000000 0
1.900000 0.000000 0
2.000000 0.000000 0
2.100000 0.000000 0
2.200000 0.000000 0
2.300000 0.000000 0
2.400000 0.000000 0
2.500000 0.000000 0
2.600000 0.000000 0
2.700000 0.000000 0
2.800000 0.000000 0
2.900000 0.000000 0
3.000000 0.000000 0
3.100000 0.000000 0
3.200000 0.000000 0
3.300000 0.000000 0
3.400000 0.000000 0
3.500000 0.000000 0
3.600000 0.000000 0
3.700000 0.000000 0
3.800000 0.000000 0
3.900000 0.000000 0
4.000000 0.000000 0
4.100000 0.000000 0
4.200000 0.000000 0
4.300000 0.000000 0
4.400000 0.000000 0
4.500000 0.000000 0
4.600000 0.000000 0
4.700000 0.000000 0
4.800000 0.000000 0
4.900000 0.000000 0
5.000000 0.000000 0
5.100000 0.000000 0
5.200000 0.000000 0
5.300000 0.000000 0
5.400000 0.000000 0
5.500000 0.000000 0
5.600000 0.000000 0
5.700000 0.000000 0
5.800000 0.000000 0
5.900000 0.000000 0
6.000000 0.000000 0
6.100000 0.000000 0
6.200000 0.000000 0
6.300000 0.000000 0
6.400000 0.000000 0
6.500000 0.000000 0
6.600000 0.000000 0
6.700000 0.000000 0
6.800000 0.000000 0
6.900000 0.000000 0
7.000000 0.000000 0
7.100000 0.000000 0
7.200000 0.000000 0
7.300000 0.000000 0
7.400000 0.000000 0
7.500000 0.000000 0
7.600000 0.000000 0
7.700000 0.000000 0
7.800000 0.000000 0
7.900000 0.000000 0
8.000000 0.000000 0
8.100000 0.000000 0
8.200000 0.000000 0
8.300000 0.000000 0
8.400000 0.000000 0
8.500000 0.000000 0
8.600000 0.000000 0
8.700000 0.000000 0
8.800000 0.000000 0
8.900000 0.000000 0
9.000000 0.000000 0
9.100000 0.000000 0
9.200000 0.000000 0
9.300000 0.000000 0
9.400000 0.000000 0
9.500000 0.000000 0
9.600000 0.000000 0
9.700000 0.000000 0
9.800000 0.000000 0
0.000000 0.100000 0
0.100000 0.100000 0
0.200000 0.100000 0
0.300000 0.100000 0
0.400000 0.100000 0
0.500000 0.100000 0
0.600000 0.100000 0
0.700000 0.100000 0
0.800000 0.100000 0
0.900000 0.100000 0
1.000000 0.100000 0
1.100000 0.100000 0
1.200000 0.100000 0
1.300000 0.100000 0
1.400000 0.100000 0
1.500000 0.100000 0
1.600000 0.100000 0
1.700000 0.100000 0
1.800000 0.100000 0
1.900000 0.100000 0
2.000000 0.100000 0
2.100000 0.100000 0
2.200000 0.100000 0
2.300000 0.100000 0
2.400000 0.100000 0
2.500000 0.100000 0
2.600000 0.100000 0
2.700000 0.100000 0
2.800000 0.100000 0
2.900000 0.100000 0
3.000000 0.100000 0
3.100000 0.100000 0
3.200000 0.100000 0
3.300000 0.100000 0
3.400000 0.100000 0
3.500000 0.100000 0
3.600000 0.100000 0
3.700000 0.100000 0
3.800000 0.100000 0
3.900000 0.100000 0
4.000000 0.100000 0
4.100000 0.100000 0
4.200000 0.100000 0
4.300000 0.100000 0
4.400000 0.100000 0
4.500000 0.100000 0
4.600000 0.100000 0
4.700000 0.100000 0
4.800000 0.100000 0
4.900000 0.100000 0
5.000000 0.100000 0
5.100000 0.100000 0
5.200000 0.100000 0
5.300000 0.100000 0
5.400000 0.100000 0
5.500000 0.100000 0
5.600000 0.100000 0
5.700000 0.100000 0
5.800000 0.100000 0
5.900000 0.100000 0
6.000000 0.100000 0
6.100000 0.100000 0
6.200000 0.100000 0
6.300000 0.100000 0
6.400000 0.100000 0
6.500000 0.100000 0
6.600000 0.100000 0
6.700000 0.100000 0
6.800000 0.100000 0
6.900000 0.100000 0
7.000000 0.100000 0
7.100000 0.100000 0
7.200000 0.100000 0
7.300000 0.100000 0
7.400000 0.100000 0
7.500000 0.100000 0
7.600000 0.100000 0
7.700000 0.100000 0
7.800000 0.100000 0
7.900000 0.100000 0
8.000000 0.100000 0
8.100000 0.100000 0
8.200000 0.100000 0
8.300000 0.100000 0
8.400000 0.100000 0
8.500000 0.100000 0
8.600000 0.100000 0
8.700000 0.100000 0
8.800000 0.100000 0
8.900000 0.100000 0
9.000000 0.100000 0
9.100000 0.100000 0
9.200000 0.100000 0
9.300000 0.100000 0
9.400000 0.100000 0
9.500000 0.100000 0
9.600000 0.100000 0
9.700000 0.100000 0
9.800000 0.100000 0
0.000000 0.200000 0
0.100000 0.200000 0
0.200000 0.200000 0
0.300000 0.200000 0
0.400000 0.200000 0
0.500000 0.200000 0
0.600000 0.200000 0
0.700000 0.200000 0
0.800000 0.200000 0
0.900000 0.200000 0
1.000000 0.200000 0
1.100000 0.200000 0
1.200000 0.200000 0
1.300000 0.200000 0
1.400000 0.200000 0
1.500000 0.200000 0
1.600000 0.200000 0
1.700000 0.200000 0
1.800000 0.200000 0
1.900000 0.200000 0
2.000000 0.200000 0
2.100000 0.200000 0
2.200000 0.200000 0
2.300000 0.200000 0
2.400000 0.200000 0
2.500000 0.200000 0
2.600000 0.200000 0
2.700000 0.200000 0
2.800000 0.200000 0
2.900000 0.200000 0
3.000000 0.200000 0
3.100000 0.200000 0
3.200000 0.200000 0
3.300000 0.200000 0
3.400000 0.200000 0
3.500000 0.200000 0
3.600000 0.200000 0
3.700000 0.200000 0
3.800000 0.200000 0
3.900000 0.200000 0
4.000000 0.200000 0
4.100000 0.200000 0
4.200000 0.200000 0
4.300000 0.200000 0
4.400000 0.200000 0
4.500000 0.200000 0
4.600000 0.200000 0
4.700000 0.200000 0
4.800000 0.200000 0
4.900000 0.200000 0
5.000000 0.200000 0
5.100000 0.200000 0
5.200000 0.200000 0
5.300000 0.200000 0
5.400000 0.200000 0
5.500000 0.200000 0
5.600000 0.200000 0
5.700000 0.200000 0
5.800000 0.200000 0
5.900000 0.200000 0
6.000000 0.200000 0
6.100000 0.200000 0
6.200000 0.200000 0
6.300000 0.200000 0
6.400000 0.200000 0
6.500000 0.200000 0
6.600000 0.200000 0
6.700000 0.200000 0
6.800000 0.200000 0
6.900000 0.200000 0
7.000000 0.200000 0
7.100000 0.200000 0
7.200000 0.200000 0
7.300000 0.200000 0
7.400000 0.200000 0
7.500000 0.200000 0
7.600000 0.200000 0
7.700000 0.200000 0
7.800000 0.200000 0
7.900000 0.200000 0
8.000000 0.200000 0
8.100000 0.200000 0
8.200000 0.200000 0
8.300000 0.200000 0
8.400000 0.200000 0
8.500000 0.200000 0
8.600000 0.200000 0
8.700000 0.200000 0
8.800000 0.200000 0
8.900000 0.200000 0
9.000000 0.200000 0
9.100000 0.200000 0
9.200000 0.200000 0
9.300000 0.200000 0
9.400000 0.200000 0
9.500000 0.200000 0
9.600000 0.200000 0
9.700000 0.200000 0
9.800000 0.200000 0
0.000000 0.300000 0
0.100000 0.300000 0
0.200000 0.300000 0
0.300000 0.300000 0
0.400000 0.300000 0
0.500000 0.300000 0
0.600000 0.300000 0
0.700000 0.300000 0
0.800000 0.300000 0
0.900000 0.300000 0
1.000000 0.300000 0
1.100000 0.300000 0
1.200000 0.300000 0
1.300000 0.300000 0
1.400000 0.300000 0
1.500000 0.300000 0
1.600000 0.300000 0
1.700000 0.300000 0
1.800000 0.300000 0
1.900000 0.300000 0
2.000000 0.300000 0
2.100000 0.300000 0
2.200000 0.300000 0
2.300000 0.300000 0
2.400000 0.300000 0
2.500000 0.300000 0
2.600000 0.300000 0
2.700000 0.300000 0
2.800000 0.300000 0
2.900000 0.300000 0
3.000000 0.300000 0
3.100000 0.300000 0
3.200000 0.300000 0
3.300000 0.300000 0
3.400000 0.300000 0
3.500000 0.300000 0
3.600000 0.300000 0
3.700000 0.300000 0
3.800000 0.300000 0
3.900000 0.300000 0
4.000000 0.300000 0
4.100000 0.300000 0
4.200000 0.300000 0
4.300000 0.300000 0
4.400000 0.300000 0
4.500000 0.300000 0
4.600000 0.300000 0
4.700000 0.300000 0
4.800000 0.300000 0
4.900000 0.300000 0
5.000000 0.300000 0
5.100000 0.300000 0
5.200000 0.300000 0
5.300000 0.300000 0
5.400000 0.300000 0
5.500000 0.300000 0
5.600000 0.300000 0
5.700000 0.300000 0
5.800000 0.300000 0
5.900000 0.300000 0
6.000000 0.300000 0
6.100000 0.300000 0
6.200000 0.300000 0
6.300000 0.300000 0
6.400000 0.300000 0
6.500000 0.300000 0
6.600000 0.300000 0
6.700000 0.300000 0
6.800000 0.300000 0
6.900000 0.300000 0
7.000000 0.300000 0
7.100000 0.300000 0
7.200000 0.300000 0
7.300000 0.300000 0
7.400000 0.300000 0
7.500000 0.300000 0
7.600000 0.300000 0
7.700000 0.300000 0
7.800000 0.300000 0
7.900000 0.300000 0
8.000000 0.300000 0
8.100000 0.300000 0
8.200000 0.300000 0
8.300000 0.300000 0
8.400000 0.300000 0
8.500000 0.300000 0
8.600000 0.300000 0
8.700000 0.300000 0
8.800000 0.300000 0
8.900000 0.300000 0
9.000000 0.300000 0
9.100000 0.300000 0
9.200000 0.300000 0
9.300000 0.300000 0
9.400000 0.300000 0
9.500000 0.300000 0
9.600000 0.300000 0
9.700000 0.300000 0
9.800000 0.300000 0
0.000000 0.400000 0
0.100000 0.400000 0
0.200000 0.400000 0
0.300000 0.400000 0
0.400000 0.400000 0
0.500000 0.400000 0
0.600000 0.400000 0
0.700000 0.400000 0
0.800000 0.400000 0
0.900000 0.400000 0
1.000000 0.400000 0
1.100000 0.400000 0
1.200000 0.400000 0
1.300000 0.400000 0
1.400000 0.400000 0
1.500000 0.400000 0
1.600000 0.400000 0
1.700000 0.400000 0
1.800000 0.400000 0
1.900000 0.400000 0
2.000000 0.400000 0
2.100000 0.400000 0
2.200000 0.400000 0
2.300000 0.400000 0
2.400000 0.400000 0
2.500000 0.400000 0
2.600000 0.400000 0
2.700000 0.400000 0
2.800000 0.400000 0
2.900000 0.400000 0
3.000000 0.400000 0
3.100000 0.400000 0
3.200000 0.400000 0
3.300000 0.400000 0
3.400000 0.400000 0
3.500000 0.400000 0
3.600000 0.400000 0
3.700000 0.400000 0
3.800000 0.400000 0
3.900000 0.400000 0
4.000000 0.400000 0
4.100000 0.400000 0
4.200000 0.400000 0
4.300000 0.400000 0
4.400000 0.400000 0
4.500000 0.400000 0
4.600000 0.400000 0
4.700000 0.400000 0
4.800000 0.400000 0
4.900000 0.400000 0
5.000000 0.400000 0
5.100000 0.400000 0
5.200000 0.400000 0
5.300000 0.400000 0
5.400000 0.400000 0
5.500000 0.400000 0
5.600000 0.400000 0
5.700000 0.400000 0
5.800000 0.400000 0
5.900000 0.400000 0
6.000000 0.400000 0
6.100000 0.400000 0
6.200000 0.400000 0
6.300000 0.400000 0
6.400000 0.400000 0
6.500000 0.400000 0
6.600000 0.400000 0
6.700000 0.400000 0
6.800000 0.400000 0
6.900000 0.400000 0
7.000000 0.400000 0
7.100000 0.400000 0
7.200000 0.400000 0
7.300000 0.400000 0
7.400000 0.400000 0
7.500000 0.400000 0
7.600000 0.400000 0
7.700000 0.400000 0
7.800000 0.400000 0
7.900000 0.400000 0
8.000000 0.400000 0
8.100000 0.400000 0
8.200000 0.400000 0
8.300000 0.400000 0
8.400000 0.400000 0
8.500000 0.400000 0
8.600000 0.400000 0
8.700000 0.400000 0
8.800000 0.400000 0
8.900000 0.400000 0
9.000000 0.400000 0
9.100000 0.400000 0
9.200000 0.400000 0
9.300000 0.400000 0
9.400000 0.400000 0
[...]
POINT_DATA 1881 

VECTORS velocity float
0.500000 0.000000 0
0.502129 0.000000 0
0.506816 0.000000 0
0.514461 0.000000 0
0.525454 0.000000 0
0.540088 0.000000 0
0.558348 0.000000 0
0.579620 0.000000 0
0.602463 0.000000 0
0.624555 0.000000 0
0.643961 0.000000 0
0.659736 0.000000 0
0.671797 0.000000 0
0.680586 0.000000 0
0.686782 0.000000 0
0.691081 0.000000 0
0.694010 0.000000 0
0.695787 0.000000 0
0.696256 0.000000 0
0.694999 0.000000 0
0.691529 0.000000 0
0.685505 0.000000 0
0.676836 0.000000 0
0.665694 0.000000 0
0.652475 0.000000 0
0.637734 0.000000 0
0.622133 0.000000 0
0.606399 0.000000 0
0.591282 0.000000 0
0.577528 0.000000 0
0.565857 0.000000 0
0.556973 0.000000 0
0.551621 0.000000 0
0.550595 0.000000 0
0.554444 0.000000 0
0.563179 0.000000 0
0.576078 0.000000 0
0.591589 0.000000 0
0.607475 0.000000 0
0.621249 0.000000 0
0.630795 0.000000 0
0.634959 0.000000 0
0.633651 0.000000 0
0.627304 0.000000 0
0.616676 0.000000 0
0.602712 0.000000 0
0.586415 0.000000 0
0.568763 0.000000 0
0.550667 0.000000 0
0.532968 0.000000 0
0.516464 0.000000 0
0.501939 0.000000 0
0.490197 0.000000 0
0.482056 0.000000 0
0.478266 0.000000 0
0.479226 0.000000 0
0.484732 0.000000 0
0.494342 0.000000 0
0.507493 0.000000 0
0.523512 0.000000 0
0.541578 0.000000 0
0.560627 0.000000 0
0.579248 0.000000 0
0.595680 0.000000 0
0.608043 0.000000 0
0.614828 0.000000 0
0.615444 0.000000 0
0.610073 0.000000 0
0.599235 0.000000 0
0.583770 0.000000 0
0.564822 0.000000 0
0.543776 0.000000 0
0.522189 0.000000 0
0.501693 0.000000 0
0.483855 0.000000 0
0.470006 0.000000 0
0.461046 0.000000 0
0.457277 0.000000 0
0.458233 0.000000 0
0.462806 0.000000 0
0.470006 0.000000 0
0.479116 0.000000 0
0.489683 0.000000 0
0.501424 0.000000 0
0.514114 0.000000 0
0.527443 0.000000 0
0.540890 0.000000 0
0.553647 0.000000 0
0.564635 0.000000 0
0.572662 0.000000 0
0.576727 0.000000 0
0.576319 0.000000 0
0.571342 0.000000 0
0.561946 0.000000 0
0.548608 0.000000 0
0.532207 0.000000 0
0.514078 0.000000 0
0.495969 0.000000 0
0.480423 0.000000 0
1.000000 -0.002105 0
1.004821 -0.006780 0
1.014832 -0.012311 0
1.030751 -0.018621 0
1.053435 -0.025613 0
1.083665 -0.032882 0
1.121697 -0.039521 0
1.166534 -0.044104 0
1.215338 -0.044925 0
1.262210 -0.041481 0
1.302691 -0.035156 0
1.335058 -0.027807 0
1.359504 -0.020820 0
1.377203 -0.014954 0
1.389727 -0.010467 0
1.398650 -0.007205 0
1.405186 -0.004683 0
1.409826 -0.002220 0
1.412138 0.000813 0
1.411053 0.004750 0
1.405400 0.009514 0
1.394391 0.014712 0
1.377835 0.019828 0
1.356128 0.024375 0
1.330120 0.027973 0
1.300977 0.030352 0
1.270069 0.031343 0
1.238886 0.030857 0
1.208959 0.028876 0
1.181794 0.025430 0
1.158822 0.020560 0
1.141394 0.014242 0
1.130832 0.006387 0
1.128451 -0.002811 0
1.135400 -0.012568 0
1.152102 -0.021615 0
1.177584 -0.028389 0
1.209154 -0.031374 0
1.242607 -0.029638 0
1.272911 -0.023300 0
1.295334 -0.013692 0
1.306753 -0.002840 0
1.306427 0.007670 0
1.295365 0.016990 0
1.275291 0.024606 0
1.248273 0.030273 0
1.216443 0.033959 0
1.181835 0.035759 0
1.146323 0.035804 0
1.111617 0.034211 0
1.079300 0.031036 0
1.050860 0.026274 0
1.027659 0.019889 0
1.010843 0.011936 0
1.001200 0.002835 0
0.999116 -0.006460 0
1.004620 -0.015110 0
1.017416 -0.022754 0
1.036956 -0.029160 0
1.062471 -0.034074 0
1.092950 -0.037103 0
1.126961 -0.037657 0
1.162385 -0.035040 0
1.196272 -0.028782 0
1.225021 -0.019136 0
1.244937 -0.007390 0
1.253182 0.004765 0
1.248981 0.016218 0
1.233383 0.026310 0
1.208152 0.034420 0
1.175613 0.040000 0
1.138505 0.042637 0
1.099807 0.042087 0
1.062525 0.038338 0
1.029403 0.031691 0
1.002586 0.022812 0
0.983307 0.012732 0
0.971766 0.002817 0
0.967345 -0.005526 0
0.968999 -0.011771 0
0.975519 -0.016308 0
0.985943 -0.019674 0
0.999674 -0.022305 0
1.016412 -0.024428 0
1.035987 -0.026016 0
1.058088 -0.026774 0
1.081996 -0.026202 0
1.106417 -0.023742 0
1.129476 -0.019012 0
1.148867 -0.012089 0
1.162170 -0.003654 0
1.167364 0.005387 0
1.163617 0.014375 0
1.151291 0.022736 0
1.131451 0.029740 0
1.105858 0.034531 0
1.076927 0.036239 0
1.047517 0.033655 0
1.020900 0.029704 0
1.000000 -0.004786 0
1.004975 -0.014785 0
1.014990 -0.025907 0
1.030797 -0.038584 0
1.053574 -0.052898 0
1.084754 -0.068248 0
1.125586 -0.082855 0
1.176000 -0.093627 0
1.234058 -0.095658 0
1.287994 -0.087324 0
1.331608 -0.072812 0
1.364303 -0.056775 0
1.387619 -0.042108 0
1.403625 -0.030189 0
1.414494 -0.021419 0
1.422341 -0.015432 0
1.428891 -0.011144 0
1.434916 -0.006921 0
1.439694 -0.001199 0
1.441329 0.006766 0
1.437978 0.016686 0
1.428530 0.027586 0
1.412794 0.038282 0
1.391333 0.047731 0
1.365174 0.055164 0
1.335621 0.060062 0
1.304140 0.062100 0
1.272289 0.061118 0
1.241650 0.057099 0
1.213735 0.050143 0
1.189902 0.040407 0
1.171317 0.028000 0
1.159020 0.012959 0
1.154110 -0.004549 0
1.158006 -0.023628 0
1.171752 -0.042157 0
1.195097 -0.057024 0
1.226236 -0.064996 0
1.261932 -0.063732 0
1.297591 -0.052706 0
1.327656 -0.033823 0
1.346895 -0.011073 0
1.352575 0.011407 0
1.345748 0.031153 0
1.328715 0.047108 0
1.304000 0.058863 0
1.274031 0.066451 0
1.240999 0.070131 0
1.206817 0.070230 0
1.173144 0.067032 0
1.141421 0.060765 0
1.112867 0.051649 0
1.088420 0.040024 0
1.068632 0.026466 0
1.053633 0.011734 0
1.043377 -0.003411 0
1.038053 -0.018290 0
1.037949 -0.032325 0
1.043382 -0.045043 0
1.054732 -0.055979 0
1.072409 -0.064474 0
1.096472 -0.069417 0
1.126109 -0.069294 0
1.159358 -0.062620 0
1.193115 -0.048651 0
1.223321 -0.028149 0
1.245465 -0.004033 0
1.256081 0.019808 0
1.254895 0.040837 0
1.243425 0.057778 0
1.223749 0.069654 0
1.198279 0.075811 0
1.169539 0.075985 0
1.139924 0.070410 0
1.111468 0.059944 0
1.085639 0.046100 0
1.063252 0.030824 0
1.044550 0.015967 0
1.029550 0.002770 0
1.018317 -0.008171 0
1.010686 -0.016940 0
1.006550 -0.024151 0
1.006119 -0.030465 0
1.009840 -0.036310 0
1.018234 -0.041673 0
1.031538 -0.046005 0
1.049415 -0.048325 0
1.070868 -0.047476 0
1.094319 -0.042446 0
1.117729 -0.032691 0
1.138682 -0.018495 0
1.154577 -0.001445 0
1.163332 0.016075 0
1.164507 0.032168 0
1.158846 0.045435 0
1.147658 0.054525 0
1.132581 0.058341 0
1.115249 0.056027 0
1.096684 0.051546 0
1.000000 -0.007059 0
1.003989 -0.021747 0
1.012287 -0.038129 0
1.025882 -0.057201 0
1.046488 -0.079566 0
1.076659 -0.104890 0
1.119662 -0.130762 0
1.177880 -0.152567 0
1.254805 -0.156900 0
1.318770 -0.139010 0
1.362999 -0.111445 0
1.391781 -0.083803 0
1.409617 -0.060131 0
1.419776 -0.041823 0
1.425051 -0.029178 0
1.428272 -0.021590 0
1.432133 -0.017244 0
1.438394 -0.013014 0
1.446182 -0.005592 0
1.451750 0.006474 0
1.451410 0.022320 0
1.443493 0.039900 0
1.427939 0.057029 0
1.405699 0.071999 0
1.378126 0.083687 0
1.346716 0.091389 0
1.313048 0.094678 0
1.278775 0.093350 0
1.245568 0.087433 0
1.214991 0.077183 0
1.188315 0.062985 0
1.166413 0.045133 0
1.149863 0.023606 0
1.139230 -0.001783 0
1.135487 -0.030195 0
1.140208 -0.058692 0
1.154072 -0.082861 0
1.177065 -0.098200 0
1.208486 -0.100989 0
1.245926 -0.089020 0
1.284415 -0.062989 0
1.316767 -0.027752 0
1.335865 0.008822 0
1.339311 0.040855 0
1.329970 0.066358 0
1.311023 0.084960 0
1.285362 0.096964 0
1.255463 0.102977 0
1.223372 0.103663 0
1.190751 0.099610 0
1.158940 0.091316 0
1.128990 0.079278 0
1.101660 0.064127 0
1.077373 0.046726 0
1.056136 0.028095 0
1.037529 0.009125 0
1.020977 -0.009675 0
1.006494 -0.028075 0
0.995579 -0.045935 0
0.990720 -0.063093 0
0.994329 -0.078835 0
1.007696 -0.091349 0
1.030404 -0.097920 0
1.060563 -0.095784 0
1.095306 -0.083096 0
1.131154 -0.059738 0
1.164136 -0.027992 0
1.189744 0.006790 0
1.204597 0.038969 0
1.208942 0.065568 0
1.204155 0.085148 0
1.192009 0.096849 0
1.174393 0.100444 0
1.153099 0.096412 0
1.129678 0.085978 0
1.105396 0.071029 0
1.081253 0.053822 0
1.057986 0.036521 0
1.036002 0.020708 0
1.015464 0.007095 0
0.996720 -0.004539 0
0.980503 -0.015105 0
0.968154 -0.025593 0
0.961390 -0.036541 0
0.961465 -0.047712 0
0.968688 -0.057953 0
0.982404 -0.065530 0
1.001280 -0.068644 0
1.023645 -0.065873 0
1.047723 -0.056451 0
1.071749 -0.040501 0
1.093925 -0.019262 0
1.112137 0.004446 0
1.124553 0.027222 0
1.130927 0.046589 0
1.131694 0.060796 0
1.127557 0.068648 0
1.119253 0.069551 0
1.107320 0.066988 0
1.000000 -0.008756 0
1.002577 -0.027050 0
1.008104 -0.047796 0
1.017679 -0.072781 0
1.033444 -0.103670 0
1.059232 -0.141417 0
1.101451 -0.184069 0
1.168023 -0.228756 0
1.281811 -0.236528 0
1.351279 -0.195500 0
1.384333 -0.145808 0
1.399657 -0.103382 0
1.405398 -0.070096 0
1.404706 -0.045618 0
1.399845 -0.029905 0
1.393775 -0.022500 0
1.390346 -0.021255 0
1.394002 -0.020961 0
1.405440 -0.014547 0
1.418936 0.001543 0
1.425432 0.024948 0
1.421782 0.051062 0
1.408531 0.076080 0
1.387431 0.097547 0
1.360216 0.114150 0
1.328453 0.125143 0
1.293703 0.130045 0
1.257667 0.128601 0
1.222165 0.120887 0
1.188931 0.107404 0
1.159186 0.088994 0
1.133260 0.066464 0
1.110682 0.040155 0
1.090583 0.009841 0
1.071943 -0.024592 0
1.055866 -0.060729 0
1.047013 -0.093871 0
1.050126 -0.119403 0
1.068365 -0.132588 0
1.101432 -0.128628 0
1.145347 -0.104656 0
1.192888 -0.062518 0
1.234350 -0.011132 0
1.260337 0.037053 0
1.269621 0.075401 0
1.265800 0.103475 0
1.252119 0.122014 0
1.231343 0.132125 0
1.205771 0.134945 0
1.177291 0.131467 0
1.147435 0.122530 0
1.117403 0.108932 0
1.088004 0.091644 0
1.059435 0.071994 0
1.031066 0.051583 0
1.001758 0.031754 0
0.971062 0.012752 0
0.940625 -0.006919 0
0.914421 -0.029261 0
0.897656 -0.054722 0
0.893731 -0.081442 0
0.902782 -0.105485 0
0.922912 -0.122156 0
0.951502 -0.127519 0
0.985813 -0.119239 0
1.023120 -0.096976 0
1.060635 -0.062621 0
1.095190 -0.020650 0
1.122521 0.021642 0
1.140189 0.058222 0
1.148570 0.086589 0
1.148640 0.105576 0
1.141629 0.114897 0
1.128799 0.115127 0
1.111318 0.107648 0
1.090188 0.094526 0
1.066210 0.078236 0
1.039985 0.061220 0
1.012112 0.045293 0
0.983574 0.031113 0
0.956122 0.018024 0
0.932164 0.004417 0
0.914126 -0.011351 0
0.903853 -0.029619 0
0.902097 -0.048968 0
0.908323 -0.066942 0
0.921191 -0.080916 0
0.939090 -0.088716 0
0.960435 -0.088887 0
0.983775 -0.080794 0
1.007810 -0.064696 0
1.031345 -0.041831 0
1.053135 -0.014551 0
1.071359 0.013378 0
1.084644 0.038294 0
1.092685 0.057895 0
1.095471 0.070782 0
1.093184 0.076263 0
1.086064 0.076681 0
1.000000 -0.009619 0
1.000654 -0.029833 0
1.002184 -0.053228 0
1.005407 -0.082537 0
1.012236 -0.121114 0
1.026957 -0.172892 0
1.058931 -0.239541 0
1.125553 -0.332909 0
1.296784 -0.340141 0
1.340262 -0.241519 0
1.333047 -0.159812 0
1.320501 -0.104860 0
1.307692 -0.065175 0
1.292892 -0.036262 0
1.274747 -0.018232 0
1.254340 -0.012079 0
1.236160 -0.017462 0
1.227283 -0.028100 0
1.235734 -0.030520 0
1.259662 -0.013513 0
1.284402 0.019479 0
1.295018 0.056806 0
1.293284 0.091384 0
1.282504 0.120316 0
1.264495 0.142668 0
1.240298 0.157906 0
1.211006 0.165468 0
1.178168 0.164892 0
1.143834 0.156175 0
1.110154 0.140171 0
1.078129 0.118666 0
1.046003 0.093650 0
1.009736 0.066297 0
0.966919 0.036969 0
0.920304 0.004534 0
0.877021 -0.033751 0
0.847629 -0.077114 0
0.839961 -0.119548 0
0.854251 -0.152288 0
0.887290 -0.165994 0
0.934800 -0.154439 0
0.991660 -0.116749 0
1.051164 -0.058621 0
1.103649 0.005589 0
1.139608 0.060899 0
1.159244 0.102466 0
1.165564 0.131425 0
1.161130 0.149329 0
1.148210 0.157718 0
1.128773 0.157948 0
1.104415 0.151207 0
1.076169 0.138712 0
1.044225 0.122099 0
1.007898 0.103669 0
0.966495 0.085777 0
0.921139 0.069135 0
0.876111 0.051465 0
0.837880 0.028574 0
0.811869 -0.002959 0
0.800373 -0.042395 0
0.802383 -0.083954 0
0.815146 -0.120525 0
0.836037 -0.146637 0
0.863120 -0.158681 0
0.894867 -0.154710 0
0.929762 -0.134556 0
0.966116 -0.100059 0
1.001987 -0.055094 0
1.034776 -0.006028 0
1.060581 0.039522 0
1.078089 0.076700 0
1.087362 0.103792 0
1.088874 0.120287 0
1.083252 0.126725 0
1.071102 0.124590 0
1.052915 0.116139 0
1.029110 0.104028 0
1.000330 0.090620 0
0.967972 0.077121 0
0.934602 0.063088 0
0.903778 0.046874 0
0.879114 0.026892 0
0.862991 0.002720 0
0.855875 -0.024509 0
0.856893 -0.052180 0
0.864526 -0.077045 0
0.877242 -0.096295 0
0.893748 -0.107886 0
0.912982 -0.110556 0
0.934016 -0.103824 0
0.955984 -0.088071 0
0.978046 -0.064586 0
0.999352 -0.035567 0
1.018850 -0.004286 0
1.034812 0.025264 0
1.046241 0.049970 0
1.052609 0.068149 0
1.053647 0.078958 0
1.049125 0.083041 0
1.000000 -0.009394 0
0.998361 -0.029218 0
0.994934 -0.052546 0
0.989667 -0.082828 0
0.982966 -0.125216 0
0.976907 -0.188104 0
0.978809 -0.282652 0
1.010584 -0.466595 0
1.201595 -0.451223 0
1.153543 -0.231751 0
1.066677 -0.126039 0
1.020762 -0.078021 0
0.993655 -0.042480 0
0.965714 -0.012662 0
0.928109 0.008660 0
0.885323 0.016097 0
0.846146 0.005809 0
0.820861 -0.020528 0
0.824616 -0.046920 0
0.863821 -0.047120 0
0.924776 -0.010403 0
0.982465 0.042185 0
1.019947 0.088598 0
1.041526 0.126339 0
1.051109 0.156359 0
1.049135 0.178636 0
1.036040 0.192180 0
1.012674 0.195779 0
0.979783 0.188910 0
0.937387 0.173119 0
0.884993 0.153156 0
0.823485 0.134869 0
0.757390 0.119253 0
0.695205 0.099286 0
0.647421 0.065317 0
0.621633 0.011954 0
0.617766 -0.056805 0
0.631144 -0.126019 0
0.657487 -0.179909 0
0.694554 -0.209170 0
0.741496 -0.209020 0
0.797259 -0.178876 0
0.859413 -0.123116 0
0.923335 -0.051386 0
0.979513 0.019809 0
1.020138 0.077523 0
1.045969 0.120132 0
1.058678 0.149483 0
1.059882 0.167305 0
1.051031 0.175265 0
1.033134 0.175138 0
1.006472 0.169126 0
0.970668 0.159919 0
0.925763 0.149729 0
0.874256 0.138350 0
0.822430 0.122145 0
0.778798 0.096018 0
0.750134 0.057331 0
0.738421 0.008255 0
0.740407 -0.045229 0
0.750832 -0.096209 0
0.766175 -0.139134 0
0.784986 -0.170126 0
0.807074 -0.186345 0
0.832604 -0.185878 0
0.861417 -0.168222 0
0.892713 -0.134843 0
0.925134 -0.089308 0
0.956944 -0.036948 0
0.985338 0.014912 0
1.007345 0.059809 0
1.022056 0.094792 0
1.029147 0.119009 0
1.028545 0.132901 0
1.020255 0.137987 0
1.004383 0.136520 0
0.981416 0.130823 0
0.952732 0.122360 0
0.920993 0.111024 0
0.889940 0.095309 0
0.863443 0.073514 0
0.844311 0.045206 0
0.833623 0.011890 0
0.830766 -0.023518 0
0.834060 -0.057617 0
0.841828 -0.087289 0
0.852854 -0.110135 0
0.866370 -0.124454 0
0.881893 -0.129153 0
0.899025 -0.123794 0
0.917311 -0.108725 0
0.936174 -0.085199 0
0.954927 -0.055354 0
0.972771 -0.022080 0
0.988468 0.010903 0
1.000542 0.040099 0
1.008089 0.063376 0
1.010500 0.079747 0
1.007201 0.087740 0
1.000000 -0.007967 0
0.996115 -0.024752 0
0.987695 -0.044530 0
0.973403 -0.070564 0
0.950917 -0.108348 0
0.916524 -0.168725 0
0.864548 -0.273206 0
0.791044 -0.555683 0
0.552999 -0.385674 0
0.496131 0.000000 0
0.427844 -0.017847 0
0.370597 -0.031831 0
0.362842 -0.010117 0
0.359566 0.029298 0
0.336620 0.062169 0
0.300110 0.069891 0
0.269857 0.047007 0
0.265205 -0.006564 0
0.295042 -0.073474 0
0.358971 -0.113669 0
0.448640 -0.099162 0
0.551741 -0.038361 0
0.645693 0.032327 0
0.714303 0.089158 0
0.759624 0.135063 0
0.784644 0.172979 0
0.789776 0.201934 0
0.775139 0.221157 0
0.740589 0.231471 0
0.686750 0.234971 0
0.617858 0.232581 0
0.544767 0.221267 0
0.483559 0.194590 0
0.448229 0.146949 0
0.443441 0.078116 0
0.463621 -0.004089 0
0.494576 -0.086619 0
0.525276 -0.159261 0
0.553958 -0.215690 0
0.583600 -0.249997 0
0.618440 -0.257138 0
0.661623 -0.234661 0
0.713685 -0.184692 0
0.772280 -0.114507 0
0.832466 -0.035899 0
0.884377 0.036014 0
0.922562 0.092888 0
0.947208 0.135419 0
0.958793 0.165369 0
0.957785 0.184700 0
0.944404 0.195769 0
0.918786 0.201183 0
0.881930 0.202814 0
0.837286 0.200087 0
0.791575 0.189117 0
0.753128 0.164601 0
0.728210 0.123769 0
0.718369 0.068959 0
0.720880 0.006776 0
0.730829 -0.054800 0
0.743589 -0.109716 0
0.756726 -0.154675 0
0.769751 -0.187532 0
0.783520 -0.206295 0
0.799492 -0.209050 0
0.818879 -0.194662 0
0.841957 -0.163773 0
0.867906 -0.119321 0
0.895145 -0.066231 0
0.921667 -0.010877 0
0.944283 0.039984 0
0.961020 0.081991 0
0.970855 0.113799 0
0.973156 0.135618 0
0.967587 0.148754 0
0.954292 0.154980 0
0.934291 0.155681 0
0.909816 0.151046 0
0.884188 0.139916 0
0.861031 0.120639 0
0.843165 0.092504 0
0.831888 0.056715 0
0.827031 0.016268 0
0.827529 -0.024944 0
0.831820 -0.063240 0
0.838543 -0.095837 0
0.846827 -0.120834 0
0.856289 -0.136923 0
0.866906 -0.143209 0
0.878795 -0.139241 0
0.891979 -0.125218 0
0.906227 -0.102201 0
0.921026 -0.072163 0
0.935637 -0.037827 0
0.949129 -0.002506 0
0.960051 0.030350 0
0.967259 0.058191 0
0.969941 0.079845 0
0.967370 0.091556 0
1.000000 -0.005498 0
0.994492 -0.016899 0
0.982445 -0.029829 0
0.961501 -0.046045 0
0.927054 -0.068330 0
0.870040 -0.101725 0
0.771145 -0.157161 0
0.588366 -0.252450 0
0.000000 -0.156301 0
0.000000 0.000000 0
0.000000 0.000000 0
-0.026522 -0.021686 0
-0.041020 -0.031437 0
-0.068549 0.013571 0
-0.097927 0.068124 0
-0.123045 0.082868 0
-0.128606 0.040721 0
-0.099239 -0.045708 0
-0.047732 -0.140681 0
0.016380 -0.200714 0
0.097051 -0.203169 0
0.195318 -0.154864 0
0.304975 -0.073960 0
0.402564 0.012412 0
0.472494 0.086022 0
0.515578 0.148489 0
0.533971 0.201691 0
0.528826 0.244974 0
0.502657 0.277309 0
0.461926 0.295861 0
0.418398 0.295152 0
0.386583 0.269182 0
0.377605 0.215802 0
0.394069 0.139414 0
0.429545 0.049933 0
0.470296 -0.039175 0
0.504884 -0.118453 0
0.529983 -0.185393 0
0.546275 -0.238227 0
0.557701 -0.273647 0
0.570415 -0.287038 0
0.590778 -0.274116 0
0.622738 -0.233768 0
0.666115 -0.170163 0
0.716975 -0.092284 0
0.768458 -0.012569 0
0.810941 0.057304 0
0.841007 0.113255 0
0.857917 0.156731 0
0.861403 0.189658 0
0.851639 0.214141 0
0.829919 0.231606 0
0.799713 0.241425 0
0.767166 0.240089 0
0.739796 0.222514 0
0.723497 0.185518 0
0.720075 0.130785 0
0.727328 0.064669 0
0.741045 -0.004199 0
0.756311 -0.067932 0
0.769832 -0.122101 0
0.779997 -0.165293 0
0.786658 -0.196917 0
0.791056 -0.216082 0
0.795510 -0.221234 0
0.802633 -0.210684 0
0.814244 -0.183868 0
0.830625 -0.142493 0
0.850573 -0.090707 0
0.872016 -0.034224 0
0.892213 0.020459 0
0.908352 0.068222 0
0.918858 0.106874 0
0.922783 0.136170 0
0.919763 0.156853 0
0.910248 0.169819 0
0.895752 0.175302 0
0.878831 0.172465 0
0.862528 0.159811 0
0.849464 0.136334 0
0.841087 0.102659 0
0.837545 0.061343 0
0.838088 0.016252 0
0.841581 -0.028304 0
0.846700 -0.068629 0
0.852353 -0.102294 0
0.857854 -0.127879 0
0.863012 -0.144531 0
0.868115 -0.151657 0
0.873757 -0.148865 0
0.880539 -0.136156 0
0.888764 -0.114244 0
0.898275 -0.084763 0
0.908492 -0.050183 0
0.918545 -0.013510 0
0.927246 0.021969 0
0.933352 0.053486 0
0.935967 0.079636 0
0.934340 0.094488 0
1.000000 -0.002448 0
0.993940 -0.007184 0
0.980751 -0.011535 0
0.957983 -0.015168 0
0.920943 -0.016878 0
0.860950 -0.012805 0
0.761496 0.008480 0
0.589417 0.112296 0
0.275264 0.099520 0
0.000000 0.000000 0
0.000000 0.000000 0
0.000000 0.000000 0
-0.022204 0.031401 0
-0.103579 0.086214 0
-0.159012 0.116672 0
-0.186825 0.100577 0
-0.168988 0.023206 0
-0.126828 -0.087434 0
-0.088140 -0.189089 0
-0.057528 -0.258447 0
-0.021647 -0.278095 0
0.031295 -0.246281 0
0.102636 -0.174916 0
0.184786 -0.078357 0
0.257947 0.022054 0
0.310143 0.111507 0
0.341738 0.188693 0
0.355045 0.252481 0
0.355029 0.298381 0
0.350690 0.319241 0
0.353313 0.307937 0
0.371998 0.262072 0
0.409629 0.187116 0
0.462120 0.095019 0
0.518774 0.001896 0
0.565685 -0.079421 0
0.598625 -0.146299 0
0.616643 -0.200644 0
0.620399 -0.243401 0
0.612950 -0.274131 0
0.600322 -0.290211 0
0.590866 -0.286979 0
0.592626 -0.260024 0
0.609808 -0.208740 0
0.640968 -0.138239 0
0.680255 -0.057949 0
0.718858 0.020343 0
0.748925 0.088446 0
0.767930 0.144976 0
0.775179 0.190982 0
0.771418 0.227257 0
0.759321 0.253114 0
0.743755 0.265573 0
0.730903 0.260012 0
0.726070 0.232794 0
0.731485 0.184329 0
0.745896 0.119945 0
0.765974 0.047997 0
0.787605 -0.022201 0
0.806566 -0.083582 0
0.820651 -0.133398 0
0.828631 -0.171497 0
0.830210 -0.198586 0
0.826336 -0.215144 0
0.819408 -0.220624 0
0.812925 -0.213393 0
0.810372 -0.191762 0
0.813847 -0.155648 0
0.823331 -0.107620 0
0.837052 -0.052514 0
0.852371 0.003650 0
0.866157 0.055348 0
0.876313 0.099370 0
0.881686 0.134715 0
0.881980 0.161291 0
0.877860 0.178994 0
0.870940 0.187100 0
0.863439 0.184272 0
0.857508 0.169285 0
0.854544 0.142083 0
0.854912 0.104426 0
0.858169 0.059716 0
0.863478 0.012235 0
0.869769 -0.033554 0