# vtk DataFile Version 2.0
generated by CFD-lab course output (written by Tobias Neckel) 
ASCII

DATASET STRUCTURED_GRID
DIMENSIONS  99 19 1 
POINTS 1881 float

0.000000 0.000000 0
0.100000 0.000000 0
0.200000 0.000000 0
0.300000 0.000000 0
0.400000 0.000000 0
0.500000 0.000000 0
0.600000 0.000000 0
0.700000 0.000000 0
0.800000 0.000000 0
0.900000 0.000000 0
1.000000 0.000000 0
1.100000 0.000000 0
1.200000 0.000000 0
1.300000 0.000000 0
1.400000 0.000000 0
1.500000 0.000000 0
1.600000 0.000000 0
1.700000 0.000000 0
1.800000 0.000000 0
1.900000 0.000000 0
2.000000 0.000000 0
2.100000 0.000000 0
2.200000 0.000000 0
2.300000 0.000000 0
2.400000 0.000000 0
2.500000 0.000000 0
2.600000 0.000000 0
2.700000 0.000000 0
2.800000 0.000000 0
2.900000 0.000000 0
3.000000 0.000000 0
3.100000 0.000000 0
3.200000 0.000000 0
3.300000 0.000000 0
3.400000 0.000000 0
3.500000 0.000000 0
3.600000 0.000000 0
3.700000 0.000000 0
3.800000 0.000000 0
3.900000 0.000000 0
4.000000 0.000000 0
4.100000 0.000000 0
4.200000 0.000000 0
4.300000 0.000000 0
4.400000 0.000000 0
4.500000 0.000000 0
4.600000 0.000000 0
4.700000 0.000000 0
4.800000 0.000000 0
4.900000 0.000000 0
5.000000 0.000000 0
5.100000 0.000000 0
5.200000 0.000000 0
5.300000 0.000000 0
5.400000 0.000000 0
5.500000 0.000000 0
5.600000 0.000000 0
5.700000 0.000000 0
5.800000 0.000000 0
5.900000 0.000000 0
6.000000 0.000000 0
6.100000 0.000000 0
6.200000 0.000000 0
6.300000 0.000000 0
6.400000 0.000000 0
6.500000 0.000000 0
6.600000 0.000000 0
6.700000 0.000000 0
6.800000 0.000000 0
6.900000 0.000000 0
7.000000 0.000000 0
7.100000 0.000000 0
7.200000 0.000000 0
7.300000 0.000000 0
7.400000 0.000000 0
7.500000 0.000000 0
7.600000 0.000000 0
7.700000 0.000000 0
7.800000 0.000000 0
7.900000 0.000000 0
8.000000 0.000000 0
8.100000 0.000000 0
8.200000 0.000000 0
8.300000 0.000000 0
8.400000 0.000000 0
8.500000 0.000000 0
8.600000 0.000000 0
8.700000 0.000000 0
8.800000 0.000000 0
8.900000 0.000000 0
9.000000 0.000000 0
9.100000 0.000000 0
9.200000 0.000000 0
9.300000 0.000000 0
9.400000 0.000000 0
9.500000 0.000000 0
9.600000 0.000000 0
9.700000 0.000000 0
9.800000 0.000000 0
0.000000 0.100000 0
0.100000 0.100000 0
0.200000 0.100000 0
0.300000 0.100000 0
0.400000 0.100000 0
0.500000 0.100000 0
0.600000 0.100000 0
0.700000 0.100000 0
0.800000 0.100000 0
0.900000 0.100000 0
1.000000 0.100000 0
1.100000 0.100000 0
1.200000 0.100000 0
1.300000 0.100000 0
1.400000 0.100000 0
1.500000 0.100000 0
1.600000 0.100000 0
1.700000 0.100000 0
1.800000 0.100000 0
1.900000 0.100000 0
2.000000 0.100000 0
2.100000 0.100000 0
2.200000 0.100000 0
2.300000 0.100000 0
2.400000 0.100000 0
2.500000 0.100000 0
2.600000 0.100000 0
2.700000 0.100000 0
2.800000 0.100000 0
2.900000 0.100000 0
3.000000 0.100000 0
3.100000 0.100000 0
3.200000 0.100000 0
3.300000 0.100000 0
3.400000 0.100000 0
3.500000 0.100000 0
3.600000 0.100000 0
3.700000 0.100000 0
3.800000 0.100000 0
3.900000 0.100000 0
4.000000 0.100000 0
4.100000 0.100000 0
4.200000 0.100000 0
4.300000 0.100000 0
4.400000 0.100000 0
4.500000 0.100000 0
4.600000 0.100000 0
4.700000 0.100000 0
4.800000 0.100000 0
4.900000 0.100000 0
5.000000 0.100000 0
5.100000 0.100000 0
5.200000 0.100000 0
5.300000 0.100000 0
5.400000 0.100000 0
5.500000 0.100000 0
5.600000 0.100000 0
5.700000 0.100000 0
5.800000 0.100000 0
5.900000 0.100000 0
6.000000 0.100000 0
6.100000 0.100000 0
6.200000 0.100000 0
6.300000 0.100000 0
6.400000 0.100000 0
6.500000 0.100000 0
6.600000 0.100000 0
6.700000 0.100000 0
6.800000 0.100000 0
6.900000 0.100000 0
7.000000 0.100000 0
7.100000 0.100000 0
7.200000 0.100000 0
7.300000 0.100000 0
7.400000 0.100000 0
7.500000 0.100000 0
7.600000 0.100000 0
7.700000 0.100000 0
7.800000 0.100000 0
7.900000 0.100000 0
8.000000 0.100000 0
8.100000 0.100000 0
8.200000 0.100000 0
8.300000 0.100000 0
8.400000 0.100000 0
8.500000 0.100000 0
8.600000 0.100000 0
8.700000 0.100000 0
8.800000 0.100000 0
8.900000 0.100000 0
9.000000 0.100000 0
9.100000 0.100000 0
9.200000 0.100000 0
9.300000 0.100000 0
9.400000 0.100000 0
9.500000 0.100000 0
9.600000 0.100000 0
9.700000 0.100000 0
9.800000 0.100000 0
0.000000 0.200000 0
0.100000 0.200000 0
0.200000 0.200000 0
0.300000 0.200000 0
0.400000 0.200000 0
0.500000 0.200000 0
0.600000 0.200000 0
0.700000 0.200000 0
0.800000 0.200000 0
0.900000 0.200000 0
1.000000 0.200000 0
1.100000 0.200000 0
1.200000 0.200000 0
1.300000 0.200000 0
1.400000 0.200000 0
1.500000 0.200000 0
1.600000 0.200000 0
1.700000 0.200000 0
1.800000 0.200000 0
1.900000 0.200000 0
2.000000 0.200000 0
2.100000 0.200000 0
2.200000 0.200000 0
2.300000 0.200000 0
2.400000 0.200000 0
2.500000 0.200000 0
2.600000 0.200000 0
2.700000 0.200000 0
2.800000 0.200000 0
2.900000 0.200000 0
3.000000 0.200000 0
3.100000 0.200000 0
3.200000 0.200000 0
3.300000 0.200000 0
3.400000 0.200000 0
3.500000 0.200000 0
3.600000 0.200000 0
3.700000 0.200000 0
3.800000 0.200000 0
3.900000 0.200000 0
4.000000 0.200000 0
4.100000 0.200000 0
4.200000 0.200000 0
4.300000 0.200000 0
4.400000 0.200000 0
4.500000 0.200000 0
4.600000 0.200000 0
4.700000 0.200000 0
4.800000 0.200000 0
4.900000 0.200000 0
5.000000 0.200000 0
5.100000 0.200000 0
5.200000 0.200000 0
5.300000 0.200000 0
5.400000 0.200000 0
5.500000 0.200000 0
5.600000 0.200000 0
5.700000 0.200000 0
5.800000 0.200000 0
5.900000 0.200000 0
6.000000 0.200000 0
6.100000 0.200000 0
6.200000 0.200000 0
6.300000 0.200000 0
6.400000 0.200000 0
6.500000 0.200000 0
6.600000 0.200000 0
6.700000 0.200000 0
6.800000 0.200000 0
6.900000 0.200000 0
7.000000 0.200000 0
7.100000 0.200000 0
7.200000 0.200000 0
7.300000 0.200000 0
7.400000 0.200000 0
7.500000 0.200000 0
7.600000 0.200000 0
7.700000 0.200000 0
7.800000 0.200000 0
7.900000 0.200000 0
8.000000 0.200000 0
8.100000 0.200000 0
8.200000 0.200000 0
8.300000 0.200000 0
8.400000 0.200000 0
8.500000 0.200000 0
8.600000 0.200000 0
8.700000 0.200000 0
8.800000 0.200000 0
8.900000 0.200000 0
9.000000 0.200000 0
9.100000 0.200000 0
9.200000 0.200000 0
9.300000 0.200000 0
9.400000 0.200000 0
9.500000 0.200000 0
9.600000 0.200000 0
9.700000 0.200000 0
9.800000 0.200000 0
0.000000 0.300000 0
0.100000 0.300000 0
0.200000 0.300000 0
0.300000 0.300000 0
0.400000 0.300000 0
0.500000 0.300000 0
0.600000 0.300000 0
0.700000 0.300000 0
0.800000 0.300000 0
0.900000 0.300000 0
1.000000 0.300000 0
1.100000 0.300000 0
1.200000 0.300000 0
1.300000 0.300000 0
1.400000 0.300000 0
1.500000 0.300000 0
1.600000 0.300000 0
1.700000 0.300000 0
1.800000 0.300000 0
1.900000 0.300000 0
2.000000 0.300000 0
2.100000 0.300000 0
2.200000 0.300000 0
2.300000 0.300000 0
2.400000 0.300000 0
2.500000 0.300000 0
2.600000 0.300000 0
2.700000 0.300000 0
2.800000 0.300000 0
2.900000 0.300000 0
3.000000 0.300000 0
3.100000 0.300000 0
3.200000 0.300000 0
3.300000 0.300000 0
3.400000 0.300000 0
3.500000 0.300000 0
3.600000 0.300000 0
3.700000 0.300000 0
3.800000 0.300000 0
3.900000 0.300000 0
4.000000 0.300000 0
4.100000 0.300000 0
4.200000 0.300000 0
4.300000 0.300000 0
4.400000 0.300000 0
4.500000 0.300000 0
4.600000 0.300000 0
4.700000 0.300000 0
4.800000 0.300000 0
4.900000 0.300000 0
5.000000 0.300000 0
5.100000 0.300000 0
5.200000 0.300000 0
5.300000 0.300000 0
5.400000 0.300000 0
5.500000 0.300000 0
5.600000 0.300000 0
5.700000 0.300000 0
5.800000 0.300000 0
5.900000 0.300000 0
6.000000 0.300000 0
6.100000 0.300000 0
6.200000 0.300000 0
6.300000 0.300000 0
6.400000 0.300000 0
6.500000 0.300000 0
6.600000 0.300000 0
6.700000 0.300000 0
6.800000 0.300000 0
6.900000 0.300000 0
7.000000 0.300000 0
7.100000 0.300000 0
7.200000 0.300000 0
7.300000 0.300000 0
7.400000 0.300000 0
7.500000 0.300000 0
7.600000 0.300000 0
7.700000 0.300000 0
7.800000 0.300000 0
7.900000 0.300000 0
8.000000 0.300000 0
8.100000 0.300000 0
8.200000 0.300000 0
8.300000 0.300000 0
8.400000 0.300000 0
8.500000 0.300000 0
8.600000 0.300000 0
8.700000 0.300000 0
8.800000 0.300000 0
8.900000 0.300000 0
9.000000 0.300000 0
9.100000 0.300000 0
9.200000 0.300000 0
9.300000 0.300000 0
9.400000 0.300000 0
9.500000 0.300000 0
9.600000 0.300000 0
9.700000 0.300000 0
9.800000 0.300000 0
0.000000 0.400000 0
0.100000 0.400000 0
0.200000 0.400000 0
0.300000 0.400000 0
0.400000 0.400000 0
0.500000 0.400000 0
0.600000 0.400000 0
0.700000 0.400000 0
0.800000 0.400000 0
0.900000 0.400000 0
1.000000 0.400000 0
1.100000 0.400000 0
1.200000 0.400000 0
1.300000 0.400000 0
1.400000 0.400000 0
1.500000 0.400000 0
1.600000 0.400000 0
1.700000 0.400000 0
1.800000 0.400000 0
1.900000 0.400000 0
2.000000 0.400000 0
2.100000 0.400000 0
2.200000 0.400000 0
2.300000 0.400000 0
2.400000 0.400000 0
2.500000 0.400000 0
2.600000 0.400000 0
2.700000 0.400000 0
2.800000 0.400000 0
2.900000 0.400000 0
3.000000 0.400000 0
3.100000 0.400000 0
3.200000 0.400000 0
3.300000 0.400000 0
3.400000 0.400000 0
3.500000 0.400000 0
3.600000 0.400000 0
3.700000 0.400000 0
3.800000 0.400000 0
3.900000 0.400000 0
4.000000 0.400000 0
4.100000 0.400000 0
4.200000 0.400000 0
4.300000 0.400000 0
4.400000 0.400000 0
4.500000 0.400000 0
4.600000 0.400000 0
4.700000 0.400000 0
4.800000 0.400000 0
4.900000 0.400000 0
5.000000 0.400000 0
5.100000 0.400000 0
5.200000 0.400000 0
5.300000 0.400000 0
5.400000 0.400000 0
5.500000 0.400000 0
5.600000 0.400000 0
5.700000 0.400000 0
5.800000 0.400000 0
5.900000 0.400000 0
6.000000 0.400000 0
6.100000 0.400000 0
6.200000 0.400000 0
6.300000 0.400000 0
6.400000 0.400000 0
6.500000 0.400000 0
6.600000 0.400000 0
6.700000 0.400000 0
6.800000 0.400000 0
6.900000 0.400000 0
7.000000 0.400000 0
7.100000 0.400000 0
7.200000 0.400000 0
7.300000 0.400000 0
7.400000 0.400000 0
7.500000 0.400000 0
7.600000 0.400000 0
7.700000 0.400000 0
7.800000 0.400000 0
7.900000 0.400000 0
8.000000 0.400000 0
8.100000 0.400000 0
8.200000 0.400000 0
8.300000 0.400000 0
8.400000 0.400000 0
8.500000 0.400000 0
8.600000 0.400000 0
8.700000 0.400000 0
8.800000 0.400000 0
8.900000 0.400000 0
9.000000 0.400000 0
9.100000 0.400000 0
9.200000 0.400000 0
9.300000 0.400000 0
9.400000 0.400000 0
[...]
POINT_DATA 1881 

VECTORS velocity float
0.500000 0.000000 0
0.502109 0.000000 0
0.506847 0.000000 0
0.514640 0.000000 0
0.525919 0.000000 0
0.541018 0.000000 0
0.559963 0.000000 0
0.582171 0.000000 0
0.606237 0.000000 0
0.629809 0.000000 0
0.650871 0.000000 0
0.668326 0.000000 0
0.681806 0.000000 0
0.691293 0.000000 0
0.696863 0.000000 0
0.698573 0.000000 0
0.696577 0.000000 0
0.691118 0.000000 0
0.682612 0.000000 0
0.671658 0.000000 0
0.659015 0.000000 0
0.645550 0.000000 0
0.632185 0.000000 0
0.619836 0.000000 0
0.609356 0.000000 0
0.601499 0.000000 0
0.596917 0.000000 0
0.596158 0.000000 0
0.599452 0.000000 0
0.606419 0.000000 0
0.615923 0.000000 0
0.626150 0.000000 0
0.635004 0.000000 0
0.640711 0.000000 0
0.642302 0.000000 0
0.639564 0.000000 0
0.632741 0.000000 0
0.622402 0.000000 0
0.609276 0.000000 0
0.594154 0.000000 0
0.577815 0.000000 0
0.561020 0.000000 0
0.544503 0.000000 0
0.528993 0.000000 0
0.515232 0.000000 0
0.504003 0.000000 0
0.496153 0.000000 0
0.492558 0.000000 0
0.493848 0.000000 0
0.500103 0.000000 0
0.511036 0.000000 0
0.526019 0.000000 0
0.544078 0.000000 0
0.563874 0.000000 0
0.583677 0.000000 0
0.601430 0.000000 0
0.615016 0.000000 0
0.622795 0.000000 0
0.624170 0.000000 0
0.619413 0.000000 0
0.609152 0.000000 0
0.594316 0.000000 0
0.576070 0.000000 0
0.555728 0.000000 0
0.534665 0.000000 0
0.514247 0.000000 0
0.495773 0.000000 0
0.480419 0.000000 0
0.469160 0.000000 0
0.462651 0.000000 0
0.461049 0.000000 0
0.463776 0.000000 0
0.469934 0.000000 0
0.478750 0.000000 0
0.489657 0.000000 0
0.502254 0.000000 0
0.516210 0.000000 0
0.531138 0.000000 0
0.546444 0.000000 0
0.561217 0.000000 0
0.574228 0.000000 0
0.584079 0.000000 0
0.589555 0.000000 0
0.590009 0.000000 0
0.585364 0.000000 0
0.575819 0.000000 0
0.561903 0.000000 0
0.544531 0.000000 0
0.525038 0.000000 0
0.505144 0.000000 0
0.486791 0.000000 0
0.471832 0.000000 0
0.461641 0.000000 0
0.456824 0.000000 0
0.457060 0.000000 0
0.461204 0.000000 0
0.468212 0.000000 0
0.477540 0.000000 0
0.489643 0.000000 0
1.000000 -0.002127 0
1.004773 -0.006878 0
1.014872 -0.012557 0
1.031068 -0.019098 0
1.054304 -0.026403 0
1.085447 -0.034063 0
1.124835 -0.041165 0
1.171550 -0.046269 0
1.222847 -0.047617 0
1.272750 -0.044611 0
1.316661 -0.038500 0
1.352607 -0.030930 0
1.380283 -0.022972 0
1.399973 -0.015053 0
1.411894 -0.007273 0
1.416113 0.000285 0
1.412813 0.007455 0
1.402421 0.013960 0
1.385753 0.019451 0
1.364040 0.023585 0
1.338849 0.026094 0
1.311977 0.026812 0
1.285325 0.025695 0
1.260777 0.022809 0
1.240073 0.018317 0
1.224725 0.012420 0
1.215996 0.005323 0
1.214932 -0.002547 0
1.222126 -0.010262 0
1.237127 -0.016466 0
1.257865 -0.019718 0
1.280651 -0.019062 0
1.300968 -0.014540 0
1.314797 -0.007279 0
1.319780 0.001161 0
1.315457 0.009566 0
1.302525 0.017163 0
1.282318 0.023466 0
1.256444 0.028249 0
1.226568 0.031460 0
1.194299 0.033131 0
1.161167 0.033309 0
1.128642 0.032022 0
1.098167 0.029264 0
1.071169 0.024983 0
1.049053 0.019071 0
1.033129 0.011436 0
1.024510 0.002295 0
1.024021 -0.007555 0
1.032133 -0.017197 0
1.048807 -0.025925 0
1.073394 -0.033049 0
1.104610 -0.037857 0
1.140540 -0.039597 0
1.178534 -0.037552 0
1.215117 -0.031332 0
1.246198 -0.021356 0
1.267740 -0.009144 0
1.276839 0.003392 0
1.272923 0.015026 0
1.257298 0.025102 0
1.231936 0.033084 0
1.199263 0.038588 0
1.161959 0.041402 0
1.122788 0.041477 0
1.084439 0.038889 0
1.049380 0.033824 0
1.019691 0.026608 0
0.996852 0.017764 0
0.981570 0.008108 0
0.973755 -0.001129 0
0.972782 -0.008889 0
0.977702 -0.014978 0
0.987578 -0.019727 0
1.001714 -0.023507 0
1.019666 -0.026555 0
1.041138 -0.028887 0
1.065748 -0.030234 0
1.092718 -0.030077 0
1.120640 -0.027781 0
1.147420 -0.022859 0
1.170420 -0.015323 0
1.186820 -0.005926 0
1.194209 0.004194 0
1.191489 0.014192 0
1.179066 0.023462 0
1.158097 0.031288 0
1.130441 0.036865 0
1.098607 0.039387 0
1.065581 0.038246 0
1.034490 0.033312 0
1.008097 0.025150 0
0.988285 0.015007 0
0.975784 0.004581 0
0.970311 -0.004381 0
0.971047 -0.011153 0
0.976910 -0.016336 0
0.987109 -0.021431 0
1.001783 -0.024331 0
1.000000 -0.004802 0
1.004921 -0.014917 0
1.015004 -0.026327 0
1.031060 -0.039463 0
1.054353 -0.054404 0
1.086400 -0.070546 0
1.128543 -0.086104 0
1.180806 -0.097992 0
1.241441 -0.101171 0
1.298527 -0.093794 0
1.345798 -0.079849 0
1.382637 -0.063629 0
1.410385 -0.047370 0
1.430302 -0.031602 0
1.442816 -0.016134 0
1.447691 -0.000921 0
1.444772 0.013687 0
1.434259 0.027051 0
1.416937 0.038367 0
1.394129 0.046887 0
1.367544 0.052043 0
1.339135 0.053502 0
1.310957 0.051176 0
1.285028 0.045227 0
1.263169 0.036029 0
1.246858 0.024055 0
1.237274 0.009777 0
1.235539 -0.006134 0
1.242821 -0.022190 0
1.259411 -0.035724 0
1.283648 -0.043502 0
1.311693 -0.043078 0
1.338188 -0.034123 0
1.357672 -0.018795 0
1.366539 -0.000653 0
1.364355 0.017254 0
1.352506 0.033139 0
1.332867 0.046082 0
1.307409 0.055749 0
1.277962 0.062144 0
1.246169 0.065398 0
1.213500 0.065650 0
1.181319 0.062992 0
1.150914 0.057464 0
1.123503 0.049104 0
1.100159 0.038029 0
1.081694 0.024532 0
1.068565 0.009096 0
1.061086 -0.007635 0
1.059789 -0.024797 0
1.065162 -0.041269 0
1.077449 -0.055807 0
1.096683 -0.067147 0
1.122669 -0.073920 0
1.154553 -0.074568 0
1.190314 -0.067653 0
1.226545 -0.052610 0
1.258621 -0.030629 0
1.281431 -0.005174 0
1.291286 0.019547 0
1.288283 0.040989 0
1.274340 0.058034 0
1.251831 0.069974 0
1.223346 0.076471 0
1.191503 0.077516 0
1.158767 0.073402 0
1.127283 0.064743 0
1.098698 0.052524 0
1.074018 0.038116 0
1.053592 0.023093 0
1.037296 0.008784 0
1.025013 -0.003951 0
1.016626 -0.014801 0
1.012016 -0.024017 0
1.011344 -0.032091 0
1.015059 -0.039426 0
1.023773 -0.046083 0
1.037927 -0.051578 0
1.057374 -0.054888 0
1.081178 -0.054697 0
1.107649 -0.049775 0
1.134486 -0.039396 0
1.158882 -0.023785 0
1.177738 -0.004666 0
1.188429 0.015145 0
1.190234 0.033393 0
1.183976 0.048623 0
1.171114 0.059488 0
1.153519 0.064859 0
1.133186 0.064117 0
1.111949 0.057484 0
1.091258 0.046204 0
1.072093 0.032313 0
1.055041 0.017974 0
1.040551 0.004736 0
1.029180 -0.006600 0
1.021126 -0.016062 0
1.016218 -0.024872 0
1.014006 -0.029965 0
1.000000 -0.007069 0
1.003935 -0.021910 0
1.012289 -0.038706 0
1.026104 -0.058451 0
1.047175 -0.081741 0
1.078134 -0.108244 0
1.122338 -0.135547 0
1.182240 -0.159145 0
1.261752 -0.165332 0
1.328659 -0.148978 0
1.376381 -0.122633 0
1.409737 -0.095528 0
1.433742 -0.070627 0
1.451410 -0.047480 0
1.463444 -0.024667 0
1.468551 -0.001673 0
1.465388 0.020879 0
1.453639 0.041787 0
1.434046 0.059573 0
1.408133 0.072968 0
1.377855 0.081077 0
1.345411 0.083390 0
1.313124 0.079792 0
1.283284 0.070590 0
1.257892 0.056482 0
1.238359 0.038313 0
1.225472 0.016650 0
1.219902 -0.008080 0
1.223318 -0.034118 0
1.237270 -0.057275 0
1.261232 -0.071986 0
1.292419 -0.073594 0
1.325888 -0.060518 0
1.354784 -0.035637 0
1.372232 -0.005536 0
1.375226 0.023593 0
1.366029 0.048652 0
1.347625 0.068562 0
1.322713 0.083151 0
1.293496 0.092697 0
1.261719 0.097590 0
1.228792 0.098155 0
1.195923 0.094603 0
1.164198 0.087075 0
1.134603 0.075733 0
1.107987 0.060875 0
1.084944 0.043025 0
1.065637 0.022899 0
1.049711 0.001217 0
1.036658 -0.021275 0
1.026921 -0.043583 0
1.022234 -0.064566 0
1.024817 -0.083071 0
1.036777 -0.097460 0
1.058875 -0.105189 0
1.089958 -0.103316 0
1.127141 -0.089658 0
1.166218 -0.064028 0
1.201999 -0.029274 0
1.228750 0.008169 0
1.242636 0.042042 0
1.244476 0.069532 0
1.236205 0.089578 0
1.220048 0.101728 0
1.198277 0.106054 0
1.173023 0.103106 0
1.146135 0.093892 0
1.119082 0.079872 0
1.092929 0.062869 0
1.068342 0.044829 0
1.045597 0.027448 0
1.024591 0.011780 0
1.005238 -0.001982 0
0.987882 -0.014447 0
0.973704 -0.026549 0
0.964744 -0.038982 0
0.962881 -0.051752 0
0.969045 -0.063832 0
0.982922 -0.073324 0
1.003215 -0.078053 0
1.028061 -0.076165 0
1.055367 -0.066554 0
1.082979 -0.049178 0
1.108667 -0.025354 0
1.129860 0.001695 0
1.144177 0.027913 0
1.151247 0.050407 0
1.151659 0.067322 0
1.146366 0.077316 0
1.136429 0.079816 0
1.122841 0.075239 0
1.106500 0.065006 0
1.088293 0.051223 0
1.069151 0.036122 0
1.049957 0.021481 0
1.031396 0.008272 0
1.014135 -0.003374 0
0.998657 -0.014311 0
0.985232 -0.021005 0
1.000000 -0.008758 0
1.002521 -0.027230 0
1.008084 -0.048501 0
1.017834 -0.074349 0
1.033982 -0.106428 0
1.060425 -0.145694 0
1.103623 -0.190191 0
1.171511 -0.237401 0
1.287508 -0.247600 0
1.358569 -0.208440 0
1.393559 -0.160940 0
1.412397 -0.120980 0
1.425028 -0.089032 0
1.436316 -0.061306 0
1.447396 -0.033278 0
1.455029 -0.002870 0
1.453908 0.028593 0
1.442566 0.058385 0
1.421811 0.083865 0
1.393459 0.103069 0
1.359697 0.114756 0
1.322946 0.118225 0
1.285842 0.113295 0
1.251113 0.100454 0
1.221145 0.080952 0
1.197211 0.056482 0
1.179009 0.028246 0
1.165279 -0.003967 0
1.155855 -0.039541 0
1.154836 -0.073624 0
1.165420 -0.098642 0
1.188963 -0.107732 0
1.223977 -0.096494 0
1.264588 -0.065153 0
1.300801 -0.021102 0
1.322023 0.023460 0
1.325914 0.060740 0
1.316978 0.089396 0
1.299013 0.109875 0
1.274842 0.123134 0
1.246547 0.130098 0
1.215716 0.131442 0
1.183632 0.127582 0
1.151393 0.118780 0
1.119953 0.105310 0
1.090046 0.087684 0
1.061905 0.066878 0
1.034866 0.044326 0
1.007415 0.021341 0
0.978462 -0.002006 0
0.949401 -0.026842 0
0.925278 -0.053698 0
0.912596 -0.081682 0
0.914589 -0.107970 0
0.930878 -0.127742 0
0.959066 -0.135913 0
0.995944 -0.128868 0
1.037932 -0.105488 0
1.081087 -0.067710 0
1.120772 -0.021096 0
1.151205 0.025258 0
1.169548 0.064463 0
1.176804 0.094400 0
1.174559 0.114396 0
1.164594 0.124539 0
1.148669 0.125544 0
1.128373 0.118683 0
1.105021 0.105728 0
1.079552 0.088855 0
1.052464 0.070423 0
1.023911 0.052532 0
0.994166 0.036406 0
0.964312 0.021907 0
0.936613 0.007517 0
0.914034 -0.008952 0
0.899331 -0.028601 0
0.894261 -0.050380 0
0.898791 -0.071615 0
0.911577 -0.089055 0
0.930766 -0.099834 0
0.954466 -0.101926 0
0.980923 -0.094312 0
1.008539 -0.077085 0
1.035825 -0.051548 0
1.061222 -0.020368 0
1.082519 0.012004 0
1.097909 0.041142 0
1.107126 0.064370 0
1.110317 0.080090 0
1.107827 0.087642 0
1.100079 0.087413 0
1.087580 0.080752 0
1.070963 0.069661 0
1.051021 0.056309 0
1.028740 0.042491 0
1.005339 0.029223 0
0.982327 0.016677 0
0.961387 0.004030 0
0.944324 -0.004445 0
1.000000 -0.009608 0
1.000594 -0.030013 0
1.002135 -0.054020 0
1.005473 -0.084346 0
1.012575 -0.124322 0
1.027765 -0.177870 0
1.060399 -0.246625 0
1.127816 -0.343034 0
1.299972 -0.352403 0
1.341725 -0.255041 0
1.332688 -0.176453 0
1.319312 -0.126983 0
1.309246 -0.094543 0
1.306484 -0.069851 0
1.313738 -0.043385 0
1.328334 -0.008192 0
1.337077 0.033334 0
1.333040 0.073876 0
1.317702 0.108672 0
1.293276 0.135074 0
1.261623 0.151581 0
1.224787 0.157239 0
1.185390 0.151620 0
1.146683 0.135283 0
1.111734 0.110388 0
1.081189 0.080459 0
1.051911 0.048593 0
1.020056 0.015088 0
0.985471 -0.023662 0
0.954734 -0.066831 0
0.941521 -0.106111 0
0.952588 -0.132155 0
0.986552 -0.136154 0
1.037441 -0.112471 0
1.095943 -0.062969 0
1.149306 -0.001519 0
1.184747 0.053693 0
1.201565 0.095460 0
1.204570 0.125282 0
1.197111 0.145159 0
1.181632 0.156713 0
1.160078 0.161066 0
1.134052 0.158921 0
1.104804 0.150749 0
1.072995 0.137077 0
1.038281 0.118919 0
0.999246 0.098202 0
0.954671 0.077387 0
0.906016 0.057621 0
0.858716 0.036742 0
0.820019 0.009606 0
0.795548 -0.027755 0
0.787576 -0.072375 0
0.794528 -0.115735 0
0.813410 -0.149661 0
0.841578 -0.168379 0
0.876925 -0.168524 0
0.917426 -0.149174 0
0.960782 -0.112119 0
1.004231 -0.061953 0
1.043935 -0.006736 0
1.074505 0.043930 0
1.094522 0.084566 0
1.104571 0.113937 0
1.105676 0.131943 0
1.098993 0.139325 0
1.085595 0.137539 0
1.066287 0.128692 0
1.041506 0.115423 0
1.011488 0.100468 0
0.976889 0.085744 0
0.939650 0.071378 0
0.903375 0.055571 0
0.872588 0.035832 0
0.850999 0.010735 0
0.840024 -0.019206 0
0.839023 -0.051208 0
0.846200 -0.081144 0
0.859615 -0.105296 0
0.877676 -0.120940 0
0.899145 -0.126321 0
0.922977 -0.120627 0
0.948181 -0.104082 0
0.973762 -0.078039 0
0.998688 -0.045000 0
1.021709 -0.008773 0
1.040725 0.025801 0
1.054524 0.054915 0
1.062624 0.076615 0
1.064799 0.090053 0
1.060992 0.095485 0
1.051309 0.094123 0
1.036089 0.087782 0
1.016037 0.078345 0
0.992386 0.067164 0
0.967007 0.054686 0
0.942322 0.040578 0
0.920942 0.023691 0
0.905612 0.011347 0
1.000000 -0.009367 0
0.998301 -0.029380 0
0.994856 -0.053377 0
0.989633 -0.084782 0
0.983073 -0.128707 0
0.977267 -0.193505 0
0.979503 -0.290239 0
1.011635 -0.476980 0
1.201756 -0.461519 0
1.147191 -0.241154 0
1.053850 -0.138514 0
1.001220 -0.097534 0
0.964006 -0.076208 0
0.941553 -0.065803 0
0.940818 -0.055136 0
0.965771 -0.026217 0
1.003648 0.023878 0
1.027766 0.077752 0
1.037345 0.123621 0
1.035005 0.159141 0
1.020329 0.183238 0
0.993249 0.194453 0
0.954110 0.191397 0
0.903332 0.174112 0
0.842068 0.146454 0
0.774416 0.116315 0
0.708813 0.089391 0
0.655607 0.062485 0
0.622840 0.025790 0
0.612396 -0.029669 0
0.622583 -0.096498 0
0.651392 -0.152772 0
0.696561 -0.181358 0
0.755674 -0.174544 0
0.825479 -0.132965 0
0.900318 -0.065347 0
0.968416 0.008479 0
1.017755 0.069570 0
1.048714 0.114325 0
1.064797 0.146067 0
1.068326 0.167126 0
1.061188 0.179018 0
1.044828 0.182852 0
1.019977 0.179833 0
0.986326 0.171829 0
0.942804 0.161429 0
0.889268 0.150485 0
0.829294 0.137556 0
0.771452 0.117298 0
0.726387 0.083996 0
0.701261 0.036332 0
0.695923 -0.021249 0
0.703996 -0.080654 0
0.719614 -0.133799 0
0.739994 -0.174788 0
0.764631 -0.199427 0
0.793899 -0.204718 0
0.827891 -0.189349 0
0.865798 -0.154519 0
0.905899 -0.104252 0
0.945799 -0.045019 0
0.981522 0.013874 0
1.008899 0.064332 0
1.027169 0.103241 0
1.036360 0.130116 0
1.036796 0.145623 0
1.028803 0.151387 0
1.012567 0.149816 0
0.988308 0.143653 0
0.956876 0.135038 0
0.920578 0.124369 0
0.883489 0.109919 0
0.850593 0.088970 0
0.826061 0.059894 0
0.811862 0.023614 0
0.807555 -0.016621 0
0.810869 -0.056552 0
0.819432 -0.092204 0
0.831616 -0.120529 0
0.846528 -0.139363 0
0.863734 -0.147227 0
0.882938 -0.143348 0
0.903742 -0.127871 0
0.925539 -0.102057 0
0.947538 -0.068314 0
0.968798 -0.030031 0
0.987912 0.008328 0
1.003052 0.042471 0
1.013238 0.069814 0
1.017812 0.089274 0
1.016362 0.100904 0
1.008748 0.105655 0
0.995244 0.104933 0
0.976727 0.100012 0
0.954814 0.091521 0
0.931771 0.079287 0
0.910152 0.062742 0
0.892294 0.040740 0
0.880345 0.024122 0
1.000000 -0.007920 0
0.996058 -0.024878 0
0.987593 -0.045347 0
0.973272 -0.072554 0
0.950782 -0.111942 0
0.916410 -0.174290 0
0.864489 -0.280992 0
0.791133 -0.565291 0
0.552370 -0.390812 0
0.490961 0.000000 0
0.418346 -0.020502 0
0.351941 -0.037145 0
0.339960 -0.034882 0
0.358002 -0.046671 0
0.382262 -0.067611 0
0.425181 -0.071029 0
0.492982 -0.028669 0
0.565073 0.040171 0
0.616263 0.101427 0
0.648569 0.152084 0
0.658879 0.193333 0
0.645650 0.223455 0
0.608509 0.241537 0
0.549191 0.247332 0
0.474218 0.239314 0
0.397549 0.213725 0
0.338348 0.167415 0
0.312039 0.101071 0
0.322455 0.019556 0
0.358886 -0.066574 0
0.403475 -0.145113 0
0.448616 -0.206142 0
0.495618 -0.240441 0
0.548643 -0.241387 0
0.610703 -0.207613 0
0.681702 -0.144458 0
0.757651 -0.063747 0
0.826548 0.015157 0
0.878100 0.078236 0
0.912745 0.125542 0
0.931981 0.160318 0
0.936827 0.184560 0
0.927842 0.200128 0
0.905078 0.209248 0
0.868636 0.214246 0
0.820343 0.215975 0
0.765886 0.211710 0
0.714943 0.195204 0
0.677543 0.160531 0
0.659022 0.106938 0
0.658161 0.040077 0
0.669283 -0.030483 0
0.685059 -0.096059 0
0.701171 -0.151728 0
0.716527 -0.194676 0
0.732187 -0.222286 0
0.750295 -0.231788 0
0.772874 -0.221079 0
0.800739 -0.190129 0
0.833061 -0.141956 0
0.867774 -0.082362 0
0.902121 -0.019171 0
0.931639 0.038917 0
0.953692 0.086474 0
0.967329 0.122314 0
0.972073 0.146881 0
0.967651 0.161766 0
0.954072 0.169184 0
0.932076 0.171112 0
0.903780 0.168196 0
0.872946 0.159131 0
0.844273 0.141362 0
0.821861 0.113000 0
0.807834 0.074566 0
0.802086 0.029244 0
0.803060 -0.018210 0
0.808533 -0.063082 0
0.816548 -0.101888 0
0.825932 -0.132390 0
0.836269 -0.153057 0
0.847702 -0.162731 0
0.860612 -0.160637 0
0.875265 -0.146684 0
0.891549 -0.121834 0
0.908929 -0.088257 0
0.926547 -0.049146 0
0.943317 -0.008453 0
0.957530 0.029588 0
0.967803 0.061855 0
0.973215 0.086929 0
0.973176 0.104549 0
0.967499 0.115241 0
0.956564 0.119803 0
0.941453 0.118774 0
0.923920 0.112121 0
0.906107 0.099348 0
0.890078 0.080055 0
0.877383 0.053498 0
0.869125 0.033397 0
1.000000 -0.005431 0
0.994445 -0.016977 0
0.982338 -0.030583 0
0.961304 -0.047958 0
0.926706 -0.071832 0
0.869456 -0.107206 0
0.770133 -0.164962 0
0.586591 -0.262014 0
0.000000 -0.161347 0
0.000000 0.000000 0
0.000000 0.000000 0
-0.030982 -0.029633 0
-0.049350 -0.082272 0
-0.031174 -0.108112 0
-0.025978 -0.122323 0
-0.009244 -0.136943 0
0.037681 -0.116020 0
0.120670 -0.045534 0
0.208966 0.040120 0
0.269531 0.116520 0
0.299129 0.186154 0
0.302774 0.244822 0
0.283660 0.287860 0
0.250120 0.308411 0
0.216880 0.298106 0
0.199759 0.252196 0
0.208003 0.174913 0
0.240913 0.078386 0
0.287405 -0.021055 0
0.332184 -0.110692 0
0.369179 -0.186236 0
0.397989 -0.244923 0
0.422726 -0.281385 0
0.450278 -0.289630 0
0.487262 -0.266028 0
0.536955 -0.212297 0
0.597919 -0.136371 0
0.664226 -0.050884 0
0.723215 0.028123 0
0.766738 0.092181 0
0.794280 0.143040 0
0.805794 0.183153 0
0.801377 0.214597 0
0.781855 0.239036 0
0.750028 0.256560 0
0.711983 0.264177 0
0.676803 0.255886 0
0.653491 0.225901 0
0.646753 0.173223 0
0.655315 0.103383 0
0.673904 0.026077 0
0.695383 -0.048140 0
0.714331 -0.112538 0
0.728339 -0.165264 0
0.737056 -0.205804 0
0.741977 -0.233198 0
0.746165 -0.245410 0
0.753366 -0.239797 0
0.766545 -0.214708 0
0.786591 -0.171290 0
0.812132 -0.114081 0
0.840363 -0.049993 0
0.867571 0.012760 0
0.889637 0.067550 0
0.904638 0.111734 0
0.911517 0.145299 0
0.909794 0.169386 0
0.899776 0.185389 0
0.882989 0.193942 0
0.862415 0.194167 0
0.842034 0.183876 0
0.825621 0.161005 0
0.815454 0.125411 0
0.811849 0.079672 0
0.813666 0.028391 0
0.819141 -0.023065 0
0.826299 -0.070037 0
0.833607 -0.109601 0
0.840145 -0.140249 0
0.845698 -0.161132 0
0.850737 -0.171570 0
0.856215 -0.170912 0
0.863153 -0.158808 0
0.872179 -0.135719 0
0.883262 -0.103310 0
0.895747 -0.064420 0
0.908578 -0.022655 0
0.920334 0.017985 0
0.929461 0.054128 0
0.934902 0.083902 0
0.936024 0.106620 0
0.932695 0.122266 0
0.925392 0.130978 0
0.915218 0.132656 0
0.903722 0.126867 0
0.892535 0.113130 0
0.882964 0.091467 0
0.875733 0.061693 0
0.871058 0.039299 0
1.000000 -0.002368 0
0.993910 -0.007215 0
0.980665 -0.012196 0
0.957792 -0.016909 0
0.920582 -0.020085 0
0.860285 -0.017712 0
0.760307 0.001874 0
0.587314 0.102087 0
0.273621 0.093026 0
0.000000 0.000000 0
0.000000 0.000000 0
0.000000 0.000000 0
-0.031357 -0.036418 0
-0.113505 -0.070050 0
-0.175436 -0.089547 0
-0.198354 -0.134693 0
-0.187306 -0.158589 0
-0.139693 -0.131120 0
-0.060634 -0.047438 0
0.014706 0.061918 0
0.065353 0.160087 0
0.097435 0.238925 0
0.116439 0.294198 0
0.132999 0.314120 0
0.159582 0.289684 0
0.204045 0.222614 0
0.265776 0.126271 0
0.334540 0.021676 0
0.392429 -0.071714 0
0.433856 -0.148353 0
0.458506 -0.210926 0
0.467472 -0.259692 0
0.464891 -0.292729 0
0.458528 -0.305926 0
0.458257 -0.294294 0
0.472353 -0.255119 0
0.503759 -0.191022 0
0.549021 -0.110144 0
0.599683 -0.024281 0
0.643098 0.054472 0
0.673427 0.121258 0
0.689413 0.177459 0
0.691389 0.224063 0
0.681736 0.260594 0
0.665551 0.284116 0
0.650319 0.289199 0
0.643716 0.270203 0
0.650323 0.225257 0
0.669829 0.158712 0
0.698119 0.079793 0
0.729468 0.000015 0
0.757025 -0.070904 0
0.777613 -0.129011 0
0.789794 -0.174452 0
0.793215 -0.208315 0
0.788895 -0.231398 0
0.779656 -0.243181 0
0.769997 -0.241460 0
0.764893 -0.223356 0
0.767840 -0.187546 0
0.779422 -0.136137 0
0.797468 -0.074612 0
0.818342 -0.010358 0
0.837528 0.049405 0
0.852001 0.100432 0
0.860230 0.141723 0
0.861741 0.173505 0
0.857205 0.195987 0
0.848566 0.208472 0
0.838777 0.209151 0
0.830953 0.195925 0
0.827292 0.167944 0
0.828455 0.126774 0
0.833775 0.076357 0
0.841907 0.021955 0
0.851224 -0.030840 0
0.860031 -0.077544 0
0.867052 -0.115732 0
0.871421 -0.144481 0
0.872852 -0.163649 0
0.871824 -0.173249 0
0.869584 -0.173054 0
0.867814 -0.162647 0
0.868049 -0.141940 0