# vtk DataFile Version 2.0
generated by CFD-lab course output (written by Tobias Neckel) 
ASCII

DATASET STRUCTURED_GRID
DIMENSIONS  99 19 1 
POINTS 1881 float

0.000000 0.000000 0
0.100000 0.000000 0
0.200000 0.000000 0
0.300000 0.000000 0
0.400000 0.000000 0
0.500000 0.000000 0
0.600000 0.000000 0
0.700000 0.000000 0
0.800000 0.000000 0
0.900000 0.000000 0
1.000000 0.000000 0
1.100000 0.000000 0
1.200000 0.000000 0
1.300000 0.000000 0
1.400000 0.000000 0
1.500000 0.000000 0
1.600000 0.000000 0
1.700000 0.000000 0
1.800000 0.000000 0
1.900000 0.000000 0
2.000000 0.000000 0
2.100000 0.000000 0
2.200000 0.000000 0
2.300000 0.000000 0
2.400000 0.000000 0
2.500000 0.000000 0
2.600000 0.000000 0
2.700000 0.000000 0
2.800000 0.000000 0
2.900000 0.000000 0
3.000000 0.000000 0
3.100000 0.000000 0
3.200000 0.000000 0
3.300000 0.000000 0
3.400000 0.000000 0
3.500000 0.000000 0
3.600000 0.000000 0
3.700000 0.000000 0
3.800000 0.000000 0
3.900000 0.000000 0
4.000000 0.000000 0
4.100000 0.000000 0
4.200000 0.000000 0
4.300000 0.000000 0
4.400000 0.000000 0
4.500000 0.000000 0
4.600000 0.000000 0
4.700000 0.000000 0
4.800000 0.000000 0
4.900000 0.000000 0
5.000000 0.000000 0
5.100000 0.000000 0
5.200000 0.000000 0
5.300000 0.000000 0
5.400000 0.000000 0
5.500000 0.000000 0
5.600000 0.000000 0
5.700000 0.000000 0
5.800000 0.000000 0
5.900000 0.000000 0
6.000000 0.000000 0
6.100000 0.000000 0
6.200000 0.000000 0
6.300000 0.000000 0
6.400000 0.000000 0
6.500000 0.000000 0
6.600000 0.000000 0
6.700000 0.000000 0
6.800000 0.000000 0
6.900000 0.000000 0
7.000000 0.000000 0
7.100000 0.000000 0
7.200000 0.000000 0
7.300000 0.000000 0
7.400000 0.000000 0
7.500000 0.000000 0
7.600000 0.000000 0
7.700000 0.000000 0
7.800000 0.000000 0
7.900000 0.000000 0
8.000000 0.000000 0
8.100000 0.000000 0
8.200000 0.000000 0
8.300000 0.000000 0
8.400000 0.000000 0
8.500000 0.000000 0
8.600000 0.000000 0
8.700000 0.000000 0
8.800000 0.000000 0
8.900000 0.000000 0
9.000000 0.000000 0
9.100000 0.000000 0
9.200000 0.000000 0
9.300000 0.000000 0
9.400000 0.000000 0
9.500000 0.000000 0
9.600000 0.000000 0
9.700000 0.000000 0
9.800000 0.000000 0
0.000000 0.100000 0
0.100000 0.100000 0
0.200000 0.100000 0
0.300000 0.100000 0
0.400000 0.100000 0
0.500000 0.100000 0
0.600000 0.100000 0
0.700000 0.100000 0
0.800000 0.100000 0
0.900000 0.100000 0
1.000000 0.100000 0
1.100000 0.100000 0
1.200000 0.100000 0
1.300000 0.100000 0
1.400000 0.100000 0
1.500000 0.100000 0
1.600000 0.100000 0
1.700000 0.100000 0
1.800000 0.100000 0
1.900000 0.100000 0
2.000000 0.100000 0
2.100000 0.100000 0
2.200000 0.100000 0
2.300000 0.100000 0
2.400000 0.100000 0
2.500000 0.100000 0
2.600000 0.100000 0
2.700000 0.100000 0
2.800000 0.100000 0
2.900000 0.100000 0
3.000000 0.100000 0
3.100000 0.100000 0
3.200000 0.100000 0
3.300000 0.100000 0
3.400000 0.100000 0
3.500000 0.100000 0
3.600000 0.100000 0
3.700000 0.100000 0
3.800000 0.100000 0
3.900000 0.100000 0
4.000000 0.100000 0
4.100000 0.100000 0
4.200000 0.100000 0
4.300000 0.100000 0
4.400000 0.100000 0
4.500000 0.100000 0
4.600000 0.100000 0
4.700000 0.100000 0
4.800000 0.100000 0
4.900000 0.100000 0
5.000000 0.100000 0
5.100000 0.100000 0
5.200000 0.100000 0
5.300000 0.100000 0
5.400000 0.100000 0
5.500000 0.100000 0
5.600000 0.100000 0
5.700000 0.100000 0
5.800000 0.100000 0
5.900000 0.100000 0
6.000000 0.100000 0
6.100000 0.100000 0
6.200000 0.100000 0
6.300000 0.100000 0
6.400000 0.100000 0
6.500000 0.100000 0
6.600000 0.100000 0
6.700000 0.100000 0
6.800000 0.100000 0
6.900000 0.100000 0
7.000000 0.100000 0
7.100000 0.100000 0
7.200000 0.100000 0
7.300000 0.100000 0
7.400000 0.100000 0
7.500000 0.100000 0
7.600000 0.100000 0
7.700000 0.100000 0
7.800000 0.100000 0
7.900000 0.100000 0
8.000000 0.100000 0
8.100000 0.100000 0
8.200000 0.100000 0
8.300000 0.100000 0
8.400000 0.100000 0
8.500000 0.100000 0
8.600000 0.100000 0
8.700000 0.100000 0
8.800000 0.100000 0
8.900000 0.100000 0
9.000000 0.100000 0
9.100000 0.100000 0
9.200000 0.100000 0
9.300000 0.100000 0
9.400000 0.100000 0
9.500000 0.100000 0
9.600000 0.100000 0
9.700000 0.100000 0
9.800000 0.100000 0
0.000000 0.200000 0
0.100000 0.200000 0
0.200000 0.200000 0
0.300000 0.200000 0
0.400000 0.200000 0
0.500000 0.200000 0
0.600000 0.200000 0
0.700000 0.200000 0
0.800000 0.200000 0
0.900000 0.200000 0
1.000000 0.200000 0
1.100000 0.200000 0
1.200000 0.200000 0
1.300000 0.200000 0
1.400000 0.200000 0
1.500000 0.200000 0
1.600000 0.200000 0
1.700000 0.200000 0
1.800000 0.200000 0
1.900000 0.200000 0
2.000000 0.200000 0
2.100000 0.200000 0
2.200000 0.200000 0
2.300000 0.200000 0
2.400000 0.200000 0
2.500000 0.200000 0
2.600000 0.200000 0
2.700000 0.200000 0
2.800000 0.200000 0
2.900000 0.200000 0
3.000000 0.200000 0
3.100000 0.200000 0
3.200000 0.200000 0
3.300000 0.200000 0
3.400000 0.200000 0
3.500000 0.200000 0
3.600000 0.200000 0
3.700000 0.200000 0
3.800000 0.200000 0
3.900000 0.200000 0
4.000000 0.200000 0
4.100000 0.200000 0
4.200000 0.200000 0
4.300000 0.200000 0
4.400000 0.200000 0
4.500000 0.200000 0
4.600000 0.200000 0
4.700000 0.200000 0
4.800000 0.200000 0
4.900000 0.200000 0
5.000000 0.200000 0
5.100000 0.200000 0
5.200000 0.200000 0
5.300000 0.200000 0
5.400000 0.200000 0
5.500000 0.200000 0
5.600000 0.200000 0
5.700000 0.200000 0
5.800000 0.200000 0
5.900000 0.200000 0
6.000000 0.200000 0
6.100000 0.200000 0
6.200000 0.200000 0
6.300000 0.200000 0
6.400000 0.200000 0
6.500000 0.200000 0
6.600000 0.200000 0
6.700000 0.200000 0
6.800000 0.200000 0
6.900000 0.200000 0
7.000000 0.200000 0
7.100000 0.200000 0
7.200000 0.200000 0
7.300000 0.200000 0
7.400000 0.200000 0
7.500000 0.200000 0
7.600000 0.200000 0
7.700000 0.200000 0
7.800000 0.200000 0
7.900000 0.200000 0
8.000000 0.200000 0
8.100000 0.200000 0
8.200000 0.200000 0
8.300000 0.200000 0
8.400000 0.200000 0
8.500000 0.200000 0
8.600000 0.200000 0
8.700000 0.200000 0
8.800000 0.200000 0
8.900000 0.200000 0
9.000000 0.200000 0
9.100000 0.200000 0
9.200000 0.200000 0
9.300000 0.200000 0
9.400000 0.200000 0
9.500000 0.200000 0
9.600000 0.200000 0
9.700000 0.200000 0
9.800000 0.200000 0
0.000000 0.300000 0
0.100000 0.300000 0
0.200000 0.300000 0
0.300000 0.300000 0
0.400000 0.300000 0
0.500000 0.300000 0
0.600000 0.300000 0
0.700000 0.300000 0
0.800000 0.300000 0
0.900000 0.300000 0
1.000000 0.300000 0
1.100000 0.300000 0
1.200000 0.300000 0
1.300000 0.300000 0
1.400000 0.300000 0
1.500000 0.300000 0
1.600000 0.300000 0
1.700000 0.300000 0
1.800000 0.300000 0
1.900000 0.300000 0
2.000000 0.300000 0
2.100000 0.300000 0
2.200000 0.300000 0
2.300000 0.300000 0
2.400000 0.300000 0
2.500000 0.300000 0
2.600000 0.300000 0
2.700000 0.300000 0
2.800000 0.300000 0
2.900000 0.300000 0
3.000000 0.300000 0
3.100000 0.300000 0
3.200000 0.300000 0
3.300000 0.300000 0
3.400000 0.300000 0
3.500000 0.300000 0
3.600000 0.300000 0
3.700000 0.300000 0
3.800000 0.300000 0
3.900000 0.300000 0
4.000000 0.300000 0
4.100000 0.300000 0
4.200000 0.300000 0
4.300000 0.300000 0
4.400000 0.300000 0
4.500000 0.300000 0
4.600000 0.300000 0
4.700000 0.300000 0
4.800000 0.300000 0
4.900000 0.300000 0
5.000000 0.300000 0
5.100000 0.300000 0
5.200000 0.300000 0
5.300000 0.300000 0
5.400000 0.300000 0
5.500000 0.300000 0
5.600000 0.300000 0
5.700000 0.300000 0
5.800000 0.300000 0
5.900000 0.300000 0
6.000000 0.300000 0
6.100000 0.300000 0
6.200000 0.300000 0
6.300000 0.300000 0
6.400000 0.300000 0
6.500000 0.300000 0
6.600000 0.300000 0
6.700000 0.300000 0
6.800000 0.300000 0
6.900000 0.300000 0
7.000000 0.300000 0
7.100000 0.300000 0
7.200000 0.300000 0
7.300000 0.300000 0
7.400000 0.300000 0
7.500000 0.300000 0
7.600000 0.300000 0
7.700000 0.300000 0
7.800000 0.300000 0
7.900000 0.300000 0
8.000000 0.300000 0
8.100000 0.300000 0
8.200000 0.300000 0
8.300000 0.300000 0
8.400000 0.300000 0
8.500000 0.300000 0
8.600000 0.300000 0
8.700000 0.300000 0
8.800000 0.300000 0
8.900000 0.300000 0
9.000000 0.300000 0
9.100000 0.300000 0
9.200000 0.300000 0
9.300000 0.300000 0
9.400000 0.300000 0
9.500000 0.300000 0
9.600000 0.300000 0
9.700000 0.300000 0
9.800000 0.300000 0
0.000000 0.400000 0
0.100000 0.400000 0
0.200000 0.400000 0
0.300000 0.400000 0
0.400000 0.400000 0
0.500000 0.400000 0
0.600000 0.400000 0
0.700000 0.400000 0
0.800000 0.400000 0
0.900000 0.400000 0
1.000000 0.400000 0
1.100000 0.400000 0
1.200000 0.400000 0
1.300000 0.400000 0
1.400000 0.400000 0
1.500000 0.400000 0
1.600000 0.400000 0
1.700000 0.400000 0
1.800000 0.400000 0
1.900000 0.400000 0
2.000000 0.400000 0
2.100000 0.400000 0
2.200000 0.400000 0
2.300000 0.400000 0
2.400000 0.400000 0
2.500000 0.400000 0
2.600000 0.400000 0
2.700000 0.400000 0
2.800000 0.400000 0
2.900000 0.400000 0
3.000000 0.400000 0
3.100000 0.400000 0
3.200000 0.400000 0
3.300000 0.400000 0
3.400000 0.400000 0
3.500000 0.400000 0
3.600000 0.400000 0
3.700000 0.400000 0
3.800000 0.400000 0
3.900000 0.400000 0
4.000000 0.400000 0
4.100000 0.400000 0
4.200000 0.400000 0
4.300000 0.400000 0
4.400000 0.400000 0
4.500000 0.400000 0
4.600000 0.400000 0
4.700000 0.400000 0
4.800000 0.400000 0
4.900000 0.400000 0
5.000000 0.400000 0
5.100000 0.400000 0
5.200000 0.400000 0
5.300000 0.400000 0
5.400000 0.400000 0
5.500000 0.400000 0
5.600000 0.400000 0
5.700000 0.400000 0
5.800000 0.400000 0
5.900000 0.400000 0
6.000000 0.400000 0
6.100000 0.400000 0
6.200000 0.400000 0
6.300000 0.400000 0
6.400000 0.400000 0
6.500000 0.400000 0
6.600000 0.400000 0
6.700000 0.400000 0
6.800000 0.400000 0
6.900000 0.400000 0
7.000000 0.400000 0
7.100000 0.400000 0
7.200000 0.400000 0
7.300000 0.400000 0
7.400000 0.400000 0
7.500000 0.400000 0
7.600000 0.400000 0
7.700000 0.400000 0
7.800000 0.400000 0
7.900000 0.400000 0
8.000000 0.400000 0
8.100000 0.400000 0
8.200000 0.400000 0
8.300000 0.400000 0
8.400000 0.400000 0
8.500000 0.400000 0
8.600000 0.400000 0
8.700000 0.400000 0
8.800000 0.400000 0
8.900000 0.400000 0
9.000000 0.400000 0
9.100000 0.400000 0
9.200000 0.400000 0
9.300000 0.400000 0
9.400000 0.400000 0
[...]
POINT_DATA 1881 

VECTORS velocity float
0.500000 0.000000 0
0.502119 0.000000 0
0.506788 0.000000 0
0.514412 0.000000 0
0.525384 0.000000 0
0.540001 0.000000 0
0.558255 0.000000 0
0.579540 0.000000 0
0.602424 0.000000 0
0.624598 0.000000 0
0.644133 0.000000 0
0.660088 0.000000 0
0.672381 0.000000 0
0.681440 0.000000 0
0.687918 0.000000 0
0.692456 0.000000 0
0.695510 0.000000 0
0.697205 0.000000 0
0.697336 0.000000 0
0.695489 0.000000 0
0.691245 0.000000 0
0.684362 0.000000 0
0.674850 0.000000 0
0.662972 0.000000 0
0.649187 0.000000 0
0.634099 0.000000 0
0.618404 0.000000 0
0.602845 0.000000 0
0.588181 0.000000 0
0.575152 0.000000 0
0.564469 0.000000 0
0.556841 0.000000 0
0.553025 0.000000 0
0.553769 0.000000 0
0.559427 0.000000 0
0.569747 0.000000 0
0.583680 0.000000 0
0.599366 0.000000 0
0.614406 0.000000 0
0.626400 0.000000 0
0.633594 0.000000 0
0.635325 0.000000 0
0.631773 0.000000 0
0.623519 0.000000 0
0.611407 0.000000 0
0.596410 0.000000 0
0.579514 0.000000 0
0.561659 0.000000 0
0.543715 0.000000 0
0.526494 0.000000 0
0.510777 0.000000 0
0.497349 0.000000 0
0.487024 0.000000 0
0.480616 0.000000 0
0.478792 0.000000 0
0.481696 0.000000 0
0.489014 0.000000 0
0.500253 0.000000 0
0.514798 0.000000 0
0.531908 0.000000 0
0.550646 0.000000 0
0.569780 0.000000 0
0.587707 0.000000 0
0.602550 0.000000 0
0.612517 0.000000 0
0.616476 0.000000 0
0.614277 0.000000 0
0.606286 0.000000 0
0.593175 0.000000 0
0.575939 0.000000 0
0.555843 0.000000 0
0.534357 0.000000 0
0.513075 0.000000 0
0.493602 0.000000 0
0.477408 0.000000 0
0.465648 0.000000 0
0.458977 0.000000 0
0.457392 0.000000 0
0.460071 0.000000 0
0.465921 0.000000 0
0.474070 0.000000 0
0.483923 0.000000 0
0.495114 0.000000 0
0.507398 0.000000 0
0.520525 0.000000 0
0.534096 0.000000 0
0.547458 0.000000 0
0.559659 0.000000 0
0.569529 0.000000 0
0.575909 0.000000 0
0.577993 0.000000 0
0.575498 0.000000 0
0.568447 0.000000 0
0.557134 0.000000 0
0.542223 0.000000 0
0.524810 0.000000 0
0.506454 0.000000 0
0.489088 0.000000 0
0.475445 0.000000 0
1.000000 -0.002096 0
1.004800 -0.006755 0
1.014775 -0.012275 0
1.030650 -0.018581 0
1.053289 -0.025576 0
1.083481 -0.032860 0
1.121496 -0.039528 0
1.166350 -0.044158 0
1.215230 -0.045046 0
1.262258 -0.041689 0
1.302992 -0.035463 0
1.335720 -0.028218 0
1.360636 -0.021321 0
1.378899 -0.015507 0
1.392034 -0.010991 0
1.401515 -0.007569 0
1.408390 -0.004724 0
1.412929 -0.001800 0
1.414561 0.001740 0
1.412229 0.006114 0
1.404930 0.011148 0
1.392101 0.016414 0
1.373777 0.021406 0
1.350534 0.025677 0
1.323351 0.028884 0
1.293486 0.030793 0
1.262372 0.031262 0
1.231535 0.030229 0
1.202518 0.027699 0
1.176811 0.023716 0
1.155816 0.018316 0
1.140862 0.011452 0
1.133258 0.003083 0
1.134285 -0.006388 0
1.144886 -0.015960 0
1.165003 -0.024232 0
1.192980 -0.029596 0
1.225446 -0.030702 0
1.257733 -0.027013 0
1.284781 -0.019169 0
1.302420 -0.008908 0
1.308548 0.001837 0
1.303350 0.011822 0
1.288188 0.020381 0
1.264955 0.027122 0
1.235749 0.031905 0
1.202647 0.034761 0
1.167594 0.035809 0
1.132369 0.035174 0
1.098606 0.032947 0
1.067836 0.029152 0
1.041496 0.023759 0
1.020879 0.016740 0
1.007010 0.008238 0
1.000529 -0.001075 0
1.001703 -0.010216 0
1.010436 -0.018550 0
1.026336 -0.025775 0
1.048754 -0.031645 0
1.076801 -0.035836 0
1.109278 -0.037859 0
1.144437 -0.037047 0
1.179746 -0.032757 0
1.211879 -0.024796 0
1.237074 -0.013914 0
1.251880 -0.001749 0
1.254276 0.010200 0
1.244565 0.021109 0
1.224176 0.030354 0
1.195169 0.037339 0
1.160085 0.041588 0
1.121796 0.042773 0
1.083311 0.040760 0
1.047538 0.035671 0
1.016980 0.027959 0
0.993399 0.018435 0
0.977564 0.008259 0
0.969272 -0.001091 0
0.967700 -0.008526 0
0.971680 -0.013995 0
0.980091 -0.017998 0
0.992134 -0.021041 0
1.007359 -0.023473 0
1.025549 -0.025408 0
1.046501 -0.026695 0
1.069740 -0.026930 0
1.094288 -0.025559 0
1.118560 -0.022068 0
1.140437 -0.016247 0
1.157491 -0.008461 0
1.167387 0.000414 0
1.168536 0.009549 0
1.160765 0.018366 0
1.144776 0.026226 0
1.121971 0.032325 0
1.094448 0.035770 0
1.064907 0.035723 0
1.036359 0.031009 0
1.012062 0.025646 0
1.000000 -0.004767 0
1.004953 -0.014732 0
1.014931 -0.025830 0
1.030692 -0.038496 0
1.053417 -0.052816 0
1.084550 -0.068194 0
1.125350 -0.082856 0
1.175761 -0.093719 0
1.233869 -0.095886 0
1.287938 -0.087730 0
1.331785 -0.073424 0
1.364830 -0.057606 0
1.388626 -0.043143 0
1.405252 -0.031366 0
1.416865 -0.022590 0
1.425508 -0.016327 0
1.432701 -0.011381 0
1.438871 -0.006140 0
1.442980 0.000729 0
1.443171 0.009657 0
1.437874 0.020152 0
1.426304 0.031173 0
1.408554 0.041585 0
1.385370 0.050442 0
1.357898 0.057061 0
1.327516 0.060989 0
1.295747 0.061960 0
1.264184 0.059862 0
1.234413 0.054731 0
1.207915 0.046709 0
1.185984 0.035959 0
1.169726 0.022571 0
1.160176 0.006594 0
1.158543 -0.011606 0
1.166249 -0.030692 0
1.183924 -0.048065 0
1.210669 -0.060415 0
1.244020 -0.064726 0
1.280075 -0.059311 0
1.313673 -0.044666 0
1.339172 -0.023746 0
1.352208 -0.000909 0
1.351890 0.020378 0
1.340144 0.038411 0
1.319391 0.052455 0
1.292111 0.062323 0
1.260614 0.068168 0
1.226940 0.070290 0
1.192864 0.068999 0
1.159927 0.064542 0
1.129467 0.057119 0
1.102595 0.046965 0
1.080110 0.034493 0
1.062396 0.020357 0
1.049468 0.005315 0
1.041391 -0.009898 0
1.038413 -0.024622 0
1.040857 -0.038305 0
1.049053 -0.050450 0
1.063399 -0.060508 0
1.084197 -0.067618 0
1.111157 -0.070450 0
1.142951 -0.067426 0
1.177061 -0.057313 0
1.209874 -0.039987 0
1.236979 -0.017190 0
1.254060 0.007326 0
1.258956 0.030109 0
1.252624 0.049405 0
1.236881 0.064099 0
1.214006 0.073380 0
1.186501 0.076781 0
1.156867 0.074265 0
1.127371 0.066336 0
1.099816 0.054144 0
1.075381 0.039420 0
1.054594 0.024131 0
1.037529 0.009868 0
1.024240 -0.002404 0
1.014674 -0.012387 0
1.008645 -0.020450 0
1.006182 -0.027264 0
1.007622 -0.033411 0
1.013487 -0.039138 0
1.024221 -0.044187 0
1.039829 -0.047782 0
1.059668 -0.048816 0
1.082454 -0.046145 0
1.106368 -0.038927 0
1.129168 -0.026946 0
1.148285 -0.011042 0
1.161209 0.006625 0
1.166481 0.023763 0
1.164380 0.038797 0
1.155947 0.050329 0
1.142693 0.057065 0
1.126330 0.058090 0
1.108412 0.052845 0
1.089666 0.046567 0
1.000000 -0.007030 0
1.003967 -0.021665 0
1.012227 -0.038009 0
1.025773 -0.057063 0
1.046322 -0.079431 0
1.076434 -0.104788 0
1.119381 -0.130732 0
1.177560 -0.152665 0
1.254479 -0.157202 0
1.318518 -0.139583 0
1.362918 -0.112338 0
1.391985 -0.085045 0
1.410249 -0.061734 0
1.421035 -0.043742 0
1.427196 -0.031239 0
1.431587 -0.023391 0
1.436741 -0.018075 0
1.443836 -0.012070 0
1.451215 -0.002551 0
1.454969 0.011226 0
1.452128 0.028021 0
1.441552 0.045739 0
1.423581 0.062343 0
1.399327 0.076336 0
1.370210 0.086741 0
1.337773 0.092947 0
1.303646 0.094597 0
1.269528 0.091566 0
1.237100 0.083971 0
1.207865 0.072152 0
1.182969 0.056514 0
1.163146 0.037271 0
1.148922 0.014280 0
1.140957 -0.012445 0
1.140646 -0.041327 0
1.149326 -0.068639 0
1.167312 -0.089680 0
1.194270 -0.100101 0
1.228793 -0.096661 0
1.267321 -0.078260 0
1.303717 -0.047435 0
1.330416 -0.010875 0
1.341796 0.023890 0
1.338682 0.052885 0
1.324313 0.075161 0
1.301775 0.090686 0
1.273770 0.099936 0
1.242554 0.103562 0
1.209967 0.102191 0
1.177500 0.096347 0
1.146347 0.086487 0
1.117433 0.073119 0
1.091386 0.056942 0
1.068469 0.038883 0
1.048508 0.019935 0
1.030947 0.000845 0
1.015355 -0.018009 0
1.002308 -0.036407 0
0.993887 -0.054178 0
0.992646 -0.070971 0
1.000653 -0.085610 0
1.018480 -0.095795 0
1.045011 -0.098654 0
1.077846 -0.091715 0
1.113772 -0.073829 0
1.149022 -0.045932 0
1.179302 -0.011775 0
1.200122 0.022548 0
1.209878 0.052431 0
1.209619 0.075959 0
1.200971 0.091971 0
1.185815 0.099915 0
1.166043 0.099892 0
1.143367 0.092724 0
1.119224 0.079950 0
1.094761 0.063658 0
1.070857 0.046112 0
1.048101 0.029265 0
1.026727 0.014331 0
1.006931 0.001602 0
0.989180 -0.009504 0
0.974470 -0.020017 0
0.964418 -0.030776 0
0.960641 -0.042004 0
0.964020 -0.053034 0
0.974412 -0.062375 0
0.990806 -0.068183 0
1.011667 -0.068766 0
1.035237 -0.062960 0
1.059722 -0.050377 0
1.083338 -0.031626 0
1.104159 -0.008645 0
1.119965 0.015197 0
1.129637 0.036761 0
1.133364 0.054013 0
1.131741 0.065386 0
1.125513 0.070004 0
1.115368 0.067673 0
1.101755 0.063137 0
1.000000 -0.008716 0
1.002556 -0.026940 0
1.008046 -0.047633 0
1.017570 -0.072587 0
1.033272 -0.103472 0
1.058987 -0.141247 0
1.101123 -0.183973 0
1.167600 -0.228801 0
1.281271 -0.236825 0
1.350699 -0.196153 0
1.383782 -0.146878 0
1.399200 -0.104928 0
1.405139 -0.072188 0
1.404851 -0.048307 0
1.400750 -0.033128 0
1.396082 -0.025859 0
1.394947 -0.023621 0
1.401036 -0.020605 0
1.413445 -0.010397 0
1.425015 0.008751 0
1.428055 0.033574 0
1.420947 0.059724 0
1.404785 0.083814 0
1.381318 0.103816 0
1.352228 0.118618 0
1.319080 0.127557 0
1.283509 0.130208 0
1.247310 0.126412 0
1.212352 0.116399 0
1.180285 0.100848 0
1.152057 0.080688 0
1.127650 0.056631 0
1.106367 0.028798 0
1.087235 -0.003315 0
1.069628 -0.039047 0
1.056453 -0.074720 0
1.052528 -0.105351 0
1.062124 -0.126201 0
1.087081 -0.132356 0
1.125518 -0.119582 0
1.171933 -0.086834 0
1.217739 -0.038982 0
1.252647 0.012117 0
1.270002 0.055898 0
1.272338 0.089367 0
1.263176 0.112870 0
1.245568 0.127392 0
1.222050 0.134096 0
1.194709 0.134056 0
1.165247 0.128165 0
1.135032 0.117189 0
1.105102 0.101930 0
1.076039 0.083461 0
1.047703 0.063239 0
1.019144 0.042842 0
0.989285 0.023262 0
0.958392 0.004025 0
0.929147 -0.016828 0
0.906320 -0.040780 0
0.894865 -0.067266 0
0.896760 -0.093445 0
0.911073 -0.114802 0
0.935461 -0.126787 0
0.967187 -0.126070 0
1.003483 -0.111160 0
1.041564 -0.082717 0
1.078459 -0.043772 0
1.110470 -0.000465 0
1.133460 0.039910 0
1.146719 0.073009 0
1.151005 0.097187 0
1.147483 0.111712 0
1.137447 0.116715 0
1.122155 0.113156 0
1.102724 0.102751 0
1.080079 0.087789 0
1.054915 0.070792 0
1.027777 0.054001 0
0.999352 0.038769 0
0.970922 0.025161 0
0.944591 0.012013 0
0.922897 -0.002499 0
0.908080 -0.019581 0
0.901600 -0.038738 0
0.903609 -0.057955 0
0.913123 -0.074566 0
0.928612 -0.086068 0
0.948438 -0.090574 0
0.971059 -0.086980 0
0.995080 -0.075045 0
1.019246 -0.055477 0
1.042355 -0.030001 0
1.062952 -0.001714 0
1.079110 0.025399 0
1.090070 0.048226 0
1.095689 0.064915 0
1.096030 0.074463 0
1.091298 0.076603 0
1.081763 0.074942 0
1.000000 -0.009570 0
1.000634 -0.029694 0
1.002131 -0.053020 0
1.005305 -0.082285 0
1.012070 -0.120843 0
1.026710 -0.172631 0
1.058573 -0.239332 0
1.125040 -0.332796 0
1.295983 -0.340287 0
1.339279 -0.242082 0
1.331881 -0.160828 0
1.319104 -0.106396 0
1.306015 -0.067380 0
1.291000 -0.039341 0
1.273100 -0.022455 0
1.253631 -0.017578 0
1.237535 -0.023020 0
1.233376 -0.030560 0
1.246767 -0.026524 0
1.272192 -0.003379 0
1.292449 0.032094 0
1.298177 0.069013 0
1.292851 0.101976 0
1.279175 0.128896 0
1.258627 0.148983 0
1.232198 0.161669 0
1.201137 0.166371 0
1.167217 0.162728 0
1.132663 0.151004 0
1.099489 0.132456 0
1.067911 0.109161 0
1.035077 0.082975 0
0.996905 0.054708 0
0.952588 0.024307 0
0.906564 -0.010533 0
0.867407 -0.051530 0
0.846162 -0.095346 0
0.847570 -0.134649 0
0.870118 -0.160047 0
0.909988 -0.163105 0
0.962462 -0.139650 0
1.021659 -0.091583 0
1.079526 -0.028367 0
1.125099 0.033199 0
1.152944 0.081990 0
1.165874 0.117460 0
1.166699 0.141066 0
1.157865 0.154425 0
1.141517 0.158997 0
1.119472 0.156028 0
1.093110 0.146635 0
1.063126 0.132115 0
1.029282 0.114345 0
0.990677 0.095784 0
0.947109 0.078360 0
0.900985 0.061604 0
0.857848 0.042137 0
0.824182 0.015674 0
0.804217 -0.019887 0
0.798813 -0.061404 0
0.805916 -0.101811 0
0.822658 -0.134491 0
0.846697 -0.154766 0
0.876314 -0.159734 0
0.910003 -0.148202 0
0.946155 -0.120906 0
0.982945 -0.080678 0
1.018201 -0.032450 0
1.048436 0.016185 0
1.070587 0.058417 0
1.084305 0.091210 0
1.089898 0.113475 0
1.087967 0.125222 0
1.079171 0.127449 0
1.064090 0.122028 0
1.043166 0.111469 0
1.016856 0.098417 0
0.986048 0.084831 0
0.952629 0.071188 0
0.919695 0.056366 0
0.891028 0.038523 0
0.869881 0.016496 0
0.857787 -0.009476 0
0.854520 -0.037530 0
0.858798 -0.064555 0
0.869019 -0.087376 0
0.883735 -0.103496 0
0.901760 -0.111211 0
0.922098 -0.109600 0
0.943853 -0.098562 0
0.966168 -0.078900 0
0.988195 -0.052349 0
1.009038 -0.021557 0
1.027279 0.009643 0
1.041364 0.037434 0
1.050582 0.059427 0
1.054503 0.074395 0
1.052930 0.081940 0
1.045716 0.083958 0
1.000000 -0.009337 0
0.998345 -0.029055 0
0.994891 -0.052299 0
0.989582 -0.082522 0
0.982825 -0.124871 0
0.976688 -0.187741 0
0.978474 -0.282290 0
1.010058 -0.466196 0
1.200655 -0.451051 0
1.152382 -0.232040 0
1.065148 -0.126696 0
1.018757 -0.079056 0
0.990638 -0.044074 0
0.962024 -0.015378 0
0.924393 0.004253 0
0.882833 0.009715 0
0.846619 -0.003359 0
0.826973 -0.029831 0
0.839673 -0.049207 0
0.886038 -0.036926 0
0.947403 0.007593 0
0.997989 0.059326 0
1.028452 0.102820 0
1.045371 0.138044 0
1.050621 0.165599 0
1.044379 0.185051 0
1.027197 0.195193 0
0.999935 0.194892 0
0.963131 0.184136 0
0.916559 0.165612 0
0.860055 0.145112 0
0.795856 0.127650 0
0.730213 0.111300 0
0.672679 0.087037 0
0.633273 0.046144 0
0.616608 -0.014311 0
0.620198 -0.085508 0
0.639358 -0.150150 0
0.670627 -0.194765 0
0.712452 -0.211920 0
0.763998 -0.198499 0
0.823642 -0.156041 0
0.888025 -0.091318 0
0.950567 -0.017515 0
1.000387 0.048596 0
1.034222 0.099119 0
1.053918 0.135405 0
1.061173 0.159282 0
1.057580 0.172452 0
1.044454 0.176575 0
1.022518 0.173538 0
0.991696 0.165762 0
0.951550 0.155916 0
0.902879 0.145419 0
0.849801 0.132540 0
0.800037 0.112531 0
0.761992 0.080837 0
0.740660 0.036811 0
0.735639 -0.015403 0
0.742037 -0.068958 0
0.755078 -0.117284 0
0.772205 -0.155579 0
0.792653 -0.180439 0
0.816507 -0.189372 0
0.843864 -0.180998 0
0.874284 -0.155656 0
0.906668 -0.115815 0
0.939435 -0.065953 0
0.970541 -0.012472 0
0.996459 0.037143 0
1.015355 0.077877 0
1.026673 0.108052 0
1.030255 0.127443 0
1.026093 0.137034 0
1.014231 0.138758 0
0.994889 0.135026 0
0.968882 0.127913 0
0.938146 0.118230 0
0.905931 0.105124 0
0.876236 0.086764 0
0.852635 0.061830 0
0.837205 0.030744 0
0.830236 -0.004217 0
0.830464 -0.039746 0
0.836068 -0.072452 0
0.845543 -0.099501 0
0.857887 -0.118806 0
0.872486 -0.128935 0
0.888926 -0.129072 0
0.906797 -0.119113 0
0.925592 -0.099817 0
0.944674 -0.072869 0
0.963297 -0.040798 0
0.980556 -0.006927 0
0.994885 0.024923 0
1.005101 0.051776 0
1.010428 0.072116 0
1.010369 0.085390 0
1.004508 0.091372 0
1.000000 -0.007903 0
0.996105 -0.024571 0
0.987666 -0.044253 0
0.973347 -0.070214 0
0.950822 -0.107942 0
0.916374 -0.168270 0
0.864316 -0.272688 0
0.790675 -0.554964 0
0.552526 -0.385232 0
0.495563 0.000000 0
0.427057 -0.017997 0
0.369268 -0.031877 0
0.359897 -0.010634 0
0.354995 0.026916 0
0.332275 0.056745 0
0.298641 0.060204 0
0.273834 0.032846 0
0.275946 -0.023608 0
0.312703 -0.085583 0
0.383624 -0.111104 0
0.478917 -0.079854 0
0.580708 -0.012031 0
0.666461 0.054598 0
0.726013 0.106731 0
0.764184 0.149979 0
0.782138 0.185097 0
0.780041 0.210821 0
0.757842 0.226802 0
0.715490 0.234390 0
0.654627 0.235544 0
0.581916 0.229877 0
0.510950 0.212831 0
0.458280 0.177899 0
0.435014 0.121259 0
0.441645 0.045546 0
0.468666 -0.038449 0
0.500951 -0.118089 0
0.531410 -0.185070 0
0.560746 -0.233134 0
0.592845 -0.256469 0
0.631775 -0.250834 0
0.679721 -0.215605 0
0.735947 -0.155287 0
0.796979 -0.079159 0
0.855488 -0.001660 0
0.901816 0.063933 0
0.934193 0.114118 0
0.953079 0.150766 0
0.959028 0.175720 0
0.952431 0.191094 0
0.933416 0.199397 0
0.902314 0.203088 0
0.861000 0.203167 0
0.814420 0.197540 0
0.770475 0.181210 0
0.737178 0.149421 0
0.718936 0.101522 0
0.715163 0.042035 0
0.721863 -0.021257 0
0.733718 -0.080837 0
0.746982 -0.131975 0
0.760155 -0.172062 0
0.773458 -0.199063 0
0.788158 -0.210941 0
0.805748 -0.205975 0
0.827095 -0.183706 0
0.851956 -0.145826 0
0.879086 -0.096320 0
0.906669 -0.040836 0
0.932121 0.013605 0
0.952453 0.060998 0
0.966289 0.098577 0
0.972821 0.125803 0
0.971551 0.143475 0
0.962324 0.153234 0
0.945624 0.156820 0
0.923007 0.155163 0
0.897285 0.147785 0
0.872099 0.133100 0
0.850891 0.109664 0
0.835868 0.077557 0
0.827609 0.038898 0
0.825429 -0.002732 0
0.827942 -0.043359 0
0.833582 -0.079632 0
0.841181 -0.109192 0
0.850096 -0.130437 0
0.860141 -0.142248 0
0.871399 -0.143909 0
0.883982 -0.135227 0
0.897817 -0.116775 0
0.912540 -0.090052 0
0.927520 -0.057437 0
0.941931 -0.021945 0
0.954601 0.012890 0
0.964116 0.043884 0
0.969497 0.069127 0
0.970080 0.087860 0
0.965365 0.097596 0
1.000000 -0.005430 0
0.994488 -0.016708 0
0.982435 -0.029537 0
0.961482 -0.045672 0
0.927021 -0.067891 0
0.869988 -0.101224 0
0.771075 -0.156578 0
0.588287 -0.251763 0
0.000000 -0.155931 0
0.000000 0.000000 0
0.000000 0.000000 0
-0.026798 -0.020689 0
-0.041437 -0.029788 0
-0.069642 0.012255 0
-0.099463 0.060615 0
-0.122921 0.068162 0
-0.124129 0.019342 0
-0.090897 -0.068694 0
-0.038160 -0.156880 0
0.029154 -0.203135 0
0.115871 -0.189487 0
0.219999 -0.128214 0
0.328588 -0.042481 0
0.418066 0.040326 0
0.478661 0.109479 0
0.513241 0.169200 0
0.523233 0.219497 0
0.510053 0.259452 0
0.477515 0.287362 0
0.434252 0.299198 0
0.393796 0.288803 0
0.370239 0.251299 0
0.371809 0.187248 0
0.397356 0.103682 0
0.437423 0.012499 0
0.476953 -0.073610 0
0.508314 -0.148244 0
0.529967 -0.209937 0
0.544075 -0.256193 0
0.555761 -0.282944 0
0.571642 -0.285370 0
0.597396 -0.260207 0
0.635292 -0.208571 0
0.683354 -0.137052 0
0.736459 -0.056237 0
0.785547 0.020418 0
0.823092 0.084146 0
0.847635 0.134451 0
0.858708 0.173103 0
0.856208 0.202191 0
0.840700 0.223660 0
0.814337 0.238183 0
0.781858 0.243817 0
0.750409 0.235951 0
0.727303 0.209789 0
0.716852 0.164078 0
0.718883 0.102859 0
0.729944 0.033891 0
0.745232 -0.033951 0
0.760267 -0.094072 0
0.772546 -0.143718 0
0.781128 -0.182051 0
0.786535 -0.208438 0
0.790606 -0.221658 0
0.795979 -0.219931 0
0.805087 -0.201861 0
0.819121 -0.167803 0
0.837618 -0.120663 0
0.858852 -0.065505 0
0.880488 -0.008639 0
0.899347 0.043712 0
0.913257 0.087686 0
0.920951 0.122183 0
0.921730 0.147534 0
0.915563 0.164688 0
0.903373 0.174345 0
0.887209 0.176255 0
0.869992 0.169141 0
0.854745 0.151520 0
0.843649 0.122998 0
0.837539 0.085115 0
0.836071 0.041187 0
0.838244 -0.004547 0
0.842758 -0.047896 0
0.848337 -0.085688 0
0.854047 -0.116013 0
0.859422 -0.137764 0
0.864509 -0.150236 0
0.869784 -0.152911 0
0.875908 -0.145529 0
0.883393 -0.128373 0
0.892345 -0.102571 0
0.902399 -0.070188 0
0.912812 -0.034007 0
0.922597 0.002738 0
0.930429 0.036881 0
0.935237 0.066152 0
0.936294 0.089521 0
0.933105 0.102399 0
1.000000 -0.002381 0
0.993943 -0.006993 0
0.980760 -0.011242 0
0.958001 -0.014793 0
0.920973 -0.016439 0
0.861001 -0.012312 0
0.761587 0.009025 0
0.589587 0.112913 0
0.275488 0.099851 0
0.000000 0.000000 0
0.000000 0.000000 0
0.000000 0.000000 0
-0.021452 0.031454 0
-0.103362 0.084949 0
-0.160606 0.110032 0
-0.188626 0.084876 0
-0.168572 0.000827 0
-0.129254 -0.109572 0
-0.093685 -0.205630 0
-0.063283 -0.265131 0
-0.022973 -0.270694 0
0.036733 -0.224745 0
0.114188 -0.143465 0
0.196793 -0.043337 0
0.264193 0.054809 0
0.309649 0.140532 0
0.335034 0.214018 0
0.343434 0.272530 0
0.341434 0.310203 0
0.339396 0.319276 0
0.348396 0.293903 0
0.375443 0.234830 0
0.420558 0.150792 0
0.477290 0.055653 0
0.531534 -0.034044 0
0.573239 -0.109333 0
0.600284 -0.171095 0
0.612316 -0.220824 0
0.610931 -0.258923 0
0.600494 -0.284030 0
0.588316 -0.292464 0
0.583131 -0.279251 0
0.591776 -0.241240 0
0.616053 -0.180321 0
0.652255 -0.103850 0
0.693210 -0.022698 0
0.729079 0.052034 0
0.754763 0.115155 0
0.768738 0.167151 0
0.770936 0.209107 0
0.762929 0.241273 0
0.748444 0.261935 0
0.733222 0.267102 0
0.723469 0.252103 0
0.723374 0.214774 0
0.733518 0.157849 0
0.751430 0.088438 0
0.773316 0.015693 0
0.794505 -0.051574 0
0.811759 -0.108146 0
0.823342 -0.152832 0
0.828425 -0.186046 0
0.827250 -0.208537 0
0.821458 -0.220382 0
0.814096 -0.220453 0
0.808902 -0.206845 0
0.808942 -0.178355 0
0.815397 -0.136049 0
0.827330 -0.083703 0
0.842426 -0.026888 0
0.857644 0.028231 0
0.870167 0.076976 0
0.878349 0.117332 0
0.881418 0.148864 0
0.879511 0.171593 0
0.873763 0.185177 0
0.866169 0.188546 0
0.859057 0.180251 0
0.854337 0.159447 0
0.852950 0.126873 0
0.854834 0.085139 0
0.859283 0.038195 0
0.865348 -0.009416 0