# vtk DataFile Version 2.0
generated by CFD-lab course output (written by Tobias Neckel) 
ASCII

DATASET STRUCTURED_GRID
DIMENSIONS  99 19 1 
POINTS 1881 float

0.000000 0.000000 0
0.100000 0.000000 0
0.200000 0.000000 0
0.300000 0.000000 0
0.400000 0.000000 0
0.500000 0.000000 0
0.600000 0.000000 0
0.700000 0.000000 0
0.800000 0.000000 0
0.900000 0.000000 0
1.000000 0.000000 0
1.100000 0.000000 0
1.200000 0.000000 0
1.300000 0.000000 0
1.400000 0.000000 0
1.500000 0.000000 0
1.600000 0.000000 0
1.700000 0.000000 0
1.800000 0.000000 0
1.900000 0.000000 0
2.000000 0.000000 0
2.100000 0.000000 0
2.200000 0.000000 0
2.300000 0.000000 0
2.400000 0.000000 0
2.500000 0.000000 0
2.600000 0.000000 0
2.700000 0.000000 0
2.800000 0.000000 0
2.900000 0.000000 0
3.000000 0.000000 0
3.100000 0.000000 0
3.200000 0.000000 0
3.300000 0.000000 0
3.400000 0.000000 0
3.500000 0.000000 0
3.600000 0.000000 0
3.700000 0.000000 0
3.800000 0.000000 0
3.900000 0.000000 0
4.000000 0.000000 0
4.100000 0.000000 0
4.200000 0.000000 0
4.300000 0.000000 0
4.400000 0.000000 0
4.500000 0.000000 0
4.600000 0.000000 0
4.700000 0.000000 0
4.800000 0.000000 0
4.900000 0.000000 0
5.000000 0.000000 0
5.100000 0.000000 0
5.200000 0.000000 0
5.300000 0.000000 0
5.400000 0.000000 0
5.500000 0.000000 0
5.600000 0.000000 0
5.700000 0.000000 0
5.800000 0.000000 0
5.900000 0.000000 0
6.000000 0.000000 0
6.100000 0.000000 0
6.200000 0.000000 0
6.300000 0.000000 0
6.400000 0.000000 0
6.500000 0.000000 0
6.600000 0.000000 0
6.700000 0.000000 0
6.800000 0.000000 0
6.900000 0.000000 0
7.000000 0.000000 0
7.100000 0.000000 0
7.200000 0.000000 0
7.300000 0.000000 0
7.400000 0.000000 0
7.500000 0.000000 0
7.600000 0.000000 0
7.700000 0.000000 0
7.800000 0.000000 0
7.900000 0.000000 0
8.000000 0.000000 0
8.100000 0.000000 0
8.200000 0.000000 0
8.300000 0.000000 0
8.400000 0.000000 0
8.500000 0.000000 0
8.600000 0.000000 0
8.700000 0.000000 0
8.800000 0.000000 0
8.900000 0.000000 0
9.000000 0.000000 0
9.100000 0.000000 0
9.200000 0.000000 0
9.300000 0.000000 0
9.400000 0.000000 0
9.500000 0.000000 0
9.600000 0.000000 0
9.700000 0.000000 0
9.800000 0.000000 0
0.000000 0.100000 0
0.100000 0.100000 0
0.200000 0.100000 0
0.300000 0.100000 0
0.400000 0.100000 0
0.500000 0.100000 0
0.600000 0.100000 0
0.700000 0.100000 0
0.800000 0.100000 0
0.900000 0.100000 0
1.000000 0.100000 0
1.100000 0.100000 0
1.200000 0.100000 0
1.300000 0.100000 0
1.400000 0.100000 0
1.500000 0.100000 0
1.600000 0.100000 0
1.700000 0.100000 0
1.800000 0.100000 0
1.900000 0.100000 0
2.000000 0.100000 0
2.100000 0.100000 0
2.200000 0.100000 0
2.300000 0.100000 0
2.400000 0.100000 0
2.500000 0.100000 0
2.600000 0.100000 0
2.700000 0.100000 0
2.800000 0.100000 0
2.900000 0.100000 0
3.000000 0.100000 0
3.100000 0.100000 0
3.200000 0.100000 0
3.300000 0.100000 0
3.400000 0.100000 0
3.500000 0.100000 0
3.600000 0.100000 0
3.700000 0.100000 0
3.800000 0.100000 0
3.900000 0.100000 0
4.000000 0.100000 0
4.100000 0.100000 0
4.200000 0.100000 0
4.300000 0.100000 0
4.400000 0.100000 0
4.500000 0.100000 0
4.600000 0.100000 0
4.700000 0.100000 0
4.800000 0.100000 0
4.900000 0.100000 0
5.000000 0.100000 0
5.100000 0.100000 0
5.200000 0.100000 0
5.300000 0.100000 0
5.400000 0.100000 0
5.500000 0.100000 0
5.600000 0.100000 0
5.700000 0.100000 0
5.800000 0.100000 0
5.900000 0.100000 0
6.000000 0.100000 0
6.100000 0.100000 0
6.200000 0.100000 0
6.300000 0.100000 0
6.400000 0.100000 0
6.500000 0.100000 0
6.600000 0.100000 0
6.700000 0.100000 0
6.800000 0.100000 0
6.900000 0.100000 0
7.000000 0.100000 0
7.100000 0.100000 0
7.200000 0.100000 0
7.300000 0.100000 0
7.400000 0.100000 0
7.500000 0.100000 0
7.600000 0.100000 0
7.700000 0.100000 0
7.800000 0.100000 0
7.900000 0.100000 0
8.000000 0.100000 0
8.100000 0.100000 0
8.200000 0.100000 0
8.300000 0.100000 0
8.400000 0.100000 0
8.500000 0.100000 0
8.600000 0.100000 0
8.700000 0.100000 0
8.800000 0.100000 0
8.900000 0.100000 0
9.000000 0.100000 0
9.100000 0.100000 0
9.200000 0.100000 0
9.300000 0.100000 0
9.400000 0.100000 0
9.500000 0.100000 0
9.600000 0.100000 0
9.700000 0.100000 0
9.800000 0.100000 0
0.000000 0.200000 0
0.100000 0.200000 0
0.200000 0.200000 0
0.300000 0.200000 0
0.400000 0.200000 0
0.500000 0.200000 0
0.600000 0.200000 0
0.700000 0.200000 0
0.800000 0.200000 0
0.900000 0.200000 0
1.000000 0.200000 0
1.100000 0.200000 0
1.200000 0.200000 0
1.300000 0.200000 0
1.400000 0.200000 0
1.500000 0.200000 0
1.600000 0.200000 0
1.700000 0.200000 0
1.800000 0.200000 0
1.900000 0.200000 0
2.000000 0.200000 0
2.100000 0.200000 0
2.200000 0.200000 0
2.300000 0.200000 0
2.400000 0.200000 0
2.500000 0.200000 0
2.600000 0.200000 0
2.700000 0.200000 0
2.800000 0.200000 0
2.900000 0.200000 0
3.000000 0.200000 0
3.100000 0.200000 0
3.200000 0.200000 0
3.300000 0.200000 0
3.400000 0.200000 0
3.500000 0.200000 0
3.600000 0.200000 0
3.700000 0.200000 0
3.800000 0.200000 0
3.900000 0.200000 0
4.000000 0.200000 0
4.100000 0.200000 0
4.200000 0.200000 0
4.300000 0.200000 0
4.400000 0.200000 0
4.500000 0.200000 0
4.600000 0.200000 0
4.700000 0.200000 0
4.800000 0.200000 0
4.900000 0.200000 0
5.000000 0.200000 0
5.100000 0.200000 0
5.200000 0.200000 0
5.300000 0.200000 0
5.400000 0.200000 0
5.500000 0.200000 0
5.600000 0.200000 0
5.700000 0.200000 0
5.800000 0.200000 0
5.900000 0.200000 0
6.000000 0.200000 0
6.100000 0.200000 0
6.200000 0.200000 0
6.300000 0.200000 0
6.400000 0.200000 0
6.500000 0.200000 0
6.600000 0.200000 0
6.700000 0.200000 0
6.800000 0.200000 0
6.900000 0.200000 0
7.000000 0.200000 0
7.100000 0.200000 0
7.200000 0.200000 0
7.300000 0.200000 0
7.400000 0.200000 0
7.500000 0.200000 0
7.600000 0.200000 0
7.700000 0.200000 0
7.800000 0.200000 0
7.900000 0.200000 0
8.000000 0.200000 0
8.100000 0.200000 0
8.200000 0.200000 0
8.300000 0.200000 0
8.400000 0.200000 0
8.500000 0.200000 0
8.600000 0.200000 0
8.700000 0.200000 0
8.800000 0.200000 0
8.900000 0.200000 0
9.000000 0.200000 0
9.100000 0.200000 0
9.200000 0.200000 0
9.300000 0.200000 0
9.400000 0.200000 0
9.500000 0.200000 0
9.600000 0.200000 0
9.700000 0.200000 0
9.800000 0.200000 0
0.000000 0.300000 0
0.100000 0.300000 0
0.200000 0.300000 0
0.300000 0.300000 0
0.400000 0.300000 0
0.500000 0.300000 0
0.600000 0.300000 0
0.700000 0.300000 0
0.800000 0.300000 0
0.900000 0.300000 0
1.000000 0.300000 0
1.100000 0.300000 0
1.200000 0.300000 0
1.300000 0.300000 0
1.400000 0.300000 0
1.500000 0.300000 0
1.600000 0.300000 0
1.700000 0.300000 0
1.800000 0.300000 0
1.900000 0.300000 0
2.000000 0.300000 0
2.100000 0.300000 0
2.200000 0.300000 0
2.300000 0.300000 0
2.400000 0.300000 0
2.500000 0.300000 0
2.600000 0.300000 0
2.700000 0.300000 0
2.800000 0.300000 0
2.900000 0.300000 0
3.000000 0.300000 0
3.100000 0.300000 0
3.200000 0.300000 0
3.300000 0.300000 0
3.400000 0.300000 0
3.500000 0.300000 0
3.600000 0.300000 0
3.700000 0.300000 0
3.800000 0.300000 0
3.900000 0.300000 0
4.000000 0.300000 0
4.100000 0.300000 0
4.200000 0.300000 0
4.300000 0.300000 0
4.400000 0.300000 0
4.500000 0.300000 0
4.600000 0.300000 0
4.700000 0.300000 0
4.800000 0.300000 0
4.900000 0.300000 0
5.000000 0.300000 0
5.100000 0.300000 0
5.200000 0.300000 0
5.300000 0.300000 0
5.400000 0.300000 0
5.500000 0.300000 0
5.600000 0.300000 0
5.700000 0.300000 0
5.800000 0.300000 0
5.900000 0.300000 0
6.000000 0.300000 0
6.100000 0.300000 0
6.200000 0.300000 0
6.300000 0.300000 0
6.400000 0.300000 0
6.500000 0.300000 0
6.600000 0.300000 0
6.700000 0.300000 0
6.800000 0.300000 0
6.900000 0.300000 0
7.000000 0.300000 0
7.100000 0.300000 0
7.200000 0.300000 0
7.300000 0.300000 0
7.400000 0.300000 0
7.500000 0.300000 0
7.600000 0.300000 0
7.700000 0.300000 0
7.800000 0.300000 0
7.900000 0.300000 0
8.000000 0.300000 0
8.100000 0.300000 0
8.200000 0.300000 0
8.300000 0.300000 0
8.400000 0.300000 0
8.500000 0.300000 0
8.600000 0.300000 0
8.700000 0.300000 0
8.800000 0.300000 0
8.900000 0.300000 0
9.000000 0.300000 0
9.100000 0.300000 0
9.200000 0.300000 0
9.300000 0.300000 0
9.400000 0.300000 0
9.500000 0.300000 0
9.600000 0.300000 0
9.700000 0.300000 0
9.800000 0.300000 0
0.000000 0.400000 0
0.100000 0.400000 0
0.200000 0.400000 0
0.300000 0.400000 0
0.400000 0.400000 0
0.500000 0.400000 0
0.600000 0.400000 0
0.700000 0.400000 0
0.800000 0.400000 0
0.900000 0.400000 0
1.000000 0.400000 0
1.100000 0.400000 0
1.200000 0.400000 0
1.300000 0.400000 0
1.400000 0.400000 0
1.500000 0.400000 0
1.600000 0.400000 0
1.700000 0.400000 0
1.800000 0.400000 0
1.900000 0.400000 0
2.000000 0.400000 0
2.100000 0.400000 0
2.200000 0.400000 0
2.300000 0.400000 0
2.400000 0.400000 0
2.500000 0.400000 0
2.600000 0.400000 0
2.700000 0.400000 0
2.800000 0.400000 0
2.900000 0.400000 0
3.000000 0.400000 0
3.100000 0.400000 0
3.200000 0.400000 0
3.300000 0.400000 0
3.400000 0.400000 0
3.500000 0.400000 0
3.600000 0.400000 0
3.700000 0.400000 0
3.800000 0.400000 0
3.900000 0.400000 0
4.000000 0.400000 0
4.100000 0.400000 0
4.200000 0.400000 0
4.300000 0.400000 0
4.400000 0.400000 0
4.500000 0.400000 0
4.600000 0.400000 0
4.700000 0.400000 0
4.800000 0.400000 0
4.900000 0.400000 0
5.000000 0.400000 0
5.100000 0.400000 0
5.200000 0.400000 0
5.300000 0.400000 0
5.400000 0.400000 0
5.500000 0.400000 0
5.600000 0.400000 0
5.700000 0.400000 0
5.800000 0.400000 0
5.900000 0.400000 0
6.000000 0.400000 0
6.100000 0.400000 0
6.200000 0.400000 0
6.300000 0.400000 0
6.400000 0.400000 0
6.500000 0.400000 0
6.600000 0.400000 0
6.700000 0.400000 0
6.800000 0.400000 0
6.900000 0.400000 0
7.000000 0.400000 0
7.100000 0.400000 0
7.200000 0.400000 0
7.300000 0.400000 0
7.400000 0.400000 0
7.500000 0.400000 0
7.600000 0.400000 0
7.700000 0.400000 0
7.800000 0.400000 0
7.900000 0.400000 0
8.000000 0.400000 0
8.100000 0.400000 0
8.200000 0.400000 0
8.300000 0.400000 0
8.400000 0.400000 0
8.500000 0.400000 0
8.600000 0.400000 0
8.700000 0.400000 0
8.800000 0.400000 0
8.900000 0.400000 0
9.000000 0.400000 0
9.100000 0.400000 0
9.200000 0.400000 0
9.300000 0.400000 0
9.400000 0.400000 0
[...]
POINT_DATA 1881 

VECTORS velocity float
0.500000 0.000000 0
0.502251 0.000000 0
0.507205 0.000000 0
0.515242 0.000000 0
0.526736 0.000000 0
0.541934 0.000000 0
0.560765 0.000000 0
0.582517 0.000000 0
0.605621 0.000000 0
0.627585 0.000000 0
0.646302 0.000000 0
0.660689 0.000000 0
0.670537 0.000000 0
0.676206 0.000000 0
0.678383 0.000000 0
0.677947 0.000000 0
0.675861 0.000000 0
0.673108 0.000000 0
0.670578 0.000000 0
0.668983 0.000000 0
0.668702 0.000000 0
0.669613 0.000000 0
0.671030 0.000000 0
0.671907 0.000000 0
0.671170 0.000000 0
0.668014 0.000000 0
0.662030 0.000000 0
0.653203 0.000000 0
0.641811 0.000000 0
0.628329 0.000000 0
0.613352 0.000000 0
0.597546 0.000000 0
0.581611 0.000000 0
0.566264 0.000000 0
0.552225 0.000000 0
0.540220 0.000000 0
0.531006 0.000000 0
0.525427 0.000000 0
0.524381 0.000000 0
0.528457 0.000000 0
0.537726 0.000000 0
0.551638 0.000000 0
0.568925 0.000000 0
0.587651 0.000000 0
0.605417 0.000000 0
0.619776 0.000000 0
0.628829 0.000000 0
0.631773 0.000000 0
0.628808 0.000000 0
0.620555 0.000000 0
0.607919 0.000000 0
0.591979 0.000000 0
0.573876 0.000000 0
0.554722 0.000000 0
0.535559 0.000000 0
0.517346 0.000000 0
0.500982 0.000000 0
0.487332 0.000000 0
0.477223 0.000000 0
0.471379 0.000000 0
0.470220 0.000000 0
0.473536 0.000000 0
0.480769 0.000000 0
0.491325 0.000000 0
0.504642 0.000000 0
0.520166 0.000000 0
0.537264 0.000000 0
0.555096 0.000000 0
0.572483 0.000000 0
0.587888 0.000000 0
0.599605 0.000000 0
0.606186 0.000000 0
0.606952 0.000000 0
0.601955 0.000000 0
0.591576 0.000000 0
0.576530 0.000000 0
0.557875 0.000000 0
0.536992 0.000000 0
0.515530 0.000000 0
0.495287 0.000000 0
0.478002 0.000000 0
0.465084 0.000000 0
0.457352 0.000000 0
0.454864 0.000000 0
0.456799 0.000000 0
0.461926 0.000000 0
0.469251 0.000000 0
0.478105 0.000000 0
0.488087 0.000000 0
0.498962 0.000000 0
0.510536 0.000000 0
0.522527 0.000000 0
0.534447 0.000000 0
0.545540 0.000000 0
0.554805 0.000000 0
0.561133 0.000000 0
0.563549 0.000000 0
0.561352 0.000000 0
0.553327 0.000000 0
1.000000 -0.002247 0
1.005068 -0.007197 0
1.015618 -0.012988 0
1.032337 -0.019529 0
1.056044 -0.026691 0
1.087444 -0.034034 0
1.126679 -0.040592 0
1.172570 -0.044870 0
1.222023 -0.045084 0
1.268759 -0.040700 0
1.307979 -0.033125 0
1.337684 -0.024257 0
1.357808 -0.015542 0
1.369305 -0.007871 0
1.373691 -0.001765 0
1.372787 0.002499 0
1.368586 0.004826 0
1.363127 0.005280 0
1.358315 0.004126 0
1.355696 0.001883 0
1.356162 -0.000623 0
1.359524 -0.002324 0
1.364281 -0.002296 0
1.367989 -0.000147 0
1.368186 0.003890 0
1.363157 0.009138 0
1.352131 0.014806 0
1.335158 0.020213 0
1.312889 0.024866 0
1.286345 0.028448 0
1.256769 0.030770 0
1.225520 0.031727 0
1.194020 0.031266 0
1.163716 0.029369 0
1.136047 0.026026 0
1.112432 0.021201 0
1.094277 0.014774 0
1.082978 0.006606 0
1.079886 -0.003048 0
1.086165 -0.013360 0
1.102357 -0.023191 0
1.127892 -0.031206 0
1.160832 -0.036016 0
1.197932 -0.036491 0
1.234884 -0.032123 0
1.266830 -0.023409 0
1.289298 -0.011995 0
1.299434 0.000020 0
1.296872 0.011214 0
1.282990 0.020884 0
1.259790 0.028570 0
1.229597 0.034036 0
1.194811 0.037249 0
1.157743 0.038308 0
1.120529 0.037367 0
1.085108 0.034568 0
1.053228 0.030004 0
1.026420 0.023749 0
1.005907 0.015943 0
0.992469 0.006993 0
0.986356 -0.002168 0
0.987415 -0.010559 0
0.995165 -0.017800 0
1.009017 -0.023883 0
1.028366 -0.028848 0
1.052607 -0.032627 0
1.081025 -0.034934 0
1.112527 -0.035220 0
1.145348 -0.032792 0
1.176919 -0.027121 0
1.204022 -0.018297 0
1.223251 -0.007346 0
1.231811 0.004231 0
1.228630 0.015374 0
1.214445 0.025423 0
1.190758 0.033698 0
1.159717 0.039534 0
1.123998 0.042340 0
1.086645 0.041701 0
1.050801 0.037524 0
1.019330 0.030200 0
0.994374 0.020647 0
0.977006 0.010218 0
0.967187 0.000552 0
0.964113 -0.007062 0
0.966580 -0.012453 0
0.973327 -0.016179 0
0.983417 -0.018836 0
0.996298 -0.020857 0
1.011717 -0.022450 0
1.029520 -0.023566 0
1.049405 -0.023910 0
1.070679 -0.023012 0
1.092122 -0.020358 0
1.111983 -0.015594 0
1.128099 -0.008745 0
1.138130 -0.000218 0
1.139994 0.010222 0
1.131886 0.017424 0
1.000000 -0.005060 0
1.005227 -0.015609 0
1.015793 -0.027269 0
1.032429 -0.040426 0
1.056282 -0.055111 0
1.088735 -0.070646 0
1.130946 -0.085141 0
1.182687 -0.095364 0
1.241806 -0.096212 0
1.295987 -0.085980 0
1.338705 -0.068952 0
1.369139 -0.049858 0
1.388539 -0.031652 0
1.398579 -0.015914 0
1.401136 -0.003509 0
1.398209 0.005086 0
1.391945 0.009653 0
1.384625 0.010273 0
1.378484 0.007437 0
1.375449 0.002161 0
1.376915 -0.003823 0
1.383040 -0.008121 0
1.391951 -0.008475 0
1.400109 -0.003912 0
1.403919 0.004828 0
1.401334 0.016048 0
1.391732 0.027991 0
1.375463 0.039233 0
1.353467 0.048801 0
1.326966 0.056105 0
1.297305 0.060808 0
1.265885 0.062730 0
1.234129 0.061783 0
1.203456 0.057951 0
1.175234 0.051261 0
1.150743 0.041746 0
1.131136 0.029431 0
1.117425 0.014369 0
1.110538 -0.003207 0
1.111610 -0.022485 0
1.121594 -0.041736 0
1.140602 -0.058480 0
1.167800 -0.070041 0
1.201523 -0.074049 0
1.239051 -0.068894 0
1.276296 -0.054412 0
1.307974 -0.032606 0
1.328722 -0.007579 0
1.335397 0.016436 0
1.328951 0.037074 0
1.311753 0.053385 0
1.286440 0.064969 0
1.255632 0.071843 0
1.221773 0.074271 0
1.187051 0.072623 0
1.153360 0.067288 0
1.122264 0.058676 0
1.094934 0.047308 0
1.072063 0.033938 0
1.053826 0.019538 0
1.040038 0.005041 0
1.030618 -0.008822 0
1.025608 -0.021613 0
1.025188 -0.033210 0
1.029714 -0.043597 0
1.039721 -0.052664 0
1.055748 -0.059923 0
1.077864 -0.064323 0
1.105245 -0.064391 0
1.136041 -0.058672 0
1.167475 -0.046330 0
1.196000 -0.027789 0
1.217638 -0.005381 0
1.229109 0.017362 0
1.229740 0.037868 0
1.220703 0.054723 0
1.203810 0.066755 0
1.181277 0.073066 0
1.155469 0.073192 0
1.128632 0.067310 0
1.102636 0.056423 0
1.078802 0.042321 0
1.057864 0.027186 0
1.040112 0.012892 0
1.025769 0.000606 0
1.014965 -0.009215 0
1.007556 -0.016838 0
1.003461 -0.022972 0
1.002880 -0.028301 0
1.006202 -0.033222 0
1.013833 -0.037688 0
1.025892 -0.041159 0
1.041982 -0.042717 0
1.061140 -0.041305 0
1.081912 -0.035977 0
1.102445 -0.026147 0
1.120570 -0.011894 0
1.134097 0.006244 0
1.141536 0.018888 0
1.000000 -0.007470 0
1.004244 -0.022990 0
1.013099 -0.040194 0
1.027545 -0.060023 0
1.049285 -0.083007 0
1.080862 -0.108709 0
1.125505 -0.134556 0
1.185497 -0.155742 0
1.264306 -0.158395 0
1.329200 -0.137611 0
1.373261 -0.106289 0
1.400801 -0.074105 0
1.416035 -0.044993 0
1.421466 -0.020476 0
1.419182 -0.001397 0
1.411023 0.011699 0
1.399287 0.018421 0
1.386689 0.018749 0
1.375994 0.013309 0
1.369665 0.003451 0
1.369849 -0.008221 0
1.377876 -0.017374 0
1.391838 -0.019374 0
1.406549 -0.012114 0
1.415811 0.002662 0
1.416257 0.021318 0
1.407744 0.040670 0
1.391323 0.058471 0
1.368526 0.073355 0
1.340906 0.084600 0
1.309931 0.091841 0
1.277018 0.094893 0
1.243560 0.093686 0
1.210919 0.088254 0
1.180363 0.078729 0
1.152990 0.065290 0
1.129680 0.048084 0
1.111089 0.027199 0
1.097619 0.002766 0
1.089503 -0.024415 0
1.087576 -0.052180 0
1.092790 -0.077407 0
1.106164 -0.096933 0
1.128741 -0.107740 0
1.160395 -0.106896 0
1.198775 -0.092336 0
1.239009 -0.064428 0
1.274262 -0.027410 0
1.297448 0.010979 0
1.305304 0.044523 0
1.300066 0.071076 0
1.284579 0.090151 0
1.261640 0.101910 0
1.233811 0.106884 0
1.203336 0.105775 0
1.172095 0.099350 0
1.141575 0.088425 0
1.112854 0.073944 0
1.086591 0.057045 0
1.063024 0.039013 0
1.041971 0.021036 0
1.022933 0.003867 0
1.005591 -0.012372 0
0.990452 -0.027990 0
0.979448 -0.043380 0
0.975111 -0.058659 0
0.979430 -0.073075 0
0.993006 -0.084715 0
1.014933 -0.090968 0
1.043218 -0.089352 0
1.075263 -0.078256 0
1.108152 -0.057512 0
1.138697 -0.028882 0
1.163248 0.003269 0
1.178672 0.033826 0
1.184771 0.059625 0
1.182540 0.078957 0
1.173408 0.090679 0
1.158948 0.094344 0
1.140658 0.090356 0
1.119848 0.080030 0
1.097632 0.065420 0
1.074988 0.048908 0
1.052728 0.032646 0
1.031387 0.018084 0
1.011379 0.005760 0
0.993278 -0.004676 0
0.977938 -0.014161 0
0.966610 -0.023598 0
0.960704 -0.033403 0
0.961134 -0.043256 0
0.967991 -0.052060 0
0.980574 -0.058261 0
0.997655 -0.060288 0
1.017759 -0.056898 0
1.039387 -0.047403 0
1.061158 -0.031871 0
1.081845 -0.010744 0
1.100124 0.004857 0
1.000000 -0.009304 0
1.002823 -0.028711 0
1.008896 -0.050574 0
1.019315 -0.076619 0
1.036243 -0.108438 0
1.063549 -0.146876 0
1.107691 -0.189787 0
1.176608 -0.234175 0
1.293642 -0.239926 0
1.364829 -0.194947 0
1.398783 -0.140565 0
1.414901 -0.092644 0
1.421327 -0.052325 0
1.419761 -0.019065 0
1.410644 0.006940 0
1.394843 0.024990 0
1.374743 0.033994 0
1.353659 0.033570 0
1.335114 0.024461 0
1.322095 0.008300 0
1.316846 -0.012047 0
1.322731 -0.030120 0
1.339777 -0.037148 0
1.363007 -0.027886 0
1.383021 -0.004886 0
1.390968 0.024109 0
1.386568 0.052917 0
1.372422 0.078442 0
1.351035 0.099210 0
1.324312 0.114691 0
1.293743 0.124687 0
1.260669 0.129091 0
1.226422 0.127873 0
1.192341 0.121140 0
1.159640 0.109181 0
1.129224 0.092421 0
1.101517 0.071327 0
1.076428 0.046428 0
1.053175 0.018379 0
1.030244 -0.012440 0
1.007184 -0.045020 0
0.988370 -0.077065 0
0.980233 -0.105989 0
0.987245 -0.128280 0
1.010184 -0.138930 0
1.046691 -0.133032 0
1.092249 -0.108101 0
1.140620 -0.066024 0
1.183969 -0.014610 0
1.213989 0.034451 0
1.228473 0.074104 0
1.229980 0.103389 0
1.221192 0.122607 0
1.204637 0.132570 0
1.182590 0.134334 0
1.157010 0.129044 0
1.129502 0.117912 0
1.101253 0.102286 0
1.072901 0.083763 0
1.044381 0.064153 0
1.015050 0.045127 0
0.984445 0.027556 0
0.953450 0.010866 0
0.924852 -0.007067 0
0.902639 -0.028256 0
0.890702 -0.052644 0
0.890715 -0.077817 0
0.901882 -0.099825 0
0.922140 -0.114602 0
0.949104 -0.119004 0
0.980439 -0.111267 0
1.013922 -0.091226 0
1.047379 -0.060481 0
1.078425 -0.022616 0
1.103761 0.016341 0
1.121045 0.050852 0
1.130271 0.078116 0
1.132022 0.096657 0
1.127145 0.105940 0
1.116548 0.106410 0
1.101113 0.099449 0
1.081665 0.087180 0
1.058977 0.072089 0
1.033803 0.056492 0
1.007036 0.041954 0
0.979981 0.028893 0
0.954530 0.016602 0
0.932914 0.003696 0
0.917131 -0.011067 0
0.908540 -0.027747 0
0.907560 -0.044975 0
0.913601 -0.060598 0
0.925462 -0.072381 0
0.941734 -0.078490 0
0.961055 -0.077710 0
0.982213 -0.069546 0
1.004212 -0.054353 0
1.026302 -0.032722 0
1.047719 -0.016077 0
1.000000 -0.010297 0
1.000873 -0.031891 0
1.002899 -0.056692 0
1.006900 -0.087379 0
1.014837 -0.127251 0
1.031077 -0.180167 0
1.065134 -0.247626 0
1.134640 -0.341702 0
1.310654 -0.346627 0
1.355794 -0.242764 0
1.350177 -0.156373 0
1.340836 -0.096658 0
1.334374 -0.049859 0
1.326367 -0.009791 0
1.310386 0.023529 0
1.285750 0.047607 0
1.254740 0.059608 0
1.221336 0.058378 0
1.190065 0.044868 0
1.164712 0.021709 0
1.147226 -0.008868 0
1.139752 -0.040308 0
1.148994 -0.059649 0
1.176663 -0.055363 0
1.214750 -0.025306 0
1.247269 0.017764 0
1.262013 0.059209 0
1.262946 0.093995 0
1.254452 0.121455 0
1.238719 0.141883 0
1.217060 0.155475 0
1.190655 0.162205 0
1.160850 0.162005 0
1.129126 0.155028 0
1.096723 0.141838 0
1.063762 0.123406 0
1.028411 0.100877 0
0.987620 0.075540 0
0.940303 0.048951 0
0.890303 0.021579 0
0.845215 -0.010303 0
0.813398 -0.050453 0
0.800962 -0.095807 0
0.808028 -0.137693 0
0.831783 -0.166347 0
0.868943 -0.174408 0
0.916177 -0.158363 0
0.969693 -0.119134 0
1.024646 -0.062395 0
1.073953 0.000013 0
1.109596 0.055080 0
1.130845 0.097428 0
1.139633 0.127248 0
1.137964 0.145480 0
1.127791 0.153397 0
1.110868 0.152432 0
1.088584 0.144177 0
1.061735 0.130540 0
1.030363 0.113912 0
0.994079 0.096859 0
0.953186 0.080969 0
0.910134 0.065465 0
0.869876 0.047219 0
0.838184 0.022821 0
0.818812 -0.009228 0
0.812472 -0.046733 0
0.817406 -0.084254 0
0.831027 -0.116140 0
0.851128 -0.138191 0
0.876098 -0.147652 0
0.904642 -0.143077 0
0.935494 -0.124456 0
0.967294 -0.093388 0
0.998534 -0.053116 0
1.027305 -0.008798 0
1.050537 0.033113 0
1.066839 0.067978 0
1.075973 0.093803 0
1.078075 0.109816 0
1.073444 0.116387 0
1.062431 0.114912 0
1.045412 0.107554 0
1.022890 0.096769 0
0.995773 0.084586 0
0.965735 0.071905 0
0.935380 0.058266 0
0.907909 0.042390 0
0.886301 0.023237 0
0.872361 0.000775 0
0.866329 -0.023832 0
0.867426 -0.048318 0
0.874388 -0.069962 0
0.885920 -0.086394 0
0.900894 -0.095881 0
0.918359 -0.097377 0
0.937497 -0.090560 0
0.957578 -0.075960 0
0.977951 -0.054252 0
0.997839 -0.037203 0
1.000000 -0.010183 0
0.998532 -0.031619 0
0.995499 -0.056608 0
0.990860 -0.088566 0
0.985071 -0.132625 0
0.980316 -0.197184 0
0.984126 -0.293361 0
1.018887 -0.479707 0
1.214931 -0.461092 0
1.166238 -0.234480 0
1.080341 -0.125617 0
1.037031 -0.076848 0
1.021417 -0.037858 0
1.014767 0.004930 0
0.997540 0.047563 0
0.966668 0.080640 0
0.922577 0.098409 0
0.868162 0.098241 0
0.808926 0.081077 0
0.754538 0.051128 0
0.717755 0.012908 0
0.707566 -0.031888 0
0.727599 -0.074062 0
0.774888 -0.093649 0
0.842778 -0.075499 0
0.919260 -0.023162 0
0.985055 0.037232 0
1.027651 0.085995 0
1.051968 0.123428 0
1.062866 0.152074 0
1.062189 0.172741 0
1.051268 0.185293 0
1.031292 0.189394 0
1.002963 0.185259 0
0.965973 0.174537 0
0.919053 0.160729 0
0.861581 0.147467 0
0.796339 0.134536 0
0.731293 0.115698 0
0.678116 0.082651 0
0.646766 0.031888 0
0.638541 -0.032810 0
0.647365 -0.100619 0
0.667110 -0.159106 0
0.694798 -0.199853 0
0.729913 -0.217433 0
0.772549 -0.208855 0
0.821937 -0.174497 0
0.875868 -0.118875 0
0.930627 -0.050503 0
0.979150 0.017206 0
1.015100 0.073347 0
1.038424 0.115482 0
1.050053 0.144406 0
1.051110 0.161424 0
1.042635 0.168245 0
1.025285 0.167039 0
0.999195 0.160502 0
0.964355 0.151414 0
0.921828 0.141326 0
0.875217 0.129070 0
0.830816 0.110864 0
0.795494 0.082817 0
0.773676 0.043998 0
0.765844 -0.002542 0
0.768863 -0.051237 0
0.778747 -0.096371 0
0.792888 -0.133547 0
0.810127 -0.159675 0
0.830176 -0.172521 0
0.852999 -0.170667 0
0.878333 -0.153882 0
0.905473 -0.123524 0
0.933326 -0.082630 0
0.960541 -0.035665 0
0.985035 0.011315 0
1.004313 0.052678 0
1.017365 0.085420 0
1.023665 0.108468 0
1.022935 0.122052 0
1.015055 0.127479 0
1.000156 0.126719 0
0.978885 0.121726 0
0.952768 0.113645 0
0.924369 0.102346 0
0.896959 0.086718 0
0.873710 0.065681 0
0.856836 0.039243 0
0.847186 0.008904 0
0.844304 -0.022812 0
0.846910 -0.053034 0
0.853672 -0.079093 0
0.863558 -0.098888 0
0.875851 -0.110929 0
0.890046 -0.114313 0
0.905707 -0.108765 0
0.922359 -0.094807 0
0.939410 -0.072983 0
0.955940 -0.055572 0
1.000000 -0.008835 0
0.996214 -0.027401 0
0.988037 -0.049028 0
0.974133 -0.076962 0
0.952208 -0.116718 0
0.918631 -0.179234 0
0.867888 -0.286208 0
0.796459 -0.572518 0
0.559016 -0.395324 0
0.500885 0.000000 0
0.432714 -0.017655 0
0.376462 -0.037739 0
0.392898 -0.027591 0
0.433693 0.014092 0
0.449701 0.071632 0
0.431633 0.122572 0
0.388830 0.158112 0
0.330083 0.172023 0
0.268485 0.158482 0
0.222541 0.112872 0
0.211471 0.038101 0
0.240155 -0.050154 0
0.292662 -0.126977 0
0.361628 -0.170549 0
0.445096 -0.169687 0
0.542067 -0.124522 0
0.644597 -0.049191 0
0.732788 0.027073 0
0.795124 0.086232 0
0.835342 0.131653 0
0.857025 0.167064 0
0.861595 0.193094 0
0.849598 0.210303 0
0.820877 0.220339 0
0.775431 0.225743 0
0.715702 0.227796 0
0.649377 0.223590 0
0.589386 0.205828 0
0.548763 0.167176 0
0.533770 0.106110 0
0.541631 0.029273 0
0.562821 -0.051052 0
0.586544 -0.124379 0
0.608728 -0.185132 0
0.630120 -0.229157 0
0.653761 -0.252164 0
0.683076 -0.250392 0
0.720125 -0.222458 0
0.764551 -0.171090 0
0.813740 -0.103275 0
0.863453 -0.029398 0
0.906175 0.038148 0
0.937832 0.092290 0
0.957993 0.132788 0
0.966709 0.160809 0
0.964113 0.178251 0
0.950270 0.187612 0
0.925507 0.191465 0
0.891369 0.191274 0
0.851732 0.185994 0
0.812821 0.171980 0
0.781291 0.145187 0
0.761438 0.104360 0
0.753775 0.052472 0
0.755886 -0.004414 0
0.763982 -0.059636 0
0.774705 -0.108280 0
0.786216 -0.147522 0
0.798063 -0.175481 0
0.810785 -0.190527 0
0.825370 -0.191239 0
0.842611 -0.176933 0
0.862618 -0.148384 0
0.884716 -0.108187 0
0.907671 -0.060509 0
0.929926 -0.010662 0
0.949003 0.035646 0
0.963139 0.074449 0
0.971290 0.104245 0
0.972779 0.124996 0
0.967277 0.137688 0
0.955005 0.143722 0
0.937022 0.144155 0
0.915395 0.139101 0
0.892970 0.127712 0
0.872699 0.108924 0
0.856825 0.082513 0
0.846416 0.049761 0
0.841440 0.013306 0
0.841162 -0.023557 0
0.844412 -0.057687 0
0.850108 -0.086611 0
0.857501 -0.108574 0
0.866201 -0.122369 0
0.876077 -0.127233 0
0.887092 -0.122873 0
0.899112 -0.109663 0
0.911751 -0.087833 0
0.924143 -0.070145 0
1.000000 -0.006405 0
0.994505 -0.019670 0
0.982523 -0.034538 0
0.961674 -0.052749 0
0.927324 -0.077135 0
0.870433 -0.112875 0
0.771546 -0.171200 0
0.588426 -0.269510 0
0.000000 -0.165526 0
0.000000 0.000000 0
0.000000 0.000000 0
-0.025977 -0.045353 0
-0.044359 -0.095084 0
-0.031183 -0.051870 0
-0.018743 0.049625 0
-0.021518 0.141512 0
-0.041631 0.199955 0
-0.068142 0.218577 0
-0.084169 0.188611 0
-0.070467 0.108138 0
-0.020819 -0.004708 0
0.039274 -0.113085 0
0.097094 -0.195542 0
0.154171 -0.246090 0
0.217207 -0.255946 0
0.292158 -0.222671 0
0.380150 -0.153498 0
0.473920 -0.064541 0
0.554516 0.020865 0
0.611422 0.090165 0
0.646350 0.146479 0
0.660658 0.192711 0
0.654908 0.230105 0
0.630501 0.259419 0
0.591798 0.279709 0
0.547745 0.286781 0
0.510813 0.273783 0
0.492262 0.235151 0
0.496654 0.171316 0
0.520164 0.089786 0
0.553440 0.002838 0
0.584884 -0.077726 0
0.609133 -0.146532 0
0.625042 -0.202688 0
0.634238 -0.244892 0
0.640723 -0.270393 0
0.649968 -0.275223 0
0.667046 -0.255978 0
0.694431 -0.212496 0
0.730998 -0.149411 0
0.772862 -0.075234 0
0.814285 -0.001037 0
0.848130 0.063659 0
0.871794 0.115523 0
0.884328 0.155298 0
0.885319 0.184678 0
0.874958 0.205640 0
0.854673 0.219399 0
0.827885 0.225186 0
0.800036 0.219872 0
0.777157 0.199509 0
0.763513 0.162247 0
0.760087 0.110334 0
0.765006 0.049550 0
0.775085 -0.012748 0
0.786774 -0.070056 0
0.797573 -0.118606 0
0.806146 -0.156906 0
0.812290 -0.184247 0
0.816908 -0.199831 0
0.821726 -0.202495 0
0.828662 -0.191133 0
0.839013 -0.165632 0
0.852935 -0.127686 0
0.869492 -0.080878 0
0.887089 -0.030018 0
0.903616 0.019463 0
0.916811 0.063130 0
0.925272 0.098826 0
0.928133 0.126063 0
0.925092 0.145250 0
0.916598 0.156973 0
0.903999 0.161335 0
0.889435 0.157695 0
0.875350 0.145041 0
0.863803 0.122863 0
0.855957 0.091962 0
0.852017 0.054627 0
0.851520 0.014157 0
0.853682 -0.025785 0
0.857514 -0.061981 0
0.862139 -0.092184 0
0.866974 -0.114982 0
0.871810 -0.129505 0
0.876795 -0.135204 0
0.882295 -0.131800 0
0.888644 -0.119466 0
0.895892 -0.098014 0
0.903545 -0.080355 0
1.000000 -0.003352 0
0.993866 -0.009940 0
0.980562 -0.016208 0
0.957618 -0.021776 0
0.920320 -0.025490 0
0.859836 -0.023467 0
0.759478 -0.004212 0
0.585662 0.095780 0
0.270906 0.089859 0
0.000000 0.000000 0
0.000000 0.000000 0
0.000000 0.000000 0
-0.043653 -0.020683 0
-0.119834 -0.011522 0
-0.152333 0.061969 0
-0.157584 0.145458 0
-0.154218 0.204729 0
-0.138967 0.214552 0
-0.096616 0.160801 0
-0.024584 0.049520 0
0.045405 -0.071644 0
0.095849 -0.168075 0
0.130505 -0.241881 0
0.153617 -0.290669 0
0.174276 -0.307682 0
0.203332 -0.287474 0
0.247963 -0.230961 0
0.307726 -0.147302 0
0.374630 -0.051279 0
0.432615 0.039811 0
0.473441 0.117819 0
0.496647 0.184528 0
0.503083 0.240453 0
0.496237 0.283444 0
0.483365 0.308497 0
0.474547 0.308780 0
0.479229 0.279074 0
0.501958 0.219989 0
0.540641 0.139277 0
0.588336 0.049325 0
0.633703 -0.035448 0
0.668719 -0.106748 0
0.691388 -0.164542 0
0.701259 -0.210243 0
0.699399 -0.244843 0
0.689049 -0.267899 0
0.675969 -0.276720 0
0.667464 -0.266926 0
0.669779 -0.235048 0
0.685285 -0.181712 0
0.711698 -0.112690 0
0.743721 -0.037125 0
0.774109 0.034775 0
0.797431 0.096584 0
0.811619 0.147278 0
0.816040 0.187616 0
0.811416 0.218252 0
0.800188 0.238534 0
0.786538 0.245909 0
0.775435 0.236720 0
0.770841 0.208502 0
0.774223 0.162258 0
0.784505 0.102867 0
0.799204 0.037475 0
0.815333 -0.026181 0
0.829855 -0.082124 0
0.840907 -0.127653 0
0.847352 -0.162241 0
0.848860 -0.186246 0
0.846170 -0.199966 0
0.841198 -0.202996 0
0.836673 -0.194223 0
0.835230 -0.172661 0
0.838403 -0.138670 0
0.846147 -0.094665 0
0.857118 -0.044787 0
0.869310 0.005921 0
0.880327 0.052790 0
0.888462 0.092920 0
0.892733 0.125173 0
0.892891 0.149221 0
0.889487 0.164814 0
0.883823 0.171315 0