# vtk DataFile Version 2.0
generated by CFD-lab course output (written by Tobias Neckel) 
ASCII

DATASET STRUCTURED_GRID
DIMENSIONS  99 19 1 
POINTS 1881 float

0.000000 0.000000 0
0.100000 0.000000 0
0.200000 0.000000 0
0.300000 0.000000 0
0.400000 0.000000 0
0.500000 0.000000 0
0.600000 0.000000 0
0.700000 0.000000 0
0.800000 0.000000 0
0.900000 0.000000 0
1.000000 0.000000 0
1.100000 0.000000 0
1.200000 0.000000 0
1.300000 0.000000 0
1.400000 0.000000 0
1.500000 0.000000 0
1.600000 0.000000 0
1.700000 0.000000 0
1.800000 0.000000 0
1.900000 0.000000 0
2.000000 0.000000 0
2.100000 0.000000 0
2.200000 0.000000 0
2.300000 0.000000 0
2.400000 0.000000 0
2.500000 0.000000 0
2.600000 0.000000 0
2.700000 0.000000 0
2.800000 0.000000 0
2.900000 0.000000 0
3.000000 0.000000 0
3.100000 0.000000 0
3.200000 0.000000 0
3.300000 0.000000 0
3.400000 0.000000 0
3.500000 0.000000 0
3.600000 0.000000 0
3.700000 0.000000 0
3.800000 0.000000 0
3.900000 0.000000 0
4.000000 0.000000 0
4.100000 0.000000 0
4.200000 0.000000 0
4.300000 0.000000 0
4.400000 0.000000 0
4.500000 0.000000 0
4.600000 0.000000 0
4.700000 0.000000 0
4.800000 0.000000 0
4.900000 0.000000 0
5.000000 0.000000 0
5.100000 0.000000 0
5.200000 0.000000 0
5.300000 0.000000 0
5.400000 0.000000 0
5.500000 0.000000 0
5.600000 0.000000 0
5.700000 0.000000 0
5.800000 0.000000 0
5.900000 0.000000 0
6.000000 0.000000 0
6.100000 0.000000 0
6.200000 0.000000 0
6.300000 0.000000 0
6.400000 0.000000 0
6.500000 0.000000 0
6.600000 0.000000 0
6.700000 0.000000 0
6.800000 0.000000 0
6.900000 0.000000 0
7.000000 0.000000 0
7.100000 0.000000 0
7.200000 0.000000 0
7.300000 0.000000 0
7.400000 0.000000 0
7.500000 0.000000 0
7.600000 0.000000 0
7.700000 0.000000 0
7.800000 0.000000 0
7.900000 0.000000 0
8.000000 0.000000 0
8.100000 0.000000 0
8.200000 0.000000 0
8.300000 0.000000 0
8.400000 0.000000 0
8.500000 0.000000 0
8.600000 0.000000 0
8.700000 0.000000 0
8.800000 0.000000 0
8.900000 0.000000 0
9.000000 0.000000 0
9.100000 0.000000 0
9.200000 0.000000 0
9.300000 0.000000 0
9.400000 0.000000 0
9.500000 0.000000 0
9.600000 0.000000 0
9.700000 0.000000 0
9.800000 0.000000 0
0.000000 0.100000 0
0.100000 0.100000 0
0.200000 0.100000 0
0.300000 0.100000 0
0.400000 0.100000 0
0.500000 0.100000 0
0.600000 0.100000 0
0.700000 0.100000 0
0.800000 0.100000 0
0.900000 0.100000 0
1.000000 0.100000 0
1.100000 0.100000 0
1.200000 0.100000 0
1.300000 0.100000 0
1.400000 0.100000 0
1.500000 0.100000 0
1.600000 0.100000 0
1.700000 0.100000 0
1.800000 0.100000 0
1.900000 0.100000 0
2.000000 0.100000 0
2.100000 0.100000 0
2.200000 0.100000 0
2.300000 0.100000 0
2.400000 0.100000 0
2.500000 0.100000 0
2.600000 0.100000 0
2.700000 0.100000 0
2.800000 0.100000 0
2.900000 0.100000 0
3.000000 0.100000 0
3.100000 0.100000 0
3.200000 0.100000 0
3.300000 0.100000 0
3.400000 0.100000 0
3.500000 0.100000 0
3.600000 0.100000 0
3.700000 0.100000 0
3.800000 0.100000 0
3.900000 0.100000 0
4.000000 0.100000 0
4.100000 0.100000 0
4.200000 0.100000 0
4.300000 0.100000 0
4.400000 0.100000 0
4.500000 0.100000 0
4.600000 0.100000 0
4.700000 0.100000 0
4.800000 0.100000 0
4.900000 0.100000 0
5.000000 0.100000 0
5.100000 0.100000 0
5.200000 0.100000 0
5.300000 0.100000 0
5.400000 0.100000 0
5.500000 0.100000 0
5.600000 0.100000 0
5.700000 0.100000 0
5.800000 0.100000 0
5.900000 0.100000 0
6.000000 0.100000 0
6.100000 0.100000 0
6.200000 0.100000 0
6.300000 0.100000 0
6.400000 0.100000 0
6.500000 0.100000 0
6.600000 0.100000 0
6.700000 0.100000 0
6.800000 0.100000 0
6.900000 0.100000 0
7.000000 0.100000 0
7.100000 0.100000 0
7.200000 0.100000 0
7.300000 0.100000 0
7.400000 0.100000 0
7.500000 0.100000 0
7.600000 0.100000 0
7.700000 0.100000 0
7.800000 0.100000 0
7.900000 0.100000 0
8.000000 0.100000 0
8.100000 0.100000 0
8.200000 0.100000 0
8.300000 0.100000 0
8.400000 0.100000 0
8.500000 0.100000 0
8.600000 0.100000 0
8.700000 0.100000 0
8.800000 0.100000 0
8.900000 0.100000 0
9.000000 0.100000 0
9.100000 0.100000 0
9.200000 0.100000 0
9.300000 0.100000 0
9.400000 0.100000 0
9.500000 0.100000 0
9.600000 0.100000 0
9.700000 0.100000 0
9.800000 0.100000 0
0.000000 0.200000 0
0.100000 0.200000 0
0.200000 0.200000 0
0.300000 0.200000 0
0.400000 0.200000 0
0.500000 0.200000 0
0.600000 0.200000 0
0.700000 0.200000 0
0.800000 0.200000 0
0.900000 0.200000 0
1.000000 0.200000 0
1.100000 0.200000 0
1.200000 0.200000 0
1.300000 0.200000 0
1.400000 0.200000 0
1.500000 0.200000 0
1.600000 0.200000 0
1.700000 0.200000 0
1.800000 0.200000 0
1.900000 0.200000 0
2.000000 0.200000 0
2.100000 0.200000 0
2.200000 0.200000 0
2.300000 0.200000 0
2.400000 0.200000 0
2.500000 0.200000 0
2.600000 0.200000 0
2.700000 0.200000 0
2.800000 0.200000 0
2.900000 0.200000 0
3.000000 0.200000 0
3.100000 0.200000 0
3.200000 0.200000 0
3.300000 0.200000 0
3.400000 0.200000 0
3.500000 0.200000 0
3.600000 0.200000 0
3.700000 0.200000 0
3.800000 0.200000 0
3.900000 0.200000 0
4.000000 0.200000 0
4.100000 0.200000 0
4.200000 0.200000 0
4.300000 0.200000 0
4.400000 0.200000 0
4.500000 0.200000 0
4.600000 0.200000 0
4.700000 0.200000 0
4.800000 0.200000 0
4.900000 0.200000 0
5.000000 0.200000 0
5.100000 0.200000 0
5.200000 0.200000 0
5.300000 0.200000 0
5.400000 0.200000 0
5.500000 0.200000 0
5.600000 0.200000 0
5.700000 0.200000 0
5.800000 0.200000 0
5.900000 0.200000 0
6.000000 0.200000 0
6.100000 0.200000 0
6.200000 0.200000 0
6.300000 0.200000 0
6.400000 0.200000 0
6.500000 0.200000 0
6.600000 0.200000 0
6.700000 0.200000 0
6.800000 0.200000 0
6.900000 0.200000 0
7.000000 0.200000 0
7.100000 0.200000 0
7.200000 0.200000 0
7.300000 0.200000 0
7.400000 0.200000 0
7.500000 0.200000 0
7.600000 0.200000 0
7.700000 0.200000 0
7.800000 0.200000 0
7.900000 0.200000 0
8.000000 0.200000 0
8.100000 0.200000 0
8.200000 0.200000 0
8.300000 0.200000 0
8.400000 0.200000 0
8.500000 0.200000 0
8.600000 0.200000 0
8.700000 0.200000 0
8.800000 0.200000 0
8.900000 0.200000 0
9.000000 0.200000 0
9.100000 0.200000 0
9.200000 0.200000 0
9.300000 0.200000 0
9.400000 0.200000 0
9.500000 0.200000 0
9.600000 0.200000 0
9.700000 0.200000 0
9.800000 0.200000 0
0.000000 0.300000 0
0.100000 0.300000 0
0.200000 0.300000 0
0.300000 0.300000 0
0.400000 0.300000 0
0.500000 0.300000 0
0.600000 0.300000 0
0.700000 0.300000 0
0.800000 0.300000 0
0.900000 0.300000 0
1.000000 0.300000 0
1.100000 0.300000 0
1.200000 0.300000 0
1.300000 0.300000 0
1.400000 0.300000 0
1.500000 0.300000 0
1.600000 0.300000 0
1.700000 0.300000 0
1.800000 0.300000 0
1.900000 0.300000 0
2.000000 0.300000 0
2.100000 0.300000 0
2.200000 0.300000 0
2.300000 0.300000 0
2.400000 0.300000 0
2.500000 0.300000 0
2.600000 0.300000 0
2.700000 0.300000 0
2.800000 0.300000 0
2.900000 0.300000 0
3.000000 0.300000 0
3.100000 0.300000 0
3.200000 0.300000 0
3.300000 0.300000 0
3.400000 0.300000 0
3.500000 0.300000 0
3.600000 0.300000 0
3.700000 0.300000 0
3.800000 0.300000 0
3.900000 0.300000 0
4.000000 0.300000 0
4.100000 0.300000 0
4.200000 0.300000 0
4.300000 0.300000 0
4.400000 0.300000 0
4.500000 0.300000 0
4.600000 0.300000 0
4.700000 0.300000 0
4.800000 0.300000 0
4.900000 0.300000 0
5.000000 0.300000 0
5.100000 0.300000 0
5.200000 0.300000 0
5.300000 0.300000 0
5.400000 0.300000 0
5.500000 0.300000 0
5.600000 0.300000 0
5.700000 0.300000 0
5.800000 0.300000 0
5.900000 0.300000 0
6.000000 0.300000 0
6.100000 0.300000 0
6.200000 0.300000 0
6.300000 0.300000 0
6.400000 0.300000 0
6.500000 0.300000 0
6.600000 0.300000 0
6.700000 0.300000 0
6.800000 0.300000 0
6.900000 0.300000 0
7.000000 0.300000 0
7.100000 0.300000 0
7.200000 0.300000 0
7.300000 0.300000 0
7.400000 0.300000 0
7.500000 0.300000 0
7.600000 0.300000 0
7.700000 0.300000 0
7.800000 0.300000 0
7.900000 0.300000 0
8.000000 0.300000 0
8.100000 0.300000 0
8.200000 0.300000 0
8.300000 0.300000 0
8.400000 0.300000 0
8.500000 0.300000 0
8.600000 0.300000 0
8.700000 0.300000 0
8.800000 0.300000 0
8.900000 0.300000 0
9.000000 0.300000 0
9.100000 0.300000 0
9.200000 0.300000 0
9.300000 0.300000 0
9.400000 0.300000 0
9.500000 0.300000 0
9.600000 0.300000 0
9.700000 0.300000 0
9.800000 0.300000 0
0.000000 0.400000 0
0.100000 0.400000 0
0.200000 0.400000 0
0.300000 0.400000 0
0.400000 0.400000 0
0.500000 0.400000 0
0.600000 0.400000 0
0.700000 0.400000 0
0.800000 0.400000 0
0.900000 0.400000 0
1.000000 0.400000 0
1.100000 0.400000 0
1.200000 0.400000 0
1.300000 0.400000 0
1.400000 0.400000 0
1.500000 0.400000 0
1.600000 0.400000 0
1.700000 0.400000 0
1.800000 0.400000 0
1.900000 0.400000 0
2.000000 0.400000 0
2.100000 0.400000 0
2.200000 0.400000 0
2.300000 0.400000 0
2.400000 0.400000 0
2.500000 0.400000 0
2.600000 0.400000 0
2.700000 0.400000 0
2.800000 0.400000 0
2.900000 0.400000 0
3.000000 0.400000 0
3.100000 0.400000 0
3.200000 0.400000 0
3.300000 0.400000 0
3.400000 0.400000 0
3.500000 0.400000 0
3.600000 0.400000 0
3.700000 0.400000 0
3.800000 0.400000 0
3.900000 0.400000 0
4.000000 0.400000 0
4.100000 0.400000 0
4.200000 0.400000 0
4.300000 0.400000 0
4.400000 0.400000 0
4.500000 0.400000 0
4.600000 0.400000 0
4.700000 0.400000 0
4.800000 0.400000 0
4.900000 0.400000 0
5.000000 0.400000 0
5.100000 0.400000 0
5.200000 0.400000 0
5.300000 0.400000 0
5.400000 0.400000 0
5.500000 0.400000 0
5.600000 0.400000 0
5.700000 0.400000 0
5.800000 0.400000 0
5.900000 0.400000 0
6.000000 0.400000 0
6.100000 0.400000 0
6.200000 0.400000 0
6.300000 0.400000 0
6.400000 0.400000 0
6.500000 0.400000 0
6.600000 0.400000 0
6.700000 0.400000 0
6.800000 0.400000 0
6.900000 0.400000 0
7.000000 0.400000 0
7.100000 0.400000 0
7.200000 0.400000 0
7.300000 0.400000 0
7.400000 0.400000 0
7.500000 0.400000 0
7.600000 0.400000 0
7.700000 0.400000 0
7.800000 0.400000 0
7.900000 0.400000 0
8.000000 0.400000 0
8.100000 0.400000 0
8.200000 0.400000 0
8.300000 0.400000 0
8.400000 0.400000 0
8.500000 0.400000 0
8.600000 0.400000 0
8.700000 0.400000 0
8.800000 0.400000 0
8.900000 0.400000 0
9.000000 0.400000 0
9.100000 0.400000 0
9.200000 0.400000 0
9.300000 0.400000 0
9.400000 0.400000 0
[...]
POINT_DATA 1881 

VECTORS velocity float
0.500000 0.000000 0
0.502179 0.000000 0
0.506947 0.000000 0
0.514699 0.000000 0
0.525819 0.000000 0
0.540571 0.000000 0
0.558922 0.000000 0
0.580219 0.000000 0
0.602983 0.000000 0
0.624840 0.000000 0
0.643810 0.000000 0
0.658921 0.000000 0
0.670076 0.000000 0
0.677732 0.000000 0
0.682633 0.000000 0
0.685629 0.000000 0
0.687500 0.000000 0
0.688814 0.000000 0
0.689775 0.000000 0
0.690149 0.000000 0
0.689356 0.000000 0
0.686716 0.000000 0
0.681709 0.000000 0
0.674080 0.000000 0
0.663883 0.000000 0
0.651425 0.000000 0
0.637198 0.000000 0
0.621812 0.000000 0
0.605957 0.000000 0
0.590358 0.000000 0
0.575750 0.000000 0
0.562854 0.000000 0
0.552385 0.000000 0
0.545081 0.000000 0
0.541763 0.000000 0
0.543197 0.000000 0
0.549711 0.000000 0
0.561021 0.000000 0
0.576065 0.000000 0
0.592989 0.000000 0
0.609389 0.000000 0
0.622794 0.000000 0
0.631295 0.000000 0
0.634073 0.000000 0
0.631271 0.000000 0
0.623462 0.000000 0
0.611504 0.000000 0
0.596412 0.000000 0
0.579234 0.000000 0
0.560977 0.000000 0
0.542574 0.000000 0
0.524885 0.000000 0
0.508727 0.000000 0
0.494908 0.000000 0
0.484244 0.000000 0
0.477529 0.000000 0
0.475391 0.000000 0
0.477924 0.000000 0
0.484751 0.000000 0
0.495350 0.000000 0
0.509135 0.000000 0
0.525448 0.000000 0
0.543499 0.000000 0
0.562243 0.000000 0
0.580279 0.000000 0
0.595872 0.000000 0
0.607208 0.000000 0
0.612913 0.000000 0
0.612530 0.000000 0
0.606275 0.000000 0
0.594679 0.000000 0
0.578603 0.000000 0
0.559218 0.000000 0
0.537955 0.000000 0
0.516429 0.000000 0
0.496330 0.000000 0
0.479254 0.000000 0
0.466495 0.000000 0
0.458830 0.000000 0
0.456356 0.000000 0
0.458332 0.000000 0
0.463602 0.000000 0
0.471215 0.000000 0
0.480520 0.000000 0
0.491116 0.000000 0
0.502758 0.000000 0
0.515231 0.000000 0
0.528208 0.000000 0
0.541138 0.000000 0
0.553188 0.000000 0
0.563279 0.000000 0
0.570272 0.000000 0
0.573268 0.000000 0
0.571853 0.000000 0
0.565949 0.000000 0
0.555708 0.000000 0
0.541593 0.000000 0
0.524399 0.000000 0
0.505331 0.000000 0
1.000000 -0.002143 0
1.004924 -0.006891 0
1.015101 -0.012487 0
1.031241 -0.018845 0
1.054183 -0.025851 0
1.084665 -0.033091 0
1.122900 -0.039642 0
1.167823 -0.044059 0
1.216506 -0.044620 0
1.262939 -0.040829 0
1.302573 -0.034083 0
1.333628 -0.026268 0
1.356257 -0.018813 0
1.371646 -0.012556 0
1.381473 -0.007883 0
1.387561 -0.004837 0
1.391625 -0.003148 0
1.394948 -0.002235 0
1.398023 -0.001296 0
1.400280 0.000450 0
1.400301 0.003451 0
1.396491 0.007661 0
1.387667 0.012656 0
1.373305 0.017845 0
1.353571 0.022670 0
1.329149 0.026698 0
1.301085 0.029623 0
1.270649 0.031247 0
1.239255 0.031458 0
1.208382 0.030208 0
1.179517 0.027502 0
1.154105 0.023361 0
1.133532 0.017769 0
1.119149 0.010617 0
1.112313 0.001879 0
1.114334 -0.007952 0
1.126137 -0.017826 0
1.147625 -0.026351 0
1.177166 -0.031957 0
1.211516 -0.033308 0
1.246158 -0.029784 0
1.276034 -0.021882 0
1.296685 -0.011255 0
1.305508 0.000047 0
1.302341 0.010630 0
1.288512 0.019781 0
1.265945 0.027059 0
1.236833 0.032277 0
1.203384 0.035440 0
1.167691 0.036665 0
1.131668 0.036096 0
1.097059 0.033849 0
1.065469 0.029978 0
1.038375 0.024484 0
1.017069 0.017380 0
1.002532 0.008853 0
0.995317 -0.000395 0
0.995581 -0.009360 0
1.003123 -0.017427 0
1.017505 -0.024384 0
1.038115 -0.030099 0
1.064201 -0.034363 0
1.094797 -0.036790 0
1.128487 -0.036773 0
1.163132 -0.033621 0
1.195771 -0.026918 0
1.222849 -0.017029 0
1.240814 -0.005309 0
1.247072 0.006650 0
1.241154 0.017861 0
1.224175 0.027679 0
1.197927 0.035466 0
1.164777 0.040651 0
1.127516 0.042790 0
1.089179 0.041625 0
1.052805 0.037174 0
1.021106 0.029834 0
0.996086 0.020423 0
0.978745 0.010138 0
0.969033 0.000497 0
0.966176 -0.007246 0
0.969010 -0.012883 0
0.976330 -0.016917 0
0.987240 -0.019900 0
1.001220 -0.022239 0
1.018025 -0.024115 0
1.037493 -0.025449 0
1.059268 -0.025907 0
1.082559 -0.024980 0
1.106002 -0.022141 0
1.127690 -0.017083 0
1.145343 -0.009988 0
1.156640 -0.001581 0
1.159763 0.007319 0
1.154141 0.016146 0
1.140191 0.024356 0
1.118973 0.031309 0
1.092153 0.036262 0
1.061951 0.037985 0
1.000000 -0.004868 0
1.005080 -0.015024 0
1.015263 -0.026284 0
1.031307 -0.039056 0
1.054359 -0.053406 0
1.085831 -0.068708 0
1.126928 -0.083151 0
1.177522 -0.093603 0
1.235578 -0.095116 0
1.289180 -0.086068 0
1.332041 -0.070690 0
1.363500 -0.053685 0
1.385036 -0.038019 0
1.398658 -0.025201 0
1.406533 -0.015881 0
1.410872 -0.010107 0
1.413823 -0.007337 0
1.417186 -0.006351 0
1.421829 -0.005293 0
1.426972 -0.002253 0
1.430302 0.003802 0
1.429365 0.012655 0
1.422565 0.023212 0
1.409384 0.034117 0
1.390174 0.044174 0
1.365838 0.052500 0
1.337580 0.058509 0
1.306775 0.061835 0
1.274897 0.062269 0
1.243466 0.059737 0
1.213973 0.054273 0
1.187811 0.045981 0
1.166215 0.034951 0
1.150272 0.021214 0
1.141014 0.004811 0
1.139643 -0.013827 0
1.147505 -0.033288 0
1.165136 -0.051018 0
1.191725 -0.063872 0
1.225182 -0.068967 0
1.262149 -0.064488 0
1.297950 -0.050497 0
1.327016 -0.029445 0
1.344314 -0.005631 0
1.347726 0.017013 0
1.338778 0.036406 0
1.319900 0.051687 0
1.293669 0.062569 0
1.262558 0.069148 0
1.228795 0.071722 0
1.194333 0.070637 0
1.160854 0.066202 0
1.129790 0.058686 0
1.102294 0.048403 0
1.079158 0.035844 0
1.060730 0.021752 0
1.046961 0.006951 0
1.037825 -0.007807 0
1.033483 -0.021925 0
1.034199 -0.034992 0
1.040313 -0.046695 0
1.052278 -0.056678 0
1.070530 -0.064278 0
1.095023 -0.068324 0
1.124763 -0.067270 0
1.157630 -0.059702 0
1.190450 -0.045028 0
1.219199 -0.024208 0
1.239552 -0.000328 0
1.248463 0.022906 0
1.246036 0.043233 0
1.233791 0.059401 0
1.213809 0.070412 0
1.188484 0.075598 0
1.160294 0.074710 0
1.131552 0.068073 0
1.104165 0.056719 0
1.079451 0.042360 0
1.058092 0.027052 0
1.040277 0.012570 0
1.026112 0.000024 0
1.015630 -0.010154 0
1.008650 -0.018230 0
1.005121 -0.024889 0
1.005297 -0.030785 0
1.009641 -0.036273 0
1.018615 -0.041243 0
1.032338 -0.045065 0
1.050345 -0.046733 0
1.071544 -0.045130 0
1.094314 -0.039340 0
1.116608 -0.028949 0
1.136035 -0.014419 0
1.150110 0.002500 0
1.157045 0.019573 0
1.156713 0.035168 0
1.149922 0.048038 0
1.138031 0.057023 0
1.122662 0.060474 0
1.000000 -0.007186 0
1.004090 -0.022120 0
1.012560 -0.038713 0
1.026401 -0.057940 0
1.047307 -0.080378 0
1.077824 -0.105663 0
1.121190 -0.131334 0
1.179746 -0.152708 0
1.256916 -0.156278 0
1.320778 -0.137291 0
1.364503 -0.108402 0
1.392343 -0.079260 0
1.408704 -0.053957 0
1.416664 -0.034024 0
1.418825 -0.020063 0
1.417749 -0.012100 0
1.416124 -0.009442 0
1.416728 -0.010231 0
1.421628 -0.011087 0
1.430236 -0.008037 0
1.438497 0.001060 0
1.441531 0.015413 0
1.436996 0.032645 0
1.424526 0.050240 0
1.404943 0.066219 0
1.379559 0.079293 0
1.349816 0.088685 0
1.317207 0.093927 0
1.283269 0.094764 0
1.249576 0.091130 0
1.217651 0.083154 0
1.188830 0.071118 0
1.164138 0.055308 0
1.144288 0.035819 0
1.129833 0.012510 0
1.121360 -0.014437 0
1.120007 -0.043306 0
1.126911 -0.070555 0
1.142564 -0.091986 0
1.167210 -0.103714 0
1.200191 -0.102538 0
1.238758 -0.086738 0
1.277508 -0.057614 0
1.309077 -0.020664 0
1.326658 0.016162 0
1.328871 0.047604 0
1.318679 0.072169 0
1.299182 0.089620 0
1.273211 0.100315 0
1.243220 0.104891 0
1.211261 0.104039 0
1.179011 0.098393 0
1.147802 0.088539 0
1.118634 0.075117 0
1.092166 0.058945 0
1.068674 0.041051 0
1.048011 0.022509 0
1.029647 0.004118 0
1.013126 -0.013800 0
0.998832 -0.031212 0
0.988680 -0.048173 0
0.985236 -0.064574 0
0.990670 -0.079529 0
1.005771 -0.090999 0
1.029678 -0.096219 0
1.060265 -0.092598 0
1.094639 -0.078592 0
1.129428 -0.054407 0
1.160842 -0.022613 0
1.184605 0.011375 0
1.197908 0.042348 0
1.201237 0.067689 0
1.195933 0.085956 0
1.183697 0.096304 0
1.166322 0.098556 0
1.145481 0.093303 0
1.122608 0.081936 0
1.098882 0.066497 0
1.075261 0.049312 0
1.052460 0.032478 0
1.030864 0.017402 0
1.010731 0.004580 0
0.992527 -0.006408 0
0.977119 -0.016547 0
0.965924 -0.026758 0
0.960529 -0.037432 0
0.961940 -0.048146 0
0.970220 -0.057637 0
0.984556 -0.064185 0
1.003566 -0.066109 0
1.025602 -0.062147 0
1.048955 -0.051708 0
1.071939 -0.035082 0
1.092803 -0.013690 0
1.109467 0.009543 0
1.120455 0.031479 0
1.125778 0.049991 0
1.126033 0.063522 0
1.122079 0.069662 0
1.000000 -0.008929 0
1.002672 -0.027557 0
1.008371 -0.048593 0
1.018193 -0.073803 0
1.034278 -0.104829 0
1.060465 -0.142590 0
1.103168 -0.185073 0
1.170299 -0.229328 0
1.284799 -0.236148 0
1.354562 -0.193654 0
1.387618 -0.142254 0
1.402742 -0.097878 0
1.407982 -0.062312 0
1.406091 -0.035290 0
1.399115 -0.016940 0
1.388996 -0.007387 0
1.378651 -0.006308 0
1.371759 -0.011857 0
1.373154 -0.018811 0
1.384735 -0.019123 0
1.401257 -0.007477 0
1.412774 0.014166 0
1.413628 0.040220 0
1.404141 0.066173 0
1.386186 0.089142 0
1.361660 0.107626 0
1.332153 0.120861 0
1.299124 0.128381 0
1.264093 0.129898 0
1.228693 0.125354 0
1.194560 0.115019 0
1.163048 0.099493 0
1.134865 0.079493 0
1.109961 0.055520 0
1.087764 0.027745 0
1.067260 -0.003988 0
1.047584 -0.038825 0
1.031502 -0.073559 0
1.024373 -0.104155 0
1.031019 -0.126579 0
1.053455 -0.136025 0
1.090054 -0.127807 0
1.136028 -0.099764 0
1.183930 -0.054787 0
1.224314 -0.002783 0
1.248737 0.044387 0
1.257219 0.081379 0
1.253127 0.108039 0
1.239481 0.125112 0
1.218924 0.133673 0
1.193703 0.134846 0
1.165685 0.129661 0
1.136382 0.119065 0
1.106939 0.104039 0
1.078016 0.085804 0
1.049566 0.065906 0
1.020782 0.045978 0
0.990730 0.027079 0
0.959693 0.008892 0
0.930156 -0.010541 0
0.906447 -0.033092 0
0.893291 -0.058661 0
0.892945 -0.084806 0
0.904766 -0.107323 0
0.926597 -0.121757 0
0.955845 -0.124657 0
0.989907 -0.114186 0
1.026235 -0.090411 0
1.062220 -0.055507 0
1.094842 -0.014161 0
1.120080 0.026599 0
1.136121 0.061375 0
1.143367 0.087952 0
1.142735 0.105208 0
1.135351 0.112926 0
1.122360 0.111788 0
1.104818 0.103318 0
1.083645 0.089707 0
1.059600 0.073475 0
1.033322 0.056968 0
1.005544 0.041753 0
0.977477 0.028183 0
0.951062 0.015382 0
0.928706 0.001715 0
0.912620 -0.014194 0
0.904336 -0.032289 0
0.904265 -0.050932 0
0.911674 -0.067679 0
0.925186 -0.080078 0
0.943240 -0.086176 0
0.964329 -0.084729 0
0.987087 -0.075286 0
1.010291 -0.058267 0
1.032814 -0.035028 0
1.053423 -0.008079 0
1.070334 0.018857 0
1.082563 0.042461 0
1.090022 0.060722 0
1.092850 0.070023 0
1.000000 -0.009837 0
1.000738 -0.030467 0
1.002427 -0.054233 0
1.005882 -0.083848 0
1.013028 -0.122650 0
1.028173 -0.174551 0
1.060726 -0.241167 0
1.128158 -0.334339 0
1.300770 -0.340540 0
1.344910 -0.240109 0
1.338364 -0.156576 0
1.326793 -0.099603 0
1.315380 -0.057275 0
1.301764 -0.025130 0
1.282570 -0.002950 0
1.259037 0.008373 0
1.234985 0.007793 0
1.214947 -0.004744 0
1.204000 -0.024067 0
1.209940 -0.036125 0
1.233430 -0.026965 0
1.263100 0.003045 0
1.281559 0.041281 0
1.285324 0.077684 0
1.278887 0.108700 0
1.264741 0.133326 0
1.244116 0.151219 0
1.217996 0.161986 0
1.187660 0.165194 0
1.154815 0.160663 0
1.121414 0.148800 0
1.088871 0.130814 0
1.056638 0.108396 0
1.021565 0.082924 0
0.980229 0.055221 0
0.933112 0.025756 0
0.885807 -0.007533 0
0.847094 -0.047328 0
0.826684 -0.091487 0
0.828038 -0.132783 0
0.849270 -0.161566 0
0.886802 -0.169310 0
0.936542 -0.151493 0
0.993635 -0.108953 0
1.051664 -0.048643 0
1.101186 0.014702 0
1.134342 0.067780 0
1.152215 0.107360 0
1.157383 0.134519 0
1.152221 0.150671 0
1.138878 0.157280 0
1.119224 0.155714 0
1.094726 0.147285 0
1.066221 0.133484 0
1.033683 0.116318 0
0.996416 0.098285 0
0.954230 0.081345 0
0.909199 0.065209 0
0.866377 0.046779 0
0.832076 0.022039 0
0.810703 -0.011301 0
0.803421 -0.051064 0
0.808493 -0.090996 0
0.823136 -0.124643 0
0.844970 -0.147291 0
0.872268 -0.155904 0
0.903609 -0.148980 0
0.937545 -0.126720 0
0.972469 -0.091222 0
1.006536 -0.046487 0
1.037158 0.001068 0
1.060832 0.044402 0
1.076610 0.079342 0
1.084536 0.104321 0
1.085014 0.118932 0
1.078570 0.123837 0
1.065717 0.120651 0
1.046890 0.111715 0
1.022554 0.099636 0
0.993534 0.086534 0
0.961510 0.073247 0
0.929266 0.059061 0
0.900335 0.042364 0
0.877997 0.021896 0
0.864122 -0.002389 0
0.858828 -0.029076 0
0.861111 -0.055483 0
0.869496 -0.078556 0
0.882554 -0.095749 0
0.899081 -0.105252 0
0.918073 -0.105993 0
0.938639 -0.097669 0
0.959946 -0.080809 0
0.981194 -0.056821 0
1.001572 -0.027976 0
1.019978 0.002339 0
1.034835 0.030303 0
1.045419 0.053236 0
1.051182 0.065883 0
1.000000 -0.009650 0
0.998428 -0.029964 0
0.995128 -0.053736 0
0.990054 -0.084405 0
0.983623 -0.127120 0
0.977946 -0.190287 0
0.980417 -0.285058 0
1.013129 -0.469372 0
1.205942 -0.452899 0
1.158347 -0.231244 0
1.072605 -0.124120 0
1.028316 -0.074866 0
1.005339 -0.037257 0
0.981311 -0.002462 0
0.946050 0.025797 0
0.901149 0.040199 0
0.853122 0.037775 0
0.811518 0.019121 0
0.786299 -0.013795 0
0.790615 -0.048538 0
0.829003 -0.060631 0
0.890995 -0.033961 0
0.957327 0.017997 0
1.006796 0.068845 0
1.036144 0.109723 0
1.051889 0.142397 0
1.055718 0.167605 0
1.048331 0.184836 0
1.030653 0.193079 0
1.003640 0.191600 0
0.967668 0.180964 0
0.922150 0.164271 0
0.866509 0.146803 0
0.802599 0.131938 0
0.736585 0.116210 0
0.678525 0.090447 0
0.639087 0.047210 0
0.622942 -0.014421 0
0.626815 -0.085086 0
0.645114 -0.149156 0
0.674113 -0.194786 0
0.712469 -0.215081 0
0.759765 -0.206601 0
0.814898 -0.169907 0
0.875201 -0.110330 0
0.935863 -0.038289 0
0.987457 0.030351 0
1.024099 0.084998 0
1.046861 0.125107 0
1.057173 0.152180 0
1.056491 0.167845 0
1.046095 0.173814 0
1.026784 0.172067 0
0.998655 0.165082 0
0.961418 0.155610 0
0.915740 0.145360 0
0.865141 0.133197 0
0.816526 0.114935 0
0.777858 0.086020 0
0.754424 0.045140 0
0.746753 -0.004430 0
0.750929 -0.056444 0
0.762253 -0.104512 0
0.777885 -0.143794 0
0.796747 -0.170885 0
0.818735 -0.183293 0
0.843937 -0.179463 0
0.872069 -0.159273 0
0.902268 -0.124499 0
0.933198 -0.078850 0
0.963186 -0.027697 0
0.989388 0.021921 0
1.009361 0.064247 0
1.022297 0.096806 0
1.027859 0.118893 0
1.025925 0.131084 0
1.016470 0.134998 0
0.999649 0.132871 0
0.976124 0.126832 0
0.947528 0.118011 0
0.916711 0.106021 0
0.887360 0.089358 0
0.863006 0.066652 0
0.845992 0.037929 0
0.837028 0.004975 0
0.835317 -0.029277 0
0.839249 -0.061598 0
0.847319 -0.089121 0
0.858444 -0.109663 0
0.871926 -0.121695 0
0.887295 -0.124285 0
0.904138 -0.117159 0
0.921977 -0.100822 0
0.940233 -0.076653 0
0.958224 -0.046863 0
0.975164 -0.014406 0
0.989728 0.017020 0
1.000645 0.044375 0
1.006824 0.060336 0
1.000000 -0.008250 0
0.996157 -0.025581 0
0.987817 -0.045858 0
0.973648 -0.072344 0
0.951337 -0.110544 0
0.917194 -0.171345 0
0.865591 -0.276350 0
0.792702 -0.559862 0
0.555110 -0.388130 0
0.498301 0.000000 0
0.430635 -0.017386 0
0.375076 -0.032312 0
0.375009 -0.010250 0
0.382126 0.034172 0
0.363603 0.077216 0
0.321805 0.101296 0
0.274557 0.097417 0
0.241475 0.062083 0
0.241368 -0.003150 0
0.277784 -0.078821 0
0.342650 -0.127342 0
0.428302 -0.125277 0
0.531419 -0.074520 0
0.633451 -0.001133 0
0.713807 0.063606 0
0.767633 0.113752 0
0.800705 0.154777 0
0.814421 0.187051 0
0.809378 0.209886 0
0.785616 0.223649 0
0.743035 0.230292 0
0.683259 0.231976 0
0.612867 0.227954 0
0.544894 0.212859 0
0.494764 0.179308 0
0.472453 0.123269 0
0.477865 0.048064 0
0.501922 -0.035043 0
0.530783 -0.113649 0
0.557944 -0.180076 0
0.583834 -0.228920 0
0.611930 -0.254966 0
0.646168 -0.253923 0
0.688949 -0.224385 0
0.739966 -0.169605 0
0.796307 -0.097553 0
0.852524 -0.020454 0
0.899309 0.047957 0
0.933131 0.101446 0
0.954086 0.141042 0
0.962549 0.168357 0
0.958855 0.185421 0
0.943139 0.194726 0
0.915669 0.198851 0
0.877947 0.199234 0
0.834143 0.194562 0
0.791296 0.180562 0
0.757095 0.152497 0
0.736445 0.108887 0
0.729706 0.053151 0
0.733758 -0.007799 0
0.743872 -0.066555 0
0.756175 -0.117945 0
0.768779 -0.159132 0
0.781470 -0.188137 0
0.795151 -0.203092 0
0.811144 -0.202315 0
0.830411 -0.185053 0
0.852996 -0.152352 0
0.877979 -0.107405 0
0.903816 -0.055122 0
0.928511 -0.001774 0
0.949088 0.046433 0
0.963891 0.085824 0
0.971964 0.115304 0
0.972701 0.135226 0
0.965831 0.146926 0
0.951643 0.152061 0
0.931361 0.151758 0
0.907372 0.145948 0
0.882958 0.133416 0
0.861456 0.112768 0
0.845277 0.083733 0
0.835385 0.047875 0
0.831467 0.008287 0
0.832455 -0.031297 0
0.836909 -0.067484 0
0.843624 -0.097749 0
0.851847 -0.120355 0
0.861259 -0.134102 0
0.871837 -0.138204 0
0.883651 -0.132351 0
0.896652 -0.116904 0
0.910550 -0.093068 0
0.924794 -0.062907 0
0.938628 -0.029164 0
0.951047 0.004822 0
0.960616 0.036139 0
0.965910 0.055168 0
1.000000 -0.005795 0
0.994503 -0.017770 0
0.982480 -0.031228 0
0.961570 -0.047927 0
0.927170 -0.070669 0
0.870214 -0.104540 0
0.771348 -0.160566 0
0.588507 -0.256514 0
0.000000 -0.158495 0
0.000000 0.000000 0
0.000000 0.000000 0
-0.025640 -0.027479 0
-0.040086 -0.044292 0
-0.059843 0.008953 0
-0.082782 0.086118 0
-0.110118 0.129240 0
-0.129430 0.118103 0
-0.122518 0.052320 0
-0.080682 -0.050094 0
-0.022707 -0.149816 0
0.041903 -0.211146 0
0.117153 -0.222729 0
0.207153 -0.187152 0
0.311813 -0.113543 0
0.413682 -0.024459 0
0.492660 0.055498 0
0.544354 0.120818 0
0.571973 0.176164 0
0.576737 0.221885 0
0.559925 0.257945 0
0.525228 0.283324 0
0.481026 0.294444 0
0.440335 0.285178 0
0.416564 0.250053 0
0.417319 0.188664 0
0.441026 0.107361 0
0.478498 0.017755 0
0.515725 -0.067328 0
0.545214 -0.141101 0
0.565310 -0.202205 0
0.577747 -0.248775 0
0.587045 -0.277416 0
0.599383 -0.283617 0
0.620471 -0.263703 0
0.653097 -0.217687 0
0.695990 -0.150844 0
0.744701 -0.072650 0
0.792024 0.004392 0
0.829741 0.070331 0
0.855547 0.122762 0
0.868752 0.163077 0
0.869102 0.193225 0
0.856915 0.215254 0
0.833837 0.230275 0
0.803789 0.237137 0
0.773078 0.232014 0
0.748685 0.210249 0
0.735389 0.169791 0
0.733973 0.113415 0
0.741852 0.047834 0
0.754965 -0.018587 0
0.768973 -0.078853 0
0.781147 -0.129414 0
0.790204 -0.169084 0
0.796209 -0.197253 0
0.800503 -0.212967 0
0.805325 -0.214725 0
0.813001 -0.201126 0
0.824963 -0.172067 0
0.841187 -0.129670 0
0.860378 -0.078229 0
0.880554 -0.023350 0
0.899009 0.028868 0
0.913338 0.073930 0
0.922136 0.110082 0
0.924568 0.137217 0
0.920408 0.156056 0
0.910267 0.167342 0
0.895795 0.171103 0
0.879537 0.166415 0
0.864332 0.151938 0
0.852459 0.127039 0
0.845053 0.092725 0
0.842105 0.051741 0
0.842880 0.007906 0
0.846303 -0.034718 0
0.851175 -0.072766 0
0.856526 -0.104058 0
0.861776 -0.127297 0
0.866810 -0.141683 0
0.871932 -0.146676 0
0.877689 -0.141973 0
0.884576 -0.127720 0
0.892775 -0.104794 0
0.902035 -0.074941 0
0.911712 -0.040659 0
0.920886 -0.004968 0
0.928264 0.029512 0
0.932327 0.051087 0
1.000000 -0.002745 0
0.993920 -0.008054 0
0.980698 -0.012927 0
0.957885 -0.017036 0
0.920769 -0.019189 0
0.860645 -0.015522 0
0.760958 0.005358 0
0.588435 0.108479 0
0.274064 0.097370 0
0.000000 0.000000 0
0.000000 0.000000 0
0.000000 0.000000 0
-0.027004 0.024437 0
-0.106721 0.076873 0
-0.153925 0.127489 0
-0.178335 0.147940 0
-0.171936 0.109822 0
-0.125857 0.013345 0
-0.071996 -0.102957 0
-0.030857 -0.201404 0
-0.000335 -0.267199 0
0.032530 -0.290527 0
0.076697 -0.269181 0
0.137614 -0.207662 0
0.212492 -0.117240 0
0.287283 -0.016920 0
0.344986 0.075464 0
0.382467 0.154669 0
0.401158 0.221936 0
0.403923 0.275161 0
0.397250 0.309195 0
0.391269 0.316877 0
0.396726 0.292427 0
0.420330 0.235887 0
0.461903 0.154860 0
0.515074 0.062106 0
0.567146 -0.026621 0
0.607803 -0.101750 0
0.634637 -0.163229 0
0.647137 -0.212608 0
0.646510 -0.250657 0
0.636423 -0.276600 0
0.623365 -0.287346 0
0.615554 -0.278098 0
0.620019 -0.245123 0
0.639397 -0.189155 0
0.671000 -0.116487 0
0.708614 -0.037083 0
0.743470 0.037923 0
0.769592 0.102032 0
0.785033 0.154803 0
0.789355 0.197258 0
0.783590 0.229992 0
0.770720 0.251979 0
0.755716 0.259994 0
0.744395 0.249670 0
0.741226 0.218255 0
0.747583 0.167214 0
0.761814 0.102431 0
0.780701 0.032166 0
0.800300 -0.034913 0
0.817149 -0.092730 0
0.829320 -0.139169 0
0.835747 -0.174191 0
0.836303 -0.198435 0
0.832104 -0.212208 0
0.825621 -0.214814 0
0.820187 -0.204691 0
0.818866 -0.180538 0
0.823243 -0.142820 0
0.832965 -0.094489 0
0.846208 -0.040405 0
0.860439 0.013650 0
0.872834 0.062697 0
0.881600 0.104074 0
0.885775 0.136953 0
0.885231 0.161227 0
0.880757 0.176675 0
0.873995 0.182489 0
0.867043 0.177411 0
0.861797 0.160495 0
0.859390 0.132048 0
0.860023 0.094088 0