# vtk DataFile Version 2.0
generated by CFD-lab course output (written by Tobias Neckel) 
ASCII

DATASET STRUCTURED_GRID
DIMENSIONS  99 19 1 
POINTS 1881 float

0.000000 0.000000 0
0.100000 0.000000 0
0.200000 0.000000 0
0.300000 0.000000 0
0.400000 0.000000 0
0.500000 0.000000 0
0.600000 0.000000 0
0.700000 0.000000 0
0.800000 0.000000 0
0.900000 0.000000 0
1.000000 0.000000 0
1.100000 0.000000 0
1.200000 0.000000 0
1.300000 0.000000 0
1.400000 0.000000 0
1.500000 0.000000 0
1.600000 0.000000 0
1.700000 0.000000 0
1.800000 0.000000 0
1.900000 0.000000 0
2.000000 0.000000 0
2.100000 0.000000 0
2.200000 0.000000 0
2.300000 0.000000 0
2.400000 0.000000 0
2.500000 0.000000 0
2.600000 0.000000 0
2.700000 0.000000 0
2.800000 0.000000 0
2.900000 0.000000 0
3.000000 0.000000 0
3.100000 0.000000 0
3.200000 0.000000 0
3.300000 0.000000 0
3.400000 0.000000 0
3.500000 0.000000 0
3.600000 0.000000 0
3.700000 0.000000 0
3.800000 0.000000 0
3.900000 0.000000 0
4.000000 0.000000 0
4.100000 0.000000 0
4.200000 0.000000 0
4.300000 0.000000 0
4.400000 0.000000 0
4.500000 0.000000 0
4.600000 0.000000 0
4.700000 0.000000 0
4.800000 0.000000 0
4.900000 0.000000 0
5.000000 0.000000 0
5.100000 0.000000 0
5.200000 0.000000 0
5.300000 0.000000 0
5.400000 0.000000 0
5.500000 0.000000 0
5.600000 0.000000 0
5.700000 0.000000 0
5.800000 0.000000 0
5.900000 0.000000 0
6.000000 0.000000 0
6.100000 0.000000 0
6.200000 0.000000 0
6.300000 0.000000 0
6.400000 0.000000 0
6.500000 0.000000 0
6.600000 0.000000 0
6.700000 0.000000 0
6.800000 0.000000 0
6.900000 0.000000 0
7.000000 0.000000 0
7.100000 0.000000 0
7.200000 0.000000 0
7.300000 0.000000 0
7.400000 0.000000 0
7.500000 0.000000 0
7.600000 0.000000 0
7.700000 0.000000 0
7.800000 0.000000 0
7.900000 0.000000 0
8.000000 0.000000 0
8.100000 0.000000 0
8.200000 0.000000 0
8.300000 0.000000 0
8.400000 0.000000 0
8.500000 0.000000 0
8.600000 0.000000 0
8.700000 0.000000 0
8.800000 0.000000 0
8.900000 0.000000 0
9.000000 0.000000 0
9.100000 0.000000 0
9.200000 0.000000 0
9.300000 0.000000 0
9.400000 0.000000 0
9.500000 0.000000 0
9.600000 0.000000 0
9.700000 0.000000 0
9.800000 0.000000 0
0.000000 0.100000 0
0.100000 0.100000 0
0.200000 0.100000 0
0.300000 0.100000 0
0.400000 0.100000 0
0.500000 0.100000 0
0.600000 0.100000 0
0.700000 0.100000 0
0.800000 0.100000 0
0.900000 0.100000 0
1.000000 0.100000 0
1.100000 0.100000 0
1.200000 0.100000 0
1.300000 0.100000 0
1.400000 0.100000 0
1.500000 0.100000 0
1.600000 0.100000 0
1.700000 0.100000 0
1.800000 0.100000 0
1.900000 0.100000 0
2.000000 0.100000 0
2.100000 0.100000 0
2.200000 0.100000 0
2.300000 0.100000 0
2.400000 0.100000 0
2.500000 0.100000 0
2.600000 0.100000 0
2.700000 0.100000 0
2.800000 0.100000 0
2.900000 0.100000 0
3.000000 0.100000 0
3.100000 0.100000 0
3.200000 0.100000 0
3.300000 0.100000 0
3.400000 0.100000 0
3.500000 0.100000 0
3.600000 0.100000 0
3.700000 0.100000 0
3.800000 0.100000 0
3.900000 0.100000 0
4.000000 0.100000 0
4.100000 0.100000 0
4.200000 0.100000 0
4.300000 0.100000 0
4.400000 0.100000 0
4.500000 0.100000 0
4.600000 0.100000 0
4.700000 0.100000 0
4.800000 0.100000 0
4.900000 0.100000 0
5.000000 0.100000 0
5.100000 0.100000 0
5.200000 0.100000 0
5.300000 0.100000 0
5.400000 0.100000 0
5.500000 0.100000 0
5.600000 0.100000 0
5.700000 0.100000 0
5.800000 0.100000 0
5.900000 0.100000 0
6.000000 0.100000 0
6.100000 0.100000 0
6.200000 0.100000 0
6.300000 0.100000 0
6.400000 0.100000 0
6.500000 0.100000 0
6.600000 0.100000 0
6.700000 0.100000 0
6.800000 0.100000 0
6.900000 0.100000 0
7.000000 0.100000 0
7.100000 0.100000 0
7.200000 0.100000 0
7.300000 0.100000 0
7.400000 0.100000 0
7.500000 0.100000 0
7.600000 0.100000 0
7.700000 0.100000 0
7.800000 0.100000 0
7.900000 0.100000 0
8.000000 0.100000 0
8.100000 0.100000 0
8.200000 0.100000 0
8.300000 0.100000 0
8.400000 0.100000 0
8.500000 0.100000 0
8.600000 0.100000 0
8.700000 0.100000 0
8.800000 0.100000 0
8.900000 0.100000 0
9.000000 0.100000 0
9.100000 0.100000 0
9.200000 0.100000 0
9.300000 0.100000 0
9.400000 0.100000 0
9.500000 0.100000 0
9.600000 0.100000 0
9.700000 0.100000 0
9.800000 0.100000 0
0.000000 0.200000 0
0.100000 0.200000 0
0.200000 0.200000 0
0.300000 0.200000 0
0.400000 0.200000 0
0.500000 0.200000 0
0.600000 0.200000 0
0.700000 0.200000 0
0.800000 0.200000 0
0.900000 0.200000 0
1.000000 0.200000 0
1.100000 0.200000 0
1.200000 0.200000 0
1.300000 0.200000 0
1.400000 0.200000 0
1.500000 0.200000 0
1.600000 0.200000 0
1.700000 0.200000 0
1.800000 0.200000 0
1.900000 0.200000 0
2.000000 0.200000 0
2.100000 0.200000 0
2.200000 0.200000 0
2.300000 0.200000 0
2.400000 0.200000 0
2.500000 0.200000 0
2.600000 0.200000 0
2.700000 0.200000 0
2.800000 0.200000 0
2.900000 0.200000 0
3.000000 0.200000 0
3.100000 0.200000 0
3.200000 0.200000 0
3.300000 0.200000 0
3.400000 0.200000 0
3.500000 0.200000 0
3.600000 0.200000 0
3.700000 0.200000 0
3.800000 0.200000 0
3.900000 0.200000 0
4.000000 0.200000 0
4.100000 0.200000 0
4.200000 0.200000 0
4.300000 0.200000 0
4.400000 0.200000 0
4.500000 0.200000 0
4.600000 0.200000 0
4.700000 0.200000 0
4.800000 0.200000 0
4.900000 0.200000 0
5.000000 0.200000 0
5.100000 0.200000 0
5.200000 0.200000 0
5.300000 0.200000 0
5.400000 0.200000 0
5.500000 0.200000 0
5.600000 0.200000 0
5.700000 0.200000 0
5.800000 0.200000 0
5.900000 0.200000 0
6.000000 0.200000 0
6.100000 0.200000 0
6.200000 0.200000 0
6.300000 0.200000 0
6.400000 0.200000 0
6.500000 0.200000 0
6.600000 0.200000 0
6.700000 0.200000 0
6.800000 0.200000 0
6.900000 0.200000 0
7.000000 0.200000 0
7.100000 0.200000 0
7.200000 0.200000 0
7.300000 0.200000 0
7.400000 0.200000 0
7.500000 0.200000 0
7.600000 0.200000 0
7.700000 0.200000 0
7.800000 0.200000 0
7.900000 0.200000 0
8.000000 0.200000 0
8.100000 0.200000 0
8.200000 0.200000 0
8.300000 0.200000 0
8.400000 0.200000 0
8.500000 0.200000 0
8.600000 0.200000 0
8.700000 0.200000 0
8.800000 0.200000 0
8.900000 0.200000 0
9.000000 0.200000 0
9.100000 0.200000 0
9.200000 0.200000 0
9.300000 0.200000 0
9.400000 0.200000 0
9.500000 0.200000 0
9.600000 0.200000 0
9.700000 0.200000 0
9.800000 0.200000 0
0.000000 0.300000 0
0.100000 0.300000 0
0.200000 0.300000 0
0.300000 0.300000 0
0.400000 0.300000 0
0.500000 0.300000 0
0.600000 0.300000 0
0.700000 0.300000 0
0.800000 0.300000 0
0.900000 0.300000 0
1.000000 0.300000 0
1.100000 0.300000 0
1.200000 0.300000 0
1.300000 0.300000 0
1.400000 0.300000 0
1.500000 0.300000 0
1.600000 0.300000 0
1.700000 0.300000 0
1.800000 0.300000 0
1.900000 0.300000 0
2.000000 0.300000 0
2.100000 0.300000 0
2.200000 0.300000 0
2.300000 0.300000 0
2.400000 0.300000 0
2.500000 0.300000 0
2.600000 0.300000 0
2.700000 0.300000 0
2.800000 0.300000 0
2.900000 0.300000 0
3.000000 0.300000 0
3.100000 0.300000 0
3.200000 0.300000 0
3.300000 0.300000 0
3.400000 0.300000 0
3.500000 0.300000 0
3.600000 0.300000 0
3.700000 0.300000 0
3.800000 0.300000 0
3.900000 0.300000 0
4.000000 0.300000 0
4.100000 0.300000 0
4.200000 0.300000 0
4.300000 0.300000 0
4.400000 0.300000 0
4.500000 0.300000 0
4.600000 0.300000 0
4.700000 0.300000 0
4.800000 0.300000 0
4.900000 0.300000 0
5.000000 0.300000 0
5.100000 0.300000 0
5.200000 0.300000 0
5.300000 0.300000 0
5.400000 0.300000 0
5.500000 0.300000 0
5.600000 0.300000 0
5.700000 0.300000 0
5.800000 0.300000 0
5.900000 0.300000 0
6.000000 0.300000 0
6.100000 0.300000 0
6.200000 0.300000 0
6.300000 0.300000 0
6.400000 0.300000 0
6.500000 0.300000 0
6.600000 0.300000 0
6.700000 0.300000 0
6.800000 0.300000 0
6.900000 0.300000 0
7.000000 0.300000 0
7.100000 0.300000 0
7.200000 0.300000 0
7.300000 0.300000 0
7.400000 0.300000 0
7.500000 0.300000 0
7.600000 0.300000 0
7.700000 0.300000 0
7.800000 0.300000 0
7.900000 0.300000 0
8.000000 0.300000 0
8.100000 0.300000 0
8.200000 0.300000 0
8.300000 0.300000 0
8.400000 0.300000 0
8.500000 0.300000 0
8.600000 0.300000 0
8.700000 0.300000 0
8.800000 0.300000 0
8.900000 0.300000 0
9.000000 0.300000 0
9.100000 0.300000 0
9.200000 0.300000 0
9.300000 0.300000 0
9.400000 0.300000 0
9.500000 0.300000 0
9.600000 0.300000 0
9.700000 0.300000 0
9.800000 0.300000 0
0.000000 0.400000 0
0.100000 0.400000 0
0.200000 0.400000 0
0.300000 0.400000 0
0.400000 0.400000 0
0.500000 0.400000 0
0.600000 0.400000 0
0.700000 0.400000 0
0.800000 0.400000 0
0.900000 0.400000 0
1.000000 0.400000 0
1.100000 0.400000 0
1.200000 0.400000 0
1.300000 0.400000 0
1.400000 0.400000 0
1.500000 0.400000 0
1.600000 0.400000 0
1.700000 0.400000 0
1.800000 0.400000 0
1.900000 0.400000 0
2.000000 0.400000 0
2.100000 0.400000 0
2.200000 0.400000 0
2.300000 0.400000 0
2.400000 0.400000 0
2.500000 0.400000 0
2.600000 0.400000 0
2.700000 0.400000 0
2.800000 0.400000 0
2.900000 0.400000 0
3.000000 0.400000 0
3.100000 0.400000 0
3.200000 0.400000 0
3.300000 0.400000 0
3.400000 0.400000 0
3.500000 0.400000 0
3.600000 0.400000 0
3.700000 0.400000 0
3.800000 0.400000 0
3.900000 0.400000 0
4.000000 0.400000 0
4.100000 0.400000 0
4.200000 0.400000 0
4.300000 0.400000 0
4.400000 0.400000 0
4.500000 0.400000 0
4.600000 0.400000 0
4.700000 0.400000 0
4.800000 0.400000 0
4.900000 0.400000 0
5.000000 0.400000 0
5.100000 0.400000 0
5.200000 0.400000 0
5.300000 0.400000 0
5.400000 0.400000 0
5.500000 0.400000 0
5.600000 0.400000 0
5.700000 0.400000 0
5.800000 0.400000 0
5.900000 0.400000 0
6.000000 0.400000 0
6.100000 0.400000 0
6.200000 0.400000 0
6.300000 0.400000 0
6.400000 0.400000 0
6.500000 0.400000 0
6.600000 0.400000 0
6.700000 0.400000 0
6.800000 0.400000 0
6.900000 0.400000 0
7.000000 0.400000 0
7.100000 0.400000 0
7.200000 0.400000 0
7.300000 0.400000 0
7.400000 0.400000 0
7.500000 0.400000 0
7.600000 0.400000 0
7.700000 0.400000 0
7.800000 0.400000 0
7.900000 0.400000 0
8.000000 0.400000 0
8.100000 0.400000 0
8.200000 0.400000 0
8.300000 0.400000 0
8.400000 0.400000 0
8.500000 0.400000 0
8.600000 0.400000 0
8.700000 0.400000 0
8.800000 0.400000 0
8.900000 0.400000 0
9.000000 0.400000 0
9.100000 0.400000 0
9.200000 0.400000 0
9.300000 0.400000 0
9.400000 0.400000 0
[...]
POINT_DATA 1881 

VECTORS velocity float
0.500000 0.000000 0
0.502263 0.000000 0
0.507259 0.000000 0
0.515376 0.000000 0
0.526985 0.000000 0
0.542343 0.000000 0
0.561376 0.000000 0
0.583370 0.000000 0
0.606742 0.000000 0
0.628970 0.000000 0
0.647911 0.000000 0
0.662428 0.000000 0
0.672251 0.000000 0
0.677659 0.000000 0
0.679262 0.000000 0
0.677875 0.000000 0
0.674429 0.000000 0
0.669915 0.000000 0
0.665328 0.000000 0
0.661561 0.000000 0
0.659306 0.000000 0
0.658925 0.000000 0
0.660273 0.000000 0
0.662599 0.000000 0
0.664724 0.000000 0
0.665416 0.000000 0
0.663718 0.000000 0
0.659099 0.000000 0
0.651455 0.000000 0
0.641018 0.000000 0
0.628243 0.000000 0
0.613714 0.000000 0
0.598089 0.000000 0
0.582063 0.000000 0
0.566347 0.000000 0
0.551662 0.000000 0
0.538731 0.000000 0
0.528308 0.000000 0
0.521216 0.000000 0
0.518368 0.000000 0
0.520509 0.000000 0
0.527892 0.000000 0
0.540226 0.000000 0
0.556575 0.000000 0
0.575337 0.000000 0
0.594356 0.000000 0
0.611186 0.000000 0
0.623562 0.000000 0
0.630021 0.000000 0
0.630281 0.000000 0
0.624777 0.000000 0
0.614266 0.000000 0
0.599761 0.000000 0
0.582403 0.000000 0
0.563364 0.000000 0
0.543770 0.000000 0
0.524672 0.000000 0
0.507040 0.000000 0
0.491792 0.000000 0
0.479795 0.000000 0
0.471827 0.000000 0
0.468452 0.000000 0
0.469719 0.000000 0
0.475098 0.000000 0
0.483962 0.000000 0
0.495726 0.000000 0
0.509861 0.000000 0
0.525838 0.000000 0
0.543007 0.000000 0
0.560454 0.000000 0
0.576908 0.000000 0
0.590781 0.000000 0
0.600446 0.000000 0
0.604720 0.000000 0
0.603243 0.000000 0
0.596185 0.000000 0
0.584018 0.000000 0
0.567560 0.000000 0
0.547981 0.000000 0
0.526780 0.000000 0
0.505708 0.000000 0
0.486605 0.000000 0
0.471140 0.000000 0
0.460511 0.000000 0
0.455212 0.000000 0
0.454896 0.000000 0
0.458409 0.000000 0
0.464579 0.000000 0
0.472552 0.000000 0
0.481789 0.000000 0
0.491980 0.000000 0
0.502928 0.000000 0
0.514420 0.000000 0
0.526101 0.000000 0
0.537375 0.000000 0
0.547363 0.000000 0
0.554944 0.000000 0
0.558886 0.000000 0
0.557412 0.000000 0
1.000000 -0.002267 0
1.005089 -0.007267 0
1.015721 -0.013119 0
1.032592 -0.019731 0
1.056528 -0.026976 0
1.088249 -0.034403 0
1.127895 -0.041041 0
1.174281 -0.045382 0
1.224297 -0.045619 0
1.271595 -0.041190 0
1.311300 -0.033481 0
1.341322 -0.024365 0
1.361466 -0.015257 0
1.372523 -0.007038 0
1.375833 -0.000243 0
1.373070 0.004810 0
1.366130 0.007942 0
1.357067 0.009089 0
1.347958 0.008347 0
1.340697 0.006017 0
1.336779 0.002632 0
1.337054 -0.000972 0
1.341302 -0.003683 0
1.347942 -0.004461 0
1.354314 -0.002825 0
1.357549 0.000998 0
1.355560 0.006308 0
1.347324 0.012253 0
1.332742 0.018069 0
1.312390 0.023200 0
1.287264 0.027291 0
1.258590 0.030138 0
1.227715 0.031634 0
1.196045 0.031724 0
1.165016 0.030382 0
1.136067 0.027596 0
1.110627 0.023333 0
1.090116 0.017495 0
1.075940 0.009921 0
1.069461 0.000690 0
1.071901 -0.009538 0
1.084063 -0.019728 0
1.105869 -0.028691 0
1.136034 -0.035116 0
1.172023 -0.037785 0
1.210183 -0.035852 0
1.246009 -0.029209 0
1.274756 -0.018840 0
1.292486 -0.006726 0
1.297271 0.005237 0
1.289658 0.016007 0
1.271342 0.025007 0
1.244526 0.031854 0
1.211636 0.036387 0
1.175117 0.038622 0
1.137295 0.038682 0
1.100307 0.036719 0
1.066086 0.032868 0
1.036336 0.027234 0
1.012468 0.019954 0
0.995467 0.011332 0
0.985772 0.002097 0
0.983313 -0.006658 0
0.987662 -0.014253 0
0.998194 -0.020636 0
1.014284 -0.025907 0
1.035360 -0.030118 0
1.060853 -0.033150 0
1.090006 -0.034619 0
1.121562 -0.033903 0
1.153518 -0.030329 0
1.183110 -0.023540 0
1.207065 -0.013942 0
1.222177 -0.002800 0
1.226188 0.008531 0
1.218816 0.019221 0
1.201071 0.028621 0
1.174659 0.036033 0
1.141907 0.040775 0
1.105649 0.042269 0
1.069015 0.040172 0
1.035107 0.034565 0
1.006557 0.026091 0
0.985084 0.015926 0
0.971255 0.005613 0
0.964621 -0.003199 0
0.964170 -0.009684 0
0.968600 -0.014144 0
0.976763 -0.017211 0
0.987886 -0.019429 0
1.001565 -0.021139 0
1.017615 -0.022440 0
1.035850 -0.023174 0
1.055829 -0.022955 0
1.076653 -0.021263 0
1.096874 -0.017570 0
1.114515 -0.011523 0
1.127207 -0.002468 0
1.131750 0.004309 0
1.000000 -0.005096 0
1.005246 -0.015733 0
1.015891 -0.027511 0
1.032673 -0.040817 0
1.056755 -0.055670 0
1.089532 -0.071384 0
1.132168 -0.086052 0
1.184434 -0.096424 0
1.244190 -0.097339 0
1.299018 -0.087031 0
1.342325 -0.069758 0
1.373237 -0.050199 0
1.392888 -0.031234 0
1.402746 -0.014401 0
1.404472 -0.000577 0
1.399842 0.009681 0
1.390840 0.015986 0
1.379711 0.018161 0
1.368796 0.016364 0
1.360290 0.011174 0
1.356026 0.003636 0
1.357322 -0.004533 0
1.364353 -0.010902 0
1.375318 -0.013023 0
1.386562 -0.009616 0
1.393953 -0.001257 0
1.394791 0.010213 0
1.388208 0.022804 0
1.374456 0.034918 0
1.354459 0.045461 0
1.329453 0.053781 0
1.300791 0.059528 0
1.269862 0.062522 0
1.238068 0.062675 0
1.206806 0.059954 0
1.177446 0.054364 0
1.151292 0.045925 0
1.129542 0.034663 0
1.113240 0.020634 0
1.103266 0.004020 0
1.100549 -0.014617 0
1.106121 -0.033979 0
1.120474 -0.051980 0
1.143248 -0.066160 0
1.173377 -0.074153 0
1.208985 -0.073990 0
1.246990 -0.064579 0
1.282889 -0.046485 0
1.311228 -0.022525 0
1.327111 0.002818 0
1.328851 0.025919 0
1.318266 0.045120 0
1.297836 0.059693 0
1.270212 0.069396 0
1.237994 0.074328 0
1.203592 0.074797 0
1.169148 0.071195 0
1.136486 0.063957 0
1.107039 0.053604 0
1.081766 0.040854 0
1.061082 0.026681 0
1.044911 0.012140 0
1.033043 -0.001904 0
1.025462 -0.014893 0
1.022212 -0.026632 0
1.023547 -0.037174 0
1.029912 -0.046575 0
1.041910 -0.054651 0
1.059954 -0.060712 0
1.083777 -0.063515 0
1.112150 -0.061550 0
1.142890 -0.053550 0
1.172996 -0.039071 0
1.198826 -0.019127 0
1.216611 0.003355 0
1.223912 0.025111 0
1.220992 0.044152 0
1.209230 0.059158 0
1.190565 0.069004 0
1.167249 0.072888 0
1.141582 0.070539 0
1.115634 0.062455 0
1.091021 0.050020 0
1.068790 0.035299 0
1.049466 0.020461 0
1.033286 0.007083 0
1.020535 -0.003982 0
1.011229 -0.012594 0
1.005215 -0.019287 0
1.002521 -0.024803 0
1.003431 -0.029730 0
1.008346 -0.034286 0
1.017566 -0.038215 0
1.031001 -0.040804 0
1.048033 -0.041045 0
1.067528 -0.037862 0
1.087957 -0.030334 0
1.107557 -0.017236 0
1.124458 -0.006515 0
1.000000 -0.007520 0
1.004264 -0.023167 0
1.013198 -0.040550 0
1.027786 -0.060603 0
1.049755 -0.083844 0
1.081656 -0.109826 0
1.126735 -0.135955 0
1.187279 -0.157417 0
1.266845 -0.160216 0
1.332460 -0.139339 0
1.377213 -0.107714 0
1.405488 -0.074942 0
1.421444 -0.044780 0
1.427276 -0.018633 0
1.424727 0.002658 0
1.415298 0.018443 0
1.401015 0.028074 0
1.384438 0.031135 0
1.368386 0.027768 0
1.355557 0.018784 0
1.348205 0.005593 0
1.348225 -0.009310 0
1.356932 -0.021685 0
1.372754 -0.026672 0
1.390847 -0.021466 0
1.404685 -0.007237 0
1.409474 0.012046 0
1.404507 0.032579 0
1.390878 0.051810 0
1.370232 0.068194 0
1.344240 0.080949 0
1.314434 0.089719 0
1.282228 0.094347 0
1.248976 0.094769 0
1.215995 0.090993 0
1.184542 0.083100 0
1.155753 0.071228 0
1.130589 0.055540 0
1.109794 0.036192 0
1.093820 0.013379 0
1.082772 -0.012394 0
1.076967 -0.039654 0
1.077417 -0.065818 0
1.085199 -0.088020 0
1.101719 -0.103524 0
1.127808 -0.109469 0
1.162480 -0.103119 0
1.202352 -0.083085 0
1.241785 -0.050954 0
1.273740 -0.012392 0
1.291966 0.024846 0
1.295606 0.056016 0
1.287219 0.079902 0
1.269561 0.096224 0
1.245314 0.105237 0
1.216931 0.107521 0
1.186546 0.103818 0
1.155919 0.094971 0
1.126398 0.081948 0
1.098897 0.065904 0
1.073891 0.048181 0
1.051434 0.030131 0
1.031180 0.012788 0
1.012681 -0.003425 0
0.995966 -0.018723 0
0.982193 -0.033607 0
0.973722 -0.048482 0
0.972886 -0.063192 0
0.981031 -0.076486 0
0.997998 -0.086100 0
1.022338 -0.089444 0
1.051805 -0.084389 0
1.083754 -0.069881 0
1.115323 -0.046419 0
1.143359 -0.016557 0
1.164289 0.014837 0
1.176077 0.043300 0
1.179156 0.066457 0
1.174635 0.082754 0
1.163948 0.091251 0
1.148578 0.091786 0
1.129877 0.085126 0
1.109017 0.072934 0
1.087027 0.057479 0
1.064830 0.041116 0
1.043168 0.025730 0
1.022521 0.012371 0
1.003414 0.001175 0
0.986548 -0.008505 0
0.972933 -0.017646 0
0.963901 -0.026965 0
0.960648 -0.036576 0
0.963720 -0.045829 0
0.972855 -0.053423 0
0.987139 -0.057790 0
1.005297 -0.057494 0
1.025974 -0.051552 0
1.048017 -0.038969 0
1.070654 -0.027860 0
1.000000 -0.009368 0
1.002844 -0.028940 0
1.008988 -0.051040 0
1.019542 -0.077383 0
1.036686 -0.109550 0
1.064303 -0.148374 0
1.108871 -0.191687 0
1.178339 -0.236546 0
1.296236 -0.242533 0
1.368012 -0.197413 0
1.402565 -0.142800 0
1.419637 -0.094442 0
1.427578 -0.053034 0
1.427585 -0.017689 0
1.419496 0.011401 0
1.403571 0.033393 0
1.381703 0.046847 0
1.356891 0.050790 0
1.332683 0.045242 0
1.312493 0.031349 0
1.298846 0.010959 0
1.293240 -0.013269 0
1.298613 -0.035434 0
1.315643 -0.046943 0
1.340754 -0.041554 0
1.365806 -0.019892 0
1.380690 0.010382 0
1.381472 0.041391 0
1.371015 0.069183 0
1.352307 0.092088 0
1.327625 0.109570 0
1.298645 0.121531 0
1.266730 0.127970 0
1.233152 0.128897 0
1.199162 0.124378 0
1.165952 0.114597 0
1.134515 0.099871 0
1.105491 0.080616 0
1.079048 0.057399 0
1.054683 0.031041 0
1.030991 0.002236 0
1.006621 -0.028624 0
0.983667 -0.060212 0
0.968634 -0.090463 0
0.967327 -0.116766 0
0.982039 -0.134757 0
1.011590 -0.139130 0
1.052499 -0.125795 0
1.099733 -0.093918 0
1.146858 -0.047368 0
1.186056 0.004047 0
1.210585 0.049861 0
1.220818 0.085733 0
1.219213 0.111294 0
1.208283 0.126952 0
1.190396 0.133560 0
1.167676 0.132201 0
1.141933 0.124098 0
1.114604 0.110620 0
1.086651 0.093355 0
1.058411 0.074139 0
1.029559 0.054848 0
0.999538 0.036846 0
0.968559 0.020319 0
0.938521 0.003854 0
0.912848 -0.014931 0
0.895453 -0.037268 0
0.889208 -0.061961 0
0.894435 -0.085826 0
0.909616 -0.104823 0
0.932522 -0.115359 0
0.960852 -0.114969 0
0.992418 -0.102592 0
1.025148 -0.078735 0
1.056968 -0.045614 0
1.085415 -0.007611 0
1.107247 0.029283 0
1.121256 0.060598 0
1.127660 0.084210 0
1.127091 0.098944 0
1.120349 0.104609 0
1.108255 0.102014 0
1.091611 0.092868 0
1.071196 0.079484 0
1.047778 0.064318 0
1.022192 0.049391 0
0.995530 0.035772 0
0.969368 0.023377 0
0.945773 0.011193 0
0.926876 -0.002157 0
0.914340 -0.017446 0
0.909103 -0.034106 0
0.911128 -0.050423 0
0.919553 -0.064223 0
0.933117 -0.073487 0
0.950495 -0.076697 0
0.970488 -0.073054 0
0.992134 -0.061915 0
1.014712 -0.051324 0
1.000000 -0.010373 0
1.000892 -0.032167 0
1.002978 -0.057257 0
1.007096 -0.088311 0
1.015219 -0.128616 0
1.031732 -0.182022 0
1.066167 -0.250002 0
1.136174 -0.344794 0
1.312971 -0.349901 0
1.358044 -0.245681 0
1.352393 -0.159352 0
1.343648 -0.099967 0
1.339432 -0.052736 0
1.335216 -0.010552 0
1.322864 0.026672 0
1.300828 0.056235 0
1.270596 0.074754 0
1.235428 0.080152 0
1.199598 0.072160 0
1.167395 0.052612 0
1.141702 0.024837 0
1.123086 -0.009081 0
1.112471 -0.044091 0
1.117549 -0.068820 0
1.142438 -0.071637 0
1.181986 -0.047181 0
1.222395 -0.003629 0
1.247664 0.042244 0
1.255521 0.080965 0
1.251784 0.111574 0
1.239695 0.134601 0
1.221022 0.150604 0
1.197063 0.159830 0
1.169099 0.162327 0
1.138501 0.158183 0
1.106530 0.147739 0
1.073725 0.131684 0
1.039050 0.111002 0
0.999884 0.086997 0
0.954231 0.061435 0
0.904114 0.035668 0
0.856149 0.007670 0
0.818430 -0.027832 0
0.798002 -0.071682 0
0.796950 -0.116935 0
0.813161 -0.153739 0
0.843483 -0.173584 0
0.884841 -0.171232 0
0.934040 -0.145318 0
0.987289 -0.098720 0
1.039578 -0.038887 0
1.083267 0.021248 0
1.112826 0.071269 0
1.129220 0.108753 0
1.134194 0.134048 0
1.129610 0.148122 0
1.117264 0.152275 0
1.098711 0.148037 0
1.075060 0.137225 0
1.046763 0.122092 0
1.013651 0.105269 0
0.975620 0.089000 0
0.933965 0.073784 0
0.892385 0.057590 0
0.856379 0.036987 0
0.830870 0.009460 0
0.818018 -0.024843 0
0.817209 -0.062176 0
0.826159 -0.096895 0
0.842453 -0.124189 0
0.864225 -0.140683 0
0.890085 -0.144287 0
0.918822 -0.134181 0
0.949196 -0.110972 0
0.979876 -0.076827 0
1.009375 -0.035445 0
1.035460 0.007456 0
1.055485 0.046042 0
1.068730 0.076918 0
1.075058 0.098560 0
1.074613 0.110620 0
1.067654 0.113861 0
1.054498 0.109991 0
1.035548 0.101310 0
1.011470 0.090118 0
0.983494 0.077977 0
0.953692 0.065194 0
0.924922 0.050931 0
0.900286 0.033986 0
0.882253 0.013787 0
0.871895 -0.009193 0
0.868978 -0.033366 0
0.872518 -0.056280 0
0.881266 -0.075412 0
0.894044 -0.088732 0
0.909843 -0.094865 0
0.927805 -0.093191 0
0.947174 -0.083193 0
0.967138 -0.073028 0
1.000000 -0.010269 0
0.998544 -0.031933 0
0.995556 -0.057254 0
0.991002 -0.089634 0
0.985352 -0.134197 0
0.980801 -0.199332 0
0.984898 -0.296140 0
1.020063 -0.483363 0
1.216491 -0.464416 0
1.166501 -0.236848 0
1.079426 -0.128415 0
1.035140 -0.081490 0
1.020048 -0.044605 0
1.022114 -0.001122 0
1.014346 0.045788 0
0.993064 0.085660 0
0.957753 0.112244 0
0.909516 0.121783 0
0.851112 0.113267 0
0.788213 0.089235 0
0.731315 0.055262 0
0.693684 0.015959 0
0.682336 -0.029903 0
0.699729 -0.076918 0
0.743262 -0.105999 0
0.807919 -0.099857 0
0.885114 -0.055305 0
0.959131 0.008256 0
1.012927 0.065052 0
1.044953 0.107904 0
1.061728 0.140322 0
1.066092 0.164153 0
1.059709 0.179883 0
1.043939 0.187450 0
1.019749 0.186939 0
0.987257 0.179366 0
0.945433 0.167345 0
0.892980 0.154454 0
0.830798 0.142216 0
0.764637 0.126809 0
0.705226 0.100318 0
0.664159 0.057059 0
0.646906 -0.002068 0
0.649403 -0.068988 0
0.664530 -0.131931 0
0.687811 -0.181296 0
0.717907 -0.210814 0
0.754972 -0.216358 0
0.798925 -0.196372 0
0.848467 -0.152912 0
0.900915 -0.091936 0
0.952000 -0.023393 0
0.994180 0.039773 0
1.024068 0.089921 0
1.042153 0.126556 0
1.049323 0.150483 0
1.046580 0.163094 0
1.034739 0.166297 0
1.014182 0.162562 0
0.984931 0.154758 0
0.947388 0.145278 0
0.903713 0.134531 0
0.858748 0.120078 0
0.819100 0.097904 0
0.790497 0.065368 0
0.775471 0.023430 0
0.772849 -0.023607 0
0.778937 -0.070104 0
0.790454 -0.111072 0
0.805540 -0.142891 0
0.823467 -0.162994 0
0.844075 -0.169570 0
0.867241 -0.161706 0
0.892530 -0.139792 0
0.919104 -0.105796 0
0.945824 -0.063197 0
0.971303 -0.016830 0
0.993110 0.027326 0
1.009464 0.064635 0
1.019566 0.093059 0
1.022970 0.112011 0
1.019430 0.122126 0
1.008898 0.124971 0
0.991692 0.122510 0
0.968803 0.116371 0
0.942172 0.107167 0
0.914639 0.094342 0
0.889398 0.076781 0
0.869173 0.053860 0
0.855552 0.026233 0
0.848848 -0.004173 0
0.848249 -0.034729 0
0.852474 -0.062711 0
0.860361 -0.085751 0
0.871041 -0.102064 0
0.883901 -0.110457 0
0.898452 -0.110386 0
0.914193 -0.101248 0
0.930380 -0.091384 0
1.000000 -0.008928 0
0.996218 -0.027738 0
0.988064 -0.049725 0
0.974204 -0.078118 0
0.952349 -0.118426 0
0.918878 -0.181579 0
0.868293 -0.289276 0
0.797153 -0.576399 0
0.559547 -0.397480 0
0.500402 0.000000 0
0.431320 -0.018245 0
0.372955 -0.040595 0
0.390680 -0.039711 0
0.439667 -0.004851 0
0.475950 0.055720 0
0.475538 0.112827 0
0.448513 0.158299 0
0.399134 0.186786 0
0.335083 0.193454 0
0.269970 0.172401 0
0.223659 0.119363 0
0.214871 0.039892 0
0.243360 -0.050143 0
0.294606 -0.129753 0
0.359982 -0.179836 0
0.437404 -0.189043 0
0.527118 -0.154850 0
0.626047 -0.085579 0
0.719107 -0.004867 0
0.790057 0.062763 0
0.837289 0.113452 0
0.865563 0.152613 0
0.876831 0.181973 0
0.872005 0.202278 0
0.851197 0.214858 0
0.814135 0.222050 0
0.761733 0.225956 0
0.698838 0.225634 0
0.635897 0.215338 0
0.586241 0.187007 0
0.559482 0.136145 0
0.556744 0.065987 0
0.571706 -0.013080 0
0.593502 -0.089311 0
0.615164 -0.155350 0
0.635380 -0.207121 0
0.656057 -0.240749 0
0.680436 -0.252256 0
0.711357 -0.238820 0
0.749780 -0.200716 0
0.794311 -0.142426 0
0.841788 -0.072023 0
0.887217 -0.000805 0
0.923768 0.060773 0
0.949581 0.108787 0
0.964357 0.143688 0
0.968125 0.166853 0
0.960923 0.180430 0
0.942850 0.187028 0
0.914656 0.188882 0
0.878808 0.186482 0
0.840164 0.177637 0
0.805137 0.158396 0
0.779301 0.125840 0
0.765164 0.080615 0
0.761849 0.027107 0
0.766462 -0.028310 0
0.775419 -0.079782 0
0.786143 -0.123501 0
0.797450 -0.157205 0
0.809302 -0.179220 0
0.822392 -0.188065 0
0.837595 -0.182640 0
0.855402 -0.162838 0
0.875593 -0.130124 0
0.897287 -0.087647 0
0.919200 -0.039832 0
0.939602 0.007879 0
0.956148 0.050459 0
0.967494 0.085052 0
0.972756 0.110754 0
0.971389 0.127930 0
0.963265 0.137726 0
0.948918 0.141403 0
0.929787 0.139636 0
0.908225 0.132139 0
0.887077 0.117967 0
0.868949 0.096396 0
0.855549 0.067830 0
0.847462 0.034110 0
0.844382 -0.001891 0
0.845446 -0.036992 0
0.849547 -0.068392 0
0.855773 -0.093980 0
0.863534 -0.112273 0
0.872541 -0.122276 0
0.882668 -0.123483 0
0.893769 -0.115121 0
0.905416 -0.105585 0
1.000000 -0.006500 0
0.994501 -0.020015 0
0.982518 -0.035251 0
0.961668 -0.053931 0
0.927307 -0.078882 0
0.870399 -0.115287 0
0.771473 -0.174426 0
0.588185 -0.273499 0
0.000000 -0.167674 0
0.000000 0.000000 0
0.000000 0.000000 0
-0.027029 -0.049636 0
-0.047509 -0.111319 0
-0.024203 -0.086394 0
0.002097 0.009915 0
0.016768 0.113094 0
0.010348 0.188643 0
-0.012738 0.235206 0
-0.039880 0.242423 0
-0.053152 0.200654 0
-0.029760 0.110357 0
0.022564 -0.003748 0
0.080504 -0.109645 0
0.134717 -0.193548 0
0.186557 -0.248806 0
0.242074 -0.267002 0
0.307692 -0.243957 0
0.386143 -0.183743 0
0.474308 -0.098968 0
0.557725 -0.010287 0
0.621251 0.064807 0
0.663088 0.124601 0
0.684882 0.173432 0
0.687181 0.213076 0
0.670682 0.244802 0
0.637994 0.268824 0
0.595590 0.282639 0
0.554254 0.280288 0
0.526077 0.254812 0
0.518936 0.203223 0
0.532752 0.129813 0
0.560702 0.044833 0
0.592191 -0.038830 0
0.618864 -0.112453 0
0.637896 -0.173815 0
0.649428 -0.222193 0
0.656048 -0.255876 0
0.662332 -0.271663 0
0.673569 -0.265722 0
0.693694 -0.235873 0
0.723534 -0.183950 0
0.760692 -0.116305 0
0.800834 -0.042214 0
0.837547 0.027550 0
0.865754 0.085960 0
0.883851 0.131932 0
0.891096 0.166522 0
0.887251 0.191567 0
0.872918 0.208825 0
0.850243 0.218796 0
0.823406 0.219767 0
0.798044 0.208199 0
0.779375 0.180939 0
0.770156 0.137876 0
0.770066 0.082819 0
0.776721 0.022130 0
0.786951 -0.037179 0
0.797771 -0.089788 0
0.807275 -0.133107 0
0.814608 -0.166053 0
0.819974 -0.187939 0
0.824546 -0.197866 0
0.830065 -0.194720 0
0.838143 -0.177794 0
0.849576 -0.147684 0
0.864065 -0.106806 0
0.880440 -0.059147 0
0.897065 -0.009625 0
0.911706 0.036740 0
0.922570 0.076449 0
0.928512 0.108113 0
0.928896 0.131615 0
0.923706 0.147440 0
0.913721 0.155985 0
0.900572 0.157061 0
0.886472 0.149875 0
0.873652 0.133616 0
0.863755 0.108308 0
0.857519 0.075346 0
0.854877 0.037398 0
0.855279 -0.002158 0
0.857916 -0.039895 0
0.861877 -0.073039 0
0.866427 -0.099739 0
0.871138 -0.118833 0
0.875931 -0.129591 0
0.881010 -0.131613 0
0.886669 -0.123996 0
0.893047 -0.114921 0
1.000000 -0.003443 0
0.993854 -0.010276 0
0.980528 -0.016903 0
0.957544 -0.022919 0
0.920192 -0.027168 0
0.859603 -0.025756 0
0.759048 -0.007073 0
0.584856 0.091774 0
0.270079 0.087411 0
0.000000 0.000000 0
0.000000 0.000000 0
0.000000 0.000000 0
-0.047767 -0.040670 0
-0.121438 -0.054460 0
-0.156272 0.014747 0
-0.153505 0.104571 0
-0.142250 0.187799 0
-0.129056 0.237007 0
-0.102763 0.233860 0
-0.048475 0.162276 0
0.029747 0.043640 0
0.100086 -0.070380 0
0.151252 -0.162304 0
0.185067 -0.235814 0
0.205451 -0.287203 0
0.220632 -0.310188 0
0.241354 -0.298929 0
0.276235 -0.252204 0
0.327384 -0.176459 0
0.389755 -0.084190 0
0.450068 0.008080 0
0.495834 0.088972 0
0.524625 0.157872 0
0.536499 0.216472 0
0.533476 0.264039 0
0.520924 0.297137 0
0.507647 0.309694 0
0.503623 0.295145 0
0.515890 0.250655 0
0.545364 0.180330 0
0.587160 0.094376 0
0.632807 0.006544 0
0.671591 -0.071247 0
0.699478 -0.135022 0
0.715294 -0.185918 0
0.719159 -0.225279 0
0.712914 -0.253659 0
0.700725 -0.269783 0
0.688948 -0.270188 0
0.684446 -0.250686 0
0.691758 -0.209431 0
0.711107 -0.149331 0
0.738806 -0.077667 0
0.769161 -0.004153 0
0.795316 0.062477 0
0.813840 0.118340 0
0.823339 0.163447 0
0.823678 0.198601 0
0.816181 0.224032 0
0.803899 0.238392 0
0.791255 0.238678 0
0.782725 0.221666 0
0.781140 0.186282 0
0.786817 0.135148 0
0.798104 0.074049 0
0.812527 0.010220 0
0.827114 -0.049362 0
0.839549 -0.100109 0
0.848325 -0.140341 0
0.852611 -0.169907 0
0.852448 -0.189162 0
0.848966 -0.198159 0
0.844332 -0.196240 0
0.841166 -0.182352 0
0.841599 -0.156049 0
0.846476 -0.118514 0
0.855219 -0.072835 0
0.866280 -0.023389 0
0.877585 0.024951 0
0.887061 0.068243 0
0.893370 0.104425 0
0.895843 0.132734 0
0.894542 0.152899 0