# vtk DataFile Version 2.0
generated by CFD-lab course output (written by Tobias Neckel) 
ASCII

DATASET STRUCTURED_GRID
DIMENSIONS  99 19 1 
POINTS 1881 float

0.000000 0.000000 0
0.100000 0.000000 0
0.200000 0.000000 0
0.300000 0.000000 0
0.400000 0.000000 0
0.500000 0.000000 0
0.600000 0.000000 0
0.700000 0.000000 0
0.800000 0.000000 0
0.900000 0.000000 0
1.000000 0.000000 0
1.100000 0.000000 0
1.200000 0.000000 0
1.300000 0.000000 0
1.400000 0.000000 0
1.500000 0.000000 0
1.600000 0.000000 0
1.700000 0.000000 0
1.800000 0.000000 0
1.900000 0.000000 0
2.000000 0.000000 0
2.100000 0.000000 0
2.200000 0.000000 0
2.300000 0.000000 0
2.400000 0.000000 0
2.500000 0.000000 0
2.600000 0.000000 0
2.700000 0.000000 0
2.800000 0.000000 0
2.900000 0.000000 0
3.000000 0.000000 0
3.100000 0.000000 0
3.200000 0.000000 0
3.300000 0.000000 0
3.400000 0.000000 0
3.500000 0.000000 0
3.600000 0.000000 0
3.700000 0.000000 0
3.800000 0.000000 0
3.900000 0.000000 0
4.000000 0.000000 0
4.100000 0.000000 0
4.200000 0.000000 0
4.300000 0.000000 0
4.400000 0.000000 0
4.500000 0.000000 0
4.600000 0.000000 0
4.700000 0.000000 0
4.800000 0.000000 0
4.900000 0.000000 0
5.000000 0.000000 0
5.100000 0.000000 0
5.200000 0.000000 0
5.300000 0.000000 0
5.400000 0.000000 0
5.500000 0.000000 0
5.600000 0.000000 0
5.700000 0.000000 0
5.800000 0.000000 0
5.900000 0.000000 0
6.000000 0.000000 0
6.100000 0.000000 0
6.200000 0.000000 0
6.300000 0.000000 0
6.400000 0.000000 0
6.500000 0.000000 0
6.600000 0.000000 0
6.700000 0.000000 0
6.800000 0.000000 0
6.900000 0.000000 0
7.000000 0.000000 0
7.100000 0.000000 0
7.200000 0.000000 0
7.300000 0.000000 0
7.400000 0.000000 0
7.500000 0.000000 0
7.600000 0.000000 0
7.700000 0.000000 0
7.800000 0.000000 0
7.900000 0.000000 0
8.000000 0.000000 0
8.100000 0.000000 0
8.200000 0.000000 0
8.300000 0.000000 0
8.400000 0.000000 0
8.500000 0.000000 0
8.600000 0.000000 0
8.700000 0.000000 0
8.800000 0.000000 0
8.900000 0.000000 0
9.000000 0.000000 0
9.100000 0.000000 0
9.200000 0.000000 0
9.300000 0.000000 0
9.400000 0.000000 0
9.500000 0.000000 0
9.600000 0.000000 0
9.700000 0.000000 0
9.800000 0.000000 0
0.000000 0.100000 0
0.100000 0.100000 0
0.200000 0.100000 0
0.300000 0.100000 0
0.400000 0.100000 0
0.500000 0.100000 0
0.600000 0.100000 0
0.700000 0.100000 0
0.800000 0.100000 0
0.900000 0.100000 0
1.000000 0.100000 0
1.100000 0.100000 0
1.200000 0.100000 0
1.300000 0.100000 0
1.400000 0.100000 0
1.500000 0.100000 0
1.600000 0.100000 0
1.700000 0.100000 0
1.800000 0.100000 0
1.900000 0.100000 0
2.000000 0.100000 0
2.100000 0.100000 0
2.200000 0.100000 0
2.300000 0.100000 0
2.400000 0.100000 0
2.500000 0.100000 0
2.600000 0.100000 0
2.700000 0.100000 0
2.800000 0.100000 0
2.900000 0.100000 0
3.000000 0.100000 0
3.100000 0.100000 0
3.200000 0.100000 0
3.300000 0.100000 0
3.400000 0.100000 0
3.500000 0.100000 0
3.600000 0.100000 0
3.700000 0.100000 0
3.800000 0.100000 0
3.900000 0.100000 0
4.000000 0.100000 0
4.100000 0.100000 0
4.200000 0.100000 0
4.300000 0.100000 0
4.400000 0.100000 0
4.500000 0.100000 0
4.600000 0.100000 0
4.700000 0.100000 0
4.800000 0.100000 0
4.900000 0.100000 0
5.000000 0.100000 0
5.100000 0.100000 0
5.200000 0.100000 0
5.300000 0.100000 0
5.400000 0.100000 0
5.500000 0.100000 0
5.600000 0.100000 0
5.700000 0.100000 0
5.800000 0.100000 0
5.900000 0.100000 0
6.000000 0.100000 0
6.100000 0.100000 0
6.200000 0.100000 0
6.300000 0.100000 0
6.400000 0.100000 0
6.500000 0.100000 0
6.600000 0.100000 0
6.700000 0.100000 0
6.800000 0.100000 0
6.900000 0.100000 0
7.000000 0.100000 0
7.100000 0.100000 0
7.200000 0.100000 0
7.300000 0.100000 0
7.400000 0.100000 0
7.500000 0.100000 0
7.600000 0.100000 0
7.700000 0.100000 0
7.800000 0.100000 0
7.900000 0.100000 0
8.000000 0.100000 0
8.100000 0.100000 0
8.200000 0.100000 0
8.300000 0.100000 0
8.400000 0.100000 0
8.500000 0.100000 0
8.600000 0.100000 0
8.700000 0.100000 0
8.800000 0.100000 0
8.900000 0.100000 0
9.000000 0.100000 0
9.100000 0.100000 0
9.200000 0.100000 0
9.300000 0.100000 0
9.400000 0.100000 0
9.500000 0.100000 0
9.600000 0.100000 0
9.700000 0.100000 0
9.800000 0.100000 0
0.000000 0.200000 0
0.100000 0.200000 0
0.200000 0.200000 0
0.300000 0.200000 0
0.400000 0.200000 0
0.500000 0.200000 0
0.600000 0.200000 0
0.700000 0.200000 0
0.800000 0.200000 0
0.900000 0.200000 0
1.000000 0.200000 0
1.100000 0.200000 0
1.200000 0.200000 0
1.300000 0.200000 0
1.400000 0.200000 0
1.500000 0.200000 0
1.600000 0.200000 0
1.700000 0.200000 0
1.800000 0.200000 0
1.900000 0.200000 0
2.000000 0.200000 0
2.100000 0.200000 0
2.200000 0.200000 0
2.300000 0.200000 0
2.400000 0.200000 0
2.500000 0.200000 0
2.600000 0.200000 0
2.700000 0.200000 0
2.800000 0.200000 0
2.900000 0.200000 0
3.000000 0.200000 0
3.100000 0.200000 0
3.200000 0.200000 0
3.300000 0.200000 0
3.400000 0.200000 0
3.500000 0.200000 0
3.600000 0.200000 0
3.700000 0.200000 0
3.800000 0.200000 0
3.900000 0.200000 0
4.000000 0.200000 0
4.100000 0.200000 0
4.200000 0.200000 0
4.300000 0.200000 0
4.400000 0.200000 0
4.500000 0.200000 0
4.600000 0.200000 0
4.700000 0.200000 0
4.800000 0.200000 0
4.900000 0.200000 0
5.000000 0.200000 0
5.100000 0.200000 0
5.200000 0.200000 0
5.300000 0.200000 0
5.400000 0.200000 0
5.500000 0.200000 0
5.600000 0.200000 0
5.700000 0.200000 0
5.800000 0.200000 0
5.900000 0.200000 0
6.000000 0.200000 0
6.100000 0.200000 0
6.200000 0.200000 0
6.300000 0.200000 0
6.400000 0.200000 0
6.500000 0.200000 0
6.600000 0.200000 0
6.700000 0.200000 0
6.800000 0.200000 0
6.900000 0.200000 0
7.000000 0.200000 0
7.100000 0.200000 0
7.200000 0.200000 0
7.300000 0.200000 0
7.400000 0.200000 0
7.500000 0.200000 0
7.600000 0.200000 0
7.700000 0.200000 0
7.800000 0.200000 0
7.900000 0.200000 0
8.000000 0.200000 0
8.100000 0.200000 0
8.200000 0.200000 0
8.300000 0.200000 0
8.400000 0.200000 0
8.500000 0.200000 0
8.600000 0.200000 0
8.700000 0.200000 0
8.800000 0.200000 0
8.900000 0.200000 0
9.000000 0.200000 0
9.100000 0.200000 0
9.200000 0.200000 0
9.300000 0.200000 0
9.400000 0.200000 0
9.500000 0.200000 0
9.600000 0.200000 0
9.700000 0.200000 0
9.800000 0.200000 0
0.000000 0.300000 0
0.100000 0.300000 0
0.200000 0.300000 0
0.300000 0.300000 0
0.400000 0.300000 0
0.500000 0.300000 0
0.600000 0.300000 0
0.700000 0.300000 0
0.800000 0.300000 0
0.900000 0.300000 0
1.000000 0.300000 0
1.100000 0.300000 0
1.200000 0.300000 0
1.300000 0.300000 0
1.400000 0.300000 0
1.500000 0.300000 0
1.600000 0.300000 0
1.700000 0.300000 0
1.800000 0.300000 0
1.900000 0.300000 0
2.000000 0.300000 0
2.100000 0.300000 0
2.200000 0.300000 0
2.300000 0.300000 0
2.400000 0.300000 0
2.500000 0.300000 0
2.600000 0.300000 0
2.700000 0.300000 0
2.800000 0.300000 0
2.900000 0.300000 0
3.000000 0.300000 0
3.100000 0.300000 0
3.200000 0.300000 0
3.300000 0.300000 0
3.400000 0.300000 0
3.500000 0.300000 0
3.600000 0.300000 0
3.700000 0.300000 0
3.800000 0.300000 0
3.900000 0.300000 0
4.000000 0.300000 0
4.100000 0.300000 0
4.200000 0.300000 0
4.300000 0.300000 0
4.400000 0.300000 0
4.500000 0.300000 0
4.600000 0.300000 0
4.700000 0.300000 0
4.800000 0.300000 0
4.900000 0.300000 0
5.000000 0.300000 0
5.100000 0.300000 0
5.200000 0.300000 0
5.300000 0.300000 0
5.400000 0.300000 0
5.500000 0.300000 0
5.600000 0.300000 0
5.700000 0.300000 0
5.800000 0.300000 0
5.900000 0.300000 0
6.000000 0.300000 0
6.100000 0.300000 0
6.200000 0.300000 0
6.300000 0.300000 0
6.400000 0.300000 0
6.500000 0.300000 0
6.600000 0.300000 0
6.700000 0.300000 0
6.800000 0.300000 0
6.900000 0.300000 0
7.000000 0.300000 0
7.100000 0.300000 0
7.200000 0.300000 0
7.300000 0.300000 0
7.400000 0.300000 0
7.500000 0.300000 0
7.600000 0.300000 0
7.700000 0.300000 0
7.800000 0.300000 0
7.900000 0.300000 0
8.000000 0.300000 0
8.100000 0.300000 0
8.200000 0.300000 0
8.300000 0.300000 0
8.400000 0.300000 0
8.500000 0.300000 0
8.600000 0.300000 0
8.700000 0.300000 0
8.800000 0.300000 0
8.900000 0.300000 0
9.000000 0.300000 0
9.100000 0.300000 0
9.200000 0.300000 0
9.300000 0.300000 0
9.400000 0.300000 0
9.500000 0.300000 0
9.600000 0.300000 0
9.700000 0.300000 0
9.800000 0.300000 0
0.000000 0.400000 0
0.100000 0.400000 0
0.200000 0.400000 0
0.300000 0.400000 0
0.400000 0.400000 0
0.500000 0.400000 0
0.600000 0.400000 0
0.700000 0.400000 0
0.800000 0.400000 0
0.900000 0.400000 0
1.000000 0.400000 0
1.100000 0.400000 0
1.200000 0.400000 0
1.300000 0.400000 0
1.400000 0.400000 0
1.500000 0.400000 0
1.600000 0.400000 0
1.700000 0.400000 0
1.800000 0.400000 0
1.900000 0.400000 0
2.000000 0.400000 0
2.100000 0.400000 0
2.200000 0.400000 0
2.300000 0.400000 0
2.400000 0.400000 0
2.500000 0.400000 0
2.600000 0.400000 0
2.700000 0.400000 0
2.800000 0.400000 0
2.900000 0.400000 0
3.000000 0.400000 0
3.100000 0.400000 0
3.200000 0.400000 0
3.300000 0.400000 0
3.400000 0.400000 0
3.500000 0.400000 0
3.600000 0.400000 0
3.700000 0.400000 0
3.800000 0.400000 0
3.900000 0.400000 0
4.000000 0.400000 0
4.100000 0.400000 0
4.200000 0.400000 0
4.300000 0.400000 0
4.400000 0.400000 0
4.500000 0.400000 0
4.600000 0.400000 0
4.700000 0.400000 0
4.800000 0.400000 0
4.900000 0.400000 0
5.000000 0.400000 0
5.100000 0.400000 0
5.200000 0.400000 0
5.300000 0.400000 0
5.400000 0.400000 0
5.500000 0.400000 0
5.600000 0.400000 0
5.700000 0.400000 0
5.800000 0.400000 0
5.900000 0.400000 0
6.000000 0.400000 0
6.100000 0.400000 0
6.200000 0.400000 0
6.300000 0.400000 0
6.400000 0.400000 0
6.500000 0.400000 0
6.600000 0.400000 0
6.700000 0.400000 0
6.800000 0.400000 0
6.900000 0.400000 0
7.000000 0.400000 0
7.100000 0.400000 0
7.200000 0.400000 0
7.300000 0.400000 0
7.400000 0.400000 0
7.500000 0.400000 0
7.600000 0.400000 0
7.700000 0.400000 0
7.800000 0.400000 0
7.900000 0.400000 0
8.000000 0.400000 0
8.100000 0.400000 0
8.200000 0.400000 0
8.300000 0.400000 0
8.400000 0.400000 0
8.500000 0.400000 0
8.600000 0.400000 0
8.700000 0.400000 0
8.800000 0.400000 0
8.900000 0.400000 0
9.000000 0.400000 0
9.100000 0.400000 0
9.200000 0.400000 0
9.300000 0.400000 0
9.400000 0.400000 0
[...]
POINT_DATA 1881 

VECTORS velocity float
0.500000 0.000000 0
0.502264 0.000000 0
0.507268 0.000000 0
0.515398 0.000000 0
0.527033 0.000000 0
0.542429 0.000000 0
0.561514 0.000000 0
0.583575 0.000000 0
0.607029 0.000000 0
0.629348 0.000000 0
0.648382 0.000000 0
0.662979 0.000000 0
0.672851 0.000000 0
0.678251 0.000000 0
0.679762 0.000000 0
0.678176 0.000000 0
0.674403 0.000000 0
0.669433 0.000000 0
0.664270 0.000000 0
0.659846 0.000000 0
0.656917 0.000000 0
0.655948 0.000000 0
0.656959 0.000000 0
0.659354 0.000000 0
0.662016 0.000000 0
0.663642 0.000000 0
0.663134 0.000000 0
0.659791 0.000000 0
0.653368 0.000000 0
0.643995 0.000000 0
0.632066 0.000000 0
0.618133 0.000000 0
0.602838 0.000000 0
0.586866 0.000000 0
0.570925 0.000000 0
0.555731 0.000000 0
0.542007 0.000000 0
0.530494 0.000000 0
0.521983 0.000000 0
0.517364 0.000000 0
0.517506 0.000000 0
0.522853 0.000000 0
0.533333 0.000000 0
0.548283 0.000000 0
0.566377 0.000000 0
0.585688 0.000000 0
0.603862 0.000000 0
0.618494 0.000000 0
0.627694 0.000000 0
0.630659 0.000000 0
0.627599 0.000000 0
0.619140 0.000000 0
0.606195 0.000000 0
0.589867 0.000000 0
0.571334 0.000000 0
0.551760 0.000000 0
0.532243 0.000000 0
0.513802 0.000000 0
0.497385 0.000000 0
0.483890 0.000000 0
0.474145 0.000000 0
0.468818 0.000000 0
0.468207 0.000000 0
0.471944 0.000000 0
0.479395 0.000000 0
0.489948 0.000000 0
0.503054 0.000000 0
0.518207 0.000000 0
0.534841 0.000000 0
0.552193 0.000000 0
0.569173 0.000000 0
0.584333 0.000000 0
0.596027 0.000000 0
0.602811 0.000000 0
0.603940 0.000000 0
0.599402 0.000000 0
0.589514 0.000000 0
0.574923 0.000000 0
0.556637 0.000000 0
0.536006 0.000000 0
0.514686 0.000000 0
0.494513 0.000000 0
0.477278 0.000000 0
0.464433 0.000000 0
0.456805 0.000000 0
0.454424 0.000000 0
0.456424 0.000000 0
0.461550 0.000000 0
0.468798 0.000000 0
0.477499 0.000000 0
0.487253 0.000000 0
0.497832 0.000000 0
0.509044 0.000000 0
0.520612 0.000000 0
0.532056 0.000000 0
0.542614 0.000000 0
0.551238 0.000000 0
0.556663 0.000000 0
0.556957 0.000000 0
1.000000 -0.002270 0
1.005091 -0.007276 0
1.015736 -0.013141 0
1.032633 -0.019771 0
1.056620 -0.027037 0
1.088415 -0.034490 0
1.128165 -0.041158 0
1.174687 -0.045529 0
1.224870 -0.045791 0
1.272359 -0.041374 0
1.312260 -0.033653 0
1.342459 -0.024494 0
1.362725 -0.015299 0
1.373792 -0.006939 0
1.376944 0.000046 0
1.373798 0.005330 0
1.366211 0.008718 0
1.356222 0.010115 0
1.345927 0.009575 0
1.337289 0.007347 0
1.331926 0.003895 0
1.330891 -0.000043 0
1.334310 -0.003407 0
1.340989 -0.005063 0
1.348467 -0.004298 0
1.353741 -0.001126 0
1.354305 0.003845 0
1.348754 0.009757 0
1.336698 0.015786 0
1.318519 0.021291 0
1.295106 0.025849 0
1.267632 0.029213 0
1.237418 0.031251 0
1.205856 0.031896 0
1.174372 0.031117 0
1.144405 0.028898 0
1.117388 0.025217 0
1.094748 0.020004 0
1.077898 0.013109 0
1.068221 0.004456 0
1.067000 -0.005506 0
1.075238 -0.015842 0
1.093249 -0.025442 0
1.120261 -0.033052 0
1.154272 -0.037410 0
1.192122 -0.037488 0
1.229672 -0.032808 0
1.262211 -0.023834 0
1.285301 -0.012169 0
1.295973 0.000089 0
1.293714 0.011512 0
1.279883 0.021396 0
1.256488 0.029264 0
1.225891 0.034852 0
1.190566 0.038097 0
1.152924 0.039080 0
1.115217 0.037947 0
1.079491 0.034848 0
1.047576 0.029900 0
1.021031 0.023228 0
1.001037 0.015061 0
0.988256 0.005927 0
0.982785 -0.003138 0
0.984316 -0.011200 0
0.992245 -0.018014 0
1.005925 -0.023668 0
1.024760 -0.028267 0
1.048210 -0.031793 0
1.075656 -0.033991 0
1.106126 -0.034335 0
1.137993 -0.032142 0
1.168847 -0.026855 0
1.195621 -0.018479 0
1.215014 -0.007915 0
1.224217 0.003406 0
1.221971 0.014423 0
1.208854 0.024475 0
1.186241 0.032872 0
1.156175 0.038912 0
1.121271 0.041946 0
1.084557 0.041489 0
1.049199 0.037405 0
1.018105 0.030077 0
0.993448 0.020472 0
0.976312 0.010008 0
0.966650 0.000379 0
0.963649 -0.007128 0
0.966091 -0.012376 0
0.972707 -0.015950 0
0.982551 -0.018457 0
0.995068 -0.020334 0
1.009997 -0.021791 0
1.027184 -0.022781 0
1.046329 -0.023013 0
1.066753 -0.022002 0
1.087256 -0.019183 0
1.106071 -0.014050 0
1.120961 -0.005720 0
1.128702 0.000737 0
1.000000 -0.005099 0
1.005249 -0.015748 0
1.015903 -0.027552 0
1.032712 -0.040892 0
1.056842 -0.055791 0
1.089691 -0.071559 0
1.132430 -0.086289 0
1.184833 -0.096726 0
1.244770 -0.097697 0
1.299806 -0.087417 0
1.343335 -0.070130 0
1.374471 -0.050496 0
1.394316 -0.031367 0
1.404271 -0.014255 0
1.405922 -0.000041 0
1.400971 0.010701 0
1.391352 0.017552 0
1.379274 0.020268 0
1.367086 0.018924 0
1.357038 0.013996 0
1.351053 0.006396 0
1.350594 -0.002387 0
1.356266 -0.010105 0
1.366902 -0.014170 0
1.379310 -0.012765 0
1.389207 -0.005847 0
1.393116 0.004977 0
1.389608 0.017595 0
1.378626 0.030222 0
1.360932 0.041577 0
1.337706 0.050869 0
1.310288 0.057668 0
1.280066 0.061755 0
1.248436 0.063023 0
1.216794 0.061428 0
1.186518 0.056959 0
1.158936 0.049631 0
1.135292 0.039465 0
1.116691 0.026502 0
1.104057 0.010876 0
1.098220 -0.007036 0
1.100217 -0.026264 0
1.110798 -0.045035 0
1.129959 -0.061031 0
1.156954 -0.071865 0
1.190356 -0.075402 0
1.227723 -0.070092 0
1.265223 -0.055634 0
1.297743 -0.033770 0
1.319857 -0.008422 0
1.328044 0.016080 0
1.322908 0.037215 0
1.306726 0.053979 0
1.282107 0.065909 0
1.251703 0.072954 0
1.218036 0.075336 0
1.183396 0.073419 0
1.149772 0.067626 0
1.118794 0.058446 0
1.091643 0.046524 0
1.068968 0.032760 0
1.050875 0.018237 0
1.037134 0.003926 0
1.027660 -0.009473 0
1.022445 -0.021621 0
1.021637 -0.032525 0
1.025599 -0.042293 0
1.034890 -0.050902 0
1.050074 -0.057920 0
1.071239 -0.062339 0
1.097605 -0.062723 0
1.127412 -0.057630 0
1.158034 -0.046169 0
1.186122 -0.028600 0
1.207888 -0.006962 0
1.220064 0.015358 0
1.221732 0.035724 0
1.213913 0.052673 0
1.198299 0.064964 0
1.177018 0.071613 0
1.152367 0.072068 0
1.126538 0.066448 0
1.101357 0.055748 0
1.078121 0.041790 0
1.057568 0.026795 0
1.040024 0.012661 0
1.025769 0.000557 0
1.014975 -0.009060 0
1.007525 -0.016462 0
1.003336 -0.022363 0
1.002592 -0.027448 0
1.005650 -0.032117 0
1.012888 -0.036332 0
1.024413 -0.039571 0
1.039854 -0.040928 0
1.058313 -0.039318 0
1.078459 -0.033706 0
1.098718 -0.022631 0
1.117403 -0.013104 0
1.000000 -0.007524 0
1.004266 -0.023189 0
1.013209 -0.040609 0
1.027825 -0.060714 0
1.049837 -0.084024 0
1.081808 -0.110088 0
1.126984 -0.136311 0
1.187661 -0.157882 0
1.267425 -0.160777 0
1.333254 -0.139952 0
1.378246 -0.108332 0
1.406808 -0.075488 0
1.423092 -0.045113 0
1.429203 -0.018559 0
1.426754 0.003335 0
1.417163 0.019895 0
1.402365 0.030417 0
1.384852 0.034385 0
1.367430 0.031816 0
1.352848 0.023383 0
1.343435 0.010337 0
1.341072 -0.005263 0
1.347410 -0.019727 0
1.361931 -0.028117 0
1.380806 -0.026605 0
1.397722 -0.014936 0
1.406712 0.003435 0
1.405619 0.024240 0
1.395231 0.044454 0
1.377112 0.062202 0
1.353006 0.076483 0
1.324521 0.086842 0
1.293115 0.093093 0
1.260151 0.095158 0
1.226945 0.093025 0
1.194768 0.086746 0
1.164800 0.076433 0
1.138071 0.062240 0
1.115416 0.044337 0
1.097406 0.022923 0
1.084243 -0.001669 0
1.075968 -0.028421 0
1.073368 -0.055183 0
1.077520 -0.079206 0
1.089785 -0.097806 0
1.111463 -0.108257 0
1.142491 -0.107678 0
1.180569 -0.093860 0
1.221038 -0.066811 0
1.257396 -0.030219 0
1.282661 0.008455 0
1.292926 0.042708 0
1.289981 0.070060 0
1.276500 0.089869 0
1.255202 0.102162 0
1.228646 0.107381 0
1.199121 0.106205 0
1.168571 0.099443 0
1.138537 0.088024 0
1.110134 0.073049 0
1.084033 0.055822 0
1.060475 0.037754 0
1.039285 0.020072 0
1.020002 0.003485 0
1.002392 -0.011995 0
0.987040 -0.026823 0
0.975894 -0.041520 0
0.971426 -0.056268 0
0.975499 -0.070340 0
0.988597 -0.081866 0
1.009774 -0.088315 0
1.037086 -0.087285 0
1.068052 -0.077191 0
1.099935 -0.057773 0
1.129788 -0.030540 0
1.154250 0.000576 0
1.170193 0.030622 0
1.177187 0.056302 0
1.176087 0.075805 0
1.168196 0.087876 0
1.154980 0.091969 0
1.137843 0.088414 0
1.118019 0.078492 0
1.096580 0.064260 0
1.074498 0.048104 0
1.052617 0.032177 0
1.031531 0.017919 0
1.011724 0.005867 0
0.993824 -0.004312 0
0.978688 -0.013525 0
0.967507 -0.022649 0
0.961609 -0.032088 0
0.961855 -0.041545 0
0.968336 -0.049980 0
0.980409 -0.055902 0
0.996947 -0.057788 0
1.016652 -0.054455 0
1.038351 -0.044663 0
1.061278 -0.035336 0
1.000000 -0.009373 0
1.002845 -0.028969 0
1.008999 -0.051115 0
1.019576 -0.077527 0
1.036759 -0.109783 0
1.064437 -0.148716 0
1.109091 -0.192154 0
1.178675 -0.237179 0
1.296765 -0.243302 0
1.368690 -0.198250 0
1.403419 -0.143697 0
1.420795 -0.095356 0
1.429254 -0.053776 0
1.429879 -0.017928 0
1.422260 0.011993 0
1.406552 0.035091 0
1.384477 0.049866 0
1.358906 0.055206 0
1.333334 0.050930 0
1.311251 0.037990 0
1.295375 0.018166 0
1.287183 -0.006372 0
1.288884 -0.030975 0
1.302532 -0.047570 0
1.326134 -0.048559 0
1.353240 -0.031760 0
1.373869 -0.002929 0
1.380327 0.029068 0
1.374121 0.058720 0
1.358437 0.083792 0
1.335942 0.103450 0
1.308552 0.117548 0
1.277730 0.126115 0
1.244757 0.129183 0
1.210874 0.126800 0
1.177283 0.119094 0
1.145057 0.106319 0
1.114989 0.088841 0
1.087461 0.067162 0
1.062267 0.042045 0
1.038327 0.014400 0
1.013981 -0.015388 0
0.989439 -0.046586 0
0.969992 -0.077448 0
0.962256 -0.105808 0
0.970080 -0.128110 0
0.993528 -0.139203 0
1.029941 -0.134188 0
1.074960 -0.110604 0
1.122892 -0.070051 0
1.166667 -0.019455 0
1.198368 0.029889 0
1.215026 0.070399 0
1.218781 0.100682 0
1.212103 0.120802 0
1.197404 0.131411 0
1.176911 0.133488 0
1.152572 0.128204 0
1.125997 0.116876 0
1.098369 0.101022 0
1.070317 0.082413 0
1.041793 0.062980 0
1.012279 0.044395 0
0.981564 0.027417 0
0.950808 0.011338 0
0.922887 -0.006028 0
0.901599 -0.026679 0
0.890450 -0.050507 0
0.890831 -0.075092 0
0.901865 -0.096616 0
0.921539 -0.111213 0
0.947560 -0.115910 0
0.977710 -0.109022 0
1.009903 -0.090340 0
1.042127 -0.061280 0
1.072225 -0.025051 0
1.097227 0.012783 0
1.114710 0.046776 0
1.124519 0.073952 0
1.127102 0.092718 0
1.123181 0.102420 0
1.113552 0.103409 0
1.099010 0.097010 0
1.080332 0.085309 0
1.058286 0.070756 0
1.033671 0.055625 0
1.007449 0.041449 0
0.980971 0.028646 0
0.956111 0.016573 0
0.935024 0.003953 0
0.919607 -0.010370 0
0.911133 -0.026466 0
0.910005 -0.043061 0
0.915688 -0.058125 0
0.927069 -0.069539 0
0.942845 -0.075561 0
0.961775 -0.075109 0
0.982826 -0.067258 0
1.005205 -0.058773 0
1.000000 -0.010379 0
1.000892 -0.032200 0
1.002987 -0.057346 0
1.007123 -0.088482 0
1.015278 -0.128894 0
1.031838 -0.182430 0
1.066338 -0.250560 0
1.136427 -0.345568 0
1.313344 -0.350805 0
1.358356 -0.246618 0
1.352644 -0.160450 0
1.343994 -0.101338 0
1.340348 -0.054209 0
1.337379 -0.011571 0
1.326256 0.026661 0
1.305240 0.057679 0
1.275603 0.078065 0
1.240375 0.085530 0
1.203669 0.079471 0
1.169845 0.061337 0
1.142094 0.034396 0
1.121236 0.001217 0
1.106899 -0.035082 0
1.105423 -0.065370 0
1.123548 -0.077319 0
1.159633 -0.062679 0
1.202822 -0.023660 0
1.236658 0.023978 0
1.251371 0.066334 0
1.252257 0.100371 0
1.243582 0.126357 0
1.227625 0.145044 0
1.205839 0.156877 0
1.179504 0.162004 0
1.149953 0.160489 0
1.118508 0.152553 0
1.086056 0.138718 0
1.052253 0.119830 0
1.015018 0.097055 0
0.971780 0.072055 0
0.922728 0.046617 0
0.872956 0.020468 0
0.830371 -0.011194 0
0.802541 -0.052024 0
0.793836 -0.097895 0
0.803312 -0.139534 0
0.827978 -0.167547 0
0.864748 -0.175299 0
0.910602 -0.159767 0
0.962140 -0.121932 0
1.015104 -0.067027 0
1.063401 -0.005656 0
1.099336 0.049640 0
1.121523 0.092786 0
1.131553 0.123532 0
1.131230 0.142567 0
1.122372 0.151031 0
1.106641 0.150351 0
1.085352 0.142221 0
1.059254 0.128723 0
1.028420 0.112393 0
0.992615 0.095787 0
0.952398 0.080298 0
0.910407 0.064954 0
0.871542 0.046681 0
0.841277 0.022384 0
0.823019 -0.009083 0
0.817258 -0.045500 0
0.822241 -0.081756 0
0.835489 -0.112575 0
0.854894 -0.134011 0
0.878903 -0.143460 0
0.906272 -0.139539 0
0.935802 -0.122193 0
0.966223 -0.092865 0
0.996149 -0.054528 0
1.023899 -0.011865 0
1.046663 0.029008 0
1.062931 0.063411 0
1.072359 0.089213 0
1.074976 0.105517 0
1.070985 0.112583 0
1.060666 0.111711 0
1.044365 0.104982 0
1.022603 0.094762 0
0.996328 0.083011 0
0.967224 0.070618 0
0.937824 0.057204 0
0.911188 0.041633 0
0.890146 0.022978 0
0.876434 0.001241 0
0.870317 -0.022487 0
0.871104 -0.046101 0
0.877630 -0.067045 0
0.888676 -0.083059 0
0.903169 -0.092494 0
0.920195 -0.094437 0
0.938960 -0.088093 0
0.958633 -0.080262 0
1.000000 -0.010276 0
0.998545 -0.031969 0
0.995561 -0.057353 0
0.991020 -0.089826 0
0.985390 -0.134508 0
0.980870 -0.199787 0
0.985007 -0.296755 0
1.020217 -0.484197 0
1.216615 -0.465242 0
1.166247 -0.237563 0
1.078744 -0.129349 0
1.034024 -0.083072 0
1.018646 -0.047169 0
1.022758 -0.003840 0
1.018120 0.044133 0
0.999787 0.085744 0
0.967365 0.114731 0
0.921626 0.127139 0
0.864724 0.121456 0
0.801327 0.099557 0
0.740696 0.066765 0
0.695986 0.028814 0
0.676397 -0.015164 0
0.684994 -0.064222 0
0.720313 -0.102777 0
0.778323 -0.111043 0
0.852371 -0.079962 0
0.930394 -0.019490 0
0.994061 0.043111 0
1.034238 0.091571 0
1.056897 0.128071 0
1.066195 0.155281 0
1.064107 0.174226 0
1.052128 0.185059 0
1.031436 0.187786 0
1.002546 0.182983 0
0.964864 0.172567 0
0.916969 0.159875 0
0.858494 0.147633 0
0.793011 0.134334 0
0.729518 0.113224 0
0.680022 0.076969 0
0.653281 0.023828 0
0.648721 -0.040915 0
0.659401 -0.106583 0
0.679451 -0.162259 0
0.706396 -0.200647 0
0.740030 -0.216818 0
0.780573 -0.208001 0
0.827340 -0.174559 0
0.878284 -0.120721 0
0.930062 -0.054348 0
0.976600 0.012271 0
1.011681 0.068459 0
1.034825 0.111088 0
1.046730 0.140584 0
1.048350 0.158070 0
1.040593 0.165218 0
1.024029 0.164257 0
0.998798 0.157948 0
0.965017 0.149047 0
0.923937 0.138999 0
0.879206 0.126600 0
0.836846 0.108271 0
0.803221 0.080467 0
0.782349 0.042493 0
0.774645 -0.002661 0
0.777270 -0.049729 0
0.786570 -0.093323 0
0.800087 -0.129271 0
0.816656 -0.154630 0
0.835921 -0.167291 0
0.857788 -0.165924 0
0.881981 -0.150294 0
0.907844 -0.121631 0
0.934376 -0.082730 0
0.960336 -0.037734 0
0.983908 0.007742 0
1.002667 0.048255 0
1.015551 0.080671 0
1.021966 0.103791 0
1.021573 0.117717 0
1.014220 0.123629 0
1.000030 0.123369 0
0.979658 0.118790 0
0.954598 0.111003 0
0.927309 0.099952 0
0.900888 0.084680 0
0.878334 0.064250 0
0.861767 0.038706 0
0.852055 0.009458 0
0.848858 -0.021137 0
0.851034 -0.050374 0
0.857345 -0.075698 0
0.866798 -0.095079 0
0.878679 -0.107081 0
0.892450 -0.110900 0
0.907611 -0.105696 0
0.923471 -0.098351 0
1.000000 -0.008934 0
0.996218 -0.027776 0
0.988066 -0.049829 0
0.974211 -0.078321 0
0.952364 -0.118755 0
0.918905 -0.182059 0
0.868340 -0.289919 0
0.797240 -0.577188 0
0.559539 -0.397905 0
0.500122 0.000000 0
0.430730 -0.018421 0
0.371648 -0.041249 0
0.389005 -0.042949 0
0.439375 -0.011047 0
0.481510 0.049632 0
0.486269 0.108434 0
0.464564 0.156227 0
0.419466 0.188169 0
0.357083 0.199764 0
0.289382 0.185356 0
0.235340 0.139727 0
0.215112 0.065511 0
0.234261 -0.024094 0
0.279867 -0.109293 0
0.340770 -0.170657 0
0.413150 -0.194745 0
0.497280 -0.175740 0
0.592267 -0.117722 0
0.689203 -0.037519 0
0.769486 0.037526 0
0.825025 0.094390 0
0.860370 0.137824 0
0.878220 0.170935 0
0.879859 0.194665 0
0.865712 0.210062 0
0.835560 0.219118 0
0.789535 0.224290 0
0.730484 0.226196 0
0.666485 0.221012 0
0.610207 0.201031 0
0.573489 0.159605 0
0.561107 0.096704 0
0.569483 0.020106 0
0.589260 -0.058147 0
0.611026 -0.128631 0
0.631423 -0.186536 0
0.651207 -0.228131 0
0.673201 -0.249482 0
0.700576 -0.247083 0
0.735225 -0.219649 0
0.776767 -0.169755 0
0.822733 -0.103978 0
0.869287 -0.031985 0
0.909757 0.034554 0
0.940057 0.088477 0
0.959541 0.129035 0
0.968112 0.157161 0
0.965799 0.174665 0
0.952628 0.184009 0
0.928955 0.187730 0
0.896366 0.187250 0
0.858633 0.181595 0
0.821633 0.167387 0
0.791539 0.140937 0
0.772312 0.101177 0
0.764469 0.050961 0
0.765869 -0.004005 0
0.773120 -0.057427 0
0.783130 -0.104575 0
0.794130 -0.142663 0
0.805604 -0.169849 0
0.817956 -0.184596 0
0.832025 -0.185602 0
0.848508 -0.172253 0
0.867514 -0.145263 0
0.888444 -0.107023 0
0.910184 -0.061400 0
0.931313 -0.013325 0
0.949581 0.031766 0
0.963240 0.069912 0
0.971229 0.099492 0
0.972851 0.120325 0
0.967769 0.133250 0
0.956187 0.139541 0
0.939116 0.140193 0
0.918504 0.135358 0
0.897022 0.124326 0
0.877440 0.106178 0
0.861895 0.080753 0
0.851462 0.049255 0
0.846199 0.014149 0
0.845492 -0.021466 0
0.848298 -0.054589 0
0.853602 -0.082810 0
0.860672 -0.104393 0
0.869091 -0.118146 0
0.878663 -0.123368 0
0.889249 -0.119114 0
0.900523 -0.112237 0
1.000000 -0.006505 0
0.994501 -0.020051 0
0.982516 -0.035355 0
0.961665 -0.054135 0
0.927298 -0.079214 0
0.870381 -0.115775 0
0.771444 -0.175102 0
0.588120 -0.274348 0
0.000000 -0.168133 0
0.000000 0.000000 0
0.000000 0.000000 0
-0.027360 -0.050291 0
-0.048287 -0.114900 0
-0.022691 -0.096346 0
0.006455 -0.002761 0
0.026190 0.102691 0
0.024719 0.181532 0
0.004497 0.234615 0
-0.023586 0.251533 0
-0.042719 0.221291 0
-0.028404 0.141027 0
0.019080 0.029889 0
0.076202 -0.079924 0
0.130715 -0.170739 0
0.181485 -0.236068 0
0.233370 -0.267563 0
0.293131 -0.259090 0
0.365212 -0.211423 0
0.448925 -0.134117 0
0.535314 -0.044261 0
0.606863 0.037177 0
0.656452 0.102076 0
0.685869 0.154727 0
0.695868 0.197558 0
0.686868 0.232077 0
0.660415 0.259154 0
0.621126 0.277638 0
0.578032 0.282921 0
0.543145 0.267908 0
0.526649 0.227330 0
0.531882 0.162324 0
0.554431 0.080974 0
0.585297 -0.004327 0
0.614103 -0.082463 0
0.636192 -0.148753 0
0.650531 -0.202447 0
0.658637 -0.242430 0
0.664248 -0.266192 0
0.672485 -0.270031 0
0.688080 -0.250756 0
0.713317 -0.208235 0
0.747126 -0.146875 0
0.785895 -0.074759 0
0.824448 -0.002317 0
0.856238 0.061297 0
0.878637 0.112523 0
0.890597 0.151807 0
0.891636 0.180697 0
0.881905 0.201095 0
0.862762 0.214204 0
0.837442 0.219366 0
0.811025 0.213729 0
0.789100 0.193692 0
0.775628 0.157590 0
0.771597 0.107536 0
0.775394 0.048936 0
0.784197 -0.011312 0
0.794821 -0.066991 0
0.804916 -0.114335 0
0.813167 -0.151747 0
0.819298 -0.178460 0
0.824051 -0.193716 0
0.828944 -0.196479 0
0.835700 -0.185786 0
0.845520 -0.161570 0
0.858587 -0.125403 0
0.874090 -0.080605 0
0.890592 -0.031657 0
0.906202 0.016325 0
0.918766 0.059020 0
0.926913 0.094177 0
0.929785 0.121174 0
0.927068 0.140289 0
0.919165 0.152020 0
0.907318 0.156471 0
0.893507 0.153094 0
0.880000 0.141014 0
0.868735 0.119806 0
0.860851 0.090226 0
0.856613 0.054401 0
0.855664 0.015426 0
0.857335 -0.023238 0
0.860730 -0.058484 0
0.865025 -0.088072 0
0.869650 -0.110568 0
0.874367 -0.125072 0
0.879253 -0.131059 0
0.884568 -0.127556 0
0.890538 -0.121185 0
1.000000 -0.003448 0
0.993855 -0.010310 0
0.980525 -0.017003 0
0.957532 -0.023114 0
0.920169 -0.027483 0
0.859561 -0.026216 0
0.758967 -0.007670 0
0.584701 0.090905 0
0.269928 0.086870 0
0.000000 0.000000 0
0.000000 0.000000 0
0.000000 0.000000 0
-0.048390 -0.045717 0
-0.121447 -0.065789 0
-0.157971 0.000751 0
-0.153235 0.090170 0
-0.139141 0.177917 0
-0.125040 0.236467 0
-0.101766 0.246972 0
-0.053600 0.190167 0
0.021809 0.077923 0
0.096937 -0.039100 0
0.153609 -0.135737 0
0.192079 -0.214585 0
0.215168 -0.273321 0
0.229646 -0.306400 0
0.245734 -0.307592 0
0.273410 -0.273526 0
0.317491 -0.207632 0
0.375503 -0.120422 0
0.437915 -0.026758 0
0.489548 0.058808 0
0.524729 0.131510 0
0.542967 0.193657 0
0.545252 0.245508 0
0.535428 0.284854 0
0.520936 0.306668 0
0.511611 0.304174 0
0.516150 0.272394 0
0.538152 0.212294 0
0.574920 0.131822 0
0.619552 0.043287 0
0.661537 -0.039569 0
0.693882 -0.109047 0
0.714692 -0.165065 0
0.723499 -0.208986 0
0.721283 -0.241853 0
0.711090 -0.263335 0
0.698347 -0.270921 0
0.689905 -0.260488 0
0.691585 -0.228808 0
0.705574 -0.176563 0
0.729751 -0.109314 0
0.759232 -0.035796 0
0.787423 0.034281 0
0.809251 0.094671 0
0.822647 0.144156 0
0.826922 0.183351 0
0.822693 0.212878 0
0.812198 0.232189 0
0.799292 0.238983 0
0.788556 0.229934 0
0.783664 0.202781 0
0.786041 0.158439 0
0.794807 0.101410 0
0.807778 0.038360 0
0.822346 -0.023433 0
0.835720 -0.078147 0
0.846109 -0.122924 0
0.852384 -0.157049 0
0.854159 -0.180736 0
0.852043 -0.194244 0
0.847740 -0.197255 0
0.843721 -0.188833 0
0.842407 -0.168153 0
0.845253 -0.135596 0
0.852293 -0.093407 0
0.862362 -0.045440 0
0.873667 0.003588 0
0.884007 0.049198 0
0.891745 0.088470 0
0.895920 0.120166 0
0.896258 0.143867 0