# vtk DataFile Version 2.0
generated by CFD-lab course output (written by Tobias Neckel) 
ASCII

DATASET STRUCTURED_GRID
DIMENSIONS  99 19 1 
POINTS 1881 float

0.000000 0.000000 0
0.100000 0.000000 0
0.200000 0.000000 0
0.300000 0.000000 0
0.400000 0.000000 0
0.500000 0.000000 0
0.600000 0.000000 0
0.700000 0.000000 0
0.800000 0.000000 0
0.900000 0.000000 0
1.000000 0.000000 0
1.100000 0.000000 0
1.200000 0.000000 0
1.300000 0.000000 0
1.400000 0.000000 0
1.500000 0.000000 0
1.600000 0.000000 0
1.700000 0.000000 0
1.800000 0.000000 0
1.900000 0.000000 0
2.000000 0.000000 0
2.100000 0.000000 0
2.200000 0.000000 0
2.300000 0.000000 0
2.400000 0.000000 0
2.500000 0.000000 0
2.600000 0.000000 0
2.700000 0.000000 0
2.800000 0.000000 0
2.900000 0.000000 0
3.000000 0.000000 0
3.100000 0.000000 0
3.200000 0.000000 0
3.300000 0.000000 0
3.400000 0.000000 0
3.500000 0.000000 0
3.600000 0.000000 0
3.700000 0.000000 0
3.800000 0.000000 0
3.900000 0.000000 0
4.000000 0.000000 0
4.100000 0.000000 0
4.200000 0.000000 0
4.300000 0.000000 0
4.400000 0.000000 0
4.500000 0.000000 0
4.600000 0.000000 0
4.700000 0.000000 0
4.800000 0.000000 0
4.900000 0.000000 0
5.000000 0.000000 0
5.100000 0.000000 0
5.200000 0.000000 0
5.300000 0.000000 0
5.400000 0.000000 0
5.500000 0.000000 0
5.600000 0.000000 0
5.700000 0.000000 0
5.800000 0.000000 0
5.900000 0.000000 0
6.000000 0.000000 0
6.100000 0.000000 0
6.200000 0.000000 0
6.300000 0.000000 0
6.400000 0.000000 0
6.500000 0.000000 0
6.600000 0.000000 0
6.700000 0.000000 0
6.800000 0.000000 0
6.900000 0.000000 0
7.000000 0.000000 0
7.100000 0.000000 0
7.200000 0.000000 0
7.300000 0.000000 0
7.400000 0.000000 0
7.500000 0.000000 0
7.600000 0.000000 0
7.700000 0.000000 0
7.800000 0.000000 0
7.900000 0.000000 0
8.000000 0.000000 0
8.100000 0.000000 0
8.200000 0.000000 0
8.300000 0.000000 0
8.400000 0.000000 0
8.500000 0.000000 0
8.600000 0.000000 0
8.700000 0.000000 0
8.800000 0.000000 0
8.900000 0.000000 0
9.000000 0.000000 0
9.100000 0.000000 0
9.200000 0.000000 0
9.300000 0.000000 0
9.400000 0.000000 0
9.500000 0.000000 0
9.600000 0.000000 0
9.700000 0.000000 0
9.800000 0.000000 0
0.000000 0.100000 0
0.100000 0.100000 0
0.200000 0.100000 0
0.300000 0.100000 0
0.400000 0.100000 0
0.500000 0.100000 0
0.600000 0.100000 0
0.700000 0.100000 0
0.800000 0.100000 0
0.900000 0.100000 0
1.000000 0.100000 0
1.100000 0.100000 0
1.200000 0.100000 0
1.300000 0.100000 0
1.400000 0.100000 0
1.500000 0.100000 0
1.600000 0.100000 0
1.700000 0.100000 0
1.800000 0.100000 0
1.900000 0.100000 0
2.000000 0.100000 0
2.100000 0.100000 0
2.200000 0.100000 0
2.300000 0.100000 0
2.400000 0.100000 0
2.500000 0.100000 0
2.600000 0.100000 0
2.700000 0.100000 0
2.800000 0.100000 0
2.900000 0.100000 0
3.000000 0.100000 0
3.100000 0.100000 0
3.200000 0.100000 0
3.300000 0.100000 0
3.400000 0.100000 0
3.500000 0.100000 0
3.600000 0.100000 0
3.700000 0.100000 0
3.800000 0.100000 0
3.900000 0.100000 0
4.000000 0.100000 0
4.100000 0.100000 0
4.200000 0.100000 0
4.300000 0.100000 0
4.400000 0.100000 0
4.500000 0.100000 0
4.600000 0.100000 0
4.700000 0.100000 0
4.800000 0.100000 0
4.900000 0.100000 0
5.000000 0.100000 0
5.100000 0.100000 0
5.200000 0.100000 0
5.300000 0.100000 0
5.400000 0.100000 0
5.500000 0.100000 0
5.600000 0.100000 0
5.700000 0.100000 0
5.800000 0.100000 0
5.900000 0.100000 0
6.000000 0.100000 0
6.100000 0.100000 0
6.200000 0.100000 0
6.300000 0.100000 0
6.400000 0.100000 0
6.500000 0.100000 0
6.600000 0.100000 0
6.700000 0.100000 0
6.800000 0.100000 0
6.900000 0.100000 0
7.000000 0.100000 0
7.100000 0.100000 0
7.200000 0.100000 0
7.300000 0.100000 0
7.400000 0.100000 0
7.500000 0.100000 0
7.600000 0.100000 0
7.700000 0.100000 0
7.800000 0.100000 0
7.900000 0.100000 0
8.000000 0.100000 0
8.100000 0.100000 0
8.200000 0.100000 0
8.300000 0.100000 0
8.400000 0.100000 0
8.500000 0.100000 0
8.600000 0.100000 0
8.700000 0.100000 0
8.800000 0.100000 0
8.900000 0.100000 0
9.000000 0.100000 0
9.100000 0.100000 0
9.200000 0.100000 0
9.300000 0.100000 0
9.400000 0.100000 0
9.500000 0.100000 0
9.600000 0.100000 0
9.700000 0.100000 0
9.800000 0.100000 0
0.000000 0.200000 0
0.100000 0.200000 0
0.200000 0.200000 0
0.300000 0.200000 0
0.400000 0.200000 0
0.500000 0.200000 0
0.600000 0.200000 0
0.700000 0.200000 0
0.800000 0.200000 0
0.900000 0.200000 0
1.000000 0.200000 0
1.100000 0.200000 0
1.200000 0.200000 0
1.300000 0.200000 0
1.400000 0.200000 0
1.500000 0.200000 0
1.600000 0.200000 0
1.700000 0.200000 0
1.800000 0.200000 0
1.900000 0.200000 0
2.000000 0.200000 0
2.100000 0.200000 0
2.200000 0.200000 0
2.300000 0.200000 0
2.400000 0.200000 0
2.500000 0.200000 0
2.600000 0.200000 0
2.700000 0.200000 0
2.800000 0.200000 0
2.900000 0.200000 0
3.000000 0.200000 0
3.100000 0.200000 0
3.200000 0.200000 0
3.300000 0.200000 0
3.400000 0.200000 0
3.500000 0.200000 0
3.600000 0.200000 0
3.700000 0.200000 0
3.800000 0.200000 0
3.900000 0.200000 0
4.000000 0.200000 0
4.100000 0.200000 0
4.200000 0.200000 0
4.300000 0.200000 0
4.400000 0.200000 0
4.500000 0.200000 0
4.600000 0.200000 0
4.700000 0.200000 0
4.800000 0.200000 0
4.900000 0.200000 0
5.000000 0.200000 0
5.100000 0.200000 0
5.200000 0.200000 0
5.300000 0.200000 0
5.400000 0.200000 0
5.500000 0.200000 0
5.600000 0.200000 0
5.700000 0.200000 0
5.800000 0.200000 0
5.900000 0.200000 0
6.000000 0.200000 0
6.100000 0.200000 0
6.200000 0.200000 0
6.300000 0.200000 0
6.400000 0.200000 0
6.500000 0.200000 0
6.600000 0.200000 0
6.700000 0.200000 0
6.800000 0.200000 0
6.900000 0.200000 0
7.000000 0.200000 0
7.100000 0.200000 0
7.200000 0.200000 0
7.300000 0.200000 0
7.400000 0.200000 0
7.500000 0.200000 0
7.600000 0.200000 0
7.700000 0.200000 0
7.800000 0.200000 0
7.900000 0.200000 0
8.000000 0.200000 0
8.100000 0.200000 0
8.200000 0.200000 0
8.300000 0.200000 0
8.400000 0.200000 0
8.500000 0.200000 0
8.600000 0.200000 0
8.700000 0.200000 0
8.800000 0.200000 0
8.900000 0.200000 0
9.000000 0.200000 0
9.100000 0.200000 0
9.200000 0.200000 0
9.300000 0.200000 0
9.400000 0.200000 0
9.500000 0.200000 0
9.600000 0.200000 0
9.700000 0.200000 0
9.800000 0.200000 0
0.000000 0.300000 0
0.100000 0.300000 0
0.200000 0.300000 0
0.300000 0.300000 0
0.400000 0.300000 0
0.500000 0.300000 0
0.600000 0.300000 0
0.700000 0.300000 0
0.800000 0.300000 0
0.900000 0.300000 0
1.000000 0.300000 0
1.100000 0.300000 0
1.200000 0.300000 0
1.300000 0.300000 0
1.400000 0.300000 0
1.500000 0.300000 0
1.600000 0.300000 0
1.700000 0.300000 0
1.800000 0.300000 0
1.900000 0.300000 0
2.000000 0.300000 0
2.100000 0.300000 0
2.200000 0.300000 0
2.300000 0.300000 0
2.400000 0.300000 0
2.500000 0.300000 0
2.600000 0.300000 0
2.700000 0.300000 0
2.800000 0.300000 0
2.900000 0.300000 0
3.000000 0.300000 0
3.100000 0.300000 0
3.200000 0.300000 0
3.300000 0.300000 0
3.400000 0.300000 0
3.500000 0.300000 0
3.600000 0.300000 0
3.700000 0.300000 0
3.800000 0.300000 0
3.900000 0.300000 0
4.000000 0.300000 0
4.100000 0.300000 0
4.200000 0.300000 0
4.300000 0.300000 0
4.400000 0.300000 0
4.500000 0.300000 0
4.600000 0.300000 0
4.700000 0.300000 0
4.800000 0.300000 0
4.900000 0.300000 0
5.000000 0.300000 0
5.100000 0.300000 0
5.200000 0.300000 0
5.300000 0.300000 0
5.400000 0.300000 0
5.500000 0.300000 0
5.600000 0.300000 0
5.700000 0.300000 0
5.800000 0.300000 0
5.900000 0.300000 0
6.000000 0.300000 0
6.100000 0.300000 0
6.200000 0.300000 0
6.300000 0.300000 0
6.400000 0.300000 0
6.500000 0.300000 0
6.600000 0.300000 0
6.700000 0.300000 0
6.800000 0.300000 0
6.900000 0.300000 0
7.000000 0.300000 0
7.100000 0.300000 0
7.200000 0.300000 0
7.300000 0.300000 0
7.400000 0.300000 0
7.500000 0.300000 0
7.600000 0.300000 0
7.700000 0.300000 0
7.800000 0.300000 0
7.900000 0.300000 0
8.000000 0.300000 0
8.100000 0.300000 0
8.200000 0.300000 0
8.300000 0.300000 0
8.400000 0.300000 0
8.500000 0.300000 0
8.600000 0.300000 0
8.700000 0.300000 0
8.800000 0.300000 0
8.900000 0.300000 0
9.000000 0.300000 0
9.100000 0.300000 0
9.200000 0.300000 0
9.300000 0.300000 0
9.400000 0.300000 0
9.500000 0.300000 0
9.600000 0.300000 0
9.700000 0.300000 0
9.800000 0.300000 0
0.000000 0.400000 0
0.100000 0.400000 0
0.200000 0.400000 0
0.300000 0.400000 0
0.400000 0.400000 0
0.500000 0.400000 0
0.600000 0.400000 0
0.700000 0.400000 0
0.800000 0.400000 0
0.900000 0.400000 0
1.000000 0.400000 0
1.100000 0.400000 0
1.200000 0.400000 0
1.300000 0.400000 0
1.400000 0.400000 0
1.500000 0.400000 0
1.600000 0.400000 0
1.700000 0.400000 0
1.800000 0.400000 0
1.900000 0.400000 0
2.000000 0.400000 0
2.100000 0.400000 0
2.200000 0.400000 0
2.300000 0.400000 0
2.400000 0.400000 0
2.500000 0.400000 0
2.600000 0.400000 0
2.700000 0.400000 0
2.800000 0.400000 0
2.900000 0.400000 0
3.000000 0.400000 0
3.100000 0.400000 0
3.200000 0.400000 0
3.300000 0.400000 0
3.400000 0.400000 0
3.500000 0.400000 0
3.600000 0.400000 0
3.700000 0.400000 0
3.800000 0.400000 0
3.900000 0.400000 0
4.000000 0.400000 0
4.100000 0.400000 0
4.200000 0.400000 0
4.300000 0.400000 0
4.400000 0.400000 0
4.500000 0.400000 0
4.600000 0.400000 0
4.700000 0.400000 0
4.800000 0.400000 0
4.900000 0.400000 0
5.000000 0.400000 0
5.100000 0.400000 0
5.200000 0.400000 0
5.300000 0.400000 0
5.400000 0.400000 0
5.500000 0.400000 0
5.600000 0.400000 0
5.700000 0.400000 0
5.800000 0.400000 0
5.900000 0.400000 0
6.000000 0.400000 0
6.100000 0.400000 0
6.200000 0.400000 0
6.300000 0.400000 0
6.400000 0.400000 0
6.500000 0.400000 0
6.600000 0.400000 0
6.700000 0.400000 0
6.800000 0.400000 0
6.900000 0.400000 0
7.000000 0.400000 0
7.100000 0.400000 0
7.200000 0.400000 0
7.300000 0.400000 0
7.400000 0.400000 0
7.500000 0.400000 0
7.600000 0.400000 0
7.700000 0.400000 0
7.800000 0.400000 0
7.900000 0.400000 0
8.000000 0.400000 0
8.100000 0.400000 0
8.200000 0.400000 0
8.300000 0.400000 0
8.400000 0.400000 0
8.500000 0.400000 0
8.600000 0.400000 0
8.700000 0.400000 0
8.800000 0.400000 0
8.900000 0.400000 0
9.000000 0.400000 0
9.100000 0.400000 0
9.200000 0.400000 0
9.300000 0.400000 0
9.400000 0.400000 0
[...]
POINT_DATA 1881 

VECTORS velocity float
0.500000 0.000000 0
0.502086 0.000000 0
0.506765 0.000000 0
0.514466 0.000000 0
0.525616 0.000000 0
0.540555 0.000000 0
0.559313 0.000000 0
0.581326 0.000000 0
0.605193 0.000000 0
0.628618 0.000000 0
0.649621 0.000000 0
0.667166 0.000000 0
0.680956 0.000000 0
0.691043 0.000000 0
0.697524 0.000000 0
0.700461 0.000000 0
0.699875 0.000000 0
0.695864 0.000000 0
0.688652 0.000000 0
0.678649 0.000000 0
0.666454 0.000000 0
0.652811 0.000000 0
0.638563 0.000000 0
0.624596 0.000000 0
0.611785 0.000000 0
0.600948 0.000000 0
0.592814 0.000000 0
0.588041 0.000000 0
0.587222 0.000000 0
0.590653 0.000000 0
0.598050 0.000000 0
0.608353 0.000000 0
0.619765 0.000000 0
0.630105 0.000000 0
0.637398 0.000000 0
0.640450 0.000000 0
0.638944 0.000000 0
0.633086 0.000000 0
0.623430 0.000000 0
0.610729 0.000000 0
0.595804 0.000000 0
0.579473 0.000000 0
0.562522 0.000000 0
0.545702 0.000000 0
0.529748 0.000000 0
0.515401 0.000000 0
0.503435 0.000000 0
0.494680 0.000000 0
0.490004 0.000000 0
0.490102 0.000000 0
0.495124 0.000000 0
0.504828 0.000000 0
0.518674 0.000000 0
0.535825 0.000000 0
0.555126 0.000000 0
0.575062 0.000000 0
0.593753 0.000000 0
0.609103 0.000000 0
0.619232 0.000000 0
0.623082 0.000000 0
0.620644 0.000000 0
0.612408 0.000000 0
0.599167 0.000000 0
0.581997 0.000000 0
0.562167 0.000000 0
0.541066 0.000000 0
0.520112 0.000000 0
0.500688 0.000000 0
0.484073 0.000000 0
0.471350 0.000000 0
0.463296 0.000000 0
0.460218 0.000000 0
0.461721 0.000000 0
0.466879 0.000000 0
0.474841 0.000000 0
0.484966 0.000000 0
0.496817 0.000000 0
0.510071 0.000000 0
0.524404 0.000000 0
0.539341 0.000000 0
0.554130 0.000000 0
0.567690 0.000000 0
0.578697 0.000000 0
0.585847 0.000000 0
0.588254 0.000000 0
0.585652 0.000000 0
0.578125 0.000000 0
0.566042 0.000000 0
0.550140 0.000000 0
0.531575 0.000000 0
0.511922 0.000000 0
0.493070 0.000000 0
0.476958 0.000000 0
0.465200 0.000000 0
0.458746 0.000000 0
0.457682 0.000000 0
0.461169 0.000000 0
0.468325 0.000000 0
0.479377 0.000000 0
1.000000 -0.002097 0
1.004726 -0.006788 0
1.014709 -0.012402 0
1.030719 -0.018875 0
1.053696 -0.026114 0
1.084510 -0.033721 0
1.123511 -0.040788 0
1.169802 -0.045892 0
1.220673 -0.047287 0
1.270249 -0.044406 0
1.314014 -0.038525 0
1.350100 -0.031315 0
1.378335 -0.023867 0
1.399145 -0.016573 0
1.412902 -0.009416 0
1.419663 -0.002342 0
1.419348 0.004597 0
1.412044 0.011223 0
1.398152 0.017211 0
1.378504 0.022189 0
1.354331 0.025827 0
1.327175 0.027877 0
1.298779 0.028199 0
1.270970 0.026759 0
1.245545 0.023628 0
1.224158 0.018951 0
1.208261 0.012887 0
1.199108 0.005575 0
1.197787 -0.002627 0
1.205033 -0.010834 0
1.220607 -0.017696 0
1.242667 -0.021706 0
1.267655 -0.021735 0
1.290956 -0.017613 0
1.308164 -0.010325 0
1.316383 -0.001530 0
1.314786 0.007373 0
1.303961 0.015516 0
1.285230 0.022358 0
1.260260 0.027628 0
1.230806 0.031256 0
1.198561 0.033282 0
1.165123 0.033770 0
1.132001 0.032770 0
1.100653 0.030296 0
1.072514 0.026308 0
1.048989 0.020716 0
1.031396 0.013425 0
1.020853 0.004571 0
1.018182 -0.005127 0
1.023872 -0.014732 0
1.037962 -0.023557 0
1.059964 -0.031002 0
1.088841 -0.036453 0
1.123007 -0.039234 0
1.160231 -0.038621 0
1.197484 -0.034032 0
1.230975 -0.025467 0
1.256609 -0.013966 0
1.270892 -0.001399 0
1.272149 0.010687 0
1.261090 0.021487 0
1.239416 0.030419 0
1.209372 0.037005 0
1.173562 0.040932 0
1.134770 0.042056 0
1.095791 0.040378 0
1.059269 0.036040 0
1.027513 0.029339 0
1.002270 0.020777 0
0.984515 0.011134 0
0.974364 0.001577 0
0.971278 -0.006660 0
0.974335 -0.013118 0
0.982514 -0.018085 0
0.995006 -0.021974 0
1.011295 -0.025102 0
1.031076 -0.027584 0
1.054064 -0.029266 0
1.079696 -0.029720 0
1.106865 -0.028342 0
1.133788 -0.024560 0
1.158076 -0.018150 0
1.176998 -0.009549 0
1.187957 0.000203 0
1.189241 0.010135 0
1.180761 0.019616 0
1.163358 0.027991 0
1.138584 0.034472 0
1.108674 0.038223 0
1.076435 0.038510 0
1.044973 0.034968 0
1.017244 0.027873 0
0.995514 0.018214 0
0.980974 0.007521 0
0.973735 -0.002421 0
0.973290 -0.010643 0
0.978841 -0.018208 0
0.990230 -0.022465 0
1.000000 -0.004747 0
1.004873 -0.014744 0
1.014841 -0.026022 0
1.030708 -0.039016 0
1.053734 -0.053820 0
1.085436 -0.069839 0
1.127159 -0.085308 0
1.178937 -0.097161 0
1.239062 -0.100425 0
1.295724 -0.093311 0
1.342746 -0.079829 0
1.379561 -0.064310 0
1.407602 -0.049050 0
1.428392 -0.034574 0
1.442718 -0.020510 0
1.450426 -0.006439 0
1.450998 0.007618 0
1.444184 0.021192 0
1.430231 0.033533 0
1.409998 0.043810 0
1.384836 0.051312 0
1.356427 0.055532 0
1.326658 0.056183 0
1.297492 0.053211 0
1.270837 0.046788 0
1.248392 0.037260 0
1.231538 0.025029 0
1.221387 0.010456 0
1.219055 -0.005935 0
1.225817 -0.022818 0
1.242204 -0.037623 0
1.266922 -0.047029 0
1.296524 -0.048265 0
1.325889 -0.040485 0
1.349331 -0.025407 0
1.362404 -0.006611 0
1.363706 0.012424 0
1.354470 0.029557 0
1.336620 0.043702 0
1.312254 0.054425 0
1.283356 0.061699 0
1.251695 0.065681 0
1.218836 0.066557 0
1.186192 0.064466 0
1.155077 0.059481 0
1.126716 0.051657 0
1.102198 0.041110 0
1.082362 0.028128 0
1.067681 0.013205 0
1.058384 -0.003028 0
1.054886 -0.019787 0
1.057680 -0.036098 0
1.067082 -0.050882 0
1.083244 -0.063040 0
1.106182 -0.071384 0
1.135435 -0.074466 0
1.169534 -0.070730 0
1.205685 -0.059109 0
1.239799 -0.039900 0
1.266917 -0.015524 0
1.282497 0.009815 0
1.284929 0.032742 0
1.275667 0.051723 0
1.256866 0.065857 0
1.231016 0.074604 0
1.200732 0.077773 0
1.168564 0.075501 0
1.136812 0.068279 0
1.107338 0.057001 0
1.081395 0.043000 0
1.059561 0.027908 0
1.041852 0.013239 0
1.028130 0.000031 0
1.018323 -0.011234 0
1.012264 -0.020669 0
1.009983 -0.028779 0
1.011830 -0.036066 0
1.018374 -0.042763 0
1.030160 -0.048613 0
1.047283 -0.052792 0
1.069115 -0.054082 0
1.094265 -0.051201 0
1.120708 -0.043200 0
1.145896 -0.029871 0
1.166897 -0.012234 0
1.180847 0.007204 0
1.186147 0.025890 0
1.183198 0.042183 0
1.173194 0.054690 0
1.157833 0.062156 0
1.139053 0.063708 0
1.118735 0.059196 0
1.098449 0.049462 0
1.079319 0.036273 0
1.062040 0.021782 0
1.047068 0.007685 0
1.034961 -0.005105 0
1.025940 -0.016939 0
1.019430 -0.023738 0
1.000000 -0.006988 0
1.003887 -0.021653 0
1.012126 -0.038249 0
1.025751 -0.057778 0
1.046550 -0.080848 0
1.077149 -0.107144 0
1.120895 -0.134279 0
1.180259 -0.157769 0
1.259100 -0.164050 0
1.325458 -0.148085 0
1.372769 -0.122371 0
1.405754 -0.096195 0
1.429443 -0.072715 0
1.447243 -0.051682 0
1.460613 -0.031446 0
1.468910 -0.010627 0
1.470198 0.010837 0
1.463321 0.031983 0
1.448200 0.051388 0
1.425810 0.067576 0
1.397741 0.079388 0
1.365911 0.086044 0
1.332425 0.087123 0
1.299483 0.082570 0
1.269223 0.072721 0
1.243468 0.058246 0
1.223457 0.039889 0
1.209862 0.018060 0
1.203297 -0.007045 0
1.205359 -0.033968 0
1.217763 -0.058785 0
1.240389 -0.076010 0
1.271124 -0.080691 0
1.305903 -0.070415 0
1.338508 -0.046844 0
1.361643 -0.015916 0
1.370249 0.015298 0
1.365255 0.042601 0
1.349760 0.064573 0
1.326717 0.080891 0
1.298601 0.091813 0
1.267382 0.097799 0
1.234629 0.099270 0
1.201638 0.096527 0
1.169535 0.089770 0
1.139321 0.079183 0
1.111857 0.065066 0
1.087769 0.047939 0
1.067291 0.028546 0
1.050149 0.007666 0
1.035766 -0.014029 0
1.024173 -0.035751 0
1.016868 -0.056561 0
1.016072 -0.075546 0
1.024096 -0.091416 0
1.042210 -0.101963 0
1.069854 -0.104273 0
1.104717 -0.095725 0
1.143154 -0.075192 0
1.180530 -0.044095 0
1.211485 -0.007326 0
1.230984 0.028314 0
1.238088 0.058479 0
1.234408 0.081654 0
1.221993 0.097066 0
1.203054 0.104509 0
1.179743 0.104299 0
1.153997 0.097267 0
1.127412 0.084758 0
1.101200 0.068555 0
1.076191 0.050679 0
1.052844 0.033009 0
1.031219 0.016869 0
1.011223 0.002748 0
0.993057 -0.009744 0
0.977591 -0.021538 0
0.966585 -0.033490 0
0.962020 -0.045909 0
0.965160 -0.058169 0
0.976093 -0.068669 0
0.993834 -0.075318 0
1.016718 -0.076148 0
1.042767 -0.069777 0
1.069912 -0.055736 0
1.096055 -0.034746 0
1.118906 -0.009113 0
1.135874 0.017268 0
1.145776 0.040946 0
1.148944 0.059840 0
1.146175 0.072367 0
1.138458 0.077611 0
1.126771 0.075574 0
1.111993 0.067290 0
1.094969 0.054624 0
1.076587 0.039773 0
1.057735 0.024658 0
1.039061 0.010485 0
1.021015 -0.002677 0
1.003609 -0.010500 0
1.000000 -0.008651 0
1.002474 -0.026891 0
1.007927 -0.047894 0
1.017494 -0.073447 0
1.033375 -0.105218 0
1.059453 -0.144178 0
1.102180 -0.188400 0
1.169483 -0.235347 0
1.284591 -0.245618 0
1.355086 -0.206989 0
1.389598 -0.160145 0
1.407691 -0.121002 0
1.419013 -0.090534 0
1.428599 -0.065733 0
1.438960 -0.042180 0
1.449174 -0.016028 0
1.454036 0.013203 0
1.449518 0.043183 0
1.434955 0.071034 0
1.411655 0.094259 0
1.381557 0.111202 0
1.346758 0.120839 0
1.309525 0.122602 0
1.272340 0.116405 0
1.237743 0.102799 0
1.207866 0.083022 0
1.183692 0.058636 0
1.164739 0.030626 0
1.149731 -0.001420 0
1.138250 -0.037270 0
1.134023 -0.072638 0
1.140795 -0.100380 0
1.160692 -0.113774 0
1.193432 -0.107871 0
1.234597 -0.081157 0
1.275382 -0.038363 0
1.304719 0.008812 0
1.315932 0.050048 0
1.312487 0.082237 0
1.298435 0.105582 0
1.276970 0.121031 0
1.250488 0.129650 0
1.220815 0.132298 0
1.189394 0.129556 0
1.157420 0.121795 0
1.125910 0.109332 0
1.095670 0.092659 0
1.067065 0.072691 0
1.039636 0.050823 0
1.012021 0.028496 0
0.982966 0.006189 0
0.953219 -0.017196 0
0.926839 -0.042774 0
0.910244 -0.070260 0
0.907637 -0.097512 0
0.919419 -0.120215 0
0.943603 -0.133230 0
0.977219 -0.132403 0
1.016945 -0.115711 0
1.059217 -0.083856 0
1.100029 -0.040642 0
1.134312 0.006136 0
1.157432 0.048298 0
1.169305 0.081951 0
1.171223 0.105958 0
1.164813 0.120023 0
1.151775 0.124559 0
1.133702 0.120612 0
1.111971 0.109800 0
1.087644 0.094222 0
1.061390 0.076265 0
1.033514 0.058212 0
1.004274 0.041653 0
0.974496 0.026929 0
0.946083 0.012965 0
0.921804 -0.002303 0
0.904455 -0.020490 0
0.896125 -0.041333 0
0.897348 -0.062680 0
0.907163 -0.081461 0
0.923874 -0.094703 0
0.945625 -0.100130 0
0.970658 -0.096390 0
0.997372 -0.083156 0
1.024307 -0.061225 0
1.050028 -0.032612 0
1.072768 -0.000977 0
1.090293 0.029116 0
1.101877 0.054294 0
1.107516 0.072644 0
1.107452 0.083114 0
1.102033 0.085663 0
1.091686 0.081265 0
1.076958 0.071680 0
1.058556 0.059017 0
1.037363 0.045212 0
1.014444 0.031614 0
0.991033 0.018512 0
0.968675 0.010275 0
1.000000 -0.009478 0
1.000553 -0.029598 0
1.001995 -0.053273 0
1.005168 -0.083228 0
1.012028 -0.122805 0
1.026879 -0.175938 0
1.059066 -0.244292 0
1.125894 -0.340172 0
1.297049 -0.349658 0
1.338583 -0.253108 0
1.329392 -0.174994 0
1.315407 -0.125608 0
1.303347 -0.093611 0
1.296235 -0.071625 0
1.297801 -0.052023 0
1.309905 -0.025708 0
1.325940 0.010487 0
1.331349 0.051055 0
1.324604 0.089242 0
1.307633 0.120965 0
1.282406 0.144277 0
1.250587 0.158069 0
1.214095 0.161534 0
1.175446 0.154347 0
1.137745 0.137191 0
1.103708 0.112297 0
1.073378 0.083024 0
1.043099 0.052032 0
1.009082 0.019456 0
0.971719 -0.018247 0
0.937519 -0.061319 0
0.919870 -0.102673 0
0.926231 -0.133329 0
0.955850 -0.144328 0
1.003670 -0.128805 0
1.061918 -0.086041 0
1.119763 -0.025249 0
1.163882 0.034832 0
1.188248 0.082068 0
1.197175 0.116405 0
1.194298 0.139758 0
1.182323 0.153951 0
1.163398 0.160360 0
1.139293 0.159919 0
1.111421 0.153250 0
1.080674 0.140931 0
1.047055 0.123908 0
1.009476 0.103970 0
0.966592 0.083588 0
0.919023 0.064337 0
0.871160 0.044778 0
0.830037 0.020381 0
0.801782 -0.013580 0
0.789508 -0.056335 0
0.792439 -0.100583 0
0.807718 -0.137922 0
0.832565 -0.162067 0
0.864828 -0.169064 0
0.902621 -0.157190 0
0.943903 -0.127181 0
0.986283 -0.082424 0
1.026769 -0.029090 0
1.060519 0.023486 0
1.084255 0.067863 0
1.098099 0.101559 0
1.102811 0.123958 0
1.099416 0.135411 0
1.088953 0.137073 0
1.072275 0.130817 0
1.049927 0.119137 0
1.022205 0.104810 0
0.989605 0.090126 0
0.953609 0.075888 0
0.917253 0.060942 0
0.884785 0.042951 0
0.860252 0.020095 0
0.845834 -0.007805 0
0.841513 -0.038796 0
0.845837 -0.069202 0
0.856904 -0.095191 0
0.873029 -0.113776 0
0.892892 -0.122927 0
0.915414 -0.121520 0
0.939618 -0.109382 0
0.964544 -0.087399 0
0.989220 -0.057570 0
1.012589 -0.022993 0
1.032943 0.011842 0
1.048560 0.042620 0
1.058787 0.066794 0
1.063282 0.083096 0
1.061892 0.091341 0
1.054630 0.092366 0
1.041721 0.087755 0
1.023706 0.079369 0
1.001599 0.068770 0
0.977007 0.056815 0
0.952117 0.043091 0
0.929920 0.033222 0
1.000000 -0.009218 0
0.998268 -0.028902 0
0.994746 -0.052512 0
0.989393 -0.083479 0
0.982639 -0.126922 0
0.976560 -0.191203 0
0.978425 -0.287405 0
1.010050 -0.473327 0
1.199467 -0.458316 0
1.145476 -0.239348 0
1.052708 -0.136971 0
1.000552 -0.094944 0
0.962796 -0.071355 0
0.934308 -0.060189 0
0.920759 -0.055854 0
0.931850 -0.044175 0
0.967911 -0.008249 0
1.007339 0.044510 0
1.029592 0.094743 0
1.039011 0.136450 0
1.036605 0.168241 0
1.022044 0.189144 0
0.995464 0.197737 0
0.957270 0.192752 0
0.907806 0.174535 0
0.847935 0.147395 0
0.781204 0.119255 0
0.715349 0.094933 0
0.660257 0.069973 0
0.624387 0.034304 0
0.610600 -0.020782 0
0.617295 -0.089091 0
0.642160 -0.149759 0
0.682808 -0.185320 0
0.737085 -0.187231 0
0.802477 -0.154454 0
0.874780 -0.093152 0
0.945589 -0.018439 0
1.001450 0.048942 0
1.038292 0.099528 0
1.059457 0.135881 0
1.067369 0.160547 0
1.063987 0.175325 0
1.050906 0.181530 0
1.029125 0.180412 0
0.998701 0.173696 0
0.958781 0.163855 0
0.908827 0.153152 0
0.851175 0.141276 0
0.792970 0.123930 0
0.744463 0.095179 0
0.713947 0.052188 0
0.703438 -0.002237 0
0.708033 -0.060908 0
0.721371 -0.115715 0
0.739822 -0.160335 0
0.762307 -0.190336 0
0.789021 -0.202458 0
0.820238 -0.194788 0
0.855526 -0.167522 0
0.893549 -0.123509 0
0.932272 -0.068099 0
0.968856 -0.009188 0
0.998668 0.044370 0
1.019912 0.087404 0
1.032330 0.118707 0
1.036087 0.138418 0
1.031458 0.147754 0
1.018635 0.148826 0
0.997786 0.144293 0
0.969485 0.136588 0
0.935464 0.126809 0
0.899137 0.114007 0
0.865163 0.095756 0
0.837998 0.069970 0
0.820363 0.036654 0
0.812669 -0.001745 0
0.813280 -0.041330 0
0.819837 -0.078066 0
0.830491 -0.108649 0
0.844123 -0.130687 0
0.860149 -0.142511 0
0.878231 -0.143113 0
0.898018 -0.132283 0
0.918990 -0.110824 0
0.940442 -0.080653 0
0.961522 -0.044695 0
0.981170 -0.006852 0
0.997563 0.028452 0
1.009457 0.057925 0
1.016082 0.080011 0
1.016923 0.094316 0
1.011720 0.101438 0
1.000572 0.102605 0
0.984111 0.099139 0
0.963665 0.091912 0
0.941266 0.081096 0
0.919408 0.065599 0
0.901078 0.053306 0
1.000000 -0.007758 0
0.996037 -0.024356 0
0.987526 -0.044399 0
0.973125 -0.071118 0
0.950518 -0.109962 0
0.915978 -0.171711 0
0.863799 -0.277775 0
0.789990 -0.561215 0
0.551492 -0.388506 0
0.490613 0.000000 0
0.418498 -0.020293 0
0.353170 -0.035689 0
0.338759 -0.027370 0
0.347858 -0.029593 0
0.358718 -0.049572 0
0.385310 -0.072868 0
0.440288 -0.065010 0
0.519710 -0.010634 0
0.592983 0.057564 0
0.644145 0.113945 0
0.675172 0.161237 0
0.684407 0.199205 0
0.670726 0.226305 0
0.633674 0.242003 0
0.574683 0.246529 0
0.499869 0.238907 0
0.422869 0.215619 0
0.362650 0.172990 0
0.334448 0.110430 0
0.342105 0.031419 0
0.375910 -0.054225 0
0.418077 -0.134237 0
0.460047 -0.198850 0
0.502684 -0.239261 0
0.550258 -0.248474 0
0.606359 -0.223735 0
0.671793 -0.168363 0
0.743862 -0.091840 0
0.814175 -0.010639 0
0.870167 0.058395 0
0.909262 0.110677 0
0.932945 0.149417 0
0.942236 0.176820 0
0.937815 0.194778 0
0.919890 0.205453 0
0.888469 0.211272 0
0.844641 0.213781 0
0.792651 0.211575 0
0.740881 0.199446 0
0.699414 0.171053 0
0.675173 0.123806 0
0.668905 0.061413 0
0.676293 -0.007657 0
0.690434 -0.074259 0
0.706066 -0.132365 0
0.721146 -0.178853 0
0.736014 -0.211264 0
0.752416 -0.226996 0
0.772421 -0.223698 0
0.797300 -0.200494 0
0.826836 -0.159170 0
0.859451 -0.104397 0
0.892791 -0.042910 0
0.923343 0.016807 0
0.947441 0.067898 0
0.963761 0.107784 0
0.971639 0.136284 0
0.970692 0.154525 0
0.960778 0.164489 0
0.942300 0.168288 0
0.916795 0.167133 0
0.887357 0.160475 0
0.858308 0.146192 0
0.833948 0.122085 0
0.817090 0.087755 0
0.808402 0.045430 0
0.806860 -0.000715 0
0.810558 -0.045958 0
0.817458 -0.086409 0
0.826139 -0.119472 0
0.835919 -0.143429 0
0.846724 -0.157032 0
0.858832 -0.159386 0
0.872540 -0.150137 0
0.887878 -0.129818 0
0.904471 -0.100097 0
0.921600 -0.063717 0
0.938313 -0.024197 0
0.953232 0.014335 0
0.964757 0.048278 0
0.971845 0.075632 0
0.973787 0.095704 0
0.970238 0.108719 0
0.961347 0.115365 0
0.947913 0.116276 0
0.931425 0.111616 0
0.913889 0.101072 0
0.897442 0.083279 0
0.884238 0.068536 0
1.000000 -0.005264 0
0.994438 -0.016436 0
0.982319 -0.029598 0
0.961266 -0.046465 0
0.926654 -0.069764 0
0.869387 -0.104474 0
0.770056 -0.161412 0
0.586532 -0.257605 0
0.000000 -0.158943 0
0.000000 0.000000 0
0.000000 0.000000 0
-0.030538 -0.025450 0
-0.048132 -0.066048 0
-0.040654 -0.080154 0
-0.043134 -0.093313 0
-0.034580 -0.125753 0
0.000885 -0.142656 0
0.072392 -0.108192 0
0.173243 -0.029700 0
0.262205 0.054254 0
0.316629 0.127974 0
0.344873 0.193586 0
0.347425 0.248468 0
0.326795 0.288795 0
0.291400 0.308346 0
0.255622 0.299218 0
0.235183 0.256483 0
0.239809 0.183365 0
0.269540 0.090529 0
0.314532 -0.007152 0
0.358849 -0.096755 0
0.395321 -0.173234 0
0.422861 -0.234375 0
0.444869 -0.275533 0
0.467876 -0.290905 0
0.498862 -0.275992 0
0.542169 -0.230658 0
0.597598 -0.160823 0
0.660654 -0.077367 0
0.721122 0.004438 0
0.768216 0.073099 0
0.799942 0.127569 0
0.816128 0.170452 0
0.816769 0.203873 0
0.802329 0.229755 0
0.774743 0.248943 0
0.738774 0.259672 0
0.702420 0.256911 0
0.674812 0.234516 0
0.662185 0.189643 0
0.665194 0.125694 0
0.679794 0.051076 0
0.699816 -0.023758 0
0.719028 -0.090673 0
0.734261 -0.146421 0
0.744450 -0.190280 0
0.750342 -0.221605 0
0.754325 -0.238867 0
0.759837 -0.239675 0
0.770118 -0.221937 0
0.786823 -0.185660 0
0.809403 -0.134054 0
0.835610 -0.073079 0
0.862393 -0.010279 0
0.885582 0.046986 0
0.902635 0.094511 0
0.912232 0.131488 0
0.913663 0.158616 0
0.906884 0.177219 0
0.892887 0.188276 0
0.874029 0.191532 0
0.853857 0.185299 0
0.836182 0.167419 0
0.823803 0.136978 0
0.817726 0.095521 0
0.817343 0.046889 0
0.821185 -0.003896 0
0.827434 -0.051923 0
0.834451 -0.093642 0
0.841114 -0.127106 0
0.846933 -0.151268 0
0.852088 -0.165420 0
0.857313 -0.168926 0
0.863577 -0.161324 0
0.871640 -0.142749 0
0.881711 -0.114371 0
0.893374 -0.078534 0
0.905744 -0.038481 0
0.917646 0.002010 0
0.927512 0.039314 0
0.934144 0.070983 0
0.936767 0.095925 0
0.935054 0.113880 0
0.929236 0.124931 0
0.920156 0.129062 0
0.909174 0.125936 0
0.897877 0.115079 0
0.887692 0.095250 0
0.879733 0.078611 0
1.000000 -0.002202 0
0.993918 -0.006680 0
0.980695 -0.011221 0
0.957862 -0.015443 0
0.920708 -0.018072 0
0.860524 -0.015104 0
0.760756 0.005084 0
0.588174 0.106427 0
0.274600 0.095610 0
0.000000 0.000000 0
0.000000 0.000000 0
0.000000 0.000000 0
-0.027647 -0.019454 0
-0.112778 -0.034597 0
-0.176460 -0.055653 0
-0.197537 -0.116894 0
-0.190301 -0.171989 0
-0.156299 -0.182998 0
-0.088256 -0.132256 0
-0.001366 -0.029446 0
0.069645 0.078564 0
0.118213 0.168407 0
0.147370 0.244382 0
0.162870 0.298030 0
0.175428 0.317709 0
0.197403 0.295132 0
0.236844 0.231443 0
0.293867 0.138645 0
0.360305 0.035715 0
0.418697 -0.057888 0
0.461528 -0.135018 0
0.487927 -0.198256 0
0.498406 -0.248403 0
0.496200 -0.284276 0
0.488095 -0.302468 0
0.483542 -0.298032 0
0.491509 -0.267102 0
0.516523 -0.210328 0
0.556768 -0.134166 0
0.605313 -0.049171 0
0.650448 0.031854 0
0.683920 0.101502 0
0.703742 0.159989 0
0.709700 0.208574 0
0.703340 0.247477 0
0.688654 0.274826 0
0.672207 0.286103 0
0.661643 0.275539 0
0.662680 0.239685 0
0.676641 0.180676 0
0.700651 0.106204 0
0.729765 0.026799 0
0.757570 -0.046884 0
0.779749 -0.108697 0
0.794415 -0.157782 0
0.800775 -0.194932 0
0.799227 -0.221140 0
0.791779 -0.236493 0
0.782191 -0.239491 0
0.775214 -0.227479 0
0.774885 -0.198455 0
0.782852 -0.153184 0
0.797936 -0.095900 0
0.817094 -0.033164 0
0.836331 0.027657 0
0.852015 0.081134 0
0.862220 0.125257 0
0.866087 0.159874 0
0.863806 0.185265 0
0.856769 0.201144 0
0.847478 0.206164 0
0.838934 0.198325 0
0.833639 0.176250 0
0.832794 0.140545 0
0.836210 0.094220 0
0.842825 0.041976 0
0.851253 -0.010801 0
0.859854 -0.059218 0
0.867274 -0.100084 0
0.872510 -0.131950 0
0.875034 -0.154399 0
0.874991 -0.167408 0
0.873285 -0.170871 0
0.871391 -0.164458 0