# vtk DataFile Version 2.0
generated by CFD-lab course output (written by Tobias Neckel) 
ASCII

DATASET STRUCTURED_GRID
DIMENSIONS  99 19 1 
POINTS 1881 float

0.000000 0.000000 0
0.100000 0.000000 0
0.200000 0.000000 0
0.300000 0.000000 0
0.400000 0.000000 0
0.500000 0.000000 0
0.600000 0.000000 0
0.700000 0.000000 0
0.800000 0.000000 0
0.900000 0.000000 0
1.000000 0.000000 0
1.100000 0.000000 0
1.200000 0.000000 0
1.300000 0.000000 0
1.400000 0.000000 0
1.500000 0.000000 0
1.600000 0.000000 0
1.700000 0.000000 0
1.800000 0.000000 0
1.900000 0.000000 0
2.000000 0.000000 0
2.100000 0.000000 0
2.200000 0.000000 0
2.300000 0.000000 0
2.400000 0.000000 0
2.500000 0.000000 0
2.600000 0.000000 0
2.700000 0.000000 0
2.800000 0.000000 0
2.900000 0.000000 0
3.000000 0.000000 0
3.100000 0.000000 0
3.200000 0.000000 0
3.300000 0.000000 0
3.400000 0.000000 0
3.500000 0.000000 0
3.600000 0.000000 0
3.700000 0.000000 0
3.800000 0.000000 0
3.900000 0.000000 0
4.000000 0.000000 0
4.100000 0.000000 0
4.200000 0.000000 0
4.300000 0.000000 0
4.400000 0.000000 0
4.500000 0.000000 0
4.600000 0.000000 0
4.700000 0.000000 0
4.800000 0.000000 0
4.900000 0.000000 0
5.000000 0.000000 0
5.100000 0.000000 0
5.200000 0.000000 0
5.300000 0.000000 0
5.400000 0.000000 0
5.500000 0.000000 0
5.600000 0.000000 0
5.700000 0.000000 0
5.800000 0.000000 0
5.900000 0.000000 0
6.000000 0.000000 0
6.100000 0.000000 0
6.200000 0.000000 0
6.300000 0.000000 0
6.400000 0.000000 0
6.500000 0.000000 0
6.600000 0.000000 0
6.700000 0.000000 0
6.800000 0.000000 0
6.900000 0.000000 0
7.000000 0.000000 0
7.100000 0.000000 0
7.200000 0.000000 0
7.300000 0.000000 0
7.400000 0.000000 0
7.500000 0.000000 0
7.600000 0.000000 0
7.700000 0.000000 0
7.800000 0.000000 0
7.900000 0.000000 0
8.000000 0.000000 0
8.100000 0.000000 0
8.200000 0.000000 0
8.300000 0.000000 0
8.400000 0.000000 0
8.500000 0.000000 0
8.600000 0.000000 0
8.700000 0.000000 0
8.800000 0.000000 0
8.900000 0.000000 0
9.000000 0.000000 0
9.100000 0.000000 0
9.200000 0.000000 0
9.300000 0.000000 0
9.400000 0.000000 0
9.500000 0.000000 0
9.600000 0.000000 0
9.700000 0.000000 0
9.800000 0.000000 0
0.000000 0.100000 0
0.100000 0.100000 0
0.200000 0.100000 0
0.300000 0.100000 0
0.400000 0.100000 0
0.500000 0.100000 0
0.600000 0.100000 0
0.700000 0.100000 0
0.800000 0.100000 0
0.900000 0.100000 0
1.000000 0.100000 0
1.100000 0.100000 0
1.200000 0.100000 0
1.300000 0.100000 0
1.400000 0.100000 0
1.500000 0.100000 0
1.600000 0.100000 0
1.700000 0.100000 0
1.800000 0.100000 0
1.900000 0.100000 0
2.000000 0.100000 0
2.100000 0.100000 0
2.200000 0.100000 0
2.300000 0.100000 0
2.400000 0.100000 0
2.500000 0.100000 0
2.600000 0.100000 0
2.700000 0.100000 0
2.800000 0.100000 0
2.900000 0.100000 0
3.000000 0.100000 0
3.100000 0.100000 0
3.200000 0.100000 0
3.300000 0.100000 0
3.400000 0.100000 0
3.500000 0.100000 0
3.600000 0.100000 0
3.700000 0.100000 0
3.800000 0.100000 0
3.900000 0.100000 0
4.000000 0.100000 0
4.100000 0.100000 0
4.200000 0.100000 0
4.300000 0.100000 0
4.400000 0.100000 0
4.500000 0.100000 0
4.600000 0.100000 0
4.700000 0.100000 0
4.800000 0.100000 0
4.900000 0.100000 0
5.000000 0.100000 0
5.100000 0.100000 0
5.200000 0.100000 0
5.300000 0.100000 0
5.400000 0.100000 0
5.500000 0.100000 0
5.600000 0.100000 0
5.700000 0.100000 0
5.800000 0.100000 0
5.900000 0.100000 0
6.000000 0.100000 0
6.100000 0.100000 0
6.200000 0.100000 0
6.300000 0.100000 0
6.400000 0.100000 0
6.500000 0.100000 0
6.600000 0.100000 0
6.700000 0.100000 0
6.800000 0.100000 0
6.900000 0.100000 0
7.000000 0.100000 0
7.100000 0.100000 0
7.200000 0.100000 0
7.300000 0.100000 0
7.400000 0.100000 0
7.500000 0.100000 0
7.600000 0.100000 0
7.700000 0.100000 0
7.800000 0.100000 0
7.900000 0.100000 0
8.000000 0.100000 0
8.100000 0.100000 0
8.200000 0.100000 0
8.300000 0.100000 0
8.400000 0.100000 0
8.500000 0.100000 0
8.600000 0.100000 0
8.700000 0.100000 0
8.800000 0.100000 0
8.900000 0.100000 0
9.000000 0.100000 0
9.100000 0.100000 0
9.200000 0.100000 0
9.300000 0.100000 0
9.400000 0.100000 0
9.500000 0.100000 0
9.600000 0.100000 0
9.700000 0.100000 0
9.800000 0.100000 0
0.000000 0.200000 0
0.100000 0.200000 0
0.200000 0.200000 0
0.300000 0.200000 0
0.400000 0.200000 0
0.500000 0.200000 0
0.600000 0.200000 0
0.700000 0.200000 0
0.800000 0.200000 0
0.900000 0.200000 0
1.000000 0.200000 0
1.100000 0.200000 0
1.200000 0.200000 0
1.300000 0.200000 0
1.400000 0.200000 0
1.500000 0.200000 0
1.600000 0.200000 0
1.700000 0.200000 0
1.800000 0.200000 0
1.900000 0.200000 0
2.000000 0.200000 0
2.100000 0.200000 0
2.200000 0.200000 0
2.300000 0.200000 0
2.400000 0.200000 0
2.500000 0.200000 0
2.600000 0.200000 0
2.700000 0.200000 0
2.800000 0.200000 0
2.900000 0.200000 0
3.000000 0.200000 0
3.100000 0.200000 0
3.200000 0.200000 0
3.300000 0.200000 0
3.400000 0.200000 0
3.500000 0.200000 0
3.600000 0.200000 0
3.700000 0.200000 0
3.800000 0.200000 0
3.900000 0.200000 0
4.000000 0.200000 0
4.100000 0.200000 0
4.200000 0.200000 0
4.300000 0.200000 0
4.400000 0.200000 0
4.500000 0.200000 0
4.600000 0.200000 0
4.700000 0.200000 0
4.800000 0.200000 0
4.900000 0.200000 0
5.000000 0.200000 0
5.100000 0.200000 0
5.200000 0.200000 0
5.300000 0.200000 0
5.400000 0.200000 0
5.500000 0.200000 0
5.600000 0.200000 0
5.700000 0.200000 0
5.800000 0.200000 0
5.900000 0.200000 0
6.000000 0.200000 0
6.100000 0.200000 0
6.200000 0.200000 0
6.300000 0.200000 0
6.400000 0.200000 0
6.500000 0.200000 0
6.600000 0.200000 0
6.700000 0.200000 0
6.800000 0.200000 0
6.900000 0.200000 0
7.000000 0.200000 0
7.100000 0.200000 0
7.200000 0.200000 0
7.300000 0.200000 0
7.400000 0.200000 0
7.500000 0.200000 0
7.600000 0.200000 0
7.700000 0.200000 0
7.800000 0.200000 0
7.900000 0.200000 0
8.000000 0.200000 0
8.100000 0.200000 0
8.200000 0.200000 0
8.300000 0.200000 0
8.400000 0.200000 0
8.500000 0.200000 0
8.600000 0.200000 0
8.700000 0.200000 0
8.800000 0.200000 0
8.900000 0.200000 0
9.000000 0.200000 0
9.100000 0.200000 0
9.200000 0.200000 0
9.300000 0.200000 0
9.400000 0.200000 0
9.500000 0.200000 0
9.600000 0.200000 0
9.700000 0.200000 0
9.800000 0.200000 0
0.000000 0.300000 0
0.100000 0.300000 0
0.200000 0.300000 0
0.300000 0.300000 0
0.400000 0.300000 0
0.500000 0.300000 0
0.600000 0.300000 0
0.700000 0.300000 0
0.800000 0.300000 0
0.900000 0.300000 0
1.000000 0.300000 0
1.100000 0.300000 0
1.200000 0.300000 0
1.300000 0.300000 0
1.400000 0.300000 0
1.500000 0.300000 0
1.600000 0.300000 0
1.700000 0.300000 0
1.800000 0.300000 0
1.900000 0.300000 0
2.000000 0.300000 0
2.100000 0.300000 0
2.200000 0.300000 0
2.300000 0.300000 0
2.400000 0.300000 0
2.500000 0.300000 0
2.600000 0.300000 0
2.700000 0.300000 0
2.800000 0.300000 0
2.900000 0.300000 0
3.000000 0.300000 0
3.100000 0.300000 0
3.200000 0.300000 0
3.300000 0.300000 0
3.400000 0.300000 0
3.500000 0.300000 0
3.600000 0.300000 0
3.700000 0.300000 0
3.800000 0.300000 0
3.900000 0.300000 0
4.000000 0.300000 0
4.100000 0.300000 0
4.200000 0.300000 0
4.300000 0.300000 0
4.400000 0.300000 0
4.500000 0.300000 0
4.600000 0.300000 0
4.700000 0.300000 0
4.800000 0.300000 0
4.900000 0.300000 0
5.000000 0.300000 0
5.100000 0.300000 0
5.200000 0.300000 0
5.300000 0.300000 0
5.400000 0.300000 0
5.500000 0.300000 0
5.600000 0.300000 0
5.700000 0.300000 0
5.800000 0.300000 0
5.900000 0.300000 0
6.000000 0.300000 0
6.100000 0.300000 0
6.200000 0.300000 0
6.300000 0.300000 0
6.400000 0.300000 0
6.500000 0.300000 0
6.600000 0.300000 0
6.700000 0.300000 0
6.800000 0.300000 0
6.900000 0.300000 0
7.000000 0.300000 0
7.100000 0.300000 0
7.200000 0.300000 0
7.300000 0.300000 0
7.400000 0.300000 0
7.500000 0.300000 0
7.600000 0.300000 0
7.700000 0.300000 0
7.800000 0.300000 0
7.900000 0.300000 0
8.000000 0.300000 0
8.100000 0.300000 0
8.200000 0.300000 0
8.300000 0.300000 0
8.400000 0.300000 0
8.500000 0.300000 0
8.600000 0.300000 0
8.700000 0.300000 0
8.800000 0.300000 0
8.900000 0.300000 0
9.000000 0.300000 0
9.100000 0.300000 0
9.200000 0.300000 0
9.300000 0.300000 0
9.400000 0.300000 0
9.500000 0.300000 0
9.600000 0.300000 0
9.700000 0.300000 0
9.800000 0.300000 0
0.000000 0.400000 0
0.100000 0.400000 0
0.200000 0.400000 0
0.300000 0.400000 0
0.400000 0.400000 0
0.500000 0.400000 0
0.600000 0.400000 0
0.700000 0.400000 0
0.800000 0.400000 0
0.900000 0.400000 0
1.000000 0.400000 0
1.100000 0.400000 0
1.200000 0.400000 0
1.300000 0.400000 0
1.400000 0.400000 0
1.500000 0.400000 0
1.600000 0.400000 0
1.700000 0.400000 0
1.800000 0.400000 0
1.900000 0.400000 0
2.000000 0.400000 0
2.100000 0.400000 0
2.200000 0.400000 0
2.300000 0.400000 0
2.400000 0.400000 0
2.500000 0.400000 0
2.600000 0.400000 0
2.700000 0.400000 0
2.800000 0.400000 0
2.900000 0.400000 0
3.000000 0.400000 0
3.100000 0.400000 0
3.200000 0.400000 0
3.300000 0.400000 0
3.400000 0.400000 0
3.500000 0.400000 0
3.600000 0.400000 0
3.700000 0.400000 0
3.800000 0.400000 0
3.900000 0.400000 0
4.000000 0.400000 0
4.100000 0.400000 0
4.200000 0.400000 0
4.300000 0.400000 0
4.400000 0.400000 0
4.500000 0.400000 0
4.600000 0.400000 0
4.700000 0.400000 0
4.800000 0.400000 0
4.900000 0.400000 0
5.000000 0.400000 0
5.100000 0.400000 0
5.200000 0.400000 0
5.300000 0.400000 0
5.400000 0.400000 0
5.500000 0.400000 0
5.600000 0.400000 0
5.700000 0.400000 0
5.800000 0.400000 0
5.900000 0.400000 0
6.000000 0.400000 0
6.100000 0.400000 0
6.200000 0.400000 0
6.300000 0.400000 0
6.400000 0.400000 0
6.500000 0.400000 0
6.600000 0.400000 0
6.700000 0.400000 0
6.800000 0.400000 0
6.900000 0.400000 0
7.000000 0.400000 0
7.100000 0.400000 0
7.200000 0.400000 0
7.300000 0.400000 0
7.400000 0.400000 0
7.500000 0.400000 0
7.600000 0.400000 0
7.700000 0.400000 0
7.800000 0.400000 0
7.900000 0.400000 0
8.000000 0.400000 0
8.100000 0.400000 0
8.200000 0.400000 0
8.300000 0.400000 0
8.400000 0.400000 0
8.500000 0.400000 0
8.600000 0.400000 0
8.700000 0.400000 0
8.800000 0.400000 0
8.900000 0.400000 0
9.000000 0.400000 0
9.100000 0.400000 0
9.200000 0.400000 0
9.300000 0.400000 0
9.400000 0.400000 0
[...]
POINT_DATA 1881 

VECTORS velocity float
0.500000 0.000000 0
0.502227 0.000000 0
0.507115 0.000000 0
0.515050 0.000000 0
0.526393 0.000000 0
0.541410 0.000000 0
0.560027 0.000000 0
0.581553 0.000000 0
0.604444 0.000000 0
0.626255 0.000000 0
0.644928 0.000000 0
0.659430 0.000000 0
0.669609 0.000000 0
0.675882 0.000000 0
0.678985 0.000000 0
0.679819 0.000000 0
0.679332 0.000000 0
0.678420 0.000000 0
0.677800 0.000000 0
0.677862 0.000000 0
0.678513 0.000000 0
0.679157 0.000000 0
0.678889 0.000000 0
0.676798 0.000000 0
0.672242 0.000000 0
0.664959 0.000000 0
0.655006 0.000000 0
0.642713 0.000000 0
0.628582 0.000000 0
0.613225 0.000000 0
0.597322 0.000000 0
0.581584 0.000000 0
0.566734 0.000000 0
0.553492 0.000000 0
0.542581 0.000000 0
0.534766 0.000000 0
0.530907 0.000000 0
0.531831 0.000000 0
0.537932 0.000000 0
0.549040 0.000000 0
0.564276 0.000000 0
0.581999 0.000000 0
0.599956 0.000000 0
0.615634 0.000000 0
0.626817 0.000000 0
0.632202 0.000000 0
0.631646 0.000000 0
0.625611 0.000000 0
0.614885 0.000000 0
0.600472 0.000000 0
0.583473 0.000000 0
0.564980 0.000000 0
0.546023 0.000000 0
0.527550 0.000000 0
0.510442 0.000000 0
0.495547 0.000000 0
0.483698 0.000000 0
0.475691 0.000000 0
0.472171 0.000000 0
0.473336 0.000000 0
0.478791 0.000000 0
0.487984 0.000000 0
0.500341 0.000000 0
0.515284 0.000000 0
0.532175 0.000000 0
0.550210 0.000000 0
0.568281 0.000000 0
0.584912 0.000000 0
0.598363 0.000000 0
0.607002 0.000000 0
0.609840 0.000000 0
0.606760 0.000000 0
0.598080 0.000000 0
0.584427 0.000000 0
0.566770 0.000000 0
0.546394 0.000000 0
0.524851 0.000000 0
0.503872 0.000000 0
0.485202 0.000000 0
0.470372 0.000000 0
0.460446 0.000000 0
0.455814 0.000000 0
0.456056 0.000000 0
0.460022 0.000000 0
0.466611 0.000000 0
0.475031 0.000000 0
0.484780 0.000000 0
0.495569 0.000000 0
0.507197 0.000000 0
0.519424 0.000000 0
0.531843 0.000000 0
0.543789 0.000000 0
0.554333 0.000000 0
0.562378 0.000000 0
0.566895 0.000000 0
0.567210 0.000000 0
0.562993 0.000000 0
0.554008 0.000000 0
0.539700 0.000000 0
1.000000 -0.002212 0
1.005022 -0.007088 0
1.015446 -0.012799 0
1.031954 -0.019261 0
1.055361 -0.026347 0
1.086388 -0.033623 0
1.125180 -0.040142 0
1.170596 -0.044424 0
1.219592 -0.044712 0
1.265985 -0.040497 0
1.305078 -0.033191 0
1.334968 -0.024698 0
1.355694 -0.016470 0
1.368340 -0.009395 0
1.374533 -0.003955 0
1.376172 -0.000362 0
1.375249 0.001396 0
1.373656 0.001542 0
1.372959 0.000576 0
1.374077 -0.000689 0
1.376868 -0.001270 0
1.379961 -0.000355 0
1.381207 0.002371 0
1.378547 0.006646 0
1.370638 0.011842 0
1.356950 0.017244 0
1.337691 0.022248 0
1.313596 0.026426 0
1.285735 0.029486 0
1.255382 0.031255 0
1.223923 0.031634 0
1.192804 0.030578 0
1.163483 0.028080 0
1.137396 0.024140 0
1.115942 0.018711 0
1.100509 0.011659 0
1.092480 0.002920 0
1.093185 -0.007039 0
1.103625 -0.017222 0
1.123935 -0.026353 0
1.152886 -0.032962 0
1.187769 -0.035678 0
1.224586 -0.033628 0
1.258506 -0.026850 0
1.284701 -0.016555 0
1.299564 -0.004817 0
1.301786 0.006601 0
1.292257 0.016768 0
1.272756 0.025140 0
1.245477 0.031410 0
1.212755 0.035489 0
1.176874 0.037446 0
1.139956 0.037426 0
1.103938 0.035575 0
1.070574 0.031996 0
1.041451 0.026737 0
1.017942 0.019850 0
1.001089 0.011520 0
0.991471 0.002347 0
0.989206 -0.006628 0
0.994051 -0.014655 0
1.005518 -0.021558 0
1.023021 -0.027307 0
1.045926 -0.031840 0
1.073509 -0.034930 0
1.104768 -0.036108 0
1.138118 -0.034701 0
1.171180 -0.030079 0
1.200827 -0.022085 0
1.223550 -0.011471 0
1.236174 0.000247 0
1.236923 0.011764 0
1.226137 0.022336 0
1.205152 0.031311 0
1.175961 0.038032 0
1.141105 0.041915 0
1.103523 0.042517 0
1.066339 0.039645 0
1.032540 0.033495 0
1.004568 0.024752 0
0.983934 0.014555 0
0.971029 0.004387 0
0.965307 -0.004210 0
0.965724 -0.010556 0
0.970989 -0.015009 0
0.980029 -0.018169 0
0.992146 -0.020539 0
1.006988 -0.022417 0
1.024393 -0.023856 0
1.044144 -0.024646 0
1.065709 -0.024365 0
1.088058 -0.022491 0
1.109606 -0.018589 0
1.128306 -0.012561 0
1.141874 -0.004832 0
1.148171 0.003902 0
1.145867 0.013202 0
1.134690 0.023293 0
1.114418 0.029714 0
1.000000 -0.004996 0
1.005185 -0.015405 0
1.015624 -0.026907 0
1.032042 -0.039899 0
1.055591 -0.054422 0
1.087647 -0.069815 0
1.129380 -0.084214 0
1.180588 -0.094422 0
1.239142 -0.095405 0
1.292876 -0.085505 0
1.335355 -0.069001 0
1.365826 -0.050636 0
1.385638 -0.033394 0
1.396629 -0.018861 0
1.400840 -0.007853 0
1.400434 -0.000724 0
1.397634 0.002527 0
1.394642 0.002312 0
1.393444 -0.000392 0
1.395500 -0.003879 0
1.400944 -0.005860 0
1.407899 -0.004323 0
1.413080 0.001413 0
1.413558 0.010567 0
1.407759 0.021605 0
1.395263 0.032953 0
1.376560 0.043357 0
1.352624 0.051954 0
1.324694 0.058210 0
1.294133 0.061805 0
1.262370 0.062566 0
1.230860 0.060425 0
1.201039 0.055393 0
1.174266 0.047524 0
1.151776 0.036869 0
1.134676 0.023444 0
1.123964 0.007307 0
1.120700 -0.011162 0
1.126148 -0.030763 0
1.140990 -0.049265 0
1.164807 -0.063833 0
1.196151 -0.071693 0
1.232553 -0.070724 0
1.270265 -0.060098 0
1.304244 -0.041043 0
1.328938 -0.017072 0
1.340194 0.007315 0
1.337755 0.029031 0
1.323821 0.046777 0
1.300967 0.059997 0
1.271816 0.068598 0
1.238835 0.072793 0
1.204237 0.072929 0
1.169953 0.069375 0
1.137622 0.062479 0
1.108558 0.052624 0
1.083679 0.040353 0
1.063429 0.026461 0
1.047791 0.011873 0
1.036605 -0.002590 0
1.029926 -0.016321 0
1.027899 -0.028979 0
1.030821 -0.040416 0
1.039131 -0.050493 0
1.053382 -0.058845 0
1.073871 -0.064608 0
1.100133 -0.066409 0
1.130666 -0.062703 0
1.162937 -0.052363 0
1.193526 -0.035341 0
1.218385 -0.013367 0
1.233683 0.010041 0
1.237704 0.031771 0
1.231338 0.050174 0
1.216275 0.064043 0
1.194677 0.072433 0
1.168938 0.074760 0
1.141423 0.070978 0
1.114213 0.061766 0
1.088884 0.048601 0
1.066403 0.033536 0
1.047186 0.018624 0
1.031383 0.005304 0
1.019180 -0.005683 0
1.010496 -0.014306 0
1.005177 -0.021157 0
1.003318 -0.026960 0
1.005272 -0.032248 0
1.011496 -0.037156 0
1.022279 -0.041316 0
1.037443 -0.043914 0
1.056220 -0.043897 0
1.077291 -0.040248 0
1.098888 -0.032267 0
1.118871 -0.019865 0
1.134846 -0.003994 0
1.144663 0.013481 0
1.147530 0.031449 0
1.144061 0.042670 0
1.000000 -0.007376 0
1.004201 -0.022689 0
1.012924 -0.039657 0
1.027152 -0.059231 0
1.048580 -0.081958 0
1.079739 -0.107424 0
1.123860 -0.133093 0
1.183235 -0.154194 0
1.261278 -0.157008 0
1.325578 -0.136719 0
1.369235 -0.106148 0
1.396522 -0.074987 0
1.411719 -0.047282 0
1.417595 -0.024603 0
1.416508 -0.007756 0
1.410649 0.002863 0
1.402493 0.007213 0
1.394737 0.005753 0
1.389981 -0.000266 0
1.390658 -0.008182 0
1.398114 -0.013675 0
1.410112 -0.012508 0
1.421279 -0.003303 0
1.426195 0.011973 0
1.422705 0.030141 0
1.410866 0.048440 0
1.391777 0.064887 0
1.366884 0.078286 0
1.337666 0.087970 0
1.305579 0.093572 0
1.272075 0.094899 0
1.238606 0.091901 0
1.206576 0.084668 0
1.177245 0.073395 0
1.151638 0.058294 0
1.130531 0.039466 0
1.114495 0.016891 0
1.103947 -0.009225 0
1.099530 -0.037508 0
1.102333 -0.065004 0
1.113108 -0.088113 0
1.132694 -0.103413 0
1.161409 -0.107731 0
1.197799 -0.098533 0
1.237868 -0.075224 0
1.275223 -0.040770 0
1.302428 -0.002225 0
1.314332 0.033131 0
1.312139 0.061923 0
1.298776 0.083411 0
1.277173 0.097617 0
1.250002 0.105022 0
1.219599 0.106304 0
1.187930 0.102187 0
1.156582 0.093389 0
1.126762 0.080678 0
1.099286 0.064975 0
1.074572 0.047404 0
1.052614 0.029167 0
1.033011 0.011234 0
1.015246 -0.005953 0
0.999325 -0.022455 0
0.986563 -0.038539 0
0.979419 -0.054399 0
0.980291 -0.069667 0
0.990510 -0.082855 0
1.009810 -0.091492 0
1.036567 -0.092878 0
1.068300 -0.084941 0
1.102065 -0.066918 0
1.134601 -0.039912 0
1.162223 -0.007557 0
1.181124 0.024677 0
1.190149 0.052735 0
1.190161 0.074688 0
1.182561 0.089249 0
1.168991 0.095769 0
1.151079 0.094367 0
1.130281 0.086033 0
1.107827 0.072563 0
1.084757 0.056254 0
1.061942 0.039407 0
1.040000 0.023796 0
1.019279 0.010330 0
1.000229 -0.001007 0
0.983541 -0.010992 0
0.970337 -0.020634 0
0.962112 -0.030595 0
0.960098 -0.040863 0
0.964756 -0.050593 0
0.975663 -0.058307 0
0.991717 -0.062338 0
1.011444 -0.061256 0
1.033242 -0.054142 0
1.055527 -0.040790 0
1.076757 -0.021890 0
1.095220 0.000518 0
1.109295 0.023895 0
1.118893 0.038703 0
1.000000 -0.009180 0
1.002781 -0.028315 0
1.008725 -0.049861 0
1.018934 -0.075558 0
1.035551 -0.107016 0
1.062432 -0.145103 0
1.106016 -0.187718 0
1.174230 -0.231848 0
1.290224 -0.237754 0
1.360774 -0.193468 0
1.394226 -0.139953 0
1.409669 -0.093128 0
1.415150 -0.054473 0
1.412815 -0.023650 0
1.403865 -0.000891 0
1.389597 0.013313 0
1.372731 0.018457 0
1.356663 0.014839 0
1.344701 0.003692 0
1.339809 -0.012017 0
1.345908 -0.025328 0
1.362420 -0.027504 0
1.382908 -0.014666 0
1.397189 0.009150 0
1.399377 0.036931 0
1.390627 0.063877 0
1.373285 0.087334 0
1.349447 0.106060 0
1.320767 0.119508 0
1.288662 0.127389 0
1.254524 0.129532 0
1.219796 0.125918 0
1.185906 0.116747 0
1.154064 0.102455 0
1.125001 0.083578 0
1.098861 0.060582 0
1.075265 0.033889 0
1.053180 0.003807 0
1.031268 -0.029142 0
1.011055 -0.062835 0
0.998220 -0.094184 0
0.998435 -0.119984 0
1.014558 -0.135820 0
1.045809 -0.136554 0
1.088526 -0.118469 0
1.136834 -0.081639 0
1.182939 -0.031803 0
1.217830 0.019315 0
1.236348 0.062331 0
1.240764 0.094959 0
1.233956 0.117370 0
1.218632 0.130364 0
1.197208 0.134998 0
1.171771 0.132389 0
1.144052 0.123644 0
1.115406 0.109916 0
1.086720 0.092539 0
1.058238 0.073129 0
1.029463 0.053430 0
0.999577 0.034775 0
0.968544 0.017362 0
0.938214 -0.000297 0
0.912251 -0.020508 0
0.895085 -0.044218 0
0.889789 -0.069932 0
0.896592 -0.094124 0
0.913801 -0.112462 0
0.939024 -0.121190 0
0.969793 -0.117859 0
1.003733 -0.101642 0
1.038530 -0.073527 0
1.071753 -0.036486 0
1.100256 0.003841 0
1.120743 0.041133 0
1.132711 0.071628 0
1.136687 0.093600 0
1.133554 0.106240 0
1.124312 0.109687 0
1.109940 0.105018 0
1.091341 0.094125 0
1.069324 0.079420 0
1.044615 0.063381 0
1.017966 0.047966 0
0.990426 0.034087 0
0.963633 0.021431 0
0.939785 0.008734 0
0.921133 -0.005532 0
0.909400 -0.022009 0
0.905478 -0.039800 0
0.909131 -0.056881 0
0.919285 -0.070875 0
0.934513 -0.079679 0
0.953347 -0.081774 0
0.974431 -0.076350 0
0.996569 -0.063379 0
1.018728 -0.043687 0
1.039977 -0.019058 0
1.059084 0.007776 0
1.074816 0.025384 0
1.000000 -0.010145 0
1.000835 -0.031406 0
1.002747 -0.055813 0
1.006559 -0.086062 0
1.014211 -0.125464 0
1.030049 -0.177896 0
1.063556 -0.244898 0
1.132311 -0.338408 0
1.307114 -0.343559 0
1.352014 -0.240726 0
1.346169 -0.155051 0
1.335984 -0.095919 0
1.327282 -0.050430 0
1.316436 -0.013307 0
1.298124 0.015483 0
1.272518 0.034015 0
1.242801 0.040159 0
1.213445 0.033789 0
1.188828 0.016585 0
1.172114 -0.009402 0
1.166879 -0.036300 0
1.179303 -0.049508 0
1.208386 -0.038064 0
1.242844 -0.004496 0
1.265699 0.036700 0
1.272282 0.074527 0
1.267876 0.106062 0
1.255430 0.130797 0
1.236435 0.148747 0
1.211973 0.159809 0
1.183267 0.163759 0
1.151827 0.160513 0
1.119287 0.150394 0
1.086772 0.134297 0
1.053755 0.113493 0
1.017509 0.089199 0
0.974974 0.062575 0
0.926566 0.034777 0
0.877823 0.004624 0
0.837060 -0.031946 0
0.813062 -0.075484 0
0.809747 -0.119742 0
0.825629 -0.155101 0
0.857454 -0.172501 0
0.901700 -0.166255 0
0.954496 -0.135192 0
1.011059 -0.083225 0
1.064726 -0.020279 0
1.106285 0.038986 0
1.132288 0.085799 0
1.144767 0.119745 0
1.145900 0.141767 0
1.137789 0.153162 0
1.122357 0.155340 0
1.101217 0.149750 0
1.075475 0.138006 0
1.045486 0.122139 0
1.010871 0.104657 0
0.971287 0.087825 0
0.927968 0.072150 0
0.884865 0.055409 0
0.847912 0.033839 0
0.822243 0.004591 0
0.810028 -0.031934 0
0.810465 -0.071170 0
0.821035 -0.106862 0
0.839215 -0.133920 0
0.863111 -0.148868 0
0.891299 -0.149650 0
0.922472 -0.135657 0
0.955235 -0.107936 0
0.988050 -0.069287 0
1.019112 -0.024316 0
1.045417 0.020277 0
1.064669 0.058742 0
1.076485 0.088404 0
1.080972 0.108141 0
1.078474 0.117980 0
1.069401 0.119004 0
1.054156 0.113178 0
1.033168 0.102979 0
1.007104 0.090764 0
0.977261 0.077983 0
0.945900 0.064662 0
0.916155 0.049633 0
0.891351 0.031507 0
0.873958 0.009752 0
0.864818 -0.014940 0
0.863436 -0.040594 0
0.868598 -0.064400 0
0.878913 -0.083689 0
0.893132 -0.096401 0
0.910207 -0.101175 0
0.929236 -0.097364 0
0.949415 -0.085087 0
0.970004 -0.065297 0
0.990317 -0.039838 0
1.009660 -0.010944 0
1.026553 0.008811 0
1.000000 -0.010009 0
0.998502 -0.031059 0
0.995382 -0.055589 0
0.990594 -0.087028 0
0.984581 -0.130514 0
0.979499 -0.194455 0
0.982841 -0.289986 0
1.016907 -0.475412 0
1.211998 -0.457464 0
1.164132 -0.232531 0
1.078815 -0.123930 0
1.035685 -0.074245 0
1.017870 -0.034918 0
1.002971 0.005526 0
0.977197 0.043045 0
0.938229 0.068649 0
0.888509 0.077537 0
0.833512 0.068809 0
0.782221 0.045015 0
0.746566 0.009920 0
0.736591 -0.032523 0
0.758544 -0.069004 0
0.808617 -0.078205 0
0.878018 -0.048166 0
0.950115 0.007489 0
1.004951 0.061693 0
1.037736 0.104181 0
1.055566 0.137495 0
1.061095 0.162958 0
1.055541 0.180551 0
1.040055 0.189674 0
1.015671 0.189892 0
0.982778 0.181797 0
0.940678 0.167984 0
0.888250 0.152837 0
0.826240 0.139364 0
0.759728 0.124836 0
0.698554 0.100964 0
0.654280 0.060373 0
0.633558 0.001935 0
0.633865 -0.066863 0
0.648717 -0.132546 0
0.673496 -0.183526 0
0.706522 -0.212629 0
0.747645 -0.215520 0
0.796464 -0.191004 0
0.851266 -0.142034 0
0.908711 -0.075914 0
0.962802 -0.005236 0
1.004969 0.056475 0
1.033552 0.103755 0
1.049602 0.137338 0
1.054361 0.158538 0
1.049054 0.168957 0
1.034611 0.170522 0
1.011402 0.165644 0
0.979313 0.157140 0
0.938625 0.147324 0
0.891649 0.136330 0
0.843815 0.121196 0
0.802495 0.097419 0
0.773833 0.062327 0
0.760157 0.017379 0
0.759488 -0.032436 0
0.767442 -0.080936 0
0.780582 -0.122869 0
0.797183 -0.154536 0
0.816729 -0.173274 0
0.839213 -0.177221 0
0.864531 -0.165580 0
0.892133 -0.139110 0
0.920995 -0.100368 0
0.949760 -0.053529 0
0.976640 -0.004427 0
0.998721 0.040557 0
1.014581 0.077295 0
1.023597 0.104250 0
1.025473 0.121257 0
1.020069 0.129335 0
1.007406 0.130357 0
0.987875 0.126471 0
0.962617 0.119287 0
0.933845 0.109169 0
0.904752 0.095192 0
0.878825 0.075978 0
0.858858 0.050930 0
0.846274 0.021002 0
0.841053 -0.011488 0
0.842011 -0.043580 0
0.847674 -0.072358 0
0.856828 -0.095410 0
0.868626 -0.110973 0
0.882500 -0.117878 0
0.898013 -0.115559 0
0.914730 -0.104148 0
0.932137 -0.084589 0
0.949629 -0.058714 0
0.966509 -0.028461 0
0.981541 -0.007221 0
1.000000 -0.008646 0
0.996199 -0.026788 0
0.987972 -0.047910 0
0.973979 -0.075267 0
0.951925 -0.114376 0
0.918155 -0.176164 0
0.867120 -0.282313 0
0.795181 -0.567572 0
0.557825 -0.392545 0
0.500459 0.000000 0
0.432842 -0.017303 0
0.377747 -0.034971 0
0.389057 -0.017702 0
0.417220 0.027382 0
0.415848 0.080239 0
0.383330 0.122713 0
0.331383 0.144878 0
0.274022 0.140071 0
0.228760 0.103519 0
0.215217 0.036219 0
0.241855 -0.048275 0
0.295485 -0.121530 0
0.367597 -0.157540 0
0.456768 -0.145997 0
0.559963 -0.090238 0
0.661480 -0.013100 0
0.741798 0.055440 0
0.795662 0.107432 0
0.828962 0.148766 0
0.843816 0.180843 0
0.841169 0.203625 0
0.821201 0.217786 0
0.783676 0.225383 0
0.729445 0.228821 0
0.663381 0.227930 0
0.596436 0.217724 0
0.543090 0.190266 0
0.514351 0.140232 0
0.512161 0.069629 0
0.529922 -0.011522 0
0.555194 -0.090637 0
0.579929 -0.159371 0
0.602969 -0.212907 0
0.626776 -0.246657 0
0.655046 -0.256205 0
0.690763 -0.238815 0
0.734686 -0.195474 0
0.784994 -0.131819 0
0.837916 -0.057275 0
0.886520 0.015046 0
0.924066 0.075109 0
0.949603 0.120954 0
0.963178 0.153707 0
0.965023 0.175086 0
0.955282 0.187399 0
0.934089 0.193300 0
0.902304 0.194913 0
0.862778 0.192318 0
0.821107 0.182632 0
0.784492 0.161304 0
0.758841 0.125392 0
0.746329 0.076179 0
0.745349 0.018940 0
0.752223 -0.039215 0
0.762852 -0.092260 0
0.774658 -0.136601 0
0.786692 -0.170066 0
0.799258 -0.190899 0
0.813368 -0.197455 0
0.830071 -0.188582 0
0.849821 -0.164403 0
0.872194 -0.126916 0
0.896048 -0.079964 0
0.919848 -0.028688 0
0.941291 0.020799 0
0.958062 0.063526 0
0.968934 0.097248 0
0.973122 0.121508 0
0.970159 0.137070 0
0.960021 0.145369 0
0.943424 0.147766 0
0.922106 0.144794 0
0.898797 0.135846 0
0.876671 0.119681 0
0.858460 0.095527 0
0.845756 0.064058 0
0.838870 0.027556 0
0.837199 -0.010678 0
0.839588 -0.047215 0
0.844791 -0.079217 0
0.851885 -0.104641 0
0.860348 -0.122073 0
0.869991 -0.130562 0
0.880807 -0.129594 0
0.892776 -0.119211 0
0.905697 -0.100197 0
0.919106 -0.074210 0
0.932282 -0.042857 0
0.943978 -0.020503 0
1.000000 -0.006209 0
0.994508 -0.019034 0
0.982515 -0.033376 0
0.961650 -0.050989 0
0.927292 -0.074699 0
0.870390 -0.109658 0
0.771524 -0.167019 0
0.588545 -0.264369 0
0.000000 -0.162747 0
0.000000 0.000000 0
0.000000 0.000000 0
-0.025389 -0.038538 0
-0.041620 -0.074375 0
-0.041796 -0.021250 0
-0.045207 0.076945 0
-0.062291 0.153119 0
-0.088511 0.186843 0
-0.107922 0.171424 0
-0.102319 0.103809 0
-0.060490 -0.003177 0
-0.001105 -0.112786 0
0.059966 -0.194747 0
0.122588 -0.239491 0
0.193539 -0.240536 0
0.278069 -0.197229 0
0.375365 -0.120148 0
0.471108 -0.030008 0
0.546257 0.050325 0
0.596167 0.114799 0
0.623713 0.168339 0
0.629951 0.212283 0
0.615725 0.247381 0
0.583707 0.273550 0
0.540643 0.288277 0
0.498011 0.285848 0
0.468943 0.259658 0
0.462353 0.206927 0
0.478686 0.131902 0
0.510690 0.044811 0
0.546160 -0.041090 0
0.575777 -0.116865 0
0.596737 -0.180321 0
0.609570 -0.230378 0
0.617519 -0.264713 0
0.625888 -0.279510 0
0.640477 -0.270646 0
0.665252 -0.236269 0
0.700600 -0.179147 0
0.743413 -0.106765 0
0.788486 -0.029679 0
0.827886 0.040668 0
0.857088 0.098223 0
0.874862 0.143114 0
0.880677 0.176848 0
0.874471 0.201453 0
0.857117 0.218619 0
0.831267 0.228448 0
0.801875 0.228519 0
0.775364 0.214615 0
0.757309 0.183462 0
0.750175 0.135584 0
0.752930 0.075821 0
0.762458 0.011488 0
0.774868 -0.049935 0
0.786963 -0.103367 0
0.796897 -0.146707 0
0.804054 -0.179136 0
0.809021 -0.199952 0
0.813423 -0.208037 0
0.819378 -0.202037 0
0.828641 -0.181236 0
0.841861 -0.146598 0
0.858412 -0.101186 0
0.876765 -0.049672 0
0.894926 0.002341 0
0.910290 0.049650 0
0.921143 0.089188 0
0.926403 0.120031 0
0.925531 0.142434 0
0.918677 0.157090 0
0.906893 0.164385 0
0.892165 0.163912 0
0.877046 0.154603 0
0.863958 0.135529 0
0.854511 0.106893 0
0.849239 0.070520 0
0.847817 0.029558 0
0.849467 -0.012206 0
0.853157 -0.051173 0
0.857878 -0.084656 0
0.862891 -0.110966 0
0.867841 -0.129078 0
0.872787 -0.138338 0
0.878095 -0.138345 0
0.884222 -0.129037 0
0.891439 -0.110919 0
0.899635 -0.085298 0
0.908258 -0.053333 0
0.916153 -0.030210 0
1.000000 -0.003157 0
0.993886 -0.009311 0
0.980613 -0.015061 0
0.957719 -0.020053 0
0.920490 -0.023126 0
0.860141 -0.020405 0
0.760039 -0.000475 0
0.586721 0.100856 0
0.272072 0.092906 0
0.000000 0.000000 0
0.000000 0.000000 0
0.000000 0.000000 0
-0.037106 0.000148 0
-0.115356 0.030980 0
-0.151233 0.100741 0
-0.165096 0.166018 0
-0.164606 0.190503 0
-0.139459 0.153869 0
-0.078903 0.056081 0
-0.012071 -0.064994 0
0.038012 -0.168731 0
0.072884 -0.245227 0
0.099353 -0.291117 0
0.126464 -0.301484 0
0.164700 -0.272070 0
0.219325 -0.206145 0
0.287227 -0.115459 0
0.356208 -0.017633 0
0.410349 0.071305 0
0.445916 0.147054 0
0.463486 0.211609 0
0.465057 0.264026 0
0.455990 0.300462 0
0.445410 0.314517 0
0.443937 0.299633 0
0.459328 0.253386 0
0.492985 0.180531 0
0.539926 0.091905 0
0.590458 0.002164 0
0.632572 -0.076603 0
0.662298 -0.141211 0
0.678621 -0.193166 0
0.681950 -0.233696 0
0.674670 -0.262982 0
0.661761 -0.279165 0
0.650461 -0.278182 0
0.648193 -0.255601 0
0.659403 -0.209983 0
0.683599 -0.145165 0
0.716159 -0.069430 0
0.750183 0.006502 0
0.778171 0.073974 0
0.797057 0.130115 0
0.805735 0.175473 0
0.804410 0.210955 0
0.794925 0.236502 0
0.781046 0.250152 0
0.767930 0.248219 0
0.760467 0.227199 0
0.761343 0.186494 0
0.770303 0.129773 0
0.785029 0.063899 0
0.802467 -0.002994 0
0.819025 -0.063716 0
0.832353 -0.114287 0
0.841017 -0.153690 0
0.844370 -0.182190 0
0.842779 -0.200271 0
0.837857 -0.207816 0
0.832306 -0.203802 0
0.829136 -0.186889 0
0.830538 -0.156690 0
0.837078 -0.114871 0
0.847728 -0.065204 0
0.860521 -0.012729 0
0.872924 0.037308 0
0.882801 0.081133 0
0.888861 0.117117 0
0.890564 0.144794 0
0.888187 0.164005 0
0.882851 0.174276 0
0.876300 0.174639 0
0.870406 0.164052 0