# vtk DataFile Version 2.0
generated by CFD-lab course output (written by Tobias Neckel) 
ASCII

DATASET STRUCTURED_GRID
DIMENSIONS  99 19 1 
POINTS 1881 float

0.000000 0.000000 0
0.100000 0.000000 0
0.200000 0.000000 0
0.300000 0.000000 0
0.400000 0.000000 0
0.500000 0.000000 0
0.600000 0.000000 0
0.700000 0.000000 0
0.800000 0.000000 0
0.900000 0.000000 0
1.000000 0.000000 0
1.100000 0.000000 0
1.200000 0.000000 0
1.300000 0.000000 0
1.400000 0.000000 0
1.500000 0.000000 0
1.600000 0.000000 0
1.700000 0.000000 0
1.800000 0.000000 0
1.900000 0.000000 0
2.000000 0.000000 0
2.100000 0.000000 0
2.200000 0.000000 0
2.300000 0.000000 0
2.400000 0.000000 0
2.500000 0.000000 0
2.600000 0.000000 0
2.700000 0.000000 0
2.800000 0.000000 0
2.900000 0.000000 0
3.000000 0.000000 0
3.100000 0.000000 0
3.200000 0.000000 0
3.300000 0.000000 0
3.400000 0.000000 0
3.500000 0.000000 0
3.600000 0.000000 0
3.700000 0.000000 0
3.800000 0.000000 0
3.900000 0.000000 0
4.000000 0.000000 0
4.100000 0.000000 0
4.200000 0.000000 0
4.300000 0.000000 0
4.400000 0.000000 0
4.500000 0.000000 0
4.600000 0.000000 0
4.700000 0.000000 0
4.800000 0.000000 0
4.900000 0.000000 0
5.000000 0.000000 0
5.100000 0.000000 0
5.200000 0.000000 0
5.300000 0.000000 0
5.400000 0.000000 0
5.500000 0.000000 0
5.600000 0.000000 0
5.700000 0.000000 0
5.800000 0.000000 0
5.900000 0.000000 0
6.000000 0.000000 0
6.100000 0.000000 0
6.200000 0.000000 0
6.300000 0.000000 0
6.400000 0.000000 0
6.500000 0.000000 0
6.600000 0.000000 0
6.700000 0.000000 0
6.800000 0.000000 0
6.900000 0.000000 0
7.000000 0.000000 0
7.100000 0.000000 0
7.200000 0.000000 0
7.300000 0.000000 0
7.400000 0.000000 0
7.500000 0.000000 0
7.600000 0.000000 0
7.700000 0.000000 0
7.800000 0.000000 0
7.900000 0.000000 0
8.000000 0.000000 0
8.100000 0.000000 0
8.200000 0.000000 0
8.300000 0.000000 0
8.400000 0.000000 0
8.500000 0.000000 0
8.600000 0.000000 0
8.700000 0.000000 0
8.800000 0.000000 0
8.900000 0.000000 0
9.000000 0.000000 0
9.100000 0.000000 0
9.200000 0.000000 0
9.300000 0.000000 0
9.400000 0.000000 0
9.500000 0.000000 0
9.600000 0.000000 0
9.700000 0.000000 0
9.800000 0.000000 0
0.000000 0.100000 0
0.100000 0.100000 0
0.200000 0.100000 0
0.300000 0.100000 0
0.400000 0.100000 0
0.500000 0.100000 0
0.600000 0.100000 0
0.700000 0.100000 0
0.800000 0.100000 0
0.900000 0.100000 0
1.000000 0.100000 0
1.100000 0.100000 0
1.200000 0.100000 0
1.300000 0.100000 0
1.400000 0.100000 0
1.500000 0.100000 0
1.600000 0.100000 0
1.700000 0.100000 0
1.800000 0.100000 0
1.900000 0.100000 0
2.000000 0.100000 0
2.100000 0.100000 0
2.200000 0.100000 0
2.300000 0.100000 0
2.400000 0.100000 0
2.500000 0.100000 0
2.600000 0.100000 0
2.700000 0.100000 0
2.800000 0.100000 0
2.900000 0.100000 0
3.000000 0.100000 0
3.100000 0.100000 0
3.200000 0.100000 0
3.300000 0.100000 0
3.400000 0.100000 0
3.500000 0.100000 0
3.600000 0.100000 0
3.700000 0.100000 0
3.800000 0.100000 0
3.900000 0.100000 0
4.000000 0.100000 0
4.100000 0.100000 0
4.200000 0.100000 0
4.300000 0.100000 0
4.400000 0.100000 0
4.500000 0.100000 0
4.600000 0.100000 0
4.700000 0.100000 0
4.800000 0.100000 0
4.900000 0.100000 0
5.000000 0.100000 0
5.100000 0.100000 0
5.200000 0.100000 0
5.300000 0.100000 0
5.400000 0.100000 0
5.500000 0.100000 0
5.600000 0.100000 0
5.700000 0.100000 0
5.800000 0.100000 0
5.900000 0.100000 0
6.000000 0.100000 0
6.100000 0.100000 0
6.200000 0.100000 0
6.300000 0.100000 0
6.400000 0.100000 0
6.500000 0.100000 0
6.600000 0.100000 0
6.700000 0.100000 0
6.800000 0.100000 0
6.900000 0.100000 0
7.000000 0.100000 0
7.100000 0.100000 0
7.200000 0.100000 0
7.300000 0.100000 0
7.400000 0.100000 0
7.500000 0.100000 0
7.600000 0.100000 0
7.700000 0.100000 0
7.800000 0.100000 0
7.900000 0.100000 0
8.000000 0.100000 0
8.100000 0.100000 0
8.200000 0.100000 0
8.300000 0.100000 0
8.400000 0.100000 0
8.500000 0.100000 0
8.600000 0.100000 0
8.700000 0.100000 0
8.800000 0.100000 0
8.900000 0.100000 0
9.000000 0.100000 0
9.100000 0.100000 0
9.200000 0.100000 0
9.300000 0.100000 0
9.400000 0.100000 0
9.500000 0.100000 0
9.600000 0.100000 0
9.700000 0.100000 0
9.800000 0.100000 0
0.000000 0.200000 0
0.100000 0.200000 0
0.200000 0.200000 0
0.300000 0.200000 0
0.400000 0.200000 0
0.500000 0.200000 0
0.600000 0.200000 0
0.700000 0.200000 0
0.800000 0.200000 0
0.900000 0.200000 0
1.000000 0.200000 0
1.100000 0.200000 0
1.200000 0.200000 0
1.300000 0.200000 0
1.400000 0.200000 0
1.500000 0.200000 0
1.600000 0.200000 0
1.700000 0.200000 0
1.800000 0.200000 0
1.900000 0.200000 0
2.000000 0.200000 0
2.100000 0.200000 0
2.200000 0.200000 0
2.300000 0.200000 0
2.400000 0.200000 0
2.500000 0.200000 0
2.600000 0.200000 0
2.700000 0.200000 0
2.800000 0.200000 0
2.900000 0.200000 0
3.000000 0.200000 0
3.100000 0.200000 0
3.200000 0.200000 0
3.300000 0.200000 0
3.400000 0.200000 0
3.500000 0.200000 0
3.600000 0.200000 0
3.700000 0.200000 0
3.800000 0.200000 0
3.900000 0.200000 0
4.000000 0.200000 0
4.100000 0.200000 0
4.200000 0.200000 0
4.300000 0.200000 0
4.400000 0.200000 0
4.500000 0.200000 0
4.600000 0.200000 0
4.700000 0.200000 0
4.800000 0.200000 0
4.900000 0.200000 0
5.000000 0.200000 0
5.100000 0.200000 0
5.200000 0.200000 0
5.300000 0.200000 0
5.400000 0.200000 0
5.500000 0.200000 0
5.600000 0.200000 0
5.700000 0.200000 0
5.800000 0.200000 0
5.900000 0.200000 0
6.000000 0.200000 0
6.100000 0.200000 0
6.200000 0.200000 0
6.300000 0.200000 0
6.400000 0.200000 0
6.500000 0.200000 0
6.600000 0.200000 0
6.700000 0.200000 0
6.800000 0.200000 0
6.900000 0.200000 0
7.000000 0.200000 0
7.100000 0.200000 0
7.200000 0.200000 0
7.300000 0.200000 0
7.400000 0.200000 0
7.500000 0.200000 0
7.600000 0.200000 0
7.700000 0.200000 0
7.800000 0.200000 0
7.900000 0.200000 0
8.000000 0.200000 0
8.100000 0.200000 0
8.200000 0.200000 0
8.300000 0.200000 0
8.400000 0.200000 0
8.500000 0.200000 0
8.600000 0.200000 0
8.700000 0.200000 0
8.800000 0.200000 0
8.900000 0.200000 0
9.000000 0.200000 0
9.100000 0.200000 0
9.200000 0.200000 0
9.300000 0.200000 0
9.400000 0.200000 0
9.500000 0.200000 0
9.600000 0.200000 0
9.700000 0.200000 0
9.800000 0.200000 0
0.000000 0.300000 0
0.100000 0.300000 0
0.200000 0.300000 0
0.300000 0.300000 0
0.400000 0.300000 0
0.500000 0.300000 0
0.600000 0.300000 0
0.700000 0.300000 0
0.800000 0.300000 0
0.900000 0.300000 0
1.000000 0.300000 0
1.100000 0.300000 0
1.200000 0.300000 0
1.300000 0.300000 0
1.400000 0.300000 0
1.500000 0.300000 0
1.600000 0.300000 0
1.700000 0.300000 0
1.800000 0.300000 0
1.900000 0.300000 0
2.000000 0.300000 0
2.100000 0.300000 0
2.200000 0.300000 0
2.300000 0.300000 0
2.400000 0.300000 0
2.500000 0.300000 0
2.600000 0.300000 0
2.700000 0.300000 0
2.800000 0.300000 0
2.900000 0.300000 0
3.000000 0.300000 0
3.100000 0.300000 0
3.200000 0.300000 0
3.300000 0.300000 0
3.400000 0.300000 0
3.500000 0.300000 0
3.600000 0.300000 0
3.700000 0.300000 0
3.800000 0.300000 0
3.900000 0.300000 0
4.000000 0.300000 0
4.100000 0.300000 0
4.200000 0.300000 0
4.300000 0.300000 0
4.400000 0.300000 0
4.500000 0.300000 0
4.600000 0.300000 0
4.700000 0.300000 0
4.800000 0.300000 0
4.900000 0.300000 0
5.000000 0.300000 0
5.100000 0.300000 0
5.200000 0.300000 0
5.300000 0.300000 0
5.400000 0.300000 0
5.500000 0.300000 0
5.600000 0.300000 0
5.700000 0.300000 0
5.800000 0.300000 0
5.900000 0.300000 0
6.000000 0.300000 0
6.100000 0.300000 0
6.200000 0.300000 0
6.300000 0.300000 0
6.400000 0.300000 0
6.500000 0.300000 0
6.600000 0.300000 0
6.700000 0.300000 0
6.800000 0.300000 0
6.900000 0.300000 0
7.000000 0.300000 0
7.100000 0.300000 0
7.200000 0.300000 0
7.300000 0.300000 0
7.400000 0.300000 0
7.500000 0.300000 0
7.600000 0.300000 0
7.700000 0.300000 0
7.800000 0.300000 0
7.900000 0.300000 0
8.000000 0.300000 0
8.100000 0.300000 0
8.200000 0.300000 0
8.300000 0.300000 0
8.400000 0.300000 0
8.500000 0.300000 0
8.600000 0.300000 0
8.700000 0.300000 0
8.800000 0.300000 0
8.900000 0.300000 0
9.000000 0.300000 0
9.100000 0.300000 0
9.200000 0.300000 0
9.300000 0.300000 0
9.400000 0.300000 0
9.500000 0.300000 0
9.600000 0.300000 0
9.700000 0.300000 0
9.800000 0.300000 0
0.000000 0.400000 0
0.100000 0.400000 0
0.200000 0.400000 0
0.300000 0.400000 0
0.400000 0.400000 0
0.500000 0.400000 0
0.600000 0.400000 0
0.700000 0.400000 0
0.800000 0.400000 0
0.900000 0.400000 0
1.000000 0.400000 0
1.100000 0.400000 0
1.200000 0.400000 0
1.300000 0.400000 0
1.400000 0.400000 0
1.500000 0.400000 0
1.600000 0.400000 0
1.700000 0.400000 0
1.800000 0.400000 0
1.900000 0.400000 0
2.000000 0.400000 0
2.100000 0.400000 0
2.200000 0.400000 0
2.300000 0.400000 0
2.400000 0.400000 0
2.500000 0.400000 0
2.600000 0.400000 0
2.700000 0.400000 0
2.800000 0.400000 0
2.900000 0.400000 0
3.000000 0.400000 0
3.100000 0.400000 0
3.200000 0.400000 0
3.300000 0.400000 0
3.400000 0.400000 0
3.500000 0.400000 0
3.600000 0.400000 0
3.700000 0.400000 0
3.800000 0.400000 0
3.900000 0.400000 0
4.000000 0.400000 0
4.100000 0.400000 0
4.200000 0.400000 0
4.300000 0.400000 0
4.400000 0.400000 0
4.500000 0.400000 0
4.600000 0.400000 0
4.700000 0.400000 0
4.800000 0.400000 0
4.900000 0.400000 0
5.000000 0.400000 0
5.100000 0.400000 0
5.200000 0.400000 0
5.300000 0.400000 0
5.400000 0.400000 0
5.500000 0.400000 0
5.600000 0.400000 0
5.700000 0.400000 0
5.800000 0.400000 0
5.900000 0.400000 0
6.000000 0.400000 0
6.100000 0.400000 0
6.200000 0.400000 0
6.300000 0.400000 0
6.400000 0.400000 0
6.500000 0.400000 0
6.600000 0.400000 0
6.700000 0.400000 0
6.800000 0.400000 0
6.900000 0.400000 0
7.000000 0.400000 0
7.100000 0.400000 0
7.200000 0.400000 0
7.300000 0.400000 0
7.400000 0.400000 0
7.500000 0.400000 0
7.600000 0.400000 0
7.700000 0.400000 0
7.800000 0.400000 0
7.900000 0.400000 0
8.000000 0.400000 0
8.100000 0.400000 0
8.200000 0.400000 0
8.300000 0.400000 0
8.400000 0.400000 0
8.500000 0.400000 0
8.600000 0.400000 0
8.700000 0.400000 0
8.800000 0.400000 0
8.900000 0.400000 0
9.000000 0.400000 0
9.100000 0.400000 0
9.200000 0.400000 0
9.300000 0.400000 0
9.400000 0.400000 0
[...]
POINT_DATA 1881 

VECTORS velocity float
0.500000 0.000000 0
0.502072 0.000000 0
0.506694 0.000000 0
0.514288 0.000000 0
0.525274 0.000000 0
0.539982 0.000000 0
0.558441 0.000000 0
0.580087 0.000000 0
0.603536 0.000000 0
0.626513 0.000000 0
0.647101 0.000000 0
0.664332 0.000000 0
0.678031 0.000000 0
0.688424 0.000000 0
0.695813 0.000000 0
0.700361 0.000000 0
0.702073 0.000000 0
0.700834 0.000000 0
0.696560 0.000000 0
0.689294 0.000000 0
0.679281 0.000000 0
0.666970 0.000000 0
0.652978 0.000000 0
0.638040 0.000000 0
0.622960 0.000000 0
0.608567 0.000000 0
0.595665 0.000000 0
0.585005 0.000000 0
0.577281 0.000000 0
0.573172 0.000000 0
0.573321 0.000000 0
0.578026 0.000000 0
0.586963 0.000000 0
0.599013 0.000000 0
0.612281 0.000000 0
0.624448 0.000000 0
0.633380 0.000000 0
0.637726 0.000000 0
0.637139 0.000000 0
0.631851 0.000000 0
0.622461 0.000000 0
0.609779 0.000000 0
0.594694 0.000000 0
0.578083 0.000000 0
0.560783 0.000000 0
0.543577 0.000000 0
0.527219 0.000000 0
0.512458 0.000000 0
0.500070 0.000000 0
0.490877 0.000000 0
0.485722 0.000000 0
0.485280 0.000000 0
0.489666 0.000000 0
0.498608 0.000000 0
0.511594 0.000000 0
0.527892 0.000000 0
0.546523 0.000000 0
0.566211 0.000000 0
0.585313 0.000000 0
0.601873 0.000000 0
0.613924 0.000000 0
0.620042 0.000000 0
0.619838 0.000000 0
0.613631 0.000000 0
0.602063 0.000000 0
0.586085 0.000000 0
0.566900 0.000000 0
0.545890 0.000000 0
0.524530 0.000000 0
0.504309 0.000000 0
0.486635 0.000000 0
0.472726 0.000000 0
0.463467 0.000000 0
0.459257 0.000000 0
0.459815 0.000000 0
0.464183 0.000000 0
0.471424 0.000000 0
0.480828 0.000000 0
0.491919 0.000000 0
0.504379 0.000000 0
0.517936 0.000000 0
0.532217 0.000000 0
0.546618 0.000000 0
0.560225 0.000000 0
0.571840 0.000000 0
0.580174 0.000000 0
0.584186 0.000000 0
0.583408 0.000000 0
0.577805 0.000000 0
0.567603 0.000000 0
0.553371 0.000000 0
0.536085 0.000000 0
0.517160 0.000000 0
0.498400 0.000000 0
0.481788 0.000000 0
0.469160 0.000000 0
0.461881 0.000000 0
0.460693 0.000000 0
0.466181 0.000000 0
1.000000 -0.002069 0
1.004701 -0.006693 0
1.014572 -0.012222 0
1.030372 -0.018589 0
1.053022 -0.025706 0
1.083375 -0.033179 0
1.121771 -0.040115 0
1.167314 -0.045103 0
1.217300 -0.046428 0
1.265931 -0.043551 0
1.308797 -0.037794 0
1.344163 -0.030902 0
1.372079 -0.024067 0
1.393335 -0.017764 0
1.408746 -0.011932 0
1.418733 -0.006249 0
1.423195 -0.000456 0
1.421756 0.005523 0
1.414112 0.011551 0
1.400287 0.017286 0
1.380771 0.022327 0
1.356500 0.026303 0
1.328760 0.028928 0
1.299071 0.030012 0
1.269093 0.029465 0
1.240522 0.027286 0
1.214997 0.023553 0
1.194021 0.018374 0
1.178939 0.011824 0
1.170989 0.003951 0
1.171327 -0.004858 0
1.180743 -0.013637 0
1.198993 -0.020977 0
1.224171 -0.025301 0
1.252622 -0.025414 0
1.279563 -0.021077 0
1.300280 -0.013257 0
1.311482 -0.003742 0
1.312076 0.005887 0
1.302672 0.014687 0
1.284677 0.022080 0
1.259888 0.027775 0
1.230205 0.031703 0
1.197465 0.033916 0
1.163374 0.034511 0
1.129518 0.033567 0
1.097399 0.031121 0
1.068466 0.027151 0
1.044123 0.021583 0
1.025660 0.014348 0
1.014140 0.005596 0
1.010287 -0.003944 0
1.014490 -0.013328 0
1.026735 -0.021928 0
1.046590 -0.029281 0
1.073197 -0.034924 0
1.105283 -0.038312 0
1.141052 -0.038778 0
1.177975 -0.035648 0
1.212703 -0.028595 0
1.241320 -0.018153 0
1.260046 -0.005898 0
1.266317 0.006426 0
1.259923 0.017787 0
1.242224 0.027556 0
1.215211 0.035172 0
1.181349 0.040202 0
1.143403 0.042376 0
1.104261 0.041587 0
1.066752 0.037900 0
1.033428 0.031588 0
1.006302 0.023173 0
0.986593 0.013475 0
0.974593 0.003658 0
0.969815 -0.004920 0
0.971343 -0.011604 0
0.978063 -0.016640 0
0.989059 -0.020490 0
1.003734 -0.023546 0
1.021762 -0.026010 0
1.042922 -0.027830 0
1.066823 -0.028674 0
1.092625 -0.028000 0
1.118861 -0.025214 0
1.143438 -0.019940 0
1.163828 -0.012337 0
1.177431 -0.003226 0
1.182181 0.006389 0
1.177401 0.015812 0
1.163625 0.024441 0
1.142088 0.031525 0
1.114735 0.036217 0
1.084145 0.037691 0
1.053337 0.035377 0
1.025375 0.029244 0
1.002850 0.019910 0
0.987449 0.008469 0
0.979861 -0.004299 0
0.980664 -0.012211 0
1.000000 -0.004699 0
1.004849 -0.014574 0
1.014709 -0.025681 0
1.030372 -0.038463 0
1.053076 -0.053016 0
1.084317 -0.068762 0
1.125423 -0.083950 0
1.176419 -0.095533 0
1.235553 -0.098603 0
1.291163 -0.091468 0
1.337138 -0.078199 0
1.372965 -0.063251 0
1.400218 -0.049151 0
1.420783 -0.036659 0
1.436159 -0.025391 0
1.447006 -0.014433 0
1.452913 -0.003006 0
1.452953 0.009095 0
1.446405 0.021478 0
1.433087 0.033348 0
1.413504 0.043788 0
1.388713 0.052008 0
1.360140 0.057424 0
1.329430 0.059659 0
1.298356 0.058539 0
1.268714 0.054084 0
1.242202 0.046490 0
1.220288 0.036047 0
1.204167 0.023021 0
1.194880 0.007607 0
1.193605 -0.009749 0
1.201711 -0.027653 0
1.219728 -0.043409 0
1.246377 -0.053604 0
1.278428 -0.055365 0
1.311038 -0.047632 0
1.338503 -0.031898 0
1.355774 -0.011781 0
1.360477 0.008820 0
1.353583 0.027409 0
1.337141 0.042795 0
1.313435 0.054480 0
1.284657 0.062430 0
1.252769 0.066837 0
1.219482 0.067951 0
1.186307 0.065979 0
1.154605 0.061055 0
1.125611 0.053277 0
1.100393 0.042807 0
1.079745 0.029984 0
1.064075 0.015374 0
1.053503 -0.000350 0
1.048311 -0.016448 0
1.048915 -0.032097 0
1.055655 -0.046455 0
1.068793 -0.058684 0
1.088542 -0.067842 0
1.114780 -0.072676 0
1.146520 -0.071632 0
1.181543 -0.063324 0
1.216358 -0.047323 0
1.246442 -0.024978 0
1.267006 0.000139 0
1.274957 0.024106 0
1.270772 0.044723 0
1.256283 0.060885 0
1.233796 0.071816 0
1.205856 0.077095 0
1.175045 0.076658 0
1.143773 0.070840 0
1.114072 0.060457 0
1.087406 0.046842 0
1.064563 0.031716 0
1.045724 0.016786 0
1.030790 0.003257 0
1.019747 -0.008242 0
1.012422 -0.017709 0
1.008737 -0.025664 0
1.008939 -0.032695 0
1.013524 -0.039178 0
1.023061 -0.045051 0
1.037812 -0.049693 0
1.057397 -0.052027 0
1.080713 -0.050802 0
1.106011 -0.044956 0
1.131034 -0.033982 0
1.153109 -0.018343 0
1.169404 0.000040 0
1.177785 0.018566 0
1.178023 0.035322 0
1.171033 0.048899 0
1.158297 0.057951 0
1.141628 0.061404 0
1.122886 0.058776 0
1.103692 0.050492 0
1.085244 0.037929 0
1.068243 0.022990 0
1.052916 0.006785 0
1.039099 -0.003628 0
1.000000 -0.006921 0
1.003863 -0.021409 0
1.011998 -0.037752 0
1.025427 -0.056961 0
1.045913 -0.079654 0
1.076059 -0.105528 0
1.119187 -0.132215 0
1.177755 -0.155218 0
1.255481 -0.161144 0
1.320739 -0.145113 0
1.366928 -0.119587 0
1.398587 -0.093983 0
1.420600 -0.071895 0
1.436623 -0.053716 0
1.449283 -0.038147 0
1.459766 -0.022993 0
1.467170 -0.006402 0
1.468994 0.012033 0
1.463442 0.031415 0
1.449948 0.050185 0
1.429124 0.066697 0
1.402288 0.079662 0
1.371095 0.088206 0
1.337378 0.091791 0
1.303085 0.090175 0
1.270197 0.083436 0
1.240557 0.071976 0
1.215613 0.056407 0
1.196268 0.037234 0
1.183033 0.014523 0
1.176586 -0.011675 0
1.178627 -0.039745 0
1.190700 -0.065625 0
1.212745 -0.083986 0
1.243272 -0.090065 0
1.279176 -0.081147 0
1.315077 -0.057993 0
1.343725 -0.025722 0
1.358594 0.008077 0
1.358458 0.038026 0
1.346401 0.062231 0
1.325585 0.080261 0
1.298770 0.092370 0
1.268211 0.099092 0
1.235709 0.100973 0
1.202720 0.098444 0
1.170452 0.091817 0
1.139934 0.081363 0
1.112010 0.067449 0
1.087275 0.050667 0
1.065941 0.031839 0
1.047744 0.011820 0
1.032089 -0.008737 0
1.018795 -0.029265 0
1.009111 -0.049151 0
1.005317 -0.067801 0
1.009853 -0.084289 0
1.024287 -0.096746 0
1.048457 -0.102401 0
1.080495 -0.098425 0
1.117267 -0.083046 0
1.154755 -0.056542 0
1.188251 -0.022087 0
1.212632 0.014022 0
1.225005 0.046232 0
1.226306 0.072150 0
1.218273 0.090631 0
1.202943 0.101130 0
1.182407 0.103673 0
1.158610 0.098876 0
1.133213 0.087958 0
1.107531 0.072686 0
1.082532 0.055161 0
1.058850 0.037434 0
1.036747 0.021060 0
1.016212 0.006768 0
0.997433 -0.005627 0
0.981086 -0.017003 0
0.968622 -0.028327 0
0.961962 -0.040127 0
0.962535 -0.052112 0
0.970728 -0.063005 0
0.985848 -0.070896 0
1.006453 -0.073823 0
1.030719 -0.070257 0
1.056701 -0.059430 0
1.082447 -0.041591 0
1.105923 -0.018282 0
1.124739 0.007197 0
1.137048 0.031196 0
1.142798 0.051254 0
1.142579 0.065625 0
1.137256 0.073104 0
1.127727 0.073315 0
1.114806 0.066886 0
1.099227 0.055360 0
1.081714 0.040796 0
1.062905 0.024844 0
1.042906 0.014411 0
1.000000 -0.008565 0
1.002453 -0.026579 0
1.007812 -0.047251 0
1.017199 -0.072381 0
1.032789 -0.103649 0
1.058444 -0.142036 0
1.100586 -0.185637 0
1.167143 -0.231806 0
1.281064 -0.241569 0
1.350763 -0.202906 0
1.384488 -0.156048 0
1.401256 -0.116933 0
1.409976 -0.087197 0
1.415243 -0.065336 0
1.420715 -0.048522 0
1.428987 -0.032316 0
1.439420 -0.012232 0
1.446430 0.012823 0
1.444808 0.040521 0
1.433326 0.067661 0
1.412980 0.091444 0
1.385529 0.110033 0
1.352817 0.122329 0
1.316757 0.127664 0
1.279437 0.125716 0
1.243103 0.116610 0
1.209918 0.101072 0
1.181401 0.080336 0
1.157852 0.055609 0
1.138440 0.027301 0
1.122001 -0.005330 0
1.108334 -0.041752 0
1.101179 -0.077512 0
1.104565 -0.106165 0
1.121439 -0.121789 0
1.152359 -0.119437 0
1.193893 -0.096451 0
1.238411 -0.055300 0
1.275282 -0.005909 0
1.295215 0.039606 0
1.298659 0.075669 0
1.289818 0.102112 0
1.272113 0.119805 0
1.248251 0.129898 0
1.220349 0.133443 0
1.190086 0.131236 0
1.158816 0.123841 0
1.127656 0.111720 0
1.097461 0.095466 0
1.068636 0.076053 0
1.040785 0.054905 0
1.012664 0.033504 0
0.983110 0.012507 0
0.952777 -0.009111 0
0.925224 -0.032969 0
0.906324 -0.059416 0
0.900602 -0.086801 0
0.908926 -0.111270 0
0.929606 -0.127831 0
0.959896 -0.132127 0
0.996746 -0.121579 0
1.036977 -0.095961 0
1.077190 -0.057737 0
1.113340 -0.012647 0
1.140425 0.031051 0
1.156645 0.067620 0
1.162847 0.095182 0
1.160371 0.112964 0
1.150748 0.120994 0
1.135482 0.120038 0
1.115928 0.111540 0
1.093194 0.097526 0
1.068076 0.080400 0
1.041048 0.062574 0
1.012479 0.045898 0
0.983122 0.031075 0
0.954634 0.017422 0
0.929545 0.003152 0
0.910555 -0.013566 0
0.899826 -0.033085 0
0.898277 -0.053811 0
0.905329 -0.073001 0
0.919505 -0.087747 0
0.939044 -0.095668 0
0.962233 -0.095200 0
0.987501 -0.085704 0
1.013435 -0.067559 0
1.038705 -0.042247 0
1.061876 -0.012554 0
1.080852 0.017267 0
1.094325 0.043370 0
1.102107 0.063495 0
1.104294 0.076258 0
1.101115 0.081227 0
1.092873 0.078992 0
1.079970 0.071021 0
1.062945 0.059313 0
1.042472 0.045593 0
1.019312 0.036306 0
1.000000 -0.009377 0
1.000536 -0.029227 0
1.001902 -0.052502 0
1.004924 -0.081941 0
1.011536 -0.120899 0
1.026023 -0.173320 0
1.057713 -0.240900 0
1.123915 -0.335679 0
1.294084 -0.344754 0
1.335874 -0.248537 0
1.327025 -0.170088 0
1.312840 -0.119482 0
1.298791 -0.085881 0
1.285480 -0.064443 0
1.275962 -0.051885 0
1.275483 -0.041698 0
1.287576 -0.023845 0
1.307153 0.006644 0
1.318378 0.044516 0
1.316897 0.082009 0
1.305040 0.114489 0
1.284906 0.139821 0
1.257934 0.156974 0
1.225525 0.165167 0
1.189544 0.163827 0
1.152489 0.152954 0
1.117152 0.133678 0
1.085111 0.108479 0
1.054605 0.080206 0
1.021192 0.050386 0
0.982393 0.018445 0
0.940797 -0.018909 0
0.904490 -0.061845 0
0.886206 -0.104240 0
0.891758 -0.137857 0
0.919746 -0.153604 0
0.965588 -0.144048 0
1.022905 -0.107106 0
1.083033 -0.048723 0
1.134131 0.014651 0
1.166606 0.067629 0
1.182271 0.106807 0
1.184826 0.133937 0
1.177112 0.150856 0
1.161454 0.159138 0
1.139797 0.159978 0
1.113716 0.154248 0
1.084278 0.142719 0
1.051733 0.126469 0
1.015293 0.107343 0
0.973765 0.087813 0
0.927469 0.069500 0
0.880125 0.051156 0
0.838362 0.028629 0
0.808445 -0.002689 0
0.793746 -0.043170 0
0.793977 -0.086881 0
0.806448 -0.125740 0
0.828330 -0.153364 0
0.857457 -0.165559 0
0.892083 -0.160124 0
0.930432 -0.136986 0
0.970473 -0.098448 0
1.009791 -0.049210 0
1.044858 0.002929 0
1.071348 0.049730 0
1.088451 0.086908 0
1.096571 0.113233 0
1.096495 0.128566 0
1.089120 0.133699 0
1.075252 0.130249 0
1.055474 0.120541 0
1.030159 0.107310 0
0.999787 0.093035 0
0.965593 0.078989 0
0.930166 0.064616 0
0.897345 0.047955 0
0.871159 0.027082 0
0.854268 0.001398 0
0.847177 -0.027843 0
0.848853 -0.057610 0
0.857560 -0.084227 0
0.871610 -0.104605 0
0.889631 -0.116546 0
0.910517 -0.118709 0
0.933301 -0.110627 0
0.957063 -0.092789 0
0.980892 -0.066718 0
1.003838 -0.034945 0
1.024656 -0.001249 0
1.041443 0.030003 0
1.053266 0.055659 0
1.059647 0.074098 0
1.060317 0.084737 0
1.055168 0.088032 0
1.044294 0.085288 0
1.028075 0.078295 0
1.007308 0.068477 0
0.983425 0.061224 0
1.000000 -0.009106 0
0.998259 -0.028486 0
0.994684 -0.051641 0
0.989224 -0.082016 0
0.982291 -0.124746 0
0.975943 -0.188204 0
0.977437 -0.283515 0
1.008583 -0.468166 0
1.197634 -0.453523 0
1.145651 -0.235852 0
1.054816 -0.133024 0
1.004516 -0.088701 0
0.969068 -0.059826 0
0.936742 -0.042498 0
0.906199 -0.038522 0
0.888230 -0.043931 0
0.896977 -0.043905 0
0.935498 -0.017982 0
0.984656 0.030773 0
1.018404 0.080996 0
1.036564 0.123432 0
1.043052 0.157135 0
1.037909 0.181706 0
1.021056 0.196052 0
0.992933 0.198751 0
0.954051 0.189002 0
0.904599 0.168453 0
0.845234 0.142892 0
0.779377 0.119539 0
0.714362 0.099526 0
0.659684 0.075079 0
0.623958 0.036163 0
0.610287 -0.022913 0
0.616651 -0.093430 0
0.639906 -0.155332 0
0.677337 -0.193271 0
0.727126 -0.199607 0
0.787488 -0.172741 0
0.855395 -0.117135 0
0.925038 -0.043966 0
0.984645 0.027530 0
1.026291 0.083892 0
1.051975 0.124964 0
1.063961 0.153271 0
1.064169 0.170759 0
1.054238 0.178975 0
1.035321 0.179360 0
1.007746 0.173704 0
0.970947 0.164453 0
0.924389 0.154022 0
0.869826 0.142733 0
0.813332 0.127150 0
0.764339 0.101621 0
0.731237 0.062577 0
0.717156 0.011656 0
0.718743 -0.044939 0
0.729859 -0.099494 0
0.746390 -0.145614 0
0.766764 -0.178834 0
0.790897 -0.195878 0
0.819085 -0.194552 0
0.851165 -0.174349 0
0.886172 -0.137094 0
0.922449 -0.087029 0
0.957836 -0.030503 0
0.988589 0.024030 0
1.011754 0.069963 0
1.026686 0.104922 0
1.033303 0.128447 0
1.031738 0.141285 0
1.022128 0.145190 0
1.004605 0.142621 0
0.979602 0.136089 0
0.948471 0.127143 0
0.914042 0.115523 0
0.880470 0.099329 0
0.852125 0.076434 0
0.832133 0.046235 0
0.821575 0.010422 0
0.819532 -0.027663 0
0.823934 -0.064188 0
0.832870 -0.095753 0
0.845053 -0.119812 0
0.859747 -0.134569 0
0.876528 -0.138864 0
0.895044 -0.132245 0
0.914838 -0.115144 0
0.935291 -0.089017 0
0.955645 -0.056314 0
0.975011 -0.020334 0
0.991930 0.014763 0
1.004877 0.045294 0
1.012964 0.069210 0
1.015574 0.085708 0
1.012340 0.095016 0
1.003220 0.098114 0
0.988664 0.096299 0
0.969780 0.090243 0
0.948626 0.084654 0
1.000000 -0.007640 0
0.996038 -0.023915 0
0.987504 -0.043468 0
0.973053 -0.069546 0
0.950358 -0.107612 0
0.915681 -0.168456 0
0.863285 -0.273529 0
0.789078 -0.555868 0
0.550922 -0.385537 0
0.491546 0.000000 0
0.420793 -0.019517 0
0.358249 -0.033726 0
0.342763 -0.018095 0
0.339806 -0.001571 0
0.331638 -0.003372 0
0.330025 -0.032477 0
0.352920 -0.071116 0
0.410418 -0.081038 0
0.497820 -0.038394 0
0.587046 0.030097 0
0.653536 0.089838 0
0.697873 0.138473 0
0.721836 0.178968 0
0.724354 0.210143 0
0.704736 0.230832 0
0.662848 0.241290 0
0.600539 0.242502 0
0.524869 0.233711 0
0.450435 0.211090 0
0.395512 0.170092 0
0.372725 0.108861 0
0.383154 0.030496 0
0.415883 -0.054533 0
0.454194 -0.133858 0
0.491030 -0.198547 0
0.527824 -0.240825 0
0.568961 -0.254194 0
0.618246 -0.235373 0
0.676910 -0.186273 0
0.742925 -0.114597 0
0.810568 -0.033624 0
0.868037 0.039478 0
0.909652 0.096267 0
0.936336 0.138661 0
0.948932 0.168862 0
0.948116 0.188827 0
0.934194 0.200740 0
0.907213 0.207094 0
0.867918 0.209827 0
0.819596 0.208467 0
0.769362 0.198875 0
0.726641 0.174992 0
0.698942 0.133259 0
0.688394 0.075821 0
0.691952 0.009814 0
0.703743 -0.055863 0
0.718221 -0.114520 0
0.732671 -0.162639 0
0.746750 -0.197866 0
0.761673 -0.217879 0
0.779296 -0.220391 0
0.801078 -0.204071 0
0.827279 -0.169729 0
0.856830 -0.120871 0
0.887784 -0.063208 0
0.917575 -0.004184 0
0.942385 0.048814 0
0.960339 0.091686 0
0.970539 0.123517 0
0.972463 0.144877 0
0.965836 0.157384 0
0.950835 0.163069 0
0.928561 0.163447 0
0.901496 0.158599 0
0.873413 0.146995 0
0.848449 0.126539 0
0.829752 0.096297 0
0.818620 0.057638 0
0.814608 0.014006 0
0.816277 -0.030197 0
0.821726 -0.070942 0
0.829428 -0.105341 0
0.838492 -0.131476 0
0.848621 -0.148014 0
0.859930 -0.153999 0
0.872662 -0.148930 0
0.886907 -0.133031 0
0.902428 -0.107520 0
0.918645 -0.074660 0
0.934730 -0.037530 0
0.949617 0.000140 0
0.961699 0.034628 0
0.969820 0.063403 0
0.973172 0.085362 0
0.971291 0.100387 0
0.964158 0.108964 0
0.952362 0.111735 0
0.937179 0.108514 0
0.920726 0.103892 0
1.000000 -0.005147 0
0.994449 -0.015993 0
0.982338 -0.028655 0
0.961297 -0.044867 0
0.926704 -0.067367 0
0.869478 -0.101120 0
0.770255 -0.156902 0
0.586927 -0.252080 0
0.000000 -0.155989 0
0.000000 0.000000 0
0.000000 0.000000 0
-0.029230 -0.020378 0
-0.045552 -0.041379 0
-0.058016 -0.031374 0
-0.074369 -0.028742 0
-0.077800 -0.065215 0
-0.055230 -0.124302 0
-0.006264 -0.162885 0
0.074161 -0.145858 0
0.185498 -0.074723 0
0.285689 0.012603 0
0.357568 0.088833 0
0.402950 0.155224 0
0.421947 0.213153 0
0.415519 0.260258 0
0.387689 0.293204 0
0.347780 0.306440 0
0.310320 0.293006 0
0.290129 0.248909 0
0.295608 0.177249 0
0.325540 0.087447 0
0.369351 -0.006988 0
0.411400 -0.093950 0
0.444924 -0.168580 0
0.468988 -0.228964 0
0.486817 -0.271197 0
0.504636 -0.290026 0
0.529430 -0.280689 0
0.566025 -0.241813 0
0.614975 -0.177623 0
0.672562 -0.097582 0
0.731022 -0.015192 0
0.779018 0.056666 0
0.812816 0.113991 0
0.831957 0.158979 0
0.836316 0.193713 0
0.826131 0.220263 0
0.802755 0.239981 0
0.769900 0.252072 0
0.734361 0.252583 0
0.704696 0.235693 0
0.687765 0.197576 0
0.685670 0.139876 0
0.695724 0.069576 0
0.712798 -0.003684 0
0.730893 -0.071199 0
0.746288 -0.128414 0
0.757354 -0.174138 0
0.764167 -0.207834 0
0.768398 -0.228422 0
0.772931 -0.233954 0
0.780893 -0.222329 0
0.794363 -0.192844 0
0.813513 -0.147532 0
0.836756 -0.091246 0
0.861550 -0.030568 0
0.884438 0.027202 0
0.902350 0.076771 0
0.913709 0.116326 0
0.917606 0.145990 0
0.913734 0.166820 0
0.902663 0.179900 0
0.886172 0.185432 0
0.867248 0.182295 0
0.849430 0.168575 0
0.835700 0.142995 0
0.827574 0.106269 0
0.824994 0.061386 0
0.826886 0.012771 0
0.831748 -0.034775 0
0.837996 -0.077333 0
0.844411 -0.112513 0
0.850304 -0.138999 0
0.855584 -0.156000 0
0.860723 -0.162898 0
0.866524 -0.159216 0
0.873750 -0.144904 0
0.882764 -0.120749 0
0.893368 -0.088612 0
0.904874 -0.051302 0
0.916290 -0.012202 0
0.926256 0.025094 0
0.933474 0.057739 0
0.937063 0.084239 0
0.936560 0.104031 0
0.932003 0.117043 0
0.924015 0.123277 0
0.913764 0.121878 0
0.902922 0.117669 0
1.000000 -0.002091 0
0.993935 -0.006255 0
0.980746 -0.010314 0
0.957966 -0.013907 0
0.920904 -0.015784 0
0.860877 -0.011995 0
0.761390 0.009032 0
0.589340 0.112062 0
0.275720 0.099062 0
0.000000 0.000000 0
0.000000 0.000000 0
0.000000 0.000000 0
-0.022491 0.008577 0
-0.108712 0.027245 0
-0.173746 0.016410 0
-0.192677 -0.051620 0
-0.181585 -0.142656 0
-0.158327 -0.210433 0
-0.118825 -0.230160 0
-0.052111 -0.181434 0
0.034758 -0.082234 0
0.115922 0.021211 0
0.175487 0.114588 0
0.212998 0.197574 0
0.231912 0.265093 0
0.239231 0.309036 0
0.245989 0.319881 0
0.263777 0.291374 0
0.299503 0.225814 0
0.352662 0.134693 0
0.415318 0.035127 0
0.471103 -0.055359 0
0.512315 -0.130106 0
0.537668 -0.191448 0
0.547381 -0.240438 0
0.544177 -0.276469 0
0.534089 -0.296806 0
0.525964 -0.296762 0
0.528814 -0.271817 0
0.547988 -0.221134 0
0.582775 -0.149670 0
0.627215 -0.066978 0
0.671361 0.014472 0
0.705759 0.085722 0
0.727631 0.145361 0
0.736340 0.194653 0
0.732796 0.234303 0
0.720038 0.263327 0
0.703586 0.278225 0
0.690518 0.273677 0
0.686937 0.245477 0
0.695350 0.194025 0
0.714118 0.125308 0
0.739133 0.048702 0
0.765174 -0.025345 0
0.787271 -0.089345 0
0.803133 -0.140975 0
0.811608 -0.180514 0
0.812582 -0.208909 0
0.807342 -0.226640 0
0.798828 -0.232882 0
0.791216 -0.225500 0
0.788584 -0.202347 0
0.793257 -0.163262 0
0.804989 -0.111242 0
0.821476 -0.051863 0
0.839443 0.008017 0
0.855178 0.062418 0
0.866435 0.108264 0
0.872052 0.144855 0
0.871829 0.172330 0
0.866651 0.190635 0
0.858496 0.198867 0
0.850025 0.195345 0
0.843753 0.178548 0
0.841221 0.148401 0
0.842693 0.107010 0
0.847473 0.058333 0
0.854434 0.007257 0
0.862191 -0.041300 0
0.869410 -0.083599 0
0.875031 -0.117643 0
0.878371 -0.142642 0
0.879299 -0.158426 0