# vtk DataFile Version 2.0
generated by CFD-lab course output (written by Tobias Neckel) 
ASCII

DATASET STRUCTURED_GRID
DIMENSIONS  99 19 1 
POINTS 1881 float

0.000000 0.000000 0
0.100000 0.000000 0
0.200000 0.000000 0
0.300000 0.000000 0
0.400000 0.000000 0
0.500000 0.000000 0
0.600000 0.000000 0
0.700000 0.000000 0
0.800000 0.000000 0
0.900000 0.000000 0
1.000000 0.000000 0
1.100000 0.000000 0
1.200000 0.000000 0
1.300000 0.000000 0
1.400000 0.000000 0
1.500000 0.000000 0
1.600000 0.000000 0
1.700000 0.000000 0
1.800000 0.000000 0
1.900000 0.000000 0
2.000000 0.000000 0
2.100000 0.000000 0
2.200000 0.000000 0
2.300000 0.000000 0
2.400000 0.000000 0
2.500000 0.000000 0
2.600000 0.000000 0
2.700000 0.000000 0
2.800000 0.000000 0
2.900000 0.000000 0
3.000000 0.000000 0
3.100000 0.000000 0
3.200000 0.000000 0
3.300000 0.000000 0
3.400000 0.000000 0
3.500000 0.000000 0
3.600000 0.000000 0
3.700000 0.000000 0
3.800000 0.000000 0
3.900000 0.000000 0
4.000000 0.000000 0
4.100000 0.000000 0
4.200000 0.000000 0
4.300000 0.000000 0
4.400000 0.000000 0
4.500000 0.000000 0
4.600000 0.000000 0
4.700000 0.000000 0
4.800000 0.000000 0
4.900000 0.000000 0
5.000000 0.000000 0
5.100000 0.000000 0
5.200000 0.000000 0
5.300000 0.000000 0
5.400000 0.000000 0
5.500000 0.000000 0
5.600000 0.000000 0
5.700000 0.000000 0
5.800000 0.000000 0
5.900000 0.000000 0
6.000000 0.000000 0
6.100000 0.000000 0
6.200000 0.000000 0
6.300000 0.000000 0
6.400000 0.000000 0
6.500000 0.000000 0
6.600000 0.000000 0
6.700000 0.000000 0
6.800000 0.000000 0
6.900000 0.000000 0
7.000000 0.000000 0
7.100000 0.000000 0
7.200000 0.000000 0
7.300000 0.000000 0
7.400000 0.000000 0
7.500000 0.000000 0
7.600000 0.000000 0
7.700000 0.000000 0
7.800000 0.000000 0
7.900000 0.000000 0
8.000000 0.000000 0
8.100000 0.000000 0
8.200000 0.000000 0
8.300000 0.000000 0
8.400000 0.000000 0
8.500000 0.000000 0
8.600000 0.000000 0
8.700000 0.000000 0
8.800000 0.000000 0
8.900000 0.000000 0
9.000000 0.000000 0
9.100000 0.000000 0
9.200000 0.000000 0
9.300000 0.000000 0
9.400000 0.000000 0
9.500000 0.000000 0
9.600000 0.000000 0
9.700000 0.000000 0
9.800000 0.000000 0
0.000000 0.100000 0
0.100000 0.100000 0
0.200000 0.100000 0
0.300000 0.100000 0
0.400000 0.100000 0
0.500000 0.100000 0
0.600000 0.100000 0
0.700000 0.100000 0
0.800000 0.100000 0
0.900000 0.100000 0
1.000000 0.100000 0
1.100000 0.100000 0
1.200000 0.100000 0
1.300000 0.100000 0
1.400000 0.100000 0
1.500000 0.100000 0
1.600000 0.100000 0
1.700000 0.100000 0
1.800000 0.100000 0
1.900000 0.100000 0
2.000000 0.100000 0
2.100000 0.100000 0
2.200000 0.100000 0
2.300000 0.100000 0
2.400000 0.100000 0
2.500000 0.100000 0
2.600000 0.100000 0
2.700000 0.100000 0
2.800000 0.100000 0
2.900000 0.100000 0
3.000000 0.100000 0
3.100000 0.100000 0
3.200000 0.100000 0
3.300000 0.100000 0
3.400000 0.100000 0
3.500000 0.100000 0
3.600000 0.100000 0
3.700000 0.100000 0
3.800000 0.100000 0
3.900000 0.100000 0
4.000000 0.100000 0
4.100000 0.100000 0
4.200000 0.100000 0
4.300000 0.100000 0
4.400000 0.100000 0
4.500000 0.100000 0
4.600000 0.100000 0
4.700000 0.100000 0
4.800000 0.100000 0
4.900000 0.100000 0
5.000000 0.100000 0
5.100000 0.100000 0
5.200000 0.100000 0
5.300000 0.100000 0
5.400000 0.100000 0
5.500000 0.100000 0
5.600000 0.100000 0
5.700000 0.100000 0
5.800000 0.100000 0
5.900000 0.100000 0
6.000000 0.100000 0
6.100000 0.100000 0
6.200000 0.100000 0
6.300000 0.100000 0
6.400000 0.100000 0
6.500000 0.100000 0
6.600000 0.100000 0
6.700000 0.100000 0
6.800000 0.100000 0
6.900000 0.100000 0
7.000000 0.100000 0
7.100000 0.100000 0
7.200000 0.100000 0
7.300000 0.100000 0
7.400000 0.100000 0
7.500000 0.100000 0
7.600000 0.100000 0
7.700000 0.100000 0
7.800000 0.100000 0
7.900000 0.100000 0
8.000000 0.100000 0
8.100000 0.100000 0
8.200000 0.100000 0
8.300000 0.100000 0
8.400000 0.100000 0
8.500000 0.100000 0
8.600000 0.100000 0
8.700000 0.100000 0
8.800000 0.100000 0
8.900000 0.100000 0
9.000000 0.100000 0
9.100000 0.100000 0
9.200000 0.100000 0
9.300000 0.100000 0
9.400000 0.100000 0
9.500000 0.100000 0
9.600000 0.100000 0
9.700000 0.100000 0
9.800000 0.100000 0
0.000000 0.200000 0
0.100000 0.200000 0
0.200000 0.200000 0
0.300000 0.200000 0
0.400000 0.200000 0
0.500000 0.200000 0
0.600000 0.200000 0
0.700000 0.200000 0
0.800000 0.200000 0
0.900000 0.200000 0
1.000000 0.200000 0
1.100000 0.200000 0
1.200000 0.200000 0
1.300000 0.200000 0
1.400000 0.200000 0
1.500000 0.200000 0
1.600000 0.200000 0
1.700000 0.200000 0
1.800000 0.200000 0
1.900000 0.200000 0
2.000000 0.200000 0
2.100000 0.200000 0
2.200000 0.200000 0
2.300000 0.200000 0
2.400000 0.200000 0
2.500000 0.200000 0
2.600000 0.200000 0
2.700000 0.200000 0
2.800000 0.200000 0
2.900000 0.200000 0
3.000000 0.200000 0
3.100000 0.200000 0
3.200000 0.200000 0
3.300000 0.200000 0
3.400000 0.200000 0
3.500000 0.200000 0
3.600000 0.200000 0
3.700000 0.200000 0
3.800000 0.200000 0
3.900000 0.200000 0
4.000000 0.200000 0
4.100000 0.200000 0
4.200000 0.200000 0
4.300000 0.200000 0
4.400000 0.200000 0
4.500000 0.200000 0
4.600000 0.200000 0
4.700000 0.200000 0
4.800000 0.200000 0
4.900000 0.200000 0
5.000000 0.200000 0
5.100000 0.200000 0
5.200000 0.200000 0
5.300000 0.200000 0
5.400000 0.200000 0
5.500000 0.200000 0
5.600000 0.200000 0
5.700000 0.200000 0
5.800000 0.200000 0
5.900000 0.200000 0
6.000000 0.200000 0
6.100000 0.200000 0
6.200000 0.200000 0
6.300000 0.200000 0
6.400000 0.200000 0
6.500000 0.200000 0
6.600000 0.200000 0
6.700000 0.200000 0
6.800000 0.200000 0
6.900000 0.200000 0
7.000000 0.200000 0
7.100000 0.200000 0
7.200000 0.200000 0
7.300000 0.200000 0
7.400000 0.200000 0
7.500000 0.200000 0
7.600000 0.200000 0
7.700000 0.200000 0
7.800000 0.200000 0
7.900000 0.200000 0
8.000000 0.200000 0
8.100000 0.200000 0
8.200000 0.200000 0
8.300000 0.200000 0
8.400000 0.200000 0
8.500000 0.200000 0
8.600000 0.200000 0
8.700000 0.200000 0
8.800000 0.200000 0
8.900000 0.200000 0
9.000000 0.200000 0
9.100000 0.200000 0
9.200000 0.200000 0
9.300000 0.200000 0
9.400000 0.200000 0
9.500000 0.200000 0
9.600000 0.200000 0
9.700000 0.200000 0
9.800000 0.200000 0
0.000000 0.300000 0
0.100000 0.300000 0
0.200000 0.300000 0
0.300000 0.300000 0
0.400000 0.300000 0
0.500000 0.300000 0
0.600000 0.300000 0
0.700000 0.300000 0
0.800000 0.300000 0
0.900000 0.300000 0
1.000000 0.300000 0
1.100000 0.300000 0
1.200000 0.300000 0
1.300000 0.300000 0
1.400000 0.300000 0
1.500000 0.300000 0
1.600000 0.300000 0
1.700000 0.300000 0
1.800000 0.300000 0
1.900000 0.300000 0
2.000000 0.300000 0
2.100000 0.300000 0
2.200000 0.300000 0
2.300000 0.300000 0
2.400000 0.300000 0
2.500000 0.300000 0
2.600000 0.300000 0
2.700000 0.300000 0
2.800000 0.300000 0
2.900000 0.300000 0
3.000000 0.300000 0
3.100000 0.300000 0
3.200000 0.300000 0
3.300000 0.300000 0
3.400000 0.300000 0
3.500000 0.300000 0
3.600000 0.300000 0
3.700000 0.300000 0
3.800000 0.300000 0
3.900000 0.300000 0
4.000000 0.300000 0
4.100000 0.300000 0
4.200000 0.300000 0
4.300000 0.300000 0
4.400000 0.300000 0
4.500000 0.300000 0
4.600000 0.300000 0
4.700000 0.300000 0
4.800000 0.300000 0
4.900000 0.300000 0
5.000000 0.300000 0
5.100000 0.300000 0
5.200000 0.300000 0
5.300000 0.300000 0
5.400000 0.300000 0
5.500000 0.300000 0
5.600000 0.300000 0
5.700000 0.300000 0
5.800000 0.300000 0
5.900000 0.300000 0
6.000000 0.300000 0
6.100000 0.300000 0
6.200000 0.300000 0
6.300000 0.300000 0
6.400000 0.300000 0
6.500000 0.300000 0
6.600000 0.300000 0
6.700000 0.300000 0
6.800000 0.300000 0
6.900000 0.300000 0
7.000000 0.300000 0
7.100000 0.300000 0
7.200000 0.300000 0
7.300000 0.300000 0
7.400000 0.300000 0
7.500000 0.300000 0
7.600000 0.300000 0
7.700000 0.300000 0
7.800000 0.300000 0
7.900000 0.300000 0
8.000000 0.300000 0
8.100000 0.300000 0
8.200000 0.300000 0
8.300000 0.300000 0
8.400000 0.300000 0
8.500000 0.300000 0
8.600000 0.300000 0
8.700000 0.300000 0
8.800000 0.300000 0
8.900000 0.300000 0
9.000000 0.300000 0
9.100000 0.300000 0
9.200000 0.300000 0
9.300000 0.300000 0
9.400000 0.300000 0
9.500000 0.300000 0
9.600000 0.300000 0
9.700000 0.300000 0
9.800000 0.300000 0
0.000000 0.400000 0
0.100000 0.400000 0
0.200000 0.400000 0
0.300000 0.400000 0
0.400000 0.400000 0
0.500000 0.400000 0
0.600000 0.400000 0
0.700000 0.400000 0
0.800000 0.400000 0
0.900000 0.400000 0
1.000000 0.400000 0
1.100000 0.400000 0
1.200000 0.400000 0
1.300000 0.400000 0
1.400000 0.400000 0
1.500000 0.400000 0
1.600000 0.400000 0
1.700000 0.400000 0
1.800000 0.400000 0
1.900000 0.400000 0
2.000000 0.400000 0
2.100000 0.400000 0
2.200000 0.400000 0
2.300000 0.400000 0
2.400000 0.400000 0
2.500000 0.400000 0
2.600000 0.400000 0
2.700000 0.400000 0
2.800000 0.400000 0
2.900000 0.400000 0
3.000000 0.400000 0
3.100000 0.400000 0
3.200000 0.400000 0
3.300000 0.400000 0
3.400000 0.400000 0
3.500000 0.400000 0
3.600000 0.400000 0
3.700000 0.400000 0
3.800000 0.400000 0
3.900000 0.400000 0
4.000000 0.400000 0
4.100000 0.400000 0
4.200000 0.400000 0
4.300000 0.400000 0
4.400000 0.400000 0
4.500000 0.400000 0
4.600000 0.400000 0
4.700000 0.400000 0
4.800000 0.400000 0
4.900000 0.400000 0
5.000000 0.400000 0
5.100000 0.400000 0
5.200000 0.400000 0
5.300000 0.400000 0
5.400000 0.400000 0
5.500000 0.400000 0
5.600000 0.400000 0
5.700000 0.400000 0
5.800000 0.400000 0
5.900000 0.400000 0
6.000000 0.400000 0
6.100000 0.400000 0
6.200000 0.400000 0
6.300000 0.400000 0
6.400000 0.400000 0
6.500000 0.400000 0
6.600000 0.400000 0
6.700000 0.400000 0
6.800000 0.400000 0
6.900000 0.400000 0
7.000000 0.400000 0
7.100000 0.400000 0
7.200000 0.400000 0
7.300000 0.400000 0
7.400000 0.400000 0
7.500000 0.400000 0
7.600000 0.400000 0
7.700000 0.400000 0
7.800000 0.400000 0
7.900000 0.400000 0
8.000000 0.400000 0
8.100000 0.400000 0
8.200000 0.400000 0
8.300000 0.400000 0
8.400000 0.400000 0
8.500000 0.400000 0
8.600000 0.400000 0
8.700000 0.400000 0
8.800000 0.400000 0
8.900000 0.400000 0
9.000000 0.400000 0
9.100000 0.400000 0
9.200000 0.400000 0
9.300000 0.400000 0
9.400000 0.400000 0
[...]
POINT_DATA 1881 

VECTORS velocity float
0.500000 0.000000 0
0.502146 0.000000 0
0.506964 0.000000 0
0.514876 0.000000 0
0.526309 0.000000 0
0.541587 0.000000 0
0.560720 0.000000 0
0.583115 0.000000 0
0.607313 0.000000 0
0.630916 0.000000 0
0.651846 0.000000 0
0.668937 0.000000 0
0.681790 0.000000 0
0.690344 0.000000 0
0.694682 0.000000 0
0.694980 0.000000 0
0.691535 0.000000 0
0.684792 0.000000 0
0.675369 0.000000 0
0.664047 0.000000 0
0.651727 0.000000 0
0.639370 0.000000 0
0.627929 0.000000 0
0.618292 0.000000 0
0.611228 0.000000 0
0.607371 0.000000 0
0.607193 0.000000 0
0.610765 0.000000 0
0.617503 0.000000 0
0.626097 0.000000 0
0.634688 0.000000 0
0.641349 0.000000 0
0.644663 0.000000 0
0.644004 0.000000 0
0.639301 0.000000 0
0.630897 0.000000 0
0.619389 0.000000 0
0.605493 0.000000 0
0.589962 0.000000 0
0.573542 0.000000 0
0.556968 0.000000 0
0.540964 0.000000 0
0.526257 0.000000 0
0.513600 0.000000 0
0.503800 0.000000 0
0.497737 0.000000 0
0.496262 0.000000 0
0.499809 0.000000 0
0.508331 0.000000 0
0.521395 0.000000 0
0.538171 0.000000 0
0.557423 0.000000 0
0.577501 0.000000 0
0.596380 0.000000 0
0.611856 0.000000 0
0.622013 0.000000 0
0.625833 0.000000 0
0.623365 0.000000 0
0.615144 0.000000 0
0.602009 0.000000 0
0.585055 0.000000 0
0.565540 0.000000 0
0.544796 0.000000 0
0.524147 0.000000 0
0.504866 0.000000 0
0.488128 0.000000 0
0.474972 0.000000 0
0.466208 0.000000 0
0.462285 0.000000 0
0.463054 0.000000 0
0.467722 0.000000 0
0.475477 0.000000 0
0.485667 0.000000 0
0.497814 0.000000 0
0.511547 0.000000 0
0.526489 0.000000 0
0.542108 0.000000 0
0.557585 0.000000 0
0.571761 0.000000 0
0.583224 0.000000 0
0.590603 0.000000 0
0.592990 0.000000 0
0.590150 0.000000 0
0.582209 0.000000 0
0.569588 0.000000 0
0.553080 0.000000 0
0.533881 0.000000 0
0.513583 0.000000 0
0.494072 0.000000 0
0.477266 0.000000 0
0.464757 0.000000 0
0.457465 0.000000 0
0.455445 0.000000 0
0.457785 0.000000 0
0.463226 0.000000 0
0.470802 0.000000 0
0.479945 0.000000 0
0.490494 0.000000 0
0.502896 0.000000 0
1.000000 -0.002166 0
1.004848 -0.006996 0
1.015108 -0.012754 0
1.031545 -0.019367 0
1.055097 -0.026727 0
1.086612 -0.034420 0
1.126407 -0.041518 0
1.173518 -0.046570 0
1.225112 -0.047780 0
1.275106 -0.044518 0
1.318778 -0.038024 0
1.354058 -0.029945 0
1.380537 -0.021398 0
1.398363 -0.012889 0
1.407751 -0.004635 0
1.408982 0.003144 0
1.402583 0.010181 0
1.389412 0.016156 0
1.370729 0.020732 0
1.348143 0.023626 0
1.323514 0.024660 0
1.298829 0.023778 0
1.276058 0.021057 0
1.257018 0.016681 0
1.243262 0.010904 0
1.236047 0.004020 0
1.236314 -0.003401 0
1.244366 -0.010306 0
1.259290 -0.015321 0
1.278539 -0.017166 0
1.298196 -0.015230 0
1.314004 -0.009954 0
1.322679 -0.002638 0
1.322727 0.005371 0
1.314168 0.013109 0
1.297893 0.019914 0
1.275261 0.025406 0
1.247816 0.029427 0
1.217121 0.031949 0
1.184697 0.032990 0
1.152013 0.032574 0
1.120511 0.030705 0
1.091621 0.027356 0
1.066772 0.022448 0
1.047356 0.015853 0
1.034655 0.007527 0
1.029735 -0.002084 0
1.033378 -0.012080 0
1.045919 -0.021596 0
1.067061 -0.029849 0
1.095779 -0.036035 0
1.130325 -0.039333 0
1.168206 -0.038955 0
1.206102 -0.034350 0
1.239968 -0.025627 0
1.265558 -0.013969 0
1.279410 -0.001343 0
1.280078 0.010697 0
1.268461 0.021360 0
1.246369 0.030089 0
1.216107 0.036466 0
1.180274 0.040254 0
1.141576 0.041387 0
1.102673 0.039923 0
1.066047 0.036012 0
1.033880 0.029886 0
1.007891 0.021912 0
0.989147 0.012679 0
0.977950 0.003147 0
0.973940 -0.005445 0
0.976367 -0.012432 0
0.984300 -0.017953 0
0.996949 -0.022345 0
1.013760 -0.025888 0
1.034369 -0.028682 0
1.058424 -0.030566 0
1.085289 -0.031100 0
1.113767 -0.029655 0
1.141949 -0.025640 0
1.167289 -0.018842 0
1.186892 -0.009766 0
1.198036 0.000452 0
1.198998 0.010780 0
1.189779 0.020559 0
1.171320 0.029124 0
1.145271 0.035701 0
1.113950 0.039490 0
1.080223 0.039802 0
1.047233 0.036310 0
1.017964 0.029308 0
0.994701 0.019796 0
0.978634 0.009307 0
0.969804 -0.000325 0
0.967493 -0.007786 0
0.970564 -0.013020 0
0.977849 -0.016722 0
0.988534 -0.019693 0
1.002295 -0.022951 0
1.019555 -0.024787 0
1.000000 -0.004880 0
1.004998 -0.015154 0
1.015245 -0.026725 0
1.031550 -0.040011 0
1.055172 -0.055078 0
1.087627 -0.071306 0
1.130234 -0.086882 0
1.182956 -0.098677 0
1.244009 -0.101570 0
1.301297 -0.093666 0
1.348469 -0.078960 0
1.384847 -0.061753 0
1.411585 -0.044295 0
1.429698 -0.027212 0
1.439452 -0.010621 0
1.440842 0.005163 0
1.434181 0.019560 0
1.420238 0.031839 0
1.400327 0.041252 0
1.376188 0.047194 0
1.349841 0.049291 0
1.323447 0.047432 0
1.299142 0.041787 0
1.278853 0.032774 0
1.264151 0.020951 0
1.256273 0.006939 0
1.256357 -0.008315 0
1.265346 -0.022964 0
1.282952 -0.034152 0
1.306745 -0.038880 0
1.332232 -0.035439 0
1.353921 -0.024462 0
1.367134 -0.008712 0
1.369830 0.008511 0
1.362602 0.024834 0
1.346936 0.038910 0
1.324628 0.050078 0
1.297471 0.058139 0
1.267117 0.063115 0
1.235064 0.065102 0
1.202698 0.064179 0
1.171343 0.060383 0
1.142269 0.053728 0
1.116670 0.044253 0
1.095566 0.032104 0
1.079684 0.017608 0
1.069451 0.001264 0
1.065360 -0.016197 0
1.068041 -0.033695 0
1.077866 -0.049869 0
1.094889 -0.063268 0
1.118923 -0.072426 0
1.149327 -0.075771 0
1.184487 -0.071754 0
1.221427 -0.059446 0
1.255805 -0.039432 0
1.282432 -0.014512 0
1.296781 0.010954 0
1.297653 0.033710 0
1.286761 0.052351 0
1.266412 0.066089 0
1.239181 0.074523 0
1.207703 0.077593 0
1.174507 0.075520 0
1.141857 0.068783 0
1.111599 0.058147 0
1.085004 0.044724 0
1.062685 0.029932 0
1.044669 0.015198 0
1.030741 0.001573 0
1.020826 -0.010371 0
1.014782 -0.020592 0
1.012649 -0.029470 0
1.014776 -0.037430 0
1.021740 -0.044671 0
1.034117 -0.050925 0
1.052046 -0.055346 0
1.074900 -0.056660 0
1.101233 -0.053522 0
1.128894 -0.044943 0
1.155158 -0.030748 0
1.176871 -0.012109 0
1.190988 0.008253 0
1.195905 0.027673 0
1.192119 0.044501 0
1.180922 0.057361 0
1.164109 0.065039 0
1.143720 0.066708 0
1.121736 0.062251 0
1.099825 0.052525 0
1.079189 0.039322 0
1.060569 0.024891 0
1.044399 0.011136 0
1.031171 -0.000765 0
1.021251 -0.010360 0
1.014657 -0.017972 0
1.011351 -0.024448 0
1.011359 -0.031022 0
1.014691 -0.034992 0
1.000000 -0.007186 0
1.004015 -0.022266 0
1.012533 -0.039309 0
1.026603 -0.059292 0
1.048020 -0.082792 0
1.079422 -0.109456 0
1.124144 -0.136828 0
1.184617 -0.160342 0
1.264789 -0.166135 0
1.332120 -0.148999 0
1.380029 -0.121568 0
1.413342 -0.093049 0
1.436922 -0.066250 0
1.453297 -0.040756 0
1.462451 -0.015783 0
1.463188 0.008408 0
1.455076 0.030777 0
1.438658 0.050002 0
1.415377 0.064773 0
1.387211 0.074103 0
1.356454 0.077392 0
1.325573 0.074470 0
1.297029 0.065645 0
1.272978 0.051669 0
1.254975 0.033487 0
1.243919 0.011827 0
1.240669 -0.012457 0
1.247012 -0.036884 0
1.263946 -0.056702 0
1.289979 -0.066434 0
1.321127 -0.062403 0
1.351208 -0.044861 0
1.373031 -0.018560 0
1.381531 0.009893 0
1.377101 0.036003 0
1.362476 0.057888 0
1.340377 0.074868 0
1.313109 0.086935 0
1.282511 0.094353 0
1.250066 0.097405 0
1.217032 0.096289 0
1.184549 0.091129 0
1.153673 0.082024 0
1.125370 0.069146 0
1.100439 0.052834 0
1.079360 0.033637 0
1.062124 0.012236 0
1.048267 -0.010674 0
1.037610 -0.034102 0
1.031322 -0.056694 0
1.031299 -0.077087 0
1.039750 -0.093764 0
1.058191 -0.104512 0
1.086379 -0.106443 0
1.122109 -0.096939 0
1.161525 -0.074972 0
1.199514 -0.042320 0
1.230152 -0.004529 0
1.248266 0.031373 0
1.253436 0.061323 0
1.247588 0.084040 0
1.232988 0.098958 0
1.211990 0.106057 0
1.186851 0.105766 0
1.159576 0.098916 0
1.131809 0.086737 0
1.104774 0.070823 0
1.079273 0.053011 0
1.055697 0.035086 0
1.034039 0.018393 0
1.014068 0.003524 0
0.995837 -0.009780 0
0.980111 -0.022342 0
0.968684 -0.034979 0
0.963712 -0.048023 0
0.966676 -0.060871 0
0.977819 -0.071881 0
0.996195 -0.078841 0
1.020080 -0.079633 0
1.047373 -0.072767 0
1.075843 -0.057745 0
1.103197 -0.035381 0
1.126900 -0.008259 0
1.144148 0.019422 0
1.153788 0.044102 0
1.156246 0.063707 0
1.152426 0.076689 0
1.143441 0.082173 0
1.130387 0.080203 0
1.114249 0.071852 0
1.095942 0.059049 0
1.076394 0.044095 0
1.056536 0.029071 0
1.037125 0.015361 0
1.018858 0.003494 0
1.002478 -0.006821 0
0.988771 -0.016396 0
0.978594 -0.026291 0
0.972676 -0.032750 0
1.000000 -0.008913 0
1.002599 -0.027706 0
1.008322 -0.049311 0
1.018324 -0.075490 0
1.034825 -0.107880 0
1.061727 -0.147411 0
1.105500 -0.192073 0
1.174098 -0.239330 0
1.291123 -0.249088 0
1.362824 -0.208903 0
1.398288 -0.160164 0
1.417746 -0.118641 0
1.431333 -0.084253 0
1.443247 -0.052745 0
1.452649 -0.020518 0
1.454781 0.012530 0
1.446765 0.044081 0
1.428726 0.071529 0
1.402388 0.092690 0
1.370035 0.106109 0
1.334233 0.110922 0
1.297806 0.106853 0
1.263705 0.094379 0
1.234532 0.074828 0
1.211740 0.050022 0
1.195126 0.021259 0
1.183535 -0.011394 0
1.177818 -0.046224 0
1.182251 -0.077108 0
1.198941 -0.096057 0
1.227788 -0.096670 0
1.265029 -0.076378 0
1.302361 -0.039047 0
1.328826 0.004442 0
1.337593 0.043891 0
1.332113 0.075631 0
1.316513 0.099443 0
1.293939 0.116001 0
1.266650 0.126154 0
1.236318 0.130576 0
1.204266 0.129691 0
1.171626 0.123738 0
1.139406 0.112902 0
1.108475 0.097482 0
1.079409 0.078110 0
1.052132 0.055918 0
1.025567 0.032352 0
0.998084 0.008315 0
0.969280 -0.016748 0
0.942169 -0.043554 0
0.923373 -0.071690 0
0.918283 -0.099310 0
0.928336 -0.122393 0
0.951991 -0.135666 0
0.986274 -0.134589 0
1.027575 -0.116838 0
1.071843 -0.083143 0
1.114392 -0.037805 0
1.149334 0.010419 0
1.171918 0.053024 0
1.182535 0.086534 0
1.182792 0.110117 0
1.174563 0.123725 0
1.159740 0.127931 0
1.140074 0.123822 0
1.117057 0.112946 0
1.091822 0.097257 0
1.065041 0.079006 0
1.036912 0.060427 0
1.007457 0.043198 0
0.977201 0.027827 0
0.947851 0.013362 0
0.922230 -0.002318 0
0.903431 -0.021031 0
0.893935 -0.042662 0
0.894551 -0.065031 0
0.904373 -0.084863 0
0.921624 -0.098920 0
0.944330 -0.104700 0
0.970607 -0.100708 0
0.998728 -0.086575 0
1.027103 -0.063169 0
1.054140 -0.032703 0
1.077835 0.000779 0
1.095789 0.032398 0
1.107335 0.058720 0
1.112555 0.077841 0
1.111798 0.088744 0
1.105524 0.091441 0
1.094254 0.086968 0
1.078600 0.077174 0
1.059299 0.064295 0
1.037249 0.050404 0
1.013562 0.036912 0
0.989661 0.024286 0
0.967322 0.012115 0
0.948420 -0.000563 0
0.934506 -0.014926 0
0.926948 -0.025072 0
1.000000 -0.009799 0
1.000666 -0.030601 0
1.002353 -0.055029 0
1.005922 -0.085781 0
1.013356 -0.126178 0
1.028986 -0.180122 0
1.062216 -0.249202 0
1.130443 -0.345976 0
1.303981 -0.354861 0
1.346251 -0.256148 0
1.337649 -0.176483 0
1.325311 -0.126099 0
1.317952 -0.091756 0
1.319862 -0.062079 0
1.330868 -0.027326 0
1.341316 0.014285 0
1.339665 0.056825 0
1.325879 0.094372 0
1.302075 0.123456 0
1.270401 0.142250 0
1.233125 0.149617 0
1.193059 0.144996 0
1.153674 0.128919 0
1.118290 0.103643 0
1.087849 0.072906 0
1.059583 0.040045 0
1.029949 0.004866 0
0.998933 -0.035589 0
0.974933 -0.077820 0
0.970976 -0.111973 0
0.991388 -0.128499 0
1.032946 -0.119445 0
1.087608 -0.082359 0
1.143299 -0.025336 0
1.185474 0.032715 0
1.207309 0.078965 0
1.213831 0.113037 0
1.209024 0.136793 0
1.195622 0.151970 0
1.175659 0.159785 0
1.150794 0.160977 0
1.122405 0.155984 0
1.091470 0.145170 0
1.058188 0.129138 0
1.021565 0.109173 0
0.979846 0.087475 0
0.932605 0.066281 0
0.883196 0.045614 0
0.838512 0.021816 0
0.805524 -0.010783 0
0.788708 -0.053193 0
0.788466 -0.098719 0
0.802232 -0.138215 0
0.827047 -0.164378 0
0.860491 -0.172523 0
0.900417 -0.160545 0
0.944494 -0.129143 0
0.989950 -0.082026 0
1.033218 -0.026158 0
1.068614 0.028118 0
1.092894 0.073163 0
1.106505 0.106927 0
1.110480 0.129105 0
1.106082 0.140251 0
1.094548 0.141596 0
1.076891 0.134985 0
1.053732 0.122835 0
1.025307 0.107917 0
0.991892 0.092666 0
0.954687 0.078100 0
0.916600 0.063127 0
0.882061 0.045190 0
0.855555 0.022078 0
0.839679 -0.006684 0
0.834599 -0.039142 0
0.838803 -0.071307 0
0.850225 -0.098953 0
0.867042 -0.118798 0
0.887854 -0.128617 0
0.911533 -0.127168 0
0.937050 -0.114244 0
0.963377 -0.090798 0
0.989454 -0.058996 0
1.014107 -0.022231 0
1.035398 0.014598 0
1.051545 0.046938 0
1.061943 0.072224 0
1.066317 0.089201 0
1.064594 0.097743 0
1.056845 0.098773 0
1.043320 0.094002 0
1.024556 0.085444 0
1.001547 0.074806 0
0.975919 0.062947 0
0.949940 0.049734 0
0.926255 0.034420 0
0.907338 0.016420 0
0.894810 -0.004818 0
0.889718 -0.019885 0
1.000000 -0.009588 0
0.998360 -0.030065 0
0.995033 -0.054558 0
0.989998 -0.086477 0
0.983707 -0.130930 0
0.978271 -0.196266 0
0.981033 -0.293536 0
1.013947 -0.481100 0
1.205291 -0.464885 0
1.150570 -0.242564 0
1.057159 -0.139226 0
1.004687 -0.098948 0
0.969989 -0.078810 0
0.956776 -0.065666 0
0.970031 -0.041980 0
1.002303 0.003727 0
1.027141 0.059513 0
1.036045 0.109113 0
1.032241 0.148162 0
1.015894 0.175055 0
0.986778 0.188261 0
0.945139 0.186302 0
0.891546 0.169154 0
0.827794 0.140666 0
0.759211 0.108742 0
0.695485 0.079172 0
0.647322 0.049268 0
0.621411 0.008798 0
0.618169 -0.049149 0
0.635787 -0.112517 0
0.672372 -0.158652 0
0.725542 -0.172603 0
0.792212 -0.149397 0
0.867499 -0.093424 0
0.941980 -0.020122 0
1.000847 0.047271 0
1.038986 0.097724 0
1.060774 0.134205 0
1.069103 0.159514 0
1.066061 0.175399 0
1.053306 0.182941 0
1.031933 0.183058 0
1.002120 0.177114 0
0.962970 0.167382 0
0.913427 0.156448 0
0.854740 0.144876 0
0.793066 0.129004 0
0.738930 0.102411 0
0.702393 0.060928 0
0.687479 0.006256 0
0.690022 -0.054626 0
0.702972 -0.112828 0
0.721936 -0.160970 0
0.745501 -0.193925 0
0.773836 -0.207962 0
0.807280 -0.200846 0
0.845399 -0.172682 0
0.886718 -0.126533 0
0.928926 -0.068249 0
0.968630 -0.006656 0
1.000542 0.048639 0
1.022964 0.092527 0
1.035847 0.124145 0
1.039560 0.143860 0
1.034550 0.153010 0
1.021121 0.153758 0
0.999430 0.148838 0
0.969911 0.140842 0
0.934137 0.131043 0
0.895542 0.118486 0
0.859121 0.100452 0
0.829857 0.074405 0
0.810886 0.040063 0
0.802722 -0.000074 0
0.803518 -0.041785 0
0.810582 -0.080655 0
0.821857 -0.113101 0
0.836157 -0.136549 0
0.852928 -0.149192 0
0.871885 -0.149907 0
0.892707 -0.138423 0
0.914861 -0.115578 0
0.937589 -0.083437 0
0.959958 -0.045169 0
0.980788 -0.005044 0
0.998073 0.032172 0
1.010562 0.063066 0
1.017502 0.086089 0
1.018406 0.100910 0
1.013022 0.108239 0
1.001437 0.109461 0
0.984267 0.106065 0
0.962845 0.099039 0
0.939259 0.088519 0
0.916079 0.073949 0
0.895820 0.054715 0
0.880405 0.030882 0
0.870889 0.002695 0
0.867695 -0.017019 0
1.000000 -0.008164 0
0.996099 -0.025633 0
0.987710 -0.046653 0
0.973508 -0.074440 0
0.951183 -0.114440 0
0.917048 -0.177447 0
0.865484 -0.284882 0
0.792753 -0.570232 0
0.553855 -0.393613 0
0.492130 0.000000 0
0.419306 -0.020452 0
0.352463 -0.038933 0
0.344925 -0.043851 0
0.373687 -0.062126 0
0.413715 -0.072858 0
0.472042 -0.042831 0
0.539666 0.023077 0
0.589372 0.089266 0
0.619147 0.143603 0
0.627696 0.187710 0
0.611999 0.220371 0
0.571747 0.240231 0
0.509653 0.246274 0
0.433834 0.235989 0
0.359506 0.205227 0
0.305914 0.151947 0
0.287294 0.078949 0
0.305556 -0.006433 0
0.346747 -0.092200 0
0.394618 -0.166186 0
0.444228 -0.218261 0
0.497834 -0.239284 0
0.559166 -0.224315 0
0.629942 -0.175107 0
0.708234 -0.100637 0
0.785507 -0.018044 0
0.847537 0.053106 0
0.890741 0.106672 0
0.917438 0.146679 0
0.928983 0.175577 0
0.926217 0.195100 0
0.909402 0.207166 0
0.878428 0.214129 0
0.833986 0.217827 0
0.779798 0.217400 0
0.724162 0.207836 0
0.678063 0.182094 0
0.649952 0.136291 0
0.641683 0.073272 0
0.649047 0.001594 0
0.664410 -0.068680 0
0.681465 -0.130629 0
0.697768 -0.180742 0
0.713690 -0.216279 0
0.731228 -0.234307 0
0.752771 -0.232115 0
0.779823 -0.208586 0
0.812190 -0.165556 0
0.848107 -0.108074 0
0.884902 -0.043502 0
0.918434 0.018826 0
0.944665 0.071619 0
0.962341 0.112506 0
0.970911 0.141544 0
0.970087 0.160031 0
0.959754 0.170102 0
0.940276 0.174041 0
0.913153 0.173206 0
0.881601 0.167032 0
0.850313 0.153113 0
0.824100 0.128811 0
0.806162 0.093424 0
0.797240 0.049212 0
0.796106 0.000685 0
0.800520 -0.047000 0
0.808146 -0.089645 0
0.817415 -0.124528 0
0.827633 -0.149870 0
0.838805 -0.164347 0
0.851336 -0.166951 0
0.865638 -0.157226 0
0.881790 -0.135684 0
0.899399 -0.104096 0
0.917676 -0.065433 0
0.935576 -0.023519 0
0.951554 0.017161 0
0.963912 0.052790 0
0.971573 0.081353 0
0.973808 0.102220 0
0.970250 0.115739 0
0.961033 0.122755 0
0.946973 0.124035 0
0.929631 0.119812 0
0.911135 0.109713 0
0.893724 0.093172 0
0.879228 0.070093 0
0.868730 0.041352 0
0.862545 0.007892 0
0.860537 -0.015212 0
1.000000 -0.005687 0
0.994463 -0.017768 0
0.982382 -0.031951 0
0.961381 -0.049936 0
0.926814 -0.074463 0
0.869612 -0.110567 0
0.770344 -0.169241 0
0.586775 -0.267331 0
0.000000 -0.164260 0
0.000000 0.000000 0
0.000000 0.000000 0
-0.031043 -0.035164 0
-0.050328 -0.100040 0
-0.022220 -0.134461 0
-0.008493 -0.140340 0
0.019130 -0.122229 0
0.080407 -0.057822 0
0.157301 0.029627 0
0.216412 0.109835 0
0.247297 0.182202 0
0.248702 0.244211 0
0.227917 0.288655 0
0.195534 0.307078 0
0.166784 0.290825 0
0.156885 0.236674 0
0.173076 0.151394 0
0.212453 0.049632 0
0.260769 -0.050656 0
0.305279 -0.138218 0
0.342098 -0.210006 0
0.372406 -0.261870 0
0.401608 -0.287539 0
0.436818 -0.281507 0
0.483450 -0.242495 0
0.542620 -0.175691 0
0.610719 -0.092037 0
0.677669 -0.007515 0
0.730668 0.064299 0
0.766900 0.121267 0
0.786489 0.166615 0
0.789512 0.202517 0
0.776372 0.230843 0
0.748848 0.252526 0
0.711609 0.266009 0
0.672940 0.266271 0
0.642864 0.246613 0
0.628804 0.203217 0
0.632129 0.138795 0
0.648614 0.061839 0
0.671370 -0.016464 0
0.693102 -0.087038 0
0.710189 -0.146183 0
0.721487 -0.193194 0
0.727867 -0.227387 0
0.732017 -0.247049 0
0.737813 -0.249446 0
0.748956 -0.232104 0
0.767376 -0.194821 0
0.792490 -0.140964 0
0.821742 -0.076987 0
0.851638 -0.011128 0
0.877384 0.048618 0
0.896248 0.097895 0
0.906916 0.136110 0
0.908698 0.164162 0
0.901555 0.183565 0
0.886519 0.195435 0
0.866107 0.199513 0
0.844219 0.193880 0
0.825137 0.175985 0
0.812044 0.144602 0
0.806056 0.101265 0
0.806399 0.050120 0
0.811301 -0.003353 0
0.818610 -0.053823 0
0.826466 -0.097549 0
0.833646 -0.132588 0
0.839659 -0.157941 0
0.844776 -0.172899 0
0.849899 -0.176744 0
0.856186 -0.168880 0
0.864540 -0.149343 0
0.875220 -0.119326 0
0.887760 -0.081348 0
0.901164 -0.038924 0
0.914116 0.003833 0
0.924882 0.043043 0
0.932188 0.076190 0
0.935208 0.102230 0
0.933590 0.121012 0
0.927573 0.132736 0
0.918068 0.137465 0
0.906565 0.134875 0
0.894815 0.124425 0
0.884384 0.105855 0
0.876295 0.079710 0
0.870914 0.047566 0
0.868068 0.010888 0
0.867230 -0.014201 0
1.000000 -0.002622 0
0.993905 -0.008002 0
0.980632 -0.013556 0
0.957708 -0.018862 0
0.920427 -0.022666 0
0.859992 -0.020976 0
0.759761 -0.002042 0
0.586272 0.096963 0
0.272341 0.090011 0
0.000000 0.000000 0
0.000000 0.000000 0
0.000000 0.000000 0
-0.035966 -0.053481 0
-0.113649 -0.103966 0
-0.173551 -0.114212 0
-0.195004 -0.131735 0
-0.173830 -0.115098 0
-0.112038 -0.046742 0
-0.041216 0.053605 0
0.011248 0.155420 0
0.042858 0.239756 0
0.063802 0.293409 0
0.085282 0.307418 0
0.119183 0.274651 0
0.171920 0.198947 0
0.240764 0.096388 0
0.310427 -0.008741 0
0.365122 -0.099263 0
0.402499 -0.173536 0
0.422954 -0.233318 0
0.428833 -0.277770 0
0.426012 -0.303698 0
0.423711 -0.306161 0
0.431748 -0.280912 0
0.456356 -0.227910 0
0.497429 -0.153098 0
0.548936 -0.066848 0
0.599033 0.017436 0
0.637257 0.090854 0
0.661004 0.152961 0
0.669883 0.205212 0
0.665311 0.247827 0
0.651296 0.278888 0
0.634711 0.293733 0
0.623905 0.286145 0
0.625502 0.251975 0
0.641448 0.192833 0
0.668822 0.116487 0
0.702104 0.034037 0
0.733882 -0.042888 0
0.759036 -0.107494 0
0.775614 -0.159012 0
0.782868 -0.198422 0
0.781291 -0.226813 0
0.773091 -0.244258 0
0.762410 -0.249057 0
0.754558 -0.238153 0
0.754143 -0.209094 0
0.763104 -0.162443 0
0.780141 -0.102653 0
0.801783 -0.036820 0
0.823449 0.027006 0
0.841004 0.082970 0
0.852387 0.129090 0
0.856713 0.165388 0
0.854214 0.192276 0
0.846433 0.209486 0
0.836167 0.215503 0
0.826821 0.208000 0
0.821258 0.185286 0
0.820836 0.147891 0
0.825282 0.099069 0
0.833293 0.043969 0
0.843205 -0.011524 0
0.853085 -0.062164 0
0.861423 -0.104680 0
0.867140 -0.137721 0
0.869697 -0.161003 0
0.869304 -0.174591 0
0.867017 -0.178364 0
0.864540 -0.171870 0
0.863667 -0.154722 0
0.865626 -0.127320 0
0.870677 -0.091379 0