# vtk DataFile Version 2.0
generated by CFD-lab course output (written by Tobias Neckel) 
ASCII

DATASET STRUCTURED_GRID
DIMENSIONS  99 19 1 
POINTS 1881 float

0.000000 0.000000 0
0.100000 0.000000 0
0.200000 0.000000 0
0.300000 0.000000 0
0.400000 0.000000 0
0.500000 0.000000 0
0.600000 0.000000 0
0.700000 0.000000 0
0.800000 0.000000 0
0.900000 0.000000 0
1.000000 0.000000 0
1.100000 0.000000 0
1.200000 0.000000 0
1.300000 0.000000 0
1.400000 0.000000 0
1.500000 0.000000 0
1.600000 0.000000 0
1.700000 0.000000 0
1.800000 0.000000 0
1.900000 0.000000 0
2.000000 0.000000 0
2.100000 0.000000 0
2.200000 0.000000 0
2.300000 0.000000 0
2.400000 0.000000 0
2.500000 0.000000 0
2.600000 0.000000 0
2.700000 0.000000 0
2.800000 0.000000 0
2.900000 0.000000 0
3.000000 0.000000 0
3.100000 0.000000 0
3.200000 0.000000 0
3.300000 0.000000 0
3.400000 0.000000 0
3.500000 0.000000 0
3.600000 0.000000 0
3.700000 0.000000 0
3.800000 0.000000 0
3.900000 0.000000 0
4.000000 0.000000 0
4.100000 0.000000 0
4.200000 0.000000 0
4.300000 0.000000 0
4.400000 0.000000 0
4.500000 0.000000 0
4.600000 0.000000 0
4.700000 0.000000 0
4.800000 0.000000 0
4.900000 0.000000 0
5.000000 0.000000 0
5.100000 0.000000 0
5.200000 0.000000 0
5.300000 0.000000 0
5.400000 0.000000 0
5.500000 0.000000 0
5.600000 0.000000 0
5.700000 0.000000 0
5.800000 0.000000 0
5.900000 0.000000 0
6.000000 0.000000 0
6.100000 0.000000 0
6.200000 0.000000 0
6.300000 0.000000 0
6.400000 0.000000 0
6.500000 0.000000 0
6.600000 0.000000 0
6.700000 0.000000 0
6.800000 0.000000 0
6.900000 0.000000 0
7.000000 0.000000 0
7.100000 0.000000 0
7.200000 0.000000 0
7.300000 0.000000 0
7.400000 0.000000 0
7.500000 0.000000 0
7.600000 0.000000 0
7.700000 0.000000 0
7.800000 0.000000 0
7.900000 0.000000 0
8.000000 0.000000 0
8.100000 0.000000 0
8.200000 0.000000 0
8.300000 0.000000 0
8.400000 0.000000 0
8.500000 0.000000 0
8.600000 0.000000 0
8.700000 0.000000 0
8.800000 0.000000 0
8.900000 0.000000 0
9.000000 0.000000 0
9.100000 0.000000 0
9.200000 0.000000 0
9.300000 0.000000 0
9.400000 0.000000 0
9.500000 0.000000 0
9.600000 0.000000 0
9.700000 0.000000 0
9.800000 0.000000 0
0.000000 0.100000 0
0.100000 0.100000 0
0.200000 0.100000 0
0.300000 0.100000 0
0.400000 0.100000 0
0.500000 0.100000 0
0.600000 0.100000 0
0.700000 0.100000 0
0.800000 0.100000 0
0.900000 0.100000 0
1.000000 0.100000 0
1.100000 0.100000 0
1.200000 0.100000 0
1.300000 0.100000 0
1.400000 0.100000 0
1.500000 0.100000 0
1.600000 0.100000 0
1.700000 0.100000 0
1.800000 0.100000 0
1.900000 0.100000 0
2.000000 0.100000 0
2.100000 0.100000 0
2.200000 0.100000 0
2.300000 0.100000 0
2.400000 0.100000 0
2.500000 0.100000 0
2.600000 0.100000 0
2.700000 0.100000 0
2.800000 0.100000 0
2.900000 0.100000 0
3.000000 0.100000 0
3.100000 0.100000 0
3.200000 0.100000 0
3.300000 0.100000 0
3.400000 0.100000 0
3.500000 0.100000 0
3.600000 0.100000 0
3.700000 0.100000 0
3.800000 0.100000 0
3.900000 0.100000 0
4.000000 0.100000 0
4.100000 0.100000 0
4.200000 0.100000 0
4.300000 0.100000 0
4.400000 0.100000 0
4.500000 0.100000 0
4.600000 0.100000 0
4.700000 0.100000 0
4.800000 0.100000 0
4.900000 0.100000 0
5.000000 0.100000 0
5.100000 0.100000 0
5.200000 0.100000 0
5.300000 0.100000 0
5.400000 0.100000 0
5.500000 0.100000 0
5.600000 0.100000 0
5.700000 0.100000 0
5.800000 0.100000 0
5.900000 0.100000 0
6.000000 0.100000 0
6.100000 0.100000 0
6.200000 0.100000 0
6.300000 0.100000 0
6.400000 0.100000 0
6.500000 0.100000 0
6.600000 0.100000 0
6.700000 0.100000 0
6.800000 0.100000 0
6.900000 0.100000 0
7.000000 0.100000 0
7.100000 0.100000 0
7.200000 0.100000 0
7.300000 0.100000 0
7.400000 0.100000 0
7.500000 0.100000 0
7.600000 0.100000 0
7.700000 0.100000 0
7.800000 0.100000 0
7.900000 0.100000 0
8.000000 0.100000 0
8.100000 0.100000 0
8.200000 0.100000 0
8.300000 0.100000 0
8.400000 0.100000 0
8.500000 0.100000 0
8.600000 0.100000 0
8.700000 0.100000 0
8.800000 0.100000 0
8.900000 0.100000 0
9.000000 0.100000 0
9.100000 0.100000 0
9.200000 0.100000 0
9.300000 0.100000 0
9.400000 0.100000 0
9.500000 0.100000 0
9.600000 0.100000 0
9.700000 0.100000 0
9.800000 0.100000 0
0.000000 0.200000 0
0.100000 0.200000 0
0.200000 0.200000 0
0.300000 0.200000 0
0.400000 0.200000 0
0.500000 0.200000 0
0.600000 0.200000 0
0.700000 0.200000 0
0.800000 0.200000 0
0.900000 0.200000 0
1.000000 0.200000 0
1.100000 0.200000 0
1.200000 0.200000 0
1.300000 0.200000 0
1.400000 0.200000 0
1.500000 0.200000 0
1.600000 0.200000 0
1.700000 0.200000 0
1.800000 0.200000 0
1.900000 0.200000 0
2.000000 0.200000 0
2.100000 0.200000 0
2.200000 0.200000 0
2.300000 0.200000 0
2.400000 0.200000 0
2.500000 0.200000 0
2.600000 0.200000 0
2.700000 0.200000 0
2.800000 0.200000 0
2.900000 0.200000 0
3.000000 0.200000 0
3.100000 0.200000 0
3.200000 0.200000 0
3.300000 0.200000 0
3.400000 0.200000 0
3.500000 0.200000 0
3.600000 0.200000 0
3.700000 0.200000 0
3.800000 0.200000 0
3.900000 0.200000 0
4.000000 0.200000 0
4.100000 0.200000 0
4.200000 0.200000 0
4.300000 0.200000 0
4.400000 0.200000 0
4.500000 0.200000 0
4.600000 0.200000 0
4.700000 0.200000 0
4.800000 0.200000 0
4.900000 0.200000 0
5.000000 0.200000 0
5.100000 0.200000 0
5.200000 0.200000 0
5.300000 0.200000 0
5.400000 0.200000 0
5.500000 0.200000 0
5.600000 0.200000 0
5.700000 0.200000 0
5.800000 0.200000 0
5.900000 0.200000 0
6.000000 0.200000 0
6.100000 0.200000 0
6.200000 0.200000 0
6.300000 0.200000 0
6.400000 0.200000 0
6.500000 0.200000 0
6.600000 0.200000 0
6.700000 0.200000 0
6.800000 0.200000 0
6.900000 0.200000 0
7.000000 0.200000 0
7.100000 0.200000 0
7.200000 0.200000 0
7.300000 0.200000 0
7.400000 0.200000 0
7.500000 0.200000 0
7.600000 0.200000 0
7.700000 0.200000 0
7.800000 0.200000 0
7.900000 0.200000 0
8.000000 0.200000 0
8.100000 0.200000 0
8.200000 0.200000 0
8.300000 0.200000 0
8.400000 0.200000 0
8.500000 0.200000 0
8.600000 0.200000 0
8.700000 0.200000 0
8.800000 0.200000 0
8.900000 0.200000 0
9.000000 0.200000 0
9.100000 0.200000 0
9.200000 0.200000 0
9.300000 0.200000 0
9.400000 0.200000 0
9.500000 0.200000 0
9.600000 0.200000 0
9.700000 0.200000 0
9.800000 0.200000 0
0.000000 0.300000 0
0.100000 0.300000 0
0.200000 0.300000 0
0.300000 0.300000 0
0.400000 0.300000 0
0.500000 0.300000 0
0.600000 0.300000 0
0.700000 0.300000 0
0.800000 0.300000 0
0.900000 0.300000 0
1.000000 0.300000 0
1.100000 0.300000 0
1.200000 0.300000 0
1.300000 0.300000 0
1.400000 0.300000 0
1.500000 0.300000 0
1.600000 0.300000 0
1.700000 0.300000 0
1.800000 0.300000 0
1.900000 0.300000 0
2.000000 0.300000 0
2.100000 0.300000 0
2.200000 0.300000 0
2.300000 0.300000 0
2.400000 0.300000 0
2.500000 0.300000 0
2.600000 0.300000 0
2.700000 0.300000 0
2.800000 0.300000 0
2.900000 0.300000 0
3.000000 0.300000 0
3.100000 0.300000 0
3.200000 0.300000 0
3.300000 0.300000 0
3.400000 0.300000 0
3.500000 0.300000 0
3.600000 0.300000 0
3.700000 0.300000 0
3.800000 0.300000 0
3.900000 0.300000 0
4.000000 0.300000 0
4.100000 0.300000 0
4.200000 0.300000 0
4.300000 0.300000 0
4.400000 0.300000 0
4.500000 0.300000 0
4.600000 0.300000 0
4.700000 0.300000 0
4.800000 0.300000 0
4.900000 0.300000 0
5.000000 0.300000 0
5.100000 0.300000 0
5.200000 0.300000 0
5.300000 0.300000 0
5.400000 0.300000 0
5.500000 0.300000 0
5.600000 0.300000 0
5.700000 0.300000 0
5.800000 0.300000 0
5.900000 0.300000 0
6.000000 0.300000 0
6.100000 0.300000 0
6.200000 0.300000 0
6.300000 0.300000 0
6.400000 0.300000 0
6.500000 0.300000 0
6.600000 0.300000 0
6.700000 0.300000 0
6.800000 0.300000 0
6.900000 0.300000 0
7.000000 0.300000 0
7.100000 0.300000 0
7.200000 0.300000 0
7.300000 0.300000 0
7.400000 0.300000 0
7.500000 0.300000 0
7.600000 0.300000 0
7.700000 0.300000 0
7.800000 0.300000 0
7.900000 0.300000 0
8.000000 0.300000 0
8.100000 0.300000 0
8.200000 0.300000 0
8.300000 0.300000 0
8.400000 0.300000 0
8.500000 0.300000 0
8.600000 0.300000 0
8.700000 0.300000 0
8.800000 0.300000 0
8.900000 0.300000 0
9.000000 0.300000 0
9.100000 0.300000 0
9.200000 0.300000 0
9.300000 0.300000 0
9.400000 0.300000 0
9.500000 0.300000 0
9.600000 0.300000 0
9.700000 0.300000 0
9.800000 0.300000 0
0.000000 0.400000 0
0.100000 0.400000 0
0.200000 0.400000 0
0.300000 0.400000 0
0.400000 0.400000 0
0.500000 0.400000 0
0.600000 0.400000 0
0.700000 0.400000 0
0.800000 0.400000 0
0.900000 0.400000 0
1.000000 0.400000 0
1.100000 0.400000 0
1.200000 0.400000 0
1.300000 0.400000 0
1.400000 0.400000 0
1.500000 0.400000 0
1.600000 0.400000 0
1.700000 0.400000 0
1.800000 0.400000 0
1.900000 0.400000 0
2.000000 0.400000 0
2.100000 0.400000 0
2.200000 0.400000 0
2.300000 0.400000 0
2.400000 0.400000 0
2.500000 0.400000 0
2.600000 0.400000 0
2.700000 0.400000 0
2.800000 0.400000 0
2.900000 0.400000 0
3.000000 0.400000 0
3.100000 0.400000 0
3.200000 0.400000 0
3.300000 0.400000 0
3.400000 0.400000 0
3.500000 0.400000 0
3.600000 0.400000 0
3.700000 0.400000 0
3.800000 0.400000 0
3.900000 0.400000 0
4.000000 0.400000 0
4.100000 0.400000 0
4.200000 0.400000 0
4.300000 0.400000 0
4.400000 0.400000 0
4.500000 0.400000 0
4.600000 0.400000 0
4.700000 0.400000 0
4.800000 0.400000 0
4.900000 0.400000 0
5.000000 0.400000 0
5.100000 0.400000 0
5.200000 0.400000 0
5.300000 0.400000 0
5.400000 0.400000 0
5.500000 0.400000 0
5.600000 0.400000 0
5.700000 0.400000 0
5.800000 0.400000 0
5.900000 0.400000 0
6.000000 0.400000 0
6.100000 0.400000 0
6.200000 0.400000 0
6.300000 0.400000 0
6.400000 0.400000 0
6.500000 0.400000 0
6.600000 0.400000 0
6.700000 0.400000 0
6.800000 0.400000 0
6.900000 0.400000 0
7.000000 0.400000 0
7.100000 0.400000 0
7.200000 0.400000 0
7.300000 0.400000 0
7.400000 0.400000 0
7.500000 0.400000 0
7.600000 0.400000 0
7.700000 0.400000 0
7.800000 0.400000 0
7.900000 0.400000 0
8.000000 0.400000 0
8.100000 0.400000 0
8.200000 0.400000 0
8.300000 0.400000 0
8.400000 0.400000 0
8.500000 0.400000 0
8.600000 0.400000 0
8.700000 0.400000 0
8.800000 0.400000 0
8.900000 0.400000 0
9.000000 0.400000 0
9.100000 0.400000 0
9.200000 0.400000 0
9.300000 0.400000 0
9.400000 0.400000 0
[...]
POINT_DATA 1881 

VECTORS velocity float
0.500000 0.000000 0
0.502080 0.000000 0
0.506700 0.000000 0
0.514276 0.000000 0
0.525220 0.000000 0
0.539852 0.000000 0
0.558192 0.000000 0
0.579665 0.000000 0
0.602883 0.000000 0
0.625565 0.000000 0
0.645806 0.000000 0
0.662658 0.000000 0
0.675998 0.000000 0
0.686142 0.000000 0
0.693531 0.000000 0
0.698483 0.000000 0
0.701093 0.000000 0
0.701233 0.000000 0
0.698694 0.000000 0
0.693314 0.000000 0
0.685105 0.000000 0
0.674308 0.000000 0
0.661368 0.000000 0
0.646892 0.000000 0
0.631595 0.000000 0
0.616257 0.000000 0
0.601676 0.000000 0
0.588629 0.000000 0
0.577849 0.000000 0
0.570031 0.000000 0
0.565873 0.000000 0
0.566069 0.000000 0
0.570954 0.000000 0
0.580267 0.000000 0
0.592942 0.000000 0
0.607113 0.000000 0
0.620428 0.000000 0
0.630624 0.000000 0
0.636168 0.000000 0
0.636582 0.000000 0
0.632071 0.000000 0
0.623218 0.000000 0
0.610843 0.000000 0
0.595865 0.000000 0
0.579203 0.000000 0
0.561728 0.000000 0
0.544253 0.000000 0
0.527550 0.000000 0
0.512374 0.000000 0
0.499500 0.000000 0
0.489745 0.000000 0
0.483943 0.000000 0
0.482781 0.000000 0
0.486411 0.000000 0
0.494565 0.000000 0
0.506752 0.000000 0
0.522301 0.000000 0
0.540338 0.000000 0
0.559733 0.000000 0
0.579006 0.000000 0
0.596329 0.000000 0
0.609729 0.000000 0
0.617572 0.000000 0
0.619145 0.000000 0
0.614611 0.000000 0
0.604495 0.000000 0
0.589644 0.000000 0
0.571185 0.000000 0
0.550466 0.000000 0
0.528968 0.000000 0
0.508230 0.000000 0
0.489739 0.000000 0
0.474812 0.000000 0
0.464442 0.000000 0
0.459138 0.000000 0
0.458754 0.000000 0
0.462383 0.000000 0
0.469017 0.000000 0
0.477881 0.000000 0
0.488451 0.000000 0
0.500394 0.000000 0
0.513452 0.000000 0
0.527310 0.000000 0
0.541459 0.000000 0
0.555095 0.000000 0
0.567118 0.000000 0
0.576267 0.000000 0
0.581422 0.000000 0
0.581953 0.000000 0
0.577734 0.000000 0
0.568897 0.000000 0
0.555896 0.000000 0
0.539574 0.000000 0
0.521219 0.000000 0
0.502544 0.000000 0
0.485536 0.000000 0
0.472187 0.000000 0
0.464224 0.000000 0
0.463661 0.000000 0
1.000000 -0.002068 0
1.004720 -0.006683 0
1.014589 -0.012189 0
1.030358 -0.018517 0
1.052927 -0.025576 0
1.083133 -0.032973 0
1.121297 -0.039814 0
1.166502 -0.044690 0
1.216020 -0.045895 0
1.264050 -0.042906 0
1.306196 -0.037065 0
1.340759 -0.030162 0
1.367872 -0.023454 0
1.388507 -0.017508 0
1.403773 -0.012326 0
1.414453 -0.007546 0
1.420720 -0.002729 0
1.422168 0.002417 0
1.418198 0.007937 0
1.408368 0.013604 0
1.392668 0.019018 0
1.371593 0.023746 0
1.346083 0.027422 0
1.317403 0.029777 0
1.287032 0.030636 0
1.256574 0.029918 0
1.227664 0.027626 0
1.201878 0.023823 0
1.180676 0.018595 0
1.165389 0.011973 0
1.157277 0.003962 0
1.157548 -0.005075 0
1.167083 -0.014188 0
1.185769 -0.021972 0
1.211858 -0.026827 0
1.241839 -0.027463 0
1.270956 -0.023487 0
1.294306 -0.015719 0
1.308192 -0.005940 0
1.311102 0.004110 0
1.303497 0.013376 0
1.286753 0.021241 0
1.262702 0.027364 0
1.233320 0.031650 0
1.200531 0.034145 0
1.166128 0.034957 0
1.131761 0.034185 0
1.098972 0.031885 0
1.069235 0.028054 0
1.043962 0.022632 0
1.024448 0.015561 0
1.011753 0.006967 0
1.006588 -0.002466 0
1.009314 -0.011781 0
1.019912 -0.020337 0
1.037997 -0.027730 0
1.062817 -0.033578 0
1.093275 -0.037422 0
1.127833 -0.038655 0
1.164291 -0.036582 0
1.199625 -0.030707 0
1.230116 -0.021227 0
1.251906 -0.009401 0
1.261948 0.002975 0
1.259231 0.014662 0
1.244784 0.024977 0
1.220385 0.033319 0
1.188355 0.039186 0
1.151389 0.042224 0
1.112390 0.042242 0
1.074274 0.039235 0
1.039750 0.033424 0
1.011038 0.025304 0
0.989585 0.015680 0
0.975880 0.005693 0
0.969551 -0.003240 0
0.969722 -0.010257 0
0.975250 -0.015493 0
0.985130 -0.019430 0
0.998684 -0.022508 0
1.015539 -0.024994 0
1.035485 -0.026910 0
1.058227 -0.028001 0
1.083093 -0.027778 0
1.108830 -0.025652 0
1.133556 -0.021165 0
1.154896 -0.014298 0
1.170284 -0.005680 0
1.177482 0.003695 0
1.175365 0.013062 0
1.164207 0.021843 0
1.145022 0.029328 0
1.119530 0.034681 0
1.090129 0.037034 0
1.059736 0.035686 0
1.031457 0.030359 0
1.008105 0.021313 0
0.991715 0.008526 0
0.983828 -0.000725 0
1.000000 -0.004703 0
1.004870 -0.014569 0
1.014733 -0.025633 0
1.030371 -0.038336 0
1.053003 -0.052776 0
1.084110 -0.068370 0
1.125000 -0.083368 0
1.175676 -0.094719 0
1.234338 -0.097530 0
1.289335 -0.090144 0
1.334556 -0.076671 0
1.369481 -0.061640 0
1.395703 -0.047718 0
1.415244 -0.035880 0
1.429948 -0.025929 0
1.441045 -0.016924 0
1.448702 -0.007689 0
1.452010 0.002544 0
1.449768 0.013819 0
1.441145 0.025546 0
1.426008 0.036787 0
1.404931 0.046593 0
1.378998 0.054196 0
1.349608 0.059054 0
1.318358 0.060828 0
1.286948 0.059366 0
1.257093 0.054693 0
1.230407 0.046984 0
1.208289 0.036486 0
1.191896 0.023399 0
1.182261 0.007847 0
1.180566 -0.009794 0
1.188232 -0.028202 0
1.205892 -0.044751 0
1.232486 -0.056042 0
1.265117 -0.059069 0
1.299297 -0.052441 0
1.329461 -0.037214 0
1.350190 -0.016779 0
1.358215 0.004709 0
1.353912 0.024364 0
1.339303 0.040809 0
1.316747 0.053446 0
1.288558 0.062182 0
1.256831 0.067201 0
1.223399 0.068779 0
1.189861 0.067164 0
1.157634 0.062532 0
1.127986 0.055016 0
1.102000 0.044792 0
1.080483 0.032213 0
1.063847 0.017864 0
1.052177 0.002443 0
1.045665 -0.013319 0
1.044665 -0.028675 0
1.049526 -0.042895 0
1.060548 -0.055266 0
1.078031 -0.065001 0
1.102050 -0.070998 0
1.131935 -0.071772 0
1.165864 -0.065805 0
1.200762 -0.052262 0
1.232460 -0.031814 0
1.256209 -0.007310 0
1.268170 0.017177 0
1.267767 0.038857 0
1.256566 0.056439 0
1.236702 0.069005 0
1.210639 0.075973 0
1.180948 0.077123 0
1.150101 0.072647 0
1.120249 0.063244 0
1.093012 0.050173 0
1.069354 0.035165 0
1.049599 0.020041 0
1.033699 0.006165 0
1.021665 -0.005693 0
1.013362 -0.015402 0
1.008651 -0.023428 0
1.007683 -0.030401 0
1.010892 -0.036793 0
1.018844 -0.042680 0
1.031903 -0.047600 0
1.049872 -0.050595 0
1.071850 -0.050455 0
1.096285 -0.046057 0
1.121103 -0.036719 0
1.143802 -0.022578 0
1.161623 -0.005073 0
1.172176 0.013282 0
1.174680 0.030350 0
1.169820 0.044683 0
1.158903 0.054898 0
1.143643 0.059799 0
1.125872 0.058676 0
1.107246 0.051634 0
1.088990 0.039743 0
1.071685 0.024277 0
1.054864 0.013300 0
1.000000 -0.006929 0
1.003884 -0.021410 0
1.012025 -0.037693 0
1.025436 -0.056788 0
1.045862 -0.079315 0
1.075893 -0.104968 0
1.118835 -0.131376 0
1.177126 -0.154015 0
1.254403 -0.159528 0
1.319119 -0.143100 0
1.364624 -0.117197 0
1.395355 -0.091301 0
1.416064 -0.069221 0
1.430357 -0.051759 0
1.441173 -0.038118 0
1.450637 -0.026288 0
1.459193 -0.013687 0
1.464889 0.001358 0
1.464812 0.018805 0
1.457300 0.037366 0
1.442028 0.055231 0
1.419800 0.070755 0
1.391988 0.082744 0
1.360205 0.090415 0
1.326204 0.093295 0
1.291836 0.091182 0
1.258974 0.084166 0
1.229333 0.072627 0
1.204254 0.057108 0
1.184565 0.038009 0
1.170768 0.015304 0
1.163528 -0.011032 0
1.164440 -0.039497 0
1.175033 -0.066210 0
1.195442 -0.086038 0
1.224651 -0.094264 0
1.260256 -0.087826 0
1.297616 -0.066612 0
1.329840 -0.034695 0
1.349721 0.000393 0
1.353984 0.032293 0
1.345252 0.058408 0
1.326753 0.078112 0
1.301419 0.091568 0
1.271701 0.099306 0
1.239581 0.101930 0
1.206652 0.099952 0
1.174218 0.093762 0
1.143356 0.083690 0
1.114936 0.070137 0
1.089571 0.053716 0
1.067507 0.035274 0
1.048529 0.015719 0
1.032057 -0.004264 0
1.017757 -0.024191 0
1.006571 -0.043605 0
1.000711 -0.062074 0
1.002680 -0.078913 0
1.014306 -0.092549 0
1.035786 -0.100387 0
1.065600 -0.099525 0
1.100941 -0.087817 0
1.138142 -0.064845 0
1.172883 -0.032732 0
1.200280 0.003107 0
1.216380 0.036584 0
1.221242 0.064386 0
1.216367 0.085116 0
1.203661 0.097981 0
1.185159 0.102783 0
1.162810 0.099938 0
1.138319 0.090517 0
1.113071 0.076202 0
1.088124 0.059095 0
1.064224 0.041350 0
1.041774 0.024697 0
1.020843 0.010082 0
1.001597 -0.002476 0
0.984586 -0.013747 0
0.971041 -0.024745 0
0.962801 -0.036151 0
0.961416 -0.047917 0
0.967520 -0.059025 0
0.980662 -0.067721 0
0.999577 -0.072061 0
1.022550 -0.070414 0
1.047705 -0.061811 0
1.073151 -0.046196 0
1.096966 -0.024676 0
1.116956 0.000008 0
1.130964 0.024203 0
1.138513 0.045108 0
1.140044 0.060860 0
1.136324 0.070066 0
1.128204 0.072083 0
1.116450 0.067242 0
1.101709 0.056875 0
1.084546 0.042653 0
1.065309 0.032261 0
1.000000 -0.008580 0
1.002474 -0.026588 0
1.007843 -0.047186 0
1.017220 -0.072173 0
1.032769 -0.103232 0
1.058338 -0.141340 0
1.100342 -0.184592 0
1.166704 -0.230266 0
1.280290 -0.239502 0
1.349755 -0.200352 0
1.383162 -0.152902 0
1.399329 -0.113081 0
1.406803 -0.082725 0
1.409650 -0.060984 0
1.411407 -0.046195 0
1.415690 -0.034935 0
1.424552 -0.021938 0
1.435426 -0.003071 0
1.441113 0.021410 0
1.437530 0.048331 0
1.424253 0.074288 0
1.402661 0.096632 0
1.374516 0.113790 0
1.341562 0.124837 0
1.305601 0.129195 0
1.268603 0.126596 0
1.232678 0.117197 0
1.199815 0.101706 0
1.171335 0.081261 0
1.147404 0.056895 0
1.127224 0.028896 0
1.109717 -0.003451 0
1.094473 -0.039691 0
1.084820 -0.075739 0
1.085106 -0.105650 0
1.098819 -0.123876 0
1.127177 -0.125405 0
1.167562 -0.106798 0
1.213316 -0.068878 0
1.254524 -0.019429 0
1.280877 0.028836 0
1.289757 0.068043 0
1.285128 0.097282 0
1.270559 0.117236 0
1.248930 0.129041 0
1.222548 0.133830 0
1.193257 0.132529 0
1.162547 0.125831 0
1.131624 0.114299 0
1.101413 0.098578 0
1.072403 0.079644 0
1.044325 0.058908 0
1.016061 0.037897 0
0.986434 0.017458 0
0.955841 -0.003182 0
0.927368 -0.025839 0
0.906434 -0.051365 0
0.897934 -0.078586 0
0.903291 -0.104095 0
0.921154 -0.123057 0
0.948947 -0.130953 0
0.983748 -0.124800 0
1.022553 -0.103753 0
1.062237 -0.069445 0
1.099260 -0.026317 0
1.128957 0.017898 0
1.148222 0.056455 0
1.157461 0.086589 0
1.157794 0.107184 0
1.150630 0.117977 0
1.137414 0.119491 0
1.119486 0.112986 0
1.097984 0.100371 0
1.073779 0.084015 0
1.047446 0.066394 0
1.019412 0.049549 0
0.990364 0.034487 0
0.961759 0.020859 0
0.935942 0.007133 0
0.915580 -0.008611 0
0.902894 -0.027164 0
0.899115 -0.047395 0
0.903984 -0.066842 0
0.916215 -0.082647 0
0.934123 -0.092338 0
0.956013 -0.094182 0
0.980314 -0.087316 0
1.005617 -0.071835 0
1.030628 -0.048874 0
1.054031 -0.020712 0
1.073984 0.008796 0
1.088781 0.035605 0
1.098051 0.057088 0
1.101783 0.071640 0
1.100131 0.078551 0
1.093317 0.078129 0
1.081650 0.071647 0
1.065577 0.060676 0
1.045669 0.052125 0
1.000000 -0.009398 0
1.000558 -0.029247 0
1.001937 -0.052439 0
1.004960 -0.081713 0
1.011552 -0.120430 0
1.025989 -0.172535 0
1.057600 -0.239727 0
1.123710 -0.333945 0
1.293825 -0.342566 0
1.336066 -0.245965 0
1.327672 -0.166771 0
1.313845 -0.114946 0
1.299723 -0.079539 0
1.284622 -0.056349 0
1.270126 -0.044147 0
1.261163 -0.039427 0
1.264361 -0.033419 0
1.281335 -0.015202 0
1.302330 0.016701 0
1.311622 0.054226 0
1.308653 0.090100 0
1.296065 0.120492 0
1.275798 0.143842 0
1.249089 0.159329 0
1.217234 0.166254 0
1.182037 0.164105 0
1.145908 0.152955 0
1.111409 0.133975 0
1.079695 0.109529 0
1.048617 0.082132 0
1.013748 0.053004 0
0.973026 0.021733 0
0.929564 -0.014586 0
0.891495 -0.056832 0
0.871027 -0.100029 0
0.873982 -0.136332 0
0.899120 -0.156569 0
0.942252 -0.152747 0
0.997734 -0.121651 0
1.058118 -0.067164 0
1.113079 -0.002936 0
1.151425 0.054161 0
1.172152 0.097313 0
1.178886 0.127768 0
1.174526 0.147320 0
1.161493 0.157604 0
1.141837 0.159954 0
1.117251 0.155398 0
1.088950 0.144826 0
1.057393 0.129359 0
1.022036 0.110807 0
0.981767 0.091621 0
0.936566 0.073615 0
0.889494 0.055963 0
0.846744 0.034884 0
0.814783 0.005811 0
0.797445 -0.032629 0
0.795021 -0.075760 0
0.805068 -0.115761 0
0.824703 -0.146037 0
0.851676 -0.162114 0
0.884256 -0.161420 0
0.920793 -0.143331 0
0.959438 -0.109437 0
0.998034 -0.063610 0
1.033767 -0.012375 0
1.062255 0.035884 0
1.081730 0.075547 0
1.092331 0.104816 0
1.094680 0.123166 0
1.089576 0.131085 0
1.077793 0.129950 0
1.059937 0.121911 0
1.036422 0.109636 0
1.007698 0.095719 0
0.974810 0.081783 0
0.940004 0.067740 0
0.906812 0.051951 0
0.879227 0.032437 0
0.860267 0.008308 0
0.850902 -0.019681 0
0.850437 -0.049002 0
0.857294 -0.076120 0
0.869787 -0.097856 0
0.886491 -0.111855 0
0.906265 -0.116600 0
0.928131 -0.111411 0
0.951179 -0.096506 0
0.974522 -0.073086 0
0.997254 -0.043344 0
1.018335 -0.010544 0
1.035969 0.021044 0
1.048933 0.047859 0
1.056651 0.067987 0
1.058775 0.080550 0
1.055123 0.085723 0
1.045701 0.084615 0
1.030802 0.078633 0
1.011059 0.073154 0
1.000000 -0.009133 0
0.998280 -0.028520 0
0.994722 -0.051588 0
0.989275 -0.081786 0
0.982342 -0.124255 0
0.975981 -0.187379 0
0.977453 -0.282299 0
1.008572 -0.466477 0
1.197841 -0.451849 0
1.147309 -0.234196 0
1.057781 -0.130683 0
1.008849 -0.085133 0
0.975841 -0.053492 0
0.944634 -0.031374 0
0.909661 -0.022728 0
0.879268 -0.029166 0
0.867796 -0.042107 0
0.888543 -0.041039 0
0.937189 -0.008877 0
0.988533 0.042008 0
1.021154 0.089844 0
1.039041 0.129487 0
1.045445 0.160766 0
1.040286 0.183401 0
1.023642 0.196249 0
0.996107 0.197924 0
0.958245 0.187829 0
0.910138 0.167927 0
0.852122 0.144064 0
0.787073 0.122855 0
0.721758 0.104502 0
0.665542 0.080746 0
0.627627 0.041851 0
0.611932 -0.017194 0
0.616435 -0.088134 0
0.637479 -0.151968 0
0.672061 -0.193671 0
0.718446 -0.205405 0
0.775245 -0.184740 0
0.840079 -0.134771 0
0.908379 -0.064468 0
0.970393 0.008973 0
1.016015 0.069823 0
1.045350 0.114864 0
1.060673 0.146437 0
1.063859 0.166521 0
1.056566 0.176772 0
1.040052 0.178720 0
1.014848 0.174160 0
0.980601 0.165494 0
0.936753 0.155274 0
0.884512 0.144383 0
0.829012 0.130176 0
0.779017 0.107289 0
0.743143 0.071539 0
0.725552 0.023469 0
0.724254 -0.031594 0
0.733429 -0.086200 0
0.748543 -0.133770 0
0.767561 -0.169660 0
0.790126 -0.190504 0
0.816491 -0.193915 0
0.846649 -0.178932 0
0.879876 -0.146683 0
0.914751 -0.100643 0
0.949379 -0.046320 0
0.980832 0.008496 0
1.005488 0.056516 0
1.022331 0.094238 0
1.031089 0.120736 0
1.031793 0.136381 0
1.024541 0.142627 0
1.009433 0.141744 0
0.986795 0.136256 0
0.957710 0.128009 0
0.924595 0.117247 0
0.891237 0.102490 0
0.861929 0.081641 0
0.840085 0.053682 0
0.827268 0.019718 0
0.823110 -0.017329 0
0.825802 -0.053782 0
0.833414 -0.086186 0
0.844533 -0.111839 0
0.858300 -0.128811 0
0.874220 -0.135816 0
0.891926 -0.132226 0
0.910994 -0.118221 0
0.930856 -0.094946 0
0.950807 -0.064522 0
0.970020 -0.029916 0
0.987327 0.005010 0
1.001056 0.036408 0
1.010215 0.061798 0
1.014110 0.080080 0
1.012297 0.091204 0
1.004641 0.095967 0
0.991470 0.095318 0
0.973766 0.092992 0
1.000000 -0.007674 0
0.996057 -0.023965 0
0.987542 -0.043432 0
0.973113 -0.069329 0
0.950440 -0.107130 0
0.915788 -0.167634 0
0.863425 -0.272305 0
0.789266 -0.554323 0
0.551105 -0.384711 0
0.492729 0.000000 0
0.422813 -0.018992 0
0.361954 -0.032999 0
0.347344 -0.015311 0
0.340995 0.009839 0
0.325884 0.021223 0
0.311252 0.002441 0
0.315828 -0.042693 0
0.353717 -0.084593 0
0.427411 -0.083288 0
0.524327 -0.029740 0
0.613614 0.039592 0
0.678222 0.096200 0
0.721201 0.142597 0
0.743746 0.181133 0
0.745205 0.210436 0
0.725171 0.229505 0
0.683554 0.238931 0
0.622043 0.240108 0
0.547384 0.232605 0
0.473690 0.212510 0
0.418691 0.174549 0
0.394718 0.115877 0
0.402946 0.039033 0
0.433288 -0.045635 0
0.469440 -0.125575 0
0.503929 -0.191956 0
0.537772 -0.237530 0
0.575199 -0.255926 0
0.620232 -0.243281 0
0.674601 -0.200294 0
0.736889 -0.133247 0
0.802675 -0.053473 0
0.861621 0.022358 0
0.905782 0.083113 0
0.935258 0.128812 0
0.950780 0.161713 0
0.953017 0.183763 0
0.942340 0.197118 0
0.918829 0.204279 0
0.882985 0.207457 0
0.837381 0.206901 0
0.788155 0.199368 0
0.744206 0.179116 0
0.713508 0.141840 0
0.699348 0.088359 0
0.699747 0.024709 0
0.709594 -0.040498 0
0.723198 -0.100041 0
0.737306 -0.149886 0
0.751048 -0.187615 0
0.765233 -0.211042 0
0.781524 -0.217939 0
0.801471 -0.206713 0
0.825655 -0.177536 0
0.853372 -0.133110 0
0.882955 -0.078453 0
0.912222 -0.020221 0
0.937700 0.034052 0
0.956970 0.079218 0
0.968946 0.113707 0
0.972996 0.137636 0
0.968755 0.152313 0
0.956241 0.159660 0
0.936261 0.161362 0
0.910878 0.157923 0
0.883473 0.148260 0
0.858046 0.130411 0
0.837973 0.103108 0
0.825004 0.067103 0
0.819139 0.025288 0
0.819229 -0.018211 0
0.823545 -0.059301 0
0.830485 -0.094845 0
0.839014 -0.122737 0
0.848681 -0.141537 0
0.859476 -0.150222 0
0.871596 -0.148180 0
0.885164 -0.135431 0
0.900026 -0.112895 0
0.915702 -0.082505 0
0.931447 -0.047062 0
0.946315 -0.009990 0
0.958848 0.024974 0
0.967753 0.054934 0
0.972147 0.078469 0
0.971477 0.095192 0
0.965612 0.105441 0
0.954983 0.109508 0
0.940772 0.109785 0
1.000000 -0.005186 0
0.994464 -0.016058 0
0.982371 -0.028641 0
0.961357 -0.044679 0
0.926804 -0.066923 0
0.869638 -0.100352 0
0.770524 -0.155764 0
0.587398 -0.250732 0
0.000000 -0.155307 0
0.000000 0.000000 0
0.000000 0.000000 0
-0.028405 -0.019068 0
-0.044168 -0.032524 0
-0.066120 -0.009911 0
-0.089955 0.007017 0
-0.100224 -0.019107 0
-0.082452 -0.084571 0
-0.040158 -0.152622 0
0.025811 -0.179488 0
0.122308 -0.144195 0
0.234135 -0.064051 0
0.330805 0.021901 0
0.400487 0.095243 0
0.443051 0.159398 0
0.459509 0.214826 0
0.451156 0.259580 0
0.421901 0.290965 0
0.380676 0.304107 0
0.341566 0.292428 0
0.319257 0.251562 0
0.322376 0.183487 0
0.350094 0.096502 0
0.392528 0.003289 0
0.433996 -0.083685 0
0.467082 -0.158774 0
0.490474 -0.220296 0
0.506883 -0.264936 0
0.522094 -0.287861 0
0.543047 -0.284139 0
0.575068 -0.251425 0
0.619531 -0.192539 0
0.673504 -0.115756 0
0.730627 -0.033282 0
0.779952 0.041230 0
0.815924 0.101441 0
0.837791 0.148764 0
0.845318 0.185214 0
0.838589 0.212910 0
0.818574 0.233518 0
0.788247 0.246946 0
0.753516 0.250109 0
0.722466 0.237564 0
0.702388 0.204830 0
0.696507 0.152156 0
0.703223 0.085309 0
0.718061 0.013232 0
0.735360 -0.055036 0
0.750943 -0.113905 0
0.762751 -0.161615 0
0.770398 -0.197584 0
0.775057 -0.220976 0
0.779205 -0.230149 0
0.785850 -0.223060 0
0.797329 -0.198580 0
0.814316 -0.157940 0
0.835696 -0.105166 0
0.859230 -0.046246 0
0.882007 0.011771 0
0.900655 0.062996 0
0.913366 0.104713 0
0.919078 0.136574 0
0.917304 0.159385 0
0.908329 0.174241 0
0.893548 0.181623 0
0.875557 0.180802 0
0.857693 0.170083 0
0.843045 0.147995 0
0.833481 0.114688 0
0.829343 0.072521 0
0.829846 0.025498 0
0.833689 -0.021730 0
0.839347 -0.065033 0
0.845542 -0.101650 0
0.851455 -0.130028 0
0.856820 -0.149267 0
0.861929 -0.158727 0
0.867465 -0.157909 0
0.874179 -0.146647 0
0.882530 -0.125480 0
0.892467 -0.095939 0
0.903440 -0.060526 0
0.914556 -0.022389 0
0.924634 0.014972 0
0.932306 0.048502 0
0.936615 0.076357 0
0.936992 0.097739 0
0.933340 0.112462 0
0.926116 0.120157 0
0.916406 0.122285 0
1.000000 -0.002134 0
0.993944 -0.006331 0
0.980766 -0.010322 0
0.958006 -0.013756 0
0.920978 -0.015400 0
0.861006 -0.011342 0
0.761609 0.009946 0
0.589704 0.113564 0
0.275936 0.100045 0
0.000000 0.000000 0
0.000000 0.000000 0
0.000000 0.000000 0
-0.020827 0.020649 0
-0.105707 0.055629 0
-0.169029 0.055330 0
-0.191284 -0.005061 0
-0.174794 -0.102758 0
-0.148948 -0.192857 0
-0.117867 -0.245755 0
-0.069384 -0.238063 0
0.003686 -0.168905 0
0.091039 -0.070151 0
0.168609 0.030353 0
0.223807 0.122113 0
0.257425 0.202334 0
0.272840 0.267120 0
0.276829 0.309419 0
0.280084 0.320453 0
0.294053 0.294037 0
0.325890 0.231713 0
0.375546 0.143724 0
0.436033 0.045733 0
0.491801 -0.044863 0
0.533808 -0.120187 0
0.560373 -0.182050 0
0.571418 -0.231751 0
0.569118 -0.269146 0
0.558771 -0.292087 0
0.548632 -0.296251 0
0.547763 -0.276776 0
0.562338 -0.231681 0
0.592820 -0.164567 0
0.634190 -0.084088 0
0.677796 -0.002183 0
0.713456 0.070975 0
0.737418 0.132322 0
0.748680 0.182968 0
0.747705 0.223865 0
0.736864 0.254624 0
0.720918 0.272520 0
0.706477 0.272688 0
0.699884 0.250503 0
0.704528 0.205083 0
0.719755 0.141014 0
0.742072 0.066815 0
0.766924 -0.007419 0
0.789125 -0.073373 0
0.805970 -0.127426 0
0.816042 -0.169337 0
0.818897 -0.199918 0
0.815348 -0.219845 0
0.807777 -0.228729 0
0.799936 -0.224834 0
0.795879 -0.205999 0
0.798376 -0.171472 0
0.807852 -0.123363 0
0.822567 -0.066529 0
0.839629 -0.007370 0
0.855458 0.047862 0
0.867519 0.095286 0
0.874421 0.133701 0
0.875698 0.163065 0
0.871895 0.183419 0
0.864635 0.194138 0
0.856332 0.193781 0
0.849495 0.180777 0
0.845888 0.154629 0
0.846094 0.116815 0
0.849679 0.070743 0
0.855667 0.020947 0
0.862868 -0.027707 0
0.869945 -0.071148 0
0.875813 -0.106947 0
0.879692 -0.134009 0