# vtk DataFile Version 2.0
generated by CFD-lab course output (written by Tobias Neckel) 
ASCII

DATASET STRUCTURED_GRID
DIMENSIONS  99 19 1 
POINTS 1881 float

0.000000 0.000000 0
0.100000 0.000000 0
0.200000 0.000000 0
0.300000 0.000000 0
0.400000 0.000000 0
0.500000 0.000000 0
0.600000 0.000000 0
0.700000 0.000000 0
0.800000 0.000000 0
0.900000 0.000000 0
1.000000 0.000000 0
1.100000 0.000000 0
1.200000 0.000000 0
1.300000 0.000000 0
1.400000 0.000000 0
1.500000 0.000000 0
1.600000 0.000000 0
1.700000 0.000000 0
1.800000 0.000000 0
1.900000 0.000000 0
2.000000 0.000000 0
2.100000 0.000000 0
2.200000 0.000000 0
2.300000 0.000000 0
2.400000 0.000000 0
2.500000 0.000000 0
2.600000 0.000000 0
2.700000 0.000000 0
2.800000 0.000000 0
2.900000 0.000000 0
3.000000 0.000000 0
3.100000 0.000000 0
3.200000 0.000000 0
3.300000 0.000000 0
3.400000 0.000000 0
3.500000 0.000000 0
3.600000 0.000000 0
3.700000 0.000000 0
3.800000 0.000000 0
3.900000 0.000000 0
4.000000 0.000000 0
4.100000 0.000000 0
4.200000 0.000000 0
4.300000 0.000000 0
4.400000 0.000000 0
4.500000 0.000000 0
4.600000 0.000000 0
4.700000 0.000000 0
4.800000 0.000000 0
4.900000 0.000000 0
5.000000 0.000000 0
5.100000 0.000000 0
5.200000 0.000000 0
5.300000 0.000000 0
5.400000 0.000000 0
5.500000 0.000000 0
5.600000 0.000000 0
5.700000 0.000000 0
5.800000 0.000000 0
5.900000 0.000000 0
6.000000 0.000000 0
6.100000 0.000000 0
6.200000 0.000000 0
6.300000 0.000000 0
6.400000 0.000000 0
6.500000 0.000000 0
6.600000 0.000000 0
6.700000 0.000000 0
6.800000 0.000000 0
6.900000 0.000000 0
7.000000 0.000000 0
7.100000 0.000000 0
7.200000 0.000000 0
7.300000 0.000000 0
7.400000 0.000000 0
7.500000 0.000000 0
7.600000 0.000000 0
7.700000 0.000000 0
7.800000 0.000000 0
7.900000 0.000000 0
8.000000 0.000000 0
8.100000 0.000000 0
8.200000 0.000000 0
8.300000 0.000000 0
8.400000 0.000000 0
8.500000 0.000000 0
8.600000 0.000000 0
8.700000 0.000000 0
8.800000 0.000000 0
8.900000 0.000000 0
9.000000 0.000000 0
9.100000 0.000000 0
9.200000 0.000000 0
9.300000 0.000000 0
9.400000 0.000000 0
9.500000 0.000000 0
9.600000 0.000000 0
9.700000 0.000000 0
9.800000 0.000000 0
0.000000 0.100000 0
0.100000 0.100000 0
0.200000 0.100000 0
0.300000 0.100000 0
0.400000 0.100000 0
0.500000 0.100000 0
0.600000 0.100000 0
0.700000 0.100000 0
0.800000 0.100000 0
0.900000 0.100000 0
1.000000 0.100000 0
1.100000 0.100000 0
1.200000 0.100000 0
1.300000 0.100000 0
1.400000 0.100000 0
1.500000 0.100000 0
1.600000 0.100000 0
1.700000 0.100000 0
1.800000 0.100000 0
1.900000 0.100000 0
2.000000 0.100000 0
2.100000 0.100000 0
2.200000 0.100000 0
2.300000 0.100000 0
2.400000 0.100000 0
2.500000 0.100000 0
2.600000 0.100000 0
2.700000 0.100000 0
2.800000 0.100000 0
2.900000 0.100000 0
3.000000 0.100000 0
3.100000 0.100000 0
3.200000 0.100000 0
3.300000 0.100000 0
3.400000 0.100000 0
3.500000 0.100000 0
3.600000 0.100000 0
3.700000 0.100000 0
3.800000 0.100000 0
3.900000 0.100000 0
4.000000 0.100000 0
4.100000 0.100000 0
4.200000 0.100000 0
4.300000 0.100000 0
4.400000 0.100000 0
4.500000 0.100000 0
4.600000 0.100000 0
4.700000 0.100000 0
4.800000 0.100000 0
4.900000 0.100000 0
5.000000 0.100000 0
5.100000 0.100000 0
5.200000 0.100000 0
5.300000 0.100000 0
5.400000 0.100000 0
5.500000 0.100000 0
5.600000 0.100000 0
5.700000 0.100000 0
5.800000 0.100000 0
5.900000 0.100000 0
6.000000 0.100000 0
6.100000 0.100000 0
6.200000 0.100000 0
6.300000 0.100000 0
6.400000 0.100000 0
6.500000 0.100000 0
6.600000 0.100000 0
6.700000 0.100000 0
6.800000 0.100000 0
6.900000 0.100000 0
7.000000 0.100000 0
7.100000 0.100000 0
7.200000 0.100000 0
7.300000 0.100000 0
7.400000 0.100000 0
7.500000 0.100000 0
7.600000 0.100000 0
7.700000 0.100000 0
7.800000 0.100000 0
7.900000 0.100000 0
8.000000 0.100000 0
8.100000 0.100000 0
8.200000 0.100000 0
8.300000 0.100000 0
8.400000 0.100000 0
8.500000 0.100000 0
8.600000 0.100000 0
8.700000 0.100000 0
8.800000 0.100000 0
8.900000 0.100000 0
9.000000 0.100000 0
9.100000 0.100000 0
9.200000 0.100000 0
9.300000 0.100000 0
9.400000 0.100000 0
9.500000 0.100000 0
9.600000 0.100000 0
9.700000 0.100000 0
9.800000 0.100000 0
0.000000 0.200000 0
0.100000 0.200000 0
0.200000 0.200000 0
0.300000 0.200000 0
0.400000 0.200000 0
0.500000 0.200000 0
0.600000 0.200000 0
0.700000 0.200000 0
0.800000 0.200000 0
0.900000 0.200000 0
1.000000 0.200000 0
1.100000 0.200000 0
1.200000 0.200000 0
1.300000 0.200000 0
1.400000 0.200000 0
1.500000 0.200000 0
1.600000 0.200000 0
1.700000 0.200000 0
1.800000 0.200000 0
1.900000 0.200000 0
2.000000 0.200000 0
2.100000 0.200000 0
2.200000 0.200000 0
2.300000 0.200000 0
2.400000 0.200000 0
2.500000 0.200000 0
2.600000 0.200000 0
2.700000 0.200000 0
2.800000 0.200000 0
2.900000 0.200000 0
3.000000 0.200000 0
3.100000 0.200000 0
3.200000 0.200000 0
3.300000 0.200000 0
3.400000 0.200000 0
3.500000 0.200000 0
3.600000 0.200000 0
3.700000 0.200000 0
3.800000 0.200000 0
3.900000 0.200000 0
4.000000 0.200000 0
4.100000 0.200000 0
4.200000 0.200000 0
4.300000 0.200000 0
4.400000 0.200000 0
4.500000 0.200000 0
4.600000 0.200000 0
4.700000 0.200000 0
4.800000 0.200000 0
4.900000 0.200000 0
5.000000 0.200000 0
5.100000 0.200000 0
5.200000 0.200000 0
5.300000 0.200000 0
5.400000 0.200000 0
5.500000 0.200000 0
5.600000 0.200000 0
5.700000 0.200000 0
5.800000 0.200000 0
5.900000 0.200000 0
6.000000 0.200000 0
6.100000 0.200000 0
6.200000 0.200000 0
6.300000 0.200000 0
6.400000 0.200000 0
6.500000 0.200000 0
6.600000 0.200000 0
6.700000 0.200000 0
6.800000 0.200000 0
6.900000 0.200000 0
7.000000 0.200000 0
7.100000 0.200000 0
7.200000 0.200000 0
7.300000 0.200000 0
7.400000 0.200000 0
7.500000 0.200000 0
7.600000 0.200000 0
7.700000 0.200000 0
7.800000 0.200000 0
7.900000 0.200000 0
8.000000 0.200000 0
8.100000 0.200000 0
8.200000 0.200000 0
8.300000 0.200000 0
8.400000 0.200000 0
8.500000 0.200000 0
8.600000 0.200000 0
8.700000 0.200000 0
8.800000 0.200000 0
8.900000 0.200000 0
9.000000 0.200000 0
9.100000 0.200000 0
9.200000 0.200000 0
9.300000 0.200000 0
9.400000 0.200000 0
9.500000 0.200000 0
9.600000 0.200000 0
9.700000 0.200000 0
9.800000 0.200000 0
0.000000 0.300000 0
0.100000 0.300000 0
0.200000 0.300000 0
0.300000 0.300000 0
0.400000 0.300000 0
0.500000 0.300000 0
0.600000 0.300000 0
0.700000 0.300000 0
0.800000 0.300000 0
0.900000 0.300000 0
1.000000 0.300000 0
1.100000 0.300000 0
1.200000 0.300000 0
1.300000 0.300000 0
1.400000 0.300000 0
1.500000 0.300000 0
1.600000 0.300000 0
1.700000 0.300000 0
1.800000 0.300000 0
1.900000 0.300000 0
2.000000 0.300000 0
2.100000 0.300000 0
2.200000 0.300000 0
2.300000 0.300000 0
2.400000 0.300000 0
2.500000 0.300000 0
2.600000 0.300000 0
2.700000 0.300000 0
2.800000 0.300000 0
2.900000 0.300000 0
3.000000 0.300000 0
3.100000 0.300000 0
3.200000 0.300000 0
3.300000 0.300000 0
3.400000 0.300000 0
3.500000 0.300000 0
3.600000 0.300000 0
3.700000 0.300000 0
3.800000 0.300000 0
3.900000 0.300000 0
4.000000 0.300000 0
4.100000 0.300000 0
4.200000 0.300000 0
4.300000 0.300000 0
4.400000 0.300000 0
4.500000 0.300000 0
4.600000 0.300000 0
4.700000 0.300000 0
4.800000 0.300000 0
4.900000 0.300000 0
5.000000 0.300000 0
5.100000 0.300000 0
5.200000 0.300000 0
5.300000 0.300000 0
5.400000 0.300000 0
5.500000 0.300000 0
5.600000 0.300000 0
5.700000 0.300000 0
5.800000 0.300000 0
5.900000 0.300000 0
6.000000 0.300000 0
6.100000 0.300000 0
6.200000 0.300000 0
6.300000 0.300000 0
6.400000 0.300000 0
6.500000 0.300000 0
6.600000 0.300000 0
6.700000 0.300000 0
6.800000 0.300000 0
6.900000 0.300000 0
7.000000 0.300000 0
7.100000 0.300000 0
7.200000 0.300000 0
7.300000 0.300000 0
7.400000 0.300000 0
7.500000 0.300000 0
7.600000 0.300000 0
7.700000 0.300000 0
7.800000 0.300000 0
7.900000 0.300000 0
8.000000 0.300000 0
8.100000 0.300000 0
8.200000 0.300000 0
8.300000 0.300000 0
8.400000 0.300000 0
8.500000 0.300000 0
8.600000 0.300000 0
8.700000 0.300000 0
8.800000 0.300000 0
8.900000 0.300000 0
9.000000 0.300000 0
9.100000 0.300000 0
9.200000 0.300000 0
9.300000 0.300000 0
9.400000 0.300000 0
9.500000 0.300000 0
9.600000 0.300000 0
9.700000 0.300000 0
9.800000 0.300000 0
0.000000 0.400000 0
0.100000 0.400000 0
0.200000 0.400000 0
0.300000 0.400000 0
0.400000 0.400000 0
0.500000 0.400000 0
0.600000 0.400000 0
0.700000 0.400000 0
0.800000 0.400000 0
0.900000 0.400000 0
1.000000 0.400000 0
1.100000 0.400000 0
1.200000 0.400000 0
1.300000 0.400000 0
1.400000 0.400000 0
1.500000 0.400000 0
1.600000 0.400000 0
1.700000 0.400000 0
1.800000 0.400000 0
1.900000 0.400000 0
2.000000 0.400000 0
2.100000 0.400000 0
2.200000 0.400000 0
2.300000 0.400000 0
2.400000 0.400000 0
2.500000 0.400000 0
2.600000 0.400000 0
2.700000 0.400000 0
2.800000 0.400000 0
2.900000 0.400000 0
3.000000 0.400000 0
3.100000 0.400000 0
3.200000 0.400000 0
3.300000 0.400000 0
3.400000 0.400000 0
3.500000 0.400000 0
3.600000 0.400000 0
3.700000 0.400000 0
3.800000 0.400000 0
3.900000 0.400000 0
4.000000 0.400000 0
4.100000 0.400000 0
4.200000 0.400000 0
4.300000 0.400000 0
4.400000 0.400000 0
4.500000 0.400000 0
4.600000 0.400000 0
4.700000 0.400000 0
4.800000 0.400000 0
4.900000 0.400000 0
5.000000 0.400000 0
5.100000 0.400000 0
5.200000 0.400000 0
5.300000 0.400000 0
5.400000 0.400000 0
5.500000 0.400000 0
5.600000 0.400000 0
5.700000 0.400000 0
5.800000 0.400000 0
5.900000 0.400000 0
6.000000 0.400000 0
6.100000 0.400000 0
6.200000 0.400000 0
6.300000 0.400000 0
6.400000 0.400000 0
6.500000 0.400000 0
6.600000 0.400000 0
6.700000 0.400000 0
6.800000 0.400000 0
6.900000 0.400000 0
7.000000 0.400000 0
7.100000 0.400000 0
7.200000 0.400000 0
7.300000 0.400000 0
7.400000 0.400000 0
7.500000 0.400000 0
7.600000 0.400000 0
7.700000 0.400000 0
7.800000 0.400000 0
7.900000 0.400000 0
8.000000 0.400000 0
8.100000 0.400000 0
8.200000 0.400000 0
8.300000 0.400000 0
8.400000 0.400000 0
8.500000 0.400000 0
8.600000 0.400000 0
8.700000 0.400000 0
8.800000 0.400000 0
8.900000 0.400000 0
9.000000 0.400000 0
9.100000 0.400000 0
9.200000 0.400000 0
9.300000 0.400000 0
9.400000 0.400000 0
[...]
POINT_DATA 1881 

VECTORS velocity float
0.500000 0.000000 0
0.502151 0.000000 0
0.506978 0.000000 0
0.514905 0.000000 0
0.526356 0.000000 0
0.541652 0.000000 0
0.560810 0.000000 0
0.583213 0.000000 0
0.607417 0.000000 0
0.631010 0.000000 0
0.651908 0.000000 0
0.668955 0.000000 0
0.681719 0.000000 0
0.690159 0.000000 0
0.694357 0.000000 0
0.694505 0.000000 0
0.690920 0.000000 0
0.684068 0.000000 0
0.674586 0.000000 0
0.663276 0.000000 0
0.651048 0.000000 0
0.638871 0.000000 0
0.627699 0.000000 0
0.618410 0.000000 0
0.611763 0.000000 0
0.608369 0.000000 0
0.608672 0.000000 0
0.612649 0.000000 0
0.619619 0.000000 0
0.628180 0.000000 0
0.636441 0.000000 0
0.642532 0.000000 0
0.645164 0.000000 0
0.643809 0.000000 0
0.638468 0.000000 0
0.629527 0.000000 0
0.617600 0.000000 0
0.603411 0.000000 0
0.587709 0.000000 0
0.571237 0.000000 0
0.554726 0.000000 0
0.538898 0.000000 0
0.524485 0.000000 0
0.512243 0.000000 0
0.502991 0.000000 0
0.497618 0.000000 0
0.496945 0.000000 0
0.501320 0.000000 0
0.510634 0.000000 0
0.524394 0.000000 0
0.541696 0.000000 0
0.561225 0.000000 0
0.581246 0.000000 0
0.599672 0.000000 0
0.614305 0.000000 0
0.623346 0.000000 0
0.625990 0.000000 0
0.622423 0.000000 0
0.613238 0.000000 0
0.599329 0.000000 0
0.581830 0.000000 0
0.562016 0.000000 0
0.541218 0.000000 0
0.520748 0.000000 0
0.501856 0.000000 0
0.485691 0.000000 0
0.473256 0.000000 0
0.465309 0.000000 0
0.462224 0.000000 0
0.463719 0.000000 0
0.468975 0.000000 0
0.477204 0.000000 0
0.487786 0.000000 0
0.500267 0.000000 0
0.514282 0.000000 0
0.529433 0.000000 0
0.545140 0.000000 0
0.560519 0.000000 0
0.574347 0.000000 0
0.585187 0.000000 0
0.591715 0.000000 0
0.593147 0.000000 0
0.589347 0.000000 0
0.580487 0.000000 0
0.567057 0.000000 0
0.549923 0.000000 0
0.530360 0.000000 0
0.510025 0.000000 0
0.490832 0.000000 0
0.474670 0.000000 0
0.463027 0.000000 0
0.456678 0.000000 0
0.455503 0.000000 0
0.458457 0.000000 0
0.464303 0.000000 0
0.472137 0.000000 0
0.481440 0.000000 0
0.492079 0.000000 0
0.504475 0.000000 0
1.000000 -0.002171 0
1.004858 -0.007010 0
1.015137 -0.012775 0
1.031604 -0.019394 0
1.055192 -0.026758 0
1.086749 -0.034448 0
1.126586 -0.041545 0
1.173723 -0.046594 0
1.225330 -0.047786 0
1.275309 -0.044493 0
1.318932 -0.037944 0
1.354116 -0.029803 0
1.380424 -0.021200 0
1.398016 -0.012635 0
1.407112 -0.004347 0
1.408025 0.003433 0
1.401322 0.010430 0
1.387912 0.016324 0
1.369096 0.020779 0
1.346520 0.023523 0
1.322070 0.024388 0
1.297747 0.023331 0
1.275520 0.020443 0
1.257191 0.015921 0
1.244283 0.010027 0
1.238023 0.003085 0
1.239285 -0.004276 0
1.248232 -0.010939 0
1.263728 -0.015517 0
1.282999 -0.016803 0
1.302022 -0.014334 0
1.316634 -0.008709 0
1.323820 -0.001268 0
1.322375 0.006698 0
1.312474 0.014284 0
1.295084 0.020872 0
1.271601 0.026117 0
1.243569 0.029891 0
1.212539 0.032172 0
1.180018 0.032979 0
1.147465 0.032334 0
1.116319 0.030235 0
1.088011 0.026648 0
1.063966 0.021484 0
1.045568 0.014615 0
1.034077 0.006036 0
1.030526 -0.003712 0
1.035649 -0.013700 0
1.049695 -0.023083 0
1.072253 -0.031068 0
1.102165 -0.036834 0
1.137542 -0.039549 0
1.175725 -0.038444 0
1.213229 -0.033054 0
1.245903 -0.023667 0
1.269551 -0.011678 0
1.280996 0.000929 0
1.279276 0.012756 0
1.265561 0.023094 0
1.241776 0.031406 0
1.210295 0.037309 0
1.173748 0.040607 0
1.134835 0.041262 0
1.096182 0.039355 0
1.060217 0.035050 0
1.029042 0.028593 0
1.004270 0.020375 0
0.986838 0.011024 0
0.976923 0.001583 0
0.974094 -0.006759 0
0.977550 -0.013493 0
0.986378 -0.018819 0
0.999830 -0.023071 0
1.017392 -0.026503 0
1.038714 -0.029172 0
1.063411 -0.030863 0
1.090758 -0.031089 0
1.119427 -0.029208 0
1.147374 -0.024668 0
1.171951 -0.017369 0
1.190238 -0.007962 0
1.199618 0.002366 0
1.198659 0.012657 0
1.187617 0.022285 0
1.167567 0.030557 0
1.140292 0.036690 0
1.108226 0.039891 0
1.074312 0.039521 0
1.041706 0.035349 0
1.013303 0.027799 0
0.991216 0.017986 0
0.976416 0.007518 0
0.968768 -0.001784 0
0.967460 -0.008803 0
0.971300 -0.013683 0
0.979153 -0.017140 0
0.990265 -0.019944 0
1.004364 -0.023035 0
1.021877 -0.024762 0
1.000000 -0.004889 0
1.005009 -0.015181 0
1.015276 -0.026768 0
1.031610 -0.040068 0
1.055272 -0.055145 0
1.087772 -0.071378 0
1.130418 -0.086955 0
1.183183 -0.098732 0
1.244261 -0.101585 0
1.301556 -0.093606 0
1.348700 -0.078800 0
1.384983 -0.061482 0
1.411570 -0.043896 0
1.429440 -0.026687 0
1.438860 -0.010011 0
1.439871 0.005783 0
1.432837 0.020102 0
1.418589 0.032212 0
1.398490 0.041375 0
1.374319 0.047006 0
1.348125 0.048752 0
1.322085 0.046529 0
1.298336 0.040537 0
1.278782 0.031221 0
1.264962 0.019159 0
1.258101 0.004999 0
1.259330 -0.010200 0
1.269484 -0.024426 0
1.287988 -0.034746 0
1.312078 -0.038272 0
1.337028 -0.033617 0
1.357357 -0.021788 0
1.368734 -0.005739 0
1.369652 0.011348 0
1.360906 0.027295 0
1.344037 0.040875 0
1.320849 0.051516 0
1.293102 0.059060 0
1.262410 0.063547 0
1.230246 0.065068 0
1.197981 0.063691 0
1.166930 0.059445 0
1.138358 0.052343 0
1.113439 0.042431 0
1.093160 0.029876 0
1.078205 0.015031 0
1.068983 -0.001583 0
1.066042 -0.019181 0
1.069994 -0.036613 0
1.081159 -0.052475 0
1.099534 -0.065289 0
1.124865 -0.073557 0
1.156360 -0.075681 0
1.192167 -0.070169 0
1.229031 -0.056313 0
1.262383 -0.035086 0
1.286991 -0.009721 0
1.298739 0.015435 0
1.297214 0.037497 0
1.284317 0.055262 0
1.262426 0.068022 0
1.234148 0.075452 0
1.202110 0.077558 0
1.168802 0.074610 0
1.136420 0.067131 0
1.106713 0.055939 0
1.080836 0.042195 0
1.059285 0.027338 0
1.042006 0.012735 0
1.028806 -0.000638 0
1.019597 -0.012295 0
1.014252 -0.022290 0
1.012874 -0.031023 0
1.015855 -0.038892 0
1.023799 -0.046024 0
1.037238 -0.052048 0
1.056189 -0.056019 0
1.079873 -0.056617 0
1.106702 -0.052524 0
1.134401 -0.042866 0
1.160144 -0.027670 0
1.180719 -0.008425 0
1.193206 0.011995 0
1.196443 0.031085 0
1.191137 0.047316 0
1.178697 0.059333 0
1.160989 0.065971 0
1.140070 0.066512 0
1.117889 0.061001 0
1.096041 0.050482 0
1.075644 0.036879 0
1.057369 0.022441 0
1.041629 0.008951 0
1.028928 -0.002536 0
1.019556 -0.011696 0
1.013494 -0.018968 0
1.010730 -0.025212 0
1.011327 -0.031612 0
1.015345 -0.035489 0
1.000000 -0.007199 0
1.004026 -0.022307 0
1.012565 -0.039376 0
1.026665 -0.059381 0
1.048125 -0.082901 0
1.079570 -0.109579 0
1.124343 -0.136951 0
1.184873 -0.160444 0
1.265105 -0.166173 0
1.332476 -0.148925 0
1.380377 -0.121360 0
1.413643 -0.092672 0
1.437126 -0.065657 0
1.453288 -0.039930 0
1.462058 -0.014784 0
1.462301 0.009449 0
1.453679 0.031704 0
1.436828 0.050662 0
1.413250 0.065040 0
1.384962 0.073880 0
1.354295 0.076614 0
1.323740 0.073116 0
1.295758 0.063743 0
1.272475 0.049295 0
1.255383 0.030720 0
1.245347 0.008732 0
1.243335 -0.015645 0
1.251155 -0.039582 0
1.269504 -0.058100 0
1.296476 -0.065839 0
1.327683 -0.059616 0
1.356632 -0.040425 0
1.376245 -0.013570 0
1.382254 0.014528 0
1.375837 0.039899 0
1.359750 0.060925 0
1.336639 0.077050 0
1.308709 0.088327 0
1.277719 0.095024 0
1.245099 0.097404 0
1.212081 0.095644 0
1.179789 0.089853 0
1.149270 0.080134 0
1.121476 0.066677 0
1.097168 0.049845 0
1.076765 0.030209 0
1.060173 0.008446 0
1.046910 -0.014712 0
1.037000 -0.038198 0
1.031773 -0.060604 0
1.033187 -0.080533 0
1.043422 -0.096369 0
1.063743 -0.105740 0
1.093558 -0.105720 0
1.130338 -0.093882 0
1.169950 -0.069639 0
1.207059 -0.035431 0
1.235657 0.002527 0
1.251184 0.037511 0
1.254057 0.066189 0
1.246295 0.087473 0
1.230214 0.100919 0
1.208174 0.106605 0
1.182399 0.105042 0
1.154839 0.097135 0
1.127063 0.084174 0
1.100218 0.067799 0
1.075026 0.049851 0
1.051805 0.032058 0
1.030468 0.015645 0
1.010802 0.001056 0
0.992944 -0.012099 0
0.977823 -0.024676 0
0.967393 -0.037429 0
0.963765 -0.050554 0
0.968231 -0.063251 0
0.980805 -0.073723 0
1.000370 -0.079720 0
1.025101 -0.079197 0
1.052854 -0.070813 0
1.081375 -0.054283 0
1.108338 -0.030700 0
1.131114 -0.003072 0
1.146995 0.024349 0
1.155257 0.048300 0
1.156444 0.066835 0
1.151528 0.078515 0
1.141642 0.082618 0
1.127871 0.079375 0
1.111187 0.070041 0
1.092507 0.056656 0
1.072766 0.041531 0
1.052874 0.026656 0
1.033553 0.013269 0
1.015512 0.001749 0
0.999501 -0.008315 0
0.986343 -0.017777 0
0.976949 -0.027650 0
0.972044 -0.034119 0
1.000000 -0.008930 0
1.002610 -0.027760 0
1.008354 -0.049402 0
1.018387 -0.075614 0
1.034927 -0.108034 0
1.061876 -0.147590 0
1.105711 -0.192261 0
1.174387 -0.239503 0
1.291529 -0.249183 0
1.363291 -0.208863 0
1.398788 -0.159964 0
1.418294 -0.118235 0
1.431941 -0.083545 0
1.443823 -0.051624 0
1.452889 -0.019032 0
1.454348 0.014155 0
1.445579 0.045567 0
1.426882 0.072633 0
1.400046 0.093233 0
1.367391 0.105955 0
1.331523 0.109969 0
1.295313 0.105062 0
1.261729 0.091802 0
1.233316 0.071605 0
1.211372 0.046299 0
1.195554 0.017060 0
1.184740 -0.015994 0
1.180460 -0.050586 0
1.186800 -0.080061 0
1.205540 -0.096452 0
1.236044 -0.093781 0
1.273779 -0.070357 0
1.309746 -0.031359 0
1.333051 0.011758 0
1.338790 0.049796 0
1.331105 0.080071 0
1.313972 0.102553 0
1.290348 0.117976 0
1.262360 0.127153 0
1.231593 0.130702 0
1.199322 0.128997 0
1.166651 0.122250 0
1.134566 0.110650 0
1.103905 0.094529 0
1.075169 0.074584 0
1.048140 0.052022 0
1.021588 0.028269 0
0.993919 0.003995 0
0.965141 -0.021473 0
0.938983 -0.048658 0
0.922268 -0.076932 0
0.919791 -0.104106 0
0.932390 -0.125813 0
0.958198 -0.136761 0
0.994084 -0.132705 0
1.036340 -0.111810 0
1.080785 -0.075433 0
1.122511 -0.028696 0
1.155405 0.019093 0
1.175633 0.060147 0
1.184125 0.091861 0
1.182576 0.113569 0
1.172888 0.125369 0
1.156948 0.127942 0
1.136475 0.122464 0
1.112909 0.110556 0
1.087312 0.094228 0
1.060264 0.075747 0
1.031890 0.057289 0
1.002227 0.040361 0
0.971954 0.025225 0
0.942997 0.010687 0
0.918309 -0.005473 0
0.900949 -0.024834 0
0.893208 -0.046861 0
0.895559 -0.069087 0
0.906875 -0.088156 0
0.925298 -0.100913 0
0.948850 -0.105010 0
0.975665 -0.099142 0
1.004036 -0.083157 0
1.032378 -0.058169 0
1.059072 -0.026667 0
1.081920 0.006937 0
1.098732 0.037864 0
1.109097 0.063058 0
1.113163 0.080770 0
1.111317 0.090166 0
1.104034 0.091453 0
1.091856 0.085843 0
1.075415 0.075298 0
1.055476 0.062072 0
1.032969 0.048162 0
1.009052 0.034825 0
0.985217 0.022355 0
0.963290 0.010202 0
0.945141 -0.002660 0
0.932252 -0.017313 0
0.925897 -0.027636 0
1.000000 -0.009821 0
1.000677 -0.030669 0
1.002383 -0.055142 0
1.005981 -0.085939 0
1.013448 -0.126380 0
1.029127 -0.180362 0
1.062424 -0.249468 0
1.130754 -0.346261 0
1.304463 -0.355064 0
1.346782 -0.256179 0
1.338242 -0.176366 0
1.326035 -0.125829 0
1.318988 -0.091192 0
1.321344 -0.060883 0
1.332498 -0.025315 0
1.342068 0.016752 0
1.339338 0.059164 0
1.324571 0.096189 0
1.299913 0.124525 0
1.267543 0.142398 0
1.229796 0.148689 0
1.189577 0.142908 0
1.150427 0.125747 0
1.115556 0.099664 0
1.085546 0.068493 0
1.057373 0.035376 0
1.027733 -0.000540 0
0.997314 -0.041636 0
0.975973 -0.083180 0
0.975788 -0.115090 0
0.999839 -0.127865 0
1.044047 -0.114126 0
1.099607 -0.072838 0
1.153709 -0.014518 0
1.192024 0.041842 0
1.210598 0.085740 0
1.214687 0.117805 0
1.208049 0.139934 0
1.193249 0.153774 0
1.172233 0.160437 0
1.146598 0.160582 0
1.117667 0.154605 0
1.086320 0.142876 0
1.052575 0.126069 0
1.015230 0.105606 0
0.972545 0.083788 0
0.924571 0.062669 0
0.875375 0.041738 0
0.832123 0.016742 0
0.801522 -0.017725 0
0.787525 -0.061335 0
0.789854 -0.106487 0
0.805739 -0.144144 0
0.832290 -0.167413 0
0.867154 -0.172027 0
0.908162 -0.156345 0
0.952899 -0.121607 0
0.998452 -0.072096 0
1.040910 -0.015614 0
1.074409 0.037464 0
1.096708 0.080526 0
1.108448 0.112153 0
1.110746 0.132229 0
1.104891 0.141452 0
1.092108 0.141171 0
1.073357 0.133333 0
1.049184 0.120440 0
1.019781 0.105269 0
0.985502 0.090091 0
0.947794 0.075578 0
0.909884 0.060284 0
0.876367 0.041544 0
0.851556 0.017371 0
0.837607 -0.012327 0
0.834318 -0.045163 0
0.839984 -0.076917 0
0.852534 -0.103462 0
0.870216 -0.121696 0
0.891689 -0.129566 0
0.915852 -0.126002 0
0.941677 -0.111001 0
0.968125 -0.085742 0
0.994118 -0.052617 0
1.018418 -0.015314 0
1.038903 0.021119 0
1.054070 0.052400 0
1.063390 0.076292 0
1.066642 0.091743 0
1.063783 0.098832 0
1.054916 0.098658 0
1.040337 0.093033 0
1.020648 0.083975 0
0.996949 0.073077 0
0.970987 0.061020 0
0.945134 0.047511 0
0.922061 0.031760 0
0.904137 0.013261 0
0.892773 -0.008405 0
0.888830 -0.023676 0
1.000000 -0.009614 0
0.998370 -0.030144 0
0.995057 -0.054692 0
0.990044 -0.086667 0
0.983780 -0.131175 0
0.978386 -0.196567 0
0.981212 -0.293890 0
1.014234 -0.481535 0
1.205767 -0.465205 0
1.151004 -0.242643 0
1.057629 -0.139220 0
1.005230 -0.098985 0
0.970938 -0.078858 0
0.958829 -0.065140 0
0.973425 -0.039761 0
1.005718 0.007310 0
1.028686 0.063058 0
1.036062 0.112052 0
1.030747 0.150256 0
1.012825 0.176069 0
0.982107 0.187934 0
0.938864 0.184435 0
0.883747 0.165833 0
0.818901 0.136496 0
0.750318 0.104494 0
0.688133 0.074885 0
0.642844 0.044071 0
0.620228 0.001176 0
0.620178 -0.058539 0
0.640876 -0.120327 0
0.680358 -0.162043 0
0.736131 -0.170121 0
0.804856 -0.141021 0
0.881057 -0.080662 0
0.953889 -0.007096 0
1.009010 0.057404 0
1.044007 0.105099 0
1.063238 0.139409 0
1.069406 0.162965 0
1.064521 0.177349 0
1.050168 0.183558 0
1.027313 0.182525 0
0.995939 0.175737 0
0.955009 0.165614 0
0.903628 0.154611 0
0.843726 0.142681 0
0.782365 0.125441 0
0.730450 0.096446 0
0.697407 0.052385 0
0.685885 -0.004054 0
0.690659 -0.065258 0
0.704898 -0.122317 0
0.724768 -0.168247 0
0.749238 -0.198178 0
0.778601 -0.208582 0
0.813113 -0.197560 0
0.852153 -0.165726 0
0.894054 -0.116710 0
0.936354 -0.056868 0
0.975171 0.004347 0
1.005501 0.057819 0
1.026232 0.099528 0
1.037428 0.128922 0
1.039508 0.146577 0
1.032917 0.153995 0
1.017929 0.153475 0
0.994700 0.147800 0
0.963792 0.139426 0
0.927068 0.129272 0
0.888315 0.115976 0
0.852698 0.096651 0
0.825023 0.069014 0
0.807986 0.033287 0
0.801636 -0.007595 0
0.803794 -0.049237 0
0.811793 -0.087303 0
0.823729 -0.118389 0
0.838552 -0.140069 0
0.855788 -0.150649 0
0.875170 -0.149135 0
0.896348 -0.135435 0
0.918744 -0.110613 0
0.941559 -0.076963 0
0.963833 -0.037851 0
0.984244 0.002209 0
1.000774 0.038568 0
1.012329 0.068195 0
1.018211 0.089770 0
1.017975 0.103175 0
1.011421 0.109287 0
0.998717 0.109564 0
0.980594 0.105458 0
0.958532 0.097822 0
0.934741 0.086639 0
0.911836 0.071280 0
0.892268 0.051199 0
0.877806 0.026628 0
0.869325 -0.002005 0
0.867055 -0.021845 0
1.000000 -0.008193 0
0.996106 -0.025721 0
0.987727 -0.046802 0
0.973536 -0.074652 0
0.951226 -0.114718 0
0.917118 -0.177795 0
0.865594 -0.285314 0
0.792933 -0.570810 0
0.554076 -0.393951 0
0.492294 0.000000 0
0.419474 -0.020435 0
0.352643 -0.039143 0
0.345702 -0.044795 0
0.375633 -0.063375 0
0.417359 -0.072209 0
0.476986 -0.038514 0
0.543362 0.028815 0
0.590481 0.094123 0
0.617815 0.147760 0
0.623576 0.191038 0
0.604902 0.222652 0
0.561737 0.241277 0
0.497375 0.245719 0
0.420866 0.233103 0
0.348286 0.199272 0
0.298790 0.142859 0
0.285330 0.067369 0
0.307894 -0.018971 0
0.350808 -0.103835 0
0.399302 -0.175275 0
0.449766 -0.223118 0
0.504909 -0.238622 0
0.568279 -0.217766 0
0.641059 -0.163554 0
0.720602 -0.086114 0
0.796376 -0.004381 0
0.855206 0.063572 0
0.895534 0.114532 0
0.919579 0.152486 0
0.928616 0.179670 0
0.923396 0.197786 0
0.904082 0.208830 0
0.870575 0.215177 0
0.823913 0.218378 0
0.768568 0.216888 0
0.713599 0.205052 0
0.670012 0.175948 0
0.645336 0.126701 0
0.640226 0.061312 0
0.649698 -0.010972 0
0.665809 -0.080344 0
0.682903 -0.140594 0
0.699125 -0.188485 0
0.715232 -0.221250 0
0.733410 -0.235908 0
0.755998 -0.229900 0
0.784240 -0.202551 0
0.817624 -0.156301 0
0.854153 -0.096734 0
0.890990 -0.031686 0
0.923537 0.029462 0
0.948396 0.080222 0
0.964516 0.118949 0
0.971424 0.145959 0
0.968866 0.162746 0
0.956779 0.171545 0
0.935676 0.174572 0
0.907338 0.172897 0
0.875313 0.165565 0
0.844474 0.149946 0
0.819491 0.123576 0
0.803161 0.086257 0
0.795794 0.040759 0
0.795900 -0.008135 0
0.801107 -0.055320 0
0.809171 -0.096852 0
0.818679 -0.130222 0
0.829082 -0.153758 0
0.840489 -0.166187 0
0.853346 -0.166566 0
0.868031 -0.154579 0
0.884545 -0.130956 0
0.902410 -0.097709 0
0.920776 -0.058003 0
0.938550 -0.015825 0
0.954022 0.024312 0
0.965635 0.058850 0
0.972380 0.086093 0
0.973585 0.105619 0
0.968959 0.117913 0
0.958747 0.123858 0
0.943904 0.124158 0
0.926124 0.118928 0
0.907602 0.107715 0
0.890552 0.089984 0
0.876692 0.065790 0
0.866955 0.036205 0
0.861533 0.002346 0
0.860170 -0.020799 0
1.000000 -0.005716 0
0.994468 -0.017859 0
0.982388 -0.032108 0
0.961389 -0.050160 0
0.926823 -0.074756 0
0.869625 -0.110935 0
0.770361 -0.169702 0
0.586777 -0.267892 0
0.000000 -0.164564 0
0.000000 0.000000 0
0.000000 0.000000 0
-0.031023 -0.035805 0
-0.050426 -0.101852 0
-0.021424 -0.136801 0
-0.006807 -0.141118 0
0.022121 -0.118696 0
0.084459 -0.050441 0
0.159433 0.037596 0
0.215203 0.117160 0
0.242820 0.188983 0
0.241242 0.249778 0
0.218363 0.291971 0
0.185735 0.306714 0
0.158978 0.285597 0
0.152629 0.226580 0
0.172541 0.137847 0
0.214446 0.034968 0
0.262919 -0.064306 0
0.306686 -0.149953 0
0.342690 -0.219285 0
0.372848 -0.267649 0
0.403028 -0.288637 0
0.440308 -0.277174 0
0.489516 -0.232988 0
0.550945 -0.162416 0
0.620273 -0.077204 0
0.685783 0.005937 0
0.736050 0.075031 0
0.769505 0.129878 0
0.786278 0.173528 0
0.786453 0.208088 0
0.770575 0.235342 0
0.740827 0.255904 0
0.702532 0.267619 0
0.664543 0.264926 0
0.636824 0.241240 0
0.625934 0.193707 0
0.632123 0.126236 0
0.650478 0.048029 0
0.673676 -0.029631 0
0.694910 -0.098461 0
0.711078 -0.155632 0
0.721425 -0.200578 0
0.727182 -0.232468 0
0.731341 -0.249352 0
0.737896 -0.248392 0
0.750358 -0.227355 0
0.770238 -0.186628 0
0.796521 -0.130237 0
0.826395 -0.065041 0
0.856098 0.000410 0
0.880878 0.058546 0
0.898430 0.105890 0
0.907574 0.142222 0
0.907719 0.168636 0
0.898988 0.186662 0
0.882661 0.197237 0
0.861554 0.199785 0
0.839762 0.192134 0
0.821510 0.171797 0
0.809666 0.137964 0
0.804958 0.092711 0
0.806331 0.040549 0
0.811906 -0.012907 0
0.819507 -0.062508 0
0.827365 -0.104875 0
0.834378 -0.138302 0
0.840197 -0.161883 0
0.845231 -0.174918 0
0.850474 -0.176680 0
0.857089 -0.166637 0
0.865890 -0.144996 0
0.877001 -0.113198 0
0.889833 -0.073994 0
0.903322 -0.031040 0
0.916069 0.011479 0
0.926341 0.049833 0
0.932952 0.081817 0
0.935156 0.106593 0
0.932697 0.124121 0
0.925937 0.134616 0
0.915909 0.138079 0
0.904191 0.134123 0
0.892544 0.122209 0
0.882468 0.102189 0
0.874873 0.074795 0
0.870020 0.041787 0
0.867659 0.004781 0
0.867200 -0.020276 0
1.000000 -0.002651 0
0.993906 -0.008093 0
0.980627 -0.013713 0
0.957695 -0.019082 0
0.920404 -0.022953 0
0.859953 -0.021330 0
0.759693 -0.002461 0
0.586145 0.096429 0
0.272191 0.089700 0
0.000000 0.000000 0
0.000000 0.000000 0
0.000000 0.000000 0
-0.036499 -0.055090 0
-0.113662 -0.106998 0
-0.173337 -0.115758 0
-0.194378 -0.129783 0
-0.171729 -0.108500 0
-0.109305 -0.036623 0
-0.040275 0.064372 0
0.009591 0.165001 0
0.039508 0.247116 0
0.060043 0.296793 0
0.082921 0.305115 0
0.119614 0.266219 0
0.175342 0.185717 0
0.246025 0.081045 0
0.314397 -0.023010 0
0.366766 -0.111216 0
0.401781 -0.183609 0
0.420029 -0.241436 0
0.424350 -0.283457 0
0.421251 -0.306085 0
0.420315 -0.304257 0
0.431079 -0.274195 0
0.458848 -0.216876 0
0.502415 -0.139224 0
0.554918 -0.052209 0
0.603639 0.030805 0
0.639617 0.102254 0
0.660885 0.162718 0
0.667326 0.213485 0
0.660762 0.254452 0
0.645738 0.283218 0
0.629583 0.294661 0
0.620647 0.282597 0
0.624928 0.243664 0
0.643439 0.180653 0
0.672570 0.102162 0
0.706471 0.019763 0
0.737498 -0.055400 0
0.761361 -0.117743 0
0.776370 -0.167110 0
0.781981 -0.204591 0
0.778968 -0.231170 0
0.769910 -0.246625 0
0.759275 -0.248920 0
0.752446 -0.234896 0
0.753701 -0.202467 0
0.764390 -0.152895 0
0.782697 -0.091267 0
0.804922 -0.025024 0
0.826220 0.037886 0
0.842878 0.092250 0
0.853078 0.136666 0
0.856128 0.171328 0
0.852491 0.196600 0
0.843966 0.212003 0
0.833553 0.215794 0
0.824675 0.205608 0
0.819997 0.180040 0
0.820565 0.140128 0
0.825845 0.089592 0
0.834418 0.033810 0
0.844566 -0.021310 0
0.854350 -0.070778 0
0.862337 -0.111723 0
0.867529 -0.143056 0
0.869507 -0.164615 0
0.868642 -0.176468 0
0.866145 -0.178427 0
0.863798 -0.169998 0
0.863356 -0.150871 0
0.865895 -0.121654 0
0.871488 -0.084328 0