# vtk DataFile Version 2.0
generated by CFD-lab course output (written by Tobias Neckel) 
ASCII

DATASET STRUCTURED_GRID
DIMENSIONS  99 19 1 
POINTS 1881 float

0.000000 0.000000 0
0.100000 0.000000 0
0.200000 0.000000 0
0.300000 0.000000 0
0.400000 0.000000 0
0.500000 0.000000 0
0.600000 0.000000 0
0.700000 0.000000 0
0.800000 0.000000 0
0.900000 0.000000 0
1.000000 0.000000 0
1.100000 0.000000 0
1.200000 0.000000 0
1.300000 0.000000 0
1.400000 0.000000 0
1.500000 0.000000 0
1.600000 0.000000 0
1.700000 0.000000 0
1.800000 0.000000 0
1.900000 0.000000 0
2.000000 0.000000 0
2.100000 0.000000 0
2.200000 0.000000 0
2.300000 0.000000 0
2.400000 0.000000 0
2.500000 0.000000 0
2.600000 0.000000 0
2.700000 0.000000 0
2.800000 0.000000 0
2.900000 0.000000 0
3.000000 0.000000 0
3.100000 0.000000 0
3.200000 0.000000 0
3.300000 0.000000 0
3.400000 0.000000 0
3.500000 0.000000 0
3.600000 0.000000 0
3.700000 0.000000 0
3.800000 0.000000 0
3.900000 0.000000 0
4.000000 0.000000 0
4.100000 0.000000 0
4.200000 0.000000 0
4.300000 0.000000 0
4.400000 0.000000 0
4.500000 0.000000 0
4.600000 0.000000 0
4.700000 0.000000 0
4.800000 0.000000 0
4.900000 0.000000 0
5.000000 0.000000 0
5.100000 0.000000 0
5.200000 0.000000 0
5.300000 0.000000 0
5.400000 0.000000 0
5.500000 0.000000 0
5.600000 0.000000 0
5.700000 0.000000 0
5.800000 0.000000 0
5.900000 0.000000 0
6.000000 0.000000 0
6.100000 0.000000 0
6.200000 0.000000 0
6.300000 0.000000 0
6.400000 0.000000 0
6.500000 0.000000 0
6.600000 0.000000 0
6.700000 0.000000 0
6.800000 0.000000 0
6.900000 0.000000 0
7.000000 0.000000 0
7.100000 0.000000 0
7.200000 0.000000 0
7.300000 0.000000 0
7.400000 0.000000 0
7.500000 0.000000 0
7.600000 0.000000 0
7.700000 0.000000 0
7.800000 0.000000 0
7.900000 0.000000 0
8.000000 0.000000 0
8.100000 0.000000 0
8.200000 0.000000 0
8.300000 0.000000 0
8.400000 0.000000 0
8.500000 0.000000 0
8.600000 0.000000 0
8.700000 0.000000 0
8.800000 0.000000 0
8.900000 0.000000 0
9.000000 0.000000 0
9.100000 0.000000 0
9.200000 0.000000 0
9.300000 0.000000 0
9.400000 0.000000 0
9.500000 0.000000 0
9.600000 0.000000 0
9.700000 0.000000 0
9.800000 0.000000 0
0.000000 0.100000 0
0.100000 0.100000 0
0.200000 0.100000 0
0.300000 0.100000 0
0.400000 0.100000 0
0.500000 0.100000 0
0.600000 0.100000 0
0.700000 0.100000 0
0.800000 0.100000 0
0.900000 0.100000 0
1.000000 0.100000 0
1.100000 0.100000 0
1.200000 0.100000 0
1.300000 0.100000 0
1.400000 0.100000 0
1.500000 0.100000 0
1.600000 0.100000 0
1.700000 0.100000 0
1.800000 0.100000 0
1.900000 0.100000 0
2.000000 0.100000 0
2.100000 0.100000 0
2.200000 0.100000 0
2.300000 0.100000 0
2.400000 0.100000 0
2.500000 0.100000 0
2.600000 0.100000 0
2.700000 0.100000 0
2.800000 0.100000 0
2.900000 0.100000 0
3.000000 0.100000 0
3.100000 0.100000 0
3.200000 0.100000 0
3.300000 0.100000 0
3.400000 0.100000 0
3.500000 0.100000 0
3.600000 0.100000 0
3.700000 0.100000 0
3.800000 0.100000 0
3.900000 0.100000 0
4.000000 0.100000 0
4.100000 0.100000 0
4.200000 0.100000 0
4.300000 0.100000 0
4.400000 0.100000 0
4.500000 0.100000 0
4.600000 0.100000 0
4.700000 0.100000 0
4.800000 0.100000 0
4.900000 0.100000 0
5.000000 0.100000 0
5.100000 0.100000 0
5.200000 0.100000 0
5.300000 0.100000 0
5.400000 0.100000 0
5.500000 0.100000 0
5.600000 0.100000 0
5.700000 0.100000 0
5.800000 0.100000 0
5.900000 0.100000 0
6.000000 0.100000 0
6.100000 0.100000 0
6.200000 0.100000 0
6.300000 0.100000 0
6.400000 0.100000 0
6.500000 0.100000 0
6.600000 0.100000 0
6.700000 0.100000 0
6.800000 0.100000 0
6.900000 0.100000 0
7.000000 0.100000 0
7.100000 0.100000 0
7.200000 0.100000 0
7.300000 0.100000 0
7.400000 0.100000 0
7.500000 0.100000 0
7.600000 0.100000 0
7.700000 0.100000 0
7.800000 0.100000 0
7.900000 0.100000 0
8.000000 0.100000 0
8.100000 0.100000 0
8.200000 0.100000 0
8.300000 0.100000 0
8.400000 0.100000 0
8.500000 0.100000 0
8.600000 0.100000 0
8.700000 0.100000 0
8.800000 0.100000 0
8.900000 0.100000 0
9.000000 0.100000 0
9.100000 0.100000 0
9.200000 0.100000 0
9.300000 0.100000 0
9.400000 0.100000 0
9.500000 0.100000 0
9.600000 0.100000 0
9.700000 0.100000 0
9.800000 0.100000 0
0.000000 0.200000 0
0.100000 0.200000 0
0.200000 0.200000 0
0.300000 0.200000 0
0.400000 0.200000 0
0.500000 0.200000 0
0.600000 0.200000 0
0.700000 0.200000 0
0.800000 0.200000 0
0.900000 0.200000 0
1.000000 0.200000 0
1.100000 0.200000 0
1.200000 0.200000 0
1.300000 0.200000 0
1.400000 0.200000 0
1.500000 0.200000 0
1.600000 0.200000 0
1.700000 0.200000 0
1.800000 0.200000 0
1.900000 0.200000 0
2.000000 0.200000 0
2.100000 0.200000 0
2.200000 0.200000 0
2.300000 0.200000 0
2.400000 0.200000 0
2.500000 0.200000 0
2.600000 0.200000 0
2.700000 0.200000 0
2.800000 0.200000 0
2.900000 0.200000 0
3.000000 0.200000 0
3.100000 0.200000 0
3.200000 0.200000 0
3.300000 0.200000 0
3.400000 0.200000 0
3.500000 0.200000 0
3.600000 0.200000 0
3.700000 0.200000 0
3.800000 0.200000 0
3.900000 0.200000 0
4.000000 0.200000 0
4.100000 0.200000 0
4.200000 0.200000 0
4.300000 0.200000 0
4.400000 0.200000 0
4.500000 0.200000 0
4.600000 0.200000 0
4.700000 0.200000 0
4.800000 0.200000 0
4.900000 0.200000 0
5.000000 0.200000 0
5.100000 0.200000 0
5.200000 0.200000 0
5.300000 0.200000 0
5.400000 0.200000 0
5.500000 0.200000 0
5.600000 0.200000 0
5.700000 0.200000 0
5.800000 0.200000 0
5.900000 0.200000 0
6.000000 0.200000 0
6.100000 0.200000 0
6.200000 0.200000 0
6.300000 0.200000 0
6.400000 0.200000 0
6.500000 0.200000 0
6.600000 0.200000 0
6.700000 0.200000 0
6.800000 0.200000 0
6.900000 0.200000 0
7.000000 0.200000 0
7.100000 0.200000 0
7.200000 0.200000 0
7.300000 0.200000 0
7.400000 0.200000 0
7.500000 0.200000 0
7.600000 0.200000 0
7.700000 0.200000 0
7.800000 0.200000 0
7.900000 0.200000 0
8.000000 0.200000 0
8.100000 0.200000 0
8.200000 0.200000 0
8.300000 0.200000 0
8.400000 0.200000 0
8.500000 0.200000 0
8.600000 0.200000 0
8.700000 0.200000 0
8.800000 0.200000 0
8.900000 0.200000 0
9.000000 0.200000 0
9.100000 0.200000 0
9.200000 0.200000 0
9.300000 0.200000 0
9.400000 0.200000 0
9.500000 0.200000 0
9.600000 0.200000 0
9.700000 0.200000 0
9.800000 0.200000 0
0.000000 0.300000 0
0.100000 0.300000 0
0.200000 0.300000 0
0.300000 0.300000 0
0.400000 0.300000 0
0.500000 0.300000 0
0.600000 0.300000 0
0.700000 0.300000 0
0.800000 0.300000 0
0.900000 0.300000 0
1.000000 0.300000 0
1.100000 0.300000 0
1.200000 0.300000 0
1.300000 0.300000 0
1.400000 0.300000 0
1.500000 0.300000 0
1.600000 0.300000 0
1.700000 0.300000 0
1.800000 0.300000 0
1.900000 0.300000 0
2.000000 0.300000 0
2.100000 0.300000 0
2.200000 0.300000 0
2.300000 0.300000 0
2.400000 0.300000 0
2.500000 0.300000 0
2.600000 0.300000 0
2.700000 0.300000 0
2.800000 0.300000 0
2.900000 0.300000 0
3.000000 0.300000 0
3.100000 0.300000 0
3.200000 0.300000 0
3.300000 0.300000 0
3.400000 0.300000 0
3.500000 0.300000 0
3.600000 0.300000 0
3.700000 0.300000 0
3.800000 0.300000 0
3.900000 0.300000 0
4.000000 0.300000 0
4.100000 0.300000 0
4.200000 0.300000 0
4.300000 0.300000 0
4.400000 0.300000 0
4.500000 0.300000 0
4.600000 0.300000 0
4.700000 0.300000 0
4.800000 0.300000 0
4.900000 0.300000 0
5.000000 0.300000 0
5.100000 0.300000 0
5.200000 0.300000 0
5.300000 0.300000 0
5.400000 0.300000 0
5.500000 0.300000 0
5.600000 0.300000 0
5.700000 0.300000 0
5.800000 0.300000 0
5.900000 0.300000 0
6.000000 0.300000 0
6.100000 0.300000 0
6.200000 0.300000 0
6.300000 0.300000 0
6.400000 0.300000 0
6.500000 0.300000 0
6.600000 0.300000 0
6.700000 0.300000 0
6.800000 0.300000 0
6.900000 0.300000 0
7.000000 0.300000 0
7.100000 0.300000 0
7.200000 0.300000 0
7.300000 0.300000 0
7.400000 0.300000 0
7.500000 0.300000 0
7.600000 0.300000 0
7.700000 0.300000 0
7.800000 0.300000 0
7.900000 0.300000 0
8.000000 0.300000 0
8.100000 0.300000 0
8.200000 0.300000 0
8.300000 0.300000 0
8.400000 0.300000 0
8.500000 0.300000 0
8.600000 0.300000 0
8.700000 0.300000 0
8.800000 0.300000 0
8.900000 0.300000 0
9.000000 0.300000 0
9.100000 0.300000 0
9.200000 0.300000 0
9.300000 0.300000 0
9.400000 0.300000 0
9.500000 0.300000 0
9.600000 0.300000 0
9.700000 0.300000 0
9.800000 0.300000 0
0.000000 0.400000 0
0.100000 0.400000 0
0.200000 0.400000 0
0.300000 0.400000 0
0.400000 0.400000 0
0.500000 0.400000 0
0.600000 0.400000 0
0.700000 0.400000 0
0.800000 0.400000 0
0.900000 0.400000 0
1.000000 0.400000 0
1.100000 0.400000 0
1.200000 0.400000 0
1.300000 0.400000 0
1.400000 0.400000 0
1.500000 0.400000 0
1.600000 0.400000 0
1.700000 0.400000 0
1.800000 0.400000 0
1.900000 0.400000 0
2.000000 0.400000 0
2.100000 0.400000 0
2.200000 0.400000 0
2.300000 0.400000 0
2.400000 0.400000 0
2.500000 0.400000 0
2.600000 0.400000 0
2.700000 0.400000 0
2.800000 0.400000 0
2.900000 0.400000 0
3.000000 0.400000 0
3.100000 0.400000 0
3.200000 0.400000 0
3.300000 0.400000 0
3.400000 0.400000 0
3.500000 0.400000 0
3.600000 0.400000 0
3.700000 0.400000 0
3.800000 0.400000 0
3.900000 0.400000 0
4.000000 0.400000 0
4.100000 0.400000 0
4.200000 0.400000 0
4.300000 0.400000 0
4.400000 0.400000 0
4.500000 0.400000 0
4.600000 0.400000 0
4.700000 0.400000 0
4.800000 0.400000 0
4.900000 0.400000 0
5.000000 0.400000 0
5.100000 0.400000 0
5.200000 0.400000 0
5.300000 0.400000 0
5.400000 0.400000 0
5.500000 0.400000 0
5.600000 0.400000 0
5.700000 0.400000 0
5.800000 0.400000 0
5.900000 0.400000 0
6.000000 0.400000 0
6.100000 0.400000 0
6.200000 0.400000 0
6.300000 0.400000 0
6.400000 0.400000 0
6.500000 0.400000 0
6.600000 0.400000 0
6.700000 0.400000 0
6.800000 0.400000 0
6.900000 0.400000 0
7.000000 0.400000 0
7.100000 0.400000 0
7.200000 0.400000 0
7.300000 0.400000 0
7.400000 0.400000 0
7.500000 0.400000 0
7.600000 0.400000 0
7.700000 0.400000 0
7.800000 0.400000 0
7.900000 0.400000 0
8.000000 0.400000 0
8.100000 0.400000 0
8.200000 0.400000 0
8.300000 0.400000 0
8.400000 0.400000 0
8.500000 0.400000 0
8.600000 0.400000 0
8.700000 0.400000 0
8.800000 0.400000 0
8.900000 0.400000 0
9.000000 0.400000 0
9.100000 0.400000 0
9.200000 0.400000 0
9.300000 0.400000 0
9.400000 0.400000 0
[...]
POINT_DATA 1881 

VECTORS velocity float
0.500000 0.000000 0
0.502157 0.000000 0
0.506887 0.000000 0
0.514589 0.000000 0
0.525645 0.000000 0
0.540336 0.000000 0
0.558634 0.000000 0
0.579906 0.000000 0
0.602687 0.000000 0
0.624629 0.000000 0
0.643771 0.000000 0
0.659156 0.000000 0
0.670697 0.000000 0
0.678856 0.000000 0
0.684351 0.000000 0
0.687973 0.000000 0
0.690410 0.000000 0
0.692075 0.000000 0
0.692993 0.000000 0
0.692813 0.000000 0
0.690960 0.000000 0
0.686872 0.000000 0
0.680220 0.000000 0
0.670951 0.000000 0
0.659286 0.000000 0
0.645656 0.000000 0
0.630636 0.000000 0
0.614894 0.000000 0
0.599154 0.000000 0
0.584157 0.000000 0
0.570636 0.000000 0
0.559305 0.000000 0
0.550879 0.000000 0
0.546133 0.000000 0
0.545880 0.000000 0
0.550611 0.000000 0
0.560256 0.000000 0
0.574000 0.000000 0
0.590209 0.000000 0
0.606595 0.000000 0
0.620656 0.000000 0
0.630291 0.000000 0
0.634389 0.000000 0
0.632906 0.000000 0
0.626313 0.000000 0
0.615399 0.000000 0
0.601134 0.000000 0
0.584547 0.000000 0
0.566640 0.000000 0
0.548346 0.000000 0
0.530524 0.000000 0
0.513986 0.000000 0
0.499528 0.000000 0
0.487961 0.000000 0
0.480097 0.000000 0
0.476652 0.000000 0
0.477939 0.000000 0
0.483688 0.000000 0
0.493423 0.000000 0
0.506573 0.000000 0
0.522485 0.000000 0
0.540377 0.000000 0
0.559233 0.000000 0
0.577695 0.000000 0
0.594052 0.000000 0
0.606448 0.000000 0
0.613367 0.000000 0
0.614170 0.000000 0
0.609006 0.000000 0
0.598361 0.000000 0
0.583050 0.000000 0
0.564194 0.000000 0
0.543177 0.000000 0
0.521570 0.000000 0
0.501036 0.000000 0
0.483179 0.000000 0
0.469359 0.000000 0
0.460478 0.000000 0
0.456814 0.000000 0
0.457855 0.000000 0
0.462468 0.000000 0
0.469650 0.000000 0
0.478684 0.000000 0
0.489121 0.000000 0
0.500687 0.000000 0
0.513164 0.000000 0
0.526254 0.000000 0
0.539453 0.000000 0
0.551974 0.000000 0
0.562763 0.000000 0
0.570653 0.000000 0
0.574654 0.000000 0
0.574251 0.000000 0
0.569330 0.000000 0
0.560015 0.000000 0
0.546745 0.000000 0
0.530347 0.000000 0
0.512042 0.000000 0
0.493692 0.000000 0
1.000000 -0.002125 0
1.004878 -0.006839 0
1.014978 -0.012405 0
1.031013 -0.018737 0
1.053828 -0.025731 0
1.084181 -0.032977 0
1.122303 -0.039560 0
1.167157 -0.044045 0
1.215858 -0.044717 0
1.262444 -0.041079 0
1.302408 -0.034520 0
1.334002 -0.026917 0
1.357409 -0.019681 0
1.373814 -0.013624 0
1.384859 -0.009084 0
1.392284 -0.006024 0
1.397620 -0.004069 0
1.401828 -0.002558 0
1.404966 -0.000720 0
1.406133 0.002056 0
1.403912 0.005965 0
1.397016 0.010760 0
1.384707 0.015942 0
1.366909 0.020950 0
1.344127 0.025308 0
1.317284 0.028662 0
1.287585 0.030770 0
1.256410 0.031487 0
1.225236 0.030741 0
1.195571 0.028520 0
1.168891 0.024853 0
1.146605 0.019757 0
1.130061 0.013172 0
1.120601 0.005000 0
1.119556 -0.004474 0
1.128033 -0.014367 0
1.146320 -0.023377 0
1.173273 -0.029936 0
1.206068 -0.032573 0
1.240443 -0.030424 0
1.271364 -0.023674 0
1.294114 -0.013712 0
1.305584 -0.002598 0
1.305080 0.008089 0
1.293682 0.017520 0
1.273168 0.025191 0
1.245660 0.030862 0
1.213342 0.034502 0
1.178299 0.036209 0
1.142449 0.036123 0
1.107540 0.034366 0
1.075184 0.031001 0
1.046877 0.026029 0
1.023970 0.019435 0
1.007566 0.011312 0
0.998375 0.002160 0
0.996698 -0.007033 0
1.002476 -0.015482 0
1.015355 -0.022882 0
1.034770 -0.029058 0
1.059976 -0.033797 0
1.090024 -0.036739 0
1.123564 -0.037308 0
1.158564 -0.034807 0
1.192169 -0.028740 0
1.220854 -0.019302 0
1.240963 -0.007710 0
1.249618 0.004371 0
1.245918 0.015817 0
1.230832 0.025962 0
1.206064 0.034172 0
1.173898 0.039878 0
1.137058 0.042628 0
1.098538 0.042144 0
1.061375 0.038392 0
1.028355 0.031678 0
1.001650 0.022703 0
0.982495 0.012547 0
0.971069 0.002624 0
0.966731 -0.005653 0
0.968409 -0.011793 0
0.974875 -0.016215 0
0.985160 -0.019470 0
0.998665 -0.022002 0
1.015097 -0.024042 0
1.034292 -0.025566 0
1.055952 -0.026288 0
1.079381 -0.025718 0
1.103321 -0.023308 0
1.125941 -0.018677 0
1.144986 -0.011890 0
1.158075 -0.003597 0
1.163206 0.005326 0
1.159520 0.014238 0
1.147330 0.022586 0
1.127635 0.029668 0
1.102106 0.034703 0
1.073004 0.036655 0
1.043185 0.035995 0
1.000000 -0.004831 0
1.005032 -0.014914 0
1.015139 -0.026107 0
1.031069 -0.038828 0
1.053989 -0.053151 0
1.085314 -0.068462 0
1.126271 -0.082964 0
1.176754 -0.093546 0
1.234771 -0.095279 0
1.288475 -0.086542 0
1.331623 -0.071548 0
1.363589 -0.054979 0
1.385879 -0.039776 0
1.400521 -0.027407 0
1.409701 -0.018426 0
1.415611 -0.012722 0
1.420279 -0.009510 0
1.425147 -0.007322 0
1.430408 -0.004282 0
1.434567 0.001084 0
1.435272 0.009145 0
1.430662 0.019230 0
1.419803 0.030129 0
1.402729 0.040598 0
1.380145 0.049640 0
1.353155 0.056553 0
1.323086 0.060883 0
1.291401 0.062355 0
1.259633 0.060842 0
1.229318 0.056347 0
1.201916 0.048968 0
1.178729 0.038832 0
1.160892 0.026005 0
1.149443 0.010510 0
1.145503 -0.007422 0
1.150482 -0.026749 0
1.165279 -0.045220 0
1.189489 -0.059722 0
1.221282 -0.067141 0
1.257509 -0.065267 0
1.293684 -0.053644 0
1.324303 -0.034198 0
1.344082 -0.010950 0
1.350156 0.011918 0
1.343531 0.031926 0
1.326532 0.048034 0
1.301722 0.059838 0
1.271579 0.067371 0
1.238348 0.070902 0
1.203997 0.070767 0
1.170232 0.067272 0
1.138516 0.060670 0
1.110070 0.051219 0
1.085798 0.039315 0
1.066195 0.025599 0
1.051326 0.010871 0
1.041126 -0.004099 0
1.035755 -0.018654 0
1.035474 -0.032287 0
1.040603 -0.044612 0
1.051546 -0.055244 0
1.068752 -0.063575 0
1.092309 -0.068525 0
1.121434 -0.068589 0
1.154218 -0.062274 0
1.187641 -0.048779 0
1.217755 -0.028751 0
1.240134 -0.004944 0
1.251277 0.018794 0
1.250743 0.039861 0
1.239965 0.056939 0
1.220964 0.069010 0
1.196114 0.075363 0
1.167917 0.075687 0
1.138754 0.070186 0
1.110651 0.059727 0
1.085070 0.045862 0
1.062827 0.030583 0
1.044182 0.015766 0
1.029186 0.002662 0
1.017922 -0.008142 0
1.010229 -0.016749 0
1.005999 -0.023788 0
1.005430 -0.029936 0
1.008959 -0.035625 0
1.017089 -0.040853 0
1.030050 -0.045087 0
1.047511 -0.047367 0
1.068496 -0.046558 0
1.091465 -0.041662 0
1.114424 -0.032132 0
1.135009 -0.018219 0
1.150672 -0.001444 0
1.159352 0.015877 0
1.160579 0.031887 0
1.155053 0.045226 0
1.144036 0.054631 0
1.129127 0.058921 0
1.111824 0.058894 0
1.000000 -0.007129 0
1.004044 -0.021949 0
1.012435 -0.038440 0
1.026160 -0.057585 0
1.046922 -0.079974 0
1.077269 -0.105257 0
1.120450 -0.130998 0
1.178825 -0.152542 0
1.255841 -0.156434 0
1.319705 -0.137925 0
1.363612 -0.109619 0
1.391832 -0.081145 0
1.408792 -0.056586 0
1.417657 -0.037424 0
1.421106 -0.024158 0
1.421811 -0.016596 0
1.422566 -0.013605 0
1.425926 -0.012685 0
1.432923 -0.010128 0
1.441235 -0.002796 0
1.446182 0.009877 0
1.444428 0.026236 0
1.434810 0.043878 0
1.417709 0.060611 0
1.394257 0.074884 0
1.365858 0.085722 0
1.333997 0.092525 0
1.300227 0.094941 0
1.266155 0.092824 0
1.233380 0.086238 0
1.203364 0.075444 0
1.177275 0.060782 0
1.155923 0.042462 0
1.139880 0.020398 0
1.129714 -0.005500 0
1.126414 -0.034129 0
1.131377 -0.062368 0
1.145204 -0.085923 0
1.168054 -0.100580 0
1.199430 -0.102816 0
1.237045 -0.090463 0
1.276011 -0.064110 0
1.309202 -0.028450 0
1.329414 0.008645 0
1.333917 0.041149 0
1.325457 0.067003 0
1.307182 0.085818 0
1.281995 0.097879 0
1.252412 0.103793 0
1.220532 0.104242 0
1.188072 0.099849 0
1.156409 0.091164 0
1.126605 0.078749 0
1.099406 0.063311 0
1.075199 0.045785 0
1.053957 0.027231 0
1.035233 0.008541 0
1.018478 -0.009826 0
1.003756 -0.027725 0
0.992624 -0.045123 0
0.987598 -0.061939 0
0.991058 -0.077493 0
1.004213 -0.089981 0
1.026588 -0.096710 0
1.056291 -0.094942 0
1.090515 -0.082834 0
1.125896 -0.060200 0
1.158623 -0.029151 0
1.184357 0.005208 0
1.199666 0.037275 0
1.204638 0.063952 0
1.200562 0.083729 0
1.189143 0.095675 0
1.172218 0.099505 0
1.151534 0.095660 0
1.128611 0.085365 0
1.104695 0.070528 0
1.080788 0.053435 0
1.057651 0.036266 0
1.035722 0.020608 0
1.015209 0.007164 0
0.996496 -0.004290 0
0.980331 -0.014670 0
0.968026 -0.024961 0
0.961250 -0.035699 0
0.961212 -0.046656 0
0.968204 -0.056709 0
0.981577 -0.064163 0
1.000027 -0.067261 0
1.021915 -0.064604 0
1.045504 -0.055433 0
1.069071 -0.039844 0
1.090866 -0.019017 0
1.108830 0.004331 0
1.121161 0.026884 0
1.127599 0.046211 0
1.128577 0.060629 0
1.124843 0.068867 0
1.117156 0.071167 0
1.000000 -0.008851 0
1.002630 -0.027324 0
1.008249 -0.048220 0
1.017956 -0.073313 0
1.033888 -0.104257 0
1.059883 -0.141987 0
1.102348 -0.184518 0
1.169199 -0.228933 0
1.283337 -0.236153 0
1.352942 -0.194302 0
1.385978 -0.143651 0
1.401158 -0.100133 0
1.406558 -0.065582 0
1.405119 -0.039706 0
1.398943 -0.022573 0
1.390374 -0.014180 0
1.382590 -0.013626 0
1.380007 -0.017668 0
1.386733 -0.019575 0
1.401042 -0.012169 0
1.414781 0.005957 0
1.419411 0.030607 0
1.413534 0.056852 0
1.398468 0.081153 0
1.376072 0.101492 0
1.348038 0.116815 0
1.315873 0.126514 0
1.281101 0.130198 0
1.245372 0.127691 0
1.210419 0.119140 0
1.177813 0.105075 0
1.148569 0.086276 0
1.122869 0.063409 0
1.100229 0.036729 0
1.079770 0.006057 0
1.060439 -0.028397 0
1.043678 -0.063995 0
1.034397 -0.096386 0
1.037593 -0.121357 0
1.056240 -0.134252 0
1.089734 -0.130224 0
1.133995 -0.106354 0
1.181977 -0.064347 0
1.224285 -0.012792 0
1.251600 0.035886 0
1.262271 0.074772 0
1.259711 0.103303 0
1.247095 0.122145 0
1.227170 0.132368 0
1.202262 0.135108 0
1.174296 0.131397 0
1.144839 0.122139 0
1.115108 0.108223 0
1.085897 0.090722 0
1.057360 0.071050 0
1.028843 0.050840 0
0.999278 0.031384 0
0.968411 0.012828 0
0.938088 -0.006427 0
0.912321 -0.028446 0
0.896120 -0.053670 0
0.892625 -0.080182 0
0.901829 -0.104048 0
0.921809 -0.120661 0
0.949982 -0.126196 0
0.983680 -0.118381 0
1.020277 -0.096858 0
1.057110 -0.063405 0
1.091182 -0.022248 0
1.118435 0.019581 0
1.136329 0.056045 0
1.145134 0.084506 0
1.145741 0.103709 0
1.139308 0.113296 0
1.127034 0.113794 0
1.110037 0.106568 0
1.089295 0.093685 0
1.065603 0.077627 0
1.039594 0.060833 0
1.011916 0.045105 0
0.983601 0.031085 0
0.956418 0.018131 0
0.932742 0.004683 0
0.914935 -0.010854 0
0.904769 -0.028810 0
0.902960 -0.047805 0
0.908983 -0.065451 0
0.921531 -0.079188 0
0.939028 -0.086894 0
0.959920 -0.087138 0
0.982784 -0.079288 0
1.006346 -0.063581 0
1.029443 -0.041202 0
1.050869 -0.014417 0
1.068867 0.013118 0
1.082097 0.037810 0
1.090281 0.057387 0
1.093494 0.070341 0
1.091934 0.075761 0
1.000000 -0.009738 0
1.000700 -0.030176 0
1.002316 -0.053763 0
1.005663 -0.083222 0
1.012660 -0.121898 0
1.027603 -0.173714 0
1.059879 -0.240311 0
1.126924 -0.333527 0
1.298891 -0.340169 0
1.342750 -0.240547 0
1.335930 -0.157810 0
1.323921 -0.101705 0
1.311833 -0.060533 0
1.297609 -0.029801 0
1.278817 -0.009410 0
1.256577 -0.000243 0
1.234834 -0.003230 0
1.218496 -0.016814 0
1.215197 -0.031153 0
1.230488 -0.030839 0
1.258302 -0.008487 0
1.281594 0.027487 0
1.289697 0.064823 0
1.286317 0.098076 0
1.274436 0.125316 0
1.255655 0.145921 0
1.230956 0.159464 0
1.201484 0.165444 0
1.168838 0.163508 0
1.135021 0.153800 0
1.101913 0.137297 0
1.069948 0.115733 0
1.036799 0.090813 0
0.998531 0.063510 0
0.953709 0.034303 0
0.906168 0.001978 0
0.863740 -0.036312 0
0.836801 -0.079827 0
0.831611 -0.122416 0
0.847586 -0.154954 0
0.881390 -0.168217 0
0.928912 -0.156348 0
0.985312 -0.118734 0
1.044296 -0.060975 0
1.096749 0.003167 0
1.133281 0.058895 0
1.153711 0.100997 0
1.160853 0.130422 0
1.157188 0.148628 0
1.144947 0.157119 0
1.126085 0.157274 0
1.102188 0.150354 0
1.074271 0.137692 0
1.042512 0.121061 0
1.006266 0.102841 0
0.964975 0.085317 0
0.919945 0.068978 0
0.875562 0.051369 0
0.838215 0.028372 0
0.813108 -0.003147 0
0.802298 -0.042234 0
0.804652 -0.083194 0
0.817428 -0.119159 0
0.838059 -0.144857 0
0.864657 -0.156810 0
0.895737 -0.153128 0
0.929839 -0.133629 0
0.965343 -0.100055 0
1.000403 -0.056116 0
1.032588 -0.007870 0
1.058148 0.037254 0
1.075674 0.074318 0
1.085153 0.101503 0
1.086988 0.118214 0
1.081741 0.124931 0
1.069972 0.123104 0
1.052148 0.114963 0
1.028700 0.103137 0
1.000307 0.089955 0
0.968397 0.076602 0
0.935528 0.062664 0
0.905187 0.046571 0
0.880890 0.026814 0
0.864953 0.003014 0
0.857832 -0.023722 0
0.858692 -0.050868 0
0.866065 -0.075278 0
0.878457 -0.094207 0
0.894596 -0.105649 0
0.913430 -0.108359 0
0.934042 -0.101858 0
0.955578 -0.086503 0
0.977217 -0.063539 0
0.998133 -0.035093 0
1.017316 -0.004344 0
1.033099 0.024798 0
1.044521 0.049233 0
1.051126 0.067214 0
1.052512 0.076166 0
1.000000 -0.009534 0
0.998398 -0.029622 0
0.995040 -0.053181 0
0.989876 -0.083655 0
0.983320 -0.126195 0
0.977463 -0.189203 0
0.979668 -0.283835 0
1.011947 -0.467939 0
1.203966 -0.451966 0
1.156231 -0.231319 0
1.070070 -0.124803 0
1.025132 -0.076022 0
1.000341 -0.039262 0
0.974334 -0.006687 0
0.937574 0.018461 0
0.893018 0.029808 0
0.848388 0.024468 0
0.813453 0.001980 0
0.798970 -0.031561 0
0.818999 -0.055269 0
0.870212 -0.045146 0
0.935606 -0.000785 0
0.991630 0.052131 0
1.026408 0.096416 0
1.046186 0.132157 0
1.053928 0.160297 0
1.050184 0.180687 0
1.035647 0.192318 0
1.011271 0.194158 0
0.977717 0.186068 0
0.934775 0.170154 0
0.881792 0.151400 0
0.819755 0.134836 0
0.753530 0.119832 0
0.692086 0.098436 0
0.646232 0.061587 0
0.623007 0.005384 0
0.621354 -0.064248 0
0.636025 -0.132137 0
0.662699 -0.184030 0
0.699391 -0.211547 0
0.745477 -0.210270 0
0.800021 -0.179726 0
0.860691 -0.124226 0
0.923098 -0.053096 0
0.978290 0.017813 0
1.018529 0.075734 0
1.044302 0.118671 0
1.057140 0.148277 0
1.058579 0.166213 0
1.050009 0.174157 0
1.032397 0.173955 0
1.006008 0.167901 0
0.970519 0.158729 0
0.926116 0.148590 0
0.875450 0.137165 0
0.824797 0.120802 0
0.782413 0.094565 0
0.754707 0.056035 0
0.743446 0.007479 0
0.745447 -0.045206 0
0.755667 -0.095305 0
0.770715 -0.137449 0
0.789167 -0.167886 0
0.810798 -0.183872 0
0.835740 -0.183563 0
0.863830 -0.166462 0
0.894299 -0.133966 0
0.925853 -0.089491 0
0.956839 -0.038163 0
0.984645 0.012960 0
1.006332 0.057502 0
1.020943 0.092396 0
1.028100 0.116710 0
1.027685 0.130811 0
1.019673 0.136161 0
1.004165 0.134957 0
0.981661 0.129469 0
0.953542 0.121137 0
0.922431 0.109885 0
0.891971 0.094296 0
0.865920 0.072771 0
0.847007 0.044919 0
0.836307 0.012206 0
0.833272 -0.022547 0
0.836309 -0.056037 0
0.843797 -0.085215 0
0.854541 -0.107718 0
0.867772 -0.121866 0
0.882992 -0.126583 0
0.899795 -0.121435 0
0.917726 -0.106755 0
0.936217 -0.083756 0
0.954597 -0.054515 0
0.972090 -0.021847 0
0.987503 0.010605 0
0.999393 0.039360 0
1.006887 0.062351 0
1.009112 0.074941 0
1.000000 -0.008122 0
0.996138 -0.025201 0
0.987761 -0.045239 0
0.973536 -0.071500 0
0.951145 -0.109483 0
0.916887 -0.170059 0
0.865109 -0.274790 0
0.791937 -0.557817 0
0.554171 -0.386942 0
0.497378 0.000000 0
0.429492 -0.017559 0
0.373309 -0.031964 0
0.369676 -0.009729 0
0.371515 0.032967 0
0.350065 0.071909 0
0.309317 0.088954 0
0.268372 0.076347 0
0.247446 0.032612 0
0.261592 -0.036694 0
0.310129 -0.102078 0
0.385919 -0.125091 0
0.481916 -0.093928 0
0.586559 -0.025976 0
0.676468 0.043522 0
0.739613 0.097798 0
0.780399 0.141925 0
0.801251 0.177748 0
0.802784 0.204360 0
0.785163 0.221441 0
0.748237 0.230301 0
0.692831 0.233231 0
0.623749 0.230764 0
0.552403 0.219087 0
0.494625 0.191193 0
0.463159 0.141615 0
0.461172 0.071069 0
0.482082 -0.011424 0
0.511775 -0.092839 0
0.540709 -0.163758 0
0.567778 -0.218318 0
0.596031 -0.250989 0
0.629581 -0.256972 0
0.671417 -0.233944 0
0.721946 -0.184048 0
0.778788 -0.114429 0
0.837169 -0.036533 0
0.887714 0.034986 0
0.925046 0.091813 0
0.949191 0.134353 0
0.960543 0.164252 0
0.959513 0.183458 0
0.946296 0.194357 0
0.921050 0.199572 0
0.884831 0.200956 0
0.841118 0.197915 0
0.796518 0.186641 0
0.759084 0.162021 0
0.734799 0.121467 0
0.725094 0.067346 0
0.727339 0.006121 0
0.736849 -0.054448 0
0.749204 -0.108456 0
0.762037 -0.152654 0
0.774830 -0.184937 0
0.788357 -0.203382 0
0.803987 -0.206158 0
0.822870 -0.192186 0
0.845276 -0.162077 0
0.870436 -0.118654 0
0.896853 -0.066661 0
0.922621 -0.012237 0
0.944705 0.038021 0
0.961127 0.079736 0
0.970841 0.111473 0
0.973195 0.133359 0
0.967840 0.146624 0
0.954915 0.152976 0
0.935422 0.153760 0
0.911537 0.149186 0
0.886481 0.138175 0
0.863757 0.119177 0
0.846108 0.091537 0
0.834825 0.056428 0
0.829795 0.016751 0
0.830031 -0.023722 0
0.834051 -0.061392 0
0.840537 -0.093510 0
0.848625 -0.118180 0
0.857917 -0.134098 0
0.868364 -0.140381 0
0.880053 -0.136591 0
0.892992 -0.122924 0
0.906947 -0.100409 0
0.921415 -0.070966 0
0.935677 -0.037249 0
0.948818 -0.002505 0
0.959409 0.029848 0
0.966299 0.057495 0
0.968346 0.073522 0
1.000000 -0.005660 0
0.994498 -0.017371 0
0.982464 -0.030578 0
0.961540 -0.047037 0
0.927121 -0.069543 0
0.870139 -0.103163 0
0.771264 -0.158880 0
0.588458 -0.254488 0
0.000000 -0.157399 0
0.000000 0.000000 0
0.000000 0.000000 0
-0.025971 -0.024611 0
-0.040331 -0.037464 0
-0.064434 0.012927 0
-0.091117 0.080666 0
-0.118431 0.111513 0
-0.132424 0.086347 0
-0.115011 0.008765 0
-0.067192 -0.094239 0
-0.007380 -0.179593 0
0.062549 -0.216930 0
0.147074 -0.201423 0
0.248183 -0.142419 0
0.355921 -0.056636 0
0.446582 0.028228 0
0.509099 0.098661 0
0.546107 0.158305 0
0.559361 0.208409 0
0.549973 0.248709 0
0.520697 0.278408 0
0.478443 0.294651 0
0.435266 0.291838 0
0.405347 0.263974 0
0.398802 0.209091 0
0.416982 0.131902 0
0.452662 0.042675 0
0.492046 -0.045212 0
0.524846 -0.122871 0
0.548206 -0.188138 0
0.563040 -0.239348 0
0.573321 -0.273345 0
0.585098 -0.285652 0
0.604554 -0.272087 0
0.635436 -0.231594 0
0.677439 -0.168317 0
0.726641 -0.091110 0
0.776428 -0.012141 0
0.817588 0.057196 0
0.846765 0.112782 0
0.863160 0.155893 0
0.866464 0.188406 0
0.856837 0.212421 0
0.835555 0.229369 0
0.806031 0.238664 0
0.774248 0.236908 0
0.747470 0.219205 0
0.731364 0.182528 0
0.727667 0.128563 0
0.734294 0.063503 0
0.747243 -0.004269 0
0.761849 -0.067065 0
0.774924 -0.120487 0
0.784872 -0.163072 0
0.791497 -0.194204 0
0.795949 -0.213028 0
0.800422 -0.218073 0
0.807402 -0.207749 0
0.818642 -0.181531 0
0.834440 -0.141067 0
0.853673 -0.090347 0
0.874372 -0.034891 0
0.893948 0.018997 0
0.909658 0.066261 0
0.919939 0.104642 0
0.923840 0.133813 0
0.920988 0.154443 0
0.911806 0.167376 0
0.897755 0.172848 0
0.881294 0.170079 0
0.865354 0.157667 0
0.852469 0.134671 0
0.844066 0.101705 0
0.840330 0.061234 0
0.840583 0.017002 0
0.843768 -0.026802 0
0.848622 -0.066541 0
0.854084 -0.099786 0
0.859474 -0.125097 0
0.864584 -0.141604 0
0.869665 -0.148718 0
0.875266 -0.146061 0
0.881949 -0.133648 0
0.889997 -0.112180 0
0.899256 -0.083246 0
0.909160 -0.049249 0
0.918851 -0.013126 0
0.927143 0.021879 0
0.932774 0.053413 0
0.934522 0.072350 0
1.000000 -0.002611 0
0.993929 -0.007656 0
0.980723 -0.012279 0
0.957932 -0.016154 0
0.920851 -0.018080 0
0.860790 -0.014197 0
0.761217 0.006898 0
0.588910 0.110403 0
0.274638 0.098468 0
0.000000 0.000000 0
0.000000 0.000000 0
0.000000 0.000000 0
-0.024567 0.028780 0
-0.104906 0.083758 0
-0.155874 0.125915 0
-0.182329 0.130270 0
-0.171306 0.072934 0
-0.124508 -0.032615 0
-0.077586 -0.144322 0
-0.042565 -0.231816 0
-0.012201 -0.279542 0
0.027618 -0.279560 0
0.083558 -0.234822 0
0.156039 -0.154876 0
0.235454 -0.055378 0
0.302320 0.042404 0
0.348358 0.127489 0
0.374697 0.200497 0
0.383606 0.260110 0
0.380399 0.301840 0
0.374370 0.318672 0
0.376664 0.303872 0
0.395738 0.255564 0
0.433611 0.179572 0
0.485547 0.087768 0
0.540528 -0.003985 0
0.585503 -0.083602 0
0.616727 -0.148995 0
0.633339 -0.201948 0
0.636072 -0.243427 0
0.627996 -0.273042 0
0.615072 -0.288202 0
0.605478 -0.284279 0
0.607007 -0.256930 0
0.623624 -0.205631 0
0.653785 -0.135520 0
0.691741 -0.055958 0
0.728993 0.021478 0
0.758039 0.088783 0
0.776393 0.144555 0
0.783342 0.189784 0
0.779587 0.225268 0
0.767718 0.250381 0
0.752441 0.262268 0
0.739723 0.256481 0
0.734674 0.229531 0
0.739456 0.181831 0
0.752906 0.118545 0
0.771876 0.047779 0
0.792493 -0.021428 0
0.810715 -0.082124 0
0.824365 -0.131474 0
0.832207 -0.169224 0
0.833911 -0.196012 0
0.830351 -0.212304 0
0.823805 -0.217609 0
0.817617 -0.210404 0
0.815132 -0.189114 0
0.818385 -0.153684 0
0.827401 -0.106592 0
0.840521 -0.052511 0
0.855245 0.002736 0
0.868574 0.053745 0
0.878459 0.097292 0
0.883751 0.132312 0
0.884141 0.158659 0
0.880247 0.176210 0
0.873605 0.184274 0
0.866337 0.181589 0
0.860507 0.167001 0
0.857474 0.140467 0
0.857622 0.103678 0
0.860560 0.059913 0