# vtk DataFile Version 2.0
generated by CFD-lab course output (written by Tobias Neckel) 
ASCII

DATASET STRUCTURED_GRID
DIMENSIONS  99 19 1 
POINTS 1881 float

0.000000 0.000000 0
0.100000 0.000000 0
0.200000 0.000000 0
0.300000 0.000000 0
0.400000 0.000000 0
0.500000 0.000000 0
0.600000 0.000000 0
0.700000 0.000000 0
0.800000 0.000000 0
0.900000 0.000000 0
1.000000 0.000000 0
1.100000 0.000000 0
1.200000 0.000000 0
1.300000 0.000000 0
1.400000 0.000000 0
1.500000 0.000000 0
1.600000 0.000000 0
1.700000 0.000000 0
1.800000 0.000000 0
1.900000 0.000000 0
2.000000 0.000000 0
2.100000 0.000000 0
2.200000 0.000000 0
2.300000 0.000000 0
2.400000 0.000000 0
2.500000 0.000000 0
2.600000 0.000000 0
2.700000 0.000000 0
2.800000 0.000000 0
2.900000 0.000000 0
3.000000 0.000000 0
3.100000 0.000000 0
3.200000 0.000000 0
3.300000 0.000000 0
3.400000 0.000000 0
3.500000 0.000000 0
3.600000 0.000000 0
3.700000 0.000000 0
3.800000 0.000000 0
3.900000 0.000000 0
4.000000 0.000000 0
4.100000 0.000000 0
4.200000 0.000000 0
4.300000 0.000000 0
4.400000 0.000000 0
4.500000 0.000000 0
4.600000 0.000000 0
4.700000 0.000000 0
4.800000 0.000000 0
4.900000 0.000000 0
5.000000 0.000000 0
5.100000 0.000000 0
5.200000 0.000000 0
5.300000 0.000000 0
5.400000 0.000000 0
5.500000 0.000000 0
5.600000 0.000000 0
5.700000 0.000000 0
5.800000 0.000000 0
5.900000 0.000000 0
6.000000 0.000000 0
6.100000 0.000000 0
6.200000 0.000000 0
6.300000 0.000000 0
6.400000 0.000000 0
6.500000 0.000000 0
6.600000 0.000000 0
6.700000 0.000000 0
6.800000 0.000000 0
6.900000 0.000000 0
7.000000 0.000000 0
7.100000 0.000000 0
7.200000 0.000000 0
7.300000 0.000000 0
7.400000 0.000000 0
7.500000 0.000000 0
7.600000 0.000000 0
7.700000 0.000000 0
7.800000 0.000000 0
7.900000 0.000000 0
8.000000 0.000000 0
8.100000 0.000000 0
8.200000 0.000000 0
8.300000 0.000000 0
8.400000 0.000000 0
8.500000 0.000000 0
8.600000 0.000000 0
8.700000 0.000000 0
8.800000 0.000000 0
8.900000 0.000000 0
9.000000 0.000000 0
9.100000 0.000000 0
9.200000 0.000000 0
9.300000 0.000000 0
9.400000 0.000000 0
9.500000 0.000000 0
9.600000 0.000000 0
9.700000 0.000000 0
9.800000 0.000000 0
0.000000 0.100000 0
0.100000 0.100000 0
0.200000 0.100000 0
0.300000 0.100000 0
0.400000 0.100000 0
0.500000 0.100000 0
0.600000 0.100000 0
0.700000 0.100000 0
0.800000 0.100000 0
0.900000 0.100000 0
1.000000 0.100000 0
1.100000 0.100000 0
1.200000 0.100000 0
1.300000 0.100000 0
1.400000 0.100000 0
1.500000 0.100000 0
1.600000 0.100000 0
1.700000 0.100000 0
1.800000 0.100000 0
1.900000 0.100000 0
2.000000 0.100000 0
2.100000 0.100000 0
2.200000 0.100000 0
2.300000 0.100000 0
2.400000 0.100000 0
2.500000 0.100000 0
2.600000 0.100000 0
2.700000 0.100000 0
2.800000 0.100000 0
2.900000 0.100000 0
3.000000 0.100000 0
3.100000 0.100000 0
3.200000 0.100000 0
3.300000 0.100000 0
3.400000 0.100000 0
3.500000 0.100000 0
3.600000 0.100000 0
3.700000 0.100000 0
3.800000 0.100000 0
3.900000 0.100000 0
4.000000 0.100000 0
4.100000 0.100000 0
4.200000 0.100000 0
4.300000 0.100000 0
4.400000 0.100000 0
4.500000 0.100000 0
4.600000 0.100000 0
4.700000 0.100000 0
4.800000 0.100000 0
4.900000 0.100000 0
5.000000 0.100000 0
5.100000 0.100000 0
5.200000 0.100000 0
5.300000 0.100000 0
5.400000 0.100000 0
5.500000 0.100000 0
5.600000 0.100000 0
5.700000 0.100000 0
5.800000 0.100000 0
5.900000 0.100000 0
6.000000 0.100000 0
6.100000 0.100000 0
6.200000 0.100000 0
6.300000 0.100000 0
6.400000 0.100000 0
6.500000 0.100000 0
6.600000 0.100000 0
6.700000 0.100000 0
6.800000 0.100000 0
6.900000 0.100000 0
7.000000 0.100000 0
7.100000 0.100000 0
7.200000 0.100000 0
7.300000 0.100000 0
7.400000 0.100000 0
7.500000 0.100000 0
7.600000 0.100000 0
7.700000 0.100000 0
7.800000 0.100000 0
7.900000 0.100000 0
8.000000 0.100000 0
8.100000 0.100000 0
8.200000 0.100000 0
8.300000 0.100000 0
8.400000 0.100000 0
8.500000 0.100000 0
8.600000 0.100000 0
8.700000 0.100000 0
8.800000 0.100000 0
8.900000 0.100000 0
9.000000 0.100000 0
9.100000 0.100000 0
9.200000 0.100000 0
9.300000 0.100000 0
9.400000 0.100000 0
9.500000 0.100000 0
9.600000 0.100000 0
9.700000 0.100000 0
9.800000 0.100000 0
0.000000 0.200000 0
0.100000 0.200000 0
0.200000 0.200000 0
0.300000 0.200000 0
0.400000 0.200000 0
0.500000 0.200000 0
0.600000 0.200000 0
0.700000 0.200000 0
0.800000 0.200000 0
0.900000 0.200000 0
1.000000 0.200000 0
1.100000 0.200000 0
1.200000 0.200000 0
1.300000 0.200000 0
1.400000 0.200000 0
1.500000 0.200000 0
1.600000 0.200000 0
1.700000 0.200000 0
1.800000 0.200000 0
1.900000 0.200000 0
2.000000 0.200000 0
2.100000 0.200000 0
2.200000 0.200000 0
2.300000 0.200000 0
2.400000 0.200000 0
2.500000 0.200000 0
2.600000 0.200000 0
2.700000 0.200000 0
2.800000 0.200000 0
2.900000 0.200000 0
3.000000 0.200000 0
3.100000 0.200000 0
3.200000 0.200000 0
3.300000 0.200000 0
3.400000 0.200000 0
3.500000 0.200000 0
3.600000 0.200000 0
3.700000 0.200000 0
3.800000 0.200000 0
3.900000 0.200000 0
4.000000 0.200000 0
4.100000 0.200000 0
4.200000 0.200000 0
4.300000 0.200000 0
4.400000 0.200000 0
4.500000 0.200000 0
4.600000 0.200000 0
4.700000 0.200000 0
4.800000 0.200000 0
4.900000 0.200000 0
5.000000 0.200000 0
5.100000 0.200000 0
5.200000 0.200000 0
5.300000 0.200000 0
5.400000 0.200000 0
5.500000 0.200000 0
5.600000 0.200000 0
5.700000 0.200000 0
5.800000 0.200000 0
5.900000 0.200000 0
6.000000 0.200000 0
6.100000 0.200000 0
6.200000 0.200000 0
6.300000 0.200000 0
6.400000 0.200000 0
6.500000 0.200000 0
6.600000 0.200000 0
6.700000 0.200000 0
6.800000 0.200000 0
6.900000 0.200000 0
7.000000 0.200000 0
7.100000 0.200000 0
7.200000 0.200000 0
7.300000 0.200000 0
7.400000 0.200000 0
7.500000 0.200000 0
7.600000 0.200000 0
7.700000 0.200000 0
7.800000 0.200000 0
7.900000 0.200000 0
8.000000 0.200000 0
8.100000 0.200000 0
8.200000 0.200000 0
8.300000 0.200000 0
8.400000 0.200000 0
8.500000 0.200000 0
8.600000 0.200000 0
8.700000 0.200000 0
8.800000 0.200000 0
8.900000 0.200000 0
9.000000 0.200000 0
9.100000 0.200000 0
9.200000 0.200000 0
9.300000 0.200000 0
9.400000 0.200000 0
9.500000 0.200000 0
9.600000 0.200000 0
9.700000 0.200000 0
9.800000 0.200000 0
0.000000 0.300000 0
0.100000 0.300000 0
0.200000 0.300000 0
0.300000 0.300000 0
0.400000 0.300000 0
0.500000 0.300000 0
0.600000 0.300000 0
0.700000 0.300000 0
0.800000 0.300000 0
0.900000 0.300000 0
1.000000 0.300000 0
1.100000 0.300000 0
1.200000 0.300000 0
1.300000 0.300000 0
1.400000 0.300000 0
1.500000 0.300000 0
1.600000 0.300000 0
1.700000 0.300000 0
1.800000 0.300000 0
1.900000 0.300000 0
2.000000 0.300000 0
2.100000 0.300000 0
2.200000 0.300000 0
2.300000 0.300000 0
2.400000 0.300000 0
2.500000 0.300000 0
2.600000 0.300000 0
2.700000 0.300000 0
2.800000 0.300000 0
2.900000 0.300000 0
3.000000 0.300000 0
3.100000 0.300000 0
3.200000 0.300000 0
3.300000 0.300000 0
3.400000 0.300000 0
3.500000 0.300000 0
3.600000 0.300000 0
3.700000 0.300000 0
3.800000 0.300000 0
3.900000 0.300000 0
4.000000 0.300000 0
4.100000 0.300000 0
4.200000 0.300000 0
4.300000 0.300000 0
4.400000 0.300000 0
4.500000 0.300000 0
4.600000 0.300000 0
4.700000 0.300000 0
4.800000 0.300000 0
4.900000 0.300000 0
5.000000 0.300000 0
5.100000 0.300000 0
5.200000 0.300000 0
5.300000 0.300000 0
5.400000 0.300000 0
5.500000 0.300000 0
5.600000 0.300000 0
5.700000 0.300000 0
5.800000 0.300000 0
5.900000 0.300000 0
6.000000 0.300000 0
6.100000 0.300000 0
6.200000 0.300000 0
6.300000 0.300000 0
6.400000 0.300000 0
6.500000 0.300000 0
6.600000 0.300000 0
6.700000 0.300000 0
6.800000 0.300000 0
6.900000 0.300000 0
7.000000 0.300000 0
7.100000 0.300000 0
7.200000 0.300000 0
7.300000 0.300000 0
7.400000 0.300000 0
7.500000 0.300000 0
7.600000 0.300000 0
7.700000 0.300000 0
7.800000 0.300000 0
7.900000 0.300000 0
8.000000 0.300000 0
8.100000 0.300000 0
8.200000 0.300000 0
8.300000 0.300000 0
8.400000 0.300000 0
8.500000 0.300000 0
8.600000 0.300000 0
8.700000 0.300000 0
8.800000 0.300000 0
8.900000 0.300000 0
9.000000 0.300000 0
9.100000 0.300000 0
9.200000 0.300000 0
9.300000 0.300000 0
9.400000 0.300000 0
9.500000 0.300000 0
9.600000 0.300000 0
9.700000 0.300000 0
9.800000 0.300000 0
0.000000 0.400000 0
0.100000 0.400000 0
0.200000 0.400000 0
0.300000 0.400000 0
0.400000 0.400000 0
0.500000 0.400000 0
0.600000 0.400000 0
0.700000 0.400000 0
0.800000 0.400000 0
0.900000 0.400000 0
1.000000 0.400000 0
1.100000 0.400000 0
1.200000 0.400000 0
1.300000 0.400000 0
1.400000 0.400000 0
1.500000 0.400000 0
1.600000 0.400000 0
1.700000 0.400000 0
1.800000 0.400000 0
1.900000 0.400000 0
2.000000 0.400000 0
2.100000 0.400000 0
2.200000 0.400000 0
2.300000 0.400000 0
2.400000 0.400000 0
2.500000 0.400000 0
2.600000 0.400000 0
2.700000 0.400000 0
2.800000 0.400000 0
2.900000 0.400000 0
3.000000 0.400000 0
3.100000 0.400000 0
3.200000 0.400000 0
3.300000 0.400000 0
3.400000 0.400000 0
3.500000 0.400000 0
3.600000 0.400000 0
3.700000 0.400000 0
3.800000 0.400000 0
3.900000 0.400000 0
4.000000 0.400000 0
4.100000 0.400000 0
4.200000 0.400000 0
4.300000 0.400000 0
4.400000 0.400000 0
4.500000 0.400000 0
4.600000 0.400000 0
4.700000 0.400000 0
4.800000 0.400000 0
4.900000 0.400000 0
5.000000 0.400000 0
5.100000 0.400000 0
5.200000 0.400000 0
5.300000 0.400000 0
5.400000 0.400000 0
5.500000 0.400000 0
5.600000 0.400000 0
5.700000 0.400000 0
5.800000 0.400000 0
5.900000 0.400000 0
6.000000 0.400000 0
6.100000 0.400000 0
6.200000 0.400000 0
6.300000 0.400000 0
6.400000 0.400000 0
6.500000 0.400000 0
6.600000 0.400000 0
6.700000 0.400000 0
6.800000 0.400000 0
6.900000 0.400000 0
7.000000 0.400000 0
7.100000 0.400000 0
7.200000 0.400000 0
7.300000 0.400000 0
7.400000 0.400000 0
7.500000 0.400000 0
7.600000 0.400000 0
7.700000 0.400000 0
7.800000 0.400000 0
7.900000 0.400000 0
8.000000 0.400000 0
8.100000 0.400000 0
8.200000 0.400000 0
8.300000 0.400000 0
8.400000 0.400000 0
8.500000 0.400000 0
8.600000 0.400000 0
8.700000 0.400000 0
8.800000 0.400000 0
8.900000 0.400000 0
9.000000 0.400000 0
9.100000 0.400000 0
9.200000 0.400000 0
9.300000 0.400000 0
9.400000 0.400000 0
[...]
POINT_DATA 1881 

VECTORS velocity float
0.500000 0.000000 0
0.502186 0.000000 0
0.506973 0.000000 0
0.514749 0.000000 0
0.525899 0.000000 0
0.540685 0.000000 0
0.559066 0.000000 0
0.580384 0.000000 0
0.603149 0.000000 0
0.624978 0.000000 0
0.643882 0.000000 0
0.658878 0.000000 0
0.669867 0.000000 0
0.677301 0.000000 0
0.681931 0.000000 0
0.684616 0.000000 0
0.686188 0.000000 0
0.687271 0.000000 0
0.688153 0.000000 0
0.688679 0.000000 0
0.688298 0.000000 0
0.686283 0.000000 0
0.682022 0.000000 0
0.675181 0.000000 0
0.665717 0.000000 0
0.653877 0.000000 0
0.640107 0.000000 0
0.624987 0.000000 0
0.609186 0.000000 0
0.593420 0.000000 0
0.578421 0.000000 0
0.564915 0.000000 0
0.553616 0.000000 0
0.545252 0.000000 0
0.540625 0.000000 0
0.540567 0.000000 0
0.545565 0.000000 0
0.555545 0.000000 0
0.569706 0.000000 0
0.586436 0.000000 0
0.603473 0.000000 0
0.618297 0.000000 0
0.628732 0.000000 0
0.633546 0.000000 0
0.632634 0.000000 0
0.626446 0.000000 0
0.615762 0.000000 0
0.601565 0.000000 0
0.584912 0.000000 0
0.566838 0.000000 0
0.548312 0.000000 0
0.530226 0.000000 0
0.513414 0.000000 0
0.498689 0.000000 0
0.486866 0.000000 0
0.478754 0.000000 0
0.475053 0.000000 0
0.476070 0.000000 0
0.481508 0.000000 0
0.490869 0.000000 0
0.503588 0.000000 0
0.519042 0.000000 0
0.536512 0.000000 0
0.555075 0.000000 0
0.573483 0.000000 0
0.590120 0.000000 0
0.603166 0.000000 0
0.611021 0.000000 0
0.612863 0.000000 0
0.608730 0.000000 0
0.599030 0.000000 0
0.584494 0.000000 0
0.566180 0.000000 0
0.545430 0.000000 0
0.523806 0.000000 0
0.502999 0.000000 0
0.484673 0.000000 0
0.470265 0.000000 0
0.460760 0.000000 0
0.456505 0.000000 0
0.457061 0.000000 0
0.461295 0.000000 0
0.468157 0.000000 0
0.476891 0.000000 0
0.487018 0.000000 0
0.498252 0.000000 0
0.510384 0.000000 0
0.523147 0.000000 0
0.536085 0.000000 0
0.548472 0.000000 0
0.559313 0.000000 0
0.567467 0.000000 0
0.571917 0.000000 0
0.572069 0.000000 0
0.567746 0.000000 0
0.558991 0.000000 0
0.546120 0.000000 0
0.529740 0.000000 0
0.510760 0.000000 0
1.000000 -0.002153 0
1.004940 -0.006918 0
1.015153 -0.012531 0
1.031344 -0.018901 0
1.054350 -0.025914 0
1.084900 -0.033155 0
1.123199 -0.039693 0
1.168168 -0.044082 0
1.216862 -0.044596 0
1.263249 -0.040736 0
1.302755 -0.033903 0
1.333587 -0.025989 0
1.355886 -0.018427 0
1.370830 -0.012063 0
1.380094 -0.007309 0
1.385544 -0.004236 0
1.388950 -0.002618 0
1.391729 -0.001928 0
1.394565 -0.001371 0
1.397095 -0.000110 0
1.397970 0.002419 0
1.395481 0.006285 0
1.388251 0.011117 0
1.375543 0.016325 0
1.357337 0.021317 0
1.334191 0.025623 0
1.307066 0.028900 0
1.277176 0.030927 0
1.245898 0.031569 0
1.214692 0.030765 0
1.185042 0.028502 0
1.158406 0.024801 0
1.136185 0.019657 0
1.119742 0.012984 0
1.110436 0.004678 0
1.109612 -0.004945 0
1.118377 -0.014983 0
1.137025 -0.024142 0
1.164448 -0.030884 0
1.197921 -0.033754 0
1.233309 -0.031843 0
1.265645 -0.025238 0
1.290113 -0.015225 0
1.303330 -0.003880 0
1.304286 0.007119 0
1.293967 0.016886 0
1.274139 0.024890 0
1.246948 0.030856 0
1.214635 0.034732 0
1.179364 0.036604 0
1.143129 0.036615 0
1.107750 0.034900 0
1.074888 0.031538 0
1.046073 0.026548 0
1.022672 0.019935 0
1.005777 0.011812 0
0.996076 0.002682 0
0.993821 -0.006456 0
0.998906 -0.014801 0
1.010943 -0.022082 0
1.029368 -0.028174 0
1.053490 -0.032925 0
1.082458 -0.036031 0
1.115076 -0.036966 0
1.149516 -0.035038 0
1.183135 -0.029674 0
1.212570 -0.020890 0
1.234194 -0.009686 0
1.244938 0.002301 0
1.243438 0.013843 0
1.230408 0.024243 0
1.207391 0.032854 0
1.176546 0.039067 0
1.140523 0.042374 0
1.102294 0.042430 0
1.064941 0.039132 0
1.031347 0.032732 0
1.003820 0.023912 0
0.983743 0.013758 0
0.971416 0.003698 0
0.966259 -0.004790 0
0.967224 -0.011097 0
0.973051 -0.015597 0
0.982715 -0.018860 0
0.995566 -0.021361 0
1.011280 -0.023367 0
1.029696 -0.024895 0
1.050561 -0.025701 0
1.073268 -0.025325 0
1.096672 -0.023228 0
1.119062 -0.018995 0
1.138278 -0.012603 0
1.151975 -0.004601 0
1.158082 0.004171 0
1.155518 0.013078 0
1.144409 0.021626 0
1.125541 0.029251 0
1.100291 0.035360 0
1.070540 0.038050 0
1.000000 -0.004887 0
1.005098 -0.015080 0
1.015318 -0.026371 0
1.031415 -0.039170 0
1.054534 -0.053537 0
1.086081 -0.068841 0
1.127254 -0.083263 0
1.177914 -0.093663 0
1.236007 -0.095082 0
1.289587 -0.085895 0
1.332341 -0.070342 0
1.363599 -0.053135 0
1.384819 -0.037243 0
1.397993 -0.024202 0
1.405283 -0.014691 0
1.408910 -0.008815 0
1.411037 -0.006138 0
1.413580 -0.005567 0
1.417684 -0.005326 0
1.422952 -0.003376 0
1.427239 0.001627 0
1.427870 0.009733 0
1.422955 0.019961 0
1.411660 0.030935 0
1.394153 0.041368 0
1.371212 0.050283 0
1.343979 0.057024 0
1.313787 0.061173 0
1.282080 0.062486 0
1.250361 0.060854 0
1.220127 0.056281 0
1.192799 0.048850 0
1.169656 0.038657 0
1.151827 0.025742 0
1.140341 0.010124 0
1.136303 -0.007947 0
1.141088 -0.027413 0
1.155562 -0.046063 0
1.179364 -0.060881 0
1.210848 -0.068840 0
1.247158 -0.067698 0
1.284123 -0.056775 0
1.316411 -0.037657 0
1.338555 -0.014149 0
1.347041 0.009380 0
1.342354 0.030157 0
1.326775 0.047027 0
1.302877 0.059510 0
1.273205 0.067589 0
1.240102 0.071510 0
1.205636 0.071617 0
1.171601 0.068243 0
1.139532 0.061678 0
1.110687 0.052217 0
1.085991 0.040297 0
1.065935 0.026595 0
1.050571 0.011955 0
1.039786 -0.002833 0
1.033698 -0.017124 0
1.032520 -0.030464 0
1.036566 -0.042548 0
1.046254 -0.053087 0
1.062076 -0.061580 0
1.084230 -0.067049 0
1.112104 -0.068048 0
1.143997 -0.063041 0
1.177119 -0.051046 0
1.207753 -0.032354 0
1.231602 -0.009232 0
1.244904 0.014539 0
1.246583 0.036053 0
1.237857 0.053865 0
1.220607 0.066869 0
1.197125 0.074251 0
1.169878 0.075580 0
1.141261 0.070946 0
1.113344 0.061119 0
1.087666 0.047602 0
1.065132 0.032402 0
1.046083 0.017483 0
1.030602 0.004193 0
1.018815 -0.006791 0
1.010590 -0.015491 0
1.005789 -0.022516 0
1.004558 -0.028566 0
1.007296 -0.034130 0
1.014495 -0.039281 0
1.026432 -0.043571 0
1.042864 -0.046111 0
1.062923 -0.045794 0
1.085172 -0.041605 0
1.107723 -0.032912 0
1.128311 -0.019804 0
1.144441 -0.003543 0
1.153956 0.013674 0
1.156130 0.029978 0
1.151524 0.044118 0
1.141330 0.055000 0
1.127146 0.059936 0
1.000000 -0.007215 0
1.004108 -0.022203 0
1.012615 -0.038847 0
1.026512 -0.058116 0
1.047488 -0.080584 0
1.078090 -0.105879 0
1.121552 -0.131528 0
1.180206 -0.152836 0
1.257469 -0.156268 0
1.321354 -0.137068 0
1.365020 -0.107916 0
1.392721 -0.078465 0
1.408836 -0.052814 0
1.416408 -0.032507 0
1.418020 -0.018192 0
1.416191 -0.009959 0
1.413535 -0.007269 0
1.412827 -0.008563 0
1.416473 -0.010743 0
1.424658 -0.009678 0
1.433935 -0.002507 0
1.439076 0.010582 0
1.436950 0.027337 0
1.426765 0.045129 0
1.409147 0.061770 0
1.385335 0.075797 0
1.356756 0.086324 0
1.324885 0.092823 0
1.291235 0.094992 0
1.257356 0.092714 0
1.224778 0.086062 0
1.194890 0.075269 0
1.168810 0.060628 0
1.147337 0.042299 0
1.131057 0.020202 0
1.120511 -0.005688 0
1.116542 -0.034231 0
1.120443 -0.062403 0
1.132862 -0.086155 0
1.154207 -0.101531 0
1.184346 -0.105102 0
1.221423 -0.094479 0
1.261004 -0.069651 0
1.296277 -0.034509 0
1.319809 0.003315 0
1.327582 0.037147 0
1.321800 0.064366 0
1.305556 0.084427 0
1.281800 0.097508 0
1.253134 0.104174 0
1.221769 0.105116 0
1.189529 0.101004 0
1.157880 0.092452 0
1.127945 0.080090 0
1.100507 0.064687 0
1.075975 0.047232 0
1.054344 0.028831 0
1.035193 0.010416 0
1.017969 -0.007536 0
1.002669 -0.024949 0
0.990692 -0.041904 0
0.984519 -0.058429 0
0.986572 -0.074000 0
0.998183 -0.086987 0
1.019033 -0.094797 0
1.047385 -0.094682 0
1.080590 -0.084640 0
1.115462 -0.064165 0
1.148422 -0.034848 0
1.175399 -0.001139 0
1.192610 0.031287 0
1.199569 0.058827 0
1.197392 0.079797 0
1.187666 0.093102 0
1.172163 0.098293 0
1.152597 0.095666 0
1.130484 0.086327 0
1.107080 0.072123 0
1.083420 0.055342 0
1.060319 0.038229 0
1.038299 0.022479 0
1.017618 0.008916 0
0.998670 -0.002571 0
0.982154 -0.012829 0
0.969283 -0.022867 0
0.961668 -0.033304 0
0.960563 -0.044032 0
0.966373 -0.054069 0
0.978572 -0.061815 0
0.995951 -0.065535 0
1.016938 -0.063795 0
1.039843 -0.055742 0
1.062986 -0.041319 0
1.084683 -0.021473 0
1.102993 0.001390 0
1.116032 0.024059 0
1.123400 0.044051 0
1.125581 0.059737 0
1.123441 0.067534 0
1.000000 -0.008967 0
1.002689 -0.027668 0
1.008425 -0.048774 0
1.018303 -0.074045 0
1.034462 -0.105118 0
1.060743 -0.142905 0
1.103564 -0.185381 0
1.170837 -0.229579 0
1.285526 -0.236229 0
1.355377 -0.193447 0
1.388463 -0.141708 0
1.403585 -0.096944 0
1.408779 -0.060914 0
1.406721 -0.033354 0
1.399412 -0.014443 0
1.388599 -0.004312 0
1.377219 -0.002764 0
1.368760 -0.008506 0
1.367648 -0.017166 0
1.377204 -0.020846 0
1.393849 -0.012780 0
1.408214 0.006733 0
1.412338 0.032275 0
1.405700 0.058740 0
1.390033 0.082799 0
1.367296 0.102673 0
1.339174 0.117472 0
1.307135 0.126691 0
1.272653 0.130012 0
1.237303 0.127309 0
1.202711 0.118746 0
1.170322 0.104817 0
1.141050 0.086210 0
1.115067 0.063495 0
1.091963 0.036953 0
1.070865 0.006579 0
1.050595 -0.027333 0
1.032378 -0.062369 0
1.021296 -0.094629 0
1.022668 -0.120308 0
1.039633 -0.134901 0
1.071718 -0.133427 0
1.115154 -0.112510 0
1.163454 -0.072958 0
1.207865 -0.021931 0
1.238908 0.028166 0
1.253135 0.069056 0
1.253597 0.099512 0
1.243420 0.120012 0
1.225370 0.131541 0
1.201835 0.135222 0
1.174825 0.132133 0
1.145985 0.123262 0
1.116603 0.109589 0
1.087529 0.092266 0
1.058981 0.072758 0
1.030389 0.052737 0
1.000766 0.033542 0
0.969859 0.015400 0
0.939409 -0.003184 0
0.913209 -0.024393 0
0.896073 -0.048962 0
0.891273 -0.075236 0
0.899022 -0.099502 0
0.917532 -0.117243 0
0.944302 -0.124591 0
0.976738 -0.119118 0
1.012306 -0.100185 0
1.048485 -0.069169 0
1.082534 -0.029651 0
1.110769 0.011880 0
1.130110 0.049081 0
1.140524 0.078770 0
1.142745 0.099480 0
1.137825 0.110649 0
1.126896 0.112625 0
1.111033 0.106637 0
1.091199 0.094666 0
1.068209 0.079164 0
1.042736 0.062605 0
1.015461 0.046894 0
0.987396 0.032838 0
0.960226 0.019972 0
0.936245 0.006871 0
0.917796 -0.008080 0
0.906657 -0.025410 0
0.903681 -0.043986 0
0.908495 -0.061580 0
0.919901 -0.075687 0
0.936377 -0.084159 0
0.956395 -0.085497 0
0.978542 -0.078960 0
1.001558 -0.064644 0
1.024309 -0.043549 0
1.045668 -0.017675 0
1.064044 0.009572 0
1.078022 0.034569 0
1.087374 0.054959 0
1.092186 0.065919 0
1.000000 -0.009883 0
1.000753 -0.030606 0
1.002476 -0.054459 0
1.005982 -0.084155 0
1.013201 -0.123026 0
1.028443 -0.174981 0
1.061129 -0.241623 0
1.128749 -0.334797 0
1.301672 -0.340809 0
1.345940 -0.240006 0
1.339514 -0.156118 0
1.328141 -0.098769 0
1.317070 -0.055923 0
1.303788 -0.023111 0
1.284487 -0.000049 0
1.260418 0.012246 0
1.235366 0.012571 0
1.213811 0.001001 0
1.200154 -0.019196 0
1.201815 -0.035872 0
1.221869 -0.033501 0
1.252196 -0.007901 0
1.275639 0.029853 0
1.283395 0.067435 0
1.279853 0.100174 0
1.267978 0.126655 0
1.249330 0.146483 0
1.224905 0.159342 0
1.195863 0.164822 0
1.163767 0.162655 0
1.130500 0.153042 0
1.097706 0.136931 0
1.065523 0.115883 0
1.031503 0.091388 0
0.991942 0.064413 0
0.945869 0.035691 0
0.897587 0.004269 0
0.855066 -0.033089 0
0.828171 -0.076430 0
0.822632 -0.119855 0
0.837694 -0.154144 0
0.870091 -0.169998 0
0.915951 -0.161389 0
0.970843 -0.127225 0
1.029147 -0.072140 0
1.082859 -0.008120 0
1.122226 0.049678 0
1.145468 0.094142 0
1.155150 0.125736 0
1.153676 0.145760 0
1.143261 0.155663 0
1.125875 0.156854 0
1.103143 0.150673 0
1.076151 0.138546 0
1.045187 0.122309 0
1.009732 0.104371 0
0.969261 0.087045 0
0.924930 0.070946 0
0.880825 0.053824 0
0.843132 0.031705 0
0.817161 0.001437 0
0.805163 -0.036486 0
0.806260 -0.076942 0
0.817808 -0.113238 0
0.837222 -0.140071 0
0.862584 -0.153883 0
0.892423 -0.152641 0
0.925345 -0.135912 0
0.959825 -0.105079 0
0.994141 -0.063427 0
1.026188 -0.016290 0
1.052462 0.029072 0
1.071063 0.067161 0
1.081808 0.095800 0
1.084980 0.114143 0
1.081064 0.122458 0
1.070569 0.122023 0
1.053949 0.114948 0
1.031635 0.103806 0
1.004280 0.090977 0
0.973220 0.077818 0
0.940847 0.064151 0
0.910491 0.048580 0
0.885630 0.029602 0
0.868719 0.006721 0
0.860444 -0.019188 0
0.860137 -0.045868 0
0.866433 -0.070288 0
0.877865 -0.089696 0
0.893155 -0.102029 0
0.911240 -0.105959 0
0.931200 -0.100905 0
0.952193 -0.087085 0
0.973416 -0.065583 0
0.994081 -0.038346 0
1.013300 -0.008295 0
1.029538 0.020722 0
1.041802 0.045573 0
1.049459 0.059769 0
1.000000 -0.009704 0
0.998440 -0.030127 0
0.995168 -0.054003 0
0.990135 -0.084771 0
0.983764 -0.127579 0
0.978173 -0.190834 0
0.980770 -0.285687 0
1.013684 -0.470121 0
1.206855 -0.453420 0
1.159298 -0.231287 0
1.073704 -0.123899 0
1.029669 -0.074478 0
1.007510 -0.036532 0
0.984522 -0.000750 0
0.950216 0.028939 0
0.905559 0.044813 0
0.856413 0.043837 0
0.812012 0.026698 0
0.782701 -0.005168 0
0.779958 -0.042548 0
0.811632 -0.063152 0
0.869757 -0.047036 0
0.938304 0.001078 0
0.994886 0.054525 0
1.029615 0.098215 0
1.049202 0.133196 0
1.056579 0.160543 0
1.052552 0.180157 0
1.038005 0.191150 0
1.013953 0.192671 0
0.981011 0.184807 0
0.938831 0.169795 0
0.886557 0.152415 0
0.824922 0.137083 0
0.758606 0.122597 0
0.696688 0.100945 0
0.650317 0.063485 0
0.626813 0.007062 0
0.624979 -0.062182 0
0.639117 -0.129822 0
0.664643 -0.182355 0
0.699574 -0.211685 0
0.743444 -0.213267 0
0.795578 -0.186156 0
0.853961 -0.133942 0
0.914754 -0.064911 0
0.970324 0.006447 0
1.012123 0.066588 0
1.039635 0.111804 0
1.054244 0.143431 0
1.057394 0.163024 0
1.050438 0.172251 0
1.034362 0.172985 0
1.009512 0.167545 0
0.975657 0.158685 0
0.932952 0.148683 0
0.883770 0.137538 0
0.833920 0.121981 0
0.791325 0.097202 0
0.762476 0.060485 0
0.749599 0.013582 0
0.750149 -0.038053 0
0.759281 -0.087874 0
0.773472 -0.130459 0
0.791106 -0.162014 0
0.811816 -0.179789 0
0.835686 -0.181878 0
0.862607 -0.167588 0
0.891929 -0.137967 0
0.922478 -0.096016 0
0.952725 -0.046443 0
0.980494 0.004204 0
1.002684 0.049425 0
1.018132 0.085563 0
1.026351 0.111393 0
1.027148 0.127036 0
1.020457 0.133751 0
1.006340 0.133600 0
0.985230 0.128833 0
0.958367 0.121019 0
0.928160 0.110327 0
0.898057 0.095566 0
0.871738 0.075190 0
0.852029 0.048643 0
0.840220 0.017106 0
0.836041 -0.016826 0
0.838068 -0.049973 0
0.844714 -0.079308 0
0.854750 -0.102409 0
0.867355 -0.117533 0
0.881996 -0.123541 0
0.898254 -0.119913 0
0.915684 -0.106860 0
0.933746 -0.085438 0
0.951798 -0.057558 0
0.969110 -0.025885 0
0.984634 0.006067 0
0.996917 0.035038 0
1.004754 0.052377 0
1.000000 -0.008310 0
0.996164 -0.025760 0
0.987841 -0.046155 0
0.973698 -0.072754 0
0.951426 -0.111067 0
0.917338 -0.171987 0
0.865817 -0.277134 0
0.793065 -0.560882 0
0.555534 -0.388717 0
0.498698 0.000000 0
0.431100 -0.017327 0
0.375757 -0.032548 0
0.377366 -0.010754 0
0.387202 0.034197 0
0.370460 0.078920 0
0.328853 0.106046 0
0.279467 0.106112 0
0.241460 0.074709 0
0.234199 0.012868 0
0.264792 -0.064793 0
0.324707 -0.123297 0
0.405555 -0.134571 0
0.505247 -0.095276 0
0.610265 -0.023877 0
0.698184 0.045856 0
0.758929 0.099690 0
0.797684 0.143132 0
0.816930 0.177916 0
0.817484 0.203421 0
0.799571 0.219649 0
0.763013 0.228166 0
0.708552 0.231387 0
0.640808 0.229797 0
0.570796 0.219348 0
0.513811 0.192658 0
0.482217 0.143993 0
0.479137 0.074159 0
0.498293 -0.007737 0
0.526264 -0.088723 0
0.553692 -0.159513 0
0.579231 -0.214600 0
0.605631 -0.248803 0
0.636876 -0.257397 0
0.676055 -0.237740 0
0.723839 -0.191314 0
0.778150 -0.124482 0
0.834757 -0.047689 0
0.885281 0.024832 0
0.923375 0.083615 0
0.948679 0.128000 0
0.961453 0.159469 0
0.962053 0.179887 0
0.950670 0.191599 0
0.927442 0.197250 0
0.893280 0.198869 0
0.851287 0.196258 0
0.807567 0.186079 0
0.769872 0.163395 0
0.744346 0.125273 0
0.732935 0.073437 0
0.733541 0.013771 0
0.741893 -0.046161 0
0.753589 -0.100260 0
0.766076 -0.145058 0
0.778596 -0.178410 0
0.791700 -0.198461 0
0.806620 -0.203434 0
0.824504 -0.192156 0
0.845754 -0.164951 0
0.869779 -0.124223 0
0.895242 -0.074307 0
0.920391 -0.020888 0
0.942503 0.029523 0
0.959379 0.072133 0
0.969881 0.105126 0
0.973288 0.128351 0
0.969194 0.142831 0
0.957645 0.150175 0
0.939488 0.151779 0
0.916675 0.148047 0
0.892209 0.138127 0
0.869485 0.120574 0
0.851310 0.094609 0
0.839168 0.061120 0
0.833165 0.022710 0
0.832478 -0.017035 0
0.835761 -0.054540 0
0.841696 -0.086970 0
0.849368 -0.112337 0
0.858310 -0.129275 0
0.868407 -0.136858 0
0.879711 -0.134592 0
0.892230 -0.122576 0
0.905765 -0.101697 0
0.919856 -0.073710 0
0.933815 -0.041131 0
0.946761 -0.007085 0
0.957333 0.025453 0
0.963954 0.045646 0
1.000000 -0.005858 0
0.994505 -0.017959 0
0.982486 -0.031539 0
0.961583 -0.048358 0
0.927191 -0.071222 0
0.870246 -0.105226 0
0.771384 -0.161415 0
0.588527 -0.257541 0
0.000000 -0.159051 0
0.000000 0.000000 0
0.000000 0.000000 0
-0.025524 -0.028925 0
-0.040081 -0.047962 0
-0.057456 0.006165 0
-0.078245 0.087290 0
-0.105074 0.135802 0
-0.126444 0.131226 0
-0.124311 0.071970 0
-0.086401 -0.028491 0
-0.029104 -0.133052 0
0.033946 -0.203912 0
0.105637 -0.227574 0
0.190518 -0.203634 0
0.290991 -0.138414 0
0.395461 -0.050450 0
0.481584 0.033696 0
0.540236 0.102542 0
0.574426 0.160356 0
0.585727 0.208508 0
0.575140 0.247143 0
0.545274 0.275828 0
0.502792 0.292004 0
0.459394 0.290179 0
0.428934 0.264091 0
0.421383 0.211188 0
0.438132 0.135634 0
0.472138 0.047424 0
0.510324 -0.040053 0
0.542350 -0.117573 0
0.565205 -0.182785 0
0.579536 -0.234297 0
0.588951 -0.269333 0
0.599187 -0.283690 0
0.616351 -0.273116 0
0.644437 -0.236037 0
0.683574 -0.175829 0
0.730269 -0.100684 0
0.778626 -0.022028 0
0.819783 0.048407 0
0.849632 0.105353 0
0.867187 0.149649 0
0.872051 0.183034 0
0.864275 0.207597 0
0.844912 0.224934 0
0.816971 0.234840 0
0.785950 0.234399 0
0.758810 0.218956 0
0.741346 0.185206 0
0.735786 0.134144 0
0.740582 0.071297 0
0.752104 0.004632 0
0.765947 -0.058095 0
0.778824 -0.112051 0
0.788966 -0.155460 0
0.795948 -0.187635 0
0.800647 -0.207813 0
0.805011 -0.214684 0
0.811408 -0.206723 0
0.821660 -0.183242 0
0.836277 -0.145505 0
0.854383 -0.097056 0
0.874197 -0.043057 0
0.893410 0.010436 0
0.909249 0.058185 0
0.920051 0.097484 0
0.924791 0.127722 0
0.923003 0.149393 0
0.914963 0.163306 0
0.901926 0.169804 0
0.886133 0.168298 0
0.870376 0.157517 0
0.857194 0.136466 0
0.848148 0.105508 0
0.843614 0.066789 0
0.843079 0.023798 0
0.845595 -0.019421 0
0.849984 -0.059191 0
0.855181 -0.092914 0
0.860461 -0.119022 0
0.865535 -0.136571 0
0.870561 -0.144941 0
0.876013 -0.143736 0
0.882427 -0.132914 0
0.890109 -0.113063 0
0.898962 -0.085608 0
0.908468 -0.052791 0
0.917784 -0.017450 0
0.925753 0.017846 0
0.930734 0.040375 0
1.000000 -0.002809 0
0.993915 -0.008242 0
0.980686 -0.013236 0
0.957862 -0.017462 0
0.920730 -0.019732 0
0.860575 -0.016180 0
0.760832 0.004585 0
0.588203 0.107494 0
0.273786 0.096802 0
0.000000 0.000000 0
0.000000 0.000000 0
0.000000 0.000000 0
-0.028263 0.021849 0
-0.107769 0.072369 0
-0.153208 0.126537 0
-0.176428 0.154240 0
-0.171649 0.125348 0
-0.127336 0.034675 0
-0.070439 -0.082333 0
-0.026073 -0.185138 0
0.005727 -0.258036 0
0.036620 -0.291143 0
0.076056 -0.280631 0
0.131331 -0.228822 0
0.202092 -0.144738 0
0.278106 -0.045086 0
0.340859 0.050289 0
0.383531 0.132426 0
0.407139 0.202709 0
0.413732 0.260103 0
0.408470 0.300516 0
0.400464 0.317273 0
0.400697 0.303664 0
0.417597 0.257369 0
0.453258 0.183472 0
0.503056 0.093253 0
0.556723 0.001981 0
0.601280 -0.077939 0
0.632614 -0.143597 0
0.649746 -0.196698 0
0.653214 -0.238349 0
0.645725 -0.268454 0
0.632763 -0.284794 0
0.622116 -0.282988 0
0.621558 -0.258536 0
0.635477 -0.210314 0
0.662964 -0.142741 0
0.698803 -0.064682 0
0.735234 0.012609 0
0.764435 0.080597 0
0.783565 0.137050 0
0.791708 0.182798 0
0.789308 0.218738 0
0.778578 0.244555 0
0.763787 0.257832 0
0.750593 0.254421 0
0.744141 0.230687 0
0.746973 0.186424 0
0.758410 0.126044 0
0.775653 0.057126 0
0.795162 -0.011587 0
0.812994 -0.072874 0
0.826830 -0.123273 0
0.835309 -0.162178 0
0.837928 -0.190089 0
0.835307 -0.207525 0
0.829412 -0.214197 0
0.823322 -0.208806 0
0.820299 -0.189821 0
0.822533 -0.156947 0
0.830361 -0.112227 0
0.842424 -0.059915 0
0.856447 -0.005529 0
0.869579 0.045492 0
0.879683 0.089583 0
0.885513 0.125398 0
0.886629 0.152658 0
0.883476 0.171252 0
0.877393 0.180610 0
0.870349 0.179596 0
0.864362 0.167067 0
0.860864 0.142803 0
0.860377 0.108189 0