# vtk DataFile Version 2.0
generated by CFD-lab course output (written by Tobias Neckel) 
ASCII

DATASET STRUCTURED_GRID
DIMENSIONS  99 19 1 
POINTS 1881 float

0.000000 0.000000 0
0.100000 0.000000 0
0.200000 0.000000 0
0.300000 0.000000 0
0.400000 0.000000 0
0.500000 0.000000 0
0.600000 0.000000 0
0.700000 0.000000 0
0.800000 0.000000 0
0.900000 0.000000 0
1.000000 0.000000 0
1.100000 0.000000 0
1.200000 0.000000 0
1.300000 0.000000 0
1.400000 0.000000 0
1.500000 0.000000 0
1.600000 0.000000 0
1.700000 0.000000 0
1.800000 0.000000 0
1.900000 0.000000 0
2.000000 0.000000 0
2.100000 0.000000 0
2.200000 0.000000 0
2.300000 0.000000 0
2.400000 0.000000 0
2.500000 0.000000 0
2.600000 0.000000 0
2.700000 0.000000 0
2.800000 0.000000 0
2.900000 0.000000 0
3.000000 0.000000 0
3.100000 0.000000 0
3.200000 0.000000 0
3.300000 0.000000 0
3.400000 0.000000 0
3.500000 0.000000 0
3.600000 0.000000 0
3.700000 0.000000 0
3.800000 0.000000 0
3.900000 0.000000 0
4.000000 0.000000 0
4.100000 0.000000 0
4.200000 0.000000 0
4.300000 0.000000 0
4.400000 0.000000 0
4.500000 0.000000 0
4.600000 0.000000 0
4.700000 0.000000 0
4.800000 0.000000 0
4.900000 0.000000 0
5.000000 0.000000 0
5.100000 0.000000 0
5.200000 0.000000 0
5.300000 0.000000 0
5.400000 0.000000 0
5.500000 0.000000 0
5.600000 0.000000 0
5.700000 0.000000 0
5.800000 0.000000 0
5.900000 0.000000 0
6.000000 0.000000 0
6.100000 0.000000 0
6.200000 0.000000 0
6.300000 0.000000 0
6.400000 0.000000 0
6.500000 0.000000 0
6.600000 0.000000 0
6.700000 0.000000 0
6.800000 0.000000 0
6.900000 0.000000 0
7.000000 0.000000 0
7.100000 0.000000 0
7.200000 0.000000 0
7.300000 0.000000 0
7.400000 0.000000 0
7.500000 0.000000 0
7.600000 0.000000 0
7.700000 0.000000 0
7.800000 0.000000 0
7.900000 0.000000 0
8.000000 0.000000 0
8.100000 0.000000 0
8.200000 0.000000 0
8.300000 0.000000 0
8.400000 0.000000 0
8.500000 0.000000 0
8.600000 0.000000 0
8.700000 0.000000 0
8.800000 0.000000 0
8.900000 0.000000 0
9.000000 0.000000 0
9.100000 0.000000 0
9.200000 0.000000 0
9.300000 0.000000 0
9.400000 0.000000 0
9.500000 0.000000 0
9.600000 0.000000 0
9.700000 0.000000 0
9.800000 0.000000 0
0.000000 0.100000 0
0.100000 0.100000 0
0.200000 0.100000 0
0.300000 0.100000 0
0.400000 0.100000 0
0.500000 0.100000 0
0.600000 0.100000 0
0.700000 0.100000 0
0.800000 0.100000 0
0.900000 0.100000 0
1.000000 0.100000 0
1.100000 0.100000 0
1.200000 0.100000 0
1.300000 0.100000 0
1.400000 0.100000 0
1.500000 0.100000 0
1.600000 0.100000 0
1.700000 0.100000 0
1.800000 0.100000 0
1.900000 0.100000 0
2.000000 0.100000 0
2.100000 0.100000 0
2.200000 0.100000 0
2.300000 0.100000 0
2.400000 0.100000 0
2.500000 0.100000 0
2.600000 0.100000 0
2.700000 0.100000 0
2.800000 0.100000 0
2.900000 0.100000 0
3.000000 0.100000 0
3.100000 0.100000 0
3.200000 0.100000 0
3.300000 0.100000 0
3.400000 0.100000 0
3.500000 0.100000 0
3.600000 0.100000 0
3.700000 0.100000 0
3.800000 0.100000 0
3.900000 0.100000 0
4.000000 0.100000 0
4.100000 0.100000 0
4.200000 0.100000 0
4.300000 0.100000 0
4.400000 0.100000 0
4.500000 0.100000 0
4.600000 0.100000 0
4.700000 0.100000 0
4.800000 0.100000 0
4.900000 0.100000 0
5.000000 0.100000 0
5.100000 0.100000 0
5.200000 0.100000 0
5.300000 0.100000 0
5.400000 0.100000 0
5.500000 0.100000 0
5.600000 0.100000 0
5.700000 0.100000 0
5.800000 0.100000 0
5.900000 0.100000 0
6.000000 0.100000 0
6.100000 0.100000 0
6.200000 0.100000 0
6.300000 0.100000 0
6.400000 0.100000 0
6.500000 0.100000 0
6.600000 0.100000 0
6.700000 0.100000 0
6.800000 0.100000 0
6.900000 0.100000 0
7.000000 0.100000 0
7.100000 0.100000 0
7.200000 0.100000 0
7.300000 0.100000 0
7.400000 0.100000 0
7.500000 0.100000 0
7.600000 0.100000 0
7.700000 0.100000 0
7.800000 0.100000 0
7.900000 0.100000 0
8.000000 0.100000 0
8.100000 0.100000 0
8.200000 0.100000 0
8.300000 0.100000 0
8.400000 0.100000 0
8.500000 0.100000 0
8.600000 0.100000 0
8.700000 0.100000 0
8.800000 0.100000 0
8.900000 0.100000 0
9.000000 0.100000 0
9.100000 0.100000 0
9.200000 0.100000 0
9.300000 0.100000 0
9.400000 0.100000 0
9.500000 0.100000 0
9.600000 0.100000 0
9.700000 0.100000 0
9.800000 0.100000 0
0.000000 0.200000 0
0.100000 0.200000 0
0.200000 0.200000 0
0.300000 0.200000 0
0.400000 0.200000 0
0.500000 0.200000 0
0.600000 0.200000 0
0.700000 0.200000 0
0.800000 0.200000 0
0.900000 0.200000 0
1.000000 0.200000 0
1.100000 0.200000 0
1.200000 0.200000 0
1.300000 0.200000 0
1.400000 0.200000 0
1.500000 0.200000 0
1.600000 0.200000 0
1.700000 0.200000 0
1.800000 0.200000 0
1.900000 0.200000 0
2.000000 0.200000 0
2.100000 0.200000 0
2.200000 0.200000 0
2.300000 0.200000 0
2.400000 0.200000 0
2.500000 0.200000 0
2.600000 0.200000 0
2.700000 0.200000 0
2.800000 0.200000 0
2.900000 0.200000 0
3.000000 0.200000 0
3.100000 0.200000 0
3.200000 0.200000 0
3.300000 0.200000 0
3.400000 0.200000 0
3.500000 0.200000 0
3.600000 0.200000 0
3.700000 0.200000 0
3.800000 0.200000 0
3.900000 0.200000 0
4.000000 0.200000 0
4.100000 0.200000 0
4.200000 0.200000 0
4.300000 0.200000 0
4.400000 0.200000 0
4.500000 0.200000 0
4.600000 0.200000 0
4.700000 0.200000 0
4.800000 0.200000 0
4.900000 0.200000 0
5.000000 0.200000 0
5.100000 0.200000 0
5.200000 0.200000 0
5.300000 0.200000 0
5.400000 0.200000 0
5.500000 0.200000 0
5.600000 0.200000 0
5.700000 0.200000 0
5.800000 0.200000 0
5.900000 0.200000 0
6.000000 0.200000 0
6.100000 0.200000 0
6.200000 0.200000 0
6.300000 0.200000 0
6.400000 0.200000 0
6.500000 0.200000 0
6.600000 0.200000 0
6.700000 0.200000 0
6.800000 0.200000 0
6.900000 0.200000 0
7.000000 0.200000 0
7.100000 0.200000 0
7.200000 0.200000 0
7.300000 0.200000 0
7.400000 0.200000 0
7.500000 0.200000 0
7.600000 0.200000 0
7.700000 0.200000 0
7.800000 0.200000 0
7.900000 0.200000 0
8.000000 0.200000 0
8.100000 0.200000 0
8.200000 0.200000 0
8.300000 0.200000 0
8.400000 0.200000 0
8.500000 0.200000 0
8.600000 0.200000 0
8.700000 0.200000 0
8.800000 0.200000 0
8.900000 0.200000 0
9.000000 0.200000 0
9.100000 0.200000 0
9.200000 0.200000 0
9.300000 0.200000 0
9.400000 0.200000 0
9.500000 0.200000 0
9.600000 0.200000 0
9.700000 0.200000 0
9.800000 0.200000 0
0.000000 0.300000 0
0.100000 0.300000 0
0.200000 0.300000 0
0.300000 0.300000 0
0.400000 0.300000 0
0.500000 0.300000 0
0.600000 0.300000 0
0.700000 0.300000 0
0.800000 0.300000 0
0.900000 0.300000 0
1.000000 0.300000 0
1.100000 0.300000 0
1.200000 0.300000 0
1.300000 0.300000 0
1.400000 0.300000 0
1.500000 0.300000 0
1.600000 0.300000 0
1.700000 0.300000 0
1.800000 0.300000 0
1.900000 0.300000 0
2.000000 0.300000 0
2.100000 0.300000 0
2.200000 0.300000 0
2.300000 0.300000 0
2.400000 0.300000 0
2.500000 0.300000 0
2.600000 0.300000 0
2.700000 0.300000 0
2.800000 0.300000 0
2.900000 0.300000 0
3.000000 0.300000 0
3.100000 0.300000 0
3.200000 0.300000 0
3.300000 0.300000 0
3.400000 0.300000 0
3.500000 0.300000 0
3.600000 0.300000 0
3.700000 0.300000 0
3.800000 0.300000 0
3.900000 0.300000 0
4.000000 0.300000 0
4.100000 0.300000 0
4.200000 0.300000 0
4.300000 0.300000 0
4.400000 0.300000 0
4.500000 0.300000 0
4.600000 0.300000 0
4.700000 0.300000 0
4.800000 0.300000 0
4.900000 0.300000 0
5.000000 0.300000 0
5.100000 0.300000 0
5.200000 0.300000 0
5.300000 0.300000 0
5.400000 0.300000 0
5.500000 0.300000 0
5.600000 0.300000 0
5.700000 0.300000 0
5.800000 0.300000 0
5.900000 0.300000 0
6.000000 0.300000 0
6.100000 0.300000 0
6.200000 0.300000 0
6.300000 0.300000 0
6.400000 0.300000 0
6.500000 0.300000 0
6.600000 0.300000 0
6.700000 0.300000 0
6.800000 0.300000 0
6.900000 0.300000 0
7.000000 0.300000 0
7.100000 0.300000 0
7.200000 0.300000 0
7.300000 0.300000 0
7.400000 0.300000 0
7.500000 0.300000 0
7.600000 0.300000 0
7.700000 0.300000 0
7.800000 0.300000 0
7.900000 0.300000 0
8.000000 0.300000 0
8.100000 0.300000 0
8.200000 0.300000 0
8.300000 0.300000 0
8.400000 0.300000 0
8.500000 0.300000 0
8.600000 0.300000 0
8.700000 0.300000 0
8.800000 0.300000 0
8.900000 0.300000 0
9.000000 0.300000 0
9.100000 0.300000 0
9.200000 0.300000 0
9.300000 0.300000 0
9.400000 0.300000 0
9.500000 0.300000 0
9.600000 0.300000 0
9.700000 0.300000 0
9.800000 0.300000 0
0.000000 0.400000 0
0.100000 0.400000 0
0.200000 0.400000 0
0.300000 0.400000 0
0.400000 0.400000 0
0.500000 0.400000 0
0.600000 0.400000 0
0.700000 0.400000 0
0.800000 0.400000 0
0.900000 0.400000 0
1.000000 0.400000 0
1.100000 0.400000 0
1.200000 0.400000 0
1.300000 0.400000 0
1.400000 0.400000 0
1.500000 0.400000 0
1.600000 0.400000 0
1.700000 0.400000 0
1.800000 0.400000 0
1.900000 0.400000 0
2.000000 0.400000 0
2.100000 0.400000 0
2.200000 0.400000 0
2.300000 0.400000 0
2.400000 0.400000 0
2.500000 0.400000 0
2.600000 0.400000 0
2.700000 0.400000 0
2.800000 0.400000 0
2.900000 0.400000 0
3.000000 0.400000 0
3.100000 0.400000 0
3.200000 0.400000 0
3.300000 0.400000 0
3.400000 0.400000 0
3.500000 0.400000 0
3.600000 0.400000 0
3.700000 0.400000 0
3.800000 0.400000 0
3.900000 0.400000 0
4.000000 0.400000 0
4.100000 0.400000 0
4.200000 0.400000 0
4.300000 0.400000 0
4.400000 0.400000 0
4.500000 0.400000 0
4.600000 0.400000 0
4.700000 0.400000 0
4.800000 0.400000 0
4.900000 0.400000 0
5.000000 0.400000 0
5.100000 0.400000 0
5.200000 0.400000 0
5.300000 0.400000 0
5.400000 0.400000 0
5.500000 0.400000 0
5.600000 0.400000 0
5.700000 0.400000 0
5.800000 0.400000 0
5.900000 0.400000 0
6.000000 0.400000 0
6.100000 0.400000 0
6.200000 0.400000 0
6.300000 0.400000 0
6.400000 0.400000 0
6.500000 0.400000 0
6.600000 0.400000 0
6.700000 0.400000 0
6.800000 0.400000 0
6.900000 0.400000 0
7.000000 0.400000 0
7.100000 0.400000 0
7.200000 0.400000 0
7.300000 0.400000 0
7.400000 0.400000 0
7.500000 0.400000 0
7.600000 0.400000 0
7.700000 0.400000 0
7.800000 0.400000 0
7.900000 0.400000 0
8.000000 0.400000 0
8.100000 0.400000 0
8.200000 0.400000 0
8.300000 0.400000 0
8.400000 0.400000 0
8.500000 0.400000 0
8.600000 0.400000 0
8.700000 0.400000 0
8.800000 0.400000 0
8.900000 0.400000 0
9.000000 0.400000 0
9.100000 0.400000 0
9.200000 0.400000 0
9.300000 0.400000 0
9.400000 0.400000 0
[...]
POINT_DATA 1881 

VECTORS velocity float
0.500000 0.000000 0
0.502248 0.000000 0
0.507252 0.000000 0
0.515409 0.000000 0
0.527103 0.000000 0
0.542610 0.000000 0
0.561867 0.000000 0
0.584189 0.000000 0
0.607998 0.000000 0
0.630765 0.000000 0
0.650317 0.000000 0
0.665461 0.000000 0
0.675827 0.000000 0
0.681548 0.000000 0
0.683065 0.000000 0
0.681031 0.000000 0
0.676245 0.000000 0
0.669624 0.000000 0
0.662173 0.000000 0
0.654909 0.000000 0
0.648778 0.000000 0
0.644574 0.000000 0
0.642830 0.000000 0
0.643715 0.000000 0
0.646792 0.000000 0
0.651000 0.000000 0
0.654876 0.000000 0
0.657000 0.000000 0
0.656382 0.000000 0
0.652527 0.000000 0
0.645390 0.000000 0
0.635261 0.000000 0
0.622646 0.000000 0
0.608170 0.000000 0
0.592511 0.000000 0
0.576371 0.000000 0
0.560464 0.000000 0
0.545510 0.000000 0
0.532237 0.000000 0
0.521406 0.000000 0
0.513853 0.000000 0
0.510495 0.000000 0
0.512092 0.000000 0
0.518905 0.000000 0
0.530703 0.000000 0
0.546694 0.000000 0
0.565496 0.000000 0
0.585188 0.000000 0
0.603465 0.000000 0
0.617983 0.000000 0
0.626915 0.000000 0
0.629519 0.000000 0
0.626036 0.000000 0
0.617109 0.000000 0
0.603665 0.000000 0
0.586832 0.000000 0
0.567821 0.000000 0
0.547842 0.000000 0
0.528048 0.000000 0
0.509513 0.000000 0
0.493236 0.000000 0
0.480142 0.000000 0
0.471044 0.000000 0
0.466531 0.000000 0
0.466724 0.000000 0
0.471086 0.000000 0
0.478926 0.000000 0
0.489619 0.000000 0
0.502648 0.000000 0
0.517548 0.000000 0
0.533802 0.000000 0
0.550699 0.000000 0
0.567200 0.000000 0
0.581917 0.000000 0
0.593261 0.000000 0
0.599832 0.000000 0
0.600890 0.000000 0
0.596396 0.000000 0
0.586630 0.000000 0
0.572205 0.000000 0
0.554099 0.000000 0
0.533655 0.000000 0
0.512547 0.000000 0
0.492643 0.000000 0
0.475767 0.000000 0
0.463367 0.000000 0
0.456229 0.000000 0
0.454304 0.000000 0
0.456635 0.000000 0
0.461956 0.000000 0
0.469284 0.000000 0
0.477970 0.000000 0
0.487637 0.000000 0
0.498064 0.000000 0
0.509061 0.000000 0
0.520337 0.000000 0
0.531365 0.000000 0
0.541277 0.000000 0
0.548265 0.000000 0
1.000000 -0.002270 0
1.005059 -0.007282 0
1.015705 -0.013168 0
1.032648 -0.019850 0
1.056745 -0.027199 0
1.088747 -0.034769 0
1.128838 -0.041584 0
1.175873 -0.046130 0
1.226768 -0.046579 0
1.275167 -0.042328 0
1.316142 -0.034709 0
1.347502 -0.025526 0
1.368864 -0.016108 0
1.380713 -0.007260 0
1.384009 0.000493 0
1.380077 0.006794 0
1.370525 0.011378 0
1.357235 0.014042 0
1.342279 0.014688 0
1.327778 0.013369 0
1.315716 0.010317 0
1.307745 0.005940 0
1.305033 0.000857 0
1.308000 -0.003956 0
1.315870 -0.007275 0
1.326437 -0.008074 0
1.336466 -0.005994 0
1.342701 -0.001508 0
1.342915 0.004465 0
1.336184 0.010987 0
1.322556 0.017263 0
1.302764 0.022738 0
1.277923 0.027083 0
1.249342 0.030126 0
1.218405 0.031787 0
1.186530 0.032033 0
1.155146 0.030846 0
1.125687 0.028211 0
1.099588 0.024086 0
1.078277 0.018365 0
1.063159 0.010893 0
1.055559 0.001743 0
1.056636 -0.008428 0
1.067176 -0.018627 0
1.087220 -0.027803 0
1.115778 -0.034802 0
1.150773 -0.038499 0
1.189114 -0.037971 0
1.226800 -0.032794 0
1.259263 -0.023447 0
1.282154 -0.011532 0
1.292520 0.000881 0
1.289842 0.012409 0
1.275495 0.022366 0
1.251505 0.030270 0
1.220267 0.035837 0
1.184314 0.038981 0
1.146143 0.039763 0
1.108106 0.038319 0
1.072347 0.034802 0
1.040758 0.029361 0
1.014905 0.022181 0
0.995890 0.013600 0
0.984215 0.004309 0
0.979801 -0.004566 0
0.982175 -0.012213 0
0.990624 -0.018544 0
1.004459 -0.023733 0
1.023108 -0.027938 0
1.046089 -0.031161 0
1.072854 -0.033156 0
1.102498 -0.033402 0
1.133464 -0.031220 0
1.163430 -0.026062 0
1.189438 -0.017915 0
1.208295 -0.007629 0
1.217264 0.003435 0
1.215077 0.014258 0
1.202245 0.024187 0
1.180075 0.032527 0
1.150553 0.038544 0
1.116264 0.041546 0
1.080232 0.041007 0
1.045633 0.036775 0
1.015366 0.029271 0
0.991563 0.019535 0
0.975236 0.009061 0
0.966263 -0.000409 0
0.963799 -0.007656 0
0.966603 -0.012652 0
0.973422 -0.016017 0
0.983336 -0.018356 0
0.995813 -0.020096 0
1.010605 -0.021426 0
1.027555 -0.022275 0
1.046347 -0.022305 0
1.066275 -0.020941 0
1.086116 -0.016900 0
1.103653 -0.013010 0
1.000000 -0.005089 0
1.005221 -0.015739 0
1.015874 -0.027590 0
1.032713 -0.041036 0
1.056935 -0.056103 0
1.089969 -0.072102 0
1.133030 -0.087128 0
1.185913 -0.097932 0
1.246568 -0.099305 0
1.302543 -0.089389 0
1.347224 -0.072355 0
1.379704 -0.052746 0
1.400978 -0.033237 0
1.412158 -0.015174 0
1.414393 0.000603 0
1.409031 0.013450 0
1.397694 0.022808 0
1.382378 0.028211 0
1.365349 0.029423 0
1.348975 0.026539 0
1.335478 0.020021 0
1.326724 0.010681 0
1.324173 -0.000250 0
1.328741 -0.010827 0
1.339993 -0.018425 0
1.355435 -0.020589 0
1.370800 -0.016267 0
1.381515 -0.006461 0
1.384651 0.006510 0
1.379529 0.020355 0
1.366658 0.033413 0
1.347178 0.044624 0
1.322479 0.053411 0
1.293993 0.059505 0
1.263134 0.062796 0
1.231290 0.063241 0
1.199825 0.060823 0
1.170084 0.055536 0
1.143357 0.047388 0
1.120837 0.036407 0
1.103543 0.022696 0
1.092264 0.006501 0
1.087740 -0.011639 0
1.090893 -0.030602 0
1.102271 -0.048614 0
1.121782 -0.063561 0
1.148775 -0.073339 0
1.182001 -0.076026 0
1.219173 -0.070146 0
1.256594 -0.055351 0
1.289257 -0.033256 0
1.311764 -0.007689 0
1.320483 0.017020 0
1.315877 0.038328 0
1.300159 0.055218 0
1.275901 0.067180 0
1.245760 0.074112 0
1.212303 0.076195 0
1.177885 0.073784 0
1.144558 0.067335 0
1.113980 0.057429 0
1.087308 0.044855 0
1.065119 0.030677 0
1.047435 0.016075 0
1.034007 0.002026 0
1.024758 -0.010836 0
1.019640 -0.022297 0
1.018792 -0.032496 0
1.022596 -0.041639 0
1.031640 -0.049754 0
1.046480 -0.056414 0
1.067167 -0.060612 0
1.092888 -0.060934 0
1.121908 -0.055975 0
1.151678 -0.044866 0
1.178992 -0.027827 0
1.200228 -0.006784 0
1.212245 0.015015 0
1.214119 0.034996 0
1.206799 0.051685 0
1.191905 0.063803 0
1.171501 0.070313 0
1.147817 0.070624 0
1.122973 0.064860 0
1.098716 0.054065 0
1.076276 0.040127 0
1.056357 0.025296 0
1.039298 0.011433 0
1.025442 -0.000344 0
1.014982 -0.009627 0
1.007814 -0.016737 0
1.003881 -0.022394 0
1.003366 -0.027272 0
1.006617 -0.031744 0
1.013985 -0.035744 0
1.025565 -0.038722 0
1.041022 -0.039770 0
1.059634 -0.037377 0
1.080635 -0.033935 0
1.000000 -0.007505 0
1.004244 -0.023163 0
1.013179 -0.040651 0
1.027810 -0.060912 0
1.049895 -0.084466 0
1.082022 -0.110866 0
1.127467 -0.137527 0
1.188549 -0.159678 0
1.269003 -0.163221 0
1.335703 -0.142996 0
1.381819 -0.111883 0
1.411900 -0.079293 0
1.430158 -0.048574 0
1.438390 -0.020688 0
1.437433 0.003606 0
1.428244 0.023478 0
1.412354 0.038019 0
1.391928 0.046377 0
1.369583 0.048086 0
1.348121 0.043247 0
1.330188 0.032579 0
1.317937 0.017256 0
1.312949 -0.001148 0
1.316871 -0.019770 0
1.330335 -0.033970 0
1.351066 -0.038890 0
1.373797 -0.032091 0
1.391677 -0.015369 0
1.399390 0.006451 0
1.396149 0.028977 0
1.383508 0.049608 0
1.363465 0.066910 0
1.337911 0.080260 0
1.308478 0.089461 0
1.276592 0.094482 0
1.243561 0.095333 0
1.210629 0.092043 0
1.178988 0.084670 0
1.149742 0.073323 0
1.123857 0.058170 0
1.102086 0.039458 0
1.084835 0.017539 0
1.072063 -0.007062 0
1.063697 -0.033159 0
1.060644 -0.058689 0
1.064203 -0.081303 0
1.076062 -0.098713 0
1.097598 -0.108364 0
1.128594 -0.107385 0
1.166606 -0.093532 0
1.207043 -0.066706 0
1.243661 -0.030352 0
1.269711 0.008287 0
1.281187 0.042683 0
1.279601 0.070240 0
1.267458 0.090230 0
1.247377 0.102573 0
1.221879 0.107632 0
1.193249 0.106058 0
1.163444 0.098702 0
1.134020 0.086606 0
1.106089 0.071037 0
1.080315 0.053468 0
1.056928 0.035416 0
1.035750 0.018105 0
1.016371 0.002149 0
0.998679 -0.012583 0
0.983416 -0.026692 0
0.972594 -0.040786 0
0.968593 -0.055045 0
0.973073 -0.068683 0
0.986316 -0.079809 0
1.007270 -0.085960 0
1.033993 -0.084851 0
1.064095 -0.075001 0
1.094982 -0.056181 0
1.123898 -0.029822 0
1.147698 0.000362 0
1.163409 0.029629 0
1.170572 0.054736 0
1.169957 0.073838 0
1.162775 0.085631 0
1.150392 0.089533 0
1.134113 0.085875 0
1.115090 0.075967 0
1.094345 0.061893 0
1.072836 0.046037 0
1.051425 0.030503 0
1.030735 0.016658 0
1.011323 0.004974 0
0.993871 -0.004917 0
0.979260 -0.013909 0
0.968658 -0.022833 0
0.963311 -0.032046 0
0.963998 -0.041223 0
0.970784 -0.049342 0
0.983077 -0.055010 0
0.999913 -0.056513 0
1.020375 -0.055209 0
1.000000 -0.009342 0
1.002826 -0.028922 0
1.008962 -0.051154 0
1.019540 -0.077760 0
1.036770 -0.110321 0
1.064557 -0.149675 0
1.109389 -0.193661 0
1.179235 -0.239478 0
1.297826 -0.246468 0
1.370195 -0.202216 0
1.405579 -0.148563 0
1.424225 -0.101097 0
1.435130 -0.059738 0
1.439404 -0.022461 0
1.435074 0.010736 0
1.421517 0.038517 0
1.399928 0.059113 0
1.372657 0.070976 0
1.342767 0.073236 0
1.313687 0.065943 0
1.288741 0.050214 0
1.270351 0.027930 0
1.259428 0.000822 0
1.256705 -0.028214 0
1.265331 -0.052628 0
1.285701 -0.064065 0
1.314612 -0.056889 0
1.344474 -0.032054 0
1.364925 0.002035 0
1.369647 0.036230 0
1.361664 0.066091 0
1.344558 0.090214 0
1.321038 0.108389 0
1.293015 0.120814 0
1.261933 0.127704 0
1.229029 0.129195 0
1.195467 0.125387 0
1.162344 0.116415 0
1.130626 0.102510 0
1.101024 0.084055 0
1.073816 0.061710 0
1.048531 0.036518 0
1.023721 0.009498 0
0.997890 -0.019182 0
0.972395 -0.049117 0
0.953472 -0.078974 0
0.947477 -0.106730 0
0.957253 -0.128555 0
0.982053 -0.139154 0
1.018906 -0.133803 0
1.063558 -0.110317 0
1.110739 -0.070366 0
1.154001 -0.020514 0
1.185923 0.028433 0
1.203441 0.068942 0
1.208381 0.099398 0
1.202996 0.119685 0
1.189567 0.130319 0
1.170235 0.132214 0
1.146899 0.126559 0
1.121123 0.114778 0
1.094048 0.098555 0
1.066256 0.079832 0
1.037703 0.060633 0
1.008007 0.042577 0
0.977259 0.026230 0
0.946952 0.010656 0
0.920083 -0.006412 0
0.900250 -0.026817 0
0.890543 -0.050233 0
0.891958 -0.074137 0
0.903461 -0.094809 0
0.923050 -0.108611 0
0.948525 -0.112801 0
0.977781 -0.105857 0
1.008855 -0.087634 0
1.039873 -0.059504 0
1.068849 -0.024501 0
1.093028 0.012118 0
1.110112 0.045134 0
1.119893 0.071597 0
1.122732 0.089876 0
1.119250 0.099284 0
1.110143 0.100161 0
1.096127 0.093832 0
1.077932 0.082378 0
1.056326 0.068213 0
1.032153 0.053530 0
1.006451 0.039755 0
0.980638 0.027235 0
0.956604 0.015325 0
0.936427 0.002817 0
0.921879 -0.011324 0
0.914120 -0.027086 0
0.913485 -0.043218 0
0.919451 -0.057801 0
0.930980 -0.068899 0
0.946884 -0.074676 0
0.966100 -0.075679 0
1.000000 -0.010336 0
1.000875 -0.032129 0
1.002943 -0.057370 0
1.007067 -0.088728 0
1.015240 -0.129484 0
1.031848 -0.183488 0
1.066416 -0.252213 0
1.136563 -0.348123 0
1.313481 -0.354191 0
1.357927 -0.250759 0
1.351641 -0.165924 0
1.342810 -0.108855 0
1.340607 -0.063764 0
1.342960 -0.020645 0
1.338882 0.021481 0
1.323810 0.058615 0
1.298465 0.086872 0
1.265167 0.103540 0
1.227125 0.107065 0
1.188320 0.097280 0
1.152905 0.075922 0
1.123513 0.046574 0
1.099832 0.012497 0
1.080030 -0.025680 0
1.067959 -0.062978 0
1.073835 -0.088184 0
1.101330 -0.090865 0
1.145031 -0.065682 0
1.192065 -0.018729 0
1.226238 0.032231 0
1.240803 0.074690 0
1.241654 0.107529 0
1.232795 0.131794 0
1.216567 0.148557 0
1.194569 0.158458 0
1.168171 0.161790 0
1.138692 0.158719 0
1.107287 0.149502 0
1.074500 0.134635 0
1.039558 0.114972 0
1.000261 0.091945 0
0.954751 0.067632 0
0.904676 0.043580 0
0.856270 0.018170 0
0.817349 -0.014268 0
0.794452 -0.056382 0
0.790114 -0.102491 0
0.802495 -0.142939 0
0.828530 -0.169040 0
0.865348 -0.175044 0
0.910198 -0.158548 0
0.959986 -0.120802 0
1.010864 -0.066902 0
1.057364 -0.006763 0
1.092353 0.047777 0
1.114342 0.090670 0
1.124641 0.121382 0
1.124863 0.140388 0
1.116682 0.148721 0
1.101636 0.147809 0
1.080929 0.139450 0
1.055226 0.125897 0
1.024600 0.109808 0
0.988987 0.093660 0
0.949280 0.078544 0
0.908420 0.063201 0
0.871315 0.044592 0
0.843078 0.020008 0
0.826619 -0.011247 0
0.822089 -0.046753 0
0.827668 -0.081599 0
0.840994 -0.110900 0
0.860084 -0.131025 0
0.883468 -0.139584 0
0.909952 -0.135333 0
0.938392 -0.118278 0
0.967591 -0.089821 0
0.996260 -0.052798 0
1.022847 -0.011638 0
1.044742 0.027868 0
1.060486 0.061215 0
1.069685 0.086273 0
1.072293 0.102121 0
1.068435 0.108996 0
1.058334 0.108175 0
1.042320 0.101690 0
1.020951 0.091811 0
0.995248 0.080374 0
0.966951 0.068170 0
0.938575 0.054819 0
0.913063 0.039292 0
0.893064 0.020814 0
0.880155 -0.000528 0
0.874547 -0.023653 0
0.875581 -0.046555 0
0.882170 -0.066837 0
0.893173 -0.082443 0
0.907565 -0.091633 0
0.924465 -0.094447 0
1.000000 -0.010220 0
0.998528 -0.031872 0
0.995516 -0.057354 0
0.990952 -0.090062 0
0.985313 -0.135104 0
0.980788 -0.200855 0
0.984900 -0.298384 0
1.020005 -0.486552 0
1.215785 -0.467841 0
1.163573 -0.240386 0
1.073978 -0.133456 0
1.026789 -0.090073 0
1.007786 -0.059899 0
1.016004 -0.020748 0
1.027105 0.029876 0
1.022662 0.078927 0
1.004079 0.117755 0
0.971664 0.142323 0
0.925889 0.150090 0
0.868171 0.140169 0
0.802418 0.115027 0
0.737351 0.081003 0
0.685446 0.044301 0
0.656711 0.003650 0
0.654237 -0.046447 0
0.677318 -0.097441 0
0.723311 -0.128084 0
0.788229 -0.122793 0
0.865439 -0.079178 0
0.942740 -0.012516 0
1.002927 0.050667 0
1.040204 0.098214 0
1.060903 0.133468 0
1.068412 0.159031 0
1.064767 0.176090 0
1.051522 0.185063 0
1.029781 0.186263 0
0.999833 0.180599 0
0.960812 0.170231 0
0.911294 0.158287 0
0.851505 0.146514 0
0.786240 0.132101 0
0.725635 0.107980 0
0.681472 0.068149 0
0.660537 0.012705 0
0.660078 -0.051736 0
0.672707 -0.114772 0
0.693213 -0.166973 0
0.719750 -0.202012 0
0.752392 -0.215480 0
0.791399 -0.204963 0
0.836067 -0.171037 0
0.884411 -0.117897 0
0.933323 -0.053062 0
0.977317 0.011959 0
1.010668 0.067105 0
1.032782 0.109159 0
1.044170 0.138272 0
1.045631 0.155436 0
1.037928 0.162306 0
1.021527 0.161182 0
0.996553 0.154878 0
0.963277 0.146066 0
0.923225 0.135948 0
0.880222 0.123141 0
0.840108 0.104193 0
0.808722 0.075996 0
0.789529 0.038284 0
0.782693 -0.005828 0
0.785487 -0.051281 0
0.794587 -0.093041 0
0.807756 -0.127225 0
0.823898 -0.151087 0
0.842635 -0.162671 0
0.863815 -0.160784 0
0.887133 -0.145278 0
0.911947 -0.117376 0
0.937314 -0.079761 0
0.962079 -0.036369 0
0.984555 0.007492 0
1.002468 0.046652 0
1.014762 0.078067 0
1.020813 0.100532 0
1.020250 0.114117 0
1.012906 0.119943 0
0.998929 0.119756 0
0.979026 0.115282 0
0.954724 0.107528 0
0.928438 0.096426 0
0.903125 0.081120 0
0.881594 0.060834 0
0.865806 0.035723 0
0.856567 0.007192 0
0.853557 -0.022513 0
0.855722 -0.050842 0
0.861915 -0.075393 0
0.871188 -0.094293 0
0.882819 -0.105968 0
0.896222 -0.110130 0
1.000000 -0.008869 0
0.996205 -0.027655 0
0.988027 -0.049802 0
0.974144 -0.078529 0
0.952268 -0.119323 0
0.918769 -0.183080 0
0.868147 -0.291438 0
0.796975 -0.579016 0
0.558924 -0.398849 0
0.498279 0.000000 0
0.427496 -0.019105 0
0.365218 -0.042673 0
0.377972 -0.052990 0
0.429969 -0.039974 0
0.490327 0.014815 0
0.520038 0.081637 0
0.523649 0.137873 0
0.502839 0.181735 0
0.458098 0.210564 0
0.393702 0.220758 0
0.321192 0.206746 0
0.260468 0.163544 0
0.229828 0.093129 0
0.237826 0.005518 0
0.276379 -0.083594 0
0.330627 -0.157258 0
0.393826 -0.201779 0
0.465956 -0.207817 0
0.548503 -0.173247 0
0.640001 -0.105265 0
0.730132 -0.022783 0
0.802170 0.049544 0
0.851321 0.103578 0
0.881899 0.144685 0
0.895941 0.175340 0
0.894502 0.196767 0
0.877866 0.210400 0
0.845788 0.218464 0
0.798672 0.223167 0
0.740018 0.224275 0
0.678517 0.216997 0
0.626586 0.193501 0
0.594623 0.148349 0
0.585645 0.083271 0
0.595172 0.007129 0
0.613968 -0.068551 0
0.634122 -0.135627 0
0.653027 -0.189986 0
0.671573 -0.228226 0
0.692441 -0.246701 0
0.718543 -0.242229 0
0.751491 -0.213819 0
0.790764 -0.164164 0
0.833956 -0.099674 0
0.877487 -0.029573 0
0.915270 0.035199 0
0.943601 0.087874 0
0.961724 0.127533 0
0.969434 0.154957 0
0.966670 0.171908 0
0.953430 0.180820 0
0.930147 0.184142 0
0.898542 0.183130 0
0.862429 0.176710 0
0.827441 0.161658 0
0.799247 0.134700 0
0.781323 0.095171 0
0.773994 0.046037 0
0.775253 -0.007204 0
0.782012 -0.058647 0
0.791487 -0.103869 0
0.802061 -0.140212 0
0.813238 -0.165906 0
0.825348 -0.179505 0
0.839107 -0.179837 0
0.855102 -0.166414 0
0.873388 -0.140006 0
0.893388 -0.102934 0
0.914063 -0.058883 0
0.934089 -0.012523 0
0.951371 0.031007 0
0.964245 0.067925 0
0.971669 0.096630 0
0.972960 0.116899 0
0.967803 0.129490 0
0.956441 0.135565 0
0.939896 0.136015 0
0.920070 0.130960 0
0.899504 0.119766 0
0.880786 0.101661 0
0.865899 0.076609 0
0.855843 0.045838 0
0.850697 0.011720 0
0.849917 -0.022809 0
0.852541 -0.054914 0
0.857619 -0.082303 0
0.864440 -0.103347 0
0.872552 -0.116666 0
0.881692 -0.121785 0
1.000000 -0.006432 0
0.994495 -0.019909 0
0.982491 -0.035298 0
0.961613 -0.054306 0
0.927207 -0.079733 0
0.870219 -0.116740 0
0.771197 -0.176598 0
0.587706 -0.276256 0
0.000000 -0.169151 0
0.000000 0.000000 0
0.000000 0.000000 0
-0.028749 -0.050201 0
-0.050568 -0.124661 0
-0.016944 -0.133111 0
0.016748 -0.060199 0
0.056249 0.045605 0
0.079335 0.134960 0
0.079827 0.207879 0
0.059470 0.259232 0
0.028552 0.277081 0
0.007757 0.248261 0
0.019274 0.172363 0
0.059499 0.066934 0
0.112904 -0.042911 0
0.165342 -0.139253 0
0.212506 -0.214890 0
0.256746 -0.263419 0
0.304171 -0.277476 0
0.361152 -0.253231 0
0.430579 -0.194155 0
0.510217 -0.111511 0
0.589495 -0.022984 0
0.652632 0.053730 0
0.695711 0.114403 0
0.719897 0.163479 0
0.725593 0.203130 0
0.713227 0.234970 0
0.684633 0.259786 0
0.644863 0.275995 0
0.603164 0.278439 0
0.571051 0.259945 0
0.557399 0.215996 0
0.564098 0.148924 0
0.586124 0.067603 0
0.614770 -0.015617 0
0.640956 -0.090686 0
0.660795 -0.153834 0
0.673466 -0.204429 0
0.680503 -0.241434 0
0.685507 -0.262456 0
0.693294 -0.264017 0
0.708177 -0.243264 0
0.732080 -0.200368 0
0.763817 -0.139791 0
0.799948 -0.069361 0
0.835663 0.000985 0
0.865035 0.062698 0
0.885628 0.112434 0
0.896367 0.150484 0
0.896749 0.178304 0
0.886945 0.197700 0
0.868349 0.209761 0
0.844151 0.213779 0
0.819186 0.207046 0
0.798599 0.186320 0
0.785921 0.150308 0
0.781952 0.101249 0
0.785191 0.044355 0
0.793088 -0.013845 0
0.802790 -0.067516 0
0.812160 -0.113091 0
0.819977 -0.148978 0
0.825967 -0.174376 0
0.830796 -0.188545 0
0.835833 -0.190544 0
0.842619 -0.179563 0
0.852209 -0.155666 0
0.864738 -0.120440 0
0.879444 -0.077074 0
0.894999 -0.029818 0
0.909648 0.016494 0
0.921388 0.057766 0
0.928915 0.091812 0
0.931418 0.117977 0
0.928620 0.136457 0
0.920932 0.147661 0
0.909562 0.151649 0
0.896381 0.147917 0
0.883502 0.135707 0
0.872713 0.114724 0
0.865070 0.085775 0
0.860834 0.050924 0
0.859706 0.013117 0
0.861089 -0.024358 0
0.864158 -0.058545 0
0.868140 -0.087293 0
0.872473 -0.109226 0
0.876879 -0.123220 0
0.881378 -0.128816 0
1.000000 -0.003371 0
0.993858 -0.010155 0
0.980520 -0.016924 0
0.957507 -0.023248 0
0.920110 -0.027934 0
0.859461 -0.027078 0
0.758780 -0.008934 0
0.584357 0.088824 0
0.269701 0.085505 0
0.000000 0.000000 0
0.000000 0.000000 0
0.000000 0.000000 0
-0.048449 -0.063050 0
-0.119846 -0.107296 0
-0.164555 -0.058380 0
-0.157536 0.019053 0
-0.130145 0.114300 0
-0.104795 0.201605 0
-0.085176 0.261844 0
-0.058753 0.272474 0
-0.010065 0.216021 0
0.062574 0.111795 0
0.140944 -0.000510 0
0.203398 -0.100332 0
0.246667 -0.183199 0
0.272553 -0.248667 0
0.285401 -0.293450 0
0.293407 -0.312230 0
0.307058 -0.299663 0
0.334893 -0.254339 0
0.379425 -0.181708 0
0.436309 -0.092880 0
0.494351 -0.002647 0
0.540075 0.077412 0
0.569846 0.145450 0
0.583236 0.203430 0
0.581606 0.251354 0
0.569263 0.286822 0
0.553878 0.304633 0
0.544973 0.298085 0
0.550298 0.262761 0
0.572294 0.200455 0
0.607556 0.119628 0
0.649245 0.032602 0
0.687618 -0.047702 0
0.716922 -0.114576 0
0.735420 -0.168140 0
0.742683 -0.209700 0
0.739705 -0.240274 0
0.729491 -0.259497 0
0.717272 -0.264904 0
0.709485 -0.252611 0
0.711392 -0.219810 0
0.724755 -0.167547 0
0.747395 -0.101425 0
0.774724 -0.029895 0
0.800639 0.037903 0
0.820629 0.096195 0
0.832741 0.143830 0
0.836321 0.181324 0
0.831986 0.209215 0
0.821905 0.226931 0
0.809718 0.232290 0
0.799649 0.222260 0
0.795000 0.194920 0
0.796996 0.151346 0
0.804811 0.095901 0
0.816476 0.034902 0
0.829652 -0.024804 0
0.841845 -0.077720 0
0.851390 -0.121057 0
0.857207 -0.154021 0
0.858924 -0.176729 0
0.857107 -0.189375 0
0.853340 -0.191664 0
0.849889 -0.182794 0
0.848950 -0.162129 0
0.851821 -0.130173 0
0.858509 -0.089147 0
0.867942 -0.042729 0
0.878470 0.004616 0
0.888075 0.048654 0
0.895236 0.086593 0
0.899059 0.117189 0