# vtk DataFile Version 2.0
generated by CFD-lab course output (written by Tobias Neckel) 
ASCII

DATASET STRUCTURED_GRID
DIMENSIONS  99 19 1 
POINTS 1881 float

0.000000 0.000000 0
0.100000 0.000000 0
0.200000 0.000000 0
0.300000 0.000000 0
0.400000 0.000000 0
0.500000 0.000000 0
0.600000 0.000000 0
0.700000 0.000000 0
0.800000 0.000000 0
0.900000 0.000000 0
1.000000 0.000000 0
1.100000 0.000000 0
1.200000 0.000000 0
1.300000 0.000000 0
1.400000 0.000000 0
1.500000 0.000000 0
1.600000 0.000000 0
1.700000 0.000000 0
1.800000 0.000000 0
1.900000 0.000000 0
2.000000 0.000000 0
2.100000 0.000000 0
2.200000 0.000000 0
2.300000 0.000000 0
2.400000 0.000000 0
2.500000 0.000000 0
2.600000 0.000000 0
2.700000 0.000000 0
2.800000 0.000000 0
2.900000 0.000000 0
3.000000 0.000000 0
3.100000 0.000000 0
3.200000 0.000000 0
3.300000 0.000000 0
3.400000 0.000000 0
3.500000 0.000000 0
3.600000 0.000000 0
3.700000 0.000000 0
3.800000 0.000000 0
3.900000 0.000000 0
4.000000 0.000000 0
4.100000 0.000000 0
4.200000 0.000000 0
4.300000 0.000000 0
4.400000 0.000000 0
4.500000 0.000000 0
4.600000 0.000000 0
4.700000 0.000000 0
4.800000 0.000000 0
4.900000 0.000000 0
5.000000 0.000000 0
5.100000 0.000000 0
5.200000 0.000000 0
5.300000 0.000000 0
5.400000 0.000000 0
5.500000 0.000000 0
5.600000 0.000000 0
5.700000 0.000000 0
5.800000 0.000000 0
5.900000 0.000000 0
6.000000 0.000000 0
6.100000 0.000000 0
6.200000 0.000000 0
6.300000 0.000000 0
6.400000 0.000000 0
6.500000 0.000000 0
6.600000 0.000000 0
6.700000 0.000000 0
6.800000 0.000000 0
6.900000 0.000000 0
7.000000 0.000000 0
7.100000 0.000000 0
7.200000 0.000000 0
7.300000 0.000000 0
7.400000 0.000000 0
7.500000 0.000000 0
7.600000 0.000000 0
7.700000 0.000000 0
7.800000 0.000000 0
7.900000 0.000000 0
8.000000 0.000000 0
8.100000 0.000000 0
8.200000 0.000000 0
8.300000 0.000000 0
8.400000 0.000000 0
8.500000 0.000000 0
8.600000 0.000000 0
8.700000 0.000000 0
8.800000 0.000000 0
8.900000 0.000000 0
9.000000 0.000000 0
9.100000 0.000000 0
9.200000 0.000000 0
9.300000 0.000000 0
9.400000 0.000000 0
9.500000 0.000000 0
9.600000 0.000000 0
9.700000 0.000000 0
9.800000 0.000000 0
0.000000 0.100000 0
0.100000 0.100000 0
0.200000 0.100000 0
0.300000 0.100000 0
0.400000 0.100000 0
0.500000 0.100000 0
0.600000 0.100000 0
0.700000 0.100000 0
0.800000 0.100000 0
0.900000 0.100000 0
1.000000 0.100000 0
1.100000 0.100000 0
1.200000 0.100000 0
1.300000 0.100000 0
1.400000 0.100000 0
1.500000 0.100000 0
1.600000 0.100000 0
1.700000 0.100000 0
1.800000 0.100000 0
1.900000 0.100000 0
2.000000 0.100000 0
2.100000 0.100000 0
2.200000 0.100000 0
2.300000 0.100000 0
2.400000 0.100000 0
2.500000 0.100000 0
2.600000 0.100000 0
2.700000 0.100000 0
2.800000 0.100000 0
2.900000 0.100000 0
3.000000 0.100000 0
3.100000 0.100000 0
3.200000 0.100000 0
3.300000 0.100000 0
3.400000 0.100000 0
3.500000 0.100000 0
3.600000 0.100000 0
3.700000 0.100000 0
3.800000 0.100000 0
3.900000 0.100000 0
4.000000 0.100000 0
4.100000 0.100000 0
4.200000 0.100000 0
4.300000 0.100000 0
4.400000 0.100000 0
4.500000 0.100000 0
4.600000 0.100000 0
4.700000 0.100000 0
4.800000 0.100000 0
4.900000 0.100000 0
5.000000 0.100000 0
5.100000 0.100000 0
5.200000 0.100000 0
5.300000 0.100000 0
5.400000 0.100000 0
5.500000 0.100000 0
5.600000 0.100000 0
5.700000 0.100000 0
5.800000 0.100000 0
5.900000 0.100000 0
6.000000 0.100000 0
6.100000 0.100000 0
6.200000 0.100000 0
6.300000 0.100000 0
6.400000 0.100000 0
6.500000 0.100000 0
6.600000 0.100000 0
6.700000 0.100000 0
6.800000 0.100000 0
6.900000 0.100000 0
7.000000 0.100000 0
7.100000 0.100000 0
7.200000 0.100000 0
7.300000 0.100000 0
7.400000 0.100000 0
7.500000 0.100000 0
7.600000 0.100000 0
7.700000 0.100000 0
7.800000 0.100000 0
7.900000 0.100000 0
8.000000 0.100000 0
8.100000 0.100000 0
8.200000 0.100000 0
8.300000 0.100000 0
8.400000 0.100000 0
8.500000 0.100000 0
8.600000 0.100000 0
8.700000 0.100000 0
8.800000 0.100000 0
8.900000 0.100000 0
9.000000 0.100000 0
9.100000 0.100000 0
9.200000 0.100000 0
9.300000 0.100000 0
9.400000 0.100000 0
9.500000 0.100000 0
9.600000 0.100000 0
9.700000 0.100000 0
9.800000 0.100000 0
0.000000 0.200000 0
0.100000 0.200000 0
0.200000 0.200000 0
0.300000 0.200000 0
0.400000 0.200000 0
0.500000 0.200000 0
0.600000 0.200000 0
0.700000 0.200000 0
0.800000 0.200000 0
0.900000 0.200000 0
1.000000 0.200000 0
1.100000 0.200000 0
1.200000 0.200000 0
1.300000 0.200000 0
1.400000 0.200000 0
1.500000 0.200000 0
1.600000 0.200000 0
1.700000 0.200000 0
1.800000 0.200000 0
1.900000 0.200000 0
2.000000 0.200000 0
2.100000 0.200000 0
2.200000 0.200000 0
2.300000 0.200000 0
2.400000 0.200000 0
2.500000 0.200000 0
2.600000 0.200000 0
2.700000 0.200000 0
2.800000 0.200000 0
2.900000 0.200000 0
3.000000 0.200000 0
3.100000 0.200000 0
3.200000 0.200000 0
3.300000 0.200000 0
3.400000 0.200000 0
3.500000 0.200000 0
3.600000 0.200000 0
3.700000 0.200000 0
3.800000 0.200000 0
3.900000 0.200000 0
4.000000 0.200000 0
4.100000 0.200000 0
4.200000 0.200000 0
4.300000 0.200000 0
4.400000 0.200000 0
4.500000 0.200000 0
4.600000 0.200000 0
4.700000 0.200000 0
4.800000 0.200000 0
4.900000 0.200000 0
5.000000 0.200000 0
5.100000 0.200000 0
5.200000 0.200000 0
5.300000 0.200000 0
5.400000 0.200000 0
5.500000 0.200000 0
5.600000 0.200000 0
5.700000 0.200000 0
5.800000 0.200000 0
5.900000 0.200000 0
6.000000 0.200000 0
6.100000 0.200000 0
6.200000 0.200000 0
6.300000 0.200000 0
6.400000 0.200000 0
6.500000 0.200000 0
6.600000 0.200000 0
6.700000 0.200000 0
6.800000 0.200000 0
6.900000 0.200000 0
7.000000 0.200000 0
7.100000 0.200000 0
7.200000 0.200000 0
7.300000 0.200000 0
7.400000 0.200000 0
7.500000 0.200000 0
7.600000 0.200000 0
7.700000 0.200000 0
7.800000 0.200000 0
7.900000 0.200000 0
8.000000 0.200000 0
8.100000 0.200000 0
8.200000 0.200000 0
8.300000 0.200000 0
8.400000 0.200000 0
8.500000 0.200000 0
8.600000 0.200000 0
8.700000 0.200000 0
8.800000 0.200000 0
8.900000 0.200000 0
9.000000 0.200000 0
9.100000 0.200000 0
9.200000 0.200000 0
9.300000 0.200000 0
9.400000 0.200000 0
9.500000 0.200000 0
9.600000 0.200000 0
9.700000 0.200000 0
9.800000 0.200000 0
0.000000 0.300000 0
0.100000 0.300000 0
0.200000 0.300000 0
0.300000 0.300000 0
0.400000 0.300000 0
0.500000 0.300000 0
0.600000 0.300000 0
0.700000 0.300000 0
0.800000 0.300000 0
0.900000 0.300000 0
1.000000 0.300000 0
1.100000 0.300000 0
1.200000 0.300000 0
1.300000 0.300000 0
1.400000 0.300000 0
1.500000 0.300000 0
1.600000 0.300000 0
1.700000 0.300000 0
1.800000 0.300000 0
1.900000 0.300000 0
2.000000 0.300000 0
2.100000 0.300000 0
2.200000 0.300000 0
2.300000 0.300000 0
2.400000 0.300000 0
2.500000 0.300000 0
2.600000 0.300000 0
2.700000 0.300000 0
2.800000 0.300000 0
2.900000 0.300000 0
3.000000 0.300000 0
3.100000 0.300000 0
3.200000 0.300000 0
3.300000 0.300000 0
3.400000 0.300000 0
3.500000 0.300000 0
3.600000 0.300000 0
3.700000 0.300000 0
3.800000 0.300000 0
3.900000 0.300000 0
4.000000 0.300000 0
4.100000 0.300000 0
4.200000 0.300000 0
4.300000 0.300000 0
4.400000 0.300000 0
4.500000 0.300000 0
4.600000 0.300000 0
4.700000 0.300000 0
4.800000 0.300000 0
4.900000 0.300000 0
5.000000 0.300000 0
5.100000 0.300000 0
5.200000 0.300000 0
5.300000 0.300000 0
5.400000 0.300000 0
5.500000 0.300000 0
5.600000 0.300000 0
5.700000 0.300000 0
5.800000 0.300000 0
5.900000 0.300000 0
6.000000 0.300000 0
6.100000 0.300000 0
6.200000 0.300000 0
6.300000 0.300000 0
6.400000 0.300000 0
6.500000 0.300000 0
6.600000 0.300000 0
6.700000 0.300000 0
6.800000 0.300000 0
6.900000 0.300000 0
7.000000 0.300000 0
7.100000 0.300000 0
7.200000 0.300000 0
7.300000 0.300000 0
7.400000 0.300000 0
7.500000 0.300000 0
7.600000 0.300000 0
7.700000 0.300000 0
7.800000 0.300000 0
7.900000 0.300000 0
8.000000 0.300000 0
8.100000 0.300000 0
8.200000 0.300000 0
8.300000 0.300000 0
8.400000 0.300000 0
8.500000 0.300000 0
8.600000 0.300000 0
8.700000 0.300000 0
8.800000 0.300000 0
8.900000 0.300000 0
9.000000 0.300000 0
9.100000 0.300000 0
9.200000 0.300000 0
9.300000 0.300000 0
9.400000 0.300000 0
9.500000 0.300000 0
9.600000 0.300000 0
9.700000 0.300000 0
9.800000 0.300000 0
0.000000 0.400000 0
0.100000 0.400000 0
0.200000 0.400000 0
0.300000 0.400000 0
0.400000 0.400000 0
0.500000 0.400000 0
0.600000 0.400000 0
0.700000 0.400000 0
0.800000 0.400000 0
0.900000 0.400000 0
1.000000 0.400000 0
1.100000 0.400000 0
1.200000 0.400000 0
1.300000 0.400000 0
1.400000 0.400000 0
1.500000 0.400000 0
1.600000 0.400000 0
1.700000 0.400000 0
1.800000 0.400000 0
1.900000 0.400000 0
2.000000 0.400000 0
2.100000 0.400000 0
2.200000 0.400000 0
2.300000 0.400000 0
2.400000 0.400000 0
2.500000 0.400000 0
2.600000 0.400000 0
2.700000 0.400000 0
2.800000 0.400000 0
2.900000 0.400000 0
3.000000 0.400000 0
3.100000 0.400000 0
3.200000 0.400000 0
3.300000 0.400000 0
3.400000 0.400000 0
3.500000 0.400000 0
3.600000 0.400000 0
3.700000 0.400000 0
3.800000 0.400000 0
3.900000 0.400000 0
4.000000 0.400000 0
4.100000 0.400000 0
4.200000 0.400000 0
4.300000 0.400000 0
4.400000 0.400000 0
4.500000 0.400000 0
4.600000 0.400000 0
4.700000 0.400000 0
4.800000 0.400000 0
4.900000 0.400000 0
5.000000 0.400000 0
5.100000 0.400000 0
5.200000 0.400000 0
5.300000 0.400000 0
5.400000 0.400000 0
5.500000 0.400000 0
5.600000 0.400000 0
5.700000 0.400000 0
5.800000 0.400000 0
5.900000 0.400000 0
6.000000 0.400000 0
6.100000 0.400000 0
6.200000 0.400000 0
6.300000 0.400000 0
6.400000 0.400000 0
6.500000 0.400000 0
6.600000 0.400000 0
6.700000 0.400000 0
6.800000 0.400000 0
6.900000 0.400000 0
7.000000 0.400000 0
7.100000 0.400000 0
7.200000 0.400000 0
7.300000 0.400000 0
7.400000 0.400000 0
7.500000 0.400000 0
7.600000 0.400000 0
7.700000 0.400000 0
7.800000 0.400000 0
7.900000 0.400000 0
8.000000 0.400000 0
8.100000 0.400000 0
8.200000 0.400000 0
8.300000 0.400000 0
8.400000 0.400000 0
8.500000 0.400000 0
8.600000 0.400000 0
8.700000 0.400000 0
8.800000 0.400000 0
8.900000 0.400000 0
9.000000 0.400000 0
9.100000 0.400000 0
9.200000 0.400000 0
9.300000 0.400000 0
9.400000 0.400000 0
[...]
POINT_DATA 1881 

VECTORS velocity float
0.500000 0.000000 0
0.502199 0.000000 0
0.507016 0.000000 0
0.514839 0.000000 0
0.526043 0.000000 0
0.540893 0.000000 0
0.559333 0.000000 0
0.580699 0.000000 0
0.603481 0.000000 0
0.625279 0.000000 0
0.644083 0.000000 0
0.658899 0.000000 0
0.669614 0.000000 0
0.676675 0.000000 0
0.680834 0.000000 0
0.682973 0.000000 0
0.683972 0.000000 0
0.684561 0.000000 0
0.685173 0.000000 0
0.685801 0.000000 0
0.685986 0.000000 0
0.684972 0.000000 0
0.682000 0.000000 0
0.676563 0.000000 0
0.668465 0.000000 0
0.657820 0.000000 0
0.644983 0.000000 0
0.630477 0.000000 0
0.614931 0.000000 0
0.599038 0.000000 0
0.583520 0.000000 0
0.569105 0.000000 0
0.556512 0.000000 0
0.546462 0.000000 0
0.539717 0.000000 0
0.537134 0.000000 0
0.539436 0.000000 0
0.546873 0.000000 0
0.559062 0.000000 0
0.574847 0.000000 0
0.592309 0.000000 0
0.609019 0.000000 0
0.622514 0.000000 0
0.630927 0.000000 0
0.633499 0.000000 0
0.630420 0.000000 0
0.622293 0.000000 0
0.610001 0.000000 0
0.594582 0.000000 0
0.577107 0.000000 0
0.558607 0.000000 0
0.540035 0.000000 0
0.522269 0.000000 0
0.506144 0.000000 0
0.492479 0.000000 0
0.482092 0.000000 0
0.475760 0.000000 0
0.474053 0.000000 0
0.476963 0.000000 0
0.484059 0.000000 0
0.494794 0.000000 0
0.508587 0.000000 0
0.524801 0.000000 0
0.542681 0.000000 0
0.561221 0.000000 0
0.579061 0.000000 0
0.594505 0.000000 0
0.605765 0.000000 0
0.611468 0.000000 0
0.611136 0.000000 0
0.604964 0.000000 0
0.593458 0.000000 0
0.577456 0.000000 0
0.558118 0.000000 0
0.536875 0.000000 0
0.515361 0.000000 0
0.495296 0.000000 0
0.478307 0.000000 0
0.465695 0.000000 0
0.458224 0.000000 0
0.455947 0.000000 0
0.458069 0.000000 0
0.463414 0.000000 0
0.471032 0.000000 0
0.480277 0.000000 0
0.490762 0.000000 0
0.502246 0.000000 0
0.514520 0.000000 0
0.527264 0.000000 0
0.539936 0.000000 0
0.551715 0.000000 0
0.561542 0.000000 0
0.568294 0.000000 0
0.571092 0.000000 0
0.569514 0.000000 0
0.563443 0.000000 0
0.552965 0.000000 0
0.538389 0.000000 0
0.520125 0.000000 0
1.000000 -0.002170 0
1.004966 -0.006969 0
1.015244 -0.012608 0
1.031528 -0.019003 0
1.054647 -0.026034 0
1.085328 -0.033280 0
1.123754 -0.039803 0
1.168827 -0.044148 0
1.217571 -0.044583 0
1.263906 -0.040608 0
1.303228 -0.033627 0
1.333710 -0.025538 0
1.355471 -0.017784 0
1.369667 -0.011227 0
1.377971 -0.006301 0
1.382284 -0.003127 0
1.384469 -0.001563 0
1.386126 -0.001170 0
1.388261 -0.001205 0
1.390900 -0.000780 0
1.392936 0.000855 0
1.392563 0.003998 0
1.388063 0.008417 0
1.378325 0.013550 0
1.362968 0.018757 0
1.342295 0.023492 0
1.317091 0.027350 0
1.288462 0.030057 0
1.257710 0.031441 0
1.226253 0.031410 0
1.195559 0.029929 0
1.167099 0.027001 0
1.142301 0.022636 0
1.122549 0.016786 0
1.109206 0.009319 0
1.103644 0.000272 0
1.107150 -0.009747 0
1.120539 -0.019631 0
1.143539 -0.027974 0
1.174349 -0.033240 0
1.209636 -0.034160 0
1.244870 -0.030189 0
1.275023 -0.021889 0
1.295680 -0.010965 0
1.304282 0.000526 0
1.300734 0.011221 0
1.286426 0.020428 0
1.263329 0.027716 0
1.233682 0.032897 0
1.199741 0.035977 0
1.163643 0.037074 0
1.127347 0.036338 0
1.092632 0.033890 0
1.061129 0.029789 0
1.034317 0.024050 0
1.013462 0.016716 0
0.999483 0.008036 0
0.992841 -0.001206 0
0.993603 -0.010009 0
1.001485 -0.017835 0
1.016001 -0.024532 0
1.036537 -0.030010 0
1.062375 -0.034096 0
1.092600 -0.036418 0
1.125858 -0.036377 0
1.160073 -0.033279 0
1.192355 -0.026695 0
1.219213 -0.016954 0
1.237134 -0.005363 0
1.243516 0.006512 0
1.237825 0.017685 0
1.221120 0.027512 0
1.195153 0.035342 0
1.162260 0.040582 0
1.125226 0.042756 0
1.087101 0.041576 0
1.050950 0.037052 0
1.019505 0.029598 0
0.994772 0.020080 0
0.977723 0.009746 0
0.968268 0.000153 0
0.965605 -0.007467 0
0.968543 -0.012963 0
0.975871 -0.016864 0
0.986696 -0.019730 0
1.000504 -0.021969 0
1.017059 -0.023759 0
1.036202 -0.025019 0
1.057582 -0.025417 0
1.080414 -0.024452 0
1.103356 -0.021605 0
1.124530 -0.016579 0
1.141691 -0.009550 0
1.152548 -0.001219 0
1.155301 0.007649 0
1.149354 0.016549 0
1.135030 0.025054 0
1.113207 0.032840 0
1.085139 0.036995 0
1.000000 -0.004921 0
1.005126 -0.015178 0
1.015414 -0.026529 0
1.031604 -0.039379 0
1.054848 -0.053784 0
1.086534 -0.069101 0
1.127857 -0.083498 0
1.178651 -0.093819 0
1.236841 -0.095084 0
1.290413 -0.085664 0
1.333022 -0.069812 0
1.363972 -0.052252 0
1.384690 -0.035965 0
1.397129 -0.022507 0
1.403430 -0.012607 0
1.405818 -0.006469 0
1.406487 -0.003804 0
1.407479 -0.003749 0
1.410323 -0.004734 0
1.415298 -0.004643 0
1.420784 -0.001645 0
1.423916 0.004879 0
1.422238 0.014252 0
1.414376 0.025114 0
1.400060 0.036044 0
1.379824 0.045888 0
1.354676 0.053840 0
1.325868 0.059384 0
1.294788 0.062209 0
1.262903 0.062147 0
1.231704 0.059146 0
1.202645 0.053249 0
1.177074 0.044541 0
1.156195 0.033085 0
1.141079 0.018895 0
1.132749 0.002047 0
1.132421 -0.016903 0
1.141348 -0.036389 0
1.159888 -0.053803 0
1.187138 -0.066084 0
1.221043 -0.070501 0
1.258345 -0.065363 0
1.294454 -0.050785 0
1.323836 -0.029236 0
1.341418 -0.005036 0
1.345000 0.017867 0
1.336103 0.037410 0
1.317173 0.052748 0
1.290817 0.063592 0
1.259542 0.070040 0
1.225624 0.072395 0
1.191061 0.071011 0
1.157576 0.066216 0
1.126618 0.058313 0
1.099326 0.047664 0
1.076448 0.034831 0
1.058266 0.020617 0
1.044682 0.005876 0
1.035662 -0.008648 0
1.031343 -0.022403 0
1.031972 -0.035057 0
1.037897 -0.046375 0
1.049601 -0.056061 0
1.067541 -0.063479 0
1.091676 -0.067467 0
1.121014 -0.066488 0
1.153464 -0.059129 0
1.185917 -0.044768 0
1.214442 -0.024292 0
1.234797 -0.000681 0
1.243937 0.022401 0
1.241880 0.042674 0
1.230092 0.058860 0
1.210607 0.069925 0
1.185789 0.075157 0
1.158090 0.074273 0
1.129801 0.067592 0
1.102802 0.056175 0
1.078392 0.041779 0
1.057246 0.026501 0
1.039563 0.012117 0
1.025482 -0.000275 0
1.015047 -0.010267 0
1.008080 -0.018153 0
1.004534 -0.024634 0
1.004659 -0.030364 0
1.008904 -0.035699 0
1.017715 -0.040523 0
1.031191 -0.044212 0
1.048862 -0.045775 0
1.069647 -0.044116 0
1.091948 -0.038334 0
1.113752 -0.028018 0
1.132706 -0.013609 0
1.146370 0.003194 0
1.153006 0.020271 0
1.152507 0.036147 0
1.145713 0.049891 0
1.134067 0.057172 0
1.000000 -0.007265 0
1.004138 -0.022350 0
1.012711 -0.039086 0
1.026705 -0.058438 0
1.047814 -0.080969 0
1.078571 -0.106294 0
1.122215 -0.131923 0
1.181060 -0.153135 0
1.258513 -0.156348 0
1.322473 -0.136791 0
1.366077 -0.107188 0
1.393579 -0.077208 0
1.409322 -0.050941 0
1.416279 -0.029955 0
1.416982 -0.014961 0
1.413902 -0.006154 0
1.409546 -0.003201 0
1.406603 -0.004989 0
1.407783 -0.009020 0
1.414485 -0.011250 0
1.424612 -0.007778 0
1.433057 0.002545 0
1.435151 0.017969 0
1.429208 0.035732 0
1.415321 0.053311 0
1.394554 0.068876 0
1.368306 0.081305 0
1.338034 0.089941 0
1.305215 0.094401 0
1.271358 0.094490 0
1.237981 0.090183 0
1.206532 0.081628 0
1.178263 0.069082 0
1.154131 0.052778 0
1.134830 0.032762 0
1.120897 0.008930 0
1.112876 -0.018341 0
1.111854 -0.047087 0
1.118833 -0.073751 0
1.134381 -0.094381 0
1.158944 -0.105352 0
1.191968 -0.103587 0
1.230726 -0.087371 0
1.269844 -0.057925 0
1.302008 -0.020640 0
1.320370 0.016530 0
1.323366 0.048250 0
1.313870 0.073001 0
1.294938 0.090527 0
1.269395 0.101169 0
1.239719 0.105554 0
1.208003 0.104385 0
1.175963 0.098332 0
1.144955 0.088038 0
1.115981 0.074219 0
1.089679 0.057774 0
1.066291 0.039801 0
1.045637 0.021396 0
1.027177 0.003328 0
1.010505 -0.014145 0
0.996089 -0.031085 0
0.985906 -0.047636 0
0.982525 -0.063735 0
0.988038 -0.078487 0
1.003121 -0.089843 0
1.026842 -0.095060 0
1.057072 -0.091593 0
1.090971 -0.077927 0
1.125274 -0.054241 0
1.156335 -0.022984 0
1.180014 0.010601 0
1.193499 0.041354 0
1.197194 0.066611 0
1.192372 0.084882 0
1.180678 0.095270 0
1.163852 0.097562 0
1.143519 0.092339 0
1.121075 0.081006 0
1.097679 0.065636 0
1.074288 0.048575 0
1.051634 0.031918 0
1.030127 0.017049 0
1.010069 0.004438 0
0.991962 -0.006352 0
0.976689 -0.016309 0
0.965642 -0.026340 0
0.960356 -0.036815 0
0.961781 -0.047305 0
0.969949 -0.056564 0
0.984047 -0.062907 0
1.002712 -0.064691 0
1.024326 -0.060684 0
1.047220 -0.050308 0
1.069752 -0.033837 0
1.090219 -0.012651 0
1.106603 0.010412 0
1.117550 0.032347 0
1.123222 0.051279 0
1.124403 0.061716 0
1.000000 -0.009033 0
1.002719 -0.027865 0
1.008518 -0.049097 0
1.018494 -0.074484 0
1.034788 -0.105654 0
1.061241 -0.143505 0
1.104280 -0.185989 0
1.171818 -0.230119 0
1.286862 -0.236499 0
1.356896 -0.193230 0
1.390054 -0.140920 0
1.405211 -0.095498 0
1.410388 -0.058657 0
1.408104 -0.030140 0
1.400246 -0.010202 0
1.388291 0.000988 0
1.375180 0.003510 0
1.364321 -0.001982 0
1.359285 -0.012621 0
1.364612 -0.021485 0
1.379765 -0.020219 0
1.397522 -0.005646 0
1.407752 0.018109 0
1.406666 0.044944 0
1.395420 0.070698 0
1.376130 0.092902 0
1.350694 0.110358 0
1.320658 0.122472 0
1.287452 0.128882 0
1.252557 0.129377 0
1.217539 0.123969 0
1.183920 0.112965 0
1.152894 0.096939 0
1.125023 0.076516 0
1.100213 0.052128 0
1.077874 0.024004 0
1.056879 -0.007850 0
1.036447 -0.042334 0
1.019883 -0.076317 0
1.012852 -0.106180 0
1.020121 -0.128075 0
1.043299 -0.137136 0
1.080432 -0.128656 0
1.126680 -0.100520 0
1.174802 -0.055569 0
1.215665 -0.003495 0
1.240935 0.043910 0
1.250396 0.081177 0
1.247251 0.108067 0
1.234443 0.125259 0
1.214591 0.133786 0
1.189947 0.134766 0
1.162399 0.129264 0
1.133474 0.118295 0
1.104313 0.102939 0
1.075544 0.084519 0
1.047074 0.064658 0
1.018101 0.044989 0
0.987823 0.026482 0
0.956753 0.008686 0
0.927559 -0.010455 0
0.904532 -0.032808 0
0.892151 -0.058187 0
0.892399 -0.084068 0
0.904498 -0.106264 0
0.926279 -0.120434 0
0.955194 -0.123253 0
0.988713 -0.112968 0
1.024376 -0.089657 0
1.059683 -0.055423 0
1.091766 -0.014766 0
1.116756 0.025491 0
1.132810 0.059985 0
1.140265 0.086440 0
1.139966 0.103675 0
1.132976 0.111431 0
1.120381 0.110369 0
1.103191 0.102014 0
1.082302 0.088566 0
1.058470 0.072547 0
1.032366 0.056278 0
1.004777 0.041289 0
0.976965 0.027897 0
0.950886 0.015226 0
0.928906 0.001686 0
0.913165 -0.014032 0
0.905114 -0.031838 0
0.905117 -0.050115 0
0.912441 -0.066477 0
0.925735 -0.078537 0
0.943471 -0.084396 0
0.964176 -0.082843 0
0.986512 -0.073443 0
1.009296 -0.056607 0
1.031444 -0.033656 0
1.051781 -0.007061 0
1.068626 0.019528 0
1.081180 0.043038 0
1.089404 0.056608 0
1.000000 -0.009965 0
1.000780 -0.030850 0
1.002560 -0.054863 0
1.006158 -0.084710 0
1.013505 -0.123720 0
1.028923 -0.175788 0
1.061849 -0.242501 0
1.129805 -0.335720 0
1.303282 -0.341427 0
1.347769 -0.239985 0
1.341542 -0.155504 0
1.330520 -0.097538 0
1.320089 -0.053814 0
1.307462 -0.019786 0
1.288148 0.004873 0
1.263275 0.018927 0
1.236584 0.020775 0
1.212587 0.010903 0
1.195342 -0.009323 0
1.189865 -0.031734 0
1.202622 -0.040676 0
1.230927 -0.025433 0
1.261262 0.008826 0
1.277549 0.048065 0
1.279665 0.083845 0
1.272115 0.113601 0
1.257132 0.136774 0
1.235887 0.153180 0
1.209415 0.162499 0
1.179042 0.164399 0
1.146461 0.158817 0
1.113465 0.146272 0
1.081068 0.127978 0
1.048186 0.105458 0
1.011482 0.079914 0
0.968144 0.052272 0
0.919768 0.023096 0
0.872805 -0.010079 0
0.836192 -0.050142 0
0.818675 -0.094606 0
0.822431 -0.135789 0
0.845142 -0.163893 0
0.883260 -0.170754 0
0.932867 -0.152301 0
0.989361 -0.109629 0
1.046685 -0.049602 0
1.095845 0.013520 0
1.129127 0.066684 0
1.147389 0.106480 0
1.153048 0.133828 0
1.148397 0.150049 0
1.135540 0.156577 0
1.116318 0.154805 0
1.092167 0.146123 0
1.063888 0.132147 0
1.031434 0.115011 0
0.994175 0.097242 0
0.952101 0.080646 0
0.907501 0.064676 0
0.865514 0.046121 0
0.832308 0.021140 0
0.812005 -0.012224 0
0.805515 -0.051595 0
0.811002 -0.090828 0
0.825724 -0.123717 0
0.847370 -0.145751 0
0.874263 -0.154025 0
0.905022 -0.147108 0
0.938245 -0.125212 0
0.972382 -0.090377 0
1.005670 -0.046476 0
1.035664 0.000308 0
1.058973 0.043101 0
1.074614 0.077725 0
1.082573 0.102558 0
1.083194 0.117147 0
1.076952 0.122123 0
1.064316 0.119085 0
1.045707 0.110358 0
1.021607 0.098511 0
0.992892 0.085610 0
0.961281 0.072449 0
0.929555 0.058328 0
0.901174 0.041706 0
0.879308 0.021411 0
0.865745 -0.002547 0
0.860576 -0.028766 0
0.862822 -0.054632 0
0.871053 -0.077181 0
0.883876 -0.093937 0
0.900112 -0.103132 0
0.918769 -0.103725 0
0.938973 -0.095428 0
0.959911 -0.078769 0
0.980811 -0.055136 0
1.000906 -0.026770 0
1.019146 0.002948 0
1.034075 0.030502 0
1.044844 0.047082 0
1.000000 -0.009799 0
0.998461 -0.030412 0
0.995235 -0.054477 0
0.990276 -0.085431 0
0.984013 -0.128421 0
0.978574 -0.191851 0
0.981394 -0.286873 0
1.014659 -0.471554 0
1.208431 -0.454466 0
1.160897 -0.231490 0
1.075497 -0.123668 0
1.031838 -0.074031 0
1.011066 -0.035574 0
0.990111 0.001824 0
0.957855 0.034000 0
0.914140 0.052559 0
0.863753 0.054196 0
0.814923 0.039252 0
0.778439 0.010093 0
0.764633 -0.028759 0
0.784106 -0.061270 0
0.833331 -0.064282 0
0.901231 -0.028513 0
0.967759 0.026539 0
1.014350 0.076130 0
1.041612 0.115433 0
1.055457 0.146582 0
1.057473 0.170186 0
1.048548 0.185725 0
1.029729 0.192329 0
1.001929 0.189544 0
0.965319 0.178357 0
0.919081 0.162218 0
0.862623 0.146104 0
0.798119 0.132178 0
0.732303 0.115727 0
0.675781 0.087499 0
0.639110 0.041255 0
0.625868 -0.022173 0
0.631788 -0.092408 0
0.651055 -0.154537 0
0.680188 -0.197964 0
0.718136 -0.216385 0
0.764630 -0.206628 0
0.818616 -0.169387 0
0.877482 -0.109977 0
0.936620 -0.038532 0
0.987050 0.029632 0
1.023043 0.084146 0
1.045487 0.124250 0
1.055694 0.151292 0
1.055044 0.166843 0
1.044750 0.172636 0
1.025555 0.170724 0
0.997544 0.163671 0
0.960506 0.154230 0
0.915293 0.143990 0
0.865593 0.131662 0
0.818269 0.113070 0
0.780969 0.083883 0
0.758591 0.043059 0
0.751460 -0.006009 0
0.755729 -0.057179 0
0.766920 -0.104271 0
0.782326 -0.142627 0
0.800899 -0.168969 0
0.822512 -0.180903 0
0.847219 -0.176951 0
0.874727 -0.157020 0
0.904194 -0.122851 0
0.934337 -0.078049 0
0.963553 -0.027814 0
0.989142 0.021033 0
1.008708 0.062839 0
1.021416 0.095094 0
1.026893 0.117051 0
1.024981 0.129247 0
1.015637 0.133259 0
0.999022 0.131274 0
0.975825 0.125360 0
0.947699 0.116603 0
0.917464 0.104626 0
0.888717 0.088004 0
0.864871 0.065473 0
0.848182 0.037115 0
0.839335 0.004701 0
0.837573 -0.028914 0
0.841356 -0.060591 0
0.849234 -0.087531 0
0.860147 -0.107596 0
0.873402 -0.119289 0
0.888522 -0.121705 0
0.905089 -0.114585 0
0.922628 -0.098445 0
0.940569 -0.074651 0
0.958251 -0.045396 0
0.974904 -0.013642 0
0.989234 0.017340 0
0.999703 0.036704 0
1.000000 -0.008415 0
0.996176 -0.026075 0
0.987883 -0.046681 0
0.973787 -0.073492 0
0.951581 -0.112021 0
0.917590 -0.173173 0
0.866216 -0.278588 0
0.793709 -0.562759 0
0.556250 -0.389794 0
0.499335 0.000000 0
0.431810 -0.017259 0
0.376725 -0.033084 0
0.381294 -0.012064 0
0.396312 0.033441 0
0.383271 0.080855 0
0.342981 0.113030 0
0.290972 0.119985 0
0.245348 0.096207 0
0.225389 0.040969 0
0.244916 -0.037390 0
0.295966 -0.109370 0
0.368507 -0.142557 0
0.460214 -0.125602 0
0.565734 -0.065056 0
0.664638 0.009990 0
0.739030 0.072491 0
0.788171 0.120911 0
0.817126 0.160085 0
0.827323 0.190241 0
0.819362 0.211017 0
0.793220 0.223226 0
0.748835 0.229120 0
0.688188 0.230676 0
0.618473 0.226425 0
0.552994 0.210242 0
0.506513 0.174619 0
0.487616 0.116301 0
0.494925 0.039847 0
0.518805 -0.042809 0
0.546274 -0.119786 0
0.571948 -0.184186 0
0.596592 -0.230975 0
0.623652 -0.255201 0
0.656914 -0.252784 0
0.698595 -0.222479 0
0.748245 -0.167606 0
0.802927 -0.096049 0
0.857379 -0.019739 0
0.902720 0.048042 0
0.935544 0.101175 0
0.955832 0.140491 0
0.963886 0.167520 0
0.959987 0.184292 0
0.944254 0.193327 0
0.916995 0.197195 0
0.879808 0.197262 0
0.836913 0.192155 0
0.795231 0.177671 0
0.762146 0.149303 0
0.742248 0.105803 0
0.735767 0.050654 0
0.739666 -0.009356 0
0.749435 -0.067049 0
0.761394 -0.117420 0
0.773735 -0.157693 0
0.786230 -0.185935 0
0.799722 -0.200344 0
0.815449 -0.199325 0
0.834310 -0.182190 0
0.856333 -0.149989 0
0.880633 -0.105836 0
0.905729 -0.054500 0
0.929716 -0.002056 0
0.949732 0.045450 0
0.964142 0.084373 0
0.971978 0.113581 0
0.972628 0.133378 0
0.965822 0.145043 0
0.951859 0.150168 0
0.931963 0.149833 0
0.908482 0.143970 0
0.884610 0.131430 0
0.863567 0.110921 0
0.847676 0.082241 0
0.837878 0.046948 0
0.833896 0.008062 0
0.834724 -0.030788 0
0.838986 -0.066293 0
0.845520 -0.095972 0
0.853588 -0.118104 0
0.862864 -0.131506 0
0.873304 -0.135412 0
0.884955 -0.129535 0
0.897750 -0.114249 0
0.911389 -0.090758 0
0.925321 -0.061105 0
0.938778 -0.028035 0
0.950729 0.005703 0
0.959392 0.027510 0
1.000000 -0.005968 0
0.994507 -0.018289 0
0.982497 -0.032092 0
0.961606 -0.049134 0
0.927227 -0.072229 0
0.870299 -0.106490 0
0.771443 -0.162995 0
0.588559 -0.259462 0
0.000000 -0.160093 0
0.000000 0.000000 0
0.000000 0.000000 0
-0.025385 -0.031625 0
-0.040248 -0.055145 0
-0.052966 -0.000141 0
-0.069360 0.087337 0
-0.094473 0.144855 0
-0.118646 0.151821 0
-0.124087 0.104832 0
-0.094316 0.010532 0
-0.039425 -0.099329 0
0.021874 -0.184860 0
0.088548 -0.228530 0
0.165225 -0.225742 0
0.256868 -0.177887 0
0.360416 -0.097168 0
0.456452 -0.008103 0
0.527958 0.068483 0
0.573728 0.131032 0
0.596432 0.183488 0
0.597076 0.226431 0
0.577012 0.260071 0
0.540285 0.283389 0
0.495705 0.292582 0
0.456343 0.281305 0
0.434959 0.244147 0
0.437978 0.181116 0
0.462737 0.099100 0
0.499622 0.010078 0
0.535176 -0.073512 0
0.562885 -0.145546 0
0.581432 -0.204855 0
0.592687 -0.249672 0
0.601154 -0.276710 0
0.612883 -0.281569 0
0.633355 -0.260718 0
0.665120 -0.214309 0
0.706772 -0.147666 0
0.753899 -0.070162 0
0.799535 0.005979 0
0.835874 0.071136 0
0.860683 0.122950 0
0.873231 0.162687 0
0.873240 0.192266 0
0.861033 0.213714 0
0.838272 0.228116 0
0.808853 0.234312 0
0.778937 0.228568 0
0.755240 0.206431 0
0.742285 0.166056 0
0.740758 0.110267 0
0.748164 0.045647 0
0.760633 -0.019671 0
0.774052 -0.078901 0
0.785799 -0.128566 0
0.794627 -0.167460 0
0.800578 -0.194955 0
0.804923 -0.210124 0
0.809791 -0.211542 0
0.817395 -0.197906 0
0.829089 -0.169176 0
0.844845 -0.127447 0
0.863427 -0.076899 0
0.882940 -0.022972 0
0.900796 0.028412 0
0.914664 0.072848 0
0.923161 0.108564 0
0.925465 0.135402 0
0.921354 0.154028 0
0.911434 0.165133 0
0.897315 0.168735 0
0.881465 0.163955 0
0.866618 0.149542 0
0.854963 0.124937 0
0.847603 0.091161 0
0.844549 0.050895 0
0.845121 0.007856 0
0.848306 -0.034004 0
0.852960 -0.071387 0
0.858144 -0.102133 0
0.863293 -0.124939 0
0.868280 -0.139005 0
0.873383 -0.143795 0
0.879109 -0.139031 0
0.885915 -0.124879 0
0.893954 -0.102222 0
0.902955 -0.072784 0
0.912249 -0.039050 0
0.920870 -0.003274 0
0.927186 0.020424 0
1.000000 -0.002918 0
0.993907 -0.008571 0
0.980665 -0.013785 0
0.957821 -0.018227 0
0.920661 -0.020718 0
0.860451 -0.017391 0
0.760606 0.003150 0
0.587782 0.105643 0
0.273286 0.095725 0
0.000000 0.000000 0
0.000000 0.000000 0
0.000000 0.000000 0
-0.030666 0.016486 0
-0.109918 0.062563 0
-0.152274 0.122364 0
-0.173097 0.162312 0
-0.170461 0.149593 0
-0.131222 0.071881 0
-0.069946 -0.043687 0
-0.019133 -0.153579 0
0.016502 -0.237343 0
0.045910 -0.285909 0
0.078579 -0.293924 0
0.123935 -0.260250 0
0.185904 -0.189597 0
0.259758 -0.095054 0
0.329560 0.003634 0
0.381453 0.091610 0
0.414004 0.166892 0
0.428405 0.230437 0
0.427776 0.280017 0
0.419011 0.310430 0
0.412392 0.314624 0
0.418287 0.287179 0
0.442585 0.228617 0
0.484245 0.146853 0
0.536474 0.054670 0
0.586593 -0.032581 0
0.625289 -0.106064 0
0.650432 -0.166039 0
0.661605 -0.213989 0
0.660080 -0.250700 0
0.649549 -0.275398 0
0.636434 -0.284984 0
0.628755 -0.274717 0
0.633232 -0.241024 0
0.652212 -0.184829 0
0.682905 -0.112503 0
0.719219 -0.033934 0
0.752708 0.040026 0
0.777756 0.103133 0
0.792458 0.154962 0
0.796377 0.196489 0
0.790533 0.228295 0
0.777852 0.249374 0
0.763170 0.256597 0
0.752089 0.245770 0
0.748867 0.214326 0
0.754778 0.163788 0
0.768233 0.099929 0
0.786168 0.030784 0
0.804848 -0.035238 0
0.820984 -0.092210 0
0.832695 -0.137990 0
0.838920 -0.172470 0
0.839521 -0.196231 0
0.835566 -0.209559 0
0.829429 -0.211800 0
0.824307 -0.201488 0
0.823121 -0.177441 0
0.827383 -0.140176 0
0.836754 -0.092596 0
0.849497 -0.039426 0
0.863195 0.013726 0
0.875145 0.062006 0
0.883606 0.102779 0
0.887638 0.135185 0
0.887114 0.159074 0
0.882795 0.174206 0
0.876261 0.179801 0
0.869524 0.174666 0
0.864398 0.157932 0
0.861971 0.129936 0