# vtk DataFile Version 2.0
generated by CFD-lab course output (written by Tobias Neckel) 
ASCII

DATASET STRUCTURED_GRID
DIMENSIONS  99 19 1 
POINTS 1881 float

0.000000 0.000000 0
0.100000 0.000000 0
0.200000 0.000000 0
0.300000 0.000000 0
0.400000 0.000000 0
0.500000 0.000000 0
0.600000 0.000000 0
0.700000 0.000000 0
0.800000 0.000000 0
0.900000 0.000000 0
1.000000 0.000000 0
1.100000 0.000000 0
1.200000 0.000000 0
1.300000 0.000000 0
1.400000 0.000000 0
1.500000 0.000000 0
1.600000 0.000000 0
1.700000 0.000000 0
1.800000 0.000000 0
1.900000 0.000000 0
2.000000 0.000000 0
2.100000 0.000000 0
2.200000 0.000000 0
2.300000 0.000000 0
2.400000 0.000000 0
2.500000 0.000000 0
2.600000 0.000000 0
2.700000 0.000000 0
2.800000 0.000000 0
2.900000 0.000000 0
3.000000 0.000000 0
3.100000 0.000000 0
3.200000 0.000000 0
3.300000 0.000000 0
3.400000 0.000000 0
3.500000 0.000000 0
3.600000 0.000000 0
3.700000 0.000000 0
3.800000 0.000000 0
3.900000 0.000000 0
4.000000 0.000000 0
4.100000 0.000000 0
4.200000 0.000000 0
4.300000 0.000000 0
4.400000 0.000000 0
4.500000 0.000000 0
4.600000 0.000000 0
4.700000 0.000000 0
4.800000 0.000000 0
4.900000 0.000000 0
5.000000 0.000000 0
5.100000 0.000000 0
5.200000 0.000000 0
5.300000 0.000000 0
5.400000 0.000000 0
5.500000 0.000000 0
5.600000 0.000000 0
5.700000 0.000000 0
5.800000 0.000000 0
5.900000 0.000000 0
6.000000 0.000000 0
6.100000 0.000000 0
6.200000 0.000000 0
6.300000 0.000000 0
6.400000 0.000000 0
6.500000 0.000000 0
6.600000 0.000000 0
6.700000 0.000000 0
6.800000 0.000000 0
6.900000 0.000000 0
7.000000 0.000000 0
7.100000 0.000000 0
7.200000 0.000000 0
7.300000 0.000000 0
7.400000 0.000000 0
7.500000 0.000000 0
7.600000 0.000000 0
7.700000 0.000000 0
7.800000 0.000000 0
7.900000 0.000000 0
8.000000 0.000000 0
8.100000 0.000000 0
8.200000 0.000000 0
8.300000 0.000000 0
8.400000 0.000000 0
8.500000 0.000000 0
8.600000 0.000000 0
8.700000 0.000000 0
8.800000 0.000000 0
8.900000 0.000000 0
9.000000 0.000000 0
9.100000 0.000000 0
9.200000 0.000000 0
9.300000 0.000000 0
9.400000 0.000000 0
9.500000 0.000000 0
9.600000 0.000000 0
9.700000 0.000000 0
9.800000 0.000000 0
0.000000 0.100000 0
0.100000 0.100000 0
0.200000 0.100000 0
0.300000 0.100000 0
0.400000 0.100000 0
0.500000 0.100000 0
0.600000 0.100000 0
0.700000 0.100000 0
0.800000 0.100000 0
0.900000 0.100000 0
1.000000 0.100000 0
1.100000 0.100000 0
1.200000 0.100000 0
1.300000 0.100000 0
1.400000 0.100000 0
1.500000 0.100000 0
1.600000 0.100000 0
1.700000 0.100000 0
1.800000 0.100000 0
1.900000 0.100000 0
2.000000 0.100000 0
2.100000 0.100000 0
2.200000 0.100000 0
2.300000 0.100000 0
2.400000 0.100000 0
2.500000 0.100000 0
2.600000 0.100000 0
2.700000 0.100000 0
2.800000 0.100000 0
2.900000 0.100000 0
3.000000 0.100000 0
3.100000 0.100000 0
3.200000 0.100000 0
3.300000 0.100000 0
3.400000 0.100000 0
3.500000 0.100000 0
3.600000 0.100000 0
3.700000 0.100000 0
3.800000 0.100000 0
3.900000 0.100000 0
4.000000 0.100000 0
4.100000 0.100000 0
4.200000 0.100000 0
4.300000 0.100000 0
4.400000 0.100000 0
4.500000 0.100000 0
4.600000 0.100000 0
4.700000 0.100000 0
4.800000 0.100000 0
4.900000 0.100000 0
5.000000 0.100000 0
5.100000 0.100000 0
5.200000 0.100000 0
5.300000 0.100000 0
5.400000 0.100000 0
5.500000 0.100000 0
5.600000 0.100000 0
5.700000 0.100000 0
5.800000 0.100000 0
5.900000 0.100000 0
6.000000 0.100000 0
6.100000 0.100000 0
6.200000 0.100000 0
6.300000 0.100000 0
6.400000 0.100000 0
6.500000 0.100000 0
6.600000 0.100000 0
6.700000 0.100000 0
6.800000 0.100000 0
6.900000 0.100000 0
7.000000 0.100000 0
7.100000 0.100000 0
7.200000 0.100000 0
7.300000 0.100000 0
7.400000 0.100000 0
7.500000 0.100000 0
7.600000 0.100000 0
7.700000 0.100000 0
7.800000 0.100000 0
7.900000 0.100000 0
8.000000 0.100000 0
8.100000 0.100000 0
8.200000 0.100000 0
8.300000 0.100000 0
8.400000 0.100000 0
8.500000 0.100000 0
8.600000 0.100000 0
8.700000 0.100000 0
8.800000 0.100000 0
8.900000 0.100000 0
9.000000 0.100000 0
9.100000 0.100000 0
9.200000 0.100000 0
9.300000 0.100000 0
9.400000 0.100000 0
9.500000 0.100000 0
9.600000 0.100000 0
9.700000 0.100000 0
9.800000 0.100000 0
0.000000 0.200000 0
0.100000 0.200000 0
0.200000 0.200000 0
0.300000 0.200000 0
0.400000 0.200000 0
0.500000 0.200000 0
0.600000 0.200000 0
0.700000 0.200000 0
0.800000 0.200000 0
0.900000 0.200000 0
1.000000 0.200000 0
1.100000 0.200000 0
1.200000 0.200000 0
1.300000 0.200000 0
1.400000 0.200000 0
1.500000 0.200000 0
1.600000 0.200000 0
1.700000 0.200000 0
1.800000 0.200000 0
1.900000 0.200000 0
2.000000 0.200000 0
2.100000 0.200000 0
2.200000 0.200000 0
2.300000 0.200000 0
2.400000 0.200000 0
2.500000 0.200000 0
2.600000 0.200000 0
2.700000 0.200000 0
2.800000 0.200000 0
2.900000 0.200000 0
3.000000 0.200000 0
3.100000 0.200000 0
3.200000 0.200000 0
3.300000 0.200000 0
3.400000 0.200000 0
3.500000 0.200000 0
3.600000 0.200000 0
3.700000 0.200000 0
3.800000 0.200000 0
3.900000 0.200000 0
4.000000 0.200000 0
4.100000 0.200000 0
4.200000 0.200000 0
4.300000 0.200000 0
4.400000 0.200000 0
4.500000 0.200000 0
4.600000 0.200000 0
4.700000 0.200000 0
4.800000 0.200000 0
4.900000 0.200000 0
5.000000 0.200000 0
5.100000 0.200000 0
5.200000 0.200000 0
5.300000 0.200000 0
5.400000 0.200000 0
5.500000 0.200000 0
5.600000 0.200000 0
5.700000 0.200000 0
5.800000 0.200000 0
5.900000 0.200000 0
6.000000 0.200000 0
6.100000 0.200000 0
6.200000 0.200000 0
6.300000 0.200000 0
6.400000 0.200000 0
6.500000 0.200000 0
6.600000 0.200000 0
6.700000 0.200000 0
6.800000 0.200000 0
6.900000 0.200000 0
7.000000 0.200000 0
7.100000 0.200000 0
7.200000 0.200000 0
7.300000 0.200000 0
7.400000 0.200000 0
7.500000 0.200000 0
7.600000 0.200000 0
7.700000 0.200000 0
7.800000 0.200000 0
7.900000 0.200000 0
8.000000 0.200000 0
8.100000 0.200000 0
8.200000 0.200000 0
8.300000 0.200000 0
8.400000 0.200000 0
8.500000 0.200000 0
8.600000 0.200000 0
8.700000 0.200000 0
8.800000 0.200000 0
8.900000 0.200000 0
9.000000 0.200000 0
9.100000 0.200000 0
9.200000 0.200000 0
9.300000 0.200000 0
9.400000 0.200000 0
9.500000 0.200000 0
9.600000 0.200000 0
9.700000 0.200000 0
9.800000 0.200000 0
0.000000 0.300000 0
0.100000 0.300000 0
0.200000 0.300000 0
0.300000 0.300000 0
0.400000 0.300000 0
0.500000 0.300000 0
0.600000 0.300000 0
0.700000 0.300000 0
0.800000 0.300000 0
0.900000 0.300000 0
1.000000 0.300000 0
1.100000 0.300000 0
1.200000 0.300000 0
1.300000 0.300000 0
1.400000 0.300000 0
1.500000 0.300000 0
1.600000 0.300000 0
1.700000 0.300000 0
1.800000 0.300000 0
1.900000 0.300000 0
2.000000 0.300000 0
2.100000 0.300000 0
2.200000 0.300000 0
2.300000 0.300000 0
2.400000 0.300000 0
2.500000 0.300000 0
2.600000 0.300000 0
2.700000 0.300000 0
2.800000 0.300000 0
2.900000 0.300000 0
3.000000 0.300000 0
3.100000 0.300000 0
3.200000 0.300000 0
3.300000 0.300000 0
3.400000 0.300000 0
3.500000 0.300000 0
3.600000 0.300000 0
3.700000 0.300000 0
3.800000 0.300000 0
3.900000 0.300000 0
4.000000 0.300000 0
4.100000 0.300000 0
4.200000 0.300000 0
4.300000 0.300000 0
4.400000 0.300000 0
4.500000 0.300000 0
4.600000 0.300000 0
4.700000 0.300000 0
4.800000 0.300000 0
4.900000 0.300000 0
5.000000 0.300000 0
5.100000 0.300000 0
5.200000 0.300000 0
5.300000 0.300000 0
5.400000 0.300000 0
5.500000 0.300000 0
5.600000 0.300000 0
5.700000 0.300000 0
5.800000 0.300000 0
5.900000 0.300000 0
6.000000 0.300000 0
6.100000 0.300000 0
6.200000 0.300000 0
6.300000 0.300000 0
6.400000 0.300000 0
6.500000 0.300000 0
6.600000 0.300000 0
6.700000 0.300000 0
6.800000 0.300000 0
6.900000 0.300000 0
7.000000 0.300000 0
7.100000 0.300000 0
7.200000 0.300000 0
7.300000 0.300000 0
7.400000 0.300000 0
7.500000 0.300000 0
7.600000 0.300000 0
7.700000 0.300000 0
7.800000 0.300000 0
7.900000 0.300000 0
8.000000 0.300000 0
8.100000 0.300000 0
8.200000 0.300000 0
8.300000 0.300000 0
8.400000 0.300000 0
8.500000 0.300000 0
8.600000 0.300000 0
8.700000 0.300000 0
8.800000 0.300000 0
8.900000 0.300000 0
9.000000 0.300000 0
9.100000 0.300000 0
9.200000 0.300000 0
9.300000 0.300000 0
9.400000 0.300000 0
9.500000 0.300000 0
9.600000 0.300000 0
9.700000 0.300000 0
9.800000 0.300000 0
0.000000 0.400000 0
0.100000 0.400000 0
0.200000 0.400000 0
0.300000 0.400000 0
0.400000 0.400000 0
0.500000 0.400000 0
0.600000 0.400000 0
0.700000 0.400000 0
0.800000 0.400000 0
0.900000 0.400000 0
1.000000 0.400000 0
1.100000 0.400000 0
1.200000 0.400000 0
1.300000 0.400000 0
1.400000 0.400000 0
1.500000 0.400000 0
1.600000 0.400000 0
1.700000 0.400000 0
1.800000 0.400000 0
1.900000 0.400000 0
2.000000 0.400000 0
2.100000 0.400000 0
2.200000 0.400000 0
2.300000 0.400000 0
2.400000 0.400000 0
2.500000 0.400000 0
2.600000 0.400000 0
2.700000 0.400000 0
2.800000 0.400000 0
2.900000 0.400000 0
3.000000 0.400000 0
3.100000 0.400000 0
3.200000 0.400000 0
3.300000 0.400000 0
3.400000 0.400000 0
3.500000 0.400000 0
3.600000 0.400000 0
3.700000 0.400000 0
3.800000 0.400000 0
3.900000 0.400000 0
4.000000 0.400000 0
4.100000 0.400000 0
4.200000 0.400000 0
4.300000 0.400000 0
4.400000 0.400000 0
4.500000 0.400000 0
4.600000 0.400000 0
4.700000 0.400000 0
4.800000 0.400000 0
4.900000 0.400000 0
5.000000 0.400000 0
5.100000 0.400000 0
5.200000 0.400000 0
5.300000 0.400000 0
5.400000 0.400000 0
5.500000 0.400000 0
5.600000 0.400000 0
5.700000 0.400000 0
5.800000 0.400000 0
5.900000 0.400000 0
6.000000 0.400000 0
6.100000 0.400000 0
6.200000 0.400000 0
6.300000 0.400000 0
6.400000 0.400000 0
6.500000 0.400000 0
6.600000 0.400000 0
6.700000 0.400000 0
6.800000 0.400000 0
6.900000 0.400000 0
7.000000 0.400000 0
7.100000 0.400000 0
7.200000 0.400000 0
7.300000 0.400000 0
7.400000 0.400000 0
7.500000 0.400000 0
7.600000 0.400000 0
7.700000 0.400000 0
7.800000 0.400000 0
7.900000 0.400000 0
8.000000 0.400000 0
8.100000 0.400000 0
8.200000 0.400000 0
8.300000 0.400000 0
8.400000 0.400000 0
8.500000 0.400000 0
8.600000 0.400000 0
8.700000 0.400000 0
8.800000 0.400000 0
8.900000 0.400000 0
9.000000 0.400000 0
9.100000 0.400000 0
9.200000 0.400000 0
9.300000 0.400000 0
9.400000 0.400000 0
[...]
POINT_DATA 1881 

VECTORS velocity float
0.500000 0.000000 0
0.502104 0.000000 0
0.506829 0.000000 0
0.514603 0.000000 0
0.525855 0.000000 0
0.540922 0.000000 0
0.559832 0.000000 0
0.582003 0.000000 0
0.606035 0.000000 0
0.629587 0.000000 0
0.650651 0.000000 0
0.668140 0.000000 0
0.681701 0.000000 0
0.691322 0.000000 0
0.697089 0.000000 0
0.699045 0.000000 0
0.697320 0.000000 0
0.692127 0.000000 0
0.683841 0.000000 0
0.673030 0.000000 0
0.660423 0.000000 0
0.646865 0.000000 0
0.633267 0.000000 0
0.620541 0.000000 0
0.609550 0.000000 0
0.601063 0.000000 0
0.595750 0.000000 0
0.594194 0.000000 0
0.596723 0.000000 0
0.603115 0.000000 0
0.612399 0.000000 0
0.622878 0.000000 0
0.632451 0.000000 0
0.639196 0.000000 0
0.641923 0.000000 0
0.640276 0.000000 0
0.634415 0.000000 0
0.624852 0.000000 0
0.612302 0.000000 0
0.597553 0.000000 0
0.581400 0.000000 0
0.564609 0.000000 0
0.547924 0.000000 0
0.532075 0.000000 0
0.517798 0.000000 0
0.505863 0.000000 0
0.497102 0.000000 0
0.492393 0.000000 0
0.492464 0.000000 0
0.497508 0.000000 0
0.507312 0.000000 0
0.521335 0.000000 0
0.538698 0.000000 0
0.558174 0.000000 0
0.578153 0.000000 0
0.596665 0.000000 0
0.611576 0.000000 0
0.621054 0.000000 0
0.624180 0.000000 0
0.621053 0.000000 0
0.612215 0.000000 0
0.598512 0.000000 0
0.581051 0.000000 0
0.561116 0.000000 0
0.540081 0.000000 0
0.519327 0.000000 0
0.500187 0.000000 0
0.483887 0.000000 0
0.471470 0.000000 0
0.463688 0.000000 0
0.460842 0.000000 0
0.462539 0.000000 0
0.467884 0.000000 0
0.476053 0.000000 0
0.486425 0.000000 0
0.498564 0.000000 0
0.512137 0.000000 0
0.526792 0.000000 0
0.542008 0.000000 0
0.556975 0.000000 0
0.570549 0.000000 0
0.581360 0.000000 0
0.588106 0.000000 0
0.589960 0.000000 0
0.586722 0.000000 0
0.578518 0.000000 0
0.565773 0.000000 0
0.549287 0.000000 0
0.530276 0.000000 0
0.510363 0.000000 0
0.491456 0.000000 0
0.475472 0.000000 0
0.463953 0.000000 0
0.457738 0.000000 0
0.456776 0.000000 0
0.460078 0.000000 0
0.466545 0.000000 0
0.475553 0.000000 0
0.487525 0.000000 0
1.000000 -0.002121 0
1.004762 -0.006858 0
1.014836 -0.012524 0
1.030993 -0.019052 0
1.054176 -0.026344 0
1.085254 -0.033996 0
1.124566 -0.041095 0
1.171202 -0.046203 0
1.222426 -0.047565 0
1.272282 -0.044591 0
1.316189 -0.038534 0
1.352196 -0.031042 0
1.380020 -0.023188 0
1.399972 -0.015386 0
1.412292 -0.007714 0
1.417025 -0.000232 0
1.414302 0.006918 0
1.404477 0.013475 0
1.388287 0.019088 0
1.366889 0.023407 0
1.341790 0.026151 0
1.314742 0.027139 0
1.287624 0.026305 0
1.262315 0.023696 0
1.240575 0.019457 0
1.223949 0.013780 0
1.213744 0.006853 0
1.211055 -0.000987 0
1.216630 -0.008927 0
1.230314 -0.015672 0
1.250427 -0.019753 0
1.273583 -0.020035 0
1.295318 -0.016297 0
1.311335 -0.009452 0
1.318785 -0.001065 0
1.316809 0.007516 0
1.305904 0.015425 0
1.287308 0.022114 0
1.262605 0.027300 0
1.233479 0.030902 0
1.201572 0.032942 0
1.168440 0.033472 0
1.135572 0.032530 0
1.104416 0.030121 0
1.076402 0.026205 0
1.052943 0.020688 0
1.035379 0.013461 0
1.024868 0.004628 0
1.022296 -0.005124 0
1.028221 -0.014857 0
1.042726 -0.023836 0
1.065318 -0.031393 0
1.094888 -0.036843 0
1.129717 -0.039454 0
1.167394 -0.038487 0
1.204692 -0.033416 0
1.237668 -0.024379 0
1.262186 -0.012593 0
1.274907 0.000012 0
1.274515 0.011974 0
1.261971 0.022548 0
1.239084 0.031168 0
1.208169 0.037396 0
1.171860 0.040968 0
1.132919 0.041787 0
1.094083 0.039891 0
1.057911 0.035437 0
1.026617 0.028714 0
1.001869 0.020196 0
0.984588 0.010625 0
0.974870 0.001146 0
0.972188 -0.007044 0
0.975648 -0.013516 0
0.984267 -0.018544 0
0.997274 -0.022514 0
1.014164 -0.025714 0
1.034626 -0.028229 0
1.058336 -0.029870 0
1.084659 -0.030180 0
1.112382 -0.028537 0
1.139604 -0.024381 0
1.163825 -0.017553 0
1.182241 -0.008595 0
1.192265 0.001388 0
1.192340 0.011445 0
1.182554 0.020951 0
1.163863 0.029233 0
1.137929 0.035498 0
1.107086 0.038925 0
1.074211 0.038820 0
1.042433 0.034891 0
1.014666 0.027504 0
0.993076 0.017734 0
0.978712 0.007178 0
0.971532 -0.002340 0
0.970854 -0.009769 0
0.975656 -0.015475 0
0.985089 -0.020980 0
0.999225 -0.024103 0
1.000000 -0.004790 0
1.004910 -0.014880 0
1.014969 -0.026263 0
1.030984 -0.039371 0
1.054222 -0.054286 0
1.086199 -0.070408 0
1.128260 -0.085954 0
1.180431 -0.097842 0
1.240975 -0.101051 0
1.297992 -0.093741 0
1.345238 -0.079903 0
1.382105 -0.063838 0
1.409952 -0.047783 0
1.430099 -0.032264 0
1.443024 -0.017047 0
1.448487 -0.002011 0
1.446248 0.012544 0
1.436421 0.026007 0
1.419686 0.037575 0
1.397285 0.046481 0
1.370863 0.052127 0
1.342325 0.054144 0
1.313700 0.052403 0
1.287006 0.047024 0
1.264088 0.038342 0
1.246476 0.026810 0
1.235375 0.012876 0
1.231891 -0.002895 0
1.237244 -0.019257 0
1.252031 -0.033784 0
1.275102 -0.043248 0
1.303093 -0.044867 0
1.330902 -0.037728 0
1.352904 -0.023448 0
1.364819 -0.005464 0
1.365410 0.012881 0
1.355846 0.029501 0
1.337943 0.043301 0
1.313700 0.053828 0
1.285017 0.061032 0
1.253598 0.065036 0
1.220962 0.065994 0
1.188496 0.064018 0
1.157509 0.059162 0
1.129236 0.051463 0
1.104788 0.041013 0
1.085045 0.028065 0
1.070536 0.013071 0
1.061551 -0.003364 0
1.058555 -0.020439 0
1.062076 -0.037105 0
1.072417 -0.052167 0
1.089671 -0.064399 0
1.113755 -0.072502 0
1.144066 -0.074968 0
1.178951 -0.070263 0
1.215399 -0.057481 0
1.249099 -0.037226 0
1.274967 -0.012317 0
1.288649 0.012945 0
1.289138 0.035435 0
1.278116 0.053802 0
1.257839 0.067222 0
1.230853 0.075248 0
1.199782 0.077773 0
1.167154 0.075004 0
1.135223 0.067462 0
1.105786 0.056038 0
1.080034 0.042026 0
1.058484 0.026997 0
1.041105 0.012397 0
1.027746 -0.000781 0
1.018319 -0.012082 0
1.012672 -0.021629 0
1.010876 -0.029900 0
1.013308 -0.037354 0
1.020559 -0.044171 0
1.033156 -0.050030 0
1.051141 -0.054041 0
1.073797 -0.054940 0
1.099636 -0.051438 0
1.126521 -0.042631 0
1.151791 -0.028434 0
1.172403 -0.010094 0
1.185496 0.009714 0
1.189714 0.028479 0
1.185614 0.044626 0
1.174494 0.056777 0
1.158128 0.063719 0
1.138497 0.064654 0
1.117496 0.059546 0
1.096686 0.049357 0
1.077168 0.035955 0
1.059617 0.021544 0
1.044482 0.007857 0
1.032327 -0.004123 0
1.023463 -0.014234 0
1.017751 -0.023569 0
1.014675 -0.028938 0
1.000000 -0.007052 0
1.003924 -0.021855 0
1.012254 -0.038609 0
1.026028 -0.058312 0
1.047042 -0.081560 0
1.077927 -0.108027 0
1.122040 -0.135304 0
1.181837 -0.158894 0
1.261221 -0.165117 0
1.328029 -0.148862 0
1.375688 -0.122669 0
1.408996 -0.095773 0
1.432988 -0.071176 0
1.450757 -0.048452 0
1.463151 -0.026107 0
1.468964 -0.003458 0
1.466680 0.018978 0
1.455836 0.040028 0
1.437035 0.058215 0
1.411706 0.072220 0
1.381734 0.081101 0
1.349269 0.084292 0
1.316594 0.081615 0
1.285995 0.073301 0
1.259517 0.059982 0
1.238666 0.042490 0
1.224304 0.021440 0
1.217039 -0.002843 0
1.218277 -0.029051 0
1.229836 -0.053514 0
1.251738 -0.070798 0
1.281745 -0.075824 0
1.315511 -0.066105 0
1.346608 -0.043374 0
1.367842 -0.013584 0
1.374697 0.016480 0
1.368497 0.042892 0
1.352244 0.064260 0
1.328785 0.080223 0
1.300480 0.091000 0
1.269198 0.096995 0
1.236435 0.098570 0
1.203447 0.095978 0
1.171345 0.089378 0
1.141139 0.078922 0
1.113714 0.064874 0
1.089730 0.047709 0
1.069463 0.028118 0
1.052670 0.006854 0
1.038800 -0.015384 0
1.027938 -0.037696 0
1.021574 -0.058984 0
1.021867 -0.078175 0
1.031078 -0.093841 0
1.050409 -0.103674 0
1.079204 -0.104741 0
1.115007 -0.094521 0
1.153957 -0.072158 0
1.191145 -0.039539 0
1.220954 -0.002200 0
1.238552 0.033076 0
1.243696 0.062461 0
1.238174 0.084656 0
1.224144 0.099023 0
1.203873 0.105483 0
1.179538 0.104449 0
1.153071 0.096805 0
1.126045 0.083902 0
1.099636 0.067498 0
1.074619 0.049553 0
1.051385 0.031883 0
1.029925 0.015740 0
1.010111 0.001556 0
0.992143 -0.011102 0
0.976947 -0.023149 0
0.966390 -0.035395 0
0.962481 -0.048073 0
0.966443 -0.060449 0
0.978283 -0.070818 0
0.996928 -0.077029 0
1.020636 -0.077102 0
1.047367 -0.069705 0
1.074988 -0.054475 0
1.101324 -0.032318 0
1.123954 -0.005867 0
1.140254 0.020832 0
1.149294 0.044452 0
1.151509 0.062985 0
1.147767 0.074924 0
1.139112 0.079453 0
1.126552 0.076702 0
1.111000 0.067832 0
1.093328 0.054803 0
1.074455 0.039864 0
1.055293 0.024950 0
1.036559 0.011249 0
1.018903 -0.000898 0
1.002791 -0.012192 0
0.988412 -0.019032 0
1.000000 -0.008734 0
1.002510 -0.027157 0
1.008049 -0.048373 0
1.017760 -0.074161 0
1.033851 -0.106181 0
1.060219 -0.145391 0
1.103321 -0.189843 0
1.171089 -0.237016 0
1.286906 -0.247251 0
1.357853 -0.208225 0
1.392750 -0.160889 0
1.411451 -0.121132 0
1.423852 -0.089531 0
1.434877 -0.062428 0
1.445970 -0.035257 0
1.454326 -0.005544 0
1.454444 0.025665 0
1.444361 0.055643 0
1.424714 0.081697 0
1.397249 0.101773 0
1.364083 0.114555 0
1.327561 0.119276 0
1.290253 0.115670 0
1.254857 0.104096 0
1.223829 0.085667 0
1.198658 0.062024 0
1.179296 0.034514 0
1.164552 0.003145 0
1.153709 -0.032039 0
1.150097 -0.067230 0
1.157503 -0.095147 0
1.177787 -0.108637 0
1.210403 -0.102595 0
1.250681 -0.075791 0
1.289527 -0.033563 0
1.315925 0.012227 0
1.324306 0.051955 0
1.318662 0.083010 0
1.303000 0.105590 0
1.280400 0.120615 0
1.253133 0.129077 0
1.222918 0.131742 0
1.191120 0.129104 0
1.158885 0.121466 0
1.127207 0.109090 0
1.096891 0.092418 0
1.068324 0.072312 0
1.041079 0.050128 0
1.013782 0.027296 0
0.985089 0.004292 0
0.955638 -0.019876 0
0.929581 -0.046091 0
0.913502 -0.073896 0
0.911626 -0.101036 0
0.924338 -0.123086 0
0.949607 -0.134855 0
0.984381 -0.132229 0
1.025197 -0.113363 0
1.068275 -0.079317 0
1.109297 -0.034467 0
1.142756 0.012689 0
1.164399 0.054177 0
1.174658 0.086771 0
1.174988 0.109547 0
1.167120 0.122378 0
1.152818 0.125806 0
1.133717 0.120955 0
1.111205 0.109472 0
1.086329 0.093451 0
1.059709 0.075247 0
1.031576 0.057089 0
1.002126 0.040491 0
0.972178 0.025699 0
0.943701 0.011535 0
0.919548 -0.004145 0
0.902580 -0.022884 0
0.894902 -0.044220 0
0.896944 -0.065828 0
0.907637 -0.084522 0
0.925210 -0.097291 0
0.947767 -0.101875 0
0.973518 -0.096981 0
1.000838 -0.082391 0
1.028232 -0.059060 0
1.054201 -0.029216 0
1.076793 0.003138 0
1.093823 0.033372 0
1.104732 0.058306 0
1.109581 0.076117 0
1.108668 0.085870 0
1.102388 0.087657 0
1.091214 0.082582 0
1.075734 0.072501 0
1.056693 0.059580 0
1.035019 0.045754 0
1.011855 0.032267 0
0.988613 0.019533 0
0.966907 0.006921 0
0.948546 -0.001388 0
1.000000 -0.009580 0
1.000585 -0.029923 0
1.002104 -0.053861 0
1.005406 -0.084112 0
1.012456 -0.124010 0
1.027575 -0.177480 0
1.060115 -0.246163 0
1.127406 -0.342481 0
1.299347 -0.351895 0
1.341035 -0.254722 0
1.331946 -0.176263 0
1.318428 -0.126861 0
1.307932 -0.094597 0
1.304306 -0.070573 0
1.310555 -0.045561 0
1.325045 -0.011938 0
1.335543 0.028935 0
1.333344 0.069750 0
1.319593 0.105318 0
1.296551 0.132844 0
1.266065 0.150781 0
1.230076 0.158114 0
1.191054 0.154314 0
1.152123 0.139722 0
1.116468 0.116182 0
1.085291 0.087032 0
1.055970 0.055559 0
1.024368 0.022757 0
0.989494 -0.014583 0
0.956303 -0.057298 0
0.937935 -0.098484 0
0.943207 -0.128727 0
0.972164 -0.139008 0
1.019738 -0.122510 0
1.077576 -0.078828 0
1.133956 -0.018296 0
1.175217 0.040153 0
1.196794 0.085562 0
1.203410 0.118481 0
1.198713 0.140864 0
1.185343 0.154473 0
1.165370 0.160580 0
1.140492 0.160007 0
1.112073 0.153286 0
1.080963 0.140912 0
1.047112 0.123754 0
1.009339 0.103518 0
0.966197 0.082657 0
0.918272 0.062842 0
0.870049 0.042763 0
0.828659 0.017816 0
0.800337 -0.016842 0
0.788288 -0.060212 0
0.791716 -0.104669 0
0.807746 -0.141649 0
0.833589 -0.164779 0
0.867050 -0.170110 0
0.906154 -0.156055 0
0.948723 -0.123644 0
0.992172 -0.076685 0
1.033192 -0.022028 0
1.066480 0.030558 0
1.089298 0.074065 0
1.102008 0.106560 0
1.105515 0.127652 0
1.100940 0.137851 0
1.089382 0.138418 0
1.071720 0.131290 0
1.048486 0.118993 0
1.019936 0.104305 0
0.986549 0.089464 0
0.949861 0.075137 0
0.913049 0.059980 0
0.880510 0.041530 0
0.856331 0.017974 0
0.842567 -0.010745 0
0.839049 -0.042433 0
0.844195 -0.073180 0
0.856043 -0.099081 0
0.872902 -0.117155 0
0.893460 -0.125408 0
0.916638 -0.122775 0
0.941444 -0.109189 0
0.966895 -0.085681 0
0.991982 -0.054429 0
1.015585 -0.018789 0
1.035802 0.016514 0
1.051041 0.047228 0
1.060715 0.070989 0
1.064533 0.086646 0
1.062388 0.094156 0
1.054333 0.094486 0
1.040631 0.089325 0
1.021870 0.080580 0
0.999127 0.069788 0
0.974094 0.057655 0
0.949059 0.044050 0
0.926626 0.027875 0
0.909696 0.016047 0
1.000000 -0.009334 0
0.998294 -0.029276 0
0.994830 -0.053192 0
0.989579 -0.084509 0
0.982978 -0.128338 0
0.977113 -0.193037 0
0.979269 -0.289669 0
1.011291 -0.476254 0
1.201252 -0.460891 0
1.146752 -0.240825 0
1.053485 -0.138268 0
1.000909 -0.097111 0
0.963468 -0.075412 0
0.939645 -0.065058 0
0.936354 -0.056004 0
0.958979 -0.030540 0
0.997518 0.017357 0
1.024776 0.071585 0
1.036725 0.118483 0
1.036712 0.155294 0
1.024473 0.181023 0
0.999867 0.194282 0
0.963215 0.193619 0
0.914905 0.178681 0
0.855766 0.152506 0
0.789028 0.122533 0
0.722205 0.095448 0
0.665474 0.069634 0
0.627745 0.036038 0
0.612342 -0.015664 0
0.617934 -0.082052 0
0.642477 -0.142872 0
0.683719 -0.179137 0
0.739347 -0.181207 0
0.806514 -0.147777 0
0.880466 -0.085415 0
0.951643 -0.010887 0
1.006358 0.054814 0
1.041780 0.103666 0
1.061602 0.138678 0
1.068321 0.162416 0
1.063905 0.176589 0
1.049927 0.182397 0
1.027343 0.180992 0
0.996131 0.174047 0
0.955342 0.164038 0
0.904374 0.153224 0
0.845637 0.141194 0
0.786507 0.123445 0
0.737534 0.093909 0
0.707174 0.049841 0
0.697261 -0.005712 0
0.702512 -0.065267 0
0.716485 -0.120488 0
0.735625 -0.164955 0
0.758969 -0.194156 0
0.786780 -0.204795 0
0.819309 -0.195041 0
0.856022 -0.165340 0
0.895429 -0.118938 0
0.935325 -0.061620 0
0.972479 -0.001931 0
1.002117 0.051242 0
1.022805 0.093329 0
1.034417 0.123445 0
1.037218 0.141939 0
1.031541 0.150174 0
1.017602 0.150367 0
0.995573 0.145234 0
0.966061 0.137182 0
0.930920 0.127163 0
0.893768 0.113990 0
0.859463 0.095050 0
0.832527 0.068255 0
0.815566 0.033802 0
0.808767 -0.005599 0
0.810237 -0.045844 0
0.817518 -0.082818 0
0.828773 -0.113227 0
0.842936 -0.134706 0
0.859476 -0.145609 0
0.878086 -0.144965 0
0.898409 -0.132648 0
0.919898 -0.109598 0
0.941811 -0.077906 0
0.963257 -0.040680 0
0.983065 -0.002081 0
0.999328 0.033394 0
1.010892 0.062624 0
1.017024 0.084196 0
1.017243 0.097858 0
1.011325 0.104340 0
0.999413 0.104964 0
0.982205 0.101084 0
0.961109 0.093530 0
0.938233 0.082335 0
0.916097 0.067002 0
0.897151 0.046284 0
0.883776 0.030459 0
1.000000 -0.007884 0
0.996053 -0.024763 0
0.987577 -0.045144 0
0.973238 -0.072251 0
0.950722 -0.111531 0
0.916313 -0.173762 0
0.864335 -0.280340 0
0.790880 -0.564468 0
0.552173 -0.390347 0
0.490839 0.000000 0
0.418300 -0.020479 0
0.352062 -0.036848 0
0.339490 -0.033339 0
0.355732 -0.043466 0
0.377307 -0.064903 0
0.417172 -0.073109 0
0.483190 -0.036870 0
0.557844 0.030536 0
0.613191 0.093375 0
0.649289 0.145089 0
0.663823 0.187621 0
0.655138 0.219369 0
0.622626 0.239275 0
0.567376 0.247174 0
0.494630 0.242068 0
0.416781 0.220603 0
0.352491 0.179125 0
0.318696 0.117229 0
0.321775 0.038556 0
0.354079 -0.047485 0
0.397559 -0.128623 0
0.442053 -0.194520 0
0.487519 -0.235885 0
0.537962 -0.245304 0
0.596937 -0.219947 0
0.665242 -0.163428 0
0.740018 -0.085742 0
0.811675 -0.004579 0
0.867750 0.063234 0
0.906476 0.114318 0
0.929547 0.152166 0
0.938052 0.178970 0
0.932680 0.196565 0
0.913601 0.207078 0
0.880800 0.212910 0
0.835448 0.215508 0
0.782070 0.213220 0
0.729453 0.200525 0
0.687966 0.170949 0
0.664476 0.122101 0
0.659394 0.058095 0
0.667979 -0.012173 0
0.682944 -0.079429 0
0.699059 -0.137777 0
0.714479 -0.184131 0
0.729773 -0.215934 0
0.746876 -0.230453 0
0.767940 -0.225302 0
0.794170 -0.199767 0
0.825183 -0.155990 0
0.859201 -0.099080 0
0.893690 -0.036235 0
0.924684 0.023737 0
0.948710 0.074259 0
0.964588 0.113238 0
0.971738 0.140726 0
0.969832 0.158032 0
0.958766 0.167256 0
0.939024 0.170532 0
0.912293 0.168956 0
0.881892 0.161757 0
0.852363 0.146594 0
0.828092 0.121223 0
0.811789 0.085429 0
0.803911 0.041737 0
0.803217 -0.005412 0
0.807619 -0.051180 0
0.815028 -0.091713 0
0.824059 -0.124496 0
0.834103 -0.147857 0
0.845170 -0.160558 0
0.857600 -0.161708 0
0.871713 -0.151000 0
0.887513 -0.129082 0
0.904574 -0.097785 0
0.922121 -0.060040 0
0.939151 -0.019556 0
0.954140 0.019401 0
0.965523 0.053293 0
0.972287 0.080295 0
0.973750 0.099855 0
0.969607 0.112317 0
0.960065 0.118445 0
0.946006 0.118884 0
0.929009 0.113760 0
0.911142 0.102667 0
0.894530 0.085132 0
0.880899 0.060195 0
0.871584 0.041008 0
1.000000 -0.005394 0
0.994443 -0.016858 0
0.982333 -0.030371 0
0.961294 -0.047642 0
0.926692 -0.071401 0
0.869436 -0.106643 0
0.770105 -0.164236 0
0.586561 -0.261108 0
0.000000 -0.160850 0
0.000000 0.000000 0
0.000000 0.000000 0
-0.030922 -0.028748 0
-0.049150 -0.079086 0
-0.032933 -0.102881 0
-0.029247 -0.117451 0
-0.014181 -0.136430 0
0.030303 -0.123321 0
0.112040 -0.058422 0
0.204122 0.027031 0
0.270057 0.104656 0
0.304545 0.175171 0
0.312937 0.235478 0
0.297601 0.281383 0
0.265538 0.306683 0
0.230436 0.303110 0
0.208490 0.264682 0
0.210780 0.193545 0
0.238692 0.100359 0
0.283603 0.000659 0
0.329342 -0.091450 0
0.367937 -0.170032 0
0.397904 -0.232841 0
0.422412 -0.275047 0
0.447937 -0.290624 0
0.481476 -0.275060 0
0.527349 -0.228500 0
0.585284 -0.157323 0
0.650649 -0.072922 0
0.712324 0.008861 0
0.759731 0.076877 0
0.791270 0.130835 0
0.806872 0.173451 0
0.806572 0.206845 0
0.790907 0.232869 0
0.762002 0.252198 0
0.724977 0.262766 0
0.688253 0.259218 0
0.661202 0.235300 0
0.649938 0.188427 0
0.654696 0.122486 0
0.670977 0.046345 0
0.692143 -0.029255 0
0.711901 -0.096341 0
0.727215 -0.152019 0
0.737212 -0.195667 0
0.742884 -0.226555 0
0.746891 -0.242967 0
0.752882 -0.242338 0
0.764149 -0.222585 0
0.782205 -0.183971 0
0.806251 -0.130130 0
0.833788 -0.067416 0
0.861483 -0.003779 0
0.884966 0.053424 0
0.901869 0.100416 0
0.910949 0.136694 0
0.911561 0.163145 0
0.903756 0.181173 0
0.888681 0.191706 0
0.868914 0.194313 0
0.848223 0.187092 0
0.830541 0.167792 0
0.818616 0.135626 0
0.813276 0.092438 0
0.813703 0.042378 0
0.818284 -0.009302 0
0.825065 -0.057652 0
0.832378 -0.099255 0
0.839137 -0.132300 0
0.844926 -0.155815 0
0.850032 -0.169105 0
0.855293 -0.171509 0
0.861743 -0.162561 0
0.870143 -0.142456 0
0.880647 -0.112511 0
0.892757 -0.075256 0
0.905513 -0.034100 0
0.917648 0.007022 0
0.927535 0.044478 0
0.934006 0.075970 0
0.936311 0.100538 0
0.934172 0.118025 0
0.927891 0.128565 0
0.918400 0.132140 0
0.907145 0.128394 0
0.895762 0.116815 0
0.885667 0.097245 0
0.877753 0.069229 0
0.872403 0.047768 0
1.000000 -0.002330 0
0.993911 -0.007097 0
0.980670 -0.011985 0
0.957806 -0.016597 0
0.920607 -0.019662 0
0.860332 -0.017170 0
0.760396 0.002536 0
0.587486 0.102971 0
0.273825 0.093549 0
0.000000 0.000000 0
0.000000 0.000000 0
0.000000 0.000000 0
-0.030607 -0.033189 0
-0.113458 -0.063375 0
-0.175704 -0.083662 0
-0.198416 -0.132667 0
-0.188483 -0.163096 0
-0.143729 -0.143289 0
-0.065525 -0.064647 0
0.012954 0.044663 0
0.067476 0.144738 0
0.102465 0.226312 0
0.122720 0.286679 0
0.138006 0.314348 0
0.160920 0.299125 0
0.200648 0.240270 0
0.258481 0.148935 0
0.326831 0.044414 0
0.387736 -0.052092 0
0.432687 -0.131823 0
0.460944 -0.197193 0
0.473070 -0.249000 0
0.472335 -0.285918 0
0.465636 -0.304371 0
0.462575 -0.299363 0
0.472200 -0.267239 0
0.499002 -0.209046 0
0.541041 -0.131623 0
0.591137 -0.045854 0
0.637040 0.035368 0
0.670706 0.105022 0
0.690298 0.163664 0
0.695715 0.212527 0
0.688708 0.251645 0
0.673594 0.278837 0
0.657307 0.289256 0
0.647722 0.276997 0
0.650478 0.238843 0
0.666558 0.177460 0
0.692670 0.101067 0
0.723493 0.020656 0
0.752192 -0.053090 0
0.774622 -0.114496 0
0.789022 -0.163086 0
0.794731 -0.199799 0
0.792338 -0.225615 0
0.784128 -0.240455 0
0.774175 -0.242562 0
0.767453 -0.229092 0
0.768003 -0.198095 0
0.777240 -0.150664 0
0.793662 -0.091469 0
0.813956 -0.027442 0
0.833793 0.033872 0
0.849592 0.087253 0
0.859518 0.131032 0
0.862814 0.165224 0
0.859815 0.190135 0
0.852106 0.205373 0
0.842396 0.209414 0
0.833831 0.200131 0
0.828919 0.176202 0
0.828742 0.138490 0
0.832944 0.090345 0
0.840324 0.036733 0
0.849373 -0.016769 0
0.858352 -0.065270 0
0.865890 -0.105783 0
0.871003 -0.137042 0
0.873227 -0.158750 0
0.872814 -0.170923 0
0.870802 -0.173419 0
0.868786 -0.165849 0
0.868385 -0.147983 0