# vtk DataFile Version 2.0
generated by CFD-lab course output (written by Tobias Neckel) 
ASCII

DATASET STRUCTURED_GRID
DIMENSIONS  99 19 1 
POINTS 1881 float

0.000000 0.000000 0
0.100000 0.000000 0
0.200000 0.000000 0
0.300000 0.000000 0
0.400000 0.000000 0
0.500000 0.000000 0
0.600000 0.000000 0
0.700000 0.000000 0
0.800000 0.000000 0
0.900000 0.000000 0
1.000000 0.000000 0
1.100000 0.000000 0
1.200000 0.000000 0
1.300000 0.000000 0
1.400000 0.000000 0
1.500000 0.000000 0
1.600000 0.000000 0
1.700000 0.000000 0
1.800000 0.000000 0
1.900000 0.000000 0
2.000000 0.000000 0
2.100000 0.000000 0
2.200000 0.000000 0
2.300000 0.000000 0
2.400000 0.000000 0
2.500000 0.000000 0
2.600000 0.000000 0
2.700000 0.000000 0
2.800000 0.000000 0
2.900000 0.000000 0
3.000000 0.000000 0
3.100000 0.000000 0
3.200000 0.000000 0
3.300000 0.000000 0
3.400000 0.000000 0
3.500000 0.000000 0
3.600000 0.000000 0
3.700000 0.000000 0
3.800000 0.000000 0
3.900000 0.000000 0
4.000000 0.000000 0
4.100000 0.000000 0
4.200000 0.000000 0
4.300000 0.000000 0
4.400000 0.000000 0
4.500000 0.000000 0
4.600000 0.000000 0
4.700000 0.000000 0
4.800000 0.000000 0
4.900000 0.000000 0
5.000000 0.000000 0
5.100000 0.000000 0
5.200000 0.000000 0
5.300000 0.000000 0
5.400000 0.000000 0
5.500000 0.000000 0
5.600000 0.000000 0
5.700000 0.000000 0
5.800000 0.000000 0
5.900000 0.000000 0
6.000000 0.000000 0
6.100000 0.000000 0
6.200000 0.000000 0
6.300000 0.000000 0
6.400000 0.000000 0
6.500000 0.000000 0
6.600000 0.000000 0
6.700000 0.000000 0
6.800000 0.000000 0
6.900000 0.000000 0
7.000000 0.000000 0
7.100000 0.000000 0
7.200000 0.000000 0
7.300000 0.000000 0
7.400000 0.000000 0
7.500000 0.000000 0
7.600000 0.000000 0
7.700000 0.000000 0
7.800000 0.000000 0
7.900000 0.000000 0
8.000000 0.000000 0
8.100000 0.000000 0
8.200000 0.000000 0
8.300000 0.000000 0
8.400000 0.000000 0
8.500000 0.000000 0
8.600000 0.000000 0
8.700000 0.000000 0
8.800000 0.000000 0
8.900000 0.000000 0
9.000000 0.000000 0
9.100000 0.000000 0
9.200000 0.000000 0
9.300000 0.000000 0
9.400000 0.000000 0
9.500000 0.000000 0
9.600000 0.000000 0
9.700000 0.000000 0
9.800000 0.000000 0
0.000000 0.100000 0
0.100000 0.100000 0
0.200000 0.100000 0
0.300000 0.100000 0
0.400000 0.100000 0
0.500000 0.100000 0
0.600000 0.100000 0
0.700000 0.100000 0
0.800000 0.100000 0
0.900000 0.100000 0
1.000000 0.100000 0
1.100000 0.100000 0
1.200000 0.100000 0
1.300000 0.100000 0
1.400000 0.100000 0
1.500000 0.100000 0
1.600000 0.100000 0
1.700000 0.100000 0
1.800000 0.100000 0
1.900000 0.100000 0
2.000000 0.100000 0
2.100000 0.100000 0
2.200000 0.100000 0
2.300000 0.100000 0
2.400000 0.100000 0
2.500000 0.100000 0
2.600000 0.100000 0
2.700000 0.100000 0
2.800000 0.100000 0
2.900000 0.100000 0
3.000000 0.100000 0
3.100000 0.100000 0
3.200000 0.100000 0
3.300000 0.100000 0
3.400000 0.100000 0
3.500000 0.100000 0
3.600000 0.100000 0
3.700000 0.100000 0
3.800000 0.100000 0
3.900000 0.100000 0
4.000000 0.100000 0
4.100000 0.100000 0
4.200000 0.100000 0
4.300000 0.100000 0
4.400000 0.100000 0
4.500000 0.100000 0
4.600000 0.100000 0
4.700000 0.100000 0
4.800000 0.100000 0
4.900000 0.100000 0
5.000000 0.100000 0
5.100000 0.100000 0
5.200000 0.100000 0
5.300000 0.100000 0
5.400000 0.100000 0
5.500000 0.100000 0
5.600000 0.100000 0
5.700000 0.100000 0
5.800000 0.100000 0
5.900000 0.100000 0
6.000000 0.100000 0
6.100000 0.100000 0
6.200000 0.100000 0
6.300000 0.100000 0
6.400000 0.100000 0
6.500000 0.100000 0
6.600000 0.100000 0
6.700000 0.100000 0
6.800000 0.100000 0
6.900000 0.100000 0
7.000000 0.100000 0
7.100000 0.100000 0
7.200000 0.100000 0
7.300000 0.100000 0
7.400000 0.100000 0
7.500000 0.100000 0
7.600000 0.100000 0
7.700000 0.100000 0
7.800000 0.100000 0
7.900000 0.100000 0
8.000000 0.100000 0
8.100000 0.100000 0
8.200000 0.100000 0
8.300000 0.100000 0
8.400000 0.100000 0
8.500000 0.100000 0
8.600000 0.100000 0
8.700000 0.100000 0
8.800000 0.100000 0
8.900000 0.100000 0
9.000000 0.100000 0
9.100000 0.100000 0
9.200000 0.100000 0
9.300000 0.100000 0
9.400000 0.100000 0
9.500000 0.100000 0
9.600000 0.100000 0
9.700000 0.100000 0
9.800000 0.100000 0
0.000000 0.200000 0
0.100000 0.200000 0
0.200000 0.200000 0
0.300000 0.200000 0
0.400000 0.200000 0
0.500000 0.200000 0
0.600000 0.200000 0
0.700000 0.200000 0
0.800000 0.200000 0
0.900000 0.200000 0
1.000000 0.200000 0
1.100000 0.200000 0
1.200000 0.200000 0
1.300000 0.200000 0
1.400000 0.200000 0
1.500000 0.200000 0
1.600000 0.200000 0
1.700000 0.200000 0
1.800000 0.200000 0
1.900000 0.200000 0
2.000000 0.200000 0
2.100000 0.200000 0
2.200000 0.200000 0
2.300000 0.200000 0
2.400000 0.200000 0
2.500000 0.200000 0
2.600000 0.200000 0
2.700000 0.200000 0
2.800000 0.200000 0
2.900000 0.200000 0
3.000000 0.200000 0
3.100000 0.200000 0
3.200000 0.200000 0
3.300000 0.200000 0
3.400000 0.200000 0
3.500000 0.200000 0
3.600000 0.200000 0
3.700000 0.200000 0
3.800000 0.200000 0
3.900000 0.200000 0
4.000000 0.200000 0
4.100000 0.200000 0
4.200000 0.200000 0
4.300000 0.200000 0
4.400000 0.200000 0
4.500000 0.200000 0
4.600000 0.200000 0
4.700000 0.200000 0
4.800000 0.200000 0
4.900000 0.200000 0
5.000000 0.200000 0
5.100000 0.200000 0
5.200000 0.200000 0
5.300000 0.200000 0
5.400000 0.200000 0
5.500000 0.200000 0
5.600000 0.200000 0
5.700000 0.200000 0
5.800000 0.200000 0
5.900000 0.200000 0
6.000000 0.200000 0
6.100000 0.200000 0
6.200000 0.200000 0
6.300000 0.200000 0
6.400000 0.200000 0
6.500000 0.200000 0
6.600000 0.200000 0
6.700000 0.200000 0
6.800000 0.200000 0
6.900000 0.200000 0
7.000000 0.200000 0
7.100000 0.200000 0
7.200000 0.200000 0
7.300000 0.200000 0
7.400000 0.200000 0
7.500000 0.200000 0
7.600000 0.200000 0
7.700000 0.200000 0
7.800000 0.200000 0
7.900000 0.200000 0
8.000000 0.200000 0
8.100000 0.200000 0
8.200000 0.200000 0
8.300000 0.200000 0
8.400000 0.200000 0
8.500000 0.200000 0
8.600000 0.200000 0
8.700000 0.200000 0
8.800000 0.200000 0
8.900000 0.200000 0
9.000000 0.200000 0
9.100000 0.200000 0
9.200000 0.200000 0
9.300000 0.200000 0
9.400000 0.200000 0
9.500000 0.200000 0
9.600000 0.200000 0
9.700000 0.200000 0
9.800000 0.200000 0
0.000000 0.300000 0
0.100000 0.300000 0
0.200000 0.300000 0
0.300000 0.300000 0
0.400000 0.300000 0
0.500000 0.300000 0
0.600000 0.300000 0
0.700000 0.300000 0
0.800000 0.300000 0
0.900000 0.300000 0
1.000000 0.300000 0
1.100000 0.300000 0
1.200000 0.300000 0
1.300000 0.300000 0
1.400000 0.300000 0
1.500000 0.300000 0
1.600000 0.300000 0
1.700000 0.300000 0
1.800000 0.300000 0
1.900000 0.300000 0
2.000000 0.300000 0
2.100000 0.300000 0
2.200000 0.300000 0
2.300000 0.300000 0
2.400000 0.300000 0
2.500000 0.300000 0
2.600000 0.300000 0
2.700000 0.300000 0
2.800000 0.300000 0
2.900000 0.300000 0
3.000000 0.300000 0
3.100000 0.300000 0
3.200000 0.300000 0
3.300000 0.300000 0
3.400000 0.300000 0
3.500000 0.300000 0
3.600000 0.300000 0
3.700000 0.300000 0
3.800000 0.300000 0
3.900000 0.300000 0
4.000000 0.300000 0
4.100000 0.300000 0
4.200000 0.300000 0
4.300000 0.300000 0
4.400000 0.300000 0
4.500000 0.300000 0
4.600000 0.300000 0
4.700000 0.300000 0
4.800000 0.300000 0
4.900000 0.300000 0
5.000000 0.300000 0
5.100000 0.300000 0
5.200000 0.300000 0
5.300000 0.300000 0
5.400000 0.300000 0
5.500000 0.300000 0
5.600000 0.300000 0
5.700000 0.300000 0
5.800000 0.300000 0
5.900000 0.300000 0
6.000000 0.300000 0
6.100000 0.300000 0
6.200000 0.300000 0
6.300000 0.300000 0
6.400000 0.300000 0
6.500000 0.300000 0
6.600000 0.300000 0
6.700000 0.300000 0
6.800000 0.300000 0
6.900000 0.300000 0
7.000000 0.300000 0
7.100000 0.300000 0
7.200000 0.300000 0
7.300000 0.300000 0
7.400000 0.300000 0
7.500000 0.300000 0
7.600000 0.300000 0
7.700000 0.300000 0
7.800000 0.300000 0
7.900000 0.300000 0
8.000000 0.300000 0
8.100000 0.300000 0
8.200000 0.300000 0
8.300000 0.300000 0
8.400000 0.300000 0
8.500000 0.300000 0
8.600000 0.300000 0
8.700000 0.300000 0
8.800000 0.300000 0
8.900000 0.300000 0
9.000000 0.300000 0
9.100000 0.300000 0
9.200000 0.300000 0
9.300000 0.300000 0
9.400000 0.300000 0
9.500000 0.300000 0
9.600000 0.300000 0
9.700000 0.300000 0
9.800000 0.300000 0
0.000000 0.400000 0
0.100000 0.400000 0
0.200000 0.400000 0
0.300000 0.400000 0
0.400000 0.400000 0
0.500000 0.400000 0
0.600000 0.400000 0
0.700000 0.400000 0
0.800000 0.400000 0
0.900000 0.400000 0
1.000000 0.400000 0
1.100000 0.400000 0
1.200000 0.400000 0
1.300000 0.400000 0
1.400000 0.400000 0
1.500000 0.400000 0
1.600000 0.400000 0
1.700000 0.400000 0
1.800000 0.400000 0
1.900000 0.400000 0
2.000000 0.400000 0
2.100000 0.400000 0
2.200000 0.400000 0
2.300000 0.400000 0
2.400000 0.400000 0
2.500000 0.400000 0
2.600000 0.400000 0
2.700000 0.400000 0
2.800000 0.400000 0
2.900000 0.400000 0
3.000000 0.400000 0
3.100000 0.400000 0
3.200000 0.400000 0
3.300000 0.400000 0
3.400000 0.400000 0
3.500000 0.400000 0
3.600000 0.400000 0
3.700000 0.400000 0
3.800000 0.400000 0
3.900000 0.400000 0
4.000000 0.400000 0
4.100000 0.400000 0
4.200000 0.400000 0
4.300000 0.400000 0
4.400000 0.400000 0
4.500000 0.400000 0
4.600000 0.400000 0
4.700000 0.400000 0
4.800000 0.400000 0
4.900000 0.400000 0
5.000000 0.400000 0
5.100000 0.400000 0
5.200000 0.400000 0
5.300000 0.400000 0
5.400000 0.400000 0
5.500000 0.400000 0
5.600000 0.400000 0
5.700000 0.400000 0
5.800000 0.400000 0
5.900000 0.400000 0
6.000000 0.400000 0
6.100000 0.400000 0
6.200000 0.400000 0
6.300000 0.400000 0
6.400000 0.400000 0
6.500000 0.400000 0
6.600000 0.400000 0
6.700000 0.400000 0
6.800000 0.400000 0
6.900000 0.400000 0
7.000000 0.400000 0
7.100000 0.400000 0
7.200000 0.400000 0
7.300000 0.400000 0
7.400000 0.400000 0
7.500000 0.400000 0
7.600000 0.400000 0
7.700000 0.400000 0
7.800000 0.400000 0
7.900000 0.400000 0
8.000000 0.400000 0
8.100000 0.400000 0
8.200000 0.400000 0
8.300000 0.400000 0
8.400000 0.400000 0
8.500000 0.400000 0
8.600000 0.400000 0
8.700000 0.400000 0
8.800000 0.400000 0
8.900000 0.400000 0
9.000000 0.400000 0
9.100000 0.400000 0
9.200000 0.400000 0
9.300000 0.400000 0
9.400000 0.400000 0
[...]
POINT_DATA 1881 

VECTORS velocity float
0.500000 0.000000 0
0.502094 0.000000 0
0.506795 0.000000 0
0.514530 0.000000 0
0.525730 0.000000 0
0.540732 0.000000 0
0.559564 0.000000 0
0.581657 0.000000 0
0.605610 0.000000 0
0.629104 0.000000 0
0.650149 0.000000 0
0.667683 0.000000 0
0.681382 0.000000 0
0.691257 0.000000 0
0.697407 0.000000 0
0.699865 0.000000 0
0.698715 0.000000 0
0.694102 0.000000 0
0.686328 0.000000 0
0.675884 0.000000 0
0.663433 0.000000 0
0.649775 0.000000 0
0.635788 0.000000 0
0.622376 0.000000 0
0.610411 0.000000 0
0.600689 0.000000 0
0.593911 0.000000 0
0.590706 0.000000 0
0.591572 0.000000 0
0.596569 0.000000 0
0.605079 0.000000 0
0.615706 0.000000 0
0.626444 0.000000 0
0.635165 0.000000 0
0.640237 0.000000 0
0.640929 0.000000 0
0.637192 0.000000 0
0.629399 0.000000 0
0.618201 0.000000 0
0.604380 0.000000 0
0.588749 0.000000 0
0.572101 0.000000 0
0.555195 0.000000 0
0.538771 0.000000 0
0.523559 0.000000 0
0.510313 0.000000 0
0.499829 0.000000 0
0.492971 0.000000 0
0.490578 0.000000 0
0.493110 0.000000 0
0.500520 0.000000 0
0.512423 0.000000 0
0.528124 0.000000 0
0.546604 0.000000 0
0.566496 0.000000 0
0.586053 0.000000 0
0.603218 0.000000 0
0.615929 0.000000 0
0.622684 0.000000 0
0.623046 0.000000 0
0.617350 0.000000 0
0.606263 0.000000 0
0.590745 0.000000 0
0.571993 0.000000 0
0.551345 0.000000 0
0.530202 0.000000 0
0.509952 0.000000 0
0.491909 0.000000 0
0.477245 0.000000 0
0.466893 0.000000 0
0.461411 0.000000 0
0.460799 0.000000 0
0.464313 0.000000 0
0.471043 0.000000 0
0.480249 0.000000 0
0.491401 0.000000 0
0.504131 0.000000 0
0.518123 0.000000 0
0.532980 0.000000 0
0.548075 0.000000 0
0.562464 0.000000 0
0.574895 0.000000 0
0.583998 0.000000 0
0.588637 0.000000 0
0.588282 0.000000 0
0.582898 0.000000 0
0.572719 0.000000 0
0.558321 0.000000 0
0.540672 0.000000 0
0.521169 0.000000 0
0.501582 0.000000 0
0.483867 0.000000 0
0.469830 0.000000 0
0.460740 0.000000 0
0.457076 0.000000 0
0.458366 0.000000 0
0.463496 0.000000 0
0.471691 0.000000 0
0.483285 0.000000 0
1.000000 -0.002108 0
1.004743 -0.006821 0
1.014768 -0.012460 0
1.030848 -0.018960 0
1.053924 -0.026226 0
1.084866 -0.033857 0
1.124020 -0.040944 0
1.170485 -0.046052 0
1.221539 -0.047434 0
1.271268 -0.044515 0
1.315128 -0.038557 0
1.351210 -0.031218 0
1.379281 -0.023578 0
1.399713 -0.016027 0
1.412805 -0.008601 0
1.418584 -0.001305 0
1.417075 0.005764 0
1.408489 0.012383 0
1.393397 0.018212 0
1.372795 0.022885 0
1.348058 0.026096 0
1.320838 0.027629 0
1.292950 0.027381 0
1.266256 0.025357 0
1.242542 0.021666 0
1.223415 0.016479 0
1.210256 0.009965 0
1.204246 0.002321 0
1.206356 -0.005873 0
1.216948 -0.013507 0
1.235117 -0.019132 0
1.258225 -0.021352 0
1.282140 -0.019439 0
1.302236 -0.013773 0
1.314757 -0.005746 0
1.317840 0.003057 0
1.311446 0.011535 0
1.296537 0.018993 0
1.274608 0.025020 0
1.247355 0.029453 0
1.216484 0.032279 0
1.183618 0.033552 0
1.150291 0.033327 0
1.117975 0.031631 0
1.088111 0.028452 0
1.062124 0.023724 0
1.041392 0.017335 0
1.027167 0.009244 0
1.020453 -0.000148 0
1.021951 -0.009950 0
1.031969 -0.019320 0
1.050306 -0.027611 0
1.076184 -0.034185 0
1.108249 -0.038373 0
1.144542 -0.039446 0
1.182359 -0.036715 0
1.218177 -0.029867 0
1.247916 -0.019454 0
1.267656 -0.007104 0
1.274760 0.005345 0
1.268999 0.016792 0
1.251787 0.026612 0
1.225159 0.034275 0
1.191586 0.039402 0
1.153786 0.041791 0
1.114550 0.041392 0
1.076586 0.038292 0
1.042351 0.032705 0
1.013865 0.025014 0
0.992483 0.015833 0
0.978733 0.006094 0
0.972361 -0.002903 0
0.972633 -0.010245 0
0.978538 -0.015936 0
0.989158 -0.020359 0
1.003845 -0.023883 0
1.022202 -0.026721 0
1.043957 -0.028846 0
1.068700 -0.029948 0
1.095583 -0.029479 0
1.123114 -0.026815 0
1.149131 -0.021528 0
1.170985 -0.013736 0
1.185914 -0.004278 0
1.191674 0.005745 0
1.187449 0.015567 0
1.173768 0.024581 0
1.151877 0.032051 0
1.123723 0.037155 0
1.091890 0.039093 0
1.059402 0.037304 0
1.029355 0.031755 0
1.004392 0.023129 0
0.986213 0.012755 0
0.975369 0.002376 0
0.971512 -0.006418 0
0.973847 -0.013325 0
0.981482 -0.019789 0
0.994354 -0.023436 0
1.000000 -0.004767 0
1.004890 -0.014808 0
1.014900 -0.026136 0
1.030837 -0.039186 0
1.053965 -0.054046 0
1.085799 -0.070120 0
1.127687 -0.085631 0
1.179662 -0.097508 0
1.240000 -0.100757 0
1.296853 -0.093563 0
1.344010 -0.079925 0
1.380884 -0.064155 0
1.408872 -0.048514 0
1.429404 -0.033520 0
1.443097 -0.018864 0
1.449738 -0.004270 0
1.448921 0.010092 0
1.440580 0.023671 0
1.425182 0.035682 0
1.403781 0.045324 0
1.377880 0.051940 0
1.349280 0.055087 0
1.319943 0.054558 0
1.291868 0.050383 0
1.266944 0.042817 0
1.246791 0.032264 0
1.232696 0.019147 0
1.225746 0.003885 0
1.227130 -0.012705 0
1.237928 -0.028755 0
1.257936 -0.041260 0
1.284833 -0.047001 0
1.314264 -0.043987 0
1.340651 -0.032595 0
1.358718 -0.015588 0
1.365453 0.003317 0
1.361077 0.021302 0
1.347224 0.036839 0
1.325910 0.049183 0
1.299153 0.058123 0
1.268796 0.063736 0
1.236475 0.066190 0
1.203653 0.065638 0
1.171680 0.062173 0
1.141831 0.055844 0
1.115280 0.046710 0
1.093027 0.034947 0
1.075759 0.020930 0
1.063814 0.005207 0
1.057513 -0.011526 0
1.057368 -0.028364 0
1.063800 -0.044221 0
1.077021 -0.057944 0
1.097091 -0.068355 0
1.123800 -0.074103 0
1.156174 -0.073624 0
1.192012 -0.065543 0
1.227746 -0.049464 0
1.258676 -0.026830 0
1.279795 -0.001331 0
1.287856 0.022982 0
1.283383 0.043845 0
1.268325 0.060203 0
1.245079 0.071373 0
1.216238 0.077035 0
1.184404 0.077199 0
1.152014 0.072198 0
1.121147 0.062719 0
1.093351 0.049868 0
1.069517 0.035131 0
1.049890 0.020122 0
1.034318 0.006100 0
1.022729 -0.006177 0
1.014978 -0.016526 0
1.010971 -0.025307 0
1.010928 -0.033043 0
1.015326 -0.040110 0
1.024777 -0.046494 0
1.039637 -0.051620 0
1.059629 -0.054406 0
1.083692 -0.053540 0
1.110054 -0.047863 0
1.136365 -0.036775 0
1.159806 -0.020682 0
1.177338 -0.001529 0
1.186576 0.017912 0
1.187143 0.035577 0
1.179964 0.050048 0
1.166555 0.059990 0
1.148801 0.064325 0
1.128662 0.062539 0
1.107891 0.055014 0
1.087837 0.043145 0
1.069391 0.029025 0
1.053087 0.014703 0
1.039406 0.001523 0
1.028873 -0.009969 0
1.021490 -0.020507 0
1.016666 -0.026538 0
1.000000 -0.007018 0
1.003904 -0.021747 0
1.012185 -0.038419 0
1.025880 -0.058033 0
1.046781 -0.081193 0
1.077516 -0.107576 0
1.121441 -0.134787 0
1.181018 -0.158339 0
1.260130 -0.164611 0
1.326720 -0.148527 0
1.374220 -0.122606 0
1.407389 -0.096105 0
1.431275 -0.072099 0
1.449131 -0.050245 0
1.462122 -0.028937 0
1.469284 -0.007132 0
1.468829 0.014916 0
1.459945 0.036114 0
1.442919 0.055002 0
1.418968 0.070177 0
1.389833 0.080586 0
1.357548 0.085556 0
1.324312 0.084782 0
1.292378 0.078347 0
1.263858 0.066737 0
1.240432 0.050721 0
1.223145 0.031009 0
1.212585 0.007897 0
1.209643 -0.018042 0
1.216266 -0.044297 0
1.233505 -0.066020 0
1.260202 -0.077666 0
1.293197 -0.075250 0
1.327205 -0.058227 0
1.355157 -0.030557 0
1.370484 0.000686 0
1.371227 0.029759 0
1.360137 0.054160 0
1.340261 0.073090 0
1.314274 0.086564 0
1.284339 0.094954 0
1.252165 0.098693 0
1.219142 0.098118 0
1.186457 0.093450 0
1.155169 0.084849 0
1.126226 0.072524 0
1.100403 0.056852 0
1.078172 0.038453 0
1.059540 0.018095 0
1.044031 -0.003507 0
1.031227 -0.025608 0
1.021902 -0.047260 0
1.017996 -0.067471 0
1.021847 -0.085145 0
1.035381 -0.098520 0
1.058966 -0.104918 0
1.091078 -0.101430 0
1.128610 -0.086112 0
1.167276 -0.059151 0
1.201910 -0.023836 0
1.226944 0.013202 0
1.239216 0.046139 0
1.239835 0.072575 0
1.230729 0.091488 0
1.214094 0.102464 0
1.192157 0.105615 0
1.166989 0.101549 0
1.140362 0.091368 0
1.113672 0.076644 0
1.087919 0.059295 0
1.063720 0.041293 0
1.041307 0.024259 0
1.020568 0.009096 0
1.001509 -0.004178 0
0.984625 -0.016308 0
0.971262 -0.028235 0
0.963478 -0.040567 0
0.962986 -0.053153 0
0.970458 -0.064795 0
0.985370 -0.073529 0
1.006310 -0.077236 0
1.031385 -0.074197 0
1.058524 -0.063485 0
1.085617 -0.045249 0
1.110466 -0.021023 0
1.130492 0.005763 0
1.143595 0.031194 0
1.149649 0.052640 0
1.149296 0.068319 0
1.143488 0.076989 0
1.133250 0.078216 0
1.119526 0.072580 0
1.103180 0.061629 0
1.085090 0.047506 0
1.066180 0.032361 0
1.047272 0.017796 0
1.028979 0.004591 0
1.011764 -0.007583 0
0.995694 -0.014844 0
1.000000 -0.008690 0
1.002490 -0.027015 0
1.007983 -0.048119 0
1.017617 -0.073787 0
1.033597 -0.105682 0
1.059813 -0.144768 0
1.102720 -0.189111 0
1.170246 -0.236184 0
1.285698 -0.246461 0
1.356413 -0.207668 0
1.391115 -0.160617 0
1.409516 -0.121214 0
1.421394 -0.090244 0
1.431755 -0.064365 0
1.442625 -0.039020 0
1.452146 -0.010981 0
1.454771 0.019426 0
1.447447 0.049572 0
1.430248 0.076650 0
1.404775 0.098401 0
1.373039 0.113351 0
1.337239 0.120600 0
1.299793 0.119719 0
1.263309 0.110830 0
1.230323 0.094757 0
1.202701 0.072974 0
1.180917 0.047002 0
1.164065 0.017399 0
1.150913 -0.016374 0
1.142694 -0.052601 0
1.143905 -0.085184 0
1.157278 -0.106685 0
1.183879 -0.110989 0
1.221415 -0.094562 0
1.263062 -0.058880 0
1.298285 -0.012758 0
1.317178 0.031652 0
1.319343 0.067805 0
1.309265 0.095043 0
1.290535 0.114042 0
1.265862 0.125842 0
1.237276 0.131383 0
1.206348 0.131343 0
1.174357 0.126142 0
1.142387 0.116070 0
1.111359 0.101473 0
1.081909 0.082998 0
1.054055 0.061790 0
1.026856 0.039345 0
0.998769 0.016787 0
0.969229 -0.006232 0
0.940540 -0.030985 0
0.918426 -0.057883 0
0.908765 -0.085732 0
0.913803 -0.111213 0
0.932530 -0.129313 0
0.962320 -0.135181 0
0.999941 -0.125658 0
1.041874 -0.100130 0
1.084253 -0.061002 0
1.122473 -0.014329 0
1.150952 0.030950 0
1.167654 0.068689 0
1.173651 0.097113 0
1.170506 0.115605 0
1.159951 0.124304 0
1.143678 0.123994 0
1.123199 0.116037 0
1.099750 0.102311 0
1.074190 0.085084 0
1.046961 0.066734 0
1.018245 0.049252 0
0.988475 0.033620 0
0.958994 0.019417 0
0.932252 0.004942 0
0.911183 -0.011893 0
0.898354 -0.031830 0
0.895143 -0.053469 0
0.901206 -0.073999 0
0.915082 -0.090253 0
0.934917 -0.099551 0
0.958872 -0.100074 0
0.985252 -0.091005 0
1.012518 -0.072623 0
1.039222 -0.046403 0
1.063807 -0.015216 0
1.084016 0.016422 0
1.098345 0.044350 0
1.106619 0.066154 0
1.109005 0.080372 0
1.105832 0.086502 0
1.097509 0.085084 0
1.084536 0.077580 0
1.067558 0.066025 0
1.047390 0.052522 0
1.025037 0.038725 0
1.001719 0.025538 0
0.978867 0.012778 0
0.958204 0.004617 0
1.000000 -0.009525 0
1.000567 -0.029749 0
1.002044 -0.053549 0
1.005277 -0.083648 0
1.012226 -0.123383 0
1.027204 -0.176685 0
1.059558 -0.245207 0
1.126604 -0.341314 0
1.298125 -0.350788 0
1.339713 -0.253963 0
1.330551 -0.175716 0
1.316773 -0.126371 0
1.305441 -0.094330 0
1.300032 -0.071477 0
1.304002 -0.049332 0
1.317640 -0.019284 0
1.331317 0.019607 0
1.332980 0.060630 0
1.322667 0.097666 0
1.302618 0.127377 0
1.274704 0.148114 0
1.240693 0.158794 0
1.202762 0.158706 0
1.163743 0.147813 0
1.126875 0.127342 0
1.094300 0.100132 0
1.064698 0.069654 0
1.033805 0.037912 0
0.999076 0.003343 0
0.962869 -0.037278 0
0.935124 -0.080594 0
0.928436 -0.117638 0
0.946251 -0.139392 0
0.985478 -0.137421 0
1.039533 -0.107434 0
1.098828 -0.053428 0
1.150465 0.008701 0
1.183071 0.062070 0
1.197988 0.101895 0
1.199673 0.129963 0
1.191206 0.148210 0
1.174948 0.158203 0
1.152810 0.161034 0
1.126364 0.157408 0
1.096777 0.147843 0
1.064534 0.132998 0
1.029048 0.114153 0
0.988847 0.093502 0
0.943197 0.073379 0
0.894504 0.054123 0
0.848896 0.032625 0
0.813433 0.003548 0
0.792950 -0.035687 0
0.788653 -0.080514 0
0.798368 -0.122278 0
0.819100 -0.153429 0
0.848382 -0.168837 0
0.884227 -0.165665 0
0.924658 -0.143465 0
0.967403 -0.104439 0
1.009719 -0.053501 0
1.047634 0.000958 0
1.076181 0.049875 0
1.094483 0.088635 0
1.103138 0.116164 0
1.103137 0.132444 0
1.095577 0.138302 0
1.081451 0.135297 0
1.061473 0.125654 0
1.036024 0.112083 0
1.005396 0.097237 0
0.970476 0.082744 0
0.933531 0.068347 0
0.898386 0.052046 0
0.869465 0.031507 0
0.850049 0.005666 0
0.841079 -0.024523 0
0.841652 -0.056000 0
0.849926 -0.084729 0
0.864045 -0.107235 0
0.882508 -0.121023 0
0.904140 -0.124530 0
0.927923 -0.117129 0
0.952883 -0.099218 0
0.978045 -0.072311 0
1.002389 -0.039029 0
1.024601 -0.003341 0
1.042610 0.030040 0
1.055407 0.057661 0
1.062540 0.077777 0
1.063794 0.089713 0
1.059118 0.093877 0
1.048641 0.091581 0
1.032747 0.084653 0
1.012220 0.074883 0
0.988391 0.063467 0
0.963221 0.050761 0
0.939160 0.035932 0
0.919265 0.025149 0
1.000000 -0.009271 0
0.998279 -0.029075 0
0.994784 -0.052831 0
0.989478 -0.083967 0
0.982795 -0.127599 0
0.976816 -0.192087 0
0.978817 -0.288503 0
1.010627 -0.474754 0
1.200283 -0.459583 0
1.146001 -0.240103 0
1.052950 -0.137667 0
1.000547 -0.096094 0
0.962826 -0.073503 0
0.936442 -0.062930 0
0.927877 -0.056635 0
0.945019 -0.038303 0
0.983321 0.004077 0
1.017000 0.058215 0
1.034025 0.107005 0
1.038808 0.146356 0
1.031559 0.175268 0
1.012034 0.192535 0
0.980477 0.196665 0
0.937278 0.186714 0
0.882881 0.164203 0
0.819071 0.135160 0
0.751339 0.107507 0
0.688957 0.083033 0
0.641731 0.054575 0
0.615928 0.011360 0
0.611901 -0.050748 0
0.627518 -0.117814 0
0.660530 -0.168040 0
0.708667 -0.187855 0
0.769623 -0.172230 0
0.840082 -0.123688 0
0.913892 -0.052593 0
0.978545 0.020279 0
1.023950 0.078438 0
1.051982 0.120821 0
1.065689 0.150562 0
1.067237 0.169775 0
1.058416 0.179923 0
1.040548 0.182171 0
1.014173 0.177897 0
0.978796 0.169200 0
0.933420 0.158682 0
0.878566 0.147638 0
0.818950 0.133690 0
0.763881 0.111091 0
0.723465 0.074843 0
0.703253 0.024968 0
0.701392 -0.033095 0
0.711262 -0.091142 0
0.727706 -0.141654 0
0.748540 -0.179323 0
0.773527 -0.200306 0
0.803044 -0.201935 0
0.837049 -0.183310 0
0.874595 -0.146067 0
0.913894 -0.094560 0
0.952531 -0.035512 0
0.986338 0.021839 0
1.011814 0.070156 0
1.028369 0.106952 0
1.036053 0.131866 0
1.035155 0.145680 0
1.025942 0.150140 0
1.008571 0.147738 0
0.983334 0.141160 0
0.951314 0.132282 0
0.915133 0.121119 0
0.879054 0.105711 0
0.847927 0.083486 0
0.825491 0.053282 0
0.813237 0.016497 0
0.810363 -0.023427 0
0.814568 -0.062311 0
0.823651 -0.096388 0
0.836147 -0.122832 0
0.851264 -0.139644 0
0.868597 -0.145487 0
0.887835 -0.139747 0
0.908545 -0.122743 0
0.930097 -0.095906 0
0.951693 -0.061768 0
0.972390 -0.023796 0
0.990667 0.013545 0
1.004852 0.046226 0
1.014030 0.071987 0
1.017585 0.089925 0
1.015136 0.100238 0
1.006601 0.103952 0
0.992346 0.102447 0
0.973367 0.096878 0
0.951391 0.087724 0
0.928751 0.074769 0
0.908003 0.056734 0
0.891916 0.042670 0
1.000000 -0.007815 0
0.996044 -0.024544 0
0.987548 -0.044747 0
0.973175 -0.071653 0
0.950610 -0.110710 0
0.916131 -0.172696 0
0.864045 -0.279014 0
0.790400 -0.562784 0
0.551798 -0.389392 0
0.490671 0.000000 0
0.418325 -0.020403 0
0.352505 -0.036248 0
0.338886 -0.030230 0
0.351459 -0.036535 0
0.367523 -0.057917 0
0.400794 -0.074736 0
0.461934 -0.052382 0
0.540245 0.009919 0
0.604643 0.075850 0
0.648312 0.129836 0
0.671324 0.174882 0
0.671816 0.209870 0
0.648854 0.233459 0
0.602558 0.245410 0
0.535942 0.245555 0
0.458095 0.231683 0
0.385640 0.199779 0
0.337414 0.147532 0
0.324657 0.076382 0
0.345873 -0.007441 0
0.385908 -0.092185 0
0.429403 -0.166274 0
0.472620 -0.220551 0
0.518525 -0.246517 0
0.571375 -0.238847 0
0.633547 -0.197699 0
0.704150 -0.129765 0
0.778200 -0.047991 0
0.842925 0.028455 0
0.890244 0.088220 0
0.921351 0.132951 0
0.937481 0.165471 0
0.939527 0.187719 0
0.927936 0.201648 0
0.902712 0.209593 0
0.864169 0.213749 0
0.814782 0.214380 0
0.761069 0.207972 0
0.712975 0.188067 0
0.679692 0.149612 0
0.665108 0.093259 0
0.666922 0.025629 0
0.679020 -0.043690 0
0.694653 -0.106821 0
0.710284 -0.159550 0
0.725277 -0.199247 0
0.740895 -0.223341 0
0.759259 -0.229191 0
0.782177 -0.215019 0
0.810164 -0.181286 0
0.842178 -0.131438 0
0.876091 -0.071488 0
0.909079 -0.009408 0
0.936772 0.046604 0
0.957028 0.091925 0
0.968967 0.125658 0
0.972123 0.148413 0
0.966238 0.161880 0
0.951402 0.168261 0
0.928553 0.169340 0
0.900071 0.165439 0
0.869874 0.155004 0
0.842553 0.135555 0
0.821824 0.105613 0
0.809369 0.066201 0
0.804808 0.020799 0
0.806522 -0.025849 0
0.812327 -0.069283 0
0.820448 -0.106304 0
0.829862 -0.134846 0
0.840253 -0.153470 0
0.851797 -0.161099 0
0.864847 -0.157075 0
0.879595 -0.141478 0
0.895856 -0.115455 0
0.913045 -0.081318 0
0.930286 -0.042313 0
0.946464 -0.002421 0
0.959846 0.034300 0
0.969182 0.065045 0
0.973610 0.088608 0
0.972602 0.104861 0
0.966061 0.114372 0
0.954473 0.117888 0
0.939029 0.115838 0
0.921547 0.108083 0
0.904165 0.094149 0
0.888885 0.072767 0
0.877495 0.055716 0
1.000000 -0.005323 0
0.994440 -0.016630 0
0.982324 -0.029958 0
0.961277 -0.047019 0
0.926668 -0.070542 0
0.869404 -0.105513 0
0.770069 -0.162770 0
0.586529 -0.259286 0
0.000000 -0.159855 0
0.000000 0.000000 0
0.000000 0.000000 0
-0.030752 -0.027007 0
-0.048674 -0.072460 0
-0.036736 -0.091574 0
-0.036181 -0.105978 0
-0.024455 -0.132722 0
0.015240 -0.135382 0
0.092677 -0.084501 0
0.190615 -0.001069 0
0.268126 0.079668 0
0.312729 0.151760 0
0.331099 0.215002 0
0.324399 0.265921 0
0.297137 0.299630 0
0.260434 0.308674 0
0.230176 0.285471 0
0.220441 0.228199 0
0.236951 0.144027 0
0.275775 0.046124 0
0.322362 -0.049888 0
0.364089 -0.134282 0
0.397123 -0.204535 0
0.422468 -0.257169 0
0.445267 -0.286609 0
0.472664 -0.287253 0
0.510693 -0.256466 0
0.561534 -0.197249 0
0.622675 -0.118500 0
0.687118 -0.033609 0
0.742099 0.042391 0
0.781695 0.103321 0
0.805591 0.151595 0
0.813731 0.189464 0
0.806286 0.218984 0
0.784339 0.241661 0
0.751198 0.257127 0
0.713504 0.261781 0
0.680432 0.249448 0
0.660236 0.215071 0
0.656379 0.158963 0
0.666652 0.087619 0
0.685532 0.011063 0
0.706108 -0.060819 0
0.723757 -0.122400 0
0.736485 -0.172274 0
0.744235 -0.209933 0
0.748730 -0.234290 0
0.753116 -0.243220 0
0.760992 -0.234217 0
0.774939 -0.206068 0
0.795429 -0.160489 0
0.820840 -0.102414 0
0.848342 -0.038842 0
0.874117 0.022206 0
0.894530 0.074757 0
0.907869 0.116770 0
0.913169 0.148408 0
0.910050 0.170862 0
0.898983 0.185422 0
0.881704 0.192491 0
0.861339 0.190961 0
0.841812 0.178638 0
0.826609 0.153764 0
0.817625 0.116673 0
0.814897 0.070302 0
0.817189 0.019349 0
0.822767 -0.030942 0
0.829777 -0.076232 0
0.836819 -0.113919 0
0.843099 -0.142635 0
0.848505 -0.161576 0
0.853571 -0.170078 0
0.859242 -0.167542 0
0.866458 -0.153749 0
0.875720 -0.129352 0
0.886885 -0.096195 0
0.899240 -0.057214 0
0.911724 -0.016012 0
0.922873 0.023509 0
0.931242 0.058225 0
0.935857 0.086506 0
0.936173 0.107789 0
0.932154 0.122082 0
0.924371 0.129478 0
0.913991 0.129805 0
0.902566 0.122589 0
0.891661 0.107432 0
0.882475 0.083403 0
0.875766 0.064206 0
1.000000 -0.002260 0
0.993914 -0.006871 0
0.980683 -0.011576 0
0.957835 -0.015985 0
0.920659 -0.018826 0
0.860431 -0.016090 0
0.760581 0.003863 0
0.587841 0.104760 0
0.274233 0.094613 0
0.000000 0.000000 0
0.000000 0.000000 0
0.000000 0.000000 0
-0.029085 -0.026327 0
-0.113237 -0.049036 0
-0.176134 -0.070205 0
-0.198110 -0.126164 0
-0.189941 -0.169521 0
-0.150948 -0.165462 0
-0.076684 -0.099604 0
0.007166 0.007717 0
0.070044 0.111905 0
0.111575 0.198199 0
0.135648 0.267422 0
0.149971 0.309381 0
0.166614 0.312524 0
0.196923 0.271686 0
0.245753 0.193016 0
0.309813 0.092208 0
0.375289 -0.009024 0
0.427335 -0.095757 0
0.463050 -0.166952 0
0.482225 -0.224660 0
0.486556 -0.268698 0
0.481049 -0.296713 0
0.474133 -0.304277 0
0.475595 -0.286573 0
0.492655 -0.241750 0
0.526708 -0.173579 0
0.573027 -0.090974 0
0.622120 -0.006361 0
0.662190 0.069455 0
0.689054 0.133432 0
0.701784 0.187020 0
0.701034 0.231037 0
0.689608 0.264679 0
0.673008 0.284583 0
0.658801 0.285147 0
0.654133 0.261242 0
0.662611 0.212124 0
0.683094 0.143201 0
0.711218 0.064113 0
0.741204 -0.013819 0
0.766858 -0.081908 0
0.785501 -0.137193 0
0.795882 -0.180026 0
0.797827 -0.211492 0
0.792590 -0.232225 0
0.783219 -0.241455 0
0.774270 -0.236843 0
0.770453 -0.215724 0
0.774724 -0.177340 0
0.787141 -0.124402 0
0.805276 -0.062685 0
0.825493 0.000416 0
0.843464 0.058172 0
0.856570 0.107019 0
0.863482 0.146231 0
0.863898 0.176066 0
0.858667 0.196607 0
0.849870 0.206985 0
0.840457 0.205332 0
0.833355 0.189737 0
0.830461 0.159745 0
0.832177 0.117329 0
0.837720 0.066642 0
0.845773 0.012933 0
0.854721 -0.038432 0
0.863011 -0.083330 0
0.869455 -0.119623 0
0.873279 -0.146529 0
0.874305 -0.163939 0
0.873114 -0.171833 0
0.871002 -0.169959 0
0.869606 -0.157951 0
0.870319 -0.135879 0