# vtk DataFile Version 2.0
generated by CFD-lab course output (written by Tobias Neckel) 
ASCII

DATASET STRUCTURED_GRID
DIMENSIONS  99 19 1 
POINTS 1881 float

0.000000 0.000000 0
0.100000 0.000000 0
0.200000 0.000000 0
0.300000 0.000000 0
0.400000 0.000000 0
0.500000 0.000000 0
0.600000 0.000000 0
0.700000 0.000000 0
0.800000 0.000000 0
0.900000 0.000000 0
1.000000 0.000000 0
1.100000 0.000000 0
1.200000 0.000000 0
1.300000 0.000000 0
1.400000 0.000000 0
1.500000 0.000000 0
1.600000 0.000000 0
1.700000 0.000000 0
1.800000 0.000000 0
1.900000 0.000000 0
2.000000 0.000000 0
2.100000 0.000000 0
2.200000 0.000000 0
2.300000 0.000000 0
2.400000 0.000000 0
2.500000 0.000000 0
2.600000 0.000000 0
2.700000 0.000000 0
2.800000 0.000000 0
2.900000 0.000000 0
3.000000 0.000000 0
3.100000 0.000000 0
3.200000 0.000000 0
3.300000 0.000000 0
3.400000 0.000000 0
3.500000 0.000000 0
3.600000 0.000000 0
3.700000 0.000000 0
3.800000 0.000000 0
3.900000 0.000000 0
4.000000 0.000000 0
4.100000 0.000000 0
4.200000 0.000000 0
4.300000 0.000000 0
4.400000 0.000000 0
4.500000 0.000000 0
4.600000 0.000000 0
4.700000 0.000000 0
4.800000 0.000000 0
4.900000 0.000000 0
5.000000 0.000000 0
5.100000 0.000000 0
5.200000 0.000000 0
5.300000 0.000000 0
5.400000 0.000000 0
5.500000 0.000000 0
5.600000 0.000000 0
5.700000 0.000000 0
5.800000 0.000000 0
5.900000 0.000000 0
6.000000 0.000000 0
6.100000 0.000000 0
6.200000 0.000000 0
6.300000 0.000000 0
6.400000 0.000000 0
6.500000 0.000000 0
6.600000 0.000000 0
6.700000 0.000000 0
6.800000 0.000000 0
6.900000 0.000000 0
7.000000 0.000000 0
7.100000 0.000000 0
7.200000 0.000000 0
7.300000 0.000000 0
7.400000 0.000000 0
7.500000 0.000000 0
7.600000 0.000000 0
7.700000 0.000000 0
7.800000 0.000000 0
7.900000 0.000000 0
8.000000 0.000000 0
8.100000 0.000000 0
8.200000 0.000000 0
8.300000 0.000000 0
8.400000 0.000000 0
8.500000 0.000000 0
8.600000 0.000000 0
8.700000 0.000000 0
8.800000 0.000000 0
8.900000 0.000000 0
9.000000 0.000000 0
9.100000 0.000000 0
9.200000 0.000000 0
9.300000 0.000000 0
9.400000 0.000000 0
9.500000 0.000000 0
9.600000 0.000000 0
9.700000 0.000000 0
9.800000 0.000000 0
0.000000 0.100000 0
0.100000 0.100000 0
0.200000 0.100000 0
0.300000 0.100000 0
0.400000 0.100000 0
0.500000 0.100000 0
0.600000 0.100000 0
0.700000 0.100000 0
0.800000 0.100000 0
0.900000 0.100000 0
1.000000 0.100000 0
1.100000 0.100000 0
1.200000 0.100000 0
1.300000 0.100000 0
1.400000 0.100000 0
1.500000 0.100000 0
1.600000 0.100000 0
1.700000 0.100000 0
1.800000 0.100000 0
1.900000 0.100000 0
2.000000 0.100000 0
2.100000 0.100000 0
2.200000 0.100000 0
2.300000 0.100000 0
2.400000 0.100000 0
2.500000 0.100000 0
2.600000 0.100000 0
2.700000 0.100000 0
2.800000 0.100000 0
2.900000 0.100000 0
3.000000 0.100000 0
3.100000 0.100000 0
3.200000 0.100000 0
3.300000 0.100000 0
3.400000 0.100000 0
3.500000 0.100000 0
3.600000 0.100000 0
3.700000 0.100000 0
3.800000 0.100000 0
3.900000 0.100000 0
4.000000 0.100000 0
4.100000 0.100000 0
4.200000 0.100000 0
4.300000 0.100000 0
4.400000 0.100000 0
4.500000 0.100000 0
4.600000 0.100000 0
4.700000 0.100000 0
4.800000 0.100000 0
4.900000 0.100000 0
5.000000 0.100000 0
5.100000 0.100000 0
5.200000 0.100000 0
5.300000 0.100000 0
5.400000 0.100000 0
5.500000 0.100000 0
5.600000 0.100000 0
5.700000 0.100000 0
5.800000 0.100000 0
5.900000 0.100000 0
6.000000 0.100000 0
6.100000 0.100000 0
6.200000 0.100000 0
6.300000 0.100000 0
6.400000 0.100000 0
6.500000 0.100000 0
6.600000 0.100000 0
6.700000 0.100000 0
6.800000 0.100000 0
6.900000 0.100000 0
7.000000 0.100000 0
7.100000 0.100000 0
7.200000 0.100000 0
7.300000 0.100000 0
7.400000 0.100000 0
7.500000 0.100000 0
7.600000 0.100000 0
7.700000 0.100000 0
7.800000 0.100000 0
7.900000 0.100000 0
8.000000 0.100000 0
8.100000 0.100000 0
8.200000 0.100000 0
8.300000 0.100000 0
8.400000 0.100000 0
8.500000 0.100000 0
8.600000 0.100000 0
8.700000 0.100000 0
8.800000 0.100000 0
8.900000 0.100000 0
9.000000 0.100000 0
9.100000 0.100000 0
9.200000 0.100000 0
9.300000 0.100000 0
9.400000 0.100000 0
9.500000 0.100000 0
9.600000 0.100000 0
9.700000 0.100000 0
9.800000 0.100000 0
0.000000 0.200000 0
0.100000 0.200000 0
0.200000 0.200000 0
0.300000 0.200000 0
0.400000 0.200000 0
0.500000 0.200000 0
0.600000 0.200000 0
0.700000 0.200000 0
0.800000 0.200000 0
0.900000 0.200000 0
1.000000 0.200000 0
1.100000 0.200000 0
1.200000 0.200000 0
1.300000 0.200000 0
1.400000 0.200000 0
1.500000 0.200000 0
1.600000 0.200000 0
1.700000 0.200000 0
1.800000 0.200000 0
1.900000 0.200000 0
2.000000 0.200000 0
2.100000 0.200000 0
2.200000 0.200000 0
2.300000 0.200000 0
2.400000 0.200000 0
2.500000 0.200000 0
2.600000 0.200000 0
2.700000 0.200000 0
2.800000 0.200000 0
2.900000 0.200000 0
3.000000 0.200000 0
3.100000 0.200000 0
3.200000 0.200000 0
3.300000 0.200000 0
3.400000 0.200000 0
3.500000 0.200000 0
3.600000 0.200000 0
3.700000 0.200000 0
3.800000 0.200000 0
3.900000 0.200000 0
4.000000 0.200000 0
4.100000 0.200000 0
4.200000 0.200000 0
4.300000 0.200000 0
4.400000 0.200000 0
4.500000 0.200000 0
4.600000 0.200000 0
4.700000 0.200000 0
4.800000 0.200000 0
4.900000 0.200000 0
5.000000 0.200000 0
5.100000 0.200000 0
5.200000 0.200000 0
5.300000 0.200000 0
5.400000 0.200000 0
5.500000 0.200000 0
5.600000 0.200000 0
5.700000 0.200000 0
5.800000 0.200000 0
5.900000 0.200000 0
6.000000 0.200000 0
6.100000 0.200000 0
6.200000 0.200000 0
6.300000 0.200000 0
6.400000 0.200000 0
6.500000 0.200000 0
6.600000 0.200000 0
6.700000 0.200000 0
6.800000 0.200000 0
6.900000 0.200000 0
7.000000 0.200000 0
7.100000 0.200000 0
7.200000 0.200000 0
7.300000 0.200000 0
7.400000 0.200000 0
7.500000 0.200000 0
7.600000 0.200000 0
7.700000 0.200000 0
7.800000 0.200000 0
7.900000 0.200000 0
8.000000 0.200000 0
8.100000 0.200000 0
8.200000 0.200000 0
8.300000 0.200000 0
8.400000 0.200000 0
8.500000 0.200000 0
8.600000 0.200000 0
8.700000 0.200000 0
8.800000 0.200000 0
8.900000 0.200000 0
9.000000 0.200000 0
9.100000 0.200000 0
9.200000 0.200000 0
9.300000 0.200000 0
9.400000 0.200000 0
9.500000 0.200000 0
9.600000 0.200000 0
9.700000 0.200000 0
9.800000 0.200000 0
0.000000 0.300000 0
0.100000 0.300000 0
0.200000 0.300000 0
0.300000 0.300000 0
0.400000 0.300000 0
0.500000 0.300000 0
0.600000 0.300000 0
0.700000 0.300000 0
0.800000 0.300000 0
0.900000 0.300000 0
1.000000 0.300000 0
1.100000 0.300000 0
1.200000 0.300000 0
1.300000 0.300000 0
1.400000 0.300000 0
1.500000 0.300000 0
1.600000 0.300000 0
1.700000 0.300000 0
1.800000 0.300000 0
1.900000 0.300000 0
2.000000 0.300000 0
2.100000 0.300000 0
2.200000 0.300000 0
2.300000 0.300000 0
2.400000 0.300000 0
2.500000 0.300000 0
2.600000 0.300000 0
2.700000 0.300000 0
2.800000 0.300000 0
2.900000 0.300000 0
3.000000 0.300000 0
3.100000 0.300000 0
3.200000 0.300000 0
3.300000 0.300000 0
3.400000 0.300000 0
3.500000 0.300000 0
3.600000 0.300000 0
3.700000 0.300000 0
3.800000 0.300000 0
3.900000 0.300000 0
4.000000 0.300000 0
4.100000 0.300000 0
4.200000 0.300000 0
4.300000 0.300000 0
4.400000 0.300000 0
4.500000 0.300000 0
4.600000 0.300000 0
4.700000 0.300000 0
4.800000 0.300000 0
4.900000 0.300000 0
5.000000 0.300000 0
5.100000 0.300000 0
5.200000 0.300000 0
5.300000 0.300000 0
5.400000 0.300000 0
5.500000 0.300000 0
5.600000 0.300000 0
5.700000 0.300000 0
5.800000 0.300000 0
5.900000 0.300000 0
6.000000 0.300000 0
6.100000 0.300000 0
6.200000 0.300000 0
6.300000 0.300000 0
6.400000 0.300000 0
6.500000 0.300000 0
6.600000 0.300000 0
6.700000 0.300000 0
6.800000 0.300000 0
6.900000 0.300000 0
7.000000 0.300000 0
7.100000 0.300000 0
7.200000 0.300000 0
7.300000 0.300000 0
7.400000 0.300000 0
7.500000 0.300000 0
7.600000 0.300000 0
7.700000 0.300000 0
7.800000 0.300000 0
7.900000 0.300000 0
8.000000 0.300000 0
8.100000 0.300000 0
8.200000 0.300000 0
8.300000 0.300000 0
8.400000 0.300000 0
8.500000 0.300000 0
8.600000 0.300000 0
8.700000 0.300000 0
8.800000 0.300000 0
8.900000 0.300000 0
9.000000 0.300000 0
9.100000 0.300000 0
9.200000 0.300000 0
9.300000 0.300000 0
9.400000 0.300000 0
9.500000 0.300000 0
9.600000 0.300000 0
9.700000 0.300000 0
9.800000 0.300000 0
0.000000 0.400000 0
0.100000 0.400000 0
0.200000 0.400000 0
0.300000 0.400000 0
0.400000 0.400000 0
0.500000 0.400000 0
0.600000 0.400000 0
0.700000 0.400000 0
0.800000 0.400000 0
0.900000 0.400000 0
1.000000 0.400000 0
1.100000 0.400000 0
1.200000 0.400000 0
1.300000 0.400000 0
1.400000 0.400000 0
1.500000 0.400000 0
1.600000 0.400000 0
1.700000 0.400000 0
1.800000 0.400000 0
1.900000 0.400000 0
2.000000 0.400000 0
2.100000 0.400000 0
2.200000 0.400000 0
2.300000 0.400000 0
2.400000 0.400000 0
2.500000 0.400000 0
2.600000 0.400000 0
2.700000 0.400000 0
2.800000 0.400000 0
2.900000 0.400000 0
3.000000 0.400000 0
3.100000 0.400000 0
3.200000 0.400000 0
3.300000 0.400000 0
3.400000 0.400000 0
3.500000 0.400000 0
3.600000 0.400000 0
3.700000 0.400000 0
3.800000 0.400000 0
3.900000 0.400000 0
4.000000 0.400000 0
4.100000 0.400000 0
4.200000 0.400000 0
4.300000 0.400000 0
4.400000 0.400000 0
4.500000 0.400000 0
4.600000 0.400000 0
4.700000 0.400000 0
4.800000 0.400000 0
4.900000 0.400000 0
5.000000 0.400000 0
5.100000 0.400000 0
5.200000 0.400000 0
5.300000 0.400000 0
5.400000 0.400000 0
5.500000 0.400000 0
5.600000 0.400000 0
5.700000 0.400000 0
5.800000 0.400000 0
5.900000 0.400000 0
6.000000 0.400000 0
6.100000 0.400000 0
6.200000 0.400000 0
6.300000 0.400000 0
6.400000 0.400000 0
6.500000 0.400000 0
6.600000 0.400000 0
6.700000 0.400000 0
6.800000 0.400000 0
6.900000 0.400000 0
7.000000 0.400000 0
7.100000 0.400000 0
7.200000 0.400000 0
7.300000 0.400000 0
7.400000 0.400000 0
7.500000 0.400000 0
7.600000 0.400000 0
7.700000 0.400000 0
7.800000 0.400000 0
7.900000 0.400000 0
8.000000 0.400000 0
8.100000 0.400000 0
8.200000 0.400000 0
8.300000 0.400000 0
8.400000 0.400000 0
8.500000 0.400000 0
8.600000 0.400000 0
8.700000 0.400000 0
8.800000 0.400000 0
8.900000 0.400000 0
9.000000 0.400000 0
9.100000 0.400000 0
9.200000 0.400000 0
9.300000 0.400000 0
9.400000 0.400000 0
[...]
POINT_DATA 1881 

VECTORS velocity float
0.500000 0.000000 0
0.502246 0.000000 0
0.507246 0.000000 0
0.515400 0.000000 0
0.527095 0.000000 0
0.542610 0.000000 0
0.561885 0.000000 0
0.584229 0.000000 0
0.608086 0.000000 0
0.630915 0.000000 0
0.650548 0.000000 0
0.665787 0.000000 0
0.676251 0.000000 0
0.682060 0.000000 0
0.683629 0.000000 0
0.681593 0.000000 0
0.676728 0.000000 0
0.669939 0.000000 0
0.662221 0.000000 0
0.654596 0.000000 0
0.648026 0.000000 0
0.643331 0.000000 0
0.641098 0.000000 0
0.641576 0.000000 0
0.644448 0.000000 0
0.648751 0.000000 0
0.653050 0.000000 0
0.655849 0.000000 0
0.656040 0.000000 0
0.653020 0.000000 0
0.646663 0.000000 0
0.637200 0.000000 0
0.625108 0.000000 0
0.610995 0.000000 0
0.595534 0.000000 0
0.579426 0.000000 0
0.563383 0.000000 0
0.548123 0.000000 0
0.534371 0.000000 0
0.522881 0.000000 0
0.514466 0.000000 0
0.510032 0.000000 0
0.510418 0.000000 0
0.515996 0.000000 0
0.526654 0.000000 0
0.541745 0.000000 0
0.560038 0.000000 0
0.579752 0.000000 0
0.598671 0.000000 0
0.614424 0.000000 0
0.624985 0.000000 0
0.629286 0.000000 0
0.627373 0.000000 0
0.619802 0.000000 0
0.607430 0.000000 0
0.591343 0.000000 0
0.572745 0.000000 0
0.552858 0.000000 0
0.532862 0.000000 0
0.513860 0.000000 0
0.496880 0.000000 0
0.482873 0.000000 0
0.472689 0.000000 0
0.466987 0.000000 0
0.466030 0.000000 0
0.469405 0.000000 0
0.476413 0.000000 0
0.486404 0.000000 0
0.498834 0.000000 0
0.513238 0.000000 0
0.529132 0.000000 0
0.545880 0.000000 0
0.562548 0.000000 0
0.577843 0.000000 0
0.590212 0.000000 0
0.598161 0.000000 0
0.600736 0.000000 0
0.597744 0.000000 0
0.589387 0.000000 0
0.576178 0.000000 0
0.558986 0.000000 0
0.539058 0.000000 0
0.517983 0.000000 0
0.497601 0.000000 0
0.479782 0.000000 0
0.466110 0.000000 0
0.457569 0.000000 0
0.454339 0.000000 0
0.455691 0.000000 0
0.460340 0.000000 0
0.467213 0.000000 0
0.475581 0.000000 0
0.485003 0.000000 0
0.495230 0.000000 0
0.506079 0.000000 0
0.517296 0.000000 0
0.528425 0.000000 0
0.538687 0.000000 0
0.546384 0.000000 0
1.000000 -0.002268 0
1.005053 -0.007277 0
1.015691 -0.013162 0
1.032629 -0.019848 0
1.056727 -0.027207 0
1.088744 -0.034790 0
1.128862 -0.041628 0
1.175948 -0.046202 0
1.226935 -0.046684 0
1.275458 -0.042470 0
1.316597 -0.034883 0
1.348154 -0.025719 0
1.369728 -0.016292 0
1.381770 -0.007399 0
1.385194 0.000444 0
1.381277 0.006876 0
1.371582 0.011627 0
1.357959 0.014478 0
1.342467 0.015315 0
1.327229 0.014170 0
1.314258 0.011246 0
1.305264 0.006919 0
1.301503 0.001753 0
1.303563 -0.003346 0
1.310916 -0.007166 0
1.321609 -0.008591 0
1.332505 -0.007090 0
1.340207 -0.002989 0
1.342167 0.002822 0
1.337205 0.009372 0
1.325194 0.015818 0
1.306760 0.021550 0
1.282970 0.026199 0
1.255113 0.029566 0
1.224569 0.031558 0
1.192753 0.032139 0
1.161094 0.031290 0
1.131024 0.028996 0
1.103977 0.025225 0
1.081385 0.019888 0
1.064660 0.012831 0
1.055148 0.004031 0
1.054049 -0.005981 0
1.062253 -0.016253 0
1.080006 -0.025762 0
1.106588 -0.033393 0
1.140206 -0.038013 0
1.178049 -0.038636 0
1.216366 -0.034671 0
1.250709 -0.026311 0
1.276579 -0.014858 0
1.290518 -0.002386 0
1.291283 0.009485 0
1.279906 0.019940 0
1.258272 0.028452 0
1.228699 0.034678 0
1.193710 0.038478 0
1.155837 0.039874 0
1.117493 0.038988 0
1.080897 0.035972 0
1.048027 0.030978 0
1.020552 0.024181 0
0.999708 0.015876 0
0.986152 0.006649 0
0.979920 -0.002429 0
0.980618 -0.010394 0
0.987550 -0.017010 0
1.000000 -0.022431 0
1.017364 -0.026843 0
1.039150 -0.030306 0
1.064863 -0.032648 0
1.093735 -0.033420 0
1.124416 -0.031965 0
1.154804 -0.027665 0
1.182098 -0.020318 0
1.203131 -0.010524 0
1.214964 0.000417 0
1.215822 0.011348 0
1.205833 0.021563 0
1.186102 0.030397 0
1.158430 0.037114 0
1.125246 0.040997 0
1.089473 0.041451 0
1.054282 0.038196 0
1.022696 0.031487 0
0.997096 0.022208 0
0.978809 0.011767 0
0.967992 0.001875 0
0.963939 -0.006004 0
0.965497 -0.011526 0
0.971365 -0.015245 0
0.980524 -0.017793 0
0.992345 -0.019652 0
1.006521 -0.021078 0
1.022895 -0.022067 0
1.041220 -0.022348 0
1.060915 -0.021391 0
1.080914 -0.017959 0
1.099210 -0.014503 0
1.000000 -0.005084 0
1.005214 -0.015727 0
1.015860 -0.027577 0
1.032692 -0.041031 0
1.056915 -0.056115 0
1.089956 -0.072143 0
1.133036 -0.087211 0
1.185971 -0.098072 0
1.246705 -0.099515 0
1.302804 -0.089677 0
1.347652 -0.072714 0
1.380349 -0.053153 0
1.401878 -0.033641 0
1.413317 -0.015494 0
1.415749 0.000463 0
1.410465 0.013581 0
1.399035 0.023284 0
1.383415 0.029080 0
1.365849 0.030698 0
1.348701 0.028184 0
1.334223 0.021951 0
1.324329 0.012751 0
1.320520 0.001706 0
1.323855 -0.009403 0
1.334235 -0.018034 0
1.349580 -0.021579 0
1.365872 -0.018596 0
1.378383 -0.009671 0
1.383638 0.002993 0
1.380546 0.016969 0
1.369440 0.030439 0
1.351387 0.042217 0
1.327761 0.051637 0
1.300012 0.058389 0
1.269565 0.062345 0
1.237811 0.063458 0
1.206121 0.061711 0
1.175840 0.057097 0
1.148272 0.049618 0
1.124636 0.039296 0
1.105994 0.026215 0
1.093177 0.010590 0
1.086879 -0.007126 0
1.087994 -0.025975 0
1.097193 -0.044347 0
1.114555 -0.060208 0
1.139577 -0.071464 0
1.171231 -0.076159 0
1.207585 -0.072657 0
1.245363 -0.060209 0
1.279882 -0.039806 0
1.305709 -0.014704 0
1.318421 0.010608 0
1.317347 0.033004 0
1.304510 0.051198 0
1.282397 0.064551 0
1.253662 0.072850 0
1.220912 0.076205 0
1.186579 0.074928 0
1.152815 0.069454 0
1.121400 0.060332 0
1.093638 0.048306 0
1.070261 0.034388 0
1.051418 0.019775 0
1.036880 0.005521 0
1.026525 -0.007644 0
1.020290 -0.019396 0
1.018244 -0.029825 0
1.020709 -0.039160 0
1.028226 -0.047508 0
1.041405 -0.054591 0
1.060474 -0.059556 0
1.084872 -0.061070 0
1.113106 -0.057683 0
1.142847 -0.048327 0
1.171069 -0.032866 0
1.194238 -0.012693 0
1.208961 0.009127 0
1.213557 0.029714 0
1.208666 0.047396 0
1.195741 0.060849 0
1.176738 0.068950 0
1.153862 0.070957 0
1.129278 0.066771 0
1.104847 0.057181 0
1.081936 0.043882 0
1.061379 0.029099 0
1.043588 0.014866 0
1.028882 0.002491 0
1.017550 -0.007431 0
1.009543 -0.015032 0
1.004763 -0.020984 0
1.003328 -0.026000 0
1.005553 -0.030553 0
1.011811 -0.034702 0
1.022292 -0.038022 0
1.036794 -0.039695 0
1.054722 -0.038295 0
1.075414 -0.035627 0
1.000000 -0.007497 0
1.004238 -0.023143 0
1.013164 -0.040630 0
1.027787 -0.060901 0
1.049868 -0.084479 0
1.081994 -0.110920 0
1.127454 -0.137639 0
1.188568 -0.159876 0
1.269085 -0.163531 0
1.335888 -0.143428 0
1.382156 -0.112441 0
1.412459 -0.079957 0
1.431033 -0.049272 0
1.439647 -0.021283 0
1.439029 0.003283 0
1.430052 0.023576 0
1.414178 0.038664 0
1.393522 0.047655 0
1.370664 0.050024 0
1.348397 0.045800 0
1.329396 0.035628 0
1.315869 0.020632 0
1.309421 0.002239 0
1.311598 -0.017051 0
1.323505 -0.032889 0
1.343489 -0.040235 0
1.366865 -0.035908 0
1.386899 -0.020768 0
1.397549 0.000659 0
1.396901 0.023569 0
1.386350 0.044971 0
1.367876 0.063224 0
1.343453 0.077566 0
1.314794 0.087754 0
1.283371 0.093750 0
1.250507 0.095573 0
1.217455 0.093252 0
1.185410 0.086837 0
1.155498 0.076420 0
1.128719 0.062157 0
1.105881 0.044282 0
1.087480 0.023139 0
1.073556 -0.000803 0
1.063926 -0.026568 0
1.059226 -0.052321 0
1.060733 -0.075773 0
1.070080 -0.094684 0
1.088876 -0.106638 0
1.117417 -0.108799 0
1.153863 -0.098607 0
1.194179 -0.075207 0
1.232531 -0.040931 0
1.262169 -0.002162 0
1.277793 0.033844 0
1.279740 0.063397 0
1.270422 0.085521 0
1.252439 0.099957 0
1.228344 0.106951 0
1.200497 0.107080 0
1.170954 0.101147 0
1.141389 0.090149 0
1.113035 0.075314 0
1.086679 0.058090 0
1.062668 0.040024 0
1.040933 0.022459 0
1.021081 0.006191 0
1.002889 -0.008734 0
0.986826 -0.022852 0
0.974589 -0.036826 0
0.968572 -0.051002 0
0.970698 -0.064896 0
0.981624 -0.076885 0
1.000609 -0.084596 0
1.025906 -0.085641 0
1.055222 -0.078282 0
1.086026 -0.061917 0
1.115638 -0.037478 0
1.141071 -0.007976 0
1.159104 0.021853 0
1.168558 0.048208 0
1.170016 0.069039 0
1.164583 0.082874 0
1.153595 0.088910 0
1.138376 0.087210 0
1.120109 0.078827 0
1.099838 0.065675 0
1.078532 0.050112 0
1.057091 0.034368 0
1.036217 0.020032 0
1.016453 0.007810 0
0.998457 -0.002460 0
0.983043 -0.011579 0
0.971298 -0.020443 0
0.964499 -0.029562 0
0.963577 -0.038807 0
0.968797 -0.047331 0
0.979733 -0.053821 0
0.995505 -0.056579 0
1.015203 -0.056254 0
1.000000 -0.009331 0
1.002820 -0.028894 0
1.008947 -0.051123 0
1.019516 -0.077741 0
1.036735 -0.110329 0
1.064515 -0.149730 0
1.109348 -0.193786 0
1.179196 -0.239713 0
1.297808 -0.246846 0
1.370207 -0.202757 0
1.405658 -0.149296 0
1.424451 -0.102042 0
1.435675 -0.060841 0
1.440510 -0.023502 0
1.436789 0.010047 0
1.423713 0.038419 0
1.402380 0.059803 0
1.375082 0.072588 0
1.344821 0.075825 0
1.314992 0.069461 0
1.288946 0.054488 0
1.269234 0.032736 0
1.256898 0.005984 0
1.252264 -0.023484 0
1.258470 -0.049929 0
1.276596 -0.064952 0
1.304416 -0.062020 0
1.335418 -0.040357 0
1.359504 -0.007008 0
1.368331 0.028162 0
1.363266 0.059458 0
1.348181 0.085107 0
1.326073 0.104712 0
1.299047 0.118463 0
1.268639 0.126623 0
1.236122 0.129365 0
1.202665 0.126800 0
1.169376 0.119045 0
1.137256 0.106301 0
1.107092 0.088905 0
1.079287 0.067447 0
1.053576 0.042910 0
1.028705 0.016427 0
1.002996 -0.011645 0
0.976823 -0.041153 0
0.955447 -0.071057 0
0.945690 -0.099602 0
0.951365 -0.123493 0
0.972468 -0.137643 0
1.006467 -0.136972 0
1.049418 -0.118480 0
1.096380 -0.082703 0
1.141347 -0.034661 0
1.177028 0.015428 0
1.198433 0.058563 0
1.206747 0.091847 0
1.204131 0.114923 0
1.192857 0.128142 0
1.175103 0.132313 0
1.152835 0.128557 0
1.127712 0.118246 0
1.100996 0.103010 0
1.073431 0.084749 0
1.045136 0.065517 0
1.015777 0.047102 0
0.985247 0.030395 0
0.954631 0.014857 0
0.926588 -0.001527 0
0.904651 -0.020907 0
0.892154 -0.043616 0
0.890698 -0.067641 0
0.899681 -0.089466 0
0.917270 -0.105352 0
0.941284 -0.112296 0
0.969593 -0.108449 0
1.000212 -0.093285 0
1.031274 -0.067742 0
1.060872 -0.034344 0
1.086564 0.002222 0
1.105591 0.036480 0
1.117337 0.064820 0
1.122044 0.085369 0
1.120274 0.097163 0
1.112703 0.100255 0
1.100029 0.095717 0
1.082971 0.085456 0
1.062283 0.071843 0
1.038784 0.057177 0
1.013452 0.043126 0
0.987592 0.030328 0
0.962975 0.018377 0
0.941670 0.006173 0
0.925567 -0.007458 0
0.915988 -0.022833 0
0.913510 -0.039001 0
0.917820 -0.054178 0
0.927988 -0.066402 0
0.942851 -0.073765 0
0.961338 -0.075964 0
1.000000 -0.010321 0
1.000869 -0.032094 0
1.002929 -0.057329 0
1.007041 -0.088697 0
1.015200 -0.129481 0
1.031795 -0.183532 0
1.066344 -0.252326 0
1.136463 -0.348345 0
1.313316 -0.354551 0
1.357655 -0.251288 0
1.351259 -0.166696 0
1.342330 -0.109984 0
1.340166 -0.065341 0
1.343128 -0.022408 0
1.340163 0.020068 0
1.326110 0.057974 0
1.301564 0.087289 0
1.268784 0.105214 0
1.230875 0.110121 0
1.191707 0.101683 0
1.155461 0.081394 0
1.125042 0.052687 0
1.100396 0.019211 0
1.079572 -0.018627 0
1.064426 -0.057230 0
1.065558 -0.086195 0
1.088531 -0.094736 0
1.129826 -0.075854 0
1.178127 -0.032258 0
1.217417 0.019799 0
1.236923 0.065115 0
1.241056 0.100410 0
1.234587 0.126693 0
1.220195 0.145179 0
1.199626 0.156666 0
1.174297 0.161540 0
1.145542 0.159990 0
1.114574 0.152237 0
1.082136 0.138697 0
1.047824 0.120119 0
1.009731 0.097792 0
0.965683 0.073719 0
0.916275 0.049776 0
0.866792 0.025315 0
0.825004 -0.004769 0
0.797864 -0.044636 0
0.789098 -0.090599 0
0.797601 -0.133415 0
0.820394 -0.163903 0
0.854548 -0.175561 0
0.897360 -0.165129 0
0.945912 -0.132868 0
0.996652 -0.082815 0
1.044825 -0.023248 0
1.083260 0.033672 0
1.108627 0.079818 0
1.121990 0.113842 0
1.124866 0.135974 0
1.118911 0.147097 0
1.105700 0.148533 0
1.086535 0.141983 0
1.062233 0.129590 0
1.033010 0.113945 0
0.998772 0.097672 0
0.960059 0.082343 0
0.919233 0.067334 0
0.880778 0.049923 0
0.849958 0.027127 0
0.830390 -0.002392 0
0.822883 -0.037049 0
0.826017 -0.072423 0
0.837458 -0.103457 0
0.855100 -0.126199 0
0.877357 -0.137964 0
0.902995 -0.137213 0
0.930878 -0.123602 0
0.959837 -0.098143 0
0.988631 -0.063270 0
1.015847 -0.022871 0
1.039141 0.017431 0
1.056536 0.052583 0
1.067498 0.079935 0
1.071893 0.098249 0
1.069799 0.107453 0
1.061406 0.108556 0
1.047005 0.103417 0
1.027077 0.094294 0
1.002495 0.083196 0
0.974792 0.071223 0
0.946289 0.058285 0
0.919854 0.043459 0
0.898280 0.025827 0
0.883480 0.005237 0
0.875995 -0.017506 0
0.875358 -0.040640 0
0.880566 -0.061809 0
0.890477 -0.078852 0
0.904037 -0.089930 0
0.920359 -0.094128 0
1.000000 -0.010203 0
0.998524 -0.031829 0
0.995504 -0.057301 0
0.990927 -0.090018 0
0.985274 -0.135085 0
0.980732 -0.200877 0
0.984816 -0.298460 0
1.019872 -0.486693 0
1.215512 -0.468048 0
1.163045 -0.240708 0
1.073159 -0.133980 0
1.025603 -0.090959 0
1.005869 -0.061649 0
1.014036 -0.023510 0
1.027266 0.027055 0
1.024800 0.077011 0
1.008190 0.117127 0
0.977776 0.143281 0
0.933911 0.152910 0
0.877729 0.144882 0
0.812545 0.121159 0
0.746268 0.087804 0
0.690966 0.051453 0
0.657555 0.012478 0
0.649841 -0.035928 0
0.667818 -0.089065 0
0.709094 -0.126287 0
0.770120 -0.129956 0
0.845215 -0.094605 0
0.924126 -0.030640 0
0.989882 0.035810 0
1.032567 0.087435 0
1.057120 0.125564 0
1.067808 0.153416 0
1.066865 0.172513 0
1.055958 0.183441 0
1.036337 0.186514 0
1.008534 0.182443 0
0.971971 0.173044 0
0.925222 0.161303 0
0.867831 0.149584 0
0.803276 0.136364 0
0.740555 0.115319 0
0.691594 0.079629 0
0.664947 0.027778 0
0.660146 -0.035147 0
0.670136 -0.099336 0
0.688867 -0.154790 0
0.713748 -0.194594 0
0.744551 -0.213946 0
0.781636 -0.209852 0
0.824625 -0.182000 0
0.871878 -0.133579 0
0.920609 -0.071186 0
0.966376 -0.005244 0
1.002584 0.053112 0
1.027587 0.098679 0
1.041752 0.131215 0
1.045817 0.151474 0
1.040564 0.160928 0
1.026542 0.161708 0
1.003943 0.156529 0
0.972925 0.148205 0
0.934574 0.138462 0
0.892062 0.126637 0
0.850805 0.109674 0
0.816845 0.084130 0
0.794403 0.048861 0
0.784497 0.006169 0
0.785050 -0.039242 0
0.792685 -0.082216 0
0.804850 -0.118549 0
0.820184 -0.145252 0
0.838161 -0.160194 0
0.858608 -0.161973 0
0.881282 -0.150132 0
0.905640 -0.125500 0
0.930814 -0.090358 0
0.955713 -0.048292 0
0.978926 -0.004213 0
0.998104 0.036461 0
1.011927 0.070010 0
1.019677 0.094859 0
1.020922 0.110738 0
1.015431 0.118506 0
1.003251 0.119780 0
0.984913 0.116349 0
0.961703 0.109459 0
0.935808 0.099330 0
0.910079 0.085264 0
0.887417 0.066383 0
0.870046 0.042544 0
0.859075 0.014826 0
0.854486 -0.014712 0
0.855359 -0.043573 0
0.860542 -0.069296 0
0.869028 -0.089873 0
0.880042 -0.103647 0
0.892983 -0.109322 0
1.000000 -0.008849 0
0.996203 -0.027604 0
0.988018 -0.049739 0
0.974124 -0.078472 0
0.952237 -0.119287 0
0.918721 -0.183078 0
0.868074 -0.291473 0
0.796863 -0.579050 0
0.558775 -0.398856 0
0.497970 0.000000 0
0.427007 -0.019195 0
0.364319 -0.042703 0
0.376143 -0.053784 0
0.427803 -0.043814 0
0.489427 0.009296 0
0.522759 0.077046 0
0.529909 0.134315 0
0.512809 0.179500 0
0.471473 0.210175 0
0.409224 0.223056 0
0.336284 0.212859 0
0.271856 0.174267 0
0.234741 0.107919 0
0.235590 0.022487 0
0.269895 -0.067503 0
0.321781 -0.145450 0
0.382794 -0.197039 0
0.452103 -0.211981 0
0.531426 -0.186271 0
0.620399 -0.124875 0
0.711940 -0.043334 0
0.789039 0.033163 0
0.843195 0.091444 0
0.878022 0.135426 0
0.895977 0.168507 0
0.898327 0.192060 0
0.885550 0.207407 0
0.857475 0.216595 0
0.814162 0.222003 0
0.758062 0.224255 0
0.696470 0.219736 0
0.641209 0.200994 0
0.603739 0.161460 0
0.589135 0.100927 0
0.594531 0.026683 0
0.611736 -0.049823 0
0.631782 -0.119319 0
0.650866 -0.177030 0
0.669135 -0.219593 0
0.688918 -0.243457 0
0.713189 -0.245210 0
0.744004 -0.223115 0
0.781420 -0.178804 0
0.823485 -0.117750 0
0.866971 -0.048307 0
0.906584 0.018601 0
0.937331 0.074668 0
0.958091 0.117738 0
0.968536 0.148279 0
0.968577 0.167802 0
0.958175 0.178599 0
0.937581 0.183201 0
0.908083 0.183309 0
0.872894 0.178531 0
0.837246 0.166109 0
0.806975 0.142548 0
0.786266 0.106323 0
0.776254 0.059475 0
0.775438 0.006962 0
0.780963 -0.045236 0
0.789841 -0.092223 0
0.800149 -0.130957 0
0.811115 -0.159512 0
0.822874 -0.176391 0
0.836073 -0.180338 0
0.851369 -0.170639 0
0.868975 -0.147679 0
0.888479 -0.113348 0
0.908956 -0.070987 0
0.929175 -0.024963 0
0.947298 0.019580 0
0.961394 0.058359 0
0.970312 0.089251 0
0.973280 0.111695 0
0.969874 0.126220 0
0.960166 0.133931 0
0.944947 0.135840 0
0.925884 0.132298 0
0.905373 0.122844 0
0.886037 0.106673 0
0.870056 0.083490 0
0.858699 0.054167 0
0.852270 0.020796 0
0.850374 -0.013791 0
0.852143 -0.046697 0
0.856595 -0.075478 0
0.862947 -0.098353 0
0.870676 -0.113884 0
0.879480 -0.120580 0
1.000000 -0.006411 0
0.994494 -0.019855 0
0.982486 -0.035229 0
0.961603 -0.054239 0
0.927189 -0.079684 0
0.870189 -0.116720 0
0.771152 -0.176609 0
0.587638 -0.276279 0
0.000000 -0.169160 0
0.000000 0.000000 0
0.000000 0.000000 0
-0.028928 -0.049835 0
-0.050752 -0.125142 0
-0.016387 -0.136802 0
0.016961 -0.067907 0
0.058578 0.036529 0
0.085209 0.127081 0
0.089349 0.201723 0
0.071508 0.256502 0
0.040810 0.280077 0
0.016656 0.258529 0
0.022685 0.189344 0
0.058182 0.087711 0
0.110188 -0.022686 0
0.163050 -0.122125 0
0.210667 -0.201965 0
0.254303 -0.256614 0
0.299510 -0.278595 0
0.352972 -0.262908 0
0.418646 -0.211163 0
0.495564 -0.132837 0
0.575882 -0.043828 0
0.643421 0.036573 0
0.690959 0.100626 0
0.719582 0.152199 0
0.729774 0.193861 0
0.721836 0.227359 0
0.697075 0.253824 0
0.659541 0.272452 0
0.617401 0.278993 0
0.581900 0.266436 0
0.563028 0.229096 0
0.564611 0.167396 0
0.583137 0.088840 0
0.610781 0.005179 0
0.637868 -0.072396 0
0.659340 -0.138467 0
0.673696 -0.192147 0
0.681856 -0.232654 0
0.686888 -0.258007 0
0.693375 -0.264942 0
0.705917 -0.250236 0
0.727184 -0.213066 0
0.756788 -0.156741 0
0.791776 -0.088348 0
0.827865 -0.017253 0
0.858990 0.047166 0
0.881869 0.100004 0
0.895198 0.140982 0
0.898331 0.171284 0
0.891214 0.192698 0
0.874844 0.206616 0
0.851887 0.212888 0
0.826782 0.209296 0
0.804729 0.192553 0
0.789811 0.160652 0
0.783563 0.114851 0
0.785010 0.059689 0
0.791815 0.001461 0
0.801152 -0.053645 0
0.810673 -0.101403 0
0.818917 -0.139824 0
0.825353 -0.167979 0
0.830392 -0.185157 0
0.835234 -0.190473 0
0.841416 -0.183038 0
0.850164 -0.162614 0
0.861873 -0.130343 0
0.876006 -0.088992 0
0.891361 -0.042557 0
0.906357 0.004240 0
0.918929 0.046993 0
0.927623 0.082969 0
0.931497 0.111171 0
0.930121 0.131615 0
0.923706 0.144705 0
0.913235 0.150628 0
0.900421 0.149030 0
0.887343 0.139174 0
0.875913 0.120579 0
0.867393 0.093719 0
0.862246 0.060329 0
0.860303 0.023150 0
0.861035 -0.014586 0
0.863676 -0.049795 0
0.867419 -0.080102 0
0.871632 -0.103954 0
0.875946 -0.120178 0
0.880296 -0.127347 0
1.000000 -0.003349 0
0.993859 -0.010099 0
0.980521 -0.016851 0
0.957507 -0.023177 0
0.920109 -0.027878 0
0.859458 -0.027047 0
0.758777 -0.008930 0
0.584355 0.088769 0
0.269725 0.085453 0
0.000000 0.000000 0
0.000000 0.000000 0
0.000000 0.000000 0
-0.048149 -0.064646 0
-0.119405 -0.111534 0
-0.165203 -0.065672 0
-0.159066 0.008800 0
-0.129769 0.103548 0
-0.102134 0.193207 0
-0.081685 0.258721 0
-0.057088 0.277912 0
-0.012256 0.230984 0
0.056849 0.132736 0
0.136210 0.020407 0
0.202102 -0.082388 0
0.248628 -0.167985 0
0.277343 -0.236706 0
0.291771 -0.285888 0
0.299233 -0.310657 0
0.309978 -0.305414 0
0.333399 -0.267476 0
0.373590 -0.200580 0
0.427769 -0.114702 0
0.486650 -0.023641 0
0.535716 0.059257 0
0.569264 0.129685 0
0.586491 0.189798 0
0.588191 0.240098 0
0.577825 0.278885 0
0.562224 0.301674 0
0.550659 0.301894 0
0.551673 0.274109 0
0.569226 0.218284 0
0.601260 0.141354 0
0.641632 0.054760 0
0.681358 -0.028046 0
0.712969 -0.098381 0
0.734200 -0.155151 0
0.744297 -0.199553 0
0.743810 -0.232791 0
0.735136 -0.254981 0
0.722909 -0.264244 0
0.713380 -0.256930 0
0.712335 -0.229680 0
0.722577 -0.182347 0
0.742894 -0.119390 0
0.769174 -0.048619 0
0.795794 0.020658 0
0.817393 0.081525 0
0.831580 0.131811 0
0.837380 0.171781 0
0.835034 0.202080 0
0.826259 0.222524 0
0.814319 0.231368 0
0.803371 0.225686 0
0.797072 0.203078 0
0.797236 0.163712 0
0.803526 0.111124 0
0.814207 0.051224 0
0.827061 -0.009180 0
0.839543 -0.064094 0
0.849818 -0.109988 0
0.856653 -0.145639 0
0.859459 -0.170990 0
0.858524 -0.186276 0
0.855149 -0.191366 0
0.851453 -0.185573 0
0.849707 -0.168140 0
0.851497 -0.139194 0
0.857180 -0.100477 0
0.865942 -0.055316 0
0.876271 -0.007992 0
0.886205 0.037088 0
0.894068 0.076677 0
0.898805 0.109190 0