# vtk DataFile Version 2.0
generated by CFD-lab course output (written by Tobias Neckel) 
ASCII

DATASET STRUCTURED_GRID
DIMENSIONS  99 19 1 
POINTS 1881 float

0.000000 0.000000 0
0.100000 0.000000 0
0.200000 0.000000 0
0.300000 0.000000 0
0.400000 0.000000 0
0.500000 0.000000 0
0.600000 0.000000 0
0.700000 0.000000 0
0.800000 0.000000 0
0.900000 0.000000 0
1.000000 0.000000 0
1.100000 0.000000 0
1.200000 0.000000 0
1.300000 0.000000 0
1.400000 0.000000 0
1.500000 0.000000 0
1.600000 0.000000 0
1.700000 0.000000 0
1.800000 0.000000 0
1.900000 0.000000 0
2.000000 0.000000 0
2.100000 0.000000 0
2.200000 0.000000 0
2.300000 0.000000 0
2.400000 0.000000 0
2.500000 0.000000 0
2.600000 0.000000 0
2.700000 0.000000 0
2.800000 0.000000 0
2.900000 0.000000 0
3.000000 0.000000 0
3.100000 0.000000 0
3.200000 0.000000 0
3.300000 0.000000 0
3.400000 0.000000 0
3.500000 0.000000 0
3.600000 0.000000 0
3.700000 0.000000 0
3.800000 0.000000 0
3.900000 0.000000 0
4.000000 0.000000 0
4.100000 0.000000 0
4.200000 0.000000 0
4.300000 0.000000 0
4.400000 0.000000 0
4.500000 0.000000 0
4.600000 0.000000 0
4.700000 0.000000 0
4.800000 0.000000 0
4.900000 0.000000 0
5.000000 0.000000 0
5.100000 0.000000 0
5.200000 0.000000 0
5.300000 0.000000 0
5.400000 0.000000 0
5.500000 0.000000 0
5.600000 0.000000 0
5.700000 0.000000 0
5.800000 0.000000 0
5.900000 0.000000 0
6.000000 0.000000 0
6.100000 0.000000 0
6.200000 0.000000 0
6.300000 0.000000 0
6.400000 0.000000 0
6.500000 0.000000 0
6.600000 0.000000 0
6.700000 0.000000 0
6.800000 0.000000 0
6.900000 0.000000 0
7.000000 0.000000 0
7.100000 0.000000 0
7.200000 0.000000 0
7.300000 0.000000 0
7.400000 0.000000 0
7.500000 0.000000 0
7.600000 0.000000 0
7.700000 0.000000 0
7.800000 0.000000 0
7.900000 0.000000 0
8.000000 0.000000 0
8.100000 0.000000 0
8.200000 0.000000 0
8.300000 0.000000 0
8.400000 0.000000 0
8.500000 0.000000 0
8.600000 0.000000 0
8.700000 0.000000 0
8.800000 0.000000 0
8.900000 0.000000 0
9.000000 0.000000 0
9.100000 0.000000 0
9.200000 0.000000 0
9.300000 0.000000 0
9.400000 0.000000 0
9.500000 0.000000 0
9.600000 0.000000 0
9.700000 0.000000 0
9.800000 0.000000 0
0.000000 0.100000 0
0.100000 0.100000 0
0.200000 0.100000 0
0.300000 0.100000 0
0.400000 0.100000 0
0.500000 0.100000 0
0.600000 0.100000 0
0.700000 0.100000 0
0.800000 0.100000 0
0.900000 0.100000 0
1.000000 0.100000 0
1.100000 0.100000 0
1.200000 0.100000 0
1.300000 0.100000 0
1.400000 0.100000 0
1.500000 0.100000 0
1.600000 0.100000 0
1.700000 0.100000 0
1.800000 0.100000 0
1.900000 0.100000 0
2.000000 0.100000 0
2.100000 0.100000 0
2.200000 0.100000 0
2.300000 0.100000 0
2.400000 0.100000 0
2.500000 0.100000 0
2.600000 0.100000 0
2.700000 0.100000 0
2.800000 0.100000 0
2.900000 0.100000 0
3.000000 0.100000 0
3.100000 0.100000 0
3.200000 0.100000 0
3.300000 0.100000 0
3.400000 0.100000 0
3.500000 0.100000 0
3.600000 0.100000 0
3.700000 0.100000 0
3.800000 0.100000 0
3.900000 0.100000 0
4.000000 0.100000 0
4.100000 0.100000 0
4.200000 0.100000 0
4.300000 0.100000 0
4.400000 0.100000 0
4.500000 0.100000 0
4.600000 0.100000 0
4.700000 0.100000 0
4.800000 0.100000 0
4.900000 0.100000 0
5.000000 0.100000 0
5.100000 0.100000 0
5.200000 0.100000 0
5.300000 0.100000 0
5.400000 0.100000 0
5.500000 0.100000 0
5.600000 0.100000 0
5.700000 0.100000 0
5.800000 0.100000 0
5.900000 0.100000 0
6.000000 0.100000 0
6.100000 0.100000 0
6.200000 0.100000 0
6.300000 0.100000 0
6.400000 0.100000 0
6.500000 0.100000 0
6.600000 0.100000 0
6.700000 0.100000 0
6.800000 0.100000 0
6.900000 0.100000 0
7.000000 0.100000 0
7.100000 0.100000 0
7.200000 0.100000 0
7.300000 0.100000 0
7.400000 0.100000 0
7.500000 0.100000 0
7.600000 0.100000 0
7.700000 0.100000 0
7.800000 0.100000 0
7.900000 0.100000 0
8.000000 0.100000 0
8.100000 0.100000 0
8.200000 0.100000 0
8.300000 0.100000 0
8.400000 0.100000 0
8.500000 0.100000 0
8.600000 0.100000 0
8.700000 0.100000 0
8.800000 0.100000 0
8.900000 0.100000 0
9.000000 0.100000 0
9.100000 0.100000 0
9.200000 0.100000 0
9.300000 0.100000 0
9.400000 0.100000 0
9.500000 0.100000 0
9.600000 0.100000 0
9.700000 0.100000 0
9.800000 0.100000 0
0.000000 0.200000 0
0.100000 0.200000 0
0.200000 0.200000 0
0.300000 0.200000 0
0.400000 0.200000 0
0.500000 0.200000 0
0.600000 0.200000 0
0.700000 0.200000 0
0.800000 0.200000 0
0.900000 0.200000 0
1.000000 0.200000 0
1.100000 0.200000 0
1.200000 0.200000 0
1.300000 0.200000 0
1.400000 0.200000 0
1.500000 0.200000 0
1.600000 0.200000 0
1.700000 0.200000 0
1.800000 0.200000 0
1.900000 0.200000 0
2.000000 0.200000 0
2.100000 0.200000 0
2.200000 0.200000 0
2.300000 0.200000 0
2.400000 0.200000 0
2.500000 0.200000 0
2.600000 0.200000 0
2.700000 0.200000 0
2.800000 0.200000 0
2.900000 0.200000 0
3.000000 0.200000 0
3.100000 0.200000 0
3.200000 0.200000 0
3.300000 0.200000 0
3.400000 0.200000 0
3.500000 0.200000 0
3.600000 0.200000 0
3.700000 0.200000 0
3.800000 0.200000 0
3.900000 0.200000 0
4.000000 0.200000 0
4.100000 0.200000 0
4.200000 0.200000 0
4.300000 0.200000 0
4.400000 0.200000 0
4.500000 0.200000 0
4.600000 0.200000 0
4.700000 0.200000 0
4.800000 0.200000 0
4.900000 0.200000 0
5.000000 0.200000 0
5.100000 0.200000 0
5.200000 0.200000 0
5.300000 0.200000 0
5.400000 0.200000 0
5.500000 0.200000 0
5.600000 0.200000 0
5.700000 0.200000 0
5.800000 0.200000 0
5.900000 0.200000 0
6.000000 0.200000 0
6.100000 0.200000 0
6.200000 0.200000 0
6.300000 0.200000 0
6.400000 0.200000 0
6.500000 0.200000 0
6.600000 0.200000 0
6.700000 0.200000 0
6.800000 0.200000 0
6.900000 0.200000 0
7.000000 0.200000 0
7.100000 0.200000 0
7.200000 0.200000 0
7.300000 0.200000 0
7.400000 0.200000 0
7.500000 0.200000 0
7.600000 0.200000 0
7.700000 0.200000 0
7.800000 0.200000 0
7.900000 0.200000 0
8.000000 0.200000 0
8.100000 0.200000 0
8.200000 0.200000 0
8.300000 0.200000 0
8.400000 0.200000 0
8.500000 0.200000 0
8.600000 0.200000 0
8.700000 0.200000 0
8.800000 0.200000 0
8.900000 0.200000 0
9.000000 0.200000 0
9.100000 0.200000 0
9.200000 0.200000 0
9.300000 0.200000 0
9.400000 0.200000 0
9.500000 0.200000 0
9.600000 0.200000 0
9.700000 0.200000 0
9.800000 0.200000 0
0.000000 0.300000 0
0.100000 0.300000 0
0.200000 0.300000 0
0.300000 0.300000 0
0.400000 0.300000 0
0.500000 0.300000 0
0.600000 0.300000 0
0.700000 0.300000 0
0.800000 0.300000 0
0.900000 0.300000 0
1.000000 0.300000 0
1.100000 0.300000 0
1.200000 0.300000 0
1.300000 0.300000 0
1.400000 0.300000 0
1.500000 0.300000 0
1.600000 0.300000 0
1.700000 0.300000 0
1.800000 0.300000 0
1.900000 0.300000 0
2.000000 0.300000 0
2.100000 0.300000 0
2.200000 0.300000 0
2.300000 0.300000 0
2.400000 0.300000 0
2.500000 0.300000 0
2.600000 0.300000 0
2.700000 0.300000 0
2.800000 0.300000 0
2.900000 0.300000 0
3.000000 0.300000 0
3.100000 0.300000 0
3.200000 0.300000 0
3.300000 0.300000 0
3.400000 0.300000 0
3.500000 0.300000 0
3.600000 0.300000 0
3.700000 0.300000 0
3.800000 0.300000 0
3.900000 0.300000 0
4.000000 0.300000 0
4.100000 0.300000 0
4.200000 0.300000 0
4.300000 0.300000 0
4.400000 0.300000 0
4.500000 0.300000 0
4.600000 0.300000 0
4.700000 0.300000 0
4.800000 0.300000 0
4.900000 0.300000 0
5.000000 0.300000 0
5.100000 0.300000 0
5.200000 0.300000 0
5.300000 0.300000 0
5.400000 0.300000 0
5.500000 0.300000 0
5.600000 0.300000 0
5.700000 0.300000 0
5.800000 0.300000 0
5.900000 0.300000 0
6.000000 0.300000 0
6.100000 0.300000 0
6.200000 0.300000 0
6.300000 0.300000 0
6.400000 0.300000 0
6.500000 0.300000 0
6.600000 0.300000 0
6.700000 0.300000 0
6.800000 0.300000 0
6.900000 0.300000 0
7.000000 0.300000 0
7.100000 0.300000 0
7.200000 0.300000 0
7.300000 0.300000 0
7.400000 0.300000 0
7.500000 0.300000 0
7.600000 0.300000 0
7.700000 0.300000 0
7.800000 0.300000 0
7.900000 0.300000 0
8.000000 0.300000 0
8.100000 0.300000 0
8.200000 0.300000 0
8.300000 0.300000 0
8.400000 0.300000 0
8.500000 0.300000 0
8.600000 0.300000 0
8.700000 0.300000 0
8.800000 0.300000 0
8.900000 0.300000 0
9.000000 0.300000 0
9.100000 0.300000 0
9.200000 0.300000 0
9.300000 0.300000 0
9.400000 0.300000 0
9.500000 0.300000 0
9.600000 0.300000 0
9.700000 0.300000 0
9.800000 0.300000 0
0.000000 0.400000 0
0.100000 0.400000 0
0.200000 0.400000 0
0.300000 0.400000 0
0.400000 0.400000 0
0.500000 0.400000 0
0.600000 0.400000 0
0.700000 0.400000 0
0.800000 0.400000 0
0.900000 0.400000 0
1.000000 0.400000 0
1.100000 0.400000 0
1.200000 0.400000 0
1.300000 0.400000 0
1.400000 0.400000 0
1.500000 0.400000 0
1.600000 0.400000 0
1.700000 0.400000 0
1.800000 0.400000 0
1.900000 0.400000 0
2.000000 0.400000 0
2.100000 0.400000 0
2.200000 0.400000 0
2.300000 0.400000 0
2.400000 0.400000 0
2.500000 0.400000 0
2.600000 0.400000 0
2.700000 0.400000 0
2.800000 0.400000 0
2.900000 0.400000 0
3.000000 0.400000 0
3.100000 0.400000 0
3.200000 0.400000 0
3.300000 0.400000 0
3.400000 0.400000 0
3.500000 0.400000 0
3.600000 0.400000 0
3.700000 0.400000 0
3.800000 0.400000 0
3.900000 0.400000 0
4.000000 0.400000 0
4.100000 0.400000 0
4.200000 0.400000 0
4.300000 0.400000 0
4.400000 0.400000 0
4.500000 0.400000 0
4.600000 0.400000 0
4.700000 0.400000 0
4.800000 0.400000 0
4.900000 0.400000 0
5.000000 0.400000 0
5.100000 0.400000 0
5.200000 0.400000 0
5.300000 0.400000 0
5.400000 0.400000 0
5.500000 0.400000 0
5.600000 0.400000 0
5.700000 0.400000 0
5.800000 0.400000 0
5.900000 0.400000 0
6.000000 0.400000 0
6.100000 0.400000 0
6.200000 0.400000 0
6.300000 0.400000 0
6.400000 0.400000 0
6.500000 0.400000 0
6.600000 0.400000 0
6.700000 0.400000 0
6.800000 0.400000 0
6.900000 0.400000 0
7.000000 0.400000 0
7.100000 0.400000 0
7.200000 0.400000 0
7.300000 0.400000 0
7.400000 0.400000 0
7.500000 0.400000 0
7.600000 0.400000 0
7.700000 0.400000 0
7.800000 0.400000 0
7.900000 0.400000 0
8.000000 0.400000 0
8.100000 0.400000 0
8.200000 0.400000 0
8.300000 0.400000 0
8.400000 0.400000 0
8.500000 0.400000 0
8.600000 0.400000 0
8.700000 0.400000 0
8.800000 0.400000 0
8.900000 0.400000 0
9.000000 0.400000 0
9.100000 0.400000 0
9.200000 0.400000 0
9.300000 0.400000 0
9.400000 0.400000 0
[...]
POINT_DATA 1881 

VECTORS velocity float
0.500000 0.000000 0
0.502214 0.000000 0
0.507070 0.000000 0
0.514955 0.000000 0
0.526230 0.000000 0
0.541171 0.000000 0
0.559700 0.000000 0
0.581145 0.000000 0
0.603974 0.000000 0
0.625763 0.000000 0
0.644477 0.000000 0
0.659102 0.000000 0
0.669506 0.000000 0
0.676121 0.000000 0
0.679696 0.000000 0
0.681126 0.000000 0
0.681334 0.000000 0
0.681160 0.000000 0
0.681198 0.000000 0
0.681658 0.000000 0
0.682255 0.000000 0
0.682283 0.000000 0
0.680862 0.000000 0
0.677246 0.000000 0
0.671024 0.000000 0
0.662108 0.000000 0
0.650716 0.000000 0
0.637275 0.000000 0
0.622352 0.000000 0
0.606602 0.000000 0
0.590728 0.000000 0
0.575451 0.000000 0
0.561497 0.000000 0
0.549583 0.000000 0
0.540442 0.000000 0
0.534882 0.000000 0
0.533777 0.000000 0
0.537725 0.000000 0
0.546802 0.000000 0
0.560416 0.000000 0
0.577197 0.000000 0
0.595069 0.000000 0
0.611550 0.000000 0
0.624251 0.000000 0
0.631515 0.000000 0
0.632843 0.000000 0
0.628557 0.000000 0
0.619338 0.000000 0
0.606128 0.000000 0
0.589996 0.000000 0
0.572029 0.000000 0
0.553262 0.000000 0
0.534652 0.000000 0
0.517082 0.000000 0
0.501396 0.000000 0
0.488420 0.000000 0
0.478972 0.000000 0
0.473784 0.000000 0
0.473289 0.000000 0
0.477287 0.000000 0
0.485278 0.000000 0
0.496695 0.000000 0
0.510957 0.000000 0
0.527435 0.000000 0
0.545366 0.000000 0
0.563717 0.000000 0
0.581094 0.000000 0
0.595786 0.000000 0
0.606056 0.000000 0
0.610671 0.000000 0
0.609298 0.000000 0
0.602176 0.000000 0
0.589852 0.000000 0
0.573209 0.000000 0
0.553450 0.000000 0
0.532052 0.000000 0
0.510694 0.000000 0
0.491116 0.000000 0
0.474926 0.000000 0
0.463347 0.000000 0
0.457004 0.000000 0
0.455767 0.000000 0
0.458664 0.000000 0
0.464532 0.000000 0
0.472479 0.000000 0
0.481918 0.000000 0
0.492503 0.000000 0
0.504015 0.000000 0
0.516238 0.000000 0
0.528823 0.000000 0
0.541183 0.000000 0
0.552457 0.000000 0
0.561570 0.000000 0
0.567433 0.000000 0
0.569247 0.000000 0
0.566648 0.000000 0
0.559488 0.000000 0
0.547753 0.000000 0
0.531290 0.000000 0
1.000000 -0.002193 0
1.004998 -0.007033 0
1.015356 -0.012710 0
1.031761 -0.019141 0
1.055033 -0.026199 0
1.085897 -0.033457 0
1.124511 -0.039973 0
1.169751 -0.044277 0
1.218609 -0.044626 0
1.264944 -0.040513 0
1.304104 -0.033351 0
1.334222 -0.025041 0
1.355377 -0.017032 0
1.368691 -0.010202 0
1.375821 -0.005015 0
1.378671 -0.001644 0
1.379200 -0.000025 0
1.379183 0.000160 0
1.379963 -0.000471 0
1.382072 -0.001027 0
1.384883 -0.000597 0
1.386708 0.001412 0
1.385492 0.005041 0
1.379611 0.009844 0
1.368186 0.015150 0
1.351103 0.020315 0
1.328874 0.024839 0
1.302426 0.028367 0
1.272949 0.030673 0
1.241791 0.031622 0
1.210385 0.031145 0
1.180194 0.029222 0
1.152671 0.025859 0
1.129229 0.021044 0
1.111250 0.014688 0
1.100111 0.006653 0
1.097180 -0.002854 0
1.103654 -0.013037 0
1.120087 -0.022700 0
1.145804 -0.030397 0
1.178606 -0.034650 0
1.214864 -0.034344 0
1.249907 -0.029168 0
1.278758 -0.019949 0
1.297285 -0.008576 0
1.303402 0.002972 0
1.297454 0.013515 0
1.281001 0.022434 0
1.256123 0.029344 0
1.225110 0.034099 0
1.190245 0.036733 0
1.153671 0.037375 0
1.117348 0.036176 0
1.083055 0.033252 0
1.052415 0.028658 0
1.026875 0.022419 0
1.007618 0.014631 0
0.995425 0.005678 0
0.990599 -0.003509 0
0.993066 -0.011995 0
1.002435 -0.019414 0
1.018164 -0.025686 0
1.039625 -0.030745 0
1.066106 -0.034412 0
1.096682 -0.036282 0
1.129933 -0.035727 0
1.163685 -0.032065 0
1.194963 -0.024956 0
1.220272 -0.014878 0
1.236214 -0.003234 0
1.240468 0.008501 0
1.232857 0.019451 0
1.214539 0.028969 0
1.187350 0.036402 0
1.153697 0.041155 0
1.116426 0.042753 0
1.078624 0.040932 0
1.043343 0.035764 0
1.013225 0.027765 0
0.990098 0.017918 0
0.974707 0.007578 0
0.966766 -0.001661 0
0.965366 -0.008766 0
0.969258 -0.013816 0
0.977272 -0.017387 0
0.988590 -0.020025 0
1.002766 -0.022098 0
1.019599 -0.023736 0
1.038917 -0.024808 0
1.060305 -0.024945 0
1.082889 -0.023635 0
1.105238 -0.020386 0
1.125408 -0.014975 0
1.141142 -0.007677 0
1.150205 0.000785 0
1.150962 0.009759 0
1.142993 0.018895 0
1.126563 0.028198 0
1.102113 0.033782 0
1.000000 -0.004962 0
1.005159 -0.015302 0
1.015531 -0.026733 0
1.031843 -0.039658 0
1.055253 -0.054120 0
1.087132 -0.069471 0
1.128669 -0.083859 0
1.179670 -0.094105 0
1.238035 -0.095202 0
1.291662 -0.085508 0
1.334163 -0.069291 0
1.364806 -0.051287 0
1.384981 -0.034485 0
1.396583 -0.020457 0
1.401703 -0.009989 0
1.402546 -0.003371 0
1.401339 -0.000485 0
1.400210 -0.000730 0
1.401003 -0.002853 0
1.404733 -0.004888 0
1.410710 -0.004611 0
1.416379 -0.000601 0
1.418612 0.007099 0
1.415272 0.017318 0
1.405416 0.028520 0
1.389141 0.039320 0
1.367209 0.048682 0
1.340754 0.055926 0
1.311085 0.060632 0
1.279616 0.062559 0
1.247810 0.061588 0
1.217133 0.057702 0
1.188994 0.050951 0
1.164689 0.041407 0
1.145376 0.029103 0
1.132094 0.014056 0
1.125863 -0.003557 0
1.127957 -0.022918 0
1.139411 -0.042153 0
1.160238 -0.058515 0
1.189286 -0.069051 0
1.224351 -0.071286 0
1.262017 -0.063874 0
1.297533 -0.047358 0
1.325334 -0.024627 0
1.340628 -0.000157 0
1.341902 0.022407 0
1.331031 0.041333 0
1.310529 0.055890 0
1.283016 0.065876 0
1.250993 0.071436 0
1.216722 0.072894 0
1.182187 0.070612 0
1.149090 0.064928 0
1.118838 0.056175 0
1.092491 0.044791 0
1.070674 0.031443 0
1.053535 0.017011 0
1.040915 0.002351 0
1.032823 -0.011843 0
1.029387 -0.025105 0
1.030870 -0.037197 0
1.037650 -0.047946 0
1.050253 -0.057058 0
1.069098 -0.063825 0
1.093995 -0.066998 0
1.123760 -0.065023 0
1.156130 -0.056579 0
1.187885 -0.041242 0
1.215056 -0.020189 0
1.233535 0.003362 0
1.240742 0.025932 0
1.237081 0.045507 0
1.224093 0.060840 0
1.203857 0.070920 0
1.178745 0.075069 0
1.151178 0.073078 0
1.123367 0.065394 0
1.097076 0.053241 0
1.073470 0.038516 0
1.053114 0.023330 0
1.036178 0.009339 0
1.022837 -0.002493 0
1.013090 -0.011907 0
1.006759 -0.019333 0
1.003846 -0.025495 0
1.004647 -0.031010 0
1.009619 -0.036151 0
1.019151 -0.040706 0
1.033239 -0.043973 0
1.051293 -0.044933 0
1.072140 -0.042519 0
1.094119 -0.035904 0
1.115176 -0.024796 0
1.132938 -0.009820 0
1.145058 0.007212 0
1.150109 0.024399 0
1.148312 0.040880 0
1.140728 0.050589 0
1.000000 -0.007326 0
1.004174 -0.022535 0
1.012829 -0.039396 0
1.026950 -0.058863 0
1.048232 -0.081493 0
1.079201 -0.106883 0
1.123096 -0.132519 0
1.182216 -0.153650 0
1.259967 -0.156622 0
1.324082 -0.136646 0
1.367678 -0.106498 0
1.395015 -0.075864 0
1.410402 -0.048813 0
1.416704 -0.026924 0
1.416370 -0.010965 0
1.411747 -0.001252 0
1.405309 0.002338 0
1.399728 0.000514 0
1.397625 -0.004982 0
1.401341 -0.010734 0
1.410762 -0.012257 0
1.422032 -0.006506 0
1.429412 0.006153 0
1.429237 0.023049 0
1.420711 0.041281 0
1.404458 0.058522 0
1.381775 0.073223 0
1.354122 0.084487 0
1.322964 0.091805 0
1.289768 0.094891 0
1.256016 0.093622 0
1.223176 0.088033 0
1.192609 0.078297 0
1.165458 0.064656 0
1.142591 0.047279 0
1.124653 0.026163 0
1.112138 0.001282 0
1.105576 -0.026580 0
1.106095 -0.054972 0
1.114531 -0.080260 0
1.131565 -0.098750 0
1.157691 -0.107062 0
1.192080 -0.102340 0
1.231526 -0.083260 0
1.270236 -0.051670 0
1.300792 -0.013601 0
1.316854 0.023104 0
1.317985 0.053800 0
1.307123 0.077356 0
1.287251 0.093633 0
1.261139 0.103025 0
1.231218 0.106179 0
1.199539 0.103807 0
1.167781 0.096599 0
1.137250 0.085254 0
1.108882 0.070580 0
1.083227 0.053585 0
1.060425 0.035435 0
1.040198 0.017199 0
1.021995 -0.000470 0
1.005552 -0.017463 0
0.991655 -0.033949 0
0.982537 -0.050126 0
0.980735 -0.065855 0
0.988064 -0.080020 0
1.004807 -0.090383 0
1.029727 -0.094194 0
1.060543 -0.089077 0
1.094374 -0.073801 0
1.127980 -0.048883 0
1.157736 -0.017185 0
1.179599 0.015901 0
1.191389 0.045613 0
1.193719 0.069622 0
1.187903 0.086500 0
1.175577 0.095430 0
1.158431 0.096308 0
1.138016 0.089865 0
1.115653 0.077663 0
1.092448 0.061881 0
1.069323 0.044869 0
1.046974 0.028615 0
1.025780 0.014321 0
1.006106 0.002262 0
0.988530 -0.008144 0
0.974032 -0.017914 0
0.964061 -0.027871 0
0.960036 -0.038241 0
0.962715 -0.048428 0
0.971939 -0.057087 0
0.986776 -0.062535 0
1.005814 -0.063213 0
1.027444 -0.058011 0
1.050031 -0.046496 0
1.071981 -0.029097 0
1.091600 -0.007412 0
1.106951 0.015641 0
1.117189 0.037579 0
1.122844 0.050746 0
1.000000 -0.009114 0
1.002754 -0.028112 0
1.008632 -0.049512 0
1.018736 -0.075062 0
1.035205 -0.106378 0
1.061887 -0.144343 0
1.105216 -0.186878 0
1.173115 -0.230980 0
1.288657 -0.237072 0
1.358958 -0.193224 0
1.392253 -0.140229 0
1.407527 -0.094016 0
1.412804 -0.056174 0
1.410402 -0.026416 0
1.401872 -0.005007 0
1.388603 0.007716 0
1.373403 0.011550 0
1.359675 0.006966 0
1.350714 -0.004466 0
1.350235 -0.018035 0
1.361094 -0.025317 0
1.379717 -0.019250 0
1.396988 -0.000095 0
1.403856 0.026021 0
1.399327 0.053298 0
1.385247 0.078255 0
1.363828 0.099015 0
1.336866 0.114732 0
1.305847 0.124981 0
1.272176 0.129501 0
1.237315 0.128174 0
1.202773 0.121105 0
1.169932 0.108666 0
1.139773 0.091420 0
1.112657 0.069904 0
1.088376 0.044507 0
1.066193 0.015524 0
1.044782 -0.016866 0
1.024053 -0.051099 0
1.008546 -0.083973 0
1.004112 -0.112198 0
1.014883 -0.131791 0
1.041428 -0.137702 0
1.081004 -0.125513 0
1.128323 -0.093897 0
1.175939 -0.046782 0
1.214790 0.005209 0
1.237596 0.051063 0
1.245296 0.086623 0
1.240915 0.111857 0
1.227293 0.127467 0
1.206965 0.134493 0
1.182121 0.134047 0
1.154594 0.127215 0
1.125850 0.115072 0
1.096940 0.098812 0
1.068344 0.079898 0
1.039792 0.060037 0
1.010437 0.040778 0
0.979749 0.022801 0
0.948809 0.005234 0
0.920759 -0.014179 0
0.900007 -0.037023 0
0.890517 -0.062581 0
0.893489 -0.087891 0
0.907712 -0.108656 0
0.930899 -0.120755 0
0.960537 -0.121222 0
0.994170 -0.108678 0
1.029416 -0.083552 0
1.063838 -0.048260 0
1.094517 -0.007725 0
1.117720 0.031383 0
1.132190 0.064323 0
1.138329 0.089060 0
1.136995 0.104539 0
1.129213 0.110638 0
1.116015 0.108171 0
1.098359 0.098808 0
1.077098 0.084845 0
1.052971 0.068804 0
1.026678 0.052882 0
0.999109 0.038374 0
0.971678 0.025342 0
0.946458 0.012739 0
0.925784 -0.001027 0
0.911627 -0.017014 0
0.905215 -0.034805 0
0.906667 -0.052609 0
0.915100 -0.068034 0
0.929129 -0.078808 0
0.947252 -0.083187 0
0.968043 -0.080122 0
0.990226 -0.069334 0
1.012678 -0.051389 0
1.034380 -0.027758 0
1.054159 -0.001190 0
1.070500 0.024987 0
1.082906 0.041167 0
1.000000 -0.010065 0
1.000811 -0.031155 0
1.002664 -0.055380 0
1.006380 -0.085439 0
1.013892 -0.124650 0
1.029537 -0.176900 0
1.062777 -0.243749 0
1.131166 -0.337094 0
1.305361 -0.342470 0
1.350100 -0.240247 0
1.344097 -0.155072 0
1.333527 -0.096415 0
1.323980 -0.051682 0
1.312245 -0.015972 0
1.293331 0.010858 0
1.267844 0.027234 0
1.239320 0.031277 0
1.212278 0.023204 0
1.190929 0.004451 0
1.178522 -0.021127 0
1.181255 -0.041742 0
1.202271 -0.042389 0
1.234940 -0.017981 0
1.263219 0.020708 0
1.275010 0.059889 0
1.274155 0.094017 0
1.264423 0.121600 0
1.247670 0.142463 0
1.225001 0.156490 0
1.197530 0.163417 0
1.166674 0.163020 0
1.134129 0.155412 0
1.101443 0.141293 0
1.068989 0.121928 0
1.034867 0.098674 0
0.995614 0.072630 0
0.949649 0.044882 0
0.900441 0.015568 0
0.855496 -0.018724 0
0.823900 -0.060308 0
0.812551 -0.105077 0
0.821689 -0.144371 0
0.848424 -0.168459 0
0.889205 -0.170158 0
0.940186 -0.146612 0
0.996771 -0.100074 0
1.052781 -0.038554 0
1.099079 0.023294 0
1.129458 0.074035 0
1.145504 0.111634 0
1.149481 0.136972 0
1.143578 0.151349 0
1.129815 0.156176 0
1.109942 0.152868 0
1.085268 0.142905 0
1.056416 0.128083 0
1.023188 0.110730 0
0.985024 0.093339 0
0.942379 0.077240 0
0.898243 0.061157 0
0.858168 0.041529 0
0.828011 0.014856 0
0.811078 -0.019880 0
0.807527 -0.059332 0
0.815166 -0.097210 0
0.831314 -0.127789 0
0.853841 -0.147016 0
0.881188 -0.152347 0
0.912021 -0.142681 0
0.944951 -0.118554 0
0.978450 -0.082290 0
1.010774 -0.037985 0
1.039279 0.007937 0
1.060932 0.049010 0
1.075055 0.081693 0
1.081676 0.104545 0
1.081124 0.117287 0
1.073840 0.120718 0
1.060253 0.116580 0
1.040775 0.107268 0
1.015951 0.095288 0
0.986814 0.082476 0
0.955301 0.069320 0
0.924349 0.054912 0
0.897386 0.037750 0
0.877315 0.016917 0
0.865534 -0.007302 0
0.861887 -0.033280 0
0.865287 -0.058313 0
0.874319 -0.079549 0
0.887653 -0.094687 0
0.904167 -0.102127 0
0.922909 -0.100985 0
0.943035 -0.091131 0
0.963762 -0.073252 0
0.984359 -0.048892 0
1.004099 -0.020479 0
1.021865 0.008831 0
1.036186 0.027644 0
1.000000 -0.009916 0
0.998484 -0.030768 0
0.995318 -0.055084 0
0.990453 -0.086294 0
0.984327 -0.129541 0
0.979082 -0.193232 0
0.982187 -0.288510 0
1.015888 -0.473569 0
1.210388 -0.456011 0
1.162767 -0.231964 0
1.077484 -0.123659 0
1.034178 -0.073896 0
1.015069 -0.034877 0
0.997160 0.004256 0
0.968193 0.039413 0
0.926626 0.061737 0
0.875997 0.067119 0
0.823002 0.055351 0
0.777808 0.029279 0
0.751708 -0.008368 0
0.755171 -0.049058 0
0.790377 -0.072928 0
0.850631 -0.061043 0
0.922696 -0.014050 0
0.985444 0.042358 0
1.025735 0.088837 0
1.048762 0.125496 0
1.058941 0.154150 0
1.057585 0.175116 0
1.045732 0.187823 0
1.024478 0.191572 0
0.994561 0.186333 0
0.955770 0.173803 0
0.907036 0.157994 0
0.848153 0.143280 0
0.782400 0.129731 0
0.717882 0.110704 0
0.665955 0.077296 0
0.636008 0.025454 0
0.628914 -0.041018 0
0.639014 -0.109979 0
0.660773 -0.167660 0
0.691487 -0.205220 0
0.730595 -0.217281 0
0.777867 -0.201470 0
0.832023 -0.159378 0
0.890175 -0.097099 0
0.947269 -0.025616 0
0.994276 0.040197 0
1.027208 0.091831 0
1.047068 0.129391 0
1.055114 0.154157 0
1.052654 0.167681 0
1.040784 0.171760 0
1.020092 0.168594 0
0.990555 0.160888 0
0.952112 0.151287 0
0.906170 0.140844 0
0.857150 0.127559 0
0.812215 0.107014 0
0.778470 0.075468 0
0.759741 0.032914 0
0.755377 -0.016534 0
0.761201 -0.066665 0
0.773165 -0.111674 0
0.788994 -0.147327 0
0.807875 -0.170627 0
0.829741 -0.179403 0
0.854589 -0.172443 0
0.882023 -0.149985 0
0.911127 -0.114086 0
0.940596 -0.068556 0
0.968812 -0.018777 0
0.992942 0.028544 0
1.011003 0.068315 0
1.022244 0.098469 0
1.026321 0.118473 0
1.023076 0.129042 0
1.012479 0.131872 0
0.994767 0.129145 0
0.970795 0.122764 0
0.942436 0.113531 0
0.912668 0.100838 0
0.885055 0.083256 0
0.862773 0.059774 0
0.847734 0.030825 0
0.840345 -0.001587 0
0.839665 -0.034558 0
0.844172 -0.065040 0
0.852518 -0.090400 0
0.863735 -0.108656 0
0.877184 -0.118443 0
0.892408 -0.118990 0
0.908982 -0.110187 0
0.926418 -0.092713 0
0.944137 -0.068095 0
0.961470 -0.038696 0
0.977621 -0.007099 0
0.990900 0.013931 0
1.000000 -0.008543 0
0.996189 -0.026469 0
0.987933 -0.047353 0
0.973895 -0.074453 0
0.951774 -0.113285 0
0.917905 -0.174766 0
0.866720 -0.280559 0
0.794527 -0.565300 0
0.557117 -0.391247 0
0.500024 0.000000 0
0.432498 -0.017244 0
0.377527 -0.033991 0
0.385844 -0.014644 0
0.407927 0.030923 0
0.400596 0.081404 0
0.363742 0.119437 0
0.310696 0.134899 0
0.257611 0.121385 0
0.223033 0.075735 0
0.225556 0.001511 0
0.264281 -0.080403 0
0.326652 -0.137847 0
0.407590 -0.150301 0
0.505713 -0.114107 0
0.611401 -0.043155 0
0.702885 0.030695 0
0.767646 0.088390 0
0.809482 0.133635 0
0.831994 0.169695 0
0.836394 0.196521 0
0.823129 0.214187 0
0.792040 0.224117 0
0.743311 0.228816 0
0.679996 0.229546 0
0.610912 0.223315 0
0.550149 0.202907 0
0.511153 0.161335 0
0.499693 0.097452 0
0.511966 0.018327 0
0.536788 -0.063305 0
0.562970 -0.136930 0
0.587214 -0.196844 0
0.611121 -0.238286 0
0.638295 -0.256545 0
0.672234 -0.248043 0
0.714572 -0.212382 0
0.764270 -0.153801 0
0.818045 -0.080810 0
0.870119 -0.005906 0
0.912130 0.058840 0
0.941901 0.109064 0
0.959428 0.145760 0
0.964986 0.170503 0
0.958789 0.185428 0
0.940936 0.193132 0
0.911913 0.196060 0
0.873787 0.195114 0
0.831345 0.188300 0
0.791683 0.171194 0
0.761642 0.139839 0
0.744819 0.094007 0
0.740640 0.037953 0
0.745783 -0.021335 0
0.755883 -0.077115 0
0.767726 -0.124999 0
0.779871 -0.162496 0
0.792314 -0.187763 0
0.805968 -0.199062 0
0.821997 -0.194966 0
0.841122 -0.175095 0
0.863187 -0.140866 0
0.887198 -0.095672 0
0.911665 -0.044411 0
0.934591 0.006817 0
0.953259 0.052390 0
0.966234 0.089226 0
0.972623 0.116454 0
0.971865 0.134559 0
0.963774 0.144888 0
0.948802 0.148951 0
0.928369 0.147618 0
0.904977 0.140602 0
0.881819 0.126699 0
0.861926 0.104807 0
0.847324 0.075071 0
0.838691 0.039345 0
0.835617 0.000768 0
0.837042 -0.037108 0
0.841645 -0.071166 0
0.848364 -0.099112 0
0.856549 -0.119353 0
0.865932 -0.130800 0
0.876484 -0.132783 0
0.888227 -0.125141 0
0.901043 -0.108407 0
0.914572 -0.083944 0
0.928202 -0.053964 0
0.941100 -0.020599 0
0.951780 0.002172 0
1.000000 -0.006102 0
0.994508 -0.018701 0
0.982509 -0.032795 0
0.961633 -0.050141 0
0.927268 -0.073559 0
0.870358 -0.108184 0
0.771504 -0.165137 0
0.588581 -0.262078 0
0.000000 -0.161511 0
0.000000 0.000000 0
0.000000 0.000000 0
-0.025322 -0.035308 0
-0.040815 -0.065258 0
-0.046957 -0.010483 0
-0.056747 0.083606 0
-0.078233 0.151640 0
-0.104387 0.173245 0
-0.117974 0.143005 0
-0.100961 0.061330 0
-0.051558 -0.049611 0
0.008789 -0.150151 0
0.071451 -0.216238 0
0.139412 -0.240107 0
0.219383 -0.217865 0
0.313971 -0.154818 0
0.415322 -0.067412 0
0.502350 0.018895 0
0.563504 0.089797 0
0.600770 0.148200 0
0.615940 0.196685 0
0.609816 0.235924 0
0.584171 0.266148 0
0.544105 0.285846 0
0.499629 0.290396 0
0.464086 0.273133 0
0.448831 0.229497 0
0.457747 0.161169 0
0.485981 0.076494 0
0.522667 -0.011631 0
0.555668 -0.092015 0
0.580362 -0.160402 0
0.596255 -0.215813 0
0.605796 -0.256307 0
0.613836 -0.278398 0
0.626373 -0.277747 0
0.648320 -0.251416 0
0.681356 -0.200574 0
0.723351 -0.131466 0
0.769565 -0.053891 0
0.812572 0.020047 0
0.845853 0.082091 0
0.867722 0.131069 0
0.877519 0.168318 0
0.875031 0.195807 0
0.860766 0.215467 0
0.836747 0.228034 0
0.807291 0.231854 0
0.778695 0.222948 0
0.757255 0.197263 0
0.746663 0.153880 0
0.746868 0.096473 0
0.755094 0.031954 0
0.767487 -0.031772 0
0.780301 -0.088603 0
0.791256 -0.135659 0
0.799360 -0.171914 0
0.804865 -0.196723 0
0.809177 -0.209088 0
0.814422 -0.207601 0
0.822631 -0.191178 0
0.834874 -0.160164 0
0.850882 -0.117036 0
0.869297 -0.066172 0
0.888206 -0.013051 0
0.905004 0.036670 0
0.917629 0.079103 0
0.924822 0.112840 0
0.925867 0.137890 0
0.920679 0.154934 0
0.910033 0.164550 0
0.895685 0.166587 0
0.880139 0.160080 0
0.866006 0.143888 0
0.855242 0.117751 0
0.848714 0.083009 0
0.846294 0.042532 0
0.847262 0.000062 0
0.850612 -0.040586 0
0.855257 -0.076362 0
0.860342 -0.105304 0
0.865386 -0.126224 0
0.870333 -0.138379 0
0.875498 -0.141286 0
0.881367 -0.134746 0
0.888324 -0.119058 0
0.896419 -0.095254 0
0.905270 -0.065224 0
0.914099 -0.030677 0
0.921562 -0.006678 0
1.000000 -0.003051 0
0.993896 -0.008981 0
0.980638 -0.014485 0
0.957767 -0.019219 0
0.920571 -0.022018 0
0.860287 -0.019008 0
0.760307 0.001213 0
0.587221 0.103103 0
0.272633 0.094235 0
0.000000 0.000000 0
0.000000 0.000000 0
0.000000 0.000000 0
-0.034059 0.008251 0
-0.112886 0.046865 0
-0.151490 0.112685 0
-0.168770 0.167075 0
-0.167859 0.174633 0
-0.136585 0.117952 0
-0.073165 0.009321 0
-0.013429 -0.108236 0
0.029279 -0.203414 0
0.060231 -0.268472 0
0.087738 -0.298235 0
0.121871 -0.288670 0
0.171059 -0.239099 0
0.235973 -0.157689 0
0.308564 -0.059796 0
0.371436 0.035212 0
0.415618 0.117256 0
0.441201 0.187472 0
0.449501 0.245954 0
0.444497 0.289826 0
0.434094 0.313359 0
0.428909 0.309568 0
0.438399 0.274119 0
0.466596 0.209254 0
0.510646 0.124195 0
0.562530 0.032544 0
0.609260 -0.051351 0
0.644071 -0.120996 0
0.665411 -0.177517 0
0.673185 -0.222281 0
0.669090 -0.255872 0
0.657314 -0.277123 0
0.644633 -0.282527 0
0.638898 -0.267368 0
0.645967 -0.228835 0
0.667015 -0.169021 0
0.698426 -0.095129 0
0.733845 -0.017450 0
0.764988 0.053911 0
0.787437 0.114090 0
0.799635 0.163191 0
0.801387 0.202178 0
0.794015 0.231414 0
0.780764 0.249534 0
0.766613 0.253165 0
0.756903 0.238337 0
0.755263 0.203228 0
0.762327 0.150228 0
0.776186 0.085580 0
0.793810 0.017339 0
0.811510 -0.046537 0
0.826424 -0.100881 0
0.836858 -0.144055 0
0.841909 -0.176105 0
0.841622 -0.197582 0
0.837267 -0.208622 0
0.831343 -0.208422 0
0.826979 -0.195550 0
0.826808 -0.169119 0
0.831961 -0.130096 0
0.841812 -0.081738 0
0.854528 -0.028892 0
0.867664 0.022966 0
0.878744 0.069406 0
0.886218 0.108214 0
0.889307 0.138700 0
0.888037 0.160719 0
0.883309 0.173943 0
0.876766 0.177511 0
0.870364 0.170280 0
0.865755 0.151596 0