# vtk DataFile Version 2.0
generated by CFD-lab course output (written by Tobias Neckel) 
ASCII

DATASET STRUCTURED_GRID
DIMENSIONS  99 19 1 
POINTS 1881 float

0.000000 0.000000 0
0.100000 0.000000 0
0.200000 0.000000 0
0.300000 0.000000 0
0.400000 0.000000 0
0.500000 0.000000 0
0.600000 0.000000 0
0.700000 0.000000 0
0.800000 0.000000 0
0.900000 0.000000 0
1.000000 0.000000 0
1.100000 0.000000 0
1.200000 0.000000 0
1.300000 0.000000 0
1.400000 0.000000 0
1.500000 0.000000 0
1.600000 0.000000 0
1.700000 0.000000 0
1.800000 0.000000 0
1.900000 0.000000 0
2.000000 0.000000 0
2.100000 0.000000 0
2.200000 0.000000 0
2.300000 0.000000 0
2.400000 0.000000 0
2.500000 0.000000 0
2.600000 0.000000 0
2.700000 0.000000 0
2.800000 0.000000 0
2.900000 0.000000 0
3.000000 0.000000 0
3.100000 0.000000 0
3.200000 0.000000 0
3.300000 0.000000 0
3.400000 0.000000 0
3.500000 0.000000 0
3.600000 0.000000 0
3.700000 0.000000 0
3.800000 0.000000 0
3.900000 0.000000 0
4.000000 0.000000 0
4.100000 0.000000 0
4.200000 0.000000 0
4.300000 0.000000 0
4.400000 0.000000 0
4.500000 0.000000 0
4.600000 0.000000 0
4.700000 0.000000 0
4.800000 0.000000 0
4.900000 0.000000 0
5.000000 0.000000 0
5.100000 0.000000 0
5.200000 0.000000 0
5.300000 0.000000 0
5.400000 0.000000 0
5.500000 0.000000 0
5.600000 0.000000 0
5.700000 0.000000 0
5.800000 0.000000 0
5.900000 0.000000 0
6.000000 0.000000 0
6.100000 0.000000 0
6.200000 0.000000 0
6.300000 0.000000 0
6.400000 0.000000 0
6.500000 0.000000 0
6.600000 0.000000 0
6.700000 0.000000 0
6.800000 0.000000 0
6.900000 0.000000 0
7.000000 0.000000 0
7.100000 0.000000 0
7.200000 0.000000 0
7.300000 0.000000 0
7.400000 0.000000 0
7.500000 0.000000 0
7.600000 0.000000 0
7.700000 0.000000 0
7.800000 0.000000 0
7.900000 0.000000 0
8.000000 0.000000 0
8.100000 0.000000 0
8.200000 0.000000 0
8.300000 0.000000 0
8.400000 0.000000 0
8.500000 0.000000 0
8.600000 0.000000 0
8.700000 0.000000 0
8.800000 0.000000 0
8.900000 0.000000 0
9.000000 0.000000 0
9.100000 0.000000 0
9.200000 0.000000 0
9.300000 0.000000 0
9.400000 0.000000 0
9.500000 0.000000 0
9.600000 0.000000 0
9.700000 0.000000 0
9.800000 0.000000 0
0.000000 0.100000 0
0.100000 0.100000 0
0.200000 0.100000 0
0.300000 0.100000 0
0.400000 0.100000 0
0.500000 0.100000 0
0.600000 0.100000 0
0.700000 0.100000 0
0.800000 0.100000 0
0.900000 0.100000 0
1.000000 0.100000 0
1.100000 0.100000 0
1.200000 0.100000 0
1.300000 0.100000 0
1.400000 0.100000 0
1.500000 0.100000 0
1.600000 0.100000 0
1.700000 0.100000 0
1.800000 0.100000 0
1.900000 0.100000 0
2.000000 0.100000 0
2.100000 0.100000 0
2.200000 0.100000 0
2.300000 0.100000 0
2.400000 0.100000 0
2.500000 0.100000 0
2.600000 0.100000 0
2.700000 0.100000 0
2.800000 0.100000 0
2.900000 0.100000 0
3.000000 0.100000 0
3.100000 0.100000 0
3.200000 0.100000 0
3.300000 0.100000 0
3.400000 0.100000 0
3.500000 0.100000 0
3.600000 0.100000 0
3.700000 0.100000 0
3.800000 0.100000 0
3.900000 0.100000 0
4.000000 0.100000 0
4.100000 0.100000 0
4.200000 0.100000 0
4.300000 0.100000 0
4.400000 0.100000 0
4.500000 0.100000 0
4.600000 0.100000 0
4.700000 0.100000 0
4.800000 0.100000 0
4.900000 0.100000 0
5.000000 0.100000 0
5.100000 0.100000 0
5.200000 0.100000 0
5.300000 0.100000 0
5.400000 0.100000 0
5.500000 0.100000 0
5.600000 0.100000 0
5.700000 0.100000 0
5.800000 0.100000 0
5.900000 0.100000 0
6.000000 0.100000 0
6.100000 0.100000 0
6.200000 0.100000 0
6.300000 0.100000 0
6.400000 0.100000 0
6.500000 0.100000 0
6.600000 0.100000 0
6.700000 0.100000 0
6.800000 0.100000 0
6.900000 0.100000 0
7.000000 0.100000 0
7.100000 0.100000 0
7.200000 0.100000 0
7.300000 0.100000 0
7.400000 0.100000 0
7.500000 0.100000 0
7.600000 0.100000 0
7.700000 0.100000 0
7.800000 0.100000 0
7.900000 0.100000 0
8.000000 0.100000 0
8.100000 0.100000 0
8.200000 0.100000 0
8.300000 0.100000 0
8.400000 0.100000 0
8.500000 0.100000 0
8.600000 0.100000 0
8.700000 0.100000 0
8.800000 0.100000 0
8.900000 0.100000 0
9.000000 0.100000 0
9.100000 0.100000 0
9.200000 0.100000 0
9.300000 0.100000 0
9.400000 0.100000 0
9.500000 0.100000 0
9.600000 0.100000 0
9.700000 0.100000 0
9.800000 0.100000 0
0.000000 0.200000 0
0.100000 0.200000 0
0.200000 0.200000 0
0.300000 0.200000 0
0.400000 0.200000 0
0.500000 0.200000 0
0.600000 0.200000 0
0.700000 0.200000 0
0.800000 0.200000 0
0.900000 0.200000 0
1.000000 0.200000 0
1.100000 0.200000 0
1.200000 0.200000 0
1.300000 0.200000 0
1.400000 0.200000 0
1.500000 0.200000 0
1.600000 0.200000 0
1.700000 0.200000 0
1.800000 0.200000 0
1.900000 0.200000 0
2.000000 0.200000 0
2.100000 0.200000 0
2.200000 0.200000 0
2.300000 0.200000 0
2.400000 0.200000 0
2.500000 0.200000 0
2.600000 0.200000 0
2.700000 0.200000 0
2.800000 0.200000 0
2.900000 0.200000 0
3.000000 0.200000 0
3.100000 0.200000 0
3.200000 0.200000 0
3.300000 0.200000 0
3.400000 0.200000 0
3.500000 0.200000 0
3.600000 0.200000 0
3.700000 0.200000 0
3.800000 0.200000 0
3.900000 0.200000 0
4.000000 0.200000 0
4.100000 0.200000 0
4.200000 0.200000 0
4.300000 0.200000 0
4.400000 0.200000 0
4.500000 0.200000 0
4.600000 0.200000 0
4.700000 0.200000 0
4.800000 0.200000 0
4.900000 0.200000 0
5.000000 0.200000 0
5.100000 0.200000 0
5.200000 0.200000 0
5.300000 0.200000 0
5.400000 0.200000 0
5.500000 0.200000 0
5.600000 0.200000 0
5.700000 0.200000 0
5.800000 0.200000 0
5.900000 0.200000 0
6.000000 0.200000 0
6.100000 0.200000 0
6.200000 0.200000 0
6.300000 0.200000 0
6.400000 0.200000 0
6.500000 0.200000 0
6.600000 0.200000 0
6.700000 0.200000 0
6.800000 0.200000 0
6.900000 0.200000 0
7.000000 0.200000 0
7.100000 0.200000 0
7.200000 0.200000 0
7.300000 0.200000 0
7.400000 0.200000 0
7.500000 0.200000 0
7.600000 0.200000 0
7.700000 0.200000 0
7.800000 0.200000 0
7.900000 0.200000 0
8.000000 0.200000 0
8.100000 0.200000 0
8.200000 0.200000 0
8.300000 0.200000 0
8.400000 0.200000 0
8.500000 0.200000 0
8.600000 0.200000 0
8.700000 0.200000 0
8.800000 0.200000 0
8.900000 0.200000 0
9.000000 0.200000 0
9.100000 0.200000 0
9.200000 0.200000 0
9.300000 0.200000 0
9.400000 0.200000 0
9.500000 0.200000 0
9.600000 0.200000 0
9.700000 0.200000 0
9.800000 0.200000 0
0.000000 0.300000 0
0.100000 0.300000 0
0.200000 0.300000 0
0.300000 0.300000 0
0.400000 0.300000 0
0.500000 0.300000 0
0.600000 0.300000 0
0.700000 0.300000 0
0.800000 0.300000 0
0.900000 0.300000 0
1.000000 0.300000 0
1.100000 0.300000 0
1.200000 0.300000 0
1.300000 0.300000 0
1.400000 0.300000 0
1.500000 0.300000 0
1.600000 0.300000 0
1.700000 0.300000 0
1.800000 0.300000 0
1.900000 0.300000 0
2.000000 0.300000 0
2.100000 0.300000 0
2.200000 0.300000 0
2.300000 0.300000 0
2.400000 0.300000 0
2.500000 0.300000 0
2.600000 0.300000 0
2.700000 0.300000 0
2.800000 0.300000 0
2.900000 0.300000 0
3.000000 0.300000 0
3.100000 0.300000 0
3.200000 0.300000 0
3.300000 0.300000 0
3.400000 0.300000 0
3.500000 0.300000 0
3.600000 0.300000 0
3.700000 0.300000 0
3.800000 0.300000 0
3.900000 0.300000 0
4.000000 0.300000 0
4.100000 0.300000 0
4.200000 0.300000 0
4.300000 0.300000 0
4.400000 0.300000 0
4.500000 0.300000 0
4.600000 0.300000 0
4.700000 0.300000 0
4.800000 0.300000 0
4.900000 0.300000 0
5.000000 0.300000 0
5.100000 0.300000 0
5.200000 0.300000 0
5.300000 0.300000 0
5.400000 0.300000 0
5.500000 0.300000 0
5.600000 0.300000 0
5.700000 0.300000 0
5.800000 0.300000 0
5.900000 0.300000 0
6.000000 0.300000 0
6.100000 0.300000 0
6.200000 0.300000 0
6.300000 0.300000 0
6.400000 0.300000 0
6.500000 0.300000 0
6.600000 0.300000 0
6.700000 0.300000 0
6.800000 0.300000 0
6.900000 0.300000 0
7.000000 0.300000 0
7.100000 0.300000 0
7.200000 0.300000 0
7.300000 0.300000 0
7.400000 0.300000 0
7.500000 0.300000 0
7.600000 0.300000 0
7.700000 0.300000 0
7.800000 0.300000 0
7.900000 0.300000 0
8.000000 0.300000 0
8.100000 0.300000 0
8.200000 0.300000 0
8.300000 0.300000 0
8.400000 0.300000 0
8.500000 0.300000 0
8.600000 0.300000 0
8.700000 0.300000 0
8.800000 0.300000 0
8.900000 0.300000 0
9.000000 0.300000 0
9.100000 0.300000 0
9.200000 0.300000 0
9.300000 0.300000 0
9.400000 0.300000 0
9.500000 0.300000 0
9.600000 0.300000 0
9.700000 0.300000 0
9.800000 0.300000 0
0.000000 0.400000 0
0.100000 0.400000 0
0.200000 0.400000 0
0.300000 0.400000 0
0.400000 0.400000 0
0.500000 0.400000 0
0.600000 0.400000 0
0.700000 0.400000 0
0.800000 0.400000 0
0.900000 0.400000 0
1.000000 0.400000 0
1.100000 0.400000 0
1.200000 0.400000 0
1.300000 0.400000 0
1.400000 0.400000 0
1.500000 0.400000 0
1.600000 0.400000 0
1.700000 0.400000 0
1.800000 0.400000 0
1.900000 0.400000 0
2.000000 0.400000 0
2.100000 0.400000 0
2.200000 0.400000 0
2.300000 0.400000 0
2.400000 0.400000 0
2.500000 0.400000 0
2.600000 0.400000 0
2.700000 0.400000 0
2.800000 0.400000 0
2.900000 0.400000 0
3.000000 0.400000 0
3.100000 0.400000 0
3.200000 0.400000 0
3.300000 0.400000 0
3.400000 0.400000 0
3.500000 0.400000 0
3.600000 0.400000 0
3.700000 0.400000 0
3.800000 0.400000 0
3.900000 0.400000 0
4.000000 0.400000 0
4.100000 0.400000 0
4.200000 0.400000 0
4.300000 0.400000 0
4.400000 0.400000 0
4.500000 0.400000 0
4.600000 0.400000 0
4.700000 0.400000 0
4.800000 0.400000 0
4.900000 0.400000 0
5.000000 0.400000 0
5.100000 0.400000 0
5.200000 0.400000 0
5.300000 0.400000 0
5.400000 0.400000 0
5.500000 0.400000 0
5.600000 0.400000 0
5.700000 0.400000 0
5.800000 0.400000 0
5.900000 0.400000 0
6.000000 0.400000 0
6.100000 0.400000 0
6.200000 0.400000 0
6.300000 0.400000 0
6.400000 0.400000 0
6.500000 0.400000 0
6.600000 0.400000 0
6.700000 0.400000 0
6.800000 0.400000 0
6.900000 0.400000 0
7.000000 0.400000 0
7.100000 0.400000 0
7.200000 0.400000 0
7.300000 0.400000 0
7.400000 0.400000 0
7.500000 0.400000 0
7.600000 0.400000 0
7.700000 0.400000 0
7.800000 0.400000 0
7.900000 0.400000 0
8.000000 0.400000 0
8.100000 0.400000 0
8.200000 0.400000 0
8.300000 0.400000 0
8.400000 0.400000 0
8.500000 0.400000 0
8.600000 0.400000 0
8.700000 0.400000 0
8.800000 0.400000 0
8.900000 0.400000 0
9.000000 0.400000 0
9.100000 0.400000 0
9.200000 0.400000 0
9.300000 0.400000 0
9.400000 0.400000 0
[...]
POINT_DATA 1881 

VECTORS velocity float
0.500000 0.000000 0
0.502074 0.000000 0
0.506720 0.000000 0
0.514361 0.000000 0
0.525426 0.000000 0
0.540249 0.000000 0
0.558864 0.000000 0
0.580708 0.000000 0
0.604397 0.000000 0
0.627641 0.000000 0
0.648497 0.000000 0
0.665965 0.000000 0
0.679808 0.000000 0
0.690157 0.000000 0
0.697184 0.000000 0
0.700969 0.000000 0
0.701482 0.000000 0
0.698722 0.000000 0
0.692763 0.000000 0
0.683855 0.000000 0
0.672447 0.000000 0
0.659163 0.000000 0
0.644755 0.000000 0
0.630056 0.000000 0
0.615926 0.000000 0
0.603201 0.000000 0
0.592658 0.000000 0
0.585000 0.000000 0
0.580885 0.000000 0
0.580915 0.000000 0
0.585343 0.000000 0
0.593795 0.000000 0
0.605110 0.000000 0
0.617383 0.000000 0
0.628356 0.000000 0
0.636032 0.000000 0
0.639237 0.000000 0
0.637713 0.000000 0
0.631721 0.000000 0
0.621860 0.000000 0
0.608920 0.000000 0
0.593756 0.000000 0
0.577211 0.000000 0
0.560085 0.000000 0
0.543142 0.000000 0
0.527123 0.000000 0
0.512773 0.000000 0
0.500869 0.000000 0
0.492244 0.000000 0
0.487752 0.000000 0
0.488041 0.000000 0
0.493197 0.000000 0
0.502944 0.000000 0
0.516733 0.000000 0
0.533753 0.000000 0
0.552907 0.000000 0
0.572759 0.000000 0
0.591505 0.000000 0
0.607096 0.000000 0
0.617630 0.000000 0
0.621960 0.000000 0
0.619992 0.000000 0
0.612173 0.000000 0
0.599254 0.000000 0
0.582281 0.000000 0
0.562516 0.000000 0
0.541358 0.000000 0
0.520256 0.000000 0
0.500639 0.000000 0
0.483832 0.000000 0
0.470956 0.000000 0
0.462797 0.000000 0
0.459651 0.000000 0
0.461101 0.000000 0
0.466186 0.000000 0
0.474033 0.000000 0
0.483992 0.000000 0
0.495625 0.000000 0
0.508622 0.000000 0
0.522680 0.000000 0
0.537354 0.000000 0
0.551937 0.000000 0
0.565396 0.000000 0
0.576447 0.000000 0
0.583799 0.000000 0
0.586535 0.000000 0
0.584347 0.000000 0
0.577288 0.000000 0
0.565687 0.000000 0
0.550236 0.000000 0
0.532049 0.000000 0
0.512666 0.000000 0
0.493961 0.000000 0
0.477892 0.000000 0
0.466130 0.000000 0
0.459726 0.000000 0
0.458928 0.000000 0
0.463138 0.000000 0
0.472431 0.000000 0
1.000000 -0.002081 0
1.004703 -0.006734 0
1.014619 -0.012304 0
1.030513 -0.018724 0
1.053318 -0.025906 0
1.083899 -0.033456 0
1.122607 -0.040473 0
1.168552 -0.045541 0
1.219035 -0.046927 0
1.268221 -0.044081 0
1.311663 -0.038303 0
1.347559 -0.031294 0
1.375847 -0.024182 0
1.397117 -0.017378 0
1.411911 -0.010807 0
1.420387 -0.004288 0
1.422380 0.002250 0
1.417733 0.008723 0
1.406512 0.014868 0
1.389199 0.020313 0
1.366719 0.024687 0
1.340368 0.027684 0
1.311703 0.029095 0
1.282443 0.028816 0
1.254356 0.026840 0
1.229151 0.023252 0
1.208391 0.018186 0
1.193452 0.011760 0
1.185558 0.004072 0
1.185808 -0.004464 0
1.194900 -0.012877 0
1.212468 -0.019759 0
1.236468 -0.023574 0
1.263144 -0.023229 0
1.287749 -0.018631 0
1.305811 -0.010864 0
1.314445 -0.001670 0
1.312905 0.007522 0
1.301886 0.015857 0
1.282802 0.022805 0
1.257400 0.028108 0
1.227501 0.031712 0
1.194853 0.033673 0
1.161089 0.034069 0
1.127740 0.032961 0
1.096280 0.030368 0
1.068143 0.026252 0
1.044728 0.020526 0
1.027326 0.013114 0
1.017003 0.004200 0
1.014508 -0.005449 0
1.020251 -0.014906 0
1.034208 -0.023537 0
1.055880 -0.030808 0
1.084274 -0.036171 0
1.117909 -0.039000 0
1.154699 -0.038589 0
1.191773 -0.034324 0
1.225475 -0.026111 0
1.251767 -0.014850 0
1.267077 -0.002348 0
1.269482 0.009800 0
1.259490 0.020749 0
1.238708 0.029900 0
1.209322 0.036744 0
1.173908 0.040929 0
1.135263 0.042265 0
1.096230 0.040723 0
1.059525 0.036428 0
1.027530 0.029687 0
1.002050 0.021040 0
0.984090 0.011309 0
0.973765 0.001701 0
0.970507 -0.006531 0
0.973367 -0.012928 0
0.981287 -0.017801 0
0.993436 -0.021587 0
1.009289 -0.024625 0
1.028550 -0.027048 0
1.050959 -0.028724 0
1.076006 -0.029249 0
1.102655 -0.028033 0
1.129211 -0.024501 0
1.153374 -0.018394 0
1.172481 -0.010079 0
1.183954 -0.000540 0
1.186002 0.009255 0
1.178405 0.018669 0
1.161930 0.027060 0
1.138047 0.033645 0
1.108918 0.037577 0
1.077293 0.038095 0
1.046260 0.034779 0
1.018799 0.027835 0
0.997246 0.018169 0
0.982907 0.007205 0
0.976060 -0.003410 0
0.976433 -0.013502 0
0.983934 -0.019266 0
1.000000 -0.004717 0
1.004851 -0.014644 0
1.014753 -0.025831 0
1.030505 -0.038721 0
1.053359 -0.053408 0
1.084824 -0.069308 0
1.126242 -0.084665 0
1.177647 -0.096423 0
1.237316 -0.099649 0
1.293528 -0.092603 0
1.340152 -0.079317 0
1.376654 -0.064174 0
1.404541 -0.049559 0
1.425510 -0.036064 0
1.440669 -0.023260 0
1.450157 -0.010461 0
1.453364 0.002657 0
1.449688 0.015870 0
1.438916 0.028533 0
1.421480 0.039786 0
1.398394 0.048821 0
1.371089 0.055003 0
1.341259 0.057909 0
1.310750 0.057330 0
1.281451 0.053273 0
1.255152 0.045946 0
1.233414 0.035682 0
1.217492 0.022818 0
1.208444 0.007635 0
1.207431 -0.009342 0
1.215761 -0.026652 0
1.233843 -0.041551 0
1.260188 -0.050656 0
1.291254 -0.051259 0
1.321908 -0.042646 0
1.346436 -0.026682 0
1.360295 -0.007087 0
1.361995 0.012563 0
1.352837 0.030109 0
1.334851 0.044491 0
1.310223 0.055304 0
1.281016 0.062549 0
1.249060 0.066414 0
1.215964 0.067112 0
1.183166 0.064807 0
1.151987 0.059595 0
1.123645 0.051548 0
1.099199 0.040813 0
1.079433 0.027721 0
1.064758 0.012814 0
1.055348 -0.003251 0
1.051575 -0.019703 0
1.053903 -0.035629 0
1.062643 -0.050062 0
1.077997 -0.062021 0
1.100063 -0.070414 0
1.128481 -0.073850 0
1.161907 -0.070759 0
1.197699 -0.059976 0
1.231941 -0.041584 0
1.259802 -0.017699 0
1.276671 0.007600 0
1.280517 0.030784 0
1.272597 0.050176 0
1.254966 0.064807 0
1.230061 0.074065 0
1.200481 0.077683 0
1.168785 0.075743 0
1.137303 0.068706 0
1.107931 0.057481 0
1.081964 0.043445 0
1.060014 0.028292 0
1.042132 0.013589 0
1.028202 0.000403 0
1.018166 -0.010774 0
1.011847 -0.020063 0
1.009252 -0.027995 0
1.010709 -0.035105 0
1.016771 -0.041661 0
1.027983 -0.047446 0
1.044470 -0.051684 0
1.065654 -0.053193 0
1.090215 -0.050707 0
1.116207 -0.043259 0
1.141177 -0.030569 0
1.162282 -0.013510 0
1.176690 0.005560 0
1.182684 0.024082 0
1.180530 0.040367 0
1.171353 0.053021 0
1.156790 0.060763 0
1.138737 0.062665 0
1.119054 0.058501 0
1.099306 0.049020 0
1.080614 0.035896 0
1.063669 0.021189 0
1.048881 0.006476 0
1.036697 -0.007873 0
1.026825 -0.016403 0
1.000000 -0.006945 0
1.003865 -0.021505 0
1.012040 -0.037967 0
1.025553 -0.057337 0
1.046181 -0.080230 0
1.076541 -0.106338 0
1.119973 -0.133285 0
1.178939 -0.156593 0
1.257241 -0.162790 0
1.323103 -0.146912 0
1.369948 -0.121434 0
1.402424 -0.095698 0
1.425510 -0.073051 0
1.442783 -0.053499 0
1.456298 -0.035448 0
1.466199 -0.016986 0
1.470683 0.002718 0
1.467853 0.023166 0
1.456869 0.043071 0
1.438116 0.060828 0
1.412830 0.075069 0
1.382684 0.084811 0
1.349583 0.089426 0
1.315575 0.088616 0
1.282761 0.082432 0
1.253120 0.071283 0
1.228247 0.055843 0
1.209150 0.036731 0
1.196376 0.014142 0
1.190611 -0.011769 0
1.193619 -0.039276 0
1.206938 -0.064171 0
1.230294 -0.080973 0
1.261692 -0.084942 0
1.297306 -0.073811 0
1.331081 -0.049256 0
1.355670 -0.017236 0
1.365643 0.014980 0
1.361581 0.043003 0
1.346673 0.065418 0
1.323942 0.081942 0
1.295956 0.092875 0
1.264770 0.098723 0
1.232020 0.099962 0
1.199046 0.096936 0
1.166988 0.089887 0
1.136842 0.079040 0
1.109441 0.064737 0
1.085367 0.047553 0
1.064802 0.028284 0
1.047429 0.007733 0
1.032661 -0.013459 0
1.020519 -0.034600 0
1.012535 -0.054896 0
1.010999 -0.073583 0
1.018252 -0.089474 0
1.035566 -0.100423 0
1.062404 -0.103534 0
1.096531 -0.096138 0
1.134451 -0.076948 0
1.171755 -0.047076 0
1.203325 -0.010915 0
1.224095 0.024822 0
1.232626 0.055452 0
1.230357 0.079280 0
1.219235 0.095415 0
1.201409 0.103543 0
1.179002 0.103903 0
1.153935 0.097284 0
1.127807 0.085030 0
1.101851 0.068960 0
1.076931 0.051144 0
1.053555 0.033516 0
1.031842 0.017438 0
1.011740 0.003429 0
0.993473 -0.008884 0
0.977881 -0.020444 0
0.966653 -0.032138 0
0.961728 -0.044316 0
0.964369 -0.056417 0
0.974699 -0.066914 0
0.991786 -0.073772 0
1.014021 -0.075049 0
1.039479 -0.069351 0
1.066147 -0.056150 0
1.091995 -0.036049 0
1.114834 -0.011142 0
1.132140 0.014833 0
1.142577 0.038395 0
1.146396 0.057389 0
1.144333 0.070197 0
1.137331 0.075832 0
1.126330 0.074213 0
1.112174 0.066277 0
1.095668 0.053807 0
1.077650 0.038938 0
1.058921 0.023562 0
1.039938 0.008554 0
1.020732 -0.000604 0
1.000000 -0.008595 0
1.002454 -0.026699 0
1.007848 -0.047526 0
1.017308 -0.072866 0
1.033027 -0.104397 0
1.058876 -0.143094 0
1.101292 -0.187047 0
1.168200 -0.233677 0
1.282691 -0.243807 0
1.352776 -0.205314 0
1.386913 -0.158652 0
1.404394 -0.119749 0
1.414540 -0.089915 0
1.422293 -0.066843 0
1.430896 -0.046676 0
1.441227 -0.024848 0
1.449853 0.001000 0
1.450731 0.029679 0
1.441744 0.058262 0
1.423353 0.083818 0
1.397175 0.104246 0
1.365136 0.118243 0
1.329279 0.125011 0
1.291809 0.124146 0
1.255111 0.115724 0
1.221540 0.100456 0
1.192853 0.079652 0
1.169552 0.054697 0
1.150841 0.026185 0
1.135477 -0.006574 0
1.123430 -0.042966 0
1.118773 -0.078215 0
1.125187 -0.105402 0
1.145040 -0.118268 0
1.178148 -0.112039 0
1.220160 -0.085053 0
1.262437 -0.041649 0
1.293956 0.006655 0
1.307463 0.049078 0
1.305878 0.082129 0
1.293242 0.106020 0
1.272799 0.121721 0
1.247037 0.130348 0
1.217873 0.132834 0
1.186822 0.129838 0
1.155128 0.121798 0
1.123829 0.109094 0
1.093723 0.092287 0
1.065135 0.072359 0
1.037546 0.050751 0
1.009595 0.028891 0
0.980165 0.007212 0
0.950201 -0.015497 0
0.923797 -0.040535 0
0.907187 -0.067729 0
0.904413 -0.094972 0
0.915792 -0.117993 0
0.939329 -0.131716 0
0.972113 -0.132018 0
1.010938 -0.116806 0
1.052415 -0.086573 0
1.092789 -0.044740 0
1.127380 0.001483 0
1.151405 0.043915 0
1.164385 0.078200 0
1.167470 0.103015 0
1.162188 0.117918 0
1.150165 0.123220 0
1.132949 0.119904 0
1.111888 0.109568 0
1.088043 0.094324 0
1.062113 0.076589 0
1.034460 0.058680 0
1.005409 0.042221 0
0.975817 0.027599 0
0.947568 0.013800 0
0.923366 -0.001170 0
0.905938 -0.018946 0
0.897320 -0.039371 0
0.898080 -0.060411 0
0.907325 -0.079095 0
0.923415 -0.092509 0
0.944537 -0.098395 0
0.968965 -0.095380 0
0.995126 -0.083081 0
1.021596 -0.062192 0
1.046994 -0.034580 0
1.069666 -0.003656 0
1.087411 0.026115 0
1.099385 0.051269 0
1.105531 0.069830 0
1.106043 0.080671 0
1.101225 0.083660 0
1.091458 0.079683 0
1.077242 0.070421 0
1.059233 0.057936 0
1.038243 0.044188 0
1.015199 0.030314 0
0.991206 0.021546 0
1.000000 -0.009410 0
1.000536 -0.029367 0
1.001928 -0.052826 0
1.005009 -0.082519 0
1.011726 -0.121795 0
1.026373 -0.174593 0
1.058282 -0.242597 0
1.124757 -0.337985 0
1.295329 -0.347367 0
1.336873 -0.251144 0
1.327747 -0.173065 0
1.313529 -0.123324 0
1.300291 -0.090939 0
1.290043 -0.069852 0
1.286526 -0.054384 0
1.293743 -0.035946 0
1.310560 -0.006790 0
1.324071 0.031269 0
1.324921 0.070441 0
1.314471 0.105390 0
1.294983 0.133279 0
1.268101 0.152700 0
1.235370 0.162747 0
1.198727 0.162779 0
1.160748 0.152697 0
1.124436 0.133540 0
1.091836 0.107835 0
1.061740 0.078752 0
1.029837 0.048227 0
0.993194 0.015655 0
0.953740 -0.022560 0
0.919405 -0.065920 0
0.903398 -0.107237 0
0.911568 -0.137906 0
0.942354 -0.148939 0
0.990695 -0.133548 0
1.049277 -0.091027 0
1.107999 -0.030046 0
1.153973 0.031079 0
1.180365 0.079639 0
1.191077 0.115020 0
1.189651 0.139078 0
1.178810 0.153649 0
1.160751 0.160175 0
1.137292 0.159680 0
1.109886 0.152879 0
1.079442 0.140443 0
1.045983 0.123429 0
1.008478 0.103730 0
0.965706 0.083825 0
0.918410 0.065117 0
0.871011 0.045940 0
0.830476 0.021775 0
0.802772 -0.011874 0
0.790812 -0.054190 0
0.793728 -0.098070 0
0.808662 -0.135331 0
0.832861 -0.159849 0
0.864225 -0.167744 0
0.900948 -0.157249 0
0.941099 -0.128928 0
0.982435 -0.085879 0
1.022192 -0.033792 0
1.055946 0.018448 0
1.080140 0.063217 0
1.094687 0.097614 0
1.100223 0.120851 0
1.097683 0.133145 0
1.088037 0.135564 0
1.072105 0.129938 0
1.050428 0.118737 0
1.023333 0.104729 0
0.991350 0.090223 0
0.955955 0.076084 0
0.920107 0.061275 0
0.887931 0.043571 0
0.863401 0.021190 0
0.848724 -0.006086 0
0.843964 -0.036451 0
0.847764 -0.066415 0
0.858282 -0.092243 0
0.873854 -0.110980 0
0.893164 -0.120593 0
0.915138 -0.119935 0
0.938811 -0.108776 0
0.963243 -0.087911 0
0.987493 -0.059206 0
1.010548 -0.025580 0
1.030842 0.008679 0
1.046599 0.039273 0
1.057116 0.063541 0
1.062007 0.080141 0
1.061084 0.088800 0
1.054321 0.090262 0
1.041908 0.086033 0
1.024349 0.077937 0
1.002605 0.067595 0
0.978199 0.055590 0
0.953538 0.047102 0
1.000000 -0.009141 0
0.998256 -0.028639 0
0.994696 -0.052001 0
0.989275 -0.082665 0
0.982413 -0.125755 0
0.976175 -0.189640 0
0.977822 -0.285422 0
1.009166 -0.470722 0
1.198293 -0.455929 0
1.145052 -0.237742 0
1.053040 -0.135310 0
1.001583 -0.092283 0
0.964406 -0.066422 0
0.933041 -0.053078 0
0.910554 -0.050379 0
0.908468 -0.048887 0
0.934851 -0.029333 0
0.979757 0.015311 0
1.015181 0.067855 0
1.034070 0.113749 0
1.040958 0.150610 0
1.036080 0.177849 0
1.019251 0.194380 0
0.990776 0.198764 0
0.951108 0.190014 0
0.900528 0.169372 0
0.839975 0.142355 0
0.773356 0.116705 0
0.708557 0.094743 0
0.655254 0.069535 0
0.621550 0.030832 0
0.609801 -0.027869 0
0.618046 -0.097566 0
0.643623 -0.157229 0
0.684049 -0.191171 0
0.737361 -0.191974 0
0.801322 -0.158951 0
0.872114 -0.098043 0
0.942060 -0.023289 0
0.998203 0.045024 0
1.035743 0.096733 0
1.057678 0.133986 0
1.066327 0.159247 0
1.063611 0.174351 0
1.051116 0.180701 0
1.029852 0.179646 0
0.999915 0.172996 0
0.960531 0.163251 0
0.911271 0.152637 0
0.854549 0.140823 0
0.797424 0.123590 0
0.749874 0.095152 0
0.719877 0.052750 0
0.709378 -0.000862 0
0.713689 -0.058677 0
0.726616 -0.112814 0
0.744559 -0.157120 0
0.766390 -0.187276 0
0.792252 -0.200104 0
0.822415 -0.193681 0
0.856510 -0.168059 0
0.893304 -0.125831 0
0.930886 -0.072026 0
0.966689 -0.014031 0
0.996336 0.039461 0
1.017769 0.082934 0
1.030617 0.114925 0
1.034967 0.135408 0
1.031034 0.145484 0
1.018984 0.147179 0
0.998978 0.143099 0
0.971585 0.135670 0
0.938481 0.126060 0
0.902944 0.113468 0
0.869472 0.095627 0
0.842418 0.070512 0
0.824522 0.038043 0
0.816317 0.000496 0
0.816354 -0.038404 0
0.822383 -0.074722 0
0.832576 -0.105180 0
0.845789 -0.127386 0
0.861402 -0.139673 0
0.879054 -0.141022 0
0.898389 -0.131180 0
0.918903 -0.110868 0
0.939918 -0.081880 0
0.960615 -0.047001 0
0.980003 -0.009931 0
0.996344 0.024998 0
1.008341 0.054425 0
1.015198 0.076705 0
1.016376 0.091349 0
1.011588 0.098860 0
1.000907 0.100394 0
0.984928 0.097240 0
0.964938 0.090338 0
0.942932 0.079381 0
0.921797 0.070394 0
1.000000 -0.007675 0
0.996032 -0.024072 0
0.987500 -0.043846 0
0.973063 -0.070233 0
0.950396 -0.108687 0
0.915765 -0.169992 0
0.863442 -0.275582 0
0.789376 -0.558456 0
0.551092 -0.386965 0
0.490801 0.000000 0
0.419245 -0.019989 0
0.355087 -0.034683 0
0.339731 -0.022398 0
0.342623 -0.016003 0
0.343997 -0.029816 0
0.357434 -0.060249 0
0.398600 -0.078085 0
0.472249 -0.049067 0
0.558105 0.016122 0
0.626849 0.079607 0
0.672942 0.131263 0
0.698607 0.174403 0
0.702556 0.208048 0
0.683838 0.230920 0
0.642236 0.242946 0
0.579688 0.244680 0
0.503415 0.235016 0
0.428296 0.210179 0
0.373079 0.166341 0
0.350897 0.102672 0
0.362992 0.022898 0
0.397869 -0.062415 0
0.438429 -0.141064 0
0.477910 -0.203915 0
0.518020 -0.242675 0
0.563189 -0.250818 0
0.616944 -0.225781 0
0.679995 -0.170784 0
0.749690 -0.095011 0
0.818380 -0.014046 0
0.873681 0.055543 0
0.912579 0.108491 0
0.936347 0.147714 0
0.945924 0.175385 0
0.941967 0.193437 0
0.924697 0.204079 0
0.894153 0.209763 0
0.851420 0.212073 0
0.800628 0.209714 0
0.749887 0.197675 0
0.708979 0.169797 0
0.684692 0.123494 0
0.677880 0.062279 0
0.684486 -0.005677 0
0.697946 -0.071420 0
0.713106 -0.128934 0
0.727845 -0.175100 0
0.742354 -0.207539 0
0.758227 -0.223768 0
0.777439 -0.221507 0
0.801264 -0.199814 0
0.829585 -0.160253 0
0.860966 -0.107176 0
0.893194 -0.047000 0
0.923091 0.012140 0
0.946961 0.063336 0
0.963381 0.103655 0
0.971618 0.132731 0
0.971249 0.151550 0
0.962097 0.161995 0
0.944524 0.166137 0
0.919976 0.165230 0
0.891393 0.158867 0
0.862917 0.145097 0
0.838734 0.121806 0
0.821667 0.088527 0
0.812508 0.047298 0
0.810393 0.002089 0
0.813563 -0.042511 0
0.820048 -0.082632 0
0.828429 -0.115643 0
0.837983 -0.139800 0
0.848578 -0.153853 0
0.860437 -0.156916 0
0.873831 -0.148618 0
0.888792 -0.129433 0
0.904979 -0.100913 0
0.921713 -0.065661 0
0.938083 -0.027046 0
0.952813 0.010938 0
0.964299 0.044690 0
0.971486 0.072110 0
0.973651 0.092412 0
0.970426 0.105732 0
0.961929 0.112695 0
0.948914 0.113906 0
0.932825 0.109591 0
0.915646 0.098731 0
0.899867 0.088734 0
1.000000 -0.005179 0
0.994440 -0.016146 0
0.982321 -0.029030 0
0.961266 -0.045554 0
0.926654 -0.068448 0
0.869392 -0.102678 0
0.770089 -0.159029 0
0.586616 -0.254664 0
0.000000 -0.157355 0
0.000000 0.000000 0
0.000000 0.000000 0
-0.029998 -0.022778 0
-0.046950 -0.053963 0
-0.048570 -0.057348 0
-0.057128 -0.065196 0
-0.054355 -0.103496 0
-0.025747 -0.144154 0
0.034067 -0.144200 0
0.130565 -0.086750 0
0.237102 -0.001093 0
0.312480 0.078847 0
0.360237 0.148232 0
0.382033 0.209147 0
0.378070 0.259084 0
0.352199 0.294168 0
0.313955 0.308199 0
0.278210 0.293754 0
0.259980 0.247052 0
0.267514 0.172153 0
0.299359 0.079629 0
0.344352 -0.016138 0
0.387048 -0.103308 0
0.421252 -0.177612 0
0.446370 -0.236822 0
0.466095 -0.276448 0
0.487014 -0.290898 0
0.516041 -0.275757 0
0.557405 -0.230790 0
0.610833 -0.161676 0
0.671826 -0.078969 0
0.730796 0.002533 0
0.777067 0.071318 0
0.808440 0.125899 0
0.824657 0.168729 0
0.825679 0.201927 0
0.811930 0.227460 0
0.785242 0.246273 0
0.750161 0.256777 0
0.714377 0.254173 0
0.686748 0.232476 0
0.673453 0.188791 0
0.675337 0.126259 0
0.688658 0.052964 0
0.707611 -0.020921 0
0.726173 -0.087290 0
0.741135 -0.142707 0
0.751325 -0.186365 0
0.757324 -0.217657 0
0.761318 -0.235188 0
0.766553 -0.236715 0
0.776173 -0.220203 0
0.791881 -0.185531 0
0.813292 -0.135633 0
0.838350 -0.076154 0
0.864185 -0.014304 0
0.886868 0.042647 0
0.903784 0.090270 0
0.913563 0.127542 0
0.915451 0.155007 0
0.909345 0.173906 0
0.896138 0.185222 0
0.878035 0.188804 0
0.858402 0.183124 0
0.840921 0.166132 0
0.828371 0.136883 0
0.821851 0.096744 0
0.820893 0.049323 0
0.824153 -0.000553 0
0.829939 -0.048053 0
0.836659 -0.089583 0
0.843186 -0.123110 0
0.848987 -0.147529 0
0.854169 -0.162121 0
0.859385 -0.166268 0
0.865537 -0.159529 0
0.873366 -0.142011 0
0.883105 -0.114796 0
0.894390 -0.080100 0
0.906394 -0.041026 0
0.918015 -0.001214 0
0.927739 0.035754 0
0.934365 0.067356 0
0.937102 0.092411 0
0.935602 0.110584 0
0.930052 0.121907 0
0.921242 0.126345 0
0.910478 0.123605 0
0.899319 0.112338 0
0.889396 0.101302 0
1.000000 -0.002120 0
0.993926 -0.006397 0
0.980720 -0.010667 0
0.957914 -0.014558 0
0.920804 -0.016803 0
0.860696 -0.013419 0
0.761069 0.007199 0
0.588765 0.109383 0
0.275214 0.097401 0
0.000000 0.000000 0
0.000000 0.000000 0
0.000000 0.000000 0
-0.025034 -0.006086 0
-0.111435 -0.005829 0
-0.176488 -0.024036 0
-0.195513 -0.091636 0
-0.187776 -0.166513 0
-0.161152 -0.205384 0
-0.107060 -0.186918 0
-0.023763 -0.102314 0
0.060142 0.008124 0
0.124083 0.104847 0
0.165795 0.190214 0
0.188649 0.260756 0
0.199595 0.307067 0
0.209921 0.318676 0
0.231431 0.289000 0
0.270949 0.220886 0
0.327527 0.126970 0
0.392171 0.025839 0
0.448014 -0.064790 0
0.488565 -0.139318 0
0.512906 -0.200389 0
0.521587 -0.248757 0
0.517900 -0.283318 0
0.508609 -0.300766 0
0.503044 -0.296173 0
0.510005 -0.265577 0
0.533877 -0.209434 0
0.572780 -0.134011 0
0.619892 -0.049701 0
0.663941 0.030845 0
0.696777 0.100123 0
0.716357 0.158145 0
0.722407 0.206163 0
0.716349 0.244516 0
0.701956 0.271533 0
0.685512 0.282940 0
0.674424 0.273131 0
0.674343 0.238605 0
0.686747 0.181215 0
0.709038 0.108296 0
0.736582 0.030013 0
0.763361 -0.043183 0
0.785029 -0.104937 0
0.799632 -0.154082 0
0.806294 -0.191288 0
0.805288 -0.217532 0
0.798431 -0.232995 0
0.789242 -0.236359 0
0.782257 -0.225141 0
0.781440 -0.197372 0
0.788533 -0.153643 0
0.802574 -0.097890 0
0.820746 -0.036375 0
0.839317 0.023739 0
0.854694 0.076961 0
0.864918 0.121066 0
0.869072 0.155770 0
0.867257 0.181310 0
0.860729 0.197451 0
0.851827 0.202970 0
0.843418 0.195986 0
0.837950 0.175134 0
0.836675 0.140882 0
0.839509 0.096011 0
0.845499 0.045002 0
0.853374 -0.006951 0
0.861587 -0.055011 0
0.868813 -0.095874 0
0.874051 -0.127966 0
0.876741 -0.150777 0
0.876959 -0.164244 0
0.875508 -0.168277 0