# vtk DataFile Version 2.0
generated by CFD-lab course output (written by Tobias Neckel) 
ASCII

DATASET STRUCTURED_GRID
DIMENSIONS  99 19 1 
POINTS 1881 float

0.000000 0.000000 0
0.100000 0.000000 0
0.200000 0.000000 0
0.300000 0.000000 0
0.400000 0.000000 0
0.500000 0.000000 0
0.600000 0.000000 0
0.700000 0.000000 0
0.800000 0.000000 0
0.900000 0.000000 0
1.000000 0.000000 0
1.100000 0.000000 0
1.200000 0.000000 0
1.300000 0.000000 0
1.400000 0.000000 0
1.500000 0.000000 0
1.600000 0.000000 0
1.700000 0.000000 0
1.800000 0.000000 0
1.900000 0.000000 0
2.000000 0.000000 0
2.100000 0.000000 0
2.200000 0.000000 0
2.300000 0.000000 0
2.400000 0.000000 0
2.500000 0.000000 0
2.600000 0.000000 0
2.700000 0.000000 0
2.800000 0.000000 0
2.900000 0.000000 0
3.000000 0.000000 0
3.100000 0.000000 0
3.200000 0.000000 0
3.300000 0.000000 0
3.400000 0.000000 0
3.500000 0.000000 0
3.600000 0.000000 0
3.700000 0.000000 0
3.800000 0.000000 0
3.900000 0.000000 0
4.000000 0.000000 0
4.100000 0.000000 0
4.200000 0.000000 0
4.300000 0.000000 0
4.400000 0.000000 0
4.500000 0.000000 0
4.600000 0.000000 0
4.700000 0.000000 0
4.800000 0.000000 0
4.900000 0.000000 0
5.000000 0.000000 0
5.100000 0.000000 0
5.200000 0.000000 0
5.300000 0.000000 0
5.400000 0.000000 0
5.500000 0.000000 0
5.600000 0.000000 0
5.700000 0.000000 0
5.800000 0.000000 0
5.900000 0.000000 0
6.000000 0.000000 0
6.100000 0.000000 0
6.200000 0.000000 0
6.300000 0.000000 0
6.400000 0.000000 0
6.500000 0.000000 0
6.600000 0.000000 0
6.700000 0.000000 0
6.800000 0.000000 0
6.900000 0.000000 0
7.000000 0.000000 0
7.100000 0.000000 0
7.200000 0.000000 0
7.300000 0.000000 0
7.400000 0.000000 0
7.500000 0.000000 0
7.600000 0.000000 0
7.700000 0.000000 0
7.800000 0.000000 0
7.900000 0.000000 0
8.000000 0.000000 0
8.100000 0.000000 0
8.200000 0.000000 0
8.300000 0.000000 0
8.400000 0.000000 0
8.500000 0.000000 0
8.600000 0.000000 0
8.700000 0.000000 0
8.800000 0.000000 0
8.900000 0.000000 0
9.000000 0.000000 0
9.100000 0.000000 0
9.200000 0.000000 0
9.300000 0.000000 0
9.400000 0.000000 0
9.500000 0.000000 0
9.600000 0.000000 0
9.700000 0.000000 0
9.800000 0.000000 0
0.000000 0.100000 0
0.100000 0.100000 0
0.200000 0.100000 0
0.300000 0.100000 0
0.400000 0.100000 0
0.500000 0.100000 0
0.600000 0.100000 0
0.700000 0.100000 0
0.800000 0.100000 0
0.900000 0.100000 0
1.000000 0.100000 0
1.100000 0.100000 0
1.200000 0.100000 0
1.300000 0.100000 0
1.400000 0.100000 0
1.500000 0.100000 0
1.600000 0.100000 0
1.700000 0.100000 0
1.800000 0.100000 0
1.900000 0.100000 0
2.000000 0.100000 0
2.100000 0.100000 0
2.200000 0.100000 0
2.300000 0.100000 0
2.400000 0.100000 0
2.500000 0.100000 0
2.600000 0.100000 0
2.700000 0.100000 0
2.800000 0.100000 0
2.900000 0.100000 0
3.000000 0.100000 0
3.100000 0.100000 0
3.200000 0.100000 0
3.300000 0.100000 0
3.400000 0.100000 0
3.500000 0.100000 0
3.600000 0.100000 0
3.700000 0.100000 0
3.800000 0.100000 0
3.900000 0.100000 0
4.000000 0.100000 0
4.100000 0.100000 0
4.200000 0.100000 0
4.300000 0.100000 0
4.400000 0.100000 0
4.500000 0.100000 0
4.600000 0.100000 0
4.700000 0.100000 0
4.800000 0.100000 0
4.900000 0.100000 0
5.000000 0.100000 0
5.100000 0.100000 0
5.200000 0.100000 0
5.300000 0.100000 0
5.400000 0.100000 0
5.500000 0.100000 0
5.600000 0.100000 0
5.700000 0.100000 0
5.800000 0.100000 0
5.900000 0.100000 0
6.000000 0.100000 0
6.100000 0.100000 0
6.200000 0.100000 0
6.300000 0.100000 0
6.400000 0.100000 0
6.500000 0.100000 0
6.600000 0.100000 0
6.700000 0.100000 0
6.800000 0.100000 0
6.900000 0.100000 0
7.000000 0.100000 0
7.100000 0.100000 0
7.200000 0.100000 0
7.300000 0.100000 0
7.400000 0.100000 0
7.500000 0.100000 0
7.600000 0.100000 0
7.700000 0.100000 0
7.800000 0.100000 0
7.900000 0.100000 0
8.000000 0.100000 0
8.100000 0.100000 0
8.200000 0.100000 0
8.300000 0.100000 0
8.400000 0.100000 0
8.500000 0.100000 0
8.600000 0.100000 0
8.700000 0.100000 0
8.800000 0.100000 0
8.900000 0.100000 0
9.000000 0.100000 0
9.100000 0.100000 0
9.200000 0.100000 0
9.300000 0.100000 0
9.400000 0.100000 0
9.500000 0.100000 0
9.600000 0.100000 0
9.700000 0.100000 0
9.800000 0.100000 0
0.000000 0.200000 0
0.100000 0.200000 0
0.200000 0.200000 0
0.300000 0.200000 0
0.400000 0.200000 0
0.500000 0.200000 0
0.600000 0.200000 0
0.700000 0.200000 0
0.800000 0.200000 0
0.900000 0.200000 0
1.000000 0.200000 0
1.100000 0.200000 0
1.200000 0.200000 0
1.300000 0.200000 0
1.400000 0.200000 0
1.500000 0.200000 0
1.600000 0.200000 0
1.700000 0.200000 0
1.800000 0.200000 0
1.900000 0.200000 0
2.000000 0.200000 0
2.100000 0.200000 0
2.200000 0.200000 0
2.300000 0.200000 0
2.400000 0.200000 0
2.500000 0.200000 0
2.600000 0.200000 0
2.700000 0.200000 0
2.800000 0.200000 0
2.900000 0.200000 0
3.000000 0.200000 0
3.100000 0.200000 0
3.200000 0.200000 0
3.300000 0.200000 0
3.400000 0.200000 0
3.500000 0.200000 0
3.600000 0.200000 0
3.700000 0.200000 0
3.800000 0.200000 0
3.900000 0.200000 0
4.000000 0.200000 0
4.100000 0.200000 0
4.200000 0.200000 0
4.300000 0.200000 0
4.400000 0.200000 0
4.500000 0.200000 0
4.600000 0.200000 0
4.700000 0.200000 0
4.800000 0.200000 0
4.900000 0.200000 0
5.000000 0.200000 0
5.100000 0.200000 0
5.200000 0.200000 0
5.300000 0.200000 0
5.400000 0.200000 0
5.500000 0.200000 0
5.600000 0.200000 0
5.700000 0.200000 0
5.800000 0.200000 0
5.900000 0.200000 0
6.000000 0.200000 0
6.100000 0.200000 0
6.200000 0.200000 0
6.300000 0.200000 0
6.400000 0.200000 0
6.500000 0.200000 0
6.600000 0.200000 0
6.700000 0.200000 0
6.800000 0.200000 0
6.900000 0.200000 0
7.000000 0.200000 0
7.100000 0.200000 0
7.200000 0.200000 0
7.300000 0.200000 0
7.400000 0.200000 0
7.500000 0.200000 0
7.600000 0.200000 0
7.700000 0.200000 0
7.800000 0.200000 0
7.900000 0.200000 0
8.000000 0.200000 0
8.100000 0.200000 0
8.200000 0.200000 0
8.300000 0.200000 0
8.400000 0.200000 0
8.500000 0.200000 0
8.600000 0.200000 0
8.700000 0.200000 0
8.800000 0.200000 0
8.900000 0.200000 0
9.000000 0.200000 0
9.100000 0.200000 0
9.200000 0.200000 0
9.300000 0.200000 0
9.400000 0.200000 0
9.500000 0.200000 0
9.600000 0.200000 0
9.700000 0.200000 0
9.800000 0.200000 0
0.000000 0.300000 0
0.100000 0.300000 0
0.200000 0.300000 0
0.300000 0.300000 0
0.400000 0.300000 0
0.500000 0.300000 0
0.600000 0.300000 0
0.700000 0.300000 0
0.800000 0.300000 0
0.900000 0.300000 0
1.000000 0.300000 0
1.100000 0.300000 0
1.200000 0.300000 0
1.300000 0.300000 0
1.400000 0.300000 0
1.500000 0.300000 0
1.600000 0.300000 0
1.700000 0.300000 0
1.800000 0.300000 0
1.900000 0.300000 0
2.000000 0.300000 0
2.100000 0.300000 0
2.200000 0.300000 0
2.300000 0.300000 0
2.400000 0.300000 0
2.500000 0.300000 0
2.600000 0.300000 0
2.700000 0.300000 0
2.800000 0.300000 0
2.900000 0.300000 0
3.000000 0.300000 0
3.100000 0.300000 0
3.200000 0.300000 0
3.300000 0.300000 0
3.400000 0.300000 0
3.500000 0.300000 0
3.600000 0.300000 0
3.700000 0.300000 0
3.800000 0.300000 0
3.900000 0.300000 0
4.000000 0.300000 0
4.100000 0.300000 0
4.200000 0.300000 0
4.300000 0.300000 0
4.400000 0.300000 0
4.500000 0.300000 0
4.600000 0.300000 0
4.700000 0.300000 0
4.800000 0.300000 0
4.900000 0.300000 0
5.000000 0.300000 0
5.100000 0.300000 0
5.200000 0.300000 0
5.300000 0.300000 0
5.400000 0.300000 0
5.500000 0.300000 0
5.600000 0.300000 0
5.700000 0.300000 0
5.800000 0.300000 0
5.900000 0.300000 0
6.000000 0.300000 0
6.100000 0.300000 0
6.200000 0.300000 0
6.300000 0.300000 0
6.400000 0.300000 0
6.500000 0.300000 0
6.600000 0.300000 0
6.700000 0.300000 0
6.800000 0.300000 0
6.900000 0.300000 0
7.000000 0.300000 0
7.100000 0.300000 0
7.200000 0.300000 0
7.300000 0.300000 0
7.400000 0.300000 0
7.500000 0.300000 0
7.600000 0.300000 0
7.700000 0.300000 0
7.800000 0.300000 0
7.900000 0.300000 0
8.000000 0.300000 0
8.100000 0.300000 0
8.200000 0.300000 0
8.300000 0.300000 0
8.400000 0.300000 0
8.500000 0.300000 0
8.600000 0.300000 0
8.700000 0.300000 0
8.800000 0.300000 0
8.900000 0.300000 0
9.000000 0.300000 0
9.100000 0.300000 0
9.200000 0.300000 0
9.300000 0.300000 0
9.400000 0.300000 0
9.500000 0.300000 0
9.600000 0.300000 0
9.700000 0.300000 0
9.800000 0.300000 0
0.000000 0.400000 0
0.100000 0.400000 0
0.200000 0.400000 0
0.300000 0.400000 0
0.400000 0.400000 0
0.500000 0.400000 0
0.600000 0.400000 0
0.700000 0.400000 0
0.800000 0.400000 0
0.900000 0.400000 0
1.000000 0.400000 0
1.100000 0.400000 0
1.200000 0.400000 0
1.300000 0.400000 0
1.400000 0.400000 0
1.500000 0.400000 0
1.600000 0.400000 0
1.700000 0.400000 0
1.800000 0.400000 0
1.900000 0.400000 0
2.000000 0.400000 0
2.100000 0.400000 0
2.200000 0.400000 0
2.300000 0.400000 0
2.400000 0.400000 0
2.500000 0.400000 0
2.600000 0.400000 0
2.700000 0.400000 0
2.800000 0.400000 0
2.900000 0.400000 0
3.000000 0.400000 0
3.100000 0.400000 0
3.200000 0.400000 0
3.300000 0.400000 0
3.400000 0.400000 0
3.500000 0.400000 0
3.600000 0.400000 0
3.700000 0.400000 0
3.800000 0.400000 0
3.900000 0.400000 0
4.000000 0.400000 0
4.100000 0.400000 0
4.200000 0.400000 0
4.300000 0.400000 0
4.400000 0.400000 0
4.500000 0.400000 0
4.600000 0.400000 0
4.700000 0.400000 0
4.800000 0.400000 0
4.900000 0.400000 0
5.000000 0.400000 0
5.100000 0.400000 0
5.200000 0.400000 0
5.300000 0.400000 0
5.400000 0.400000 0
5.500000 0.400000 0
5.600000 0.400000 0
5.700000 0.400000 0
5.800000 0.400000 0
5.900000 0.400000 0
6.000000 0.400000 0
6.100000 0.400000 0
6.200000 0.400000 0
6.300000 0.400000 0
6.400000 0.400000 0
6.500000 0.400000 0
6.600000 0.400000 0
6.700000 0.400000 0
6.800000 0.400000 0
6.900000 0.400000 0
7.000000 0.400000 0
7.100000 0.400000 0
7.200000 0.400000 0
7.300000 0.400000 0
7.400000 0.400000 0
7.500000 0.400000 0
7.600000 0.400000 0
7.700000 0.400000 0
7.800000 0.400000 0
7.900000 0.400000 0
8.000000 0.400000 0
8.100000 0.400000 0
8.200000 0.400000 0
8.300000 0.400000 0
8.400000 0.400000 0
8.500000 0.400000 0
8.600000 0.400000 0
8.700000 0.400000 0
8.800000 0.400000 0
8.900000 0.400000 0
9.000000 0.400000 0
9.100000 0.400000 0
9.200000 0.400000 0
9.300000 0.400000 0
9.400000 0.400000 0
[...]
POINT_DATA 1881 

VECTORS velocity float
0.500000 0.000000 0
0.502262 0.000000 0
0.507273 0.000000 0
0.515423 0.000000 0
0.527092 0.000000 0
0.542551 0.000000 0
0.561726 0.000000 0
0.583911 0.000000 0
0.607525 0.000000 0
0.630037 0.000000 0
0.649281 0.000000 0
0.664085 0.000000 0
0.674122 0.000000 0
0.679594 0.000000 0
0.681022 0.000000 0
0.679147 0.000000 0
0.674835 0.000000 0
0.669050 0.000000 0
0.662812 0.000000 0
0.657101 0.000000 0
0.652779 0.000000 0
0.650477 0.000000 0
0.650490 0.000000 0
0.652565 0.000000 0
0.655828 0.000000 0
0.658961 0.000000 0
0.660611 0.000000 0
0.659764 0.000000 0
0.655857 0.000000 0
0.648778 0.000000 0
0.638765 0.000000 0
0.626282 0.000000 0
0.611929 0.000000 0
0.596368 0.000000 0
0.580296 0.000000 0
0.564424 0.000000 0
0.549472 0.000000 0
0.536164 0.000000 0
0.525256 0.000000 0
0.517567 0.000000 0
0.514011 0.000000 0
0.515380 0.000000 0
0.521980 0.000000 0
0.533604 0.000000 0
0.549459 0.000000 0
0.568121 0.000000 0
0.587604 0.000000 0
0.605547 0.000000 0
0.619600 0.000000 0
0.627998 0.000000 0
0.630103 0.000000 0
0.626206 0.000000 0
0.616978 0.000000 0
0.603369 0.000000 0
0.586505 0.000000 0
0.567583 0.000000 0
0.547783 0.000000 0
0.528218 0.000000 0
0.509920 0.000000 0
0.493855 0.000000 0
0.480925 0.000000 0
0.471938 0.000000 0
0.467498 0.000000 0
0.467757 0.000000 0
0.472216 0.000000 0
0.480211 0.000000 0
0.491133 0.000000 0
0.504455 0.000000 0
0.519687 0.000000 0
0.536273 0.000000 0
0.553441 0.000000 0
0.570083 0.000000 0
0.584744 0.000000 0
0.595801 0.000000 0
0.601885 0.000000 0
0.602346 0.000000 0
0.597208 0.000000 0
0.586808 0.000000 0
0.571817 0.000000 0
0.553270 0.000000 0
0.532554 0.000000 0
0.511360 0.000000 0
0.491548 0.000000 0
0.474902 0.000000 0
0.462812 0.000000 0
0.456002 0.000000 0
0.454370 0.000000 0
0.456919 0.000000 0
0.462405 0.000000 0
0.469868 0.000000 0
0.478683 0.000000 0
0.488486 0.000000 0
0.499060 0.000000 0
0.510213 0.000000 0
0.521645 0.000000 0
0.532830 0.000000 0
0.542936 0.000000 0
0.550792 0.000000 0
0.554346 0.000000 0
1.000000 -0.002271 0
1.005087 -0.007285 0
1.015745 -0.013167 0
1.032676 -0.019828 0
1.056731 -0.027135 0
1.088648 -0.034639 0
1.128574 -0.041370 0
1.175343 -0.045812 0
1.225853 -0.046141 0
1.273736 -0.041773 0
1.314077 -0.034067 0
1.344721 -0.024863 0
1.365364 -0.015533 0
1.376633 -0.006927 0
1.379675 0.000419 0
1.375993 0.006159 0
1.367345 0.010069 0
1.355720 0.012001 0
1.343225 0.011934 0
1.331919 0.010022 0
1.323614 0.006619 0
1.319675 0.002288 0
1.320793 -0.002087 0
1.326551 -0.005340 0
1.335133 -0.006402 0
1.343616 -0.004792 0
1.348885 -0.000810 0
1.348658 0.004748 0
1.341861 0.010978 0
1.328397 0.017084 0
1.308872 0.022485 0
1.284319 0.026824 0
1.255991 0.029901 0
1.225248 0.031618 0
1.193497 0.031927 0
1.162169 0.030807 0
1.132700 0.028242 0
1.106523 0.024197 0
1.085064 0.018578 0
1.069732 0.011225 0
1.061881 0.002168 0
1.062722 -0.007985 0
1.073106 -0.018237 0
1.093117 -0.027490 0
1.121748 -0.034524 0
1.156826 -0.038149 0
1.195102 -0.037429 0
1.232406 -0.031997 0
1.264070 -0.022452 0
1.285793 -0.010507 0
1.294851 0.001786 0
1.291018 0.013118 0
1.275765 0.022830 0
1.251161 0.030465 0
1.219612 0.035776 0
1.183619 0.038712 0
1.145621 0.039355 0
1.107891 0.037852 0
1.072495 0.034352 0
1.041262 0.028984 0
1.015715 0.021905 0
0.996946 0.013415 0
0.985480 0.004169 0
0.981281 -0.004729 0
0.983927 -0.012465 0
0.992753 -0.018927 0
1.007097 -0.024253 0
1.026382 -0.028562 0
1.050097 -0.031825 0
1.077630 -0.033758 0
1.107979 -0.033813 0
1.139464 -0.031305 0
1.169630 -0.025719 0
1.195408 -0.017143 0
1.213555 -0.006547 0
1.221406 0.004674 0
1.217936 0.015535 0
1.203808 0.025387 0
1.180446 0.033533 0
1.149938 0.039258 0
1.114945 0.041905 0
1.078525 0.041001 0
1.043842 0.036454 0
1.013742 0.028733 0
0.990269 0.018897 0
0.974342 0.008441 0
0.965770 -0.000919 0
0.963669 -0.008037 0
0.966780 -0.012951 0
0.973867 -0.016281 0
0.984038 -0.018620 0
0.996788 -0.020379 0
1.011883 -0.021729 0
1.029163 -0.022586 0
1.048288 -0.022617 0
1.068514 -0.021292 0
1.088551 -0.017963 0
1.106553 -0.011411 0
1.119583 -0.005897 0
1.000000 -0.005099 0
1.005246 -0.015760 0
1.015909 -0.027598 0
1.032745 -0.040998 0
1.056943 -0.055979 0
1.089903 -0.071853 0
1.132811 -0.086711 0
1.185455 -0.097296 0
1.245732 -0.098414 0
1.301186 -0.088248 0
1.345198 -0.071012 0
1.376867 -0.051316 0
1.397237 -0.031943 0
1.407579 -0.014344 0
1.409301 0.000605 0
1.403960 0.012295 0
1.393366 0.020244 0
1.379652 0.024100 0
1.365146 0.023787 0
1.352177 0.019604 0
1.342818 0.012242 0
1.338731 0.002820 0
1.341072 -0.006878 0
1.349817 -0.014346 0
1.362947 -0.017078 0
1.376587 -0.013763 0
1.386306 -0.005050 0
1.389070 0.007015 0
1.383993 0.020250 0
1.371373 0.032976 0
1.352207 0.044063 0
1.327797 0.052865 0
1.299532 0.059053 0
1.268813 0.062474 0
1.237030 0.063057 0
1.205565 0.060775 0
1.175776 0.055623 0
1.148966 0.047613 0
1.126346 0.036767 0
1.108963 0.023159 0
1.097667 0.006989 0
1.093260 -0.011243 0
1.096732 -0.030409 0
1.108666 -0.048651 0
1.128926 -0.063715 0
1.156738 -0.073357 0
1.190666 -0.075582 0
1.228199 -0.068971 0
1.265403 -0.053392 0
1.297109 -0.030789 0
1.317978 -0.005233 0
1.324825 0.019076 0
1.318559 0.039846 0
1.301492 0.056142 0
1.276238 0.067529 0
1.245446 0.073978 0
1.211639 0.075715 0
1.177106 0.073112 0
1.143828 0.066615 0
1.113402 0.056766 0
1.086940 0.044302 0
1.064995 0.030221 0
1.047579 0.015651 0
1.034450 0.001539 0
1.025546 -0.011485 0
1.020850 -0.023182 0
1.020529 -0.033639 0
1.024979 -0.043008 0
1.034788 -0.051254 0
1.050489 -0.057886 0
1.072071 -0.061836 0
1.098629 -0.061654 0
1.128314 -0.055946 0
1.158449 -0.043928 0
1.185683 -0.026003 0
1.206295 -0.004386 0
1.217234 0.017593 0
1.217887 0.037484 0
1.209338 0.053863 0
1.193309 0.065494 0
1.171931 0.071408 0
1.147475 0.071098 0
1.122069 0.064779 0
1.097454 0.053570 0
1.074833 0.039397 0
1.054872 0.024495 0
1.037880 0.010670 0
1.024174 -0.001013 0
1.013897 -0.010202 0
1.006919 -0.017261 0
1.003195 -0.022924 0
1.002933 -0.027847 0
1.006497 -0.032376 0
1.014235 -0.036406 0
1.026199 -0.039353 0
1.041965 -0.040264 0
1.060630 -0.038040 0
1.080988 -0.031032 0
1.101782 -0.024197 0
1.000000 -0.007523 0
1.004264 -0.023203 0
1.013212 -0.040673 0
1.027853 -0.060865 0
1.049926 -0.084296 0
1.081994 -0.110517 0
1.127326 -0.136932 0
1.188222 -0.158744 0
1.268334 -0.161884 0
1.334569 -0.141252 0
1.380052 -0.109762 0
1.409249 -0.076915 0
1.426317 -0.046259 0
1.433200 -0.019005 0
1.431194 0.004025 0
1.421540 0.022085 0
1.406012 0.034377 0
1.386959 0.040223 0
1.367118 0.039412 0
1.349297 0.032355 0
1.335986 0.020068 0
1.329119 0.004034 0
1.330393 -0.013179 0
1.340929 -0.027227 0
1.358988 -0.033181 0
1.379705 -0.028152 0
1.396378 -0.013298 0
1.403643 0.007054 0
1.400476 0.028669 0
1.388109 0.048861 0
1.368368 0.066052 0
1.343049 0.079489 0
1.313751 0.088876 0
1.281899 0.094110 0
1.248825 0.095165 0
1.215807 0.092051 0
1.184071 0.084830 0
1.154747 0.073618 0
1.128819 0.058572 0
1.107063 0.039897 0
1.089941 0.017867 0
1.077507 -0.007053 0
1.069783 -0.033644 0
1.067689 -0.059682 0
1.072408 -0.082594 0
1.085491 -0.099888 0
1.108187 -0.108890 0
1.140145 -0.106737 0
1.178742 -0.091369 0
1.219114 -0.063089 0
1.254728 -0.025936 0
1.278790 0.012531 0
1.288030 0.046156 0
1.284396 0.072780 0
1.270507 0.091816 0
1.249032 0.103305 0
1.222491 0.107690 0
1.193143 0.105657 0
1.162898 0.098050 0
1.133260 0.085866 0
1.105291 0.070307 0
1.079611 0.052770 0
1.056404 0.034708 0
1.035450 0.017299 0
1.016307 0.001131 0
0.998856 -0.013913 0
0.983900 -0.028383 0
0.973530 -0.042822 0
0.970151 -0.057336 0
0.975408 -0.071041 0
0.989528 -0.081952 0
1.011381 -0.087549 0
1.038951 -0.085542 0
1.069760 -0.074515 0
1.101119 -0.054396 0
1.130139 -0.026881 0
1.153489 0.003939 0
1.168328 0.033279 0
1.174461 0.058107 0
1.172765 0.076663 0
1.164533 0.087738 0
1.151187 0.090862 0
1.134072 0.086474 0
1.114366 0.075968 0
1.093108 0.061478 0
1.071252 0.045391 0
1.049632 0.029776 0
1.028826 0.015944 0
1.009361 0.004304 0
0.991908 -0.005581 0
0.977368 -0.014635 0
0.966957 -0.023681 0
0.961936 -0.033032 0
0.963052 -0.042289 0
0.970292 -0.050348 0
0.982965 -0.055723 0
0.999979 -0.056985 0
1.020178 -0.052563 0
1.042720 -0.046892 0
1.000000 -0.009371 0
1.002841 -0.028984 0
1.008998 -0.051193 0
1.019597 -0.077715 0
1.036827 -0.110127 0
1.064585 -0.149262 0
1.109362 -0.192948 0
1.179116 -0.238315 0
1.297503 -0.244772 0
1.369666 -0.199978 0
1.404714 -0.145704 0
1.422681 -0.097594 0
1.432224 -0.055908 0
1.434322 -0.019234 0
1.427889 0.012255 0
1.412860 0.037474 0
1.390724 0.054827 0
1.364078 0.062996 0
1.336243 0.061452 0
1.310761 0.050738 0
1.290694 0.032419 0
1.277861 0.008408 0
1.273123 -0.018697 0
1.279442 -0.042951 0
1.297530 -0.055856 0
1.324354 -0.051156 0
1.352429 -0.028995 0
1.371513 0.002909 0
1.375472 0.035776 0
1.367145 0.065075 0
1.349888 0.089114 0
1.326272 0.107473 0
1.298133 0.120193 0
1.266888 0.127389 0
1.233786 0.129139 0
1.200029 0.125519 0
1.166758 0.116673 0
1.134972 0.102855 0
1.105384 0.084444 0
1.078282 0.062033 0
1.053258 0.036542 0
1.028956 0.008914 0
1.003831 -0.020590 0
0.979093 -0.051275 0
0.960883 -0.081517 0
0.955533 -0.109137 0
0.966012 -0.130238 0
0.991658 -0.139532 0
1.029453 -0.132368 0
1.074941 -0.106780 0
1.122476 -0.064914 0
1.165119 -0.014232 0
1.195297 0.034234 0
1.210846 0.073658 0
1.213885 0.102888 0
1.206789 0.121988 0
1.191906 0.131597 0
1.171406 0.132699 0
1.147183 0.126492 0
1.120789 0.114367 0
1.093335 0.097945 0
1.065356 0.079102 0
1.036737 0.059806 0
1.007009 0.041632 0
0.976200 0.025106 0
0.945807 0.009224 0
0.918912 -0.008314 0
0.899252 -0.029260 0
0.889997 -0.053133 0
0.892078 -0.077263 0
0.904371 -0.097810 0
0.924805 -0.111078 0
0.951130 -0.114328 0
0.981193 -0.106100 0
1.012977 -0.086386 0
1.044532 -0.056759 0
1.073736 -0.020600 0
1.097614 0.016509 0
1.114076 0.049423 0
1.123053 0.075421 0
1.124998 0.092985 0
1.120602 0.101558 0
1.110620 0.101598 0
1.095808 0.094533 0
1.076924 0.082508 0
1.054738 0.067968 0
1.030080 0.053094 0
1.003977 0.039256 0
0.977867 0.026714 0
0.953684 0.014730 0
0.933543 0.002026 0
0.919226 -0.012415 0
0.911870 -0.028471 0
0.911736 -0.044762 0
0.918211 -0.059267 0
0.930175 -0.069952 0
0.946378 -0.075253 0
0.965666 -0.073772 0
0.987097 -0.069571 0
1.000000 -0.010374 0
1.000887 -0.032214 0
1.002982 -0.057433 0
1.007132 -0.088699 0
1.015319 -0.129292 0
1.031933 -0.183061 0
1.066510 -0.251473 0
1.136693 -0.346895 0
1.313723 -0.352445 0
1.358520 -0.248474 0
1.352607 -0.162789 0
1.343999 -0.104438 0
1.341237 -0.057912 0
1.340737 -0.014681 0
1.332431 0.025481 0
1.313730 0.059251 0
1.285668 0.083160 0
1.250873 0.094707 0
1.213060 0.092731 0
1.176564 0.077903 0
1.145134 0.052964 0
1.120276 0.021596 0
1.101107 -0.014772 0
1.088835 -0.051639 0
1.092651 -0.078095 0
1.117286 -0.083057 0
1.158269 -0.060464 0
1.202864 -0.015997 0
1.234675 0.033029 0
1.247406 0.074436 0
1.246985 0.106916 0
1.237267 0.131235 0
1.220428 0.148250 0
1.197949 0.158447 0
1.171150 0.162014 0
1.141358 0.159070 0
1.109793 0.149879 0
1.077081 0.134984 0
1.042489 0.115257 0
1.003720 0.092020 0
0.958674 0.067190 0
0.908727 0.042374 0
0.859981 0.016221 0
0.820362 -0.016734 0
0.796812 -0.059035 0
0.792208 -0.105019 0
0.804827 -0.145019 0
0.831587 -0.170185 0
0.869524 -0.174658 0
0.915728 -0.156117 0
0.966879 -0.116120 0
1.018781 -0.060297 0
1.065282 0.000423 0
1.099254 0.054187 0
1.119958 0.095868 0
1.128893 0.125278 0
1.127792 0.143067 0
1.118401 0.150374 0
1.102300 0.148660 0
1.080706 0.139709 0
1.054257 0.125734 0
1.022964 0.109363 0
0.986698 0.093051 0
0.946348 0.077833 0
0.904959 0.062332 0
0.867605 0.043373 0
0.839474 0.018171 0
0.823429 -0.013907 0
0.819513 -0.050162 0
0.825788 -0.085415 0
0.839835 -0.114681 0
0.859667 -0.134311 0
0.883816 -0.141933 0
0.911076 -0.136366 0
0.940269 -0.117739 0
0.970150 -0.087643 0
0.999368 -0.049146 0
1.026203 -0.007063 0
1.047895 0.032666 0
1.063182 0.065739 0
1.071752 0.090188 0
1.073624 0.105239 0
1.068976 0.111264 0
1.058067 0.109660 0
1.041253 0.102545 0
1.019105 0.092233 0
0.992672 0.080535 0
0.963759 0.068155 0
0.934974 0.054595 0
0.909334 0.038742 0
0.889507 0.019821 0
0.876992 -0.002010 0
0.871899 -0.025543 0
0.873477 -0.048630 0
0.880574 -0.068788 0
0.892015 -0.083891 0
0.906769 -0.092476 0
0.923945 -0.093281 0
0.942690 -0.090205 0
1.000000 -0.010268 0
0.998539 -0.031978 0
0.995554 -0.057442 0
0.991017 -0.090058 0
0.985402 -0.134938 0
0.980908 -0.200463 0
0.985077 -0.297717 0
1.020311 -0.485538 0
1.216565 -0.466610 0
1.165334 -0.238873 0
1.076926 -0.131195 0
1.031198 -0.086237 0
1.014648 -0.052657 0
1.021606 -0.010435 0
1.023746 0.039261 0
1.011421 0.084238 0
0.984939 0.117685 0
0.944715 0.135606 0
0.891951 0.135761 0
0.829628 0.118661 0
0.764506 0.088699 0
0.708438 0.052425 0
0.673569 0.012738 0
0.664985 -0.034497 0
0.683634 -0.084313 0
0.726884 -0.116781 0
0.790468 -0.114580 0
0.867268 -0.073505 0
0.944303 -0.008775 0
1.003860 0.052756 0
1.040359 0.099244 0
1.060471 0.134020 0
1.067554 0.159501 0
1.063551 0.176658 0
1.049955 0.185721 0
1.027854 0.186867 0
0.997547 0.180942 0
0.958183 0.170153 0
0.908334 0.157802 0
0.848201 0.145845 0
0.782501 0.131533 0
0.721288 0.107608 0
0.676450 0.067776 0
0.655006 0.011894 0
0.654350 -0.053365 0
0.667167 -0.117156 0
0.688246 -0.169624 0
0.715731 -0.204236 0
0.749674 -0.216514 0
0.790261 -0.204140 0
0.836654 -0.167974 0
0.886693 -0.112641 0
0.937001 -0.046245 0
0.981363 0.018976 0
1.014329 0.073243 0
1.035738 0.114147 0
1.046236 0.142083 0
1.046713 0.158184 0
1.037984 0.164182 0
1.020526 0.162405 0
0.994440 0.155681 0
0.959976 0.146656 0
0.918729 0.136418 0
0.874721 0.123368 0
0.834055 0.103846 0
0.802715 0.074707 0
0.784098 0.035862 0
0.778106 -0.009300 0
0.781709 -0.055492 0
0.791484 -0.097586 0
0.805224 -0.131691 0
0.821908 -0.155062 0
0.841225 -0.165740 0
0.863054 -0.162557 0
0.887069 -0.145463 0
0.912579 -0.115861 0
0.938581 -0.076655 0
0.963853 -0.032021 0
0.986490 0.012442 0
1.004268 0.051562 0
1.016199 0.082541 0
1.021713 0.104331 0
1.020478 0.117151 0
1.012358 0.122252 0
0.997536 0.121468 0
0.976768 0.116547 0
0.951671 0.108437 0
0.924778 0.096952 0
0.899150 0.081137 0
0.877631 0.060195 0
0.862144 0.034368 0
0.853388 0.005191 0
0.850918 -0.024958 0
0.853595 -0.053438 0
0.860239 -0.077805 0
0.869911 -0.096148 0
0.881919 -0.107183 0
0.895709 -0.109693 0
0.910674 -0.107473 0
1.000000 -0.008924 0
0.996214 -0.027780 0
0.988057 -0.049915 0
0.974197 -0.078555 0
0.952349 -0.119194 0
0.918889 -0.182746 0
0.868325 -0.290886 0
0.797235 -0.578393 0
0.559415 -0.398556 0
0.499398 0.000000 0
0.429383 -0.018741 0
0.368872 -0.042171 0
0.384746 -0.048329 0
0.436823 -0.023782 0
0.488958 0.035667 0
0.504302 0.098058 0
0.493515 0.149867 0
0.458321 0.187695 0
0.401832 0.207815 0
0.332695 0.205342 0
0.267071 0.174146 0
0.226275 0.112525 0
0.223767 0.028677 0
0.256018 -0.061708 0
0.308232 -0.140000 0
0.371970 -0.189898 0
0.445843 -0.200857 0
0.530844 -0.169841 0
0.625328 -0.103572 0
0.718077 -0.021629 0
0.791909 0.050296 0
0.841990 0.104031 0
0.873075 0.145160 0
0.887301 0.176037 0
0.885743 0.197702 0
0.868673 0.211469 0
0.835827 0.219542 0
0.787637 0.224192 0
0.727740 0.225236 0
0.665115 0.217851 0
0.612537 0.194103 0
0.580632 0.148426 0
0.572384 0.082503 0
0.583049 0.005364 0
0.602894 -0.071199 0
0.623821 -0.138921 0
0.643375 -0.193590 0
0.662679 -0.231618 0
0.684610 -0.249193 0
0.712147 -0.243103 0
0.746830 -0.212558 0
0.787953 -0.160650 0
0.832900 -0.094253 0
0.877784 -0.023148 0
0.916028 0.041486 0
0.944299 0.093365 0
0.961984 0.132087 0
0.968972 0.158620 0
0.965256 0.174841 0
0.950862 0.183247 0
0.926270 0.186278 0
0.893333 0.185070 0
0.856107 0.178302 0
0.820499 0.162504 0
0.792323 0.134337 0
0.774961 0.093329 0
0.768490 0.042779 0
0.770649 -0.011519 0
0.778118 -0.063542 0
0.788067 -0.108932 0
0.798942 -0.145108 0
0.810354 -0.170316 0
0.822746 -0.183082 0
0.836913 -0.182213 0
0.853455 -0.167268 0
0.872379 -0.139159 0
0.893027 -0.100423 0
0.914279 -0.054975 0
0.934722 -0.007752 0
0.952110 0.036027 0
0.964838 0.072740 0
0.971902 0.100957 0
0.972645 0.120615 0
0.966794 0.132598 0
0.954644 0.138133 0
0.937314 0.138096 0
0.916828 0.132523 0
0.895841 0.120674 0
0.877004 0.101740 0
0.862281 0.075746 0
0.852593 0.044063 0
0.847915 0.009214 0
0.847612 -0.025751 0
0.850657 -0.057951 0
0.856091 -0.085104 0
0.863231 -0.105571 0
0.871675 -0.118273 0
0.881205 -0.122036 0
0.891605 -0.120517 0
1.000000 -0.006492 0
0.994498 -0.020048 0
0.982507 -0.035433 0
0.961645 -0.054360 0
0.927263 -0.079639 0
0.870315 -0.116449 0
0.771341 -0.176073 0
0.587929 -0.275562 0
0.000000 -0.168781 0
0.000000 0.000000 0
0.000000 0.000000 0
-0.027991 -0.050856 0
-0.049513 -0.120614 0
-0.019824 -0.114648 0
0.013003 -0.028219 0
0.042274 0.079681 0
0.051297 0.163667 0
0.038761 0.227288 0
0.011692 0.261384 0
-0.015508 0.253415 0
-0.018473 0.195110 0
0.014489 0.095723 0
0.067619 -0.017009 0
0.122969 -0.118968 0
0.173728 -0.200272 0
0.221443 -0.254399 0
0.271965 -0.273463 0
0.331800 -0.252999 0
0.404144 -0.196017 0
0.486961 -0.113834 0
0.569152 -0.024679 0
0.634377 0.052845 0
0.678657 0.114180 0
0.703470 0.163980 0
0.709327 0.204342 0
0.696703 0.236776 0
0.667529 0.261971 0
0.627086 0.278236 0
0.584968 0.280322 0
0.553019 0.261046 0
0.540241 0.216016 0
0.548388 0.147761 0
0.572099 0.065358 0
0.602141 -0.018618 0
0.629149 -0.094142 0
0.649356 -0.157643 0
0.662127 -0.208488 0
0.669252 -0.245476 0
0.674613 -0.265987 0
0.683247 -0.266366 0
0.699516 -0.243786 0
0.725182 -0.198716 0
0.758781 -0.136081 0
0.796595 -0.064158 0
0.833403 0.006721 0
0.863148 0.068185 0
0.883624 0.117404 0
0.893848 0.154906 0
0.893384 0.182286 0
0.882491 0.201386 0
0.862724 0.213206 0
0.837521 0.216816 0
0.811993 0.209249 0
0.791449 0.187150 0
0.779367 0.149384 0
0.776322 0.098539 0
0.780558 0.040173 0
0.789305 -0.018929 0
0.799557 -0.072913 0
0.809178 -0.118412 0
0.817006 -0.153981 0
0.822880 -0.178870 0
0.827607 -0.192303 0
0.832692 -0.193269 0
0.839752 -0.180933 0
0.849826 -0.155437 0
0.862964 -0.118559 0
0.878290 -0.073719 0
0.894372 -0.025392 0
0.909294 0.021443 0
0.921059 0.062746 0
0.928383 0.096520 0
0.930482 0.122255 0
0.927130 0.140251 0
0.918821 0.150946 0
0.906873 0.154360 0
0.893274 0.149907 0
0.880213 0.136773 0
0.869490 0.114695 0
0.862109 0.084605 0
0.858255 0.048732 0
0.857548 0.010170 0
0.859322 -0.027701 0
0.862712 -0.061918 0
0.866941 -0.090380 0
0.871480 -0.111731 0
0.876117 -0.125157 0
0.880924 -0.129623 0
0.886149 -0.128624 0
1.000000 -0.003433 0
0.993854 -0.010301 0
0.980518 -0.017071 0
0.957512 -0.023321 0
0.920128 -0.027873 0
0.859491 -0.026835 0
0.758838 -0.008510 0
0.584463 0.089627 0
0.269730 0.086058 0
0.000000 0.000000 0
0.000000 0.000000 0
0.000000 0.000000 0
-0.048946 -0.054588 0
-0.121154 -0.086298 0
-0.161266 -0.026431 0
-0.153897 0.059765 0
-0.133889 0.153381 0
-0.116195 0.227297 0
-0.096527 0.262079 0
-0.059569 0.235500 0
0.005030 0.144141 0
0.085147 0.026429 0
0.152913 -0.079808 0
0.201438 -0.167823 0
0.232255 -0.238482 0
0.249287 -0.288144 0
0.260456 -0.311222 0
0.276315 -0.302030 0
0.305799 -0.258742 0
0.351877 -0.186647 0
0.410405 -0.097129 0
0.470202 -0.005484 0
0.517340 0.076058 0
0.548139 0.145358 0
0.562264 0.204461 0
0.561135 0.253261 0
0.549205 0.289155 0
0.534393 0.306749 0
0.526465 0.299300 0
0.533275 0.262579 0
0.557173 0.198735 0
0.594511 0.116567 0
0.638076 0.028748 0
0.677538 -0.051689 0
0.707298 -0.118419 0
0.725736 -0.171905 0
0.732544 -0.213491 0
0.728907 -0.244109 0
0.718117 -0.263194 0
0.705741 -0.268012 0
0.698467 -0.254498 0
0.701565 -0.219921 0
0.716548 -0.165672 0
0.740864 -0.097776 0
0.769561 -0.025074 0
0.796168 0.043137 0
0.816303 0.101380 0
0.828128 0.148854 0
0.831100 0.186193 0
0.825997 0.213902 0
0.815214 0.231243 0
0.802648 0.235797 0
0.792701 0.224372 0
0.788682 0.195128 0
0.791656 0.149462 0
0.800572 0.092137 0
0.813276 0.029795 0
0.827181 -0.030519 0
0.839765 -0.083417 0
0.849369 -0.126384 0
0.854956 -0.158813 0
0.856240 -0.180921 0
0.853930 -0.192898 0
0.849781 -0.194361 0
0.846211 -0.184405 0
0.845472 -0.162374 0
0.848806 -0.128890 0
0.856085 -0.086386 0
0.866093 -0.038759 0
0.877044 0.009337 0
0.886833 0.053647 0
0.893958 0.091529 0
0.897559 0.121864 0
0.897454 0.144256 0