# vtk DataFile Version 2.0
generated by CFD-lab course output (written by Tobias Neckel) 
ASCII

DATASET STRUCTURED_GRID
DIMENSIONS  99 19 1 
POINTS 1881 float

0.000000 0.000000 0
0.100000 0.000000 0
0.200000 0.000000 0
0.300000 0.000000 0
0.400000 0.000000 0
0.500000 0.000000 0
0.600000 0.000000 0
0.700000 0.000000 0
0.800000 0.000000 0
0.900000 0.000000 0
1.000000 0.000000 0
1.100000 0.000000 0
1.200000 0.000000 0
1.300000 0.000000 0
1.400000 0.000000 0
1.500000 0.000000 0
1.600000 0.000000 0
1.700000 0.000000 0
1.800000 0.000000 0
1.900000 0.000000 0
2.000000 0.000000 0
2.100000 0.000000 0
2.200000 0.000000 0
2.300000 0.000000 0
2.400000 0.000000 0
2.500000 0.000000 0
2.600000 0.000000 0
2.700000 0.000000 0
2.800000 0.000000 0
2.900000 0.000000 0
3.000000 0.000000 0
3.100000 0.000000 0
3.200000 0.000000 0
3.300000 0.000000 0
3.400000 0.000000 0
3.500000 0.000000 0
3.600000 0.000000 0
3.700000 0.000000 0
3.800000 0.000000 0
3.900000 0.000000 0
4.000000 0.000000 0
4.100000 0.000000 0
4.200000 0.000000 0
4.300000 0.000000 0
4.400000 0.000000 0
4.500000 0.000000 0
4.600000 0.000000 0
4.700000 0.000000 0
4.800000 0.000000 0
4.900000 0.000000 0
5.000000 0.000000 0
5.100000 0.000000 0
5.200000 0.000000 0
5.300000 0.000000 0
5.400000 0.000000 0
5.500000 0.000000 0
5.600000 0.000000 0
5.700000 0.000000 0
5.800000 0.000000 0
5.900000 0.000000 0
6.000000 0.000000 0
6.100000 0.000000 0
6.200000 0.000000 0
6.300000 0.000000 0
6.400000 0.000000 0
6.500000 0.000000 0
6.600000 0.000000 0
6.700000 0.000000 0
6.800000 0.000000 0
6.900000 0.000000 0
7.000000 0.000000 0
7.100000 0.000000 0
7.200000 0.000000 0
7.300000 0.000000 0
7.400000 0.000000 0
7.500000 0.000000 0
7.600000 0.000000 0
7.700000 0.000000 0
7.800000 0.000000 0
7.900000 0.000000 0
8.000000 0.000000 0
8.100000 0.000000 0
8.200000 0.000000 0
8.300000 0.000000 0
8.400000 0.000000 0
8.500000 0.000000 0
8.600000 0.000000 0
8.700000 0.000000 0
8.800000 0.000000 0
8.900000 0.000000 0
9.000000 0.000000 0
9.100000 0.000000 0
9.200000 0.000000 0
9.300000 0.000000 0
9.400000 0.000000 0
9.500000 0.000000 0
9.600000 0.000000 0
9.700000 0.000000 0
9.800000 0.000000 0
0.000000 0.100000 0
0.100000 0.100000 0
0.200000 0.100000 0
0.300000 0.100000 0
0.400000 0.100000 0
0.500000 0.100000 0
0.600000 0.100000 0
0.700000 0.100000 0
0.800000 0.100000 0
0.900000 0.100000 0
1.000000 0.100000 0
1.100000 0.100000 0
1.200000 0.100000 0
1.300000 0.100000 0
1.400000 0.100000 0
1.500000 0.100000 0
1.600000 0.100000 0
1.700000 0.100000 0
1.800000 0.100000 0
1.900000 0.100000 0
2.000000 0.100000 0
2.100000 0.100000 0
2.200000 0.100000 0
2.300000 0.100000 0
2.400000 0.100000 0
2.500000 0.100000 0
2.600000 0.100000 0
2.700000 0.100000 0
2.800000 0.100000 0
2.900000 0.100000 0
3.000000 0.100000 0
3.100000 0.100000 0
3.200000 0.100000 0
3.300000 0.100000 0
3.400000 0.100000 0
3.500000 0.100000 0
3.600000 0.100000 0
3.700000 0.100000 0
3.800000 0.100000 0
3.900000 0.100000 0
4.000000 0.100000 0
4.100000 0.100000 0
4.200000 0.100000 0
4.300000 0.100000 0
4.400000 0.100000 0
4.500000 0.100000 0
4.600000 0.100000 0
4.700000 0.100000 0
4.800000 0.100000 0
4.900000 0.100000 0
5.000000 0.100000 0
5.100000 0.100000 0
5.200000 0.100000 0
5.300000 0.100000 0
5.400000 0.100000 0
5.500000 0.100000 0
5.600000 0.100000 0
5.700000 0.100000 0
5.800000 0.100000 0
5.900000 0.100000 0
6.000000 0.100000 0
6.100000 0.100000 0
6.200000 0.100000 0
6.300000 0.100000 0
6.400000 0.100000 0
6.500000 0.100000 0
6.600000 0.100000 0
6.700000 0.100000 0
6.800000 0.100000 0
6.900000 0.100000 0
7.000000 0.100000 0
7.100000 0.100000 0
7.200000 0.100000 0
7.300000 0.100000 0
7.400000 0.100000 0
7.500000 0.100000 0
7.600000 0.100000 0
7.700000 0.100000 0
7.800000 0.100000 0
7.900000 0.100000 0
8.000000 0.100000 0
8.100000 0.100000 0
8.200000 0.100000 0
8.300000 0.100000 0
8.400000 0.100000 0
8.500000 0.100000 0
8.600000 0.100000 0
8.700000 0.100000 0
8.800000 0.100000 0
8.900000 0.100000 0
9.000000 0.100000 0
9.100000 0.100000 0
9.200000 0.100000 0
9.300000 0.100000 0
9.400000 0.100000 0
9.500000 0.100000 0
9.600000 0.100000 0
9.700000 0.100000 0
9.800000 0.100000 0
0.000000 0.200000 0
0.100000 0.200000 0
0.200000 0.200000 0
0.300000 0.200000 0
0.400000 0.200000 0
0.500000 0.200000 0
0.600000 0.200000 0
0.700000 0.200000 0
0.800000 0.200000 0
0.900000 0.200000 0
1.000000 0.200000 0
1.100000 0.200000 0
1.200000 0.200000 0
1.300000 0.200000 0
1.400000 0.200000 0
1.500000 0.200000 0
1.600000 0.200000 0
1.700000 0.200000 0
1.800000 0.200000 0
1.900000 0.200000 0
2.000000 0.200000 0
2.100000 0.200000 0
2.200000 0.200000 0
2.300000 0.200000 0
2.400000 0.200000 0
2.500000 0.200000 0
2.600000 0.200000 0
2.700000 0.200000 0
2.800000 0.200000 0
2.900000 0.200000 0
3.000000 0.200000 0
3.100000 0.200000 0
3.200000 0.200000 0
3.300000 0.200000 0
3.400000 0.200000 0
3.500000 0.200000 0
3.600000 0.200000 0
3.700000 0.200000 0
3.800000 0.200000 0
3.900000 0.200000 0
4.000000 0.200000 0
4.100000 0.200000 0
4.200000 0.200000 0
4.300000 0.200000 0
4.400000 0.200000 0
4.500000 0.200000 0
4.600000 0.200000 0
4.700000 0.200000 0
4.800000 0.200000 0
4.900000 0.200000 0
5.000000 0.200000 0
5.100000 0.200000 0
5.200000 0.200000 0
5.300000 0.200000 0
5.400000 0.200000 0
5.500000 0.200000 0
5.600000 0.200000 0
5.700000 0.200000 0
5.800000 0.200000 0
5.900000 0.200000 0
6.000000 0.200000 0
6.100000 0.200000 0
6.200000 0.200000 0
6.300000 0.200000 0
6.400000 0.200000 0
6.500000 0.200000 0
6.600000 0.200000 0
6.700000 0.200000 0
6.800000 0.200000 0
6.900000 0.200000 0
7.000000 0.200000 0
7.100000 0.200000 0
7.200000 0.200000 0
7.300000 0.200000 0
7.400000 0.200000 0
7.500000 0.200000 0
7.600000 0.200000 0
7.700000 0.200000 0
7.800000 0.200000 0
7.900000 0.200000 0
8.000000 0.200000 0
8.100000 0.200000 0
8.200000 0.200000 0
8.300000 0.200000 0
8.400000 0.200000 0
8.500000 0.200000 0
8.600000 0.200000 0
8.700000 0.200000 0
8.800000 0.200000 0
8.900000 0.200000 0
9.000000 0.200000 0
9.100000 0.200000 0
9.200000 0.200000 0
9.300000 0.200000 0
9.400000 0.200000 0
9.500000 0.200000 0
9.600000 0.200000 0
9.700000 0.200000 0
9.800000 0.200000 0
0.000000 0.300000 0
0.100000 0.300000 0
0.200000 0.300000 0
0.300000 0.300000 0
0.400000 0.300000 0
0.500000 0.300000 0
0.600000 0.300000 0
0.700000 0.300000 0
0.800000 0.300000 0
0.900000 0.300000 0
1.000000 0.300000 0
1.100000 0.300000 0
1.200000 0.300000 0
1.300000 0.300000 0
1.400000 0.300000 0
1.500000 0.300000 0
1.600000 0.300000 0
1.700000 0.300000 0
1.800000 0.300000 0
1.900000 0.300000 0
2.000000 0.300000 0
2.100000 0.300000 0
2.200000 0.300000 0
2.300000 0.300000 0
2.400000 0.300000 0
2.500000 0.300000 0
2.600000 0.300000 0
2.700000 0.300000 0
2.800000 0.300000 0
2.900000 0.300000 0
3.000000 0.300000 0
3.100000 0.300000 0
3.200000 0.300000 0
3.300000 0.300000 0
3.400000 0.300000 0
3.500000 0.300000 0
3.600000 0.300000 0
3.700000 0.300000 0
3.800000 0.300000 0
3.900000 0.300000 0
4.000000 0.300000 0
4.100000 0.300000 0
4.200000 0.300000 0
4.300000 0.300000 0
4.400000 0.300000 0
4.500000 0.300000 0
4.600000 0.300000 0
4.700000 0.300000 0
4.800000 0.300000 0
4.900000 0.300000 0
5.000000 0.300000 0
5.100000 0.300000 0
5.200000 0.300000 0
5.300000 0.300000 0
5.400000 0.300000 0
5.500000 0.300000 0
5.600000 0.300000 0
5.700000 0.300000 0
5.800000 0.300000 0
5.900000 0.300000 0
6.000000 0.300000 0
6.100000 0.300000 0
6.200000 0.300000 0
6.300000 0.300000 0
6.400000 0.300000 0
6.500000 0.300000 0
6.600000 0.300000 0
6.700000 0.300000 0
6.800000 0.300000 0
6.900000 0.300000 0
7.000000 0.300000 0
7.100000 0.300000 0
7.200000 0.300000 0
7.300000 0.300000 0
7.400000 0.300000 0
7.500000 0.300000 0
7.600000 0.300000 0
7.700000 0.300000 0
7.800000 0.300000 0
7.900000 0.300000 0
8.000000 0.300000 0
8.100000 0.300000 0
8.200000 0.300000 0
8.300000 0.300000 0
8.400000 0.300000 0
8.500000 0.300000 0
8.600000 0.300000 0
8.700000 0.300000 0
8.800000 0.300000 0
8.900000 0.300000 0
9.000000 0.300000 0
9.100000 0.300000 0
9.200000 0.300000 0
9.300000 0.300000 0
9.400000 0.300000 0
9.500000 0.300000 0
9.600000 0.300000 0
9.700000 0.300000 0
9.800000 0.300000 0
0.000000 0.400000 0
0.100000 0.400000 0
0.200000 0.400000 0
0.300000 0.400000 0
0.400000 0.400000 0
0.500000 0.400000 0
0.600000 0.400000 0
0.700000 0.400000 0
0.800000 0.400000 0
0.900000 0.400000 0
1.000000 0.400000 0
1.100000 0.400000 0
1.200000 0.400000 0
1.300000 0.400000 0
1.400000 0.400000 0
1.500000 0.400000 0
1.600000 0.400000 0
1.700000 0.400000 0
1.800000 0.400000 0
1.900000 0.400000 0
2.000000 0.400000 0
2.100000 0.400000 0
2.200000 0.400000 0
2.300000 0.400000 0
2.400000 0.400000 0
2.500000 0.400000 0
2.600000 0.400000 0
2.700000 0.400000 0
2.800000 0.400000 0
2.900000 0.400000 0
3.000000 0.400000 0
3.100000 0.400000 0
3.200000 0.400000 0
3.300000 0.400000 0
3.400000 0.400000 0
3.500000 0.400000 0
3.600000 0.400000 0
3.700000 0.400000 0
3.800000 0.400000 0
3.900000 0.400000 0
4.000000 0.400000 0
4.100000 0.400000 0
4.200000 0.400000 0
4.300000 0.400000 0
4.400000 0.400000 0
4.500000 0.400000 0
4.600000 0.400000 0
4.700000 0.400000 0
4.800000 0.400000 0
4.900000 0.400000 0
5.000000 0.400000 0
5.100000 0.400000 0
5.200000 0.400000 0
5.300000 0.400000 0
5.400000 0.400000 0
5.500000 0.400000 0
5.600000 0.400000 0
5.700000 0.400000 0
5.800000 0.400000 0
5.900000 0.400000 0
6.000000 0.400000 0
6.100000 0.400000 0
6.200000 0.400000 0
6.300000 0.400000 0
6.400000 0.400000 0
6.500000 0.400000 0
6.600000 0.400000 0
6.700000 0.400000 0
6.800000 0.400000 0
6.900000 0.400000 0
7.000000 0.400000 0
7.100000 0.400000 0
7.200000 0.400000 0
7.300000 0.400000 0
7.400000 0.400000 0
7.500000 0.400000 0
7.600000 0.400000 0
7.700000 0.400000 0
7.800000 0.400000 0
7.900000 0.400000 0
8.000000 0.400000 0
8.100000 0.400000 0
8.200000 0.400000 0
8.300000 0.400000 0
8.400000 0.400000 0
8.500000 0.400000 0
8.600000 0.400000 0
8.700000 0.400000 0
8.800000 0.400000 0
8.900000 0.400000 0
9.000000 0.400000 0
9.100000 0.400000 0
9.200000 0.400000 0
9.300000 0.400000 0
9.400000 0.400000 0
[...]
POINT_DATA 1881 

VECTORS velocity float
0.500000 0.000000 0
0.502138 0.000000 0
0.506834 0.000000 0
0.514494 0.000000 0
0.525502 0.000000 0
0.540148 0.000000 0
0.558415 0.000000 0
0.579683 0.000000 0
0.602504 0.000000 0
0.624551 0.000000 0
0.643879 0.000000 0
0.659547 0.000000 0
0.671469 0.000000 0
0.680092 0.000000 0
0.686109 0.000000 0
0.690243 0.000000 0
0.693069 0.000000 0
0.694850 0.000000 0
0.695486 0.000000 0
0.694554 0.000000 0
0.691539 0.000000 0
0.686038 0.000000 0
0.677895 0.000000 0
0.667229 0.000000 0
0.654390 0.000000 0
0.639903 0.000000 0
0.624411 0.000000 0
0.608624 0.000000 0
0.593289 0.000000 0
0.579152 0.000000 0
0.566935 0.000000 0
0.557346 0.000000 0
0.551116 0.000000 0
0.549050 0.000000 0
0.551792 0.000000 0
0.559498 0.000000 0
0.571636 0.000000 0
0.586848 0.000000 0
0.603034 0.000000 0
0.617709 0.000000 0
0.628593 0.000000 0
0.634242 0.000000 0
0.634334 0.000000 0
0.629213 0.000000 0
0.619571 0.000000 0
0.606324 0.000000 0
0.590476 0.000000 0
0.573024 0.000000 0
0.554903 0.000000 0
0.536979 0.000000 0
0.520060 0.000000 0
0.504936 0.000000 0
0.492404 0.000000 0
0.483282 0.000000 0
0.478350 0.000000 0
0.478126 0.000000 0
0.482520 0.000000 0
0.491122 0.000000 0
0.503393 0.000000 0
0.518692 0.000000 0
0.536258 0.000000 0
0.555115 0.000000 0
0.573967 0.000000 0
0.591151 0.000000 0
0.604789 0.000000 0
0.613212 0.000000 0
0.615541 0.000000 0
0.611800 0.000000 0
0.602419 0.000000 0
0.588144 0.000000 0
0.570034 0.000000 0
0.549415 0.000000 0
0.527809 0.000000 0
0.506847 0.000000 0
0.488139 0.000000 0
0.473109 0.000000 0
0.462793 0.000000 0
0.457665 0.000000 0
0.457471 0.000000 0
0.461193 0.000000 0
0.467768 0.000000 0
0.476404 0.000000 0
0.486582 0.000000 0
0.497986 0.000000 0
0.510391 0.000000 0
0.523527 0.000000 0
0.536943 0.000000 0
0.549916 0.000000 0
0.561439 0.000000 0
0.570332 0.000000 0
0.575512 0.000000 0
0.576321 0.000000 0
0.572583 0.000000 0
0.564366 0.000000 0
0.552046 0.000000 0
0.536376 0.000000 0
0.518555 0.000000 0
0.500200 0.000000 0
0.483700 0.000000 0
1.000000 -0.002109 0
1.004838 -0.006794 0
1.014870 -0.012334 0
1.030818 -0.018649 0
1.053533 -0.025639 0
1.083791 -0.032901 0
1.121840 -0.039524 0
1.166672 -0.044080 0
1.215439 -0.044860 0
1.262222 -0.041366 0
1.302554 -0.034980 0
1.334709 -0.027564 0
1.358874 -0.020515 0
1.376229 -0.014606 0
1.388369 -0.010118 0
1.396920 -0.006931 0
1.403186 -0.004585 0
1.407792 -0.002394 0
1.410430 0.000323 0
1.410030 0.003971 0
1.405344 0.008539 0
1.395443 0.013664 0
1.379994 0.018827 0
1.359277 0.023521 0
1.334058 0.027338 0
1.305444 0.029990 0
1.274764 0.031287 0
1.243481 0.031127 0
1.213116 0.029477 0
1.185180 0.026358 0
1.161116 0.021809 0
1.142292 0.015821 0
1.130033 0.008300 0
1.125667 -0.000668 0
1.130424 -0.010437 0
1.144965 -0.019828 0
1.168699 -0.027331 0
1.199356 -0.031376 0
1.233064 -0.030837 0
1.264914 -0.025537 0
1.289963 -0.016513 0
1.304545 -0.005724 0
1.307282 0.005044 0
1.298872 0.014778 0
1.280909 0.022903 0
1.255413 0.029107 0
1.224535 0.033311 0
1.190358 0.035582 0
1.154815 0.036054 0
1.119665 0.034851 0
1.086533 0.032050 0
1.056933 0.027663 0
1.032268 0.021659 0
1.013745 0.014058 0
1.002243 0.005160 0
0.998225 -0.004166 0
1.001794 -0.012992 0
1.012713 -0.020867 0
1.030488 -0.027563 0
1.054414 -0.032857 0
1.083568 -0.036412 0
1.116679 -0.037697 0
1.151861 -0.036023 0
1.186412 -0.030809 0
1.216889 -0.022048 0
1.239560 -0.010740 0
1.251238 0.001423 0
1.250458 0.013131 0
1.237923 0.023663 0
1.215207 0.032391 0
1.184487 0.038735 0
1.148399 0.042230 0
1.109880 0.042572 0
1.071961 0.039674 0
1.037501 0.033742 0
1.008849 0.025350 0
0.987509 0.015446 0
0.973950 0.005324 0
0.967726 -0.003525 0
0.967881 -0.010295 0
0.973192 -0.015209 0
0.982611 -0.018811 0
0.995438 -0.021580 0
1.011311 -0.023807 0
1.030047 -0.025538 0
1.051405 -0.026549 0
1.074803 -0.026387 0
1.099117 -0.024494 0
1.122631 -0.020413 0
1.143146 -0.014071 0
1.158244 -0.005988 0
1.165739 0.002931 0
1.164397 0.011957 0
1.154338 0.020539 0
1.136424 0.027991 0
1.112211 0.033491 0
1.083926 0.036177 0
1.054298 0.034855 0
1.026541 0.031783 0
1.000000 -0.004797 0
1.004990 -0.014817 0
1.015029 -0.025956 0
1.030866 -0.038642 0
1.053678 -0.052956 0
1.084891 -0.068293 0
1.125749 -0.082869 0
1.176173 -0.093588 0
1.234207 -0.095539 0
1.288070 -0.087097 0
1.331553 -0.072458 0
1.364043 -0.056282 0
1.387078 -0.041478 0
1.402712 -0.029454 0
1.413128 -0.020654 0
1.420468 -0.014789 0
1.426558 -0.010847 0
1.432382 -0.007212 0
1.437433 -0.002206 0
1.439858 0.005114 0
1.437650 0.014614 0
1.429498 0.025373 0
1.415028 0.036186 0
1.394674 0.045953 0
1.369392 0.053847 0
1.340436 0.059306 0
1.309234 0.061972 0
1.277324 0.061654 0
1.246276 0.058306 0
1.217616 0.052005 0
1.192732 0.042892 0
1.172829 0.031089 0
1.158965 0.016635 0
1.152197 -0.000377 0
1.153872 -0.019279 0
1.165231 -0.038251 0
1.186375 -0.054363 0
1.215886 -0.064336 0
1.250919 -0.065530 0
1.287258 -0.056873 0
1.319539 -0.039610 0
1.342250 -0.017301 0
1.351717 0.005692 0
1.348096 0.026391 0
1.333570 0.043474 0
1.310648 0.056388 0
1.281815 0.065067 0
1.249348 0.069732 0
1.215250 0.070704 0
1.181257 0.068291 0
1.148873 0.062740 0
1.119384 0.054272 0
1.093805 0.043195 0
1.072788 0.030031 0
1.056550 0.015525 0
1.045031 0.000454 0
1.038356 -0.014481 0
1.036779 -0.028685 0
1.040615 -0.041691 0
1.050227 -0.053067 0
1.066047 -0.062250 0
1.088291 -0.068277 0
1.116434 -0.069715 0
1.148842 -0.065011 0
1.182728 -0.053133 0
1.214290 -0.034335 0
1.239073 -0.010886 0
1.253109 0.013325 0
1.255151 0.035259 0
1.246453 0.053443 0
1.228944 0.066815 0
1.204959 0.074612 0
1.177005 0.076443 0
1.147533 0.072384 0
1.118695 0.063117 0
1.092124 0.049995 0
1.068810 0.034902 0
1.049132 0.019786 0
1.033129 0.006073 0
1.020886 -0.005463 0
1.012292 -0.014727 0
1.007190 -0.022243 0
1.005693 -0.028697 0
1.008198 -0.034606 0
1.015230 -0.040091 0
1.027134 -0.044752 0
1.043746 -0.047708 0
1.064248 -0.047826 0
1.087214 -0.044026 0
1.110733 -0.035609 0
1.132494 -0.022591 0
1.149919 -0.006151 0
1.160690 0.011403 0
1.163862 0.027975 0
1.159963 0.042129 0
1.150157 0.052499 0
1.136007 0.057913 0
1.119168 0.057385 0
1.100819 0.054056 0
1.000000 -0.007076 0
1.004004 -0.021797 0
1.012326 -0.038206 0
1.025953 -0.057294 0
1.046597 -0.079661 0
1.076809 -0.104970 0
1.119852 -0.130802 0
1.178102 -0.152533 0
1.255038 -0.156747 0
1.318968 -0.138690 0
1.363103 -0.110929 0
1.391723 -0.083067 0
1.409313 -0.059166 0
1.419109 -0.040645 0
1.423871 -0.027869 0
1.426392 -0.020359 0
1.429433 -0.016488 0
1.435034 -0.013255 0
1.442840 -0.007144 0
1.449366 0.003762 0
1.450503 0.018905 0
1.444220 0.036292 0
1.430193 0.053655 0
1.409246 0.069159 0
1.382691 0.081579 0
1.351996 0.090149 0
1.318713 0.094401 0
1.284467 0.094088 0
1.250917 0.089187 0
1.219643 0.079904 0
1.191984 0.066599 0
1.168895 0.049596 0
1.151000 0.028943 0
1.138837 0.004437 0
1.133207 -0.023454 0
1.135646 -0.052315 0
1.147059 -0.077972 0
1.167601 -0.095907 0
1.196888 -0.102200 0
1.233123 -0.094152 0
1.272080 -0.071502 0
1.307059 -0.037897 0
1.330561 -0.000797 0
1.338288 0.032929 0
1.332317 0.060356 0
1.315835 0.080867 0
1.291845 0.094614 0
1.262951 0.102151 0
1.231324 0.104149 0
1.198741 0.101230 0
1.166634 0.093925 0
1.136135 0.082733 0
1.108081 0.068257 0
1.082983 0.051316 0
1.060957 0.032920 0
1.041679 0.014032 0
1.024561 -0.004734 0
1.009381 -0.023119 0
0.997217 -0.041003 0
0.990424 -0.058280 0
0.991523 -0.074468 0
1.002183 -0.088076 0
1.022433 -0.096566 0
1.050723 -0.097097 0
1.084418 -0.087491 0
1.120206 -0.067082 0
1.154294 -0.037395 0
1.182353 -0.002946 0
1.200309 0.030321 0
1.207537 0.058600 0
1.205237 0.080230 0
1.195085 0.094171 0
1.178950 0.099999 0
1.158653 0.097986 0
1.135811 0.089153 0
1.111759 0.075236 0
1.087567 0.058439 0
1.064049 0.041006 0
1.041720 0.024722 0
1.020778 0.010543 0
1.001510 -0.001511 0
0.984520 -0.012210 0
0.970977 -0.022587 0
0.962563 -0.033343 0
0.960703 -0.044472 0
0.965978 -0.055064 0
0.977972 -0.063499 0
0.995505 -0.067960 0
1.016979 -0.066897 0
1.040638 -0.059350 0
1.064723 -0.045173 0
1.087471 -0.025264 0
1.106898 -0.001985 0
1.120921 0.021266 0
1.128896 0.041696 0
1.131143 0.057448 0
1.128316 0.067166 0
1.121174 0.070043 0
1.110314 0.068737 0
1.000000 -0.008780 0
1.002591 -0.027119 0
1.008142 -0.047902 0
1.017750 -0.072910 0
1.033555 -0.103809 0
1.059393 -0.141545 0
1.101671 -0.184159 0
1.168305 -0.228766 0
1.282176 -0.236387 0
1.351676 -0.195139 0
1.384718 -0.145193 0
1.399995 -0.102476 0
1.405631 -0.068853 0
1.404719 -0.044007 0
1.399456 -0.027936 0
1.392630 -0.020342 0
1.387913 -0.019473 0
1.389928 -0.020609 0
1.400423 -0.016530 0
1.414614 -0.002542 0
1.423219 0.019764 0
1.421739 0.045688 0
1.410352 0.071163 0
1.390762 0.093457 0
1.364757 0.111099 0
1.333914 0.123286 0
1.299765 0.129504 0
1.263957 0.129454 0
1.228272 0.123133 0
1.194460 0.110940 0
1.163874 0.093647 0
1.137042 0.072083 0
1.113649 0.046704 0
1.092915 0.017430 0
1.073806 -0.016072 0
1.056429 -0.052089 0
1.045011 -0.086306 0
1.044461 -0.114155 0
1.058595 -0.131046 0
1.088044 -0.132063 0
1.129734 -0.113541 0
1.177290 -0.075774 0
1.221620 -0.025531 0
1.252727 0.024640 0
1.266499 0.065932 0
1.266199 0.096864 0
1.255170 0.117955 0
1.236296 0.130256 0
1.211999 0.134916 0
1.184282 0.132984 0
1.154778 0.125350 0
1.124783 0.112829 0
1.095224 0.096348 0
1.066479 0.077157 0
1.038133 0.056833 0
1.009109 0.036855 0
0.978662 0.017824 0
0.947851 -0.001335 0
0.920112 -0.022726 0
0.900489 -0.047364 0
0.893112 -0.074001 0
0.898875 -0.099179 0
0.916255 -0.118249 0
0.942747 -0.126992 0
0.975636 -0.122613 0
1.012219 -0.104209 0
1.049777 -0.073030 0
1.085350 -0.032688 0
1.115003 0.010076 0
1.135317 0.048518 0
1.146222 0.079269 0
1.148555 0.100901 0
1.143481 0.112877 0
1.132252 0.115525 0
1.116055 0.110012 0
1.095933 0.098240 0
1.072741 0.082613 0
1.047131 0.065634 0
1.019683 0.049346 0
0.991247 0.034748 0
0.963354 0.021533 0
0.938280 0.008292 0
0.918511 -0.006739 0
0.906051 -0.024330 0
0.902003 -0.043505 0
0.906146 -0.062019 0
0.917302 -0.077234 0
0.933903 -0.086831 0
0.954351 -0.089158 0
0.977160 -0.083352 0
1.001000 -0.069423 0
1.024665 -0.048326 0
1.046964 -0.022046 0
1.066271 0.005978 0
1.080897 0.031907 0
1.090364 0.053079 0
1.094610 0.067882 0
1.093796 0.075387 0
1.088148 0.077112 0
1.000000 -0.009649 0
1.000666 -0.029919 0
1.002219 -0.053361 0
1.005472 -0.082704 0
1.012343 -0.121301 0
1.027118 -0.173081 0
1.059166 -0.239708 0
1.125890 -0.333026 0
1.297309 -0.340098 0
1.340891 -0.241214 0
1.333785 -0.159233 0
1.321381 -0.103968 0
1.308753 -0.063883 0
1.294091 -0.034467 0
1.275778 -0.015774 0
1.254856 -0.008803 0
1.235597 -0.013774 0
1.224273 -0.025757 0
1.229583 -0.031823 0
1.251800 -0.019028 0
1.278377 0.011785 0
1.292356 0.049162 0
1.292962 0.084634 0
1.284008 0.114757 0
1.267583 0.138430 0
1.244791 0.155144 0
1.216659 0.164360 0
1.184613 0.165584 0
1.150587 0.158688 0
1.116739 0.144308 0
1.084421 0.124027 0
1.052526 0.099832 0
1.017304 0.073083 0
0.975634 0.044294 0
0.929093 0.013046 0
0.884063 -0.023507 0
0.850360 -0.065993 0
0.837279 -0.109485 0
0.846436 -0.145780 0
0.875112 -0.165286 0
0.919258 -0.160740 0
0.974084 -0.129777 0
1.033507 -0.076229 0
1.088964 -0.011946 0
1.129879 0.046888 0
1.153802 0.092200 0
1.163668 0.124520 0
1.162109 0.145325 0
1.151458 0.156166 0
1.133764 0.158454 0
1.110733 0.153427 0
1.083573 0.142290 0
1.052720 0.126564 0
1.017692 0.108410 0
0.977675 0.090295 0
0.933163 0.073509 0
0.887607 0.056531 0
0.847140 0.035438 0
0.817730 0.006366 0
0.802511 -0.031272 0
0.801256 -0.072846 0
0.811444 -0.111212 0
0.830319 -0.140434 0
0.855782 -0.156474 0
0.886249 -0.156960 0
0.920247 -0.141220 0
0.956156 -0.110523 0
0.992133 -0.068170 0
1.025928 -0.019644 0
1.053791 0.027383 0
1.073541 0.066994 0
1.085043 0.096914 0
1.088667 0.116304 0
1.085002 0.125414 0
1.074660 0.125474 0
1.058159 0.118551 0
1.035919 0.107242 0
1.008487 0.094066 0
0.977009 0.080609 0
0.943723 0.066875 0
0.911970 0.051457 0
0.885450 0.032634 0
0.866967 0.009644 0
0.857479 -0.016833 0
0.856412 -0.044565 0
0.862358 -0.070360 0
0.873762 -0.091255 0
0.889264 -0.105007 0
0.907754 -0.110152 0
0.928278 -0.105997 0
0.949962 -0.092677 0
0.971965 -0.071228 0
0.993451 -0.043590 0
1.013488 -0.012666 0
1.030478 0.017603 0
1.043165 0.043735 0
1.050951 0.063735 0
1.053523 0.076504 0
1.050606 0.081872 0
1.000000 -0.009430 0
0.998371 -0.029320 0
0.994962 -0.052705 0
0.989721 -0.083031 0
0.983056 -0.125451 0
0.977047 -0.188362 0
0.979023 -0.282922 0
1.010926 -0.466896 0
1.202203 -0.451371 0
1.154253 -0.231600 0
1.067595 -0.125670 0
1.021956 -0.077435 0
0.995466 -0.041559 0
0.967984 -0.011027 0
0.930503 0.011312 0
0.887126 0.019853 0
0.846367 0.011119 0
0.818232 -0.014588 0
0.816689 -0.044052 0
0.851064 -0.051331 0
0.910426 -0.020788 0
0.971325 0.031106 0
1.013635 0.079514 0
1.038328 0.118839 0
1.050577 0.150319 0
1.051189 0.174213 0
1.040575 0.189685 0
1.019555 0.195529 0
0.988970 0.191012 0
0.949021 0.177115 0
0.899179 0.157871 0
0.839705 0.139212 0
0.774089 0.123610 0
0.709973 0.105656 0
0.657734 0.075512 0
0.626409 0.026655 0
0.617682 -0.039514 0
0.627342 -0.110226 0
0.650672 -0.168875 0
0.684919 -0.204878 0
0.729080 -0.212507 0
0.782344 -0.190018 0
0.842761 -0.140406 0
0.906457 -0.071728 0
0.965546 0.001098 0
1.010363 0.063079 0
1.039958 0.109652 0
1.056049 0.142468 0
1.060244 0.163264 0
1.054041 0.173711 0
1.038589 0.175543 0
1.014374 0.170845 0
0.981150 0.162232 0
0.938703 0.152207 0
0.888711 0.141368 0
0.836465 0.126929 0
0.790162 0.103854 0
0.757347 0.068551 0
0.741359 0.021912 0
0.740236 -0.030883 0
0.748794 -0.082928 0
0.762957 -0.128236 0
0.780798 -0.162583 0
0.801872 -0.182920 0
0.826318 -0.187076 0
0.854109 -0.174112 0
0.884629 -0.144913 0
0.916661 -0.102458 0
0.948584 -0.051580 0
0.978114 0.000907 0
1.001863 0.048019 0
1.018544 0.085777 0
1.027706 0.112918 0
1.029218 0.129532 0
1.023063 0.136857 0
1.009300 0.136983 0
0.988271 0.132287 0
0.961066 0.124546 0
0.929980 0.114111 0
0.898510 0.099790 0
0.870581 0.079808 0
0.849360 0.053297 0
0.836399 0.021233 0
0.831544 -0.013773 0
0.833298 -0.048381 0
0.839930 -0.079367 0
0.850095 -0.104138 0
0.862922 -0.120821 0
0.877865 -0.128170 0
0.894518 -0.125559 0
0.912452 -0.113109 0
0.931124 -0.091814 0
0.949876 -0.063568 0
0.967952 -0.031048 0
0.984322 0.002231 0
0.997406 0.032606 0
1.006208 0.057524 0
1.010049 0.075731 0
1.008267 0.084955 0
1.000000 -0.008006 0
0.996121 -0.024866 0
0.987712 -0.044708 0
0.973437 -0.070795 0
0.950975 -0.108623 0
0.916616 -0.169042 0
0.864690 -0.273577 0
0.791272 -0.556192 0
0.553304 -0.385981 0
0.496469 0.000000 0
0.428303 -0.017763 0
0.371366 -0.031833 0
0.364647 -0.009906 0
0.362529 0.030504 0
0.339702 0.065097 0
0.301749 0.075344 0
0.268408 0.055128 0
0.259521 0.003927 0
0.285270 -0.064649 0
0.345075 -0.112760 0
0.431090 -0.108473 0
0.533494 -0.054044 0
0.631500 0.017635 0
0.705906 0.077818 0
0.755590 0.125572 0
0.784805 0.165150 0
0.794186 0.195998 0
0.783963 0.217194 0
0.754026 0.229230 0
0.704618 0.234108 0
0.638782 0.233353 0
0.565647 0.224934 0
0.500447 0.202829 0
0.458339 0.160663 0
0.446466 0.096621 0
0.461444 0.016555 0
0.490826 -0.066920 0
0.521612 -0.142470 0
0.550202 -0.203351 0
0.578774 -0.243687 0
0.611465 -0.258160 0
0.651872 -0.243453 0
0.701282 -0.200337 0
0.758065 -0.134727 0
0.818130 -0.057014 0
0.872784 0.017791 0
0.914405 0.078837 0
0.942488 0.125043 0
0.957446 0.158176 0
0.959764 0.180112 0
0.949729 0.193097 0
0.927446 0.199733 0
0.893553 0.202240 0
0.850705 0.200855 0
0.804768 0.192539 0
0.763892 0.172064 0
0.735179 0.135656 0
0.721485 0.084249 0
0.721044 0.023485 0
0.729421 -0.038699 0
0.741643 -0.095560 0
0.754707 -0.143212 0
0.767655 -0.179346 0
0.781026 -0.201992 0
0.796176 -0.209194 0
0.814443 -0.199528 0
0.836392 -0.173073 0
0.861492 -0.132122 0
0.888344 -0.081094 0
0.915094 -0.025895 0
0.938869 0.026566 0
0.957208 0.071072 0
0.968926 0.105631 0
0.973301 0.130058 0
0.969907 0.145394 0
0.958722 0.153345 0
0.940485 0.155478 0
0.917076 0.152359 0
0.891551 0.143167 0
0.867528 0.126276 0
0.848118 0.100609 0
0.835049 0.066818 0
0.828513 0.027462 0
0.827645 -0.013730 0
0.830992 -0.052948 0
0.837103 -0.087155 0
0.844969 -0.114245 0
0.854082 -0.132775 0
0.864335 -0.141748 0
0.875822 -0.140582 0
0.888607 -0.129281 0
0.902533 -0.108651 0
0.917164 -0.080417 0
0.931820 -0.047111 0
0.945638 -0.011851 0
0.957295 0.021849 0
0.965515 0.051092 0
0.969402 0.074444 0
0.968105 0.087335 0
1.000000 -0.005539 0
0.994493 -0.017019 0
0.982450 -0.030018 0
0.961512 -0.046291 0
0.927072 -0.068625 0
0.870067 -0.102069 0
0.771178 -0.157567 0
0.588396 -0.252928 0
0.000000 -0.156559 0
0.000000 0.000000 0
0.000000 0.000000 0
-0.026363 -0.022374 0
-0.040800 -0.032715 0
-0.067684 0.013929 0
-0.096588 0.072103 0
-0.122524 0.091155 0
-0.130558 0.053353 0
-0.104024 -0.031445 0
-0.053210 -0.129601 0
0.009441 -0.197146 0
0.086867 -0.209203 0
0.181466 -0.169301 0
0.290080 -0.092894 0
0.391568 -0.005247 0
0.467233 0.071423 0
0.515407 0.135621 0
0.538789 0.190531 0
0.538530 0.235695 0
0.516576 0.270365 0
0.478208 0.292369 0
0.433936 0.296854 0
0.398021 0.277560 0
0.382911 0.230932 0
0.393413 0.159650 0
0.425020 0.072417 0
0.465696 -0.017698 0
0.502041 -0.099678 0
0.529297 -0.169597 0
0.547268 -0.226029 0
0.559121 -0.266135 0
0.570553 -0.285600 0
0.588078 -0.279830 0
0.616472 -0.246596 0
0.656676 -0.188572 0
0.705631 -0.113617 0
0.757472 -0.033193 0
0.802616 0.039951 0
0.835851 0.099430 0
0.856170 0.145990 0
0.863198 0.181431 0
0.856946 0.207865 0
0.838304 0.227025 0
0.810051 0.238979 0
0.777615 0.240998 0
0.748331 0.228187 0
0.728778 0.196526 0
0.721938 0.146270 0
0.726553 0.082694 0
0.738803 0.013983 0
0.753859 -0.051475 0
0.767929 -0.108208 0
0.778993 -0.154244 0
0.786506 -0.188900 0
0.791328 -0.211438 0
0.795512 -0.220490 0
0.801660 -0.214326 0
0.811880 -0.191959 0
0.826895 -0.154407 0
0.845870 -0.105180 0
0.866922 -0.049616 0
0.887610 0.005907 0
0.904890 0.055722 0
0.916946 0.096826 0
0.922679 0.128553 0
0.921552 0.151438 0
0.913758 0.166407 0
0.900500 0.173935 0
0.884061 0.173482 0
0.867406 0.163661 0
0.853333 0.143225 0
0.843638 0.112290 0
0.838801 0.072904 0
0.838280 0.028640 0
0.841026 -0.016249 0
0.845755 -0.057837 0
0.851295 -0.093341 0
0.856843 -0.121115 0
0.862069 -0.140185 0
0.867131 -0.149907 0
0.872557 -0.149829 0
0.878967 -0.139819 0
0.886759 -0.120370 0
0.895906 -0.092853 0
0.905930 -0.059521 0
0.916027 -0.023244 0
0.925136 0.012729 0
0.931936 0.045417 0
0.935433 0.073142 0
0.934740 0.089142 0
1.000000 -0.002490 0
0.993937 -0.007304 0
0.980744 -0.011722 0
0.957970 -0.015413 0
0.920919 -0.017172 0
0.860910 -0.013140 0
0.761428 0.008104 0
0.589295 0.111858 0
0.275111 0.099281 0
0.000000 0.000000 0
0.000000 0.000000 0
0.000000 0.000000 0
-0.022742 0.031055 0
-0.103813 0.086304 0
-0.158090 0.119945 0
-0.185638 0.109321 0
-0.169456 0.036634 0
-0.125693 -0.073416 0
-0.084975 -0.178111 0
-0.053698 -0.252833 0
-0.019907 -0.280494 0
0.029167 -0.257254 0
0.096500 -0.192464 0
0.177069 -0.099332 0
0.253029 0.001738 0
0.309276 0.093598 0
0.344675 0.172880 0
0.361240 0.239415 0
0.363064 0.289561 0
0.358193 0.316758 0
0.357664 0.313553 0
0.371509 0.275973 0
0.404274 0.207450 0
0.453430 0.118566 0
0.510200 0.024347 0
0.559947 -0.060461 0
0.596303 -0.130516 0
0.617933 -0.187690 0
0.625022 -0.233167 0
0.619911 -0.266966 0
0.607811 -0.287112 0
0.596587 -0.289368 0
0.594653 -0.268932 0
0.607471 -0.223882 0
0.635070 -0.157806 0
0.672549 -0.079191 0
0.712018 0.000461 0
0.744447 0.071492 0
0.766347 0.130832 0
0.776641 0.179339 0
0.775646 0.217995 0
0.765446 0.246632 0
0.750306 0.262934 0
0.736172 0.262580 0
0.728780 0.241383 0
0.731292 0.198465 0
0.743320 0.137890 0
0.761952 0.067392 0
0.783360 -0.003814 0
0.803075 -0.067818 0
0.818484 -0.120689 0
0.828118 -0.161786 0
0.831397 -0.191678 0
0.828884 -0.210995 0
0.822563 -0.219523 0
0.815677 -0.215893 0
0.811815 -0.198305 0
0.813539 -0.166110 0
0.821413 -0.121120 0
0.834080 -0.067633 0
0.849107 -0.011400 0
0.863416 0.041738 0
0.874604 0.087843 0
0.881290 0.125454 0
0.882936 0.154317 0
0.879932 0.174399 0
0.873634 0.185178 0
0.866128 0.185455 0
0.859636 0.173896 0
0.855791 0.150045 0
0.855232 0.115143 0
0.857704 0.072179 0
0.862447 0.025239 0
0.868507 -0.021202 0