# vtk DataFile Version 2.0
generated by CFD-lab course output (written by Tobias Neckel) 
ASCII

DATASET STRUCTURED_GRID
DIMENSIONS  99 19 1 
POINTS 1881 float

0.000000 0.000000 0
0.100000 0.000000 0
0.200000 0.000000 0
0.300000 0.000000 0
0.400000 0.000000 0
0.500000 0.000000 0
0.600000 0.000000 0
0.700000 0.000000 0
0.800000 0.000000 0
0.900000 0.000000 0
1.000000 0.000000 0
1.100000 0.000000 0
1.200000 0.000000 0
1.300000 0.000000 0
1.400000 0.000000 0
1.500000 0.000000 0
1.600000 0.000000 0
1.700000 0.000000 0
1.800000 0.000000 0
1.900000 0.000000 0
2.000000 0.000000 0
2.100000 0.000000 0
2.200000 0.000000 0
2.300000 0.000000 0
2.400000 0.000000 0
2.500000 0.000000 0
2.600000 0.000000 0
2.700000 0.000000 0
2.800000 0.000000 0
2.900000 0.000000 0
3.000000 0.000000 0
3.100000 0.000000 0
3.200000 0.000000 0
3.300000 0.000000 0
3.400000 0.000000 0
3.500000 0.000000 0
3.600000 0.000000 0
3.700000 0.000000 0
3.800000 0.000000 0
3.900000 0.000000 0
4.000000 0.000000 0
4.100000 0.000000 0
4.200000 0.000000 0
4.300000 0.000000 0
4.400000 0.000000 0
4.500000 0.000000 0
4.600000 0.000000 0
4.700000 0.000000 0
4.800000 0.000000 0
4.900000 0.000000 0
5.000000 0.000000 0
5.100000 0.000000 0
5.200000 0.000000 0
5.300000 0.000000 0
5.400000 0.000000 0
5.500000 0.000000 0
5.600000 0.000000 0
5.700000 0.000000 0
5.800000 0.000000 0
5.900000 0.000000 0
6.000000 0.000000 0
6.100000 0.000000 0
6.200000 0.000000 0
6.300000 0.000000 0
6.400000 0.000000 0
6.500000 0.000000 0
6.600000 0.000000 0
6.700000 0.000000 0
6.800000 0.000000 0
6.900000 0.000000 0
7.000000 0.000000 0
7.100000 0.000000 0
7.200000 0.000000 0
7.300000 0.000000 0
7.400000 0.000000 0
7.500000 0.000000 0
7.600000 0.000000 0
7.700000 0.000000 0
7.800000 0.000000 0
7.900000 0.000000 0
8.000000 0.000000 0
8.100000 0.000000 0
8.200000 0.000000 0
8.300000 0.000000 0
8.400000 0.000000 0
8.500000 0.000000 0
8.600000 0.000000 0
8.700000 0.000000 0
8.800000 0.000000 0
8.900000 0.000000 0
9.000000 0.000000 0
9.100000 0.000000 0
9.200000 0.000000 0
9.300000 0.000000 0
9.400000 0.000000 0
9.500000 0.000000 0
9.600000 0.000000 0
9.700000 0.000000 0
9.800000 0.000000 0
0.000000 0.100000 0
0.100000 0.100000 0
0.200000 0.100000 0
0.300000 0.100000 0
0.400000 0.100000 0
0.500000 0.100000 0
0.600000 0.100000 0
0.700000 0.100000 0
0.800000 0.100000 0
0.900000 0.100000 0
1.000000 0.100000 0
1.100000 0.100000 0
1.200000 0.100000 0
1.300000 0.100000 0
1.400000 0.100000 0
1.500000 0.100000 0
1.600000 0.100000 0
1.700000 0.100000 0
1.800000 0.100000 0
1.900000 0.100000 0
2.000000 0.100000 0
2.100000 0.100000 0
2.200000 0.100000 0
2.300000 0.100000 0
2.400000 0.100000 0
2.500000 0.100000 0
2.600000 0.100000 0
2.700000 0.100000 0
2.800000 0.100000 0
2.900000 0.100000 0
3.000000 0.100000 0
3.100000 0.100000 0
3.200000 0.100000 0
3.300000 0.100000 0
3.400000 0.100000 0
3.500000 0.100000 0
3.600000 0.100000 0
3.700000 0.100000 0
3.800000 0.100000 0
3.900000 0.100000 0
4.000000 0.100000 0
4.100000 0.100000 0
4.200000 0.100000 0
4.300000 0.100000 0
4.400000 0.100000 0
4.500000 0.100000 0
4.600000 0.100000 0
4.700000 0.100000 0
4.800000 0.100000 0
4.900000 0.100000 0
5.000000 0.100000 0
5.100000 0.100000 0
5.200000 0.100000 0
5.300000 0.100000 0
5.400000 0.100000 0
5.500000 0.100000 0
5.600000 0.100000 0
5.700000 0.100000 0
5.800000 0.100000 0
5.900000 0.100000 0
6.000000 0.100000 0
6.100000 0.100000 0
6.200000 0.100000 0
6.300000 0.100000 0
6.400000 0.100000 0
6.500000 0.100000 0
6.600000 0.100000 0
6.700000 0.100000 0
6.800000 0.100000 0
6.900000 0.100000 0
7.000000 0.100000 0
7.100000 0.100000 0
7.200000 0.100000 0
7.300000 0.100000 0
7.400000 0.100000 0
7.500000 0.100000 0
7.600000 0.100000 0
7.700000 0.100000 0
7.800000 0.100000 0
7.900000 0.100000 0
8.000000 0.100000 0
8.100000 0.100000 0
8.200000 0.100000 0
8.300000 0.100000 0
8.400000 0.100000 0
8.500000 0.100000 0
8.600000 0.100000 0
8.700000 0.100000 0
8.800000 0.100000 0
8.900000 0.100000 0
9.000000 0.100000 0
9.100000 0.100000 0
9.200000 0.100000 0
9.300000 0.100000 0
9.400000 0.100000 0
9.500000 0.100000 0
9.600000 0.100000 0
9.700000 0.100000 0
9.800000 0.100000 0
0.000000 0.200000 0
0.100000 0.200000 0
0.200000 0.200000 0
0.300000 0.200000 0
0.400000 0.200000 0
0.500000 0.200000 0
0.600000 0.200000 0
0.700000 0.200000 0
0.800000 0.200000 0
0.900000 0.200000 0
1.000000 0.200000 0
1.100000 0.200000 0
1.200000 0.200000 0
1.300000 0.200000 0
1.400000 0.200000 0
1.500000 0.200000 0
1.600000 0.200000 0
1.700000 0.200000 0
1.800000 0.200000 0
1.900000 0.200000 0
2.000000 0.200000 0
2.100000 0.200000 0
2.200000 0.200000 0
2.300000 0.200000 0
2.400000 0.200000 0
2.500000 0.200000 0
2.600000 0.200000 0
2.700000 0.200000 0
2.800000 0.200000 0
2.900000 0.200000 0
3.000000 0.200000 0
3.100000 0.200000 0
3.200000 0.200000 0
3.300000 0.200000 0
3.400000 0.200000 0
3.500000 0.200000 0
3.600000 0.200000 0
3.700000 0.200000 0
3.800000 0.200000 0
3.900000 0.200000 0
4.000000 0.200000 0
4.100000 0.200000 0
4.200000 0.200000 0
4.300000 0.200000 0
4.400000 0.200000 0
4.500000 0.200000 0
4.600000 0.200000 0
4.700000 0.200000 0
4.800000 0.200000 0
4.900000 0.200000 0
5.000000 0.200000 0
5.100000 0.200000 0
5.200000 0.200000 0
5.300000 0.200000 0
5.400000 0.200000 0
5.500000 0.200000 0
5.600000 0.200000 0
5.700000 0.200000 0
5.800000 0.200000 0
5.900000 0.200000 0
6.000000 0.200000 0
6.100000 0.200000 0
6.200000 0.200000 0
6.300000 0.200000 0
6.400000 0.200000 0
6.500000 0.200000 0
6.600000 0.200000 0
6.700000 0.200000 0
6.800000 0.200000 0
6.900000 0.200000 0
7.000000 0.200000 0
7.100000 0.200000 0
7.200000 0.200000 0
7.300000 0.200000 0
7.400000 0.200000 0
7.500000 0.200000 0
7.600000 0.200000 0
7.700000 0.200000 0
7.800000 0.200000 0
7.900000 0.200000 0
8.000000 0.200000 0
8.100000 0.200000 0
8.200000 0.200000 0
8.300000 0.200000 0
8.400000 0.200000 0
8.500000 0.200000 0
8.600000 0.200000 0
8.700000 0.200000 0
8.800000 0.200000 0
8.900000 0.200000 0
9.000000 0.200000 0
9.100000 0.200000 0
9.200000 0.200000 0
9.300000 0.200000 0
9.400000 0.200000 0
9.500000 0.200000 0
9.600000 0.200000 0
9.700000 0.200000 0
9.800000 0.200000 0
0.000000 0.300000 0
0.100000 0.300000 0
0.200000 0.300000 0
0.300000 0.300000 0
0.400000 0.300000 0
0.500000 0.300000 0
0.600000 0.300000 0
0.700000 0.300000 0
0.800000 0.300000 0
0.900000 0.300000 0
1.000000 0.300000 0
1.100000 0.300000 0
1.200000 0.300000 0
1.300000 0.300000 0
1.400000 0.300000 0
1.500000 0.300000 0
1.600000 0.300000 0
1.700000 0.300000 0
1.800000 0.300000 0
1.900000 0.300000 0
2.000000 0.300000 0
2.100000 0.300000 0
2.200000 0.300000 0
2.300000 0.300000 0
2.400000 0.300000 0
2.500000 0.300000 0
2.600000 0.300000 0
2.700000 0.300000 0
2.800000 0.300000 0
2.900000 0.300000 0
3.000000 0.300000 0
3.100000 0.300000 0
3.200000 0.300000 0
3.300000 0.300000 0
3.400000 0.300000 0
3.500000 0.300000 0
3.600000 0.300000 0
3.700000 0.300000 0
3.800000 0.300000 0
3.900000 0.300000 0
4.000000 0.300000 0
4.100000 0.300000 0
4.200000 0.300000 0
4.300000 0.300000 0
4.400000 0.300000 0
4.500000 0.300000 0
4.600000 0.300000 0
4.700000 0.300000 0
4.800000 0.300000 0
4.900000 0.300000 0
5.000000 0.300000 0
5.100000 0.300000 0
5.200000 0.300000 0
5.300000 0.300000 0
5.400000 0.300000 0
5.500000 0.300000 0
5.600000 0.300000 0
5.700000 0.300000 0
5.800000 0.300000 0
5.900000 0.300000 0
6.000000 0.300000 0
6.100000 0.300000 0
6.200000 0.300000 0
6.300000 0.300000 0
6.400000 0.300000 0
6.500000 0.300000 0
6.600000 0.300000 0
6.700000 0.300000 0
6.800000 0.300000 0
6.900000 0.300000 0
7.000000 0.300000 0
7.100000 0.300000 0
7.200000 0.300000 0
7.300000 0.300000 0
7.400000 0.300000 0
7.500000 0.300000 0
7.600000 0.300000 0
7.700000 0.300000 0
7.800000 0.300000 0
7.900000 0.300000 0
8.000000 0.300000 0
8.100000 0.300000 0
8.200000 0.300000 0
8.300000 0.300000 0
8.400000 0.300000 0
8.500000 0.300000 0
8.600000 0.300000 0
8.700000 0.300000 0
8.800000 0.300000 0
8.900000 0.300000 0
9.000000 0.300000 0
9.100000 0.300000 0
9.200000 0.300000 0
9.300000 0.300000 0
9.400000 0.300000 0
9.500000 0.300000 0
9.600000 0.300000 0
9.700000 0.300000 0
9.800000 0.300000 0
0.000000 0.400000 0
0.100000 0.400000 0
0.200000 0.400000 0
0.300000 0.400000 0
0.400000 0.400000 0
0.500000 0.400000 0
0.600000 0.400000 0
0.700000 0.400000 0
0.800000 0.400000 0
0.900000 0.400000 0
1.000000 0.400000 0
1.100000 0.400000 0
1.200000 0.400000 0
1.300000 0.400000 0
1.400000 0.400000 0
1.500000 0.400000 0
1.600000 0.400000 0
1.700000 0.400000 0
1.800000 0.400000 0
1.900000 0.400000 0
2.000000 0.400000 0
2.100000 0.400000 0
2.200000 0.400000 0
2.300000 0.400000 0
2.400000 0.400000 0
2.500000 0.400000 0
2.600000 0.400000 0
2.700000 0.400000 0
2.800000 0.400000 0
2.900000 0.400000 0
3.000000 0.400000 0
3.100000 0.400000 0
3.200000 0.400000 0
3.300000 0.400000 0
3.400000 0.400000 0
3.500000 0.400000 0
3.600000 0.400000 0
3.700000 0.400000 0
3.800000 0.400000 0
3.900000 0.400000 0
4.000000 0.400000 0
4.100000 0.400000 0
4.200000 0.400000 0
4.300000 0.400000 0
4.400000 0.400000 0
4.500000 0.400000 0
4.600000 0.400000 0
4.700000 0.400000 0
4.800000 0.400000 0
4.900000 0.400000 0
5.000000 0.400000 0
5.100000 0.400000 0
5.200000 0.400000 0
5.300000 0.400000 0
5.400000 0.400000 0
5.500000 0.400000 0
5.600000 0.400000 0
5.700000 0.400000 0
5.800000 0.400000 0
5.900000 0.400000 0
6.000000 0.400000 0
6.100000 0.400000 0
6.200000 0.400000 0
6.300000 0.400000 0
6.400000 0.400000 0
6.500000 0.400000 0
6.600000 0.400000 0
6.700000 0.400000 0
6.800000 0.400000 0
6.900000 0.400000 0
7.000000 0.400000 0
7.100000 0.400000 0
7.200000 0.400000 0
7.300000 0.400000 0
7.400000 0.400000 0
7.500000 0.400000 0
7.600000 0.400000 0
7.700000 0.400000 0
7.800000 0.400000 0
7.900000 0.400000 0
8.000000 0.400000 0
8.100000 0.400000 0
8.200000 0.400000 0
8.300000 0.400000 0
8.400000 0.400000 0
8.500000 0.400000 0
8.600000 0.400000 0
8.700000 0.400000 0
8.800000 0.400000 0
8.900000 0.400000 0
9.000000 0.400000 0
9.100000 0.400000 0
9.200000 0.400000 0
9.300000 0.400000 0
9.400000 0.400000 0
[...]
POINT_DATA 1881 

VECTORS velocity float
0.500000 0.000000 0
0.502176 0.000000 0
0.507052 0.000000 0
0.515047 0.000000 0
0.526579 0.000000 0
0.541966 0.000000 0
0.561209 0.000000 0
0.583682 0.000000 0
0.607900 0.000000 0
0.631421 0.000000 0
0.652119 0.000000 0
0.668829 0.000000 0
0.681103 0.000000 0
0.688903 0.000000 0
0.692356 0.000000 0
0.691747 0.000000 0
0.687497 0.000000 0
0.680185 0.000000 0
0.670555 0.000000 0
0.659492 0.000000 0
0.647966 0.000000 0
0.636967 0.000000 0
0.627431 0.000000 0
0.620177 0.000000 0
0.615876 0.000000 0
0.615009 0.000000 0
0.617697 0.000000 0
0.623417 0.000000 0
0.630949 0.000000 0
0.638534 0.000000 0
0.644338 0.000000 0
0.647005 0.000000 0
0.645903 0.000000 0
0.640930 0.000000 0
0.632395 0.000000 0
0.620859 0.000000 0
0.607004 0.000000 0
0.591557 0.000000 0
0.575251 0.000000 0
0.558810 0.000000 0
0.542956 0.000000 0
0.528415 0.000000 0
0.515940 0.000000 0
0.506336 0.000000 0
0.500491 0.000000 0
0.499264 0.000000 0
0.503100 0.000000 0
0.511959 0.000000 0
0.525392 0.000000 0
0.542504 0.000000 0
0.561959 0.000000 0
0.581979 0.000000 0
0.600432 0.000000 0
0.615086 0.000000 0
0.624137 0.000000 0
0.626791 0.000000 0
0.623246 0.000000 0
0.614107 0.000000 0
0.600280 0.000000 0
0.582897 0.000000 0
0.563226 0.000000 0
0.542572 0.000000 0
0.522217 0.000000 0
0.503374 0.000000 0
0.487160 0.000000 0
0.474565 0.000000 0
0.466363 0.000000 0
0.462976 0.000000 0
0.464211 0.000000 0
0.469292 0.000000 0
0.477446 0.000000 0
0.488050 0.000000 0
0.500634 0.000000 0
0.514816 0.000000 0
0.530177 0.000000 0
0.546117 0.000000 0
0.561725 0.000000 0
0.575750 0.000000 0
0.586726 0.000000 0
0.593309 0.000000 0
0.594715 0.000000 0
0.590820 0.000000 0
0.581815 0.000000 0
0.568209 0.000000 0
0.550888 0.000000 0
0.531137 0.000000 0
0.510617 0.000000 0
0.491236 0.000000 0
0.474875 0.000000 0
0.463020 0.000000 0
0.456450 0.000000 0
0.455061 0.000000 0
0.457821 0.000000 0
0.463474 0.000000 0
0.471075 0.000000 0
0.480033 0.000000 0
0.490058 0.000000 0
0.501095 0.000000 0
0.513328 0.000000 0
1.000000 -0.002197 0
1.004907 -0.007086 0
1.015286 -0.012894 0
1.031893 -0.019546 0
1.055652 -0.026930 0
1.087400 -0.034624 0
1.127425 -0.041696 0
1.174707 -0.046670 0
1.226360 -0.047725 0
1.276205 -0.044222 0
1.319463 -0.037409 0
1.353999 -0.028975 0
1.379330 -0.020070 0
1.395605 -0.011252 0
1.403130 -0.002848 0
1.402417 0.004852 0
1.394267 0.011552 0
1.379834 0.016929 0
1.360638 0.020677 0
1.338505 0.022570 0
1.315443 0.022505 0
1.293497 0.020515 0
1.274598 0.016770 0
1.260424 0.011539 0
1.252323 0.005154 0
1.251281 -0.001826 0
1.257649 -0.008402 0
1.270607 -0.013240 0
1.287759 -0.015096 0
1.305377 -0.013365 0
1.319388 -0.008451 0
1.326652 -0.001549 0
1.325727 0.006082 0
1.316576 0.013508 0
1.300014 0.020073 0
1.277314 0.025394 0
1.249947 0.029302 0
1.219420 0.031751 0
1.187217 0.032744 0
1.154790 0.032290 0
1.123574 0.030388 0
1.095000 0.027008 0
1.070499 0.022069 0
1.051472 0.015438 0
1.039224 0.007061 0
1.034861 -0.002620 0
1.039216 -0.012707 0
1.052642 -0.022303 0
1.074806 -0.030554 0
1.104563 -0.036573 0
1.139974 -0.039476 0
1.178291 -0.038470 0
1.215930 -0.033102 0
1.248657 -0.023698 0
1.272241 -0.011695 0
1.283535 0.000900 0
1.281655 0.012689 0
1.267818 0.022969 0
1.243973 0.031209 0
1.212504 0.037051 0
1.176031 0.040320 0
1.137216 0.041001 0
1.098633 0.039191 0
1.062656 0.035049 0
1.031347 0.028800 0
1.006313 0.020788 0
0.988530 0.011580 0
0.978242 0.002144 0
0.975084 -0.006325 0
0.978318 -0.013245 0
0.987060 -0.018766 0
1.000571 -0.023197 0
1.018322 -0.026775 0
1.039941 -0.029551 0
1.065014 -0.031307 0
1.092790 -0.031552 0
1.121905 -0.029636 0
1.150267 -0.025002 0
1.175174 -0.017560 0
1.193651 -0.007990 0
1.203047 0.002487 0
1.201941 0.012897 0
1.190624 0.022606 0
1.170212 0.030921 0
1.142518 0.037065 0
1.110004 0.040263 0
1.075631 0.039891 0
1.042562 0.035733 0
1.013702 0.028207 0
0.991176 0.018417 0
0.975967 0.007952 0
0.967943 -0.001378 0
0.966275 -0.008419 0
0.969748 -0.013259 0
0.977175 -0.016563 0
0.987717 -0.018986 0
1.000951 -0.021064 0
1.016813 -0.023271 0
1.035630 -0.024352 0
1.000000 -0.004941 0
1.005059 -0.015333 0
1.015428 -0.027009 0
1.031908 -0.040382 0
1.055759 -0.055508 0
1.088475 -0.071753 0
1.131341 -0.087280 0
1.184294 -0.098916 0
1.245486 -0.101497 0
1.302725 -0.093110 0
1.349594 -0.077786 0
1.385308 -0.059855 0
1.410946 -0.041602 0
1.427403 -0.023801 0
1.434988 -0.006818 0
1.434032 0.008851 0
1.425193 0.022569 0
1.409593 0.033611 0
1.388841 0.041308 0
1.364911 0.045172 0
1.339998 0.044984 0
1.316340 0.040821 0
1.296024 0.033052 0
1.280810 0.022256 0
1.272072 0.009135 0
1.270978 -0.005320 0
1.278454 -0.019311 0
1.294265 -0.030087 0
1.316079 -0.034743 0
1.339499 -0.031603 0
1.359165 -0.021255 0
1.370632 -0.006329 0
1.372102 0.010075 0
1.364130 0.025713 0
1.348076 0.039266 0
1.325632 0.050068 0
1.298493 0.057894 0
1.268241 0.062727 0
1.236334 0.064624 0
1.204145 0.063636 0
1.172995 0.059780 0
1.144165 0.053064 0
1.118860 0.043516 0
1.098123 0.031262 0
1.082714 0.016598 0
1.073119 -0.000006 0
1.069918 -0.017794 0
1.073772 -0.035602 0
1.085035 -0.051929 0
1.103669 -0.065171 0
1.129344 -0.073727 0
1.161196 -0.075950 0
1.197308 -0.070357 0
1.234355 -0.056300 0
1.267683 -0.034868 0
1.292008 -0.009407 0
1.303268 0.015721 0
1.301200 0.037682 0
1.287772 0.055309 0
1.265408 0.067935 0
1.236730 0.075280 0
1.204361 0.077388 0
1.170773 0.074550 0
1.138145 0.067276 0
1.108215 0.056333 0
1.082143 0.042806 0
1.060441 0.028060 0
1.043064 0.013436 0
1.029796 -0.000086 0
1.020555 -0.011987 0
1.015225 -0.022265 0
1.013911 -0.031274 0
1.017007 -0.039380 0
1.025113 -0.046700 0
1.038772 -0.052856 0
1.058014 -0.056895 0
1.082061 -0.057479 0
1.109299 -0.053270 0
1.137409 -0.043385 0
1.163496 -0.027875 0
1.184272 -0.008293 0
1.196762 0.012417 0
1.199823 0.031722 0
1.194198 0.048097 0
1.181330 0.060197 0
1.163121 0.066875 0
1.141663 0.067431 0
1.118940 0.061918 0
1.096580 0.051376 0
1.075726 0.037725 0
1.057059 0.023223 0
1.040977 0.009684 0
1.027949 -0.001812 0
1.018246 -0.010906 0
1.011836 -0.017973 0
1.008714 -0.023779 0
1.009054 -0.029098 0
1.013107 -0.034679 0
1.021112 -0.038029 0
1.000000 -0.007278 0
1.004077 -0.022537 0
1.012720 -0.039744 0
1.026973 -0.059867 0
1.048634 -0.083473 0
1.080321 -0.110187 0
1.125362 -0.137509 0
1.186170 -0.160825 0
1.266680 -0.166173 0
1.334161 -0.148323 0
1.381959 -0.119978 0
1.414882 -0.090327 0
1.437656 -0.062166 0
1.452446 -0.035300 0
1.458990 -0.009486 0
1.456617 0.014639 0
1.445480 0.035982 0
1.426624 0.053272 0
1.401826 0.065349 0
1.373333 0.071404 0
1.343667 0.071069 0
1.315424 0.064484 0
1.291003 0.052297 0
1.272279 0.035494 0
1.260429 0.015001 0
1.256348 -0.008190 0
1.261721 -0.031672 0
1.277568 -0.050847 0
1.302399 -0.060319 0
1.332030 -0.056450 0
1.360057 -0.039590 0
1.379408 -0.014501 0
1.385686 0.012577 0
1.379777 0.037536 0
1.364243 0.058570 0
1.341640 0.074975 0
1.314114 0.086690 0
1.283395 0.093907 0
1.250901 0.096835 0
1.217870 0.095624 0
1.185441 0.090362 0
1.154688 0.081137 0
1.126592 0.068107 0
1.101970 0.051580 0
1.081321 0.032060 0
1.064658 0.010171 0
1.051549 -0.013363 0
1.041962 -0.037420 0
1.037119 -0.060448 0
1.038851 -0.080877 0
1.049281 -0.096996 0
1.069744 -0.106426 0
1.099747 -0.106254 0
1.136785 -0.094069 0
1.176643 -0.069347 0
1.213808 -0.034688 0
1.242105 0.003491 0
1.257016 0.038456 0
1.259145 0.066994 0
1.250605 0.088088 0
1.233778 0.101362 0
1.211065 0.106954 0
1.184712 0.105403 0
1.156681 0.097604 0
1.128552 0.084799 0
1.101467 0.068559 0
1.076139 0.050655 0
1.052864 0.032784 0
1.031538 0.016179 0
1.011899 0.001322 0
0.994034 -0.012128 0
0.978834 -0.024982 0
0.968269 -0.037978 0
0.964509 -0.051317 0
0.968923 -0.064209 0
0.981581 -0.074840 0
1.001377 -0.080919 0
1.026466 -0.080350 0
1.054657 -0.071757 0
1.083635 -0.054856 0
1.110998 -0.030784 0
1.134030 -0.002659 0
1.149956 0.025164 0
1.158082 0.049408 0
1.158985 0.068136 0
1.153682 0.079924 0
1.143346 0.084068 0
1.129105 0.080812 0
1.111966 0.071417 0
1.092864 0.057934 0
1.072741 0.042697 0
1.052498 0.027730 0
1.032844 0.014310 0
1.014461 0.002853 0
0.998110 -0.007032 0
0.984665 -0.016205 0
0.975211 -0.025457 0
0.970730 -0.035328 0
0.971715 -0.041772 0
1.000000 -0.009036 0
1.002661 -0.028069 0
1.008506 -0.049900 0
1.018694 -0.076281 0
1.035443 -0.108837 0
1.062655 -0.148473 0
1.106816 -0.193135 0
1.175888 -0.240247 0
1.293588 -0.249483 0
1.365661 -0.208372 0
1.401330 -0.158505 0
1.421011 -0.115558 0
1.434791 -0.079171 0
1.446116 -0.045142 0
1.452879 -0.010999 0
1.450582 0.022353 0
1.438001 0.052554 0
1.416130 0.077258 0
1.387015 0.094590 0
1.353201 0.103324 0
1.317565 0.102889 0
1.283203 0.093483 0
1.253053 0.076198 0
1.229158 0.052844 0
1.211954 0.025082 0
1.200559 -0.006597 0
1.195335 -0.040514 0
1.200392 -0.070755 0
1.217632 -0.089202 0
1.246522 -0.089266 0
1.282758 -0.068646 0
1.317585 -0.031967 0
1.340194 0.009710 0
1.345444 0.047157 0
1.337406 0.077399 0
1.320031 0.100195 0
1.296253 0.116134 0
1.268146 0.125935 0
1.237255 0.130145 0
1.204827 0.129090 0
1.171963 0.122958 0
1.139657 0.111908 0
1.108769 0.096229 0
1.079862 0.076528 0
1.052850 0.053905 0
1.026640 0.029763 0
0.999561 0.004900 0
0.971228 -0.021169 0
0.944937 -0.048813 0
0.927536 -0.077327 0
0.924224 -0.104612 0
0.936220 -0.126408 0
0.961830 -0.137393 0
0.997929 -0.133195 0
1.040699 -0.111893 0
1.085762 -0.074874 0
1.127941 -0.027495 0
1.160860 0.020636 0
1.180754 0.061716 0
1.188708 0.093297 0
1.186523 0.114816 0
1.176180 0.126451 0
1.159624 0.128930 0
1.138616 0.123433 0
1.114632 0.111544 0
1.088752 0.095216 0
1.061555 0.076659 0
1.033128 0.058032 0
1.003425 0.040874 0
0.973011 0.025511 0
0.943740 0.010797 0
0.918584 -0.005510 0
0.900708 -0.025056 0
0.892553 -0.047354 0
0.894693 -0.069927 0
0.906016 -0.089347 0
0.924636 -0.102363 0
0.948533 -0.106550 0
0.975794 -0.100556 0
1.004665 -0.084221 0
1.033513 -0.058693 0
1.060655 -0.026546 0
1.083802 0.007664 0
1.100722 0.039062 0
1.111034 0.064592 0
1.114921 0.082511 0
1.112807 0.092003 0
1.105210 0.093294 0
1.092700 0.087613 0
1.075928 0.076946 0
1.055659 0.063586 0
1.032807 0.049579 0
1.008509 0.036223 0
0.984247 0.023827 0
0.961873 0.011823 0
0.943314 -0.000881 0
0.930157 -0.015163 0
0.923424 -0.031183 0
0.923695 -0.042059 0
1.000000 -0.009951 0
1.000723 -0.031053 0
1.002522 -0.055766 0
1.006265 -0.086786 0
1.013933 -0.127422 0
1.029878 -0.181559 0
1.063538 -0.250751 0
1.132379 -0.347597 0
1.306963 -0.355931 0
1.349671 -0.256060 0
1.341526 -0.175334 0
1.330095 -0.123792 0
1.324698 -0.087277 0
1.329106 -0.053396 0
1.340017 -0.013958 0
1.344153 0.029510 0
1.335667 0.070428 0
1.315808 0.104250 0
1.286849 0.128272 0
1.251160 0.140849 0
1.211467 0.141064 0
1.171201 0.128997 0
1.134078 0.106353 0
1.102256 0.076609 0
1.074336 0.043614 0
1.046853 0.008443 0
1.018565 -0.031494 0
0.996106 -0.073140 0
0.992565 -0.106452 0
1.013042 -0.121586 0
1.054511 -0.110664 0
1.108337 -0.071935 0
1.161410 -0.015280 0
1.198995 0.040322 0
1.216749 0.083981 0
1.220120 0.116124 0
1.212954 0.138571 0
1.197796 0.152900 0
1.176532 0.160149 0
1.150720 0.160911 0
1.121676 0.155528 0
1.090324 0.144326 0
1.056771 0.127897 0
1.019864 0.107495 0
0.977723 0.085278 0
0.930003 0.063458 0
0.880362 0.042051 0
0.835889 0.017208 0
0.803577 -0.016750 0
0.787899 -0.060156 0
0.789034 -0.105674 0
0.804330 -0.144028 0
0.830839 -0.167961 0
0.866109 -0.172938 0
0.907868 -0.157184 0
0.953586 -0.121937 0
1.000197 -0.071614 0
1.043534 -0.014361 0
1.077469 0.039142 0
1.099849 0.082315 0
1.111429 0.113886 0
1.113421 0.133850 0
1.107189 0.142962 0
1.094024 0.142591 0
1.074937 0.134660 0
1.050498 0.121632 0
1.020872 0.106274 0
0.986330 0.090909 0
0.948212 0.076292 0
0.909698 0.061003 0
0.875452 0.042297 0
0.849948 0.018049 0
0.835489 -0.011947 0
0.831937 -0.045302 0
0.837563 -0.077670 0
0.850240 -0.104783 0
0.868169 -0.123436 0
0.889984 -0.131508 0
0.914565 -0.127893 0
0.940865 -0.112580 0
0.967816 -0.086779 0
0.994305 -0.052955 0
1.019046 -0.014908 0
1.039831 0.022171 0
1.055153 0.053933 0
1.064499 0.078147 0
1.067676 0.093775 0
1.064671 0.100914 0
1.055606 0.100694 0
1.040779 0.094971 0
1.020785 0.085816 0
0.996707 0.074878 0
0.970291 0.062868 0
0.943934 0.049487 0
0.920349 0.033900 0
0.901947 0.015510 0
0.890146 -0.005567 0
0.885243 -0.028865 0
0.887219 -0.044501 0
1.000000 -0.009766 0
0.998407 -0.030593 0
0.995171 -0.055427 0
0.990276 -0.087676 0
0.984179 -0.132443 0
0.979018 -0.198082 0
0.982182 -0.295639 0
1.015738 -0.483664 0
1.208221 -0.466769 0
1.153572 -0.242936 0
1.060544 -0.138932 0
1.008710 -0.098735 0
0.976999 -0.078187 0
0.970930 -0.060468 0
0.991487 -0.026051 0
1.020733 0.026696 0
1.033782 0.080893 0
1.032974 0.126069 0
1.019292 0.159234 0
0.992706 0.178705 0
0.953220 0.182848 0
0.901314 0.170879 0
0.838630 0.145157 0
0.770066 0.112598 0
0.705089 0.080499 0
0.654895 0.049186 0
0.627137 0.010238 0
0.622843 -0.044756 0
0.640341 -0.106145 0
0.677754 -0.151223 0
0.732581 -0.163943 0
0.801318 -0.138862 0
0.878227 -0.080949 0
0.952186 -0.008186 0
1.008315 0.056270 0
1.043765 0.103985 0
1.063257 0.138454 0
1.069640 0.162353 0
1.064953 0.177215 0
1.050791 0.183942 0
1.028152 0.183349 0
0.997071 0.176808 0
0.956512 0.166685 0
0.905415 0.155572 0
0.845315 0.143764 0
0.782867 0.127125 0
0.728994 0.099018 0
0.693738 0.055620 0
0.680528 -0.000817 0
0.684475 -0.062777 0
0.698518 -0.121037 0
0.718551 -0.168209 0
0.743411 -0.199171 0
0.773373 -0.210228 0
0.808708 -0.199377 0
0.848786 -0.167209 0
0.891889 -0.117447 0
0.935438 -0.056640 0
0.975296 0.005396 0
1.006288 0.059333 0
1.027369 0.101241 0
1.038682 0.130688 0
1.040714 0.148323 0
1.033971 0.155681 0
1.018764 0.155065 0
0.995241 0.149276 0
0.963906 0.140823 0
0.926558 0.130687 0
0.886994 0.117502 0
0.850508 0.098270 0
0.822097 0.070546 0
0.804609 0.034452 0
0.798120 -0.007045 0
0.800360 -0.049428 0
0.808541 -0.088230 0
0.820691 -0.119953 0
0.835749 -0.142107 0
0.853251 -0.152949 0
0.872951 -0.151441 0
0.894509 -0.137477 0
0.917338 -0.112139 0
0.940615 -0.077781 0
0.963348 -0.037868 0
0.984162 0.002951 0
1.000980 0.039920 0
1.012714 0.069983 0
1.018674 0.091827 0
1.018422 0.105360 0
1.011763 0.111500 0
0.998857 0.111763 0
0.980429 0.107655 0
0.957964 0.100070 0
0.933709 0.088994 0
0.910337 0.073768 0
0.890361 0.053810 0
0.875569 0.029322 0
0.866781 0.001540 0
0.863831 -0.028255 0
0.866170 -0.047841 0
1.000000 -0.008360 0
0.996130 -0.026218 0
0.987800 -0.047620 0
0.973685 -0.075783 0
0.951482 -0.116161 0
0.917525 -0.179565 0
0.866229 -0.287471 0
0.793955 -0.573629 0
0.555192 -0.395585 0
0.493341 0.000000 0
0.420639 -0.020270 0
0.354066 -0.040254 0
0.350690 -0.049503 0
0.386793 -0.067889 0
0.437040 -0.063765 0
0.500976 -0.012790 0
0.557220 0.058181 0
0.591210 0.118736 0
0.604550 0.168538 0
0.594619 0.206921 0
0.559620 0.232461 0
0.501588 0.243599 0
0.427933 0.237613 0
0.352976 0.210162 0
0.295603 0.158798 0
0.271619 0.086403 0
0.285678 0.000559 0
0.325853 -0.086349 0
0.375288 -0.161373 0
0.427853 -0.213832 0
0.485068 -0.234224 0
0.550316 -0.217581 0
0.625053 -0.166151 0
0.706872 -0.089769 0
0.785228 -0.007603 0
0.846309 0.061178 0
0.888165 0.112692 0
0.913351 0.151199 0
0.923265 0.178993 0
0.918712 0.197707 0
0.899871 0.209243 0
0.866601 0.215963 0
0.819792 0.219550 0
0.763718 0.218689 0
0.707393 0.207827 0
0.662153 0.179783 0
0.636088 0.131184 0
0.630257 0.065679 0
0.639744 -0.007480 0
0.656318 -0.078140 0
0.673939 -0.139746 0
0.690618 -0.188919 0
0.707134 -0.222785 0
0.725761 -0.238241 0
0.748951 -0.232604 0
0.778026 -0.205123 0
0.812476 -0.158270 0
0.850228 -0.097772 0
0.888317 -0.031712 0
0.921889 0.030238 0
0.947457 0.081489 0
0.964015 0.120501 0
0.971136 0.147669 0
0.968597 0.164537 0
0.956343 0.173386 0
0.934869 0.176485 0
0.905943 0.174952 0
0.873158 0.167816 0
0.841527 0.152339 0
0.815910 0.125899 0
0.799234 0.088196 0
0.791822 0.042027 0
0.792096 -0.007698 0
0.797563 -0.055722 0
0.805877 -0.098002 0
0.815581 -0.131991 0
0.826126 -0.155997 0
0.837660 -0.168713 0
0.850671 -0.169156 0
0.865579 -0.156973 0
0.882400 -0.132890 0
0.900643 -0.098969 0
0.919427 -0.058460 0
0.937619 -0.015466 0
0.953446 0.025376 0
0.965326 0.060449 0
0.972237 0.088063 0
0.973502 0.107821 0
0.968823 0.120255 0
0.958440 0.126302 0
0.943315 0.126706 0
0.925178 0.121595 0
0.906288 0.110493 0
0.888928 0.092834 0
0.874868 0.068667 0
0.865055 0.039090 0
0.859649 0.006171 0
0.858233 -0.028253 0
0.860045 -0.050553 0
1.000000 -0.005892 0
0.994475 -0.018381 0
0.982412 -0.032968 0
0.961436 -0.051351 0
0.926896 -0.076283 0
0.869736 -0.112830 0
0.770512 -0.172065 0
0.586903 -0.270800 0
0.000000 -0.166153 0
0.000000 0.000000 0
0.000000 0.000000 0
-0.030815 -0.039334 0
-0.050883 -0.110918 0
-0.017763 -0.146823 0
0.001571 -0.140239 0
0.037989 -0.093488 0
0.102340 -0.009346 0
0.163513 0.078737 0
0.201788 0.155824 0
0.211928 0.223637 0
0.195456 0.275889 0
0.164675 0.302578 0
0.135826 0.293781 0
0.124211 0.244941 0
0.138496 0.161866 0
0.176994 0.059115 0
0.226229 -0.043998 0
0.272629 -0.134374 0
0.311951 -0.208153 0
0.345242 -0.261003 0
0.377835 -0.286405 0
0.416773 -0.278849 0
0.467266 -0.237508 0
0.530096 -0.168364 0
0.601283 -0.083172 0
0.669199 0.001043 0
0.721660 0.071407 0
0.756795 0.127248 0
0.774863 0.171850 0
0.775981 0.207332 0
0.760663 0.235457 0
0.731024 0.256884 0
0.692339 0.269565 0
0.653558 0.267970 0
0.624965 0.245331 0
0.613558 0.198433 0
0.619861 0.130919 0
0.638911 0.051971 0
0.663123 -0.026871 0
0.685262 -0.096967 0
0.702096 -0.155335 0
0.712850 -0.201404 0
0.718806 -0.234318 0
0.723067 -0.252052 0
0.729783 -0.251647 0
0.742626 -0.230738 0
0.763191 -0.189653 0
0.790443 -0.132486 0
0.821454 -0.066268 0
0.852281 0.000189 0
0.877953 0.059110 0
0.896121 0.107005 0
0.905615 0.143738 0
0.905857 0.170469 0
0.896971 0.188788 0
0.880252 0.199672 0
0.858581 0.202530 0
0.836186 0.195099 0
0.817464 0.174748 0
0.805414 0.140563 0
0.800786 0.094633 0
0.802456 0.041590 0
0.808428 -0.012785 0
0.816406 -0.063208 0
0.824547 -0.106247 0
0.831722 -0.140203 0
0.837587 -0.164189 0
0.842592 -0.177497 0
0.847794 -0.179366 0
0.854425 -0.169212 0
0.863348 -0.147207 0
0.874696 -0.114813 0
0.887854 -0.074848 0
0.901717 -0.031073 0
0.914825 0.012208 0
0.925392 0.051187 0
0.932207 0.083645 0
0.934507 0.108769 0
0.932028 0.126559 0
0.925137 0.137267 0
0.914895 0.140913 0
0.902933 0.137095 0
0.891080 0.125242 0
0.880896 0.105186 0
0.873332 0.077682 0
0.868668 0.044541 0
0.866671 0.008363 0
0.866788 -0.028651 0
0.868140 -0.052388 0
1.000000 -0.002826 0
0.993897 -0.008613 0
0.980599 -0.014570 0
0.957637 -0.020263 0
0.920307 -0.024460 0
0.859779 -0.023179 0
0.759376 -0.004633 0
0.585541 0.093676 0
0.271431 0.088109 0
0.000000 0.000000 0
0.000000 0.000000 0
0.000000 0.000000 0
-0.039418 -0.062643 0
-0.113973 -0.120348 0
-0.171884 -0.119521 0
-0.189382 -0.113562 0
-0.158490 -0.067345 0
-0.097161 0.019287 0
-0.040140 0.120124 0
-0.002740 0.213259 0
0.020243 0.279724 0
0.042355 0.303240 0
0.076264 0.278089 0
0.129127 0.207505 0
0.199226 0.106024 0
0.271765 -0.001328 0
0.329158 -0.095080 0
0.368691 -0.172078 0
0.391048 -0.233990 0
0.398782 -0.279715 0
0.398008 -0.305757 0
0.398156 -0.307015 0
0.409050 -0.279478 0
0.436636 -0.223791 0
0.480386 -0.146710 0
0.533856 -0.059203 0
0.584343 0.025091 0
0.622066 0.097991 0
0.644829 0.159803 0
0.652435 0.211903 0
0.646635 0.254196 0
0.631954 0.284284 0
0.615815 0.297015 0
0.606820 0.286064 0
0.611302 0.247828 0
0.630515 0.184891 0
0.660846 0.105838 0
0.696241 0.022423 0
0.728654 -0.053825 0
0.753548 -0.117109 0
0.769221 -0.167332 0
0.775145 -0.205631 0
0.772129 -0.233007 0
0.762823 -0.249224 0
0.751841 -0.252167 0
0.744762 -0.238535 0
0.746060 -0.206091 0
0.757177 -0.156038 0
0.776241 -0.093554 0
0.799390 -0.026265 0
0.821558 0.037645 0
0.838867 0.092835 0
0.849463 0.137929 0
0.852651 0.173177 0
0.848914 0.198986 0
0.840114 0.214871 0
0.829361 0.219015 0
0.820229 0.208931 0
0.815505 0.183110 0
0.816279 0.142576 0
0.821976 0.091154 0
0.831082 0.034385 0
0.841773 -0.021647 0
0.852007 -0.071841 0
0.860301 -0.113318 0
0.865636 -0.145032 0
0.867596 -0.166870 0
0.866578 -0.178925 0
0.863857 -0.180994 0
0.861302 -0.172532 0
0.860748 -0.153166 0
0.863320 -0.123479 0
0.869087 -0.085485 0
0.877209 -0.042442 0