# vtk DataFile Version 2.0
generated by CFD-lab course output (written by Tobias Neckel) 
ASCII

DATASET STRUCTURED_GRID
DIMENSIONS  99 19 1 
POINTS 1881 float

0.000000 0.000000 0
0.100000 0.000000 0
0.200000 0.000000 0
0.300000 0.000000 0
0.400000 0.000000 0
0.500000 0.000000 0
0.600000 0.000000 0
0.700000 0.000000 0
0.800000 0.000000 0
0.900000 0.000000 0
1.000000 0.000000 0
1.100000 0.000000 0
1.200000 0.000000 0
1.300000 0.000000 0
1.400000 0.000000 0
1.500000 0.000000 0
1.600000 0.000000 0
1.700000 0.000000 0
1.800000 0.000000 0
1.900000 0.000000 0
2.000000 0.000000 0
2.100000 0.000000 0
2.200000 0.000000 0
2.300000 0.000000 0
2.400000 0.000000 0
2.500000 0.000000 0
2.600000 0.000000 0
2.700000 0.000000 0
2.800000 0.000000 0
2.900000 0.000000 0
3.000000 0.000000 0
3.100000 0.000000 0
3.200000 0.000000 0
3.300000 0.000000 0
3.400000 0.000000 0
3.500000 0.000000 0
3.600000 0.000000 0
3.700000 0.000000 0
3.800000 0.000000 0
3.900000 0.000000 0
4.000000 0.000000 0
4.100000 0.000000 0
4.200000 0.000000 0
4.300000 0.000000 0
4.400000 0.000000 0
4.500000 0.000000 0
4.600000 0.000000 0
4.700000 0.000000 0
4.800000 0.000000 0
4.900000 0.000000 0
5.000000 0.000000 0
5.100000 0.000000 0
5.200000 0.000000 0
5.300000 0.000000 0
5.400000 0.000000 0
5.500000 0.000000 0
5.600000 0.000000 0
5.700000 0.000000 0
5.800000 0.000000 0
5.900000 0.000000 0
6.000000 0.000000 0
6.100000 0.000000 0
6.200000 0.000000 0
6.300000 0.000000 0
6.400000 0.000000 0
6.500000 0.000000 0
6.600000 0.000000 0
6.700000 0.000000 0
6.800000 0.000000 0
6.900000 0.000000 0
7.000000 0.000000 0
7.100000 0.000000 0
7.200000 0.000000 0
7.300000 0.000000 0
7.400000 0.000000 0
7.500000 0.000000 0
7.600000 0.000000 0
7.700000 0.000000 0
7.800000 0.000000 0
7.900000 0.000000 0
8.000000 0.000000 0
8.100000 0.000000 0
8.200000 0.000000 0
8.300000 0.000000 0
8.400000 0.000000 0
8.500000 0.000000 0
8.600000 0.000000 0
8.700000 0.000000 0
8.800000 0.000000 0
8.900000 0.000000 0
9.000000 0.000000 0
9.100000 0.000000 0
9.200000 0.000000 0
9.300000 0.000000 0
9.400000 0.000000 0
9.500000 0.000000 0
9.600000 0.000000 0
9.700000 0.000000 0
9.800000 0.000000 0
0.000000 0.100000 0
0.100000 0.100000 0
0.200000 0.100000 0
0.300000 0.100000 0
0.400000 0.100000 0
0.500000 0.100000 0
0.600000 0.100000 0
0.700000 0.100000 0
0.800000 0.100000 0
0.900000 0.100000 0
1.000000 0.100000 0
1.100000 0.100000 0
1.200000 0.100000 0
1.300000 0.100000 0
1.400000 0.100000 0
1.500000 0.100000 0
1.600000 0.100000 0
1.700000 0.100000 0
1.800000 0.100000 0
1.900000 0.100000 0
2.000000 0.100000 0
2.100000 0.100000 0
2.200000 0.100000 0
2.300000 0.100000 0
2.400000 0.100000 0
2.500000 0.100000 0
2.600000 0.100000 0
2.700000 0.100000 0
2.800000 0.100000 0
2.900000 0.100000 0
3.000000 0.100000 0
3.100000 0.100000 0
3.200000 0.100000 0
3.300000 0.100000 0
3.400000 0.100000 0
3.500000 0.100000 0
3.600000 0.100000 0
3.700000 0.100000 0
3.800000 0.100000 0
3.900000 0.100000 0
4.000000 0.100000 0
4.100000 0.100000 0
4.200000 0.100000 0
4.300000 0.100000 0
4.400000 0.100000 0
4.500000 0.100000 0
4.600000 0.100000 0
4.700000 0.100000 0
4.800000 0.100000 0
4.900000 0.100000 0
5.000000 0.100000 0
5.100000 0.100000 0
5.200000 0.100000 0
5.300000 0.100000 0
5.400000 0.100000 0
5.500000 0.100000 0
5.600000 0.100000 0
5.700000 0.100000 0
5.800000 0.100000 0
5.900000 0.100000 0
6.000000 0.100000 0
6.100000 0.100000 0
6.200000 0.100000 0
6.300000 0.100000 0
6.400000 0.100000 0
6.500000 0.100000 0
6.600000 0.100000 0
6.700000 0.100000 0
6.800000 0.100000 0
6.900000 0.100000 0
7.000000 0.100000 0
7.100000 0.100000 0
7.200000 0.100000 0
7.300000 0.100000 0
7.400000 0.100000 0
7.500000 0.100000 0
7.600000 0.100000 0
7.700000 0.100000 0
7.800000 0.100000 0
7.900000 0.100000 0
8.000000 0.100000 0
8.100000 0.100000 0
8.200000 0.100000 0
8.300000 0.100000 0
8.400000 0.100000 0
8.500000 0.100000 0
8.600000 0.100000 0
8.700000 0.100000 0
8.800000 0.100000 0
8.900000 0.100000 0
9.000000 0.100000 0
9.100000 0.100000 0
9.200000 0.100000 0
9.300000 0.100000 0
9.400000 0.100000 0
9.500000 0.100000 0
9.600000 0.100000 0
9.700000 0.100000 0
9.800000 0.100000 0
0.000000 0.200000 0
0.100000 0.200000 0
0.200000 0.200000 0
0.300000 0.200000 0
0.400000 0.200000 0
0.500000 0.200000 0
0.600000 0.200000 0
0.700000 0.200000 0
0.800000 0.200000 0
0.900000 0.200000 0
1.000000 0.200000 0
1.100000 0.200000 0
1.200000 0.200000 0
1.300000 0.200000 0
1.400000 0.200000 0
1.500000 0.200000 0
1.600000 0.200000 0
1.700000 0.200000 0
1.800000 0.200000 0
1.900000 0.200000 0
2.000000 0.200000 0
2.100000 0.200000 0
2.200000 0.200000 0
2.300000 0.200000 0
2.400000 0.200000 0
2.500000 0.200000 0
2.600000 0.200000 0
2.700000 0.200000 0
2.800000 0.200000 0
2.900000 0.200000 0
3.000000 0.200000 0
3.100000 0.200000 0
3.200000 0.200000 0
3.300000 0.200000 0
3.400000 0.200000 0
3.500000 0.200000 0
3.600000 0.200000 0
3.700000 0.200000 0
3.800000 0.200000 0
3.900000 0.200000 0
4.000000 0.200000 0
4.100000 0.200000 0
4.200000 0.200000 0
4.300000 0.200000 0
4.400000 0.200000 0
4.500000 0.200000 0
4.600000 0.200000 0
4.700000 0.200000 0
4.800000 0.200000 0
4.900000 0.200000 0
5.000000 0.200000 0
5.100000 0.200000 0
5.200000 0.200000 0
5.300000 0.200000 0
5.400000 0.200000 0
5.500000 0.200000 0
5.600000 0.200000 0
5.700000 0.200000 0
5.800000 0.200000 0
5.900000 0.200000 0
6.000000 0.200000 0
6.100000 0.200000 0
6.200000 0.200000 0
6.300000 0.200000 0
6.400000 0.200000 0
6.500000 0.200000 0
6.600000 0.200000 0
6.700000 0.200000 0
6.800000 0.200000 0
6.900000 0.200000 0
7.000000 0.200000 0
7.100000 0.200000 0
7.200000 0.200000 0
7.300000 0.200000 0
7.400000 0.200000 0
7.500000 0.200000 0
7.600000 0.200000 0
7.700000 0.200000 0
7.800000 0.200000 0
7.900000 0.200000 0
8.000000 0.200000 0
8.100000 0.200000 0
8.200000 0.200000 0
8.300000 0.200000 0
8.400000 0.200000 0
8.500000 0.200000 0
8.600000 0.200000 0
8.700000 0.200000 0
8.800000 0.200000 0
8.900000 0.200000 0
9.000000 0.200000 0
9.100000 0.200000 0
9.200000 0.200000 0
9.300000 0.200000 0
9.400000 0.200000 0
9.500000 0.200000 0
9.600000 0.200000 0
9.700000 0.200000 0
9.800000 0.200000 0
0.000000 0.300000 0
0.100000 0.300000 0
0.200000 0.300000 0
0.300000 0.300000 0
0.400000 0.300000 0
0.500000 0.300000 0
0.600000 0.300000 0
0.700000 0.300000 0
0.800000 0.300000 0
0.900000 0.300000 0
1.000000 0.300000 0
1.100000 0.300000 0
1.200000 0.300000 0
1.300000 0.300000 0
1.400000 0.300000 0
1.500000 0.300000 0
1.600000 0.300000 0
1.700000 0.300000 0
1.800000 0.300000 0
1.900000 0.300000 0
2.000000 0.300000 0
2.100000 0.300000 0
2.200000 0.300000 0
2.300000 0.300000 0
2.400000 0.300000 0
2.500000 0.300000 0
2.600000 0.300000 0
2.700000 0.300000 0
2.800000 0.300000 0
2.900000 0.300000 0
3.000000 0.300000 0
3.100000 0.300000 0
3.200000 0.300000 0
3.300000 0.300000 0
3.400000 0.300000 0
3.500000 0.300000 0
3.600000 0.300000 0
3.700000 0.300000 0
3.800000 0.300000 0
3.900000 0.300000 0
4.000000 0.300000 0
4.100000 0.300000 0
4.200000 0.300000 0
4.300000 0.300000 0
4.400000 0.300000 0
4.500000 0.300000 0
4.600000 0.300000 0
4.700000 0.300000 0
4.800000 0.300000 0
4.900000 0.300000 0
5.000000 0.300000 0
5.100000 0.300000 0
5.200000 0.300000 0
5.300000 0.300000 0
5.400000 0.300000 0
5.500000 0.300000 0
5.600000 0.300000 0
5.700000 0.300000 0
5.800000 0.300000 0
5.900000 0.300000 0
6.000000 0.300000 0
6.100000 0.300000 0
6.200000 0.300000 0
6.300000 0.300000 0
6.400000 0.300000 0
6.500000 0.300000 0
6.600000 0.300000 0
6.700000 0.300000 0
6.800000 0.300000 0
6.900000 0.300000 0
7.000000 0.300000 0
7.100000 0.300000 0
7.200000 0.300000 0
7.300000 0.300000 0
7.400000 0.300000 0
7.500000 0.300000 0
7.600000 0.300000 0
7.700000 0.300000 0
7.800000 0.300000 0
7.900000 0.300000 0
8.000000 0.300000 0
8.100000 0.300000 0
8.200000 0.300000 0
8.300000 0.300000 0
8.400000 0.300000 0
8.500000 0.300000 0
8.600000 0.300000 0
8.700000 0.300000 0
8.800000 0.300000 0
8.900000 0.300000 0
9.000000 0.300000 0
9.100000 0.300000 0
9.200000 0.300000 0
9.300000 0.300000 0
9.400000 0.300000 0
9.500000 0.300000 0
9.600000 0.300000 0
9.700000 0.300000 0
9.800000 0.300000 0
0.000000 0.400000 0
0.100000 0.400000 0
0.200000 0.400000 0
0.300000 0.400000 0
0.400000 0.400000 0
0.500000 0.400000 0
0.600000 0.400000 0
0.700000 0.400000 0
0.800000 0.400000 0
0.900000 0.400000 0
1.000000 0.400000 0
1.100000 0.400000 0
1.200000 0.400000 0
1.300000 0.400000 0
1.400000 0.400000 0
1.500000 0.400000 0
1.600000 0.400000 0
1.700000 0.400000 0
1.800000 0.400000 0
1.900000 0.400000 0
2.000000 0.400000 0
2.100000 0.400000 0
2.200000 0.400000 0
2.300000 0.400000 0
2.400000 0.400000 0
2.500000 0.400000 0
2.600000 0.400000 0
2.700000 0.400000 0
2.800000 0.400000 0
2.900000 0.400000 0
3.000000 0.400000 0
3.100000 0.400000 0
3.200000 0.400000 0
3.300000 0.400000 0
3.400000 0.400000 0
3.500000 0.400000 0
3.600000 0.400000 0
3.700000 0.400000 0
3.800000 0.400000 0
3.900000 0.400000 0
4.000000 0.400000 0
4.100000 0.400000 0
4.200000 0.400000 0
4.300000 0.400000 0
4.400000 0.400000 0
4.500000 0.400000 0
4.600000 0.400000 0
4.700000 0.400000 0
4.800000 0.400000 0
4.900000 0.400000 0
5.000000 0.400000 0
5.100000 0.400000 0
5.200000 0.400000 0
5.300000 0.400000 0
5.400000 0.400000 0
5.500000 0.400000 0
5.600000 0.400000 0
5.700000 0.400000 0
5.800000 0.400000 0
5.900000 0.400000 0
6.000000 0.400000 0
6.100000 0.400000 0
6.200000 0.400000 0
6.300000 0.400000 0
6.400000 0.400000 0
6.500000 0.400000 0
6.600000 0.400000 0
6.700000 0.400000 0
6.800000 0.400000 0
6.900000 0.400000 0
7.000000 0.400000 0
7.100000 0.400000 0
7.200000 0.400000 0
7.300000 0.400000 0
7.400000 0.400000 0
7.500000 0.400000 0
7.600000 0.400000 0
7.700000 0.400000 0
7.800000 0.400000 0
7.900000 0.400000 0
8.000000 0.400000 0
8.100000 0.400000 0
8.200000 0.400000 0
8.300000 0.400000 0
8.400000 0.400000 0
8.500000 0.400000 0
8.600000 0.400000 0
8.700000 0.400000 0
8.800000 0.400000 0
8.900000 0.400000 0
9.000000 0.400000 0
9.100000 0.400000 0
9.200000 0.400000 0
9.300000 0.400000 0
9.400000 0.400000 0
[...]
POINT_DATA 1881 

VECTORS velocity float
0.500000 0.000000 0
0.502192 0.000000 0
0.506991 0.000000 0
0.514788 0.000000 0
0.525961 0.000000 0
0.540773 0.000000 0
0.559178 0.000000 0
0.580515 0.000000 0
0.603285 0.000000 0
0.625098 0.000000 0
0.643956 0.000000 0
0.658872 0.000000 0
0.669741 0.000000 0
0.677011 0.000000 0
0.681438 0.000000 0
0.683891 0.000000 0
0.685224 0.000000 0
0.686109 0.000000 0
0.686897 0.000000 0
0.687493 0.000000 0
0.687379 0.000000 0
0.685809 0.000000 0
0.682104 0.000000 0
0.675863 0.000000 0
0.666972 0.000000 0
0.655627 0.000000 0
0.642235 0.000000 0
0.627355 0.000000 0
0.611637 0.000000 0
0.595790 0.000000 0
0.580541 0.000000 0
0.566620 0.000000 0
0.554741 0.000000 0
0.545628 0.000000 0
0.540066 0.000000 0
0.538909 0.000000 0
0.542752 0.000000 0
0.551670 0.000000 0
0.565046 0.000000 0
0.581461 0.000000 0
0.598787 0.000000 0
0.614521 0.000000 0
0.626331 0.000000 0
0.632696 0.000000 0
0.633253 0.000000 0
0.628360 0.000000 0
0.618724 0.000000 0
0.605292 0.000000 0
0.589118 0.000000 0
0.571256 0.000000 0
0.552701 0.000000 0
0.534373 0.000000 0
0.517121 0.000000 0
0.501767 0.000000 0
0.489125 0.000000 0
0.480010 0.000000 0
0.475164 0.000000 0
0.475020 0.000000 0
0.479389 0.000000 0
0.487796 0.000000 0
0.499682 0.000000 0
0.514447 0.000000 0
0.531413 0.000000 0
0.549735 0.000000 0
0.568273 0.000000 0
0.585518 0.000000 0
0.599683 0.000000 0
0.609057 0.000000 0
0.612563 0.000000 0
0.610043 0.000000 0
0.601822 0.000000 0
0.588533 0.000000 0
0.571143 0.000000 0
0.550919 0.000000 0
0.529374 0.000000 0
0.508182 0.000000 0
0.489041 0.000000 0
0.473477 0.000000 0
0.462619 0.000000 0
0.456997 0.000000 0
0.456391 0.000000 0
0.459772 0.000000 0
0.466020 0.000000 0
0.474296 0.000000 0
0.484055 0.000000 0
0.494973 0.000000 0
0.506834 0.000000 0
0.519402 0.000000 0
0.532286 0.000000 0
0.544840 0.000000 0
0.556141 0.000000 0
0.565071 0.000000 0
0.570553 0.000000 0
0.571860 0.000000 0
0.568721 0.000000 0
0.561110 0.000000 0
0.549238 0.000000 0
0.533579 0.000000 0
0.514824 0.000000 0
1.000000 -0.002160 0
1.004951 -0.006940 0
1.015192 -0.012564 0
1.031423 -0.018944 0
1.054477 -0.025965 0
1.085081 -0.033206 0
1.123432 -0.039737 0
1.168443 -0.044106 0
1.217155 -0.044585 0
1.263513 -0.040675 0
1.302935 -0.033779 0
1.333610 -0.025789 0
1.355671 -0.018144 0
1.370288 -0.011700 0
1.379138 -0.006878 0
1.384103 -0.003770 0
1.386997 -0.002187 0
1.389319 -0.001638 0
1.391898 -0.001347 0
1.394532 -0.000448 0
1.395959 0.001709 0
1.394411 0.005284 0
1.388364 0.009959 0
1.376921 0.015151 0
1.359910 0.020248 0
1.337788 0.024749 0
1.311442 0.028281 0
1.282044 0.030603 0
1.250939 0.031567 0
1.219571 0.031095 0
1.189420 0.029167 0
1.161950 0.025795 0
1.138576 0.020985 0
1.120667 0.014667 0
1.109584 0.006712 0
1.106689 -0.002693 0
1.113183 -0.012768 0
1.129610 -0.022296 0
1.155234 -0.029786 0
1.187729 -0.033732 0
1.223287 -0.033045 0
1.257092 -0.027525 0
1.284177 -0.018154 0
1.300655 -0.006900 0
1.304842 0.004355 0
1.297337 0.014543 0
1.279767 0.023076 0
1.254218 0.029612 0
1.222940 0.034040 0
1.188143 0.036419 0
1.151885 0.036885 0
1.116042 0.035581 0
1.082325 0.032606 0
1.052305 0.027996 0
1.027399 0.021756 0
1.008778 0.013960 0
0.997230 0.004988 0
0.993091 -0.004228 0
0.996328 -0.012778 0
1.006591 -0.020295 0
1.023355 -0.026654 0
1.045963 -0.031733 0
1.073628 -0.035287 0
1.105291 -0.036856 0
1.139341 -0.035777 0
1.173376 -0.031402 0
1.204220 -0.023530 0
1.228268 -0.012870 0
1.242203 -0.000975 0
1.244066 0.010751 0
1.234118 0.021517 0
1.213704 0.030684 0
1.184818 0.037616 0
1.149988 0.041769 0
1.112115 0.042735 0
1.074284 0.040331 0
1.039473 0.034703 0
1.010189 0.026419 0
0.988090 0.016478 0
0.973761 0.006227 0
0.966806 -0.002775 0
0.966272 -0.009629 0
0.970907 -0.014525 0
0.979598 -0.018036 0
0.991591 -0.020677 0
1.006487 -0.022779 0
1.024105 -0.024430 0
1.044247 -0.025452 0
1.066425 -0.025438 0
1.089657 -0.023855 0
1.112386 -0.020231 0
1.132563 -0.014412 0
1.147867 -0.006788 0
1.156103 0.001832 0
1.155836 0.010749 0
1.146923 0.019484 0
1.129946 0.027531 0
1.106070 0.034414 0
1.076909 0.037769 0
1.000000 -0.004901 0
1.005109 -0.015122 0
1.015359 -0.026439 0
1.031496 -0.039259 0
1.054667 -0.053641 0
1.086272 -0.068949 0
1.127507 -0.083359 0
1.178224 -0.093722 0
1.236353 -0.095073 0
1.289924 -0.085784 0
1.332610 -0.070102 0
1.363729 -0.052742 0
1.384725 -0.036682 0
1.397577 -0.023466 0
1.404438 -0.013797 0
1.407533 -0.007823 0
1.409036 -0.005173 0
1.410927 -0.004855 0
1.414537 -0.005173 0
1.419757 -0.004031 0
1.424637 0.000135 0
1.426386 0.007605 0
1.422871 0.017511 0
1.413032 0.028474 0
1.396861 0.039148 0
1.375038 0.048480 0
1.348653 0.055752 0
1.319004 0.060507 0
1.287513 0.062473 0
1.255668 0.061516 0
1.224966 0.057616 0
1.196845 0.050838 0
1.172615 0.041276 0
1.153438 0.028983 0
1.140355 0.013970 0
1.134421 -0.003606 0
1.136967 -0.022924 0
1.149057 -0.042047 0
1.170651 -0.058108 0
1.200425 -0.068035 0
1.235881 -0.069340 0
1.273242 -0.060863 0
1.307458 -0.043536 0
1.332937 -0.020641 0
1.345354 0.003335 0
1.344089 0.025085 0
1.331241 0.043125 0
1.309336 0.056832 0
1.280959 0.066079 0
1.248529 0.071058 0
1.214207 0.072103 0
1.179872 0.069561 0
1.147138 0.063737 0
1.117346 0.054925 0
1.091511 0.043526 0
1.070239 0.030167 0
1.053670 0.015684 0
1.041675 0.000899 0
1.034316 -0.013503 0
1.031767 -0.027030 0
1.034322 -0.039374 0
1.042366 -0.050272 0
1.056399 -0.059325 0
1.076757 -0.065706 0
1.103091 -0.068076 0
1.134008 -0.064868 0
1.167015 -0.054879 0
1.198646 -0.037970 0
1.224725 -0.015787 0
1.241190 0.008093 0
1.246019 0.030368 0
1.240067 0.049303 0
1.225050 0.063716 0
1.203160 0.072702 0
1.176830 0.075701 0
1.148493 0.072640 0
1.120326 0.064093 0
1.094022 0.051380 0
1.070654 0.036426 0
1.050695 0.021284 0
1.034256 0.007489 0
1.021483 -0.004102 0
1.012316 -0.013327 0
1.006581 -0.020684 0
1.004336 -0.026890 0
1.005923 -0.032515 0
1.011830 -0.037760 0
1.022420 -0.042320 0
1.037610 -0.045411 0
1.056700 -0.045961 0
1.078404 -0.042905 0
1.100953 -0.035480 0
1.122187 -0.023540 0
1.139656 -0.007969 0
1.151034 0.009180 0
1.155119 0.025890 0
1.152237 0.040853 0
1.143441 0.053037 0
1.130276 0.059022 0
1.000000 -0.007236 0
1.004120 -0.022266 0
1.012656 -0.038949 0
1.026595 -0.058253 0
1.047627 -0.080747 0
1.078294 -0.106052 0
1.121833 -0.131690 0
1.180567 -0.152953 0
1.257906 -0.156288 0
1.321818 -0.136933 0
1.365452 -0.107584 0
1.393060 -0.077904 0
1.409007 -0.051989 0
1.416305 -0.031396 0
1.417516 -0.016801 0
1.415145 -0.008336 0
1.411745 -0.005560 0
1.410060 -0.007125 0
1.412686 -0.010174 0
1.420341 -0.010560 0
1.430133 -0.004933 0
1.436770 0.007060 0
1.436451 0.023323 0
1.428057 0.041162 0
1.411993 0.058246 0
1.389438 0.072957 0
1.361811 0.084314 0
1.330576 0.091740 0
1.297229 0.094899 0
1.263303 0.093638 0
1.230326 0.087987 0
1.199717 0.078144 0
1.172657 0.064390 0
1.150014 0.046926 0
1.132414 0.025726 0
1.120386 0.000698 0
1.114600 -0.027394 0
1.116338 -0.055968 0
1.126388 -0.081141 0
1.145235 -0.098945 0
1.173047 -0.105845 0
1.208578 -0.099090 0
1.248134 -0.077842 0
1.285466 -0.044794 0
1.313035 -0.006801 0
1.325284 0.028649 0
1.323114 0.057827 0
1.309606 0.079895 0
1.287770 0.094848 0
1.260313 0.103171 0
1.229566 0.105542 0
1.197468 0.102649 0
1.165588 0.095132 0
1.135147 0.083622 0
1.107022 0.068861 0
1.081721 0.051800 0
1.059343 0.033551 0
1.039568 0.015126 0
1.021825 -0.002871 0
1.005896 -0.020302 0
0.992760 -0.037251 0
0.984751 -0.053806 0
0.984388 -0.069673 0
0.993369 -0.083542 0
1.011801 -0.093020 0
1.038272 -0.095319 0
1.070339 -0.088162 0
1.104959 -0.070576 0
1.138692 -0.043518 0
1.167650 -0.010544 0
1.187730 0.022637 0
1.197462 0.051648 0
1.197741 0.074521 0
1.190037 0.089987 0
1.176080 0.097400 0
1.157607 0.096834 0
1.136183 0.089174 0
1.113128 0.076092 0
1.089527 0.059805 0
1.066261 0.042626 0
1.043949 0.026438 0
1.022894 0.012310 0
1.003443 0.000377 0
0.986196 -0.010056 0
0.972218 -0.020019 0
0.963055 -0.030272 0
0.960115 -0.040927 0
0.964047 -0.051232 0
0.974557 -0.059718 0
0.990593 -0.064649 0
1.010659 -0.064484 0
1.033090 -0.058195 0
1.056206 -0.045491 0
1.078351 -0.027014 0
1.097701 -0.004713 0
1.112233 0.018280 0
1.121144 0.039209 0
1.124811 0.056375 0
1.124076 0.065351 0
1.000000 -0.008996 0
1.002702 -0.027753 0
1.008465 -0.048912 0
1.018385 -0.074231 0
1.034601 -0.105344 0
1.060955 -0.143156 0
1.103869 -0.185631 0
1.171253 -0.229796 0
1.286090 -0.236326 0
1.356017 -0.193331 0
1.389130 -0.141344 0
1.404261 -0.096294 0
1.409440 -0.059915 0
1.407274 -0.031946 0
1.399731 -0.012608 0
1.388410 -0.002032 0
1.376283 -0.000073 0
1.366776 -0.005794 0
1.363875 -0.015463 0
1.371690 -0.021489 0
1.387944 -0.016287 0
1.404049 0.001302 0
1.410744 0.026227 0
1.406427 0.052933 0
1.392576 0.077768 0
1.371262 0.098661 0
1.344244 0.114612 0
1.313019 0.125086 0
1.279033 0.129743 0
1.243819 0.128417 0
1.208982 0.121200 0
1.176011 0.108504 0
1.145955 0.090978 0
1.119159 0.069225 0
1.095342 0.043598 0
1.073755 0.014216 0
1.053183 -0.018864 0
1.033763 -0.053823 0
1.020110 -0.086990 0
1.017722 -0.114679 0
1.030515 -0.132671 0
1.058906 -0.135942 0
1.099896 -0.120422 0
1.147713 -0.085546 0
1.194241 -0.036489 0
1.229928 0.015005 0
1.248729 0.058805 0
1.252902 0.092177 0
1.245588 0.115372 0
1.229650 0.129261 0
1.207575 0.134949 0
1.181479 0.133540 0
1.153113 0.126056 0
1.123866 0.113490 0
1.094720 0.096952 0
1.066079 0.077846 0
1.037572 0.057836 0
1.008255 0.038417 0
0.977578 0.020169 0
0.946732 0.002036 0
0.919054 -0.018225 0
0.899184 -0.041895 0
0.891072 -0.067936 0
0.895649 -0.093112 0
0.911499 -0.112971 0
0.936231 -0.123400 0
0.967261 -0.121562 0
1.002059 -0.106321 0
1.038141 -0.078479 0
1.072888 -0.040947 0
1.103010 0.000553 0
1.124821 0.039290 0
1.137646 0.071140 0
1.142075 0.094362 0
1.139086 0.108131 0
1.129792 0.112536 0
1.115277 0.108572 0
1.096527 0.098036 0
1.074395 0.083293 0
1.049589 0.066862 0
1.022775 0.050856 0
0.994849 0.036403 0
0.967304 0.023370 0
0.942307 0.010541 0
0.922243 -0.003749 0
0.909061 -0.020412 0
0.903895 -0.038751 0
0.906682 -0.056762 0
0.916398 -0.071956 0
0.931576 -0.082062 0
0.950680 -0.085402 0
0.972268 -0.081028 0
0.995048 -0.068801 0
1.017869 -0.049463 0
1.039634 -0.024702 0
1.058954 0.002447 0
1.074200 0.028275 0
1.084947 0.050106 0
1.091235 0.062239 0
1.000000 -0.009918 0
1.000765 -0.030710 0
1.002512 -0.054632 0
1.006058 -0.084391 0
1.013331 -0.123320 0
1.028648 -0.175320 0
1.061437 -0.241989 0
1.129200 -0.335176 0
1.302359 -0.341053 0
1.346723 -0.239972 0
1.340385 -0.155826 0
1.329163 -0.098206 0
1.318361 -0.054978 0
1.305351 -0.021658 0
1.286010 0.002085 0
1.261568 0.015124 0
1.235799 0.016076 0
1.213181 0.005278 0
1.197847 -0.015099 0
1.196336 -0.034627 0
1.213415 -0.037277 0
1.243372 -0.015733 0
1.270243 0.020946 0
1.281371 0.059332 0
1.280101 0.093411 0
1.270014 0.121286 0
1.252897 0.142553 0
1.229800 0.156949 0
1.201811 0.164097 0
1.170387 0.163687 0
1.137338 0.155794 0
1.104404 0.141170 0
1.072152 0.121241 0
1.038721 0.097539 0
1.000447 0.071137 0
0.955436 0.042866 0
0.906878 0.012610 0
0.862177 -0.022880 0
0.830784 -0.065085 0
0.820068 -0.109337 0
0.830355 -0.147021 0
0.858701 -0.168467 0
0.901375 -0.166650 0
0.954202 -0.139145 0
1.012050 -0.089018 0
1.067870 -0.025837 0
1.111771 0.034854 0
1.139209 0.083035 0
1.152458 0.118100 0
1.153936 0.141184 0
1.145891 0.153712 0
1.130356 0.157112 0
1.109056 0.152745 0
1.083242 0.142014 0
1.053432 0.126648 0
1.019292 0.108948 0
0.980185 0.091374 0
0.936687 0.075119 0
0.892107 0.058653 0
0.852296 0.038226 0
0.823063 0.010302 0
0.807488 -0.025818 0
0.805421 -0.066130 0
0.814474 -0.103962 0
0.831954 -0.133596 0
0.855776 -0.151076 0
0.884403 -0.153988 0
0.916457 -0.141456 0
0.950473 -0.114348 0
0.984816 -0.075416 0
1.017565 -0.029299 0
1.045602 0.017011 0
1.066251 0.057266 0
1.079100 0.088546 0
1.084313 0.109682 0
1.082322 0.120643 0
1.073629 0.122439 0
1.058696 0.116974 0
1.037944 0.106742 0
1.011938 0.094245 0
0.981791 0.081177 0
0.949600 0.067781 0
0.918483 0.052918 0
0.891963 0.035005 0
0.872855 0.013227 0
0.862314 -0.011924 0
0.859970 -0.038547 0
0.864593 -0.063734 0
0.874711 -0.084611 0
0.888992 -0.098930 0
0.906326 -0.105175 0
0.925766 -0.102563 0
0.946458 -0.091092 0
0.967597 -0.071600 0
0.988406 -0.045798 0
1.008073 -0.016286 0
1.025243 0.013216 0
1.038690 0.039340 0
1.047713 0.054618 0
1.000000 -0.009745 0
0.998449 -0.030249 0
0.995197 -0.054206 0
0.990196 -0.085052 0
0.983871 -0.127936 0
0.978345 -0.191263 0
0.981037 -0.286185 0
1.014103 -0.470720 0
1.207536 -0.453850 0
1.159995 -0.231355 0
1.074496 -0.123777 0
1.030633 -0.074252 0
1.009077 -0.036075 0
0.986924 0.000427 0
0.953428 0.031190 0
0.909092 0.048185 0
0.859286 0.048309 0
0.812871 0.032148 0
0.780504 0.001379 0
0.772828 -0.037046 0
0.799313 -0.063313 0
0.853908 -0.055522 0
0.922880 -0.011771 0
0.984205 0.043074 0
1.023736 0.089123 0
1.046427 0.125863 0
1.056523 0.154824 0
1.055058 0.176170 0
1.042896 0.189154 0
1.021075 0.192889 0
0.990355 0.187182 0
0.950608 0.173690 0
0.900921 0.156661 0
0.841353 0.140934 0
0.775474 0.126893 0
0.711434 0.107795 0
0.660326 0.074407 0
0.631183 0.022287 0
0.624679 -0.044868 0
0.635469 -0.114241 0
0.658366 -0.171299 0
0.690786 -0.206962 0
0.732094 -0.215928 0
0.781843 -0.196224 0
0.838450 -0.150154 0
0.898628 -0.084715 0
0.956318 -0.012535 0
1.001978 0.051490 0
1.033118 0.100645 0
1.051051 0.135829 0
1.057178 0.158530 0
1.052881 0.170374 0
1.039260 0.173169 0
1.016843 0.169113 0
0.985510 0.160902 0
0.945186 0.151093 0
0.897506 0.140440 0
0.847374 0.126495 0
0.802392 0.104564 0
0.769710 0.071085 0
0.752764 0.026588 0
0.750228 -0.024246 0
0.757452 -0.074916 0
0.770449 -0.119639 0
0.787150 -0.154269 0
0.806933 -0.175846 0
0.829824 -0.182241 0
0.855808 -0.172393 0
0.884394 -0.146840 0
0.914545 -0.108041 0
0.944833 -0.060234 0
0.973414 -0.009398 0
0.997151 0.037641 0
1.014415 0.076300 0
1.024586 0.104908 0
1.027405 0.123220 0
1.022771 0.132198 0
1.010695 0.133721 0
0.991477 0.130051 0
0.966097 0.123015 0
0.936633 0.113193 0
0.906290 0.099711 0
0.878762 0.081008 0
0.857178 0.056169 0
0.843250 0.025900 0
0.837116 -0.007526 0
0.837593 -0.041029 0
0.843076 -0.071503 0
0.852230 -0.096356 0
0.864138 -0.113677 0
0.878204 -0.122175 0
0.893991 -0.121159 0
0.911072 -0.110632 0
0.928935 -0.091412 0
0.946971 -0.065177 0
0.964479 -0.034390 0
0.980572 -0.002342 0
0.993785 0.027637 0
1.002792 0.045909 0
1.000000 -0.008355 0
0.996169 -0.025896 0
0.987859 -0.046380 0
0.973736 -0.073068 0
0.951492 -0.111472 0
0.917446 -0.172488 0
0.865988 -0.277748 0
0.793340 -0.561676 0
0.555846 -0.389173 0
0.498980 0.000000 0
0.431422 -0.017293 0
0.376206 -0.032762 0
0.379088 -0.011246 0
0.391102 0.034007 0
0.375870 0.079925 0
0.334663 0.109264 0
0.283954 0.112291 0
0.242510 0.084054 0
0.229750 0.024951 0
0.255774 -0.053426 0
0.311920 -0.118353 0
0.389149 -0.139298 0
0.485563 -0.109352 0
0.591619 -0.041526 0
0.684717 0.031187 0
0.751134 0.088498 0
0.794263 0.133921 0
0.817666 0.170574 0
0.822381 0.198079 0
0.808787 0.216228 0
0.776737 0.226261 0
0.726525 0.230604 0
0.661503 0.230499 0
0.591042 0.222993 0
0.529825 0.201066 0
0.491567 0.158027 0
0.481803 0.092875 0
0.496260 0.012780 0
0.522964 -0.069361 0
0.550528 -0.143017 0
0.576035 -0.202336 0
0.601502 -0.242198 0
0.630774 -0.257711 0
0.667324 -0.245500 0
0.712523 -0.205801 0
0.764987 -0.143704 0
0.821049 -0.068496 0
0.873739 0.006235 0
0.915024 0.069026 0
0.943590 0.117123 0
0.959599 0.151882 0
0.963405 0.175029 0
0.955246 0.188782 0
0.935230 0.195764 0
0.903947 0.198304 0
0.863788 0.196951 0
0.820066 0.189187 0
0.780307 0.170236 0
0.751345 0.136321 0
0.736304 0.087859 0
0.734009 0.029790 0
0.740672 -0.030499 0
0.751697 -0.086344 0
0.764026 -0.133655 0
0.776464 -0.170077 0
0.789253 -0.193747 0
0.803491 -0.202863 0
0.820405 -0.196029 0
0.840631 -0.173088 0
0.863845 -0.135856 0
0.888886 -0.088169 0
0.914122 -0.035308 0
0.937197 0.016266 0
0.955504 0.061110 0
0.967737 0.096692 0
0.973083 0.122458 0
0.971043 0.139148 0
0.961516 0.148267 0
0.945093 0.151340 0
0.923408 0.149088 0
0.899201 0.140984 0
0.875825 0.125652 0
0.856311 0.102031 0
0.842522 0.070517 0
0.834909 0.033289 0
0.832862 -0.006266 0
0.835158 -0.044506 0
0.840429 -0.078372 0
0.847646 -0.105673 0
0.856225 -0.124903 0
0.865967 -0.135027 0
0.876895 -0.135431 0
0.889042 -0.126036 0
0.902272 -0.107499 0
0.916192 -0.081342 0
0.930173 -0.049886 0
0.943391 -0.016090 0
0.954616 0.017120 0
0.962157 0.038079 0
1.000000 -0.005905 0
0.994505 -0.018101 0
0.982491 -0.031776 0
0.961593 -0.048689 0
0.927206 -0.071649 0
0.870269 -0.105761 0
0.771410 -0.162081 0
0.588541 -0.258349 0
0.000000 -0.159489 0
0.000000 0.000000 0
0.000000 0.000000 0
-0.025456 -0.030065 0
-0.040127 -0.050956 0
-0.055558 0.003655 0
-0.074543 0.087632 0
-0.100754 0.140095 0
-0.123448 0.140456 0
-0.124712 0.086353 0
-0.090085 -0.011876 0
-0.033640 -0.119211 0
0.028516 -0.196686 0
0.097838 -0.229165 0
0.179070 -0.214243 0
0.275904 -0.156082 0
0.380786 -0.070393 0
0.471635 0.016315 0
0.535740 0.088290 0
0.574896 0.148051 0
0.591111 0.198033 0
0.585321 0.238533 0
0.559501 0.269445 0
0.519109 0.288926 0
0.474662 0.292150 0
0.439900 0.272621 0
0.426225 0.226378 0
0.437245 0.155830 0
0.467687 0.069728 0
0.505895 -0.018861 0
0.539608 -0.099127 0
0.564568 -0.167308 0
0.580594 -0.222273 0
0.590563 -0.261705 0
0.599743 -0.281750 0
0.614329 -0.277972 0
0.639063 -0.247817 0
0.675140 -0.193240 0
0.719891 -0.121287 0
0.768139 -0.042485 0
0.811522 0.030794 0
0.844236 0.091254 0
0.864954 0.138713 0
0.873148 0.174725 0
0.868710 0.201344 0
0.852334 0.220412 0
0.826406 0.232344 0
0.795747 0.234974 0
0.767081 0.223923 0
0.746738 0.195220 0
0.737994 0.148572 0
0.740209 0.088427 0
0.750159 0.022226 0
0.763606 -0.041928 0
0.776839 -0.098263 0
0.787728 -0.144400 0
0.795495 -0.179492 0
0.800660 -0.202872 0
0.804900 -0.213394 0
0.810528 -0.209536 0
0.819581 -0.190282 0
0.832952 -0.156296 0
0.850116 -0.110513 0
0.869498 -0.057711 0
0.889010 -0.003741 0
0.905813 0.045760 0
0.918001 0.087329 0
0.924400 0.119913 0
0.924384 0.143763 0
0.918000 0.159670 0
0.906216 0.168158 0
0.891013 0.168907 0
0.875079 0.160775 0
0.861078 0.142601 0
0.850863 0.114312 0
0.845118 0.077571 0
0.843535 0.035561 0
0.845271 -0.007775 0
0.849201 -0.048596 0
0.854212 -0.083990 0
0.859479 -0.112150 0
0.864590 -0.131998 0
0.869582 -0.142845 0
0.874856 -0.144234 0
0.880948 -0.136008 0
0.888244 -0.118561 0
0.896756 -0.093078 0
0.906070 -0.061589 0
0.915410 -0.026785 0
0.923719 0.008870 0
0.929316 0.031988 0
1.000000 -0.002855 0
0.993912 -0.008383 0
0.980677 -0.013471 0
0.957845 -0.017788 0
0.920700 -0.020151 0
0.860522 -0.016693 0
0.760736 0.003980 0
0.588024 0.106717 0
0.273573 0.096351 0
0.000000 0.000000 0
0.000000 0.000000 0
0.000000 0.000000 0
-0.029270 0.019660 0
-0.108661 0.068430 0
-0.152770 0.125120 0
-0.175001 0.158165 0
-0.171236 0.136246 0
-0.128820 0.050697 0
-0.069860 -0.066115 0
-0.022840 -0.172025 0
0.010372 -0.249830 0
0.040313 -0.289853 0
0.076566 -0.287419 0
0.127540 -0.243244 0
0.194747 -0.164546 0
0.270493 -0.066458 0
0.336608 0.030659 0
0.383240 0.115203 0
0.410660 0.187654 0
0.420470 0.247839 0
0.416899 0.292475 0
0.408147 0.315447 0
0.405058 0.309716 0
0.417069 0.271439 0
0.447950 0.203733 0
0.494556 0.116578 0
0.548280 0.024239 0
0.595486 -0.059130 0
0.630066 -0.128028 0
0.650660 -0.184001 0
0.657370 -0.228333 0
0.652249 -0.261349 0
0.640000 -0.281476 0
0.627902 -0.284819 0
0.623995 -0.266612 0
0.633798 -0.224532 0
0.657798 -0.161495 0
0.691715 -0.085396 0
0.728559 -0.007072 0
0.759785 0.063690 0
0.781542 0.122969 0
0.792526 0.171273 0
0.792786 0.209597 0
0.783995 0.238068 0
0.769851 0.254891 0
0.755733 0.256277 0
0.747094 0.238199 0
0.747283 0.199326 0
0.756437 0.142855 0
0.772210 0.075700 0
0.791270 0.006400 0
0.809598 -0.057171 0
0.824515 -0.110461 0
0.834441 -0.152307 0
0.838620 -0.183006 0
0.837325 -0.203152 0
0.832136 -0.212734 0
0.825859 -0.210710 0
0.821790 -0.195513 0
0.822491 -0.166393 0
0.828815 -0.124716 0
0.839815 -0.074203 0
0.853419 -0.020049 0
0.866925 0.032119 0
0.877909 0.078103 0
0.884919 0.116073 0
0.887295 0.145548 0
0.885230 0.166435 0
0.879822 0.178326 0
0.872894 0.180224 0
0.866495 0.170920 0
0.862246 0.149868 0
0.860917 0.117990 0