# vtk DataFile Version 2.0
generated by CFD-lab course output (written by Tobias Neckel) 
ASCII

DATASET STRUCTURED_GRID
DIMENSIONS  99 19 1 
POINTS 1881 float

0.000000 0.000000 0
0.100000 0.000000 0
0.200000 0.000000 0
0.300000 0.000000 0
0.400000 0.000000 0
0.500000 0.000000 0
0.600000 0.000000 0
0.700000 0.000000 0
0.800000 0.000000 0
0.900000 0.000000 0
1.000000 0.000000 0
1.100000 0.000000 0
1.200000 0.000000 0
1.300000 0.000000 0
1.400000 0.000000 0
1.500000 0.000000 0
1.600000 0.000000 0
1.700000 0.000000 0
1.800000 0.000000 0
1.900000 0.000000 0
2.000000 0.000000 0
2.100000 0.000000 0
2.200000 0.000000 0
2.300000 0.000000 0
2.400000 0.000000 0
2.500000 0.000000 0
2.600000 0.000000 0
2.700000 0.000000 0
2.800000 0.000000 0
2.900000 0.000000 0
3.000000 0.000000 0
3.100000 0.000000 0
3.200000 0.000000 0
3.300000 0.000000 0
3.400000 0.000000 0
3.500000 0.000000 0
3.600000 0.000000 0
3.700000 0.000000 0
3.800000 0.000000 0
3.900000 0.000000 0
4.000000 0.000000 0
4.100000 0.000000 0
4.200000 0.000000 0
4.300000 0.000000 0
4.400000 0.000000 0
4.500000 0.000000 0
4.600000 0.000000 0
4.700000 0.000000 0
4.800000 0.000000 0
4.900000 0.000000 0
5.000000 0.000000 0
5.100000 0.000000 0
5.200000 0.000000 0
5.300000 0.000000 0
5.400000 0.000000 0
5.500000 0.000000 0
5.600000 0.000000 0
5.700000 0.000000 0
5.800000 0.000000 0
5.900000 0.000000 0
6.000000 0.000000 0
6.100000 0.000000 0
6.200000 0.000000 0
6.300000 0.000000 0
6.400000 0.000000 0
6.500000 0.000000 0
6.600000 0.000000 0
6.700000 0.000000 0
6.800000 0.000000 0
6.900000 0.000000 0
7.000000 0.000000 0
7.100000 0.000000 0
7.200000 0.000000 0
7.300000 0.000000 0
7.400000 0.000000 0
7.500000 0.000000 0
7.600000 0.000000 0
7.700000 0.000000 0
7.800000 0.000000 0
7.900000 0.000000 0
8.000000 0.000000 0
8.100000 0.000000 0
8.200000 0.000000 0
8.300000 0.000000 0
8.400000 0.000000 0
8.500000 0.000000 0
8.600000 0.000000 0
8.700000 0.000000 0
8.800000 0.000000 0
8.900000 0.000000 0
9.000000 0.000000 0
9.100000 0.000000 0
9.200000 0.000000 0
9.300000 0.000000 0
9.400000 0.000000 0
9.500000 0.000000 0
9.600000 0.000000 0
9.700000 0.000000 0
9.800000 0.000000 0
0.000000 0.100000 0
0.100000 0.100000 0
0.200000 0.100000 0
0.300000 0.100000 0
0.400000 0.100000 0
0.500000 0.100000 0
0.600000 0.100000 0
0.700000 0.100000 0
0.800000 0.100000 0
0.900000 0.100000 0
1.000000 0.100000 0
1.100000 0.100000 0
1.200000 0.100000 0
1.300000 0.100000 0
1.400000 0.100000 0
1.500000 0.100000 0
1.600000 0.100000 0
1.700000 0.100000 0
1.800000 0.100000 0
1.900000 0.100000 0
2.000000 0.100000 0
2.100000 0.100000 0
2.200000 0.100000 0
2.300000 0.100000 0
2.400000 0.100000 0
2.500000 0.100000 0
2.600000 0.100000 0
2.700000 0.100000 0
2.800000 0.100000 0
2.900000 0.100000 0
3.000000 0.100000 0
3.100000 0.100000 0
3.200000 0.100000 0
3.300000 0.100000 0
3.400000 0.100000 0
3.500000 0.100000 0
3.600000 0.100000 0
3.700000 0.100000 0
3.800000 0.100000 0
3.900000 0.100000 0
4.000000 0.100000 0
4.100000 0.100000 0
4.200000 0.100000 0
4.300000 0.100000 0
4.400000 0.100000 0
4.500000 0.100000 0
4.600000 0.100000 0
4.700000 0.100000 0
4.800000 0.100000 0
4.900000 0.100000 0
5.000000 0.100000 0
5.100000 0.100000 0
5.200000 0.100000 0
5.300000 0.100000 0
5.400000 0.100000 0
5.500000 0.100000 0
5.600000 0.100000 0
5.700000 0.100000 0
5.800000 0.100000 0
5.900000 0.100000 0
6.000000 0.100000 0
6.100000 0.100000 0
6.200000 0.100000 0
6.300000 0.100000 0
6.400000 0.100000 0
6.500000 0.100000 0
6.600000 0.100000 0
6.700000 0.100000 0
6.800000 0.100000 0
6.900000 0.100000 0
7.000000 0.100000 0
7.100000 0.100000 0
7.200000 0.100000 0
7.300000 0.100000 0
7.400000 0.100000 0
7.500000 0.100000 0
7.600000 0.100000 0
7.700000 0.100000 0
7.800000 0.100000 0
7.900000 0.100000 0
8.000000 0.100000 0
8.100000 0.100000 0
8.200000 0.100000 0
8.300000 0.100000 0
8.400000 0.100000 0
8.500000 0.100000 0
8.600000 0.100000 0
8.700000 0.100000 0
8.800000 0.100000 0
8.900000 0.100000 0
9.000000 0.100000 0
9.100000 0.100000 0
9.200000 0.100000 0
9.300000 0.100000 0
9.400000 0.100000 0
9.500000 0.100000 0
9.600000 0.100000 0
9.700000 0.100000 0
9.800000 0.100000 0
0.000000 0.200000 0
0.100000 0.200000 0
0.200000 0.200000 0
0.300000 0.200000 0
0.400000 0.200000 0
0.500000 0.200000 0
0.600000 0.200000 0
0.700000 0.200000 0
0.800000 0.200000 0
0.900000 0.200000 0
1.000000 0.200000 0
1.100000 0.200000 0
1.200000 0.200000 0
1.300000 0.200000 0
1.400000 0.200000 0
1.500000 0.200000 0
1.600000 0.200000 0
1.700000 0.200000 0
1.800000 0.200000 0
1.900000 0.200000 0
2.000000 0.200000 0
2.100000 0.200000 0
2.200000 0.200000 0
2.300000 0.200000 0
2.400000 0.200000 0
2.500000 0.200000 0
2.600000 0.200000 0
2.700000 0.200000 0
2.800000 0.200000 0
2.900000 0.200000 0
3.000000 0.200000 0
3.100000 0.200000 0
3.200000 0.200000 0
3.300000 0.200000 0
3.400000 0.200000 0
3.500000 0.200000 0
3.600000 0.200000 0
3.700000 0.200000 0
3.800000 0.200000 0
3.900000 0.200000 0
4.000000 0.200000 0
4.100000 0.200000 0
4.200000 0.200000 0
4.300000 0.200000 0
4.400000 0.200000 0
4.500000 0.200000 0
4.600000 0.200000 0
4.700000 0.200000 0
4.800000 0.200000 0
4.900000 0.200000 0
5.000000 0.200000 0
5.100000 0.200000 0
5.200000 0.200000 0
5.300000 0.200000 0
5.400000 0.200000 0
5.500000 0.200000 0
5.600000 0.200000 0
5.700000 0.200000 0
5.800000 0.200000 0
5.900000 0.200000 0
6.000000 0.200000 0
6.100000 0.200000 0
6.200000 0.200000 0
6.300000 0.200000 0
6.400000 0.200000 0
6.500000 0.200000 0
6.600000 0.200000 0
6.700000 0.200000 0
6.800000 0.200000 0
6.900000 0.200000 0
7.000000 0.200000 0
7.100000 0.200000 0
7.200000 0.200000 0
7.300000 0.200000 0
7.400000 0.200000 0
7.500000 0.200000 0
7.600000 0.200000 0
7.700000 0.200000 0
7.800000 0.200000 0
7.900000 0.200000 0
8.000000 0.200000 0
8.100000 0.200000 0
8.200000 0.200000 0
8.300000 0.200000 0
8.400000 0.200000 0
8.500000 0.200000 0
8.600000 0.200000 0
8.700000 0.200000 0
8.800000 0.200000 0
8.900000 0.200000 0
9.000000 0.200000 0
9.100000 0.200000 0
9.200000 0.200000 0
9.300000 0.200000 0
9.400000 0.200000 0
9.500000 0.200000 0
9.600000 0.200000 0
9.700000 0.200000 0
9.800000 0.200000 0
0.000000 0.300000 0
0.100000 0.300000 0
0.200000 0.300000 0
0.300000 0.300000 0
0.400000 0.300000 0
0.500000 0.300000 0
0.600000 0.300000 0
0.700000 0.300000 0
0.800000 0.300000 0
0.900000 0.300000 0
1.000000 0.300000 0
1.100000 0.300000 0
1.200000 0.300000 0
1.300000 0.300000 0
1.400000 0.300000 0
1.500000 0.300000 0
1.600000 0.300000 0
1.700000 0.300000 0
1.800000 0.300000 0
1.900000 0.300000 0
2.000000 0.300000 0
2.100000 0.300000 0
2.200000 0.300000 0
2.300000 0.300000 0
2.400000 0.300000 0
2.500000 0.300000 0
2.600000 0.300000 0
2.700000 0.300000 0
2.800000 0.300000 0
2.900000 0.300000 0
3.000000 0.300000 0
3.100000 0.300000 0
3.200000 0.300000 0
3.300000 0.300000 0
3.400000 0.300000 0
3.500000 0.300000 0
3.600000 0.300000 0
3.700000 0.300000 0
3.800000 0.300000 0
3.900000 0.300000 0
4.000000 0.300000 0
4.100000 0.300000 0
4.200000 0.300000 0
4.300000 0.300000 0
4.400000 0.300000 0
4.500000 0.300000 0
4.600000 0.300000 0
4.700000 0.300000 0
4.800000 0.300000 0
4.900000 0.300000 0
5.000000 0.300000 0
5.100000 0.300000 0
5.200000 0.300000 0
5.300000 0.300000 0
5.400000 0.300000 0
5.500000 0.300000 0
5.600000 0.300000 0
5.700000 0.300000 0
5.800000 0.300000 0
5.900000 0.300000 0
6.000000 0.300000 0
6.100000 0.300000 0
6.200000 0.300000 0
6.300000 0.300000 0
6.400000 0.300000 0
6.500000 0.300000 0
6.600000 0.300000 0
6.700000 0.300000 0
6.800000 0.300000 0
6.900000 0.300000 0
7.000000 0.300000 0
7.100000 0.300000 0
7.200000 0.300000 0
7.300000 0.300000 0
7.400000 0.300000 0
7.500000 0.300000 0
7.600000 0.300000 0
7.700000 0.300000 0
7.800000 0.300000 0
7.900000 0.300000 0
8.000000 0.300000 0
8.100000 0.300000 0
8.200000 0.300000 0
8.300000 0.300000 0
8.400000 0.300000 0
8.500000 0.300000 0
8.600000 0.300000 0
8.700000 0.300000 0
8.800000 0.300000 0
8.900000 0.300000 0
9.000000 0.300000 0
9.100000 0.300000 0
9.200000 0.300000 0
9.300000 0.300000 0
9.400000 0.300000 0
9.500000 0.300000 0
9.600000 0.300000 0
9.700000 0.300000 0
9.800000 0.300000 0
0.000000 0.400000 0
0.100000 0.400000 0
0.200000 0.400000 0
0.300000 0.400000 0
0.400000 0.400000 0
0.500000 0.400000 0
0.600000 0.400000 0
0.700000 0.400000 0
0.800000 0.400000 0
0.900000 0.400000 0
1.000000 0.400000 0
1.100000 0.400000 0
1.200000 0.400000 0
1.300000 0.400000 0
1.400000 0.400000 0
1.500000 0.400000 0
1.600000 0.400000 0
1.700000 0.400000 0
1.800000 0.400000 0
1.900000 0.400000 0
2.000000 0.400000 0
2.100000 0.400000 0
2.200000 0.400000 0
2.300000 0.400000 0
2.400000 0.400000 0
2.500000 0.400000 0
2.600000 0.400000 0
2.700000 0.400000 0
2.800000 0.400000 0
2.900000 0.400000 0
3.000000 0.400000 0
3.100000 0.400000 0
3.200000 0.400000 0
3.300000 0.400000 0
3.400000 0.400000 0
3.500000 0.400000 0
3.600000 0.400000 0
3.700000 0.400000 0
3.800000 0.400000 0
3.900000 0.400000 0
4.000000 0.400000 0
4.100000 0.400000 0
4.200000 0.400000 0
4.300000 0.400000 0
4.400000 0.400000 0
4.500000 0.400000 0
4.600000 0.400000 0
4.700000 0.400000 0
4.800000 0.400000 0
4.900000 0.400000 0
5.000000 0.400000 0
5.100000 0.400000 0
5.200000 0.400000 0
5.300000 0.400000 0
5.400000 0.400000 0
5.500000 0.400000 0
5.600000 0.400000 0
5.700000 0.400000 0
5.800000 0.400000 0
5.900000 0.400000 0
6.000000 0.400000 0
6.100000 0.400000 0
6.200000 0.400000 0
6.300000 0.400000 0
6.400000 0.400000 0
6.500000 0.400000 0
6.600000 0.400000 0
6.700000 0.400000 0
6.800000 0.400000 0
6.900000 0.400000 0
7.000000 0.400000 0
7.100000 0.400000 0
7.200000 0.400000 0
7.300000 0.400000 0
7.400000 0.400000 0
7.500000 0.400000 0
7.600000 0.400000 0
7.700000 0.400000 0
7.800000 0.400000 0
7.900000 0.400000 0
8.000000 0.400000 0
8.100000 0.400000 0
8.200000 0.400000 0
8.300000 0.400000 0
8.400000 0.400000 0
8.500000 0.400000 0
8.600000 0.400000 0
8.700000 0.400000 0
8.800000 0.400000 0
8.900000 0.400000 0
9.000000 0.400000 0
9.100000 0.400000 0
9.200000 0.400000 0
9.300000 0.400000 0
9.400000 0.400000 0
[...]
POINT_DATA 1881 

VECTORS velocity float
0.500000 0.000000 0
0.502122 0.000000 0
0.506891 0.000000 0
0.514730 0.000000 0
0.526071 0.000000 0
0.541243 0.000000 0
0.560267 0.000000 0
0.582556 0.000000 0
0.606689 0.000000 0
0.630293 0.000000 0
0.651328 0.000000 0
0.668673 0.000000 0
0.681928 0.000000 0
0.691076 0.000000 0
0.696164 0.000000 0
0.697306 0.000000 0
0.694701 0.000000 0
0.688673 0.000000 0
0.679722 0.000000 0
0.668524 0.000000 0
0.655900 0.000000 0
0.642760 0.000000 0
0.630048 0.000000 0
0.618675 0.000000 0
0.609470 0.000000 0
0.603146 0.000000 0
0.600304 0.000000 0
0.601368 0.000000 0
0.606277 0.000000 0
0.614277 0.000000 0
0.623874 0.000000 0
0.633083 0.000000 0
0.639950 0.000000 0
0.643139 0.000000 0
0.642141 0.000000 0
0.636992 0.000000 0
0.628114 0.000000 0
0.616162 0.000000 0
0.601889 0.000000 0
0.586072 0.000000 0
0.569468 0.000000 0
0.552818 0.000000 0
0.536847 0.000000 0
0.522288 0.000000 0
0.509901 0.000000 0
0.500502 0.000000 0
0.494974 0.000000 0
0.494123 0.000000 0
0.498278 0.000000 0
0.507316 0.000000 0
0.520757 0.000000 0
0.537754 0.000000 0
0.557087 0.000000 0
0.577140 0.000000 0
0.595925 0.000000 0
0.611277 0.000000 0
0.621300 0.000000 0
0.624989 0.000000 0
0.622393 0.000000 0
0.614041 0.000000 0
0.600764 0.000000 0
0.583657 0.000000 0
0.563986 0.000000 0
0.543101 0.000000 0
0.522360 0.000000 0
0.503067 0.000000 0
0.486430 0.000000 0
0.473498 0.000000 0
0.465065 0.000000 0
0.461526 0.000000 0
0.462635 0.000000 0
0.467545 0.000000 0
0.475431 0.000000 0
0.485649 0.000000 0
0.497736 0.000000 0
0.511341 0.000000 0
0.526102 0.000000 0
0.541504 0.000000 0
0.556743 0.000000 0
0.570679 0.000000 0
0.581929 0.000000 0
0.589146 0.000000 0
0.591442 0.000000 0
0.588581 0.000000 0
0.580679 0.000000 0
0.568146 0.000000 0
0.551764 0.000000 0
0.532724 0.000000 0
0.512621 0.000000 0
0.493345 0.000000 0
0.476820 0.000000 0
0.464632 0.000000 0
0.457686 0.000000 0
0.456011 0.000000 0
0.458674 0.000000 0
0.464458 0.000000 0
0.472495 0.000000 0
0.482418 0.000000 0
0.494723 0.000000 0
1.000000 -0.002142 0
1.004801 -0.006922 0
1.014961 -0.012633 0
1.031251 -0.019204 0
1.054612 -0.026535 0
1.085905 -0.034212 0
1.125462 -0.041317 0
1.172353 -0.046408 0
1.223795 -0.047712 0
1.273774 -0.044619 0
1.317644 -0.038367 0
1.353384 -0.030603 0
1.380649 -0.022403 0
1.399662 -0.014228 0
1.410607 -0.006228 0
1.413626 0.001464 0
1.409029 0.008629 0
1.397414 0.014971 0
1.379779 0.020138 0
1.357516 0.023809 0
1.332322 0.025748 0
1.306081 0.025834 0
1.280740 0.024064 0
1.258171 0.020557 0
1.240058 0.015509 0
1.227819 0.009149 0
1.222618 0.001763 0
1.225314 -0.005980 0
1.236021 -0.012904 0
1.253498 -0.017587 0
1.274809 -0.018788 0
1.295754 -0.016054 0
1.312006 -0.010036 0
1.320430 -0.002175 0
1.319790 0.006155 0
1.310329 0.014029 0
1.293104 0.020831 0
1.269587 0.026226 0
1.241398 0.030089 0
1.210144 0.032419 0
1.177366 0.033251 0
1.144546 0.032616 0
1.113129 0.030523 0
1.084546 0.026939 0
1.060221 0.021777 0
1.041523 0.014917 0
1.029685 0.006369 0
1.025692 -0.003315 0
1.030224 -0.013204 0
1.043504 -0.022489 0
1.065153 -0.030447 0
1.094117 -0.036336 0
1.128682 -0.039387 0
1.166423 -0.038836 0
1.204100 -0.034132 0
1.237742 -0.025367 0
1.263152 -0.013704 0
1.276882 -0.001084 0
1.277463 0.010956 0
1.265770 0.021634 0
1.243592 0.030386 0
1.213226 0.036777 0
1.177282 0.040552 0
1.138493 0.041621 0
1.099564 0.040029 0
1.063026 0.035924 0
1.031096 0.029563 0
1.005489 0.021359 0
0.987228 0.011967 0
0.976536 0.002425 0
0.972982 -0.006025 0
0.975749 -0.012803 0
0.983874 -0.018110 0
0.996565 -0.022311 0
1.013285 -0.025697 0
1.033694 -0.028370 0
1.057458 -0.030165 0
1.083963 -0.030641 0
1.112025 -0.029175 0
1.139766 -0.025185 0
1.164682 -0.018465 0
1.183929 -0.009511 0
1.194834 0.000567 0
1.195706 0.010764 0
1.186541 0.020434 0
1.168261 0.028913 0
1.142495 0.035419 0
1.111549 0.039140 0
1.078275 0.039376 0
1.045810 0.035798 0
1.017118 0.028710 0
0.994457 0.019132 0
0.978984 0.008618 0
0.970723 -0.000990 0
0.968978 -0.008448 0
0.972653 -0.013822 0
0.980685 -0.017961 0
0.992451 -0.022228 0
1.008240 -0.024670 0
1.000000 -0.004831 0
1.004950 -0.015006 0
1.015094 -0.026480 0
1.031247 -0.039679 0
1.054668 -0.054676 0
1.086879 -0.070860 0
1.129214 -0.086436 0
1.181676 -0.098306 0
1.242503 -0.101396 0
1.299709 -0.093834 0
1.346990 -0.079613 0
1.383707 -0.063012 0
1.411143 -0.046272 0
1.430427 -0.029950 0
1.441911 -0.013963 0
1.445403 0.001576 0
1.440933 0.016206 0
1.428928 0.029239 0
1.410395 0.039882 0
1.386838 0.047438 0
1.360104 0.051414 0
1.332237 0.051559 0
1.305343 0.047886 0
1.281426 0.040658 0
1.262221 0.030331 0
1.249098 0.017420 0
1.243194 0.002495 0
1.245672 -0.013400 0
1.257365 -0.028172 0
1.277628 -0.038767 0
1.303599 -0.042232 0
1.330484 -0.037173 0
1.352691 -0.024655 0
1.365664 -0.007773 0
1.367663 0.010101 0
1.359547 0.026686 0
1.342972 0.040743 0
1.319842 0.051705 0
1.292013 0.059442 0
1.261171 0.064028 0
1.228828 0.065592 0
1.196375 0.064230 0
1.165130 0.059991 0
1.136348 0.052898 0
1.111188 0.043012 0
1.090612 0.030523 0
1.075259 0.015819 0
1.065480 -0.000551 0
1.061746 -0.017825 0
1.064638 -0.034941 0
1.074498 -0.050620 0
1.091403 -0.063532 0
1.115228 -0.072305 0
1.145383 -0.075413 0
1.180284 -0.071310 0
1.216987 -0.059040 0
1.251209 -0.039129 0
1.277823 -0.014301 0
1.292322 0.011119 0
1.293452 0.033873 0
1.282871 0.052541 0
1.262846 0.066306 0
1.235932 0.074727 0
1.204758 0.077711 0
1.171861 0.075460 0
1.139515 0.068461 0
1.109562 0.057531 0
1.083256 0.043861 0
1.061184 0.028946 0
1.043355 0.014239 0
1.029578 0.000780 0
1.019778 -0.010900 0
1.013804 -0.020824 0
1.011700 -0.029418 0
1.013820 -0.037134 0
1.020744 -0.044177 0
1.033034 -0.050271 0
1.050802 -0.054566 0
1.073405 -0.055802 0
1.099399 -0.052655 0
1.126661 -0.044160 0
1.152517 -0.030150 0
1.173883 -0.011777 0
1.187782 0.008292 0
1.192657 0.027443 0
1.188994 0.044042 0
1.178066 0.056708 0
1.161642 0.064216 0
1.141729 0.065734 0
1.120273 0.061154 0
1.098901 0.051350 0
1.078778 0.038131 0
1.060625 0.023732 0
1.044884 0.010004 0
1.032087 -0.001931 0
1.022599 -0.011709 0
1.016423 -0.019799 0
1.013408 -0.027555 0
1.013275 -0.032115 0
1.000000 -0.007112 0
1.003965 -0.022044 0
1.012380 -0.038938 0
1.026293 -0.058781 0
1.047498 -0.082162 0
1.078634 -0.108740 0
1.123049 -0.136089 0
1.183186 -0.159682 0
1.262983 -0.165749 0
1.330088 -0.149124 0
1.377924 -0.122385 0
1.411334 -0.094751 0
1.435272 -0.069114 0
1.452568 -0.044999 0
1.463598 -0.021205 0
1.467000 0.002438 0
1.461819 0.025097 0
1.448076 0.045501 0
1.426815 0.062219 0
1.399764 0.074090 0
1.369025 0.080340 0
1.336906 0.080586 0
1.305806 0.074868 0
1.278002 0.063674 0
1.255345 0.047835 0
1.239026 0.028178 0
1.229732 0.005202 0
1.228499 -0.020135 0
1.237233 -0.044844 0
1.256529 -0.063804 0
1.284528 -0.071633 0
1.317093 -0.065143 0
1.347966 -0.045221 0
1.369934 -0.017160 0
1.378061 0.012262 0
1.373084 0.038719 0
1.357882 0.060536 0
1.335258 0.077182 0
1.307564 0.088758 0
1.276673 0.095601 0
1.244082 0.098041 0
1.211054 0.096309 0
1.178713 0.090546 0
1.148098 0.080875 0
1.120138 0.067508 0
1.095574 0.050841 0
1.074799 0.031496 0
1.057699 0.010194 0
1.043750 -0.012366 0
1.032854 -0.035241 0
1.026317 -0.057209 0
1.026157 -0.077061 0
1.034632 -0.093360 0
1.053160 -0.103884 0
1.081355 -0.105728 0
1.116936 -0.096287 0
1.156088 -0.074537 0
1.193834 -0.042198 0
1.224423 -0.004677 0
1.242765 0.031078 0
1.248359 0.060985 0
1.243042 0.083711 0
1.229012 0.098636 0
1.208581 0.105688 0
1.183970 0.105269 0
1.157159 0.098221 0
1.129772 0.085821 0
1.103022 0.069735 0
1.077711 0.051866 0
1.054245 0.034029 0
1.032628 0.017549 0
1.012673 0.002968 0
0.994494 -0.010035 0
0.978908 -0.022329 0
0.967723 -0.034741 0
0.963033 -0.047583 0
0.966226 -0.060222 0
0.977462 -0.071009 0
0.995762 -0.077769 0
1.019408 -0.078440 0
1.046336 -0.071584 0
1.074369 -0.056733 0
1.101278 -0.034699 0
1.124604 -0.008013 0
1.141621 0.019218 0
1.151211 0.043501 0
1.153781 0.062769 0
1.150204 0.075475 0
1.141555 0.080743 0
1.128886 0.078625 0
1.113149 0.070204 0
1.095234 0.057407 0
1.076066 0.042511 0
1.056573 0.027548 0
1.037511 0.013837 0
1.019579 0.001841 0
1.003457 -0.008769 0
0.989726 -0.019079 0
0.978902 -0.025570 0
1.000000 -0.008815 0
1.002550 -0.027409 0
1.008173 -0.048812 0
1.018018 -0.074795 0
1.034303 -0.107005 0
1.060927 -0.146390 0
1.104352 -0.190975 0
1.172521 -0.238240 0
1.288931 -0.248310 0
1.360255 -0.208793 0
1.395457 -0.160855 0
1.414581 -0.120345 0
1.427677 -0.087502 0
1.439405 -0.058278 0
1.450129 -0.028399 0
1.455723 0.003349 0
1.451831 0.035122 0
1.437723 0.064234 0
1.414545 0.088185 0
1.384343 0.105220 0
1.349469 0.114264 0
1.312501 0.114771 0
1.276218 0.106786 0
1.243377 0.091115 0
1.216093 0.069307 0
1.195067 0.043045 0
1.179487 0.013036 0
1.168221 -0.020887 0
1.163316 -0.056186 0
1.168933 -0.086052 0
1.187075 -0.102791 0
1.217534 -0.100614 0
1.256250 -0.077507 0
1.294639 -0.037879 0
1.321670 0.006951 0
1.330768 0.046867 0
1.325576 0.078567 0
1.310196 0.102020 0
1.287778 0.118023 0
1.260611 0.127506 0
1.230404 0.131207 0
1.198509 0.129594 0
1.166070 0.122941 0
1.134091 0.111468 0
1.103420 0.095531 0
1.074561 0.075857 0
1.047298 0.053690 0
1.020417 0.030494 0
0.992371 0.007018 0
0.963174 -0.017505 0
0.936304 -0.043919 0
0.918411 -0.071840 0
0.914440 -0.099300 0
0.925387 -0.122129 0
0.949497 -0.135080 0
0.983767 -0.133770 0
1.024674 -0.116027 0
1.068322 -0.082641 0
1.110246 -0.037819 0
1.144804 0.009931 0
1.167356 0.052261 0
1.178195 0.085649 0
1.178834 0.109184 0
1.171068 0.122750 0
1.156726 0.126880 0
1.137506 0.122657 0
1.114857 0.111666 0
1.089881 0.095920 0
1.063238 0.077721 0
1.035151 0.059320 0
1.005725 0.042348 0
0.975604 0.027231 0
0.946597 0.012940 0
0.921528 -0.002648 0
0.903385 -0.021259 0
0.894493 -0.042678 0
0.895525 -0.064697 0
0.905525 -0.084100 0
0.922734 -0.097746 0
0.945216 -0.103228 0
0.971133 -0.099121 0
0.998806 -0.085093 0
1.026688 -0.062014 0
1.053244 -0.032054 0
1.076530 0.000833 0
1.094224 0.031880 0
1.105665 0.057714 0
1.110912 0.076441 0
1.110281 0.087051 0
1.104197 0.089558 0
1.093152 0.085001 0
1.077740 0.075213 0
1.058698 0.062392 0
1.036936 0.048559 0
1.013584 0.035062 0
0.990064 0.022345 0
0.968108 0.010054 0
0.949459 -0.002999 0
0.935822 -0.012062 0
1.000000 -0.009679 0
1.000621 -0.030234 0
1.002216 -0.054406 0
1.005641 -0.084904 0
1.012872 -0.125055 0
1.028232 -0.178774 0
1.061094 -0.247679 0
1.128817 -0.344269 0
1.301492 -0.353497 0
1.343439 -0.255648 0
1.334553 -0.176694 0
1.321547 -0.126965 0
1.312530 -0.093941 0
1.311731 -0.067454 0
1.320976 -0.037529 0
1.334943 0.000728 0
1.339383 0.043089 0
1.331267 0.082779 0
1.312401 0.115591 0
1.284909 0.139158 0
1.250753 0.152176 0
1.212260 0.153833 0
1.172407 0.143988 0
1.134644 0.123799 0
1.101491 0.096153 0
1.072144 0.064798 0
1.042699 0.032061 0
1.010473 -0.003950 0
0.977674 -0.045545 0
0.955497 -0.087557 0
0.955383 -0.120236 0
0.979571 -0.134326 0
1.023877 -0.122338 0
1.080142 -0.082581 0
1.136569 -0.023864 0
1.179032 0.034811 0
1.201357 0.081105 0
1.208390 0.114976 0
1.203988 0.138339 0
1.190866 0.152971 0
1.171094 0.160139 0
1.146364 0.160638 0
1.118062 0.154959 0
1.087123 0.143521 0
1.053656 0.127033 0
1.016594 0.106959 0
0.974306 0.085637 0
0.926771 0.065119 0
0.877814 0.044879 0
0.834449 0.020830 0
0.803347 -0.012440 0
0.788453 -0.055189 0
0.789653 -0.100328 0
0.804232 -0.138935 0
0.829295 -0.164105 0
0.862523 -0.171463 0
0.901860 -0.159095 0
0.945068 -0.127775 0
0.989498 -0.081165 0
1.031761 -0.026036 0
1.066424 0.027591 0
1.090327 0.072230 0
1.103829 0.105760 0
1.107882 0.127793 0
1.103671 0.138828 0
1.092365 0.140088 0
1.074919 0.133443 0
1.051919 0.121351 0
1.023612 0.106593 0
0.990360 0.091539 0
0.953487 0.077093 0
0.915989 0.062094 0
0.882261 0.044041 0
0.856621 0.020884 0
0.841472 -0.007705 0
0.836867 -0.039720 0
0.841290 -0.071251 0
0.852728 -0.098217 0
0.869413 -0.117459 0
0.889977 -0.126839 0
0.913317 -0.125173 0
0.938419 -0.112290 0
0.964280 -0.089141 0
0.989869 -0.057859 0
1.014049 -0.021763 0
1.034941 0.014366 0
1.050808 0.046081 0
1.061040 0.070858 0
1.065345 0.087456 0
1.063626 0.095752 0
1.055937 0.096660 0
1.042526 0.091861 0
1.023944 0.083314 0
1.001208 0.072661 0
0.975958 0.060709 0
0.950455 0.047317 0
0.927319 0.031836 0
0.908994 0.013207 0
0.897632 -0.000320 0
1.000000 -0.009448 0
0.998323 -0.029637 0
0.994921 -0.053828 0
0.989770 -0.085440 0
0.983314 -0.129580 0
0.977649 -0.194602 0
0.980082 -0.291560 0
1.012492 -0.478647 0
1.203019 -0.462936 0
1.148388 -0.241842 0
1.054940 -0.138956 0
1.002271 -0.098325 0
0.965812 -0.077693 0
0.946823 -0.066732 0
0.951944 -0.051617 0
0.981235 -0.015065 0
1.015425 0.038791 0
1.032805 0.091209 0
1.037120 0.134536 0
1.029295 0.166862 0
1.008909 0.186907 0
0.976058 0.193115 0
0.931128 0.184400 0
0.874768 0.162037 0
0.809330 0.131819 0
0.741204 0.101849 0
0.680494 0.074720 0
0.637105 0.044150 0
0.616076 -0.001203 0
0.616893 -0.063760 0
0.637645 -0.126871 0
0.676267 -0.169120 0
0.730386 -0.178083 0
0.797064 -0.150568 0
0.871589 -0.091941 0
0.944748 -0.017925 0
1.002187 0.049206 0
1.039539 0.099385 0
1.060817 0.135543 0
1.068735 0.160396 0
1.065336 0.175704 0
1.052258 0.182621 0
1.030550 0.182178 0
1.000325 0.175870 0
0.960670 0.166056 0
0.910698 0.155204 0
0.852097 0.143511 0
0.791504 0.126987 0
0.739471 0.099343 0
0.705424 0.056966 0
0.692515 0.002084 0
0.696123 -0.058139 0
0.709412 -0.115074 0
0.728328 -0.161768 0
0.751630 -0.193370 0
0.779524 -0.206336 0
0.812322 -0.198577 0
0.849571 -0.170285 0
0.889821 -0.124516 0
0.930842 -0.066998 0
0.969395 -0.006308 0
1.000428 0.048242 0
1.022273 0.091627 0
1.034820 0.122906 0
1.038373 0.142394 0
1.033321 0.151406 0
1.019926 0.152110 0
0.998346 0.147224 0
0.969078 0.139277 0
0.933785 0.129442 0
0.895937 0.116717 0
0.860439 0.098457 0
0.832072 0.072308 0
0.813778 0.038143 0
0.805984 -0.001502 0
0.806873 -0.042494 0
0.813873 -0.080555 0
0.825013 -0.112220 0
0.839146 -0.134995 0
0.855714 -0.147133 0
0.874420 -0.147564 0
0.894926 -0.136059 0
0.916700 -0.113467 0
0.938999 -0.081826 0
0.960917 -0.044240 0
0.981302 -0.004879 0
0.998208 0.031614 0
1.010402 0.061902 0
1.017132 0.084463 0
1.017906 0.098965 0
1.012474 0.106100 0
1.000938 0.107205 0
0.983930 0.103709 0
0.962798 0.096544 0
0.939615 0.085815 0
0.916907 0.070984 0
0.897152 0.051515 0
0.882276 0.026688 0
0.873811 0.008470 0
1.000000 -0.008010 0
0.996073 -0.025161 0
0.987637 -0.045845 0
0.973361 -0.073284 0
0.950935 -0.112920 0
0.916654 -0.175535 0
0.864872 -0.282524 0
0.791759 -0.567211 0
0.552872 -0.391891 0
0.491344 0.000000 0
0.418594 -0.020514 0
0.351902 -0.037840 0
0.341482 -0.038498 0
0.363768 -0.053593 0
0.394321 -0.071947 0
0.443906 -0.062760 0
0.514019 -0.008487 0
0.578208 0.061077 0
0.620550 0.119095 0
0.643745 0.167365 0
0.643967 0.205409 0
0.620022 0.231612 0
0.572344 0.245281 0
0.504670 0.245607 0
0.426905 0.229728 0
0.356190 0.193645 0
0.311333 0.136173 0
0.303128 0.060476 0
0.328892 -0.025330 0
0.371796 -0.109130 0
0.418176 -0.179619 0
0.465565 -0.227075 0
0.517235 -0.243134 0
0.576967 -0.223784 0
0.646130 -0.171552 0
0.722421 -0.095790 0
0.797104 -0.013690 0
0.856630 0.056342 0
0.898057 0.109138 0
0.923383 0.148447 0
0.933832 0.176611 0
0.930182 0.195420 0
0.912663 0.206888 0
0.881202 0.213397 0
0.836656 0.216656 0
0.783016 0.215529 0
0.728719 0.204831 0
0.684476 0.177747 0
0.658111 0.130963 0
0.650933 0.067791 0
0.658581 -0.003132 0
0.673615 -0.072080 0
0.690179 -0.132529 0
0.706039 -0.181151 0
0.721601 -0.215302 0
0.738801 -0.232159 0
0.759915 -0.229147 0
0.786342 -0.205278 0
0.817842 -0.162439 0
0.852684 -0.105613 0
0.888295 -0.041998 0
0.920703 0.019349 0
0.946055 0.071366 0
0.963097 0.111690 0
0.971248 0.140324 0
0.970191 0.158533 0
0.959804 0.168415 0
0.940483 0.172196 0
0.913771 0.171151 0
0.882883 0.164678 0
0.852406 0.150438 0
0.826964 0.125959 0
0.809575 0.090702 0
0.800907 0.046974 0
0.799769 -0.000798 0
0.804026 -0.047607 0
0.811452 -0.089388 0
0.820549 -0.123488 0
0.830639 -0.148161 0
0.841713 -0.162113 0
0.854136 -0.164386 0
0.868275 -0.154573 0
0.884185 -0.133217 0
0.901473 -0.102076 0
0.919365 -0.064067 0
0.936848 -0.022925 0
0.952416 0.016980 0
0.964418 0.051931 0
0.971796 0.079950 0
0.973835 0.100409 0
0.970182 0.113627 0
0.960989 0.120404 0
0.947080 0.121453 0
0.930001 0.116976 0
0.911834 0.106599 0
0.894754 0.089779 0
0.880545 0.066467 0
0.870281 0.036549 0
0.864531 0.014726 0
1.000000 -0.005526 0
0.994451 -0.017273 0
0.982355 -0.031105 0
0.961334 -0.048723 0
0.926748 -0.072863 0
0.869517 -0.108536 0
0.770218 -0.166667 0
0.586681 -0.264146 0
0.000000 -0.162519 0
0.000000 0.000000 0
0.000000 0.000000 0
-0.031065 -0.031766 0
-0.049773 -0.089564 0
-0.027311 -0.119577 0
-0.018654 -0.131761 0
0.002211 -0.134769 0
0.055205 -0.095516 0
0.138518 -0.015328 0
0.215960 0.068993 0
0.264620 0.143442 0
0.282866 0.210630 0
0.275923 0.264738 0
0.249471 0.299759 0
0.214974 0.307486 0
0.188682 0.280309 0
0.184155 0.217433 0
0.205843 0.127793 0
0.248266 0.026598 0
0.295642 -0.069873 0
0.337467 -0.153052 0
0.370977 -0.220648 0
0.398271 -0.268181 0
0.425287 -0.289484 0
0.459156 -0.279466 0
0.504884 -0.237398 0
0.563031 -0.168902 0
0.629568 -0.085008 0
0.694114 -0.001573 0
0.744725 0.068786 0
0.779052 0.124616 0
0.797106 0.168901 0
0.798935 0.203786 0
0.784976 0.231154 0
0.757110 0.251873 0
0.720118 0.264238 0
0.682270 0.263140 0
0.653294 0.242053 0
0.640103 0.197598 0
0.643670 0.132890 0
0.659739 0.056502 0
0.681619 -0.020591 0
0.702424 -0.089732 0
0.718759 -0.147494 0
0.729551 -0.193188 0
0.735669 -0.226134 0
0.739735 -0.244656 0
0.745491 -0.246123 0
0.756464 -0.228214 0
0.774443 -0.190861 0
0.798807 -0.137455 0
0.827074 -0.074329 0
0.855878 -0.009520 0
0.880638 0.049231 0
0.898736 0.097711 0
0.908869 0.135297 0
0.910348 0.162847 0
0.903152 0.181815 0
0.888324 0.193254 0
0.868361 0.196874 0
0.847065 0.190805 0
0.828551 0.172635 0
0.815834 0.141288 0
0.809948 0.098366 0
0.810147 0.047951 0
0.814757 -0.004619 0
0.821734 -0.054175 0
0.829305 -0.097077 0
0.836292 -0.131407 0
0.842220 -0.156160 0
0.847343 -0.170630 0
0.852515 -0.174127 0
0.858828 -0.166111 0
0.867130 -0.146666 0
0.877647 -0.117006 0
0.889919 -0.079615 0
0.902981 -0.037930 0
0.915556 0.004041 0
0.925969 0.042520 0
0.932981 0.075045 0
0.935792 0.100578 0
0.934068 0.118944 0
0.928060 0.130306 0
0.918668 0.134697 0
0.907342 0.131789 0
0.895773 0.121062 0
0.885459 0.102273 0
0.877368 0.075989 0
0.871836 0.042703 0
0.868725 0.018633 0
1.000000 -0.002462 0
0.993908 -0.007510 0
0.980654 -0.012714 0
0.957762 -0.017664 0
0.920525 -0.021096 0
0.860175 -0.019002 0
0.760100 0.000312 0
0.586914 0.100022 0
0.273130 0.091805 0
0.000000 0.000000 0
0.000000 0.000000 0
0.000000 0.000000 0
-0.033147 -0.043638 0
-0.113590 -0.084719 0
-0.174774 -0.101474 0
-0.197658 -0.136624 0
-0.183276 -0.144800 0
-0.128978 -0.099683 0
-0.050764 -0.007010 0
0.016030 0.100457 0
0.058314 0.194106 0
0.084589 0.265011 0
0.102472 0.306239 0
0.124029 0.306406 0
0.160375 0.260558 0
0.215512 0.176495 0
0.284463 0.072071 0
0.350078 -0.029320 0
0.400074 -0.114535 0
0.433147 -0.184472 0
0.449656 -0.240429 0
0.452292 -0.281385 0
0.447353 -0.304021 0
0.444231 -0.303385 0
0.452462 -0.275429 0
0.477596 -0.220478 0
0.518776 -0.144778 0
0.569495 -0.058820 0
0.617758 0.024196 0
0.654068 0.096061 0
0.676131 0.156723 0
0.683657 0.207546 0
0.678162 0.248709 0
0.663723 0.278252 0
0.647174 0.291494 0
0.636638 0.282354 0
0.638361 0.247001 0
0.653949 0.187375 0
0.680398 0.111332 0
0.712334 0.029849 0
0.742660 -0.045811 0
0.766644 -0.109215 0
0.782380 -0.159653 0
0.789129 -0.198062 0
0.787380 -0.225490 0
0.779316 -0.241986 0
0.768988 -0.245880 0
0.761526 -0.234233 0
0.761310 -0.204785 0
0.770112 -0.158246 0
0.786613 -0.099072 0
0.807463 -0.034217 0
0.828253 0.028505 0
0.845067 0.083456 0
0.855916 0.128709 0
0.859941 0.164247 0
0.857388 0.190437 0
0.849774 0.206984 0
0.839818 0.212408 0
0.830788 0.204487 0
0.825403 0.181669 0
0.824932 0.144563 0
0.829104 0.096390 0
0.836688 0.042167 0
0.846111 -0.012382 0
0.855540 -0.062152 0
0.863526 -0.103945 0
0.869023 -0.136403 0
0.871509 -0.159213 0
0.871187 -0.172410 0
0.869077 -0.175874 0
0.866813 -0.169189 0
0.866107 -0.152035 0
0.868117 -0.124866 0