# vtk DataFile Version 2.0
generated by CFD-lab course output (written by Tobias Neckel) 
ASCII

DATASET STRUCTURED_GRID
DIMENSIONS  99 19 1 
POINTS 1881 float

0.000000 0.000000 0
0.100000 0.000000 0
0.200000 0.000000 0
0.300000 0.000000 0
0.400000 0.000000 0
0.500000 0.000000 0
0.600000 0.000000 0
0.700000 0.000000 0
0.800000 0.000000 0
0.900000 0.000000 0
1.000000 0.000000 0
1.100000 0.000000 0
1.200000 0.000000 0
1.300000 0.000000 0
1.400000 0.000000 0
1.500000 0.000000 0
1.600000 0.000000 0
1.700000 0.000000 0
1.800000 0.000000 0
1.900000 0.000000 0
2.000000 0.000000 0
2.100000 0.000000 0
2.200000 0.000000 0
2.300000 0.000000 0
2.400000 0.000000 0
2.500000 0.000000 0
2.600000 0.000000 0
2.700000 0.000000 0
2.800000 0.000000 0
2.900000 0.000000 0
3.000000 0.000000 0
3.100000 0.000000 0
3.200000 0.000000 0
3.300000 0.000000 0
3.400000 0.000000 0
3.500000 0.000000 0
3.600000 0.000000 0
3.700000 0.000000 0
3.800000 0.000000 0
3.900000 0.000000 0
4.000000 0.000000 0
4.100000 0.000000 0
4.200000 0.000000 0
4.300000 0.000000 0
4.400000 0.000000 0
4.500000 0.000000 0
4.600000 0.000000 0
4.700000 0.000000 0
4.800000 0.000000 0
4.900000 0.000000 0
5.000000 0.000000 0
5.100000 0.000000 0
5.200000 0.000000 0
5.300000 0.000000 0
5.400000 0.000000 0
5.500000 0.000000 0
5.600000 0.000000 0
5.700000 0.000000 0
5.800000 0.000000 0
5.900000 0.000000 0
6.000000 0.000000 0
6.100000 0.000000 0
6.200000 0.000000 0
6.300000 0.000000 0
6.400000 0.000000 0
6.500000 0.000000 0
6.600000 0.000000 0
6.700000 0.000000 0
6.800000 0.000000 0
6.900000 0.000000 0
7.000000 0.000000 0
7.100000 0.000000 0
7.200000 0.000000 0
7.300000 0.000000 0
7.400000 0.000000 0
7.500000 0.000000 0
7.600000 0.000000 0
7.700000 0.000000 0
7.800000 0.000000 0
7.900000 0.000000 0
8.000000 0.000000 0
8.100000 0.000000 0
8.200000 0.000000 0
8.300000 0.000000 0
8.400000 0.000000 0
8.500000 0.000000 0
8.600000 0.000000 0
8.700000 0.000000 0
8.800000 0.000000 0
8.900000 0.000000 0
9.000000 0.000000 0
9.100000 0.000000 0
9.200000 0.000000 0
9.300000 0.000000 0
9.400000 0.000000 0
9.500000 0.000000 0
9.600000 0.000000 0
9.700000 0.000000 0
9.800000 0.000000 0
0.000000 0.100000 0
0.100000 0.100000 0
0.200000 0.100000 0
0.300000 0.100000 0
0.400000 0.100000 0
0.500000 0.100000 0
0.600000 0.100000 0
0.700000 0.100000 0
0.800000 0.100000 0
0.900000 0.100000 0
1.000000 0.100000 0
1.100000 0.100000 0
1.200000 0.100000 0
1.300000 0.100000 0
1.400000 0.100000 0
1.500000 0.100000 0
1.600000 0.100000 0
1.700000 0.100000 0
1.800000 0.100000 0
1.900000 0.100000 0
2.000000 0.100000 0
2.100000 0.100000 0
2.200000 0.100000 0
2.300000 0.100000 0
2.400000 0.100000 0
2.500000 0.100000 0
2.600000 0.100000 0
2.700000 0.100000 0
2.800000 0.100000 0
2.900000 0.100000 0
3.000000 0.100000 0
3.100000 0.100000 0
3.200000 0.100000 0
3.300000 0.100000 0
3.400000 0.100000 0
3.500000 0.100000 0
3.600000 0.100000 0
3.700000 0.100000 0
3.800000 0.100000 0
3.900000 0.100000 0
4.000000 0.100000 0
4.100000 0.100000 0
4.200000 0.100000 0
4.300000 0.100000 0
4.400000 0.100000 0
4.500000 0.100000 0
4.600000 0.100000 0
4.700000 0.100000 0
4.800000 0.100000 0
4.900000 0.100000 0
5.000000 0.100000 0
5.100000 0.100000 0
5.200000 0.100000 0
5.300000 0.100000 0
5.400000 0.100000 0
5.500000 0.100000 0
5.600000 0.100000 0
5.700000 0.100000 0
5.800000 0.100000 0
5.900000 0.100000 0
6.000000 0.100000 0
6.100000 0.100000 0
6.200000 0.100000 0
6.300000 0.100000 0
6.400000 0.100000 0
6.500000 0.100000 0
6.600000 0.100000 0
6.700000 0.100000 0
6.800000 0.100000 0
6.900000 0.100000 0
7.000000 0.100000 0
7.100000 0.100000 0
7.200000 0.100000 0
7.300000 0.100000 0
7.400000 0.100000 0
7.500000 0.100000 0
7.600000 0.100000 0
7.700000 0.100000 0
7.800000 0.100000 0
7.900000 0.100000 0
8.000000 0.100000 0
8.100000 0.100000 0
8.200000 0.100000 0
8.300000 0.100000 0
8.400000 0.100000 0
8.500000 0.100000 0
8.600000 0.100000 0
8.700000 0.100000 0
8.800000 0.100000 0
8.900000 0.100000 0
9.000000 0.100000 0
9.100000 0.100000 0
9.200000 0.100000 0
9.300000 0.100000 0
9.400000 0.100000 0
9.500000 0.100000 0
9.600000 0.100000 0
9.700000 0.100000 0
9.800000 0.100000 0
0.000000 0.200000 0
0.100000 0.200000 0
0.200000 0.200000 0
0.300000 0.200000 0
0.400000 0.200000 0
0.500000 0.200000 0
0.600000 0.200000 0
0.700000 0.200000 0
0.800000 0.200000 0
0.900000 0.200000 0
1.000000 0.200000 0
1.100000 0.200000 0
1.200000 0.200000 0
1.300000 0.200000 0
1.400000 0.200000 0
1.500000 0.200000 0
1.600000 0.200000 0
1.700000 0.200000 0
1.800000 0.200000 0
1.900000 0.200000 0
2.000000 0.200000 0
2.100000 0.200000 0
2.200000 0.200000 0
2.300000 0.200000 0
2.400000 0.200000 0
2.500000 0.200000 0
2.600000 0.200000 0
2.700000 0.200000 0
2.800000 0.200000 0
2.900000 0.200000 0
3.000000 0.200000 0
3.100000 0.200000 0
3.200000 0.200000 0
3.300000 0.200000 0
3.400000 0.200000 0
3.500000 0.200000 0
3.600000 0.200000 0
3.700000 0.200000 0
3.800000 0.200000 0
3.900000 0.200000 0
4.000000 0.200000 0
4.100000 0.200000 0
4.200000 0.200000 0
4.300000 0.200000 0
4.400000 0.200000 0
4.500000 0.200000 0
4.600000 0.200000 0
4.700000 0.200000 0
4.800000 0.200000 0
4.900000 0.200000 0
5.000000 0.200000 0
5.100000 0.200000 0
5.200000 0.200000 0
5.300000 0.200000 0
5.400000 0.200000 0
5.500000 0.200000 0
5.600000 0.200000 0
5.700000 0.200000 0
5.800000 0.200000 0
5.900000 0.200000 0
6.000000 0.200000 0
6.100000 0.200000 0
6.200000 0.200000 0
6.300000 0.200000 0
6.400000 0.200000 0
6.500000 0.200000 0
6.600000 0.200000 0
6.700000 0.200000 0
6.800000 0.200000 0
6.900000 0.200000 0
7.000000 0.200000 0
7.100000 0.200000 0
7.200000 0.200000 0
7.300000 0.200000 0
7.400000 0.200000 0
7.500000 0.200000 0
7.600000 0.200000 0
7.700000 0.200000 0
7.800000 0.200000 0
7.900000 0.200000 0
8.000000 0.200000 0
8.100000 0.200000 0
8.200000 0.200000 0
8.300000 0.200000 0
8.400000 0.200000 0
8.500000 0.200000 0
8.600000 0.200000 0
8.700000 0.200000 0
8.800000 0.200000 0
8.900000 0.200000 0
9.000000 0.200000 0
9.100000 0.200000 0
9.200000 0.200000 0
9.300000 0.200000 0
9.400000 0.200000 0
9.500000 0.200000 0
9.600000 0.200000 0
9.700000 0.200000 0
9.800000 0.200000 0
0.000000 0.300000 0
0.100000 0.300000 0
0.200000 0.300000 0
0.300000 0.300000 0
0.400000 0.300000 0
0.500000 0.300000 0
0.600000 0.300000 0
0.700000 0.300000 0
0.800000 0.300000 0
0.900000 0.300000 0
1.000000 0.300000 0
1.100000 0.300000 0
1.200000 0.300000 0
1.300000 0.300000 0
1.400000 0.300000 0
1.500000 0.300000 0
1.600000 0.300000 0
1.700000 0.300000 0
1.800000 0.300000 0
1.900000 0.300000 0
2.000000 0.300000 0
2.100000 0.300000 0
2.200000 0.300000 0
2.300000 0.300000 0
2.400000 0.300000 0
2.500000 0.300000 0
2.600000 0.300000 0
2.700000 0.300000 0
2.800000 0.300000 0
2.900000 0.300000 0
3.000000 0.300000 0
3.100000 0.300000 0
3.200000 0.300000 0
3.300000 0.300000 0
3.400000 0.300000 0
3.500000 0.300000 0
3.600000 0.300000 0
3.700000 0.300000 0
3.800000 0.300000 0
3.900000 0.300000 0
4.000000 0.300000 0
4.100000 0.300000 0
4.200000 0.300000 0
4.300000 0.300000 0
4.400000 0.300000 0
4.500000 0.300000 0
4.600000 0.300000 0
4.700000 0.300000 0
4.800000 0.300000 0
4.900000 0.300000 0
5.000000 0.300000 0
5.100000 0.300000 0
5.200000 0.300000 0
5.300000 0.300000 0
5.400000 0.300000 0
5.500000 0.300000 0
5.600000 0.300000 0
5.700000 0.300000 0
5.800000 0.300000 0
5.900000 0.300000 0
6.000000 0.300000 0
6.100000 0.300000 0
6.200000 0.300000 0
6.300000 0.300000 0
6.400000 0.300000 0
6.500000 0.300000 0
6.600000 0.300000 0
6.700000 0.300000 0
6.800000 0.300000 0
6.900000 0.300000 0
7.000000 0.300000 0
7.100000 0.300000 0
7.200000 0.300000 0
7.300000 0.300000 0
7.400000 0.300000 0
7.500000 0.300000 0
7.600000 0.300000 0
7.700000 0.300000 0
7.800000 0.300000 0
7.900000 0.300000 0
8.000000 0.300000 0
8.100000 0.300000 0
8.200000 0.300000 0
8.300000 0.300000 0
8.400000 0.300000 0
8.500000 0.300000 0
8.600000 0.300000 0
8.700000 0.300000 0
8.800000 0.300000 0
8.900000 0.300000 0
9.000000 0.300000 0
9.100000 0.300000 0
9.200000 0.300000 0
9.300000 0.300000 0
9.400000 0.300000 0
9.500000 0.300000 0
9.600000 0.300000 0
9.700000 0.300000 0
9.800000 0.300000 0
0.000000 0.400000 0
0.100000 0.400000 0
0.200000 0.400000 0
0.300000 0.400000 0
0.400000 0.400000 0
0.500000 0.400000 0
0.600000 0.400000 0
0.700000 0.400000 0
0.800000 0.400000 0
0.900000 0.400000 0
1.000000 0.400000 0
1.100000 0.400000 0
1.200000 0.400000 0
1.300000 0.400000 0
1.400000 0.400000 0
1.500000 0.400000 0
1.600000 0.400000 0
1.700000 0.400000 0
1.800000 0.400000 0
1.900000 0.400000 0
2.000000 0.400000 0
2.100000 0.400000 0
2.200000 0.400000 0
2.300000 0.400000 0
2.400000 0.400000 0
2.500000 0.400000 0
2.600000 0.400000 0
2.700000 0.400000 0
2.800000 0.400000 0
2.900000 0.400000 0
3.000000 0.400000 0
3.100000 0.400000 0
3.200000 0.400000 0
3.300000 0.400000 0
3.400000 0.400000 0
3.500000 0.400000 0
3.600000 0.400000 0
3.700000 0.400000 0
3.800000 0.400000 0
3.900000 0.400000 0
4.000000 0.400000 0
4.100000 0.400000 0
4.200000 0.400000 0
4.300000 0.400000 0
4.400000 0.400000 0
4.500000 0.400000 0
4.600000 0.400000 0
4.700000 0.400000 0
4.800000 0.400000 0
4.900000 0.400000 0
5.000000 0.400000 0
5.100000 0.400000 0
5.200000 0.400000 0
5.300000 0.400000 0
5.400000 0.400000 0
5.500000 0.400000 0
5.600000 0.400000 0
5.700000 0.400000 0
5.800000 0.400000 0
5.900000 0.400000 0
6.000000 0.400000 0
6.100000 0.400000 0
6.200000 0.400000 0
6.300000 0.400000 0
6.400000 0.400000 0
6.500000 0.400000 0
6.600000 0.400000 0
6.700000 0.400000 0
6.800000 0.400000 0
6.900000 0.400000 0
7.000000 0.400000 0
7.100000 0.400000 0
7.200000 0.400000 0
7.300000 0.400000 0
7.400000 0.400000 0
7.500000 0.400000 0
7.600000 0.400000 0
7.700000 0.400000 0
7.800000 0.400000 0
7.900000 0.400000 0
8.000000 0.400000 0
8.100000 0.400000 0
8.200000 0.400000 0
8.300000 0.400000 0
8.400000 0.400000 0
8.500000 0.400000 0
8.600000 0.400000 0
8.700000 0.400000 0
8.800000 0.400000 0
8.900000 0.400000 0
9.000000 0.400000 0
9.100000 0.400000 0
9.200000 0.400000 0
9.300000 0.400000 0
9.400000 0.400000 0
[...]
POINT_DATA 1881 

VECTORS velocity float
0.500000 0.000000 0
0.502166 0.000000 0
0.507026 0.000000 0
0.514996 0.000000 0
0.526500 0.000000 0
0.541856 0.000000 0
0.561069 0.000000 0
0.583524 0.000000 0
0.607743 0.000000 0
0.631299 0.000000 0
0.652081 0.000000 0
0.668910 0.000000 0
0.681373 0.000000 0
0.689404 0.000000 0
0.693123 0.000000 0
0.692775 0.000000 0
0.688746 0.000000 0
0.681572 0.000000 0
0.671963 0.000000 0
0.660774 0.000000 0
0.648956 0.000000 0
0.637494 0.000000 0
0.627334 0.000000 0
0.619320 0.000000 0
0.614158 0.000000 0
0.612386 0.000000 0
0.614261 0.000000 0
0.619453 0.000000 0
0.626926 0.000000 0
0.635016 0.000000 0
0.641823 0.000000 0
0.645772 0.000000 0
0.646013 0.000000 0
0.642310 0.000000 0
0.634869 0.000000 0
0.624204 0.000000 0
0.610979 0.000000 0
0.595922 0.000000 0
0.579772 0.000000 0
0.563258 0.000000 0
0.547104 0.000000 0
0.532033 0.000000 0
0.518788 0.000000 0
0.508153 0.000000 0
0.500992 0.000000 0
0.498199 0.000000 0
0.500382 0.000000 0
0.507629 0.000000 0
0.519621 0.000000 0
0.535620 0.000000 0
0.554452 0.000000 0
0.574509 0.000000 0
0.593786 0.000000 0
0.610056 0.000000 0
0.621290 0.000000 0
0.626274 0.000000 0
0.624920 0.000000 0
0.617709 0.000000 0
0.605437 0.000000 0
0.589165 0.000000 0
0.570123 0.000000 0
0.549621 0.000000 0
0.528966 0.000000 0
0.509410 0.000000 0
0.492123 0.000000 0
0.478154 0.000000 0
0.468368 0.000000 0
0.463321 0.000000 0
0.463058 0.000000 0
0.466915 0.000000 0
0.474076 0.000000 0
0.483857 0.000000 0
0.495741 0.000000 0
0.509332 0.000000 0
0.524250 0.000000 0
0.539983 0.000000 0
0.555755 0.000000 0
0.570441 0.000000 0
0.582638 0.000000 0
0.590916 0.000000 0
0.594247 0.000000 0
0.592295 0.000000 0
0.585154 0.000000 0
0.573199 0.000000 0
0.557168 0.000000 0
0.538193 0.000000 0
0.517806 0.000000 0
0.497851 0.000000 0
0.480260 0.000000 0
0.466708 0.000000 0
0.458258 0.000000 0
0.455135 0.000000 0
0.456613 0.000000 0
0.461406 0.000000 0
0.468452 0.000000 0
0.477050 0.000000 0
0.486839 0.000000 0
0.497748 0.000000 0
0.510067 0.000000 0
1.000000 -0.002188 0
1.004889 -0.007060 0
1.015232 -0.012854 0
1.031788 -0.019495 0
1.055488 -0.026873 0
1.087170 -0.034568 0
1.127133 -0.041650 0
1.174374 -0.046652 0
1.226024 -0.047759 0
1.275935 -0.044330 0
1.319336 -0.037616 0
1.354119 -0.029288 0
1.379821 -0.020484 0
1.396579 -0.011749 0
1.404664 -0.003372 0
1.404515 0.004372 0
1.396847 0.011195 0
1.382727 0.016771 0
1.363601 0.020784 0
1.341233 0.022990 0
1.317589 0.023261 0
1.294706 0.021602 0
1.274536 0.018154 0
1.258807 0.013158 0
1.248936 0.006918 0
1.246013 -0.000111 0
1.250615 -0.007064 0
1.262319 -0.012655 0
1.279178 -0.015546 0
1.297739 -0.014875 0
1.313840 -0.010734 0
1.323883 -0.004171 0
1.325862 0.003473 0
1.319394 0.011145 0
1.305099 0.018107 0
1.284171 0.023893 0
1.258066 0.028282 0
1.228309 0.031206 0
1.196405 0.032661 0
1.163821 0.032663 0
1.131999 0.031219 0
1.102369 0.028309 0
1.076363 0.023871 0
1.055396 0.017785 0
1.040805 0.009943 0
1.033758 0.000599 0
1.035169 -0.009441 0
1.045554 -0.019251 0
1.064816 -0.028001 0
1.092093 -0.034838 0
1.125741 -0.038892 0
1.163340 -0.039334 0
1.201640 -0.035543 0
1.236629 -0.027497 0
1.263989 -0.016210 0
1.280035 -0.003621 0
1.282922 0.008572 0
1.273284 0.019487 0
1.252841 0.028545 0
1.223846 0.035312 0
1.188857 0.039539 0
1.150550 0.041151 0
1.111562 0.040204 0
1.074371 0.036835 0
1.041185 0.031248 0
1.013802 0.023747 0
0.993439 0.014825 0
0.980584 0.005301 0
0.975033 -0.003602 0
0.976150 -0.011027 0
0.983039 -0.016950 0
0.994888 -0.021673 0
1.011095 -0.025485 0
1.031253 -0.028517 0
1.055004 -0.030658 0
1.081768 -0.031510 0
1.110438 -0.030461 0
1.139201 -0.026885 0
1.165571 -0.020476 0
1.186636 -0.011609 0
1.199556 -0.001380 0
1.202340 0.009090 0
1.194730 0.019092 0
1.177572 0.027981 0
1.152417 0.034999 0
1.121493 0.039353 0
1.087595 0.040334 0
1.053857 0.037538 0
1.023334 0.031135 0
0.998487 0.021994 0
0.980731 0.011566 0
0.970303 0.001638 0
0.966573 -0.006278 0
0.968450 -0.011844 0
0.974686 -0.015648 0
0.984321 -0.018390 0
0.996818 -0.020700 0
1.012052 -0.023229 0
1.030415 -0.024558 0
1.000000 -0.004923 0
1.005040 -0.015280 0
1.015372 -0.026926 0
1.031800 -0.040275 0
1.055584 -0.055386 0
1.088226 -0.071630 0
1.131022 -0.087178 0
1.183916 -0.098869 0
1.245083 -0.101551 0
1.302351 -0.093317 0
1.349330 -0.078185 0
1.385279 -0.060473 0
1.411277 -0.042452 0
1.428263 -0.024843 0
1.436511 -0.007941 0
1.436241 0.007809 0
1.428008 0.021776 0
1.412837 0.033230 0
1.392250 0.041476 0
1.368151 0.045991 0
1.342687 0.046503 0
1.318081 0.043029 0
1.296446 0.035877 0
1.279600 0.025579 0
1.268973 0.012783 0
1.265748 -0.001677 0
1.270990 -0.016296 0
1.284930 -0.028542 0
1.305899 -0.035394 0
1.330027 -0.034635 0
1.352037 -0.026121 0
1.366922 -0.012009 0
1.371887 0.004491 0
1.366953 0.020763 0
1.353350 0.035225 0
1.332742 0.047035 0
1.306877 0.055862 0
1.277398 0.061659 0
1.245811 0.064483 0
1.213518 0.064400 0
1.181853 0.061443 0
1.152109 0.055625 0
1.125516 0.046961 0
1.103175 0.035545 0
1.085933 0.021624 0
1.074326 0.005623 0
1.068836 -0.011809 0
1.070132 -0.029660 0
1.078683 -0.046549 0
1.094592 -0.060930 0
1.117657 -0.071247 0
1.147293 -0.075895 0
1.182046 -0.073281 0
1.219146 -0.062339 0
1.254409 -0.043395 0
1.282670 -0.018924 0
1.299109 0.006757 0
1.301871 0.030082 0
1.292495 0.049434 0
1.273255 0.063978 0
1.246716 0.073288 0
1.215516 0.077286 0
1.182205 0.076169 0
1.149092 0.070367 0
1.118098 0.060560 0
1.090606 0.047736 0
1.067360 0.033208 0
1.048486 0.018396 0
1.033764 0.004424 0
1.023094 -0.008018 0
1.016349 -0.018750 0
1.013526 -0.028067 0
1.014922 -0.036375 0
1.021078 -0.043917 0
1.032607 -0.050522 0
1.049768 -0.055438 0
1.072090 -0.057436 0
1.098258 -0.055134 0
1.126207 -0.047435 0
1.153259 -0.033987 0
1.176259 -0.015707 0
1.192008 0.004822 0
1.198503 0.024762 0
1.196000 0.042304 0
1.185706 0.056069 0
1.169374 0.064811 0
1.149048 0.067625 0
1.126771 0.064251 0
1.104310 0.055360 0
1.082981 0.042594 0
1.063613 0.028175 0
1.046675 0.014149 0
1.032597 0.001846 0
1.021792 -0.008118 0
1.014312 -0.015876 0
1.010112 -0.022136 0
1.009294 -0.027733 0
1.012047 -0.033597 0
1.018567 -0.037151 0
1.000000 -0.007251 0
1.004058 -0.022457 0
1.012662 -0.039616 0
1.026861 -0.059700 0
1.048450 -0.083279 0
1.080057 -0.109984 0
1.125008 -0.137330 0
1.185725 -0.160716 0
1.266145 -0.166210 0
1.333593 -0.148587 0
1.381450 -0.120529 0
1.414522 -0.091227 0
1.437584 -0.063472 0
1.452907 -0.036985 0
1.460276 -0.011357 0
1.458826 0.012867 0
1.448544 0.034591 0
1.430348 0.052521 0
1.405913 0.065460 0
1.377403 0.072543 0
1.347271 0.073323 0
1.318088 0.067837 0
1.292287 0.056630 0
1.271845 0.040633 0
1.258044 0.020783 0
1.251711 -0.002111 0
1.254296 -0.026230 0
1.267318 -0.047545 0
1.290110 -0.060629 0
1.319323 -0.061009 0
1.349211 -0.047632 0
1.372626 -0.024034 0
1.383765 0.003431 0
1.381815 0.029682 0
1.369259 0.052318 0
1.348750 0.070364 0
1.322624 0.083624 0
1.292768 0.092268 0
1.260701 0.096536 0
1.227715 0.096617 0
1.194974 0.092623 0
1.163565 0.084641 0
1.134501 0.072800 0
1.108655 0.057362 0
1.086638 0.038787 0
1.068620 0.017692 0
1.054254 -0.005252 0
1.043209 -0.029099 0
1.036310 -0.052459 0
1.035280 -0.073807 0
1.042236 -0.091586 0
1.058948 -0.103715 0
1.085615 -0.107389 0
1.120420 -0.099854 0
1.159739 -0.079731 0
1.198528 -0.048323 0
1.230808 -0.010633 0
1.250954 0.026094 0
1.257761 0.057153 0
1.253114 0.081085 0
1.239296 0.097274 0
1.218705 0.105657 0
1.193652 0.106623 0
1.166210 0.100938 0
1.138104 0.089731 0
1.110636 0.074482 0
1.084676 0.056941 0
1.060675 0.038893 0
1.038680 0.021785 0
1.018432 0.006383 0
0.999866 -0.007387 0
0.983538 -0.020250 0
0.971064 -0.033039 0
0.964665 -0.046202 0
0.966063 -0.059347 0
0.975790 -0.070992 0
0.993114 -0.078950 0
1.016408 -0.081002 0
1.043585 -0.075477 0
1.072382 -0.061663 0
1.100466 -0.040133 0
1.125306 -0.013158 0
1.143994 0.015095 0
1.154941 0.040771 0
1.158455 0.061619 0
1.155405 0.076006 0
1.146920 0.082933 0
1.134146 0.082272 0
1.118118 0.074921 0
1.099780 0.062688 0
1.080062 0.047869 0
1.059896 0.032651 0
1.040077 0.018603 0
1.021266 0.006440 0
1.004212 -0.003968 0
0.989725 -0.013372 0
0.978787 -0.022635 0
0.972410 -0.032501 0
0.971210 -0.038987 0
1.000000 -0.008999 0
1.002641 -0.027961 0
1.008449 -0.049726 0
1.018582 -0.076049 0
1.035258 -0.108562 0
1.062379 -0.148175 0
1.106429 -0.192847 0
1.175365 -0.240017 0
1.292868 -0.249426 0
1.364837 -0.208608 0
1.400455 -0.159102 0
1.420090 -0.116609 0
1.433860 -0.080841 0
1.445464 -0.047541 0
1.453144 -0.013867 0
1.452206 0.019532 0
1.440941 0.050246 0
1.420142 0.075853 0
1.391768 0.094412 0
1.358271 0.104625 0
1.322431 0.105813 0
1.287270 0.098010 0
1.255764 0.082120 0
1.230173 0.059834 0
1.211250 0.032932 0
1.198247 0.002085 0
1.190643 -0.031885 0
1.192070 -0.064344 0
1.205351 -0.087393 0
1.230877 -0.093737 0
1.265821 -0.079435 0
1.302884 -0.046576 0
1.331384 -0.004697 0
1.342874 0.035272 0
1.339278 0.068288 0
1.324986 0.093667 0
1.303309 0.111841 0
1.276613 0.123578 0
1.246616 0.129531 0
1.214663 0.130122 0
1.181901 0.125588 0
1.149359 0.116092 0
1.117952 0.101867 0
1.088365 0.083403 0
1.060765 0.061655 0
1.034380 0.038003 0
1.007595 0.013599 0
0.979358 -0.011715 0
0.951580 -0.038616 0
0.930347 -0.066851 0
0.921870 -0.094908 0
0.928650 -0.119266 0
0.949759 -0.134748 0
0.982440 -0.136459 0
1.023112 -0.121504 0
1.067670 -0.089997 0
1.111365 -0.045676 0
1.148329 0.003121 0
1.173041 0.047269 0
1.185330 0.082439 0
1.186829 0.107693 0
1.179459 0.122926 0
1.165176 0.128660 0
1.145805 0.125912 0
1.122922 0.116130 0
1.097755 0.101161 0
1.071072 0.083165 0
1.043127 0.064387 0
1.013876 0.046662 0
0.983608 0.030792 0
0.953709 0.016140 0
0.926834 0.000733 0
0.906159 -0.017502 0
0.894473 -0.038917 0
0.893044 -0.061647 0
0.901257 -0.082488 0
0.917416 -0.098052 0
0.939519 -0.105605 0
0.965618 -0.103411 0
0.993920 -0.090871 0
1.022775 -0.068635 0
1.050567 -0.038712 0
1.075365 -0.004880 0
1.094601 0.027837 0
1.107317 0.055600 0
1.113549 0.076342 0
1.113647 0.088880 0
1.108090 0.093048 0
1.097416 0.089722 0
1.082232 0.080647 0
1.063256 0.068056 0
1.041347 0.054132 0
1.017556 0.040474 0
0.993235 0.027745 0
0.970112 0.015664 0
0.950123 0.003289 0
0.934993 -0.010417 0
0.925935 -0.026019 0
0.923813 -0.036796 0
1.000000 -0.009905 0
1.000705 -0.030918 0
1.002469 -0.055547 0
1.006160 -0.086491 0
1.013759 -0.127062 0
1.029611 -0.181151 0
1.063144 -0.250321 0
1.131804 -0.347162 0
1.306077 -0.355672 0
1.348635 -0.256160 0
1.340333 -0.175783 0
1.328618 -0.124638 0
1.322634 -0.088852 0
1.326387 -0.056275 0
1.337597 -0.018107 0
1.343785 0.025063 0
1.337345 0.066649 0
1.319282 0.101688 0
1.291805 0.127324 0
1.257219 0.141875 0
1.218102 0.144322 0
1.177693 0.134503 0
1.139699 0.113735 0
1.106750 0.085160 0
1.078141 0.052723 0
1.050382 0.018511 0
1.021345 -0.020040 0
0.994989 -0.062246 0
0.984442 -0.099436 0
0.997533 -0.121486 0
1.033283 -0.119652 0
1.084721 -0.089600 0
1.140306 -0.036554 0
1.185250 0.021787 0
1.209891 0.070203 0
1.218218 0.106330 0
1.214750 0.131994 0
1.202398 0.148956 0
1.183256 0.158482 0
1.159001 0.161327 0
1.131045 0.157922 0
1.100482 0.148584 0
1.067750 0.133789 0
1.032139 0.114546 0
0.991879 0.092769 0
0.945838 0.070859 0
0.896232 0.049772 0
0.849338 0.026919 0
0.812529 -0.003443 0
0.791170 -0.044091 0
0.786942 -0.089883 0
0.797758 -0.131598 0
0.820593 -0.161175 0
0.852854 -0.173207 0
0.892299 -0.164965 0
0.936570 -0.136582 0
0.982882 -0.091299 0
1.027702 -0.035587 0
1.065434 0.020148 0
1.091867 0.067293 0
1.107274 0.103141 0
1.112690 0.127307 0
1.109420 0.140274 0
1.098779 0.143189 0
1.081882 0.137776 0
1.059457 0.126328 0
1.031789 0.111565 0
0.999037 0.096083 0
0.962076 0.081299 0
0.923412 0.066547 0
0.887297 0.049384 0
0.858475 0.027298 0
0.840128 -0.000678 0
0.832888 -0.033087 0
0.835475 -0.066130 0
0.845798 -0.095363 0
0.861923 -0.117212 0
0.882352 -0.129204 0
0.905907 -0.129881 0
0.931536 -0.118824 0
0.958193 -0.096785 0
0.984803 -0.065754 0
1.010194 -0.028945 0
1.032569 0.008815 0
1.049872 0.042666 0
1.061397 0.069672 0
1.066841 0.088387 0
1.066121 0.098499 0
1.059301 0.100776 0
1.046602 0.096845 0
1.028494 0.088751 0
1.005864 0.078349 0
0.980207 0.066713 0
0.953701 0.053882 0
0.928986 0.039143 0
0.908649 0.021748 0
0.894525 0.001553 0
0.887281 -0.021321 0
0.887190 -0.036984 0
1.000000 -0.009712 0
0.998391 -0.030434 0
0.995127 -0.055168 0
0.990190 -0.087322 0
0.984035 -0.132003 0
0.978791 -0.197561 0
0.981835 -0.295045 0
1.015199 -0.482946 0
1.207354 -0.466246 0
1.152610 -0.242863 0
1.059427 -0.139089 0
1.007358 -0.098914 0
0.974644 -0.078616 0
0.966404 -0.062509 0
0.985101 -0.031271 0
1.016091 0.019780 0
1.032588 0.074743 0
1.034727 0.121386 0
1.024087 0.156470 0
1.000637 0.178324 0
0.964321 0.185336 0
0.915509 0.176419 0
0.855361 0.153076 0
0.787631 0.121404 0
0.720603 0.089314 0
0.665386 0.058893 0
0.631073 0.023515 0
0.620139 -0.027438 0
0.631260 -0.089941 0
0.662648 -0.142590 0
0.712023 -0.166630 0
0.776356 -0.153595 0
0.851026 -0.105225 0
0.927552 -0.034315 0
0.991004 0.035317 0
1.033088 0.088803 0
1.057873 0.127657 0
1.068667 0.155067 0
1.067713 0.172922 0
1.056765 0.182328 0
1.037066 0.184103 0
1.009025 0.179384 0
0.971940 0.170205 0
0.924563 0.159269 0
0.867235 0.147953 0
0.804773 0.133651 0
0.747038 0.110102 0
0.704993 0.071993 0
0.684680 0.019557 0
0.683706 -0.041258 0
0.694896 -0.101489 0
0.712999 -0.152913 0
0.736001 -0.189842 0
0.763863 -0.208167 0
0.796991 -0.205226 0
0.835139 -0.180587 0
0.876979 -0.136812 0
0.920243 -0.079434 0
0.961720 -0.016900 0
0.995936 0.040596 0
1.020473 0.086867 0
1.035220 0.120777 0
1.040559 0.142568 0
1.036999 0.153446 0
1.024918 0.155448 0
1.004490 0.151250 0
0.976011 0.143580 0
0.940720 0.134095 0
0.901677 0.122283 0
0.863753 0.105568 0
0.832235 0.081075 0
0.810833 0.047901 0
0.800601 0.008085 0
0.800004 -0.034262 0
0.806249 -0.074556 0
0.817046 -0.108936 0
0.831041 -0.134606 0
0.847594 -0.149591 0
0.866416 -0.152599 0
0.887221 -0.143163 0
0.909519 -0.121908 0
0.932573 -0.090718 0
0.955456 -0.052650 0
0.977047 -0.011845 0
0.995362 0.026768 0
1.008962 0.059368 0
1.017042 0.084152 0
1.019078 0.100584 0
1.014778 0.109237 0
1.004153 0.111451 0
0.987701 0.108792 0
0.966616 0.102417 0
0.942878 0.092635 0
0.919045 0.078964 0
0.897739 0.060715 0
0.881044 0.037750 0
0.870142 0.010951 0
0.865236 -0.018683 0
0.865997 -0.038553 0
1.000000 -0.008301 0
0.996119 -0.026041 0
0.987771 -0.047331 0
0.973629 -0.075386 0
0.951388 -0.115657 0
0.917376 -0.178953 0
0.865996 -0.286731 0
0.793579 -0.572675 0
0.554801 -0.395035 0
0.492934 0.000000 0
0.420173 -0.020341 0
0.353469 -0.039860 0
0.348745 -0.047903 0
0.382663 -0.066737 0
0.429970 -0.067800 0
0.492915 -0.022429 0
0.553500 0.048008 0
0.592043 0.110183 0
0.610543 0.161411 0
0.606361 0.201640 0
0.577250 0.229452 0
0.524322 0.243474 0
0.453329 0.241626 0
0.376722 0.219931 0
0.312780 0.174981 0
0.279040 0.108051 0
0.283417 0.025211 0
0.318390 -0.062436 0
0.365920 -0.141953 0
0.416799 -0.202257 0
0.471155 -0.233359 0
0.532453 -0.228601 0
0.603094 -0.187753 0
0.682108 -0.118193 0
0.762735 -0.035336 0
0.830209 0.039456 0
0.877941 0.096410 0
0.908504 0.139112 0
0.923478 0.170378 0
0.923849 0.191969 0
0.910009 0.205658 0
0.881849 0.213706 0
0.839683 0.218247 0
0.786351 0.219248 0
0.729236 0.212558 0
0.679325 0.191059 0
0.646351 0.149555 0
0.633866 0.089282 0
0.638686 0.017850 0
0.653510 -0.054301 0
0.670976 -0.119171 0
0.687843 -0.172701 0
0.704051 -0.212040 0
0.721451 -0.234201 0
0.742550 -0.236248 0
0.769175 -0.216575 0
0.801488 -0.176405 0
0.837921 -0.120332 0
0.875825 -0.055550 0
0.911295 0.008537 0
0.939620 0.063854 0
0.959318 0.107218 0
0.969790 0.138491 0
0.970746 0.158825 0
0.962042 0.170281 0
0.943906 0.175231 0
0.917560 0.175331 0
0.885910 0.170413 0
0.853544 0.158262 0
0.825535 0.135987 0
0.805610 0.102304 0
0.794995 0.058932 0
0.792685 0.010152 0
0.796484 -0.038734 0
0.803886 -0.083172 0
0.813112 -0.120156 0
0.823306 -0.147761 0
0.834386 -0.164581 0
0.846748 -0.169512 0
0.860867 -0.161934 0
0.876922 -0.142142 0
0.894602 -0.111696 0
0.913157 -0.073424 0
0.931550 -0.031095 0
0.948340 0.010747 0
0.961683 0.047988 0
0.970420 0.078268 0
0.973757 0.100759 0
0.971247 0.115696 0
0.962914 0.123918 0
0.949441 0.126286 0
0.932281 0.123170 0
0.913526 0.114282 0
0.895495 0.099019 0
0.880171 0.077143 0
0.868802 0.049345 0
0.861814 0.017362 0
0.859001 -0.017176 0
0.859738 -0.039989 0
1.000000 -0.005829 0
0.994470 -0.018195 0
0.982401 -0.032663 0
0.961417 -0.050930 0
0.926867 -0.075748 0
0.869690 -0.112170 0
0.770448 -0.171246 0
0.586839 -0.269789 0
0.000000 -0.165599 0
0.000000 0.000000 0
0.000000 0.000000 0
-0.030908 -0.038058 0
-0.050733 -0.107816 0
-0.018940 -0.143739 0
-0.001293 -0.141526 0
0.032322 -0.103755 0
0.096710 -0.024389 0
0.163343 0.064340 0
0.207930 0.142151 0
0.224309 0.211619 0
0.212910 0.267383 0
0.184228 0.300351 0
0.152993 0.300686 0
0.135160 0.261966 0
0.141872 0.187008 0
0.174103 0.088263 0
0.221884 -0.015835 0
0.269484 -0.109946 0
0.310392 -0.188360 0
0.344239 -0.247828 0
0.375279 -0.282282 0
0.410421 -0.285536 0
0.455849 -0.254884 0
0.513938 -0.193959 0
0.582222 -0.112788 0
0.652357 -0.026408 0
0.710243 0.049357 0
0.750941 0.109525 0
0.774663 0.157573 0
0.781518 0.195793 0
0.771777 0.226099 0
0.746816 0.249707 0
0.710629 0.265700 0
0.670918 0.269714 0
0.637867 0.254979 0
0.620051 0.216538 0
0.620317 0.155566 0
0.635312 0.079665 0
0.658342 -0.000080 0
0.681397 -0.073542 0
0.700078 -0.135819 0
0.712811 -0.185988 0
0.720137 -0.223452 0
0.724515 -0.246673 0
0.729804 -0.252956 0
0.739996 -0.239528 0
0.757533 -0.205562 0
0.782303 -0.153775 0
0.811960 -0.090277 0
0.843015 -0.023203 0
0.870594 0.038840 0
0.891406 0.090603 0
0.903985 0.131135 0
0.907550 0.161189 0
0.901927 0.182284 0
0.887923 0.195728 0
0.867807 0.201572 0
0.845365 0.198107 0
0.825056 0.182655 0
0.810488 0.153500 0
0.803219 0.111615 0
0.802722 0.060826 0
0.807250 0.006596 0
0.814600 -0.045462 0
0.822732 -0.091183 0
0.830263 -0.128356 0
0.836561 -0.155882 0
0.841783 -0.173036 0
0.846785 -0.179085 0
0.852770 -0.173342 0
0.860773 -0.155648 0
0.871201 -0.126958 0
0.883699 -0.089603 0
0.897324 -0.047031 0
0.910790 -0.003369 0
0.922320 0.037283 0
0.930520 0.072073 0
0.934469 0.099752 0
0.933713 0.120076 0
0.928373 0.133254 0
0.919255 0.139422 0
0.907797 0.138328 0
0.895787 0.129419 0
0.884908 0.112319 0
0.876339 0.087407 0
0.870584 0.056106 0
0.867569 0.020753 0
0.866837 -0.016606 0
0.867595 -0.041037 0
1.000000 -0.002764 0
0.993898 -0.008427 0
0.980608 -0.014264 0
0.957656 -0.019845 0
0.920339 -0.023929 0
0.859836 -0.022533 0
0.759480 -0.003876 0
0.585743 0.094630 0
0.271695 0.088658 0
0.000000 0.000000 0
0.000000 0.000000 0
0.000000 0.000000 0
-0.038363 -0.060181 0
-0.113794 -0.116182 0
-0.172425 -0.119065 0
-0.191440 -0.120436 0
-0.163618 -0.083016 0
-0.101015 -0.001038 0
-0.039340 0.100445 0
0.002263 0.196664 0
0.027265 0.269544 0
0.048057 0.303401 0
0.077353 0.290705 0
0.124256 0.231065 0
0.189626 0.136047 0
0.263205 0.028043 0
0.325118 -0.070172 0
0.369309 -0.150951 0
0.396149 -0.216714 0
0.407293 -0.267143 0
0.407608 -0.299541 0
0.405622 -0.309174 0
0.411462 -0.291273 0
0.432737 -0.244570 0
0.471108 -0.173759 0
0.521847 -0.088571 0
0.574573 -0.002179 0
0.616740 0.074688 0
0.644458 0.139797 0
0.657006 0.194851 0
0.655368 0.240356 0
0.643003 0.274851 0
0.626350 0.294143 0
0.613852 0.292010 0
0.612975 0.263426 0
0.626863 0.208612 0
0.653412 0.134300 0
0.687244 0.051264 0
0.721052 -0.028229 0
0.748521 -0.096033 0
0.767368 -0.150582 0
0.776658 -0.192761 0
0.776648 -0.223748 0
0.769249 -0.243874 0
0.758364 -0.251733 0
0.749353 -0.244307 0
0.747282 -0.218717 0
0.754783 -0.174763 0
0.771095 -0.116266 0
0.792926 -0.050101 0
0.815747 0.015459 0
0.834845 0.073823 0
0.847841 0.122343 0
0.853649 0.160878 0
0.852296 0.189904 0
0.845113 0.209348 0
0.834779 0.217886 0
0.824778 0.213161 0
0.818273 0.193137 0
0.816994 0.157823 0
0.820913 0.110069 0
0.828796 0.054902 0
0.838959 -0.001725 0
0.849368 -0.054216 0
0.858376 -0.098836 0
0.864795 -0.133985 0
0.867967 -0.159283 0
0.867968 -0.174810 0
0.865746 -0.180504 0
0.862982 -0.175926 0
0.861577 -0.160577 0
0.862955 -0.134627 0
0.867571 -0.099551 0
0.874888 -0.058191 0