# vtk DataFile Version 2.0
generated by CFD-lab course output (written by Tobias Neckel) 
ASCII

DATASET STRUCTURED_GRID
DIMENSIONS  99 19 1 
POINTS 1881 float

0.000000 0.000000 0
0.100000 0.000000 0
0.200000 0.000000 0
0.300000 0.000000 0
0.400000 0.000000 0
0.500000 0.000000 0
0.600000 0.000000 0
0.700000 0.000000 0
0.800000 0.000000 0
0.900000 0.000000 0
1.000000 0.000000 0
1.100000 0.000000 0
1.200000 0.000000 0
1.300000 0.000000 0
1.400000 0.000000 0
1.500000 0.000000 0
1.600000 0.000000 0
1.700000 0.000000 0
1.800000 0.000000 0
1.900000 0.000000 0
2.000000 0.000000 0
2.100000 0.000000 0
2.200000 0.000000 0
2.300000 0.000000 0
2.400000 0.000000 0
2.500000 0.000000 0
2.600000 0.000000 0
2.700000 0.000000 0
2.800000 0.000000 0
2.900000 0.000000 0
3.000000 0.000000 0
3.100000 0.000000 0
3.200000 0.000000 0
3.300000 0.000000 0
3.400000 0.000000 0
3.500000 0.000000 0
3.600000 0.000000 0
3.700000 0.000000 0
3.800000 0.000000 0
3.900000 0.000000 0
4.000000 0.000000 0
4.100000 0.000000 0
4.200000 0.000000 0
4.300000 0.000000 0
4.400000 0.000000 0
4.500000 0.000000 0
4.600000 0.000000 0
4.700000 0.000000 0
4.800000 0.000000 0
4.900000 0.000000 0
5.000000 0.000000 0
5.100000 0.000000 0
5.200000 0.000000 0
5.300000 0.000000 0
5.400000 0.000000 0
5.500000 0.000000 0
5.600000 0.000000 0
5.700000 0.000000 0
5.800000 0.000000 0
5.900000 0.000000 0
6.000000 0.000000 0
6.100000 0.000000 0
6.200000 0.000000 0
6.300000 0.000000 0
6.400000 0.000000 0
6.500000 0.000000 0
6.600000 0.000000 0
6.700000 0.000000 0
6.800000 0.000000 0
6.900000 0.000000 0
7.000000 0.000000 0
7.100000 0.000000 0
7.200000 0.000000 0
7.300000 0.000000 0
7.400000 0.000000 0
7.500000 0.000000 0
7.600000 0.000000 0
7.700000 0.000000 0
7.800000 0.000000 0
7.900000 0.000000 0
8.000000 0.000000 0
8.100000 0.000000 0
8.200000 0.000000 0
8.300000 0.000000 0
8.400000 0.000000 0
8.500000 0.000000 0
8.600000 0.000000 0
8.700000 0.000000 0
8.800000 0.000000 0
8.900000 0.000000 0
9.000000 0.000000 0
9.100000 0.000000 0
9.200000 0.000000 0
9.300000 0.000000 0
9.400000 0.000000 0
9.500000 0.000000 0
9.600000 0.000000 0
9.700000 0.000000 0
9.800000 0.000000 0
0.000000 0.100000 0
0.100000 0.100000 0
0.200000 0.100000 0
0.300000 0.100000 0
0.400000 0.100000 0
0.500000 0.100000 0
0.600000 0.100000 0
0.700000 0.100000 0
0.800000 0.100000 0
0.900000 0.100000 0
1.000000 0.100000 0
1.100000 0.100000 0
1.200000 0.100000 0
1.300000 0.100000 0
1.400000 0.100000 0
1.500000 0.100000 0
1.600000 0.100000 0
1.700000 0.100000 0
1.800000 0.100000 0
1.900000 0.100000 0
2.000000 0.100000 0
2.100000 0.100000 0
2.200000 0.100000 0
2.300000 0.100000 0
2.400000 0.100000 0
2.500000 0.100000 0
2.600000 0.100000 0
2.700000 0.100000 0
2.800000 0.100000 0
2.900000 0.100000 0
3.000000 0.100000 0
3.100000 0.100000 0
3.200000 0.100000 0
3.300000 0.100000 0
3.400000 0.100000 0
3.500000 0.100000 0
3.600000 0.100000 0
3.700000 0.100000 0
3.800000 0.100000 0
3.900000 0.100000 0
4.000000 0.100000 0
4.100000 0.100000 0
4.200000 0.100000 0
4.300000 0.100000 0
4.400000 0.100000 0
4.500000 0.100000 0
4.600000 0.100000 0
4.700000 0.100000 0
4.800000 0.100000 0
4.900000 0.100000 0
5.000000 0.100000 0
5.100000 0.100000 0
5.200000 0.100000 0
5.300000 0.100000 0
5.400000 0.100000 0
5.500000 0.100000 0
5.600000 0.100000 0
5.700000 0.100000 0
5.800000 0.100000 0
5.900000 0.100000 0
6.000000 0.100000 0
6.100000 0.100000 0
6.200000 0.100000 0
6.300000 0.100000 0
6.400000 0.100000 0
6.500000 0.100000 0
6.600000 0.100000 0
6.700000 0.100000 0
6.800000 0.100000 0
6.900000 0.100000 0
7.000000 0.100000 0
7.100000 0.100000 0
7.200000 0.100000 0
7.300000 0.100000 0
7.400000 0.100000 0
7.500000 0.100000 0
7.600000 0.100000 0
7.700000 0.100000 0
7.800000 0.100000 0
7.900000 0.100000 0
8.000000 0.100000 0
8.100000 0.100000 0
8.200000 0.100000 0
8.300000 0.100000 0
8.400000 0.100000 0
8.500000 0.100000 0
8.600000 0.100000 0
8.700000 0.100000 0
8.800000 0.100000 0
8.900000 0.100000 0
9.000000 0.100000 0
9.100000 0.100000 0
9.200000 0.100000 0
9.300000 0.100000 0
9.400000 0.100000 0
9.500000 0.100000 0
9.600000 0.100000 0
9.700000 0.100000 0
9.800000 0.100000 0
0.000000 0.200000 0
0.100000 0.200000 0
0.200000 0.200000 0
0.300000 0.200000 0
0.400000 0.200000 0
0.500000 0.200000 0
0.600000 0.200000 0
0.700000 0.200000 0
0.800000 0.200000 0
0.900000 0.200000 0
1.000000 0.200000 0
1.100000 0.200000 0
1.200000 0.200000 0
1.300000 0.200000 0
1.400000 0.200000 0
1.500000 0.200000 0
1.600000 0.200000 0
1.700000 0.200000 0
1.800000 0.200000 0
1.900000 0.200000 0
2.000000 0.200000 0
2.100000 0.200000 0
2.200000 0.200000 0
2.300000 0.200000 0
2.400000 0.200000 0
2.500000 0.200000 0
2.600000 0.200000 0
2.700000 0.200000 0
2.800000 0.200000 0
2.900000 0.200000 0
3.000000 0.200000 0
3.100000 0.200000 0
3.200000 0.200000 0
3.300000 0.200000 0
3.400000 0.200000 0
3.500000 0.200000 0
3.600000 0.200000 0
3.700000 0.200000 0
3.800000 0.200000 0
3.900000 0.200000 0
4.000000 0.200000 0
4.100000 0.200000 0
4.200000 0.200000 0
4.300000 0.200000 0
4.400000 0.200000 0
4.500000 0.200000 0
4.600000 0.200000 0
4.700000 0.200000 0
4.800000 0.200000 0
4.900000 0.200000 0
5.000000 0.200000 0
5.100000 0.200000 0
5.200000 0.200000 0
5.300000 0.200000 0
5.400000 0.200000 0
5.500000 0.200000 0
5.600000 0.200000 0
5.700000 0.200000 0
5.800000 0.200000 0
5.900000 0.200000 0
6.000000 0.200000 0
6.100000 0.200000 0
6.200000 0.200000 0
6.300000 0.200000 0
6.400000 0.200000 0
6.500000 0.200000 0
6.600000 0.200000 0
6.700000 0.200000 0
6.800000 0.200000 0
6.900000 0.200000 0
7.000000 0.200000 0
7.100000 0.200000 0
7.200000 0.200000 0
7.300000 0.200000 0
7.400000 0.200000 0
7.500000 0.200000 0
7.600000 0.200000 0
7.700000 0.200000 0
7.800000 0.200000 0
7.900000 0.200000 0
8.000000 0.200000 0
8.100000 0.200000 0
8.200000 0.200000 0
8.300000 0.200000 0
8.400000 0.200000 0
8.500000 0.200000 0
8.600000 0.200000 0
8.700000 0.200000 0
8.800000 0.200000 0
8.900000 0.200000 0
9.000000 0.200000 0
9.100000 0.200000 0
9.200000 0.200000 0
9.300000 0.200000 0
9.400000 0.200000 0
9.500000 0.200000 0
9.600000 0.200000 0
9.700000 0.200000 0
9.800000 0.200000 0
0.000000 0.300000 0
0.100000 0.300000 0
0.200000 0.300000 0
0.300000 0.300000 0
0.400000 0.300000 0
0.500000 0.300000 0
0.600000 0.300000 0
0.700000 0.300000 0
0.800000 0.300000 0
0.900000 0.300000 0
1.000000 0.300000 0
1.100000 0.300000 0
1.200000 0.300000 0
1.300000 0.300000 0
1.400000 0.300000 0
1.500000 0.300000 0
1.600000 0.300000 0
1.700000 0.300000 0
1.800000 0.300000 0
1.900000 0.300000 0
2.000000 0.300000 0
2.100000 0.300000 0
2.200000 0.300000 0
2.300000 0.300000 0
2.400000 0.300000 0
2.500000 0.300000 0
2.600000 0.300000 0
2.700000 0.300000 0
2.800000 0.300000 0
2.900000 0.300000 0
3.000000 0.300000 0
3.100000 0.300000 0
3.200000 0.300000 0
3.300000 0.300000 0
3.400000 0.300000 0
3.500000 0.300000 0
3.600000 0.300000 0
3.700000 0.300000 0
3.800000 0.300000 0
3.900000 0.300000 0
4.000000 0.300000 0
4.100000 0.300000 0
4.200000 0.300000 0
4.300000 0.300000 0
4.400000 0.300000 0
4.500000 0.300000 0
4.600000 0.300000 0
4.700000 0.300000 0
4.800000 0.300000 0
4.900000 0.300000 0
5.000000 0.300000 0
5.100000 0.300000 0
5.200000 0.300000 0
5.300000 0.300000 0
5.400000 0.300000 0
5.500000 0.300000 0
5.600000 0.300000 0
5.700000 0.300000 0
5.800000 0.300000 0
5.900000 0.300000 0
6.000000 0.300000 0
6.100000 0.300000 0
6.200000 0.300000 0
6.300000 0.300000 0
6.400000 0.300000 0
6.500000 0.300000 0
6.600000 0.300000 0
6.700000 0.300000 0
6.800000 0.300000 0
6.900000 0.300000 0
7.000000 0.300000 0
7.100000 0.300000 0
7.200000 0.300000 0
7.300000 0.300000 0
7.400000 0.300000 0
7.500000 0.300000 0
7.600000 0.300000 0
7.700000 0.300000 0
7.800000 0.300000 0
7.900000 0.300000 0
8.000000 0.300000 0
8.100000 0.300000 0
8.200000 0.300000 0
8.300000 0.300000 0
8.400000 0.300000 0
8.500000 0.300000 0
8.600000 0.300000 0
8.700000 0.300000 0
8.800000 0.300000 0
8.900000 0.300000 0
9.000000 0.300000 0
9.100000 0.300000 0
9.200000 0.300000 0
9.300000 0.300000 0
9.400000 0.300000 0
9.500000 0.300000 0
9.600000 0.300000 0
9.700000 0.300000 0
9.800000 0.300000 0
0.000000 0.400000 0
0.100000 0.400000 0
0.200000 0.400000 0
0.300000 0.400000 0
0.400000 0.400000 0
0.500000 0.400000 0
0.600000 0.400000 0
0.700000 0.400000 0
0.800000 0.400000 0
0.900000 0.400000 0
1.000000 0.400000 0
1.100000 0.400000 0
1.200000 0.400000 0
1.300000 0.400000 0
1.400000 0.400000 0
1.500000 0.400000 0
1.600000 0.400000 0
1.700000 0.400000 0
1.800000 0.400000 0
1.900000 0.400000 0
2.000000 0.400000 0
2.100000 0.400000 0
2.200000 0.400000 0
2.300000 0.400000 0
2.400000 0.400000 0
2.500000 0.400000 0
2.600000 0.400000 0
2.700000 0.400000 0
2.800000 0.400000 0
2.900000 0.400000 0
3.000000 0.400000 0
3.100000 0.400000 0
3.200000 0.400000 0
3.300000 0.400000 0
3.400000 0.400000 0
3.500000 0.400000 0
3.600000 0.400000 0
3.700000 0.400000 0
3.800000 0.400000 0
3.900000 0.400000 0
4.000000 0.400000 0
4.100000 0.400000 0
4.200000 0.400000 0
4.300000 0.400000 0
4.400000 0.400000 0
4.500000 0.400000 0
4.600000 0.400000 0
4.700000 0.400000 0
4.800000 0.400000 0
4.900000 0.400000 0
5.000000 0.400000 0
5.100000 0.400000 0
5.200000 0.400000 0
5.300000 0.400000 0
5.400000 0.400000 0
5.500000 0.400000 0
5.600000 0.400000 0
5.700000 0.400000 0
5.800000 0.400000 0
5.900000 0.400000 0
6.000000 0.400000 0
6.100000 0.400000 0
6.200000 0.400000 0
6.300000 0.400000 0
6.400000 0.400000 0
6.500000 0.400000 0
6.600000 0.400000 0
6.700000 0.400000 0
6.800000 0.400000 0
6.900000 0.400000 0
7.000000 0.400000 0
7.100000 0.400000 0
7.200000 0.400000 0
7.300000 0.400000 0
7.400000 0.400000 0
7.500000 0.400000 0
7.600000 0.400000 0
7.700000 0.400000 0
7.800000 0.400000 0
7.900000 0.400000 0
8.000000 0.400000 0
8.100000 0.400000 0
8.200000 0.400000 0
8.300000 0.400000 0
8.400000 0.400000 0
8.500000 0.400000 0
8.600000 0.400000 0
8.700000 0.400000 0
8.800000 0.400000 0
8.900000 0.400000 0
9.000000 0.400000 0
9.100000 0.400000 0
9.200000 0.400000 0
9.300000 0.400000 0
9.400000 0.400000 0
[...]
POINT_DATA 1881 

VECTORS velocity float
0.500000 0.000000 0
0.502240 0.000000 0
0.507164 0.000000 0
0.515153 0.000000 0
0.526573 0.000000 0
0.541685 0.000000 0
0.560406 0.000000 0
0.582043 0.000000 0
0.605032 0.000000 0
0.626902 0.000000 0
0.645573 0.000000 0
0.659985 0.000000 0
0.669960 0.000000 0
0.675890 0.000000 0
0.678489 0.000000 0
0.678652 0.000000 0
0.677347 0.000000 0
0.675518 0.000000 0
0.673981 0.000000 0
0.673312 0.000000 0
0.673667 0.000000 0
0.674659 0.000000 0
0.675441 0.000000 0
0.674989 0.000000 0
0.672414 0.000000 0
0.667182 0.000000 0
0.659140 0.000000 0
0.648467 0.000000 0
0.635567 0.000000 0
0.620992 0.000000 0
0.605384 0.000000 0
0.589433 0.000000 0
0.573856 0.000000 0
0.559373 0.000000 0
0.546704 0.000000 0
0.536588 0.000000 0
0.529825 0.000000 0
0.527307 0.000000 0
0.529765 0.000000 0
0.537438 0.000000 0
0.549973 0.000000 0
0.566292 0.000000 0
0.584600 0.000000 0
0.602560 0.000000 0
0.617680 0.000000 0
0.627882 0.000000 0
0.632104 0.000000 0
0.630385 0.000000 0
0.623266 0.000000 0
0.611597 0.000000 0
0.596421 0.000000 0
0.578858 0.000000 0
0.560012 0.000000 0
0.540920 0.000000 0
0.522535 0.000000 0
0.505750 0.000000 0
0.491420 0.000000 0
0.480380 0.000000 0
0.473398 0.000000 0
0.471026 0.000000 0
0.473257 0.000000 0
0.479604 0.000000 0
0.489487 0.000000 0
0.502334 0.000000 0
0.517577 0.000000 0
0.534584 0.000000 0
0.552535 0.000000 0
0.570292 0.000000 0
0.586348 0.000000 0
0.598977 0.000000 0
0.606629 0.000000 0
0.608463 0.000000 0
0.604455 0.000000 0
0.594951 0.000000 0
0.580617 0.000000 0
0.562464 0.000000 0
0.541822 0.000000 0
0.520290 0.000000 0
0.499633 0.000000 0
0.481599 0.000000 0
0.467667 0.000000 0
0.458790 0.000000 0
0.455205 0.000000 0
0.456300 0.000000 0
0.460854 0.000000 0
0.467818 0.000000 0
0.476457 0.000000 0
0.486322 0.000000 0
0.497152 0.000000 0
0.508753 0.000000 0
0.520868 0.000000 0
0.533054 0.000000 0
0.544603 0.000000 0
0.554554 0.000000 0
0.561807 0.000000 0
0.565368 0.000000 0
0.564593 0.000000 0
0.559036 0.000000 0
0.547764 0.000000 0
1.000000 -0.002231 0
1.005048 -0.007147 0
1.015541 -0.012899 0
1.032160 -0.019402 0
1.055723 -0.026525 0
1.086942 -0.033831 0
1.125955 -0.040365 0
1.171602 -0.044635 0
1.220809 -0.044873 0
1.267341 -0.040558 0
1.306449 -0.033102 0
1.336180 -0.024407 0
1.356527 -0.015926 0
1.368513 -0.008551 0
1.373716 -0.002785 0
1.374010 0.001122 0
1.371399 0.003125 0
1.367864 0.003369 0
1.365173 0.002214 0
1.364604 0.000328 0
1.366582 -0.001332 0
1.370293 -0.001763 0
1.373772 -0.000327 0
1.374617 0.003023 0
1.370889 0.007806 0
1.361492 0.013275 0
1.346190 0.018712 0
1.325419 0.023570 0
1.300070 0.027470 0
1.271306 0.030176 0
1.240447 0.031549 0
1.208904 0.031515 0
1.178123 0.030046 0
1.149552 0.027135 0
1.124617 0.022768 0
1.104719 0.016862 0
1.091251 0.009263 0
1.085591 0.000042 0
1.089007 -0.010148 0
1.102297 -0.020221 0
1.125253 -0.028861 0
1.156288 -0.034630 0
1.192411 -0.036267 0
1.229456 -0.033075 0
1.262566 -0.025315 0
1.287070 -0.014417 0
1.299708 -0.002497 0
1.299627 0.008840 0
1.287977 0.018786 0
1.266652 0.026841 0
1.237917 0.032734 0
1.204140 0.036403 0
1.167622 0.037931 0
1.130494 0.037469 0
1.094696 0.035162 0
1.061984 0.031107 0
1.033924 0.025362 0
1.011823 0.018014 0
0.996606 0.009345 0
0.988691 0.000132 0
0.988061 -0.008588 0
0.994350 -0.016240 0
1.007006 -0.022739 0
1.025432 -0.028098 0
1.049003 -0.032255 0
1.077004 -0.034962 0
1.108396 -0.035710 0
1.141511 -0.033813 0
1.173882 -0.028684 0
1.202333 -0.020278 0
1.223401 -0.009483 0
1.234081 0.002176 0
1.232922 0.013514 0
1.220483 0.023838 0
1.198177 0.032485 0
1.168068 0.038791 0
1.132761 0.042169 0
1.095246 0.042185 0
1.058663 0.038687 0
1.025948 0.031962 0
0.999410 0.022805 0
0.980355 0.012459 0
0.968959 0.002489 0
0.964542 -0.005650 0
0.965979 -0.011518 0
0.971982 -0.015603 0
0.981539 -0.018504 0
0.994026 -0.020695 0
1.009141 -0.022432 0
1.026731 -0.023717 0
1.046545 -0.024301 0
1.067977 -0.023735 0
1.089908 -0.021501 0
1.110677 -0.017203 0
1.128185 -0.010814 0
1.140135 -0.002787 0
1.144427 0.006332 0
1.139841 0.016830 0
1.125431 0.023831 0
1.000000 -0.005031 0
1.005209 -0.015516 0
1.015717 -0.027101 0
1.032251 -0.040177 0
1.055961 -0.054778 0
1.088220 -0.070237 0
1.130197 -0.084673 0
1.181667 -0.094870 0
1.240488 -0.095758 0
1.294416 -0.085661 0
1.336966 -0.068863 0
1.367351 -0.050104 0
1.386874 -0.032360 0
1.397296 -0.017217 0
1.400580 -0.005522 0
1.398823 0.002304 0
1.394213 0.006147 0
1.389012 0.006236 0
1.385350 0.003276 0
1.384968 -0.001392 0
1.388787 -0.005676 0
1.395975 -0.007185 0
1.403725 -0.004331 0
1.408435 0.002878 0
1.407530 0.013126 0
1.399895 0.024698 0
1.385531 0.036069 0
1.365159 0.046113 0
1.339899 0.054104 0
1.311051 0.059610 0
1.280002 0.062386 0
1.248180 0.062307 0
1.217026 0.059333 0
1.187941 0.053486 0
1.162243 0.044812 0
1.141130 0.033344 0
1.125662 0.019106 0
1.116805 0.002223 0
1.115655 -0.016722 0
1.123356 -0.036256 0
1.140302 -0.053996 0
1.165845 -0.067156 0
1.198422 -0.073163 0
1.235454 -0.070148 0
1.273040 -0.057605 0
1.306018 -0.037135 0
1.328899 -0.012555 0
1.337974 0.011729 0
1.333606 0.032969 0
1.318085 0.050053 0
1.294020 0.062505 0
1.264034 0.070287 0
1.230585 0.073637 0
1.195879 0.072916 0
1.161833 0.068499 0
1.130058 0.060762 0
1.101803 0.050150 0
1.077885 0.037306 0
1.058616 0.023121 0
1.043878 0.008533 0
1.033551 -0.005670 0
1.027682 -0.018957 0
1.026430 -0.031093 0
1.030115 -0.042004 0
1.039224 -0.051577 0
1.054315 -0.059395 0
1.075584 -0.064507 0
1.102397 -0.065484 0
1.133082 -0.060819 0
1.164983 -0.049515 0
1.194616 -0.031744 0
1.217959 -0.009519 0
1.231417 0.013597 0
1.233787 0.034741 0
1.226118 0.052410 0
1.210156 0.065411 0
1.188090 0.072816 0
1.162302 0.074092 0
1.135105 0.069293 0
1.108479 0.059248 0
1.083880 0.045590 0
1.062157 0.030448 0
1.043658 0.015811 0
1.028555 0.002980 0
1.017027 -0.007441 0
1.008955 -0.015562 0
1.004218 -0.022045 0
1.002960 -0.027602 0
1.005557 -0.032706 0
1.012447 -0.037404 0
1.023841 -0.041246 0
1.039455 -0.043363 0
1.058424 -0.042700 0
1.079361 -0.038277 0
1.100453 -0.029458 0
1.119537 -0.016242 0
1.134261 0.000294 0
1.142754 0.018996 0
1.144680 0.031304 0
1.000000 -0.007428 0
1.004225 -0.022853 0
1.013021 -0.039946 0
1.027365 -0.059649 0
1.048959 -0.082502 0
1.080335 -0.108079 0
1.124725 -0.133821 0
1.184412 -0.154938 0
1.262832 -0.157631 0
1.327407 -0.137045 0
1.371222 -0.106047 0
1.398572 -0.074326 0
1.413700 -0.045881 0
1.419249 -0.022266 0
1.417457 -0.004312 0
1.410319 0.007503 0
1.400253 0.012953 0
1.389992 0.012244 0
1.382208 0.006269 0
1.379290 -0.003107 0
1.383345 -0.012346 0
1.394170 -0.016716 0
1.407929 -0.012798 0
1.418550 -0.000780 0
1.421409 0.016345 0
1.415461 0.035269 0
1.401315 0.053445 0
1.380321 0.069195 0
1.354002 0.081570 0
1.323843 0.090064 0
1.291282 0.094410 0
1.257744 0.094482 0
1.224638 0.090277 0
1.193301 0.081909 0
1.164911 0.069571 0
1.140416 0.053435 0
1.120534 0.033581 0
1.105770 0.010046 0
1.096441 -0.016698 0
1.093273 -0.044864 0
1.097264 -0.071345 0
1.109262 -0.092743 0
1.130244 -0.105868 0
1.160369 -0.107688 0
1.197774 -0.095878 0
1.238033 -0.070279 0
1.274513 -0.034460 0
1.299901 0.004124 0
1.309870 0.038669 0
1.306218 0.066423 0
1.291836 0.086781 0
1.269588 0.099832 0
1.242095 0.106081 0
1.211648 0.106216 0
1.180173 0.100979 0
1.149215 0.091133 0
1.119923 0.077529 0
1.093040 0.061197 0
1.068896 0.043348 0
1.047398 0.025192 0
1.028081 0.007604 0
1.010505 -0.009123 0
0.994910 -0.025174 0
0.982926 -0.040891 0
0.977075 -0.056453 0
0.979584 -0.071319 0
0.991436 -0.083789 0
1.012039 -0.091309 0
1.039575 -0.091267 0
1.071496 -0.081810 0
1.104867 -0.062460 0
1.136470 -0.034628 0
1.162645 -0.002318 0
1.179855 0.029132 0
1.187453 0.056111 0
1.186370 0.076816 0
1.178025 0.090021 0
1.164027 0.095168 0
1.145941 0.092509 0
1.125149 0.083186 0
1.102821 0.069126 0
1.079964 0.052681 0
1.057421 0.036091 0
1.035770 0.020980 0
1.015382 0.008080 0
0.996769 -0.002794 0
0.980703 -0.012509 0
0.968372 -0.022035 0
0.961246 -0.031919 0
0.960409 -0.042001 0
0.966137 -0.051308 0
0.977866 -0.058318 0
0.994425 -0.061407 0
1.014331 -0.059233 0
1.036021 -0.050991 0
1.057985 -0.036595 0
1.078785 -0.016884 0
1.096854 0.006411 0
1.111053 0.022227 0
1.000000 -0.009249 0
1.002805 -0.028532 0
1.008819 -0.050245 0
1.019142 -0.076120 0
1.035925 -0.107757 0
1.063030 -0.146012 0
1.106907 -0.188759 0
1.175487 -0.232986 0
1.292016 -0.238762 0
1.362882 -0.194061 0
1.396565 -0.140039 0
1.412303 -0.092591 0
1.418178 -0.053045 0
1.416124 -0.020976 0
1.406938 0.003419 0
1.391729 0.019522 0
1.373082 0.026485 0
1.354380 0.024290 0
1.339040 0.013981 0
1.329908 -0.002534 0
1.329955 -0.020569 0
1.341690 -0.031782 0
1.362120 -0.028709 0
1.383031 -0.010599 0
1.394438 0.016210 0
1.393331 0.044788 0
1.381808 0.071204 0
1.362354 0.093420 0
1.336997 0.110574 0
1.307306 0.122322 0
1.274656 0.128477 0
1.240412 0.128943 0
1.205969 0.123767 0
1.172656 0.113204 0
1.141526 0.097690 0
1.113147 0.077714 0
1.087552 0.053747 0
1.064202 0.026317 0
1.041802 -0.004222 0
1.019251 -0.037075 0
0.999456 -0.069978 0
0.988640 -0.100130 0
0.992039 -0.124266 0
1.011503 -0.137676 0
1.045421 -0.135270 0
1.089663 -0.113881 0
1.138164 -0.074432 0
1.183100 -0.023634 0
1.215731 0.026649 0
1.232325 0.068083 0
1.235357 0.099129 0
1.227618 0.120023 0
1.211721 0.131574 0
1.190014 0.134833 0
1.164522 0.130927 0
1.136919 0.121008 0
1.108485 0.106321 0
1.079994 0.088329 0
1.051540 0.068758 0
1.022532 0.049344 0
0.992286 0.031220 0
0.961193 0.014212 0
0.931580 -0.003514 0
0.907317 -0.024168 0
0.892637 -0.048233 0
0.889940 -0.073753 0
0.898917 -0.096959 0
0.917663 -0.113622 0
0.943776 -0.120276 0
0.974852 -0.114808 0
1.008591 -0.096720 0
1.042750 -0.067300 0
1.074941 -0.029792 0
1.101934 0.009929 0
1.120843 0.045891 0
1.131468 0.074836 0
1.134362 0.095157 0
1.130390 0.106175 0
1.120504 0.108170 0
1.105631 0.102367 0
1.086635 0.090774 0
1.064301 0.075848 0
1.039363 0.060004 0
1.012637 0.045017 0
0.985294 0.031560 0
0.959106 0.019117 0
0.936301 0.006352 0
0.919021 -0.008146 0
0.908812 -0.024743 0
0.906333 -0.042295 0
0.911164 -0.058703 0
0.922160 -0.071651 0
0.937899 -0.079165 0
0.956959 -0.079873 0
0.978049 -0.073112 0
1.000056 -0.059007 0
1.022058 -0.038575 0
1.043277 -0.013272 0
1.062450 0.004765 0
1.000000 -0.010230 0
1.000856 -0.031673 0
1.002831 -0.056288 0
1.006746 -0.086761 0
1.014551 -0.126400 0
1.030604 -0.179070 0
1.064406 -0.246287 0
1.133565 -0.340055 0
1.309024 -0.345035 0
1.354072 -0.241604 0
1.348370 -0.155479 0
1.338629 -0.095948 0
1.331025 -0.049707 0
1.321467 -0.011018 0
1.304154 0.020097 0
1.278821 0.041369 0
1.248183 0.050310 0
1.216516 0.046290 0
1.188310 0.030737 0
1.167029 0.005967 0
1.154605 -0.024140 0
1.156402 -0.048883 0
1.176678 -0.054135 0
1.211042 -0.033100 0
1.245415 0.006039 0
1.264268 0.047892 0
1.267875 0.084416 0
1.261357 0.113999 0
1.247234 0.136610 0
1.226870 0.152397 0
1.201393 0.161296 0
1.172092 0.163161 0
1.140486 0.158025 0
1.108050 0.146346 0
1.075446 0.129073 0
1.041468 0.107404 0
1.003081 0.082526 0
0.958024 0.055798 0
0.908414 0.028257 0
0.860992 -0.002512 0
0.824272 -0.040728 0
0.805959 -0.085321 0
0.807917 -0.128730 0
0.827852 -0.161070 0
0.862445 -0.174043 0
0.908269 -0.163031 0
0.961507 -0.127903 0
1.017370 -0.073446 0
1.069055 -0.010560 0
1.107774 0.046792 0
1.131489 0.091484 0
1.142200 0.123464 0
1.141992 0.143680 0
1.132895 0.153411 0
1.116755 0.154069 0
1.095084 0.147166 0
1.068840 0.134449 0
1.038222 0.118137 0
1.002814 0.100804 0
0.962550 0.084441 0
0.919243 0.068942 0
0.877380 0.051583 0
0.842890 0.028702 0
0.820279 -0.001947 0
0.810988 -0.039074 0
0.813694 -0.077596 0
0.825809 -0.111510 0
0.844959 -0.136167 0
0.869398 -0.148457 0
0.897771 -0.146627 0
0.928794 -0.130361 0
0.961089 -0.100982 0
0.993130 -0.061506 0
1.023093 -0.016773 0
1.047902 0.026574 0
1.065720 0.063295 0
1.076234 0.091097 0
1.079569 0.109025 0
1.076047 0.117267 0
1.066046 0.117054 0
1.049952 0.110456 0
1.028220 0.099952 0
1.001626 0.087753 0
0.971649 0.075047 0
0.940727 0.061611 0
0.912043 0.046199 0
0.888772 0.027575 0
0.873066 0.005454 0
0.865458 -0.019231 0
0.865302 -0.044353 0
0.871351 -0.067136 0
0.882261 -0.085053 0
0.896842 -0.096206 0
0.914093 -0.099383 0
0.933153 -0.094088 0
0.953256 -0.080604 0
0.973706 -0.060105 0
0.993876 -0.033981 0
1.012846 -0.014824 0
1.000000 -0.010107 0
0.998519 -0.031367 0
0.995447 -0.056141 0
0.990740 -0.087847 0
0.984849 -0.131625 0
0.979944 -0.195876 0
0.983542 -0.291729 0
1.017995 -0.477614 0
1.213648 -0.459278 0
1.165402 -0.233416 0
1.079878 -0.124604 0
1.036767 -0.075252 0
1.020241 -0.035881 0
1.009334 0.005907 0
0.987697 0.046076 0
0.952510 0.075500 0
0.905067 0.088794 0
0.849483 0.084160 0
0.792912 0.063459 0
0.746626 0.031159 0
0.722473 -0.009949 0
0.728226 -0.053852 0
0.763857 -0.083349 0
0.823973 -0.079342 0
0.898199 -0.037021 0
0.968161 0.022320 0
1.016918 0.074107 0
1.045393 0.114053 0
1.059744 0.145053 0
1.062136 0.168155 0
1.053847 0.183247 0
1.036077 0.189842 0
1.009736 0.187802 0
0.974885 0.178238 0
0.930501 0.164267 0
0.875599 0.150077 0
0.811803 0.137192 0
0.745572 0.120986 0
0.687812 0.092815 0
0.649664 0.047073 0
0.635265 -0.014940 0
0.640064 -0.083771 0
0.657538 -0.146159 0
0.683835 -0.192209 0
0.717901 -0.215696 0
0.759764 -0.212949 0
0.808873 -0.183535 0
0.863276 -0.131185 0
0.919471 -0.063760 0
0.970918 0.005645 0
1.010019 0.064699 0
1.036027 0.109516 0
1.049919 0.140875 0
1.052878 0.160065 0
1.046041 0.168733 0
1.030208 0.168918 0
1.005624 0.163178 0
0.972194 0.154350 0
0.930542 0.144426 0
0.883607 0.132912 0
0.837300 0.116388 0
0.798828 0.090565 0
0.773532 0.053588 0
0.762809 0.007736 0
0.764043 -0.041646 0
0.772994 -0.088572 0
0.786639 -0.128223 0
0.803547 -0.157210 0
0.823328 -0.173089 0
0.845970 -0.174208 0
0.871294 -0.160042 0
0.898673 -0.131639 0
0.927042 -0.091799 0
0.955050 -0.044846 0
0.980799 0.003261 0
1.001507 0.046502 0
1.015996 0.081307 0
1.023695 0.106361 0
1.024312 0.121691 0
1.017714 0.128460 0
1.003966 0.128599 0
0.983577 0.124173 0
0.957869 0.116573 0
0.929237 0.105915 0
0.900928 0.091165 0
0.876288 0.071071 0
0.857831 0.045329 0
0.846689 0.015167 0
0.842625 -0.016980 0
0.844394 -0.048189 0
0.850592 -0.075663 0
0.860094 -0.097142 0
0.872121 -0.110998 0
0.886138 -0.116185 0
0.901714 -0.112276 0
0.918398 -0.099559 0
0.935654 -0.079195 0
0.952836 -0.052413 0
0.968932 -0.032480 0
1.000000 -0.008752 0
0.996207 -0.027126 0
0.988008 -0.048516 0
0.974065 -0.076172 0
0.952081 -0.115613 0
0.918416 -0.177773 0
0.867541 -0.284348 0
0.795877 -0.570170 0
0.558518 -0.394012 0
0.500781 0.000000 0
0.432940 -0.017447 0
0.377411 -0.036313 0
0.391733 -0.022265 0
0.426695 0.021536 0
0.433575 0.076928 0
0.407693 0.124005 0
0.359281 0.153336 0
0.299680 0.158438 0
0.244516 0.133583 0
0.213325 0.076398 0
0.222143 -0.005740 0
0.264289 -0.090267 0
0.326513 -0.149887 0
0.405055 -0.167447 0
0.498851 -0.138156 0
0.602945 -0.070834 0
0.698661 0.007176 0
0.769887 0.071165 0
0.816740 0.119859 0
0.844111 0.158286 0
0.853735 0.187347 0
0.846366 0.207265 0
0.822008 0.219212 0
0.780475 0.225575 0
0.723297 0.228356 0
0.656701 0.226102 0
0.592761 0.212554 0
0.545490 0.179792 0
0.523657 0.124170 0
0.526761 0.050040 0
0.546627 -0.031124 0
0.571225 -0.107592 0
0.594625 -0.172503 0
0.616723 -0.221440 0
0.640314 -0.249979 0
0.669000 -0.254006 0
0.705331 -0.231418 0
0.749512 -0.184048 0
0.799296 -0.118206 0
0.850710 -0.043761 0
0.896453 0.026370 0
0.931074 0.083559 0
0.953962 0.126824 0
0.965156 0.157284 0
0.964839 0.176734 0
0.953103 0.187578 0
0.930152 0.192459 0
0.897155 0.193214 0
0.857460 0.189388 0
0.817017 0.177682 0
0.782823 0.153720 0
0.760023 0.115352 0
0.749951 0.064723 0
0.750563 0.007543 0
0.758089 -0.049258 0
0.768780 -0.100190 0
0.780432 -0.142061 0
0.792353 -0.172856 0
0.804970 -0.190883 0
0.819293 -0.194597 0
0.836250 -0.183068 0
0.856130 -0.156733 0
0.878381 -0.117886 0
0.901811 -0.070533 0
0.924873 -0.019886 0
0.945161 0.028095 0
0.960646 0.068908 0
0.970195 0.100708 0
0.973073 0.123246 0
0.968876 0.137398 0
0.957691 0.144591 0
0.940397 0.146047 0
0.918896 0.142091 0
0.895988 0.131987 0
0.874748 0.114559 0
0.857675 0.089295 0
0.846101 0.057173 0
0.840158 0.020659 0
0.839171 -0.016936 0
0.841980 -0.052320 0
0.847417 -0.082836 0
0.854646 -0.106583 0
0.863210 -0.122251 0
0.872954 -0.128976 0
0.883862 -0.126348 0
0.895866 -0.114544 0
0.908689 -0.094543 0
0.921770 -0.067259 0
0.934043 -0.046680 0
1.000000 -0.006319 0
0.994506 -0.019385 0
0.982520 -0.034007 0
0.961664 -0.051931 0
0.927312 -0.075988 0
0.870416 -0.111347 0
0.771536 -0.169200 0
0.588483 -0.267039 0
0.000000 -0.164188 0
0.000000 0.000000 0
0.000000 0.000000 0
-0.025613 -0.042207 0
-0.042886 -0.085155 0
-0.036054 -0.035927 0
-0.031441 0.065083 0
-0.041892 0.149796 0
-0.066100 0.196804 0
-0.090346 0.198916 0
-0.096657 0.149804 0
-0.067639 0.053528 0
-0.011601 -0.060912 0
0.048854 -0.158226 0
0.107814 -0.224122 0
0.170264 -0.251687 0
0.243150 -0.234919 0
0.329750 -0.177498 0
0.426219 -0.092843 0
0.514885 -0.004034 0
0.580625 0.070821 0
0.622844 0.131153 0
0.643656 0.180986 0
0.643802 0.221562 0
0.624325 0.253687 0
0.588662 0.276944 0
0.544659 0.288039 0
0.504421 0.280614 0
0.480351 0.248406 0
0.479305 0.190095 0
0.499499 0.111549 0
0.532514 0.024107 0
0.566112 -0.059402 0
0.593061 -0.131770 0
0.611443 -0.191661 0
0.622349 -0.237905 0
0.629416 -0.267978 0
0.638066 -0.277969 0
0.653782 -0.264052 0
0.679822 -0.225155 0
0.715800 -0.164963 0
0.758197 -0.091518 0
0.801578 -0.015670 0
0.838230 0.052002 0
0.864690 0.106787 0
0.879879 0.149184 0
0.883319 0.180782 0
0.875055 0.203599 0
0.856209 0.219121 0
0.829805 0.227039 0
0.801063 0.224562 0
0.776261 0.207548 0
0.760361 0.173381 0
0.755086 0.123437 0
0.758954 0.063051 0
0.768804 -0.000399 0
0.780876 -0.059862 0
0.792331 -0.110915 0
0.801583 -0.151795 0
0.808219 -0.181750 0
0.812984 -0.200032 0
0.817561 -0.205492 0
0.823979 -0.196882 0
0.833772 -0.173773 0
0.847345 -0.137483 0
0.863911 -0.091340 0
0.881907 -0.040091 0
0.899297 0.010726 0
0.913611 0.056271 0
0.923300 0.093932 0
0.927391 0.123008 0
0.925456 0.143840 0
0.917787 0.157076 0
0.905583 0.162966 0
0.890911 0.160981 0
0.876280 0.150063 0
0.863939 0.129477 0
0.855276 0.099717 0
0.850659 0.062845 0
0.849694 0.022096 0
0.851595 -0.018803 0
0.855351 -0.056436 0
0.860019 -0.088329 0
0.864934 -0.112936 0
0.869815 -0.129306 0
0.874766 -0.136837 0
0.880159 -0.135188 0
0.886399 -0.124386 0
0.893657 -0.105098 0
0.901694 -0.077767 0
0.909654 -0.056854 0
1.000000 -0.003267 0
0.993874 -0.009659 0
0.980585 -0.015684 0
0.957664 -0.020975 0
0.920398 -0.024377 0
0.859977 -0.022009 0
0.759739 -0.002425 0
0.586158 0.098224 0
0.271449 0.091333 0
0.000000 0.000000 0
0.000000 0.000000 0
0.000000 0.000000 0
-0.040617 -0.010229 0
-0.117935 0.010097 0
-0.151492 0.082771 0
-0.161037 0.158664 0
-0.159810 0.201784 0
-0.140487 0.188985 0
-0.088435 0.110869 0
-0.015955 -0.008659 0
0.044298 -0.122235 0
0.086227 -0.209687 0
0.115233 -0.271302 0
0.138098 -0.302791 0
0.165539 -0.297650 0
0.206775 -0.253911 0
0.264202 -0.177967 0
0.332321 -0.083250 0
0.396160 0.011892 0
0.443502 0.095249 0
0.472807 0.166383 0
0.484674 0.226590 0
0.481766 0.274346 0
0.470392 0.305238 0
0.460259 0.312597 0
0.461559 0.290411 0
0.480557 0.237674 0
0.516891 0.160650 0
0.564495 0.070966 0
0.612721 -0.016570 0
0.651315 -0.091671 0
0.677522 -0.152926 0
0.690604 -0.201796 0
0.691282 -0.239419 0
0.682351 -0.265699 0
0.669182 -0.278376 0
0.659097 -0.273179 0
0.659002 -0.246071 0
0.672343 -0.196586 0
0.697711 -0.129544 0
0.730090 -0.053668 0
0.762393 0.020443 0
0.788079 0.085170 0
0.804641 0.138649 0
0.811201 0.181553 0
0.808207 0.214683 0
0.797790 0.237705 0
0.783931 0.248358 0
0.771731 0.242930 0
0.765651 0.218382 0
0.767778 0.174895 0
0.777430 0.116761 0
0.792173 0.051007 0
0.808982 -0.014377 0
0.824524 -0.072784 0
0.836721 -0.120897 0
0.844285 -0.157950 0
0.846716 -0.184260 0
0.844560 -0.200228 0
0.839580 -0.205595 0
0.834503 -0.199282 0
0.832166 -0.180102 0
0.834443 -0.148028 0
0.841592 -0.105098 0
0.852422 -0.055274 0
0.864952 -0.003612 0
0.876689 0.044902 0
0.885718 0.086926 0
0.890902 0.121088 0
0.891840 0.147000 0
0.888945 0.164462 0
0.883430 0.172921 0
0.877039 0.171392 0