# vtk DataFile Version 2.0
generated by CFD-lab course output (written by Tobias Neckel) 
ASCII

DATASET STRUCTURED_GRID
DIMENSIONS  99 19 1 
POINTS 1881 float

0.000000 0.000000 0
0.100000 0.000000 0
0.200000 0.000000 0
0.300000 0.000000 0
0.400000 0.000000 0
0.500000 0.000000 0
0.600000 0.000000 0
0.700000 0.000000 0
0.800000 0.000000 0
0.900000 0.000000 0
1.000000 0.000000 0
1.100000 0.000000 0
1.200000 0.000000 0
1.300000 0.000000 0
1.400000 0.000000 0
1.500000 0.000000 0
1.600000 0.000000 0
1.700000 0.000000 0
1.800000 0.000000 0
1.900000 0.000000 0
2.000000 0.000000 0
2.100000 0.000000 0
2.200000 0.000000 0
2.300000 0.000000 0
2.400000 0.000000 0
2.500000 0.000000 0
2.600000 0.000000 0
2.700000 0.000000 0
2.800000 0.000000 0
2.900000 0.000000 0
3.000000 0.000000 0
3.100000 0.000000 0
3.200000 0.000000 0
3.300000 0.000000 0
3.400000 0.000000 0
3.500000 0.000000 0
3.600000 0.000000 0
3.700000 0.000000 0
3.800000 0.000000 0
3.900000 0.000000 0
4.000000 0.000000 0
4.100000 0.000000 0
4.200000 0.000000 0
4.300000 0.000000 0
4.400000 0.000000 0
4.500000 0.000000 0
4.600000 0.000000 0
4.700000 0.000000 0
4.800000 0.000000 0
4.900000 0.000000 0
5.000000 0.000000 0
5.100000 0.000000 0
5.200000 0.000000 0
5.300000 0.000000 0
5.400000 0.000000 0
5.500000 0.000000 0
5.600000 0.000000 0
5.700000 0.000000 0
5.800000 0.000000 0
5.900000 0.000000 0
6.000000 0.000000 0
6.100000 0.000000 0
6.200000 0.000000 0
6.300000 0.000000 0
6.400000 0.000000 0
6.500000 0.000000 0
6.600000 0.000000 0
6.700000 0.000000 0
6.800000 0.000000 0
6.900000 0.000000 0
7.000000 0.000000 0
7.100000 0.000000 0
7.200000 0.000000 0
7.300000 0.000000 0
7.400000 0.000000 0
7.500000 0.000000 0
7.600000 0.000000 0
7.700000 0.000000 0
7.800000 0.000000 0
7.900000 0.000000 0
8.000000 0.000000 0
8.100000 0.000000 0
8.200000 0.000000 0
8.300000 0.000000 0
8.400000 0.000000 0
8.500000 0.000000 0
8.600000 0.000000 0
8.700000 0.000000 0
8.800000 0.000000 0
8.900000 0.000000 0
9.000000 0.000000 0
9.100000 0.000000 0
9.200000 0.000000 0
9.300000 0.000000 0
9.400000 0.000000 0
9.500000 0.000000 0
9.600000 0.000000 0
9.700000 0.000000 0
9.800000 0.000000 0
0.000000 0.100000 0
0.100000 0.100000 0
0.200000 0.100000 0
0.300000 0.100000 0
0.400000 0.100000 0
0.500000 0.100000 0
0.600000 0.100000 0
0.700000 0.100000 0
0.800000 0.100000 0
0.900000 0.100000 0
1.000000 0.100000 0
1.100000 0.100000 0
1.200000 0.100000 0
1.300000 0.100000 0
1.400000 0.100000 0
1.500000 0.100000 0
1.600000 0.100000 0
1.700000 0.100000 0
1.800000 0.100000 0
1.900000 0.100000 0
2.000000 0.100000 0
2.100000 0.100000 0
2.200000 0.100000 0
2.300000 0.100000 0
2.400000 0.100000 0
2.500000 0.100000 0
2.600000 0.100000 0
2.700000 0.100000 0
2.800000 0.100000 0
2.900000 0.100000 0
3.000000 0.100000 0
3.100000 0.100000 0
3.200000 0.100000 0
3.300000 0.100000 0
3.400000 0.100000 0
3.500000 0.100000 0
3.600000 0.100000 0
3.700000 0.100000 0
3.800000 0.100000 0
3.900000 0.100000 0
4.000000 0.100000 0
4.100000 0.100000 0
4.200000 0.100000 0
4.300000 0.100000 0
4.400000 0.100000 0
4.500000 0.100000 0
4.600000 0.100000 0
4.700000 0.100000 0
4.800000 0.100000 0
4.900000 0.100000 0
5.000000 0.100000 0
5.100000 0.100000 0
5.200000 0.100000 0
5.300000 0.100000 0
5.400000 0.100000 0
5.500000 0.100000 0
5.600000 0.100000 0
5.700000 0.100000 0
5.800000 0.100000 0
5.900000 0.100000 0
6.000000 0.100000 0
6.100000 0.100000 0
6.200000 0.100000 0
6.300000 0.100000 0
6.400000 0.100000 0
6.500000 0.100000 0
6.600000 0.100000 0
6.700000 0.100000 0
6.800000 0.100000 0
6.900000 0.100000 0
7.000000 0.100000 0
7.100000 0.100000 0
7.200000 0.100000 0
7.300000 0.100000 0
7.400000 0.100000 0
7.500000 0.100000 0
7.600000 0.100000 0
7.700000 0.100000 0
7.800000 0.100000 0
7.900000 0.100000 0
8.000000 0.100000 0
8.100000 0.100000 0
8.200000 0.100000 0
8.300000 0.100000 0
8.400000 0.100000 0
8.500000 0.100000 0
8.600000 0.100000 0
8.700000 0.100000 0
8.800000 0.100000 0
8.900000 0.100000 0
9.000000 0.100000 0
9.100000 0.100000 0
9.200000 0.100000 0
9.300000 0.100000 0
9.400000 0.100000 0
9.500000 0.100000 0
9.600000 0.100000 0
9.700000 0.100000 0
9.800000 0.100000 0
0.000000 0.200000 0
0.100000 0.200000 0
0.200000 0.200000 0
0.300000 0.200000 0
0.400000 0.200000 0
0.500000 0.200000 0
0.600000 0.200000 0
0.700000 0.200000 0
0.800000 0.200000 0
0.900000 0.200000 0
1.000000 0.200000 0
1.100000 0.200000 0
1.200000 0.200000 0
1.300000 0.200000 0
1.400000 0.200000 0
1.500000 0.200000 0
1.600000 0.200000 0
1.700000 0.200000 0
1.800000 0.200000 0
1.900000 0.200000 0
2.000000 0.200000 0
2.100000 0.200000 0
2.200000 0.200000 0
2.300000 0.200000 0
2.400000 0.200000 0
2.500000 0.200000 0
2.600000 0.200000 0
2.700000 0.200000 0
2.800000 0.200000 0
2.900000 0.200000 0
3.000000 0.200000 0
3.100000 0.200000 0
3.200000 0.200000 0
3.300000 0.200000 0
3.400000 0.200000 0
3.500000 0.200000 0
3.600000 0.200000 0
3.700000 0.200000 0
3.800000 0.200000 0
3.900000 0.200000 0
4.000000 0.200000 0
4.100000 0.200000 0
4.200000 0.200000 0
4.300000 0.200000 0
4.400000 0.200000 0
4.500000 0.200000 0
4.600000 0.200000 0
4.700000 0.200000 0
4.800000 0.200000 0
4.900000 0.200000 0
5.000000 0.200000 0
5.100000 0.200000 0
5.200000 0.200000 0
5.300000 0.200000 0
5.400000 0.200000 0
5.500000 0.200000 0
5.600000 0.200000 0
5.700000 0.200000 0
5.800000 0.200000 0
5.900000 0.200000 0
6.000000 0.200000 0
6.100000 0.200000 0
6.200000 0.200000 0
6.300000 0.200000 0
6.400000 0.200000 0
6.500000 0.200000 0
6.600000 0.200000 0
6.700000 0.200000 0
6.800000 0.200000 0
6.900000 0.200000 0
7.000000 0.200000 0
7.100000 0.200000 0
7.200000 0.200000 0
7.300000 0.200000 0
7.400000 0.200000 0
7.500000 0.200000 0
7.600000 0.200000 0
7.700000 0.200000 0
7.800000 0.200000 0
7.900000 0.200000 0
8.000000 0.200000 0
8.100000 0.200000 0
8.200000 0.200000 0
8.300000 0.200000 0
8.400000 0.200000 0
8.500000 0.200000 0
8.600000 0.200000 0
8.700000 0.200000 0
8.800000 0.200000 0
8.900000 0.200000 0
9.000000 0.200000 0
9.100000 0.200000 0
9.200000 0.200000 0
9.300000 0.200000 0
9.400000 0.200000 0
9.500000 0.200000 0
9.600000 0.200000 0
9.700000 0.200000 0
9.800000 0.200000 0
0.000000 0.300000 0
0.100000 0.300000 0
0.200000 0.300000 0
0.300000 0.300000 0
0.400000 0.300000 0
0.500000 0.300000 0
0.600000 0.300000 0
0.700000 0.300000 0
0.800000 0.300000 0
0.900000 0.300000 0
1.000000 0.300000 0
1.100000 0.300000 0
1.200000 0.300000 0
1.300000 0.300000 0
1.400000 0.300000 0
1.500000 0.300000 0
1.600000 0.300000 0
1.700000 0.300000 0
1.800000 0.300000 0
1.900000 0.300000 0
2.000000 0.300000 0
2.100000 0.300000 0
2.200000 0.300000 0
2.300000 0.300000 0
2.400000 0.300000 0
2.500000 0.300000 0
2.600000 0.300000 0
2.700000 0.300000 0
2.800000 0.300000 0
2.900000 0.300000 0
3.000000 0.300000 0
3.100000 0.300000 0
3.200000 0.300000 0
3.300000 0.300000 0
3.400000 0.300000 0
3.500000 0.300000 0
3.600000 0.300000 0
3.700000 0.300000 0
3.800000 0.300000 0
3.900000 0.300000 0
4.000000 0.300000 0
4.100000 0.300000 0
4.200000 0.300000 0
4.300000 0.300000 0
4.400000 0.300000 0
4.500000 0.300000 0
4.600000 0.300000 0
4.700000 0.300000 0
4.800000 0.300000 0
4.900000 0.300000 0
5.000000 0.300000 0
5.100000 0.300000 0
5.200000 0.300000 0
5.300000 0.300000 0
5.400000 0.300000 0
5.500000 0.300000 0
5.600000 0.300000 0
5.700000 0.300000 0
5.800000 0.300000 0
5.900000 0.300000 0
6.000000 0.300000 0
6.100000 0.300000 0
6.200000 0.300000 0
6.300000 0.300000 0
6.400000 0.300000 0
6.500000 0.300000 0
6.600000 0.300000 0
6.700000 0.300000 0
6.800000 0.300000 0
6.900000 0.300000 0
7.000000 0.300000 0
7.100000 0.300000 0
7.200000 0.300000 0
7.300000 0.300000 0
7.400000 0.300000 0
7.500000 0.300000 0
7.600000 0.300000 0
7.700000 0.300000 0
7.800000 0.300000 0
7.900000 0.300000 0
8.000000 0.300000 0
8.100000 0.300000 0
8.200000 0.300000 0
8.300000 0.300000 0
8.400000 0.300000 0
8.500000 0.300000 0
8.600000 0.300000 0
8.700000 0.300000 0
8.800000 0.300000 0
8.900000 0.300000 0
9.000000 0.300000 0
9.100000 0.300000 0
9.200000 0.300000 0
9.300000 0.300000 0
9.400000 0.300000 0
9.500000 0.300000 0
9.600000 0.300000 0
9.700000 0.300000 0
9.800000 0.300000 0
0.000000 0.400000 0
0.100000 0.400000 0
0.200000 0.400000 0
0.300000 0.400000 0
0.400000 0.400000 0
0.500000 0.400000 0
0.600000 0.400000 0
0.700000 0.400000 0
0.800000 0.400000 0
0.900000 0.400000 0
1.000000 0.400000 0
1.100000 0.400000 0
1.200000 0.400000 0
1.300000 0.400000 0
1.400000 0.400000 0
1.500000 0.400000 0
1.600000 0.400000 0
1.700000 0.400000 0
1.800000 0.400000 0
1.900000 0.400000 0
2.000000 0.400000 0
2.100000 0.400000 0
2.200000 0.400000 0
2.300000 0.400000 0
2.400000 0.400000 0
2.500000 0.400000 0
2.600000 0.400000 0
2.700000 0.400000 0
2.800000 0.400000 0
2.900000 0.400000 0
3.000000 0.400000 0
3.100000 0.400000 0
3.200000 0.400000 0
3.300000 0.400000 0
3.400000 0.400000 0
3.500000 0.400000 0
3.600000 0.400000 0
3.700000 0.400000 0
3.800000 0.400000 0
3.900000 0.400000 0
4.000000 0.400000 0
4.100000 0.400000 0
4.200000 0.400000 0
4.300000 0.400000 0
4.400000 0.400000 0
4.500000 0.400000 0
4.600000 0.400000 0
4.700000 0.400000 0
4.800000 0.400000 0
4.900000 0.400000 0
5.000000 0.400000 0
5.100000 0.400000 0
5.200000 0.400000 0
5.300000 0.400000 0
5.400000 0.400000 0
5.500000 0.400000 0
5.600000 0.400000 0
5.700000 0.400000 0
5.800000 0.400000 0
5.900000 0.400000 0
6.000000 0.400000 0
6.100000 0.400000 0
6.200000 0.400000 0
6.300000 0.400000 0
6.400000 0.400000 0
6.500000 0.400000 0
6.600000 0.400000 0
6.700000 0.400000 0
6.800000 0.400000 0
6.900000 0.400000 0
7.000000 0.400000 0
7.100000 0.400000 0
7.200000 0.400000 0
7.300000 0.400000 0
7.400000 0.400000 0
7.500000 0.400000 0
7.600000 0.400000 0
7.700000 0.400000 0
7.800000 0.400000 0
7.900000 0.400000 0
8.000000 0.400000 0
8.100000 0.400000 0
8.200000 0.400000 0
8.300000 0.400000 0
8.400000 0.400000 0
8.500000 0.400000 0
8.600000 0.400000 0
8.700000 0.400000 0
8.800000 0.400000 0
8.900000 0.400000 0
9.000000 0.400000 0
9.100000 0.400000 0
9.200000 0.400000 0
9.300000 0.400000 0
9.400000 0.400000 0
[...]
POINT_DATA 1881 

VECTORS velocity float
0.500000 0.000000 0
0.502264 0.000000 0
0.507272 0.000000 0
0.515411 0.000000 0
0.527062 0.000000 0
0.542486 0.000000 0
0.561610 0.000000 0
0.583723 0.000000 0
0.607243 0.000000 0
0.629639 0.000000 0
0.648755 0.000000 0
0.663429 0.000000 0
0.673357 0.000000 0
0.678773 0.000000 0
0.680234 0.000000 0
0.678513 0.000000 0
0.674504 0.000000 0
0.669185 0.000000 0
0.663574 0.000000 0
0.658620 0.000000 0
0.655130 0.000000 0
0.653641 0.000000 0
0.654293 0.000000 0
0.656628 0.000000 0
0.659613 0.000000 0
0.661913 0.000000 0
0.662321 0.000000 0
0.660005 0.000000 0
0.654595 0.000000 0
0.646129 0.000000 0
0.634944 0.000000 0
0.621560 0.000000 0
0.606603 0.000000 0
0.590751 0.000000 0
0.574706 0.000000 0
0.559185 0.000000 0
0.544906 0.000000 0
0.532604 0.000000 0
0.523052 0.000000 0
0.517113 0.000000 0
0.515696 0.000000 0
0.519402 0.000000 0
0.528321 0.000000 0
0.541986 0.000000 0
0.559297 0.000000 0
0.578527 0.000000 0
0.597450 0.000000 0
0.613633 0.000000 0
0.624935 0.000000 0
0.630124 0.000000 0
0.629133 0.000000 0
0.622463 0.000000 0
0.610940 0.000000 0
0.595614 0.000000 0
0.577653 0.000000 0
0.558245 0.000000 0
0.538522 0.000000 0
0.519542 0.000000 0
0.502287 0.000000 0
0.487678 0.000000 0
0.476577 0.000000 0
0.469719 0.000000 0
0.467550 0.000000 0
0.469903 0.000000 0
0.476168 0.000000 0
0.485703 0.000000 0
0.497941 0.000000 0
0.512375 0.000000 0
0.528483 0.000000 0
0.545602 0.000000 0
0.562781 0.000000 0
0.578706 0.000000 0
0.591782 0.000000 0
0.600440 0.000000 0
0.603639 0.000000 0
0.601144 0.000000 0
0.593168 0.000000 0
0.580221 0.000000 0
0.563173 0.000000 0
0.543249 0.000000 0
0.522006 0.000000 0
0.501239 0.000000 0
0.482796 0.000000 0
0.468290 0.000000 0
0.458797 0.000000 0
0.454637 0.000000 0
0.455261 0.000000 0
0.459425 0.000000 0
0.466013 0.000000 0
0.474243 0.000000 0
0.483630 0.000000 0
0.493899 0.000000 0
0.504861 0.000000 0
0.516285 0.000000 0
0.527772 0.000000 0
0.538659 0.000000 0
0.547978 0.000000 0
0.554480 0.000000 0
0.556149 0.000000 0
1.000000 -0.002271 0
1.005090 -0.007282 0
1.015742 -0.013155 0
1.032656 -0.019798 0
1.056677 -0.027081 0
1.088525 -0.034556 0
1.128352 -0.041248 0
1.174978 -0.045647 0
1.225296 -0.045933 0
1.272943 -0.041531 0
1.313016 -0.033811 0
1.343382 -0.024626 0
1.363780 -0.015370 0
1.374901 -0.006904 0
1.377975 0.000231 0
1.374576 0.005702 0
1.366520 0.009301 0
1.355831 0.010910 0
1.344614 0.010552 0
1.334876 0.008435 0
1.328321 0.004977 0
1.326143 0.000836 0
1.328718 -0.002988 0
1.335174 -0.005324 0
1.343280 -0.005293 0
1.350009 -0.002716 0
1.352563 0.001901 0
1.349191 0.007718 0
1.339242 0.013867 0
1.322921 0.019641 0
1.301015 0.024558 0
1.274646 0.028327 0
1.245110 0.030794 0
1.213787 0.031881 0
1.182094 0.031549 0
1.151469 0.029782 0
1.123346 0.026561 0
1.099156 0.021834 0
1.080318 0.015471 0
1.068226 0.007336 0
1.064198 -0.002308 0
1.069348 -0.012639 0
1.084241 -0.022597 0
1.108489 -0.030986 0
1.140506 -0.036546 0
1.177538 -0.038156 0
1.215793 -0.035108 0
1.250724 -0.027487 0
1.277686 -0.016494 0
1.293042 -0.004202 0
1.295323 0.007654 0
1.285409 0.018185 0
1.265126 0.026841 0
1.236745 0.033277 0
1.202732 0.037359 0
1.165550 0.039121 0
1.127535 0.038692 0
1.090828 0.036225 0
1.057356 0.031853 0
1.028791 0.025698 0
1.006461 0.017948 0
0.991208 0.009016 0
0.983292 -0.000196 0
0.982508 -0.008630 0
0.988305 -0.015811 0
1.000020 -0.021783 0
1.017033 -0.026680 0
1.038798 -0.030549 0
1.064763 -0.033232 0
1.094137 -0.034301 0
1.125571 -0.033107 0
1.156955 -0.029003 0
1.185449 -0.021735 0
1.207790 -0.011859 0
1.220900 -0.000707 0
1.222820 0.010468 0
1.213586 0.020919 0
1.194302 0.029990 0
1.166769 0.036966 0
1.133398 0.041162 0
1.097091 0.042006 0
1.061005 0.039207 0
1.028197 0.032947 0
1.001156 0.023997 0
0.981376 0.013650 0
0.969188 0.003534 0
0.963984 -0.004789 0
0.964673 -0.010754 0
0.969938 -0.014820 0
0.978703 -0.017618 0
0.990277 -0.019657 0
1.004313 -0.021233 0
1.020644 -0.022388 0
1.039052 -0.022912 0
1.059014 -0.022375 0
1.079522 -0.020207 0
1.099001 -0.015821 0
1.115355 -0.008171 0
1.125433 -0.002051 0
1.000000 -0.005100 0
1.005248 -0.015757 0
1.015908 -0.027577 0
1.032732 -0.040943 0
1.056895 -0.055877 0
1.089794 -0.071689 0
1.132608 -0.086470 0
1.185114 -0.096965 0
1.245194 -0.097989 0
1.300400 -0.087746 0
1.344119 -0.070467 0
1.375459 -0.050795 0
1.395495 -0.031552 0
1.405577 -0.014230 0
1.407222 0.000291 0
1.402073 0.011422 0
1.392016 0.018717 0
1.379232 0.021889 0
1.366064 0.020945 0
1.354802 0.016287 0
1.347432 0.008732 0
1.345508 -0.000399 0
1.349908 -0.009036 0
1.359956 -0.014573 0
1.372908 -0.014849 0
1.384553 -0.009292 0
1.390905 0.000810 0
1.389936 0.013310 0
1.381294 0.026257 0
1.365585 0.038212 0
1.343928 0.048258 0
1.317650 0.055886 0
1.288138 0.060839 0
1.256787 0.062994 0
1.224992 0.062295 0
1.194131 0.058724 0
1.165551 0.052288 0
1.140522 0.043004 0
1.120194 0.030905 0
1.105543 0.016097 0
1.097380 -0.001141 0
1.096649 -0.020060 0
1.104254 -0.039153 0
1.120458 -0.056273 0
1.144764 -0.069054 0
1.176041 -0.075290 0
1.212304 -0.073188 0
1.250277 -0.061897 0
1.285278 -0.042325 0
1.311823 -0.017646 0
1.325336 0.007622 0
1.324908 0.030186 0
1.312545 0.048652 0
1.290758 0.062382 0
1.262206 0.071182 0
1.229479 0.075184 0
1.194973 0.074709 0
1.160808 0.070165 0
1.128762 0.062023 0
1.100190 0.050880 0
1.075933 0.037568 0
1.056269 0.023154 0
1.041031 0.008686 0
1.030054 -0.005027 0
1.023310 -0.017525 0
1.020866 -0.028738 0
1.023012 -0.038786 0
1.030245 -0.047737 0
1.043176 -0.055344 0
1.062121 -0.060811 0
1.086636 -0.062821 0
1.115314 -0.059881 0
1.145838 -0.050837 0
1.175126 -0.035454 0
1.199524 -0.015034 0
1.215429 0.007309 0
1.220862 0.028511 0
1.216408 0.046811 0
1.203526 0.060898 0
1.184199 0.069672 0
1.160682 0.072388 0
1.135225 0.068890 0
1.109800 0.059847 0
1.085893 0.046819 0
1.064431 0.031965 0
1.045861 0.017389 0
1.030437 0.004512 0
1.018442 -0.005957 0
1.009839 -0.014032 0
1.004495 -0.020341 0
1.002493 -0.025612 0
1.004142 -0.030369 0
1.009835 -0.034740 0
1.019804 -0.038371 0
1.033866 -0.040472 0
1.051315 -0.039988 0
1.070991 -0.035833 0
1.091472 -0.026432 0
1.111244 -0.017973 0
1.000000 -0.007526 0
1.004266 -0.023201 0
1.013213 -0.040644 0
1.027843 -0.060788 0
1.049885 -0.084150 0
1.081902 -0.110279 0
1.127148 -0.136580 0
1.187922 -0.158245 0
1.267836 -0.161231 0
1.333833 -0.140470 0
1.379023 -0.108884 0
1.407834 -0.076016 0
1.424418 -0.045503 0
1.430810 -0.018644 0
1.428501 0.003724 0
1.418841 0.020901 0
1.403700 0.032143 0
1.385509 0.036866 0
1.367053 0.034987 0
1.351112 0.027072 0
1.340081 0.014272 0
1.335836 -0.001644 0
1.340151 -0.017446 0
1.353236 -0.028336 0
1.372133 -0.029895 0
1.390997 -0.020716 0
1.403315 -0.003488 0
1.405525 0.017322 0
1.397937 0.038209 0
1.382038 0.056999 0
1.359605 0.072483 0
1.332321 0.084107 0
1.301691 0.091646 0
1.269095 0.095016 0
1.235854 0.094194 0
1.203241 0.089212 0
1.172461 0.080161 0
1.144591 0.067181 0
1.120532 0.050442 0
1.100942 0.030145 0
1.086129 0.006583 0
1.076071 -0.019514 0
1.071234 -0.046405 0
1.072691 -0.071495 0
1.081720 -0.092128 0
1.099824 -0.105696 0
1.127570 -0.109347 0
1.163494 -0.100467 0
1.203765 -0.078047 0
1.242487 -0.044267 0
1.272653 -0.005437 0
1.288598 0.030970 0
1.290430 0.060985 0
1.280727 0.083610 0
1.262202 0.098632 0
1.237481 0.106348 0
1.208962 0.107356 0
1.178723 0.102430 0
1.148464 0.092465 0
1.119458 0.078521 0
1.092536 0.061863 0
1.068092 0.043912 0
1.046098 0.026013 0
1.026158 0.009086 0
1.007906 -0.006626 0
0.991576 -0.021487 0
0.978647 -0.036059 0
0.971550 -0.050712 0
0.972453 -0.065108 0
0.982351 -0.077761 0
1.000753 -0.086300 0
1.026012 -0.088206 0
1.055811 -0.081549 0
1.087509 -0.065548 0
1.118280 -0.041014 0
1.144989 -0.010874 0
1.164176 0.019937 0
1.174371 0.047323 0
1.176160 0.069173 0
1.170698 0.084004 0
1.159402 0.090979 0
1.143701 0.090089 0
1.124876 0.082278 0
1.104043 0.069364 0
1.082198 0.053681 0
1.060246 0.037526 0
1.038891 0.022628 0
1.018616 0.009842 0
1.000008 -0.000873 0
0.983827 -0.010272 0
0.971138 -0.019305 0
0.963275 -0.028575 0
0.961303 -0.038051 0
0.965596 -0.046943 0
0.975757 -0.053885 0
0.990816 -0.057333 0
1.009541 -0.055979 0
1.030754 -0.048423 0
1.053668 -0.040586 0
1.000000 -0.009375 0
1.002844 -0.028983 0
1.009002 -0.051160 0
1.019591 -0.077621 0
1.036799 -0.109944 0
1.064516 -0.148962 0
1.109228 -0.192502 0
1.178892 -0.237663 0
1.297118 -0.243912 0
1.369148 -0.198945 0
1.404011 -0.144481 0
1.421631 -0.096203 0
1.430528 -0.054541 0
1.431718 -0.018324 0
1.424532 0.012251 0
1.409061 0.036221 0
1.386909 0.052052 0
1.360833 0.058538 0
1.334267 0.055345 0
1.310742 0.043261 0
1.293131 0.024004 0
1.283030 -0.000478 0
1.281918 -0.026447 0
1.292604 -0.046561 0
1.314286 -0.052612 0
1.341916 -0.040480 0
1.366275 -0.013726 0
1.377862 0.018680 0
1.375499 0.049736 0
1.362581 0.076535 0
1.342057 0.097966 0
1.316096 0.113790 0
1.286283 0.124055 0
1.253933 0.128821 0
1.220280 0.128139 0
1.186529 0.122107 0
1.153792 0.110928 0
1.122960 0.094924 0
1.094567 0.074547 0
1.068622 0.050495 0
1.044322 0.023728 0
1.020041 -0.005165 0
0.994983 -0.035772 0
0.972806 -0.066758 0
0.960370 -0.096187 0
0.962682 -0.121142 0
0.980935 -0.136863 0
1.013211 -0.138099 0
1.055685 -0.121325 0
1.103199 -0.086540 0
1.149307 -0.038494 0
1.186232 0.012402 0
1.208326 0.056517 0
1.216727 0.090604 0
1.213810 0.114422 0
1.202008 0.128418 0
1.183609 0.133461 0
1.160662 0.130656 0
1.134900 0.121282 0
1.107669 0.106802 0
1.079809 0.088928 0
1.051515 0.069586 0
1.022392 0.050615 0
0.992039 0.033162 0
0.961079 0.017054 0
0.931850 0.000520 0
0.907933 -0.018760 0
0.893070 -0.041543 0
0.889485 -0.066145 0
0.896967 -0.089112 0
0.913780 -0.106484 0
0.937682 -0.114940 0
0.966433 -0.112337 0
0.997920 -0.097927 0
1.030142 -0.072517 0
1.061062 -0.038590 0
1.088158 -0.000874 0
1.108374 0.034824 0
1.120928 0.064569 0
1.126104 0.086428 0
1.124536 0.099384 0
1.116989 0.103415 0
1.104247 0.099503 0
1.087080 0.089494 0
1.066254 0.075759 0
1.042554 0.060694 0
1.016873 0.046141 0
0.990405 0.032925 0
0.964846 0.020755 0
0.942294 0.008528 0
0.924786 -0.005061 0
0.913815 -0.020534 0
0.910121 -0.037062 0
0.913479 -0.052826 0
0.922945 -0.065693 0
0.937265 -0.073772 0
0.955182 -0.075771 0
0.975606 -0.070559 0
0.997683 -0.063819 0
1.000000 -0.010380 0
1.000890 -0.032215 0
1.002988 -0.057397 0
1.007132 -0.088592 0
1.015305 -0.129083 0
1.031894 -0.182719 0
1.066435 -0.250967 0
1.136576 -0.346146 0
1.313562 -0.351499 0
1.358494 -0.247375 0
1.352712 -0.161380 0
1.344103 -0.102546 0
1.340860 -0.055601 0
1.338903 -0.012658 0
1.328867 0.026378 0
1.308747 0.058526 0
1.279692 0.080372 0
1.244555 0.089509 0
1.207296 0.085078 0
1.172294 0.068206 0
1.142980 0.041977 0
1.120421 0.009558 0
1.103773 -0.027029 0
1.097486 -0.060706 0
1.109804 -0.079211 0
1.141819 -0.072713 0
1.185237 -0.039442 0
1.224676 0.008090 0
1.246098 0.053481 0
1.251301 0.090430 0
1.245703 0.118958 0
1.232130 0.139871 0
1.212252 0.153800 0
1.187390 0.161009 0
1.158856 0.161588 0
1.127983 0.155691 0
1.095841 0.143720 0
1.062552 0.126399 0
1.026579 0.104776 0
0.985276 0.080386 0
0.937649 0.055162 0
0.887290 0.029826 0
0.841613 0.000830 0
0.808459 -0.036883 0
0.793588 -0.082005 0
0.797426 -0.126264 0
0.817314 -0.159883 0
0.850137 -0.175224 0
0.892942 -0.168039 0
0.942575 -0.137895 0
0.995227 -0.088477 0
1.045804 -0.028055 0
1.086621 0.030484 0
1.113570 0.078120 0
1.127862 0.113345 0
1.131193 0.136543 0
1.125367 0.148696 0
1.112098 0.151132 0
1.092832 0.145451 0
1.068531 0.133606 0
1.039500 0.118012 0
1.005542 0.101324 0
0.966813 0.085485 0
0.925155 0.070397 0
0.884770 0.053561 0
0.851187 0.031658 0
0.828717 0.002720 0
0.818788 -0.032264 0
0.820296 -0.069005 0
0.830859 -0.102058 0
0.848195 -0.127018 0
0.870585 -0.140861 0
0.896719 -0.141790 0
0.925413 -0.129262 0
0.955441 -0.104160 0
0.985485 -0.068893 0
1.014059 -0.027378 0
1.038766 0.014551 0
1.057341 0.051441 0
1.069213 0.080394 0
1.074283 0.100091 0
1.072690 0.110376 0
1.064679 0.112185 0
1.050559 0.107354 0
1.030771 0.098203 0
1.006081 0.086905 0
0.977887 0.074775 0
0.948428 0.061868 0
0.920624 0.047236 0
0.897465 0.029786 0
0.881139 0.009173 0
0.872402 -0.013911 0
0.870846 -0.037717 0
0.875438 -0.059768 0
0.884957 -0.077672 0
0.898281 -0.089571 0
0.914448 -0.094320 0
0.932626 -0.090924 0
0.951976 -0.085025 0
1.000000 -0.010276 0
0.998543 -0.031984 0
0.995560 -0.057407 0
0.991023 -0.089946 0
0.985403 -0.134716 0
0.980900 -0.200102 0
0.985058 -0.297194 0
1.020291 -0.484801 0
1.216658 -0.465842 0
1.165931 -0.238108 0
1.078068 -0.130102 0
1.032960 -0.084363 0
1.017198 -0.049351 0
1.022661 -0.006337 0
1.020704 0.042408 0
1.004812 0.085397 0
0.974779 0.116245 0
0.931209 0.130934 0
0.875817 0.127604 0
0.812541 0.107571 0
0.749603 0.075867 0
0.699770 0.038719 0
0.673789 -0.003516 0
0.675357 -0.052595 0
0.703925 -0.096951 0
0.756120 -0.115920 0
0.826460 -0.096592 0
0.905284 -0.042189 0
0.975607 0.023102 0
1.023415 0.076921 0
1.051327 0.117127 0
1.064833 0.147231 0
1.066368 0.168784 0
1.057558 0.182208 0
1.039717 0.187538 0
1.013628 0.185114 0
0.979074 0.176352 0
0.934776 0.164181 0
0.879712 0.151819 0
0.815883 0.139422 0
0.750596 0.121714 0
0.695445 0.090872 0
0.661014 0.043058 0
0.649964 -0.018734 0
0.656479 -0.085157 0
0.673777 -0.144873 0
0.698303 -0.189581 0
0.729320 -0.213733 0
0.767115 -0.213768 0
0.811427 -0.188831 0
0.860710 -0.141730 0
0.912112 -0.078998 0
0.961028 -0.011256 0
1.000181 0.049357 0
1.027400 0.096793 0
1.043177 0.130907 0
1.048385 0.152550 0
1.043958 0.163185 0
1.030593 0.164842 0
1.008563 0.160128 0
0.977913 0.151912 0
0.939359 0.142269 0
0.895629 0.130999 0
0.852014 0.115202 0
0.815002 0.091020 0
0.789607 0.056572 0
0.777508 0.013639 0
0.776892 -0.033122 0
0.784102 -0.078217 0
0.796219 -0.117012 0
0.811672 -0.146213 0
0.829877 -0.163468 0
0.850694 -0.167168 0
0.873944 -0.156653 0
0.899114 -0.132593 0
0.925322 -0.097212 0
0.951417 -0.054158 0
0.975961 -0.008460 0
0.996465 0.034119 0
1.011453 0.069484 0
1.020195 0.095905 0
1.022268 0.113016 0
1.017446 0.121631 0
1.005732 0.123399 0
0.987558 0.120235 0
0.964089 0.113576 0
0.937442 0.103792 0
0.910533 0.090187 0
0.886461 0.071716 0
0.867704 0.048011 0
0.855575 0.020001 0
0.850161 -0.010243 0
0.850533 -0.040099 0
0.855448 -0.066937 0
0.863822 -0.088536 0
0.874848 -0.103263 0
0.887936 -0.110117 0
0.902572 -0.108087 0
0.918105 -0.102825 0
1.000000 -0.008934 0
0.996216 -0.027789 0
0.988063 -0.049884 0
0.974208 -0.078445 0
0.952363 -0.118971 0
0.918907 -0.182385 0
0.868348 -0.290369 0
0.797261 -0.577757 0
0.559519 -0.398218 0
0.499847 0.000000 0
0.430203 -0.018556 0
0.370539 -0.041685 0
0.387414 -0.045309 0
0.438669 -0.016167 0
0.485214 0.044228 0
0.494180 0.104452 0
0.476865 0.153976 0
0.435620 0.188470 0
0.375234 0.203741 0
0.306377 0.194412 0
0.246983 0.154738 0
0.217947 0.085365 0
0.228698 -0.002620 0
0.269261 -0.090848 0
0.326656 -0.159981 0
0.395311 -0.195256 0
0.475089 -0.188616 0
0.566148 -0.141067 0
0.663519 -0.064660 0
0.750071 0.014701 0
0.812959 0.077530 0
0.854165 0.124821 0
0.877369 0.161065 0
0.884161 0.187650 0
0.875232 0.205509 0
0.850524 0.216326 0
0.809861 0.222566 0
0.754854 0.225757 0
0.691642 0.223666 0
0.631667 0.209502 0
0.587715 0.175601 0
0.567283 0.119407 0
0.569313 0.046310 0
0.586252 -0.032350 0
0.607681 -0.105823 0
0.628344 -0.168095 0
0.647835 -0.215432 0
0.668415 -0.244041 0
0.693285 -0.250152 0
0.724915 -0.231497 0
0.763754 -0.189168 0
0.808009 -0.128378 0
0.854355 -0.057591 0
0.897334 0.011741 0
0.931040 0.070343 0
0.954202 0.115552 0
0.966556 0.147909 0
0.968098 0.168918 0
0.958834 0.180840 0
0.938930 0.186280 0
0.909420 0.187210 0
0.873226 0.183603 0
0.835560 0.172827 0
0.802704 0.151022 0
0.779569 0.115966 0
0.767870 0.069151 0
0.766252 0.015434 0
0.771717 -0.038859 0
0.780898 -0.088333 0
0.791567 -0.129630 0
0.802796 -0.160679 0
0.814694 -0.179888 0
0.827987 -0.185861 0
0.843463 -0.177684 0
0.861464 -0.155541 0
0.881640 -0.121200 0
0.903045 -0.078020 0
0.924381 -0.030498 0
0.943775 0.015947 0
0.959098 0.056662 0
0.969130 0.089274 0
0.973055 0.113121 0
0.970394 0.128717 0
0.961131 0.137240 0
0.945960 0.139845 0
0.926486 0.137018 0
0.905153 0.128329 0
0.884750 0.112848 0
0.867686 0.090064 0
0.855424 0.060670 0
0.848359 0.026716 0
0.846091 -0.008871 0
0.847715 -0.043005 0
0.852173 -0.073057 0
0.858625 -0.097073 0
0.866546 -0.113685 0
0.875666 -0.122044 0
0.885826 -0.121092 0
0.896761 -0.116399 0
1.000000 -0.006504 0
0.994499 -0.020062 0
0.982512 -0.035408 0
0.961657 -0.054256 0
0.927284 -0.079426 0
0.870355 -0.116098 0
0.771404 -0.175559 0
0.588043 -0.274916 0
0.000000 -0.168437 0
0.000000 0.000000 0
0.000000 0.000000 0
-0.027621 -0.050645 0
-0.048835 -0.117485 0
-0.021482 -0.104137 0
0.009478 -0.013103 0
0.033197 0.093746 0
0.035917 0.174805 0
0.018534 0.232562 0
-0.009580 0.256840 0
-0.032551 0.235814 0
-0.025447 0.164288 0
0.016781 0.057000 0
0.072703 -0.054834 0
0.127572 -0.150560 0
0.178048 -0.223009 0
0.227758 -0.264362 0
0.283328 -0.267438 0
0.350290 -0.230629 0
0.429632 -0.160832 0
0.515945 -0.072529 0
0.592847 0.013023 0
0.648837 0.082811 0
0.684359 0.138779 0
0.700477 0.184336 0
0.697571 0.221166 0
0.676604 0.250477 0
0.640924 0.272017 0
0.598003 0.282396 0
0.559152 0.275004 0
0.535712 0.243348 0
0.533612 0.186098 0
0.550821 0.109273 0
0.579663 0.024087 0
0.609555 -0.057105 0
0.633897 -0.127255 0
0.650643 -0.185034 0
0.660440 -0.229658 0
0.666257 -0.259188 0
0.672824 -0.270274 0
0.685197 -0.259307 0
0.706670 -0.224830 0
0.737338 -0.169605 0
0.774349 -0.100587 0
0.813236 -0.027334 0
0.847485 0.039917 0
0.873088 0.095385 0
0.888662 0.138648 0
0.893541 0.170901 0
0.887600 0.194004 0
0.871677 0.209537 0
0.848271 0.217612 0
0.821843 0.216124 0
0.797960 0.201518 0
0.781320 0.171191 0
0.773987 0.125852 0
0.775158 0.069888 0
0.782350 0.009792 0
0.792458 -0.047769 0
0.802797 -0.098069 0
0.811704 -0.138913 0
0.818527 -0.169344 0
0.823639 -0.188662 0
0.828303 -0.195940 0
0.834216 -0.190134 0
0.842816 -0.170774 0
0.854666 -0.138795 0
0.869289 -0.096901 0
0.885442 -0.049193 0
0.901481 -0.000600 0
0.915173 0.044126 0
0.924921 0.081946 0
0.929695 0.111749 0
0.928975 0.133551 0
0.922883 0.147830 0
0.912348 0.154878 0
0.899102 0.154381 0
0.885350 0.145527 0
0.873189 0.127651 0
0.864060 0.101040 0
0.858523 0.067337 0
0.856420 0.029333 0
0.857185 -0.009600 0
0.859997 -0.046182 0
0.863993 -0.077848 0
0.868501 -0.102910 0
0.873158 -0.120304 0
0.877928 -0.129397 0
0.883009 -0.129182 0
0.888661 -0.125011 0
1.000000 -0.003446 0
0.993854 -0.010318 0
0.980521 -0.017052 0
0.957522 -0.023228 0
0.920149 -0.027680 0
0.859527 -0.026515 0
0.758905 -0.008068 0
0.584587 0.090315 0
0.269828 0.086499 0
0.000000 0.000000 0
0.000000 0.000000 0
0.000000 0.000000 0
-0.048729 -0.049533 0
-0.121403 -0.074480 0
-0.159394 -0.010451 0
-0.153325 0.078013 0
-0.136831 0.168637 0
-0.121558 0.233963 0
-0.100113 0.254819 0
-0.056710 0.210270 0
0.014778 0.105400 0
0.092932 -0.012789 0
0.154168 -0.113418 0
0.196657 -0.196200 0
0.222583 -0.260175 0
0.237517 -0.300546 0
0.250900 -0.311157 0
0.273275 -0.287381 0
0.311384 -0.230326 0
0.364965 -0.148525 0
0.427021 -0.055371 0
0.482728 0.033299 0
0.522914 0.109416 0
0.546316 0.174430 0
0.553288 0.229375 0
0.546571 0.272967 0
0.532385 0.301163 0
0.519990 0.307526 0
0.518877 0.285955 0
0.534621 0.235042 0
0.566516 0.160492 0
0.608807 0.073354 0
0.652434 -0.012427 0
0.688003 -0.086589 0
0.712641 -0.146917 0
0.725443 -0.194644 0
0.726803 -0.231051 0
0.718943 -0.256431 0
0.706424 -0.269098 0
0.695737 -0.265348 0
0.693322 -0.241315 0
0.702808 -0.196065 0
0.723512 -0.133496 0
0.751328 -0.061401 0
0.780392 0.010483 0
0.804482 0.074368 0
0.820806 0.127450 0
0.828232 0.169974 0
0.826870 0.202698 0
0.818328 0.225604 0
0.805894 0.237040 0
0.793989 0.233911 0
0.786746 0.213348 0
0.786438 0.174994 0
0.792939 0.122127 0
0.804438 0.060787 0
0.818523 -0.001866 0
0.832329 -0.059309 0
0.843784 -0.107582 0
0.851532 -0.145362 0
0.854895 -0.172618 0
0.854088 -0.189666 0
0.850410 -0.196440 0
0.846093 -0.192201 0
0.843645 -0.175995 0
0.844926 -0.147676 0
0.850479 -0.108799 0
0.859529 -0.062694 0
0.870486 -0.013787 0
0.881264 0.033219 0
0.889977 0.074747 0
0.895438 0.109063 0
0.897124 0.135527 0