# vtk DataFile Version 2.0
generated by CFD-lab course output (written by Tobias Neckel) 
ASCII

DATASET STRUCTURED_GRID
DIMENSIONS  99 19 1 
POINTS 1881 float

0.000000 0.000000 0
0.100000 0.000000 0
0.200000 0.000000 0
0.300000 0.000000 0
0.400000 0.000000 0
0.500000 0.000000 0
0.600000 0.000000 0
0.700000 0.000000 0
0.800000 0.000000 0
0.900000 0.000000 0
1.000000 0.000000 0
1.100000 0.000000 0
1.200000 0.000000 0
1.300000 0.000000 0
1.400000 0.000000 0
1.500000 0.000000 0
1.600000 0.000000 0
1.700000 0.000000 0
1.800000 0.000000 0
1.900000 0.000000 0
2.000000 0.000000 0
2.100000 0.000000 0
2.200000 0.000000 0
2.300000 0.000000 0
2.400000 0.000000 0
2.500000 0.000000 0
2.600000 0.000000 0
2.700000 0.000000 0
2.800000 0.000000 0
2.900000 0.000000 0
3.000000 0.000000 0
3.100000 0.000000 0
3.200000 0.000000 0
3.300000 0.000000 0
3.400000 0.000000 0
3.500000 0.000000 0
3.600000 0.000000 0
3.700000 0.000000 0
3.800000 0.000000 0
3.900000 0.000000 0
4.000000 0.000000 0
4.100000 0.000000 0
4.200000 0.000000 0
4.300000 0.000000 0
4.400000 0.000000 0
4.500000 0.000000 0
4.600000 0.000000 0
4.700000 0.000000 0
4.800000 0.000000 0
4.900000 0.000000 0
5.000000 0.000000 0
5.100000 0.000000 0
5.200000 0.000000 0
5.300000 0.000000 0
5.400000 0.000000 0
5.500000 0.000000 0
5.600000 0.000000 0
5.700000 0.000000 0
5.800000 0.000000 0
5.900000 0.000000 0
6.000000 0.000000 0
6.100000 0.000000 0
6.200000 0.000000 0
6.300000 0.000000 0
6.400000 0.000000 0
6.500000 0.000000 0
6.600000 0.000000 0
6.700000 0.000000 0
6.800000 0.000000 0
6.900000 0.000000 0
7.000000 0.000000 0
7.100000 0.000000 0
7.200000 0.000000 0
7.300000 0.000000 0
7.400000 0.000000 0
7.500000 0.000000 0
7.600000 0.000000 0
7.700000 0.000000 0
7.800000 0.000000 0
7.900000 0.000000 0
8.000000 0.000000 0
8.100000 0.000000 0
8.200000 0.000000 0
8.300000 0.000000 0
8.400000 0.000000 0
8.500000 0.000000 0
8.600000 0.000000 0
8.700000 0.000000 0
8.800000 0.000000 0
8.900000 0.000000 0
9.000000 0.000000 0
9.100000 0.000000 0
9.200000 0.000000 0
9.300000 0.000000 0
9.400000 0.000000 0
9.500000 0.000000 0
9.600000 0.000000 0
9.700000 0.000000 0
9.800000 0.000000 0
0.000000 0.100000 0
0.100000 0.100000 0
0.200000 0.100000 0
0.300000 0.100000 0
0.400000 0.100000 0
0.500000 0.100000 0
0.600000 0.100000 0
0.700000 0.100000 0
0.800000 0.100000 0
0.900000 0.100000 0
1.000000 0.100000 0
1.100000 0.100000 0
1.200000 0.100000 0
1.300000 0.100000 0
1.400000 0.100000 0
1.500000 0.100000 0
1.600000 0.100000 0
1.700000 0.100000 0
1.800000 0.100000 0
1.900000 0.100000 0
2.000000 0.100000 0
2.100000 0.100000 0
2.200000 0.100000 0
2.300000 0.100000 0
2.400000 0.100000 0
2.500000 0.100000 0
2.600000 0.100000 0
2.700000 0.100000 0
2.800000 0.100000 0
2.900000 0.100000 0
3.000000 0.100000 0
3.100000 0.100000 0
3.200000 0.100000 0
3.300000 0.100000 0
3.400000 0.100000 0
3.500000 0.100000 0
3.600000 0.100000 0
3.700000 0.100000 0
3.800000 0.100000 0
3.900000 0.100000 0
4.000000 0.100000 0
4.100000 0.100000 0
4.200000 0.100000 0
4.300000 0.100000 0
4.400000 0.100000 0
4.500000 0.100000 0
4.600000 0.100000 0
4.700000 0.100000 0
4.800000 0.100000 0
4.900000 0.100000 0
5.000000 0.100000 0
5.100000 0.100000 0
5.200000 0.100000 0
5.300000 0.100000 0
5.400000 0.100000 0
5.500000 0.100000 0
5.600000 0.100000 0
5.700000 0.100000 0
5.800000 0.100000 0
5.900000 0.100000 0
6.000000 0.100000 0
6.100000 0.100000 0
6.200000 0.100000 0
6.300000 0.100000 0
6.400000 0.100000 0
6.500000 0.100000 0
6.600000 0.100000 0
6.700000 0.100000 0
6.800000 0.100000 0
6.900000 0.100000 0
7.000000 0.100000 0
7.100000 0.100000 0
7.200000 0.100000 0
7.300000 0.100000 0
7.400000 0.100000 0
7.500000 0.100000 0
7.600000 0.100000 0
7.700000 0.100000 0
7.800000 0.100000 0
7.900000 0.100000 0
8.000000 0.100000 0
8.100000 0.100000 0
8.200000 0.100000 0
8.300000 0.100000 0
8.400000 0.100000 0
8.500000 0.100000 0
8.600000 0.100000 0
8.700000 0.100000 0
8.800000 0.100000 0
8.900000 0.100000 0
9.000000 0.100000 0
9.100000 0.100000 0
9.200000 0.100000 0
9.300000 0.100000 0
9.400000 0.100000 0
9.500000 0.100000 0
9.600000 0.100000 0
9.700000 0.100000 0
9.800000 0.100000 0
0.000000 0.200000 0
0.100000 0.200000 0
0.200000 0.200000 0
0.300000 0.200000 0
0.400000 0.200000 0
0.500000 0.200000 0
0.600000 0.200000 0
0.700000 0.200000 0
0.800000 0.200000 0
0.900000 0.200000 0
1.000000 0.200000 0
1.100000 0.200000 0
1.200000 0.200000 0
1.300000 0.200000 0
1.400000 0.200000 0
1.500000 0.200000 0
1.600000 0.200000 0
1.700000 0.200000 0
1.800000 0.200000 0
1.900000 0.200000 0
2.000000 0.200000 0
2.100000 0.200000 0
2.200000 0.200000 0
2.300000 0.200000 0
2.400000 0.200000 0
2.500000 0.200000 0
2.600000 0.200000 0
2.700000 0.200000 0
2.800000 0.200000 0
2.900000 0.200000 0
3.000000 0.200000 0
3.100000 0.200000 0
3.200000 0.200000 0
3.300000 0.200000 0
3.400000 0.200000 0
3.500000 0.200000 0
3.600000 0.200000 0
3.700000 0.200000 0
3.800000 0.200000 0
3.900000 0.200000 0
4.000000 0.200000 0
4.100000 0.200000 0
4.200000 0.200000 0
4.300000 0.200000 0
4.400000 0.200000 0
4.500000 0.200000 0
4.600000 0.200000 0
4.700000 0.200000 0
4.800000 0.200000 0
4.900000 0.200000 0
5.000000 0.200000 0
5.100000 0.200000 0
5.200000 0.200000 0
5.300000 0.200000 0
5.400000 0.200000 0
5.500000 0.200000 0
5.600000 0.200000 0
5.700000 0.200000 0
5.800000 0.200000 0
5.900000 0.200000 0
6.000000 0.200000 0
6.100000 0.200000 0
6.200000 0.200000 0
6.300000 0.200000 0
6.400000 0.200000 0
6.500000 0.200000 0
6.600000 0.200000 0
6.700000 0.200000 0
6.800000 0.200000 0
6.900000 0.200000 0
7.000000 0.200000 0
7.100000 0.200000 0
7.200000 0.200000 0
7.300000 0.200000 0
7.400000 0.200000 0
7.500000 0.200000 0
7.600000 0.200000 0
7.700000 0.200000 0
7.800000 0.200000 0
7.900000 0.200000 0
8.000000 0.200000 0
8.100000 0.200000 0
8.200000 0.200000 0
8.300000 0.200000 0
8.400000 0.200000 0
8.500000 0.200000 0
8.600000 0.200000 0
8.700000 0.200000 0
8.800000 0.200000 0
8.900000 0.200000 0
9.000000 0.200000 0
9.100000 0.200000 0
9.200000 0.200000 0
9.300000 0.200000 0
9.400000 0.200000 0
9.500000 0.200000 0
9.600000 0.200000 0
9.700000 0.200000 0
9.800000 0.200000 0
0.000000 0.300000 0
0.100000 0.300000 0
0.200000 0.300000 0
0.300000 0.300000 0
0.400000 0.300000 0
0.500000 0.300000 0
0.600000 0.300000 0
0.700000 0.300000 0
0.800000 0.300000 0
0.900000 0.300000 0
1.000000 0.300000 0
1.100000 0.300000 0
1.200000 0.300000 0
1.300000 0.300000 0
1.400000 0.300000 0
1.500000 0.300000 0
1.600000 0.300000 0
1.700000 0.300000 0
1.800000 0.300000 0
1.900000 0.300000 0
2.000000 0.300000 0
2.100000 0.300000 0
2.200000 0.300000 0
2.300000 0.300000 0
2.400000 0.300000 0
2.500000 0.300000 0
2.600000 0.300000 0
2.700000 0.300000 0
2.800000 0.300000 0
2.900000 0.300000 0
3.000000 0.300000 0
3.100000 0.300000 0
3.200000 0.300000 0
3.300000 0.300000 0
3.400000 0.300000 0
3.500000 0.300000 0
3.600000 0.300000 0
3.700000 0.300000 0
3.800000 0.300000 0
3.900000 0.300000 0
4.000000 0.300000 0
4.100000 0.300000 0
4.200000 0.300000 0
4.300000 0.300000 0
4.400000 0.300000 0
4.500000 0.300000 0
4.600000 0.300000 0
4.700000 0.300000 0
4.800000 0.300000 0
4.900000 0.300000 0
5.000000 0.300000 0
5.100000 0.300000 0
5.200000 0.300000 0
5.300000 0.300000 0
5.400000 0.300000 0
5.500000 0.300000 0
5.600000 0.300000 0
5.700000 0.300000 0
5.800000 0.300000 0
5.900000 0.300000 0
6.000000 0.300000 0
6.100000 0.300000 0
6.200000 0.300000 0
6.300000 0.300000 0
6.400000 0.300000 0
6.500000 0.300000 0
6.600000 0.300000 0
6.700000 0.300000 0
6.800000 0.300000 0
6.900000 0.300000 0
7.000000 0.300000 0
7.100000 0.300000 0
7.200000 0.300000 0
7.300000 0.300000 0
7.400000 0.300000 0
7.500000 0.300000 0
7.600000 0.300000 0
7.700000 0.300000 0
7.800000 0.300000 0
7.900000 0.300000 0
8.000000 0.300000 0
8.100000 0.300000 0
8.200000 0.300000 0
8.300000 0.300000 0
8.400000 0.300000 0
8.500000 0.300000 0
8.600000 0.300000 0
8.700000 0.300000 0
8.800000 0.300000 0
8.900000 0.300000 0
9.000000 0.300000 0
9.100000 0.300000 0
9.200000 0.300000 0
9.300000 0.300000 0
9.400000 0.300000 0
9.500000 0.300000 0
9.600000 0.300000 0
9.700000 0.300000 0
9.800000 0.300000 0
0.000000 0.400000 0
0.100000 0.400000 0
0.200000 0.400000 0
0.300000 0.400000 0
0.400000 0.400000 0
0.500000 0.400000 0
0.600000 0.400000 0
0.700000 0.400000 0
0.800000 0.400000 0
0.900000 0.400000 0
1.000000 0.400000 0
1.100000 0.400000 0
1.200000 0.400000 0
1.300000 0.400000 0
1.400000 0.400000 0
1.500000 0.400000 0
1.600000 0.400000 0
1.700000 0.400000 0
1.800000 0.400000 0
1.900000 0.400000 0
2.000000 0.400000 0
2.100000 0.400000 0
2.200000 0.400000 0
2.300000 0.400000 0
2.400000 0.400000 0
2.500000 0.400000 0
2.600000 0.400000 0
2.700000 0.400000 0
2.800000 0.400000 0
2.900000 0.400000 0
3.000000 0.400000 0
3.100000 0.400000 0
3.200000 0.400000 0
3.300000 0.400000 0
3.400000 0.400000 0
3.500000 0.400000 0
3.600000 0.400000 0
3.700000 0.400000 0
3.800000 0.400000 0
3.900000 0.400000 0
4.000000 0.400000 0
4.100000 0.400000 0
4.200000 0.400000 0
4.300000 0.400000 0
4.400000 0.400000 0
4.500000 0.400000 0
4.600000 0.400000 0
4.700000 0.400000 0
4.800000 0.400000 0
4.900000 0.400000 0
5.000000 0.400000 0
5.100000 0.400000 0
5.200000 0.400000 0
5.300000 0.400000 0
5.400000 0.400000 0
5.500000 0.400000 0
5.600000 0.400000 0
5.700000 0.400000 0
5.800000 0.400000 0
5.900000 0.400000 0
6.000000 0.400000 0
6.100000 0.400000 0
6.200000 0.400000 0
6.300000 0.400000 0
6.400000 0.400000 0
6.500000 0.400000 0
6.600000 0.400000 0
6.700000 0.400000 0
6.800000 0.400000 0
6.900000 0.400000 0
7.000000 0.400000 0
7.100000 0.400000 0
7.200000 0.400000 0
7.300000 0.400000 0
7.400000 0.400000 0
7.500000 0.400000 0
7.600000 0.400000 0
7.700000 0.400000 0
7.800000 0.400000 0
7.900000 0.400000 0
8.000000 0.400000 0
8.100000 0.400000 0
8.200000 0.400000 0
8.300000 0.400000 0
8.400000 0.400000 0
8.500000 0.400000 0
8.600000 0.400000 0
8.700000 0.400000 0
8.800000 0.400000 0
8.900000 0.400000 0
9.000000 0.400000 0
9.100000 0.400000 0
9.200000 0.400000 0
9.300000 0.400000 0
9.400000 0.400000 0
[...]
POINT_DATA 1881 

VECTORS velocity float
0.500000 0.000000 0
0.502073 0.000000 0
0.506712 0.000000 0
0.514341 0.000000 0
0.525386 0.000000 0
0.540182 0.000000 0
0.558761 0.000000 0
0.580562 0.000000 0
0.604199 0.000000 0
0.627392 0.000000 0
0.648199 0.000000 0
0.665630 0.000000 0
0.679462 0.000000 0
0.689844 0.000000 0
0.696976 0.000000 0
0.700952 0.000000 0
0.701739 0.000000 0
0.699307 0.000000 0
0.693695 0.000000 0
0.685111 0.000000 0
0.673962 0.000000 0
0.660837 0.000000 0
0.646462 0.000000 0
0.631652 0.000000 0
0.617258 0.000000 0
0.604118 0.000000 0
0.593018 0.000000 0
0.584671 0.000000 0
0.579746 0.000000 0
0.578875 0.000000 0
0.582428 0.000000 0
0.590190 0.000000 0
0.601184 0.000000 0
0.613648 0.000000 0
0.625339 0.000000 0
0.634122 0.000000 0
0.638579 0.000000 0
0.638266 0.000000 0
0.633344 0.000000 0
0.624356 0.000000 0
0.612065 0.000000 0
0.597327 0.000000 0
0.580999 0.000000 0
0.563900 0.000000 0
0.546804 0.000000 0
0.530456 0.000000 0
0.515601 0.000000 0
0.503006 0.000000 0
0.493489 0.000000 0
0.487908 0.000000 0
0.486993 0.000000 0
0.490958 0.000000 0
0.499588 0.000000 0
0.512398 0.000000 0
0.528651 0.000000 0
0.547339 0.000000 0
0.567137 0.000000 0
0.586351 0.000000 0
0.602984 0.000000 0
0.615043 0.000000 0
0.621118 0.000000 0
0.620846 0.000000 0
0.614571 0.000000 0
0.602956 0.000000 0
0.586968 0.000000 0
0.567818 0.000000 0
0.546876 0.000000 0
0.525594 0.000000 0
0.505424 0.000000 0
0.487736 0.000000 0
0.473726 0.000000 0
0.464283 0.000000 0
0.459843 0.000000 0
0.460191 0.000000 0
0.464421 0.000000 0
0.471606 0.000000 0
0.481035 0.000000 0
0.492221 0.000000 0
0.504833 0.000000 0
0.518584 0.000000 0
0.533087 0.000000 0
0.547721 0.000000 0
0.561547 0.000000 0
0.573342 0.000000 0
0.581788 0.000000 0
0.585833 0.000000 0
0.585008 0.000000 0
0.579292 0.000000 0
0.568925 0.000000 0
0.554489 0.000000 0
0.536976 0.000000 0
0.517810 0.000000 0
0.498792 0.000000 0
0.481894 0.000000 0
0.468910 0.000000 0
0.461102 0.000000 0
0.458990 0.000000 0
0.462220 0.000000 0
0.470874 0.000000 0
1.000000 -0.002078 0
1.004701 -0.006723 0
1.014604 -0.012282 0
1.030473 -0.018691 0
1.053239 -0.025858 0
1.083766 -0.033392 0
1.122402 -0.040394 0
1.168258 -0.045447 0
1.218635 -0.046826 0
1.267711 -0.043982 0
1.311045 -0.038216 0
1.346855 -0.031242 0
1.375103 -0.024201 0
1.396421 -0.017513 0
1.411408 -0.011103 0
1.420268 -0.004752 0
1.422826 0.001651 0
1.418874 0.008049 0
1.408393 0.014198 0
1.391768 0.019732 0
1.369841 0.024270 0
1.343834 0.027493 0
1.315253 0.029175 0
1.285778 0.029192 0
1.257161 0.027520 0
1.231117 0.024225 0
1.209231 0.019432 0
1.192909 0.013259 0
1.183401 0.005782 0
1.181852 -0.002690 0
1.189109 -0.011313 0
1.205119 -0.018751 0
1.228253 -0.023445 0
1.255111 -0.024137 0
1.281057 -0.020455 0
1.301396 -0.013222 0
1.312735 -0.004130 0
1.313811 0.005243 0
1.305076 0.013916 0
1.287822 0.021285 0
1.263761 0.027034 0
1.234731 0.031069 0
1.202520 0.033429 0
1.168802 0.034197 0
1.135139 0.033444 0
1.103020 0.031202 0
1.073890 0.027449 0
1.049159 0.022110 0
1.030150 0.015096 0
1.017988 0.006493 0
1.013485 -0.003053 0
1.017128 -0.012597 0
1.028990 -0.021442 0
1.048690 -0.029063 0
1.075367 -0.034938 0
1.107693 -0.038480 0
1.143788 -0.039003 0
1.181032 -0.035834 0
1.215985 -0.028678 0
1.244665 -0.018119 0
1.263270 -0.005788 0
1.269290 0.006561 0
1.262608 0.017902 0
1.244635 0.027612 0
1.217402 0.035146 0
1.183393 0.040098 0
1.145363 0.042229 0
1.106171 0.041457 0
1.068596 0.037863 0
1.035147 0.031703 0
1.007817 0.023458 0
0.987839 0.013888 0
0.975553 0.004096 0
0.970522 -0.004573 0
0.971877 -0.011410 0
0.978533 -0.016609 0
0.989581 -0.020609 0
1.004418 -0.023792 0
1.022702 -0.026356 0
1.044196 -0.028247 0
1.068493 -0.029129 0
1.094728 -0.028451 0
1.121398 -0.025612 0
1.146365 -0.020232 0
1.167045 -0.012481 0
1.180792 -0.003211 0
1.185515 0.006549 0
1.180556 0.016092 0
1.166476 0.024811 0
1.144541 0.031956 0
1.116722 0.036686 0
1.085620 0.038191 0
1.054266 0.035922 0
1.025718 0.029887 0
1.002545 0.020796 0
0.986365 0.009923 0
0.977734 -0.001116 0
0.976544 -0.011883 0
0.982808 -0.018092 0
1.000000 -0.004711 0
1.004849 -0.014623 0
1.014738 -0.025791 0
1.030466 -0.038656 0
1.053281 -0.053313 0
1.084692 -0.069181 0
1.126037 -0.084504 0
1.177349 -0.096232 0
1.236903 -0.099435 0
1.292990 -0.092383 0
1.339488 -0.079121 0
1.375870 -0.064043 0
1.403660 -0.049564 0
1.424600 -0.036306 0
1.439883 -0.023837 0
1.449742 -0.011407 0
1.453580 0.001399 0
1.450717 0.014437 0
1.440822 0.027106 0
1.424202 0.038548 0
1.401776 0.047927 0
1.374902 0.054577 0
1.345219 0.058042 0
1.314536 0.058075 0
1.284723 0.054643 0
1.257583 0.047912 0
1.234713 0.038192 0
1.217417 0.025815 0
1.206768 0.011047 0
1.203880 -0.005709 0
1.210096 -0.023260 0
1.226142 -0.039130 0
1.251023 -0.049972 0
1.281673 -0.052781 0
1.313301 -0.046262 0
1.340203 -0.031660 0
1.357317 -0.012405 0
1.362212 0.007664 0
1.355715 0.025994 0
1.339773 0.041322 0
1.316592 0.053096 0
1.288302 0.061245 0
1.256814 0.065932 0
1.223803 0.067382 0
1.190753 0.065782 0
1.159017 0.061249 0
1.129839 0.053859 0
1.104321 0.043737 0
1.083322 0.031168 0
1.067331 0.016661 0
1.056530 0.000857 0
1.051217 -0.015507 0
1.051844 -0.031562 0
1.058767 -0.046373 0
1.072220 -0.058996 0
1.092360 -0.068410 0
1.119018 -0.073324 0
1.151173 -0.072179 0
1.186561 -0.063614 0
1.221613 -0.047267 0
1.251708 -0.024609 0
1.271999 0.000677 0
1.279469 0.024666 0
1.274724 0.045215 0
1.259658 0.061250 0
1.236623 0.072046 0
1.208188 0.077228 0
1.176940 0.076773 0
1.145291 0.071030 0
1.115275 0.060786 0
1.088360 0.047314 0
1.065342 0.032271 0
1.046398 0.017324 0
1.031407 0.003682 0
1.020336 -0.008005 0
1.013015 -0.017697 0
1.009372 -0.025877 0
1.009656 -0.033112 0
1.014366 -0.039769 0
1.024087 -0.045781 0
1.039093 -0.050520 0
1.059008 -0.052893 0
1.082713 -0.051625 0
1.108428 -0.045636 0
1.133841 -0.034415 0
1.156218 -0.018459 0
1.172661 0.000247 0
1.181005 0.019049 0
1.181050 0.036025 0
1.173738 0.049764 0
1.160581 0.058929 0
1.143427 0.062464 0
1.124165 0.059909 0
1.104451 0.051726 0
1.085526 0.039358 0
1.068175 0.024814 0
1.052831 0.009822 0
1.039892 -0.005073 0
1.029153 -0.014057 0
1.000000 -0.006936 0
1.003863 -0.021476 0
1.012026 -0.037909 0
1.025515 -0.057241 0
1.046106 -0.080090 0
1.076412 -0.106148 0
1.119771 -0.133042 0
1.178645 -0.156293 0
1.256815 -0.162445 0
1.322546 -0.146558 0
1.369258 -0.121099 0
1.401574 -0.095428 0
1.424458 -0.072945 0
1.441520 -0.053732 0
1.454944 -0.036237 0
1.465101 -0.018449 0
1.470324 0.000676 0
1.468515 0.020803 0
1.458663 0.040708 0
1.440960 0.058772 0
1.416529 0.073562 0
1.386975 0.084042 0
1.354152 0.089533 0
1.320061 0.089681 0
1.286779 0.084467 0
1.256301 0.074230 0
1.230294 0.059594 0
1.209867 0.041204 0
1.195619 0.019328 0
1.188129 -0.006006 0
1.188910 -0.033563 0
1.199741 -0.059662 0
1.220804 -0.078963 0
1.250551 -0.086406 0
1.285740 -0.078982 0
1.320935 -0.057241 0
1.348910 -0.026145 0
1.363240 0.006844 0
1.362759 0.036357 0
1.350519 0.060409 0
1.329643 0.078504 0
1.302849 0.090846 0
1.272337 0.097928 0
1.239859 0.100257 0
1.206833 0.098229 0
1.174451 0.092116 0
1.143745 0.082144 0
1.115590 0.068625 0
1.090634 0.052085 0
1.069164 0.033285 0
1.050978 0.013061 0
1.035498 -0.007910 0
1.022481 -0.028987 0
1.013076 -0.049432 0
1.009482 -0.068523 0
1.014119 -0.085269 0
1.028642 -0.097807 0
1.052996 -0.103368 0
1.085353 -0.099109 0
1.122534 -0.083261 0
1.160390 -0.056172 0
1.194027 -0.021200 0
1.218179 0.015178 0
1.230056 0.047424 0
1.230717 0.073247 0
1.221985 0.091569 0
1.205959 0.101914 0
1.184774 0.104357 0
1.160411 0.099531 0
1.134559 0.088637 0
1.108545 0.073395 0
1.083335 0.055853 0
1.059541 0.038033 0
1.037397 0.021492 0
1.016850 0.006985 0
0.998039 -0.005643 0
0.981609 -0.017245 0
0.969020 -0.028781 0
0.962244 -0.040782 0
0.962774 -0.052967 0
0.971043 -0.064044 0
0.986373 -0.072066 0
1.007301 -0.075026 0
1.031971 -0.071355 0
1.058392 -0.060267 0
1.084558 -0.042026 0
1.108373 -0.018234 0
1.127372 0.007707 0
1.139687 0.032083 0
1.145295 0.052428 0
1.144823 0.067000 0
1.139169 0.074610 0
1.129279 0.074900 0
1.116010 0.068527 0
1.100158 0.057072 0
1.082532 0.042618 0
1.063935 0.027167 0
1.044870 0.011794 0
1.025369 0.002300 0
1.000000 -0.008584 0
1.002452 -0.026663 0
1.007834 -0.047450 0
1.017274 -0.072741 0
1.032959 -0.104212 0
1.058757 -0.142842 0
1.101105 -0.186722 0
1.167926 -0.233259 0
1.282277 -0.243327 0
1.352268 -0.204828 0
1.386311 -0.158160 0
1.403635 -0.119257 0
1.413472 -0.089508 0
1.420711 -0.066781 0
1.428722 -0.047416 0
1.438803 -0.026789 0
1.448110 -0.002017 0
1.450386 0.026094 0
1.442908 0.054655 0
1.425894 0.080676 0
1.400867 0.101904 0
1.369702 0.116947 0
1.334385 0.124949 0
1.297060 0.125442 0
1.260052 0.118399 0
1.225716 0.104393 0
1.195949 0.084624 0
1.171506 0.060496 0
1.151796 0.032795 0
1.135589 0.001011 0
1.122316 -0.034857 0
1.115207 -0.071012 0
1.118378 -0.100773 0
1.134615 -0.117712 0
1.164608 -0.116648 0
1.205162 -0.094837 0
1.248713 -0.054712 0
1.284539 -0.006182 0
1.303329 0.038717 0
1.305693 0.074437 0
1.295940 0.100766 0
1.277526 0.118551 0
1.253132 0.128920 0
1.224829 0.132884 0
1.194240 0.131189 0
1.162683 0.124336 0
1.131256 0.112720 0
1.100830 0.096847 0
1.071877 0.077593 0
1.044107 0.056317 0
1.016316 0.034523 0
0.987185 0.012994 0
0.957026 -0.009134 0
0.929146 -0.033368 0
0.909514 -0.060030 0
0.903017 -0.087561 0
0.910822 -0.112191 0
0.931359 -0.128882 0
0.961877 -0.133147 0
0.999245 -0.122300 0
1.040164 -0.096100 0
1.081059 -0.057112 0
1.117656 -0.011361 0
1.144778 0.032678 0
1.160743 0.069323 0
1.166504 0.096807 0
1.163488 0.114442 0
1.153297 0.122324 0
1.137498 0.121248 0
1.117490 0.112655 0
1.094412 0.098540 0
1.069065 0.081277 0
1.041894 0.063265 0
1.013205 0.046376 0
0.983670 0.031356 0
0.954891 0.017548 0
0.929412 0.003147 0
0.910009 -0.013741 0
0.898952 -0.033516 0
0.897240 -0.054574 0
0.904314 -0.074114 0
0.918671 -0.089145 0
0.938517 -0.097219 0
0.962099 -0.096722 0
0.987813 -0.086998 0
1.014208 -0.068435 0
1.039918 -0.042562 0
1.063450 -0.012259 0
1.082644 0.018106 0
1.096192 0.044631 0
1.103933 0.065058 0
1.105996 0.078010 0
1.102651 0.083070 0
1.094247 0.080848 0
1.081233 0.072837 0
1.064209 0.061037 0
1.043926 0.047483 0
1.021251 0.033493 0
0.997192 0.024566 0
1.000000 -0.009398 0
1.000534 -0.029323 0
1.001917 -0.052736 0
1.004980 -0.082368 0
1.011668 -0.121571 0
1.026272 -0.174286 0
1.058124 -0.242197 0
1.124525 -0.337455 0
1.294982 -0.346787 0
1.336559 -0.250601 0
1.327474 -0.172479 0
1.313234 -0.122591 0
1.299765 -0.090010 0
1.288783 -0.068976 0
1.283946 -0.054330 0
1.289626 -0.037839 0
1.305882 -0.010911 0
1.321243 0.026000 0
1.324203 0.065194 0
1.315554 0.100806 0
1.297628 0.129748 0
1.272126 0.150518 0
1.240528 0.162169 0
1.204637 0.164010 0
1.166875 0.155808 0
1.130182 0.138330 0
1.096913 0.113808 0
1.066561 0.085367 0
1.035145 0.055255 0
0.999063 0.023486 0
0.959256 -0.013169 0
0.922300 -0.055714 0
0.901095 -0.098366 0
0.903509 -0.132637 0
0.929209 -0.149535 0
0.973782 -0.141351 0
1.030601 -0.105519 0
1.090544 -0.047770 0
1.141303 0.015202 0
1.173083 0.067798 0
1.187927 0.106671 0
1.189731 0.133653 0
1.181392 0.150623 0
1.165237 0.159149 0
1.143191 0.160373 0
1.116817 0.155099 0
1.087200 0.143996 0
1.054628 0.128003 0
1.018327 0.108807 0
0.976987 0.088847 0
0.930654 0.069987 0
0.882782 0.051386 0
0.839966 0.029058 0
0.808703 -0.001912 0
0.792733 -0.042384 0
0.792092 -0.086568 0
0.804166 -0.126141 0
0.826073 -0.154417 0
0.855570 -0.166991 0
0.890841 -0.161545 0
0.930035 -0.137985 0
0.971033 -0.098691 0
1.011287 -0.048539 0
1.047029 0.004338 0
1.073822 0.051523 0
1.090950 0.088828 0
1.098901 0.115124 0
1.098540 0.130350 0
1.090831 0.135341 0
1.076635 0.131726 0
1.056565 0.121822 0
1.030984 0.108373 0
1.000318 0.093896 0
0.965730 0.079720 0
0.929772 0.065302 0
0.896334 0.048620 0
0.869565 0.027643 0
0.852248 0.001685 0
0.844941 -0.028008 0
0.846598 -0.058323 0
0.855433 -0.085469 0
0.869712 -0.106264 0
0.888035 -0.118449 0
0.909283 -0.120646 0
0.932474 -0.112371 0
0.956671 -0.094125 0
0.980942 -0.067470 0
1.004311 -0.035014 0
1.025485 -0.000655 0
1.042512 0.031142 0
1.054473 0.057200 0
1.060914 0.075894 0
1.061590 0.086651 0
1.056425 0.089947 0
1.045534 0.087111 0
1.029318 0.079925 0
1.008595 0.070125 0
0.984718 0.058527 0
0.959891 0.050315 0
1.000000 -0.009128 0
0.998255 -0.028590 0
0.994689 -0.051899 0
0.989256 -0.082493 0
0.982372 -0.125500 0
0.976103 -0.189287 0
0.977707 -0.284964 0
1.008995 -0.470112 0
1.198076 -0.455365 0
1.145082 -0.237330 0
1.053301 -0.134841 0
1.002064 -0.091540 0
0.965168 -0.065048 0
0.933361 -0.050961 0
0.908863 -0.048260 0
0.903302 -0.048729 0
0.926320 -0.033639 0
0.971014 0.007767 0
1.010030 0.060339 0
1.031612 0.107246 0
1.040905 0.145326 0
1.038495 0.174041 0
1.024173 0.192434 0
0.998182 0.199092 0
0.961008 0.192851 0
0.912946 0.174357 0
0.854580 0.148252 0
0.788900 0.122273 0
0.722921 0.100304 0
0.666132 0.076912 0
0.627398 0.041916 0
0.610630 -0.012844 0
0.614425 -0.081981 0
0.636049 -0.145831 0
0.672858 -0.186927 0
0.722827 -0.196227 0
0.783963 -0.171472 0
0.853079 -0.116884 0
0.924092 -0.043822 0
0.984776 0.027811 0
1.026954 0.084117 0
1.052855 0.125084 0
1.064914 0.153413 0
1.065124 0.171085 0
1.055169 0.179607 0
1.036241 0.180326 0
1.008701 0.174908 0
0.971960 0.165719 0
0.925328 0.155234 0
0.870263 0.143994 0
0.812615 0.128732 0
0.761951 0.103687 0
0.727167 0.064952 0
0.711911 0.013875 0
0.713000 -0.043409 0
0.724075 -0.098987 0
0.740795 -0.146166 0
0.761494 -0.180281 0
0.786091 -0.197912 0
0.814911 -0.196765 0
0.847802 -0.176292 0
0.883766 -0.138362 0
0.921075 -0.087355 0
0.957461 -0.029855 0
0.988949 0.025404 0
1.012552 0.071731 0
1.027685 0.106855 0
1.034323 0.130396 0
1.032654 0.143156 0
1.022854 0.146923 0
1.005061 0.144193 0
0.979677 0.137526 0
0.948015 0.128522 0
0.912912 0.116926 0
0.878610 0.100757 0
0.849625 0.077760 0
0.829209 0.047239 0
0.818485 0.010889 0
0.816491 -0.027860 0
0.821058 -0.065060 0
0.830204 -0.097222 0
0.842613 -0.121742 0
0.857548 -0.136784 0
0.874602 -0.141155 0
0.893433 -0.134380 0
0.913586 -0.116897 0
0.934432 -0.090197 0
0.955194 -0.056797 0
0.974958 -0.020091 0
0.992211 0.015646 0
1.005416 0.046660 0
1.013690 0.070896 0
1.016426 0.087560 0
1.013262 0.096906 0
1.004157 0.099945 0
0.989547 0.097977 0
0.970526 0.092084 0
0.948907 0.082196 0
0.927453 0.073983 0
1.000000 -0.007662 0
0.996032 -0.024021 0
0.987498 -0.043737 0
0.973054 -0.070049 0
0.950377 -0.108411 0
0.915731 -0.169610 0
0.863384 -0.275082 0
0.789272 -0.557822 0
0.551023 -0.386610 0
0.490917 0.000000 0
0.419523 -0.019894 0
0.355696 -0.034450 0
0.340225 -0.021306 0
0.341694 -0.012672 0
0.340835 -0.024274 0
0.350958 -0.055302 0
0.388316 -0.078629 0
0.459136 -0.057716 0
0.546710 0.004591 0
0.620413 0.069925 0
0.670333 0.122859 0
0.700075 0.167246 0
0.708408 0.202479 0
0.694335 0.227173 0
0.657448 0.241044 0
0.599001 0.244763 0
0.524758 0.237861 0
0.447962 0.217036 0
0.387162 0.178035 0
0.357362 0.119019 0
0.362397 0.042340 0
0.393529 -0.042738 0
0.433345 -0.123786 0
0.472528 -0.191075 0
0.511447 -0.236314 0
0.554311 -0.252453 0
0.605099 -0.235771 0
0.665318 -0.187900 0
0.733145 -0.116494 0
0.802808 -0.035066 0
0.862063 0.038590 0
0.904894 0.095691 0
0.932434 0.138353 0
0.945626 0.168892 0
0.945201 0.189256 0
0.931493 0.201566 0
0.904522 0.208276 0
0.864933 0.211376 0
0.815878 0.210506 0
0.764463 0.201563 0
0.720368 0.178304 0
0.691523 0.136840 0
0.680373 0.079105 0
0.683907 0.012264 0
0.696061 -0.054539 0
0.710971 -0.114355 0
0.725784 -0.163554 0
0.740157 -0.199709 0
0.755376 -0.220408 0
0.773395 -0.223256 0
0.795754 -0.206838 0
0.822735 -0.171962 0
0.853224 -0.122231 0
0.885186 -0.063533 0
0.915915 -0.003566 0
0.941426 0.050094 0
0.959839 0.093356 0
0.970287 0.125383 0
0.972273 0.146813 0
0.965537 0.159321 0
0.950248 0.165002 0
0.927502 0.165421 0
0.899815 0.160664 0
0.871058 0.149129 0
0.845512 0.128595 0
0.826449 0.098027 0
0.815203 0.058789 0
0.811286 0.014410 0
0.813166 -0.030574 0
0.818853 -0.072030 0
0.826761 -0.107018 0
0.835987 -0.133603 0
0.846250 -0.150433 0
0.857697 -0.156525 0
0.870606 -0.151349 0
0.885090 -0.135118 0
0.900913 -0.109073 0
0.917481 -0.075534 0
0.933943 -0.037668 0
0.949198 0.000688 0
0.961598 0.035724 0
0.969974 0.064887 0
0.973513 0.087081 0
0.971743 0.102218 0
0.964636 0.110827 0
0.952762 0.113557 0
0.937387 0.110765 0
0.920378 0.101599 0
0.904212 0.092796 0
1.000000 -0.005166 0
0.994441 -0.016095 0
0.982323 -0.028920 0
0.961270 -0.045367 0
0.926660 -0.068167 0
0.869404 -0.102284 0
0.770114 -0.158499 0
0.586667 -0.254017 0
0.000000 -0.157011 0
0.000000 0.000000 0
0.000000 0.000000 0
-0.029840 -0.022187 0
-0.046641 -0.051050 0
-0.050604 -0.051574 0
-0.060791 -0.057529 0
-0.059408 -0.096217 0
-0.032261 -0.141823 0
0.024890 -0.150633 0
0.118453 -0.100944 0
0.227802 -0.016382 0
0.308912 0.065659 0
0.361633 0.135963 0
0.388442 0.198172 0
0.389238 0.250050 0
0.366989 0.288188 0
0.329890 0.307054 0
0.291876 0.299299 0
0.268511 0.259880 0
0.269906 0.190916 0
0.296725 0.101686 0
0.340124 0.005754 0
0.383947 -0.083792 0
0.420007 -0.160984 0
0.446655 -0.223937 0
0.466645 -0.268709 0
0.486044 -0.289877 0
0.511951 -0.282479 0
0.549500 -0.244930 0
0.599596 -0.181313 0
0.658727 -0.101108 0
0.719074 -0.017971 0
0.768805 0.054712 0
0.803913 0.112680 0
0.824001 0.158316 0
0.828972 0.193740 0
0.819062 0.221004 0
0.795596 0.241468 0
0.762275 0.254363 0
0.725988 0.255707 0
0.695548 0.239508 0
0.678147 0.201678 0
0.676099 0.143690 0
0.686683 0.072577 0
0.704570 -0.001805 0
0.723442 -0.070465 0
0.739415 -0.128704 0
0.750823 -0.175348 0
0.757770 -0.209870 0
0.762011 -0.231149 0
0.766560 -0.237142 0
0.774689 -0.225629 0
0.788576 -0.195830 0
0.808400 -0.149804 0
0.832496 -0.092543 0
0.858204 -0.030833 0
0.881892 0.027809 0
0.900391 0.077996 0
0.912113 0.117965 0
0.916152 0.147908 0
0.912204 0.168951 0
0.900849 0.182230 0
0.883909 0.187962 0
0.864465 0.184971 0
0.846192 0.171234 0
0.832191 0.145371 0
0.824029 0.108075 0
0.821617 0.062409 0
0.823802 0.012933 0
0.828987 -0.035421 0
0.835512 -0.078649 0
0.842119 -0.114351 0
0.848109 -0.141226 0
0.853410 -0.158487 0
0.858535 -0.165503 0
0.864343 -0.161767 0
0.871644 -0.147199 0
0.880826 -0.122583 0
0.891685 -0.089822 0
0.903508 -0.051803 0
0.915269 -0.012005 0
0.925559 0.025888 0
0.933050 0.058984 0
0.936848 0.085793 0
0.936476 0.105785 0
0.931969 0.118927 0
0.923950 0.125225 0
0.913599 0.124468 0
0.902437 0.115371 0
0.892163 0.105813 0
1.000000 -0.002108 0
0.993928 -0.006348 0
0.980726 -0.010562 0
0.957926 -0.014379 0
0.920828 -0.016536 0
0.860738 -0.013055 0
0.761145 0.007661 0
0.588903 0.110043 0
0.275345 0.097805 0
0.000000 0.000000 0
0.000000 0.000000 0
0.000000 0.000000 0
-0.024430 -0.002788 0
-0.110940 0.001474 0
-0.176168 -0.015475 0
-0.194907 -0.083838 0
-0.186663 -0.162933 0
-0.161304 -0.208435 0
-0.110728 -0.198326 0
-0.030365 -0.120539 0
0.055787 -0.010975 0
0.123793 0.087713 0
0.169084 0.174871 0
0.194676 0.248626 0
0.206537 0.300398 0
0.215172 0.319884 0
0.232707 0.299249 0
0.267389 0.239017 0
0.320025 0.149831 0
0.383845 0.048807 0
0.442460 -0.044879 0
0.486494 -0.122622 0
0.514509 -0.186498 0
0.526574 -0.237713 0
0.525186 -0.275701 0
0.516216 -0.297760 0
0.508522 -0.299228 0
0.511374 -0.275545 0
0.530561 -0.225723 0
0.565791 -0.154546 0
0.611269 -0.071490 0
0.656953 0.010851 0
0.692760 0.083156 0
0.715726 0.143832 0
0.725184 0.194194 0
0.722037 0.234942 0
0.709355 0.265063 0
0.692768 0.280985 0
0.679564 0.277238 0
0.676109 0.249409 0
0.685084 0.197759 0
0.704840 0.128313 0
0.731099 0.050642 0
0.758368 -0.024487 0
0.781405 -0.089377 0
0.797882 -0.141731 0
0.806649 -0.181905 0
0.807622 -0.210896 0
0.802142 -0.229197 0
0.793260 -0.235932 0
0.785316 -0.228852 0
0.782565 -0.205671 0
0.787438 -0.166150 0
0.799674 -0.113334 0
0.816859 -0.052960 0
0.835555 0.007910 0
0.851883 0.063138 0
0.863534 0.109624 0
0.869329 0.146724 0
0.869075 0.174627 0
0.863695 0.193300 0
0.855246 0.201809 0
0.846502 0.198385 0
0.840089 0.181408 0
0.837612 0.150764 0
0.839327 0.108607 0
0.844479 0.059022 0
0.851865 0.007047 0
0.860017 -0.042278 0
0.867540 -0.085156 0
0.873346 -0.119609 0
0.876739 -0.144887 0
0.877601 -0.160852 0
0.876529 -0.167451 0