# vtk DataFile Version 2.0
generated by CFD-lab course output (written by Tobias Neckel) 
ASCII

DATASET STRUCTURED_GRID
DIMENSIONS  99 19 1 
POINTS 1881 float

0.000000 0.000000 0
0.100000 0.000000 0
0.200000 0.000000 0
0.300000 0.000000 0
0.400000 0.000000 0
0.500000 0.000000 0
0.600000 0.000000 0
0.700000 0.000000 0
0.800000 0.000000 0
0.900000 0.000000 0
1.000000 0.000000 0
1.100000 0.000000 0
1.200000 0.000000 0
1.300000 0.000000 0
1.400000 0.000000 0
1.500000 0.000000 0
1.600000 0.000000 0
1.700000 0.000000 0
1.800000 0.000000 0
1.900000 0.000000 0
2.000000 0.000000 0
2.100000 0.000000 0
2.200000 0.000000 0
2.300000 0.000000 0
2.400000 0.000000 0
2.500000 0.000000 0
2.600000 0.000000 0
2.700000 0.000000 0
2.800000 0.000000 0
2.900000 0.000000 0
3.000000 0.000000 0
3.100000 0.000000 0
3.200000 0.000000 0
3.300000 0.000000 0
3.400000 0.000000 0
3.500000 0.000000 0
3.600000 0.000000 0
3.700000 0.000000 0
3.800000 0.000000 0
3.900000 0.000000 0
4.000000 0.000000 0
4.100000 0.000000 0
4.200000 0.000000 0
4.300000 0.000000 0
4.400000 0.000000 0
4.500000 0.000000 0
4.600000 0.000000 0
4.700000 0.000000 0
4.800000 0.000000 0
4.900000 0.000000 0
5.000000 0.000000 0
5.100000 0.000000 0
5.200000 0.000000 0
5.300000 0.000000 0
5.400000 0.000000 0
5.500000 0.000000 0
5.600000 0.000000 0
5.700000 0.000000 0
5.800000 0.000000 0
5.900000 0.000000 0
6.000000 0.000000 0
6.100000 0.000000 0
6.200000 0.000000 0
6.300000 0.000000 0
6.400000 0.000000 0
6.500000 0.000000 0
6.600000 0.000000 0
6.700000 0.000000 0
6.800000 0.000000 0
6.900000 0.000000 0
7.000000 0.000000 0
7.100000 0.000000 0
7.200000 0.000000 0
7.300000 0.000000 0
7.400000 0.000000 0
7.500000 0.000000 0
7.600000 0.000000 0
7.700000 0.000000 0
7.800000 0.000000 0
7.900000 0.000000 0
8.000000 0.000000 0
8.100000 0.000000 0
8.200000 0.000000 0
8.300000 0.000000 0
8.400000 0.000000 0
8.500000 0.000000 0
8.600000 0.000000 0
8.700000 0.000000 0
8.800000 0.000000 0
8.900000 0.000000 0
9.000000 0.000000 0
9.100000 0.000000 0
9.200000 0.000000 0
9.300000 0.000000 0
9.400000 0.000000 0
9.500000 0.000000 0
9.600000 0.000000 0
9.700000 0.000000 0
9.800000 0.000000 0
0.000000 0.100000 0
0.100000 0.100000 0
0.200000 0.100000 0
0.300000 0.100000 0
0.400000 0.100000 0
0.500000 0.100000 0
0.600000 0.100000 0
0.700000 0.100000 0
0.800000 0.100000 0
0.900000 0.100000 0
1.000000 0.100000 0
1.100000 0.100000 0
1.200000 0.100000 0
1.300000 0.100000 0
1.400000 0.100000 0
1.500000 0.100000 0
1.600000 0.100000 0
1.700000 0.100000 0
1.800000 0.100000 0
1.900000 0.100000 0
2.000000 0.100000 0
2.100000 0.100000 0
2.200000 0.100000 0
2.300000 0.100000 0
2.400000 0.100000 0
2.500000 0.100000 0
2.600000 0.100000 0
2.700000 0.100000 0
2.800000 0.100000 0
2.900000 0.100000 0
3.000000 0.100000 0
3.100000 0.100000 0
3.200000 0.100000 0
3.300000 0.100000 0
3.400000 0.100000 0
3.500000 0.100000 0
3.600000 0.100000 0
3.700000 0.100000 0
3.800000 0.100000 0
3.900000 0.100000 0
4.000000 0.100000 0
4.100000 0.100000 0
4.200000 0.100000 0
4.300000 0.100000 0
4.400000 0.100000 0
4.500000 0.100000 0
4.600000 0.100000 0
4.700000 0.100000 0
4.800000 0.100000 0
4.900000 0.100000 0
5.000000 0.100000 0
5.100000 0.100000 0
5.200000 0.100000 0
5.300000 0.100000 0
5.400000 0.100000 0
5.500000 0.100000 0
5.600000 0.100000 0
5.700000 0.100000 0
5.800000 0.100000 0
5.900000 0.100000 0
6.000000 0.100000 0
6.100000 0.100000 0
6.200000 0.100000 0
6.300000 0.100000 0
6.400000 0.100000 0
6.500000 0.100000 0
6.600000 0.100000 0
6.700000 0.100000 0
6.800000 0.100000 0
6.900000 0.100000 0
7.000000 0.100000 0
7.100000 0.100000 0
7.200000 0.100000 0
7.300000 0.100000 0
7.400000 0.100000 0
7.500000 0.100000 0
7.600000 0.100000 0
7.700000 0.100000 0
7.800000 0.100000 0
7.900000 0.100000 0
8.000000 0.100000 0
8.100000 0.100000 0
8.200000 0.100000 0
8.300000 0.100000 0
8.400000 0.100000 0
8.500000 0.100000 0
8.600000 0.100000 0
8.700000 0.100000 0
8.800000 0.100000 0
8.900000 0.100000 0
9.000000 0.100000 0
9.100000 0.100000 0
9.200000 0.100000 0
9.300000 0.100000 0
9.400000 0.100000 0
9.500000 0.100000 0
9.600000 0.100000 0
9.700000 0.100000 0
9.800000 0.100000 0
0.000000 0.200000 0
0.100000 0.200000 0
0.200000 0.200000 0
0.300000 0.200000 0
0.400000 0.200000 0
0.500000 0.200000 0
0.600000 0.200000 0
0.700000 0.200000 0
0.800000 0.200000 0
0.900000 0.200000 0
1.000000 0.200000 0
1.100000 0.200000 0
1.200000 0.200000 0
1.300000 0.200000 0
1.400000 0.200000 0
1.500000 0.200000 0
1.600000 0.200000 0
1.700000 0.200000 0
1.800000 0.200000 0
1.900000 0.200000 0
2.000000 0.200000 0
2.100000 0.200000 0
2.200000 0.200000 0
2.300000 0.200000 0
2.400000 0.200000 0
2.500000 0.200000 0
2.600000 0.200000 0
2.700000 0.200000 0
2.800000 0.200000 0
2.900000 0.200000 0
3.000000 0.200000 0
3.100000 0.200000 0
3.200000 0.200000 0
3.300000 0.200000 0
3.400000 0.200000 0
3.500000 0.200000 0
3.600000 0.200000 0
3.700000 0.200000 0
3.800000 0.200000 0
3.900000 0.200000 0
4.000000 0.200000 0
4.100000 0.200000 0
4.200000 0.200000 0
4.300000 0.200000 0
4.400000 0.200000 0
4.500000 0.200000 0
4.600000 0.200000 0
4.700000 0.200000 0
4.800000 0.200000 0
4.900000 0.200000 0
5.000000 0.200000 0
5.100000 0.200000 0
5.200000 0.200000 0
5.300000 0.200000 0
5.400000 0.200000 0
5.500000 0.200000 0
5.600000 0.200000 0
5.700000 0.200000 0
5.800000 0.200000 0
5.900000 0.200000 0
6.000000 0.200000 0
6.100000 0.200000 0
6.200000 0.200000 0
6.300000 0.200000 0
6.400000 0.200000 0
6.500000 0.200000 0
6.600000 0.200000 0
6.700000 0.200000 0
6.800000 0.200000 0
6.900000 0.200000 0
7.000000 0.200000 0
7.100000 0.200000 0
7.200000 0.200000 0
7.300000 0.200000 0
7.400000 0.200000 0
7.500000 0.200000 0
7.600000 0.200000 0
7.700000 0.200000 0
7.800000 0.200000 0
7.900000 0.200000 0
8.000000 0.200000 0
8.100000 0.200000 0
8.200000 0.200000 0
8.300000 0.200000 0
8.400000 0.200000 0
8.500000 0.200000 0
8.600000 0.200000 0
8.700000 0.200000 0
8.800000 0.200000 0
8.900000 0.200000 0
9.000000 0.200000 0
9.100000 0.200000 0
9.200000 0.200000 0
9.300000 0.200000 0
9.400000 0.200000 0
9.500000 0.200000 0
9.600000 0.200000 0
9.700000 0.200000 0
9.800000 0.200000 0
0.000000 0.300000 0
0.100000 0.300000 0
0.200000 0.300000 0
0.300000 0.300000 0
0.400000 0.300000 0
0.500000 0.300000 0
0.600000 0.300000 0
0.700000 0.300000 0
0.800000 0.300000 0
0.900000 0.300000 0
1.000000 0.300000 0
1.100000 0.300000 0
1.200000 0.300000 0
1.300000 0.300000 0
1.400000 0.300000 0
1.500000 0.300000 0
1.600000 0.300000 0
1.700000 0.300000 0
1.800000 0.300000 0
1.900000 0.300000 0
2.000000 0.300000 0
2.100000 0.300000 0
2.200000 0.300000 0
2.300000 0.300000 0
2.400000 0.300000 0
2.500000 0.300000 0
2.600000 0.300000 0
2.700000 0.300000 0
2.800000 0.300000 0
2.900000 0.300000 0
3.000000 0.300000 0
3.100000 0.300000 0
3.200000 0.300000 0
3.300000 0.300000 0
3.400000 0.300000 0
3.500000 0.300000 0
3.600000 0.300000 0
3.700000 0.300000 0
3.800000 0.300000 0
3.900000 0.300000 0
4.000000 0.300000 0
4.100000 0.300000 0
4.200000 0.300000 0
4.300000 0.300000 0
4.400000 0.300000 0
4.500000 0.300000 0
4.600000 0.300000 0
4.700000 0.300000 0
4.800000 0.300000 0
4.900000 0.300000 0
5.000000 0.300000 0
5.100000 0.300000 0
5.200000 0.300000 0
5.300000 0.300000 0
5.400000 0.300000 0
5.500000 0.300000 0
5.600000 0.300000 0
5.700000 0.300000 0
5.800000 0.300000 0
5.900000 0.300000 0
6.000000 0.300000 0
6.100000 0.300000 0
6.200000 0.300000 0
6.300000 0.300000 0
6.400000 0.300000 0
6.500000 0.300000 0
6.600000 0.300000 0
6.700000 0.300000 0
6.800000 0.300000 0
6.900000 0.300000 0
7.000000 0.300000 0
7.100000 0.300000 0
7.200000 0.300000 0
7.300000 0.300000 0
7.400000 0.300000 0
7.500000 0.300000 0
7.600000 0.300000 0
7.700000 0.300000 0
7.800000 0.300000 0
7.900000 0.300000 0
8.000000 0.300000 0
8.100000 0.300000 0
8.200000 0.300000 0
8.300000 0.300000 0
8.400000 0.300000 0
8.500000 0.300000 0
8.600000 0.300000 0
8.700000 0.300000 0
8.800000 0.300000 0
8.900000 0.300000 0
9.000000 0.300000 0
9.100000 0.300000 0
9.200000 0.300000 0
9.300000 0.300000 0
9.400000 0.300000 0
9.500000 0.300000 0
9.600000 0.300000 0
9.700000 0.300000 0
9.800000 0.300000 0
0.000000 0.400000 0
0.100000 0.400000 0
0.200000 0.400000 0
0.300000 0.400000 0
0.400000 0.400000 0
0.500000 0.400000 0
0.600000 0.400000 0
0.700000 0.400000 0
0.800000 0.400000 0
0.900000 0.400000 0
1.000000 0.400000 0
1.100000 0.400000 0
1.200000 0.400000 0
1.300000 0.400000 0
1.400000 0.400000 0
1.500000 0.400000 0
1.600000 0.400000 0
1.700000 0.400000 0
1.800000 0.400000 0
1.900000 0.400000 0
2.000000 0.400000 0
2.100000 0.400000 0
2.200000 0.400000 0
2.300000 0.400000 0
2.400000 0.400000 0
2.500000 0.400000 0
2.600000 0.400000 0
2.700000 0.400000 0
2.800000 0.400000 0
2.900000 0.400000 0
3.000000 0.400000 0
3.100000 0.400000 0
3.200000 0.400000 0
3.300000 0.400000 0
3.400000 0.400000 0
3.500000 0.400000 0
3.600000 0.400000 0
3.700000 0.400000 0
3.800000 0.400000 0
3.900000 0.400000 0
4.000000 0.400000 0
4.100000 0.400000 0
4.200000 0.400000 0
4.300000 0.400000 0
4.400000 0.400000 0
4.500000 0.400000 0
4.600000 0.400000 0
4.700000 0.400000 0
4.800000 0.400000 0
4.900000 0.400000 0
5.000000 0.400000 0
5.100000 0.400000 0
5.200000 0.400000 0
5.300000 0.400000 0
5.400000 0.400000 0
5.500000 0.400000 0
5.600000 0.400000 0
5.700000 0.400000 0
5.800000 0.400000 0
5.900000 0.400000 0
6.000000 0.400000 0
6.100000 0.400000 0
6.200000 0.400000 0
6.300000 0.400000 0
6.400000 0.400000 0
6.500000 0.400000 0
6.600000 0.400000 0
6.700000 0.400000 0
6.800000 0.400000 0
6.900000 0.400000 0
7.000000 0.400000 0
7.100000 0.400000 0
7.200000 0.400000 0
7.300000 0.400000 0
7.400000 0.400000 0
7.500000 0.400000 0
7.600000 0.400000 0
7.700000 0.400000 0
7.800000 0.400000 0
7.900000 0.400000 0
8.000000 0.400000 0
8.100000 0.400000 0
8.200000 0.400000 0
8.300000 0.400000 0
8.400000 0.400000 0
8.500000 0.400000 0
8.600000 0.400000 0
8.700000 0.400000 0
8.800000 0.400000 0
8.900000 0.400000 0
9.000000 0.400000 0
9.100000 0.400000 0
9.200000 0.400000 0
9.300000 0.400000 0
9.400000 0.400000 0
[...]
POINT_DATA 1881 

VECTORS velocity float
0.500000 0.000000 0
0.502221 0.000000 0
0.507184 0.000000 0
0.515293 0.000000 0
0.526953 0.000000 0
0.542468 0.000000 0
0.561792 0.000000 0
0.584262 0.000000 0
0.608333 0.000000 0
0.631504 0.000000 0
0.651632 0.000000 0
0.667489 0.000000 0
0.678659 0.000000 0
0.685167 0.000000 0
0.687299 0.000000 0
0.685550 0.000000 0
0.680556 0.000000 0
0.673109 0.000000 0
0.664132 0.000000 0
0.654626 0.000000 0
0.645606 0.000000 0
0.638010 0.000000 0
0.632637 0.000000 0
0.630075 0.000000 0
0.630630 0.000000 0
0.634048 0.000000 0
0.639415 0.000000 0
0.645246 0.000000 0
0.649866 0.000000 0
0.651920 0.000000 0
0.650646 0.000000 0
0.645802 0.000000 0
0.637573 0.000000 0
0.626412 0.000000 0
0.612930 0.000000 0
0.597809 0.000000 0
0.581756 0.000000 0
0.565487 0.000000 0
0.549718 0.000000 0
0.535175 0.000000 0
0.522598 0.000000 0
0.512781 0.000000 0
0.506601 0.000000 0
0.504957 0.000000 0
0.508400 0.000000 0
0.516979 0.000000 0
0.530277 0.000000 0
0.547365 0.000000 0
0.566791 0.000000 0
0.586627 0.000000 0
0.604609 0.000000 0
0.618475 0.000000 0
0.626537 0.000000 0
0.628210 0.000000 0
0.623807 0.000000 0
0.614005 0.000000 0
0.599760 0.000000 0
0.582231 0.000000 0
0.562664 0.000000 0
0.542313 0.000000 0
0.522379 0.000000 0
0.503985 0.000000 0
0.488173 0.000000 0
0.475878 0.000000 0
0.467868 0.000000 0
0.464599 0.000000 0
0.465939 0.000000 0
0.471191 0.000000 0
0.479627 0.000000 0
0.490643 0.000000 0
0.503757 0.000000 0
0.518546 0.000000 0
0.534523 0.000000 0
0.550990 0.000000 0
0.566919 0.000000 0
0.580940 0.000000 0
0.591518 0.000000 0
0.597341 0.000000 0
0.597758 0.000000 0
0.592753 0.000000 0
0.582605 0.000000 0
0.567932 0.000000 0
0.549725 0.000000 0
0.529358 0.000000 0
0.508545 0.000000 0
0.489191 0.000000 0
0.473114 0.000000 0
0.461697 0.000000 0
0.455598 0.000000 0
0.454602 0.000000 0
0.457609 0.000000 0
0.463380 0.000000 0
0.470991 0.000000 0
0.479854 0.000000 0
0.489636 0.000000 0
0.500142 0.000000 0
0.511188 0.000000 0
0.522473 0.000000 0
0.533168 0.000000 0
1.000000 -0.002247 0
1.005001 -0.007223 0
1.015557 -0.013092 0
1.032403 -0.019781 0
1.056435 -0.027169 0
1.088444 -0.034825 0
1.128647 -0.041783 0
1.175947 -0.046534 0
1.227347 -0.047250 0
1.276561 -0.043298 0
1.318690 -0.035977 0
1.351518 -0.027030 0
1.374575 -0.017684 0
1.388133 -0.008652 0
1.392822 -0.000398 0
1.389610 0.006726 0
1.379767 0.012420 0
1.364897 0.016402 0
1.346898 0.018459 0
1.327846 0.018501 0
1.309844 0.016592 0
1.294846 0.012948 0
1.284500 0.007916 0
1.280044 0.001998 0
1.282139 -0.003969 0
1.290439 -0.008775 0
1.303169 -0.011181 0
1.317177 -0.010431 0
1.328728 -0.006656 0
1.334699 -0.000768 0
1.333420 0.006119 0
1.324549 0.013070 0
1.308622 0.019390 0
1.286694 0.024642 0
1.260084 0.028601 0
1.230208 0.031169 0
1.198499 0.032316 0
1.166391 0.032029 0
1.135317 0.030302 0
1.106708 0.027109 0
1.081998 0.022381 0
1.062607 0.015983 0
1.049895 0.007809 0
1.045074 -0.001814 0
1.049119 -0.012036 0
1.062521 -0.021891 0
1.085001 -0.030398 0
1.115330 -0.036521 0
1.151337 -0.039265 0
1.189947 -0.037817 0
1.227235 -0.031844 0
1.258747 -0.021921 0
1.280289 -0.009726 0
1.289102 0.002736 0
1.284900 0.014210 0
1.269142 0.024048 0
1.243891 0.031772 0
1.211592 0.037091 0
1.174834 0.039911 0
1.136185 0.040277 0
1.098076 0.038319 0
1.062719 0.034197 0
1.032037 0.028098 0
1.007547 0.020296 0
0.990199 0.011270 0
0.980277 0.001919 0
0.977497 -0.006601 0
0.981209 -0.013697 0
0.990613 -0.019461 0
1.005015 -0.024139 0
1.023884 -0.027912 0
1.046798 -0.030774 0
1.073246 -0.032450 0
1.102318 -0.032399 0
1.132444 -0.029952 0
1.161307 -0.024600 0
1.186000 -0.016401 0
1.203441 -0.006240 0
1.211059 0.004588 0
1.207797 0.015152 0
1.194215 0.024818 0
1.171633 0.032875 0
1.142056 0.038567 0
1.108094 0.041173 0
1.072794 0.040160 0
1.039323 0.035424 0
1.010502 0.027487 0
0.988308 0.017509 0
0.973562 0.007088 0
0.965993 -0.002017 0
0.964681 -0.008783 0
0.968358 -0.013387 0
0.975826 -0.016480 0
0.986242 -0.018649 0
0.999144 -0.020291 0
1.014331 -0.021554 0
1.031668 -0.022332 0
1.050864 -0.021981 0
1.071173 -0.020919 0
1.000000 -0.005039 0
1.005156 -0.015608 0
1.015714 -0.027420 0
1.032452 -0.040879 0
1.056603 -0.056027 0
1.089607 -0.072195 0
1.132717 -0.087495 0
1.185792 -0.098706 0
1.246894 -0.100618 0
1.303649 -0.091335 0
1.349472 -0.074954 0
1.383513 -0.055892 0
1.406741 -0.036628 0
1.420076 -0.018265 0
1.424209 -0.001498 0
1.420069 0.013031 0
1.408866 0.024686 0
1.392257 0.032841 0
1.372285 0.037022 0
1.351233 0.037024 0
1.331425 0.032973 0
1.315013 0.025320 0
1.303788 0.014790 0
1.299144 0.002363 0
1.302159 -0.010384 0
1.313038 -0.021009 0
1.330128 -0.026715 0
1.349654 -0.025538 0
1.366624 -0.017507 0
1.376662 -0.004689 0
1.377769 0.010143 0
1.370099 0.024795 0
1.354680 0.037855 0
1.332970 0.048534 0
1.306512 0.056481 0
1.276803 0.061578 0
1.245265 0.063806 0
1.213271 0.063170 0
1.182159 0.059670 0
1.153237 0.053303 0
1.127748 0.044084 0
1.106802 0.032086 0
1.091271 0.017516 0
1.081779 0.000758 0
1.079020 -0.017464 0
1.083762 -0.035897 0
1.096369 -0.052819 0
1.116681 -0.066340 0
1.144132 -0.074617 0
1.177546 -0.075894 0
1.214630 -0.068792 0
1.251652 -0.053044 0
1.283616 -0.030347 0
1.305218 -0.004606 0
1.313061 0.019962 0
1.307815 0.041006 0
1.291666 0.057543 0
1.267164 0.069049 0
1.236959 0.075397 0
1.203633 0.076748 0
1.169567 0.073456 0
1.136823 0.066027 0
1.107031 0.055161 0
1.081262 0.041827 0
1.059967 0.027259 0
1.043065 0.012691 0
1.030330 -0.000943 0
1.021685 -0.013128 0
1.017065 -0.023819 0
1.016631 -0.033282 0
1.020805 -0.041793 0
1.030205 -0.049370 0
1.045338 -0.055526 0
1.066138 -0.059202 0
1.091673 -0.058990 0
1.120144 -0.053555 0
1.149013 -0.042134 0
1.175141 -0.025059 0
1.195053 -0.004357 0
1.205864 0.016840 0
1.206920 0.036158 0
1.199200 0.052151 0
1.184323 0.063530 0
1.164319 0.069252 0
1.141357 0.068762 0
1.117454 0.062284 0
1.094233 0.051006 0
1.072806 0.036931 0
1.053804 0.022308 0
1.037574 0.008874 0
1.024524 -0.002373 0
1.014823 -0.011152 0
1.008378 -0.017890 0
1.005182 -0.023322 0
1.005451 -0.028093 0
1.009545 -0.032527 0
1.017797 -0.036534 0
1.030288 -0.039505 0
1.046930 -0.040498 0
1.000000 -0.007426 0
1.004178 -0.022956 0
1.013016 -0.040379 0
1.027541 -0.060650 0
1.049523 -0.084312 0
1.081561 -0.110940 0
1.126967 -0.137978 0
1.188114 -0.160723 0
1.268857 -0.165095 0
1.336136 -0.145872 0
1.383221 -0.115853 0
1.414809 -0.084308 0
1.435309 -0.054259 0
1.446488 -0.026131 0
1.448446 -0.000402 0
1.441515 0.022057 0
1.426653 0.040221 0
1.405602 0.052971 0
1.380669 0.059472 0
1.354500 0.059354 0
1.329830 0.052807 0
1.309174 0.040586 0
1.294477 0.023800 0
1.287040 0.003646 0
1.288228 -0.017847 0
1.299477 -0.036729 0
1.319940 -0.047789 0
1.345788 -0.046929 0
1.370726 -0.033674 0
1.387831 -0.011931 0
1.392953 0.012676 0
1.386748 0.036162 0
1.371388 0.056516 0
1.349140 0.072806 0
1.321963 0.084762 0
1.291482 0.092411 0
1.259083 0.095841 0
1.226016 0.095129 0
1.193463 0.090329 0
1.162543 0.081513 0
1.134289 0.068809 0
1.109579 0.052453 0
1.089011 0.032826 0
1.072740 0.010431 0
1.060470 -0.014023 0
1.052259 -0.039239 0
1.049244 -0.063313 0
1.053029 -0.084279 0
1.065558 -0.100123 0
1.088036 -0.108307 0
1.119826 -0.105944 0
1.158149 -0.090903 0
1.198332 -0.063293 0
1.234303 -0.026713 0
1.259614 0.011605 0
1.270728 0.045434 0
1.269206 0.072415 0
1.257408 0.091792 0
1.237849 0.103436 0
1.212982 0.107665 0
1.185050 0.105125 0
1.155968 0.096729 0
1.127248 0.083656 0
1.099952 0.067356 0
1.074700 0.049463 0
1.051687 0.031552 0
1.030707 0.014774 0
1.011431 -0.000437 0
0.993928 -0.014412 0
0.979190 -0.027882 0
0.969340 -0.041488 0
0.966607 -0.055308 0
0.972337 -0.068383 0
0.986501 -0.078732 0
1.007865 -0.083956 0
1.034448 -0.081939 0
1.063921 -0.071398 0
1.093812 -0.052281 0
1.121506 -0.026138 0
1.143980 0.003279 0
1.158585 0.031474 0
1.165058 0.055466 0
1.164153 0.073444 0
1.157027 0.084134 0
1.144955 0.087021 0
1.129142 0.082544 0
1.110649 0.072131 0
1.090452 0.057935 0
1.069493 0.042317 0
1.048634 0.027259 0
1.028509 0.013965 0
1.009751 0.002757 0
0.993101 -0.006840 0
0.979477 -0.015724 0
0.970057 -0.024654 0
0.965993 -0.033900 0
0.967937 -0.043076 0
0.975834 -0.051113 0
0.989128 -0.055317 0
1.000000 -0.009235 0
1.002762 -0.028636 0
1.008803 -0.050769 0
1.019264 -0.077373 0
1.036355 -0.110044 0
1.063988 -0.149646 0
1.108668 -0.194055 0
1.178371 -0.240588 0
1.296863 -0.248636 0
1.369293 -0.205709 0
1.405009 -0.153637 0
1.424475 -0.107989 0
1.437296 -0.068316 0
1.445397 -0.031412 0
1.445854 0.003466 0
1.436536 0.034814 0
1.417809 0.060589 0
1.391504 0.078816 0
1.360250 0.088117 0
1.327150 0.087858 0
1.295531 0.078299 0
1.268493 0.060686 0
1.248096 0.036939 0
1.234776 0.008625 0
1.228217 -0.022805 0
1.231349 -0.052714 0
1.246453 -0.073026 0
1.272828 -0.076333 0
1.306024 -0.059567 0
1.337242 -0.026925 0
1.356004 0.011231 0
1.358387 0.046359 0
1.348425 0.075457 0
1.329801 0.097956 0
1.305189 0.114134 0
1.276476 0.124452 0
1.245083 0.129266 0
1.212214 0.128784 0
1.178973 0.123137 0
1.146379 0.112470 0
1.115313 0.097041 0
1.086374 0.077358 0
1.059596 0.054350 0
1.034059 0.029295 0
1.008064 0.003016 0
0.980836 -0.024669 0
0.955403 -0.053585 0
0.938710 -0.082648 0
0.936179 -0.109617 0
0.949289 -0.130155 0
0.976439 -0.138901 0
1.014369 -0.131550 0
1.058907 -0.106504 0
1.105084 -0.065896 0
1.146904 -0.016472 0
1.177450 0.031407 0
1.194285 0.070858 0
1.199083 0.100401 0
1.193920 0.119818 0
1.180941 0.129543 0
1.162183 0.130466 0
1.139448 0.123825 0
1.114213 0.111173 0
1.087521 0.094370 0
1.059861 0.075519 0
1.031173 0.056679 0
1.001250 0.039308 0
0.970576 0.023646 0
0.941054 0.008419 0
0.915821 -0.008696 0
0.898259 -0.029210 0
0.890912 -0.052366 0
0.894229 -0.075419 0
0.906942 -0.094728 0
0.927046 -0.106936 0
0.952430 -0.109612 0
0.981106 -0.101500 0
1.011234 -0.082646 0
1.041060 -0.054530 0
1.068703 -0.020246 0
1.091501 0.015073 0
1.107494 0.046578 0
1.116527 0.071557 0
1.118925 0.088447 0
1.115233 0.096643 0
1.106069 0.096586 0
1.092083 0.089692 0
1.073975 0.078083 0
1.052526 0.064121 0
1.028637 0.049855 0
1.003439 0.036507 0
0.978446 0.024254 0
0.955582 0.012384 0
0.936839 -0.000280 0
0.923830 -0.014610 0
0.917559 -0.030406 0
0.918224 -0.046375 0
0.925251 -0.060696 0
0.937808 -0.068687 0
1.000000 -0.010199 0
1.000817 -0.031763 0
1.002797 -0.056868 0
1.006797 -0.088197 0
1.014808 -0.129040 0
1.031214 -0.183260 0
1.065516 -0.252359 0
1.135271 -0.348911 0
1.311434 -0.356023 0
1.355095 -0.254027 0
1.347968 -0.171042 0
1.338183 -0.116603 0
1.335451 -0.075191 0
1.340850 -0.034698 0
1.344821 0.008451 0
1.337490 0.050093 0
1.318723 0.085245 0
1.290272 0.110522 0
1.254657 0.123822 0
1.215040 0.124073 0
1.175264 0.111474 0
1.139242 0.088036 0
1.109020 0.057530 0
1.083325 0.023536 0
1.059512 -0.014413 0
1.038770 -0.054964 0
1.032431 -0.089276 0
1.048475 -0.106513 0
1.085844 -0.098098 0
1.136037 -0.061908 0
1.184998 -0.008468 0
1.217568 0.043735 0
1.230991 0.085098 0
1.231095 0.116036 0
1.221577 0.138081 0
1.204730 0.152510 0
1.182230 0.160096 0
1.155508 0.161233 0
1.125849 0.156158 0
1.094215 0.145166 0
1.060759 0.128807 0
1.024273 0.108165 0
0.982613 0.085136 0
0.935021 0.061961 0
0.884869 0.039201 0
0.839266 0.013425 0
0.805565 -0.021182 0
0.788889 -0.065047 0
0.789811 -0.110696 0
0.805775 -0.148564 0
0.833771 -0.171023 0
0.871181 -0.173374 0
0.915473 -0.154014 0
0.963765 -0.114718 0
1.012468 -0.060767 0
1.056417 -0.001951 0
1.089149 0.050778 0
1.109657 0.092153 0
1.119067 0.121574 0
1.118836 0.139398 0
1.110492 0.146614 0
1.095429 0.144695 0
1.074701 0.135579 0
1.048841 0.121704 0
1.017913 0.105806 0
0.982087 0.090157 0
0.942724 0.075366 0
0.903206 0.059755 0
0.868484 0.040341 0
0.843157 0.014912 0
0.829426 -0.016578 0
0.826962 -0.051277 0
0.833825 -0.084412 0
0.847782 -0.111548 0
0.867016 -0.129444 0
0.890159 -0.136000 0
0.916075 -0.130205 0
0.943664 -0.112240 0
0.971787 -0.083613 0
0.999231 -0.047168 0
1.024473 -0.007322 0
1.045027 0.030437 0
1.059665 0.062009 0
1.067999 0.085425 0
1.069941 0.099873 0
1.065565 0.105691 0
1.055061 0.104220 0
1.038772 0.097487 0
1.017330 0.087651 0
0.991878 0.076344 0
0.964276 0.064153 0
0.937066 0.050611 0
0.913083 0.034765 0
0.894747 0.016026 0
0.883357 -0.005375 0
0.878984 -0.028294 0
0.880952 -0.050767 0
0.888251 -0.070696 0
0.900014 -0.081919 0
1.000000 -0.010057 0
0.998485 -0.031431 0
0.995395 -0.056739 0
0.990715 -0.089383 0
0.984918 -0.134468 0
0.980183 -0.200358 0
0.983984 -0.298108 0
1.018556 -0.486507 0
1.213054 -0.468464 0
1.159346 -0.242248 0
1.067851 -0.136734 0
1.018190 -0.095480 0
0.993471 -0.070991 0
0.998326 -0.040789 0
1.021046 0.006818 0
1.031395 0.060903 0
1.026887 0.107800 0
1.008801 0.142877 0
0.977295 0.163347 0
0.932553 0.167258 0
0.875501 0.154110 0
0.809368 0.126942 0
0.741707 0.092867 0
0.684119 0.058142 0
0.647265 0.021752 0
0.635155 -0.025637 0
0.647295 -0.082742 0
0.681768 -0.129759 0
0.735886 -0.147130 0
0.805604 -0.126076 0
0.884083 -0.070304 0
0.958283 0.000362 0
1.012940 0.061925 0
1.046518 0.107363 0
1.064387 0.140493 0
1.069458 0.163793 0
1.063697 0.178481 0
1.048628 0.185159 0
1.025200 0.184424 0
0.993399 0.177554 0
0.952105 0.166978 0
0.900128 0.155500 0
0.838838 0.143599 0
0.774786 0.127039 0
0.719105 0.098773 0
0.682435 0.054639 0
0.668630 -0.003202 0
0.672676 -0.066888 0
0.687383 -0.126498 0
0.708588 -0.174113 0
0.735164 -0.204309 0
0.767415 -0.213258 0
0.805523 -0.199096 0
0.848642 -0.162898 0
0.894753 -0.109128 0
0.940874 -0.045277 0
0.981722 0.017613 0
1.012407 0.070479 0
1.032509 0.110635 0
1.042418 0.138113 0
1.042802 0.153868 0
1.034274 0.159612 0
1.017179 0.157757 0
0.991640 0.151153 0
0.958160 0.142268 0
0.918689 0.131864 0
0.877382 0.118185 0
0.839950 0.097885 0
0.811598 0.068467 0
0.795039 0.030361 0
0.789941 -0.013014 0
0.793553 -0.056763 0
0.802916 -0.096239 0
0.816084 -0.127919 0
0.832101 -0.149313 0
0.850603 -0.158673 0
0.871395 -0.155008 0
0.894115 -0.138364 0
0.918105 -0.110103 0
0.942451 -0.072937 0
0.966051 -0.030727 0
0.987204 0.011382 0
1.003863 0.048582 0
1.015040 0.078167 0
1.020124 0.099073 0
1.018741 0.111461 0
1.010747 0.116480 0
0.996364 0.115809 0
0.976414 0.111011 0
0.952533 0.102906 0
0.927162 0.091316 0
0.903143 0.075444 0
0.883060 0.054701 0
0.868632 0.029445 0
0.860499 0.001153 0
0.858254 -0.028002 0
0.860890 -0.055642 0
0.867356 -0.079758 0
0.876880 -0.093349 0
1.000000 -0.008683 0
0.996180 -0.027152 0
0.987945 -0.049093 0
0.973973 -0.077723 0
0.951975 -0.118514 0
0.918313 -0.182327 0
0.867454 -0.290730 0
0.795898 -0.577983 0
0.557507 -0.398166 0
0.495999 0.000000 0
0.424085 -0.019715 0
0.359246 -0.042230 0
0.364745 -0.055333 0
0.411853 -0.062279 0
0.474481 -0.024626 0
0.528526 0.044245 0
0.555915 0.107834 0
0.560983 0.160112 0
0.542292 0.200073 0
0.498946 0.225879 0
0.434112 0.234670 0
0.359570 0.221840 0
0.292719 0.182789 0
0.252061 0.117983 0
0.248977 0.034549 0
0.280409 -0.055002 0
0.329459 -0.135901 0
0.385814 -0.195110 0
0.448174 -0.221932 0
0.518935 -0.210107 0
0.599460 -0.161151 0
0.687156 -0.085127 0
0.769619 -0.003143 0
0.832712 0.064582 0
0.875338 0.115135 0
0.900680 0.153193 0
0.910308 0.180919 0
0.905048 0.199724 0
0.885028 0.211382 0
0.850043 0.218256 0
0.801029 0.222073 0
0.742553 0.221428 0
0.684206 0.210478 0
0.637958 0.181696 0
0.612204 0.131556 0
0.607785 0.063904 0
0.619199 -0.011417 0
0.637395 -0.083795 0
0.656167 -0.146605 0
0.673805 -0.196344 0
0.691484 -0.229854 0
0.711821 -0.243740 0
0.737405 -0.235249 0
0.769435 -0.203952 0
0.807082 -0.153004 0
0.847896 -0.088925 0
0.888444 -0.020760 0
0.923041 0.041362 0
0.948690 0.091559 0
0.964624 0.129100 0
0.970575 0.154753 0
0.966417 0.170313 0
0.952160 0.178208 0
0.928402 0.180718 0
0.897156 0.178753 0
0.862438 0.170931 0
0.829709 0.154102 0
0.804049 0.125538 0
0.788242 0.085251 0
0.782219 0.036570 0
0.783984 -0.015091 0
0.790676 -0.064252 0
0.799850 -0.106943 0
0.810127 -0.140733 0
0.821119 -0.163964 0
0.833145 -0.175298 0
0.846828 -0.173721 0
0.862619 -0.158956 0
0.880472 -0.131954 0
0.899775 -0.095119 0
0.919519 -0.052079 0
0.938431 -0.007379 0
0.954483 0.034170 0
0.966172 0.069159 0
0.972520 0.096167 0
0.972893 0.115062 0
0.967055 0.126592 0
0.955344 0.131817 0
0.938881 0.131479 0
0.919596 0.125592 0
0.899941 0.113540 0
0.882311 0.094710 0
0.868466 0.069275 0
0.859249 0.038587 0
0.854672 0.005002 0
0.854181 -0.028687 0
0.856850 -0.059870 0
0.861777 -0.086685 0
0.868302 -0.101796 0
1.000000 -0.006233 0
0.994491 -0.019369 0
0.982459 -0.034530 0
0.961535 -0.053418 0
0.927067 -0.078812 0
0.870000 -0.115836 0
0.770879 -0.175692 0
0.587283 -0.275211 0
0.000000 -0.168567 0
0.000000 0.000000 0
0.000000 0.000000 0
-0.029910 -0.046339 0
-0.051320 -0.123604 0
-0.014808 -0.150532 0
0.013436 -0.109861 0
0.061131 -0.020536 0
0.108299 0.075340 0
0.135985 0.156502 0
0.138554 0.225391 0
0.117779 0.275449 0
0.084778 0.293496 0
0.063429 0.268345 0
0.067660 0.200384 0
0.098728 0.101887 0
0.147900 -0.006601 0
0.198884 -0.106130 0
0.244417 -0.188155 0
0.284316 -0.248473 0
0.323104 -0.280252 0
0.367619 -0.277367 0
0.423314 -0.238529 0
0.491282 -0.169803 0
0.567606 -0.083638 0
0.639444 0.001637 0
0.694239 0.072519 0
0.730546 0.128817 0
0.748938 0.174106 0
0.749620 0.210433 0
0.733181 0.239424 0
0.701965 0.261548 0
0.661750 0.274464 0
0.622173 0.272321 0
0.594081 0.248195 0
0.584578 0.199044 0
0.593752 0.128951 0
0.615888 0.047650 0
0.642438 -0.032807 0
0.665909 -0.103852 0
0.683253 -0.162906 0
0.694022 -0.209432 0
0.699945 -0.242331 0
0.704632 -0.259186 0
0.712633 -0.256716 0
0.727718 -0.232578 0
0.751223 -0.187594 0
0.781631 -0.126644 0
0.815543 -0.057535 0
0.848328 0.010228 0
0.874807 0.069048 0
0.892910 0.116224 0
0.901613 0.152069 0
0.900456 0.178022 0
0.889724 0.195768 0
0.870997 0.206152 0
0.847578 0.208228 0
0.824151 0.199308 0
0.805382 0.176572 0
0.794200 0.139351 0
0.791019 0.090297 0
0.794311 0.034619 0
0.801718 -0.021470 0
0.810683 -0.072629 0
0.819331 -0.115690 0
0.826609 -0.149189 0
0.832341 -0.172334 0
0.837204 -0.184386 0
0.842474 -0.184487 0
0.849518 -0.172014 0
0.859192 -0.147263 0
0.871503 -0.111988 0
0.885666 -0.069387 0
0.900406 -0.023586 0
0.914007 0.020837 0
0.924665 0.060125 0
0.931189 0.092345 0
0.932859 0.116920 0
0.929492 0.134025 0
0.921585 0.143979 0
0.910384 0.146755 0
0.897707 0.141843 0
0.885521 0.128599 0
0.875425 0.106916 0
0.868321 0.077760 0
0.864400 0.043239 0
0.863356 0.006220 0
0.864603 -0.030181 0
0.867336 -0.063237 0
0.870775 -0.091209 0
0.874302 -0.106936 0
1.000000 -0.003168 0
0.993875 -0.009605 0
0.980544 -0.016139 0
0.957536 -0.022335 0
0.920147 -0.026980 0
0.859518 -0.026137 0
0.758896 -0.008013 0
0.584604 0.089612 0
0.270166 0.085835 0
0.000000 0.000000 0
0.000000 0.000000 0
0.000000 0.000000 0
-0.045232 -0.069333 0
-0.116520 -0.127041 0
-0.168321 -0.100570 0
-0.172629 -0.050621 0
-0.134483 0.032978 0
-0.091340 0.129861 0
-0.059756 0.218290 0
-0.038164 0.279665 0
-0.011733 0.289030 0
0.033477 0.238968 0
0.100257 0.147494 0
0.178274 0.037742 0
0.245139 -0.065614 0
0.293079 -0.151528 0
0.323061 -0.221336 0
0.337484 -0.273797 0
0.342146 -0.305239 0
0.346381 -0.310322 0
0.360329 -0.284820 0
0.390485 -0.229425 0
0.436811 -0.151311 0
0.493084 -0.062057 0
0.546060 0.024026 0
0.585540 0.098488 0
0.609400 0.161839 0
0.617518 0.215476 0
0.611834 0.259033 0
0.597291 0.289682 0
0.581875 0.301862 0
0.574647 0.289098 0
0.582038 0.248075 0
0.604977 0.182028 0
0.639269 0.100252 0
0.678135 0.015225 0
0.712587 -0.061433 0
0.738328 -0.124608 0
0.753865 -0.174718 0
0.758904 -0.213040 0
0.754605 -0.240471 0
0.744132 -0.256434 0
0.732690 -0.258338 0
0.726301 -0.242547 0
0.729475 -0.206922 0
0.743241 -0.153250 0
0.765105 -0.087461 0
0.790603 -0.017906 0
0.814070 0.046973 0
0.831756 0.102289 0
0.841959 0.147203 0
0.844169 0.182197 0
0.839141 0.207662 0
0.829120 0.222859 0
0.817641 0.225595 0
0.808580 0.213125 0
0.804753 0.184052 0
0.807019 0.139900 0
0.814464 0.085141 0
0.825267 0.025871 0
0.837243 -0.031463 0
0.848230 -0.081864 0
0.856729 -0.122869 0
0.861772 -0.153744 0
0.863077 -0.174561 0
0.861272 -0.185435 0
0.857913 -0.186041 0
0.855116 -0.175678 0
0.854825 -0.153944 0
0.858093 -0.121597 0
0.864791 -0.080986 0
0.873851 -0.035724 0
0.883705 0.009905 0
0.892492 0.051970 0