# vtk DataFile Version 2.0
generated by CFD-lab course output (written by Tobias Neckel) 
ASCII

DATASET STRUCTURED_GRID
DIMENSIONS  99 19 1 
POINTS 1881 float

0.000000 0.000000 0
0.100000 0.000000 0
0.200000 0.000000 0
0.300000 0.000000 0
0.400000 0.000000 0
0.500000 0.000000 0
0.600000 0.000000 0
0.700000 0.000000 0
0.800000 0.000000 0
0.900000 0.000000 0
1.000000 0.000000 0
1.100000 0.000000 0
1.200000 0.000000 0
1.300000 0.000000 0
1.400000 0.000000 0
1.500000 0.000000 0
1.600000 0.000000 0
1.700000 0.000000 0
1.800000 0.000000 0
1.900000 0.000000 0
2.000000 0.000000 0
2.100000 0.000000 0
2.200000 0.000000 0
2.300000 0.000000 0
2.400000 0.000000 0
2.500000 0.000000 0
2.600000 0.000000 0
2.700000 0.000000 0
2.800000 0.000000 0
2.900000 0.000000 0
3.000000 0.000000 0
3.100000 0.000000 0
3.200000 0.000000 0
3.300000 0.000000 0
3.400000 0.000000 0
3.500000 0.000000 0
3.600000 0.000000 0
3.700000 0.000000 0
3.800000 0.000000 0
3.900000 0.000000 0
4.000000 0.000000 0
4.100000 0.000000 0
4.200000 0.000000 0
4.300000 0.000000 0
4.400000 0.000000 0
4.500000 0.000000 0
4.600000 0.000000 0
4.700000 0.000000 0
4.800000 0.000000 0
4.900000 0.000000 0
5.000000 0.000000 0
5.100000 0.000000 0
5.200000 0.000000 0
5.300000 0.000000 0
5.400000 0.000000 0
5.500000 0.000000 0
5.600000 0.000000 0
5.700000 0.000000 0
5.800000 0.000000 0
5.900000 0.000000 0
6.000000 0.000000 0
6.100000 0.000000 0
6.200000 0.000000 0
6.300000 0.000000 0
6.400000 0.000000 0
6.500000 0.000000 0
6.600000 0.000000 0
6.700000 0.000000 0
6.800000 0.000000 0
6.900000 0.000000 0
7.000000 0.000000 0
7.100000 0.000000 0
7.200000 0.000000 0
7.300000 0.000000 0
7.400000 0.000000 0
7.500000 0.000000 0
7.600000 0.000000 0
7.700000 0.000000 0
7.800000 0.000000 0
7.900000 0.000000 0
8.000000 0.000000 0
8.100000 0.000000 0
8.200000 0.000000 0
8.300000 0.000000 0
8.400000 0.000000 0
8.500000 0.000000 0
8.600000 0.000000 0
8.700000 0.000000 0
8.800000 0.000000 0
8.900000 0.000000 0
9.000000 0.000000 0
9.100000 0.000000 0
9.200000 0.000000 0
9.300000 0.000000 0
9.400000 0.000000 0
9.500000 0.000000 0
9.600000 0.000000 0
9.700000 0.000000 0
9.800000 0.000000 0
0.000000 0.100000 0
0.100000 0.100000 0
0.200000 0.100000 0
0.300000 0.100000 0
0.400000 0.100000 0
0.500000 0.100000 0
0.600000 0.100000 0
0.700000 0.100000 0
0.800000 0.100000 0
0.900000 0.100000 0
1.000000 0.100000 0
1.100000 0.100000 0
1.200000 0.100000 0
1.300000 0.100000 0
1.400000 0.100000 0
1.500000 0.100000 0
1.600000 0.100000 0
1.700000 0.100000 0
1.800000 0.100000 0
1.900000 0.100000 0
2.000000 0.100000 0
2.100000 0.100000 0
2.200000 0.100000 0
2.300000 0.100000 0
2.400000 0.100000 0
2.500000 0.100000 0
2.600000 0.100000 0
2.700000 0.100000 0
2.800000 0.100000 0
2.900000 0.100000 0
3.000000 0.100000 0
3.100000 0.100000 0
3.200000 0.100000 0
3.300000 0.100000 0
3.400000 0.100000 0
3.500000 0.100000 0
3.600000 0.100000 0
3.700000 0.100000 0
3.800000 0.100000 0
3.900000 0.100000 0
4.000000 0.100000 0
4.100000 0.100000 0
4.200000 0.100000 0
4.300000 0.100000 0
4.400000 0.100000 0
4.500000 0.100000 0
4.600000 0.100000 0
4.700000 0.100000 0
4.800000 0.100000 0
4.900000 0.100000 0
5.000000 0.100000 0
5.100000 0.100000 0
5.200000 0.100000 0
5.300000 0.100000 0
5.400000 0.100000 0
5.500000 0.100000 0
5.600000 0.100000 0
5.700000 0.100000 0
5.800000 0.100000 0
5.900000 0.100000 0
6.000000 0.100000 0
6.100000 0.100000 0
6.200000 0.100000 0
6.300000 0.100000 0
6.400000 0.100000 0
6.500000 0.100000 0
6.600000 0.100000 0
6.700000 0.100000 0
6.800000 0.100000 0
6.900000 0.100000 0
7.000000 0.100000 0
7.100000 0.100000 0
7.200000 0.100000 0
7.300000 0.100000 0
7.400000 0.100000 0
7.500000 0.100000 0
7.600000 0.100000 0
7.700000 0.100000 0
7.800000 0.100000 0
7.900000 0.100000 0
8.000000 0.100000 0
8.100000 0.100000 0
8.200000 0.100000 0
8.300000 0.100000 0
8.400000 0.100000 0
8.500000 0.100000 0
8.600000 0.100000 0
8.700000 0.100000 0
8.800000 0.100000 0
8.900000 0.100000 0
9.000000 0.100000 0
9.100000 0.100000 0
9.200000 0.100000 0
9.300000 0.100000 0
9.400000 0.100000 0
9.500000 0.100000 0
9.600000 0.100000 0
9.700000 0.100000 0
9.800000 0.100000 0
0.000000 0.200000 0
0.100000 0.200000 0
0.200000 0.200000 0
0.300000 0.200000 0
0.400000 0.200000 0
0.500000 0.200000 0
0.600000 0.200000 0
0.700000 0.200000 0
0.800000 0.200000 0
0.900000 0.200000 0
1.000000 0.200000 0
1.100000 0.200000 0
1.200000 0.200000 0
1.300000 0.200000 0
1.400000 0.200000 0
1.500000 0.200000 0
1.600000 0.200000 0
1.700000 0.200000 0
1.800000 0.200000 0
1.900000 0.200000 0
2.000000 0.200000 0
2.100000 0.200000 0
2.200000 0.200000 0
2.300000 0.200000 0
2.400000 0.200000 0
2.500000 0.200000 0
2.600000 0.200000 0
2.700000 0.200000 0
2.800000 0.200000 0
2.900000 0.200000 0
3.000000 0.200000 0
3.100000 0.200000 0
3.200000 0.200000 0
3.300000 0.200000 0
3.400000 0.200000 0
3.500000 0.200000 0
3.600000 0.200000 0
3.700000 0.200000 0
3.800000 0.200000 0
3.900000 0.200000 0
4.000000 0.200000 0
4.100000 0.200000 0
4.200000 0.200000 0
4.300000 0.200000 0
4.400000 0.200000 0
4.500000 0.200000 0
4.600000 0.200000 0
4.700000 0.200000 0
4.800000 0.200000 0
4.900000 0.200000 0
5.000000 0.200000 0
5.100000 0.200000 0
5.200000 0.200000 0
5.300000 0.200000 0
5.400000 0.200000 0
5.500000 0.200000 0
5.600000 0.200000 0
5.700000 0.200000 0
5.800000 0.200000 0
5.900000 0.200000 0
6.000000 0.200000 0
6.100000 0.200000 0
6.200000 0.200000 0
6.300000 0.200000 0
6.400000 0.200000 0
6.500000 0.200000 0
6.600000 0.200000 0
6.700000 0.200000 0
6.800000 0.200000 0
6.900000 0.200000 0
7.000000 0.200000 0
7.100000 0.200000 0
7.200000 0.200000 0
7.300000 0.200000 0
7.400000 0.200000 0
7.500000 0.200000 0
7.600000 0.200000 0
7.700000 0.200000 0
7.800000 0.200000 0
7.900000 0.200000 0
8.000000 0.200000 0
8.100000 0.200000 0
8.200000 0.200000 0
8.300000 0.200000 0
8.400000 0.200000 0
8.500000 0.200000 0
8.600000 0.200000 0
8.700000 0.200000 0
8.800000 0.200000 0
8.900000 0.200000 0
9.000000 0.200000 0
9.100000 0.200000 0
9.200000 0.200000 0
9.300000 0.200000 0
9.400000 0.200000 0
9.500000 0.200000 0
9.600000 0.200000 0
9.700000 0.200000 0
9.800000 0.200000 0
0.000000 0.300000 0
0.100000 0.300000 0
0.200000 0.300000 0
0.300000 0.300000 0
0.400000 0.300000 0
0.500000 0.300000 0
0.600000 0.300000 0
0.700000 0.300000 0
0.800000 0.300000 0
0.900000 0.300000 0
1.000000 0.300000 0
1.100000 0.300000 0
1.200000 0.300000 0
1.300000 0.300000 0
1.400000 0.300000 0
1.500000 0.300000 0
1.600000 0.300000 0
1.700000 0.300000 0
1.800000 0.300000 0
1.900000 0.300000 0
2.000000 0.300000 0
2.100000 0.300000 0
2.200000 0.300000 0
2.300000 0.300000 0
2.400000 0.300000 0
2.500000 0.300000 0
2.600000 0.300000 0
2.700000 0.300000 0
2.800000 0.300000 0
2.900000 0.300000 0
3.000000 0.300000 0
3.100000 0.300000 0
3.200000 0.300000 0
3.300000 0.300000 0
3.400000 0.300000 0
3.500000 0.300000 0
3.600000 0.300000 0
3.700000 0.300000 0
3.800000 0.300000 0
3.900000 0.300000 0
4.000000 0.300000 0
4.100000 0.300000 0
4.200000 0.300000 0
4.300000 0.300000 0
4.400000 0.300000 0
4.500000 0.300000 0
4.600000 0.300000 0
4.700000 0.300000 0
4.800000 0.300000 0
4.900000 0.300000 0
5.000000 0.300000 0
5.100000 0.300000 0
5.200000 0.300000 0
5.300000 0.300000 0
5.400000 0.300000 0
5.500000 0.300000 0
5.600000 0.300000 0
5.700000 0.300000 0
5.800000 0.300000 0
5.900000 0.300000 0
6.000000 0.300000 0
6.100000 0.300000 0
6.200000 0.300000 0
6.300000 0.300000 0
6.400000 0.300000 0
6.500000 0.300000 0
6.600000 0.300000 0
6.700000 0.300000 0
6.800000 0.300000 0
6.900000 0.300000 0
7.000000 0.300000 0
7.100000 0.300000 0
7.200000 0.300000 0
7.300000 0.300000 0
7.400000 0.300000 0
7.500000 0.300000 0
7.600000 0.300000 0
7.700000 0.300000 0
7.800000 0.300000 0
7.900000 0.300000 0
8.000000 0.300000 0
8.100000 0.300000 0
8.200000 0.300000 0
8.300000 0.300000 0
8.400000 0.300000 0
8.500000 0.300000 0
8.600000 0.300000 0
8.700000 0.300000 0
8.800000 0.300000 0
8.900000 0.300000 0
9.000000 0.300000 0
9.100000 0.300000 0
9.200000 0.300000 0
9.300000 0.300000 0
9.400000 0.300000 0
9.500000 0.300000 0
9.600000 0.300000 0
9.700000 0.300000 0
9.800000 0.300000 0
0.000000 0.400000 0
0.100000 0.400000 0
0.200000 0.400000 0
0.300000 0.400000 0
0.400000 0.400000 0
0.500000 0.400000 0
0.600000 0.400000 0
0.700000 0.400000 0
0.800000 0.400000 0
0.900000 0.400000 0
1.000000 0.400000 0
1.100000 0.400000 0
1.200000 0.400000 0
1.300000 0.400000 0
1.400000 0.400000 0
1.500000 0.400000 0
1.600000 0.400000 0
1.700000 0.400000 0
1.800000 0.400000 0
1.900000 0.400000 0
2.000000 0.400000 0
2.100000 0.400000 0
2.200000 0.400000 0
2.300000 0.400000 0
2.400000 0.400000 0
2.500000 0.400000 0
2.600000 0.400000 0
2.700000 0.400000 0
2.800000 0.400000 0
2.900000 0.400000 0
3.000000 0.400000 0
3.100000 0.400000 0
3.200000 0.400000 0
3.300000 0.400000 0
3.400000 0.400000 0
3.500000 0.400000 0
3.600000 0.400000 0
3.700000 0.400000 0
3.800000 0.400000 0
3.900000 0.400000 0
4.000000 0.400000 0
4.100000 0.400000 0
4.200000 0.400000 0
4.300000 0.400000 0
4.400000 0.400000 0
4.500000 0.400000 0
4.600000 0.400000 0
4.700000 0.400000 0
4.800000 0.400000 0
4.900000 0.400000 0
5.000000 0.400000 0
5.100000 0.400000 0
5.200000 0.400000 0
5.300000 0.400000 0
5.400000 0.400000 0
5.500000 0.400000 0
5.600000 0.400000 0
5.700000 0.400000 0
5.800000 0.400000 0
5.900000 0.400000 0
6.000000 0.400000 0
6.100000 0.400000 0
6.200000 0.400000 0
6.300000 0.400000 0
6.400000 0.400000 0
6.500000 0.400000 0
6.600000 0.400000 0
6.700000 0.400000 0
6.800000 0.400000 0
6.900000 0.400000 0
7.000000 0.400000 0
7.100000 0.400000 0
7.200000 0.400000 0
7.300000 0.400000 0
7.400000 0.400000 0
7.500000 0.400000 0
7.600000 0.400000 0
7.700000 0.400000 0
7.800000 0.400000 0
7.900000 0.400000 0
8.000000 0.400000 0
8.100000 0.400000 0
8.200000 0.400000 0
8.300000 0.400000 0
8.400000 0.400000 0
8.500000 0.400000 0
8.600000 0.400000 0
8.700000 0.400000 0
8.800000 0.400000 0
8.900000 0.400000 0
9.000000 0.400000 0
9.100000 0.400000 0
9.200000 0.400000 0
9.300000 0.400000 0
9.400000 0.400000 0
[...]
POINT_DATA 1881 

VECTORS velocity float
0.500000 0.000000 0
0.502089 0.000000 0
0.506717 0.000000 0
0.514296 0.000000 0
0.525234 0.000000 0
0.539843 0.000000 0
0.558136 0.000000 0
0.579531 0.000000 0
0.602628 0.000000 0
0.625144 0.000000 0
0.645165 0.000000 0
0.661756 0.000000 0
0.674810 0.000000 0
0.684692 0.000000 0
0.691914 0.000000 0
0.696902 0.000000 0
0.699841 0.000000 0
0.700638 0.000000 0
0.699046 0.000000 0
0.694796 0.000000 0
0.687765 0.000000 0
0.678052 0.000000 0
0.665986 0.000000 0
0.652082 0.000000 0
0.636991 0.000000 0
0.621448 0.000000 0
0.606232 0.000000 0
0.592124 0.000000 0
0.579872 0.000000 0
0.570186 0.000000 0
0.563763 0.000000 0
0.561338 0.000000 0
0.563525 0.000000 0
0.570462 0.000000 0
0.581601 0.000000 0
0.595556 0.000000 0
0.610211 0.000000 0
0.623142 0.000000 0
0.632239 0.000000 0
0.636298 0.000000 0
0.635144 0.000000 0
0.629135 0.000000 0
0.618966 0.000000 0
0.605525 0.000000 0
0.589759 0.000000 0
0.572595 0.000000 0
0.554900 0.000000 0
0.537481 0.000000 0
0.521110 0.000000 0
0.506552 0.000000 0
0.494596 0.000000 0
0.486069 0.000000 0
0.481773 0.000000 0
0.482237 0.000000 0
0.487392 0.000000 0
0.496871 0.000000 0
0.510120 0.000000 0
0.526426 0.000000 0
0.544879 0.000000 0
0.564295 0.000000 0
0.583132 0.000000 0
0.599522 0.000000 0
0.611541 0.000000 0
0.617750 0.000000 0
0.617697 0.000000 0
0.611657 0.000000 0
0.600224 0.000000 0
0.584309 0.000000 0
0.565100 0.000000 0
0.543992 0.000000 0
0.522510 0.000000 0
0.502212 0.000000 0
0.484581 0.000000 0
0.470878 0.000000 0
0.461976 0.000000 0
0.458200 0.000000 0
0.459141 0.000000 0
0.463754 0.000000 0
0.471079 0.000000 0
0.480417 0.000000 0
0.491309 0.000000 0
0.503463 0.000000 0
0.516630 0.000000 0
0.530464 0.000000 0
0.544394 0.000000 0
0.557548 0.000000 0
0.568780 0.000000 0
0.576851 0.000000 0
0.580754 0.000000 0
0.580019 0.000000 0
0.574591 0.000000 0
0.564672 0.000000 0
0.550803 0.000000 0
0.533934 0.000000 0
0.515469 0.000000 0
0.497223 0.000000 0
0.481246 0.000000 0
0.469575 0.000000 0
0.464754 0.000000 0
1.000000 -0.002073 0
1.004738 -0.006695 0
1.014626 -0.012196 0
1.030405 -0.018509 0
1.052966 -0.025541 0
1.083131 -0.032898 0
1.121206 -0.039683 0
1.166260 -0.044486 0
1.215542 -0.045600 0
1.263235 -0.042515 0
1.304938 -0.036584 0
1.338957 -0.029615 0
1.365461 -0.022907 0
1.385498 -0.017079 0
1.400335 -0.012192 0
1.410985 -0.007906 0
1.417861 -0.003712 0
1.420664 0.000816 0
1.418697 0.005863 0
1.411269 0.011299 0
1.398058 0.016760 0
1.379264 0.021792 0
1.355589 0.025980 0
1.328116 0.029003 0
1.298196 0.030640 0
1.267347 0.030762 0
1.237164 0.029326 0
1.209238 0.026362 0
1.185076 0.021939 0
1.166069 0.016110 0
1.153514 0.008852 0
1.148677 0.000247 0
1.152727 -0.009112 0
1.166273 -0.018060 0
1.188654 -0.025073 0
1.217456 -0.028587 0
1.248627 -0.027563 0
1.277192 -0.022007 0
1.298451 -0.013138 0
1.309300 -0.002890 0
1.308949 0.007178 0
1.298272 0.016193 0
1.278873 0.023623 0
1.252700 0.029218 0
1.221772 0.032940 0
1.188015 0.034869 0
1.153207 0.035123 0
1.118985 0.033797 0
1.086884 0.030936 0
1.058366 0.026520 0
1.034811 0.020488 0
1.017437 0.012827 0
1.007162 0.003836 0
1.004534 -0.005615 0
1.009747 -0.014629 0
1.022626 -0.022721 0
1.042658 -0.029546 0
1.069012 -0.034748 0
1.100529 -0.037857 0
1.135575 -0.038239 0
1.171797 -0.035212 0
1.206015 -0.028393 0
1.234453 -0.018212 0
1.253378 -0.006143 0
1.260139 0.006104 0
1.254342 0.017483 0
1.237236 0.027357 0
1.210725 0.035133 0
1.177233 0.040324 0
1.139529 0.042597 0
1.100559 0.041787 0
1.063238 0.037935 0
1.030200 0.031339 0
1.003497 0.022610 0
0.984315 0.012684 0
0.972856 0.002840 0
0.968542 -0.005550 0
0.970374 -0.011934 0
0.977189 -0.016659 0
0.988060 -0.020225 0
1.002404 -0.023042 0
1.019920 -0.025316 0
1.040413 -0.026996 0
1.063525 -0.027759 0
1.088456 -0.027079 0
1.113804 -0.024381 0
1.137567 -0.019298 0
1.157317 -0.011968 0
1.170551 -0.003162 0
1.175253 0.006168 0
1.170725 0.015351 0
1.157449 0.023793 0
1.136607 0.030742 0
1.110092 0.035337 0
1.080447 0.036713 0
1.050677 0.034224 0
1.023871 0.027649 0
1.002684 0.016493 0
0.989371 0.007623 0
1.000000 -0.004716 0
1.004890 -0.014598 0
1.014775 -0.025656 0
1.030428 -0.038331 0
1.053057 -0.052718 0
1.084133 -0.068234 0
1.124950 -0.083122 0
1.175496 -0.094323 0
1.233936 -0.096951 0
1.288605 -0.089361 0
1.333382 -0.075685 0
1.367730 -0.060487 0
1.393241 -0.046510 0
1.411979 -0.034851 0
1.425931 -0.025465 0
1.436638 -0.017497 0
1.444696 -0.009650 0
1.449460 -0.000811 0
1.449543 0.009418 0
1.443749 0.020659 0
1.431512 0.032022 0
1.413059 0.042482 0
1.389231 0.051159 0
1.361261 0.057401 0
1.330622 0.060775 0
1.298929 0.061036 0
1.267863 0.058111 0
1.239068 0.052090 0
1.214040 0.043171 0
1.194051 0.031567 0
1.180173 0.017401 0
1.173458 0.000802 0
1.175246 -0.017576 0
1.186806 -0.035902 0
1.208202 -0.051154 0
1.237732 -0.059944 0
1.272009 -0.059709 0
1.306208 -0.049801 0
1.334662 -0.032089 0
1.352316 -0.010480 0
1.356823 0.011046 0
1.349346 0.030093 0
1.332109 0.045587 0
1.307526 0.057115 0
1.277904 0.064698 0
1.245305 0.068576 0
1.211525 0.069039 0
1.178132 0.066332 0
1.146513 0.060628 0
1.117886 0.052080 0
1.093244 0.040935 0
1.073245 0.027655 0
1.058140 0.012908 0
1.047959 -0.002579 0
1.042944 -0.018083 0
1.043445 -0.032900 0
1.049784 -0.046373 0
1.062286 -0.057855 0
1.081263 -0.066545 0
1.106669 -0.071249 0
1.137568 -0.070421 0
1.171826 -0.062637 0
1.206103 -0.047346 0
1.236072 -0.025671 0
1.257078 -0.000951 0
1.265909 0.022915 0
1.262798 0.043627 0
1.249444 0.060012 0
1.228062 0.071205 0
1.201144 0.076682 0
1.171248 0.076299 0
1.140774 0.070366 0
1.111742 0.059748 0
1.085597 0.045892 0
1.063114 0.030647 0
1.044485 0.015779 0
1.029666 0.002488 0
1.018676 -0.008642 0
1.011341 -0.017680 0
1.007577 -0.025209 0
1.007623 -0.031853 0
1.011962 -0.038002 0
1.021136 -0.043598 0
1.035376 -0.048036 0
1.054298 -0.050273 0
1.076824 -0.049105 0
1.101274 -0.043506 0
1.125484 -0.032976 0
1.146901 -0.017929 0
1.162816 -0.000169 0
1.171163 0.017810 0
1.171672 0.034123 0
1.165204 0.047361 0
1.153178 0.056163 0
1.137343 0.059417 0
1.119480 0.056579 0
1.101089 0.047995 0
1.083087 0.034500 0
1.065214 0.024073 0
1.000000 -0.006950 0
1.003904 -0.021456 0
1.012068 -0.037734 0
1.025498 -0.056791 0
1.045930 -0.079245 0
1.075945 -0.104787 0
1.118840 -0.131038 0
1.177039 -0.153455 0
1.254133 -0.158687 0
1.318587 -0.141941 0
1.363717 -0.115695 0
1.393909 -0.089466 0
1.413838 -0.067154 0
1.427037 -0.049768 0
1.436490 -0.036840 0
1.444705 -0.026657 0
1.452939 -0.016526 0
1.460067 -0.004023 0
1.462918 0.011578 0
1.459014 0.029334 0
1.447365 0.047452 0
1.428343 0.064075 0
1.403101 0.077779 0
1.373126 0.087612 0
1.340060 0.092972 0
1.305653 0.093522 0
1.271724 0.089190 0
1.240044 0.080187 0
1.212139 0.066959 0
1.189094 0.049987 0
1.171548 0.029456 0
1.160009 0.005187 0
1.155388 -0.022444 0
1.159481 -0.051001 0
1.173279 -0.075984 0
1.196543 -0.092382 0
1.228084 -0.096032 0
1.265071 -0.084658 0
1.302232 -0.059242 0
1.332280 -0.025044 0
1.348464 0.010153 0
1.349334 0.040911 0
1.337970 0.065447 0
1.317567 0.083427 0
1.290948 0.095164 0
1.260468 0.101252 0
1.228031 0.102299 0
1.195180 0.098812 0
1.163170 0.091185 0
1.133024 0.079792 0
1.105531 0.065131 0
1.081178 0.047933 0
1.060050 0.029126 0
1.041772 0.009587 0
1.025752 -0.010109 0
1.011943 -0.029553 0
1.001787 -0.048378 0
0.997701 -0.066217 0
1.002114 -0.082230 0
1.016401 -0.094536 0
1.040200 -0.100362 0
1.071573 -0.096922 0
1.107484 -0.082454 0
1.144169 -0.057115 0
1.177274 -0.023731 0
1.201970 0.011766 0
1.215204 0.043825 0
1.217678 0.069872 0
1.210965 0.088627 0
1.196981 0.099414 0
1.177720 0.102160 0
1.155048 0.097444 0
1.130565 0.086519 0
1.105554 0.071240 0
1.080989 0.053797 0
1.057546 0.036291 0
1.035543 0.020262 0
1.015056 0.006394 0
0.996365 -0.005556 0
0.980199 -0.016504 0
0.967988 -0.027424 0
0.961545 -0.038825 0
0.962179 -0.050406 0
0.970193 -0.060917 0
0.984875 -0.068523 0
1.004817 -0.071353 0
1.028264 -0.067954 0
1.053357 -0.057592 0
1.078239 -0.040492 0
1.100997 -0.018092 0
1.119369 0.006497 0
1.131563 0.029754 0
1.137470 0.049238 0
1.137618 0.063198 0
1.132785 0.070412 0
1.123772 0.070479 0
1.111255 0.064042 0
1.095772 0.052367 0
1.077680 0.042924 0
1.000000 -0.008608 0
1.002494 -0.026654 0
1.007887 -0.047249 0
1.017288 -0.072192 0
1.032853 -0.103163 0
1.058425 -0.141138 0
1.100417 -0.184203 0
1.166747 -0.229598 0
1.280260 -0.238482 0
1.349661 -0.198933 0
1.382932 -0.150999 0
1.398818 -0.110605 0
1.405711 -0.079637 0
1.407379 -0.057494 0
1.407055 -0.043118 0
1.408494 -0.033937 0
1.414964 -0.025006 0
1.426032 -0.010784 0
1.435522 0.010474 0
1.436782 0.036215 0
1.428141 0.062695 0
1.410503 0.086748 0
1.385579 0.106377 0
1.355084 0.120443 0
1.320704 0.128250 0
1.284240 0.129374 0
1.247668 0.123723 0
1.213015 0.111678 0
1.181966 0.094129 0
1.155310 0.072169 0
1.132735 0.046498 0
1.113300 0.016977 0
1.096010 -0.017033 0
1.081416 -0.053780 0
1.073902 -0.088205 0
1.077641 -0.114740 0
1.095779 -0.128233 0
1.128394 -0.123947 0
1.171606 -0.099291 0
1.217773 -0.056705 0
1.256580 -0.006003 0
1.278811 0.040590 0
1.284511 0.077358 0
1.277630 0.104141 0
1.261496 0.121801 0
1.238839 0.131496 0
1.211861 0.134329 0
1.182337 0.131196 0
1.151699 0.122786 0
1.121095 0.109722 0
1.091343 0.092784 0
1.062709 0.073139 0
1.034621 0.052319 0
1.005835 0.031726 0
0.975575 0.011753 0
0.945126 -0.008927 0
0.918417 -0.032121 0
0.901035 -0.058172 0
0.896794 -0.085236 0
0.906041 -0.109327 0
0.926904 -0.125587 0
0.956676 -0.129917 0
0.992460 -0.119939 0
1.031314 -0.095458 0
1.070146 -0.058749 0
1.105343 -0.015012 0
1.132244 0.027922 0
1.148863 0.064254 0
1.155847 0.091905 0
1.154370 0.109930 0
1.145817 0.118235 0
1.131573 0.117524 0
1.112896 0.109245 0
1.090834 0.095470 0
1.066176 0.078657 0
1.039453 0.061228 0
1.011158 0.044980 0
0.982190 0.030540 0
0.954297 0.017181 0
0.929971 0.003172 0
0.911759 -0.013196 0
0.901626 -0.032190 0
0.900347 -0.052242 0
0.907315 -0.070728 0
0.921098 -0.084894 0
0.940011 -0.092490 0
0.962406 -0.092042 0
0.986783 -0.082948 0
1.011791 -0.065567 0
1.036174 -0.041295 0
1.058585 -0.012753 0
1.077053 0.016024 0
1.090276 0.041308 0
1.098014 0.060849 0
1.100293 0.073263 0
1.097259 0.078109 0
1.089130 0.075995 0
1.076243 0.068075 0
1.059064 0.060863 0
1.000000 -0.009434 0
1.000577 -0.029333 0
1.001981 -0.052526 0
1.005032 -0.081754 0
1.011648 -0.120378 0
1.026108 -0.172341 0
1.057742 -0.239344 0
1.123888 -0.333283 0
1.294133 -0.341588 0
1.336690 -0.244605 0
1.328598 -0.164848 0
1.315061 -0.112244 0
1.301151 -0.075709 0
1.285728 -0.051098 0
1.269394 -0.037944 0
1.255957 -0.034560 0
1.252824 -0.034058 0
1.264916 -0.024577 0
1.287572 0.000831 0
1.304320 0.036717 0
1.307341 0.073733 0
1.299575 0.106639 0
1.283526 0.133199 0
1.260576 0.152489 0
1.231827 0.163819 0
1.198727 0.166560 0
1.163305 0.160418 0
1.128054 0.145895 0
1.095023 0.124674 0
1.063918 0.099229 0
1.031166 0.071480 0
0.992858 0.041926 0
0.949320 0.009453 0
0.905981 -0.028882 0
0.872941 -0.072201 0
0.860867 -0.114255 0
0.872036 -0.146783 0
0.903710 -0.160478 0
0.951302 -0.148613 0
1.008988 -0.110012 0
1.069014 -0.050880 0
1.120466 0.012984 0
1.154099 0.066632 0
1.171253 0.106446 0
1.175245 0.133959 0
1.168779 0.150889 0
1.154157 0.158804 0
1.133338 0.158976 0
1.107901 0.152429 0
1.078875 0.140151 0
1.046436 0.123521 0
1.009803 0.104659 0
0.968048 0.086006 0
0.922012 0.068640 0
0.875870 0.050608 0
0.836244 0.027613 0
0.808898 -0.004278 0
0.796505 -0.044584 0
0.798242 -0.087228 0
0.811330 -0.124639 0
0.833061 -0.150991 0
0.861414 -0.162474 0
0.894765 -0.157089 0
0.931471 -0.134798 0
0.969670 -0.097756 0
1.007176 -0.050329 0
1.040905 0.000309 0
1.066753 0.046272 0
1.083754 0.083123 0
1.092156 0.109447 0
1.092598 0.124960 0
1.085843 0.130368 0
1.072594 0.127261 0
1.053380 0.117962 0
1.028596 0.105180 0
0.998825 0.091312 0
0.965433 0.077529 0
0.931055 0.063259 0
0.899425 0.046667 0
0.874335 0.026037 0
0.858226 0.000925 0
0.851506 -0.027409 0
0.853178 -0.056091 0
0.861605 -0.081665 0
0.875184 -0.101215 0
0.892594 -0.112657 0
0.912758 -0.114723 0
0.934735 -0.106974 0
0.957633 -0.089879 0
0.980578 -0.064883 0
1.002671 -0.034380 0
1.022743 -0.001935 0
1.038979 0.028279 0
1.050426 0.053183 0
1.056565 0.071168 0
1.057078 0.081643 0
1.051822 0.085057 0
1.040893 0.082433 0
1.024598 0.078629 0
1.000000 -0.009177 0
0.998297 -0.028625 0
0.994763 -0.051701 0
0.989344 -0.081855 0
0.982443 -0.124233 0
0.976118 -0.187220 0
0.977638 -0.281969 0
1.008822 -0.465975 0
1.198370 -0.451275 0
1.148655 -0.233393 0
1.059882 -0.129368 0
1.011740 -0.083153 0
0.980194 -0.050291 0
0.949703 -0.025725 0
0.913332 -0.013339 0
0.878430 -0.017361 0
0.856737 -0.033960 0
0.864528 -0.045529 0
0.905531 -0.028928 0
0.961981 0.016449 0
1.006027 0.067443 0
1.031506 0.110565 0
1.044627 0.145378 0
1.046251 0.172145 0
1.036320 0.190102 0
1.015288 0.197899 0
0.983885 0.194401 0
0.942476 0.179969 0
0.890932 0.158276 0
0.830098 0.136038 0
0.764122 0.117572 0
0.700898 0.098836 0
0.650270 0.069857 0
0.620347 0.022609 0
0.612514 -0.043085 0
0.623377 -0.113832 0
0.649091 -0.171072 0
0.687106 -0.203205 0
0.736094 -0.204563 0
0.794642 -0.174412 0
0.859982 -0.117477 0
0.926792 -0.044490 0
0.984216 0.026574 0
1.024754 0.082997 0
1.049968 0.124278 0
1.061813 0.152587 0
1.062056 0.169774 0
1.052237 0.177455 0
1.033422 0.177252 0
1.005876 0.171190 0
0.969103 0.161860 0
0.922901 0.151533 0
0.869567 0.140117 0
0.815498 0.123911 0
0.769737 0.097529 0
0.739692 0.058054 0
0.727617 0.007627 0
0.729960 -0.047508 0
0.741042 -0.100054 0
0.757160 -0.144140 0
0.776889 -0.175666 0
0.800128 -0.191617 0
0.827109 -0.189992 0
0.857648 -0.170360 0
0.890839 -0.134450 0
0.925159 -0.086243 0
0.958650 -0.031651 0
0.987988 0.021409 0
1.010290 0.066505 0
1.024815 0.101089 0
1.031370 0.124551 0
1.029986 0.137531 0
1.020733 0.141711 0
1.003735 0.139471 0
0.979479 0.133215 0
0.949384 0.124395 0
0.916258 0.112754 0
0.884079 0.096552 0
0.856940 0.073905 0
0.837736 0.044375 0
0.827470 0.009638 0
0.825317 -0.027138 0
0.829386 -0.062337 0
0.837901 -0.092730 0
0.849631 -0.115878 0
0.863838 -0.130061 0
0.880075 -0.134179 0
0.897965 -0.127820 0
0.917048 -0.111407 0
0.936723 -0.086330 0
0.956264 -0.054915 0
0.974823 -0.020283 0
0.991027 0.013626 0
1.003388 0.043264 0
1.011008 0.066613 0
1.013260 0.082852 0
1.009779 0.092179 0
1.000558 0.095298 0
0.986033 0.095143 0
1.000000 -0.007724 0
0.996071 -0.024086 0
0.987575 -0.043569 0
0.973171 -0.069429 0
0.950532 -0.107144 0
0.915925 -0.167524 0
0.863627 -0.272035 0
0.789576 -0.554004 0
0.551386 -0.384571 0
0.493552 0.000000 0
0.424107 -0.018659 0
0.364228 -0.032547 0
0.350696 -0.013659 0
0.343675 0.015774 0
0.325502 0.033335 0
0.304471 0.022040 0
0.299158 -0.020153 0
0.325412 -0.073368 0
0.387979 -0.096619 0
0.480897 -0.063776 0
0.578839 0.004210 0
0.657897 0.068041 0
0.711981 0.118457 0
0.745715 0.160798 0
0.758813 0.194784 0
0.750991 0.219000 0
0.722000 0.233238 0
0.672155 0.238858 0
0.604647 0.237063 0
0.528987 0.226053 0
0.461325 0.200694 0
0.417991 0.155791 0
0.406889 0.090015 0
0.424722 0.008881 0
0.457866 -0.075227 0
0.492408 -0.150827 0
0.524875 -0.210505 0
0.557948 -0.247475 0
0.596047 -0.256145 0
0.642581 -0.233895 0
0.698276 -0.183026 0
0.760786 -0.111246 0
0.824557 -0.031327 0
0.878666 0.040696 0
0.917979 0.096903 0
0.943064 0.138804 0
0.954583 0.168382 0
0.953103 0.187614 0
0.938878 0.198793 0
0.912008 0.204474 0
0.873435 0.206500 0
0.826680 0.204200 0
0.778815 0.193416 0
0.738733 0.168478 0
0.713136 0.126423 0
0.703612 0.069742 0
0.707115 0.005463 0
0.718182 -0.058001 0
0.731837 -0.114421 0
0.745607 -0.160481 0
0.759147 -0.193956 0
0.773533 -0.212690 0
0.790426 -0.214605 0
0.811130 -0.198524 0
0.835867 -0.165264 0
0.863656 -0.118137 0
0.892715 -0.062517 0
0.920735 -0.005365 0
0.944210 0.046299 0
0.961280 0.088370 0
0.971000 0.119792 0
0.972798 0.141008 0
0.966381 0.153514 0
0.951935 0.159218 0
0.930568 0.159534 0
0.904693 0.154536 0
0.877891 0.142838 0
0.854022 0.122581 0
0.836013 0.093014 0
0.825091 0.055512 0
0.820900 0.013348 0
0.822165 -0.029320 0
0.827157 -0.068670 0
0.834452 -0.101905 0
0.843188 -0.127148 0
0.853042 -0.143097 0
0.864066 -0.148846 0
0.876440 -0.143944 0
0.890210 -0.128635 0
0.905133 -0.104096 0
0.920654 -0.072477 0
0.935984 -0.036697 0
0.950115 -0.000285 0
0.961517 0.033203 0
0.969058 0.061297 0
0.971946 0.082872 0
0.969738 0.097759 0
0.962445 0.106178 0
0.950654 0.109253 0
1.000000 -0.005240 0
0.994472 -0.016191 0
0.982392 -0.028797 0
0.961397 -0.044806 0
0.926872 -0.066977 0
0.869748 -0.100303 0
0.770704 -0.155607 0
0.587703 -0.250567 0
0.000000 -0.155245 0
0.000000 0.000000 0
0.000000 0.000000 0
-0.027888 -0.018962 0
-0.043275 -0.029728 0
-0.068878 -0.000525 0
-0.095988 0.025869 0
-0.110951 0.008987 0
-0.097169 -0.054898 0
-0.057301 -0.134348 0
0.002730 -0.184410 0
0.088327 -0.174409 0
0.196896 -0.109556 0
0.303278 -0.022574 0
0.388174 0.057563 0
0.444470 0.125316 0
0.474451 0.184829 0
0.479139 0.234718 0
0.460577 0.273246 0
0.424334 0.297332 0
0.381436 0.301456 0
0.346796 0.279373 0
0.333306 0.228580 0
0.345994 0.153284 0
0.380396 0.063135 0
0.423390 -0.028362 0
0.461469 -0.110767 0
0.490186 -0.180835 0
0.509717 -0.236605 0
0.523914 -0.274372 0
0.539122 -0.289191 0
0.562007 -0.276637 0
0.596786 -0.235678 0
0.643419 -0.170767 0
0.697899 -0.091302 0
0.752689 -0.010422 0
0.797402 0.059882 0
0.828752 0.115986 0
0.846166 0.159739 0
0.849463 0.193163 0
0.838882 0.218351 0
0.815820 0.236637 0
0.783990 0.247193 0
0.749976 0.246159 0
0.721825 0.228071 0
0.705766 0.189599 0
0.703537 0.132658 0
0.712548 0.064083 0
0.728072 -0.006935 0
0.744700 -0.072223 0
0.759015 -0.127473 0
0.769457 -0.171447 0
0.776048 -0.203589 0
0.780297 -0.222891 0
0.784832 -0.227585 0
0.792508 -0.215798 0
0.805216 -0.186973 0
0.823115 -0.143088 0
0.844764 -0.088727 0
0.867843 -0.030083 0
0.889224 0.025963 0
0.906022 0.074302 0
0.916688 0.113035 0
0.920313 0.142153 0
0.916587 0.162577 0
0.906059 0.175287 0
0.890423 0.180460 0
0.872482 0.177076 0
0.855526 0.163430 0
0.842310 0.138433 0
0.834259 0.102840 0
0.831372 0.059492 0
0.832722 0.012568 0
0.836979 -0.033390 0
0.842698 -0.074619 0
0.848739 -0.108756 0
0.854431 -0.134464 0
0.859653 -0.150934 0
0.864797 -0.157573 0
0.870566 -0.153960 0
0.877634 -0.140097 0
0.886316 -0.116770 0
0.896419 -0.085764 0
0.907297 -0.049742 0
0.918020 -0.011905 0
0.927312 0.024323 0
0.933928 0.056184 0
0.937019 0.082173 0
0.936138 0.101680 0
0.931321 0.114382 0
0.923159 0.119943 0
1.000000 -0.002190 0
0.993947 -0.006469 0
0.980772 -0.010489 0
0.958018 -0.013902 0
0.920999 -0.015485 0
0.861044 -0.011343 0
0.761670 0.010021 0
0.589789 0.113840 0
0.275918 0.100267 0
0.000000 0.000000 0
0.000000 0.000000 0
0.000000 0.000000 0
-0.020464 0.025834 0
-0.104462 0.068492 0
-0.166560 0.075413 0
-0.191563 0.023223 0
-0.171812 -0.073800 0
-0.142354 -0.173264 0
-0.112510 -0.242244 0
-0.072742 -0.257940 0
-0.010337 -0.210739 0
0.071718 -0.123234 0
0.156199 -0.022733 0
0.222392 0.074525 0
0.265946 0.160120 0
0.289443 0.232881 0
0.297226 0.288053 0
0.297646 0.318011 0
0.302115 0.314613 0
0.320893 0.274195 0
0.358486 0.201509 0
0.412148 0.108711 0
0.471920 0.012626 0
0.522543 -0.072186 0
0.558754 -0.142017 0
0.579488 -0.199068 0
0.585289 -0.244227 0
0.579225 -0.276876 0
0.567524 -0.294233 0
0.558893 -0.291555 0
0.561794 -0.264435 0
0.580749 -0.212355 0
0.614370 -0.140594 0
0.656529 -0.058805 0
0.697657 0.020844 0
0.729410 0.090044 0
0.749292 0.147674 0
0.756702 0.194901 0
0.752548 0.232440 0
0.739785 0.259371 0
0.723703 0.272350 0
0.710951 0.266372 0
0.707136 0.237635 0
0.714453 0.186775 0
0.731323 0.119650 0
0.753979 0.045215 0
0.777712 -0.026682 0
0.798041 -0.088937 0
0.812757 -0.139173 0
0.820700 -0.177510 0
0.821710 -0.204791 0
0.816960 -0.221470 0
0.809178 -0.226812 0
0.802223 -0.218905 0
0.799841 -0.195868 0
0.804156 -0.157682 0
0.814949 -0.107241 0
0.830135 -0.049821 0
0.846734 0.008123 0
0.861349 0.060908 0
0.871859 0.105504 0
0.877137 0.141112 0
0.876972 0.167771 0
0.872177 0.185386 0
0.864580 0.193114 0
0.856629 0.189437 0
0.850630 0.173015 0
0.848009 0.143852 0
0.849043 0.103957 0
0.853139 0.057053 0
0.859312 0.007746 0
0.866334 -0.039292 0
0.872975 -0.080425 0
0.878237 -0.113633 0