# vtk DataFile Version 2.0
generated by CFD-lab course output (written by Tobias Neckel) 
ASCII

DATASET STRUCTURED_GRID
DIMENSIONS  99 19 1 
POINTS 1881 float

0.000000 0.000000 0
0.100000 0.000000 0
0.200000 0.000000 0
0.300000 0.000000 0
0.400000 0.000000 0
0.500000 0.000000 0
0.600000 0.000000 0
0.700000 0.000000 0
0.800000 0.000000 0
0.900000 0.000000 0
1.000000 0.000000 0
1.100000 0.000000 0
1.200000 0.000000 0
1.300000 0.000000 0
1.400000 0.000000 0
1.500000 0.000000 0
1.600000 0.000000 0
1.700000 0.000000 0
1.800000 0.000000 0
1.900000 0.000000 0
2.000000 0.000000 0
2.100000 0.000000 0
2.200000 0.000000 0
2.300000 0.000000 0
2.400000 0.000000 0
2.500000 0.000000 0
2.600000 0.000000 0
2.700000 0.000000 0
2.800000 0.000000 0
2.900000 0.000000 0
3.000000 0.000000 0
3.100000 0.000000 0
3.200000 0.000000 0
3.300000 0.000000 0
3.400000 0.000000 0
3.500000 0.000000 0
3.600000 0.000000 0
3.700000 0.000000 0
3.800000 0.000000 0
3.900000 0.000000 0
4.000000 0.000000 0
4.100000 0.000000 0
4.200000 0.000000 0
4.300000 0.000000 0
4.400000 0.000000 0
4.500000 0.000000 0
4.600000 0.000000 0
4.700000 0.000000 0
4.800000 0.000000 0
4.900000 0.000000 0
5.000000 0.000000 0
5.100000 0.000000 0
5.200000 0.000000 0
5.300000 0.000000 0
5.400000 0.000000 0
5.500000 0.000000 0
5.600000 0.000000 0
5.700000 0.000000 0
5.800000 0.000000 0
5.900000 0.000000 0
6.000000 0.000000 0
6.100000 0.000000 0
6.200000 0.000000 0
6.300000 0.000000 0
6.400000 0.000000 0
6.500000 0.000000 0
6.600000 0.000000 0
6.700000 0.000000 0
6.800000 0.000000 0
6.900000 0.000000 0
7.000000 0.000000 0
7.100000 0.000000 0
7.200000 0.000000 0
7.300000 0.000000 0
7.400000 0.000000 0
7.500000 0.000000 0
7.600000 0.000000 0
7.700000 0.000000 0
7.800000 0.000000 0
7.900000 0.000000 0
8.000000 0.000000 0
8.100000 0.000000 0
8.200000 0.000000 0
8.300000 0.000000 0
8.400000 0.000000 0
8.500000 0.000000 0
8.600000 0.000000 0
8.700000 0.000000 0
8.800000 0.000000 0
8.900000 0.000000 0
9.000000 0.000000 0
9.100000 0.000000 0
9.200000 0.000000 0
9.300000 0.000000 0
9.400000 0.000000 0
9.500000 0.000000 0
9.600000 0.000000 0
9.700000 0.000000 0
9.800000 0.000000 0
0.000000 0.100000 0
0.100000 0.100000 0
0.200000 0.100000 0
0.300000 0.100000 0
0.400000 0.100000 0
0.500000 0.100000 0
0.600000 0.100000 0
0.700000 0.100000 0
0.800000 0.100000 0
0.900000 0.100000 0
1.000000 0.100000 0
1.100000 0.100000 0
1.200000 0.100000 0
1.300000 0.100000 0
1.400000 0.100000 0
1.500000 0.100000 0
1.600000 0.100000 0
1.700000 0.100000 0
1.800000 0.100000 0
1.900000 0.100000 0
2.000000 0.100000 0
2.100000 0.100000 0
2.200000 0.100000 0
2.300000 0.100000 0
2.400000 0.100000 0
2.500000 0.100000 0
2.600000 0.100000 0
2.700000 0.100000 0
2.800000 0.100000 0
2.900000 0.100000 0
3.000000 0.100000 0
3.100000 0.100000 0
3.200000 0.100000 0
3.300000 0.100000 0
3.400000 0.100000 0
3.500000 0.100000 0
3.600000 0.100000 0
3.700000 0.100000 0
3.800000 0.100000 0
3.900000 0.100000 0
4.000000 0.100000 0
4.100000 0.100000 0
4.200000 0.100000 0
4.300000 0.100000 0
4.400000 0.100000 0
4.500000 0.100000 0
4.600000 0.100000 0
4.700000 0.100000 0
4.800000 0.100000 0
4.900000 0.100000 0
5.000000 0.100000 0
5.100000 0.100000 0
5.200000 0.100000 0
5.300000 0.100000 0
5.400000 0.100000 0
5.500000 0.100000 0
5.600000 0.100000 0
5.700000 0.100000 0
5.800000 0.100000 0
5.900000 0.100000 0
6.000000 0.100000 0
6.100000 0.100000 0
6.200000 0.100000 0
6.300000 0.100000 0
6.400000 0.100000 0
6.500000 0.100000 0
6.600000 0.100000 0
6.700000 0.100000 0
6.800000 0.100000 0
6.900000 0.100000 0
7.000000 0.100000 0
7.100000 0.100000 0
7.200000 0.100000 0
7.300000 0.100000 0
7.400000 0.100000 0
7.500000 0.100000 0
7.600000 0.100000 0
7.700000 0.100000 0
7.800000 0.100000 0
7.900000 0.100000 0
8.000000 0.100000 0
8.100000 0.100000 0
8.200000 0.100000 0
8.300000 0.100000 0
8.400000 0.100000 0
8.500000 0.100000 0
8.600000 0.100000 0
8.700000 0.100000 0
8.800000 0.100000 0
8.900000 0.100000 0
9.000000 0.100000 0
9.100000 0.100000 0
9.200000 0.100000 0
9.300000 0.100000 0
9.400000 0.100000 0
9.500000 0.100000 0
9.600000 0.100000 0
9.700000 0.100000 0
9.800000 0.100000 0
0.000000 0.200000 0
0.100000 0.200000 0
0.200000 0.200000 0
0.300000 0.200000 0
0.400000 0.200000 0
0.500000 0.200000 0
0.600000 0.200000 0
0.700000 0.200000 0
0.800000 0.200000 0
0.900000 0.200000 0
1.000000 0.200000 0
1.100000 0.200000 0
1.200000 0.200000 0
1.300000 0.200000 0
1.400000 0.200000 0
1.500000 0.200000 0
1.600000 0.200000 0
1.700000 0.200000 0
1.800000 0.200000 0
1.900000 0.200000 0
2.000000 0.200000 0
2.100000 0.200000 0
2.200000 0.200000 0
2.300000 0.200000 0
2.400000 0.200000 0
2.500000 0.200000 0
2.600000 0.200000 0
2.700000 0.200000 0
2.800000 0.200000 0
2.900000 0.200000 0
3.000000 0.200000 0
3.100000 0.200000 0
3.200000 0.200000 0
3.300000 0.200000 0
3.400000 0.200000 0
3.500000 0.200000 0
3.600000 0.200000 0
3.700000 0.200000 0
3.800000 0.200000 0
3.900000 0.200000 0
4.000000 0.200000 0
4.100000 0.200000 0
4.200000 0.200000 0
4.300000 0.200000 0
4.400000 0.200000 0
4.500000 0.200000 0
4.600000 0.200000 0
4.700000 0.200000 0
4.800000 0.200000 0
4.900000 0.200000 0
5.000000 0.200000 0
5.100000 0.200000 0
5.200000 0.200000 0
5.300000 0.200000 0
5.400000 0.200000 0
5.500000 0.200000 0
5.600000 0.200000 0
5.700000 0.200000 0
5.800000 0.200000 0
5.900000 0.200000 0
6.000000 0.200000 0
6.100000 0.200000 0
6.200000 0.200000 0
6.300000 0.200000 0
6.400000 0.200000 0
6.500000 0.200000 0
6.600000 0.200000 0
6.700000 0.200000 0
6.800000 0.200000 0
6.900000 0.200000 0
7.000000 0.200000 0
7.100000 0.200000 0
7.200000 0.200000 0
7.300000 0.200000 0
7.400000 0.200000 0
7.500000 0.200000 0
7.600000 0.200000 0
7.700000 0.200000 0
7.800000 0.200000 0
7.900000 0.200000 0
8.000000 0.200000 0
8.100000 0.200000 0
8.200000 0.200000 0
8.300000 0.200000 0
8.400000 0.200000 0
8.500000 0.200000 0
8.600000 0.200000 0
8.700000 0.200000 0
8.800000 0.200000 0
8.900000 0.200000 0
9.000000 0.200000 0
9.100000 0.200000 0
9.200000 0.200000 0
9.300000 0.200000 0
9.400000 0.200000 0
9.500000 0.200000 0
9.600000 0.200000 0
9.700000 0.200000 0
9.800000 0.200000 0
0.000000 0.300000 0
0.100000 0.300000 0
0.200000 0.300000 0
0.300000 0.300000 0
0.400000 0.300000 0
0.500000 0.300000 0
0.600000 0.300000 0
0.700000 0.300000 0
0.800000 0.300000 0
0.900000 0.300000 0
1.000000 0.300000 0
1.100000 0.300000 0
1.200000 0.300000 0
1.300000 0.300000 0
1.400000 0.300000 0
1.500000 0.300000 0
1.600000 0.300000 0
1.700000 0.300000 0
1.800000 0.300000 0
1.900000 0.300000 0
2.000000 0.300000 0
2.100000 0.300000 0
2.200000 0.300000 0
2.300000 0.300000 0
2.400000 0.300000 0
2.500000 0.300000 0
2.600000 0.300000 0
2.700000 0.300000 0
2.800000 0.300000 0
2.900000 0.300000 0
3.000000 0.300000 0
3.100000 0.300000 0
3.200000 0.300000 0
3.300000 0.300000 0
3.400000 0.300000 0
3.500000 0.300000 0
3.600000 0.300000 0
3.700000 0.300000 0
3.800000 0.300000 0
3.900000 0.300000 0
4.000000 0.300000 0
4.100000 0.300000 0
4.200000 0.300000 0
4.300000 0.300000 0
4.400000 0.300000 0
4.500000 0.300000 0
4.600000 0.300000 0
4.700000 0.300000 0
4.800000 0.300000 0
4.900000 0.300000 0
5.000000 0.300000 0
5.100000 0.300000 0
5.200000 0.300000 0
5.300000 0.300000 0
5.400000 0.300000 0
5.500000 0.300000 0
5.600000 0.300000 0
5.700000 0.300000 0
5.800000 0.300000 0
5.900000 0.300000 0
6.000000 0.300000 0
6.100000 0.300000 0
6.200000 0.300000 0
6.300000 0.300000 0
6.400000 0.300000 0
6.500000 0.300000 0
6.600000 0.300000 0
6.700000 0.300000 0
6.800000 0.300000 0
6.900000 0.300000 0
7.000000 0.300000 0
7.100000 0.300000 0
7.200000 0.300000 0
7.300000 0.300000 0
7.400000 0.300000 0
7.500000 0.300000 0
7.600000 0.300000 0
7.700000 0.300000 0
7.800000 0.300000 0
7.900000 0.300000 0
8.000000 0.300000 0
8.100000 0.300000 0
8.200000 0.300000 0
8.300000 0.300000 0
8.400000 0.300000 0
8.500000 0.300000 0
8.600000 0.300000 0
8.700000 0.300000 0
8.800000 0.300000 0
8.900000 0.300000 0
9.000000 0.300000 0
9.100000 0.300000 0
9.200000 0.300000 0
9.300000 0.300000 0
9.400000 0.300000 0
9.500000 0.300000 0
9.600000 0.300000 0
9.700000 0.300000 0
9.800000 0.300000 0
0.000000 0.400000 0
0.100000 0.400000 0
0.200000 0.400000 0
0.300000 0.400000 0
0.400000 0.400000 0
0.500000 0.400000 0
0.600000 0.400000 0
0.700000 0.400000 0
0.800000 0.400000 0
0.900000 0.400000 0
1.000000 0.400000 0
1.100000 0.400000 0
1.200000 0.400000 0
1.300000 0.400000 0
1.400000 0.400000 0
1.500000 0.400000 0
1.600000 0.400000 0
1.700000 0.400000 0
1.800000 0.400000 0
1.900000 0.400000 0
2.000000 0.400000 0
2.100000 0.400000 0
2.200000 0.400000 0
2.300000 0.400000 0
2.400000 0.400000 0
2.500000 0.400000 0
2.600000 0.400000 0
2.700000 0.400000 0
2.800000 0.400000 0
2.900000 0.400000 0
3.000000 0.400000 0
3.100000 0.400000 0
3.200000 0.400000 0
3.300000 0.400000 0
3.400000 0.400000 0
3.500000 0.400000 0
3.600000 0.400000 0
3.700000 0.400000 0
3.800000 0.400000 0
3.900000 0.400000 0
4.000000 0.400000 0
4.100000 0.400000 0
4.200000 0.400000 0
4.300000 0.400000 0
4.400000 0.400000 0
4.500000 0.400000 0
4.600000 0.400000 0
4.700000 0.400000 0
4.800000 0.400000 0
4.900000 0.400000 0
5.000000 0.400000 0
5.100000 0.400000 0
5.200000 0.400000 0
5.300000 0.400000 0
5.400000 0.400000 0
5.500000 0.400000 0
5.600000 0.400000 0
5.700000 0.400000 0
5.800000 0.400000 0
5.900000 0.400000 0
6.000000 0.400000 0
6.100000 0.400000 0
6.200000 0.400000 0
6.300000 0.400000 0
6.400000 0.400000 0
6.500000 0.400000 0
6.600000 0.400000 0
6.700000 0.400000 0
6.800000 0.400000 0
6.900000 0.400000 0
7.000000 0.400000 0
7.100000 0.400000 0
7.200000 0.400000 0
7.300000 0.400000 0
7.400000 0.400000 0
7.500000 0.400000 0
7.600000 0.400000 0
7.700000 0.400000 0
7.800000 0.400000 0
7.900000 0.400000 0
8.000000 0.400000 0
8.100000 0.400000 0
8.200000 0.400000 0
8.300000 0.400000 0
8.400000 0.400000 0
8.500000 0.400000 0
8.600000 0.400000 0
8.700000 0.400000 0
8.800000 0.400000 0
8.900000 0.400000 0
9.000000 0.400000 0
9.100000 0.400000 0
9.200000 0.400000 0
9.300000 0.400000 0
9.400000 0.400000 0
[...]
POINT_DATA 1881 

VECTORS velocity float
0.500000 0.000000 0
0.502197 0.000000 0
0.507010 0.000000 0
0.514826 0.000000 0
0.526023 0.000000 0
0.540863 0.000000 0
0.559295 0.000000 0
0.580652 0.000000 0
0.603431 0.000000 0
0.625232 0.000000 0
0.644050 0.000000 0
0.658890 0.000000 0
0.669643 0.000000 0
0.676755 0.000000 0
0.680979 0.000000 0
0.683196 0.000000 0
0.684280 0.000000 0
0.684946 0.000000 0
0.685608 0.000000 0
0.686236 0.000000 0
0.686355 0.000000 0
0.685207 0.000000 0
0.682054 0.000000 0
0.676415 0.000000 0
0.668116 0.000000 0
0.657291 0.000000 0
0.644309 0.000000 0
0.629702 0.000000 0
0.614105 0.000000 0
0.598215 0.000000 0
0.582756 0.000000 0
0.568457 0.000000 0
0.556035 0.000000 0
0.546212 0.000000 0
0.539756 0.000000 0
0.537525 0.000000 0
0.540213 0.000000 0
0.548026 0.000000 0
0.560527 0.000000 0
0.576492 0.000000 0
0.593948 0.000000 0
0.610441 0.000000 0
0.623535 0.000000 0
0.631444 0.000000 0
0.633508 0.000000 0
0.629966 0.000000 0
0.621450 0.000000 0
0.608860 0.000000 0
0.593239 0.000000 0
0.575656 0.000000 0
0.557132 0.000000 0
0.538610 0.000000 0
0.520965 0.000000 0
0.505025 0.000000 0
0.491607 0.000000 0
0.481532 0.000000 0
0.475568 0.000000 0
0.474254 0.000000 0
0.477533 0.000000 0
0.484960 0.000000 0
0.495989 0.000000 0
0.510030 0.000000 0
0.526440 0.000000 0
0.544441 0.000000 0
0.562997 0.000000 0
0.580711 0.000000 0
0.595858 0.000000 0
0.606663 0.000000 0
0.611821 0.000000 0
0.610941 0.000000 0
0.604248 0.000000 0
0.592284 0.000000 0
0.575919 0.000000 0
0.556339 0.000000 0
0.534999 0.000000 0
0.513544 0.000000 0
0.493690 0.000000 0
0.477042 0.000000 0
0.464860 0.000000 0
0.457851 0.000000 0
0.456003 0.000000 0
0.458452 0.000000 0
0.464033 0.000000 0
0.471821 0.000000 0
0.481198 0.000000 0
0.491792 0.000000 0
0.503371 0.000000 0
0.515722 0.000000 0
0.528508 0.000000 0
0.541162 0.000000 0
0.552835 0.000000 0
0.562453 0.000000 0
0.568901 0.000000 0
0.571333 0.000000 0
0.569369 0.000000 0
0.562913 0.000000 0
0.552082 0.000000 0
0.537225 0.000000 0
0.518819 0.000000 0
1.000000 -0.002168 0
1.004963 -0.006961 0
1.015231 -0.012597 0
1.031502 -0.018988 0
1.054605 -0.026017 0
1.085267 -0.033261 0
1.123673 -0.039785 0
1.168730 -0.044136 0
1.217465 -0.044583 0
1.263805 -0.040623 0
1.303151 -0.033664 0
1.333679 -0.025600 0
1.355513 -0.017872 0
1.369812 -0.011342 0
1.378251 -0.006443 0
1.382726 -0.003288 0
1.385091 -0.001723 0
1.386921 -0.001296 0
1.389178 -0.001255 0
1.391833 -0.000713 0
1.393733 0.001055 0
1.393077 0.004312 0
1.388195 0.008802 0
1.378030 0.013954 0
1.362253 0.019138 0
1.341206 0.023819 0
1.315704 0.027597 0
1.286868 0.030209 0
1.256012 0.031489 0
1.224561 0.031348 0
1.193986 0.029754 0
1.165758 0.026715 0
1.141301 0.022238 0
1.121997 0.016271 0
1.109207 0.008679 0
1.104301 -0.000464 0
1.108550 -0.010509 0
1.122706 -0.020319 0
1.146386 -0.028465 0
1.177658 -0.033413 0
1.213067 -0.033936 0
1.248004 -0.029571 0
1.277442 -0.020982 0
1.297080 -0.009952 0
1.304573 0.001496 0
1.300018 0.012073 0
1.284868 0.021116 0
1.261129 0.028216 0
1.231046 0.033207 0
1.196865 0.036110 0
1.160705 0.037047 0
1.124503 0.036167 0
1.090021 0.033585 0
1.058874 0.029357 0
1.032527 0.023491 0
1.012223 0.016037 0
0.998849 0.007276 0
0.992833 -0.001968 0
0.994217 -0.010710 0
1.002698 -0.018459 0
1.017782 -0.025073 0
1.038841 -0.030453 0
1.065143 -0.034412 0
1.095742 -0.036556 0
1.129223 -0.036266 0
1.163431 -0.032855 0
1.195400 -0.025944 0
1.221601 -0.015953 0
1.238558 -0.004268 0
1.243812 0.007581 0
1.237042 0.018664 0
1.219386 0.028334 0
1.192657 0.035947 0
1.159242 0.040920 0
1.121958 0.042794 0
1.083868 0.041306 0
1.048018 0.036499 0
1.017091 0.028827 0
0.993006 0.019188 0
0.976640 0.008855 0
0.967820 -0.000602 0
0.965701 -0.008030 0
0.969074 -0.013369 0
0.976749 -0.017166 0
0.987867 -0.019971 0
1.001947 -0.022174 0
1.018768 -0.023931 0
1.038163 -0.025137 0
1.059751 -0.025440 0
1.082700 -0.024328 0
1.105614 -0.021292 0
1.126569 -0.016066 0
1.143299 -0.008879 0
1.153529 -0.000467 0
1.155536 0.008420 0
1.148846 0.017287 0
1.133848 0.025689 0
1.111492 0.033263 0
1.083120 0.037228 0
1.000000 -0.004916 0
1.005122 -0.015164 0
1.015401 -0.026506 0
1.031578 -0.039349 0
1.054803 -0.053747 0
1.086469 -0.069061 0
1.127769 -0.083461 0
1.178544 -0.093792 0
1.236717 -0.095079 0
1.290288 -0.085691 0
1.332914 -0.069881 0
1.363903 -0.052370 0
1.384688 -0.036139 0
1.397228 -0.022742 0
1.403669 -0.012903 0
1.406234 -0.006809 0
1.407112 -0.004155 0
1.408333 -0.004043 0
1.411378 -0.004872 0
1.416434 -0.004523 0
1.421790 -0.001227 0
1.424592 0.005545 0
1.422460 0.015063 0
1.414102 0.025962 0
1.399314 0.036838 0
1.378670 0.046560 0
1.353198 0.054347 0
1.324165 0.059696 0
1.292966 0.062308 0
1.261074 0.062022 0
1.229983 0.058796 0
1.201142 0.052677 0
1.175892 0.043753 0
1.155426 0.032085 0
1.140809 0.017686 0
1.133066 0.000648 0
1.133442 -0.018412 0
1.143158 -0.037835 0
1.162474 -0.054944 0
1.190381 -0.066667 0
1.224716 -0.070325 0
1.262094 -0.064349 0
1.297803 -0.049050 0
1.326276 -0.027108 0
1.342595 -0.002920 0
1.344940 0.019717 0
1.335020 0.038895 0
1.315311 0.053826 0
1.288416 0.064268 0
1.256823 0.070343 0
1.222779 0.072364 0
1.188254 0.070685 0
1.154941 0.065628 0
1.124262 0.057492 0
1.097326 0.046649 0
1.074847 0.033676 0
1.057069 0.019387 0
1.043881 0.004628 0
1.035275 -0.009869 0
1.031395 -0.023569 0
1.032502 -0.036146 0
1.038949 -0.047362 0
1.051226 -0.056899 0
1.069770 -0.064076 0
1.094466 -0.067682 0
1.124226 -0.066167 0
1.156855 -0.058158 0
1.189155 -0.043146 0
1.217127 -0.022200 0
1.236545 0.001525 0
1.244602 0.024432 0
1.241554 0.044389 0
1.228933 0.060144 0
1.208817 0.070697 0
1.183591 0.075372 0
1.155704 0.073937 0
1.127422 0.066774 0
1.100581 0.055009 0
1.076423 0.040448 0
1.055569 0.025185 0
1.038192 0.010938 0
1.024434 -0.001255 0
1.014316 -0.011048 0
1.007655 -0.018794 0
1.004428 -0.025199 0
1.004912 -0.030901 0
1.009566 -0.036216 0
1.018818 -0.040984 0
1.032727 -0.044537 0
1.050765 -0.045863 0
1.071799 -0.043869 0
1.094187 -0.037685 0
1.115880 -0.026959 0
1.134496 -0.012237 0
1.147615 0.004683 0
1.153615 0.021688 0
1.152514 0.037355 0
1.145207 0.050728 0
1.133166 0.057698 0
1.000000 -0.007258 0
1.004134 -0.022329 0
1.012698 -0.039052 0
1.026678 -0.058391 0
1.047768 -0.080913 0
1.078502 -0.106232 0
1.122120 -0.131863 0
1.180936 -0.153087 0
1.258360 -0.156329 0
1.322307 -0.136822 0
1.365916 -0.107281 0
1.393442 -0.077375 0
1.409233 -0.051196 0
1.416272 -0.030309 0
1.417101 -0.015419 0
1.414198 -0.006701 0
1.410079 -0.003800 0
1.407445 -0.005546 0
1.408988 -0.009352 0
1.415956 -0.011135 0
1.426038 -0.007116 0
1.434059 0.003646 0
1.435554 0.019303 0
1.428995 0.037103 0
1.414552 0.054573 0
1.393324 0.069934 0
1.366716 0.082101 0
1.336187 0.090438 0
1.303220 0.094575 0
1.269328 0.094327 0
1.236033 0.089683 0
1.204777 0.080802 0
1.176797 0.067950 0
1.153027 0.051352 0
1.134145 0.031038 0
1.120682 0.006902 0
1.113201 -0.020595 0
1.112854 -0.049339 0
1.120593 -0.075674 0
1.136961 -0.095640 0
1.162347 -0.105634 0
1.196038 -0.102645 0
1.235071 -0.085156 0
1.273842 -0.054740 0
1.304944 -0.017171 0
1.321781 0.019641 0
1.323460 0.050740 0
1.312935 0.074820 0
1.293243 0.091696 0
1.267190 0.101746 0
1.237219 0.105615 0
1.205384 0.104005 0
1.173366 0.097577 0
1.142486 0.086970 0
1.113713 0.072905 0
1.087655 0.056294 0
1.064518 0.038240 0
1.044087 0.019824 0
1.025812 0.001775 0
1.009325 -0.015687 0
0.995201 -0.032626 0
0.985528 -0.049174 0
0.982875 -0.065228 0
0.989248 -0.079789 0
1.005180 -0.090714 0
1.029614 -0.095237 0
1.060337 -0.090868 0
1.094458 -0.076221 0
1.128668 -0.051656 0
1.159261 -0.019895 0
1.182073 0.013652 0
1.194616 0.044000 0
1.197444 0.068681 0
1.191883 0.086260 0
1.179603 0.095906 0
1.162345 0.097474 0
1.141722 0.091622 0
1.119110 0.079826 0
1.095649 0.064200 0
1.072278 0.047087 0
1.049702 0.030533 0
1.028302 0.015846 0
1.008390 0.003410 0
0.990488 -0.007279 0
0.975522 -0.017228 0
0.964928 -0.027311 0
0.960215 -0.037838 0
0.962265 -0.048299 0
0.971025 -0.057386 0
0.985621 -0.063398 0
1.004652 -0.064713 0
1.026489 -0.060146 0
1.049457 -0.049188 0
1.071911 -0.032202 0
1.092126 -0.010700 0
1.108068 0.012387 0
1.118511 0.034097 0
1.123682 0.052611 0
1.124380 0.062697 0
1.000000 -0.009024 0
1.002715 -0.027837 0
1.008505 -0.049051 0
1.018467 -0.074420 0
1.034742 -0.105576 0
1.061170 -0.143416 0
1.104178 -0.185897 0
1.171677 -0.230035 0
1.286669 -0.236451 0
1.356675 -0.193249 0
1.389820 -0.141017 0
1.404969 -0.095687 0
1.410144 -0.058961 0
1.407885 -0.030583 0
1.400107 -0.010800 0
1.388307 0.000234 0
1.375442 0.002613 0
1.364911 -0.002949 0
1.360374 -0.013388 0
1.366347 -0.021586 0
1.381831 -0.019330 0
1.399252 -0.003957 0
1.408605 0.020134 0
1.406700 0.046966 0
1.394784 0.072509 0
1.374970 0.094396 0
1.349122 0.111481 0
1.318774 0.123189 0
1.285358 0.129163 0
1.250365 0.129206 0
1.215373 0.123344 0
1.181897 0.111911 0
1.151100 0.095501 0
1.123493 0.074736 0
1.098934 0.050031 0
1.076796 0.021597 0
1.055923 -0.010573 0
1.035683 -0.045216 0
1.019778 -0.079037 0
1.013863 -0.108405 0
1.022502 -0.129389 0
1.047009 -0.137065 0
1.085164 -0.126850 0
1.131896 -0.096982 0
1.179740 -0.050865 0
1.219435 0.001197 0
1.243082 0.047742 0
1.251193 0.084044 0
1.246977 0.110012 0
1.233356 0.126367 0
1.212918 0.134169 0
1.187885 0.134536 0
1.160109 0.128526 0
1.131085 0.117144 0
1.101915 0.101479 0
1.073171 0.082870 0
1.044688 0.062954 0
1.015623 0.043333 0
0.985223 0.024891 0
0.954167 0.007043 0
0.925299 -0.012346 0
0.903025 -0.035032 0
0.891708 -0.060613 0
0.893057 -0.086374 0
0.906122 -0.108041 0
0.928669 -0.121318 0
0.958141 -0.122997 0
0.992008 -0.111474 0
1.027807 -0.087003 0
1.063016 -0.051882 0
1.094667 -0.010926 0
1.118879 0.029014 0
1.134128 0.062875 0
1.140820 0.088536 0
1.139838 0.104908 0
1.132260 0.111816 0
1.119174 0.110009 0
1.101584 0.101082 0
1.080376 0.087281 0
1.056296 0.071132 0
1.030010 0.054913 0
1.002329 0.040057 0
0.974565 0.026765 0
0.948731 0.014074 0
0.927202 0.000361 0
0.912076 -0.015595 0
0.904734 -0.033553 0
0.905434 -0.051793 0
0.913366 -0.067893 0
0.927143 -0.079490 0
0.945235 -0.084737 0
0.966174 -0.082489 0
0.988633 -0.072381 0
1.011439 -0.054906 0
1.033505 -0.031474 0
1.053615 -0.004697 0
1.070072 0.021741 0
1.082182 0.044859 0
1.089926 0.058086 0
1.000000 -0.009953 0
1.000776 -0.030815 0
1.002549 -0.054805 0
1.006134 -0.084630 0
1.013462 -0.123619 0
1.028855 -0.175669 0
1.061747 -0.242371 0
1.129655 -0.335580 0
1.303052 -0.341328 0
1.347509 -0.239975 0
1.341255 -0.155575 0
1.330183 -0.097693 0
1.319660 -0.054090 0
1.306941 -0.020245 0
1.287605 0.004181 0
1.262832 0.017978 0
1.236368 0.019602 0
1.212725 0.009519 0
1.195973 -0.010799 0
1.191411 -0.032596 0
1.205261 -0.040008 0
1.234087 -0.023118 0
1.263685 0.011856 0
1.278642 0.050926 0
1.279873 0.086302 0
1.271666 0.115594 0
1.256138 0.138294 0
1.234421 0.154199 0
1.207557 0.162981 0
1.176902 0.164309 0
1.144181 0.158149 0
1.111178 0.145075 0
1.078810 0.126354 0
1.045806 0.103518 0
1.008723 0.077739 0
0.964939 0.049922 0
0.916462 0.020528 0
0.870008 -0.013181 0
0.834613 -0.053839 0
0.818776 -0.098352 0
0.824184 -0.138770 0
0.848332 -0.165302 0
0.887623 -0.170044 0
0.938087 -0.149322 0
0.995009 -0.104714 0
1.052098 -0.043701 0
1.100054 0.018983 0
1.131837 0.070925 0
1.148818 0.109533 0
1.153406 0.135804 0
1.147883 0.151086 0
1.134335 0.156814 0
1.114576 0.154376 0
1.089998 0.145163 0
1.061335 0.130819 0
1.028465 0.113519 0
0.990742 0.095786 0
0.948279 0.079289 0
0.903616 0.063232 0
0.862093 0.044240 0
0.829836 0.018520 0
0.810708 -0.015578 0
0.805347 -0.055253 0
0.811754 -0.094197 0
0.827187 -0.126320 0
0.849393 -0.147251 0
0.876732 -0.154205 0
0.907830 -0.145886 0
0.941271 -0.122665 0
0.975485 -0.086758 0
1.008681 -0.042214 0
1.038239 0.004536 0
1.060891 0.046738 0
1.075834 0.080550 0
1.083104 0.104465 0
1.083070 0.118138 0
1.076212 0.122298 0
1.063000 0.118624 0
1.043853 0.109488 0
1.019272 0.097452 0
0.990183 0.084499 0
0.958396 0.071290 0
0.926781 0.057007 0
0.898824 0.040084 0
0.877622 0.019427 0
0.864808 -0.004843 0
0.860352 -0.031195 0
0.863205 -0.056930 0
0.871921 -0.079095 0
0.885120 -0.095268 0
0.901640 -0.103743 0
0.920501 -0.103544 0
0.940835 -0.094453 0
0.961832 -0.077074 0
0.982720 -0.052875 0
1.002725 -0.024180 0
1.020720 0.005530 0
1.035284 0.032758 0
1.045623 0.049030 0
1.000000 -0.009786 0
0.998458 -0.030371 0
0.995226 -0.054409 0
0.990257 -0.085336 0
0.983978 -0.128299 0
0.978518 -0.191702 0
0.981306 -0.286699 0
1.014521 -0.471342 0
1.208211 -0.454307 0
1.160677 -0.231451 0
1.075256 -0.123688 0
1.031549 -0.074077 0
1.010584 -0.035692 0
0.989319 0.001494 0
0.956735 0.033325 0
0.912843 0.051478 0
0.862574 0.052718 0
0.814314 0.037438 0
0.778848 0.007919 0
0.766535 -0.030866 0
0.787779 -0.061996 0
0.838399 -0.062377 0
0.906734 -0.024420 0
0.972069 0.030777 0
1.016857 0.079484 0
1.042944 0.118128 0
1.055840 0.148723 0
1.056982 0.171768 0
1.047244 0.186680 0
1.027671 0.192580 0
0.999145 0.189067 0
0.961761 0.177281 0
0.914663 0.160872 0
0.857393 0.144826 0
0.792460 0.130906 0
0.726962 0.113867 0
0.671671 0.084370 0
0.636871 0.036648 0
0.625380 -0.027792 0
0.632570 -0.097966 0
0.652766 -0.158940 0
0.682720 -0.200503 0
0.721503 -0.216609 0
0.768820 -0.204374 0
0.823489 -0.164876 0
0.882724 -0.103847 0
0.941623 -0.031997 0
0.990929 0.035280 0
1.025707 0.088442 0
1.047018 0.127301 0
1.056196 0.153239 0
1.054625 0.167843 0
1.043495 0.172862 0
1.023499 0.170384 0
0.994666 0.163011 0
0.956805 0.153463 0
0.910941 0.143139 0
0.861062 0.130458 0
0.814244 0.111080 0
0.778048 0.080827 0
0.757018 0.039044 0
0.751061 -0.010536 0
0.756096 -0.061653 0
0.767753 -0.108208 0
0.783485 -0.145675 0
0.802356 -0.170860 0
0.824283 -0.181433 0
0.849312 -0.176013 0
0.877099 -0.154661 0
0.906753 -0.119295 0
0.936951 -0.073681 0
0.966051 -0.023197 0
0.991205 0.025278 0
1.010216 0.066322 0
1.022300 0.097671 0
1.027119 0.118708 0
1.024531 0.130079 0
1.014506 0.133440 0
0.997235 0.131009 0
0.973474 0.124802 0
0.944978 0.115787 0
0.914667 0.103458 0
0.886177 0.086337 0
0.862865 0.063232 0
0.846856 0.034378 0
0.838699 0.001676 0
0.837518 -0.031950 0
0.841746 -0.063361 0
0.849957 -0.089807 0
0.861127 -0.109208 0
0.874590 -0.120119 0
0.889880 -0.121684 0
0.906580 -0.113712 0
0.924206 -0.096791 0
0.942177 -0.072367 0
0.959823 -0.042697 0
0.976355 -0.010818 0
0.990419 0.019956 0
1.000533 0.039061 0
1.000000 -0.008400 0
0.996175 -0.026030 0
0.987877 -0.046606 0
0.973775 -0.073386 0
0.951559 -0.111883 0
0.917555 -0.173000 0
0.866160 -0.278376 0
0.793618 -0.562486 0
0.556151 -0.389638 0
0.499250 0.000000 0
0.431719 -0.017266 0
0.376606 -0.032998 0
0.380755 -0.011838 0
0.395005 0.033620 0
0.381389 0.080666 0
0.340820 0.112141 0
0.289091 0.118125 0
0.244469 0.093236 0
0.226264 0.036983 0
0.247502 -0.041516 0
0.299856 -0.111868 0
0.373551 -0.142072 0
0.466457 -0.121815 0
0.572311 -0.059199 0
0.669856 0.015425 0
0.742229 0.076609 0
0.789861 0.124255 0
0.817436 0.162794 0
0.826277 0.192290 0
0.816931 0.212407 0
0.789336 0.224059 0
0.743495 0.229557 0
0.681694 0.230724 0
0.611658 0.225726 0
0.547091 0.208179 0
0.502571 0.170721 0
0.485949 0.110631 0
0.495113 0.033123 0
0.519826 -0.049526 0
0.547363 -0.125731 0
0.572979 -0.188917 0
0.597786 -0.234041 0
0.625353 -0.256149 0
0.659406 -0.251309 0
0.701961 -0.218616 0
0.752332 -0.161834 0
0.807399 -0.089222 0
0.861548 -0.013159 0
0.905912 0.053443 0
0.937692 0.105314 0
0.956917 0.143478 0
0.963914 0.169514 0
0.958957 0.185501 0
0.942157 0.193991 0
0.913881 0.197511 0
0.875907 0.197243 0
0.832727 0.191529 0
0.791440 0.175987 0
0.759333 0.146250 0
0.740647 0.101470 0
0.735238 0.045512 0
0.739867 -0.014650 0
0.749981 -0.071939 0
0.762047 -0.121580 0
0.774408 -0.160919 0
0.786962 -0.188047 0
0.800621 -0.201161 0
0.816632 -0.198704 0
0.835832 -0.180109 0
0.858162 -0.146612 0
0.882663 -0.101513 0
0.907819 -0.049719 0
0.931632 0.002572 0
0.951241 0.049454 0
0.965123 0.087561 0
0.972349 0.115906 0
0.972334 0.134910 0
0.964847 0.145919 0
0.950256 0.150519 0
0.929884 0.149709 0
0.906181 0.143305 0
0.882391 0.130090 0
0.861700 0.108810 0
0.846323 0.079406 0
0.837074 0.043594 0
0.833590 0.004496 0
0.834803 -0.034242 0
0.839333 -0.069369 0
0.846048 -0.098476 0
0.854249 -0.119900 0
0.863642 -0.132496 0
0.874203 -0.135535 0
0.885977 -0.128779 0
0.898882 -0.112671 0
0.912595 -0.088492 0
0.926543 -0.058358 0
0.939949 -0.025066 0
0.951740 0.008580 0
0.960133 0.030197 0
1.000000 -0.005952 0
0.994507 -0.018242 0
0.982496 -0.032013 0
0.961603 -0.049022 0
0.927222 -0.072083 0
0.870292 -0.106306 0
0.771435 -0.162764 0
0.588555 -0.259180 0
0.000000 -0.159940 0
0.000000 0.000000 0
0.000000 0.000000 0
-0.025400 -0.031231 0
-0.040207 -0.054074 0
-0.053620 0.000871 0
-0.070681 0.087515 0
-0.096107 0.143773 0
-0.119948 0.149061 0
-0.124349 0.100262 0
-0.093279 0.004894 0
-0.037968 -0.104451 0
0.023494 -0.188043 0
0.090768 -0.228978 0
0.168535 -0.223182 0
0.261544 -0.172624 0
0.365621 -0.090437 0
0.460460 -0.001880 0
0.530100 0.073515 0
0.574219 0.135351 0
0.595321 0.187185 0
0.594372 0.229521 0
0.572855 0.262503 0
0.535140 0.284923 0
0.490468 0.292713 0
0.452128 0.279437 0
0.432600 0.240002 0
0.437633 0.175020 0
0.463913 0.091842 0
0.501267 0.002784 0
0.536404 -0.080033 0
0.563432 -0.151114 0
0.581326 -0.209362 0
0.592205 -0.252880 0
0.600777 -0.278232 0
0.613151 -0.280980 0
0.634654 -0.257802 0
0.667514 -0.209285 0
0.710004 -0.141212 0
0.757503 -0.063233 0
0.802666 0.012298 0
0.838104 0.076294 0
0.861899 0.127016 0
0.873368 0.165803 0
0.872269 0.194617 0
0.859005 0.215459 0
0.835409 0.229260 0
0.805606 0.234617 0
0.775918 0.227607 0
0.753000 0.203854 0
0.741083 0.161877 0
0.740510 0.104926 0
0.748580 0.039830 0
0.761353 -0.025272 0
0.774763 -0.083827 0
0.786314 -0.132631 0
0.794875 -0.170587 0
0.800613 -0.197072 0
0.804902 -0.211104 0
0.809930 -0.211227 0
0.817876 -0.196193 0
0.829989 -0.166127 0
0.846115 -0.123339 0
0.864925 -0.072167 0
0.884474 -0.018145 0
0.902095 0.032830 0
0.915563 0.076563 0
0.923551 0.111496 0
0.925282 0.137579 0
0.920598 0.155518 0
0.910193 0.165971 0
0.895772 0.168876 0
0.879866 0.163279 0
0.865202 0.147938 0
0.853894 0.122406 0
0.846939 0.087859 0
0.844262 0.047112 0
0.845137 0.003948 0
0.848524 -0.037693 0
0.853280 -0.074606 0
0.858495 -0.104723 0
0.863638 -0.126802 0
0.868624 -0.140072 0
0.873765 -0.144019 0
0.879576 -0.138391 0
0.886500 -0.123408 0
0.894657 -0.100028 0
0.903738 -0.070051 0
0.913049 -0.036015 0
0.921605 -0.000229 0
0.927755 0.023351 0
1.000000 -0.002902 0
0.993908 -0.008524 0
0.980669 -0.013707 0
0.957828 -0.018117 0
0.920671 -0.020576 0
0.860469 -0.017215 0
0.760639 0.003360 0
0.587843 0.105916 0
0.273358 0.095884 0
0.000000 0.000000 0
0.000000 0.000000 0
0.000000 0.000000 0
-0.030310 0.017314 0
-0.109599 0.064104 0
-0.152377 0.123155 0
-0.173551 0.161403 0
-0.170630 0.146361 0
-0.130562 0.066571 0
-0.069830 -0.049391 0
-0.019989 -0.158287 0
0.014974 -0.240604 0
0.044431 -0.287113 0
0.077913 -0.292593 0
0.124639 -0.256288 0
0.188007 -0.183493 0
0.262492 -0.087872 0
0.331449 0.010493 0
0.382037 0.097571 0
0.413317 0.172137 0
0.426562 0.234873 0
0.425146 0.283292 0
0.416293 0.311947 0
0.410460 0.313742 0
0.417829 0.283602 0
0.443782 0.222684 0
0.486745 0.139421 0
0.539508 0.047011 0
0.588978 -0.039357 0
0.626665 -0.111685 0
0.650678 -0.170650 0
0.660726 -0.217692 0
0.658263 -0.253495 0
0.647227 -0.277095 0
0.634270 -0.285185 0
0.627452 -0.272980 0
0.633234 -0.237184 0
0.653499 -0.179211 0
0.685058 -0.105822 0
0.721609 -0.027158 0
0.754581 0.046080 0
0.778831 0.108213 0
0.792613 0.159144 0
0.795608 0.199863 0
0.788993 0.230850 0
0.775887 0.250910 0
0.761275 0.256735 0
0.750750 0.244136 0
0.748360 0.210826 0
0.755089 0.158745 0
0.769148 0.093979 0
0.787413 0.024675 0
0.806053 -0.040827 0
0.821914 -0.096894 0
0.833195 -0.141689 0
0.838914 -0.175217 0
0.839029 -0.198074 0
0.834735 -0.210480 0
0.828521 -0.211680 0
0.823624 -0.200169 0
0.822890 -0.174852 0
0.827672 -0.136450 0
0.837470 -0.088079 0
0.850452 -0.034598 0
0.864143 0.018364 0
0.875879 0.066103 0
0.883992 0.106186 0
0.887616 0.137862 0
0.886699 0.161007 0
0.882089 0.175344 0
0.875431 0.180035 0
0.868754 0.173875 0
0.863833 0.156062 0
0.861676 0.127073 0