# vtk DataFile Version 2.0
generated by CFD-lab course output (written by Tobias Neckel) 
ASCII

DATASET STRUCTURED_GRID
DIMENSIONS  99 19 1 
POINTS 1881 float

0.000000 0.000000 0
0.100000 0.000000 0
0.200000 0.000000 0
0.300000 0.000000 0
0.400000 0.000000 0
0.500000 0.000000 0
0.600000 0.000000 0
0.700000 0.000000 0
0.800000 0.000000 0
0.900000 0.000000 0
1.000000 0.000000 0
1.100000 0.000000 0
1.200000 0.000000 0
1.300000 0.000000 0
1.400000 0.000000 0
1.500000 0.000000 0
1.600000 0.000000 0
1.700000 0.000000 0
1.800000 0.000000 0
1.900000 0.000000 0
2.000000 0.000000 0
2.100000 0.000000 0
2.200000 0.000000 0
2.300000 0.000000 0
2.400000 0.000000 0
2.500000 0.000000 0
2.600000 0.000000 0
2.700000 0.000000 0
2.800000 0.000000 0
2.900000 0.000000 0
3.000000 0.000000 0
3.100000 0.000000 0
3.200000 0.000000 0
3.300000 0.000000 0
3.400000 0.000000 0
3.500000 0.000000 0
3.600000 0.000000 0
3.700000 0.000000 0
3.800000 0.000000 0
3.900000 0.000000 0
4.000000 0.000000 0
4.100000 0.000000 0
4.200000 0.000000 0
4.300000 0.000000 0
4.400000 0.000000 0
4.500000 0.000000 0
4.600000 0.000000 0
4.700000 0.000000 0
4.800000 0.000000 0
4.900000 0.000000 0
5.000000 0.000000 0
5.100000 0.000000 0
5.200000 0.000000 0
5.300000 0.000000 0
5.400000 0.000000 0
5.500000 0.000000 0
5.600000 0.000000 0
5.700000 0.000000 0
5.800000 0.000000 0
5.900000 0.000000 0
6.000000 0.000000 0
6.100000 0.000000 0
6.200000 0.000000 0
6.300000 0.000000 0
6.400000 0.000000 0
6.500000 0.000000 0
6.600000 0.000000 0
6.700000 0.000000 0
6.800000 0.000000 0
6.900000 0.000000 0
7.000000 0.000000 0
7.100000 0.000000 0
7.200000 0.000000 0
7.300000 0.000000 0
7.400000 0.000000 0
7.500000 0.000000 0
7.600000 0.000000 0
7.700000 0.000000 0
7.800000 0.000000 0
7.900000 0.000000 0
8.000000 0.000000 0
8.100000 0.000000 0
8.200000 0.000000 0
8.300000 0.000000 0
8.400000 0.000000 0
8.500000 0.000000 0
8.600000 0.000000 0
8.700000 0.000000 0
8.800000 0.000000 0
8.900000 0.000000 0
9.000000 0.000000 0
9.100000 0.000000 0
9.200000 0.000000 0
9.300000 0.000000 0
9.400000 0.000000 0
9.500000 0.000000 0
9.600000 0.000000 0
9.700000 0.000000 0
9.800000 0.000000 0
0.000000 0.100000 0
0.100000 0.100000 0
0.200000 0.100000 0
0.300000 0.100000 0
0.400000 0.100000 0
0.500000 0.100000 0
0.600000 0.100000 0
0.700000 0.100000 0
0.800000 0.100000 0
0.900000 0.100000 0
1.000000 0.100000 0
1.100000 0.100000 0
1.200000 0.100000 0
1.300000 0.100000 0
1.400000 0.100000 0
1.500000 0.100000 0
1.600000 0.100000 0
1.700000 0.100000 0
1.800000 0.100000 0
1.900000 0.100000 0
2.000000 0.100000 0
2.100000 0.100000 0
2.200000 0.100000 0
2.300000 0.100000 0
2.400000 0.100000 0
2.500000 0.100000 0
2.600000 0.100000 0
2.700000 0.100000 0
2.800000 0.100000 0
2.900000 0.100000 0
3.000000 0.100000 0
3.100000 0.100000 0
3.200000 0.100000 0
3.300000 0.100000 0
3.400000 0.100000 0
3.500000 0.100000 0
3.600000 0.100000 0
3.700000 0.100000 0
3.800000 0.100000 0
3.900000 0.100000 0
4.000000 0.100000 0
4.100000 0.100000 0
4.200000 0.100000 0
4.300000 0.100000 0
4.400000 0.100000 0
4.500000 0.100000 0
4.600000 0.100000 0
4.700000 0.100000 0
4.800000 0.100000 0
4.900000 0.100000 0
5.000000 0.100000 0
5.100000 0.100000 0
5.200000 0.100000 0
5.300000 0.100000 0
5.400000 0.100000 0
5.500000 0.100000 0
5.600000 0.100000 0
5.700000 0.100000 0
5.800000 0.100000 0
5.900000 0.100000 0
6.000000 0.100000 0
6.100000 0.100000 0
6.200000 0.100000 0
6.300000 0.100000 0
6.400000 0.100000 0
6.500000 0.100000 0
6.600000 0.100000 0
6.700000 0.100000 0
6.800000 0.100000 0
6.900000 0.100000 0
7.000000 0.100000 0
7.100000 0.100000 0
7.200000 0.100000 0
7.300000 0.100000 0
7.400000 0.100000 0
7.500000 0.100000 0
7.600000 0.100000 0
7.700000 0.100000 0
7.800000 0.100000 0
7.900000 0.100000 0
8.000000 0.100000 0
8.100000 0.100000 0
8.200000 0.100000 0
8.300000 0.100000 0
8.400000 0.100000 0
8.500000 0.100000 0
8.600000 0.100000 0
8.700000 0.100000 0
8.800000 0.100000 0
8.900000 0.100000 0
9.000000 0.100000 0
9.100000 0.100000 0
9.200000 0.100000 0
9.300000 0.100000 0
9.400000 0.100000 0
9.500000 0.100000 0
9.600000 0.100000 0
9.700000 0.100000 0
9.800000 0.100000 0
0.000000 0.200000 0
0.100000 0.200000 0
0.200000 0.200000 0
0.300000 0.200000 0
0.400000 0.200000 0
0.500000 0.200000 0
0.600000 0.200000 0
0.700000 0.200000 0
0.800000 0.200000 0
0.900000 0.200000 0
1.000000 0.200000 0
1.100000 0.200000 0
1.200000 0.200000 0
1.300000 0.200000 0
1.400000 0.200000 0
1.500000 0.200000 0
1.600000 0.200000 0
1.700000 0.200000 0
1.800000 0.200000 0
1.900000 0.200000 0
2.000000 0.200000 0
2.100000 0.200000 0
2.200000 0.200000 0
2.300000 0.200000 0
2.400000 0.200000 0
2.500000 0.200000 0
2.600000 0.200000 0
2.700000 0.200000 0
2.800000 0.200000 0
2.900000 0.200000 0
3.000000 0.200000 0
3.100000 0.200000 0
3.200000 0.200000 0
3.300000 0.200000 0
3.400000 0.200000 0
3.500000 0.200000 0
3.600000 0.200000 0
3.700000 0.200000 0
3.800000 0.200000 0
3.900000 0.200000 0
4.000000 0.200000 0
4.100000 0.200000 0
4.200000 0.200000 0
4.300000 0.200000 0
4.400000 0.200000 0
4.500000 0.200000 0
4.600000 0.200000 0
4.700000 0.200000 0
4.800000 0.200000 0
4.900000 0.200000 0
5.000000 0.200000 0
5.100000 0.200000 0
5.200000 0.200000 0
5.300000 0.200000 0
5.400000 0.200000 0
5.500000 0.200000 0
5.600000 0.200000 0
5.700000 0.200000 0
5.800000 0.200000 0
5.900000 0.200000 0
6.000000 0.200000 0
6.100000 0.200000 0
6.200000 0.200000 0
6.300000 0.200000 0
6.400000 0.200000 0
6.500000 0.200000 0
6.600000 0.200000 0
6.700000 0.200000 0
6.800000 0.200000 0
6.900000 0.200000 0
7.000000 0.200000 0
7.100000 0.200000 0
7.200000 0.200000 0
7.300000 0.200000 0
7.400000 0.200000 0
7.500000 0.200000 0
7.600000 0.200000 0
7.700000 0.200000 0
7.800000 0.200000 0
7.900000 0.200000 0
8.000000 0.200000 0
8.100000 0.200000 0
8.200000 0.200000 0
8.300000 0.200000 0
8.400000 0.200000 0
8.500000 0.200000 0
8.600000 0.200000 0
8.700000 0.200000 0
8.800000 0.200000 0
8.900000 0.200000 0
9.000000 0.200000 0
9.100000 0.200000 0
9.200000 0.200000 0
9.300000 0.200000 0
9.400000 0.200000 0
9.500000 0.200000 0
9.600000 0.200000 0
9.700000 0.200000 0
9.800000 0.200000 0
0.000000 0.300000 0
0.100000 0.300000 0
0.200000 0.300000 0
0.300000 0.300000 0
0.400000 0.300000 0
0.500000 0.300000 0
0.600000 0.300000 0
0.700000 0.300000 0
0.800000 0.300000 0
0.900000 0.300000 0
1.000000 0.300000 0
1.100000 0.300000 0
1.200000 0.300000 0
1.300000 0.300000 0
1.400000 0.300000 0
1.500000 0.300000 0
1.600000 0.300000 0
1.700000 0.300000 0
1.800000 0.300000 0
1.900000 0.300000 0
2.000000 0.300000 0
2.100000 0.300000 0
2.200000 0.300000 0
2.300000 0.300000 0
2.400000 0.300000 0
2.500000 0.300000 0
2.600000 0.300000 0
2.700000 0.300000 0
2.800000 0.300000 0
2.900000 0.300000 0
3.000000 0.300000 0
3.100000 0.300000 0
3.200000 0.300000 0
3.300000 0.300000 0
3.400000 0.300000 0
3.500000 0.300000 0
3.600000 0.300000 0
3.700000 0.300000 0
3.800000 0.300000 0
3.900000 0.300000 0
4.000000 0.300000 0
4.100000 0.300000 0
4.200000 0.300000 0
4.300000 0.300000 0
4.400000 0.300000 0
4.500000 0.300000 0
4.600000 0.300000 0
4.700000 0.300000 0
4.800000 0.300000 0
4.900000 0.300000 0
5.000000 0.300000 0
5.100000 0.300000 0
5.200000 0.300000 0
5.300000 0.300000 0
5.400000 0.300000 0
5.500000 0.300000 0
5.600000 0.300000 0
5.700000 0.300000 0
5.800000 0.300000 0
5.900000 0.300000 0
6.000000 0.300000 0
6.100000 0.300000 0
6.200000 0.300000 0
6.300000 0.300000 0
6.400000 0.300000 0
6.500000 0.300000 0
6.600000 0.300000 0
6.700000 0.300000 0
6.800000 0.300000 0
6.900000 0.300000 0
7.000000 0.300000 0
7.100000 0.300000 0
7.200000 0.300000 0
7.300000 0.300000 0
7.400000 0.300000 0
7.500000 0.300000 0
7.600000 0.300000 0
7.700000 0.300000 0
7.800000 0.300000 0
7.900000 0.300000 0
8.000000 0.300000 0
8.100000 0.300000 0
8.200000 0.300000 0
8.300000 0.300000 0
8.400000 0.300000 0
8.500000 0.300000 0
8.600000 0.300000 0
8.700000 0.300000 0
8.800000 0.300000 0
8.900000 0.300000 0
9.000000 0.300000 0
9.100000 0.300000 0
9.200000 0.300000 0
9.300000 0.300000 0
9.400000 0.300000 0
9.500000 0.300000 0
9.600000 0.300000 0
9.700000 0.300000 0
9.800000 0.300000 0
0.000000 0.400000 0
0.100000 0.400000 0
0.200000 0.400000 0
0.300000 0.400000 0
0.400000 0.400000 0
0.500000 0.400000 0
0.600000 0.400000 0
0.700000 0.400000 0
0.800000 0.400000 0
0.900000 0.400000 0
1.000000 0.400000 0
1.100000 0.400000 0
1.200000 0.400000 0
1.300000 0.400000 0
1.400000 0.400000 0
1.500000 0.400000 0
1.600000 0.400000 0
1.700000 0.400000 0
1.800000 0.400000 0
1.900000 0.400000 0
2.000000 0.400000 0
2.100000 0.400000 0
2.200000 0.400000 0
2.300000 0.400000 0
2.400000 0.400000 0
2.500000 0.400000 0
2.600000 0.400000 0
2.700000 0.400000 0
2.800000 0.400000 0
2.900000 0.400000 0
3.000000 0.400000 0
3.100000 0.400000 0
3.200000 0.400000 0
3.300000 0.400000 0
3.400000 0.400000 0
3.500000 0.400000 0
3.600000 0.400000 0
3.700000 0.400000 0
3.800000 0.400000 0
3.900000 0.400000 0
4.000000 0.400000 0
4.100000 0.400000 0
4.200000 0.400000 0
4.300000 0.400000 0
4.400000 0.400000 0
4.500000 0.400000 0
4.600000 0.400000 0
4.700000 0.400000 0
4.800000 0.400000 0
4.900000 0.400000 0
5.000000 0.400000 0
5.100000 0.400000 0
5.200000 0.400000 0
5.300000 0.400000 0
5.400000 0.400000 0
5.500000 0.400000 0
5.600000 0.400000 0
5.700000 0.400000 0
5.800000 0.400000 0
5.900000 0.400000 0
6.000000 0.400000 0
6.100000 0.400000 0
6.200000 0.400000 0
6.300000 0.400000 0
6.400000 0.400000 0
6.500000 0.400000 0
6.600000 0.400000 0
6.700000 0.400000 0
6.800000 0.400000 0
6.900000 0.400000 0
7.000000 0.400000 0
7.100000 0.400000 0
7.200000 0.400000 0
7.300000 0.400000 0
7.400000 0.400000 0
7.500000 0.400000 0
7.600000 0.400000 0
7.700000 0.400000 0
7.800000 0.400000 0
7.900000 0.400000 0
8.000000 0.400000 0
8.100000 0.400000 0
8.200000 0.400000 0
8.300000 0.400000 0
8.400000 0.400000 0
8.500000 0.400000 0
8.600000 0.400000 0
8.700000 0.400000 0
8.800000 0.400000 0
8.900000 0.400000 0
9.000000 0.400000 0
9.100000 0.400000 0
9.200000 0.400000 0
9.300000 0.400000 0
9.400000 0.400000 0
[...]
POINT_DATA 1881 

VECTORS velocity float
0.500000 0.000000 0
0.502091 0.000000 0
0.506785 0.000000 0
0.514508 0.000000 0
0.525691 0.000000 0
0.540672 0.000000 0
0.559480 0.000000 0
0.581546 0.000000 0
0.605472 0.000000 0
0.628944 0.000000 0
0.649979 0.000000 0
0.667520 0.000000 0
0.681255 0.000000 0
0.691206 0.000000 0
0.697470 0.000000 0
0.700090 0.000000 0
0.699127 0.000000 0
0.694711 0.000000 0
0.687118 0.000000 0
0.676810 0.000000 0
0.664433 0.000000 0
0.650766 0.000000 0
0.636677 0.000000 0
0.623065 0.000000 0
0.610804 0.000000 0
0.600698 0.000000 0
0.593460 0.000000 0
0.589726 0.000000 0
0.590035 0.000000 0
0.594531 0.000000 0
0.602708 0.000000 0
0.613279 0.000000 0
0.624297 0.000000 0
0.633597 0.000000 0
0.639426 0.000000 0
0.640899 0.000000 0
0.637890 0.000000 0
0.630721 0.000000 0
0.620013 0.000000 0
0.606543 0.000000 0
0.591127 0.000000 0
0.574565 0.000000 0
0.557627 0.000000 0
0.541053 0.000000 0
0.525576 0.000000 0
0.511943 0.000000 0
0.500944 0.000000 0
0.493430 0.000000 0
0.490259 0.000000 0
0.491978 0.000000 0
0.498596 0.000000 0
0.509779 0.000000 0
0.524884 0.000000 0
0.542958 0.000000 0
0.562704 0.000000 0
0.582451 0.000000 0
0.600194 0.000000 0
0.613840 0.000000 0
0.621739 0.000000 0
0.623249 0.000000 0
0.618615 0.000000 0
0.608443 0.000000 0
0.593642 0.000000 0
0.575370 0.000000 0
0.554947 0.000000 0
0.533774 0.000000 0
0.513249 0.000000 0
0.494713 0.000000 0
0.479375 0.000000 0
0.468220 0.000000 0
0.461882 0.000000 0
0.460470 0.000000 0
0.463340 0.000000 0
0.469567 0.000000 0
0.478370 0.000000 0
0.489188 0.000000 0
0.501630 0.000000 0
0.515384 0.000000 0
0.530082 0.000000 0
0.545153 0.000000 0
0.559718 0.000000 0
0.572578 0.000000 0
0.582367 0.000000 0
0.587878 0.000000 0
0.588456 0.000000 0
0.584004 0.000000 0
0.574701 0.000000 0
0.561050 0.000000 0
0.543944 0.000000 0
0.524699 0.000000 0
0.505023 0.000000 0
0.486864 0.000000 0
0.472084 0.000000 0
0.462080 0.000000 0
0.457492 0.000000 0
0.458035 0.000000 0
0.462654 0.000000 0
0.470533 0.000000 0
0.481968 0.000000 0
1.000000 -0.002104 0
1.004737 -0.006809 0
1.014748 -0.012440 0
1.030804 -0.018932 0
1.053846 -0.026188 0
1.084745 -0.033812 0
1.123849 -0.040893 0
1.170256 -0.046000 0
1.221251 -0.047388 0
1.270933 -0.044484 0
1.314767 -0.038553 0
1.350859 -0.031260 0
1.378994 -0.023684 0
1.399562 -0.016219 0
1.412886 -0.008879 0
1.418999 -0.001653 0
1.417888 0.005379 0
1.409722 0.012007 0
1.395015 0.017895 0
1.374711 0.022675 0
1.350136 0.026032 0
1.322909 0.027740 0
1.294821 0.027683 0
1.267725 0.025853 0
1.243412 0.022346 0
1.223506 0.017324 0
1.209417 0.010953 0
1.202346 0.003406 0
1.203316 -0.004817 0
1.212825 -0.012674 0
1.230201 -0.018744 0
1.253068 -0.021576 0
1.277463 -0.020300 0
1.298725 -0.015110 0
1.312854 -0.007283 0
1.317638 0.001550 0
1.312807 0.010185 0
1.299210 0.017878 0
1.278296 0.024178 0
1.251755 0.028888 0
1.221313 0.031978 0
1.188615 0.033499 0
1.155214 0.033510 0
1.122595 0.032047 0
1.092201 0.029104 0
1.065462 0.024626 0
1.043766 0.018506 0
1.028389 0.010678 0
1.020374 0.001445 0
1.020464 -0.008345 0
1.029031 -0.017808 0
1.045959 -0.026295 0
1.070573 -0.033184 0
1.101625 -0.037820 0
1.137287 -0.039491 0
1.175016 -0.037484 0
1.211449 -0.031380 0
1.242578 -0.021533 0
1.264388 -0.009396 0
1.273910 0.003136 0
1.270435 0.014817 0
1.255200 0.024981 0
1.230134 0.033078 0
1.197640 0.038697 0
1.160405 0.041597 0
1.121225 0.041698 0
1.082843 0.039060 0
1.047784 0.033874 0
1.018168 0.026493 0
0.995484 0.017492 0
0.980409 0.007750 0
0.972800 -0.001458 0
0.971983 -0.009096 0
0.976964 -0.015030 0
0.986784 -0.019621 0
1.000744 -0.023259 0
1.018412 -0.026195 0
1.039513 -0.028450 0
1.063689 -0.029765 0
1.090197 -0.029630 0
1.117677 -0.027419 0
1.144089 -0.022642 0
1.166862 -0.015293 0
1.183224 -0.006082 0
1.190785 0.003880 0
1.188403 0.013761 0
1.176435 0.022958 0
1.155994 0.030760 0
1.128894 0.036355 0
1.097607 0.038924 0
1.065097 0.037838 0
1.034481 0.032943 0
1.008525 0.024787 0
0.989130 0.014594 0
0.977057 0.004047 0
0.972096 -0.005161 0
0.973545 -0.012497 0
0.980524 -0.019313 0
0.992934 -0.023152 0
1.000000 -0.004760 0
1.004884 -0.014786 0
1.014880 -0.026097 0
1.030792 -0.039129 0
1.053886 -0.053970 0
1.085675 -0.070026 0
1.127509 -0.085524 0
1.179418 -0.097395 0
1.239687 -0.100652 0
1.296480 -0.093489 0
1.343597 -0.079907 0
1.380459 -0.064225 0
1.408474 -0.048713 0
1.429105 -0.033892 0
1.443025 -0.019429 0
1.450032 -0.005000 0
1.449680 0.009275 0
1.441840 0.022867 0
1.426908 0.035001 0
1.405874 0.044865 0
1.380192 0.051784 0
1.351625 0.055294 0
1.322111 0.055160 0
1.293640 0.051384 0
1.268107 0.044193 0
1.247164 0.033972 0
1.232127 0.021137 0
1.224092 0.006085 0
1.224219 -0.010483 0
1.233682 -0.026881 0
1.252546 -0.040229 0
1.278831 -0.047240 0
1.308472 -0.045633 0
1.336006 -0.035368 0
1.355959 -0.018896 0
1.364794 0.000054 0
1.362250 0.018428 0
1.349868 0.034512 0
1.329643 0.047457 0
1.303627 0.056983 0
1.273710 0.063140 0
1.241571 0.066095 0
1.208702 0.066015 0
1.176475 0.063007 0
1.146173 0.057126 0
1.118991 0.048428 0
1.095961 0.037064 0
1.077823 0.023383 0
1.064953 0.007915 0
1.057628 -0.008666 0
1.056338 -0.025503 0
1.061538 -0.041549 0
1.073477 -0.055668 0
1.092245 -0.066712 0
1.117722 -0.073384 0
1.149121 -0.074151 0
1.184491 -0.067548 0
1.220522 -0.052924 0
1.252696 -0.031317 0
1.275961 -0.006034 0
1.286530 0.018721 0
1.284291 0.040307 0
1.271081 0.057562 0
1.249222 0.069730 0
1.221283 0.076415 0
1.189877 0.077562 0
1.157484 0.073441 0
1.126264 0.064674 0
1.097873 0.052299 0
1.073321 0.037759 0
1.052959 0.022685 0
1.036676 0.008427 0
1.024379 -0.004163 0
1.015945 -0.014801 0
1.011247 -0.023780 0
1.010438 -0.031627 0
1.013961 -0.038766 0
1.022422 -0.045273 0
1.036255 -0.050678 0
1.055314 -0.053979 0
1.078684 -0.053884 0
1.104716 -0.049176 0
1.131165 -0.039126 0
1.155301 -0.023915 0
1.174097 -0.005172 0
1.184955 0.014356 0
1.187097 0.032414 0
1.181298 0.047546 0
1.168975 0.058391 0
1.151960 0.063801 0
1.132216 0.063130 0
1.111548 0.056576 0
1.091382 0.045355 0
1.072684 0.031471 0
1.056038 0.017036 0
1.041904 0.003513 0
1.030838 -0.008428 0
1.022911 -0.019388 0
1.017526 -0.025664 0
1.000000 -0.007007 0
1.003898 -0.021714 0
1.012164 -0.038361 0
1.025835 -0.057946 0
1.046702 -0.081077 0
1.077390 -0.107432 0
1.121256 -0.134619 0
1.180761 -0.158153 0
1.259783 -0.164432 0
1.326299 -0.148393 0
1.373739 -0.122548 0
1.406852 -0.096161 0
1.430682 -0.072338 0
1.448537 -0.050761 0
1.461677 -0.029806 0
1.469241 -0.008312 0
1.469375 0.013566 0
1.461150 0.034772 0
1.444740 0.053852 0
1.421284 0.069381 0
1.392476 0.080270 0
1.360309 0.085811 0
1.326953 0.085658 0
1.294644 0.079848 0
1.265508 0.068815 0
1.241277 0.053298 0
1.223060 0.034024 0
1.211466 0.011322 0
1.207268 -0.014395 0
1.212351 -0.040987 0
1.228005 -0.063876 0
1.253424 -0.077487 0
1.285812 -0.077466 0
1.320295 -0.062595 0
1.350030 -0.036078 0
1.368065 -0.004754 0
1.371318 0.025104 0
1.362153 0.050485 0
1.343644 0.070418 0
1.318565 0.084818 0
1.289181 0.094031 0
1.257284 0.098504 0
1.224317 0.098603 0
1.191501 0.094573 0
1.159915 0.086584 0
1.130524 0.074834 0
1.104135 0.059671 0
1.081277 0.041683 0
1.062033 0.021637 0
1.045985 0.000267 0
1.032632 -0.021719 0
1.022487 -0.043431 0
1.017383 -0.063886 0
1.019620 -0.082058 0
1.031295 -0.096357 0
1.053091 -0.104244 0
1.083800 -0.102772 0
1.120571 -0.089731 0
1.159327 -0.064831 0
1.195077 -0.030698 0
1.222257 0.006484 0
1.236909 0.040427 0
1.239630 0.068143 0
1.232256 0.088493 0
1.216949 0.100941 0
1.195934 0.105496 0
1.171316 0.102673 0
1.144925 0.093486 0
1.118225 0.079437 0
1.092288 0.062406 0
1.067803 0.044395 0
1.045078 0.027123 0
1.024045 0.011635 0
1.004664 -0.001897 0
0.987315 -0.014113 0
0.973184 -0.025970 0
0.964263 -0.038175 0
0.962377 -0.050739 0
0.968407 -0.062653 0
0.982027 -0.072054 0
1.001953 -0.076816 0
1.026361 -0.075120 0
1.053205 -0.065875 0
1.080389 -0.049012 0
1.105757 -0.025772 0
1.126830 0.000762 0
1.141250 0.026617 0
1.148586 0.048884 0
1.149389 0.065696 0
1.144569 0.075686 0
1.135146 0.078251 0
1.122075 0.073778 0
1.106226 0.063651 0
1.088461 0.049939 0
1.069697 0.034828 0
1.050783 0.020039 0
1.032336 0.006495 0
1.014819 -0.006001 0
0.998269 -0.013435 0
1.000000 -0.008676 0
1.002485 -0.026972 0
1.007963 -0.048042 0
1.017574 -0.073672 0
1.033520 -0.105525 0
1.059690 -0.144570 0
1.102535 -0.188874 0
1.169986 -0.235908 0
1.285322 -0.246189 0
1.355963 -0.207457 0
1.390602 -0.160483 0
1.408901 -0.121177 0
1.420599 -0.090388 0
1.430715 -0.064882 0
1.441446 -0.040136 0
1.451246 -0.012700 0
1.454645 0.017360 0
1.448252 0.047493 0
1.431904 0.074858 0
1.407129 0.097119 0
1.375913 0.112750 0
1.340414 0.120808 0
1.302998 0.120816 0
1.266232 0.112822 0
1.232663 0.097556 0
1.204258 0.076416 0
1.181674 0.050955 0
1.164134 0.021888 0
1.150370 -0.011356 0
1.140908 -0.047602 0
1.140241 -0.081289 0
1.151377 -0.105039 0
1.175799 -0.112502 0
1.211926 -0.099592 0
1.253747 -0.066678 0
1.291228 -0.021241 0
1.313740 0.024342 0
1.318769 0.062186 0
1.310740 0.091041 0
1.293448 0.111443 0
1.269754 0.124418 0
1.241804 0.130956 0
1.211246 0.131795 0
1.179406 0.127406 0
1.147403 0.118099 0
1.116188 0.104204 0
1.086462 0.086308 0
1.058372 0.065482 0
1.031137 0.043204 0
1.003242 0.020734 0
0.973836 -0.002004 0
0.944668 -0.026295 0
0.920920 -0.052795 0
0.908844 -0.080616 0
0.911332 -0.106845 0
0.927800 -0.126646 0
0.955801 -0.135021 0
0.992180 -0.128447 0
1.033489 -0.105823 0
1.075975 -0.068965 0
1.115267 -0.023115 0
1.145827 0.022931 0
1.164638 0.062214 0
1.172548 0.092410 0
1.171033 0.112737 0
1.161801 0.123195 0
1.146548 0.124451 0
1.126821 0.117766 0
1.103902 0.104936 0
1.078726 0.088181 0
1.051807 0.069895 0
1.023359 0.052186 0
0.993736 0.036251 0
0.964094 0.021929 0
0.936710 0.007702 0
0.914491 -0.008571 0
0.900085 -0.027955 0
0.895156 -0.049411 0
0.899637 -0.070323 0
0.912210 -0.087521 0
0.931057 -0.098214 0
0.954329 -0.100425 0
0.980308 -0.093151 0
1.007437 -0.076464 0
1.034270 -0.051610 0
1.059309 -0.021135 0
1.080443 0.010661 0
1.095853 0.039410 0
1.105237 0.062410 0
1.108707 0.078046 0
1.106565 0.085626 0
1.099199 0.085497 0
1.087085 0.078970 0
1.070834 0.068001 0
1.051224 0.054714 0
1.029220 0.040873 0
1.005987 0.027537 0
0.982889 0.014678 0
0.961599 0.006512 0
1.000000 -0.009508 0
1.000562 -0.029697 0
1.002027 -0.053455 0
1.005239 -0.083505 0
1.012157 -0.123187 0
1.027092 -0.176433 0
1.059389 -0.244900 0
1.126359 -0.340934 0
1.297753 -0.350418 0
1.339320 -0.253692 0
1.330143 -0.175497 0
1.316291 -0.126149 0
1.304707 -0.094141 0
1.298723 -0.071608 0
1.301909 -0.050341 0
1.315107 -0.021517 0
1.329669 0.016554 0
1.332592 0.057505 0
1.323442 0.094966 0
1.304403 0.125363 0
1.277367 0.146978 0
1.244060 0.158719 0
1.206568 0.159833 0
1.167616 0.150177 0
1.130410 0.130785 0
1.097323 0.104292 0
1.067502 0.074157 0
1.036833 0.042636 0
1.002296 0.008844 0
0.965580 -0.030846 0
0.935354 -0.074335 0
0.924910 -0.113042 0
0.938957 -0.138018 0
0.975113 -0.140553 0
1.027306 -0.115389 0
1.086595 -0.064746 0
1.140759 -0.002436 0
1.177279 0.053482 0
1.195245 0.095737 0
1.199240 0.125801 0
1.192552 0.145672 0
1.177651 0.157008 0
1.156525 0.160997 0
1.130812 0.158413 0
1.101766 0.149799 0
1.070020 0.135771 0
1.035190 0.117484 0
0.995899 0.097005 0
0.951138 0.076765 0
0.902675 0.057570 0
0.856119 0.036858 0
0.818607 0.009490 0
0.795453 -0.028053 0
0.788525 -0.072462 0
0.796044 -0.115306 0
0.815014 -0.148706 0
0.842859 -0.167148 0
0.877554 -0.167418 0
0.917163 -0.148627 0
0.959498 -0.112480 0
1.001945 -0.063371 0
1.040937 -0.008946 0
1.071282 0.041422 0
1.091401 0.082097 0
1.101762 0.111688 0
1.103299 0.129982 0
1.097094 0.137654 0
1.084160 0.136133 0
1.065262 0.127532 0
1.040834 0.114502 0
1.011154 0.099762 0
0.976950 0.085194 0
0.940214 0.070900 0
0.904524 0.055130 0
0.874299 0.035494 0
0.853125 0.010659 0
0.842349 -0.018835 0
0.841340 -0.050286 0
0.848353 -0.079702 0
0.861501 -0.103470 0
0.879221 -0.118931 0
0.900292 -0.124367 0
0.923682 -0.118980 0
0.948419 -0.102972 0
0.973533 -0.077643 0
0.998021 -0.045408 0
1.020696 -0.009923 0
1.039536 0.024093 0
1.053299 0.052844 0
1.061479 0.074360 0
1.063822 0.087760 0
1.060246 0.093258 0
1.050835 0.092017 0
1.035920 0.085801 0
1.016196 0.076442 0
0.992886 0.065276 0
0.967833 0.052826 0
0.943412 0.038387 0
0.922679 0.027922 0
1.000000 -0.009252 0
0.998275 -0.029015 0
0.994770 -0.052721 0
0.989448 -0.083800 0
0.982741 -0.127369 0
0.976728 -0.191788 0
0.978682 -0.288133 0
1.010427 -0.474274 0
1.199993 -0.459161 0
1.145806 -0.239860 0
1.052840 -0.137449 0
1.000510 -0.095728 0
0.962751 -0.072818 0
0.935622 -0.062087 0
0.925373 -0.056526 0
0.940561 -0.040469 0
0.978310 -0.000133 0
1.013989 0.053713 0
1.032717 0.103039 0
1.039079 0.143186 0
1.033461 0.173085 0
1.015601 0.191601 0
0.985714 0.197256 0
0.944198 0.188976 0
0.891441 0.167850 0
0.828860 0.139333 0
0.761256 0.111454 0
0.697454 0.087105 0
0.647384 0.059910 0
0.618193 0.019349 0
0.610957 -0.040615 0
0.623633 -0.108643 0
0.653953 -0.162713 0
0.699617 -0.187952 0
0.758391 -0.178161 0
0.827259 -0.134692 0
0.900884 -0.066344 0
0.968009 0.007697 0
1.016930 0.069078 0
1.047853 0.114133 0
1.064010 0.146003 0
1.067635 0.166980 0
1.060585 0.178631 0
1.044287 0.182162 0
1.019448 0.178888 0
0.985754 0.170778 0
0.942209 0.160427 0
0.888895 0.149531 0
0.829687 0.136428 0
0.773249 0.115756 0
0.729897 0.082069 0
0.706213 0.034377 0
0.701663 -0.022705 0
0.709942 -0.081199 0
0.725424 -0.133327 0
0.745468 -0.173456 0
0.769597 -0.197559 0
0.798164 -0.202753 0
0.831254 -0.187770 0
0.868094 -0.153751 0
0.907041 -0.104555 0
0.945822 -0.046406 0
0.980747 0.011749 0
1.007699 0.061930 0
1.025832 0.100838 0
1.035095 0.127864 0
1.035747 0.143591 0
1.028060 0.149598 0
1.012204 0.148262 0
0.988412 0.142289 0
0.957571 0.133779 0
0.921991 0.123127 0
0.885671 0.108679 0
0.853449 0.087846 0
0.829351 0.059105 0
0.815293 0.023383 0
0.810882 -0.016165 0
0.813964 -0.055410 0
0.822258 -0.090479 0
0.834171 -0.118385 0
0.848806 -0.137002 0
0.865710 -0.144884 0
0.884570 -0.141276 0
0.904987 -0.126313 0
0.926366 -0.101210 0
0.947940 -0.068295 0
0.968798 -0.030850 0
0.987608 0.006810 0
1.002564 0.040469 0
1.012675 0.067524 0
1.017273 0.086860 0
1.015934 0.098486 0
1.008509 0.103297 0
0.995270 0.102641 0
0.977086 0.097748 0
0.955553 0.089236 0
0.932912 0.077011 0
0.911718 0.059832 0
0.894832 0.046357 0
1.000000 -0.007795 0
0.996042 -0.024478 0
0.987540 -0.044627 0
0.973157 -0.071470 0
0.950578 -0.110455 0
0.916078 -0.172362 0
0.863960 -0.278595 0
0.790258 -0.562249 0
0.551686 -0.389088 0
0.490641 0.000000 0
0.418368 -0.020369 0
0.352703 -0.036059 0
0.338799 -0.029259 0
0.350194 -0.034237 0
0.364503 -0.055288 0
0.395576 -0.074462 0
0.454791 -0.056882 0
0.533738 0.003091 0
0.601178 0.069869 0
0.647264 0.124612 0
0.672992 0.170449 0
0.676439 0.206460 0
0.656606 0.231233 0
0.613387 0.244450 0
0.549205 0.246128 0
0.472101 0.234485 0
0.397760 0.205573 0
0.345260 0.156520 0
0.327273 0.088115 0
0.344162 0.005588 0
0.382472 -0.079774 0
0.425588 -0.156045 0
0.468290 -0.214013 0
0.512977 -0.244995 0
0.563999 -0.243029 0
0.624180 -0.207241 0
0.693173 -0.143188 0
0.766922 -0.062566 0
0.833840 0.015889 0
0.884022 0.078717 0
0.917772 0.125886 0
0.936403 0.160429 0
0.940857 0.184341 0
0.931664 0.199547 0
0.908884 0.208330 0
0.872680 0.213008 0
0.824992 0.214341 0
0.771564 0.209527 0
0.721920 0.192414 0
0.685707 0.157363 0
0.667894 0.103900 0
0.667143 0.037732 0
0.677906 -0.031774 0
0.693187 -0.096216 0
0.708863 -0.150827 0
0.723858 -0.192875 0
0.739156 -0.219843 0
0.756791 -0.229077 0
0.778698 -0.218561 0
0.805665 -0.188268 0
0.836914 -0.141099 0
0.870480 -0.082652 0
0.903747 -0.020455 0
0.932496 0.037013 0
0.954085 0.084292 0
0.967513 0.120067 0
0.972264 0.144689 0
0.968037 0.159675 0
0.954832 0.167180 0
0.933390 0.169135 0
0.905794 0.166184 0
0.875703 0.157094 0
0.847666 0.139445 0
0.825643 0.111454 0
0.811707 0.073654 0
0.805807 0.029133 0
0.806492 -0.017501 0
0.811656 -0.061658 0
0.819410 -0.099905 0
0.828597 -0.130014 0
0.838783 -0.150467 0
0.850067 -0.160129 0
0.862789 -0.158256 0
0.877187 -0.144765 0
0.893149 -0.120592 0
0.910159 -0.087835 0
0.927392 -0.049588 0
0.943801 -0.009672 0
0.957744 0.027779 0
0.967846 0.059652 0
0.973186 0.084503 0
0.973176 0.102024 0
0.967629 0.112682 0
0.956914 0.117225 0
0.942090 0.116160 0
0.924873 0.109451 0
0.907370 0.096661 0
0.891646 0.076467 0
0.879622 0.060165 0
1.000000 -0.005302 0
0.994440 -0.016562 0
0.982323 -0.029834 0
0.961273 -0.046829 0
0.926663 -0.070277 0
0.869398 -0.105160 0
0.770063 -0.162310 0
0.586529 -0.258718 0
0.000000 -0.159547 0
0.000000 0.000000 0
0.000000 0.000000 0
-0.030685 -0.026478 0
-0.048498 -0.070314 0
-0.038021 -0.087798 0
-0.038480 -0.101915 0
-0.027833 -0.130764 0
0.010398 -0.138304 0
0.086004 -0.092681 0
0.185210 -0.010494 0
0.266568 0.071366 0
0.314450 0.143905 0
0.336114 0.207982 0
0.332444 0.260306 0
0.307223 0.296381 0
0.270663 0.309143 0
0.238270 0.290786 0
0.224840 0.238306 0
0.237482 0.157604 0
0.273542 0.061016 0
0.319925 -0.035846 0
0.362574 -0.122044 0
0.396717 -0.194470 0
0.422652 -0.250110 0
0.444981 -0.283660 0
0.470719 -0.289365 0
0.506305 -0.263870 0
0.554671 -0.209089 0
0.614076 -0.132973 0
0.678478 -0.048026 0
0.735559 0.030196 0
0.777650 0.093619 0
0.804165 0.143892 0
0.815000 0.183366 0
0.810245 0.214132 0
0.790737 0.237869 0
0.759278 0.254667 0
0.721880 0.261542 0
0.687412 0.252605 0
0.664556 0.222289 0
0.657768 0.169787 0
0.665757 0.100640 0
0.683443 0.024373 0
0.704015 -0.048742 0
0.722281 -0.112150 0
0.735876 -0.163993 0
0.744409 -0.203746 0
0.749282 -0.230493 0
0.753410 -0.242299 0
0.760387 -0.236646 0
0.773063 -0.211967 0
0.792317 -0.169371 0
0.816862 -0.113240 0
0.844032 -0.050267 0
0.870322 0.011592 0
0.891745 0.065821 0
0.906375 0.109685 0
0.913142 0.143067 0
0.911548 0.167030 0
0.901881 0.182909 0
0.885616 0.191329 0
0.865633 0.191467 0
0.845763 0.181256 0
0.829645 0.158742 0
0.819496 0.123809 0
0.815665 0.078946 0
0.817109 0.028603 0
0.822174 -0.022008 0
0.828987 -0.068323 0
0.836059 -0.107417 0
0.842484 -0.137755 0
0.848019 -0.158469 0
0.853085 -0.168887 0
0.858571 -0.168393 0
0.865439 -0.156668 0
0.874291 -0.134178 0
0.885103 -0.102536 0
0.897256 -0.064491 0
0.909735 -0.023539 0
0.921190 0.016427 0
0.930096 0.052083 0
0.935410 0.081531 0
0.936507 0.104045 0
0.933249 0.119560 0
0.926092 0.128180 0
0.916099 0.129790 0
0.904767 0.123956 0
0.893683 0.110237 0
0.884131 0.087580 0
0.876991 0.069201 0
1.000000 -0.002240 0
0.993916 -0.006804 0
0.980687 -0.011453 0
0.957844 -0.015800 0
0.920676 -0.018569 0
0.860463 -0.015755 0
0.760641 0.004277 0
0.587955 0.105322 0
0.274359 0.094948 0
0.000000 0.000000 0
0.000000 0.000000 0
0.000000 0.000000 0
-0.028602 -0.024050 0
-0.113087 -0.044262 0
-0.176246 -0.065482 0
-0.197985 -0.123347 0
-0.190245 -0.170727 0
-0.153012 -0.171728 0
-0.080653 -0.110701 0
0.004544 -0.004634 0
0.070174 0.100900 0
0.113984 0.188464 0
0.139627 0.260124 0
0.154127 0.306237 0
0.169166 0.315089 0
0.196567 0.280318 0
0.242352 0.206372 0
0.304258 0.107828 0
0.370603 0.005678 0
0.424873 -0.083443 0
0.462986 -0.156571 0
0.484544 -0.216131 0
0.490812 -0.262280 0
0.486187 -0.293062 0
0.478588 -0.304356 0
0.477796 -0.291196 0
0.491722 -0.250962 0
0.522836 -0.186377 0
0.567336 -0.105599 0
0.616669 -0.020459 0
0.658596 0.057276 0
0.687719 0.123077 0
0.702821 0.178258 0
0.704253 0.223806 0
0.694373 0.259294 0
0.678182 0.281864 0
0.662975 0.286208 0
0.656173 0.266854 0
0.662159 0.222061 0
0.680591 0.156167 0
0.707508 0.078232 0
0.737452 -0.000518 0
0.763917 -0.070605 0
0.783799 -0.128071 0
0.795642 -0.172952 0
0.799051 -0.206281 0
0.794975 -0.228846 0
0.786113 -0.240185 0
0.776787 -0.238214 0
0.771782 -0.220199 0
0.774474 -0.184900 0
0.785456 -0.134367 0
0.802687 -0.073915 0
0.822702 -0.010700 0
0.841205 0.048238 0
0.855241 0.098670 0
0.863289 0.139516 0
0.864855 0.170936 0
0.860562 0.193112 0
0.852265 0.205385 0
0.842790 0.206038 0
0.835122 0.193084 0
0.831384 0.165716 0
0.832248 0.125439 0
0.837114 0.076045 0
0.844727 0.022629 0
0.853566 -0.029373 0
0.862011 -0.075538 0
0.868820 -0.113398 0
0.873135 -0.141971 0
0.874655 -0.161066 0
0.873813 -0.170679 0
0.871782 -0.170606 0
0.870162 -0.160480 0