# vtk DataFile Version 2.0
generated by CFD-lab course output (written by Tobias Neckel) 
ASCII

DATASET STRUCTURED_GRID
DIMENSIONS  99 19 1 
POINTS 1881 float

0.000000 0.000000 0
0.100000 0.000000 0
0.200000 0.000000 0
0.300000 0.000000 0
0.400000 0.000000 0
0.500000 0.000000 0
0.600000 0.000000 0
0.700000 0.000000 0
0.800000 0.000000 0
0.900000 0.000000 0
1.000000 0.000000 0
1.100000 0.000000 0
1.200000 0.000000 0
1.300000 0.000000 0
1.400000 0.000000 0
1.500000 0.000000 0
1.600000 0.000000 0
1.700000 0.000000 0
1.800000 0.000000 0
1.900000 0.000000 0
2.000000 0.000000 0
2.100000 0.000000 0
2.200000 0.000000 0
2.300000 0.000000 0
2.400000 0.000000 0
2.500000 0.000000 0
2.600000 0.000000 0
2.700000 0.000000 0
2.800000 0.000000 0
2.900000 0.000000 0
3.000000 0.000000 0
3.100000 0.000000 0
3.200000 0.000000 0
3.300000 0.000000 0
3.400000 0.000000 0
3.500000 0.000000 0
3.600000 0.000000 0
3.700000 0.000000 0
3.800000 0.000000 0
3.900000 0.000000 0
4.000000 0.000000 0
4.100000 0.000000 0
4.200000 0.000000 0
4.300000 0.000000 0
4.400000 0.000000 0
4.500000 0.000000 0
4.600000 0.000000 0
4.700000 0.000000 0
4.800000 0.000000 0
4.900000 0.000000 0
5.000000 0.000000 0
5.100000 0.000000 0
5.200000 0.000000 0
5.300000 0.000000 0
5.400000 0.000000 0
5.500000 0.000000 0
5.600000 0.000000 0
5.700000 0.000000 0
5.800000 0.000000 0
5.900000 0.000000 0
6.000000 0.000000 0
6.100000 0.000000 0
6.200000 0.000000 0
6.300000 0.000000 0
6.400000 0.000000 0
6.500000 0.000000 0
6.600000 0.000000 0
6.700000 0.000000 0
6.800000 0.000000 0
6.900000 0.000000 0
7.000000 0.000000 0
7.100000 0.000000 0
7.200000 0.000000 0
7.300000 0.000000 0
7.400000 0.000000 0
7.500000 0.000000 0
7.600000 0.000000 0
7.700000 0.000000 0
7.800000 0.000000 0
7.900000 0.000000 0
8.000000 0.000000 0
8.100000 0.000000 0
8.200000 0.000000 0
8.300000 0.000000 0
8.400000 0.000000 0
8.500000 0.000000 0
8.600000 0.000000 0
8.700000 0.000000 0
8.800000 0.000000 0
8.900000 0.000000 0
9.000000 0.000000 0
9.100000 0.000000 0
9.200000 0.000000 0
9.300000 0.000000 0
9.400000 0.000000 0
9.500000 0.000000 0
9.600000 0.000000 0
9.700000 0.000000 0
9.800000 0.000000 0
0.000000 0.100000 0
0.100000 0.100000 0
0.200000 0.100000 0
0.300000 0.100000 0
0.400000 0.100000 0
0.500000 0.100000 0
0.600000 0.100000 0
0.700000 0.100000 0
0.800000 0.100000 0
0.900000 0.100000 0
1.000000 0.100000 0
1.100000 0.100000 0
1.200000 0.100000 0
1.300000 0.100000 0
1.400000 0.100000 0
1.500000 0.100000 0
1.600000 0.100000 0
1.700000 0.100000 0
1.800000 0.100000 0
1.900000 0.100000 0
2.000000 0.100000 0
2.100000 0.100000 0
2.200000 0.100000 0
2.300000 0.100000 0
2.400000 0.100000 0
2.500000 0.100000 0
2.600000 0.100000 0
2.700000 0.100000 0
2.800000 0.100000 0
2.900000 0.100000 0
3.000000 0.100000 0
3.100000 0.100000 0
3.200000 0.100000 0
3.300000 0.100000 0
3.400000 0.100000 0
3.500000 0.100000 0
3.600000 0.100000 0
3.700000 0.100000 0
3.800000 0.100000 0
3.900000 0.100000 0
4.000000 0.100000 0
4.100000 0.100000 0
4.200000 0.100000 0
4.300000 0.100000 0
4.400000 0.100000 0
4.500000 0.100000 0
4.600000 0.100000 0
4.700000 0.100000 0
4.800000 0.100000 0
4.900000 0.100000 0
5.000000 0.100000 0
5.100000 0.100000 0
5.200000 0.100000 0
5.300000 0.100000 0
5.400000 0.100000 0
5.500000 0.100000 0
5.600000 0.100000 0
5.700000 0.100000 0
5.800000 0.100000 0
5.900000 0.100000 0
6.000000 0.100000 0
6.100000 0.100000 0
6.200000 0.100000 0
6.300000 0.100000 0
6.400000 0.100000 0
6.500000 0.100000 0
6.600000 0.100000 0
6.700000 0.100000 0
6.800000 0.100000 0
6.900000 0.100000 0
7.000000 0.100000 0
7.100000 0.100000 0
7.200000 0.100000 0
7.300000 0.100000 0
7.400000 0.100000 0
7.500000 0.100000 0
7.600000 0.100000 0
7.700000 0.100000 0
7.800000 0.100000 0
7.900000 0.100000 0
8.000000 0.100000 0
8.100000 0.100000 0
8.200000 0.100000 0
8.300000 0.100000 0
8.400000 0.100000 0
8.500000 0.100000 0
8.600000 0.100000 0
8.700000 0.100000 0
8.800000 0.100000 0
8.900000 0.100000 0
9.000000 0.100000 0
9.100000 0.100000 0
9.200000 0.100000 0
9.300000 0.100000 0
9.400000 0.100000 0
9.500000 0.100000 0
9.600000 0.100000 0
9.700000 0.100000 0
9.800000 0.100000 0
0.000000 0.200000 0
0.100000 0.200000 0
0.200000 0.200000 0
0.300000 0.200000 0
0.400000 0.200000 0
0.500000 0.200000 0
0.600000 0.200000 0
0.700000 0.200000 0
0.800000 0.200000 0
0.900000 0.200000 0
1.000000 0.200000 0
1.100000 0.200000 0
1.200000 0.200000 0
1.300000 0.200000 0
1.400000 0.200000 0
1.500000 0.200000 0
1.600000 0.200000 0
1.700000 0.200000 0
1.800000 0.200000 0
1.900000 0.200000 0
2.000000 0.200000 0
2.100000 0.200000 0
2.200000 0.200000 0
2.300000 0.200000 0
2.400000 0.200000 0
2.500000 0.200000 0
2.600000 0.200000 0
2.700000 0.200000 0
2.800000 0.200000 0
2.900000 0.200000 0
3.000000 0.200000 0
3.100000 0.200000 0
3.200000 0.200000 0
3.300000 0.200000 0
3.400000 0.200000 0
3.500000 0.200000 0
3.600000 0.200000 0
3.700000 0.200000 0
3.800000 0.200000 0
3.900000 0.200000 0
4.000000 0.200000 0
4.100000 0.200000 0
4.200000 0.200000 0
4.300000 0.200000 0
4.400000 0.200000 0
4.500000 0.200000 0
4.600000 0.200000 0
4.700000 0.200000 0
4.800000 0.200000 0
4.900000 0.200000 0
5.000000 0.200000 0
5.100000 0.200000 0
5.200000 0.200000 0
5.300000 0.200000 0
5.400000 0.200000 0
5.500000 0.200000 0
5.600000 0.200000 0
5.700000 0.200000 0
5.800000 0.200000 0
5.900000 0.200000 0
6.000000 0.200000 0
6.100000 0.200000 0
6.200000 0.200000 0
6.300000 0.200000 0
6.400000 0.200000 0
6.500000 0.200000 0
6.600000 0.200000 0
6.700000 0.200000 0
6.800000 0.200000 0
6.900000 0.200000 0
7.000000 0.200000 0
7.100000 0.200000 0
7.200000 0.200000 0
7.300000 0.200000 0
7.400000 0.200000 0
7.500000 0.200000 0
7.600000 0.200000 0
7.700000 0.200000 0
7.800000 0.200000 0
7.900000 0.200000 0
8.000000 0.200000 0
8.100000 0.200000 0
8.200000 0.200000 0
8.300000 0.200000 0
8.400000 0.200000 0
8.500000 0.200000 0
8.600000 0.200000 0
8.700000 0.200000 0
8.800000 0.200000 0
8.900000 0.200000 0
9.000000 0.200000 0
9.100000 0.200000 0
9.200000 0.200000 0
9.300000 0.200000 0
9.400000 0.200000 0
9.500000 0.200000 0
9.600000 0.200000 0
9.700000 0.200000 0
9.800000 0.200000 0
0.000000 0.300000 0
0.100000 0.300000 0
0.200000 0.300000 0
0.300000 0.300000 0
0.400000 0.300000 0
0.500000 0.300000 0
0.600000 0.300000 0
0.700000 0.300000 0
0.800000 0.300000 0
0.900000 0.300000 0
1.000000 0.300000 0
1.100000 0.300000 0
1.200000 0.300000 0
1.300000 0.300000 0
1.400000 0.300000 0
1.500000 0.300000 0
1.600000 0.300000 0
1.700000 0.300000 0
1.800000 0.300000 0
1.900000 0.300000 0
2.000000 0.300000 0
2.100000 0.300000 0
2.200000 0.300000 0
2.300000 0.300000 0
2.400000 0.300000 0
2.500000 0.300000 0
2.600000 0.300000 0
2.700000 0.300000 0
2.800000 0.300000 0
2.900000 0.300000 0
3.000000 0.300000 0
3.100000 0.300000 0
3.200000 0.300000 0
3.300000 0.300000 0
3.400000 0.300000 0
3.500000 0.300000 0
3.600000 0.300000 0
3.700000 0.300000 0
3.800000 0.300000 0
3.900000 0.300000 0
4.000000 0.300000 0
4.100000 0.300000 0
4.200000 0.300000 0
4.300000 0.300000 0
4.400000 0.300000 0
4.500000 0.300000 0
4.600000 0.300000 0
4.700000 0.300000 0
4.800000 0.300000 0
4.900000 0.300000 0
5.000000 0.300000 0
5.100000 0.300000 0
5.200000 0.300000 0
5.300000 0.300000 0
5.400000 0.300000 0
5.500000 0.300000 0
5.600000 0.300000 0
5.700000 0.300000 0
5.800000 0.300000 0
5.900000 0.300000 0
6.000000 0.300000 0
6.100000 0.300000 0
6.200000 0.300000 0
6.300000 0.300000 0
6.400000 0.300000 0
6.500000 0.300000 0
6.600000 0.300000 0
6.700000 0.300000 0
6.800000 0.300000 0
6.900000 0.300000 0
7.000000 0.300000 0
7.100000 0.300000 0
7.200000 0.300000 0
7.300000 0.300000 0
7.400000 0.300000 0
7.500000 0.300000 0
7.600000 0.300000 0
7.700000 0.300000 0
7.800000 0.300000 0
7.900000 0.300000 0
8.000000 0.300000 0
8.100000 0.300000 0
8.200000 0.300000 0
8.300000 0.300000 0
8.400000 0.300000 0
8.500000 0.300000 0
8.600000 0.300000 0
8.700000 0.300000 0
8.800000 0.300000 0
8.900000 0.300000 0
9.000000 0.300000 0
9.100000 0.300000 0
9.200000 0.300000 0
9.300000 0.300000 0
9.400000 0.300000 0
9.500000 0.300000 0
9.600000 0.300000 0
9.700000 0.300000 0
9.800000 0.300000 0
0.000000 0.400000 0
0.100000 0.400000 0
0.200000 0.400000 0
0.300000 0.400000 0
0.400000 0.400000 0
0.500000 0.400000 0
0.600000 0.400000 0
0.700000 0.400000 0
0.800000 0.400000 0
0.900000 0.400000 0
1.000000 0.400000 0
1.100000 0.400000 0
1.200000 0.400000 0
1.300000 0.400000 0
1.400000 0.400000 0
1.500000 0.400000 0
1.600000 0.400000 0
1.700000 0.400000 0
1.800000 0.400000 0
1.900000 0.400000 0
2.000000 0.400000 0
2.100000 0.400000 0
2.200000 0.400000 0
2.300000 0.400000 0
2.400000 0.400000 0
2.500000 0.400000 0
2.600000 0.400000 0
2.700000 0.400000 0
2.800000 0.400000 0
2.900000 0.400000 0
3.000000 0.400000 0
3.100000 0.400000 0
3.200000 0.400000 0
3.300000 0.400000 0
3.400000 0.400000 0
3.500000 0.400000 0
3.600000 0.400000 0
3.700000 0.400000 0
3.800000 0.400000 0
3.900000 0.400000 0
4.000000 0.400000 0
4.100000 0.400000 0
4.200000 0.400000 0
4.300000 0.400000 0
4.400000 0.400000 0
4.500000 0.400000 0
4.600000 0.400000 0
4.700000 0.400000 0
4.800000 0.400000 0
4.900000 0.400000 0
5.000000 0.400000 0
5.100000 0.400000 0
5.200000 0.400000 0
5.300000 0.400000 0
5.400000 0.400000 0
5.500000 0.400000 0
5.600000 0.400000 0
5.700000 0.400000 0
5.800000 0.400000 0
5.900000 0.400000 0
6.000000 0.400000 0
6.100000 0.400000 0
6.200000 0.400000 0
6.300000 0.400000 0
6.400000 0.400000 0
6.500000 0.400000 0
6.600000 0.400000 0
6.700000 0.400000 0
6.800000 0.400000 0
6.900000 0.400000 0
7.000000 0.400000 0
7.100000 0.400000 0
7.200000 0.400000 0
7.300000 0.400000 0
7.400000 0.400000 0
7.500000 0.400000 0
7.600000 0.400000 0
7.700000 0.400000 0
7.800000 0.400000 0
7.900000 0.400000 0
8.000000 0.400000 0
8.100000 0.400000 0
8.200000 0.400000 0
8.300000 0.400000 0
8.400000 0.400000 0
8.500000 0.400000 0
8.600000 0.400000 0
8.700000 0.400000 0
8.800000 0.400000 0
8.900000 0.400000 0
9.000000 0.400000 0
9.100000 0.400000 0
9.200000 0.400000 0
9.300000 0.400000 0
9.400000 0.400000 0
[...]
POINT_DATA 1881 

VECTORS velocity float
0.500000 0.000000 0
0.502072 0.000000 0
0.506704 0.000000 0
0.514322 0.000000 0
0.525349 0.000000 0
0.540119 0.000000 0
0.558663 0.000000 0
0.580420 0.000000 0
0.604006 0.000000 0
0.627142 0.000000 0
0.647897 0.000000 0
0.665285 0.000000 0
0.679095 0.000000 0
0.689500 0.000000 0
0.696720 0.000000 0
0.700872 0.000000 0
0.701924 0.000000 0
0.699820 0.000000 0
0.694564 0.000000 0
0.686319 0.000000 0
0.675452 0.000000 0
0.662514 0.000000 0
0.648203 0.000000 0
0.633315 0.000000 0
0.618690 0.000000 0
0.605167 0.000000 0
0.593536 0.000000 0
0.584525 0.000000 0
0.578807 0.000000 0
0.577038 0.000000 0
0.579686 0.000000 0
0.586688 0.000000 0
0.597253 0.000000 0
0.609776 0.000000 0
0.622069 0.000000 0
0.631895 0.000000 0
0.637605 0.000000 0
0.638531 0.000000 0
0.634731 0.000000 0
0.626672 0.000000 0
0.615089 0.000000 0
0.600832 0.000000 0
0.584771 0.000000 0
0.567741 0.000000 0
0.550531 0.000000 0
0.533896 0.000000 0
0.518576 0.000000 0
0.505333 0.000000 0
0.494972 0.000000 0
0.488344 0.000000 0
0.486239 0.000000 0
0.489004 0.000000 0
0.496497 0.000000 0
0.508292 0.000000 0
0.523718 0.000000 0
0.541853 0.000000 0
0.561476 0.000000 0
0.581008 0.000000 0
0.598530 0.000000 0
0.612008 0.000000 0
0.619809 0.000000 0
0.621268 0.000000 0
0.616597 0.000000 0
0.606369 0.000000 0
0.591466 0.000000 0
0.573039 0.000000 0
0.552424 0.000000 0
0.531066 0.000000 0
0.510432 0.000000 0
0.491935 0.000000 0
0.476838 0.000000 0
0.466127 0.000000 0
0.460372 0.000000 0
0.459546 0.000000 0
0.462860 0.000000 0
0.469341 0.000000 0
0.478215 0.000000 0
0.488938 0.000000 0
0.501152 0.000000 0
0.514574 0.000000 0
0.528864 0.000000 0
0.543478 0.000000 0
0.557575 0.000000 0
0.570004 0.000000 0
0.579450 0.000000 0
0.584755 0.000000 0
0.585279 0.000000 0
0.580913 0.000000 0
0.571813 0.000000 0
0.558460 0.000000 0
0.541724 0.000000 0
0.522908 0.000000 0
0.503724 0.000000 0
0.486129 0.000000 0
0.472011 0.000000 0
0.462821 0.000000 0
0.459333 0.000000 0
0.461487 0.000000 0
0.469413 0.000000 0
1.000000 -0.002075 0
1.004699 -0.006713 0
1.014590 -0.012263 0
1.030437 -0.018659 0
1.053167 -0.025812 0
1.083641 -0.033330 0
1.122209 -0.040314 0
1.167976 -0.045352 0
1.218245 -0.046720 0
1.267207 -0.043874 0
1.310425 -0.038119 0
1.346135 -0.031176 0
1.374321 -0.024198 0
1.395659 -0.017620 0
1.410805 -0.011368 0
1.420017 -0.005193 0
1.423123 0.001061 0
1.419864 0.007366 0
1.410139 0.013504 0
1.394237 0.019113 0
1.372907 0.023804 0
1.347302 0.027244 0
1.318867 0.029191 0
1.289246 0.029502 0
1.260168 0.028136 0
1.233350 0.025140 0
1.210394 0.020628 0
1.192736 0.014716 0
1.181650 0.007474 0
1.178318 -0.000886 0
1.183704 -0.009650 0
1.198034 -0.017562 0
1.220087 -0.023076 0
1.246846 -0.024799 0
1.273862 -0.022100 0
1.296301 -0.015516 0
1.310314 -0.006619 0
1.314083 0.002885 0
1.307748 0.011864 0
1.292457 0.019648 0
1.269866 0.025847 0
1.241821 0.030323 0
1.210148 0.033094 0
1.176566 0.034242 0
1.142670 0.033847 0
1.109969 0.031956 0
1.079920 0.028562 0
1.053945 0.023603 0
1.033392 0.016988 0
1.019440 0.008731 0
1.012968 -0.000662 0
1.014532 -0.010260 0
1.024295 -0.019289 0
1.041988 -0.027221 0
1.066876 -0.033558 0
1.097770 -0.037752 0
1.132981 -0.039146 0
1.170133 -0.037042 0
1.206025 -0.030986 0
1.236792 -0.021263 0
1.258496 -0.009244 0
1.268139 0.003226 0
1.264888 0.014912 0
1.249891 0.025141 0
1.225016 0.033338 0
1.192632 0.039049 0
1.155440 0.041979 0
1.116294 0.041997 0
1.078026 0.039135 0
1.043253 0.033599 0
1.014143 0.025813 0
0.992155 0.016471 0
0.977864 0.006586 0
0.970998 -0.002482 0
0.970772 -0.009790 0
0.976110 -0.015350 0
0.986027 -0.019592 0
0.999838 -0.022932 0
1.017144 -0.025630 0
1.037705 -0.027704 0
1.061197 -0.028896 0
1.086909 -0.028703 0
1.113528 -0.026516 0
1.139092 -0.021866 0
1.161123 -0.014743 0
1.176955 -0.005820 0
1.184278 0.003851 0
1.181972 0.013474 0
1.170357 0.022460 0
1.150501 0.030097 0
1.124176 0.035559 0
1.093819 0.038006 0
1.062369 0.036784 0
1.032927 0.031717 0
1.008249 0.023312 0
0.990255 0.012681 0
0.979801 0.001336 0
0.976961 -0.010079 0
0.981878 -0.016746 0
1.000000 -0.004706 0
1.004847 -0.014606 0
1.014725 -0.025755 0
1.030433 -0.038595 0
1.053212 -0.053223 0
1.084572 -0.069058 0
1.125847 -0.084345 0
1.177068 -0.096039 0
1.236508 -0.099214 0
1.292467 -0.092152 0
1.338832 -0.078902 0
1.375079 -0.063876 0
1.402748 -0.049518 0
1.423625 -0.036484 0
1.438991 -0.024349 0
1.449180 -0.012305 0
1.453624 0.000161 0
1.451566 0.012991 0
1.442566 0.025629 0
1.426801 0.037229 0
1.405085 0.046929 0
1.378702 0.054031 0
1.349235 0.058043 0
1.318450 0.058685 0
1.288197 0.055880 0
1.260284 0.049758 0
1.236342 0.040599 0
1.217720 0.028728 0
1.205516 0.014408 0
1.200805 -0.002055 0
1.204927 -0.019711 0
1.218860 -0.036370 0
1.242077 -0.048792 0
1.272002 -0.053751 0
1.304227 -0.049431 0
1.333174 -0.036432 0
1.353411 -0.017769 0
1.361622 0.002573 0
1.357959 0.021633 0
1.344241 0.037890 0
1.322665 0.050642 0
1.295425 0.059722 0
1.264512 0.065258 0
1.231674 0.067481 0
1.198448 0.066598 0
1.166222 0.062750 0
1.136269 0.056023 0
1.109730 0.046527 0
1.087528 0.034504 0
1.070239 0.020422 0
1.058078 0.004905 0
1.051273 -0.011329 0
1.050247 -0.027456 0
1.055389 -0.042577 0
1.066966 -0.055776 0
1.085173 -0.066095 0
1.109996 -0.072348 0
1.140706 -0.073027 0
1.175410 -0.066641 0
1.210902 -0.052452 0
1.242828 -0.031329 0
1.266276 -0.006376 0
1.277443 0.018260 0
1.276015 0.039882 0
1.263706 0.057267 0
1.242749 0.069583 0
1.215667 0.076345 0
1.185058 0.077420 0
1.153403 0.073047 0
1.122857 0.063890 0
1.095060 0.051104 0
1.070989 0.036285 0
1.050975 0.021164 0
1.034927 0.007099 0
1.022806 -0.005105 0
1.014481 -0.015249 0
1.009816 -0.023722 0
1.008970 -0.031108 0
1.012383 -0.037858 0
1.020646 -0.044044 0
1.034154 -0.049192 0
1.052727 -0.052320 0
1.075447 -0.052172 0
1.100709 -0.047583 0
1.126350 -0.037851 0
1.149752 -0.023144 0
1.168025 -0.005007 0
1.178687 0.013931 0
1.180973 0.031480 0
1.175620 0.046191 0
1.163993 0.056691 0
1.147869 0.061815 0
1.129146 0.060899 0
1.109558 0.054126 0
1.090461 0.042676 0
1.072746 0.028450 0
1.056895 0.013295 0
1.043234 -0.002077 0
1.031631 -0.011499 0
1.000000 -0.006930 0
1.003861 -0.021452 0
1.012014 -0.037856 0
1.025483 -0.057153 0
1.046040 -0.079957 0
1.076297 -0.105964 0
1.119586 -0.132804 0
1.178370 -0.155994 0
1.256415 -0.162096 0
1.322014 -0.146186 0
1.368587 -0.120730 0
1.400733 -0.095103 0
1.423397 -0.072759 0
1.440216 -0.053863 0
1.453500 -0.036914 0
1.463842 -0.019824 0
1.469752 -0.001326 0
1.468952 0.018421 0
1.460249 0.038266 0
1.443641 0.056588 0
1.420120 0.071896 0
1.391224 0.083087 0
1.358751 0.089435 0
1.324660 0.090532 0
1.290994 0.086296 0
1.259757 0.076990 0
1.232676 0.063188 0
1.210961 0.045541 0
1.195281 0.024396 0
1.186156 -0.000287 0
1.184799 -0.027692 0
1.193155 -0.054696 0
1.211835 -0.076203 0
1.239703 -0.086938 0
1.274062 -0.083266 0
1.310123 -0.064701 0
1.341000 -0.035074 0
1.359652 -0.001666 0
1.363030 0.029249 0
1.353723 0.054943 0
1.334921 0.074662 0
1.309485 0.088476 0
1.279773 0.096846 0
1.247663 0.100306 0
1.214661 0.099298 0
1.182019 0.094134 0
1.150808 0.085053 0
1.121943 0.072343 0
1.096132 0.056478 0
1.073755 0.038181 0
1.054732 0.018303 0
1.038533 -0.002428 0
1.024732 -0.023401 0
1.014068 -0.043934 0
1.008586 -0.063334 0
1.010721 -0.080771 0
1.022450 -0.094669 0
1.044195 -0.102446 0
1.074561 -0.101173 0
1.110697 -0.088675 0
1.148722 -0.064614 0
1.183977 -0.031388 0
1.211234 0.005172 0
1.226558 0.038879 0
1.230294 0.066605 0
1.224114 0.087089 0
1.210057 0.099672 0
1.190256 0.104264 0
1.166740 0.101339 0
1.141280 0.091945 0
1.115299 0.077685 0
1.089860 0.060559 0
1.065676 0.042651 0
1.043097 0.025689 0
1.022119 0.010659 0
1.002808 -0.002357 0
0.985641 -0.014077 0
0.971842 -0.025494 0
0.963335 -0.037301 0
0.961799 -0.049469 0
0.967972 -0.060970 0
0.981448 -0.069991 0
1.000942 -0.074494 0
1.024680 -0.072764 0
1.050703 -0.063780 0
1.077020 -0.047491 0
1.101596 -0.025080 0
1.122099 0.000530 0
1.136285 0.025533 0
1.143711 0.047081 0
1.144879 0.063313 0
1.140632 0.072857 0
1.131909 0.075097 0
1.119584 0.070404 0
1.104449 0.060124 0
1.087286 0.046246 0
1.068888 0.030848 0
1.049805 0.015185 0
1.030076 0.005378 0
1.000000 -0.008576 0
1.002450 -0.026632 0
1.007824 -0.047383 0
1.017245 -0.072626 0
1.032899 -0.104039 0
1.058652 -0.142601 0
1.100936 -0.186406 0
1.167677 -0.232848 0
1.281895 -0.242846 0
1.351799 -0.204324 0
1.385750 -0.157630 0
1.402916 -0.118701 0
1.412445 -0.089002 0
1.419160 -0.066576 0
1.426531 -0.047971 0
1.436251 -0.028558 0
1.446072 -0.004950 0
1.449718 0.022490 0
1.443803 0.050935 0
1.428222 0.077353 0
1.404397 0.099340 0
1.374165 0.115393 0
1.339465 0.124601 0
1.302374 0.126436 0
1.265156 0.120779 0
1.230152 0.108072 0
1.199365 0.089392 0
1.173788 0.066129 0
1.153053 0.039222 0
1.135996 0.008437 0
1.121702 -0.026695 0
1.112402 -0.063391 0
1.112493 -0.095329 0
1.125117 -0.115972 0
1.151737 -0.119851 0
1.190260 -0.103377 0
1.234233 -0.067302 0
1.273552 -0.019453 0
1.297733 0.027565 0
1.304415 0.065998 0
1.297838 0.094880 0
1.281695 0.114870 0
1.258860 0.127080 0
1.231561 0.132592 0
1.201544 0.132241 0
1.170213 0.126602 0
1.138726 0.116099 0
1.108024 0.101202 0
1.078705 0.082690 0
1.050692 0.061822 0
1.022980 0.040129 0
0.994158 0.018675 0
0.964000 -0.002986 0
0.935041 -0.026425 0
0.912712 -0.052420 0
0.902588 -0.079949 0
0.906741 -0.105813 0
0.924125 -0.125129 0
0.952192 -0.133136 0
0.987892 -0.126608 0
1.028003 -0.104606 0
1.069098 -0.068888 0
1.107235 -0.024319 0
1.137312 0.020824 0
1.156299 0.059712 0
1.164825 0.089821 0
1.164191 0.110205 0
1.155954 0.120740 0
1.141689 0.122027 0
1.122837 0.115334 0
1.100607 0.102527 0
1.075895 0.085911 0
1.049241 0.067929 0
1.020964 0.050659 0
0.991593 0.035187 0
0.962461 0.021232 0
0.935901 0.007249 0
0.914704 -0.008797 0
0.901292 -0.027809 0
0.897083 -0.048674 0
0.901889 -0.068836 0
0.914394 -0.085284 0
0.932845 -0.095399 0
0.955471 -0.097339 0
0.980634 -0.090186 0
1.006854 -0.074033 0
1.032768 -0.050081 0
1.056971 -0.020752 0
1.077489 0.009873 0
1.092576 0.037599 0
1.101901 0.059773 0
1.105521 0.074788 0
1.103667 0.081949 0
1.096655 0.081587 0
1.084889 0.074975 0
1.068913 0.064012 0
1.049418 0.050776 0
1.027217 0.036735 0
1.003231 0.027665 0
1.000000 -0.009389 0
1.000533 -0.029287 0
1.001909 -0.052656 0
1.004957 -0.082230 0
1.011620 -0.121362 0
1.026185 -0.173994 0
1.057985 -0.241814 0
1.124320 -0.336941 0
1.294674 -0.346216 0
1.336296 -0.250047 0
1.327263 -0.171861 0
1.313016 -0.121805 0
1.299348 -0.088993 0
1.287673 -0.067940 0
1.281531 -0.054006 0
1.285603 -0.039365 0
1.301035 -0.014797 0
1.317999 0.020686 0
1.323086 0.059756 0
1.316339 0.095988 0
1.300010 0.125947 0
1.275925 0.148013 0
1.245518 0.161220 0
1.210470 0.164837 0
1.173048 0.158515 0
1.136097 0.142779 0
1.102191 0.119555 0
1.071481 0.091861 0
1.040462 0.062197 0
1.005038 0.031077 0
0.965206 -0.004084 0
0.926277 -0.045476 0
0.900208 -0.088912 0
0.896844 -0.126180 0
0.917253 -0.148413 0
0.957706 -0.147203 0
1.012179 -0.118364 0
1.072403 -0.065163 0
1.127069 -0.001614 0
1.164413 0.054838 0
1.183674 0.097381 0
1.188940 0.127454 0
1.183303 0.146979 0
1.169220 0.157621 0
1.148722 0.160646 0
1.123482 0.156952 0
1.094737 0.147241 0
1.063021 0.132363 0
1.027840 0.113810 0
0.987916 0.093906 0
0.942747 0.074840 0
0.894830 0.056557 0
0.850162 0.035722 0
0.815587 0.007363 0
0.795649 -0.030871 0
0.791312 -0.074791 0
0.800377 -0.116198 0
0.819882 -0.147891 0
0.847423 -0.164935 0
0.881138 -0.164483 0
0.919240 -0.145819 0
0.959716 -0.110619 0
1.000191 -0.063040 0
1.037479 -0.010183 0
1.066804 0.039094 0
1.086523 0.079199 0
1.096936 0.108545 0
1.098820 0.126769 0
1.093114 0.134460 0
1.080708 0.133030 0
1.062282 0.124629 0
1.038252 0.111927 0
1.008984 0.097585 0
0.975380 0.083340 0
0.939591 0.069165 0
0.905199 0.053340 0
0.876413 0.033686 0
0.856505 0.009121 0
0.846594 -0.019673 0
0.845990 -0.050060 0
0.853025 -0.078276 0
0.865917 -0.100941 0
0.883180 -0.115566 0
0.903635 -0.120548 0
0.926281 -0.115158 0
0.950179 -0.099619 0
0.974402 -0.075191 0
0.998001 -0.044185 0
1.019862 -0.010068 0
1.038081 0.022672 0
1.051438 0.050371 0
1.059395 0.071093 0
1.061656 0.083966 0
1.058090 0.089183 0
1.048747 0.087867 0
1.033931 0.081718 0
1.014328 0.072543 0
0.991127 0.061371 0
0.966322 0.053420 0
1.000000 -0.009118 0
0.998256 -0.028550 0
0.994685 -0.051810 0
0.989241 -0.082338 0
0.982340 -0.125263 0
0.976043 -0.188956 0
0.977609 -0.284529 0
1.008847 -0.469531 0
1.197893 -0.454825 0
1.145167 -0.236922 0
1.053629 -0.134358 0
1.002629 -0.090780 0
0.966064 -0.063648 0
0.933939 -0.048755 0
0.907576 -0.045903 0
0.898568 -0.048066 0
0.917992 -0.037349 0
0.961836 0.000434 0
1.004277 0.052590 0
1.028730 0.100423 0
1.040371 0.139749 0
1.040407 0.169880 0
1.028589 0.190051 0
1.005081 0.198903 0
0.970386 0.195149 0
0.924844 0.178931 0
0.868808 0.154015 0
0.804451 0.127866 0
0.737828 0.105677 0
0.678063 0.083705 0
0.634511 0.052076 0
0.612594 0.001615 0
0.611826 -0.065893 0
0.629422 -0.133019 0
0.662586 -0.180719 0
0.709176 -0.198303 0
0.767367 -0.181995 0
0.834481 -0.134342 0
0.905562 -0.064445 0
0.970016 0.009394 0
1.017080 0.070353 0
1.047049 0.115239 0
1.062637 0.146799 0
1.065887 0.167173 0
1.058562 0.177978 0
1.042006 0.180586 0
1.016828 0.176559 0
0.982672 0.168099 0
0.938734 0.157796 0
0.885690 0.146917 0
0.828165 0.133219 0
0.775021 0.111266 0
0.735750 0.076264 0
0.715577 0.028097 0
0.713032 -0.028135 0
0.721976 -0.084669 0
0.737379 -0.134374 0
0.756964 -0.172170 0
0.780346 -0.194390 0
0.807836 -0.198423 0
0.839467 -0.183184 0
0.874484 -0.149838 0
0.911345 -0.102080 0
0.947969 -0.045787 0
0.981048 0.010670 0
1.006745 0.059692 0
1.024137 0.097912 0
1.033061 0.124566 0
1.033658 0.140142 0
1.026110 0.146169 0
1.010545 0.144986 0
0.987247 0.139211 0
0.957219 0.130804 0
0.922853 0.120055 0
0.888065 0.105371 0
0.857416 0.084415 0
0.834595 0.055950 0
0.821302 0.021029 0
0.817132 -0.017288 0
0.820096 -0.055099 0
0.828100 -0.088758 0
0.839653 -0.115434 0
0.853885 -0.133112 0
0.870323 -0.140435 0
0.888624 -0.136723 0
0.908377 -0.122147 0
0.928999 -0.097898 0
0.949756 -0.066207 0
0.969782 -0.030203 0
0.987827 0.006028 0
1.002158 0.038462 0
1.011792 0.064572 0
1.016049 0.083256 0
1.014495 0.094499 0
1.006986 0.099135 0
0.993814 0.098431 0
0.975881 0.093579 0
0.954813 0.084740 0
0.933212 0.077272 0
1.000000 -0.007651 0
0.996033 -0.023979 0
0.987498 -0.043642 0
0.973050 -0.069883 0
0.950365 -0.108158 0
0.915706 -0.169253 0
0.863340 -0.274609 0
0.789191 -0.557220 0
0.550966 -0.386275 0
0.491059 0.000000 0
0.419833 -0.019794 0
0.356348 -0.034229 0
0.340806 -0.020299 0
0.340940 -0.009454 0
0.337942 -0.018638 0
0.344791 -0.049787 0
0.378279 -0.078069 0
0.445865 -0.065604 0
0.534452 -0.007143 0
0.612830 0.059889 0
0.666879 0.114265 0
0.700647 0.159792 0
0.713306 0.196543 0
0.703822 0.223038 0
0.671657 0.238753 0
0.617531 0.244362 0
0.545910 0.239956 0
0.468313 0.222851 0
0.402667 0.188597 0
0.365447 0.134405 0
0.363059 0.061393 0
0.389604 -0.022786 0
0.428333 -0.105740 0
0.467334 -0.176946 0
0.505355 -0.228170 0
0.546171 -0.251980 0
0.594087 -0.243668 0
0.651362 -0.203359 0
0.717016 -0.137149 0
0.786695 -0.056680 0
0.849334 0.020347 0
0.896193 0.081897 0
0.927552 0.128140 0
0.944387 0.161695 0
0.947496 0.184527 0
0.937325 0.198685 0
0.913936 0.206574 0
0.877668 0.210457 0
0.830824 0.210793 0
0.779430 0.204479 0
0.732765 0.185514 0
0.699605 0.148979 0
0.683959 0.095175 0
0.684046 0.030089 0
0.694460 -0.037262 0
0.708904 -0.099130 0
0.723757 -0.151179 0
0.738088 -0.190853 0
0.752809 -0.215805 0
0.769773 -0.223605 0
0.790713 -0.212465 0
0.816289 -0.182494 0
0.845744 -0.136524 0
0.877259 -0.079884 0
0.908434 -0.019679 0
0.935430 0.036114 0
0.955746 0.082232 0
0.968341 0.117251 0
0.972640 0.141414 0
0.968306 0.156146 0
0.955354 0.163494 0
0.934571 0.165256 0
0.908053 0.161983 0
0.879338 0.152497 0
0.852695 0.134607 0
0.831765 0.106816 0
0.818426 0.069806 0
0.812628 0.026590 0
0.813070 -0.018461 0
0.817838 -0.061022 0
0.825201 -0.097828 0
0.834074 -0.126721 0
0.844016 -0.146230 0
0.855077 -0.155281 0
0.867521 -0.153206 0
0.881522 -0.139988 0
0.896946 -0.116565 0
0.913292 -0.084963 0
0.929778 -0.048134 0
0.945408 -0.009701 0
0.958635 0.026409 0
0.968131 0.057205 0
0.972998 0.081265 0
0.972667 0.098248 0
0.966977 0.108549 0
0.956324 0.112824 0
0.941787 0.111544 0
0.925094 0.104039 0
0.908669 0.096409 0
1.000000 -0.005156 0
0.994443 -0.016053 0
0.982327 -0.028825 0
0.961276 -0.045200 0
0.926670 -0.067911 0
0.869421 -0.101921 0
0.770148 -0.158007 0
0.586730 -0.253418 0
0.000000 -0.156693 0
0.000000 0.000000 0
0.000000 0.000000 0
-0.029677 -0.021634 0
-0.046336 -0.048242 0
-0.052640 -0.045893 0
-0.064491 -0.049758 0
-0.064447 -0.088409 0
-0.038651 -0.138428 0
0.016015 -0.155745 0
0.106169 -0.114380 0
0.217528 -0.032009 0
0.304283 0.051927 0
0.361981 0.123450 0
0.393818 0.186874 0
0.399478 0.240551 0
0.381190 0.281443 0
0.345873 0.304684 0
0.306330 0.303241 0
0.278294 0.271119 0
0.273559 0.208555 0
0.294954 0.123323 0
0.335829 0.027925 0
0.380431 -0.063658 0
0.418295 -0.143626 0
0.446677 -0.210044 0
0.467336 -0.259554 0
0.485689 -0.287032 0
0.508830 -0.287186 0
0.542647 -0.257272 0
0.589200 -0.199779 0
0.646016 -0.122925 0
0.706739 -0.039146 0
0.759682 0.037020 0
0.798426 0.098604 0
0.822329 0.147227 0
0.831219 0.185039 0
0.825192 0.214146 0
0.805168 0.236216 0
0.774079 0.251212 0
0.737943 0.256037 0
0.705272 0.244980 0
0.684016 0.213050 0
0.677914 0.160079 0
0.685425 0.091832 0
0.701731 0.017605 0
0.720609 -0.052985 0
0.737438 -0.113960 0
0.750037 -0.163553 0
0.758039 -0.201218 0
0.762747 -0.226074 0
0.766872 -0.236325 0
0.773705 -0.229697 0
0.785817 -0.204868 0
0.803955 -0.163048 0
0.826897 -0.108474 0
0.852190 -0.047498 0
0.876623 0.012383 0
0.896548 0.065003 0
0.910109 0.107674 0
0.916243 0.140179 0
0.914462 0.163457 0
0.905064 0.178723 0
0.889499 0.186515 0
0.870519 0.186041 0
0.851707 0.175417 0
0.836403 0.152950 0
0.826624 0.118691 0
0.822694 0.075093 0
0.823694 0.026391 0
0.828154 -0.022491 0
0.834381 -0.067225 0
0.841004 -0.104988 0
0.847164 -0.134243 0
0.852616 -0.154109 0
0.857717 -0.163932 0
0.863251 -0.163162 0
0.870070 -0.151567 0
0.878696 -0.129663 0
0.889086 -0.099034 0
0.900656 -0.062314 0
0.912452 -0.022825 0
0.923210 0.015743 0
0.931492 0.050211 0
0.936303 0.078722 0
0.937050 0.100521 0
0.933618 0.115480 0
0.926467 0.123621 0
0.916636 0.124810 0
0.905581 0.117858 0
0.895035 0.109777 0
1.000000 -0.002099 0
0.993930 -0.006309 0
0.980732 -0.010472 0
0.957938 -0.014220 0
0.920851 -0.016293 0
0.860780 -0.012721 0
0.761219 0.008088 0
0.589037 0.110660 0
0.275466 0.098185 0
0.000000 0.000000 0
0.000000 0.000000 0
0.000000 0.000000 0
-0.023856 0.000439 0
-0.110413 0.008699 0
-0.175705 -0.006835 0
-0.194271 -0.075631 0
-0.185378 -0.158536 0
-0.160980 -0.210429 0
-0.113710 -0.208660 0
-0.036676 -0.138230 0
0.050836 -0.030192 0
0.122772 0.070254 0
0.171777 0.159044 0
0.200353 0.235667 0
0.213595 0.292362 0
0.221110 0.319228 0
0.235054 0.307544 0
0.264915 0.255633 0
0.313256 0.171948 0
0.375208 0.072144 0
0.436065 -0.024080 0
0.483501 -0.105253 0
0.515182 -0.171989 0
0.530779 -0.225987 0
0.532060 -0.267179 0
0.523997 -0.293474 0
0.514807 -0.300626 0
0.513969 -0.283729 0
0.528478 -0.240519 0
0.559652 -0.174221 0
0.602889 -0.093320 0
0.649394 -0.009792 0
0.687956 0.065492 0
0.714216 0.128901 0
0.727098 0.181664 0
0.727042 0.224736 0
0.716454 0.257687 0
0.700263 0.277684 0
0.685450 0.279603 0
0.678874 0.258410 0
0.684344 0.212878 0
0.701278 0.147577 0
0.725907 0.071366 0
0.753213 -0.005086 0
0.777411 -0.072961 0
0.795633 -0.128552 0
0.806454 -0.171775 0
0.809462 -0.203561 0
0.805558 -0.224637 0
0.797303 -0.234560 0
0.788741 -0.231408 0
0.784278 -0.212742 0
0.786951 -0.177602 0
0.797229 -0.128117 0
0.813201 -0.069402 0
0.831691 -0.008242 0
0.848771 0.048749 0
0.861727 0.097558 0
0.869112 0.137063 0
0.870456 0.167328 0
0.866357 0.188460 0
0.858563 0.199804 0
0.849694 0.199780 0
0.842484 0.186618 0
0.838855 0.159695 0
0.839416 0.120532 0
0.843645 0.072742 0
0.850430 0.021137 0
0.858420 -0.029142 0
0.866147 -0.073866 0
0.872451 -0.110605 0
0.876519 -0.138327 0
0.878055 -0.156775 0
0.877449 -0.165909 0