# vtk DataFile Version 2.0
generated by CFD-lab course output (written by Tobias Neckel) 
ASCII

DATASET STRUCTURED_GRID
DIMENSIONS  99 19 1 
POINTS 1881 float

0.000000 0.000000 0
0.100000 0.000000 0
0.200000 0.000000 0
0.300000 0.000000 0
0.400000 0.000000 0
0.500000 0.000000 0
0.600000 0.000000 0
0.700000 0.000000 0
0.800000 0.000000 0
0.900000 0.000000 0
1.000000 0.000000 0
1.100000 0.000000 0
1.200000 0.000000 0
1.300000 0.000000 0
1.400000 0.000000 0
1.500000 0.000000 0
1.600000 0.000000 0
1.700000 0.000000 0
1.800000 0.000000 0
1.900000 0.000000 0
2.000000 0.000000 0
2.100000 0.000000 0
2.200000 0.000000 0
2.300000 0.000000 0
2.400000 0.000000 0
2.500000 0.000000 0
2.600000 0.000000 0
2.700000 0.000000 0
2.800000 0.000000 0
2.900000 0.000000 0
3.000000 0.000000 0
3.100000 0.000000 0
3.200000 0.000000 0
3.300000 0.000000 0
3.400000 0.000000 0
3.500000 0.000000 0
3.600000 0.000000 0
3.700000 0.000000 0
3.800000 0.000000 0
3.900000 0.000000 0
4.000000 0.000000 0
4.100000 0.000000 0
4.200000 0.000000 0
4.300000 0.000000 0
4.400000 0.000000 0
4.500000 0.000000 0
4.600000 0.000000 0
4.700000 0.000000 0
4.800000 0.000000 0
4.900000 0.000000 0
5.000000 0.000000 0
5.100000 0.000000 0
5.200000 0.000000 0
5.300000 0.000000 0
5.400000 0.000000 0
5.500000 0.000000 0
5.600000 0.000000 0
5.700000 0.000000 0
5.800000 0.000000 0
5.900000 0.000000 0
6.000000 0.000000 0
6.100000 0.000000 0
6.200000 0.000000 0
6.300000 0.000000 0
6.400000 0.000000 0
6.500000 0.000000 0
6.600000 0.000000 0
6.700000 0.000000 0
6.800000 0.000000 0
6.900000 0.000000 0
7.000000 0.000000 0
7.100000 0.000000 0
7.200000 0.000000 0
7.300000 0.000000 0
7.400000 0.000000 0
7.500000 0.000000 0
7.600000 0.000000 0
7.700000 0.000000 0
7.800000 0.000000 0
7.900000 0.000000 0
8.000000 0.000000 0
8.100000 0.000000 0
8.200000 0.000000 0
8.300000 0.000000 0
8.400000 0.000000 0
8.500000 0.000000 0
8.600000 0.000000 0
8.700000 0.000000 0
8.800000 0.000000 0
8.900000 0.000000 0
9.000000 0.000000 0
9.100000 0.000000 0
9.200000 0.000000 0
9.300000 0.000000 0
9.400000 0.000000 0
9.500000 0.000000 0
9.600000 0.000000 0
9.700000 0.000000 0
9.800000 0.000000 0
0.000000 0.100000 0
0.100000 0.100000 0
0.200000 0.100000 0
0.300000 0.100000 0
0.400000 0.100000 0
0.500000 0.100000 0
0.600000 0.100000 0
0.700000 0.100000 0
0.800000 0.100000 0
0.900000 0.100000 0
1.000000 0.100000 0
1.100000 0.100000 0
1.200000 0.100000 0
1.300000 0.100000 0
1.400000 0.100000 0
1.500000 0.100000 0
1.600000 0.100000 0
1.700000 0.100000 0
1.800000 0.100000 0
1.900000 0.100000 0
2.000000 0.100000 0
2.100000 0.100000 0
2.200000 0.100000 0
2.300000 0.100000 0
2.400000 0.100000 0
2.500000 0.100000 0
2.600000 0.100000 0
2.700000 0.100000 0
2.800000 0.100000 0
2.900000 0.100000 0
3.000000 0.100000 0
3.100000 0.100000 0
3.200000 0.100000 0
3.300000 0.100000 0
3.400000 0.100000 0
3.500000 0.100000 0
3.600000 0.100000 0
3.700000 0.100000 0
3.800000 0.100000 0
3.900000 0.100000 0
4.000000 0.100000 0
4.100000 0.100000 0
4.200000 0.100000 0
4.300000 0.100000 0
4.400000 0.100000 0
4.500000 0.100000 0
4.600000 0.100000 0
4.700000 0.100000 0
4.800000 0.100000 0
4.900000 0.100000 0
5.000000 0.100000 0
5.100000 0.100000 0
5.200000 0.100000 0
5.300000 0.100000 0
5.400000 0.100000 0
5.500000 0.100000 0
5.600000 0.100000 0
5.700000 0.100000 0
5.800000 0.100000 0
5.900000 0.100000 0
6.000000 0.100000 0
6.100000 0.100000 0
6.200000 0.100000 0
6.300000 0.100000 0
6.400000 0.100000 0
6.500000 0.100000 0
6.600000 0.100000 0
6.700000 0.100000 0
6.800000 0.100000 0
6.900000 0.100000 0
7.000000 0.100000 0
7.100000 0.100000 0
7.200000 0.100000 0
7.300000 0.100000 0
7.400000 0.100000 0
7.500000 0.100000 0
7.600000 0.100000 0
7.700000 0.100000 0
7.800000 0.100000 0
7.900000 0.100000 0
8.000000 0.100000 0
8.100000 0.100000 0
8.200000 0.100000 0
8.300000 0.100000 0
8.400000 0.100000 0
8.500000 0.100000 0
8.600000 0.100000 0
8.700000 0.100000 0
8.800000 0.100000 0
8.900000 0.100000 0
9.000000 0.100000 0
9.100000 0.100000 0
9.200000 0.100000 0
9.300000 0.100000 0
9.400000 0.100000 0
9.500000 0.100000 0
9.600000 0.100000 0
9.700000 0.100000 0
9.800000 0.100000 0
0.000000 0.200000 0
0.100000 0.200000 0
0.200000 0.200000 0
0.300000 0.200000 0
0.400000 0.200000 0
0.500000 0.200000 0
0.600000 0.200000 0
0.700000 0.200000 0
0.800000 0.200000 0
0.900000 0.200000 0
1.000000 0.200000 0
1.100000 0.200000 0
1.200000 0.200000 0
1.300000 0.200000 0
1.400000 0.200000 0
1.500000 0.200000 0
1.600000 0.200000 0
1.700000 0.200000 0
1.800000 0.200000 0
1.900000 0.200000 0
2.000000 0.200000 0
2.100000 0.200000 0
2.200000 0.200000 0
2.300000 0.200000 0
2.400000 0.200000 0
2.500000 0.200000 0
2.600000 0.200000 0
2.700000 0.200000 0
2.800000 0.200000 0
2.900000 0.200000 0
3.000000 0.200000 0
3.100000 0.200000 0
3.200000 0.200000 0
3.300000 0.200000 0
3.400000 0.200000 0
3.500000 0.200000 0
3.600000 0.200000 0
3.700000 0.200000 0
3.800000 0.200000 0
3.900000 0.200000 0
4.000000 0.200000 0
4.100000 0.200000 0
4.200000 0.200000 0
4.300000 0.200000 0
4.400000 0.200000 0
4.500000 0.200000 0
4.600000 0.200000 0
4.700000 0.200000 0
4.800000 0.200000 0
4.900000 0.200000 0
5.000000 0.200000 0
5.100000 0.200000 0
5.200000 0.200000 0
5.300000 0.200000 0
5.400000 0.200000 0
5.500000 0.200000 0
5.600000 0.200000 0
5.700000 0.200000 0
5.800000 0.200000 0
5.900000 0.200000 0
6.000000 0.200000 0
6.100000 0.200000 0
6.200000 0.200000 0
6.300000 0.200000 0
6.400000 0.200000 0
6.500000 0.200000 0
6.600000 0.200000 0
6.700000 0.200000 0
6.800000 0.200000 0
6.900000 0.200000 0
7.000000 0.200000 0
7.100000 0.200000 0
7.200000 0.200000 0
7.300000 0.200000 0
7.400000 0.200000 0
7.500000 0.200000 0
7.600000 0.200000 0
7.700000 0.200000 0
7.800000 0.200000 0
7.900000 0.200000 0
8.000000 0.200000 0
8.100000 0.200000 0
8.200000 0.200000 0
8.300000 0.200000 0
8.400000 0.200000 0
8.500000 0.200000 0
8.600000 0.200000 0
8.700000 0.200000 0
8.800000 0.200000 0
8.900000 0.200000 0
9.000000 0.200000 0
9.100000 0.200000 0
9.200000 0.200000 0
9.300000 0.200000 0
9.400000 0.200000 0
9.500000 0.200000 0
9.600000 0.200000 0
9.700000 0.200000 0
9.800000 0.200000 0
0.000000 0.300000 0
0.100000 0.300000 0
0.200000 0.300000 0
0.300000 0.300000 0
0.400000 0.300000 0
0.500000 0.300000 0
0.600000 0.300000 0
0.700000 0.300000 0
0.800000 0.300000 0
0.900000 0.300000 0
1.000000 0.300000 0
1.100000 0.300000 0
1.200000 0.300000 0
1.300000 0.300000 0
1.400000 0.300000 0
1.500000 0.300000 0
1.600000 0.300000 0
1.700000 0.300000 0
1.800000 0.300000 0
1.900000 0.300000 0
2.000000 0.300000 0
2.100000 0.300000 0
2.200000 0.300000 0
2.300000 0.300000 0
2.400000 0.300000 0
2.500000 0.300000 0
2.600000 0.300000 0
2.700000 0.300000 0
2.800000 0.300000 0
2.900000 0.300000 0
3.000000 0.300000 0
3.100000 0.300000 0
3.200000 0.300000 0
3.300000 0.300000 0
3.400000 0.300000 0
3.500000 0.300000 0
3.600000 0.300000 0
3.700000 0.300000 0
3.800000 0.300000 0
3.900000 0.300000 0
4.000000 0.300000 0
4.100000 0.300000 0
4.200000 0.300000 0
4.300000 0.300000 0
4.400000 0.300000 0
4.500000 0.300000 0
4.600000 0.300000 0
4.700000 0.300000 0
4.800000 0.300000 0
4.900000 0.300000 0
5.000000 0.300000 0
5.100000 0.300000 0
5.200000 0.300000 0
5.300000 0.300000 0
5.400000 0.300000 0
5.500000 0.300000 0
5.600000 0.300000 0
5.700000 0.300000 0
5.800000 0.300000 0
5.900000 0.300000 0
6.000000 0.300000 0
6.100000 0.300000 0
6.200000 0.300000 0
6.300000 0.300000 0
6.400000 0.300000 0
6.500000 0.300000 0
6.600000 0.300000 0
6.700000 0.300000 0
6.800000 0.300000 0
6.900000 0.300000 0
7.000000 0.300000 0
7.100000 0.300000 0
7.200000 0.300000 0
7.300000 0.300000 0
7.400000 0.300000 0
7.500000 0.300000 0
7.600000 0.300000 0
7.700000 0.300000 0
7.800000 0.300000 0
7.900000 0.300000 0
8.000000 0.300000 0
8.100000 0.300000 0
8.200000 0.300000 0
8.300000 0.300000 0
8.400000 0.300000 0
8.500000 0.300000 0
8.600000 0.300000 0
8.700000 0.300000 0
8.800000 0.300000 0
8.900000 0.300000 0
9.000000 0.300000 0
9.100000 0.300000 0
9.200000 0.300000 0
9.300000 0.300000 0
9.400000 0.300000 0
9.500000 0.300000 0
9.600000 0.300000 0
9.700000 0.300000 0
9.800000 0.300000 0
0.000000 0.400000 0
0.100000 0.400000 0
0.200000 0.400000 0
0.300000 0.400000 0
0.400000 0.400000 0
0.500000 0.400000 0
0.600000 0.400000 0
0.700000 0.400000 0
0.800000 0.400000 0
0.900000 0.400000 0
1.000000 0.400000 0
1.100000 0.400000 0
1.200000 0.400000 0
1.300000 0.400000 0
1.400000 0.400000 0
1.500000 0.400000 0
1.600000 0.400000 0
1.700000 0.400000 0
1.800000 0.400000 0
1.900000 0.400000 0
2.000000 0.400000 0
2.100000 0.400000 0
2.200000 0.400000 0
2.300000 0.400000 0
2.400000 0.400000 0
2.500000 0.400000 0
2.600000 0.400000 0
2.700000 0.400000 0
2.800000 0.400000 0
2.900000 0.400000 0
3.000000 0.400000 0
3.100000 0.400000 0
3.200000 0.400000 0
3.300000 0.400000 0
3.400000 0.400000 0
3.500000 0.400000 0
3.600000 0.400000 0
3.700000 0.400000 0
3.800000 0.400000 0
3.900000 0.400000 0
4.000000 0.400000 0
4.100000 0.400000 0
4.200000 0.400000 0
4.300000 0.400000 0
4.400000 0.400000 0
4.500000 0.400000 0
4.600000 0.400000 0
4.700000 0.400000 0
4.800000 0.400000 0
4.900000 0.400000 0
5.000000 0.400000 0
5.100000 0.400000 0
5.200000 0.400000 0
5.300000 0.400000 0
5.400000 0.400000 0
5.500000 0.400000 0
5.600000 0.400000 0
5.700000 0.400000 0
5.800000 0.400000 0
5.900000 0.400000 0
6.000000 0.400000 0
6.100000 0.400000 0
6.200000 0.400000 0
6.300000 0.400000 0
6.400000 0.400000 0
6.500000 0.400000 0
6.600000 0.400000 0
6.700000 0.400000 0
6.800000 0.400000 0
6.900000 0.400000 0
7.000000 0.400000 0
7.100000 0.400000 0
7.200000 0.400000 0
7.300000 0.400000 0
7.400000 0.400000 0
7.500000 0.400000 0
7.600000 0.400000 0
7.700000 0.400000 0
7.800000 0.400000 0
7.900000 0.400000 0
8.000000 0.400000 0
8.100000 0.400000 0
8.200000 0.400000 0
8.300000 0.400000 0
8.400000 0.400000 0
8.500000 0.400000 0
8.600000 0.400000 0
8.700000 0.400000 0
8.800000 0.400000 0
8.900000 0.400000 0
9.000000 0.400000 0
9.100000 0.400000 0
9.200000 0.400000 0
9.300000 0.400000 0
9.400000 0.400000 0
[...]
POINT_DATA 1881 

VECTORS velocity float
0.500000 0.000000 0
0.502077 0.000000 0
0.506727 0.000000 0
0.514377 0.000000 0
0.525455 0.000000 0
0.540296 0.000000 0
0.558933 0.000000 0
0.580805 0.000000 0
0.604523 0.000000 0
0.627799 0.000000 0
0.648690 0.000000 0
0.666183 0.000000 0
0.680032 0.000000 0
0.690350 0.000000 0
0.697298 0.000000 0
0.700941 0.000000 0
0.701276 0.000000 0
0.698299 0.000000 0
0.692114 0.000000 0
0.683001 0.000000 0
0.671434 0.000000 0
0.658058 0.000000 0
0.643644 0.000000 0
0.629035 0.000000 0
0.615096 0.000000 0
0.602662 0.000000 0
0.592502 0.000000 0
0.585313 0.000000 0
0.581745 0.000000 0
0.582371 0.000000 0
0.587358 0.000000 0
0.596226 0.000000 0
0.607691 0.000000 0
0.619768 0.000000 0
0.630209 0.000000 0
0.637125 0.000000 0
0.639508 0.000000 0
0.637203 0.000000 0
0.630528 0.000000 0
0.620118 0.000000 0
0.606779 0.000000 0
0.591360 0.000000 0
0.574695 0.000000 0
0.557575 0.000000 0
0.540757 0.000000 0
0.524978 0.000000 0
0.510987 0.000000 0
0.499568 0.000000 0
0.491564 0.000000 0
0.487822 0.000000 0
0.488918 0.000000 0
0.494866 0.000000 0
0.505344 0.000000 0
0.519760 0.000000 0
0.537254 0.000000 0
0.556664 0.000000 0
0.576478 0.000000 0
0.594821 0.000000 0
0.609628 0.000000 0
0.619086 0.000000 0
0.622246 0.000000 0
0.619162 0.000000 0
0.610342 0.000000 0
0.596599 0.000000 0
0.579024 0.000000 0
0.558911 0.000000 0
0.537670 0.000000 0
0.516747 0.000000 0
0.497552 0.000000 0
0.481375 0.000000 0
0.469283 0.000000 0
0.461989 0.000000 0
0.459690 0.000000 0
0.461836 0.000000 0
0.467459 0.000000 0
0.475725 0.000000 0
0.486024 0.000000 0
0.497948 0.000000 0
0.511193 0.000000 0
0.525441 0.000000 0
0.540203 0.000000 0
0.554709 0.000000 0
0.567867 0.000000 0
0.578363 0.000000 0
0.584941 0.000000 0
0.586788 0.000000 0
0.583688 0.000000 0
0.575742 0.000000 0
0.563343 0.000000 0
0.547261 0.000000 0
0.528688 0.000000 0
0.509238 0.000000 0
0.490825 0.000000 0
0.475380 0.000000 0
0.464475 0.000000 0
0.459011 0.000000 0
0.459047 0.000000 0
0.463857 0.000000 0
0.473529 0.000000 0
1.000000 -0.002082 0
1.004708 -0.006741 0
1.014634 -0.012318 0
1.030544 -0.018748 0
1.053375 -0.025941 0
1.083992 -0.033500 0
1.122747 -0.040528 0
1.168747 -0.045605 0
1.219294 -0.046999 0
1.268555 -0.044153 0
1.312067 -0.038357 0
1.348018 -0.031316 0
1.376323 -0.024147 0
1.397544 -0.017258 0
1.412186 -0.010593 0
1.420393 -0.003972 0
1.422006 0.002652 0
1.416900 0.009165 0
1.405199 0.015299 0
1.387449 0.020678 0
1.364628 0.024937 0
1.338078 0.027781 0
1.309391 0.029010 0
1.280307 0.028532 0
1.252605 0.026356 0
1.227988 0.022576 0
1.208001 0.017331 0
1.194003 0.010740 0
1.187196 0.002926 0
1.188646 -0.005625 0
1.198931 -0.013858 0
1.217457 -0.020327 0
1.241904 -0.023530 0
1.268309 -0.022501 0
1.291886 -0.017336 0
1.308363 -0.009278 0
1.315205 -0.000061 0
1.311975 0.008991 0
1.299507 0.017089 0
1.279282 0.023752 0
1.253059 0.028762 0
1.222646 0.032086 0
1.189761 0.033786 0
1.156013 0.033938 0
1.122919 0.032596 0
1.091939 0.029767 0
1.064507 0.025406 0
1.042009 0.019418 0
1.025713 0.011743 0
1.016644 0.002641 0
1.015511 -0.007049 0
1.022666 -0.016430 0
1.038017 -0.024898 0
1.060979 -0.031913 0
1.090469 -0.036903 0
1.124899 -0.039219 0
1.162034 -0.038149 0
1.198834 -0.033139 0
1.231516 -0.024251 0
1.256041 -0.012603 0
1.269042 -0.000061 0
1.269054 0.011918 0
1.256913 0.022575 0
1.234352 0.031327 0
1.203641 0.037695 0
1.167412 0.041359 0
1.128479 0.042167 0
1.089669 0.040120 0
1.053643 0.035375 0
1.022689 0.028273 0
0.998482 0.019389 0
0.981869 0.009596 0
0.972825 0.000157 0
0.970714 -0.007765 0
0.974538 -0.013885 0
0.983272 -0.018561 0
0.996141 -0.022219 0
1.012667 -0.025165 0
1.032577 -0.027487 0
1.055583 -0.029002 0
1.081093 -0.029260 0
1.107950 -0.027656 0
1.134333 -0.023646 0
1.157842 -0.017065 0
1.175781 -0.008415 0
1.185645 0.001261 0
1.185893 0.011053 0
1.176559 0.020353 0
1.158542 0.028489 0
1.133445 0.034662 0
1.103555 0.038029 0
1.071710 0.037869 0
1.041019 0.033864 0
1.014381 0.026355 0
0.993964 0.016372 0
0.980859 0.005430 0
0.975176 -0.004845 0
0.976539 -0.014481 0
0.984808 -0.019959 0
1.000000 -0.004721 0
1.004855 -0.014657 0
1.014766 -0.025860 0
1.030535 -0.038767 0
1.053414 -0.053474 0
1.084916 -0.069396 0
1.126380 -0.084775 0
1.177845 -0.096557 0
1.237594 -0.099795 0
1.293892 -0.092743 0
1.340596 -0.079432 0
1.377168 -0.064232 0
1.405105 -0.049516 0
1.426073 -0.035867 0
1.441127 -0.022847 0
1.450356 -0.009809 0
1.453129 0.003500 0
1.448915 0.016809 0
1.437574 0.029450 0
1.419618 0.040565 0
1.396122 0.049360 0
1.368563 0.055223 0
1.338669 0.057753 0
1.308314 0.056766 0
1.279391 0.052298 0
1.253683 0.044581 0
1.232722 0.033964 0
1.217732 0.020786 0
1.209771 0.005341 0
1.210033 -0.011740 0
1.219775 -0.028806 0
1.239154 -0.042959 0
1.266349 -0.050830 0
1.297511 -0.049956 0
1.327316 -0.040029 0
1.350110 -0.023298 0
1.361769 -0.003600 0
1.361428 0.015702 0
1.350609 0.032696 0
1.331364 0.046452 0
1.305860 0.056639 0
1.276110 0.063301 0
1.243899 0.066633 0
1.210793 0.066841 0
1.178204 0.064071 0
1.147434 0.058408 0
1.119682 0.049926 0
1.095975 0.038789 0
1.077049 0.025359 0
1.063262 0.010196 0
1.054807 -0.006027 0
1.052100 -0.022510 0
1.055587 -0.038316 0
1.065558 -0.052452 0
1.082192 -0.063915 0
1.105531 -0.071555 0
1.135069 -0.073922 0
1.169231 -0.069465 0
1.205121 -0.057188 0
1.238600 -0.037507 0
1.264740 -0.012996 0
1.279188 0.012144 0
1.280672 0.034714 0
1.270715 0.053281 0
1.251473 0.066946 0
1.225432 0.075166 0
1.195200 0.077746 0
1.163309 0.074840 0
1.132024 0.066985 0
1.103143 0.055166 0
1.077839 0.040825 0
1.056609 0.025661 0
1.039429 0.011161 0
1.026205 -0.001707 0
1.016851 -0.012554 0
1.011201 -0.021598 0
1.009320 -0.029390 0
1.011587 -0.036428 0
1.018579 -0.042907 0
1.030798 -0.048506 0
1.048255 -0.052356 0
1.070236 -0.053228 0
1.095290 -0.049880 0
1.121365 -0.041437 0
1.145915 -0.027792 0
1.166038 -0.010101 0
1.178992 0.009096 0
1.183428 0.027360 0
1.179847 0.043123 0
1.169488 0.054996 0
1.154061 0.061743 0
1.135485 0.062543 0
1.115588 0.057336 0
1.095865 0.047060 0
1.077364 0.033525 0
1.060712 0.018790 0
1.046328 0.004322 0
1.034664 -0.009632 0
1.025371 -0.017855 0
1.000000 -0.006950 0
1.003869 -0.021526 0
1.012052 -0.038009 0
1.025581 -0.057406 0
1.046234 -0.080329 0
1.076630 -0.106470 0
1.120108 -0.133454 0
1.179139 -0.156799 0
1.257535 -0.163017 0
1.323483 -0.147135 0
1.370417 -0.121631 0
1.402990 -0.095837 0
1.426196 -0.073073 0
1.443592 -0.053291 0
1.457144 -0.034867 0
1.466838 -0.015970 0
1.470813 0.004089 0
1.467296 0.024717 0
1.455576 0.044590 0
1.436154 0.062123 0
1.410331 0.075983 0
1.379826 0.085223 0
1.346578 0.089249 0
1.312666 0.087802 0
1.280204 0.080978 0
1.251153 0.069238 0
1.227058 0.053276 0
1.208859 0.033689 0
1.197085 0.010631 0
1.192521 -0.015616 0
1.197071 -0.042963 0
1.212039 -0.066885 0
1.236849 -0.081872 0
1.269196 -0.083456 0
1.304845 -0.069929 0
1.337378 -0.043734 0
1.359508 -0.011389 0
1.366656 0.020143 0
1.360365 0.047153 0
1.343808 0.068502 0
1.319952 0.084014 0
1.291259 0.094046 0
1.259690 0.099102 0
1.226811 0.099632 0
1.193912 0.095953 0
1.162105 0.088287 0
1.132361 0.076863 0
1.105485 0.062049 0
1.082007 0.044453 0
1.062036 0.024882 0
1.045185 0.004112 0
1.030895 -0.017209 0
1.019426 -0.038353 0
1.012488 -0.058511 0
1.012421 -0.076868 0
1.021473 -0.092087 0
1.040634 -0.101838 0
1.069048 -0.103180 0
1.104219 -0.093611 0
1.142451 -0.072216 0
1.179163 -0.040645 0
1.209103 -0.004014 0
1.227520 0.031046 0
1.233849 0.060525 0
1.229690 0.082977 0
1.217058 0.097632 0
1.198121 0.104291 0
1.174985 0.103298 0
1.149523 0.095544 0
1.123276 0.082461 0
1.097405 0.065927 0
1.072710 0.048009 0
1.049626 0.030564 0
1.028202 0.014815 0
1.008405 0.001122 0
0.990532 -0.011027 0
0.975566 -0.022602 0
0.965324 -0.034419 0
0.961690 -0.046692 0
0.965750 -0.058672 0
0.977421 -0.068692 0
0.995620 -0.074685 0
1.018651 -0.074770 0
1.044553 -0.067684 0
1.071303 -0.053084 0
1.096847 -0.031813 0
1.118913 -0.006333 0
1.135015 0.019502 0
1.144200 0.042433 0
1.146847 0.060452 0
1.143756 0.072035 0
1.135890 0.076344 0
1.124181 0.073485 0
1.109467 0.064580 0
1.092563 0.051526 0
1.074326 0.036467 0
1.055542 0.021203 0
1.036650 0.006475 0
1.017675 -0.002450 0
1.000000 -0.008602 0
1.002457 -0.026727 0
1.007857 -0.047581 0
1.017334 -0.072956 0
1.033075 -0.104527 0
1.058958 -0.143270 0
1.101420 -0.187272 0
1.168392 -0.233960 0
1.282982 -0.244124 0
1.353134 -0.205623 0
1.387333 -0.158949 0
1.404917 -0.120032 0
1.415262 -0.090131 0
1.423354 -0.066805 0
1.432322 -0.046086 0
1.442754 -0.023481 0
1.450846 0.003039 0
1.450802 0.032041 0
1.440838 0.060585 0
1.421558 0.085802 0
1.394646 0.105680 0
1.362064 0.118967 0
1.325887 0.124904 0
1.288367 0.123133 0
1.251926 0.113805 0
1.218903 0.097722 0
1.190952 0.076255 0
1.168402 0.050763 0
1.150341 0.021690 0
1.135554 -0.011713 0
1.124487 -0.048309 0
1.121589 -0.082723 0
1.130224 -0.107976 0
1.152451 -0.117948 0
1.187440 -0.108212 0
1.230055 -0.077970 0
1.271007 -0.032887 0
1.299333 0.014846 0
1.309547 0.055546 0
1.305495 0.086863 0
1.291088 0.109188 0
1.269414 0.123561 0
1.242830 0.131079 0
1.213159 0.132617 0
1.181853 0.128775 0
1.150111 0.119957 0
1.118932 0.106545 0
1.089060 0.089142 0
1.060705 0.068806 0
1.033186 0.047017 0
1.005070 0.025114 0
0.975440 0.003250 0
0.945729 -0.019904 0
0.920568 -0.045439 0
0.906160 -0.072890 0
0.905905 -0.099758 0
0.919614 -0.121487 0
0.945062 -0.133042 0
0.979253 -0.130584 0
1.018930 -0.112448 0
1.060632 -0.079648 0
1.100470 -0.036215 0
1.133446 0.009966 0
1.155367 0.051111 0
1.166373 0.083739 0
1.167723 0.106736 0
1.160990 0.119821 0
1.147811 0.123440 0
1.129713 0.118696 0
1.108008 0.107287 0
1.083698 0.091393 0
1.057412 0.073442 0
1.029466 0.055671 0
1.000217 0.039516 0
0.970667 0.025118 0
0.942879 0.011244 0
0.919638 -0.004176 0
0.903603 -0.022547 0
0.896629 -0.043327 0
0.898998 -0.064231 0
0.909626 -0.082220 0
0.926802 -0.094452 0
0.948708 -0.098809 0
0.973636 -0.094085 0
1.000038 -0.080082 0
1.026502 -0.057708 0
1.051625 -0.029068 0
1.073601 0.002079 0
1.090341 0.031295 0
1.101249 0.055443 0
1.106332 0.072703 0
1.105816 0.082121 0
1.100025 0.083761 0
1.089366 0.078678 0
1.074373 0.068668 0
1.055739 0.055811 0
1.034319 0.041998 0
1.011081 0.028235 0
0.987206 0.019576 0
1.000000 -0.009420 0
1.000537 -0.029400 0
1.001936 -0.052892 0
1.005030 -0.082628 0
1.011766 -0.121954 0
1.026441 -0.174809 0
1.058393 -0.242873 0
1.124922 -0.338346 0
1.295581 -0.347754 0
1.337111 -0.251494 0
1.327961 -0.173432 0
1.313763 -0.123781 0
1.300698 -0.091506 0
1.290959 -0.070339 0
1.288318 -0.054266 0
1.296502 -0.034497 0
1.313524 -0.003964 0
1.325732 0.034719 0
1.325224 0.073827 0
1.313615 0.108306 0
1.293105 0.135470 0
1.265325 0.153975 0
1.231874 0.162939 0
1.194779 0.161757 0
1.156719 0.150438 0
1.120708 0.130208 0
1.088537 0.103780 0
1.058529 0.074309 0
1.026256 0.043491 0
0.989296 0.010251 0
0.950224 -0.028985 0
0.918048 -0.072609 0
0.905701 -0.112729 0
0.917682 -0.140673 0
0.951719 -0.147540 0
1.002324 -0.127311 0
1.061664 -0.080668 0
1.118952 -0.018394 0
1.161297 0.040990 0
1.184432 0.086960 0
1.192583 0.120094 0
1.189154 0.142302 0
1.176759 0.155355 0
1.157518 0.160606 0
1.133189 0.158999 0
1.105144 0.151206 0
1.074166 0.137912 0
1.040091 0.120275 0
1.001742 0.100326 0
0.958036 0.080516 0
0.910255 0.061860 0
0.863426 0.042137 0
0.824604 0.016526 0
0.799386 -0.018934 0
0.790072 -0.062195 0
0.795269 -0.105531 0
0.812026 -0.140987 0
0.837698 -0.162813 0
0.870261 -0.167475 0
0.907897 -0.153593 0
0.948607 -0.122186 0
0.990051 -0.076829 0
1.029284 -0.023851 0
1.061514 0.027599 0
1.083962 0.070623 0
1.096794 0.103017 0
1.100746 0.124205 0
1.096788 0.134578 0
1.085888 0.135350 0
1.068828 0.128479 0
1.046102 0.116524 0
1.018024 0.102243 0
0.985223 0.087761 0
0.949403 0.073617 0
0.913786 0.058463 0
0.882610 0.040006 0
0.859666 0.016680 0
0.846768 -0.011405 0
0.843662 -0.042082 0
0.848823 -0.071663 0
0.860401 -0.096490 0
0.876787 -0.113761 0
0.896713 -0.121599 0
0.919134 -0.119011 0
0.943090 -0.105946 0
0.967641 -0.083395 0
0.991833 -0.053427 0
1.014616 -0.019209 0
1.034227 0.014789 0
1.049103 0.044463 0
1.058630 0.067471 0
1.062472 0.082654 0
1.060471 0.089937 0
1.052642 0.090234 0
1.039225 0.085154 0
1.020799 0.076522 0
0.998427 0.065861 0
0.973752 0.053586 0
0.949307 0.044899 0
1.000000 -0.009151 0
0.998257 -0.028676 0
0.994701 -0.052077 0
0.989289 -0.082788 0
0.982441 -0.125937 0
0.976225 -0.189887 0
0.977905 -0.285739 0
1.009291 -0.471140 0
1.198457 -0.456315 0
1.145064 -0.238016 0
1.052904 -0.135616 0
1.001308 -0.092769 0
0.963978 -0.067313 0
0.932976 -0.054421 0
0.911899 -0.051631 0
0.912117 -0.048691 0
0.940549 -0.026197 0
0.985183 0.020334 0
1.018236 0.072694 0
1.035427 0.117913 0
1.040740 0.153962 0
1.034217 0.180191 0
1.015723 0.195445 0
0.985599 0.198285 0
0.944274 0.187873 0
0.892043 0.165903 0
0.830149 0.138440 0
0.763133 0.113054 0
0.699402 0.090935 0
0.648637 0.064332 0
0.618323 0.022950 0
0.609856 -0.038192 0
0.621027 -0.107609 0
0.649217 -0.163971 0
0.692043 -0.192863 0
0.747546 -0.187918 0
0.813287 -0.149512 0
0.884925 -0.084788 0
0.953556 -0.009935 0
1.006390 0.055577 0
1.040942 0.104463 0
1.060324 0.139383 0
1.066782 0.162714 0
1.062187 0.176185 0
1.048050 0.181148 0
1.025243 0.178979 0
0.993682 0.171596 0
0.952509 0.161565 0
0.901568 0.150860 0
0.843997 0.138505 0
0.787615 0.119727 0
0.742483 0.088907 0
0.715799 0.044144 0
0.708286 -0.010899 0
0.714482 -0.068764 0
0.728499 -0.121704 0
0.747217 -0.163909 0
0.769821 -0.191272 0
0.796555 -0.200781 0
0.827619 -0.190795 0
0.862486 -0.161804 0
0.899766 -0.116892 0
0.937442 -0.061495 0
0.972638 -0.003565 0
1.000962 0.048460 0
1.020909 0.089953 0
1.032224 0.119830 0
1.035047 0.138302 0
1.029604 0.146659 0
1.016052 0.147075 0
0.994583 0.142199 0
0.965900 0.134324 0
0.931945 0.124294 0
0.896290 0.110956 0
0.863550 0.091915 0
0.837912 0.065369 0
0.821741 0.031671 0
0.815182 -0.006536 0
0.816500 -0.045375 0
0.823442 -0.080965 0
0.834294 -0.110178 0
0.848021 -0.130759 0
0.864075 -0.141152 0
0.882115 -0.140457 0
0.901766 -0.128583 0
0.922494 -0.106445 0
0.943589 -0.076037 0
0.964206 -0.040311 0
0.983253 -0.003189 0
0.998928 0.031043 0
1.010078 0.059337 0
1.015958 0.080282 0
1.016073 0.093592 0
1.010195 0.099926 0
0.998474 0.100512 0
0.981623 0.096610 0
0.961060 0.089045 0
0.938891 0.077355 0
0.918066 0.067833 0
1.000000 -0.007686 0
0.996032 -0.024112 0
0.987502 -0.043927 0
0.973068 -0.070367 0
0.950407 -0.108884 0
0.915789 -0.170261 0
0.863488 -0.275929 0
0.789458 -0.558894 0
0.551146 -0.387209 0
0.490740 0.000000 0
0.419079 -0.020050 0
0.354705 -0.034845 0
0.339455 -0.023167 0
0.343328 -0.018261 0
0.346239 -0.033411 0
0.361910 -0.063154 0
0.405547 -0.077035 0
0.480776 -0.042975 0
0.565106 0.023575 0
0.630651 0.085795 0
0.674208 0.136674 0
0.697138 0.178986 0
0.698147 0.211553 0
0.676328 0.233203 0
0.631636 0.243993 0
0.566553 0.244338 0
0.489334 0.232698 0
0.415831 0.205067 0
0.364699 0.158000 0
0.347628 0.091342 0
0.364191 0.009805 0
0.401056 -0.075310 0
0.441933 -0.152091 0
0.481693 -0.211696 0
0.522757 -0.245876 0
0.569597 -0.248554 0
0.625370 -0.218045 0
0.690254 -0.158665 0
0.761010 -0.080476 0
0.828334 -0.000428 0
0.880854 0.066158 0
0.917131 0.116460 0
0.938401 0.153489 0
0.945581 0.179335 0
0.939267 0.195941 0
0.919605 0.205573 0
0.886692 0.210645 0
0.841990 0.212388 0
0.790334 0.208838 0
0.740432 0.194472 0
0.701945 0.163379 0
0.680771 0.113960 0
0.676734 0.050731 0
0.685127 -0.017608 0
0.699259 -0.082400 0
0.714492 -0.138259 0
0.729182 -0.182303 0
0.743847 -0.212147 0
0.760247 -0.225274 0
0.780326 -0.219526 0
0.805149 -0.194333 0
0.834332 -0.151785 0
0.866233 -0.096722 0
0.898539 -0.035919 0
0.927681 0.022354 0
0.950387 0.071757 0
0.965429 0.110069 0
0.972157 0.137200 0
0.970191 0.154347 0
0.959421 0.163502 0
0.940359 0.166679 0
0.914707 0.164883 0
0.885683 0.157373 0
0.857572 0.142016 0
0.834435 0.116846 0
0.818763 0.081822 0
0.810992 0.039417 0
0.810025 -0.006157 0
0.813979 -0.050336 0
0.820939 -0.089451 0
0.829605 -0.121063 0
0.839373 -0.143537 0
0.850200 -0.155688 0
0.862349 -0.156697 0
0.876072 -0.146320 0
0.891340 -0.125211 0
0.907742 -0.095133 0
0.924547 -0.058869 0
0.940808 -0.019930 0
0.955106 0.017643 0
0.965931 0.050444 0
0.972288 0.076661 0
0.973511 0.095702 0
0.969310 0.107835 0
0.959907 0.113726 0
0.946181 0.113936 0
0.929692 0.108593 0
0.912484 0.096580 0
0.897030 0.085776 0
1.000000 -0.005191 0
0.994439 -0.016187 0
0.982318 -0.029113 0
0.961261 -0.045691 0
0.926648 -0.068649 0
0.869385 -0.102956 0
0.770075 -0.159400 0
0.586590 -0.255118 0
0.000000 -0.157599 0
0.000000 0.000000 0
0.000000 0.000000 0
-0.030100 -0.023191 0
-0.047157 -0.055939 0
-0.047226 -0.061210 0
-0.054732 -0.070219 0
-0.050996 -0.108006 0
-0.021308 -0.145069 0
0.040424 -0.139232 0
0.138488 -0.077188 0
0.242688 0.008805 0
0.314272 0.087469 0
0.358701 0.156248 0
0.377174 0.216252 0
0.370135 0.264793 0
0.342096 0.297650 0
0.303490 0.308212 0
0.269672 0.289171 0
0.255102 0.237700 0
0.266679 0.159151 0
0.301654 0.064851 0
0.347190 -0.030472 0
0.388952 -0.115934 0
0.421908 -0.188252 0
0.446137 -0.244802 0
0.465922 -0.280767 0
0.488111 -0.290529 0
0.519370 -0.270171 0
0.563243 -0.220429 0
0.618665 -0.148017 0
0.680578 -0.064270 0
0.738143 0.015663 0
0.782039 0.081834 0
0.810885 0.134262 0
0.824490 0.175317 0
0.822863 0.207122 0
0.806591 0.231551 0
0.777899 0.249210 0
0.741931 0.257923 0
0.706845 0.252420 0
0.681372 0.226898 0
0.670890 0.179394 0
0.675282 0.114126 0
0.690241 0.039797 0
0.709635 -0.033415 0
0.727847 -0.098121 0
0.742066 -0.151620 0
0.751447 -0.193259 0
0.756890 -0.222336 0
0.760851 -0.237260 0
0.766686 -0.235697 0
0.777397 -0.215809 0
0.794337 -0.177975 0
0.816752 -0.125701 0
0.842350 -0.065010 0
0.868096 -0.003387 0
0.889993 0.052207 0
0.905779 0.098062 0
0.914211 0.133541 0
0.914635 0.159397 0
0.907102 0.176908 0
0.892728 0.186916 0
0.873975 0.189003 0
0.854372 0.181433 0
0.837553 0.162209 0
0.826043 0.130729 0
0.820619 0.088818 0
0.820582 0.040416 0
0.824504 -0.009516 0
0.830634 -0.056284 0
0.837437 -0.096585 0
0.843884 -0.128606 0
0.849560 -0.151349 0
0.854689 -0.164123 0
0.860005 -0.166323 0
0.866426 -0.157567 0
0.874621 -0.138109 0
0.884720 -0.109239 0
0.896260 -0.073372 0
0.908346 -0.033744 0
0.919796 0.005923 0
0.929086 0.042159 0
0.935093 0.072705 0
0.937101 0.096572 0
0.934847 0.113532 0
0.928629 0.123641 0
0.919341 0.126825 0
0.908365 0.122741 0
0.897269 0.110016 0
0.887619 0.097996 0
1.000000 -0.002131 0
0.993923 -0.006437 0
0.980714 -0.010747 0
0.957903 -0.014690 0
0.920786 -0.016996 0
0.860666 -0.013677 0
0.761018 0.006873 0
0.588670 0.108922 0
0.275121 0.097120 0
0.000000 0.000000 0
0.000000 0.000000 0
0.000000 0.000000 0
-0.025452 -0.008304 0
-0.111739 -0.010690 0
-0.176624 -0.029647 0
-0.195914 -0.096586 0
-0.188399 -0.168463 0
-0.160736 -0.202778 0
-0.104257 -0.178695 0
-0.019518 -0.089994 0
0.062603 0.020655 0
0.123782 0.116080 0
0.163192 0.200117 0
0.184407 0.268282 0
0.195062 0.310642 0
0.206834 0.316769 0
0.231193 0.281095 0
0.273894 0.208072 0
0.332888 0.111460 0
0.397470 0.010839 0
0.451272 -0.077491 0
0.489475 -0.150030 0
0.511380 -0.209283 0
0.517908 -0.255714 0
0.512923 -0.287849 0
0.503757 -0.302003 0
0.499944 -0.293180 0
0.509820 -0.257961 0
0.536770 -0.197814 0
0.577903 -0.119910 0
0.625629 -0.035306 0
0.668223 0.043716 0
0.698965 0.111035 0
0.716240 0.167356 0
0.720037 0.213839 0
0.712155 0.250536 0
0.696857 0.275305 0
0.680815 0.283443 0
0.671401 0.269400 0
0.673680 0.230431 0
0.688319 0.169476 0
0.712149 0.094617 0
0.740275 0.016387 0
0.766539 -0.055206 0
0.787179 -0.114823 0
0.800461 -0.161853 0
0.805700 -0.197124 0
0.803422 -0.221550 0
0.795774 -0.235070 0
0.786569 -0.236071 0
0.780407 -0.221982 0
0.780979 -0.191140 0
0.789539 -0.144734 0
0.804692 -0.087260 0
0.823406 -0.025287 0
0.841733 0.034075 0
0.856379 0.085853 0
0.865593 0.128346 0
0.868637 0.161458 0
0.865813 0.185411 0
0.858604 0.199808 0
0.849521 0.203242 0
0.841452 0.193799 0
0.836689 0.170350 0
0.836230 0.133786 0
0.839783 0.087289 0
0.846295 0.035538 0
0.854430 -0.016203 0
0.862624 -0.063263 0
0.869604 -0.102696 0
0.874431 -0.133181 0
0.876648 -0.154336 0
0.876465 -0.166127 0
0.874820 -0.168427 0