# vtk DataFile Version 2.0
generated by CFD-lab course output (written by Tobias Neckel) 
ASCII

DATASET STRUCTURED_GRID
DIMENSIONS  99 19 1 
POINTS 1881 float

0.000000 0.000000 0
0.100000 0.000000 0
0.200000 0.000000 0
0.300000 0.000000 0
0.400000 0.000000 0
0.500000 0.000000 0
0.600000 0.000000 0
0.700000 0.000000 0
0.800000 0.000000 0
0.900000 0.000000 0
1.000000 0.000000 0
1.100000 0.000000 0
1.200000 0.000000 0
1.300000 0.000000 0
1.400000 0.000000 0
1.500000 0.000000 0
1.600000 0.000000 0
1.700000 0.000000 0
1.800000 0.000000 0
1.900000 0.000000 0
2.000000 0.000000 0
2.100000 0.000000 0
2.200000 0.000000 0
2.300000 0.000000 0
2.400000 0.000000 0
2.500000 0.000000 0
2.600000 0.000000 0
2.700000 0.000000 0
2.800000 0.000000 0
2.900000 0.000000 0
3.000000 0.000000 0
3.100000 0.000000 0
3.200000 0.000000 0
3.300000 0.000000 0
3.400000 0.000000 0
3.500000 0.000000 0
3.600000 0.000000 0
3.700000 0.000000 0
3.800000 0.000000 0
3.900000 0.000000 0
4.000000 0.000000 0
4.100000 0.000000 0
4.200000 0.000000 0
4.300000 0.000000 0
4.400000 0.000000 0
4.500000 0.000000 0
4.600000 0.000000 0
4.700000 0.000000 0
4.800000 0.000000 0
4.900000 0.000000 0
5.000000 0.000000 0
5.100000 0.000000 0
5.200000 0.000000 0
5.300000 0.000000 0
5.400000 0.000000 0
5.500000 0.000000 0
5.600000 0.000000 0
5.700000 0.000000 0
5.800000 0.000000 0
5.900000 0.000000 0
6.000000 0.000000 0
6.100000 0.000000 0
6.200000 0.000000 0
6.300000 0.000000 0
6.400000 0.000000 0
6.500000 0.000000 0
6.600000 0.000000 0
6.700000 0.000000 0
6.800000 0.000000 0
6.900000 0.000000 0
7.000000 0.000000 0
7.100000 0.000000 0
7.200000 0.000000 0
7.300000 0.000000 0
7.400000 0.000000 0
7.500000 0.000000 0
7.600000 0.000000 0
7.700000 0.000000 0
7.800000 0.000000 0
7.900000 0.000000 0
8.000000 0.000000 0
8.100000 0.000000 0
8.200000 0.000000 0
8.300000 0.000000 0
8.400000 0.000000 0
8.500000 0.000000 0
8.600000 0.000000 0
8.700000 0.000000 0
8.800000 0.000000 0
8.900000 0.000000 0
9.000000 0.000000 0
9.100000 0.000000 0
9.200000 0.000000 0
9.300000 0.000000 0
9.400000 0.000000 0
9.500000 0.000000 0
9.600000 0.000000 0
9.700000 0.000000 0
9.800000 0.000000 0
0.000000 0.100000 0
0.100000 0.100000 0
0.200000 0.100000 0
0.300000 0.100000 0
0.400000 0.100000 0
0.500000 0.100000 0
0.600000 0.100000 0
0.700000 0.100000 0
0.800000 0.100000 0
0.900000 0.100000 0
1.000000 0.100000 0
1.100000 0.100000 0
1.200000 0.100000 0
1.300000 0.100000 0
1.400000 0.100000 0
1.500000 0.100000 0
1.600000 0.100000 0
1.700000 0.100000 0
1.800000 0.100000 0
1.900000 0.100000 0
2.000000 0.100000 0
2.100000 0.100000 0
2.200000 0.100000 0
2.300000 0.100000 0
2.400000 0.100000 0
2.500000 0.100000 0
2.600000 0.100000 0
2.700000 0.100000 0
2.800000 0.100000 0
2.900000 0.100000 0
3.000000 0.100000 0
3.100000 0.100000 0
3.200000 0.100000 0
3.300000 0.100000 0
3.400000 0.100000 0
3.500000 0.100000 0
3.600000 0.100000 0
3.700000 0.100000 0
3.800000 0.100000 0
3.900000 0.100000 0
4.000000 0.100000 0
4.100000 0.100000 0
4.200000 0.100000 0
4.300000 0.100000 0
4.400000 0.100000 0
4.500000 0.100000 0
4.600000 0.100000 0
4.700000 0.100000 0
4.800000 0.100000 0
4.900000 0.100000 0
5.000000 0.100000 0
5.100000 0.100000 0
5.200000 0.100000 0
5.300000 0.100000 0
5.400000 0.100000 0
5.500000 0.100000 0
5.600000 0.100000 0
5.700000 0.100000 0
5.800000 0.100000 0
5.900000 0.100000 0
6.000000 0.100000 0
6.100000 0.100000 0
6.200000 0.100000 0
6.300000 0.100000 0
6.400000 0.100000 0
6.500000 0.100000 0
6.600000 0.100000 0
6.700000 0.100000 0
6.800000 0.100000 0
6.900000 0.100000 0
7.000000 0.100000 0
7.100000 0.100000 0
7.200000 0.100000 0
7.300000 0.100000 0
7.400000 0.100000 0
7.500000 0.100000 0
7.600000 0.100000 0
7.700000 0.100000 0
7.800000 0.100000 0
7.900000 0.100000 0
8.000000 0.100000 0
8.100000 0.100000 0
8.200000 0.100000 0
8.300000 0.100000 0
8.400000 0.100000 0
8.500000 0.100000 0
8.600000 0.100000 0
8.700000 0.100000 0
8.800000 0.100000 0
8.900000 0.100000 0
9.000000 0.100000 0
9.100000 0.100000 0
9.200000 0.100000 0
9.300000 0.100000 0
9.400000 0.100000 0
9.500000 0.100000 0
9.600000 0.100000 0
9.700000 0.100000 0
9.800000 0.100000 0
0.000000 0.200000 0
0.100000 0.200000 0
0.200000 0.200000 0
0.300000 0.200000 0
0.400000 0.200000 0
0.500000 0.200000 0
0.600000 0.200000 0
0.700000 0.200000 0
0.800000 0.200000 0
0.900000 0.200000 0
1.000000 0.200000 0
1.100000 0.200000 0
1.200000 0.200000 0
1.300000 0.200000 0
1.400000 0.200000 0
1.500000 0.200000 0
1.600000 0.200000 0
1.700000 0.200000 0
1.800000 0.200000 0
1.900000 0.200000 0
2.000000 0.200000 0
2.100000 0.200000 0
2.200000 0.200000 0
2.300000 0.200000 0
2.400000 0.200000 0
2.500000 0.200000 0
2.600000 0.200000 0
2.700000 0.200000 0
2.800000 0.200000 0
2.900000 0.200000 0
3.000000 0.200000 0
3.100000 0.200000 0
3.200000 0.200000 0
3.300000 0.200000 0
3.400000 0.200000 0
3.500000 0.200000 0
3.600000 0.200000 0
3.700000 0.200000 0
3.800000 0.200000 0
3.900000 0.200000 0
4.000000 0.200000 0
4.100000 0.200000 0
4.200000 0.200000 0
4.300000 0.200000 0
4.400000 0.200000 0
4.500000 0.200000 0
4.600000 0.200000 0
4.700000 0.200000 0
4.800000 0.200000 0
4.900000 0.200000 0
5.000000 0.200000 0
5.100000 0.200000 0
5.200000 0.200000 0
5.300000 0.200000 0
5.400000 0.200000 0
5.500000 0.200000 0
5.600000 0.200000 0
5.700000 0.200000 0
5.800000 0.200000 0
5.900000 0.200000 0
6.000000 0.200000 0
6.100000 0.200000 0
6.200000 0.200000 0
6.300000 0.200000 0
6.400000 0.200000 0
6.500000 0.200000 0
6.600000 0.200000 0
6.700000 0.200000 0
6.800000 0.200000 0
6.900000 0.200000 0
7.000000 0.200000 0
7.100000 0.200000 0
7.200000 0.200000 0
7.300000 0.200000 0
7.400000 0.200000 0
7.500000 0.200000 0
7.600000 0.200000 0
7.700000 0.200000 0
7.800000 0.200000 0
7.900000 0.200000 0
8.000000 0.200000 0
8.100000 0.200000 0
8.200000 0.200000 0
8.300000 0.200000 0
8.400000 0.200000 0
8.500000 0.200000 0
8.600000 0.200000 0
8.700000 0.200000 0
8.800000 0.200000 0
8.900000 0.200000 0
9.000000 0.200000 0
9.100000 0.200000 0
9.200000 0.200000 0
9.300000 0.200000 0
9.400000 0.200000 0
9.500000 0.200000 0
9.600000 0.200000 0
9.700000 0.200000 0
9.800000 0.200000 0
0.000000 0.300000 0
0.100000 0.300000 0
0.200000 0.300000 0
0.300000 0.300000 0
0.400000 0.300000 0
0.500000 0.300000 0
0.600000 0.300000 0
0.700000 0.300000 0
0.800000 0.300000 0
0.900000 0.300000 0
1.000000 0.300000 0
1.100000 0.300000 0
1.200000 0.300000 0
1.300000 0.300000 0
1.400000 0.300000 0
1.500000 0.300000 0
1.600000 0.300000 0
1.700000 0.300000 0
1.800000 0.300000 0
1.900000 0.300000 0
2.000000 0.300000 0
2.100000 0.300000 0
2.200000 0.300000 0
2.300000 0.300000 0
2.400000 0.300000 0
2.500000 0.300000 0
2.600000 0.300000 0
2.700000 0.300000 0
2.800000 0.300000 0
2.900000 0.300000 0
3.000000 0.300000 0
3.100000 0.300000 0
3.200000 0.300000 0
3.300000 0.300000 0
3.400000 0.300000 0
3.500000 0.300000 0
3.600000 0.300000 0
3.700000 0.300000 0
3.800000 0.300000 0
3.900000 0.300000 0
4.000000 0.300000 0
4.100000 0.300000 0
4.200000 0.300000 0
4.300000 0.300000 0
4.400000 0.300000 0
4.500000 0.300000 0
4.600000 0.300000 0
4.700000 0.300000 0
4.800000 0.300000 0
4.900000 0.300000 0
5.000000 0.300000 0
5.100000 0.300000 0
5.200000 0.300000 0
5.300000 0.300000 0
5.400000 0.300000 0
5.500000 0.300000 0
5.600000 0.300000 0
5.700000 0.300000 0
5.800000 0.300000 0
5.900000 0.300000 0
6.000000 0.300000 0
6.100000 0.300000 0
6.200000 0.300000 0
6.300000 0.300000 0
6.400000 0.300000 0
6.500000 0.300000 0
6.600000 0.300000 0
6.700000 0.300000 0
6.800000 0.300000 0
6.900000 0.300000 0
7.000000 0.300000 0
7.100000 0.300000 0
7.200000 0.300000 0
7.300000 0.300000 0
7.400000 0.300000 0
7.500000 0.300000 0
7.600000 0.300000 0
7.700000 0.300000 0
7.800000 0.300000 0
7.900000 0.300000 0
8.000000 0.300000 0
8.100000 0.300000 0
8.200000 0.300000 0
8.300000 0.300000 0
8.400000 0.300000 0
8.500000 0.300000 0
8.600000 0.300000 0
8.700000 0.300000 0
8.800000 0.300000 0
8.900000 0.300000 0
9.000000 0.300000 0
9.100000 0.300000 0
9.200000 0.300000 0
9.300000 0.300000 0
9.400000 0.300000 0
9.500000 0.300000 0
9.600000 0.300000 0
9.700000 0.300000 0
9.800000 0.300000 0
0.000000 0.400000 0
0.100000 0.400000 0
0.200000 0.400000 0
0.300000 0.400000 0
0.400000 0.400000 0
0.500000 0.400000 0
0.600000 0.400000 0
0.700000 0.400000 0
0.800000 0.400000 0
0.900000 0.400000 0
1.000000 0.400000 0
1.100000 0.400000 0
1.200000 0.400000 0
1.300000 0.400000 0
1.400000 0.400000 0
1.500000 0.400000 0
1.600000 0.400000 0
1.700000 0.400000 0
1.800000 0.400000 0
1.900000 0.400000 0
2.000000 0.400000 0
2.100000 0.400000 0
2.200000 0.400000 0
2.300000 0.400000 0
2.400000 0.400000 0
2.500000 0.400000 0
2.600000 0.400000 0
2.700000 0.400000 0
2.800000 0.400000 0
2.900000 0.400000 0
3.000000 0.400000 0
3.100000 0.400000 0
3.200000 0.400000 0
3.300000 0.400000 0
3.400000 0.400000 0
3.500000 0.400000 0
3.600000 0.400000 0
3.700000 0.400000 0
3.800000 0.400000 0
3.900000 0.400000 0
4.000000 0.400000 0
4.100000 0.400000 0
4.200000 0.400000 0
4.300000 0.400000 0
4.400000 0.400000 0
4.500000 0.400000 0
4.600000 0.400000 0
4.700000 0.400000 0
4.800000 0.400000 0
4.900000 0.400000 0
5.000000 0.400000 0
5.100000 0.400000 0
5.200000 0.400000 0
5.300000 0.400000 0
5.400000 0.400000 0
5.500000 0.400000 0
5.600000 0.400000 0
5.700000 0.400000 0
5.800000 0.400000 0
5.900000 0.400000 0
6.000000 0.400000 0
6.100000 0.400000 0
6.200000 0.400000 0
6.300000 0.400000 0
6.400000 0.400000 0
6.500000 0.400000 0
6.600000 0.400000 0
6.700000 0.400000 0
6.800000 0.400000 0
6.900000 0.400000 0
7.000000 0.400000 0
7.100000 0.400000 0
7.200000 0.400000 0
7.300000 0.400000 0
7.400000 0.400000 0
7.500000 0.400000 0
7.600000 0.400000 0
7.700000 0.400000 0
7.800000 0.400000 0
7.900000 0.400000 0
8.000000 0.400000 0
8.100000 0.400000 0
8.200000 0.400000 0
8.300000 0.400000 0
8.400000 0.400000 0
8.500000 0.400000 0
8.600000 0.400000 0
8.700000 0.400000 0
8.800000 0.400000 0
8.900000 0.400000 0
9.000000 0.400000 0
9.100000 0.400000 0
9.200000 0.400000 0
9.300000 0.400000 0
9.400000 0.400000 0
[...]
POINT_DATA 1881 

VECTORS velocity float
0.500000 0.000000 0
0.502171 0.000000 0
0.507038 0.000000 0
0.515022 0.000000 0
0.526540 0.000000 0
0.541911 0.000000 0
0.561140 0.000000 0
0.583604 0.000000 0
0.607824 0.000000 0
0.631363 0.000000 0
0.652104 0.000000 0
0.668875 0.000000 0
0.681243 0.000000 0
0.689157 0.000000 0
0.692742 0.000000 0
0.692262 0.000000 0
0.688118 0.000000 0
0.680871 0.000000 0
0.671247 0.000000 0
0.660117 0.000000 0
0.648442 0.000000 0
0.637209 0.000000 0
0.627359 0.000000 0
0.619726 0.000000 0
0.614996 0.000000 0
0.613680 0.000000 0
0.615971 0.000000 0
0.621443 0.000000 0
0.628965 0.000000 0
0.636821 0.000000 0
0.643137 0.000000 0
0.646444 0.000000 0
0.646009 0.000000 0
0.641661 0.000000 0
0.633662 0.000000 0
0.622549 0.000000 0
0.608997 0.000000 0
0.593734 0.000000 0
0.577495 0.000000 0
0.561008 0.000000 0
0.544995 0.000000 0
0.530179 0.000000 0
0.517309 0.000000 0
0.507180 0.000000 0
0.500666 0.000000 0
0.498650 0.000000 0
0.501659 0.000000 0
0.509718 0.000000 0
0.522440 0.000000 0
0.539012 0.000000 0
0.558181 0.000000 0
0.578253 0.000000 0
0.597158 0.000000 0
0.612658 0.000000 0
0.622824 0.000000 0
0.626647 0.000000 0
0.624192 0.000000 0
0.616007 0.000000 0
0.602941 0.000000 0
0.586093 0.000000 0
0.566713 0.000000 0
0.546113 0.000000 0
0.525586 0.000000 0
0.506367 0.000000 0
0.489601 0.000000 0
0.476306 0.000000 0
0.467305 0.000000 0
0.463089 0.000000 0
0.463586 0.000000 0
0.468066 0.000000 0
0.475732 0.000000 0
0.485930 0.000000 0
0.498169 0.000000 0
0.512061 0.000000 0
0.527208 0.000000 0
0.543057 0.000000 0
0.558765 0.000000 0
0.573144 0.000000 0
0.584752 0.000000 0
0.592196 0.000000 0
0.594565 0.000000 0
0.591635 0.000000 0
0.583550 0.000000 0
0.570752 0.000000 0
0.554052 0.000000 0
0.534660 0.000000 0
0.514175 0.000000 0
0.494477 0.000000 0
0.477477 0.000000 0
0.464762 0.000000 0
0.457254 0.000000 0
0.455016 0.000000 0
0.457157 0.000000 0
0.462397 0.000000 0
0.469730 0.000000 0
0.478514 0.000000 0
0.488423 0.000000 0
0.499399 0.000000 0
0.511680 0.000000 0
1.000000 -0.002193 0
1.004898 -0.007074 0
1.015259 -0.012874 0
1.031840 -0.019521 0
1.055570 -0.026903 0
1.087286 -0.034597 0
1.127281 -0.041674 0
1.174544 -0.046663 0
1.226197 -0.047743 0
1.276077 -0.044278 0
1.319407 -0.037514 0
1.354069 -0.029132 0
1.379585 -0.020277 0
1.396101 -0.011498 0
1.403903 -0.003106 0
1.403467 0.004618 0
1.395551 0.011381 0
1.381266 0.016859 0
1.362096 0.020739 0
1.339836 0.022788 0
1.316476 0.022889 0
1.294056 0.021063 0
1.274519 0.017463 0
1.259568 0.012347 0
1.250584 0.006030 0
1.248608 -0.000982 0
1.254110 -0.007757 0
1.266472 -0.012983 0
1.283520 -0.015359 0
1.301653 -0.014149 0
1.316737 -0.009602 0
1.325394 -0.002855 0
1.325904 0.004792 0
1.318071 0.012348 0
1.302616 0.019114 0
1.280776 0.024668 0
1.254016 0.028815 0
1.223851 0.031500 0
1.191777 0.032723 0
1.159253 0.032496 0
1.127715 0.030822 0
1.098595 0.027677 0
1.073325 0.022990 0
1.053312 0.016633 0
1.039879 0.008519 0
1.034162 -0.001005 0
1.037037 -0.011079 0
1.048943 -0.020791 0
1.069665 -0.029304 0
1.098205 -0.035748 0
1.132771 -0.039243 0
1.170784 -0.038976 0
1.208827 -0.034400 0
1.242768 -0.025659 0
1.268311 -0.013981 0
1.282016 -0.001360 0
1.282511 0.010647 0
1.270752 0.021255 0
1.248577 0.029914 0
1.218306 0.036224 0
1.182529 0.039975 0
1.143923 0.041121 0
1.105095 0.039738 0
1.068474 0.035977 0
1.036197 0.030053 0
1.009970 0.022287 0
0.990891 0.013209 0
0.979323 0.003711 0
0.974978 -0.004986 0
0.977166 -0.012155 0
0.984993 -0.017873 0
0.997681 -0.022446 0
1.014664 -0.026140 0
1.035556 -0.029047 0
1.059977 -0.031003 0
1.087266 -0.031562 0
1.116188 -0.030089 0
1.144792 -0.025988 0
1.170477 -0.019053 0
1.190290 -0.009813 0
1.201471 0.000560 0
1.202302 0.011012 0
1.192818 0.020879 0
1.173998 0.029493 0
1.147529 0.036085 0
1.115759 0.039869 0
1.081570 0.040175 0
1.048117 0.036689 0
1.018390 0.029706 0
0.994686 0.020215 0
0.978206 0.009739 0
0.968994 0.000090 0
0.966316 -0.007387 0
0.969011 -0.012578 0
0.975857 -0.016121 0
0.985953 -0.018696 0
0.998822 -0.020887 0
1.014372 -0.023257 0
1.032966 -0.024466 0
1.000000 -0.004932 0
1.005049 -0.015307 0
1.015400 -0.026968 0
1.031854 -0.040329 0
1.055671 -0.055448 0
1.088352 -0.071694 0
1.131184 -0.087232 0
1.184109 -0.098896 0
1.245289 -0.101527 0
1.302545 -0.093217 0
1.349471 -0.077989 0
1.385304 -0.060166 0
1.411124 -0.042027 0
1.427845 -0.024318 0
1.435759 -0.007371 0
1.435141 0.008342 0
1.426596 0.022188 0
1.411201 0.033438 0
1.390522 0.041410 0
1.366497 0.045598 0
1.341300 0.045757 0
1.317161 0.041933 0
1.296183 0.034467 0
1.280152 0.023915 0
1.270470 0.010950 0
1.268310 -0.003522 0
1.274678 -0.017850 0
1.289584 -0.029388 0
1.311029 -0.035155 0
1.334868 -0.033190 0
1.355756 -0.023719 0
1.368943 -0.009156 0
1.372129 0.007323 0
1.365641 0.023288 0
1.350780 0.037298 0
1.329223 0.048602 0
1.302695 0.056924 0
1.272807 0.062235 0
1.241041 0.064593 0
1.208782 0.064055 0
1.177357 0.060648 0
1.148054 0.054379 0
1.122092 0.045271 0
1.100542 0.033432 0
1.084211 0.019136 0
1.073601 0.002828 0
1.069238 -0.014794 0
1.071803 -0.032641 0
1.081703 -0.049271 0
1.098972 -0.063109 0
1.123347 -0.072579 0
1.154115 -0.076051 0
1.189600 -0.071975 0
1.226755 -0.059474 0
1.261154 -0.039238 0
1.287546 -0.014191 0
1.301429 0.011268 0
1.301756 0.033933 0
1.290323 0.052442 0
1.269483 0.066041 0
1.241831 0.074375 0
1.210004 0.077425 0
1.176515 0.075439 0
1.143611 0.068888 0
1.113124 0.058494 0
1.086327 0.045296 0
1.063849 0.030637 0
1.045726 0.015902 0
1.031732 0.002146 0
1.021780 -0.010027 0
1.015744 -0.020526 0
1.013671 -0.029682 0
1.015906 -0.037886 0
1.023026 -0.045322 0
1.035616 -0.051716 0
1.053826 -0.056216 0
1.077033 -0.057529 0
1.103771 -0.054289 0
1.131844 -0.045498 0
1.158464 -0.030996 0
1.180402 -0.012015 0
1.194550 0.008648 0
1.199313 0.028296 0
1.195223 0.045279 0
1.183608 0.058229 0
1.166302 0.065949 0
1.145374 0.067631 0
1.122844 0.063169 0
1.100411 0.053420 0
1.079305 0.040174 0
1.060278 0.025683 0
1.043757 0.011882 0
1.030198 -0.000024 0
1.019943 -0.009547 0
1.012999 -0.016947 0
1.009337 -0.022968 0
1.009093 -0.028420 0
1.012490 -0.034144 0
1.019750 -0.037600 0
1.000000 -0.007265 0
1.004067 -0.022497 0
1.012690 -0.039681 0
1.026917 -0.059785 0
1.048543 -0.083378 0
1.080190 -0.110088 0
1.125187 -0.137423 0
1.185950 -0.160775 0
1.266417 -0.166197 0
1.333884 -0.148460 0
1.381714 -0.120259 0
1.414714 -0.090781 0
1.437636 -0.062821 0
1.452695 -0.036138 0
1.459651 -0.010409 0
1.457733 0.013773 0
1.447014 0.035311 0
1.428478 0.052924 0
1.403849 0.065434 0
1.375334 0.072001 0
1.345423 0.072218 0
1.316701 0.066174 0
1.291587 0.054468 0
1.272007 0.038061 0
1.259183 0.017886 0
1.253967 -0.005172 0
1.257934 -0.029015 0
1.272386 -0.049316 0
1.296249 -0.060630 0
1.325757 -0.058873 0
1.354813 -0.043682 0
1.376260 -0.019242 0
1.384937 0.008084 0
1.380946 0.033699 0
1.366843 0.055533 0
1.345243 0.072750 0
1.318386 0.085228 0
1.288075 0.093150 0
1.255777 0.096743 0
1.222752 0.096174 0
1.190151 0.091544 0
1.159056 0.082937 0
1.130464 0.070497 0
1.105221 0.054509 0
1.083885 0.035455 0
1.066546 0.013963 0
1.052811 -0.009285 0
1.042467 -0.033257 0
1.036565 -0.056470 0
1.036878 -0.077386 0
1.045543 -0.094380 0
1.064129 -0.105221 0
1.092495 -0.107032 0
1.128479 -0.097208 0
1.168162 -0.074770 0
1.206263 -0.041637 0
1.236680 -0.003569 0
1.254221 0.032352 0
1.258664 0.062180 0
1.252038 0.084711 0
1.236680 0.099448 0
1.214991 0.106432 0
1.189252 0.106127 0
1.161484 0.099365 0
1.133340 0.087333 0
1.106044 0.071558 0
1.080389 0.053806 0
1.056748 0.035824 0
1.035091 0.018955 0
1.015146 0.003828 0
0.996919 -0.009768 0
0.981130 -0.022612 0
0.969577 -0.035497 0
0.964472 -0.048758 0
0.967372 -0.061803 0
0.978577 -0.072978 0
0.997162 -0.080032 0
1.021386 -0.080798 0
1.049106 -0.073747 0
1.078032 -0.058374 0
1.105799 -0.035531 0
1.129784 -0.007904 0
1.147108 0.020200 0
1.156637 0.045190 0
1.158831 0.065000 0
1.154635 0.078098 0
1.145204 0.083628 0
1.131677 0.081648 0
1.115076 0.073241 0
1.096337 0.060345 0
1.076398 0.045283 0
1.056179 0.030168 0
1.036431 0.016426 0
1.017824 0.004619 0
1.001109 -0.005515 0
0.987128 -0.014790 0
0.976914 -0.024041 0
0.971472 -0.033913 0
0.971360 -0.040386 0
1.000000 -0.009017 0
1.002651 -0.028015 0
1.008477 -0.049814 0
1.018638 -0.076167 0
1.035351 -0.108702 0
1.062518 -0.148328 0
1.106624 -0.192996 0
1.175629 -0.240138 0
1.293233 -0.249462 0
1.365255 -0.208498 0
1.400900 -0.158812 0
1.420561 -0.116092 0
1.434341 -0.080013 0
1.445815 -0.046340 0
1.453045 -0.012417 0
1.451421 0.020971 0
1.439486 0.051435 0
1.418139 0.076596 0
1.389379 0.094545 0
1.355707 0.104016 0
1.319952 0.104385 0
1.285179 0.095766 0
1.254348 0.079162 0
1.229614 0.056331 0
1.211563 0.029004 0
1.199355 -0.002258 0
1.192871 -0.036252 0
1.196098 -0.067692 0
1.211373 -0.088522 0
1.238652 -0.091758 0
1.274377 -0.074234 0
1.310488 -0.039291 0
1.336132 0.002639 0
1.344356 0.041385 0
1.338473 0.072998 0
1.322594 0.097056 0
1.299834 0.114087 0
1.272406 0.124840 0
1.241939 0.129912 0
1.209728 0.129676 0
1.176896 0.124339 0
1.144457 0.114061 0
1.113299 0.099101 0
1.084049 0.080007 0
1.056750 0.057807 0
1.030468 0.033898 0
1.003545 0.009284 0
0.975226 -0.016392 0
0.948089 -0.043678 0
0.928686 -0.072082 0
0.922767 -0.099822 0
0.932172 -0.122996 0
0.955568 -0.136320 0
0.990006 -0.135138 0
1.031787 -0.117023 0
1.076679 -0.082714 0
1.119743 -0.036697 0
1.154806 0.011943 0
1.177106 0.054620 0
1.187213 0.088020 0
1.186845 0.111417 0
1.177959 0.124850 0
1.162509 0.128943 0
1.142291 0.124796 0
1.118833 0.113929 0
1.093290 0.098244 0
1.066339 0.079929 0
1.038147 0.061196 0
1.008658 0.043743 0
0.978285 0.028140 0
0.948651 0.013487 0
0.922582 -0.002343 0
0.903269 -0.021229 0
0.893341 -0.043116 0
0.893713 -0.065820 0
0.903509 -0.086004 0
0.920929 -0.100337 0
0.943958 -0.106233 0
0.970665 -0.102146 0
0.999280 -0.087694 0
1.028160 -0.063772 0
1.055660 -0.032666 0
1.079681 0.001437 0
1.097771 0.033551 0
1.109287 0.060227 0
1.114342 0.079571 0
1.113326 0.090584 0
1.106740 0.093293 0
1.095136 0.088757 0
1.079146 0.078848 0
1.059510 0.065838 0
1.037114 0.051847 0
1.013051 0.038330 0
0.988734 0.025773 0
0.965954 0.013748 0
0.946652 0.001226 0
0.932486 -0.012764 0
0.924580 -0.028589 0
0.923658 -0.039433 0
1.000000 -0.009928 0
1.000714 -0.030986 0
1.002495 -0.055658 0
1.006213 -0.086641 0
1.013846 -0.127245 0
1.029745 -0.181359 0
1.063342 -0.250542 0
1.132094 -0.347387 0
1.306524 -0.355810 0
1.349156 -0.256119 0
1.340932 -0.175568 0
1.329358 -0.124228 0
1.323672 -0.088081 0
1.327769 -0.054848 0
1.338856 -0.016021 0
1.344008 0.027324 0
1.336537 0.068586 0
1.317573 0.103024 0
1.289339 0.127859 0
1.254180 0.141423 0
1.214752 0.142744 0
1.174395 0.131778 0
1.136835 0.110041 0
1.104478 0.080861 0
1.076259 0.048159 0
1.048680 0.013534 0
1.019982 -0.025746 0
0.995386 -0.067812 0
0.988262 -0.103186 0
1.005070 -0.121886 0
1.043786 -0.115530 0
1.096616 -0.080997 0
1.151221 -0.025780 0
1.192651 0.031357 0
1.213636 0.077292 0
1.219392 0.111384 0
1.214006 0.135412 0
1.200202 0.151041 0
1.179961 0.159417 0
1.154897 0.161212 0
1.126373 0.156810 0
1.095403 0.146529 0
1.062266 0.130901 0
1.026030 0.111054 0
0.984843 0.089032 0
0.937926 0.067166 0
0.888204 0.045959 0
0.842420 0.022202 0
0.807790 -0.009925 0
0.789267 -0.052057 0
0.787756 -0.097859 0
0.800849 -0.138017 0
0.825548 -0.164863 0
0.859336 -0.173427 0
0.899964 -0.161447 0
0.944992 -0.129600 0
0.991503 -0.081703 0
1.035706 -0.025016 0
1.071620 0.029770 0
1.096035 0.074968 0
1.109521 0.108697 0
1.113208 0.130764 0
1.108439 0.141792 0
1.096519 0.143038 0
1.078514 0.136330 0
1.055075 0.124047 0
1.026422 0.108945 0
0.992757 0.093501 0
0.955173 0.078812 0
0.916515 0.063831 0
0.881262 0.045933 0
0.854050 0.022769 0
0.837632 -0.006255 0
0.832253 -0.039201 0
0.836388 -0.071971 0
0.847914 -0.100194 0
0.864962 -0.120481 0
0.886100 -0.130535 0
0.910185 -0.129073 0
0.936166 -0.115874 0
0.962992 -0.091916 0
0.989569 -0.059430 0
1.014677 -0.021917 0
1.036292 0.015579 0
1.052614 0.048424 0
1.063053 0.074055 0
1.067366 0.091227 0
1.065503 0.099834 0
1.057558 0.100831 0
1.043790 0.095967 0
1.024728 0.087311 0
1.001352 0.076624 0
0.975283 0.064804 0
0.948808 0.051714 0
0.924614 0.036566 0
0.905215 0.018678 0
0.892241 -0.001969 0
0.886170 -0.025084 0
0.887125 -0.040760 0
1.000000 -0.009739 0
0.998399 -0.030514 0
0.995149 -0.055298 0
0.990233 -0.087501 0
0.984107 -0.132227 0
0.978904 -0.197826 0
0.982009 -0.295348 0
1.015470 -0.483314 0
1.207791 -0.466516 0
1.153088 -0.242905 0
1.059980 -0.139018 0
1.008024 -0.098837 0
0.975804 -0.078428 0
0.968663 -0.061530 0
0.988347 -0.028662 0
1.018576 0.023284 0
1.033286 0.077863 0
1.033941 0.123786 0
1.021764 0.157933 0
0.996724 0.178602 0
0.958795 0.184169 0
0.908397 0.173689 0
0.846917 0.149092 0
0.778665 0.116920 0
0.712539 0.084816 0
0.659762 0.054031 0
0.628794 0.017049 0
0.621230 -0.035972 0
0.635555 -0.098212 0
0.669963 -0.147293 0
0.722084 -0.165785 0
0.788679 -0.146721 0
0.864632 -0.093397 0
0.940213 -0.021034 0
1.000145 0.046254 0
1.038755 0.096681 0
1.060801 0.133274 0
1.069335 0.158881 0
1.066479 0.175212 0
1.053900 0.183259 0
1.032723 0.183828 0
1.003171 0.178164 0
0.964368 0.168469 0
0.915125 0.157426 0
0.856337 0.145908 0
0.793736 0.130538 0
0.737775 0.104793 0
0.699045 0.064027 0
0.682348 0.009482 0
0.683945 -0.052041 0
0.696626 -0.111399 0
0.715711 -0.160785 0
0.739633 -0.194806 0
0.768530 -0.209557 0
0.802756 -0.202686 0
0.841875 -0.174260 0
0.884364 -0.127415 0
0.927810 -0.068178 0
0.968611 -0.005713 0
1.001247 0.050115 0
1.024065 0.094241 0
1.037095 0.125928 0
1.040780 0.145628 0
1.035629 0.154717 0
1.021987 0.155369 0
1.000011 0.150331 0
0.970087 0.142242 0
0.933721 0.132440 0
0.894341 0.119981 0
0.857052 0.102049 0
0.827028 0.075950 0
0.807564 0.041286 0
0.799218 0.000568 0
0.800071 -0.041871 0
0.807309 -0.081481 0
0.818798 -0.114578 0
0.833330 -0.138523 0
0.850360 -0.151458 0
0.869625 -0.152217 0
0.890816 -0.140507 0
0.913394 -0.117180 0
0.936579 -0.084356 0
0.959410 -0.045291 0
0.980655 -0.004391 0
0.998246 0.033461 0
1.010929 0.064815 0
1.017960 0.088129 0
1.018860 0.103096 0
1.013382 0.110465 0
1.001611 0.111675 0
0.984152 0.108272 0
0.962343 0.101290 0
0.938303 0.090873 0
0.914657 0.076440 0
0.893982 0.057340 0
0.878220 0.033600 0
0.868375 0.006281 0
0.864459 -0.023473 0
0.866026 -0.043230 0
1.000000 -0.008331 0
0.996124 -0.026130 0
0.987785 -0.047476 0
0.973657 -0.075587 0
0.951435 -0.115912 0
0.917450 -0.179264 0
0.866112 -0.287108 0
0.793767 -0.573163 0
0.554998 -0.395317 0
0.493134 0.000000 0
0.420401 -0.020307 0
0.353756 -0.040058 0
0.349699 -0.048726 0
0.384735 -0.067396 0
0.433541 -0.065939 0
0.497068 -0.017620 0
0.555596 0.053216 0
0.591822 0.114541 0
0.607732 0.165074 0
0.600653 0.204391 0
0.568547 0.231074 0
0.512963 0.243668 0
0.440469 0.239786 0
0.364497 0.215251 0
0.303682 0.167075 0
0.274747 0.097288 0
0.284073 0.012789 0
0.321885 -0.074577 0
0.370454 -0.151929 0
0.422161 -0.208422 0
0.477898 -0.234244 0
0.541127 -0.223544 0
0.613798 -0.177316 0
0.694292 -0.104160 0
0.774144 -0.021254 0
0.838515 0.050724 0
0.883296 0.104827 0
0.911157 0.145359 0
0.923594 0.174847 0
0.921505 0.194964 0
0.905176 0.207535 0
0.874466 0.214880 0
0.829941 0.218943 0
0.775126 0.219081 0
0.718236 0.210420 0
0.670513 0.185730 0
0.640947 0.140654 0
0.631852 0.077635 0
0.639124 0.005181 0
0.654916 -0.066329 0
0.672501 -0.129621 0
0.689271 -0.181022 0
0.705599 -0.217684 0
0.723568 -0.236555 0
0.745678 -0.234799 0
0.773515 -0.211213 0
0.806903 -0.167642 0
0.844010 -0.109268 0
0.882051 -0.043671 0
0.916651 0.019511 0
0.943637 0.072846 0
0.961791 0.114045 0
0.970604 0.143254 0
0.969825 0.161827 0
0.959352 0.171943 0
0.939534 0.175943 0
0.911855 0.175231 0
0.879564 0.169243 0
0.847480 0.155478 0
0.820600 0.131142 0
0.802269 0.095420 0
0.793260 0.050578 0
0.792272 0.001237 0
0.796944 -0.047291 0
0.804828 -0.090697 0
0.814304 -0.126214 0
0.824673 -0.152045 0
0.835972 -0.166834 0
0.848650 -0.169533 0
0.863162 -0.159649 0
0.879606 -0.137684 0
0.897582 -0.105450 0
0.916269 -0.065997 0
0.934590 -0.023262 0
0.950936 0.018146 0
0.963574 0.054336 0
0.971417 0.083292 0
0.973730 0.104408 0
0.970137 0.118076 0
0.960767 0.125194 0
0.946444 0.126575 0
0.928759 0.122470 0
0.909898 0.112488 0
0.892169 0.096034 0
0.877459 0.073003 0
0.866863 0.044285 0
0.860673 0.011792 0
0.858571 -0.022735 0
0.859859 -0.045321 0
1.000000 -0.005861 0
0.994472 -0.018289 0
0.982406 -0.032816 0
0.961426 -0.051143 0
0.926881 -0.076019 0
0.869712 -0.112505 0
0.770478 -0.171663 0
0.586869 -0.270303 0
0.000000 -0.165881 0
0.000000 0.000000 0
0.000000 0.000000 0
-0.030865 -0.038698 0
-0.050811 -0.109412 0
-0.018319 -0.145376 0
0.000181 -0.141000 0
0.035193 -0.098775 0
0.099726 -0.016895 0
0.163674 0.071649 0
0.205114 0.149101 0
0.218341 0.217787 0
0.204324 0.271867 0
0.174440 0.301779 0
0.144247 0.297571 0
0.129444 0.253720 0
0.139975 0.174577 0
0.175443 0.073646 0
0.224035 -0.030090 0
0.271042 -0.122360 0
0.311136 -0.198497 0
0.344638 -0.254738 0
0.376366 -0.284749 0
0.413339 -0.282624 0
0.461279 -0.246565 0
0.521775 -0.181382 0
0.591616 -0.097974 0
0.660942 -0.012476 0
0.716181 0.060627 0
0.754123 0.118577 0
0.775036 0.164859 0
0.779036 0.201672 0
0.766501 0.230864 0
0.739149 0.253396 0
0.701594 0.267806 0
0.662186 0.269129 0
0.631231 0.250523 0
0.616587 0.207830 0
0.619939 0.143459 0
0.637047 0.065856 0
0.660775 -0.013576 0
0.683433 -0.085412 0
0.701218 -0.145751 0
0.712956 -0.193884 0
0.719559 -0.229107 0
0.723813 -0.249642 0
0.729747 -0.252638 0
0.741222 -0.235488 0
0.760272 -0.197914 0
0.786308 -0.143331 0
0.816667 -0.078358 0
0.847693 -0.011474 0
0.874362 0.049097 0
0.893877 0.098957 0
0.904932 0.137590 0
0.906845 0.165965 0
0.899583 0.185656 0
0.884189 0.197824 0
0.863234 0.202209 0
0.840738 0.196811 0
0.821156 0.178942 0
0.807811 0.147259 0
0.801862 0.103289 0
0.802475 0.051283 0
0.807767 -0.003115 0
0.815462 -0.054426 0
0.823621 -0.098841 0
0.830984 -0.134424 0
0.837062 -0.160193 0
0.842160 -0.175439 0
0.847241 -0.179412 0
0.853532 -0.171469 0
0.861990 -0.151605 0
0.872889 -0.121023 0
0.885743 -0.082303 0
0.899514 -0.039062 0
0.912833 0.004472 0
0.923906 0.044329 0
0.931432 0.077969 0
0.934567 0.104372 0
0.932948 0.123424 0
0.926820 0.135364 0
0.917116 0.140277 0
0.905375 0.137833 0
0.893415 0.127461 0
0.882864 0.108877 0
0.874790 0.082645 0
0.869583 0.050385 0
0.867085 0.014574 0
0.866790 -0.022659 0
0.867857 -0.046772 0
1.000000 -0.002795 0
0.993897 -0.008521 0
0.980603 -0.014418 0
0.957646 -0.020056 0
0.920322 -0.024198 0
0.859806 -0.022861 0
0.759426 -0.004261 0
0.585639 0.094144 0
0.271561 0.088378 0
0.000000 0.000000 0
0.000000 0.000000 0
0.000000 0.000000 0
-0.038892 -0.061469 0
-0.113894 -0.118393 0
-0.172153 -0.119456 0
-0.190375 -0.117168 0
-0.161025 -0.075268 0
-0.098924 0.009151 0
-0.039541 0.110408 0
-0.000082 0.205186 0
0.023818 0.274985 0
0.045160 0.303756 0
0.076680 0.284794 0
0.126513 0.219535 0
0.194321 0.121085 0
0.267609 0.013232 0
0.327282 -0.082813 0
0.369127 -0.161685 0
0.393691 -0.225530 0
0.403055 -0.273651 0
0.402703 -0.302946 0
0.401652 -0.308461 0
0.409939 -0.285756 0
0.434382 -0.234501 0
0.475538 -0.160426 0
0.527827 -0.073845 0
0.579629 0.011641 0
0.619629 0.086499 0
0.644898 0.149929 0
0.654980 0.203494 0
0.651220 0.247418 0
0.637602 0.279784 0
0.621071 0.295904 0
0.610198 0.289445 0
0.611938 0.256021 0
0.628501 0.197026 0
0.657002 0.120199 0
0.691738 0.036804 0
0.724946 -0.041198 0
0.751184 -0.106767 0
0.768475 -0.159143 0
0.776089 -0.199365 0
0.774550 -0.228545 0
0.766134 -0.246749 0
0.755106 -0.252212 0
0.746972 -0.241742 0
0.746542 -0.212733 0
0.755868 -0.165666 0
0.773613 -0.105060 0
0.796157 -0.038188 0
0.818706 0.026657 0
0.836941 0.083471 0
0.848753 0.130282 0
0.853251 0.167170 0
0.850685 0.194595 0
0.842649 0.212289 0
0.832044 0.218678 0
0.822421 0.211317 0
0.816773 0.188403 0
0.816518 0.150435 0
0.821350 0.100757 0
0.829881 0.044674 0
0.840339 -0.011750 0
0.850684 -0.063145 0
0.859353 -0.106218 0
0.865240 -0.139656 0
0.867805 -0.163224 0
0.867281 -0.177018 0
0.864780 -0.180910 0
0.862089 -0.174402 0
0.861087 -0.157046 0
0.863056 -0.129207 0
0.868261 -0.092626 0
0.876009 -0.050356 0