# vtk DataFile Version 2.0
generated by CFD-lab course output (written by Tobias Neckel) 
ASCII

DATASET STRUCTURED_GRID
DIMENSIONS  99 19 1 
POINTS 1881 float

0.000000 0.000000 0
0.100000 0.000000 0
0.200000 0.000000 0
0.300000 0.000000 0
0.400000 0.000000 0
0.500000 0.000000 0
0.600000 0.000000 0
0.700000 0.000000 0
0.800000 0.000000 0
0.900000 0.000000 0
1.000000 0.000000 0
1.100000 0.000000 0
1.200000 0.000000 0
1.300000 0.000000 0
1.400000 0.000000 0
1.500000 0.000000 0
1.600000 0.000000 0
1.700000 0.000000 0
1.800000 0.000000 0
1.900000 0.000000 0
2.000000 0.000000 0
2.100000 0.000000 0
2.200000 0.000000 0
2.300000 0.000000 0
2.400000 0.000000 0
2.500000 0.000000 0
2.600000 0.000000 0
2.700000 0.000000 0
2.800000 0.000000 0
2.900000 0.000000 0
3.000000 0.000000 0
3.100000 0.000000 0
3.200000 0.000000 0
3.300000 0.000000 0
3.400000 0.000000 0
3.500000 0.000000 0
3.600000 0.000000 0
3.700000 0.000000 0
3.800000 0.000000 0
3.900000 0.000000 0
4.000000 0.000000 0
4.100000 0.000000 0
4.200000 0.000000 0
4.300000 0.000000 0
4.400000 0.000000 0
4.500000 0.000000 0
4.600000 0.000000 0
4.700000 0.000000 0
4.800000 0.000000 0
4.900000 0.000000 0
5.000000 0.000000 0
5.100000 0.000000 0
5.200000 0.000000 0
5.300000 0.000000 0
5.400000 0.000000 0
5.500000 0.000000 0
5.600000 0.000000 0
5.700000 0.000000 0
5.800000 0.000000 0
5.900000 0.000000 0
6.000000 0.000000 0
6.100000 0.000000 0
6.200000 0.000000 0
6.300000 0.000000 0
6.400000 0.000000 0
6.500000 0.000000 0
6.600000 0.000000 0
6.700000 0.000000 0
6.800000 0.000000 0
6.900000 0.000000 0
7.000000 0.000000 0
7.100000 0.000000 0
7.200000 0.000000 0
7.300000 0.000000 0
7.400000 0.000000 0
7.500000 0.000000 0
7.600000 0.000000 0
7.700000 0.000000 0
7.800000 0.000000 0
7.900000 0.000000 0
8.000000 0.000000 0
8.100000 0.000000 0
8.200000 0.000000 0
8.300000 0.000000 0
8.400000 0.000000 0
8.500000 0.000000 0
8.600000 0.000000 0
8.700000 0.000000 0
8.800000 0.000000 0
8.900000 0.000000 0
9.000000 0.000000 0
9.100000 0.000000 0
9.200000 0.000000 0
9.300000 0.000000 0
9.400000 0.000000 0
9.500000 0.000000 0
9.600000 0.000000 0
9.700000 0.000000 0
9.800000 0.000000 0
0.000000 0.100000 0
0.100000 0.100000 0
0.200000 0.100000 0
0.300000 0.100000 0
0.400000 0.100000 0
0.500000 0.100000 0
0.600000 0.100000 0
0.700000 0.100000 0
0.800000 0.100000 0
0.900000 0.100000 0
1.000000 0.100000 0
1.100000 0.100000 0
1.200000 0.100000 0
1.300000 0.100000 0
1.400000 0.100000 0
1.500000 0.100000 0
1.600000 0.100000 0
1.700000 0.100000 0
1.800000 0.100000 0
1.900000 0.100000 0
2.000000 0.100000 0
2.100000 0.100000 0
2.200000 0.100000 0
2.300000 0.100000 0
2.400000 0.100000 0
2.500000 0.100000 0
2.600000 0.100000 0
2.700000 0.100000 0
2.800000 0.100000 0
2.900000 0.100000 0
3.000000 0.100000 0
3.100000 0.100000 0
3.200000 0.100000 0
3.300000 0.100000 0
3.400000 0.100000 0
3.500000 0.100000 0
3.600000 0.100000 0
3.700000 0.100000 0
3.800000 0.100000 0
3.900000 0.100000 0
4.000000 0.100000 0
4.100000 0.100000 0
4.200000 0.100000 0
4.300000 0.100000 0
4.400000 0.100000 0
4.500000 0.100000 0
4.600000 0.100000 0
4.700000 0.100000 0
4.800000 0.100000 0
4.900000 0.100000 0
5.000000 0.100000 0
5.100000 0.100000 0
5.200000 0.100000 0
5.300000 0.100000 0
5.400000 0.100000 0
5.500000 0.100000 0
5.600000 0.100000 0
5.700000 0.100000 0
5.800000 0.100000 0
5.900000 0.100000 0
6.000000 0.100000 0
6.100000 0.100000 0
6.200000 0.100000 0
6.300000 0.100000 0
6.400000 0.100000 0
6.500000 0.100000 0
6.600000 0.100000 0
6.700000 0.100000 0
6.800000 0.100000 0
6.900000 0.100000 0
7.000000 0.100000 0
7.100000 0.100000 0
7.200000 0.100000 0
7.300000 0.100000 0
7.400000 0.100000 0
7.500000 0.100000 0
7.600000 0.100000 0
7.700000 0.100000 0
7.800000 0.100000 0
7.900000 0.100000 0
8.000000 0.100000 0
8.100000 0.100000 0
8.200000 0.100000 0
8.300000 0.100000 0
8.400000 0.100000 0
8.500000 0.100000 0
8.600000 0.100000 0
8.700000 0.100000 0
8.800000 0.100000 0
8.900000 0.100000 0
9.000000 0.100000 0
9.100000 0.100000 0
9.200000 0.100000 0
9.300000 0.100000 0
9.400000 0.100000 0
9.500000 0.100000 0
9.600000 0.100000 0
9.700000 0.100000 0
9.800000 0.100000 0
0.000000 0.200000 0
0.100000 0.200000 0
0.200000 0.200000 0
0.300000 0.200000 0
0.400000 0.200000 0
0.500000 0.200000 0
0.600000 0.200000 0
0.700000 0.200000 0
0.800000 0.200000 0
0.900000 0.200000 0
1.000000 0.200000 0
1.100000 0.200000 0
1.200000 0.200000 0
1.300000 0.200000 0
1.400000 0.200000 0
1.500000 0.200000 0
1.600000 0.200000 0
1.700000 0.200000 0
1.800000 0.200000 0
1.900000 0.200000 0
2.000000 0.200000 0
2.100000 0.200000 0
2.200000 0.200000 0
2.300000 0.200000 0
2.400000 0.200000 0
2.500000 0.200000 0
2.600000 0.200000 0
2.700000 0.200000 0
2.800000 0.200000 0
2.900000 0.200000 0
3.000000 0.200000 0
3.100000 0.200000 0
3.200000 0.200000 0
3.300000 0.200000 0
3.400000 0.200000 0
3.500000 0.200000 0
3.600000 0.200000 0
3.700000 0.200000 0
3.800000 0.200000 0
3.900000 0.200000 0
4.000000 0.200000 0
4.100000 0.200000 0
4.200000 0.200000 0
4.300000 0.200000 0
4.400000 0.200000 0
4.500000 0.200000 0
4.600000 0.200000 0
4.700000 0.200000 0
4.800000 0.200000 0
4.900000 0.200000 0
5.000000 0.200000 0
5.100000 0.200000 0
5.200000 0.200000 0
5.300000 0.200000 0
5.400000 0.200000 0
5.500000 0.200000 0
5.600000 0.200000 0
5.700000 0.200000 0
5.800000 0.200000 0
5.900000 0.200000 0
6.000000 0.200000 0
6.100000 0.200000 0
6.200000 0.200000 0
6.300000 0.200000 0
6.400000 0.200000 0
6.500000 0.200000 0
6.600000 0.200000 0
6.700000 0.200000 0
6.800000 0.200000 0
6.900000 0.200000 0
7.000000 0.200000 0
7.100000 0.200000 0
7.200000 0.200000 0
7.300000 0.200000 0
7.400000 0.200000 0
7.500000 0.200000 0
7.600000 0.200000 0
7.700000 0.200000 0
7.800000 0.200000 0
7.900000 0.200000 0
8.000000 0.200000 0
8.100000 0.200000 0
8.200000 0.200000 0
8.300000 0.200000 0
8.400000 0.200000 0
8.500000 0.200000 0
8.600000 0.200000 0
8.700000 0.200000 0
8.800000 0.200000 0
8.900000 0.200000 0
9.000000 0.200000 0
9.100000 0.200000 0
9.200000 0.200000 0
9.300000 0.200000 0
9.400000 0.200000 0
9.500000 0.200000 0
9.600000 0.200000 0
9.700000 0.200000 0
9.800000 0.200000 0
0.000000 0.300000 0
0.100000 0.300000 0
0.200000 0.300000 0
0.300000 0.300000 0
0.400000 0.300000 0
0.500000 0.300000 0
0.600000 0.300000 0
0.700000 0.300000 0
0.800000 0.300000 0
0.900000 0.300000 0
1.000000 0.300000 0
1.100000 0.300000 0
1.200000 0.300000 0
1.300000 0.300000 0
1.400000 0.300000 0
1.500000 0.300000 0
1.600000 0.300000 0
1.700000 0.300000 0
1.800000 0.300000 0
1.900000 0.300000 0
2.000000 0.300000 0
2.100000 0.300000 0
2.200000 0.300000 0
2.300000 0.300000 0
2.400000 0.300000 0
2.500000 0.300000 0
2.600000 0.300000 0
2.700000 0.300000 0
2.800000 0.300000 0
2.900000 0.300000 0
3.000000 0.300000 0
3.100000 0.300000 0
3.200000 0.300000 0
3.300000 0.300000 0
3.400000 0.300000 0
3.500000 0.300000 0
3.600000 0.300000 0
3.700000 0.300000 0
3.800000 0.300000 0
3.900000 0.300000 0
4.000000 0.300000 0
4.100000 0.300000 0
4.200000 0.300000 0
4.300000 0.300000 0
4.400000 0.300000 0
4.500000 0.300000 0
4.600000 0.300000 0
4.700000 0.300000 0
4.800000 0.300000 0
4.900000 0.300000 0
5.000000 0.300000 0
5.100000 0.300000 0
5.200000 0.300000 0
5.300000 0.300000 0
5.400000 0.300000 0
5.500000 0.300000 0
5.600000 0.300000 0
5.700000 0.300000 0
5.800000 0.300000 0
5.900000 0.300000 0
6.000000 0.300000 0
6.100000 0.300000 0
6.200000 0.300000 0
6.300000 0.300000 0
6.400000 0.300000 0
6.500000 0.300000 0
6.600000 0.300000 0
6.700000 0.300000 0
6.800000 0.300000 0
6.900000 0.300000 0
7.000000 0.300000 0
7.100000 0.300000 0
7.200000 0.300000 0
7.300000 0.300000 0
7.400000 0.300000 0
7.500000 0.300000 0
7.600000 0.300000 0
7.700000 0.300000 0
7.800000 0.300000 0
7.900000 0.300000 0
8.000000 0.300000 0
8.100000 0.300000 0
8.200000 0.300000 0
8.300000 0.300000 0
8.400000 0.300000 0
8.500000 0.300000 0
8.600000 0.300000 0
8.700000 0.300000 0
8.800000 0.300000 0
8.900000 0.300000 0
9.000000 0.300000 0
9.100000 0.300000 0
9.200000 0.300000 0
9.300000 0.300000 0
9.400000 0.300000 0
9.500000 0.300000 0
9.600000 0.300000 0
9.700000 0.300000 0
9.800000 0.300000 0
0.000000 0.400000 0
0.100000 0.400000 0
0.200000 0.400000 0
0.300000 0.400000 0
0.400000 0.400000 0
0.500000 0.400000 0
0.600000 0.400000 0
0.700000 0.400000 0
0.800000 0.400000 0
0.900000 0.400000 0
1.000000 0.400000 0
1.100000 0.400000 0
1.200000 0.400000 0
1.300000 0.400000 0
1.400000 0.400000 0
1.500000 0.400000 0
1.600000 0.400000 0
1.700000 0.400000 0
1.800000 0.400000 0
1.900000 0.400000 0
2.000000 0.400000 0
2.100000 0.400000 0
2.200000 0.400000 0
2.300000 0.400000 0
2.400000 0.400000 0
2.500000 0.400000 0
2.600000 0.400000 0
2.700000 0.400000 0
2.800000 0.400000 0
2.900000 0.400000 0
3.000000 0.400000 0
3.100000 0.400000 0
3.200000 0.400000 0
3.300000 0.400000 0
3.400000 0.400000 0
3.500000 0.400000 0
3.600000 0.400000 0
3.700000 0.400000 0
3.800000 0.400000 0
3.900000 0.400000 0
4.000000 0.400000 0
4.100000 0.400000 0
4.200000 0.400000 0
4.300000 0.400000 0
4.400000 0.400000 0
4.500000 0.400000 0
4.600000 0.400000 0
4.700000 0.400000 0
4.800000 0.400000 0
4.900000 0.400000 0
5.000000 0.400000 0
5.100000 0.400000 0
5.200000 0.400000 0
5.300000 0.400000 0
5.400000 0.400000 0
5.500000 0.400000 0
5.600000 0.400000 0
5.700000 0.400000 0
5.800000 0.400000 0
5.900000 0.400000 0
6.000000 0.400000 0
6.100000 0.400000 0
6.200000 0.400000 0
6.300000 0.400000 0
6.400000 0.400000 0
6.500000 0.400000 0
6.600000 0.400000 0
6.700000 0.400000 0
6.800000 0.400000 0
6.900000 0.400000 0
7.000000 0.400000 0
7.100000 0.400000 0
7.200000 0.400000 0
7.300000 0.400000 0
7.400000 0.400000 0
7.500000 0.400000 0
7.600000 0.400000 0
7.700000 0.400000 0
7.800000 0.400000 0
7.900000 0.400000 0
8.000000 0.400000 0
8.100000 0.400000 0
8.200000 0.400000 0
8.300000 0.400000 0
8.400000 0.400000 0
8.500000 0.400000 0
8.600000 0.400000 0
8.700000 0.400000 0
8.800000 0.400000 0
8.900000 0.400000 0
9.000000 0.400000 0
9.100000 0.400000 0
9.200000 0.400000 0
9.300000 0.400000 0
9.400000 0.400000 0
[...]
POINT_DATA 1881 

VECTORS velocity float
0.500000 0.000000 0
0.502262 0.000000 0
0.507250 0.000000 0
0.515353 0.000000 0
0.526939 0.000000 0
0.542264 0.000000 0
0.561253 0.000000 0
0.583193 0.000000 0
0.606501 0.000000 0
0.628661 0.000000 0
0.647538 0.000000 0
0.662004 0.000000 0
0.671806 0.000000 0
0.677242 0.000000 0
0.678941 0.000000 0
0.677737 0.000000 0
0.674572 0.000000 0
0.670439 0.000000 0
0.666317 0.000000 0
0.663067 0.000000 0
0.661320 0.000000 0
0.661346 0.000000 0
0.662867 0.000000 0
0.665024 0.000000 0
0.666622 0.000000 0
0.666506 0.000000 0
0.663839 0.000000 0
0.658220 0.000000 0
0.649648 0.000000 0
0.638424 0.000000 0
0.625042 0.000000 0
0.610111 0.000000 0
0.594299 0.000000 0
0.578307 0.000000 0
0.562850 0.000000 0
0.548649 0.000000 0
0.536432 0.000000 0
0.526965 0.000000 0
0.521099 0.000000 0
0.519744 0.000000 0
0.523506 0.000000 0
0.532483 0.000000 0
0.546188 0.000000 0
0.563457 0.000000 0
0.582474 0.000000 0
0.600932 0.000000 0
0.616377 0.000000 0
0.626751 0.000000 0
0.631000 0.000000 0
0.629178 0.000000 0
0.621841 0.000000 0
0.609850 0.000000 0
0.594271 0.000000 0
0.576263 0.000000 0
0.556978 0.000000 0
0.537508 0.000000 0
0.518863 0.000000 0
0.501984 0.000000 0
0.487763 0.000000 0
0.477044 0.000000 0
0.470559 0.000000 0
0.468755 0.000000 0
0.471459 0.000000 0
0.478090 0.000000 0
0.488031 0.000000 0
0.500719 0.000000 0
0.515626 0.000000 0
0.532186 0.000000 0
0.549660 0.000000 0
0.566997 0.000000 0
0.582785 0.000000 0
0.595366 0.000000 0
0.603203 0.000000 0
0.605396 0.000000 0
0.601843 0.000000 0
0.592830 0.000000 0
0.578957 0.000000 0
0.561180 0.000000 0
0.540794 0.000000 0
0.519399 0.000000 0
0.498796 0.000000 0
0.480791 0.000000 0
0.466912 0.000000 0
0.458126 0.000000 0
0.454648 0.000000 0
0.455817 0.000000 0
0.460380 0.000000 0
0.467274 0.000000 0
0.475762 0.000000 0
0.485398 0.000000 0
0.495923 0.000000 0
0.507150 0.000000 0
0.518829 0.000000 0
0.530530 0.000000 0
0.541558 0.000000 0
0.550949 0.000000 0
0.557553 0.000000 0
0.560210 0.000000 0
0.557284 0.000000 0
1.000000 -0.002264 0
1.005086 -0.007256 0
1.015704 -0.013096 0
1.032548 -0.019693 0
1.056439 -0.026920 0
1.088094 -0.034327 0
1.127653 -0.040943 0
1.173929 -0.045265 0
1.223812 -0.045488 0
1.270967 -0.041058 0
1.310534 -0.033366 0
1.340442 -0.024293 0
1.360527 -0.015264 0
1.371619 -0.007162 0
1.375104 -0.000521 0
1.372693 0.004348 0
1.366314 0.007283 0
1.358026 0.008245 0
1.349881 0.007367 0
1.343709 0.004994 0
1.340896 0.001717 0
1.342100 -0.001553 0
1.346807 -0.003687 0
1.353158 -0.003764 0
1.358406 -0.001489 0
1.359883 0.002774 0
1.355830 0.008277 0
1.345504 0.014181 0
1.329011 0.019785 0
1.307056 0.024593 0
1.280705 0.028298 0
1.251221 0.030728 0
1.219970 0.031787 0
1.188370 0.031431 0
1.157860 0.029639 0
1.129879 0.026399 0
1.105852 0.021664 0
1.087192 0.015313 0
1.075299 0.007203 0
1.071511 -0.002422 0
1.076979 -0.012753 0
1.092282 -0.022692 0
1.116981 -0.030981 0
1.149357 -0.036291 0
1.186449 -0.037479 0
1.224233 -0.033906 0
1.258000 -0.025823 0
1.283135 -0.014628 0
1.296301 -0.002433 0
1.296507 0.009152 0
1.284878 0.019320 0
1.263327 0.027561 0
1.234153 0.033577 0
1.199800 0.037283 0
1.162664 0.038745 0
1.124990 0.038105 0
1.088826 0.035514 0
1.056012 0.031089 0
1.028152 0.024928 0
1.006530 0.017193 0
0.991967 0.008278 0
0.984728 -0.000912 0
0.984641 -0.009346 0
0.991199 -0.016582 0
1.003774 -0.022637 0
1.021760 -0.027602 0
1.044588 -0.031473 0
1.071639 -0.034037 0
1.101996 -0.034813 0
1.134135 -0.033127 0
1.165746 -0.028370 0
1.193815 -0.020419 0
1.214991 -0.010032 0
1.226277 0.001357 0
1.226057 0.012562 0
1.214699 0.022881 0
1.193485 0.031645 0
1.164369 0.038159 0
1.129888 0.041777 0
1.093013 0.041993 0
1.056905 0.038604 0
1.024549 0.031882 0
0.998294 0.022663 0
0.979461 0.012262 0
0.968222 0.002308 0
0.963881 -0.005734 0
0.965298 -0.011459 0
0.971170 -0.015383 0
0.980477 -0.018124 0
0.992586 -0.020161 0
1.007192 -0.021753 0
1.024138 -0.022907 0
1.043178 -0.023380 0
1.063724 -0.022729 0
1.084688 -0.020420 0
1.104431 -0.015996 0
1.120832 -0.009262 0
1.131466 0.000269 0
1.133263 0.007231 0
1.000000 -0.005091 0
1.005243 -0.015714 0
1.015875 -0.027469 0
1.032631 -0.040744 0
1.056669 -0.055560 0
1.089382 -0.071231 0
1.131929 -0.085855 0
1.184081 -0.096181 0
1.243691 -0.097064 0
1.298360 -0.086750 0
1.341506 -0.069505 0
1.372267 -0.050025 0
1.391804 -0.031210 0
1.401633 -0.014610 0
1.403471 -0.001102 0
1.399148 0.008770 0
1.390692 0.014654 0
1.380368 0.016424 0
1.370500 0.014313 0
1.363236 0.008980 0
1.360329 0.001601 0
1.362942 -0.005923 0
1.370830 -0.011071 0
1.381700 -0.011609 0
1.391659 -0.006734 0
1.396878 0.002564 0
1.395277 0.014366 0
1.386336 0.026805 0
1.370513 0.038432 0
1.348828 0.048287 0
1.322550 0.055815 0
1.293040 0.060714 0
1.261695 0.062829 0
1.229920 0.062086 0
1.199113 0.058467 0
1.170633 0.051984 0
1.145757 0.042662 0
1.125643 0.030530 0
1.111289 0.015661 0
1.103565 -0.001697 0
1.103502 -0.020785 0
1.112043 -0.040011 0
1.129408 -0.057081 0
1.154963 -0.069473 0
1.187351 -0.074881 0
1.224272 -0.071555 0
1.262098 -0.058908 0
1.295856 -0.038310 0
1.320044 -0.013381 0
1.330619 0.011413 0
1.327533 0.033168 0
1.312999 0.050714 0
1.289597 0.063515 0
1.259982 0.071477 0
1.226687 0.074796 0
1.192018 0.073824 0
1.157997 0.068965 0
1.126303 0.060660 0
1.098212 0.049467 0
1.074499 0.036171 0
1.055403 0.021787 0
1.040744 0.007312 0
1.030393 -0.006483 0
1.024353 -0.019143 0
1.022739 -0.030570 0
1.025872 -0.040821 0
1.034267 -0.049885 0
1.048512 -0.057412 0
1.068828 -0.062498 0
1.094618 -0.063752 0
1.124293 -0.059682 0
1.155342 -0.049247 0
1.184477 -0.032467 0
1.207880 -0.011072 0
1.222015 0.011573 0
1.225432 0.032567 0
1.219001 0.050325 0
1.204345 0.063591 0
1.183557 0.071351 0
1.158950 0.072979 0
1.132783 0.068460 0
1.106997 0.058608 0
1.083017 0.045085 0
1.061693 0.030069 0
1.043405 0.015578 0
1.028383 0.002923 0
1.016851 -0.007291 0
1.008718 -0.015181 0
1.003865 -0.021417 0
1.002419 -0.026716 0
1.004728 -0.031553 0
1.011197 -0.035987 0
1.022019 -0.039587 0
1.036921 -0.041511 0
1.055085 -0.040707 0
1.075201 -0.036144 0
1.095584 -0.027035 0
1.114329 -0.012431 0
1.129482 -0.000923 0
1.000000 -0.007514 0
1.004261 -0.023140 0
1.013182 -0.040489 0
1.027745 -0.060496 0
1.049672 -0.083681 0
1.081510 -0.109597 0
1.126501 -0.135655 0
1.186931 -0.157039 0
1.266332 -0.159778 0
1.331778 -0.138886 0
1.376352 -0.107287 0
1.404423 -0.074605 0
1.420157 -0.044643 0
1.425823 -0.018838 0
1.423247 0.001962 0
1.414009 0.017129 0
1.400206 0.026066 0
1.384441 0.028439 0
1.369536 0.024497 0
1.358143 0.015160 0
1.352457 0.002002 0
1.354395 -0.012064 0
1.364789 -0.022450 0
1.381176 -0.024595 0
1.398046 -0.016673 0
1.409026 -0.000851 0
1.410553 0.018811 0
1.402696 0.038937 0
1.386709 0.057283 0
1.364238 0.072546 0
1.336899 0.084076 0
1.306178 0.091572 0
1.273472 0.094897 0
1.240132 0.094002 0
1.207476 0.088916 0
1.176740 0.079745 0
1.149017 0.066646 0
1.125203 0.049775 0
1.105967 0.029276 0
1.091667 0.005362 0
1.082400 -0.021230 0
1.078788 -0.048597 0
1.081854 -0.073900 0
1.092749 -0.094234 0
1.112777 -0.106791 0
1.142236 -0.108658 0
1.179317 -0.097413 0
1.219769 -0.072580 0
1.257259 -0.037201 0
1.284631 0.001657 0
1.297062 0.036934 0
1.295756 0.065491 0
1.283423 0.086589 0
1.262845 0.100188 0
1.236637 0.106702 0
1.207141 0.106788 0
1.176357 0.101223 0
1.145892 0.090868 0
1.116937 0.076726 0
1.090246 0.059996 0
1.066146 0.042028 0
1.044541 0.024093 0
1.024981 0.007042 0
1.007109 -0.008929 0
0.991255 -0.024157 0
0.979083 -0.039131 0
0.973080 -0.054113 0
0.975360 -0.068598 0
0.986775 -0.080920 0
1.006673 -0.088594 0
1.033262 -0.089096 0
1.064104 -0.080606 0
1.096437 -0.062574 0
1.127282 -0.036184 0
1.153270 -0.004993 0
1.170965 0.025891 0
1.179458 0.052729 0
1.179525 0.073602 0
1.172450 0.087171 0
1.159732 0.092766 0
1.142839 0.090557 0
1.123073 0.081648 0
1.101559 0.067965 0
1.079289 0.051873 0
1.057134 0.035617 0
1.035730 0.020818 0
1.015516 0.008204 0
0.997069 -0.002397 0
0.981175 -0.011826 0
0.968978 -0.021025 0
0.961857 -0.030532 0
0.960828 -0.040198 0
0.966155 -0.049105 0
0.977309 -0.055795 0
0.993196 -0.058700 0
1.012450 -0.056496 0
1.033698 -0.048390 0
1.055801 -0.033628 0
1.077935 -0.021197 0
1.000000 -0.009360 0
1.002841 -0.028906 0
1.008974 -0.050961 0
1.019505 -0.077243 0
1.036610 -0.109335 0
1.064169 -0.148072 0
1.108657 -0.191287 0
1.178019 -0.236024 0
1.295743 -0.241923 0
1.367392 -0.196784 0
1.401804 -0.142164 0
1.418642 -0.093842 0
1.426197 -0.052621 0
1.425781 -0.017703 0
1.417357 0.010713 0
1.401334 0.031812 0
1.379725 0.044222 0
1.355621 0.047093 0
1.332591 0.040606 0
1.313972 0.026052 0
1.302153 0.005339 0
1.298848 -0.018261 0
1.307114 -0.037854 0
1.326465 -0.044872 0
1.351943 -0.034591 0
1.374281 -0.009950 0
1.384244 0.020687 0
1.381015 0.050641 0
1.367617 0.076880 0
1.346777 0.098087 0
1.320534 0.113865 0
1.290425 0.124132 0
1.257772 0.128865 0
1.223850 0.128072 0
1.189924 0.121849 0
1.157157 0.110435 0
1.126453 0.094192 0
1.098308 0.073574 0
1.072704 0.049194 0
1.048874 0.021869 0
1.025242 -0.007906 0
1.001076 -0.039465 0
0.980267 -0.071042 0
0.969501 -0.100398 0
0.973622 -0.124372 0
0.993722 -0.138102 0
1.027751 -0.136447 0
1.071621 -0.116257 0
1.119732 -0.078248 0
1.165019 -0.028396 0
1.199283 0.022037 0
1.218128 0.064347 0
1.223511 0.096421 0
1.217970 0.118257 0
1.203999 0.130494 0
1.183901 0.134098 0
1.159699 0.130208 0
1.133080 0.120074 0
1.105328 0.105108 0
1.077205 0.086956 0
1.048803 0.067488 0
1.019614 0.048472 0
0.989178 0.030946 0
0.958186 0.014582 0
0.929132 -0.002545 0
0.905769 -0.022646 0
0.891957 -0.046162 0
0.889753 -0.071109 0
0.898718 -0.093813 0
0.916970 -0.110241 0
0.942195 -0.117115 0
0.972105 -0.112425 0
1.004536 -0.095648 0
1.037414 -0.067907 0
1.068564 -0.032114 0
1.095108 0.006376 0
1.114177 0.041763 0
1.125367 0.070597 0
1.129096 0.091142 0
1.126098 0.102589 0
1.117211 0.105117 0
1.103267 0.099887 0
1.085069 0.088868 0
1.063391 0.074492 0
1.039006 0.059135 0
1.012800 0.044539 0
0.986002 0.031369 0
0.960387 0.019159 0
0.938116 0.006673 0
0.921227 -0.007398 0
0.911163 -0.023404 0
0.908549 -0.040286 0
0.913004 -0.056068 0
0.923464 -0.068552 0
0.938595 -0.075849 0
0.957080 -0.076647 0
0.977761 -0.070386 0
0.999734 -0.056669 0
1.022320 -0.044480 0
1.000000 -0.010363 0
1.000889 -0.032126 0
1.002967 -0.057162 0
1.007065 -0.088142 0
1.015156 -0.128356 0
1.031621 -0.181655 0
1.065989 -0.249516 0
1.135910 -0.344137 0
1.312578 -0.349165 0
1.357686 -0.244960 0
1.352064 -0.158549 0
1.343213 -0.099009 0
1.338509 -0.051788 0
1.333363 -0.009998 0
1.320079 0.026409 0
1.297317 0.054760 0
1.266729 0.071778 0
1.231755 0.075570 0
1.196764 0.066140 0
1.165957 0.045588 0
1.141970 0.017117 0
1.125236 -0.017028 0
1.118380 -0.050072 0
1.128919 -0.069431 0
1.158551 -0.064496 0
1.199318 -0.033160 0
1.235602 0.012068 0
1.253997 0.055555 0
1.257205 0.091512 0
1.250261 0.119618 0
1.235714 0.140417 0
1.215056 0.154325 0
1.189525 0.161462 0
1.160434 0.161840 0
1.129180 0.155600 0
1.096916 0.143209 0
1.063791 0.125490 0
1.028170 0.103520 0
0.987218 0.078708 0
0.939814 0.052823 0
0.889559 0.026568 0
0.843928 -0.003623 0
0.810968 -0.042327 0
0.796736 -0.087592 0
0.801636 -0.131018 0
0.822970 -0.162793 0
0.857553 -0.175316 0
0.902266 -0.164566 0
0.953694 -0.130605 0
1.007608 -0.077900 0
1.058107 -0.016181 0
1.097010 0.041257 0
1.121647 0.086742 0
1.133623 0.119694 0
1.134797 0.140764 0
1.127058 0.151082 0
1.112156 0.152038 0
1.091531 0.145233 0
1.066089 0.132595 0
1.036036 0.116516 0
1.001079 0.099615 0
0.961399 0.083715 0
0.919048 0.068468 0
0.878532 0.051115 0
0.845522 0.028258 0
0.824162 -0.001956 0
0.815618 -0.038098 0
0.818512 -0.075360 0
0.830349 -0.108137 0
0.848863 -0.132073 0
0.872374 -0.144234 0
0.899581 -0.142950 0
0.929264 -0.127886 0
0.960141 -0.100215 0
0.990813 -0.062690 0
1.019650 -0.019724 0
1.043888 0.022468 0
1.061600 0.058681 0
1.072372 0.086437 0
1.076212 0.104649 0
1.073335 0.113386 0
1.064039 0.113788 0
1.048666 0.107839 0
1.027683 0.097933 0
1.001909 0.086207 0
0.972847 0.073821 0
0.942884 0.060616 0
0.915073 0.045488 0
0.892425 0.027333 0
0.876997 0.005926 0
0.869335 -0.017855 0
0.868868 -0.042040 0
0.874452 -0.064020 0
0.884824 -0.081387 0
0.898850 -0.092317 0
0.915573 -0.095661 0
0.934175 -0.091044 0
0.953927 -0.078187 0
0.974030 -0.066248 0
1.000000 -0.010258 0
0.998542 -0.031886 0
0.995547 -0.057147 0
0.990980 -0.089444 0
0.985307 -0.133902 0
0.980723 -0.198916 0
0.984774 -0.295588 0
1.019879 -0.482625 0
1.216291 -0.463711 0
1.166599 -0.236282 0
1.079835 -0.127701 0
1.035838 -0.080294 0
1.020796 -0.042773 0
1.020929 0.000726 0
1.010935 0.046758 0
0.987399 0.085161 0
0.949893 0.109781 0
0.899881 0.117052 0
0.840634 0.106396 0
0.778703 0.080836 0
0.725420 0.046055 0
0.693700 0.005327 0
0.689255 -0.041543 0
0.713665 -0.085051 0
0.763487 -0.104999 0
0.832721 -0.087011 0
0.910705 -0.034001 0
0.979361 0.029029 0
1.025121 0.080606 0
1.051549 0.119568 0
1.063989 0.149061 0
1.064641 0.170311 0
1.054997 0.183477 0
1.036312 0.188408 0
1.009344 0.185360 0
0.973850 0.175818 0
0.928551 0.162933 0
0.872548 0.150144 0
0.808091 0.137549 0
0.742689 0.119527 0
0.687973 0.087980 0
0.654389 0.039125 0
0.644195 -0.023853 0
0.651487 -0.091071 0
0.669718 -0.150613 0
0.695534 -0.194024 0
0.728279 -0.215748 0
0.768170 -0.212404 0
0.814748 -0.183596 0
0.866198 -0.132815 0
0.919329 -0.067371 0
0.968562 0.000801 0
1.006625 0.059802 0
1.032350 0.105101 0
1.046455 0.137053 0
1.049943 0.156733 0
1.043806 0.165728 0
1.028746 0.166135 0
1.004987 0.160597 0
0.972539 0.151963 0
0.932225 0.142121 0
0.887097 0.130500 0
0.842873 0.113812 0
0.806276 0.088107 0
0.782164 0.051824 0
0.771769 0.007256 0
0.772705 -0.040512 0
0.781100 -0.085841 0
0.794121 -0.124166 0
0.810361 -0.152269 0
0.829368 -0.167836 0
0.851060 -0.169318 0
0.875236 -0.156212 0
0.901308 -0.129459 0
0.928303 -0.091626 0
0.954986 -0.046701 0
0.979686 -0.000190 0
0.999798 0.042110 0
1.014062 0.076528 0
1.021837 0.101624 0
1.022767 0.117289 0
1.016675 0.124554 0
1.003614 0.125221 0
0.984101 0.121246 0
0.959442 0.113970 0
0.931941 0.103563 0
0.904675 0.089142 0
0.880802 0.069617 0
0.862719 0.044747 0
0.851555 0.015691 0
0.847181 -0.015276 0
0.848496 -0.045404 0
0.854204 -0.072025 0
0.863231 -0.092951 0
0.874809 -0.106599 0
0.888389 -0.111972 0
0.903506 -0.108740 0
0.919649 -0.096524 0
0.936029 -0.084739 0
1.000000 -0.008917 0
0.996217 -0.027690 0
0.988061 -0.049610 0
0.974194 -0.077913 0
0.952329 -0.118110 0
0.918841 -0.181132 0
0.868232 -0.288684 0
0.797046 -0.575667 0
0.559504 -0.397081 0
0.500582 0.000000 0
0.431732 -0.018097 0
0.373913 -0.039975 0
0.391709 -0.036880 0
0.439313 -0.000138 0
0.470857 0.059938 0
0.466340 0.115800 0
0.435268 0.159292 0
0.382988 0.184822 0
0.318318 0.187309 0
0.256203 0.160795 0
0.216887 0.102117 0
0.217411 0.019131 0
0.252286 -0.070044 0
0.307663 -0.143671 0
0.376764 -0.183561 0
0.458474 -0.180387 0
0.552490 -0.134582 0
0.652667 -0.058871 0
0.740592 0.019314 0
0.803766 0.080741 0
0.844876 0.127316 0
0.867683 0.163307 0
0.873743 0.189782 0
0.863697 0.207484 0
0.837448 0.218055 0
0.794869 0.223997 0
0.737861 0.226788 0
0.673148 0.223979 0
0.612792 0.208566 0
0.569800 0.172941 0
0.551321 0.114867 0
0.555650 0.040153 0
0.574459 -0.039429 0
0.596996 -0.113121 0
0.618398 -0.175070 0
0.638729 -0.221359 0
0.660598 -0.247958 0
0.687347 -0.251040 0
0.721321 -0.228639 0
0.762652 -0.182487 0
0.809202 -0.118551 0
0.857318 -0.046045 0
0.900581 0.022948 0
0.933675 0.079857 0
0.955752 0.123165 0
0.966694 0.153725 0
0.966568 0.173228 0
0.955415 0.184047 0
0.933459 0.188797 0
0.901919 0.189274 0
0.864094 0.185055 0
0.825635 0.173064 0
0.793056 0.149287 0
0.771096 0.111824 0
0.761009 0.062765 0
0.760986 0.007502 0
0.767652 -0.047430 0
0.777580 -0.096778 0
0.788674 -0.137402 0
0.800197 -0.167323 0
0.812445 -0.184935 0
0.826270 -0.188821 0
0.842487 -0.178137 0
0.861363 -0.153285 0
0.882411 -0.116371 0
0.904559 -0.071110 0
0.926410 -0.022346 0
0.945807 0.024303 0
0.960745 0.064396 0
0.970074 0.095941 0
0.973037 0.118546 0
0.969217 0.132938 0
0.958690 0.140410 0
0.942294 0.142104 0
0.921826 0.138366 0
0.899911 0.128586 0
0.879432 0.111753 0
0.862758 0.087442 0
0.851205 0.056579 0
0.844988 0.021463 0
0.843559 -0.014797 0
0.845890 -0.049064 0
0.850897 -0.078756 0
0.857771 -0.101993 0
0.866042 -0.117475 0
0.875506 -0.124359 0
0.886073 -0.122304 0
0.897568 -0.110710 0
0.909471 -0.099131 0
1.000000 -0.006488 0
0.994501 -0.019965 0
0.982518 -0.035135 0
0.961670 -0.053724 0
0.927313 -0.078561 0
0.870410 -0.114831 0
0.771493 -0.173805 0
0.588237 -0.272724 0
0.000000 -0.167255 0
0.000000 0.000000 0
0.000000 0.000000 0
-0.026761 -0.048937 0
-0.046800 -0.108175 0
-0.025386 -0.078424 0
-0.001891 0.019729 0
0.008697 0.120747 0
-0.001379 0.193127 0
-0.026158 0.233994 0
-0.051811 0.233173 0
-0.059690 0.182262 0
-0.029174 0.084843 0
0.025911 -0.030079 0
0.084014 -0.131803 0
0.138185 -0.209537 0
0.191502 -0.255818 0
0.250599 -0.262746 0
0.321229 -0.228204 0
0.404555 -0.159083 0
0.494512 -0.070503 0
0.573579 0.015275 0
0.630454 0.085134 0
0.666090 0.141435 0
0.681737 0.187455 0
0.677861 0.224695 0
0.655584 0.254182 0
0.618635 0.275400 0
0.575079 0.284652 0
0.536758 0.275212 0
0.515093 0.240896 0
0.515568 0.180998 0
0.535455 0.102128 0
0.566409 0.015983 0
0.597230 -0.065205 0
0.621752 -0.135016 0
0.638284 -0.192350 0
0.647871 -0.236229 0
0.653926 -0.264373 0
0.661531 -0.273132 0
0.675816 -0.258906 0
0.699795 -0.220702 0
0.733075 -0.162043 0
0.772350 -0.090585 0
0.812694 -0.016562 0
0.847085 0.049924 0
0.872104 0.104028 0
0.886567 0.145911 0
0.889921 0.177001 0
0.882167 0.199239 0
0.864372 0.214089 0
0.839405 0.221324 0
0.812158 0.218402 0
0.788455 0.201536 0
0.772896 0.168350 0
0.767137 0.120152 0
0.769926 0.061933 0
0.778455 0.000612 0
0.789368 -0.057108 0
0.800025 -0.106865 0
0.808878 -0.146786 0
0.815453 -0.176043 0
0.820345 -0.193911 0
0.825023 -0.199364 0
0.831308 -0.191308 0
0.840609 -0.169385 0
0.853341 -0.134825 0
0.868835 -0.090703 0
0.885685 -0.041440 0
0.902060 0.007773 0
0.915661 0.052259 0
0.924966 0.089330 0
0.929008 0.118143 0
0.927351 0.138898 0
0.920247 0.152142 0
0.908798 0.158108 0
0.894914 0.156351 0
0.880920 0.145955 0
0.868924 0.126293 0
0.860271 0.097842 0
0.855381 0.062516 0
0.853960 0.023336 0
0.855339 -0.016179 0
0.858619 -0.052744 0
0.862920 -0.083907 0
0.867599 -0.108096 0
0.872356 -0.124334 0
0.877235 -0.132003 0
0.882518 -0.130802 0
0.888497 -0.119922 0
0.895200 -0.108744 0
1.000000 -0.003432 0
0.993855 -0.010229 0
0.980533 -0.016791 0
0.957556 -0.022720 0
0.920214 -0.026861 0
0.859644 -0.025324 0
0.759126 -0.006523 0
0.585004 0.092561 0
0.270228 0.087897 0
0.000000 0.000000 0
0.000000 0.000000 0
0.000000 0.000000 0
-0.047098 -0.036417 0
-0.121362 -0.045048 0
-0.155099 0.025853 0
-0.154042 0.115284 0
-0.144884 0.194140 0
-0.131979 0.235245 0
-0.102691 0.220835 0
-0.043566 0.138154 0
0.035127 0.016510 0
0.101066 -0.094064 0
0.148107 -0.182327 0
0.178608 -0.251168 0
0.197611 -0.295984 0
0.214405 -0.310124 0
0.239705 -0.288547 0
0.280572 -0.232164 0
0.336800 -0.149720 0
0.401105 -0.055210 0
0.458141 0.034796 0
0.498948 0.112015 0
0.522571 0.178002 0
0.529553 0.233630 0
0.522909 0.277276 0
0.509272 0.304499 0
0.498278 0.308663 0
0.499485 0.283963 0
0.518151 0.229754 0
0.553053 0.152577 0
0.597913 0.064023 0
0.642679 -0.021627 0
0.678338 -0.094778 0
0.702393 -0.154180 0
0.714124 -0.201194 0
0.714192 -0.237006 0
0.705233 -0.261623 0
0.692321 -0.272937 0
0.682345 -0.266909 0
0.681758 -0.239752 0
0.693742 -0.191113 0
0.716963 -0.125671 0
0.746772 -0.051793 0
0.776707 0.020440 0
0.800715 0.083677 0
0.816320 0.135902 0
0.822592 0.177622 0
0.819885 0.209591 0
0.810149 0.231555 0
0.797058 0.241485 0
0.785316 0.236003 0
0.779054 0.212324 0
0.780258 0.170603 0
0.788409 0.114793 0
0.801379 0.051446 0
0.816495 -0.011943 0
0.830759 -0.069002 0
0.842179 -0.116290 0
0.849479 -0.152833 0
0.852112 -0.178793 0
0.850504 -0.194508 0
0.846213 -0.199788 0
0.841704 -0.193727 0
0.839577 -0.175322 0
0.841593 -0.144600 0
0.848067 -0.103457 0
0.857982 -0.055574 0
0.869562 -0.005675 0
0.880543 0.041488 0
0.889104 0.082592 0
0.894132 0.116158 0
0.895211 0.141696 0
0.892681 0.158961 0