# vtk DataFile Version 2.0
generated by CFD-lab course output (written by Tobias Neckel) 
ASCII

DATASET STRUCTURED_GRID
DIMENSIONS  99 19 1 
POINTS 1881 float

0.000000 0.000000 0
0.100000 0.000000 0
0.200000 0.000000 0
0.300000 0.000000 0
0.400000 0.000000 0
0.500000 0.000000 0
0.600000 0.000000 0
0.700000 0.000000 0
0.800000 0.000000 0
0.900000 0.000000 0
1.000000 0.000000 0
1.100000 0.000000 0
1.200000 0.000000 0
1.300000 0.000000 0
1.400000 0.000000 0
1.500000 0.000000 0
1.600000 0.000000 0
1.700000 0.000000 0
1.800000 0.000000 0
1.900000 0.000000 0
2.000000 0.000000 0
2.100000 0.000000 0
2.200000 0.000000 0
2.300000 0.000000 0
2.400000 0.000000 0
2.500000 0.000000 0
2.600000 0.000000 0
2.700000 0.000000 0
2.800000 0.000000 0
2.900000 0.000000 0
3.000000 0.000000 0
3.100000 0.000000 0
3.200000 0.000000 0
3.300000 0.000000 0
3.400000 0.000000 0
3.500000 0.000000 0
3.600000 0.000000 0
3.700000 0.000000 0
3.800000 0.000000 0
3.900000 0.000000 0
4.000000 0.000000 0
4.100000 0.000000 0
4.200000 0.000000 0
4.300000 0.000000 0
4.400000 0.000000 0
4.500000 0.000000 0
4.600000 0.000000 0
4.700000 0.000000 0
4.800000 0.000000 0
4.900000 0.000000 0
5.000000 0.000000 0
5.100000 0.000000 0
5.200000 0.000000 0
5.300000 0.000000 0
5.400000 0.000000 0
5.500000 0.000000 0
5.600000 0.000000 0
5.700000 0.000000 0
5.800000 0.000000 0
5.900000 0.000000 0
6.000000 0.000000 0
6.100000 0.000000 0
6.200000 0.000000 0
6.300000 0.000000 0
6.400000 0.000000 0
6.500000 0.000000 0
6.600000 0.000000 0
6.700000 0.000000 0
6.800000 0.000000 0
6.900000 0.000000 0
7.000000 0.000000 0
7.100000 0.000000 0
7.200000 0.000000 0
7.300000 0.000000 0
7.400000 0.000000 0
7.500000 0.000000 0
7.600000 0.000000 0
7.700000 0.000000 0
7.800000 0.000000 0
7.900000 0.000000 0
8.000000 0.000000 0
8.100000 0.000000 0
8.200000 0.000000 0
8.300000 0.000000 0
8.400000 0.000000 0
8.500000 0.000000 0
8.600000 0.000000 0
8.700000 0.000000 0
8.800000 0.000000 0
8.900000 0.000000 0
9.000000 0.000000 0
9.100000 0.000000 0
9.200000 0.000000 0
9.300000 0.000000 0
9.400000 0.000000 0
9.500000 0.000000 0
9.600000 0.000000 0
9.700000 0.000000 0
9.800000 0.000000 0
0.000000 0.100000 0
0.100000 0.100000 0
0.200000 0.100000 0
0.300000 0.100000 0
0.400000 0.100000 0
0.500000 0.100000 0
0.600000 0.100000 0
0.700000 0.100000 0
0.800000 0.100000 0
0.900000 0.100000 0
1.000000 0.100000 0
1.100000 0.100000 0
1.200000 0.100000 0
1.300000 0.100000 0
1.400000 0.100000 0
1.500000 0.100000 0
1.600000 0.100000 0
1.700000 0.100000 0
1.800000 0.100000 0
1.900000 0.100000 0
2.000000 0.100000 0
2.100000 0.100000 0
2.200000 0.100000 0
2.300000 0.100000 0
2.400000 0.100000 0
2.500000 0.100000 0
2.600000 0.100000 0
2.700000 0.100000 0
2.800000 0.100000 0
2.900000 0.100000 0
3.000000 0.100000 0
3.100000 0.100000 0
3.200000 0.100000 0
3.300000 0.100000 0
3.400000 0.100000 0
3.500000 0.100000 0
3.600000 0.100000 0
3.700000 0.100000 0
3.800000 0.100000 0
3.900000 0.100000 0
4.000000 0.100000 0
4.100000 0.100000 0
4.200000 0.100000 0
4.300000 0.100000 0
4.400000 0.100000 0
4.500000 0.100000 0
4.600000 0.100000 0
4.700000 0.100000 0
4.800000 0.100000 0
4.900000 0.100000 0
5.000000 0.100000 0
5.100000 0.100000 0
5.200000 0.100000 0
5.300000 0.100000 0
5.400000 0.100000 0
5.500000 0.100000 0
5.600000 0.100000 0
5.700000 0.100000 0
5.800000 0.100000 0
5.900000 0.100000 0
6.000000 0.100000 0
6.100000 0.100000 0
6.200000 0.100000 0
6.300000 0.100000 0
6.400000 0.100000 0
6.500000 0.100000 0
6.600000 0.100000 0
6.700000 0.100000 0
6.800000 0.100000 0
6.900000 0.100000 0
7.000000 0.100000 0
7.100000 0.100000 0
7.200000 0.100000 0
7.300000 0.100000 0
7.400000 0.100000 0
7.500000 0.100000 0
7.600000 0.100000 0
7.700000 0.100000 0
7.800000 0.100000 0
7.900000 0.100000 0
8.000000 0.100000 0
8.100000 0.100000 0
8.200000 0.100000 0
8.300000 0.100000 0
8.400000 0.100000 0
8.500000 0.100000 0
8.600000 0.100000 0
8.700000 0.100000 0
8.800000 0.100000 0
8.900000 0.100000 0
9.000000 0.100000 0
9.100000 0.100000 0
9.200000 0.100000 0
9.300000 0.100000 0
9.400000 0.100000 0
9.500000 0.100000 0
9.600000 0.100000 0
9.700000 0.100000 0
9.800000 0.100000 0
0.000000 0.200000 0
0.100000 0.200000 0
0.200000 0.200000 0
0.300000 0.200000 0
0.400000 0.200000 0
0.500000 0.200000 0
0.600000 0.200000 0
0.700000 0.200000 0
0.800000 0.200000 0
0.900000 0.200000 0
1.000000 0.200000 0
1.100000 0.200000 0
1.200000 0.200000 0
1.300000 0.200000 0
1.400000 0.200000 0
1.500000 0.200000 0
1.600000 0.200000 0
1.700000 0.200000 0
1.800000 0.200000 0
1.900000 0.200000 0
2.000000 0.200000 0
2.100000 0.200000 0
2.200000 0.200000 0
2.300000 0.200000 0
2.400000 0.200000 0
2.500000 0.200000 0
2.600000 0.200000 0
2.700000 0.200000 0
2.800000 0.200000 0
2.900000 0.200000 0
3.000000 0.200000 0
3.100000 0.200000 0
3.200000 0.200000 0
3.300000 0.200000 0
3.400000 0.200000 0
3.500000 0.200000 0
3.600000 0.200000 0
3.700000 0.200000 0
3.800000 0.200000 0
3.900000 0.200000 0
4.000000 0.200000 0
4.100000 0.200000 0
4.200000 0.200000 0
4.300000 0.200000 0
4.400000 0.200000 0
4.500000 0.200000 0
4.600000 0.200000 0
4.700000 0.200000 0
4.800000 0.200000 0
4.900000 0.200000 0
5.000000 0.200000 0
5.100000 0.200000 0
5.200000 0.200000 0
5.300000 0.200000 0
5.400000 0.200000 0
5.500000 0.200000 0
5.600000 0.200000 0
5.700000 0.200000 0
5.800000 0.200000 0
5.900000 0.200000 0
6.000000 0.200000 0
6.100000 0.200000 0
6.200000 0.200000 0
6.300000 0.200000 0
6.400000 0.200000 0
6.500000 0.200000 0
6.600000 0.200000 0
6.700000 0.200000 0
6.800000 0.200000 0
6.900000 0.200000 0
7.000000 0.200000 0
7.100000 0.200000 0
7.200000 0.200000 0
7.300000 0.200000 0
7.400000 0.200000 0
7.500000 0.200000 0
7.600000 0.200000 0
7.700000 0.200000 0
7.800000 0.200000 0
7.900000 0.200000 0
8.000000 0.200000 0
8.100000 0.200000 0
8.200000 0.200000 0
8.300000 0.200000 0
8.400000 0.200000 0
8.500000 0.200000 0
8.600000 0.200000 0
8.700000 0.200000 0
8.800000 0.200000 0
8.900000 0.200000 0
9.000000 0.200000 0
9.100000 0.200000 0
9.200000 0.200000 0
9.300000 0.200000 0
9.400000 0.200000 0
9.500000 0.200000 0
9.600000 0.200000 0
9.700000 0.200000 0
9.800000 0.200000 0
0.000000 0.300000 0
0.100000 0.300000 0
0.200000 0.300000 0
0.300000 0.300000 0
0.400000 0.300000 0
0.500000 0.300000 0
0.600000 0.300000 0
0.700000 0.300000 0
0.800000 0.300000 0
0.900000 0.300000 0
1.000000 0.300000 0
1.100000 0.300000 0
1.200000 0.300000 0
1.300000 0.300000 0
1.400000 0.300000 0
1.500000 0.300000 0
1.600000 0.300000 0
1.700000 0.300000 0
1.800000 0.300000 0
1.900000 0.300000 0
2.000000 0.300000 0
2.100000 0.300000 0
2.200000 0.300000 0
2.300000 0.300000 0
2.400000 0.300000 0
2.500000 0.300000 0
2.600000 0.300000 0
2.700000 0.300000 0
2.800000 0.300000 0
2.900000 0.300000 0
3.000000 0.300000 0
3.100000 0.300000 0
3.200000 0.300000 0
3.300000 0.300000 0
3.400000 0.300000 0
3.500000 0.300000 0
3.600000 0.300000 0
3.700000 0.300000 0
3.800000 0.300000 0
3.900000 0.300000 0
4.000000 0.300000 0
4.100000 0.300000 0
4.200000 0.300000 0
4.300000 0.300000 0
4.400000 0.300000 0
4.500000 0.300000 0
4.600000 0.300000 0
4.700000 0.300000 0
4.800000 0.300000 0
4.900000 0.300000 0
5.000000 0.300000 0
5.100000 0.300000 0
5.200000 0.300000 0
5.300000 0.300000 0
5.400000 0.300000 0
5.500000 0.300000 0
5.600000 0.300000 0
5.700000 0.300000 0
5.800000 0.300000 0
5.900000 0.300000 0
6.000000 0.300000 0
6.100000 0.300000 0
6.200000 0.300000 0
6.300000 0.300000 0
6.400000 0.300000 0
6.500000 0.300000 0
6.600000 0.300000 0
6.700000 0.300000 0
6.800000 0.300000 0
6.900000 0.300000 0
7.000000 0.300000 0
7.100000 0.300000 0
7.200000 0.300000 0
7.300000 0.300000 0
7.400000 0.300000 0
7.500000 0.300000 0
7.600000 0.300000 0
7.700000 0.300000 0
7.800000 0.300000 0
7.900000 0.300000 0
8.000000 0.300000 0
8.100000 0.300000 0
8.200000 0.300000 0
8.300000 0.300000 0
8.400000 0.300000 0
8.500000 0.300000 0
8.600000 0.300000 0
8.700000 0.300000 0
8.800000 0.300000 0
8.900000 0.300000 0
9.000000 0.300000 0
9.100000 0.300000 0
9.200000 0.300000 0
9.300000 0.300000 0
9.400000 0.300000 0
9.500000 0.300000 0
9.600000 0.300000 0
9.700000 0.300000 0
9.800000 0.300000 0
0.000000 0.400000 0
0.100000 0.400000 0
0.200000 0.400000 0
0.300000 0.400000 0
0.400000 0.400000 0
0.500000 0.400000 0
0.600000 0.400000 0
0.700000 0.400000 0
0.800000 0.400000 0
0.900000 0.400000 0
1.000000 0.400000 0
1.100000 0.400000 0
1.200000 0.400000 0
1.300000 0.400000 0
1.400000 0.400000 0
1.500000 0.400000 0
1.600000 0.400000 0
1.700000 0.400000 0
1.800000 0.400000 0
1.900000 0.400000 0
2.000000 0.400000 0
2.100000 0.400000 0
2.200000 0.400000 0
2.300000 0.400000 0
2.400000 0.400000 0
2.500000 0.400000 0
2.600000 0.400000 0
2.700000 0.400000 0
2.800000 0.400000 0
2.900000 0.400000 0
3.000000 0.400000 0
3.100000 0.400000 0
3.200000 0.400000 0
3.300000 0.400000 0
3.400000 0.400000 0
3.500000 0.400000 0
3.600000 0.400000 0
3.700000 0.400000 0
3.800000 0.400000 0
3.900000 0.400000 0
4.000000 0.400000 0
4.100000 0.400000 0
4.200000 0.400000 0
4.300000 0.400000 0
4.400000 0.400000 0
4.500000 0.400000 0
4.600000 0.400000 0
4.700000 0.400000 0
4.800000 0.400000 0
4.900000 0.400000 0
5.000000 0.400000 0
5.100000 0.400000 0
5.200000 0.400000 0
5.300000 0.400000 0
5.400000 0.400000 0
5.500000 0.400000 0
5.600000 0.400000 0
5.700000 0.400000 0
5.800000 0.400000 0
5.900000 0.400000 0
6.000000 0.400000 0
6.100000 0.400000 0
6.200000 0.400000 0
6.300000 0.400000 0
6.400000 0.400000 0
6.500000 0.400000 0
6.600000 0.400000 0
6.700000 0.400000 0
6.800000 0.400000 0
6.900000 0.400000 0
7.000000 0.400000 0
7.100000 0.400000 0
7.200000 0.400000 0
7.300000 0.400000 0
7.400000 0.400000 0
7.500000 0.400000 0
7.600000 0.400000 0
7.700000 0.400000 0
7.800000 0.400000 0
7.900000 0.400000 0
8.000000 0.400000 0
8.100000 0.400000 0
8.200000 0.400000 0
8.300000 0.400000 0
8.400000 0.400000 0
8.500000 0.400000 0
8.600000 0.400000 0
8.700000 0.400000 0
8.800000 0.400000 0
8.900000 0.400000 0
9.000000 0.400000 0
9.100000 0.400000 0
9.200000 0.400000 0
9.300000 0.400000 0
9.400000 0.400000 0
[...]
POINT_DATA 1881 

VECTORS velocity float
0.500000 0.000000 0
0.502088 0.000000 0
0.506775 0.000000 0
0.514486 0.000000 0
0.525652 0.000000 0
0.540612 0.000000 0
0.559394 0.000000 0
0.581434 0.000000 0
0.605330 0.000000 0
0.628780 0.000000 0
0.649800 0.000000 0
0.667345 0.000000 0
0.681110 0.000000 0
0.691131 0.000000 0
0.697504 0.000000 0
0.700285 0.000000 0
0.699510 0.000000 0
0.695296 0.000000 0
0.687890 0.000000 0
0.677731 0.000000 0
0.665440 0.000000 0
0.651780 0.000000 0
0.637606 0.000000 0
0.623812 0.000000 0
0.611272 0.000000 0
0.600796 0.000000 0
0.593106 0.000000 0
0.588849 0.000000 0
0.588594 0.000000 0
0.592565 0.000000 0
0.600368 0.000000 0
0.610830 0.000000 0
0.622072 0.000000 0
0.631913 0.000000 0
0.638482 0.000000 0
0.640740 0.000000 0
0.638475 0.000000 0
0.631948 0.000000 0
0.621752 0.000000 0
0.608652 0.000000 0
0.593468 0.000000 0
0.577009 0.000000 0
0.560053 0.000000 0
0.543346 0.000000 0
0.527622 0.000000 0
0.513623 0.000000 0
0.502130 0.000000 0
0.493986 0.000000 0
0.490053 0.000000 0
0.490964 0.000000 0
0.496787 0.000000 0
0.507237 0.000000 0
0.521723 0.000000 0
0.539352 0.000000 0
0.558900 0.000000 0
0.578775 0.000000 0
0.597032 0.000000 0
0.611569 0.000000 0
0.620607 0.000000 0
0.623292 0.000000 0
0.619752 0.000000 0
0.610536 0.000000 0
0.596497 0.000000 0
0.578752 0.000000 0
0.558601 0.000000 0
0.537438 0.000000 0
0.516674 0.000000 0
0.497672 0.000000 0
0.481677 0.000000 0
0.469726 0.000000 0
0.462525 0.000000 0
0.460285 0.000000 0
0.462484 0.000000 0
0.468186 0.000000 0
0.476576 0.000000 0
0.487052 0.000000 0
0.499202 0.000000 0
0.512711 0.000000 0
0.527234 0.000000 0
0.542251 0.000000 0
0.556945 0.000000 0
0.570175 0.000000 0
0.580592 0.000000 0
0.586932 0.000000 0
0.588422 0.000000 0
0.584889 0.000000 0
0.576463 0.000000 0
0.563579 0.000000 0
0.547052 0.000000 0
0.528118 0.000000 0
0.508423 0.000000 0
0.489889 0.000000 0
0.474423 0.000000 0
0.463535 0.000000 0
0.458020 0.000000 0
0.457784 0.000000 0
0.461862 0.000000 0
0.469397 0.000000 0
0.480652 0.000000 0
1.000000 -0.002101 0
1.004732 -0.006798 0
1.014728 -0.012421 0
1.030760 -0.018903 0
1.053769 -0.026150 0
1.084625 -0.033766 0
1.123677 -0.040840 0
1.170025 -0.045946 0
1.220959 -0.047339 0
1.270589 -0.044447 0
1.314391 -0.038542 0
1.350483 -0.031292 0
1.378673 -0.023779 0
1.399366 -0.016400 0
1.412911 -0.009151 0
1.419351 -0.001998 0
1.418639 0.004989 0
1.410900 0.011619 0
1.396595 0.017559 0
1.376611 0.022441 0
1.352227 0.025939 0
1.325025 0.027819 0
1.296773 0.027951 0
1.269310 0.026315 0
1.244432 0.022996 0
1.223778 0.018145 0
1.208777 0.011927 0
1.200658 0.004494 0
1.200479 -0.003729 0
1.208867 -0.011778 0
1.225372 -0.018261 0
1.247887 -0.021693 0
1.272638 -0.021065 0
1.294970 -0.016390 0
1.310661 -0.008808 0
1.317154 0.000022 0
1.313917 0.008800 0
1.301676 0.016724 0
1.281821 0.023298 0
1.256036 0.028287 0
1.226060 0.031643 0
1.193565 0.033413 0
1.160124 0.033661 0
1.127235 0.032428 0
1.096347 0.029719 0
1.068891 0.025486 0
1.046266 0.019631 0
1.029768 0.012071 0
1.020481 0.003015 0
1.019184 -0.006742 0
1.026311 -0.016280 0
1.041824 -0.024943 0
1.065143 -0.032120 0
1.095128 -0.037177 0
1.130076 -0.039421 0
1.167606 -0.038127 0
1.204521 -0.032785 0
1.236913 -0.023563 0
1.260709 -0.011709 0
1.272652 0.000868 0
1.271534 0.012767 0
1.258363 0.023264 0
1.234959 0.031790 0
1.203647 0.037900 0
1.167077 0.041317 0
1.128043 0.041928 0
1.089316 0.039766 0
1.053487 0.034997 0
1.022770 0.027946 0
0.998789 0.019153 0
0.982370 0.009441 0
0.973495 0.000042 0
0.971554 -0.007900 0
0.975584 -0.014091 0
0.984593 -0.018865 0
0.997824 -0.022625 0
1.014806 -0.025657 0
1.035251 -0.028029 0
1.058843 -0.029535 0
1.084931 -0.029705 0
1.112285 -0.027918 0
1.138991 -0.023640 0
1.162563 -0.016749 0
1.180243 -0.007823 0
1.189523 0.002050 0
1.188960 0.011965 0
1.178712 0.021315 0
1.159755 0.029416 0
1.133775 0.035465 0
1.103127 0.038633 0
1.070702 0.038234 0
1.039619 0.034004 0
1.012748 0.026357 0
0.992177 0.016405 0
0.978880 0.005753 0
0.972798 -0.003840 0
0.973324 -0.011611 0
0.979611 -0.018789 0
0.991527 -0.022830 0
1.000000 -0.004753 0
1.004878 -0.014764 0
1.014860 -0.026058 0
1.030749 -0.039071 0
1.053808 -0.053893 0
1.085553 -0.069931 0
1.127331 -0.085415 0
1.179173 -0.097279 0
1.239371 -0.100540 0
1.296099 -0.093403 0
1.343172 -0.079874 0
1.380013 -0.064275 0
1.408046 -0.048891 0
1.428761 -0.034243 0
1.442892 -0.019977 0
1.450254 -0.005723 0
1.450366 0.008450 0
1.443035 0.022038 0
1.428585 0.034281 0
1.407942 0.044355 0
1.382510 0.051568 0
1.354010 0.055434 0
1.324358 0.055692 0
1.295529 0.052316 0
1.269426 0.045507 0
1.247725 0.035631 0
1.231772 0.023098 0
1.222668 0.008280 0
1.221552 -0.008216 0
1.229662 -0.024890 0
1.247312 -0.039008 0
1.272866 -0.047246 0
1.302562 -0.047059 0
1.331090 -0.037999 0
1.352837 -0.022166 0
1.363786 -0.003246 0
1.363124 0.015479 0
1.352275 0.032096 0
1.333198 0.045642 0
1.307971 0.055761 0
1.278535 0.062470 0
1.246611 0.065933 0
1.213728 0.066326 0
1.181275 0.063773 0
1.150551 0.058337 0
1.122767 0.050074 0
1.098984 0.039114 0
1.079992 0.025776 0
1.066215 0.010575 0
1.057894 -0.005839 0
1.055490 -0.022648 0
1.059478 -0.038838 0
1.070139 -0.053306 0
1.087596 -0.064930 0
1.111807 -0.072471 0
1.142157 -0.074434 0
1.176943 -0.069293 0
1.213112 -0.056172 0
1.246353 -0.035723 0
1.271636 -0.010811 0
1.284742 0.014300 0
1.284826 0.036582 0
1.273567 0.054720 0
1.253203 0.067884 0
1.226268 0.075605 0
1.195381 0.077761 0
1.163061 0.074556 0
1.131542 0.066546 0
1.102585 0.054698 0
1.077325 0.040401 0
1.056224 0.025296 0
1.039225 0.010818 0
1.026215 -0.002088 0
1.017096 -0.013038 0
1.011716 -0.022239 0
1.010164 -0.030212 0
1.012840 -0.037423 0
1.020334 -0.044031 0
1.033141 -0.049673 0
1.051243 -0.053434 0
1.073866 -0.054050 0
1.099489 -0.050269 0
1.125976 -0.041243 0
1.150685 -0.026951 0
1.170627 -0.008709 0
1.183048 0.010818 0
1.186754 0.029212 0
1.182354 0.044943 0
1.171158 0.056633 0
1.154936 0.063079 0
1.135643 0.063513 0
1.115124 0.057958 0
1.094881 0.047446 0
1.075956 0.033871 0
1.058988 0.019381 0
1.044422 0.005557 0
1.032830 -0.006812 0
1.024356 -0.018202 0
1.018409 -0.024732 0
1.000000 -0.006997 0
1.003892 -0.021682 0
1.012144 -0.038303 0
1.025792 -0.057860 0
1.046624 -0.080960 0
1.077267 -0.107285 0
1.121071 -0.134447 0
1.180506 -0.157961 0
1.259436 -0.164243 0
1.325873 -0.148245 0
1.373251 -0.122467 0
1.406303 -0.096189 0
1.430066 -0.072542 0
1.447902 -0.051239 0
1.461168 -0.030641 0
1.469109 -0.009477 0
1.469823 0.012206 0
1.462268 0.033392 0
1.446493 0.052642 0
1.423559 0.068507 0
1.395109 0.079861 0
1.363097 0.085961 0
1.329664 0.086422 0
1.297027 0.081238 0
1.267319 0.070792 0
1.242322 0.055793 0
1.223206 0.036982 0
1.210605 0.014719 0
1.205198 -0.010711 0
1.208745 -0.037523 0
1.222772 -0.061448 0
1.246827 -0.076928 0
1.278459 -0.079280 0
1.313196 -0.066662 0
1.344484 -0.041509 0
1.365145 -0.010277 0
1.371031 0.020303 0
1.363885 0.046650 0
1.346814 0.067601 0
1.322699 0.082947 0
1.293909 0.093001 0
1.262323 0.098218 0
1.229443 0.098993 0
1.196524 0.095601 0
1.164666 0.088223 0
1.134852 0.077049 0
1.107917 0.062403 0
1.084439 0.044837 0
1.064578 0.025110 0
1.047986 0.003981 0
1.034111 -0.017865 0
1.023217 -0.039590 0
1.016974 -0.060233 0
1.017653 -0.078838 0
1.027482 -0.093972 0
1.047445 -0.103253 0
1.076659 -0.103731 0
1.112538 -0.092966 0
1.151219 -0.070229 0
1.187887 -0.037520 0
1.217068 -0.000425 0
1.234157 0.034436 0
1.239061 0.063410 0
1.233509 0.085198 0
1.219616 0.099137 0
1.199605 0.105134 0
1.175609 0.103605 0
1.149512 0.095473 0
1.122847 0.082165 0
1.096756 0.065516 0
1.071998 0.047543 0
1.048959 0.030051 0
1.027629 0.014229 0
1.007940 0.000409 0
0.990174 -0.011932 0
0.975347 -0.023747 0
0.965350 -0.035823 0
0.962103 -0.048326 0
0.966684 -0.060440 0
0.978973 -0.070424 0
0.997830 -0.076159 0
1.021504 -0.075745 0
1.047980 -0.067942 0
1.075177 -0.052472 0
1.100969 -0.030311 0
1.122979 -0.004160 0
1.138684 0.022012 0
1.147298 0.045014 0
1.149269 0.062886 0
1.145456 0.074151 0
1.136868 0.078047 0
1.124472 0.074767 0
1.109141 0.065526 0
1.091728 0.052299 0
1.073136 0.037287 0
1.054238 0.022318 0
1.035663 0.008455 0
1.017868 -0.004368 0
1.000874 -0.011987 0
1.000000 -0.008663 0
1.002479 -0.026930 0
1.007944 -0.047966 0
1.017533 -0.073556 0
1.033445 -0.105368 0
1.059568 -0.144371 0
1.102353 -0.188634 0
1.169728 -0.235626 0
1.284948 -0.245905 0
1.355516 -0.207229 0
1.390093 -0.160324 0
1.408288 -0.121104 0
1.419801 -0.090482 0
1.429658 -0.065336 0
1.440218 -0.041188 0
1.450249 -0.014381 0
1.454393 0.015285 0
1.448935 0.045361 0
1.433464 0.072980 0
1.409414 0.095729 0
1.378745 0.112020 0
1.343581 0.120870 0
1.306242 0.121754 0
1.269252 0.114653 0
1.235160 0.100207 0
1.206020 0.079741 0
1.182649 0.054818 0
1.164409 0.026299 0
1.150009 -0.006343 0
1.139461 -0.042449 0
1.136961 -0.077076 0
1.145894 -0.102923 0
1.168081 -0.113424 0
1.202612 -0.104028 0
1.244260 -0.074125 0
1.283545 -0.029803 0
1.309519 0.016740 0
1.317549 0.056315 0
1.311748 0.086825 0
1.296032 0.108664 0
1.273419 0.122843 0
1.246176 0.130396 0
1.216036 0.132122 0
1.184386 0.128547 0
1.152380 0.120006 0
1.121005 0.106819 0
1.091015 0.089525 0
1.062670 0.069112 0
1.035346 0.047026 0
1.007591 0.024626 0
0.978330 0.002122 0
0.948802 -0.021696 0
0.923649 -0.047735 0
0.909272 -0.075430 0
0.909219 -0.102254 0
0.923375 -0.123602 0
0.949508 -0.134378 0
0.984552 -0.130727 0
1.025126 -0.111070 0
1.067579 -0.076661 0
1.107741 -0.031974 0
1.140272 0.014587 0
1.161226 0.055367 0
1.171101 0.087327 0
1.171284 0.109509 0
1.163441 0.121769 0
1.149272 0.124651 0
1.130351 0.119309 0
1.108010 0.107455 0
1.083249 0.091251 0
1.056661 0.073094 0
1.028500 0.055187 0
0.999059 0.038932 0
0.969318 0.024419 0
0.941371 0.010356 0
0.918072 -0.005384 0
0.902156 -0.024175 0
0.895513 -0.045360 0
0.898375 -0.066538 0
0.909589 -0.084574 0
0.927391 -0.096577 0
0.949925 -0.100416 0
0.975454 -0.094913 0
1.002398 -0.079938 0
1.029308 -0.056509 0
1.054726 -0.026895 0
1.076705 0.004895 0
1.093180 0.034362 0
1.103664 0.058478 0
1.108214 0.075482 0
1.107104 0.084499 0
1.100702 0.085687 0
1.089459 0.080191 0
1.073954 0.069877 0
1.054929 0.056871 0
1.033308 0.043030 0
1.010206 0.029559 0
0.986920 0.016587 0
0.965064 0.008396 0
1.000000 -0.009493 0
1.000557 -0.029646 0
1.002011 -0.053361 0
1.005203 -0.083363 0
1.012090 -0.122992 0
1.026982 -0.176181 0
1.059223 -0.244592 0
1.126119 -0.340549 0
1.297389 -0.350039 0
1.338940 -0.253405 0
1.329754 -0.175255 0
1.315833 -0.125893 0
1.304007 -0.093899 0
1.297454 -0.071654 0
1.299838 -0.051235 0
1.312525 -0.023657 0
1.327881 0.013513 0
1.332038 0.054312 0
1.324071 0.092155 0
1.306062 0.123218 0
1.279922 0.145685 0
1.247346 0.158456 0
1.210335 0.160745 0
1.171514 0.152314 0
1.134050 0.134020 0
1.100508 0.108307 0
1.070477 0.078601 0
1.040023 0.047370 0
1.005722 0.014250 0
0.968602 -0.024461 0
0.936221 -0.067871 0
0.922093 -0.108044 0
0.932306 -0.136000 0
0.965261 -0.142850 0
1.015397 -0.122453 0
1.074367 -0.075536 0
1.130610 -0.013700 0
1.170938 0.044419 0
1.192013 0.089115 0
1.198405 0.121273 0
1.193573 0.142855 0
1.180095 0.155598 0
1.160034 0.160780 0
1.135097 0.159253 0
1.106621 0.151600 0
1.075371 0.138411 0
1.041163 0.120735 0
1.002749 0.100504 0
0.958916 0.080187 0
0.910828 0.060998 0
0.863506 0.040927 0
0.824089 0.015097 0
0.798349 -0.020696 0
0.788772 -0.064399 0
0.794040 -0.108067 0
0.811198 -0.143534 0
0.837566 -0.164902 0
0.871066 -0.168582 0
0.909793 -0.153257 0
0.951637 -0.120138 0
0.994093 -0.073121 0
1.033933 -0.019050 0
1.066038 0.032581 0
1.087979 0.075139 0
1.100081 0.106798 0
1.103199 0.127146 0
1.098388 0.136695 0
1.086680 0.136737 0
1.068887 0.129268 0
1.045500 0.116865 0
1.016797 0.102292 0
0.983377 0.087653 0
0.946963 0.073411 0
0.910868 0.058099 0
0.879446 0.039318 0
0.856550 0.015472 0
0.843946 -0.013259 0
0.841296 -0.044539 0
0.846988 -0.074510 0
0.859116 -0.099435 0
0.876056 -0.116492 0
0.896537 -0.123805 0
0.919508 -0.120411 0
0.943994 -0.106324 0
0.969031 -0.082637 0
0.993634 -0.051553 0
1.016696 -0.016438 0
1.036320 0.018059 0
1.051024 0.047854 0
1.060236 0.070713 0
1.063658 0.085560 0
1.061173 0.092413 0
1.052832 0.092276 0
1.038908 0.086830 0
1.020020 0.077933 0
0.997283 0.067041 0
0.972423 0.054843 0
0.947726 0.040773 0
0.926226 0.030613 0
1.000000 -0.009234 0
0.998272 -0.028956 0
0.994758 -0.052614 0
0.989420 -0.083635 0
0.982689 -0.127140 0
0.976641 -0.191489 0
0.978549 -0.287762 0
1.010231 -0.473792 0
1.199713 -0.458736 0
1.145630 -0.239609 0
1.052759 -0.137217 0
1.000513 -0.095343 0
0.962742 -0.072098 0
0.934909 -0.061170 0
0.922995 -0.056264 0
0.936166 -0.042432 0
0.973180 -0.004235 0
1.010799 0.049162 0
1.031237 0.098949 0
1.039147 0.139870 0
1.035132 0.170728 0
1.018911 0.190451 0
0.990665 0.197581 0
0.950798 0.190934 0
0.899665 0.171213 0
0.838386 0.143321 0
0.771135 0.115313 0
0.706208 0.091064 0
0.653546 0.065091 0
0.621015 0.027063 0
0.610527 -0.030562 0
0.620226 -0.099008 0
0.647824 -0.156599 0
0.690983 -0.187131 0
0.747539 -0.183235 0
0.814776 -0.145013 0
0.887944 -0.079832 0
0.957181 -0.005091 0
1.009579 0.059355 0
1.043375 0.107101 0
1.061965 0.141150 0
1.067685 0.163932 0
1.062435 0.177116 0
1.047727 0.181957 0
1.024415 0.179729 0
0.992371 0.172274 0
0.950651 0.162145 0
0.898986 0.151357 0
0.840455 0.138946 0
0.782990 0.120040 0
0.736949 0.088866 0
0.709830 0.043467 0
0.702378 -0.012410 0
0.708887 -0.071114 0
0.723331 -0.124673 0
0.742581 -0.167123 0
0.765875 -0.194243 0
0.793501 -0.202953 0
0.825653 -0.191644 0
0.861732 -0.160965 0
0.900242 -0.114271 0
0.939020 -0.057358 0
0.974878 0.001321 0
1.003300 0.053284 0
1.023006 0.094289 0
1.033853 0.123463 0
1.036059 0.141170 0
1.029904 0.148811 0
1.015567 0.148636 0
0.993240 0.143342 0
0.963641 0.135217 0
0.928781 0.125021 0
0.892375 0.111442 0
0.859199 0.091939 0
0.833523 0.064678 0
0.817668 0.030121 0
0.811636 -0.008916 0
0.813515 -0.048397 0
0.820967 -0.084353 0
0.832266 -0.113637 0
0.846408 -0.133993 0
0.862877 -0.143865 0
0.881355 -0.142367 0
0.901466 -0.129458 0
0.922654 -0.106147 0
0.944183 -0.074555 0
0.965174 -0.037786 0
0.984448 0.000036 0
1.000143 0.034564 0
1.011160 0.062849 0
1.016782 0.083563 0
1.016537 0.096515 0
1.010222 0.102458 0
0.998018 0.102690 0
0.980675 0.098497 0
0.959653 0.090627 0
0.937095 0.079115 0
0.915534 0.062784 0
0.897900 0.049900 0
1.000000 -0.007775 0
0.996040 -0.024415 0
0.987533 -0.044509 0
0.973141 -0.071289 0
0.950547 -0.110203 0
0.916027 -0.172030 0
0.863878 -0.278175 0
0.790122 -0.561715 0
0.551579 -0.388786 0
0.490623 0.000000 0
0.418426 -0.020333 0
0.352925 -0.035871 0
0.338751 -0.028299 0
0.348991 -0.031913 0
0.361563 -0.052500 0
0.390403 -0.073850 0
0.447562 -0.061128 0
0.526916 -0.003753 0
0.597388 0.063800 0
0.645908 0.119316 0
0.674279 0.165914 0
0.680611 0.202917 0
0.663836 0.228855 0
0.623653 0.243312 0
0.561961 0.246436 0
0.485822 0.236846 0
0.409951 0.210789 0
0.353451 0.164970 0
0.330358 0.099454 0
0.342759 0.018566 0
0.379028 -0.067079 0
0.421748 -0.145346 0
0.464059 -0.206766 0
0.507658 -0.242571 0
0.556895 -0.246244 0
0.615001 -0.215941 0
0.682246 -0.156108 0
0.755371 -0.077219 0
0.824204 0.002918 0
0.877324 0.068884 0
0.913749 0.118542 0
0.934899 0.155123 0
0.941766 0.180734 0
0.934963 0.197271 0
0.914617 0.206953 0
0.880795 0.212173 0
0.834973 0.214118 0
0.782133 0.210699 0
0.731268 0.196186 0
0.692327 0.164507 0
0.671302 0.114092 0
0.667872 0.049676 0
0.677048 -0.019744 0
0.691822 -0.085346 0
0.707497 -0.141755 0
0.722521 -0.186073 0
0.737569 -0.215821 0
0.754546 -0.228363 0
0.775472 -0.221491 0
0.801388 -0.194728 0
0.831800 -0.150409 0
0.864928 -0.093687 0
0.898292 -0.031699 0
0.927990 0.027012 0
0.950862 0.076246 0
0.965756 0.114094 0
0.972084 0.140645 0
0.969507 0.157230 0
0.957945 0.165932 0
0.937961 0.168792 0
0.911356 0.166752 0
0.881512 0.158920 0
0.852889 0.142995 0
0.829643 0.116955 0
0.814229 0.080854 0
0.806950 0.037364 0
0.806560 -0.009101 0
0.811029 -0.053864 0
0.818382 -0.093256 0
0.827330 -0.124872 0
0.837316 -0.147099 0
0.848356 -0.158749 0
0.860767 -0.158997 0
0.874820 -0.147620 0
0.890478 -0.125350 0
0.907295 -0.094069 0
0.924497 -0.056700 0
0.941091 -0.016908 0
0.955549 0.021144 0
0.966382 0.054077 0
0.972610 0.080185 0
0.973584 0.098974 0
0.969036 0.110796 0
0.959221 0.116379 0
0.945070 0.116299 0
0.928186 0.110621 0
0.910636 0.098962 0
0.894525 0.079967 0
0.881897 0.064436 0
1.000000 -0.005282 0
0.994439 -0.016497 0
0.982321 -0.029712 0
0.961269 -0.046642 0
0.926659 -0.070015 0
0.869393 -0.104810 0
0.770060 -0.161853 0
0.586533 -0.258152 0
0.000000 -0.159240 0
0.000000 0.000000 0
0.000000 0.000000 0
-0.030614 -0.025952 0
-0.048319 -0.068170 0
-0.039334 -0.083988 0
-0.040809 -0.097683 0
-0.031187 -0.128440 0
0.005669 -0.140756 0
0.079300 -0.100671 0
0.179521 -0.020050 0
0.264702 0.062972 0
0.315810 0.136021 0
0.340731 0.200891 0
0.340117 0.254536 0
0.317083 0.292810 0
0.280942 0.309051 0
0.246690 0.295340 0
0.229653 0.247694 0
0.238291 0.170670 0
0.271294 0.075792 0
0.317180 -0.021602 0
0.360743 -0.109552 0
0.396059 -0.184047 0
0.422745 -0.242517 0
0.444821 -0.279968 0
0.469100 -0.290577 0
0.502331 -0.270368 0
0.548175 -0.220205 0
0.605638 -0.147052 0
0.669568 -0.062602 0
0.728525 0.017551 0
0.773166 0.083571 0
0.802308 0.135911 0
0.815832 0.177050 0
0.813780 0.209103 0
0.796783 0.233894 0
0.767187 0.251916 0
0.730373 0.260806 0
0.694814 0.255063 0
0.669486 0.228755 0
0.659781 0.180011 0
0.665356 0.113327 0
0.681584 0.037729 0
0.701960 -0.036352 0
0.720746 -0.101555 0
0.735177 -0.155367 0
0.744526 -0.197193 0
0.749866 -0.226268 0
0.753859 -0.240859 0
0.760042 -0.238488 0
0.771486 -0.217293 0
0.789468 -0.177812 0
0.813067 -0.123851 0
0.839806 -0.061739 0
0.866418 0.000715 0
0.888744 0.056524 0
0.904603 0.102241 0
0.912800 0.137419 0
0.912723 0.162950 0
0.904486 0.180182 0
0.889314 0.189932 0
0.869829 0.191667 0
0.849738 0.183489 0
0.832792 0.163314 0
0.821512 0.130603 0
0.816574 0.087376 0
0.817130 0.037795 0
0.821613 -0.012989 0
0.828172 -0.060214 0
0.835237 -0.100650 0
0.841792 -0.132566 0
0.847469 -0.155016 0
0.852570 -0.167313 0
0.857911 -0.168829 0
0.864467 -0.159166 0
0.872924 -0.138616 0
0.883373 -0.108570 0
0.895295 -0.071579 0
0.907739 -0.031013 0
0.919455 0.009276 0
0.928865 0.045790 0
0.934856 0.076362 0
0.936725 0.100091 0
0.934239 0.116822 0
0.927740 0.126657 0
0.918182 0.129532 0
0.907001 0.125061 0
0.895789 0.112776 0
0.885907 0.091522 0
0.878353 0.073998 0
1.000000 -0.002220 0
0.993917 -0.006740 0
0.980691 -0.011334 0
0.957854 -0.015617 0
0.920693 -0.018315 0
0.860495 -0.015423 0
0.760701 0.004687 0
0.588069 0.105882 0
0.274484 0.095284 0
0.000000 0.000000 0
0.000000 0.000000 0
0.000000 0.000000 0
-0.028117 -0.021748 0
-0.112975 -0.039428 0
-0.176372 -0.060655 0
-0.197739 -0.120336 0
-0.190257 -0.171622 0
-0.154677 -0.177611 0
-0.084455 -0.121608 0
0.001791 -0.016978 0
0.070140 0.089880 0
0.116278 0.178607 0
0.143608 0.252502 0
0.158498 0.302492 0
0.172193 0.316837 0
0.196811 0.288144 0
0.239405 0.219199 0
0.298957 0.123339 0
0.365551 0.020573 0
0.421937 -0.070880 0
0.462424 -0.145962 0
0.486400 -0.207356 0
0.494728 -0.255533 0
0.491215 -0.288926 0
0.483229 -0.303756 0
0.480437 -0.295020 0
0.491341 -0.259419 0
0.519467 -0.198617 0
0.561977 -0.119973 0
0.611119 -0.034717 0
0.654740 0.044755 0
0.686067 0.112453 0
0.703541 0.169259 0
0.707219 0.216317 0
0.699038 0.253543 0
0.683491 0.278581 0
0.667533 0.286492 0
0.658750 0.271588 0
0.662229 0.231222 0
0.678455 0.168643 0
0.703978 0.092297 0
0.733621 0.013080 0
0.760835 -0.058899 0
0.781911 -0.118557 0
0.795189 -0.165532 0
0.800072 -0.200761 0
0.797227 -0.225155 0
0.789004 -0.238541 0
0.779460 -0.239117 0
0.773392 -0.224155 0
0.774538 -0.191992 0
0.784024 -0.144025 0
0.800220 -0.085050 0
0.819882 -0.021926 0
0.838805 0.038061 0
0.853693 0.090038 0
0.862832 0.132525 0
0.865545 0.165544 0
0.862234 0.189341 0
0.854523 0.203449 0
0.845085 0.206329 0
0.836936 0.195960 0
0.832403 0.171225 0
0.832418 0.133177 0
0.836575 0.085242 0
0.843705 0.032330 0
0.852372 -0.020137 0
0.860920 -0.067484 0
0.868055 -0.106873 0
0.872844 -0.137100 0
0.874869 -0.157873 0
0.874416 -0.169187 0
0.872526 -0.170890 0
0.870746 -0.162627 0