# vtk DataFile Version 2.0
generated by CFD-lab course output (written by Tobias Neckel) 
ASCII

DATASET STRUCTURED_GRID
DIMENSIONS  99 19 1 
POINTS 1881 float

0.000000 0.000000 0
0.100000 0.000000 0
0.200000 0.000000 0
0.300000 0.000000 0
0.400000 0.000000 0
0.500000 0.000000 0
0.600000 0.000000 0
0.700000 0.000000 0
0.800000 0.000000 0
0.900000 0.000000 0
1.000000 0.000000 0
1.100000 0.000000 0
1.200000 0.000000 0
1.300000 0.000000 0
1.400000 0.000000 0
1.500000 0.000000 0
1.600000 0.000000 0
1.700000 0.000000 0
1.800000 0.000000 0
1.900000 0.000000 0
2.000000 0.000000 0
2.100000 0.000000 0
2.200000 0.000000 0
2.300000 0.000000 0
2.400000 0.000000 0
2.500000 0.000000 0
2.600000 0.000000 0
2.700000 0.000000 0
2.800000 0.000000 0
2.900000 0.000000 0
3.000000 0.000000 0
3.100000 0.000000 0
3.200000 0.000000 0
3.300000 0.000000 0
3.400000 0.000000 0
3.500000 0.000000 0
3.600000 0.000000 0
3.700000 0.000000 0
3.800000 0.000000 0
3.900000 0.000000 0
4.000000 0.000000 0
4.100000 0.000000 0
4.200000 0.000000 0
4.300000 0.000000 0
4.400000 0.000000 0
4.500000 0.000000 0
4.600000 0.000000 0
4.700000 0.000000 0
4.800000 0.000000 0
4.900000 0.000000 0
5.000000 0.000000 0
5.100000 0.000000 0
5.200000 0.000000 0
5.300000 0.000000 0
5.400000 0.000000 0
5.500000 0.000000 0
5.600000 0.000000 0
5.700000 0.000000 0
5.800000 0.000000 0
5.900000 0.000000 0
6.000000 0.000000 0
6.100000 0.000000 0
6.200000 0.000000 0
6.300000 0.000000 0
6.400000 0.000000 0
6.500000 0.000000 0
6.600000 0.000000 0
6.700000 0.000000 0
6.800000 0.000000 0
6.900000 0.000000 0
7.000000 0.000000 0
7.100000 0.000000 0
7.200000 0.000000 0
7.300000 0.000000 0
7.400000 0.000000 0
7.500000 0.000000 0
7.600000 0.000000 0
7.700000 0.000000 0
7.800000 0.000000 0
7.900000 0.000000 0
8.000000 0.000000 0
8.100000 0.000000 0
8.200000 0.000000 0
8.300000 0.000000 0
8.400000 0.000000 0
8.500000 0.000000 0
8.600000 0.000000 0
8.700000 0.000000 0
8.800000 0.000000 0
8.900000 0.000000 0
9.000000 0.000000 0
9.100000 0.000000 0
9.200000 0.000000 0
9.300000 0.000000 0
9.400000 0.000000 0
9.500000 0.000000 0
9.600000 0.000000 0
9.700000 0.000000 0
9.800000 0.000000 0
0.000000 0.100000 0
0.100000 0.100000 0
0.200000 0.100000 0
0.300000 0.100000 0
0.400000 0.100000 0
0.500000 0.100000 0
0.600000 0.100000 0
0.700000 0.100000 0
0.800000 0.100000 0
0.900000 0.100000 0
1.000000 0.100000 0
1.100000 0.100000 0
1.200000 0.100000 0
1.300000 0.100000 0
1.400000 0.100000 0
1.500000 0.100000 0
1.600000 0.100000 0
1.700000 0.100000 0
1.800000 0.100000 0
1.900000 0.100000 0
2.000000 0.100000 0
2.100000 0.100000 0
2.200000 0.100000 0
2.300000 0.100000 0
2.400000 0.100000 0
2.500000 0.100000 0
2.600000 0.100000 0
2.700000 0.100000 0
2.800000 0.100000 0
2.900000 0.100000 0
3.000000 0.100000 0
3.100000 0.100000 0
3.200000 0.100000 0
3.300000 0.100000 0
3.400000 0.100000 0
3.500000 0.100000 0
3.600000 0.100000 0
3.700000 0.100000 0
3.800000 0.100000 0
3.900000 0.100000 0
4.000000 0.100000 0
4.100000 0.100000 0
4.200000 0.100000 0
4.300000 0.100000 0
4.400000 0.100000 0
4.500000 0.100000 0
4.600000 0.100000 0
4.700000 0.100000 0
4.800000 0.100000 0
4.900000 0.100000 0
5.000000 0.100000 0
5.100000 0.100000 0
5.200000 0.100000 0
5.300000 0.100000 0
5.400000 0.100000 0
5.500000 0.100000 0
5.600000 0.100000 0
5.700000 0.100000 0
5.800000 0.100000 0
5.900000 0.100000 0
6.000000 0.100000 0
6.100000 0.100000 0
6.200000 0.100000 0
6.300000 0.100000 0
6.400000 0.100000 0
6.500000 0.100000 0
6.600000 0.100000 0
6.700000 0.100000 0
6.800000 0.100000 0
6.900000 0.100000 0
7.000000 0.100000 0
7.100000 0.100000 0
7.200000 0.100000 0
7.300000 0.100000 0
7.400000 0.100000 0
7.500000 0.100000 0
7.600000 0.100000 0
7.700000 0.100000 0
7.800000 0.100000 0
7.900000 0.100000 0
8.000000 0.100000 0
8.100000 0.100000 0
8.200000 0.100000 0
8.300000 0.100000 0
8.400000 0.100000 0
8.500000 0.100000 0
8.600000 0.100000 0
8.700000 0.100000 0
8.800000 0.100000 0
8.900000 0.100000 0
9.000000 0.100000 0
9.100000 0.100000 0
9.200000 0.100000 0
9.300000 0.100000 0
9.400000 0.100000 0
9.500000 0.100000 0
9.600000 0.100000 0
9.700000 0.100000 0
9.800000 0.100000 0
0.000000 0.200000 0
0.100000 0.200000 0
0.200000 0.200000 0
0.300000 0.200000 0
0.400000 0.200000 0
0.500000 0.200000 0
0.600000 0.200000 0
0.700000 0.200000 0
0.800000 0.200000 0
0.900000 0.200000 0
1.000000 0.200000 0
1.100000 0.200000 0
1.200000 0.200000 0
1.300000 0.200000 0
1.400000 0.200000 0
1.500000 0.200000 0
1.600000 0.200000 0
1.700000 0.200000 0
1.800000 0.200000 0
1.900000 0.200000 0
2.000000 0.200000 0
2.100000 0.200000 0
2.200000 0.200000 0
2.300000 0.200000 0
2.400000 0.200000 0
2.500000 0.200000 0
2.600000 0.200000 0
2.700000 0.200000 0
2.800000 0.200000 0
2.900000 0.200000 0
3.000000 0.200000 0
3.100000 0.200000 0
3.200000 0.200000 0
3.300000 0.200000 0
3.400000 0.200000 0
3.500000 0.200000 0
3.600000 0.200000 0
3.700000 0.200000 0
3.800000 0.200000 0
3.900000 0.200000 0
4.000000 0.200000 0
4.100000 0.200000 0
4.200000 0.200000 0
4.300000 0.200000 0
4.400000 0.200000 0
4.500000 0.200000 0
4.600000 0.200000 0
4.700000 0.200000 0
4.800000 0.200000 0
4.900000 0.200000 0
5.000000 0.200000 0
5.100000 0.200000 0
5.200000 0.200000 0
5.300000 0.200000 0
5.400000 0.200000 0
5.500000 0.200000 0
5.600000 0.200000 0
5.700000 0.200000 0
5.800000 0.200000 0
5.900000 0.200000 0
6.000000 0.200000 0
6.100000 0.200000 0
6.200000 0.200000 0
6.300000 0.200000 0
6.400000 0.200000 0
6.500000 0.200000 0
6.600000 0.200000 0
6.700000 0.200000 0
6.800000 0.200000 0
6.900000 0.200000 0
7.000000 0.200000 0
7.100000 0.200000 0
7.200000 0.200000 0
7.300000 0.200000 0
7.400000 0.200000 0
7.500000 0.200000 0
7.600000 0.200000 0
7.700000 0.200000 0
7.800000 0.200000 0
7.900000 0.200000 0
8.000000 0.200000 0
8.100000 0.200000 0
8.200000 0.200000 0
8.300000 0.200000 0
8.400000 0.200000 0
8.500000 0.200000 0
8.600000 0.200000 0
8.700000 0.200000 0
8.800000 0.200000 0
8.900000 0.200000 0
9.000000 0.200000 0
9.100000 0.200000 0
9.200000 0.200000 0
9.300000 0.200000 0
9.400000 0.200000 0
9.500000 0.200000 0
9.600000 0.200000 0
9.700000 0.200000 0
9.800000 0.200000 0
0.000000 0.300000 0
0.100000 0.300000 0
0.200000 0.300000 0
0.300000 0.300000 0
0.400000 0.300000 0
0.500000 0.300000 0
0.600000 0.300000 0
0.700000 0.300000 0
0.800000 0.300000 0
0.900000 0.300000 0
1.000000 0.300000 0
1.100000 0.300000 0
1.200000 0.300000 0
1.300000 0.300000 0
1.400000 0.300000 0
1.500000 0.300000 0
1.600000 0.300000 0
1.700000 0.300000 0
1.800000 0.300000 0
1.900000 0.300000 0
2.000000 0.300000 0
2.100000 0.300000 0
2.200000 0.300000 0
2.300000 0.300000 0
2.400000 0.300000 0
2.500000 0.300000 0
2.600000 0.300000 0
2.700000 0.300000 0
2.800000 0.300000 0
2.900000 0.300000 0
3.000000 0.300000 0
3.100000 0.300000 0
3.200000 0.300000 0
3.300000 0.300000 0
3.400000 0.300000 0
3.500000 0.300000 0
3.600000 0.300000 0
3.700000 0.300000 0
3.800000 0.300000 0
3.900000 0.300000 0
4.000000 0.300000 0
4.100000 0.300000 0
4.200000 0.300000 0
4.300000 0.300000 0
4.400000 0.300000 0
4.500000 0.300000 0
4.600000 0.300000 0
4.700000 0.300000 0
4.800000 0.300000 0
4.900000 0.300000 0
5.000000 0.300000 0
5.100000 0.300000 0
5.200000 0.300000 0
5.300000 0.300000 0
5.400000 0.300000 0
5.500000 0.300000 0
5.600000 0.300000 0
5.700000 0.300000 0
5.800000 0.300000 0
5.900000 0.300000 0
6.000000 0.300000 0
6.100000 0.300000 0
6.200000 0.300000 0
6.300000 0.300000 0
6.400000 0.300000 0
6.500000 0.300000 0
6.600000 0.300000 0
6.700000 0.300000 0
6.800000 0.300000 0
6.900000 0.300000 0
7.000000 0.300000 0
7.100000 0.300000 0
7.200000 0.300000 0
7.300000 0.300000 0
7.400000 0.300000 0
7.500000 0.300000 0
7.600000 0.300000 0
7.700000 0.300000 0
7.800000 0.300000 0
7.900000 0.300000 0
8.000000 0.300000 0
8.100000 0.300000 0
8.200000 0.300000 0
8.300000 0.300000 0
8.400000 0.300000 0
8.500000 0.300000 0
8.600000 0.300000 0
8.700000 0.300000 0
8.800000 0.300000 0
8.900000 0.300000 0
9.000000 0.300000 0
9.100000 0.300000 0
9.200000 0.300000 0
9.300000 0.300000 0
9.400000 0.300000 0
9.500000 0.300000 0
9.600000 0.300000 0
9.700000 0.300000 0
9.800000 0.300000 0
0.000000 0.400000 0
0.100000 0.400000 0
0.200000 0.400000 0
0.300000 0.400000 0
0.400000 0.400000 0
0.500000 0.400000 0
0.600000 0.400000 0
0.700000 0.400000 0
0.800000 0.400000 0
0.900000 0.400000 0
1.000000 0.400000 0
1.100000 0.400000 0
1.200000 0.400000 0
1.300000 0.400000 0
1.400000 0.400000 0
1.500000 0.400000 0
1.600000 0.400000 0
1.700000 0.400000 0
1.800000 0.400000 0
1.900000 0.400000 0
2.000000 0.400000 0
2.100000 0.400000 0
2.200000 0.400000 0
2.300000 0.400000 0
2.400000 0.400000 0
2.500000 0.400000 0
2.600000 0.400000 0
2.700000 0.400000 0
2.800000 0.400000 0
2.900000 0.400000 0
3.000000 0.400000 0
3.100000 0.400000 0
3.200000 0.400000 0
3.300000 0.400000 0
3.400000 0.400000 0
3.500000 0.400000 0
3.600000 0.400000 0
3.700000 0.400000 0
3.800000 0.400000 0
3.900000 0.400000 0
4.000000 0.400000 0
4.100000 0.400000 0
4.200000 0.400000 0
4.300000 0.400000 0
4.400000 0.400000 0
4.500000 0.400000 0
4.600000 0.400000 0
4.700000 0.400000 0
4.800000 0.400000 0
4.900000 0.400000 0
5.000000 0.400000 0
5.100000 0.400000 0
5.200000 0.400000 0
5.300000 0.400000 0
5.400000 0.400000 0
5.500000 0.400000 0
5.600000 0.400000 0
5.700000 0.400000 0
5.800000 0.400000 0
5.900000 0.400000 0
6.000000 0.400000 0
6.100000 0.400000 0
6.200000 0.400000 0
6.300000 0.400000 0
6.400000 0.400000 0
6.500000 0.400000 0
6.600000 0.400000 0
6.700000 0.400000 0
6.800000 0.400000 0
6.900000 0.400000 0
7.000000 0.400000 0
7.100000 0.400000 0
7.200000 0.400000 0
7.300000 0.400000 0
7.400000 0.400000 0
7.500000 0.400000 0
7.600000 0.400000 0
7.700000 0.400000 0
7.800000 0.400000 0
7.900000 0.400000 0
8.000000 0.400000 0
8.100000 0.400000 0
8.200000 0.400000 0
8.300000 0.400000 0
8.400000 0.400000 0
8.500000 0.400000 0
8.600000 0.400000 0
8.700000 0.400000 0
8.800000 0.400000 0
8.900000 0.400000 0
9.000000 0.400000 0
9.100000 0.400000 0
9.200000 0.400000 0
9.300000 0.400000 0
9.400000 0.400000 0
[...]
POINT_DATA 1881 

VECTORS velocity float
0.500000 0.000000 0
0.502078 0.000000 0
0.506696 0.000000 0
0.514274 0.000000 0
0.525225 0.000000 0
0.539871 0.000000 0
0.558235 0.000000 0
0.579746 0.000000 0
0.603015 0.000000 0
0.625766 0.000000 0
0.646088 0.000000 0
0.663038 0.000000 0
0.676476 0.000000 0
0.686700 0.000000 0
0.694121 0.000000 0
0.699022 0.000000 0
0.701454 0.000000 0
0.701310 0.000000 0
0.698383 0.000000 0
0.692563 0.000000 0
0.683918 0.000000 0
0.672739 0.000000 0
0.659514 0.000000 0
0.644879 0.000000 0
0.629574 0.000000 0
0.614392 0.000000 0
0.600136 0.000000 0
0.587579 0.000000 0
0.577446 0.000000 0
0.570426 0.000000 0
0.567221 0.000000 0
0.568466 0.000000 0
0.574370 0.000000 0
0.584483 0.000000 0
0.597536 0.000000 0
0.611505 0.000000 0
0.624012 0.000000 0
0.632943 0.000000 0
0.637042 0.000000 0
0.636071 0.000000 0
0.630330 0.000000 0
0.620476 0.000000 0
0.607360 0.000000 0
0.591902 0.000000 0
0.575001 0.000000 0
0.557505 0.000000 0
0.540211 0.000000 0
0.523878 0.000000 0
0.509262 0.000000 0
0.497148 0.000000 0
0.488361 0.000000 0
0.483728 0.000000 0
0.483845 0.000000 0
0.488726 0.000000 0
0.498045 0.000000 0
0.511264 0.000000 0
0.527650 0.000000 0
0.546252 0.000000 0
0.565828 0.000000 0
0.584774 0.000000 0
0.601170 0.000000 0
0.613074 0.000000 0
0.619078 0.000000 0
0.618787 0.000000 0
0.612509 0.000000 0
0.600872 0.000000 0
0.584816 0.000000 0
0.565544 0.000000 0
0.544448 0.000000 0
0.523029 0.000000 0
0.502811 0.000000 0
0.485233 0.000000 0
0.471529 0.000000 0
0.462568 0.000000 0
0.458698 0.000000 0
0.459558 0.000000 0
0.464137 0.000000 0
0.471493 0.000000 0
0.480926 0.000000 0
0.491974 0.000000 0
0.504334 0.000000 0
0.517743 0.000000 0
0.531838 0.000000 0
0.546021 0.000000 0
0.559391 0.000000 0
0.570768 0.000000 0
0.578887 0.000000 0
0.582734 0.000000 0
0.581856 0.000000 0
0.576216 0.000000 0
0.566036 0.000000 0
0.551881 0.000000 0
0.534728 0.000000 0
0.515999 0.000000 0
0.497510 0.000000 0
0.481274 0.000000 0
0.469193 0.000000 0
0.462820 0.000000 0
0.463867 0.000000 0
1.000000 -0.002067 0
1.004714 -0.006684 0
1.014580 -0.012195 0
1.030349 -0.018532 0
1.052932 -0.025603 0
1.083164 -0.033018 0
1.121374 -0.039883 0
1.166650 -0.044786 0
1.216272 -0.046023 0
1.264435 -0.043069 0
1.306755 -0.037253 0
1.341520 -0.030358 0
1.368851 -0.023632 0
1.389678 -0.017618 0
1.405048 -0.012301 0
1.415648 -0.007325 0
1.421579 -0.002274 0
1.422424 0.003091 0
1.417634 0.008759 0
1.406874 0.014477 0
1.390252 0.019832 0
1.368373 0.024410 0
1.342260 0.027863 0
1.313241 0.029939 0
1.282842 0.030483 0
1.252692 0.029432 0
1.224435 0.026805 0
1.199636 0.022681 0
1.179732 0.017144 0
1.166032 0.010218 0
1.159778 0.001953 0
1.162134 -0.007150 0
1.173796 -0.016011 0
1.194290 -0.023155 0
1.221411 -0.027004 0
1.251262 -0.026455 0
1.278939 -0.021416 0
1.299750 -0.013009 0
1.310544 -0.003109 0
1.310431 0.006725 0
1.300182 0.015604 0
1.281318 0.022978 0
1.255717 0.028582 0
1.225336 0.032367 0
1.192053 0.034402 0
1.157605 0.034794 0
1.123600 0.033631 0
1.091551 0.030951 0
1.062914 0.026732 0
1.039079 0.020903 0
1.021299 0.013421 0
1.010564 0.004516 0
1.007505 -0.004998 0
1.012410 -0.014201 0
1.025175 -0.022537 0
1.045316 -0.029602 0
1.071975 -0.034983 0
1.103924 -0.038170 0
1.139426 -0.038511 0
1.176019 -0.035329 0
1.210413 -0.028286 0
1.238752 -0.017892 0
1.257292 -0.005697 0
1.263470 0.006583 0
1.257049 0.017927 0
1.239357 0.027703 0
1.212360 0.035336 0
1.178515 0.040375 0
1.140597 0.042520 0
1.101524 0.041642 0
1.064164 0.037801 0
1.031101 0.031286 0
1.004349 0.022670 0
0.985089 0.012836 0
0.973547 0.003014 0
0.969176 -0.005435 0
0.971010 -0.011931 0
0.977913 -0.016785 0
0.988970 -0.020477 0
1.003598 -0.023404 0
1.021490 -0.025764 0
1.042435 -0.027498 0
1.066048 -0.028272 0
1.091494 -0.027547 0
1.117319 -0.024740 0
1.141456 -0.019489 0
1.161417 -0.011960 0
1.174652 -0.002963 0
1.179143 0.006525 0
1.174245 0.015826 0
1.160488 0.024340 0
1.139102 0.031313 0
1.112025 0.035887 0
1.081840 0.037222 0
1.051566 0.034728 0
1.024277 0.028319 0
1.002591 0.018456 0
0.988240 0.005326 0
0.982497 -0.003811 0
1.000000 -0.004700 0
1.004862 -0.014566 0
1.014720 -0.025639 0
1.030357 -0.038358 0
1.052999 -0.052822 0
1.084128 -0.068451 0
1.125059 -0.083494 0
1.175800 -0.094901 0
1.234559 -0.097782 0
1.289691 -0.090463 0
1.335093 -0.077050 0
1.370240 -0.062058 0
1.396727 -0.048123 0
1.416554 -0.036173 0
1.431484 -0.025959 0
1.442620 -0.016520 0
1.449994 -0.006756 0
1.452622 0.003965 0
1.449424 0.015565 0
1.439705 0.027394 0
1.423495 0.038508 0
1.401490 0.047995 0
1.374855 0.055132 0
1.345050 0.059415 0
1.313713 0.060542 0
1.282575 0.058398 0
1.253356 0.053046 0
1.227647 0.044693 0
1.206804 0.033596 0
1.191943 0.019946 0
1.184103 0.003895 0
1.184544 -0.014012 0
1.194610 -0.032143 0
1.214572 -0.047595 0
1.242881 -0.056947 0
1.276162 -0.057500 0
1.309536 -0.048462 0
1.337308 -0.031582 0
1.354468 -0.010665 0
1.358751 0.010372 0
1.351291 0.029123 0
1.334235 0.044476 0
1.309935 0.055991 0
1.280634 0.063671 0
1.248338 0.067737 0
1.214793 0.068458 0
1.181531 0.066058 0
1.149923 0.060689 0
1.121189 0.052474 0
1.096360 0.041616 0
1.076153 0.028516 0
1.060891 0.013794 0
1.050648 -0.001846 0
1.045691 -0.017669 0
1.046404 -0.032902 0
1.053116 -0.046794 0
1.066116 -0.058598 0
1.085665 -0.067438 0
1.111663 -0.072079 0
1.143121 -0.070969 0
1.177828 -0.062714 0
1.212338 -0.046859 0
1.242200 -0.024699 0
1.262696 0.000258 0
1.270750 0.024125 0
1.266793 0.044698 0
1.252606 0.060850 0
1.230467 0.071771 0
1.202897 0.076998 0
1.172469 0.076439 0
1.141582 0.070429 0
1.112254 0.059821 0
1.085921 0.046017 0
1.063351 0.030807 0
1.044715 0.015919 0
1.029939 0.002543 0
1.019025 -0.008732 0
1.011797 -0.017954 0
1.008182 -0.025680 0
1.008430 -0.032514 0
1.013037 -0.038828 0
1.022555 -0.044551 0
1.037217 -0.049052 0
1.056623 -0.051262 0
1.079659 -0.049953 0
1.104596 -0.044090 0
1.129206 -0.033187 0
1.150865 -0.017718 0
1.166803 0.000414 0
1.174955 0.018663 0
1.175122 0.035151 0
1.168211 0.048469 0
1.155689 0.057268 0
1.139349 0.060464 0
1.121015 0.057566 0
1.102258 0.048978 0
1.084180 0.036039 0
1.067240 0.020095 0
1.050978 0.009076 0
1.000000 -0.006925 0
1.003876 -0.021403 0
1.012011 -0.037697 0
1.025420 -0.056814 0
1.045852 -0.079377 0
1.075900 -0.105080 0
1.118875 -0.131552 0
1.177216 -0.154280 0
1.254579 -0.159896 0
1.319414 -0.143572 0
1.365075 -0.117778 0
1.396027 -0.091982 0
1.417048 -0.069946 0
1.431764 -0.052385 0
1.443061 -0.038377 0
1.452891 -0.025824 0
1.461363 -0.012267 0
1.466293 0.003662 0
1.465016 0.021680 0
1.456101 0.040404 0
1.439487 0.058045 0
1.416119 0.073047 0
1.387431 0.084299 0
1.355086 0.091075 0
1.320880 0.092952 0
1.286702 0.089785 0
1.254432 0.081731 0
1.225750 0.069232 0
1.201899 0.052848 0
1.183621 0.032922 0
1.171403 0.009363 0
1.166055 -0.017644 0
1.169392 -0.046025 0
1.182650 -0.071408 0
1.205607 -0.088578 0
1.236867 -0.093099 0
1.273414 -0.082556 0
1.309865 -0.057941 0
1.338927 -0.024558 0
1.354032 0.009901 0
1.354020 0.040124 0
1.342007 0.064336 0
1.321173 0.082185 0
1.294300 0.093964 0
1.263684 0.100244 0
1.231168 0.101602 0
1.198240 0.098502 0
1.166126 0.091294 0
1.135845 0.080296 0
1.108209 0.065940 0
1.083753 0.048889 0
1.062613 0.030022 0
1.044456 0.010203 0
1.028686 -0.009954 0
1.015211 -0.029956 0
1.005410 -0.049306 0
1.001645 -0.067523 0
1.006349 -0.083707 0
1.020962 -0.095956 0
1.045180 -0.101485 0
1.077063 -0.097495 0
1.113498 -0.082258 0
1.150571 -0.056052 0
1.183728 -0.021966 0
1.207988 0.013831 0
1.220490 0.045847 0
1.222101 0.071664 0
1.214491 0.090085 0
1.199647 0.100520 0
1.179612 0.102960 0
1.156289 0.098019 0
1.131304 0.086950 0
1.105947 0.071576 0
1.081182 0.054045 0
1.057652 0.036429 0
1.035639 0.020257 0
1.015171 0.006213 0
0.996487 -0.005939 0
0.980308 -0.017106 0
0.968099 -0.028254 0
0.961727 -0.039884 0
0.962542 -0.051674 0
0.970860 -0.062335 0
0.985954 -0.069985 0
1.006381 -0.072709 0
1.030343 -0.069032 0
1.055934 -0.058225 0
1.081246 -0.040557 0
1.104298 -0.017562 0
1.122753 0.007511 0
1.134833 0.031088 0
1.140495 0.050748 0
1.140311 0.064750 0
1.135111 0.071898 0
1.125749 0.071821 0
1.112979 0.065155 0
1.097450 0.053473 0
1.079752 0.038528 0
1.060204 0.027945 0
1.000000 -0.008574 0
1.002466 -0.026578 0
1.007828 -0.047187 0
1.017202 -0.072202 0
1.032752 -0.103305 0
1.058331 -0.141474 0
1.100354 -0.184805 0
1.166743 -0.230593 0
1.280387 -0.239956 0
1.349891 -0.200939 0
1.383365 -0.153654 0
1.399661 -0.114030 0
1.407401 -0.083869 0
1.410764 -0.062194 0
1.413377 -0.047079 0
1.418704 -0.034810 0
1.428207 -0.020153 0
1.438566 0.000313 0
1.442627 0.025758 0
1.437138 0.052921 0
1.422163 0.078487 0
1.399146 0.100048 0
1.369862 0.116161 0
1.336081 0.125963 0
1.299661 0.128922 0
1.262640 0.124843 0
1.227168 0.113998 0
1.195177 0.097224 0
1.167793 0.075725 0
1.144937 0.050452 0
1.125667 0.021474 0
1.108915 -0.011988 0
1.094918 -0.048722 0
1.087836 -0.083796 0
1.091683 -0.111153 0
1.109503 -0.125301 0
1.141567 -0.121459 0
1.184121 -0.097099 0
1.229428 -0.054833 0
1.266963 -0.004716 0
1.287582 0.041150 0
1.291770 0.077324 0
1.283612 0.103700 0
1.266471 0.121161 0
1.243053 0.130870 0
1.215506 0.133903 0
1.185549 0.131101 0
1.154568 0.123085 0
1.123691 0.110392 0
1.093746 0.093709 0
1.065056 0.074113 0
1.037111 0.053092 0
1.008643 0.032083 0
0.978694 0.011582 0
0.948292 -0.009620 0
0.921265 -0.033221 0
0.903376 -0.059527 0
0.898723 -0.086745 0
0.907833 -0.110901 0
0.928884 -0.127061 0
0.959133 -0.131025 0
0.995598 -0.120363 0
1.035212 -0.094928 0
1.074719 -0.057158 0
1.110255 -0.012636 0
1.136991 0.030587 0
1.153149 0.066851 0
1.159497 0.094226 0
1.157306 0.111879 0
1.148039 0.119799 0
1.133141 0.118740 0
1.113915 0.110167 0
1.091436 0.096142 0
1.066485 0.079104 0
1.039558 0.061465 0
1.011084 0.045027 0
0.981906 0.030422 0
0.953752 0.016912 0
0.929153 0.002713 0
0.910728 -0.013927 0
0.900524 -0.033267 0
0.899352 -0.053679 0
0.906586 -0.072460 0
0.920754 -0.086779 0
0.940128 -0.094338 0
0.963029 -0.093638 0
0.987920 -0.084085 0
1.013423 -0.066077 0
1.038241 -0.041089 0
1.060972 -0.011869 0
1.079573 0.017412 0
1.092782 0.042994 0
1.100398 0.062654 0
1.102491 0.075027 0
1.099252 0.079699 0
1.090941 0.077278 0
1.077910 0.069265 0
1.060660 0.057340 0
1.039802 0.048432 0
1.000000 -0.009389 0
1.000549 -0.029232 0
1.001921 -0.052435 0
1.004939 -0.081741 0
1.011527 -0.120507 0
1.025966 -0.172680 0
1.057581 -0.239957 0
1.123697 -0.334295 0
1.293798 -0.343025 0
1.335916 -0.246541 0
1.327408 -0.167548 0
1.313483 -0.116025 0
1.299327 -0.081057 0
1.284494 -0.058358 0
1.270972 -0.046303 0
1.263959 -0.040647 0
1.269401 -0.032127 0
1.287624 -0.010758 0
1.306868 0.023107 0
1.313518 0.060865 0
1.308438 0.096033 0
1.294060 0.125346 0
1.272211 0.147361 0
1.244113 0.161273 0
1.211169 0.166391 0
1.175339 0.162276 0
1.139165 0.149193 0
1.105134 0.128608 0
1.073871 0.103095 0
1.042513 0.075059 0
1.006685 0.045397 0
0.965344 0.013119 0
0.922637 -0.024931 0
0.887961 -0.068161 0
0.873185 -0.110239 0
0.882100 -0.142980 0
0.912453 -0.157177 0
0.959578 -0.145805 0
1.017321 -0.107396 0
1.077398 -0.048248 0
1.128356 0.015318 0
1.160988 0.068308 0
1.177064 0.107484 0
1.180060 0.134525 0
1.172743 0.151210 0
1.157420 0.159106 0
1.136040 0.159441 0
1.110174 0.153152 0
1.080855 0.141119 0
1.048272 0.124575 0
1.011614 0.105525 0
0.969825 0.086437 0
0.923545 0.068624 0
0.876812 0.050402 0
0.836297 0.027480 0
0.807973 -0.004381 0
0.794790 -0.044972 0
0.796103 -0.088155 0
0.809150 -0.126110 0
0.831173 -0.152778 0
0.860093 -0.164204 0
0.894224 -0.158334 0
0.931850 -0.135172 0
0.971017 -0.097008 0
1.009411 -0.048440 0
1.043665 0.002956 0
1.069614 0.049160 0
1.086439 0.085931 0
1.094481 0.111981 0
1.094463 0.127128 0
1.087215 0.132145 0
1.073488 0.128658 0
1.053834 0.119008 0
1.028632 0.105925 0
0.998421 0.091832 0
0.964529 0.077911 0
0.929609 0.063548 0
0.897475 0.046819 0
0.872030 0.025923 0
0.855775 0.000380 0
0.849117 -0.028504 0
0.851009 -0.057731 0
0.859756 -0.083732 0
0.873717 -0.103522 0
0.891550 -0.114979 0
0.912170 -0.116819 0
0.934620 -0.108614 0
0.957995 -0.090872 0
0.981399 -0.065108 0
1.003905 -0.033818 0
1.024289 -0.000719 0
1.040694 0.029925 0
1.052201 0.055043 0
1.058318 0.073045 0
1.058757 0.083372 0
1.053390 0.086497 0
1.042297 0.083753 0
1.025866 0.076636 0
1.004892 0.070617 0
1.000000 -0.009122 0
0.998272 -0.028500 0
0.994707 -0.051579 0
0.989251 -0.081809 0
0.982312 -0.124331 0
0.975944 -0.187523 0
0.977409 -0.282525 0
1.008523 -0.466794 0
1.197728 -0.452164 0
1.146835 -0.234546 0
1.057001 -0.131225 0
1.007752 -0.085958 0
0.974179 -0.054882 0
0.942727 -0.033828 0
0.908548 -0.026535 0
0.880368 -0.033235 0
0.873408 -0.043818 0
0.898799 -0.037156 0
0.949017 -0.000138 0
0.996984 0.051348 0
1.025622 0.097943 0
1.040835 0.136271 0
1.044633 0.166105 0
1.036807 0.187003 0
1.017536 0.197696 0
0.987435 0.196847 0
0.946969 0.184203 0
0.896182 0.162523 0
0.835861 0.138356 0
0.769885 0.117650 0
0.705928 0.098655 0
0.653597 0.072073 0
0.621211 0.028674 0
0.610899 -0.034335 0
0.619946 -0.105289 0
0.644841 -0.164570 0
0.682931 -0.198940 0
0.732645 -0.201964 0
0.792366 -0.172648 0
0.859157 -0.115750 0
0.927364 -0.042438 0
0.985563 0.028618 0
1.026276 0.084628 0
1.051392 0.125483 0
1.063013 0.153510 0
1.062978 0.170605 0
1.052870 0.178348 0
1.033784 0.178271 0
1.005994 0.172295 0
0.968949 0.162950 0
0.922301 0.152562 0
0.868161 0.141165 0
0.812885 0.125101 0
0.765762 0.098837 0
0.734613 0.059228 0
0.721974 0.008296 0
0.724243 -0.047648 0
0.735517 -0.101096 0
0.751958 -0.145964 0
0.772113 -0.177998 0
0.795916 -0.194073 0
0.823626 -0.192120 0
0.855053 -0.171721 0
0.889237 -0.134717 0
0.924572 -0.085282 0
0.958986 -0.029613 0
0.988886 0.024080 0
1.011435 0.069362 0
1.025962 0.103859 0
1.032341 0.127069 0
1.030656 0.139718 0
1.021009 0.143550 0
1.003531 0.141001 0
0.978694 0.134519 0
0.947917 0.125570 0
0.914064 0.113842 0
0.881233 0.097481 0
0.853648 0.074496 0
0.834277 0.044419 0
0.824107 0.008991 0
0.822217 -0.028497 0
0.826611 -0.064314 0
0.835455 -0.095163 0
0.847507 -0.118568 0
0.862040 -0.132785 0
0.878625 -0.136702 0
0.896895 -0.129905 0
0.916387 -0.112852 0
0.936486 -0.086996 0
0.956445 -0.054756 0
0.975388 -0.019374 0
0.991877 0.015085 0
1.004426 0.045031 0
1.012149 0.068472 0
1.014430 0.084629 0
1.010903 0.093738 0
1.001547 0.096788 0
0.986850 0.094744 0
0.968043 0.091606 0
1.000000 -0.007661 0
0.996049 -0.023939 0
0.987527 -0.043416 0
0.973089 -0.069346 0
0.950406 -0.107197 0
0.915740 -0.167770 0
0.863359 -0.272525 0
0.789173 -0.554602 0
0.551040 -0.384858 0
0.492417 0.000000 0
0.422308 -0.019128 0
0.361049 -0.033207 0
0.346147 -0.016024 0
0.340340 0.007285 0
0.326628 0.016060 0
0.314777 -0.005506 0
0.323405 -0.050559 0
0.365831 -0.086369 0
0.443495 -0.075081 0
0.540117 -0.015742 0
0.624733 0.052180 0
0.684137 0.106332 0
0.722825 0.151387 0
0.740897 0.188368 0
0.737661 0.215763 0
0.712699 0.232844 0
0.666132 0.240448 0
0.600527 0.239723 0
0.524345 0.229402 0
0.453264 0.205005 0
0.404724 0.161699 0
0.388769 0.097849 0
0.403915 0.017776 0
0.437442 -0.066891 0
0.473975 -0.144180 0
0.508591 -0.205968 0
0.543551 -0.244980 0
0.583312 -0.255235 0
0.631441 -0.233905 0
0.688848 -0.183245 0
0.753263 -0.111086 0
0.818905 -0.030604 0
0.874366 0.041655 0
0.914498 0.097788 0
0.940057 0.139625 0
0.951794 0.169250 0
0.950326 0.188636 0
0.935924 0.200029 0
0.908661 0.205955 0
0.869418 0.208269 0
0.821686 0.206316 0
0.772658 0.195858 0
0.731510 0.171030 0
0.705255 0.128682 0
0.695608 0.071277 0
0.699420 0.006000 0
0.710974 -0.058506 0
0.725065 -0.115862 0
0.739167 -0.162699 0
0.752983 -0.196732 0
0.767689 -0.215715 0
0.785049 -0.217470 0
0.806425 -0.200780 0
0.832022 -0.166525 0
0.860784 -0.118187 0
0.890827 -0.061355 0
0.919683 -0.003286 0
0.943691 0.048857 0
0.961030 0.091078 0
0.970790 0.122437 0
0.972432 0.143479 0
0.965677 0.155785 0
0.950724 0.161326 0
0.928710 0.161542 0
0.902124 0.156465 0
0.874675 0.144599 0
0.850362 0.123968 0
0.832185 0.093779 0
0.821356 0.055469 0
0.817436 0.012444 0
0.819039 -0.031003 0
0.824351 -0.070964 0
0.831907 -0.104624 0
0.840849 -0.130102 0
0.850881 -0.146091 0
0.862096 -0.151668 0
0.874706 -0.146371 0
0.888772 -0.130459 0
0.904043 -0.105161 0
0.919943 -0.072716 0
0.935655 -0.036149 0
0.950129 0.000890 0
0.961795 0.034773 0
0.969518 0.063043 0
0.972507 0.084620 0
0.970317 0.099380 0
0.962962 0.107806 0
0.951067 0.110140 0
0.936059 0.109278 0
1.000000 -0.005172 0
0.994457 -0.016027 0
0.982358 -0.028619 0
0.961336 -0.044686 0
0.926771 -0.066978 0
0.869586 -0.100468 0
0.770444 -0.155946 0
0.587264 -0.250937 0
0.000000 -0.155404 0
0.000000 0.000000 0
0.000000 0.000000 0
-0.028612 -0.019277 0
-0.044536 -0.034163 0
-0.064587 -0.014304 0
-0.086838 -0.000970 0
-0.095319 -0.030012 0
-0.076492 -0.094875 0
-0.033087 -0.157248 0
0.035621 -0.174426 0
0.136281 -0.129893 0
0.247321 -0.046080 0
0.338914 0.038177 0
0.402781 0.109344 0
0.439944 0.172166 0
0.451081 0.225893 0
0.437832 0.268378 0
0.405124 0.296382 0
0.363315 0.304319 0
0.327276 0.285629 0
0.310871 0.237283 0
0.320597 0.163164 0
0.353401 0.072894 0
0.397097 -0.019992 0
0.437087 -0.104392 0
0.467993 -0.176438 0
0.489564 -0.234148 0
0.505458 -0.273657 0
0.522028 -0.289850 0
0.546091 -0.278183 0
0.582089 -0.237571 0
0.630161 -0.172494 0
0.686356 -0.092485 0
0.742893 -0.010965 0
0.788960 0.059792 0
0.821209 0.116215 0
0.839141 0.160337 0
0.842607 0.194219 0
0.831864 0.219937 0
0.808331 0.238802 0
0.775796 0.249927 0
0.741025 0.249326 0
0.712335 0.231347 0
0.696188 0.192510 0
0.694374 0.134747 0
0.704154 0.065072 0
0.720558 -0.007060 0
0.737900 -0.073285 0
0.752668 -0.129283 0
0.763308 -0.173877 0
0.769913 -0.206518 0
0.774114 -0.226137 0
0.778692 -0.230854 0
0.786634 -0.218691 0
0.799886 -0.189073 0
0.818561 -0.144084 0
0.841105 -0.088510 0
0.865071 -0.028781 0
0.887130 0.028018 0
0.904350 0.076762 0
0.915188 0.115668 0
0.918747 0.144833 0
0.914738 0.165260 0
0.903748 0.177971 0
0.887552 0.183123 0
0.869077 0.179608 0
0.851743 0.165608 0
0.838395 0.139976 0
0.830459 0.103507 0
0.827869 0.059174 0
0.829603 0.011313 0
0.834234 -0.035407 0
0.840247 -0.077177 0
0.846473 -0.111655 0
0.852249 -0.137536 0
0.857487 -0.154027 0
0.862634 -0.160522 0
0.868451 -0.156577 0
0.875651 -0.142185 0
0.884561 -0.118162 0
0.894966 -0.086364 0
0.906189 -0.049556 0
0.917258 -0.011051 0
0.926842 0.025645 0
0.933683 0.057761 0
0.936926 0.083831 0
0.936132 0.103283 0
0.931361 0.116038 0
0.923249 0.121648 0
0.913065 0.122328 0
1.000000 -0.002119 0
0.993939 -0.006298 0
0.980758 -0.010294 0
0.957993 -0.013755 0
0.920955 -0.015441 0
0.860971 -0.011433 0
0.761557 0.009809 0
0.589628 0.113316 0
0.275904 0.099876 0
0.000000 0.000000 0
0.000000 0.000000 0
0.000000 0.000000 0
-0.021125 0.018106 0
-0.106265 0.049587 0
-0.170000 0.046792 0
-0.191524 -0.015853 0
-0.176421 -0.112793 0
-0.151654 -0.198485 0
-0.119369 -0.244452 0
-0.067042 -0.227445 0
0.009893 -0.150456 0
0.097441 -0.049129 0
0.171365 0.050356 0
0.222331 0.140068 0
0.252246 0.217877 0
0.265059 0.278805 0
0.268600 0.314973 0
0.274204 0.317581 0
0.292771 0.281857 0
0.329850 0.211698 0
0.383631 0.119182 0
0.444919 0.021358 0
0.497810 -0.065904 0
0.536140 -0.137786 0
0.558768 -0.196658 0
0.566123 -0.243431 0
0.561182 -0.277440 0
0.550170 -0.295867 0
0.541919 -0.293966 0
0.545135 -0.267313 0
0.564623 -0.215352 0
0.599178 -0.143336 0
0.642643 -0.060949 0
0.685145 0.019472 0
0.717955 0.089444 0
0.738520 0.147853 0
0.746257 0.195913 0
0.742122 0.234306 0
0.729176 0.262025 0
0.712886 0.275579 0
0.700134 0.269781 0
0.696720 0.240701 0
0.704888 0.188999 0
0.722940 0.120724 0
0.746899 0.045102 0
0.771758 -0.027737 0
0.792861 -0.090608 0
0.807988 -0.141264 0
0.816004 -0.179940 0
0.816804 -0.207536 0
0.811662 -0.224492 0
0.803459 -0.229988 0
0.796236 -0.221971 0
0.793886 -0.198450 0
0.798576 -0.159403 0
0.810009 -0.107863 0
0.825948 -0.049309 0
0.843238 0.009580 0
0.858337 0.063022 0
0.869094 0.108043 0
0.874389 0.143931 0
0.874042 0.170786 0
0.868935 0.188515 0
0.861001 0.196217 0
0.852808 0.192279 0
0.846754 0.175286 0
0.844290 0.145258 0
0.845656 0.104311 0
0.850185 0.056330 0
0.856808 0.006084 0
0.864213 -0.041640 0
0.871120 -0.083197 0
0.876508 -0.116620 0
0.879718 -0.141109 0