# vtk DataFile Version 2.0
generated by CFD-lab course output (written by Tobias Neckel) 
ASCII

DATASET STRUCTURED_GRID
DIMENSIONS  99 19 1 
POINTS 1881 float

0.000000 0.000000 0
0.100000 0.000000 0
0.200000 0.000000 0
0.300000 0.000000 0
0.400000 0.000000 0
0.500000 0.000000 0
0.600000 0.000000 0
0.700000 0.000000 0
0.800000 0.000000 0
0.900000 0.000000 0
1.000000 0.000000 0
1.100000 0.000000 0
1.200000 0.000000 0
1.300000 0.000000 0
1.400000 0.000000 0
1.500000 0.000000 0
1.600000 0.000000 0
1.700000 0.000000 0
1.800000 0.000000 0
1.900000 0.000000 0
2.000000 0.000000 0
2.100000 0.000000 0
2.200000 0.000000 0
2.300000 0.000000 0
2.400000 0.000000 0
2.500000 0.000000 0
2.600000 0.000000 0
2.700000 0.000000 0
2.800000 0.000000 0
2.900000 0.000000 0
3.000000 0.000000 0
3.100000 0.000000 0
3.200000 0.000000 0
3.300000 0.000000 0
3.400000 0.000000 0
3.500000 0.000000 0
3.600000 0.000000 0
3.700000 0.000000 0
3.800000 0.000000 0
3.900000 0.000000 0
4.000000 0.000000 0
4.100000 0.000000 0
4.200000 0.000000 0
4.300000 0.000000 0
4.400000 0.000000 0
4.500000 0.000000 0
4.600000 0.000000 0
4.700000 0.000000 0
4.800000 0.000000 0
4.900000 0.000000 0
5.000000 0.000000 0
5.100000 0.000000 0
5.200000 0.000000 0
5.300000 0.000000 0
5.400000 0.000000 0
5.500000 0.000000 0
5.600000 0.000000 0
5.700000 0.000000 0
5.800000 0.000000 0
5.900000 0.000000 0
6.000000 0.000000 0
6.100000 0.000000 0
6.200000 0.000000 0
6.300000 0.000000 0
6.400000 0.000000 0
6.500000 0.000000 0
6.600000 0.000000 0
6.700000 0.000000 0
6.800000 0.000000 0
6.900000 0.000000 0
7.000000 0.000000 0
7.100000 0.000000 0
7.200000 0.000000 0
7.300000 0.000000 0
7.400000 0.000000 0
7.500000 0.000000 0
7.600000 0.000000 0
7.700000 0.000000 0
7.800000 0.000000 0
7.900000 0.000000 0
8.000000 0.000000 0
8.100000 0.000000 0
8.200000 0.000000 0
8.300000 0.000000 0
8.400000 0.000000 0
8.500000 0.000000 0
8.600000 0.000000 0
8.700000 0.000000 0
8.800000 0.000000 0
8.900000 0.000000 0
9.000000 0.000000 0
9.100000 0.000000 0
9.200000 0.000000 0
9.300000 0.000000 0
9.400000 0.000000 0
9.500000 0.000000 0
9.600000 0.000000 0
9.700000 0.000000 0
9.800000 0.000000 0
0.000000 0.100000 0
0.100000 0.100000 0
0.200000 0.100000 0
0.300000 0.100000 0
0.400000 0.100000 0
0.500000 0.100000 0
0.600000 0.100000 0
0.700000 0.100000 0
0.800000 0.100000 0
0.900000 0.100000 0
1.000000 0.100000 0
1.100000 0.100000 0
1.200000 0.100000 0
1.300000 0.100000 0
1.400000 0.100000 0
1.500000 0.100000 0
1.600000 0.100000 0
1.700000 0.100000 0
1.800000 0.100000 0
1.900000 0.100000 0
2.000000 0.100000 0
2.100000 0.100000 0
2.200000 0.100000 0
2.300000 0.100000 0
2.400000 0.100000 0
2.500000 0.100000 0
2.600000 0.100000 0
2.700000 0.100000 0
2.800000 0.100000 0
2.900000 0.100000 0
3.000000 0.100000 0
3.100000 0.100000 0
3.200000 0.100000 0
3.300000 0.100000 0
3.400000 0.100000 0
3.500000 0.100000 0
3.600000 0.100000 0
3.700000 0.100000 0
3.800000 0.100000 0
3.900000 0.100000 0
4.000000 0.100000 0
4.100000 0.100000 0
4.200000 0.100000 0
4.300000 0.100000 0
4.400000 0.100000 0
4.500000 0.100000 0
4.600000 0.100000 0
4.700000 0.100000 0
4.800000 0.100000 0
4.900000 0.100000 0
5.000000 0.100000 0
5.100000 0.100000 0
5.200000 0.100000 0
5.300000 0.100000 0
5.400000 0.100000 0
5.500000 0.100000 0
5.600000 0.100000 0
5.700000 0.100000 0
5.800000 0.100000 0
5.900000 0.100000 0
6.000000 0.100000 0
6.100000 0.100000 0
6.200000 0.100000 0
6.300000 0.100000 0
6.400000 0.100000 0
6.500000 0.100000 0
6.600000 0.100000 0
6.700000 0.100000 0
6.800000 0.100000 0
6.900000 0.100000 0
7.000000 0.100000 0
7.100000 0.100000 0
7.200000 0.100000 0
7.300000 0.100000 0
7.400000 0.100000 0
7.500000 0.100000 0
7.600000 0.100000 0
7.700000 0.100000 0
7.800000 0.100000 0
7.900000 0.100000 0
8.000000 0.100000 0
8.100000 0.100000 0
8.200000 0.100000 0
8.300000 0.100000 0
8.400000 0.100000 0
8.500000 0.100000 0
8.600000 0.100000 0
8.700000 0.100000 0
8.800000 0.100000 0
8.900000 0.100000 0
9.000000 0.100000 0
9.100000 0.100000 0
9.200000 0.100000 0
9.300000 0.100000 0
9.400000 0.100000 0
9.500000 0.100000 0
9.600000 0.100000 0
9.700000 0.100000 0
9.800000 0.100000 0
0.000000 0.200000 0
0.100000 0.200000 0
0.200000 0.200000 0
0.300000 0.200000 0
0.400000 0.200000 0
0.500000 0.200000 0
0.600000 0.200000 0
0.700000 0.200000 0
0.800000 0.200000 0
0.900000 0.200000 0
1.000000 0.200000 0
1.100000 0.200000 0
1.200000 0.200000 0
1.300000 0.200000 0
1.400000 0.200000 0
1.500000 0.200000 0
1.600000 0.200000 0
1.700000 0.200000 0
1.800000 0.200000 0
1.900000 0.200000 0
2.000000 0.200000 0
2.100000 0.200000 0
2.200000 0.200000 0
2.300000 0.200000 0
2.400000 0.200000 0
2.500000 0.200000 0
2.600000 0.200000 0
2.700000 0.200000 0
2.800000 0.200000 0
2.900000 0.200000 0
3.000000 0.200000 0
3.100000 0.200000 0
3.200000 0.200000 0
3.300000 0.200000 0
3.400000 0.200000 0
3.500000 0.200000 0
3.600000 0.200000 0
3.700000 0.200000 0
3.800000 0.200000 0
3.900000 0.200000 0
4.000000 0.200000 0
4.100000 0.200000 0
4.200000 0.200000 0
4.300000 0.200000 0
4.400000 0.200000 0
4.500000 0.200000 0
4.600000 0.200000 0
4.700000 0.200000 0
4.800000 0.200000 0
4.900000 0.200000 0
5.000000 0.200000 0
5.100000 0.200000 0
5.200000 0.200000 0
5.300000 0.200000 0
5.400000 0.200000 0
5.500000 0.200000 0
5.600000 0.200000 0
5.700000 0.200000 0
5.800000 0.200000 0
5.900000 0.200000 0
6.000000 0.200000 0
6.100000 0.200000 0
6.200000 0.200000 0
6.300000 0.200000 0
6.400000 0.200000 0
6.500000 0.200000 0
6.600000 0.200000 0
6.700000 0.200000 0
6.800000 0.200000 0
6.900000 0.200000 0
7.000000 0.200000 0
7.100000 0.200000 0
7.200000 0.200000 0
7.300000 0.200000 0
7.400000 0.200000 0
7.500000 0.200000 0
7.600000 0.200000 0
7.700000 0.200000 0
7.800000 0.200000 0
7.900000 0.200000 0
8.000000 0.200000 0
8.100000 0.200000 0
8.200000 0.200000 0
8.300000 0.200000 0
8.400000 0.200000 0
8.500000 0.200000 0
8.600000 0.200000 0
8.700000 0.200000 0
8.800000 0.200000 0
8.900000 0.200000 0
9.000000 0.200000 0
9.100000 0.200000 0
9.200000 0.200000 0
9.300000 0.200000 0
9.400000 0.200000 0
9.500000 0.200000 0
9.600000 0.200000 0
9.700000 0.200000 0
9.800000 0.200000 0
0.000000 0.300000 0
0.100000 0.300000 0
0.200000 0.300000 0
0.300000 0.300000 0
0.400000 0.300000 0
0.500000 0.300000 0
0.600000 0.300000 0
0.700000 0.300000 0
0.800000 0.300000 0
0.900000 0.300000 0
1.000000 0.300000 0
1.100000 0.300000 0
1.200000 0.300000 0
1.300000 0.300000 0
1.400000 0.300000 0
1.500000 0.300000 0
1.600000 0.300000 0
1.700000 0.300000 0
1.800000 0.300000 0
1.900000 0.300000 0
2.000000 0.300000 0
2.100000 0.300000 0
2.200000 0.300000 0
2.300000 0.300000 0
2.400000 0.300000 0
2.500000 0.300000 0
2.600000 0.300000 0
2.700000 0.300000 0
2.800000 0.300000 0
2.900000 0.300000 0
3.000000 0.300000 0
3.100000 0.300000 0
3.200000 0.300000 0
3.300000 0.300000 0
3.400000 0.300000 0
3.500000 0.300000 0
3.600000 0.300000 0
3.700000 0.300000 0
3.800000 0.300000 0
3.900000 0.300000 0
4.000000 0.300000 0
4.100000 0.300000 0
4.200000 0.300000 0
4.300000 0.300000 0
4.400000 0.300000 0
4.500000 0.300000 0
4.600000 0.300000 0
4.700000 0.300000 0
4.800000 0.300000 0
4.900000 0.300000 0
5.000000 0.300000 0
5.100000 0.300000 0
5.200000 0.300000 0
5.300000 0.300000 0
5.400000 0.300000 0
5.500000 0.300000 0
5.600000 0.300000 0
5.700000 0.300000 0
5.800000 0.300000 0
5.900000 0.300000 0
6.000000 0.300000 0
6.100000 0.300000 0
6.200000 0.300000 0
6.300000 0.300000 0
6.400000 0.300000 0
6.500000 0.300000 0
6.600000 0.300000 0
6.700000 0.300000 0
6.800000 0.300000 0
6.900000 0.300000 0
7.000000 0.300000 0
7.100000 0.300000 0
7.200000 0.300000 0
7.300000 0.300000 0
7.400000 0.300000 0
7.500000 0.300000 0
7.600000 0.300000 0
7.700000 0.300000 0
7.800000 0.300000 0
7.900000 0.300000 0
8.000000 0.300000 0
8.100000 0.300000 0
8.200000 0.300000 0
8.300000 0.300000 0
8.400000 0.300000 0
8.500000 0.300000 0
8.600000 0.300000 0
8.700000 0.300000 0
8.800000 0.300000 0
8.900000 0.300000 0
9.000000 0.300000 0
9.100000 0.300000 0
9.200000 0.300000 0
9.300000 0.300000 0
9.400000 0.300000 0
9.500000 0.300000 0
9.600000 0.300000 0
9.700000 0.300000 0
9.800000 0.300000 0
0.000000 0.400000 0
0.100000 0.400000 0
0.200000 0.400000 0
0.300000 0.400000 0
0.400000 0.400000 0
0.500000 0.400000 0
0.600000 0.400000 0
0.700000 0.400000 0
0.800000 0.400000 0
0.900000 0.400000 0
1.000000 0.400000 0
1.100000 0.400000 0
1.200000 0.400000 0
1.300000 0.400000 0
1.400000 0.400000 0
1.500000 0.400000 0
1.600000 0.400000 0
1.700000 0.400000 0
1.800000 0.400000 0
1.900000 0.400000 0
2.000000 0.400000 0
2.100000 0.400000 0
2.200000 0.400000 0
2.300000 0.400000 0
2.400000 0.400000 0
2.500000 0.400000 0
2.600000 0.400000 0
2.700000 0.400000 0
2.800000 0.400000 0
2.900000 0.400000 0
3.000000 0.400000 0
3.100000 0.400000 0
3.200000 0.400000 0
3.300000 0.400000 0
3.400000 0.400000 0
3.500000 0.400000 0
3.600000 0.400000 0
3.700000 0.400000 0
3.800000 0.400000 0
3.900000 0.400000 0
4.000000 0.400000 0
4.100000 0.400000 0
4.200000 0.400000 0
4.300000 0.400000 0
4.400000 0.400000 0
4.500000 0.400000 0
4.600000 0.400000 0
4.700000 0.400000 0
4.800000 0.400000 0
4.900000 0.400000 0
5.000000 0.400000 0
5.100000 0.400000 0
5.200000 0.400000 0
5.300000 0.400000 0
5.400000 0.400000 0
5.500000 0.400000 0
5.600000 0.400000 0
5.700000 0.400000 0
5.800000 0.400000 0
5.900000 0.400000 0
6.000000 0.400000 0
6.100000 0.400000 0
6.200000 0.400000 0
6.300000 0.400000 0
6.400000 0.400000 0
6.500000 0.400000 0
6.600000 0.400000 0
6.700000 0.400000 0
6.800000 0.400000 0
6.900000 0.400000 0
7.000000 0.400000 0
7.100000 0.400000 0
7.200000 0.400000 0
7.300000 0.400000 0
7.400000 0.400000 0
7.500000 0.400000 0
7.600000 0.400000 0
7.700000 0.400000 0
7.800000 0.400000 0
7.900000 0.400000 0
8.000000 0.400000 0
8.100000 0.400000 0
8.200000 0.400000 0
8.300000 0.400000 0
8.400000 0.400000 0
8.500000 0.400000 0
8.600000 0.400000 0
8.700000 0.400000 0
8.800000 0.400000 0
8.900000 0.400000 0
9.000000 0.400000 0
9.100000 0.400000 0
9.200000 0.400000 0
9.300000 0.400000 0
9.400000 0.400000 0
[...]
POINT_DATA 1881 

VECTORS velocity float
0.500000 0.000000 0
0.502196 0.000000 0
0.507004 0.000000 0
0.514813 0.000000 0
0.526002 0.000000 0
0.540833 0.000000 0
0.559256 0.000000 0
0.580606 0.000000 0
0.603382 0.000000 0
0.625187 0.000000 0
0.644017 0.000000 0
0.658882 0.000000 0
0.669673 0.000000 0
0.676838 0.000000 0
0.681129 0.000000 0
0.683423 0.000000 0
0.684590 0.000000 0
0.685330 0.000000 0
0.686036 0.000000 0
0.686657 0.000000 0
0.686702 0.000000 0
0.685418 0.000000 0
0.682083 0.000000 0
0.676245 0.000000 0
0.667748 0.000000 0
0.656749 0.000000 0
0.643629 0.000000 0
0.628929 0.000000 0
0.613290 0.000000 0
0.597411 0.000000 0
0.582020 0.000000 0
0.567843 0.000000 0
0.555599 0.000000 0
0.546008 0.000000 0
0.539844 0.000000 0
0.537965 0.000000 0
0.541036 0.000000 0
0.549219 0.000000 0
0.562019 0.000000 0
0.578147 0.000000 0
0.595576 0.000000 0
0.611833 0.000000 0
0.624511 0.000000 0
0.631906 0.000000 0
0.633463 0.000000 0
0.629463 0.000000 0
0.620563 0.000000 0
0.607682 0.000000 0
0.591868 0.000000 0
0.574184 0.000000 0
0.555644 0.000000 0
0.537182 0.000000 0
0.519663 0.000000 0
0.503913 0.000000 0
0.490750 0.000000 0
0.480991 0.000000 0
0.475396 0.000000 0
0.474474 0.000000 0
0.478119 0.000000 0
0.485875 0.000000 0
0.497191 0.000000 0
0.511477 0.000000 0
0.528076 0.000000 0
0.546192 0.000000 0
0.564755 0.000000 0
0.582330 0.000000 0
0.597170 0.000000 0
0.607516 0.000000 0
0.612133 0.000000 0
0.610710 0.000000 0
0.603508 0.000000 0
0.591099 0.000000 0
0.574384 0.000000 0
0.554579 0.000000 0
0.533155 0.000000 0
0.511771 0.000000 0
0.492139 0.000000 0
0.475839 0.000000 0
0.464091 0.000000 0
0.457544 0.000000 0
0.456114 0.000000 0
0.458880 0.000000 0
0.464688 0.000000 0
0.472643 0.000000 0
0.482150 0.000000 0
0.492854 0.000000 0
0.504529 0.000000 0
0.516955 0.000000 0
0.529778 0.000000 0
0.542403 0.000000 0
0.553959 0.000000 0
0.563352 0.000000 0
0.569479 0.000000 0
0.571532 0.000000 0
0.569171 0.000000 0
0.562324 0.000000 0
0.551136 0.000000 0
0.535999 0.000000 0
0.517462 0.000000 0
1.000000 -0.002165 0
1.004959 -0.006954 0
1.015218 -0.012586 0
1.031476 -0.018973 0
1.054562 -0.025999 0
1.085205 -0.033242 0
1.123592 -0.039769 0
1.168633 -0.044126 0
1.217360 -0.044583 0
1.263705 -0.040640 0
1.303075 -0.033701 0
1.333652 -0.025662 0
1.355560 -0.017962 0
1.369963 -0.011461 0
1.378537 -0.006586 0
1.383174 -0.003447 0
1.385715 -0.001878 0
1.387710 -0.001413 0
1.390080 -0.001291 0
1.392736 -0.000633 0
1.394488 0.001265 0
1.393543 0.004630 0
1.388278 0.009184 0
1.377690 0.014352 0
1.361501 0.019509 0
1.340094 0.024131 0
1.314308 0.027829 0
1.285280 0.030345 0
1.254336 0.031520 0
1.222907 0.031269 0
1.192468 0.029565 0
1.164486 0.026415 0
1.140383 0.021829 0
1.121535 0.015747 0
1.109304 0.008035 0
1.105058 -0.001199 0
1.110046 -0.011261 0
1.124959 -0.020987 0
1.149298 -0.028926 0
1.181001 -0.033550 0
1.216494 -0.033673 0
1.251091 -0.028916 0
1.279775 -0.020052 0
1.298370 -0.008931 0
1.304749 0.002463 0
1.299194 0.012914 0
1.283216 0.021790 0
1.258852 0.028701 0
1.228352 0.033501 0
1.193950 0.036226 0
1.157744 0.037004 0
1.121650 0.035982 0
1.087413 0.033268 0
1.056634 0.028913 0
1.030761 0.022921 0
1.011014 0.015352 0
0.998247 0.006515 0
0.992857 -0.002725 0
0.994860 -0.011404 0
1.003936 -0.019076 0
1.019581 -0.025604 0
1.041157 -0.030887 0
1.067916 -0.034716 0
1.098879 -0.036676 0
1.132568 -0.036133 0
1.166747 -0.032409 0
1.198378 -0.025177 0
1.223902 -0.014953 0
1.239886 -0.003184 0
1.244023 0.008634 0
1.236195 0.019618 0
1.217613 0.029128 0
1.190151 0.036523 0
1.156243 0.041230 0
1.118737 0.042806 0
1.080705 0.041014 0
1.045176 0.035930 0
1.014776 0.028045 0
0.991342 0.018293 0
0.975651 0.007975 0
0.967456 -0.001337 0
0.965873 -0.008574 0
0.969675 -0.013764 0
0.977695 -0.017463 0
0.989109 -0.020211 0
1.003463 -0.022380 0
1.020551 -0.024102 0
1.040199 -0.025248 0
1.061990 -0.025449 0
1.085042 -0.024182 0
1.107906 -0.020949 0
1.128614 -0.015520 0
1.144880 -0.008179 0
1.154449 0.000309 0
1.155688 0.009208 0
1.148241 0.018035 0
1.132564 0.026325 0
1.109678 0.033674 0
1.081018 0.037439 0
1.000000 -0.004911 0
1.005118 -0.015150 0
1.015387 -0.026483 0
1.031551 -0.039319 0
1.054758 -0.053711 0
1.086404 -0.069023 0
1.127681 -0.083426 0
1.178436 -0.093768 0
1.236594 -0.095075 0
1.290164 -0.085720 0
1.332809 -0.069952 0
1.363840 -0.052492 0
1.384693 -0.036317 0
1.397335 -0.022980 0
1.403913 -0.013197 0
1.406653 -0.007145 0
1.407739 -0.004495 0
1.409183 -0.004320 0
1.412421 -0.004986 0
1.417543 -0.004377 0
1.422754 -0.000791 0
1.425214 0.006219 0
1.422627 0.015872 0
1.413780 0.026797 0
1.398530 0.037610 0
1.377490 0.047206 0
1.351709 0.054823 0
1.322466 0.059976 0
1.291165 0.062373 0
1.259283 0.061865 0
1.228316 0.058415 0
1.199710 0.052077 0
1.174794 0.042943 0
1.154751 0.031070 0
1.140636 0.016469 0
1.133482 -0.000750 0
1.134567 -0.019906 0
1.145067 -0.039249 0
1.165145 -0.056034 0
1.193690 -0.067181 0
1.228428 -0.070068 0
1.265842 -0.063255 0
1.301102 -0.047253 0
1.328618 -0.024951 0
1.343652 -0.000806 0
1.344765 0.021545 0
1.333834 0.040348 0
1.313363 0.054869 0
1.285950 0.064906 0
1.254059 0.070611 0
1.219907 0.072301 0
1.185432 0.070331 0
1.152303 0.065016 0
1.121913 0.056652 0
1.095341 0.045619 0
1.073262 0.032512 0
1.055889 0.018154 0
1.043099 0.003384 0
1.034908 -0.011083 0
1.031467 -0.024725 0
1.033050 -0.037224 0
1.040021 -0.048336 0
1.052876 -0.057719 0
1.072021 -0.064646 0
1.097271 -0.067860 0
1.127434 -0.065800 0
1.160219 -0.057143 0
1.192336 -0.041495 0
1.219724 -0.020109 0
1.238197 0.003700 0
1.245183 0.026416 0
1.241164 0.046047 0
1.227735 0.061370 0
1.207012 0.071412 0
1.181400 0.075535 0
1.153345 0.073558 0
1.125085 0.065926 0
1.098411 0.053831 0
1.074507 0.039123 0
1.053946 0.023885 0
1.036878 0.009777 0
1.023449 -0.002220 0
1.013650 -0.011822 0
1.007300 -0.019434 0
1.004399 -0.025769 0
1.005247 -0.031443 0
1.010316 -0.036736 0
1.020014 -0.041439 0
1.034353 -0.044844 0
1.052749 -0.045917 0
1.074017 -0.043572 0
1.096473 -0.036973 0
1.118030 -0.025834 0
1.136279 -0.010808 0
1.148825 0.006207 0
1.154174 0.023124 0
1.152464 0.038564 0
1.144642 0.051547 0
1.132209 0.058190 0
1.000000 -0.007251 0
1.004129 -0.022308 0
1.012685 -0.039017 0
1.026650 -0.058345 0
1.047721 -0.080857 0
1.078433 -0.106171 0
1.122024 -0.131804 0
1.180812 -0.153040 0
1.258207 -0.156312 0
1.322141 -0.136856 0
1.365757 -0.107378 0
1.393309 -0.077547 0
1.409150 -0.051455 0
1.416274 -0.030666 0
1.417228 -0.015874 0
1.414501 -0.007242 0
1.410617 -0.004385 0
1.408294 -0.006079 0
1.410198 -0.009647 0
1.417409 -0.010977 0
1.427417 -0.006420 0
1.434991 0.004763 0
1.435887 0.020630 0
1.428722 0.038453 0
1.413736 0.055802 0
1.392062 0.070952 0
1.365109 0.082851 0
1.334340 0.090887 0
1.301242 0.094699 0
1.267333 0.094114 0
1.234140 0.089135 0
1.203096 0.079934 0
1.175418 0.066785 0
1.152019 0.049903 0
1.133558 0.029302 0
1.120566 0.004870 0
1.113633 -0.022840 0
1.113962 -0.051553 0
1.122462 -0.077535 0
1.139655 -0.096816 0
1.165861 -0.105808 0
1.200196 -0.101578 0
1.239457 -0.082820 0
1.277814 -0.051478 0
1.307789 -0.013687 0
1.323095 0.022726 0
1.323462 0.053188 0
1.311914 0.076585 0
1.291479 0.092806 0
1.264933 0.102269 0
1.234681 0.105630 0
1.202741 0.103585 0
1.170756 0.096788 0
1.140013 0.085874 0
1.111450 0.071571 0
1.085640 0.054803 0
1.062755 0.036677 0
1.042544 0.018254 0
1.024446 0.000227 0
1.008141 -0.017219 0
0.994327 -0.034157 0
0.985187 -0.050708 0
0.983281 -0.066711 0
0.990519 -0.081065 0
1.007292 -0.091539 0
1.032421 -0.095349 0
1.063615 -0.090074 0
1.097930 -0.074454 0
1.132017 -0.049043 0
1.162111 -0.016826 0
1.184043 0.016648 0
1.195654 0.046574 0
1.197631 0.070672 0
1.191348 0.087562 0
1.178499 0.096471 0
1.160825 0.097327 0
1.139924 0.090864 0
1.117155 0.078623 0
1.093638 0.062758 0
1.070295 0.045605 0
1.047804 0.029161 0
1.026517 0.014654 0
1.006755 0.002385 0
0.989063 -0.008212 0
0.974415 -0.018159 0
0.964287 -0.028296 0
0.960158 -0.038868 0
0.962833 -0.049286 0
0.972181 -0.058184 0
0.987265 -0.063845 0
1.006652 -0.064672 0
1.028698 -0.059532 0
1.051727 -0.047985 0
1.074090 -0.030487 0
1.094034 -0.008687 0
1.109512 0.014396 0
1.119442 0.035857 0
1.124103 0.053929 0
1.124314 0.063646 0
1.000000 -0.009015 0
1.002711 -0.027809 0
1.008492 -0.049004 0
1.018440 -0.074357 0
1.034695 -0.105498 0
1.061099 -0.143328 0
1.104075 -0.185806 0
1.171535 -0.229952 0
1.286474 -0.236405 0
1.356453 -0.193272 0
1.389587 -0.141121 0
1.404729 -0.095884 0
1.409904 -0.059272 0
1.407674 -0.031029 0
1.399977 -0.011396 0
1.388333 -0.000514 0
1.375711 0.001726 0
1.365511 -0.003898 0
1.361501 -0.014106 0
1.368092 -0.021609 0
1.383869 -0.018371 0
1.400902 -0.002237 0
1.409363 0.022146 0
1.406651 0.048949 0
1.394083 0.074271 0
1.373764 0.095832 0
1.347523 0.112542 0
1.316880 0.123840 0
1.283270 0.129377 0
1.248200 0.128963 0
1.213257 0.122650 0
1.179947 0.110797 0
1.149397 0.094017 0
1.122061 0.072928 0
1.097750 0.047923 0
1.075800 0.019182 0
1.055017 -0.013292 0
1.035019 -0.048067 0
1.019822 -0.081711 0
1.015054 -0.110564 0
1.025075 -0.130597 0
1.050896 -0.136842 0
1.090037 -0.124867 0
1.137187 -0.093285 0
1.184656 -0.046092 0
1.223066 0.005869 0
1.245081 0.051530 0
1.251871 0.086852 0
1.246598 0.111888 0
1.232179 0.127408 0
1.211172 0.134493 0
1.185766 0.134256 0
1.157780 0.127744 0
1.128671 0.115957 0
1.099502 0.099990 0
1.070790 0.081206 0
1.042299 0.061249 0
1.013147 0.041692 0
0.982639 0.023319 0
0.951625 0.005395 0
0.923121 -0.014266 0
0.901625 -0.037285 0
0.891374 -0.063045 0
0.893812 -0.088650 0
0.907824 -0.109756 0
0.931118 -0.122118 0
0.961128 -0.122648 0
0.995323 -0.109895 0
1.031235 -0.084290 0
1.066317 -0.048328 0
1.097503 -0.007130 0
1.120930 0.032457 0
1.135377 0.065675 0
1.141313 0.090543 0
1.139658 0.106057 0
1.131502 0.112131 0
1.117934 0.109596 0
1.099952 0.100118 0
1.078431 0.085983 0
1.054105 0.069720 0
1.027639 0.053556 0
0.999867 0.038829 0
0.972160 0.025630 0
0.946586 0.012906 0
0.925528 -0.000992 0
0.911034 -0.017186 0
0.904409 -0.035282 0
0.905807 -0.053462 0
0.914340 -0.069275 0
0.928594 -0.080387 0
0.947033 -0.085005 0
0.968197 -0.082048 0
0.990772 -0.071226 0
1.013591 -0.053114 0
1.035568 -0.029214 0
1.055437 -0.002284 0
1.071498 0.023973 0
1.083153 0.046674 0
1.090410 0.059540 0
1.000000 -0.009942 0
1.000773 -0.030780 0
1.002537 -0.054747 0
1.006109 -0.084550 0
1.013419 -0.123518 0
1.028786 -0.175551 0
1.061644 -0.242241 0
1.129503 -0.335442 0
1.302821 -0.341232 0
1.347247 -0.239969 0
1.340965 -0.155653 0
1.329843 -0.097857 0
1.319228 -0.054378 0
1.306414 -0.020710 0
1.287073 0.003489 0
1.262408 0.017038 0
1.236171 0.018441 0
1.212864 0.008126 0
1.196554 -0.012240 0
1.192993 -0.033346 0
1.207942 -0.039216 0
1.237204 -0.020723 0
1.265977 0.014882 0
1.279603 0.053734 0
1.279979 0.088688 0
1.271142 0.117510 0
1.255084 0.139733 0
1.232906 0.155137 0
1.205666 0.163376 0
1.174752 0.164125 0
1.141921 0.157386 0
1.108945 0.143793 0
1.076632 0.124670 0
1.043513 0.101550 0
1.006050 0.075569 0
0.961841 0.047613 0
0.913310 0.017953 0
0.867369 -0.016345 0
0.833250 -0.057557 0
0.819099 -0.102056 0
0.826135 -0.141641 0
0.851697 -0.166534 0
0.892137 -0.169112 0
0.943424 -0.146103 0
1.000715 -0.099570 0
1.057469 -0.037697 0
1.104137 0.024385 0
1.134416 0.075067 0
1.150120 0.112498 0
1.153651 0.137695 0
1.147271 0.152042 0
1.133049 0.156977 0
1.112767 0.153882 0
1.087773 0.144151 0
1.058729 0.129452 0
1.025440 0.112005 0
0.987255 0.094318 0
0.944429 0.077914 0
0.899754 0.061750 0
0.858755 0.042303 0
0.827483 0.015847 0
0.809534 -0.018955 0
0.805285 -0.058891 0
0.812595 -0.097508 0
0.828725 -0.128839 0
0.851480 -0.148649 0
0.879256 -0.154276 0
0.910681 -0.144561 0
0.944323 -0.120038 0
0.978592 -0.083098 0
1.011665 -0.037968 0
1.040753 0.008698 0
1.062739 0.050288 0
1.076986 0.083280 0
1.083572 0.106281 0
1.082886 0.119051 0
1.075417 0.122414 0
1.061631 0.118126 0
1.041949 0.108604 0
1.016889 0.096397 0
0.987435 0.083398 0
0.955490 0.070131 0
0.924010 0.055666 0
0.896502 0.038420 0
0.875980 0.017393 0
0.863916 -0.007177 0
0.860168 -0.033640 0
0.863619 -0.059216 0
0.872811 -0.080971 0
0.886378 -0.096537 0
0.903176 -0.104275 0
0.922237 -0.103271 0
0.942698 -0.093379 0
0.963749 -0.075283 0
0.984619 -0.050532 0
1.004522 -0.021533 0
1.022256 0.008140 0
1.036459 0.035016 0
1.046367 0.050963 0
1.000000 -0.009772 0
0.998456 -0.030330 0
0.995216 -0.054342 0
0.990237 -0.085241 0
0.983943 -0.128177 0
0.978461 -0.191554 0
0.981217 -0.286525 0
1.014382 -0.471131 0
1.207987 -0.454151 0
1.160452 -0.231416 0
1.075007 -0.123713 0
1.031250 -0.074129 0
1.010089 -0.035815 0
0.988525 0.001148 0
0.955635 0.032625 0
0.911600 0.050394 0
0.861486 0.051267 0
0.813833 0.035711 0
0.779421 0.005760 0
0.768610 -0.032988 0
0.791601 -0.062572 0
0.843561 -0.060268 0
0.912192 -0.020252 0
0.976251 0.034945 0
1.019236 0.082732 0
1.044158 0.120726 0
1.056111 0.150775 0
1.056383 0.173256 0
1.045837 0.187529 0
1.025519 0.192707 0
0.996270 0.188457 0
0.958113 0.176085 0
0.910160 0.159449 0
0.852108 0.143514 0
0.786810 0.129602 0
0.721724 0.111932 0
0.667772 0.081192 0
0.634852 0.032007 0
0.625049 -0.033428 0
0.633463 -0.103439 0
0.654563 -0.163189 0
0.685332 -0.202843 0
0.724954 -0.216599 0
0.773097 -0.201868 0
0.828455 -0.160137 0
0.888077 -0.097551 0
0.946661 -0.025417 0
0.994761 0.040869 0
1.028306 0.092653 0
1.048470 0.130258 0
1.056615 0.155095 0
1.054124 0.168760 0
1.042158 0.173018 0
1.021356 0.169994 0
0.991696 0.162322 0
0.953011 0.152679 0
0.906518 0.142260 0
0.856506 0.129194 0
0.810247 0.108996 0
0.775191 0.077670 0
0.755521 0.034959 0
0.750732 -0.015081 0
0.756523 -0.066099 0
0.768639 -0.112083 0
0.784698 -0.148636 0
0.803869 -0.172645 0
0.826114 -0.181848 0
0.851460 -0.174963 0
0.879517 -0.152204 0
0.909341 -0.115673 0
0.939574 -0.069293 0
0.968525 -0.018618 0
0.993228 0.029440 0
1.011667 0.069709 0
1.023119 0.100157 0
1.027276 0.120287 0
1.024010 0.130851 0
1.013304 0.133584 0
0.995382 0.130724 0
0.971069 0.124233 0
0.942227 0.114954 0
0.911874 0.102254 0
0.883672 0.084618 0
0.860911 0.060935 0
0.845583 0.031594 0
0.838104 -0.001374 0
0.837488 -0.034984 0
0.842144 -0.066104 0
0.850677 -0.092034 0
0.862098 -0.110752 0
0.875765 -0.120864 0
0.891226 -0.121569 0
0.908058 -0.112738 0
0.925769 -0.095036 0
0.943769 -0.069987 0
0.961378 -0.039921 0
0.977783 -0.007963 0
0.991576 0.022563 0
1.001329 0.041399 0
1.000000 -0.008385 0
0.996173 -0.025986 0
0.987871 -0.046530 0
0.973762 -0.073279 0
0.951537 -0.111745 0
0.917519 -0.172828 0
0.866103 -0.278164 0
0.793525 -0.562213 0
0.556050 -0.389481 0
0.499162 0.000000 0
0.431623 -0.017274 0
0.376480 -0.032915 0
0.380197 -0.011629 0
0.393665 0.033760 0
0.379480 0.080423 0
0.338677 0.111187 0
0.287285 0.116201 0
0.243722 0.090183 0
0.227348 0.032987 0
0.250239 -0.045514 0
0.303871 -0.114163 0
0.378753 -0.141313 0
0.472807 -0.117807 0
0.578863 -0.053311 0
0.674974 0.020779 0
0.745305 0.080632 0
0.791411 0.127506 0
0.817587 0.165409 0
0.825050 0.194239 0
0.814289 0.213692 0
0.785208 0.224792 0
0.737892 0.229904 0
0.674961 0.230677 0
0.604689 0.224906 0
0.541143 0.205961 0
0.498655 0.166662 0
0.484316 0.104838 0
0.495351 0.026391 0
0.520820 -0.056156 0
0.548400 -0.131563 0
0.573972 -0.193507 0
0.598971 -0.236927 0
0.627076 -0.256882 0
0.661947 -0.249604 0
0.705391 -0.214548 0
0.756481 -0.155904 0
0.811920 -0.082300 0
0.865699 -0.006577 0
0.909059 0.058789 0
0.939769 0.109385 0
0.957919 0.146388 0
0.963850 0.171434 0
0.957827 0.186649 0
0.939957 0.194612 0
0.910671 0.197796 0
0.871940 0.197182 0
0.828528 0.190824 0
0.787695 0.174187 0
0.756602 0.143068 0
0.739130 0.097033 0
0.734784 0.040311 0
0.740123 -0.019951 0
0.750565 -0.076792 0
0.762728 -0.125678 0
0.775113 -0.164065 0
0.787735 -0.190063 0
0.801574 -0.201867 0
0.817874 -0.197966 0
0.837412 -0.177921 0
0.860039 -0.143157 0
0.884721 -0.097154 0
0.909905 -0.044957 0
0.933502 0.007146 0
0.952694 0.053388 0
0.966037 0.090671 0
0.972644 0.118159 0
0.971959 0.136386 0
0.963792 0.146754 0
0.948580 0.150839 0
0.927750 0.149551 0
0.903850 0.142593 0
0.880168 0.128686 0
0.859848 0.106629 0
0.844990 0.076510 0
0.836287 0.040200 0
0.833289 0.000919 0
0.834874 -0.037680 0
0.839660 -0.072406 0
0.846549 -0.100924 0
0.854879 -0.121625 0
0.864390 -0.133402 0
0.875074 -0.135563 0
0.886976 -0.127922 0
0.899995 -0.110994 0
0.913785 -0.086141 0
0.927756 -0.055547 0
0.941110 -0.022058 0
0.952726 0.011470 0
0.960844 0.032878 0
1.000000 -0.005937 0
0.994506 -0.018195 0
0.982494 -0.031934 0
0.961600 -0.048911 0
0.927217 -0.071937 0
0.870285 -0.106123 0
0.771427 -0.162533 0
0.588551 -0.258900 0
0.000000 -0.159787 0
0.000000 0.000000 0
0.000000 0.000000 0
-0.025417 -0.030830 0
-0.040175 -0.052984 0
-0.054295 0.001876 0
-0.072042 0.087618 0
-0.097776 0.142586 0
-0.121268 0.146215 0
-0.124622 0.095647 0
-0.092314 -0.000749 0
-0.036550 -0.109505 0
0.025134 -0.191084 0
0.093085 -0.229203 0
0.171992 -0.220363 0
0.266292 -0.167224 0
0.370771 -0.083712 0
0.464354 0.004287 0
0.532103 0.078492 0
0.574540 0.139616 0
0.593997 0.190826 0
0.591416 0.232548 0
0.568425 0.264854 0
0.529747 0.286334 0
0.485055 0.292658 0
0.447825 0.277339 0
0.430218 0.235646 0
0.437289 0.168771 0
0.465040 0.084510 0
0.502774 -0.004485 0
0.537488 -0.086467 0
0.563843 -0.156587 0
0.581104 -0.213760 0
0.591646 -0.255951 0
0.600371 -0.279577 0
0.613436 -0.280181 0
0.635988 -0.254670 0
0.669929 -0.204080 0
0.713222 -0.134635 0
0.761046 -0.056271 0
0.805680 0.018583 0
0.840234 0.081397 0
0.863019 0.131012 0
0.873407 0.168850 0
0.871198 0.196911 0
0.856889 0.217150 0
0.832489 0.230339 0
0.802356 0.234822 0
0.772958 0.226507 0
0.750868 0.201122 0
0.740007 0.157565 0
0.740383 0.099494 0
0.749106 0.033973 0
0.762128 -0.030856 0
0.775494 -0.088698 0
0.786832 -0.136627 0
0.795126 -0.173640 0
0.800659 -0.199105 0
0.804910 -0.211988 0
0.810115 -0.210804 0
0.818414 -0.194370 0
0.830943 -0.162983 0
0.847423 -0.119160 0
0.866438 -0.067400 0
0.885986 -0.013349 0
0.903349 0.037173 0
0.916403 0.080206 0
0.923869 0.114364 0
0.925020 0.139703 0
0.919764 0.156963 0
0.908884 0.166765 0
0.894179 0.168963 0
0.878238 0.162536 0
0.863773 0.146256 0
0.852819 0.119796 0
0.846268 0.084496 0
0.843966 0.043296 0
0.845136 0.000040 0
0.848713 -0.041355 0
0.853563 -0.077778 0
0.858801 -0.107252 0
0.863936 -0.128593 0
0.868924 -0.141059 0
0.874107 -0.144154 0
0.880011 -0.137658 0
0.887062 -0.121845 0
0.895343 -0.097748 0
0.904508 -0.067246 0
0.913836 -0.032933 0
0.922324 0.002829 0
0.928302 0.026269 0
1.000000 -0.002887 0
0.993910 -0.008477 0
0.980672 -0.013628 0
0.957834 -0.018007 0
0.920681 -0.020433 0
0.860487 -0.017039 0
0.760672 0.003569 0
0.587904 0.106187 0
0.273430 0.096043 0
0.000000 0.000000 0
0.000000 0.000000 0
0.000000 0.000000 0
-0.029950 0.018138 0
-0.109263 0.065636 0
-0.152484 0.123906 0
-0.174018 0.160408 0
-0.170806 0.143042 0
-0.129937 0.061234 0
-0.069767 -0.055077 0
-0.020901 -0.162961 0
0.013444 -0.243798 0
0.043018 -0.288170 0
0.077408 -0.291016 0
0.125526 -0.252093 0
0.190211 -0.177285 0
0.265224 -0.080702 0
0.333283 0.017318 0
0.382528 0.103514 0
0.412498 0.177364 0
0.424562 0.239264 0
0.422368 0.286462 0
0.413471 0.313277 0
0.408481 0.312606 0
0.417361 0.279752 0
0.444981 0.216508 0
0.489235 0.131853 0
0.542437 0.039367 0
0.591191 -0.046046 0
0.627858 -0.117218 0
0.650744 -0.175176 0
0.659676 -0.221312 0
0.656302 -0.256198 0
0.644811 -0.278671 0
0.632075 -0.285220 0
0.626172 -0.271042 0
0.633277 -0.233138 0
0.654814 -0.173417 0
0.687214 -0.099035 0
0.723957 -0.020400 0
0.756389 0.052045 0
0.779829 0.113214 0
0.792687 0.163254 0
0.794768 0.203165 0
0.787407 0.233321 0
0.773917 0.252330 0
0.759426 0.256713 0
0.749497 0.242314 0
0.747958 0.207142 0
0.755507 0.153558 0
0.770153 0.087939 0
0.788706 0.018573 0
0.807266 -0.046332 0
0.822831 -0.101490 0
0.833672 -0.145306 0
0.838880 -0.177890 0
0.838515 -0.199847 0
0.833898 -0.211325 0
0.827630 -0.211471 0
0.822978 -0.198750 0
0.822706 -0.172167 0
0.828005 -0.132650 0
0.838221 -0.083520 0
0.851430 -0.029766 0
0.865072 0.022970 0
0.876566 0.070149 0
0.884317 0.109541 0
0.887523 0.140490 0
0.886216 0.162890 0
0.881324 0.176423 0
0.874557 0.180197 0
0.867957 0.172999 0
0.863251 0.154105 0
0.861368 0.124134 0