/*--------------------------------*- C++ -*----------------------------------*\
| =========                 |                                                 |
| \\      /  F ield         | OpenFOAM: The Open Source CFD Toolbox           |
|  \\    /   O peration     | Version:  5.x                                   |
|   \\  /    A nd           | Web:      www.OpenFOAM.org                      |
|    \\/     M anipulation  |                                                 |
\*---------------------------------------------------------------------------*/
FoamFile
{
    version     2.0;
    format      ascii;
    class       volScalarField;
    location    "4.3";
    object      gradTy;
}
// * * * * * * * * * * * * * * * * * * * * * * * * * * * * * * * * * * * * * //

dimensions      [0 -1 0 1 0 0 0];

internalField   nonuniform List<scalar> 
6300
(
1088.74
1266.67
1445.91
1627.31
1811.67
1999.71
2192.06
2389.21
2591.48
2798.99
3011.62
3228.96
3450.34
3674.79
3901.09
-0.661338
-1.97048
-3.23793
-4.43238
-5.51769
-6.45162
-7.18564
-7.66608
-7.83726
-7.64686
-7.05358
-6.03645
-4.60386
-2.79992
-0.704834
-1.1173
-3.33053
-5.47774
-7.50873
-9.36453
-10.975
-12.2579
-13.1203
-13.4635
-13.1917
-12.2259
-10.5212
-8.08459
-4.98912
-1.37672
-1.59464
-4.75657
-7.8337
-10.7602
-13.4566
-15.8257
-17.7503
-19.0935
-19.7043
-19.4302
-18.137
-15.7375
-12.2239
-7.69498
-2.36723
-2.09927
-6.26737
-10.3403
-14.2416
-17.8757
-21.1209
-23.824
-25.7988
-26.83
-26.6876
-25.1541
-22.0679
-17.3782
-11.1996
-3.84156
-2.6343
-7.87325
-13.0183
-17.99
-22.6836
-26.9578
-30.6258
-33.4474
-35.129
-35.3355
-33.7233
-30.0012
-24.0211
-15.8831
-6.01271
-3.19896
-9.573
-15.8695
-22.0165
-27.9104
-33.4007
-38.2735
-42.2355
-44.9026
-45.8018
-44.4021
-40.1921
-32.8213
-22.2988
-9.18096
-3.78745
-11.3502
-18.87
-26.2959
-33.5406
-40.4607
-46.8316
-52.3182
-56.4433
-58.5662
-57.8906
-53.543
-44.7727
-31.3093
-13.8054
-4.38804
-13.1702
-21.9641
-30.756
-39.4949
-48.0693
-56.2735
-63.7614
-69.9855
-74.1284
-75.0504
-71.3157
-61.4168
-44.3598
-20.6611
-4.98257
-14.9781
-25.0601
-35.2688
-45.6133
-56.0475
-66.4311
-76.4677
-85.6081
-92.9106
-96.866
-95.2517
-85.2182
-64.0519
-31.2194
-5.54662
-16.6995
-28.0291
-39.6454
-51.6415
-64.0755
-76.9348
-90.0692
-103.068
-115.039
-124.25
-127.606
-120.152
-95.4097
-48.7216
-6.05102
-18.2438
-30.711
-43.6416
-57.2313
-71.6775
-87.1625
-103.806
-121.553
-139.926
-157.488
-170.769
-172.372
-148.713
-81.7542
-6.46456
-19.5136
-32.9292
-46.9784
-61.9637
-78.24
-96.231
-116.437
-139.411
-165.622
-195.006
-225.609
-249.851
-245.314
-158.248
-6.75808
-20.4167
-34.5135
-49.3785
-65.4044
-83.087
-103.083
-126.3
-154.029
-188.143
-231.304
-286.807
-356.108
-424.439
-388.241
-6.90906
-20.8813
-35.3294
-50.6169
-67.1875
-85.6194
-106.714
-131.648
-162.26
-201.616
-255.255
-334.205
-463.33
-708.089
-1275.66
4108.94
4297.23
4483.94
4668.17
4849.07
5025.84
5197.75
5364.19
5524.61
5678.56
5825.65
5965.57
6098.07
6222.95
6340.06
6449.28
6550.53
6643.78
6729
6806.21
6875.47
6936.83
6990.4
7036.29
7074.65
7105.61
7129.36
7146.07
7155.91
7159.09
7155.8
7146.22
7130.54
7108.97
7081.67
7048.84
7010.64
6967.26
6918.85
6865.6
6807.66
6745.19
6678.36
6607.34
6532.27
6453.31
6370.61
6284.31
6194.55
6101.45
6005.13
5905.7
5803.28
5697.97
5589.88
5479.11
5365.78
5250.01
5131.9
5011.58
4889.18
4764.81
4638.62
4510.71
4381.23
4250.28
4118.02
3984.57
3850.08
3714.73
3578.69
3442.16
3305.38
3168.6
3032.07
2896.11
2761.02
2627.11
2494.73
2364.2
2235.87
2110.05
1987.06
1867.19
1750.72
1637.9
1528.91
1423.93
1323.06
1226.36
1.38259
3.32819
5.25151
7.09042
8.79588
10.3346
11.6893
12.8565
13.8434
14.6645
15.3377
15.8815
16.3129
16.6461
16.8924
17.06
17.1548
17.1814
17.1435
17.0448
16.8894
16.6818
16.4274
16.1318
15.8012
15.4418
15.0599
14.6615
14.2522
13.8375
13.4218
13.0091
12.6024
12.2035
11.8136
11.4325
11.0594
10.6931
10.3321
9.97516
9.6216
9.27159
8.92622
8.58738
8.25755
7.93937
7.63517
7.34653
7.07389
6.81633
6.57158
6.33624
6.10614
5.87696
5.64476
5.40658
5.16077
4.90712
4.64669
4.38144
4.11357
3.84488
3.576
3.30594
3.03171
2.74834
2.44916
2.12641
1.77204
1.37864
0.94032
0.453423
-0.0830203
-0.66715
-1.29443
-1.95807
-2.6495
-3.35897
-4.07598
-4.78956
-5.48835
-6.16052
-6.79356
-7.3742
-7.88851
-8.32236
-8.66233
-8.89696
-9.01813
-9.02225
2.22715
5.58146
8.88597
12.029
14.9246
17.5171
19.7806
21.7143
23.3364
24.6764
25.7689
26.648
27.3441
27.8816
28.2788
28.5484
28.6993
28.7375
28.6684
28.4974
28.2309
27.8766
27.4434
26.941
26.38
25.771
25.1248
24.4516
23.7612
23.0625
22.3636
21.671
20.9899
20.3237
19.6737
19.0398
18.4201
17.812
17.2122
16.6184
16.0288
15.4438
14.8652
14.2965
13.7426
13.2086
12.6992
12.2174
11.7645
11.3388
10.9364
10.5508
10.1742
9.79845
9.4162
9.02189
8.61257
8.18814
7.75104
7.30548
6.85627
6.40745
5.96097
5.51566
5.06658
4.60494
4.1187
3.59361
3.01482
2.36856
1.64388
0.833958
-0.063045
-1.04378
-2.10007
-3.21974
-4.38765
-5.58685
-6.79937
-8.0068
-9.19036
-10.3306
-11.4068
-12.3968
-13.2765
-14.0209
-14.6057
-15.0097
-15.2173
-15.2216
2.96002
7.9073
12.754
17.3249
21.4908
25.1745
28.3479
31.0222
33.2369
35.0461
36.5087
37.6797
38.6053
39.3208
39.8504
40.2097
40.4076
40.45
40.3418
40.0893
39.7008
39.1869
38.5607
37.8365
37.0297
36.1559
35.2305
34.2685
33.2839
32.2899
31.2981
30.3184
29.3582
28.4224
27.5128
26.6286
25.7663
24.9207
24.086
23.2574
22.4317
21.6088
20.7917
19.9864
19.201
18.4445
17.7251
17.0487
16.4177
15.8298
15.2788
14.7541
14.2428
13.7312
13.2068
12.6606
12.0879
11.4891
10.8692
10.2364
9.60002
8.96821
8.3458
7.73233
7.12099
6.49841
5.84556
5.13953
4.35609
3.47272
2.47145
1.34112
0.0787021
-1.31044
-2.81332
-4.41082
-6.07971
-7.7945
-9.52907
-11.2575
-12.9539
-14.5919
-16.1435
-17.5774
-18.8584
-19.9485
-20.8089
-21.4043
-21.7087
-21.7094
3.54259
10.378
17.019
23.2038
28.7513
33.5671
37.6337
40.9924
43.7214
45.9153
47.6688
49.0651
50.1695
51.0277
51.6677
52.1035
52.3402
52.3795
52.2235
51.8775
51.3515
50.6596
49.8195
48.8514
47.7763
46.6155
45.3895
44.1184
42.8209
41.5148
40.216
38.9382
37.6919
36.4838
35.3161
34.1867
33.0891
32.0142
30.9518
29.8927
28.8312
27.7661
26.7019
25.6483
24.6186
23.6277
22.6899
21.8155
21.0092
20.2686
19.5839
18.9388
18.3126
17.6828
17.0295
16.338
15.6013
14.8211
14.0067
13.1732
12.3377
11.516
10.7183
9.94652
9.19214
8.43603
7.64957
6.79743
5.84178
4.74719
3.4854
2.03901
0.403467
-1.41279
-3.38975
-5.49858
-7.7051
-9.97314
-12.2671
-14.5536
-16.8008
-18.9772
-21.0492
-22.9774
-24.7149
-26.2065
-27.393
-28.2177
-28.6368
-28.6282
3.9494
13.1292
21.9416
30.0011
37.0662
43.039
47.9397
51.8704
54.9774
57.4197
59.3444
60.872
62.0893
63.0503
63.7805
64.2852
64.5585
64.5916
64.3801
63.9265
63.2426
62.3471
61.2644
60.0221
58.6483
57.1706
55.6154
54.0079
52.3721
50.7309
49.1054
47.5144
45.9725
44.4889
43.0664
41.7007
40.381
39.0917
37.8147
36.5337
35.2377
33.924
32.5989
31.2776
29.9819
28.7366
27.5652
26.486
25.508
24.6287
23.8339
23.0983
22.3891
21.6702
20.909
20.0821
19.1791
18.2038
17.1734
16.1143
15.0572
14.0308
13.0551
12.1371
11.2672
10.4188
9.5495
8.60573
7.52886
6.26368
4.76641
3.01052
0.989648
-1.28255
-3.7751
-6.44453
-9.24078
-12.1132
-15.015
-17.9052
-20.7484
-23.512
-26.1608
-28.6512
-30.9242
-32.903
-34.4971
-35.6144
-36.1798
-36.1541
4.17879
16.4095
27.9483
38.2302
46.9536
54.0542
59.6422
63.9338
67.1901
69.6691
71.5919
73.1254
74.3781
75.405
76.2179
76.8002
77.1223
77.1562
76.8849
76.3074
75.4382
74.304
72.9394
71.3822
69.6698
67.8374
65.9169
63.9385
61.9314
59.9245
57.9456
56.0204
54.1696
52.4065
50.7351
49.1487
47.6298
46.1519
44.6838
43.1966
41.6703
40.0986
38.4908
36.8707
35.2733
33.7393
32.3084
31.0114
29.865
28.8676
27.9989
27.2205
26.4799
25.7188
24.8836
23.9363
22.8612
21.6665
20.3818
19.0529
17.7331
16.4727
15.3092
14.2588
13.3118
12.4318
11.5571
10.606
9.48744
8.11472
6.42015
4.36391
1.93808
-0.83463
-3.90537
-7.20742
-10.6663
-14.2106
-17.779
-21.3239
-24.8102
-28.2111
-31.4999
-34.6374
-37.5565
-40.1525
-42.2868
-43.8051
-44.5732
-44.5191
4.28521
20.6858
35.7646
48.703
59.1771
67.246
73.2097
77.4859
80.5202
82.7175
84.3977
85.781
86.9901
88.0657
88.9851
89.6876
90.099
90.1577
89.8282
89.1059
88.0129
86.5903
84.8893
82.9633
80.8621
78.6286
76.2995
73.9083
71.4885
69.0755
66.7063
64.4171
62.2382
60.1901
58.2795
56.4977
54.8176
53.196
51.5786
49.9139
48.1663
46.3234
44.3988
42.4294
40.4716
38.5919
36.8569
35.3184
34.0056
32.9197
32.0325
31.2864
30.5988
29.8726
29.0179
27.9731
26.7142
25.2571
23.6522
21.977
20.3216
18.7738
17.3991
16.2299
15.2584
14.4359
13.6731
12.8462
11.8106
10.4279
8.59335
6.24826
3.38479
0.0412791
-3.70364
-7.74548
-11.9698
-16.2739
-20.5774
-24.8275
-28.9953
-33.0721
-37.0572
-40.938
-44.6538
-48.0668
-50.9631
-53.0756
-54.1501
-54.0487
4.45681
26.8647
46.6619
62.7232
74.8626
83.4672
89.2049
92.8234
95.0519
96.5067
97.6272
98.6836
99.7903
100.947
102.061
102.99
103.579
103.714
103.333
102.434
101.058
99.2728
97.1583
94.792
92.2403
89.5528
86.7667
83.9146
81.031
78.1588
75.3473
72.6506
70.1141
67.771
65.6342
63.6956
61.9169
60.2296
58.5375
56.7463
54.7953
52.6617
50.3672
47.9672
45.5531
43.2323
41.1185
39.2962
37.8158
36.6815
35.859
35.2642
34.7693
34.2077
33.4223
32.3146
30.8487
29.0568
27.0203
24.869
22.7518
20.8221
19.1896
17.9131
16.9868
16.3507
15.8781
15.3838
14.6302
13.3885
11.4987
8.87612
5.5199
1.49244
-3.07698
-8.02329
-13.1607
-18.3403
-23.4547
-28.4515
-33.313
-38.0664
-42.7657
-47.4771
-52.1878
-56.7255
-60.7686
-63.8407
-65.4201
-65.2307
5.24213
36.8018
62.9377
82.3891
95.6371
103.816
108.251
110.161
110.696
110.775
110.947
111.511
112.516
113.889
115.398
116.778
117.712
118.011
117.58
116.446
114.688
112.428
109.787
106.885
103.812
100.616
97.3265
93.9639
90.555
87.1523
83.8207
80.6511
77.7092
75.0527
72.7014
70.6615
68.8824
67.268
65.6369
63.807
61.6853
59.23
56.4854
53.5237
50.4983
47.573
44.9584
42.7802
41.1255
39.9928
39.3559
39.0965
39.0343
38.8633
38.2893
37.1702
35.4508
33.2071
30.5523
27.71
24.9105
22.4409
20.4658
19.0902
18.296
18.0285
18.1128
18.2929
18.1514
17.281
15.4576
12.559
8.6203
3.72282
-1.90869
-8.02696
-14.2917
-20.5013
-26.5019
-32.2709
-37.7866
-43.1391
-48.4568
-54.017
-59.9707
-66.096
-71.9717
-76.7545
-79.2363
-78.8474
8.31256
54.549
88.8384
110.987
123.71
129.557
130.934
129.48
126.999
124.914
123.703
123.707
124.712
126.639
128.925
131.213
132.761
133.361
132.841
131.362
129.046
126.132
122.797
119.23
115.561
111.821
107.995
104.084
100.074
96.0476
92.0653
88.3283
84.8976
81.8995
79.3246
77.2562
75.6151
74.3352
73.0269
71.2925
69.06
66.2194
62.9208
59.1763
55.3038
51.4709
48.1745
45.5147
43.688
42.5947
42.3134
42.6489
43.4603
44.1034
43.9452
42.8942
40.8123
37.9532
34.3583
30.4935
26.5978
23.3514
20.8824
19.4336
18.8502
19.2033
20.2131
21.6683
22.7254
22.5489
20.9681
17.7428
13.1044
7.01331
-0.0363271
-7.81651
-15.4991
-22.96
-29.8797
-36.4521
-42.4923
-48.2588
-53.7958
-59.9875
-67.5035
-75.8229
-84.7456
-92.9791
-97.1836
-96.2385
19.4653
89.5008
132.223
153.154
161.685
161.729
157.69
150.278
142.727
137.791
134.706
134.46
135.578
138.868
142.445
146.709
149.172
150.321
149.48
147.478
144.262
140.441
136.136
131.716
127.412
123.145
118.782
114.344
109.614
104.876
99.9533
95.5615
91.4597
88.1338
85.2153
83.2329
81.8244
81.4405
81.0277
79.4923
77.3077
73.8655
69.9955
65.0106
60.0497
54.5934
50.4713
47.047
45.1917
44.0248
44.3799
45.5137
48.1262
50.4949
50.8842
50.1001
47.2905
43.7563
38.5504
33.3191
27.3477
23.14
19.8275
18.5287
18.0534
19.4301
21.6696
25.6144
29.0737
29.8366
28.8444
24.9591
19.6783
11.682
2.88607
-7.74833
-17.0275
-26.1996
-33.7586
-41.4006
-47.5929
-53.7094
-58.1925
-64.051
-73.8795
-84.6805
-98.5114
-115.005
-122.545
-119.827
62.2721
163.782
206.987
213.178
211.881
199.781
189.301
171.273
154.687
147.999
141.621
143.246
143.315
150.68
154.972
164.798
167.472
170.143
167.789
165.34
160.344
155.446
149.639
144.033
139.206
134.605
129.673
125.023
119.166
113.966
107.075
102.375
96.903
93.7797
89.7561
88.3814
86.5566
88.5858
90.6434
88.6253
87.3648
82.1259
78.6742
70.8089
65.5074
55.7931
51.762
46.3184
45.703
43.2616
45.3241
46.2475
53.1418
59.7355
59.5113
60.2212
54.8108
51.9652
42.7778
37.2089
25.5564
21.6383
15.8714
16.4366
14.5884
18.4129
20.6689
30.2582
39.3031
39.65
40.8852
34.1835
30.161
17.5009
8.4546
-9.6327
-18.7111
-31.7626
-37.5188
-48.437
-52.8029
-61.5123
-60.6084
-62.3973
-78.8548
-89.1741
-108.442
-149.922
-162.678
-154.085
247.584
322.021
335.045
283.984
277.629
235.5
231.779
190.193
152.394
157.759
137.01
154.274
140.544
166.916
159.529
193.183
185.775
197.202
186.233
186.867
176.287
171.758
162.852
155.231
150.674
146.543
140.159
137.441
127.77
125.492
111.045
110.3
98.965
100.723
90.4836
94.1789
85.74
95.6911
106.129
96.6684
103.152
87.8138
93.7097
72.9166
77.3205
48.8105
55.0879
38.6383
48.8451
36.014
47.9096
38.3847
58.591
78.795
66.7942
79.1566
58.6387
69.3071
41.7958
49.8602
12.6288
22.7997
2.79808
17.8208
2.95527
19.6554
9.10864
35.6867
62.0577
48.1846
64.3553
39.5501
53.0819
18.1167
27.0426
-24.489
-14.6724
-47.8295
-33.8446
-64.9074
-51.7571
-83.1565
-59.1453
-39.6191
-92.6674
-80.7799
-86.3848
-226.196
-233.55
-207.192
1158.06
568.691
555.381
290.408
394.888
215.905
328.778
203.656
87.94
205.121
77.6543
209.932
80.022
231.76
104.984
280.694
176.951
256.506
187.965
224.539
183.511
194.367
174.208
162.013
161.522
161.722
145.361
159.868
125.724
154.537
95.2799
133.469
82.1698
124.939
71.1412
117.446
58.4383
102.092
150.265
81.7481
150.358
62.9211
147.174
38.7372
136.526
-8.26947
91.1378
-7.43016
85.1587
-6.84325
81.3378
-12.2943
64.0406
144.226
38.9908
145.436
17.5552
141.624
-10.4183
127.734
-68.5612
67.4069
-60.7132
62.2412
-54.1352
60.1305
-55.9141
41.4102
142.76
13.453
146.827
-10.2918
145.836
-44.4735
132.687
-127.689
51.2462
-131.783
34.6968
-145.045
13.4395
-184.593
-51.2245
87.6657
-199.987
-47.1963
128.93
-493.208
-352.962
-295.637
1124.58
1019.48
920.12
826.21
737.395
653.265
573.375
497.258
424.443
354.459
286.842
221.14
156.914
93.733
31.1753
-8.89977
-8.61049
-8.1861
-7.65287
-7.03909
-6.37175
-5.67434
-4.96557
-4.25905
-3.5636
-2.88384
-2.22103
-1.57383
-0.939017
-0.312102
-15.0056
-14.5007
-13.7643
-12.8443
-11.7914
-10.6531
-9.46997
-8.27355
-7.08622
-5.92196
-4.78762
-3.68442
-2.60932
-1.55625
-0.517159
-21.3804
-20.622
-19.5257
-18.1683
-16.6288
-14.9791
-13.2787
-11.5723
-9.89019
-8.25028
-6.66016
-5.11963
-3.62273
-2.1595
-0.717431
-28.1543
-27.0806
-25.548
-23.6741
-21.576
-19.3556
-17.0933
-14.8465
-12.6518
-10.5287
-8.48302
-6.51114
-4.60239
-2.74155
-0.910485
-35.4843
-33.9975
-31.9108
-29.4037
-26.645
-23.7736
-20.892
-18.0683
-15.3418
-12.7293
-10.232
-7.83939
-5.53408
-3.29377
-1.09343
-43.5696
-41.5135
-38.6935
-35.3843
-31.8262
-28.2012
-24.6323
-21.1927
-17.9173
-14.8148
-11.8759
-9.08026
-6.40066
-3.80596
-1.26288
-52.6746
-49.7929
-45.9644
-41.6133
-37.0736
-32.5721
-28.2431
-24.1523
-20.3197
-16.7363
-13.3764
-10.2049
-7.18223
-4.26646
-1.41501
-63.1618
-59.0185
-53.7573
-48.0302
-42.2821
-36.7699
-31.615
-26.8534
-22.4725
-18.4341
-14.6882
-11.1807
-7.85674
-4.66259
-1.54566
-75.5345
-69.3612
-62.0155
-54.4675
-47.2542
-40.6098
-34.5929
-29.1733
-24.2824
-19.8389
-15.7613
-11.9726
-8.40134
-4.98141
-1.65065
-90.4643
-80.8745
-70.4745
-60.5689
-51.6566
-43.8216
-36.9729
-30.9641
-25.6444
-20.8775
-16.5454
-12.5468
-8.79444
-5.21097
-1.72617
-108.684
-93.1966
-78.4378
-65.6759
-54.9807
-46.0462
-38.5124
-32.0651
-26.4532
-21.481
-16.9955
-12.8747
-9.01847
-5.34178
-1.76921
-130.232
-104.789
-84.4031
-68.715
-56.5432
-46.8693
-38.9647
-32.3301
-26.6218
-21.5975
-17.0807
-12.9377
-9.06279
-5.36835
-1.77809
-151.2
-111.323
-85.6686
-68.2368
-55.6066
-45.9221
-38.1464
-31.6683
-26.1059
-21.206
-16.7918
-12.7324
-8.92647
-5.29064
-1.75286
-150.961
-103.63
-78.7105
-62.9556
-51.7232
-43.0654
-36.0298
-30.0904
-24.9269
-20.3286
-16.1476
-12.2735
-8.61986
-5.11477
-1.69555
-6.91804
-20.908
-35.3727
-50.6759
-67.2614
-85.7095
-106.827
-131.805
-162.514
-202.112
-256.387
-337.114
-471.288
-729.274
-1316.82
-6.80843
-20.5686
-34.7701
-49.7473
-65.9016
-83.7458
-103.97
-127.548
-155.913
-191.24
-236.88
-297.679
-378.287
-467.771
-445.702
-6.59923
-19.9226
-33.6287
-48.0008
-63.3678
-80.1286
-98.783
-119.967
-144.474
-173.207
-206.842
-244.486
-279.121
-283.728
-178.291
-6.30328
-19.0106
-32.0244
-45.5632
-59.8656
-75.1956
-91.8388
-110.076
-130.099
-151.769
-174.017
-193.381
-200.807
-176.103
-85.2842
-5.9373
-17.8856
-30.0554
-42.5948
-55.6494
-69.3501
-83.7868
-98.9458
-114.578
-129.927
-143.193
-150.564
-144.804
-114.389
-47.6583
-5.52012
-16.6067
-27.8293
-39.2685
-50.9839
-62.993
-75.2325
-87.4858
-99.2537
-109.533
-116.463
-116.865
-105.922
-77.8951
-29.8831
-5.07076
-15.233
-25.4527
-35.7502
-46.114
-56.4755
-66.668
-76.3619
-84.9622
-91.4624
-94.2642
-91.0441
-78.9006
-55.279
-20.2702
-4.60694
-13.8195
-23.0218
-32.1856
-41.2455
-50.0748
-58.4493
-65.9968
-72.1284
-75.9594
-76.2468
-71.4196
-59.8497
-40.5702
-14.4986
-4.14404
-12.4129
-20.6175
-28.6928
-36.5369
-43.9896
-50.8047
-56.6145
-60.8916
-62.9164
-61.7806
-56.4771
-46.1522
-30.5779
-10.7584
-3.69447
-11.0507
-18.3028
-25.3603
-32.0997
-38.3469
-43.8577
-48.2964
-51.2185
-52.0677
-50.2081
-45.0213
-36.0997
-23.5333
-8.19675
-3.26759
-9.76085
-16.123
-22.2486
-28.0041
-33.2154
-37.6549
-41.0311
-42.9846
-43.0999
-40.9456
-36.1586
-28.5781
-18.4123
-6.36905
-2.86979
-8.56193
-14.1074
-19.3937
-24.2862
-28.6195
-32.1903
-34.7536
-36.027
-35.7077
-33.5112
-29.2357
-22.8515
-14.595
-5.02382
-2.5049
-7.46481
-12.2716
-16.8121
-20.9563
-24.5529
-27.425
-29.3717
-30.1751
-29.6189
-27.5203
-23.777
-18.4251
-11.6904
-4.00947
-2.17464
-6.47393
-10.6208
-14.5054
-18.0067
-20.9891
-23.3022
-24.7834
-25.2672
-24.6011
-22.6712
-19.4353
-14.9587
-9.44296
-3.22977
-1.87908
-5.58888
-9.15188
-12.4648
-15.4172
-17.89
-19.7568
-20.8875
-21.1575
-20.4607
-18.729
-15.9548
-12.214
-7.67971
-2.62113
-1.6171
-4.80571
-7.85656
-10.6746
-13.1607
-15.2117
-16.7223
-17.5893
-17.7191
-17.0389
-15.5104
-13.1456
-10.0201
-6.28051
-2.14002
-1.38675
-4.11818
-6.72285
-9.11471
-11.2061
-12.9085
-14.1346
-14.8028
-14.8431
-14.2061
-12.8726
-10.8645
-8.25258
-5.15968
-1.75579
-1.18562
-3.51865
-5.73687
-7.76345
-9.52161
-10.9359
-11.9343
-12.4522
-12.4374
-11.8567
-10.7031
-9.0026
-6.81901
-4.25477
-1.44633
-1.01102
-2.9988
-4.88394
-6.59852
-8.07587
-9.25193
-10.0675
-10.4713
-10.4245
-9.90508
-8.9133
-7.47611
-5.64973
-3.51941
-1.19533
-0.860197
-2.55022
-4.1494
-5.59827
-6.83928
-7.81828
-8.48654
-8.80344
-8.73977
-8.28139
-7.43276
-6.21984
-4.69148
-2.91856
-0.990573
-0.73046
-2.16468
-3.51922
-4.74233
-5.7846
-6.60036
-7.14951
-7.39973
-7.32907
-6.92864
-6.20513
-5.18258
-3.90301
-2.42539
-0.822719
-0.619255
-1.83448
-2.98028
-4.01192
-4.88716
-5.56754
-6.02002
-6.2188
-6.1473
-5.8002
-5.18512
-4.32376
-3.25204
-2.01904
-0.68456
-0.524217
-1.55246
-2.52059
-3.3901
-4.12499
-4.69293
-5.06667
-5.2255
-5.15687
-4.8578
-4.33609
-3.61098
-2.71304
-1.68314
-0.570452
-0.443197
-1.31217
-2.12935
-2.86174
-3.47873
-3.95316
-4.26251
-4.39013
-4.32643
-4.06997
-3.62828
-3.0182
-2.26565
-1.40471
-0.475936
-0.374269
-1.10785
-1.79699
-2.4135
-2.93143
-3.32798
-3.58452
-3.68758
-3.62981
-3.41074
-3.03738
-2.52433
-1.89352
-1.17339
-0.397453
-0.315726
-0.934379
-1.51504
-2.03371
-2.46841
-2.80001
-3.01308
-3.09669
-3.04517
-2.85864
-2.54346
-2.11221
-1.58341
-0.980794
-0.332145
-0.266066
-0.787286
-1.27613
-1.71221
-2.07695
-2.35432
-2.53151
-2.59963
-2.55425
-2.39586
-2.13012
-1.76782
-1.32456
-0.820161
-0.277696
-0.223983
-0.662671
-1.07385
-1.44023
-1.74616
-1.97819
-2.12567
-2.18136
-2.14178
-2.00761
-1.78382
-1.47962
-1.10815
-0.685956
-0.23222
-0.188342
-0.557159
-0.902656
-1.21023
-1.46668
-1.66074
-1.78357
-1.82923
-1.79498
-1.68158
-1.49336
-1.23813
-0.926954
-0.573651
-0.194176
-0.158163
-0.467835
-0.757795
-1.01572
-1.23051
-1.39274
-1.49505
-1.53257
-1.50313
-1.4075
-1.24941
-1.03548
-0.775005
-0.479517
-0.162295
-0.132603
-0.392197
-0.635172
-0.85116
-1.03084
-1.16633
-1.25152
-1.2824
-1.25724
-1.17678
-1.04422
-0.865158
-0.647362
-0.400471
-0.135529
-0.110938
-0.328096
-0.531286
-0.711805
-0.861847
-0.974832
-1.04569
-1.07112
-1.04975
-0.98224
-0.871328
-0.721719
-0.53992
-0.333956
-0.113011
-0.0925483
-0.273693
-0.44314
-0.593609
-0.718583
-0.812583
-0.871411
-0.892343
-0.874282
-0.817829
-0.725296
-0.600629
-0.449253
-0.277842
-0.094016
-0.0769022
-0.227412
-0.368169
-0.493112
-0.596822
-0.674754
-0.723436
-0.740635
-0.725469
-0.678467
-0.601574
-0.498081
-0.372496
-0.230349
-0.0779411
-0.0635435
-0.1879
-0.304177
-0.407356
-0.492957
-0.55723
-0.597319
-0.611398
-0.598757
-0.559857
-0.496319
-0.410871
-0.307238
-0.189978
-0.0642784
-0.0520804
-0.153998
-0.249279
-0.333804
-0.4039
-0.456496
-0.489261
-0.50071
-0.490277
-0.458351
-0.406274
-0.336287
-0.251441
-0.155466
-0.0525995
-0.0421745
-0.124704
-0.201849
-0.27027
-0.326991
-0.369529
-0.396002
-0.405214
-0.396717
-0.370836
-0.328664
-0.272019
-0.203372
-0.125737
-0.0425401
-0.033532
-0.0991468
-0.160475
-0.214858
-0.259929
-0.293716
-0.314726
-0.322013
-0.315227
-0.294632
-0.261101
-0.216083
-0.161542
-0.0998709
-0.0337881
-0.0258955
-0.0765661
-0.123923
-0.16591
-0.200702
-0.226774
-0.242976
-0.248582
-0.243323
-0.227408
-0.201513
-0.166759
-0.124661
-0.0770675
-0.0260728
-0.0190369
-0.0562862
-0.0910974
-0.121959
-0.147528
-0.166684
-0.178583
-0.182693
-0.178818
-0.167113
-0.148076
-0.122533
-0.0915967
-0.0566251
-0.0191567
-0.0127505
-0.0376991
-0.0610141
-0.081683
-0.0988057
-0.111633
-0.119599
-0.122347
-0.119749
-0.111907
-0.0991569
-0.0820503
-0.0613339
-0.0379162
-0.0128273
-0.00684757
-0.0202462
-0.0327678
-0.0438687
-0.0530656
-0.059956
-0.0642359
-0.0657139
-0.0643199
-0.0601094
-0.053262
-0.044074
-0.0329465
-0.0203675
-0.00689049
-0.00115051
-0.00340215
-0.00550768
-0.00737631
-0.00892694
-0.0100916
-0.0108185
-0.0110744
-0.0108463
-0.0101424
-0.00899196
-0.0074443
-0.00556688
-0.00344232
-0.00116472
0.00451229
0.0133405
0.021588
0.0288954
0.0349439
0.0394689
0.0422719
0.0432291
0.0422969
0.0395146
0.0350023
0.0289565
0.0216412
0.0133766
0.00452508
0.0103114
0.0304863
0.0493363
0.0660411
0.0798724
0.090225
0.0966439
0.0988443
0.0967248
0.0903727
0.0800614
0.0662387
0.0495084
0.0306031
0.0103528
0.0164216
0.0485519
0.0785739
0.105182
0.127216
0.143712
0.153945
0.157459
0.154091
0.14398
0.127558
0.10554
0.0788855
0.0487634
0.0164964
0.0230267
0.0680813
0.110182
0.147498
0.178404
0.201548
0.21591
0.220851
0.21614
0.201967
0.178941
0.148059
0.11067
0.0684129
0.023144
0.0303253
0.0896617
0.145111
0.194265
0.234982
0.26548
0.284416
0.290944
0.284756
0.266102
0.235777
0.195096
0.145835
0.0901531
0.0304991
0.0385363
0.113941
0.184411
0.246889
0.298654
0.33744
0.361537
0.369865
0.362029
0.338338
0.299803
0.248091
0.185458
0.114651
0.0387875
0.0479053
0.141645
0.22926
0.30695
0.371336
0.419599
0.449606
0.460009
0.450308
0.420881
0.372978
0.308667
0.230754
0.14266
0.0482642
0.058712
0.173603
0.280998
0.376249
0.455212
0.514431
0.551285
0.56411
0.552281
0.516252
0.457543
0.378686
0.283121
0.175043
0.0592216
0.0712775
0.210763
0.341168
0.456855
0.552797
0.624791
0.669646
0.685326
0.671057
0.627369
0.556096
0.460306
0.344173
0.212803
0.0719989
0.0859738
0.254229
0.411557
0.55117
0.667006
0.753992
0.808261
0.827336
0.810256
0.757637
0.671671
0.556048
0.415805
0.257112
0.0869937
0.103234
0.305281
0.494245
0.661991
0.801246
0.905907
0.97131
0.994448
0.974129
0.911057
0.807836
0.668882
0.500246
0.309354
0.104674
0.123562
0.365415
0.591663
0.792592
0.959503
1.08508
1.1637
1.19173
1.16768
1.09235
0.96881
0.802324
0.600138
0.371168
0.125597
0.14755
0.436384
0.70666
0.946811
1.14646
1.29685
1.39122
1.42517
1.39684
1.30711
1.1596
0.960552
0.718626
0.444506
0.150423
0.17589
0.520237
0.84257
1.12915
1.36761
1.5475
1.66069
1.70184
1.66863
1.56199
1.38617
1.14855
0.859465
0.531704
0.179946
0.209388
0.619373
1.0033
1.34489
1.62944
1.84445
1.98019
2.03013
1.99139
1.86492
1.65563
1.37228
1.02716
0.635562
0.215115
0.248991
0.736596
1.19344
1.60023
1.93954
2.19645
2.35924
2.42
2.37505
2.22533
1.97651
1.6389
1.22711
0.759452
0.257077
0.2958
0.875178
1.41831
1.90243
2.30684
2.61378
2.80914
2.88326
2.83146
2.65456
2.35904
1.95701
1.46585
0.907447
0.307215
0.351093
1.03892
1.68416
2.25996
2.74182
3.10857
3.34322
3.43392
3.37472
3.16613
2.8155
2.33702
1.75127
1.08448
0.367209
0.416351
1.23224
1.99821
2.68269
3.25673
3.69506
3.97723
4.08867
4.0217
3.77632
3.36074
2.79148
2.09297
1.29657
0.439106
0.49328
1.46022
2.36884
3.18211
3.86586
4.38998
4.72977
4.86728
4.79253
4.50467
4.01268
3.33569
2.50262
1.55104
0.52541
0.583833
1.72868
2.80566
3.77145
4.5858
5.21286
5.62276
5.79325
5.71133
5.37473
4.79305
3.98827
2.99454
1.85693
0.629204
0.690225
2.04427
3.31966
4.46594
5.43577
6.1865
6.68195
6.89446
6.80695
6.41496
5.7283
4.77203
3.58636
2.22537
0.754301
0.814951
2.41445
3.9233
5.28292
6.43785
7.33736
7.93758
8.20396
8.11395
7.65975
6.85075
5.71506
4.29991
2.67023
0.905458
0.960782
2.84758
4.63052
6.24202
7.61725
8.696
9.42499
9.76089
9.67378
9.15088
8.2
6.85212
5.1624
3.20889
1.08865
1.13075
3.35279
5.45678
7.36513
9.00249
10.2975
11.1853
11.6115
11.5362
10.9392
9.82487
8.22651
6.20804
3.86332
1.31145
1.32811
3.93997
6.41884
8.67638
10.6254
12.1816
13.2661
13.8103
13.7608
13.0865
11.7858
9.89257
7.48019
4.66156
1.58359
1.55625
4.61948
7.53455
10.2018
12.5211
14.3931
15.7221
16.4212
16.4191
15.6689
14.1582
11.9191
9.0344
5.63986
1.91765
1.81861
5.40185
8.82228
11.9688
14.7273
16.9815
18.6154
19.519
19.5968
18.7791
17.0364
14.3937
10.9426
6.84566
2.33024
2.11844
6.29722
10.3002
14.0052
17.2837
20.0004
22.0156
23.1902
23.3963
22.5316
20.5393
17.4297
13.2993
8.342
2.84353
2.45859
7.31464
11.9849
16.3376
20.23
23.5065
25.9994
27.5339
27.9391
27.0669
24.8181
21.1743
16.2301
10.2141
3.48777
2.84116
8.46104
13.8901
18.9895
23.6038
27.5565
30.6486
32.6615
33.3688
32.5581
30.0654
25.8219
19.9051
12.5794
4.30506
3.26706
9.73989
16.0241
21.978
27.4368
32.2041
36.0469
38.6954
39.8525
39.217
36.5283
31.6313
24.5582
15.6035
5.35547
3.7355
11.1497
18.3873
25.3104
31.7498
37.4934
42.2743
45.7649
47.5806
47.3016
44.5244
38.9516
30.5179
19.5256
6.72733
4.24336
12.6819
20.9688
28.9783
36.5459
43.4509
49.3973
53.9972
56.7631
57.1206
54.4615
48.2585
38.2543
24.7016
8.555
4.78462
14.3194
23.7429
32.9528
41.8018
50.0738
57.455
63.5028
67.6176
69.034
66.8593
60.2047
48.4547
31.6786
11.0517
5.34974
16.0342
26.6651
37.1776
47.4582
57.3149
66.4382
74.3502
80.3456
83.4408
82.3678
75.6889
62.1451
41.3296
14.5736
5.92527
17.7859
29.6693
41.5633
53.4085
65.0649
76.2623
86.528
95.087
100.742
101.769
95.9398
80.8848
55.1058
19.7558
6.49374
19.5218
32.6659
45.9826
59.4896
73.1331
86.7328
99.8905
111.845
121.255
125.93
122.597
107.071
75.5279
27.828
7.03397
21.1769
35.5424
50.2694
65.4754
81.2312
97.5096
114.088
130.368
145.057
155.65
157.721
144.379
107.169
41.425
7.5221
22.6773
38.1676
54.2231
71.0791
88.9659
108.077
128.492
149.996
171.703
191.286
203.549
198.261
158.625
66.9006
7.93313
23.9447
40.4
57.6205
75.9663
95.8497
117.739
142.138
169.48
199.822
232.004
261.561
275.994
246.253
121.596
8.24317
24.9039
42.1008
60.236
79.7854
101.339
125.658
153.74
186.881
226.662
274.544
330.075
384.402
399.793
258.604
8.43204
25.4906
43.1495
61.8692
82.2117
104.908
130.964
161.826
199.669
247.873
311.77
399.422
519.846
662.067
656.736
8.48583
25.6601
43.4614
62.375
83.0027
106.144
132.93
165.063
205.261
258.184
332.496
446.007
640.148
1026.8
1963.29
8.39885
25.3941
43.0004
61.6902
82.0475
104.847
131.183
162.698
202.015
253.64
325.999
436.597
626.755
1009.7
1949.59
8.17462
24.7036
41.7868
59.8468
79.3958
101.094
125.839
154.913
190.22
234.694
292.945
371.933
479.478
605.82
598.95
7.82553
23.628
39.8945
56.9692
75.251
95.2237
117.489
142.799
172.056
206.181
245.488
287.435
319.144
294.444
75.4096
-95.7744
-77.9102
-64.5619
-54.2549
-45.964
-39.0621
-33.1554
-27.9835
-23.3656
-19.1699
-15.2965
-11.6659
-8.2128
-4.88074
-1.61919
-35.9024
-49.6855
-49.0118
-44.6836
-39.6164
-34.6373
-29.9668
-25.6364
-21.6181
-17.8668
-14.3347
-10.9764
-7.74917
-4.61351
-1.53188
-16.3229
-31.4997
-35.9989
-35.6249
-33.2071
-29.9979
-26.5416
-23.0722
-19.6849
-16.4111
-13.2522
-10.1955
-7.22188
-4.30869
-1.43214
-8.87453
-20.7284
-26.3698
-27.9849
-27.3471
-25.5295
-23.1251
-20.4508
-17.6727
-14.8753
-12.0984
-9.35701
-6.6525
-3.97837
-1.32387
-5.51993
-14.2709
-19.5365
-21.909
-22.306
-21.4684
-19.8958
-17.9012
-15.6738
-13.3252
-10.9197
-8.49276
-6.06194
-3.63437
-1.21089
-3.75479
-10.2336
-14.7121
-17.2046
-18.122
-17.9175
-16.9594
-15.5131
-13.7587
-11.8144
-9.75593
-7.63106
-5.46906
-3.28748
-1.09671
-2.70541
-7.58533
-11.2665
-13.594
-14.717
-14.8895
-14.3617
-13.3387
-11.9754
-10.3826
-8.63812
-6.79505
-4.88969
-2.94693
-0.984367
-2.02466
-5.76945
-8.76085
-10.8195
-11.9717
-12.3478
-12.1076
-11.4006
-10.3511
-9.0562
-7.58865
-6.0022
-4.33625
-2.62008
-0.876296
-1.55536
-4.47667
-6.90284
-8.67443
-9.76531
-10.234
-10.1775
-9.7001
-8.89726
-7.84952
-6.62165
-5.26447
-3.81763
-2.31239
-0.774325
-1.2176
-3.52767
-5.49932
-7.00196
-7.9908
-8.48484
-8.53964
-8.22546
-7.61333
-6.76784
-5.74435
-4.58894
-3.3395
-2.02747
-0.679694
-0.966702
-2.81364
-4.42142
-5.6862
-6.5598
-7.04056
-7.15787
-6.95763
-6.49138
-5.80966
-4.9586
-3.97866
-2.9048
-1.76734
-0.593119
-0.775845
-2.26565
-3.58167
-4.64201
-5.40153
-5.84858
-5.99655
-5.87443
-5.51896
-4.96902
-4.26228
-3.43354
-2.51424
-1.53272
-0.514882
-0.62795
-1.83832
-2.91943
-3.80668
-4.46019
-4.86423
-5.02269
-4.9532
-4.68152
-4.23721
-3.65064
-2.95127
-2.16685
-1.32329
-0.444923
-0.511662
-1.50074
-2.39178
-3.1336
-3.69203
-4.05034
-4.20708
-4.17232
-3.96391
-3.60413
-3.11727
-2.52801
-1.8605
-1.13801
-0.382932
-0.419151
-1.23122
-1.96771
-2.58786
-3.06278
-3.3764
-3.52439
-3.51199
-3.35136
-3.05925
-2.65498
-2.15907
-1.59231
-0.97534
-0.328428
-0.344854
-1.01416
-1.62441
-2.14292
-2.5455
-2.81742
-2.95305
-2.95453
-2.83007
-2.59221
-2.25629
-1.83929
-1.35898
-0.833451
-0.280825
-0.284721
-0.8381
-1.34481
-1.77847
-2.11892
-2.35306
-2.47482
-2.48449
-2.3875
-2.19324
-1.91388
-1.56344
-1.15703
-0.71037
-0.239485
-0.23574
-0.69444
-1.1159
-1.47874
-1.76615
-1.96669
-2.07442
-2.08849
-2.01245
-1.85333
-1.62082