/*--------------------------------*- C++ -*----------------------------------*\
| =========                 |                                                 |
| \\      /  F ield         | OpenFOAM: The Open Source CFD Toolbox           |
|  \\    /   O peration     | Version:  5.x                                   |
|   \\  /    A nd           | Web:      www.OpenFOAM.org                      |
|    \\/     M anipulation  |                                                 |
\*---------------------------------------------------------------------------*/
FoamFile
{
    version     2.0;
    format      ascii;
    class       volScalarField;
    location    "4.3";
    object      T;
}
// * * * * * * * * * * * * * * * * * * * * * * * * * * * * * * * * * * * * * //

dimensions      [0 0 0 1 0 0 0];

internalField   nonuniform List<scalar> 
6300
(
10.8896
12.6732
14.4698
16.2878
18.1349
20.0184
21.9443
23.9173
25.9406
28.015
30.1393
32.3093
34.5183
36.7569
39.0131
10.8852
12.6602
14.4484
16.2585
18.0985
19.9759
21.897
23.8669
25.8891
27.9649
30.0932
32.27
34.4884
36.7388
39.0088
10.8764
12.6338
14.4051
16.1991
18.0246
19.8894
21.8006
23.764
25.7838
27.8621
29.9982
32.1886
34.4263
36.7009
38.999
10.8629
12.5936
14.3389
16.1083
17.9112
19.7564
21.6518
23.6045
25.6198
27.7011
29.8486
32.0595
34.3268
36.6391
38.9812
10.8445
12.5387
14.2484
15.9839
17.7555
19.5729
21.4456
23.3821
25.3897
27.4735
29.6354
31.8738
34.1818
36.547
38.9516
10.8209
12.4682
14.132
15.8235
17.5537
19.3339
21.1753
23.0885
25.0832
27.1673
29.3456
31.6182
33.9792
36.4151
38.9044
10.7918
12.3812
13.988
15.6241
17.3018
19.0337
20.8331
22.7132
24.6871
26.7667
28.961
31.2738
33.7014
36.2293
38.8314
10.7569
12.2768
13.8147
15.3831
16.9955
18.6659
20.4098
22.2438
24.1852
26.2513
28.4575
30.8143
33.3228
35.9691
38.7208
10.7161
12.1542
13.6106
15.0982
16.631
18.2245
19.8964
21.6668
23.5583
25.5954
27.8032
30.2029
32.8059
35.6031
38.5552
10.6692
12.0134
13.3754
14.768
16.2056
17.7045
19.2844
20.9686
22.7855
24.7687
26.9565
29.388
32.0944
35.0819
38.3075
10.6164
11.8547
13.1094
14.3928
15.7187
17.1035
18.5678
20.1375
21.8461
23.7372
25.8658
28.2979
31.1015
34.3221
37.9309
10.5582
11.6794
12.8148
13.9751
15.1728
16.423
17.7457
19.1672
20.7241
22.4679
24.4715
26.8359
29.6914
33.1737
37.3331
10.4954
11.4898
12.4952
13.52
14.5741
15.67
16.8246
18.0614
19.4151
20.9387
22.7161
24.8825
27.6541
31.3478
36.2958
10.4289
11.2891
12.1562
13.0356
13.9335
14.8582
15.8211
16.8385
17.9359
19.1555
20.5714
22.3237
24.6944
28.2674
34.1682
10.3602
11.0814
11.8049
12.5324
13.266
14.0083
14.7629
15.5354
16.3345
17.1758
18.09
19.1464
20.5319
22.8591
28.531
41.0847
42.9612
44.822
46.6583
48.4616
50.2242
51.9388
53.5993
55.2002
56.7369
58.2055
59.6029
60.9264
62.1741
63.3444
64.436
65.4483
66.3806
67.2329
68.0054
68.6984
69.3128
69.8493
70.3092
70.6938
71.0047
71.2434
71.4118
71.5116
71.5448
71.5132
71.4188
71.2634
71.049
70.7773
70.4503
70.0695
69.6369
69.1541
68.6227
68.0445
67.421
66.7538
66.0447
65.2951
64.5066
63.6806
62.8186
61.9219
60.9917
60.0294
59.0359
58.0125
56.9601
55.88
54.7731
53.6406
52.4837
51.3035
50.1012
48.878
47.6353
46.3743
45.0961
43.8022
42.4937
41.1721
39.8386
38.495
37.1428
35.7838
34.4202
33.0542
31.6882
30.3251
28.9677
27.619
26.2823
24.9609
23.658
22.3769
21.1209
19.8931
18.6964
17.5334
16.4066
15.3178
14.2688
13.2605
12.2935
41.0941
42.9834
44.8568
46.7052
48.5198
50.2925
52.0162
53.6845
55.292
56.8342
58.3074
59.7084
61.0349
62.2848
63.4568
64.5495
65.5624
66.495
67.3471
68.1189
68.8109
69.4238
69.9587
70.4167
70.7991
71.1076
71.3438
71.5095
71.6067
71.6371
71.6027
71.5055
71.3475
71.1304
70.8561
70.5265
70.1433
69.7083
69.223
68.6893
68.1086
67.4828
66.8134
66.102
65.3502
64.5596
63.7316
62.8677
61.9691
61.0372
60.0732
59.0782
58.0532
56.9993
55.9176
54.8092
53.675
52.5164
51.3345
50.1304
48.9055
47.661
46.3981
45.1182
43.8224
42.512
41.1883
39.8527
38.5067
37.1518
35.79
34.4231
33.0535
31.6837
30.3164
28.9545
27.6013
26.2599
24.9337
23.6261
22.3404
21.08
19.848
18.6474
17.4811
16.3514
15.2604
14.2098
13.2007
12.2337
41.1124
43.0278
44.9271
46.8001
48.6376
50.4309
52.1726
53.8565
55.4771
57.0302
58.5123
59.9205
61.2527
62.5071
63.6822
64.7772
65.7914
66.7242
67.5758
68.3463
69.0362
69.6464
70.1778
70.6318
71.0099
71.3135
71.5446
71.705
71.7967
71.8216
71.7816
71.679
71.5155
71.293
71.0136
70.6789
70.2907
69.8508
69.3607
68.8222
68.2369
67.6064
66.9324
66.2165
65.4603
64.6654
63.8333
62.9655
62.0634
61.1281
60.1608
59.1626
58.1346
57.0777
55.9929
54.8813
53.7439
52.5818
51.3964
50.1888
48.9603
47.7122
46.4458
45.1622
43.8628
42.5487
41.221
39.8812
38.5304
37.1703
35.8026
34.4293
33.0525
31.6749
30.2992
28.9285
27.566
26.2151
24.8793
23.5622
22.2671
20.9977
19.7572
18.5489
17.3756
16.2401
15.1446
14.0908
13.0801
12.1131
41.1387
43.095
45.0345
46.9458
48.8183
50.6429
52.4118
54.1188
55.7587
57.3278
58.8228
60.2414
61.5818
62.8425
64.0223
65.1205
66.1364
67.0697
67.9204
68.6888
69.3755
69.9814
70.5076
70.9555
71.3267
71.623
71.8463
71.9986
72.0819
72.0983
72.05
71.939
71.7673
71.5368
71.2496
70.9073
70.5117
70.0645
69.5673
69.0216
68.4292
67.7917
67.1107
66.3879
65.6251
64.8238
63.9856
63.112
62.2044
61.264
60.2919
59.2892
58.2567
57.1953
56.106
54.9896
53.8473
52.6802
51.4895
50.2765
49.0426
47.7891
46.5173
45.2285
43.9237
42.6041
41.2707
39.9246
38.567
37.1992
35.8228
34.4398
33.0522
31.6628
30.2744
28.8902
27.5136
26.1482
24.7977
23.466
22.1566
20.8734
19.6199
18.3995
17.2156
16.071
14.9683
13.9096
12.8964
11.9293
41.1716
43.186
45.1821
47.1466
49.0674
50.9344
52.7396
54.4769
56.1418
57.7311
59.2425
60.6741
62.0248
63.2935
64.4792
65.5814
66.5995
67.5332
68.3826
69.1481
69.8303
70.4301
70.9491
71.3886
71.7505
72.0367
72.2492
72.3904
72.4624
72.4674
72.4076
72.2853
72.1026
71.8615
71.5638
71.2115
70.8061
70.3492
69.8425
69.2874
68.6855
68.0386
67.3482
66.6162
65.8443
65.0343
64.1878
63.3065
62.3917
61.4447
60.4664
59.4577
58.4194
57.3523
56.257
55.1345
53.9856
52.8116
51.6138
50.3935
49.1523
47.8916
46.6127
45.3169
44.0052
42.6786
41.338
39.984
38.6176
37.2398
35.8521
34.4561
33.0541
31.6487
30.243
28.8403
27.4444
26.0593
24.6888
23.337
22.0081
20.7059
19.4344
18.1974
16.9985
15.8411
14.7284
13.6627
12.6459
11.6789
41.2095
43.3026
45.3749
47.4098
49.3933
51.3142
53.1645
54.9386
56.6332
58.2461
59.7761
61.2227
62.5852
63.863
65.0557
66.1626
67.1832
68.1173
68.9649
69.7264
70.4025
70.9946
71.504
71.9325
72.2822
72.5553
72.7541
72.8809
72.9383
72.9286
72.8543
72.7177
72.5211
72.2665
71.9559
71.591
71.1735
70.7048
70.1863
69.6195
69.0058
68.347
67.6447
66.9009
66.1174
65.2963
64.4394
63.5483
62.6246
61.6694
60.6836
59.668
58.6229
57.549
56.4465
55.3164
54.1593
52.9766
51.7696
50.54
49.2894
48.0194
46.7317
45.4274
44.1075
42.7728
41.4237
40.0606
38.6838
37.2942
35.8925
34.4805
33.0603
31.6345
30.2066
28.7802
27.3595
25.9487
24.5524
23.1749
21.8206
20.4938
19.1989
17.94
16.7213
15.5468
14.4204
13.3453
12.3236
11.3567
41.2506
43.4485
45.621
47.7466
49.8087
51.7951
53.6984
55.5143
57.2414
58.8795
60.4293
61.8916
63.2666
64.5545
65.7549
66.8671
67.8907
68.8251
69.6702
70.4266
71.0951
71.6771
72.1743
72.589
72.9234
73.1801
73.3616
73.4706
73.5098
73.482
73.3897
73.2356
73.0221
72.7513
72.4252
72.0455
71.6137
71.131
70.5987
70.018
69.3903
68.7171
68.0002
67.2417
66.4439
65.609
64.7391
63.8362
62.9019
61.9372
60.943
59.9197
58.8672
57.7857
56.6752
55.5361
54.3692
53.1757
51.9573
50.7158
49.4535
48.1722
46.8738
45.5596
44.2306
42.887
41.5289
40.1561
38.7681
37.3651
35.9474
34.5163
33.0739
31.623
30.1675
28.7114
27.2596
25.817
24.3885
22.9789
21.5931
20.2356
18.9112
17.6243
16.38
15.1831
14.0385
12.9504
11.9223
10.9558
41.2931
43.6308
45.9339
48.1744
50.3324
52.3953
54.3573
56.2173
57.977
59.6394
61.208
62.6852
64.0727
65.3711
66.5801
67.6986
68.7257
69.6604
70.5026
71.2525
71.9113
72.4807
72.9627
73.3602
73.6756
73.9121
74.0724
74.1597
74.1769
74.1271
74.0132
73.8381
73.6045
73.3147
72.9706
72.574
72.1261
71.6278
71.08
70.4834
69.8392
69.149
68.4146
67.6383
66.8229
65.9711
65.0855
64.1685
63.2219
62.2467
61.2436
60.2124
59.1525
58.0633
56.9442
55.7951
54.6165
53.4099
52.1772
50.921
49.644
48.3489
47.0379
45.7126
44.3738
43.0214
41.6548
40.2727
38.8736
37.4564
36.0209
34.5678
33.0991
31.6179
30.1285
28.636
27.1461
25.6645
24.1968
22.7484
21.3244
19.9296
18.5689
17.2472
15.9701
14.7438
13.5747
12.4692
11.4322
10.4663
41.3363
43.8623
46.3363
48.7207
50.9922
53.1401
55.1626
57.064
58.8518
60.5339
62.1173
63.6072
65.0064
66.3158
67.5346
68.6609
69.6927
70.6282
71.4668
72.2087
72.8554
73.4089
73.8721
74.2483
74.5407
74.7526
74.8875
74.9487
74.9396
74.8635
74.7238
74.524
74.2668
73.9551
73.5908
73.1754
72.71
72.195
71.6303
71.0163
70.3536
69.6435
68.8882
68.0903
67.2534
66.3808
65.4763
64.5426
63.582
62.5956
61.5837
60.5454
59.4792
58.3832
57.2556
56.0956
54.9035
53.6808
52.4303
51.1554
49.8599
48.5477
47.2218
45.8842
44.5357
43.1757
41.8024
40.413
39.0043
37.5736
36.1193
34.6413
33.1416
31.6239
30.0934
28.5565
27.0202
25.4915
23.9769
22.4824
21.0132
19.5742
18.17
16.8056
15.4869
14.2217
13.0192
11.8889
10.8393
9.87481
41.3822
44.1681
46.8671
49.4289
51.8296
54.0646
56.1414
58.0738
59.878
61.5696
63.1605
64.6589
66.0685
67.3901
68.6213
69.7584
70.7972
71.7347
72.5692
73.3012
73.9325
74.4661
74.9059
75.256
75.5204
75.7031
75.8078
75.838
75.7975
75.6903
75.5202
75.2911
75.0068
74.6701
74.2833
73.8479
73.3644
72.8324
72.2507
71.6183
70.9352
70.2022
69.4219
68.5977
67.734
66.8358
65.9079
64.9545
63.9782
62.9804
61.9608
60.9177
59.8479
58.7475
57.6127
56.4414
55.2335
53.9911
52.7176
51.4184
50.0991
48.7653
47.4217
46.0708
44.7135
43.3485
41.9724
40.5804
39.1662
37.7242
36.2509
34.7453
33.2095
31.6477
30.0669
28.4756
26.8829
25.2977
23.7277
22.1794
20.6581
19.1683
17.7136
16.2977
14.9264
13.6093
12.3593
11.1923
10.1238
9.16172
41.4411
44.5983
47.595
50.3685
52.905
55.2164
57.3276
59.2673
61.0657
62.7494
64.3362
65.8374
67.2567
68.5936
69.8425
70.9964
72.0469
72.9884
73.8184
74.5377
75.1491
75.6574
76.0679
76.386
76.6169
76.765
76.8341
76.828
76.7507
76.6065
76.4003
76.137
75.821
75.4561
75.0448
74.5887
74.0877
73.5403
72.9431
72.2925
71.5873
70.8281
70.0179
69.1608
68.2633
67.3323
66.3754
65.3982
64.4045
63.3955
62.3708
61.3273
60.2599
59.1604
58.0214
56.839
55.6125
54.345
53.0413
51.7096
50.3581
48.9965
47.6311
46.266
44.9017
43.5363
42.1647
40.7789
39.3674
37.9193
36.4284
34.8925
33.314
31.6983
30.0552
28.396
26.7344
25.0815
23.4469
21.837
20.2575
18.7114
17.2009
15.7252
14.2875
12.8998
11.5798
10.3538
9.25461
8.29786
41.5485
45.259
48.6439
51.6486
54.3038
56.6558
58.7601
60.6634
62.418
64.0679
65.6346
67.133
68.5628
69.9229
71.1998
72.3826
73.4525
74.4019
75.2261
75.9284
76.5134
76.9888
77.3619
77.6406
77.8317
77.9395
77.9677
77.9197
77.799
77.6112
77.3615
77.0577
76.7047
76.3081
75.8698
75.3931
74.8767
74.3191
73.7113
73.0442
72.3164
71.5266
70.6803
69.7812
68.8401
67.8652
66.8714
65.8648
64.852
63.8323
62.8071
61.7706
60.7171
59.6296
58.4916
57.2993
56.0498
54.7501
53.4048
52.0283
50.631
49.2324
47.8393
46.4595
45.0905
43.7325
42.3767
41.0137
39.6207
38.1752
36.6703
35.1002
33.4715
31.788
30.0662
28.3192
26.5729
24.8385
23.1301
21.4503
19.8083
18.2031
16.6376
15.0979
13.5763
12.0928
10.6644
9.33276
8.1801
7.23695
41.8304
46.3883
50.2395
53.4316
56.1387
58.451
60.4814
62.2728
63.9202
65.5052
67.0304
68.5266
69.9683
71.3709
72.6914
73.9306
75.0303
75.9949
76.808
77.4872
78.0344
78.4663
78.7906
79.0203
79.1651
79.2279
79.2097
79.1149
78.943
78.704
78.3993
78.0482
77.6502
77.2188
76.7491
76.2533
75.7242
75.1691
74.5636
73.8823
73.1335
72.3054
71.4178
70.461
69.4643
68.4242
67.3849
66.3391
65.3083
64.276
63.2584
62.2376
61.2224
60.1703
59.039
57.841
56.5583
55.2201
53.8124
52.3759
50.9051
49.4593
48.0276
46.6366
45.2627
43.9249
42.5981
41.2912
39.9488
38.516
37.0053
35.3916
33.7076
31.932
30.1129
28.241
26.3938
24.5575
22.7717
21.0089
19.3056
17.6372
16.037
14.4442
12.8099
11.2062
9.60953
8.05375
6.8037
5.90133
42.7939
48.5347
52.7836
55.9122
58.5414
60.6514
62.5461
64.0889
65.5117
67.0278
68.467
69.9979
71.4291
72.9364
74.2992
75.6786
76.8019
77.8048
78.5818
79.2352
79.7203
80.0977
80.3546
80.5213
80.6158
80.6316
80.5611
80.4201
80.1823
79.8906
79.503
79.1052
78.6428
78.1837
77.6649
77.1607
76.6079
76.0908
75.5241
74.8167
74.0636
73.1691
72.2538
71.1974
70.1502
68.981
67.9066
66.7911
65.766
64.6975
63.7135
62.6956
61.78
60.8243
59.6818
58.5037
57.146
55.7894
54.2604
52.7725
51.1421
49.6651
48.1567
46.7882
45.3823
44.1008
42.79
41.6189
40.4068
38.9682
37.488
35.7839
34.0748
32.138
30.2353
28.1266
26.1987
24.2032
22.3797
20.4816
18.7522
16.9729
15.4255
13.85
11.9992
10.3093
8.49558
6.33433
4.92654
4.15525
46.7821
52.8287
56.9404
59.1112
61.6913
63.161
65.117
66.0767
66.9681
68.6604
69.7706
71.6121
72.7792
74.7092
75.882
77.7943
78.7458
79.9389
80.5327
81.2246
81.5601
81.9014
82.0476
82.1249
82.1786
82.1587
82.0129
81.8637
81.4984
81.2139
80.6202
80.2542
79.6295
79.2333
78.5588
78.1369
77.439
77.0829
76.6862
75.8157
75.1965
74.0617
73.292
71.9193
71.0107
69.4004
68.4866
67.1119
66.2852
64.9963
64.2166
63.0053
62.3942
61.7462
60.3749
59.4241
57.7311
56.6063
54.6483
53.3731
51.1576
49.9153
48.0836
46.993
45.3218
44.318
42.7802
42.0049
41.19
39.4797
38.2924
36.1826
34.7692
32.2943
30.6538
27.7512
26.1004
23.6009
22.0948
19.7108
18.2705
15.9741
14.8541
13.6518
10.9566
9.59062
7.88183
3.52982
2.13271
1.7575
11.2753
10.2234
9.22837
8.28752
7.39735
6.55385
5.75265
4.98914
4.25864
3.55648
2.87805
2.21882
1.5744
0.940469
0.312796
11.2163
10.1663
9.17404
8.23668
7.35054
6.51145
5.71485
4.95603
4.23022
3.53269
2.85879
2.20398
1.56388
0.934191
0.310709
11.0973
10.0512
9.06465
8.13446
7.25657
6.42642
5.63916
4.88982
4.17346
3.48521
2.82037
2.1744
1.54292
0.921688
0.306554
10.9162
9.87627
8.89875
7.97979
7.11472
6.29838
5.52545
4.79056
4.0885
3.41425
2.76303
2.1303
1.5117
0.903066
0.300366
10.6697
9.63874
8.67413
7.77109
6.92399
6.12684
5.37359
4.65838
3.97565
3.3202
2.68717
2.07201
1.47047
0.878498
0.292205
10.3531
9.33466
8.38779
7.50631
6.6832
5.91127
5.18358
4.49363
3.83546
3.20368
2.59337
2.00007
1.41965
0.848235
0.282156
9.96004
8.95879
8.03592
7.18302
6.39109
5.65137
4.95575
4.29701
3.66882
3.06562
2.48253
1.91522
1.35979
0.812623
0.270337
9.48175
8.50439
7.61392
6.79862
6.04667
5.34725
4.69094
4.06978
3.47712
2.90738
2.35586
1.81847
1.29164
0.772116
0.256899
8.90655
7.96293
7.11663
6.35075
5.64962
4.99992
4.39089
3.81397
3.26243
2.73089
2.215
1.71113
1.21614
0.727294
0.242037
8.21851
7.32402
6.53878
5.83802
5.20103
4.61185
4.05864
3.53271
3.02767
2.5387
2.06209
1.59486
1.1345
0.678864
0.225986
7.39586
6.57571
5.87632
5.2614
4.70454
4.18773
3.69903
3.2305
2.77678
2.33411
1.89977
1.47167
1.04812
0.627665
0.209023
6.40923
5.70653
5.12929
4.62664
4.1679
3.73542
3.31918
2.91343
2.51478
2.12115
1.73118
1.34392
0.958612
0.574645
0.191462
5.22219
4.71178
4.30756
3.94788
3.60492
3.2668
2.92878
2.5892
2.24771
1.90449
1.55986
1.21418
0.867748
0.52083
0.173639
3.80458
3.61074
3.44123
3.25234
3.03703
2.79803
2.53988
2.26682
1.98234
1.6892
1.38957
1.08516
0.777356
0.467278
0.1559
2.19819
2.48533
2.59419
2.58315
2.49279
2.34836
2.16585
1.95583
1.7256
1.48037
1.22403
0.959531
0.689219
0.415017
0.138582
10.2966
10.889
11.4792
12.0656
12.6461
13.2177
13.7765
14.3163
14.8277
15.2942
15.6849
15.9318
15.8531
14.8351
10.3113
10.2391
10.7155
11.1858
11.6454
12.0886
12.5079
12.8928
13.2278
13.4889
13.6362
13.5982
13.2356
12.2518
9.97504
4.9277
10.1831
10.5462
10.8997
11.2365
11.5477
11.8219
12.0436
12.1905
12.2291
12.1069
11.7369
10.9705
9.54832
7.03892
2.88295
10.1292
10.3834
10.6253
10.8454
11.0325
11.1724
11.2464
11.2283
11.081
10.7495
10.1509
9.16079
7.59977
5.24623
1.95618
10.078
10.2293
10.366
10.4771
10.55
10.5687
10.513
10.3559
10.0608
9.57741
8.83665
7.74749
6.20153
4.10387
1.46154
10.0302
10.0853
10.1244
10.1355
10.105
10.0166
9.84993
9.57925
9.1714
8.584
7.76432
6.65138
5.18636
3.33974
1.16187
9.98602
9.95254
9.90217
9.82266
9.70024
9.5188
9.2591
8.89781
8.40661
7.75186
6.89561
5.79974
4.43617
2.80562
0.963492
9.94569
9.83146
9.70017
9.53964
9.33643
9.07533
8.7388
8.30655
7.75536
7.05963
6.19325
5.13398
3.87135
2.41842
0.824034
9.90924
9.72222
9.51847
9.28624
9.01281
8.68422
8.28495
7.79786
7.20447
6.48587
5.62482
4.60941
3.43867
2.12945
0.72185
9.87662
9.62458
9.35655
9.06143
8.72748
8.34217
7.89205
7.36297
6.7405
6.01102
5.16357
4.19269
3.10215
1.90879
0.644728
9.84767
9.53804
9.21343
8.86357
8.47782
8.0451
7.55398
6.99292
6.35083
5.61808
4.78802
3.85906
2.83701
1.73723
0.585237
9.82216
9.4619
9.08783
8.69062
8.26075
7.78858
7.26447
6.67912
6.02409
5.29269
4.48115
3.59005
2.62585
1.60192
0.538577
9.79984
9.39534
8.9783
8.54034
8.07305
7.56811
7.01748
6.41369
5.75038
5.02295
4.2295
3.3718
2.45615
1.49398
0.501507
9.78041
9.33748
8.8833
8.41042
7.91148
7.37936
6.80739
6.18959
5.52117
4.79904
4.02248
3.19376
2.31876
1.40708
0.471753
9.76359
9.28744
8.80129
8.29858
7.77293
7.21829
6.62911
6.00064
5.32926
4.61293
3.85165
3.04787
2.20684
1.3366
0.447677
9.74909
9.24434
8.73077
8.20267
7.65452
7.0812
6.47811
5.84147
5.16855
4.45803
3.71033
2.92785
2.1152
1.27909
0.428068
9.73664
9.20735
8.67035
8.12067
7.55359
6.96476
6.35041
5.70748
5.03394
4.32895
3.59314
2.82878
2.03984
1.23192
0.41201
9.72598
9.1757
8.61872
8.05076
7.46775
6.86606
6.24253
5.59475
4.92116
4.22126
3.49578
2.74678
1.97765
1.19309
0.398804
9.71688
9.1487
8.57473
7.99128
7.3949
6.7825
6.1515
5.49995
4.82665
4.13134
3.41476
2.67874
1.92619
1.16101
0.387905
9.70913
9.12572
8.53733
7.94078
7.33316
6.71186
6.07474
5.42023
4.74742
4.05618
3.34723
2.62217
1.88349
1.13443
0.378882
9.70255
9.1062
8.50558
7.89798
7.28091
6.65219
6.01006
5.35322
4.68099
3.99331
3.29088
2.57507
1.848
1.11237
0.371395
9.69696
9.08964
8.47867
7.86174
7.23675
6.60185
5.95558
5.2969
4.62527
3.9407
3.24381
2.5358
1.81844
1.09401
0.36517
9.69222
9.07562
8.45591
7.83111
7.19946
6.5594
5.90973
5.24957
4.57853
3.89664
3.20446
2.50301
1.7938
1.07872
0.359986
9.68822
9.06377
8.43666
7.80524
7.168
6.52364
5.87114
5.20981
4.53932
3.85974
3.17154
2.47562
1.77322
1.06596
0.355663
9.68484
9.05375
8.42042
7.78341
7.14148
6.49352
5.83868
5.17641
4.50642
3.82881
3.14399
2.45271
1.75604
1.05531
0.352054
9.68198
9.0453
8.40671
7.76502
7.11914
6.46817
5.8114
5.14835
4.47882
3.80289
3.12092
2.43354
1.74167
1.0464
0.349039
9.67958
9.03818
8.39517
7.74952
7.10034
6.44685
5.78847
5.12479
4.45567
3.78117
3.1016
2.4175
1.72965
1.03896
0.346518
9.67755
9.03218
8.38544
7.73648
7.08452
6.42893
5.7692
5.10502
4.43625
3.76296
3.08542
2.40408
1.71959
1.03273
0.34441
9.67584
9.02714
8.37727
7.72552
7.07123
6.41388
5.75304
5.08844
4.41997
3.74771
3.07187
2.39284
1.71118
1.02753
0.342648
9.67441
9.0229
8.3704
7.71631
7.06008
6.40125
5.73948
5.07454
4.40634
3.73493
3.06053
2.38344
1.70414
1.02317
0.341174
9.67321
9.01934
8.36464
7.70859
7.05073
6.39067
5.72812
5.0629
4.39492
3.72425
3.05104
2.37559
1.69826
1.01953
0.339943
9.6722
9.01636
8.35981
7.70212
7.0429
6.38181
5.71862
5.05316
4.38538
3.71532
3.04312
2.36902
1.69335
1.0165
0.338915
9.67136
9.01387
8.35578
7.69672
7.03636
6.37442
5.71069
5.04504
4.37743
3.70788
3.03652
2.36356
1.68926
1.01397
0.338059
9.67066
9.0118
8.35243
7.69223
7.03092
6.36827
5.7041
5.03829
4.37081
3.70169
3.03103
2.35901
1.68586
1.01187
0.337348
9.67008
9.01008
8.34965
7.68851
7.02641
6.36317
5.69863
5.0327
4.36534
3.69657
3.02649
2.35526
1.68305
1.01013
0.33676
9.6696
9.00867
8.34736
7.68544
7.02271
6.35898
5.69414
5.0281
4.36083
3.69236
3.02276
2.35217
1.68074
1.0087
0.336277
9.66921
9.00751
8.34549
7.68294
7.01968
6.35557
5.69048
5.02435
4.35716
3.68893
3.01972
2.34965
1.67886
1.00754
0.335884
9.66889
9.00659
8.34399
7.68094
7.01726
6.35282
5.68754
5.02135
4.35422
3.68618
3.01728
2.34763
1.67735
1.00661
0.335568
9.66865
9.00586
8.34282
7.67936
7.01535
6.35067
5.68523
5.01899
4.35191
3.68402
3.01537
2.34605
1.67617
1.00587
0.33532
9.66846
9.00531
8.34193
7.67817
7.01391
6.34904
5.68349
5.0172
4.35016
3.68239
3.01393
2.34485
1.67528
1.00532
0.335133
9.66833
9.00492
8.3413
7.67733
7.01289
6.34789
5.68226
5.01594
4.34893
3.68124
3.0129
2.34401
1.67464
1.00493
0.335001
9.66825
9.00468
8.34091
7.67681
7.01226
6.34718
5.6815
5.01517
4.34817
3.68052
3.01227
2.34349
1.67425
1.00469
0.33492
9.66822
9.00459
8.34075
7.6766
7.01201
6.34689
5.68119
5.01485
4.34786
3.68023
3.01202
2.34327
1.67409
1.00459
0.334886
9.66823
9.00463
8.34082
7.67669
7.01212
6.34702
5.68132
5.01498
4.34799
3.68036
3.01212
2.34336
1.67416
1.00463
0.3349
9.66829
9.00481
8.34111
7.67708
7.01259
6.34755
5.68189
5.01557
4.34856
3.68089
3.0126
2.34376
1.67446
1.00481
0.334962
9.6684
9.00513
8.34164
7.67779
7.01345
6.34852
5.68293
5.01663
4.3496
3.68186
3.01346
2.34447
1.67499
1.00514
0.335073
9.66857
9.00562
8.34242
7.67883
7.01471
6.34995
5.68446
5.01819
4.35113
3.68329
3.01473
2.34551
1.67577
1.00563
0.335237
9.66879
9.00627
8.34348
7.68025
7.01642
6.35188
5.68653
5.02031
4.3532
3.68523
3.01644
2.34693
1.67683
1.00628
0.335458
9.66907
9.00711
8.34484
7.68207
7.01863
6.35437
5.6892
5.02304
4.35588
3.68773
3.01866
2.34877
1.6782
1.00713
0.335745
9.66943
9.00817
8.34655
7.68436
7.0214
6.3575
5.69255
5.02647
4.35924
3.69087
3.02144
2.35107
1.67992
1.00819
0.336105
9.66987
9.00947
8.34866
7.68719
7.02482
6.36136
5.69669
5.03071
4.36338
3.69474
3.02487
2.35391
1.68205
1.00951
0.336549
9.67041
9.01106
8.35124
7.69063
7.02898
6.36608
5.70174
5.03588
4.36844
3.69947
3.02906
2.35738
1.68464
1.01111
0.337092
9.67106
9.01298
8.35435
7.6948
7.03403
6.37178
5.70785
5.04213
4.37457
3.7052
3.03414
2.36158
1.68778
1.01305
0.337749
9.67184
9.0153
8.35809
7.69982
7.0401
6.37864
5.71521
5.04966
4.38195
3.7121
3.04026
2.36665
1.69157
1.0154
0.338542
9.67278
9.01807
8.36259
7.70583
7.04738
6.38688
5.72404
5.0587
4.3908
3.72038
3.0476
2.37273
1.69612
1.01821
0.339494
9.6739
9.02139
8.36796
7.71303
7.05609
6.39673
5.73461
5.06953
4.40141
3.7303
3.0564
2.38002
1.70157
1.02158
0.340635
9.67524
9.02535
8.37436
7.72161
7.06649
6.40849
5.74723
5.08246
4.41408
3.74217
3.06693
2.38874
1.7081
1.02562
0.342001
9.67683
9.03006
8.382
7.73185
7.07889
6.42252
5.76229
5.09789
4.42922
3.75634
3.07951
2.39916
1.7159
1.03044
0.343634
9.67873
9.03567
8.39109
7.74403
7.09365
6.43923
5.78023
5.11629
4.44727
3.77325
3.09452
2.41161
1.72522
1.03621
0.345586
9.68098
9.04234
8.40189
7.75852
7.11121
6.45913
5.80161
5.13822
4.4688
3.79343
3.11245
2.42648
1.73635
1.0431
0.347919
9.68366
9.05026
8.41472
7.77573
7.1321
6.48279
5.82705
5.16435
4.49446
3.81749
3.13384
2.44423
1.74965
1.05133
0.350706
9.68683
9.05965
8.42996
7.79618
7.15691
6.51094
5.85733
5.19546
4.52505
3.8462
3.15937
2.46543
1.76554
1.06118
0.354039
9.6906
9.07079
8.44803
7.82045
7.18637
6.54438
5.89334
5.23249
4.56149
3.88043
3.18985
2.49075
1.78453
1.07294
0.358025
9.69505
9.08399
8.46944
7.84922
7.22134
6.5841
5.93616
5.27658
4.60492
3.92127
3.22625
2.52102
1.80725
1.08703
0.362796
9.70033
9.0996
8.49479
7.8833
7.2628
6.63126
5.98705
5.32905
4.65668
3.97001
3.26974
2.55722
1.83444
1.10389
0.368512
9.70656
9.11806
8.52477
7.92365
7.31194
6.68721
6.04752
5.39148
4.71837
4.02819
3.32172
2.60056
1.86702
1.12412
0.375367
9.71391
9.13984
8.56018
7.97135
7.3701
6.75355
6.11934
5.46578
4.79191
4.09767
3.38392
2.65247
1.9061
1.1484
0.383603
9.72257
9.16552
8.60194
8.02768
7.43889
6.83214
6.2046
5.55417
4.8796
4.1807
3.45839
2.71476
1.95306
1.1776
0.393512
9.73276
9.19572
8.65112
8.0941
7.52014
6.92517
6.30577
5.6593
4.98418
4.27999
3.54766
2.78958
2.00957
1.21279
0.40546
9.74471
9.23119
8.70892
8.17229
7.61598
7.03517
6.42571
5.78434
5.10895
4.39881
3.65482
2.87963
2.07773
1.25529
0.419905
9.75869
9.27272
8.7767
8.26414
7.72883
7.16506
6.5678
5.93299
5.25783
4.54114
3.78364
2.98823
2.16014
1.30678
0.437421
9.77502
9.32122
8.85596
8.37177
7.86144
7.31819
6.73596
6.10965
5.43556
4.7118
3.93876
3.11953
2.26011
1.36938
0.458742
9.794
9.37767
8.94837
8.49755
8.01689
7.4984
6.93473
6.31949
5.64777
4.91667
4.12596
3.27873
2.3818
1.44582
0.484813
9.81599
9.44313
9.05571
8.64406
8.1986
7.70997
7.16929
6.56855
5.90121
5.16291
4.3524
3.47243
2.53061
1.53962
0.516872
9.84135
9.51869
9.17987
8.81405
8.41029
7.95767
7.44554
6.86385
6.20392
5.4593
4.62705
3.70909
2.71355
1.65547
0.556564
9.87044
9.60546
9.32278
9.01036
8.65588
8.2467
7.77007
7.21348
6.56542
5.81653
4.9612
3.99962
2.93991
1.79968
0.606129
9.90361
9.70451
9.48632
9.23588
8.93945
8.58256
8.15011
7.6266
6.99693
6.24766
5.36912
4.35829
3.22218
1.9809
0.668686
9.94117
9.81682
9.67226
9.49333
9.26498
8.97089
8.59336
8.11343
7.51147
6.76854
5.86889
4.80393
3.57748
2.21137
0.748713
9.98336
9.94317
9.88204
9.7851
9.63615
9.41713
9.10769
8.68498
8.12389
7.39823
6.48344
5.3617
4.02976
2.50888
0.852881
10.0303
10.0841
10.1167
10.113
10.0559
9.92613
9.70066
9.3526
8.85057
8.15922
7.24169
6.06541
4.61324
2.9002
0.991606
10.0821
10.2396
10.3765
10.4778
10.5263
10.5015
10.3787
10.1271
9.70867
9.07725
8.17958
6.9607
5.37784
3.42731
1.18214
10.1386
10.4094
10.6611
10.8793
11.0474
11.145
11.1462
11.0174
10.7146
10.1801
9.34051
8.1087
6.39775
4.159
1.45541
10.1993
10.5926
10.9689
11.3156
11.6175
11.8554
12.0039
12.0286
11.8815
11.4949
10.7737
9.58939
7.78416
5.21346
1.87256
10.2639
10.7874
11.2972
11.7831
12.2321
12.6278
12.9475
13.159
13.2146
13.0419
12.5286
11.5012
9.70211
6.80275
2.57042
10.3316
10.9916
11.6422
12.276
12.8837
13.4529
13.9662
14.3976
14.7061
14.8252
14.6405
13.9487
12.3841
9.31768
3.89915
10.4013
11.2024
11.9989
12.787
13.5618
14.3168
15.0418
15.7213
16.3293
16.8195
17.1043
17.0024
16.1088
13.466
6.88049
10.4721
11.4165
12.3614
13.3071
14.2538
15.2014
16.1489
17.0947
18.034
18.9565
19.8366
20.6058
21.0482
20.3521
14.8448
10.5427
11.6301
12.7233
13.8266
14.9452
16.0858
17.2573
18.4724
19.7503
21.1226
22.646
24.4359
26.7779
30.5794
39.6021
10.6121
11.8397
13.0781
14.3353
15.6213
16.9488
18.3353
19.8063
21.4009
23.1838
25.27
27.8824
31.4941
37.1805
47.3379
10.679
12.0418
13.4197
14.824
16.2685
17.7707
19.3546
21.0542
22.9206
25.0342
27.5284
30.6348
34.7692
40.6764
49.5846
0.903095
1.61707
1.92761
2.04239
2.04342
1.97103
1.84817
1.68925
1.50395
1.29911
1.07974
0.84968
0.61198
0.369152
0.123372
0.48421
1.10789
1.45756
1.62974
1.68587
1.66302
1.58438
1.4652
1.31602
1.14439
0.95597
0.755112
0.545317
0.329502
0.110213
0.304721
0.788979
1.11075
1.29766
1.38315
1.39374
1.34872
1.26198
1.14365
1.00133
0.840825
0.666741
0.482827
0.29226
0.0978407
0.212161
0.582896
0.85758
1.03599
1.13242
1.16306
1.14202
1.08067
0.987938
0.870876
0.7351
0.585186
0.424952
0.257691
0.0863436
0.156812
0.443507
0.671254
0.831245
0.927364
0.968248
0.963303
0.921131
0.849107
0.753407
0.639185
0.51079
0.371952
0.225954
0.0757762
0.120162
0.345048
0.531972
0.670842
0.760653
0.805251
0.810424
0.782313
0.726708
0.648789
0.553105
0.44364
0.32392
0.197118
0.0661621
0.0942323
0.272947
0.426053
0.544501
0.62533
0.669624
0.680647
0.66258
0.619796
0.5565
0.476586
0.383606
0.280801
0.171163
0.0574976
0.0750721
0.218625
0.344197
0.444276
0.51537
0.557092
0.571062
0.560001
0.527119
0.475745
0.409136
0.330389
0.242425
0.148002
0.049756
0.060488
0.176789
0.280038
0.364175
0.425801
0.463826
0.478853
0.47257
0.447277
0.405564
0.350109
0.28357
0.208531
0.127495
0.0428927
0.0491494
0.144014
0.229149
0.299702
0.352615
0.386525
0.401437
0.398333
0.378831
0.34492
0.298775
0.242648
0.178798
0.109462
0.0368506
0.0401947
0.117995
0.188383
0.247476
0.292621
0.322412
0.336526
0.335479
0.320388
0.292766
0.25437
0.207087
0.152872
0.0937037
0.0315645
0.0330377
0.0971204
0.155459
0.204932
0.243285
0.269183
0.282139
0.282373
0.270642
0.248092
0.216132
0.176337
0.130385
0.0800067
0.0269653
0.027264
0.0802338
0.128689
0.170109
0.202595
0.224936
0.236584
0.237572
0.228405
0.209949
0.183332
0.149861
0.110968
0.0681585
0.0229831
0.0225718
0.0664817
0.106802
0.141488
0.168949
0.188112
0.198427
0.199819
0.192616
0.177472
0.155288
0.127149
0.0942705
0.057952
0.0195499
0.0187362
0.0552215
0.0888257
0.117882
0.141062
0.15743
0.166466
0.168033
0.16234
0.149881
0.131377
0.107728
0.07996
0.0491917
0.0166009
0.015586
0.0459614
0.0740065
0.098357
0.117902
0.131839
0.139688
0.141286
0.13676
0.126484
0.111038
0.0911651
0.0677319
0.0416963
0.0140761
0.0129887
0.0383188
0.0617522
0.082167
0.0986366
0.110473
0.117248
0.118791
0.115172
0.106677
0.0937724
0.0770731
0.0573103
0.0353008
0.0119205
0.0108406
0.031993
0.0515931
0.0687157
0.082587
0.0926212
0.0984405
0.099878
0.0969687
0.0899304
0.0791403
0.0651077
0.0484481
0.0298568
0.0100847
0.00905968
0.0267448
0.0431539
0.0575214
0.0692008
0.0776951
0.0826745
0.0839826
0.0816312
0.0757881
0.0667587
0.0549658
0.0409268
0.0252324
0.00852455
0.00758014
0.0223825
0.0361317
0.048193
0.0580257
0.0652088
0.0694569
0.0706273
0.0687176
0.0638575
0.0562955
0.0463828
0.0345545
0.0213116
0.00720126
0.00634908
0.0187511
0.0302813
0.0404117
0.0486898
0.0547597
0.0583758
0.0594101
0.0578519
0.0538022
0.0474641
0.0391294
0.0291642
0.0179927
0.00608078
0.00532357
0.015725
0.0254025
0.0339161
0.0408869
0.0460139
0.0490868
0.0499925
0.0487156
0.0453355
0.0400185
0.0330078
0.0246113
0.0151879
0.00513357
0.00446863
0.0132014
0.0213315
0.0284916
0.0343637
0.0386938
0.0413023
0.0420898
0.0410393
0.0382132
0.0337486
0.0278482
0.0207711
0.012821
0.00433406
0.00375561
0.0110963
0.0179338
0.0239611
0.028911
0.0325689
0.0347817
0.035463
0.0345954
0.0322284
0.0284752
0.0235053
0.0175369
0.0108268
0.0036603
0.003161
0.00934031
0.0150987
0.0201784
0.024355
0.0274471
0.0293241
0.0299115
0.0291921
0.0272059
0.0240463
0.0198556
0.0148175
0.00914946
0.00309349
0.00266542
0.00787658
0.0127345
0.0170227
0.0205519
0.0231686
0.0247619
0.0252671
0.0246683
0.0229978
0.0203332
0.016794
0.0125353
0.0077414
0.0026176
0.00225292
0.00665805
0.0107659
0.0143938
0.0173821
0.0196006
0.0209548
0.021389
0.0208885
0.0194796
0.0172272
0.0142318
0.0106248
0.00656229
0.00221905
0.00191033
0.00564591
0.00913027
0.012209
0.0147467
0.0166327
0.0177863
0.0181596
0.0177393
0.0165469
0.0146369
0.0120942
0.00903032
0.00557808
0.00188633
0.00162679
0.00480816
0.00777623
0.0103998
0.0125635
0.0141731
0.0151594
0.0154811
0.0151262
0.0141124
0.0124858
0.0103185
0.00770542
0.0047601
0.00160979
0.00139339
0.00411847
0.00666133
0.00890977
0.0107651
0.0121463
0.0129939