/*--------------------------------*- C++ -*----------------------------------*\
| =========                 |                                                 |
| \\      /  F ield         | OpenFOAM: The Open Source CFD Toolbox           |
|  \\    /   O peration     | Version:  5.x                                   |
|   \\  /    A nd           | Web:      www.OpenFOAM.org                      |
|    \\/     M anipulation  |                                                 |
\*---------------------------------------------------------------------------*/
FoamFile
{
    version     2.0;
    format      ascii;
    class       volScalarField;
    location    "3";
    object      gradTy;
}
// * * * * * * * * * * * * * * * * * * * * * * * * * * * * * * * * * * * * * //

dimensions      [0 -1 0 1 0 0 0];

internalField   nonuniform List<scalar> 
2048
(
-27.5092
-27.4753
-27.4086
-27.3112
-27.1856
-27.0353
-26.8638
-26.6747
-26.4715
-26.2574
-26.0354
-25.808
-25.5776
-25.346
-25.115
-24.8859
-24.6598
-24.4377
-24.2202
-24.0078
-23.8007
-23.5991
-23.403
-23.2122
-23.0268
-22.8466
-22.6716
-22.5016
-22.3366
-22.1766
-22.0216
-21.8716
-21.7269
-21.5874
-21.4535
-21.3254
-21.2032
-21.0872
-20.9776
-20.8746
-20.7785
-20.6896
-20.6081
-20.5344
-20.4688
-20.4117
-20.3634
-20.3241
-20.2941
-20.2735
-20.2622
-20.2598
-20.2658
-20.2795
-20.2997
-20.3251
-20.3542
-20.3851
-20.4162
-20.4455
-20.4713
-20.4921
-20.5066
-20.5141
-27.5366
-27.5019
-27.4336
-27.3339
-27.2057
-27.0525
-26.878
-26.6861
-26.4802
-26.2638
-26.0397
-25.8105
-25.5785
-25.3456
-25.1134
-24.8834
-24.6566
-24.434
-24.2161
-24.0035
-23.7963
-23.5947
-23.3986
-23.2079
-23.0226
-22.8425
-22.6675
-22.4975
-22.3326
-22.1725
-22.0175
-21.8674
-21.7225
-21.5829
-21.4489
-21.3205
-21.1982
-21.082
-20.9722
-20.869
-20.7727
-20.6836
-20.6018
-20.5278
-20.462
-20.4046
-20.356
-20.3166
-20.2865
-20.266
-20.2549
-20.2529
-20.2596
-20.2741
-20.2954
-20.3221
-20.3526
-20.385
-20.4176
-20.4482
-20.4753
-20.497
-20.5123
-20.5201
-27.589
-27.5526
-27.4812
-27.3771
-27.2437
-27.085
-26.9049
-26.7075
-26.4967
-26.2757
-26.0477
-25.8151
-25.5801
-25.3446
-25.1103
-24.8785
-24.6504
-24.4268
-24.2083
-23.9952
-23.7879
-23.5863
-23.3903
-23.1997
-23.0146
-22.8346
-22.6598
-22.4899
-22.325
-22.1649
-22.0097
-21.8595
-21.7144
-21.5745
-21.4401
-21.3114
-21.1887
-21.0721
-20.962
-20.8585
-20.7618
-20.6722
-20.5899
-20.5154
-20.4489
-20.391
-20.342
-20.3022
-20.2721
-20.2517
-20.241
-20.2398
-20.2477
-20.2639
-20.2872
-20.3163
-20.3495
-20.3848
-20.4202
-20.4536
-20.483
-20.5067
-20.5233
-20.5318
-27.6643
-27.6255
-27.5493
-27.4388
-27.2977
-27.1308
-26.9425
-26.7374
-26.5194
-26.2921
-26.0585
-25.821
-25.5819
-25.3429
-25.1056
-24.8714
-24.6414
-24.4164
-24.1969
-23.9834
-23.7759
-23.5743
-23.3785
-23.1882
-23.0033
-22.8236
-22.6489
-22.4792
-22.3143
-22.1542
-21.9989
-21.8484
-21.7029
-21.5626
-21.4277
-21.2985
-21.1753
-21.0583
-20.9476
-20.8436
-20.7464
-20.6561
-20.5732
-20.4979
-20.4306
-20.3719
-20.3221
-20.2819
-20.2515
-20.2312
-20.221
-20.221
-20.2306
-20.2491
-20.2753
-20.308
-20.3451
-20.3846
-20.4241
-20.4615
-20.4943
-20.5208
-20.5393
-20.5488
-27.7609
-27.7187
-27.6362
-27.517
-27.3658
-27.1881
-26.9892
-26.774
-26.547
-26.3118
-26.0712
-25.8278
-25.5836
-25.3402
-25.0992
-24.8619
-24.6295
-24.4029
-24.1824
-23.9683
-23.7607
-23.5592
-23.3637
-23.1738
-22.9892
-22.8098
-22.6354
-22.4658
-22.301
-22.1409
-21.9854
-21.8346
-21.6886
-21.5477
-21.4122
-21.2824
-21.1585
-21.0409
-20.9297
-20.8251
-20.7272
-20.6362
-20.5523
-20.476
-20.4076
-20.3478
-20.2971
-20.2561
-20.2253
-20.2051
-20.1956
-20.1968
-20.2085
-20.2299
-20.26
-20.2971
-20.3393
-20.3842
-20.4293
-20.4717
-20.5091
-20.5392
-20.5602
-20.571
-27.8776
-27.8311
-27.7404
-27.6102
-27.4463
-27.2552
-27.0432
-26.816
-26.5782
-26.3337
-26.0851
-25.8348
-25.5846
-25.3361
-25.0908
-24.8501
-24.615
-24.3864
-24.1647
-23.9502
-23.7425
-23.5414
-23.3463
-23.1569
-22.9728
-22.7938
-22.6197
-22.4503
-22.2857
-22.1255
-21.9698
-21.8186
-21.6721
-21.5304
-21.3941
-21.2635
-21.1389
-21.0206
-20.9088
-20.8035
-20.7048
-20.6129
-20.528
-20.4504
-20.3807
-20.3195
-20.2676
-20.2256
-20.1942
-20.1739
-20.165
-20.1677
-20.1818
-20.2066
-20.2411
-20.2837
-20.3321
-20.3838
-20.4356
-20.4845
-20.5274
-20.562
-20.5861
-20.5984
-28.0139
-27.9619
-27.8611
-27.7172
-27.5376
-27.3304
-27.1029
-26.8617
-26.6117
-26.3567
-26.0993
-25.8415
-25.5848
-25.3306
-25.0805
-24.8357
-24.5976
-24.3669
-24.1441
-23.9292
-23.7217
-23.5211
-23.3267
-23.1379
-22.9544
-22.7758
-22.6021
-22.433
-22.2686
-22.1084
-21.9525
-21.8008
-21.6536
-21.5111
-21.3738
-21.2422
-21.1168
-20.9978
-20.8853
-20.7793
-20.6799
-20.5869
-20.5008
-20.4217
-20.3504
-20.2876
-20.2341
-20.1908
-20.1585
-20.138
-20.1296
-20.1338
-20.1505
-20.1792
-20.2188
-20.2677
-20.3236
-20.3832
-20.4432
-20.4997
-20.5494
-20.5892
-20.617
-20.6312
-28.1692
-28.1105
-27.9972
-27.8367
-27.6384
-27.4121
-27.1667
-26.9096
-26.6462
-26.3799
-26.1132
-25.8474
-25.5837
-25.3234
-25.068
-24.8188
-24.5774
-24.3445
-24.1206
-23.9055
-23.6985
-23.4987
-23.3052
-23.1172
-22.9343
-22.7563
-22.583
-22.4143
-22.2501
-22.09
-21.9339
-21.7817
-21.6336
-21.49
-21.3516
-21.2189
-21.0925
-20.9728
-20.8597
-20.7531
-20.6528
-20.5588
-20.4713
-20.3905
-20.3173
-20.2525
-20.1971
-20.1522
-20.1187
-20.0977
-20.0897
-20.0953
-20.1147
-20.1476
-20.193
-20.2492
-20.3135
-20.3825
-20.452
-20.5176
-20.5751
-20.6211
-20.653
-20.6693
-28.3437
-28.2768
-28.1483
-27.9678
-27.7472
-27.4987
-27.233
-26.9583
-26.6804
-26.4024
-26.126
-25.852
-25.5811
-25.3144
-25.0532
-24.7993
-24.5542
-24.3191
-24.0942
-23.8792
-23.6731
-23.4745
-23.2822
-23.0952
-22.913
-22.7355
-22.5626
-22.3944
-22.2306
-22.0707
-21.9144
-21.7616
-21.6125
-21.4676
-21.3277
-21.1938
-21.0664
-20.9459
-20.8322
-20.7251
-20.6241
-20.5291
-20.44
-20.3574
-20.2819
-20.2147
-20.157
-20.1101
-20.0752
-20.0534
-20.0455
-20.0525
-20.0746
-20.1118
-20.1635
-20.2277
-20.3018
-20.3816
-20.4621
-20.5382
-20.6047
-20.6577
-20.6943
-20.7129
-28.5376
-28.4606
-28.3137
-28.1093
-27.8625
-27.5885
-27.2999
-27.0062
-26.7131
-26.4232
-26.1373
-25.8552
-25.577
-25.3035
-25.0362
-24.7771
-24.5281
-24.2906
-24.065
-23.8505
-23.6458
-23.4488
-23.258
-23.0722
-22.8908
-22.7137
-22.5413
-22.3736
-22.2103
-22.0507
-21.8943
-21.7409
-21.5905
-21.4441
-21.3026
-21.1672
-21.0387
-20.9174
-20.8033
-20.6959
-20.5943
-20.4982
-20.4076
-20.3227
-20.2447
-20.1747
-20.1143
-20.0651
-20.0283
-20.0053
-19.9973
-20.0053
-20.03
-20.0718
-20.1301
-20.2033
-20.2883
-20.3803
-20.4736
-20.5617
-20.6385
-20.6993
-20.741
-20.7621
-28.7514
-28.6622
-28.4932
-28.2603
-27.9829
-27.6797
-27.3659
-27.0519
-26.7432
-26.4417
-26.1467
-25.8568
-25.5714
-25.2908
-25.0169
-24.7521
-24.4989
-24.259
-24.0329
-23.8195
-23.6167
-23.422
-23.2331
-23.0486
-22.8678
-22.6912
-22.5191
-22.352
-22.1895
-22.0305
-21.8741
-21.7199
-21.5681
-21.4197
-21.2762
-21.1391
-21.0094
-20.8876
-20.7733
-20.6657
-20.5638
-20.4667
-20.3743
-20.2871
-20.2061
-20.1329
-20.0694
-20.0173
-19.9783
-19.9538
-19.9452
-19.954
-19.9811
-20.0274
-20.0927
-20.1756
-20.2727
-20.3786
-20.4865
-20.5883
-20.6767
-20.746
-20.7932
-20.817
-28.9859
-28.882
-28.6863
-28.4197
-28.1067
-27.7707
-27.4292
-27.0937
-26.7696
-26.4572
-26.154
-25.8569
-25.5643
-25.2765
-24.9953
-24.7242
-24.4665
-24.2242
-23.9979
-23.7862
-23.5862
-23.3944
-23.2078
-23.0246
-22.8445
-22.6681
-22.4963
-22.3299
-22.1684
-22.0102
-21.8539
-21.699
-21.5455
-21.3948
-21.2489
-21.1098
-20.9788
-20.8564
-20.7422
-20.6349
-20.5329
-20.435
-20.3408
-20.2509
-20.1665
-20.0897
-20.0226
-19.9672
-19.9255
-19.8991
-19.8896
-19.8986
-19.9278
-19.9784
-20.051
-20.1442
-20.2547
-20.3763
-20.5008
-20.6183
-20.7196
-20.7982
-20.851
-20.8774
-29.2422
-29.1205
-28.893
-28.5864
-28.2324
-27.8593
-27.4878
-27.1303
-26.7913
-26.4693
-26.159
-25.8555
-25.5561
-25.2607
-24.9716
-24.6934
-24.4307
-24.186
-23.9599
-23.7508
-23.5545
-23.3664
-23.1825
-23.0008
-22.8211
-22.6445
-22.4728
-22.3073
-22.1471
-21.9902
-21.8343
-21.6785
-21.523
-21.3695
-21.2206
-21.0792
-20.9468
-20.8241
-20.7104
-20.6038
-20.502
-20.4034
-20.3074
-20.2145
-20.1263
-20.0453
-19.9741
-19.9151
-19.8703
-19.8415
-19.8306
-19.8395
-19.8702
-19.9249
-20.0047
-20.1089
-20.2341
-20.3733
-20.5166
-20.6519
-20.7675
-20.8559
-20.9145
-20.9433
-29.5216
-29.3784
-29.1129
-28.7594
-28.3579
-27.9437
-27.54
-27.16
-26.8073
-26.4774
-26.162
-25.8531
-25.5471
-25.2438
-24.9459
-24.6596
-24.3913
-24.1442
-23.9189
-23.7132
-23.5218
-23.3384
-23.1577
-22.9775
-22.7979
-22.6205
-22.4486
-22.2841
-22.1259
-21.9707
-21.8155
-21.6588
-21.5009
-21.3439
-21.1915
-21.0473
-20.9136
-20.7907
-20.678
-20.5727
-20.4717
-20.3725
-20.2745
-20.1783
-20.0858
-20.0001
-19.9243
-19.8612
-19.8129
-19.7814
-19.7686
-19.7767
-19.8084
-19.8665
-19.9535
-20.0693
-20.2104
-20.3691
-20.534
-20.6896
-20.821
-20.9196
-20.9835
-21.0145
-29.8258
-29.6566
-29.3459
-28.9372
-28.4813
-28.0216
-27.5839
-27.1814
-26.8167
-26.4815
-26.163
-25.85
-25.5378
-25.2261
-24.9183
-24.6227
-24.3482
-24.0986
-23.8746
-23.6736
-23.4886
-23.3109
-23.1338
-22.955
-22.775
-22.5962
-22.4235
-22.2603
-22.1048
-21.9522
-21.7979
-21.6402
-21.4796
-21.3184
-21.1615
-21.0142
-20.8789
-20.7562
-20.645
-20.5418
-20.4421
-20.3427
-20.2426
-20.1428
-20.0454
-19.9542
-19.8734
-19.8058
-19.7537
-19.7191
-19.704
-19.7106
-19.7423
-19.8033
-19.8971
-20.0248
-20.1831
-20.3636
-20.5529
-20.7318
-20.8806
-20.9893
-21.0579
-21.0905
-30.1565
-29.956
-29.5918
-29.1183
-28.6003
-28.0911
-27.6176
-27.193
-26.8187
-26.4815
-26.1628
-25.8468
-25.5287
-25.2084
-24.8889
-24.5824
-24.3012
-24.049
-23.8268
-23.6319
-23.455
-23.2845
-23.1113
-22.9337
-22.7529
-22.5716
-22.3973
-22.2357
-22.0839
-21.9348
-21.7818
-21.6231
-21.4593
-21.2928
-21.1306
-20.9797
-20.8428
-20.7204
-20.6116
-20.5114
-20.4138
-20.3142
-20.212
-20.1083
-20.0052
-19.9079
-19.8216
-19.7492
-19.6929
-19.6549
-19.6369
-19.6414
-19.6723
-19.735
-19.8351
-19.9751
-20.1518
-20.3561
-20.5735
-20.7792
-20.947
-21.0655
-21.1376
-21.171
-30.5161
-30.2776
-29.8507
-29.3012
-28.7122
-28.1498
-27.6394
-27.1932
-26.8127
-26.4775
-26.1618
-25.8443
-25.5205
-25.1912
-24.8581
-24.5384
-24.2499
-23.9951
-23.7751
-23.5883
-23.4216
-23.2597
-23.0908
-22.9141
-22.7318
-22.5465
-22.3696
-22.21
-22.0633
-21.9191
-21.7676
-21.6078
-21.4406
-21.2675
-21.0985
-20.9438
-20.805
-20.6833
-20.5778
-20.4817
-20.3871
-20.2876
-20.183
-20.0751
-19.9655
-19.8611
-19.769
-19.6916
-19.6308
-19.5892
-19.568
-19.5695
-19.5984
-19.6617
-19.7671
-19.9196
-20.1158
-20.3462
-20.5957
-20.8327
-21.021
-21.1483
-21.2221
-21.2551
-30.9069
-30.6223
-30.1224
-29.484
-28.8141
-28.1957
-27.6475
-27.1805
-26.7979
-26.4698
-26.1613
-25.843
-25.5138
-25.1756
-24.8259
-24.4902
-24.1942
-23.9366
-23.7192
-23.5425
-23.3886
-23.2374
-23.0727
-22.8964
-22.7122
-22.5209
-22.3396
-22.183
-22.0432
-21.9054
-21.7558
-21.5946
-21.4238
-21.2424
-21.0651
-20.9062
-20.7656
-20.6445
-20.5435
-20.4531
-20.3625
-20.2631
-20.156
-20.0436
-19.9265
-19.814
-19.7159
-19.6331
-19.5677
-19.5223
-19.4975
-19.4953
-19.5209
-19.5832
-19.6929
-19.8579
-20.0747
-20.3329
-20.6193
-20.8935
-21.1038
-21.238
-21.311
-21.342
-31.332
-30.9909
-30.4071
-29.6645
-28.9022
-28.227
-27.6407
-27.1532
-26.774
-26.4589
-26.1626
-25.8438
-25.509
-25.1626
-24.7927
-24.437
-24.1339
-23.8735
-23.6584
-23.4946
-23.3566
-23.2185
-23.0575
-22.8808
-22.6947
-22.4945
-22.3065
-22.1541
-22.0236
-21.8945
-21.7465
-21.5838
-21.4095
-21.2177
-21.0297
-20.867
-20.7244
-20.6039
-20.5089
-20.4258
-20.3406
-20.241
-20.1311
-20.0144
-19.8883
-19.7664
-19.6622
-19.5741
-19.5036
-19.4546
-19.4259
-19.4193
-19.4402
-19.4996
-19.6119
-19.7896
-20.0279
-20.3151
-20.6441
-20.963
-21.1967
-21.3347
-21.4036
-21.4307
-31.7947
-31.3833
-30.7057
-29.8404
-28.9723
-28.2423
-27.6179
-27.1093
-26.7405
-26.4454
-26.1674
-25.8472
-25.5062
-25.154
-24.7585
-24.3775
-24.0693
-23.8057
-23.5918
-23.4445
-23.326
-23.2042
-23.0456
-22.8676
-22.6803
-22.4673
-22.2689
-22.1229
-22.0046
-21.8871
-21.74
-21.5754
-21.3988
-21.1935
-20.9918
-20.8261
-20.6814
-20.5607
-20.4738
-20.4
-20.322
-20.2216
-20.1084
-19.988
-19.8511
-19.718
-19.6082
-19.5147
-19.4389
-19.3865
-19.3539
-19.3421
-19.3566
-19.4109
-19.5236
-19.7142
-19.9751
-20.2912
-20.6695
-21.0435
-21.3012
-21.4386
-21.4991
-21.52
-32.2991
-31.7988
-31.0195
-30.009
-29.0186
-28.241
-27.5785
-27.0462
-26.6974
-26.4299
-26.1783
-25.8536
-25.5053
-25.1523
-24.7236
-24.3096
-24.0007
-23.7333
-23.5182
-23.3923
-23.2971
-23.1961
-23.037
-22.8563
-22.6704
-22.4392
-22.2252
-22.0889
-21.9863
-21.8844
-21.7364
-21.5691
-21.3928
-21.1698
-20.9501
-20.7838
-20.6365
-20.5145
-20.4382
-20.3759
-20.3076
-20.2049
-20.0878
-19.9652
-19.815
-19.6681
-19.5542
-19.4552
-19.3733
-19.3184
-19.2818
-19.2643
-19.2706
-19.3172
-19.4274
-19.6315
-19.9162
-20.259
-20.6944
-21.138
-21.4192
-21.5496
-21.5963
-21.6086
-32.8504
-32.2348
-31.3514
-30.1676
-29.0338
-28.2239
-27.523
-26.9607
-26.645
-26.4129
-26.1988
-25.8629
-25.5052
-25.1611
-24.6882
-24.2303
-23.9293
-23.6569
-23.4354
-23.3381
-23.2704
-23.1962
-23.0319
-22.8462
-22.6671
-22.4098
-22.1727
-22.0518
-21.9687
-21.8883
-21.7357
-21.5644
-21.3935
-21.1466
-20.9029
-20.7408
-20.5902
-20.4639
-20.4023
-20.3537
-20.2985
-20.191
-20.0688
-19.9471
-19.78
-19.6158
-19.5004
-19.3959
-19.307
-19.2507
-19.2101
-19.1865
-19.1828
-19.2188
-19.3225
-19.5412
-19.8518
-20.2155
-20.7172
-21.2506
-21.5529
-21.6672
-21.694
-21.6951
-33.4552
-32.6857
-31.7066
-30.313
-29.0076
-28.1936
-27.4523
-26.8478
-26.5842
-26.3943
-26.2336
-25.8746
-25.5033
-25.1855
-24.6524
-24.1347
-23.8574
-23.5774
-23.3407
-23.2826
-23.2456
-23.2076
-23.0297
-22.8358
-22.6737
-22.3792
-22.1079
-22.0115
-21.9515
-21.901
-21.7373
-21.5598
-21.4037
-21.1241
-20.8476
-20.6981
-20.5428
-20.4074
-20.3663
-20.3333
-20.2963
-20.1796
-20.0506
-19.9355
-19.7462
-19.5597
-19.4475
-19.3373
-19.2393
-19.184
-19.1395
-19.1096
-19.0939
-19.1162
-19.2077
-19.4434
-19.7834
-20.1565
-20.7349
-21.3872
-21.7043
-21.7907
-21.7908
-21.7779
-34.1221
-33.1413
-32.0939
-30.442
-28.9262
-28.1561
-27.3689
-26.7008
-26.5176
-26.3732
-26.2896
-25.8872
-25.4955
-25.2336
-24.6165
-24.0158
-23.7888
-23.4963
-23.2297
-23.2269
-23.2221
-23.2346
-23.0294
-22.8222
-22.6952
-22.3473
-22.0258
-21.9687
-21.934
-21.9261
-21.7405
-21.5531
-21.4276
-21.1021
-20.7802
-20.6579
-20.4952
-20.3426
-20.331
-20.3142
-20.3034
-20.17
-20.0317
-19.9329
-19.7135
-19.4976
-19.3968
-19.2797
-19.1698
-19.1189
-19.0702
-19.0344
-19.0043
-19.01
-19.0812
-19.3377
-19.7141
-20.0766
-20.7435
-21.5563
-21.8757
-21.9188
-21.8848
-21.8556
-34.8631
-33.5845
-32.5276
-30.5511
-28.7702
-28.1218
-27.2764
-26.5093
-26.4496
-26.3467
-26.3766
-25.8982
-25.4746
-25.3167
-24.5803
-23.8629
-23.73
-23.416
-23.0958
-23.1739
-23.1978
-23.2832
-23.0294
-22.8009
-22.7388
-22.314
-21.9196
-21.9254
-21.9145
-21.9687
-21.7438
-21.5402
-21.4714
-21.0807
-20.6947
-20.6236
-20.4485
-20.2658
-20.2976
-20.2954
-20.3229
-20.1615
-20.0094
-19.9431
-19.6819
-19.4261
-19.3498
-19.2239
-19.0971
-19.0564
-19.0026
-18.9618
-18.9149
-18.9015
-18.9408
-19.224
-19.6492
-19.9682
-20.7365
-21.7698
-22.0688
-22.0494
-21.9743
-21.9268
-35.6946
-33.9877
-33.0306
-30.6366
-28.5124
-28.1076
-27.1803
-26.2583
-26.3885
-26.3087
-26.5084
-25.9036
-25.4293
-25.4516
-24.544
-23.6607
-23.691
-23.3396
-22.9296
-23.1282
-23.1688
-23.3622
-23.027
-22.7647
-22.8153
-22.2792
-21.7797
-21.8855
-21.8896
-22.0362
-21.7449
-21.5151
-21.5441
-21.0599
-20.5828
-20.6007
-20.4046
-20.1717
-20.269
-20.2746
-20.3598
-20.1525
-19.98
-19.9714
-19.6511
-19.3405
-19.3097
-19.1706
-19.0193
-18.9978
-18.9367
-18.893
-18.8262
-18.7926
-18.7831
-19.1015
-19.5971
-19.8214
-20.7044
-22.0443
-22.2841
-22.1798
-22.0572
-21.9904
-36.6399
-34.3083
-33.6374
-30.6946
-28.1152
-28.1394
-27.0877
-25.9259
-26.3483
-26.2481
-26.705
-25.8973
-25.3425
-25.662
-24.507
-23.3872
-23.6869
-23.2717
-22.7172
-23.0983
-23.1278
-23.4841
-23.0184
-22.7027
-22.9398
-22.2427
-21.5928
-21.8561
-21.8534
-22.1392
-21.7406
-21.4684
-21.6587
-21.0392
-20.4325
-20.5974
-20.3657
-20.0529
-20.2495
-20.2478
-20.4207
-20.1408
-19.9375
-20.0258
-19.6209
-19.2341
-19.2807
-19.1207
-18.9335
-18.9452
-18.8721
-18.8291
-18.7384
-18.6863
-18.6034
-18.9688
-19.5709
-19.6233
-20.6337
-22.4033
-22.5203
-22.3062
-22.1315
-22.0453
-37.7311
-34.4825
-34.3997
-30.7209
-27.5265
-28.2556
-27.0078
-25.4811
-26.3513
-26.1456
-26.9943
-25.8711
-25.1896
-25.9814
-24.4689
-23.012
-23.7402
-23.2178
-22.4392
-23.0977
-23.0625
-23.6666
-22.9982
-22.5992
-23.1337
-22.204
-21.3409
-21.8491
-21.7958
-22.2924
-21.7264
-21.3868
-21.833
-21.0185
-20.2269
-20.626
-20.335
-19.8984
-20.2467
-20.2083
-20.5152
-20.1235
-19.8736
-20.1173
-19.5905
-19.0976
-19.2695
-19.0751
-18.8355
-18.9017
-18.8079
-18.7719
-18.6513
-18.5869
-18.3956
-18.8229
-19.5896
-19.3568
-20.5053
-22.8792
-22.7731
-22.424
-22.1955
-22.0908
-39.0133
-34.4179
-35.3921
-30.7103
-26.6758
-28.5112
-26.9517
-24.8799
-26.4327
-25.9707
-27.4155
-25.8138
-24.9356
-26.4556
-24.4284
-22.493
-23.8825
-23.1851
-22.068
-23.1477
-22.9534
-23.9343
-22.9592
-22.432
-23.4265
-22.1621
-20.9994
-21.8833
-21.7006
-22.5169
-21.6963
-21.2512
-22.0922
-20.997
-19.943
-20.7038
-20.3164
-19.6931
-20.2722
-20.1452
-20.6567
-20.0966
-19.7763
-20.2614
-19.5589
-18.9184
-19.2855
-19.0348
-18.7194
-18.8717
-18.7424
-18.7234
-18.5639
-18.5011
-18.1514
-18.6584
-19.6806
-19.0007
-20.2927
-23.5161
-23.0331
-22.5278
-22.2476
-22.1266
-40.5479
-33.9837
-36.7201
-30.6568
-25.4685
-28.9828
-26.9324
-24.062
-26.6451
-25.676
-28.0224
-25.7105
-24.5321
-27.1469
-24.3835
-21.7737
-24.1584
-23.1819
-21.5657
-23.2807
-22.7705
-24.3214
-22.8919
-22.1701
-23.8578
-22.1152
-20.5356
-21.9873
-21.5427
-22.8413
-21.6424
-21.0355
-22.4698
-20.9738
-19.5497
-20.8551
-20.3143
-19.4162
-20.3438
-20.0423
-20.8639
-20.0549
-19.6294
-20.4787
-19.5246
-18.6794
-19.3422
-19.0006
-18.577
-18.8619
-18.6723
-18.6863
-18.4738
-18.4382
-17.8603
-18.4666
-19.8815
-18.5276
-19.9601
-24.3737
-23.2836
-22.612
-22.2867
-22.1527
-42.4184
-32.9991
-38.5293
-30.5518
-23.7802
-29.7745
-26.9641
-22.9454
-27.0655
-25.1914
-28.8884
-25.5423
-23.9138
-28.1379
-24.3311
-20.7795
-24.6281
-23.218
-20.8811
-23.5439
-22.4696
-24.8744
-22.7841
-21.772
-24.4807
-22.0604
-19.9061
-22.2026
-21.2852
-23.3046
-21.5545
-20.7042
-23.0106
-20.9471
-19.0063
-21.1128
-20.3342
-19.0395
-20.4875
-19.8753
-21.1621
-19.9914
-19.4107
-20.7971
-19.4852
-18.3583
-19.4579
-18.973
-18.3973
-18.8816
-18.5928
-18.6648
-18.3769
-18.4111
-17.5092
-18.2336
-20.2432
-17.9041
-19.4592
-25.5314
-23.498
-22.6712
-22.3122
-22.1693
-44.7359
-31.2201
-41.0167
-30.3836
-21.4492
-31.0249
-27.0623
-21.421
-27.8028
-24.4162
-30.1115
-25.285
-22.9944
-29.5359
-24.2667
-19.4135
-25.3718
-23.3045
-19.946
-24.0046
-21.9871
-25.6551
-22.6205
-21.1826
-25.3639
-21.9929
-19.054
-22.5881
-20.8744
-23.9588
-21.4198
-20.21
-23.7726
-20.9143
-18.2591
-21.5205
-20.3817
-18.5248
-20.7395
-19.6086
-21.5843
-19.8969
-19.0906
-21.2521
-19.4361
-17.9253
-19.6563
-18.9505
-18.1648
-18.9424
-18.4953
-18.6629
-18.2647
-18.4359
-17.0803
-17.9369
-20.8306
-17.0869
-18.7244
-27.0907
-23.6334
-22.6989
-22.3218
-22.1745
)
;

boundaryField
{
    left
    {
        type            calculated;
        value           nonuniform List<scalar> 
32
(
-27.5092
-27.5366
-27.589
-27.6643
-27.7609
-27.8776
-28.0139
-28.1692
-28.3437
-28.5376
-28.7514
-28.9859
-29.2422
-29.5216
-29.8258
-30.1565
-30.5161
-30.9069
-31.332
-31.7947
-32.2991
-32.8504
-33.4552
-34.1221
-34.8631
-35.6946
-36.6399
-37.7311
-39.0133
-40.5479
-42.4184
-44.7359
)
;
    }
    right
    {
        type            calculated;
        value           nonuniform List<scalar> 
32
(
-20.5141
-20.5201
-20.5318
-20.5488
-20.571
-20.5984
-20.6312
-20.6693
-20.7129
-20.7621
-20.817
-20.8774
-20.9433
-21.0145
-21.0905
-21.171
-21.2551
-21.342
-21.4307
-21.52
-21.6086
-21.6951
-21.7779
-21.8556
-21.9268
-21.9904
-22.0453
-22.0908
-22.1266
-22.1527
-22.1693
-22.1745
)
;
    }
    interface
    {
        type            calculated;
        value           nonuniform List<scalar> 
64
(
-46.0221
-30.0971
-42.4581
-30.282
-20.1004
-31.7844
-27.1299
-20.5414
-28.2666
-23.9412
-30.8263
-25.1307
-22.4472
-30.3518
-24.2308
-18.6239
-25.8236
-23.3618
-19.406
-24.2942
-21.6911
-26.1113
-22.5225
-20.8323
-25.8802
-21.9553
-18.5644
-22.832
-20.6227
-24.341
-21.3388
-19.9155
-24.217
-20.8959
-17.827
-21.768
-20.4131
-18.2274
-20.8979
-19.4451
-21.8311
-19.8405
-18.9008
-21.5187
-19.4085
-17.6765
-19.7794
-18.9401
-18.0329
-18.9846
-18.4406
-18.6674
-18.2033
-18.4634
-16.8439
-17.769
-21.1896
-16.6237
-18.2891
-27.9848
-23.6747
-22.7038
-22.3221
-22.1737
)
;
    }
    bottom
    {
        type            calculated;
        value           nonuniform List<scalar> 
64
(
-27.5021
-27.4684
-27.4022
-27.3053
-27.1804
-27.0308
-26.8601
-26.6717
-26.4691
-26.2557
-26.0342
-25.8074
-25.5773
-25.3461
-25.1154
-24.8865
-24.6606
-24.4387
-24.2213
-24.0089
-23.8019
-23.6003
-23.4041
-23.2134
-23.0279
-22.8477
-22.6727
-22.5027
-22.3377
-22.1776
-22.0226
-21.8727
-21.728
-21.5886
-21.4547
-21.3266
-21.2045
-21.0885
-20.979
-20.8761
-20.7801
-20.6912
-20.6098
-20.5362
-20.4706
-20.4136
-20.3653
-20.3261
-20.2961
-20.2755
-20.2641
-20.2616
-20.2674
-20.2809
-20.3008
-20.3259
-20.3546
-20.3852
-20.4158
-20.4448
-20.4702
-20.4908
-20.5052
-20.5126
)
;
    }
    defaultFaces
    {
        type            empty;
    }
}


// ************************************************************************* //
