/*--------------------------------*- C++ -*----------------------------------*\
| =========                 |                                                 |
| \\      /  F ield         | OpenFOAM: The Open Source CFD Toolbox           |
|  \\    /   O peration     | Version:  5.x                                   |
|   \\  /    A nd           | Web:      www.OpenFOAM.org                      |
|    \\/     M anipulation  |                                                 |
\*---------------------------------------------------------------------------*/
FoamFile
{
    version     2.0;
    format      ascii;
    class       volScalarField;
    location    "3";
    object      T;
}
// * * * * * * * * * * * * * * * * * * * * * * * * * * * * * * * * * * * * * //

dimensions      [0 0 0 1 0 0 0];

internalField   nonuniform List<scalar> 
2048
(
9.80242
9.80266
9.80314
9.80383
9.80473
9.8058
9.80703
9.80838
9.80984
9.81137
9.81296
9.81459
9.81625
9.81791
9.81956
9.82121
9.82283
9.82443
9.82599
9.82751
9.829
9.83045
9.83186
9.83323
9.83456
9.83586
9.83711
9.83833
9.83952
9.84067
9.84178
9.84286
9.8439
9.8449
9.84586
9.84678
9.84766
9.84849
9.84928
9.85002
9.85071
9.85135
9.85193
9.85246
9.85293
9.85334
9.85369
9.85397
9.85419
9.85434
9.85442
9.85444
9.85439
9.8543
9.85415
9.85397
9.85377
9.85355
9.85333
9.85312
9.85294
9.85279
9.85269
9.85263
9.41569
9.41642
9.41783
9.41991
9.42258
9.42578
9.42942
9.43345
9.43777
9.44232
9.44704
9.45187
9.45677
9.46169
9.4666
9.47146
9.47627
9.48098
9.4856
9.49011
9.49451
9.4988
9.50296
9.50701
9.51095
9.51478
9.51849
9.5221
9.52561
9.52901
9.5323
9.53548
9.53856
9.54152
9.54437
9.54709
9.54968
9.55215
9.55448
9.55666
9.5587
9.56059
9.56232
9.56389
9.56528
9.5665
9.56752
9.56836
9.56899
9.56943
9.56967
9.56972
9.56959
9.5693
9.56887
9.56833
9.56771
9.56705
9.56639
9.56576
9.56521
9.56477
9.56446
9.5643
9.04534
9.04653
9.04889
9.05232
9.05674
9.06203
9.06805
9.07468
9.08179
9.08928
9.09703
9.10496
9.11299
9.12105
9.12909
9.13706
9.14492
9.15264
9.16019
9.16756
9.17474
9.18173
9.18854
9.19515
9.20158
9.20782
9.21389
9.21978
9.22551
9.23106
9.23643
9.24164
9.24666
9.2515
9.25615
9.26059
9.26484
9.26886
9.27267
9.27624
9.27958
9.28267
9.2855
9.28807
9.29035
9.29234
9.29402
9.29538
9.29642
9.29714
9.29753
9.2976
9.29737
9.29688
9.29615
9.29524
9.29419
9.29308
9.29197
9.29092
9.28999
9.28924
9.28872
9.28845
8.69035
8.69203
8.69533
8.70014
8.70631
8.71368
8.72206
8.73127
8.74113
8.75149
8.7622
8.77315
8.78423
8.79534
8.8064
8.81736
8.82816
8.83876
8.84913
8.85924
8.86909
8.87867
8.88799
8.89705
8.90586
8.91441
8.92273
8.93081
8.93865
8.94625
8.95363
8.96076
8.96765
8.97429
8.98067
8.98677
8.9926
8.99812
9.00335
9.00826
9.01284
9.01708
9.02098
9.0245
9.02764
9.03038
9.0327
9.03457
9.036
9.03698
9.0375
9.03758
9.03724
9.03653
9.03548
9.03418
9.03269
9.0311
9.02951
9.02801
9.02668
9.02562
9.02487
9.02449
8.34983
8.35201
8.35627
8.36249
8.37045
8.37993
8.39068
8.40247
8.41506
8.42825
8.44188
8.45577
8.46982
8.48389
8.49789
8.51175
8.52539
8.53876
8.55183
8.56457
8.57697
8.58903
8.60076
8.61215
8.62323
8.63399
8.64445
8.65462
8.66448
8.67406
8.68334
8.69232
8.70101
8.70937
8.71741
8.72511
8.73245
8.73942
8.746
8.75219
8.75798
8.76333
8.76825
8.77271
8.77668
8.78015
8.78308
8.78546
8.78726
8.78848
8.78913
8.7892
8.78873
8.78778
8.78639
8.78465
8.78268
8.78058
8.77847
8.77648
8.77473
8.77332
8.77233
8.77183
8.02295
8.02564
8.03092
8.03859
8.0484
8.06004
8.0732
8.08757
8.10289
8.1189
8.1354
8.15219
8.16914
8.1861
8.20296
8.21963
8.23601
8.25206
8.26772
8.28298
8.29782
8.31225
8.32627
8.3399
8.35314
8.36601
8.37852
8.39067
8.40248
8.41393
8.42504
8.4358
8.4462
8.45623
8.46587
8.47509
8.48389
8.49225
8.50015
8.50757
8.51451
8.52094
8.52685
8.53221
8.53699
8.54117
8.5447
8.54756
8.54973
8.5512
8.55195
8.552
8.55138
8.55015
8.54839
8.54619
8.54368
8.54102
8.53834
8.53582
8.5336
8.53182
8.53057
8.52992
7.70894
7.71218
7.71853
7.72773
7.73946
7.75333
7.76895
7.78596
7.80401
7.82283
7.84216
7.86181
7.88161
7.90139
7.92103
7.94042
7.95947
7.9781
7.99626
8.01393
8.03111
8.04779
8.064
8.07975
8.09506
8.10994
8.12441
8.13846
8.15211
8.16537
8.17823
8.19069
8.20274
8.21437
8.22554
8.23624
8.24644
8.25613
8.26529
8.2739
8.28195
8.28942
8.29629
8.30253
8.30811
8.31298
8.3171
8.32044
8.32297
8.32466
8.32551
8.32552
8.32473
8.3232
8.32102
8.31831
8.31523
8.31194
8.30864
8.30553
8.30279
8.30059
8.29905
8.29826
7.40709
7.41092
7.41842
7.42925
7.443
7.45919
7.47735
7.49702
7.51783
7.53945
7.5616
7.58406
7.60665
7.6292
7.65156
7.6736
7.69522
7.71634
7.7369
7.75689
7.77629
7.79513
7.81342
7.8312
7.84848
7.86528
7.8816
7.89747
7.91289
7.92787
7.94241
7.9565
7.97014
7.9833
7.99595
8.00807
8.01963
8.0306
8.04097
8.05072
8.05985
8.06832
8.07613
8.08322
8.08957
8.09513
8.09984
8.10365
8.10653
8.10845
8.10938
8.10934
8.10836
8.1065
8.10386
8.10059
8.09686
8.09288
8.0889
8.08513
8.08182
8.07916
8.0773
8.07635
7.11675
7.12123
7.12995
7.14253
7.15842
7.17704
7.19782
7.22023
7.24382
7.26823
7.29317
7.31841
7.34374
7.36899
7.39401
7.41863
7.44276
7.46628
7.48915
7.51134
7.53287
7.55375
7.57403
7.59374
7.61289
7.63152
7.64962
7.66722
7.68433
7.70095
7.71709
7.73276
7.74792
7.76256
7.77664
7.79013
7.80299
7.8152
7.82673
7.83759
7.84774
7.85719
7.8659
7.87384
7.88095
7.88719
7.89247
7.89676
7.89999
7.90212
7.90314
7.90303
7.90184
7.89962
7.89648
7.8926
7.88816
7.88342
7.87866
7.87418
7.87023
7.86707
7.86486
7.86372
6.8373
6.84248
6.85255
6.86701
6.88518
6.90637
6.92986
6.95506
6.98145
7.00865
7.03636
7.06433
7.09236
7.12027
7.14788
7.17502
7.20157
7.22742
7.2525
7.27681
7.30035
7.32318
7.34534
7.36688
7.38782
7.40819
7.42799
7.44724
7.46596
7.48415
7.50183
7.519
7.53563
7.5517
7.56717
7.58198
7.5961
7.60949
7.62215
7.63405
7.64521
7.65559
7.66519
7.67394
7.68181
7.68872
7.69459
7.69934
7.70293
7.70528
7.70637
7.70619
7.70476
7.70216
7.69848
7.69392
7.6887
7.68313
7.67752
7.67223
7.66759
7.66386
7.66127
7.65994
6.56816
6.57411
6.58566
6.60216
6.62279
6.64667
6.67299
6.70104
6.73026
6.76024
6.79068
6.82134
6.85202
6.88253
6.91268
6.94229
6.97119
6.99928
7.02649
7.05281
7.07827
7.10294
7.12689
7.15017
7.17281
7.19484
7.21626
7.23708
7.25733
7.27702
7.29617
7.31478
7.33284
7.35029
7.3671
7.38319
7.39852
7.41305
7.42678
7.4397
7.45181
7.4631
7.47356
7.48312
7.49174
7.49932
7.50577
7.511
7.51493
7.51751
7.51868
7.51842
7.51675
7.51373
7.50947
7.50418
7.49811
7.49161
7.48506
7.47888
7.47347
7.46913
7.46612
7.46458
6.30878
6.31559
6.32876
6.34749
6.37076
6.39751
6.42677
6.45774
6.4898
6.52254
6.55567
6.58897
6.62225
6.65531
6.68795
6.71997
6.75117
6.78142
6.81067
6.8389
6.86617
6.89258
6.91821
6.94314
6.96741
6.99102
7.01399
7.03631
7.05802
7.07913
7.09969
7.11969
7.13911
7.15791
7.17601
7.19335
7.20985
7.22548
7.24024
7.25412
7.26715
7.27932
7.29061
7.30097
7.31033
7.31858
7.32562
7.33133
7.33563
7.33843
7.33968
7.33934
7.33741
7.33396
7.32909
7.323
7.316
7.30848
7.30089
7.29374
7.28747
7.28247
7.27901
7.27725
6.05863
6.0664
6.08138
6.10256
6.12869
6.15847
6.19079
6.22473
6.25965
6.29512
6.33089
6.36677
6.40259
6.43816
6.47325
6.50762
6.54106
6.57341
6.60459
6.63463
6.66361
6.69166
6.71889
6.74538
6.77119
6.79632
6.82076
6.84451
6.8676
6.89007
6.91197
6.9333
6.95406
6.97416
6.99353
7.01206
7.0297
7.04639
7.06212
7.07693
7.09083
7.10385
7.11595
7.1271
7.1372
7.14613
7.15375
7.15996
7.16463
7.16767
7.169
7.16858
7.1664
7.16249
7.15696
7.15003
7.14202
7.13338
7.12465
7.11641
7.10922
7.10351
7.09957
7.09756
5.81722
5.82608
5.84307
5.86695
5.89616
5.92918
5.96467
6.00165
6.03941
6.07756
6.1159
6.1543
6.19261
6.23064
6.26814
6.30483
6.34045
6.37482
6.40786
6.43961
6.47018
6.49975
6.52848
6.55646
6.58375
6.61033
6.63619
6.66129
6.68569
6.70944
6.73262
6.75524
6.77728
6.79866
6.81926
6.83897
6.85769
6.87539
6.89206
6.90774
6.92247
6.9363
6.94921
6.96113
6.97197
6.98158
6.98981
6.99652
7.00157
7.00486
7.00629
7.0058
7.00336
6.99898
6.99277
6.98493
6.97584
6.96598
6.95598
6.94656
6.93835
6.93187
6.92742
6.92517
5.58409
5.59416
5.6134
5.64025
5.67282
5.70926
5.74806
5.78811
5.82869
5.86946
5.9103
5.95115
5.99189
6.03233
6.07221
6.11119
6.14893
6.18525
6.22006
6.25341
6.28547
6.31646
6.34659
6.37599
6.40469
6.43267
6.45987
6.48627
6.5119
6.53686
6.56125
6.58511
6.6084
6.63103
6.65284
6.6737
6.69348
6.71214
6.72969
6.74619
6.76172
6.77633
6.79001
6.8027
6.81429
6.82459
6.83344
6.84066
6.8461
6.84965
6.85119
6.85064
6.84795
6.8431
6.83618
6.82739
6.81711
6.80593
6.79455
6.78381
6.77451
6.76721
6.76224
6.75974
5.35876
5.37021
5.39197
5.42212
5.45834
5.49841
5.54063
5.58379
5.62715
5.67046
5.71369
5.7569
5.80001
5.84283
5.88507
5.9263
5.96613
6.00434
6.04082
6.07566
6.10908
6.14139
6.17284
6.20357
6.23362
6.26295
6.29146
6.31908
6.34586
6.37196
6.39751
6.42256
6.44706
6.47092
6.49394
6.51591
6.53672
6.5563
6.57468
6.59194
6.60821
6.62357
6.63801
6.65147
6.6638
6.67482
6.68429
6.69203
6.69788
6.7017
6.70336
6.70277
6.69984
6.69453
6.68688
6.67708
6.66555
6.65292
6.64002
6.62785
6.61736
6.60921
6.60371
6.60096
5.14082
5.15383
5.17842
5.21222
5.2524
5.29631
5.34207
5.38835
5.43444
5.48017
5.52569
5.57118
5.61659
5.66175
5.70632
5.7498
5.79168
5.83171
5.86978
5.90599
5.94065
5.97416
6.00684
6.03884
6.0702
6.10084
6.13061
6.15938
6.18724
6.2144
6.24104
6.26723
6.29293
6.318
6.3422
6.36527
6.38707
6.40753
6.42668
6.44465
6.46162
6.47769
6.49287
6.50709
6.52019
6.53192
6.54204
6.55032
6.55659
6.56069
6.5625
6.56188
6.55874
6.55297
6.54458
6.53373
6.52086
6.50667
6.49211
6.47835
6.46658
6.45754
6.45152
6.44853
4.92983
4.94463
4.97238
5.01024
5.05472
5.10269
5.15208
5.20151
5.25022
5.29824
5.34591
5.39359
5.44125
5.48869
5.53561
5.58133
5.62522
5.66701
5.70659
5.74405
5.77982
5.8144
5.84823
5.88145
5.91406
5.94599
5.97699
6.00685
6.0357
6.06383
6.0915
6.1188
6.14565
6.17194
6.19733
6.22148
6.24424
6.26553
6.28539
6.30401
6.32161
6.33836
6.35428
6.36925
6.38313
6.3956
6.40637
6.4152
6.42191
6.42631
6.42827
6.42766
6.42432
6.41812
6.40899
6.39705
6.38276
6.3669
6.3505
6.335
6.32186
6.31192
6.30539
6.30217
4.7254
4.74223
4.77352
4.81589
4.86506
4.91728
4.9704
5.02296
5.07419
5.12433
5.174
5.22377
5.27361
5.32331
5.37258
5.42057
5.46643
5.50991
5.55091
5.5895
5.62623
5.66177
5.69667
5.73104
5.76487
5.79809
5.83029
5.86117
5.89091
5.91992
5.94858
5.97693
6.00492
6.03244
6.05902
6.08423
6.10791
6.13
6.15051
6.1697
6.18788
6.20529
6.22191
6.23764
6.25231
6.26556
6.27699
6.28638
6.29353
6.29824
6.30038
6.29979
6.2963
6.2897
6.27983
6.26677
6.25099
6.23334
6.21492
6.19749
6.1829
6.17206
6.16505
6.16164
4.52712
4.54629
4.58153
4.62892
4.68319
4.73983
4.79675
4.85244
4.90603
4.9581
5.00959
5.06136
5.11333
5.16522
5.21689
5.26718
5.31497
5.3601
5.40245
5.44202
5.47956
5.51592
5.55182
5.58731
5.62231
5.65682
5.69023
5.72205
5.75258
5.78237
5.81195
5.84133
5.87043
5.89918
5.92699
5.95323
5.97781
6.00066
6.02174
6.04143
6.06012
6.07816
6.09549
6.11196
6.12745
6.1415
6.1536
6.16357
6.17118
6.17621
6.17854
6.17801
6.1744
6.16744
6.15686
6.14264
6.12529
6.10574
6.08512
6.06552
6.04939
6.03768
6.03025
6.02669
4.33461
4.35649
4.3961
4.44909
4.50891
4.5701
4.63089
4.6897
4.74546
4.79924
4.85233
4.90603
4.96006
5.01409
5.06822
5.12089
5.17054
5.21726
5.26089
5.3013
5.33949
5.37652
5.41337
5.44993
5.48606
5.5219
5.55654
5.58921
5.62041
5.65086
5.68133
5.71171
5.74187
5.7719
5.80096
5.82821
5.85367
5.87724
5.89882
5.91892
5.93806
5.9567
5.97472
5.99193
6.00828
6.02316
6.03594
6.04648
6.05456
6.05992
6.06245
6.06201
6.05834
6.05107
6.03982
6.02441
6.00543
5.98389
5.96084
5.93881
5.92106
5.90853
5.90077
5.89711
4.1475
4.17254
4.21693
4.27618
4.34207
4.40785
4.47255
4.5345
4.59219
4.64741
4.70186
4.75745
4.8135
4.86955
4.92625
4.98141
5.03283
5.0811
5.12597
5.16703
5.20569
5.24324
5.28101
5.31862
5.35581
5.39304
5.42896
5.46238
5.49412
5.52511
5.55643
5.58778
5.61895
5.65032
5.68071
5.7089
5.73522
5.7595
5.78148
5.8019
5.8214
5.84064
5.85935
5.87726
5.89452
5.91029
5.92373
5.93486
5.94343
5.9491
5.95186
5.95154
5.94786
5.94035
5.92847
5.91185
5.89116
5.86759
5.84185
5.81705
5.79762
5.78437
5.7764
5.77269
3.96541
3.99419
4.04372
4.10999
4.18254
4.25283
4.32149
4.38662
4.44593
4.50232
4.55782
4.6153
4.67335
4.73125
4.79069
4.8485
4.90153
4.95132
4.99744
5.03894
5.0779
5.11577
5.15446
5.19311
5.23126
5.26998
5.30728
5.34132
5.37345
5.40482
5.43699
5.4693
5.50138
5.53419
5.56598
5.59505
5.62221
5.6472
5.66947
5.69012
5.70988
5.72973
5.74912
5.76769
5.78592
5.80265
5.81672
5.82844
5.83752
5.84351
5.8465
5.84632
5.84269
5.83502
5.8226
5.80473
5.78226
5.75664
5.72795
5.69995
5.67879
5.66498
5.65692
5.65324
3.78795
3.82124
3.87614
3.95035
4.03025
4.10478
4.17744
4.24588
4.30641
4.36368
4.41986
4.47931
4.53935
4.59882
4.66125
4.72196
4.77636
4.82764
4.87506
4.91675
4.95581
4.99377
5.03345
5.07315
5.11208
5.15247
5.1913
5.22576
5.25815
5.28969
5.32276
5.35602
5.38887
5.42324
5.4566
5.4864
5.51439
5.54012
5.56255
5.58332
5.60322
5.62372
5.64381
5.66296
5.68225
5.70002
5.71467
5.72698
5.7366
5.74288
5.74611
5.74611
5.7426
5.73484
5.72198
5.70283
5.67849
5.6509
5.61896
5.58717
5.56432
5.55014
5.54217
5.53859
3.61473
3.65357
3.71386
3.79708
3.88518
3.96339
4.04014
4.11213
4.17334
4.23122
4.28759
4.3492
4.41127
4.47187
4.53764
4.60162
4.65699
4.70978
4.75864
4.80017
4.83918
4.87693
4.91773
4.95851
4.99797
5.04026
5.08086
5.11549
5.14798
5.17943
5.21351
5.24774
5.28112
5.31726
5.35237
5.38269
5.41152
5.43808
5.46047
5.48129
5.50117
5.52239
5.5432
5.5628
5.58327
5.60221
5.61733
5.63025
5.64046
5.64697
5.65046
5.65065
5.64733
5.63959
5.62644
5.60594
5.57961
5.55025
5.51472
5.47838
5.45394
5.43968
5.43197
5.42858
3.44533
3.49115
3.55645
3.65004
3.74742
3.82834
3.90931
3.98527
4.04641
4.10469
4.1606
4.22473
4.28894
4.34997
4.41962
4.48737
4.54309
4.59746
4.64801
4.68894
4.72778
4.76491
4.80707
4.84901
4.88857
4.93312
4.97582
5.01024
5.04273
5.07374
5.10903
5.14428
5.17781
5.21602
5.25316
5.28367
5.31338
5.3409
5.36302
5.38382
5.40346
5.42553
5.44711
5.46692
5.48877
5.50905
5.52446
5.53801
5.54887
5.55555
5.55931
5.55971
5.55666
5.54903
5.53578
5.51385
5.48534
5.4546
5.41512
5.3732
5.34741
5.33341
5.32617
5.32306
3.27929
3.33412
3.40343
3.5091
3.61713
3.69918
3.78464
3.86527
3.92528
3.98391
4.03843
4.1057
4.17223
4.23264
4.30693
4.37918
4.43429
4.49038
4.54308
4.58276
4.62139
4.65734
4.70128
4.74452
4.78351
4.83083
4.87611
4.90976
4.94222
4.9723
5.00911
5.0455
5.07861
5.1193
5.15887
5.18905
5.21971
5.24845
5.26994
5.29071
5.3098
5.33296
5.35539
5.37507
5.39855
5.4204
5.43581
5.45004
5.46167
5.46838
5.47245
5.47305
5.47035
5.46293
5.44986
5.42637
5.39539
5.36391
5.3201
5.2712
5.2445
5.2312
5.22464
5.22188
3.11608
3.18279
3.25415
3.37414
3.49464
3.5754
3.66581
3.75219
3.80957
3.86874
3.92057
3.99194
4.06112
4.11933
4.19932
4.27711
4.33017
4.38826
4.44379
4.48131
4.51988
4.55383
4.60016
4.64493
4.68238
4.73318
4.7817
4.81377
4.84629
4.87475
4.9136
4.9513
4.98314
5.0269
5.06947
5.09852
5.13031
5.16064
5.181
5.20181
5.2199
5.24449
5.26789
5.28692
5.3124
5.33615
5.35114
5.36613
5.37867
5.38525
5.38967
5.39045
5.38821
5.38105
5.36854
5.34333
5.30941
5.27819
5.22964
5.17186
5.145
5.13292
5.12724
5.12491
2.95508
3.03773
3.10782
3.24503
3.38045
3.45632
3.55248
3.64619
3.69878
3.75915
3.80642
3.88332
3.95569
4.00935
4.09659
4.18133
4.23024
4.2908
4.35017
4.38422
4.42315
4.45393
4.50359
4.55025
4.58468
4.63996
4.69264
4.72195
4.75486
4.7807
4.82235
4.86165
4.89096
4.93863
4.98499
5.01175
5.04492
5.07739
5.09591
5.117
5.13346
5.15998
5.18455
5.20215
5.23015
5.25623
5.27018
5.28607
5.29975
5.3059
5.31078
5.31169
5.31002
5.30315
5.29171
5.26456
5.227
5.1975
5.14382
5.07458
5.04877
5.03846
5.03386
5.032
2.79553
2.89986
2.96334
3.1217
3.27528
3.34108
3.44427
3.54762
3.5923
3.65525
3.69527
3.77975
3.85613
3.90192
3.99852
4.09217
4.13388
4.19769
4.26235
4.29105
4.33119
4.35712
4.41144
4.46053
4.48985
4.551
4.60906
4.6339
4.6679
4.68969
4.73526
4.7766
4.80157
4.85431
4.90552
4.92835
4.96331
4.99874
5.01437
5.03621
5.05012
5.0793
5.10532
5.12039
5.15163
5.18062
5.19262
5.20966
5.22479
5.23012
5.2356
5.23654
5.23561
5.22897
5.21931
5.18994
5.14766
5.12197
5.06281
4.97863
4.9557
4.94775
4.94437
4.94303
2.63651
2.77054
2.81932
3.00405
3.18014
3.22856
3.34078
3.45697
3.48936
3.5573
3.58622
3.68121
3.76281
3.79604
3.90493
4.01011
4.04037
4.10859
4.1806
4.20125
4.24414
4.26279
4.32364
4.37595
4.3972
4.46613
4.53118
4.54913
4.58551
4.60119
4.65223
4.69628
4.71438
4.77376
4.83128
4.84784
4.88524
4.92475
4.93601
4.95945
4.96949
5.00234
5.03024
5.04121
5.07668
5.10938
5.11815
5.13672
5.15372
5.15764
5.164
5.1648
5.1648
5.15822
5.1513
5.11939
5.07075
5.05182
4.98689
4.88309
4.86577
4.86073
4.85868
4.85787
2.47686
2.65171
2.67391
2.89204
3.09637
3.11736
3.2416
3.37504
3.38891
3.46584
3.47821
3.58774
3.67632
3.69051
3.81563
3.93588
3.94881
4.02317
4.10533
4.11411
4.16227
4.17021
4.24017
4.29684
4.3059
4.38518
4.45937
4.46703
4.50788
4.51456
4.57323
4.62094
4.62867
4.69685
4.7626
4.76968
4.81047
4.85559
4.86039
4.8868
4.89109
4.92902
4.9594
4.9641
5.00516
5.0426
5.04638
5.06705
5.08649
5.0882
5.09584
5.09625
5.09747
5.09058
5.08767
5.05287
4.99553
4.98733
4.9165
4.78683
4.77909
4.77735
4.77666
4.77639
)
;

boundaryField
{
    left
    {
        type            zeroGradient;
    }
    right
    {
        type            zeroGradient;
    }
    interface
    {
        type            fixedValue;
        value           nonuniform List<scalar> 
64
(
2.3942
2.59765
2.59765
2.83765
3.06027
3.06027
3.19287
3.33814
3.33814
3.42284
3.42284
3.54261
3.636
3.636
3.77211
3.90243
3.90243
3.98121
4.07048
4.07048
4.12331
4.12331
4.19972
4.25942
4.25942
4.34575
4.42603
4.42603
4.47084
4.47084
4.53491
4.58517
4.58517
4.65932
4.73058
4.73058
4.7738
4.82285
4.82285
4.85188
4.85188
4.89339
4.92545
4.92545
4.9703
5.01085
5.01085
5.03303
5.0541
5.0541
5.06272
5.06272
5.06478
5.05742
5.05742
5.02095
4.95748
4.95748
4.88365
4.73657
4.73657
4.73657
4.73657
4.73657
)
;
    }
    bottom
    {
        type            fixedValue;
        value           uniform 10;
    }
    defaultFaces
    {
        type            empty;
    }
}


// ************************************************************************* //
