/*--------------------------------*- C++ -*----------------------------------*\
| =========                 |                                                 |
| \\      /  F ield         | OpenFOAM: The Open Source CFD Toolbox           |
|  \\    /   O peration     | Version:  5.x                                   |
|   \\  /    A nd           | Web:      www.OpenFOAM.org                      |
|    \\/     M anipulation  |                                                 |
\*---------------------------------------------------------------------------*/
FoamFile
{
    version     2.0;
    format      ascii;
    class       volScalarField;
    location    "1.2";
    object      gradTy;
}
// * * * * * * * * * * * * * * * * * * * * * * * * * * * * * * * * * * * * * //

dimensions      [0 -1 0 1 0 0 0];

internalField   nonuniform List<scalar> 
6300
(
1276.02
1829.12
2385.35
2946.73
3515.12
4092.19
4679.32
5277.55
5887.42
6508.94
7141.44
7783.55
8433.11
9087.24
9742.42
-1.58924
-4.72943
-7.75206
-10.5698
-13.0828
-15.1757
-16.7175
-17.5653
-17.5725
-16.6039
-14.5568
-11.3852
-7.12427
-1.90624
4.03956
-2.69124
-8.01306
-13.1479
-17.955
-22.2712
-25.9046
-28.6329
-30.2079
-30.3691
-28.8682
-25.5063
-20.1808
-12.9325
-3.98199
6.26512
-3.85381
-11.4832
-18.8706
-25.8303
-32.1414
-37.5373
-41.6999
-44.2626
-44.8257
-42.9909
-38.4171
-30.8961
-20.4396
-7.35086
7.75057
-5.09445
-15.195
-25.0203
-34.3529
-42.9251
-50.4012
-56.3646
-60.3141
-61.6771
-59.8494
-54.2712
-44.5431
-30.5746
-12.7275
8.10961
-6.42317
-19.1813
-31.6615
-43.6343
-54.8028
-64.7754
-73.0403
-78.9486
-81.7152
-80.4542
-74.2704
-62.4255
-44.5833
-21.089
6.83122
-7.83982
-23.4446
-38.8087
-53.718
-67.874
-80.8541
-92.0688
-100.72
-105.776
-105.976
-99.9246
-86.2988
-64.2374
-33.8694
3.18796
-9.33111
-27.9475
-46.4092
-64.5528
-82.1181
-98.6945
-113.656
-126.084
-134.686
-137.745
-133.146
-118.601
-92.1907
-53.332
-3.95823
-10.8678
-32.6042
-54.3258
-75.9633
-97.3475
-118.146
-137.772
-155.266
-169.132
-177.162
-176.306
-162.759
-132.584
-83.3013
-16.5651
-12.4035
-37.2744
-62.3243
-87.6241
-113.159
-138.763
-164.015
-188.07
-209.407
-225.458
-232.149
-223.536
-192.075
-130.714
-38.4202
-13.8745
-41.7643
-70.0704
-99.0464
-128.897
-159.728
-191.447
-223.584
-254.961
-283.103
-303.284
-307.151
-281.453
-209.047
-78.0024
-15.2043
-45.8365
-77.1441
-109.59
-143.651
-179.799
-218.454
-259.851
-303.738
-348.699
-390.72
-420.317
-417.524
-346.003
-158.054
-16.3099
-49.2318
-83.0765
-118.516
-156.312
-197.357
-242.711
-293.619
-351.431
-417.224
-490.567
-565.857
-622.306
-599.368
-353.179
-17.1131
-51.7028
-87.4112
-125.082
-165.72
-210.599
-261.406
-320.474
-391.13
-478.186
-588.45
-730.219
-906.451
-1075.96
-958.87
-17.5521
-53.0534
-89.7812
-128.675
-170.883
-217.906
-271.831
-335.732
-414.417
-515.926
-654.811
-860.094
-1197.29
-1839.13
-3332.9
10340.3
10879
11410.3
11931.8
12441.1
12936.2
13414.9
13875.8
14317.4
14738.4
15137.9
15515.2
15869.4
16200.2
16506.9
16789.4
17047.2
17280.1
17487.9
17670.5
17827.7
17959.6
18066
18147.1
18203
18233.9
18240
18221.5
18179
18112.7
18023.3
17911.2
17777.1
17621.8
17445.9
17250.3
17036
16803.8
16555
16290.5
16011.5
15719.4
15415.4
15100.8
14777.1
14445.5
14107.4
13764
13416.6
13066.3
12714.1
12361.1
12008
11655.8
11304.9
10956.2
10610.1
10267
9927.56
9591.97
9260.59
8933.68
8611.44
8294.03
7981.56
7674.1
7371.7
7074.36
6782.09
6494.9
6212.8
5935.82
5664
5397.44
5136.23
4880.52
4630.48
4386.29
4148.17
3916.32
3690.98
3472.38
3260.73
3056.23
2859.08
2669.42
2487.36
2312.94
2146.17
1986.97
9.87747
15.2622
20.5335
25.5245
30.1065
34.1959
37.7546
40.784
43.3165
45.4044
47.1106
48.4989
49.6284
50.5492
51.3002
51.9094
52.3946
52.7657
53.0266
53.1771
53.2147
53.1354
52.935
52.6091
52.1536
51.5645
50.8385
49.9728
48.9657
47.8161
46.5237
45.0884
43.5103
41.7886
39.922
37.9086
35.7466
33.4359
30.9797
28.3864
25.6712
22.8574
19.9765
17.0666
14.1709
11.3342
8.5997
6.00548
3.58196
1.34994
-0.679931
-2.50652
-4.13648
-5.58187
-6.85734
-7.97765
-8.95572
-9.80156
-10.5221
-11.122
-11.6049
-11.9748
-12.238
-12.4039
-12.4856
-12.5004
-12.4683
-12.4117
-12.353
-12.3134
-12.3112
-12.3604
-12.4704
-12.6452
-12.8842
-13.1827
-13.5328
-13.9243
-14.3451
-14.7823
-15.2215
-15.6475
-16.0431
-16.3899
-16.668
-16.8567
-16.9359
-16.8884
-16.7015
-16.3689
16.3397
25.6192
34.671
43.1949
50.9654
57.8429
63.7724
68.7707
72.9083
76.2889
79.0306
81.2505
83.0534
84.5257
85.7328
86.7193
87.5121
88.1245
88.5595
88.8144
88.883
88.7577
88.4306
87.8942
87.141
86.1643
84.9584
83.5183
81.8411
79.9254
77.7711
75.379
72.7495
69.882
66.7738
63.4206
59.8173
55.961
51.8538
47.507
42.9444
38.2049
33.3424
28.4241
23.5267
18.7303
14.1122
9.74032
5.6682
1.93142
-1.4533
-4.48679
-7.18404
-9.56946
-11.6715
-13.5179
-15.1318
-16.5301
-17.7233
-18.7171
-19.515
-20.1215
-20.545
-20.8002
-20.9092
-20.9015
-20.8128
-20.6826
-20.5511
-20.4562
-20.4301
-20.4975
-20.6743
-20.9666
-21.3726
-21.8829
-22.4829
-23.1545
-23.8771
-24.6286
-25.3856
-26.1227
-26.812
-27.4221
-27.9187
-28.2651
-28.425
-28.3661
-28.0646
-27.5085
22.6311
36.3067
49.5711
61.9532
73.1131
82.8582
91.1344
98.0006
103.594
108.098
111.707
114.607
116.96
118.89
120.488
121.813
122.895
123.744
124.357
124.725
124.836
124.676
124.233
123.496
122.454
121.098
119.418
117.408
115.062
112.379
109.361
106.011
102.33
98.32
93.976
89.2896
84.2492
78.8439
73.0694
66.9348
60.4693
53.7265
46.7859
39.7493
32.7352
25.8685
19.2695
13.0438
7.2727
2.00794
-2.72959
-6.94756
-10.6762
-13.96
-16.8481
-19.3865
-21.6114
-23.5465
-25.2037
-26.5859
-27.692
-28.5225
-29.0849
-29.3973
-29.491
-29.4096
-29.2077
-28.9461
-28.6876
-28.4908
-28.4055
-28.4688
-28.7032
-29.1164
-29.7027
-30.4459
-31.3223
-32.3038
-33.3601
-34.46
-35.5715
-36.6604
-37.6886
-38.6121
-39.3803
-39.937
-40.2242
-40.1887
-39.79
-39.0073
28.716
47.5928
65.7488
82.4787
97.3055
109.996
120.535
129.071
135.86
141.205
145.414
148.765
151.485
153.743
155.65
157.271
158.626
159.716
160.521
161.021
161.191
161.014
160.471
159.549
158.233
156.51
154.366
151.791
148.777
145.325
141.437
137.123
132.391
127.242
121.673
115.669
109.207
102.258
94.8026
86.8378
78.3919
69.5318
60.3662
51.0415
41.7313
32.6213
23.8907
15.6949
8.15115
1.32958
-4.74847
-10.1062
-14.801
-18.9109
-22.5182
-25.6954
-28.496
-30.9502
-33.0664
-34.8378
-36.2506
-37.2938
-37.9683
-38.293
-38.308
-38.0747
-37.6717
-37.1888
-36.719
-36.3492
-36.1517
-36.179
-36.4604
-37.0027
-37.7931
-38.8037
-39.9974
-41.3327
-42.7679
-44.2628
-45.7785
-47.2745
-48.7054
-50.0156
-51.1368
-51.9878
-52.4795
-52.5264
-52.061
-51.0478
34.599
59.9219
83.9853
105.75
124.579
140.238
152.824
162.663
170.208
175.952
180.363
183.837
186.681
189.106
191.233
193.115
194.748
196.102
197.132
197.795
198.054
197.882
197.26
196.171
194.6
192.527
189.933
186.801
183.119
178.888
174.117
168.826
163.033
156.751
149.976
142.686
134.837
126.373
117.238
107.402
96.8778
85.7432
74.1417
62.2789
50.406
38.7952
27.7103
17.3773
7.96148
-0.44557
-7.82851
-14.2406
-19.787
-24.602
-28.821
-32.5577
-35.8882
-38.8467
-41.4299
-43.6082
-45.3414
-46.5942
-47.3517
-47.629
-47.4759
-46.9761
-46.2417
-45.4031
-44.5967
-43.9491
-43.5639
-43.5127
-43.8313
-44.5213
-45.5559
-46.8875
-48.4579
-50.207
-52.0789
-54.0252
-56.0033
-57.9723
-59.8857
-61.6815
-63.2732
-64.5467
-65.3664
-65.5934
-65.1128
-63.8628
40.3747
74.0715
105.539
133.254
156.423
174.913
189.077
199.564
207.154
212.626
216.666
219.823
222.488
224.903
227.177
229.322
231.278
232.96
234.277
235.155
235.54
235.401
234.721
233.489
231.687
229.291
226.27
222.592
218.239
213.211
207.527
201.227
194.352
186.935
178.982
170.464
161.308
151.404
140.632
128.899
116.184
102.566
88.2316
73.4685
58.641
44.1503
30.3868
17.6801
6.26265
-3.74953
-12.3578
-19.6692
-25.8708
-31.1915
-35.855
-40.0375
-43.8447
-47.3084
-50.3972
-53.0371
-55.1378
-56.6187
-57.4345
-57.5898
-57.1455
-56.2157
-54.9597
-53.5678
-52.241
-51.1654
-50.4887
-50.3067
-50.6595
-51.5357
-52.8823
-54.6184
-56.652
-58.8948
-61.2732
-63.7318
-66.2308
-68.74
-71.2252
-73.6308
-75.8577
-77.7493
-79.0973
-79.6698
-79.2635
-77.767
46.3143
91.4372
132.504
167.309
195.01
215.822
230.629
240.643
247.157
251.366
254.247
256.523
258.661
260.906
263.314
265.803
268.209
270.348
272.059
273.226
273.782
273.7
272.978
271.622
269.624
266.947
263.539
259.341
254.313
248.451
241.795
234.42
226.411
217.845
208.753
199.107
188.795
177.62
165.339
151.737
136.716
120.343
102.86
84.6709
66.3112
48.3794
31.4646
16.0517
2.46794
-9.14445
-18.8206
-26.7586
-33.2812
-38.7812
-43.631
-48.1019
-52.3354
-56.3439
-60.04
-63.2675
-65.8472
-67.6178
-68.4814
-68.424
-67.5212
-65.9292
-63.8754
-61.6386
-59.5216
-57.8037
-56.6962
-56.3247
-56.7269
-57.865
-59.6391
-61.9123
-64.5352
-67.3776
-70.3419
-73.3695
-76.4333
-79.5313
-82.6682
-85.8264
-88.9141
-91.7237
-93.9343
-95.1449
-94.9741
-93.2116
53.0964
114.651
168.495
211.603
243.526
265.389
279.096
286.772
290.491
292.03
292.712
293.433
294.693
296.689
299.348
302.419
305.538
308.367
310.637
312.191
312.956
312.932
312.16
310.692
308.543
305.663
301.948
297.283
291.58
284.825
277.084
268.503
259.25
249.481
239.287
228.673
217.482
205.387
191.903
176.568
159.147
139.666
118.452
96.068
73.3148
51.0956
30.3344
11.7467
-4.20443
-17.3631
-27.8185
-35.9149
-42.1898
-47.3291
-51.9705
-56.5221
-61.16
-65.835
-70.3587
-74.4278
-77.7156
-79.9139
-80.8438
-80.4626
-78.875
-76.2929
-73.039
-69.5203
-66.2103
-63.5456
-61.8255
-61.2099
-61.7157
-63.259
-65.6576
-68.6829
-72.0832
-75.6657
-79.3009
-82.937
-86.5687
-90.2493
-94.0637
-98.1072
-102.355
-106.545
-110.196
-112.595
-112.963
-110.885
62.4432
148.977
219.957
272.013
306.537
326.714
336.261
338.615
336.982
333.946
331.142
329.589
329.688
331.539
334.809
338.988
343.308
347.213
350.27
352.319
353.29
353.267
352.369
350.764
348.539
345.6
341.743
336.732
330.373
322.623
313.58
303.552
292.821
281.713
270.41
259.051
247.447
235.131
221.105
204.376
184.519
161.458
135.703
107.974
79.5288
51.6946
26.0603
3.63565
-14.9032
-29.475
-40.21
-47.6869
-52.7228
-56.5795
-60.4216
-64.797
-69.9069
-75.5163
-81.3012
-86.6793
-91.1162
-93.9981
-95.0546
-94.1981
-91.6209
-87.5843
-82.5455
-77.0639
-71.9336
-67.8918
-65.3299
-64.4467
-65.1776
-67.3889
-70.7416
-74.8821
-79.3378
-83.8483
-88.2296
-92.4831
-96.607
-100.749
-105.105
-110.071
-115.855
-122.123
-128.241
-132.949
-134.457
-131.913
79.2318
205.714
298.679
357.682
390.22
403.355
403.793
396.209
385.506
375.538
367.784
363.378
362.174
364.36
368.977
375.37
381.692
387.295
391.37
394.012
395.067
394.877
393.607
391.736
389.572
386.86
383.201
378.116
371.16
362.263
351.469
339.58
326.891
314.179
301.557
289.716
278.365
267.257
254.116
236.602
214.409
187.036
155.701
120.813
84.766
49.0303
17.0717
-10.1604
-31.3995
-47.1916
-57.3672
-63.0419
-65.0158
-65.9066
-68.1537
-72.0566
-77.9704
-84.9743
-92.853
-100.303
-106.768
-110.716
-112.021
-110.408
-106.461
-100.309
-92.6777
-84.0879
-76.075
-70.0916
-66.4008
-65.3427
-66.4904
-69.8576
-74.6734
-80.6091
-86.4947
-92.1976
-97.3229
-102.197
-106.599
-110.923
-115.249
-120.839
-128.64
-137.901
-148.297
-157.893
-161.771
-158.253
119.733
310.727
426.317
481.471
501.854
498.289
482.889
458.306
432.987
413.953
399.622
392.573
389.794
393.697
400.604
411.871
421.126
429.592
434.552
438.005
438.651
438.058
435.724
433.145
431.408
429.49
426.718
422.192
414.73
404.619
390.905
376.722
360.948
346.455
331.511
319.6
308.848
302.222
293.33
275.465
251.652
218.21
180.704
135.207
89.4443
40.8193
1.17425
-32.6832
-55.8291
-73.0795
-81.0817
-83.7962
-78.9317
-73.3387
-73.5528
-76.4646
-84.501
-93.2008
-105.043
-115.358
-126.047
-131.24
-133.182
-129.968
-124.464
-115.148
-104.173
-90.2636
-77.2761
-68.972
-63.6621
-63.0434
-64.587
-70.2197
-76.9708
-86.3857
-93.8916
-101.356
-106.755
-112.565
-116.682
-121.071
-123.552
-128.4
-139.304
-152.022
-169.488
-191.05
-199.714
-193.47
248.866
524.332
640.988
655.34
647.985
610.274
575.225
521.478
471.435
445.617
420.995
415.643
407.819
418.731
425.982
451.293
461.725
476.965
479.931
486.068
484.047
483.775
478.223
473.372
473.536
473.376
472.784
470.516
462.122
452.16
431.005
416.128
393.127
379.331
357.046
347.754
333.322
340.38
345.391
322.812
302.677
255.15
217.124
149.895
98.1585
19.5969
-23.1295
-70.6941
-88.8022
-112.33
-112.447
-115.495
-93.9226
-72.431
-75.0839
-73.5023
-90.0788
-96.896
-119.416
-129.851
-153.209
-156.409
-161.728
-152.781
-147.915
-132.33
-119.855
-95.072
-71.6969
-63.5056
-54.1337
-57.5964
-56.7611
-68.9366
-75.397
-94.8759
-101.313
-113.451
-115.561
-125.341
-126.34
-133.936
-128.419
-127.213
-147.331
-159.282
-184.753
-242.755
-259.101
-244.232
769.471
966.632
1002.99
860.473
837.836
718.436
694.499
579.329
475.017
475.579
414.643
442.293
398.889
449.064
425.376
512.166
495.423
542.034
520.767
545.901
526.951
537.122
519.741
506.411
516.164
517.912
521.288
527.678
511.775
515.814
462.04
467.192
411.997
424.368
363.79
383.22
326.752
381.382
437.074
366.523
393.026
278.275
295.461
142.137
145.367
-53.3536
-40.5837
-151.227
-114.066
-185.374
-139.668
-182.713
-108.86
-36.8142
-82.7626
-44.4357
-109.74
-78.0002
-151.199
-125.734
-209.382
-178.506
-210.79
-169.685
-186.769
-145
-153.228
-97.8228
-44.2259
-59.7126
-26.0976
-58.311
-30.1724
-75.8539
-55.0467
-122.114
-100.492
-139.956
-113.291
-150.729
-126.469
-165.656
-127.05
-95.2974
-167.091
-147.048
-153.149
-354.415
-363.412
-323.035
3268.73
1640.49
1622.57
892.989
1167.03
689.144
945.156
621.563
327.6
594.121
280.753
571.29
255.236
585.787
265.716
722.149
437.924
704.871
494.816
669.238
527.955
630.167
555.467
506.257
570.361
560.152
565.486
616.982
532.722
662.732
408.185
605.124
333.501
574.384
255.224
527.888
160.085
420.742
710.444
270.351
686.65
111.26
619.181
-91.2132
483.23
-430.986
119.546
-444.699
16.7637
-426.986
-39.1594
-418.312
-121.251
168.647
-211.843
133.811
-269.162
91.9845
-325.051
35.5126
-430.43
-109.617
-365.478
-102.753
-310.317
-85.6302
-278.184
-97.9316
82.7538
-126.594
96.758
-145.899
102.746
-178.478
91.8752
-277.022
-11.6699
-261.643
-18.6787
-264.921
-35.2027
-309.365
-115.781
85.7499
-319.069
-97.1443
159.519
-742.907
-538.784
-456.413
1820.03
1648.29
1486.43
1333.84
1189.82
1053.64
924.48
801.551
684.046
571.174
462.166
356.28
252.791
151
50.2214
-15.8441
-15.0776
-14.1453
-13.0834
-11.931
-10.7254
-9.49838
-8.27482
-7.0721
-5.90057
-4.76451
-3.66334
-2.59274
-1.54573
-0.513558
-26.619
-25.3109
-23.7171
-21.9043
-19.9427
-17.8982
-15.8257
-13.7673
-11.7514
-9.79418
-7.90152
-6.07115
-4.29472
-2.55958
-0.850267
-37.7276
-35.8259
-33.5046
-30.8706
-28.0347
-25.0964
-22.1369
-19.2156
-16.3706
-13.6221
-10.9753
-8.42432
-5.95492
-3.54731
-1.1781
-49.3357
-46.7553
-43.5996
-40.0347
-36.225
-32.3126
-28.4072
-24.5849
-20.8912
-17.3466
-13.952
-10.6949
-7.55263
-4.49623
-1.49278
-61.6495
-58.2534
-54.0978
-49.4381
-44.5132
-39.5173
-34.5907
-29.8226
-25.2603
-20.9187
-16.7897
-12.8494
-9.06356
-5.39167
-1.78942
-74.9366
-70.5036
-65.0933
-59.1005
-52.8668
-46.6478
-40.6111
-34.8508
-29.4056
-24.2758
-19.4367
-14.8478
-10.4595
-6.21684
-2.06244
-89.5599
-83.7225
-76.6637
-68.9967
-61.1995
-53.5904
-46.3503
-39.5596
-33.2318
-27.3393
-21.8312
-16.644
-11.7085
-6.95304
-2.30568
-106.025
-98.152
-88.8326
-79.0148
-69.337
-60.1576
-51.6346
-43.8007
-36.6186
-30.0152
-23.9022
-18.1865
-12.7759
-7.58038
-2.51267
-125.045
-114.015
-101.488
-88.8827
-76.9675
-66.0613
-56.2236
-47.3851
-39.4225
-32.1973
-25.573
-19.4219
-13.6268
-8.07903
-2.67697
-147.588
-131.36
-114.211
-98.0495
-83.5799
-70.8888
-59.8068
-50.0879
-41.4845
-33.7747
-26.7675
-20.2992
-14.2287
-8.43105
-2.79287
-174.708
-149.613
-125.933
-105.514
-88.4043
-74.0988
-62.0203
-51.6694
-42.648
-34.6458
-27.42
-20.7765
-14.556
-8.62268
-2.85601
-206.434
-166.433
-134.379
-109.656
-90.415
-75.0735
-62.4992
-51.9156
-42.7874
-34.7367
-27.487
-20.8284
-14.5945
-8.64666
-2.86419
-236.906
-175.289
-135.48
-108.303
-88.5163
-73.2726
-60.9804
-50.7004
-41.8447
-34.0225
-26.9598
-20.4535
-14.3451
-8.50435
-2.81796
-235.011
-162.318
-123.935
-99.5491
-82.0646
-68.512
-57.4425
-48.0556
-39.8636
-32.5451
-25.8731
-19.6783
-13.8266
-8.20669
-2.72092
-17.6209
-53.2618
-90.1353
-129.187
-171.576
-218.82
-273.036
-337.361
-416.735
-519.511
-661.052
-872.656
-1226.22
-1909.42
-3471.76
-17.3776
-52.5068
-88.7883
-127.097
-168.486
-214.305
-266.379
-327.29
-400.85
-492.872
-612.337
-772.339
-985.754
-1224.87
-1173.22
-16.8743
-50.9506
-86.032
-122.864
-162.315
-205.443
-253.58
-308.43
-372.136
-447.168
-535.458
-634.917
-727.428
-742.202
-468.259
-16.1431
-48.6955
-82.0582
-116.81
-153.588
-193.098
-236.115
-283.413
-335.549
-392.248
-450.816
-502.308
-523.074
-460.028
-223.413
-15.2268
-45.8768
-77.1179
-109.348
-142.959
-178.314
-215.672
-255.031
-295.788
-336.021
-371.078
-391.03
-376.912
-298.379
-124.545
-14.1738
-42.6467
-71.4896
-100.923
-131.118
-162.136
-193.834
-225.675
-256.386
-283.381
-301.823
-303.405
-275.476
-202.906
-77.9342
-13.0333
-39.159
-65.4495
-91.9693
-118.702
-145.482
-171.895
-197.098
-219.562
-236.675
-244.272
-236.269
-205.036
-143.82
-52.7786
-11.8517
-35.5562
-59.2488
-82.8661
-106.25
-129.081
-150.791
-170.421
-186.448
-196.573
-197.55
-185.26
-155.415
-105.443
-37.7025
-10.6689
-31.961
-53.0994
-73.9238
-94.1788
-113.457
-131.128
-146.242
-157.431
-162.82
-160.037
-146.437
-119.768
-79.4044
-27.948
-9.51771
-28.472
-47.167
-65.3757
-82.7844
-98.9481
-113.238
-124.786
-132.437
-134.74
-130.033
-116.689
-93.6285
-61.0675
-21.2761
-8.42269
-25.1624
-41.5714
-57.3819
-72.2532
-85.7384
-97.2505
-106.034
-111.154
-111.527
-106.023
-93.6864
-74.085
-47.7506
-16.5211
-7.40086
-22.0821
-36.3906
-50.0393
-62.6835
-73.8975
-83.1561
-89.8241
-93.1664
-92.3927
-86.757
-75.7268
-59.2158
-37.8323
-13.0247
-6.46254
-19.2603
-31.6673
-43.3935
-54.1056
-63.4132
-70.8592
-75.9222
-78.0352
-76.633
-71.2356
-61.5719
-47.7294
-30.2912
-10.3903
-5.61248
-16.7095
-27.4162
-37.451
-46.5023
-54.2205
-60.2161
-64.0676
-65.3439
-63.6464
-58.6757
-50.3178
-38.7391
-24.4597
-8.36681
-4.85116
-14.4294
-23.631
-32.1907
-39.8237
-46.2229
-51.0608
-54.0003
-54.7164
-52.9318
-48.4669
-41.2996
-31.6236
-19.887
-6.78814
-4.17591
-12.4106
-20.2913
-27.5733
-34.0013
-39.3087
-43.223
-45.4761
-45.8245
-44.0775
-40.134
-34.0227
-25.9384
-16.2601
-5.54085
-3.5819
-10.6374
-17.3668
-23.5485
-28.9562
-33.3613
-36.5378
-38.2737
-38.3869
-36.7478
-33.3057
-28.1154
-21.3596
-13.3559
-4.54515
-3.06299
-9.09055
-14.8225
-20.0606
-24.607
-28.2663
-30.8524
-32.1974
-32.1655
-30.6696
-27.6906
-23.2949
-17.647
-11.0119
-3.74347
-2.61235
-7.74879
-12.6207
-17.0529
-20.8732
-23.9161
-26.0282
-27.0767
-26.9601
-25.6208
-23.0589
-19.3434
-14.6195
-9.10764
-3.09344
-2.22297
-6.5906
-10.724
-14.4696
-17.6789
-20.2118
-21.9422
-22.7647
-22.6032
-21.4206
-19.2279
-16.092
-12.1389
-7.55204
-2.56328
-1.88794
-5.59495
-9.09635
-12.2586
-14.954
-17.0645
-18.4863
-19.1354
-18.9549
-17.9213
-16.0516
-13.4077
-10.0981
-6.27543
-2.12875
-1.6007
-4.74198
-7.70408
-10.3715
-12.635
-14.3952
-15.5665
-16.0821
-15.8987
-15.0024
-13.4127
-11.1854
-8.41342
-5.22372
-1.77115
-1.35516
-4.01335
-6.51632
-8.76464
-10.6652
-12.1345
-13.1019
-13.5137
-13.3373
-12.5648
-11.2162
-9.34117
-7.01866
-4.35445
-1.47585
-1.14581
-3.39244
-5.50529
-7.39912
-8.9948
-10.2221
-11.0228
-11.3536
-11.1896
-10.527
-9.38517
-7.8075
-5.86106
-3.63398
-1.23126
-0.967669
-2.86437
-4.64625
-6.24051
-7.58002
-8.60583
-9.26972
-9.5368
-9.38794
-8.82186
-7.85657
-6.52979
-4.89823
-3.03543
-1.02819
-0.816345
-2.41597
-3.91742
-5.25869
-6.38294
-7.24072
-7.79208
-8.00871
-7.87584
-7.39377
-6.57886
-5.4636
-4.0959
-2.53713
-0.859204
-0.687968
-2.0357
-3.29976
-4.42747
-5.3708
-6.08827
-6.54674
-6.72317
-6.60608
-6.1967
-5.50959
-4.57262
-3.42618
-2.12151
-0.718323
-0.579161
-1.7135
-2.77673
-3.72421
-4.51541
-5.11556
-5.49714
-5.64135
-5.53918
-5.19237
-4.61372
-3.82703
-2.86628
-1.77428
-0.600661
-0.486996
-1.44065
-2.33404
-3.1294
-3.79261
-4.29452
-4.6123
-4.7305
-4.64208
-4.34894
-3.86225
-3.20223
-2.39747
-1.48371
-0.502225
-0.408943
-1.20963
-1.95937
-2.62631
-3.18175
-3.60129
-3.86595
-3.96307
-3.88705
-3.63984
-3.23108
-2.6779
-2.0043
-1.24013
-0.41973
-0.342824
-1.01397
-1.64216
-2.2006
-2.66519
-3.01555
-3.23588
-3.31579
-3.25082
-3.04285
-2.70014
-2.23715
-1.67399
-1.03557
-0.350464
-0.28677
-0.848119
-1.37337
-1.84003
-2.22792
-2.52004
-2.70327
-2.76906
-2.71385
-2.53937
-2.25267
-1.86591
-1.39591
-0.863415
-0.292181
-0.239176
-0.707319
-1.14524
-1.53412
-1.85712
-2.10009
-2.25216
-2.3063
-2.25966
-2.11378
-1.87465
-1.55244
-1.1612
-0.718151
-0.243008
-0.198669
-0.587496
-0.951135
-1.27393
-1.54187
-1.74323
-1.86903
-1.91349
-1.87433
-1.75292
-1.55428
-1.2869
-0.962431
-0.595163
-0.201381
-0.164067
-0.485153
-0.785382
-1.0518
-1.27283
-1.4388
-1.54233
-1.57871
-1.54609
-1.44566
-1.28161
-1.06097
-0.793372
-0.490576
-0.165985
-0.134357
-0.397286
-0.643096
-0.861161
-1.04201
-1.17771
-1.26225
-1.29181
-1.2649
-1.18255
-1.0482
-0.867642
-0.64874
-0.401116
-0.135712
-0.108662
-0.321298
-0.520065
-0.696357
-0.842508
-0.952119
-1.02034
-1.04409
-1.02221
-0.95553
-0.846873
-0.700922
-0.52404
-0.323996
-0.109616
-0.0862204
-0.254936
-0.412631
-0.55247
-0.668369
-0.755255
-0.809287
-0.828035
-0.810594
-0.757644
-0.671426
-0.555667
-0.415414
-0.256825
-0.0868887
-0.0663643
-0.196222
-0.317588
-0.425197
-0.514366
-0.581191
-0.622722
-0.637096
-0.623626
-0.582844
-0.516481
-0.427409
-0.319514
-0.197529
-0.0668267
-0.0485003
-0.143401
-0.232091
-0.310722
-0.375868
-0.42468
-0.455003
-0.46548
-0.455613
-0.425795
-0.377296
-0.312215
-0.233392
-0.144284
-0.0488125
-0.0320933
-0.0948902
-0.153576
-0.205603
-0.248706
-0.280998
-0.301055
-0.30798
-0.301446
-0.281711
-0.249618
-0.206557
-0.154407
-0.0954538
-0.0322927
-0.0166507
-0.0492316
-0.0796809
-0.106677
-0.129046
-0.145807
-0.156221
-0.159821
-0.156437
-0.146202
-0.129551
-0.107206
-0.0801412
-0.049544
-0.0167613
-0.00170806
-0.00505175
-0.008181
-0.0109621
-0.0132748
-0.0150176
-0.0161122
-0.0165071
-0.0161806
-0.0151425
-0.0134345
-0.0111291
-0.00832647
-0.00515047
-0.00174297
0.0131847
0.0389801
0.0630785
0.08443
0.102103
0.115324
0.123513
0.126309
0.123584
0.115454
0.102269
0.0846044
0.0632305
0.0390832
0.0132211
0.028476
0.0841906
0.136246
0.182377
0.220572
0.24916
0.266884
0.272959
0.267104
0.249561
0.221085
0.182914
0.136714
0.0845079
0.0285882
0.0446264
0.131942
0.213527
0.285834
0.345712
0.390539
0.418344
0.427892
0.418738
0.391259
0.346633
0.286798
0.214366
0.132511
0.0448279
0.0621218
0.183671
0.29725
0.397922
0.481299
0.543735
0.58248
0.595808
0.583096
0.544861
0.48274
0.399428
0.298561
0.184561
0.0624368
0.0814881
0.240933
0.389932
0.522014
0.631426
0.713378
0.764261
0.7818
0.765172
0.715044
0.633558
0.524244
0.391874
0.242251
0.0819542
0.103306
0.305446
0.494358
0.661845
0.800614
0.90459
0.969187
0.991512
0.970504
0.906997
0.803694
0.665066
0.497163
0.307349
0.103979
0.128228
0.379141
0.613658
0.821612
0.993954
1.12314
1.20346
1.23131
1.20534
1.12657
0.998351
0.826211
0.617662
0.381859
0.129189
0.156997
0.464218
0.751397
1.0061
1.21725
1.37561
1.47416
1.50845
1.47683
1.38048
1.2235
1.01263
0.757082
0.468076
0.158362
0.190469
0.563207
0.911679
1.22082
1.4772
1.66959
1.78946
1.83136
1.79324
1.6765
1.48604
1.23006
0.919727
0.568669
0.192401
0.229634
0.67904
1.09926
1.47217
1.78157
2.01392
2.15887
2.20983
2.16422
2.02368
1.79406
1.48523
1.11064
0.686762
0.232366
0.275645
0.815133
1.31969
1.7676
2.13943
2.4189
2.59355
2.65534
2.60109
2.43269
2.15708
1.78605
1.33576
0.826042
0.279504
0.329848
0.975473
1.57944
2.11583
2.56141
2.89665
3.10656
3.1814
3.11721
2.91613
2.58634
2.14189
1.60214
0.990879
0.335297
0.393818
1.16473
1.88611
2.5271
3.05999
3.4614
3.71332
3.80395
3.72837
3.4889
3.09518
2.5639
1.91816
1.18648
0.401512
0.469398
1.38836
2.24859
3.0134
3.64982
4.12992
4.43205
4.5419
4.4533
4.16874
3.69951
3.06536
2.29383
1.41907
0.480262
0.558745
1.65277
2.67729
3.58883
4.34818
4.92199
5.28425
5.41759
5.31425
4.97679
4.41832
3.66218
2.74117
1.69613
0.574081
0.664375
1.96544
3.18442
4.2699
5.17532
5.8609
6.29537
6.45757
6.33771
5.93826
5.27434
4.37345
3.27461
2.02665
0.686028
0.789224
2.33507
3.78423
5.07596
6.15507
6.97411
7.49549
7.69335
7.55526
7.08332
6.29485
5.22215
3.91155
2.42149
0.819794
0.936703
2.77182
4.49332
6.02961
7.31534
8.29396
8.92017
9.16235
9.00454
8.44812
7.51266
6.23599
4.67306
2.89383
0.979863
1.11076
3.28744
5.33098
7.15719
8.6888
9.85842
10.6114
10.909
10.7305
10.076
8.96734
7.44853
5.58474
3.4597
1.1717
1.31594
3.89548
6.3195
8.48925
10.3135
11.7121
12.6189
12.9861
12.787
12.0192
10.7067
8.90054
6.67777
4.1387
1.40198
1.55744
4.61147
7.48453
10.0611
12.2338
13.907
15.0009
15.4563
15.2382
14.3405
12.7888
10.6417
7.99036
4.95491
1.67894
1.84117
5.4531
8.85534
11.9133
14.5008
16.504
17.8263
18.3939
18.1611
17.1158
15.2842
12.733
9.56957
5.93809
2.01276
2.17377
6.44027
10.4651
14.0921
17.1734
19.5736
21.1756
21.8872
21.6479
20.4369
18.2791
15.2494
11.4737
7.12524
2.41614
2.56262
7.59519
12.351
16.6498
20.3188
23.1972
25.143
26.0404
25.8093
24.4154
21.8793
18.2836
13.7753
8.56278
2.90504
3.01578
8.94222
14.5541
19.6446
24.0128
27.4683
29.8382
30.977
30.7779
29.1867
26.2151
21.9513
16.5659
10.3094
3.4997
3.54191
10.5076
17.119
23.1407
28.3404
32.4929
35.3881
36.8422
36.7127
34.9163
31.4479
26.3976
19.9612
12.44
4.22607
4.15004
12.3189
20.0932
27.2075
33.3948
38.3901
41.9383
43.8068
43.8048
41.8066
37.7788
31.8062
24.1097
15.0514
5.11784
4.84924
14.404
23.5255
31.9177
39.2766
45.2919
49.6543
52.0698
52.2825
50.1058
45.46
38.4114
29.2036
18.2705
6.21935
5.64815
16.7899
27.464
37.3451
46.091
53.341
58.7217
61.8619
62.4189
60.119
54.8092
46.5156
35.4954
22.2658
7.58993
6.5543
19.5005
31.9527
43.5604
53.9436
62.6875
69.3444
73.447
74.5385
72.2217
66.2299
56.5127
43.321
27.2651
9.31045
7.57317
22.5537
37.0275
50.6255
62.934
73.4827
81.74
87.1224
89.0241
86.8756
80.2369
68.9218
53.1353
33.5827
11.4935
8.70705
25.9587
42.7101
58.5854
73.1457
85.8681
96.1312
103.214
106.321
104.647
97.4906
84.4355
65.5642
41.6616
14.3
9.95366
29.7107
49.0007
67.4577
84.6328
99.9606
112.73
122.065
126.938
126.223
118.84
103.987
81.4863
52.142
17.9662
11.3045
33.7867
55.8692
77.2195
97.4018
115.829
131.711
144.014
151.433
152.43
145.374
128.849
102.16
65.977
22.8521
12.7432
38.1399
63.2456
87.7916
111.389
133.462
153.178
169.353
180.386
184.227
178.482
160.767
129.425
84.6322
29.5287
14.2441
42.6946
71.0099
99.0218
126.432
152.732
177.101
198.262
214.331
222.678
219.902
202.147
166.03
110.446
38.9509
15.7709
47.3428
78.9841
110.669
142.244
173.343
203.248
230.703
253.638
268.849
271.721
256.277
216.151
147.309
52.8214
17.2768
51.9421
86.9273
122.39
158.386
194.779
231.096
266.281
298.305
323.587
336.256
327.543
286.21
201.978
74.4383
18.705
56.3188
94.5378
133.741
174.251
216.267
259.728
304.051
347.651
387.079
415.634
421.459
386.057
286.72
110.871
19.9916
60.2746
101.464
144.182
189.067
236.748
287.757
342.321
399.89
458.118
510.792
543.998
530.299
424.59
179.175
21.0697
63.6006
107.327
153.116
201.941
254.916
313.313
378.499
451.668
533.008
619.462
699.102
738.432
659.473
325.901
21.8756
66.0955
111.757
159.942
211.931
269.316
334.151
409.129
497.764
604.341
732.857
882.192
1028.7
1071.16
693.618
22.3558
67.5889
114.433
164.123
218.17
278.541
347.94
430.27
531.394
660.432
831.784
1067.23
1391.21
1774.51
1762.5
22.4736
67.9631
115.131
165.278
220.016
281.492
352.747
438.354
545.633
687.13
886.189
1190.79
1712.5
2752.37
5270.92
22.2145
67.1711
113.759
163.242
217.18
277.65
347.583
431.384
536.102
673.848
867.292
1163.56
1673.93
2703.32
5231.76
21.589
65.2453
110.377
158.109
209.807
267.232
332.783
409.883
503.628
621.879
776.983
987.626
1274.91
1613.23
1597.5
20.6312
62.2945
105.187
150.221
198.455
251.169
309.96
376.819
454.133
544.311
648.096
758.464
840.424
768.982
171.04
-148.899
-121.842
-101.473
-85.6246
-72.7833
-62.0227
-52.7603
-44.6098
-37.3017
-30.6387
-24.4699
-18.6748
-13.1535
-7.81943
-2.59452
-55.9388
-77.7747
-77.029
-70.4751
-62.6724
-54.9352
-47.6285
-40.8171
-34.4685
-28.5201
-22.9029
-17.5495
-12.396
-7.38244
-2.45168
-25.5038
-49.3839
-56.6131
-56.1877
-52.5113
-47.5447
-42.149
-36.7
-31.3548
-26.1694
-21.1511
-16.2839
-11.5403
-6.88739
-2.28963
-13.9056
-32.5525
-41.5088
-44.1538
-43.2423
-40.4486
-36.7033
-32.5079
-28.1279
-23.7007
-19.2927
-14.9312
-10.6207
-6.35352
-2.11458
-8.67062
-22.4483
-30.7843
-34.5864
-35.2772
-34.0103
-31.5676
-28.4415
-24.9316
-21.2167
-17.4007
-13.5418
-9.67036
-5.79954
-1.93257
-5.9097
-16.1214
-23.206
-27.1771
-28.6689
-28.3861
-26.9041
-24.6394
-21.8759
-18.8013
-15.5371
-12.1602
-8.71881
-5.24244
-1.74915
-4.26483
-11.9648
-17.7883
-21.4875
-23.2909
-23.5925
-22.7822
-21.1818
-19.0346
-16.5163
-13.7505
-10.8224
-7.79092
-4.6967
-1.56906
-3.1958
-9.11059
-13.8443
-17.1129
-18.9541
-19.5694
-19.2074
-18.1023
-16.4495
-14.402
-12.0755
-9.55569
-6.90599
-4.17382
-1.39612
-2.45766
-7.07586
-10.9167
-13.7283
-15.4672
-16.2233
-16.1472
-15.4018
-14.1373
-12.4804
-10.5338
-8.37846
-6.07781
-3.68223
-1.23317
-1.92567
-5.58044
-8.70315
-11.0876
-12.6618
-13.4541
-13.5505
-13.0608
-12.0964
-10.759
-9.13632
-7.30151
-5.31508
-3.22752
-1.08211
-1.53004
-4.45408
-7.00164
-9.00867
-10.3984
-11.167
-11.3598
-11.0484
-10.3136
-9.23499
-7.88546
-6.32928
-4.6222
-2.81274
-0.944039
-1.22877
-3.58883
-5.67498
-7.35781
-8.56552
-9.27897
-9.51851
-9.32928
-8.76884
-7.89841
-6.77751
-5.46137
-4.00006
-2.43888
-0.819352
-0.995114
-2.91354
-4.628
-6.03635
-7.07527
-7.71936
-7.97423
-7.86722
-7.43868
-6.73515
-5.80463
-4.69385
-3.44698
-2.10535
-0.707922
-0.811248
-2.37967
-3.79325
-4.97101
-5.85866
-6.42946
-6.68066
-6.62785
-6.29894
-5.72902
-4.9565
-4.0205
-2.95943
-1.81041
-0.609227
-0.664875
-1.95316
-3.12197
-4.10675
-4.86166
-5.36103
-5.59771
-5.57971
-5.32607
-4.86316
-4.22152
-3.43369
-2.53274
-1.55154
-0.522482
-0.547248
-1.60947
-2.57826
-3.40182
-4.04176
-4.4746
-4.6912
-4.69477
-4.49814
-4.12104
-3.58774
-2.92516
-2.16158
-1.3258
-0.446741
-0.451992
-1.33054
-2.13519
-2.82415
-3.36537
-3.73799
-3.93228
-3.94851
-3.79518
-3.48708
-3.04346
-2.48656
-1.8404
-1.13002
-0.380977
-0.374361
-1.10284
-1.77231
-2.34886
-2.80581
-3.12494
-3.29671