/*--------------------------------*- C++ -*----------------------------------*\
| =========                 |                                                 |
| \\      /  F ield         | OpenFOAM: The Open Source CFD Toolbox           |
|  \\    /   O peration     | Version:  5.x                                   |
|   \\  /    A nd           | Web:      www.OpenFOAM.org                      |
|    \\/     M anipulation  |                                                 |
\*---------------------------------------------------------------------------*/
FoamFile
{
    version     2.0;
    format      ascii;
    class       volScalarField;
    location    "2.7999";
    object      gradTx;
}
// * * * * * * * * * * * * * * * * * * * * * * * * * * * * * * * * * * * * * //

dimensions      [0 -1 0 1 0 0 0];

internalField   nonuniform List<scalar> 
2048
(
0.00773382
0.0229653
0.0375103
0.0509823
0.0630878
0.0736413
0.0825632
0.0898658
0.0956299
0.0999806
0.103064
0.105032
0.10603
0.106196
0.105656
0.104533
0.102942
0.100991
0.0987833
0.0964074
0.0939383
0.0914339
0.0889347
0.0864653
0.0840375
0.0816536
0.0793088
0.0769936
0.0746942
0.0723939
0.0700728
0.0677102
0.0652861
0.0627834
0.0601893
0.0574962
0.0547007
0.0518014
0.0487967
0.0456827
0.0424514
0.0390916
0.0355904
0.0319367
0.0281243
0.0241568
0.0200504
0.0158367
0.0115651
0.00730269
0.00313455
-0.000838128
-0.00450133
-0.00773354
-0.0104134
-0.012429
-0.0136893
-0.0141344
-0.0137443
-0.012545
-0.010609
-0.00805199
-0.00502552
-0.00170793
0.0230587
0.0684593
0.111778
0.151848
0.187788
0.219053
0.245418
0.26694
0.283877
0.296617
0.305609
0.311306
0.314143
0.314526
0.312831
0.309415
0.30462
0.298771
0.292169
0.285083
0.277736
0.270299
0.26289
0.25558
0.248401
0.241358
0.234434
0.227601
0.220817
0.214033
0.207189
0.200221
0.193069
0.18568
0.178018
0.170059
0.161796
0.153226
0.144347
0.135148
0.125604
0.115683
0.105342
0.0945451
0.0832721
0.0715297
0.0593636
0.0468664
0.0341827
0.0215116
0.00910574
-0.00273287
-0.0136628
-0.0233185
-0.0313332
-0.0373675
-0.041143
-0.042475
-0.0413005
-0.0376952
-0.0318763
-0.0241918
-0.0150974
-0.00513027
0.038256
0.113538
0.185256
0.251424
0.310572
0.36181
0.404816
0.439737
0.467065
0.487491
0.501787
0.510721
0.515011
0.515316
0.512246
0.50638
0.498276
0.488469
0.477464
0.465705
0.453564
0.44132
0.429163
0.4172
0.405475
0.393987
0.382707
0.371584
0.360551
0.349524
0.338402
0.327076
0.315442
0.303411
0.290918
0.277931
0.264441
0.250451
0.235963
0.220962
0.205409
0.189243
0.172389
0.154778
0.136365
0.117153
0.09721
0.0766822
0.0558038
0.0349005
0.0143889
-0.00522989
-0.0233851
-0.039461
-0.0528339
-0.0629219
-0.0692423
-0.0714703
-0.0694887
-0.0634184
-0.0536236
-0.0406914
-0.0253899
-0.00862638
0.0536395
0.159112
0.259358
0.351502
0.433457
0.50402
0.562834
0.610229
0.647015
0.674256
0.693095
0.704627
0.709851
0.70966
0.704875
0.69628
0.684639
0.670702
0.655176
0.638693
0.621774
0.604803
0.588031
0.571589
0.555516
0.539799
0.524387
0.509209
0.494172
0.479156
0.464019
0.448599
0.432741
0.416313
0.399225
0.381436
0.362944
0.34377
0.323929
0.303406
0.28215
0.260064
0.23703
0.212933
0.187691
0.16129
0.133809
0.10544
0.0764998
0.0474362
0.018827
-0.00862661
-0.0341172
-0.0567637
-0.0756631
-0.0899614
-0.0989403
-0.102107
-0.0992698
-0.0905906
-0.0765883
-0.0581068
-0.036249
-0.0123139
0.0694932
0.205998
0.335344
0.453649
0.558172
0.647441
0.721163
0.779977
0.825132
0.858169
0.880657
0.894044
0.899595
0.89841
0.891491
0.879801
0.864306
0.84597
0.825723
0.804393
0.78266
0.761012
0.739744
0.718992
0.698773
0.679042
0.659724
0.640727
0.621936
0.603198
0.584322
0.565087
0.545273
0.524697
0.503241
0.48086
0.457574
0.433433
0.408481
0.382713
0.356062
0.32839
0.299521
0.269273
0.23751
0.204184
0.169373
0.133305
0.096373
0.0591407
0.0223444
-0.013112
-0.0461743
-0.0756755
-0.1004
-0.119179
-0.131012
-0.135196
-0.131441
-0.119939
-0.10138
-0.0768944
-0.0479561
-0.0162878
0.086089
0.254975
0.414394
0.559299
0.686256
0.793582
0.88119
0.9502
1.00247
1.04014
1.06528
1.07971
1.08494
1.08222
1.07271
1.0575
1.03776
1.01468
0.989437
0.963081
0.936462
0.910169
0.884526
0.859641
0.835483
0.811958
0.788959
0.766377
0.744084
0.721898
0.699574
0.676816
0.653326
0.628853
0.603245
0.576463
0.548562
0.519648
0.48981
0.459067
0.427335
0.394425
0.360081
0.32403
0.286058
0.246065
0.204113
0.160456
0.115556
0.0700862
0.0249382
-0.0187806
-0.0597587
-0.0965178
-0.127488
-0.151131
-0.166101
-0.171427
-0.166681
-0.152082
-0.128512
-0.0974342
-0.0607421
-0.0206254
0.103701
0.306819
0.497661
0.669822
0.81912
0.943762
1.04406
1.12183
1.17977
1.22078
1.2475
1.26213
1.26637
1.2616
1.249
1.22982
1.20539
1.17716
1.14658
1.11497
1.08337
1.05246
1.02258
0.993755
0.965881
0.938785
0.912323
0.886381
0.860834
0.835482
0.810017
0.78405
0.757175
0.729056
0.699499
0.668479
0.636111
0.602585
0.568064
0.532608
0.496118
0.458336
0.418898
0.377413
0.333557
0.287156
0.23824
0.187083
0.134207
0.0803886
0.0266684
-0.025645
-0.0749745
-0.119504
-0.157262
-0.186268
-0.20475
-0.211396
-0.205588
-0.18756
-0.158425
-0.120043
-0.0747948
-0.0253883
0.122614
0.362332
0.586323
0.786568
0.958099
1.09915
1.21069
1.29555
1.35752
1.40042
1.42759
1.44158
1.44424
1.43691
1.42078
1.39715
1.36753
1.33367
1.29735
1.26021
1.22351
1.18804
1.15407
1.12155
1.0902
1.05976
1.03004
1.00095
0.972387
0.944154
0.915876
0.887036
0.857088
0.825577
0.792256
0.757125
0.720396
0.682378
0.643352
0.603438
0.562522
0.520258
0.476138
0.429614
0.380216
0.32767
0.271965
0.213383
0.152503
0.0901993
0.027649
-0.0336459
-0.0918398
-0.144755
-0.18996
-0.224952
-0.247428
-0.255635
-0.248698
-0.226855
-0.1915
-0.144981
-0.0902609
-0.0306235
0.143137
0.422374
0.681609
0.910908
1.10448
1.2608
1.38183
1.47181
1.53592
1.57917
1.60564
1.61821
1.61874
1.60844
1.58837
1.5598
1.52446
1.48442
1.44189
1.3989
1.35699
1.31702
1.27919
1.24323
1.20869
1.17513
1.14234
1.11027
1.07892
1.0481
1.01736
0.986012
0.953324
0.91868
0.881759
0.842606
0.801567
0.759133
0.715745
0.671617
0.626623
0.580296
0.531944
0.480807
0.426232
0.367816
0.305494
0.239556
0.170636
0.0996966
0.0280381
-0.0426615
-0.110295
-0.172304
-0.225739
-0.267472
-0.294545
-0.304632
-0.296509
-0.270403
-0.228061
-0.172453
-0.107244
-0.0363611
0.16561
0.487879
0.784836
1.04426
1.25953
1.42964
1.55804
1.65081
1.71496
1.75689
1.78152
1.79199
1.78999
1.77642
1.75206
1.71809
1.67643
1.62958
1.5803
1.5311
1.48385
1.43949
1.39807
1.35903
1.32159
1.28515
1.24943
1.21453
1.18058
1.14747
1.11464
1.08121
1.04615
1.00863
0.968254
0.925115
0.879757
0.83292
0.785276
0.737171
0.688463
0.638534
0.586442
0.531158
0.471795
0.407793
0.339025
0.265796
0.188799
0.109076
0.0280295
-0.0525157
-0.130212
-0.202108
-0.264679
-0.314055
-0.346464
-0.358845
-0.349498
-0.318609
-0.268385
-0.202605
-0.125799
-0.0426132
0.19041
0.559882
0.897428
1.18811
1.42449
1.60654
1.73972
1.83258
1.89438
1.93323
1.95495
1.96277
1.95803
1.94105
1.91214
1.8723
1.82367
1.7693
1.71263
1.65679
1.60409
1.55552
1.51088
1.46916
1.42919
1.39008
1.35154
1.31387
1.27748
1.24239
1.2079
1.17284
1.13582
1.09572
1.05199
1.00484
0.955078
0.903784
0.851942
0.800084
0.748056
0.69503
0.639741
0.580821
0.517087
0.447791
0.372745
0.292289
0.207183
0.118542
0.0278431
-0.0629852
-0.151395
-0.234049
-0.306789
-0.364868
-0.403512
-0.418717
-0.40813
-0.371852
-0.312695
-0.235512
-0.145924
-0.0493691
0.217963
0.639534
1.02095
1.34403
1.60062
1.79221
1.9271
2.01691
2.07371
2.10766
2.12548
2.13034
2.12285
2.10253
2.06892
2.02274
1.96641
1.90369
1.83888
1.77593
1.71767
1.66516
1.61777
1.5739
1.5318
1.49024
1.4489
1.40844
1.36972
1.33295
1.29729
1.26113
1.22262
1.18023
1.13323
1.08197
1.02763
0.971737
0.915702
0.860308
0.805386
0.749825
0.691944
0.629946
0.562286
0.487989
0.406826
0.319203
0.225966
0.128297
0.0277159
-0.0738073
-0.17359
-0.267939
-0.352007
-0.420024
-0.465986
-0.484685
-0.47288
-0.430498
-0.36116
-0.271172
-0.167548
-0.0565918
0.248752
0.728121
1.1571
1.51369
1.78915
1.98731
2.12022
2.20337
2.25227
2.27945
2.29258
2.29439
2.28444
2.26104
2.22273
2.16974
2.10488
2.03286
1.95903
1.88841
1.82451
1.76841
1.71889
1.6735
1.62976
1.58594
1.54173
1.49833
1.45732
1.41921
1.38292
1.34628
1.30682
1.26247
1.21223
1.15667
1.09749
1.03677
0.976479
0.917758
0.860411
0.802948
0.743142
0.678679
0.607566
0.52856
0.441422
0.346684
0.245304
0.138534
0.027893
-0.0846868
-0.196487
-0.303518
-0.400205
-0.47958
-0.534151
-0.557196
-0.544249
-0.494911
-0.413887
-0.309487
-0.190518
-0.0642121
0.283324
0.827085
1.30777
1.69888
1.9913
2.19232
2.31896
2.39138
2.42916
2.4477
2.45556
2.4546
2.44277
2.41684
2.37397
2.31366
2.23932
2.15689
2.07303
1.99408
1.92447
1.86529
1.81443
1.76828
1.72346
1.67757
1.63027
1.58362
1.54027
1.50118
1.46492
1.42851
1.38874
1.34278
1.28929
1.22914
1.16473
1.09884
1.03416
0.97231
0.913068
0.854414
0.793424
0.727167
0.653104
0.569663
0.47666
0.374847
0.265329
0.149424
0.0286181
-0.0953033
-0.219724
-0.340459
-0.451183
-0.543538
-0.608244
-0.636707
-0.622781
-0.565462
-0.470915
-0.350243
-0.214581
-0.0721238
0.322303
0.938031
1.47502
1.90149
2.20824
2.4076
2.52303
2.58012
2.60329
2.61136
2.61369
2.61062
2.59781
2.57022
2.52311
2.45493
2.36997
2.27586
2.18077
2.09271
2.01737
1.95578
1.90457
1.85858
1.81334
1.76557
1.71478
1.66432
1.61849
1.57885
1.54337
1.50802
1.46867
1.42153
1.3647
1.29956
1.22941
1.15789
1.08859
1.02381
0.963275
0.904239
0.842875
0.775558
0.699082
0.611447
0.512643
0.403778
0.286135
0.161113
0.0301245
-0.105319
-0.24289
-0.378365
-0.504673
-0.611842
-0.688461
-0.723695
-0.709094
-0.642549
-0.5322
-0.39309
-0.239374
-0.0801782
0.366406
1.06275
1.66109
2.12354
2.44109
2.63332
2.73198
2.76863
2.77337
2.76922
2.76619
2.76212
2.74958
2.7215
2.6707
2.59398
2.49707
2.38987
2.28214
2.18402
2.10295
2.03986
1.98953
1.94475
1.89988
1.85043
1.79552
1.74041
1.69182
1.65214
1.61835
1.58499
1.54695
1.49914
1.43878
1.36807
1.29159
1.21384
1.13957
1.07205
1.01094
0.95244
0.891577
0.824005
0.745693
0.654051
0.549437
0.433527
0.307784
0.173709
0.0326257
-0.114386
-0.26553
-0.416773
-0.560341
-0.684375
-0.774948
-0.818657
-0.803909
-0.726618
-0.597602
-0.437514
-0.264404
-0.0881808
0.416468
1.2032
1.86841
2.36722
2.69086
2.86939
2.9452
2.95579
2.93793
2.91994
2.91224
2.90883
2.89806
2.87107
2.81746
2.73132
2.62083
2.49901
2.37699
2.26765
2.1809
2.11751
2.06958
2.02718
1.98363
1.93276
1.87276
1.81177
1.76002
1.72095
1.68997
1.65962
1.62391
1.57607
1.51186
1.43485
1.35133
1.26659
1.18687
1.11681
1.05595
0.999049
0.939605
0.872661
0.793155
0.697604
0.587071
0.464107
0.330295
0.187276
0.0363066
-0.122155
-0.287152
-0.455153
-0.617792
-0.760963
-0.867779
-0.9221
-0.908095
-0.818191
-0.666858
-0.482807
-0.289038
-0.0958895
0.473479
1.36153
2.09957
2.63489
2.9584
3.11545
3.16199
3.1404
3.09532
3.06203
3.05106
3.05057
3.04327
3.01937
2.96422
2.86747
2.74142
2.60342
2.46519
2.34315
2.25083
2.18871
2.14503
2.10624
2.06517
2.0133
1.94683
1.87817
1.82274
1.78516
1.75833
1.73205
1.69992
1.65287
1.58427
1.5
1.40871
1.31604
1.2302
1.15779
1.09822
1.04413
0.98702
0.921679
0.841719
0.74222
0.625523
0.495501
0.353648
0.201828
0.0413149
-0.128284
-0.307227
-0.492906
-0.676571
-0.841383
-0.966922
-1.03452
-1.02273
-0.9179
-0.739551
-0.528039
-0.312496
-0.103016
0.538649
1.54008
2.35727
2.92914
3.24434
3.37074
3.38162
3.32117
3.2437
3.19388
3.18191
3.18734
3.18512
3.16683
3.11209
3.00296
2.8589
2.70331
2.54661
2.40998
2.31224
2.25346
2.21629
2.18225
2.1451
2.09296
2.01806
1.93928
1.87948
1.84461
1.82361
1.80237
1.77531
1.73021
1.65636
1.56357
1.46383
1.36209
1.2692
1.19466
1.13766
1.08778
1.03386
0.971202
0.891698
0.788
0.664709
0.527667
0.377788
0.217323
0.0477539
-0.132449
-0.325198
-0.529366
-0.73618
-0.92538
-1.0722
-1.15638
-1.14916
-1.02654
-0.815058
-0.572017
-0.333857
-0.109235
0.613514
1.74127
2.64426
3.25298
3.54899
3.63397
3.60345
3.49685
3.38103
3.31369
3.30416
3.3194
3.32342
3.31388
3.26248
3.1383
2.97315
2.79901
2.62114
2.46745
2.36453
2.3118
2.28393
2.25544
2.224
2.1729
2.08682
1.99458
1.92963
1.89918
1.88608
1.87057
1.85038
1.80893
1.72843
1.62551
1.51687
1.40468
1.30347
1.22703
1.17419
1.13021
1.08009
1.02135
0.943498
0.835024
0.704461
0.560556
0.402629
0.233651
0.0556761
-0.134351
-0.340488
-0.563785
-0.796088
-1.0127
-1.18322
-1.28801
-1.28914
-1.14511
-0.892476
-0.613263
-0.352069
-0.114189
0.700115
1.96766
2.96321
3.60993
3.87222
3.90314
3.82707
3.66625
3.50501
3.41953
3.41732
3.44739
3.45773
3.46082
3.41731
3.27392
3.08377
2.89109
2.68876
2.51474
2.40694
2.36384
2.34871
2.32589
2.30244
2.25464
2.1535
2.04334
1.97236
1.94874
1.94618
1.9365
1.92539
1.89011
1.80075
1.68561
1.56814
1.44374
1.3325
1.25441
1.2078
1.1717
1.12561
1.0722
0.997667
0.883337
0.744497
0.594132
0.42806
0.250632
0.0650804
-0.133726
-0.352508
-0.59533
-0.85574
-1.10317
-1.29932
-1.42955
-1.44494
-1.27491
-0.970524
-0.649977
-0.365984
-0.117515
0.801277
2.22175
3.31643
4.00442
4.21331
4.17534
4.05263
3.8283
3.6131
3.50922
3.52107
3.5725
3.58717
3.60779
3.57917
3.41008
3.1899
2.98047
2.74951
2.55081
2.43855
2.40973
2.41171
2.39334
2.38081
2.34018
2.21851
2.08455
2.00668
1.99322
2.00464
1.99976
2.00046
1.97522
1.87347
1.7434
1.61813
1.47928
1.35567
1.27625
1.23848
1.21277
1.17016
1.12375
1.05498
0.932932
0.784381
0.628417
0.453955
0.267999
0.075912
-0.130361
-0.36067
-0.623057
-0.91457
-1.19676
-1.41944
-1.58078
-1.61956
-1.41761
-1.04739
-0.680028
-0.374403
-0.118862
0.921037
2.50593
3.70563
4.44225
4.5707
4.44636
4.28117
3.98211
3.70238
3.58036
3.61527
3.69679
3.7102
3.75455
3.75171
3.54674
3.29003
3.06867
2.80353
2.57436
2.45823
2.44972
2.47454
2.45711
2.4593
2.43223
2.28224
2.11687
2.03135
2.03261
2.0626
2.05954
2.07552
2.06628
1.94659
1.79806
1.66764
1.51133
1.37225
1.29188
1.2663
1.25419
1.21325
1.17588
1.11652
0.983714
0.823463
0.663546
0.480177
0.285386
0.0880693
-0.124098
-0.364414
-0.64588
-0.971998
-1.29378
-1.54206
-1.74087
-1.81698
-1.57534
-1.12052
-0.700956
-0.376144
-0.117922
1.0653
2.82221
4.13136
4.93124
4.94169
4.71024
4.5152
4.12695
3.76952
3.63024
3.69997
3.82352
3.82426
3.90035
3.94008
3.6834
3.38169
3.15808
2.85103
2.58382
2.46461
2.4841
2.5395
2.51582
2.53775
2.53447
2.34495
2.13855
2.04492
2.06695
2.12186
2.11451
2.15023
2.16614
2.01986
1.84825
1.71799
1.54
1.38133
1.30048
1.29134
1.29713
1.25404
1.22828
1.18387
1.03545
0.860802
0.699855
0.506577
0.302311
0.101417
-0.114848
-0.36323
-0.662536
-1.02741
-1.39504
-1.66504
-1.90815
-2.04249
-1.75082
-1.18638
-0.71001
-0.370132
-0.11446
1.24276
3.17201
4.59231
5.48231
5.32203
4.95873
4.75943
4.26221
3.81066
3.65585
3.77527
3.95769
3.92538
4.04362
4.15156
3.81886
3.46109
3.2524
2.89223
2.57721
2.45604
2.51319
2.60999
2.56714
2.61543
2.65192
2.40671
2.14735
2.04566
2.09632
2.18511
2.16252
2.22376
2.27878
2.0926
1.89186
1.77119
1.56537
1.38177
1.30113
1.31372
1.34336
1.29122
1.28036
1.25927
1.08771
0.895064
0.738
0.532988
0.318143
0.115812
-0.102601
-0.356707
-0.671525
-1.0801
-1.50219
-1.78546
-2.07961
-2.30317
-1.94746
-1.24004
-0.704234
-0.355501
-0.108343
1.46624
3.55571
5.08438
6.11083
5.70537
5.18049
5.02178
4.38713
3.82132
3.65382
3.84119
4.10676
4.00751
4.18162
4.39639
3.95081
3.52261
3.35724
2.92727
2.55215
2.43061
2.53717
2.69089
2.60741
2.69086
2.79148
2.46714
2.14053
2.03165
2.12072
2.25636
2.20033
2.29469
2.40982
2.16356
1.92584
1.8303
1.58749
1.37225
1.29275
1.33347
1.39548
1.32278
1.33115
1.34593
1.13972
0.924392
0.779117
0.5592
0.332078
0.131136
-0.0874344
-0.344594
-0.67105
-1.12917
-1.61807
-1.89957
-2.25038
-2.60846
-2.16949
-1.27476
-0.680622
-0.331712
-0.0995704
1.75448
3.97222
5.59932
6.83846
6.0825
5.36018
5.31473
4.5005
3.79629
3.6205
3.89731
4.28156
4.06189
4.30999
4.68889
4.07545
3.55819
3.48088
2.95593
2.50577
2.38613
2.55593
2.78923
2.63115
2.76147
2.96251
2.52512
2.11476
2.00074
2.13994
2.34144
2.22319
2.36067
2.56708
2.23067
1.94575
1.89984
1.6062
1.35114
1.2741
1.35049
1.45724
1.34581
1.37916
1.44834
1.19028
0.946247
0.82504
0.584907
0.343093
0.147353
-0.0695142
-0.326878
-0.658948
-1.17336
-1.74722
-2.00254
-2.41304
-2.97085
-2.42211
-1.28138
-0.636358
-0.298659
-0.0882851
2.13451
4.41826
6.12312
7.69557
6.44042
5.47729
5.65703
4.60001
3.72963
3.55205
3.94229
4.49755
4.07606
4.42217
5.04884
4.18687
3.55665
3.63532
2.97729
2.4347
2.32019
2.56874
2.91491
2.63055
2.82328
3.17768
2.57839
2.06616
1.95071
2.15328
2.44866
2.22438
2.4182
2.76135
2.29069
1.94548
1.98638
1.62098
1.31657
1.24386
1.3643
1.53393
1.35612
1.42218
1.57273
1.23749
0.95722
0.878573
0.60963
0.349905
0.164572
-0.0490991
-0.303891
-0.632627
-1.21081
-1.89646
-2.08846
-2.55666
-3.40686
-2.71154
-1.24763
-0.569182
-0.256779
-0.0747811
2.6447
4.8876
6.6338
8.72424
6.7611
5.50478
6.0758
4.68138
3.61467
3.44461
3.9731
4.7763
4.03287
4.5087
5.5031
4.27628
3.50278
3.83746
2.98918
2.33509
2.23029
2.57378
3.08172
2.59469
2.87044
3.45394
2.62289
1.99035
1.87937
2.15917
2.5896
2.1946
2.46218
3.00729
2.33881
1.91667
2.09917
1.6306
1.26638
1.20067
1.37388
1.63297
1.34795
1.45708
1.7276
1.27857
0.952811
0.943837
0.632593
0.350922
0.183137
-0.0265324
-0.276439
-0.58901
-1.23867
-2.07566
-2.15019
-2.66576
-3.93805
-3.04512
-1.15728
-0.47788
-0.207108
-0.0594896
3.33853
5.36998
7.09887
9.98198
7.01996
5.40753
6.60913
4.73703
3.44411
3.29465
3.98399
5.14743
3.90914
4.55639
6.08766
4.33113
3.37633
4.11074
2.98742
2.20269
2.11402
2.56747
3.30849
2.50884
2.89472
3.81376
2.65203
1.88259
1.78472
2.15463
2.78019
2.12134
2.48547
3.32453
2.36817
1.84824
2.25104
1.63275
1.19821
1.14322
1.37723
1.76446
1.3135
1.47955
1.92434
1.30953
0.927182
1.02669
0.652556
0.344199
0.203726
-0.00222852
-0.245945
-0.524504
-1.25265
-2.29857
-2.17941
-2.71891
-4.59239
-3.43138
-0.989183
-0.362944
-0.151303
-0.04295
4.28923
5.84998
7.47224
11.5461
7.18407
5.14056
7.30916
4.75445
3.21033
3.09939
3.96509
5.6508
3.67425
4.54734
6.84992
4.33402
3.15099
4.48692
2.96481
2.03306
1.96932
2.54367
3.6206
2.35345
2.88499
4.28648
2.65563
1.73803
1.66529
2.13448
3.04185
1.98803
2.47838
3.73889
2.36927
1.72577
2.4594
1.62345
1.10956
1.07041
1.37096
1.94202
1.24241
1.4838
2.178
1.32477
0.872887
1.1352
0.667584
0.327393
0.227465
0.0233507
-0.214627
-0.435021
-1.24636
-2.58375
-2.16661
-2.68727
-5.4057
-3.87994
-0.716165
-0.227401
-0.0915705
-0.025764
5.59508
6.30551
7.69069
13.5187
7.20993
4.64715
8.2456
4.71397
2.90574
2.85745
3.90067
6.33921
3.28854
4.45787
7.85125
4.26144
2.79309
5.00822
2.90981
1.82177
1.79487
2.49249
4.05157
2.10317
2.82649
4.90996
2.61876
1.55203
1.52045
2.09045
3.40295
1.77326
2.42806
4.28383
2.32927
1.5308
2.74739
1.59634
0.997947
0.981586
1.34968
2.18365
1.12123
1.46227
2.50804
1.31666
0.780594
1.28023
0.674754
0.297742
0.256058
0.0497291
-0.185668
-0.316037
-1.2106
-2.95564
-2.10135
-2.53275
-6.42338
-4.40149
-0.303857
-0.0778342
-0.0305095
-0.00854006
)
;

boundaryField
{
    left
    {
        type            calculated;
        value           uniform 0;
    }
    right
    {
        type            calculated;
        value           uniform 0;
    }
    interface
    {
        type            calculated;
        value           nonuniform List<scalar> 
64
(
5.59508
6.30551
7.69069
13.5187
7.20993
4.64715
8.2456
4.71397
2.90574
2.85745
3.90067
6.33921
3.28854
4.45787
7.85125
4.26144
2.79309
5.00822
2.90981
1.82177
1.79487
2.49249
4.05157
2.10317
2.82649
4.90996
2.61876
1.55203
1.52045
2.09045
3.40295
1.77326
2.42806
4.28383
2.32927
1.5308
2.74739
1.59634
0.997947
0.981586
1.34968
2.18365
1.12123
1.46227
2.50804
1.31666
0.780594
1.28023
0.674754
0.297742
0.256058
0.0497291
-0.185668
-0.316037
-1.2106
-2.95564
-2.10135
-2.53275
-6.42338
-4.40149
-0.303857
-0.0778342
-0.0305095
-0.00854006
)
;
    }
    bottom
    {
        type            calculated;
        value           nonuniform List<scalar> 
64
(
0.00773382
0.0229653
0.0375103
0.0509823
0.0630878
0.0736413
0.0825632
0.0898658
0.0956299
0.0999806
0.103064
0.105032
0.10603
0.106196
0.105656
0.104533
0.102942
0.100991
0.0987833
0.0964074
0.0939383
0.0914339
0.0889347
0.0864653
0.0840375
0.0816536
0.0793088
0.0769936
0.0746942
0.0723939
0.0700728
0.0677102
0.0652861
0.0627834
0.0601893
0.0574962
0.0547007
0.0518014
0.0487967
0.0456827
0.0424514
0.0390916
0.0355904
0.0319367
0.0281243
0.0241568
0.0200504
0.0158367
0.0115651
0.00730269
0.00313455
-0.000838128
-0.00450133
-0.00773354
-0.0104134
-0.012429
-0.0136893
-0.0141344
-0.0137443
-0.012545
-0.010609
-0.00805199
-0.00502552
-0.00170793
)
;
    }
    defaultFaces
    {
        type            empty;
    }
}


// ************************************************************************* //
