/*--------------------------------*- C++ -*----------------------------------*\
| =========                 |                                                 |
| \\      /  F ield         | OpenFOAM: The Open Source CFD Toolbox           |
|  \\    /   O peration     | Version:  5.x                                   |
|   \\  /    A nd           | Web:      www.OpenFOAM.org                      |
|    \\/     M anipulation  |                                                 |
\*---------------------------------------------------------------------------*/
FoamFile
{
    version     2.0;
    format      ascii;
    class       volScalarField;
    location    "2.7999";
    object      T;
}
// * * * * * * * * * * * * * * * * * * * * * * * * * * * * * * * * * * * * * //

dimensions      [0 0 0 1 0 0 0];

internalField   nonuniform List<scalar> 
2048
(
9.80242
9.80266
9.80313
9.80383
9.80473
9.8058
9.80703
9.80838
9.80984
9.81137
9.81296
9.81459
9.81624
9.81791
9.81956
9.82121
9.82283
9.82442
9.82599
9.82751
9.829
9.83045
9.83186
9.83323
9.83456
9.83585
9.83711
9.83833
9.83952
9.84066
9.84178
9.84285
9.84389
9.84489
9.84586
9.84678
9.84765
9.84848
9.84927
9.85001
9.8507
9.85134
9.85192
9.85245
9.85292
9.85333
9.85367
9.85395
9.85417
9.85432
9.8544
9.85441
9.85437
9.85427
9.85413
9.85395
9.85374
9.85352
9.8533
9.85309
9.85291
9.85276
9.85265
9.8526
9.41569
9.41641
9.41783
9.41991
9.42258
9.42577
9.42942
9.43344
9.43776
9.44231
9.44703
9.45187
9.45676
9.46168
9.46659
9.47146
9.47626
9.48098
9.4856
9.49011
9.49451
9.49879
9.50295
9.507
9.51094
9.51476
9.51848
9.52209
9.52559
9.52899
9.53228
9.53547
9.53854
9.5415
9.54434
9.54706
9.54966
9.55212
9.55444
9.55663
9.55867
9.56055
9.56228
9.56385
9.56524
9.56645
9.56747
9.5683
9.56894
9.56937
9.56961
9.56966
9.56952
9.56923
9.5688
9.56825
9.56763
9.56696
9.5663
9.56567
9.56512
9.56468
9.56437
9.56421
9.04534
9.04653
9.04888
9.05232
9.05674
9.06203
9.06805
9.07468
9.08179
9.08927
9.09702
9.10495
9.11298
9.12105
9.12909
9.13705
9.14491
9.15263
9.16018
9.16755
9.17473
9.18172
9.18852
9.19513
9.20156
9.2078
9.21387
9.21976
9.22548
9.23103
9.2364
9.2416
9.24663
9.25146
9.25611
9.26055
9.26479
9.26882
9.27262
9.27619
9.27952
9.28261
9.28544
9.288
9.29028
9.29226
9.29394
9.2953
9.29633
9.29704
9.29742
9.29749
9.29726
9.29676
9.29603
9.29511
9.29406
9.29294
9.29183
9.29077
9.28985
9.2891
9.28857
9.2883
8.69035
8.69203
8.69532
8.70013
8.70631
8.71368
8.72206
8.73126
8.74113
8.75148
8.7622
8.77314
8.78422
8.79533
8.80639
8.81735
8.82815
8.83875
8.84911
8.85922
8.86907
8.87865
8.88797
8.89703
8.90583
8.91439
8.9227
8.93078
8.93861
8.94622
8.95359
8.96072
8.96761
8.97424
8.98062
8.98672
8.99254
8.99806
9.00328
9.00818
9.01276
9.017
9.02089
9.02441
9.02754
9.03027
9.03258
9.03445
9.03588
9.03685
9.03736
9.03743
9.03709
9.03637
9.03532
9.034
9.0325
9.03091
9.02931
9.02781
9.02648
9.02542
9.02467
9.02428
8.34983
8.352
8.35627
8.36248
8.37044
8.37992
8.39067
8.40246
8.41505
8.42824
8.44187
8.45576
8.46981
8.48388
8.49788
8.51174
8.52537
8.53875
8.55181
8.56455
8.57695
8.58901
8.60073
8.61212
8.6232
8.63396
8.64442
8.65458
8.66444
8.67401
8.68329
8.69227
8.70095
8.70931
8.71735
8.72504
8.73237
8.73934
8.74592
8.7521
8.75788
8.76323
8.76814
8.77259
8.77656
8.78001
8.78294
8.78531
8.7871
8.78832
8.78895
8.78902
8.78854
8.78757
8.78618
8.78443
8.78245
8.78034
8.77823
8.77623
8.77448
8.77306
8.77208
8.77157
8.02294
8.02563
8.03091
8.03858
8.04839
8.06003
8.07319
8.08757
8.10288
8.11889
8.13539
8.15218
8.16913
8.18609
8.20295
8.21961
8.23599
8.25204
8.2677
8.28296
8.2978
8.31222
8.32624
8.33986
8.35311
8.36597
8.37848
8.39063
8.40243
8.41388
8.42499
8.43574
8.44614
8.45616
8.46579
8.47501
8.4838
8.49215
8.50004
8.50746
8.51439
8.52081
8.52671
8.53207
8.53684
8.54101
8.54453
8.54738
8.54954
8.551
8.55173
8.55177
8.55115
8.54991
8.54813
8.54592
8.54341
8.54073
8.53805
8.53552
8.5333
8.53151
8.53025
8.52961
7.70893
7.71217
7.71852
7.72772
7.73945
7.75332
7.76894
7.78595
7.804
7.82282
7.84215
7.8618
7.88159
7.90137
7.92102
7.94041
7.95945
7.97807
7.99623
8.0139
8.03108
8.04776
8.06397
8.07972
8.09502
8.1099
8.12436
8.13841
8.15206
8.16531
8.17817
8.19062
8.20267
8.21428
8.22545
8.23614
8.24634
8.25602
8.26517
8.27377
8.28182
8.28928
8.29614
8.30237
8.30793
8.31279
8.31691
8.32024
8.32275
8.32443
8.32527
8.32527
8.32446
8.32292
8.32073
8.31801
8.31491
8.31161
8.3083
8.30518
8.30244
8.30023
8.29869
8.2979
7.40708
7.41092
7.41841
7.42924
7.44299
7.45918
7.47734
7.49701
7.51782
7.53944
7.56159
7.58405
7.60664
7.62918
7.65154
7.67358
7.6952
7.71632
7.73688
7.75686
7.77626
7.79509
7.81338
7.83116
7.84843
7.86523
7.88155
7.89741
7.91283
7.9278
7.94233
7.95642
7.97005
7.98321
7.99585
8.00796
8.01951
8.03048
8.04084
8.05058
8.0597
8.06816
8.07595
8.08304
8.08938
8.09492
8.09962
8.10342
8.10629
8.10819
8.10911
8.10905
8.10805
8.10618
8.10353
8.10024
8.0965
8.09251
8.08851
8.08474
8.08142
8.07876
8.07689
8.07594
7.11674
7.12122
7.12994
7.14252
7.15841
7.17703
7.19781
7.22022
7.2438
7.26821
7.29315
7.31839
7.34372
7.36897
7.39399
7.41861
7.44273
7.46625
7.48912
7.51131
7.53283
7.55372
7.57399
7.59369
7.61284
7.63146
7.64956
7.66716
7.68426
7.70088
7.71701
7.73267
7.74783
7.76246
7.77653
7.79001
7.80287
7.81506
7.82659
7.83743
7.84758
7.85701
7.86571
7.87364
7.88074
7.88696
7.89223
7.8965
7.89972
7.90183
7.90283
7.90271
7.9015
7.89926
7.89611
7.89221
7.88776
7.88301
7.87824
7.87374
7.86979
7.86661
7.8644
7.86326
6.83729
6.84247
6.85254
6.867
6.88517
6.90636
6.92985
6.95504
6.98144
7.00864
7.03634
7.06431
7.09234
7.12025
7.14785
7.175
7.20154
7.22739
7.25247
7.27677
7.30031
7.32314
7.3453
7.36683
7.38777
7.40813
7.42793
7.44717
7.46588
7.48407
7.50174
7.5189
7.53553
7.55159
7.56705
7.58185
7.59596
7.60934
7.62199
7.63388
7.64502
7.6554
7.66498
7.67372
7.68158
7.68847
7.69432
7.69906
7.70263
7.70496
7.70603
7.70584
7.70439
7.70177
7.69808
7.6935
7.68826
7.68267
7.67705
7.67175
7.66709
7.66336
7.66076
7.65943
6.56815
6.5741
6.58565
6.60215
6.62277
6.64666
6.67298
6.70103
6.73025
6.76023
6.79066
6.82132
6.852
6.88251
6.91266
6.94226
6.97116
6.99925
7.02646
7.05277
7.07823
7.1029
7.12684
7.15011
7.17275
7.19478
7.21619
7.23701
7.25725
7.27693
7.29607
7.31468
7.33273
7.35017
7.36697
7.38305
7.39837
7.41289
7.42661
7.43952
7.45161
7.46289
7.47333
7.48289
7.49148
7.49905
7.50548
7.51069
7.51461
7.51717
7.51832
7.51804
7.51635
7.51331
7.50903
7.50372
7.49763
7.49111
7.48455
7.47836
7.47293
7.46858
7.46557
7.46402
6.30877
6.31558
6.32875
6.34748
6.37075
6.3975
6.42676
6.45772
6.48979
6.52253
6.55565
6.58895
6.62222
6.65529
6.68793
6.71994
6.75114
6.78139
6.81063
6.83886
6.86613
6.89253
6.91816
6.94309
6.96735
6.99096
7.01392
7.03623
7.05793
7.07904
7.09959
7.11958
7.139
7.15779
7.17588
7.1932
7.20969
7.22531
7.24006
7.25393
7.26694
7.2791
7.29037
7.30072
7.31006
7.31829
7.32531
7.331
7.33528
7.33807
7.33929
7.33893
7.33699
7.33351
7.32861
7.32251
7.31549
7.30794
7.30034
7.29317
7.28689
7.28188
7.27841
7.27664
6.05862
6.06639
6.08137
6.10255
6.12867
6.15846
6.19078
6.22472
6.25963
6.2951
6.33087
6.36674
6.40257
6.43813
6.47322
6.50759
6.54103
6.57337
6.60455
6.63459
6.66357
6.69161
6.71883
6.74532
6.77113
6.79625
6.82069
6.84443
6.86751
6.88997
6.91186
6.93319
6.95393
6.97403
6.99338
7.01191
7.02953
7.04621
7.06193
7.07672
7.09061
7.10361
7.1157
7.12683
7.13691
7.14582
7.15343
7.15961
7.16426
7.16728
7.16859
7.16815
7.16594
7.16201
7.15646
7.1495
7.14147
7.13281
7.12406
7.1158
7.10859
7.10287
7.09892
7.09692
5.81721
5.82607
5.84306
5.86693
5.89615
5.92916
5.96466
6.00163
6.03939
6.07754
6.11588
6.15428
6.19259
6.23061
6.26811
6.3048
6.34041
6.37478
6.40782
6.43956
6.47013
6.4997
6.52842
6.5564
6.58368
6.61026
6.63611
6.66121
6.68559
6.70934
6.73251
6.75512
6.77715
6.79852
6.81911
6.83881
6.85752
6.8752
6.89186
6.90752
6.92224
6.93605
6.94894
6.96085
6.97167
6.98126
6.98947
6.99615
7.00118
7.00445
7.00585
7.00534
7.00287
6.99847
6.99223
6.98437
6.97525
6.96537
6.95535
6.9459
6.93768
6.93119
6.92674
6.92448
5.58407
5.59415
5.61339
5.64024
5.67281
5.70925
5.74805
5.78809
5.82868
5.86945
5.91028
5.95112
5.99186
6.0323
6.07218
6.11115
6.1489
6.18521
6.22002
6.25336
6.28542
6.31641
6.34653
6.37592
6.40461
6.43259
6.45979
6.48618
6.5118
6.53675
6.56114
6.58498
6.60826
6.63088
6.65269
6.67353
6.6933
6.71195
6.72948
6.74596
6.76148
6.77607
6.78973
6.80241
6.81397
6.82425
6.83308
6.84027
6.84569
6.84921
6.85073
6.85016
6.84744
6.84257
6.83561
6.82679
6.81649
6.80528
6.79388
6.78312
6.7738
6.76649
6.76152
6.75901
5.35875
5.3702
5.39196
5.42211
5.45832
5.49839
5.54061
5.58377
5.62713
5.67044
5.71367
5.75688
5.79999
5.8428
5.88503
5.92626
5.9661
6.0043
6.04078
6.07561
6.10903
6.14133
6.17278
6.2035
6.23355
6.26287
6.29138
6.31898
6.34576
6.37185
6.39739
6.42243
6.44692
6.47077
6.49377
6.51573
6.53652
6.55609
6.57446
6.59171
6.60796
6.6233
6.63772
6.65116
6.66347
6.67446
6.68391
6.69163
6.69746
6.70125
6.70289
6.70227
6.69931
6.69397
6.68629
6.67646
6.6649
6.65224
6.63932
6.62712
6.61661
6.60845
6.60294
6.60018
5.14081
5.15382
5.17841
5.21221
5.25238
5.2963
5.34205
5.38833
5.43442
5.48015
5.52567
5.57115
5.61657
5.66172
5.70629
5.74976
5.79164
5.83166
5.86974
5.90594
5.9406
5.9741
6.00677
6.03877
6.07012
6.10076
6.13052
6.15928
6.18714
6.21428
6.24092
6.2671
6.29278
6.31784
6.34203
6.36509
6.38687
6.40732
6.42645
6.44441
6.46135
6.47741
6.49257
6.50677
6.51984
6.53156
6.54164
6.5499
6.55615
6.56022
6.562
6.56136
6.55818
6.55238
6.54396
6.53308
6.52018
6.50596
6.49136
6.47758
6.46579
6.45674
6.45071
6.44771
4.92982
4.94461
4.97237
5.01023
5.05471
5.10268
5.15206
5.20149
5.2502
5.29822
5.34589
5.39356
5.44122
5.48866
5.53558
5.5813
5.62518
5.66697
5.70654
5.744
5.77976
5.81434
5.84816
5.88137
5.91398
5.94591
5.9769
6.00675
6.03559
6.06371
6.09138
6.11866
6.1455
6.17178
6.19715
6.22129
6.24403
6.26531
6.28516
6.30375
6.32134
6.33807
6.35397
6.36892
6.38277
6.39522
6.40596
6.41477
6.42145
6.42582
6.42775
6.42711
6.42375
6.41751
6.40834
6.39637
6.38205
6.36615
6.34972
6.33419
6.32104
6.31108
6.30453
6.30132
4.72538
4.74222
4.77351
4.81588
4.86505
4.91727
4.97038
5.02294
5.07417
5.12431
5.17398
5.22374
5.27358
5.32328
5.37255
5.42053
5.46639
5.50987
5.55087
5.58945
5.62618
5.66171
5.6966
5.73097
5.76479
5.798
5.8302
5.86107
5.8908
5.9198
5.94845
5.97679
6.00477
6.03227
6.05884
6.08403
6.1077
6.12977
6.15027
6.16944
6.1876
6.20499
6.22159
6.2373
6.25194
6.26516
6.27657
6.28593
6.29306
6.29774
6.29985
6.29923
6.29571
6.28907
6.27917
6.26606
6.25025
6.23256
6.21411
6.19665
6.18203
6.17118
6.16416
6.16074
4.52711
4.54628
4.58152
4.62891
4.68318
4.73982
4.79674
4.85242
4.90601
4.95808
5.00957
5.06134
5.1133
5.16519
5.21686
5.26715
5.31493
5.36006
5.4024
5.44197
5.47951
5.51586
5.55175
5.58723
5.62223
5.65673
5.69014
5.72195
5.75247
5.78225
5.81182
5.84119
5.87027
5.89901
5.9268
5.95302
5.9776
6.00043
6.02149
6.04116
6.05984
6.07785
6.09516
6.11161
6.12707
6.14109
6.15317
6.1631
6.17069
6.17569
6.17799
6.17743
6.17379
6.16679
6.15617
6.14191
6.12452
6.10493
6.08427
6.06465
6.04849
6.03676
6.02932
6.02576
4.3346
4.35648
4.39609
4.44908
4.5089
4.57009
4.63087
4.68968
4.74544
4.79921
4.8523
4.906
4.96003
5.01406
5.06818
5.12085
5.17049
5.21722
5.26084
5.30124
5.33943
5.37646
5.4133
5.44985
5.48598
5.52181
5.55644
5.5891
5.62029
5.65074
5.68119
5.71156
5.74171
5.77173
5.80077
5.828
5.85345
5.877
5.89856
5.91864
5.93777
5.95639
5.97438
5.99156
6.00789
6.02274
6.03549
6.04601
6.05406
6.05938
6.06189
6.06142
6.05771
6.0504
6.03911
6.02366
6.00463
5.98305
5.95996
5.9379
5.92012
5.90757
5.89981
5.89613
4.14749
4.17253
4.21692
4.27617
4.34206
4.40783
4.47254
4.53448
4.59217
4.64739
4.70183
4.75742
4.81347
4.86952
4.92622
4.98137
5.03278
5.08105
5.12592
5.16698
5.20563
5.24318
5.28094
5.31855
5.35573
5.39295
5.42886
5.46227
5.494
5.52498
5.55629
5.58763
5.61878
5.65014
5.68051
5.70869
5.73499
5.75925
5.78122
5.80162
5.8211
5.84032
5.859
5.87689
5.89412
5.90986
5.92327
5.93437
5.94291
5.94856
5.95128
5.95093
5.94721
5.93966
5.92774
5.91108
5.89034
5.86672
5.84094
5.81611
5.79664
5.78338
5.77539
5.77168
3.96539
3.99418
4.0437
4.10998
4.18252
4.25281
4.32147
4.3866
4.44591
4.5023
4.5578
4.61528
4.67332
4.73122
4.79065
4.84846
4.90149
4.95127
4.99739
5.03888
5.07784
5.1157
5.15439
5.19303
5.23117
5.26989
5.30718
5.34121
5.37333
5.40469
5.43685
5.46914
5.50121
5.534
5.56578
5.59483
5.62197
5.64695
5.6692
5.68983
5.70957
5.7294
5.74877
5.76732
5.78551
5.80221
5.81625
5.82794
5.83699
5.84295
5.84591
5.8457
5.84203
5.83431
5.82185
5.80393
5.78142
5.75575
5.72701
5.69896
5.67778
5.66395
5.65588
5.65219
3.78794
3.82123
3.87613
3.95033
4.03023
4.10476
4.17743
4.24586
4.30639
4.36366
4.41984
4.47928
4.53932
4.59879
4.66121
4.72192
4.77632
4.82759
4.87501
4.91669
4.95575
4.99371
5.03338
5.07307
5.112
5.15237
5.1912
5.22565
5.25803
5.28956
5.32262
5.35586
5.3887
5.42306
5.45639
5.48618
5.51415
5.53987
5.56227
5.58303
5.60291
5.62339
5.64345
5.66258
5.68183
5.69957
5.71419
5.72647
5.73606
5.7423
5.74551
5.74547
5.74192
5.73412
5.72122
5.70201
5.67762
5.64998
5.61799
5.58615
5.56328
5.54908
5.54109
5.53751
3.61472
3.65355
3.71384
3.79706
3.88517
3.96338
4.04013
4.11211
4.17332
4.23119
4.28756
4.34917
4.41124
4.47184
4.53761
4.60157
4.65695
4.70973
4.75858
4.80012
4.83912
4.87687
4.91766
4.95843
4.99788
5.04016
5.08075
5.11537
5.14786
5.1793
5.21337
5.24758
5.28095
5.31708
5.35216
5.38247
5.41128
5.43782
5.4602
5.481
5.50086
5.52205
5.54284
5.5624
5.58285
5.60176
5.61684
5.62973
5.6399
5.64638
5.64984
5.65
5.64664
5.63885
5.62565
5.6051
5.57871
5.54931
5.51372
5.47733
5.45286
5.43858
5.43086
5.42747
3.44532
3.49114
3.55644
3.65003
3.7474
3.82832
3.90929
3.98525
4.04639
4.10467
4.16057
4.2247
4.28891
4.34994
4.41958
4.48733
4.54305
4.59741
4.64796
4.68889
4.72771
4.76484
4.807
4.84893
4.88848
4.93302
4.97572
5.01012
5.04261
5.07361
5.10888
5.14412
5.17764
5.21583
5.25295
5.28344
5.31313
5.34064
5.36274
5.38352
5.40314
5.42519
5.44675
5.46653
5.48834
5.50859
5.52396
5.53748
5.54831
5.55495
5.55868
5.55905
5.55595
5.54828
5.53498
5.51299
5.48442
5.45363
5.41409
5.37212
5.3463
5.33228
5.32503
5.32192
3.27928
3.33411
3.40341
3.50909
3.61712
3.69917
3.78462
3.86525
3.92526
3.98389
4.0384
4.10568
4.1722
4.23261
4.30689
4.37914
4.43425
4.49033
4.54302
4.58271
4.62133
4.65727
4.7012
4.74444
4.78343
4.83073
4.876
4.90964
4.94209
4.97216
5.00896
5.04533
5.07844
5.11911
5.15866
5.18881
5.21946
5.24818
5.26966
5.29041
5.30947
5.33261
5.35501
5.37467
5.39811
5.41993
5.43531
5.4495
5.46109
5.46778
5.47181
5.47238
5.46964
5.46217
5.44905
5.4255
5.39445
5.36292
5.31904
5.27008
5.24335
5.23004
5.22346
5.2207
3.11607
3.18277
3.25414
3.37412
3.49463
3.57539
3.66579
3.75217
3.80954
3.86872
3.92055
3.99192
4.06109
4.11929
4.19929
4.27707
4.33013
4.38821
4.44373
4.48125
4.51981
4.55376
4.60009
4.64485
4.68229
4.73308
4.78159
4.81365
4.84616
4.87461
4.91345
4.95113
4.98296
5.0267
5.06926
5.09829
5.13005
5.16036
5.18071
5.2015
5.21958
5.24414
5.26751
5.28652
5.31196
5.33566
5.35063
5.36558
5.37808
5.38463
5.38902
5.38977
5.38748
5.38027
5.36771
5.34244
5.30845
5.27717
5.22855
5.17071
5.14382
5.13172
5.12603
5.1237
2.95507
3.03771
3.1078
3.24502
3.38044
3.4563
3.55246
3.64617
3.69875
3.75913
3.8064
3.88329
3.95566
4.00932
4.09656
4.18129
4.23019
4.29075
4.35011
4.38416
4.42308
4.45386
4.50351
4.55016
4.5846
4.63986
4.69253
4.72183
4.75473
4.78056
4.8222
4.86149
4.89079
4.93843
4.98476
5.01152
5.04466
5.07712
5.09562
5.11669
5.13314
5.15962
5.18417
5.20175
5.2297
5.25573
5.26966
5.28551
5.29915
5.30528
5.31012
5.311
5.30929
5.30236
5.29088
5.26365
5.22602
5.19646
5.14271
5.0734
5.04755
5.03723
5.03262
5.03076
2.79552
2.89985
2.96333
3.12169
3.27527
3.34106
3.44425
3.54759
3.59228
3.65522
3.69524
3.77972
3.8561
3.90188
3.99849
4.09212
4.13383
4.19763
4.26229
4.29099
4.33113
4.35705
4.41136
4.46044
4.48976
4.5509
4.60894
4.63378
4.66777
4.68955
4.73511
4.77643
4.8014
4.8541
4.90529
4.92811
4.96305
4.99845
5.01407
5.0359
5.0498
5.07894
5.10494
5.11998
5.15117
5.18012
5.19209
5.20909
5.22418
5.22949
5.23493
5.23585
5.23486
5.22817
5.21847
5.18902
5.14664
5.12092
5.06168
4.9774
4.95445
4.94649
4.9431
4.94176
2.63649
2.77053
2.81931
3.00404
3.18012
3.22854
3.34076
3.45695
3.48934
3.55728
3.5862
3.68119
3.76278
3.79601
3.90489
4.01007
4.04033
4.10853
4.18054
4.20118
4.24408
4.26273
4.32357
4.37587
4.39711
4.46603
4.53106
4.54901
4.58538
4.60105
4.65208
4.69611
4.71421
4.77356
4.83105
4.8476
4.88498
4.92446
4.93571
4.95913
4.96916
5.00197
5.02985
5.0408
5.07622
5.10886
5.11761
5.13614
5.15309
5.157
5.16332
5.16411
5.16405
5.1574
5.15046
5.11845
5.06971
5.05075
4.98574
4.88182
4.86449
4.85944
4.85738
4.85658
2.47685
2.6517
2.6739
2.89203
3.09635
3.11734
3.24158
3.37501
3.38889
3.46582
3.47818
3.58771
3.67628
3.69048
3.81559
3.93583
3.94876
4.02312
4.10527
4.11405
4.1622
4.17014
4.24009
4.29675
4.30581
4.38508
4.45925
4.46691
4.50775
4.51443
4.57308
4.62077
4.62849
4.69665
4.76236
4.76944
4.8102
4.85529
4.86009
4.88648
4.89076
4.92866
4.959
4.9637
5.0047
5.04207
5.04584
5.06646
5.08585
5.08755
5.09515
5.09555
5.09671
5.08975
5.08683
5.05192
4.99447
4.98625
4.91532
4.78552
4.77777
4.77603
4.77534
4.77507
)
;

boundaryField
{
    left
    {
        type            zeroGradient;
    }
    right
    {
        type            zeroGradient;
    }
    interface
    {
        type            fixedValue;
        value           nonuniform List<scalar> 
64
(
2.39419
2.59764
2.59764
2.83764
3.06025
3.06025
3.19285
3.33812
3.33812
3.42282
3.42282
3.54258
3.63597
3.63597
3.77207
3.90238
3.90238
3.98116
4.07041
4.07041
4.12324
4.12324
4.19964
4.25933
4.25933
4.34564
4.42591
4.42591
4.47071
4.47071
4.53475
4.585
4.585
4.65912
4.73034
4.73034
4.77354
4.82255
4.82255
4.85155
4.85155
4.89302
4.92505
4.92505
4.96983
5.01032
5.01032
5.03244
5.05345
5.05345
5.06203
5.06203
5.06401
5.05658
5.05658
5.02
4.95639
4.95639
4.88246
4.73523
4.73523
4.73523
4.73523
4.73523
)
;
    }
    bottom
    {
        type            fixedValue;
        value           uniform 10;
    }
    defaultFaces
    {
        type            empty;
    }
}


// ************************************************************************* //
