/*--------------------------------*- C++ -*----------------------------------*\
| =========                 |                                                 |
| \\      /  F ield         | OpenFOAM: The Open Source CFD Toolbox           |
|  \\    /   O peration     | Version:  5.x                                   |
|   \\  /    A nd           | Web:      www.OpenFOAM.org                      |
|    \\/     M anipulation  |                                                 |
\*---------------------------------------------------------------------------*/
FoamFile
{
    version     2.0;
    format      ascii;
    class       volScalarField;
    location    "16.7";
    object      gradTx;
}
// * * * * * * * * * * * * * * * * * * * * * * * * * * * * * * * * * * * * * //

dimensions      [0 -1 0 1 0 0 0];

internalField   nonuniform List<scalar> 
6300
(
-6.16167
-5.91415
-5.42233
-4.69293
-3.73684
-2.56991
-1.21398
0.302222
1.94231
3.66211
5.41033
7.1303
8.76304
10.2513
11.5443
-6.40957
-6.15885
-5.66029
-4.92002
-3.94807
-2.75933
-1.37465
0.177915
1.86217
3.63326
5.43812
7.21707
8.90705
10.4462
11.7792
-6.90856
-6.65174
-6.14033
-5.37916
-4.37649
-3.14506
-1.70361
-0.0784942
1.69476
3.57022
5.49137
7.39237
9.20149
10.8467
12.263
-7.66476
-7.39961
-6.8705
-6.08021
-5.03405
-3.74121
-2.21666
-0.48346
1.42469
3.46105
5.56432
7.65909
9.65932
11.4756
13.0256
-8.68646
-8.41182
-7.86222
-7.03751
-5.93868
-4.56947
-2.93877
-1.06379
1.026
3.28452
5.64531
8.01991
10.3007
12.3702
14.1172
-9.98317
-9.69935
-9.12943
-8.26931
-7.11406
-5.65961
-3.90557
-1.85936
0.458138
3.00528
5.71204
8.47409
11.1529
13.5867
15.6159
-11.5641
-11.2733
-10.6872
-9.79662
-8.589
-7.04972
-5.16496
-2.92661
-0.339802
2.566
5.72304
9.01106
12.2495
15.2075
17.6416
-13.4361
-13.1431
-12.5498
-11.6413
-10.396
-8.78567
-6.77835
-4.34272
-1.45716
1.87504
5.60262
9.59712
13.6263
17.3515
20.3813
-15.6013
-15.3135
-14.7278
-13.8233
-12.5683
-10.919
-8.82043
-6.20916
-3.02155
0.788259
5.21483
10.1481
15.3064
20.1906
24.1366
-18.0548
-17.7823
-17.2248
-16.3563
-15.1352
-13.502
-11.3756
-8.65233
-5.20856
-0.915693
4.31994
10.4735
17.2602
23.9673
29.4193
-20.781
-20.5363
-20.0332
-19.2421
-18.1147
-16.5784
-14.528
-11.8164
-8.24503
-3.56282
2.50668
10.1653
19.2933
28.9985
37.1617
-23.7521
-23.5492
-23.1298
-22.4644
-21.5036
-20.1692
-18.3419
-15.8405
-12.3927
-7.59762
-0.896084
8.38711
20.7485
35.5709
49.231
-26.9265
-26.7789
-26.4725
-25.9826
-25.2662
-24.2533
-22.8301
-20.8113
-17.8882
-13.5392
-6.88095
3.53022
19.7421
43.3049
69.8624
-30.2487
-30.1677
-29.9991
-29.7274
-29.3258
-28.7478
-27.9144
-26.6867
-24.8097
-21.7905
-16.6191
-7.12793
11.3839
48.0433
110.33
-33.6521
-33.6446
-33.6288
-33.6026
-33.5619
-33.4979
-33.3932
-33.2115
-32.8739
-32.1941
-30.6776
-26.8072
-15.1225
27.1529
206.965
12.533
13.2335
13.7456
14.0689
14.2096
14.179
13.9922
13.6663
13.2196
12.6697
12.0336
11.3266
10.5621
9.75192
8.90604
8.03294
7.13972
6.23237
5.31591
4.39459
3.47199
2.55118
1.63474
0.724883
-0.176532
-1.06796
-1.94813
-2.81606
-3.67104
-4.51259
-5.34049
-6.15469
-6.95535
-7.7427
-8.51703
-9.27862
-10.0277
-10.7642
-11.4881
-12.1991
-12.8969
-13.5811
-14.2513
-14.9072
-15.5487
-16.176
-16.7895
-17.3898
-17.9775
-18.5533
-19.1178
-19.6715
-20.2143
-20.746
-21.2659
-21.773
-22.2659
-22.7433
-23.2037
-23.6459
-24.0687
-24.471
-24.852
-25.2107
-25.5461
-25.8568
-26.1409
-26.3958
-26.6183
-26.8044
-26.9496
-27.0487
-27.0967
-27.0885
-27.0194
-26.8855
-26.6837
-26.4119
-26.0693
-25.6563
-25.1746
-24.6271
-24.0177
-23.3519
-22.6361
-21.8779
-21.0861
-20.2702
-19.4405
-18.6076
12.7929
13.5044
14.0169
14.3314
14.4558
14.4036
14.1919
13.84
13.3676
12.7936
12.1355
11.409
10.6276
9.80302
8.94498
8.06164
7.15983
6.24525
5.3227
4.39622
3.46925
2.54472
1.62512
0.7126
-0.191031
-1.08425
-1.96583
-2.83479
-3.69043
-4.5323
-5.36022
-6.17421
-6.9745
-7.76142
-8.53536
-9.29667
-10.0456
-10.7823
-11.5065
-12.2181
-12.9164
-13.6012
-14.2717
-14.9277
-15.569
-16.1958
-16.8085
-17.4077
-17.9944
-18.5693
-19.1333
-19.6868
-20.2301
-20.7628
-21.2842
-21.7931
-22.288
-22.7674
-23.2298
-23.6737
-24.0978
-24.5014
-24.8837
-25.2439
-25.5814
-25.8948
-26.1826
-26.4422
-26.6704
-26.8631
-27.0154
-27.122
-27.1773
-27.1758
-27.1125
-26.983
-26.7841
-26.5135
-26.1703
-25.755
-25.2692
-24.7157
-24.0987
-23.4236
-22.6968
-21.9261
-21.1205
-20.2898
-19.445
-18.597
13.3282
14.0612
14.5731
14.8673
14.9559
14.8573
14.5932
14.1869
13.6615
13.0381
12.3355
11.57
10.7551
9.90204
9.02007
8.11669
7.19809
6.26941
5.33496
4.39839
3.46284
2.53099
1.60517
0.687395
-0.220622
-1.11742
-2.00178
-2.87276
-3.72968
-4.57214
-5.40002
-6.21348
-7.0129
-7.79882
-8.57183
-9.33249
-10.0812
-10.8181
-11.5432
-12.2559
-12.9556
-13.6415
-14.3129
-14.9693
-15.6102
-16.2358
-16.8466
-17.4436
-18.0279
-18.6009
-19.1636
-19.7168
-20.261
-20.7957
-21.3202
-21.833
-22.3322
-22.8159
-23.2822
-23.7295
-24.1564
-24.5623
-24.9469
-25.3098
-25.6509
-25.9696
-26.2645
-26.5336
-26.7734
-26.9797
-27.1469
-27.2689
-27.3394
-27.3519
-27.3005
-27.1803
-26.9873
-26.7192
-26.375
-25.9549
-25.4608
-24.8955
-24.2633
-23.5694
-22.8204
-22.0244
-21.1906
-20.3298
-19.4537
-18.5747
14.1717
14.936
15.4421
15.6987
15.7254
15.5487
15.1986
14.7051
14.0962
13.3962
12.6259
11.8017
10.9371
10.0424
9.12571
8.1934
7.25063
6.30165
5.35005
4.3989
3.45091
2.50842
1.57351
0.648007
-0.266486
-1.16857
-2.05708
-2.93104
-3.7898
-4.633
-5.46061
-6.27297
-7.07074
-7.85477
-8.62605
-9.38547
-10.1337
-10.8711
-11.5975
-12.3123
-13.0144
-13.7027
-14.3758
-15.0328
-15.6732
-16.2968
-16.9045
-17.4976
-18.0778
-18.647
-19.2072
-19.7597
-20.3051
-20.8432
-21.3729
-21.8922
-22.3985
-22.8892
-23.3618
-23.8142
-24.245
-24.6538
-25.0408
-25.4068
-25.7524
-26.0781
-26.3835
-26.6667
-26.9245
-27.152
-27.3429
-27.4898
-27.5847
-27.6196
-27.5874
-27.4819
-27.2985
-27.0344
-26.6884
-26.2612
-25.7545
-25.1715
-24.5163
-23.7942
-23.0116
-22.1767
-21.2994
-20.3914
-19.4664
-18.5386
15.3789
16.1821
16.6701
16.8609
16.7871
16.4893
16.0101
15.3892
14.6615
13.8555
12.9932
12.0915
11.1622
10.2142
9.25355
8.28491
7.31188
6.33746
5.36427
4.39469
3.43087
2.47478
1.52816
0.592642
-0.330321
-1.23939
-2.13338
-3.01129
-3.87239
-4.71633
-5.54317
-6.3535
-7.14834
-7.92909
-8.69731
-9.45449
-10.2018
-10.9399
-11.6685
-12.3868
-13.0931
-13.7855
-14.4618
-15.1203
-15.76
-16.3807
-16.9833
-17.5699
-18.1431
-18.7061
-19.2618
-19.8125
-20.3595
-20.9027
-21.4403
-21.9697
-22.4871
-22.9885
-23.4702
-23.9296
-24.365
-24.7764
-25.1649
-25.5327
-25.8823
-26.2157
-26.5339
-26.836
-27.1189
-27.3768
-27.6021
-27.7853
-27.9159
-27.9838
-27.9795
-27.8953
-27.7255
-27.467
-27.1187
-26.6816
-26.1579
-25.5512
-24.8654
-24.1056
-23.2778
-22.3898
-21.452
-20.4775
-19.4826
-18.4851
17.0363
17.8817
18.3256
18.4035
18.171
17.6909
17.0249
16.2266
15.3392
14.3952
13.4172
12.4204
11.4141
10.4038
9.39262
8.38249
7.3749
6.37126
5.37309
4.382
3.39956
2.42732
1.4667
0.519072
-0.414267
-1.33202
-2.23292
-3.1158
-3.97976
-4.8243
-5.64954
-6.45632
-7.24623
-8.02143
-8.78442
-9.53768
-10.2832
-11.0221
-11.7543
-12.4784
-13.1918
-13.8913
-14.5733
-15.2349
-15.874
-16.4903
-17.0851
-17.6612
-18.223
-18.7755
-19.3233
-19.8705
-20.4193
-20.9697
-21.5195
-22.0643
-22.5984
-23.1157
-23.6107
-24.0793
-24.5194
-24.9316
-25.3185
-25.6846
-26.0351
-26.3749
-26.7073
-27.0329
-27.3488
-27.6484
-27.9217
-28.156
-28.3373
-28.4516
-28.4864
-28.4315
-28.28
-28.0285
-27.6766
-27.2262
-26.6807
-26.0443
-25.3209
-24.5148
-23.6304
-22.6745
-21.657
-20.593
-19.5023
-18.4086
19.278
20.1589
20.5075
20.393
19.9107
19.16
18.23
17.192
16.0982
14.9833
13.868
12.7627
11.6715
10.5944
9.5299
8.47617
7.43198
6.39697
5.37155
4.35665
3.3534
2.36297
1.38642
0.424803
-0.520762
-1.449
-2.35847
-3.24763
-4.11512
-4.96008
-5.78249
-6.58346
-7.36529
-8.13132
-8.88552
-9.63195
-10.3741
-11.1139
-11.8517
-12.5853
-13.3105
-14.0221
-14.7142
-15.3816
-16.0209
-16.6309
-17.2134
-17.773
-18.3163
-18.8512
-19.3856
-19.9261
-20.4766
-21.0376
-21.6056
-22.1739
-22.7336
-23.2748
-23.789
-24.2696
-24.7138
-25.1228
-25.5018
-25.8587
-26.2031
-26.5446
-26.8902
-27.2433
-27.6018
-27.9575
-28.297
-28.6026
-28.8547
-29.0337
-29.1221
-29.1064
-28.9783
-28.7344
-28.376
-27.9073
-27.3342
-26.6622
-25.8954
-25.0362
-24.0859
-23.0474
-21.9288
-20.7464
-19.5261
-18.3011
22.3143
23.2023
23.3558
22.9117
22.0365
20.8869
19.5901
18.2373
16.8872
15.5717
14.3038
13.0846
11.9082
10.7666
9.6514
8.55587
7.47564
6.40867
5.35468
4.31434
3.28865
2.27848
1.28451
0.307314
-0.652302
-1.59311
-2.51332
-3.41071
-4.28298
-5.12838
-5.94635
-6.73816
-7.5071
-8.25821
-8.99777
-9.7324
-10.4681
-11.2087
-11.9551
-12.704
-13.4489
-14.1809
-14.8904
-15.5687
-16.2097
-16.8109
-17.3747
-17.908
-18.4214
-18.9275
-19.4391
-19.967
-20.5185
-21.095
-21.6911
-22.2959
-22.895
-23.4728
-24.0153
-24.5121
-24.9587
-25.3572
-25.7165
-26.0503
-26.3753
-26.7079
-27.062
-27.4457
-27.8584
-28.2899
-28.7209
-29.1261
-29.4771
-29.7458
-29.9073
-29.9431
-29.843
-29.6049
-29.2338
-28.7387
-28.1298
-27.4162
-26.6028
-25.6886
-24.6681
-23.5355
-22.2923
-20.9543
-19.5566
-18.1496
26.4878
27.303
27.0643
26.0508
24.5568
22.8258
21.0305
19.2785
17.6259
16.0911
14.6694
13.3442
12.0947
10.9005
9.74431
8.6133
7.49999
6.4015
5.31796
4.25078
3.20139
2.17055
1.15831
0.164417
-0.811016
-1.76695
-2.70109
-3.61
-4.48959
-5.33618
-6.14787
-6.92579
-7.67455
-8.40174
-9.11708
-9.83133
-10.5548
-11.2952
-12.0547
-12.8285
-13.6057
-14.3719
-15.1114
-15.8096
-16.4557
-17.0446
-17.5796
-18.0715
-18.537
-18.9959
-19.4686
-19.9738
-20.5244
-21.1239
-21.7638
-22.426
-23.0868
-23.7214
-24.3072
-24.8268
-25.2725
-25.6477
-25.9675
-26.2546
-26.5362
-26.84
-27.191
-27.6059
-28.0878
-28.6226
-29.1816
-29.7272
-30.2178
-30.6119
-30.8732
-30.9753
-30.9058
-30.6667
-30.27
-29.7335
-29.076
-28.3137
-27.4548
-26.494
-25.4114
-24.1827
-22.792
-21.248
-19.6001
-17.933
32.3888
32.9207
31.888
29.8812
27.4181
24.8568
22.4081
20.1765
18.1947
16.4474
14.8957
13.4946
12.2013
10.9795
9.80066
8.64501
7.50277
6.37262
5.2575
4.16146
3.08727
2.03573
1.00559
-0.00516089
-0.99789
-1.97224
-2.92527
-3.85156
-4.74373
-5.59427
-6.39804
-7.15542
-7.87304
-8.56229
-9.2379
-9.91692
-10.6172
-11.354
-12.1337
-12.948
-13.7784
-14.6012
-15.3916
-16.1255
-16.7837
-17.356
-17.8464
-18.2729
-18.6619
-19.0441
-19.4514
-19.9149
-20.4595
-21.0944
-21.8043
-22.5577
-23.3161
-24.0403
-24.6938
-25.2479
-25.6874
-26.0179
-26.2652
-26.4665
-26.6647
-26.9041
-27.2277
-27.6692
-28.2408
-28.92
-29.6613
-30.4074
-31.097
-31.669
-32.0681
-32.2542
-32.2127
-31.9551
-31.5074
-30.9021
-30.1727
-29.35
-28.4533
-27.4743
-26.365
-25.0628
-23.5122
-21.6912
-19.6708
-17.6118
41.1133
40.7907
38.1138
34.3676
30.4202
26.7248
23.4727
20.7145
18.4256
16.5218
14.9051
13.4892
12.2045
10.9965
9.8233
8.65712
7.48792
6.32187
5.16935
4.04048
2.94039
1.86993
0.82483
-0.200793
-1.21132
-2.2083
-3.18799
-4.14231
-5.05785
-5.91974
-6.71499
-7.44231
-8.11236
-8.74244
-9.35378
-9.97183
-10.6269
-11.351
-12.1627
-13.0442
-13.9617
-14.8772
-15.7529
-16.5503
-17.2353
-17.785
-18.205
-18.528
-18.7965
-19.0559
-19.353
-19.739
-20.2645
-20.9567
-21.7819
-22.6819
-23.5944
-24.4607
-25.2235
-25.8336
-26.2588
-26.5079
-26.6289
-26.6826
-26.7335
-26.8468
-27.094
-27.5451
-28.2383
-29.1279
-30.1338
-31.1684
-32.1454
-32.9747
-33.5696
-33.8602
-33.8305
-33.5167
-32.9713
-32.2491
-31.4035
-30.4926
-29.5701
-28.6419
-27.5961
-26.3003
-24.6217
-22.4212
-19.7969
-17.1025
54.904
52.0503
45.8792
39.143
33.0586
27.9536
23.8256
20.5759
18.1016
16.1822
14.6248
13.2946
12.0971
10.9631
9.83553
8.67333
7.46827
6.25142
5.04693
3.87784
2.75068
1.66747
0.615885
-0.418271
-1.44438
-2.46931
-3.48733
-4.48892
-5.44928
-6.34119
-7.12976
-7.81167
-8.40922
-8.94952
-9.45996
-9.97331
-10.5373
-11.2217
-12.0913
-13.0882
-14.148
-15.2102
-16.2267
-17.1368
-17.8815
-18.4008
-18.7031
-18.8614
-18.9441
-19.0132
-19.1263
-19.3621
-19.8292
-20.6273
-21.6513
-22.788
-23.9389
-25.0297
-25.9729
-26.6852
-27.0834
-27.182
-27.0889
-26.9027
-26.7118
-26.5965
-26.6665
-27.0721
-27.9528
-29.1677
-30.5647
-32.012
-33.4062
-34.6174
-35.5087
-35.9271
-35.8573
-35.4111
-34.6895
-33.7733
-32.7279
-31.6514
-30.6948
-29.9783
-29.187
-28.0885
-26.4824
-23.7611
-20.0237
-16.205
78.9195
68.086
54.4578
42.9804
34.2864
27.7755
22.9133
19.3205
16.9784
15.3212
14.0172
12.9084
11.8981
10.9199
9.89749
8.75103
7.46541
6.16302
4.87338
3.65472
2.49756
1.41937
0.381772
-0.647406
-1.67918
-2.74034
-3.81036
-4.89492
-5.93929
-6.91145
-7.69812
-8.30248
-8.78848
-9.19956
-9.56191
-9.90186
-10.274
-10.8258
-11.8366
-13.0414
-14.3309
-15.6088
-16.8539
-17.9611
-18.8522
-19.329
-19.4083
-19.3035
-19.1111
-18.907
-18.7228
-18.652
-18.9171
-19.9722
-21.3584
-22.8735
-24.3699
-25.811
-27.0547
-27.9886
-28.3393
-28.1317
-27.683
-27.1293
-26.5811
-26.0789
-25.7553
-25.9149
-27.1856
-28.9451
-30.9231
-32.9315
-34.9301
-36.7205
-38.1283
-38.6967
-38.4255
-37.7021
-36.6876
-35.4833
-34.0968
-32.6373
-31.4732
-31.4224
-31.2199
-30.6075
-29.9487
-26.564
-20.3673
-14.3884
126.599
88.1448
59.9377
42.8089
32.3698
25.2227
20.1726
16.2639
14.8684
13.9511
13.1284
12.3801
11.6526
10.9403
10.1377
9.02884
7.48645
6.05602
4.59742
3.34282
2.13059
1.11268
0.135419
-0.872903
-1.87174
-2.99865
-4.11252
-5.35884
-6.53329
-7.74881
-8.52901
-8.96371
-9.27558
-9.51974
-9.69605
-9.78397
-9.75202
-9.76887
-11.3021
-12.8728
-14.5303
-16.0544
-17.6795
-19.0962
-20.4196
-20.8291
-20.3784
-19.8715
-19.2946
-18.772
-18.156
-17.4578
-16.8674
-18.8401
-20.8796
-22.9855
-24.8802
-26.8761
-28.5825
-30.1314
-30.3989
-29.4285
-28.4277
-27.3478
-26.3838
-25.3039
-24.1482
-23.1572
-25.7145
-28.4073
-31.2372
-33.8648
-36.7534
-39.3742
-41.9564
-42.6747
-41.6445
-40.4117
-38.9585
-37.4551
-35.5703
-33.1976
-30.6481
-33.0844
-33.8426
-33.1931
-37.3397
-33.416
-20.3969
-10.1635
236.995
93.447
49.464
33.0035
25.7123
19.6498
15.788
9.5882
12.0693
12.4445
12.1322
11.8215
11.385
11.0904
10.8187
9.93066
7.34606
5.98938
4.02755
2.96979
1.48369
0.747362
-0.0662877
-1.11211
-1.87995
-3.2758
-4.22397
-5.92626
-7.06817
-9.21304
-9.85739
-9.80177
-9.86015
-9.93757
-9.95742
-9.83863
-9.15968
-6.52829
-10.7135
-12.5792
-14.9215
-16.3545
-18.8051
-20.3655
-23.3028
-23.568
-21.4292
-20.54
-19.3999
-18.7712
-17.7073
-16.1081
-11.1265
-17.6117
-20.3051
-23.4014
-25.2444
-28.3578
-30.3368
-34.1192
-34.2407
-30.7686
-29.286
-27.3992
-26.3531
-24.6378
-22.3035
-15.2897
-24.0479
-27.672
-31.842
-34.422
-38.962
-42.0832
-48.4679
-49.1702
-45.1547
-43.4382
-41.3011
-39.976
-37.7461
-34.0122
-22.6429
-37.1628
-38.4917
-28.8721
-56.3516
-53.3649
-16.4149
0.502205
-17.7007
-16.7358
-15.8124
-14.9431
-14.1378
-13.4034
-12.7443
-12.1624
-11.658
-11.2305
-10.8781
-10.5992
-10.3919
-10.2546
-10.1863
-17.6744
-16.6942
-15.758
-14.8789
-14.0667
-13.3281
-12.6669
-12.0846
-11.5811
-11.1551
-10.8046
-10.5275
-10.3217
-10.1856
-10.1178
-17.62
-16.6085
-15.6464
-14.7476
-13.9219
-13.1752
-12.5104
-11.928
-11.4266
-11.0041
-10.6576
-10.3843
-10.1818
-10.048
-9.98152
-17.5334
-16.4731
-15.4714
-14.5432
-13.6978
-12.9402
-12.2714
-11.6901
-11.1932
-10.7768
-10.4371
-10.1703
-9.97312
-9.84312
-9.77855
-17.4078
-16.279
-15.2229
-14.2556
-13.3858
-12.6161
-11.9449
-11.3677
-10.879
-10.4729
-10.1437
-9.88646
-9.69714
-9.57264
-9.51091
-17.2329
-16.0118
-14.8853
-13.8703
-12.9735
-12.1935
-11.5241
-10.9567
-10.4822
-10.0919
-9.77817
-9.53461
-9.35621
-9.23929
-9.18143
-16.9921
-15.65
-14.4359
-13.3668
-12.4443
-11.6602
-11.0011
-10.4527
-10.0011
-9.63426
-9.34235
-9.11748
-8.9537
-8.84677
-8.79397
-16.6594
-15.1601
-13.8413
-12.7165
-11.7767
-11.0016
-10.3674
-9.85169
-9.43498
-9.10161
-8.83939
-8.63916
-8.49425
-8.40003
-8.35362
-16.1918
-14.4894
-13.0526
-11.881
-10.9442
-10.2019
-9.6152
-9.15156
-8.78544
-8.49769
-8.27434
-8.10543
-7.98399
-7.90539
-7.86676
-15.5131
-13.553
-11.9986
-10.8106
-9.91713
-9.24638
-8.73983
-8.35383
-8.05743
-7.82927
-7.65477
-7.52412
-7.43082
-7.37067
-7.34118
-14.4799
-12.2107
-10.5779
-9.44573
-8.66719
-8.12662
-7.7438
-7.46639
-7.26111
-7.10709
-6.99124
-6.90538
-6.84441
-6.80522
-6.78602
-12.8056
-10.2319
-8.65652
-7.72703
-7.17919
-6.849
-6.6423
-6.50672
-6.41345
-6.34665
-6.29765
-6.26168
-6.23615
-6.21968
-6.2116
-9.88834
-7.25488
-6.08911
-5.62659
-5.47345
-5.44781
-5.4696
-5.50467
-5.53923
-5.56836
-5.59096
-5.60746
-5.61874
-5.6257
-5.62901
-4.43648
-2.81
-2.81837
-3.21672
-3.64013
-3.99915
-4.28356
-4.50309
-4.67037
-4.79652
-4.89031
-4.95839
-5.0056
-5.03532
-5.04966
6.30174
3.26976
0.842402
-0.781762
-1.87118
-2.62505
-3.16234
-3.55369
-3.8426
-4.05698
-4.21532
-4.33013
-4.40989
-4.46024
-4.4846
-36.7789
-36.8395
-36.9657
-37.1685
-37.4665
-37.8897
-38.4861
-39.3356
-40.5801
-42.4979
-45.7224
-52.0101
-67.4615
-118.073
-332.725
-39.5796
-39.6985
-39.9462
-40.3441
-40.9294
-41.7621
-42.9404
-44.6289
-47.1182
-50.9578
-57.2727
-68.5583
-90.6257
-136.178
-219.461
-42.2978
-42.4682
-42.8225
-43.3899
-44.2205
-45.3945
-47.0404
-49.3661
-52.7188
-57.6987
-65.371
-77.6193
-97.4814
-128.08
-164.031
-44.8978
-45.1103
-45.5509
-46.2531
-47.2731
-48.6995
-50.6685
-53.3901
-57.1894
-62.5701
-70.2916
-81.3925
-96.8809
-116.267
-133.565
-47.3503
-47.5941
-48.0979
-48.8956
-50.0436
-51.6276
-53.7741
-56.6658
-60.5619
-65.816
-72.8652
-82.1187
-93.5739
-105.903
-115.113
-49.6336
-49.8976
-50.4408
-51.2949
-52.5113
-54.1652
-56.3622
-59.2439
-62.9915
-67.8154
-73.9082
-81.3157
-89.66
-97.7038
-103.056
-51.7336
-52.0072
-52.5678
-53.4428
-54.6752
-56.3259
-58.4748
-61.2206
-64.6737
-68.9337
-74.0383
-79.8619
-85.9546
-91.374
-94.716
-53.6436
-53.9177
-54.4766
-55.3425
-56.5488
-58.1405
-60.1728
-62.7063
-65.7954
-69.4654
-73.6692
-78.2213
-82.7167
-86.4867
-88.6966
-55.3635
-55.6303
-56.1723
-57.0058
-58.1547
-59.6493
-61.5229
-63.806
-66.5137
-69.6263
-73.0583
-76.6199
-79.9825
-82.6827
-84.2117
-56.898
-57.152
-57.6657
-58.4501
-59.5206
-60.8948
-62.5888
-64.6108
-66.9509
-69.5654
-72.3575
-75.1566
-77.7082
-79.6921
-80.7885
-58.2563
-58.4934
-58.9711
-59.6958
-60.6757
-61.9182
-63.4268
-65.1948
-67.1974
-69.3811
-71.6517
-73.8652
-75.8282
-77.3177
-78.1267
-59.4499
-59.6677
-60.105
-60.7644
-61.6483
-62.757
-64.0848
-65.6159
-67.3182
-69.1364
-70.9855
-72.7476
-74.2768
-75.4158
-76.0265
-60.4923
-60.6897
-61.0846
-61.677
-62.465
-63.4436
-64.6016
-65.9181
-67.3585
-68.8704
-70.3797
-71.7918
-72.9964
-73.8808
-74.3505
-61.3977
-61.5745
-61.9273
-62.4537
-63.1493
-64.0056
-65.0082
-66.1342
-67.3493
-68.6059
-69.8415
-70.9802
-71.9382
-72.6339
-73.0005
-62.1803
-62.3371
-62.6493
-63.113
-63.7221
-64.4661
-65.3292
-66.2883
-67.3113
-68.3561
-69.3705
-70.2939
-71.0623
-71.6153
-71.9051
-62.854
-62.992
-63.2659
-63.6715
-64.2012
-64.8439
-65.5836
-66.3981
-67.2582
-68.1275
-68.9626
-69.7152
-70.3359
-70.7795
-71.0109
-63.4319
-63.5524
-63.7913
-64.1437
-64.6018
-65.1545
-65.786
-66.4761
-67.1987
-67.9226
-68.6119
-69.2281
-69.7326
-70.0911
-70.2774
-63.9261
-64.0308
-64.2378
-64.5424
-64.9368
-65.4101
-65.9479
-66.5315
-67.1383
-67.7417
-68.3121
-68.8184
-69.2306
-69.5222
-69.6733
-64.3476
-64.438
-64.6167
-64.8788
-65.217
-65.6211
-66.0779
-66.5708
-67.0802
-67.5836
-68.0566
-68.4742
-68.8125
-69.0508
-69.1741
-64.7062
-64.7841
-64.9376
-65.1623
-65.4514
-65.7955
-66.1828
-66.5987
-67.0264
-67.4467
-67.8397
-68.1851
-68.4637
-68.6594
-68.7604
-65.0108
-65.0776
-65.209
-65.4011
-65.6475
-65.94
-66.2679
-66.6185
-66.9775
-67.3288
-67.6559
-67.9422
-68.1724
-68.3338
-68.4169
-65.2691
-65.3262
-65.4384
-65.6021
-65.8118
-66.0598
-66.3371
-66.6326
-66.9339
-67.2278
-67.5004
-67.7383
-67.929
-68.0624
-68.131
-65.4878
-65.5364
-65.632
-65.7713
-65.9493
-66.1594
-66.3936
-66.6425
-66.8955
-67.1416
-67.3691
-67.567
-67.7255
-67.836
-67.8929
-65.6727
-65.7141
-65.7954
-65.9136
-66.0645
-66.2423
-66.44
-66.6495
-66.8621
-67.0681
-67.2582
-67.4233
-67.5551
-67.647
-67.6942
-65.8289
-65.864
-65.933
-66.0333
-66.161
-66.3113
-66.4781
-66.6545
-66.8331
-67.0058
-67.1648
-67.3026
-67.4125
-67.489
-67.5282
-65.9606
-65.9904
-66.0489
-66.1339
-66.2419
-66.3689
-66.5096
-66.6581
-66.8081
-66.9529
-67.0861
-67.2013
-67.293
-67.3568
-67.3895
-66.0717
-66.097
-66.1465
-66.2184
-66.3097
-66.4169
-66.5355
-66.6606
-66.7867
-66.9083
-67.0198
-67.1162
-67.1929
-67.2462
-67.2735
-66.1652
-66.1866
-66.2286
-66.2893
-66.3666
-66.457
-66.5571
-66.6624
-66.7684
-66.8705
-66.9641
-67.0449
-67.1091
-67.1537
-67.1765
-66.2439
-66.262
-66.2975
-66.3489
-66.4142
-66.4905
-66.5749
-66.6636
-66.7529
-66.8387
-66.9173
-66.9851
-67.0389
-67.0762
-67.0954
-66.3101
-66.3254
-66.3554
-66.3989
-66.454
-66.5185
-66.5897
-66.6645
-66.7397
-66.8119
-66.878
-66.9349
-66.9801
-67.0115
-67.0275
-66.3656
-66.3785
-66.4039
-66.4407
-66.4874
-66.5419
-66.602
-66.6651
-66.7285
-66.7894
-66.845
-66.8929
-66.9309
-66.9573
-66.9708
-66.412
-66.423
-66.4446
-66.4757
-66.5152
-66.5614
-66.6122
-66.6656
-66.7191
-66.7705
-66.8174
-66.8578
-66.8899
-66.9121
-66.9234
-66.4509
-66.4602
-66.4785
-66.505
-66.5385
-66.5776
-66.6207
-66.6659
-66.7112
-66.7547
-66.7944
-66.8285
-66.8556
-66.8744
-66.884
-66.4833
-66.4912
-66.5068
-66.5293
-66.5578
-66.5911
-66.6277
-66.6661
-66.7046
-66.7415
-66.7752
-66.8042
-66.8271
-66.843
-66.8511
-66.5101
-66.5169
-66.5302
-66.5494
-66.5738
-66.6022
-66.6335
-66.6663
-66.6991
-66.7306
-66.7593
-66.784
-66.8035
-66.8171
-66.824
-66.5322
-66.5381
-66.5495
-66.5661
-66.587
-66.6114
-66.6383
-66.6664
-66.6946
-66.7216
-66.7462
-66.7673
-66.7841
-66.7957
-66.8016
-66.5503
-66.5554
-66.5653
-66.5796
-66.5977
-66.6189
-66.6421
-66.6665
-66.6908
-66.7142
-66.7355
-66.7538
-66.7682
-66.7783
-66.7834
-66.5649
-66.5693
-66.578
-66.5905
-66.6064
-66.6249
-66.6452
-66.6665
-66.6878
-66.7083
-66.7269
-66.7428
-66.7555
-66.7642
-66.7687
-66.5764
-66.5803
-66.588
-66.5991
-66.6132
-66.6296
-66.6477
-66.6666
-66.6855
-66.7036
-66.7201
-66.7342
-66.7454
-66.7532
-66.7571
-66.5851
-66.5887
-66.5956
-66.6057
-66.6184
-66.6332
-66.6495
-66.6666
-66.6837
-66.7
-66.7149
-66.7276
-66.7378
-66.7448
-66.7483
-66.5914
-66.5947
-66.6011
-66.6104
-66.6222
-66.6358
-66.6509
-66.6666
-66.6824
-66.6974
-66.7111
-66.7229
-66.7323
-66.7387
-66.742
-66.5954
-66.5986
-66.6046
-66.6134
-66.6245
-66.6375
-66.6517
-66.6666
-66.6815
-66.6958
-66.7088
-66.7199
-66.7287
-66.7349
-66.738
-66.5973
-66.6003
-66.6063
-66.6148
-66.6256
-66.6383
-66.6521
-66.6666
-66.6811
-66.695
-66.7077
-66.7185
-66.7271
-66.7331
-66.7361
-66.5971
-66.6001
-66.606
-66.6146
-66.6255
-66.6382
-66.6521
-66.6666
-66.6812
-66.6951
-66.7078
-66.7187
-66.7273
-66.7333
-66.7364
-66.5947
-66.5978
-66.604
-66.6129
-66.6241
-66.6372
-66.6516
-66.6666
-66.6817
-66.6961
-66.7092
-66.7205
-66.7294
-66.7356
-66.7387
-66.5902
-66.5935
-66.6
-66.6095
-66.6214
-66.6353
-66.6506
-66.6666
-66.6826
-66.6979
-66.7119
-66.7239
-66.7333
-66.7399
-66.7433
-66.5833
-66.587
-66.5941
-66.6043
-66.6173
-66.6325
-66.6492
-66.6666
-66.684
-66.7007
-66.7159
-66.729
-66.7393
-66.7465
-66.7501
-66.574
-66.578
-66.5859
-66.5973
-66.6118
-66.6286
-66.6472
-66.6666
-66.686
-66.7046
-66.7215
-66.736
-66.7475
-66.7555
-66.7596
-66.5618
-66.5663
-66.5753
-66.5882
-66.6046
-66.6236
-66.6446
-66.6665
-66.6885
-66.7095
-66.7287
-66.7452
-66.7582
-66.7672
-66.7718
-66.5464
-66.5517
-66.5619
-66.5767
-66.5954
-66.6173
-66.6413
-66.6665
-66.6917
-66.7158
-66.7378
-66.7567
-66.7716
-66.782
-66.7873
-66.5274
-66.5335
-66.5453
-66.5625
-66.5842
-66.6095
-66.6373
-66.6664
-66.6956
-66.7235
-66.749
-66.7709
-66.7882
-66.8002
-66.8064
-66.5043
-66.5113
-66.5251
-66.5451
-66.5704
-66.5999
-66.6323
-66.6663
-66.7004
-66.733
-66.7628
-66.7883
-66.8086
-66.8226
-66.8298
-66.4762
-66.4844
-66.5006
-66.524
-66.5536
-66.5882
-66.6263
-66.6662
-66.7061
-66.7444
-66.7794
-66.8094
-66.8332
-66.8497
-66.8581
-66.4423
-66.4521
-66.4711
-66.4986
-66.5335
-66.5742
-66.619
-66.666
-66.7131
-66.7582
-66.7994
-66.8349
-66.8629
-66.8824
-66.8924
-66.4018
-66.4132
-66.4357
-66.4681
-66.5092
-66.5573
-66.6102
-66.6657
-66.7213
-66.7747
-66.8235
-66.8654
-66.8987
-66.9217
-66.9335
-66.3533
-66.3668
-66.3933
-66.4316
-66.4802
-66.537
-66.5996
-66.6653
-66.7312
-66.7945
-66.8523
-66.902
-66.9415
-66.9688
-66.9828
-66.2953
-66.3113
-66.3426
-66.388
-66.4455
-66.5127
-66.5868
-66.6647
-66.7429
-66.818
-66.8866
-66.9458
-66.9927
-67.0252
-67.0418
-66.2263
-66.2452
-66.2823
-66.3359
-66.404
-66.4836
-66.5715
-66.6639
-66.7567
-66.846
-66.9276
-66.998
-67.0538
-67.0926
-67.1124
-66.1442
-66.1666
-66.2104
-66.2739
-66.3545
-66.4488
-66.5531
-66.6627
-66.7731
-66.8792
-66.9765
-67.0603
-67.1269
-67.1731
-67.1968
-66.0466
-66.073
-66.1248
-66.1999
-66.2953
-66.4072
-66.5309
-66.6611
-66.7923
-66.9187
-67.0346
-67.1346
-67.2141
-67.2693
-67.2976
-65.9306
-65.9618
-66.023
-66.1119
-66.2248
-66.3574
-66.5041
-66.6589
-66.8149
-66.9655
-67.1037
-67.2231
-67.3181
-67.3842
-67.4181
-65.7929
-65.8298
-65.9021
-66.0071
-66.1407
-66.2977
-66.4718
-66.6556
-66.8414
-67.0208
-67.1858
-67.3286
-67.4423
-67.5214
-67.562
-65.6297
-65.6731
-65.7584
-65.8824
-66.0404
-66.2263
-66.4327
-66.6511
-66.8722
-67.0862
-67.2833
-67.4542
-67.5905
-67.6854
-67.7341
-65.4363
-65.4874
-65.5879
-65.734
-65.9206
-66.1405
-66.3852
-66.6447
-66.908
-67.1634
-67.3991
-67.6039
-67.7675
-67.8815
-67.9401
-65.2074
-65.2675
-65.3856
-65.5577
-65.7777
-66.0376
-66.3275
-66.6356
-66.9492
-67.2542
-67.5364
-67.7821
-67.9788
-68.1161
-68.1867
-64.9368
-65.0072
-65.1458
-65.3481
-65.6072
-65.9139
-66.257
-66.6229
-66.9963
-67.3607
-67.699
-67.9943
-68.2313
-68.3971
-68.4824
-64.6172
-64.6996
-64.8619
-65.099
-65.4035
-65.765
-66.1707
-66.6049
-67.0497
-67.4855
-67.8915
-68.2471
-68.5333
-68.7339
-68.8373
-64.2405
-64.3365
-64.5259
-64.8032
-65.1602
-65.5855
-66.0645
-66.5795
-67.1094
-67.6309
-68.1189
-68.5481
-68.8946
-69.1382
-69.2639
-63.7972
-63.9087
-64.1289
-64.4521
-64.8695
-65.3687
-65.9335
-66.5437
-67.175
-67.7996
-68.3872
-68.9065
-69.3275
-69.6243
-69.7779
-63.2764
-63.4053
-63.6603
-64.0356
-64.5219
-65.1063
-65.7709
-66.4932
-67.2452
-67.994
-68.7029
-69.333
-69.8465
-70.21
-70.3985
-62.6662
-62.8144
-63.1082
-63.5419
-64.1064
-64.7881
-65.5683
-66.4221
-67.3176
-68.2162
-69.0733
-69.8406
-70.4697
-70.9172
-71.1499
-61.953
-62.1225
-62.4589
-62.9575
-63.6094
-64.4015
-65.3147
-66.3219
-67.3878
-68.4672
-69.5061
-70.4441
-71.219
-71.7734
-72.0629
-61.1223
-61.3145
-61.6972
-62.2665
-63.0151
-63.931
-64.9956
-66.1811
-67.4486
-68.7462
-70.0089
-71.161
-72.1215
-72.8137
-73.1768
-60.158
-60.3743
-60.806
-61.451
-62.3045
-63.3573
-64.5926
-65.9834
-67.4886
-69.0495
-70.5886
-72.0107
-73.2101
-74.0825
-74.5429
-59.0437
-59.2845
-59.7666
-60.4907
-61.4557
-62.6567
-64.0816
-65.7063
-67.4898
-69.3679
-71.2494
-73.0152
-74.5258
-75.6374
-76.2286
-57.7622
-58.0271
-58.5594
-59.3632
-60.443
-61.8007
-63.4317
-65.319
-67.4253
-69.684
-71.9904
-74.1969
-76.1184
-77.5538
-78.3248
-56.2967
-56.5841
-57.1635
-58.0441
-59.2374
-60.755
-62.604
-64.7796
-67.255
-69.967
-72.8008
-75.5765
-78.0487
-79.9314
-80.9563
-54.6318
-54.9382
-55.5586
-56.5078
-57.8065
-59.4792
-61.5494
-64.0321
-66.9203
-70.1655
-73.6515
-77.1667
-80.3883
-82.9045
-84.2995
-52.7542
-53.0744
-53.7255
-54.7289
-56.116
-57.9273
-60.2084
-63.0029
-66.3376
-70.1967
-74.482
-78.9606
-83.2178
-86.6563
-88.6114
-50.6542
-50.9808
-51.6479
-52.6836
-54.1311
-56.0492
-58.5109
-61.5987
-65.3908
-69.9319
-75.178
-80.9084
-86.6156
-91.4381
-94.2808
-48.3276
-48.6509
-49.3144
-50.3523
-51.8194
-53.7935
-56.3786
-59.7054
-63.9239
-69.1775
-75.5378
-82.8721
-90.6277
-97.5946
-101.924
-45.7765
-46.085
-46.7208
-47.7231
-49.1558
-51.1137
-53.7314
-57.1928
-61.7382
-67.6547
-75.221
-84.5431
-95.1875
-105.582
-112.574
-43.0112
-43.292
-43.8729
-44.7951
-46.1275
-47.9758
-50.4982
-53.9275
-58.6002
-64.9861
-73.685
-85.2956
-99.9207
-115.933
-128.08
-40.051
-40.2906
-40.788
-41.5825
-42.7409
-44.3698
-46.6355
-49.7988
-54.2727
-60.7111
-70.127
-83.9548
-103.691
-128.966
-152.02
-36.9246
-37.1104
-37.4969
-38.1171
-39.0278
-40.3217
-42.1493
-44.7601
-48.5809
-54.3686
-63.5051
-78.5111
-103.613
-143.543
-191.97
-33.6694
-33.7909
-34.0438
-34.4503
-35.0487
-35.903
-37.1194
-38.8813
-41.5232
-45.7006
-52.8073
-66.0565
-93.2375
-152.219
-265.549
-30.3301
-30.3802
-30.4842
-30.6502
-30.8922
-31.233
-31.7108
-32.3914
-33.3994
-34.9984
-37.8439
-43.9271
-60.7782
-123.153
-417.828
-26.9561
-26.9324
-26.8818
-26.7976
-26.6671
-26.4681
-26.1614
-25.6744
-24.8654
-23.4309
-20.6324
-14.3203
3.29444
67.2348
363.956
-23.5988
-23.5033
-23.303
-22.9773
-22.4897
-21.7782
-20.7373
-19.1812
-16.7661
-12.811
-5.86122
7.43735
35.1963
95.968
213.102
-20.3081
-20.1472
-19.8114
-19.2697
-18.468
-17.3172
-15.6711
-13.2849
-9.73649
-4.27121
4.50062
19.1528
44.172
85.5593
143.598
20.2979
8.2886
3.46184
0.960106
-0.557198
-1.56396
-2.2683
-2.77727
-3.1521
-3.4304
-3.63643
-3.7863
-3.89075
-3.95686
-3.9889
12.8342
7.86323
4.22851
1.85998
0.282788
-0.809327
-1.59121
-2.16458
-2.59137
-2.91093
-3.14915
-3.32341
-3.44541
-3.52287
-3.56049
8.82249
6.50984
4.11585
2.21031
0.78591
-0.270135
-1.05889
-1.65366
-2.10508
-2.44793
-2.70627
-2.89677
-3.03096
-3.11652
-3.15818
6.4167
5.21287
3.66396
2.22649
1.03322
0.0834404
-0.661279
-1.24228
-1.69417
-2.0436
-2.31046
-2.50923
-2.65026
-2.74064
-2.78476
4.84686
4.1555
3.13465
2.07307
1.11144
0.29461
-0.377356
-0.920555
-1.35438
-1.69661
-1.96192
-2.16177
-2.30473
-2.39684
-2.44197
3.75709
3.32691
2.63359
1.85021
1.0891
0.405174
-0.182853
-0.674773
-1.0782
-1.40302
-1.65881
-1.85379
-1.99448
-2.08567
-2.13049
2.96602
2.68103
2.19505
1.61188
1.01316
0.449134
-0.05509
-0.490438
-0.856598
-1.15736
-1.39792
-1.5835
-1.71858
-1.80667
-1.85012
2.37285
2.17469
1.824
1.38434
0.913106
0.451564
0.0248424
-0.354146
-0.680406
-0.953489
-1.17521
-1.34825
-1.47531
-1.55866
-1.59992
1.91727
1.77426
1.51471
1.17871
0.806316
0.429809
0.0716264
-0.254467
-0.541135
-0.785278
-0.986305
-1.14493
-1.26237
-1.33986
-1.37835
1.56098
1.45474
1.25851
0.998341
0.702377
0.395324
0.0961257
-0.182165
-0.431393
-0.647
-0.826834
-0.970198
-1.07717
-1.14814
-1.1835
1.27845
1.19772
1.04668
0.842826
0.606131
0.355382
0.106105
-0.130044
-0.344994
-0.53356
-0.692682
-0.82073
-0.916962
-0.981129
-1.0132
1.05198
0.989508
0.871533
0.710108
0.51964
0.314415
0.106967
-0.0926449
-0.276913