/*--------------------------------*- C++ -*----------------------------------*\
| =========                 |                                                 |
| \\      /  F ield         | OpenFOAM: The Open Source CFD Toolbox           |
|  \\    /   O peration     | Version:  5.x                                   |
|   \\  /    A nd           | Web:      www.OpenFOAM.org                      |
|    \\/     M anipulation  |                                                 |
\*---------------------------------------------------------------------------*/
FoamFile
{
    version     2.0;
    format      ascii;
    class       volScalarField;
    location    "4";
    object      gradTx;
}
// * * * * * * * * * * * * * * * * * * * * * * * * * * * * * * * * * * * * * //

dimensions      [0 -1 0 1 0 0 0];

internalField   nonuniform List<scalar> 
6300
(
186.347
187.245
189.021
191.635
195.023
199.094
203.725
208.76
214.005
219.23
224.176
228.562
232.108
234.548
235.661
185.447
186.364
188.181
190.859
194.338
198.53
203.319
208.547
214.021
219.506
224.732
229.401
233.21
235.872
237.145
183.627
184.581
186.476
189.278
192.935
197.369
202.469
208.086
214.024
220.04
225.84
231.096
235.456
238.582
240.187
180.849
181.856
183.861
186.84
190.754
195.539
201.1
207.3
213.946
220.785
227.492
233.683
238.931
242.812
244.952
177.061
178.132
180.269
183.465
187.698
192.929
199.089
206.064
213.674
221.658
229.657
237.208
243.772
248.778
251.713
172.2
173.337
175.617
179.05
183.641
189.388
196.262
204.19
213.024
222.514
232.265
241.719
250.168
256.811
260.897
166.199
167.397
169.811
173.473
178.426
184.717
192.378
201.405
211.718
223.106
235.166
247.234
258.365
267.397
273.162
158.997
160.239
162.754
166.602
171.871
178.673
187.126
197.332
209.332
223.024
238.055
253.682
268.658
281.247
289.531
150.551
151.806
154.361
158.307
163.782
170.975
180.117
191.463
205.251
221.599
240.345
260.779
281.334
299.398
311.657
140.848
142.071
144.575
148.48
153.973
161.326
170.9
183.151
198.606
217.775
240.944
267.752
296.496
323.351
342.339
129.919
131.053
133.387
137.061
142.303
149.454
159.005
171.634
188.243
209.946
237.902
272.787
313.542
355.167
386.669
117.854
118.833
120.858
124.073
128.72
135.18
144.028
156.133
172.785
195.862
227.927
271.947
329.713
397.102
454.821
104.808
105.565
107.136
109.649
113.324
118.515
125.794
136.082
150.9
172.787
205.995
257.356
336.259
448.701
569.835
91.0037
91.4797
92.4708
94.0631
96.4084
99.761
104.547
111.5
121.943
138.389
165.906
215.22
309.263
491.601
793.111
76.7217
76.8782
77.2028
77.7222
78.4843
79.572
81.1309
83.427
86.9812
92.9187
104.017
128.353
193.968
415.326
1323.47
235.438
234.038
231.54
227.972
223.391
217.88
211.535
204.458
196.753
188.518
179.841
170.804
161.476
151.919
142.188
132.331
122.395
112.42
102.445
92.5082
82.6433
72.8823
63.254
53.784
44.4945
35.404
26.5274
17.8758
9.45732
1.27651
-6.66469
-14.3668
-21.8324
-29.0654
-36.0705
-42.8529
-49.4175
-55.7687
-61.9103
-67.8454
-73.5767
-79.1067
-84.4385
-89.5756
-94.523
-99.287
-103.875
-108.296
-112.558
-116.67
-120.641
-124.477
-128.181
-131.757
-135.203
-138.518
-141.699
-144.741
-147.641
-150.396
-153.003
-155.461
-157.77
-159.927
-161.93
-163.774
-165.451
-166.949
-168.25
-169.333
-170.173
-170.743
-171.014
-170.957
-170.546
-169.757
-168.571
-166.972
-164.954
-162.514
-159.656
-156.393
-152.742
-148.73
-144.392
-139.771
-134.916
-129.886
-124.744
-119.557
237.003
235.616
233.079
229.426
224.728
219.078
212.584
205.36
197.514
189.15
180.359
171.22
161.803
152.168
142.366
132.445
122.448
112.417
102.389
92.403
82.4924
72.6899
63.0248
53.5231
44.2071
35.0953
26.2025
17.5397
9.11449
0.931075
-7.00925
-14.7077
-22.1676
-29.3936
-36.3913
-43.1665
-49.7246
-56.0703
-62.2073
-68.1386
-73.8661
-79.3918
-84.7181
-89.8481
-94.7866
-99.5397
-104.115
-108.523
-112.772
-116.873
-120.835
-124.664
-128.366
-131.941
-135.391
-138.711
-141.897
-144.944
-147.849
-150.607
-153.216
-155.675
-157.986
-160.147
-162.157
-164.013
-165.708
-167.23
-168.561
-169.68
-170.56
-171.171
-171.483
-171.465
-171.088
-170.327
-169.161
-167.575
-165.559
-163.113
-160.239
-156.948
-153.259
-149.198
-144.798
-140.104
-135.166
-130.045
-124.807
-119.523
240.213
238.847
236.22
232.383
227.433
221.488
214.684
207.152
199.019
190.394
181.373
172.034
162.443
152.654
142.713
132.666
122.55
112.406
102.273
92.1869
82.1843
72.2982
62.5592
52.9937
43.6246
34.4704
25.5456
16.8609
8.42295
0.235153
-7.70241
-15.3924
-22.8396
-30.0506
-37.0325
-43.7925
-50.3373
-56.672
-62.8004
-68.7246
-74.4456
-79.9637
-85.2798
-90.3959
-95.3162
-100.047
-104.597
-108.977
-113.2
-117.276
-121.219
-125.035
-128.73
-132.307
-135.763
-139.094
-142.293
-145.352
-148.266
-151.03
-153.642
-156.103
-158.415
-160.581
-162.604
-164.483
-166.213
-167.783
-169.176
-170.369
-171.331
-172.028
-172.426
-172.488
-172.181
-171.478
-170.353
-168.792
-166.783
-164.324
-161.418
-158.074
-154.31
-150.15
-145.627
-140.785
-135.677
-130.369
-124.933
-119.45
245.24
243.893
241.097
236.942
231.565
225.134
217.826
209.808
201.227
192.206
182.842
173.21
163.365
153.354
143.214
132.981
122.691
112.38
102.086
91.8495
81.7068
71.6937
61.8423
52.1806
42.7316
33.5142
24.5424
15.826
7.37072
-0.821513
-8.75241
-16.4268
-23.8521
-31.0375
-37.9931
-44.7285
-51.2523
-57.5707
-63.6873
-69.603
-75.3166
-80.8259
-86.1288
-91.2253
-96.118
-100.814
-105.322
-109.658
-113.836
-117.872
-121.782
-125.578
-129.265
-132.845
-136.315
-139.666
-142.888
-145.969
-148.898
-151.671
-154.285
-156.743
-159.052
-161.22
-163.256
-165.164
-166.945
-168.589
-170.079
-171.388
-172.48
-173.315
-173.849
-174.039
-173.844
-173.231
-172.173
-170.65
-168.653
-166.177
-163.224
-159.803
-155.929
-151.622
-146.914
-141.846
-136.476
-130.875
-125.128
-119.328
252.374
251.019
247.93
243.256
237.211
230.041
221.989
213.272
204.067
194.51
184.696
174.687
164.525
154.237
143.847
133.377
122.859
112.325
101.817
91.3748
81.0412
70.8551
60.8514
51.0599
41.5044
32.2035
23.1706
14.4144
5.93926
-2.2549
-10.1721
-17.8201
-25.2102
-32.3555
-39.2706
-45.9691
-52.4628
-58.7597
-64.8632
-70.7721
-76.4816
-81.9846
-87.2745
-92.3472
-97.2032
-101.849
-106.296
-110.564
-114.674
-118.65
-122.511
-126.275
-129.951
-133.541
-137.037
-140.424
-143.685
-146.8
-149.755
-152.539
-155.151
-157.597
-159.89
-162.048
-164.089
-166.028
-167.872
-169.615
-171.24
-172.716
-173.997
-175.033
-175.766
-176.141
-176.107
-175.623
-174.658
-173.19
-171.21
-168.713
-165.702
-162.183
-158.167
-153.67
-148.714
-143.34
-137.605
-131.589
-125.395
-119.141
262.066
260.637
257.044
251.541
244.474
236.215
227.106
217.434
207.411
197.182
186.826
176.384
165.864
155.267
144.59
133.843
123.046
112.234
101.45
90.7428
80.1618
69.7524
59.554
49.5982
39.9097
30.5062
21.3998
12.5977
4.10263
-4.08752
-11.9796
-19.5852
-26.9206
-34.0052
-40.8598
-47.5046
-53.9567
-60.2269
-66.3189
-72.2281
-77.9433
-83.4498
-88.7326
-93.7807
-98.5906
-103.168
-107.528
-111.698
-115.707
-119.59
-123.378
-127.098
-130.762
-134.371
-137.913
-141.363
-144.69
-147.863
-150.856
-153.654
-156.254
-158.668
-160.921
-163.043
-165.068
-167.028
-168.941
-170.809
-172.615
-174.32
-175.867
-177.184
-178.196
-178.828
-179.016
-178.706
-177.863
-176.467
-174.508
-171.986
-168.908
-165.277
-161.098
-156.374
-151.116
-145.352
-139.135
-132.557
-125.747
-118.862
275.017
273.37
268.904
262.074
253.452
243.608
233.032
222.098
211.052
200.031
189.08
178.188
167.313
156.407
145.433
134.378
123.254
112.1
100.97
89.9276
79.034
68.345
57.9059
47.7509
37.9037
28.3802
19.19
10.3384
1.82642
-6.34975
-14.1997
-21.7397
-28.9925
-35.9859
-42.7509
-49.3177
-55.712
-61.9506
-68.0375
-73.9629
-79.7053
-85.2365
-90.5279
-95.5569
-100.312
-104.798
-109.035
-113.06
-116.92
-120.665
-124.345
-127.999
-131.65
-135.298
-138.921
-142.477
-145.915
-149.182
-152.237
-155.052
-157.624
-159.972
-162.137
-164.174
-166.141
-168.093
-170.071
-172.09
-174.134
-176.151
-178.064
-179.772
-181.169
-182.154
-182.637
-182.555
-181.865
-180.55
-178.612
-176.06
-172.907
-169.158
-164.809
-159.844
-154.246
-148.013
-141.183
-133.857
-126.205
-118.451
292.325
290.158
284.163
275.184
264.187
252.053
239.472
226.918
214.655
202.775
191.246
179.966
168.805
157.643
146.391
135.009
123.505
111.93
100.364
88.8963
77.6102
66.5764
55.8478
45.4593
35.431
25.7735
16.4922
7.58962
-0.933778
-9.08205
-16.8665
-24.3079
-31.4377
-38.2957
-44.9274
-51.379
-57.6915
-63.8924
-69.9884
-75.9609
-81.7709
-87.3679
-92.7005
-97.7263
-102.421
-106.786
-110.848
-114.661
-118.296
-121.833
-125.347
-128.903
-132.54
-136.26
-140.023
-143.76
-147.384
-150.808
-153.96
-156.798
-159.313
-161.538
-163.538
-165.403
-167.232
-169.12
-171.141
-173.334
-175.687
-178.132
-180.553
-182.806
-184.736
-186.198
-187.073
-187.275
-186.762
-185.529
-183.597
-180.998
-177.761
-173.901
-169.404
-164.225
-158.288
-151.53
-143.943
-135.624
-126.808
-117.839
315.778
312.454
303.716
291.197
276.556
261.136
245.871
231.316
217.704
205.011
193.053
181.57
170.297
159.006
147.536
135.813
123.854
111.745
99.6159
87.6016
75.8216
64.3675
53.2991
42.6479
32.4236
22.6246
13.2482
4.29438
-4.23452
-12.3386
-20.0272
-27.3251
-34.2744
-40.9315
-47.3631
-53.6404
-59.8312
-65.9852
-72.1166
-78.1923
-84.1427
-89.8796
-95.3142
-100.372
-105.005
-109.208
-113.017
-116.517
-119.814
-123.031
-126.288
-129.691
-133.311
-137.157
-141.162
-145.206
-149.14
-152.822
-156.136
-159.007
-161.42
-163.425
-165.131
-166.682
-168.238
-169.954
-171.961
-174.345
-177.106
-180.145
-183.283
-186.301
-188.972
-191.086
-192.473
-193.022
-192.694
-191.513
-189.541
-186.851
-183.509
-179.556
-174.981
-169.691
-163.51
-156.24
-147.755
-138.106
-127.627
-116.904
348.45
342.544
328.709
310.262
290.043
269.99
251.243
234.353
219.425
206.186
194.171
182.869
171.812
160.622
149.042
136.958
124.415
111.588
98.7003
85.968
73.5625
61.6017
50.1487
39.2212
28.8028
18.8666
9.39532
0.386804
-8.14731
-16.1937
-23.7506
-30.8444
-37.5317
-43.8919
-50.0206
-56.0264
-62.0236
-68.1103
-74.3244
-80.6039
-86.8215
-92.8259
-98.4701
-103.627
-108.21
-112.194
-115.634
-118.662
-121.447
-124.171
-127.018
-130.166
-133.755
-137.823
-142.246
-146.806
-151.256
-155.367
-158.948
-161.874
-164.112
-165.741
-166.945
-167.953
-169.012
-170.364
-172.238
-174.81
-178.123
-182.012
-186.184
-190.295
-194.009
-197.019
-199.078
-200.029
-199.85
-198.632
-196.514
-193.64
-190.135
-186.105
-181.584
-176.44
-170.296
-162.695
-153.241
-141.778
-128.797
-115.407
396.025
384.046
360.337
331.877
303.288
276.959
253.936
234.564
218.709
205.596
194.26
183.811
173.515
162.8
151.271
138.759
125.384
111.517
97.5593
83.8623
70.6618
58.1037
46.2405
35.0604
24.4871
14.4387
4.87551
-4.20427
-12.7627
-20.7537
-28.141
-34.9491
-41.2599
-47.1856
-52.8549
-58.4245
-64.0866
-70.0514
-76.4379
-83.1038
-89.8069
-96.2904
-102.327
-107.708
-112.278
-115.96
-118.843
-121.157
-123.167
-125.132
-127.314
-130.006
-133.51
-137.974
-143.131
-148.565
-153.861
-158.672
-162.701
-165.733
-167.678
-168.669
-169.037
-169.15
-169.363
-170.021
-171.507
-174.206
-178.307
-183.472
-189.169
-194.857
-200.055
-204.32
-207.273
-208.66
-208.499
-207.043
-204.576
-201.332
-197.515
-193.356
-189.08
-184.625
-179.177
-171.814
-161.617
-147.635
-130.552
-112.812
470.055
442.435
398.801
353.674
313.277
279.166
251.368
229.706
214.042
202.443
193.071
184.529
175.821
166.147
154.914
141.803
127.058
111.575
96.0418
81.0406
66.835
53.6041
41.348
30.025
19.4153
9.31137
-0.340682
-9.54634
-18.1953
-26.1832
-33.3656
-39.7699
-45.5427
-50.8482
-55.8327
-60.6892
-65.7136
-71.3849
-78.1484
-85.5498
-93.108
-100.398
-107.125
-112.958
-117.623
-120.879
-122.869
-124.089
-124.952
-125.78
-126.873
-128.675
-131.88
-137.128
-143.618
-150.52
-157.164
-163.102
-167.887
-171.156
-172.618
-172.491
-171.495
-170.203
-169.069
-168.485
-169.029
-171.58
-176.958
-184.163
-192.165
-200.12
-207.445
-213.506
-217.721
-219.52
-219.008
-216.908
-213.753
-209.844
-205.387
-200.771
-196.832
-194.235
-190.815
-185.01
-175.443
-157.953
-133.253
-107.792
596.876
523.882
439.406
368.654
314.209
272.276
239.96
216.207
203.518
196.079
190.683
185.483
179.515
171.736
161.259
147.198
129.792
111.704
93.7565
77.0719
61.6033
47.7
35.1109
23.962
13.6145
3.533
-6.19999
-15.6902
-24.5801
-32.7727
-39.7105
-45.5001
-50.4983
-54.9727
-58.9944
-62.7117
-66.4085
-71.1453
-78.9399
-87.7695
-96.7938
-105.318
-113.21
-119.889
-124.995
-127.621
-128.001
-127.536
-126.786
-126.046
-125.409
-125.326
-127.304
-134.494
-143.509
-152.845
-161.482
-169.19
-175.254
-179.181
-179.842
-177.565
-174.375
-171.03
-167.979
-165.322
-163.66
-164.881
-172.974
-183.707
-195.224
-206.288
-216.653
-225.346
-231.647
-233.703
-231.8
-228.289
-224.012
-219.144
-213.481
-207.209
-202.647
-205.028
-205.885
-203.618
-200.673
-178.652
-137.046
-96.7561
844.238
621.86
460.247
360.146
297.12
251.535
216.219
186.773
185.431
186.772
188.008
187.538
185.816
181.206
172.761
157.409
133.506
111.629
89.6515
71.351
54.1168
39.9025
26.7997
16.7443
7.43036
-2.74748
-12.4091
-22.6986
-31.9692
-41.169
-47.7088
-52.3696
-56.2081
-59.7488
-62.5944
-64.7632
-65.6054
-66.502
-78.2406
-89.7083
-101.2
-111.146
-121.042
-129.083
-135.937
-137.598
-134.348
-131.392
-128.603
-126.165
-123.145
-119.006
-115.224
-129.229
-142.936
-156.176
-167.138
-177.644
-185.697
-191.905
-191.298
-183.953
-177.475
-171.43
-166.323
-160.724
-154.139
-148.283
-165.185
-182.121
-198.932
-213.461
-228.264
-240.627
-251.681
-253.584
-246.903
-240.77
-235.119
-229.583
-222.45
-211.181
-198.46
-218.013
-225.448
-223.197
-253.372
-227.55
-138.942
-69.5611
1405.12
632.328
392.504
298.245
254.913
216.002
184.021
116.866
163.478
177.613
187.788
191.394
196.273
196.196
194.206
179.932
134.298
111.7
80.2497
64.0935
42.2808
30.5041
14.0996
8.45839
2.49002
-9.77155
-17.714
-31.1744
-39.4602
-53.3955
-58.4127
-60.4229
-62.3465
-65.5253
-67.1688
-68.7245
-64.7236
-46.2457
-77.9308
-91.6125
-107.83
-117.044
-131.544
-139.984
-154.36
-154.643
-140.273
-135.005
-129.914
-127.12
-122.493
-112.172
-77.5302
-124.392
-143.036
-162.785
-173.449
-189.63
-198.795
-214.444
-212.452
-189.092
-179.95
-170.48
-165.374
-157.542
-143.568
-98.9116
-157.346
-180.711
-205.924
-220.238
-243.384
-257.792
-284.89
-285.823
-261.212
-252.552
-246.058
-242.316
-237.372
-217.239
-147.796
-248.441
-258.955
-196.079
-386.698
-366.857
-113.147
1.32822
-113.881
-107.818
-101.991
-96.4862
-91.3716
-86.6957
-82.4897
-78.77
-75.5416
-72.8013
-70.5411
-68.7505
-67.4188
-66.5367
-66.0974
-113.745
-107.58
-101.667
-96.0945
-90.9313
-86.2243
-82.0019
-78.2773
-75.0521
-72.32
-70.0703
-68.2904
-66.968
-66.0927
-65.657
-113.461
-107.087
-101
-95.2922
-90.0332
-85.2666
-81.0149
-77.2839
-74.0681
-71.3551
-69.1285
-67.3716
-66.069
-65.208
-64.7798
-113.007
-106.308
-99.9509
-94.0395
-88.6413
-83.7927
-79.5056
-75.7738
-72.5803
-69.9023
-67.7157
-65.9973
-64.7271
-63.8894
-63.4732
-112.343
-105.183
-98.4551
-92.272
-86.698
-81.756
-77.4395
-73.724
-70.5755
-67.9571
-65.8336
-64.1737
-62.9517
-62.148
-61.7495
-111.408
-103.625
-96.4124
-89.894
-84.1212
-79.0921
-74.7712
-71.1061
-68.0393
-65.5157
-63.4866
-61.9111
-60.7569
-60.0005
-59.6261
-110.102
-101.494
-93.6741
-86.7688
-80.7993
-75.7188
-71.4458
-67.8885
-64.9586
-62.5788
-60.6849
-59.226
-58.1634
-57.4697
-57.1272
-108.262
-98.5738
-90.0196
-82.7062
-76.5872
-71.5367
-67.4036
-64.0422
-61.3267
-59.1549
-57.4471
-56.1434
-55.2001
-54.5869
-54.2848
-105.613
-94.5176
-85.1227
-77.4478
-71.3051
-66.4361
-62.5885
-59.549
-57.1501
-55.2659
-53.8043
-52.6995
-51.9056
-51.3919
-51.1395
-101.656
-88.7591
-78.5042
-70.6556
-64.7481
-60.3128
-56.9642
-54.4142
-52.4579
-50.9533
-49.8037
-48.9438
-48.3301
-47.9347
-47.7409
-95.4394
-80.3571
-69.478
-61.9209
-56.7176
-53.1017
-50.5404
-48.6848
-47.3129
-46.2848
-45.5125
-44.9409
-44.5354
-44.275
-44.1476
-85.0345
-67.7506
-57.1288
-50.8315
-47.0987
-44.8351
-43.4099
-42.4709
-41.8234
-41.3597
-41.0199
-40.7711
-40.595
-40.4816
-40.426
-66.3691
-48.4806
-40.4539
-37.1767
-36.0097
-35.7292
-35.7924
-35.9648
-36.1494
-36.3098
-36.4357
-36.5279
-36.591
-36.6298
-36.6482
-30.7081
-19.3479
-19.0286
-21.411
-24.0335
-26.2791
-28.0649
-29.4459
-30.4991
-31.2936
-31.8844
-32.3132
-32.6106
-32.7977
-32.8881
40.4397
20.8261
5.0988
-5.40467
-12.4339
-17.2881
-20.7419
-23.2542
-25.107
-26.4807
-27.4946
-28.2295
-28.7398
-29.0619
-29.2177
63.4852
63.3378
63.0273
62.5193
61.7539
60.6322
58.9891
56.5385
52.7463
46.5052
35.149
10.8828
-54.4866
-284.15
-1296.93
51.5533
51.1408
50.2768
48.8764
46.7912
43.7753
39.4202
33.0252
23.3233
7.86242
-18.4933
-67.3641
-166.262
-376.203
-767.722
39.9072
39.2563
37.8978
35.7082
32.474
27.8476
21.2672
11.8076
-2.10126
-23.2153
-56.5004
-110.869
-200.923
-342.16
-510.396
28.7122
27.8625
26.0953
23.2648
19.1228
13.2762
5.11299
-6.32094
-22.5227
-45.8412
-79.8666
-129.593
-200.037
-289.366
-369.898
18.1066
17.1051
15.0307
11.7315
6.95495
0.313174
-8.77042
-21.1389
-38.0023
-61.0315
-92.3288
-133.931
-186.036
-242.679
-285.324
8.19593
7.09207
4.8159
1.22363
-3.91812
-10.9546
-20.3731
-32.8359
-49.2005
-70.4798
-97.6337
-130.976
-168.882
-205.712
-230.362
-0.948765
-2.10737
-4.48542
-8.20868
-13.4758
-20.5686
-29.8619
-41.8238
-56.9863
-75.8485
-98.6402
-124.851
-152.476
-177.201
-192.516
-9.28937
-10.4605
-12.853
-16.5693
-21.7659
-28.6546
-37.4979
-48.5891
-62.203
-78.4885
-97.2717
-117.744
-138.083
-155.224
-165.306
-16.8171
-17.9658
-20.3018
-23.9023
-28.8811
-35.3835
-43.5728
-53.6028
-65.5645
-79.3939
-94.7297
-110.73
-125.91
-138.148
-145.096
-23.5477
-24.6469
-26.8727
-30.2784
-34.9387
-40.9411
-48.3695
-57.2749
-67.6291
-79.2532
-91.7259
-104.286
-115.78
-124.745
-129.711
-29.5152
-30.5459
-32.6246
-35.7836
-40.0645
-45.5087
-52.1405
-59.9411
-68.8117
-78.5232
-88.6613
-98.5808
-107.406
-114.12
-117.773
-34.7672
-35.7174
-37.6266
-40.5098
-44.3827
-49.2518
-55.0998
-61.8643
-69.4102
-77.497
-85.7482
-93.6354
-100.498
-105.621
-108.371
-39.3597
-40.2232
-41.9523
-44.549
-48.0092
-52.3152
-57.4227
-63.2449
-69.633
-76.3566
-83.0878
-89.4013
-94.7985
-98.7682
-100.878
-43.3526
-44.128
-45.6759
-47.9886
-51.0486
-54.8221
-59.2493
-64.2324
-69.623
-75.2107
-80.7174
-85.8032
-90.0901
-93.2069
-94.8512
-46.8073
-47.4965
-48.8686
-50.9093
-53.5926
-56.8753
-60.69
-64.9369
-69.476
-74.121
-78.6393
-82.7598
-86.1939
-88.6681
-89.9656
-49.7836
-50.3909
-51.5971
-53.3839
-55.7204
-58.559
-61.8305
-65.4386
-69.2554
-73.1193
-76.8372
-80.1929
-82.9641
-84.9463
-85.9809
-52.3383
-52.8695
-53.9225
-55.4768
-57.4996
-59.9423
-62.7374
-65.7953
-69.002
-72.219
-75.2866
-78.0319
-80.2821
-81.8824
-82.7145
-54.5241
-54.986
-55.8998
-57.2445
-58.9873
-61.0808
-63.4617
-66.0487
-68.7415
-71.4224
-73.9596
-76.2145
-78.0515
-79.3517
-80.0258
-56.3893
-56.7888
-57.5778
-58.736
-60.2314
-62.0199
-64.0431
-66.2285
-68.4892
-70.7255
-72.8288
-74.6872
-76.1937
-77.2558
-77.8051
-57.9771
-58.3211
-58.9996
-59.9932
-61.2722
-62.7959
-64.5118
-66.3561
-68.2538
-70.121
-71.868
-73.4041
-74.6443
-75.5159
-75.9658
-59.3261
-59.6212
-60.2026
-61.0523
-62.1431
-63.4383
-64.8914
-66.4466
-68.0396
-69.6
-71.0536
-72.3266
-73.3509
-74.0689
-74.4389
-60.4702
-60.7226
-61.2192
-61.944
-62.8722
-63.9712
-65.2002
-66.5107
-67.8482
-69.1532
-70.3644
-71.4217
-72.2701
-72.8634
-73.1688
-61.439
-61.6543
-62.0776
-62.6943
-63.4827
-64.4139
-65.4522
-66.5562
-67.6792
-68.7715
-69.7822
-70.662
-71.3662
-71.858
-72.1108
-62.2584
-62.4417
-62.8017
-63.3255
-63.9941
-64.7821
-65.6588
-66.5884
-67.5315
-68.4464
-69.2908
-70.0241
-70.61
-71.0184
-71.2282
-62.9506
-63.1063
-63.412
-63.8563
-64.4226
-65.0888
-65.8285
-66.6112
-67.4035
-68.1703
-68.8765
-69.4886
-69.9768
-70.3168
-70.4913
-63.5347
-63.6668
-63.926
-64.3024
-64.7816
-65.3445
-65.9684
-66.6274
-67.2931
-67.9362
-68.5275
-69.0391
-69.4466
-69.7301
-69.8755
-64.0271
-64.139
-64.3586
-64.6773
-65.0824
-65.5578
-66.084
-66.6388
-67.1985
-67.7383
-68.2337
-68.6619
-69.0026
-69.2393
-69.3607
-64.4418
-64.5366
-64.7225
-64.992
-65.3345
-65.7359
-66.1796
-66.6469
-67.1177
-67.571
-67.9866
-68.3454
-68.6306
-68.8287
-68.9302
-64.7906
-64.8709
-65.0282
-65.2562
-65.5457
-65.8846
-66.2589
-66.6527
-67.0489
-67.43
-67.779
-68.08
-68.3191
-68.4851
-68.5701
-65.0837
-65.1517
-65.2848
-65.4777
-65.7224
-66.0088
-66.3247
-66.6568
-66.9905
-67.3113
-67.6048
-67.8577
-68.0584
-68.1977
-68.269
-65.3297
-65.3872
-65.5
-65.6633
-65.8703
-66.1124
-66.3794
-66.6597
-66.9412
-67.2115
-67.4587
-67.6715
-67.8404
-67.9575
-68.0174
-65.5356
-65.5845
-65.68
-65.8184
-65.9938
-66.1988
-66.4247
-66.6617
-66.8996
-67.1279
-67.3364
-67.5159
-67.6583
-67.7569
-67.8074
-65.7077
-65.7492
-65.8304
-65.9479
-66.0968
-66.2707
-66.4623
-66.6631
-66.8646
-67.0579
-67.2343
-67.3861
-67.5065
-67.5898
-67.6325
-65.851
-65.8864
-65.9555
-66.0556
-66.1824
-66.3304
-66.4934
-66.6642
-66.8354
-66.9996
-67.1494
-67.2782
-67.3803
-67.451
-67.4872
-65.9698
-66
-66.0592
-66.1448
-66.2532
-66.3798
-66.519
-66.6649
-66.8111
-66.9512
-67.079
-67.1889
-67.2759
-67.3362
-67.367
-66.0676
-66.0936
-66.1445
-66.2182
-66.3115
-66.4203
-66.54
-66.6654
-66.791
-66.9113
-67.0211
-67.1154
-67.1901
-67.2418
-67.2682
-66.1473
-66.1698
-66.2141
-66.278
-66.3589
-66.4533
-66.5571
-66.6658
-66.7746
-66.8789
-66.9739
-67.0555
-67.1202
-67.1649
-67.1878
-66.2113
-66.2311
-66.2699
-66.326
-66.397
-66.4797
-66.5707
-66.666
-66.7614
-66.8527
-66.936
-67.0075
-67.0641
-67.1033
-67.1233
-66.2615
-66.2792
-66.3137
-66.3636
-66.4268
-66.5005
-66.5815
-66.6662
-66.751
-66.8322
-66.9062
-66.9698
-67.0201
-67.0549
-67.0727
-66.2995
-66.3155
-66.3469
-66.3921
-66.4494
-66.5162
-66.5895
-66.6663
-66.7432
-66.8167
-66.8837
-66.9413
-66.9868
-67.0183
-67.0345
-66.3264
-66.3413
-66.3703
-66.4123
-66.4653
-66.5272
-66.5952
-66.6664
-66.7376
-66.8057
-66.8678
-66.9211
-66.9633
-66.9925
-67.0074
-66.343
-66.3571
-66.3848
-66.4247
-66.4752
-66.5341
-66.5988
-66.6665
-66.7342
-66.799
-66.858
-66.9087
-66.9488
-66.9765
-66.9907
-66.3498
-66.3636
-66.3907
-66.4298
-66.4792
-66.5369
-66.6002
-66.6665
-66.7328
-66.7962
-66.854
-66.9036
-66.9428
-66.97
-66.9839
-66.347
-66.361
-66.3882
-66.4277
-66.4776
-66.5357
-66.5996
-66.6665
-66.7334
-66.7973
-66.8556
-66.9057
-66.9453
-66.9727
-66.9867
-66.3345
-66.349
-66.3774
-66.4183
-66.4702
-66.5306
-66.597
-66.6665
-66.736
-66.8024
-66.863
-66.915
-66.9562
-66.9847
-66.9992
-66.312
-66.3274
-66.3577
-66.4015
-66.4568
-66.5213
-66.5922
-66.6664
-66.7406
-66.8117
-66.8764
-66.9319
-66.9759
-67.0063
-67.0219
-66.2787
-66.2956
-66.3287
-66.3765
-66.4371
-66.5076
-66.5852
-66.6663
-66.7475
-66.8253
-66.8961
-66.9569
-67.005
-67.0383
-67.0553
-66.2337
-66.2525
-66.2894
-66.3428
-66.4103
-66.4891
-66.5756
-66.6662
-66.7569
-66.8436
-66.9227
-66.9906
-67.0444
-67.0816
-67.1006
-66.1755
-66.1969
-66.2388
-66.2993
-66.3758
-66.4651
-66.5633
-66.666
-66.7689
-66.8674
-66.9571
-67.0342
-67.0952
-67.1374
-67.159
-66.1025
-66.1271
-66.1751
-66.2446
-66.3325
-66.435
-66.5478
-66.6658
-66.784
-66.8971
-67.0003
-67.0889
-67.1591
-67.2077
-67.2325
-66.0125
-66.041
-66.0966
-66.1771
-66.279
-66.3978
-66.5285
-66.6654
-66.8025
-66.9339
-67.0536
-67.1565
-67.238
-67.2944
-67.3232
-65.9028
-65.9359
-66.0009
-66.0948
-66.2136
-66.3524
-66.505
-66.6649
-66.8251
-66.9786
-67.1186
-67.2389
-67.3342
-67.4002
-67.434
-65.77
-65.8089
-65.885
-65.9951
-66.1345
-66.2973
-66.4765
-66.6642
-66.8524
-67.0327
-67.1973
-67.3387
-67.4508
-67.5284
-67.5682
-65.6102
-65.6559
-65.7455
-65.8751
-66.0392
-66.2309
-66.442
-66.6632
-66.8851
-67.0978
-67.292
-67.459
-67.5913
-67.683
-67.7299
-65.4186
-65.4726
-65.5782
-65.7311
-65.9248
-66.1511
-66.4003
-66.6618
-66.9241
-67.1757
-67.4056
-67.6033
-67.76
-67.8686
-67.9242
-65.1896
-65.2533
-65.3781
-65.5587
-65.7877
-66.0553
-66.3502
-66.6598
-66.9705
-67.2688
-67.5414
-67.7761
-67.9621
-68.0911
-68.1571
-64.9164
-64.9917
-65.1392
-65.3528
-65.6237
-65.9406
-66.29
-66.657
-67.0256
-67.3798
-67.7036
-67.9825
-68.2038
-68.3573
-68.4359
-64.591
-64.68
-64.8544
-65.1072
-65.4279
-65.8032
-66.2175
-66.653
-67.0908
-67.5118
-67.897
-68.229
-68.4926
-68.6755
-68.7692
-64.2037
-64.3089
-64.5152
-64.8143
-65.1941
-65.6389
-66.1303
-66.6473
-67.1677
-67.6685
-68.1273
-68.5231
-68.8375
-69.0557
-69.1675
-63.7433
-63.8677
-64.1116
-64.4655
-64.9151
-65.4423
-66.0252
-66.6394
-67.2582
-67.8545
-68.4014
-68.8736
-69.249
-69.5098
-69.6435
-63.1966
-63.3435
-63.6317
-64.0501
-64.5823
-65.2069
-65.8985
-66.6281
-67.3644
-68.0748
-68.7272
-69.2912
-69.7401
-70.0522
-70.2122
-62.5478
-62.7212
-63.0615
-63.5558
-64.1852
-64.925
-65.7454
-66.6122
-67.4885
-68.3355
-69.1144
-69.7889
-70.3263
-70.7002
-70.892
-61.7787
-61.983
-62.3843
-62.9677
-63.7116
-64.5872
-65.5599
-66.5898
-67.633
-68.6433
-69.5742
-70.3816
-71.0259
-71.4747
-71.705
-60.8677
-61.1081
-61.5806
-62.2683
-63.1464
-64.182
-65.3348
-66.5582
-67.8004
-69.0062
-70.1198
-71.0876
-71.8612
-72.4008
-72.678
-59.7898
-60.0721
-60.6274
-61.4367
-62.4718
-63.6953
-65.0607
-66.5136
-67.9929
-69.433
-70.7667
-71.9285
-72.859
-73.5091
-73.8433
-58.5159
-58.8467
-59.4978
-60.4483
-61.6666
-63.1101
-64.7259
-66.4507
-68.2127
-69.9338
-71.5328
-72.9298
-74.0515
-74.8366
-75.2407
-57.0124
-57.3988
-58.1603
-59.274
-60.7049
-62.4054
-64.3153
-66.3618
-68.4609
-70.5194
-72.4392
-74.1224
-75.4778
-76.4286
-76.9188
-55.2406
-55.6905
-56.5784
-57.8795
-59.5559
-61.5552
-63.8099
-66.2365
-68.7372
-71.2013
-73.5099
-75.5424
-77.1851
-78.3405
-78.9371
-53.1564
-53.6782
-54.7095
-56.2244
-58.1828
-60.5279
-63.185
-66.0599
-69.039
-71.9911
-74.7722
-77.2331
-79.2306
-80.6402
-81.3697
-50.7098
-51.3123
-52.5048
-54.2616
-56.5411
-59.2839
-62.4088
-65.8108
-69.3595
-72.8997
-76.2568
-79.2456
-81.6843
-83.4122
-84.3087
-47.8451
-48.5367
-49.9084
-51.9357
-54.5779
-57.7745
-61.4402
-65.46
-69.6857
-73.9354
-77.9972
-81.64
-84.6314
-86.7615
-87.8702
-44.5001
-45.2889
-46.857
-49.1828
-52.2297
-55.9395
-60.2258
-64.9662
-69.9954
-75.1015
-80.0284
-84.4868
-88.1765
-90.8201
-92.2013
-40.6075
-41.5002
-43.2793
-45.9294
-49.4213
-53.7043
-58.6961
-64.2718
-70.2515
-76.392
-82.3849
-87.8671
-92.4479
-95.7551
-97.4915
-36.0951
-37.0962
-39.097
-42.0916
-46.0636
-50.9768
-56.7611
-63.2968
-70.3959
-77.785
-85.0961
-91.8732
-97.6037
-101.781
-103.987
-30.8878
-31.9982
-34.2246
-37.5751
-42.0526
-47.6444
-54.3043
-61.9307
-70.3389
-79.232
-88.1779
-96.6058
-103.838
-109.174
-112.016
-24.9095
-26.1254
-28.572
-32.276
-37.2681
-43.5704
-51.1764
-60.0217
-69.9452
-80.6422
-91.6192
-102.168
-111.39
-118.299
-122.017
-18.0873
-19.3981
-22.0465
-26.0827
-31.5739
-38.5912
-47.1879
-57.364
-69.0142
-81.8579
-95.3577
-108.652
-120.548
-129.639
-134.599
-10.3551
-11.7424
-14.5575
-18.8792
-24.8201
-32.5155
-42.1028
-53.6827
-67.2545
-82.6177
-99.2385
-116.107
-131.653
-143.847
-150.627
-1.65979
-3.0956
-6.02261
-10.5517
-16.8481
-25.1262
-35.6342
-48.6181
-64.2508
-82.504
-102.947
-124.48
-145.085
-161.816
-171.361
8.03212
6.58631
3.62439
-0.997185
-7.50018
-16.1887
-27.4463
-41.7142
-59.4272
-80.8695
-105.899
-133.497
-161.208
-184.773
-198.723
18.7275
17.3206
14.4235
9.86339
3.365
-5.46736
-17.1681
-32.4179
-52.0139
-76.7441
-107.065
-142.436
-180.209
-214.407
-235.772
30.3994
29.089
26.3768
22.0695
15.8505
7.2455
-4.4255
-20.1038
-41.0352
-68.7359
-104.725
-149.705
-201.693
-252.951
-287.656
42.9806
41.8303
39.4372
35.6026
29.9925
22.087
11.0996
-4.14201
-25.3558
-54.9717
-96.1427
-152.105
-223.685
-302.987
-363.641
56.3599
55.434
53.4979
50.3679
45.728
39.0683
29.5784
15.9668
-3.84188
-33.1832
-77.2879
-143.66
-240.312
-365.972
-481.744
70.3813
69.7385
68.3868
66.1811
62.8655
58.0142
50.9189
40.3785
24.2914
-1.14276
-42.9694
-114.188
-236.793
-435.823
-680.24
84.8482
84.5342
83.8679
82.764
81.0688
78.5177
74.6511
68.6412
58.915
42.2807
11.7598
-49.0305
-180.198
-474.152
-1048.47
99.5322
99.5736
99.652
99.7567
99.8655
99.9338
99.8709
99.4835
98.3349
95.3465
87.5089
65.0005
-10.5575
-317.784
-1815.52
114.186
114.586
115.417
116.746
118.689
121.44
125.315
130.853
139.031
151.779
173.445
215.871
319.964
665.327
2201.55
128.561
129.298
130.835
133.306
136.951
142.165
149.602
160.388
176.553
202.015
244.964
323.914
482.935
821.446
1461.26
142.423
143.454
145.602
149.051
154.123
161.343
171.562
186.186
207.615
240.107
291.48
376.349
521.255
768.319
1165.33
133.166
54.0895
22.427
6.08314
-3.79439
-10.3298
-14.8919
-18.1828
-20.603
-22.3981
-23.726
-24.6913
-25.3638
-25.7893
-25.9955
84.1125
51.4019
27.5416
12.0361
1.73881
-5.37422
-10.4562
-14.1767
-16.9423
-19.0108
-20.5515
-21.6778
-22.4659
-22.9662
-23.2091
57.7736
42.5675
26.8541
14.3719
5.06072
-1.82905
-6.96596
-10.8337
-13.7655
-15.9899
-17.6646
-18.8988
-19.7677
-20.3216
-20.5911
41.9936
34.085
23.9224
14.5055
6.70102
0.498897
-4.357
-8.14041
-11.0797
-13.3505
-15.0833
-16.3732
-17.288
-17.874
-18.1601
31.7053
27.1672
20.4726
13.5191
7.2285
1.89195
-2.49275
-6.03325
-8.85808
-11.0846
-12.8094
-14.108
-15.0365
-15.6346
-15.9275
24.5682
21.7466
17.2022
12.0723
7.09335
2.62398
-1.21474
-4.42299
-7.05184
-9.16688
-10.8314
-12.0995
-13.0142
-13.6069
-13.8982
19.3901
17.5221
14.3383
10.5206
6.6042
2.91801
-0.37454
-3.21503
-5.60233
-7.56195
-9.12848
-10.3364
-11.2153
-11.7883
-12.0709
15.5091
14.211
11.9145
9.03714
5.95514
2.93865
0.151729
-2.32175
-4.44974
-6.22989
-7.67453
-8.80151
-9.62873
-10.1713
-10.4398
12.5293
11.593
9.89407
7.69569
5.2605
2.79983
0.460325
-1.66836
-3.53867
-5.13074
-6.4411
-7.4747
-8.23973
-8.7444
-8.99505
10.1997
9.5044
8.22034
6.51858
4.58348
2.57685
0.622507
-1.19438
-2.82077
-4.22716
-5.39978
-6.33429
-7.03142
-7.49383
-7.72422
8.35276
7.82456
6.83657
5.50343
3.95609
2.31751
0.689227
-0.852674
-2.2556
-3.48589
-4.52373
-5.35867
-5.98602
-6.40427
-6.6133
6.87252
6.46392
5.6924
4.63697
3.392
2.051
0.69595
-0.607469
-1.81029
-2.8782
-3.78853
-4.52713
-5.08576
-5.45993
-5.64745
5.67595
5.35523
4.74532
3.90207
2.89455
1.79422
0.66681
-0.432117
-1.45864
-2.37992
-3.17253
-3.82053
-4.31353
-4.64513
-4.81174
4.70203
4.4473
3.96023
3.28118
2.46152
1.55622
0.617884
-0.307036
-1.18007
-1.97096
-2.65693
-3.22151
-3.65332
-3.94486
-4.09168
3.90493
3.70066
3.3084
2.75791
2.08794
1.34113
0.559635
-0.217981
-0.958531
-1.63484
-2.22557
-2.71466
-3.09046
-3.34505
-3.47351
3.24965
3.08454
2.76639
2.31758