/*--------------------------------*- C++ -*----------------------------------*\
| =========                 |                                                 |
| \\      /  F ield         | OpenFOAM: The Open Source CFD Toolbox           |
|  \\    /   O peration     | Version:  5.x                                   |
|   \\  /    A nd           | Web:      www.OpenFOAM.org                      |
|    \\/     M anipulation  |                                                 |
\*---------------------------------------------------------------------------*/
FoamFile
{
    version     2.0;
    format      ascii;
    class       volScalarField;
    location    "8.9";
    object      gradTx;
}
// * * * * * * * * * * * * * * * * * * * * * * * * * * * * * * * * * * * * * //

dimensions      [0 -1 0 1 0 0 0];

internalField   nonuniform List<scalar> 
6300
(
59.0235
59.487
60.4053
61.7599
63.5215
65.6483
68.0839
70.7554
73.5727
76.4284
79.2003
81.7567
83.9637
85.696
86.8472
58.5584
59.0308
59.9675
61.3513
63.1547
65.3379
67.8463
70.608
73.5327
76.5104
79.4141
82.1042
84.4367
86.2752
87.5033
57.6193
58.1088
59.0809
60.5215
62.4066
64.7008
67.3536
70.296
73.4377
76.6647
79.8399
82.8074
85.402
87.4626
88.8511
56.1893
56.7025
57.7245
59.2455
61.2478
63.7035
66.5696
69.7832
73.2558
76.8689
80.4714
83.882
86.8993
89.3206
90.9678
54.2445
54.7859
55.8677
57.4865
59.6341
62.2942
65.4365
69.0095
72.9317
77.0821
81.293
85.3479
88.9908
91.9507
93.9824
51.7567
52.3276
53.4725
55.197
57.5063
60.4012
63.8711
67.885
72.3775
77.233
82.2689
87.2242
91.7633
95.5071
98.096
48.6967
49.2936
50.4962
52.3213
54.7916
57.9314
61.7602
66.2803
71.4587
77.2019
83.3237
89.5147
95.3294
100.217
103.618
45.0384
45.6525
46.896
48.799
51.4056
54.7712
58.9565
64.0155
69.9735
76.7905
84.3074
92.1796
99.821
106.41
111.031
40.7645
41.3807
42.6349
44.5717
47.2593
50.7898
55.2775
60.8502
67.6277
75.6775
84.9339
95.0733
105.363
114.57
121.113
35.8732
36.4695
37.6899
39.5924
42.2685
45.8497
50.512
56.4785
64.008
73.3562
84.6757
97.8148
111.986
125.39
135.183
30.3842
30.9328
32.0617
33.8379
36.3715
39.827
44.4411
50.5421
58.5681
69.0619
82.596
99.5218
119.375
139.817
155.639
24.3455
24.8146
25.7849
27.325
29.5511
32.6445
36.8818
42.6795
50.6589
61.7258
77.1225
98.2993
126.172
158.863
187.273
17.8366
18.1942
18.937
20.1251
21.8621
24.317
27.761
32.6337
39.6606
50.0582
65.867
90.379
128.147
182.188
240.927
10.9689
11.1876
11.643
12.375
13.4542
14.9994
17.2102
20.4323
25.2905
32.9776
45.9065
69.2006
113.846
200.812
345.441
3.88163
3.94324
4.07126
4.27664
4.57946
5.01519
5.64722
6.59373
8.09025
10.654
15.5791
26.6689
57.2236
161.77
593.895
87.3521
87.2786
86.7151
85.6738
84.1816
82.2765
80.0038
77.4122
74.5499
71.463
68.193
64.7766
61.2451
57.625
53.9389
50.2054
46.4408
42.6591
38.8729
35.0934
31.3308
27.5946
23.8931
20.2341
16.6241
13.069
9.57355
6.14182
2.77687
-0.519003
-3.74427
-6.89805
-9.97998
-12.9901
-15.9286
-18.7957
-21.5917
-24.3165
-26.9697
-29.5509
-32.0594
-34.4947
-36.8564
-39.1446
-41.3603
-43.5048
-45.5805
-47.5902
-49.5369
-51.4239
-53.2539
-55.0292
-56.7511
-58.4197
-60.0344
-61.5933
-63.0942
-64.5344
-65.9112
-67.2224
-68.4659
-69.6403
-70.7444
-71.7768
-72.7357
-73.6181
-74.4198
-75.1344
-75.7537
-76.2675
-76.6638
-76.9297
-77.0515
-77.016
-76.8109
-76.4256
-75.8521
-75.0849
-74.1215
-72.9628
-71.6126
-70.0784
-68.3707
-66.5035
-64.494
-62.363
-60.1344
-57.8349
-55.4931
-53.1388
88.0485
87.9825
87.4015
86.3214
84.7743
82.8041
80.4616
77.8002
74.872
71.7251
68.4025
64.9409
61.3712
57.7191
54.0059
50.2492
46.4644
42.6648
38.8624
35.0681
31.2922
27.5438
23.8315
20.1629
16.5446
12.9825
9.48147
6.04533
2.67715
-0.620881
-3.84737
-7.00162
-10.0835
-13.0932
-16.0312
-18.8981
-21.6941
-24.4193
-27.0732
-29.6553
-32.1646
-34.6003
-36.9617
-39.2488
-41.4622
-43.6035
-45.6751
-47.6802
-49.6223
-51.5051
-53.332
-55.1054
-56.8269
-58.4967
-60.1137
-61.676
-63.1807
-64.6246
-66.0048
-67.3187
-68.5643
-69.7405
-70.8465
-71.8815
-72.8446
-73.7333
-74.5439
-75.2704
-75.9044
-76.4353
-76.8504
-77.1358
-77.2768
-77.2589
-77.0689
-76.6955
-76.1298
-75.366
-74.4016
-73.2371
-71.8765
-70.3271
-68.5993
-66.7071
-64.6678
-62.5025
-60.2355
-57.8947
-55.51
-53.1129
89.479
89.4259
88.8047
87.6397
85.9746
83.866
81.3769
78.5708
75.5071
72.2388
68.8107
65.2595
61.6148
57.9001
54.1341
50.3324
46.5082
42.6735
38.8392
35.0157
31.213
27.4404
23.7063
20.0185
16.3838
12.8078
9.2955
5.85064
2.47615
-0.825987
-4.05466
-7.20952
-10.2909
-13.2995
-16.2364
-19.1024
-21.8984
-24.6244
-27.28
-29.8642
-32.3755
-34.8124
-37.1736
-39.4585
-41.6674
-43.8019
-45.8649
-47.8602
-49.7924
-51.6663
-53.4863
-55.2556
-56.9764
-58.6487
-60.2711
-61.8407
-63.3536
-64.8057
-66.1929
-67.5122
-68.7617
-69.9407
-71.0495
-72.0888
-73.0592
-73.9598
-74.7879
-75.5383
-76.2023
-76.7684
-77.2226
-77.5486
-77.7294
-77.7483
-77.5897
-77.2408
-76.6913
-75.9348
-74.9683
-73.7924
-72.4109
-70.8312
-69.0634
-67.1212
-65.022
-62.7871
-60.442
-58.0165
-55.5436
-53.0584
91.7254
91.6855
90.9892
89.6764
87.8117
85.4741
82.7471
79.7106
76.4355
72.9812
69.3945
65.7113
61.958
58.1536
54.3128
50.447
46.5664
42.6806
38.7994
34.9326
31.0899
27.2808
23.5139
19.7973
16.1377
12.541
9.012
5.55432
2.17072
-1.13709
-4.36839
-7.52338
-10.6031
-13.6091
-16.5434
-19.4076
-22.2033
-24.9307
-27.5894
-30.1777
-32.6932
-35.1332
-37.495
-39.7771
-41.9792
-44.1028
-46.1515
-48.1304
-50.0458
-51.9045
-53.7127
-55.4752
-57.1947
-58.8717
-60.5036
-62.0861
-63.6134
-65.0791
-66.4778
-67.8052
-69.0595
-70.2408
-71.3513
-72.3943
-73.373
-74.2894
-75.1428
-75.9292
-76.6397
-77.2616
-77.778
-78.1691
-78.4139
-78.4917
-78.3835
-78.0735
-77.5497
-76.8047
-75.8353
-74.6423
-73.2297
-71.6048
-69.7773
-67.7603
-65.5705
-63.2292
-60.7632
-58.2055
-55.5939
-52.9697
94.9245
94.8884
94.0597
92.506
90.328
87.6413
84.5613
81.1923
77.6205
73.9125
70.116
66.2629
62.3732
58.4585
54.5262
50.5818
46.6309
42.6802
38.7381
34.814
30.9178
27.0596
23.2487
19.4933
15.8006
12.1764
8.62536
5.15101
1.75589
-1.55858
-4.79214
-7.94574
-11.0214
-14.0221
-16.9511
-19.8116
-22.6061
-25.3358
-27.9998
-30.5957
-33.1195
-35.5661
-37.9309
-40.2105
-42.4034
-44.5111
-46.538
-48.4914
-50.3803
-52.2148
-54.0041
-55.7557
-57.4737
-59.1585
-60.8064
-62.4102
-63.9607
-65.4482
-66.8641
-68.2026
-69.4613
-70.6419
-71.7494
-72.7912
-73.7753
-74.7083
-75.5932
-76.4279
-77.2037
-77.9055
-78.5123
-78.9988
-79.3376
-79.5017
-79.4666
-79.2126
-78.7253
-77.9964
-77.0231
-75.807
-74.3531
-72.6687
-70.763
-68.6472
-66.336
-63.8495
-61.2156
-58.4711
-55.6613
-52.8378
99.2909
99.2308
98.1723
96.2331
93.5752
90.3731
86.7904
82.9645
79.0001
74.9698
70.9175
66.866
62.8229
58.7876
54.756
50.7249
46.694
42.6666
38.6501
34.6542
30.6903
26.7696
22.9027
19.0986
15.3645
11.7061
8.12791
4.63332
1.22469
-2.09676
-5.33119
-8.4804
-11.5478
-14.5382
-17.4573
-20.3105
-23.1023
-25.8351
-28.5082
-31.1175
-33.6563
-36.1164
-38.4893
-40.7682
-42.9499
-45.0352
-47.03
-48.9446
-50.7927
-52.5894
-54.3492
-56.0838
-57.7998
-59.4978
-61.1718
-62.8101
-64.3978
-65.9194
-67.3611
-68.7138
-69.9746
-71.147
-72.2408
-73.27
-74.2502
-75.1954
-76.1148
-77.01
-77.8729
-78.685
-79.4187
-80.04
-80.5116
-80.797
-80.8637
-80.6862
-80.2474
-79.5388
-78.5591
-77.3128
-75.807
-74.0501
-72.0499
-69.8142
-67.3527
-64.6811
-61.8262
-58.8295
-55.7477
-52.6487
105.156
105.009
103.551
100.994
97.6042
93.6513
89.3682
84.9345
80.4735
76.0571
71.7167
67.4557
63.2603
59.11
54.984
50.8669
46.7509
42.6366
38.5315
34.4478
30.3998
26.4017
22.4659
18.6025
14.8187
11.1199
7.50975
3.99155
0.5677
-2.76041
-5.99308
-9.13292
-12.1851
-15.1572
-18.0582
-20.8976
-23.6834
-26.4204
-29.108
-31.7404
-34.3064
-36.7919
-39.1823
-41.4657
-43.6346
-45.6891
-47.6368
-49.493
-51.2783
-53.0163
-54.7299
-56.4378
-58.1511
-59.871
-61.5876
-63.2819
-64.9294
-66.5045
-67.9852
-69.3565
-70.614
-71.7642
-72.8242
-73.8183
-74.7743
-75.7184
-76.67
-77.6375
-78.6139
-79.576
-80.4858
-81.2954
-81.9525
-82.4059
-82.6112
-82.5349
-82.1569
-81.4701
-80.478
-79.1909
-77.6214
-75.7806
-73.6748
-71.3052
-68.6707
-65.7755
-62.64
-59.3094
-55.8577
-52.3811
113.042
112.673
110.512
106.95
102.442
97.4036
92.1612
86.9427
81.8813
77.0335
72.4004
67.9494
63.6317
59.3962
55.1982
51.0062
46.8044
42.5923
38.3813
34.1892
30.0368
25.9432
21.9244
17.9912
14.1504
10.4054
6.75894
3.21366
-0.22737
-3.56166
-6.78877
-9.91172
-12.9378
-15.8783
-18.7477
-21.5618
-24.3348
-27.0763
-29.7873
-32.4586
-35.0719
-37.6038
-40.0293
-42.3273
-44.4838
-46.4962
-48.3749
-50.1427
-51.8315
-53.4778
-55.1181
-56.7832
-58.4923
-60.2481
-62.0346
-63.8202
-65.5642
-67.2247
-68.7656
-70.1623
-71.4068
-72.5103
-73.5012
-74.4204
-75.3146
-76.2292
-77.2013
-78.2509
-79.3744
-80.5409
-81.6958
-82.7692
-83.6853
-84.3706
-84.7627
-84.8166
-84.5096
-83.8396
-82.8204
-81.4744
-79.8253
-77.8913
-75.6785
-73.1767
-70.3628
-67.215
-63.7337
-59.9626
-56.0027
-52.0012
123.796
122.917
119.485
114.268
108.044
101.447
94.9182
88.7229
82.9801
77.6995
72.8207
68.2497
63.8837
59.6271
55.4027
51.1584
46.8716
42.5458
38.2027
33.873
29.5883
25.3766
21.2588
17.2466
13.3435
9.54885
5.86208
2.28537
-1.17634
-4.51741
-7.73454
-10.8301
-13.8137
-16.7019
-19.517
-22.2849
-25.0314
-27.7759
-30.5235
-33.2598
-35.9546
-38.5683
-41.0597
-43.3921
-45.5399
-47.4952
-49.2721
-50.9055
-52.4451
-53.9474
-55.4701
-57.0643
-58.7652
-60.5803
-62.4823
-64.4173
-66.3181
-68.1164
-69.7527
-71.1859
-72.4016
-73.4174
-74.2804
-75.0573
-75.8241
-76.6562
-77.6195
-78.7567
-80.0719
-81.5211
-83.0216
-84.4683
-85.7491
-86.7563
-87.3996
-87.6168
-87.3835
-86.7104
-85.6319
-84.1928
-82.438
-80.4021
-78.0969
-75.4963
-72.5344
-69.1336
-65.2435
-60.8868
-56.2065
-51.4512
138.878
136.832
131.03
123.032
114.179
105.388
97.1933
89.8494
83.412
77.7852
72.7965
68.2537
63.9767
59.8106
55.6346
51.3709
46.9938
42.5231
38.0042
33.491
29.0337
24.6743
20.4405
16.3443
12.3801
8.53651
4.80643
1.19125
-2.29924
-5.65176
-8.85545
-11.9098
-14.8269
-17.6306
-20.354
-23.0387
-25.7307
-28.4708
-31.2755
-34.1206
-36.9535
-39.7085
-42.3187
-44.7222
-46.8728
-48.7506
-50.3752
-51.8031
-53.1115
-54.387
-55.7182
-57.1909
-58.873
-60.7864
-62.8814
-65.0629
-67.2188
-69.2402
-71.0311
-72.5217
-73.6832
-74.5434
-75.1823
-75.7077
-76.2381
-76.893
-77.7859
-79.0047
-80.5751
-82.4261
-84.4234
-86.405
-88.2051
-89.6647
-90.6484
-91.0642
-90.8891
-90.1636
-88.9612
-87.3645
-85.4538
-83.2993
-80.9392
-78.3349
-75.3368
-71.7553
-67.424
-62.2756
-56.5176
-50.6213
160.989
156.155
145.733
133.024
120.225
108.47
98.2406
89.6684
82.6746
76.9507
72.1285
67.8736
63.9088
60.0072
55.9914
51.7459
47.2495
42.569
37.7967
33.0275
28.3378
23.7902
19.4238
15.2512
11.2427
7.36035
3.58504
-0.0826546
-3.62101
-7.00055
-10.1915
-13.187
-16.0036
-18.6747
-21.2467
-23.7819
-26.3607
-29.0722
-31.9692
-34.9988
-38.0641
-41.057
-43.8747
-46.4162
-48.5978
-50.3699
-51.761
-52.8719
-53.8249
-54.7454
-55.7618
-57.0153
-58.647
-60.7301
-63.1552
-65.7442
-68.3123
-70.6947
-72.7408
-74.3303
-75.3974
-75.987
-76.2464
-76.3497
-76.4715
-76.786
-77.4817
-78.7452
-80.6727
-83.1191
-85.8462
-88.6017
-91.1497
-93.2571
-94.7131
-95.3611
-95.1854
-94.3019
-92.8566
-90.9867
-88.8191
-86.4909
-84.1317
-81.7391
-78.9777
-75.4555
-70.7799
-64.541
-57.0268
-49.275
195.626
183.523
163.728
143.144
124.766
109.355
96.8998
87.2131
80.1074
74.8164
70.6425
67.0744
63.7486
60.3673
56.6777
52.4813
47.7694
42.7463
37.584
32.449
27.4364
22.6449
18.1274
13.9214
9.92331
6.02977
2.20845
-1.54299
-5.17159
-8.62098
-11.809
-14.7221
-17.3894
-19.8618
-22.1921
-24.4622
-26.7993
-29.4063
-32.4718
-35.825
-39.2788
-42.6573
-45.8278
-48.6282
-50.9118
-52.5374
-53.5497
-54.1675
-54.5843
-54.9653
-55.4635
-56.2941
-57.7704
-60.1804
-63.1921
-66.4547
-69.672
-72.6328
-75.1067
-76.8902
-77.7983
-77.9048
-77.5343
-76.9638
-76.4265
-76.1287
-76.3585
-77.5285
-80.0218
-83.4067
-87.2266
-91.0956
-94.7273
-97.7858
-99.9401
-100.842
-100.5
-99.2478
-97.3619
-95.036
-92.4144
-89.7258
-87.371
-85.6731
-83.713
-80.8154
-76.3858
-68.6417
-57.8772
-46.8358
255.354
221.964
182.854
150.084
125.03
105.981
91.5704
81.0393
74.9254
71.0718
68.2829
65.9251
63.667
61.1701
58.0927
53.9578
48.7365
43.1232
37.3308
31.6935
26.216
21.1046
16.3819
12.2919
8.45295
4.59488
0.731
-3.1804
-6.98038
-10.6178
-13.8226
-16.611
-19.056
-21.2532
-23.2242
-25.0457
-26.849
-29.0799
-32.5598
-36.5059
-40.6015
-44.5565
-48.3136
-51.5835
-54.173
-55.5874
-55.9058
-55.7517
-55.3946
-55.0158
-54.6855
-54.6425
-55.5482
-58.7634
-62.867
-67.2294
-71.4003
-75.2707
-78.4658
-80.7093
-81.3521
-80.5084
-79.109
-77.5287
-76.0353
-74.7106
-73.8798
-74.405
-78.0855
-83.0662
-88.5349
-93.9297
-99.1287
-103.615
-106.968
-108.114
-107.121
-105.105
-102.499
-99.5095
-96.1043
-92.4785
-89.6626
-89.9828
-89.7967
-88.3799
-86.763
-77.0906
-59.1252
-41.7596
372.607
268.64
192.849
145.913
116.642
95.929
80.6521
68.5032
66.4872
65.7928
65.3011
64.631
63.9282
62.8074
61.0294
56.9977
50.267
43.757
36.8537
30.707
24.468
19.0038
13.7248
10.3006
7.00982
3.16813
-0.678217
-4.9784
-9.02331
-13.2378
-16.4357
-18.9943
-21.0794
-22.9701
-24.4716
-25.6552
-26.2829
-26.9545
-31.9765
-36.9709
-42.1265
-46.7401
-51.5007
-55.5181
-59.1257
-60.2151
-58.9416
-57.6277
-56.2356
-54.9957
-53.4933
-51.6238
-49.9999
-56.0661
-62.1684
-68.2788
-73.5603
-78.8798
-83.1943
-86.8322
-87.0452
-83.9112
-80.9428
-77.9674
-75.4001
-72.58
-69.4474
-66.7365
-74.2758
-82.0218
-89.9479
-97.0443
-104.555
-111.073
-117.174
-118.463
-115.215
-111.811
-108.185
-104.581
-100.11
-94.0632
-87.4368
-95.0199
-97.6511
-96.231
-108.738
-97.4802
-59.5083
-29.7017
640.385
274.74
161.287
116.303
95.9289
78.047
65.2279
41.3743
56.1449
60.2207
62.5751
63.3825
64.7901
65.39
67.2102
63.9227
51.4787
44.956
35.2864
29.8528
21.6036
16.6362
8.39621
8.1171
6.35966
1.74786
-1.43408
-7.14409
-10.8221
-17.3217
-19.9692
-22.0595
-23.3826
-25.2471
-26.1767
-27.065
-25.6532
-18.5643
-31.4325
-37.2035
-44.4315
-48.7117
-55.7572
-60.0422
-67.7039
-68.2447
-62.0351
-59.6154
-56.857
-55.3527
-52.8293
-48.2508
-33.377
-53.3163
-61.457
-70.5211
-75.6645
-83.9348
-88.8957
-97.8859
-97.5566
-87.0741
-82.7854
-77.8171
-75.1278
-70.8979
-64.4068
-44.3067
-70.167
-80.7165
-92.5541
-99.5611
-111.407
-119.132
-134.305
-135.346
-123.53
-118.834
-113.838
-110.897
-106.385
-96.4803
-64.7479
-107.186
-111.338
-84.0246
-164.935
-156.336
-48.1323
1.12137
-50.5718
-47.8373
-45.2169
-42.7473
-40.4574
-38.3674
-36.4901
-34.8318
-33.394
-32.1745
-31.1693
-30.3733
-29.7815
-29.3897
-29.1945
-50.5011
-47.7225
-45.0651
-42.5669
-40.2567
-38.154
-36.2704
-34.6108
-33.175
-31.9596
-30.9595
-30.1685
-29.5811
-29.1924
-28.9989
-50.3544
-47.4857
-44.7534
-42.1978
-39.8476
-37.7208
-35.8261
-34.1653
-32.735
-31.529
-30.5399
-29.7597
-29.1815
-28.7993
-28.6093
-50.1209
-47.1115
-44.2643
-41.6225
-39.2145
-37.0548
-35.1474
-33.4885
-32.07
-30.8811
-29.9108
-29.1485
-28.5852
-28.2137
-28.0292
-49.7821
-46.5743
-43.5688
-40.8128
-38.3324
-36.136
-34.2194
-32.5709
-31.1747
-30.0141
-29.0731
-28.3378
-27.7965
-27.4406
-27.2641
-49.309
-45.834
-42.623
-39.7268
-37.1655
-34.9366
-33.0229
-31.4004
-30.0433
-28.9269
-28.0293
-27.3325
-26.8221
-26.4876
-26.322
-48.656
-44.8291
-41.3616
-38.305
-35.6658
-33.4213
-31.5344
-29.964
-28.6707
-27.6202
-26.7843
-26.1403
-25.6713
-25.3651
-25.2139
-47.7501
-43.4639
-39.6885
-36.4653
-33.7708
-31.5479
-29.729
-28.2498
-27.0547
-26.0987
-25.3468
-24.7727
-24.3572
-24.0871
-23.9541
-46.4685
-41.5873
-37.4623
-34.0963
-31.4037
-29.2699
-27.5835
-26.2511
-25.1991
-24.3725
-23.731
-23.246
-22.8974
-22.6717
-22.5609
-44.5932
-38.9536
-34.4765
-31.053
-28.4773
-26.5438
-25.0837
-23.9714
-23.1177
-22.4607
-21.9584
-21.5825
-21.3141
-21.1412
-21.0563
-41.7107
-35.1568
-30.4365
-27.1613
-24.9083
-23.3436
-22.2356
-21.4328
-20.8391
-20.3938
-20.0591
-19.8111
-19.6351
-19.522
-19.4667
-36.9895
-29.5259
-24.9508
-22.2471
-20.6506
-19.6865
-19.0819
-18.6849
-18.4116
-18.216
-18.0726
-17.9674
-17.8929
-17.8448
-17.8212
-28.6779
-21.0059
-17.5932
-16.2253
-15.76
-15.6694
-15.7203
-15.8128
-15.9062
-15.9856
-16.0475
-16.0928
-16.1238
-16.1429
-16.1519
-13.017
-8.22629
-8.19065
-9.30039
-10.4945
-11.5106
-12.3168
-12.9396
-13.4144
-13.7725
-14.0388
-14.2322
-14.3663
-14.4507
-14.4914
17.9843
9.3086
2.35748
-2.29098
-5.40675
-7.56152
-9.09649
-10.2141
-11.039
-11.651
-12.1029
-12.4305
-12.6582
-12.8019
-12.8714
-2.67233
-2.75911
-2.94116
-3.23694
-3.67838
-4.31777
-5.24128
-6.5967
-8.65593
-11.9748
-17.873
-30.1624
-62.5078
-174.302
-663.08
-8.57077
-8.78654
-9.23765
-9.96684
-11.0485
-12.6055
-14.8405
-18.0998
-23.0056
-30.7557
-43.8461
-67.8996
-116.182
-218.026
-407.128
-14.3199
-14.6511
-15.3415
-16.4524
-18.0891
-20.4227
-23.7289
-28.4599
-35.3806
-45.8285
-62.2059
-88.8107
-132.661
-201.155
-282.493
-19.8395
-20.2665
-21.1539
-22.5732
-24.6462
-27.5649
-31.6281
-37.2999
-45.3065
-56.784
-73.4638
-97.746
-132.024
-175.362
-214.342
-25.0629
-25.5627
-26.5972
-28.2406
-30.6161
-33.9127
-38.4106
-44.5187
-52.8221
-64.1265
-79.4421
-99.7403
-125.094
-152.593
-173.26
-29.9396
-30.488
-31.618
-33.3998
-35.9467
-39.4265
-44.0753
-50.2133
-58.2538
-68.6835
-81.9599
-98.2237
-116.674
-134.568
-146.529
-34.4359
-35.0096
-36.1866
-38.0279
-40.6298
-44.1288
-48.7059
-54.5868
-62.0268
-71.2637
-82.4026
-95.1884
-108.641
-120.664
-128.103
-38.5341
-39.1126
-40.2941
-42.128
-44.69
-48.0824
-52.4314
-57.8777
-64.552
-72.523
-81.7014
-91.6899
-101.599
-109.941
-114.843
-42.2308
-42.7972
-43.9487
-45.7227
-48.1738
-51.3717
-55.3948
-60.3159
-66.177
-72.9438
-80.4376
-88.2462
-95.646
-101.606
-104.988
-45.5343
-46.0756
-47.1714
-48.8473
-51.139
-54.0883
-57.7346
-62.1014
-67.1729
-72.8598
-78.955
-85.0863
-90.6923
-95.0616
-97.4802
-48.4621
-48.9692
-49.9915
-51.5445
-53.6478
-56.3208
-59.5742
-63.3976
-67.7413
-72.4923
-77.4472
-82.291
-86.5973
-89.8714
-91.6518
-51.038
-51.505
-52.4432
-53.8595
-55.7611
-58.1503
-61.018
-64.3325
-68.027
-71.983
-76.0163
-79.8689
-83.219
-85.7183
-87.0597
-53.2897
-53.7138
-54.563
-55.8378
-57.5358
-59.6478
-62.1514
-65.0036
-68.1309
-71.4201
-74.711
-77.7957
-80.4314
-82.3692
-83.399
-55.247
-55.6276
-56.3874
-57.5221
-59.0231
-60.8733
-63.0429
-65.4836
-68.1223
-70.856
-73.5486
-76.0341
-78.1283
-79.6504
-80.4532
-56.9401
-57.2782
-57.9514
-58.9523
-60.268
-61.8771
-63.7461
-65.826
-68.0478
-70.3205
-72.53
-74.5443
-76.2223
-77.431
-78.0648
-58.3984
-58.6963
-59.2878
-60.1639
-61.3093
-62.7004
-64.303
-66.0698
-67.9381
-69.8286
-71.6471
-73.2877
-74.6422
-75.6109
-76.1164
-59.65
-59.9105
-60.4267
-61.1887
-62.18
-63.3768
-64.7459
-66.2432
-67.8128
-69.3869
-70.8874
-72.2299
-73.3301
-74.1122
-74.5189
-60.7207
-60.9472
-61.395
-62.0541
-62.908
-63.9336
-65.0997
-66.3663
-67.6844
-68.9963
-70.2375
-71.3403
-72.2386
-72.8743
-73.2038
-61.6343
-61.8301
-62.2168
-62.7843
-63.5169
-64.3929
-65.3837
-66.4537
-67.5603
-68.6547
-69.6837
-70.5927
-71.3295
-71.8489
-72.1175
-62.412
-62.5805
-62.913
-63.3997
-64.0263
-64.7725
-65.6128
-66.5157
-67.4446
-68.3584
-69.2132
-69.9647
-70.5713
-70.9976
-71.2176
-63.0726
-63.2172
-63.502
-63.9182
-64.4525
-65.0868
-65.7983
-66.5597
-67.3395
-68.1032
-68.8144
-69.4372
-69.9383
-70.2895
-70.4705
-63.6328
-63.7565
-63.9998
-64.3547
-64.8094
-65.3475
-65.9493
-66.5909
-67.2455
-67.8843
-68.477
-68.9943
-69.4094
-69.6997
-69.849
-64.1073
-64.2127
-64.42
-64.7221
-65.1082
-65.5641
-66.0725
-66.613
-67.1627
-67.6973
-68.1919
-68.6224
-68.967
-69.2076
-69.3313
-64.5085
-64.5982
-64.7745
-65.0311
-65.3585
-65.7443
-66.1735
-66.6286
-67.0903
-67.5381
-67.9513
-68.3102
-68.5969
-68.7967
-68.8994
-64.8474
-64.9236
-65.0733
-65.2909
-65.5682
-65.8944
-66.2565
-66.6397
-67.0275
-67.4029
-67.7485
-68.048
-68.287
-68.4533
-68.5387
-65.1334
-65.198
-65.325
-65.5093
-65.7439
-66.0195
-66.325
-66.6476
-66.9735
-67.2883
-67.5776
-67.828
-68.0275
-68.1662
-68.2374
-65.3744
-65.4293
-65.5368
-65.6928
-65.8912
-66.1239
-66.3815
-66.6531
-66.9271
-67.1913
-67.4338
-67.6434
-67.8101
-67.926
-67.9854
-65.5775
-65.6239
-65.7149
-65.8469
-66.0146
-66.2111
-66.4283
-66.6571
-66.8875
-67.1094
-67.3128
-67.4884
-67.628
-67.725
-67.7746
-65.7482
-65.7875
-65.8646
-65.9762
-66.1179
-66.2839
-66.4671
-66.6599
-66.8538
-67.0404
-67.2112
-67.3585
-67.4756
-67.5568
-67.5984
-65.8918
-65.925
-65.9902
-66.0847
-66.2045
-66.3447
-66.4993
-66.6619
-66.8252
-66.9822
-67.1259
-67.2497
-67.3479
-67.4161
-67.451
-66.0122
-66.0403
-66.0955
-66.1755
-66.2769
-66.3954
-66.526
-66.6633
-66.8011
-66.9334
-67.0544
-67.1586
-67.2412
-67.2985
-67.3278
-66.113
-66.1369
-66.1837
-66.2515
-66.3373
-66.4377
-66.5482
-66.6643
-66.7807
-66.8924
-66.9945
-67.0824
-67.152
-67.2003
-67.225
-66.1973
-66.2176
-66.2573
-66.3149
-66.3877
-66.4729
-66.5666
-66.665
-66.7636
-66.8582
-66.9445
-67.0188
-67.0777
-67.1185
-67.1394
-66.2674
-66.2847
-66.3186
-66.3676
-66.4296
-66.5021
-66.5819
-66.6655
-66.7493
-66.8296
-66.9029
-66.966
-67.016
-67.0506
-67.0683
-66.3256
-66.3404
-66.3694
-66.4113
-66.4643
-66.5263
-66.5944
-66.6658
-66.7374
-66.8059
-66.8685
-66.9222
-66.9648
-66.9943
-67.0094
-66.3735
-66.3862
-66.4111
-66.4472
-66.4928
-66.5461
-66.6047
-66.6661
-66.7275
-66.7864
-66.8401
-66.8863
-66.9228
-66.9481
-66.9611
-66.4125
-66.4236
-66.4452
-66.4765
-66.5161
-66.5623
-66.613
-66.6662
-66.7195
-66.7705
-66.817
-66.8569
-66.8886
-66.9105
-66.9217
-66.4439
-66.4536
-66.4725
-66.5
-66.5347
-66.5752
-66.6197
-66.6664
-66.713
-66.7577
-66.7984
-66.8334
-66.8611
-66.8803
-66.8901
-66.4685
-66.4771
-66.494
-66.5185
-66.5493
-66.5854
-66.625
-66.6664
-66.7079
-66.7476
-66.7838
-66.8149
-66.8395
-66.8566
-66.8653
-66.4871
-66.495
-66.5103
-66.5324
-66.5604
-66.5931
-66.629
-66.6665
-66.7041
-66.74
-66.7728
-66.801
-66.8232
-66.8386
-66.8465
-66.5004
-66.5076
-66.5218
-66.5423
-66.5683
-66.5985
-66.6318
-66.6665
-66.7013
-66.7347
-66.765
-66.791
-66.8117
-66.8259
-66.8332
-66.5085
-66.5154
-66.5289
-66.5484
-66.5731
-66.6019
-66.6335
-66.6666
-66.6997
-66.7313
-66.7602
-66.7849
-66.8045
-66.8181
-66.825
-66.5119
-66.5187
-66.5319
-66.551
-66.5751
-66.6033
-66.6342
-66.6666
-66.699
-66.7299
-66.7582
-66.7824
-66.8016
-66.8148
-66.8216
-66.5106
-66.5174
-66.5307
-66.55
-66.5743
-66.6027
-66.6339
-66.6666
-66.6992
-66.7305
-66.7589
-66.7834
-66.8027
-66.8161
-66.8229
-66.5046
-66.5116
-66.5255
-66.5455
-66.5708
-66.6003
-66.6327
-66.6666
-66.7005
-66.7329
-66.7625
-66.7879
-66.808
-66.8219
-66.829
-66.4936
-66.5012
-66.5159
-66.5373
-66.5643
-66.5958
-66.6304
-66.6665
-66.7028
-66.7374
-66.769
-66.7961
-66.8175
-66.8324
-66.8399
-66.4774
-66.4857
-66.5018
-66.5252
-66.5547
-66.5891
-66.6269
-66.6665
-66.7061
-66.744
-66.7785
-66.8082
-66.8317
-66.8479
-66.8562
-66.4555
-66.4647
-66.4827
-66.5088
-66.5417
-66.5801
-66.6223
-66.6664
-66.7106
-66.753
-66.7915
-66.8246
-66.8508
-66.8689
-66.8782
-66.4272
-66.4377
-66.4581
-66.4876
-66.5249
-66.5684
-66.6163
-66.6664
-66.7165
-66.7645
-66.8083
-66.8458
-66.8756
-66.8962
-66.9067
-66.3917
-66.4037
-66.4271
-66.4609
-66.5038
-66.5538
-66.6087
-66.6662
-66.7238
-66.779
-66.8293
-66.8725
-66.9067
-66.9303
-66.9424
-66.3479
-66.3617
-66.3889
-66.4281
-66.4777
-66.5357
-66.5994
-66.6661
-66.7329
-66.7969
-66.8552
-66.9054
-66.9451
-66.9726
-66.9866
-66.2944
-66.3106
-66.3422
-66.388
-66.4459
-66.5135
-66.5879
-66.6658
-66.7439
-66.8187
-66.8869
-66.9455
-66.9919
-67.0241
-67.0405
-66.2297
-66.2487
-66.2858
-66.3394
-66.4074
-66.4867
-66.574
-66.6655
-66.7572
-66.845
-66.9252
-66.9941
-67.0487
-67.0866
-67.1059
-66.1519
-66.1742
-66.2178
-66.281
-66.361
-66.4544
-66.5572
-66.665
-66.7731
-66.8767
-66.9713
-67.0527
-67.1172
-67.1618
-67.1847
-66.0586
-66.0849
-66.1363
-66.2108
-66.3052
-66.4155
-66.5369
-66.6643
-66.7921
-66.9147
-67.0267
-67.123
-67.1993
-67.2522
-67.2793
-65.947
-65.9781
-66.0389
-66.1269
-66.2384
-66.3688
-66.5125
-66.6634
-66.8148
-66.9601
-67.0929
-67.2071
-67.2978
-67.3606
-67.3928
-65.8139
-65.8506
-65.9225
-66.0266
-66.1586
-66.313
-66.4832
-66.662
-66.8416
-67.0141
-67.1719
-67.3077
-67.4155
-67.4903
-67.5285
-65.6553
-65.6987
-65.7837
-65.9069
-66.0632
-66.2461
-66.4479
-66.6601
-66.8734
-67.0784
-67.2661
-67.4278
-67.5562
-67.6452
-67.6909
-65.4666
-65.5179
-65.6185
-65.7643
-65.9493
-66.1661
-66.4055
-66.6574
-66.9109
-67.1548
-67.3783
-67.571
-67.7241
-67.8304
-67.8848
-65.2423
-65.303
-65.4219
-65.5943
-65.8134
-66.0703
-66.3544
-66.6536
-66.955
-67.2455
-67.5118
-67.7417
-67.9246
-68.0516
-68.1166
-64.9759
-65.0476
-65.1881
-65.392
-65.6513
-65.9557
-66.2927
-66.6482
-67.0068
-67.3529
-67.6706
-67.9452
-68.1638
-68.3157
-68.3936
-64.6598
-64.7443
-64.9102
-65.1512
-65.458
-65.8185
-66.2182
-66.6406
-67.0674
-67.4799
-67.8592
-68.1876
-68.4492
-68.6313
-68.7246
-64.285
-64.3846
-64.5802
-64.8647
-65.2273
-65.654
-66.1281
-66.6298
-67.138
-67.63
-68.0833
-68.4763
-68.7899
-69.0084
-69.1205
-63.841
-63.9582
-64.1886
-64.524
-64.952
-65.4568
-66.0186
-66.6147
-67.2197
-67.8069
-68.3491
-68.8202
-69.1967
-69.4593
-69.5942
-63.3156
-63.4533
-63.7241
-64.1188
-64.6235
-65.22
-65.8854
-66.5933
-67.3138
-68.0151
-68.6643
-69.2298
-69.6826
-69.9989
-70.1615
-62.6947
-62.856
-63.1737
-63.6373
-64.2314
-64.9352
-65.7227
-66.5631
-67.4213
-68.2594
-69.0377
-69.7175
-70.2632
-70.6451
-70.8417
-61.9616
-62.1502
-62.5219
-63.0652
-63.7631
-64.5923
-65.5233
-66.5205
-67.5429
-68.5451
-69.4794
-70.2984
-70.9577
-71.42
-71.6584
-61.0977
-61.3174
-61.7508
-62.3858
-63.2037
-64.1788
-65.2779
-66.4604
-67.6784
-68.8779
-70.0013
-70.99
-71.7888
-72.3505
-72.6405
-60.0813
-60.3362
-60.8398
-61.5794
-62.5352
-63.6791
-64.9747
-66.3757
-67.8266
-69.2637
-70.6168
-71.8135
-72.7845
-73.4696
-73.824
-58.8879
-59.1823
-59.765
-60.623
-61.7359
-63.0743
-64.5982
-66.2562
-67.9846
-69.7077
-71.3407
-72.7937
-73.9788
-74.8181
-75.2535
-57.4902
-57.8284
-58.499
-59.4896
-60.7802
-62.3406
-64.1287
-66.088
-68.1461
-70.2143
-72.1896
-73.96
-75.413
-76.4472
-76.9853
-55.8576
-56.2436
-57.0107
-58.1481
-59.6371
-61.4488
-63.5402
-65.8512
-68.3006
-70.7853
-73.1807
-75.3466
-77.1379
-78.4207
-79.0908
-53.9571
-54.3944
-55.2655
-56.5624
-58.27
-60.3627
-62.7994
-65.5182
-68.4307
-71.4183
-74.3311
-76.9932
-79.2159
-80.8196
-81.6614
-51.7531
-52.244
-53.2247
-54.6916
-56.6357
-59.0379
-61.8627
-65.0506
-68.5086
-72.1033
-75.6556
-78.9449
-81.7236
-83.7475
-84.8164
-49.2083
-49.7536
-50.8463
-52.4895
-54.6833
-57.4196
-60.6741
-64.3953
-68.4916
-72.8175
-77.1627
-81.2509
-84.7554
-87.3385
-88.7135
-46.2851
-46.8831
-48.0859
-49.9051
-52.3542
-55.4415
-59.1614
-63.4796
-68.3152
-73.5182
-78.8482
-83.9622
-88.4269
-91.7682
-93.5653
-42.9467
-43.5928
-44.8975
-46.8836
-49.582
-53.0243
-57.2331
-62.2046
-67.8837
-74.1308
-80.6834
-87.1243
-92.8783
-97.2702
-99.6647
-39.1598
-39.8456
-41.2359
-43.3677
-46.2933
-50.075
-54.7754
-60.4382
-67.0576
-74.5311
-82.5962
-90.7631
-98.2752
-104.159
-107.427
-34.897
-35.6092
-37.0598
-39.3009
-42.4102
-46.4879
-51.6494
-58.0075
-65.6384
-74.5204
-84.4382
-94.8565
-104.803
-112.864
-117.458
-30.1399
-30.8604
-32.3349
-34.6314
-37.8547
-42.1484
-47.6925
-54.693
-63.3504
-73.7904
-85.9325
-99.2773
-112.639
-123.977
-130.679
-24.8827
-25.5884
-27.0395
-29.3184
-32.5562
-36.9407
-42.7245
-50.2281
-59.8244
-71.8782
-86.5915
-103.686
-121.88
-138.308
-148.553
-19.1359
-19.7991
-21.1696
-23.34
-26.4618
-30.7615
-36.5622
-44.3099
-54.592
-68.1192
-85.5965
-107.331
-132.348
-156.932
-173.541
-12.9288
-13.5191
-14.7446
-16.7011
-19.5497
-23.5401
-29.0482
-36.6321
-47.1061
-61.6169
-81.6451
-108.696
-143.115
-181.094
-210.062
-6.31238
-6.79859
-7.81234
-9.44328
-11.8452
-15.2651
-20.093
-26.9474
-36.817
-51.2833
-72.8164
-104.945
-151.409
-211.512
-266.699
0.64117
0.287772
-0.451997
-1.65048
-3.43426
-6.01266
-9.7308
-15.1692
-23.336
-36.0425
-56.6295
-91.2388
-150.232
-245.343
-361.658
7.83953
7.64186
7.22632
6.54822
5.52801
4.03072
1.82552
-1.4969
-6.70298
-15.3294
-30.7051
-60.5989
-123.971
-264.447
-537.389
15.1745
15.1466
15.0864
14.9839
14.821
14.5651
14.1571
13.4829
12.3046
10.0699
5.30086
-6.71017
-44.1649
-191.559
-902.659
22.5282
22.673
22.975
23.4609
24.1778
25.2045
26.6727
28.8118
32.045
37.2285
46.3353
64.8473
111.988
272.792
997.821
29.7804
30.0896
30.7352
31.7767
33.3189
35.5364
38.7216
43.3797
50.4301
61.6614
80.8376
116.523
189.205
345.316
642.249
36.8171
37.2718
38.2196
39.744
41.9901
45.1954
49.7466
56.2853
65.9104
80.5759
103.874
142.504
208.484
320.043
492.899
58.397
23.8012
9.91578
2.72939
-1.62383
-4.50953
-6.52697
-7.984
-9.05657
-9.8527
-10.442
-10.8705
-11.1692
-11.3582
-11.4498
36.9106
22.5938
12.1347
5.32584
0.796093
-2.33792
-4.58012
-6.2235
-7.44622
-8.36146
-9.04355
-9.54241
-9.89163
-10.1133
-10.221
25.366
18.7073
11.8187
6.3395
2.24674
-0.785576
-3.04907
-4.75505
-6.04932
-7.03201
-7.77227
-8.31807
-8.70246
-8.94753
-9.06683
18.4452
14.9801
10.5237
6.39027
2.96096
0.232865
-1.90516
-3.57244
-4.86872
-5.87083
-6.63593
-7.20572
-7.60994
-7.86893
-7.99539
13.9304
11.941
9.00444
5.95198
3.18817
0.841533
-1.08812
-2.64742
-3.89236
-4.87417
-5.63513
-6.20825
-6.61817
-6.88229
-7.01166
10.7971
9.55956
7.56551
5.31318
3.12563
1.16062
-0.528267
-1.94067
-3.09868
-4.03082
-4.76472
-5.32405
-5.72758
-5.98913
-6.11768
8.52303
7.70334
6.30587
4.62931
2.90852
1.28794
-0.160408
-1.41057
-2.4618
-3.32509
-4.01547
-4.54796
-4.93553
-5.18825
-5.3129
6.81808
6.24825
5.23995
3.97609
2.62178
1.29563
0.0698292
-1.01861
-1.95542
-2.73939
-3.37583
-3.87245
-4.23706
-4.47624
-4.59463
5.50875
5.09759
4.35144
3.38565
2.31544
1.23363
0.204671
-0.731926
-1.55514
-2.25612
-2.83323
-3.28856
-3.62565
-3.84804
-3.95851
4.48489
4.1795
3.61541
2.86766
2.01714
1.1349
0.275369
-0.523973
-1.23973
-1.85884
-2.37517
-2.78675
-3.09383
-3.29754
-3.39905
3.67305
3.44099
3.00688
2.42101
1.74085
1.02039
0.304263
-0.37406
-0.991408
-1.53292
-1.98983
-2.35747
-2.63375
-2.81797
-2.91004
3.02231
2.84276
2.50371
2.03981
1.49251
0.902863
0.3069
-0.266488
-0.79574
-1.26573
-1.66644
-1.99161
-2.23758
-2.40235
-2.48493
2.49622
2.35527
2.08719
1.71651
1.27356
0.789708
0.293857
-0.189561
-0.641218
-1.04664
-1.39549
-1.68073
-1.89777
-2.04377
-2.11713
2.06799
1.95602
1.74191
1.44338
1.08299
0.684876
0.272177
-0.13469
-0.518795
-0.866811
-1.1687
-1.4172
-1.60727
-1.73562
-1.80025
1.71748
1.62768
1.45522
1.21319