/*--------------------------------*- C++ -*----------------------------------*\
| =========                 |                                                 |
| \\      /  F ield         | OpenFOAM: The Open Source CFD Toolbox           |
|  \\    /   O peration     | Version:  5.x                                   |
|   \\  /    A nd           | Web:      www.OpenFOAM.org                      |
|    \\/     M anipulation  |                                                 |
\*---------------------------------------------------------------------------*/
FoamFile
{
    version     2.0;
    format      ascii;
    class       volScalarField;
    location    "8.9";
    object      T;
}
// * * * * * * * * * * * * * * * * * * * * * * * * * * * * * * * * * * * * * //

dimensions      [0 0 0 1 0 0 0];

internalField   nonuniform List<scalar> 
6300
(
10.2945
10.8859
11.4843
12.094
12.7195
13.3645
14.0324
14.7261
15.4475
16.1976
16.9761
17.7816
18.6113
19.4609
20.3252
10.2922
10.879
11.4728
12.0783
12.6998
13.3414
14.0066
14.6983
15.4188
16.169
16.949
17.7573
18.5911
19.446
20.3166
10.2875
10.8649
11.4497
12.0465
12.6601
13.2947
13.9541
14.6417
15.36
16.1105
16.8933
17.7073
18.5495
19.4153
20.2987
10.2803
10.8435
11.4144
11.998
12.5993
13.2229
13.8733
14.5543
15.269
16.0194
16.8064
17.6289
18.484
19.3669
20.2704
10.2705
10.8143
11.3663
11.9317
12.516
13.1244
13.7619
14.4331
15.1421
15.8917
16.6837
17.5176
18.3907
19.2974
20.2297
10.2581
10.7771
11.3046
11.8465
12.4086
12.9966
13.6166
14.2741
14.9743
15.7216
16.5189
17.367
18.2634
19.2023
20.1736
10.2427
10.7312
11.2286
11.7411
12.275
12.8369
13.4337
14.0722
14.7593
15.5013
16.3033
17.1678
18.0936
19.0744
20.0979
10.2244
10.6763
11.1375
11.6143
12.1135
12.6424
13.2089
13.8215
14.4892
15.221
16.025
16.9071
17.8686
18.9035
19.9968
10.2031
10.6122
11.0307
11.4649
11.9221
12.4101
12.9379
13.5157
14.1549
14.8682
15.6685
16.5669
17.5699
18.6742
19.8613
10.1786
10.5388
10.908
11.2926
11.6999
12.138
12.6169
13.1482
13.7464
14.4284
15.2136
16.1219
17.1698
18.3616
19.6776
10.1512
10.4564
10.7699
11.0977
11.4467
11.8251
12.2432
12.7139
13.254
13.8853
14.6353
15.5372
16.6257
17.9247
19.4221
10.1212
10.3658
10.6174
10.8815
11.1639
11.4725
11.8168
12.2101
12.6704
13.2233
13.9049
14.7657
15.8709
17.2892
19.0482
10.0887
10.268
10.4526
10.6467
10.8551
11.084
11.3415
11.6392
11.9941
12.4324
12.9953
13.7497
14.8029
16.3127
18.4466
10.0546
10.1648
10.2783
10.3977
10.5258
10.6667
10.8258
11.011
11.2345
11.5168
11.894
12.4349
13.278
14.7118
17.2943
10.0193
10.0583
10.0982
10.1397
10.1837
10.2313
10.284
10.3443
10.4159
10.5061
10.629
10.8176
11.1624
11.9621
14.3978
21.1251
21.8538
22.5798
23.299
24.0076
24.702
25.3789
26.0354
26.6691
27.2779
27.8602
28.4145
28.9398
29.4352
29.9002
30.3342
30.737
31.1082
31.4479
31.7561
32.0328
32.2783
32.4927
32.6765
32.83
32.9536
33.0478
33.1131
33.1502
33.1594
33.1415
33.097
33.0265
32.9307
32.81
32.6652
32.4968
32.3053
32.0915
31.8558
31.599
31.3215
31.0241
30.7073
30.3717
30.0179
29.6466
29.2582
28.8534
28.4326
27.9963
27.5451
27.0792
26.5992
26.1055
25.5986
25.079
24.5471
24.0034
23.4485
22.883
22.3074
21.7224
21.1284
20.5261
19.9161
19.2991
18.6758
18.0469
17.4132
16.7757
16.1355
15.4936
14.8513
14.21
13.5711
12.9362
12.3069
11.6848
11.0716
10.4688
9.87801
9.30079
8.7385
8.1924
7.6636
7.15302
6.66136
6.1891
5.73648
21.1228
21.8573
22.5892
23.314
24.0278
24.7269
25.4079
26.0679
26.7046
27.3158
27.9
28.4559
28.9824
29.4787
29.9443
30.3788
30.7818
31.1532
31.4929
31.8009
32.0774
32.3225
32.5364
32.7196
32.8725
32.9954
33.0889
33.1534
33.1896
33.198
33.1793
33.1339
33.0626
32.9659
32.8444
32.6987
32.5294
32.3371
32.1224
31.8859
31.6281
31.3498
31.0515
30.7338
30.3973
30.0427
29.6706
29.2815
28.8759
28.4544
28.0175
27.5656
27.0991
26.6185
26.1241
25.6166
25.0962
24.5636
24.0191
23.4635
22.8972
22.3207
21.7348
21.14
20.5368
19.9259
19.3079
18.6835
18.0534
17.4184
16.7795
16.1376
15.4939
14.8496
14.2062
13.5651
12.928
12.2963
11.6719
11.0563
10.4512
9.85835
9.27913
8.71503
8.16735
7.63723
7.12564
6.6333
6.16073
5.70814
21.1179
21.8645
22.6083
23.3446
24.069
24.7775
25.4667
26.1338
26.7762
27.3922
27.9802
28.5391
29.0679
29.566
30.0329
30.4682
30.8718
31.2434
31.583
31.8907
32.1666
32.4109
32.6239
32.806
32.9576
33.0791
33.171
33.234
33.2685
33.2753
33.2548
33.2077
33.1346
33.0362
32.9129
32.7656
32.5946
32.4006
32.1842
31.9459
31.6864
31.4063
31.1062
30.7868
30.4486
30.0923
29.7186
29.3279
28.9209
28.498
28.0598
27.6066
27.1388
26.657
26.1614
25.6525
25.1307
24.5966
24.0506
23.4933
22.9254
22.3473
21.7597
21.1632
20.5582
19.9455
19.3256
18.699
18.0666
17.429
16.7871
16.142
15.4947
14.8465
14.1988
13.5533
12.9115
12.2751
11.6459
11.0257
10.416
9.8188
9.23553
8.66775
8.11684
7.58405
7.07039
6.57668
6.10345
5.65095
21.1099
21.8755
22.638
23.392
24.1326
24.8555
25.5572
26.2346
26.8857
27.5086
28.102
28.6651
29.1972
29.6978
30.1664
30.603
31.0072
31.3791
31.7186
32.0257
32.3008
32.5439
32.7555
32.9358
33.0854
33.2048
33.2944
33.355
33.387
33.3911
33.368
33.3183
33.2427
33.1416
33.0158
32.8659
32.6924
32.4958
32.2769
32.036
31.7739
31.4911
31.1883
30.8662
30.5254
30.1666
29.7904
29.3974
28.9882
28.5633
28.1231
27.6681
27.1985
26.7148
26.2173
25.7064
25.1826
24.6462
24.0979
23.5382
22.9678
22.3872
21.7971
21.1981
20.5906
19.9752
19.3524
18.7228
18.0869
17.4455
16.7992
16.1492
15.4964
14.8423
14.1882
13.5359
12.887
12.2434
11.6069
10.9795
10.3629
9.75896
9.16946
8.59601
8.04012
7.50316
6.9863
6.49044
6.01621
5.56388
21.0981
21.8907
22.6796
23.4584
24.2214
24.9638
25.682
26.3732
27.0353
27.6669
28.2671
28.8355
29.3715
29.875
30.3458
30.7838
31.1888
31.561
31.9002
32.2066
32.4804
32.7219
32.9314
33.1094
33.2563
33.3727
33.4592
33.5165
33.5451
33.5457
33.5191
33.4659
33.3867
33.2822
33.153
32.9997
32.8228
32.6229
32.4005
32.1562
31.8906
31.6042
31.2978
30.9721
30.6277
30.2653
29.8858
29.4897
29.0776
28.65
28.2074
27.75
27.2781
26.7921
26.2921
25.7786
25.252
24.7126
24.1612
23.5982
23.0244
22.4405
21.8471
21.2447
20.6339
20.0151
19.3888
18.7552
18.115
17.4685
16.8165
16.16
15.4999
14.8377
14.1749
13.5132
12.8546
12.2011
11.5547
10.9174
10.2913
9.6782
9.08011
8.49881
7.93599
7.39321
6.87184
6.37295
5.89732
5.44527
21.0816
21.911
22.7355
23.5472
24.3394
25.1068
25.8456
26.5533
27.2283
27.8699
28.4778
29.0519
29.5922
30.0989
30.572
31.0115
31.4175
31.7898
32.1286
32.4339
32.7061
32.9455
33.1523
33.3272
33.4706
33.5832
33.6657
33.7187
33.7429
33.7391
33.708
33.6503
33.5666
33.4578
33.3243
33.1668
32.9858
32.7818
32.5552
32.3067
32.0366
31.7457
31.4347
31.1042
30.7552
30.3884
30.0046
29.6046
29.1889
28.758
28.3124
27.8522
27.3777
26.8889
26.386
25.8694
25.3392
24.7961
24.2405
23.6734
23.0953
22.5071
21.9095
21.3031
20.6884
20.0656
19.4351
18.797
18.1516
17.4992
16.8402
16.1755
15.5062
14.8336
14.1596
13.4859
12.8148
12.1485
11.4892
10.8391
10.2006
9.57569
8.96644
8.37486
7.80287
7.25232
6.72485
6.22188
5.74436
5.29275
21.0593
21.9379
22.8095
23.6638
24.4927
25.2905
26.0536
26.78
27.4692
28.1212
28.7368
29.3165
29.861
30.3708
30.8462
31.2872
31.694
32.0664
32.4046
32.7086
32.9787
33.2153
33.4188
33.5897
33.7288
33.8367
33.9141
33.9619
33.9807
33.9713
33.9346
33.8714
33.7824
33.6683
33.5298
33.3674
33.1815
32.9727
32.7412
32.4875
32.2122
31.9157
31.599
31.2627
30.9079
30.5355
30.1464
29.7415
29.3215
28.8869
28.4379
27.9747
27.4973
27.0055
26.4994
25.9791
25.4447
24.8969
24.3363
23.7638
23.1804
22.5869
21.9843
21.3732
20.754
20.127
19.492
18.8491
18.1981
17.5389
16.8718
16.1975
15.5169
14.8316
14.1435
13.4547
12.7679
12.0854
11.41
10.7441
10.0902
9.45046
8.82718
8.22254
7.63876
7.07803
6.5425
6.03403
5.55401
5.10307
21.0302
21.9748
22.9081
23.8166
24.6906
25.524
26.314
27.06
27.763
28.4247
29.0469
29.6314
30.1794
30.6919
31.1694
31.6119
32.0195
32.392
32.7293
33.0317
33.2992
33.5323
33.7315
33.8977
34.0314
34.1335
34.2048
34.2462
34.2584
34.2424
34.199
34.1292
34.0338
33.9136
33.7692
33.6011
33.4098
33.1956
32.9586
32.6991
32.4176
32.1146
31.7908
31.4474
31.0854
30.706
30.3105
29.8998
29.4747
29.0359
28.5834
28.1173
27.6371
27.1424
26.6329
26.1085
25.5693
25.0158
24.4488
23.8697
23.2795
22.6795
22.071
21.4545
20.8306
20.1993
19.5601
18.9126
18.256
17.5897
16.9136
16.2281
15.5341
14.8333
14.1279
13.4206
12.7143
12.0121
11.317
10.6318
9.9591
9.30137
8.66091
8.04006
7.4413
6.86735
6.32105
5.80512
5.32168
4.87174
20.9935
22.0275
23.0421
24.0189
24.9466
25.8197
26.6373
27.4016
28.1161
28.7846
29.411
29.9983
30.5485
31.063
31.5423
31.9864
32.395
32.7676
33.1041
33.4043
33.6686
33.8975
34.0916
34.2518
34.379
34.4742
34.5381
34.5719
34.5762
34.5523
34.5009
34.4233
34.3204
34.1931
34.0421
33.8678
33.6707
33.4506
33.2077
32.9419
32.6534
32.3427
32.0106
31.6584
31.2874
30.8994
30.4958
30.0782
29.6474
29.2041
28.7483
28.2796
27.7972
27.3001
26.7875
26.2588
25.7139
25.1535
24.5786
23.9909
23.3922
22.7842
22.1686
21.5462
20.9176
20.2825
19.64
18.9888
18.3274
17.6543
16.9687
16.2706
15.5609
14.8415
14.115
13.3848
12.6547
11.9284
11.2095
10.5012
9.8063
9.12724
8.46627
7.82563
7.20799
6.61672
6.05577
5.52933
5.04099
4.59255
20.9497
22.1079
23.2302
24.2917
25.2807
26.1947
27.0372
27.8146
28.5347
29.2048
29.8311
30.4181
30.9687
31.4844
31.9655
32.4116
32.8217
33.1948
33.5304
33.8283
34.0886
34.3121
34.4998
34.6528
34.7722
34.8592
34.9145
34.9393
34.9344
34.9009
34.8402
34.7534
34.6417
34.5062
34.3478
34.167
33.9639
33.7382
33.4893
33.2169
32.9207
32.601
32.2589
31.8957
31.5135
31.1145
30.701
30.2749
29.8376
29.3897
28.9311
28.4611
27.978
27.4799
26.9649
26.4318
25.8805
25.3115
24.7265
24.1277
23.5178
22.8996
22.2754
21.6466
21.0136
20.3759
19.732
19.0795
18.4153
17.7366
17.0415
16.3295
15.6014
14.8594
14.107
13.3486
12.5893
11.8338
11.0866
10.3511
9.6305
8.92691
8.24217
7.57792
6.93659
6.32231
5.74067
5.19857
4.70274
4.25661
20.9029
22.2398
23.5055
24.6687
25.7225
26.6725
27.5304
28.3098
29.0248
29.6877
30.3073
30.8899
31.4386
31.955
32.4387
32.8882
33.3011
33.6757
34.0106
34.3056
34.5611
34.7779
34.9576
35.1017
35.2118
35.289
35.3344
35.3488
35.3331
35.2884
35.2164
35.1186
34.9966
34.8519
34.6853
34.4977
34.289
34.0584
33.8044
33.5256
33.2211
32.8912
32.5369
32.1599
31.7632
31.35
30.9237
30.4873
30.0426
29.5902
29.1301
28.6608
28.1799
27.6834
27.1677
26.6308
26.072
25.4923
24.8937
24.2799
23.6549
23.0233
22.3884
21.7525
21.1159
20.478
19.8362
19.1866
18.5238
17.8421
17.1384
16.4113
15.6617
14.8922
14.1075
13.3136
12.5181
11.7272
10.9464
10.1796
9.42996
8.69925
7.98844
7.29706
6.62612
5.98076
5.36853
4.8011
4.29285
3.85065
20.8691
22.4742
23.9278
25.203
26.3135
27.2824
28.1361
28.8974
29.5897
30.2325
30.8366
31.4099
31.9545
32.4724
32.9606
33.417
33.8353
34.2131
34.5478
34.8395
35.0886
35.2968
35.466
35.5989
35.698
35.7643
35.7985
35.8011
35.7728
35.7149
35.6291
35.5181
35.3838
35.2283
35.0527
34.8584
34.645
34.4118
34.1549
33.8706
33.5578
33.2159
32.8469
32.4521
32.0364
31.6036
31.1608
30.7111
30.258
29.8014
29.3419
28.877
28.4037
27.9141
27.4007
26.8609
26.2931
25.6997
25.0825
24.448
23.801
23.1513
22.5026
21.8591
21.2199
20.5853
19.9511
19.3127
18.6589
17.979
17.2688
16.5252
15.7506
14.9464
14.1208
13.2807
12.4401
11.6057
10.786
9.98305
9.20204
8.44281
7.70661
6.98662
6.27873
5.59141
4.93181
4.31831
3.78778
3.35369
20.9075
22.9263
24.6069
25.9738
27.1083
28.0577
28.8747
29.5838
30.2253
30.8326
31.4099
31.9706
32.5086
33.0317
33.5281
34
34.4274
34.8122
35.1461
35.4344
35.6743
35.8713
36.0261
36.1444
36.231
36.2853
36.3075
36.2974
36.2545
36.1811
36.0776
35.9507
35.8007
35.6331
35.4465
35.2461
35.0291
34.7986
34.5444
34.2559
33.936
33.5792
33.1934
32.774
32.3336
31.8711
31.4072
30.9393
30.478
30.0161
29.5611
29.1047
28.6504
28.1789
27.671
27.1311
26.5505
25.9411
25.296
24.6333
23.9508
23.2775
22.609
21.959
21.3169
20.6917
20.0717
19.4604
18.8316
18.159
17.4472
16.6834
15.8817
15.0312
14.1547
13.2484
12.3528
11.4631
10.6011
9.75476
8.9426
8.15302
7.40129
6.65864
5.90158
5.16203
4.42858
3.71598
3.14374
2.73056
21.2601
23.8649
25.7374
27.0791
28.1693
29.0231
29.7681
30.3673
30.9099
31.4754
32.0064
32.5638
33.0836
33.6292
34.1304
34.6464
35.0803
35.4842
35.8096
36.0984
36.3214
36.5062
36.6381
36.7349
36.8098
36.8518
36.8626
36.8405
36.7797
36.6901
36.559
36.4162
36.2425
36.0648
35.8596
35.657
35.432
35.2189
34.9828
34.686
34.3666
33.9839
33.5876
33.1255
32.6623
32.1401
31.6587
31.1577
30.6983
30.2205
29.7817
29.3289
28.9213
28.4956
27.9868
27.4595
26.8488
26.2335
25.5342
24.8469
24.087
23.3961
22.6885
22.0471
21.389
20.7904
20.1793
19.633
19.0671
18.395
17.7
16.8959
16.0826
15.1533
14.2314
13.2004
12.257
11.2802
10.3935
9.47709
8.65049
7.80859
7.08278
6.35131
5.49911
4.72379
3.89526
2.91148
2.27059
1.91968
23.0532
25.8577
27.6322
28.5458
29.5705
30.1446
30.8713
31.2318
31.5609
32.1675
32.5646
33.2104
33.6209
34.2903
34.7108
35.4104
35.7762
36.2684
36.5254
36.8565
37.023
37.2166
37.3002
37.3565
37.4355
37.4625
37.4647
37.4386
37.3456
37.2583
37.0569
36.9254
36.6892
36.5357
36.2684
36.0994
35.8174
35.6719
35.508
35.148
34.8879
34.4075
34.076
33.4782
33.0753
32.3498
31.9379
31.3159
30.9443
30.3683
30.0218
29.4878
29.2176
28.9315
28.329
27.9072
27.1537
26.6461
25.7547
25.1645
24.1233
23.5386
22.6721
22.1588
21.3751
20.9067
20.1935
19.8333
19.455
18.6638
18.1098
17.1213
16.4504
15.2645
14.4649
13.0261
12.2091
10.9672
10.2286
9.06993
8.38027
7.29684
6.77227
6.21771
4.98583
4.36208
3.58542
1.61318
0.979826
0.81097
5.26015
4.76834
4.30341
3.864
3.44846
3.05486
2.68111
2.32506
1.98448
1.65718
1.34099
1.03379
0.733523
0.438162
0.145729
5.23225
4.74138
4.2778
3.84008
3.42646
3.03494
2.66338
2.30954
1.97116
1.64604
1.33197
1.02685
0.728601
0.435225
0.144753
5.17596
4.68705
4.22625
3.79198
3.38229
2.99503
2.62788
2.2785
1.94457
1.6238
1.31399
1.01301
0.718797
0.429377
0.14281
5.09033
4.60451
4.1481
3.71923
3.31565
2.93493
2.57455
2.23199
1.90478
1.59059
1.28716
0.992371
0.70419
0.420668
0.139916
4.97383
4.49248
4.04234
3.6211
3.22609
2.85446
2.50337
2.17007
1.85195
1.54657
1.25167
0.965112
0.684913
0.409181
0.136101
4.8243
4.34916
3.90762
3.4967
3.11308
2.75339
2.41435
2.09293
1.78634
1.49206
1.2078
0.931477
0.661155
0.395036
0.131404
4.63878
4.17216
3.7422
3.34493
2.9761
2.63161
2.30767
2.00092
1.70839
1.42751
1.15599
0.891822
0.633183
0.378396
0.125882
4.41331
3.95842
3.54404
3.16465
2.81473
2.48923
2.18377
1.89465
1.61877
1.35356
1.0968
0.846621
0.601348
0.359477
0.119605
4.14256
3.70409
3.31081
2.95484
2.62889
2.32677
2.04349
1.7751
1.51847
1.27112
1.03102
0.796498
0.566102
0.33855
0.112667
3.8193
3.40451
3.04023
2.71498
2.41917
2.14543
1.88829
1.64375
1.40886
1.1814
0.95965
0.742233
0.528
0.31595
0.105177
3.4337
3.05434
2.73056
2.44561
2.18733
1.94745
1.72046
1.50273
1.2918
1.08595
0.883928
0.684771
0.487705
0.292068
0.0972648
2.97253
2.64855
2.38201
2.14954
1.93707
1.73653
1.54334
1.35489
1.16964
0.986657
0.805322
0.625205
0.445974
0.267348
0.089077
2.41946
2.18529
1.99935
1.83342
1.67484
1.51822
1.36145
1.20382
1.0452
0.885694
0.725484
0.564743
0.403628
0.242268
0.0807707
1.76115
1.67375
1.59663
1.50994
1.41062
1.30005
1.18041
1.05371
0.921614
0.785423
0.646164
0.504646
0.36152
0.217321
0.0725071
1.01727
1.1519
1.20344
1.19905
1.15762
1.09092
1.00639
0.908986
0.802109
0.688206
0.56909
0.446149
0.32048
0.192985
0.0644423
9.98674
9.95981
9.93156
9.90099
9.86682
9.82742
9.78047
9.72259
9.64853
9.54947
9.40904
9.19201
8.80579
7.94186
5.31975
9.95741
9.87117
9.78168
9.68642
9.58234
9.46545
9.33023
9.16864
8.96824
8.70853
8.35312
7.83161
6.99513
5.50796
2.6346
9.92881
9.7848
9.63579
9.47797
9.30674
9.11618
8.89828
8.64161
8.32908
7.93399
7.41251
6.68987
5.6363
4.03666
1.61321
9.90133
9.70188
9.496
9.27881
9.04453
8.78588
8.49323
8.15332
7.74724
7.24719
6.61156
5.77791
4.65664
3.13744
1.1494
9.8753
9.62344
9.36405
9.0915
8.79923
8.47918
8.12098
7.71096
7.23061
6.65452
5.94807
5.06568
3.95327
2.5638
0.901405
9.85098
9.55023
9.24122
8.91787
8.57322
8.19893
7.78469
7.31743
6.78043
6.15235
5.40676
4.51315
3.44228
2.17967
0.750912
9.82853
9.48275
9.12834
8.75902
8.36778
7.94643
7.4852
6.97231
6.39347
5.73177
4.96819
4.08372
3.06443
1.91091
0.651157
9.80805
9.42127
9.02579
8.61539
8.18323
7.72159
7.22159
6.67296
6.06403
5.38192
4.61357
3.74789
2.77977
1.71591
0.580957
9.78955
9.36584
8.9336
8.48686
8.01915
7.52339
6.99172
6.41549
5.7854
5.09195
4.32652
3.4832
2.5616
1.57028
0.529476
9.773
9.31631
8.85149
8.37288
7.87454
7.3501
6.79278
6.19541
5.55075
4.85195
4.09355
3.27285
2.39183
1.45901
0.490595
9.75832
9.27244
8.77894
8.27261
7.74805
7.19965
6.62163
6.00817
5.35368
4.65334
3.90383
3.1044
2.25801
1.37245
0.460586
9.74539
9.23385
8.71529
8.18498
7.6381
7.06976
6.47509
5.8494
5.18844
4.48886
3.74878
2.96854
2.15141
1.30416
0.437039
9.73408
9.20012
8.6598
8.10886
7.54305
6.95815
6.35009
5.71512
5.05002
4.3525
3.62162
2.85828
2.06571
1.24966
0.418323
9.72424
9.17082
8.61169
8.04307
7.46125
6.86261
6.24378
5.60175
4.93411
4.2393
3.51699
2.76833
1.99631
1.20577
0.403297
9.71572
9.14548
8.57016
7.98645
7.39111
6.78109
6.15357
5.50616
4.83705
4.14521
3.43064
2.69461
1.93976
1.17016
0.391136
9.70838
9.12365
8.53446
7.93789
7.33118
6.71171
6.07717
5.42565
4.75577
4.06689
3.3592
2.63394
1.89345
1.1411
0.381228
9.70208
9.10492
8.50387
7.89639
7.28009
6.65279
6.01256
5.35787
4.68769
4.00162
3.29996
2.58387
1.85536
1.11727
0.373113
9.69668
9.0889
8.47774
7.861
7.23666
6.60284
5.95798
5.30085
4.63066
3.94716
3.25073
2.54241
1.82392
1.09764
0.366439
9.69207
9.07524
8.45547
7.8309
7.19979
6.56057
5.91193
5.25289
4.58285
3.90169
3.20976
2.50801
1.79791
1.08142
0.360929
9.68815
9.06361
8.43654
7.80535
7.16855
6.52482
5.8731
5.21257
4.54278
3.86368
3.17561
2.47941
1.77632
1.06798
0.356368
9.68482
9.05373
8.42048
7.78369
7.14211
6.49464
5.84037
5.17867
4.50918
3.83188
3.14712
2.45559
1.75837
1.05683
0.352582
9.68199
9.04535
8.40686
7.76536
7.11977
6.46917
5.81282
5.15018
4.481
3.80527
3.12331
2.43573
1.74343
1.04755
0.349435
9.6796
9.03826
8.39534
7.74986
7.1009
6.44769
5.78962
5.12624
4.45736
3.78299
3.10341
2.41915
1.73097
1.03981
0.346813
9.67757
9.03226
8.38561
7.73677
7.08499
6.4296
5.7701
5.10613
4.43753
3.76432
3.08677
2.4053
1.72056
1.03336
0.344627
9.67586
9.02719
8.37739
7.72573
7.07157
6.41436
5.75368
5.08923
4.42089
3.74868
3.07283
2.39371
1.71187
1.02797
0.342802
9.67441
9.02292
8.37045
7.71642
7.06027
6.40154
5.73988
5.07504
4.40693
3.73557
3.06116
2.38402
1.7046
1.02347
0.341277
9.6732
9.01931
8.36461
7.70858
7.05076
6.39076
5.72828
5.06313
4.39521
3.72458
3.05139
2.37591
1.69852
1.01971
0.340002
9.67217
9.01628
8.35969
7.70198
7.04276
6.38169
5.71853
5.05312
4.38539
3.71537
3.0432
2.36912
1.69344
1.01656
0.338936
9.67131
9.01373
8.35556
7.69644
7.03603
6.37408
5.71036
5.04473
4.37716
3.70766
3.03635
2.36343
1.68918
1.01392
0.338044
9.67058
9.01158
8.35208
7.69178
7.03039
6.36769
5.7035
5.0377
4.37026
3.7012
3.03061
2.35868
1.68562
1.01172
0.337299
9.66997
9.00978
8.34917
7.68787
7.02566
6.36233
5.69775
5.03181
4.36449
3.69579
3.02582
2.3547
1.68265
1.00988
0.336676
9.66947
9.00827
8.34673
7.6846
7.0217
6.35785
5.69294
5.02689
4.35966
3.69128
3.02181
2.35139
1.68016
1.00834
0.336156
9.66904
9.00702
8.34469
7.68187
7.01839
6.35411
5.68893
5.02278
4.35563
3.68751
3.01847
2.34862
1.67809
1.00706
0.335723
9.66868
9.00597
8.34299
7.67959
7.01564
6.351
5.6856
5.01936
4.35229
3.68438
3.0157
2.34632
1.67638
1.006
0.335364
9.66839
9.0051
8.34158
7.67771
7.01336
6.34842
5.68283
5.01654
4.34952
3.68179
3.0134
2.34442
1.67495
1.00512
0.335066
9.66815
9.00438
8.34042
7.67616
7.01148
6.3463
5.68056
5.01421
4.34724
3.67966
3.01151
2.34286
1.67378
1.0044
0.334822
9.66795
9.0038
8.33948
7.67489
7.00995
6.34457
5.67871
5.01231
4.34538
3.67792
3.00997
2.34158
1.67283
1.00381
0.334623
9.66779
9.00333
8.33872
7.67388
7.00872
6.34318
5.67722
5.01079
4.34389
3.67653
3.00874
2.34056
1.67207
1.00334
0.334463
9.66767
9.00296
8.33813
7.67308
7.00776
6.34209
5.67605
5.00959
4.34272
3.67544
3.00777
2.33976
1.67147
1.00297
0.334337
9.66757
9.00268
8.33767
7.67248
7.00703
6.34127
5.67517
5.00869
4.34184
3.67461
3.00703
2.33915
1.67102
1.00269
0.334243
9.66751
9.00249
8.33736
7.67205
7.00651
6.34068
5.67454
5.00805
4.34121
3.67402
3.00652
2.33872
1.67069
1.00249
0.334175
9.66747
9.00236
8.33716
7.67179
7.00619
6.34032
5.67415
5.00765
4.34082
3.67366
3.00619
2.33846
1.6705
1.00237
0.334134
9.66745
9.00231
8.33708
7.67168
7.00606
6.34017
5.67399
5.00749
4.34066
3.67351
3.00606
2.33835
1.67041
1.00232
0.334117
9.66746
9.00233
8.33711
7.67172
7.00611
6.34023
5.67405
5.00755
4.34072
3.67357
3.00611
2.33839
1.67044
1.00234
0.334123
9.66749
9.00242
8.33725
7.67191
7.00634
6.3405
5.67434
5.00784
4.34101
3.67383
3.00635
2.33858
1.67059
1.00243
0.334154
9.66754
9.00259
8.33752
7.67227
7.00677
6.34098
5.67486
5.00837
4.34153
3.67432
3.00678
2.33894
1.67086
1.00259
0.334209
9.66762
9.00283
8.33791
7.67279
7.00741
6.3417
5.67562
5.00916
4.34229
3.67504
3.00741
2.33947
1.67125
1.00283
0.334292
9.66773
9.00316
8.33844
7.6735
7.00826
6.34267
5.67666
5.01022
4.34333
3.67601
3.00827
2.34018
1.67178
1.00316
0.334403
9.66788
9.00358
8.33912
7.67442
7.00937
6.34392
5.678
5.01159
4.34468
3.67726
3.00939
2.3411
1.67247
1.00359
0.334547
9.66806
9.00411
8.33998
7.67557
7.01076
6.34549
5.67969
5.01332
4.34636
3.67884
3.01078
2.34225
1.67333
1.00412
0.334728
9.66828
9.00476
8.34104
7.67699
7.01248
6.34743
5.68177
5.01545
4.34845
3.68079
3.01251
2.34368
1.6744
1.00478
0.334951
9.66855
9.00556
8.34234
7.67872
7.01458
6.3498
5.68431
5.01804
4.35099
3.68316
3.01462
2.34543
1.67571
1.00559
0.335224
9.66888
9.00653
8.3439
7.68081
7.01711
6.35267
5.68738
5.02119
4.35407
3.68604
3.01717
2.34754
1.67728
1.00656
0.335554
9.66927
9.00769
8.34578
7.68334
7.02017
6.35612
5.69108
5.02497
4.35778
3.68951
3.02024
2.35008
1.67919
1.00774
0.335952
9.66974
9.00909
8.34804
7.68636
7.02383
6.36026
5.69552
5.02952
4.36223
3.69368
3.02394
2.35314
1.68148
1.00916
0.336431
9.6703
9.01076
8.35074
7.68998
7.02821
6.36521
5.70083
5.03496
4.36756
3.69866
3.02836
2.35681
1.68422
1.01085
0.337004
9.67098
9.01274
8.35396
7.6943
7.03343
6.37112
5.70717
5.04146
4.37393
3.70463
3.03365
2.36119
1.6875
1.01288
0.337691
9.67178
9.01512
8.3578
7.69944
7.03967
6.37818
5.71474
5.04922
4.38154
3.71175
3.03997
2.36643
1.69142
1.01531
0.338512
9.67273
9.01794
8.36237
7.70557
7.04709
6.38658
5.72377
5.05847
4.39062
3.72025
3.04752
2.37269
1.6961
1.0182
0.339493
9.67386
9.02129
8.36781
7.71285
7.05592
6.39658
5.73451
5.0695
4.40144
3.73039
3.05653
2.38016
1.7017
1.02167
0.340665
9.67521
9.02527
8.37426
7.72151
7.06642
6.40848
5.74731
5.08263
4.41434
3.74249
3.06728
2.38908
1.70838
1.02581
0.342067
9.67681
9.03
8.38192
7.73179
7.0789
6.42263
5.76253
5.09827
4.42972
3.75692
3.08012
2.39974
1.71637
1.03075
0.343741
9.6787
9.0356
8.39101
7.74399
7.09371
6.43945
5.78063
5.11689
4.44804
3.77413
3.09544
2.41246
1.72591
1.03667
0.345744
9.68094
9.04224
8.40178
7.75846
7.1113
6.45942
5.80216
5.13905
4.46987
3.79466
3.11373
2.42768
1.73733
1.04374
0.348142
9.6836
9.05009
8.41453
7.77561
7.13215
6.48314
5.82775
5.16543
4.49589
3.81915
3.13559
2.44587
1.75099
1.05222
0.351014
9.68673
9.05938
8.42961
7.7959
7.15686
6.51128
5.85816
5.19682
4.5269
3.84839
3.16171
2.46764
1.76736
1.06238
0.354458
9.69043
9.07034
8.44742
7.8199
7.18612
6.54464
5.89427
5.23417
4.56386
3.88332
3.19296
2.49373
1.787
1.07457
0.358594
9.69479
9.08326
8.46844
7.84824
7.22072
6.58417
5.93715
5.27861
4.60794
3.92504
3.23038
2.52501
1.81058
1.08924
0.363571
9.69991
9.09846
8.49319
7.88166
7.2616
6.63096
5.98802
5.33147
4.66051
3.97493
3.27523
2.5626
1.83896
1.10691
0.369571
9.70593
9.11631
8.52228
7.92101
7.30982
6.68629
6.04834
5.39433
4.72321
4.03464
3.32906
2.60782
1.87318
1.12825
0.376822
9.71297
9.13722
8.55641
7.96724
7.36661
6.75164
6.1198
5.46907
4.79804
4.10614
3.39376
2.66235
1.91456
1.15409
0.385613
9.7212
9.16165
8.59632
8.02144
7.43336
6.82869
6.20439
5.55789
4.88736
4.19188
3.47166
2.72826
1.96472
1.1855
0.39631
9.73076
9.1901
8.64287
8.08479
7.51163
6.91938
6.30437
5.6634
4.99401
4.29478
3.56564
2.80816
2.02578
1.22384
0.409385
9.74185
9.22309
8.69697
8.1586
7.60314
7.02588
6.42238
5.78863
5.12137
4.41846
3.6793
2.90534
2.10041
1.27087
0.425456
9.75464
9.26119
8.75957
8.24427
7.70978
7.1506
6.56139
5.93712
5.27348
4.56729
3.81713
3.02404
2.19211
1.32893
0.445343
9.76932
9.30498
8.83166
8.34326
7.83356
7.29618
6.72473
6.11295
5.45513
4.74665
3.98477
3.16968
2.30552
1.40115
0.47016
9.78607
9.355
8.91421
8.45705
7.97654
7.46541
6.91605
6.32074
5.67196
4.96307
4.18935
3.3494
2.44686
1.49184
0.501457
9.80505
9.41175
9.00814
8.58703
8.14079
7.66117
7.13929
6.56566
5.93052
5.22451
4.4399
3.57258
2.62464
1.60708
0.541458
9.8264
9.47566
9.11421
8.73447
8.3282
7.88626
7.39844
6.85328
6.23829
5.54051
4.74788
3.85174
2.85075
1.75569
0.593469
9.85019
9.54701
9.23298
8.90031
8.54036
8.14322
7.69739
7.18937
6.60353
5.92236
5.12772
4.20371
3.14217
1.95093
0.662641
9.87646
9.62589
9.36469
9.0851
8.77832
8.43397
8.03951
7.57949
7.03494
6.383
5.59738
4.65117
3.52366
2.21356
0.757498
9.90514
9.71215
9.50915
9.28875
9.04235
8.75952
8.42713
8.02827
7.54093
6.93643
6.17854
5.2245
4.03192
2.57755
0.893277
9.93608
9.80534
9.6657
9.51045
9.33167
9.11946
8.86087
8.53849
8.12823
7.59637
6.89589
5.96347
4.72196
3.10117
1.10008
9.96903
9.90472
9.83306
9.74847
9.6442
9.51157
9.33889
9.10971
8.79995
8.37337
7.77428
6.91704
5.67538
3.88885
1.44513
10.0036
10.0092
10.0094
10.0001
9.97638
9.93146
9.85613
9.73684
9.55275
9.27012
8.8319
8.13753
7.00712
5.1329
2.10026
10.0394
10.1174
10.1923
10.2619
10.3232
10.3724
10.4039
10.4089
10.3739
10.2749
10.0673
9.66079
8.85535
7.18137
3.56641
10.0759
10.2276
10.3788
10.5293
10.6785
10.8257
10.9698
11.1089
11.2395
11.355
11.4409
11.461
11.3067
10.5777
7.47549
10.1125
10.3381
10.5659
10.7976
11.0351
11.2812
11.5392
11.8146
12.1155
12.4555
12.86
13.3822
14.157
15.622
19.6128
10.1485
10.4471
10.7503
11.0618
11.3858
11.7282
12.0966
12.5026
12.9642
13.5112
14.1974
15.128
16.5279
18.9121
23.4342
10.1835
10.5528
10.929
11.3172
11.7238
12.157
12.6278
13.1519
13.7535
14.4701
15.365
16.5476
18.215
20.7173
24.6159
0.41825
0.74969
0.894274
0.948006
0.948862
0.915529
0.858671
0.78499
0.698991
0.603859
0.501937
0.395019
0.284527
0.171635
0.0573619
0.224416
0.513796
0.676293
0.756491
0.78281
0.772413
0.736052
0.680811
0.611582
0.531886
0.444353
0.351015
0.253505
0.153183
0.0512377
0.141311
0.366009
0.515456
0.602383
0.642246
0.647318
0.626534
0.586336
0.531433
0.46535
0.390793
0.309905
0.224432
0.135855
0.0454813
0.0984276
0.270476
0.398029
0.48095
0.525834
0.54017
0.530492
0.502066
0.459043
0.404692
0.341626
0.271973
0.197512
0.119775
0.0401331
0.0727704
0.205838
0.311591
0.385927
0.43063
0.449691
0.447461
0.427928
0.394513
0.350081
0.297029
0.237378
0.172864
0.105015
0.0352184
0.055774
0.160168
0.246965
0.311478
0.353229
0.373991
0.376441
0.363426
0.337628
0.301452
0.257011
0.206158
0.15053
0.0916059
0.0307477
0.0437451
0.126715
0.197812
0.252833
0.290398
0.311003
0.316157
0.307795
0.287945
0.258559
0.221443
0.178249
0.130484
0.0795388
0.0267193
0.0348545
0.101507
0.15982
0.206306
0.239341
0.258742
0.265254
0.260138
0.244882
0.22103
0.190094
0.153513
0.112645
0.0687722
0.0231204
0.0280859
0.0820892
0.130038
0.169118
0.197751
0.215427
0.222423
0.21952
0.207785
0.188418
0.162662
0.131753
0.096891
0.05924
0.0199301
0.0228227
0.0668751
0.106413
0.139183
0.163766
0.179526
0.186464
0.185034
0.175985
0.160239
0.138808
0.112736
0.0830727
0.0508591
0.0171219
0.0186656
0.0547953
0.0874855
0.114933
0.135906
0.14975
0.156314
0.155835
0.148832
0.136007
0.118174
0.0962106
0.0710246
0.0435355
0.0146652
0.0153428
0.0451035
0.072198
0.0951776
0.112994
0.125028
0.131052
0.131166
0.125722
0.115251
0.100407
0.0819222
0.0605749
0.0371706
0.012528
0.0126619
0.0372625
0.0597673
0.0790064
0.0940975
0.104478
0.109892
0.110355
0.1061
0.0975303
0.0851677
0.0696205
0.051553
0.031665
0.0106776
0.0104831
0.0308766
0.0496035
0.0657147
0.0784711
0.0873745
0.0921686
0.092818
0.0894748
0.0824421
0.0721386
0.0590681
0.0437946
0.0269227
0.00908231
0.00870197
0.0256476
0.0412555
0.054752
0.0655194
0.0731239
0.0773227
0.0780528
0.0754103
0.0696242
0.0610301
0.0500449
0.0371458
0.0228524
0.00771215
0.007239
0.0213472
0.0343733
0.0456839
0.0547631
0.0612376
0.0648846
0.0656287
0.0635277
0.0587555
0.0515813
0.0423501
0.0314647
0.0193701
0.0065391
0.00603279
0.0177978
0.0286821
0.0381647
0.0458151
0.0513139
0.0544618
0.0551794
0.0534994
0.0495541
0.0435603
0.0358034
0.0266231
0.0163988
0.00553764
0.00503518
0.01486
0.0239639
0.0319173
0.0383607
0.0430221
0.0457259
0.0463943
0.0450436
0.0417748
0.036763
0.0302448
0.022506
0.0138697
0.00468476
0.00420805
0.0124225
0.0200443
0.0267181
0.0321434
0.0360893
0.0384028
0.0390109
0.0379192
0.0352054
0.0310113
0.0255334
0.019012
0.0117214
0.00395999
0.0035209
0.0103964
0.0167829
0.0223855
0.026953
0.0302898
0.0322634
0.0328075
0.0319207
0.0296634
0.0261509
0.0215463
0.0160518
0.00990003
0.00334526
0.00294914
0.00870989
0.0140657
0.0187714
0.0226168
0.0254365
0.0271165
0.0275972
0.0268736
0.0249927
0.0220486
0.018177
0.0135479
0.00835834
0.00282477
0.00247285
0.00730442
0.0117997
0.0157545
0.0189926
0.0213744
0.022802
0.0232229
0.0226299
0.0210599
0.0185901
0.0153335
0.011433
0.00705545
0.00238477
0.00207578
0.00613238
0.00990901
0.0132351
0.015963
0.0179745
0.0191864
0.0195523
0.0190645
0.0177518
0.0156778
0.0129369
0.00964925
0.00595604
0.0020134
0.00174464
0.00515468
0.00833103
0.011131
0.0134305
0.0151298
0.0161579
0.0164745
0.0160715
0.014972
0.0132285
0.0109197
0.00814703
0.00502978
0.00170046
0.00146849
0.00433919
0.00701434
0.00937426
0.0113146
0.0127512
0.0136233
0.0138962
0.0135621
0.0126393
0.0111715
0.0092246
0.006884
0.00425073
0.0014372
0.00123835
0.00365946
0.00591646
0.00790878
0.00954847
0.0107643
0.0115045
0.0117393
0.0114612
0.0106851
0.0094471
0.00780276
0.00582414
0.00359679
0.00121619
0.00104681
0.00309364
0.00500232
0.00668807
0.00807659
0.00910746
0.00973669
0.00993847
0.00970598
0.00905135
0.00800477
0.00661297
0.00493692
0.00304925
0.00103111
0.00088775
0.00262372
0.00424294
0.00567368
0.00685297
0.00772945
0.00826557
0.00843908
0.00824382
0.0076897
0.0068021
0.00562047
0.00419661
0.00259227
0.000876626
0.000756132
0.00223483
0.00361439