/*--------------------------------*- C++ -*----------------------------------*\
| =========                 |                                                 |
| \\      /  F ield         | OpenFOAM: The Open Source CFD Toolbox           |
|  \\    /   O peration     | Version:  5.x                                   |
|   \\  /    A nd           | Web:      www.OpenFOAM.org                      |
|    \\/     M anipulation  |                                                 |
\*---------------------------------------------------------------------------*/
FoamFile
{
    version     2.0;
    format      ascii;
    class       volScalarField;
    location    "17.7";
    object      gradTy;
}
// * * * * * * * * * * * * * * * * * * * * * * * * * * * * * * * * * * * * * //

dimensions      [0 -1 0 1 0 0 0];

internalField   nonuniform List<scalar> 
6300
(
995.074
985.341
975.964
967.175
959.199
952.251
946.527
942.201
939.42
938.291
938.876
941.188
945.182
950.754
957.75
-0.178444
-0.533288
-0.881775
-1.2189
-1.53858
-1.83331
-2.09408
-2.31045
-2.47109
-2.56467
-2.58131
-2.51439
-2.36239
-2.13042
-1.83063
-0.299684
-0.895904
-1.48229
-2.05094
-2.59205
-3.09328
-3.53946
-3.91267
-4.19293
-4.3598
-4.39484
-4.28493
-4.02596
-3.6259
-3.10606
-0.424062
-1.26835
-2.10052
-2.91052
-3.6854
-4.40831
-5.05783
-5.60782
-6.02816
-6.28677
-6.35333
-6.20454
-5.83061
-5.24114
-4.46827
-0.552278
-1.6529
-2.74091
-3.80521
-4.83069
-5.79669
-6.67569
-7.43259
-8.02506
-8.40577
-8.52712
-8.34926
-7.85074
-7.03973
-5.96134
-0.684433
-2.05006
-3.40499
-4.7387
-6.03546
-7.27207
-8.41564
-9.42176
-10.2337
-10.7841
-11.0001
-10.8146
-10.1834
-9.1057
-7.64176
-0.819813
-2.45792
-4.09028
-5.70912
-7.30034
-8.84044
-10.293
-11.605
-12.7039
-13.4967
-13.8745
-13.7257
-12.9623
-11.5579
-9.5867
-0.956713
-2.87149
-4.78908
-6.70713
-8.61629
-10.4963
-12.3108
-14.0014
-15.4802
-16.6243
-17.2754
-17.2514
-16.3822
-14.5767
-11.9105
-1.09226
-3.28222
-5.48741
-7.714
-9.96137
-12.2175
-14.4526
-16.6095
-18.5909
-20.2449
-21.3513
-21.6221
-20.7383
-18.4562
-14.7981
-1.22235
-3.67772
-6.16431
-8.70006
-11.2976
-13.9598
-16.6727
-19.3929
-22.029
-24.413
-26.2626
-27.1473
-26.4926
-23.7116
-18.5839
-1.34177
-4.04199
-6.79203
-9.62429
-12.5691
-15.6514
-18.8852
-22.2602
-25.7192
-29.1152
-32.1388
-34.2117
-34.3732
-31.3135
-23.9667
-1.44452
-4.35641
-7.33749
-10.436
-13.7028
-17.1916
-20.9563
-25.0434
-29.4724
-34.1895
-38.9657
-43.1871
-45.475
-43.2026
-32.7065
-1.52441
-4.60162
-7.76551
-11.0793
-14.6146
-18.4558
-22.7049
-27.4846
-32.9373
-39.2045
-46.3473
-54.0958
-61.1369
-63.3154
-50.2854
-1.57593
-4.76011
-8.04362
-11.5009
-15.2202
-19.3122
-23.9227
-29.2525
-35.5874
-43.3438
-53.1231
-65.7115
-81.6612
-98.6363
-97.6094
-1.59511
-4.81924
-8.1479
-11.6605
-15.4531
-19.6499
-24.4212
-30.0151
-36.8159
-45.4599
-57.0894
-73.9656
-101.16
-151.958
-268.216
965.281
972.826
980.922
989.42
998.175
1007.05
1015.9
1024.63
1033.13
1041.31
1049.1
1056.44
1063.27
1069.57
1075.29
1080.41
1084.91
1088.79
1092.02
1094.61
1096.54
1097.83
1098.46
1098.46
1097.81
1096.52
1094.61
1092.08
1088.94
1085.19
1080.86
1075.94
1070.45
1064.39
1057.79
1050.63
1042.94
1034.72
1025.98
1016.72
1006.96
996.713
985.976
974.765
963.088
950.956
938.378
925.365
911.924
898.065
883.794
869.12
854.049
838.588
822.745
806.529
789.948
773.013
755.736
738.128
720.205
701.981
683.469
664.688
645.652
626.379
606.889
587.199
567.333
547.317
527.177
506.946
486.66
466.359
446.088
425.893
405.825
385.935
366.278
346.907
327.874
309.23
291.024
273.301
256.101
239.459
223.403
207.957
193.133
178.939
-1.51037
-1.19875
-0.87971
-0.565397
-0.266047
0.0106345
0.259646
0.478516
0.666888
0.82599
0.958105
1.06609
1.15301
1.22185
1.27538
1.31602
1.34587
1.36668
1.3799
1.38672
1.38814
1.38496
1.37787
1.36745
1.35423
1.33867
1.32123
1.30235
1.28247
1.26202
1.24138
1.22091
1.20086
1.18137
1.16249
1.14411
1.12604
1.108
1.0897
1.07088
1.05135
1.03109
1.01021
0.988942
0.967666
0.946793
0.92672
0.907748
0.890017
0.873464
0.857809
0.842576
0.827149
0.810854
0.793047
0.773205
0.750994
0.726299
0.699215
0.669998
0.638978
0.606453
0.572576
0.53726
0.500119
0.460448
0.41726
0.369374
0.315543
0.254608
0.185648
0.108117
0.0219345
-0.0724746
-0.174192
-0.281871
-0.393832
-0.508175
-0.622889
-0.735933
-0.845287
-0.948968
-1.04502
-1.13151
-1.20652
-1.2682
-1.31489
-1.34524
-1.35841
-1.35418
-2.55004
-2.00986
-1.45875
-0.918567
-0.407341
0.061798
0.480793
0.84618
1.1582
1.41975
1.6354
1.8105
1.95059
2.06092
2.14624
2.21064
2.25758
2.28994
2.31005
2.31985
2.3209
2.3145
2.30175
2.28356
2.26076
2.2341
2.20433
2.17217
2.13836
2.10364
2.0687
2.03417
2.0005
1.96799
1.93666
1.90636
1.87667
1.84708
1.81699
1.78589
1.75341
1.71947
1.68426
1.64824
1.61212
1.57671
1.54277
1.51093
1.48148
1.45434
1.42901
1.4046
1.37996
1.35383
1.32498
1.29245
1.25561
1.21431
1.16876
1.11955
1.06738
1.01293
0.956613
0.898375
0.8376
0.773054
0.702955
0.625129
0.537258
0.437161
0.323097
0.194006
0.0496889
-0.109123
-0.2808
-0.462943
-0.652574
-0.846358
-1.04081
-1.23244
-1.41787
-1.5938
-1.75698
-1.90419
-2.03214
-2.1376
-2.21755
-2.26948
-2.29176
-2.28392
-3.63977
-2.8368
-2.02215
-1.23016
-0.488152
0.185039
0.778996
1.29055
1.72203
2.07946
2.3709
2.60515
2.79084
2.93584
3.04703
3.1302
3.19011
3.23063
3.25487
3.26536
3.26418
3.253
3.23325
3.20611
3.17264
3.13383
3.09066
3.04415
2.99535
2.94536
2.89524
2.84597
2.7983
2.75267
2.70918
2.66751
2.62698
2.58667
2.54554
2.50267
2.4574
2.4095
2.35927
2.3075
2.25538
2.2043
2.15564
2.1105
2.06945
2.03245
1.99871
1.96679
1.93478
1.90055
1.86207
1.81772
1.76653
1.70826
1.64346
1.57321
1.49893
1.42198
1.34328
1.26302
1.18039
1.09354
0.999664
0.895244
0.776473
0.639731
0.48209
0.301732
0.0982324
-0.127323
-0.372411
-0.633301
-0.9054
-1.18364
-1.46283
-1.73794
-2.00418
-2.25701
-2.49199
-2.70462
-2.89018
-3.04376
-3.16058
-3.23645
-3.26852
-3.2558
-4.80108
-3.68043
-2.5528
-1.46964
-0.469722
0.422527
1.19602
1.85037
2.39264
2.83435
3.18892
3.4699
3.68982
3.85959
3.98834
4.08343
4.15074
4.19492
4.21964
4.22788
4.22202
4.20405
4.17557
4.13795
4.09238
4.04002
3.982
3.91961
3.85425
3.78745
3.72077
3.65566
3.59333
3.53448
3.47927
3.42719
3.37716
3.32761
3.2768
3.2231
3.16534
3.10307
3.0367
2.96746
2.89731
2.82859
2.76362
2.70432
2.65178
2.60604
2.56594
2.52926
2.49294
2.45354
2.40777
2.35302
2.28777
2.21179
2.12612
2.03281
1.93447
1.83367
1.73234
1.6312
1.52938
1.42427
1.31167
1.18614
1.04167
0.872502
0.673901
0.44288
0.178634
-0.1173
-0.441174
-0.787429
-1.1493
-1.51946
-1.89067
-2.25613
-2.60972
-2.94584
-3.25912
-3.54398
-3.79419
-4.00281
-4.16249
-4.26645
-4.3097
-4.29029
-6.05726
-4.53408
-3.01943
-1.58923
-0.296217
0.831069
1.78469
2.57164
3.20814
3.71478
4.11297
4.42263
4.66106
4.84249
4.97816
5.07672
5.14475
5.18728
5.20823
5.21075
5.1974
5.17029
5.13112
5.0813
5.02202
4.95442
4.87974
4.79944
4.71532
4.62945
4.5441
4.46147
4.38343
4.31115
4.24493
4.18404
4.12674
4.07048
4.01232
3.94948
3.87989
3.80266
3.71833
3.62883
3.5373
3.44757
3.36355
3.2885
3.22442
3.17158
3.12836
3.09132
3.05565
3.0158
2.96649
2.90353
2.82456
2.72937
2.61989
2.49976
2.37363
2.24621
2.12121
2.00044
1.88317
1.76588
1.64237
1.50437
1.34253
1.14773
0.912473
0.631951
0.304742
-0.0669686
-0.47763
-0.919002
-1.38117
-1.85371
-2.3267
-2.79136
-3.24035
-3.66749
-4.06712
-4.43316
-4.75806
-5.03225
-5.24458
-5.38381
-5.44107
-5.41241
-7.43244
-5.37537
-3.3643
-1.51111
0.116098
1.4899
2.61358
3.50981
4.21092
4.7517
5.16478
5.47823
5.7147
5.89159
6.02172
6.11429
6.17581
6.21105
6.2237
6.21682
6.19295
6.15425
6.10239
6.03865
5.96401
5.8794
5.78593
5.68517
5.57928
5.4711
5.3639
5.26108
5.16561
5.07948
5.00331
4.93612
4.8752
4.81647
4.75497
4.68596
4.60582
4.51288
4.40778
4.29351
4.17506
4.0587
3.95093
3.85727
3.78124
3.72364
3.68222
3.65177
3.62469
3.59204
3.54519
3.47741
3.38501
3.26785
3.1293
2.97564
2.81495
2.65557
2.50429
2.36493
2.23727
2.11669
1.99419
1.85719
1.69108
1.48146
1.21646
0.888473
0.495154
0.0396656
-0.469655
-1.02043
-1.59792
-2.18714
-2.77452
-3.349
-3.90229
-4.42858
-4.92333
-5.38145
-5.79481
-6.15065
-6.43182
-6.61911
-6.69605
-6.65464
-8.94957
-6.15032
-3.48175
-1.10749
0.893412
2.50903
3.7702
4.72919
5.44481
5.97276
6.36036
6.645
6.85444
7.00833
7.11971
7.19691
7.24506
7.26769
7.26767
7.24768
7.21025
7.15753
7.09116
7.01208
6.92075
6.81753
6.70304
6.57868
6.44698
6.31173
6.1778
6.05055
5.93476
5.83388
5.74921
5.67957
5.62097
5.56685
5.50889
5.43887
5.3506
5.24102
5.11087
4.96464
4.81024
4.65787
4.51839
4.40106
4.31195
4.25279
4.22066
4.20777
4.20214
4.18911
4.1544
4.08712
3.98148
3.83751
3.66082
3.46198
3.25473
3.05359
2.87054
2.71287
2.5815
2.47058
2.36718
2.25223
2.10258
1.89519
1.6114
1.23934
0.775342
0.224066
-0.40175
-1.08313
-1.79753
-2.52298
-3.24071
-3.93692
-4.6029
-5.23488
-5.83214
-6.39399
-6.9142
-7.37644
-7.75409
-8.01316
-8.12133
-8.06203
-10.6215
-6.73706
-3.17539
-0.166296
2.22538
4.0384
5.3618
6.29891
6.9489
7.39588
7.70419
7.92001
8.07419
8.18625
8.26693
8.32135
8.35104
8.35694
8.34039
8.30368
8.24953
8.18049
8.09824
8.00315
7.89466
7.7719
7.63436
7.48282
7.31981
7.1505
6.98214
6.82353
6.6825
6.56497
6.4735
6.40718
6.36034
6.3228
6.28023
6.21813
6.12612
5.99883
5.83719
5.64758
5.44256
5.23852
5.05403
4.90428
4.79958
4.7431
4.73148
4.75338
4.7903
4.81749
4.81055
4.75215
4.6332
4.45434
4.22428
3.96052
3.68579
3.42561
3.20032
3.023
2.89637
2.81373
2.75687
2.69728
2.59729
2.41901
2.13351
1.72264
1.18128
0.515869
-0.253763
-1.09822
-1.98115
-2.86987
-3.73778
-4.56826
-5.3524
-6.09106
-6.79181
-7.4664
-8.11695
-8.7239
-9.24701
-9.62441
-9.78764
-9.70165
-12.4195
-6.85913
-2.07349
1.66374
4.3902
6.27221
7.50898
8.28138
8.7446
9.01803
9.18051
9.28311
9.3539
9.40867
9.4513
9.48068
9.49057
9.47779
9.44139
9.38404
9.30951
9.22173
9.12302
9.01276
8.88833
8.74679
8.5851
8.40269
8.20097
7.98713
7.77165
7.57045
7.39564
7.25778
7.16084
7.10596
7.08556
7.08526
7.07893
7.03975
6.95169
6.80539
6.60304
6.35201
6.07277
5.79034
5.53896
5.34198
5.21711
5.16815
5.19341
5.27675
5.39184
5.49439
5.54022
5.50377
5.37063
5.14432
4.8357
4.47429
4.09538
3.74687
3.46053
3.25964
3.14744
3.1193
3.15005
3.20009
3.20434
3.09682
2.83579
2.39346
1.76548
0.957408
0.00165212
-1.05821
-2.15669
-3.24696
-4.28898
-5.2665
-6.16752
-7.00194
-7.78925
-8.57347
-9.38255
-10.1921
-10.9497
-11.5441
-11.8128
-11.6808
-14.155
-5.86589
0.537742
4.94907
7.77071
9.43463
10.3241
10.7083
10.8127
10.799
10.7421
10.6911
10.6557
10.6476
10.6538
10.6671
10.6618
10.6317
10.5715
10.4881
10.3875
10.2776
10.1634
10.0417
9.90557
9.74959
9.56459
9.34927
9.09852
8.82501
8.53953
8.27826
8.0545
7.89057
7.78654
7.75402
7.78077
7.85532
7.92389
7.93067
7.86008
7.69164
7.43796
7.09605
6.70654
6.29645
5.94458
5.67486
5.52439
5.48535
5.57079
5.75347
6.01054
6.25208
6.38749
6.39376
6.24137
5.95197
5.52235
5.01244
4.4604
3.97785
3.59697
3.36782
3.27677
3.33936
3.51481
3.7682
3.9717
3.99507
3.79853
3.33107
2.60846
1.6111
0.406488
-0.963044
-2.34448
-3.69393
-4.9334
-6.07523
-7.07882
-7.98092
-8.79134
-9.64492
-10.6476
-11.7353
-12.8876
-13.9327
-14.4149
-14.183
-14.9825
-2.15795
6.01739
10.5234
12.8186
13.7127
13.8676
13.5385
13.0515
12.6429
12.2959
12.0772
11.919
11.8667
11.8465
11.8812
11.8692
11.8296
11.7359
11.6178
11.4796
11.3408
11.2152
11.0924
10.9522
10.7951
10.5886
10.3478
10.0297
9.68105
9.27346
8.93298
8.62813
8.43803
8.31019
8.31767
8.40806
8.63494
8.85874
8.93392
8.91032
8.70153
8.40085
7.90957
7.37086
6.71967
6.2328
5.83693
5.67212
5.62416
5.80901
6.12391
6.65243
7.16341
7.42154
7.513
7.31018
6.96237
6.32538
5.61206
4.72611
4.0632
3.51565
3.27787
3.18553
3.39759
3.76794
4.40879
4.99904
5.21057
5.15197
4.63668
3.84766
2.5638
1.04937
-0.850184
-2.57777
-4.29876
-5.71793
-7.08253
-8.13584
-9.09149
-9.73085
-10.5013
-11.7898
-13.185
-14.9795
-17.1314
-18.045
-17.5407
-11.075
8.245
16.7805
19.2809
19.8835
19.0549
18.1078
16.5956
15.1773
14.3979
13.6647
13.3759
13.0297
13.0391
12.9603
13.1622
13.1164
13.1051
12.9351
12.7764
12.5724
12.3846
12.2627
12.168
12.0231
11.9115
11.662
11.4572
11.0049
10.6218
9.91061
9.53628
9.03637
8.89571
8.63885
8.76182
8.83868
9.41885
10.0075
10.0793
10.2271
9.84365
9.63813
8.79127
8.19705
6.90619
6.3899
5.6662
5.65152
5.42766
5.85992
6.18666
7.31953
8.43879
8.69553
9.05592
8.58772
8.38912
7.23827
6.4602
4.67061
3.98241
2.98821
2.9785
2.65591
3.22789
3.63151
5.12222
6.5717
6.81504
7.16302
6.33641
5.79941
3.84849
2.24685
-0.984945
-2.8205
-5.33815
-6.58095
-8.53799
-9.33335
-10.6574
-10.4815
-10.6116
-12.7783
-14.0594
-16.5567
-22.1132
-23.7167
-22.373
16.3417
34.1778
36.2345
30.771
29.0087
24.5674
23.1608
19.5171
16.3826
16.0856
14.3929
14.7566
13.6278
14.3382
13.669
14.7992
14.3135
14.6085
14.1175
13.9993
13.6415
13.3331
13.2702
13.3153
13.0454
13.226
12.6701
12.9226
11.8798
12.0343
10.062
10.3198
8.92666
9.52007
8.4199
9.27174
8.54388
10.1899
11.9
11.1145
12.3083
10.729
11.7983
9.30857
10.0258
5.97675
6.84509
4.47392
5.93158
4.28579
6.06224
5.08807
8.00568
10.9556
9.81975
11.7915
9.47651
11.1866
7.61384
8.76448
3.02866
4.34181
1.04269
3.12926
0.83771
3.30025
1.92931
5.89466
9.8808
8.26846
10.8651
7.61874
9.78688
4.62987
5.79148
-3.13057
-2.08124
-8.21355
-6.41563
-11.6664
-9.76964
-14.3835
-10.7913
-7.78924
-15.0419
-13.1826
-13.7285
-32.7874
-33.6321
-29.8305
167.246
82.8319
66.5173
36.9309
41.9914
25.7098
31.4354
21.7055
13.5017
19.7835
12.16
18.2867
11.5776
17.6239
11.7869
18.7632
14.3865
17.244
14.7633
15.5674
14.6395
13.9281
14.1224
14.9164
13.4195
15.601
12.5145
16.2535
11.0309
16.5096
7.00258
13.4807
5.95669
12.5835
5.39035
12.0568
4.83102
10.869
17.3865
9.29992
18.383
7.8005
19.0838
5.20814
18.7184
-2.03339
11.9655
-2.2315
10.681
-1.78374
10.2258
-1.61435
8.64555
19.3564
6.46926
20.7002
4.56947
21.5918
1.18797
20.9855
-8.76344
11.3432
-8.65788
9.58481
-7.82605
8.89309
-7.45687
6.63738
21.2519
3.66113
22.9814
1.10435
24.3227
-3.68732
23.8568
-19.6347
8.99983
-22.5082
3.90007
-25.0869
-0.830385
-29.9259
-10.2512
9.80016
-30.4267
-8.84178
15.7586
-69.6898
-50.2375
-42.3163
164.016
148.624
134.087
120.362
107.393
95.1165
83.4666
72.3733
61.7661
51.5754
41.7326
32.1713
22.8264
13.6349
4.53483
-1.33094
-1.28314
-1.21615
-1.13392
-1.04063
-0.940172
-0.835926
-0.730536
-0.625904
-0.523233
-0.423125
-0.325698
-0.230699
-0.137609
-0.0457311
-2.2431
-2.15985
-2.04382
-1.90217
-1.74233
-1.57118
-1.39449
-1.21673
-1.04101
-0.869215
-0.702236
-0.540136
-0.38238
-0.228003
-0.0757582
-3.19396
-3.06934
-2.89709
-2.68858
-2.45534
-2.2077
-1.95412
-1.70088
-1.45216
-1.21038
-0.976462
-0.750226
-0.530679
-0.316262
-0.105057
-4.20195
-4.02642
-3.78658
-3.49971
-3.18271
-2.85015
-2.5134
-2.18047
-1.85638
-1.54367
-1.243
-0.95362
-0.673841
-0.401305
-0.133262
-5.28906
-5.04778
-4.72305
-4.34093
-3.9256
-3.49677
-3.06883
-2.65121
-2.24919
-1.86491
-1.49822
-1.14741
-0.809751
-0.481853
-0.159945
-6.48281
-6.15252
-5.71685
-5.2153
-4.68196
-4.14246
-3.61392
-3.10632
-2.62424
-2.16853
-1.73754
-1.32804
-0.935891
-0.556407
-0.18461
-7.81931
-7.36252
-6.77646
-6.1214
-5.44441
-4.77713
-4.13803
-3.53586
-2.97291
-2.44742
-1.95534
-1.4913
-1.04936
-0.623267
-0.206697
-9.34771
-8.70169
-7.90495
-7.04936
-6.19709
-5.38358
-4.62516
-3.92616
-3.28407
-2.69289
-2.14506
-1.63247
-1.14696
-0.680597
-0.225608
-11.1359
-10.1915
-9.09222
-7.97391
-6.91091
-5.93487
-5.05284
-4.25949
-3.54427
-2.89499
-2.29953
-1.74651
-1.22542
-0.726543
-0.240741
-13.2743
-11.836
-10.2985
-8.84308
-7.5377
-6.3921
-5.39176
-4.51465
-3.7385
-3.04324
-2.41154
-1.82862
-1.28166
-0.7594
-0.251553
-15.8593
-13.5797
-11.4225
-9.56212
-8.00463
-6.70402
-5.60737
-4.66882
-3.85181
-3.12787
-2.47476
-1.87472
-1.3132
-0.77783
-0.25762
-18.8894
-15.2009
-12.2496
-9.97814
-8.21461
-6.81189
-5.66483
-4.70139
-3.872
-3.14166
-2.48487
-1.88228
-1.31859
-0.781089
-0.258714
-21.8075
-16.0847
-12.3967
-9.88611
-8.0637
-6.66401
-5.5386
-4.59988
-3.79308
-3.08186
-2.44075
-1.85093
-1.29777
-0.769215
-0.254858
-21.6958
-14.9335
-11.3664
-9.10574
-7.48998
-6.2418
-5.2256
-4.36641
-3.61855
-2.95191
-2.3453
-1.78292
-1.25231
-0.743137
-0.24636
-1.58419
-4.78563
-8.08896
-11.5716
-15.3274
-19.4774
-24.1883
-29.7036
-36.4021
-44.9163
-56.3972
-73.1653
-100.502
-152.089
-267.694
-1.54893
-4.67701
-7.89795
-11.2815
-14.9108
-18.8903
-23.3593
-28.5116
-34.6284
-42.1314
-51.6579
-64.1053
-80.2398
-97.5159
-91.1457
-1.4927
-4.50388
-7.59396
-10.8208
-14.2508
-17.9633
-22.0557
-26.6496
-31.8919
-37.941
-44.8901
-52.4844
-59.1837
-59.3641
-36.7649
-1.41854
-4.27594
-7.19496
-10.219
-13.3947
-16.7723
-20.4039
-24.3371
-28.5951
-33.1256
-37.6742
-41.4848
-42.654
-37.031
-17.7524
-1.33029
-4.00518
-6.72299
-9.51184
-12.3983
-15.4047
-18.5425
-21.799
-25.1088
-28.2974
-30.9706
-32.3196
-30.841
-24.1808
-10.008
-1.23207
-3.70462
-6.20164
-8.73681
-11.3187
-13.9459
-16.5987
-19.2237
-21.7067
-23.8269
-25.1864
-25.1179
-22.6264
-16.5475
-6.32133
-1.12803
-3.38704
-5.65378
-7.92933
-10.2075
-12.4692
-14.6742
-16.7471
-18.5563
-19.8847
-20.3937
-19.5986
-16.9031
-11.794
-4.31278
-1.02192
-3.06406
-5.09979
-7.12002
-9.10757
-11.0319
-12.8414
-14.4534
-15.7398
-16.5114
-16.5065
-15.3989
-12.8558
-8.68778
-3.09889
-0.916977
-2.74554
-4.55653
-6.33338
-8.05157
-9.67412
-11.1458
-12.3859
-13.2807
-13.6772
-13.3851
-12.1959
-9.93683
-6.56828
-2.30784
-0.815777
-2.43921
-4.03696
-5.58743
-7.06194
-8.42113
-9.61089
-10.5582
-11.1676
-11.3213
-10.8865
-9.7359
-7.78832
-5.0681
-1.76348
-0.720216
-2.1507
-3.55019
-4.89422
-6.15237
-7.28575
-8.24433
-8.96497
-9.37082
-9.37412
-8.88502
-7.82928
-6.17634
-3.97374
-1.37353
-0.631561
-1.88369
-3.10193
-4.26061
-5.32943
-6.27171
-7.04298
-7.59036
-7.85356
-7.76881
-7.27699
-6.33736
-4.94605
-3.15549
-1.08553
-0.550534
-1.64021
-2.69502
-3.68939
-4.59432
-5.37639
-5.99708
-6.41305
-6.57791
-6.44614
-5.97992
-5.15907
-3.99299
-2.53126
-0.867741
-0.477413
-1.42094
-2.33008
-3.18024
-3.94452
-4.59313
-5.0933
-5.41009
-5.50823
-5.3557
-4.92908
-4.22052
-3.24521
-2.04714
-0.699923
-0.412133
-1.22555
-2.00608
-2.73073
-3.37504
-3.91291
-4.31686
-4.55894
-4.61259
-4.45558
-4.07402
-3.46718
-2.65211
-1.66659
-0.568648
-0.354384
-1.05299
-1.72088
-2.33699
-2.87945
-3.32568
-3.6528
-3.83862
-3.86323
-3.71137
-3.37537
-2.85843
-2.17737
-1.36412
-0.464695
-0.303695
-0.901738
-1.47165
-1.99439
-2.45067
-2.82114
-3.08685
-3.23023
-3.2364
-3.09501
-2.80237
-2.36363
-1.79442
-1.12147
-0.381551
-0.259495
-0.770025
-1.25515
-1.69793
-2.08149
-2.38933
-2.60585
-2.71712
-2.71204
-2.58367
-2.33082
-1.95941
-1.48349
-0.925341
-0.3145
-0.221171
-0.655947
-1.06807
-1.44258
-1.76487
-2.02093
-2.19791
-2.2848
-2.27326
-2.15877
-1.94159
-1.62778
-1.22966
-0.765795
-0.26006
-0.188098
-0.5576
-0.907095
-1.22351
-1.49423
-1.70743
-1.85254
-1.9208
-1.90599
-1.80516
-1.61947
-1.35467
-1.02148
-0.635323
-0.215607
-0.159672
-0.473143
-0.76909
-1.03616
-1.26352
-1.44121
-1.56053
-1.6145
-1.59842
-1.51049
-1.35226
-1.12906
-0.850075
-0.528155
-0.179139
-0.135324
-0.400855
-0.65114
-0.876369
-1.0673
-1.21553
-1.3139
-1.35682
-1.34076
-1.26463
-1.13017
-0.942172
-0.708486
-0.439799
-0.149104
-0.114527
-0.339151
-0.550588
-0.740401
-0.900714
-1.02448
-1.10576
-1.1401
-1.1248
-1.05927
-0.945261
-0.787011
-0.591198
-0.366726
-0.124284
-0.0968077
-0.286605
-0.465048
-0.624915
-0.759511
-0.862914
-0.930227
-0.957846
-0.943716
-0.887565
-0.79107
-0.65793
-0.49381
-0.306131
-0.103716
-0.0817392
-0.241941
-0.392408
-0.526975
-0.639966
-0.726409
-0.782252
-0.804579
-0.791809
-0.743874
-0.662323
-0.550361
-0.412779
-0.25577
-0.0866313
-0.0689458
-0.204036
-0.330809
-0.444015
-0.538854
-0.611151
-0.65755
-0.67568
-0.664321
-0.623524
-0.554691
-0.460581
-0.345237
-0.21383
-0.0724105
-0.0580978
-0.171905
-0.278628
-0.37381
-0.453392
-0.513876
-0.552475
-0.567257
-0.557272
-0.522642
-0.464612
-0.385544
-0.288848
-0.178842
-0.0605517
-0.0489079
-0.144694
-0.234462
-0.314436
-0.381192
-0.431797
-0.463936
-0.47603
-0.467334
-0.438006
-0.389139
-0.322747
-0.2417
-0.149607
-0.0506459
-0.0411273
-0.121661
-0.197096
-0.264238
-0.320206
-0.36254
-0.389316
-0.399239
-0.391723
-0.366938
-0.325836
-0.270126
-0.202223
-0.125141
-0.0423583
-0.0345413
-0.102169
-0.165487
-0.221801
-0.268686
-0.304085
-0.326396
-0.334557
-0.328101
-0.307201
-0.272674
-0.225971
-0.169118
-0.104634
-0.0354133
-0.0289656
-0.0856698
-0.13874
-0.18591
-0.225142
-0.254717
-0.273302
-0.280024
-0.27451
-0.256924
-0.227967
-0.188863
-0.141312
-0.0874157
-0.0295832
-0.0242419
-0.0716938
-0.116091
-0.15553
-0.188305
-0.212979
-0.228446
-0.233986
-0.229301
-0.214542
-0.190305
-0.157622
-0.117912
-0.0729302
-0.0246792
-0.0202346
-0.059839
-0.0968838
-0.129776
-0.157092
-0.177633
-0.190483
-0.195047
-0.191088
-0.17874
-0.158509
-0.131258
-0.0981737
-0.0607145
-0.0205443
-0.0168276
-0.0497614
-0.0805598
-0.107896
-0.130583
-0.147628
-0.158272
-0.162027
-0.158701
-0.148412
-0.131586
-0.108944
-0.081473
-0.0503812
-0.0170469
-0.0139217
-0.0411664
-0.06664
-0.0892424
-0.107992
-0.122068
-0.130844
-0.133922
-0.131148
-0.122622
-0.108702
-0.0899843
-0.067286
-0.0416049
-0.0140768
-0.0114313
-0.0338013
-0.0547138
-0.0732643
-0.0886465
-0.100187
-0.107374
-0.109882
-0.107588
-0.100578
-0.0891477
-0.0737885
-0.0551702
-0.0341111
-0.0115409
-0.00928296
-0.0274481
-0.0444276
-0.0594861
-0.0719685
-0.0813282
-0.0871514
-0.0891756
-0.0873025
-0.0816042
-0.0723217
-0.0598555
-0.0447493
-0.0276664
-0.00936019
-0.0074129
-0.0219182
-0.0354754
-0.0474966
-0.0574586
-0.0649254
-0.0695672
-0.0711754
-0.0696731
-0.0651189
-0.0577063
-0.0477555
-0.0357009
-0.0220712
-0.00746704
-0.00576538
-0.0170466
-0.0275896
-0.0369368
-0.0446813
-0.0504841
-0.0540892
-0.0553351
-0.0541626
-0.0506183
-0.0448531
-0.0371165
-0.027746
-0.0171527
-0.00580294
-0.00429114
-0.0126875
-0.020534
-0.0274899
-0.0332522
-0.0375687
-0.0402492
-0.0411739
-0.0402991
-0.0376598
-0.0333688
-0.0276118
-0.0206402
-0.0127596
-0.00431663
-0.00294598
-0.00871025
-0.0140968
-0.0188717
-0.0228269
-0.0257893
-0.0276285
-0.0282622
-0.0276607
-0.0258483
-0.0229023
-0.0189506
-0.0141655
-0.00875685
-0.00296246
-0.00168949
-0.00499524
-0.0080844
-0.0108228
-0.013091
-0.0147899
-0.0158447
-0.0162081
-0.0158631
-0.0148237
-0.0131343
-0.010868
-0.00812377
-0.00502196
-0.00169894
-0.00048385
-0.00143063
-0.00231553
-0.00310019
-0.00375045
-0.00423785
-0.00454085
-0.00464585
-0.00454781
-0.00425056
-0.00376672
-0.00311721
-0.00233035
-0.00144069
-0.000487407
0.000707267
0.00209101
0.00338372
0.00452905
0.00547703
0.0061862
0.00662545
0.00677537
0.00662918
0.00619302
0.00548576
0.00453818
0.00339167
0.00209641
0.000709176
0.00191976
0.00567586
0.00918529
0.0122953
0.0148703
0.0167977
0.0179926
0.0184022
0.0180075
0.0168248
0.0149051
0.0123317
0.00921696
0.00569736
0.00192736
0.00319017
0.00943198
0.0152642
0.020433
0.0247133
0.0279176
0.0299051
0.0305874
0.0299329
0.0279684
0.0247783
0.020501
0.0153234
0.00947216
0.00320438
0.00455674
0.0134725
0.0218036
0.0291878
0.0353032
0.0398824
0.0427238
0.0437008
0.0427679
0.0399629
0.0354063
0.0292955
0.0218974
0.0135362
0.00457927
0.00606059
0.0179191
0.0290005
0.0388234
0.0469599
0.0530539
0.056837
0.0581403
0.0569026
0.0531738
0.0471133
0.0389838
0.0291402
0.0180139
0.00609413
0.00774686
0.0229051
0.0370711
0.0496299
0.0600347
0.0678299
0.0726719
0.074344
0.0727669
0.0680036
0.0602569
0.0498623
0.0372735
0.0230425
0.00779544
0.00966604
0.0285801
0.0462577
0.0619322
0.0749213
0.0846564
0.0907078
0.0928036
0.0908437
0.0849047
0.075239
0.0622644
0.046547
0.0287765
0.0097355
0.0118754
0.0351136
0.0568351
0.0760989
0.0920671
0.104041
0.11149
0.114079
0.111683
0.104393
0.0925185
0.0765709
0.0572461
0.0353926
0.0119741
0.0144408
0.0427003
0.0691188
0.0925538
0.111987
0.126566
0.135647
0.138817
0.13592
0.127066
0.112626
0.0932222
0.0697009
0.0430954
0.0145806
0.0174382
0.0515652
0.0834741
0.111788
0.135276
0.15291
0.163907
0.167766
0.164294
0.153616
0.13618
0.112733
0.0842971
0.0521238
0.0176358
0.0209561
0.0619701
0.100326
0.134371
0.16263
0.183862
0.197124
0.201807
0.19767
0.18486
0.163906
0.135707
0.101489
0.0627593
0.0212352
0.0250975
0.0742206
0.120171
0.160973
0.194861
0.220349
0.236298
0.24197
0.237069
0.221758
0.196664
0.162859
0.121813
0.0753351
0.0254917
0.0299832
0.0886742
0.143589
0.192376
0.232926
0.263458
0.282606
0.289475
0.283695
0.265448
0.235472
0.195039
0.145908
0.0902479
0.0305398
0.0357542
0.10575
0.171263
0.229499
0.277945
0.314473
0.33744
0.345763
0.338978
0.317282
0.281539
0.233258
0.174537
0.107971
0.0365402
0.0425759
0.125936
0.20399
0.27342
0.331237
0.374904
0.402443
0.41254
0.404613
0.378869
0.336312
0.278727
0.208612
0.129073
0.0436855
0.0506413
0.149808
0.242705
0.325404
0.394356
0.446532
0.479557
0.49183
0.48262
0.452129
0.40152
0.332896
0.249229
0.154237
0.0522078
0.0601755
0.178034
0.288499
0.386932
0.469122
0.531456
0.571079
0.586038
0.575403
0.539358
0.479235
0.397509
0.297711
0.184286
0.0623872
0.0714407
0.211392
0.342649
0.459739
0.557675
0.63215
0.679726
0.698016
0.68583
0.643303
0.571951
0.47467
0.355653
0.220219
0.0745633
0.0847404
0.250786
0.406635
0.545845
0.662517
0.751519
0.808709
0.831152
0.817324
0.767264
0.68267
0.566924
0.424994
0.263249
0.0891493
0.100425
0.297261
0.482173
0.647599
0.786572
0.892977
0.961815
0.989474
0.973976
0.9152
0.815021
0.677357
0.508094
0.314859
0.10665
0.118896
0.352016
0.571241
0.767719
0.93324
1.06052
1.14351
1.17776
1.16068
1.09188
0.973397
0.80973
0.607839
0.376864
0.127687
0.140611
0.416418
0.676101
0.909335
1.10646
1.25881
1.35906
1.40168
1.38328
1.30307
1.16314
0.968644
0.727778
0.451508
0.153026
0.166087
0.492015
0.799326
1.07602
1.31077
1.49326
1.61463
1.66797
1.64881
1.55573
1.39078
1.15975
0.872298
0.541574
0.183623
0.195899
0.580538
0.943807
1.27183
1.55136
1.77015
1.91745
1.98458
1.96566
1.8583
1.66428
1.39005
1.04686
0.650544
0.220673
0.230682
0.683899
1.11276
1.50131
1.83413
2.09668
2.27592
2.36094
2.34391
2.22103
1.99348
1.66821
1.25832
0.782812
0.265692
0.271119
0.804172
1.3097
1.76949
2.16567
2.48107
2.69981
2.80816
2.79567
2.65644
2.39053
2.00514
1.51534
0.943973
0.320615
0.317935
0.943556
1.53839
2.08183
2.5533
2.93256
3.20034
3.33929
3.33542
3.17981
2.87054
2.41457
1.82898
1.14124
0.387947
0.371867
1.10431
1.80277
2.44415
3.00496
3.46147
3.79031
3.96958
3.98053
3.80986
3.45241
2.914
2.21356
1.38401
0.470976
0.433635
1.28868
2.10676
2.8624
3.52903
4.07901
4.48413
4.71674
4.75176
4.56959
4.15994
3.52593
2.68778
1.68476
0.574081
0.503894
1.4987
2.45411
3.34245
4.13408
4.79713
5.29773
5.6011
5.67377
5.48728
5.02326
4.2796
3.27647
2.06027
0.70321
0.583165
1.73607
2.84804
3.88963
4.8284
5.62804
6.24828
6.64563
6.77573
6.59766
6.08074
5.21345
4.01311
2.53359
0.866611
0.671757
2.00186
3.29081
4.50822
5.6193
6.58351
7.35357
7.87572
8.09165
7.94332
7.38152
6.37854
4.94362
3.13708
1.07601
0.76966
2.2962
3.78326
5.20061
6.51218
7.67375
8.63099
9.31843
9.66049
9.57607
8.98863
7.84355
6.13217
3.91731
1.34856
0.876433
2.61797
4.32409
5.96642
7.5092
8.90587
10.0957
11.0009
11.5255
11.5581
10.9829
9.7018
7.67034
4.94328
1.71025
0.991073
2.9643
4.90919
6.80135
8.60763
10.2816
11.7581
12.9477
13.732
13.9621
13.4675
12.0811
9.69152
6.32061
2.20211
1.1119
3.33031
5.53088
7.69589
9.79794
11.7943
13.6195
15.176
16.3233
16.8694
16.5712
15.1569
12.3942
8.21706
2.89238
1.23646
3.70868
6.17725
8.63411
11.0616
13.4259
15.6676
17.6883
19.3319
20.3631
20.4498
19.1692
16.079
10.9104
3.90212
1.36149
4.08958
6.83171
9.59269
12.369
15.1424
17.8691
20.4624
22.7657
24.5126
25.2779
24.438
21.207
14.8813
5.46461
1.48298
4.46069
7.47305
10.5406
13.6785
16.8914
20.1631
23.4378
26.5857
29.3438
31.2205
31.3673
28.484
20.9986
8.07742
1.59628
4.80773
8.07606
11.4395
14.9358
18.5995
22.455
26.5012
30.6763
34.787
38.3642
40.4007
38.9566
30.8908
12.9358
1.69645
5.11526
8.61299
12.2461
16.0767
20.1741
24.6145
29.4749
34.8116
40.6004
46.5777
51.8511
54.0274
47.6502
23.2916
1.77861
5.36795
9.05586
12.9155
17.0323
21.5106
26.4823
32.1176
38.6329
46.2828
55.2796
65.4519
75.038
76.8964
49.0811
1.83844
5.55217
9.37941
13.4063
17.7368
22.5042
27.8892
34.149
41.666
51.0297
63.1651
79.4594
101.414
126.749
123.723
1.87269
5.65753
9.56425
13.6863
18.1379
23.0689
28.6886
35.3073
43.4164
53.8517
68.1619
89.5355
125.444
196.296
368.098
1.87951
5.67824
9.59954
13.7372
18.2059
23.1553
28.794
35.4304
43.5513
53.9824
68.2531
89.5179
125.205
195.739
367.464
1.85875
5.61381
9.48452
13.5583
17.94
22.7629
28.2064
34.5225
42.0816
51.4466
63.4869
79.4842
100.766
124.909
120.887
1.81189
5.46905
9.22844
13.1655
17.3675
21.9396
27.0127
32.7514
39.3577
47.0525
55.9726
65.7802
74.3412
73.6371
39.4129
-13.751
-11.2165
-9.31434
-7.83991
-6.65001
-5.65678
-4.80489
-4.05766
-3.38952
-2.78181
-2.22029
-1.69363
-1.19247
-0.708726
-0.23513
-5.15961
-7.15516
-7.06989
-6.45444
-5.7289
-5.01337
-4.34045
-3.71533
-3.13437
-2.59137
-2.07964
-1.59274
-1.12461
-0.669605
-0.222347
-2.34853
-4.53875
-5.19357
-5.14537
-4.8008
-4.34033
-3.8428
-3.3423
-2.85284
-2.3792
-1.92175
-1.4788
-1.04764
-0.625098
-0.207782
-1.27831
-2.98855
-3.80543
-4.04208
-3.95314
-3.69299
-3.34718
-2.96157
-2.56031
-2.15575
-1.75377
-1.35666
-0.964675
-0.576955
-0.192
-0.795849
-2.05871
-2.8202
-3.16486
-3.22434
-3.10511
-2.87917
-2.59169
-2.27006
-1.93051
-1.58241
-1.23094
-0.878741
-0.526887
-0.175555
-0.54174
-1.47702
-2.12442
-2.48567
-2.61961
-2.59133
-2.45387
-2.2455
-1.99223
-1.71118
-1.41336
-1.10573
-0.792561
-0.476454
-0.158953
-0.390544
-1.09524
-1.62733
-1.96432
-2.1275
-2.15334
-2.0778
-1.93047
-1.73368
-1.50349
-1.25113
-0.984344
-0.708417
-0.426984
-0.142632
-0.292392
-0.833325
-1.26572
-1.56365
-1.73076
-1.78575
-1.75158
-1.64978
-1.49831
-1.31117
-1.0989
-0.869302
-0.628092
-0.379539
-0.126943
-0.224688
-0.646772
-0.997491
-1.25381
-1.41187
-1.48006
-1.47229
-1.40358
-1.28771
-1.1363
-0.958709
-0.762314
-0.552862
-0.334899
-0.112148
-0.175937
-0.509774
-0.79481
-1.01218
-1.15538
-1.2271
-1.23531
-1.19012
-1.10177
-0.979586
-0.831568
-0.664387
-0.483537
-0.293581
-0.0984239
-0.139711
-0.406661
-0.639112
-0.822061
-0.948529
-1.01824
-1.0354
-1.00662
-0.939326
-0.840807
-0.717729
-0.575948
-0.420531
-0.255873
-0.0858733
-0.112144
-0.327504
-0.517784
-0.671155
-0.781082
-0.84586
-0.867398
-0.849866
-0.798555
-0.719077
-0.616872
-0.496975
-0.363939
-0.221873