/*--------------------------------*- C++ -*----------------------------------*\
| =========                 |                                                 |
| \\      /  F ield         | OpenFOAM: The Open Source CFD Toolbox           |
|  \\    /   O peration     | Version:  5.x                                   |
|   \\  /    A nd           | Web:      www.OpenFOAM.org                      |
|    \\/     M anipulation  |                                                 |
\*---------------------------------------------------------------------------*/
FoamFile
{
    version     2.0;
    format      ascii;
    class       volScalarField;
    location    "19.7001";
    object      gradTy;
}
// * * * * * * * * * * * * * * * * * * * * * * * * * * * * * * * * * * * * * //

dimensions      [0 -1 0 1 0 0 0];

internalField   nonuniform List<scalar> 
2048
(
-27.5091
-27.4752
-27.4085
-27.311
-27.1855
-27.0352
-26.8636
-26.6745
-26.4713
-26.2572
-26.0352
-25.8078
-25.5774
-25.3458
-25.1147
-24.8856
-24.6595
-24.4374
-24.2199
-24.0074
-23.8003
-23.5986
-23.4024
-23.2117
-23.0262
-22.846
-22.6709
-22.5008
-22.3358
-22.1757
-22.0206
-21.8706
-21.7257
-21.5862
-21.4522
-21.3239
-21.2016
-21.0855
-20.9758
-20.8727
-20.7765
-20.6875
-20.6059
-20.532
-20.4662
-20.409
-20.3605
-20.321
-20.2909
-20.2701
-20.2586
-20.256
-20.2618
-20.2753
-20.2953
-20.3206
-20.3495
-20.3803
-20.4112
-20.4404
-20.4661
-20.4868
-20.5013
-20.5088
-27.5365
-27.5017
-27.4335
-27.3337
-27.2055
-27.0523
-26.8779
-26.6859
-26.4801
-26.2636
-26.0395
-25.8103
-25.5783
-25.3453
-25.1132
-24.8831
-24.6563
-24.4336
-24.2158
-24.0031
-23.7959
-23.5942
-23.3981
-23.2074
-23.022
-22.8418
-22.6668
-22.4968
-22.3317
-22.1716
-22.0165
-21.8664
-21.7214
-21.5817
-21.4476
-21.3191
-21.1966
-21.0803
-20.9704
-20.8671
-20.7707
-20.6814
-20.5996
-20.5254
-20.4594
-20.4018
-20.3531
-20.3135
-20.2833
-20.2626
-20.2513
-20.2491
-20.2556
-20.27
-20.2911
-20.3176
-20.3479
-20.3802
-20.4126
-20.4432
-20.4701
-20.4918
-20.507
-20.5148
-27.5889
-27.5525
-27.4811
-27.377
-27.2436
-27.0848
-26.9047
-26.7074
-26.4965
-26.2756
-26.0475
-25.8148
-25.5798
-25.3444
-25.1101
-24.8783
-24.6501
-24.4264
-24.2079
-23.9948
-23.7875
-23.5858
-23.3897
-23.1992
-23.014
-22.834
-22.6591
-22.4891
-22.3241
-22.164
-22.0087
-21.8584
-21.7132
-21.5733
-21.4388
-21.31
-21.1871
-21.0705
-20.9602
-20.8566
-20.7598
-20.67
-20.5877
-20.513
-20.4464
-20.3883
-20.3391
-20.2992
-20.2688
-20.2482
-20.2374
-20.236
-20.2437
-20.2597
-20.2829
-20.3118
-20.3448
-20.38
-20.4153
-20.4485
-20.4778
-20.5014
-20.5179
-20.5264
-27.6642
-27.6253
-27.5492
-27.4386
-27.2976
-27.1307
-26.9424
-26.7372
-26.5192
-26.2919
-26.0583
-25.8208
-25.5817
-25.3426
-25.1053
-24.8711
-24.6411
-24.416
-24.1966
-23.983
-23.7755
-23.5738
-23.378
-23.1877
-23.0027
-22.8229
-22.6482
-22.4784
-22.3135
-22.1533
-21.9979
-21.8473
-21.7018
-21.5614
-21.4264
-21.2971
-21.1738
-21.0566
-20.9459
-20.8418
-20.7444
-20.654
-20.5709
-20.4954
-20.428
-20.3691
-20.3192
-20.2788
-20.2482
-20.2277
-20.2174
-20.2172
-20.2266
-20.2449
-20.271
-20.3034
-20.3404
-20.3797
-20.4191
-20.4563
-20.489
-20.5154
-20.5339
-20.5433
-27.7608
-27.7186
-27.636
-27.5168
-27.3657
-27.188
-26.989
-26.7739
-26.5469
-26.3116
-26.0711
-25.8276
-25.5833
-25.3399
-25.0989
-24.8617
-24.6293
-24.4025
-24.182
-23.9679
-23.7603
-23.5588
-23.3632
-23.1733
-22.9886
-22.8092
-22.6347
-22.4651
-22.3002
-22.14
-21.9845
-21.8336
-21.6875
-21.5465
-21.4109
-21.281
-21.157
-21.0393
-20.928
-20.8233
-20.7252
-20.6341
-20.5501
-20.4736
-20.4051
-20.3451
-20.2943
-20.2531
-20.2221
-20.2017
-20.192
-20.193
-20.2045
-20.2257
-20.2556
-20.2925
-20.3345
-20.3793
-20.4242
-20.4665
-20.5038
-20.5338
-20.5547
-20.5655
-27.8775
-27.831
-27.7403
-27.6101
-27.4462
-27.2551
-27.0431
-26.8158
-26.5781
-26.3335
-26.085
-25.8347
-25.5844
-25.3359
-25.0906
-24.8498
-24.6147
-24.386
-24.1644
-23.9498
-23.7421
-23.5409
-23.3458
-23.1564
-22.9722
-22.7931
-22.619
-22.4496
-22.2849
-22.1247
-21.9689
-21.8176
-21.671
-21.5293
-21.3928
-21.2621
-21.1374
-21.019
-20.9071
-20.8017
-20.7029
-20.6108
-20.5257
-20.448
-20.3782
-20.3168
-20.2647
-20.2226
-20.191
-20.1705
-20.1614
-20.1639
-20.1778
-20.2024
-20.2367
-20.2791
-20.3273
-20.3788
-20.4305
-20.4792
-20.5221
-20.5565
-20.5805
-20.5929
-28.0138
-27.9618
-27.861
-27.7171
-27.5375
-27.3303
-27.1028
-26.8615
-26.6116
-26.3566
-26.0992
-25.8413
-25.5846
-25.3304
-25.0802
-24.8355
-24.5973
-24.3666
-24.1438
-23.9288
-23.7213
-23.5207
-23.3262
-23.1374
-22.9538
-22.7752
-22.6014
-22.4323
-22.2678
-22.1076
-21.9516
-21.7999
-21.6525
-21.5099
-21.3725
-21.2409
-21.1154
-20.9962
-20.8836
-20.7775
-20.678
-20.5849
-20.4986
-20.4194
-20.3479
-20.2849
-20.2312
-20.1878
-20.1553
-20.1346
-20.126
-20.13
-20.1465
-20.1749
-20.2144
-20.2631
-20.3187
-20.3782
-20.438
-20.4944
-20.5439
-20.5836
-20.6113
-20.6255
-28.1691
-28.1104
-27.9971
-27.8366
-27.6383
-27.412
-27.1666
-26.9095
-26.646
-26.3798
-26.113
-25.8472
-25.5835
-25.3232
-25.0678
-24.8186
-24.5771
-24.3442
-24.1202
-23.9051
-23.6981
-23.4983
-23.3047
-23.1167
-22.9338
-22.7557
-22.5823
-22.4136
-22.2493
-22.0892
-21.933
-21.7807
-21.6325
-21.4889
-21.3503
-21.2176
-21.0911
-20.9712
-20.858
-20.7513
-20.6509
-20.5568
-20.4691
-20.3882
-20.3148
-20.2498
-20.1943
-20.1492
-20.1156
-20.0943
-20.0861
-20.0916
-20.1107
-20.1434
-20.1885
-20.2445
-20.3086
-20.3774
-20.4467
-20.5122
-20.5695
-20.6154
-20.6472
-20.6635
-28.3436
-28.2767
-28.1482
-27.9677
-27.7471
-27.4986
-27.2328
-26.9582
-26.6802
-26.4022
-26.1259
-25.8519
-25.581
-25.3142
-25.053
-24.7991
-24.554
-24.3188
-24.0939
-23.8789
-23.6727
-23.4741
-23.2818
-23.0947
-22.9125
-22.7349
-22.562
-22.3937
-22.2298
-22.0699
-21.9135
-21.7607
-21.6114
-21.4665
-21.3265
-21.1925
-21.065
-20.9444
-20.8306
-20.7234
-20.6223
-20.5271
-20.4379
-20.3551
-20.2795
-20.2121
-20.1542
-20.1072
-20.072
-20.05
-20.042
-20.0487
-20.0706
-20.1076
-20.159
-20.223
-20.2969
-20.3764
-20.4568
-20.5327
-20.5991
-20.6519
-20.6884
-20.707
-28.5375
-28.4605
-28.3136
-28.1092
-27.8624
-27.5884
-27.2998
-27.0061
-26.713
-26.4231
-26.1372
-25.8551
-25.5769
-25.3033
-25.036
-24.7768
-24.5279
-24.2903
-24.0647
-23.8502
-23.6454
-23.4484
-23.2576
-23.0717
-22.8902
-22.7132
-22.5407
-22.3729
-22.2095
-22.0499
-21.8935
-21.7399
-21.5895
-21.443
-21.3014
-21.1659
-21.0373
-20.916
-20.8018
-20.6942
-20.5925
-20.4963
-20.4055
-20.3205
-20.2423
-20.1721
-20.1116
-20.0621
-20.0251
-20.002
-19.9937
-20.0015
-20.026
-20.0676
-20.1256
-20.1986
-20.2833
-20.3751
-20.4682
-20.5561
-20.6327
-20.6934
-20.735
-20.7561
-28.7513
-28.6622
-28.4931
-28.2602
-27.9828
-27.6796
-27.3658
-27.0518
-26.7431
-26.4416
-26.1466
-25.8567
-25.5712
-25.2907
-25.0167
-24.7518
-24.4986
-24.2588
-24.0326
-23.8191
-23.6164
-23.4216
-23.2327
-23.0481
-22.8673
-22.6906
-22.5186
-22.3514
-22.1888
-22.0297
-21.8733
-21.719
-21.5671
-21.4187
-21.2751
-21.1379
-21.0081
-20.8861
-20.7717
-20.664
-20.562
-20.4648
-20.3723
-20.2849
-20.2037
-20.1304
-20.0667
-20.0144
-19.9751
-19.9505
-19.9417
-19.9502
-19.9771
-20.0231
-20.0882
-20.1708
-20.2676
-20.3733
-20.481
-20.5826
-20.6708
-20.74
-20.7871
-20.8108
-28.9858
-28.8819
-28.6863
-28.4196
-28.1067
-27.7706
-27.4291
-27.0936
-26.7695
-26.4571
-26.1539
-25.8567
-25.5642
-25.2763
-24.9951
-24.724
-24.4662
-24.224
-23.9976
-23.7859
-23.5859
-23.394
-23.2074
-23.0242
-22.8441
-22.6675
-22.4957
-22.3293
-22.1677
-22.0094
-21.8531
-21.6981
-21.5445
-21.3938
-21.2478
-21.1085
-20.9775
-20.855
-20.7407
-20.6333
-20.5311
-20.4331
-20.3388
-20.2487
-20.1642
-20.0871
-20.0198
-19.9643
-19.9224
-19.8958
-19.8861
-19.8949
-19.9238
-19.9742
-20.0465
-20.1394
-20.2496
-20.371
-20.4952
-20.6124
-20.7135
-20.792
-20.8448
-20.8711
-29.2421
-29.1204
-28.8929
-28.5864
-28.2323
-27.8592
-27.4877
-27.1302
-26.7912
-26.4691
-26.1589
-25.8554
-25.556
-25.2605
-24.9714
-24.6932
-24.4304
-24.1858
-23.9597
-23.7505
-23.5542
-23.366
-23.1821
-23.0004
-22.8207
-22.644
-22.4723
-22.3067
-22.1465
-21.9895
-21.8335
-21.6776
-21.5221
-21.3685
-21.2195
-21.078
-20.9455
-20.8228
-20.7089
-20.6022
-20.5003
-20.4016
-20.3054
-20.2123
-20.124
-20.0428
-19.9714
-19.9122
-19.8672
-19.8383
-19.8272
-19.8358
-19.8663
-19.9207
-20.0002
-20.1041
-20.2289
-20.3678
-20.5109
-20.6459
-20.7613
-20.8496
-20.908
-20.9368
-29.5216
-29.3783
-29.1128
-28.7593
-28.3578
-27.9436
-27.54
-27.1599
-26.8072
-26.4773
-26.1618
-25.853
-25.547
-25.2436
-24.9457
-24.6594
-24.3911
-24.144
-23.9186
-23.7129
-23.5215
-23.3381
-23.1573
-22.9771
-22.7974
-22.6201
-22.4481
-22.2835
-22.1253
-21.9701
-21.8147
-21.6579
-21.5
-21.343
-21.1904
-21.0462
-20.9123
-20.7894
-20.6765
-20.5711
-20.47
-20.3707
-20.2726
-20.1762
-20.0835
-19.9976
-19.9217
-19.8584
-19.8099
-19.7782
-19.7652
-19.773
-19.8044
-19.8623
-19.949
-20.0644
-20.2052
-20.3636
-20.5281
-20.6835
-20.8147
-20.9131
-20.9769
-21.0078
-29.8258
-29.6565
-29.3458
-28.9371
-28.4812
-28.0216
-27.5839
-27.1813
-26.8166
-26.4814
-26.1629
-25.8499
-25.5377
-25.226
-24.9181
-24.6225
-24.348
-24.0984
-23.8743
-23.6733
-23.4883
-23.3106
-23.1334
-22.9546
-22.7746
-22.5958
-22.423
-22.2597
-22.1042
-21.9515
-21.7971
-21.6394
-21.4787
-21.3174
-21.1605
-21.0131
-20.8776
-20.7548
-20.6436
-20.5402
-20.4405
-20.3409
-20.2407
-20.1407
-20.0431
-19.9517
-19.8708
-19.803
-19.7507
-19.7159
-19.7006
-19.707
-19.7384
-19.7991
-19.8925
-20.0199
-20.1778
-20.3579
-20.547
-20.7255
-20.8741
-20.9827
-21.0512
-21.0837
-30.1565
-29.956
-29.5918
-29.1183
-28.6002
-28.091
-27.6176
-27.1929
-26.8186
-26.4814
-26.1626
-25.8467
-25.5286
-25.2083
-24.8888
-24.5822
-24.301
-24.0488
-23.8265
-23.6317
-23.4548
-23.2842
-23.111
-22.9333
-22.7525
-22.5711
-22.3968
-22.2352
-22.0833
-21.9342
-21.7811
-21.6223
-21.4585
-21.2919
-21.1295
-20.9786
-20.8415
-20.7191
-20.6102
-20.5099
-20.4122
-20.3125
-20.2101
-20.1062
-20.003
-19.9054
-19.819
-19.7464
-19.69
-19.6518
-19.6336
-19.6378
-19.6684
-19.7309
-19.8306
-19.9702
-20.1465
-20.3504
-20.5674
-20.7728
-20.9403
-21.0586
-21.1306
-21.164
-30.5161
-30.2776
-29.8506
-29.3012
-28.7122
-28.1497
-27.6393
-27.1932
-26.8126
-26.4774
-26.1618
-25.8442
-25.5204
-25.1911
-24.8579
-24.5382
-24.2497
-23.9949
-23.7749
-23.588
-23.4213
-23.2594
-23.0905
-22.9137
-22.7314
-22.5461
-22.3691
-22.2095
-22.0628
-21.9185
-21.767
-21.6071
-21.4398
-21.2666
-21.0975
-20.9427
-20.8038
-20.682
-20.5764
-20.4803
-20.3855
-20.2859
-20.1812
-20.0731
-19.9633
-19.8588
-19.7665
-19.6888
-19.6279
-19.5861
-19.5646
-19.5659
-19.5946
-19.6576
-19.7626
-19.9147
-20.1105
-20.3404
-20.5895
-20.8262
-21.0142
-21.1412
-21.215
-21.2479
-30.9069
-30.6223
-30.1223
-29.4839
-28.814
-28.1957
-27.6475
-27.1805
-26.7979
-26.4698
-26.1612
-25.8429
-25.5137
-25.1754
-24.8258
-24.4901
-24.194
-23.9364
-23.719
-23.5422
-23.3884
-23.2372
-23.0724
-22.896
-22.7118
-22.5205
-22.3391
-22.1825
-22.0427
-21.9048
-21.7551
-21.5939
-21.423
-21.2415
-21.0641
-20.9051
-20.7645
-20.6433
-20.5422
-20.4517
-20.361
-20.2614
-20.1542
-20.0417
-19.9244
-19.8117
-19.7133
-19.6304
-19.5648
-19.5192
-19.4942
-19.4918
-19.5172
-19.5791
-19.6884
-19.853
-20.0693
-20.327
-20.613
-20.8867
-21.0968
-21.2307
-21.3037
-21.3346
-31.332
-30.9908
-30.4071
-29.6644
-28.9022
-28.227
-27.6406
-27.1532
-26.7739
-26.4589
-26.1625
-25.8437
-25.5089
-25.1625
-24.7925
-24.4368
-24.1337
-23.8733
-23.6582
-23.4944
-23.3563
-23.2183
-23.0572
-22.8805
-22.6944
-22.4941
-22.306
-22.1537
-22.0231
-21.8939
-21.7459
-21.5831
-21.4088
-21.2169
-21.0288
-20.8659
-20.7233
-20.6026
-20.5076
-20.4244
-20.3391
-20.2394
-20.1294
-20.0125
-19.8862
-19.7641
-19.6597
-19.5714
-19.5007
-19.4516
-19.4227
-19.4159
-19.4365
-19.4956
-19.6074
-19.7846
-20.0225
-20.3091
-20.6376
-20.9561
-21.1894
-21.3273
-21.3961
-21.4232
-31.7947
-31.3833
-30.7057
-29.8403
-28.9723
-28.2423
-27.6178
-27.1092
-26.7405
-26.4454
-26.1673
-25.8471
-25.5061
-25.1539
-24.7583
-24.3773
-24.0691
-23.8055
-23.5916
-23.4443
-23.3257
-23.204
-23.0453
-22.8673
-22.68
-22.467
-22.2685
-22.1225
-22.0041
-21.8866
-21.7394
-21.5747
-21.3981
-21.1927
-20.9909
-20.8251
-20.6802
-20.5595
-20.4725
-20.3986
-20.3206
-20.2201
-20.1067
-19.9861
-19.8491
-19.7157
-19.6057
-19.512
-19.436
-19.3835
-19.3507
-19.3387
-19.353
-19.4069
-19.5192
-19.7093
-19.9696
-20.2851
-20.6629
-21.0364
-21.2937
-21.431
-21.4914
-21.5123
-32.2991
-31.7988
-31.0195
-30.009
-29.0186
-28.241
-27.5785
-27.0462
-26.6974
-26.4299
-26.1783
-25.8535
-25.5052
-25.1522
-24.7235
-24.3094
-24.0005
-23.7332
-23.518
-23.3921
-23.2969
-23.1958
-23.0368
-22.856
-22.6701
-22.4388
-22.2248
-22.0885
-21.9858
-21.884
-21.7359
-21.5685
-21.3922
-21.169
-20.9492
-20.7828
-20.6354
-20.5133
-20.437
-20.3746
-20.3062
-20.2035
-20.0862
-19.9634
-19.813
-19.6658
-19.5517
-19.4525
-19.3705
-19.3154
-19.2786
-19.261
-19.2671
-19.3133
-19.4231
-19.6266
-19.9106
-20.2528
-20.6876
-21.1306
-21.4115
-21.5417
-21.5884
-21.6007
-32.8504
-32.2348
-31.3514
-30.1676
-29.0337
-28.2238
-27.5229
-26.9606
-26.6449
-26.4128
-26.1987
-25.8628
-25.5051
-25.161
-24.6881
-24.2301
-23.9292
-23.6568
-23.4352
-23.3379
-23.2702
-23.196
-23.0316
-22.8459
-22.6668
-22.4095
-22.1723
-22.0514
-21.9682
-21.8878
-21.7352
-21.5638
-21.3929
-21.1458
-20.902
-20.7398
-20.5891
-20.4627
-20.4011
-20.3524
-20.2972
-20.1896
-20.0672
-19.9454
-19.778
-19.6136
-19.4979
-19.3932
-19.3041
-19.2478
-19.2071
-19.1833
-19.1794
-19.215
-19.3183
-19.5364
-19.8462
-20.2093
-20.7102
-21.2429
-21.5449
-21.6591
-21.686
-21.687
-33.4552
-32.6857
-31.7066
-30.313
-29.0076
-28.1936
-27.4523
-26.8478
-26.5842
-26.3943
-26.2336
-25.8745
-25.5033
-25.1855
-24.6523
-24.1346
-23.8573
-23.5772
-23.3405
-23.2824
-23.2454
-23.2075
-23.0294
-22.8355
-22.6734
-22.3789
-22.1075
-22.0111
-21.9511
-21.9006
-21.7368
-21.5593
-21.4031
-21.1233
-20.8467
-20.6971
-20.5417
-20.4062
-20.3651
-20.3321
-20.2951
-20.1782
-20.0491
-19.9339
-19.7443
-19.5575
-19.4451
-19.3346
-19.2365
-19.1811
-19.1365
-19.1065
-19.0905
-19.1125
-19.2035
-19.4385
-19.7778
-20.1503
-20.7278
-21.3793
-21.6961
-21.7824
-21.7826
-21.7697
-34.1221
-33.1413
-32.0939
-30.442
-28.9262
-28.1561
-27.3688
-26.7008
-26.5175
-26.3732
-26.2896
-25.8872
-25.4955
-25.2335
-24.6164
-24.0157
-23.7887
-23.4961
-23.2295
-23.2268
-23.2219
-23.2345
-23.0292
-22.822
-22.6949
-22.347
-22.0254
-21.9683
-21.9336
-21.9257
-21.7401
-21.5526
-21.4271
-21.1014
-20.7792
-20.6569
-20.4941
-20.3414
-20.3298
-20.3131
-20.3022
-20.1688
-20.0302
-19.9313
-19.7116
-19.4953
-19.3943
-19.277
-19.1669
-19.116
-19.0673
-19.0314
-19.0011
-19.0064
-19.0773
-19.3329
-19.7084
-20.0703
-20.7363
-21.5481
-21.8672
-21.9103
-21.8764
-21.8472
-34.8631
-33.5846
-32.5277
-30.5511
-28.7702
-28.1218
-27.2764
-26.5092
-26.4496
-26.3467
-26.3766
-25.8982
-25.4746
-25.3166
-24.5802
-23.8628
-23.7299
-23.4158
-23.0956
-23.1737
-23.1977
-23.2831
-23.0292
-22.8007
-22.7386
-22.3137
-21.9192
-21.925
-21.9141
-21.9684
-21.7434
-21.5397
-21.4709
-21.08
-20.6938
-20.6226
-20.4474
-20.2646
-20.2965
-20.2943
-20.3219
-20.1603
-20.008
-19.9416
-19.68
-19.4238
-19.3474
-19.2212
-19.0942
-19.0535
-18.9997
-18.959
-18.9118
-18.898
-18.937
-19.2192
-19.6434
-19.9619
-20.7291
-21.7612
-22.0599
-22.0407
-21.9657
-21.9184
-35.6947
-33.9878
-33.0306
-30.6366
-28.5124
-28.1076
-27.1802
-26.2582
-26.3885
-26.3087
-26.5084
-25.9035
-25.4292
-25.4515
-24.5439
-23.6605
-23.6909
-23.3395
-22.9294
-23.1281
-23.1687
-23.3621
-23.0269
-22.7645
-22.8151
-22.2789
-21.7793
-21.8851
-21.8893
-22.036
-21.7445
-21.5146
-21.5437
-21.0592
-20.5819
-20.5998
-20.4035
-20.1705
-20.2678
-20.2735
-20.3588
-20.1513
-19.9786
-19.9701
-19.6493
-19.3381
-19.3073
-19.1679
-19.0163
-18.995
-18.9339
-18.8904
-18.8231
-18.7891
-18.7795
-19.0968
-19.5911
-19.8151
-20.6969
-22.0353
-22.2749
-22.1709
-22.0485
-21.9818
-36.6399
-34.3083
-33.6374
-30.6946
-28.1151
-28.1394
-27.0876
-25.9259
-26.3482
-26.2481
-26.705
-25.8973
-25.3425
-25.662
-24.5069
-23.3871
-23.6868
-23.2715
-22.717
-23.0981
-23.1276
-23.484
-23.0183
-22.7025
-22.9397
-22.2424
-21.5924
-21.8557
-21.8531
-22.139
-21.7403
-21.468
-21.6583
-21.0386
-20.4315
-20.5965
-20.3647
-20.0516
-20.2484
-20.2467
-20.4198
-20.1397
-19.9362
-20.0247
-19.6191
-19.2316
-19.2784
-19.118
-18.9304
-18.9424
-18.8693
-18.8267
-18.7354
-18.6828
-18.6002
-18.9642
-19.5647
-19.6171
-20.6261
-22.3937
-22.5108
-22.2971
-22.1227
-22.0366
-37.7312
-34.4826
-34.3997
-30.7209
-27.5264
-28.2556
-27.0078
-25.481
-26.3513
-26.1456
-26.9943
-25.8711
-25.1896
-25.9814
-24.4688
-23.0118
-23.7401
-23.2177
-22.439
-23.0975
-23.0623
-23.6665
-22.9981
-22.599
-23.1337
-22.2037
-21.3404
-21.8488
-21.7955
-22.2923
-21.7261
-21.3863
-21.8328
-21.0179
-20.2258
-20.6252
-20.334
-19.897
-20.2457
-20.2072
-20.5145
-20.1224
-19.8722
-20.1165
-19.5887
-19.0949
-19.2673
-19.0725
-18.8322
-18.899
-18.8052
-18.7698
-18.6484
-18.5834
-18.3928
-18.8183
-19.5831
-19.3509
-20.4977
-22.8688
-22.7632
-22.4147
-22.1866
-22.0821
-39.0133
-34.418
-35.3922
-30.7104
-26.6757
-28.5112
-26.9517
-24.8799
-26.4327
-25.9707
-27.4155
-25.8138
-24.9356
-26.4557
-24.4283
-22.4928
-23.8825
-23.1849
-22.0677
-23.1476
-22.9532
-23.9343
-22.9591
-22.4318
-23.4265
-22.1619
-20.9989
-21.883
-21.7002
-22.5169
-21.696
-21.2508
-22.0922
-20.9964
-19.9417
-20.7031
-20.3154
-19.6916
-20.2713
-20.1442
-20.6563
-20.0956
-19.7749
-20.2608
-19.5572
-18.9154
-19.2835
-19.0322
-18.7158
-18.8691
-18.7396
-18.7216
-18.561
-18.4975
-18.1492
-18.6539
-19.6735
-18.9951
-20.2853
-23.5048
-23.0228
-22.5183
-22.2386
-22.1178
-40.548
-33.9837
-36.7202
-30.6568
-25.4685
-28.9828
-26.9324
-24.0619
-26.6451
-25.676
-28.0225
-25.7105
-24.532
-27.1471
-24.3834
-21.7734
-24.1583
-23.1817
-21.5654
-23.2806
-22.7704
-24.3215
-22.8918
-22.1699
-23.858
-22.115
-20.5349
-21.987
-21.5424
-22.8414
-21.6421
-21.035
-22.47
-20.9732
-19.5483
-20.8545
-20.3133
-19.4145
-20.343
-20.0412
-20.8638
-20.0538
-19.6278
-20.4786
-19.523
-18.676
-19.3405
-18.9981
-18.573
-18.8595
-18.6694
-18.6851
-18.471
-18.4343
-17.859
-18.4622
-19.8736
-18.5226
-19.9528
-24.3613
-23.2729
-22.6024
-22.2776
-22.1438
-42.4185
-32.9991
-38.5294
-30.5518
-23.7801
-29.7745
-26.9641
-22.9453
-27.0655
-25.1914
-28.8886
-25.5423
-23.9137
-28.138
-24.3311
-20.7792
-24.6281
-23.2179
-20.8808
-23.5438
-22.4695
-24.8746
-22.784
-21.7717
-24.481
-22.0602
-19.9052
-22.2025
-21.2848
-23.305
-21.5543
-20.7035
-23.0111
-20.9465
-19.0045
-21.1125
-20.3333
-19.0375
-20.4868
-19.874
-21.1623
-19.9904
-19.4089
-20.7976
-19.4836
-18.3543
-19.4566
-18.9706
-18.3928
-18.8795
-18.5896
-18.6643
-18.374
-18.4067
-17.509
-18.2294
-20.2341
-17.9
-19.4523
-25.5175
-23.4871
-22.6615
-22.3031
-22.1604
-44.736
-31.2202
-41.0168
-30.3836
-21.4491
-31.0249
-27.0623
-21.4209
-27.8028
-24.4161
-30.1117
-25.2849
-22.9942
-29.5361
-24.2666
-19.4131
-25.3719
-23.3044
-19.9454
-24.0046
-21.9868
-25.6554
-22.6203
-21.1822
-25.3643
-21.9926
-19.0529
-22.588
-20.8737
-23.9593
-21.4193
-20.2089
-23.7734
-20.9136
-18.2567
-21.5203
-20.3807
-18.5221
-20.7388
-19.6068
-21.5848
-19.8955
-19.088
-21.2531
-19.4342
-17.9199
-19.6551
-18.9477
-18.1589
-18.9402
-18.491
-18.6628
-18.2611
-18.43
-17.0809
-17.932
-20.8189
-17.0831
-18.717
-27.0736
-23.6211
-22.688
-22.3115
-22.1644
)
;

boundaryField
{
    left
    {
        type            calculated;
        value           nonuniform List<scalar> 
32
(
-27.5091
-27.5365
-27.5889
-27.6642
-27.7608
-27.8775
-28.0138
-28.1691
-28.3436
-28.5375
-28.7513
-28.9858
-29.2421
-29.5216
-29.8258
-30.1565
-30.5161
-30.9069
-31.332
-31.7947
-32.2991
-32.8504
-33.4552
-34.1221
-34.8631
-35.6947
-36.6399
-37.7312
-39.0133
-40.548
-42.4185
-44.736
)
;
    }
    right
    {
        type            calculated;
        value           nonuniform List<scalar> 
32
(
-20.5088
-20.5148
-20.5264
-20.5433
-20.5655
-20.5929
-20.6255
-20.6635
-20.707
-20.7561
-20.8108
-20.8711
-20.9368
-21.0078
-21.0837
-21.164
-21.2479
-21.3346
-21.4232
-21.5123
-21.6007
-21.687
-21.7697
-21.8472
-21.9184
-21.9818
-22.0366
-22.0821
-22.1178
-22.1438
-22.1604
-22.1644
)
;
    }
    interface
    {
        type            calculated;
        value           nonuniform List<scalar> 
64
(
-46.0223
-30.0972
-42.4582
-30.282
-20.1002
-31.7845
-27.1299
-20.5412
-28.2667
-23.9411
-30.8265
-25.1307
-22.447
-30.3521
-24.2307
-18.6234
-25.8237
-23.3616
-19.4054
-24.2941
-21.6907
-26.1115
-22.5223
-20.8316
-25.8807
-21.9549
-18.563
-22.8319
-20.6218
-24.3415
-21.3382
-19.9141
-24.2179
-20.8951
-17.824
-21.7677
-20.4118
-18.2242
-20.8971
-19.4428
-21.8317
-19.8388
-18.8976
-21.5198
-19.4061
-17.6701
-19.778
-18.937
-18.026
-18.9821
-18.4354
-18.6672
-18.1989
-18.4562
-16.8446
-17.7634
-21.176
-16.6197
-18.2809
-27.9653
-23.6611
-22.6917
-22.3106
-22.1624
)
;
    }
    bottom
    {
        type            calculated;
        value           nonuniform List<scalar> 
64
(
-27.5019
-27.4683
-27.402
-27.3051
-27.1803
-27.0307
-26.8599
-26.6715
-26.469
-26.2555
-26.034
-25.8071
-25.5771
-25.3459
-25.1151
-24.8862
-24.6603
-24.4383
-24.2209
-24.0085
-23.8015
-23.5998
-23.4036
-23.2128
-23.0273
-22.8471
-22.6719
-22.5019
-22.3368
-22.1767
-22.0217
-21.8717
-21.7268
-21.5874
-21.4534
-21.3252
-21.203
-21.0869
-20.9772
-20.8742
-20.778
-20.6891
-20.6075
-20.5337
-20.468
-20.4108
-20.3624
-20.323
-20.2929
-20.2721
-20.2605
-20.2578
-20.2634
-20.2767
-20.2964
-20.3214
-20.3499
-20.3804
-20.4109
-20.4397
-20.4651
-20.4855
-20.4999
-20.5073
)
;
    }
    defaultFaces
    {
        type            empty;
    }
}


// ************************************************************************* //
