/*--------------------------------*- C++ -*----------------------------------*\
| =========                 |                                                 |
| \\      /  F ield         | OpenFOAM: The Open Source CFD Toolbox           |
|  \\    /   O peration     | Version:  5.x                                   |
|   \\  /    A nd           | Web:      www.OpenFOAM.org                      |
|    \\/     M anipulation  |                                                 |
\*---------------------------------------------------------------------------*/
FoamFile
{
    version     2.0;
    format      ascii;
    class       volScalarField;
    location    "1.2999";
    object      gradTy;
}
// * * * * * * * * * * * * * * * * * * * * * * * * * * * * * * * * * * * * * //

dimensions      [0 -1 0 1 0 0 0];

internalField   nonuniform List<scalar> 
2048
(
-27.5385
-27.505
-27.439
-27.3425
-27.2182
-27.0696
-26.9
-26.7132
-26.5126
-26.3015
-26.0828
-25.8592
-25.6328
-25.4056
-25.1793
-24.9554
-24.7349
-24.5188
-24.3078
-24.1023
-23.9026
-23.7088
-23.5211
-23.3393
-23.1635
-22.9934
-22.8291
-22.6705
-22.5175
-22.3702
-22.2285
-22.0925
-21.9623
-21.8381
-21.7201
-21.6083
-21.5032
-21.4047
-21.3132
-21.2289
-21.1519
-21.0826
-21.0211
-20.9677
-20.9228
-20.8866
-20.8593
-20.8412
-20.8323
-20.8327
-20.8421
-20.8602
-20.8862
-20.9191
-20.9578
-21.0007
-21.046
-21.0918
-21.136
-21.1765
-21.2116
-21.2395
-21.2588
-21.2687
-27.5656
-27.5312
-27.4636
-27.3649
-27.238
-27.0864
-26.9139
-26.7243
-26.5211
-26.3076
-26.0868
-25.8613
-25.6333
-25.4048
-25.1774
-24.9526
-24.7313
-24.5147
-24.3033
-24.0975
-23.8977
-23.7039
-23.5162
-23.3345
-23.1587
-22.9887
-22.8244
-22.6658
-22.5129
-22.3655
-22.2237
-22.0877
-21.9574
-21.833
-21.7148
-21.6029
-21.4975
-21.3989
-21.3072
-21.2227
-21.1456
-21.076
-21.0143
-20.9607
-20.9155
-20.8791
-20.8516
-20.8334
-20.8246
-20.8251
-20.8349
-20.8535
-20.8802
-20.9142
-20.9541
-20.9984
-21.0453
-21.0927
-21.1385
-21.1806
-21.217
-21.246
-21.2661
-21.2764
-27.6175
-27.5815
-27.5107
-27.4076
-27.2755
-27.1184
-26.9403
-26.7452
-26.537
-26.319
-26.0942
-25.8653
-25.6343
-25.4032
-25.1737
-24.947
-24.7244
-24.5067
-24.2946
-24.0884
-23.8884
-23.6946
-23.5069
-23.3253
-23.1496
-22.9797
-22.8156
-22.657
-22.5041
-22.3566
-22.2148
-22.0785
-21.948
-21.8233
-21.7048
-21.5926
-21.4869
-21.3879
-21.2959
-21.2111
-21.1335
-21.0636
-21.0014
-20.9474
-20.9017
-20.8649
-20.8371
-20.8186
-20.8098
-20.8106
-20.821
-20.8406
-20.8688
-20.9046
-20.9469
-20.994
-21.0439
-21.0945
-21.1435
-21.1886
-21.2276
-21.2586
-21.2801
-21.2912
-27.692
-27.6535
-27.578
-27.4685
-27.3288
-27.1634
-26.9771
-26.7743
-26.5589
-26.3345
-26.1042
-25.8704
-25.6352
-25.4006
-25.168
-24.9389
-24.7144
-24.4952
-24.2821
-24.0754
-23.8751
-23.6813
-23.4937
-23.3123
-23.1368
-22.9671
-22.8031
-22.6447
-22.4917
-22.3442
-22.2022
-22.0657
-21.9348
-21.8098
-21.6908
-21.578
-21.4719
-21.3725
-21.28
-21.1947
-21.1166
-21.0461
-20.9833
-20.9286
-20.8823
-20.8447
-20.8164
-20.7977
-20.7888
-20.7899
-20.8011
-20.822
-20.8522
-20.8908
-20.9364
-20.9874
-21.0418
-21.097
-21.1506
-21.2
-21.2428
-21.2769
-21.3005
-21.3127
-27.7877
-27.7458
-27.6639
-27.5457
-27.3959
-27.2198
-27.0228
-26.81
-26.5855
-26.3532
-26.1159
-25.8761
-25.6358
-25.3967
-25.1604
-24.9282
-24.7013
-24.4804
-24.2662
-24.0588
-23.8583
-23.6646
-23.4772
-23.2961
-23.1209
-22.9514
-22.7876
-22.6293
-22.4764
-22.3288
-22.1866
-22.0498
-21.9184
-21.7928
-21.6732
-21.5599
-21.4531
-21.3531
-21.2601
-21.1742
-21.0955
-21.0243
-20.9607
-20.9051
-20.8579
-20.8195
-20.7904
-20.7711
-20.7621
-20.7635
-20.7756
-20.7982
-20.8309
-20.8729
-20.9228
-20.9789
-21.0389
-21.1002
-21.1598
-21.2149
-21.2627
-21.3006
-21.327
-21.3406
-27.9033
-27.8571
-27.7671
-27.6379
-27.4753
-27.2858
-27.0757
-26.8508
-26.6156
-26.3739
-26.1286
-25.8819
-25.6356
-25.3914
-25.1507
-24.9149
-24.6852
-24.4624
-24.2469
-24.0389
-23.8384
-23.6448
-23.4578
-23.2771
-23.1022
-22.9331
-22.7695
-22.6113
-22.4585
-22.3109
-22.1685
-22.0313
-21.8993
-21.773
-21.6527
-21.5386
-21.4311
-21.3305
-21.2368
-21.1503
-21.0709
-20.9989
-20.9343
-20.8777
-20.8293
-20.7898
-20.7597
-20.7396
-20.7302
-20.7319
-20.7449
-20.7694
-20.8049
-20.8509
-20.9059
-20.9682
-21.0352
-21.1039
-21.171
-21.2331
-21.287
-21.3298
-21.3595
-21.3748
-28.0383
-27.9866
-27.8865
-27.7436
-27.5654
-27.3598
-27.1342
-26.8952
-26.6478
-26.3956
-26.1415
-25.8871
-25.6343
-25.3844
-25.1388
-24.899
-24.6662
-24.4412
-24.2244
-24.016
-23.8155
-23.6224
-23.4359
-23.2557
-23.0813
-22.9125
-22.7492
-22.5913
-22.4386
-22.291
-22.1483
-22.0106
-21.878
-21.7509
-21.6296
-21.5146
-21.4063
-21.305
-21.2107
-21.1235
-21.0434
-20.9704
-20.9048
-20.8468
-20.7971
-20.7561
-20.7248
-20.7037
-20.6937
-20.6955
-20.7094
-20.7357
-20.7744
-20.8248
-20.8857
-20.9552
-21.0304
-21.1081
-21.1841
-21.2547
-21.3158
-21.3644
-21.398
-21.4152
-28.1923
-28.1339
-28.0213
-27.8618
-27.6648
-27.4401
-27.1967
-26.9418
-26.6808
-26.4174
-26.1538
-25.8915
-25.6316
-25.3756
-25.1247
-24.8804
-24.6442
-24.4169
-24.1989
-23.9902
-23.7901
-23.5976
-23.412
-23.2324
-23.0586
-22.8902
-22.7272
-22.5695
-22.417
-22.2694
-22.1266
-21.9883
-21.8549
-21.7268
-21.6044
-21.4884
-21.3791
-21.277
-21.1821
-21.0943
-21.0134
-20.9395
-20.8727
-20.8133
-20.7618
-20.7192
-20.6862
-20.6639
-20.653
-20.6545
-20.6692
-20.6974
-20.7393
-20.7946
-20.8621
-20.9398
-21.0246
-21.1125
-21.1992
-21.2795
-21.3492
-21.4044
-21.4426
-21.462
-28.3653
-28.2987
-28.1709
-27.9914
-27.7722
-27.5253
-27.2615
-26.989
-26.7135
-26.4383
-26.165
-25.8945
-25.6274
-25.3648
-25.1081
-24.8591
-24.6192
-24.3895
-24.1705
-23.9617
-23.7623
-23.5709
-23.3863
-23.2076
-23.0343
-22.8663
-22.7037
-22.5464
-22.3942
-22.2467
-22.1036
-21.9648
-21.8304
-21.7011
-21.5774
-21.4601
-21.3499
-21.247
-21.1515
-21.0631
-20.9816
-20.9067
-20.8385
-20.7774
-20.7241
-20.6795
-20.6445
-20.6205
-20.6084
-20.6094
-20.6245
-20.6545
-20.6997
-20.7602
-20.8348
-20.9217
-21.0173
-21.1172
-21.216
-21.3078
-21.3873
-21.45
-21.4932
-21.5152
-28.5576
-28.481
-28.3348
-28.1314
-27.886
-27.6136
-27.327
-27.0354
-26.7447
-26.4576
-26.1747
-25.896
-25.6216
-25.3521
-25.0893
-24.8349
-24.5911
-24.359
-24.139
-23.9307
-23.7324
-23.5425
-23.3593
-23.1816
-23.009
-22.8414
-22.679
-22.5221
-22.3703
-22.2231
-22.0799
-21.9404
-21.8049
-21.6741
-21.5489
-21.4302
-21.3189
-21.2153
-21.1193
-21.0305
-20.9483
-20.8725
-20.8029
-20.7399
-20.6844
-20.6374
-20.6001
-20.574
-20.5603
-20.5605
-20.5757
-20.6071
-20.6555
-20.7213
-20.8037
-20.9006
-21.0085
-21.122
-21.2348
-21.3397
-21.4302
-21.5014
-21.55
-21.5746
-28.7698
-28.681
-28.5127
-28.2808
-28.0048
-27.7033
-27.3914
-27.0795
-26.7732
-26.4744
-26.1824
-25.8958
-25.6141
-25.3376
-25.0681
-24.808
-24.5598
-24.3253
-24.1047
-23.8972
-23.7008
-23.5129
-23.3314
-23.1548
-22.9828
-22.8155
-22.6534
-22.497
-22.3457
-22.199
-22.0557
-21.9156
-21.7788
-21.6462
-21.5191
-21.3988
-21.2863
-21.182
-21.0857
-20.9967
-20.9141
-20.8373
-20.7662
-20.7012
-20.6431
-20.5933
-20.5534
-20.5248
-20.5091
-20.5079
-20.5228
-20.5553
-20.6067
-20.6778
-20.7683
-20.8762
-20.9977
-21.1267
-21.2554
-21.3752
-21.4782
-21.5585
-21.6129
-21.6403
-29.0026
-28.8991
-28.7042
-28.4387
-28.1271
-27.7927
-27.4531
-27.1197
-26.798
-26.4882
-26.1878
-25.894
-25.6051
-25.3213
-25.0446
-24.7781
-24.5254
-24.2883
-24.0674
-23.8614
-23.6676
-23.4824
-23.303
-23.1277
-22.9561
-22.7889
-22.627
-22.4711
-22.3207
-22.1746
-22.0315
-21.8906
-21.7522
-21.6175
-21.4882
-21.3661
-21.2523
-21.1474
-21.051
-20.9621
-20.8793
-20.8017
-20.729
-20.6617
-20.6007
-20.5478
-20.5047
-20.4732
-20.455
-20.4521
-20.4662
-20.4993
-20.5533
-20.6296
-20.7284
-20.8482
-20.9847
-21.1311
-21.278
-21.4148
-21.5316
-21.6218
-21.6821
-21.7123
-29.2571
-29.1359
-28.9092
-28.6038
-28.2512
-27.8798
-27.5102
-27.1547
-26.818
-26.4984
-26.191
-25.8908
-25.5949
-25.3036
-25.0189
-24.7454
-24.4875
-24.248
-24.0272
-23.8235
-23.6331
-23.4514
-23.2745
-23.1005
-22.9293
-22.7618
-22.5998
-22.4446
-22.2954
-22.1504
-22.0075
-21.8659
-21.7257
-21.5884
-21.4564
-21.3321
-21.217
-21.1117
-21.0155
-20.927
-20.8443
-20.766
-20.6916
-20.6218
-20.5576
-20.5011
-20.4544
-20.4196
-20.3985
-20.3933
-20.406
-20.4391
-20.4951
-20.5763
-20.6837
-20.8161
-20.9692
-21.1349
-21.3025
-21.4585
-21.5907
-21.6912
-21.7575
-21.7902
-29.5348
-29.392
-29.1274
-28.7751
-28.3751
-27.9626
-27.5608
-27.1828
-26.8323
-26.5048
-26.1921
-25.8864
-25.584
-25.2846
-24.9912
-24.7096
-24.4462
-24.2041
-23.9838
-23.7834
-23.5976
-23.4203
-23.2464
-23.0738
-22.9025
-22.7342
-22.5719
-22.4175
-22.27
-22.1266
-21.9843
-21.8418
-21.6994
-21.559
-21.4237
-21.2969
-21.1804
-21.0748
-20.9792
-20.8917
-20.8094
-20.7306
-20.6545
-20.5819
-20.5141
-20.4536
-20.4029
-20.3643
-20.3399
-20.3318
-20.3425
-20.3749
-20.4323
-20.5178
-20.6337
-20.7795
-20.9505
-21.138
-21.329
-21.507
-21.656
-21.7671
-21.8389
-21.8738
-29.8371
-29.6684
-29.3586
-28.9512
-28.497
-28.039
-27.6032
-27.2026
-26.84
-26.5071
-26.1913
-25.8813
-25.5726
-25.265
-24.9616
-24.6708
-24.4011
-24.1564
-23.9373
-23.7413
-23.5615
-23.3897
-23.2192
-23.0478
-22.8761
-22.7063
-22.5431
-22.3897
-22.2447
-22.1035
-21.962
-21.8186
-21.6738
-21.5295
-21.3902
-21.2605
-21.1425
-21.0368
-20.9424
-20.8564
-20.7752
-20.6959
-20.6181
-20.5424
-20.4705
-20.4054
-20.3504
-20.3077
-20.2795
-20.2681
-20.2761
-20.3069
-20.3647
-20.454
-20.5781
-20.7378
-20.9283
-21.1398
-21.3576
-21.5606
-21.728
-21.8497
-21.9262
-21.9626
-30.166
-29.966
-29.6028
-29.1307
-28.6144
-28.107
-27.6354
-27.2127
-26.8404
-26.5053
-26.1891
-25.8761
-25.5615
-25.2452
-24.9303
-24.6286
-24.3522
-24.1048
-23.8873
-23.6971
-23.5251
-23.3601
-23.1933
-23.023
-22.8504
-22.6781
-22.5132
-22.3612
-22.2194
-22.0815
-21.9411
-21.7967
-21.649
-21.5
-21.3559
-21.2229
-21.1034
-20.9978
-20.9052
-20.8216
-20.7419
-20.6624
-20.5826
-20.5037
-20.4271
-20.3569
-20.2971
-20.2501
-20.2177
-20.2025
-20.2071
-20.2354
-20.2927
-20.3845
-20.5164
-20.6905
-20.902
-21.14
-21.3882
-21.6201
-21.8075
-21.9392
-22.019
-22.0559
-30.5236
-30.2857
-29.8599
-29.312
-28.7248
-28.1643
-27.6557
-27.2114
-26.8327
-26.4995
-26.1862
-25.8715
-25.5512
-25.226
-24.8975
-24.5827
-24.299
-24.049
-23.8335
-23.651
-23.4888
-23.3321
-23.1693
-22.9997
-22.8256
-22.6494
-22.4819
-22.3316
-22.1945
-22.0608
-21.9219
-21.7765
-21.6256
-21.4707
-21.3205
-21.1841
-21.0629
-20.9576
-20.8676
-20.7873
-20.7099
-20.6303
-20.5485
-20.466
-20.3842
-20.3082
-20.2434
-20.1916
-20.1548
-20.1353
-20.1358
-20.1607
-20.2161
-20.3093
-20.4481
-20.6371
-20.871
-21.1378
-21.4209
-21.6864
-21.8954
-22.0359
-22.1169
-22.153
-30.9125
-30.6286
-30.1298
-29.4932
-28.8252
-28.2088
-27.6625
-27.1973
-26.8164
-26.4901
-26.1837
-25.8682
-25.5424
-25.2083
-24.8634
-24.5328
-24.2416
-23.9888
-23.7756
-23.6028
-23.4529
-23.3064
-23.1476
-22.9784
-22.8024
-22.6203
-22.4485
-22.3008
-22.1699
-22.0421
-21.9048
-21.7582
-21.604
-21.4417
-21.284
-21.1438
-21.0209
-20.9161
-20.8297
-20.7539
-20.6796
-20.5999
-20.5159
-20.4297
-20.3419
-20.2594
-20.1893
-20.1327
-20.0911
-20.067
-20.0628
-20.0832
-20.1353
-20.2283
-20.3729
-20.5771
-20.8348
-21.1324
-21.4556
-21.7608
-21.9929
-22.1399
-22.2193
-22.2529
-31.3355
-30.9952
-30.4129
-29.6721
-28.912
-28.2388
-27.6544
-27.1687
-26.7909
-26.4774
-26.1829
-25.8668
-25.5354
-25.1932
-24.8283
-24.4779
-24.1798
-23.924
-23.713
-23.5526
-23.418
-23.2841
-23.1288
-22.9591
-22.7812
-22.5906
-22.4122
-22.2682
-22.1458
-22.026
-21.89
-21.742
-21.5847
-21.4131
-21.2459
-21.1022
-20.9775
-20.873
-20.7915
-20.7216
-20.6516
-20.5716
-20.4851
-20.3953
-20.3004
-20.2103
-20.135
-20.0736
-20.027
-19.998
-19.9884
-20.0031
-20.0506
-20.1415
-20.29
-20.51
-20.7929
-21.1226
-21.4918
-21.8449
-22.1013
-22.2514
-22.3255
-22.3544
-31.7962
-31.3857
-30.7096
-29.8464
-28.9807
-28.2528
-27.6303
-27.1235
-26.756
-26.4621
-26.1857
-25.8681
-25.5304
-25.1824
-24.7922
-24.4169
-24.1136
-23.8546
-23.6448
-23.5003
-23.3845
-23.2663
-23.1131
-22.9421
-22.763
-22.5602
-22.3718
-22.2335
-22.1223
-22.0131
-21.8779
-21.7279
-21.5687
-21.385
-21.2056
-21.0592
-20.9326
-20.8279
-20.753
-20.6907
-20.6264
-20.5455
-20.456
-20.3631
-20.2598
-20.1609
-20.0808
-20.0145
-19.9626
-19.9287
-19.9131
-19.9211
-19.9623
-20.0488
-20.1989
-20.4353
-20.7449
-21.1065
-21.5291
-21.9412
-22.2224
-22.3705
-22.4344
-22.4562
-32.2986
-31.7993
-31.0216
-30.0136
-29.0258
-28.2503
-27.5899
-27.0593
-26.7115
-26.4448
-26.1945
-25.8723
-25.5273
-25.1784
-24.7555
-24.3477
-24.0436
-23.7809
-23.5697
-23.446
-23.3527
-23.2544
-23.1008
-22.927
-22.7491
-22.5289
-22.3256
-22.1962
-22.0994
-22.0047
-21.8685
-21.7159
-21.5569
-21.3574
-21.162
-21.0151
-20.8863
-20.7803
-20.7143
-20.6613
-20.6048
-20.5218
-20.4288
-20.3338
-20.2203
-20.1108
-20.0267
-19.9558
-19.8983
-19.8596
-19.8375
-19.8375
-19.871
-19.9505
-20.0987
-20.3528
-20.6911
-21.082
-21.5662
-22.0528
-22.3581
-22.497
-22.5448
-22.5567
-32.8478
-32.2333
-31.3517
-30.1707
-29.0398
-28.232
-27.5333
-26.9727
-26.6577
-26.426
-26.2128
-25.8794
-25.5249
-25.1847
-24.7183
-24.2672
-23.9709
-23.7033
-23.4858
-23.3898
-23.3231
-23.2507
-23.0919
-22.9131
-22.7416
-22.4967
-22.2712
-22.156
-22.0773
-22.0023
-21.8617
-21.7053
-21.5512
-21.3304
-21.1137
-20.9703
-20.8388
-20.7292
-20.6754
-20.6336
-20.5876
-20.5005
-20.4029
-20.3082
-20.1819
-20.0593
-19.9732
-19.8977
-19.834
-19.7911
-19.7621
-19.7528
-19.7772
-19.847
-19.9881
-20.2622
-20.6323
-21.0456
-21.6013
-22.1844
-22.5106
-22.6304
-22.6554
-22.6544
-33.4504
-32.6822
-31.705
-30.3148
-29.0127
-28.2007
-27.4616
-26.8591
-26.5957
-26.4058
-26.2453
-25.8889
-25.5209
-25.2065
-24.6808
-24.1709
-23.8977
-23.6226
-23.3904
-23.3324
-23.2954
-23.2579
-23.0858
-22.8989
-22.7436
-22.4633
-22.2055
-22.113
-22.0556
-22.0082
-21.8573
-21.6949
-21.554
-21.304
-21.0582
-20.926
-20.7906
-20.6732
-20.6367
-20.6077
-20.5764
-20.4814
-20.3778
-20.2877
-20.1446
-20.0054
-19.9205
-19.8405
-19.77
-19.7237
-19.6874
-19.6676
-19.6817
-19.7388
-19.8656
-20.1633
-20.5704
-20.9929
-21.6313
-22.3424
-22.6825
-22.7698
-22.7644
-22.7476
-34.1151
-33.1359
-32.0903
-30.4424
-28.9306
-28.1622
-27.3773
-26.7115
-26.5278
-26.383
-26.2989
-25.8993
-25.5109
-25.2515
-24.6431
-24.0516
-23.8278
-23.5406
-23.2791
-23.275
-23.269
-23.2802
-23.0817
-22.8818
-22.7598
-22.4289
-22.1235
-22.0678
-22.0338
-22.0256
-21.8543
-21.6825
-21.5692
-21.2783
-20.9921
-20.8838
-20.7423
-20.6105
-20.5987
-20.5831
-20.5729
-20.464
-20.3522
-20.2741
-20.1085
-19.9476
-19.8696
-19.7847
-19.7059
-19.6581
-19.614
-19.582
-19.5853
-19.6273
-19.7287
-20.0561
-20.5093
-20.9177
-21.6518
-22.536
-22.8758
-22.9138
-22.8699
-22.8347
-34.8537
-33.5772
-32.522
-30.5502
-28.774
-28.1267
-27.284
-26.5198
-26.4587
-26.3549
-26.3831
-25.9082
-25.488
-25.3311
-24.6053
-23.8991
-23.7674
-23.4593
-23.1457
-23.2202
-23.2421
-23.3236
-23.078
-22.8573
-22.7972
-22.3932
-22.019
-22.0222
-22.0102
-22.0594
-21.8516
-21.6646
-21.6023
-21.2531
-20.9103
-20.8469
-20.6951
-20.5378
-20.5628
-20.5591
-20.5799
-20.4478
-20.3243
-20.2702
-20.0734
-19.8836
-19.8215
-19.7306
-19.6412
-19.5949
-19.5425
-19.4965
-19.4889
-19.5142
-19.574
-19.9403
-20.4553
-20.8115
-21.6556
-22.7783
-23.0925
-23.06
-22.97
-22.9143
-35.6829
-33.9786
-33.0227
-30.6344
-28.5161
-28.1113
-27.1871
-26.2689
-26.3965
-26.3155
-26.5118
-25.9115
-25.441
-25.4617
-24.5672
-23.6981
-23.7265
-23.382
-22.9809
-23.1727
-23.2106
-23.3963
-23.0721
-22.8186
-22.8658
-22.3562
-21.8829
-21.9799
-21.9819
-22.1164
-21.847
-21.6355
-21.6614
-21.2285
-20.8052
-20.82
-20.6505
-20.4508
-20.5311
-20.5337
-20.6012
-20.4314
-20.2909
-20.2801
-20.0392
-19.8101
-19.7782
-19.6788
-19.5753
-19.535
-19.4734
-19.4109
-19.3936
-19.4027
-19.3965
-19.8151
-20.4187
-20.6631
-21.6325
-23.0874
-23.3331
-23.2055
-23.0624
-22.9851
-36.6257
-34.2975
-33.6269
-30.6912
-28.1193
-28.1416
-27.0937
-25.9373
-26.355
-26.2537
-26.7047
-25.9034
-25.3531
-25.6667
-24.5286
-23.4273
-23.7198
-23.313
-22.7714
-23.1407
-23.1677
-23.5106
-23.0602
-22.7554
-22.9802
-22.3177
-21.7027
-21.9476
-21.9432
-22.2062
-21.8376
-21.587
-21.7581
-21.2041
-20.6664
-20.8104
-20.6104
-20.3431
-20.5075
-20.5039
-20.6424
-20.4132
-20.2476
-20.3097
-20.0055
-19.7226
-19.7427
-19.6295
-19.5067
-19.4795
-19.4075
-19.3252
-19.3
-19.2973
-19.1895
-19.6792
-20.415
-20.4577
-21.5681
-23.489
-23.5963
-23.3461
-23.145
-23.0459
-37.7143
-34.4705
-34.3862
-30.7163
-27.5317
-28.2561
-27.0129
-25.494
-26.3566
-26.1505
-26.9895
-25.8756
-25.1999
-25.9791
-24.4888
-23.0566
-23.7694
-23.2578
-22.498
-23.1374
-23.1015
-23.6835
-23.0374
-22.6525
-23.1607
-22.277
-21.4615
-21.9367
-21.8849
-22.3428
-21.8191
-21.507
-21.9087
-21.1795
-20.479
-20.8287
-20.5775
-20.2055
-20.4985
-20.464
-20.7113
-20.3908
-20.188
-20.3675
-19.9715
-19.6146
-19.7194
-19.5832
-19.4335
-19.4301
-19.3453
-19.2386
-19.2088
-19.2049
-18.9437
-19.5295
-20.4669
-20.1756
-21.4416
-24.0186
-23.877
-23.4768
-23.216
-23.0961
-38.9935
-34.4051
-35.375
-30.7047
-26.6832
-28.5092
-26.9558
-24.8954
-26.4361
-25.9756
-27.405
-25.8169
-24.947
-26.4441
-24.4464
-22.5448
-23.9063
-23.2231
-22.134
-23.1835
-22.9932
-23.9389
-22.9964
-22.4889
-23.4354
-22.2331
-21.1362
-21.9646
-21.792
-22.5454
-21.7861
-21.3783
-22.1357
-21.1539
-20.2229
-20.8902
-20.5549
-20.0253
-20.5138
-20.4054
-20.8189
-20.3608
-20.1032
-20.465
-19.9363
-19.4776
-19.7149
-19.5401
-19.3529
-19.389
-19.2875
-19.1504
-19.1199
-19.1354
-18.6465
-19.3606
-20.6065
-19.7918
-21.2248
-24.7247
-24.165
-23.5917
-23.2736
-23.1355
-40.5249
-33.9709
-36.6984
-30.6499
-25.4795
-28.9775
-26.9351
-24.0815
-26.6458
-25.682
-28.0046
-25.7128
-24.5467
-27.1232
-24.3995
-21.8367
-24.1741
-23.2172
-21.6426
-23.3104
-22.8137
-24.3097
-22.9282
-22.235
-23.8421
-22.1842
-20.696
-22.0583
-21.6414
-22.8407
-21.7311
-21.1772
-22.4695
-21.1262
-19.8709
-21.0164
-20.5465
-19.7848
-20.5685
-20.3148
-20.9804
-20.319
-19.9809
-20.6182
-19.8983
-19.3002
-19.7384
-19.5
-19.2611
-19.3592
-19.235
-19.0591
-19.032
-19.1029
-18.282
-19.1639
-20.8782
-19.2741
-20.8794
-25.6725
-24.4422
-23.685
-23.317
-23.1641
-42.3917
-32.9876
-38.5019
-30.5435
-23.7967
-29.7646
-26.965
-22.971
-27.0621
-25.2004
-28.861
-25.5442
-23.9346
-28.0976
-24.3449
-20.859
-24.6321
-23.2495
-20.9739
-23.5643
-22.5204
-24.8409
-22.8208
-21.8515
-24.4315
-22.1271
-20.1003
-22.2568
-21.3986
-23.2648
-21.6446
-20.8721
-22.9505
-21.0946
-19.3873
-21.2362
-20.5566
-19.4604
-20.6845
-20.1722
-21.2166
-20.2595
-19.8044
-20.8483
-19.8548
-19.0674
-19.8028
-19.4622
-19.1531
-19.3448
-19.1884
-18.9633
-18.9426
-19.1269
-17.8293
-18.9254
-21.342
-18.5828
-20.3543
-26.9491
-24.6796
-23.751
-23.3459
-23.1826
-44.7047
-31.2115
-40.9818
-30.3738
-21.4739
-31.0084
-27.0606
-21.4554
-27.7933
-24.4307
-30.0711
-25.2872
-23.0256
-29.4734
-24.2776
-19.5167
-25.3589
-23.3305
-20.0614
-24.0103
-22.0515
-25.5922
-22.6591
-21.2855
-25.2688
-22.0568
-19.2957
-22.6151
-21.0138
-23.8656
-21.5142
-20.4201
-23.6309
-21.0557
-18.7249
-21.5878
-20.5893
-19.0196
-20.8923
-19.9482
-21.5543
-20.174
-19.5511
-21.1821
-19.8011
-18.7586
-19.924
-19.4236
-19.021
-19.3498
-19.147
-18.8593
-18.8449
-19.232
-17.2612
-18.6225
-22.0746
-17.6662
-19.5807
-28.6662
-24.831
-23.7837
-23.3588
-23.1897
)
;

boundaryField
{
    left
    {
        type            calculated;
        value           nonuniform List<scalar> 
32
(
-27.5385
-27.5656
-27.6175
-27.692
-27.7877
-27.9033
-28.0383
-28.1923
-28.3653
-28.5576
-28.7698
-29.0026
-29.2571
-29.5348
-29.8371
-30.166
-30.5236
-30.9125
-31.3355
-31.7962
-32.2986
-32.8478
-33.4504
-34.1151
-34.8537
-35.6829
-36.6257
-37.7143
-38.9935
-40.5249
-42.3917
-44.7047
)
;
    }
    right
    {
        type            calculated;
        value           nonuniform List<scalar> 
32
(
-21.2687
-21.2764
-21.2912
-21.3127
-21.3406
-21.3748
-21.4152
-21.462
-21.5152
-21.5746
-21.6403
-21.7123
-21.7902
-21.8738
-21.9626
-22.0559
-22.153
-22.2529
-22.3544
-22.4562
-22.5567
-22.6544
-22.7476
-22.8347
-22.9143
-22.9851
-23.0459
-23.0961
-23.1355
-23.1641
-23.1826
-23.1897
)
;
    }
    interface
    {
        type            calculated;
        value           nonuniform List<scalar> 
64
(
-45.9886
-30.0905
-42.419
-30.2713
-20.1299
-31.7642
-27.1268
-20.581
-28.2534
-23.9591
-30.7785
-25.1333
-22.4848
-30.2766
-24.2401
-18.7411
-25.8007
-23.3845
-19.5347
-24.2909
-21.764
-26.0313
-22.5625
-20.9495
-25.7587
-22.0176
-18.8336
-22.8421
-20.7785
-24.217
-21.4361
-20.1513
-24.0283
-21.0339
-18.3423
-21.8018
-20.6117
-18.7654
-21.0234
-19.8115
-21.7521
-20.1234
-19.4019
-21.3786
-19.7709
-18.5823
-20.0009
-19.4035
-18.9476
-19.3575
-19.1273
-18.8047
-18.7928
-19.3081
-16.9443
-18.4514
-22.5188
-17.1444
-19.1218
-29.6505
-24.8782
-23.7908
-23.3608
-23.1901
)
;
    }
    bottom
    {
        type            calculated;
        value           nonuniform List<scalar> 
64
(
-27.5315
-27.4981
-27.4325
-27.3366
-27.2131
-27.0652
-26.8964
-26.7103
-26.5104
-26.2999
-26.0818
-25.8586
-25.6326
-25.4058
-25.1798
-24.9561
-24.7359
-24.5199
-24.309
-24.1035
-23.9038
-23.7101
-23.5224
-23.3406
-23.1647
-22.9947
-22.8304
-22.6717
-22.5187
-22.3714
-22.2297
-22.0938
-21.9636
-21.8395
-21.7214
-21.6098
-21.5046
-21.4062
-21.3148
-21.2305
-21.1536
-21.0843
-21.0229
-20.9696
-20.9247
-20.8885
-20.8613
-20.8432
-20.8343
-20.8347
-20.844
-20.8619
-20.8877
-20.9204
-20.9588
-21.0013
-21.0462
-21.0915
-21.1353
-21.1755
-21.2102
-21.2378
-21.2569
-21.2668
)
;
    }
    defaultFaces
    {
        type            empty;
    }
}


// ************************************************************************* //
