/*--------------------------------*- C++ -*----------------------------------*\
| =========                 |                                                 |
| \\      /  F ield         | OpenFOAM: The Open Source CFD Toolbox           |
|  \\    /   O peration     | Version:  5.x                                   |
|   \\  /    A nd           | Web:      www.OpenFOAM.org                      |
|    \\/     M anipulation  |                                                 |
\*---------------------------------------------------------------------------*/
FoamFile
{
    version     2.0;
    format      ascii;
    class       volScalarField;
    location    "1.2999";
    object      T;
}
// * * * * * * * * * * * * * * * * * * * * * * * * * * * * * * * * * * * * * //

dimensions      [0 0 0 1 0 0 0];

internalField   nonuniform List<scalar> 
2048
(
9.80221
9.80245
9.80292
9.80361
9.80449
9.80556
9.80677
9.80811
9.80954
9.81105
9.81262
9.81422
9.81585
9.81748
9.8191
9.82071
9.82229
9.82384
9.82536
9.82683
9.82827
9.82966
9.83101
9.83231
9.83358
9.8348
9.83598
9.83712
9.83822
9.83928
9.8403
9.84127
9.84221
9.8431
9.84395
9.84475
9.84551
9.84621
9.84687
9.84747
9.84803
9.84852
9.84897
9.84935
9.84967
9.84993
9.85013
9.85026
9.85032
9.85032
9.85025
9.85012
9.84994
9.8497
9.84943
9.84912
9.8488
9.84847
9.84816
9.84787
9.84762
9.84742
9.84728
9.84721
9.41507
9.41579
9.41719
9.41924
9.42189
9.42505
9.42866
9.43263
9.43689
9.44138
9.44603
9.45078
9.45559
9.46042
9.46523
9.46999
9.47467
9.47926
9.48374
9.48811
9.49235
9.49647
9.50045
9.50431
9.50805
9.51166
9.51515
9.51852
9.52177
9.5249
9.52791
9.53079
9.53356
9.5362
9.53871
9.54108
9.54331
9.5454
9.54735
9.54914
9.55077
9.55225
9.55355
9.55469
9.55564
9.55641
9.55699
9.55738
9.55756
9.55756
9.55735
9.55697
9.55642
9.55572
9.55489
9.55398
9.55301
9.55204
9.5511
9.55023
9.54949
9.54889
9.54848
9.54827
9.04433
9.04551
9.04784
9.05125
9.05562
9.06085
9.0668
9.07335
9.08037
9.08775
9.09539
9.10319
9.11108
9.119
9.12687
9.13466
9.14233
9.14983
9.15716
9.16429
9.17122
9.17794
9.18445
9.19075
9.19685
9.20275
9.20844
9.21394
9.21925
9.22436
9.22927
9.23399
9.23851
9.24282
9.24692
9.2508
9.25445
9.25787
9.26104
9.26397
9.26665
9.26906
9.2712
9.27305
9.27462
9.27588
9.27683
9.27746
9.27777
9.27775
9.27741
9.27677
9.27585
9.27469
9.27331
9.27179
9.27018
9.26855
9.26698
9.26553
9.26428
9.26329
9.2626
9.26224
8.68898
8.69064
8.69391
8.69867
8.70478
8.71208
8.72036
8.72946
8.7392
8.74942
8.75997
8.77075
8.78163
8.79253
8.80337
8.81409
8.82462
8.83494
8.845
8.85478
8.86428
8.87349
8.88242
8.89105
8.89941
8.90748
8.91529
8.92283
8.9301
8.9371
8.94384
8.95031
8.95651
8.96242
8.96805
8.97337
8.97838
8.98308
8.98744
8.99146
8.99513
8.99845
9.00139
9.00394
9.0061
9.00784
9.00915
9.01002
9.01044
9.01041
9.00993
9.00903
9.00774
9.0061
9.00416
9.00201
8.99974
8.99743
8.9952
8.99315
8.99138
8.98997
8.989
8.98849
8.34813
8.35028
8.3545
8.36066
8.36854
8.37793
8.38856
8.40021
8.41264
8.42566
8.43909
8.45277
8.46657
8.48038
8.4941
8.50765
8.52096
8.53398
8.54666
8.55899
8.57095
8.58255
8.59377
8.60464
8.61515
8.62531
8.63513
8.64461
8.65376
8.66258
8.67107
8.67922
8.68702
8.69448
8.70157
8.70828
8.7146
8.72052
8.72602
8.7311
8.73573
8.73992
8.74363
8.74686
8.74959
8.7518
8.75346
8.75456
8.75509
8.75505
8.75443
8.75326
8.75159
8.74945
8.74693
8.74413
8.74115
8.73813
8.73521
8.73253
8.7302
8.72835
8.72707
8.72641
8.02093
8.0236
8.02883
8.03643
8.04614
8.05767
8.07069
8.0849
8.10003
8.11583
8.13209
8.14863
8.16529
8.18194
8.19846
8.21476
8.23075
8.24637
8.26158
8.27635
8.29067
8.30454
8.31797
8.33096
8.34352
8.35568
8.36742
8.37876
8.38971
8.40026
8.41042
8.42018
8.42954
8.43847
8.44697
8.45502
8.4626
8.4697
8.47629
8.48238
8.48794
8.49297
8.49744
8.50133
8.50462
8.50728
8.50929
8.51062
8.51126
8.5112
8.51043
8.50899
8.50691
8.50426
8.50113
8.49763
8.49391
8.49014
8.48648
8.4831
8.48019
8.47787
8.47625
8.47543
7.70664
7.70985
7.71615
7.72527
7.73689
7.75062
7.76608
7.7829
7.80074
7.81931
7.83837
7.85773
7.87719
7.89661
7.91587
7.93483
7.95342
7.97156
7.9892
8.00631
8.02289
8.03893
8.05445
8.06947
8.084
8.09805
8.11164
8.12476
8.13742
8.14963
8.16139
8.1727
8.18354
8.19389
8.20375
8.21309
8.22188
8.23011
8.23777
8.24483
8.25129
8.25713
8.26233
8.26686
8.2707
8.27382
8.27617
8.27773
8.27848
8.2784
8.27748
8.27575
8.27326
8.27007
8.26628
8.26205
8.25754
8.25294
8.24848
8.24437
8.24081
8.23797
8.23601
8.235
7.40454
7.40834
7.41577
7.42651
7.44014
7.45617
7.47415
7.49361
7.51418
7.53552
7.55737
7.57949
7.60171
7.62385
7.64577
7.66734
7.68845
7.70902
7.72899
7.74835
7.76707
7.78519
7.80271
7.81967
7.83607
7.85193
7.86727
7.88208
7.89639
7.91018
7.92348
7.93627
7.94854
7.96027
7.97143
7.98201
7.99197
8.00129
8.00996
8.01797
8.02529
8.03192
8.03783
8.043
8.04738
8.05094
8.05364
8.05544
8.05629
8.05619
8.05512
8.0531
8.05017
8.04641
8.04194
8.03692
8.03155
8.02607
8.02074
8.01582
8.01156
8.00817
8.00582
8.00462
7.11397
7.11841
7.12707
7.13954
7.15529
7.17375
7.19432
7.21649
7.23982
7.26392
7.28853
7.31339
7.33831
7.36312
7.38765
7.41175
7.4353
7.45822
7.48044
7.50194
7.52272
7.54281
7.56224
7.58104
7.59922
7.61681
7.63382
7.65025
7.66612
7.68144
7.6962
7.71041
7.72406
7.73711
7.74954
7.76131
7.7724
7.78278
7.79243
7.80134
7.8095
7.81689
7.8235
7.82928
7.8342
7.83821
7.84126
7.84329
7.84427
7.84415
7.84293
7.84061
7.83723
7.83288
7.82768
7.82181
7.81552
7.80908
7.8028
7.797
7.79197
7.78798
7.78522
7.7838
6.83432
6.83945
6.84945
6.86379
6.88182
6.90282
6.92609
6.95103
6.97713
7.004
7.03134
7.0589
7.08649
7.11391
7.14098
7.16756
7.19349
7.21868
7.24306
7.26661
7.28934
7.31131
7.33254
7.35309
7.37297
7.39221
7.41082
7.4288
7.44616
7.46292
7.4791
7.49467
7.50964
7.52397
7.53763
7.55056
7.56274
7.57413
7.58472
7.5945
7.60347
7.6116
7.61888
7.62527
7.63073
7.63519
7.63859
7.64087
7.64197
7.64184
7.64047
7.63785
7.63401
7.62904
7.62307
7.6163
7.60901
7.60152
7.59421
7.58745
7.58159
7.57695
7.57373
7.57208
6.56499
6.5709
6.58237
6.59874
6.61921
6.64289
6.66897
6.69675
6.72565
6.75528
6.78532
6.81554
6.84574
6.87572
6.9053
6.93429
6.96253
6.98991
7.01636
7.04187
7.06646
7.0902
7.11315
7.13536
7.15687
7.17768
7.19781
7.21726
7.23605
7.25419
7.27171
7.2886
7.30485
7.32042
7.33526
7.34931
7.36254
7.37491
7.3864
7.39702
7.40676
7.41561
7.42355
7.43055
7.43653
7.44145
7.44521
7.44774
7.44898
7.44886
7.44735
7.44442
7.44011
7.4345
7.42772
7.41999
7.41163
7.40301
7.39456
7.38675
7.37999
7.37463
7.37093
7.36904
6.30545
6.31222
6.3253
6.3439
6.367
6.39353
6.42253
6.4532
6.48493
6.51729
6.55
6.58283
6.61559
6.64809
6.68012
6.71148
6.74197
6.77147
6.7999
6.82727
6.85362
6.87903
6.90361
6.9274
6.95045
6.97276
6.99435
7.0152
7.03535
7.05481
7.07361
7.09177
7.10925
7.12602
7.14201
7.15715
7.1714
7.18471
7.19707
7.20849
7.21897
7.22851
7.2371
7.24469
7.25121
7.25658
7.26072
7.26352
7.26491
7.26481
7.26316
7.25994
7.25516
7.24888
7.24125
7.2325
7.22298
7.21313
7.20345
7.19449
7.18674
7.18062
7.1764
7.17425
6.05517
6.06289
6.07778
6.09881
6.12475
6.15431
6.18635
6.21998
6.25454
6.28961
6.32493
6.36031
6.39559
6.43056
6.465
6.49868
6.53136
6.56291
6.59324
6.62237
6.65037
6.67737
6.70347
6.72876
6.75328
6.77704
6.80001
6.82221
6.84364
6.86435
6.88439
6.90375
6.92243
6.94037
6.95748
6.97368
6.98891
7.00312
7.01631
7.0285
7.03969
7.0499
7.05912
7.0673
7.07436
7.0802
7.08472
7.08781
7.08937
7.0893
7.08753
7.08403
7.07877
7.07182
7.0633
7.05347
7.04271
7.03152
7.02049
7.01028
7.00147
6.99453
6.98977
6.98735
5.81365
5.82245
5.83934
5.86306
5.89208
5.92485
5.96006
5.9967
6.03409
6.07182
6.10969
6.14756
6.1853
6.2227
6.25951
6.29547
6.33029
6.36382
6.39596
6.42675
6.4563
6.48478
6.51232
6.53904
6.56497
6.5901
6.61441
6.63787
6.66052
6.68242
6.70363
6.72417
6.74401
6.76308
6.78129
6.79852
6.8147
6.82978
6.84376
6.85667
6.86854
6.8794
6.88924
6.898
6.9056
6.91192
6.91684
6.92023
6.92197
6.92196
6.9201
6.91632
6.9106
6.90295
6.89352
6.88255
6.87046
6.85782
6.84533
6.83375
6.82378
6.81597
6.81064
6.80795
5.58041
5.59043
5.60956
5.63625
5.66861
5.70479
5.74329
5.78299
5.82318
5.86352
5.90386
5.94416
5.98429
6.02408
6.06324
6.10143
6.13835
6.17379
6.20766
6.24001
6.271
6.30085
6.32975
6.35782
6.38509
6.41155
6.43714
6.46181
6.48562
6.50864
6.53096
6.55262
6.57359
6.59378
6.61306
6.6313
6.6484
6.66432
6.67904
6.69263
6.70515
6.71663
6.72707
6.73642
6.74456
6.75138
6.75671
6.76042
6.76237
6.76243
6.76049
6.75647
6.75029
6.74196
6.73158
6.71941
6.7059
6.6917
6.67761
6.66454
6.65333
6.64461
6.63869
6.63571
5.35501
5.3664
5.38805
5.41802
5.45401
5.49381
5.53572
5.57851
5.62147
5.66432
5.70705
5.74969
5.79217
5.83429
5.87577
5.91619
5.95516
5.99245
6.02796
6.06177
6.09408
6.1252
6.15537
6.18472
6.21329
6.24103
6.26784
6.29367
6.31855
6.34262
6.366
6.38874
6.41081
6.4321
6.45245
6.47168
6.48967
6.50637
6.5218
6.53603
6.54915
6.56123
6.57227
6.58219
6.5909
6.59822
6.60398
6.60803
6.6102
6.61036
6.60838
6.60413
6.59751
6.5885
6.57716
6.56373
6.54872
6.53283
6.517
6.5023
6.48977
6.48009
6.47359
6.47033
5.13701
5.14996
5.17442
5.20804
5.24797
5.29161
5.33703
5.38294
5.42861
5.47387
5.51886
5.56376
5.60852
5.65295
5.69674
5.73937
5.78035
5.81942
5.85649
5.89164
5.92516
5.95744
5.98879
6.01936
6.04917
6.07816
6.10617
6.13308
6.15897
6.18402
6.2084
6.23219
6.25532
6.27771
6.29911
6.3193
6.33816
6.35562
6.37171
6.38653
6.40022
6.41287
6.42448
6.43499
6.44426
6.45211
6.45832
6.46272
6.46514
6.46542
6.46342
6.45898
6.45196
6.44228
6.42996
6.41523
6.39862
6.38092
6.36319
6.34672
6.33276
6.3221
6.31501
6.31149
4.92597
4.9407
4.96832
5.00599
5.05022
5.09789
5.14694
5.19598
5.24426
5.29179
5.33892
5.38599
5.43297
5.47967
5.52576
5.5706
5.61356
5.65436
5.69291
5.72928
5.76388
5.7972
5.82966
5.86139
5.8924
5.92262
5.95179
5.97973
6.00654
6.03249
6.05783
6.08261
6.1068
6.13027
6.15272
6.17387
6.19356
6.21175
6.22844
6.2438
6.25801
6.27121
6.28339
6.29448
6.30433
6.31272
6.3194
6.32417
6.32686
6.32729
6.3253
6.3207
6.31331
6.30298
6.28969
6.27361
6.25531
6.23568
6.21588
6.19745
6.18198
6.17033
6.16269
6.15892
4.72151
4.73827
4.76942
4.81159
4.86049
4.9124
4.96516
5.01733
5.06811
5.11776
5.16687
5.21601
5.26515
5.31407
5.36249
5.40956
5.45446
5.49693
5.53687
5.57434
5.60988
5.64412
5.67761
5.71046
5.74264
5.77407
5.80439
5.83329
5.86093
5.8877
5.91394
5.93969
5.9649
5.98946
6.01298
6.03506
6.05557
6.07444
6.09169
6.10753
6.12222
6.13594
6.14868
6.16035
6.1708
6.17975
6.18691
6.19206
6.19504
6.19565
6.19371
6.18899
6.18126
6.17033
6.15607
6.1386
6.11853
6.09684
6.07477
6.0542
6.03712
6.02449
6.01633
6.01236
4.52322
4.54231
4.5774
4.62457
4.67856
4.73488
4.79144
4.84672
4.89985
4.95142
5.00234
5.05347
5.10471
5.1558
5.20658
5.25593
5.30272
5.34681
5.38806
5.4265
5.46283
5.49787
5.53233
5.56624
5.59954
5.63221
5.66367
5.69346
5.72185
5.74934
5.77642
5.80311
5.82932
5.85499
5.8796
5.90259
5.92389
5.94342
5.96116
5.97742
5.99253
6.00676
6.02005
6.03229
6.04336
6.05291
6.06055
6.06611
6.0694
6.07021
6.06834
6.06354
6.05554
6.04405
6.02885
6.00994
5.98801
5.96415
5.9396
5.91664
5.89788
5.8843
5.8757
5.87157
4.33071
4.3525
4.39195
4.44471
4.50424
4.56509
4.6255
4.68389
4.7392
4.79246
4.84497
4.89802
4.95131
5.0045
5.05772
5.1094
5.15802
5.20368
5.24619
5.28544
5.32241
5.35811
5.39348
5.42843
5.46281
5.49674
5.52937
5.55997
5.58898
5.61709
5.64499
5.67259
5.69975
5.72657
5.7523
5.77617
5.79824
5.8184
5.83657
5.85318
5.86866
5.88337
5.89722
5.91002
5.92174
5.93191
5.94005
5.94602
5.94964
5.95066
5.9489
5.94409
5.93586
5.92386
5.90776
5.88738
5.86351
5.83738
5.81012
5.78449
5.76396
5.7495
5.74056
5.73632
4.1436
4.16856
4.21277
4.27178
4.33736
4.40279
4.4671
4.52862
4.58585
4.64055
4.69442
4.74933
4.80463
4.85982
4.91557
4.9697
5.02007
5.06725
5.11098
5.15088
5.18831
5.22451
5.26077
5.29673
5.33212
5.36737
5.40122
5.43253
5.46206
5.49067
5.51935
5.54783
5.57591
5.60393
5.63083
5.65555
5.67836
5.69913
5.71765
5.73454
5.75031
5.76551
5.7799
5.79326
5.80566
5.81649
5.82512
5.83152
5.83548
5.83674
5.83513
5.83034
5.82194
5.80951
5.79257
5.77068
5.74477
5.71632
5.68609
5.65742
5.63507
5.61986
5.6107
5.60642
3.96153
3.99022
4.03956
4.10557
4.1778
4.24773
4.31599
4.38067
4.43952
4.49539
4.55031
4.6071
4.66437
4.7214
4.77985
4.8366
4.88855
4.93722
4.98217
5.02251
5.06023
5.09675
5.1339
5.17086
5.20717
5.24384
5.27901
5.3109
5.34081
5.36976
5.39924
5.42859
5.45749
5.48679
5.51495
5.54044
5.56398
5.58537
5.60415
5.62123
5.63722
5.65292
5.66786
5.68173
5.69487
5.70641
5.71552
5.72234
5.72667
5.72818
5.72674
5.72203
5.71353
5.70074
5.68305
5.6596
5.63157
5.60079
5.5673
5.53513
5.51094
5.49513
5.48591
5.48167
3.7841
3.81729
3.872
3.94592
4.02548
4.09964
4.17189
4.23988
4.29995
4.3567
4.4123
4.47104
4.53029
4.58887
4.65026
4.70986
4.76317
4.8133
4.85953
4.90006
4.93789
4.9745
5.01261
5.05057
5.08764
5.1259
5.16252
5.19482
5.22497
5.25409
5.2844
5.31462
5.34421
5.37492
5.40445
5.43059
5.45486
5.4769
5.49581
5.51301
5.52912
5.54535
5.56085
5.57517
5.58911
5.60144
5.61098
5.61823
5.62295
5.62471
5.62349
5.61891
5.61036
5.59731
5.57901
5.55392
5.52364
5.49065
5.45356
5.41727
5.39127
5.37511
5.366
5.3619
3.61093
3.64965
3.70974
3.79266
3.88039
3.95823
4.03455
4.10607
4.16682
4.22419
4.27998
4.34087
4.40213
4.46183
4.52653
4.58934
4.64361
4.69522
4.74286
4.78325
4.82103
4.85744
4.89663
4.93564
4.97321
5.01328
5.05158
5.08405
5.11431
5.14335
5.17459
5.20571
5.23578
5.26806
5.29915
5.32576
5.35076
5.3735
5.3924
5.40964
5.42575
5.44256
5.45865
5.47332
5.48816
5.50136
5.51126
5.51896
5.5241
5.5261
5.52511
5.52073
5.51219
5.49897
5.48024
5.45342
5.42074
5.38576
5.34473
5.30349
5.27581
5.25961
5.25083
5.24695
3.44158
3.48728
3.55236
3.64563
3.74261
3.82315
3.90368
3.97917
4.03985
4.09763
4.15296
4.21636
4.27974
4.33988
4.40839
4.47492
4.52953
4.58269
4.632
4.6718
4.70942
4.74524
4.78575
4.82588
4.86355
4.90577
4.94606
4.97834
5.00861
5.03725
5.0696
5.10166
5.13187
5.166
5.1989
5.22567
5.25143
5.27501
5.29368
5.31091
5.32683
5.34435
5.36106
5.37592
5.39179
5.40598
5.41613
5.42428
5.42988
5.43209
5.43138
5.42725
5.41877
5.40548
5.38658
5.35789
5.32256
5.28606
5.24069
5.19339
5.1643
5.14845
5.14022
5.13667
3.2756
3.33029
3.39938
3.5047
3.61231
3.69398
3.77898
3.85912
3.91869
3.97682
4.03079
4.09731
4.16298
4.22251
4.29559
4.36656
4.42058
4.47542
4.52682
4.56542
4.60285
4.63753
4.67976
4.72114
4.75828
4.80313
4.84586
4.87744
4.90768
4.93547
4.96923
5.00233
5.03217
5.06851
5.10357
5.13005
5.15664
5.18125
5.19941
5.21662
5.2321
5.2505
5.26791
5.28269
5.29979
5.31513
5.32535
5.33397
5.34008
5.34246
5.34206
5.33826
5.32988
5.31658
5.29789
5.26714
5.2288
5.19151
5.14138
5.08651
5.0565
5.04149
5.03405
5.0309
3.11246
3.17901
3.25016
3.36975
3.4898
3.5702
3.66013
3.74598
3.80295
3.86163
3.91294
3.98352
4.05183
4.10919
4.1879
4.2643
4.31632
4.37313
4.42728
4.46379
4.50116
4.53392
4.57847
4.62133
4.657
4.70516
4.75095
4.78105
4.81136
4.83765
4.8733
4.90761
4.9363
4.97539
5.01311
5.03861
5.06616
5.09213
5.10934
5.1266
5.14128
5.16085
5.17905
5.19336
5.21196
5.22868
5.23866
5.24782
5.25452
5.25699
5.25692
5.25353
5.24528
5.23201
5.21406
5.18099
5.13906
5.10214
5.04681
4.9823
4.95222
4.93861
4.93218
4.92951
2.95153
3.034
3.10389
3.24067
3.37559
3.45112
3.54678
3.63993
3.69214
3.75202
3.79882
3.87488
3.94635
3.99924
4.08509
4.16833
4.21627
4.2755
4.33341
4.36654
4.40426
4.43397
4.48173
4.52642
4.55922
4.61164
4.66136
4.68887
4.71955
4.74343
4.78167
4.81745
4.84386
4.88645
4.92752
4.95101
4.97976
5.00756
5.02321
5.04071
5.05408
5.07523
5.09437
5.10762
5.12811
5.14652
5.15584
5.16563
5.17303
5.17544
5.17576
5.17288
5.16476
5.15149
5.13503
5.09926
5.05288
5.01805
4.95706
4.88011
4.85129
4.8397
4.8345
4.83237
2.79206
2.89618
2.95949
3.11736
3.27038
3.33589
3.43855
3.54128
3.58566
3.64809
3.68772
3.7713
3.84674
3.89187
3.98695
4.07893
4.11983
4.18223
4.24531
4.27323
4.31215
4.33717
4.38943
4.43646
4.46439
4.5224
4.57718
4.60051
4.63222
4.65236
4.69422
4.73187
4.75438
4.80151
4.84686
4.8669
4.8972
4.92751
4.94072
4.95887
4.97016
4.99349
5.01379
5.02515
5.04808
5.06857
5.07661
5.0872
5.09544
5.09761
5.09838
5.09611
5.08811
5.07471
5.06076
5.02183
4.96969
4.93942
4.87232
4.77914
4.75361
4.74469
4.74088
4.73935
2.63314
2.76692
2.81556
2.99974
3.17518
3.2234
3.33506
3.45056
3.48272
3.55012
3.57876
3.67276
3.75336
3.78611
3.89329
3.99661
4.02628
4.09301
4.16324
4.18332
4.22492
4.24292
4.3015
4.35161
4.37185
4.43726
4.49864
4.5155
4.54943
4.56392
4.61085
4.65097
4.66728
4.72039
4.77129
4.78583
4.81825
4.85202
4.86154
4.88102
4.88918
4.91551
4.9373
4.94557
4.9717
4.99479
5.00069
5.01235
5.02162
5.02327
5.02457
5.02306
5.01515
5.00133
4.99129
4.9486
4.8888
4.8665
4.7929
4.67841
4.65919
4.65353
4.65122
4.6503
2.4736
2.64812
2.67026
2.88777
3.09134
3.11224
3.23587
3.36851
3.38229
3.45862
3.47087
3.57928
3.66677
3.68077
3.80395
3.92205
3.93473
4.00748
4.08759
4.09613
4.14284
4.1505
4.21789
4.27217
4.28081
4.35607
4.42604
4.43324
4.47135
4.47753
4.53151
4.57495
4.58191
4.64295
4.70108
4.7073
4.74268
4.7812
4.78526
4.80723
4.81071
4.8412
4.86492
4.86847
4.89884
4.92522
4.92777
4.94091
4.95146
4.9522
4.95414
4.95356
4.94572
4.93095
4.9267
4.87955
4.80932
4.79967
4.71927
4.5767
4.56813
4.56617
4.5654
4.56509
)
;

boundaryField
{
    left
    {
        type            zeroGradient;
    }
    right
    {
        type            zeroGradient;
    }
    interface
    {
        type            fixedValue;
        value           nonuniform List<scalar> 
64
(
2.391
2.59408
2.59408
2.8334
3.05519
3.05519
3.18716
3.33155
3.33155
3.4156
3.4156
3.53415
3.6264
3.6264
3.76043
3.88841
3.88841
3.9655
4.05253
4.05253
4.10377
4.10377
4.17739
4.23457
4.23457
4.31656
4.39225
4.39225
4.43407
4.43407
4.49306
4.5388
4.5388
4.60522
4.6682
4.6682
4.70573
4.74757
4.74757
4.77172
4.77172
4.80514
4.83016
4.83016
4.86342
4.89195
4.89195
4.90617
4.91755
4.91755
4.91991
4.91991
4.91209
4.8964
4.8964
4.84655
4.76902
4.76902
4.68508
4.5236
4.5236
4.5236
4.5236
4.5236
)
;
    }
    bottom
    {
        type            fixedValue;
        value           uniform 10;
    }
    defaultFaces
    {
        type            empty;
    }
}


// ************************************************************************* //
