/*--------------------------------*- C++ -*----------------------------------*\
| =========                 |                                                 |
| \\      /  F ield         | OpenFOAM: The Open Source CFD Toolbox           |
|  \\    /   O peration     | Version:  5.x                                   |
|   \\  /    A nd           | Web:      www.OpenFOAM.org                      |
|    \\/     M anipulation  |                                                 |
\*---------------------------------------------------------------------------*/
FoamFile
{
    version     2.0;
    format      ascii;
    class       volScalarField;
    location    "19.2";
    object      T;
}
// * * * * * * * * * * * * * * * * * * * * * * * * * * * * * * * * * * * * * //

dimensions      [0 0 0 1 0 0 0];

internalField   nonuniform List<scalar> 
6300
(
9.92956
9.78978
9.65333
9.52237
9.39901
9.28524
9.18291
9.09368
9.01892
8.95968
8.91661
8.88991
8.87929
8.88393
8.90256
9.92845
9.78646
9.64783
9.51477
9.3894
9.27378
9.1698
9.07918
9.00337
8.94348
8.90021
8.87381
8.86399
8.86991
8.89022
9.92621
9.77977
9.63677
9.49945
9.37004
9.25066
9.14332
9.04987
8.97188
8.91062
8.86692
8.8411
8.83291
8.84145
8.86524
9.92282
9.76965
9.62001
9.47623
9.34063
9.21548
9.10295
9.00506
8.92364
8.86018
8.81571
8.79074
8.78506
8.79771
8.82697
9.91826
9.756
9.59737
9.44481
9.30077
9.16767
9.0479
8.94378
8.85743
8.7907
8.74499
8.72106
8.71884
8.73731
8.77442
9.91249
9.7387
9.56865
9.40488
9.24995
9.1065
8.9772
8.86469
8.77157
8.70019
8.65246
8.62963
8.63191
8.65823
8.70611
9.90546
9.71766
9.53366
9.35609
9.18765
9.03118
8.88967
8.76621
8.66396
8.58598
8.53502
8.51306
8.52089
8.55755
8.61998
9.89718
9.6928
9.49224
9.29816
9.11337
8.9409
8.78407
8.64649
8.53204
8.44475
8.38853
8.36666
8.38101
8.43106
8.51309
9.88763
9.66412
9.44434
9.23093
9.02674
8.83497
8.65921
8.50363
8.37294
8.27242
8.20768
8.18403
8.20539
8.27255
8.38125
9.87685
9.63171
9.39007
9.15447
8.9277
8.713
8.51417
8.33585
8.18364
8.0643
7.9857
7.95635
7.98393
8.07249
8.21809
9.86492
9.59577
9.32976
9.06917
8.81659
8.57513
8.34862
8.14195
7.96145
7.8154
7.71446
7.67171
7.70148
7.81532
8.01326
9.85196
9.55671
9.26403
8.97584
8.69435
8.42229
8.16321
7.92186
7.7048
7.52139
7.385
7.31451
7.33492
7.47404
7.7476
9.83816
9.51507
9.19382
8.8758
8.56265
8.25647
7.96008
7.67744
7.41448
7.18033
6.98963
6.86639
6.84964
6.99826
7.37876
9.82376
9.47158
9.12038
8.77088
8.42398
8.08086
7.74317
7.41335
7.09534
6.79579
6.52678
6.31175
6.19895
6.29057
6.78863
9.80904
9.42713
9.04523
8.66335
8.28153
7.89982
7.51836
7.13744
6.75772
6.38069
6.00993
5.65486
5.34383
5.17641
5.55924
8.93091
8.96395
9.00301
9.04681
9.09406
9.14353
9.19408
9.24465
9.29433
9.34231
9.38789
9.4305
9.46966
9.50498
9.53615
9.56292
9.58509
9.60252
9.61511
9.62278
9.62548
9.62319
9.6159
9.60364
9.58641
9.56427
9.53726
9.50544
9.46887
9.42762
9.38175
9.33134
9.27646
9.21717
9.15355
9.08566
9.01355
8.93729
8.85693
8.77254
8.68417
8.5919
8.49578
8.39588
8.29228
8.18503
8.07422
7.95991
7.84215
7.721
7.59653
7.46877
7.33778
7.20361
7.06631
6.92595
6.78258
6.6363
6.48719
6.33535
6.18089
6.02391
5.86455
5.70294
5.53921
5.3735
5.20597
5.03679
4.86615
4.69427
4.52139
4.34777
4.17374
3.99963
3.82581
3.65269
3.48069
3.31026
3.14185
2.9759
2.81287
2.65319
2.49726
2.34547
2.19815
2.0556
1.91805
1.7857
1.65865
1.53696
8.92039
8.95523
8.99614
9.04178
9.0908
9.14192
9.19397
9.24588
9.29672
9.34569
9.3921
9.4354
9.47512
9.51089
9.54241
9.56945
9.59184
9.60942
9.62211
9.62985
9.63258
9.6303
9.62299
9.61069
9.59341
9.5712
9.54411
9.51219
9.47552
9.43417
9.3882
9.33769
9.28271
9.22333
9.15962
9.09163
9.01944
8.94309
8.86265
8.77817
8.68972
8.59735
8.50113
8.40113
8.29743
8.19009
8.07918
7.96478
7.84694
7.72572
7.60117
7.47335
7.34229
7.20804
7.07065
6.93019
6.78672
6.64031
6.49106
6.33906
6.18443
6.02728
5.86774
5.70593
5.54199
5.37606
5.20829
5.03884
4.86789
4.69566
4.52239
4.34833
4.17381
3.99916
3.82477
3.65104
3.4784
3.30732
3.13826
2.97167
2.80802
2.64776
2.49129
2.33901
2.19126
2.04837
1.91056
1.77804
1.65092
1.52926
8.89918
8.9377
8.98243
9.03183
9.08446
9.13894
9.19401
9.24859
9.30174
9.35267
9.40073
9.44538
9.48619
9.52284
9.55505
9.58263
9.60541
9.62329
9.63618
9.64404
9.64683
9.64455
9.6372
9.62482
9.60742
9.58507
9.55781
9.52571
9.48884
9.44728
9.4011
9.35039
9.29521
9.23564
9.17175
9.10359
9.03123
8.95471
8.87411
8.78945
8.70082
8.60826
8.51184
8.41165
8.30774
8.2002
8.08911
7.97453
7.85653
7.73516
7.61047
7.48251
7.35131
7.21691
7.07936
6.9387
6.79501
6.64835
6.49881
6.34651
6.19154
6.03405
5.87413
5.71194
5.54759
5.38122
5.21297
5.04299
4.87144
4.69852
4.52446
4.34953
4.17402
3.99829
3.82273
3.64776
3.47384
3.30145
3.13107
2.96318
2.79828
2.63682
2.47925
2.32598
2.17738
2.03378
1.89544
1.76257
1.63531
1.5137
8.86686
8.91121
8.96191
9.0172
9.07541
9.13502
9.19469
9.2533
9.3099
9.36373
9.41419
9.4608
9.5032
9.5411
9.5743
9.60262
9.62597
9.64425
9.65742
9.66544
9.6683
9.66601
9.65859
9.64606
9.62849
9.6059
9.57838
9.546
9.50883
9.46695
9.42045
9.36942
9.31394
9.25409
9.18992
9.12151
9.0489
8.97214
8.89129
8.80638
8.71748
8.62463
8.52792
8.42741
8.32319
8.21535
8.10397
7.98912
7.87088
7.74929
7.6244
7.49625
7.36486
7.23025
7.09246
6.95152
6.80749
6.66045
6.51049
6.35771
6.20224
6.04422
5.88375
5.72099
5.55604
5.38904
5.22009
5.04933
4.8769
4.70297
4.52775
4.3515
4.1745
3.99713
3.8198
3.64294
3.46705
3.29265
3.12024
2.95037
2.78354
2.62026
2.461
2.30621
2.15628
2.01159
1.87242
1.73903
1.61154
1.49003
8.82285
8.87554
8.93473
8.9983
9.06428
9.13095
9.19686
9.26084
9.32198
9.37958
9.43312
9.48222
9.5266
9.56607
9.60047
9.62971
9.65374
9.6725
9.68598
9.69418
9.6971
9.69477
9.68723
9.67451
9.65667
9.63377
9.60588
9.5731
9.5355
9.49318
9.44624
9.39478
9.33889
9.27865
9.21413
9.14538
9.07245
8.99539
8.91422
8.82898
8.73972
8.64649
8.54937
8.44843
8.34378
8.23552
8.12374
8.00853
7.88996
7.7681
7.64297
7.51459
7.38297
7.24811
7.11002
6.96872
6.82425
6.6767
6.52615
6.37273
6.21657
6.05783
5.89663
5.73312
5.56741
5.39959
5.22977
5.05803
4.88448
4.70924
4.5325
4.35448
4.17549
3.99589
3.81613
3.63668
3.45809
3.28092
3.10575
2.93314
2.76367
2.59789
2.4363
2.27939
2.12763
1.98141
1.84109
1.70694
1.57915
1.45778
8.76632
8.83046
8.90121
8.97588
9.05211
9.12792
9.20174
9.2724
9.33909
9.4012
9.45838
9.51037
9.55702
9.59824
9.63399
9.66425
9.68901
9.70827
9.72207
9.73043
9.73338
9.73097
9.72324
9.71024
9.69205
9.66872
9.64035
9.60704
9.56887
9.52597
9.47845
9.42643
9.37001
9.30929
9.24432
9.17518
9.10188
9.02446
8.94292
8.85729
8.76759
8.67388
8.57622
8.47472
8.3695
8.26067
8.14836
8.03268
7.91372
7.79152
7.66613
7.53752
7.40567
7.27055
7.13213
6.9904
6.8454
6.69718
6.54588
6.39161
6.23456
6.0749
5.91279
5.74836
5.58174
5.41299
5.24216
5.06929
4.89443
4.71763
4.53902
4.35882
4.1773
3.99486
3.81196
3.62916
3.44706
3.26629
3.08751
2.91137
2.73848
2.56944
2.40482
2.24515
2.09096
1.94272
1.80085
1.6657
1.5375
1.41635
8.69618
8.77581
8.86197
8.95118
9.04051
9.12769
9.21109
9.28965
9.3627
9.42988
9.49104
9.54613
9.59518
9.63823
9.67536
9.70662
9.7321
9.75184
9.76592
9.77439
9.7773
9.77473
9.76674
9.75338
9.73473
9.71086
9.68187
9.64787
9.60897
9.56532
9.51706
9.46433
9.40725
9.34594
9.28046
9.21087
9.13717
9.05937
8.97744
8.89137
8.80116
8.70685
8.60853
8.5063
8.40032
8.29075
8.17776
8.06148
7.94204
7.81949
7.69384
7.56504
7.43301
7.29767
7.15893
7.01673
6.87109
6.72207
6.56979
6.41445
6.25626
6.09544
5.93221
5.76672
5.59907
5.42932
5.25744
5.08339
4.9071
4.72856
4.54781
4.365
4.18041
3.99444
3.80762
3.62059
3.43406
3.24876
3.06546
2.88488
2.70771
2.5346
2.36617
2.20301
2.04571
1.89483
1.75091
1.61442
1.48569
1.36485
8.61112
8.71169
8.8183
8.92626
9.03194
9.13283
9.22737
9.31477
9.3947
9.46718
9.53238
9.59053
9.64189
9.68668
9.72508
9.75727
9.78337
9.8035
9.81777
9.82625
9.82905
9.82624
9.81788
9.80406
9.78483
9.76029
9.73052
9.69566
9.65584
9.61124
9.56203
9.5084
9.45052
9.3885
9.32244
9.25238
9.1783
9.10014
9.01784
8.93132
8.84054
8.74553
8.64637
8.54321
8.43623
8.32569
8.2118
8.09478
7.97478
7.85186
7.726
7.59712
7.46506
7.32962
7.19063
7.04797
6.90159
6.75157
6.59806
6.44133
6.28168
6.11941
5.95482
5.78811
5.61939
5.44866
5.2758
5.10065
4.92299
4.74264
4.55952
4.37371
4.18546
3.9952
3.80355
3.61127
3.41924
3.22834
3.03946
2.85345
2.67106
2.493
2.31991
2.15243
1.99119
1.83689
1.69026
1.55195
1.42249
1.3021
8.50954
8.63881
8.77264
8.90458
9.03023
9.14705
9.2539
9.35057
9.43737
9.5149
9.5838
9.64466
9.698
9.74424
9.78369
9.81661
9.84317
9.86354
9.87786
9.88624
9.8888
9.88564
9.87683
9.86244
9.84252
9.81716
9.78644
9.7505
9.70952
9.6637
9.61329
9.55853
9.49964
9.4368
9.37011
9.2996
9.22521
9.14681
9.06423
8.97731
8.88595
8.79012
8.68991
8.58552
8.47722
8.36535
8.25028
8.1323
8.01164
7.88837
7.76246
7.63373
7.5019
7.36662
7.22756
7.08448
6.93728
6.78602
6.63093
6.47237
6.3108
6.14668
5.98044
5.81236
5.64256
5.471
5.29743
5.12148
4.94269
4.76065
4.57507
4.3859
4.19336
3.99792
3.80034
3.60159
3.40275
3.20497
3.00932
2.81676
2.62816
2.44422
2.26557
2.09282
1.92665
1.76791
1.6176
1.47674
1.34622
1.22646
8.38974
8.55931
8.72965
8.8919
9.04118
9.17558
9.29504
9.4005
9.49334
9.57499
9.64672
9.70955
9.76428
9.81151
9.85165
9.88502
9.91181
9.93222
9.94641
9.95453
9.95672
9.9531
9.94374
9.92869
9.90797
9.88165
9.84979
9.81253
9.77008
9.7227
9.67073
9.61451
9.55438
9.49056
9.42321
9.35233
9.27781
9.19941
9.11679
9.02963
8.93771
8.84094
8.73941
8.63337
8.52326
8.40957
8.29287
8.17363
8.05217
7.92862
7.80291
7.67474
7.54365
7.409
7.27022
7.12686
6.97874
6.82592
6.66873
6.50769
6.34352
6.17695
6.00864
5.83901
5.66823
5.49618
5.32244
5.14635
4.96705
4.7837
4.59574
4.40292
4.20538
4.00369
3.7988
3.59198
3.38472
3.1785
2.97468
2.77437
2.57851
2.38779
2.20272
2.02372
1.8514
1.68679
1.53129
1.38662
1.25445
1.13561
8.25042
8.47863
8.69826
8.89784
9.0735
9.22555
9.35626
9.46854
9.56536
9.6493
9.72236
9.78602
9.84129
9.8889
9.9293
9.9628
9.98956
10.0098
10.0236
10.0313
10.0329
10.0287
10.0188
10.003
9.98142
9.95402
9.92082
9.88195
9.83763
9.78822
9.73418
9.67605
9.61431
9.54933
9.48128
9.4102
9.3359
9.25798
9.17581
9.08873
8.99636
8.89851
8.79529
8.68703
8.57435
8.45804
8.33904
8.21806
8.09563
7.9719
7.84681
7.71989
7.59042
7.45728
7.31937
7.17603
7.02689
6.87207
6.71198
6.54747
6.37961
6.20969
6.03868
5.86727
5.69567
5.52373
5.35079
5.17579
4.99717
4.81336
4.62337
4.42666
4.22336
4.01403
3.79999
3.58296
3.36516
3.14856
2.93494
2.72555
2.52145
2.3232
2.13109
1.94497
1.76503
1.59254
1.42938
1.27848
1.14348
1.02608
8.09291
8.41027
8.69569
8.93818
9.13978
9.30616
9.44395
9.55878
9.65584
9.73921
9.81148
9.87448
9.92925
9.97658
10.0168
10.0502
10.0767
10.0964
10.1096
10.1166
10.1175
10.1126
10.102
10.0856
10.0632
10.0346
9.99991
9.95913
9.91242
9.86033
9.8034
9.7427
9.67882
9.61242
9.54362
9.47263
9.39911
9.32259
9.24178
9.15536
9.06282
8.96371
8.85835
8.74694
8.63059
8.51029
8.38796
8.2645
8.14087
8.01707
7.89325
7.76865
7.64239
7.51232
7.37629
7.23347
7.08315
6.92575
6.76151
6.59201
6.41859
6.24392
6.06921
5.89577
5.72353
5.55265
5.38203
5.2104
5.0347
4.85187
4.66064
4.45986
4.24995
4.03112
3.80546
3.57499
3.34385
3.1143
2.88906
2.66907
2.45594
2.24974
2.05082
1.85729
1.66792
1.48485
1.3098
1.14741
1.00715
0.892403
7.93038
8.38786
8.75489
9.03733
9.25671
9.42789
9.56465
9.67457
9.76594
9.84507
9.91385
9.97473
10.0278
10.0744
10.1141
10.1474
10.1734
10.1924
10.2046
10.2104
10.2103
10.2045
10.1935
10.1768
10.1536
10.1241
10.0876
10.0448
9.99489
9.93931
9.87796
9.81386
9.74689
9.67888
9.60902
9.53863
9.46654
9.3933
9.31577
9.23072
9.13864
9.03784
8.93006
8.81389
8.69245
8.56539
8.43846
8.31111
8.18629
8.0622
7.94075
7.81972
7.69978
7.57589
7.44292
7.30165
7.14954
6.9892
6.81858
6.64215
6.45931
6.27817
6.09787
5.92248
5.74937
5.58116
5.41469
5.25082
5.08247
4.90245
4.7116
4.50616
4.28937
4.05799
3.81782
3.56795
3.32023
3.07381
2.83561
2.60267
2.38044
2.16579
1.96278
1.76358
1.56175
1.36559
1.17195
0.984495
0.834077
0.725453
7.83114
8.49564
8.93584
9.22723
9.44297
9.59914
9.7239
9.817
9.89359
9.96575
10.0275
10.0861
10.1357
10.1822
10.2205
10.255
10.2799
10.2982
10.3087
10.3128
10.3112
10.304
10.2932
10.2772
10.253
10.2235
10.1845
10.1405
10.0854
10.0265
9.95635
9.88908
9.81634
9.74793
9.67506
9.60698
9.53555
9.47009
9.40048
9.31611
9.22694
9.12193
9.01374
8.88834
8.76232
8.62022
8.48946
8.35398
8.23057
8.10344
7.98756
7.86912
7.7628
7.65244
7.52144
7.38538
7.22768
7.0674
6.88395
6.70143
6.49751
6.31114
6.1194
5.94583
5.76809
5.60712
5.44356
5.29763
5.14697
4.96856
4.78351
4.56877
4.34977
4.09746
3.84413
3.55776
3.2947
3.02144
2.77458
2.52082
2.29398
2.06507
1.86923
1.67362
1.44742
1.24266
1.0252
0.768228
0.60081
0.509195
8.13972
8.92635
9.33104
9.52599
9.71497
9.81552
9.9287
9.98312
10.0275
10.1013
10.1457
10.2103
10.2478
10.3018
10.3323
10.3763
10.396
10.4152
10.422
10.4231
10.4202
10.4082
10.4006
10.389
10.3602
10.3364
10.2884
10.252
10.1815
10.1298
10.0305
9.97206
9.87947
9.82332
9.73411
9.68007
9.59587
9.55275
9.50635
9.40834
9.33796
9.21052
9.1221
8.96363
8.85524
8.65864
8.54717
8.3794
8.28015
8.12839
8.03798
7.90102
7.83154
7.75866
7.60716
7.5002
7.30945
7.17891
6.94792
6.79147
6.51038
6.35178
6.11472
5.97511
5.76264
5.63675
5.44696
5.35122
5.2514
5.04418
4.89813
4.63748
4.45809
4.13834
3.918
3.51395
3.28385
2.93101
2.72345
2.40017
2.21048
1.91672
1.77532
1.62771
1.30218
1.13801
0.935346
0.422993
0.258381
0.214833
1.40898
1.27693
1.15217
1.03433
0.922936
0.817472
0.717368
0.622033
0.530868
0.443279
0.358679
0.276499
0.196182
0.117184
0.0389742
1.40141
1.26962
1.14524
1.02786
0.916999
0.812105
0.712593
0.617857
0.527288
0.440284
0.356256
0.274634
0.19486
0.116396
0.0387122
1.38613
1.2549
1.1313
1.01487
0.905085
0.801348
0.703033
0.609507
0.520137
0.434308
0.351426
0.270916
0.192227
0.114826
0.0381903
1.36289
1.23255
1.11017
0.995228
0.887113
0.785159
0.68868
0.596994
0.50944
0.425382
0.344218
0.265375
0.188306
0.112488
0.0374136
1.33129
1.20222
1.08159
0.968748
0.862971
0.763487
0.669526
0.580345
0.495241
0.413559
0.334687
0.258056
0.183131
0.109405
0.0363897
1.29076
1.16345
1.0452
0.935196
0.832528
0.736285
0.645585
0.559612
0.477616
0.398921
0.322912
0.249029
0.176756
0.105609
0.0351296
1.24051
1.11561
1.00056
0.894295
0.795653
0.70353
0.616912
0.534895
0.456686
0.381593
0.309008
0.23839
0.169253
0.101146
0.0336484
1.1795
1.05789
0.947145
0.845758
0.752249
0.665265
0.583633
0.506365
0.432636
0.361753
0.293133
0.226269
0.160717
0.0960738
0.0319658
1.10634
0.989315
0.884353
0.789336
0.702314
0.62164
0.545983
0.474291
0.405734
0.339648
0.275498
0.212833
0.15127
0.0904656
0.0301063
1.01915
0.908667
0.811609
0.724911
0.646024
0.572991
0.504363
0.439079
0.376356
0.315606
0.256374
0.198295
0.141062
0.0844113
0.0280998
0.91537
0.814589
0.728499
0.652666
0.583873
0.519932
0.459394
0.4013
0.345
0.290042
0.236095
0.182907
0.130273
0.0780165
0.0259813
0.791595
0.70581
0.635124
0.573376
0.516863
0.463464
0.411978
0.361724
0.3123
0.263463
0.215055
0.166964
0.119103
0.0714001
0.0237899
0.643624
0.581926
0.532804
0.488846
0.446736
0.405077
0.363327
0.321312
0.27901
0.236454
0.193697
0.150789
0.107774
0.0646904
0.0215676
0.468077
0.445461
0.425313
0.402464
0.376153
0.346777
0.314938
0.281186
0.245969
0.209644
0.172487
0.134718
0.0965138
0.058019
0.0193577
0.270286
0.306523
0.320521
0.31954
0.30863
0.290937
0.268459
0.242521
0.214036
0.183662
0.151886
0.119082
0.0855431
0.0515135
0.0172018
9.79555
9.38637
8.97631
8.56474
8.15084
7.73363
7.31178
6.88341
6.44576
5.99442
5.52175
5.01232
4.42832
3.65068
2.20271
9.78348
9.34991
8.91472
8.47668
8.03433
7.58578
7.1285
6.65892
6.17165
5.65809
5.10346
4.47996
3.73049
2.72914
1.20512
9.77177
9.31458
8.8551
8.39163
7.92211
7.44397
6.95376
6.4467
5.91578
5.35028
4.73298
4.03508
3.20757
2.17055
0.82295
9.76058
9.28083
8.79826
8.31077
7.81589
7.31054
6.79073
6.25105
5.68393
5.07844
4.41845
3.68021
2.83013
1.82765
0.647929
9.75003
9.24903
8.74483
8.23504
7.71693
7.18714
6.64148
6.07445
5.47873
4.84443
4.15827
3.403
2.55852
1.60783
0.553556
9.7402
9.21947
8.69528
8.1651
7.62606
7.07477
6.50707
5.91777
5.30031
4.64644
3.94607
3.18773
2.36067
1.45994
0.495876
9.73116
9.19231
8.64988
8.1013
7.54371
6.9738
6.38766
5.78064
5.14717
4.48074
3.77411
3.0202
2.21397
1.35603
0.457421
9.72293
9.16763
8.60875
8.04377
7.46991
6.88408
6.28275
5.66187
5.01692
4.34294
3.635
2.88899
2.10317
1.28037
0.430236
9.71552
9.14542
8.57185
7.99239
7.40443
6.80513
6.1914
5.55983
4.90682
4.22873
3.52231
2.78542
2.01806
1.22369
0.410228
9.70891
9.12563
8.53906
7.94691
7.34681
6.73621
6.11243
5.47268
4.81413
4.13419
3.43079
2.70301
1.9517
1.18028
0.395073
9.70305
9.10812
8.51013
7.90696
7.29648
6.67644
6.04456
5.39857
4.73631
4.05593
3.35621
2.63692
1.89931
1.14643
0.383348
9.69789
9.09275
8.48478
7.8721
7.25278
6.62488
5.98649
5.33576
4.67106
3.99111
3.29522
2.58357
1.8575
1.11969
0.374131
9.69339
9.07933
8.46271
7.84185
7.21504
6.58061
5.93698
5.28265
4.6164
3.93735
3.24516
2.54024
1.82386
1.09831
0.366793
9.68948
9.06768
8.44359
7.81572
7.18258
6.54275
5.89489
5.23782
4.57062
3.89271
3.20395
2.50485
1.79658
1.08107
0.360894
9.6861
9.05761
8.42711
7.79326
7.15477
6.51045
5.85918
5.20003
4.5323
3.85559
3.16993
2.47583
1.77434
1.06707
0.356115
9.68318
9.04895
8.41294
7.774
7.13102
6.48298
5.82896
5.16821
4.5002
3.82469
3.14177
2.45193
1.75611
1.05564
0.352218
9.68068
9.04153
8.40082
7.75755
7.11079
6.45966
5.8034
5.14142
4.47331
3.79893
3.1184
2.4322
1.74111
1.04626
0.349023
9.67854
9.03518
8.39046
7.74354
7.09359
6.43989
5.78181
5.11888
4.45078
3.77744
3.09899
2.41585
1.72872
1.03852
0.346394
9.67672
9.02976
8.38164
7.73162
7.079
6.42316
5.7636
5.09993
4.4319
3.75948
3.08282
2.40229
1.71847
1.03213
0.344223
9.67516
9.02516
8.37415
7.7215
7.06664
6.40903
5.74825
5.08399
4.41607
3.74448
3.06935
2.39101
1.70995
1.02683
0.342425
9.67384
9.02125
8.36779
7.71293
7.05618
6.39709
5.73531
5.0706
4.4028
3.73192
3.0581
2.38161
1.70287
1.02243
0.340932
9.67273
9.01793
8.3624
7.70568
7.04734
6.38702
5.72442
5.05934
4.39167
3.72141
3.0487
2.37377
1.69697
1.01877
0.33969
9.67178
9.01512
8.35785
7.69955
7.03988
6.37853
5.71525
5.04988
4.38233
3.71261
3.04084
2.36722
1.69206
1.01572
0.338656
9.67098
9.01275
8.35399
7.69437
7.03358
6.37137
5.70753
5.04193
4.37449
3.70524
3.03427
2.36175
1.68795
1.01317
0.337793
9.6703
9.01075
8.35074
7.69001
7.02828
6.36535
5.70104
5.03525
4.36792
3.69906
3.02876
2.35718
1.68452
1.01105
0.337072
9.66973
9.00906
8.348
7.68632
7.02381
6.36028
5.69559
5.02964
4.3624
3.69388
3.02415
2.35335
1.68165
1.00927
0.33647
9.66925
9.00763
8.34569
7.68323
7.02005
6.35602
5.691
5.02493
4.35777
3.68954
3.02029
2.35015
1.67925
1.00778
0.335967
9.66884
9.00643
8.34375
7.68062
7.01689
6.35243
5.68715
5.02098
4.35389
3.6859
3.01706
2.34746
1.67724
1.00654
0.335545
9.6685
9.00542
8.34211
7.67842
7.01423
6.34942
5.68392
5.01766
4.35064
3.68285
3.01435
2.34522
1.67555
1.0055
0.335193
9.66821
9.00457
8.34074
7.67658
7.012
6.3469
5.68121
5.01488
4.34791
3.6803
3.01208
2.34334
1.67415
1.00463
0.334899
9.66797
9.00386
8.33958
7.67504
7.01013
6.34478
5.67893
5.01256
4.34563
3.67816
3.01019
2.34177
1.67297
1.0039
0.334652
9.66777
9.00326
8.33862
7.67374
7.00856
6.34301
5.67703
5.01061
4.34372
3.67637
3.0086
2.34045
1.67199
1.00329
0.334447
9.6676
9.00277
8.33781
7.67266
7.00725
6.34153
5.67545
5.00898
4.34213
3.67488
3.00728
2.33936
1.67117
1.00278
0.334276
9.66746
9.00235
8.33714
7.67176
7.00616
6.34029
5.67412
5.00763
4.3408
3.67364
3.00618
2.33845
1.67049
1.00236
0.334133
9.66735
9.00201
8.33658
7.67101
7.00526
6.33927
5.67303
5.00651
4.3397
3.67262
3.00527
2.33769
1.66993
1.00202
0.334015
9.66725
9.00172
8.33612
7.6704
7.00451
6.33843
5.67212
5.00558
4.3388
3.67177
3.00452
2.33707
1.66946
1.00173
0.333918
9.66717
9.00149
8.33574
7.66989
7.0039
6.33774
5.67139
5.00483
4.33806
3.67108
3.00391
2.33657
1.66908
1.00149
0.333839
9.66711
9.0013
8.33544
7.66949
7.00341
6.33718
5.67079
5.00422
4.33746
3.67052
3.00342
2.33616
1.66878
1.00131
0.333775
9.66706
9.00115
8.3352
7.66917
7.00302
6.33675
5.67032
5.00374
4.33699
3.67008
3.00303
2.33584
1.66854
1.00116
0.333724
9.66702
9.00104
8.33502
7.66892
7.00273
6.33641
5.66996
5.00337
4.33663
3.66975
3.00273
2.33559
1.66835
1.00104
0.333686
9.66699
9.00096
8.33489
7.66874
7.00251
6.33617
5.6697
5.00311
4.33637
3.6695
3.00251
2.33541
1.66822
1.00096
0.333658
9.66697
9.00091
8.3348
7.66863
7.00237
6.33601
5.66954
5.00294
4.3362
3.66935
3.00238
2.3353
1.66814
1.00091
0.33364
9.66696
9.00088
8.33476
7.66858
7.00231
6.33594
5.66946
5.00285
4.33613
3.66927
3.00231
2.33524
1.66809
1.00088
0.333632
9.66697
9.00088
8.33476
7.66858
7.00231
6.33594
5.66946
5.00286
4.33613
3.66928
3.00231
2.33525
1.6681
1.00088
0.333632
9.66697
9.00091
8.33481
7.66864
7.00239
6.33603
5.66955
5.00295
4.33622
3.66936
3.00239
2.33531
1.66814
1.00091
0.333642
9.66699
9.00097
8.3349
7.66876
7.00253
6.33619
5.66973
5.00313
4.3364
3.66953
3.00254
2.33543
1.66823
1.00097
0.333661
9.66702
9.00105
8.33504
7.66895
7.00276
6.33645
5.67
5.00341
4.33667
3.66978
3.00276
2.33562
1.66837
1.00105
0.33369
9.66706
9.00117
8.33523
7.6692
7.00306
6.33679
5.67037
5.00379
4.33704
3.67013
3.00307
2.33587
1.66856
1.00117
0.33373
9.66711
9.00132
8.33547
7.66953
7.00346
6.33724
5.67086
5.00428
4.33752
3.67058
3.00347
2.3362
1.66881
1.00133
0.333782
9.66718
9.00151
8.33578
7.66995
7.00397
6.33781
5.67147
5.00491
4.33814
3.67115
3.00397
2.33662
1.66912
1.00152
0.333847
9.66726
9.00175
8.33617
7.67046
7.00459
6.33852
5.67222
5.00568
4.33889
3.67186
3.0046
2.33714
1.66951
1.00176
0.333928
9.66736
9.00204
8.33664
7.6711
7.00536
6.33938
5.67315
5.00663
4.33982
3.67273
3.00537
2.33778
1.66999
1.00205
0.334028
9.66748
9.0024
8.33721
7.67186
7.00628
6.34043
5.67427
5.00778
4.34094
3.67378
3.0063
2.33855
1.67056
1.00241
0.334148
9.66762
9.00282
8.3379
7.67278
7.0074
6.34169
5.67562
5.00916
4.3423
3.67505
3.00742
2.33948
1.67126
1.00284
0.334294
9.66779
9.00333
8.33873
7.67389
7.00874
6.3432
5.67724
5.01082
4.34393
3.67657
3.00877
2.34059
1.67209
1.00336
0.334469
9.668
9.00394
8.33971
7.67521
7.01034
6.34502
5.67919
5.01281
4.34588
3.67839
3.01039
2.34193
1.6731
1.00398
0.334678
9.66825
9.00467
8.34089
7.67679
7.01225
6.34718
5.68151
5.01519
4.34821
3.68057
3.01233
2.34354
1.6743
1.00472
0.33493
9.66854
9.00554
8.3423
7.67867
7.01453
6.34976
5.68428
5.01803
4.35099
3.68318
3.01464
2.34545
1.67573
1.0056
0.33523
9.66889
9.00657
8.34397
7.68092
7.01725
6.35284
5.68758
5.02142
4.35431
3.68629
3.0174
2.34774
1.67744
1.00667
0.335589
9.6693
9.0078
8.34596
7.68359
7.02048
6.3565
5.69152
5.02545
4.35827
3.69
3.0207
2.35048
1.67949
1.00793
0.336018
9.6698
9.00926
8.34833
7.68676
7.02433
6.36086
5.6962
5.03026
4.363
3.69443
3.02463
2.35374
1.68194
1.00945
0.33653
9.67038
9.01099
8.35113
7.69052
7.0289
6.36604
5.70177
5.03599
4.36863
3.69971
3.02933
2.35764
1.68486
1.01126
0.337143
9.67108
9.01304
8.35446
7.695
7.03433
6.3722
5.70841
5.0428
4.37533
3.70601
3.03494
2.3623
1.68835
1.01342
0.337875
9.6719
9.01548
8.35841
7.7003
7.04077
6.37952
5.71629
5.05092
4.38332
3.71352
3.04163
2.36786
1.69253
1.01601
0.338752
9.67287
9.01836
8.36309
7.70658
7.04842
6.38821
5.72567
5.06058
4.39285
3.72249
3.04963
2.37452
1.69752
1.01911
0.339802
9.67402
9.02176
8.36862
7.71403
7.05747
6.39852
5.7368
5.07207
4.4042
3.73319
3.05918
2.38248
1.70351
1.02282
0.341061
9.67538
9.02579
8.37515
7.72283
7.0682
6.41075
5.75004
5.08575
4.41773
3.74596
3.07061
2.39202
1.71068
1.02728
0.342573
9.67698
9.03053
8.38287
7.73323
7.08089
6.42524
5.76575
5.10203
4.43387
3.76123
3.0843
2.40345
1.7193
1.03264
0.344391
9.67886
9.03611
8.39195
7.74549
7.09589
6.4424
5.78439
5.12139
4.45311
3.77948
3.10069
2.41719
1.72967
1.03909
0.346581
9.68107
9.04267
8.40264
7.75994
7.11359
6.46269
5.8065
5.14441
4.47606
3.80132
3.12037
2.43371
1.74216
1.04688
0.349227
9.68366
9.05036
8.41518
7.77693
7.13444
6.48667
5.8327
5.17179
4.50344
3.82746
3.144
2.45362
1.75726
1.0563
0.352433
9.68669
9.05935
8.42987
7.79685
7.15896
6.51495
5.86371
5.20432
4.53613
3.8588
3.17245
2.47767
1.77555
1.06775
0.356331
9.69021
9.06982
8.447
7.82015
7.18773
6.54826
5.90039
5.24298
4.57515
3.89641
3.20676
2.5068
1.7978
1.08171
0.361091
9.6943
9.08199
8.46693
7.84733
7.22139
6.58738
5.94369
5.28887
4.62175
3.9416
3.24823
2.54221
1.82497
1.09882
0.366934
9.69902
9.09605
8.49003
7.87891
7.26065
6.63324
5.99472
5.34329
4.6774
3.99595
3.29848
2.58542
1.85831
1.11991
0.374156
9.70445
9.11224
8.51666
7.91544
7.30627
6.68681
6.05472
5.40775
4.74386
4.06143
3.35956
2.6384
1.8995
1.14611
0.383153
9.71066
9.13076
8.5472
7.95749
7.35904
6.74915
6.12505
5.48395
4.82318
4.14041
3.43404
2.70368
1.95074
1.17894
0.394477
9.7177
9.15182
8.58202
8.00562
7.41974
6.82135
6.20718
5.57382
4.91778
4.23578
3.52517
2.78464
2.01508
1.22058
0.408916
9.72565
9.17559
8.62144
8.06032
7.48914
6.9045
6.30264
5.67944
5.03041
4.35102
3.63709
2.88575
2.09674
1.27414
0.427637
9.73453
9.2022
8.66569
8.122
7.56787
6.9996
6.41293
5.80297
5.16413
4.49023
3.77498
3.01301
2.20174
1.34428
0.45245
9.74436
9.23172
8.71492
8.19094
7.65643
7.10747
6.53939
5.94657
5.32219
4.65816
3.94533
3.17449
2.3388
1.43831
0.486336
9.75514
9.26413
8.76912
8.2672
7.75502
7.22861
6.68303
6.11207
5.50778
4.85996
4.15595
3.38102
2.52085
1.56808
0.534598
9.76683
9.29931
8.82812
8.35057
7.8635
7.36305
6.84429
6.30073
5.72358
5.10079
4.41581
3.64673
2.76722
1.75389
0.60766
9.77935
9.33703
8.89155
8.44056
7.98127
7.5102
7.02276
6.5127
5.97108
5.38479
4.73408
3.98911
3.10652
2.03199
0.7287
9.79258
9.37693
8.9588
8.53631
8.10722
7.6687
7.21694
6.74657
6.2496
5.71353
5.11781
4.42706
3.57911
2.46895
0.956757
9.80637
9.41856
9.02907
8.63663
8.23971
7.83639
7.42404
6.99891
6.55526
6.08369
5.56751
4.97417
4.23376
3.1851
1.4635
9.82054
9.46136
9.10139
8.74005
8.37665
8.01035
7.64002
7.2641
6.88029
6.48481
6.0708
5.62338
5.10248
4.36857
2.80734
9.83488
9.50469
9.17465
8.84489
8.51561
8.1871
7.85986
7.53478
7.21341
6.8988
6.59726
6.32362
6.1191
6.12654
6.96604
9.8492
9.54793
9.24772
8.94941
8.65402
8.36295
8.07821
7.80285
7.54183
7.3037
7.10434
6.97582
6.98851
7.30667
8.30408
9.86327
9.59042
9.31948
9.05188
8.78942
8.5344
8.29003
8.06096
7.85435
7.68165
7.56221
7.52996
7.64575
8.01508
8.78946
0.111211
0.199545
0.238189
0.252625
0.252948
0.244133
0.229024
0.209409
0.186494
0.16113
0.133945
0.10542
0.0759359
0.0458081
0.0153097
0.0597142
0.136799
0.18015
0.201593
0.208673
0.205955
0.1963
0.181598
0.163154
0.141909
0.118564
0.0936654
0.0676486
0.0408785
0.0136736
0.0376219
0.0974782
0.137325
0.160532
0.171201
0.172591
0.167081
0.156385
0.141759
0.124144
0.104262
0.0826866
0.059884
0.0362506
0.0121361
0.0262151
0.0720519
0.106055
0.128178
0.14017
0.144018
0.141461
0.133899
0.122439
0.107952
0.0911363
0.0725591
0.0526959
0.0319566
0.0107079
0.0193867
0.0548433
0.0830328
0.10286
0.114794
0.119893
0.119315
0.114121
0.10522
0.0933777
0.0792326
0.0633241
0.0461158
0.028016
0.00939574
0.0148614
0.042681
0.0658177
0.0830215
0.0941623
0.0997098
0.100375
0.0969145
0.0900432
0.0804015
0.0685528
0.0549913
0.0401545
0.0244368
0.00820236
0.0116577
0.0337703
0.0527221
0.0673933
0.0774146
0.0829163
0.0842987
0.0820765
0.0767895
0.0689574
0.059062
0.0475437
0.0348047
0.0212162
0.00712719
0.00928935
0.0270544
0.0425988
0.0549937
0.0638051
0.0689828
0.070725
0.0693663
0.0653027
0.0589456
0.0506979
0.0409435
0.0300445
0.0183431
0.0061668
0.00748594
0.0218804
0.0346624
0.0450822
0.0527184
0.0574348
0.0593042
0.058534
0.055408
0.0502462
0.0433798
0.035138
0.0258411
0.0157998
0.00531557
0.00608346
0.0178261
0.0283661
0.0371034
0.043659
0.0478634
0.0497159
0.0493373
0.0469268
0.0427302
0.0370166
0.0300648
0.0221547
0.0135638
0.00456635
0.00497559
0.0146067
0.0233215
0.0306395
0.0362321
0.0399248
0.0416768
0.0415512
0.0396857
0.0362673
0.031513
0.0256568
0.0189408
0.0116102
0.00391099
0.00408998
0.0120235
0.0192467
0.0253735
0.0301243
0.0333338
0.0349412
0.034973
0.0335227
0.0307318
0.0267744
0.0218458
0.0161535
0.00991239
0.00334089
0.00337544
0.00993361
0.0159333
0.0210628
0.0250867
0.027855
0.0292994
0.0294239
0.0282905
0.0260061
0.0227102
0.0185649
0.0137473
0.00844398
0.00284735
0.00279469
0.00823144
0.0132241
0.0175196
0.020921
0.0232953
0.0245742
0.024748
0.0238573
0.0219826
0.0192357
0.0157508
0.0116782
0.0071792
0.0024219
0.00231993
0.00683763
0.0109988
0.0145973
0.0174683
0.0194962
0.0206161
0.0208113
0.0201072
0.0185648
0.0162735
0.0133446
0.00990513
0.00609378
0.00205651
0.00192997
0.00569134
0.00916431
0.01218
0.0146009
0.0163274
0.0173002
0.0174989
0.0169391
0.0156669
0.0137541
0.0112928
0.00839027
0.00516519
0.00174371
0.00160846
0.00474527
0.0076473
0.0101757
0.0122157
0.013682
0.0145216
0.0147132
0.0142655
0.0132137
0.0116156
0.0095473
0.00709935
0.00437297
0.00147669
0.00134256
0.00396221
0.0063897
0.00851047
0.0102287
0.0114718
0.0121929
0.0123713
0.0120113
0.0111398
0.00980349
0.00806538
0.00600173
0.00369869
0.00124931
0.00112211
0.00331258
0.00534505
0.00712474
0.00857156
0.00962393
0.010241
0.0104033
0.0101123
0.00938869
0.00827031
0.00680948
0.00507032
0.00312602
0.0010561
0.000938994
0.00277265
0.0044759
0.00597011
0.00718831
0.00807832
0.0086048
0.00874999
0.00851359
0.00791163
0.00697487
0.0057468
0.00428134
0.00264055
0.000892255
0.000786649
0.00232327
0.00375189
0.00500712
0.0060329
0.00678511
0.00723331
0.00736162
0.00716869
0.006667
0.0058817
0.00484894
0.00361409
0.00222972
0.000753553
0.000659769
0.00194886
0.00314825
0.00420344
0.00506744
0.00570296
0.00608393
0.00619629
0.00603814
0.00561928
0.00496032
0.0040914
0.00305066
0.00188261
0.000636331
0.000554027
0.00163674
0.00264474
0.0035325
0.0042606
0.00479754
0.00512104
0.00521877
0.0050886
0.00473826
0.00418472
0.00345313
0.00257561
0.00158981
0.000537427
0.00046588
0.00137649
0.0022247
0.0029724
0.00358649
0.00404032
0.00431489
0.00439948
0.0042919
0.00399832
0.00353273
0.00291618
0.00217573
0.00134325
0.000454123
0.000392421
0.00115955
0.00187443
0.00250509
0.00302363
0.00340755
0.00364064
0.00371362
0.00362435
0.00337779
0.00298555
0.00246526
0.00183975
0.00113601
0.000384093
0.000331256
0.000978898
0.00158265
0.0021156
0.00255424
0.00287949
0.00307755
0.00314039
0.00306601
0.00285842
0.00252727
0.00208739
0.00155808
0.000962222
0.000325357