/*--------------------------------*- C++ -*----------------------------------*\
| =========                 |                                                 |
| \\      /  F ield         | OpenFOAM: The Open Source CFD Toolbox           |
|  \\    /   O peration     | Version:  5.x                                   |
|   \\  /    A nd           | Web:      www.OpenFOAM.org                      |
|    \\/     M anipulation  |                                                 |
\*---------------------------------------------------------------------------*/
FoamFile
{
    version     2.0;
    format      ascii;
    class       volScalarField;
    location    "2.9";
    object      T;
}
// * * * * * * * * * * * * * * * * * * * * * * * * * * * * * * * * * * * * * //

dimensions      [0 0 0 1 0 0 0];

internalField   nonuniform List<scalar> 
3200
(
1.97641e-07
1.76787e-07
1.73595e-07
1.31779e-07
1.27859e-07
9.35234e-08
9.04963e-08
6.68031e-08
6.46439e-08
4.80313e-08
3.60439e-08
3.49172e-08
2.6778e-08
2.60353e-08
2.00712e-08
1.95266e-08
1.50862e-08
1.46796e-08
1.13463e-08
1.10406e-08
8.52705e-09
8.29632e-09
6.39679e-09
6.22238e-09
4.786e-09
4.65415e-09
3.56862e-09
3.46904e-09
2.64985e-09
2.57478e-09
1.95797e-09
1.90151e-09
1.43843e-09
1.39611e-09
1.04969e-09
1.01809e-09
7.6007e-10
7.36581e-10
5.45402e-10
5.28042e-10
3.87265e-10
3.74521e-10
2.71632e-10
2.62352e-10
1.87831e-10
1.8114e-10
1.27756e-10
1.22982e-10
8.52261e-11
8.17603e-11
5.47589e-11
3.57174e-11
3.39765e-11
2.20289e-11
2.0991e-11
1.3274e-11
1.26145e-11
7.76573e-12
7.35621e-12
4.40556e-12
4.15909e-12
2.42065e-12
2.27692e-12
1.28401e-12
1.20269e-12
6.52081e-13
6.07398e-13
3.10881e-13
2.8707e-13
1.32692e-13
1.2049e-13
4.40325e-14
3.83248e-14
7.08579e-15
5.03932e-15
-1.7318e-15
-2.1289e-15
-2.19865e-15
-2.21448e-15
-2.21802e-15
1.95212e-07
1.776e-07
1.70276e-07
1.34726e-07
1.25698e-07
9.61417e-08
8.91396e-08
6.86006e-08
6.35624e-08
4.85213e-08
3.71729e-08
3.45076e-08
2.74118e-08
2.56884e-08
2.05251e-08
1.92638e-08
1.54226e-08
1.44813e-08
1.15984e-08
1.08906e-08
8.717e-09
8.18285e-09
6.54029e-09
6.13655e-09
4.89452e-09
4.58931e-09
3.65066e-09
3.42014e-09
2.7118e-09
2.53801e-09
2.00465e-09
1.87395e-09
1.47351e-09
1.37553e-09
1.07596e-09
1.0028e-09
7.79667e-10
7.25288e-10
5.59946e-10
5.19756e-10
3.97997e-10
3.68492e-10
2.79495e-10
2.58009e-10
1.93543e-10
1.78049e-10
1.31859e-10
1.20801e-10
8.80761e-11
7.9992e-11
5.55962e-11
3.75415e-11
3.3419e-11
2.29893e-11
2.0579e-11
1.3887e-11
1.23582e-11
8.15335e-12
7.20399e-12
4.64334e-12
4.07179e-12
2.56185e-12
2.22842e-12
1.36526e-12
1.17654e-12
6.97464e-13
5.93725e-13
3.3551e-13
2.80208e-13
1.4565e-13
1.173e-13
5.0629e-14
3.73571e-14
9.96668e-15
5.184e-15
-1.01155e-15
-1.96096e-15
-2.15926e-15
-2.20509e-15
-2.21535e-15
1.93487e-07
1.78001e-07
1.68085e-07
1.36612e-07
1.24358e-07
9.7857e-08
8.83236e-08
6.97776e-08
6.28806e-08
4.88631e-08
3.79543e-08
3.42751e-08
2.78305e-08
2.54789e-08
2.08226e-08
1.91041e-08
1.56429e-08
1.43605e-08
1.17634e-08
1.07992e-08
8.8413e-09
8.11366e-09
6.63418e-09
6.08421e-09
4.96552e-09
4.54977e-09
3.70434e-09
3.39033e-09
2.75234e-09
2.5156e-09
2.0352e-09
1.85716e-09
1.49648e-09
1.36301e-09
1.09317e-09
9.93505e-10
7.92506e-10
7.18429e-10
5.69481e-10
5.1473e-10
4.05036e-10
3.6484e-10
2.84655e-10
2.55383e-10
1.97294e-10
1.76184e-10
1.34555e-10
1.19486e-10
8.99397e-11
7.88756e-11
5.61795e-11
3.88079e-11
3.31135e-11
2.36287e-11
2.03382e-11
1.42933e-11
1.22089e-11
8.41068e-12
7.11617e-12
4.80152e-12
4.022e-12
2.65597e-12
2.20109e-12
1.41952e-12
1.16199e-12
7.27826e-13
5.86227e-13
3.5202e-13
2.76513e-13
1.54357e-13
1.15641e-13
5.50888e-14
3.69537e-14
1.1943e-14
5.38507e-15
-5.01196e-16
-1.82309e-15
-2.12597e-15
-2.19711e-15
-2.21309e-15
1.92379e-07
1.78177e-07
1.66755e-07
1.37726e-07
1.23586e-07
9.88925e-08
8.78672e-08
7.04877e-08
6.24829e-08
4.908e-08
3.8446e-08
3.41527e-08
2.80852e-08
2.53613e-08
2.10025e-08
1.90139e-08
1.57759e-08
1.42921e-08
1.1863e-08
1.07475e-08
8.91628e-09
8.07446e-09
6.69082e-09
6.05454e-09
5.00835e-09
4.52736e-09
3.73673e-09
3.37345e-09
2.7768e-09
2.50291e-09
2.05364e-09
1.84766e-09
1.51034e-09
1.35593e-09
1.10356e-09
9.88251e-10
8.0026e-10
7.14556e-10
5.7524e-10
5.11895e-10
4.09289e-10
3.62784e-10
2.87775e-10
2.53908e-10
1.99564e-10
1.75139e-10
1.36187e-10
1.18748e-10
9.1063e-11
7.82235e-11
5.65491e-11
3.96067e-11
3.29592e-11
2.402e-11
2.02073e-11
1.4541e-11
1.2128e-11
8.56774e-12
7.06907e-12
4.89822e-12
3.99561e-12
2.7136e-12
2.1868e-12
1.4528e-12
1.15449e-12
7.46475e-13
5.82425e-13
3.62175e-13
2.74681e-13
1.59724e-13
1.14854e-13
5.78509e-14
3.68247e-14
1.31809e-14
5.55909e-15
-1.73497e-16
-1.72599e-15
-2.10195e-15
-2.19132e-15
-2.21144e-15
1.91838e-07
1.78239e-07
1.66127e-07
1.38244e-07
1.23234e-07
9.93797e-08
8.76636e-08
7.08217e-08
6.23001e-08
4.91853e-08
3.86835e-08
3.41008e-08
2.82056e-08
2.53088e-08
2.10871e-08
1.89734e-08
1.58385e-08
1.42614e-08
1.19098e-08
1.07242e-08
8.95155e-09
8.05681e-09
6.71746e-09
6.04118e-09
5.0285e-09
4.51727e-09
3.75196e-09
3.36585e-09
2.78831e-09
2.4972e-09
2.06231e-09
1.84339e-09
1.51686e-09
1.35274e-09
1.10845e-09
9.85891e-10
8.03909e-10
7.12817e-10
5.77951e-10
5.10624e-10
4.11292e-10
3.61863e-10
2.89245e-10
2.53247e-10
2.00633e-10
1.74671e-10
1.36956e-10
1.18418e-10
9.1591e-11
7.79236e-11
5.67285e-11
3.9993e-11
3.28961e-11
2.42059e-11
2.01502e-11
1.46583e-11
1.20928e-11
8.64218e-12
7.04875e-12
4.94411e-12
3.98434e-12
2.74098e-12
2.18076e-12
1.46862e-12
1.15136e-12
7.55351e-13
5.80862e-13
3.67014e-13
2.73943e-13
1.62285e-13
1.14551e-13
5.91726e-14
3.67996e-14
1.37775e-14
5.65731e-15
-1.31004e-17
-1.67599e-15
-2.08938e-15
-2.18829e-15
-2.21057e-15
1.91838e-07
1.78239e-07
1.66127e-07
1.38244e-07
1.23234e-07
9.93797e-08
8.76636e-08
7.08217e-08
6.23001e-08
4.91853e-08
3.86835e-08
3.41008e-08
2.82056e-08
2.53088e-08
2.10871e-08
1.89734e-08
1.58385e-08
1.42614e-08
1.19098e-08
1.07242e-08
8.95155e-09
8.05681e-09
6.71746e-09
6.04118e-09
5.0285e-09
4.51727e-09
3.75196e-09
3.36585e-09
2.78831e-09
2.4972e-09
2.06231e-09
1.84339e-09
1.51686e-09
1.35274e-09
1.10845e-09
9.85891e-10
8.03909e-10
7.12817e-10
5.77951e-10
5.10624e-10
4.11292e-10
3.61863e-10
2.89245e-10
2.53247e-10
2.00633e-10
1.74671e-10
1.36956e-10
1.18418e-10
9.1591e-11
7.79236e-11
5.67285e-11
3.9993e-11
3.28961e-11
2.42058e-11
2.01502e-11
1.46583e-11
1.20928e-11
8.64218e-12
7.04875e-12
4.9441e-12
3.98434e-12
2.74098e-12
2.18076e-12
1.46862e-12
1.15136e-12
7.5535e-13
5.80861e-13
3.67014e-13
2.73943e-13
1.62285e-13
1.14551e-13
5.91725e-14
3.67995e-14
1.37774e-14
5.65729e-15
-1.31109e-17
-1.676e-15
-2.08938e-15
-2.18829e-15
-2.21057e-15
1.9238e-07
1.78177e-07
1.66755e-07
1.37726e-07
1.23586e-07
9.88925e-08
8.78672e-08
7.04877e-08
6.24828e-08
4.908e-08
3.8446e-08
3.41527e-08
2.80852e-08
2.53613e-08
2.10025e-08
1.90139e-08
1.57759e-08
1.42921e-08
1.1863e-08
1.07475e-08
8.91628e-09
8.07446e-09
6.69082e-09
6.05454e-09
5.00835e-09
4.52736e-09
3.73673e-09
3.37345e-09
2.7768e-09
2.50291e-09
2.05364e-09
1.84766e-09
1.51034e-09
1.35593e-09
1.10356e-09
9.88251e-10
8.0026e-10
7.14556e-10
5.7524e-10
5.11895e-10
4.09289e-10
3.62784e-10
2.87775e-10
2.53908e-10
1.99564e-10
1.75139e-10
1.36187e-10
1.18748e-10
9.1063e-11
7.82235e-11
5.65491e-11
3.96067e-11
3.29592e-11
2.402e-11
2.02073e-11
1.4541e-11
1.2128e-11
8.56773e-12
7.06907e-12
4.89821e-12
3.99561e-12
2.7136e-12
2.1868e-12
1.4528e-12
1.15449e-12
7.46474e-13
5.82425e-13
3.62175e-13
2.74681e-13
1.59724e-13
1.14854e-13
5.78508e-14
3.68246e-14
1.31808e-14
5.55904e-15
-1.73525e-16
-1.72601e-15
-2.10195e-15
-2.19133e-15
-2.21144e-15
1.93488e-07
1.78001e-07
1.68086e-07
1.36612e-07
1.24358e-07
9.7857e-08
8.83236e-08
6.97776e-08
6.28806e-08
4.88631e-08
3.79543e-08
3.42751e-08
2.78305e-08
2.54789e-08
2.08226e-08
1.91041e-08
1.56429e-08
1.43605e-08
1.17634e-08
1.07992e-08
8.8413e-09
8.11367e-09
6.63419e-09
6.08421e-09
4.96553e-09
4.54977e-09
3.70434e-09
3.39034e-09
2.75234e-09
2.5156e-09
2.0352e-09
1.85716e-09
1.49648e-09
1.36301e-09
1.09317e-09
9.93505e-10
7.92507e-10
7.18429e-10
5.69481e-10
5.1473e-10
4.05036e-10
3.6484e-10
2.84655e-10
2.55383e-10
1.97294e-10
1.76184e-10
1.34555e-10
1.19486e-10
8.99397e-11
7.88755e-11
5.61795e-11
3.88079e-11
3.31135e-11
2.36287e-11
2.03382e-11
1.42933e-11
1.22089e-11
8.41067e-12
7.11617e-12
4.80151e-12
4.02199e-12
2.65596e-12
2.20108e-12
1.41952e-12
1.16199e-12
7.27825e-13
5.86226e-13
3.52019e-13
2.76513e-13
1.54357e-13
1.15641e-13
5.50886e-14
3.69535e-14
1.19429e-14
5.38501e-15
-5.01233e-16
-1.82311e-15
-2.12598e-15
-2.19712e-15
-2.21308e-15
1.95213e-07
1.77601e-07
1.70277e-07
1.34727e-07
1.25698e-07
9.61417e-08
8.91396e-08
6.86006e-08
6.35624e-08
4.85213e-08
3.71729e-08
3.45076e-08
2.74118e-08
2.56884e-08
2.05251e-08
1.92638e-08
1.54226e-08
1.44813e-08
1.15984e-08
1.08906e-08
8.717e-09
8.18285e-09
6.54029e-09
6.13655e-09
4.89452e-09
4.58931e-09
3.65066e-09
3.42014e-09
2.7118e-09
2.53801e-09
2.00465e-09
1.87395e-09
1.47351e-09
1.37553e-09
1.07596e-09
1.0028e-09
7.79667e-10
7.25288e-10
5.59947e-10
5.19756e-10
3.97997e-10
3.68492e-10
2.79495e-10
2.58009e-10
1.93543e-10
1.78049e-10
1.31859e-10
1.20801e-10
8.80761e-11
7.9992e-11
5.55962e-11
3.75415e-11
3.3419e-11
2.29893e-11
2.0579e-11
1.3887e-11
1.23582e-11
8.15335e-12
7.20399e-12
4.64334e-12
4.07179e-12
2.56185e-12
2.22841e-12
1.36526e-12
1.17654e-12
6.97463e-13
5.93725e-13
3.3551e-13
2.80207e-13
1.45649e-13
1.17299e-13
5.06288e-14
3.73569e-14
9.9666e-15
5.18394e-15
-1.01158e-15
-1.96098e-15
-2.15927e-15
-2.20509e-15
-2.21535e-15
1.97641e-07
1.76787e-07
1.73595e-07
1.3178e-07
1.27859e-07
9.35234e-08
9.04964e-08
6.68031e-08
6.46439e-08
4.80313e-08
3.60439e-08
3.49172e-08
2.6778e-08
2.60353e-08
2.00712e-08
1.95266e-08
1.50862e-08
1.46796e-08
1.13463e-08
1.10406e-08
8.52706e-09
8.29632e-09
6.39679e-09
6.22238e-09
4.786e-09
4.65416e-09
3.56862e-09
3.46904e-09
2.64985e-09
2.57478e-09
1.95797e-09
1.90151e-09
1.43843e-09
1.39611e-09
1.04969e-09
1.01809e-09
7.60071e-10
7.36581e-10
5.45402e-10
5.28042e-10
3.87265e-10
3.74521e-10
2.71632e-10
2.62352e-10
1.87831e-10
1.8114e-10
1.27756e-10
1.22982e-10
8.52261e-11
8.17603e-11
5.47589e-11
3.57174e-11
3.39765e-11
2.20289e-11
2.0991e-11
1.3274e-11
1.26145e-11
7.76573e-12
7.35621e-12
4.40556e-12
4.15909e-12
2.42065e-12
2.27692e-12
1.28401e-12
1.20269e-12
6.52081e-13
6.07398e-13
3.10881e-13
2.8707e-13
1.32692e-13
1.2049e-13
4.40325e-14
3.83247e-14
7.08576e-15
5.0393e-15
-1.73182e-15
-2.12891e-15
-2.19865e-15
-2.21448e-15
-2.21802e-15
4.07272e-05
3.48415e-06
1.58961e-06
3.71634e-07
2.5373e-07
1.45621e-07
1.3469e-07
1.10443e-07
1.079e-07
9.06914e-08
7.57131e-08
7.42116e-08
6.19098e-08
6.07211e-08
5.0328e-08
4.93338e-08
4.06792e-08
3.98559e-08
3.27372e-08
3.20627e-08
2.62607e-08
2.57125e-08
2.10153e-08
2.05724e-08
1.6788e-08
1.64317e-08
1.33935e-08
1.31078e-08
1.06749e-08
1.04463e-08
8.50197e-09
8.31936e-09
6.76765e-09
6.62199e-09
5.38505e-09
5.26899e-09
4.28391e-09
4.19151e-09
3.40764e-09
3.33413e-09
2.71082e-09
2.65238e-09
2.15703e-09
2.1106e-09
1.7171e-09
1.68021e-09
1.36766e-09
1.3383e-09
1.08975e-09
1.06541e-09
8.61122e-10
6.95072e-10
6.78931e-10
5.52799e-10
5.40874e-10
4.39753e-10
4.30193e-10
3.48378e-10
3.40613e-10
2.73766e-10
2.67385e-10
2.12072e-10
2.06755e-10
1.60269e-10
1.55768e-10
1.16039e-10
1.12201e-10
7.83476e-11
7.51538e-11
4.77363e-11
4.52341e-11
2.46892e-11
2.28452e-11
7.97267e-12
6.88722e-12
9.49845e-13
6.23505e-13
5.6797e-13
5.55434e-13
5.52632e-13
3.67524e-05
6.51336e-06
2.2166e-06
6.1386e-07
3.0376e-07
1.6599e-07
1.37617e-07
1.13114e-07
1.06941e-07
9.0994e-08
7.70268e-08
7.34934e-08
6.28201e-08
6.00667e-08
5.10903e-08
4.87901e-08
4.13161e-08
3.94113e-08
3.32627e-08
3.1702e-08
2.669e-08
2.54215e-08
2.13634e-08
2.03385e-08
1.70688e-08
1.62442e-08
1.36191e-08
1.29579e-08
1.08557e-08
1.03266e-08
8.6465e-09
8.22391e-09
6.88304e-09
6.54595e-09
5.47707e-09
5.20846e-09
4.35721e-09
4.14337e-09
3.46598e-09
3.29587e-09
2.75722e-09
2.62198e-09
2.19391e-09
2.08645e-09
1.7464e-09
1.66103e-09
1.39089e-09
1.32293e-09
1.10765e-09
1.05082e-09
8.65166e-10
7.0995e-10
6.71924e-10
5.62313e-10
5.34673e-10
4.4725e-10
4.25124e-10
3.5442e-10
3.36447e-10
2.78681e-10
2.63915e-10
2.16119e-10
2.03815e-10
1.63652e-10
1.53237e-10
1.18929e-10
1.10051e-10
8.08419e-11
7.34557e-11
4.97989e-11
4.40107e-11
2.62592e-11
2.19965e-11
9.21585e-12
6.70508e-12
1.52214e-12
7.56732e-13
5.99244e-13
5.62967e-13
5.54839e-13
3.39871e-05
8.50483e-06
2.73581e-06
8.04363e-07
3.46888e-07
1.81979e-07
1.40387e-07
1.15051e-07
1.06371e-07
9.12168e-08
7.79225e-08
7.30603e-08
6.34132e-08
5.96608e-08
5.15852e-08
4.84531e-08
4.17299e-08
3.91362e-08
3.36044e-08
3.14791e-08
2.69693e-08
2.52418e-08
2.159e-08
2.01942e-08
1.72516e-08
1.61287e-08
1.3766e-08
1.28655e-08
1.09735e-08
1.02529e-08
8.74068e-09
8.16514e-09
6.95823e-09
6.49914e-09
5.53703e-09
5.17121e-09
4.40498e-09
4.11374e-09
3.504e-09
3.27232e-09
2.78746e-09
2.60327e-09
2.21795e-09
2.0716e-09
1.76549e-09
1.64923e-09
1.40603e-09
1.31344e-09
1.11922e-09
1.04137e-09
8.67986e-10
7.20136e-10
6.67776e-10
5.68544e-10
5.30859e-10
4.52132e-10
4.21995e-10
3.58349e-10
3.33871e-10
2.81875e-10
2.61764e-10
2.18745e-10
2.01989e-10
1.65843e-10
1.51661e-10
1.20801e-10
1.08714e-10
8.24627e-11
7.24079e-11
5.11464e-11
4.32656e-11
2.72895e-11
2.14883e-11
1.00481e-11
6.62975e-12
1.91769e-12
8.6562e-13
6.25657e-13
5.69368e-13
5.56717e-13
3.22411e-05
9.70768e-06
3.10146e-06
9.35879e-07
3.78299e-07
1.93029e-07
1.42503e-07
1.1632e-07
1.06059e-07
9.1364e-08
7.84801e-08
7.28178e-08
6.37697e-08
5.94272e-08
5.18818e-08
4.82592e-08
4.1978e-08
3.89781e-08
3.38094e-08
3.13512e-08
2.71369e-08
2.51388e-08
2.1726e-08
2.01116e-08
1.73614e-08
1.60626e-08
1.38543e-08
1.28127e-08
1.10442e-08
1.02108e-08
8.79728e-09
8.13153e-09
7.00343e-09
6.47237e-09
5.57308e-09
5.14991e-09
4.43369e-09
4.0968e-09
3.52686e-09
3.25886e-09
2.80564e-09
2.59259e-09
2.2324e-09
2.06311e-09
1.77697e-09
1.64248e-09
1.41513e-09
1.30799e-09
1.12611e-09
1.03573e-09
8.69774e-10
7.26493e-10
6.65495e-10
5.72307e-10
5.28681e-10
4.55064e-10
4.20202e-10
3.60707e-10
3.32393e-10
2.8379e-10
2.60527e-10
2.20317e-10
2.00935e-10
1.67154e-10
1.5075e-10
1.21921e-10
1.07943e-10
8.34345e-11
7.18076e-11
5.1958e-11
4.28437e-11
2.79123e-11
2.12054e-11
1.05593e-11
6.60606e-12
2.16677e-12
9.41988e-13
6.44703e-13
5.74011e-13
5.5808e-13
3.13963e-05
1.02733e-05
3.28943e-06
1.00304e-06
3.94801e-07
1.9868e-07
1.43641e-07
1.16949e-07
1.05923e-07
9.14374e-08
7.87475e-08
7.27096e-08
6.3937e-08
5.93208e-08
5.20207e-08
4.81709e-08
4.20943e-08
3.89062e-08
3.39055e-08
3.12931e-08
2.72156e-08
2.50921e-08
2.17899e-08
2.00741e-08
1.7413e-08
1.60326e-08
1.38958e-08
1.27887e-08
1.10774e-08
1.01916e-08
8.82384e-09
8.1163e-09
7.02464e-09
6.46025e-09
5.58999e-09
5.14026e-09
4.44717e-09
4.08913e-09
3.53759e-09
3.25276e-09
2.81418e-09
2.58774e-09
2.23918e-09
2.05926e-09
1.78236e-09
1.63942e-09
1.4194e-09
1.30552e-09
1.12933e-09
1.03309e-09
8.70643e-10
7.29547e-10
6.64492e-10
5.74078e-10
5.27695e-10
4.5644e-10
4.19388e-10
3.61812e-10
3.3172e-10
2.84687e-10
2.59964e-10
2.21053e-10
2.00455e-10
1.67767e-10
1.50334e-10
1.22444e-10
1.0759e-10
8.38898e-11
7.15351e-11
5.23393e-11
4.26539e-11
2.82057e-11
2.10797e-11
1.08026e-11
6.60167e-12
2.2872e-12
9.81211e-13
6.54662e-13
5.76449e-13
5.58796e-13
3.13963e-05
1.02733e-05
3.28942e-06
1.00304e-06
3.948e-07
1.9868e-07
1.43641e-07
1.16949e-07
1.05923e-07
9.14374e-08
7.87475e-08
7.27096e-08
6.3937e-08
5.93208e-08
5.20207e-08
4.81709e-08
4.20943e-08
3.89062e-08
3.39055e-08
3.12931e-08
2.72156e-08
2.50921e-08
2.17899e-08
2.00741e-08
1.7413e-08
1.60326e-08
1.38958e-08
1.27887e-08
1.10774e-08
1.01916e-08
8.82384e-09
8.1163e-09
7.02464e-09
6.46025e-09
5.58999e-09
5.14026e-09
4.44717e-09
4.08913e-09
3.53759e-09
3.25276e-09
2.81418e-09
2.58774e-09
2.23918e-09
2.05926e-09
1.78236e-09
1.63942e-09
1.4194e-09
1.30552e-09
1.12933e-09
1.03309e-09
8.70643e-10
7.29547e-10
6.64492e-10
5.74078e-10
5.27695e-10
4.5644e-10
4.19388e-10
3.61812e-10
3.3172e-10
2.84687e-10
2.59964e-10
2.21054e-10
2.00455e-10
1.67767e-10
1.50334e-10
1.22444e-10
1.0759e-10
8.38898e-11
7.15351e-11
5.23393e-11
4.26539e-11
2.82057e-11
2.10797e-11
1.08026e-11
6.60166e-12
2.28719e-12
9.81209e-13
6.54661e-13
5.76449e-13
5.58795e-13
3.22411e-05
9.70767e-06
3.10145e-06
9.35873e-07
3.78296e-07
1.93027e-07
1.42502e-07
1.1632e-07
1.06059e-07
9.1364e-08
7.84801e-08
7.28178e-08
6.37697e-08
5.94272e-08
5.18818e-08
4.82592e-08
4.1978e-08
3.89781e-08
3.38094e-08
3.13512e-08
2.71369e-08
2.51389e-08
2.17261e-08
2.01116e-08
1.73614e-08
1.60626e-08
1.38543e-08
1.28127e-08
1.10442e-08
1.02108e-08
8.79728e-09
8.13154e-09
7.00343e-09
6.47238e-09
5.57308e-09
5.14991e-09
4.43369e-09
4.0968e-09
3.52686e-09
3.25886e-09
2.80564e-09
2.59259e-09
2.2324e-09
2.06311e-09
1.77697e-09
1.64248e-09
1.41513e-09
1.30799e-09
1.12611e-09
1.03573e-09
8.69774e-10
7.26493e-10
6.65495e-10
5.72307e-10
5.28681e-10
4.55064e-10
4.20202e-10
3.60707e-10
3.32393e-10
2.8379e-10
2.60527e-10
2.20317e-10
2.00935e-10
1.67154e-10
1.5075e-10
1.21921e-10
1.07943e-10
8.34345e-11
7.18076e-11
5.19579e-11
4.28437e-11
2.79123e-11
2.12054e-11
1.05593e-11
6.60604e-12
2.16676e-12
9.41981e-13
6.447e-13
5.7401e-13
5.58078e-13
3.39872e-05
8.50482e-06
2.7358e-06
8.04355e-07
3.46883e-07
1.81977e-07
1.40386e-07
1.15051e-07
1.06371e-07
9.12168e-08
7.79226e-08
7.30604e-08
6.34132e-08
5.96608e-08
5.15853e-08
4.84531e-08
4.17299e-08
3.91362e-08
3.36044e-08
3.14791e-08
2.69693e-08
2.52418e-08
2.159e-08
2.01942e-08
1.72516e-08
1.61287e-08
1.37661e-08
1.28655e-08
1.09735e-08
1.02529e-08
8.74068e-09
8.16515e-09
6.95824e-09
6.49914e-09
5.53703e-09
5.17121e-09
4.40498e-09
4.11374e-09
3.504e-09
3.27232e-09
2.78746e-09
2.60328e-09
2.21795e-09
2.0716e-09
1.76549e-09
1.64923e-09
1.40603e-09
1.31344e-09
1.11922e-09
1.04137e-09
8.67986e-10
7.20136e-10
6.67776e-10
5.68545e-10
5.30859e-10
4.52132e-10
4.21995e-10
3.58349e-10
3.33872e-10
2.81875e-10
2.61764e-10
2.18745e-10
2.01989e-10
1.65843e-10
1.51661e-10
1.20801e-10
1.08714e-10
8.24626e-11
7.24079e-11
5.11463e-11
4.32655e-11
2.72894e-11
2.14883e-11
1.00481e-11
6.62973e-12
1.91767e-12
8.65611e-13
6.25652e-13
5.69366e-13
5.56714e-13
3.67524e-05
6.51335e-06
2.21659e-06
6.13853e-07
3.03756e-07
1.65988e-07
1.37616e-07
1.13114e-07
1.06941e-07
9.09941e-08
7.70268e-08
7.34934e-08
6.28202e-08
6.00667e-08
5.10903e-08
4.87902e-08
4.13161e-08
3.94113e-08
3.32627e-08
3.1702e-08
2.669e-08
2.54215e-08
2.13634e-08
2.03385e-08
1.70688e-08
1.62442e-08
1.36191e-08
1.29579e-08
1.08557e-08
1.03266e-08
8.64651e-09
8.22392e-09
6.88305e-09
6.54595e-09
5.47707e-09
5.20847e-09
4.35721e-09
4.14337e-09
3.46598e-09
3.29587e-09
2.75722e-09
2.62198e-09
2.19391e-09
2.08645e-09
1.7464e-09
1.66103e-09
1.39089e-09
1.32293e-09
1.10765e-09
1.05082e-09
8.65166e-10
7.09951e-10
6.71925e-10
5.62314e-10
5.34673e-10
4.4725e-10
4.25124e-10
3.5442e-10
3.36448e-10
2.78682e-10
2.63915e-10
2.16119e-10
2.03815e-10
1.63652e-10
1.53237e-10
1.18929e-10
1.10051e-10
8.08419e-11
7.34557e-11
4.97989e-11
4.40107e-11
2.62592e-11
2.19965e-11
9.21583e-12
6.70506e-12
1.52212e-12
7.56724e-13
5.9924e-13
5.62966e-13
5.54837e-13
4.07272e-05
3.48415e-06
1.5896e-06
3.71632e-07
2.53728e-07
1.45621e-07
1.3469e-07
1.10443e-07
1.079e-07
9.06914e-08
7.57131e-08
7.42116e-08
6.19098e-08
6.07211e-08
5.0328e-08
4.93338e-08
4.06792e-08
3.98559e-08
3.27372e-08
3.20627e-08
2.62608e-08
2.57125e-08
2.10153e-08
2.05724e-08
1.6788e-08
1.64317e-08
1.33935e-08
1.31078e-08
1.06749e-08
1.04463e-08
8.50197e-09
8.31936e-09
6.76765e-09
6.62199e-09
5.38506e-09
5.26899e-09
4.28391e-09
4.19151e-09
3.40764e-09
3.33413e-09
2.71082e-09
2.65238e-09
2.15703e-09
2.1106e-09
1.7171e-09
1.68021e-09
1.36766e-09
1.3383e-09
1.08975e-09
1.06541e-09
8.61122e-10
6.95072e-10
6.78931e-10
5.528e-10
5.40874e-10
4.39753e-10
4.30193e-10
3.48379e-10
3.40613e-10
2.73766e-10
2.67385e-10
2.12072e-10
2.06755e-10
1.60269e-10
1.55768e-10
1.16039e-10
1.12201e-10
7.83476e-11
7.51538e-11
4.77363e-11
4.52341e-11
2.46892e-11
2.28452e-11
7.97266e-12
6.88721e-12
9.4984e-13
6.23502e-13
5.67968e-13
5.55433e-13
5.52631e-13
4.07411e-05
3.48366e-06
1.58836e-06
3.69458e-07
2.51495e-07
1.43546e-07
1.32634e-07
1.0864e-07
1.06125e-07
8.91722e-08
7.44293e-08
7.29515e-08
6.08479e-08
5.96785e-08
4.94555e-08
4.84777e-08
3.9967e-08
3.91575e-08
3.21588e-08
3.14957e-08
2.57929e-08
2.52541e-08
2.06381e-08
2.02029e-08
1.64848e-08
1.61347e-08
1.31503e-08
1.28696e-08
1.04803e-08
1.02557e-08
8.3464e-09
8.16709e-09
6.64354e-09
6.50053e-09
5.28618e-09
5.17224e-09
4.20524e-09
4.11453e-09
3.34511e-09
3.27296e-09
2.66116e-09
2.60381e-09
2.11763e-09
2.07205e-09
1.68585e-09
1.64965e-09
1.34288e-09
1.31407e-09
1.07012e-09
1.04624e-09
8.45727e-10
6.82743e-10
6.669e-10
5.43091e-10
5.31385e-10
4.32119e-10
4.22735e-10
3.42414e-10
3.3479e-10
2.69155e-10
2.6289e-10
2.08571e-10
2.03349e-10
1.57686e-10
1.53264e-10
1.14221e-10
1.10448e-10
7.71565e-11
7.40146e-11
4.70308e-11
4.45676e-11
2.43365e-11
2.252e-11
7.85979e-12
6.78982e-12
9.362e-13
6.14468e-13
5.59718e-13
5.47359e-13
5.44597e-13
3.67648e-05
6.51404e-06
2.21556e-06
6.11821e-07
3.01572e-07
1.63913e-07
1.35581e-07
1.11295e-07
1.05185e-07
8.94727e-08
7.57229e-08
7.22452e-08
6.17436e-08
5.90349e-08
5.02054e-08
4.79432e-08
4.05933e-08
3.87204e-08
3.26754e-08
3.11412e-08
2.62148e-08
2.49681e-08
2.09802e-08
1.99731e-08
1.67606e-08
1.59506e-08
1.33719e-08
1.27224e-08
1.06578e-08
1.01382e-08
8.48834e-09
8.07338e-09
6.75684e-09
6.42588e-09
5.37652e-09
5.11283e-09
4.27719e-09
4.06728e-09
3.40237e-09
3.2354e-09
2.70671e-09
2.57397e-09
2.15382e-09
2.04836e-09
1.7146e-09
1.63082e-09
1.36569e-09
1.29898e-09
1.0877e-09
1.03191e-09
8.49696e-10
6.97347e-10
6.60022e-10
5.5243e-10
5.25297e-10
4.39478e-10
4.17758e-10
3.48345e-10
3.307e-10
2.73982e-10
2.59482e-10
2.12545e-10
2.00461e-10
1.61008e-10
1.50776e-10
1.17061e-10
1.08334e-10
7.96089e-11
7.23427e-11
4.90604e-11
4.33625e-11
2.58822e-11
2.16829e-11
9.08511e-12
6.61017e-12
1.5004e-12
7.45812e-13
5.9055e-13
5.54786e-13
5.46773e-13
3.39985e-05
8.50627e-06
2.73494e-06
8.02428e-07
3.44737e-07
1.79902e-07
1.38365e-07
1.13222e-07
1.04629e-07
8.96939e-08
7.66051e-08
7.18193e-08
6.23272e-08
5.86357e-08
5.06923e-08
4.76118e-08
4.10003e-08
3.84499e-08
3.30114e-08
3.09221e-08
2.64893e-08
2.47915e-08
2.12029e-08
1.98314e-08
1.69403e-08
1.58371e-08
1.35163e-08
1.26317e-08
1.07735e-08
1.00658e-08
8.58082e-09
8.01569e-09
6.83068e-09
6.37993e-09
5.43539e-09
5.07626e-09
4.32409e-09
4.0382e-09
3.4397e-09
3.21229e-09
2.73639e-09
2.55561e-09
2.17742e-09
2.03378e-09
1.73334e-09
1.61923e-09
1.38055e-09
1.28967e-09
1.09905e-09
1.02264e-09
8.52463e-10
7.07344e-10
6.5595e-10
5.58546e-10
5.21553e-10
4.44271e-10
4.14686e-10
3.52202e-10
3.2817e-10
2.77117e-10
2.5737e-10
2.15123e-10
1.98666e-10
1.6316e-10
1.49227e-10
1.189e-10
1.07018e-10
8.12022e-11
7.1311e-11
5.03863e-11
4.26284e-11
2.68964e-11
2.11816e-11
9.9054e-12
6.53584e-12
1.89036e-12
8.53161e-13
6.1659e-13
5.61096e-13
5.48624e-13
3.22518e-05
9.70959e-06
3.10072e-06
9.34013e-07
3.76174e-07
1.90953e-07
1.4049e-07
1.14485e-07
1.04325e-07
8.98402e-08
7.71543e-08
7.15808e-08
6.26781e-08
5.84059e-08
5.0984e-08
4.74211e-08
4.12443e-08
3.82946e-08
3.3213e-08
3.07964e-08
2.66541e-08
2.46904e-08
2.13366e-08
1.97502e-08
1.70482e-08
1.57722e-08
1.3603e-08
1.25798e-08
1.0843e-08
1.00244e-08
8.63641e-09
7.98269e-09
6.87505e-09
6.35366e-09
5.47078e-09
5.05535e-09
4.35228e-09
4.02158e-09
3.46214e-09
3.19908e-09
2.75424e-09
2.54512e-09
2.1916e-09
2.02544e-09
1.74461e-09
1.61261e-09
1.38948e-09
1.28433e-09
1.10581e-09
1.0171e-09
8.54218e-10
7.13584e-10
6.53711e-10
5.62239e-10
5.19415e-10
4.47149e-10
4.12925e-10
3.54517e-10
3.26718e-10
2.78998e-10
2.56154e-10
2.16667e-10
1.97631e-10
1.64447e-10
1.48331e-10
1.2e-10
1.06259e-10
8.21576e-11
7.07198e-11
5.11848e-11
4.22128e-11
2.75095e-11
2.09024e-11
1.04093e-11
6.51243e-12
2.13592e-12
9.2845e-13
6.35367e-13
5.65674e-13
5.49968e-13
3.14067e-05
1.02755e-05
3.28875e-06
1.00121e-06
3.92689e-07
1.96606e-07
1.41633e-07
1.15112e-07
1.04193e-07
8.99131e-08
7.74177e-08
7.14745e-08
6.28428e-08
5.83013e-08
5.11207e-08
4.73343e-08
4.13586e-08
3.82239e-08
3.33074e-08
3.07393e-08
2.67314e-08
2.46445e-08
2.13993e-08
1.97134e-08
1.70988e-08
1.57427e-08
1.36437e-08
1.25563e-08
1.08756e-08
1.00057e-08
8.66249e-09
7.96774e-09
6.89588e-09
6.34175e-09
5.48738e-09
5.04588e-09
4.36551e-09
4.01405e-09
3.47267e-09
3.1931e-09
2.76261e-09
2.54037e-09
2.19826e-09
2.02167e-09
1.7499e-09
1.60961e-09
1.39367e-09
1.2819e-09
1.10897e-09
1.01452e-09
8.55071e-10
7.16581e-10
6.52727e-10
5.63977e-10
5.18447e-10
4.485e-10
4.12126e-10
3.55602e-10
3.26058e-10
2.79878e-10
2.55601e-10
2.1739e-10
1.97159e-10
1.65049e-10
1.47922e-10
1.20514e-10
1.05912e-10
8.26052e-11
7.04514e-11
5.156e-11
4.20258e-11
2.77983e-11
2.07784e-11
1.0649e-11
6.50808e-12
2.25464e-12
9.67119e-13
6.45185e-13
5.68078e-13
5.50674e-13
3.14067e-05
1.02755e-05
3.28875e-06
1.00121e-06
3.92687e-07
1.96606e-07
1.41632e-07
1.15112e-07
1.04193e-07
8.99131e-08
7.74177e-08
7.14745e-08
6.28428e-08
5.83013e-08
5.11207e-08
4.73343e-08
4.13586e-08
3.82239e-08
3.33075e-08
3.07393e-08
2.67314e-08
2.46445e-08
2.13993e-08
1.97134e-08
1.70988e-08
1.57427e-08
1.36437e-08
1.25563e-08
1.08756e-08
1.00057e-08
8.66249e-09
7.96774e-09
6.89588e-09
6.34175e-09
5.48738e-09
5.04588e-09
4.36551e-09
4.01405e-09
3.47267e-09
3.1931e-09
2.76261e-09
2.54037e-09
2.19826e-09
2.02167e-09
1.7499e-09
1.60961e-09
1.39367e-09
1.2819e-09
1.10897e-09
1.01452e-09
8.55071e-10
7.16581e-10
6.52727e-10
5.63977e-10
5.18447e-10
4.485e-10
4.12126e-10
3.55602e-10
3.26058e-10
2.79878e-10
2.55601e-10
2.1739e-10
1.97159e-10
1.6505e-10
1.47922e-10
1.20514e-10
1.05912e-10
8.26052e-11
7.04514e-11
5.156e-11
4.20257e-11
2.77983e-11
2.07784e-11
1.0649e-11
6.50807e-12
2.25464e-12
9.67116e-13
6.45184e-13
5.68077e-13
5.50673e-13
3.22518e-05
9.70958e-06
3.10071e-06
9.34007e-07
3.7617e-07
1.90952e-07
1.4049e-07
1.14485e-07
1.04325e-07
8.98402e-08
7.71543e-08
7.15808e-08
6.26781e-08
5.8406e-08
5.09841e-08
4.74211e-08
4.12443e-08
3.82946e-08
3.3213e-08
3.07964e-08
2.66542e-08
2.46904e-08
2.13366e-08
1.97502e-08
1.70482e-08
1.57722e-08
1.3603e-08
1.25798e-08
1.0843e-08
1.00244e-08
8.63641e-09
7.98269e-09
6.87506e-09
6.35366e-09
5.47078e-09
5.05535e-09
4.35228e-09
4.02158e-09
3.46214e-09
3.19908e-09
2.75424e-09
2.54512e-09
2.1916e-09
2.02545e-09
1.74461e-09
1.61261e-09
1.38948e-09
1.28433e-09
1.10581e-09
1.0171e-09
8.54219e-10
7.13584e-10
6.53712e-10
5.62239e-10
5.19415e-10
4.4715e-10
4.12926e-10
3.54517e-10
3.26718e-10
2.78998e-10
2.56154e-10
2.16667e-10
1.97631e-10
1.64447e-10
1.48331e-10
1.2e-10
1.06259e-10
8.21576e-11
7.07198e-11
5.11848e-11
4.22128e-11
2.75095e-11
2.09024e-11
1.04092e-11
6.51242e-12
2.13591e-12
9.28443e-13
6.35364e-13
5.65673e-13
5.49966e-13
3.39985e-05
8.50626e-06
2.73493e-06
8.0242e-07
3.44732e-07
1.799e-07
1.38364e-07
1.13222e-07
1.04629e-07
8.96939e-08
7.66052e-08
7.18193e-08
6.23273e-08
5.86357e-08
5.06923e-08
4.76118e-08
4.10003e-08
3.84499e-08
3.30114e-08
3.09221e-08
2.64893e-08
2.47916e-08
2.12029e-08
1.98314e-08
1.69403e-08
1.58371e-08
1.35163e-08
1.26317e-08
1.07735e-08
1.00658e-08
8.58083e-09
8.01569e-09
6.83068e-09
6.37993e-09
5.43539e-09
5.07626e-09
4.32409e-09
4.0382e-09
3.4397e-09
3.21229e-09
2.73639e-09
2.55561e-09
2.17742e-09
2.03378e-09
1.73335e-09
1.61923e-09
1.38055e-09
1.28967e-09
1.09905e-09
1.02264e-09
8.52463e-10
7.07344e-10
6.55951e-10
5.58546e-10
5.21554e-10
4.44271e-10
4.14686e-10
3.52202e-10
3.2817e-10
2.77118e-10
2.5737e-10
2.15123e-10
1.98666e-10
1.6316e-10
1.49227e-10
1.189e-10
1.07018e-10
8.12022e-11
7.1311e-11
5.03863e-11
4.26284e-11
2.68963e-11
2.11815e-11
9.90537e-12
6.53582e-12
1.89035e-12
8.53152e-13
6.16585e-13
5.61095e-13
5.48621e-13
3.67648e-05
6.51403e-06
2.21555e-06
6.11815e-07
3.01568e-07
1.63911e-07
1.35581e-07
1.11295e-07
1.05185e-07
8.94727e-08
7.5723e-08
7.22452e-08
6.17437e-08
5.90349e-08
5.02055e-08
4.79432e-08
4.05933e-08
3.87204e-08
3.26754e-08
3.11412e-08
2.62148e-08
2.49681e-08
2.09802e-08
1.99731e-08
1.67606e-08
1.59506e-08
1.33719e-08
1.27224e-08
1.06578e-08
1.01382e-08
8.48835e-09
8.07339e-09
6.75685e-09
6.42589e-09
5.37652e-09
5.11283e-09
4.27719e-09
4.06728e-09
3.40238e-09
3.2354e-09
2.70671e-09
2.57397e-09
2.15382e-09
2.04836e-09
1.7146e-09
1.63082e-09
1.36569e-09
1.29898e-09
1.0877e-09
1.03191e-09
8.49696e-10
6.97347e-10
6.60023e-10
5.5243e-10
5.25297e-10
4.39479e-10
4.17758e-10
3.48345e-10
3.307e-10
2.73982e-10
2.59482e-10
2.12545e-10
2.00461e-10
1.61008e-10
1.50776e-10
1.17061e-10
1.08334e-10
7.96089e-11
7.23427e-11
4.90604e-11
4.33625e-11
2.58822e-11
2.16828e-11
9.08508e-12
6.61015e-12
1.50039e-12
7.45805e-13
5.90546e-13
5.54785e-13
5.46771e-13
4.07411e-05
3.48366e-06
1.58836e-06
3.69455e-07
2.51493e-07
1.43545e-07
1.32633e-07
1.0864e-07
1.06125e-07
8.91723e-08
7.44293e-08
7.29515e-08
6.08479e-08
5.96785e-08
4.94555e-08
4.84777e-08
3.9967e-08
3.91575e-08
3.21588e-08
3.14957e-08
2.57929e-08
2.52541e-08
2.06381e-08
2.02029e-08
1.64848e-08
1.61347e-08
1.31503e-08
1.28696e-08
1.04803e-08
1.02557e-08
8.3464e-09
8.16709e-09
6.64354e-09
6.50053e-09
5.28618e-09
5.17224e-09
4.20524e-09
4.11453e-09
3.34511e-09
3.27296e-09
2.66116e-09
2.60381e-09
2.11763e-09
2.07205e-09
1.68585e-09
1.64965e-09
1.34289e-09
1.31407e-09
1.07012e-09
1.04624e-09
8.45728e-10
6.82743e-10
6.669e-10
5.43091e-10
5.31385e-10
4.32119e-10
4.22735e-10
3.42414e-10
3.3479e-10
2.69156e-10
2.6289e-10
2.08571e-10
2.03349e-10
1.57686e-10
1.53264e-10
1.14221e-10
1.10448e-10
7.71565e-11
7.40146e-11
4.70308e-11
4.45676e-11
2.43365e-11
2.25199e-11
7.85978e-12
6.78981e-12
9.36194e-13
6.14465e-13
5.59717e-13
5.47359e-13
5.44596e-13
1.95268e-07
1.74618e-07
1.71462e-07
1.30131e-07
1.26256e-07
9.2329e-08
8.93384e-08
6.59356e-08
6.3803e-08
4.7399e-08
3.55647e-08
3.44524e-08
2.64189e-08
2.56859e-08
1.98001e-08
1.92627e-08
1.48811e-08
1.448e-08
1.11912e-08
1.08896e-08
8.40992e-09
8.18229e-09
6.30848e-09
6.13644e-09
4.71961e-09
4.58957e-09
3.51889e-09
3.42067e-09
2.61276e-09
2.53872e-09
1.93043e-09
1.87475e-09
1.41811e-09
1.37637e-09
1.0348e-09
1.00363e-09
7.49237e-10
7.26079e-10
5.37595e-10
5.2048e-10
3.81698e-10
3.69135e-10
2.67711e-10
2.58563e-10
1.85109e-10
1.78513e-10
1.25897e-10
1.21192e-10
8.39806e-11
8.0565e-11