/*--------------------------------*- C++ -*----------------------------------*\
| =========                 |                                                 |
| \\      /  F ield         | OpenFOAM: The Open Source CFD Toolbox           |
|  \\    /   O peration     | Version:  5.x                                   |
|   \\  /    A nd           | Web:      www.OpenFOAM.org                      |
|    \\/     M anipulation  |                                                 |
\*---------------------------------------------------------------------------*/
FoamFile
{
    version     2.0;
    format      ascii;
    class       volScalarField;
    location    "15.9";
    object      gradTy;
}
// * * * * * * * * * * * * * * * * * * * * * * * * * * * * * * * * * * * * * //

dimensions      [0 -1 0 1 0 0 0];

internalField   nonuniform List<scalar> 
6300
(
998.448
995.473
992.889
990.947
989.895
989.963
991.363
994.279
998.864
1005.22
1013.41
1023.43
1035.2
1048.6
1063.42
-0.195465
-0.583924
-0.964712
-1.33185
-1.67814
-1.9948
-2.27139
-2.49592
-2.65543
-2.73718
-2.73022
-2.6275
-2.42802
-2.13844
-1.77358
-0.328531
-0.981763
-1.62306
-2.24297
-2.82984
-3.36923
-3.84352
-4.23205
-4.51205
-4.66039
-4.65655
-4.48642
-4.14654
-3.64753
-3.0154
-0.465414
-1.39152
-2.3028
-3.18711
-4.02903
-4.80877
-5.50139
-6.07674
-6.50032
-6.73578
-6.74916
-6.5151
-6.02419
-5.28973
-4.35104
-0.607014
-1.81611
-3.00949
-4.17361
-5.29037
-6.33538
-7.2765
-8.07312
-8.67666
-9.0332
-9.08917
-8.80057
-8.14532
-7.13608
-5.82828
-0.753551
-2.25641
-3.74542
-5.20745
-6.62345
-7.96585
-9.19609
-10.2626
-11.1
-11.6312
-11.7737
-11.4527
-10.6205
-9.28099
-7.50867
-0.904316
-2.71056
-4.5083
-6.28729
-8.03008
-9.70844
-11.2794
-12.681
-13.8294
-14.6177
-14.9218
-14.6158
-13.6028
-11.8586
-9.47668
-1.05746
-3.17319
-5.28989
-7.4033
-9.5011
-11.5584
-13.5319
-15.3527
-16.9189
-18.0884
-18.6798
-18.4859
-17.3161
-15.074
-11.8583
-1.20981
-3.63483
-6.07475
-8.53487
-11.0126
-13.4921
-15.9369
-18.2791
-20.4047
-22.1373
-23.2229
-23.3316
-22.1016
-19.263
-14.859
-1.35674
-4.08155
-6.83937
-9.64881
-12.5222
-15.4604
-18.4445
-21.4218
-24.2835
-26.833
-28.7427
-29.516
-28.4955
-25.0174
-18.8535
-1.49235
-4.49522
-7.55234
-10.6988
-13.9669
-17.3828
-20.9589
-24.6798
-28.4745
-32.1682
-35.3987
-37.4941
-37.3468
-33.4577
-24.6326
-1.60979
-4.85463
-8.17595
-11.6269
-15.2637
-19.1447
-23.3285
-27.8636
-32.7664
-37.9666
-43.1895
-47.7145
-49.9398
-46.8339
-34.2066
-1.70196
-5.13753
-8.66983
-12.3693
-16.316
-20.604
-25.3464
-30.6797
-36.7607
-43.7418
-51.6779
-60.2345
-67.8638
-69.7315
-53.887
-1.76246
-5.32368
-8.99645
-12.8645
-17.027
-21.6085
-26.7734
-32.748
-39.8545
-48.5618
-59.5456
-73.6814
-91.5488
-110.341
-107.886
-1.78665
-5.39822
-9.12778
-13.0651
-17.3188
-22.0295
-27.3906
-33.6841
-41.3472
-51.1051
-64.2607
-83.3964
-114.308
-172.197
-304.985
1078.09
1092.07
1106.51
1121.25
1136.11
1150.92
1165.55
1179.86
1193.73
1207.07
1219.79
1231.83
1243.13
1253.66
1263.37
1272.24
1280.26
1287.41
1293.67
1299.06
1303.56
1307.18
1309.92
1311.79
1312.8
1312.96
1312.27
1310.75
1308.42
1305.28
1301.35
1296.64
1291.17
1284.95
1277.99
1270.3
1261.9
1252.8
1243.02
1232.55
1221.43
1209.65
1197.24
1184.21
1170.56
1156.33
1141.51
1126.12
1110.18
1093.7
1076.69
1059.15
1041.1
1022.55
1003.51
983.993
964.008
943.57
922.694
901.397
879.697
857.613
835.163
812.367
789.247
765.824
742.122
718.165
693.981
669.601
645.06
620.398
595.659
570.893
546.153
521.499
496.991
472.694
448.674
424.996
401.725
378.924
356.652
334.966
313.914
293.54
273.881
254.963
236.805
219.414
-1.39003
-1.02055
-0.645474
-0.278794
0.0678417
0.385829
0.669783
0.917297
1.12842
1.30501
1.45008
1.56724
1.66026
1.73271
1.78783
1.82843
1.85685
1.87503
1.88457
1.88677
1.88273
1.87334
1.85941
1.84163
1.82062
1.79695
1.77118
1.74382
1.71538
1.68635
1.65714
1.62814
1.59961
1.57169
1.54442
1.51765
1.49117
1.46466
1.43779
1.41029
1.38199
1.35286
1.32308
1.29296
1.26297
1.23361
1.20535
1.17857
1.15342
1.12981
1.1074
1.08561
1.06369
1.04084
1.01627
0.989365
0.959728
0.927225
0.891977
0.854292
0.814563
0.773139
0.730188
0.685584
0.638836
0.589066
0.535058
0.475362
0.408454
0.332918
0.247635
0.151939
0.045731
-0.0704743
-0.195567
-0.32792
-0.465503
-0.606023
-0.747047
-0.886104
-1.02074
-1.14854
-1.26712
-1.37408
-1.46707
-1.5438
-1.60219
-1.64056
-1.65784
-1.65374
-2.35
-1.70998
-1.06251
-0.432797
0.158669
0.697266
1.1744
1.58689
1.93582
2.22535
2.46139
2.65069
2.79999
2.91557
3.00297
3.06686
3.11111
3.13887
3.15267
3.1546
3.14639
3.12949
3.10516
3.07452
3.03858
2.99826
2.95447
2.90807
2.85991
2.81082
2.76157
2.7128
2.66501
2.61846
2.57319
2.52896
2.48532
2.44165
2.39732
2.35175
2.3046
2.2558
2.20564
2.15473
2.10393
2.05424
2.00658
1.96168
1.9199
1.8811
1.84467
1.80954
1.77431
1.73745
1.6975
1.65329
1.60411
1.54975
1.49052
1.42709
1.36033
1.29103
1.21965
1.1461
1.06958
0.988575
0.900869
0.803803
0.694542
0.57043
0.429348
0.270011
0.092177
-0.103267
-0.314351
-0.538174
-0.77114
-1.00922
-1.24821
-1.48389
-1.71215
-1.92897
-2.13041
-2.31246
-2.47108
-2.60227
-2.70225
-2.76791
-2.79716
-2.78939
-3.36065
-2.41024
-1.45413
-0.531882
0.325461
1.09703
1.77193
2.34778
2.82858
3.22247
3.53979
3.79148
3.98802
4.13877
4.25169
4.33332
4.38888
4.42254
4.43761
4.43678
4.42229
4.39606
4.35973
4.31479
4.26256
4.20431
4.14124
4.07457
4.00551
3.93527
3.86502
3.79578
3.72834
3.66313
3.60021
3.53916
3.47922
3.41934
3.35835
3.29524
3.22933
3.16045
3.08903
3.01608
2.94306
2.87169
2.80359
2.74008
2.68184
2.62876
2.57986
2.5334
2.48707
2.4383
2.38464
2.32418
2.25574
2.1791
2.09491
2.0045
1.90957
1.81173
1.71206
1.61071
1.50665
1.39757
1.28001
1.14966
1.00187
0.832247
0.637222
0.414597
0.163868
-0.113647
-0.414891
-0.735356
-1.0695
-1.4112
-1.75421
-2.09243
-2.42008
-2.73163
-3.02165
-3.28461
-3.51465
-3.7057
-3.85179
-3.94771
-3.98984
-3.97691
-4.44325
-3.11854
-1.79681
-0.537322
0.615961
1.63619
2.51231
3.24577
3.84668
4.33007
4.71291
5.01191
5.2422
5.41665
5.5457
5.63753
5.69842
5.7332
5.74566
5.73885
5.71536
5.6774
5.62696
5.56578
5.49547
5.41754
5.33346
5.24476
5.15304
5.05999
4.96728
4.87644
4.7887
4.70478
4.62476
4.54803
4.47332
4.39886
4.32269
4.24301
4.15858
4.069
3.97486
3.87776
3.78008
3.68464
3.59424
3.51113
3.43659
3.37061
3.31175
3.25731
3.20356
3.14638
3.08181
3.00674
2.91939
2.81953
2.70843
2.58861
2.46319
2.33525
2.20706
2.07939
1.9511
1.81894
1.67771
1.52077
1.3408
1.13078
0.884977
0.599789
0.27426
-0.0897279
-0.487629
-0.912726
-1.35685
-1.81118
-2.26699
-2.7161
-3.15109
-3.56517
-3.95179
-4.30405
-4.61427
-4.87379
-5.07348
-5.20488
-5.26173
-5.24149
-5.6203
-3.82253
-2.04988
-0.389796
1.0981
2.38295
3.45819
4.33473
5.0341
5.58256
6.00682
6.33134
6.57686
6.75999
6.89338
6.98636
7.04562
7.0761
7.08154
7.06505
7.02934
6.97683
6.90974
6.83003
6.73948
6.63973
6.53245
6.41941
6.30262
6.18434
6.06695
5.95277
5.84369
5.74093
5.6447
5.55412
5.46717
5.38097
5.2922
5.19776
5.0954
4.98425
4.8651
4.74042
4.614
4.49048
4.37452
4.26998
4.17916
4.10232
4.03743
3.98032
3.92514
3.86522
3.79421
3.70713
3.60119
3.47624
3.33466
3.18089
3.02054
2.85925
2.70141
2.54908
2.40123
2.25346
2.09814
1.92516
1.72311
1.48093
1.18955
0.843173
0.440135
-0.0168734
-0.521107
-1.0626
-1.6294
-2.20895
-2.78933
-3.36001
-3.91212
-4.43818
-4.9313
-5.38397
-5.78682
-6.12794
-6.39345
-6.56934
-6.64453
-6.61399
-6.91397
-4.49018
-2.14067
0.00586638
1.87285
3.43182
4.69049
5.67917
6.4392
7.01426
7.44478
7.76495
8.00178
8.17535
8.29969
8.38415
8.43474
8.45548
8.44945
8.41939
8.36796
8.29775
8.21118
8.11039
7.99721
7.87328
7.74023
7.59996
7.45487
7.30792
7.16254
7.02225
6.89011
6.76819
6.65705
6.5555
6.46047
6.36731
6.27042
6.16443
6.04538
5.91151
5.76384
5.60606
5.44426
5.28594
5.13886
5.00954
4.90207
4.81729
4.75239
4.70102
4.65398
4.6005
4.5302
4.43508
4.3108
4.15734
3.97886
3.78304
3.57965
3.37869
3.18823
3.01269
2.85162
2.6992
2.54436
2.37174
2.16353
1.90227
1.57362
1.16845
0.684023
0.124271
-0.500653
-1.17576
-1.88331
-2.60528
-3.3254
-4.03042
-4.71042
-5.35842
-5.96887
-6.53546
-7.04806
-7.4908
-7.8423
-8.07868
-8.17943
-8.13445
-8.34297
-5.05073
-1.93905
0.804201
3.09124
4.91331
6.31183
7.35317
8.11097
8.65449
9.04202
9.31897
9.51823
9.662
9.76387
9.83117
9.86727
9.87387
9.85244
9.805
9.73413
9.64273
9.53361
9.4091
9.27096
9.1205
8.95895
8.78802
8.61034
8.42979
8.25136
8.08056
7.9224
7.78047
7.65615
7.54806
7.45167
7.35957
7.26229
7.1505
7.01724
6.85924
6.67767
6.47808
6.27005
6.06577
5.87817
5.71817
5.59287
5.50416
5.44838
5.41602
5.39261
5.36048
5.30244
5.20552
5.06292
4.87492
4.64849
4.39656
4.13573
3.88344
3.65399
3.45589
3.28997
3.14883
3.01658
2.86993
2.68072
2.42099
2.06822
1.6082
1.03672
0.359595
-0.407603
-1.2419
-2.11614
-3.00396
-3.88291
-4.73656
-5.55456
-6.33244
-7.06937
-7.76442
-8.40969
-8.98483
-9.45672
-9.78315
-9.92397
-9.85849
-9.91086
-5.35124
-1.20689
2.25939
4.97898
7.00449
8.44732
9.4353
10.0912
10.5193
10.7985
10.9848
11.1145
11.209
11.2778
11.3231
11.3423
11.3326
11.2929
11.2243
11.1298
11.0132
10.8782
10.7275
10.5625
10.3837
10.1912
9.98584
9.76998
9.54867
9.32923
9.12072
8.93135
8.76748
8.63195
8.52381
8.43678
8.35935
8.27513
8.16756
8.02481
7.84098
7.61752
7.36233
7.09052
6.82167
6.57784
6.37694
6.23106
6.14373
6.11072
6.11824
6.1439
6.15785
6.13073
6.04182
5.8805
5.6479
5.35494
5.02298
4.67958
4.35539
4.07469
3.85284
3.69271
3.58577
3.50963
3.4295
3.29954
3.07379
2.71735
2.20854
1.5416
0.724712
-0.21784
-1.25044
-2.3293
-3.4153
-4.47673
-5.4939
-6.45633
-7.36527
-8.23003
-9.0649
-9.87218
-10.6274
-11.2805
-11.7548
-11.9654
-11.8689
-11.5672
-5.05393
0.501478
4.78949
7.8656
9.93393
11.2369
11.9946
12.3987
12.5974
12.6876
12.7314
12.7607
12.792
12.8247
12.8517
12.8578
12.8337
12.7739
12.68
12.5563
12.4093
12.2444
12.0653
11.8728
11.6657
11.441
11.1977
10.9364
10.6638
10.3903
10.1323
9.90257
9.71267
9.5673
9.46817
9.4071
9.36792
9.32064
9.2343
9.09057
8.87883
8.60213
8.26959
7.90581
7.54066
7.21476
6.95563
6.78406
6.70422
6.7139
6.7935
6.91124
7.01357
7.04721
6.98163
6.79993
6.50707
6.11677
5.66517
5.19504
4.76403
4.40997
4.16028
4.01825
3.97773
4.00783
4.06025
4.05575
3.91421
3.58535
3.03607
2.2619
1.27032
0.101151
-1.19278
-2.53255
-3.86234
-5.13458
-6.33033
-7.43534
-8.46189
-9.43388
-10.4052
-11.4097
-12.417
-13.3616
-14.106
-14.4491
-14.2982
-13.0645
-3.37775
4.03441
9.06444
12.203
13.9649
14.8104
15.0622
15.0008
14.8306
14.6425
14.4975
14.4029
14.3715
14.3786
14.4091
14.4157
14.3849
14.3024
14.1772
14.0151
13.8297
13.6297
13.4208
13.203
12.9713
12.7163
12.434
12.1178
11.7789
11.4277
11.1017
10.815
10.5923
10.4346
10.3563
10.3445
10.3867
10.421
10.3823
10.2529
10.0089
9.6658
9.22047
8.72176
8.20182
7.75425
7.40696
7.20369
7.13456
7.21516
7.41262
7.69957
7.96704
8.10539
8.08749
7.87833
7.50544
6.96577
6.33296
5.65314
5.06086
4.59393
4.31173
4.19668
4.26706
4.47299
4.77209
5.00845
5.02355
4.76998
4.18667
3.29456
2.07094
0.599128
-1.06972
-2.75078
-4.39277
-5.90305
-7.29787
-8.5277
-9.63739
-10.639
-11.6979
-12.9437
-14.2967
-15.7314
-17.0349
-17.6444
-17.373
-13.3673
1.57336
10.9969
16.063
18.5233
19.3159
19.2398
18.5814
17.7606
17.0904
16.536
16.1918
15.9549
15.8964
15.8998
16.0018
16.0283
16.0113
15.8937
15.7285
15.5084
15.2722
15.0291
14.7904
14.5541
14.3117
14.0321
13.7203
13.333
12.9127
12.4302
12.0159
11.6364
11.3795
11.189
11.15
11.2051
11.4184
11.6275
11.6622
11.5815
11.2828
10.8779
10.2494
9.56953
8.75997
8.15056
7.6521
7.43137
7.35044
7.54928
7.90402
8.51704
9.10753
9.38964
9.46984
9.19354
8.74505
7.94994
7.0695
5.98618
5.17822
4.51285
4.22345
4.10898
4.36211
4.80484
5.57509
6.28056
6.52055
6.43021
5.78269
4.80537
3.22973
1.38159
-0.928311
-3.02452
-5.11217
-6.83708
-8.50237
-9.79246
-10.968
-11.761
-12.7209
-14.3225
-16.0586
-18.2896
-20.9627
-22.1078
-21.5036
-7.90381
14.4692
24.2339
26.8129
27.2441
25.9176
24.5072
22.3343
20.3029
19.1834
18.1262
17.7316
17.2496
17.3321
17.2786
17.7029
17.7033
17.7823
17.5533
17.3588
17.0246
16.7243
16.4219
16.1561
15.914
15.7054
15.3939
15.1152
14.5955
14.1359
13.3342
12.8798
12.2813
12.0709
11.7248
11.8081
11.8378
12.4559
13.0852
13.108
13.2238
12.7095
12.412
11.3523
10.6039
9.02982
8.38699
7.49722
7.45764
7.16337
7.65883
8.02343
9.36684
10.692
10.9645
11.3655
10.7566
10.4837
9.05692
8.09812
5.92262
5.0902
3.89032
3.88326
3.49189
4.18408
4.66502
6.47135
8.22289
8.49316
8.89271
7.85356
7.17771
4.78088
2.82898
-1.0946
-3.31056
-6.35383
-7.85688
-10.247
-11.222
-12.8493
-12.6425
-12.8197
-15.5076
-17.1075
-20.2108
-27.0903
-29.0902
-27.4536
25.5388
45.5213
47.8184
40.6555
38.4955
32.6391
30.8717
25.8829
21.531
21.186
18.7616
19.3964
17.7308
18.9628
17.9683
20.014
19.264
19.9962
19.1622
19.1893
18.4913
18.1787
17.7609
17.4867
17.225
17.2465
16.7076
16.8563
15.7706
15.8509
13.7371
13.9502
12.3664
12.9568
11.6414
12.5427
11.6223
13.4765
15.4156
14.4189
15.7727
13.823
15.043
12.0062
12.8262
7.95799
8.97829
6.11731
7.84997
5.83838
7.95613
6.73264
10.2423
13.7915
12.3539
14.7145
11.8353
13.8832
9.48938
10.8781
3.92444
5.53073
1.54955
4.09593
1.31394
4.30973
2.61612
7.44598
12.2977
10.2791
13.4265
9.4008
12.0278
5.6909
7.11518
-3.72023
-2.40556
-9.81373
-7.59944
-14.0298
-11.7125
-17.3716
-12.9713
-9.30305
-18.2593
-15.9917
-16.6942
-40.2445
-41.3091
-36.6397
204.871
102.039
85.0248
47.2934
55.0694
33.4726
41.8749
28.5143
16.9895
26.1831
14.9921
24.3739
14.0398
23.8
14.2805
26.3509
18.6906
24.4658
19.5313
22.0641
19.4031
19.785
18.8937
18.7995
18.1285
19.5947
17.0317
20.3752
15.267
20.726
10.7897
17.6087
9.32122
16.5874
8.36653
15.901
7.41181
14.3754
21.9737
12.3455
23.0789
10.3727
23.8042
7.10681
23.24
-1.59281
15.1591
-1.87695
13.6345
-1.43236
13.0653
-1.37335
11.061
24.0726
8.27405
25.6093
5.81923
26.559
1.59536
25.6717
-10.3997
14.0176
-10.1905
11.9818
-9.18359
11.1885
-8.82618
8.38938
26.2662
4.62632
28.2895
1.36849
29.7861
-4.57489
29.0556
-23.8416
11.0607
-27.1296
5.10659
-30.4085
-0.71677
-36.3789
-12.2458
12.3933
-37.1733
-10.5983
19.7234
-85.7775
-61.7841
-52.0091
201.128
182.263
164.445
147.619
131.718
116.665
102.378
88.7737
75.7644
63.2651
51.1921
39.4639
28.0009
16.7259
5.56287
-1.62635
-1.56882
-1.4876
-1.38756
-1.27381
-1.15116
-1.02374
-0.894837
-0.766787
-0.641083
-0.518476
-0.399123
-0.282722
-0.168646
-0.0560465
-2.74121
-2.64095
-2.50023
-2.32784
-2.13291
-1.92389
-1.70791
-1.49046
-1.27538
-1.06504
-0.860519
-0.661928
-0.468624
-0.279437
-0.0928498
-3.90378
-3.75354
-3.5445
-3.29063
-3.00608
-2.70358
-2.39353
-2.08369
-1.77924
-1.48316
-1.19663
-0.919441
-0.650405
-0.387625
-0.128764
-5.13675
-4.92487
-4.63356
-4.28407
-3.89716
-3.49078
-3.07892
-2.6715
-2.27471
-1.89172
-1.52337
-1.16879
-0.825921
-0.491891
-0.163345
-6.46728
-6.17557
-5.78076
-5.31487
-4.80767
-4.28341
-3.75985
-3.24865
-2.75634
-2.28562
-1.83633
-1.40643
-0.992585
-0.590666
-0.196067
-7.92935
-7.52929
-6.99896
-6.38693
-5.73517
-5.07528
-4.4284
-3.80686
-3.21638
-2.65804
-2.12988
-1.62799
-1.14731
-0.682115
-0.226321
-9.56758
-9.01314
-8.29875
-7.49862
-6.67072
-5.85409
-5.07155
-4.33396
-3.64423
-3.00027
-2.39714
-1.82833
-1.28654
-0.764153
-0.253422
-11.4427
-10.6568
-9.68415
-8.63797
-7.59491
-6.59874
-5.66968
-4.81317
-4.02625
-3.30163
-2.63005
-2.00161
-1.40635
-0.834527
-0.276635
-13.6389
-12.487
-11.143
-9.77408
-8.4721
-7.27619
-6.19519
-5.22273
-4.34594
-3.5499
-2.8198
-2.1417
-1.50272
-0.890956
-0.295221
-16.2677
-14.5093
-12.6266
-10.8432
-9.24312
-7.83863
-6.61208
-5.53657
-4.58481
-3.73219
-2.95752
-2.24264
-1.57186
-0.931346
-0.308511
-19.4488
-16.6558
-14.0107
-11.7289
-9.81844
-8.22304
-6.87785
-5.72661
-4.72447
-3.8365
-3.03542
-2.29944
-1.61071
-0.954047
-0.315983
-23.1811
-18.654
-15.0312
-12.2431
-10.0786
-8.35715
-6.94959
-5.76747
-4.74989
-3.85389
-3.04817
-2.30896
-1.61748
-0.958137
-0.317356
-26.7796
-19.7477
-15.2171
-12.1335
-9.89563
-8.17724
-6.79582
-5.64374
-4.65367
-3.78097
-2.99436
-2.27073
-1.59208
-0.943658
-0.312654
-26.653
-18.3399
-13.9557
-11.1779
-9.19312
-7.66028
-6.41262
-5.35792
-4.44002
-3.62191
-2.87754
-2.18749
-1.53645
-0.911744
-0.302254
-1.77667
-5.36745
-9.07369
-12.9832
-17.2026
-21.8697
-27.1747
-33.3956
-40.966
-50.6111
-63.6524
-82.7585
-114.012
-173.184
-306.176
-1.7389
-5.25103
-8.86873
-12.6714
-16.7538
-21.2354
-26.2756
-32.0969
-39.0229
-47.5401
-58.3859
-72.6045
-91.1079
-111.05
-104.14
-1.67729
-5.06127
-8.53526
-12.1654
-16.0276
-20.213
-24.834
-30.0309
-35.9747
-42.8516
-50.777
-59.4742
-67.2043
-67.5612
-41.946
-1.59524
-4.80897
-8.09331
-11.4981
-15.077
-18.8881
-22.9923
-27.4459
-32.2784
-37.435
-42.632
-47.0152
-48.4201
-42.1086
-20.2215
-1.49704
-4.50762
-7.56769
-10.7098
-13.965
-17.3595
-20.908
-24.5977
-28.3569
-31.9901
-35.0521
-36.6245
-34.9945
-27.472
-11.3829
-1.38736
-4.17189
-6.98504
-9.84297
-12.7562
-15.724
-18.7254
-21.701
-24.5227
-26.9415
-28.5062
-28.4576
-25.661
-18.7842
-7.1809
-1.27088
-3.81626
-6.37126
-8.93771
-11.5093
-14.0652
-16.5607
-18.9111
-20.9682
-22.4861
-23.0803
-22.1988
-19.1609
-13.3785
-4.89447
-1.15186
-3.45393
-5.7495
-8.02887
-10.2731
-12.4483
-14.4966
-16.3249
-17.7881
-18.672
-18.679
-17.4372
-14.5666
-9.84895
-3.51418
-1.03398
-3.09608
-5.13896
-7.14436
-9.08496
-10.9194
-12.5854
-13.992
-15.0103
-15.4668
-15.1448
-13.8068
-11.2548
-7.44234
-2.61554
-0.920184
-2.75155
-4.55444
-6.30479
-7.97048
-9.5073
-10.8543
-11.9287
-12.6226
-12.8022
-12.3162
-11.0193
-8.81838
-5.74009
-1.99764
-0.812629
-2.42679
-4.00637
-5.52397
-6.94546
-8.22704
-9.31225
-10.1296
-10.5921
-10.5998
-10.0506
-8.85949
-6.9912
-4.49904
-1.55529
-0.712777
-2.12603
-3.50132
-4.80985
-6.01755
-7.08308
-7.95619
-8.57702
-8.87718
-8.78417
-8.23065
-7.16995
-5.59723
-3.57158
-1.22879
-0.621463
-1.85161
-3.04262
-4.16574
-5.18834
-6.0727
-6.77528
-7.24702
-7.43527
-7.28826
-6.76288
-5.83594
-4.51776
-2.86434
-0.982001
-0.539019
-1.60436
-2.63105
-3.5914
-4.45511
-5.18853
-5.75465
-6.11385
-6.22613
-6.05507
-5.57394
-4.7736
-3.67107
-2.31606
-0.791914
-0.465388
-1.38396
-2.26552
-3.08416
-3.81232
-4.42051
-4.87766
-5.15211
-5.21372
-5.03718
-4.60663
-3.92109
-2.99971
-1.8852
-0.64327
-0.40023
-1.18924
-1.94367
-2.63975
-3.25281
-3.75736
-4.12753
-4.33815
-4.36665
-4.19566
-3.81638
-3.23232
-2.46244
-1.54284
-0.525597
-0.343022
-1.01853
-1.66233
-2.25296
-2.76865
-3.18752
-3.48816
-3.65065
-3.65811
-3.49875
-3.16833
-2.67258
-2.02915
-1.26826
-0.431503
-0.293127
-0.86984
-1.41791
-1.91821
-2.35171
-2.69976
-2.94471
-3.07078
-3.06538
-2.92061
-2.63506
-2.21537
-1.6774
-1.04635
-0.355638
-0.249855
-0.741033
-1.20665
-1.62985
-1.99409
-2.28359
-2.48379
-2.58221
-2.56942
-2.44023
-2.19493
-1.8403
-1.39029
-0.86587
-0.294051
-0.212507
-0.62997
-1.02486
-1.3824
-1.68837
-1.92941
-2.09354
-2.17085
-2.15427
-2.04047
-1.8307
-1.53146
-1.15485
-0.718299
-0.243771
-0.180403
-0.534582
-0.86898
-1.17077
-1.42774
-1.62863
-1.76357
-1.82467
-1.80663
-1.70735
-1.52859
-1.27635
-0.961014
-0.597099
-0.202527
-0.152901
-0.452927
-0.735742
-0.990265
-1.20605
-1.37363
-1.48486
-1.53346
-1.51539
-1.42942
-1.27751
-1.06505
-0.800911
-0.497186
-0.168561
-0.129409
-0.383223
-0.622146
-0.836651
-1.01784
-1.15774
-1.24966
-1.28852
-1.27129
-1.19728
-1.06846
-0.88962
-0.668297
-0.41456
-0.140496
-0.10939
-0.323858
-0.525504
-0.706169
-0.85829
-0.975174
-1.05128
-1.08254
-1.06661
-1.00319
-0.894155
-0.743688
-0.558189
-0.346049
-0.117241
-0.0923653
-0.273395
-0.44343
-0.595505
-0.723207
-0.820918
-0.884054
-0.909317
-0.894915
-0.840765
-0.748614
-0.622081
-0.46658
-0.289111
-0.0979249
-0.0779101
-0.230565
-0.373826
-0.501762
-0.608947
-0.690666
-0.743121
-0.763632
-0.750816
-0.704727
-0.626946
-0.520588
-0.390223
-0.241696
-0.0818475
-0.0656522
-0.194259
-0.314862
-0.422428
-0.51237
-0.580733
-0.624367
-0.641088
-0.629819
-0.590694
-0.52512
-0.435763
-0.326476
-0.202142
-0.0684408
-0.0552672
-0.163509
-0.264951
-0.355329
-0.430774
-0.48797
-0.5243
-0.537979
-0.528162
-0.495027
-0.439806
-0.364775
-0.273178
-0.169092
-0.0572424
-0.0464744
-0.137479
-0.222723
-0.298599
-0.361849
-0.409694
-0.43996
-0.451182
-0.442696
-0.414693
-0.368247
-0.30529
-0.22855
-0.141434
-0.0478733
-0.0390311
-0.11545
-0.186999
-0.250635
-0.303619
-0.343625
-0.368842
-0.37807
-0.37078
-0.347165
-0.308151
-0.255374
-0.191126
-0.118251
-0.040022
-0.0327291
-0.0968011
-0.156768
-0.210068
-0.254401
-0.287822
-0.308827
-0.316426
-0.3102
-0.29033
-0.257611
-0.213425
-0.159691
-0.0987852
-0.0334309
-0.0273896
-0.0810031
-0.131165
-0.175727
-0.21276
-0.24064
-0.258119
-0.264381
-0.259091
-0.242417
-0.215033
-0.178104
-0.133236
-0.0824082
-0.0278866
-0.0228593
-0.0676013
-0.109452
-0.146612
-0.177473
-0.200681
-0.215199
-0.220358
-0.215888
-0.201939
-0.179083
-0.148296
-0.110918
-0.0685963
-0.0232113
-0.0190073
-0.056207
-0.090995
-0.121872
-0.1475
-0.166754
-0.178778
-0.183021
-0.179265
-0.167644
-0.148639
-0.123064
-0.0920328
-0.0569113
-0.0192564
-0.015721
-0.0464871
-0.0752533
-0.100778
-0.121951
-0.137847
-0.147759
-0.151237
-0.148104
-0.138477
-0.122758
-0.101621
-0.0759874
-0.0469854
-0.0158972
-0.0129039
-0.0381558
-0.0617626
-0.0827033
-0.100068
-0.113095
-0.121209
-0.124041
-0.121453
-0.11354
-0.100637
-0.0832989
-0.0622812
-0.0385078
-0.0130285
-0.0104729
-0.0309667
-0.050123
-0.0671121
-0.081195
-0.0917552
-0.0983256
-0.10061
-0.0984972
-0.0920688
-0.0815964
-0.0675318
-0.0504885
-0.0312148
-0.0105607
-0.00835584
-0.0247063
-0.0399881
-0.0535387
-0.0647683
-0.0731853
-0.0784181
-0.0802314
-0.0785384
-0.0734052
-0.0650496
-0.0538329
-0.0402443
-0.0248802
-0.00841735
-0.00648957
-0.0191878
-0.0310552
-0.0415768
-0.0502943
-0.0568264
-0.0608847
-0.0622875
-0.0609682
-0.0569788
-0.0504894
-0.0417808
-0.0312329
-0.0193084
-0.00653222
-0.00481832
-0.0142462
-0.0230568
-0.0308674
-0.0373378
-0.042185
-0.0451952
-0.0462337
-0.0452517
-0.0422884
-0.0374702
-0.0310058
-0.0231773
-0.014328
-0.00484725
-0.003292
-0.00973333
-0.0157527
-0.0210885
-0.0255085
-0.0288191
-0.0308745
-0.0315829
-0.030911
-0.0288858
-0.0255939
-0.0211778
-0.0158304
-0.00978612
-0.00331067
-0.00186475
-0.00551343
-0.00892308
-0.0119456
-0.0144493
-0.0163247
-0.0174891
-0.0178905
-0.0175099
-0.0163628
-0.0144981
-0.0119966
-0.00896748
-0.00554356
-0.00187541
-0.000493602
-0.00145948
-0.00236229
-0.00316291
-0.00382651
-0.00432403
-0.00463347
-0.00474091
-0.00464115
-0.00433806
-0.00384447
-0.0031817
-0.00237865
-0.00147059
-0.000497528
0.000862738
0.00255066
0.00412753
0.00552463
0.006681
0.00754607
0.00808187
0.00826476
0.00808643
0.0075544
0.00669167
0.00553579
0.00413724
0.00255725
0.000865071
0.00224515
0.0066379
0.0107422
0.0143793
0.0173907
0.0196448
0.0210422
0.0215212
0.0210596
0.0196765
0.0174313
0.0144217
0.0107791
0.00666298
0.00225402
0.00369529
0.0109254
0.0176811
0.0236684
0.0286264
0.0323381
0.0346403
0.0354307
0.0346725
0.032397
0.0287017
0.0237472
0.0177497
0.010972
0.00371177
0.00525683
0.0155424
0.0251535
0.0336722
0.0407273
0.0460101
0.0492881
0.0504152
0.049339
0.0461032
0.0408465
0.0337968
0.025262
0.0156161
0.00528289
0.00697673
0.0206278
0.0333843
0.0446921
0.0540587
0.061074
0.0654291
0.0669296
0.065505
0.0612126
0.054236
0.0448776
0.0335458
0.0207373
0.00701549
0.00890659
0.0263341
0.0426209
0.05706
0.0690225
0.077985
0.0835522
0.0854749
0.083662
0.0781856
0.0692793
0.0573284
0.0428547
0.0264928
0.00896272
0.0111042
0.0328325
0.0531404
0.0711473
0.0860693
0.0972534
0.104206
0.106614
0.104363
0.0975401
0.0864363
0.071531
0.0534746
0.0330593
0.0111845
0.0136352
0.0403171
0.0652575
0.0873764
0.105711
0.11946
0.128014
0.130988
0.128237
0.119867
0.106233
0.0879214
0.0657322
0.0406393
0.0137492
0.016575
0.0490108
0.0793337
0.106233
0.128538
0.145273
0.155697
0.159336
0.156012
0.14585
0.129276
0.107004
0.0800059
0.049467
0.0167363
0.0200105
0.0591714
0.0957874
0.128278
0.155232
0.175469
0.18809
0.19252
0.188536
0.176284
0.156275
0.129369
0.0967378
0.0598164
0.0202386
0.0240431
0.071099
0.115106
0.154167
0.18659
0.210952
0.22617
0.231544
0.2268
0.212104
0.188064
0.155709
0.116448
0.0720103
0.0243654
0.0287911
0.0851437
0.137857
0.184666
0.223543
0.252785
0.271084
0.277594
0.271974
0.254412
0.225626
0.186843
0.139753
0.0864307
0.0292463
0.0343926
0.101715
0.164708
0.220672
0.267187
0.302215
0.324183
0.332067
0.32544
0.304512
0.270127
0.223746
0.167385
0.103533
0.0350354
0.0410096
0.121294
0.196438
0.263237
0.318808
0.360712
0.387062
0.396614
0.388837
0.363955
0.322959
0.267578
0.200218
0.123859
0.0419171
0.0488313
0.14444
0.233964
0.313599
0.379917
0.430008
0.461603
0.473192
0.464109
0.434586
0.385777
0.319727
0.2393
0.148062
0.0501126
0.058079
0.171811
0.278355
0.373206
0.452294
0.512145
0.550034
0.564124
0.553572
0.518608
0.460566
0.381857
0.285889
0.176925
0.059888
0.0690108
0.204174
0.330863
0.443757
0.538027
0.60953
0.65499
0.672164
0.659983
0.618654
0.549705
0.45597
0.3415
0.211394
0.0715647
0.0819268
0.242422
0.39295
0.527239
0.639568
0.724998
0.779585
0.800585
0.786633
0.737878
0.656053
0.54448
0.407967
0.252615
0.0855326
0.0971749
0.287588
0.466313
0.625966
0.759785
0.86188
0.927499
0.953274
0.937448
0.88006
0.783056
0.650307
0.487513
0.301979
0.102266
0.115156
0.340869
0.552917
0.742632
0.902027
1.02409
1.10308
1.13485
1.11712
1.04975
0.934877
0.776994
0.582848
0.361189
0.122345
0.136331
0.403639
0.655026
0.880348
1.07019
1.2162
1.31144
1.35078
1.33126
1.25242
1.11656
0.928859
0.697287
0.432332
0.146482
0.161222
0.477462
0.775231
1.0427
1.26879
1.44356
1.55862
1.60759
1.58659
1.49468
1.33424
1.11118
0.834904
0.517981
0.175558
0.190421
0.56411
0.916476
1.23377
1.50302
1.71238
1.85168
1.91298
1.89114
1.78451
1.5954
1.33046
1.00074
0.621337
0.21067
0.224586
0.665562
1.08207
1.45822
1.77882
2.02983
2.19891
2.27609
2.25458
2.13161
1.90921
1.59472
1.20107
0.7464
0.253194
0.264442
0.784002
1.27568
1.72122
2.10294
2.40418
2.60994
2.70771
2.68845
2.54776
2.28694
1.91395
1.44377
0.89822
0.304869
0.310769
0.921799
1.50134
2.02854
2.48292
2.84481
3.09596
3.22059
3.20665
3.04731
2.74257
2.30065
1.73879
1.08323
0.367924
0.364393
1.08146
1.76332
2.38641
2.92714
3.36232
3.66981
3.82968
3.82579
3.64781
3.29345
2.77062
2.09888
1.30973
0.445239
0.426152
1.26556
2.06612
2.80145
3.44464
3.96848
4.34616
4.55247
4.56581
4.37076
3.96131
3.34399
2.54048
1.58854
0.540598
0.496864
1.47663
2.41421
3.28046
4.04499
4.67613
5.14149
5.40925
5.4505
5.24259
4.7735
4.04664
3.08513
1.93402
0.659046
0.577266
1.717
2.81181
3.83008
4.73795
5.49888
6.07401
6.4233
6.50818
6.29576
5.76466
4.91223
3.76143
2.36549
0.807435
0.667943
1.98855
3.26254
4.45636
5.53291
6.45064
7.16331
7.62091
7.7723
7.57018
6.97895
5.98499
4.60793
2.90953
0.995274
0.769228
2.29245
3.76893
5.16405
6.43813
7.54475
8.4297
9.03114
9.28185
9.11477
8.47286
7.32374
5.67757
3.60346
1.23609
0.881088
2.6288
4.3318
5.95577
7.45961
8.79276
9.89293
10.6849
11.0815
10.9891
10.319
9.00763
7.04437
4.50101
1.54968
1.00298
2.9962
4.94952
6.83087
8.59956
10.2025
11.5701
12.6131
13.2207
13.2644
12.6103
11.1442
8.81397
5.68186
1.96607
1.13373
3.39127
5.61721
7.78415
9.85458
11.7756
13.4728
14.8435
15.7513
16.0244
15.4655
13.8808
11.1404
7.26803
2.53267
1.27136
3.80827
6.32582
8.80441
11.2133
13.5041
15.6021
17.3954
18.7225
19.3622
19.0328
17.4199
14.2528
9.45348
3.32843
1.41301
4.23868
7.06146
9.87302
12.6539
15.3663
17.9428
20.2708
22.1712
23.3727
23.4916
22.0381
18.4987
12.5595
4.49347
1.55491
4.67108
7.80486
10.9628
14.1421
17.3229
20.4561
23.4432
26.105
28.1349
29.042
28.1047
24.4111
17.1425
6.29798
1.69239
5.0912
8.53142
12.0378
15.6292
19.3124
23.0706
26.8414
30.4774
33.6768
35.8732
36.0854
32.8059
24.2086
9.31873
1.8201
5.48255
9.212
13.0536
17.0524
21.2498
25.6763
30.3332
35.1527
39.9152
44.0821
46.4906
44.8935
35.6445
14.9419
1.93235
5.82733
9.81461
13.9603
18.3375
23.0279
28.1219
33.7118
39.8675
46.5669
53.512
59.6773
62.2945
55.0339
26.9409
2.02354
6.108
10.3071
14.7062
19.405
24.5256
30.223
36.6974
44.2047
53.0476
63.4831
75.3275
86.5547
88.89
56.8485
2.08877
6.30899
10.6607
15.244
20.1795
25.6226
31.7843
38.9655
47.6141
58.4221
72.4754
91.4059
116.989
146.618
143.461
2.12436
6.41862
10.8535
15.537
20.6014
26.2205
32.6376
40.2143
49.5238
61.5424
78.0803
102.864
144.614
227.114
427.132
2.12832
6.43056
10.8736
15.5654
20.6379
26.2642
32.6855
40.2596
49.552
61.524
77.9587
102.538
143.938
226
426.052
2.10059
6.34469
10.7209
15.3293
20.2898
25.7556
31.9327
39.1114
47.7191
58.4062
72.1803
90.5318
115.024
142.947
138.747
2.04306
6.16703
10.407
14.8485
19.5907
24.753
30.4841
36.9708
44.4418
53.1443
63.2229
74.2602
83.7276
82.2004
41.2278
-16.8947
-13.7765
-11.4374
-9.62505
-8.16301
-6.94302
-5.8969
-4.9795
-4.15936
-3.41348
-2.72436
-2.07809
-1.46314
-0.869587
-0.288497
-6.33849
-8.7879
-8.68148
-7.92445
-7.03273
-6.15369
-5.32726
-4.5597
-3.8465
-3.18
-2.55195
-1.95442
-1.37997
-0.821635
-0.272828
-2.88474
-5.57408
-6.37734
-6.31731
-5.89358
-5.32778
-4.71669
-4.1021
-3.50119
-2.91978
-2.35832
-1.8147
-1.28558
-0.767062
-0.25497
-1.56996
-3.67
-4.67265
-4.9627
-4.85304
-4.53329
-4.1085
-3.63497
-3.14232
-2.64569
-2.15228
-1.66489
-1.18383
-0.708019
-0.235615
-0.977319
-2.52797
-3.46276
-3.88564
-3.95835
-3.81171
-3.53413
-3.18108
-2.78618
-2.36934
-1.94205
-1.51067
-1.07842
-0.646605
-0.215443
-0.665213
-1.81359
-2.60836
-3.05171
-3.21594
-3.18104
-3.01214
-2.75623
-2.44526
-2.10023
-1.73465
-1.35705
-0.97269
-0.584734
-0.195076
-0.479526
-1.34475
-1.99797
-2.41159
-2.6118
-2.64339
-2.55055
-2.3696
-2.12796
-1.84536
-1.53558
-1.20812
-0.869451
-0.524039
-0.175052
-0.358994
-1.02312
-1.55396
-1.91966
-2.12473
-2.19215
-2.15011
-2.02509
-1.8391
-1.60935
-1.34878
-1.06695
-0.770888
-0.465823
-0.155801
-0.275859
-0.794058
-1.22462
-1.53925
-1.73324
-1.81689
-1.80729
-1.7229
-1.58062
-1.39473
-1.17673
-0.935659
-0.678571
-0.411044
-0.137646
-0.215999
-0.625846
-0.975766
-1.2426
-1.41836
-1.50636
-1.5164
-1.46089
-1.35241
-1.2024
-1.0207
-0.815482
-0.593496
-0.360341
-0.120805
-0.17152
-0.499246
-0.784607
-1.00919
-1.16442
-1.24997
-1.27101
-1.23565
-1.15302
-1.03207
-0.880982
-0.706943
-0.516173
-0.314065
-0.105403
-0.137675
-0.402061
-0.635652
-0.823924
-0.958856
-1.03836
-1.06478
-1.04324
-0.980235
-0.882661
-0.757195
-0.610018
-0.446718
-0.272337
-0.0914876
-0.111442
-0.326258
-0.518162
-0.675695
-0.791778
-0.863602
-0.891842
-0.879605
-0.831449
-0.752612
-0.64848
-0.524284
-0.384955