/*--------------------------------*- C++ -*----------------------------------*\
| =========                 |                                                 |
| \\      /  F ield         | OpenFOAM: The Open Source CFD Toolbox           |
|  \\    /   O peration     | Version:  5.x                                   |
|   \\  /    A nd           | Web:      www.OpenFOAM.org                      |
|    \\/     M anipulation  |                                                 |
\*---------------------------------------------------------------------------*/
FoamFile
{
    version     2.0;
    format      ascii;
    class       volScalarField;
    location    "15.9";
    object      gradTx;
}
// * * * * * * * * * * * * * * * * * * * * * * * * * * * * * * * * * * * * * //

dimensions      [0 -1 0 1 0 0 0];

internalField   nonuniform List<scalar> 
6300
(
-2.91015
-2.65195
-2.13904
-1.37875
-0.382889
0.831375
2.24047
3.81344
5.51118
7.28636
9.08412
10.844
12.5034
14.0016
15.285
-3.16879
-2.9071
-2.38687
-1.61478
-0.601747
0.636083
2.07614
3.68818
5.43326
7.26329
9.12145
10.9441
12.6641
14.2158
15.541
-3.68954
-3.4212
-2.88697
-2.09217
-1.04584
0.238117
1.73936
3.4294
5.26991
7.21157
9.1938
11.1462
12.9925
14.656
16.0683
-4.47908
-4.20163
-3.64807
-2.82156
-1.72801
-0.377594
1.21332
3.01965
5.00493
7.11879
9.29542
11.4541
13.503
15.3469
16.899
-5.54648
-5.25858
-4.68255
-3.81841
-2.6675
-1.23424
0.471394
2.43047
4.61087
6.96273
9.41448
11.8712
14.2178
16.3292
18.0874
-6.9022
-6.6041
-6.00557
-5.10244
-3.88979
-2.36372
-0.524428
1.61949
4.04485
6.70628
9.52805
12.3979
15.1674
17.664
19.7178
-8.55645
-8.25045
-7.63359
-6.69644
-5.42591
-3.80689
-1.82533
0.526586
3.24227
6.28899
9.593
13.0245
16.3895
19.441
21.9198
-10.5171
-10.2081
-9.5823
-8.62423
-7.31094
-5.61302
-3.49703
-0.930553
2.10817
5.61393
9.52998
13.7169
17.9246
21.7901
24.8954
-12.7871
-12.4829
-11.8637
-10.9076
-9.581
-7.83766
-5.61966
-2.86039
0.506561
4.52808
9.19559
14.3881
19.8013
24.8988
28.9704
-15.3617
-15.073
-14.4823
-13.5621
-12.2682
-10.5374
-8.28399
-5.39836
-1.75007
2.79576
8.33565
14.8382
21.9932
29.0327
34.6974
-18.2254
-17.9655
-17.431
-16.5905
-15.3926
-13.76
-11.581
-8.69941
-4.90467
0.0689294
6.51256
14.6353
24.2999
34.5408
43.0831
-21.3493
-21.133
-20.6859
-19.9766
-18.9522
-17.5294
-15.581
-12.914
-9.23856
-4.12838
3.00984
12.8901
26.0295
41.7469
56.1423
-24.6898
-24.5317
-24.2033
-23.6782
-22.9104
-21.8248
-20.2999
-18.1373
-15.0076
-10.3541
-3.23541
7.88501
25.1805
50.2741
78.4442
-28.1888
-28.1009
-27.9177
-27.6228
-27.1868
-26.5598
-25.6568
-24.3282
-22.3006
-19.0456
-13.4828
-3.29576
16.5325
55.7236
122.15
-31.7759
-31.7657
-31.7441
-31.7087
-31.6544
-31.5713
-31.4394
-31.2184
-30.8214
-30.0452
-28.355
-24.1182
-11.4793
33.9365
226.454
16.2472
16.9069
17.3631
17.6162
17.6734
17.5475
17.2552
16.8153
16.2474
15.5711
14.8042
13.9633
13.0628
12.1152
11.1312
10.1197
9.08819
8.0431
6.98974
5.93263
4.87561
3.82195
2.77445
1.73546
0.706995
-0.309298
-1.31207
-2.30029
-3.27318
-4.23027
-5.17131
-6.09628
-7.00533
-7.89871
-8.77673
-9.63967
-10.4877
-11.3209
-12.1392
-12.9422
-13.7296
-14.5011
-15.2561
-15.9945
-16.7162
-17.4214
-18.1106
-18.7845
-19.4437
-20.0893
-20.7218
-21.3417
-21.9491
-22.5437
-23.1248
-23.6912
-24.2417
-24.7748
-25.2889
-25.7826
-26.2546
-26.704
-27.1297
-27.5308
-27.9061
-28.2541
-28.5727
-28.8591
-29.1097
-29.3202
-29.4856
-29.6003
-29.6588
-29.6555
-29.5852
-29.4437
-29.2274
-28.9343
-28.5634
-28.1151
-27.5912
-26.9948
-26.3303
-25.6036
-24.8218
-23.9931
-23.1272
-22.2345
-21.3264
-20.4144
16.5289
17.1993
17.655
17.8977
17.9365
17.7867
17.4672
16.999
16.4033
15.7009
14.9104
14.0487
13.1303
12.1674
11.1705
10.1481
9.10752
8.05476
6.9949
5.93228
4.87057
3.81292
2.76202
1.72018
0.689339
-0.328869
-1.33313
-2.32242
-3.296
-4.25342
-5.19448
-6.11922
-7.02787
-7.9208
-8.79841
-9.66106
-10.509
-11.3424
-12.161
-12.9646
-13.7526
-14.5245
-15.2799
-16.0183
-16.7397
-17.4443
-18.1325
-18.8052
-19.4633
-20.1079
-20.7397
-21.3594
-21.9673
-22.5629
-23.1455
-23.7139
-24.2666
-24.8018
-25.3179
-25.8134
-26.287
-26.7377
-27.1649
-27.5676
-27.9451
-28.2961
-28.6187
-28.9103
-29.1672
-29.3849
-29.5581
-29.681
-29.7475
-29.7515
-29.6875
-29.5508
-29.3378
-29.046
-28.6745
-28.2237
-27.6953
-27.0924
-26.4196
-25.6827
-24.8888
-24.0465
-23.1654
-22.2566
-21.3317
-20.4031
17.109
17.8004
18.2532
18.4721
18.4709
18.2698
17.8929
17.3656
16.7127
15.957
15.1189
14.2155
13.2614
12.2683
11.2461
10.2025
9.14412
8.07637
7.00383
5.93042
4.85949
3.79398
2.73639
1.68891
0.653379
-0.368626
-1.37583
-2.36724
-3.34215
-4.30016
-5.24116
-6.16532
-7.07306
-7.96494
-8.84158
-9.70356
-10.5513
-11.385
-12.2044
-13.0092
-13.7986
-14.5717
-15.328
-16.0666
-16.7874
-17.4905
-18.1766
-18.8468
-19.5023
-20.1445
-20.7748
-21.3941
-22.0028
-22.6006
-23.1865
-23.7591
-24.3163
-24.8561
-25.3764
-25.8754
-26.352
-26.8052
-27.2348
-27.6404
-28.0219
-28.3786
-28.7091
-29.011
-29.2807
-29.5132
-29.7028
-29.8426
-29.9257
-29.945
-29.8942
-29.7676
-29.5612
-29.2722
-28.8995
-28.4436
-27.9061
-27.2904
-26.601
-25.8436
-25.0254
-24.1553
-23.2433
-22.3013
-21.3422
-20.3796
18.0229
18.7443
19.1876
19.3631
19.2926
19.0056
18.5348
17.9127
17.1695
16.3316
15.4208
14.4551
13.4482
12.411
11.352
10.2779
9.19393
8.10462
7.01379
5.92474
4.84043
3.76344
2.69606
1.64028
0.597825
-0.429802
-1.44137
-2.43589
-3.41269
-4.37143
-5.3121
-6.23509
-7.14108
-8.03098
-8.90581
-9.76652
-10.6138
-11.448
-12.2689
-13.0758
-13.8677
-14.6433
-15.4012
-16.1404
-16.8603
-17.5611
-18.2436
-18.9092
-19.56
-20.1981
-20.8256
-21.4439
-22.0538
-22.6551
-23.2465
-23.826
-24.3908
-24.9381
-25.4651
-25.9696
-26.4503
-26.9066
-27.3388
-27.7477
-28.1341
-28.4986
-28.8404
-29.1579
-29.4472
-29.7031
-29.9186
-30.0856
-30.1954
-30.2393
-30.2094
-30.099
-29.9031
-29.6185
-29.2441
-28.7804
-28.2294
-27.5943
-26.8798
-26.0915
-25.2366
-24.3239
-23.3642
-22.3705
-21.3575
-20.3413
19.3299
20.0882
20.5072
20.6076
20.4256
20.0056
19.3938
18.6336
17.7623
16.8105
15.8017
14.7534
13.6781
12.5847
11.4795
10.3671
9.25118
8.13484
7.02092
5.91204
4.81063
3.71891
2.63887
1.5723
0.520805
-0.514211
-1.53152
-2.53013
-3.50931
-4.46874
-5.40854
-6.32934
-7.23224
-8.1187
-8.99034
-9.84874
-10.6951
-11.53
-12.3533
-13.164
-13.9603
-14.7401
-15.5012
-16.2418
-16.9607
-17.6579
-18.3346
-18.9929
-19.6358
-20.2669
-20.8892
-21.5055
-22.1169
-22.7235
-23.3235
-23.9137
-24.4904
-25.0491
-25.5859
-26.0979
-26.5833
-27.0423
-27.476
-27.8869
-28.2777
-28.6506
-29.0066
-29.3448
-29.6616
-29.9508
-30.2039
-30.4107
-30.5596
-30.6396
-30.6402
-30.5531
-30.3722
-30.0938
-29.717
-29.2426
-28.6732
-28.0123
-27.2646
-26.4352
-25.5307
-24.5598
-23.5337
-22.467
-21.3773
-20.2843
21.1234
21.92
22.2851
22.2584
21.9008
21.2812
20.4663
19.5139
18.4707
17.371
16.239
15.0902
13.9338
12.7752
11.6171
10.4611
9.30874
8.16131
7.02057
5.88838
4.76669
3.65737
2.56211
1.48249
0.419935
-0.624218
-1.6487
-2.65239
-3.63442
-4.59435
-5.53236
-6.44938
-7.34707
-8.22771
-9.09391
-9.94825
-10.7928
-11.6287
-12.4559
-13.2727
-14.0765
-14.8637
-15.6307
-16.3741
-17.0921
-17.7841
-18.4518
-19.0984
-19.7287
-20.3479
-20.9615
-21.5737
-22.1869
-22.8012
-23.4141
-24.0209
-24.6155
-25.1913
-25.7422
-26.2639
-26.7543
-27.2139
-27.6458
-28.0548
-28.4467
-28.8266
-29.1982
-29.5621
-29.9152
-30.2501
-30.5558
-30.8185
-31.0228
-31.1536
-31.197
-31.142
-30.9812
-30.7107
-30.33
-29.8413
-29.2482
-28.5552
-27.7665
-26.8865
-25.9203
-24.8749
-23.7615
-22.5963
-21.4014
-20.2027
23.5473
24.3727
24.6265
24.3852
23.7529
22.8377
21.736
20.5247
19.2597
17.9778
16.7003
15.4374
14.1925
12.9646
11.7512
10.5498
9.35887
8.17793
7.00766
5.8494
4.70477
3.57539
2.4627
1.36798
0.292446
-0.762646
-1.79591
-2.80592
-3.79139
-4.75154
-5.68643
-6.59726
-7.48645
-8.35748
-9.21451
-10.0618
-10.9029
-11.74
-12.5732
-13.4002
-14.2165
-15.0165
-15.7938
-16.5431
-17.2606
-17.9453
-18.5992
-19.2273
-19.837
-20.437
-21.0356
-21.6402
-22.2551
-22.8806
-23.5132
-24.1454
-24.7674
-25.3689
-25.9403
-26.4748
-26.9693
-27.4252
-27.8482
-28.2471
-28.6324
-29.0143
-29.4006
-29.7948
-30.1946
-30.5911
-30.9693
-31.3099
-31.5917
-31.793
-31.8951
-31.8831
-31.7478
-31.4858
-31.0983
-30.5899
-29.967
-29.2354
-28.3995
-27.4618
-26.4235
-25.2878
-24.0634
-22.7683
-21.4308
-20.0876
26.8277
27.648
27.6803
27.0746
26.012
24.6624
23.1631
21.6124
20.0728
18.5777
17.1399
15.7586
14.4263
13.1327
11.8676
10.6232
9.39433
8.17897
6.97726
5.79059
4.62072
3.46923
2.33728
1.22573
0.135406
-0.932595
-1.97668
-2.99483
-3.98487
-4.94514
-5.87517
-6.7763
-7.65195
-8.50739
-9.34913
-10.1841
-11.0186
-11.8568
-12.6993
-13.5428
-14.38
-15.2016
-15.9972
-16.7576
-17.4762
-18.1506
-18.7835
-19.3826
-19.9594
-20.5276
-21.101
-21.6918
-22.3075
-22.9497
-23.6126
-24.2842
-24.9488
-25.5896
-26.1914
-26.743
-27.2395
-27.6836
-28.085
-28.4587
-28.8228
-29.1953
-29.5912
-30.0191
-30.4786
-30.958
-31.4364
-31.886
-32.2758
-32.5752
-32.757
-32.8012
-32.6966
-32.4412
-32.0402
-31.5033
-30.8418
-30.0653
-29.1789
-28.1816
-27.0667
-25.828
-24.4669
-23.0009
-21.4684
-19.925
31.3329
32.0574
31.6524
30.4216
28.6839
26.7024
24.6638
22.6837
20.8213
19.095
17.4976
16.0089
14.6041
13.2593
11.9542
10.6739
9.41011
8.16014
6.92501
5.70742
4.51006
3.33478
2.18235
1.05281
-0.0538771
-1.13706
-2.19489
-3.22425
-4.22126
-5.18232
-6.10551
-6.99201
-7.84655
-8.67697
-9.49341
-10.3072
-11.1291
-11.9673
-12.8241
-13.6942
-14.566
-15.4239
-16.2512
-17.0322
-17.7554
-18.4155
-19.0163
-19.5697
-20.0939
-20.6103
-21.1414
-21.7071
-22.3217
-22.9888
-23.6991
-24.4328
-25.1642
-25.8662
-26.5144
-27.0901
-27.585
-28.0033
-28.3613
-28.684
-29.0009
-29.3424
-29.7353
-30.1979
-30.7333
-31.3261
-31.9446
-32.5478
-33.09
-33.5262
-33.8169
-33.9333
-33.8623
-33.6059
-33.1774
-32.5959
-31.882
-31.0531
-30.1179
-29.0702
-27.888
-26.5442
-25.0214
-23.329
-21.5212
-19.6917
37.6972
38.0928
36.8131
34.4977
31.7061
28.8244
26.08
23.5851
21.3735
19.4264
17.6986
16.1379
14.6953
13.3286
12.0046
10.7006
9.40575
8.1197
6.84731
5.59493
4.36743
3.16729
1.99433
0.846854
-0.277092
-1.37811
-2.45414
-3.50032
-4.50947
-5.47404
-6.3887
-7.25375
-8.07584
-8.86667
-9.64153
-10.4183
-11.216
-12.0508
-12.9295
-13.8432
-14.7719
-15.6903
-16.5716
-17.39
-18.125
-18.7658
-19.3172
-19.7987
-20.2392
-20.672
-21.1316
-21.652
-22.26
-22.9655
-23.7518
-24.5845
-25.4215
-26.2203
-26.9413
-27.5534
-28.0406
-28.4095
-28.6881
-28.9171
-29.1433
-29.415
-29.7787
-30.2712
-30.9054
-31.6566
-32.4747
-33.2969
-34.0564
-34.6865
-35.1272
-35.335
-35.2944
-35.0181
-34.5345
-33.8789
-33.0875
-32.1937
-31.2185
-30.1521
-28.9417
-27.518
-25.8198
-23.8228
-21.6053
-19.3443
47.0975
46.5398
43.4645
39.2585
34.8572
30.7479
27.1367
24.0779
21.5446
19.4417
17.6584
16.0966
14.6768
13.3361
12.0259
10.7136
9.38849
8.05935
6.74056
5.44639
4.18524
2.96048
1.7695
0.606898
-0.533421
-1.65523
-2.75642
-3.82976
-4.86191
-5.83763
-6.74334
-7.57734
-8.35013
-9.07931
-9.78681
-10.4994
-11.2494
-12.071
-12.9844
-13.9703
-14.9926
-16.0101
-16.9823
-17.8678
-18.6301
-19.2448
-19.7183
-20.0865
-20.3955
-20.6945
-21.0343
-21.4703
-22.0576
-22.8257
-23.7375
-24.7295
-25.7336
-26.686
-27.5246
-28.1962
-28.6664
-28.9454
-29.0858
-29.154
-29.22
-29.3549
-29.6362
-30.1403
-30.9086
-31.8905
-32.9984
-34.1359
-35.2089
-36.1191
-36.7726
-37.0938
-37.0657
-36.7283
-36.139
-35.3568
-34.4399
-33.4514
-32.4499
-31.4412
-30.3021
-28.8865
-27.0482
-24.634
-21.7519
-18.7913
61.941
58.6115
51.7437
44.3
37.5866
31.9533
27.3968
23.8136
21.0956
18.9963
17.2988
15.8504
14.5441
13.2995
12.0497
10.745
9.37668
7.98384
6.59812
5.25009
3.95043
2.70487
1.50367
0.334721
-0.816518
-1.9621
-3.09889
-4.21854
-5.29562
-6.30208
-7.20124
-7.98904
-8.68719
-9.32311
-9.92469
-10.5265
-11.1795
-11.959
-12.9348
-14.0449
-15.22
-16.3948
-17.5177
-18.5229
-19.3474
-19.9268
-20.271
-20.4594
-20.5661
-20.6582
-20.798
-21.0707
-21.5947
-22.4785
-23.6073
-24.8569
-26.12
-27.3153
-28.3482
-29.1286
-29.5672
-29.6806
-29.587
-29.3938
-29.1969
-29.0835
-29.1727
-29.6287
-30.6037
-31.9428
-33.4789
-35.0674
-36.5953
-37.921
-38.896
-39.3549
-39.2821
-38.8008
-38.0206
-37.0285
-35.8949
-34.7273
-33.6911
-32.9177
-32.0603
-30.8633
-29.1056
-26.1185
-22.0111
-17.8128
87.76
75.7768
60.852
48.2901
38.7608
31.6078
26.2552
22.3028
19.7554
17.9722
16.5801
15.3993
14.3223
13.27
12.1523
10.8679
9.39992
7.89788
6.40126
4.98402
3.6376
2.38528
1.19131
0.0369669
-1.10782
-2.28171
-3.46609
-4.66865
-5.83105
-6.92101
-7.81948
-8.52982
-9.11383
-9.61629
-10.0622
-10.48
-10.9273
-11.5641
-12.6919
-14.0256
-15.4478
-16.8543
-18.2223
-19.4379
-20.4174
-20.9476
-21.0478
-20.9496
-20.7575
-20.553
-20.37
-20.309
-20.6134
-21.7785
-23.3027
-24.9648
-26.6034
-28.1783
-29.5353
-30.5527
-30.9359
-30.7134
-30.2315
-29.6387
-29.0536
-28.5198
-28.1807
-28.3695
-29.774
-31.711
-33.8838
-36.0857
-38.2724
-40.2277
-41.7622
-42.3811
-42.0864
-41.3034
-40.2072
-38.9033
-37.3986
-35.8136
-34.5534
-34.515
-34.3073
-33.6469
-32.9331
-29.2159
-22.401
-15.8246
138.952
97.1767
66.5562
47.9122
36.5122
28.669
23.097
18.7684
17.3145
16.3844
15.5566
14.7985
14.0647
13.3342
12.4947
11.2547
9.47194
7.80385
6.08987
4.61573
3.18909
1.98153
0.821746
-0.274658
-1.35728
-2.58626
-3.80715
-5.17663
-6.47079
-7.81569
-8.70862
-9.2525
-9.65784
-9.99088
-10.24
-10.3909
-10.4021
-10.4621
-12.1524
-13.8786
-15.6982
-17.3689
-19.1462
-20.6927
-22.1344
-22.5871
-22.1101
-21.5746
-20.9667
-20.4168
-19.7659
-19.0211
-18.3924
-20.5613
-22.7991
-25.1064
-27.1781
-29.355
-31.2109
-32.8897
-33.1767
-32.1193
-31.0353
-29.8719
-28.836
-27.6757
-26.428
-25.3593
-28.1775
-31.139
-34.2465
-37.1254
-40.2825
-43.1395
-45.9466
-46.7223
-45.5932
-44.2564
-42.6925
-41.0666
-39.0176
-36.4319
-33.6556
-36.3558
-37.2058
-36.5071
-41.0849
-36.7738
-22.447
-11.188
257.294
102.512
55.013
37.1026
29.1412
22.4592
18.1477
11.094
14.1192
14.6489
14.4325
14.1624
13.802
13.555
13.4137
12.4227
9.37862
7.7757
5.43291
4.17892
2.42495
1.50888
0.360829
-0.606192
-1.39606
-2.90251
-3.93429
-5.79308
-7.03747
-9.36121
-10.1003
-10.1746
-10.3059
-10.4863
-10.5591
-10.5029
-9.80673
-7.01222
-11.5611
-13.5971
-16.1629
-17.7299
-20.4025
-22.0981
-25.2753
-25.5651
-23.2566
-22.3035
-21.0922
-20.4256
-19.2969
-17.5657
-12.1428
-19.2446
-22.1951
-25.5872
-27.601
-30.9934
-33.1413
-37.2306
-37.3528
-33.5633
-31.9533
-29.9214
-28.797
-26.9572
-24.4172
-16.7516
-26.3743
-30.3565
-34.9378
-37.7641
-42.7243
-46.1228
-53.0556
-53.806
-49.3986
-47.536
-45.2665
-43.839
-41.4089
-37.3242
-24.8711
-40.8606
-42.3337
-31.7688
-62.0365
-58.7537
-18.0752
0.535141
-19.421
-18.3639
-17.3519
-16.399
-15.5161
-14.7108
-13.9879
-13.3497
-12.7965
-12.3274
-11.9409
-11.635
-11.4075
-11.2569
-11.1819
-19.3925
-18.3186
-17.2925
-16.3288
-15.4382
-14.6283
-13.9031
-13.2644
-12.7121
-12.2448
-11.8603
-11.5563
-11.3305
-11.1811
-11.1068
-19.3336
-18.2251
-17.1706
-16.1852
-15.2797
-14.4607
-13.7316
-13.0927
-12.5427
-12.0791
-11.699
-11.3992
-11.177
-11.0302
-10.9572
-19.2397
-18.0776
-16.9794
-15.9614
-15.0343
-14.2033
-13.4697
-12.8319
-12.2867
-11.8299
-11.4572
-11.1644
-10.948
-10.8054
-10.7345
-19.1036
-17.8659
-16.7077
-15.6467
-14.6926
-13.8482
-13.1117
-12.4784
-11.9422
-11.4965
-11.1353
-10.853
-10.6452
-10.5086
-10.4408
-18.9136
-17.5744
-16.3386
-15.225
-14.241
-13.385
-12.6504
-12.0277
-11.5069
-11.0786
-10.7342
-10.4669
-10.2711
-10.1428
-10.0793
-18.6518
-17.1794
-15.847
-14.6736
-13.6611
-12.8004
-12.0769
-11.4749
-10.9792
-10.5765
-10.2561
-10.0092
-9.82945
-9.71207
-9.65411
-18.2898
-16.644
-15.1962
-13.9612
-12.9293
-12.0783
-11.382
-10.8157
-10.3581
-9.99209
-9.70419
-9.48435
-9.32525
-9.22181
-9.17085
-17.78
-15.9105
-14.3325
-13.0456
-12.0166
-11.2012
-10.5568
-10.0476
-9.64546
-9.32942
-9.08413
-8.89863
-8.76528
-8.67895
-8.63653
-17.0389
-14.8854
-13.1774
-11.872
-10.8901
-10.153
-9.59639
-9.17225
-8.84658
-8.59589
-8.40418
-8.26066
-8.15816
-8.09209
-8.05969
-15.9089
-13.4146
-11.6196
-10.3747
-9.51871
-8.9243
-8.50337
-8.19833
-7.97262
-7.80329
-7.67593
-7.58155
-7.51453
-7.47145
-7.45036
-14.0747
-11.2443
-9.51129
-8.48855
-7.88555
-7.522
-7.29434
-7.14497
-7.0422
-6.96861
-6.91462
-6.87499
-6.84687
-6.82874
-6.81984
-10.8743
-7.97644
-6.69267
-6.18252
-6.01287
-5.98371
-6.00693
-6.04494
-6.08252
-6.11424
-6.13887
-6.15684
-6.16914
-6.17673
-6.18033
-4.88673
-3.09438
-3.10036
-3.53591
-3.99962
-4.39299
-4.70467
-4.94527
-5.12862
-5.26689
-5.36969
-5.4443
-5.49605
-5.52862
-5.54434
6.91405
3.58606
0.92156
-0.86109
-2.05666
-2.8839
-3.47343
-3.90279
-4.21975
-4.45493
-4.62863
-4.75457
-4.84207
-4.8973
-4.92401
-35.0738
-35.1356
-35.2645
-35.4717
-35.7765
-36.21
-36.822
-37.696
-38.98
-40.9663
-44.3225
-50.9079
-67.2024
-120.879
-349.292
-38.0292
-38.1529
-38.4106
-38.8249
-39.4346
-40.3031
-41.5337
-43.3
-45.9093
-49.9434
-56.5961
-68.5198
-91.8998
-140.274
-228.868
-40.8988
-41.0772
-41.4482
-42.0425
-42.9131
-44.1448
-45.8733
-48.3187
-51.8493
-57.1021
-65.2095
-78.1762
-99.24
-131.739
-169.967
-43.6446
-43.8678
-44.3307
-45.0685
-46.141
-47.6417
-49.7152
-52.5839
-56.5933
-62.2786
-70.4482
-82.2092
-98.639
-119.226
-137.612
-46.2356
-46.4922
-47.0224
-47.8623
-49.0715
-50.741
-53.0048
-56.0571
-60.1735
-65.7301
-73.193
-82.9996
-95.1512
-108.24
-118.025
-48.6485
-48.9267
-49.4992
-50.3996
-51.6824
-53.4275
-55.7469
-58.7914
-62.7536
-67.8579
-74.3103
-82.1613
-91.012
-99.5495
-105.233
-50.8683
-51.157
-51.7483
-52.6715
-53.9724
-55.7153
-57.9856
-60.8882
-64.5406
-69.0497
-74.4564
-80.6286
-87.09
-92.8403
-96.3877
-52.8878
-53.177
-53.7671
-54.6813
-55.9553
-57.6371
-59.7852
-62.4643
-65.7328
-69.618
-74.0709
-78.8951
-83.6618
-87.6608
-90.0056
-54.7065
-54.9883
-55.5608
-56.4412
-57.6552
-59.2349
-61.2161
-63.6311
-66.4966
-69.7921
-73.4274
-77.2016
-80.7664
-83.63
-85.2518
-56.3295
-56.5979
-57.1406
-57.9696
-59.1012
-60.5541
-62.3457
-64.4851
-66.9618
-69.7301
-72.6875
-75.6535
-78.3581
-80.4614
-81.6241
-57.7663
-58.0169
-58.5218
-59.2879
-60.324
-61.6381
-63.2339
-65.1048
-67.2245
-69.5367
-71.9416
-74.2868
-76.3671
-77.946
-78.8037
-59.029
-59.2593
-59.7216
-60.4188
-61.3537
-62.5264
-63.9312
-65.5516
-67.3536
-69.2788
-71.2372
-73.104
-74.7243
-75.9315
-76.5788
-60.1319
-60.3407
-60.7583
-61.3848
-62.2183
-63.2536
-64.4789
-65.8722
-67.3971
-68.9979
-70.5964
-72.0923
-73.3685
-74.3057
-74.8034
-61.0899
-61.2769
-61.6501
-62.207
-62.9429
-63.8489
-64.9098
-66.1016
-67.388
-68.7185
-70.027
-71.2331
-72.248
-72.985
-73.3735
-61.9181
-62.084
-62.4142
-62.9048
-63.5493
-64.3366
-65.25
-66.2651
-67.3481
-68.4544
-69.5285
-70.5066
-71.3205
-71.9064
-72.2134
-62.6311
-62.7771
-63.0669
-63.496
-64.0565
-64.7367
-65.5195
-66.3816
-67.2922
-68.2126
-69.0969
-69.894
-70.5514
-71.0213
-71.2664
-63.2427
-63.3702
-63.6229
-63.9958
-64.4806
-65.0655
-65.734
-66.4644
-67.2294
-67.9958
-68.7258
-69.3783
-69.9126
-70.2923
-70.4897
-63.7657
-63.8765
-64.0956
-64.4179
-64.8353
-65.3362
-65.9054
-66.5232
-67.1656
-67.8044
-68.4084
-68.9446
-69.3812
-69.69
-69.85
-64.2118
-64.3075
-64.4966
-64.774
-65.1319
-65.5596
-66.0432
-66.565
-67.1043
-67.6372
-68.1381
-68.5802
-68.9384
-69.1909
-69.3214
-64.5914
-64.6738
-64.8363
-65.0741
-65.3801
-65.7443
-66.1543
-66.5946
-67.0473
-67.4924
-67.9085
-68.2741
-68.5691
-68.7764
-68.8834
-64.9139
-64.9845
-65.1236
-65.3269
-65.5877
-65.8973
-66.2444
-66.6156
-66.9956
-67.3676
-67.7139
-68.017
-68.2608
-68.4316
-68.5196
-65.1872
-65.2476
-65.3664
-65.5397
-65.7616
-66.0242
-66.3177
-66.6305
-66.9495
-67.2607
-67.5493
-67.8011
-68.0031
-68.1443
-68.217
-65.4187
-65.4702
-65.5714
-65.7188
-65.9072
-66.1296
-66.3776
-66.641
-66.9089
-67.1694
-67.4102
-67.6199
-67.7876
-67.9047
-67.9649
-65.6144
-65.6582
-65.7443
-65.8695
-66.0292
-66.2174
-66.4266
-66.6485
-66.8735
-67.0916
-67.2929
-67.4677
-67.6072
-67.7045
-67.7545
-65.7798
-65.817
-65.89
-65.9961
-66.1314
-66.2905
-66.467
-66.6538
-66.8428
-67.0256
-67.194
-67.3399
-67.4562
-67.5372
-67.5788
-65.9192
-65.9508
-66.0127
-66.1026
-66.217
-66.3514
-66.5003
-66.6575
-66.8164
-66.9697
-67.1107
-67.2326
-67.3297
-67.3973
-67.4319
-66.0368
-66.0636
-66.116
-66.1921
-66.2888
-66.4023
-66.5278
-66.6602
-66.7937
-66.9224
-67.0405
-67.1426
-67.2238
-67.2802
-67.3092
-66.1358
-66.1585
-66.2028
-66.2672
-66.3489
-66.4447
-66.5506
-66.6621
-66.7744
-66.8825
-66.9816
-67.0671
-67.1351
-67.1823
-67.2065
-66.2191
-66.2383
-66.2758
-66.3303
-66.3993
-66.4802
-66.5695
-66.6634
-66.7579
-66.8488
-66.932
-67.0038
-67.0607
-67.1003
-67.1205
-66.2891
-66.3053
-66.3371
-66.3831
-66.4415
-66.5098
-66.5852
-66.6644
-66.744
-66.8204
-66.8904
-66.9507
-66.9985
-67.0317
-67.0487
-66.3479
-66.3616
-66.3885
-66.4274
-66.4768
-66.5346
-66.5982
-66.665
-66.7322
-66.7966
-66.8555
-66.9062
-66.9465
-66.9744
-66.9887
-66.3971
-66.4087
-66.4315
-66.4645
-66.5063
-66.5552
-66.609
-66.6655
-66.7222
-66.7766
-66.8263
-66.8691
-66.903
-66.9265
-66.9385
-66.4382
-66.4481
-66.4674
-66.4954
-66.5309
-66.5724
-66.618
-66.6658
-66.7138
-66.7599
-66.8019
-66.8381
-66.8667
-66.8866
-66.8967
-66.4725
-66.4809
-66.4973
-66.5212
-66.5514
-66.5866
-66.6254
-66.6661
-66.7069
-66.7459
-66.7816
-66.8123
-66.8366
-66.8534
-66.862
-66.5009
-66.5081
-66.5221
-66.5425
-66.5683
-66.5984
-66.6315
-66.6663
-66.701
-66.7344
-66.7648
-66.7909
-66.8116
-66.8259
-66.8333
-66.5243
-66.5305
-66.5426
-66.5601
-66.5823
-66.6081
-66.6366
-66.6664
-66.6962
-66.7248
-66.7509
-66.7733
-66.791
-66.8033
-66.8096
-66.5434
-66.5488
-66.5593
-66.5744
-66.5936
-66.616
-66.6407
-66.6665
-66.6923
-66.717
-66.7396
-66.7589
-66.7743
-66.7849
-66.7903
-66.5588
-66.5635
-66.5727
-66.586
-66.6028
-66.6224
-66.644
-66.6665
-66.6891
-66.7107
-66.7304
-66.7474
-66.7608
-66.7701
-66.7748
-66.571
-66.5751
-66.5833
-66.5951
-66.61
-66.6274
-66.6465
-66.6666
-66.6866
-66.7058
-66.7233
-66.7383
-66.7501
-66.7584
-66.7626
-66.5802
-66.584
-66.5914
-66.602
-66.6155
-66.6312
-66.6485
-66.6666
-66.6847
-66.702
-66.7178
-66.7313
-66.742
-66.7495
-66.7533
-66.5869
-66.5903
-66.5971
-66.607
-66.6194
-66.634
-66.6499
-66.6666
-66.6833
-66.6993
-66.7139
-66.7264
-66.7362
-66.7431
-66.7466
-66.5911
-66.5944
-66.6008
-66.6102
-66.6219
-66.6357
-66.6508
-66.6666
-66.6824
-66.6976
-66.7114
-66.7232
-66.7326
-66.739
-66.7424
-66.593
-66.5962
-66.6025
-66.6116
-66.6231
-66.6365
-66.6512
-66.6666
-66.682
-66.6968
-66.7102
-66.7217
-66.7309
-66.7372
-66.7404
-66.5927
-66.5959
-66.6022
-66.6114
-66.6229
-66.6364
-66.6512
-66.6666
-66.6821
-66.6969
-66.7104
-66.722
-66.7311
-66.7375
-66.7407
-66.5902
-66.5935
-66.6
-66.6095
-66.6214
-66.6353
-66.6506
-66.6666
-66.6826
-66.6979
-66.7119
-66.7239
-66.7333
-66.7399
-66.7433
-66.5853
-66.5889
-66.5958
-66.6058
-66.6185
-66.6333
-66.6496
-66.6666
-66.6836
-66.6999
-66.7148
-66.7275
-66.7376
-66.7446
-66.7481
-66.578
-66.5818
-66.5894
-66.6003
-66.6142
-66.6303
-66.648
-66.6666
-66.6852
-66.7029
-66.7191
-66.733
-66.744
-66.7516
-66.7555
-66.568
-66.5723
-66.5807
-66.5929
-66.6082
-66.6262
-66.6459
-66.6666
-66.6872
-66.707
-66.725
-66.7405
-66.7527
-66.7612
-66.7656
-66.555
-66.5598
-66.5694
-66.5831
-66.6005
-66.6208
-66.6432
-66.6665
-66.6899
-66.7123
-66.7327
-66.7502
-66.7641
-66.7737
-66.7786
-66.5386
-66.5442
-66.5551
-66.5709
-66.5908
-66.6141
-66.6397
-66.6665
-66.6933
-66.719
-66.7424
-66.7625
-66.7784
-66.7895
-66.7951
-66.5184
-66.5248
-66.5374
-66.5557
-66.5788
-66.6057
-66.6354
-66.6664
-66.6975
-66.7272
-66.7544
-66.7777
-66.7962
-66.809
-66.8155
-66.4936
-66.5012
-66.5159
-66.5371
-66.5641
-66.5955
-66.6301
-66.6663
-66.7026
-66.7373
-66.769
-66.7963
-66.8178
-66.8328
-66.8404
-66.4637
-66.4725
-66.4897
-66.5147
-66.5462
-66.5831
-66.6236
-66.6661
-66.7087
-66.7495
-66.7868
-66.8188
-66.8441
-66.8617
-66.8707
-66.4277
-66.438
-66.4583
-66.4876
-66.5247
-66.5681
-66.6159
-66.6659
-66.7161
-66.7642
-66.8081
-66.8459
-66.8758
-66.8965
-66.9071
-66.3844
-66.3966
-66.4205
-66.4551
-66.4989
-66.5501
-66.6065
-66.6656
-66.7249
-66.7818
-66.8338
-66.8784
-66.9139
-66.9384
-66.951
-66.3327
-66.3471
-66.3753
-66.4162
-66.468
-66.5285
-66.5952
-66.6652
-66.7354
-66.8028
-66.8644
-66.9174
-66.9595
-66.9886
-67.0035
-66.271
-66.288
-66.3214
-66.3697
-66.431
-66.5026
-66.5816
-66.6646
-66.7479
-66.8279
-66.9011
-66.9641
-67.014
-67.0487
-67.0665
-66.1975
-66.2176
-66.2571
-66.3142
-66.3868
-66.4716
-66.5653
-66.6637
-66.7626
-66.8577
-66.9447
-67.0197
-67.0792
-67.1205
-67.1417
-66.1099
-66.1338
-66.1804
-66.2481
-66.334
-66.4345
-66.5456
-66.6625
-66.7801
-66.8932
-66.9968
-67.0861
-67.1571
-67.2064
-67.2316
-66.0059
-66.034
-66.0892
-66.1693
-66.271
-66.3902
-66.522
-66.6607
-66.8006
-66.9352
-67.0587
-67.1653
-67.25
-67.3089
-67.339
-65.8823
-65.9155
-65.9808
-66.0754
-66.1958
-66.3371
-66.4934
-66.6583
-66.8246
-66.9851
-67.1323
-67.2596
-67.3609
-67.4313
-67.4674
-65.7356
-65.7748
-65.8519
-65.9638
-66.1062
-66.2735
-66.459
-66.6549
-66.8528
-67.0441
-67.2199
-67.372
-67.4932
-67.5776
-67.6208
-65.5616
-65.6079
-65.6988
-65.8309
-65.9992
-66.1973
-66.4173
-66.65
-66.8857
-67.1137
-67.3238
-67.5059
-67.6512
-67.7523
-67.8043
-65.3556
-65.41
-65.5171
-65.6728
-65.8716
-66.106
-66.3667
-66.6432
-66.9237
-67.1959
-67.4472
-67.6654
-67.8397
-67.9613
-68.0238
-65.1117
-65.1757
-65.3015
-65.4849
-65.7193
-65.9963
-66.3051
-66.6335
-66.9676
-67.2927
-67.5934
-67.8553
-68.065
-68.2114
-68.2866
-64.8233
-64.8984
-65.046
-65.2615
-65.5376
-65.8644
-66.23
-66.6199
-67.0178
-67.4062
-67.7667
-68.0815
-68.3341
-68.5108
-68.6017
-64.4829
-64.5706
-64.7435
-64.9961
-65.3205
-65.7057
-66.1379
-66.6006
-67.0747
-67.5391
-67.9718
-68.3509
-68.6559
-68.8697
-68.98
-64.0815
-64.1838
-64.3855
-64.6809
-65.0612
-65.5144
-66.0248
-66.5735
-67.1382
-67.694
-68.2142
-68.6716
-69.041
-69.3007
-69.4347
-63.6092
-63.7279
-63.9625
-64.3068
-64.7514
-65.2832
-65.885
-66.5352
-67.208
-67.8737
-68.5
-69.0535
-69.5023
-69.8188
-69.9825
-63.0544
-63.1917
-63.4632
-63.8629
-64.381
-65.0035
-65.7116
-66.4812
-67.2826
-68.0808
-68.8364
-69.5081
-70.0555
-70.4431
-70.644
-62.4043
-62.5622
-62.875
-63.3369
-63.9381
-64.6643
-65.4955
-66.4052
-67.3595
-68.3173
-69.231
-70.049
-70.7197
-71.1969
-71.445
-61.6446
-61.825
-62.1833
-62.7142
-63.4085
-64.2522
-65.225
-66.2982
-67.4341
-68.5845
-69.692
-70.6921
-71.5184
-72.1096
-72.4183
-60.7597
-60.9644
-61.3718
-61.9779
-62.7751
-63.7506
-64.8846
-66.1477
-67.4984
-68.8815
-70.2276
-71.456
-72.4803
-73.2186
-73.6059
-59.7328
-59.9629
-60.4224
-61.109
-62.0178
-63.1388
-64.4546
-65.9364
-67.5403
-69.2041
-70.845
-72.3615
-73.6407
-74.5713
-75.0624
-58.546
-58.8022
-59.3153
-60.0859
-61.1132
-62.3919
-63.9094
-65.6402
-67.5407
-69.5426
-71.5486
-73.4318
-75.0431
-76.2291
-76.8599
-57.1814
-57.4632
-58.0294
-58.8847
-60.0339
-61.4792
-63.216
-65.2263
-67.4706
-69.8783
-72.3375
-74.6909
-76.7409
-78.2725
-79.0953
-55.6211
-55.9266
-56.5428
-57.4794
-58.749
-60.3641
-62.3326
-64.6498
-67.2872
-70.178
-73.1998
-76.1606
-78.7987
-80.808
-81.9021
-53.8487
-54.1744
-54.8339
-55.843
-57.2242
-59.0037
-61.2072
-63.8508
-66.9278
-70.3869
-74.1044
-77.8545
-81.2929
-83.9791
-85.4686
-51.8503
-52.1904
-52.8821
-53.9483
-55.4228
-57.3489
-59.776
-62.751
-66.3031
-70.4162
-74.9862
-79.7649
-84.3093
-87.9811
-90.0694
-49.6157
-49.9623
-50.6704
-51.7701
-53.3078
-55.3464
-57.9644
-61.2504
-65.2888
-70.1283
-75.7229
-81.8379
-87.9315
-93.0828
-96.1202
-47.1405
-47.4833
-48.1868
-49.2879
-50.845
-52.9415
-55.6889
-59.2274
-63.7183
-69.3159
-76.0983
-83.9256
-92.2081
-99.6522
-104.28
-44.4274
-44.754
-45.4273
-46.4891
-48.0077
-50.0848
-52.8641
-56.543
-61.3791
-67.6807
-75.7481
-85.697
-97.0667
-108.177
-115.654
-41.4875
-41.7841
-42.398
-43.3731
-44.7828
-46.7403
-49.4147
-53.0551
-58.0221
-64.8194
-74.0912
-86.4817
-102.105
-119.225
-132.22
-38.3418
-38.5941
-39.118
-39.9554
-41.1776
-42.8982
-45.2946
-48.646
-53.3941
-60.2395
-70.2686
-85.0209
-106.105
-133.137
-157.809
-35.0211
-35.2156
-35.6205
-36.2707
-37.2265
-38.5867
-40.5115
-43.2671
-47.3095
-53.449
-63.1659
-79.1629
-105.975
-148.686
-200.532
-31.5655
-31.6911
-31.9528
-32.3739
-32.9949
-33.8832
-35.1515
-36.9946
-39.7689
-44.1742
-51.702
-65.7946
-94.8031
-157.892
-279.258
-28.023
-28.0723
-28.1747
-28.3384
-28.5777
-28.916
-29.3924
-30.0756
-31.0957
-32.7313
-35.6793
-42.0681
-59.9645
-126.626
-442.265
-24.4464
-24.4168
-24.3542
-24.2507
-24.0919
-23.853
-23.49
-22.9227
-21.9955
-20.3772
-17.2677
-10.3502
8.73901
77.5399
395.801
-20.8906
-20.7846
-20.5624
-20.2015
-19.662
-18.8763
-17.7295
-16.0201
-13.3754
-9.05904
-1.50078
12.9147
42.9203
108.469
234.623
-17.4087
-17.2332
-16.8671
-16.2766
-15.4033
-14.1505
-12.3601
-9.7674
-5.91649
0.00721656
9.50364
25.353
52.4183
97.3087
161.057
22.2949
9.10156
3.79995
1.05268
-0.613235
-1.71844
-2.49156
-3.05018
-3.46154
-3.76695
-3.99305
-4.1575
-4.27212
-4.34466
-4.37982
14.0961
8.63523
4.64279
2.04152
0.30959
-0.88952
-1.74791
-2.37733
-2.8458
-3.19656
-3.45802
-3.64927
-3.78317
-3.86818
-3.90947
9.68954
7.14907
4.51949
2.42664
0.862397
-0.29721
-1.16324
-1.81622
-2.31179
-2.68816
-2.97173
-3.18084
-3.32813
-3.42204
-3.46776
7.04709
5.72473
4.02343
2.44465
1.1342
0.0912246
-0.726502
-1.36442
-1.86054
-2.24417
-2.53712
-2.75532
-2.91014
-3.00934
-3.05778
5.3229
4.5635
3.44224
2.27631
1.22024
0.323237
-0.414632
-1.01107
-1.48739
-1.86313
-2.1544
-2.3738
-2.53074
-2.63187
-2.6814
4.12602
3.65353
2.89203
2.03167
1.1958
0.444737
-0.200976
-0.741126
-1.18409
-1.54073
-1.82156
-2.03563
-2.19008
-2.2902
-2.33941
3.25723
2.94421
2.41047
1.76999
1.11246
0.493072
-0.0606248
-0.538667
-0.940722
-1.27095
-1.53508
-1.73883
-1.88714
-1.98385
-2.03156
2.60579
2.38815
2.003
1.52014
1.00263
0.495782
0.0271881
-0.388974
-0.747224
-1.04707
-1.29053
-1.48052
-1.62002
-1.71153
-1.75683
2.10547
1.94841
1.66336
1.29435
0.885388
0.471921
0.0785895
-0.279493
-0.594275
-0.862352
-1.08308
-1.25725
-1.3862
-1.47128
-1.51354
1.7142
1.59752
1.38201
1.09629
0.771266
0.434072
0.105512
-0.200081
-0.473753
-0.710502
-0.907966
-1.06538
-1.18284
-1.26076
-1.29959
1.40393
1.31527
1.1494
0.925521
0.665586
0.390224
0.116484
-0.142835
-0.378868
-0.585927
-0.760651
-0.901251
-1.00692
-1.07737
-1.11259
1.15522
1.08662
0.957057
0.779782
0.570615
0.345246
0.11744
-0.101757
-0.304101
-0.483802
-0.637026
-0.761374
-0.855438
-0.918451
-0.950032
0.95415
0.900287