/*--------------------------------*- C++ -*----------------------------------*\
| =========                 |                                                 |
| \\      /  F ield         | OpenFOAM: The Open Source CFD Toolbox           |
|  \\    /   O peration     | Version:  5.x                                   |
|   \\  /    A nd           | Web:      www.OpenFOAM.org                      |
|    \\/     M anipulation  |                                                 |
\*---------------------------------------------------------------------------*/
FoamFile
{
    version     2.0;
    format      ascii;
    class       volScalarField;
    location    "3.6";
    object      gradTx;
}
// * * * * * * * * * * * * * * * * * * * * * * * * * * * * * * * * * * * * * //

dimensions      [0 -1 0 1 0 0 0];

internalField   nonuniform List<scalar> 
2048
(
0.00773434
0.0229668
0.037513
0.050986
0.0630926
0.0736471
0.0825701
0.0898737
0.095639
0.0999909
0.103076
0.105045
0.106044
0.106211
0.105673
0.104551
0.102962
0.101013
0.098807
0.096433
0.093966
0.0914638
0.088967
0.0865002
0.0840751
0.0816941
0.0793523
0.0770403
0.0747443
0.0724474
0.07013
0.0677712
0.0653509
0.0628521
0.0602621
0.0575732
0.054782
0.0518872
0.0488871
0.0457777
0.0425511
0.039196
0.0356995
0.0320503
0.0282424
0.0242791
0.0201764
0.0159662
0.0116974
0.00743723
0.00327045
-0.000701913
-0.00436605
-0.00760069
-0.0102846
-0.0123063
-0.0135747
-0.0140298
-0.0136518
-0.0124665
-0.0105461
-0.00800606
-0.00499755
-0.00169853
0.0230603
0.0684639
0.111786
0.151858
0.187802
0.21907
0.245439
0.266963
0.283904
0.296648
0.305643
0.311343
0.314185
0.314571
0.312881
0.309469
0.304679
0.298835
0.292239
0.285159
0.277818
0.270387
0.262985
0.255683
0.248512
0.241477
0.234562
0.227738
0.220965
0.214191
0.207357
0.200401
0.19326
0.185883
0.178233
0.170287
0.162037
0.15348
0.144614
0.135429
0.125899
0.115991
0.105664
0.0948814
0.0836214
0.0718913
0.0597367
0.0472496
0.0345745
0.02191
0.00950835
-0.00232913
-0.0132616
-0.0229243
-0.030951
-0.0370031
-0.0408023
-0.0421642
-0.0410256
-0.0374617
-0.0316893
-0.0240552
-0.0150142
-0.00510233
0.0382585
0.113546
0.185268
0.251442
0.310595
0.361838
0.404849
0.439775
0.467108
0.48754
0.501842
0.510782
0.515079
0.51539
0.512328
0.506469
0.498372
0.488574
0.477577
0.465828
0.453697
0.441464
0.429319
0.417368
0.405656
0.394182
0.382916
0.371809
0.360792
0.349782
0.338677
0.32737
0.315755
0.303742
0.291269
0.278303
0.264833
0.250865
0.236399
0.22142
0.20589
0.189747
0.172916
0.155327
0.136936
0.117744
0.0978202
0.0773092
0.0564452
0.0355531
0.0150489
-0.00456748
-0.0227263
-0.038813
-0.0522051
-0.0623217
-0.0686807
-0.0709576
-0.069035
-0.063033
-0.0533148
-0.0404658
-0.0252525
-0.00858023
0.0536429
0.159122
0.259376
0.351527
0.433488
0.504058
0.562879
0.610282
0.647075
0.674324
0.69317
0.704711
0.709943
0.709762
0.704987
0.696401
0.684771
0.670845
0.655331
0.638861
0.621955
0.605
0.588243
0.571818
0.555764
0.540065
0.524673
0.509516
0.494501
0.479509
0.464396
0.449001
0.433168
0.416767
0.399706
0.381944
0.363481
0.344337
0.324525
0.304034
0.282809
0.260755
0.237753
0.213687
0.188475
0.162102
0.134647
0.106302
0.077382
0.0483347
0.0197365
-0.00771261
-0.033207
-0.0558672
-0.074792
-0.0891288
-0.0981604
-0.101394
-0.0986386
-0.0900542
-0.0761583
-0.0577927
-0.0360577
-0.0122496
0.0694975
0.206011
0.335366
0.453679
0.558211
0.647489
0.721219
0.780042
0.825207
0.858253
0.880752
0.89415
0.899711
0.898538
0.89163
0.879953
0.864471
0.846149
0.825916
0.804603
0.782887
0.761258
0.74001
0.719279
0.699082
0.679376
0.660083
0.641113
0.62235
0.603641
0.584795
0.565591
0.54581
0.525267
0.503845
0.481499
0.458249
0.434145
0.409231
0.383503
0.356891
0.329261
0.300432
0.270223
0.238498
0.205208
0.170431
0.134394
0.0974883
0.0602777
0.0234968
-0.0119521
-0.0450173
-0.0745339
-0.0992886
-0.118115
-0.130014
-0.134283
-0.130631
-0.11925
-0.100828
-0.0764912
-0.0477105
-0.0162053
0.0860943
0.254991
0.414419
0.559335
0.686302
0.793639
0.881258
0.950279
1.00256
1.04024
1.06539
1.07984
1.08507
1.08237
1.07287
1.05768
1.03795
1.01489
0.989667
0.963331
0.936733
0.910462
0.884842
0.859982
0.835852
0.812356
0.789387
0.766837
0.744577
0.722426
0.700139
0.677419
0.653967
0.629534
0.603966
0.577226
0.549368
0.520499
0.490706
0.460011
0.428327
0.395467
0.361171
0.325169
0.287243
0.247294
0.205383
0.161764
0.116897
0.0714549
0.0263276
-0.0173797
-0.0583583
-0.0951331
-0.126138
-0.149835
-0.164883
-0.170312
-0.165691
-0.15124
-0.127836
-0.0969405
-0.0604414
-0.0205243
0.103707
0.306837
0.497691
0.669864
0.819174
0.943828
1.04413
1.12192
1.17988
1.22089
1.24763
1.26227
1.26653
1.26177
1.24919
1.23003
1.20562
1.1774
1.14684
1.11526
1.08368
1.0528
1.02294
0.994148
0.966305
0.939243
0.912816
0.886911
0.861403
0.836091
0.810669
0.784746
0.757916
0.729843
0.700333
0.66936
0.637042
0.603567
0.569099
0.533699
0.497265
0.459542
0.420161
0.378733
0.334932
0.288582
0.239715
0.188603
0.135766
0.0819827
0.0282895
-0.0240071
-0.0733333
-0.117877
-0.155671
-0.184738
-0.20331
-0.210074
-0.204413
-0.18656
-0.157623
-0.119457
-0.0744379
-0.0252685
0.122621
0.362353
0.586357
0.786615
0.95816
1.09922
1.21077
1.29566
1.35763
1.40055
1.42774
1.44175
1.44442
1.4371
1.42099
1.39738
1.36778
1.33394
1.29765
1.26053
1.22386
1.18841
1.15448
1.12199
1.09068
1.06028
1.0306
1.00154
0.973027
0.944841
0.91661
0.88782
0.857922
0.826463
0.793195
0.758119
0.721445
0.683485
0.64452
0.604668
0.563817
0.52162
0.477567
0.431108
0.381773
0.329287
0.273638
0.215108
0.154275
0.0920127
0.0294965
-0.0317747
-0.0899597
-0.142885
-0.188127
-0.223184
-0.24576
-0.254102
-0.247334
-0.225693
-0.190568
-0.1443
-0.0898464
-0.0304843
0.143145
0.422397
0.681647
0.910961
1.10455
1.26088
1.38192
1.47192
1.53605
1.57931
1.6058
1.61839
1.61894
1.60865
1.5886
1.56006
1.52474
1.48472
1.44222
1.39926
1.35737
1.31743
1.27964
1.24372
1.20921
1.1757
1.14295
1.11093
1.07962
1.04886
1.01817
0.98688
0.954249
0.919662
0.8828
0.843706
0.802728
0.760358
0.717038
0.67298
0.628059
0.581808
0.533532
0.482469
0.427965
0.369617
0.307357
0.241478
0.172613
0.101723
0.0301069
-0.0405607
-0.108178
-0.170191
-0.223661
-0.265462
-0.292643
-0.302881
-0.29495
-0.269075
-0.226995
-0.171675
-0.106771
-0.0362022
0.165618
0.487904
0.784877
1.04432
1.2596
1.42973
1.55815
1.65094
1.7151
1.75704
1.78169
1.79218
1.7902
1.77666
1.75231
1.71837
1.67673
1.62991
1.58065
1.53148
1.48426
1.43994
1.39856
1.35956
1.32216
1.28576
1.2501
1.21524
1.18135
1.14829
1.11553
1.08215
1.04716
1.00971
0.969391
0.926316
0.881024
0.834257
0.786687
0.738659
0.690034
0.640189
0.588181
0.532981
0.473698
0.409771
0.341072
0.26791
0.190975
0.111309
0.0303143
-0.0501889
-0.127859
-0.199751
-0.262352
-0.311797
-0.344322
-0.356869
-0.347736
-0.317107
-0.267181
-0.201727
-0.125265
-0.042434
0.190419
0.559909
0.897473
1.18817
1.42457
1.60663
1.73984
1.83271
1.89453
1.9334
1.95513
1.96298
1.95826
1.94131
1.91242
1.8726
1.82399
1.76965
1.71301
1.6572
1.60453
1.55601
1.5114
1.46973
1.42981
1.39074
1.35226
1.31464
1.27831
1.24328
1.20886
1.17386
1.13691
1.09688
1.05322
1.00614
0.956445
0.905226
0.853464
0.801691
0.749754
0.696821
0.641627
0.582799
0.519154
0.44994
0.374971
0.294587
0.20955
0.120975
0.030338
-0.0604364
-0.148807
-0.231448
-0.304209
-0.362356
-0.401122
-0.416506
-0.406158
-0.370171
-0.311349
-0.234531
-0.145329
-0.0491695
0.217973
0.639563
1.02099
1.3441
1.60071
1.79232
1.92722
2.01705
2.07387
2.10784
2.12569
2.13056
2.1231
2.1028
2.06921
2.02306
1.96675
1.90407
1.83928
1.77637
1.71814
1.66567
1.61832
1.5745
1.53246
1.49094
1.44966
1.40926
1.3706
1.3339
1.29831
1.26222
1.22379
1.18147
1.13454
1.08335
1.02909
0.973279
0.917328
0.862027
0.807204
0.751747
0.693971
0.632075
0.564511
0.490305
0.409224
0.321679
0.228517
0.130923
0.0304146
-0.0710409
-0.17077
-0.265091
-0.34917
-0.41725
-0.463338
-0.482231
-0.470689
-0.428631
-0.359667
-0.270087
-0.16689
-0.0563715
0.248763
0.728153
1.15715
1.51376
1.78924
1.98742
2.12034
2.20352
2.25244
2.27964
2.29279
2.29463
2.2847
2.26133
2.22304
2.17007
2.10524
2.03325
1.95946
1.88887
1.82501
1.76895
1.71948
1.67414
1.63045
1.58669
1.54254
1.4992
1.45825
1.42022
1.38401
1.34745
1.30807
1.26379
1.21363
1.15815
1.09904
1.0384
0.978203
0.919581
0.862343
0.804994
0.745304
0.680953
0.609946
0.531036
0.443986
0.34933
0.248031
0.141344
0.0307885
-0.0817078
-0.193437
-0.300422
-0.397106
-0.476536
-0.531235
-0.554488
-0.541828
-0.49285
-0.412243
-0.308295
-0.189797
-0.0639711
0.283335
0.827118
1.30783
1.69895
1.9914
2.19244
2.3191
2.39153
2.42933
2.4479
2.45578
2.45485
2.44304
2.41715
2.3743
2.31402
2.2397
2.1573
2.07347
1.99456
1.92499
1.86586
1.81504
1.76895
1.72419
1.67836
1.63112
1.58453
1.54125
1.50225
1.46606
1.42974
1.39005
1.34418
1.29077
1.2307
1.16636
1.10056
1.03597
0.974231
0.915107
0.856579
0.795717
0.729582
0.655634
0.572295
0.479384
0.377657
0.268224
0.15241
0.0317025
-0.0921176
-0.216446
-0.337113
-0.447816
-0.540216
-0.605049
-0.633733
-0.620121
-0.5632
-0.469115
-0.348944
-0.213798
-0.0718625
0.322315
0.938067
1.47508
1.90157
2.20834
2.40772
2.52318
2.58028
2.60347
2.61157
2.61393
2.61088
2.5981
2.57053
2.52345
2.4553
2.37037
2.27629
2.18123
2.09321
2.01791
1.95637
1.90521
1.85928
1.81409
1.76639
1.71567
1.66528
1.61951
1.57996
1.54457
1.50931
1.47005
1.423
1.36625
1.30119
1.23112
1.15969
1.09049
1.02582
0.965414
0.906516
0.845293
0.778112
0.701758
0.614231
0.515521
0.406744
0.28919
0.164265
0.0333888
-0.101933
-0.239387
-0.374769
-0.501033
-0.608231
-0.684975
-0.720443
-0.706183
-0.640079
-0.530242
-0.391683
-0.238531
-0.0798973
0.366419
1.06278
1.66115
2.12363
2.4412
2.63344
2.73213
2.7688
2.77356
2.76944
2.76643
2.76239
2.74988
2.72183
2.67106
2.59437
2.49748
2.39032
2.28261
2.18453
2.10351
2.04047
1.9902
1.94548
1.90067
1.85128
1.79644
1.7414
1.69289
1.6533
1.61961
1.58635
1.5484
1.50068
1.44041
1.36978
1.29338
1.21571
1.14155
1.07415
1.01317
0.954824
0.894116
0.826693
0.748514
0.656984
0.552465
0.436642
0.310989
0.177017
0.0360599
-0.110807
-0.261807
-0.412926
-0.556422
-0.680466
-0.771159
-0.815112
-0.800734
-0.723931
-0.595484
-0.436002
-0.263503
-0.0878816
0.416482
1.20324
1.86848
2.36731
2.69097
2.86952
2.94535
2.95596
2.93813
2.92016
2.91249
2.9091
2.89837
2.87141
2.81783
2.73172
2.62126
2.49947
2.37748
2.26818
2.18148
2.11814
2.07026
2.02793
1.98445
1.93365
1.87372
1.81279
1.76113
1.72215
1.69127
1.66103
1.62543
1.57768
1.51356
1.43663
1.35319
1.26853
1.18891
1.11898
1.05827
1.00154
0.942261
0.875481
0.796118
0.700682
0.590243
0.467364
0.33364
0.190729
0.0398994
-0.118393
-0.283212
-0.451055
-0.613588
-0.756744
-0.863672
-0.918248
-0.904643
-0.815277
-0.664578
-0.481194
-0.288083
-0.0955737
0.473494
1.36158
2.09964
2.63498
2.95852
3.11559
3.16215
3.14057
3.09553
3.06226
3.05131
3.05086
3.04359
3.01972
2.96461
2.86788
2.74187
2.6039
2.4657
2.34369
2.25142
2.18935
2.14574
2.10701
2.06602
2.01422
1.94782
1.87922
1.82388
1.7864
1.75968
1.73351
1.7015
1.65455
1.58604
1.50185
1.41063
1.31804
1.2323
1.16003
1.10062
1.04671
0.98979
0.924629
0.844824
0.745442
0.628836
0.498894
0.357123
0.205413
0.0450538
-0.124348
-0.303076
-0.488559
-0.672077
-0.836843
-0.962484
-1.03035
-1.01898
-0.914752
-0.73711
-0.52633
-0.311493
-0.102687
0.538664
1.54012
2.35734
2.92924
3.24446
3.37088
3.38179
3.32135
3.24391
3.19411
3.18217
3.18764
3.18545
3.1672
3.11249
3.00339
2.85936
2.70379
2.54712
2.41053
2.31285
2.25412
2.21702
2.18304
2.14597
2.09391
2.01907
1.94036
1.88065
1.84589
1.82501
1.80388
1.77695
1.73196
1.6582
1.56548
1.46581
1.36415
1.27136
1.19696
1.14013
1.09046
1.03674
0.974281
0.894946
0.791365
0.668158
0.531189
0.381384
0.221025
0.0516246
-0.128349
-0.320842
-0.524769
-0.73139
-0.920505
-1.06741
-1.15186
-1.14511
-1.02314
-0.812457
-0.570222
-0.332815
-0.108894
0.61353
1.74132
2.64434
3.25308
3.54911
3.63411
3.60361
3.49704
3.38123
3.31393
3.30443
3.31971
3.32377
3.31426
3.2629
3.13875
2.97363
2.79951
2.62167
2.46802
2.36514
2.31247
2.28468
2.25626
2.2249
2.17388
2.08785
1.99569
1.93082
1.90049
1.88752
1.87214
1.85208
1.81075
1.73034
1.62748
1.51891
1.40678
1.30567
1.22937
1.17673
1.13297
1.08308
1.02456
0.94689
0.83853
0.708041
0.564201
0.406335
0.237456
0.059663
-0.130099
-0.335934
-0.558943
-0.790996
-1.00748
-1.17807
-1.28314
-1.28476
-1.14146
-0.889722
-0.611393
-0.350998
-0.113841
0.700133
1.96771
2.96329
3.61004
3.87236
3.9033
3.82724
3.66644
3.50522
3.41977
3.41759
3.4477
3.45808
3.46122
3.41774
3.27438
3.08425
2.8916
2.6893
2.51531
2.40756
2.36452
2.34947
2.32673
2.30336
2.25564
2.15456
2.04446
1.97357
1.95007
1.94766
1.93812
1.92715
1.892
1.80272
1.68764
1.57023
1.44589
1.33473
1.2568
1.21039
1.17455
1.1287
1.07554
1.00121
0.886985
0.748205
0.597896
0.431865
0.254523
0.0691658
-0.129334
-0.347761
-0.590248
-0.850342
-1.09758
-1.2938
-1.42431
-1.4402
-1.271
-0.967623
-0.648048
-0.364897
-0.117165
0.801296
2.22181
3.31652
4.00454
4.21345
4.1755
4.05281
3.82849
3.61331
3.50946
3.52134
3.57282
3.58753
3.60819
3.57961
3.41055
3.19039
2.98099
2.75005
2.55137
2.43917
2.41042
2.41249
2.3942
2.38176
2.34121
2.21959
2.08569
2.0079
1.99458
2.00615
2.00142
2.00228
1.97719
1.87551
1.74549
1.62027
1.48146
1.35793
1.27867
1.24113
1.21569
1.17335
1.12722
1.05867
0.936721
0.788211
0.632296
0.457848
0.271957
0.0800762
-0.125842
-0.355737
-0.617741
-0.908862
-1.19079
-1.41353
-1.57515
-1.61444
-1.41341
-1.04435
-0.678062
-0.373315
-0.118515
0.921057
2.50599
3.70573
4.44237
4.57085
4.44652
4.28136
3.9823
3.70259
3.5806
3.61555
3.69711
3.71056
3.75497
3.75217
3.54722
3.29053
3.0692
2.80407
2.57493
2.45885
2.45042
2.47533
2.45799
2.46028
2.43329
2.28334
2.11802
2.03259
2.03399
2.06415
2.06125
2.07742
2.06834
1.9487
1.80021
1.66984
1.51355
1.37453
1.2943
1.26899
1.25719
1.21652
1.17947
1.12038
0.987644
0.82741
0.66754
0.484148
0.289391
0.0922901
-0.119464
-0.359298
-0.640344
-0.965977
-1.28739
-1.53576
-1.73485
-1.81143
-1.57084
-1.11737
-0.698978
-0.375072
-0.117584
1.06532
2.82227
4.13146
4.93137
4.94184
4.7104
4.51539
4.12715
3.76973
3.63048
3.70025
3.82385
3.82464
3.90078
3.94056
3.6839
3.38221
3.15862
2.85157
2.58438
2.46523
2.48481
2.54031
2.51671
2.53875
2.53556
2.34607
2.13969
2.04615
2.06835
2.12344
2.11625
2.15218
2.16828
2.02203
1.85044
1.72025
1.54224
1.3836
1.30291
1.29407
1.3002
1.25739
1.232
1.18791
1.03952
0.864857
0.703968
0.510616
0.306339
0.105669
-0.110113
-0.357931
-0.656796
-1.02107
-1.38821
-1.65832
-1.90172
-2.03647
-1.74599
-1.18314
-0.708051
-0.369096
-0.114136
1.24278
3.17207
4.59242
5.48245
5.32219
4.9589
4.75962
4.2624
3.81087
3.65609
3.77555
3.95803
3.92576
4.04406
4.15206
3.81937
3.46161
3.25295
2.89278
2.57777
2.45666
2.5139
2.61081
2.56804
2.61646
2.65306
2.40785
2.1485
2.04689
2.09773
2.18673
2.16429
2.22578
2.28102
2.09484
1.8941
1.7735
1.56764
1.38403
1.30355
1.31648
1.34652
1.29464
1.28421
1.26352
1.09192
0.899214
0.74224
0.537087
0.322168
0.120067
-0.0977782
-0.351221
-0.665605
-1.07345
-1.49488
-1.77834
-2.07278
-2.29663
-1.94228
-1.23675
-0.702331
-0.354522
-0.108041
1.46626
3.55578
5.08449
6.11098
5.70553
5.18066
5.02197
4.38733
3.82152
3.65405
3.84147
4.1071
4.00789
4.18207
4.39691
3.95133
3.52313
3.3578
2.92782
2.55271
2.43121
2.53788
2.69173
2.60832
2.69191
2.79267
2.46829
2.14166
2.03286
2.12214
2.25802
2.20212
2.29676
2.41218
2.16587
1.92811
1.83268
1.58977
1.37448
1.29513
1.33626
1.39873
1.32626
1.33513
1.35042
1.14407
0.928618
0.783501
0.563348
0.336071
0.135361
-0.082536
-0.338906
-0.664986
-1.12222
-1.61021
-1.89204
-2.24317
-2.6013
-2.16392
-1.27146
-0.678817
-0.330811
-0.0992961
1.75451
3.97229
5.59944
6.83862
6.08267
5.36036
5.31494
4.5007
3.79649
3.62073
3.89759
4.28192
4.06227
4.31045
4.68945
4.07599
3.55872
3.48146
2.95648
2.50631
2.38671
2.55665
2.79009
2.63206
2.76255
2.96377
2.5263
2.11587
2.00192
2.14136
2.34315
2.22499
2.3628
2.56958
2.23304
1.94804
1.90231
1.6085
1.35333
1.27644
1.35329
1.46059
1.3493
1.38326
1.45312
1.19474
0.950523
0.829596
0.589095
0.347021
0.15151
-0.0645538
-0.320961
-0.652792
-1.16613
-1.73871
-1.99464
-2.40549
-2.96298
-2.41611
-1.27815
-0.6347
-0.297858
-0.0880442
2.13454
4.41834
6.12325
7.69574
6.44059
5.47747
5.65725
4.60021
3.72983
3.55227
3.94257
4.49791
4.07644
4.42264
5.04943
4.18741
3.55718
3.63592
2.97784
2.43522
2.32075
2.56946
2.9158
2.63145
2.82438
3.17902
2.57957
2.06723
1.95186
2.15471
2.45043
2.22617
2.42038
2.76404
2.2931
1.94776
1.98895
1.62328
1.31869
1.24613
1.36712
1.53742
1.3596
1.42639
1.57787
1.24206
0.961505
0.883346
0.613848
0.353731
0.168619
-0.0440919
-0.297698
-0.626451
-1.20332
-1.88719
-2.08021
-2.54884
-3.39812
-2.70505
-1.24456
-0.567722
-0.256097
-0.0745787
2.64473
4.88767
6.63393
8.72444
6.76127
5.50496
6.07603
4.68158
3.61485
3.44482
3.97338
4.77668
4.03324
4.50918
5.50374
4.27683
3.50329
3.8381
2.98973
2.33558
2.23083
2.57449
3.08265
2.59557
2.87155
3.45539
2.62409
1.99138
1.88046
2.1606
2.59146
2.19635
2.46439
3.01021
2.34126
1.91892
2.10189
1.6329
1.26842
1.20283
1.37669
1.63663
1.35137
1.46137
1.7332
1.28323
0.957047
0.948895
0.636828
0.354607
0.187023
-0.021497
-0.269892
-0.582912
-1.23097
-2.06546
-2.14166
-2.65778
-3.92826
-3.03808
-1.1545
-0.47667
-0.206563
-0.0593296
3.33858
5.37006
7.099
9.9822
7.02014
5.4077
6.60937
4.73723
3.44429
3.29484
3.98427
5.14783
3.90949
4.55687
6.08837
4.33169
3.37683
4.11142
2.98797
2.20316
2.11452
2.56818
3.30948
2.50968
2.89584
3.81535
2.65322
1.88357
1.78574
2.15605
2.78217
2.12301
2.4877
3.32775
2.37064
1.85042
2.25396
1.63504
1.20013
1.14525
1.38004
1.76837
1.31678
1.48388
1.93053
1.31424
0.931285
1.03213
0.656788
0.347696
0.207393
0.00280939
-0.238927
-0.518622
-1.2448
-2.28719
-2.17068
-2.71094
-4.58127
-3.4237
-0.986851
-0.362035
-0.150907
-0.042835
4.28928
5.85006
7.47238
11.5463
7.18425
5.14073
7.30942
4.75464
3.21049
3.09957
3.96537
5.65124
3.67458
4.54782
6.85071
4.33457
3.15146
4.48766
2.96535
2.03349
1.96977
2.54436
3.62166
2.35422
2.8861
4.28827
2.65683
1.73894
1.66623
2.13588
3.044
1.98958
2.48061
3.7425
2.37172
1.72781
2.46259
1.62571
1.11135
1.07227
1.37374
1.94627
1.24545
1.48813
2.18496
1.32946
0.876745
1.14116
0.671784
0.330656
0.23085
0.0283533
-0.206966
-0.429535
-1.23847
-2.57086
-2.15781
-2.67955
-5.39292
-3.87154
-0.714511
-0.226837
-0.0913319
-0.0256952
5.59515
6.30559
7.69083
13.519
7.21011
4.64729
8.2459
4.71416
2.90589
2.85761
3.90094
6.33969
3.28882
4.45834
7.85215
4.26197
2.79351
5.00905
2.91034
1.82216
1.79527
2.49316
4.05275
2.10385
2.82758
4.912
2.61993
1.55285
1.52128
2.09181
3.40532
1.77462
2.43025
4.28795
2.33167
1.53263
2.75096
1.59856
0.999571
0.983243
1.3524
2.18838
1.12391
1.46652
2.51601
1.32126
0.78405
1.28692
0.678876
0.300721
0.259088
0.0546391
-0.177119
-0.31119
-1.20281
-2.94079
-2.09265
-2.52562
-6.40846
-4.39226
-0.303171
-0.077642
-0.0304301
-0.00851728
)
;

boundaryField
{
    left
    {
        type            calculated;
        value           uniform 0;
    }
    right
    {
        type            calculated;
        value           uniform 0;
    }
    interface
    {
        type            calculated;
        value           nonuniform List<scalar> 
64
(
5.59515
6.30559
7.69083
13.519
7.21011
4.64729
8.2459
4.71416
2.90589
2.85761
3.90094
6.33969
3.28882
4.45834
7.85215
4.26197
2.79351
5.00905
2.91034
1.82216
1.79527
2.49316
4.05275
2.10385
2.82758
4.912
2.61993
1.55285
1.52128
2.09181
3.40532
1.77462
2.43025
4.28795
2.33167
1.53263
2.75096
1.59856
0.999571
0.983243
1.3524
2.18838
1.12391
1.46652
2.51601
1.32126
0.78405
1.28692
0.678876
0.300721
0.259088
0.0546391
-0.177119
-0.31119
-1.20281
-2.94079
-2.09265
-2.52562
-6.40846
-4.39226
-0.303171
-0.077642
-0.0304301
-0.00851728
)
;
    }
    bottom
    {
        type            calculated;
        value           nonuniform List<scalar> 
64
(
0.00773434
0.0229668
0.037513
0.050986
0.0630926
0.0736471
0.0825701
0.0898737
0.095639
0.0999909
0.103076
0.105045
0.106044
0.106211
0.105673
0.104551
0.102962
0.101013
0.098807
0.096433
0.093966
0.0914638
0.088967
0.0865002
0.0840751
0.0816941
0.0793523
0.0770403
0.0747443
0.0724474
0.07013
0.0677712
0.0653509
0.0628521
0.0602621
0.0575732
0.054782
0.0518872
0.0488871
0.0457777
0.0425511
0.039196
0.0356995
0.0320503
0.0282424
0.0242791
0.0201764
0.0159662
0.0116974
0.00743723
0.00327045
-0.000701913
-0.00436605
-0.00760069
-0.0102846
-0.0123063
-0.0135747
-0.0140298
-0.0136518
-0.0124665
-0.0105461
-0.00800606
-0.00499755
-0.00169853
)
;
    }
    defaultFaces
    {
        type            empty;
    }
}


// ************************************************************************* //
