/*--------------------------------*- C++ -*----------------------------------*\
| =========                 |                                                 |
| \\      /  F ield         | OpenFOAM: The Open Source CFD Toolbox           |
|  \\    /   O peration     | Version:  5.x                                   |
|   \\  /    A nd           | Web:      www.OpenFOAM.org                      |
|    \\/     M anipulation  |                                                 |
\*---------------------------------------------------------------------------*/
FoamFile
{
    version     2.0;
    format      ascii;
    class       volScalarField;
    location    "3.6";
    object      T;
}
// * * * * * * * * * * * * * * * * * * * * * * * * * * * * * * * * * * * * * //

dimensions      [0 0 0 1 0 0 0];

internalField   nonuniform List<scalar> 
2048
(
9.80242
9.80266
9.80314
9.80383
9.80473
9.8058
9.80703
9.80838
9.80984
9.81137
9.81296
9.81459
9.81625
9.81791
9.81957
9.82121
9.82283
9.82443
9.82599
9.82752
9.829
9.83045
9.83186
9.83323
9.83456
9.83586
9.83712
9.83834
9.83953
9.84068
9.84179
9.84287
9.84391
9.84491
9.84587
9.84679
9.84767
9.8485
9.84929
9.85003
9.85072
9.85136
9.85195
9.85248
9.85295
9.85336
9.85371
9.85399
9.85421
9.85436
9.85444
9.85446
9.85442
9.85432
9.85418
9.854
9.85379
9.85358
9.85336
9.85315
9.85297
9.85282
9.85272
9.85266
9.4157
9.41642
9.41784
9.41991
9.42258
9.42578
9.42943
9.43345
9.43777
9.44232
9.44704
9.45187
9.45677
9.46169
9.4666
9.47147
9.47627
9.48099
9.48561
9.49012
9.49452
9.4988
9.50297
9.50702
9.51096
9.51479
9.51851
9.52212
9.52562
9.52902
9.53232
9.5355
9.53858
9.54154
9.54439
9.54711
9.54971
9.55218
9.55451
9.5567
9.55874
9.56063
9.56236
9.56393
9.56533
9.56654
9.56757
9.56841
9.56905
9.56949
9.56974
9.56979
9.56966
9.56937
9.56895
9.56841
9.56779
9.56713
9.56647
9.56585
9.5653
9.56486
9.56455
9.56439
9.04534
9.04654
9.04889
9.05233
9.05675
9.06203
9.06806
9.07469
9.0818
9.08928
9.09703
9.10496
9.113
9.12106
9.1291
9.13707
9.14493
9.15265
9.1602
9.16757
9.17475
9.18175
9.18855
9.19516
9.20159
9.20784
9.21391
9.21981
9.22553
9.23108
9.23646
9.24167
9.24669
9.25153
9.25618
9.26063
9.26488
9.26891
9.27272
9.2763
9.27964
9.28273
9.28557
9.28814
9.29042
9.29242
9.2941
9.29547
9.29652
9.29724
9.29763
9.29771
9.29749
9.297
9.29627
9.29536
9.29433
9.29322
9.29211
9.29106
9.29014
9.28939
9.28887
9.28861
8.69036
8.69203
8.69533
8.70014
8.70632
8.71369
8.72207
8.73128
8.74114
8.7515
8.76221
8.77316
8.78423
8.79535
8.80641
8.81738
8.82818
8.83877
8.84914
8.85925
8.86911
8.87869
8.88801
8.89707
8.90588
8.91444
8.92276
8.93084
8.93868
8.94629
8.95366
8.9608
8.9677
8.97434
8.98072
8.98683
8.99266
8.99819
9.00342
9.00833
9.01292
9.01717
9.02107
9.0246
9.02774
9.03049
9.03281
9.03469
9.03613
9.03711
9.03764
9.03773
9.0374
9.03669
9.03565
9.03435
9.03287
9.03129
9.0297
9.0282
9.02689
9.02582
9.02508
9.0247
8.34984
8.35201
8.35628
8.36249
8.37045
8.37994
8.39069
8.40247
8.41506
8.42826
8.44189
8.45578
8.46983
8.4839
8.49791
8.51176
8.52541
8.53878
8.55185
8.56459
8.57699
8.58905
8.60078
8.61218
8.62326
8.63403
8.64449
8.65465
8.66452
8.6741
8.68339
8.69238
8.70106
8.70943
8.71748
8.72518
8.73252
8.7395
8.74609
8.75229
8.75807
8.76344
8.76836
8.77283
8.77681
8.78028
8.78322
8.78561
8.78742
8.78865
8.7893
8.78939
8.78893
8.78798
8.7866
8.78488
8.78291
8.78082
8.77871
8.77673
8.77499
8.77358
8.7726
8.77209
8.02296
8.02565
8.03092
8.0386
8.0484
8.06004
8.0732
8.08758
8.1029
8.11891
8.13541
8.15221
8.16915
8.18612
8.20298
8.21964
8.23603
8.25208
8.26775
8.28301
8.29785
8.31228
8.3263
8.33993
8.35318
8.36605
8.37856
8.39072
8.40253
8.41399
8.4251
8.43587
8.44627
8.4563
8.46594
8.47518
8.48398
8.49234
8.50025
8.50768
8.51462
8.52106
8.52698
8.53235
8.53714
8.54133
8.54487
8.54775
8.54993
8.5514
8.55216
8.55222
8.55162
8.5504
8.54864
8.54646
8.54396
8.5413
8.53864
8.53612
8.53391
8.53213
8.53088
8.53024
7.70895
7.71219
7.71853
7.72774
7.73947
7.75334
7.76896
7.78597
7.80402
7.82284
7.84218
7.86183
7.88162
7.90141
7.92105
7.94044
7.95949
7.97812
7.99628
8.01396
8.03114
8.04782
8.06404
8.07979
8.0951
8.10999
8.12445
8.13851
8.15217
8.16543
8.1783
8.19076
8.20282
8.21445
8.22563
8.23633
8.24655
8.25624
8.26541
8.27403
8.28209
8.28957
8.29645
8.3027
8.30828
8.31316
8.3173
8.32065
8.32319
8.3249
8.32576
8.32578
8.32501
8.32349
8.32132
8.31862
8.31555
8.31227
8.30898
8.30588
8.30315
8.30096
8.29942
8.29863
7.4071
7.41093
7.41842
7.42926
7.44301
7.4592
7.47736
7.49704
7.51785
7.53946
7.56161
7.58408
7.60667
7.62922
7.65158
7.67362
7.69525
7.71637
7.73693
7.75692
7.77632
7.79516
7.81346
7.83124
7.84852
7.86532
7.88166
7.89753
7.91296
7.92794
7.94248
7.95658
7.97023
7.98339
7.99605
8.00818
8.01974
8.03072
8.0411
8.05087
8.06
8.06848
8.0763
8.08341
8.08977
8.09534
8.10006
8.10389
8.10678
8.10871
8.10966
8.10963
8.10867
8.10682
8.1042
8.10094
8.09723
8.09326
8.08929
8.08553
8.08223
8.07958
8.07772
8.07677
7.11676
7.12124
7.12996
7.14254
7.15843
7.17705
7.19783
7.22024
7.24383
7.26824
7.29318
7.31842
7.34376
7.36901
7.39403
7.41866
7.44278
7.46631
7.48918
7.51138
7.5329
7.55379
7.57407
7.59378
7.61294
7.63157
7.64968
7.66729
7.6844
7.70103
7.71717
7.73284
7.74801
7.76266
7.77675
7.79025
7.80312
7.81534
7.82688
7.83774
7.84791
7.85737
7.86609
7.87404
7.88117
7.88742
7.89272
7.89702
7.90027
7.90242
7.90345
7.90336
7.90218
7.89998
7.89686
7.89299
7.88856
7.88384
7.8791
7.87462
7.87069
7.86753
7.86533
7.86419
6.83731
6.84249
6.85256
6.86702
6.88519
6.90638
6.92987
6.95507
6.98147
7.00867
7.03637
7.06435
7.09238
7.12029
7.1479
7.17505
7.2016
7.22745
7.25253
7.27684
7.30039
7.32323
7.34539
7.36693
7.38788
7.40825
7.42806
7.44731
7.46603
7.48423
7.50192
7.51909
7.53573
7.55181
7.56729
7.58211
7.59623
7.60964
7.62231
7.63422
7.64539
7.65579
7.66539
7.67417
7.68205
7.68897
7.69486
7.69963
7.70323
7.7056
7.70671
7.70654
7.70514
7.70255
7.6989
7.69435
7.68915
7.68359
7.678
7.67272
7.66809
7.66437
7.66179
7.66046
6.56817
6.57412
6.58567
6.60217
6.6228
6.64669
6.67301
6.70105
6.73028
6.76026
6.7907
6.82136
6.85204
6.88255
6.91271
6.94232
6.97122
6.99932
7.02653
7.05285
7.07831
7.10299
7.12694
7.15022
7.17287
7.1949
7.21633
7.23716
7.25741
7.27711
7.29626
7.31488
7.33295
7.35041
7.36722
7.38332
7.39867
7.41321
7.42695
7.43988
7.45201
7.46331
7.47378
7.48337
7.492
7.49959
7.50606
7.51131
7.51526
7.51786
7.51904
7.5188
7.51715
7.51415
7.50992
7.50465
7.4986
7.49211
7.48558
7.47942
7.47401
7.46969
7.46668
7.46515
6.30879
6.3156
6.32877
6.3475
6.37078
6.39753
6.42679
6.45775
6.48982
6.52256
6.55569
6.58899
6.62227
6.65533
6.68798
6.72
6.7512
6.78146
6.8107
6.83894
6.86621
6.89263
6.91827
6.9432
6.96747
6.99109
7.01406
7.03639
7.0581
7.07922
7.09979
7.1198
7.13923
7.15804
7.17615
7.19349
7.21001
7.22565
7.24042
7.25432
7.26736
7.27954
7.29085
7.30123
7.3106
7.31887
7.32593
7.33166
7.33598
7.3388
7.34007
7.33975
7.33785
7.33441
7.32957
7.3235
7.31653
7.30902
7.30146
7.29432
7.28806
7.28308
7.27962
7.27786
6.05864
6.06641
6.08139
6.10257
6.1287
6.15849
6.19081
6.22475
6.25967
6.29514
6.33091
6.36679
6.40261
6.43818
6.47328
6.50765
6.54109
6.57344
6.60463
6.63468
6.66366
6.69171
6.71894
6.74544
6.77126
6.79639
6.82084
6.8446
6.86769
6.89017
6.91207
6.93342
6.95418
6.9743
6.99367
7.01222
7.02987
7.04657
7.06232
7.07714
7.09105
7.10408
7.11621
7.12737
7.13749
7.14643
7.15408
7.16031
7.165
7.16806
7.16942
7.16902
7.16686
7.16298
7.15748
7.15057
7.14258
7.13397
7.12526
7.11703
7.10985
7.10415
7.10022
7.09822
5.81723
5.82609
5.84308
5.86696
5.89617
5.92919
5.96469
6.00166
6.03942
6.07758
6.11592
6.15432
6.19263
6.23067
6.26817
6.30486
6.34048
6.37485
6.4079
6.43965
6.47023
6.49981
6.52854
6.55653
6.58382
6.61041
6.63627
6.66138
6.68578
6.70954
6.73273
6.75536
6.77741
6.7988
6.81941
6.83913
6.85787
6.87558
6.89226
6.90796
6.92271
6.93655
6.94948
6.96142
6.97228
6.98191
6.99016
6.99689
7.00196
7.00527
7.00673
7.00626
7.00385
6.9995
6.99331
6.9855
6.97643
6.9666
6.95663
6.94722
6.93903
6.93256
6.92812
6.92588
5.5841
5.59417
5.61341
5.64027
5.67284
5.70928
5.74808
5.78813
5.82871
5.86948
5.91032
5.95117
5.99191
6.03236
6.07224
6.11122
6.14897
6.18529
6.2201
6.25346
6.28552
6.31652
6.34665
6.37605
6.40476
6.43274
6.45996
6.48636
6.512
6.53697
6.56137
6.58524
6.60854
6.63117
6.653
6.67387
6.69367
6.71234
6.72991
6.74642
6.76196
6.77659
6.79029
6.80301
6.81461
6.82494
6.8338
6.84105
6.84651
6.85008
6.85165
6.85113
6.84846
6.84364
6.83675
6.82799
6.81774
6.80658
6.79523
6.78451
6.77523
6.76794
6.76299
6.76049
5.35877
5.37023
5.39199
5.42214
5.45835
5.49842
5.54065
5.5838
5.62717
5.67048
5.71371
5.75693
5.80004
5.84286
5.8851
5.92633
5.96617
6.00438
6.04087
6.07571
6.10913
6.14144
6.1729
6.20364
6.2337
6.26303
6.29155
6.31917
6.34597
6.37208
6.39763
6.42269
6.44721
6.47108
6.4941
6.51609
6.53691
6.55651
6.5749
6.59218
6.60847
6.62384
6.6383
6.65178
6.66414
6.67517
6.68467
6.69244
6.69831
6.70216
6.70385
6.70328
6.70038
6.6951
6.68748
6.67771
6.66621
6.65361
6.64074
6.62859
6.61812
6.60998
6.60449
6.60175
5.14083
5.15384
5.17843
5.21223
5.25241
5.29633
5.34208
5.38837
5.43446
5.48019
5.52571
5.5712
5.61662
5.66178
5.70635
5.74983
5.79172
5.83175
5.86983
5.90604
5.94071
5.97422
6.0069
6.03891
6.07027
6.10092
6.1307
6.15948
6.18735
6.21451
6.24117
6.26737
6.29307
6.31816
6.34238
6.36546
6.38727
6.40775
6.42691
6.4449
6.46188
6.47797
6.49318
6.50742
6.52054
6.5323
6.54243
6.55074
6.55704
6.56117
6.563
6.56241
6.5593
6.55356
6.5452
6.53439
6.52155
6.5074
6.49286
6.47913
6.46738
6.45836
6.45235
6.44936
4.92984
4.94464
4.97239
5.01025
5.05474
5.10271
5.1521
5.20152
5.25024
5.29826
5.34594
5.39361
5.44128
5.48872
5.53564
5.58137
5.62526
5.66705
5.70664
5.74411
5.77988
5.81446
5.84829
5.88152
5.91414
5.94608
5.97708
6.00695
6.03581
6.06394
6.09163
6.11893
6.1458
6.17211
6.19751
6.22167
6.24444
6.26575
6.28563
6.30426
6.32188
6.33866
6.35459
6.36959
6.38349
6.39599
6.40678
6.41564
6.42237
6.4268
6.42879
6.42821
6.4249
6.41874
6.40964
6.39773
6.38349
6.36766
6.35129
6.33581
6.3227
6.31278
6.30625
6.30304
4.72541
4.74224
4.77354
4.81591
4.86508
4.9173
4.97042
5.02298
5.07421
5.12435
5.17402
5.22379
5.27364
5.32334
5.37261
5.4206
5.46647
5.50996
5.55096
5.58956
5.62629
5.66183
5.69673
5.73111
5.76495
5.79818
5.83039
5.86127
5.89102
5.92004
5.94871
5.97707
6.00508
6.0326
6.0592
6.08442
6.10812
6.13023
6.15075
6.16996
6.18816
6.20559
6.22224
6.23799
6.25268
6.26595
6.27741
6.28683
6.29401
6.29875
6.30092
6.30036
6.29691
6.29034
6.28051
6.26748
6.25174
6.23413
6.21575
6.19834
6.18377
6.17295
6.16595
6.16255
4.52713
4.5463
4.58155
4.62894
4.68321
4.73985
4.79677
4.85246
4.90605
4.95813
5.00961
5.06139
5.11336
5.16526
5.21693
5.26722
5.31501
5.36015
5.4025
5.44207
5.47962
5.51599
5.55189
5.58738
5.62239
5.65691
5.69033
5.72216
5.75269
5.78249
5.81208
5.84148
5.87059
5.89936
5.92717
5.95343
5.97803
6.00089
6.02199
6.0417
6.06041
6.07847
6.09582
6.11232
6.12784
6.14191
6.15404
6.16403
6.17167
6.17673
6.17909
6.1786
6.17503
6.1681
6.15756
6.14338
6.12608
6.10656
6.08598
6.06642
6.05031
6.03861
6.0312
6.02764
4.33462
4.3565
4.39612
4.44911
4.50893
4.57012
4.63091
4.68972
4.74548
4.79926
4.85235
4.90606
4.96009
5.01412
5.06826
5.12093
5.17058
5.21731
5.26094
5.30135
5.33955
5.37659
5.41344
5.45001
5.48615
5.52199
5.55664
5.58932
5.62053
5.65099
5.68146
5.71186
5.74203
5.77208
5.80116
5.82841
5.8539
5.87748
5.89908
5.91919
5.93835
5.95702
5.97506
5.99229
6.00867
6.02358
6.03639
6.04696
6.05507
6.06046
6.06303
6.06262
6.05898
6.05175
6.04054
6.02518
6.00624
5.98475
5.96173
5.93974
5.92201
5.9095
5.90176
5.8981
4.14751
4.17255
4.21694
4.2762
4.34209
4.40787
4.47257
4.53452
4.59221
4.64743
4.70188
4.75747
4.81353
4.86958
4.92629
4.98145
5.03287
5.08115
5.12602
5.16709
5.20576
5.24331
5.28108
5.3187
5.3559
5.39313
5.42906
5.46249
5.49424
5.52524
5.55657
5.58793
5.61911
5.6505
5.6809
5.70911
5.73545
5.75975
5.78174
5.80218
5.8217
5.84097
5.85969
5.87763
5.89492
5.91072
5.92419
5.93535
5.94395
5.94966
5.95245
5.95216
5.94852
5.94104
5.92921
5.91264
5.892
5.86847
5.84278
5.81802
5.79861
5.78538
5.77742
5.77371
3.96542
3.9942
4.04373
4.11001
4.18256
4.25285
4.32151
4.38664
4.44596
4.50234
4.55785
4.61533
4.67338
4.73128
4.79073
4.84854
4.90158
4.95137
4.99749
5.039
5.07796
5.11584
5.15453
5.19319
5.23134
5.27007
5.30738
5.34143
5.37357
5.40495
5.43713
5.46945
5.50155
5.53437
5.56618
5.59527
5.62244
5.64745
5.66974
5.6904
5.71019
5.73006
5.74947
5.76808
5.78633
5.80309
5.8172
5.82894
5.83806
5.84407
5.8471
5.84696
5.84337
5.83573
5.82336
5.80554
5.78312
5.75755
5.72891
5.70094
5.67982
5.66603
5.65798
5.6543
3.78796
3.82125
3.87616
3.95036
4.03026
4.10479
4.17746
4.2459
4.30644
4.3637
4.41989
4.47934
4.53938
4.59885
4.66128
4.722
4.7764
4.82769
4.87511
4.9168
4.95587
4.99384
5.03352
5.07323
5.11217
5.15256
5.19141
5.22588
5.25827
5.28982
5.32291
5.35618
5.38904
5.42343
5.4568
5.48662
5.51463
5.54038
5.56282
5.58362
5.60354
5.62406
5.64417
5.66335
5.68267
5.70047
5.71515
5.7275
5.73715
5.74346
5.74673
5.74676
5.74328
5.73557
5.72276
5.70366
5.67938
5.65184
5.61995
5.5882
5.56539
5.55123
5.54326
5.53969
3.61474
3.65358
3.71387
3.79709
3.8852
3.96341
4.04016
4.11215
4.17336
4.23124
4.28761
4.34922
4.4113
4.4719
4.53768
4.60166
4.65704
4.70983
4.75869
4.80023
4.83925
4.877
4.9178
4.95859
4.99806
5.04035
5.08096
5.1156
5.1481
5.17956
5.21366
5.2479
5.28129
5.31746
5.35257
5.38292
5.41177
5.43834
5.46075
5.48159
5.50149
5.52273
5.54357
5.56319
5.5837
5.60267
5.61782
5.63078
5.64102
5.64756
5.65109
5.65131
5.64803
5.64034
5.62723
5.60679
5.58051
5.55122
5.51574
5.47945
5.45504
5.4408
5.4331
5.42972
3.44535
3.49117
3.55646
3.65006
3.74743
3.82835
3.90933
3.98529
4.04643
4.10471
4.16062
4.22476
4.28897
4.35001
4.41966
4.48741
4.54314
4.59751
4.64807
4.689
4.72784
4.76498
4.80715
4.84909
4.88866
4.93322
4.97593
5.01035
5.04286
5.07388
5.10917
5.14444
5.17799
5.21621
5.25337
5.2839
5.31362
5.34117
5.3633
5.38412
5.40378
5.42588
5.44749
5.46733
5.48921
5.50953
5.52496
5.53855
5.54945
5.55615
5.55995
5.56038
5.55737
5.54979
5.53659
5.51472
5.48627
5.45559
5.41617
5.3743
5.34855
5.33457
5.32733
5.32423
3.27931
3.33413
3.40344
3.50912
3.61715
3.6992
3.78466
3.86529
3.9253
3.98393
4.03845
4.10573
4.17226
4.23268
4.30696
4.37922
4.43434
4.49043
4.54313
4.58282
4.62146
4.65741
4.70135
4.7446
4.7836
4.83093
4.87622
4.90987
4.94234
4.97243
5.00926
5.04566
5.07879
5.1195
5.15909
5.18928
5.21997
5.24873
5.27023
5.29102
5.31012
5.33331
5.35576
5.37547
5.39899
5.42088
5.43633
5.45059
5.46225
5.469
5.4731
5.47373
5.47108
5.4637
5.45068
5.42726
5.39634
5.36493
5.32117
5.27233
5.24567
5.23239
5.22583
5.22308
3.11609
3.1828
3.25417
3.37415
3.49466
3.57542
3.66583
3.75221
3.80959
3.86877
3.9206
3.99197
4.06116
4.11936
4.19936
4.27715
4.33022
4.38832
4.44384
4.48137
4.51994
4.5539
4.60024
4.64502
4.68247
4.73328
4.78182
4.81389
4.84642
4.87488
4.91375
4.95146
4.98332
5.0271
5.06969
5.09876
5.13056
5.16091
5.18129
5.20212
5.22023
5.24484
5.26828
5.28733
5.31285
5.33664
5.35166
5.36669
5.37927
5.38587
5.39032
5.39114
5.38895
5.38184
5.36937
5.34423
5.31039
5.27923
5.23074
5.17303
5.14621
5.13414
5.12847
5.12614
2.95509
3.03774
3.10783
3.24505
3.38047
3.45634
3.5525
3.64621
3.6988
3.75918
3.80645
3.88335
3.95572
4.00938
4.09663
4.18138
4.23028
4.29085
4.35022
4.38428
4.42321
4.454
4.50366
4.55033
4.58477
4.64007
4.69276
4.72207
4.75499
4.78083
4.8225
4.86182
4.89114
4.93883
4.98521
5.01199
5.04518
5.07768
5.0962
5.11731
5.13379
5.16034
5.18494
5.20257
5.23061
5.25673
5.27071
5.28664
5.30036
5.30654
5.31144
5.31238
5.31077
5.30395
5.29255
5.26548
5.22801
5.19855
5.14495
5.07579
5.05001
5.03972
5.03512
5.03326
2.79554
2.89987
2.96335
3.12171
3.2753
3.34109
3.44429
3.54764
3.59233
3.65527
3.69529
3.77978
3.85616
3.90195
3.99856
4.09221
4.13393
4.19774
4.26241
4.29111
4.33126
4.35719
4.41151
4.46061
4.48994
4.55111
4.60917
4.63402
4.66803
4.68982
4.73541
4.77677
4.80175
4.85451
4.90574
4.92859
4.96357
4.99903
5.01467
5.03653
5.05045
5.07966
5.10572
5.12081
5.15209
5.18113
5.19316
5.21024
5.22541
5.23076
5.23628
5.23724
5.23636
5.22978
5.22016
5.19088
5.14868
5.12304
5.06397
4.97988
4.95698
4.94904
4.94566
4.94432
2.63652
2.77056
2.81933
3.00407
3.18015
3.22858
3.3408
3.457
3.48938
3.55732
3.58624
3.68124
3.76285
3.79607
3.90497
4.01016
4.04042
4.10864
4.18066
4.20131
4.24421
4.26286
4.32372
4.37604
4.39729
4.46623
4.5313
4.54925
4.58564
4.60132
4.65238
4.69645
4.71456
4.77397
4.83151
4.84808
4.88551
4.92504
4.93631
4.95977
4.96982
5.0027
5.03064
5.04162
5.07714
5.1099
5.11869
5.1373
5.15435
5.15829
5.16468
5.16551
5.16557
5.15904
5.15215
5.12034
5.07181
5.0529
4.98807
4.88438
4.86708
4.86205
4.86
4.85919
2.47687
2.65172
2.67392
2.89206
3.09639
3.11737
3.24161
3.37506
3.38893
3.46587
3.47823
3.58777
3.67635
3.69055
3.81567
3.93593
3.94886
4.02322
4.10539
4.11417
4.16233
4.17027
4.24024
4.29692
4.30599
4.38528
4.45949
4.46716
4.50802
4.5147
4.57338
4.62111
4.62884
4.69706
4.76284
4.76992
4.81073
4.85589
4.86069
4.88713
4.89142
4.92939
4.9598
4.96451
5.00563
5.04314
5.04692
5.06764
5.08714
5.08885
5.09653
5.09695
5.09824
5.09141
5.08852
5.05383
4.99662
4.98843
4.91769
4.78817
4.78043
4.77869
4.77801
4.77774
)
;

boundaryField
{
    left
    {
        type            zeroGradient;
    }
    right
    {
        type            zeroGradient;
    }
    interface
    {
        type            fixedValue;
        value           nonuniform List<scalar> 
64
(
2.39421
2.59766
2.59766
2.83767
3.06029
3.06029
3.19289
3.33816
3.33816
3.42287
3.42287
3.54263
3.63603
3.63603
3.77215
3.90248
3.90248
3.98126
4.07054
4.07054
4.12337
4.12337
4.19979
4.25951
4.25951
4.34585
4.42615
4.42615
4.47098
4.47098
4.53506
4.58535
4.58535
4.65953
4.73083
4.73083
4.77407
4.82316
4.82316
4.85221
4.85221
4.89376
4.92586
4.92586
4.97078
5.0114
5.0114
5.03363
5.05476
5.05476
5.06342
5.06342
5.06555
5.05826
5.05826
5.02192
4.95858
4.95858
4.88486
4.73793
4.73793
4.73793
4.73793
4.73793
)
;
    }
    bottom
    {
        type            fixedValue;
        value           uniform 10;
    }
    defaultFaces
    {
        type            empty;
    }
}


// ************************************************************************* //
