/*--------------------------------*- C++ -*----------------------------------*\
| =========                 |                                                 |
| \\      /  F ield         | OpenFOAM: The Open Source CFD Toolbox           |
|  \\    /   O peration     | Version:  5.x                                   |
|   \\  /    A nd           | Web:      www.OpenFOAM.org                      |
|    \\/     M anipulation  |                                                 |
\*---------------------------------------------------------------------------*/
FoamFile
{
    version     2.0;
    format      ascii;
    class       volScalarField;
    location    "2.7";
    object      gradTx;
}
// * * * * * * * * * * * * * * * * * * * * * * * * * * * * * * * * * * * * * //

dimensions      [0 -1 0 1 0 0 0];

internalField   nonuniform List<scalar> 
3200
(
2.79442e-05
-1.69887e-06
-3.34893e-06
-3.40767e-06
-2.85529e-06
-2.78943e-06
-2.0029e-06
-1.93857e-06
-1.41017e-06
-2.1502e-06
-9.86879e-07
-6.98067e-07
-6.69231e-07
-5.05753e-07
-4.90856e-07
-3.76181e-07
-3.65789e-07
-2.82373e-07
-2.74772e-07
-2.12959e-07
-2.07302e-07
-1.60975e-07
-1.56723e-07
-1.21757e-07
-1.18544e-07
-9.20441e-08
-8.96065e-08
-6.94807e-08
-6.76289e-08
-5.23325e-08
-5.09252e-08
-3.93024e-08
-3.82336e-08
-2.9411e-08
-2.86003e-08
-2.19142e-08
-2.13004e-08
-1.62443e-08
-1.57806e-08
-1.19673e-08
-1.1618e-08
-8.75121e-09
-8.48909e-09
-6.34237e-09
-6.14651e-09
-4.54694e-09
-4.40179e-09
-3.21906e-09
-3.12006e-09
-2.3061e-09
-3.48508e-09
-1.57308e-09
-1.03614e-09
-9.82926e-10
-6.62703e-10
-6.3406e-10
-4.16954e-10
-3.98028e-10
-2.54353e-10
-2.4201e-10
-1.50251e-10
-1.42475e-10
-8.60396e-11
-8.13154e-11
-4.78357e-11
-4.50624e-11
-2.5828e-11
-2.4248e-11
-1.34884e-11
-1.26097e-11
-6.71134e-12
-6.2197e-12
-2.79678e-12
-2.51963e-12
-6.67472e-13
-5.42619e-13
-3.53388e-14
-6.47799e-15
-1.46626e-15
3.35522e-13
2.7826e-05
-1.77636e-06
-3.18316e-06
-3.32019e-06
-2.87917e-06
-2.72989e-06
-2.06347e-06
-1.91794e-06
-1.50818e-06
-1.98393e-06
-1.05443e-06
-7.35235e-07
-6.6451e-07
-5.19274e-07
-4.84518e-07
-3.85012e-07
-3.60929e-07
-2.88725e-07
-2.71122e-07
-2.17646e-07
-2.04548e-07
-1.64478e-07
-1.54636e-07
-1.24398e-07
-1.16958e-07
-9.40437e-08
-8.84009e-08
-7.09988e-08
-6.67122e-08
-5.34863e-08
-5.02288e-08
-4.01793e-08
-3.77052e-08
-3.00769e-08
-2.82002e-08
-2.24192e-08
-2.09982e-08
-1.66264e-08
-1.5553e-08
-1.22557e-08
-1.14472e-08
-8.96829e-09
-8.3615e-09
-6.50515e-09
-6.05176e-09
-4.66869e-09
-4.33293e-09
-3.31386e-09
-3.08882e-09
-2.45843e-09
-3.21316e-09
-1.67866e-09
-1.10151e-09
-9.71908e-10
-6.88998e-10
-6.22274e-10
-4.34011e-10
-3.90153e-10
-2.65694e-10
-2.37096e-10
-1.57562e-10
-1.39538e-10
-9.05778e-11
-7.96238e-11
-5.05506e-11
-4.41176e-11
-2.73989e-11
-2.37325e-11
-1.4372e-11
-1.23317e-11
-7.19283e-12
-6.05146e-12
-3.07804e-12
-2.43542e-12
-8.31025e-13
-5.40857e-13
-8.68782e-14
-1.84793e-14
-4.24595e-15
3.34609e-13
2.77291e-05
-1.81901e-06
-3.06816e-06
-3.25581e-06
-2.89137e-06
-2.69102e-06
-2.10319e-06
-1.90786e-06
-1.57075e-06
-1.87385e-06
-1.09756e-06
-7.62456e-07
-6.62764e-07
-5.28371e-07
-4.80766e-07
-3.90824e-07
-3.57992e-07
-2.9289e-07
-2.68906e-07
-2.20715e-07
-2.02872e-07
-1.66772e-07
-1.53364e-07
-1.26126e-07
-1.15991e-07
-9.53517e-08
-8.76651e-08
-7.19918e-08
-6.61526e-08
-5.42409e-08
-4.98037e-08
-4.07528e-08
-3.73827e-08
-3.05125e-08
-2.79561e-08
-2.27495e-08
-2.08139e-08
-1.68764e-08
-1.54143e-08
-1.24445e-08
-1.13432e-08
-9.11042e-09
-8.28384e-09
-6.61177e-09
-5.99415e-09
-4.74852e-09
-4.29137e-09
-3.37687e-09
-3.07376e-09
-2.55534e-09
-3.03279e-09
-1.74592e-09
-1.14897e-09
-9.67015e-10
-7.0664e-10
-6.15344e-10
-4.45288e-10
-3.85499e-10
-2.73199e-10
-2.34218e-10
-1.62411e-10
-1.37837e-10
-9.35949e-11
-7.86563e-11
-5.23595e-11
-4.35838e-11
-2.84475e-11
-2.34445e-11
-1.49625e-11
-1.21776e-11
-7.51435e-12
-5.95644e-12
-3.26603e-12
-2.38966e-12
-9.41996e-13
-5.45639e-13
-1.2299e-13
-2.83122e-14
-6.59424e-15
3.33834e-13
2.7661e-05
-1.84074e-06
-2.9956e-06
-3.21349e-06
-2.89697e-06
-2.66762e-06
-2.12719e-06
-1.90342e-06
-1.6077e-06
-1.80693e-06
-1.12303e-06
-7.80251e-07
-6.62398e-07
-5.3399e-07
-4.78703e-07
-3.94346e-07
-3.56342e-07
-2.95407e-07
-2.67655e-07
-2.22568e-07
-2.01923e-07
-1.68156e-07
-1.52643e-07
-1.27168e-07
-1.15442e-07
-9.61404e-08
-8.72478e-08
-7.25905e-08
-6.58352e-08
-5.4696e-08
-4.95625e-08
-4.10987e-08
-3.71999e-08
-3.07752e-08
-2.78178e-08
-2.29488e-08
-2.07095e-08
-1.70273e-08
-1.53357e-08
-1.25584e-08
-1.12843e-08
-9.19618e-09
-8.2399e-09
-6.67613e-09
-5.9616e-09
-4.79675e-09
-4.26806e-09
-3.41538e-09
-3.06728e-09
-2.61239e-09
-2.92297e-09
-1.78557e-09
-1.17981e-09
-9.65247e-10
-7.1751e-10
-6.11558e-10
-4.52149e-10
-3.8294e-10
-2.77768e-10
-2.32649e-10
-1.65368e-10
-1.36921e-10
-9.54385e-11
-7.81422e-11
-5.34668e-11
-4.3304e-11
-2.90904e-11
-2.32954e-11
-1.5325e-11
-1.20985e-11
-7.71155e-12
-5.90665e-12
-3.3814e-12
-2.36672e-12
-1.01089e-12
-5.51462e-13
-1.45977e-13
-3.52236e-14
-8.28808e-15
3.33271e-13
2.76259e-05
-1.84972e-06
-2.96049e-06
-3.19251e-06
-2.89906e-06
-2.65663e-06
-2.13848e-06
-1.90184e-06
-1.62483e-06
-1.77531e-06
-1.13483e-06
-7.89034e-07
-6.62443e-07
-5.36675e-07
-4.77794e-07
-3.96008e-07
-3.55603e-07
-2.96593e-07
-2.67093e-07
-2.2344e-07
-2.01497e-07
-1.68806e-07
-1.52319e-07
-1.27658e-07
-1.15195e-07
-9.65114e-08
-8.70597e-08
-7.2872e-08
-6.56922e-08
-5.49099e-08
-4.94538e-08
-4.12613e-08
-3.71175e-08
-3.08988e-08
-2.77554e-08
-2.30425e-08
-2.06624e-08
-1.70982e-08
-1.53004e-08
-1.2612e-08
-1.12578e-08
-9.23653e-09
-8.22014e-09
-6.70641e-09
-5.94697e-09
-4.81946e-09
-4.25764e-09
-3.43365e-09
-3.06503e-09
-2.63877e-09
-2.87103e-09
-1.80393e-09
-1.19498e-09
-9.64788e-10
-7.22695e-10
-6.099e-10
-4.55394e-10
-3.81814e-10
-2.7993e-10
-2.31964e-10
-1.66769e-10
-1.36525e-10
-9.63131e-11
-7.7922e-11
-5.39927e-11
-4.31854e-11
-2.9396e-11
-2.32329e-11
-1.54974e-11
-1.20656e-11
-7.80532e-12
-5.88558e-12
-3.43629e-12
-2.35739e-12
-1.04391e-12
-5.55111e-13
-1.57168e-13
-3.87786e-14
-9.17382e-15
3.32976e-13
2.76259e-05
-1.84973e-06
-2.96049e-06
-3.19251e-06
-2.89906e-06
-2.65663e-06
-2.13848e-06
-1.90184e-06
-1.62483e-06
-1.77531e-06
-1.13483e-06
-7.89034e-07
-6.62443e-07
-5.36675e-07
-4.77794e-07
-3.96008e-07
-3.55603e-07
-2.96593e-07
-2.67093e-07
-2.2344e-07
-2.01497e-07
-1.68807e-07
-1.52319e-07
-1.27658e-07
-1.15195e-07
-9.65114e-08
-8.70597e-08
-7.2872e-08
-6.56922e-08
-5.49099e-08
-4.94538e-08
-4.12613e-08
-3.71175e-08
-3.08988e-08
-2.77554e-08
-2.30425e-08
-2.06624e-08
-1.70982e-08
-1.53004e-08
-1.2612e-08
-1.12578e-08
-9.23653e-09
-8.22014e-09
-6.70641e-09
-5.94697e-09
-4.81946e-09
-4.25764e-09
-3.43365e-09
-3.06503e-09
-2.63877e-09
-2.87103e-09
-1.80393e-09
-1.19498e-09
-9.64788e-10
-7.22695e-10
-6.099e-10
-4.55394e-10
-3.81814e-10
-2.7993e-10
-2.31964e-10
-1.66769e-10
-1.36525e-10
-9.63131e-11
-7.7922e-11
-5.39927e-11
-4.31854e-11
-2.9396e-11
-2.32329e-11
-1.54974e-11
-1.20656e-11
-7.80532e-12
-5.88557e-12
-3.43629e-12
-2.35738e-12
-1.04391e-12
-5.5511e-13
-1.57167e-13
-3.87783e-14
-9.1735e-15
3.32976e-13
2.7661e-05
-1.84077e-06
-2.99561e-06
-3.21349e-06
-2.89698e-06
-2.66762e-06
-2.12719e-06
-1.90342e-06
-1.6077e-06
-1.80693e-06
-1.12303e-06
-7.8025e-07
-6.62397e-07
-5.3399e-07
-4.78703e-07
-3.94346e-07
-3.56342e-07
-2.95407e-07
-2.67655e-07
-2.22568e-07
-2.01923e-07
-1.68156e-07
-1.52643e-07
-1.27168e-07
-1.15443e-07
-9.61405e-08
-8.72478e-08
-7.25905e-08
-6.58352e-08
-5.4696e-08
-4.95625e-08
-4.10987e-08
-3.71999e-08
-3.07752e-08
-2.78178e-08
-2.29488e-08
-2.07095e-08
-1.70273e-08
-1.53357e-08
-1.25584e-08
-1.12843e-08
-9.19618e-09
-8.2399e-09
-6.67613e-09
-5.9616e-09
-4.79675e-09
-4.26806e-09
-3.41538e-09
-3.06728e-09
-2.61239e-09
-2.92297e-09
-1.78557e-09
-1.17981e-09
-9.65246e-10
-7.17509e-10
-6.11557e-10
-4.52149e-10
-3.8294e-10
-2.77768e-10
-2.32649e-10
-1.65368e-10
-1.36921e-10
-9.54385e-11
-7.81421e-11
-5.34668e-11
-4.33039e-11
-2.90904e-11
-2.32954e-11
-1.5325e-11
-1.20985e-11
-7.71154e-12
-5.90664e-12
-3.3814e-12
-2.36672e-12
-1.01089e-12
-5.51459e-13
-1.45976e-13
-3.52228e-14
-8.28722e-15
3.33271e-13
2.77292e-05
-1.81906e-06
-3.06817e-06
-3.25582e-06
-2.89137e-06
-2.69102e-06
-2.10319e-06
-1.90786e-06
-1.57076e-06
-1.87385e-06
-1.09756e-06
-7.62456e-07
-6.62764e-07
-5.28371e-07
-4.80766e-07
-3.90824e-07
-3.57992e-07
-2.9289e-07
-2.68906e-07
-2.20715e-07
-2.02872e-07
-1.66772e-07
-1.53364e-07
-1.26126e-07
-1.15991e-07
-9.53517e-08
-8.76651e-08
-7.19918e-08
-6.61527e-08
-5.42409e-08
-4.98037e-08
-4.07529e-08
-3.73827e-08
-3.05125e-08
-2.79562e-08
-2.27495e-08
-2.08139e-08
-1.68764e-08
-1.54143e-08
-1.24445e-08
-1.13432e-08
-9.11042e-09
-8.28384e-09
-6.61177e-09
-5.99415e-09
-4.74852e-09
-4.29137e-09
-3.37687e-09
-3.07376e-09
-2.55535e-09
-3.03279e-09
-1.74592e-09
-1.14897e-09
-9.67015e-10
-7.0664e-10
-6.15344e-10
-4.45288e-10
-3.85499e-10
-2.73199e-10
-2.34217e-10
-1.62411e-10
-1.37837e-10
-9.35948e-11
-7.86563e-11
-5.23595e-11
-4.35838e-11
-2.84475e-11
-2.34445e-11
-1.49625e-11
-1.21776e-11
-7.51434e-12
-5.95643e-12
-3.26602e-12
-2.38966e-12
-9.41991e-13
-5.45636e-13
-1.22988e-13
-2.83111e-14
-6.59308e-15
3.33834e-13
2.78261e-05
-1.7764e-06
-3.18316e-06
-3.32019e-06
-2.87917e-06
-2.72989e-06
-2.06347e-06
-1.91794e-06
-1.50818e-06
-1.98393e-06
-1.05443e-06
-7.35234e-07
-6.6451e-07
-5.19274e-07
-4.84518e-07
-3.85012e-07
-3.6093e-07
-2.88725e-07
-2.71122e-07
-2.17646e-07
-2.04548e-07
-1.64479e-07
-1.54636e-07
-1.24398e-07
-1.16958e-07
-9.40437e-08
-8.8401e-08
-7.09988e-08
-6.67122e-08
-5.34863e-08
-5.02288e-08
-4.01793e-08
-3.77052e-08
-3.00769e-08
-2.82002e-08
-2.24192e-08
-2.09982e-08
-1.66264e-08
-1.5553e-08
-1.22557e-08
-1.14472e-08
-8.9683e-09
-8.36151e-09
-6.50515e-09
-6.05176e-09
-4.66869e-09
-4.33293e-09
-3.31386e-09
-3.08882e-09
-2.45844e-09
-3.21316e-09
-1.67865e-09
-1.10151e-09
-9.71908e-10
-6.88998e-10
-6.22274e-10
-4.34011e-10
-3.90153e-10
-2.65694e-10
-2.37096e-10
-1.57562e-10
-1.39538e-10
-9.05777e-11
-7.96237e-11
-5.05506e-11
-4.41175e-11
-2.73989e-11
-2.37325e-11
-1.4372e-11
-1.23317e-11
-7.19282e-12
-6.05145e-12
-3.07803e-12
-2.43542e-12
-8.31021e-13
-5.40854e-13
-8.68765e-14
-1.84784e-14
-4.2449e-15
3.3461e-13
2.79443e-05
-1.69889e-06
-3.34893e-06
-3.40768e-06
-2.85529e-06
-2.78943e-06
-2.0029e-06
-1.93858e-06
-1.41017e-06
-2.1502e-06
-9.86879e-07
-6.98067e-07
-6.69231e-07
-5.05753e-07
-4.90856e-07
-3.76181e-07
-3.65789e-07
-2.82373e-07
-2.74772e-07
-2.12959e-07
-2.07302e-07
-1.60975e-07
-1.56724e-07
-1.21757e-07
-1.18544e-07
-9.20442e-08
-8.96066e-08
-6.94807e-08
-6.76289e-08
-5.23325e-08
-5.09253e-08
-3.93024e-08
-3.82336e-08
-2.9411e-08
-2.86003e-08
-2.19142e-08
-2.13004e-08
-1.62443e-08
-1.57806e-08
-1.19673e-08
-1.1618e-08
-8.75122e-09
-8.48909e-09
-6.34237e-09
-6.14651e-09
-4.54694e-09
-4.40179e-09
-3.21906e-09
-3.12006e-09
-2.3061e-09
-3.48508e-09
-1.57308e-09
-1.03614e-09
-9.82925e-10
-6.62703e-10
-6.3406e-10
-4.16954e-10
-3.98028e-10
-2.54353e-10
-2.4201e-10
-1.50251e-10
-1.42475e-10
-8.60396e-11
-8.13154e-11
-4.78357e-11
-4.50624e-11
-2.5828e-11
-2.4248e-11
-1.34884e-11
-1.26097e-11
-6.71133e-12
-6.2197e-12
-2.79678e-12
-2.51963e-12
-6.6747e-13
-5.42618e-13
-3.53381e-14
-6.47762e-15
-1.46581e-15
3.35522e-13
0.00126052
-0.00110231
-8.84402e-05
-3.84436e-05
-7.25411e-06
-4.2454e-06
-1.87314e-06
-1.63776e-06
-1.41229e-06
-2.37438e-06
-1.23032e-06
-1.03582e-06
-1.01315e-06
-8.70897e-07
-8.56393e-07
-7.26213e-07
-7.13409e-07
-5.98208e-07
-5.87044e-07
-4.88157e-07
-4.78665e-07
-3.95609e-07
-3.8769e-07
-3.18994e-07
-3.12475e-07
-2.56272e-07
-2.50955e-07
-2.05327e-07
-2.01021e-07
-1.64179e-07
-1.60707e-07
-1.31076e-07
-1.28287e-07
-1.04521e-07
-1.02286e-07
-8.32623e-08
-8.14746e-08
-6.62709e-08
-6.48429e-08
-5.27077e-08
-5.15685e-08
-4.18942e-08
-4.09866e-08
-3.32844e-08
-3.25625e-08
-2.64407e-08
-2.5871e-08
-2.10298e-08
-2.06502e-08
-1.73013e-08
-2.80264e-08
-1.37881e-08
-1.07675e-08
-1.04486e-08
-8.556e-09
-8.37694e-09
-6.91589e-09
-6.78015e-09
-5.64741e-09
-5.54259e-09
-4.66968e-09
-4.58914e-09
-3.92108e-09
-3.85934e-09
-3.34793e-09
-3.29775e-09
-2.85305e-09
-2.8043e-09
-2.31715e-09
-2.26479e-09
-1.74458e-09
-1.69475e-09
-1.26539e-09
-1.20797e-09
-5.31606e-10
-4.74144e-10
-2.89067e-11
-5.15267e-12
-1.161e-12
-8.38773e-11
0.00123387
-0.000972773
-0.000166871
-5.4684e-05
-1.34935e-05
-5.56925e-06
-2.37325e-06
-1.75221e-06
-1.52477e-06
-2.19101e-06
-1.30117e-06
-1.06439e-06
-1.00803e-06
-8.8184e-07
-8.48066e-07
-7.35597e-07
-7.05974e-07
-6.06561e-07
-5.8074e-07
-4.9538e-07
-4.73424e-07
-4.01708e-07
-3.83387e-07
-3.24058e-07
-3.08973e-07
-2.60426e-07
-2.48124e-07
-2.08705e-07
-1.98741e-07
-1.6691e-07
-1.58877e-07
-1.33275e-07
-1.26821e-07
-1.06286e-07
-1.01114e-07
-8.46757e-08
-8.05386e-08
-6.7401e-08
-6.40964e-08
-5.36101e-08
-5.09737e-08
-4.26139e-08
-4.05134e-08
-3.38577e-08
-3.21872e-08
-2.68989e-08
-2.55828e-08
-2.14329e-08
-2.05912e-08
-1.83504e-08
-2.57959e-08
-1.46244e-08
-1.11735e-08
-1.03876e-08
-8.70862e-09
-8.29125e-09
-7.02607e-09
-6.71175e-09
-5.73256e-09
-5.48997e-09
-4.73542e-09
-4.549e-09
-3.97137e-09
-3.82839e-09
-3.3852e-09
-3.2689e-09
-2.883e-09
-2.77011e-09
-2.34982e-09
-2.22886e-09
-1.78186e-09
-1.6664e-09
-1.29013e-09
-1.15751e-09
-5.8239e-10
-4.50271e-10
-6.98599e-11
-1.46671e-11
-3.36111e-12
-8.46145e-11
0.00121206
-0.000880311
-0.000217552
-6.80839e-05
-1.84019e-05
-6.70376e-06
-2.77028e-06
-1.85087e-06
-1.60149e-06
-2.06987e-06
-1.34589e-06
-1.08573e-06
-1.00569e-06
-8.89081e-07
-8.42881e-07
-7.41661e-07
-7.01326e-07
-6.11967e-07
-5.76813e-07
-5.00064e-07
-4.7017e-07
-4.05669e-07
-3.80722e-07
-3.27349e-07
-3.06808e-07
-2.63128e-07
-2.46375e-07
-2.10904e-07
-1.97334e-07
-1.68689e-07
-1.57749e-07
-1.34707e-07
-1.25918e-07
-1.07435e-07
-1.00392e-07
-8.55966e-08
-7.99622e-08
-6.81373e-08
-6.36367e-08
-5.4198e-08
-5.06076e-08
-4.30829e-08
-4.02222e-08
-3.42315e-08
-3.19564e-08
-2.71981e-08
-2.54079e-08
-2.17035e-08
-2.0588e-08
-1.90119e-08
-2.43099e-08
-1.51517e-08
-1.14727e-08
-1.03623e-08
-8.8107e-09
-8.23942e-09
-7.09816e-09
-6.6699e-09
-5.78821e-09
-5.45778e-09
-4.7784e-09
-4.52448e-09
-4.00426e-09
-3.80943e-09
-3.40937e-09
-3.2508e-09
-2.902e-09
-2.74821e-09
-2.3705e-09
-2.20595e-09
-1.80587e-09
-1.64846e-09
-1.30511e-09
-1.12474e-09
-6.15448e-10
-4.36326e-10
-9.78023e-11
-2.24249e-11
-5.21829e-12
-8.5241e-11
0.00119675
-0.000820863
-0.0002477
-7.74914e-05
-2.17904e-05
-7.5274e-06
-3.0466e-06
-1.92267e-06
-1.64946e-06
-1.9964e-06
-1.37204e-06
-1.09985e-06
-1.00481e-06
-8.93494e-07
-8.39887e-07
-7.45281e-07
-6.98631e-07
-6.15197e-07
-5.74545e-07
-5.02867e-07
-4.68295e-07
-4.08043e-07
-3.7919e-07
-3.29324e-07
-3.05566e-07
-2.6475e-07
-2.45373e-07
-2.12225e-07
-1.96528e-07
-1.69757e-07
-1.57103e-07
-1.35567e-07
-1.25401e-07
-1.08126e-07
-9.99786e-08
-8.61499e-08
-7.96324e-08
-6.85798e-08
-6.33738e-08
-5.45515e-08
-5.03982e-08
-4.33648e-08
-4.00557e-08
-3.44561e-08
-3.18245e-08
-2.73782e-08
-2.53092e-08
-2.18703e-08
-2.0603e-08
-1.93983e-08
-2.3402e-08
-1.54597e-08
-1.16691e-08
-1.03545e-08
-8.87346e-09
-8.2103e-09
-7.14165e-09
-6.6461e-09
-5.82174e-09
-5.43949e-09
-4.80431e-09
-4.51056e-09
-4.02407e-09
-3.79863e-09
-3.42385e-09
-3.24028e-09
-2.91318e-09
-2.73523e-09
-2.38263e-09
-2.19244e-09
-1.82016e-09
-1.63794e-09
-1.31356e-09
-1.10512e-09
-6.3529e-10
-4.28752e-10
-1.15215e-10
-2.78542e-11
-6.55681e-12
-8.56956e-11
0.00118888
-0.000791789
-0.000261728
-8.23173e-05
-2.35205e-05
-7.95938e-06
-3.18848e-06
-1.96037e-06
-1.67258e-06
-1.96176e-06
-1.38408e-06
-1.10686e-06
-1.00456e-06
-8.95585e-07
-8.38521e-07
-7.46973e-07
-6.97397e-07
-6.16707e-07
-5.73508e-07
-5.04179e-07
-4.67441e-07
-4.09154e-07
-3.78493e-07
-3.30249e-07
-3.05001e-07
-2.6551e-07
-2.44917e-07
-2.12844e-07
-1.96162e-07
-1.70258e-07
-1.5681e-07
-1.35971e-07
-1.25167e-07
-1.0845e-07
-9.97913e-08
-8.64096e-08
-7.9483e-08
-6.87875e-08
-6.32546e-08
-5.47173e-08
-5.03033e-08
-4.34971e-08
-3.99803e-08
-3.45616e-08
-3.17648e-08
-2.74628e-08
-2.52649e-08
-2.19499e-08
-2.06151e-08
-1.9576e-08
-2.29717e-08
-1.56013e-08
-1.17662e-08
-1.03532e-08
-8.90336e-09
-8.19727e-09
-7.16211e-09
-6.63537e-09
-5.8375e-09
-5.43124e-09
-4.81649e-09
-4.50429e-09
-4.03339e-09
-3.79375e-09
-3.43062e-09
-3.23546e-09
-2.91834e-09
-2.7292e-09
-2.38822e-09
-2.18618e-09
-1.82681e-09
-1.63309e-09
-1.31735e-09
-1.09594e-09
-6.4459e-10
-4.2545e-10
-1.23577e-10
-3.06386e-11
-7.25642e-12
-8.59343e-11
0.00118888
-0.000791789
-0.000261728
-8.23172e-05
-2.35205e-05
-7.95936e-06
-3.18847e-06
-1.96036e-06
-1.67258e-06
-1.96176e-06
-1.38408e-06
-1.10686e-06
-1.00456e-06
-8.95585e-07
-8.38521e-07
-7.46973e-07
-6.97397e-07
-6.16707e-07
-5.73509e-07
-5.04179e-07
-4.67441e-07
-4.09154e-07
-3.78493e-07
-3.30249e-07
-3.05001e-07
-2.6551e-07
-2.44917e-07
-2.12844e-07
-1.96162e-07
-1.70258e-07
-1.5681e-07
-1.35971e-07
-1.25167e-07
-1.0845e-07
-9.97913e-08
-8.64096e-08
-7.9483e-08
-6.87875e-08
-6.32546e-08
-5.47173e-08
-5.03033e-08
-4.34971e-08
-3.99803e-08
-3.45616e-08
-3.17649e-08
-2.74628e-08
-2.52649e-08
-2.19499e-08
-2.06151e-08
-1.9576e-08
-2.29717e-08
-1.56013e-08
-1.17662e-08
-1.03532e-08
-8.90336e-09
-8.19727e-09
-7.16211e-09
-6.63537e-09
-5.8375e-09
-5.43124e-09
-4.8165e-09
-4.50429e-09
-4.03339e-09
-3.79375e-09
-3.43062e-09
-3.23546e-09
-2.91835e-09
-2.7292e-09
-2.38822e-09
-2.18618e-09
-1.82681e-09
-1.63309e-09
-1.31735e-09
-1.09594e-09
-6.4459e-10
-4.2545e-10
-1.23577e-10
-3.06385e-11
-7.25638e-12
-8.59343e-11
0.00119675
-0.000820864
-0.0002477
-7.74913e-05
-2.17902e-05
-7.52733e-06
-3.04657e-06
-1.92266e-06
-1.64945e-06
-1.9964e-06
-1.37204e-06
-1.09985e-06
-1.00481e-06
-8.93494e-07
-8.39887e-07
-7.45282e-07
-6.98631e-07
-6.15197e-07
-5.74545e-07
-5.02867e-07
-4.68295e-07
-4.08043e-07
-3.7919e-07
-3.29324e-07
-3.05566e-07
-2.6475e-07
-2.45373e-07
-2.12225e-07
-1.96528e-07
-1.69757e-07
-1.57103e-07
-1.35567e-07
-1.25401e-07
-1.08126e-07
-9.99786e-08
-8.61499e-08
-7.96325e-08
-6.85798e-08
-6.33738e-08
-5.45515e-08
-5.03982e-08
-4.33648e-08
-4.00557e-08
-3.44562e-08
-3.18246e-08
-2.73782e-08
-2.53092e-08
-2.18703e-08
-2.0603e-08
-1.93983e-08
-2.3402e-08
-1.54597e-08
-1.16691e-08
-1.03545e-08
-8.87346e-09
-8.2103e-09
-7.14165e-09
-6.6461e-09
-5.82174e-09
-5.43949e-09
-4.80432e-09
-4.51056e-09
-4.02408e-09
-3.79863e-09
-3.42385e-09
-3.24028e-09
-2.91318e-09
-2.73523e-09
-2.38263e-09
-2.19244e-09
-1.82016e-09
-1.63794e-09
-1.31356e-09
-1.10512e-09
-6.35289e-10
-4.28751e-10
-1.15215e-10
-2.78537e-11
-6.55671e-12
-8.56954e-11
0.00121206
-0.000880312
-0.000217552
-6.80838e-05
-1.84018e-05
-6.70367e-06
-2.77023e-06
-1.85085e-06
-1.60148e-06
-2.06987e-06
-1.34589e-06
-1.08573e-06
-1.00569e-06
-8.89081e-07
-8.42881e-07
-7.41661e-07
-7.01326e-07
-6.11967e-07
-5.76814e-07
-5.00064e-07
-4.7017e-07
-4.05669e-07
-3.80722e-07
-3.2735e-07
-3.06809e-07
-2.63128e-07
-2.46375e-07
-2.10904e-07
-1.97334e-07
-1.68689e-07
-1.57749e-07
-1.34707e-07
-1.25918e-07
-1.07435e-07
-1.00392e-07
-8.55966e-08
-7.99622e-08
-6.81373e-08
-6.36367e-08
-5.41981e-08
-5.06076e-08
-4.30829e-08
-4.02222e-08
-3.42315e-08
-3.19564e-08
-2.71981e-08
-2.54079e-08
-2.17035e-08
-2.0588e-08
-1.9012e-08
-2.43099e-08
-1.51517e-08
-1.14727e-08
-1.03623e-08
-8.8107e-09
-8.23943e-09
-7.09817e-09
-6.6699e-09
-5.78821e-09
-5.45778e-09
-4.77841e-09
-4.52448e-09
-4.00426e-09
-3.80943e-09
-3.40938e-09
-3.2508e-09
-2.90201e-09
-2.74821e-09
-2.3705e-09
-2.20595e-09
-1.80587e-09
-1.64846e-09
-1.30511e-09
-1.12474e-09
-6.15447e-10
-4.36325e-10
-9.78014e-11
-2.24244e-11
-5.21817e-12
-8.52407e-11
0.00123387
-0.000972774
-0.000166871
-5.46839e-05
-1.34934e-05
-5.56916e-06
-2.37321e-06
-1.75219e-06
-1.52476e-06
-2.19101e-06
-1.30117e-06
-1.06439e-06
-1.00803e-06
-8.81841e-07
-8.48067e-07
-7.35597e-07
-7.05974e-07
-6.06562e-07
-5.8074e-07
-4.9538e-07
-4.73424e-07
-4.01709e-07
-3.83387e-07
-3.24058e-07
-3.08974e-07
-2.60426e-07
-2.48124e-07
-2.08706e-07
-1.98741e-07
-1.6691e-07
-1.58877e-07
-1.33275e-07
-1.26821e-07
-1.06286e-07
-1.01114e-07
-8.46758e-08
-8.05387e-08
-6.7401e-08
-6.40964e-08
-5.36101e-08
-5.09738e-08
-4.26139e-08
-4.05135e-08
-3.38578e-08
-3.21872e-08
-2.68989e-08
-2.55829e-08
-2.14329e-08
-2.05912e-08
-1.83504e-08
-2.57959e-08
-1.46244e-08
-1.11735e-08
-1.03876e-08
-8.70862e-09
-8.29126e-09
-7.02607e-09
-6.71175e-09
-5.73257e-09
-5.48997e-09
-4.73542e-09
-4.549e-09
-3.97138e-09
-3.8284e-09
-3.38521e-09
-3.2689e-09
-2.883e-09
-2.77012e-09
-2.34982e-09
-2.22886e-09
-1.78186e-09
-1.6664e-09
-1.29013e-09
-1.15751e-09
-5.82389e-10
-4.5027e-10
-6.98592e-11
-1.46666e-11
-3.361e-12
-8.46143e-11
0.00126052
-0.00110231
-8.84402e-05
-3.84436e-05
-7.25406e-06
-4.24537e-06
-1.87312e-06
-1.63775e-06
-1.41228e-06
-2.37438e-06
-1.23032e-06
-1.03582e-06
-1.01315e-06
-8.70897e-07
-8.56394e-07
-7.26214e-07
-7.13409e-07
-5.98208e-07
-5.87044e-07
-4.88157e-07
-4.78666e-07
-3.95609e-07
-3.8769e-07
-3.18995e-07
-3.12475e-07
-2.56272e-07
-2.50955e-07
-2.05327e-07
-2.01021e-07
-1.64179e-07
-1.60707e-07
-1.31076e-07
-1.28287e-07
-1.04521e-07
-1.02286e-07
-8.32623e-08
-8.14746e-08
-6.62709e-08
-6.48429e-08
-5.27077e-08
-5.15685e-08
-4.18943e-08
-4.09866e-08
-3.32844e-08
-3.25625e-08
-2.64407e-08
-2.5871e-08
-2.10298e-08
-2.06502e-08
-1.73013e-08
-2.80264e-08
-1.37882e-08
-1.07675e-08
-1.04486e-08
-8.556e-09
-8.37694e-09
-6.9159e-09
-6.78016e-09
-5.64741e-09
-5.5426e-09
-4.66968e-09
-4.58914e-09
-3.92108e-09
-3.85934e-09
-3.34793e-09
-3.29775e-09
-2.85305e-09
-2.8043e-09
-2.31715e-09
-2.26479e-09
-1.74458e-09
-1.69475e-09
-1.26539e-09
-1.20797e-09
-5.31606e-10
-4.74144e-10
-2.89064e-11
-5.15247e-12
-1.16097e-12
-8.38772e-11
0.00126067
-0.00110273
-8.8477e-05
-3.84608e-05
-7.23986e-06
-4.22893e-06
-1.85394e-06
-1.6183e-06
-1.39289e-06
-2.34078e-06
-1.21261e-06
-1.02062e-06
-9.98249e-07
-8.57882e-07
-8.43574e-07
-7.15177e-07
-7.0255e-07
-5.8897e-07
-5.77965e-07
-4.80503e-07
-4.7115e-07
-3.89318e-07
-3.81517e-07
-3.13855e-07
-3.07434e-07
-2.52094e-07
-2.46859e-07
-2.01943e-07
-1.97704e-07
-1.61447e-07
-1.58031e-07
-1.28877e-07
-1.26133e-07
-1.02755e-07
-1.00557e-07
-8.18477e-08
-8.00896e-08
-6.51398e-08
-6.37358e-08
-5.18051e-08
-5.06851e-08
-4.11752e-08
-4.0283e-08
-3.27124e-08
-3.20028e-08
-2.59861e-08
-2.54263e-08
-2.06685e-08
-2.02954e-08
-1.70045e-08
-2.7546e-08
-1.35521e-08
-1.05837e-08
-1.02702e-08
-8.41046e-09
-8.2345e-09
-6.79884e-09
-6.66546e-09
-5.55248e-09
-5.44951e-09
-4.59198e-09
-4.51288e-09
-3.85687e-09
-3.79626e-09
-3.29447e-09
-3.24526e-09
-2.80944e-09
-2.76162e-09
-2.2835e-09
-2.23205e-09
-1.72022e-09
-1.6712e-09
-1.24894e-09
-1.19234e-09
-5.24809e-10
-4.68093e-10
-2.85372e-11
-5.08678e-12
-1.14615e-12
-8.27705e-11
0.00123401
-0.000973139
-0.000166936
-5.47055e-05
-1.34833e-05
-5.55351e-06
-2.35444e-06
-1.73269e-06
-1.50437e-06
-2.16016e-06
-1.2825e-06
-1.04881e-06
-9.93196e-07
-8.68682e-07
-8.35362e-07
-7.24433e-07
-6.95221e-07
-5.97207e-07
-5.71753e-07
-4.87623e-07
-4.65987e-07
-3.95328e-07
-3.77279e-07
-3.18843e-07
-3.03987e-07
-2.56184e-07
-2.44072e-07
-2.05269e-07
-1.95461e-07
-1.64136e-07
-1.56231e-07
-1.31041e-07
-1.24692e-07
-1.04491e-07
-9.94043e-08
-8.32378e-08
-7.91694e-08
-6.62511e-08
-6.30019e-08
-5.26923e-08
-5.01005e-08
-4.18826e-08
-3.98179e-08
-3.3276e-08
-3.1634e-08
-2.64365e-08
-2.51431e-08
-2.10647e-08
-2.02374e-08
-1.80356e-08
-2.53537e-08
-1.4374e-08
-1.09826e-08
-1.02103e-08
-8.56043e-09
-8.15031e-09
-6.9071e-09
-6.59825e-09
-5.63615e-09
-5.39781e-09
-4.65657e-09
-4.47348e-09
-3.90627e-09
-3.76591e-09
-3.33106e-09
-3.21699e-09
-2.83878e-09
-2.72805e-09
-2.31553e-09
-2.19667e-09
-1.7569e-09
-1.64331e-09
-1.27322e-09
-1.14251e-09
-5.74921e-10
-4.44519e-10
-6.89668e-11
-1.44795e-11
-3.31812e-12
-8.34984e-11
0.00121219
-0.000880643
-0.000217636
-6.81092e-05
-1.83946e-05
-6.68867e-06
-2.75175e-06
-1.8313e-06
-1.58048e-06
-2.04085e-06
-1.32662e-06
-1.06987e-06
-9.90892e-07
-8.75827e-07
-8.30249e-07
-7.30415e-07
-6.90639e-07
-6.02537e-07
-5.67884e-07
-4.9224e-07
-4.62782e-07
-3.99231e-07
-3.74655e-07
-3.22085e-07
-3.01856e-07
-2.58845e-07
-2.42351e-07
-2.07434e-07
-1.94077e-07
-1.65886e-07
-1.55121e-07
-1.3245e-07
-1.23803e-07
-1.05622e-07
-9.86943e-08
-8.41435e-08
-7.86026e-08
-6.69752e-08
-6.255e-08
-5.32704e-08
-4.97406e-08
-4.23437e-08
-3.95317e-08
-3.36433e-08
-3.14072e-08
-2.67306e-08
-2.49711e-08
-2.13306e-08
-2.02343e-08
-1.86858e-08
-2.38932e-08
-1.48923e-08
-1.12767e-08
-1.01855e-08
-8.66075e-09
-8.09938e-09
-6.97794e-09
-6.55713e-09
-5.69084e-09
-5.3662e-09
-4.69881e-09
-4.44941e-09
-3.93856e-09
-3.74732e-09
-3.35479e-09
-3.19927e-09
-2.85739e-09
-2.70654e-09
-2.33581e-09
-2.17411e-09
-1.78052e-09
-1.62566e-09
-1.28791e-09
-1.11014e-09
-6.0754e-10
-4.30747e-10
-9.65515e-11
-2.21381e-11
-5.15156e-12
-8.41168e-11
0.00119688
-0.000821172
-0.000247795
-7.75195e-05
-2.1785e-05
-7.51277e-06
-3.02827e-06
-1.90306e-06
-1.6281e-06
-1.96851e-06
-1.35243e-06
-1.08381e-06
-9.90019e-07
-8.80183e-07
-8.27298e-07
-7.33987e-07
-6.87983e-07
-6.05722e-07
-5.65648e-07
-4.95004e-07
-4.60935e-07
-4.0157e-07
-3.73146e-07
-3.2403e-07
-3.00632e-07
-2.60442e-07
-2.41364e-07
-2.08734e-07
-1.93284e-07
-1.66937e-07
-1.54485e-07
-1.33297e-07
-1.23295e-07
-1.06302e-07
-9.82881e-08
-8.46878e-08
-7.82784e-08
-6.74103e-08
-6.22915e-08
-5.36179e-08
-4.95348e-08
-4.26208e-08
-3.93681e-08
-3.38641e-08
-3.12776e-08
-2.69076e-08
-2.48741e-08
-2.14945e-08
-2.02491e-08
-1.90655e-08
-2.30009e-08
-1.5195e-08
-1.14697e-08
-1.01778e-08
-8.72242e-09
-8.07076e-09
-7.02068e-09
-6.53376e-09
-5.72379e-09
-5.34824e-09
-4.72426e-09
-4.43574e-09
-3.95803e-09
-3.73673e-09
-3.36899e-09
-3.18897e-09
-2.86834e-09
-2.69379e-09
-2.34769e-09
-2.1608e-09
-1.79457e-09
-1.61531e-09
-1.2962e-09
-1.09076e-09
-6.27118e-10
-4.23266e-10
-1.13742e-10
-2.74979e-11
-6.47296e-12
-8.45656e-11
0.00118901
-0.000792087
-0.000261828
-8.23469e-05
-2.35161e-05
-7.945e-06
-3.17025e-06
-1.94073e-06
-1.65106e-06
-1.93441e-06
-1.36431e-06
-1.09073e-06
-9.89774e-07
-8.82247e-07
-8.25951e-07
-7.35655e-07
-6.86767e-07
-6.07211e-07
-5.64627e-07
-4.96297e-07
-4.60093e-07
-4.02665e-07
-3.7246e-07
-3.24942e-07
-3.00076e-07
-2.61191e-07
-2.40916e-07
-2.09343e-07
-1.92924e-07
-1.67431e-07
-1.54197e-07
-1.33694e-07
-1.23064e-07
-1.06621e-07
-9.81039e-08
-8.49431e-08
-7.81315e-08
-6.76145e-08
-6.21744e-08
-5.37809e-08
-4.94416e-08
-4.27509e-08
-3.92939e-08
-3.39678e-08
-3.12189e-08
-2.69908e-08
-2.48306e-08
-2.15727e-08
-2.02611e-08
-1.92401e-08
-2.25779e-08
-1.53342e-08
-1.15651e-08
-1.01766e-08
-8.75181e-09
-8.05796e-09
-7.04078e-09
-6.52321e-09
-5.73927e-09
-5.34013e-09
-4.73623e-09
-4.42958e-09
-3.96718e-09
-3.73195e-09
-3.37565e-09
-3.18424e-09
-2.8734e-09
-2.68787e-09
-2.35318e-09
-2.15463e-09
-1.80112e-09
-1.61054e-09
-1.29991e-09
-1.08169e-09
-6.36294e-10
-4.20005e-10
-1.21996e-10
-3.02468e-11
-7.16362e-12
-8.48013e-11
0.00118901
-0.000792087
-0.000261828
-8.23468e-05
-2.35161e-05
-7.94497e-06
-3.17024e-06
-1.94073e-06
-1.65106e-06
-1.93441e-06
-1.36431e-06
-1.09073e-06
-9.89774e-07
-8.82247e-07
-8.25951e-07
-7.35655e-07
-6.86767e-07
-6.07211e-07
-5.64627e-07
-4.96297e-07
-4.60093e-07
-4.02665e-07
-3.7246e-07
-3.24942e-07
-3.00076e-07
-2.61191e-07
-2.40916e-07
-2.09343e-07
-1.92924e-07
-1.67431e-07
-1.54197e-07
-1.33694e-07
-1.23064e-07
-1.06621e-07
-9.81039e-08
-8.49432e-08
-7.81315e-08
-6.76145e-08
-6.21744e-08
-5.37809e-08
-4.94416e-08
-4.27509e-08
-3.92939e-08
-3.39678e-08
-3.12189e-08
-2.69908e-08
-2.48306e-08
-2.15727e-08
-2.02611e-08
-1.92401e-08
-2.25779e-08
-1.53342e-08
-1.15651e-08
-1.01766e-08
-8.75181e-09
-8.05796e-09
-7.04078e-09
-6.52321e-09
-5.73927e-09
-5.34013e-09
-4.73623e-09
-4.42959e-09
-3.96718e-09
-3.73195e-09
-3.37565e-09
-3.18424e-09
-2.8734e-09
-2.68787e-09
-2.35318e-09
-2.15463e-09
-1.80112e-09
-1.61054e-09
-1.29991e-09
-1.08169e-09
-6.36293e-10
-4.20004e-10
-1.21996e-10
-3.02466e-11
-7.16358e-12
-8.48012e-11
0.00119688
-0.000821173
-0.000247795
-7.75194e-05
-2.17848e-05
-7.51269e-06
-3.02823e-06
-1.90304e-06
-1.62809e-06
-1.96851e-06
-1.35243e-06
-1.08381e-06
-9.9002e-07
-8.80183e-07
-8.27298e-07
-7.33987e-07
-6.87983e-07
-6.05722e-07
-5.65648e-07
-4.95004e-07
-4.60935e-07
-4.0157e-07
-3.73146e-07
-3.2403e-07
-3.00632e-07
-2.60442e-07
-2.41365e-07
-2.08734e-07
-1.93284e-07
-1.66938e-07
-1.54485e-07
-1.33297e-07
-1.23295e-07
-1.06302e-07
-9.82881e-08
-8.46878e-08
-7.82785e-08
-6.74104e-08
-6.22916e-08
-5.36179e-08
-4.95348e-08
-4.26208e-08
-3.93681e-08
-3.38642e-08
-3.12776e-08
-2.69076e-08
-2.48742e-08
-2.14945e-08
-2.02491e-08
-1.90655e-08
-2.30009e-08
-1.5195e-08
-1.14697e-08
-1.01778e-08
-8.72242e-09
-8.07076e-09
-7.02068e-09
-6.53376e-09
-5.72379e-09
-5.34824e-09
-4.72426e-09
-4.43575e-09
-3.95803e-09
-3.73673e-09
-3.369e-09
-3.18897e-09
-2.86834e-09
-2.69379e-09
-2.34769e-09
-2.1608e-09
-1.79457e-09
-1.61531e-09
-1.29619e-09
-1.09076e-09
-6.27117e-10
-4.23265e-10
-1.13741e-10
-2.74975e-11
-6.47286e-12
-8.45654e-11
0.00121219
-0.000880644
-0.000217636
-6.81091e-05
-1.83944e-05
-6.68857e-06
-2.7517e-06
-1.83128e-06
-1.58047e-06
-2.04085e-06
-1.32662e-06
-1.06987e-06
-9.90892e-07
-8.75827e-07
-8.3025e-07
-7.30416e-07
-6.9064e-07
-6.02537e-07
-5.67884e-07
-4.9224e-07
-4.62782e-07
-3.99231e-07
-3.74655e-07
-3.22085e-07
-3.01856e-07
-2.58845e-07
-2.42351e-07
-2.07434e-07
-1.94077e-07
-1.65886e-07
-1.55121e-07
-1.3245e-07
-1.23803e-07
-1.05622e-07
-9.86943e-08
-8.41435e-08
-7.86027e-08
-6.69752e-08
-6.255e-08
-5.32704e-08
-4.97406e-08
-4.23437e-08
-3.95317e-08
-3.36433e-08
-3.14072e-08
-2.67306e-08
-2.49711e-08
-2.13306e-08
-2.02344e-08
-1.86858e-08
-2.38932e-08
-1.48923e-08
-1.12767e-08
-1.01855e-08
-8.66075e-09
-8.09938e-09
-6.97795e-09
-6.55714e-09
-5.69084e-09
-5.3662e-09
-4.69881e-09
-4.44941e-09
-3.93857e-09
-3.74732e-09
-3.35479e-09
-3.19927e-09
-2.8574e-09
-2.70654e-09
-2.33581e-09
-2.17411e-09
-1.78052e-09
-1.62566e-09
-1.28791e-09
-1.11014e-09
-6.07539e-10
-4.30746e-10
-9.65507e-11
-2.21376e-11
-5.15143e-12
-8.41165e-11
0.00123401
-0.00097314
-0.000166936
-5.47054e-05
-1.34831e-05
-5.55342e-06
-2.3544e-06
-1.73267e-06
-1.50437e-06
-2.16016e-06
-1.2825e-06
-1.04881e-06
-9.93196e-07
-8.68682e-07
-8.35363e-07
-7.24434e-07
-6.95221e-07
-5.97207e-07
-5.71753e-07
-4.87624e-07
-4.65987e-07
-3.95328e-07
-3.7728e-07
-3.18843e-07