/*--------------------------------*- C++ -*----------------------------------*\
| =========                 |                                                 |
| \\      /  F ield         | OpenFOAM: The Open Source CFD Toolbox           |
|  \\    /   O peration     | Version:  5.x                                   |
|   \\  /    A nd           | Web:      www.OpenFOAM.org                      |
|    \\/     M anipulation  |                                                 |
\*---------------------------------------------------------------------------*/
FoamFile
{
    version     2.0;
    format      ascii;
    class       volScalarField;
    location    "14.7";
    object      gradTy;
}
// * * * * * * * * * * * * * * * * * * * * * * * * * * * * * * * * * * * * * //

dimensions      [0 -1 0 1 0 0 0];

internalField   nonuniform List<scalar> 
6300
(
1001.33
1004.14
1007.36
1011.27
1016.14
1022.21
1029.7
1038.81
1049.69
1062.45
1077.14
1093.74
1112.16
1132.24
1153.75
-0.210008
-0.627186
-1.03557
-1.42834
-1.79734
-2.13273
-2.4228
-2.65423
-2.81273
-2.88429
-2.85705
-2.72361
-2.48338
-2.14439
-1.72371
-0.353178
-1.05512
-1.74333
-2.40701
-3.03297
-3.60493
-4.10317
-4.50472
-4.78438
-4.91674
-4.8795
-4.6577
-4.24842
-3.66454
-2.9361
-0.500747
-1.49677
-2.47563
-3.42341
-4.32259
-5.15084
-5.88022
-6.47711
-6.90333
-7.11882
-7.08652
-6.77928
-6.18805
-5.32926
-4.24837
-0.653786
-1.95557
-3.23898
-4.48837
-5.6831
-6.79556
-7.78969
-8.62013
-9.23294
-9.56861
-9.5684
-9.18479
-8.39517
-7.21598
-5.7115
-0.812617
-2.43275
-4.03632
-5.608
-7.12586
-8.55861
-9.86281
-10.9807
-11.8397
-12.3542
-12.4337
-11.9963
-10.9919
-9.428
-7.39138
-0.976535
-2.92647
-4.86553
-6.78138
-8.65368
-10.4501
-12.1221
-13.6003
-14.7907
-15.5749
-15.8156
-15.3748
-14.1478
-12.1126
-9.37872
-1.14358
-3.43105
-5.71792
-7.99828
-10.2573
-12.466
-14.5753
-16.5073
-18.1479
-19.339
-19.8789
-19.5392
-18.1119
-15.4959
-11.8095
-1.31028
-3.93622
-6.57677
-9.23649
-11.9111
-14.5814
-17.2054
-19.7058
-21.9546
-23.7541
-24.8215
-24.7912
-23.2646
-19.9495
-14.9067
-1.47162
-4.42674
-7.41641
-10.4598
-13.569
-16.7431
-19.959
-23.1558
-26.2103
-28.901
-30.8617
-31.5394
-30.2054
-26.1306
-19.0796
-1.62108
-4.88268
-8.2023
-11.6173
-15.1618
-18.8628
-22.7316
-26.748
-30.8297
-34.7778
-38.1847
-40.2989
-39.887
-35.2879
-25.1977
-1.75108
-5.28058
-8.89277
-12.6451
-16.5981
-20.8145
-25.3565
-30.2747
-35.5824
-41.1954
-46.8001
-51.5844
-53.7556
-49.9361
-35.485
-1.85375
-5.59573
-9.44301
-13.4723
-17.7707
-22.4405
-27.6049
-33.4116
-40.0296
-47.6211
-56.2354
-65.4828
-73.6145
-75.2158
-56.9626
-1.92195
-5.80553
-9.81114
-14.0303
-18.5718
-23.5719
-29.2109
-35.7368
-43.503
-53.0235
-65.0372
-80.4963
-100.004
-120.349
-116.671
-1.95042
-5.89328
-9.96562
-14.266
-18.914
-24.0642
-29.9296
-36.8214
-45.2219
-55.9324
-70.3932
-91.4613
-125.553
-189.506
-336.432
1174.52
1194
1213.86
1233.93
1254
1273.89
1293.45
1312.51
1330.96
1348.7
1365.62
1381.66
1396.77
1410.89
1423.99
1436.04
1447.03
1456.94
1465.77
1473.51
1480.16
1485.74
1490.23
1493.66
1496.04
1497.37
1497.67
1496.97
1495.26
1492.58
1488.94
1484.35
1478.84
1472.42
1465.1
1456.91
1447.86
1437.96
1427.23
1415.69
1403.36
1390.25
1376.37
1361.75
1346.41
1330.36
1313.61
1296.19
1278.12
1259.4
1240.04
1220.07
1199.5
1178.33
1156.58
1134.27
1111.41
1088.01
1064.1
1039.69
1014.81
989.47
963.7
937.522
910.959
884.038
856.785
829.229
801.402
773.34
745.085
716.681
688.18
659.64
631.123
602.697
574.434
546.407
518.692
491.366
464.504
438.178
412.459
387.409
363.089
339.547
316.827
294.96
273.968
253.861
-1.28585
-0.866701
-0.443482
-0.0317778
0.355561
0.709162
1.02331
1.29565
1.52657
1.71846
1.87497
2.00032
2.09886
2.17468
2.23141
2.27216
2.29948
2.31549
2.32188
2.32005
2.31117
2.29624
2.27613
2.25163
2.22345
2.19225
2.15867
2.12331
2.08673
2.04948
2.01204
1.9748
1.93807
1.90201
1.86664
1.83182
1.7973
1.76276
1.72784
1.69225
1.65584
1.61862
1.58078
1.54274
1.50502
1.46822
1.43288
1.39941
1.36799
1.33852
1.3106
1.28355
1.25652
1.22856
1.1988
1.16651
1.13123
1.09281
1.05138
1.00727
0.960918
0.912695
0.86277
0.810972
0.756709
0.698948
0.636274
0.567008
0.489391
0.401794
0.302933
0.192048
0.0690291
-0.0655283
-0.210349
-0.363564
-0.52285
-0.685576
-0.848958
-1.01016
-1.16637
-1.31479
-1.45267
-1.57725
-1.68576
-1.77553
-1.84415
-1.88962
-1.91067
-1.90694
-2.17685
-1.45112
-0.7209
-0.0142197
0.64631
1.24479
1.77218
2.2255
2.60659
2.92063
3.17472
3.37673
3.53445
3.65501
3.7446
3.80839
3.85057
3.87452
3.88293
3.87801
3.86161
3.83532
3.80055
3.75857
3.71053
3.65754
3.60061
3.54076
3.47895
3.41609
3.35304
3.29051
3.22904
3.16891
3.11016
3.05253
2.99553
2.9385
2.88076
2.82172
2.76101
2.69864
2.63495
2.5707
2.5069
2.44469
2.38514
2.32907
2.27688
2.22841
2.18294
2.13922
2.09566
2.05048
2.00202
1.94893
1.89039
1.82616
1.75657
1.68238
1.60453
1.5239
1.44098
1.3556
1.2668
1.17279
1.07101
0.958366
0.831596
0.687646
0.524085
0.339448
0.133469
-0.0928266
-0.337172
-0.596238
-0.865907
-1.14157
-1.4184
-1.69157
-1.95636
-2.20816
-2.44238
-2.6544
-2.83951
-2.99301
-3.11051
-3.18831
-3.22397
-3.21671
-3.11912
-2.04218
-0.964597
0.0696009
1.0262
1.88259
2.62747
3.25911
3.78292
4.20886
4.54918
4.81663
5.02324
5.17962
5.29463
5.37543
5.42762
5.4556
5.46284
5.45216
5.42595
5.38629
5.33503
5.27389
5.20443
5.12814
5.04643
4.9607
4.87232
4.78265
4.69296
4.60437
4.51772
4.4335
4.35174
4.27201
4.19347
4.11496
4.03525
3.95325
3.86828
3.78022
3.68963
3.59772
3.50619
3.41702
3.33209
3.25287
3.18013
3.1137
3.05247
2.99442
2.93686
2.87687
2.81164
2.73896
2.65751
2.567
2.46816
2.36251
2.25193
2.13821
2.02251
1.90493
1.78421
1.65765
1.5212
1.36989
1.19837
1.00158
0.775434
0.517437
0.227027
-0.0942637
-0.442917
-0.81376
-1.20044
-1.59597
-1.99319
-2.38513
-2.76515
-3.1269
-3.46412
-3.77035
-4.03881
-4.26238
-4.43406
-4.54773
-4.59911
-4.58667
-4.13372
-2.63395
-1.14561
0.265389
1.55063
2.68121
3.64607
4.44826
5.10043
5.62064
6.02882
6.34438
6.58462
6.76405
6.8942
6.98391
7.03979
7.06681
7.06883
7.04897
7.00996
6.95423
6.88405
6.80148
6.70848
6.60684
6.49835
6.38475
6.26787
6.14954
6.03161
5.91574
5.80323
5.69486
5.59071
5.49011
5.39166
5.29344
5.19333
5.08938
4.98031
4.86576
4.74652
4.62447
4.5024
4.38355
4.2711
4.16763
4.07455
3.9918
3.91772
3.84915
3.78185
3.71105
3.63224
3.54187
3.4379
3.32006
3.18981
3.04997
2.90408
2.75558
2.60695
2.45898
2.31025
2.15692
1.99297
1.81071
1.60172
1.35794
1.07282
0.742263
0.36521
-0.0561434
-0.516559
-1.00833
-1.5221
-2.0478
-2.57546
-3.09573
-3.60012
-4.08085
-4.53035
-4.9406
-5.30264
-5.60635
-5.84103
-5.99674
-6.0661
-6.04606
-5.24253
-3.20926
-1.21523
0.642293
2.29783
3.71854
4.89901
5.85353
6.6081
7.19383
7.64194
7.98067
8.23367
8.41954
8.55211
8.6412
8.69362
8.71415
8.70642
8.67348
8.61815
8.54313
8.45101
8.34425
8.22507
8.09557
7.95775
7.81369
7.66562
7.51602
7.36746
7.22241
7.08292
6.95029
6.82473
6.70526
6.58968
6.47483
6.35708
6.23307
6.10039
5.95822
5.8076
5.65143
5.49413
5.341
5.19737
5.06759
4.95425
4.85757
4.77517
4.70223
4.63202
4.55692
4.46964
4.36453
4.23842
4.09114
3.92542
3.74629
3.56013
3.37327
3.19059
3.01428
2.84302
2.67162
2.49123
2.29015
2.05529
1.77395
1.43577
1.03417
0.567308
0.038349
-0.544931
-1.17109
-1.82646
-2.49671
-3.16825
-3.82907
-4.46907
-5.07969
-5.65297
-6.18019
-6.65038
-7.04962
-7.36164
-7.57002
-7.6617
-7.63073
-6.46602
-3.72787
-1.08809
1.31029
3.38347
5.10213
6.47774
7.54714
8.35937
8.96567
9.41305
9.7409
9.97989
10.1523
10.2731
10.3518
10.3939
10.4027
10.3809
10.3308
10.2553
10.1572
10.0397
9.90548
9.75715
9.59689
9.42677
9.249
9.06623
8.88164
8.69888
8.52171
8.3534
8.19616
8.05061
7.91544
7.78729
7.66102
7.5305
7.38985
7.23476
7.06347
6.8773
6.68062
6.48046
6.2854
6.10428
5.94447
5.81054
5.70335
5.61958
5.55193
5.48979
5.42085
5.33328
5.21794
5.06994
4.88929
4.68081
4.45325
4.21769
3.98542
3.7655
3.56275
3.37644
3.1997
3.01968
2.81865
2.57617
2.27221
1.8904
1.4204
0.859188
0.211409
-0.511212
-1.29147
-2.10907
-2.94347
-3.77616
-4.5921
-5.38005
-6.13203
-6.8417
-7.50166
-8.10007
-8.61829
-9.03131
-9.31116
-9.43377
-9.38725
-7.81931
-4.10469
-0.613158
2.44673
4.97976
6.97993
8.49769
9.61146
10.4076
10.9668
11.3567
11.6296
11.8225
11.9598
12.0554
12.1157
12.1426
12.1361
12.0965
12.0254
11.9254
11.8
11.6529
11.4877
11.3071
11.1131
10.9075
10.6922
10.4701
10.2453
10.0229
9.80894
9.60862
9.42589
9.26225
9.11622
8.98288
8.85403
8.71921
8.56812
8.39314
8.19084
7.9628
7.71554
7.4601
7.21042
6.98118
6.78474
6.62901
6.51603
6.44145
6.3943
6.35798
6.31224
6.23749
6.11898
5.94904
5.72811
5.46426
5.17227
4.87104
4.58033
4.3162
4.08808
3.8966
3.733
3.57885
3.40732
3.18604
2.883
2.47247
1.93838
1.27614
0.492644
-0.394098
-1.3577
-2.36711
-3.39232
-4.40784
-5.39511
-6.34248
-7.24498
-8.1017
-8.91146
-9.66494
-10.3382
-10.8925
-11.2785
-11.4492
-11.3803
-9.29806
-4.16023
0.483341
4.34172
7.34313
9.5521
11.0991
12.133
12.7968
13.2116
13.469
13.6334
13.7452
13.8274
13.8884
13.9278
13.9392
13.917
13.8576
13.7616
13.6321
13.4739
13.2924
13.0921
12.8762
12.646
12.4021
12.1453
11.878
11.6054
11.3351
11.0765
10.8386
10.6282
10.4486
10.2988
10.1721
10.0557
9.93145
9.78088
9.59097
9.35536
9.07606
8.76233
8.43156
8.1061
7.81099
7.56647
7.38605
7.27355
7.22391
7.22122
7.23982
7.24553
7.20483
7.09419
6.90166
6.62883
6.28833
5.90471
5.50936
5.13706
4.81516
4.56077
4.3767
4.25281
4.16317
4.06771
3.91376
3.64865
3.23257
2.641
1.86777
0.922656
-0.166193
-1.35786
-2.60228
-3.85497
-5.08005
-6.25541
-7.36938
-8.42367
-9.42913
-10.4022
-11.3451
-12.2292
-12.9959
-13.5556
-13.8093
-13.7062
-10.8332
-3.50427
2.71025
7.47035
10.8469
13.0765
14.4383
15.1865
15.5433
15.6818
15.7142
15.7117
15.7095
15.7242
15.7515
15.7788
15.7833
15.7501
15.6703
15.5449
15.3787
15.1802
14.9576
14.7179
14.4646
14.1975
13.9139
13.6121
13.2924
12.961
12.6289
12.3132
12.0277
11.785
11.5907
11.447
11.3452
11.2675
11.1804
11.0491
10.8534
10.5817
10.2378
9.83253
9.39426
8.95699
8.56685
8.25484
8.04426
7.93951
7.93778
8.0165
8.13924
8.24469
8.27194
8.18636
7.96901
7.62606
7.17358
6.65318
6.11362
5.6204
5.21611
4.93142
4.76941
4.72256
4.75516
4.81163
4.80089
4.63103
4.24475
3.60461
2.70631
1.55908
0.209236
-1.28253
-2.82598
-4.35778
-5.82423
-7.2044
-8.48244
-9.67289
-10.8034
-11.9362
-13.1102
-14.2893
-15.3973
-16.2733
-16.6834
-16.5191
-12.1268
-1.24419
7.03095
12.5909
16.0018
17.8495
18.6601
18.802
18.6029
18.3034
18.0081
17.788
17.6478
17.6012
17.6131
17.6612
17.6797
17.6488
17.5471
17.3853
17.17
16.9196
16.6459
16.3612
16.0712
15.7709
15.4503
15.1031
14.7216
14.3161
13.8973
13.5047
13.1532
12.8704
12.6582
12.5332
12.4819
12.4912
12.4911
12.4085
12.2237
11.9101
11.4862
10.9487
10.3539
9.73844
9.20863
8.7956
8.54855
8.45561
8.53432
8.74692
9.06212
9.35503
9.50011
9.46689
9.21589
8.77966
8.15535
7.42792
6.6499
5.97445
5.44364
5.12423
4.99514
5.0768
5.31171
5.65127
5.91612
5.92408
5.62151
4.93906
3.9024
2.48645
0.788224
-1.13352
-3.06718
-4.95533
-6.69323
-8.30096
-9.72213
-11.0088
-12.1748
-13.4114
-14.8682
-16.4521
-18.1327
-19.6619
-20.3847
-20.083
-11.9805
4.76999
15.2607
20.8058
23.4084
24.1165
23.8459
22.9097
21.8079
20.92
20.1946
19.7503
19.4526
19.3951
19.4237
19.5873
19.6486
19.6507
19.5115
19.3041
19.0131
18.6938
18.3512
18.0137
17.6939
17.375
17.0263
16.6451
16.1866
15.6917
15.1298
14.6382
14.1814
13.8559
13.6014
13.5147
13.5329
13.7299
13.9222
13.9165
13.781
13.3991
12.8996
12.1488
11.3448
10.3981
9.68374
9.09881
8.83237
8.72597
8.93946
9.33095
10.0184
10.6796
10.9863
11.0623
10.7308
10.2054
9.2869
8.27677
7.03975
6.12143
5.36793
5.04415
4.91849
5.21143
5.71858
6.59951
7.40224
7.66522
7.54622
6.78452
5.6456
3.82121
1.69001
-0.966472
-3.373
-5.76838
-7.74885
-9.66542
-11.1548
-12.5178
-13.4437
-14.5687
-16.4424
-18.4752
-21.0856
-24.2114
-25.5604
-24.8749
-5.18512
19.7985
30.6116
33.2569
33.5423
31.7921
29.9897
27.2554
24.7045
23.3023
21.976
21.5009
20.9111
21.0647
21.0397
21.6603
21.7022
21.856
21.5736
21.343
20.8967
20.5014
20.0488
19.6405
19.3151
19.0218
18.6488
18.2982
17.7039
17.1636
16.2605
15.7217
15.0202
14.7388
14.3028
14.3451
14.3261
14.9754
15.6381
15.6111
15.6932
15.0571
14.6746
13.4252
12.5413
10.7228
9.97241
8.94331
8.88561
8.5356
9.08817
9.48866
11.0126
12.5143
12.8047
13.2445
12.5247
12.197
10.5503
9.45226
6.97057
6.031
4.67339
4.67874
4.23899
5.03755
5.58717
7.66029
9.66555
9.95634
10.3963
9.17311
8.37582
5.59774
3.34819
-1.15932
-3.69483
-7.17883
-8.89638
-11.6449
-12.7692
-14.6559
-14.4259
-14.6478
-17.7872
-19.6661
-23.296
-31.3192
-33.6656
-31.7826
33.4154
55.2327
57.7246
49.1058
46.6068
39.5418
37.4743
31.3364
25.9457
25.5744
22.5307
23.4159
21.2983
22.9905
21.725
24.5657
23.5935
24.6886
23.5599
23.6913
22.7057
22.3902
21.6816
21.147
20.8888
20.7823
20.2378
20.3012
19.1425
19.1569
16.8657
17.0384
15.2528
15.8434
14.3145
15.2627
14.1561
16.2004
18.3463
17.1473
18.6388
16.3489
17.697
14.1744
15.0827
9.50859
10.6615
7.38812
9.35891
7.04466
9.45507
8.0278
12.0378
16.0927
14.4069
17.0959
13.7529
16.0874
11.023
12.6194
4.67999
6.54188
2.01549
4.95362
1.77568
5.22155
3.26128
8.81817
14.3971
12.032
15.6409
10.9478
13.9579
6.61263
8.25737
-4.19231
-2.6512
-11.1333
-8.55957
-15.9635
-13.2861
-19.8421
-14.7573
-10.5257
-20.9474
-18.3354
-19.1802
-46.6013
-47.8608
-42.4508
237.075
118.494
100.836
56.1418
66.2461
40.0949
50.8203
34.3413
19.9593
31.6951
17.4278
29.6554
16.1995
29.1759
16.4976
32.9618
22.5081
30.7237
23.7321
27.6486
23.55
24.8456
23.0643
22.2561
22.2443
23.1738
20.9521
24.0646
18.8921
24.4706
13.9237
21.1753
12.0643
20.0008
10.7594
19.14
9.44938
17.2795
25.8718
14.8098
27.0301
12.4023
27.7339
8.5437
26.9594
-1.39196
17.725
-1.71805
16.0033
-1.24922
15.3488
-1.26215
12.9989
27.938
9.70997
29.634
6.80591
30.6326
1.90442
29.5187
-11.724
16.2524
-11.3908
14.0361
-10.2254
13.1908
-9.88888
9.94477
30.5681
5.50551
32.8406
1.63008
34.4518
-5.31766
33.4628
-27.3716
12.8263
-31.0077
6.14551
-34.7987
-0.506319
-41.7908
-13.8597
14.6975
-42.8759
-12.0264
23.206
-99.5554
-71.6596
-60.29
232.715
210.898
190.288
170.824
152.427
135.011
118.481
102.738
87.6838
73.219
59.2471
45.6738
32.4073
19.358
6.4383
-1.8763
-1.81076
-1.71768
-1.60268
-1.47168
-1.33027
-1.18325
-1.03441
-0.886496
-0.74124
-0.599525
-0.461541
-0.326951
-0.195034
-0.0648171
-3.16275
-3.04847
-2.88712
-2.6889
-2.46438
-2.22336
-1.97411
-1.72301
-1.47455
-1.23148
-0.99507
-0.765471
-0.541952
-0.32317
-0.107383
-4.5046
-4.33321
-4.09342
-3.80141
-3.47356
-3.12466
-2.76679
-2.40896
-2.05721
-1.71503
-1.3838
-1.06331
-0.752208
-0.448309
-0.148925
-5.92826
-5.68629
-5.3519
-4.94969
-4.50374
-4.03489
-3.5594
-3.08879
-2.63029
-2.18761
-1.76176
-1.35176
-0.95525
-0.568928
-0.188929
-7.46528
-7.13173
-6.67814
-6.14165
-5.55678
-4.95171
-4.3471
-3.75648
-3.18751
-2.64334
-2.12386
-1.62671
-1.14809
-0.683216
-0.22679
-9.15524
-8.69708
-8.0872
-7.3819
-6.62994
-5.86803
-5.12075
-4.40247
-3.7199
-3.07435
-2.46359
-1.88313
-1.32715
-0.789051
-0.261804
-11.0501
-10.414
-9.59151
-8.66872
-7.71296
-6.76964
-5.86532
-5.0127
-4.21521
-3.47053
-2.77298
-2.11505
-1.48833
-0.88402
-0.293177
-13.2206
-12.3172
-11.196
-9.98835
-8.78344
-7.63216
-6.55812
-5.56774
-4.65767
-3.81955
-3.04272
-2.31572
-1.62708
-0.965513
-0.320057
-15.7648
-14.438
-12.8867
-11.3051
-9.80015
-8.41735
-7.16718
-6.04239
-5.02813
-4.10724
-3.26257
-2.47803
-1.73872
-1.03089
-0.341589
-18.8128
-16.7833
-14.6074
-12.5453
-10.6946
-9.0698
-7.65077
-6.40641
-5.30518
-4.31864
-3.42227
-2.59506
-1.81888
-1.07771
-0.356996
-22.5042
-19.2747
-16.2144
-13.5738
-11.3628
-9.51642
-7.95959
-6.62723
-5.46746
-4.43983
-3.51276
-2.66104
-1.864
-1.10407
-0.365673
-26.8386
-21.5966
-17.4013
-14.1727
-11.6664
-9.67334
-8.04382
-6.6754
-5.49751
-4.46042
-3.52785
-2.67229
-1.87199
-1.1089
-0.36729
-31.0213
-22.8715
-17.6215
-14.0489
-11.4567
-9.46655
-7.86687
-6.53294
-5.3867
-4.37643
-3.46588
-2.62826
-1.84274
-1.09222
-0.361876
-30.8849
-21.2463
-16.164
-12.9446
-10.6449
-8.86915
-7.42408
-6.20269
-5.13986
-4.19267
-3.33092
-2.5321
-1.77848
-1.05536
-0.349862
-1.94125
-5.86495
-9.91571
-14.1903
-18.8061
-23.9155
-29.7284
-36.5528
-44.8687
-55.481
-69.857
-90.9629
-125.566
-191.227
-339.092
-1.90134
-5.74187
-9.69885
-13.86
-18.3298
-23.2407
-28.7695
-35.1629
-42.781
-52.1655
-64.1398
-79.8733
-100.403
-122.625
-115.256
-1.83513
-5.5379
-9.34017
-13.3152
-17.547
-22.1369
-27.2098
-32.9224
-39.4663
-47.0512
-55.8116
-65.4521
-74.0641
-74.5723
-46.3776
-1.74634
-5.26479
-8.86152
-12.5919
-16.5156
-20.6975
-25.2059
-30.1045
-35.4284
-41.1205
-46.8721
-51.745
-53.3517
-46.4515
-22.3333
-1.63963
-4.93728
-8.29003
-11.7343
-15.3047
-19.0312
-22.9308
-26.991
-31.1346
-35.1481
-38.5426
-40.3063
-38.5469
-30.287
-12.5589
-1.52016
-4.57148
-7.65497
-10.7889
-13.9854
-17.2447
-20.5441
-23.8195
-26.931
-29.6052
-31.3453
-31.3139
-28.2563
-20.6972
-7.91607
-1.39304
-4.18332
-6.98483
-9.80006
-12.6225
-15.4301
-18.174
-20.7618
-23.0309
-24.7108
-25.3779
-24.4225
-21.0919
-14.7337
-5.39197
-1.26298
-3.78732
-6.30512
-8.8061
-11.2699
-13.6596
-15.9122
-17.9253
-19.5399
-20.5198
-20.537
-19.1805
-16.0297
-10.842
-3.86936
-1.13405
-3.39585
-5.63705
-7.83789
-9.96871
-11.9843
-13.8166
-15.3656
-16.4895
-16.9973
-16.6498
-15.1845
-12.382
-8.18988
-2.8787
-1.00947
-3.01867
-4.99698
-6.91826
-8.74747
-10.4362
-11.9176
-13.1008
-13.867
-14.0687
-13.5389
-12.1169
-9.69933
-6.31481
-2.1979
-0.891661
-2.6629
-4.39649
-6.06253
-7.62371
-9.03203
-10.2256
-11.1257
-11.6365
-11.6481
-11.0474
-9.74056
-7.6881
-4.9483
-1.71074
-0.782232
-2.33327
-3.84288
-5.27957
-6.60604
-7.77697
-8.73718
-9.42082
-9.75259
-9.65252
-9.04624
-7.88201
-6.15414
-3.92744
-1.35131
-0.682122
-2.0324
-3.33989
-4.57312
-5.69635
-6.6682
-7.44082
-7.96025
-8.16849
-8.00846
-7.43249
-6.41482
-4.96657
-3.14921
-1.07972
-0.591706
-1.76123
-2.88843
-3.94303
-4.89176
-5.69773
-6.32024
-6.71572
-6.84009
-6.65319
-6.12544
-5.24662
-4.03529
-2.54604
-0.870587
-0.510932
-1.51943
-2.48739
-3.38643
-4.18629
-4.85463
-5.35727
-5.65941
-5.72781
-5.53458
-5.06214
-4.30928
-3.29699
-2.07217
-0.707089
-0.439438
-1.30577
-2.1342
-2.89867
-3.57212
-4.12655
-4.53352
-4.76537
-4.79719
-4.60983
-4.19355
-3.55209
-2.70625
-1.69568
-0.577683
-0.376655
-1.11842
-1.82541
-2.4741
-3.04059
-3.50086
-3.83136
-4.0102
-4.01876
-3.84403
-3.4813
-2.9368
-2.22989
-1.39379
-0.474224
-0.321889
-0.955204
-1.55711
-2.10661
-2.58281
-2.96525
-3.23451
-3.37325
-3.36757
-3.20878
-2.89525
-2.43428
-1.84324
-1.14984
-0.39082
-0.274387
-0.8138
-1.32518
-1.79
-2.19013
-2.50822
-2.72828
-2.83656
-2.8227
-2.68095
-2.41159
-2.02206
-1.52767
-0.951457
-0.323122
-0.233383
-0.691863
-1.12557
-1.5183
-1.85442
-2.11925
-2.29964
-2.38469
-2.36661
-2.24172
-2.01136
-1.68266
-1.26891
-0.789262
-0.267857
-0.198133
-0.587126
-0.954408
-1.2859
-1.56819
-1.78891
-1.93721
-2.00442
-1.98469
-1.87572
-1.6794
-1.40232
-1.05589
-0.656063
-0.222529
-0.167934
-0.497461
-0.808095
-1.08767
-1.32472
-1.50883
-1.63108
-1.68452
-1.66474
-1.57036
-1.40352
-1.17013
-0.879957
-0.546264
-0.185202
-0.142136
-0.420915
-0.683345
-0.918967
-1.11801
-1.27171
-1.37272
-1.41546
-1.39657
-1.31531
-1.17383
-0.977375
-0.734235
-0.45547
-0.154361
-0.120151
-0.355718
-0.577208
-0.77566
-0.94277
-1.07118
-1.15482
-1.18918
-1.17172
-1.10207
-0.982317
-0.817032
-0.61325
-0.380188
-0.128808
-0.101453
-0.300296
-0.487066
-0.654114
-0.794398
-0.901745
-0.971119
-0.998892
-0.983095
-0.923631
-0.822414
-0.683419
-0.512592
-0.317625
-0.107584
-0.0855766
-0.253255
-0.410617
-0.55115
-0.668894
-0.758671
-0.816306
-0.838853
-0.824791
-0.774176
-0.688741
-0.571908
-0.428697
-0.265528
-0.0899184
-0.0721129
-0.213376
-0.345851
-0.464008
-0.562809
-0.637912
-0.685853
-0.704232
-0.691864
-0.648896
-0.576869
-0.478712
-0.358658
-0.222069
-0.075188
-0.060706
-0.1796
-0.291028
-0.390303
-0.473179
-0.536011
-0.575926
-0.59096
-0.580184
-0.543793
-0.483138
-0.400719
-0.300098
-0.185757
-0.062884
-0.0510474
-0.151007
-0.244641
-0.327986
-0.397464
-0.450023
-0.483274
-0.495606
-0.48629
-0.455535
-0.404519
-0.335363
-0.251066
-0.155369
-0.0525901
-0.042871
-0.126808
-0.205397
-0.275296
-0.333496
-0.377441
-0.405144
-0.415284
-0.407281
-0.381345
-0.338493
-0.280522
-0.209948
-0.129897
-0.0439636
-0.0359478
-0.106321
-0.172186
-0.230729
-0.279425
-0.316135
-0.339209
-0.347559
-0.340723
-0.318901
-0.282964
-0.234431
-0.175409
-0.108509
-0.0367217
-0.0300817
-0.0889649
-0.144058
-0.193
-0.233675
-0.264298
-0.283497
-0.290377
-0.284569
-0.266257
-0.236182
-0.195622
-0.146341
-0.0905143
-0.0306297
-0.0251042
-0.0742401
-0.120201
-0.161012
-0.194904
-0.220392
-0.236338
-0.242005
-0.237097
-0.221779
-0.196679
-0.162868
-0.121817
-0.0753372
-0.0254923
-0.0208714
-0.0617196
-0.0999198
-0.133826
-0.161968
-0.183111
-0.196316
-0.200976
-0.196853
-0.184093
-0.163224
-0.13514
-0.101064
-0.0624963
-0.0211462
-0.0172599
-0.0510377
-0.0826199
-0.110643
-0.13389
-0.151343
-0.162226
-0.166045
-0.162606
-0.152038
-0.134779
-0.111573
-0.0834294
-0.0515871
-0.0174542
-0.0141634
-0.0418801
-0.0677911
-0.090776
-0.109836
-0.124136
-0.133042
-0.136151
-0.133311
-0.124626
-0.110464
-0.0914328
-0.068363
-0.0422682
-0.0143007
-0.0114907
-0.033976
-0.054994
-0.0736343
-0.0890862
-0.100673
-0.107882
-0.110389
-0.108072
-0.101019
-0.0895287
-0.0740971
-0.055397
-0.0342495
-0.0115874
-0.00916232
-0.0270909
-0.0438477
-0.0587063
-0.07102
-0.0802499
-0.0859881
-0.0879768
-0.0861207
-0.0804922
-0.0713302
-0.0590307
-0.0441301
-0.0272826
-0.00923013
-0.00710896
-0.0210192
-0.0340194
-0.0455453
-0.0550951
-0.0622509
-0.0666969
-0.0682339
-0.0667889
-0.0624189
-0.0553102
-0.0457701
-0.0342152
-0.0211521
-0.00715598
-0.00526923
-0.0155795
-0.0252146
-0.0337562
-0.0408324
-0.0461333
-0.0494255
-0.0505615
-0.0494878
-0.0462472
-0.0409781
-0.0339086
-0.0253473
-0.0156695
-0.0053011
-0.00358797
-0.0106084
-0.017169
-0.0229847
-0.0278021
-0.0314106
-0.033651
-0.0344233
-0.0336912
-0.031484
-0.0278961
-0.0230829
-0.0172546
-0.0106665
-0.00360852
-0.00201468
-0.00595673
-0.00964056
-0.0129062
-0.0156114
-0.0176377
-0.0188959
-0.0193297
-0.0189188
-0.0176795
-0.0156649
-0.0129621
-0.00968926
-0.00598978
-0.00202637
-0.000501991
-0.00148431
-0.00240252
-0.00321687
-0.00389193
-0.00439815
-0.00471314
-0.00482267
-0.00472144
-0.00441332
-0.00391134
-0.00323717
-0.00242019
-0.0014963
-0.000506233
0.000995648
0.0029436
0.0047634
0.00637574
0.00771026
0.0087086
0.00932695
0.00953801
0.00933222
0.00871823
0.00772258
0.00638863
0.00477463
0.00295123
0.000998345
0.00252338
0.00746049
0.0120734
0.0161612
0.0195458
0.0220791
0.0236498
0.0241881
0.0236693
0.0221147
0.0195914
0.0162088
0.0121148
0.00748864
0.00253333
0.00412723
0.0122025
0.0197478
0.026435
0.0319725
0.0361181
0.0386894
0.0395721
0.0387254
0.0361839
0.0320567
0.026523
0.0198245
0.0122545
0.00414564
0.00585549
0.0173124
0.028018
0.0375069
0.0453655
0.05125
0.0549013
0.0561569
0.0549582
0.0513539
0.0454985
0.037646
0.0281391
0.0173946
0.00588457
0.00776014
0.022944
0.037133
0.0497107
0.0601291
0.0679323
0.0727765
0.0744456
0.0728611
0.0680868
0.0603268
0.0499175
0.0373131
0.0230663
0.00780337
0.00989833
0.0292664
0.0473667
0.0634137
0.0767084
0.086669
0.0928563
0.0949933
0.0929787
0.0868927
0.0769946
0.063713
0.0476274
0.0294433
0.00996091
0.0123341
0.0364689
0.0590261
0.0790275
0.0956025
0.108026
0.115748
0.118423
0.115923
0.108345
0.0960116
0.0794553
0.0593986
0.0367218
0.0124235
0.0151401
0.0447668
0.0724599
0.0970202
0.117379
0.132646
0.142144
0.145447
0.142393
0.1331
0.11796
0.0976278
0.0729891
0.0451259
0.0152672
0.0183999
0.0544071
0.088069
0.11793
0.142692
0.16127
0.172842
0.176883
0.173194
0.161913
0.143514
0.11879
0.0888182
0.0549156
0.0185798
0.0222101
0.0656758
0.106317
0.142379
0.172297
0.19476
0.208769
0.213687
0.209267
0.195669
0.17346
0.143596
0.107376
0.0663948
0.0224644
0.0266829
0.0789054
0.127744
0.171095
0.207079
0.234118
0.251008
0.256974
0.251711
0.235402
0.208722
0.172814
0.129241
0.0799212
0.0270422
0.0319496
0.0944845
0.152981
0.204926
0.24807
0.280522
0.300831
0.308058
0.301824
0.282336
0.250391
0.207353
0.155095
0.095919
0.032457
0.0381633
0.112867
0.182767
0.244868
0.296486
0.335357
0.359737
0.368489
0.361139
0.337917
0.299763
0.248295
0.185751
0.114893
0.0388798
0.0455037
0.134586
0.217967
0.292088
0.353752
0.400252
0.429494
0.440098
0.431473
0.403867
0.358378
0.296926
0.22218
0.137446
0.0465152
0.0541805
0.160263
0.259595
0.347957
0.421545
0.477129
0.512192
0.525058
0.514985
0.482232
0.428077
0.354787
0.265543
0.164301
0.0556087
0.0644393
0.190627
0.30884
0.414083
0.501839
0.568253
0.610302
0.625944
0.614245
0.575458
0.51106
0.423726
0.317238
0.196327
0.0664556
0.0765661
0.226528
0.36709
0.49235
0.59695
0.676294
0.726745
0.745813
0.732311
0.686464
0.609967
0.505963
0.378946
0.234576
0.0794127
0.0908938
0.268956
0.435965
0.58496
0.709597
0.804396
0.864977
0.888296
0.872834
0.818751
0.727972
0.604177
0.452702
0.280317
0.0949128
0.107808
0.319058
0.517345
0.694481
0.842961
0.956253
1.02908
1.0577
1.04017
0.976517
0.8689
0.721611
0.540975
0.335099
0.113483
0.127753
0.37816
0.613411
0.823897
1.00076
1.1362
1.22388
1.25916
1.23953
1.16481
1.03737
0.862198
0.646774
0.400809
0.135766
0.15124
0.447783
0.726672
0.976659
1.1873
1.34933
1.45504
1.49874
1.47713
1.3897
1.23899
1.03073
0.773777
0.479764
0.162554
0.178847
0.529663
0.86
1.15674
1.4076
1.60155
1.72926
1.78367
1.76044
1.65852
1.48055
1.23307
0.926511
0.574826
0.194826
0.211229
0.62576
1.01665
1.36867
1.66741
1.89975
2.05439
2.1225
2.09837
1.98015
1.77038
1.47644
1.11057
0.689545
0.2338
0.249117
0.738267
1.2003
1.6176
1.97332
2.25189
2.43959
2.52536
2.50164
2.36533
2.11865
1.76974
1.33294
0.82837
0.281003
0.29331
0.869601
1.415
1.90927
2.3328
2.66712
2.89557
3.00424
2.98308
2.82715
2.53789
2.12408
1.60235
0.996909
0.338371
0.344674
1.02238
1.66521
2.25005
2.75421
3.15585
3.43471
3.57327
3.55808
3.38155
3.04361
2.55335
1.92988
1.20232
0.408379
0.404118
1.19938
1.95566
2.64685
3.24681
3.72981
4.07127
4.24903
4.24512
4.04801
3.6551
3.0751
2.32967
1.45381
0.494231
0.47257
1.40344
2.29131
3.10698
3.82061
4.40204
4.82148
5.05091
5.06629
4.85041
4.39649
3.7117
2.82004
1.76344
0.600135
0.550929
1.63735
2.6771
3.63794
4.48619
5.18673
5.7036
6.00143
6.04801
5.81809
5.29818
4.49193
3.42492
2.14716
0.731704
0.640005
1.90366
3.11767
4.24705
5.25431
6.09895
6.7378
7.12637
7.22171
6.98711
6.39867
5.45322
4.17614
2.6265
0.896564
0.740434
2.20443
3.61697
4.94096
6.13533
7.15404
7.94576
8.45489
8.62449
8.40181
7.74704
6.64477
5.1166
3.23102
1.1053
0.852572
2.54093
4.17776
5.72484
7.13829
8.3667
9.3499
10.0192
10.2996
10.1165
9.40612
8.13204
6.30522
4.00229
1.37298
0.976364
2.91319
4.80083
6.60147
8.26972
9.7496
10.972
11.8533
12.2966
12.1974
11.4566
10.0031
7.82445
5.00018
1.72168
1.11119
3.3196
5.4843
7.57
9.53189
11.3112
12.8309
13.9916
14.6702
14.7236
14.002
12.3777
9.79197
6.31349
2.18484
1.2557
3.75633
6.22258
8.62447
10.9208
13.0531
14.939
16.4646
17.478
17.788
17.1741
15.4198
12.3794
8.07827
2.81537
1.4077
4.21692
7.0055
9.75221
12.4235
14.966
17.2973
19.2932
20.7742
21.4938
21.138
19.3551
15.8423
10.5109
3.70135
1.56396
4.69182
7.81746
10.9323
14.0154
17.0255
19.8883
22.4791
24.5991
25.9463
26.0927
24.4916
20.5681
13.9699
4.99921
1.72027
5.16823
8.63687
12.1343
15.6581
19.1872
22.668
25.992
28.9604
31.2325
32.261
31.2405
27.1513
19.0764
7.01074
1.87141
5.63024
9.43626
13.3178
17.297
21.3824
25.5566
29.7517
33.8051
37.3821
39.8521
40.1204
36.5023
26.9541
10.3804
2.01144
6.05944
10.1831
14.4336
18.8619
23.5157
28.4304
33.6096
38.9804
44.3004
48.972
51.6988
49.9711
39.7103
16.6578
2.134
6.43605
10.8418
15.4258
20.2702
25.4676
31.1205
37.3344
44.1906
51.6688
59.442
66.3704
69.3652
61.3495
30.0624
2.23291
6.74059
11.3767
16.237
21.4333
27.103
33.4209
40.6129
48.9687
58.832
70.4983
83.7734
96.4049
99.1489
63.4928
2.30274
6.95587
11.7559
16.8147
22.2674
28.2883
35.1141
43.0831
52.6996
64.7428
80.4368
101.623
130.31
163.614
160.346
2.33946
7.06909
11.9554
17.1188
22.7069
28.9143
36.0132
44.409
54.7451
68.1178
86.5612
114.261
161.009
253.476
477.633
2.34094
7.07347
11.9624
17.1277
22.7163
28.9212
36.0115
44.3873
54.6814
67.9711
86.2566
113.672
159.959
251.883
476.171
2.30724
6.9692
11.7774
16.8425
22.2977
28.3129
35.117
43.0331
52.5371
64.3546
79.6112
99.9759
127.214
158.371
154.021
2.24056
6.76336
11.4139
16.2864
21.4901
27.1567
33.4501
40.576
48.7858
58.3495
69.4182
81.5062
91.7476
89.5144
42.7666
-19.5789
-15.9612
-13.2484
-11.1473
-9.4529
-8.03937
-6.82756
-5.76504
-4.8153
-3.95166
-3.15381
-2.40562
-1.69372
-1.00662
-0.333958
-7.34488
-10.1812
-10.0562
-9.17809
-8.14439
-7.12577
-6.16834
-5.27929
-4.45334
-3.68155
-2.95437
-2.26256
-1.59752
-0.951156
-0.315835
-3.34239
-6.45746
-7.38711
-7.31678
-6.82535
-6.16961
-5.46159
-4.74968
-4.05373
-3.38045
-2.73032
-2.10091
-1.48832
-0.888018
-0.295174
-1.81883
-4.25137
-5.41235
-5.74782
-5.62036
-5.24969
-4.75749
-4.20894
-3.63835
-3.06322
-2.49188
-1.92755
-1.37057
-0.819697
-0.272778
-1.13213
-2.92826
-4.01081
-4.50031
-4.58422
-4.41414
-4.09247
-3.68348
-3.22609
-2.74335
-2.24855
-1.74906
-1.24857
-0.748621
-0.249432
-0.770534
-2.10066
-3.02109
-3.5344
-3.72442
-3.68381
-3.48806
-3.19159
-2.8314
-2.43181
-2.00847
-1.57124
-1.1262
-0.677009
-0.22586
-0.555419
-1.55754
-2.31405
-2.79299
-3.02474
-3.0612
-2.95356
-2.74393
-2.46405
-2.13675
-1.77802
-1.39883
-1.00669
-0.606752
-0.202681
-0.415793
-1.18498
-1.79975
-2.22322
-2.46064
-2.53863
-2.48987
-2.34502
-2.12959
-1.86351
-1.56176
-1.23541
-0.892591
-0.53936
-0.180396
-0.319495
-0.919654
-1.41829
-1.78263
-2.00724
-2.10405
-2.09289
-1.9951
-1.83031
-1.61502
-1.36257
-1.08341
-0.785715
-0.475944
-0.159378
-0.25016
-0.724821
-1.13006
-1.43906
-1.64258
-1.74445
-1.75603
-1.69171
-1.56606
-1.39233
-1.18191
-0.944268
-0.687219
-0.417242
-0.139881
-0.198643
-0.57819
-0.908664
-1.16873
-1.34848
-1.44753
-1.47187
-1.4309
-1.33519
-1.19511
-1.02014
-0.8186
-0.597694
-0.363664
-0.122048
-0.159444
-0.465631
-0.736148
-0.954174
-1.11042
-1.20247
-1.23305
-1.20808
-1.13511
-1.0221
-0.876808
-0.706375
-0.517277
-0.315351
-0.105937
-0.129062
-0.377839
-0.600078
-0.782508
-0.91693
-1.00009
-1.03278
-1.0186
-0.962822
-0.871518
-0.750927
-0.607106
-0.445764
-0.272235
-0.0915341
-0.105169
-0.308474
-0.491647
-0.644175
-0.759027
-0.832762
-0.865062