/*--------------------------------*- C++ -*----------------------------------*\
| =========                 |                                                 |
| \\      /  F ield         | OpenFOAM: The Open Source CFD Toolbox           |
|  \\    /   O peration     | Version:  5.x                                   |
|   \\  /    A nd           | Web:      www.OpenFOAM.org                      |
|    \\/     M anipulation  |                                                 |
\*---------------------------------------------------------------------------*/
FoamFile
{
    version     2.0;
    format      ascii;
    class       volScalarField;
    location    "0.9999";
    object      gradTy;
}
// * * * * * * * * * * * * * * * * * * * * * * * * * * * * * * * * * * * * * //

dimensions      [0 -1 0 1 0 0 0];

internalField   nonuniform List<scalar> 
2048
(
-27.5976
-27.5647
-27.4999
-27.4053
-27.2835
-27.1379
-26.972
-26.7894
-26.5936
-26.3879
-26.1752
-25.9581
-25.7388
-25.5193
-25.3013
-25.0862
-24.8752
-24.669
-24.4686
-24.2742
-24.0862
-23.9047
-23.7299
-23.5616
-23.3998
-23.2444
-23.0954
-22.9526
-22.8159
-22.6854
-22.561
-22.4427
-22.3306
-22.2247
-22.1253
-22.0323
-21.946
-21.8665
-21.794
-21.7286
-21.6705
-21.6199
-21.577
-21.542
-21.5152
-21.4968
-21.487
-21.4859
-21.4937
-21.5102
-21.5352
-21.5683
-21.6086
-21.6553
-21.7068
-21.7618
-21.8181
-21.8739
-21.9269
-21.975
-22.0162
-22.0487
-22.0713
-22.0828
-27.6242
-27.5904
-27.524
-27.4271
-27.3027
-27.1542
-26.9854
-26.8
-26.6016
-26.3935
-26.1787
-25.9597
-25.7388
-25.518
-25.2989
-25.0828
-24.871
-24.6643
-24.4634
-24.2688
-24.0807
-23.8992
-23.7244
-23.5561
-23.3944
-23.2391
-23.0901
-22.9473
-22.8107
-22.6801
-22.5557
-22.4373
-22.3251
-22.2192
-22.1196
-22.0265
-21.9401
-21.8605
-21.7878
-21.7222
-21.664
-21.6132
-21.5701
-21.5349
-21.5079
-21.4893
-21.4793
-21.4782
-21.486
-21.5027
-21.5281
-21.5617
-21.6029
-21.6506
-21.7035
-21.7599
-21.8179
-21.8754
-21.9301
-21.9799
-22.0225
-22.0562
-22.0795
-22.0914
-27.675
-27.6396
-27.5701
-27.4688
-27.3392
-27.1852
-27.0107
-26.8198
-26.6164
-26.4039
-26.1851
-25.9626
-25.7388
-25.5154
-25.2941
-25.0762
-24.863
-24.6553
-24.4537
-24.2586
-24.0702
-23.8887
-23.7139
-23.5457
-23.3841
-23.2289
-23.08
-22.9373
-22.8007
-22.6702
-22.5457
-22.4272
-22.3149
-22.2087
-22.1089
-22.0156
-21.9289
-21.849
-21.776
-21.7102
-21.6516
-21.6005
-21.557
-21.5214
-21.494
-21.475
-21.4648
-21.4635
-21.4714
-21.4884
-21.5145
-21.5492
-21.5919
-21.6416
-21.697
-21.7563
-21.8175
-21.8784
-21.9364
-21.9892
-22.0346
-22.0704
-22.0952
-22.1079
-27.7481
-27.7102
-27.636
-27.5283
-27.3911
-27.2288
-27.0461
-26.8475
-26.6369
-26.418
-26.1936
-25.9663
-25.7383
-25.5113
-25.287
-25.0667
-24.8515
-24.6423
-24.4397
-24.244
-24.0554
-23.8738
-23.699
-23.5311
-23.3697
-23.2146
-23.0659
-22.9233
-22.7868
-22.6563
-22.5317
-22.4131
-22.3005
-22.194
-22.0938
-22.0001
-21.9131
-21.8328
-21.7595
-21.6932
-21.6342
-21.5826
-21.5386
-21.5024
-21.4744
-21.4548
-21.4441
-21.4426
-21.4505
-21.468
-21.4949
-21.5311
-21.576
-21.6286
-21.6875
-21.751
-21.8168
-21.8825
-21.9454
-22.0028
-22.0521
-22.0911
-22.1181
-22.1319
-27.8419
-27.8007
-27.7201
-27.6038
-27.4564
-27.2834
-27.0901
-26.8814
-26.6618
-26.4349
-26.2035
-25.9703
-25.737
-25.5056
-25.2775
-25.0541
-24.8365
-24.6256
-24.4218
-24.2254
-24.0366
-23.855
-23.6805
-23.5127
-23.3516
-23.1968
-23.0483
-22.9059
-22.7694
-22.6389
-22.5143
-22.3954
-22.2825
-22.1757
-22.075
-21.9808
-21.8933
-21.8126
-21.7388
-21.6721
-21.6125
-21.5603
-21.5156
-21.4786
-21.4498
-21.4295
-21.4182
-21.4163
-21.4241
-21.4419
-21.4699
-21.5079
-21.5554
-21.6116
-21.675
-21.7438
-21.8157
-21.8877
-21.957
-22.0203
-22.0748
-22.1179
-22.1478
-22.163
-27.9554
-27.9099
-27.8212
-27.6938
-27.5337
-27.3473
-27.1409
-26.9202
-26.6898
-26.4535
-26.2141
-25.9739
-25.7347
-25.4982
-25.2657
-25.0387
-24.8183
-24.6053
-24.4003
-24.2033
-24.0142
-23.8328
-23.6586
-23.4912
-23.3304
-23.176
-23.0277
-22.8855
-22.7492
-22.6187
-22.494
-22.3749
-22.2616
-22.1542
-22.053
-21.9583
-21.8702
-21.7889
-21.7146
-21.6474
-21.5872
-21.5343
-21.4887
-21.4508
-21.421
-21.3997
-21.3875
-21.385
-21.3926
-21.4107
-21.4398
-21.4797
-21.5303
-21.5906
-21.6595
-21.7348
-21.814
-21.8939
-21.971
-22.0416
-22.1025
-22.1507
-22.184
-22.2011
-28.088
-28.037
-27.9382
-27.7972
-27.6215
-27.419
-27.1971
-26.9624
-26.7197
-26.4729
-26.2247
-25.9768
-25.7311
-25.4888
-25.2515
-25.0204
-24.7969
-24.5817
-24.3753
-24.1777
-23.9887
-23.8076
-23.6339
-23.467
-23.3067
-23.1526
-23.0046
-22.8627
-22.7266
-22.5962
-22.4714
-22.352
-22.2382
-22.1302
-22.0283
-21.9329
-21.8441
-21.7623
-21.6875
-21.6197
-21.5589
-21.5051
-21.4586
-21.4196
-21.3886
-21.3661
-21.3528
-21.3493
-21.3564
-21.3747
-21.4048
-21.4468
-21.5006
-21.5657
-21.6408
-21.7237
-21.8115
-21.9008
-21.9872
-22.0667
-22.1352
-22.1894
-22.2269
-22.246
-28.2393
-28.1816
-28.0704
-27.9129
-27.7184
-27.4969
-27.2571
-27.0064
-26.7503
-26.4922
-26.2345
-25.9786
-25.7258
-25.4774
-25.2347
-24.9992
-24.7723
-24.5547
-24.3471
-24.1491
-23.9603
-23.7798
-23.6068
-23.4406
-23.2808
-23.1271
-22.9795
-22.8379
-22.7021
-22.5718
-22.4469
-22.3272
-22.2128
-22.1041
-22.0014
-21.9051
-21.8156
-21.7332
-21.6578
-21.5895
-21.528
-21.4735
-21.4259
-21.3856
-21.3531
-21.3291
-21.3144
-21.3097
-21.3161
-21.3343
-21.3651
-21.4091
-21.4665
-21.5367
-21.6187
-21.7102
-21.8082
-21.9083
-22.0058
-22.0956
-22.173
-22.2341
-22.2763
-22.2977
-28.4095
-28.3436
-28.2172
-28.0397
-27.8231
-27.5794
-27.3193
-27.051
-26.7803
-26.5104
-26.243
-25.9789
-25.7189
-25.4639
-25.2155
-24.9751
-24.7445
-24.5245
-24.3157
-24.1176
-23.9294
-23.7499
-23.5779
-23.4125
-23.2532
-23.0999
-22.9527
-22.8114
-22.6759
-22.5459
-22.4209
-22.3009
-22.1859
-22.0762
-21.9725
-21.8753
-21.7851
-21.702
-21.6261
-21.5573
-21.4952
-21.4398
-21.391
-21.3493
-21.3152
-21.2894
-21.2729
-21.2667
-21.272
-21.2897
-21.3211
-21.3669
-21.4277
-21.5034
-21.593
-21.6942
-21.8036
-21.9163
-22.0265
-22.1283
-22.2159
-22.2848
-22.3322
-22.3562
-28.5988
-28.5229
-28.3782
-28.1769
-27.9341
-27.6649
-27.382
-27.0947
-26.8087
-26.5268
-26.2497
-25.9774
-25.7101
-25.4483
-25.1937
-24.9481
-24.7135
-24.4911
-24.2812
-24.0834
-23.8963
-23.7181
-23.5473
-23.3829
-23.2243
-23.0714
-22.9245
-22.7836
-22.6486
-22.5189
-22.394
-22.2735
-22.1577
-22.047
-21.9421
-21.8438
-21.7527
-21.669
-21.5928
-21.5235
-21.4609
-21.4046
-21.3546
-21.3113
-21.2752
-21.2473
-21.2287
-21.2206
-21.2244
-21.2413
-21.2728
-21.3202
-21.3843
-21.4656
-21.5633
-21.6752
-21.7975
-21.9245
-22.0494
-22.1649
-22.264
-22.3417
-22.3947
-22.4215
-28.8078
-28.7198
-28.5529
-28.3233
-28.05
-27.7518
-27.4436
-27.1359
-26.8343
-26.5406
-26.2544
-25.9742
-25.6995
-25.4308
-25.1695
-24.9182
-24.6793
-24.4544
-24.2438
-24.0467
-23.8612
-23.6849
-23.5157
-23.3524
-23.1943
-23.0418
-22.8952
-22.7548
-22.6204
-22.4912
-22.3664
-22.2455
-22.1287
-22.0167
-21.9103
-21.8108
-21.7188
-21.6346
-21.558
-21.4886
-21.4255
-21.3684
-21.3171
-21.272
-21.2337
-21.2034
-21.1823
-21.1719
-21.1737
-21.1893
-21.2205
-21.269
-21.3362
-21.4232
-21.5294
-21.653
-21.7896
-21.9328
-22.0745
-22.2055
-22.3177
-22.4049
-22.4639
-22.4935
-29.0373
-28.9346
-28.7413
-28.478
-28.1694
-27.8383
-27.5024
-27.1732
-26.8561
-26.5514
-26.2567
-25.9693
-25.6874
-25.4114
-25.143
-24.8854
-24.6419
-24.4143
-24.2033
-24.0075
-23.8244
-23.6506
-23.4835
-23.3213
-23.1638
-23.0113
-22.8649
-22.7251
-22.5915
-22.4631
-22.3385
-22.2172
-22.0993
-21.9856
-21.8775
-21.7765
-21.6835
-21.5989
-21.5222
-21.4528
-21.3895
-21.3316
-21.2789
-21.2318
-21.1911
-21.158
-21.1341
-21.121
-21.1203
-21.1341
-21.1643
-21.2134
-21.2833
-21.3757
-21.4909
-21.627
-21.7795
-21.941
-22.1017
-22.2505
-22.3771
-22.4744
-22.5396
-22.572
-29.2884
-29.168
-28.943
-28.64
-28.2904
-27.9224
-27.5566
-27.2053
-26.8731
-26.5586
-26.2568
-25.9628
-25.674
-25.3904
-25.1142
-24.8496
-24.601
-24.371
-24.1599
-23.9662
-23.7862
-23.6157
-23.4509
-23.2901
-23.1329
-22.9802
-22.8338
-22.6946
-22.5622
-22.4349
-22.3107
-22.1889
-22.0696
-21.954
-21.8438
-21.7411
-21.647
-21.562
-21.4856
-21.4164
-21.3531
-21.2946
-21.2405
-21.1912
-21.1477
-21.1115
-21.0844
-21.0682
-21.0646
-21.0759
-21.1046
-21.1535
-21.2255
-21.3231
-21.4473
-21.5968
-21.7668
-21.9488
-22.1311
-22.3
-22.4425
-22.5506
-22.6219
-22.6569
-29.5625
-29.4207
-29.1579
-28.8082
-28.4113
-28.0023
-27.6044
-27.2305
-26.8844
-26.5618
-26.2545
-25.955
-25.6597
-25.3682
-25.0833
-24.8108
-24.5567
-24.324
-24.1134
-23.9227
-23.7471
-23.5806
-23.4187
-23.2591
-23.1019
-22.9486
-22.8019
-22.6635
-22.5327
-22.4069
-22.2834
-22.1611
-22.0402
-21.922
-21.8093
-21.7046
-21.6095
-21.5242
-21.4483
-21.3798
-21.3168
-21.2578
-21.2022
-21.1505
-21.104
-21.0643
-21.0336
-21.0138
-21.0069
-21.0151
-21.0415
-21.0894
-21.1628
-21.265
-21.3983
-21.562
-21.751
-21.9558
-22.1628
-22.3546
-22.5146
-22.6336
-22.7105
-22.7476
-29.8612
-29.6936
-29.3858
-28.9811
-28.5302
-28.0759
-27.6439
-27.2474
-26.8891
-26.5609
-26.2503
-25.9465
-25.6449
-25.3453
-25.0506
-24.769
-24.5088
-24.2735
-24.0637
-23.8771
-23.7071
-23.5459
-23.3871
-23.2288
-23.0713
-22.9167
-22.7691
-22.6317
-22.5031
-22.3794
-22.2568
-22.1339
-22.0111
-21.8899
-21.774
-21.6671
-21.5708
-21.4856
-21.4105
-21.3432
-21.2809
-21.2214
-21.1643
-21.1101
-21.0602
-21.0166
-20.982
-20.9583
-20.9475
-20.9521
-20.9753
-21.0214
-21.0951
-21.2012
-21.3433
-21.5219
-21.7316
-21.9618
-22.1968
-22.4147
-22.5938
-22.7236
-22.8051
-22.8437
-30.1864
-29.9875
-29.6266
-29.1575
-28.6446
-28.141
-27.6734
-27.2546
-26.8865
-26.5559
-26.2447
-25.9378
-25.6303
-25.3221
-25.0162
-24.7239
-24.457
-24.219
-24.0107
-23.8295
-23.6669
-23.512
-23.3568
-23.1995
-23.0412
-22.8844
-22.7353
-22.5991
-22.4735
-22.3527
-22.2313
-22.1079
-21.9829
-21.8579
-21.7381
-21.6287
-21.5312
-21.446
-21.3724
-21.3069
-21.2458
-21.186
-21.1272
-21.0703
-21.0166
-20.9688
-20.9299
-20.902
-20.8869
-20.8872
-20.9065
-20.9496
-21.0225
-21.1315
-21.2819
-21.476
-21.708
-21.9661
-22.2331
-22.4811
-22.6809
-22.8209
-22.9056
-22.9446
-30.5402
-30.3036
-29.8802
-29.3356
-28.7521
-28.1955
-27.691
-27.2507
-26.8759
-26.5469
-26.2384
-25.9296
-25.6164
-25.2994
-24.9802
-24.6753
-24.4012
-24.1605
-23.9541
-23.7801
-23.6266
-23.4796
-23.3282
-23.1716
-23.0121
-22.8517
-22.7002
-22.5656
-22.4441
-22.3273
-22.2073
-22.0831
-21.9557
-21.826
-21.7014
-21.5892
-21.4904
-21.4056
-21.334
-21.2712
-21.2117
-21.1517
-21.0912
-21.0314
-20.9734
-20.9209
-20.8776
-20.8452
-20.8255
-20.8209
-20.8353
-20.8743
-20.9452
-21.0557
-21.2136
-21.4237
-21.6796
-21.9681
-22.2717
-22.5547
-22.7768
-22.9256
-23.0113
-23.0493
-30.9252
-30.6427
-30.1466
-29.5136
-28.8497
-28.2374
-27.6952
-27.2339
-26.8567
-26.5342
-26.2324
-25.9226
-25.6039
-25.2781
-24.9431
-24.6227
-24.3413
-24.0978
-23.8935
-23.7286
-23.5868
-23.4494
-23.3017
-23.1455
-22.9843
-22.8186
-22.6633
-22.5309
-22.415
-22.3034
-22.185
-22.0601
-21.9301
-21.7945
-21.6638
-21.5486
-21.4486
-21.3642
-21.2955
-21.2361
-21.1791
-21.1189
-21.0565
-20.9937
-20.9309
-20.8731
-20.8252
-20.7883
-20.7636
-20.7536
-20.7622
-20.7958
-20.8632
-20.9736
-21.1378
-21.3645
-21.6459
-21.9669
-22.3124
-22.6369
-22.8828
-23.0379
-23.1216
-23.1567
-31.3443
-31.0055
-30.4261
-29.6894
-28.9338
-28.2649
-27.6847
-27.2028
-26.8284
-26.5183
-26.228
-25.9175
-25.5931
-25.2594
-24.9048
-24.5653
-24.2771
-24.0308
-23.8284
-23.6753
-23.5478
-23.4223
-23.278
-23.1214
-22.9585
-22.7851
-22.6237
-22.4946
-22.3862
-22.2818
-22.1649
-22.0388
-21.9065
-21.7633
-21.6249
-21.507
-21.4057
-21.3216
-21.2569
-21.2021
-21.1483
-21.0878
-21.0233
-20.9575
-20.8893
-20.8255
-20.773
-20.7314
-20.7015
-20.6857
-20.6876
-20.7145
-20.7769
-20.8852
-21.0539
-21.2978
-21.6063
-21.9611
-22.355
-22.7295
-23.0003
-23.1581
-23.2357
-23.2656
-31.8009
-31.3922
-30.7194
-29.8608
-29
-28.2766
-27.6584
-27.1553
-26.7908
-26.4998
-26.227
-25.9149
-25.5843
-25.2449
-24.8657
-24.5019
-24.2088
-23.9594
-23.758
-23.62
-23.5102
-23.3995
-23.2572
-23.0994
-22.9355
-22.7511
-22.5806
-22.4565
-22.3581
-22.2632
-22.147
-22.0195
-21.8857
-21.7326
-21.5843
-21.4643
-21.3617
-21.2777
-21.2182
-21.1693
-21.1199
-21.0585
-20.9915
-20.9231
-20.8486
-20.778
-20.7211
-20.675
-20.6398
-20.6176
-20.612
-20.6307
-20.6866
-20.7906
-20.9612
-21.2232
-21.5607
-21.9491
-22.3987
-22.8349
-23.1311
-23.2861
-23.3524
-23.3746
-32.2991
-31.8018
-31.0278
-30.025
-29.0427
-28.2718
-27.6158
-27.0891
-26.7437
-26.4793
-26.232
-25.9152
-25.5773
-25.2369
-24.826
-24.4307
-24.1368
-23.8838
-23.6812
-23.5628
-23.4743
-23.3823
-23.2396
-23.0792
-22.9165
-22.7163
-22.5323
-22.4161
-22.3305
-22.2484
-22.1315
-22.0019
-21.8685
-21.7025
-21.541
-21.4209
-21.3168
-21.2318
-21.1794
-21.1379
-21.0944
-21.0313
-20.9613
-20.8911
-20.809
-20.7304
-20.6697
-20.6193
-20.5786
-20.55
-20.5359
-20.5449
-20.5928
-20.69
-20.8585
-21.1404
-21.5091
-21.9283
-22.4424
-22.9566
-23.2773
-23.4218
-23.4707
-23.482
-32.844
-32.2319
-31.3542
-30.1792
-29.0546
-28.2514
-27.5573
-27.0008
-26.6875
-26.4573
-26.2463
-25.9183
-25.5709
-25.2389
-24.7859
-24.3487
-24.0622
-23.8046
-23.5961
-23.5039
-23.4405
-23.3728
-23.2253
-23.0602
-22.9034
-22.6808
-22.4768
-22.3732
-22.3037
-22.2391
-22.1185
-21.9856
-21.8566
-21.673
-21.494
-21.377
-21.2711
-21.1835
-21.1408
-21.1081
-21.0726
-21.0061
-20.9324
-20.862
-20.7705
-20.6823
-20.619
-20.5646
-20.5183
-20.4831
-20.4599
-20.4573
-20.4962
-20.5837
-20.7447
-21.0491
-21.4528
-21.8952
-22.4842
-23.0994
-23.4413
-23.5646
-23.5888
-23.5863
-33.4422
-32.6768
-31.7038
-30.3205
-29.0256
-28.218
-27.4839
-26.8858
-26.6232
-26.4339
-26.2745
-25.9239
-25.5629
-25.256
-24.7455
-24.2514
-23.9871
-23.7227
-23.5
-23.444
-23.4086
-23.3737
-23.2137
-23.041
-22.8991
-22.6445
-22.4111
-22.3278
-22.2773
-22.2371
-22.1075
-21.9694
-21.8519
-21.6441
-21.4412
-21.3335
-21.2249
-21.1315
-21.1026
-21.0798
-21.0556
-20.9829
-20.9042
-20.8367
-20.7332
-20.633
-20.5694
-20.5111
-20.4591
-20.4175
-20.3844
-20.3681
-20.3976
-20.4728
-20.6176
-20.9492
-21.3938
-21.845
-22.5208
-23.2701
-23.6254
-23.7136
-23.705
-23.6856
-34.1024
-33.1266
-32.0851
-30.4455
-28.942
-28.1774
-27.398
-26.7372
-26.5531
-26.4081
-26.3235
-25.9303
-25.5492
-25.2956
-24.7049
-24.132
-23.9152
-23.6394
-23.3891
-23.3842
-23.3782
-23.3889
-23.2042
-23.0191
-22.9079
-22.6073
-22.3311
-22.2806
-22.251
-22.2454
-22.098
-21.9517
-21.8577
-21.6159
-21.3797
-21.292
-21.179
-21.0744
-21.0652
-21.053
-21.0448
-20.9614
-20.876
-20.8165
-20.6971
-20.5817
-20.5212
-20.4592
-20.4012
-20.3538
-20.3102
-20.2776
-20.298
-20.3585
-20.4745
-20.8405
-21.3364
-21.7713
-22.5473
-23.4786
-23.8323
-23.8672
-23.8174
-23.7782
-34.8364
-33.564
-32.5126
-30.5507
-28.7846
-28.1399
-27.3032
-26.5451
-26.4819
-26.3771
-26.4026
-25.9353
-25.5227
-25.3688
-24.6643
-23.9805
-23.8526
-23.557
-23.2573
-23.327
-23.3473
-23.424
-23.1951
-22.9905
-22.9361
-22.5691
-22.2308
-22.2332
-22.2232
-22.2681
-22.0888
-21.9292
-21.8788
-21.5884
-21.3052
-21.2549
-21.1342
-21.0097
-21.0298
-21.0268
-21.0423
-20.941
-20.8463
-20.8035
-20.6621
-20.5268
-20.4752
-20.409
-20.3448
-20.2924
-20.2381
-20.1853
-20.1984
-20.2433
-20.3114
-20.7228
-21.2878
-21.6649
-22.5564
-23.7384
-24.0636
-24.023
-23.9237
-23.8627
-35.6607
-33.9618
-33.0086
-30.6325
-28.5266
-28.1221
-27.2048
-26.2948
-26.4176
-26.3351
-26.5254
-25.935
-25.4728
-25.4914
-24.6234
-23.7823
-23.8086
-23.4785
-23.0957
-23.2771
-23.3124
-23.4867
-23.1841
-22.9489
-22.993
-22.5299
-22.1022
-22.189
-22.1915
-22.3114
-22.0782
-21.8973
-21.9219
-21.5613
-21.2118
-21.2261
-21.0917
-20.9339
-20.998
-21.0001
-21.0511
-20.9209
-20.8129
-20.8005
-20.628
-20.4663
-20.4326
-20.3609
-20.2896
-20.2338
-20.1689
-20.0908
-20.1
-20.1307
-20.1224
-20.5954
-21.259
-21.5138
-22.5374
-24.0691
-24.3201
-24.1778
-24.0217
-23.9376
-36.5983
-34.2775
-33.6077
-30.6869
-28.1306
-28.1497
-27.1099
-25.9648
-26.3738
-26.2712
-26.7113
-25.9234
-25.383
-25.6864
-24.5819
-23.5169
-23.7975
-23.408
-22.8918
-23.2419
-23.267
-23.5886
-23.1678
-22.8846
-23.0918
-22.4892
-21.9342
-22.154
-22.1509
-22.3837
-22.0635
-21.8488
-21.9969
-21.5344
-21.0905
-21.2115
-21.053
-20.842
-20.973
-20.9703
-21.0754
-20.8997
-20.7726
-20.8117
-20.5945
-20.3972
-20.3952
-20.3148
-20.2355
-20.1786
-20.1038
-19.9927
-20.004
-20.0263
-19.8995
-20.4569
-21.2672
-21.3019
-22.4747
-24.4976
-24.6001
-24.3271
-24.1091
-24.0017
-37.6814
-34.4479
-34.3608
-30.7097
-27.5455
-28.2605
-27.0274
-25.5246
-26.3727
-26.1667
-26.9874
-25.8927
-25.2297
-25.9857
-24.5391
-23.1551
-23.8405
-23.3507
-22.6274
-23.2342
-23.1999
-23.7455
-23.1411
-22.784
-23.2511
-22.4465
-21.7113
-22.1382
-22.0933
-22.4971
-22.041
-21.7734
-22.1175
-21.5073
-20.9292
-21.2198
-21.0202
-20.7267
-20.9598
-20.9331
-21.1211
-20.8756
-20.7207
-20.8429
-20.5609
-20.3155
-20.3657
-20.2706
-20.1819
-20.1272
-20.0445
-19.8891
-19.9113
-19.9383
-19.6313
-20.304
-21.3369
-21.008
-22.3467
-25.0614
-24.8984
-24.4655
-24.1837
-24.0544
-38.9547
-34.381
-35.3422
-30.6957
-26.7014
-28.5088
-26.9681
-24.9312
-26.4485
-25.9919
-27.3919
-25.8316
-24.9792
-26.4333
-24.4936
-22.6574
-23.9676
-23.313
-22.277
-23.2736
-23.0935
-23.9798
-23.0976
-22.6274
-23.4967
-22.4006
-21.4129
-22.1575
-22.0054
-22.6686
-22.0057
-21.6565
-22.3027
-21.4789
-20.7113
-21.2636
-20.9957
-20.5778
-20.9661
-20.8819
-21.1966
-20.8459
-20.6508
-20.9023
-20.526
-20.2155
-20.348
-20.2279
-20.1281
-20.0801
-19.993
-19.7769
-19.8223
-19.8785
-19.3028
-20.1313
-21.5031
-20.6044
-22.1234
-25.8116
-25.2037
-24.5869
-24.2438
-24.0951
-40.4794
-33.9468
-36.6563
-30.6384
-25.505
-28.9703
-26.9447
-24.1255
-26.6528
-25.7006
-27.9771
-25.7259
-24.5852
-27.0888
-24.4431
-21.9706
-24.2206
-23.3024
-21.8056
-23.3899
-22.9204
-24.3224
-23.0284
-22.3879
-23.8633
-22.3494
-21.0114
-22.2357
-21.8668
-22.9215
-21.9509
-21.4781
-22.5783
-21.448
-20.4143
-21.3602
-20.9822
-20.3812
-21.0035
-20.8062
-21.3132
-20.807
-20.554
-21.001
-20.4881
-20.0902
-20.3478
-20.1855
-20.073
-20.0375
-19.9523
-19.6519
-19.7362
-19.8633
-18.8944
-19.9297
-21.8139
-20.0561
-21.7644
-26.8169
-25.4967
-24.6844
-24.2879
-24.1237
-42.3384
-32.966
-38.4479
-30.5293
-23.8334
-29.7478
-26.9709
-23.027
-27.0608
-25.2246
-28.8143
-25.5566
-23.985
-28.0314
-24.3842
-21.024
-24.6565
-23.3278
-21.1658
-23.6266
-22.6404
-24.8152
-22.922
-22.0292
-24.397
-22.2895
-20.47
-22.4078
-21.6471
-23.2873
-21.8678
-21.2108
-22.9785
-21.4122
-20.0086
-21.5335
-20.9828
-20.1179
-21.0892
-20.6905
-21.4867
-20.7539
-20.4181
-21.154
-20.4445
-19.9297
-20.373
-20.1417
-20.0153
-19.9995
-19.9262
-19.5085
-19.651
-19.9155
-18.3803
-19.6844
-22.3338
-19.3185
-21.2157
-28.1688
-25.7458
-24.7517
-24.3153
-24.1405
-44.6423
-31.1959
-40.9124
-30.3562
-21.5273
-30.9783
-27.0614
-21.5291
-27.7796
-24.4658
-29.9989
-25.3002
-23.0962
-29.3644
-24.3118
-19.7264
-25.3514
-23.3988
-20.2948
-24.0459
-22.1958
-25.5146
-22.7642
-21.5033
-25.1584
-22.2162
-19.7415
-22.7234
-21.3027
-23.8087
-21.7456
-20.8194
-23.5482
-21.369
-19.4564
-21.8156
-21.001
-19.7633
-21.2479
-20.5131
-21.7383
-20.681
-20.2282
-21.3815
-20.3919
-19.7226
-20.435
-20.0939
-19.954
-19.9665
-19.9206
-19.3399
-19.5628
-20.0663
-17.7294
-19.3746
-23.1485
-18.3373
-20.4074
-29.9877
-25.9048
-24.7847
-24.3268
-24.1468
)
;

boundaryField
{
    left
    {
        type            calculated;
        value           nonuniform List<scalar> 
32
(
-27.5976
-27.6242
-27.675
-27.7481
-27.8419
-27.9554
-28.088
-28.2393
-28.4095
-28.5988
-28.8078
-29.0373
-29.2884
-29.5625
-29.8612
-30.1864
-30.5402
-30.9252
-31.3443
-31.8009
-32.2991
-32.844
-33.4422
-34.1024
-34.8364
-35.6607
-36.5983
-37.6814
-38.9547
-40.4794
-42.3384
-44.6423
)
;
    }
    right
    {
        type            calculated;
        value           nonuniform List<scalar> 
32
(
-22.0828
-22.0914
-22.1079
-22.1319
-22.163
-22.2011
-22.246
-22.2977
-22.3562
-22.4215
-22.4935
-22.572
-22.6569
-22.7476
-22.8437
-22.9446
-23.0493
-23.1567
-23.2656
-23.3746
-23.482
-23.5863
-23.6856
-23.7782
-23.8627
-23.9376
-24.0017
-24.0544
-24.0951
-24.1237
-24.1405
-24.1468
)
;
    }
    interface
    {
        type            calculated;
        value           nonuniform List<scalar> 
64
(
-45.9212
-30.0789
-42.3408
-30.252
-20.1932
-31.7263
-27.1247
-20.6651
-28.2322
-24.0013
-30.6916
-25.147
-22.5679
-30.1431
-24.2715
-18.9771
-25.7745
-23.447
-19.7925
-24.3103
-21.9239
-25.924
-22.6705
-21.1919
-25.6047
-22.1754
-19.3238
-22.9244
-21.093
-24.1145
-21.6732
-20.5877
-23.8819
-21.3452
-19.1384
-21.9885
-21.0151
-19.5596
-21.3492
-20.4058
-21.8868
-20.6389
-20.1177
-21.5168
-20.363
-19.6058
-20.4768
-20.0688
-19.9223
-19.9514
-19.9238
-19.2485
-19.5175
-20.1709
-17.3654
-19.2005
-23.6418
-17.7785
-19.9287
-31.0311
-25.9549
-24.7924
-24.3288
-24.1477
)
;
    }
    bottom
    {
        type            calculated;
        value           nonuniform List<scalar> 
64
(
-27.5907
-27.558
-27.4937
-27.3996
-27.2785
-27.1336
-26.9685
-26.7866
-26.5915
-26.3864
-26.1743
-25.9576
-25.7388
-25.5197
-25.302
-25.0871
-24.8762
-24.6703
-24.4699
-24.2756
-24.0876
-23.9062
-23.7313
-23.563
-23.4012
-23.2459
-23.0968
-22.954
-22.8173
-22.6868
-22.5624
-22.4441
-22.332
-22.2262
-22.1267
-22.0338
-21.9476
-21.8681
-21.7956
-21.7303
-21.6722
-21.6217
-21.5788
-21.5439
-21.5171
-21.4987
-21.489
-21.4879
-21.4957
-21.5121
-21.5371
-21.57
-21.6101
-21.6565
-21.7077
-21.7622
-21.8182
-21.8735
-21.926
-21.9737
-22.0146
-22.0468
-22.0691
-22.0805
)
;
    }
    defaultFaces
    {
        type            empty;
    }
}


// ************************************************************************* //
