/*--------------------------------*- C++ -*----------------------------------*\
| =========                 |                                                 |
| \\      /  F ield         | OpenFOAM: The Open Source CFD Toolbox           |
|  \\    /   O peration     | Version:  5.x                                   |
|   \\  /    A nd           | Web:      www.OpenFOAM.org                      |
|    \\/     M anipulation  |                                                 |
\*---------------------------------------------------------------------------*/
FoamFile
{
    version     2.0;
    format      ascii;
    class       volScalarField;
    location    "0.9999";
    object      gradTx;
}
// * * * * * * * * * * * * * * * * * * * * * * * * * * * * * * * * * * * * * //

dimensions      [0 -1 0 1 0 0 0];

internalField   nonuniform List<scalar> 
2048
(
0.00751635
0.0223141
0.0364266
0.0494678
0.061146
0.0712747
0.0797737
0.0866541
0.0919958
0.095923
0.0985812
0.100121
0.100688
0.100419
0.0994415
0.0978744
0.0958321
0.0934219
0.0907434
0.0878846
0.0849195
0.0819062
0.0788861
0.0758858
0.0729198
0.0699936
0.0671064
0.0642529
0.0614242
0.0586088
0.0557925
0.05296
0.0500958
0.0471863
0.0442207
0.0411918
0.0380949
0.0349275
0.0316869
0.0283692
0.0249681
0.0214757
0.0178836
0.0141856
0.0103803
0.00647521
0.00248952
-0.00154229
-0.00556803
-0.00951604
-0.0132946
-0.0167932
-0.0198861
-0.0224384
-0.0243154
-0.025394
-0.0255754
-0.0247972
-0.0230436
-0.0203508
-0.0168074
-0.0125499
-0.00775371
-0.00262249
0.0224154
0.0665329
0.108573
0.147369
0.182047
0.212057
0.237173
0.257447
0.273137
0.284626
0.29236
0.296793
0.298357
0.297457
0.294467
0.28974
0.283614
0.276407
0.268416
0.259903
0.25109
0.242148
0.233198
0.224316
0.215544
0.206894
0.198363
0.189935
0.181583
0.173271
0.164958
0.156597
0.148141
0.139549
0.130788
0.121837
0.112684
0.103323
0.0937461
0.0839428
0.0738948
0.0635771
0.0529632
0.0420317
0.0307762
0.0192154
0.00740402
-0.00455838
-0.016519
-0.0282664
-0.0395285
-0.0499756
-0.0592306
-0.0668876
-0.0725387
-0.0758095
-0.0763975
-0.0741106
-0.068897
-0.0608635
-0.0502762
-0.0375453
-0.023198
-0.00784618
0.0372043
0.110389
0.180017
0.244108
0.301195
0.350388
0.391356
0.424245
0.449539
0.467925
0.48017
0.487041
0.489255
0.487468
0.482287
0.474286
0.464013
0.451996
0.438726
0.424641
0.410106
0.395403
0.380725
0.36619
0.351855
0.337735
0.323821
0.310081
0.296474
0.282939
0.269406
0.255794
0.242022
0.22802
0.213733
0.199129
0.184189
0.168909
0.153282
0.13729
0.120905
0.10408
0.0867672
0.0689231
0.0505284
0.0316052
0.0122345
-0.0074276
-0.0271365
-0.0465485
-0.0652166
-0.0825941
-0.0980495
-0.110897
-0.120441
-0.126038
-0.127161
-0.123472
-0.11487
-0.10153
-0.0838978
-0.0626671
-0.0387229
-0.0130966
0.0521954
0.154789
0.252169
0.341466
0.420599
0.488363
0.544393
0.589011
0.623015
0.647465
0.663497
0.672205
0.674585
0.671532
0.663862
0.652349
0.637748
0.620791
0.602171
0.582506
0.562307
0.541961
0.521725
0.501745
0.48208
0.462739
0.443697
0.42491
0.406318
0.387839
0.36937
0.350792
0.331987
0.312849
0.293301
0.273301
0.252833
0.231898
0.210495
0.188606
0.16619
0.143177
0.119488
0.0950459
0.0698086
0.0437883
0.0170804
-0.0101146
-0.0374712
-0.0645225
-0.0906518
-0.115094
-0.136954
-0.155247
-0.168961
-0.177147
-0.179018
-0.174057
-0.162098
-0.143376
-0.118531
-0.08856
-0.0547273
-0.0185085
0.0676711
0.200544
0.326279
0.441001
0.541979
0.627735
0.697965
0.753295
0.794961
0.824492
0.843453
0.853289
0.855266
0.850486
0.839946
0.8246
0.805397
0.783281
0.759155
0.733831
0.707973
0.682069
0.656428
0.631203
0.606439
0.58212
0.558203
0.534629
0.511323
0.488182
0.465067
0.441817
0.418264
0.394264
0.369713
0.344563
0.318807
0.292464
0.265549
0.238048
0.209907
0.181028
0.151287
0.120563
0.0887735
0.0559057
0.0220539
-0.0125515
-0.0475173
-0.0822648
-0.116014
-0.147779
-0.176388
-0.200529
-0.218832
-0.229992
-0.232909
-0.22684
-0.211523
-0.187253
-0.154883
-0.11575
-0.0715338
-0.0241906
0.0839017
0.24843
0.40352
0.54414
0.666863
0.770002
0.853449
0.918309
0.96642
0.999906
1.02083
1.03102
1.03197
1.02497
1.01113
0.991574
0.967427
0.939855
0.909997
0.878876
0.847326
0.815932
0.785034
0.754768
0.725138
0.696086
0.667542
0.639435
0.611682
0.584162
0.5567
0.529079
0.501071
0.47248
0.443174
0.413101
0.382278
0.350754
0.318575
0.28574
0.252181
0.217761
0.182303
0.14562
0.107571
0.0680992
0.0272819
-0.0146381
-0.0572162
-0.0997756
-0.141382
-0.180829
-0.216652
-0.247178
-0.270627
-0.285269
-0.289618
-0.282643
-0.263948
-0.233884
-0.193547
-0.144671
-0.0894054
-0.0302309
0.101159
0.299215
0.48504
0.652241
0.796654
0.916471
1.01198
1.08498
1.13813
1.17431
1.19616
1.20588
1.20519
1.19545
1.17789
1.1537
1.12421
1.09082
1.05494
1.01784
0.980537
0.943714
0.907718
0.872631
0.838381
0.804842
0.771911
0.739513
0.707574
0.67596
0.644456
0.612776
0.580612
0.547701
0.513875
0.479087
0.44339
0.406889
0.369676
0.331775
0.293105
0.253482
0.212653
0.170346
0.126339
0.080512
0.0329039
-0.0162469
-0.0664631
-0.116988
-0.166747
-0.214316
-0.257924
-0.295498
-0.324785
-0.343544
-0.34981
-0.34218
-0.320075
-0.283895
-0.235029
-0.175683
-0.108553
-0.0366985
0.119726
0.353699
0.572004
0.766646
0.932674
1.0683
1.17447
1.25398
1.31056
1.34803
1.36971
1.37815
1.37522
1.3623
1.34058
1.31133
1.27605
1.23642
1.19417
1.15086
1.10773
1.06555
1.02464
0.984978
0.94637
0.908593
0.871503
0.835041
0.799162
0.763738
0.728509
0.693097
0.657087
0.620125
0.582001
0.542677
0.502269
0.460962
0.418924
0.376216
0.332747
0.288271
0.242435
0.194859
0.145211
0.0932864
0.0390683
-0.0172291
-0.0751165
-0.13378
-0.192024
-0.248219
-0.300274
-0.34568
-0.381635
-0.405284
-0.414063
-0.406091
-0.380534
-0.33784
-0.279758
-0.209076
-0.129137
-0.0436441
0.13991
0.412731
0.665633
0.888713
1.0762
1.22654
1.34166
1.42574
1.48392
1.52116
1.54153
1.54794
1.54227
1.52576
1.4995
1.46477
1.42322
1.37685
1.32781
1.27802
1.22897
1.18153
1.13593
1.09199
1.04931
1.00755
0.966509
0.926182
0.886593
0.847643
0.809019
0.770221
0.730691
0.68995
0.647729
0.604019
0.559022
0.513045
0.466364
0.4191
0.37115
0.322187
0.271733
0.219263
0.164309
0.106561
0.0459262
-0.0174229
-0.0830069
-0.149983
-0.217064
-0.282431
-0.343676
-0.397813
-0.441407
-0.470869
-0.482886
-0.474959
-0.445906
-0.396219
-0.328099
-0.245072
-0.151267
-0.0510988
0.162046
0.47724
0.767232
1.01985
1.22848
1.39211
1.5141
1.60049
1.65818
1.69356
1.71152
1.71522
1.70641
1.68605
1.65494
1.61428
1.56592
1.51226
1.45594
1.39936
1.34431
1.29173
1.24173
1.19385
1.14743
1.10193
1.05712
1.01309
0.969992
0.927799
0.88613
0.844323
0.801618
0.757373
0.71124
0.663251
0.613742
0.563188
0.512017
0.460437
0.408333
0.355273
0.300614
0.24365
0.18375
0.120469
0.0536261
-0.016661
-0.0899473
-0.165394
-0.241662
-0.316776
-0.388018
-0.451893
-0.504248
-0.540608
-0.556736
-0.549332
-0.516742
-0.459486
-0.380351
-0.28382
-0.174994
-0.0590715
0.186511
0.548251
0.878215
1.16152
1.39076
1.56585
1.69219
1.77821
1.83309
1.86488
1.87936
1.87983
1.86768
1.84333
1.80714
1.76013
1.70437
1.64277
1.5786
1.51486
1.45372
1.3962
1.34217
1.29077
1.24096
1.19197
1.14353
1.0959
1.04946
1.00431
0.959973
0.91557
0.870068
0.822599
0.772715
0.72051
0.666508
0.611418
0.555877
0.500212
0.444294
0.387552
0.329133
0.268105
0.203637
0.135131
0.0623076
-0.01478
-0.095743
-0.179787
-0.265571
-0.351013
-0.433109
-0.507832
-0.57022
-0.614747
-0.636027
-0.62974
-0.593579
-0.528064
-0.436749
-0.325387
-0.200298
-0.0675444
0.213727
0.626907
1.00013
1.31529
1.56426
1.74848
1.87613
1.95872
2.00818
2.03458
2.04463
2.04153
2.02604
1.99777
1.95638
1.9026
1.83877
1.76848
1.69579
1.62446
1.55717
1.49497
1.43736
1.38294
1.33017
1.27794
1.22594
1.17473
1.12507
1.07724
1.03066
0.984125
0.936245
0.885844
0.83234
0.775925
0.717388
0.657745
0.597912
0.538383
0.47901
0.419036
0.357335
0.292701
0.224066
0.150657
0.0720961
-0.0116277
-0.100201
-0.192922
-0.28851
-0.384845
-0.478683
-0.56546
-0.639314
-0.693472
-0.721143
-0.716706
-0.676961
-0.602354
-0.49746
-0.369743
-0.227079
-0.0764683
0.244172
0.714485
1.13467
1.48281
1.75022
1.94063
2.06598
2.14159
2.18276
2.20194
2.20675
2.20002
2.18145
2.14953
2.10295
2.04197
1.96932
1.88946
1.80747
1.72806
1.65456
1.58803
1.52745
1.47063
1.41537
1.36012
1.30455
1.24968
1.19686
1.14666
1.0983
1.05015
1.00036
0.947338
0.89031
0.829627
0.766437
0.702155
0.638065
0.574885
0.512444
0.449726
0.385257
0.317506
0.245124
0.167142
0.0830967
-0.00707094
-0.103141
-0.204555
-0.310176
-0.417933
-0.52441
-0.624528
-0.711441
-0.776913
-0.812435
-0.810759
-0.767453
-0.682748
-0.562575
-0.416745
-0.255143
-0.0857564
0.278389
0.812415
1.28369
1.66585
1.94982
2.1428
2.26161
2.32621
2.35595
2.36606
2.36506
2.35495
2.33387
2.29883
2.24721
2.17858
2.09622
2.00579
1.91356
1.8255
1.74575
1.67538
1.61257
1.55407
1.49687
1.43883
1.37957
1.32081
1.26483
1.21256
1.16297
1.11381
1.06264
1.00733
0.946833
0.881741
0.813701
0.74462
0.676255
0.609632
0.544541
0.479617
0.412934
0.342582
0.266889
0.184664
0.0953904
-0.00100281
-0.104402
-0.21445
-0.330252
-0.449898
-0.569899
-0.684711
-0.786444
-0.865141
-0.910223
-0.912443
-0.865671
-0.769644
-0.632102
-0.466115
-0.284176
-0.095279
0.317001
0.922291
1.44926
1.86628
2.16424
2.35531
2.46272
2.51179
2.52665
2.52589
2.51883
2.50597
2.48324
2.44592
2.38958
2.3128
2.2197
2.11753
2.01398
1.91655
1.83055
1.75701
1.69289
1.63358
1.57508
1.51447
1.45123
1.38816
1.32891
1.27494
1.22475
1.17525
1.12331
1.06609
1.00212
0.93239
0.859218
0.785091
0.712372
0.64251
0.575237
0.508701
0.440394
0.367987
0.289435
0.203286
0.109029
0.00665181
-0.103848
-0.222387
-0.348419
-0.480337
-0.614706
-0.745609
-0.864089
-0.958171
-1.01479
-1.02232
-0.972307
-0.863463
-0.705949
-0.517414
-0.313737
-0.104857
0.360719
1.04589
1.63358
2.08612
2.39456
2.57832
2.66885
2.69736
2.69359
2.68024
2.66727
2.65273
2.62957
2.5911
2.53059
2.44504
2.33995
2.22474
2.10859
2.00096
1.90875
1.83286
1.76859
1.70945
1.6504
1.58746
1.51977
1.45171
1.38898
1.33375
1.28371
1.23464
1.18263
1.12392
1.05641
0.981686
0.903018
0.823508
0.746281
0.673382
0.604463
0.536976
0.467666
0.393778
0.312835
0.223052
0.124032
0.0159313
-0.101381
-0.228168
-0.364365
-0.50883
-0.658337
-0.806748
-0.944075
-1.05596
-1.12635
-1.14097
-1.08817
-0.964675
-0.783909
-0.570015
-0.343236
-0.11426
0.410374
1.18516
1.83907
2.32751
2.64179
2.81174
2.87938
2.88181
2.85531
2.82778
2.80957
2.79496
2.77282
2.73472
2.67087
2.57574
2.45715
2.32749
2.19724
2.07837
1.98002
1.90293
1.83992
1.78203
1.7233
1.65833
1.58542
1.51137
1.44486
1.3889
1.33994
1.29211
1.24086
1.18118
1.10993
1.02973
0.945131
0.859796
0.777816
0.702088
0.632143
0.564452
0.494778
0.420009
0.337163
0.243991
0.140381
0.0268343
-0.096936
-0.231626
-0.37779
-0.534953
-0.700265
-0.867577
-1.02603
-1.15841
-1.24507
-1.26899
-1.21422
-1.07383
-0.865631
-0.623064
-0.371923
-0.123202
0.46695
1.34225
2.0683
2.59278
2.90675
3.0552
3.0936
3.06393
3.01019
2.96705
2.94494
2.93249
2.91299
2.87717
2.81123
2.7054
2.57145
2.4259
2.27981
2.14836
2.04401
1.96717
1.90714
1.85164
1.79429
1.72771
1.64847
1.56697
1.49624
1.4403
1.39353
1.34778
1.29825
1.23827
1.16293
1.07658
0.985595
0.893877
0.806778
0.728437
0.658208
0.59116
0.521751
0.446729
0.362509
0.266116
0.158017
0.0393179
-0.090492
-0.232631
-0.388422
-0.55829
-0.739931
-0.927466
-1.10953
-1.2654
-1.37097
-1.40694
-1.35167
-1.19162
-0.950583
-0.675454
-0.398882
-0.131346
0.531655
1.51947
2.32396
2.88454
3.19007
3.30792
3.31078
3.24245
3.15638
3.09643
3.07268
3.06529
3.04999
3.01887
2.95269
2.83449
2.68286
2.52013
2.35613
2.21042
2.10026
2.0256
1.97065
1.91857
1.86388
1.79639
1.70922
1.61824
1.54275
1.48785
1.44463
1.40175
1.35507
1.29568
1.21565
1.12227
1.02446
0.925674
0.83293
0.752206
0.682597
0.617166
0.5486
0.473983
0.388986
0.289428
0.176834
0.0532988
-0.0820676
-0.231093
-0.396012
-0.578448
-0.776765
-0.985694
-1.19408
-1.37677
-1.50392
-1.55533
-1.50203
-1.31888
-1.038
-0.725779
-0.423035
-0.138311
0.606019
1.71925
2.60877
3.20571
3.49204
3.56861
3.53025
3.41611
3.29188
3.21418
3.19213
3.19361
3.18364
3.16018
3.09658
2.9635
2.79127
2.61047
2.42613
2.26392
2.1482
2.07825
2.03093
1.98304
1.93258
1.86535
1.76797
1.66473
1.58385
1.53142
1.49348
1.45404
1.41155
1.35404
1.26832
1.16674
1.06184
0.955121
0.85599
0.773136
0.705266
0.642589
0.575312
0.501799
0.416749
0.313911
0.196671
0.0686569
-0.0717221
-0.226963
-0.400344
-0.595068
-0.810205
-1.04144
-1.27915
-1.49242
-1.64356
-1.71452
-1.66725
-1.45672
-1.12678
-0.772302
-0.44316
-0.143686
0.692076
1.94412
2.92537
3.55982
3.81252
3.83528
3.75159
3.5837
3.41442
3.31838
3.30282
3.31806
3.31351
3.30141
3.24471
3.0928
2.89626
2.69742
2.48974
2.30807
2.18715
2.1252
2.08868
2.04511
2.00085
1.93589
1.82507
1.70585
1.61889
1.57092
1.54047
1.50454
1.46787
1.41415
1.32113
1.2098
1.09789
0.982171
0.875615
0.790919
0.726194
0.667632
0.601833
0.530177
0.446023
0.339535
0.217302
0.0852437
-0.0595525
-0.220244
-0.401232
-0.607848
-0.839722
-1.09373
-1.36417
-1.61238
-1.78918
-1.88459
-1.84992
-1.60658
-1.2154
-0.812928
-0.457928
-0.147053
0.792642
2.19661
3.27608
3.95123
4.15079
4.10503
3.9749
3.74417
3.5215
3.40691
3.40442
3.43983
3.43876
3.44264
3.39954
3.22264
2.99699
2.78182
2.54699
2.34192
2.21626
2.16661
2.14492
2.10459
2.06903
2.00972
1.88087
1.74074
1.64705
1.60632
1.5862
1.55297
1.52413
1.4771
1.3742
1.2511
1.13293
1.00681
0.891394
0.805196
0.745387
0.692614
0.628038
0.559076
0.477137
0.366247
0.23842
0.102895
-0.0456898
-0.210986
-0.398513
-0.61655
-0.86486
-1.14144
-1.44852
-1.73693
-1.93967
-2.06519
-2.05342
-1.77031
-1.30173
-0.84518
-0.46596
-0.148011
0.91174
2.47909
3.66257
4.38566
4.5053
4.37365
4.20117
3.89662
3.61023
3.47741
3.4968
3.56089
3.55792
3.58366
3.56454
3.35299
3.09201
2.86503
2.598
2.36427
2.23452
2.2027
2.20109
2.16089
2.13725
2.08914
1.93569
1.76827
1.6673
1.6376
1.63161
1.59877
1.58027
1.54441
1.42754
1.29
1.16747
1.02904
0.902819
0.815543
0.762882
0.718026
0.653684
0.588383
0.510583
0.393964
0.259616
0.121453
-0.0302946
-0.199298
-0.392031
-0.62102
-0.8853
-1.18318
-1.53152
-1.86685
-2.09331
-2.25522
-2.28232
-1.95032
-1.38277
-0.866215
-0.465905
-0.146211
1.05525
2.7936
4.0854
4.87088
4.87336
4.63525
4.43282
4.0403
3.67734
3.52724
3.57999
3.68443
3.66857
3.72371
3.74459
3.48338
3.17897
2.94926
2.64295
2.37364
2.24067
2.23374
2.25928
2.21285
2.20535
2.17731
1.98976
1.78694
1.67846
1.6648
1.67818
1.64094
1.63599
1.61818
1.48098
1.32551
1.20238
1.04893
0.909271
0.821464
0.778739
0.744609
0.678348
0.617884
0.547085
0.422547
0.280353
0.140795
-0.0135537
-0.185356
-0.381619
-0.621192
-0.900938
-1.21724
-1.61236
-2.00364
-2.24766
-2.4525
-2.54269
-2.14968
-1.45439
-0.872861
-0.456542
-0.141391
1.23184
3.14157
4.54327
5.41767
5.25077
4.88164
4.67446
4.17459
3.71901
3.55345
3.65408
3.8153
3.76688
3.86128
3.94661
3.61265
3.25424
3.03792
2.68204
2.3682
2.23325
2.26001
2.32256
2.25844
2.27267
2.2785
2.04311
1.79485
1.67914
1.68798
1.7281
1.67788
1.69067
1.70138
1.53404
1.35607
1.239
1.06652
0.909984
0.822384
0.79302
0.773455
0.701349
0.647215
0.587701
0.451774
0.299928
0.160879
0.0043226
-0.169417
-0.367063
-0.617088
-0.912006
-1.24145
-1.69005
-2.15
-2.39939
-2.65325
-2.84275
-2.37227
-1.51087
-0.861721
-0.4369
-0.133412
1.45426
3.52345
5.03211
6.04123
5.63123
5.10161
4.93382
4.29873
3.73083
3.55278
3.71908
3.96073
3.8471
3.99373
4.18035
3.73865
3.3125
3.13621
2.71538
2.34571
2.21054
2.2817
2.39534
2.29449
2.33789
2.39863
2.09539
1.78962
1.66776
1.70714
1.7846
1.70715
1.74319
1.7982
1.58584
1.37944
1.2794
1.08182
0.904024
0.817658
0.805753
0.806143
0.721632
0.675809
0.633955
0.481287
0.317433
0.181798
0.0230989
-0.151847
-0.348062
-0.608805
-0.919231
-1.25306
-1.76323
-2.31029
-2.54402
-2.85142
-3.19348
-2.6229
-1.54437
-0.829353
-0.406391
-0.122285
1.74117
3.93819
5.54373
6.763
6.00564
5.27997
5.22317
4.41151
3.70767
3.52171
3.77459
4.13122
3.90082
4.11686
4.45943
3.85778
3.34613
3.25184
2.74274
2.30349
2.1706
2.2987
2.48392
2.31622
2.39874
2.5457
2.14564
1.76838
1.64265
1.72213
1.85236
1.72513
1.79176
1.91445
1.63488
1.39241
1.32668
1.09473
0.890262
0.806575
0.816864
0.844933
0.737631
0.702826
0.688009
0.510523
0.331697
0.203861
0.0425091
-0.133148
-0.324171
-0.596474
-0.924054
-1.24856
-1.82992
-2.49125
-2.6758
-3.03785
-3.60953
-2.90748
-1.54428
-0.772556
-0.364938
-0.108192
2.11946
4.38261
6.06421
7.61302
6.36112
5.39646
5.5609
4.51064
3.64365
3.45653
3.8193
4.34172
3.9161
4.22438
4.80267
3.96444
3.34457
3.39596
2.76328
2.23837
2.11131
2.31035
2.59717
2.3168
2.45174
2.73059
2.19187
1.72774
1.60207
1.73238
1.93799
1.72667
1.83371
2.05817
1.67881
1.39054
1.38536
1.10487
0.867355
0.788397
0.826073
0.892991
0.747091
0.727066
0.752875
0.538611
0.341233
0.227688
0.0622441
-0.114012
-0.294739
-0.580198
-0.928897
-1.22346
-1.88721
-2.70283
-2.78744
-3.19915
-4.11035
-3.23305
-1.4964
-0.68878
-0.313093
-0.0914885
2.62728
4.85059
6.57175
8.63294
6.67981
5.42438
5.97367
4.5919
3.53218
3.35354
3.85025
4.61312
3.87647
4.30726
5.23563
4.0503
3.29346
3.58437
2.77497
2.14668
2.03052
2.31502
2.74743
2.28667
2.4918
2.96787
2.23058
1.66388
1.54436
1.73663
2.05072
1.70463
1.86517
2.24027
1.71411
1.36785
1.46185
1.11142
0.833743
0.762407
0.832735
0.954703
0.746851
0.746878
0.832676
0.564243
0.344171
0.254325
0.0819312
-0.0953707
-0.25884
-0.559944
-0.937515
-1.17215
-1.93076
-2.95918
-2.86999
-3.31645
-4.72147
-3.6079
-1.38194
-0.576711
-0.25211
-0.072688
3.31782
5.33205
7.0341
9.87965
6.93741
5.32908
6.49895
4.64783
3.36602
3.20941
3.86186
4.97404
3.75965
4.35288
5.79258
4.10345
3.17376
3.83894
2.77392
2.0244
1.92619
2.30949
2.95152
2.21285
2.5118
3.27682
2.25608
1.5726
1.46811
1.73249
2.20318
1.64933
1.88077
2.47537
1.73573
1.31641
1.56507
1.11278
0.787665
0.727989
0.835633
1.03603
0.732586
0.760043
0.932959
0.585505
0.338191
0.285394
0.101104
-0.0784695
-0.215196
-0.535393
-0.955405
-1.08765
-1.95414
-3.27985
-2.9127
-3.36379
-5.47612
-4.04155
-1.17645
-0.437024
-0.183957
-0.0524304
4.26388
5.81177
7.40554
11.4297
7.10128
5.06619
7.18803
4.66613
3.13757
3.02157
3.84455
5.46302
3.5362
4.34418
6.51862
4.10734
2.9607
4.18936
2.75342
1.8672
1.79666
2.28823
3.23205
2.07813
2.50214
3.68269
2.25965
1.44952
1.3724
1.71579
2.41233
1.54793
1.87326
2.7827
1.73663
1.22593
1.70712
1.10624
0.727205
0.684745
0.832686
1.14497
0.698505
0.763659
1.06105
0.599666
0.320461
0.323249
0.119161
-0.064947
-0.162108
-0.505732
-0.990289
-0.961436
-1.94809
-3.69113
-2.90294
-3.30635
-6.41702
-4.54465
-0.848551
-0.273352
-0.111249
-0.0314293
5.56317
6.26791
7.62335
13.3841
7.12834
4.5798
8.10951
4.62748
2.83925
2.78886
3.78303
6.13105
3.16792
4.25863
7.47216
4.03959
2.62269
4.67511
2.70275
1.67078
1.64103
2.24234
3.61893
1.86011
2.45015
4.21802
2.22843
1.2904
1.25711
1.67987
2.7006
1.38372
1.83308
3.18718
1.70725
1.08337
1.90416
1.08746
0.650374
0.632641
0.820593
1.29207
0.63701
0.754008
1.22646
0.602931
0.28758
0.371162
0.135314
-0.0569216
-0.0974004
-0.469389
-1.05266
-0.783317
-1.89952
-4.22751
-2.82622
-3.09835
-7.59846
-5.12884
-0.358566
-0.0934606
-0.0370516
-0.0104094
)
;

boundaryField
{
    left
    {
        type            calculated;
        value           uniform 0;
    }
    right
    {
        type            calculated;
        value           uniform 0;
    }
    interface
    {
        type            calculated;
        value           nonuniform List<scalar> 
64
(
5.56317
6.26791
7.62335
13.3841
7.12834
4.5798
8.10951
4.62748
2.83925
2.78886
3.78303
6.13105
3.16792
4.25863
7.47216
4.03959
2.62269
4.67511
2.70275
1.67078
1.64103
2.24234
3.61893
1.86011
2.45015
4.21802
2.22843
1.2904
1.25711
1.67987
2.7006
1.38372
1.83308
3.18718
1.70725
1.08337
1.90416
1.08746
0.650374
0.632641
0.820593
1.29207
0.63701
0.754008
1.22646
0.602931
0.28758
0.371162
0.135314
-0.0569216
-0.0974004
-0.469389
-1.05266
-0.783317
-1.89952
-4.22751
-2.82622
-3.09835
-7.59846
-5.12884
-0.358566
-0.0934606
-0.0370516
-0.0104094
)
;
    }
    bottom
    {
        type            calculated;
        value           nonuniform List<scalar> 
64
(
0.00751635
0.0223141
0.0364266
0.0494678
0.061146
0.0712747
0.0797737
0.0866541
0.0919958
0.095923
0.0985812
0.100121
0.100688
0.100419
0.0994415
0.0978744
0.0958321
0.0934219
0.0907434
0.0878846
0.0849195
0.0819062
0.0788861
0.0758858
0.0729198
0.0699936
0.0671064
0.0642529
0.0614242
0.0586088
0.0557925
0.05296
0.0500958
0.0471863
0.0442207
0.0411918
0.0380949
0.0349275
0.0316869
0.0283692
0.0249681
0.0214757
0.0178836
0.0141856
0.0103803
0.00647521
0.00248952
-0.00154229
-0.00556803
-0.00951604
-0.0132946
-0.0167932
-0.0198861
-0.0224384
-0.0243154
-0.025394
-0.0255754
-0.0247972
-0.0230436
-0.0203508
-0.0168074
-0.0125499
-0.00775371
-0.00262249
)
;
    }
    defaultFaces
    {
        type            empty;
    }
}


// ************************************************************************* //
