/*--------------------------------*- C++ -*----------------------------------*\
| =========                 |                                                 |
| \\      /  F ield         | OpenFOAM: The Open Source CFD Toolbox           |
|  \\    /   O peration     | Version:  5.x                                   |
|   \\  /    A nd           | Web:      www.OpenFOAM.org                      |
|    \\/     M anipulation  |                                                 |
\*---------------------------------------------------------------------------*/
FoamFile
{
    version     2.0;
    format      ascii;
    class       volScalarField;
    location    "0.9999";
    object      T;
}
// * * * * * * * * * * * * * * * * * * * * * * * * * * * * * * * * * * * * * //

dimensions      [0 0 0 1 0 0 0];

internalField   nonuniform List<scalar> 
2048
(
9.80178
9.80202
9.80248
9.80315
9.80402
9.80506
9.80625
9.80756
9.80896
9.81043
9.81196
9.81351
9.81509
9.81666
9.81822
9.81977
9.82128
9.82276
9.8242
9.8256
9.82695
9.82825
9.82951
9.83072
9.83188
9.833
9.83407
9.83509
9.83607
9.83701
9.83791
9.83876
9.83956
9.84032
9.84104
9.8417
9.84232
9.84289
9.84341
9.84388
9.8443
9.84466
9.84497
9.84522
9.84542
9.84555
9.84562
9.84563
9.84557
9.84545
9.84527
9.84504
9.84475
9.84441
9.84405
9.84365
9.84325
9.84286
9.84248
9.84213
9.84184
9.84161
9.84145
9.84137
9.41382
9.41452
9.4159
9.41791
9.4205
9.4236
9.42713
9.43101
9.43517
9.43955
9.44407
9.44868
9.45334
9.45801
9.46264
9.46721
9.47169
9.47607
9.48033
9.48446
9.48845
9.49231
9.49602
9.49959
9.50303
9.50633
9.5095
9.51253
9.51543
9.5182
9.52085
9.52336
9.52574
9.52799
9.5301
9.53207
9.53391
9.5356
9.53714
9.53853
9.53976
9.54083
9.54175
9.54249
9.54306
9.54345
9.54366
9.54368
9.54352
9.54317
9.54263
9.54193
9.54107
9.54008
9.53898
9.53781
9.53661
9.53543
9.5343
9.53327
9.5324
9.5317
9.53122
9.53098
9.04229
9.04346
9.04574
9.04908
9.05337
9.05849
9.06432
9.07072
9.07758
9.08477
9.0922
9.09978
9.10742
9.11507
9.12265
9.13014
9.13748
9.14464
9.1516
9.15835
9.16487
9.17116
9.17723
9.18306
9.18867
9.19406
9.19922
9.20418
9.20891
9.21344
9.21776
9.22186
9.22575
9.22942
9.23288
9.2361
9.2391
9.24186
9.24438
9.24665
9.24867
9.25043
9.25192
9.25314
9.25407
9.25472
9.25506
9.2551
9.25483
9.25425
9.25337
9.25221
9.25079
9.24915
9.24733
9.24539
9.24339
9.24141
9.23953
9.23782
9.23636
9.2352
9.2344
9.23399
8.68621
8.68785
8.69105
8.69573
8.70172
8.70887
8.71698
8.72588
8.73539
8.74535
8.75562
8.76609
8.77663
8.78717
8.79762
8.80791
8.818
8.82784
8.8374
8.84666
8.8556
8.86423
8.87254
8.88054
8.88822
8.8956
8.90268
8.90947
8.91596
8.92216
8.92808
8.93371
8.93904
8.94408
8.94882
8.95325
8.95736
8.96115
8.96461
8.96773
8.9705
8.97292
8.97497
8.97665
8.97794
8.97883
8.97931
8.97937
8.979
8.9782
8.97698
8.97536
8.97338
8.97108
8.96853
8.9658
8.963
8.96021
8.95756
8.95514
8.95308
8.95144
8.95031
8.94973
8.34468
8.34679
8.35095
8.35699
8.36473
8.37393
8.38434
8.39574
8.40788
8.42058
8.43365
8.44694
8.46032
8.47367
8.48689
8.49991
8.51266
8.52508
8.53714
8.54881
8.56007
8.57093
8.58139
8.59144
8.60111
8.6104
8.6193
8.62784
8.63601
8.64382
8.65127
8.65835
8.66507
8.67142
8.67739
8.68298
8.68816
8.69294
8.6973
8.70124
8.70474
8.7078
8.7104
8.71252
8.71416
8.7153
8.71591
8.71599
8.71552
8.7145
8.71295
8.71088
8.70833
8.70537
8.70206
8.69853
8.69488
8.69125
8.68779
8.68464
8.68194
8.6798
8.67832
8.67756
8.01686
8.01948
8.02462
8.03209
8.04163
8.05293
8.06569
8.0796
8.09439
8.1098
8.12564
8.1417
8.15785
8.17395
8.18988
8.20555
8.22087
8.23578
8.25024
8.26422
8.27771
8.2907
8.3032
8.31523
8.32679
8.33789
8.34854
8.35875
8.36853
8.37787
8.38678
8.39526
8.40331
8.41092
8.41808
8.42477
8.43099
8.43672
8.44195
8.44667
8.45088
8.45455
8.45768
8.46025
8.46224
8.46361
8.46436
8.46447
8.46391
8.46268
8.46079
8.45826
8.45514
8.45149
8.44741
8.44303
8.4385
8.43398
8.42967
8.42573
8.42236
8.41969
8.41784
8.41689
7.70199
7.70516
7.71135
7.72031
7.73173
7.74521
7.76037
7.77683
7.79427
7.8124
7.83097
7.84978
7.86865
7.88744
7.90601
7.92425
7.94207
7.95938
7.97615
7.99235
8.00796
8.02299
8.03745
8.05136
8.06472
8.07756
8.08987
8.10168
8.11298
8.12379
8.13411
8.14393
8.15326
8.16207
8.17037
8.17813
8.18534
8.19199
8.19806
8.20354
8.20843
8.2127
8.21635
8.21935
8.22167
8.22329
8.22419
8.22432
8.22368
8.22225
8.22002
8.21703
8.21333
8.20897
8.20409
8.19882
8.19336
8.18789
8.18266
8.17789
8.17379
8.17055
8.1683
8.16715
7.39937
7.40311
7.41043
7.42099
7.43438
7.45014
7.46777
7.48684
7.50696
7.52779
7.54908
7.5706
7.59215
7.61357
7.63472
7.65547
7.6757
7.69534
7.71434
7.73266
7.7503
7.76728
7.7836
7.7993
7.81438
7.82887
7.84277
7.8561
7.86887
7.88108
7.89274
7.90384
7.9144
7.92438
7.93377
7.94257
7.95073
7.95826
7.96514
7.97135
7.9769
7.98175
7.9859
7.98933
7.99199
7.99387
7.99491
7.99509
7.99437
7.99274
7.99019
7.98674
7.98243
7.97735
7.97163
7.96543
7.95896
7.95249
7.94627
7.9406
7.93572
7.93185
7.92918
7.92782
7.10834
7.11271
7.12123
7.13351
7.14901
7.16714
7.18733
7.20907
7.23189
7.25544
7.27943
7.30361
7.3278
7.35181
7.37548
7.39867
7.42125
7.44314
7.46428
7.48464
7.50422
7.52304
7.54114
7.55854
7.57526
7.59133
7.60675
7.62153
7.63569
7.64924
7.66218
7.67452
7.68625
7.69736
7.70781
7.7176
7.72669
7.73507
7.74272
7.74964
7.75582
7.76124
7.76589
7.76973
7.77274
7.77487
7.77607
7.7763
7.77552
7.77371
7.77084
7.76692
7.76201
7.75618
7.74958
7.74239
7.73486
7.7273
7.72002
7.71337
7.70764
7.70311
7.69998
7.69839
6.82826
6.83332
6.84317
6.8573
6.87504
6.89569
6.91855
6.94301
6.96856
6.99482
7.02149
7.04831
7.07509
7.10163
7.12778
7.15335
7.17822
7.20229
7.22548
7.24778
7.26921
7.28979
7.30958
7.3286
7.34688
7.36446
7.38132
7.39749
7.41298
7.4278
7.44197
7.45549
7.46836
7.48054
7.49203
7.50277
7.51275
7.52195
7.53035
7.53795
7.54474
7.55071
7.55584
7.56011
7.56346
7.56585
7.56722
7.56752
7.5667
7.56471
7.56153
7.55716
7.55163
7.54504
7.53751
7.52928
7.52062
7.51188
7.50345
7.49573
7.48909
7.48385
7.48022
7.47838
6.55856
6.56439
6.5757
6.59184
6.61199
6.6353
6.66093
6.68818
6.7165
6.74546
6.77477
6.80419
6.83352
6.86256
6.89112
6.91903
6.94613
6.97229
6.99746
7.02162
7.0448
7.06705
7.08843
7.109
7.12877
7.14778
7.16602
7.18351
7.20027
7.21631
7.23165
7.24631
7.26026
7.2735
7.28597
7.29764
7.30848
7.31847
7.32759
7.33584
7.34322
7.34973
7.35533
7.36001
7.36371
7.36638
7.36794
7.36832
7.36747
7.36533
7.36185
7.35703
7.35089
7.3435
7.33502
7.32568
7.31581
7.3058
7.29613
7.28725
7.27962
7.2736
7.26946
7.26734
6.29869
6.30537
6.31829
6.33663
6.35939
6.38551
6.41403
6.44414
6.47524
6.5069
6.53882
6.57079
6.60262
6.6341
6.66505
6.69524
6.7245
6.7527
6.77977
6.8057
6.83053
6.85436
6.87725
6.89927
6.92047
6.94084
6.9604
6.97915
6.99711
7.01431
7.03078
7.04652
7.06153
7.07578
7.08921
7.10179
7.11346
7.12421
7.13402
7.14289
7.15084
7.15786
7.16394
7.16903
7.17308
7.17603
7.17779
7.17828
7.17743
7.17515
7.1714
7.16614
7.15937
7.15118
7.1417
7.1312
7.12003
7.10866
7.09763
7.08751
7.07881
7.07196
7.06725
7.06487
6.04813
6.05576
6.07046
6.09122
6.11679
6.14591
6.17744
6.21047
6.24436
6.27868
6.31317
6.34764
6.38192
6.41582
6.4491
6.48153
6.51291
6.54307
6.57195
6.59956
6.62596
6.65126
6.67558
6.69899
6.72154
6.74322
6.76404
6.78399
6.8031
6.82139
6.83893
6.85572
6.87175
6.88698
6.90135
6.9148
6.92728
6.93875
6.94922
6.95869
6.96718
6.9747
6.98124
6.98674
6.99116
6.9944
6.99638
6.997
6.99616
6.99378
6.98977
6.98408
6.97671
6.9677
6.95719
6.94546
6.93291
6.92007
6.90758
6.89609
6.88624
6.87851
6.87322
6.87054
5.80636
5.81506
5.83175
5.85518
5.88381
5.91611
5.95077
5.98679
6.02347
6.06041
6.09741
6.13432
6.171
6.20725
6.24284
6.27748
6.31092
6.34298
6.3736
6.40278
6.43064
6.45734
6.483
6.50773
6.53157
6.55451
6.57653
6.59762
6.6178
6.63714
6.6557
6.67349
6.6905
6.70669
6.72198
6.73628
6.74954
6.76171
6.77281
6.78284
6.79186
6.79986
6.80685
6.81277
6.81755
6.82111
6.82332
6.82409
6.82329
6.82082
6.81659
6.8105
6.80253
6.79269
6.78113
6.76812
6.7541
6.73967
6.72558
6.71262
6.70153
6.69287
6.68697
6.68399
5.57293
5.58283
5.60175
5.62812
5.66007
5.69575
5.73367
5.77271
5.81217
5.85167
5.8911
5.93039
5.96941
6.00799
6.04585
6.08266
6.11812
6.15203
6.18429
6.21496
6.24419
6.27217
6.29909
6.32507
6.35014
6.37429
6.39747
6.41964
6.44085
6.46117
6.48069
6.49945
6.51742
6.53455
6.55073
6.56587
6.57987
6.59272
6.6044
6.61498
6.62448
6.63295
6.64038
6.64672
6.65188
6.65576
6.65823
6.65917
6.65844
6.65592
6.65149
6.64503
6.63648
6.62583
6.61318
6.59882
6.58324
6.56711
6.55129
6.53673
6.52431
6.51466
6.50814
6.50486
5.34736
5.35863
5.38004
5.40968
5.44523
5.48451
5.52581
5.56791
5.6101
5.65209
5.69386
5.73544
5.77675
5.81761
5.85773
5.89669
5.93413
5.96982
6.00366
6.03571
6.06619
6.09536
6.12346
6.15063
6.17688
6.2022
6.22649
6.24969
6.27186
6.2931
6.31354
6.33322
6.35212
6.37017
6.38724
6.40319
6.41792
6.4314
6.44365
6.45473
6.4647
6.47362
6.48148
6.48823
6.49378
6.49801
6.50075
6.50188
6.50125
6.49871
6.49412
6.48733
6.47822
6.46675
6.45301
6.43725
6.42001
6.40205
6.38436
6.36805
6.35421
6.34355
6.3364
6.33283
5.12922
5.14204
5.16625
5.19951
5.23899
5.28207
5.32686
5.37205
5.41691
5.46128
5.50528
5.54908
5.59262
5.63573
5.67808
5.71919
5.75858
5.79598
5.83131
5.86464
5.89626
5.92652
5.95573
5.98402
6.01141
6.03787
6.06324
6.08741
6.11047
6.13257
6.15387
6.17444
6.19425
6.21322
6.23116
6.2479
6.26334
6.27744
6.29021
6.30174
6.31215
6.3215
6.32979
6.33696
6.34291
6.3475
6.35054
6.35188
6.35138
6.34885
6.34414
6.33705
6.32742
6.31516
6.30031
6.2831
6.26411
6.24419
6.22445
6.20625
6.19089
6.1792
6.17142
6.16757
4.91809
4.93268
4.96003
4.99731
5.04106
5.08815
5.13653
5.18482
5.23228
5.27889
5.325
5.37092
5.41664
5.46195
5.50655
5.5498
5.59109
5.63016
5.6669
5.7014
5.73404
5.76528
5.79551
5.82488
5.85338
5.88095
5.90737
5.93246
5.95634
5.97922
6.00135
6.02277
6.04346
6.06334
6.08216
6.09968
6.1158
6.13048
6.14374
6.15569
6.1665
6.17626
6.18497
6.19257
6.19893
6.2039
6.20725
6.20883
6.20848
6.20601
6.20121
6.19387
6.18376
6.17075
6.15478
6.13607
6.11524
6.09323
6.07127
6.05099
6.03403
6.02128
6.01292
6.00882
4.71355
4.73016
4.76103
4.80279
4.85118
4.90248
4.95455
5.00594
5.05587
5.10458
5.15264
5.2006
5.24843
5.29591
5.34277
5.38818
5.43135
5.47202
5.5101
5.54565
5.57918
5.61128
5.64248
5.67287
5.70243
5.73111
5.75857
5.78453
5.80914
5.83274
5.85563
5.87788
5.89944
5.92023
5.93993
5.95822
5.975
5.99023
6.00393
6.01626
6.02743
6.03759
6.04672
6.05473
6.06153
6.06689
6.07058
6.07242
6.07224
6.06985
6.06502
6.05748
6.04694
6.0332
6.01614
5.99589
5.97312
5.94889
5.92451
5.90195
5.8833
5.86951
5.86062
5.85629
4.51521
4.53415
4.56894
4.61568
4.66912
4.7248
4.78064
4.83512
4.88739
4.93799
4.98783
5.03775
5.08763
5.13724
5.18639
5.234
5.279
5.32123
5.36058
5.39705
5.43132
5.46418
5.49627
5.52765
5.55824
5.58804
5.61653
5.64329
5.66855
5.69278
5.71641
5.73946
5.76185
5.78357
5.80416
5.8232
5.84062
5.85638
5.87047
5.88313
5.89463
5.90517
5.91471
5.92315
5.93039
5.93617
5.9402
5.94232
5.94235
5.94008
5.93526
5.92757
5.91666
5.90225
5.88412
5.86228
5.83748
5.81091
5.7839
5.75881
5.73838
5.7236
5.71424
5.70975
4.32269
4.34432
4.38344
4.43574
4.49469
4.55488
4.61454
4.67211
4.72653
4.77881
4.83023
4.88203
4.93392
4.98557
5.03709
5.08697
5.13374
5.17748
5.21803
5.25528
5.29016
5.32363
5.35657
5.3889
5.42048
5.45143
5.48098
5.50846
5.53429
5.55905
5.58338
5.60719
5.6304
5.65306
5.67459
5.69435
5.71239
5.72866
5.74309
5.75602
5.7678
5.77872
5.78867
5.79752
5.80523
5.81146
5.81585
5.81825
5.81851
5.81639
5.81163
5.80385
5.79263
5.77761
5.75845
5.73498
5.70807
5.67907
5.64917
5.62126
5.59897
5.58328
5.57356
5.56897
4.1356
4.16037
4.20424
4.26274
4.32772
4.39246
4.456
4.51667
4.573
4.62672
4.67947
4.73311
4.78696
4.84057
4.89455
4.9468
4.99526
5.04046
5.08219
5.12005
5.15537
5.18931
5.22308
5.25634
5.28885
5.321
5.35165
5.37977
5.40605
5.43125
5.45625
5.48081
5.50478
5.52844
5.55094
5.57139
5.59003
5.60679
5.6215
5.63465
5.64666
5.65794
5.6683
5.67757
5.68577
5.69248
5.69722
5.69993
5.70043
5.6985
5.69384
5.68605
5.67457
5.65902
5.6389
5.61375
5.58462
5.55314
5.52009
5.48897
5.46477
5.44829
5.43835
5.43373
3.95356
3.98205
4.03103
4.0965
4.16808
4.23729
4.30476
4.36858
4.42652
4.4814
4.53519
4.59067
4.64647
4.70186
4.75846
4.81325
4.86324
4.90988
4.95277
4.99106
5.02666
5.06089
5.09549
5.12968
5.16302
5.19647
5.22831
5.25696
5.28356
5.30906
5.33474
5.36005
5.3847
5.40943
5.43296
5.45404
5.47328
5.49053
5.50543
5.51874
5.53092
5.54258
5.55336
5.56301
5.57175
5.57896
5.58406
5.58707
5.58785
5.58613
5.58162
5.57388
5.56222
5.54621
5.52524
5.49835
5.4669
5.43294
5.39643
5.36161
5.33548
5.3184
5.30841
5.30384
3.77618
3.80916
3.86348
3.93683
4.0157
4.08912
4.16055
4.22765
4.28681
4.34256
4.39703
4.45444
4.51217
4.56908
4.62854
4.6861
4.73739
4.78544
4.82956
4.86803
4.90374
4.93805
4.97354
5.00866
5.04269
5.07757
5.11073
5.13975
5.16657
5.19221
5.2186
5.24465
5.26988
5.29577
5.32045
5.34205
5.36187
5.37963
5.39465
5.40804
5.42032
5.43238
5.44359
5.45358
5.4629
5.47067
5.4761
5.47944
5.4805
5.47901
5.47471
5.46709
5.4553
5.43893
5.41726
5.38855
5.35464
5.31831
5.278
5.23885
5.21083
5.1934
5.18355
5.17913
3.60308
3.64158
3.70126
3.78355
3.87056
3.94764
4.02311
4.09372
4.15356
4.20994
4.26461
4.32413
4.38384
4.44184
4.5045
4.56517
4.6174
4.66687
4.71233
4.75068
4.78634
4.82047
4.85697
4.89305
4.92754
4.96407
4.99874
5.02792
5.05483
5.08039
5.10758
5.13439
5.16002
5.18723
5.21318
5.23517
5.25556
5.27389
5.28889
5.30232
5.31459
5.3271
5.33876
5.34902
5.35899
5.36739
5.3731
5.37676
5.37813
5.37689
5.37284
5.36542
5.35355
5.33692
5.31476
5.28411
5.24757
5.20913
5.16466
5.12029
5.09052
5.07308
5.06359
5.05943
3.43383
3.47928
3.54394
3.63653
3.73273
3.8125
3.89215
3.96669
4.02649
4.08327
4.13751
4.1995
4.26128
4.31972
4.38609
4.45035
4.50292
4.55387
4.60093
4.63873
4.67423
4.7078
4.74553
4.78266
4.81724
4.85572
4.89219
4.9212
4.94812
4.97332
5.00147
5.02909
5.05482
5.08356
5.11101
5.13312
5.15412
5.1731
5.18792
5.20135
5.21348
5.22653
5.23867
5.24908
5.25979
5.26889
5.27483
5.27881
5.28051
5.27953
5.27576
5.26866
5.25674
5.23993
5.21758
5.18483
5.14538
5.10533
5.05628
5.00553
4.97431
4.95727
4.94839
4.94457
3.26796
3.32237
3.39103
3.49562
3.60237
3.68329
3.76737
3.84652
3.90523
3.96238
4.01529
4.08034
4.14439
4.20224
4.27304
4.34159
4.3936
4.44616
4.49522
4.53187
4.5672
4.5997
4.63903
4.67733
4.71142
4.75229
4.79097
4.81934
4.84623
4.87067
4.90005
4.92856
4.95396
4.98455
5.01378
5.03564
5.0573
5.0771
5.09151
5.10492
5.11671
5.13045
5.14312
5.1535
5.16508
5.175
5.18103
5.18536
5.1874
5.18669
5.18324
5.17656
5.1646
5.14768
5.12559
5.0905
5.04773
5.00688
4.9528
4.89408
4.86194
4.84582
4.8378
4.83442
3.10495
3.17118
3.24191
3.36069
3.47982
3.55948
3.64845
3.73325
3.78941
3.84712
3.89743
3.96647
4.03311
4.08885
4.16512
4.23893
4.28901
4.34345
4.39513
4.4298
4.46508
4.49578
4.53728
4.57694
4.60968
4.65356
4.69501
4.72206
4.749
4.77212
4.80314
4.83268
4.8571
4.88999
4.92142
4.94245
4.96487
4.98574
4.9994
5.01285
5.02403
5.03866
5.05194
5.06201
5.07466
5.08554
5.09149
5.0962
5.09861
5.09814
5.09505
5.08893
5.07691
5.05991
5.03868
5.00093
4.95422
4.91382
4.85424
4.78537
4.75321
4.73861
4.73169
4.72883
2.94417
3.02628
3.09575
3.23164
3.36553
3.44039
3.53505
3.62706
3.67854
3.73745
3.78334
3.85777
3.9275
3.97891
4.0621
4.14252
4.18867
4.24544
4.30069
4.33216
4.36777
4.39561
4.44011
4.48147
4.51157
4.55934
4.60432
4.62904
4.65631
4.6773
4.71058
4.74139
4.76385
4.79968
4.83386
4.85324
4.87661
4.89892
4.91134
4.92498
4.93517
4.951
4.965
4.97434
4.98834
5.00036
5.00597
5.01112
5.01392
5.01368
5.01094
5.00559
4.99344
4.97629
4.95681
4.91596
4.86434
4.82627
4.7607
4.67872
4.64795
4.63554
4.62993
4.62766
2.78488
2.88856
2.9515
3.10837
3.26024
3.32517
3.42678
3.52826
3.57202
3.63345
3.67232
3.75413
3.82775
3.87162
3.96378
4.05264
4.09201
4.15182
4.21198
4.2385
4.27524
4.2987
4.34742
4.39093
4.41657
4.46943
4.51897
4.53993
4.56811
4.58581
4.62225
4.65466
4.67379
4.71343
4.75115
4.76767
4.79229
4.81658
4.82706
4.8412
4.84981
4.86731
4.88219
4.8902
4.90594
4.91936
4.92423
4.92993
4.93315
4.93308
4.9307
4.92636
4.91397
4.8965
4.87998
4.83544
4.77749
4.74441
4.67237
4.57329
4.54607
4.53652
4.53241
4.53077
2.62614
2.75938
2.80776
2.99081
3.16493
3.21272
3.32325
3.43735
3.46907
3.5354
3.56349
3.65554
3.73421
3.76605
3.86997
3.96975
3.99832
4.06227
4.12924
4.14832
4.18759
4.20446
4.2591
4.30547
4.32404
4.38366
4.43912
4.45427
4.48442
4.49716
4.53804
4.57254
4.58641
4.63108
4.67337
4.68535
4.71168
4.7387
4.74625
4.76143
4.76765
4.78745
4.80343
4.80928
4.82729
4.84243
4.84603
4.85245
4.85613
4.85617
4.8541
4.85111
4.8383
4.82016
4.80826
4.75928
4.69291
4.66856
4.58958
4.46803
4.44756
4.44152
4.43902
4.43804
2.46681
2.64066
2.66268
2.87889
3.08093
3.10165
3.22405
3.35507
3.36866
3.4438
3.45581
3.56202
3.64741
3.66101
3.78049
3.89452
3.90673
3.97648
4.05282
4.06094
4.10504
4.11222
4.17511
4.22531
4.23324
4.30188
4.36505
4.37152
4.40538
4.4108
4.45787
4.4952
4.50111
4.55248
4.60071
4.60583
4.63457
4.66534
4.66855
4.68566
4.68832
4.7113
4.7287
4.73121
4.75226
4.76954
4.7711
4.77852
4.7827
4.78275
4.78092
4.77971
4.76625
4.74681
4.74178
4.68745
4.60967
4.59913
4.51284
4.36168
4.35257
4.35048
4.34965
4.34932
)
;

boundaryField
{
    left
    {
        type            zeroGradient;
    }
    right
    {
        type            zeroGradient;
    }
    interface
    {
        type            fixedValue;
        value           nonuniform List<scalar> 
64
(
2.38434
2.58665
2.58665
2.82457
3.04468
3.04468
3.17535
3.31798
3.31798
3.40071
3.40071
3.51688
3.60691
3.60691
3.73694
3.86048
3.86048
3.93442
4.01733
4.01733
4.06572
4.06572
4.13446
4.18733
4.18733
4.26214
4.33044
4.33044
4.3676
4.3676
4.41906
4.45835
4.45835
4.51428
4.56649
4.56649
4.59699
4.63038
4.63038
4.64919
4.64919
4.67443
4.69276
4.69276
4.7159
4.73455
4.73455
4.74271
4.74715
4.74715
4.74538
4.74538
4.73145
4.71084
4.71084
4.65323
4.56748
4.56748
4.47733
4.30624
4.30624
4.30624
4.30624
4.30624
)
;
    }
    bottom
    {
        type            fixedValue;
        value           uniform 10;
    }
    defaultFaces
    {
        type            empty;
    }
}


// ************************************************************************* //
