/*--------------------------------*- C++ -*----------------------------------*\
| =========                 |                                                 |
| \\      /  F ield         | OpenFOAM: The Open Source CFD Toolbox           |
|  \\    /   O peration     | Version:  5.x                                   |
|   \\  /    A nd           | Web:      www.OpenFOAM.org                      |
|    \\/     M anipulation  |                                                 |
\*---------------------------------------------------------------------------*/
FoamFile
{
    version     2.0;
    format      ascii;
    class       volScalarField;
    location    "18.5";
    object      gradTy;
}
// * * * * * * * * * * * * * * * * * * * * * * * * * * * * * * * * * * * * * //

dimensions      [0 -1 0 1 0 0 0];

internalField   nonuniform List<scalar> 
6300
(
993.854
981.678
969.844
958.58
948.101
938.616
930.316
923.371
917.926
914.088
911.923
911.448
912.627
915.368
919.531
-0.172276
-0.514939
-0.851719
-1.17796
-1.48798
-1.77474
-2.02974
-2.24311
-2.40409
-2.50187
-2.52696
-2.4729
-2.33799
-2.12676
-1.8504
-0.289232
-0.864794
-1.43127
-1.98135
-2.50585
-2.99322
-3.42916
-3.79672
-4.07697
-4.25042
-4.29939
-4.2111
-3.98123
-3.61679
-3.13741
-0.409082
-1.22372
-2.02723
-2.8103
-3.56086
-4.26312
-4.89695
-5.43764
-5.85666
-6.12348
-6.20906
-6.0909
-5.75903
-5.22177
-4.50863
-0.532453
-1.59378
-2.64362
-3.67174
-4.66412
-5.60144
-6.45784
-7.20021
-7.7885
-8.17772
-8.32246
-8.18436
-7.7422
-7.00255
-6.0068
-0.659403
-1.97534
-3.28171
-4.56892
-5.82245
-7.02067
-8.13275
-9.11686
-9.91939
-10.4764
-10.7187
-10.5819
-10.0229
-9.03944
-7.68659
-0.789219
-2.36644
-3.93893
-5.49976
-7.03604
-8.52601
-9.9356
-11.215
-12.2958
-13.0899
-13.4939
-13.4015
-12.7278
-11.4457
-9.62251
-0.920244
-2.76228
-4.60779
-6.4551
-8.29593
-10.1117
-11.8686
-13.5118
-14.9587
-16.0933
-16.7655
-16.8024
-16.0412
-14.3929
-11.9247
-1.04972
-3.15462
-5.27485
-7.4169
-9.58087
-11.7562
-13.9152
-16.0048
-17.9338
-19.559
-20.6724
-21.0012
-20.2418
-18.1599
-14.7706
-1.17373
-3.53161
-5.92006
-8.35676
-10.8545
-13.4168
-16.0313
-18.6584
-21.2127
-23.5364
-25.3638
-26.288
-25.7647
-23.2344
-18.48
-1.2873
-3.87803
-6.51699
-9.23559
-12.0634
-15.0251
-18.1348
-21.3847
-24.722
-28.01
-30.9584
-33.0222
-33.2944
-30.533
-23.7186
-1.38475
-4.17621
-7.03424
-10.0052
-13.1383
-16.4852
-20.0982
-24.0232
-28.2807
-32.8229
-37.4372
-41.5481
-43.8574
-41.8845
-32.1559
-1.46021
-4.40782
-7.43849
-10.6127
-13.9993
-17.679
-21.7496
-26.3291
-31.5546
-37.5636
-44.4194
-51.8752
-58.7028
-60.9915
-48.9747
-1.50848
-4.55634
-7.69911
-11.0079
-14.567
-18.482
-22.8921
-27.9887
-34.0448
-41.4574
-50.8013
-62.8303
-78.0867
-94.4039
-93.8884
-1.52586
-4.60993
-7.79366
-11.1528
-14.7787
-18.7897
-23.3478
-28.6889
-35.1781
-43.4197
-54.4978
-70.5579
-96.4092
-144.648
-254.939
924.478
929.693
935.49
941.728
948.271
954.985
961.75
968.455
975.004
981.313
987.311
992.94
998.151
1002.91
1007.17
1010.93
1014.15
1016.83
1018.95
1020.52
1021.51
1021.95
1021.81
1021.11
1019.86
1018.04
1015.68
1012.78
1009.34
1005.37
1000.88
995.889
990.39
984.398
977.918
970.96
963.529
955.633
947.279
938.474
929.225
919.54
909.426
898.892
887.946
876.596
864.851
852.719
840.206
827.321
814.068
800.454
786.486
772.168
757.507
742.511
727.186
711.542
695.589
679.339
662.802
645.993
628.924
611.61
594.065
576.306
558.348
540.211
521.913
503.479
484.933
466.305
447.628
428.94
410.279
391.69
373.22
354.915
336.826
319.001
301.488
284.335
267.586
251.282
235.461
220.154
205.387
191.182
177.55
164.498
-1.55295
-1.2622
-0.963371
-0.667959
-0.385684
-0.12393
0.112441
0.320933
0.501043
0.653773
0.781138
0.885724
0.970341
1.03777
1.09059
1.13111
1.16132
1.1829
1.19727
1.20557
1.20875
1.20759
1.20275
1.19476
1.18411
1.17123
1.15655
1.14048
1.12344
1.10583
1.08805
1.07043
1.05324
1.03662
1.02062
1.00516
0.990056
0.975046
0.959851
0.944219
0.927977
0.911074
0.893598
0.875772
0.857923
0.840428
0.823649
0.807861
0.793191
0.779578
0.766764
0.754306
0.741634
0.72812
0.713166
0.696284
0.677158
0.655676
0.631921
0.606122
0.578584
0.549577
0.519245
0.487511
0.454023
0.418133
0.378938
0.335354
0.286235
0.230516
0.167352
0.0962437
0.0171204
-0.0696201
-0.163125
-0.262144
-0.36512
-0.470293
-0.575798
-0.679747
-0.780272
-0.875542
-0.963758
-1.04314
-1.11192
-1.16842
-1.21112
-1.23878
-1.25064
-1.24651
-2.62081
-2.11663
-1.60028
-1.09241
-0.610159
-0.166121
0.23184
0.580164
0.878776
1.13013
1.33829
1.50813
1.64473
1.75298
1.83733
1.90167
1.94933
1.98306
2.00514
2.01745
2.02151
2.01855
2.0096
1.99552
1.97706
1.95492
1.92978
1.90233
1.87327
1.84332
1.81315
1.78337
1.75446
1.7267
1.70017
1.6747
1.64993
1.62536
1.60043
1.57465
1.54767
1.51935
1.48987
1.45964
1.4293
1.39957
1.37117
1.34465
1.3203
1.29803
1.27737
1.25752
1.2374
1.21582
1.19168
1.16404
1.13235
1.09642
1.05646
1.01299
0.966662
0.918096
0.86767
0.815347
0.760563
0.70219
0.638591
0.567774
0.487605
0.396082
0.291604
0.1732
0.0406929
-0.105234
-0.263069
-0.430584
-0.605019
-0.783282
-0.962142
-1.13837
-1.30884
-1.47051
-1.62038
-1.75549
-1.87282
-1.96942
-2.04252
-2.08985
-2.10991
-2.10228
-3.73848
-2.98867
-2.22506
-1.48008
-0.779717
-0.142078
0.422597
0.91085
1.32442
1.66855
1.95049
2.17825
2.35978
2.50244
2.61271
2.6961
2.75722
2.7998
2.82693
2.84106
2.84419
2.83795
2.82365
2.80239
2.77512
2.74275
2.70617
2.66632
2.62422
2.58094
2.53751
2.49489
2.45385
2.41485
2.37801
2.34304
2.30933
2.276
2.24208
2.20666
2.16909
2.12915
2.08706
2.04352
1.99962
1.95663
1.91581
1.87817
1.84426
1.814
1.78668
1.76097
1.7351
1.7071
1.67508
1.63752
1.59351
1.54283
1.48594
1.42385
1.35784
1.28918
1.21871
1.14662
1.07217
0.993669
0.908543
0.813566
0.705234
0.580219
0.435827
0.270387
0.0835181
-0.12377
-0.349136
-0.58912
-0.839462
-1.09546
-1.35232
-1.60535
-1.85013
-2.08248
-2.2983
-2.49345
-2.6636
-2.80427
-2.91107
-2.9802
-3.00905
-2.99676
-4.92757
-3.88049
-2.82289
-1.80337
-0.858831
-0.0128315
0.723541
1.34922
1.87019
2.29668
2.64083
2.91506
3.13094
3.29868
3.42693
3.52277
3.59192
3.63897
3.66757
3.68064
3.68054
3.66912
3.64789
3.61807
3.58071
3.53681
3.48742
3.43372
3.37706
3.31892
3.26085
3.20431
3.15046
3.10006
3.0533
3.00974
2.96836
2.92768
2.88605
2.84191
2.79411
2.7422
2.68648
2.62809
2.56879
2.51072
2.45604
2.40649
2.36309
2.32589
2.29381
2.2648
2.23602
2.2043
2.16658
2.12043
2.06442
1.99831
1.92303
1.84046
1.75298
1.66297
1.57222
1.48139
1.38971
1.29479
1.19278
1.07869
0.946981
0.792352
0.61045
0.398522
0.155833
-0.11619
-0.414072
-0.732661
-1.06568
-1.40634
-1.74792
-2.08412
-2.40927
-2.71818
-3.00592
-3.26735
-3.49678
-3.68783
-3.83381
-3.92852
-3.96741
-3.94874
-6.21162
-4.78747
-3.36589
-2.01865
-0.796024
0.274321
1.18394
1.93842
2.55207
3.04342
3.43194
3.73594
3.97146
4.15186
4.28787
4.38792
4.45852
4.50476
4.53062
4.53927
4.53323
4.51449
4.48458
4.44468
4.39579
4.33884
4.27494
4.20546
4.13209
4.05689
3.9821
3.90991
3.84218
3.78013
3.72408
3.6734
3.62644
3.58082
3.53372
3.4825
3.42516
3.3608
3.28985
3.21405
3.13627
3.06004
2.98895
2.92603
2.87311
2.83047
2.79661
2.76837
2.74128
2.71022
2.6703
2.61761
2.54994
2.46707
2.37072
2.26421
2.15184
2.03792
1.9259
1.81747
1.71197
1.60621
1.4945
1.36923
1.22181
1.04383
0.828376
0.571023
0.270455
-0.0713073
-0.449123
-0.855359
-1.28082
-1.71584
-2.1512
-2.57877
-2.99171
-3.38432
-3.75137
-4.08729
-4.38516
-4.63623
-4.83032
-4.95715
-5.00863
-4.98119
-7.61548
-5.69067
-3.8017
-2.05439
-0.513774
0.793102
1.86795
2.73066
3.41031
3.93849
4.34501
4.6557
4.89162
5.06923
5.20089
5.29574
5.3605
5.40019
5.41876
5.41936
5.40454
5.37627
5.33597
5.28458
5.22278
5.15123
5.07086
4.98312
4.89011
4.79462
4.69994
4.60944
4.52608
4.45188
4.38749
4.33203
4.28297
4.23641
4.18769
4.13225
4.06665
3.98924
3.90053
3.80321
3.70187
3.60227
3.51044
3.43148
3.36866
3.32274
3.29164
3.27058
3.25253
3.22923
3.19268
3.13665
3.05766
2.95553
2.83329
2.69669
2.55317
2.41041
2.27468
2.14955
2.03487
1.92642
1.81596
1.69191
1.54084
1.34947
1.10685
0.805948
0.444588
0.0256815
-0.443066
-0.95019
-1.48204
-2.02469
-2.56555
-3.09432
-3.6033
-4.0871
-4.54153
-4.9619
-5.34081
-5.6666
-5.92357
-6.09419
-6.16339
-6.12391
-9.16361
-6.54214
-4.03346
-1.7924
0.105142
1.64613
2.85758
3.78669
4.4869
5.009
5.39634
5.68338
5.89605
6.05303
6.1672
6.24721
6.29886
6.32635
6.33307
6.32197
6.29554
6.25571
6.20366
6.13982
6.06416
5.97667
5.87776
5.76873
5.65206
5.53157
5.41212
5.29907
5.19718
5.10985
5.03843
4.98183
4.93626
4.89551
4.85169
4.797
4.72554
4.63434
4.52398
4.39855
4.26531
4.13369
4.01374
3.91405
3.84026
3.79399
3.77257
3.76882
3.77169
3.76764
3.74347
3.68907
3.59902
3.47325
3.31683
3.13946
2.95373
2.77304
2.6085
2.46686
2.34908
2.24982
2.15722
2.05377
1.91816
1.72914
1.46947
1.12817
0.701812
0.194659
-0.381535
-1.00921
-1.66747
-2.33593
-2.99711
-3.63817
-4.25099
-4.83201
-5.38057
-5.89606
-6.37281
-6.79592
-7.14105
-7.37712
-7.47455
-7.41825
-10.8721
-7.23121
-3.87982
-1.03582
1.23737
2.97353
4.25366
5.17225
5.81991
6.27353
6.59207
6.81814
6.98066
7.09847
7.18268
7.23951
7.272
7.28242
7.27306
7.24664
7.20584
7.15275
7.08833
7.01207
6.92261
6.81858
6.69925
6.56536
6.41954
6.26703
6.11514
5.97266
5.84733
5.74497
5.66808
5.61578
5.58267
5.55906
5.53139
5.48595
5.41289
5.30706
5.16921
5.00516
4.82648
4.64834
4.48795
4.3594
4.27226
4.22953
4.22813
4.25759
4.30085
4.33511
4.33781
4.2929
4.19187
4.03515
3.83062
3.5943
3.34709
3.1125
2.90938
2.74989
2.63668
2.56367
2.51418
2.46201
2.37245
2.21059
1.94969
1.57292
1.07544
0.463111
-0.245805
-1.02413
-1.83817
-2.65756
-3.45755
-4.22259
-4.94436
-5.62356
-6.26713
-6.88591
-7.48195
-8.03741
-8.51549
-8.85959
-9.007
-8.92569
-12.7201
-7.50348
-2.99571
0.542544
3.14255
4.95706
6.16976
6.9473
7.43173
7.73198
7.92032
8.04382
8.12907
8.19166
8.237
8.26623
8.2763
8.26631
8.23696
8.19135
8.13316
8.06545
7.98936
7.90266
7.80134
7.68185
7.54102
7.37849
7.19597
7.00091
6.80393
6.62088
6.46373
6.34273
6.26165
6.22142
6.21472
6.22782
6.23603
6.21404
6.14675
6.02527
5.85151
5.63221
5.38626
5.13684
4.9157
4.74451
4.63976
4.60499
4.63868
4.72593
4.84246
4.94746
5.00021
4.97702
4.86442
4.66538
4.3897
4.06435
3.72179
3.4062
3.14701
2.96586
2.86598
2.84326
2.87464
2.9237
2.93052
2.8343
2.59645
2.19115
1.61413
0.870352
-0.0104095
-0.987873
-2.00138
-3.00736
-3.96849
-4.8695
-5.69916
-6.46652
-7.18947
-7.90855
-8.64957
-9.39033
-10.0829
-10.6253
-10.8688
-10.7446
-14.5401
-6.75523
-0.7158
3.47178
6.17854
7.80673
8.71187
9.14369
9.30798
9.35078
9.34113
9.32374
9.30928
9.30884
9.31368
9.31966
9.3086
9.2772
9.22335
9.15328
9.07325
8.98928
8.90472
8.81336
8.70527
8.5749
8.41306
8.21945
7.98951
7.73659
7.47169
7.23083
7.02711
6.88206
6.79542
6.77784
6.8173
6.90266
6.98319
7.00644
6.95771
6.81785
6.59848
6.29672
5.95013
5.58375
5.27063
5.03312
4.90563
4.88102
4.9713
5.15129
5.39986
5.63428
5.77119
5.78912
5.66067
5.40526
5.0196
4.55847
4.05697
3.61803
3.27159
3.06418
2.98357
3.04434
3.20907
3.44563
3.6364
3.66145
3.48381
3.05616
2.39249
1.4744
0.363807
-0.900119
-2.17579
-3.42208
-4.56631
-5.61942
-6.54393
-7.37364
-8.11758
-8.89975
-9.81767
-10.8128
-11.8665
-12.8215
-13.2599
-13.0433
-15.555
-3.49383
4.23031
8.53331
10.7679
11.6981
11.9361
11.7259
11.3597
11.0457
10.7736
10.6
10.4699
10.419
10.3893
10.3982
10.3708
10.321
10.2338
10.1302
10.0197
9.91467
9.83063
9.74889
9.64206
9.51404
9.33162
9.11352
8.81693
8.4903
8.10564
7.78811
7.50682
7.3381
7.23055
7.25295
7.3546
7.58526
7.81366
7.90328
7.90072
7.72574
7.46489
7.02664
6.54329
5.95477
5.5175
5.16409
5.02413
4.99238
5.17548
5.47866
5.97836
6.46224
6.7142
6.81273
6.64043
6.3334
5.75884
5.11142
4.30276
3.69731
3.19663
2.98051
2.89818
3.09632
3.44059
4.03406
4.58146
4.78097
4.73168
4.26153
3.53771
2.35615
0.959316
-0.79496
-2.39205
-3.98332
-5.29489
-6.55409
-7.52482
-8.4039
-8.99026
-9.69515
-10.8743
-12.1504
-13.792
-15.7611
-16.5942
-16.1267
-12.2056
6.01295
14.1026
16.5728
17.2352
16.5857
15.8054
14.5324
13.3362
12.6799
12.0642
11.8135
11.5163
11.4983
11.4093
11.5289
11.4651
11.4187
11.2675
11.1171
10.9582
10.8096
10.7531
10.7204
10.6092
10.5314
10.3014
10.1205
9.68747
9.32746
8.64281
8.29309
7.82433
7.70593
7.47845
7.61383
7.706
8.27103
8.84387
8.93276
9.09194
8.75717
8.58669
7.82139
7.28784
6.10793
5.64354
4.98762
4.98678
4.79432
5.20667
5.52301
6.57958
7.62412
7.87808
8.22627
7.81416
7.64674
6.60295
5.89654
4.25588
3.6257
2.71191
2.70416
2.4089
2.93784
3.31328
4.68881
6.02744
6.25874
6.58558
5.83217
5.34207
3.54787
2.06956
-0.916137
-2.61662
-4.94728
-6.0988
-7.9041
-8.63758
-9.85556
-9.69214
-9.80744
-11.7914
-12.9614
-15.246
-20.3362
-21.801
-20.5626
13.0431
30.1055
32.0671
27.2153
25.5914
21.6612
20.3836
17.2276
14.5349
14.2551
12.8285
13.0935
12.1602
12.6792
12.1286
12.923
12.5339
12.6667
12.2993
12.1159
11.881
11.5716
11.6406
11.8044
11.5278
11.7672
11.2
11.49
10.4523
10.6315
8.69712
8.96892
7.63673
8.23026
7.20328
8.03637
7.37591
8.94501
10.5704
9.86048
10.9939
9.55148
10.5645
8.28189
8.96263
5.23021
6.04486
3.86737
5.22487
3.72485
5.37564
4.50097
7.19768
9.92396
8.9058
10.7342
8.6351
10.2216
6.96081
8.02655
2.75348
3.96213
0.922114
2.84147
0.73244
3.00008
1.74548
5.39635
9.06767
7.59862
9.99471
7.02332
9.02405
4.28443
5.35017
-2.88825
-1.93395
-7.60937
-5.96143
-10.7976
-9.05277
-13.2965
-9.99271
-7.22893
-13.8804
-12.1674
-12.66
-30.132
-30.9003
-27.4074
153.704
75.9424
59.8425
33.2094
37.2684
22.9169
27.6668
19.2558
12.259
17.482
11.1569
16.0992
10.7127
15.4006
10.9113
16.0214
12.8513
14.6354
13.0662
13.1889
12.9112
11.789
12.3916
13.5228
11.7037
14.1646
10.8645
14.7715
9.46491
14.9795
5.57475
11.9548
4.67639
11.0884
4.24987
10.6099
3.83553
9.53825
15.6599
8.13413
16.6052
6.81028
17.2882
4.4755
16.9926
-2.19495
10.7552
-2.34296
9.57808
-1.88145
9.18158
-1.66354
7.77344
17.6161
5.83477
18.8978
4.14902
19.7769
1.08869
19.2847
-8.08228
10.4169
-8.00887
8.77993
-7.24615
8.13459
-6.88591
6.07464
19.5102
3.37286
21.1332
1.05478
22.4123
-3.33853
22.0289
-18.0976
8.29575
-20.8168
3.51333
-23.1676
-0.844111
-27.6057
-9.51541
8.90767
-28.0139
-8.19745
14.3768
-63.9805
-46.1354
-38.87
150.776
136.623
123.259
110.64
98.7169
87.4316
76.7222
66.5247
56.7744
47.407
38.3595
29.5709
20.9813
12.5327
4.16826
-1.22489
-1.1807
-1.11889
-1.04311
-0.957185
-0.864711
-0.768777
-0.671813
-0.575563
-0.481131
-0.389066
-0.299474
-0.21212
-0.126525
-0.0420476
-2.06432
-1.98736
-1.88032
-1.74978
-1.60259
-1.44504
-1.28245
-1.1189
-0.957264
-0.799262
-0.645702
-0.49664
-0.351582
-0.209636
-0.0696553
-2.93928
-2.8241
-2.66522
-2.47311
-2.25833
-2.0304
-1.79707
-1.56409
-1.33532
-1.11295
-0.897834
-0.6898
-0.487928
-0.290781
-0.0965918
-3.86668
-3.70451
-3.48334
-3.21907
-2.92721
-2.62115
-2.31131
-2.00504
-1.70695
-1.41937
-1.14288
-0.876791
-0.619543
-0.368965
-0.122522
-4.8667
-4.64388
-4.34453
-3.99258
-3.61026
-3.21565
-2.82195
-2.43781
-2.06807
-1.71468
-1.3775
-1.05494
-0.744482
-0.44301
-0.147051
-5.96459
-5.65972
-5.25825
-4.79643
-4.30557
-3.8092
-3.32301
-2.85615
-2.41282
-1.99377
-1.59748
-1.22097
-0.860429
-0.511539
-0.169723
-7.19344
-6.77208
-6.23224
-5.62927
-5.00635
-4.39252
-3.80471
-3.25093
-2.73327
-2.25009
-1.79765
-1.37102
-0.964716
-0.572989
-0.190023
-8.5983
-8.00282
-7.26928
-6.48198
-5.69797
-4.94977
-4.25232
-3.60957
-3.01919
-2.47566
-1.972
-1.50074
-1.05441
-0.625674
-0.207401
-10.2414
-9.37157
-8.36
-7.33131
-6.35371
-5.45621
-4.6452
-3.9158
-3.25824
-2.66133
-2.11392
-1.60553
-1.1265
-0.667888
-0.221306
-12.2055
-10.882
-9.4678
-8.12949
-6.9293
-5.87608
-4.95644
-4.15012
-3.43662
-2.79748
-2.21679
-1.68094
-1.17815
-0.698068
-0.231236
-14.579
-12.4828
-10.4996
-8.78949
-7.35785
-6.16233
-5.1543
-4.29159
-3.5406
-2.87516
-2.27481
-1.72325
-1.2071
-0.714986
-0.236806
-17.3602
-13.9705
-11.2583
-9.17088
-7.55019
-6.26102
-5.20679
-4.3213
-3.55899
-2.8877
-2.28401
-1.73014
-1.21201
-0.717957
-0.237803
-20.0376
-14.7804
-11.3922
-9.08544
-7.41092
-6.12472
-5.09049
-4.2278
-3.4863
-2.83263
-2.24338
-1.70127
-1.19283
-0.707021
-0.234252
-19.9321
-13.721
-10.4445
-8.36771
-6.88324
-5.73638
-4.8026
-4.01305
-3.32576
-2.71309
-2.15558
-1.63871
-1.15102
-0.683032
-0.226434
-1.51461
-4.57532
-7.73301
-11.0614
-14.6496
-18.6127
-23.109
-28.3693
-34.7528
-42.8585
-53.7759
-69.6998
-95.6233
-144.472
-253.803
-1.48027
-4.46954
-7.54708
-10.7792
-14.2447
-18.0428
-22.3054
-27.2159
-33.0404
-40.1772
-49.2274
-61.0354
-76.3149
-92.6294
-86.4548
-1.42598
-4.30243
-7.25377
-10.3349
-13.6087
-17.1503
-21.0518
-25.4278
-30.4167
-36.1669
-42.7635
-49.9598
-56.2872
-56.4043
-34.8944
-1.35469
-4.08331
-6.87031
-9.75678
-12.7868
-16.0077
-19.4686
-23.2138
-27.2643
-31.5688
-35.8833
-39.4873
-40.5716
-35.1975
-16.8609
-1.27003
-3.82362
-6.41774
-9.07894
-11.8322
-14.6984
-17.6879
-20.7878
-23.9354
-26.9634
-29.4963
-30.7647
-29.341
-22.9923
-9.51152
-1.17596
-3.53577
-5.91856
-8.33711
-10.7993
-13.3034
-15.8304
-18.3287
-20.6893
-22.7018
-23.9873
-23.9116
-21.5304
-15.7397
-6.01092
-1.07641
-3.23194
-5.39454
-7.56497
-9.73709
-11.8926
-13.9926
-15.9652
-17.685
-18.9449
-19.4233
-18.6594
-16.0876
-11.2217
-4.1027
-0.974966
-2.9232
-4.86503
-6.79164
-8.68644
-10.5201
-12.2434
-13.7773
-14.9998
-15.7309
-15.7218
-14.6626
-12.2379
-8.2684
-2.94891
-0.874701
-2.61889
-4.34609
-6.04037
-7.67821
-9.22423
-10.6257
-11.8057
-12.6559
-13.0308
-12.7494
-11.614
-9.46078
-6.25257
-2.19671
-0.778055
-2.32636
-3.84999
-5.32826
-6.7337
-8.02871
-9.16169
-10.063
-10.6419
-10.7864
-10.3701
-9.27232
-7.41626
-4.82538
-1.67891
-0.686827
-2.05095
-3.38538
-4.6667
-5.86585
-6.94568
-7.85853
-8.54423
-8.92964
-8.93135
-8.46399
-7.45715
-5.88201
-3.784
-1.30787
-0.602218
-1.79614
-2.95764
-4.06218
-5.08082
-5.97858
-6.71307
-7.23392
-7.48379
-7.40202
-6.9325
-6.03661
-4.71083
-3.00519
-1.03378
-0.524909
-1.56384
-2.56945
-3.51729
-4.37972
-5.12484
-5.71594
-6.11178
-6.2682
-6.14194
-5.69709
-4.91457
-3.80342
-2.41094
-0.826469
-0.455156
-1.35468
-2.22135
-3.03171
-3.76007
-4.37803
-4.85439
-5.15586
-5.24889
-5.10306
-4.69614
-4.02073
-3.09137
-1.95
-0.666694
-0.392893
-1.16832
-1.91236
-2.60305
-3.21706
-3.72953
-4.11426
-4.34466
-4.39544
-4.24548
-3.88162
-3.30321
-2.52655
-1.58763
-0.541692
-0.337822
-1.00376
-1.6404
-2.22762
-2.74457
-3.16973
-3.4813
-3.65816
-3.68137
-3.53642
-3.21606
-2.72336
-2.07439
-1.29956
-0.442695
-0.289488
-0.859545
-1.40276
-1.90098
-2.3358
-2.68878
-2.94188
-3.07836
-3.08407
-2.94917
-2.67018
-2.25202
-1.70962
-1.06845
-0.363506
-0.247346
-0.733966
-1.19636
-1.61835
-1.98387
-2.27718
-2.48343
-2.58936
-2.58439
-2.46196
-2.22092
-1.86695
-1.41344
-0.881629
-0.29964
-0.210808
-0.62521
-1.018
-1.37494
-1.68206
-1.92604
-2.09464
-2.17736
-2.16628
-2.05709
-1.85008
-1.551
-1.17163
-0.729645
-0.247781
-0.179279
-0.531456
-0.864553
-1.1661
-1.42409
-1.62724
-1.76548
-1.83048
-1.8163
-1.72016
-1.54316
-1.29081
-0.973302
-0.60535
-0.205434
-0.152183
-0.450949
-0.733005
-0.987524
-1.20419
-1.37351
-1.48719
-1.53857
-1.52321
-1.43938
-1.28856
-1.07585
-0.81
-0.503249
-0.170691
-0.128974
-0.382043
-0.620578
-0.835225
-1.01717
-1.15842
-1.25214
-1.29301
-1.27768
-1.2051
-1.07695
-0.897786
-0.675098
-0.419069
-0.142075
-0.109152
-0.323231
-0.524737
-0.705631
-0.858403
-0.976336
-1.05378
-1.08648
-1.07188
-1.00941
-0.900755
-0.749944
-0.563347
-0.349447
-0.118427
-0.0922624
-0.273147
-0.443209
-0.595562
-0.723827
-0.82236
-0.886496
-0.912801
-0.89932
-0.845797
-0.753831
-0.626951
-0.470553
-0.291712
-0.0988302
-0.0779006
-0.230578
-0.373977
-0.502219
-0.609895
-0.692269
-0.745477
-0.766743
-0.754563
-0.708873
-0.631151
-0.524452
-0.393344
-0.243726
-0.0825517
-0.0657075
-0.194452
-0.315269
-0.423155
-0.513533
-0.582427
-0.626638
-0.643908
-0.633075
-0.594191
-0.52859
-0.438904
-0.328986
-0.203764
-0.0690015
-0.0553688
-0.16383
-0.265539
-0.356247
-0.432087
-0.489725
-0.526504
-0.540586
-0.531065
-0.498058
-0.442754
-0.367403
-0.275255
-0.170425
-0.0577018
-0.0466106
-0.137897
-0.223448
-0.299663
-0.363281
-0.411505
-0.44213
-0.453652
-0.445361
-0.417409
-0.370837
-0.307565
-0.23033
-0.142568
-0.048263
-0.0391957
-0.115947
-0.187838
-0.251826
-0.305163
-0.345506
-0.371021
-0.380475
-0.373309
-0.349687
-0.310515
-0.257423
-0.192712
-0.119256
-0.040366
-0.0329194
-0.0973716
-0.157715
-0.211384
-0.256067
-0.289801
-0.311063
-0.318838
-0.312684
-0.292764
-0.259858
-0.215349
-0.161168
-0.0997151
-0.0337484
-0.0276061
-0.0816487
-0.132228
-0.177183
-0.214573
-0.242758
-0.260469
-0.266874
-0.261618
-0.244856
-0.217258
-0.179991
-0.134673
-0.0833086
-0.0281932
-0.0231048
-0.0683308
-0.110645
-0.148233
-0.17947
-0.202986
-0.217727
-0.223006
-0.21854
-0.204472
-0.181372
-0.150222
-0.112377
-0.0695064
-0.0235206
-0.0192863
-0.0570348
-0.0923435
-0.123694
-0.149729
-0.169307
-0.181554
-0.185904
-0.18213
-0.17036
-0.151076
-0.125103
-0.0935699
-0.0578672
-0.0195808
-0.0160402
-0.0474329
-0.07679
-0.102846
-0.124472
-0.140719
-0.150864
-0.154442
-0.151272
-0.141464
-0.125425
-0.103843
-0.0776582
-0.0480221
-0.0162486
-0.0132716
-0.0392443
-0.0635283
-0.0850752
-0.102949
-0.116367
-0.124733
-0.127667
-0.125022
-0.116894
-0.103624
-0.0857805
-0.0641425
-0.0396611
-0.0134191
-0.0108993
-0.0322281
-0.0521672
-0.0698542
-0.0845203
-0.095523
-0.102375
-0.104766
-0.102579
-0.0958954
-0.0849968
-0.0703526
-0.0526012
-0.0325226
-0.0110034
-0.00885303
-0.0261769
-0.0423699
-0.0567308
-0.0686349
-0.077561
-0.0831142
-0.0850444
-0.0832579
-0.0778234
-0.0689708
-0.0570821
-0.0426758
-0.0263844
-0.00892645
-0.00707218
-0.0209108
-0.0338448
-0.0453134
-0.0548174
-0.0619408
-0.066369
-0.0679032
-0.0664698
-0.0621248
-0.0550529
-0.0455596
-0.0340592
-0.0210563
-0.00712366
-0.00550366
-0.0162727
-0.0263371
-0.03526
-0.0426528
-0.048192
-0.0516333
-0.0528225
-0.0517032
-0.0483197
-0.0428162
-0.0354308
-0.0264859
-0.0163737
-0.00553938
-0.00410057
-0.012124
-0.019622
-0.026269
-0.0317753
-0.0359
-0.0384613
-0.0393448
-0.0385088
-0.0359867
-0.0318862
-0.026385
-0.0197231
-0.0121926
-0.00412482
-0.00282083
-0.00834021
-0.0134979
-0.0180699
-0.021857
-0.0246935
-0.0264544
-0.0270611
-0.0264851
-0.0247496
-0.0219288
-0.018145
-0.0135633
-0.00838457
-0.00283652
-0.00162599
-0.0048075
-0.00778053
-0.0104159
-0.0125989
-0.0142339
-0.0152488
-0.0155985
-0.0152665
-0.0142661
-0.0126401
-0.0104591
-0.00781808
-0.00483298
-0.00163501
-0.000480099
-0.00141954
-0.00229755
-0.00307607
-0.00372121
-0.00420473
-0.00450526
-0.00460934
-0.00451196
-0.00421697
-0.00373688
-0.00309245
-0.00231182
-0.00142922
-0.000483523
0.000651377
0.00192578
0.00311633
0.00417115
0.00504422
0.00569735
0.00610188
0.00623996
0.00610532
0.00570363
0.00505225
0.00417955
0.00312364
0.00193074
0.000653133
0.00180254
0.0053293
0.00862444
0.0115446
0.0139624
0.015772
0.016894
0.0172786
0.016908
0.0157976
0.013995
0.0115788
0.00865421
0.0053495
0.00180969
0.00300808
0.00889364
0.0143929
0.0192668
0.0233027
0.0263241
0.0281982
0.0288415
0.0282244
0.026372
0.023364
0.0193309
0.0144487
0.0089315
0.00302148
0.00430431
0.0127262
0.0205957
0.0275708
0.0333475
0.0376729
0.0403569
0.0412797
0.0403984
0.0377489
0.0334447
0.0276724
0.0206842
0.0127862
0.00432556
0.0057302
0.0169422
0.0274195
0.0367069
0.0443998
0.0501615
0.0537383
0.0549705
0.0538002
0.0502747
0.0445446
0.0368583
0.0275513
0.0170317
0.00576186
0.00732857
0.0216684
0.0350695
0.0469501
0.056793
0.0641672
0.0687477
0.0703294
0.0688374
0.0643311
0.0570028
0.0471695
0.0352605
0.021798
0.00737443
0.00914729
0.0270463
0.0437751
0.0586083
0.0709002
0.0801127
0.0858392
0.0878224
0.0859674
0.0803471
0.0712001
0.058922
0.0440483
0.0272317
0.00921286
0.0112407
0.0332367
0.053797
0.072031
0.0871455
0.0984788
0.10553
0.10798
0.105712
0.0988118
0.0875716
0.0724766
0.054185
0.0335001
0.0113338
0.013671
0.040424
0.0654341
0.0876196
0.106016
0.119818
0.128414
0.131415
0.128672
0.12029
0.10662
0.0882506
0.0659836
0.040797
0.0138029
0.0165104
0.0488214
0.0790324
0.105839
0.128077
0.144773
0.155184
0.158837
0.155549
0.145439
0.12893
0.106731
0.0798094
0.0493488
0.0166969
0.0198425
0.058677
0.0949945
0.12723
0.153986
0.17409
0.186646
0.191079
0.187162
0.175032
0.155192
0.128491
0.0960923
0.0594221
0.020106
0.0237651
0.0702802
0.113791
0.152427
0.184515
0.208648
0.223749
0.229119
0.224477
0.209978
0.186217
0.154207
0.115341
0.0713325
0.0241373
0.0283925
0.0839697
0.135971
0.182169
0.220566
0.249477
0.267608
0.27411
0.268636
0.251356
0.22297
0.184683
0.13816
0.0854556
0.028918
0.0338584
0.100142
0.162181
0.217328
0.263203
0.297793
0.31954
0.327418
0.320991
0.300445
0.266597
0.220878
0.165272
0.10224
0.0346004
0.0403193
0.119261
0.193177
0.258926
0.313676
0.355025
0.381101
0.390659
0.38315
0.358769
0.318468
0.263936
0.197541
0.122223
0.0413669
0.0479581
0.14187
0.229844
0.308159
0.373454
0.422862
0.454132
0.465751
0.457025
0.428146
0.380219
0.315233
0.236004
0.146052
0.0494372
0.0569882
0.168603
0.273217
0.366433
0.444265
0.503291
0.540808
0.554968
0.544891
0.510751
0.453813
0.376419
0.281914
0.174507
0.0590764
0.0676578
0.200198
0.324502
0.435388
0.528132
0.598654
0.643702
0.661013
0.649465
0.609186
0.541611
0.449486
0.336781
0.208532
0.0706061
0.0802546
0.23751
0.385106
0.516941
0.627428
0.711706
0.765854
0.787096
0.773989
0.726572
0.646456
0.536843
0.40244
0.249278
0.0844174
0.0951105
0.281529
0.456652
0.613315
0.744921
0.845678
0.910854
0.93703
0.922336
0.866661
0.771782
0.641412
0.481126
0.298145
0.100988
0.112606
0.333393
0.541014
0.727088
0.883834
1.00436
1.08293
1.11534
1.09914
1.03397
0.92175
0.766754
0.57557
0.356854
0.120907
0.133176
0.394396
0.640339
0.861223
1.0479
1.19216
1.28707
1.3274
1.30994
1.23395
1.10142
0.917222
0.689131
0.427527
0.144898
0.157308
0.466006
0.757063
1.01911
1.24141
1.41421
1.52912
1.57957
1.56138
1.4732
1.31696
1.09817
0.825962
0.512799
0.173865
0.18555
0.549865
0.893928
1.20459
1.4693
1.67647
1.81591
1.87942
1.86143
1.7597
1.57592
1.31621
0.991231
0.615964
0.208942
0.218502
0.647786
1.05398
1.42198
1.73715
1.98575
2.15542
2.23584
2.21962
2.10316
1.88761
1.57956
1.19142
0.741178
0.251559
0.256815
0.761737
1.24056
1.67604
2.05122
2.34985
2.55689
2.65938
2.64741
2.51543
2.26353
1.89854
1.43472
0.893735
0.303548
0.301175
0.893806
1.45724
1.97195
2.41844
2.77752
3.03097
3.16238
3.15852
3.01097
2.71797
2.28612
1.73161
1.08045
0.367279
0.352283
1.04614
1.70776
2.31524
2.84634
3.27855
3.58978
3.7593
3.76939
3.60751
3.26882
2.75887
2.09562
1.31023
0.445859
0.410825
1.22087
1.99585
2.71158
3.34288
3.86359
4.24698
4.46691
4.49967
4.3268
3.9386
3.33808
2.54443
1.59484
0.543429
0.477423
1.41994
2.32507
3.16652
3.91622
4.54396
5.01768
5.30448
5.37274
5.19561
4.75579
4.05138
3.10152
1.95016
0.66561
0.552579
1.64498
2.69849
3.68518
4.57423
5.33127
5.91816
6.29378
6.4162
6.24681
5.75671
4.93511
3.79853
2.39797
0.820194
0.636591
1.89702
3.11832
4.27161
5.32389
6.23672
6.96533
7.45888
7.66227
7.5207
6.9878
6.03754
4.67884
2.96883
1.01826
0.72946
2.17621
3.58536
4.92816
6.17038
7.27005
8.17572
8.82546
9.14785
9.06631
8.50869
7.4236
5.80309
3.70674
1.276
0.830776
2.48151
4.09844
5.65455
7.11582
8.43807
9.56378
10.4193
10.9139
10.9425
10.3958
9.18145
7.25777
4.67683
1.61796
0.939604
2.81026
4.65375
6.44678
8.15776
9.74255
11.1394
12.2638
13.0035
13.2181
12.7467
11.4318
9.16884
5.97882
2.08286
1.05437
3.15787
5.24408
7.29595
9.2873
11.1775
12.9043
14.3753
15.4577
15.9702
15.6831
14.3406
11.7237
7.77102
2.73507
1.17276
3.51746
5.85823
8.18712
10.4871
12.7258
14.8467
16.7566
18.3076
19.2774
19.3525
18.1342
15.206
10.3155
3.6888
1.29171
3.87977
6.4806
9.09835
11.7293
14.3558
16.9358
19.387
21.561
23.2058
23.9199
23.1152
20.0511
14.0656
5.16397
1.40742
4.23321
7.09119
10.0004
12.9747
16.0179
19.1142
22.2099
25.1817
27.7806
29.5419
29.6652
26.9248
19.8406
7.62963
1.51552
4.56426
7.66621
10.8571
14.1721
17.6432
21.2929
25.1187
29.0614
32.9369
36.3014
38.2038
36.8149
29.1759
12.2121
1.61133
4.85833
8.17943
11.6276
15.261
19.1445
23.3491
27.9462
32.9876
38.4479
44.076
49.0278
51.0452
44.9867
21.9752
1.69023
5.10092
8.60437
12.2694
16.1762
20.4227
25.1327
30.4652
36.6226
43.8423
52.3201
61.8893
70.8834
72.57
46.2793
1.74811
5.27908
8.91706
12.7432
16.8554
21.379
26.4838
32.4112
39.5199
48.3627
59.8062
75.1497
95.796
119.582
116.602
1.78187
5.38289
9.09901
13.0184
17.2489
21.9317
27.2636
33.5367
41.2128
51.0769
64.5835
84.7273
118.528
185.179
346.804
1.78972
5.40675
9.13977
13.0775
17.3282
22.0334
27.3897
33.6879
41.3861
51.2613
64.7514
84.8204
118.447
184.823
346.331
1.77147
5.35004
9.03832
12.9192
17.0919
21.6829
26.8617
32.8666
40.0474
48.9353
60.3501
75.4982
95.6224
118.401
114.444
1.72846
5.21713
8.80309
12.5581
16.5651
20.9242
25.7598
31.2286
37.5229
44.8541
53.3561
62.7201
70.954
70.5468
38.7569
-12.6326
-10.3055
-8.5585
-7.2042
-6.11109
-5.19855
-4.4158
-3.72916
-3.11517
-2.55668
-2.04062
-1.5566
-1.09599
-0.651388
-0.216108
-4.74017
-6.57405
-6.49615
-5.93098
-5.26452
-4.60716
-3.98888
-3.41447
-2.88061
-2.38161
-1.91132
-1.46384
-1.0336
-0.61542
-0.204355
-2.15772
-4.17023
-4.77213
-4.72805
-4.4116
-3.98859
-3.53148
-3.07159
-2.62183
-2.18657
-1.76618
-1.35909
-0.962843
-0.574503
-0.190965
-1.1745
-2.74596
-3.49667
-3.71425
-3.63264
-3.39368
-3.07597
-2.72166
-2.35295
-1.98118
-1.61177
-1.24682
-0.886578
-0.530249
-0.176458
-0.731248
-1.89164
-2.59141
-2.90819
-2.96292
-2.85343
-2.64586
-2.38172
-2.08618
-1.77415
-1.45426
-1.13127
-0.80759
-0.484227
-0.161341
-0.49778
-1.35719
-1.9521
-2.2841
-2.40722
-2.38129
-2.25501
-2.06356
-1.83084
-1.57257
-1.29889
-1.01618
-0.728379
-0.437872
-0.146082
-0.35886
-1.0064
-1.49535
-1.80503
-1.95502
-1.9788
-1.90941
-1.77405
-1.59322
-1.38169
-1.14979
-0.904616
-0.651042
-0.392404
-0.131081
-0.268675
-0.765738
-1.16308
-1.43686
-1.59044
-1.641
-1.60962
-1.51609
-1.37691
-1.20494
-1.00988
-0.798884
-0.577216
-0.348797
-0.116661
-0.206466
-0.594322
-0.916606
-1.15215
-1.29741
-1.36008
-1.35296
-1.28984
-1.18336
-1.04423
-0.881037
-0.700557
-0.508075
-0.30777
-0.103063
-0.16167
-0.468437
-0.730364
-0.930119
-1.06172
-1.12763
-1.13519
-1.09367
-1.01249
-0.900211
-0.764192
-0.610559
-0.444363
-0.269797
-0.0904503
-0.128382
-0.373688
-0.587293
-0.755413
-0.871635
-0.935701
-0.951482
-0.925041
-0.863204
-0.772673
-0.659572
-0.529282
-0.386459
-0.235142
-0.0789159
-0.103052
-0.30095
-0.475804
-0.616743
-0.717762
-0.777294
-0.797091
-0.780985