/*--------------------------------*- C++ -*----------------------------------*\
| =========                 |                                                 |
| \\      /  F ield         | OpenFOAM: The Open Source CFD Toolbox           |
|  \\    /   O peration     | Version:  5.x                                   |
|   \\  /    A nd           | Web:      www.OpenFOAM.org                      |
|    \\/     M anipulation  |                                                 |
\*---------------------------------------------------------------------------*/
FoamFile
{
    version     2.0;
    format      ascii;
    class       volScalarField;
    location    "0.1";
    object      gradTx;
}
// * * * * * * * * * * * * * * * * * * * * * * * * * * * * * * * * * * * * * //

dimensions      [0 -1 0 1 0 0 0];

internalField   nonuniform List<scalar> 
3200
(
1.38167e-28
2.13886e-29
1.07881e-29
4.81903e-30
1.84714e-30
6.37911e-31
2.16308e-31
7.63157e-32
2.79838e-32
1.06904e-32
4.46104e-33
2.15236e-33
1.22085e-33
7.83037e-34
5.36391e-34
3.76211e-34
2.64007e-34
1.83359e-34
1.25432e-34
8.43449e-35
5.57075e-35
3.61293e-35
2.30083e-35
1.43889e-35
8.83792e-36
5.33251e-36
3.16127e-36
1.84177e-36
1.05476e-36
5.93921e-37
3.28903e-37
1.79177e-37
9.60482e-38
5.06744e-38
2.63173e-38
1.34497e-38
6.74824e-39
3.28577e-39
1.46729e-39
4.09059e-40
-4.33253e-40
-1.50344e-39
-3.34962e-39
-6.86803e-39
-1.36753e-38
-2.67371e-38
-5.14415e-38
-9.74276e-38
-1.8162e-37
-3.33158e-37
-6.01218e-37
-1.06707e-36
-1.86218e-36
-3.19457e-36
-5.38593e-36
-8.92216e-36
-1.45194e-35
-2.32071e-35
-3.64268e-35
-5.61452e-35
-8.49791e-35
-1.26342e-34
-1.8467e-34
-2.65956e-34
-3.79352e-34
-5.42213e-34
-7.95783e-34
-1.25276e-33
-2.2382e-33
-4.69702e-33
-1.13429e-32
-2.9864e-32
-8.22089e-32
-2.33286e-31
-6.74077e-31
-1.89155e-30
-4.8094e-30
-1.04665e-29
-1.82507e-29
-1.4153e-28
4.0308e-28
6.16188e-29
3.1127e-29
1.39196e-29
5.33774e-30
1.84538e-30
6.26288e-31
2.21003e-31
8.10164e-32
3.09585e-32
1.29264e-32
6.24091e-33
3.54178e-33
2.27225e-33
1.55662e-33
1.09171e-33
7.66032e-34
5.31959e-34
3.63854e-34
2.44637e-34
1.61555e-34
1.04764e-34
6.6709e-35
4.17134e-35
2.56182e-35
1.54555e-35
9.1615e-36
5.33699e-36
3.05615e-36
1.72071e-36
9.52813e-37
5.19024e-37
2.78201e-37
1.46766e-37
7.62163e-38
3.89481e-38
1.95397e-38
9.51164e-39
4.24331e-39
1.17337e-39
-1.27726e-39
-4.39942e-39
-9.79289e-39
-2.00752e-38
-3.99698e-38
-7.81426e-38
-1.50338e-37
-2.84717e-37
-5.30725e-37
-9.73489e-37
-1.75664e-36
-3.11754e-36
-5.44011e-36
-9.33174e-36
-1.57316e-35
-2.6058e-35
-4.24011e-35
-6.77647e-35
-1.06354e-34
-1.63907e-34
-2.48053e-34
-3.68745e-34
-5.38914e-34
-7.76027e-34
-1.10676e-33
-1.58172e-33
-2.32125e-33
-3.65431e-33
-6.5301e-33
-1.37084e-32
-3.31149e-32
-8.71917e-32
-2.39974e-31
-6.81145e-31
-1.97059e-30
-5.53743e-30
-1.40897e-29
-3.0683e-29
-5.4022e-29
-4.10543e-28
6.33629e-28
9.48441e-29
4.80503e-29
2.15182e-29
8.25776e-30
2.85964e-30
9.71916e-31
3.43059e-31
1.25716e-31
4.80622e-32
2.00881e-32
9.70985e-33
5.51547e-33
3.54014e-33
2.42546e-33
1.70091e-33
1.19329e-33
8.28486e-34
5.6655e-34
3.80835e-34
2.51444e-34
1.6302e-34
1.03782e-34
6.48823e-35
3.98396e-35
2.40308e-35
1.42421e-35
8.29522e-36
4.74935e-36
2.67362e-36
1.48025e-36
8.06216e-37
4.32079e-37
2.27915e-37
1.18343e-37
6.04676e-38
3.03302e-38
1.47579e-38
6.57253e-39
1.79257e-39
-2.04272e-39
-6.95252e-39
-1.54519e-38
-3.16646e-38
-6.30364e-38
-1.23229e-37
-2.37059e-37
-4.48916e-37
-8.36722e-37
-1.53461e-36
-2.76886e-36
-4.91335e-36
-8.57267e-36
-1.47031e-35
-2.4783e-35
-4.10444e-35
-6.67755e-35
-1.06701e-34
-1.67432e-34
-2.57986e-34
-3.90352e-34
-5.80158e-34
-8.47705e-34
-1.22041e-33
-1.74013e-33
-2.4864e-33
-3.64841e-33
-5.7438e-33
-1.0267e-32
-2.1565e-32
-5.21205e-32
-1.37246e-31
-3.776e-31
-1.07222e-30
-3.10884e-30
-8.75739e-30
-2.23126e-29
-4.86528e-29
-8.70174e-29
-6.39157e-28
8.05971e-28
1.17625e-28
5.98561e-29
2.68517e-29
1.03153e-29
3.57944e-30
1.21871e-30
4.30286e-31
1.57619e-31
6.02886e-32
2.52258e-32
1.22084e-32
6.94137e-33
4.45748e-33
3.05424e-33
2.14162e-33
1.50216e-33
1.04268e-33
7.12848e-34
4.79058e-34
3.16217e-34
2.04965e-34
1.30455e-34
8.15395e-35
5.00568e-35
3.01873e-35
1.78872e-35
1.04163e-35
5.96267e-36
3.35606e-36
1.85777e-36
1.01168e-36
5.42111e-37
2.85915e-37
1.48438e-37
7.58343e-38
3.80306e-38
1.84954e-38
8.22081e-39
2.20551e-39
-2.64867e-39
-8.89562e-39
-1.97379e-38
-4.04314e-38
-8.04757e-38
-1.57305e-37
-3.02584e-37
-5.72944e-37
-1.06777e-36
-1.95814e-36
-3.53256e-36
-6.26764e-36
-1.09339e-35
-1.87499e-35
-3.15987e-35
-5.23224e-35
-8.51075e-35
-1.35966e-34
-2.13309e-34
-3.28602e-34
-4.97084e-34
-7.38611e-34
-1.07896e-33
-1.55295e-33
-2.21374e-33
-3.16243e-33
-4.63981e-33
-7.30523e-33
-1.30635e-32
-2.74578e-32
-6.64056e-32
-1.74884e-31
-4.8095e-31
-1.36631e-30
-3.97131e-30
-1.12176e-29
-2.86258e-29
-6.25364e-29
-1.13403e-28
-8.04219e-28
9.01363e-28
1.27925e-28
6.54861e-29
2.94322e-29
1.13205e-29
3.93709e-30
1.34309e-30
4.74323e-31
1.7368e-31
6.64639e-32
2.78401e-32
1.34903e-32
7.67733e-33
4.93226e-33
3.37978e-33
2.36958e-33
1.66169e-33
1.15313e-33
7.88149e-34
5.29525e-34
3.49441e-34
2.26444e-34
1.44091e-34
9.00416e-35
5.52638e-35
3.33204e-35
1.97396e-35
1.14928e-35
6.57763e-36
3.70153e-36
2.04866e-36
1.11545e-36
5.97627e-37
3.15149e-37
1.63593e-37
8.35649e-38
4.1899e-38
2.03659e-38
9.03268e-39
2.38024e-39
-3.0198e-39
-1.00099e-38
-2.21714e-38
-4.53968e-38
-9.03454e-38
-1.76579e-37
-3.39621e-37
-6.43002e-37
-1.19819e-36
-2.19702e-36
-3.96294e-36
-7.03017e-36
-1.22622e-35
-2.1024e-35
-3.54245e-35
-5.8646e-35
-9.53738e-35
-1.52334e-34
-2.38934e-34
-3.67992e-34
-5.56535e-34
-8.26741e-34
-1.20739e-33
-1.73734e-33
-2.47597e-33
-3.53627e-33
-5.18779e-33
-8.16919e-33
-1.46158e-32
-3.07451e-32
-7.44102e-32
-1.95997e-31
-5.38756e-31
-1.53125e-30
-4.46214e-30
-1.26398e-29
-3.23088e-29
-7.07315e-29
-1.29708e-28
-8.89324e-28
9.08779e-28
1.25184e-28
6.45756e-29
2.90757e-29
1.11979e-29
3.90361e-30
1.33436e-30
4.71358e-31
1.72526e-31
6.60529e-32
2.76977e-32
1.34374e-32
7.65402e-33
4.91929e-33
3.37105e-33
2.36311e-33
1.65678e-33
1.14942e-33
7.8541e-34
5.27546e-34
3.48046e-34
2.25484e-34
1.43445e-34
8.9617e-35
5.49908e-35
3.31486e-35
1.96338e-35
1.14289e-35
6.53985e-36
3.67961e-36
2.03619e-36
1.10848e-36
5.93804e-37
3.13089e-37
1.62502e-37
8.2995e-38
4.16048e-38
2.0212e-38
8.94532e-39
2.3128e-39
-3.10344e-39
-1.01561e-38
-2.24549e-38
-4.59571e-38
-9.14461e-38
-1.78709e-37
-3.4368e-37
-6.50612e-37
-1.21222e-36
-2.22243e-36
-4.00819e-36
-7.10931e-36
-1.23981e-35
-2.12532e-35
-3.58039e-35
-5.92622e-35
-9.63554e-35
-1.53868e-34
-2.41284e-34
-3.71522e-34
-5.61734e-34
-8.34249e-34
-1.21803e-33
-1.75219e-33
-2.4965e-33
-3.56486e-33
-5.22933e-33
-8.23617e-33
-1.47441e-32
-3.10419e-32
-7.51877e-32
-1.98082e-31
-5.442e-31
-1.54746e-30
-4.52116e-30
-1.28438e-29
-3.28852e-29
-7.21421e-29
-1.33525e-28
-8.86471e-28
8.26123e-28
1.10258e-28
5.74321e-29
2.58997e-29
9.98734e-30
3.48982e-30
1.19536e-30
4.22353e-31
1.54534e-31
5.91905e-32
2.48461e-32
1.20681e-32
6.8799e-33
4.42344e-33
3.03135e-33
2.12465e-33
1.48925e-33
1.03293e-33
7.05619e-34
4.73827e-34
3.12525e-34
2.0242e-34
1.28742e-34
8.04122e-35
4.93315e-35
2.97307e-35
1.76058e-35
1.02464e-35
5.86208e-36
3.29768e-36
1.82453e-36
9.93101e-37
5.31917e-37
2.80419e-37
1.45527e-37
7.43139e-38
3.72456e-38
1.80844e-38
7.98543e-39
2.02444e-39
-2.87463e-39
-9.29105e-39
-2.05065e-38
-4.19501e-38
-8.34591e-38
-1.63082e-37
-3.13592e-37
-5.9358e-37
-1.10581e-36
-2.02706e-36
-3.65528e-36
-6.48231e-36
-1.13027e-35
-1.93718e-35
-3.26282e-35
-5.39948e-35
-8.77722e-35
-1.4013e-34
-2.1969e-34
-3.3819e-34
-5.11207e-34
-7.59012e-34
-1.10789e-33
-1.59332e-33
-2.26957e-33
-3.24017e-33
-4.75277e-33
-7.48723e-33
-1.34117e-32
-2.82626e-32
-6.85129e-32
-1.80535e-31
-4.95692e-31
-1.41022e-30
-4.13104e-30
-1.17694e-29
-3.01827e-29
-6.63361e-29
-1.23792e-28
-7.96649e-28
6.60438e-28
8.52504e-29
4.49571e-29
2.02944e-29
7.8347e-30
2.74394e-30
9.41766e-31
3.32827e-31
1.21738e-31
4.66489e-32
1.96018e-32
9.53179e-33
5.43847e-33
3.49794e-33
2.39716e-33
1.67989e-33
1.17722e-33
8.16292e-34
5.57482e-34
3.74253e-34
2.46784e-34
1.59801e-34
1.01611e-34
6.34512e-35
3.89175e-35
2.34494e-35
1.38833e-35
8.07833e-36
4.62086e-36
2.59898e-36
1.43772e-36
7.82434e-37
4.19019e-37
2.2087e-37
1.14608e-37
5.85167e-38
2.93223e-38
1.42293e-38
6.26862e-39
1.55599e-39
-2.34093e-39
-7.47472e-39
-1.64692e-38
-3.3677e-38
-6.6989e-38
-1.30883e-37
-2.51646e-37
-4.76268e-37
-8.87148e-37
-1.62599e-36
-2.93161e-36
-5.19809e-36
-9.06192e-36
-1.55285e-35
-2.61496e-35
-4.32647e-35
-7.03145e-35
-1.12233e-34
-1.75913e-34
-2.70733e-34
-4.09135e-34
-6.07303e-34
-8.86212e-34
-1.27417e-33
-1.81451e-33
-2.59e-33
-3.79889e-33
-5.98598e-33
-1.07294e-32
-2.26317e-32
-5.49103e-32
-1.44723e-31
-3.97087e-31
-1.13029e-30
-3.31974e-30
-9.48534e-30
-2.43609e-29
-5.3623e-29
-1.0088e-28
-6.2956e-28
4.27205e-28
5.3249e-29
2.85152e-29
1.28723e-29
4.97389e-30
1.74576e-30
6.00318e-31
2.12204e-31
7.75971e-32
2.97475e-32
1.25127e-32
6.09163e-33
3.47857e-33
2.23819e-33
1.53388e-33
1.07475e-33
7.52976e-34
5.21983e-34
3.5639e-34
2.39192e-34
1.57683e-34
1.02079e-34
6.48923e-35
4.05128e-35
2.48427e-35
1.49656e-35
8.85856e-36
5.15356e-36
2.94732e-36
1.65741e-36
9.16702e-37
4.98808e-37
2.67088e-37
1.40766e-37
7.30324e-38
3.72836e-38
1.86785e-38
9.05939e-39
3.98166e-39
9.67115e-40
-1.5423e-39
-4.86601e-39
-1.07022e-38
-2.18767e-38
-4.3508e-38
-8.49961e-38
-1.63401e-37
-3.09218e-37
-5.75907e-37
-1.05539e-36
-1.90254e-36
-3.37286e-36
-5.87894e-36
-1.00723e-35
-1.69582e-35
-2.80516e-35
-4.55801e-35
-7.27364e-35
-1.13979e-34
-1.75373e-34
-2.64959e-34
-3.93191e-34
-5.73613e-34
-8.24503e-34
-1.17385e-33
-1.67521e-33
-2.45699e-33
-3.87241e-33
-6.94543e-33
-1.46639e-32
-3.56096e-32
-9.38741e-32
-2.57352e-31
-7.32981e-31
-2.15847e-30
-6.1858e-30
-1.59064e-29
-3.50531e-29
-6.65487e-29
-4.02504e-28
1.4883e-28
1.79829e-29
9.76076e-30
4.40137e-30
1.70128e-30
5.98022e-31
2.05934e-31
7.28119e-32
2.66237e-32
1.02122e-32
4.30068e-33
2.09667e-33
1.1986e-33
7.71635e-34
5.28886e-34
3.70536e-34
2.59545e-34
1.79878e-34
1.22781e-34
8.23824e-35
5.42949e-35
3.51397e-35
2.23329e-35
1.39392e-35
8.54561e-36
5.14681e-36
3.04589e-36
1.7716e-36
1.01298e-36
5.69534e-37
3.14947e-37
1.71344e-37
9.17314e-38
4.83378e-38
2.50748e-38
1.27989e-38
6.41116e-39
3.10763e-39
1.3618e-39
3.23612e-40
-5.46616e-40
-1.70635e-39
-3.74719e-39
-7.6564e-39
-1.52249e-38
-2.97405e-38
-5.71688e-38
-1.08173e-37
-2.01446e-37
-3.69117e-37
-6.65311e-37
-1.1793e-36
-2.05521e-36
-3.52053e-36
-5.92624e-36
-9.80107e-36
-1.59221e-35
-2.54029e-35
-3.97977e-35
-6.12196e-35
-9.24695e-35
-1.37186e-34
-2.00083e-34
-2.87517e-34
-4.09227e-34
-5.83861e-34
-8.56185e-34
-1.34945e-33
-2.42122e-33
-5.11555e-33
-1.24321e-32
-3.2777e-32
-8.97396e-32
-2.55804e-31
-7.55484e-31
-2.17354e-30
-5.59484e-30
-1.23422e-29
-2.37645e-29
-1.38568e-28
1.38167e-28
2.13886e-29
1.07881e-29
4.81903e-30
1.84714e-30
6.37911e-31
2.16308e-31
7.63157e-32
2.79838e-32
1.06904e-32
4.46104e-33
2.15236e-33
1.22085e-33
7.83037e-34
5.36391e-34
3.76211e-34
2.64007e-34
1.83359e-34
1.25432e-34
8.43449e-35
5.57076e-35
3.61293e-35
2.30083e-35
1.43889e-35
8.83792e-36
5.33252e-36
3.16127e-36
1.84177e-36
1.05476e-36
5.93921e-37
3.28904e-37
1.79177e-37
9.60479e-38
5.06728e-38
2.63181e-38
1.34521e-38
6.74848e-39
3.28618e-39
1.46682e-39
4.1029e-40
-4.32514e-40
-1.50265e-39
-3.35181e-39
-6.87011e-39
-1.36711e-38
-2.6739e-38
-5.14417e-38
-9.74286e-38
-1.81622e-37
-3.33154e-37
-6.01219e-37
-1.06707e-36
-1.86218e-36
-3.19458e-36
-5.38593e-36
-8.92216e-36
-1.45194e-35
-2.32071e-35
-3.64268e-35
-5.61452e-35
-8.49791e-35
-1.26342e-34
-1.8467e-34
-2.65956e-34
-3.79352e-34
-5.42213e-34
-7.95783e-34
-1.25276e-33
-2.2382e-33
-4.69702e-33
-1.13429e-32
-2.9864e-32
-8.22089e-32
-2.33286e-31
-6.74077e-31
-1.89155e-30
-4.8094e-30
-1.04665e-29
-1.82507e-29
-1.4153e-28
4.0308e-28
6.16188e-29
3.1127e-29
1.39196e-29
5.33774e-30
1.84538e-30
6.26288e-31
2.21003e-31
8.10164e-32
3.09585e-32
1.29264e-32
6.24091e-33
3.54178e-33
2.27225e-33
1.55662e-33
1.09171e-33
7.66032e-34
5.31959e-34
3.63854e-34
2.44637e-34
1.61555e-34
1.04764e-34
6.6709e-35
4.17134e-35
2.56182e-35
1.54555e-35
9.1615e-36
5.33699e-36
3.05615e-36
1.72071e-36
9.52815e-37
5.19022e-37
2.782e-37
1.46767e-37
7.62183e-38
3.89511e-38
1.95386e-38
9.51263e-39
4.24736e-39
1.17545e-39
-1.27266e-39
-4.39745e-39
-9.79354e-39
-2.00754e-38
-3.99713e-38
-7.81406e-38
-1.50338e-37
-2.84722e-37
-5.30727e-37
-9.73488e-37
-1.75664e-36
-3.11754e-36
-5.44011e-36
-9.33174e-36
-1.57316e-35
-2.6058e-35
-4.24011e-35
-6.77647e-35
-1.06354e-34
-1.63907e-34
-2.48053e-34
-3.68745e-34
-5.38914e-34
-7.76027e-34
-1.10676e-33
-1.58172e-33
-2.32125e-33
-3.65431e-33
-6.5301e-33
-1.37084e-32
-3.31149e-32
-8.71917e-32
-2.39974e-31
-6.81145e-31
-1.97059e-30
-5.53743e-30
-1.40897e-29
-3.0683e-29
-5.4022e-29
-4.10543e-28
6.33629e-28
9.48441e-29
4.80503e-29
2.15182e-29
8.25776e-30
2.85964e-30
9.71916e-31
3.43059e-31
1.25716e-31
4.80622e-32
2.00881e-32
9.70985e-33
5.51547e-33
3.54014e-33
2.42546e-33
1.70091e-33
1.19329e-33
8.28486e-34
5.6655e-34
3.80835e-34
2.51444e-34
1.6302e-34
1.03782e-34
6.48823e-35
3.98396e-35
2.40308e-35
1.42421e-35
8.29522e-36
4.74935e-36
2.67362e-36
1.48025e-36
8.06215e-37
4.32078e-37
2.27915e-37
1.18346e-37
6.04708e-38
3.03315e-38
1.47598e-38
6.57691e-39
1.79859e-39
-2.0367e-39
-6.94956e-39
-1.54542e-38
-3.16644e-38
-6.30347e-38
-1.23228e-37
-2.3706e-37
-4.48922e-37
-8.36725e-37
-1.53461e-36
-2.76886e-36
-4.91335e-36
-8.57267e-36
-1.47031e-35
-2.4783e-35
-4.10444e-35
-6.67755e-35
-1.06701e-34
-1.67432e-34
-2.57986e-34
-3.90352e-34
-5.80158e-34
-8.47705e-34
-1.22041e-33
-1.74013e-33
-2.4864e-33
-3.64841e-33
-5.7438e-33
-1.0267e-32
-2.1565e-32
-5.21205e-32
-1.37246e-31
-3.776e-31
-1.07222e-30
-3.10884e-30
-8.75739e-30
-2.23126e-29
-4.86528e-29
-8.70174e-29
-6.39157e-28
8.05971e-28
1.17625e-28
5.98561e-29
2.68517e-29
1.03153e-29
3.57944e-30
1.21871e-30
4.30286e-31
1.57619e-31
6.02886e-32
2.52258e-32
1.22084e-32
6.94137e-33
4.45748e-33
3.05424e-33
2.14162e-33
1.50216e-33
1.04268e-33
7.12848e-34
4.79058e-34
3.16217e-34
2.04965e-34
1.30455e-34
8.15395e-35
5.00568e-35
3.01873e-35
1.78872e-35
1.04163e-35
5.96267e-36
3.35606e-36
1.85777e-36
1.01167e-36
5.42112e-37
2.85915e-37
1.48441e-37
7.58381e-38
3.80323e-38
1.84991e-38
8.22672e-39
2.2123e-39
-2.64123e-39
-8.89277e-39
-1.97401e-38
-4.04303e-38
-8.04737e-38
-1.57306e-37
-3.02586e-37
-5.72951e-37
-1.06778e-36
-1.95813e-36
-3.53255e-36
-6.26764e-36
-1.09339e-35
-1.87499e-35
-3.15987e-35
-5.23225e-35
-8.51075e-35
-1.35966e-34
-2.13309e-34
-3.28602e-34
-4.97084e-34
-7.38611e-34
-1.07896e-33
-1.55295e-33
-2.21374e-33
-3.16243e-33
-4.63981e-33
-7.30523e-33
-1.30635e-32
-2.74578e-32
-6.64056e-32
-1.74884e-31
-4.8095e-31
-1.36631e-30
-3.97131e-30
-1.12176e-29
-2.86258e-29
-6.25364e-29
-1.13403e-28
-8.04219e-28
9.01363e-28
1.27925e-28
6.54861e-29
2.94322e-29
1.13205e-29
3.93709e-30
1.34309e-30
4.74323e-31
1.7368e-31
6.64639e-32
2.78401e-32
1.34903e-32
7.67733e-33
4.93226e-33
3.37978e-33
2.36958e-33
1.66169e-33
1.15313e-33
7.88149e-34
5.29525e-34
3.49441e-34
2.26444e-34
1.44091e-34
9.00416e-35
5.52639e-35
3.33204e-35
1.97396e-35
1.14928e-35
6.57763e-36
3.70153e-36
2.04866e-36
1.11545e-36
5.97627e-37
3.15152e-37
1.63598e-37
8.35673e-38
4.19006e-38
2.03698e-38
9.04122e-39
2.38965e-39
-3.01257e-39
-1.00072e-38
-2.21738e-38
-4.53966e-38
-9.03435e-38
-1.76578e-37
-3.39624e-37
-6.43009e-37
-1.1982e-36
-2.19701e-36
-3.96294e-36
-7.03017e-36
-1.22622e-35
-2.1024e-35
-3.54245e-35
-5.8646e-35
-9.53739e-35
-1.52334e-34
-2.38934e-34
-3.67992e-34
-5.56535e-34
-8.26741e-34
-1.20739e-33
-1.73734e-33
-2.47597e-33
-3.53627e-33
-5.18779e-33
-8.16919e-33
-1.46158e-32
-3.07451e-32
-7.44102e-32
-1.95997e-31
-5.38756e-31
-1.53125e-30
-4.46214e-30
-1.26398e-29
-3.23088e-29
-7.07315e-29
-1.29708e-28
-8.89324e-28
9.08779e-28
1.25184e-28
6.45756e-29
2.90757e-29
1.11979e-29
3.90361e-30
1.33436e-30
4.71358e-31
1.72526e-31
6.60529e-32
2.76977e-32
1.34374e-32
7.65402e-33
4.91929e-33
3.37105e-33
2.36311e-33
1.65678e-33
1.14942e-33
7.8541e-34
5.27546e-34
3.48046e-34
2.25484e-34
1.43445e-34
8.9617e-35
5.49908e-35
3.31486e-35
1.96338e-35
1.14289e-35
6.53984e-36
3.67961e-36
2.03618e-36
1.10848e-36
5.93803e-37
3.1309e-37
1.62506e-37
8.29985e-38
4.16074e-38
2.02155e-38
8.95255e-39
2.32265e-39
-3.09621e-39
-1.01531e-38
-2.24571e-38
-4.59567e-38
-9.14437e-38
-1.78709e-37
-3.43684e-37
-6.50618e-37
-1.21222e-36
-2.22242e-36
-4.00818e-36
-7.1093e-36
-1.23981e-35
-2.12532e-35
-3.58039e-35
-5.92622e-35
-9.63555e-35
-1.53868e-34
-2.41284e-34
-3.71522e-34
-5.61734e-34
-8.34249e-34
-1.21803e-33
-1.75219e-33
-2.4965e-33
-3.56486e-33
-5.22933e-33
-8.23617e-33
-1.47441e-32
-3.10419e-32
-7.51877e-32
-1.98082e-31
-5.442e-31
-1.54746e-30
-4.52116e-30
-1.28438e-29
-3.28852e-29
-7.21421e-29
-1.33525e-28
-8.86471e-28
8.26123e-28
1.10258e-28
5.74321e-29
2.58997e-29
9.98734e-30
3.48982e-30
1.19536e-30
4.22353e-31
1.54534e-31
5.91905e-32
2.48461e-32
1.20681e-32
6.8799e-33
4.42344e-33
3.03135e-33
2.12465e-33
1.48925e-33
1.03293e-33
7.05619e-34
4.73827e-34
3.12525e-34
2.0242e-34
1.28742e-34
8.04122e-35
4.93315e-35
2.97307e-35
1.76058e-35
1.02464e-35
5.86207e-36
3.29768e-36
1.82453e-36
9.931e-37
5.31915e-37
2.8042e-37
1.45531e-37
7.43172e-38
3.72487e-38
1.80873e-38
7.99134e-39
2.03407e-39
-2.86872e-39
-9.2882e-39
-2.05067e-38
-4.19494e-38
-8.34572e-38
-1.63083e-37
-3.13594e-37
-5.93584e-37
-1.10582e-36
-2.02706e-36
-3.65528e-36
-6.4823e-36
-1.13027e-35
-1.93719e-35
-3.26282e-35
-5.39948e-35
-8.77722e-35
-1.4013e-34
-2.1969e-34
-3.3819e-34
-5.11207e-34
-7.59012e-34
-1.10789e-33
-1.59332e-33
-2.26957e-33
-3.24017e-33
-4.75277e-33
-7.48723e-33
-1.34117e-32
-2.82626e-32
-6.85129e-32
-1.80535e-31
-4.95692e-31
-1.41022e-30
-4.13104e-30
-1.17694e-29
-3.01827e-29
-6.63361e-29
-1.23792e-28
-7.96649e-28
6.60438e-28
8.52504e-29
4.49571e-29
2.02944e-29
7.8347e-30
2.74394e-30
9.41766e-31
3.32827e-31
1.21738e-31
4.66489e-32
1.96018e-32
9.53179e-33
5.43847e-33
3.49794e-33
2.39716e-33
1.67989e-33
1.17722e-33
8.16292e-34
5.57482e-34
3.74253e-34
2.46784e-34
1.59801e-34
1.01611e-34
6.34512e-35
3.89175e-35
2.34494e-35
1.38833e-35
8.07833e-36
4.62086e-36
2.59898e-36
1.43772e-36
7.82433e-37
4.19016e-37
2.20868e-37
1.14613e-37
5.85223e-38
2.9325e-38
1.42303e-38
6.27026e-39
1.56442e-39
-2.33459e-39
-7.47242e-39
-1.64696e-38
-3.36765e-38
-6.6987e-38
-1.30884e-37
-2.51648e-37
-4.76271e-37
-8.8715e-37
-1.62599e-36
-2.93161e-36
-5.19808e-36
-9.06192e-36
-1.55285e-35
-2.61496e-35
-4.32647e-35
-7.03145e-35
-1.12233e-34
-1.75913e-34
-2.70733e-34
-4.09135e-34
-6.07303e-34
-8.86212e-34
-1.27417e-33
-1.81451e-33
-2.59e-33
-3.79889e-33
-5.98598e-33
-1.07294e-32
-2.26317e-32
-5.49103e-32
-1.44723e-31
-3.97087e-31
-1.13029e-30
-3.31974e-30
-9.48534e-30
-2.43609e-29
-5.3623e-29
-1.0088e-28
-6.2956e-28
4.27205e-28
5.3249e-29
2.85152e-29
1.28723e-29
4.97389e-30
1.74576e-30
6.00318e-31
2.12204e-31
7.75971e-32
2.97475e-32
1.25127e-32
6.09163e-33
3.47857e-33
2.23819e-33
1.53388e-33
1.07475e-33
7.52976e-34
5.21983e-34
3.5639e-34
2.39192e-34
1.57683e-34
1.02079e-34
6.48923e-35
4.05128e-35
2.48427e-35
1.49656e-35
8.85856e-36
5.15355e-36
2.94732e-36
1.65741e-36
9.16702e-37
4.98806e-37
2.67086e-37
1.40768e-37
7.3035e-38
3.72866e-38
1.86792e-38
9.05885e-39
3.9844e-39
9.71713e-40
-1.53672e-39
-4.86426e-39
-1.07048e-38
-2.18742e-38
-4.35065e-38
-8.49973e-38
-1.63401e-37
-3.09223e-37
-5.75907e-37
-1.05538e-36
-1.90253e-36
-3.37286e-36
-5.87895e-36
-1.00723e-35
-1.69582e-35
-2.80516e-35
-4.55801e-35
-7.27364e-35
-1.13979e-34
-1.75373e-34
-2.64959e-34
-3.93191e-34
-5.73613e-34
-8.24503e-34
-1.17385e-33
-1.67521e-33
-2.45699e-33
-3.87241e-33
-6.94543e-33
-1.46639e-32
-3.56096e-32
-9.38741e-32
-2.57352e-31
-7.32981e-31
-2.15847e-30
-6.1858e-30
-1.59064e-29
-3.50531e-29
-6.65487e-29
-4.02504e-28
1.4883e-28
1.79829e-29
9.76076e-30
4.40137e-30
1.70128e-30
5.98022e-31
2.05934e-31
7.28119e-32
2.66237e-32
1.02122e-32
4.30068e-33
2.09667e-33
1.1986e-33
7.71635e-34
5.28886e-34
3.70536e-34
2.59545e-34
1.79878e-34
1.22781e-34
8.23824e-35
5.42949e-35
3.51397e-35
2.23329e-35
1.39392e-35
8.54561e-36
5.14681e-36
3.04589e-36
1.7716e-36
1.01297e-36
5.69535e-37
3.14949e-37
1.71341e-37
9.1731e-38
4.83369e-38
2.50772e-38
1.2802e-38
6.40872e-39
3.10801e-39
1.36202e-39
3.26212e-40
-5.41607e-40
-1.70592e-39
-3.7473e-39
-7.65834e-39
-1.52252e-38
-2.97378e-38
-5.71694e-38
-1.08177e-37
-2.01448e-37
-3.69114e-37
-6.65307e-37
-1.1793e-36
-2.05521e-36
-3.52053e-36
-5.92625e-36
-9.80106e-36
-1.59221e-35
-2.54029e-35
-3.97977e-35
-6.12197e-35
-9.24695e-35
-1.37186e-34
-2.00083e-34
-2.87517e-34
-4.09227e-34
-5.83861e-34
-8.56185e-34
-1.34945e-33
-2.42122e-33
-5.11555e-33
-1.24321e-32
-3.2777e-32
-8.97396e-32
-2.55804e-31
-7.55484e-31
-2.17354e-30
-5.59484e-30
-1.23422e-29
-2.37645e-29
-1.38568e-28
1.38167e-28
2.13886e-29
1.07881e-29
4.81903e-30
1.84714e-30
6.37911e-31
2.16308e-31
7.63157e-32
2.79838e-32
1.06904e-32
4.46104e-33
2.15236e-33
1.22085e-33
7.83037e-34
5.36391e-34
3.76211e-34
2.64007e-34
1.83359e-34
1.25432e-34
8.43449e-35
5.57075e-35
3.61293e-35
2.30083e-35
1.43889e-35
8.83792e-36
5.33251e-36
3.16127e-36
1.84177e-36
1.05476e-36
5.93922e-37
3.28907e-37
1.79179e-37
9.60524e-38
5.06713e-38
2.63143e-38
1.34538e-38
6.74799e-39
3.28459e-39
1.46258e-39
4.1133e-40
-4.36674e-40
-1.50615e-39
-3.35214e-39
-6.87403e-39
-1.36685e-38
-2.67429e-38
-5.14426e-38
-9.74285e-38
-1.81625e-37
-3.33154e-37
-6.01222e-37
-1.06706e-36
-1.86218e-36
-3.19458e-36
-5.38593e-36
-8.92216e-36
-1.45194e-35
-2.32071e-35
-3.64268e-35
-5.61452e-35
-8.49791e-35
-1.26342e-34
-1.8467e-34
-2.65956e-34
-3.79352e-34
-5.42213e-34
-7.95783e-34
-1.25276e-33
-2.2382e-33
-4.69702e-33
-1.13429e-32
-2.9864e-32
-8.22089e-32
-2.33286e-31
-6.74077e-31
-1.89155e-30
-4.8094e-30
-1.04665e-29
-1.82507e-29
-1.4153e-28
4.0308e-28
6.16188e-29
3.1127e-29
1.39196e-29
5.33774e-30
1.84538e-30
6.26288e-31
2.21003e-31
8.10164e-32
3.09585e-32
1.29264e-32
6.24091e-33
3.54178e-33
2.27225e-33
1.55662e-33
1.09171e-33
7.66032e-34
5.31959e-34
3.63854e-34
2.44637e-34
1.61555e-34
1.04764e-34
6.6709e-35
4.17134e-35
2.56182e-35
1.54555e-35
9.1615e-36
5.33698e-36
3.05615e-36
1.72071e-36
9.52816e-37
5.19024e-37
2.78202e-37
1.46772e-37
7.6219e-38
3.89525e-38
1.95351e-38
9.50453e-39
4.2409e-39
1.16067e-39
-1.28657e-39
-4.40369e-39
-9.80033e-39
-2.00845e-38
-3.99776e-38
-7.8144e-38
-1.50337e-37
-2.8472e-37
-5.30732e-37
-9.73493e-37
-1.75664e-36
-3.11754e-36
-5.44011e-36
-9.33174e-36
-1.57316e-35
-2.6058e-35
-4.24011e-35
-6.77647e-35
-1.06354e-34
-1.63907e-34
-2.48053e-34
-3.68745e-34
-5.38914e-34
-7.76027e-34
-1.10676e-33
-1.58172e-33
-2.32125e-33
-3.65431e-33
-6.5301e-33
-1.37084e-32
-3.31149e-32
-8.71917e-32
-2.39974e-31
-6.81145e-31
-1.97059e-30
-5.53743e-30
-1.40897e-29
-3.0683e-29
-5.4022e-29
-4.10543e-28
6.33629e-28
9.48441e-29
4.80503e-29
2.15182e-29
8.25776e-30
2.85964e-30
9.71916e-31
3.43059e-31
1.25716e-31
4.80622e-32
2.00881e-32
9.70985e-33
5.51547e-33
3.54014e-33
2.42546e-33
1.70091e-33
1.19329e-33
8.28486e-34
5.6655e-34
3.80835e-34
2.51444e-34
1.6302e-34
1.03782e-34
6.48823e-35
3.98396e-35
2.40308e-35
1.42421e-35
8.29522e-36
4.74935e-36
2.67362e-36
1.48025e-36
8.06224e-37
4.3208e-37
2.27913e-37
1.18347e-37
6.0472e-38
3.0332e-38
1.47524e-38
6.56213e-39
1.78666e-39
-2.05356e-39
-6.96533e-39
-1.54635e-38
-3.16768e-38
-6.30396e-38
-1.23236e-37
-2.37064e-37
-4.48921e-37
-8.3673e-37
-1.53461e-36
-2.76886e-36
-4.91335e-36
-8.57267e-36
-1.47031e-35
-2.4783e-35
-4.10444e-35
-6.67755e-35
-1.06701e-34
-1.67432e-34
-2.57986e-34
-3.90352e-34
-5.80158e-34
-8.47705e-34
-1.22041e-33
-1.74013e-33
-2.4864e-33
-3.64841e-33
-5.7438e-33
-1.0267e-32
-2.1565e-32
-5.21205e-32
-1.37246e-31
-3.776e-31
-1.07222e-30
-3.10884e-30
-8.75739e-30
-2.23126e-29
-4.86528e-29
-8.70174e-29
-6.39157e-28
8.05971e-28
1.17625e-28
5.98561e-29
2.68517e-29
1.03153e-29
3.57944e-30
1.21871e-30
4.30286e-31
1.57619e-31
6.02886e-32
2.52258e-32
1.22084e-32
6.94137e-33
4.45748e-33
3.05424e-33
2.14162e-33
1.50216e-33
1.04268e-33
7.12848e-34
4.79058e-34
3.16217e-34
2.04965e-34
1.30455e-34
8.15395e-35
5.00568e-35
3.01873e-35
1.78872e-35
1.04163e-35
5.96267e-36
3.35607e-36
1.85778e-36
1.01168e-36
5.4211e-37
2.85919e-37
1.48446e-37
7.58389e-38
3.80269e-38
1.84884e-38
8.21489e-39
2.19544e-39
-2.66312e-39
-8.91313e-39
-1.97552e-38
-4.04419e-38
-8.04809e-38
-1.57315e-37
-3.02591e-37
-5.7295e-37
-1.06778e-36
-1.95814e-36
-3.53256e-36
-6.26764e-36
-1.09339e-35
-1.87499e-35
-3.15987e-35
-5.23225e-35
-8.51075e-35
-1.35966e-34
-2.13309e-34
-3.28602e-34
-4.97084e-34
-7.38611e-34
-1.07896e-33
-1.55295e-33
-2.21374e-33
-3.16243e-33
-4.63981e-33
-7.30523e-33
-1.30635e-32
-2.74578e-32
-6.64056e-32
-1.74884e-31
-4.8095e-31
-1.36631e-30
-3.97131e-30
-1.12176e-29
-2.86258e-29
-6.25364e-29
-1.13403e-28
-8.04219e-28
9.01363e-28
1.27925e-28
6.54861e-29
2.94322e-29
1.13205e-29
3.93709e-30
1.34309e-30
4.74323e-31
1.7368e-31
6.64639e-32
2.78401e-32
1.34903e-32
7.67733e-33
4.93226e-33
3.37978e-33
2.36958e-33
1.66169e-33
1.15313e-33
7.88149e-34
5.29525e-34
3.49441e-34
2.26444e-34
1.44091e-34
9.00416e-35
5.52639e-35
3.33204e-35
1.97396e-35
1.14928e-35
6.57764e-36
3.70153e-36
2.04867e-36
1.11545e-36
5.97628e-37
3.15154e-37
1.636e-37
8.35691e-38
4.18942e-38
2.03582e-38
9.02852e-39
2.36885e-39
-3.0371e-39
-1.00307e-38
-2.21885e-38
-4.54104e-38
-9.03542e-38
-1.76586e-37
-3.3963e-37
-6.4301e-37
-1.1982e-36
-2.19702e-36
-3.96294e-36
-7.03017e-36
-1.22622e-35
-2.1024e-35
-3.54245e-35
-5.86461e-35
-9.53739e-35
-1.52334e-34
-2.38934e-34
-3.67992e-34
-5.56535e-34
-8.26741e-34
-1.20739e-33
-1.73734e-33
-2.47597e-33
-3.53627e-33
-5.18779e-33
-8.16919e-33
-1.46158e-32
-3.07451e-32
-7.44102e-32
-1.95997e-31
-5.38756e-31
-1.53125e-30
-4.46214e-30
-1.26398e-29
-3.23088e-29
-7.07315e-29
-1.29708e-28
-8.89324e-28
9.08779e-28
1.25184e-28
6.45756e-29
2.90757e-29
1.11979e-29
3.90361e-30
1.33436e-30
4.71358e-31
1.72526e-31
6.60529e-32
2.76977e-32
1.34374e-32
7.65402e-33
4.91929e-33
3.37105e-33
2.36311e-33
1.65678e-33
1.14942e-33
7.8541e-34
5.27546e-34
3.48046e-34
2.25484e-34
1.43445e-34
8.9617e-35
5.49908e-35
3.31486e-35
1.96338e-35
1.14289e-35
6.53985e-36
3.67961e-36
2.03619e-36
1.10848e-36
5.93805e-37
3.13093e-37
1.62508e-37
8.29989e-38
4.16006e-38
2.02045e-38
8.94028e-39
2.30251e-39
-3.12161e-39
-1.01769e-38
-2.2472e-38
-4.59698e-38
-9.14546e-38
-1.78717e-37
-3.4369e-37
-6.50619e-37
-1.21222e-36
-2.22243e-36
-4.00818e-36
-7.1093e-36
-1.23981e-35
-2.12532e-35
-3.58039e-35
-5.92622e-35
-9.63555e-35
-1.53868e-34
-2.41284e-34
-3.71522e-34
-5.61734e-34
-8.34249e-34
-1.21803e-33
-1.75219e-33
-2.4965e-33
-3.56486e-33
-5.22933e-33
-8.23617e-33
-1.47441e-32
-3.10419e-32
-7.51877e-32
-1.98082e-31
-5.442e-31
-1.54746e-30
-4.52116e-30
-1.28438e-29
-3.28852e-29
-7.21421e-29
-1.33525e-28
-8.86471e-28
8.26123e-28
1.10258e-28
5.74321e-29
2.58997e-29
9.98734e-30
3.48982e-30
1.19536e-30
4.22353e-31
1.54534e-31
5.91905e-32
2.48461e-32
1.20681e-32
6.8799e-33
4.42344e-33
3.03135e-33
2.12465e-33
1.48925e-33
1.03293e-33
7.05619e-34
4.73827e-34
3.12525e-34
2.0242e-34
1.28742e-34
8.04122e-35
4.93315e-35
2.97307e-35
1.76058e-35
1.02464e-35
5.86208e-36
3.29769e-36
1.82454e-36
9.93105e-37
5.31918e-37
2.80423e-37
1.45531e-37
7.43174e-38
3.72428e-38
1.80781e-38
7.98215e-39
2.01349e-39
-2.89237e-39
-9.30944e-39
-2.05218e-38
-4.19617e-38
-8.34686e-38
-1.63088e-37
-3.13601e-37
-5.93585e-37
-1.10582e-36
-2.02706e-36
-3.65528e-36
-6.48231e-36
-1.13027e-35
-1.93718e-35
-3.26282e-35
-5.39948e-35
-8.77722e-35
-1.4013e-34
-2.1969e-34
-3.3819e-34
-5.11207e-34
-7.59012e-34
-1.10789e-33
-1.59332e-33
-2.26957e-33
-3.24017e-33
-4.75277e-33
-7.48723e-33
-1.34117e-32
-2.82626e-32
-6.85129e-32
-1.80535e-31
-4.95692e-31
-1.41022e-30
-4.13104e-30
-1.17694e-29
-3.01827e-29
-6.63361e-29
-1.23792e-28
-7.96649e-28
6.60438e-28
8.52504e-29
4.49571e-29
2.02944e-29
7.8347e-30
2.74394e-30
9.41766e-31
3.32827e-31
1.21738e-31
4.66489e-32
1.96018e-32
9.53179e-33
5.43847e-33
3.49794e-33
2.39716e-33
1.67989e-33
1.17722e-33
8.16292e-34
5.57482e-34
3.74253e-34
2.46784e-34
1.59801e-34
1.01611e-34
6.34512e-35
3.89175e-35
2.34494e-35
1.38833e-35
8.07834e-36
4.62086e-36
2.59898e-36
1.43772e-36
7.82437e-37
4.1902e-37
2.20873e-37
1.14612e-37
5.85195e-38
2.93204e-38
1.42242e-38
6.26665e-39
1.55281e-39
-2.35637e-39
-7.4952e-39
-1.64842e-38
-3.36799e-38
-6.69885e-38
-1.30893e-37
-2.51659e-37
-4.76275e-37
-8.87146e-37
-1.62599e-36
-2.93161e-36
-5.19808e-36
-9.06192e-36
-1.55285e-35
-2.61496e-35
-4.32647e-35
-7.03146e-35
-1.12233e-34
-1.75913e-34
-2.70733e-34
-4.09135e-34
-6.07303e-34
-8.86212e-34
-1.27417e-33
-1.81451e-33
-2.59e-33
-3.79889e-33
-5.98598e-33
-1.07294e-32
-2.26317e-32
-5.49103e-32
-1.44723e-31
-3.97087e-31
-1.13029e-30
-3.31974e-30
-9.48534e-30
-2.43609e-29
-5.3623e-29
-1.0088e-28
-6.2956e-28
4.27205e-28
5.3249e-29
2.85152e-29
1.28723e-29
4.97389e-30
1.74576e-30
6.00318e-31
2.12204e-31
7.75971e-32
2.97475e-32
1.25127e-32
6.09163e-33
3.47857e-33
2.23819e-33
1.53388e-33
1.07475e-33
7.52976e-34
5.21983e-34
3.5639e-34
2.39192e-34
1.57683e-34
1.02079e-34
6.48923e-35
4.05128e-35
2.48427e-35
1.49656e-35
8.85857e-36
5.15356e-36
2.94732e-36
1.65741e-36
9.16705e-37
4.9881e-37
2.67089e-37
1.40767e-37
7.3035e-38
3.72853e-38
1.8678e-38
9.05578e-39
3.97805e-39
9.62736e-40
-1.55391e-39
-4.87455e-39
-1.07102e-38
-2.18785e-38
-4.35082e-38
-8.50081e-38
-1.63406e-37
-3.0922e-37
-5.75905e-37
-1.05539e-36
-1.90254e-36
-3.37286e-36
-5.87894e-36
-1.00723e-35
-1.69582e-35
-2.80516e-35
-4.55801e-35
-7.27364e-35
-1.13979e-34
-1.75373e-34
-2.64959e-34
-3.93191e-34
-5.73613e-34
-8.24503e-34
-1.17385e-33
-1.67521e-33
-2.45699e-33
-3.87241e-33
-6.94543e-33
-1.46639e-32
-3.56096e-32
-9.38741e-32
-2.57352e-31
-7.32981e-31
-2.15847e-30
-6.1858e-30
-1.59064e-29
-3.50531e-29
-6.65487e-29
-4.02504e-28
1.4883e-28
1.79829e-29
9.76076e-30
4.40137e-30
1.70128e-30
5.98022e-31
2.05934e-31
7.28119e-32
2.66237e-32
1.02122e-32
4.30068e-33
2.09667e-33
1.1986e-33
7.71635e-34
5.28886e-34
3.70536e-34
2.59545e-34
1.79878e-34
1.22781e-34
8.23824e-35
5.42949e-35
3.51397e-35
2.23329e-35
1.39392e-35
8.5456e-36
5.14681e-36
3.04589e-36
1.7716e-36
1.01298e-36