/*--------------------------------*- C++ -*----------------------------------*\
| =========                 |                                                 |
| \\      /  F ield         | OpenFOAM: The Open Source CFD Toolbox           |
|  \\    /   O peration     | Version:  5.x                                   |
|   \\  /    A nd           | Web:      www.OpenFOAM.org                      |
|    \\/     M anipulation  |                                                 |
\*---------------------------------------------------------------------------*/
FoamFile
{
    version     2.0;
    format      ascii;
    class       volScalarField;
    location    "17";
    object      gradTy;
}
// * * * * * * * * * * * * * * * * * * * * * * * * * * * * * * * * * * * * * //

dimensions      [0 -1 0 1 0 0 0];

internalField   nonuniform List<scalar> 
6300
(
996.271
988.936
981.968
975.609
970.089
965.63
962.434
960.678
960.51
962.038
965.322
970.368
977.122
985.471
995.245
-0.184488
-0.55127
-0.911229
-1.25902
-1.58815
-1.89068
-2.15708
-2.37638
-2.53665
-2.62606
-2.63437
-2.55479
-2.386
-2.13364
-1.81082
-0.309927
-0.926393
-1.53228
-2.11914
-2.67651
-3.19131
-3.6475
-4.02618
-4.3064
-4.46675
-4.48806
-4.35686
-4.06927
-3.63419
-3.07461
-0.438745
-1.31209
-2.17235
-3.00874
-3.80744
-4.55055
-5.21541
-5.77446
-6.19601
-6.44649
-6.49428
-6.31534
-5.90002
-5.25924
-4.42767
-0.571712
-1.71085
-2.83627
-3.93602
-4.99393
-5.98801
-6.88911
-7.66017
-8.25666
-8.62889
-8.72716
-8.51015
-7.95618
-7.07501
-5.9154
-0.708971
-2.12332
-3.52586
-4.90513
-6.24424
-7.51844
-8.69283
-9.72045
-10.5415
-11.0852
-11.2753
-11.0419
-10.3395
-9.16921
-7.59609
-0.84981
-2.5476
-4.23868
-5.91438
-7.55942
-9.14863
-10.6433
-11.9872
-13.1038
-13.8951
-14.2469
-14.0425
-13.1908
-11.6661
-9.54948
-0.992474
-2.97858
-4.96685
-6.95425
-8.93039
-10.8734
-12.7444
-14.4812
-15.9911
-17.1445
-17.7745
-17.6905
-16.7149
-14.7549
-11.8941
-1.13398
-3.40737
-5.69587
-8.00535
-10.3345
-12.67
-14.9795
-17.2022
-19.2349
-20.917
-22.0162
-22.2298
-21.2235
-18.7443
-14.822
-1.27005
-3.82103
-6.40388
-9.03677
-11.7322
-14.4924
-17.3015
-20.113
-22.8294
-25.2722
-27.1434
-27.9888
-27.2047
-24.1769
-18.6821
-1.39521
-4.20282
-7.06183
-10.0056
-13.0651
-16.2658
-19.6211
-23.1189
-26.6972
-30.1989
-33.2961
-35.3772
-35.4296
-32.0763
-24.2058
-1.50316
-4.53319
-7.635
-10.8586
-14.2567
-17.8847
-21.798
-26.0442
-30.6413
-35.5299
-40.4648
-44.7941
-47.0602
-44.4928
-33.2417
-1.58741
-4.79176
-8.08636
-11.537
-15.2182
-19.218
-23.6421
-28.6182
-34.2938
-40.8144
-48.2387
-56.274
-63.5241
-65.593
-51.5661
-1.6421
-4.96005
-8.38166
-11.9847
-15.8612
-20.1269
-24.9341
-30.4926
-37.1012
-45.1949
-55.4014
-68.5388
-85.1688
-102.789
-101.257
-1.66306
-5.02464
-8.49551
-12.1588
-16.115
-20.494
-25.4745
-31.3166
-38.4233
-47.4624
-59.633
-77.3105
-105.823
-159.136
-281.254
1005.31
1015.14
1025.49
1036.2
1047.13
1058.11
1069.02
1079.73
1090.14
1100.15
1109.7
1118.71
1127.13
1134.93
1142.08
1148.53
1154.29
1159.33
1163.65
1167.24
1170.09
1172.21
1173.61
1174.27
1174.22
1173.46
1171.99
1169.82
1166.98
1163.45
1159.27
1154.43
1148.96
1142.85
1136.12
1128.78
1120.84
1112.31
1103.2
1093.51
1083.27
1072.48
1061.14
1049.28
1036.9
1024.02
1010.64
996.777
982.441
967.642
952.388
936.688
920.55
903.982
886.993
869.593
851.792
833.602
815.036
796.108
776.833
757.227
737.307
717.091
696.596
675.842
654.848
633.636
612.231
590.659
568.952
547.144
525.274
503.385
481.525
459.746
438.101
416.647
395.442
374.543
354.007
333.89
314.243
295.115
276.551
258.587
241.256
224.581
208.577
193.252
-1.46815
-1.13605
-0.797171
-0.464322
-0.148234
0.143066
0.404443
0.633449
0.82987
0.99516
1.13186
1.24311
1.3322
1.40234
1.45646
1.49713
1.52652
1.54645
1.55844
1.5637
1.56327
1.558
1.54859
1.53569
1.51984
1.50155
1.48131
1.45958
1.43684
1.41351
1.39001
1.36668
1.34378
1.32146
1.29974
1.27851
1.25757
1.23661
1.21534
1.19349
1.17088
1.14747
1.12341
1.09897
1.07454
1.05057
1.02749
1.00563
0.985135
0.965931
0.947718
0.929986
0.912074
0.893259
0.872852
0.850296
0.825238
0.797558
0.767364
0.734933
0.700622
0.664749
0.627477
0.588708
0.548022
0.504653
0.457533
0.405387
0.34687
0.280729
0.205973
0.122011
0.0287544
-0.0733419
-0.183294
-0.299655
-0.420625
-0.544165
-0.668116
-0.790285
-0.9085
-1.02063
-1.12456
-1.2182
-1.29947
-1.36638
-1.41712
-1.45023
-1.46477
-1.46052
-2.47986
-1.90433
-1.31911
-0.747239
-0.207611
0.286109
0.725678
1.10773
1.43281
1.70426
1.92713
2.10726
2.25063
2.36286
2.44896
2.51325
2.55932
2.59014
2.60813
2.61527
2.61319
2.60324
2.58657
2.56418
2.53694
2.50568
2.4712
2.43426
2.39564
2.35612
2.31639
2.27709
2.23869
2.20146
2.16543
2.1304
2.09595
2.06151
2.02649
1.99034
1.9527
1.91349
1.87294
1.83157
1.79014
1.74952
1.71055
1.67388
1.63983
1.60831
1.57877
1.55026
1.52156
1.49129
1.45817
1.42114
1.37957
1.33327
1.28251
1.2279
1.17021
1.11017
1.04821
0.984273
0.917683
0.847102
0.770601
0.685834
0.590297
0.481641
0.357985
0.218188
0.0620341
-0.109695
-0.295252
-0.492061
-0.696929
-0.906276
-1.11636
-1.32345
-1.52389
-1.71413
-1.8907
-2.05008
-2.18872
-2.30313
-2.39001
-2.44666
-2.47127
-2.46333
-3.54186
-2.68668
-1.82195
-0.983852
-0.201021
0.506986
1.12958
1.66388
2.1128
2.48313
2.78373
3.02417
3.21372
3.3608
3.47267
3.55538
3.61386
3.65208
3.67323
3.6799
3.67422
3.65794
3.63257
3.59941
3.5596
3.51424
3.46439
3.41111
3.35553
3.29878
3.24194
3.18599
3.1317
3.07951
3.02946
2.98123
2.93408
2.88704
2.83904
2.7891
2.73657
2.68124
2.62344
2.56406
2.50437
2.4459
2.3901
2.33815
2.29069
2.24763
2.20813
2.17064
2.13312
2.09327
2.04893
1.99837
1.94055
1.87524
1.80304
1.72513
1.64303
1.55821
1.47164
1.38352
1.29295
1.19795
1.09545
0.981669
0.8525
0.70404
0.533134
0.337822
0.117647
-0.126226
-0.39109
-0.672942
-0.966854
-1.26739
-1.56899
-1.86624
-2.154
-2.42739
-2.68163
-2.91184
-3.11291
-3.27952
-3.40648
-3.48924
-3.52467
-3.51171
-4.67556
-3.48266
-2.28631
-1.14072
-0.0865202
0.85102
1.66082
2.34315
2.90615
3.36259
3.72715
4.01451
4.23813
4.40961
4.53854
4.63259
4.69777
4.73879
4.75938
4.76252
4.75069
4.72593
4.69
4.6444
4.59048
4.52949
4.46271
4.3915
4.31733
4.24177
4.16641
4.09273
4.02191
3.95466
3.89111
3.8307
3.77226
3.71416
3.65458
3.59182
3.52468
3.45273
3.37644
3.29719
3.21707
3.13861
3.06429
2.99617
2.93541
2.88202
2.83478
2.79126
2.7482
2.70189
2.64883
2.58622
2.51246
2.42732
2.33194
2.22855
2.11994
2.0089
1.89747
1.78641
1.67477
1.5597
1.43667
1.29979
1.1426
0.958882
0.743542
0.493369
0.207496
-0.112423
-0.462361
-0.836355
-1.22714
-1.62688
-2.02779
-2.4226
-2.80473
-3.16815
-3.50708
-3.81549
-4.08663
-4.31296
-4.48651
-4.5999
-4.64771
-4.62778
-5.90399
-4.28358
-2.67757
-1.16598
0.196012
1.37905
2.37569
3.19431
3.85302
4.37442
4.7818
5.09672
5.33768
5.51976
5.65471
5.75143
5.81653
5.85501
5.87072
5.86679
5.84585
5.8101
5.76144
5.70148
5.63161
5.55316
5.46752
5.37625
5.28122
5.18456
5.08856
4.99544
4.90707
4.82461
4.74834
4.67743
4.61006
4.54355
4.47481
4.40095
4.31984
4.23059
4.13382
4.03167
3.9275
3.82545
3.72969
3.6437
3.56961
3.50768
3.45616
3.41134
3.36805
3.32035
3.26257
3.19024
3.10086
2.99425
2.8725
2.73957
2.60046
2.46024
2.32286
2.19025
2.06159
1.93303
1.7979
1.64725
1.471
1.25934
1.0042
0.700408
0.346455
-0.055306
-0.498908
-0.975503
-1.47446
-1.98461
-2.4953
-2.99716
-3.48231
-3.94409
-4.37643
-4.77274
-5.12483
-5.42232
-5.6531
-5.80495
-5.86823
-5.83862
-7.25058
-5.06364
-2.93272
-0.97566
0.736423
2.17574
3.34716
4.27604
4.99792
5.55076
5.96995
6.28575
6.52235
6.69811
6.8263
6.91616
6.97401
7.00437
7.01071
6.99596
6.96271
6.91327
6.84958
6.77323
6.68551
6.58762
6.48084
6.36685
6.2479
6.12684
6.00699
5.89177
5.78414
5.68611
5.59826
5.51952
5.44706
5.37656
5.30285
5.22096
5.12714
5.0197
4.89939
4.76947
4.63531
4.50364
4.38142
4.27452
4.1867
4.11876
4.06826
4.02962
3.99463
3.95372
3.89762
3.81917
3.71443
3.58332
3.42952
3.25982
3.08293
2.9078
2.74172
2.58872
2.44855
2.31614
2.18176
2.03186
1.85066
1.62268
1.33516
0.979933
0.554505
0.0623002
-0.487709
-1.08222
-1.70545
-2.34132
-2.97532
-3.59561
-4.19333
-4.76225
-5.29749
-5.79351
-6.2415
-6.62761
-6.9332
-7.13742
-7.22239
-7.17937
-8.73678
-5.76291
-2.9374
-0.432479
1.66971
3.35837
4.66807
5.65609
6.38652
6.91985
7.30732
7.58916
7.79498
7.94533
8.05346
8.12733
8.17145
8.18871
8.18147
8.15215
8.10331
8.03737
7.95637
7.86178
7.75452
7.63531
7.50499
7.36506
7.21808
7.06784
6.91923
6.77763
6.64786
6.5334
6.43555
6.35305
6.28172
6.21466
6.14317
6.05862
5.95454
5.82779
5.67927
5.51384
5.34001
5.1687
5.01152
4.87834
4.77561
4.70515
4.66376
4.64306
4.63017
4.60936
4.5653
4.48635
4.36637
4.20548
4.00981
3.7908
3.56323
3.34271
3.14209
2.9691
2.82468
2.70241
2.58832
2.46184
2.29802
2.07206
1.7639
1.36084
0.858996
0.263422
-0.412151
-1.14734
-1.91795
-2.70048
-3.47484
-4.22631
-4.94561
-5.62869
-6.27482
-6.88322
-7.44709
-7.94868
-8.35909
-8.64145
-8.76069
-8.69879
-10.3722
-6.24852
-2.48045
0.690566
3.19833
5.0865
6.45204
7.40697
8.05886
8.49893
8.79676
9.00203
9.14748
9.25333
9.32993
9.38132
9.40758
9.40833
9.38399
9.33647
9.26852
9.18316
9.08276
8.96857
8.84078
8.69902
8.54299
8.37348
8.19297
8.00655
7.82143
7.64648
7.48959
7.35682
7.25079
7.17057
7.11026
7.0592
7.00235
6.92446
6.81463
6.6673
6.48358
6.27037
6.04116
5.81347
5.60715
5.43839
5.31814
5.24974
5.22955
5.24533
5.2772
5.29857
5.28326
5.21271
5.07728
4.8778
4.62379
4.33418
4.03347
3.74905
3.50273
3.30843
3.16897
3.07699
3.0128
2.94565
2.83493
2.63986
2.32938
1.88406
1.29852
0.579813
-0.250675
-1.16135
-2.11321
-3.07131
-4.00722
-4.90324
-5.7499
-6.54821
-7.30635
-8.03695
-8.74224
-9.4009
-9.96926
-10.3803
-10.5597
-10.4695
-12.1203
-6.22229
-1.16392
2.76843
5.61868
7.56653
8.82651
9.59346
10.0354
10.2821
10.4187
10.5003
10.5563
10.6027
10.6419
10.6707
10.6796
10.6633
10.6191
10.5494
10.458
10.3497
10.2281
10.0941
9.9463
9.78242
9.59955
9.39687
9.17555
8.94251
8.70815
8.48846
8.29576
8.14088
8.02804
7.95856
7.92464
7.91128
7.89099
7.83548
7.7279
7.55843
7.32953
7.04918
6.73932
6.42673
6.14794
5.92783
5.78527
5.72422
5.74283
5.82374
5.93865
6.03993
6.08011
6.03182
5.87977
5.62799
5.28841
4.89294
4.47963
4.09995
3.78789
3.56827
3.44438
3.41104
3.44107
3.49171
3.49284
3.37341
3.08861
2.60875
1.9294
1.05678
0.0259023
-1.11638
-2.2998
-3.47435
-4.5973
-5.65144
-6.624
-7.52571
-8.37762
-9.22723
-10.1046
-10.9832
-11.806
-12.4526
-12.7469
-12.6076
-13.7718
-4.98736
1.7737
6.40427
9.33811
11.0365
11.9101
12.247
12.2923
12.2227
12.1189
12.0343
11.9777
11.9613
11.9679
11.9876
11.9869
11.9572
11.8898
11.7923
11.6705
11.5344
11.3902
11.2382
11.0738
10.892
10.6834
10.4459
10.1738
9.87914
9.57253
9.2904
9.04625
8.8632
8.74166
8.69416
8.70824
8.77215
8.82916
8.8203
8.72915
8.53399
8.24842
7.86934
7.44031
6.99018
6.60312
6.30454
6.13397
6.08291
6.16539
6.35214
6.61872
6.86829
7.00335
6.9994
6.82492
6.5037
6.03258
5.47649
4.8765
4.35262
3.9391
3.68944
3.58859
3.6531
3.83888
4.10836
4.32364
4.34439
4.12807
3.62008
2.83798
1.76104
0.462344
-1.01266
-2.49967
-3.95214
-5.28684
-6.5175
-7.60042
-8.57521
-9.45244
-10.3777
-11.4653
-12.6458
-13.8968
-15.0321
-15.5584
-15.3119
-14.4138
-0.839236
7.77867
12.4833
14.8369
15.6948
15.7674
15.321
14.7152
14.2133
13.7922
13.5286
13.3422
13.2876
13.2759
13.3347
13.3369
13.306
13.2048
13.0711
12.9046
12.7317
12.5646
12.401
12.2274
12.041
11.81
11.5458
11.2055
10.834
10.4027
10.0386
9.70977
9.49799
9.3497
9.34211
9.42112
9.64398
9.86323
9.92463
9.88121
9.64076
9.303
8.76247
8.17269
7.46386
6.93193
6.49789
6.31159
6.25028
6.43874
6.76656
7.32419
7.86245
8.12768
8.21342
7.98225
7.59616
6.89998
6.12412
5.16463
4.44721
3.85517
3.59712
3.49545
3.72125
4.1169
4.80375
5.43525
5.65739
5.58818
5.02675
4.17177
2.78529
1.1533
-0.891045
-2.74866
-4.59892
-6.12562
-7.59577
-8.73205
-9.76471
-10.4576
-11.2941
-12.692
-14.2063
-16.1537
-18.4882
-19.4824
-18.9421
-9.95558
10.4466
19.4185
21.947
22.4889
21.4835
20.3715
18.6245
16.988
16.0873
15.2384
14.9114
14.5166
14.5518
14.4819
14.7632
14.7343
14.7561
14.5663
14.397
14.1477
13.9203
13.7338
13.578
13.3993
13.2539
12.9842
12.755
12.2821
11.8748
11.1359
10.7361
10.2045
10.0412
9.75498
9.86522
9.9267
10.5209
11.1245
11.1798
11.3169
10.8875
10.6495
9.72643
9.07638
7.68273
7.11967
6.33444
6.30913
6.05793
6.51132
6.84996
8.05747
9.2497
9.5104
9.88369
9.3626
9.13507
7.88205
7.03614
5.10412
4.36121
3.29029
3.27958
2.93072
3.5448
3.97555
5.57881
7.13629
7.38989
7.75705
6.85608
6.2709
4.16304
2.43807
-1.0383
-3.0082
-5.71159
-7.04573
-9.15472
-10.0127
-11.4434
-11.2559
-11.4017
-13.7509
-15.1433
-17.8528
-23.874
-25.6161
-24.1683
19.5955
38.1924
40.337
34.2712
32.3684
27.4249
25.8896
21.7681
18.2009
17.8858
15.9325
16.3914
15.0711
15.9668
15.1815
16.638
16.0578
16.5101
15.8975
15.8373
15.3584
15.0494
14.8581
14.7875
14.5223
14.6452
14.0993
14.3145
13.2635
13.3925
11.3799
11.6226
10.1684
10.7607
9.58864
10.4578
9.66447
11.3837
13.1745
12.3164
13.5676
11.8582
12.9816
10.2966
11.0502
6.70491
7.6267
5.07607
6.63136
4.85036
6.74857
5.68162
8.81217
11.9778
10.7304
12.8413
10.3196
12.1501
8.27731
9.51165
3.33076
4.74708
1.19821
3.44853
0.978884
3.63193
2.14538
6.41934
10.7145
8.95843
11.7516
8.23025
10.5623
4.98904
6.2445
-3.35516
-2.21179
-8.79619
-6.85024
-12.5152
-10.469
-15.4522
-11.5744
-8.3363
-16.1876
-14.1833
-14.7833
-35.4217
-36.3429
-32.235
180.573
89.6282
73.0778
40.6005
46.6263
28.4583
35.1319
24.1135
14.7308
22.0437
13.1531
20.4335
12.4349
19.8028
12.6529
21.4457
15.8948
19.7976
16.4334
17.8807
16.325
16.0092
15.8087
16.2773
15.0869
16.9999
14.1185
17.698
12.5458
17.9944
8.37653
14.9532
7.18537
14.0213
6.48328
13.4448
5.78453
12.1437
19.0394
10.4159
20.082
8.74977
20.7983
5.91559
20.3668
-1.85707
13.1344
-2.0944
11.7582
-1.65486
11.256
-1.53075
9.51673
21.0608
7.1148
22.4702
5.00976
23.3784
1.3186
22.6654
-9.38223
12.2832
-9.24431
10.4146
-8.34927
9.68039
-7.97963
7.22963
23.0067
3.97625
24.8394
1.17571
26.2376
-4.01807
25.6825
-21.1417
9.71292
-24.1642
4.30528
-26.9795
-0.80271
-32.2204
-10.9714
10.6981
-32.8162
-9.47311
17.1422
-75.362
-54.311
-45.7374
177.138
160.518
144.821
129.999
115.992
102.735
90.1525
78.1712
66.7147
55.7078
45.0767
34.7492
24.6556
14.7276
4.89824
-1.43574
-1.38443
-1.31235
-1.22378
-1.12321
-1.01488
-0.902414
-0.78869
-0.675763
-0.564936
-0.456863
-0.351676
-0.249104
-0.148589
-0.0493805
-2.41979
-2.33042
-2.20555
-2.05296
-1.88065
-1.69606
-1.50544
-1.31361
-1.12395
-0.938507
-0.75824
-0.583226
-0.412892
-0.246199
-0.0818047
-3.44571
-3.31187
-3.12648
-2.90183
-2.65035
-2.38325
-2.10965
-1.83636
-1.5679
-1.3069
-1.05436
-0.810091
-0.573034
-0.341507
-0.113443
-4.53343
-4.34484
-4.08663
-3.77748
-3.43566
-3.07692
-2.71355
-2.35423
-2.0044
-1.66681
-1.34219
-1.02974
-0.727639
-0.433349
-0.143903
-5.70674
-5.44738
-5.09768
-4.68578
-4.23785
-3.77518
-3.31337
-2.8626
-2.42862
-2.01374
-1.61782
-1.23903
-0.874423
-0.520342
-0.172722
-6.99545
-6.6402
-6.17084
-5.63006
-5.05472
-4.47255
-3.9021
-3.35416
-2.83372
-2.34169
-1.87632
-1.43413
-1.01067
-0.600868
-0.199363
-8.43865
-7.94701
-7.31534
-6.60882
-5.87834
-5.15816
-4.46828
-3.81818
-3.21036
-2.64296
-2.11159
-1.6105
-1.13324
-0.673093
-0.223222
-10.0896
-9.39374
-8.53458
-7.61144
-6.69159
-5.81342
-4.99461
-4.23988
-3.54655
-2.90818
-2.31658
-1.76301
-1.23869
-0.735031
-0.243652
-12.0218
-11.0037
-9.8177
-8.61066
-7.46307
-6.40924
-5.45682
-4.60012
-3.82776
-3.12658
-2.4835
-1.88625
-1.32348
-0.784679
-0.260005
-14.3332
-12.7815
-11.1218
-9.55034
-8.14073
-6.90358
-5.82324
-4.87598
-4.03773
-3.28683
-2.60458
-1.975
-1.38427
-0.820194
-0.271691
-17.1284
-14.6672
-12.3375
-10.3281
-8.64584
-7.24102
-6.05651
-5.04278
-4.16032
-3.3784
-2.67297
-2.02487
-1.41838
-0.840129
-0.278253
-20.4059
-16.4211
-13.2326
-10.7786
-8.87342
-7.35807
-6.11895
-5.07823
-4.18232
-3.39343
-2.68399
-2.03311
-1.42425
-0.843677
-0.279444
-23.5635
-17.3786
-13.3932
-10.6802
-8.71106
-7.19879
-5.98293
-4.96882
-4.09726
-3.32897
-2.63643
-1.99932
-1.4018
-0.830877
-0.275288
-23.4461
-16.1365
-12.281
-9.8378
-8.09175
-6.74304
-5.64508
-4.71682
-3.90887
-3.18871
-2.53342
-1.92591
-1.35274
-0.802732
-0.266116
-1.65247
-4.99203
-8.43828
-12.0724
-15.9926
-20.326
-25.2477
-31.0132
-38.0209
-46.9362
-58.9704
-76.5675
-105.293
-159.569
-281.338
-1.61632
-4.88063
-8.24231
-11.7746
-15.5645
-19.7222
-24.3938
-29.7833
-36.1871
-44.0497
-54.0441
-67.1195
-84.0938
-102.315
-95.7531
-1.55817
-4.7016
-7.92786
-11.2978
-14.8811
-18.7613
-23.0412
-27.8489
-33.34
-39.6826
-46.9779
-54.9632
-62.0279
-62.2707
-38.6019
-1.48122
-4.46501
-7.51361
-10.6727
-13.9914
-17.5227
-21.322
-25.4397
-29.9015
-34.654
-39.4325
-43.4461
-44.6987
-38.8316
-18.6279
-1.38943
-4.1834
-7.0226
-9.93676
-12.954
-16.0981
-19.3815
-22.7916
-26.2608
-29.607
-32.4181
-33.8463
-32.314
-25.3479
-10.4955
-1.28715
-3.87036
-6.47951
-9.12916
-11.8285
-14.5766
-17.353
-20.1023
-22.7054
-24.9315
-26.3637
-26.3023
-23.7026
-17.3406
-6.62614
-1.17869
-3.53928
-5.90826
-8.28699
-10.6692
-13.0353
-15.3433
-17.5146
-19.4117
-20.8073
-21.3465
-20.5207
-17.7038
-12.3559
-4.51906
-1.06801
-3.20234
-5.33023
-7.44237
-9.52097
-11.5342
-13.4285
-15.1172
-16.4662
-17.2776
-17.277
-16.1217
-13.4625
-9.09956
-3.24616
-0.958477
-2.86987
-4.76311
-6.62101
-8.41808
-10.1158
-11.6564
-12.9555
-13.8941
-14.3119
-14.0092
-12.7672
-10.4042
-6.87825
-2.41696
-0.852808
-2.54999
-4.22049
-5.84186
-7.38418
-8.80636
-10.0519
-11.0442
-11.6836
-11.8465
-11.3935
-10.191
-8.15362
-5.30641
-1.84652
-0.752992
-2.24862
-3.71198
-5.11757
-6.43365
-7.61959
-8.62308
-9.37803
-9.80394
-9.80881
-9.29838
-8.19464
-6.46533
-4.16004
-1.43799
-0.660365
-1.96964
-3.24358
-4.45541
-5.57348
-6.55947
-7.36686
-7.94028
-8.21659
-8.12891
-7.6152
-6.63263
-5.17699
-3.30306
-1.13634
-0.57569
-1.71519
-2.8183
-3.85833
-4.805
-5.62335
-6.27307
-6.70882
-6.88198
-6.7448
-6.25759
-5.39912
-4.17909
-2.64938
-0.908262
-0.499262
-1.486
-2.43682
-3.32607
-4.12561
-4.80429
-5.32785
-5.65968
-5.76283
-5.60373
-5.15778
-4.41667
-3.39624
-2.14251
-0.732547
-0.43102
-1.28173
-2.09809
-2.85608
-3.53012
-4.09293
-4.51575
-4.76931
-4.82578
-4.66184
-4.26291
-3.62816
-2.77539
-1.74412
-0.595112
-0.370644
-1.10131
-1.7999
-2.44437
-3.01187
-3.47878
-3.82116
-4.01578
-4.04177
-3.88312
-3.53178
-2.99103
-2.27847
-1.4275
-0.486294
-0.317643
-0.94316
-1.53928
-2.08609
-2.56345
-2.95108
-3.22918
-3.37934
-3.38596
-3.2382
-2.93216
-2.47319
-1.87766
-1.17353
-0.399266
-0.271423
-0.805425
-1.31288
-1.77605
-2.17732
-2.49942
-2.72602
-2.84255
-2.83735
-2.70317
-2.43872
-2.05019
-1.55226
-0.968257
-0.32909
-0.231344
-0.686124
-1.11722
-1.509
-1.84616
-2.11408
-2.2993
-2.39027
-2.3783
-2.25859
-2.03144
-1.70315
-1.28663
-0.801287
-0.272115
-0.196755
-0.583266
-0.948859
-1.27986
-1.56308
-1.78616
-1.93801
-2.00948
-1.99404
-1.88862
-1.69438
-1.41737
-1.06878
-0.664751
-0.225596
-0.167024
-0.494933
-0.804517
-1.0839
-1.32176
-1.50768
-1.63254
-1.68904
-1.67226
-1.58031
-1.4148
-1.18129
-0.889419
-0.552606
-0.187434
-0.141557
-0.419322
-0.681144
-0.916763
-1.11651
-1.2716
-1.37453
-1.41947
-1.40269
-1.32307
-1.18243
-0.98575
-0.741264
-0.460151
-0.156004
-0.119805
-0.354781
-0.575966
-0.774536
-0.942253
-1.07174
-1.1568
-1.19274
-1.17675
-1.10821
-0.988955
-0.823401
-0.618541
-0.38369
-0.130033
-0.10127
-0.299817
-0.486489
-0.653732
-0.794543
-0.902727
-0.97316
-1.00207
-0.987301
-0.928571
-0.827629
-0.688344
-0.516642
-0.320288
-0.108512
-0.0855077
-0.253096
-0.410503
-0.551279
-0.669487
-0.759927
-0.818356
-0.841724
-0.828376
-0.778236
-0.692926
-0.575796
-0.431859
-0.267594
-0.0906366
-0.072125
-0.213445
-0.346065
-0.464495
-0.563712
-0.639351
-0.687898
-0.706872
-0.694996
-0.652323
-0.580316
-0.481862
-0.361191
-0.223712
-0.0757573
-0.060777
-0.179833
-0.291479
-0.391052
-0.474309
-0.537587
-0.577971
-0.593441
-0.583
-0.546776
-0.486071
-0.403354
-0.302193
-0.187105
-0.0633496
-0.0511632
-0.151367
-0.245275
-0.328939
-0.398776
-0.451719
-0.485344
-0.498
-0.488907
-0.458229
-0.407108
-0.337652
-0.252864
-0.156518
-0.0529853
-0.0430236
-0.127271
-0.206184
-0.276424
-0.334975
-0.379263
-0.407277
-0.417661
-0.4098
-0.383874
-0.340877
-0.282597
-0.21156
-0.130919
-0.0443142
-0.0361336
-0.106879
-0.173116
-0.232027
-0.281075
-0.318108
-0.34145
-0.349989
-0.343237
-0.321374
-0.285256
-0.236399
-0.176923
-0.109463
-0.0370477
-0.0303003
-0.0896176
-0.145134
-0.194477
-0.235519
-0.266458
-0.285901
-0.292934
-0.287167
-0.268771
-0.23848
-0.197574
-0.14783
-0.0914479
-0.0309478
-0.0253582
-0.0749953
-0.121437
-0.162693
-0.196978
-0.222789
-0.23897
-0.244766
-0.239866
-0.224428
-0.199075
-0.164886
-0.123347
-0.0762916
-0.0258167
-0.0211654
-0.0625919
-0.101341
-0.135747
-0.16432
-0.185807
-0.199248
-0.204024
-0.199884
-0.186967
-0.165805
-0.1373
-0.102693
-0.0635098
-0.0214901
-0.0176006
-0.0520473
-0.0842607
-0.112853
-0.136583
-0.154411
-0.165544
-0.169472
-0.165994
-0.155233
-0.137634
-0.113952
-0.085218
-0.0526971
-0.0178305
-0.0145598
-0.0430534
-0.0696948
-0.0933334
-0.112943
-0.127664
-0.136843
-0.140063
-0.137161
-0.128245
-0.113687
-0.0941112
-0.070372
-0.0435131
-0.0147224
-0.0119536
-0.0353457
-0.0572137
-0.0766119
-0.0926971
-0.104765
-0.11228
-0.114904
-0.112505
-0.105175
-0.0932226
-0.0771614
-0.0576922
-0.0356704
-0.0120685
-0.00970501
-0.028696
-0.0464476
-0.0621908
-0.0752408
-0.0850263
-0.0911145
-0.0932309
-0.0912729
-0.0853157
-0.0756111
-0.062578
-0.0467848
-0.0289249
-0.00978596
-0.00774734
-0.022907
-0.0370759
-0.0496395
-0.0600511
-0.067855
-0.0727063
-0.0743874
-0.0728174
-0.0680578
-0.0603108
-0.049911
-0.0373123
-0.0230675
-0.00780409
-0.00602224
-0.017806
-0.0288188
-0.0385825
-0.0466722
-0.0527336
-0.0564995
-0.057801
-0.0565765
-0.0528743
-0.0468523
-0.0387709
-0.0289828
-0.0179173
-0.00606161
-0.00447814
-0.0132404
-0.0214289
-0.028688
-0.0347014
-0.0392062
-0.0420036
-0.0429687
-0.0420559
-0.0393017
-0.0348236
-0.0288157
-0.0215401
-0.0133159
-0.00450485
-0.00306874
-0.00907322
-0.0146843
-0.0196582
-0.0237783
-0.0268642
-0.0287801
-0.0294403
-0.0288138
-0.0269259
-0.0238572
-0.0197408
-0.0147562
-0.00912201
-0.003086
-0.0017517
-0.00517918
-0.0083821
-0.0112213
-0.0135732
-0.0153347
-0.0164284
-0.0168053
-0.0164477
-0.01537
-0.0136184
-0.0112686
-0.00842325
-0.00520711
-0.00176158
-0.000487374
-0.00144106
-0.00233243
-0.00312285
-0.00377793
-0.00426898
-0.00457431
-0.00468019
-0.00458153
-0.00428217
-0.0037948
-0.0031405
-0.0023478
-0.00145149
-0.000491062
0.000762326
0.00225379
0.00364713
0.00488163
0.00590341
0.00666779
0.00714123
0.00730283
0.00714526
0.00667515
0.00591283
0.00489148
0.00365571
0.00225961
0.000764385
0.00203506
0.00601677
0.00973698
0.0130338
0.0157635
0.0178066
0.0190733
0.0195074
0.019089
0.0178353
0.0158003
0.0130723
0.00977052
0.00603954
0.00204312
0.0033692
0.00996131
0.0161208
0.0215797
0.0261002
0.0294844
0.0315834
0.032304
0.0316128
0.029538
0.0261689
0.0216516
0.0161833
0.0100038
0.00338421
0.0048049
0.0142062
0.022991
0.0307773
0.0372258
0.0420544
0.0450506
0.0460808
0.0450971
0.0421394
0.0373346
0.030891
0.02309
0.0142734
0.00482867
0.00638534
0.0188792
0.0305544
0.0409037
0.0494762
0.0558968
0.0598827
0.0612559
0.0599519
0.0560233
0.0496381
0.041073
0.0307018
0.0189793
0.00642073
0.00815797
0.0241206
0.0390384
0.0522638
0.0632207
0.0714297
0.0765288
0.0782897
0.0766291
0.071613
0.0634552
0.052509
0.0392519
0.0242656
0.00820923
0.0101759
0.0300876
0.0486976
0.0651988
0.0788732
0.089122
0.0954927
0.0976992
0.095636
0.0893839
0.0792083
0.0655493
0.0490028
0.0302947
0.0102491
0.0124993
0.0369583
0.0598208
0.0800967
0.096904
0.109507
0.117348
0.120073
0.117551
0.109879
0.0973801
0.0805946
0.0602544
0.0372525
0.0126034
0.0151974
0.0449374
0.07274
0.0974029
0.117854
0.133198
0.142755
0.146091
0.143043
0.133725
0.118528
0.098108
0.073354
0.0453541
0.0153448
0.0183501
0.0542616
0.0878392
0.117633
0.14235
0.160907
0.17248
0.176541
0.172888
0.161652
0.143304
0.11863
0.0887074
0.0548508
0.0185585
0.0220504
0.0652063
0.105565
0.141389
0.171123
0.193466
0.207421
0.212349
0.207997
0.194518
0.17247
0.142797
0.106792
0.0660388
0.0223449
0.0264069
0.0780929
0.126441
0.169372
0.205029
0.231848
0.24863
0.254599
0.249443
0.233334
0.206931
0.171362
0.128173
0.0792686
0.0268227
0.0315463
0.0932974
0.151076
0.202407
0.245072
0.277198
0.297346
0.304574
0.298494
0.279296
0.247757
0.205216
0.153522
0.0949574
0.0321335
0.0376173
0.11126
0.180188
0.24146
0.292431
0.330865
0.355031
0.36379
0.356653
0.333828
0.296223
0.245425
0.183641
0.113604
0.0384463
0.0447935
0.132496
0.214616
0.287664
0.348495
0.394438
0.423416
0.434041
0.425705
0.398621
0.353848
0.293262
0.219491
0.135805
0.0459639
0.053278
0.157609
0.255343
0.34235
0.414895
0.469792
0.504542
0.517459
0.507773
0.475696
0.422452
0.350253
0.262225
0.16228
0.0549305
0.0633077
0.187301
0.303518
0.407077
0.49355
0.559134
0.600826
0.61657
0.605388
0.567469
0.504217
0.418234
0.313234
0.193896
0.0656407
0.0751581
0.222392
0.360481
0.483668
0.586707
0.665065
0.715127
0.734377
0.721566
0.676831
0.601766
0.499419
0.374199
0.231704
0.078452
0.0891485
0.263833
0.427791
0.574249
0.697
0.790643
0.850821
0.874446
0.859909
0.807251
0.718258
0.596484
0.447158
0.27698
0.0937992
0.105647
0.312721
0.507252
0.681289
0.827502
0.939457
1.01189
1.04101
1.02472
0.962899
0.857511
0.712679
0.534595
0.331283
0.112214
0.125077
0.370317
0.600943
0.807647
0.98179
1.11571
1.20305
1.2391
1.22115
1.1488
1.02415
0.851962
0.639549
0.396528
0.13435
0.147918
0.438059
0.711244
0.956613
1.16401
1.3243
1.42981
1.47468
1.45536
1.371
1.2238
1.01918
0.765755
0.475073
0.161014
0.174714
0.517574
0.840857
1.13195
1.37892
1.57094
1.69867
1.75483
1.73472
1.63684
1.46332
1.22027
0.917832
0.569851
0.193212
0.206069
0.61068
0.992823
1.33791
1.632
1.86221
2.01723
2.08792
2.06808
1.95519
1.75111
1.46261
1.10153
0.684526
0.232202
0.24265
0.719387
1.17052
1.57927
1.92942
2.20569
2.39434
2.48388
2.46606
2.33686
2.09752
1.75533
1.32406
0.823725
0.279581
0.285176
0.845872
1.37764
1.86133
2.27814
2.61002
2.84025
2.95437
2.94137
2.79501
2.51533
2.1099
1.59455
0.993342
0.337386
0.334405
0.992445
1.61813
2.18981
2.68583
3.08492
3.36677
3.51314
3.50926
3.34572
3.02047
2.54079
1.92466
1.20097
0.408258
0.391112
1.16148
1.89613
2.57081
3.16083
3.64121
3.98737
4.17622
4.18802
4.00871
3.63282
3.06644
2.32945
1.45652
0.495657
0.456051
1.35531
2.21576
3.01061
3.71194
4.2907
4.71718
4.96225
4.99947
4.80818
4.37746
3.71053
2.82864
1.77312
0.604201
0.529905
1.57609
2.58092
3.51532
4.34816
5.04591
5.57293
5.89258
5.96958
5.77389
5.28609
4.50388
3.44839
2.16847
0.740158
0.61322
1.82558
2.99499
4.09055
5.07816
5.91966
6.57267
6.99138
7.12902
6.94243
6.39917
5.48696
4.22398
2.66687
0.912223
0.706312
2.10488
3.46031
4.74072
5.90959
6.92428
7.73508
8.28533
8.51359
8.35861
7.76841
6.71362
5.20381
3.30241
1.13276
0.809164
2.41412
3.97773
5.46833
6.84806
8.07046
9.07837
9.80285
10.1643
10.077
9.46024
8.25623
6.45555
4.12424
1.41986
0.921298
2.75206
4.54582
6.27289
7.89576
9.36555
10.6184
11.5725
12.1264
12.163
11.5599
10.2131
8.07576
5.20511
1.80094
1.04165
3.11567
5.1602
7.14978
9.0497
10.8112
12.366
13.6198
14.4479
14.6932
14.1758
12.7191
10.2051
6.65647
2.31929
1.16843
3.49976
5.81271
8.08889
10.2997
12.4005
14.3224
15.9628
17.1738
17.7531
17.4439
15.9592
13.0531
8.65537
3.04696
1.29905
3.89658
6.49073
9.07334
11.6261
14.1138
16.4742
18.6039
20.3385
21.43
21.5281
20.1862
16.9368
11.495
4.11175
1.43006
4.29574
7.17673
10.0785
12.9976
15.9155
18.7862
21.5192
23.9495
25.7968
26.6123
25.7379
22.3428
15.6829
5.76003
1.55722
4.68423
7.84829
11.0714
14.3701
17.7497
21.1939
24.6445
27.9654
30.8799
32.8699
33.0399
30.0161
22.1366
8.51745
1.67563
5.04699
8.4788
12.0118
15.6862
19.5391
23.5971
27.8597
32.2633
36.605
40.3912
42.5596
41.0612
32.5759
13.6469
1.78008
5.36772
9.03902
12.8539
16.8783
21.1859
25.858
30.977
36.6041
42.7156
49.0359
54.6255
56.9581
50.2676
24.5852
1.86545
5.63034
9.4995
13.5504
17.8736
22.5795
27.8085
33.7413
40.6082
48.6811
58.1878
68.9528
79.1206
81.148
51.8345
1.9272
5.82051
9.83372
14.0579
18.6029
23.6099
29.2702
35.8567
43.7748
53.6505
66.4657
83.6945
106.936
133.792
130.719
1.96192
5.9274
10.0214
14.3425
19.0113
24.1863
30.0887
37.0471
45.5818
56.5783
71.6782
94.2604
132.239
207.221
389.024
1.96773
5.945
10.0513
14.3854
19.0682
24.2576
30.1738
37.1427
45.6789
56.6563
71.6941
94.1339
131.846
206.466
388.232
1.94451
5.87298
9.92294
14.1863
18.7732
23.8241
29.5277
36.1497
44.0805
53.9142
66.5692
83.4011
105.821
131.304
127.218
1.89387
5.71656
9.64636
13.7623
18.1559
22.9372
28.2437
34.2476
41.1605
49.2126
58.5435
68.7872
77.6696
76.6739
40.0577
-14.8609
-12.1206
-10.0642
-8.47053
-7.18455
-6.11125
-5.19076
-4.38342
-3.66158
-3.00505
-2.39844
-1.82951
-1.28813
-0.76558
-0.253992
-5.57585
-7.73176
-7.63911
-6.97372
-6.18952
-5.41626
-4.68913
-4.0137
-3.38602
-2.79939
-2.24656
-1.72056
-1.21486
-0.723335
-0.240188
-2.53788
-4.90439
-5.61169
-5.55935
-5.18685
-4.6892
-4.15157
-3.61077
-3.08195
-2.57023
-2.07603
-1.5975
-1.13173
-0.675268
-0.224459
-1.38131
-3.22923
-4.11175
-4.36729
-4.27105
-3.98987
-3.61617
-3.19951
-2.76597
-2.32888
-1.8946
-1.46558
-1.04212
-0.623272
-0.207413
-0.859941
-2.22445
-3.04717
-3.41948
-3.48364
-3.35475
-3.11058
-2.79994
-2.45243
-2.08557
-1.70949
-1.32979
-0.949302
-0.569193
-0.18965
-0.585352
-1.5959
-2.29536
-2.68563
-2.83028
-2.79967
-2.65111
-2.42595
-2.1523
-1.84865
-1.52689
-1.19454
-0.856212
-0.514717
-0.171718
-0.421975
-1.18338
-1.75826
-2.12232
-2.29859
-2.32648
-2.24483
-2.08562
-1.87299
-1.62428
-1.35164
-1.06341
-0.76532
-0.46128
-0.154088
-0.315918
-0.900371
-1.36755
-1.68941
-1.86994
-1.92933
-1.89238
-1.78238
-1.61872
-1.41653
-1.1872
-0.93914
-0.678549
-0.410028
-0.13714
-0.242765
-0.698802
-1.07773
-1.35464
-1.5254
-1.59906
-1.59065
-1.5164
-1.3912
-1.22761
-1.03574
-0.823564
-0.59728
-0.361804
-0.121157
-0.19009
-0.550778
-0.858737
-1.09358
-1.24829
-1.32576
-1.33462
-1.28579
-1.19033
-1.05831
-0.898393
-0.717774
-0.522389
-0.31717
-0.106332
-0.150948
-0.439369
-0.690512
-0.888169
-1.0248
-1.10011
-1.11864
-1.08754
-1.01483
-0.908384
-0.77541
-0.622233
-0.454324
-0.276434
-0.0927737
-0.121164
-0.353843
-0.559424
-0.725126
-0.843888
-0.913869
-0.937133
-0.918185
-0.862745
-0.776874
-0.666451
-0.536916
-0.393188
-0.239704
-0.080525
-0.0980779
-0.287133
-0.456026