/*--------------------------------*- C++ -*----------------------------------*\
| =========                 |                                                 |
| \\      /  F ield         | OpenFOAM: The Open Source CFD Toolbox           |
|  \\    /   O peration     | Version:  5.x                                   |
|   \\  /    A nd           | Web:      www.OpenFOAM.org                      |
|    \\/     M anipulation  |                                                 |
\*---------------------------------------------------------------------------*/
FoamFile
{
    version     2.0;
    format      ascii;
    class       volScalarField;
    location    "17";
    object      gradTx;
}
// * * * * * * * * * * * * * * * * * * * * * * * * * * * * * * * * * * * * * //

dimensions      [0 -1 0 1 0 0 0];

internalField   nonuniform List<scalar> 
6300
(
-7.27462
-7.03077
-6.54616
-5.82735
-4.88488
-3.73417
-2.39646
-0.899711
0.720609
2.42142
4.15263
5.85887
7.48244
8.96725
10.2634
-7.51884
-7.27188
-6.78075
-6.05138
-5.0935
-3.92157
-2.55587
-1.02369
0.639714
2.3906
4.17717
5.94112
7.62076
9.15546
10.491
-8.01038
-7.75751
-7.25391
-6.50427
-5.51654
-4.30311
-2.88215
-1.27927
0.470924
2.3237
4.2239
6.10724
7.90359
9.54243
10.96
-8.75516
-8.49423
-7.97349
-7.19561
-6.16567
-4.89256
-3.39074
-1.68259
0.199142
2.20894
4.28706
6.35991
8.34343
10.1501
11.6994
-9.76121
-9.49111
-8.95057
-8.13936
-7.05835
-5.71108
-4.10605
-2.25987
-0.201115
2.02543
4.35506
6.7015
8.95969
11.0148
12.758
-11.0377
-10.7588
-10.1987
-9.35327
-8.21767
-6.78774
-5.0629
-3.05013
-0.769576
1.73843
4.4058
7.1309
9.77858
12.1909
14.2116
-12.5935
-12.308
-11.7324
-10.8577
-9.67166
-8.15967
-6.30806
-4.10858
-1.56589
1.29165
4.39837
7.63727
10.8324
13.7582
16.177
-14.4351
-14.1477
-13.5654
-12.674
-11.4519
-9.87159
-7.90146
-5.51062
-2.67748
0.595297
4.25836
8.18698
12.155
15.8322
18.8361
-16.5646
-16.2824
-15.7081
-14.8213
-13.5908
-11.9736
-9.91595
-7.35533
-4.2291
-0.491749
3.85236
8.69686
13.768
18.5791
22.4821
-18.9765
-18.7095
-18.1634
-17.3126
-16.1165
-14.5166
-12.4337
-9.76602
-6.39224
-2.18594
2.94557
8.9797
15.6404
22.2337
27.6128
-21.6556
-21.4162
-20.9238
-20.1496
-19.0464
-17.543
-15.5366
-12.8831
-9.38825
-4.80574
1.13574
8.63548
17.5799
27.1017
35.1352
-24.5745
-24.3762
-23.9662
-23.3159
-22.3768
-21.0727
-19.2868
-16.8421
-13.4722
-8.78489
-2.23276
6.84615
18.9413
33.4575
46.8659
-27.692
-27.548
-27.2492
-26.7713
-26.0725
-25.0844
-23.6961
-21.7264
-18.874
-14.6292
-8.12846
2.04004
17.8811
40.9202
66.9259
-30.9537
-30.8751
-30.7114
-30.4478
-30.0578
-29.4965
-28.687
-27.4938
-25.6684
-22.7298
-17.6923
-8.43921
9.62227
45.4154
106.286
-34.2941
-34.2876
-34.2738
-34.2508
-34.2147
-34.1572
-34.0618
-33.8935
-33.5763
-32.9294
-31.4723
-27.7273
-16.3689
24.832
200.297
11.2611
11.9755
12.5066
12.8538
13.0229
13.0248
12.8739
12.5869
12.1814
11.6747
11.0831
10.4217
9.7035
8.9401
8.14128
7.31531
6.46917
5.60873
4.7389
3.86384
2.98705
2.11152
1.23978
0.373983
-0.484056
-1.33282
-2.17107
-2.99784
-3.81243
-4.61435
-5.40339
-6.17952
-6.94286
-7.69366
-8.4322
-9.15876
-9.87351
-10.5765
-11.2677
-11.9468
-12.6134
-13.2672
-13.9078
-14.5349
-15.1485
-15.7486
-16.3357
-16.9102
-17.4729
-18.0243
-18.5652
-19.0957
-19.6161
-20.1259
-20.6246
-21.111
-21.584
-22.0422
-22.4842
-22.9086
-23.3145
-23.7007
-24.0664
-24.4108
-24.7327
-25.0308
-25.3034
-25.5478
-25.7609
-25.9389
-26.0774
-26.1715
-26.2163
-26.2067
-26.1384
-26.0074
-25.8107
-25.5465
-25.2139
-24.8133
-24.3463
-23.8157
-23.2254
-22.5806
-21.8876
-21.1537
-20.3874
-19.5979
-18.7952
-17.9894
11.5135
12.239
12.7709
13.1098
13.2634
13.2443
13.0694
12.7572
12.3267
11.7965
11.1835
10.503
9.76834
8.99085
8.1801
7.3441
6.48955
5.62203
4.74624
3.86614
2.98508
2.10591
1.23109
0.362687
-0.49752
-1.34805
-2.18768
-3.01546
-3.8307
-4.63294
-5.42201
-6.19793
-6.96091
-7.71129
-8.44944
-9.17571
-9.89037
-10.5935
-11.285
-11.9646
-12.6318
-13.2861
-13.9271
-14.5543
-15.1677
-15.7673
-16.3536
-16.9271
-17.4888
-18.0394
-18.5797
-19.1102
-19.631
-20.1418
-20.6419
-21.1301
-21.6051
-22.0653
-22.5091
-22.9352
-23.3425
-23.73
-24.097
-24.4428
-24.7667
-25.0675
-25.3435
-25.5925
-25.8112
-25.9956
-26.141
-26.2424
-26.2941
-26.2911
-26.2283
-26.1016
-25.9077
-25.6447
-25.3115
-24.9086
-24.4376
-23.9013
-23.3037
-22.6498
-21.9462
-21.2002
-20.4205
-19.6168
-18.7994
-17.979
12.0335
12.7807
13.3127
13.6325
13.7518
13.688
13.4623
13.0974
12.6154
12.0371
11.3807
10.6621
9.89457
9.08922
8.25502
7.39938
6.52837
5.64704
4.7596
3.86964
2.9802
2.09391
1.21301
0.339476
-0.525025
-1.37906
-2.22143
-3.05121
-3.86771
-4.67055
-5.45959
-6.23499
-6.99712
-7.74651
-8.48374
-9.20936
-9.92379
-10.6272
-11.3194
-12.0001
-12.6686
-13.3242
-13.966
-14.5936
-15.2066
-15.8051
-16.3896
-16.9611
-17.5205
-18.0692
-18.6083
-19.1385
-19.6602
-20.173
-20.6761
-21.1681
-21.6473
-22.1116
-22.5593
-22.9887
-23.3987
-23.7885
-24.1577
-24.5061
-24.8336
-25.1394
-25.4225
-25.6806
-25.9105
-26.108
-26.2679
-26.3842
-26.4507
-26.4612
-26.4099
-26.2922
-26.1041
-25.8435
-25.5092
-25.1018
-24.6227
-24.075
-23.4625
-22.7905
-22.0654
-21.2949
-20.488
-19.6551
-18.8076
-17.9573
12.853
13.6319
14.1594
14.4437
14.5034
14.3643
14.0554
13.6058
13.0426
12.3896
11.6671
10.8912
10.0751
9.22884
8.36056
7.47653
6.58182
5.68061
4.7764
3.87221
2.97064
2.07397
1.18421
0.303128
-0.567711
-1.42694
-2.27339
-3.10613
-3.92447
-4.72804
-5.51684
-6.29117
-7.05168
-7.7992
-8.53471
-9.2591
-9.97304
-10.6769
-11.3704
-12.0531
-12.724
-13.3818
-14.0254
-14.6537
-15.2662
-15.8628
-16.4444
-17.012
-17.5675
-18.1127
-18.6494
-19.1789
-19.7018
-20.2179
-20.7261
-21.2245
-21.7106
-22.1817
-22.6356
-23.07
-23.4838
-23.8764
-24.248
-24.5994
-24.9313
-25.244
-25.5371
-25.8089
-26.0562
-26.2744
-26.4572
-26.5975
-26.6876
-26.7198
-26.6871
-26.5836
-26.4048
-26.148
-25.8121
-25.3977
-24.9064
-24.3415
-23.7068
-23.0075
-22.2498
-21.4417
-20.5928
-19.7143
-18.8194
-17.922
14.026
14.8446
15.3561
15.5777
15.5408
15.2847
14.8506
14.2773
13.5985
12.8422
12.0299
11.178
10.2985
9.39996
8.48852
7.56881
6.64441
5.71828
4.79299
3.87082
2.95385
2.04393
1.14277
0.251914
-0.62722
-1.49331
-2.34519
-3.18183
-4.00252
-4.80686
-5.59493
-6.36728
-7.12491
-7.86919
-8.60167
-9.32383
-10.0368
-10.7412
-11.437
-12.1231
-12.7981
-13.4599
-14.1066
-14.7365
-15.3484
-15.9422
-16.5189
-17.0803
-17.6291
-18.1683
-18.7007
-19.2285
-19.753
-20.274
-20.79
-21.2982
-21.795
-22.2766
-22.7395
-23.1807
-23.599
-23.9942
-24.3673
-24.7205
-25.0563
-25.3764
-25.682
-25.9721
-26.2437
-26.4913
-26.7074
-26.8828
-27.0076
-27.0717
-27.066
-26.9831
-26.8175
-26.5661
-26.2279
-25.8038
-25.2961
-24.7081
-24.0438
-23.3081
-22.5067
-21.6472
-20.7397
-19.797
-18.8345
-17.8697
15.637
16.499
16.9697
17.0834
16.8935
16.4611
15.8459
15.1002
14.2659
13.3748
12.4494
11.5044
10.5492
9.58934
8.62813
7.6676
6.70926
5.75454
4.80488
3.86178
2.92673
2.00115
1.08637
0.183696
-0.705609
-1.58026
-2.43898
-3.28059
-4.10415
-4.90915
-5.69569
-6.46457
-7.21735
-7.95616
-8.68347
-9.40171
-10.1129
-10.8181
-11.5172
-12.209
-12.8909
-13.5597
-14.212
-14.8449
-15.4565
-16.0462
-16.6153
-17.1667
-17.7045
-18.2335
-18.7583
-19.2828
-19.809
-20.3372
-20.8649
-21.3881
-21.9012
-22.3984
-22.8741
-23.3244
-23.7473
-24.1433
-24.515
-24.8667
-25.2033
-25.5297
-25.8489
-26.1617
-26.4653
-26.7532
-27.0158
-27.2408
-27.4146
-27.5237
-27.5558
-27.5013
-27.3534
-27.1088
-26.767
-26.33
-25.8011
-25.1843
-24.4836
-23.7029
-22.8468
-21.9216
-20.9371
-19.9077
-18.8528
-17.7952
17.8164
18.7163
19.0972
19.0259
18.5948
17.9003
17.0289
16.0501
15.0147
13.9567
12.8967
11.8451
10.8062
9.78041
8.76653
7.76299
6.7687
5.7833
4.80713
3.84098
2.88582
1.94265
1.01242
0.0961105
-0.805202
-1.69023
-2.55748
-3.40538
-4.23255
-5.03806
-5.82188
-6.58507
-7.3299
-8.05967
-8.77829
-9.48976
-10.1975
-10.9035
-11.6081
-12.309
-13.0025
-13.6831
-14.3453
-14.9841
-15.5958
-16.1796
-16.737
-17.2724
-17.7924
-18.3044
-18.8163
-19.3342
-19.8622
-20.4006
-20.9461
-21.4923
-22.0302
-22.5507
-23.0451
-23.5072
-23.9342
-24.3273
-24.6913
-25.0341
-25.3649
-25.6929
-26.0249
-26.3644
-26.7091
-27.0514
-27.3781
-27.6721
-27.9144
-28.0861
-28.1702
-28.1537
-28.0284
-27.7911
-27.4429
-26.9882
-26.4324
-25.7811
-25.0382
-24.2062
-23.2862
-22.2811
-21.1988
-20.0551
-18.8749
-17.6903
20.7692
21.6804
21.8753
21.4864
20.6751
19.594
18.3663
17.0811
15.7956
14.5413
13.3314
12.1673
11.044
9.95408
8.88978
7.84485
6.81512
5.79858
4.79478
3.80418
2.8275
1.86539
0.918324
-0.0131824
-0.928344
-1.82587
-2.70389
-3.56011
-4.39216
-5.19824
-5.97778
-6.732
-7.46415
-8.17921
-8.88337
-9.58316
-10.2844
-10.9911
-11.7039
-12.4199
-13.1324
-13.833
-14.5123
-15.1618
-15.7755
-16.3508
-16.8902
-17.4003
-17.8914
-18.3756
-18.8653
-19.3711
-19.9001
-20.4536
-21.0264
-21.6079
-22.1842
-22.7403
-23.2623
-23.7403
-24.1698
-24.5528
-24.8979
-25.2185
-25.5304
-25.8498
-26.1901
-26.5591
-26.9563
-27.3718
-27.7871
-28.1775
-28.5157
-28.7743
-28.9293
-28.9626
-28.8643
-28.6326
-28.2721
-27.7916
-27.2011
-26.5093
-25.7211
-24.8357
-23.8477
-22.7516
-21.5489
-20.2548
-18.9032
-17.5429
24.8294
25.6755
25.4937
24.5545
23.1439
21.4984
19.7862
18.1122
16.5312
15.0617
13.6998
12.4303
11.2336
10.0906
8.98492
7.90459
6.84236
5.79532
4.76326
3.74719
2.74808
1.76633
0.801713
-0.146108
-1.07696
-1.98967
-2.88177
-3.74967
-4.58921
-5.39668
-6.17014
-6.91072
-7.62298
-8.31444
-8.9947
-9.67436
-10.3636
-11.0698
-11.7953
-12.5354
-13.2795
-14.0134
-14.7221
-15.3912
-16.01
-16.5738
-17.0854
-17.5555
-18.0002
-18.4387
-18.8908
-19.3746
-19.9026
-20.4785
-21.0938
-21.731
-22.3673
-22.9785
-23.5427
-24.0431
-24.4719
-24.8327
-25.1396
-25.415
-25.6849
-25.9765
-26.3136
-26.7127
-27.1769
-27.6924
-28.2315
-28.758
-29.2313
-29.6115
-29.8632
-29.9607
-29.8922
-29.6593
-29.2739
-28.7531
-28.1153
-27.3761
-26.5437
-25.6129
-24.5647
-23.3755
-22.0302
-20.537
-18.9437
-17.3323
30.572
31.1504
30.2022
28.3009
25.9503
23.4984
21.1509
19.0093
17.1059
15.4268
13.9351
12.5881
11.3456
10.173
9.04337
7.93802
6.84754
5.77028
4.70855
3.66562
2.64353
1.64246
0.660815
-0.303554
-1.2518
-2.18322
-3.09454
-3.98012
-4.83248
-5.6441
-6.40986
-7.13021
-7.81174
-8.46577
-9.10687
-9.7518
-10.4181
-11.1206
-11.8656
-12.6451
-13.441
-14.2303
-14.9886
-15.6927
-16.3237
-16.8716
-17.3403
-17.7472
-18.1178
-18.4819
-18.8706
-19.314
-19.8362
-20.4463
-21.1294
-21.8551
-22.5861
-23.2844
-23.9146
-24.4487
-24.8719
-25.1897
-25.4266
-25.619
-25.8081
-26.0372
-26.3477
-26.7725
-27.3232
-27.9785
-28.6941
-29.4146
-30.0808
-30.6333
-31.0187
-31.1977
-31.1563
-30.9054
-30.4704
-29.8828
-29.175
-28.377
-27.5076
-26.5588
-25.4845
-24.2241
-22.7241
-20.9633
-19.0102
-17.0202
39.0653
38.8232
36.2826
32.6936
28.9016
25.3478
22.2185
19.5629
17.3575
15.5216
13.9616
12.5953
11.3565
10.1934
9.06656
7.94981
6.83343
5.72267
4.62657
3.55386
2.50854
1.49051
0.494917
-0.484311
-1.45096
-2.40577
-3.34442
-4.25847
-5.13445
-5.95756
-6.71499
-7.40559
-8.04008
-8.6357
-9.21348
-9.79844
-10.4203
-11.1102
-11.8863
-12.7311
-13.6119
-14.4915
-15.3332
-16.0994
-16.757
-17.2834
-17.6841
-17.9907
-18.2445
-18.4896
-18.7714
-19.1396
-19.6432
-20.3087
-21.1035
-21.9714
-22.8519
-23.6882
-24.4248
-25.0136
-25.4235
-25.6627
-25.7776
-25.8272
-25.8736
-25.9805
-26.2168
-26.6506
-27.3188
-28.1774
-29.1491
-30.149
-31.0937
-31.8957
-32.4709
-32.7516
-32.7217
-32.4163
-31.8864
-31.1851
-30.3644
-29.4805
-28.5855
-27.6852
-26.6718
-25.4172
-23.7934
-21.666
-19.1298
-16.5261
52.4959
49.805
43.8722
37.3782
31.509
26.5849
22.6034
19.4678
17.0768
15.2187
13.709
12.4187
11.258
10.1613
9.07495
7.96083
6.81098
5.65373
4.51071
3.40247
2.33406
1.30612
0.30532
-0.683287
-1.66727
-2.65168
-3.6298
-4.59166
-5.5126
-6.36562
-7.11636
-7.76175
-8.32437
-8.83127
-9.30972
-9.7919
-10.3245
-10.9755
-11.8079
-12.7651
-13.7846
-14.8071
-15.7862
-16.6625
-17.3787
-17.8763
-18.1631
-18.3101
-18.3837
-18.4442
-18.5475
-18.77
-19.2169
-19.9847
-20.9721
-22.0692
-23.181
-24.2352
-25.1473
-25.836
-26.2206
-26.3146
-26.2225
-26.0396
-25.8518
-25.7369
-25.8014
-26.1908
-27.04
-28.2132
-29.5632
-30.9627
-32.3116
-33.4841
-34.3471
-34.7521
-34.6837
-34.25
-33.5489
-32.6591
-31.6443
-30.5995
-29.6706
-28.9743
-28.2061
-27.1418
-25.5877
-22.9572
-19.346
-15.6568
75.8944
65.4541
52.2696
41.1635
32.7554
26.4644
21.77
18.3002
16.0282
14.414
13.14
12.0554
11.0673
10.1138
9.12316
8.02309
6.79901
5.56412
4.34465
3.19363
2.10123
1.08253
0.0980996
-0.888984
-1.88303
-2.90668
-3.93863
-4.98381
-5.98858
-6.92095
-7.66942
-8.2371
-8.68887
-9.06779
-9.40054
-9.71274
-10.058
-10.5796
-11.5495
-12.7095
-13.9526
-15.1853
-16.3871
-17.4558
-18.3153
-18.7724
-18.8433
-18.7351
-18.5417
-18.337
-18.1518
-18.077
-18.3281
-19.3445
-20.6823
-22.1459
-23.5926
-24.9869
-26.1912
-27.096
-27.4358
-27.2341
-26.7978
-26.2589
-25.7247
-25.2347
-24.9178
-25.0686
-26.2945
-27.9939
-29.9059
-31.8487
-33.7834
-35.5178
-36.8825
-37.4339
-37.1712
-36.4687
-35.4827
-34.3129
-32.9671
-31.5511
-30.4207
-30.3665
-30.1666
-29.5712
-28.9316
-25.6605
-19.6745
-13.8991
122.372
85.0539
57.6726
41.0626
30.9527
24.0441
19.1727
15.4076
14.0321
13.1192
12.298
11.5526
10.8265
10.1196
9.32866
8.26366
6.80234
5.45211
4.0798
2.90018
1.7621
0.80949
-0.105418
-1.08475
-2.05623
-3.14978
-4.22846
-5.43416
-6.56886
-7.74111
-8.48281
-8.87933
-9.15823
-9.37075
-9.52092
-9.58583
-9.53765
-9.53819
-11.0172
-12.5342
-14.1352
-15.608
-17.1795
-18.5502
-19.8312
-20.2243
-19.7811
-19.2828
-18.7155
-18.2016
-17.5971
-16.9146
-16.3372
-18.2412
-20.2113
-22.2466
-24.0793
-26.0119
-27.666
-29.1695
-29.4305
-28.4911
-27.5204
-26.4711
-25.5335
-24.4831
-23.3606
-22.3979
-24.8667
-27.4683
-30.2038
-32.7461
-35.5433
-38.0835
-40.5887
-41.2876
-40.2916
-39.0951
-37.6806
-36.2195
-34.3907
-32.0912
-29.6206
-31.9683
-32.696
-32.0641
-36.0646
-32.2731
-19.6991
-9.81497
230.05
90.3439
47.5642
31.6011
24.5398
18.6898
14.9818
9.07376
11.3695
11.6919
11.3467
11.0217
10.5578
10.2462
9.92853
9.07471
6.6455
5.37172
3.53732
2.5468
1.15576
0.482072
-0.216239
-1.29188
-2.05373
-3.41434
-4.33542
-5.98679
-7.09508
-9.18125
-9.79323
-9.69092
-9.72316
-9.76344
-9.764
-9.62174
-8.94702
-6.36761
-10.4303
-12.2378
-14.5024
-15.8885
-18.261
-19.7735
-22.6253
-22.8805
-20.7979
-19.9295
-18.8125
-18.1964
-17.1543
-15.6007
-10.7727
-17.0426
-19.6461
-22.6388
-24.422
-27.4377
-29.3574
-33.0319
-33.1533
-29.7931
-28.356
-26.5221
-25.5046
-23.8349
-21.5729
-14.7856
-23.2476
-26.7494
-30.7797
-33.2759
-37.6729
-40.6992
-46.8956
-47.5815
-43.7004
-42.0348
-39.9455
-38.6554
-36.4915
-32.8776
-21.8816
-35.9024
-37.183
-27.886
-54.4177
-51.5321
-15.8503
0.490102
-17.1121
-16.179
-15.2859
-14.4452
-13.6665
-12.9564
-12.3191
-11.7565
-11.2688
-10.8555
-10.5148
-10.2452
-10.0448
-9.91206
-9.84599
-17.0866
-16.1387
-15.2333
-14.3831
-13.5978
-12.8836
-12.2442
-11.6813
-11.1945
-10.7826
-10.4437
-10.1759
-9.97693
-9.84531
-9.77981
-17.0338
-16.0556
-15.1252
-14.2561
-13.4576
-12.7356
-12.0929
-11.5298
-11.0451
-10.6366
-10.3016
-10.0374
-9.84168
-9.71233
-9.64802
-16.9498
-15.9244
-14.9558
-14.0582
-13.2409
-12.5083
-11.8618
-11.2998
-10.8194
-10.4169
-10.0885
-9.83051
-9.6399
-9.51422
-9.45181
-16.828
-15.7363
-14.7152
-13.78
-12.9391
-12.1949
-11.546
-10.9881
-10.5156
-10.123
-9.80478
-9.55611
-9.37309
-9.25274
-9.19307
-16.6582
-15.4776
-14.3885
-13.4072
-12.5403
-11.7862
-11.1391
-10.5906
-10.132
-9.75468
-9.4514
-9.21596
-9.04351
-8.93049
-8.87455
-16.4247
-15.1273
-13.9536
-12.9201
-12.0285
-11.2705
-10.6334
-10.1033
-9.66677
-9.31223
-9.03007
-8.81271
-8.6544
-8.55104
-8.5
-16.1023
-14.653
-13.3783
-12.2911
-11.3828
-10.6336
-10.0207
-9.52225
-9.11949
-8.79728
-8.54384
-8.35031
-8.21025
-8.11918
-8.07432
-15.6493
-14.004
-12.6154
-11.4831
-10.5778
-9.86041
-9.29345
-8.84539
-8.49156
-8.21346
-7.99761
-7.83436
-7.717
-7.64102
-7.60369
-14.9921
-13.098
-11.596
-10.4481
-9.58476
-8.93665
-8.44718
-8.07419
-7.78779
-7.56731
-7.39868
-7.27243
-7.18227
-7.12414
-7.09564
-13.9922
-11.7998
-10.2223
-9.12851
-8.37638
-7.85415
-7.48433
-7.21633
-7.01801
-6.86921
-6.75728
-6.67433
-6.61542
-6.57755
-6.55901
-12.3727
-9.88658
-8.36483
-7.46708
-6.938
-6.61916
-6.41958
-6.28869
-6.19864
-6.13415
-6.08685
-6.05211
-6.02746
-6.01156
-6.00375
-9.55238
-7.00891
-5.88326
-5.4369
-5.28931
-5.26483
-5.28609
-5.32013
-5.35363
-5.38186
-5.40376
-5.41974
-5.43068
-5.43742
-5.44062
-4.28347
-2.71332
-2.72233
-3.10788
-3.51746
-3.86469
-4.13975
-4.35206
-4.51383
-4.63583
-4.72653
-4.79237
-4.83802
-4.86676
-4.88063
6.09226
3.16147
0.815174
-0.754806
-1.80792
-2.53669
-3.05612
-3.43446
-3.71377
-3.92103
-4.07412
-4.18511
-4.26223
-4.31091
-4.33446
-37.3624
-37.4226
-37.5479
-37.7492
-38.0449
-38.4645
-39.0556
-39.8968
-41.1277
-43.022
-46.2015
-52.3872
-67.55
-117.112
-327.056
-40.1102
-40.2274
-40.4717
-40.8641
-41.4409
-42.2614
-43.4218
-45.0837
-47.5319
-51.3049
-57.5041
-68.5714
-90.1897
-134.776
-216.241
-42.7766
-42.9442
-43.2928
-43.851
-44.6679
-45.8222
-47.4399
-49.7245
-53.0163
-57.9029
-65.4263
-77.4286
-96.8795
-126.828
-161.999
-45.3266
-45.5355
-45.9685
-46.6584
-47.6605
-49.0615
-50.9948
-53.666
-57.3934
-62.6698
-70.2379
-81.113
-96.2793
-115.254
-132.181
-47.7318
-47.9712
-48.4659
-49.2492
-50.3762
-51.931
-54.0374
-56.8741
-60.6949
-65.8454
-72.753
-81.8172
-93.0341
-105.103
-114.116
-49.9707
-50.2298
-50.763
-51.6013
-52.7949
-54.4177
-56.5727
-59.3987
-63.0729
-67.8009
-73.7706
-81.0263
-89.1973
-97.0721
-102.311
-52.0297
-52.2982
-52.8483
-53.7067
-54.9157
-56.5348
-58.6422
-61.3344
-64.7192
-68.894
-73.8953
-79.5995
-85.566
-90.8722
-94.1439
-53.9023
-54.1711
-54.7194
-55.5687
-56.7518
-58.3128
-60.3055
-62.7891
-65.8168
-69.4132
-73.5318
-77.9907
-82.3933
-86.0849
-88.2486
-55.5883
-55.85
-56.3816
-57.199
-58.3256
-59.7911
-61.628
-63.8659
-66.5196
-69.5696
-72.932
-76.4208
-79.7142
-82.3586
-83.8558
-57.0926
-57.3417
-57.8454
-58.6145
-59.6641
-61.0114
-62.672
-64.6539
-66.9471
-69.509
-72.2445
-74.9866
-77.4858
-79.4288
-80.5026
-58.424
-58.6565
-59.1248
-59.8354
-60.796
-62.0141
-63.4929
-65.2256
-67.1882
-69.3279
-71.5525
-73.7209
-75.6437
-77.1027
-77.895
-59.5939
-59.8075
-60.2362
-60.8826
-61.7492
-62.8359
-64.1373
-65.6379
-67.3061
-69.0877
-70.8994
-72.6257
-74.1237
-75.2394
-75.8376
-60.6156
-60.8091
-61.1963
-61.777
-62.5494
-63.5086
-64.6435
-65.9338
-67.3453
-68.8267
-70.3056
-71.689
-72.8691
-73.7354
-74.1955
-61.503
-61.6763
-62.0221
-62.5382
-63.22
-64.0593
-65.0419
-66.1453
-67.3361
-68.5674
-69.778
-70.8936
-71.8322
-72.5137
-72.8728
-62.27
-62.4238
-62.7297
-63.1843
-63.7813
-64.5105
-65.3564
-66.2962
-67.2987
-68.3225
-69.3163
-70.2211
-70.9739
-71.5157
-71.7996
-62.9303
-63.0656
-63.3341
-63.7315
-64.2507
-64.8807
-65.6055
-66.4037
-67.2466
-68.0983
-68.9166
-69.654
-70.2622
-70.6968
-70.9235
-63.4966
-63.6148
-63.8489
-64.1943
-64.6433
-65.1849
-65.8039
-66.4801
-67.1882
-67.8975
-68.5729
-69.1767
-69.671
-70.0222
-70.2048
-63.981
-64.0836
-64.2865
-64.585
-64.9715
-65.4354
-65.9624
-66.5343
-67.1289
-67.7202
-68.2791
-68.7753
-69.1791
-69.4648
-69.6128
-64.394
-64.4827
-64.6578
-64.9146
-65.2461
-65.6421
-66.0898
-66.5729
-67.072
-67.5653
-68.0288
-68.4379
-68.7694
-69.0029
-69.1237
-64.7455
-64.8218
-64.9722
-65.1925
-65.4758
-65.813
-66.1926
-66.6002
-67.0192
-67.4311
-67.8162
-68.1546
-68.4276
-68.6194
-68.7183
-65.044
-65.1094
-65.2383
-65.4265
-65.668
-65.9546
-66.2759
-66.6195
-66.9713
-67.3156
-67.6361
-67.9166
-68.1422
-68.3003
-68.3817
-65.2971
-65.3531
-65.4631
-65.6235
-65.8289
-66.072
-66.3437
-66.6333
-66.9286
-67.2166
-67.4837
-67.7168
-67.9037
-68.0344
-68.1016
-65.5114
-65.5591
-65.6528
-65.7893
-65.9637
-66.1696
-66.3991
-66.643
-66.891
-67.132
-67.355
-67.549
-67.7042
-67.8125
-67.8682
-65.6926
-65.7332
-65.8128
-65.9287
-66.0766
-66.2508
-66.4445
-66.6499
-66.8582
-67.0601
-67.2464
-67.4081
-67.5372
-67.6273
-67.6735
-65.8457
-65.8801
-65.9477
-66.046
-66.1712
-66.3185
-66.4819
-66.6548
-66.8297
-66.999
-67.1548
-67.2898
-67.3975
-67.4724
-67.5109
-65.9748
-66.004
-66.0613
-66.1446
-66.2505
-66.3749
-66.5127
-66.6583
-66.8052
-66.9472
-67.0777
-67.1905
-67.2804
-67.3429
-67.375
-66.0837
-66.1084
-66.1569
-66.2274
-66.3169
-66.4219
-66.5382
-66.6607
-66.7843
-66.9034
-67.0127
-67.1072
-67.1824
-67.2346
-67.2613
-66.1753
-66.1963
-66.2373
-66.2969
-66.3726
-66.4613
-66.5593
-66.6624
-66.7664
-66.8664
-66.9581
-67.0373
-67.1002
-67.1439
-67.1663
-66.2524
-66.2702
-66.3049
-66.3553
-66.4192
-66.4941
-66.5767
-66.6637
-66.7511
-66.8352
-66.9123
-66.9787
-67.0314
-67.068
-67.0868
-66.3172
-66.3322
-66.3616
-66.4042
-66.4583
-66.5215
-66.5913
-66.6645
-66.7382
-66.809
-66.8737
-66.9295
-66.9738
-67.0045
-67.0203
-66.3716
-66.3843
-66.4092
-66.4453
-66.491
-66.5444
-66.6033
-66.6652
-66.7273
-66.7869
-66.8414
-66.8884
-66.9256
-66.9514
-66.9647
-66.4172
-66.4279
-66.449
-66.4796
-66.5183
-66.5635
-66.6133
-66.6656
-66.7181
-66.7684
-66.8144
-66.854
-66.8854
-66.9071
-66.9183
-66.4552
-66.4644
-66.4823
-66.5082
-66.541
-66.5794
-66.6216
-66.6659
-66.7103
-66.7529
-66.7918
-66.8253
-66.8518
-66.8702
-66.8796
-66.487
-66.4947
-66.51
-66.532
-66.56
-66.5926
-66.6285
-66.6661
-66.7039
-66.74
-66.773
-66.8014
-66.8239
-66.8395
-66.8474
-66.5133
-66.5199
-66.533
-66.5518
-66.5757
-66.6035
-66.6342
-66.6663
-66.6985
-66.7293
-66.7574
-66.7816
-66.8008
-66.814
-66.8208
-66.535
-66.5407
-66.5519
-66.5681
-66.5886
-66.6125
-66.6388
-66.6664
-66.694
-66.7205
-66.7446
-66.7653
-66.7817
-66.7931
-66.7989
-66.5527
-66.5576
-66.5673
-66.5814
-66.5991
-66.6198
-66.6426
-66.6665
-66.6904
-66.7132
-66.7341
-66.752
-66.7662
-66.776
-66.781
-66.567
-66.5713
-66.5798
-66.5921
-66.6076
-66.6257
-66.6457
-66.6665
-66.6874
-66.7074
-66.7256
-66.7413
-66.7537
-66.7622
-66.7666
-66.5782
-66.5821
-66.5896
-66.6005
-66.6143
-66.6304
-66.6481
-66.6666
-66.6851
-66.7028
-66.719
-66.7328
-66.7438
-66.7514
-66.7553
-66.5868
-66.5903
-66.5971
-66.607
-66.6194
-66.6339
-66.6499
-66.6666
-66.6833
-66.6993
-66.7139
-66.7264
-66.7363
-66.7431
-66.7467
-66.593
-66.5962
-66.6025
-66.6116
-66.6231
-66.6365
-66.6512
-66.6666
-66.682
-66.6968
-66.7102
-66.7218
-66.7309
-66.7372
-66.7404
-66.5969
-66.6
-66.6059
-66.6145
-66.6254
-66.6381
-66.652
-66.6666
-66.6812
-66.6952
-66.7079
-66.7188
-66.7274
-66.7334
-66.7365
-66.5988
-66.6017
-66.6075
-66.6159
-66.6265
-66.6389
-66.6524
-66.6666
-66.6808
-66.6944
-66.7068
-66.7174
-66.7258
-66.7317
-66.7346
-66.5985
-66.6015
-66.6073
-66.6157
-66.6264
-66.6388
-66.6524
-66.6666
-66.6809
-66.6945
-66.7069
-66.7176
-66.726
-66.7319
-66.7349
-66.5963
-66.5993
-66.6053
-66.614
-66.625
-66.6378
-66.6519
-66.6666
-66.6814
-66.6954
-66.7083
-66.7193
-66.728
-66.7341
-66.7372
-66.5918
-66.5951
-66.6015
-66.6107
-66.6224
-66.636
-66.651
-66.6666
-66.6823
-66.6973
-66.7109
-66.7226
-66.7319
-66.7383
-66.7416
-66.5852
-66.5887
-66.5957
-66.6057
-66.6184
-66.6333
-66.6496
-66.6666
-66.6837
-66.7
-66.7149
-66.7276
-66.7377
-66.7447
-66.7483
-66.576
-66.5799
-66.5877
-66.5989
-66.613
-66.6295
-66.6476
-66.6666
-66.6856
-66.7037
-66.7203
-66.7345
-66.7457
-66.7535
-66.7575
-66.5641
-66.5686
-66.5773
-66.5899
-66.6059
-66.6246
-66.6451
-66.6665
-66.688
-66.7086
-66.7273
-66.7434
-66.7562
-66.765
-66.7695
-66.5491
-66.5542
-66.5642
-66.5787
-66.597
-66.6184
-66.6419
-66.6665
-66.6911
-66.7147
-66.7362
-66.7547
-66.7693
-66.7794
-66.7846
-66.5305
-66.5365
-66.548
-66.5648
-66.586
-66.6107
-66.6379
-66.6664
-66.695
-66.7223
-66.7472
-66.7686
-66.7855
-66.7973
-66.8033
-66.5079
-66.5148
-66.5283
-66.5478
-66.5725
-66.6014
-66.6331
-66.6663
-66.6996
-66.7315
-66.7606
-66.7856
-66.8054
-66.8191
-66.8261
-66.4804
-66.4885
-66.5043
-66.5272
-66.5562
-66.59
-66.6272
-66.6662
-66.7053
-66.7427
-66.7769
-66.8062
-66.8295
-66.8456
-66.8538
-66.4474
-66.4569
-66.4755
-66.5024
-66.5365
-66.5763
-66.6201
-66.666
-66.712
-66.7562
-66.7965
-66.8311
-66.8585
-66.8776
-66.8873
-66.4077
-66.4189
-66.4408
-66.4726
-66.5128
-66.5597
-66.6115
-66.6657
-66.7201
-66.7723
-66.82
-66.861
-66.8935
-66.916
-66.9275
-66.3603
-66.3735
-66.3994
-66.4369
-66.4844
-66.5399
-66.6011
-66.6653
-66.7297
-66.7916
-66.8481
-66.8967
-66.9353
-66.962
-66.9757
-66.3037
-66.3193
-66.3499
-66.3942
-66.4504
-66.5162
-66.5886
-66.6647
-66.7412
-66.8146
-66.8817
-66.9395
-66.9853
-67.0171
-67.0334
-66.2362
-66.2547
-66.2909
-66.3434
-66.4099
-66.4878
-66.5737
-66.664
-66.7547
-66.842
-66.9218
-66.9905
-67.0451
-67.083
-67.1024
-66.1559
-66.1778
-66.2206
-66.2827
-66.3615
-66.4537
-66.5556
-66.6628
-66.7707
-66.8745
-66.9695
-67.0515
-67.1166
-67.1617
-67.1849
-66.0605
-66.0863
-66.137
-66.2104
-66.3037
-66.413
-66.5339
-66.6613
-66.7895
-66.9131
-67.0263
-67.1241
-67.2018
-67.2558
-67.2834
-65.9471
-65.9776
-66.0375
-66.1243
-66.2348
-66.3643
-66.5078
-66.659
-66.8116
-66.9588
-67.0939
-67.2106
-67.3035
-67.3681
-67.4012
-65.8125
-65.8485
-65.9192
-66.0219
-66.1525
-66.306
-66.4762
-66.6559
-66.8375
-67.0129
-67.1741
-67.3137
-67.4249
-67.5022
-67.5419
-65.6529
-65.6954
-65.7788
-65.9
-66.0544
-66.2362
-66.4379
-66.6515
-66.8676
-67.0768
-67.2695
-67.4365
-67.5698
-67.6625
-67.7101
-65.4639
-65.5139
-65.6121
-65.755
-65.9374
-66.1524
-66.3916
-66.6452
-66.9026
-67.1522
-67.3827
-67.5828
-67.7427
-67.8542
-67.9115
-65.2401
-65.2989
-65.4143
-65.5826
-65.7977
-66.0518
-66.3351
-66.6364
-66.9429
-67.241
-67.5169
-67.757
-67.9493
-68.0835
-68.1525
-64.9756
-65.0444
-65.18
-65.3777
-65.631
-65.9309
-66.2662
-66.6239
-66.989
-67.3452
-67.6758
-67.9645
-68.1961
-68.3582
-68.4415
-64.6632
-64.7437
-64.9024
-65.1342
-65.4319
-65.7853
-66.1819
-66.6063
-67.0412
-67.4672
-67.864
-68.2116
-68.4913
-68.6874
-68.7884
-64.2949
-64.3888
-64.5739
-64.845
-65.1941
-65.6098
-66.0782
-66.5815
-67.0996
-67.6093
-68.0863
-68.5058
-68.8445
-69.0826
-69.2055
-63.8615
-63.9705
-64.1858
-64.5018
-64.9099
-65.3979
-65.9501
-66.5466
-67.1637
-67.7743
-68.3486
-68.8561
-69.2676
-69.5578
-69.7079
-63.3524
-63.4784
-63.7277
-64.0946
-64.5701
-65.1414
-65.7912
-66.4973
-67.2324
-67.9644
-68.6573
-69.2731
-69.775
-70.1302
-70.3144
-62.7558
-62.9007
-63.188
-63.612
-64.1639
-64.8304
-65.5932
-66.4278
-67.3032
-68.1816
-69.0194
-69.7693
-70.3842
-70.8215
-71.0489
-62.0586
-62.2242
-62.5533
-63.0407
-63.6781
-64.4526
-65.3453
-66.3301
-67.372
-68.427
-69.4425
-70.3593
-71.1166
-71.6584
-71.9412
-61.2463
-61.4343
-61.8086
-62.3652
-63.0972
-63.9928
-65.0336
-66.1926
-67.4316
-68.6999
-69.9341
-71.06
-71.9987
-72.6752
-73.03
-60.3036
-60.5151
-60.9372
-61.568
-62.4027
-63.432
-64.6398
-65.9995
-67.4709
-68.9966
-70.5008
-71.8907
-73.0628
-73.9153
-74.3651
-59.214
-59.4495
-59.9211
-60.6292
-61.5729
-62.7473
-64.1405
-65.729
-67.4724
-69.3082
-71.147
-72.8726
-74.3487
-75.435
-76.0126
-57.9609
-58.2201
-58.7407
-59.5269
-60.583
-61.9108
-63.5056
-65.3508
-67.4098
-69.6176
-71.8717
-74.0279
-75.9054
-77.3078
-78.0611
-56.5279
-56.809
-57.3759
-58.2373
-59.4045
-60.8887
-62.6968
-64.824
-67.244
-69.8948
-72.6643
-75.3766
-77.7921
-79.6314
-80.6326
-54.8998
-55.1996
-55.8067
-56.7353
-58.0058
-59.6419
-61.6665
-64.0941
-66.9177
-70.0897
-73.4966
-76.9313
-80.0788
-82.5368
-83.8994
-53.0635
-53.3769
-54.0142
-54.996
-56.3533
-58.1252
-60.3564
-63.0891
-66.3494
-70.1216
-74.3094
-78.6854
-82.8442
-86.2029
-88.1124
-51.0096
-51.3294
-51.9824
-52.9962
-54.4128
-56.2896
-58.6979
-61.7179
-65.4257
-69.8647
-74.9915
-80.5903
-86.1653
-90.8753
-93.6514
-48.7338
-49.0505
-49.7002
-50.7166
-52.1529
-54.0851
-56.6146
-59.8689
-63.9943
-69.1302
-75.3459
-82.5115
-90.0869
-96.8904
-101.118
-46.2381
-46.5405
-47.1635
-48.1454
-49.5486
-51.4658
-54.0281
-57.4152
-61.861
-67.6457
-75.0406
-84.1482
-94.5444
-104.694
-111.52
-43.5326
-43.808
-44.3776
-45.2817
-46.5876
-48.3986
-50.869
-54.2261
-58.7981
-65.0431
-73.546
-84.8897
-99.173
-114.806
-126.663
-40.636
-40.8712
-41.3595
-42.1392
-43.2759
-44.8734
-47.0943
-50.1933
-54.5733
-60.8724
-70.0784
-83.5899
-102.864
-127.539
-150.039
-37.5761
-37.7589
-38.1391
-38.749
-39.6442
-40.9154
-42.7098
-45.271
-49.0159
-54.6832
-63.6211
-78.2879
-102.805
-141.783
-189.04
-34.3895
-34.5095
-34.7594
-35.1609
-35.7516
-36.5942
-37.7928
-39.5269
-42.1235
-46.2228
-53.1853
-66.1459
-92.7016
-150.278
-260.858
-31.1197
-31.1701
-31.2746
-31.4414
-31.6843
-32.026
-32.5041
-33.1839
-34.1877
-35.7741
-38.5844
-44.563
-61.0563
-121.964
-409.467
-27.815
-27.7933
-27.7469
-27.6692
-27.5484
-27.3631
-27.0756
-26.616
-25.8475
-24.4758
-21.7836
-15.6784
1.43192
63.7094
353.06
-24.5257
-24.4338
-24.2409
-23.9273
-23.4574
-22.7713
-21.7666
-20.263
-17.9263
-14.0948
-7.35311
5.56344
32.5539
91.6916
205.74
-21.3005
-21.1446
-20.8191
-20.294
-19.5169
-18.401
-16.8042
-14.4886
-11.0437
-5.73517
2.78882
17.0316
41.3508
81.54
137.626
19.6161
8.01088
3.34626
0.928394
-0.53813
-1.51124
-2.19208
-2.68407
-3.0464
-3.31543
-3.5146
-3.65948
-3.76046
-3.82437
-3.85534
12.4033
7.59954
4.08696
1.79792
0.273581
-0.781977
-1.53771
-2.09192
-2.50446
-2.81336
-3.04363
-3.21208
-3.33001
-3.40489
-3.44126
8.52638
6.2915
3.97796
2.13638
0.759748
-0.260918
-1.02327
-1.59815
-2.03447
-2.36587
-2.61558
-2.79973
-2.92944
-3.01214
-3.0524
6.2014
5.03804
3.54116
2.15195
0.998708
0.080759
-0.639018
-1.20057
-1.63734
-1.97509
-2.23303
-2.42516
-2.56148
-2.64883
-2.69149
4.68427
4.01614
3.02957
2.00363
1.07426
0.284815
-0.364637
-0.889645
-1.30895
-1.63973
-1.89616
-2.08933
-2.22751
-2.31655
-2.36017
3.63108
3.21535
2.54531
1.78822
1.05265
0.391648
-0.176673
-0.652114
-1.04203
-1.35598
-1.60321
-1.79167
-1.92765
-2.01579
-2.05912
2.86656
2.59113
2.12147
1.55787
0.979229
0.434118
-0.0532065
-0.473968
-0.827865
-1.11856
-1.35107
-1.53043
-1.661
-1.74614
-1.78814
2.29328
2.10177
1.76285
1.33795
0.882519
0.436454
0.024036
-0.342252
-0.657583
-0.921522
-1.13582
-1.30307
-1.42587
-1.50643
-1.54631
1.85298
1.71477
1.46393
1.13921
0.779302
0.41542
0.0692441
-0.245921
-0.522985
-0.75895
-0.953245
-1.10656
-1.22007
-1.29496
-1.33217
1.50864
1.40597
1.21632
0.964881
0.678842
0.382085
0.0929168
-0.176047
-0.416924
-0.625309
-0.799119
-0.937682
-1.04107
-1.10966
-1.14384
1.23559
1.15757
1.0116
0.814577
0.58582
0.343478
0.102558
-0.125677
-0.333423
-0.515672
-0.669464
-0.793222
-0.886232
-0.94825
-0.979248
1.01671
0.956336
0.842318
0.686307
0.502227
0.303882
0.103389
-0.0895334