/*--------------------------------*- C++ -*----------------------------------*\
| =========                 |                                                 |
| \\      /  F ield         | OpenFOAM: The Open Source CFD Toolbox           |
|  \\    /   O peration     | Version:  5.x                                   |
|   \\  /    A nd           | Web:      www.OpenFOAM.org                      |
|    \\/     M anipulation  |                                                 |
\*---------------------------------------------------------------------------*/
FoamFile
{
    version     2.0;
    format      ascii;
    class       volScalarField;
    location    "1.8";
    object      gradTy;
}
// * * * * * * * * * * * * * * * * * * * * * * * * * * * * * * * * * * * * * //

dimensions      [0 -1 0 1 0 0 0];

internalField   nonuniform List<scalar> 
3200
(
-0.00941175
0.00277472
-0.0179723
0.0155674
-0.0127559
0.0144492
-0.00867152
0.0104745
-0.00705178
0.00261629
0.00691328
-0.00305937
0.00419045
-0.00255555
0.00311314
-0.00197445
0.00237325
-0.00152087
0.00182172
-0.00117171
0.00140201
-0.000901846
0.00107938
-0.000692738
0.00083005
-0.000530609
0.000636918
-0.000405013
0.000487267
-0.000307898
0.000371431
-0.000233
0.00028195
-0.000175417
0.000213016
-0.000131302
0.000160079
-9.76347e-05
0.000119575
-7.20505e-05
8.87062e-05
-5.27001e-05
6.52833e-05
-3.81432e-05
4.7596e-05
-2.72667e-05
3.42931e-05
-1.92957e-05
2.39617e-05
-1.52422e-05
6.74447e-06
1.47692e-05
-5.20431e-06
8.03701e-06
-3.72998e-06
5.14994e-06
-2.32697e-06
3.25704e-06
-1.39045e-06
1.99718e-06
-8.02645e-07
1.18528e-06
-4.48887e-07
6.81564e-07
-2.43702e-07
3.80408e-07
-1.28328e-07
2.06261e-07
-6.49968e-08
1.08367e-07
-3.07187e-08
5.49627e-08
-1.01654e-08
2.37866e-08
3.18131e-10
5.8478e-09
1.20351e-09
2.79178e-10
6.6557e-11
1.89743e-11
-0.00691489
0.00110246
-0.0121954
0.0100878
-0.00812908
0.0096096
-0.00538267
0.00695832
-0.00458033
0.00186684
0.0048855
-0.00181184
0.00281225
-0.00158536
0.00207541
-0.00123048
0.00158063
-0.000948841
0.00121297
-0.000731271
0.000933451
-0.000562847
0.000718698
-0.000432235
0.000552776
-0.000330934
0.000424256
-0.00025246
0.000324664
-0.000191795
0.000247565
-0.000145027
0.000187994
-0.000109088
0.00014209
-8.15709e-05
0.00010683
-6.05845e-05
7.98418e-05
-4.46483e-05
5.92666e-05
-3.26048e-05
4.36485e-05
-2.35533e-05
3.18492e-05
-1.67992e-05
2.29647e-05
-1.18832e-05
1.59672e-05
-9.82446e-06
4.80643e-06
1.05144e-05
-2.9513e-06
5.45371e-06
-2.23278e-06
3.47992e-06
-1.38823e-06
2.20441e-06
-8.22207e-07
1.3546e-06
-4.69845e-07
8.05616e-07
-2.59979e-07
4.64166e-07
-1.3959e-07
2.59563e-07
-7.26241e-08
1.41022e-07
-3.62223e-08
7.42881e-08
-1.66459e-08
3.79238e-08
-4.71974e-09
1.66716e-08
1.16886e-09
4.24329e-09
1.05462e-09
2.50706e-10
5.99901e-11
1.71167e-11
-0.00474103
0.000279819
-0.00784463
0.00622568
-0.00494278
0.0060772
-0.00318895
0.0043958
-0.00282963
0.00125341
0.00324541
-0.00101799
0.00179422
-0.000938113
0.00131583
-0.000731651
0.00100122
-0.000564817
0.000768138
-0.000435464
0.000591097
-0.000335169
0.000455136
-0.000257327
0.000350112
-0.000196935
0.000268766
-0.000150151
0.000205727
-0.000113993
0.000156917
-8.61289e-05
0.000119198
-6.47272e-05
9.01263e-05
-4.83501e-05
6.77893e-05
-3.58682e-05
5.06879e-05
-2.63968e-05
3.76462e-05
-1.92449e-05
2.77431e-05
-1.38749e-05
2.02584e-05
-9.87328e-06
1.46166e-05
-6.98225e-06
1.01155e-05
-6.02585e-06
3.22352e-06
7.02518e-06
-1.57417e-06
3.51325e-06
-1.27217e-06
2.23265e-06
-7.88306e-07
1.41625e-06
-4.62319e-07
8.71902e-07
-2.61169e-07
5.19494e-07
-1.42732e-07
2.99831e-07
-7.56333e-08
1.67945e-07
-3.87739e-08
9.14041e-08
-1.89677e-08
4.82601e-08
-8.39768e-09
2.47707e-08
-1.83715e-09
1.10315e-08
1.27602e-09
2.88907e-09
8.10274e-10
1.97708e-10
4.75454e-11
1.35843e-11
-0.00277015
-1.95827e-05
-0.00438402
0.0033709
-0.00264598
0.00335452
-0.00167076
0.00242439
-0.00153238
0.000722671
0.00185473
-0.000507837
0.00099739
-0.000490823
0.00072785
-0.000384426
0.000553438
-0.00029705
0.000424514
-0.000229092
0.000326657
-0.000176328
0.000251533
-0.000135348
0.000193512
-0.000103546
0.000148574
-7.89105e-05
0.000113747
-5.98738e-05
8.67794e-05
-4.52082e-05
6.59362e-05
-3.39488e-05
4.98685e-05
-2.5337e-05
3.75208e-05
-1.87772e-05
2.80654e-05
-1.38026e-05
2.08529e-05
-1.00489e-05
1.53747e-05
-7.23262e-06
1.1233e-05
-5.13647e-06
8.10855e-06
-3.63198e-06
5.59112e-06
-3.24473e-06
1.85705e-06
4.03085e-06
-7.45385e-07
1.96703e-06
-6.43685e-07
1.24601e-06
-3.97709e-07
7.91183e-07
-2.31125e-07
4.87758e-07
-1.29147e-07
2.9101e-07
-6.97346e-08
1.68175e-07
-3.64693e-08
9.43152e-08
-1.84156e-08
5.13971e-08
-8.8249e-09
2.71823e-08
-3.74594e-09
1.40065e-08
-5.3493e-10
6.29555e-09
9.28053e-10
1.68237e-09
5.07229e-10
1.26223e-10
3.04854e-11
8.72374e-12
-0.000910858
-3.60857e-05
-0.00140974
0.00106558
-0.000831142
0.00107176
-0.000518355
0.000774221
-0.000484319
0.000236248
0.000603329
-0.000152839
0.000319915
-0.000152136
0.000232827
-0.000119457
0.000176967
-9.23575e-05
0.000135728
-7.12414e-05
0.000104438
-5.48333e-05
8.04212e-05
-4.20847e-05
6.18739e-05
-3.21898e-05
4.75092e-05
-2.45245e-05
3.63763e-05
-1.86019e-05
2.77553e-05
-1.40401e-05
2.10916e-05
-1.05387e-05
1.59542e-05
-7.86139e-06
1.20059e-05
-5.82264e-06
8.98203e-06
-4.27714e-06
6.67519e-06
-3.11139e-06
4.92282e-06
-2.23719e-06
3.59774e-06
-1.58696e-06
2.59767e-06
-1.1221e-06
1.78756e-06
-1.02231e-06
6.06771e-07
1.31381e-06
-2.16698e-07
6.33311e-07
-1.95548e-07
4.00456e-07
-1.20613e-07
2.54412e-07
-6.96942e-08
1.56958e-07
-3.86739e-08
9.37134e-08
-2.07198e-08
5.41937e-08
-1.0742e-08
3.04124e-08
-5.36894e-09
1.65845e-08
-2.53607e-09
8.77872e-09
-1.04354e-09
4.53269e-09
-8.83684e-11
2.0471e-09
3.35004e-10
5.52765e-10
1.72395e-10
4.33376e-11
1.04895e-11
3.01064e-12
0.000912692
3.67177e-05
0.00141003
-0.00106537
0.000831274
-0.00107167
0.000518413
-0.000774184
0.000484339
-0.000236238
-0.000603319
0.000152855
-0.000319895
0.000152158
-0.000232805
0.000119477
-0.000176949
9.23731e-05
-0.000135714
7.12531e-05
-0.000104428
5.48418e-05
-8.04139e-05
4.20909e-05
-6.18686e-05
3.21941e-05
-4.75055e-05
2.45275e-05
-3.63738e-05
1.8604e-05
-2.77536e-05
1.40415e-05
-2.10905e-05
1.05396e-05
-1.59536e-05
7.8619e-06
-1.20055e-05
5.82291e-06
-8.98185e-06
4.27725e-06
-6.67513e-06
3.11141e-06
-4.92283e-06
2.23715e-06
-3.5978e-06
1.58688e-06
-2.59776e-06
1.122e-06
-1.78769e-06
1.02217e-06
-6.06918e-07
-1.31395e-06
2.16596e-07
-6.33386e-07
1.95492e-07
-4.00499e-07
1.20578e-07
-2.5444e-07
6.96709e-08
-1.56977e-07
3.86586e-08
-9.37257e-08
2.07101e-08
-5.42013e-08
1.0736e-08
-3.0417e-08
5.36537e-09
-1.65872e-08
2.53398e-09
-8.7803e-09
1.04235e-09
-4.53356e-09
8.77426e-11
-2.04753e-09
-3.35279e-10
-5.5293e-10
-1.72488e-10
-4.33877e-11
-1.0511e-11
-2.99747e-12
0.00277143
2.00432e-05
0.00438425
-0.00337073
0.0026461
-0.00335444
0.00167082
-0.00242434
0.00153241
-0.000722651
-0.00185472
0.000507857
-0.000997368
0.000490845
-0.000727829
0.000384445
-0.000553421
0.000297065
-0.000424501
0.000229103
-0.000326648
0.000176336
-0.000251526
0.000135354
-0.000193507
0.000103551
-0.00014857
7.89137e-05
-0.000113745
5.9876e-05
-8.67776e-05
4.52097e-05
-6.5935e-05
3.39498e-05
-4.98677e-05
2.53377e-05
-3.75203e-05
1.87776e-05
-2.80651e-05
1.38028e-05
-2.08527e-05
1.0049e-05
-1.53746e-05
7.23268e-06
-1.1233e-05
5.13648e-06
-8.10856e-06
3.63195e-06
-5.59117e-06
3.24466e-06
-1.85713e-06
-4.03093e-06
7.45328e-07
-1.96707e-06
6.43654e-07
-1.24604e-06
3.9769e-07
-7.91199e-07
2.31112e-07
-4.87769e-07
1.29138e-07
-2.91018e-07
6.97288e-08
-1.68179e-07
3.64657e-08
-9.4318e-08
1.84133e-08
-5.13988e-08
8.82358e-09
-2.71833e-08
3.74518e-09
-1.40071e-08
5.34521e-10
-6.29583e-09
-9.28236e-10
-1.68249e-09
-5.07291e-10
-1.26258e-10
-3.05006e-11
-8.71474e-12
0.00474128
-0.000279703
0.00784472
-0.00622561
0.00494284
-0.00607715
0.00318899
-0.00439576
0.00282966
-0.00125338
-0.00324539
0.001018
-0.00179421
0.000938127
-0.00131581
0.000731662
-0.00100121
0.000564826
-0.000768131
0.000435471
-0.000591091
0.000335174
-0.000455132
0.000257331
-0.000350108
0.000196938
-0.000268764
0.000150153
-0.000205725
0.000113995
-0.000156916
8.613e-05
-0.000119197
6.47281e-05
-9.01256e-05
4.83507e-05
-6.77888e-05
3.58686e-05
-5.06876e-05
2.63971e-05
-3.7646e-05
1.92451e-05
-2.77429e-05
1.3875e-05
-2.02582e-05
9.87337e-06
-1.46165e-05
6.9823e-06
-1.01155e-05
6.02587e-06
-3.2235e-06
-7.02517e-06
1.57418e-06
-3.51324e-06
1.27217e-06
-2.23265e-06
7.8831e-07
-1.41625e-06
4.62321e-07
-8.71901e-07
2.6117e-07
-5.19494e-07
1.42732e-07
-2.99831e-07
7.56334e-08
-1.67944e-07
3.87739e-08
-9.14041e-08
1.89677e-08
-4.82602e-08
8.39764e-09
-2.47708e-08
1.83712e-09
-1.10315e-08
-1.27603e-09
-2.88909e-09
-8.10282e-10
-1.97714e-10
-4.75484e-11
-1.35829e-11
0.0069138
-0.00110282
0.0121953
-0.0100879
0.00812902
-0.00960964
0.00538265
-0.00695833
0.00458033
-0.00186684
-0.0048855
0.00181184
-0.00281226
0.00158535
-0.00207542
0.00123047
-0.00158063
0.000948835
-0.00121297
0.000731266
-0.000933455
0.000562843
-0.000718701
0.000432232
-0.000552778
0.000330933
-0.000424258
0.000252459
-0.000324665
0.000191795
-0.000247565
0.000145027
-0.000187994
0.000109088
-0.00014209
8.15708e-05
-0.00010683
6.05845e-05
-7.98417e-05
4.46483e-05
-5.92666e-05
3.26049e-05
-4.36484e-05
2.35534e-05
-3.18492e-05
1.67993e-05
-2.29646e-05
1.18833e-05
-1.59671e-05
9.82456e-06
-4.80632e-06
-1.05143e-05
2.95137e-06
-5.45366e-06
2.23281e-06
-3.47989e-06
1.38826e-06
-2.20439e-06
8.22223e-07
-1.35459e-06
4.69855e-07
-8.05608e-07
2.59986e-07
-4.64161e-07
1.39594e-07
-2.5956e-07
7.26264e-08
-1.4102e-07
3.62237e-08
-7.42871e-08
1.66467e-08
-3.79233e-08
4.72014e-09
-1.66714e-08
-1.16869e-09
-4.24318e-09
-1.05457e-09
-2.50676e-10
-5.99772e-11
-1.71248e-11
0.00940947
-0.00277556
0.0179719
-0.0155677
0.0127557
-0.0144494
0.00867138
-0.0104746
0.00705171
-0.00261635
-0.00691333
0.00305932
-0.00419051
0.0025555
-0.00311319
0.0019744
-0.00237329
0.00152084
-0.00182175
0.00117168
-0.00140203
0.000901827
-0.00107939
0.000692724
-0.000830062
0.000530599
-0.000636927
0.000405005
-0.000487273
0.000307893
-0.000371435
0.000232997
-0.000281953
0.000175415
-0.000213018
0.0001313
-0.000160081
9.76336e-05
-0.000119576
7.20498e-05
-8.87068e-05
5.26997e-05
-6.52836e-05
3.8143e-05
-4.75962e-05
2.72665e-05
-3.42931e-05
1.92956e-05
-2.39617e-05
1.52423e-05
-6.74436e-06
-1.47691e-05
5.20439e-06
-8.03696e-06
3.73002e-06
-5.14991e-06
2.327e-06
-3.25702e-06
1.39047e-06
-1.99716e-06
8.02658e-07
-1.18527e-06
4.48896e-07
-6.81557e-07
2.43707e-07
-3.80403e-07
1.28331e-07
-2.06258e-07
6.49989e-08
-1.08366e-07
3.07199e-08
-5.49618e-08
1.01661e-08
-2.37861e-08
-3.17825e-10
-5.84762e-09
-1.2034e-09
-2.79119e-10
-6.65301e-11
-1.89899e-11
-0.12774
0.0993526
0.00997687
0.012512
-0.0052713
0.0069861
-0.00640681
0.0063898
-0.00711328
0.000723801
0.00706028
-0.0045493
0.00532702
-0.00415533
0.00461367
-0.00355226
0.00396708
-0.00299193
0.0033667
-0.00249669
0.00282682
-0.00206848
0.00235359
-0.00170382
0.00194644
-0.00139677
0.00160096
-0.00114047
0.00131083
-0.000927967
0.00106916
-0.000752755
0.000869127
-0.000608943
0.000704424
-0.000491366
0.000569399
-0.000395572
0.000459125
-0.000317779
0.000369371
-0.000254805
0.000296554
-0.000203993
0.000237656
-0.000163181
0.000189982
-0.000131328
0.000148121
-0.000121564
3.14475e-05
0.000119437
-6.20326e-05
7.91915e-05
-5.3925e-05
6.2837e-05
-4.41044e-05
5.082e-05
-3.62835e-05
4.14873e-05
-3.02478e-05
3.42604e-05
-2.56315e-05
2.87172e-05
-2.20718e-05
2.45815e-05
-1.87858e-05
2.12059e-05
-1.49267e-05
1.74994e-05
-1.08437e-05
1.32976e-05
-7.59715e-06
1.03978e-05
-1.91308e-06
4.6878e-06
9.49474e-07
2.20063e-07
5.29218e-08
1.54888e-08
-0.0912836
0.0664655
0.0103989
0.00921992
-0.00308746
0.00462134
-0.00413279
0.00411562
-0.00481161
0.000517738
0.00488335
-0.00283303
0.00352271
-0.00264009
0.00304331
-0.00225488
0.00261938
-0.00189584
0.00222507
-0.00157968
0.00186967
-0.00130718
0.00155761
-0.00107568
0.00128878
-0.000881117
0.00106045
-0.000718942
0.000868573
-0.000584641
0.000708644
-0.000474008
0.000576211
-0.000383271
0.000467125
-0.000309136
0.000377667
-0.000248772
0.000304584
-0.000199777
0.000245085
-0.000160135
0.000196799
-0.000128167
0.000157729
-0.000102518
0.000126047
-8.27411e-05
9.73971e-05
-8.04055e-05
2.24352e-05
8.36827e-05
-3.76307e-05
5.28174e-05
-3.38419e-05
4.16771e-05
-2.77699e-05
3.36683e-05
-2.28852e-05
2.74555e-05
-1.91177e-05
2.2642e-05
-1.62396e-05
1.895e-05
-1.40141e-05
1.62186e-05
-1.19135e-05
1.40381e-05
-9.39222e-06
1.16494e-05
-6.73874e-06
8.89224e-06
-4.64738e-06
7.10343e-06
-8.8267e-07
3.31398e-06
8.29013e-07
1.97515e-07
4.77001e-08
1.39692e-08
-0.0611403
0.0421276
0.00862223
0.00637012
-0.0017069
0.00291267
-0.00254113
0.00252638
-0.00308214
0.00034845
0.00318808
-0.00168112
0.0022178
-0.00159992
0.00191109
-0.00136542
0.00164631
-0.00114604
0.00139969
-0.000953534
0.00117693
-0.000788119
0.000981025
-0.000647922
0.000812068
-0.000530308
0.000668438
-0.000432412
0.000547656
-0.000351432
0.000446935
-0.000284784
0.000363496
-0.000230163
0.000294742
-0.000185566
0.000238342
-0.000149272
0.000192254
-0.000119831
0.000154722
-9.60221e-05
0.000124257
-7.68328e-05
9.95976e-05
-6.14531e-05
7.95666e-05
-4.97478e-05
6.09591e-05
-5.05015e-05
1.50616e-05
5.52094e-05
-2.17185e-05
3.35108e-05
-2.02609e-05
2.63025e-05
-1.66826e-05
2.12258e-05
-1.3772e-05
1.7292e-05
-1.15283e-05
1.42427e-05
-9.81635e-06
1.1904e-05
-8.48859e-06
1.01866e-05
-7.20755e-06
8.84313e-06
-5.63874e-06
7.37494e-06
-3.99582e-06
5.65278e-06
-2.70992e-06
4.59809e-06
-3.39852e-07
2.20725e-06
6.3432e-07
1.55649e-07
3.78048e-08
1.10811e-08
-0.0351301
0.0232576
0.00559278
0.0037509
-0.000836428
0.00160486
-0.00137224
0.00136239
-0.00171587
0.000201303
0.0017998
-0.000881179
0.00122042
-0.000853939
0.00104942
-0.000728366
0.000904626
-0.00061048
0.000769618
-0.000507331
0.000647473
-0.000418916
0.000539922
-0.000344124
0.000447084
-0.000281472
0.00036811
-0.000229384
0.000301666
-0.000186337
0.000246235
-0.000150935
0.000200301
-0.00012194
0.000162441
-9.82775e-05
0.000131376
-7.90309e-05
0.000105986
-6.34245e-05
8.5306e-05
-5.08093e-05
6.85159e-05
-4.06464e-05
5.49225e-05
-3.25087e-05
4.38651e-05
-2.63857e-05
3.33807e-05
-2.77023e-05
8.68375e-06
3.14008e-05
-1.11086e-05
1.855e-05
-1.07059e-05
1.44986e-05
-8.84113e-06
1.16907e-05
-7.30914e-06
9.51681e-06
-6.12876e-06
7.83115e-06
-5.229e-06
6.53839e-06
-4.52936e-06
5.59432e-06
-3.842e-06
4.86731e-06
-2.98681e-06
4.07448e-06
-2.09471e-06
3.13301e-06
-1.39982e-06
2.58222e-06
-9.6662e-08
1.26519e-06
3.95784e-07
9.93102e-08
2.42402e-08
7.10989e-09
-0.0114572
0.00742786
0.00192868
0.00123991
-0.000248556
0.000512449
-0.000433072
0.000429767
-0.000550479
6.5928e-05
0.000581802
-0.00027335
0.000389336
-0.00026774
0.000334382
-0.000228301
0.000288347
-0.000191199
0.000245401
-0.000158786
0.000206512
-0.000131041
0.000172247
-0.000107597
0.000142655
-8.79749e-05
0.000117473
-7.16719e-05
9.62814e-05
-5.82057e-05
7.85983e-05
-4.71357e-05
6.39421e-05
-3.80725e-05
5.18605e-05
-3.06785e-05
4.19462e-05
-2.46659e-05
3.3842e-05
-1.97917e-05
2.72405e-05
-1.58527e-05
2.18802e-05
-1.26802e-05
1.75398e-05
-1.01413e-05
1.40065e-05
-8.24402e-06
1.06189e-05
-8.81729e-06
2.83908e-06
1.01895e-05
-3.39578e-06
5.93662e-06
-3.33752e-06
4.62922e-06
-2.76095e-06
3.731e-06
-2.28446e-06
3.03596e-06
-1.91743e-06
2.4969e-06
-1.63782e-06
2.08349e-06
-1.42008e-06
1.78248e-06
-1.20392e-06
1.55267e-06
-9.32584e-07
1.30237e-06
-6.50141e-07
1.00317e-06
-4.30663e-07
8.32572e-07
-1.52377e-08
4.12306e-07
1.34289e-07
3.40913e-08
8.34315e-09
2.44538e-09
0.0114593
-0.00742724
-0.00192843
-0.00123964
0.000248822
-0.000512185
0.000433318
-0.000429548
0.000550665
-6.57694e-05
-0.000581662
0.00027348
-0.000389215
0.000267852
-0.000334281
0.000228392
-0.000288265
0.000191272
-0.000245335
0.000158845
-0.000206459
0.000131089
-0.000172204
0.000107635
-0.000142621
8.8005e-05
-0.000117447
7.16959e-05
-9.626e-05
5.82248e-05
-7.85812e-05
4.71509e-05
-6.39285e-05
3.80846e-05
-5.18497e-05
3.06881e-05
-4.19376e-05
2.46735e-05
-3.38352e-05
1.97978e-05
-2.7235e-05
1.58575e-05
-2.18759e-05
1.26841e-05
-1.75364e-05
1.01443e-05
-1.40038e-05
8.24628e-06
-1.06171e-05
8.81869e-06
-2.83799e-06
-1.01885e-05
3.39672e-06
-5.93568e-06
3.33843e-06
-4.62839e-06
2.76169e-06
-3.73035e-06
2.28502e-06
-3.0355e-06
1.91781e-06
-2.4966e-06
1.63805e-06
-2.08333e-06
1.42017e-06
-1.78245e-06
1.2039e-06
-1.55274e-06
9.32479e-07
-1.3025e-06
6.49995e-07
-1.00332e-06
4.30519e-07
-8.32698e-07
1.51387e-08
-4.12375e-07
-1.3433e-07
-3.41113e-08
-8.35209e-09
-2.45649e-09
0.0351315
-0.0232572
-0.00559257
-0.00375068
0.00083664
-0.00160466
0.00137244
-0.00136222
0.00171602
-0.000201174
-0.00179968
0.000881285
-0.00122032
0.000854029
-0.00104934
0.00072844
-0.000904558
0.000610541
-0.000769564
0.00050738
-0.000647429
0.000418955
-0.000539887
0.000344156
-0.000447056
0.000281498
-0.000368088
0.000229404
-0.000301648
0.000186353
-0.000246221
0.000150947
-0.000200289
0.00012195
-0.000162432
9.82857e-05
-0.000131369
7.90373e-05
-0.000105981
6.34296e-05
-8.53014e-05
5.08134e-05
-6.85123e-05
4.06497e-05
-5.49196e-05
3.25113e-05
-4.38628e-05
2.63877e-05
-3.33791e-05
2.77036e-05
-8.68271e-06
-3.13999e-05
1.11094e-05
-1.85492e-05
1.07067e-05
-1.44979e-05
8.84177e-06
-1.16901e-05
7.30963e-06
-9.5164e-06
6.12911e-06
-7.83087e-06
5.22922e-06
-6.53823e-06
4.52947e-06
-5.59426e-06
3.84202e-06
-4.86733e-06
2.98676e-06
-4.07455e-06
2.09463e-06
-3.1331e-06
1.39973e-06
-2.5823e-06
9.65976e-08
-1.26524e-06
-3.95811e-07
-9.93233e-08
-2.4246e-08
-7.11741e-09
0.0611405
-0.0421274
-0.00862214
-0.00637004
0.00170698
-0.00291259
0.0025412
-0.00252631
0.0030822
-0.000348398
-0.00318803
0.00168116
-0.00221776
0.00159996
-0.00191105
0.00136546
-0.00164629
0.00114606
-0.00139967
0.000953554
-0.00117691
0.000788135
-0.000981009
0.000647936
-0.000812056
0.000530319
-0.000668428
0.00043242
-0.000547648
0.000351439
-0.000446929
0.000284789
-0.000363491
0.000230168
-0.000294738
0.000185569
-0.000238339
0.000149276
-0.000192252
0.000119833
-0.00015472
9.6024e-05
-0.000124255
7.68343e-05
-9.95962e-05
6.14543e-05
-7.95655e-05
4.97487e-05
-6.09582e-05
5.05022e-05
-1.5061e-05
-5.52089e-05
2.1719e-05
-3.35104e-05
2.02613e-05
-2.63021e-05
1.66829e-05
-2.12255e-05
1.37722e-05
-1.72918e-05
1.15285e-05
-1.42425e-05
9.81649e-06
-1.19039e-05
8.48868e-06
-1.01865e-05
7.20761e-06
-8.84309e-06
5.63877e-06
-7.37492e-06
3.99583e-06
-5.65278e-06
2.70991e-06
-4.5981e-06
3.39847e-07
-2.20725e-06
-6.34322e-07
-1.5565e-07
-3.78051e-08
-1.10822e-08
0.0912824
-0.0664658
-0.010399
-0.00922005
0.00308732
-0.00462148
0.00413266
-0.00411574
0.00481152
-0.000517818
-0.00488342
0.00283296
-0.00352277
0.00264003
-0.00304336
0.00225483
-0.00261942
0.0018958
-0.0022251
0.00157965
-0.0018697
0.00130715
-0.00155763
0.00107566
-0.0012888
0.000881102
-0.00106047
0.00071893
-0.000868583
0.000584632
-0.000708652
0.000474
-0.000576218
0.000383266
-0.000467131
0.000309132
-0.000377671
0.000248768
-0.000304587
0.000199774
-0.000245087
0.000160133
-0.000196801
0.000128166
-0.000157731
0.000102517
-0.000126049
8.274e-05
-9.73979e-05
8.04049e-05
-2.24356e-05
-8.3683e-05
3.76303e-05
-5.28178e-05
3.38415e-05
-4.16775e-05
2.77695e-05
-3.36686e-05
2.28849e-05
-2.74557e-05
1.91176e-05
-2.26421e-05
1.62396e-05
-1.89501e-05
1.40141e-05
-1.62186e-05
1.19135e-05
-1.40381e-05
9.3923e-06
-1.16493e-05
6.73884e-06
-8.89214e-06
4.64748e-06
-7.10335e-06
8.82732e-07
-3.31394e-06
-8.28987e-07
-1.97502e-07
-4.76945e-08
-1.39624e-08
0.127737
-0.0993535
-0.00997729
-0.0125124
0.00527088
-0.00698651
0.00640643
-0.00639014
0.00711298
-0.000724061
-0.00706052
0.00454908
-0.00532722
0.00415515
-0.00461384
0.00355211
-0.00396722
0.00299181
-0.00336681
0.00249659
-0.00282691
0.0020684
-0.00235366
0.00170376
-0.0019465
0.00139672
-0.001601
0.00114042
-0.00131087
0.000927934
-0.00106919
0.000752728
-0.000869151
0.000608922
-0.000704443
0.000491349
-0.000569414
0.000395558
-0.000459137
0.000317768
-0.000369381
0.000254796
-0.000296562
0.000203986
-0.000237662
0.000163176
-0.000189987
0.000131323
-0.000148124
0.000121561
-3.14498e-05
-0.000119439
6.20308e-05
-7.91933e-05
5.39234e-05
-6.28385e-05
4.4103e-05
-5.08212e-05
3.62825e-05
-4.14882e-05
3.02471e-05
-3.4261e-05
2.5631e-05
-2.87176e-05
2.20715e-05
-2.45817e-05
1.87857e-05
-2.12059e-05
1.49267e-05
-1.74993e-05
1.08438e-05
-1.32974e-05
7.59729e-06
-1.03977e-05
1.91319e-06
-4.68773e-06
-9.4943e-07
-2.20041e-07
-5.29124e-08
-1.54759e-08
-0.127762
0.0993792
0.0100164
0.0124879
-0.00523296
0.00695136
-0.00636741
0.00635307
-0.00706774
0.000721803
0.00701484
-0.00451714
0.00529079
-0.00412474
0.00458073
-0.00352493
0.00393744
-0.00296793
0.00334042
-0.00247585
0.00280383
-0.00205057
0.0023337
-0.00168855
0.0019294
-0.00138386
0.00158646
-0.00112962
0.0012986
-0.000918916
0.00105891
-0.000745245
0.000860591
-0.000602748
0.000697355
-0.000486281
0.000563578
-0.000391421
0.000454355
-0.000314405
0.000365483
-0.000252074
0.000293398
-0.000201792
0.000235106
-0.000161412
0.00018793
-0.000129899
0.000146514
-0.00012024
3.11064e-05
0.000118137
-6.13587e-05
7.83305e-05
-5.33415e-05
6.21556e-05
-4.36302e-05
5.02715e-05
-3.58975e-05
4.10429e-05
-2.99314e-05
3.38978e-05
-2.53708e-05
2.84193e-05
-2.18576e-05
2.43348e-05
-1.86183e-05
2.10071e-05
-1.48056e-05
1.73496e-05
-1.07613e-05
1.31902e-05
-7.54823e-06
1.03255e-05
-1.90081e-06
4.65625e-06
9.4308e-07
2.18581e-07
5.25655e-08
1.53846e-08
-0.0912994
0.0664848
0.010427
0.00920527
-0.00306203
0.00459907
-0.004107
0.00409221
-0.00478059
0.000516297
0.00485209
-0.00281281
0.00349887
-0.00262053
0.00302167
-0.00223742
0.00259988
-0.00188053
0.00220777
-0.00156641
0.00185452
-0.00129579
0.00154449
-0.00106599
0.00127753
-0.00087293
0.00105088
-0.000712074
0.00086049
-0.000578914
0.000701866
-0.000469261
0.000570563
-0.000379359
0.000462446
-0.000305928
0.000373811
-0.000246154
0.000301424
-0.000197651
0.000242507
-0.000158416
0.000194706
-0.000126783
0.000156038
-0.000101405
0.000124687
-8.18405e-05
9.63412e-05
-7.95297e-05
2.21919e-05
8.27723e-05
-3.7222e-05
5.22432e-05
-3.34758e-05
4.1225e-05
-2.74715e-05
3.33048e-05
-2.2642e-05
2.71611e-05
-1.89182e-05
2.24019e-05
-1.60751e-05
1.87528e-05
-1.3879e-05
1.60549e-05
-1.18084e-05
1.39057e-05
-9.31712e-06
1.15491e-05
-6.68825e-06
8.81987e-06
-4.61831e-06
7.05386e-06
-8.77235e-07
3.29165e-06
8.23429e-07
1.96185e-07
4.7379e-08
1.38752e-08
-0.0611506
0.0421406
0.00864103
0.00636166
-0.00169085
0.00289905
-0.00252506
0.00251215
-0.00306215
0.000347474
0.00316776
-0.001669
0.00220285
-0.00158799
0.00189756
-0.00135479
0.0016341
-0.00113673
0.00138884
-0.00094548
0.00116742
-0.000781216
0.000972784
-0.000642054
0.000804995
-0.000525357
0.000662418
-0.000428262
0.000542571
-0.000347975
0.000442669
-0.000281921
0.000359939
-0.000227806
0.000291794
-0.000183634
0.000235912
-0.000147698
0.000190262
-0.000118553
0.000153097
-9.49895e-05
0.000122936
-7.60014e-05
9.853e-05
-6.07853e-05
7.87081e-05
-4.92059e-05
6.02984e-05
-4.99512e-05
1.48983e-05
5.46088e-05
-2.14826e-05
3.31464e-05
-2.00418e-05
2.60171e-05
-1.65035e-05
2.09965e-05
-1.36258e-05
1.71064e-05
-1.14083e-05
1.40914e-05
-9.71726e-06
1.17798e-05
-8.40725e-06
1.00833e-05
-7.14469e-06
8.75921e-06
-5.59431e-06
7.31111e-06
-3.96633e-06
5.60647e-06
-2.69348e-06
4.56589e-06
-3.37946e-07
2.19237e-06
6.30047e-07
1.54601e-07
3.75503e-08
1.10065e-08
-0.0351359
0.0232652
0.00560357
0.00374657
-0.000827585
0.00159754
-0.00136346
0.00135479
-0.00170469
0.000200736
0.00178836
-0.000874772
0.00121222
-0.000847537
0.00104201
-0.000722664
0.000897936
-0.000605498
0.000763669
-0.000503026
0.000642255
-0.00041523
0.000535397
-0.000340994
0.000443198
-0.000278834
0.000364801
-0.000227175
0.000298869
-0.000184498
0.000243888
-0.000149413
0.000198343
-0.000120687
0.000160818
-9.72522e-05
0.000130038
-7.81955e-05
0.000104889
-6.2747e-05
8.44103e-05
-5.02621e-05
6.77883e-05
-4.02061e-05
5.43341e-05
-3.21551e-05
4.3392e-05
-2.60981e-05
3.30191e-05
-2.74004e-05
8.58962e-06
3.10592e-05
-1.09879e-05
1.83483e-05
-1.05902e-05
1.43413e-05
-8.74627e-06
1.15643e-05
-7.23166e-06
9.4146e-06
-6.06505e-06
7.74788e-06
-5.17638e-06
6.47e-06
-4.48618e-06
5.53735e-06
-3.8088e-06
4.82091e-06
-2.96356e-06
4.03907e-06
-2.07945e-06
3.10721e-06
-1.39157e-06
2.5641e-06
-9.62483e-08
1.25665e-06
3.93118e-07
9.86413e-08
2.4077e-08
7.06205e-09
-0.0114591
0.00743033
0.0019322
0.00123859
-0.000245734
0.000510143
-0.000430284
0.000427378
-0.000546884
6.57414e-05
0.000578113
-0.000271353
0.000386726
-0.000265727
0.000332026
-0.000226509
0.000286218
-0.000189634
0.000243507
-0.000157435
0.00020485
-0.000129885
0.000170805
-0.000106616
0.000141416
-8.71483e-05
0.000116419
-7.09801e-05
9.53897e-05
-5.76301e-05
7.78498e-05
-4.66597e-05
6.33177e-05
-3.76809e-05
5.13427e-05
-3.0358e-05
4.15192e-05
-2.44048e-05
3.34918e-05
-1.95801e-05
2.69546e-05
-1.56818e-05
2.16479e-05
-1.25427e-05
1.7352e-05
-1.00309e-05
1.38555e-05
-8.15413e-06
1.05038e-05
-8.72118e-06
2.80831e-06
1.00786e-05
-3.3589e-06
5.87207e-06
-3.30145e-06
4.57898e-06
-2.73134e-06
3.69067e-06
-2.26026e-06
3.00335e-06
-1.89752e-06
2.47033e-06
-1.62137e-06
2.06167e-06
-1.40659e-06
1.76429e-06
-1.19357e-06
1.53783e-06
-9.25376e-07
1.29103e-06
-6.45441e-07
9.9489e-07
-4.28166e-07
8.26719e-07
-1.52154e-08
4.09523e-07
1.33384e-07
3.38617e-08
8.28697e-09
2.42892e-09
0.0114612
-0.00742972
-0.00193195
-0.00123832
0.000245998
-0.000509882
0.000430528
-0.000427162
0.000547069
-6.55842e-05
-0.000577974
0.000271481
-0.000386606
0.000265838
-0.000331925
0.0002266
-0.000286136
0.000189707
-0.000243441
0.000157493
-0.000204797
0.000129932
-0.000170763
0.000106654
-0.000141383
8.71782e-05
-0.000116392
7.10038e-05
-9.53685e-05
5.7649e-05
-7.78329e-05
4.66747e-05
-6.33042e-05
3.76928e-05
-5.1332e-05
3.03675e-05
-4.15107e-05
2.44124e-05
-3.3485e-05
1.95861e-05
-2.69492e-05
1.56866e-05
-2.16436e-05
1.25466e-05
-1.73486e-05
1.0034e-05
-1.38528e-05
8.15637e-06
-1.0502e-05
8.72257e-06
-2.80723e-06
-1.00777e-05
3.35983e-06
-5.87113e-06
3.30234e-06
-4.57816e-06
2.73207e-06
-3.69002e-06
2.26081e-06
-3.00288e-06
1.8979e-06
-2.47003e-06
1.6216e-06
-2.06151e-06
1.40668e-06
-1.76426e-06
1.19355e-06
-1.5379e-06
9.25272e-07
-1.29116e-06
6.45297e-07
-9.95039e-07
4.28023e-07
-8.26844e-07
1.5117e-08
-4.09591e-07
-1.33424e-07
-3.38816e-08
-8.29587e-09
-2.43996e-09
0.0351374
-0.0232647
-0.00560336
-0.00374635
0.000827796
-0.00159734
0.00136366
-0.00135461
0.00170484
-0.000200608
-0.00178825
0.000874877
-0.00121212
0.000847627
-0.00104193
0.000722738
-0.000897869
0.000605558
-0.000763616
0.000503074
-0.000642212
0.000415269
-0.000535362
0.000341025
-0.00044317
0.000278859
-0.000364779
0.000227195
-0.000298852
0.000184514
-0.000243874
0.000149426
-0.000198332
0.000120697
-0.000160809
9.72603e-05
-0.000130031
7.82019e-05
-0.000104883
6.27521e-05
-8.44057e-05
5.02662e-05
-6.77847e-05
4.02093e-05
-5.43312e-05
3.21577e-05
-4.33897e-05
2.61001e-05
-3.30175e-05
2.74016e-05
-8.5886e-06
-3.10583e-05
1.09888e-05
-1.83475e-05
1.0591e-05
-1.43405e-05
8.7469e-06
-1.15637e-05
7.23214e-06
-9.41419e-06
6.06539e-06
-7.7476e-06
5.1766e-06
-6.46984e-06
4.48629e-06
-5.53729e-06
3.80882e-06
-4.82093e-06
2.96351e-06
-4.03914e-06
2.07937e-06
-3.1073e-06
1.39148e-06
-2.56418e-06
9.61843e-08
-1.2567e-06
-3.93144e-07
-9.86544e-08
-2.40827e-08
-7.06952e-09
0.0611509
-0.0421405
-0.00864094
-0.00636158
0.00169093
-0.00289898
0.00252513
-0.00251209
0.0030622
-0.000347422
-0.00316772
0.00166904
-0.00220281
0.00158803
-0.00189752
0.00135482
-0.00163408
0.00113676
-0.00138882
0.0009455
-0.0011674
0.000781232
-0.000972769
0.000642068
-0.000804983
0.000525368
-0.000662408
0.000428271
-0.000542563
0.000347982
-0.000442662
0.000281927
-0.000359934
0.000227811
-0.00029179
0.000183638
-0.000235909
0.000147701
-0.000190259
0.000118556
-0.000153095
9.49914e-05
-0.000122935
7.60029e-05
-9.85286e-05
6.07865e-05
-7.8707e-05
4.92069e-05
-6.02976e-05
4.99519e-05
-1.48977e-05
-5.46083e-05
2.14831e-05
-3.3146e-05
2.00422e-05
-2.60167e-05
1.65038e-05
-2.09962e-05
1.36261e-05
-1.71062e-05
1.14084e-05
-1.40913e-05
9.7174e-06
-1.17797e-05
8.40735e-06
-1.00832e-05
7.14475e-06
-8.75917e-06
5.59434e-06
-7.31109e-06
3.96634e-06
-5.60647e-06
2.69348e-06
-4.5659e-06
3.37941e-07
-2.19237e-06
-6.30049e-07
-1.54602e-07
-3.75506e-08
-1.10076e-08
0.0912982
-0.0664852
-0.0104272
-0.00920541
0.0030619
-0.00459921
0.00410688
-0.00409232
0.00478049
-0.000516377
-0.00485216
0.00281274
-0.00349893
0.00262047
-0.00302172
0.00223738
-0.00259992
0.0018805
-0.0022078
0.00156638
-0.00185454
0.00129577
-0.00154451
0.00106597
-0.00127754
0.000872915
-0.00105089
0.000712062
-0.0008605
0.000578905
-0.000701874
0.000469254
-0.000570569
0.000379353
-0.000462451
0.000305924
-0.000373815
0.000246151
-0.000301427
0.000197648
-0.00024251
0.000158414
-0.000194709
0.000126781
-0.000156039
0.000101404
-0.000124688
8.18395e-05
-9.6342e-05
7.95291e-05
-2.21923e-05
-8.27726e-05
3.72216e-05
-5.22436e-05
3.34754e-05
-4.12254e-05
2.74712e-05
-3.3305e-05
2.26417e-05
-2.71613e-05
1.8918e-05
-2.2402e-05
1.6075e-05
-1.87529e-05
1.3879e-05
-1.60549e-05
1.18084e-05
-1.39056e-05
9.3172e-06
-1.1549e-05
6.68834e-06
-8.81978e-06
4.61841e-06
-7.05378e-06
8.77297e-07
-3.29161e-06
-8.23404e-07
-1.96172e-07
-4.73734e-08
-1.38684e-08
0.12776
-0.0993801
-0.0100169
-0.0124883
0.00523255
-0.00695176
0.00636703
-0.00635341
0.00706744
-0.000722061
-0.00701507
0.00451693
-0.00529098
0.00412456
-0.0045809
0.00352478
-0.00393757
0.00296781
-0.00334053
0.00247575
-0.00280391
0.00205049
-0.00233377
0.00168849
-0.00192945
0.00138381
-0.00158651
0.00112958
-0.00129864
0.000918883
-0.00105894
0.000745219
-0.000860614
0.000602727
-0.000697373
0.000486265
-0.000563593
0.000391407
-0.000454367
0.000314395
-0.000365492
0.000252066
-0.000293406
0.000201785
-0.000235112
0.000161407
-0.000187935
0.000129895
-0.000146518
0.000120237
-3.11087e-05
-0.000118139
6.13569e-05
-7.83323e-05
5.33398e-05
-6.21571e-05
4.36288e-05
-5.02727e-05
3.58964e-05
-4.10438e-05
2.99306e-05
-3.38984e-05
2.53703e-05
-2.84197e-05
2.18573e-05
-2.43349e-05
1.86182e-05
-2.10072e-05
1.48056e-05
-1.73495e-05
1.07614e-05
-1.319e-05
7.54838e-06
-1.03254e-05
1.90091e-06