/*--------------------------------*- C++ -*----------------------------------*\
| =========                 |                                                 |
| \\      /  F ield         | OpenFOAM: The Open Source CFD Toolbox           |
|  \\    /   O peration     | Version:  5.x                                   |
|   \\  /    A nd           | Web:      www.OpenFOAM.org                      |
|    \\/     M anipulation  |                                                 |
\*---------------------------------------------------------------------------*/
FoamFile
{
    version     2.0;
    format      ascii;
    class       volScalarField;
    location    "1.8";
    object      gradTx;
}
// * * * * * * * * * * * * * * * * * * * * * * * * * * * * * * * * * * * * * //

dimensions      [0 -1 0 1 0 0 0];

internalField   nonuniform List<scalar> 
3200
(
0.177676
-0.00799307
-0.0191319
-0.0195891
-0.0172027
-0.0168832
-0.0126907
-0.0123463
-0.00937613
-0.014568
-0.00683656
-0.00499591
-0.00480914
-0.00373219
-0.00363265
-0.00284878
-0.00277682
-0.00218761
-0.00213327
-0.00168359
-0.00164198
-0.00129583
-0.00126374
-0.000996063
-0.000971236
-0.000763863
-0.000744631
-0.000583983
-0.000569093
-0.000444806
-0.000433297
-0.000337351
-0.000328477
-0.00025462
-0.000247799
-0.000191132
-0.000185906
-0.00014259
-0.000138602
-0.000105625
-0.000102595
-7.7603e-05
-7.53115e-05
-5.64665e-05
-5.47431e-05
-4.06181e-05
-3.93339e-05
-2.88376e-05
-2.79585e-05
-2.07091e-05
-3.13243e-05
-1.41541e-05
-9.3369e-06
-8.85917e-06
-5.97998e-06
-5.72228e-06
-3.76645e-06
-3.59587e-06
-2.29958e-06
-2.18817e-06
-1.3593e-06
-1.28903e-06
-7.78786e-07
-7.36064e-07
-4.33157e-07
-4.08062e-07
-2.3395e-07
-2.19647e-07
-1.22214e-07
-1.14256e-07
-6.08305e-08
-5.63773e-08
-2.53706e-08
-2.286e-08
-6.08145e-09
-4.94884e-09
-3.22072e-10
-5.90231e-11
-1.33583e-11
2.93566e-09
0.177037
-0.00865154
-0.0180663
-0.0191243
-0.0172732
-0.0165522
-0.0130112
-0.0122368
-0.00999869
-0.0134299
-0.0072863
-0.00523511
-0.00477655
-0.00382037
-0.00358823
-0.00290853
-0.0027418
-0.00223206
-0.00210626
-0.0017174
-0.00162109
-0.00132181
-0.00124754
-0.00101614
-0.000958673
-0.000779412
-0.000734898
-0.000596032
-0.000561569
-0.000454133
-0.000427496
-0.000344557
-0.000324018
-0.000260172
-0.000244384
-0.000195397
-0.000183301
-0.000145854
-0.000136624
-0.000108113
-0.000101099
-7.94912e-05
-7.41868e-05
-5.78927e-05
-5.39034e-05
-4.16915e-05
-3.8721e-05
-2.96784e-05
-2.76805e-05
-2.20735e-05
-2.88788e-05
-1.51019e-05
-9.92332e-06
-8.75975e-06
-6.21625e-06
-5.61594e-06
-3.92003e-06
-3.52473e-06
-2.40186e-06
-2.14373e-06
-1.42532e-06
-1.26246e-06
-8.19807e-07
-7.20748e-07
-4.57715e-07
-3.99504e-07
-2.48169e-07
-2.14976e-07
-1.30214e-07
-1.11738e-07
-6.51914e-08
-5.4853e-08
-2.79183e-08
-2.2097e-08
-7.5624e-09
-4.93017e-09
-7.91653e-10
-1.68367e-10
-3.86825e-11
2.92732e-09
0.176513
-0.00904918
-0.0173348
-0.0187758
-0.0172983
-0.0163339
-0.013221
-0.0121858
-0.0103944
-0.0126748
-0.00757229
-0.00541056
-0.00476384
-0.00387956
-0.00356168
-0.00294774
-0.00272049
-0.00226114
-0.00208975
-0.00173949
-0.0016083
-0.00133878
-0.00123762
-0.00102925
-0.000950976
-0.000789566
-0.000728936
-0.000603901
-0.00055696
-0.000460226
-0.000423943
-0.000349265
-0.00032129
-0.000263801
-0.000242295
-0.000198184
-0.000181709
-0.000147988
-0.000135415
-0.00010974
-0.000100187
-8.07267e-05
-7.35012e-05
-5.88264e-05
-5.33923e-05
-4.2395e-05
-3.83507e-05
-3.02371e-05
-2.75468e-05
-2.29413e-05
-2.72565e-05
-1.57056e-05
-1.0349e-05
-8.71546e-06
-6.37474e-06
-5.55337e-06
-4.02156e-06
-3.48267e-06
-2.46954e-06
-2.1177e-06
-1.4691e-06
-1.24706e-06
-8.47077e-07
-7.11986e-07
-4.74077e-07
-3.94669e-07
-2.57659e-07
-2.12367e-07
-1.35561e-07
-1.10341e-07
-6.81034e-08
-5.39921e-08
-2.96211e-08
-2.16823e-08
-8.56712e-09
-4.97169e-09
-1.12059e-09
-2.57949e-10
-6.00762e-11
2.92024e-09
0.176145
-0.00927226
-0.0168771
-0.018544
-0.0173029
-0.0162014
-0.0133475
-0.012165
-0.0106272
-0.0122149
-0.00774058
-0.00552535
-0.00476058
-0.00391605
-0.00354693
-0.00297145
-0.00270844
-0.00227867
-0.00208039
-0.00175281
-0.00160103
-0.001349
-0.00123198
-0.00103714
-0.000946594
-0.000795681
-0.000725542
-0.00060864
-0.000554337
-0.000463895
-0.000421923
-0.000352101
-0.000319738
-0.000265987
-0.000241108
-0.000199864
-0.000180805
-0.000149274
-0.000134729
-0.000110722
-9.96691e-05
-8.14718e-05
-7.31128e-05
-5.93897e-05
-5.31031e-05
-4.28199e-05
-3.81428e-05
-3.05786e-05
-2.74893e-05
-2.34519e-05
-2.62686e-05
-1.60614e-05
-1.06257e-05
-8.69935e-06
-6.47237e-06
-5.51916e-06
-4.08331e-06
-3.45953e-06
-2.51073e-06
-2.1035e-06
-1.4958e-06
-1.23877e-06
-8.63739e-07
-7.07329e-07
-4.84093e-07
-3.92132e-07
-2.63477e-07
-2.11015e-07
-1.38843e-07
-1.09624e-07
-6.98893e-08
-5.35409e-08
-3.06661e-08
-2.14743e-08
-9.19088e-09
-5.02332e-09
-1.32993e-09
-3.20913e-10
-7.55073e-11
2.9151e-09
0.175955
-0.00937196
-0.0166567
-0.0184282
-0.0173016
-0.0161388
-0.013407
-0.0121581
-0.0107348
-0.0119974
-0.0078184
-0.00558203
-0.00476044
-0.00393347
-0.0035404
-0.00298262
-0.00270302
-0.00228692
-0.00207616
-0.00175906
-0.00159775
-0.0013538
-0.00122943
-0.00104085
-0.000944615
-0.000798554
-0.000724008
-0.000610867
-0.000553153
-0.000465619
-0.00042101
-0.000353434
-0.000319038
-0.000267014
-0.000240573
-0.000200654
-0.000180397
-0.000149879
-0.00013442
-0.000111183
-9.9436e-05
-8.18223e-05
-7.29379e-05
-5.96547e-05
-5.2973e-05
-4.30199e-05
-3.80498e-05
-3.07406e-05
-2.74693e-05
-2.36881e-05
-2.58014e-05
-1.62261e-05
-1.07618e-05
-8.69512e-06
-6.51894e-06
-5.50418e-06
-4.11252e-06
-3.44935e-06
-2.53022e-06
-2.0973e-06
-1.50845e-06
-1.23518e-06
-8.71644e-07
-7.05333e-07
-4.88849e-07
-3.91058e-07
-2.66242e-07
-2.10449e-07
-1.40404e-07
-1.09325e-07
-7.07385e-08
-5.33499e-08
-3.11632e-08
-2.13897e-08
-9.48976e-09
-5.05585e-09
-1.43182e-09
-3.53298e-10
-8.35761e-11
2.9124e-09
0.175955
-0.00937204
-0.0166568
-0.0184282
-0.0173016
-0.0161389
-0.013407
-0.0121581
-0.0107348
-0.0119974
-0.0078184
-0.00558203
-0.00476044
-0.00393347
-0.0035404
-0.00298262
-0.00270302
-0.00228692
-0.00207616
-0.00175906
-0.00159775
-0.0013538
-0.00122943
-0.00104085
-0.000944615
-0.000798554
-0.000724009
-0.000610867
-0.000553153
-0.000465619
-0.00042101
-0.000353434
-0.000319038
-0.000267014
-0.000240573
-0.000200654
-0.000180397
-0.000149879
-0.00013442
-0.000111183
-9.9436e-05
-8.18223e-05
-7.29379e-05
-5.96547e-05
-5.2973e-05
-4.30199e-05
-3.80498e-05
-3.07406e-05
-2.74693e-05
-2.36881e-05
-2.58014e-05
-1.62261e-05
-1.07618e-05
-8.69512e-06
-6.51894e-06
-5.50418e-06
-4.11252e-06
-3.44935e-06
-2.53022e-06
-2.0973e-06
-1.50845e-06
-1.23518e-06
-8.71643e-07
-7.05333e-07
-4.88849e-07
-3.91058e-07
-2.66242e-07
-2.10449e-07
-1.40404e-07
-1.09325e-07
-7.07385e-08
-5.33499e-08
-3.11632e-08
-2.13896e-08
-9.48974e-09
-5.05584e-09
-1.43181e-09
-3.53294e-10
-8.35727e-11
2.9124e-09
0.176145
-0.00927249
-0.0168772
-0.018544
-0.0173029
-0.0162014
-0.0133475
-0.012165
-0.0106272
-0.0122149
-0.00774058
-0.00552534
-0.00476058
-0.00391605
-0.00354693
-0.00297145
-0.00270844
-0.00227868
-0.00208039
-0.00175281
-0.00160103
-0.001349
-0.00123198
-0.00103714
-0.000946595
-0.000795681
-0.000725542
-0.00060864
-0.000554338
-0.000463895
-0.000421923
-0.000352101
-0.000319738
-0.000265987
-0.000241108
-0.000199864
-0.000180805
-0.000149274
-0.000134729
-0.000110722
-9.96691e-05
-8.14718e-05
-7.31128e-05
-5.93897e-05
-5.31031e-05
-4.28199e-05
-3.81428e-05
-3.05786e-05
-2.74893e-05
-2.34519e-05
-2.62686e-05
-1.60614e-05
-1.06257e-05
-8.69934e-06
-6.47237e-06
-5.51916e-06
-4.08331e-06
-3.45953e-06
-2.51073e-06
-2.1035e-06
-1.4958e-06
-1.23877e-06
-8.63739e-07
-7.07328e-07
-4.84092e-07
-3.92132e-07
-2.63476e-07
-2.11015e-07
-1.38843e-07
-1.09624e-07
-6.98892e-08
-5.35408e-08
-3.0666e-08
-2.14743e-08
-9.19084e-09
-5.02329e-09
-1.32991e-09
-3.20903e-10
-7.54981e-11
2.9151e-09
0.176514
-0.00904948
-0.0173349
-0.0187759
-0.0172984
-0.0163339
-0.013221
-0.0121858
-0.0103944
-0.0126748
-0.00757229
-0.00541056
-0.00476384
-0.00387956
-0.00356168
-0.00294774
-0.00272049
-0.00226114
-0.00208976
-0.00173949
-0.0016083
-0.00133878
-0.00123762
-0.00102925
-0.000950976
-0.000789567
-0.000728936
-0.000603902
-0.000556961
-0.000460226
-0.000423944
-0.000349265
-0.00032129
-0.000263801
-0.000242295
-0.000198184
-0.000181709
-0.000147988
-0.000135415
-0.000109741
-0.000100187
-8.07267e-05
-7.35012e-05
-5.88264e-05
-5.33923e-05
-4.2395e-05
-3.83507e-05
-3.02371e-05
-2.75468e-05
-2.29413e-05
-2.72565e-05
-1.57056e-05
-1.0349e-05
-8.71545e-06
-6.37473e-06
-5.55337e-06
-4.02155e-06
-3.48266e-06
-2.46954e-06
-2.11769e-06
-1.4691e-06
-1.24706e-06
-8.47076e-07
-7.11986e-07
-4.74077e-07
-3.94668e-07
-2.57658e-07
-2.12367e-07
-1.35561e-07
-1.10341e-07
-6.81032e-08
-5.3992e-08
-2.9621e-08
-2.16822e-08
-8.56708e-09
-4.97165e-09
-1.12057e-09
-2.57936e-10
-6.00641e-11
2.92024e-09
0.177037
-0.0086518
-0.0180663
-0.0191244
-0.0172732
-0.0165522
-0.0130113
-0.0122368
-0.0099987
-0.0134299
-0.0072863
-0.00523511
-0.00477655
-0.00382037
-0.00358823
-0.00290853
-0.0027418
-0.00223206
-0.00210626
-0.0017174
-0.00162109
-0.00132181
-0.00124754
-0.00101614
-0.000958673
-0.000779412
-0.000734899
-0.000596033
-0.000561569
-0.000454134
-0.000427496
-0.000344558
-0.000324019
-0.000260172
-0.000244384
-0.000195397
-0.000183301
-0.000145854
-0.000136624
-0.000108113
-0.0001011
-7.94912e-05
-7.41868e-05
-5.78927e-05
-5.39034e-05
-4.16915e-05
-3.8721e-05
-2.96784e-05
-2.76806e-05
-2.20735e-05
-2.88788e-05
-1.51019e-05
-9.92331e-06
-8.75974e-06
-6.21625e-06
-5.61593e-06
-3.92003e-06
-3.52473e-06
-2.40186e-06
-2.14373e-06
-1.42532e-06
-1.26245e-06
-8.19806e-07
-7.20748e-07
-4.57715e-07
-3.99504e-07
-2.48168e-07
-2.14976e-07
-1.30214e-07
-1.11738e-07
-6.51913e-08
-5.48529e-08
-2.79182e-08
-2.20969e-08
-7.56236e-09
-4.93014e-09
-7.91635e-10
-1.68356e-10
-3.86719e-11
2.92732e-09
0.177676
-0.00799318
-0.0191319
-0.0195891
-0.0172027
-0.0168832
-0.0126908
-0.0123463
-0.00937613
-0.014568
-0.00683656
-0.00499591
-0.00480914
-0.00373219
-0.00363266
-0.00284878
-0.00277682
-0.00218761
-0.00213327
-0.00168359
-0.00164199
-0.00129583
-0.00126374
-0.000996063
-0.000971236
-0.000763863
-0.000744631
-0.000583983
-0.000569093
-0.000444806
-0.000433297
-0.000337351
-0.000328478
-0.00025462
-0.000247799
-0.000191132
-0.000185906
-0.00014259
-0.000138602
-0.000105625
-0.000102595
-7.7603e-05
-7.53115e-05
-5.64665e-05
-5.47431e-05
-4.06181e-05
-3.93339e-05
-2.88376e-05
-2.79585e-05
-2.07091e-05
-3.13243e-05
-1.41541e-05
-9.3369e-06
-8.85916e-06
-5.97998e-06
-5.72228e-06
-3.76645e-06
-3.59587e-06
-2.29958e-06
-2.18817e-06
-1.3593e-06
-1.28903e-06
-7.78786e-07
-7.36064e-07
-4.33157e-07
-4.08062e-07
-2.3395e-07
-2.19647e-07
-1.22214e-07
-1.14256e-07
-6.08305e-08
-5.63773e-08
-2.53706e-08
-2.286e-08
-6.08144e-09
-4.94883e-09
-3.22065e-10
-5.90185e-11
-1.33539e-11
2.93566e-09
0.276007
-0.10601
-0.0154578
-0.0110384
-0.00876718
-0.00852788
-0.00834163
-0.00834416
-0.00823814
-0.0142894
-0.00755357
-0.00653872
-0.00641706
-0.00565892
-0.00557983
-0.00485352
-0.00478066
-0.0041103
-0.00404415
-0.00344547
-0.00338702
-0.0028649
-0.00281432
-0.00236677
-0.00232366
-0.00194495
-0.00190863
-0.00159129
-0.00156095
-0.00129706
-0.00127189
-0.00105377
-0.00103302
-0.000853623
-0.000836587
-0.000689666
-0.000675736
-0.000555854
-0.000544504
-0.000447013
-0.000437796
-0.00035877
-0.000351309
-0.000287456
-0.000281438
-0.000230027
-0.000225221
-0.000184109
-0.000180895
-0.000152309
-0.00024726
-0.000121936
-9.55727e-05
-9.27814e-05
-7.62029e-05
-7.46312e-05
-6.17716e-05
-6.05749e-05
-5.05655e-05
-4.96382e-05
-4.19006e-05
-4.1186e-05
-3.52497e-05
-3.47007e-05
-3.01476e-05
-2.97002e-05
-2.57291e-05
-2.52926e-05
-2.09219e-05
-2.04512e-05
-1.57668e-05
-1.53178e-05
-1.14438e-05
-1.09251e-05
-4.80948e-06
-4.2898e-06
-2.61523e-07
-4.66165e-08
-1.05044e-08
-7.59181e-07
0.273277
-0.0941584
-0.0224192
-0.0125202
-0.00927912
-0.00864036
-0.00839747
-0.00841697
-0.00868159
-0.0131278
-0.00796645
-0.00669417
-0.00639039
-0.00571667
-0.00553247
-0.0049051
-0.00473658
-0.00415825
-0.00400528
-0.00348865
-0.00335347
-0.00290279
-0.00278579
-0.0023994
-0.00229967
-0.00197265
-0.00188862
-0.00161456
-0.00154437
-0.00131645
-0.00125823
-0.00106982
-0.00102181
-0.000866846
-0.000827426
-0.000700508
-0.000668275
-0.00056471
-0.000538447
-0.000454223
-0.000432894
-0.00036462
-0.000347355
-0.000292189
-0.000278265
-0.000233862
-0.000222762
-0.000187537
-0.000180426
-0.000161505
-0.000227565
-0.000129305
-9.91256e-05
-9.22463e-05
-7.75381e-05
-7.38748e-05
-6.27399e-05
-5.9969e-05
-5.13171e-05
-4.91708e-05
-4.24828e-05
-4.08287e-05
-3.56963e-05
-3.44248e-05
-3.0479e-05
-2.94421e-05
-2.59959e-05
-2.49854e-05
-2.12145e-05
-2.01272e-05
-1.61022e-05
-1.50616e-05
-1.16666e-05
-1.04686e-05
-5.26855e-06
-4.07371e-06
-6.32026e-07
-1.32694e-07
-3.04104e-08
-7.65849e-07
0.271043
-0.0856732
-0.026907
-0.0137356
-0.0096869
-0.00873694
-0.00844277
-0.00847993
-0.00895772
-0.0123504
-0.00822372
-0.00681085
-0.00637847
-0.0057548
-0.00550279
-0.00493831
-0.00470886
-0.00418917
-0.00398092
-0.00351655
-0.00333252
-0.00292731
-0.00276802
-0.00242054
-0.00228475
-0.00199062
-0.00187619
-0.00162966
-0.00153409
-0.00132904
-0.00124977
-0.00108026
-0.00101487
-0.000875441
-0.00082176
-0.000707558
-0.000663663
-0.00057047
-0.000534705
-0.000458913
-0.000429868
-0.000368427
-0.000344915
-0.00029527
-0.000276309
-0.000236363
-0.000221266
-0.000189839
-0.000180428
-0.000167301
-0.000214442
-0.00013395
-0.000101746
-9.20237e-05
-7.8431e-05
-7.34168e-05
-6.33733e-05
-5.9598e-05
-5.18081e-05
-4.88847e-05
-4.28633e-05
-4.06104e-05
-3.59881e-05
-3.42556e-05
-3.06939e-05
-2.92801e-05
-2.61652e-05
-2.47884e-05
-2.13996e-05
-1.99205e-05
-1.63182e-05
-1.48995e-05
-1.18015e-05
-1.01721e-05
-5.56737e-06
-3.94746e-06
-8.84815e-07
-2.02879e-07
-4.72136e-08
-7.71515e-07
0.269475
-0.0802059
-0.0295707
-0.014586
-0.00997061
-0.0088072
-0.00847473
-0.00852517
-0.00911717
-0.0118738
-0.00837236
-0.00688823
-0.00637415
-0.00577801
-0.00548557
-0.00495806
-0.0046927
-0.00420758
-0.00396678
-0.0035332
-0.00332039
-0.00294197
-0.00275775
-0.00243319
-0.00227615
-0.00200138
-0.00186904
-0.00163872
-0.00152818
-0.00133659
-0.0012449
-0.00108651
-0.00101088
-0.000880596
-0.000818506
-0.000711788
-0.000661016
-0.000573928
-0.000532558
-0.000461729
-0.000428132
-0.000370713
-0.000343517
-0.000297121
-0.000275189
-0.000237868
-0.000220421
-0.000191259
-0.000180577
-0.000170685
-0.000206423
-0.000136661
-0.000103465
-9.19548e-05
-7.89798e-05
-7.31591e-05
-6.37553e-05
-5.93869e-05
-5.21039e-05
-4.8722e-05
-4.30926e-05
-4.04863e-05
-3.6164e-05
-3.41592e-05
-3.08225e-05
-2.91858e-05
-2.62646e-05
-2.46716e-05
-2.15081e-05
-1.97986e-05
-1.64467e-05
-1.48044e-05
-1.18776e-05
-9.99457e-06
-5.74672e-06
-3.87888e-06
-1.04235e-06
-2.51997e-07
-5.93239e-08
-7.75626e-07
0.268669
-0.0775286
-0.0308083
-0.0150215
-0.0101161
-0.00884411
-0.00849127
-0.00854865
-0.00918994
-0.0116473
-0.00844022
-0.00692672
-0.00637302
-0.005789
-0.00547768
-0.00496726
-0.00468528
-0.00421617
-0.00396029
-0.00354098
-0.00331484
-0.00294882
-0.00275306
-0.00243911
-0.00227222
-0.00200641
-0.00186578
-0.00164295
-0.00152548
-0.00134013
-0.00124269
-0.00108944
-0.00100907
-0.000883013
-0.000817028
-0.000713771
-0.000659814
-0.000575548
-0.000531583
-0.000463049
-0.000427345
-0.000371785
-0.000342883
-0.000297989
-0.000274681
-0.000238575
-0.000220041
-0.000191936
-0.000180692
-0.000172241
-0.000202622
-0.000137908
-0.000104316
-9.19431e-05
-7.92413e-05
-7.30438e-05
-6.39349e-05
-5.92916e-05
-5.22429e-05
-4.86486e-05
-4.32004e-05
-4.04304e-05
-3.62467e-05
-3.41156e-05
-3.08827e-05
-2.91426e-05
-2.63106e-05
-2.46173e-05
-2.15582e-05
-1.97421e-05
-1.65065e-05
-1.47605e-05
-1.19117e-05
-9.91149e-06
-5.83077e-06
-3.84898e-06
-1.11799e-06
-2.77188e-07
-6.56536e-08
-7.77785e-07
0.268669
-0.0775287
-0.0308083
-0.0150215
-0.0101161
-0.00884411
-0.00849127
-0.00854865
-0.00918994
-0.0116473
-0.00844022
-0.00692672
-0.00637302
-0.005789
-0.00547768
-0.00496727
-0.00468528
-0.00421617
-0.00396029
-0.00354098
-0.00331484
-0.00294882
-0.00275306
-0.00243911
-0.00227222
-0.00200641
-0.00186578
-0.00164295
-0.00152548
-0.00134013
-0.00124269
-0.00108944
-0.00100907
-0.000883013
-0.000817028
-0.000713771
-0.000659814
-0.000575548
-0.000531583
-0.000463049
-0.000427345
-0.000371785
-0.000342883
-0.000297989
-0.000274681
-0.000238575
-0.000220041
-0.000191936
-0.000180692
-0.000172241
-0.000202622
-0.000137908
-0.000104316
-9.19431e-05
-7.92413e-05
-7.30438e-05
-6.39349e-05
-5.92916e-05
-5.22429e-05
-4.86486e-05
-4.32004e-05
-4.04304e-05
-3.62467e-05
-3.41157e-05
-3.08827e-05
-2.91426e-05
-2.63106e-05
-2.46173e-05
-2.15582e-05
-1.97421e-05
-1.65065e-05
-1.47605e-05
-1.19117e-05
-9.91149e-06
-5.83077e-06
-3.84897e-06
-1.11799e-06
-2.77186e-07
-6.56531e-08
-7.77784e-07
0.269475
-0.0802062
-0.0295708
-0.014586
-0.00997061
-0.00880721
-0.00847474
-0.00852518
-0.00911718
-0.0118738
-0.00837237
-0.00688823
-0.00637415
-0.00577801
-0.00548557
-0.00495806
-0.0046927
-0.00420758
-0.00396678
-0.0035332
-0.00332039
-0.00294197
-0.00275775
-0.00243319
-0.00227615
-0.00200138
-0.00186904
-0.00163872
-0.00152818
-0.00133659
-0.0012449
-0.00108651
-0.00101088
-0.000880597
-0.000818507
-0.000711788
-0.000661017
-0.000573928
-0.000532559
-0.000461729
-0.000428133
-0.000370713
-0.000343517
-0.000297121
-0.000275189
-0.000237868
-0.000220421
-0.000191259
-0.000180577
-0.000170685
-0.000206423
-0.000136661
-0.000103465
-9.19548e-05
-7.89798e-05
-7.31592e-05
-6.37553e-05
-5.93869e-05
-5.21039e-05
-4.87221e-05
-4.30926e-05
-4.04864e-05
-3.6164e-05
-3.41592e-05
-3.08225e-05
-2.91859e-05
-2.62646e-05
-2.46716e-05
-2.15081e-05
-1.97986e-05
-1.64467e-05
-1.48044e-05
-1.18776e-05
-9.99456e-06
-5.74671e-06
-3.87887e-06
-1.04234e-06
-2.51992e-07
-5.93226e-08
-7.75623e-07
0.271044
-0.0856736
-0.026907
-0.0137356
-0.0096869
-0.00873695
-0.00844278
-0.00847994
-0.00895773
-0.0123504
-0.00822373
-0.00681085
-0.00637848
-0.0057548
-0.0055028
-0.00493831
-0.00470886
-0.00418917
-0.00398093
-0.00351655
-0.00333253
-0.00292731
-0.00276802
-0.00242054
-0.00228475
-0.00199062
-0.0018762
-0.00162967
-0.00153409
-0.00132904
-0.00124977
-0.00108026
-0.00101487
-0.000875441
-0.00082176
-0.000707558
-0.000663663
-0.000570471
-0.000534705
-0.000458913
-0.000429868
-0.000368427
-0.000344915
-0.00029527
-0.000276309
-0.000236363
-0.000221266
-0.00018984
-0.000180428
-0.000167302
-0.000214442
-0.00013395
-0.000101746
-9.20237e-05
-7.8431e-05
-7.34168e-05
-6.33734e-05
-5.9598e-05
-5.18081e-05
-4.88847e-05
-4.28633e-05
-4.06104e-05
-3.59882e-05
-3.42556e-05
-3.06939e-05
-2.92801e-05
-2.61652e-05
-2.47884e-05
-2.13996e-05
-1.99206e-05
-1.63182e-05
-1.48995e-05
-1.18015e-05
-1.01721e-05
-5.56736e-06
-3.94745e-06
-8.84806e-07
-2.02873e-07
-4.7212e-08
-7.71511e-07
0.273278
-0.0941587
-0.0224193
-0.0125202
-0.00927912
-0.00864036
-0.00839748
-0.00841698
-0.0086816
-0.0131278
-0.00796646
-0.00669418
-0.00639039
-0.00571667
-0.00553247
-0.00490511
-0.00473658
-0.00415826
-0.00400528
-0.00348865
-0.00335348
-0.00290279
-0.00278579
-0.0023994
-0.00229967
-0.00197265
-0.00188862
-0.00161456
-0.00154437
-0.00131645
-0.00125823
-0.00106983
-0.00102181
-0.000866846
-0.000827427
-0.000700509
-0.000668275
-0.00056471
-0.000538447
-0.000454223
-0.000432894
-0.00036462
-0.000347355
-0.000292189
-0.000278265
-0.000233862
-0.000222762
-0.000187538
-0.000180426
-0.000161506
-0.000227565
-0.000129305
-9.91256e-05
-9.22463e-05
-7.75382e-05
-7.38748e-05
-6.274e-05
-5.99691e-05
-5.13172e-05
-4.91708e-05
-4.24828e-05
-4.08288e-05
-3.56963e-05
-3.44248e-05
-3.0479e-05
-2.94421e-05
-2.59959e-05
-2.49854e-05
-2.12145e-05
-2.01272e-05
-1.61022e-05
-1.50616e-05
-1.16666e-05
-1.04686e-05
-5.26854e-06
-4.0737e-06
-6.32018e-07
-1.32689e-07
-3.04091e-08
-7.65846e-07
0.276007
-0.10601
-0.0154579
-0.0110384
-0.00876719
-0.00852788
-0.00834163
-0.00834417
-0.00823815
-0.0142894
-0.00755357
-0.00653872
-0.00641706
-0.00565892
-0.00557984
-0.00485352
-0.00478067
-0.00411031
-0.00404416
-0.00344547
-0.00338703
-0.0028649
-0.00281432
-0.00236677
-0.00232366
-0.00194495
-0.00190863
-0.00159129
-0.00156095
-0.00129706
-0.00127189
-0.00105377
-0.00103302
-0.000853624
-0.000836587
-0.000689667
-0.000675736
-0.000555854
-0.000544504
-0.000447013
-0.000437796
-0.00035877
-0.000351309
-0.000287456
-0.000281438
-0.000230027
-0.000225221
-0.000184109
-0.000180896
-0.000152309
-0.00024726
-0.000121936
-9.55727e-05
-9.27814e-05
-7.62029e-05
-7.46312e-05
-6.17716e-05
-6.05749e-05
-5.05656e-05
-4.96382e-05
-4.19006e-05
-4.1186e-05
-3.52498e-05
-3.47007e-05
-3.01476e-05
-2.97002e-05
-2.57291e-05
-2.52926e-05
-2.09219e-05
-2.04512e-05
-1.57668e-05
-1.53178e-05
-1.14438e-05
-1.09251e-05
-4.80947e-06
-4.2898e-06
-2.6152e-07
-4.66145e-08
-1.0504e-08
-7.5918e-07
0.27492
-0.106028
-0.0154246
-0.0110021
-0.00872193
-0.00848193
-0.00829265
-0.00829474
-0.00818671
-0.0141979
-0.00750395
-0.00649375
-0.0063727
-0.0056181
-0.00553941
-0.0048169
-0.00474445
-0.00407794
-0.00401218
-0.00341722
-0.00335915
-0.0028405
-0.00279027
-0.0023459
-0.0023031
-0.00192724
-0.00189119
-0.00157636
-0.00154627
-0.00128456
-0.00125961
-0.00104337
-0.0010228
-0.000845025
-0.000828144
-0.000682592
-0.000668793
-0.000550064
-0.000538824
-0.000442297
-0.000433171
-0.000354945
-0.00034756
-0.000284367
-0.000278412
-0.00022754
-0.000222785
-0.000182111
-0.000178932
-0.000150652
-0.00024457
-0.00012061
-9.4534e-05
-9.17733e-05
-7.53773e-05
-7.38229e-05
-6.11059e-05
-5.99226e-05
-5.00254e-05
-4.91085e-05
-4.14593e-05
-4.0753e-05
-3.48872e-05
-3.43448e-05
-2.98494e-05
-2.94079e-05
-2.54919e-05
-2.50612e-05
-2.07448e-05
-2.02795e-05
-1.56421e-05
-1.51976e-05
-1.13643e-05
-1.08499e-05
-4.7771e-06
-4.26102e-06
-2.59763e-07
-4.63026e-08
-1.04337e-08
-7.53758e-07
0.272191
-0.0941715
-0.0223901
-0.0124842
-0.00923476
-0.00859435
-0.00834864
-0.00836696
-0.00862745
-0.0130438
-0.00791416
-0.00664837
-0.00634613
-0.00567559
-0.0054923
-0.00486822
-0.00470062
-0.00412562
-0.00397355
-0.00346014
-0.00332583
-0.00287814
-0.00276195
-0.0023783
-0.00227929
-0.00195473
-0.00187134
-0.00159945
-0.00152983
-0.00130379
-0.00124607
-0.00105929
-0.0010117
-0.000858129
-0.00081907
-0.000693334
-0.000661405
-0.000558835
-0.000532827
-0.000449435
-0.00042832
-0.000360736
-0.000343648
-0.000289051
-0.000275272
-0.000231335
-0.000220352
-0.000185503
-0.000178467
-0.000159749
-0.00022509
-0.000127898
-9.80482e-05
-9.12442e-05
-7.66978e-05
-7.3075e-05
-6.20636e-05
-5.93235e-05
-5.07686e-05
-4.86465e-05
-4.20349e-05
-4.04001e-05
-3.53285e-05
-3.40725e-05
-3.01767e-05
-2.91535e-05
-2.57549e-05
-2.47576e-05
-2.10335e-05
-1.99585e-05
-1.59742e-05
-1.49441e-05
-1.15844e-05
-1.03963e-05
-5.23288e-06
-4.04633e-06
-6.27771e-07
-1.318e-07
-3.02055e-08
-7.60381e-07
0.269957
-0.0856827
-0.0268805
-0.0136999
-0.00964317
-0.00869093
-0.00839402
-0.00842945
-0.0089019
-0.0122714
-0.00816977
-0.0067644
-0.00633425
-0.00571354
-0.00546279
-0.00490126
-0.00467307
-0.00415636
-0.00394936
-0.00348787
-0.00330502
-0.00290251
-0.00274431
-0.00239929
-0.00226449
-0.00197257
-0.00185902
-0.00161444
-0.00151964
-0.00131628
-0.00123768
-0.00106963
-0.00100482
-0.000866648
-0.000813458
-0.000700319
-0.000656838
-0.000564541
-0.000529123
-0.00045408
-0.000425324
-0.000364505
-0.000341233
-0.000292101
-0.000273336
-0.00023381
-0.000218872
-0.00018778
-0.000178469
-0.000165482
-0.00021211
-0.000132493
-0.00010064
-9.10241e-05
-7.75809e-05
-7.26221e-05
-6.26899e-05
-5.89567e-05
-5.12541e-05
-4.83638e-05
-4.24111e-05
-4.01844e-05
-3.5617e-05
-3.39056e-05
-3.0389e-05
-2.89938e-05
-2.59217e-05
-2.45629e-05
-2.12161e-05
-1.97537e-05
-1.61879e-05
-1.47837e-05
-1.17175e-05
-1.01017e-05
-5.52954e-06
-3.92089e-06
-8.78857e-07
-2.01513e-07
-4.68956e-08
-7.66009e-07
0.268389
-0.0802132
-0.0295459
-0.0145506
-0.00992729
-0.00876119
-0.00842602
-0.00847438
-0.00906038
-0.0117978
-0.00831745
-0.00684135
-0.00632993
-0.00573665
-0.00544566
-0.00492091
-0.00465701
-0.00417467
-0.0039353
-0.00350442
-0.00329298
-0.00291707
-0.00273412
-0.00241185
-0.00225595
-0.00198325
-0.00185192
-0.00162342
-0.00151377
-0.00132377
-0.00123286
-0.00107584
-0.00100087
-0.000871758
-0.000810235
-0.00070451
-0.000654218
-0.000567965
-0.000526999
-0.000456868
-0.000423607
-0.000366768
-0.00033985
-0.000293932
-0.000272229
-0.000235299
-0.000218036
-0.000189185
-0.000178616
-0.000168829
-0.000204178
-0.000135175
-0.000102341
-9.0956e-05
-7.81237e-05
-7.23673e-05
-6.30677e-05
-5.8748e-05
-5.15466e-05
-4.8203e-05
-4.26379e-05
-4.00619e-05
-3.57908e-05
-3.38105e-05
-3.05161e-05
-2.89009e-05
-2.60197e-05
-2.44475e-05
-2.13232e-05
-1.96329e-05
-1.63151e-05
-1.46895e-05
-1.17925e-05
-9.92522e-06
-5.70758e-06
-3.85273e-06
-1.03532e-06
-2.503e-07
-5.89244e-08
-7.70092e-07
0.267583
-0.0775348
-0.0307842
-0.0149861
-0.010073
-0.0087981
-0.00844257
-0.0084977
-0.00913271
-0.0115728
-0.00838487
-0.00687963
-0.0063288
-0.00574759
-0.00543782
-0.00493008
-0.00464963
-0.00418321
-0.00392886
-0.00351215
-0.00328747
-0.00292388
-0.00272946
-0.00241773
-0.00225206
-0.00198824
-0.00184869
-0.00162762
-0.0015111
-0.00132728
-0.00123066
-0.00107874
-0.000999079
-0.000874153
-0.000808771
-0.000706475
-0.000653027
-0.000569571
-0.000526033
-0.000458176
-0.000422827
-0.000367829
-0.000339222
-0.000294792
-0.000271726
-0.000235999
-0.000217661
-0.000189855
-0.00017873
-0.000170368
-0.000200418
-0.000136408
-0.000103182
-9.09445e-05
-7.83823e-05
-7.22533e-05
-6.32453e-05
-5.86537e-05
-5.1684e-05
-4.81304e-05
-4.27445e-05
-4.00066e-05
-3.58726e-05
-3.37675e-05
-3.05755e-05
-2.88583e-05
-2.6065e-05
-2.43938e-05
-2.13725e-05
-1.95769e-05
-1.63743e-05
-1.46461e-05
-1.18261e-05
-9.84263e-06
-5.79103e-06
-3.82301e-06
-1.11046e-06
-2.75321e-07
-6.52114e-08
-7.72236e-07
0.267583
-0.0775349
-0.0307842
-0.0149861
-0.010073
-0.0087981
-0.00844258
-0.0084977
-0.00913271
-0.0115728
-0.00838487
-0.00687963
-0.0063288
-0.00574759
-0.00543782
-0.00493008
-0.00464963
-0.00418321
-0.00392886
-0.00351215
-0.00328747
-0.00292388
-0.00272946
-0.00241773
-0.00225206
-0.00198825
-0.00184869
-0.00162762
-0.0015111
-0.00132728
-0.00123066
-0.00107874
-0.000999079
-0.000874153
-0.000808771
-0.000706475
-0.000653027
-0.000569571
-0.000526034
-0.000458176
-0.000422828
-0.000367829
-0.000339222
-0.000294792
-0.000271726
-0.000235999
-0.000217661
-0.000189855
-0.00017873
-0.000170368
-0.000200418
-0.000136408
-0.000103182
-9.09445e-05
-7.83823e-05
-7.22533e-05
-6.32453e-05
-5.86537e-05
-5.16841e-05
-4.81304e-05
-4.27445e-05
-4.00067e-05
-3.58726e-05
-3.37676e-05
-3.05755e-05
-2.88583e-05
-2.6065e-05
-2.43939e-05
-2.13725e-05
-1.95769e-05
-1.63743e-05
-1.46461e-05
-1.18261e-05
-9.84263e-06
-5.79102e-06
-3.82301e-06
-1.11046e-06
-2.75319e-07
-6.52109e-08
-7.72235e-07
0.268389
-0.0802134
-0.0295459
-0.0145506
-0.00992729
-0.0087612
-0.00842603
-0.00847439
-0.00906039
-0.0117978
-0.00831746
-0.00684135
-0.00632993
-0.00573665
-0.00544567
-0.00492092
-0.00465701
-0.00417467
-0.00393531
-0.00350442
-0.00329298
-0.00291707
-0.00273412
-0.00241185
-0.00225595
-0.00198325
-0.00185192
-0.00162342
-0.00151377
-0.00132377
-0.00123286
-0.00107584
-0.00100088
-0.000871759
-0.000810236
-0.000704511
-0.000654218
-0.000567966
-0.000526999
-0.000456869
-0.000423607
-0.000366768
-0.00033985
-0.000293933
-0.000272229
-0.0002353
-0.000218036
-0.000189185
-0.000178617
-0.000168829
-0.000204178
-0.000135175
-0.000102341
-9.0956e-05
-7.81237e-05
-7.23673e-05
-6.30677e-05
-5.8748e-05
-5.15466e-05
-4.8203e-05
-4.26379e-05
-4.00619e-05
-3.57908e-05
-3.38105e-05
-3.05161e-05
-2.8901e-05
-2.60197e-05
-2.44475e-05
-2.13232e-05
-1.96329e-05
-1.63151e-05
-1.46895e-05
-1.17925e-05
-9.92521e-06
-5.70758e-06
-3.85272e-06
-1.03532e-06
-2.50295e-07
-5.89231e-08
-7.70089e-07
0.269958
-0.0856831
-0.0268806
-0.0136999
-0.00964317
-0.00869093
-0.00839403
-0.00842947
-0.00890191
-0.0122714
-0.00816977
-0.0067644
-0.00633425
-0.00571355
-0.0054628
-0.00490126
-0.00467307
-0.00415636
-0.00394936
-0.00348787
-0.00330503
-0.00290251
-0.00274431
-0.00239929
-0.00226449
-0.00197257
-0.00185902
-0.00161444
-0.00151964
-0.00131628
-0.00123768
-0.00106964
-0.00100482
-0.000866648
-0.000813458
-0.000700319
-0.000656839
-0.000564541
-0.000529124
-0.00045408
-0.000425325
-0.000364505
-0.000341233
-0.000292101
-0.000273336
-0.00023381
-0.000218873
-0.000187781
-0.00017847
-0.000165482
-0.00021211
-0.000132493
-0.00010064
-9.10241e-05
-7.75809e-05
-7.26221e-05
-6.269e-05
-5.89567e-05
-5.12541e-05
-4.83638e-05
-4.24112e-05
-4.01844e-05
-3.5617e-05
-3.39056e-05
-3.0389e-05
-2.89938e-05
-2.59217e-05
-2.45629e-05
-2.12162e-05
-1.97537e-05
-1.61879e-05
-1.47837e-05
-1.17175e-05
-1.01017e-05
-5.52953e-06
-3.92088e-06
-8.78848e-07
-2.01507e-07
-4.6894e-08
-7.66005e-07
0.272191
-0.0941718
-0.0223901
-0.0124842
-0.00923477
-0.00859436
-0.00834865
-0.00836697
-0.00862746
-0.0130438
-0.00791416
-0.00664837
-0.00634613
-0.00567559
-0.00549231
-0.00486823
-0.00470063
-0.00412562
-0.00397356
-0.00346014
-0.00332583
-0.00287815
-0.00276195
-0.0023783
-0.00227929
-0.00195473
-0.00187134
-0.00159945
-0.00152983
-0.00130379
-0.00124607
-0.00105929
-0.0010117
-0.00085813
-0.00081907
-0.000693334
-0.000661405
-0.000558836
-0.000532828
-0.000449436
-0.00042832
-0.000360736
-0.000343648
-0.000289051
-0.000275272
-0.000231335
-0.000220352
-0.000185503
-0.000178468
-0.000159749
-0.00022509
-0.000127898
-9.80483e-05
-9.12442e-05
-7.66979e-05
-7.3075e-05
-6.20636e-05
-5.93235e-05
-5.07686e-05
-4.86465e-05
-4.20349e-05
-4.04001e-05
-3.53285e-05
-3.40725e-05
-3.01768e-05
-2.91535e-05
-2.57549e-05
-2.47576e-05
-2.10335e-05
-1.99585e-05
-1.59742e-05
-1.49441e-05
-1.15844e-05
-1.03963e-05
-5.23287e-06
-4.04632e-06
-6.27764e-07
-1.31795e-07
-3.02043e-08
-7.60378e-07
0.27492
-0.106028
-0.0154246
-0.0110021
-0.00872193
-0.00848194
-0.00829265
-0.00829474
-0.00818672
-0.0141979
-0.00750395
-0.00649376
-0.00637271
-0.00561811
-0.00553942
-0.0048169
-0.00474445
-0.00407794
-0.00401218
-0.00341722
-0.00335915
-0.0028405
-0.00279027
-0.0023459
-0.0023031
-0.00192724
-0.00189119
-0.00157636
-0.00154627