/*--------------------------------*- C++ -*----------------------------------*\
| =========                 |                                                 |
| \\      /  F ield         | OpenFOAM: The Open Source CFD Toolbox           |
|  \\    /   O peration     | Version:  5.x                                   |
|   \\  /    A nd           | Web:      www.OpenFOAM.org                      |
|    \\/     M anipulation  |                                                 |
\*---------------------------------------------------------------------------*/
FoamFile
{
    version     2.0;
    format      ascii;
    class       volScalarField;
    location    "1.8";
    object      T;
}
// * * * * * * * * * * * * * * * * * * * * * * * * * * * * * * * * * * * * * //

dimensions      [0 0 0 1 0 0 0];

internalField   nonuniform List<scalar> 
3200
(
0.00922052
0.00854704
0.00842121
0.00663384
0.0064623
0.00491357
0.00477398
0.0036445
0.00353935
0.00270689
0.00208255
0.00202323
0.00158296
0.00154232
0.00120974
0.00117905
0.000924866
0.000901371
0.000706105
0.000688044
0.000537746
0.000523845
0.000408164
0.000397471
0.000308557
0.000300347
0.000232171
0.000225884
0.000173773
0.000168975
0.000129292
0.000125645
9.55571e-05
9.27975e-05
7.00951e-05
6.80177e-05
5.09819e-05
4.9427e-05
3.67229e-05
3.55668e-05
2.61604e-05
2.53073e-05
1.84001e-05
1.77761e-05
1.27534e-05
1.23018e-05
8.69161e-06
8.36842e-06
5.80785e-06
5.57257e-06
3.73694e-06
2.44015e-06
2.32153e-06
1.50646e-06
1.43562e-06
9.08459e-07
8.63388e-07
5.31813e-07
5.03801e-07
3.01856e-07
2.84984e-07
1.65926e-07
1.56081e-07
8.80471e-08
8.24744e-08
4.47314e-08
4.16682e-08
2.13363e-08
1.97035e-08
9.1149e-09
8.27786e-09
3.03184e-09
2.64012e-09
4.94783e-10
3.54125e-10
-1.13362e-10
-1.40759e-10
-1.45569e-10
-1.46661e-10
-1.46905e-10
0.00913986
0.00856382
0.00827471
0.0067572
0.00636228
0.00502988
0.00470706
0.00372875
0.00348338
0.00272888
0.00214038
0.00200025
0.00161687
0.0015226
0.00123484
0.00116378
0.000943984
0.000889596
0.000720778
0.000678971
0.000549038
0.000516862
0.000416857
0.000392108
0.000315243
0.00029624
0.000237302
0.00022275
0.000177699
0.000166594
0.000132286
0.000123844
9.78299e-05
9.14421e-05
7.18127e-05
6.70038e-05
5.2273e-05
4.86736e-05
3.76877e-05
3.50113e-05
2.68763e-05
2.49013e-05
1.89272e-05
1.74826e-05
1.31379e-05
1.20923e-05
8.96879e-06
8.22021e-06
6.00095e-06
5.45215e-06
3.7936e-06
2.56427e-06
2.28342e-06
1.57194e-06
1.40744e-06
9.50315e-07
8.45847e-07
5.58312e-07
4.93374e-07
3.18126e-07
2.79001e-07
1.75594e-07
1.52756e-07
9.36133e-08
8.06807e-08
4.78418e-08
4.07302e-08
2.30249e-08
1.92326e-08
1.00035e-08
8.05884e-09
3.48438e-09
2.57354e-09
6.92553e-10
3.63842e-10
-6.36865e-11
-1.29176e-10
-1.42852e-10
-1.46012e-10
-1.4672e-10
0.00908222
0.00856908
0.0081773
0.0068356
0.00629972
0.00510577
0.00466633
0.00378367
0.00344775
0.00274422
0.00218026
0.00198699
0.00163921
0.00151061
0.00125125
0.00115444
0.000956478
0.000882394
0.000730365
0.000673418
0.000556415
0.000512588
0.000422538
0.000388826
0.000319613
0.000293729
0.000240656
0.000220835
0.000180266
0.000165139
0.000134244
0.000122745
9.9317e-05
9.06158e-05
7.29369e-05
6.63863e-05
5.31185e-05
4.82154e-05
3.83198e-05
3.46738e-05
2.73457e-05
2.46552e-05
1.9273e-05
1.73051e-05
1.33904e-05
1.19658e-05
9.15091e-06
8.13076e-06
6.12719e-06
5.37608e-06
3.83307e-06
2.65044e-06
2.26251e-06
1.61553e-06
1.39096e-06
9.78057e-07
8.35623e-07
5.75902e-07
4.87357e-07
3.28948e-07
2.75587e-07
1.82038e-07
1.50881e-07
9.73304e-08
7.96826e-08
4.99226e-08
4.02157e-08
2.41568e-08
1.8979e-08
1.06007e-08
7.94494e-09
3.79032e-09
2.54573e-09
8.28216e-10
3.77503e-10
-2.84963e-11
-1.19666e-10
-1.40555e-10
-1.45461e-10
-1.46563e-10
0.00904504
0.00856942
0.00811782
0.00688171
0.00626342
0.00515142
0.00464328
0.00381667
0.00342678
0.00275395
0.00220529
0.00197989
0.00165276
0.00150384
0.00126115
0.00114914
0.000964008
0.0008783
0.00073614
0.000670261
0.00056086
0.000510159
0.00042596
0.000386961
0.000322246
0.000292302
0.000242678
0.000219747
0.000181814
0.000164314
0.000135424
0.000122121
0.000100214
9.01476e-05
7.36152e-05
6.60368e-05
5.36288e-05
4.79563e-05
3.87014e-05
3.44833e-05
2.76293e-05
2.45164e-05
1.94821e-05
1.72051e-05
1.35431e-05
1.18948e-05
9.26112e-06
8.08056e-06
6.20326e-06
5.33164e-06
3.85807e-06
2.70478e-06
2.25193e-06
1.64221e-06
1.382e-06
9.94968e-07
8.30081e-07
5.86637e-07
4.84128e-07
3.35564e-07
2.73778e-07
1.85984e-07
1.49901e-07
9.96099e-08
7.9168e-08
5.12007e-08
3.99548e-08
2.4853e-08
1.88533e-08
1.09687e-08
7.89088e-09
3.97979e-09
2.53679e-09
9.13183e-10
3.89362e-10
-5.90497e-12
-1.1297e-10
-1.38898e-10
-1.45061e-10
-1.46448e-10
0.00902682
0.00856869
0.00808962
0.00690302
0.0062468
0.00517286
0.00463291
0.00383215
0.0034171
0.00275868
0.00221736
0.00197684
0.00165916
0.00150079
0.00126581
0.00114675
0.000967547
0.000876453
0.000738855
0.000668837
0.000562949
0.000509062
0.000427568
0.000386119
0.000323483
0.000291658
0.000243628
0.000219257
0.000182541
0.000163942
0.000135979
0.000121841
0.000100636
8.99368e-05
7.39343e-05
6.58795e-05
5.38689e-05
4.78398e-05
3.88811e-05
3.43978e-05
2.77628e-05
2.44542e-05
1.95805e-05
1.71604e-05
1.36151e-05
1.18631e-05
9.31308e-06
8.05812e-06
6.23902e-06
5.31119e-06
3.87021e-06
2.73105e-06
2.2476e-06
1.65487e-06
1.37809e-06
1.00298e-06
8.27669e-07
5.91725e-07
4.82734e-07
3.38703e-07
2.73004e-07
1.87858e-07
1.49487e-07
1.00694e-07
7.89532e-08
5.18089e-08
3.98474e-08
2.51847e-08
1.88025e-08
1.11443e-08
7.87002e-09
4.07045e-09
2.53503e-09
9.54127e-10
3.96064e-10
5.15123e-12
-1.09522e-10
-1.38031e-10
-1.44852e-10
-1.46388e-10
0.00902682
0.0085687
0.00808962
0.00690302
0.0062468
0.00517286
0.00463291
0.00383215
0.0034171
0.00275868
0.00221736
0.00197684
0.00165916
0.00150079
0.00126581
0.00114675
0.000967547
0.000876453
0.000738855
0.000668837
0.000562949
0.000509062
0.000427568
0.000386119
0.000323483
0.000291658
0.000243628
0.000219257
0.000182541
0.000163942
0.000135979
0.000121841
0.000100636
8.99368e-05
7.39343e-05
6.58795e-05
5.38689e-05
4.78398e-05
3.88811e-05
3.43978e-05
2.77628e-05
2.44542e-05
1.95805e-05
1.71604e-05
1.36151e-05
1.18631e-05
9.31308e-06
8.05812e-06
6.23902e-06
5.31119e-06
3.87021e-06
2.73105e-06
2.2476e-06
1.65487e-06
1.37809e-06
1.00298e-06
8.27669e-07
5.91725e-07
4.82734e-07
3.38703e-07
2.73004e-07
1.87858e-07
1.49486e-07
1.00694e-07
7.89532e-08
5.18089e-08
3.98474e-08
2.51847e-08
1.88025e-08
1.11443e-08
7.87001e-09
4.07045e-09
2.53503e-09
9.54125e-10
3.96062e-10
5.15034e-12
-1.09522e-10
-1.38031e-10
-1.44852e-10
-1.46388e-10
0.00904507
0.00856943
0.00811782
0.00688171
0.00626342
0.00515142
0.00464328
0.00381667
0.00342678
0.00275395
0.00220529
0.0019799
0.00165276
0.00150384
0.00126115
0.00114914
0.000964008
0.0008783
0.000736141
0.000670262
0.00056086
0.000510159
0.00042596
0.000386961
0.000322246
0.000292302
0.000242678
0.000219747
0.000181814
0.000164314
0.000135424
0.000122121
0.000100214
9.01476e-05
7.36152e-05
6.60368e-05
5.36288e-05
4.79563e-05
3.87014e-05
3.44833e-05
2.76293e-05
2.45164e-05
1.94821e-05
1.72051e-05
1.35431e-05
1.18948e-05
9.26112e-06
8.08056e-06
6.20326e-06
5.33163e-06
3.85807e-06
2.70477e-06
2.25193e-06
1.6422e-06
1.382e-06
9.94967e-07
8.30081e-07
5.86636e-07
4.84128e-07
3.35563e-07
2.73777e-07
1.85984e-07
1.49901e-07
9.96098e-08
7.91679e-08
5.12006e-08
3.99547e-08
2.4853e-08
1.88532e-08
1.09687e-08
7.89087e-09
3.97978e-09
2.53679e-09
9.13177e-10
3.89358e-10
-5.90737e-12
-1.12971e-10
-1.38898e-10
-1.45062e-10
-1.46448e-10
0.00908225
0.0085691
0.00817731
0.00683561
0.00629972
0.00510577
0.00466633
0.00378367
0.00344775
0.00274422
0.00218027
0.001987
0.00163921
0.00151061
0.00125125
0.00115444
0.000956479
0.000882394
0.000730365
0.000673419
0.000556416
0.000512589
0.000422538
0.000388826
0.000319613
0.000293729
0.000240656
0.000220835
0.000180266
0.000165139
0.000134244
0.000122745
9.9317e-05
9.06158e-05
7.29369e-05
6.63863e-05
5.31185e-05
4.82154e-05
3.83198e-05
3.46738e-05
2.73457e-05
2.46552e-05
1.9273e-05
1.73051e-05
1.33904e-05
1.19658e-05
9.15091e-06
8.13076e-06
6.12719e-06
5.37608e-06
3.83307e-06
2.65043e-06
2.26251e-06
1.61553e-06
1.39096e-06
9.78056e-07
8.35623e-07
5.75901e-07
4.87356e-07
3.28948e-07
2.75587e-07
1.82038e-07
1.50881e-07
9.73302e-08
7.96825e-08
4.99226e-08
4.02157e-08
2.41567e-08
1.8979e-08
1.06006e-08
7.94492e-09
3.79031e-09
2.54572e-09
8.28208e-10
3.77497e-10
-2.84994e-11
-1.19668e-10
-1.40556e-10
-1.45462e-10
-1.46562e-10
0.00913989
0.00856383
0.00827471
0.0067572
0.00636228
0.00502988
0.00470706
0.00372876
0.00348338
0.00272889
0.00214039
0.00200026
0.00161687
0.0015226
0.00123484
0.00116378
0.000943984
0.000889597
0.000720778
0.000678971
0.000549038
0.000516862
0.000416857
0.000392108
0.000315244
0.00029624
0.000237302
0.000222751
0.000177699
0.000166594
0.000132286
0.000123844
9.78299e-05
9.14422e-05
7.18127e-05
6.70038e-05
5.2273e-05
4.86736e-05
3.76877e-05
3.50113e-05
2.68763e-05
2.49013e-05
1.89272e-05
1.74826e-05
1.31379e-05
1.20923e-05
8.96879e-06
8.22021e-06
6.00095e-06
5.45215e-06
3.7936e-06
2.56427e-06
2.28341e-06
1.57194e-06
1.40744e-06
9.50314e-07
8.45847e-07
5.58311e-07
4.93374e-07
3.18125e-07
2.79001e-07
1.75594e-07
1.52755e-07
9.36132e-08
8.06806e-08
4.78417e-08
4.07302e-08
2.30249e-08
1.92326e-08
1.00035e-08
8.05882e-09
3.48436e-09
2.57353e-09
6.92546e-10
3.63837e-10
-6.36891e-11
-1.29177e-10
-1.42853e-10
-1.46013e-10
-1.4672e-10
0.00922053
0.00854704
0.00842121
0.00663385
0.0064623
0.00491358
0.00477398
0.0036445
0.00353935
0.00270689
0.00208256
0.00202323
0.00158296
0.00154232
0.00120974
0.00117905
0.000924866
0.000901371
0.000706106
0.000688044
0.000537747
0.000523845
0.000408164
0.000397471
0.000308557
0.000300347
0.000232171
0.000225884
0.000173773
0.000168975
0.000129292
0.000125645
9.55571e-05
9.27976e-05
7.00951e-05
6.80177e-05
5.09819e-05
4.94271e-05
3.67229e-05
3.55668e-05
2.61604e-05
2.53073e-05
1.84001e-05
1.77761e-05
1.27534e-05
1.23018e-05
8.69161e-06
8.36843e-06
5.80785e-06
5.57257e-06
3.73694e-06
2.44015e-06
2.32153e-06
1.50646e-06
1.43562e-06
9.08459e-07
8.63388e-07
5.31813e-07
5.03801e-07
3.01856e-07
2.84984e-07
1.65926e-07
1.56081e-07
8.8047e-08
8.24744e-08
4.47314e-08
4.16682e-08
2.13363e-08
1.97035e-08
9.11489e-09
8.27785e-09
3.03184e-09
2.64012e-09
4.94781e-10
3.54124e-10
-1.13363e-10
-1.40759e-10
-1.4557e-10
-1.46661e-10
-1.46905e-10
0.0188276
0.00877311
0.00822662
0.00722732
0.00712278
0.0063506
0.00626999
0.00551644
0.00543558
0.00469263
0.00400663
0.00393727
0.00335276
0.00329556
0.00278687
0.00273758
0.00230152
0.00225951
0.00189049
0.0018551
0.00154594
0.0015164
0.00125945
0.00123496
0.00102277
0.0010026
0.000828279
0.000811734
0.000669151
0.000655639
0.000539445
0.00052845
0.000434068
0.000425148
0.000348706
0.000341489
0.000279739
0.000273916
0.000224154
0.000219465
0.000179452
0.000175686
0.000143575
0.000140555
0.00011483
0.000112411
9.18271e-05
8.98888e-05
7.34162e-05
7.17992e-05
5.81853e-05
4.70732e-05
4.59916e-05
3.7516e-05
3.67135e-05
2.98957e-05
2.92504e-05
2.37185e-05
2.31929e-05
1.8662e-05
1.82291e-05
1.44719e-05
1.41105e-05
1.09469e-05
1.06404e-05
7.93216e-06
7.67036e-06
5.35925e-06
5.1411e-06
3.26707e-06
3.09598e-06
1.69039e-06
1.5642e-06
5.46013e-07
4.71697e-07
6.50658e-08
4.27167e-08
3.89135e-08
3.8055e-08
3.78631e-08
0.0177513
0.00957646
0.00833544
0.00733454
0.00708341
0.00640663
0.00621938
0.00556688
0.00537768
0.00469872
0.0040649
0.00390207
0.00339548
0.00326304
0.00282382
0.00270979
0.00233331
0.00223613
0.00191748
0.0018356
0.00156862
0.00150026
0.00127834
0.00122168
0.0010384
0.000991711
0.000841133
0.000802849
0.000679677
0.000648412
0.000548032
0.000522589
0.00044105
0.000420408
0.000354365
0.000337666
0.000284314
0.000270838
0.000227843
0.000216994
0.000182421
0.000173704
0.000145959
0.000138969
0.00011674
0.000111142
9.33539e-05
8.88661e-05
7.46002e-05
7.08234e-05
5.84496e-05
4.80669e-05
4.55191e-05
3.81544e-05
3.62945e-05
3.04005e-05
2.8907e-05
2.41266e-05
2.29101e-05
1.89948e-05
1.7993e-05
1.47466e-05
1.39102e-05
1.11769e-05
1.04677e-05
8.12904e-06
7.52348e-06
5.52945e-06
5.02495e-06
3.408e-06
3.01223e-06
1.79778e-06
1.50607e-06
6.31113e-07
4.59211e-07
1.04258e-07
5.18402e-08
4.10551e-08
3.85708e-08
3.80141e-08
0.0170019
0.0101024
0.0084346
0.00741172
0.00706103
0.00644303
0.00618734
0.00559875
0.00533934
0.00470298
0.0041043
0.00388061
0.00342322
0.00324276
0.00284774
0.00269248
0.00235391
0.0022216
0.00193499
0.0018235
0.00158334
0.00149025
0.0012906
0.00121345
0.00104855
0.000984975
0.000849488
0.000797355
0.000686522
0.000643946
0.000553618
0.000518969
0.000445592
0.000417482
0.000358048
0.000335306
0.000287292
0.00026894
0.000230245
0.00021547
0.000184354
0.000172483
0.000147511
0.000137991
0.000117984
0.000110361
9.43481e-05
8.82339e-05
7.53641e-05
7.01911e-05
5.8634e-05
4.87469e-05
4.5239e-05
3.85723e-05
3.60366e-05
3.07292e-05
2.8695e-05
2.43919e-05
2.27352e-05
1.92111e-05
1.78467e-05
1.49247e-05
1.37857e-05
1.13259e-05
1.03601e-05
8.25653e-06
7.4321e-06
5.64002e-06
4.95326e-06
3.50006e-06
2.9612e-06
1.86824e-06
1.47126e-06
6.88082e-07
4.54043e-07
1.31345e-07
5.92969e-08
4.28638e-08
3.9009e-08
3.81425e-08
0.0165285
0.010419
0.00850788
0.00746194
0.00704928
0.00646488
0.00616856
0.00561741
0.00531604
0.00470569
0.00412866
0.00386845
0.00343984
0.00323104
0.00286204
0.00268248
0.00236623
0.00221321
0.00194547
0.00181653
0.00159215
0.00148449
0.00129796
0.00120872
0.00105464
0.000981105
0.000854501
0.000794201
0.00069063
0.000641384
0.000556971
0.000516894
0.00044832
0.000415805
0.00036026
0.000333954
0.000289081
0.000267853
0.000231688
0.000214597
0.000185515
0.000171784
0.000148444
0.000137432
0.000118732
0.000109913
9.49452e-05
8.78711e-05
7.58194e-05
6.98134e-05
5.87509e-05
4.91711e-05
4.50848e-05
3.88246e-05
3.58893e-05
3.09266e-05
2.85734e-05
2.45511e-05
2.26347e-05
1.93407e-05
1.77625e-05
1.50314e-05
1.37138e-05
1.1415e-05
1.02979e-05
8.33277e-06
7.37933e-06
5.70631e-06
4.91217e-06
3.5555e-06
2.93231e-06
1.91083e-06
1.45187e-06
7.23074e-07
4.52414e-07
1.48403e-07
6.45266e-08
4.41681e-08
3.93269e-08
3.82357e-08
0.0162993
0.0105676
0.00854645
0.00748674
0.0070443
0.00647513
0.00615989
0.005626
0.00530503
0.00470701
0.0041403
0.00386298
0.00344763
0.00322568
0.00286873
0.00267791
0.002372
0.00220939
0.00195038
0.00181336
0.00159628
0.00148187
0.0013014
0.00120657
0.00105749
0.000979345
0.000856851
0.000792768
0.000692555
0.000640219
0.000558543
0.000515951
0.000449598
0.000415044
0.000361297
0.000333341
0.00028992
0.000267359
0.000232365
0.000214201
0.00018606
0.000171467
0.000148882
0.000137178
0.000119083
0.00010971
9.52254e-05
8.77062e-05
7.60317e-05
6.96371e-05
5.88076e-05
4.93749e-05
4.50168e-05
3.89433e-05
3.58225e-05
3.10192e-05
2.85181e-05
2.46257e-05
2.2589e-05
1.94014e-05
1.77241e-05
1.50814e-05
1.36811e-05
1.14567e-05
1.02695e-05
8.36842e-06
7.35526e-06
5.73736e-06
4.89352e-06
3.58155e-06
2.91931e-06
1.9309e-06
1.44326e-06
7.39726e-07
4.5211e-07
1.56649e-07
6.72126e-08
4.485e-08
3.94938e-08
3.82847e-08
0.0162993
0.0105676
0.00854645
0.00748674
0.0070443
0.00647513
0.00615989
0.005626
0.00530503
0.00470701
0.0041403
0.00386299
0.00344763
0.00322568
0.00286873
0.00267792
0.002372
0.00220939
0.00195038
0.00181336
0.00159629
0.00148187
0.0013014
0.00120657
0.00105749
0.000979345
0.000856851
0.000792768
0.000692555
0.000640219
0.000558543
0.000515951
0.000449598
0.000415044
0.000361297
0.000333341
0.00028992
0.00026736
0.000232365
0.000214201
0.00018606
0.000171467
0.000148882
0.000137178
0.000119083
0.00010971
9.52254e-05
8.77062e-05
7.60317e-05
6.96371e-05
5.88077e-05
4.93749e-05
4.50168e-05
3.89433e-05
3.58225e-05
3.10192e-05
2.85181e-05
2.46257e-05
2.2589e-05
1.94014e-05
1.77241e-05
1.50814e-05
1.36811e-05
1.14567e-05
1.02695e-05
8.36842e-06
7.35526e-06
5.73736e-06
4.89352e-06
3.58155e-06
2.91931e-06
1.9309e-06
1.44326e-06
7.39726e-07
4.5211e-07
1.56649e-07
6.72124e-08
4.48499e-08
3.94938e-08
3.82846e-08
0.0165285
0.010419
0.00850788
0.00746194
0.00704928
0.00646488
0.00616856
0.00561741
0.00531604
0.00470569
0.00412866
0.00386845
0.00343984
0.00323104
0.00286204
0.00268248
0.00236623
0.00221321
0.00194548
0.00181653
0.00159216
0.0014845
0.00129796
0.00120872
0.00105464
0.000981105
0.000854502
0.000794202
0.00069063
0.000641384
0.000556971
0.000516894
0.00044832
0.000415805
0.00036026
0.000333955
0.000289081
0.000267853
0.000231688
0.000214597
0.000185515
0.000171784
0.000148444
0.000137432
0.000118732
0.000109913
9.49453e-05
8.78711e-05
7.58194e-05
6.98134e-05
5.87509e-05
4.91711e-05
4.50848e-05
3.88246e-05
3.58893e-05
3.09266e-05
2.85734e-05
2.45511e-05
2.26347e-05
1.93407e-05
1.77625e-05
1.50314e-05
1.37138e-05
1.1415e-05
1.02979e-05
8.33277e-06
7.37933e-06
5.70631e-06
4.91217e-06
3.5555e-06
2.93231e-06
1.91083e-06
1.45187e-06
7.23073e-07
4.52413e-07
1.48402e-07
6.4526e-08
4.41678e-08
3.93268e-08
3.82355e-08
0.017002
0.0101024
0.0084346
0.00741173
0.00706104
0.00644304
0.00618734
0.00559876
0.00533935
0.00470298
0.0041043
0.00388061
0.00342322
0.00324276
0.00284774
0.00269248
0.00235391
0.0022216
0.00193499
0.00182351
0.00158334
0.00149025
0.00129061
0.00121345
0.00104855
0.000984975
0.000849489
0.000797356
0.000686522
0.000643947
0.000553618
0.00051897
0.000445593
0.000417483
0.000358048
0.000335307
0.000287293
0.00026894
0.000230246
0.00021547
0.000184354
0.000172483
0.000147511
0.000137991
0.000117984
0.000110361
9.43481e-05
8.8234e-05
7.53642e-05
7.01911e-05
5.8634e-05
4.87469e-05
4.5239e-05
3.85723e-05
3.60367e-05
3.07292e-05
2.8695e-05
2.43919e-05
2.27352e-05
1.92111e-05
1.78467e-05
1.49247e-05
1.37857e-05
1.13259e-05
1.03601e-05
8.25653e-06
7.4321e-06
5.64002e-06
4.95326e-06
3.50006e-06
2.9612e-06
1.86823e-06
1.47125e-06
6.8808e-07
4.54042e-07
1.31344e-07
5.92962e-08
4.28635e-08
3.90089e-08
3.81423e-08
0.0177513
0.00957647
0.00833544
0.00733454
0.00708342
0.00640663
0.00621938
0.00556688
0.00537768
0.00469872
0.0040649
0.00390208
0.00339549
0.00326304
0.00282382
0.00270979
0.00233331
0.00223613
0.00191748
0.00183561
0.00156862
0.00150026
0.00127834
0.00122168
0.0010384
0.000991712
0.000841133
0.00080285
0.000679677
0.000648413
0.000548032
0.00052259
0.00044105
0.000420409
0.000354365
0.000337666
0.000284314
0.000270838
0.000227843
0.000216994
0.000182421
0.000173704
0.000145959
0.000138969
0.00011674
0.000111142
9.3354e-05
8.88661e-05
7.46002e-05
7.08235e-05
5.84497e-05
4.80669e-05
4.55192e-05
3.81544e-05
3.62945e-05
3.04006e-05
2.8907e-05
2.41266e-05
2.29101e-05
1.89949e-05
1.7993e-05
1.47466e-05
1.39102e-05
1.11769e-05
1.04677e-05
8.12904e-06
7.52349e-06
5.52945e-06
5.02495e-06
3.408e-06
3.01223e-06
1.79777e-06
1.50607e-06
6.31111e-07
4.5921e-07
1.04257e-07
5.18396e-08
4.10548e-08
3.85707e-08
3.80139e-08
0.0188276
0.00877311
0.00822662
0.00722732
0.00712278
0.00635061
0.00627
0.00551644
0.00543558
0.00469263
0.00400664
0.00393727
0.00335276
0.00329556
0.00278687
0.00273758
0.00230152
0.00225951
0.00189049
0.0018551
0.00154594
0.0015164
0.00125945
0.00123496
0.00102278
0.0010026
0.00082828
0.000811734
0.000669151
0.000655639
0.000539445
0.00052845
0.000434068
0.000425148
0.000348706
0.000341489
0.000279739
0.000273916
0.000224154
0.000219465
0.000179452
0.000175686
0.000143575
0.000140555
0.00011483
0.000112411
9.18271e-05
8.98888e-05
7.34162e-05
7.17992e-05
5.81853e-05
4.70732e-05
4.59916e-05
3.7516e-05
3.67135e-05
2.98957e-05
2.92504e-05
2.37185e-05
2.31929e-05
1.8662e-05
1.82291e-05
1.44719e-05
1.41105e-05
1.09469e-05
1.06404e-05
7.93216e-06
7.67037e-06
5.35925e-06
5.1411e-06
3.26707e-06
3.09598e-06
1.69039e-06
1.5642e-06
5.46013e-07
4.71696e-07
6.50654e-08
4.27164e-08
3.89134e-08
3.8055e-08
3.7863e-08
0.0187742
0.00871781
0.0081714
0.00717535
0.00707119
0.00630315
0.00622299
0.00547389
0.00539352
0.00465522
0.00397373
0.00390482
0.00332435
0.00326755
0.00276254
0.00271361
0.00228085
0.00223917
0.00187306
0.00183795
0.00153133
0.00150203
0.00124728
0.00122301
0.00101269
0.000992697
0.00081997
0.000803578
0.000662334
0.000648951
0.000533878
0.00052299
0.000429541
0.00042071
0.000345038
0.000337895
0.000276779
0.000271016
0.000221773
0.000217133
0.000177543
0.000173816
0.000142049
0.00013906
0.000113612
0.000111219
9.0858e-05
8.89406e-05
7.26469e-05
7.10475e-05
5.75816e-05
4.65905e-05
4.55206e-05
3.71371e-05
3.63433e-05
2.95993e-05
2.8961e-05
2.34888e-05
2.29688e-05
1.84862e-05
1.80579e-05
1.43403e-05
1.39826e-05
1.08516e-05
1.05481e-05
7.86663e-06
7.60734e-06
5.31744e-06
5.10122e-06
3.24296e-06
3.07327e-06
1.67875e-06
1.55351e-06
5.42322e-07
4.68515e-07
6.46123e-08
4.24135e-08
3.86359e-08
3.77832e-08
3.75926e-08
0.0176977
0.00952139
0.00828054
0.00728238
0.00703213
0.0063589
0.00617269
0.00552404
0.00533599
0.0046613
0.00403162
0.00386988
0.00336678
0.00323527
0.00279922
0.00268604
0.0023124
0.00221597
0.00189984
0.00181862
0.00155382
0.00148604
0.00126601
0.00120984
0.00102818
0.000981912
0.000832707
0.000794778
0.000672762
0.000641795
0.000542383
0.000517188
0.000436454
0.000416018
0.000350641
0.000334111
0.000281308
0.000267971
0.000225424
0.000214688
0.000180481
0.000171856
0.000144407
0.000137491
0.000115502
0.000109964
9.23683e-05
8.79291e-05
7.3818e-05
7.00823e-05
5.78431e-05
4.75734e-05
4.50533e-05
3.77685e-05
3.59289e-05
3.00988e-05
2.86214e-05
2.38924e-05
2.2689e-05
1.88155e-05
1.78244e-05
1.4612e-05
1.37844e-05
1.10792e-05
1.03771e-05
8.06152e-06
7.46176e-06
5.48603e-06
4.986e-06
3.38268e-06
2.99015e-06
1.78526e-06
1.49574e-06
6.26828e-07
4.56108e-07
1.0354e-07
5.14756e-08
4.07631e-08
3.82955e-08
3.77425e-08
0.0169482
0.0100475
0.00837994
0.00735945
0.00700994
0.00639514
0.00614085
0.00555573
0.00529791
0.00466554
0.00407077
0.00384857
0.00339433
0.00321514
0.00282297
0.00266886
0.00233285
0.00220156
0.00191721
0.00180662
0.00156842
0.00147612
0.00127817
0.00120169
0.00103824
0.000975238
0.000840988
0.000789336
0.000679544
0.000637373
0.000547916
0.000513605
0.000440952
0.000413122
0.000354287
0.000331777
0.000284255
0.000266093
0.000227801
0.00021318
0.000182393
0.000170648
0.000145943
0.000136525
0.000116733
0.000109191
9.33517e-05
8.73038e-05
7.45737e-05
6.94569e-05
5.80255e-05
4.82459e-05
4.47762e-05
3.81819e-05
3.56738e-05
3.04238e-05
2.84116e-05
2.41548e-05
2.25159e-05
1.90294e-05
1.76795e-05
1.47883e-05
1.36611e-05
1.12266e-05
1.02705e-05
8.18773e-06
7.37117e-06
5.59556e-06
4.91488e-06
3.47394e-06
2.93951e-06
1.85515e-06
1.46114e-06
6.83399e-07
4.50971e-07
1.30445e-07
5.88821e-08
4.25596e-08
3.87308e-08
3.78701e-08
0.0164747
0.0103642
0.00845336
0.00740961
0.00699831
0.00641689
0.00612219
0.00557428
0.00527475
0.00466824
0.00409497
0.0038365
0.00341084
0.00320351
0.00283717
0.00265894
0.00234508
0.00219324
0.00192761
0.00179971
0.00157717
0.00147041
0.00128547
0.001197
0.00104428
0.000971405
0.000845956
0.000786213
0.000683614
0.000634835
0.000551236
0.00051155
0.000443653
0.000411462
0.000356477
0.000330439
0.000286026
0.000265017
0.000229229
0.000212317
0.000183542
0.000169956
0.000146866
0.000135971
0.000117472
0.000108749
9.39425e-05
8.6945e-05
7.5024e-05
6.90833e-05
5.81411e-05
4.86655e-05
4.46236e-05
3.84315e-05
3.5528e-05
3.06191e-05
2.82913e-05
2.43123e-05
2.24165e-05
1.91577e-05
1.75962e-05
1.48939e-05
1.359e-05
1.13148e-05
1.0209e-05
8.26319e-06
7.31886e-06
5.66122e-06
4.87411e-06
3.5289e-06
2.91083e-06
1.89739e-06
1.44187e-06
7.18146e-07
4.4935e-07
1.47388e-07
6.40765e-08
4.38551e-08
3.90465e-08
3.79627e-08
0.0162455
0.0105128
0.00849201
0.00743438
0.00699339
0.00642709
0.00611358
0.00558283
0.00526381
0.00466956
0.00410653
0.00383107
0.00341857
0.00319819
0.00284381
0.00265441
0.00235081
0.00218945
0.00193248
0.00179656
0.00158127
0.00146781
0.00128888
0.00119487
0.00104711
0.000969662
0.000848284
0.000784793
0.000685521
0.000633683
0.000552793
0.000510617
0.000444919
0.000410709
0.000357504
0.000329832
0.000286856
0.000264529
0.000229899
0.000211926
0.000184082
0.000169643
0.000147299
0.000135721
0.000117819
0.000108548
9.42196e-05
8.67819e-05
7.52341e-05
6.89089e-05
5.81972e-05
4.88671e-05
4.45564e-05
3.85489e-05
3.5462e-05
3.07107e-05
2.82367e-05
2.43861e-05
2.23713e-05
1.92177e-05
1.75582e-05
1.49433e-05
1.35576e-05
1.1356e-05
1.01808e-05
8.29847e-06
7.29499e-06
5.69197e-06
4.85561e-06
3.55472e-06
2.89792e-06
1.91729e-06
1.43331e-06
7.34681e-07
4.49046e-07
1.55578e-07
6.67444e-08
4.45325e-08
3.92123e-08
3.80113e-08
0.0162455
0.0105128
0.00849201
0.00743439
0.00699339
0.00642709
0.00611358
0.00558283
0.00526381
0.00466956
0.00410654
0.00383107
0.00341857
0.00319819
0.00284381
0.00265441
0.00235081
0.00218945
0.00193248
0.00179656
0.00158127
0.00146781
0.00128888
0.00119487
0.00104711
0.000969662
0.000848284
0.000784793
0.000685521
0.000633683
0.000552793
0.000510617
0.000444919
0.000410709
0.000357504
0.000329832
0.000286856
0.000264529
0.000229899
0.000211926
0.000184082
0.000169643
0.000147299
0.000135721
0.000117819
0.000108548
9.42196e-05
8.67819e-05
7.52341e-05
6.89089e-05
5.81972e-05
4.88671e-05
4.45564e-05
3.85489e-05
3.5462e-05
3.07107e-05
2.82367e-05
2.43861e-05
2.23713e-05
1.92177e-05
1.75582e-05
1.49433e-05
1.35576e-05
1.1356e-05
1.01808e-05
8.29847e-06
7.29499e-06
5.69197e-06
4.85561e-06
3.55472e-06
2.89792e-06
1.91729e-06
1.43331e-06
7.3468e-07
4.49045e-07
1.55578e-07
6.67442e-08
4.45324e-08
3.92123e-08
3.80113e-08
0.0164747
0.0103642
0.00845337
0.00740962
0.00699831
0.00641689
0.00612219
0.00557429
0.00527475
0.00466825
0.00409497
0.0038365
0.00341084
0.00320351
0.00283717
0.00265894
0.00234508
0.00219324
0.00192762
0.00179971
0.00157717
0.00147041
0.00128547
0.001197
0.00104428
0.000971405
0.000845956
0.000786213
0.000683614
0.000634836
0.000551237
0.00051155
0.000443653
0.000411462
0.000356477
0.000330439
0.000286026
0.000265017
0.000229229
0.000212317
0.000183543
0.000169957
0.000146866
0.000135972
0.000117472
0.000108749
9.39425e-05
8.6945e-05
7.5024e-05
6.90833e-05
5.81411e-05
4.86655e-05
4.46236e-05
3.84315e-05
3.5528e-05
3.06191e-05
2.82913e-05
2.43123e-05
2.24165e-05
1.91577e-05
1.75962e-05
1.48939e-05
1.359e-05
1.13148e-05
1.0209e-05
8.26319e-06
7.31886e-06
5.66122e-06
4.87411e-06
3.5289e-06
2.91082e-06
1.89739e-06
1.44187e-06
7.18144e-07
4.49348e-07
1.47387e-07
6.40759e-08
4.38548e-08
3.90464e-08
3.79625e-08
0.0169482
0.0100475
0.00837994
0.00735946
0.00700995
0.00639514
0.00614086
0.00555574
0.00529791
0.00466555
0.00407077
0.00384857
0.00339433
0.00321515
0.00282298
0.00266887
0.00233285
0.00220156
0.00191721
0.00180662
0.00156843
0.00147612
0.00127817
0.00120169
0.00103825
0.000975239
0.000840988
0.000789337
0.000679544
0.000637373
0.000547916
0.000513605
0.000440952
0.000413123
0.000354288
0.000331777
0.000284256
0.000266093
0.000227801
0.000213181
0.000182393
0.000170648
0.000145943
0.000136525
0.000116733
0.000109191
9.33518e-05
8.73039e-05
7.45737e-05
6.94569e-05
5.80255e-05
4.82459e-05
4.47762e-05
3.8182e-05
3.56738e-05
3.04239e-05
2.84116e-05
2.41549e-05
2.25159e-05
1.90294e-05
1.76796e-05
1.47883e-05
1.36611e-05
1.12266e-05
1.02706e-05
8.18773e-06
7.37117e-06
5.59556e-06
4.91488e-06
3.47394e-06
2.9395e-06
1.85515e-06
1.46114e-06
6.83397e-07
4.50969e-07
1.30444e-07
5.88813e-08
4.25593e-08
3.87306e-08
3.78699e-08
0.0176977
0.0095214
0.00828055
0.00728239
0.00703213
0.00635891
0.0061727
0.00552404
0.005336
0.0046613
0.00403162
0.00386988
0.00336678
0.00323527
0.00279922
0.00268604
0.0023124
0.00221598
0.00189984
0.00181862
0.00155383
0.00148604
0.00126601
0.00120984
0.00102818
0.000981913
0.000832708
0.000794778
0.000672763
0.000641795
0.000542383
0.000517189
0.000436454
0.000416019
0.000350641
0.000334112
0.000281308
0.000267971
0.000225424
0.000214688
0.000180481
0.000171856
0.000144407
0.000137492
0.000115502
0.000109964
9.23684e-05
8.79291e-05
7.38181e-05
7.00824e-05
5.78431e-05
4.75734e-05
4.50533e-05
3.77686e-05
3.59289e-05
3.00988e-05
2.86214e-05
2.38924e-05
2.2689e-05
1.88155e-05
1.78244e-05
1.46121e-05
1.37844e-05
1.10792e-05
1.03771e-05
8.06153e-06
7.46176e-06
5.48603e-06
4.986e-06
3.38268e-06
2.99015e-06
1.78526e-06
1.49574e-06
6.26826e-07
4.56107e-07
1.03539e-07
5.14749e-08
4.07628e-08
3.82954e-08
3.77424e-08
0.0187742
0.00871781
0.0081714
0.00717535
0.00707119
0.00630316
0.00622299
0.00547389
0.00539352
0.00465522
0.00397373
0.00390483
0.00332435
0.00326755
0.00276254
0.00271361
0.00228085
0.00223917
0.00187306
0.00183795
0.00153133
0.00150203
0.00124728
0.00122301
0.00101269
0.000992697
0.000819971
0.000803578
0.000662334
0.000648951
0.000533878
0.00052299
0.000429541
0.00042071
0.000345039
0.000337895
0.000276779
0.000271016
0.000221773
0.000217134
0.000177543
0.000173816
0.000142049
0.00013906
0.000113612
0.000111219
9.0858e-05
8.89407e-05
7.26469e-05
7.10475e-05
5.75816e-05
4.65905e-05
4.55207e-05
3.71371e-05
3.63433e-05
2.95994e-05
2.8961e-05
2.34888e-05
2.29688e-05
1.84862e-05
1.80579e-05
1.43403e-05
1.39826e-05
1.08516e-05
1.05481e-05
7.86663e-06
7.60734e-06
5.31744e-06
5.10122e-06
3.24296e-06
3.07327e-06
1.67875e-06
1.55351e-06
5.42321e-07
4.68515e-07
6.46119e-08
4.24132e-08
3.86358e-08
3.77832e-08
3.75925e-08
0.0091898
0.00851677
0.0083912
0.00660827
0.00643719
0.00489298
0.00475381
0.00362809
0.00352331
0.00269394
0.00207214
0.00201306
0.00157472
0.00153426
0.00120323
0.00117268
0.000919734
0.000896355
0.000702082
0.000684113
0.000534608
0.000520781
0.000405728
0.000395095
0.000306679
0.000298515
0.000230731
0.00022448
0.000172676
0.000167906
0.000128462
0.000124838
9.49342e-05
9.21917e-05
6.96315e-05
6.75672e-05
5.06401e-05
4.90952e-05
3.64735e-05
3.53249e-05
2.59805e-05
2.51331e-05
1.82721e-05
1.76524e-05
1.26638e-05
1.22152e-05
8.62987e-06
8.30891e-06
5.76616e-06
5.53253e-06
3.70981e-06
2.42223e-06
2.30447e-06
1.49525e-06
1.42492e-06
9.01592e-07
8.56851e-07
5.27723e-07
4.99919e-07
2.99492e-07
2.82748e-07
1.64603e-07
1.54834e-07
8.73344e-08
8.18057e-08
4.43648e-08
4.13263e-08
2.11602e-08
1.95407e-08
9.03954e-09
8.2094e-09
3.00658e-09
2.61808e-09
4.90275e-10
3.50775e-10
-1.12737e-10
-1.39902e-10
-1.44672e-10
-1.45755e-10
-1.45996e-10
0.00910922
0.00853362
0.00824509
0.00673134
0.00633747
0.00500895
0.00468713
0.00371207
0.00346755
0.00271588
0.00212974
0.00199019
0.00160849
0.00151463
0.00122821
0.00115748
0.000938759
0.000884642
0.00071668
0.000675089
0.00054584
0.000513836
0.000414375
0.000389762
0.000313328