/*--------------------------------*- C++ -*----------------------------------*\
| =========                 |                                                 |
| \\      /  F ield         | OpenFOAM: The Open Source CFD Toolbox           |
|  \\    /   O peration     | Version:  5.x                                   |
|   \\  /    A nd           | Web:      www.OpenFOAM.org                      |
|    \\/     M anipulation  |                                                 |
\*---------------------------------------------------------------------------*/
FoamFile
{
    version     2.0;
    format      ascii;
    class       volScalarField;
    location    "14.5";
    object      gradTy;
}
// * * * * * * * * * * * * * * * * * * * * * * * * * * * * * * * * * * * * * //

dimensions      [0 -1 0 1 0 0 0];

internalField   nonuniform List<scalar> 
6300
(
1001.87
1005.76
1010.08
1015.09
1021.07
1028.26
1036.89
1047.16
1059.22
1073.19
1089.1
1106.93
1126.6
1147.94
1170.7
-0.212734
-0.635293
-1.04884
-1.44641
-1.81967
-2.15856
-2.45115
-2.68386
-2.84215
-2.91177
-2.88071
-2.74147
-2.49357
-2.14527
-1.71409
-0.357797
-1.06887
-1.76587
-2.43775
-3.07102
-3.64907
-4.15179
-4.55576
-4.83532
-4.96465
-4.9211
-4.68956
-4.26721
-3.66735
-2.92078
-0.507369
-1.5165
-2.50802
-3.46769
-4.3776
-5.21492
-5.95116
-6.55207
-6.97874
-7.19043
-7.1495
-6.82847
-6.21834
-5.33615
-4.22849
-0.662553
-1.98171
-3.28199
-4.54737
-5.7567
-6.88179
-7.88582
-8.72256
-9.33707
-9.66875
-9.65793
-9.25641
-8.44147
-7.23029
-5.6888
-0.82369
-2.46581
-4.09086
-5.68308
-7.22003
-8.66969
-9.98773
-11.1153
-11.9782
-12.4895
-12.557
-12.0977
-11.0608
-9.45476
-7.36842
-0.990076
-2.96696
-4.93251
-6.87402
-8.77058
-10.5892
-12.2801
-13.7725
-14.9708
-15.7541
-15.9828
-15.5165
-14.2493
-12.1594
-9.35921
-1.15972
-3.47941
-5.79818
-8.10984
-10.3991
-12.6362
-14.7708
-16.7237
-18.3782
-19.5732
-20.1033
-19.7362
-18.2604
-15.574
-11.799
-1.32913
-3.99274
-6.67092
-9.36807
-12.0795
-14.7857
-17.4432
-19.9733
-22.2451
-24.057
-25.1209
-25.0644
-23.4818
-20.0771
-14.9142
-1.49317
-4.49149
-7.52465
-10.6119
-13.7653
-16.9836
-20.243
-23.481
-26.5716
-29.2887
-31.2588
-31.9183
-30.5253
-26.3382
-19.1204
-1.64523
-4.95537
-8.32423
-11.7896
-15.386
-19.1404
-23.0641
-27.1359
-31.2714
-35.2671
-38.707
-40.8246
-40.3627
-35.63
-25.3019
-1.77759
-5.36049
-9.02726
-12.8362
-16.8484
-21.1278
-25.7369
-30.727
-36.1107
-41.8011
-47.4773
-52.3101
-54.4708
-50.5169
-35.7229
-1.88224
-5.6817
-9.58809
-13.6793
-18.0437
-22.7852
-28.0287
-33.9241
-40.643
-48.3489
-57.0905
-66.4674
-74.6933
-76.244
-57.5377
-1.95187
-5.89596
-9.96403
-14.2491
-18.8616
-23.9403
-29.6683
-36.2977
-44.1878
-53.8609
-66.0679
-81.7754
-101.59
-122.228
-118.319
-1.98116
-5.98619
-10.1229
-14.4914
-19.2133
-24.446
-30.4062
-37.4102
-45.9492
-56.8385
-71.5443
-92.9753
-127.664
-192.756
-342.338
1192.62
1213.12
1234
1255.07
1276.11
1296.96
1317.43
1337.39
1356.7
1375.26
1392.97
1409.76
1425.57
1440.36
1454.09
1466.74
1478.28
1488.71
1498.01
1506.19
1513.24
1519.17
1523.99
1527.71
1530.33
1531.88
1532.36
1531.8
1530.21
1527.61
1524.01
1519.44
1513.91
1507.44
1500.05
1491.76
1482.57
1472.52
1461.61
1449.86
1437.29
1423.92
1409.77
1394.85
1379.18
1362.78
1345.67
1327.86
1309.38
1290.24
1270.44
1250.01
1228.96
1207.3
1185.05
1162.21
1138.81
1114.85
1090.37
1065.38
1039.9
1013.96
987.566
960.756
933.552
905.978
878.064
849.837
821.332
792.586
763.639
734.539
705.34
676.099
646.881
617.755
588.794
560.075
531.675
503.672
476.144
449.164
422.805
397.133
372.206
348.077
324.789
302.376
280.859
260.248
-1.26601
-0.837511
-0.405233
0.0149468
0.409949
0.770258
1.0901
1.36712
1.60178
1.79657
1.95523
2.08214
2.18175
2.25822
2.31526
2.35605
2.38318
2.39878
2.40458
2.40198
2.39219
2.3762
2.35491
2.32911
2.29955
2.2669
2.2318
2.19488
2.15672
2.11786
2.0788
2.03995
2.00161
1.96395
1.92698
1.89058
1.85449
1.81837
1.78187
1.74471
1.70671
1.66791
1.62851
1.58892
1.5497
1.51145
1.47473
1.43996
1.40734
1.37673
1.34775
1.31969
1.29167
1.26275
1.232
1.19869
1.16236
1.12283
1.08025
1.03494
0.98736
0.937881
0.88667
0.833546
0.777901
0.718672
0.654407
0.583385
0.503803
0.413994
0.312642
0.198971
0.0728683
-0.0650553
-0.213494
-0.370536
-0.533801
-0.700601
-0.868084
-1.03335
-1.19352
-1.34573
-1.48716
-1.61497
-1.72634
-1.81851
-1.88901
-1.93579
-1.95754
-1.95387
-2.14387
-1.40202
-0.65622
0.0649474
0.738479
1.34824
1.88509
2.34612
2.73329
3.05196
3.30947
3.5139
3.67324
3.79476
3.88479
3.94858
3.99039
4.01363
4.02102
4.01481
3.99686
3.96878
3.93202
3.88785
3.83749
3.78204
3.72257
3.6601
3.59562
3.53007
3.46431
3.39908
3.33492
3.27212
3.21072
3.15046
3.09083
3.03119
2.97082
2.90914
2.84579
2.78076
2.71445
2.6476
2.58127
2.51662
2.45477
2.39653
2.34233
2.29199
2.24477
2.1994
2.15424
2.10748
2.0574
2.00264
1.94234
1.87627
1.80475
1.72855
1.64865
1.56593
1.48087
1.39331
1.30226
1.20586
1.1015
0.985996
0.856014
0.708425
0.54074
0.351462
0.140319
-0.0916357
-0.342081
-0.607612
-0.884011
-1.16656
-1.45033
-1.73039
-2.00189
-2.2601
-2.50035
-2.71788
-2.90786
-3.06547
-3.18619
-3.26624
-3.30308
-3.29591
-3.07312
-1.97236
-0.871925
0.183341
1.15862
2.03099
2.78905
3.43122
3.96316
4.39516
4.73985
5.01031
5.21886
5.37634
5.49178
5.57245
5.62403
5.65096
5.65673
5.6442
5.61576
5.57354
5.51943
5.45518
5.3824
5.30262
5.2173
5.12785
5.0357
4.94223
4.84873
4.75633
4.66591
4.57794
4.49248
4.40908
4.32688
4.24471
4.16134
4.07565
3.98696
3.89516
3.80083
3.70523
3.61011
3.51748
3.42928
3.34701
3.27146
3.20245
3.13884
3.07855
3.01885
2.95671
2.88928
2.8143
2.7304
2.6373
2.53574
2.42726
2.31378
2.19712
2.07846
1.95789
1.83412
1.70434
1.56443
1.40928
1.23341
1.03163
0.799775
0.535288
0.237598
-0.0917229
-0.449072
-0.829154
-1.22547
-1.63087
-2.03803
-2.43982
-2.82946
-3.20043
-3.54631
-3.86051
-4.13604
-4.3656
-4.54199
-4.65894
-4.71203
-4.69967
-4.07475
-2.54205
-1.02236
0.417142
1.72722
2.87858
3.86016
4.67532
5.33719
5.86437
6.27738
6.59611
6.83829
7.01872
7.14913
7.23848
7.29345
7.31903
7.31909
7.29677
7.25482
7.19571
7.12176
7.03509
6.93772
6.8315
6.71827
6.59983
6.47802
6.35475
6.23186
6.11106
5.99367
5.88049
5.77159
5.66629
5.56318
5.46031
5.3555
5.24681
5.13292
5.0135
4.88937
4.76248
4.63566
4.51226
4.39554
4.28812
4.19144
4.10544
4.02842
3.95713
3.88722
3.81383
3.73232
3.63906
3.53197
3.41077
3.27695
3.13339
2.98371
2.83141
2.67901
2.52731
2.37482
2.21761
2.04949
1.8626
1.64828
1.39831
1.10598
0.767095
0.380587
-0.0512903
-0.523172
-1.02717
-1.55371
-2.0925
-2.63332
-3.16664
-3.68377
-4.17674
-4.63779
-5.05872
-5.4303
-5.74216
-5.9833
-6.14349
-6.21516
-6.19516
-5.17056
-3.09299
-1.05732
0.837348
2.52443
3.97072
5.17103
6.14026
6.90528
7.49809
7.95076
8.29225
8.54674
8.7332
8.86569
8.9541
9.00528
9.02398
9.01378
8.97775
8.9187
8.8394
8.74251
8.63057
8.50589
8.37064
8.22689
8.07678
7.9226
7.76686
7.61216
7.46103
7.31555
7.17702
7.04568
6.92052
6.79932
6.67884
6.55542
6.42562
6.28702
6.13881
5.98206
5.81977
5.65647
5.4976
5.3486
5.21392
5.09621
4.99568
4.90989
4.83389
4.76079
4.68278
4.59242
4.4839
4.354
4.20255
4.03233
3.8485
3.65756
3.46598
3.27871
3.098
2.92245
2.74672
2.56174
2.35552
2.11464
1.82612
1.47934
1.06761
0.589036
0.0468746
-0.550904
-1.19259
-1.86419
-2.55107
-3.23931
-3.91665
-4.57278
-5.19892
-5.78694
-6.32788
-6.81048
-7.22045
-7.54106
-7.75544
-7.85018
-7.81914
-6.38068
-3.58341
-0.889031
1.55672
3.66869
5.41741
6.81506
7.89971
8.72183
9.3341
9.78476
10.1142
10.3537
10.526
10.6462
10.7239
10.7644
10.7711
10.7463
10.6924
10.6123
10.509
10.3856
10.245
10.0899
9.92264
9.74533
9.56025
9.37009
9.1781
8.98798
8.80353
8.62807
8.46386
8.31152
8.16973
8.03506
7.90229
7.76518
7.61775
7.45562
7.27704
7.08338
6.87915
6.67153
6.46936
6.28163
6.1159
5.97684
5.86529
5.77786
5.70704
5.64199
5.57009
5.47922
5.36007
5.20761
5.02189
4.80783
4.57437
4.33285
4.09481
3.86946
3.66172
3.47079
3.28961
3.10498
2.89876
2.65
2.33821
1.94664
1.46473
0.889422
0.225485
-0.515059
-1.3146
-2.15236
-3.00736
-3.86067
-4.69693
-5.50467
-6.27574
-7.00365
-7.6808
-8.29503
-8.8272
-9.2516
-9.53949
-9.66617
-9.61938
-7.71955
-3.92551
-0.36255
2.75687
5.33618
7.36986
8.9101
10.0376
10.841
11.4033
11.7938
12.0661
12.2579
12.3941
12.4887
12.5478
12.573
12.5641
12.5211
12.4456
12.3401
12.2082
12.054
11.881
11.6922
11.4898
11.2756
11.0517
10.8209
10.5874
10.3563
10.1338
9.92512
9.73431
9.5629
9.40939
9.26877
9.1327
8.99052
8.83175
8.64863
8.43769
8.20062
7.9441
7.67947
7.42099
7.18369
6.98017
6.81854
6.70084
6.62258
6.57254
6.53369
6.48533
6.40739
6.2848
6.10973
5.88265
5.61183
5.31241
5.0037
4.7059
4.4354
4.20178
4.00563
3.83795
3.67982
3.50374
3.27661
2.96561
2.54448
1.99678
1.31785
0.514824
-0.393854
-1.38117
-2.41534
-3.46569
-4.50621
-5.51794
-6.48902
-7.41438
-8.29312
-9.12402
-9.89747
-10.5889
-11.1584
-11.5555
-11.7317
-11.6622
-9.18133
-3.93481
0.80261
4.73469
7.7891
10.0326
11.5993
12.6419
13.3073
13.7197
13.9732
14.1336
14.2423
14.3223
14.3821
14.4204
14.4305
14.406
14.343
14.2418
14.1057
13.9397
13.7494
13.5397
13.314
13.0739
12.82
12.5531
12.2758
11.993
11.7126
11.4441
11.1965
10.9769
10.7886
10.6306
10.496
10.372
10.2399
10.0809
9.88178
9.63609
9.34594
9.02085
8.67866
8.34225
8.03721
7.78424
7.59712
7.4797
7.42678
7.42204
7.4392
7.44328
7.39997
7.28521
7.08683
6.80648
6.45713
6.06393
5.65897
5.2778
4.94834
4.688
4.49959
4.37265
4.28059
4.18237
4.02406
3.75172
3.32468
2.71788
1.92508
0.956401
-0.159306
-1.38013
-2.65487
-3.93805
-5.19304
-6.39732
-7.53902
-8.61998
-9.6513
-10.6498
-11.6179
-12.5258
-13.3135
-13.8891
-14.1509
-14.0466
-10.6934
-3.21122
3.12717
7.97597
11.409
13.6689
15.0419
15.7883
16.1365
16.2638
16.2856
16.2746
16.2667
16.2786
16.3051
16.3326
16.3368
16.3021
16.2185
16.0872
15.913
15.7049
15.4714
15.2201
14.9553
14.6767
14.3817
14.0684
13.7371
13.3941
13.0503
12.723
12.4264
12.1733
11.9692
11.8168
11.7069
11.6216
11.5267
11.3866
11.1808
10.8973
10.5404
10.1211
9.66839
9.21719
8.81464
8.49241
8.27426
8.16462
8.16058
8.23898
8.36255
8.46849
8.49446
8.40508
8.18103
7.82871
7.36465
6.83148
6.27908
5.7744
5.36091
5.06985
4.90426
4.85636
4.88953
4.94683
4.935
4.75995
4.36307
3.70617
2.78498
1.60911
0.22607
-1.30197
-2.8827
-4.4514
-5.95328
-7.3671
-8.67676
-9.89725
-11.0569
-12.2195
-13.4249
-14.6359
-15.7741
-16.6747
-17.0973
-16.9307
-11.9484
-0.841131
7.59613
13.2556
16.7176
18.5814
19.3855
19.5069
19.2821
18.9585
18.6434
18.4095
18.2611
18.212
18.2251
18.2767
18.2975
18.2666
18.1612
17.9926
17.7673
17.5047
17.2172
16.9183
16.6146
16.3012
15.9678
15.6079
15.2133
14.7945
14.3622
13.9561
13.5918
13.297
13.0739
12.9397
12.8807
12.8835
12.8766
12.7854
12.5898
12.2627
11.823
11.2676
10.6543
10.0205
9.4748
9.04909
8.79356
8.69593
8.77411
8.9894
9.30979
9.60737
9.75361
9.71744
9.45854
9.01045
8.37037
7.62537
6.8292
6.13843
5.59593
5.26981
5.13829
5.22219
5.4626
5.80976
6.07993
6.08657
5.77491
5.07409
4.01071
2.55928
0.819421
-1.14872
-3.12858
-5.06163
-6.84094
-8.48738
-9.94342
-11.2625
-12.4587
-13.7281
-15.224
-16.8508
-18.5771
-20.1484
-20.8923
-20.5852
-11.7174
5.37319
16.0643
21.6992
24.3284
25.0205
24.7134
23.7252
22.5708
21.6423
20.8851
20.4224
20.1138
20.0569
20.0907
20.2662
20.334
20.3397
20.1962
19.9809
19.6767
19.3419
18.9808
18.625
18.2894
17.9559
17.5937
17.1988
16.7259
16.216
15.6379
15.1308
14.6584
14.3193
14.0521
13.9561
13.9669
14.1608
14.3496
14.336
14.1898
13.7916
13.2737
12.4992
11.6714
10.6982
9.96378
9.36225
9.08696
8.97556
9.19164
9.58989
10.2913
10.9656
11.2768
11.3519
11.0098
10.47
9.52848
8.49427
7.22881
6.29021
5.52062
5.19073
5.06324
5.36377
5.88302
6.78456
7.60535
7.87251
7.74808
6.96509
5.79617
3.92577
1.74244
-0.97767
-3.44093
-5.89236
-7.91909
-9.88106
-11.4066
-12.8039
-13.7543
-14.9098
-16.8339
-18.9218
-21.6029
-24.813
-26.2001
-25.4997
-4.6711
20.803
31.8127
34.4701
34.7277
32.8977
31.0216
28.1821
25.5338
24.079
22.7026
22.2129
21.6035
21.771
21.7521
22.4102
22.4599
22.627
22.3343
22.0968
21.6297
21.2168
20.7366
20.302
19.9609
19.6516
19.2663
18.9016
18.2919
17.7352
16.8111
16.2552
15.5329
15.2376
14.7838
14.8181
14.7896
15.4449
16.1141
16.0772
16.1527
15.4927
15.0936
13.8075
12.8976
11.0322
10.2612
9.2055
9.14425
8.78353
9.34675
9.7538
11.3116
12.8464
13.1399
13.5868
12.8458
12.5078
10.82
9.69608
7.15765
6.19855
4.81208
4.82016
4.37179
5.19037
5.75286
7.8756
9.92793
10.2223
10.6695
9.41174
8.59171
5.74283
3.43842
-1.17646
-3.77027
-7.3346
-9.09035
-11.9031
-13.0541
-14.9887
-14.7544
-14.9846
-18.2077
-20.1384
-23.8664
-32.1025
-34.5137
-32.5852
34.8998
57.0619
59.5888
50.6962
48.1324
40.8403
38.7161
32.3627
26.7775
26.4016
23.2421
24.1751
21.9733
23.7528
22.4374
25.4292
24.4156
25.5756
24.3916
24.5423
23.5036
23.1873
22.4255
21.8435
21.5854
21.4558
20.9082
20.9561
19.7803
19.7824
17.453
17.6182
15.7916
16.383
14.8117
15.7697
14.6264
16.7081
18.8944
17.6556
19.1735
16.8172
18.1897
14.5733
15.4984
9.78943
10.9676
7.61585
9.6319
7.26014
9.72589
8.25978
12.3641
16.5142
14.781
17.5315
14.1007
16.4887
11.2985
12.934
4.81151
6.7216
2.09466
5.10622
1.85526
5.3851
3.37529
9.06741
14.7814
12.3513
16.0455
11.2275
14.3082
6.77529
8.46101
-4.28606
-2.70243
-11.3815
-8.73981
-16.3183
-13.5734
-20.2969
-15.0857
-10.7498
-21.4425
-18.7666
-19.6384
-47.7798
-49.076
-43.5286
243.133
121.594
103.808
57.8085
68.3454
41.341
52.5005
35.4372
20.5198
32.7329
17.8887
30.6516
16.6102
30.1914
16.9208
34.2162
23.2417
31.8997
24.5273
28.7011
24.3373
25.7999
23.856
22.9189
23.0254
23.8622
21.6931
24.7732
19.5731
25.1873
14.5033
21.8497
12.5691
20.6432
11.1978
19.7475
9.8201
17.8209
26.6076
15.2648
27.7736
12.7726
28.4706
8.79997
27.6531
-1.37032
18.1979
-1.70283
16.4386
-1.22865
15.7675
-1.2551
13.3513
28.6542
9.96631
30.3776
6.97693
31.3827
1.94865
30.2241
-11.981
16.6585
-11.6216
14.4108
-10.4251
13.5574
-10.0926
10.2282
31.3625
5.66153
33.6795
1.66922
35.3087
-5.46671
34.2671
-28.0314
13.1442
-31.73
6.32829
-35.5986
-0.457891
-42.7905
-14.1561
15.1265
-43.9278
-12.2858
23.8584
-102.113
-73.4923
-61.8264
238.571
216.207
195.08
175.126
156.267
138.413
121.466
105.327
89.8937
75.0645
60.7406
46.8252
33.2242
19.846
6.60061
-1.92263
-1.8556
-1.76032
-1.64255
-1.50836
-1.36347
-1.21281
-1.06028
-0.908685
-0.759805
-0.614549
-0.473112
-0.335149
-0.199925
-0.0664429
-3.24087
-3.12399
-2.95883
-2.75582
-2.52582
-2.27886
-2.02344
-1.76612
-1.51147
-1.26233
-1.02001
-0.784665
-0.555544
-0.331277
-0.110077
-4.61595
-4.44064
-4.19516
-3.89607
-3.5602
-3.20271
-2.83597
-2.46925
-2.10874
-1.75801
-1.41849
-1.08998
-0.77108
-0.459558
-0.152662
-6.07493
-5.8274
-5.48503
-5.07305
-4.61617
-4.13574
-3.64846
-3.16614
-2.6962
-2.24246
-1.80595
-1.38568
-0.979224
-0.583208
-0.193672
-7.65022
-7.30892
-6.84446
-6.29488
-5.69563
-5.07559
-4.45595
-3.85061
-3.26743
-2.70965
-2.17716
-1.66755
-1.17691
-0.700373
-0.232486
-9.38241
-8.9135
-8.28888
-7.56632
-6.79579
-6.01497
-5.24908
-4.51288
-3.81323
-3.15152
-2.52545
-1.93043
-1.36049
-0.808874
-0.268382
-11.3248
-10.6736
-9.83111
-8.88559
-7.90615
-6.93935
-6.01246
-5.13852
-4.32106
-3.55771
-2.84265
-2.1682
-1.52574
-0.906241
-0.300547
-13.5501
-12.6249
-11.4762
-10.2387
-9.00375
-7.82373
-6.72282
-5.70762
-4.77473
-3.91557
-3.11922
-2.37396
-1.668
-0.989797
-0.328106
-16.1588
-14.7996
-13.2099
-11.589
-10.0463
-8.6289
-7.34737
-6.19434
-5.15461
-4.21056
-3.34466
-2.54038
-1.78248
-1.05683
-0.350185
-19.2845
-17.2048
-14.9747
-12.8608
-10.9636
-9.29805
-7.84334
-6.56767
-5.43873
-4.42737
-3.50843
-2.6604
-1.86468
-1.10485
-0.365985
-23.0706
-19.7602
-16.623
-13.9159
-11.6492
-9.75622
-8.16014
-6.79421
-5.60521
-4.55169
-3.60126
-2.72808
-1.91096
-1.13189
-0.374885
-27.5168
-22.1422
-17.8408
-14.5305
-11.9608
-9.91738
-8.24671
-6.84373
-5.63613
-4.57287
-3.61678
-2.73966
-1.91918
-1.13685
-0.376548
-31.808
-23.4508
-18.0674
-14.4041
-11.7462
-9.70562
-8.06547
-6.69781
-5.52262
-4.48684
-3.5533
-2.69455
-1.88922
-1.11977
-0.371002
-31.6699
-21.7854
-16.5735
-13.2722
-10.9141
-9.09332
-7.61163
-6.35934
-5.26963
-4.2985
-3.41499
-2.596
-1.82336
-1.08199
-0.358689
-1.97214
-5.95832
-10.0737
-14.4168
-19.1071
-24.2994
-30.2077
-37.1454
-45.6013
-56.3952
-71.0218
-92.5033
-127.735
-194.616
-345.275
-1.93183
-5.834
-9.85465
-14.083
-18.6256
-23.6171
-29.2376
-35.7384
-43.4864
-53.0338
-65.22
-81.2381
-102.149
-124.799
-117.343
-1.86476
-5.62736
-9.49126
-13.531
-17.8322
-22.498
-27.6558
-33.4652
-40.1217
-47.8396
-56.7568
-66.5746
-75.3522
-75.889
-47.2099
-1.7747
-5.35035
-9.00572
-12.7972
-16.7856
-21.0371
-25.6214
-30.6036
-36.0198
-41.8124
-47.6682
-52.6332
-54.2778
-47.267
-22.73
-1.6664
-5.01794
-8.42563
-11.9266
-15.5562
-19.345
-23.3106
-27.4404
-31.6561
-35.741
-39.198
-40.9976
-39.214
-30.8156
-12.7797
-1.54509
-4.64649
-7.78073
-10.9665
-14.2162
-17.5301
-20.8855
-24.2173
-27.3831
-30.1053
-31.8784
-31.8502
-28.7437
-21.0564
-8.05413
-1.41597
-4.25222
-7.10001
-9.96194
-12.8315
-15.6863
-18.4769
-21.1093
-23.4182
-25.1286
-25.8093
-24.8401
-21.4544
-14.9882
-5.48539
-1.28384
-3.84991
-6.40943
-8.95201
-11.457
-13.887
-16.1779
-18.2258
-19.8688
-20.8667
-20.8858
-19.5079
-16.3045
-11.0285
-3.93605
-1.15283
-3.45213
-5.73056
-7.96809
-10.1346
-12.1842
-14.0477
-15.6234
-16.7673
-17.2847
-16.9324
-15.4431
-12.5937
-8.33025
-2.92811
-1.02623
-3.06881
-5.08006
-7.03343
-8.89333
-10.6106
-12.1172
-13.3209
-14.1007
-14.3065
-13.7684
-12.323
-9.86474
-6.42272
-2.2355
-0.906498
-2.70723
-4.46973
-6.16364
-7.75104
-9.18316
-10.397
-11.3127
-11.8326
-11.8449
-11.2345
-9.90599
-7.81895
-5.03266
-1.73993
-0.795272
-2.37218
-3.907
-5.36775
-6.71653
-7.90725
-8.88381
-9.57924
-9.91695
-9.81556
-9.19937
-8.0157
-6.25871
-3.99426
-1.37432
-0.69351
-2.06634
-3.39569
-4.6496
-5.79173
-6.78
-7.56577
-8.09415
-8.30616
-8.14368
-7.55821
-6.52351
-5.05084
-3.20269
-1.09807
-0.601597
-1.79068
-2.93676
-4.00904
-4.97374
-5.79333
-6.42643
-6.82872
-6.95536
-6.76549
-6.22898
-5.33543
-4.10367
-2.58922
-0.885359
-0.519483
-1.54486
-2.52905
-3.44317
-4.2565
-4.93613
-5.44732
-5.75465
-5.82434
-5.62797
-5.14767
-4.38217
-3.3528
-2.10727
-0.719071
-0.4468
-1.32765
-2.16997
-2.94728
-3.63207
-4.19587
-4.60975
-4.84558
-4.87803
-4.6876
-4.26436
-3.61213
-2.75203
-1.72438
-0.587462
-0.38297
-1.13717
-1.85603
-2.51562
-3.09165
-3.55969
-3.8958
-4.0777
-4.08647
-3.90886
-3.54006
-2.98641
-2.26758
-1.41736
-0.482245
-0.327289
-0.971231
-1.58324
-2.14198
-2.6262
-3.01509
-3.28892
-3.43003
-3.42431
-3.26288
-2.94411
-2.47538
-1.87438
-1.16927
-0.397426
-0.278993
-0.827462
-1.34743
-1.82007
-2.22694
-2.55039
-2.77418
-2.88432
-2.87025
-2.72614
-2.45227
-2.05619
-1.55346
-0.967526
-0.32858
-0.237303
-0.703483
-1.14448
-1.54381
-1.88559
-2.15489
-2.33834
-2.42484
-2.40648
-2.2795
-2.04528
-1.71105
-1.29032
-0.802586
-0.27238
-0.201462
-0.596991
-0.970447
-1.30752
-1.59456
-1.819
-1.96981
-2.03817
-2.01812
-1.90733
-1.70771
-1.42597
-1.07371
-0.667133
-0.226284
-0.170756
-0.505823
-0.82168
-1.10596
-1.347
-1.53422
-1.65853
-1.71288
-1.69278
-1.59682
-1.42717
-1.18986
-0.894798
-0.555479
-0.188326
-0.144525
-0.427991
-0.694835
-0.934422
-1.13682
-1.29311
-1.39583
-1.43929
-1.4201
-1.33747
-1.19361
-0.993852
-0.746615
-0.46315
-0.156965
-0.122171
-0.3617
-0.586915
-0.788707
-0.958631
-1.08921
-1.17426
-1.20921
-1.19145
-1.12064
-0.99887
-0.830803
-0.623587
-0.386598
-0.13098
-0.103159
-0.305346
-0.495258
-0.665118
-0.807764
-0.91692
-0.987466
-1.01571
-0.999651
-0.939189
-0.83627
-0.694936
-0.521232
-0.322979
-0.109397
-0.087016
-0.257515
-0.417524
-0.560422
-0.68015
-0.771438
-0.830046
-0.852976
-0.838679
-0.787215
-0.700343
-0.581544
-0.43592
-0.270003
-0.0914337
-0.073326
-0.216966
-0.35167
-0.471814
-0.57228
-0.648647
-0.697397
-0.716088
-0.703514
-0.659824
-0.586585
-0.486775
-0.3647
-0.225811
-0.0764548
-0.0617272
-0.182621
-0.295923
-0.39687
-0.48114
-0.545031
-0.585619
-0.600907
-0.589952
-0.552948
-0.491274
-0.407467
-0.305153
-0.188886
-0.0639432
-0.051906
-0.153547
-0.248756
-0.333503
-0.404151
-0.457595
-0.491406
-0.503947
-0.494475
-0.463203
-0.411329
-0.34101
-0.255293
-0.157985
-0.0534756
-0.0435919
-0.12894
-0.208851
-0.279926
-0.339105
-0.38379
-0.41196
-0.422271
-0.414134
-0.387763
-0.34419
-0.285243
-0.213481
-0.132083
-0.0447036
-0.0365521
-0.108109
-0.175081
-0.234609
-0.284123
-0.321451
-0.344913
-0.353404
-0.346454
-0.324265
-0.287724
-0.238375
-0.17836
-0.110335
-0.0373396
-0.0305871
-0.0904597
-0.146479
-0.196243
-0.237602
-0.26874
-0.288262
-0.295258
-0.289353
-0.270733
-0.240152
-0.198911
-0.148801
-0.0920362
-0.0311447
-0.0255257
-0.0754865
-0.122219
-0.163715
-0.198176
-0.224093
-0.240307
-0.24607
-0.241079
-0.225504
-0.199983
-0.165604
-0.123864
-0.0766028
-0.0259206
-0.0212214
-0.0627546
-0.101595
-0.13607
-0.164684
-0.186182
-0.199609
-0.204347
-0.200155
-0.187182
-0.165963
-0.137407
-0.10276
-0.0635448
-0.0215009
-0.0175488
-0.051892
-0.0840029
-0.112495
-0.136132
-0.153877
-0.164942
-0.168825
-0.165329
-0.154583
-0.137036
-0.113441
-0.0848266
-0.052451
-0.0177465
-0.0143999
-0.0425792
-0.0689229
-0.0922916
-0.11167
-0.126208
-0.135263
-0.138425
-0.135537
-0.126708
-0.112309
-0.0929598
-0.0695048
-0.0429742
-0.0145396
-0.0116817
-0.034541
-0.0559085
-0.0748587
-0.0905676
-0.102347
-0.109677
-0.112225
-0.109869
-0.102699
-0.0910179
-0.0753296
-0.0563185
-0.0348193
-0.0117802
-0.00931371
-0.0275385
-0.0445722
-0.0596764
-0.0721936
-0.081576
-0.0874091
-0.0894308
-0.0875441
-0.0818226
-0.0725092
-0.0600064
-0.0448596
-0.0277335
-0.0093827
-0.00722523
-0.021363
-0.0345757
-0.0462902
-0.0559962
-0.0632691
-0.0677879
-0.0693501
-0.0678814
-0.0634401
-0.056215
-0.046519
-0.034775
-0.0214982
-0.00727306
-0.00535386
-0.0158297
-0.0256195
-0.0342984
-0.0414882
-0.0468744
-0.0502194
-0.0513737
-0.0502828
-0.0469902
-0.0416365
-0.0344534
-0.0257545
-0.0159213
-0.00538627
-0.0036435
-0.0107726
-0.0174347
-0.0233404
-0.0282325
-0.0318968
-0.0341719
-0.0349562
-0.0342128
-0.0319715
-0.028328
-0.0234404
-0.0175217
-0.0108317
-0.0036644
-0.00204277
-0.00603981
-0.00977503
-0.0130862
-0.0158292
-0.0178838
-0.0191595
-0.0195995
-0.0191828
-0.0179263
-0.0158835
-0.0131431
-0.00982454
-0.00607341
-0.00205466
-0.000503506
-0.00148879
-0.00240978
-0.00322661
-0.00390375
-0.00441154
-0.00472753
-0.00483745
-0.00473595
-0.00442692
-0.00392343
-0.00324719
-0.0024277
-0.00150095
-0.000507807
0.00102067
0.00301759
0.00488313
0.006536
0.00790406
0.00892749
0.00956139
0.00977776
0.00956679
0.00893737
0.0079167
0.00654921
0.00489464
0.00302541
0.00102344
0.0025757
0.00761518
0.0123237
0.0164963
0.0199511
0.022537
0.0241402
0.0246896
0.02416
0.0225733
0.0199976
0.0165449
0.012366
0.00764391
0.00258586
0.00420843
0.0124426
0.0201363
0.026955
0.0326015
0.0368286
0.0394505
0.0403507
0.0394873
0.0368957
0.0326874
0.0270448
0.0202145
0.0124956
0.0042272
0.00596801
0.0176451
0.0285564
0.0382276
0.0462372
0.0522348
0.0559563
0.057236
0.0560143
0.0523408
0.0463728
0.0383694
0.0286799
0.0177289
0.00599766
0.00790737
0.0233793
0.0378375
0.0506539
0.0612699
0.0692212
0.0741574
0.0758582
0.0742436
0.0693787
0.0614715
0.0508647
0.0380211
0.0235039
0.00795144
0.0100847
0.0298174
0.0482586
0.0646077
0.0781527
0.088301
0.0946048
0.096782
0.0947296
0.088529
0.0784445
0.0649128
0.0485243
0.0299978
0.0101485
0.0125652
0.0371523
0.0601321
0.0805083
0.0973939
0.11005
0.117917
0.120643
0.118096
0.110376
0.0978109
0.0809444
0.0605119
0.03741
0.0126564
0.0154229
0.045603
0.0738134
0.0988324
0.119572
0.135123
0.1448
0.148164
0.145053
0.135586
0.120164
0.0994517
0.0743527
0.045969
0.0155524
0.0187429
0.0554211
0.0897104
0.120128
0.145351
0.164276
0.176064
0.180181
0.176423
0.164932
0.14619
0.121005
0.0904741
0.0559395
0.0189262
0.0226234
0.066898
0.108296
0.145029
0.175504
0.198384
0.212655
0.217665
0.213162
0.199311
0.17669
0.146269
0.109375
0.0676309
0.0228826
0.027179
0.0803723
0.130119
0.174276
0.210929
0.238471
0.255675
0.261753
0.256392
0.23978
0.212604
0.176028
0.131644
0.0814077
0.0275452
0.0325431
0.0962397
0.155823
0.208733
0.252679
0.285734
0.306421
0.313783
0.307433
0.287583
0.255045
0.211207
0.157977
0.0977019
0.0330603
0.0388718
0.114963
0.18616
0.249414
0.301991
0.341584
0.366418
0.375332
0.367846
0.344194
0.305332
0.252908
0.189202
0.117027
0.0396022
0.0463481
0.137084
0.222012
0.297509
0.360318
0.407682
0.437468
0.448269
0.439484
0.411366
0.365034
0.302441
0.226306
0.139999
0.0473792
0.0551857
0.163236
0.264411
0.354413
0.429367
0.485983
0.521698
0.534804
0.524545
0.491185
0.436025
0.361375
0.270475
0.167352
0.0566414
0.0656344
0.194163
0.314568
0.421764
0.511149
0.578796
0.621626
0.63756
0.625645
0.58614
0.520547
0.431593
0.323128
0.199973
0.0676896
0.0779858
0.230729
0.373897
0.50148
0.608022
0.688839
0.740228
0.759652
0.745901
0.699206
0.62129
0.515356
0.385982
0.238931
0.0808874
0.0925787
0.273942
0.444047
0.595806
0.722756
0.819315
0.881023
0.904777
0.889031
0.833948
0.741486
0.615395
0.461108
0.285523
0.0966754
0.109806
0.324971
0.526934
0.707355
0.85859
0.973986
1.04817
1.07733
1.05947
0.994641
0.88503
0.735009
0.551021
0.341322
0.11559
0.13012
0.385166
0.624778
0.839167
1.01931
1.15727
1.24657
1.28252
1.26253
1.18643
1.05663
0.878207
0.658785
0.408253
0.138288
0.154041
0.456077
0.740135
0.994756
1.20931
1.37434
1.48202
1.52654
1.50454
1.41549
1.26199
1.04987
0.78815
0.488677
0.165574
0.182159
0.539471
0.875928
1.17817
1.43368
1.63123
1.76133
1.81675
1.7931
1.68931
1.50804
1.25598
0.943724
0.585506
0.198446
0.215139
0.637344
1.03548
1.39402
1.6983
1.93495
2.09248
2.16187
2.13731
2.01691
1.80326
1.50387
1.13121
0.702362
0.238146
0.253726
0.751928
1.22251
1.64754
2.00987
2.29361
2.48482
2.5722
2.54806
2.40925
2.15801
1.80263
1.35772
0.843772
0.286229
0.298734
0.885685
1.44118
1.9446
2.37599
2.71652
2.94924
3.05996
3.03844
2.87965
2.58505
2.16356
1.63215
1.01545
0.344666
0.351044
1.04128
1.696
2.29167
2.80519
3.21429
3.49836
3.63953
3.62412
3.44435
3.10018
2.60083
1.96578
1.22469
0.415981
0.411583
1.22154
1.9918
2.69578
3.30687
3.79886
4.1467
4.32782
4.32391
4.12321
3.72305
3.13231
2.37304
1.48089
0.503437
0.481292
1.42935
2.33363
3.16438
3.89125
4.4835
4.91079
5.14457
5.16033
4.94053
4.47826
3.78079
2.87257
1.79631
0.611322
0.561088
1.66755
2.7265
3.7051
4.56909
5.28268
5.80922
6.11269
6.16028
5.92622
5.39676
4.5756
3.48877
2.18721
0.745356
0.651793
1.93873
3.17514
4.3254
5.35134
6.2117
6.86253
7.25847
7.35578
7.11702
6.5178
5.55487
4.25406
2.67554
0.913311
0.754055
2.245
3.68357
5.03201
6.24852
7.2862
8.09278
8.61159
8.78461
8.55807
7.89136
6.76874
5.21217
3.29143
1.12598
0.868233
2.58762
4.25457
5.83021
7.26985
8.52115
9.52281
10.2048
10.4909
10.3048
9.58148
8.28392
6.42316
4.07723
1.39871
0.994265
2.96663
4.88896
6.7228
8.42193
9.92939
11.1748
12.0729
12.5249
12.4244
11.6704
10.1901
7.97102
5.09397
1.75399
1.13152
3.38036
5.58478
7.70889
9.70707
11.5196
13.0678
14.2506
14.9426
14.9978
14.2634
12.6094
9.97574
6.43217
2.22595
1.27862
3.82493
6.33632
8.78236
11.1211
13.2931
15.2145
16.7692
17.8025
18.1193
17.4951
15.709
12.6122
8.23051
2.86849
1.43331
4.29371
7.13321
9.9303
12.6508
15.2407
17.6158
19.6497
21.1597
21.8943
21.5335
19.7187
16.141
10.7096
3.77142
1.59233
4.77696
7.9595
11.1313
14.2713
17.3373
20.2538
22.8941
25.0553
26.4299
26.5815
24.9526
20.957
14.2349
5.09424
1.75134
5.26164
8.7932
12.3544
15.9429
19.5375
23.0837
26.4709
29.4969
31.8145
32.8659
31.8297
27.6662
19.4398
7.14467
1.90505
5.73152
9.60627
13.5584
17.6103
21.7713
26.0237
30.2985
34.4303
38.0784
40.5997
40.8785
37.1968
27.4699
10.5799
2.04739
6.16783
10.3656
14.6929
19.2019
23.9414
28.9479
34.2253
39.6995
45.1244
49.8907
52.6774
50.9251
40.4743
16.9803
2.17189
6.55042
11.0348
15.7011
20.6334
25.926
31.684
38.0151
45.0029
52.6274
60.5562
67.6281
70.6937
62.5362
30.6489
2.27225
6.85944
11.5777
16.5246
21.8144
27.5873
34.0218
41.3486
49.8638
59.9189
71.8164
85.3603
98.2557
101.076
64.7413
2.34294
7.07741
11.9617
17.1098
22.6597
28.7891
35.7397
43.8568
53.6551
65.9304
81.9328
103.542
132.813
166.808
163.519
2.37987
7.19131
12.1624
17.4159
23.1026
29.4205
36.6474
45.1971
55.7261
69.3533
88.1547
116.403
164.09
258.429
487.122
2.38089
7.19426
12.167
17.4212
23.1068
29.4204
36.6364
45.1628
55.6451
69.1824
87.8157
115.764
162.969
256.747
485.588
2.34607
7.08654
11.9759
17.1268
22.675
28.7934
35.7153
43.7699
53.4423
65.4722
81.0074
101.75
129.504
161.269
156.891
2.27766
6.87539
11.603
16.5566
21.847
27.6083
34.0073
41.2534
49.6019
59.3274
70.5822
82.8676
93.2544
90.8887
43.0558
-20.0768
-16.3664
-13.5843
-11.4296
-9.69211
-8.24267
-7.00013
-5.91071
-4.93693
-4.05145
-3.23344
-2.46635
-1.73648
-1.03203
-0.342387
-7.53156
-10.4396
-10.3112
-9.41059
-8.35055
-7.30603
-6.32431
-5.41273
-4.56587
-3.77456
-3.02898
-2.3197
-1.63785
-0.975172
-0.323809
-3.42728
-6.62131
-7.57439
-7.50213
-6.99815
-6.32572
-5.59972
-4.86976
-4.15619
-3.46587
-2.7993
-2.15398
-1.52591
-0.910447
-0.302629
-1.86499
-4.35919
-5.54954
-5.89343
-5.76266
-5.38255
-4.87783
-4.31538
-3.73033
-3.14065
-2.55485
-1.97625
-1.4052
-0.840404
-0.279669
-1.16085
-3.0025
-4.11245
-4.6143
-4.70029
-4.52585
-4.19601
-3.77664
-3.30766
-2.8127
-2.30539
-1.79326
-1.28013
-0.767538
-0.255735
-0.790068
-2.1539
-3.09763
-3.62392
-3.81871
-3.77705
-3.57632
-3.27232
-2.903
-2.4933
-2.05925
-1.61096
-1.15466
-0.694119
-0.231568
-0.569494
-1.59701
-2.37267
-2.86372
-3.10132
-3.13868
-3.0283
-2.81334
-2.52637
-2.19079
-1.82298
-1.4342
-1.03214
-0.62209
-0.207804
-0.426327
-1.215
-1.84534
-2.27952
-2.52294
-2.60288
-2.55287
-2.40435
-2.18346
-1.91064
-1.60125
-1.26665
-0.915158
-0.552996
-0.184956
-0.327588
-0.942947
-1.4542
-1.82777
-2.05806
-2.15731
-2.14585
-2.04558
-1.87661
-1.65587
-1.39703
-1.11081
-0.805583
-0.487978
-0.163408
-0.256496
-0.743176
-1.15868
-1.4755
-1.68416
-1.7886
-1.80047
-1.73452
-1.60568
-1.42755
-1.2118
-0.96815
-0.704598
-0.427793
-0.143418
-0.203673
-0.59283
-0.93167
-1.19832
-1.38262
-1.48416
-1.50911
-1.4671
-1.36897
-1.22534
-1.04594
-0.839305
-0.612811
-0.372862
-0.125135
-0.16348
-0.47742
-0.754785
-0.978329
-1.13853
-1.2329
-1.26425
-1.23865
-1.16383
-1.04796
-0.898989
-0.724244
-0.530361
-0.323328
-0.108617
-0.132329
-0.387405
-0.615269
-0.802316
-0.940139
-1.02541
-1.05892
-1.04437
-0.987184
-0.893568
-0.769925
-0.622464
-0.457041
-0.279122
-0.0938494
-0.107831
-0.316283
-0.504092
-0.66048
-0.778238
-0.853838
-0.886954