# vtk DataFile Version 2.0
generated by CFD-lab course output (written by Tobias Neckel) 
ASCII

DATASET STRUCTURED_GRID
DIMENSIONS  82 60 1 
POINTS 4920 float

-1.500000 -0.500000 0
-1.402439 -0.500000 0
-1.304878 -0.500000 0
-1.207317 -0.500000 0
-1.109756 -0.500000 0
-1.012195 -0.500000 0
-0.914634 -0.500000 0
-0.817073 -0.500000 0
-0.719512 -0.500000 0
-0.621951 -0.500000 0
-0.524390 -0.500000 0
-0.426829 -0.500000 0
-0.329268 -0.500000 0
-0.231707 -0.500000 0
-0.134146 -0.500000 0
-0.036585 -0.500000 0
0.060976 -0.500000 0
0.158537 -0.500000 0
0.256098 -0.500000 0
0.353659 -0.500000 0
0.451220 -0.500000 0
0.548780 -0.500000 0
0.646341 -0.500000 0
0.743902 -0.500000 0
0.841463 -0.500000 0
0.939024 -0.500000 0
1.036585 -0.500000 0
1.134146 -0.500000 0
1.231707 -0.500000 0
1.329268 -0.500000 0
1.426829 -0.500000 0
1.524390 -0.500000 0
1.621951 -0.500000 0
1.719512 -0.500000 0
1.817073 -0.500000 0
1.914634 -0.500000 0
2.012195 -0.500000 0
2.109756 -0.500000 0
2.207317 -0.500000 0
2.304878 -0.500000 0
2.402439 -0.500000 0
2.500000 -0.500000 0
2.597561 -0.500000 0
2.695122 -0.500000 0
2.792683 -0.500000 0
2.890244 -0.500000 0
2.987805 -0.500000 0
3.085366 -0.500000 0
3.182927 -0.500000 0
3.280488 -0.500000 0
3.378049 -0.500000 0
3.475610 -0.500000 0
3.573171 -0.500000 0
3.670732 -0.500000 0
3.768293 -0.500000 0
3.865854 -0.500000 0
3.963415 -0.500000 0
4.060976 -0.500000 0
4.158537 -0.500000 0
4.256098 -0.500000 0
4.353659 -0.500000 0
4.451220 -0.500000 0
4.548780 -0.500000 0
4.646341 -0.500000 0
4.743902 -0.500000 0
4.841463 -0.500000 0
4.939024 -0.500000 0
5.036585 -0.500000 0
5.134146 -0.500000 0
5.231707 -0.500000 0
5.329268 -0.500000 0
5.426829 -0.500000 0
5.524390 -0.500000 0
5.621951 -0.500000 0
5.719512 -0.500000 0
5.817073 -0.500000 0
5.914634 -0.500000 0
6.012195 -0.500000 0
6.109756 -0.500000 0
6.207317 -0.500000 0
6.304878 -0.500000 0
6.402439 -0.500000 0
-1.500000 -0.451667 0
-1.402439 -0.451667 0
-1.304878 -0.451667 0
-1.207317 -0.451667 0
-1.109756 -0.451667 0
-1.012195 -0.451667 0
-0.914634 -0.451667 0
-0.817073 -0.451667 0
-0.719512 -0.451667 0
-0.621951 -0.451667 0
-0.524390 -0.451667 0
-0.426829 -0.451667 0
-0.329268 -0.451667 0
-0.231707 -0.451667 0
-0.134146 -0.451667 0
-0.036585 -0.451667 0
0.060976 -0.451667 0
0.158537 -0.451667 0
0.256098 -0.451667 0
0.353659 -0.451667 0
0.451220 -0.451667 0
0.548780 -0.451667 0
0.646341 -0.451667 0
0.743902 -0.451667 0
0.841463 -0.451667 0
0.939024 -0.451667 0
1.036585 -0.451667 0
1.134146 -0.451667 0
1.231707 -0.451667 0
1.329268 -0.451667 0
1.426829 -0.451667 0
1.524390 -0.451667 0
1.621951 -0.451667 0
1.719512 -0.451667 0
1.817073 -0.451667 0
1.914634 -0.451667 0
2.012195 -0.451667 0
2.109756 -0.451667 0
2.207317 -0.451667 0
2.304878 -0.451667 0
2.402439 -0.451667 0
2.500000 -0.451667 0
2.597561 -0.451667 0
2.695122 -0.451667 0
2.792683 -0.451667 0
2.890244 -0.451667 0
2.987805 -0.451667 0
3.085366 -0.451667 0
3.182927 -0.451667 0
3.280488 -0.451667 0
3.378049 -0.451667 0
3.475610 -0.451667 0
3.573171 -0.451667 0
3.670732 -0.451667 0
3.768293 -0.451667 0
3.865854 -0.451667 0
3.963415 -0.451667 0
4.060976 -0.451667 0
4.158537 -0.451667 0
4.256098 -0.451667 0
4.353659 -0.451667 0
4.451220 -0.451667 0
4.548780 -0.451667 0
4.646341 -0.451667 0
4.743902 -0.451667 0
4.841463 -0.451667 0
4.939024 -0.451667 0
5.036585 -0.451667 0
5.134146 -0.451667 0
5.231707 -0.451667 0
5.329268 -0.451667 0
5.426829 -0.451667 0
5.524390 -0.451667 0
5.621951 -0.451667 0
5.719512 -0.451667 0
5.817073 -0.451667 0
5.914634 -0.451667 0
6.012195 -0.451667 0
6.109756 -0.451667 0
6.207317 -0.451667 0
6.304878 -0.451667 0
6.402439 -0.451667 0
-1.500000 -0.403333 0
-1.402439 -0.403333 0
-1.304878 -0.403333 0
-1.207317 -0.403333 0
-1.109756 -0.403333 0
-1.012195 -0.403333 0
-0.914634 -0.403333 0
-0.817073 -0.403333 0
-0.719512 -0.403333 0
-0.621951 -0.403333 0
-0.524390 -0.403333 0
-0.426829 -0.403333 0
-0.329268 -0.403333 0
-0.231707 -0.403333 0
-0.134146 -0.403333 0
-0.036585 -0.403333 0
0.060976 -0.403333 0
0.158537 -0.403333 0
0.256098 -0.403333 0
0.353659 -0.403333 0
0.451220 -0.403333 0
0.548780 -0.403333 0
0.646341 -0.403333 0
0.743902 -0.403333 0
0.841463 -0.403333 0
0.939024 -0.403333 0
1.036585 -0.403333 0
1.134146 -0.403333 0
1.231707 -0.403333 0
1.329268 -0.403333 0
1.426829 -0.403333 0
1.524390 -0.403333 0
1.621951 -0.403333 0
1.719512 -0.403333 0
1.817073 -0.403333 0
1.914634 -0.403333 0
2.012195 -0.403333 0
2.109756 -0.403333 0
2.207317 -0.403333 0
2.304878 -0.403333 0
2.402439 -0.403333 0
2.500000 -0.403333 0
2.597561 -0.403333 0
2.695122 -0.403333 0
2.792683 -0.403333 0
2.890244 -0.403333 0
2.987805 -0.403333 0
3.085366 -0.403333 0
3.182927 -0.403333 0
3.280488 -0.403333 0
3.378049 -0.403333 0
3.475610 -0.403333 0
3.573171 -0.403333 0
3.670732 -0.403333 0
3.768293 -0.403333 0
3.865854 -0.403333 0
3.963415 -0.403333 0
4.060976 -0.403333 0
4.158537 -0.403333 0
4.256098 -0.403333 0
4.353659 -0.403333 0
4.451220 -0.403333 0
4.548780 -0.403333 0
4.646341 -0.403333 0
4.743902 -0.403333 0
4.841463 -0.403333 0
4.939024 -0.403333 0
5.036585 -0.403333 0
5.134146 -0.403333 0
5.231707 -0.403333 0
5.329268 -0.403333 0
5.426829 -0.403333 0
5.524390 -0.403333 0
5.621951 -0.403333 0
5.719512 -0.403333 0
5.817073 -0.403333 0
5.914634 -0.403333 0
6.012195 -0.403333 0
6.109756 -0.403333 0
6.207317 -0.403333 0
6.304878 -0.403333 0
6.402439 -0.403333 0
-1.500000 -0.355000 0
-1.402439 -0.355000 0
-1.304878 -0.355000 0
-1.207317 -0.355000 0
-1.109756 -0.355000 0
-1.012195 -0.355000 0
-0.914634 -0.355000 0
-0.817073 -0.355000 0
-0.719512 -0.355000 0
-0.621951 -0.355000 0
-0.524390 -0.355000 0
-0.426829 -0.355000 0
-0.329268 -0.355000 0
-0.231707 -0.355000 0
-0.134146 -0.355000 0
-0.036585 -0.355000 0
0.060976 -0.355000 0
0.158537 -0.355000 0
0.256098 -0.355000 0
0.353659 -0.355000 0
0.451220 -0.355000 0
0.548780 -0.355000 0
0.646341 -0.355000 0
0.743902 -0.355000 0
0.841463 -0.355000 0
0.939024 -0.355000 0
1.036585 -0.355000 0
1.134146 -0.355000 0
1.231707 -0.355000 0
1.329268 -0.355000 0
1.426829 -0.355000 0
1.524390 -0.355000 0
1.621951 -0.355000 0
1.719512 -0.355000 0
1.817073 -0.355000 0
1.914634 -0.355000 0
2.012195 -0.355000 0
2.109756 -0.355000 0
2.207317 -0.355000 0
2.304878 -0.355000 0
2.402439 -0.355000 0
2.500000 -0.355000 0
2.597561 -0.355000 0
2.695122 -0.355000 0
2.792683 -0.355000 0
2.890244 -0.355000 0
2.987805 -0.355000 0
3.085366 -0.355000 0
3.182927 -0.355000 0
3.280488 -0.355000 0
3.378049 -0.355000 0
3.475610 -0.355000 0
3.573171 -0.355000 0
3.670732 -0.355000 0
3.768293 -0.355000 0
3.865854 -0.355000 0
3.963415 -0.355000 0
4.060976 -0.355000 0
4.158537 -0.355000 0
4.256098 -0.355000 0
4.353659 -0.355000 0
4.451220 -0.355000 0
4.548780 -0.355000 0
4.646341 -0.355000 0
4.743902 -0.355000 0
4.841463 -0.355000 0
4.939024 -0.355000 0
5.036585 -0.355000 0
5.134146 -0.355000 0
5.231707 -0.355000 0
5.329268 -0.355000 0
5.426829 -0.355000 0
5.524390 -0.355000 0
5.621951 -0.355000 0
5.719512 -0.355000 0
5.817073 -0.355000 0
5.914634 -0.355000 0
6.012195 -0.355000 0
6.109756 -0.355000 0
6.207317 -0.355000 0
6.304878 -0.355000 0
6.402439 -0.355000 0
-1.500000 -0.306667 0
-1.402439 -0.306667 0
-1.304878 -0.306667 0
-1.207317 -0.306667 0
-1.109756 -0.306667 0
-1.012195 -0.306667 0
-0.914634 -0.306667 0
-0.817073 -0.306667 0
-0.719512 -0.306667 0
-0.621951 -0.306667 0
-0.524390 -0.306667 0
-0.426829 -0.306667 0
-0.329268 -0.306667 0
-0.231707 -0.306667 0
-0.134146 -0.306667 0
-0.036585 -0.306667 0
0.060976 -0.306667 0
0.158537 -0.306667 0
0.256098 -0.306667 0
0.353659 -0.306667 0
0.451220 -0.306667 0
0.548780 -0.306667 0
0.646341 -0.306667 0
0.743902 -0.306667 0
0.841463 -0.306667 0
0.939024 -0.306667 0
1.036585 -0.306667 0
1.134146 -0.306667 0
1.231707 -0.306667 0
1.329268 -0.306667 0
1.426829 -0.306667 0
1.524390 -0.306667 0
1.621951 -0.306667 0
1.719512 -0.306667 0
1.817073 -0.306667 0
1.914634 -0.306667 0
2.012195 -0.306667 0
2.109756 -0.306667 0
2.207317 -0.306667 0
2.304878 -0.306667 0
2.402439 -0.306667 0
2.500000 -0.306667 0
2.597561 -0.306667 0
2.695122 -0.306667 0
2.792683 -0.306667 0
2.890244 -0.306667 0
2.987805 -0.306667 0
3.085366 -0.306667 0
3.182927 -0.306667 0
3.280488 -0.306667 0
3.378049 -0.306667 0
3.475610 -0.306667 0
3.573171 -0.306667 0
3.670732 -0.306667 0
3.768293 -0.306667 0
3.865854 -0.306667 0
3.963415 -0.306667 0
4.060976 -0.306667 0
4.158537 -0.306667 0
4.256098 -0.306667 0
4.353659 -0.306667 0
4.451220 -0.306667 0
4.548780 -0.306667 0
4.646341 -0.306667 0
4.743902 -0.306667 0
4.841463 -0.306667 0
4.939024 -0.306667 0
5.036585 -0.306667 0
5.134146 -0.306667 0
5.231707 -0.306667 0
5.329268 -0.306667 0
5.426829 -0.306667 0
5.524390 -0.306667 0
5.621951 -0.306667 0
5.719512 -0.306667 0
5.817073 -0.306667 0
5.914634 -0.306667 0
6.012195 -0.306667 0
6.109756 -0.306667 0
6.207317 -0.306667 0
6.304878 -0.306667 0
6.402439 -0.306667 0
-1.500000 -0.258333 0
-1.402439 -0.258333 0
-1.304878 -0.258333 0
-1.207317 -0.258333 0
-1.109756 -0.258333 0
-1.012195 -0.258333 0
-0.914634 -0.258333 0
-0.817073 -0.258333 0
-0.719512 -0.258333 0
-0.621951 -0.258333 0
-0.524390 -0.258333 0
-0.426829 -0.258333 0
-0.329268 -0.258333 0
-0.231707 -0.258333 0
-0.134146 -0.258333 0
-0.036585 -0.258333 0
0.060976 -0.258333 0
0.158537 -0.258333 0
0.256098 -0.258333 0
0.353659 -0.258333 0
0.451220 -0.258333 0
0.548780 -0.258333 0
0.646341 -0.258333 0
0.743902 -0.258333 0
0.841463 -0.258333 0
0.939024 -0.258333 0
1.036585 -0.258333 0
1.134146 -0.258333 0
1.231707 -0.258333 0
1.329268 -0.258333 0
1.426829 -0.258333 0
1.524390 -0.258333 0
1.621951 -0.258333 0
1.719512 -0.258333 0
1.817073 -0.258333 0
1.914634 -0.258333 0
2.012195 -0.258333 0
2.109756 -0.258333 0
2.207317 -0.258333 0
2.304878 -0.258333 0
2.402439 -0.258333 0
2.500000 -0.258333 0
2.597561 -0.258333 0
2.695122 -0.258333 0
2.792683 -0.258333 0
2.890244 -0.258333 0
2.987805 -0.258333 0
3.085366 -0.258333 0
3.182927 -0.258333 0
3.280488 -0.258333 0
3.378049 -0.258333 0
3.475610 -0.258333 0
3.573171 -0.258333 0
[...]
POINT_DATA 4920 

VECTORS velocity float
0.000000 0.000000 0
0.000000 0.000000 0
0.000000 0.000000 0
0.000000 0.000000 0
0.000000 0.000000 0
0.000000 0.000000 0
0.000000 0.000000 0
0.000000 0.000000 0
0.000000 0.000000 0
0.000000 0.000000 0
0.000000 0.000000 0
0.000000 0.000000 0
0.000000 0.000000 0
0.000000 0.000000 0
0.000000 0.000000 0
0.000002 0.000000 0
0.000002 0.000000 0
0.000002 0.000000 0
0.000001 0.000000 0
0.000002 0.000000 0
0.000002 0.000000 0
0.000003 0.000000 0
0.000004 0.000000 0
0.000005 0.000000 0
0.000006 0.000000 0
0.000006 0.000000 0
0.000005 0.000000 0
0.000005 0.000000 0
0.000004 0.000000 0
0.000004 0.000000 0
0.000004 0.000000 0
0.000004 0.000000 0
0.000004 0.000000 0
0.000004 0.000000 0
0.000004 0.000000 0
0.000005 0.000000 0
0.000005 0.000000 0
0.000005 0.000000 0
0.000005 0.000000 0
0.000005 0.000000 0
0.000005 0.000000 0
0.000005 0.000000 0
0.000005 0.000000 0
0.000005 0.000000 0
0.000005 0.000000 0
0.000005 0.000000 0
0.000004 0.000000 0
0.000004 0.000000 0
0.000004 0.000000 0
0.000004 0.000000 0
0.000004 0.000000 0
0.000004 0.000000 0
0.000003 0.000000 0
0.000003 0.000000 0
0.000003 0.000000 0
0.000002 0.000000 0
0.000000 0.000000 0
0.001926 0.000000 0
0.000000 0.000000 0
0.000000 0.000000 0
0.000000 0.000000 0
0.000000 0.000000 0
0.000000 0.000000 0
0.000000 0.000000 0
0.000000 0.000000 0
0.000000 0.000000 0
0.000000 0.000000 0
0.000000 0.000000 0
0.000000 0.000000 0
0.000000 0.000000 0
0.000000 0.000000 0
0.000000 0.000000 0
0.000000 0.000000 0
0.000000 0.000000 0
0.000000 0.000000 0
0.000000 0.000000 0
0.000000 0.000000 0
0.000000 0.000000 0
0.000000 0.000000 0
0.000000 0.000000 0
0.000000 0.000000 0
0.000000 0.000000 0
0.000000 0.000000 0
0.000000 0.000000 0
0.000000 0.000000 0
0.000000 0.000000 0
0.000000 0.000000 0
0.000000 0.000000 0
0.000000 0.000000 0
0.000000 0.000000 0
0.000000 0.000000 0
0.000000 0.000000 0
0.000000 0.000000 0
0.000000 0.000000 0
0.000000 0.000000 0
0.000000 0.000000 0
1.046043 -0.422394 0
2.517529 -0.737980 0
3.778681 -0.505002 0
4.621522 -0.265346 0
5.054947 -0.070127 0
5.165968 0.061897 0
5.062158 0.139703 0
4.828723 0.177731 0
4.529772 0.186527 0
4.212189 0.175049 0
3.908288 0.151166 0
3.637886 0.121617 0
3.410448 0.091711 0
3.227581 0.065036 0
3.085691 0.043446 0
2.978448 0.027351 0
2.898697 0.016216 0
2.839678 0.009060 0
2.795653 0.004825 0
2.762086 0.002584 0
2.735583 0.001613 0
2.713706 0.001399 0
2.694761 0.001598 0
2.677596 0.002002 0
2.661420 0.002500 0
2.645663 0.003050 0
2.629853 0.003660 0
2.613521 0.004373 0
2.596114 0.005270 0
2.576902 0.006460 0
2.554886 0.008094 0
2.528674 0.010375 0
2.496327 0.013568 0
2.455154 0.018023 0
2.401448 0.024189 0
2.330155 0.032610 0
2.234508 0.043891 0
2.105675 0.058512 0
1.932805 0.076533 0
1.703476 0.096456 0
1.407869 0.115124 0
1.037184 0.130427 0
0.615514 0.068576 0
0.000000 0.000000 0
-0.001545 0.000000 0
0.000000 0.000000 0
0.000000 0.000000 0
0.000000 0.000000 0
0.000000 0.000000 0
0.000000 0.000000 0
0.000000 0.000000 0
0.000000 0.000000 0
0.000000 0.000000 0
0.000000 0.000000 0
0.000000 0.000000 0
0.000000 0.000000 0
0.000000 0.000000 0
0.000000 0.000000 0
0.000000 0.000000 0
0.000000 0.000000 0
0.000000 0.000000 0
0.000000 0.000000 0
0.000000 0.000000 0
0.000000 0.000000 0
0.000000 0.000000 0
0.000000 0.000000 0
0.000000 0.000000 0
0.000000 0.000000 0
0.000000 0.000000 0
0.000000 0.000000 0
0.000000 0.000000 0
0.000000 0.000000 0
0.000000 0.000000 0
0.000000 0.000000 0
0.000000 0.000000 0
0.000000 0.000000 0
0.000000 0.000000 0
0.000000 0.000000 0
0.000000 0.000000 0
0.000000 0.000000 0
0.000000 0.000000 0
1.159185 -0.516824 0
2.652881 -1.245615 0
3.827452 -1.353588 0
5.001161 -1.042353 0
5.862400 -0.632283 0
6.389432 -0.269728 0
6.645646 -0.003572 0
6.705476 0.167077 0
6.637012 0.263753 0
6.489739 0.305441 0
6.299829 0.307894 0
6.093355 0.284519 0
5.888459 0.246638 0
5.696951 0.203272 0
5.525589 0.160890 0
5.377230 0.123424 0
5.251887 0.092640 0
5.147716 0.068749 0
5.061862 0.051050 0
4.991127 0.038440 0
4.932419 0.029759 0
4.883007 0.023968 0
4.840627 0.020224 0
4.803478 0.017890 0
4.770161 0.016518 0
4.739594 0.015820 0
4.710908 0.015639 0
4.683363 0.015923 0
4.656243 0.016715 0
4.628774 0.018142 0
4.600021 0.020425 0
4.568773 0.023893 0
4.533399 0.029011 0
4.491658 0.036423 0
4.440447 0.047005 0
4.375447 0.061927 0
4.290653 0.082705 0
4.177734 0.111211 0
4.025243 0.149469 0
3.817683 0.199256 0
3.534878 0.260062 0
3.152575 0.330092 0
2.645143 0.392039 0
2.012408 0.511530 0
1.049182 0.303134 0
0.000000 0.000000 0
-0.004685 0.000000 0
0.000000 0.000000 0
0.000000 0.000000 0
0.000000 0.000000 0
0.000000 0.000000 0
0.000000 0.000000 0
0.000000 0.000000 0
0.000000 0.000000 0
0.000000 0.000000 0
0.000000 0.000000 0
0.000000 0.000000 0
0.000000 0.000000 0
0.000000 0.000000 0
0.000000 0.000000 0
0.000000 0.000000 0
0.000000 0.000000 0
0.000000 0.000000 0
0.000000 0.000000 0
0.000000 0.000000 0
0.000000 0.000000 0
0.000000 0.000000 0
0.000000 0.000000 0
0.000000 0.000000 0
0.000000 0.000000 0
0.000000 0.000000 0
0.000000 0.000000 0
0.000000 0.000000 0
0.000000 0.000000 0
0.000000 0.000000 0
0.000000 0.000000 0
0.000000 0.000000 0
0.000000 0.000000 0
0.000000 0.000000 0
0.000000 0.000000 0
0.000000 0.000000 0
0.935711 -0.582321 0
2.633637 -1.320920 0
3.461205 -1.742895 0
4.643589 -1.901357 0
5.706727 -1.513150 0
6.429696 -0.953119 0
6.854543 -0.458160 0
7.077821 -0.094676 0
7.166051 0.143980 0
7.168010 0.284611 0
7.116869 0.353573 0
7.034844 0.371425 0
6.936808 0.354965 0
6.832875 0.318003 0
6.730027 0.271483 0
6.632970 0.223431 0
6.544569 0.179043 0
6.466142 0.141056 0
6.397791 0.110357 0
6.338778 0.086636 0
6.287891 0.068953 0
6.243754 0.056148 0
6.205031 0.047089 0
6.170542 0.040799 0
6.139304 0.036508 0
6.110521 0.033652 0
6.083554 0.031855 0
6.057866 0.030908 0
6.032970 0.030742 0
6.008372 0.031417 0
5.983506 0.033123 0
5.957665 0.036185 0
5.929908 0.041100 0
5.898946 0.048579 0
5.862982 0.059617 0
5.819484 0.075596 0
5.764866 0.098399 0
5.694009 0.130560 0
5.599556 0.175380 0
5.470888 0.236887 0
5.292474 0.319468 0
5.042191 0.425961 0
4.688174 0.555914 0
4.197874 0.695285 0
3.527615 0.855501 0
2.828327 0.995618 0
1.341201 0.522160 0
-0.000000 0.000000 0
-0.005763 0.000000 0
0.000000 0.000000 0
0.000000 0.000000 0
0.000000 0.000000 0
0.000000 0.000000 0
0.000000 0.000000 0
0.000000 0.000000 0
0.000000 0.000000 0
0.000000 0.000000 0
0.000000 0.000000 0
0.000000 0.000000 0
0.000000 0.000000 0
0.000000 0.000000 0
0.000000 0.000000 0
0.000000 0.000000 0
0.000000 0.000000 0
0.000000 0.000000 0
0.000000 0.000000 0
0.000000 0.000000 0
0.000000 0.000000 0
0.000000 0.000000 0
0.000000 0.000000 0
0.000000 0.000000 0
0.000000 0.000000 0
0.000000 0.000000 0
0.000000 0.000000 0
0.000000 0.000000 0
0.000000 0.000000 0
0.000000 0.000000 0
0.000000 0.000000 0
0.000000 0.000000 0
0.000000 0.000000 0
0.000000 0.000000 0
0.738024 -0.467188 0
2.143521 -1.316410 0
3.089224 -1.776037 0
3.863572 -2.241379 0
5.206234 -2.466056 0
6.161535 -1.927220 0
6.686860 -1.200930 0
6.944650 -0.590820 0
7.063399 -0.157899 0
7.110052 0.122395 0
7.114179 0.288118 0
7.096114 0.371414 0
7.067286 0.397099 0
7.033438 0.384578 0
6.997349 0.349081 0
6.960646 0.302308 0
6.924616 0.252769 0
6.890378 0.206074 0
6.858780 0.165356 0
6.830298 0.131848 0
6.805025 0.105496 0
6.782753 0.085517 0
6.763092 0.070810 0
6.745579 0.060239 0
6.729754 0.052786 0
6.715209 0.047625 0
6.701599 0.044137 0
6.688637 0.041907 0
6.676077 0.040699 0
6.663692 0.040444 0
6.651240 0.041220 0
6.638437 0.043263 0
6.624910 0.046978 0
6.610147 0.052983 0
6.593426 0.062168 0
6.573706 0.075790 0
6.549478 0.095613 0
6.518525 0.124090 0
6.477541 0.164602 0
6.421500 0.221749 0
6.342583 0.301602 0
6.228171 0.411639 0
6.057826 0.559443 0
5.797777 0.748381 0
5.404567 0.966999 0
4.835000 1.190026 0
4.164140 1.388509 0
3.373576 1.408452 0
1.498670 0.669516 0
-0.000000 0.000000 0
-0.005210 0.000000 0
0.000000 0.000000 0
0.000000 0.000000 0
0.000000 0.000000 0
0.000000 0.000000 0
0.000000 0.000000 0
0.000000 0.000000 0
0.000000 0.000000 0
0.000000 0.000000 0
0.000000 0.000000 0
0.000000 0.000000 0
0.000000 0.000000 0
0.000000 0.000000 0
0.000000 0.000000 0
0.000000 0.000000 0
0.000000 0.000000 0
0.000000 0.000000 0
0.000000 0.000000 0
0.000000 0.000000 0
0.000000 0.000000 0
0.000000 0.000000 0
0.000000 0.000000 0
0.000000 0.000000 0
0.000000 0.000000 0
0.000000 0.000000 0
0.000000 0.000000 0
0.000000 0.000000 0
0.000000 0.000000 0
0.000000 0.000000 0
0.000000 0.000000 0
0.000000 0.000000 0
0.535850 -0.369100 0
1.697773 -1.069027 0
2.544274 -1.750766 0
3.299586 -2.173062 0
4.125286 -2.791696 0
5.617378 -3.039807 0
6.350126 -2.246677 0
6.582706 -1.341087 0
6.616162 -0.644704 0
6.604053 -0.176619 0
6.589415 0.118823 0
6.579469 0.291516 0
6.578312 0.376805 0
6.585325 0.402475 0
6.597609 0.389613 0
6.611746 0.354065 0
6.625070 0.307516 0
6.636112 0.258243 0
6.644468 0.211659 0
6.650418 0.170821 0
6.654544 0.136989 0
6.657452 0.110191 0
6.659637 0.089727 0
6.661445 0.074565 0
6.663086 0.063605 0
6.664673 0.055845 0
6.666254 0.050456 0
6.667838 0.046816 0
6.669415 0.044499 0
6.670969 0.043266 0
6.672476 0.043046 0
6.673912 0.043929 0
6.675247 0.046167 0
6.676439 0.050200 0
6.677427 0.056698 0
6.678107 0.066632 0
6.678304 0.081390 0
6.677709 0.102933 0
6.675774 0.134039 0
6.671491 0.178628 0
6.662965 0.242240 0
6.646514 0.332666 0
6.614645 0.460541 0
6.551956 0.639186 0
6.426594 0.879549 0
6.182051 1.172261 0
5.769531 1.470029 0
5.217603 1.719631 0
4.576835 1.850828 0
3.665924 1.684585 0
1.554112 0.747576 0
-0.000001 0.000000 0
-0.003919 0.000000 0
0.000000 0.000000 0
0.000000 0.000000 0
0.000000 0.000000 0
0.000000 0.000000 0
0.000000 0.000000 0
0.000000 0.000000 0
0.000000 0.000000 0
0.000000 0.000000 0
0.000000 0.000000 0
0.000000 0.000000 0
0.000000 0.000000 0
0.000000 0.000000 0
0.000000 0.000000 0
0.000000 0.000000 0
0.000000 0.000000 0
0.000000 0.000000 0
0.000000 0.000000 0
0.000000 0.000000 0
0.000000 0.000000 0
0.000000 0.000000 0
0.000000 0.000000 0
0.000000 0.000000 0
0.000000 0.000000 0
0.000000 0.000000 0
0.000000 0.000000 0
0.000000 0.000000 0
0.000000 0.000000 0
0.000000 0.000000 0
0.376179 -0.266799 0
1.296618 -0.845905 0
2.060590 -1.465665 0
2.753390 -2.109975 0
3.393857 -2.559297 0
4.279669 -3.389652 0
5.829344 -3.568279 0
6.149864 -2.405459 0
5.979695 -1.332729 0
5.740918 -0.601395 0
5.588484 -0.144647 0
5.512462 0.134575 0
5.499573 0.293619 0
5.529955 0.368513 0
5.585785 0.387539 0
5.653570 0.371489 0
5.723598 0.335476 0
5.789694 0.290237 0
5.848606 0.243159 0
5.899236 0.198986 0
5.941868 0.160364 0
5.977521 0.128363 0
6.007476 0.102973 0
6.032989 0.083539 0
6.055146 0.069101 0
6.074825 0.058640 0
6.092696 0.051217 0
6.109256 0.046057 0
6.124873 0.042571 0
6.139818 0.040356 0
6.154309 0.039183 0
6.168539 0.038985 0
6.182707 0.039847 0
6.197047 0.042011 0
6.211856 0.045898 0
6.227533 0.052157 0
6.244612 0.061733 0
6.263812 0.075987 0
6.286088 0.096867 0
6.312672 0.127170 0
6.345082 0.170948 0
6.385002 0.234123 0
6.433814 0.325541 0
6.491037 0.458485 0
6.549918 0.652606 0
6.585763 0.931638 0
6.524607 1.292519 0
6.294258 1.667830 0
5.917895 1.979391 0
5.427984 2.177180 0
4.787696 2.177310 0
3.763155 1.830317 0
1.540700 0.773804 0
-0.000001 0.000000 0
-0.002574 0.000000 0
0.000000 0.000000 0
0.000000 0.000000 0
0.000000 0.000000 0
0.000000 0.000000 0
0.000000 0.000000 0
0.000000 0.000000 0
0.000000 0.000000 0
0.000000 0.000000 0
0.000000 0.000000 0
0.000000 0.000000 0
0.000000 0.000000 0
0.000000 0.000000 0
0.000000 0.000000 0
0.000000 0.000000 0
0.000000 0.000000 0
0.000000 0.000000 0
0.000000 0.000000 0
0.000000 0.000000 0
0.000000 0.000000 0
0.000000 0.000000 0
0.000000 0.000000 0
0.000000 0.000000 0
0.000000 0.000000 0
0.000000 0.000000 0
0.000000 0.000000 0
0.000000 0.000000 0
0.267714 -0.186313 0
0.995273 -0.643644 0
1.701678 -1.204914 0
2.319045 -1.790736 0
2.879729 -2.411289 0
3.394798 -2.929206 0
4.283256 -3.998277 0
5.742464 -3.966333 0
5.399995 -2.321163 0
4.736816 -1.138489 0
4.208093 -0.450892 0
3.919086 -0.063438 0
3.815325 0.162872 0
3.846756 0.282850 0
3.952731 0.334094 0
4.092726 0.341234 0
4.242682 0.321338 0
4.387994 0.286627 0
4.520686 0.245585 0
4.637216 0.203974 0
4.736928 0.165455 0
4.820907 0.132037 0
4.891136 0.104485 0
4.949911 0.082711 0
4.999474 0.066111 0
5.041822 0.053839 0
5.078629 0.045003 0
5.111238 0.038787 0
5.140704 0.034515 0
5.167841 0.031675 0
5.193289 0.029916 0
5.217568 0.029037 0
5.241143 0.028978 0
5.264481 0.029806 0
5.288107 0.031726 0
5.312676 0.035097 0
5.339048 0.040470 0
5.368387 0.048659 0
5.402287 0.060842 0
5.442941 0.078728 0
5.493354 0.104812 0
5.557606 0.142795 0
5.641149 0.198280 0
5.750992 0.280134 0
5.895425 0.403021 0
6.080209 0.592257 0
6.299724 0.892089 0
6.454223 1.316677 0
6.417783 1.770604 0
6.243998 2.148798 0
5.942707 2.410747 0
5.503328 2.509369 0
4.834702 2.365499 0
3.724512 1.876038 0
1.485777 0.765690 0
-0.000001 0.000000 0
-0.001576 0.000000 0
0.000000 0.000000 0
0.000000 0.000000 0
0.000000 0.000000 0
0.000000 0.000000 0
0.000000 0.000000 0
0.000000 0.000000 0
0.000000 0.000000 0
0.000000 0.000000 0
0.000000 0.000000 0
0.000000 0.000000 0
0.000000 0.000000 0
0.000000 0.000000 0
0.000000 0.000000 0
0.000000 0.000000 0
0.000000 0.000000 0
0.000000 0.000000 0
0.000000 0.000000 0
0.000000 0.000000 0
0.000000 0.000000 0
0.000000 0.000000 0
0.000000 0.000000 0
0.000000 0.000000 0
0.000000 0.000000 0
0.000000 0.000000 0
0.209019 -0.131738 0
0.804879 -0.492130 0
1.467838 -0.977156 0
2.052068 -1.501724 0
2.534548 -2.049291 0
2.938458 -2.642921 0
3.297358 -3.254627 0
4.067667 -4.552725 0
5.217841 -4.121530 0
3.915692 -1.907244 0
2.774322 -0.742241 0
2.001222 -0.196278 0
1.717895 0.049936 0
1.748419 0.170408 0
1.908828 0.225546 0
2.128104 0.246656 0
2.367437 0.243892 0
2.603818 0.225208 0
2.822568 0.197749 0
3.016340 0.166768 0
3.182590 0.136029 0
3.321864 0.107983 0
3.436569 0.083967 0
3.530057 0.064452 0
3.605977 0.049301 0
3.667845 0.038004 0
3.718795 0.029887 0
3.761470 0.024250 0
3.798006 0.020464 0
3.830074 0.018015 0
3.858956 0.016519 0
3.885639 0.015720 0
3.910909 0.015475 0
3.935443 0.015744 0
3.959901 0.016580 0
3.985020 0.018134 0
4.011713 0.020661 0
4.041187 0.024557 0
4.075095 0.030404 0
4.115736 0.039052 0
4.166336 0.051751 0
4.231427 0.070363 0
4.317400 0.097728 0
4.433299 0.138316 0
4.591833 0.199568 0
4.811663 0.295386 0
5.114684 0.452310 0
5.541616 0.746345 0
5.973578 1.234031 0
6.147391 1.771979 0
6.201743 2.214751 0
6.122566 2.544120 0
5.891920 2.726234 0
5.470042 2.711572 0
4.761256 2.439841 0
3.601649 1.853295 0
1.412212 0.737265 0
-0.000001 0.000000 0
-0.001111 0.000000 0
0.000000 0.000000 0
0.000000 0.000000 0
0.000000 0.000000 0
0.000000 0.000000 0
0.000000 0.000000 0
0.000000 0.000000 0
0.000000 0.000000 0
0.000000 0.000000 0
0.000000 0.000000 0
0.000000 0.000000 0
0.000000 0.000000 0
0.000000 0.000000 0
0.000000 0.000000 0
0.000000 0.000000 0
0.000000 0.000000 0
0.000000 0.000000 0
0.000000 0.000000 0
0.000000 0.000000 0
0.000000 0.000000 0
0.000000 0.000000 0
0.000000 0.000000 0
0.000000 0.000000 0
0.195136 -0.102189 0
0.723841 -0.396495 0
1.359851 -0.809061 0
1.927845 -1.261522 0
2.380924 -1.733380 0
2.709117 -2.229868 0
2.934286 -2.789198 0
3.100629 -3.488635 0
3.570620 -4.949717 0
4.020153 -3.891041 0
1.556366 -1.110603 0
0.421156 -0.190028 0
0.058150 0.072480 0
0.024968 0.061805 0
0.158947 0.068280 0
0.368937 0.094748 0
0.614212 0.106891 0
0.866812 0.105557 0
1.106509 0.095858 0
1.321395 0.082257 0
1.505665 0.067224 0
1.658017 0.052612 0
1.780240 0.039630 0
1.875980 0.028895 0
1.949728 0.020558 0
2.006078 0.014449 0
2.049241 0.010219 0
2.082789 0.007455 0
2.109567 0.005760 0
2.131737 0.004799 0
2.150874 0.004320 0
2.168101 0.004147 0
2.184219 0.004178 0
2.199832 0.004364 0
2.215456 0.004706 0
2.231612 0.005244 0
2.248923 0.006057 0
2.268214 0.007271 0
2.290628 0.009070 0
2.317783 0.011726 0
2.351998 0.015640 0
2.396609 0.021412 0
2.456457 0.029972 0
2.538637 0.042784 0
2.653721 0.062321 0
2.817829 0.092686 0
3.056549 0.143993 0
3.414066 0.230626 0
3.969538 0.466579 0
4.892711 1.016566 0
5.375194 1.657568 0
5.751036 2.161097 0
5.956980 2.564239 0
5.972139 2.832641 0
5.783022 2.925649 0
5.353046 2.801671 0
4.611133 2.429264 0
3.441147 1.789098 0
1.341341 0.700013 0
-0.000001 0.000000 0
-0.001302 0.000000 0
0.000000 0.000000 0
0.000000 0.000000 0
0.000000 0.000000 0
0.000000 0.000000 0
0.000000 0.000000 0
0.000000 0.000000 0
0.000000 0.000000 0
0.000000 0.000000 0
0.000000 0.000000 0
0.000000 0.000000 0
0.000000 0.000000 0
0.000000 0.000000 0
0.000000 0.000000 0
0.000000 0.000000 0
0.000000 0.000000 0
0.000000 0.000000 0
0.000000 0.000000 0
0.000000 0.000000 0
0.000000 0.000000 0
0.000000 0.000000 0
0.224983 -0.094985 0
0.750627 -0.355551 0
1.379556 -0.707394 0
1.940323 -1.088614 0
2.379470 -1.483013 0
2.678299 -1.888779 0
2.838018 -2.323436 0
2.877283 -2.836883 0
2.824044 -3.569878 0
2.796068 -5.008273 0
1.634423 -2.999394 0
0.000004 0.000000 0
0.000005 0.000000 0
0.000006 0.000000 0
0.000008 0.000000 0
0.000009 0.000000 0
0.000009 0.000000 0
0.000007 0.000000 0
0.000006 0.000000 0
0.000005 0.000000 0
0.000004 0.000000 0
0.000004 0.000000 0
0.000004 0.000000 0
0.000004 0.000000 0
0.000005 0.000000 0
0.000005 0.000000 0
0.000005 0.000000 0
0.000005 0.000000 0
0.000005 0.000000 0
0.000005 0.000000 0
0.000005 0.000000 0
0.000005 0.000000 0
0.000005 0.000000 0
0.000005 0.000000 0
0.000005 0.000000 0
0.000005 0.000000 0
0.000005 0.000000 0
0.000005 0.000000 0
0.000005 0.000000 0
0.000005 0.000000 0
0.000005 0.000000 0
0.000005 0.000000 0
0.000005 0.000000 0
0.000005 0.000000 0
0.000005 0.000000 0
0.000006 0.000000 0
0.000006 0.000000 0
0.000007 0.000000 0
0.000008 0.000000 0
0.000010 0.000000 0
2.078692 0.523845 0
3.747922 1.346750 0
4.734645 1.926525 0
5.369976 2.434582 0
5.713098 2.812416 0
5.791972 3.018282 0
5.618134 3.020414 0
5.176188 2.800481 0
4.425020 2.359608 0
3.284350 1.707216 0
1.290267 0.664502 0
-0.000001 0.000000 0
-0.002171 0.000000 0
0.000000 0.000000 0
0.000000 0.000000 0
0.000000 0.000000 0
0.000000 0.000000 0
0.000000 0.000000 0
0.000000 0.000000 0
0.000000 0.000000 0
0.000000 0.000000 0
0.000000 0.000000 0
0.000000 0.000000 0
0.000000 0.000000 0
0.000000 0.000000 0
0.000000 0.000000 0
0.000000 0.000000 0
0.000000 0.000000 0
0.000000 0.000000 0
0.000000 0.000000 0
0.000000 0.000000 0
0.308774 -0.109409 0
0.896875 -0.368133 0
1.540922 -0.672495 0
2.095421 -0.985891 0
2.518903 -1.304435 0
2.796265 -1.627127 0
2.926187 -1.960552 0
2.918028 -2.328448 0
2.784384 -2.782275 0
2.521594 -3.448400 0
2.017180 -4.377376 0
0.037570 -0.000004 0
-0.073605 2.448538 0
0.383757 0.000000 0
0.309969 0.000000 0
0.237459 0.000000 0
0.185219 0.000000 0
0.099636 0.000000 0
-0.006031 0.000000 0
-0.116128 0.000000 0
-0.219101 0.000000 0
-0.309620 0.000000 0
-0.385139 0.000000 0
-0.445312 0.000000 0
-0.491336 0.000000 0
-0.525304 0.000000 0
-0.549660 0.000000 0
-0.566799 0.000000 0
-0.578825 0.000000 0
-0.587427 0.000000 0
-0.593873 0.000000 0
-0.599054 0.000000 0
-0.603561 0.000000 0
-0.607773 0.000000 0
-0.611932 0.000000 0
-0.616206 0.000000 0
-0.620741 0.000000 0
-0.625705 0.000000 0
-0.631326 0.000000 0
-0.637932 0.000000 0
-0.646003 0.000000 0
-0.656240 0.000000 0
-0.669672 0.000000 0
-0.687808 0.000000 0
-0.712893 0.000000 0
-0.748307 0.000000 0
-0.799251 0.000000 0
-0.874102 0.000000 0
-0.986338 0.000000 0
-1.164749 0.000000 0
-1.451854 0.131329 0
0.000000 -0.000023 0
1.712668 0.345151 0
3.307959 1.357504 0
4.407661 2.079497 0
5.122352 2.623577 0
5.502832 2.972696 0
5.592949 3.106741 0
5.417125 3.020352 0
4.974937 2.726346 0
4.245810 2.254331 0
3.170239 1.628469 0
1.276494 0.639257 0
-0.000001 0.000000 0
-0.003941 0.000000 0
0.000000 0.000000 0
0.000000 0.000000 0
0.000000 0.000000 0
0.000000 0.000000 0
0.000000 0.000000 0
0.000000 0.000000 0
0.000000 0.000000 0
0.000000 0.000000 0
0.000000 0.000000 0
0.000000 0.000000 0
0.000000 0.000000 0
0.000000 0.000000 0
0.000000 0.000000 0
0.000000 0.000000 0
0.000000 0.000000 0
0.000000 0.000000 0
0.482419 -0.150391 0
1.207133 -0.439695 0