# vtk DataFile Version 2.0
generated by CFD-lab course output (written by Tobias Neckel) 
ASCII

DATASET STRUCTURED_GRID
DIMENSIONS  82 60 1 
POINTS 4920 float

-1.500000 -0.500000 0
-1.402439 -0.500000 0
-1.304878 -0.500000 0
-1.207317 -0.500000 0
-1.109756 -0.500000 0
-1.012195 -0.500000 0
-0.914634 -0.500000 0
-0.817073 -0.500000 0
-0.719512 -0.500000 0
-0.621951 -0.500000 0
-0.524390 -0.500000 0
-0.426829 -0.500000 0
-0.329268 -0.500000 0
-0.231707 -0.500000 0
-0.134146 -0.500000 0
-0.036585 -0.500000 0
0.060976 -0.500000 0
0.158537 -0.500000 0
0.256098 -0.500000 0
0.353659 -0.500000 0
0.451220 -0.500000 0
0.548780 -0.500000 0
0.646341 -0.500000 0
0.743902 -0.500000 0
0.841463 -0.500000 0
0.939024 -0.500000 0
1.036585 -0.500000 0
1.134146 -0.500000 0
1.231707 -0.500000 0
1.329268 -0.500000 0
1.426829 -0.500000 0
1.524390 -0.500000 0
1.621951 -0.500000 0
1.719512 -0.500000 0
1.817073 -0.500000 0
1.914634 -0.500000 0
2.012195 -0.500000 0
2.109756 -0.500000 0
2.207317 -0.500000 0
2.304878 -0.500000 0
2.402439 -0.500000 0
2.500000 -0.500000 0
2.597561 -0.500000 0
2.695122 -0.500000 0
2.792683 -0.500000 0
2.890244 -0.500000 0
2.987805 -0.500000 0
3.085366 -0.500000 0
3.182927 -0.500000 0
3.280488 -0.500000 0
3.378049 -0.500000 0
3.475610 -0.500000 0
3.573171 -0.500000 0
3.670732 -0.500000 0
3.768293 -0.500000 0
3.865854 -0.500000 0
3.963415 -0.500000 0
4.060976 -0.500000 0
4.158537 -0.500000 0
4.256098 -0.500000 0
4.353659 -0.500000 0
4.451220 -0.500000 0
4.548780 -0.500000 0
4.646341 -0.500000 0
4.743902 -0.500000 0
4.841463 -0.500000 0
4.939024 -0.500000 0
5.036585 -0.500000 0
5.134146 -0.500000 0
5.231707 -0.500000 0
5.329268 -0.500000 0
5.426829 -0.500000 0
5.524390 -0.500000 0
5.621951 -0.500000 0
5.719512 -0.500000 0
5.817073 -0.500000 0
5.914634 -0.500000 0
6.012195 -0.500000 0
6.109756 -0.500000 0
6.207317 -0.500000 0
6.304878 -0.500000 0
6.402439 -0.500000 0
-1.500000 -0.451667 0
-1.402439 -0.451667 0
-1.304878 -0.451667 0
-1.207317 -0.451667 0
-1.109756 -0.451667 0
-1.012195 -0.451667 0
-0.914634 -0.451667 0
-0.817073 -0.451667 0
-0.719512 -0.451667 0
-0.621951 -0.451667 0
-0.524390 -0.451667 0
-0.426829 -0.451667 0
-0.329268 -0.451667 0
-0.231707 -0.451667 0
-0.134146 -0.451667 0
-0.036585 -0.451667 0
0.060976 -0.451667 0
0.158537 -0.451667 0
0.256098 -0.451667 0
0.353659 -0.451667 0
0.451220 -0.451667 0
0.548780 -0.451667 0
0.646341 -0.451667 0
0.743902 -0.451667 0
0.841463 -0.451667 0
0.939024 -0.451667 0
1.036585 -0.451667 0
1.134146 -0.451667 0
1.231707 -0.451667 0
1.329268 -0.451667 0
1.426829 -0.451667 0
1.524390 -0.451667 0
1.621951 -0.451667 0
1.719512 -0.451667 0
1.817073 -0.451667 0
1.914634 -0.451667 0
2.012195 -0.451667 0
2.109756 -0.451667 0
2.207317 -0.451667 0
2.304878 -0.451667 0
2.402439 -0.451667 0
2.500000 -0.451667 0
2.597561 -0.451667 0
2.695122 -0.451667 0
2.792683 -0.451667 0
2.890244 -0.451667 0
2.987805 -0.451667 0
3.085366 -0.451667 0
3.182927 -0.451667 0
3.280488 -0.451667 0
3.378049 -0.451667 0
3.475610 -0.451667 0
3.573171 -0.451667 0
3.670732 -0.451667 0
3.768293 -0.451667 0
3.865854 -0.451667 0
3.963415 -0.451667 0
4.060976 -0.451667 0
4.158537 -0.451667 0
4.256098 -0.451667 0
4.353659 -0.451667 0
4.451220 -0.451667 0
4.548780 -0.451667 0
4.646341 -0.451667 0
4.743902 -0.451667 0
4.841463 -0.451667 0
4.939024 -0.451667 0
5.036585 -0.451667 0
5.134146 -0.451667 0
5.231707 -0.451667 0
5.329268 -0.451667 0
5.426829 -0.451667 0
5.524390 -0.451667 0
5.621951 -0.451667 0
5.719512 -0.451667 0
5.817073 -0.451667 0
5.914634 -0.451667 0
6.012195 -0.451667 0
6.109756 -0.451667 0
6.207317 -0.451667 0
6.304878 -0.451667 0
6.402439 -0.451667 0
-1.500000 -0.403333 0
-1.402439 -0.403333 0
-1.304878 -0.403333 0
-1.207317 -0.403333 0
-1.109756 -0.403333 0
-1.012195 -0.403333 0
-0.914634 -0.403333 0
-0.817073 -0.403333 0
-0.719512 -0.403333 0
-0.621951 -0.403333 0
-0.524390 -0.403333 0
-0.426829 -0.403333 0
-0.329268 -0.403333 0
-0.231707 -0.403333 0
-0.134146 -0.403333 0
-0.036585 -0.403333 0
0.060976 -0.403333 0
0.158537 -0.403333 0
0.256098 -0.403333 0
0.353659 -0.403333 0
0.451220 -0.403333 0
0.548780 -0.403333 0
0.646341 -0.403333 0
0.743902 -0.403333 0
0.841463 -0.403333 0
0.939024 -0.403333 0
1.036585 -0.403333 0
1.134146 -0.403333 0
1.231707 -0.403333 0
1.329268 -0.403333 0
1.426829 -0.403333 0
1.524390 -0.403333 0
1.621951 -0.403333 0
1.719512 -0.403333 0
1.817073 -0.403333 0
1.914634 -0.403333 0
2.012195 -0.403333 0
2.109756 -0.403333 0
2.207317 -0.403333 0
2.304878 -0.403333 0
2.402439 -0.403333 0
2.500000 -0.403333 0
2.597561 -0.403333 0
2.695122 -0.403333 0
2.792683 -0.403333 0
2.890244 -0.403333 0
2.987805 -0.403333 0
3.085366 -0.403333 0
3.182927 -0.403333 0
3.280488 -0.403333 0
3.378049 -0.403333 0
3.475610 -0.403333 0
3.573171 -0.403333 0
3.670732 -0.403333 0
3.768293 -0.403333 0
3.865854 -0.403333 0
3.963415 -0.403333 0
4.060976 -0.403333 0
4.158537 -0.403333 0
4.256098 -0.403333 0
4.353659 -0.403333 0
4.451220 -0.403333 0
4.548780 -0.403333 0
4.646341 -0.403333 0
4.743902 -0.403333 0
4.841463 -0.403333 0
4.939024 -0.403333 0
5.036585 -0.403333 0
5.134146 -0.403333 0
5.231707 -0.403333 0
5.329268 -0.403333 0
5.426829 -0.403333 0
5.524390 -0.403333 0
5.621951 -0.403333 0
5.719512 -0.403333 0
5.817073 -0.403333 0
5.914634 -0.403333 0
6.012195 -0.403333 0
6.109756 -0.403333 0
6.207317 -0.403333 0
6.304878 -0.403333 0
6.402439 -0.403333 0
-1.500000 -0.355000 0
-1.402439 -0.355000 0
-1.304878 -0.355000 0
-1.207317 -0.355000 0
-1.109756 -0.355000 0
-1.012195 -0.355000 0
-0.914634 -0.355000 0
-0.817073 -0.355000 0
-0.719512 -0.355000 0
-0.621951 -0.355000 0
-0.524390 -0.355000 0
-0.426829 -0.355000 0
-0.329268 -0.355000 0
-0.231707 -0.355000 0
-0.134146 -0.355000 0
-0.036585 -0.355000 0
0.060976 -0.355000 0
0.158537 -0.355000 0
0.256098 -0.355000 0
0.353659 -0.355000 0
0.451220 -0.355000 0
0.548780 -0.355000 0
0.646341 -0.355000 0
0.743902 -0.355000 0
0.841463 -0.355000 0
0.939024 -0.355000 0
1.036585 -0.355000 0
1.134146 -0.355000 0
1.231707 -0.355000 0
1.329268 -0.355000 0
1.426829 -0.355000 0
1.524390 -0.355000 0
1.621951 -0.355000 0
1.719512 -0.355000 0
1.817073 -0.355000 0
1.914634 -0.355000 0
2.012195 -0.355000 0
2.109756 -0.355000 0
2.207317 -0.355000 0
2.304878 -0.355000 0
2.402439 -0.355000 0
2.500000 -0.355000 0
2.597561 -0.355000 0
2.695122 -0.355000 0
2.792683 -0.355000 0
2.890244 -0.355000 0
2.987805 -0.355000 0
3.085366 -0.355000 0
3.182927 -0.355000 0
3.280488 -0.355000 0
3.378049 -0.355000 0
3.475610 -0.355000 0
3.573171 -0.355000 0
3.670732 -0.355000 0
3.768293 -0.355000 0
3.865854 -0.355000 0
3.963415 -0.355000 0
4.060976 -0.355000 0
4.158537 -0.355000 0
4.256098 -0.355000 0
4.353659 -0.355000 0
4.451220 -0.355000 0
4.548780 -0.355000 0
4.646341 -0.355000 0
4.743902 -0.355000 0
4.841463 -0.355000 0
4.939024 -0.355000 0
5.036585 -0.355000 0
5.134146 -0.355000 0
5.231707 -0.355000 0
5.329268 -0.355000 0
5.426829 -0.355000 0
5.524390 -0.355000 0
5.621951 -0.355000 0
5.719512 -0.355000 0
5.817073 -0.355000 0
5.914634 -0.355000 0
6.012195 -0.355000 0
6.109756 -0.355000 0
6.207317 -0.355000 0
6.304878 -0.355000 0
6.402439 -0.355000 0
-1.500000 -0.306667 0
-1.402439 -0.306667 0
-1.304878 -0.306667 0
-1.207317 -0.306667 0
-1.109756 -0.306667 0
-1.012195 -0.306667 0
-0.914634 -0.306667 0
-0.817073 -0.306667 0
-0.719512 -0.306667 0
-0.621951 -0.306667 0
-0.524390 -0.306667 0
-0.426829 -0.306667 0
-0.329268 -0.306667 0
-0.231707 -0.306667 0
-0.134146 -0.306667 0
-0.036585 -0.306667 0
0.060976 -0.306667 0
0.158537 -0.306667 0
0.256098 -0.306667 0
0.353659 -0.306667 0
0.451220 -0.306667 0
0.548780 -0.306667 0
0.646341 -0.306667 0
0.743902 -0.306667 0
0.841463 -0.306667 0
0.939024 -0.306667 0
1.036585 -0.306667 0
1.134146 -0.306667 0
1.231707 -0.306667 0
1.329268 -0.306667 0
1.426829 -0.306667 0
1.524390 -0.306667 0
1.621951 -0.306667 0
1.719512 -0.306667 0
1.817073 -0.306667 0
1.914634 -0.306667 0
2.012195 -0.306667 0
2.109756 -0.306667 0
2.207317 -0.306667 0
2.304878 -0.306667 0
2.402439 -0.306667 0
2.500000 -0.306667 0
2.597561 -0.306667 0
2.695122 -0.306667 0
2.792683 -0.306667 0
2.890244 -0.306667 0
2.987805 -0.306667 0
3.085366 -0.306667 0
3.182927 -0.306667 0
3.280488 -0.306667 0
3.378049 -0.306667 0
3.475610 -0.306667 0
3.573171 -0.306667 0
3.670732 -0.306667 0
3.768293 -0.306667 0
3.865854 -0.306667 0
3.963415 -0.306667 0
4.060976 -0.306667 0
4.158537 -0.306667 0
4.256098 -0.306667 0
4.353659 -0.306667 0
4.451220 -0.306667 0
4.548780 -0.306667 0
4.646341 -0.306667 0
4.743902 -0.306667 0
4.841463 -0.306667 0
4.939024 -0.306667 0
5.036585 -0.306667 0
5.134146 -0.306667 0
5.231707 -0.306667 0
5.329268 -0.306667 0
5.426829 -0.306667 0
5.524390 -0.306667 0
5.621951 -0.306667 0
5.719512 -0.306667 0
5.817073 -0.306667 0
5.914634 -0.306667 0
6.012195 -0.306667 0
6.109756 -0.306667 0
6.207317 -0.306667 0
6.304878 -0.306667 0
6.402439 -0.306667 0
-1.500000 -0.258333 0
-1.402439 -0.258333 0
-1.304878 -0.258333 0
-1.207317 -0.258333 0
-1.109756 -0.258333 0
-1.012195 -0.258333 0
-0.914634 -0.258333 0
-0.817073 -0.258333 0
-0.719512 -0.258333 0
-0.621951 -0.258333 0
-0.524390 -0.258333 0
-0.426829 -0.258333 0
-0.329268 -0.258333 0
-0.231707 -0.258333 0
-0.134146 -0.258333 0
-0.036585 -0.258333 0
0.060976 -0.258333 0
0.158537 -0.258333 0
0.256098 -0.258333 0
0.353659 -0.258333 0
0.451220 -0.258333 0
0.548780 -0.258333 0
0.646341 -0.258333 0
0.743902 -0.258333 0
0.841463 -0.258333 0
0.939024 -0.258333 0
1.036585 -0.258333 0
1.134146 -0.258333 0
1.231707 -0.258333 0
1.329268 -0.258333 0
1.426829 -0.258333 0
1.524390 -0.258333 0
1.621951 -0.258333 0
1.719512 -0.258333 0
1.817073 -0.258333 0
1.914634 -0.258333 0
2.012195 -0.258333 0
2.109756 -0.258333 0
2.207317 -0.258333 0
2.304878 -0.258333 0
2.402439 -0.258333 0
2.500000 -0.258333 0
2.597561 -0.258333 0
2.695122 -0.258333 0
2.792683 -0.258333 0
2.890244 -0.258333 0
2.987805 -0.258333 0
3.085366 -0.258333 0
3.182927 -0.258333 0
3.280488 -0.258333 0
3.378049 -0.258333 0
3.475610 -0.258333 0
3.573171 -0.258333 0
[...]
POINT_DATA 4920 

VECTORS velocity float
0.000000 0.000000 0
0.000000 0.000000 0
0.000000 0.000000 0
0.000000 0.000000 0
0.000000 0.000000 0
0.000000 0.000000 0
0.000000 0.000000 0
0.000000 0.000000 0
0.000000 0.000000 0
0.000000 0.000000 0
0.000000 0.000000 0
0.000000 0.000000 0
0.000000 0.000000 0
0.000000 0.000000 0
0.000000 0.000000 0
0.000000 0.000000 0
0.000000 0.000000 0
0.000000 0.000000 0
0.000000 0.000000 0
0.000000 0.000000 0
0.000000 0.000000 0
0.000000 0.000000 0
0.000000 0.000000 0
0.000001 0.000000 0
0.000001 0.000000 0
0.000001 0.000000 0
0.000001 0.000000 0
0.000001 0.000000 0
0.000001 0.000000 0
0.000000 0.000000 0
0.000000 0.000000 0
0.000000 0.000000 0
0.000000 0.000000 0
0.000000 0.000000 0
0.000000 0.000000 0
0.000000 0.000000 0
0.000000 0.000000 0
0.000000 0.000000 0
0.000000 0.000000 0
0.000000 0.000000 0
0.000000 0.000000 0
0.000000 0.000000 0
0.000000 0.000000 0
0.000000 0.000000 0
0.000000 0.000000 0
0.000000 0.000000 0
0.000000 0.000000 0
0.000000 0.000000 0
0.000000 0.000000 0
0.000000 0.000000 0
0.000000 0.000000 0
0.000000 0.000000 0
0.000000 0.000000 0
0.000000 0.000000 0
0.000000 0.000000 0
0.000000 0.000000 0
0.000000 0.000000 0
0.001916 0.000000 0
0.000000 0.000000 0
0.000000 0.000000 0
0.000000 0.000000 0
0.000000 0.000000 0
0.000000 0.000000 0
0.000000 0.000000 0
0.000000 0.000000 0
0.000000 0.000000 0
0.000000 0.000000 0
0.000000 0.000000 0
0.000000 0.000000 0
0.000000 0.000000 0
0.000000 0.000000 0
0.000000 0.000000 0
0.000000 0.000000 0
0.000000 0.000000 0
0.000000 0.000000 0
0.000000 0.000000 0
0.000000 0.000000 0
0.000000 0.000000 0
0.000000 0.000000 0
0.000000 0.000000 0
0.000000 0.000000 0
0.000000 0.000000 0
0.000000 0.000000 0
0.000000 0.000000 0
0.000000 0.000000 0
0.000000 0.000000 0
0.000000 0.000000 0
0.000000 0.000000 0
0.000000 0.000000 0
0.000000 0.000000 0
0.000000 0.000000 0
0.000000 0.000000 0
0.000000 0.000000 0
0.000000 0.000000 0
0.000000 0.000000 0
0.000000 0.000000 0
1.046378 -0.422523 0
2.518265 -0.738197 0
3.779721 -0.505130 0
4.622718 -0.265391 0
5.056164 -0.070115 0
5.167121 0.061934 0
5.063233 0.139736 0
4.829753 0.177742 0
4.530815 0.186510 0
4.213302 0.175013 0
3.909507 0.151126 0
3.639211 0.121589 0
3.411853 0.091702 0
3.229021 0.065049 0
3.087121 0.043474 0
2.979833 0.027386 0
2.900012 0.016251 0
2.840916 0.009090 0
2.796818 0.004847 0
2.763192 0.002597 0
2.736647 0.001619 0
2.714746 0.001398 0
2.695795 0.001593 0
2.678636 0.001995 0
2.662475 0.002492 0
2.646737 0.003043 0
2.630945 0.003654 0
2.614630 0.004369 0
2.597235 0.005267 0
2.578030 0.006459 0
2.556018 0.008094 0
2.529807 0.010375 0
2.497461 0.013567 0
2.456290 0.018021 0
2.402591 0.024184 0
2.331312 0.032602 0
2.235690 0.043878 0
2.106895 0.058493 0
1.934081 0.076509 0
1.704824 0.096432 0
1.409289 0.115115 0
1.038600 0.130683 0
0.616570 0.068831 0
0.000000 0.000000 0
-0.001571 0.000000 0
0.000000 0.000000 0
0.000000 0.000000 0
0.000000 0.000000 0
0.000000 0.000000 0
0.000000 0.000000 0
0.000000 0.000000 0
0.000000 0.000000 0
0.000000 0.000000 0
0.000000 0.000000 0
0.000000 0.000000 0
0.000000 0.000000 0
0.000000 0.000000 0
0.000000 0.000000 0
0.000000 0.000000 0
0.000000 0.000000 0
0.000000 0.000000 0
0.000000 0.000000 0
0.000000 0.000000 0
0.000000 0.000000 0
0.000000 0.000000 0
0.000000 0.000000 0
0.000000 0.000000 0
0.000000 0.000000 0
0.000000 0.000000 0
0.000000 0.000000 0
0.000000 0.000000 0
0.000000 0.000000 0
0.000000 0.000000 0
0.000000 0.000000 0
0.000000 0.000000 0
0.000000 0.000000 0
0.000000 0.000000 0
0.000000 0.000000 0
0.000000 0.000000 0
0.000000 0.000000 0
0.000000 0.000000 0
1.159586 -0.516988 0
2.653707 -1.245978 0
3.828526 -1.353937 0
5.002475 -1.042581 0
5.863847 -0.632371 0
6.390893 -0.269706 0
6.647035 -0.003502 0
6.706777 0.167138 0
6.638255 0.263769 0
6.490980 0.305400 0
6.301128 0.307806 0
6.094757 0.284414 0
5.889982 0.246546 0
5.698585 0.203215 0
5.527303 0.160877 0
5.378980 0.123452 0
5.253629 0.092697 0
5.149413 0.068822 0
5.063491 0.051124 0
4.992679 0.038506 0
4.933897 0.029810 0
4.884425 0.024001 0
4.842003 0.020239 0
4.804831 0.017890 0
4.771509 0.016507 0
4.740949 0.015804 0
4.712280 0.015620 0
4.684754 0.015906 0
4.657653 0.016701 0
4.630202 0.018132 0
4.601461 0.020420 0
4.570221 0.023891 0
4.534852 0.029010 0
4.493115 0.036422 0
4.441909 0.047000 0
4.376919 0.061916 0
4.292141 0.082686 0
4.179252 0.111180 0
4.026807 0.149422 0
3.819318 0.199193 0
3.536612 0.259991 0
3.154430 0.330059 0
2.647073 0.392217 0
2.014656 0.512231 0
1.050601 0.303660 0
0.000000 0.000000 0
-0.004727 0.000000 0
0.000000 0.000000 0
0.000000 0.000000 0
0.000000 0.000000 0
0.000000 0.000000 0
0.000000 0.000000 0
0.000000 0.000000 0
0.000000 0.000000 0
0.000000 0.000000 0
0.000000 0.000000 0
0.000000 0.000000 0
0.000000 0.000000 0
0.000000 0.000000 0
0.000000 0.000000 0
0.000000 0.000000 0
0.000000 0.000000 0
0.000000 0.000000 0
0.000000 0.000000 0
0.000000 0.000000 0
0.000000 0.000000 0
0.000000 0.000000 0
0.000000 0.000000 0
0.000000 0.000000 0
0.000000 0.000000 0
0.000000 0.000000 0
0.000000 0.000000 0
0.000000 0.000000 0
0.000000 0.000000 0
0.000000 0.000000 0
0.000000 0.000000 0
0.000000 0.000000 0
0.000000 0.000000 0
0.000000 0.000000 0
0.000000 0.000000 0
0.000000 0.000000 0
0.936072 -0.582523 0
2.634522 -1.321330 0
3.462233 -1.743355 0
4.644867 -1.901815 0
5.708235 -1.513462 0
6.431319 -0.953236 0
6.856160 -0.458120 0
7.079350 -0.094561 0
7.167464 0.144086 0
7.169331 0.284652 0
7.118145 0.353529 0
7.036130 0.371309 0
6.938147 0.354815 0
6.834291 0.317859 0
6.731524 0.271380 0
6.634536 0.223386 0
6.546177 0.179056 0
6.467764 0.141117 0
6.399400 0.110449 0
6.340352 0.086738 0
6.289420 0.069050 0
6.245235 0.056228 0
6.206470 0.047145 0
6.171948 0.040830 0
6.140689 0.036517 0
6.111899 0.033643 0
6.084933 0.031835 0
6.059253 0.030883 0
6.034370 0.030717 0
6.009786 0.031395 0
5.984934 0.033106 0
5.959104 0.036174 0
5.931355 0.041094 0
5.900399 0.048575 0
5.864440 0.059612 0
5.820950 0.075586 0
5.766341 0.098382 0
5.695499 0.130529 0
5.601074 0.175329 0
5.472449 0.236810 0
5.294104 0.319360 0
5.043928 0.425828 0
4.690069 0.555807 0
4.199992 0.695347 0
3.530120 0.856017 0
2.831398 0.996755 0
1.343020 0.522878 0
0.000000 0.000000 0
-0.005819 0.000000 0
0.000000 0.000000 0
0.000000 0.000000 0
0.000000 0.000000 0
0.000000 0.000000 0
0.000000 0.000000 0
0.000000 0.000000 0
0.000000 0.000000 0
0.000000 0.000000 0
0.000000 0.000000 0
0.000000 0.000000 0
0.000000 0.000000 0
0.000000 0.000000 0
0.000000 0.000000 0
0.000000 0.000000 0
0.000000 0.000000 0
0.000000 0.000000 0
0.000000 0.000000 0
0.000000 0.000000 0
0.000000 0.000000 0
0.000000 0.000000 0
0.000000 0.000000 0
0.000000 0.000000 0
0.000000 0.000000 0
0.000000 0.000000 0
0.000000 0.000000 0
0.000000 0.000000 0
0.000000 0.000000 0
0.000000 0.000000 0
0.000000 0.000000 0
0.000000 0.000000 0
0.000000 0.000000 0
0.000000 0.000000 0
0.738359 -0.467368 0
2.144311 -1.316853 0
3.090213 -1.776534 0
3.864674 -2.241936 0
5.207665 -2.466644 0
6.163212 -1.927619 0
6.688643 -1.201072 0
6.946414 -0.590752 0
7.065064 -0.157728 0
7.111581 0.122560 0
7.115588 0.288203 0
7.097446 0.371390 0
7.068587 0.396980 0
7.034744 0.384409 0
6.998682 0.348910 0
6.962016 0.302177 0
6.926024 0.252701 0
6.891814 0.206073 0
6.860232 0.165413 0
6.831752 0.131944 0
6.806471 0.105610 0
6.784184 0.085628 0
6.764505 0.070905 0
6.746974 0.060308 0
6.731136 0.052827 0
6.716583 0.047639 0
6.702971 0.044130 0
6.690012 0.041885 0
6.677458 0.040670 0
6.665081 0.040413 0
6.652638 0.041193 0
6.639843 0.043241 0
6.626322 0.046963 0
6.611565 0.052974 0
6.594847 0.062161 0
6.575131 0.075782 0
6.550907 0.095600 0
6.519959 0.124066 0
6.478985 0.164562 0
6.422961 0.221683 0
6.344075 0.301500 0
6.229716 0.411489 0
6.059469 0.559240 0
5.799599 0.748159 0
5.406725 0.966876 0
4.837716 1.190255 0
4.167647 1.389407 0
3.377595 1.410030 0
1.500829 0.670441 0
0.000000 0.000000 0
-0.005273 0.000000 0
0.000000 0.000000 0
0.000000 0.000000 0
0.000000 0.000000 0
0.000000 0.000000 0
0.000000 0.000000 0
0.000000 0.000000 0
0.000000 0.000000 0
0.000000 0.000000 0
0.000000 0.000000 0
0.000000 0.000000 0
0.000000 0.000000 0
0.000000 0.000000 0
0.000000 0.000000 0
0.000000 0.000000 0
0.000000 0.000000 0
0.000000 0.000000 0
0.000000 0.000000 0
0.000000 0.000000 0
0.000000 0.000000 0
0.000000 0.000000 0
0.000000 0.000000 0
0.000000 0.000000 0
0.000000 0.000000 0
0.000000 0.000000 0
0.000000 0.000000 0
0.000000 0.000000 0
0.000000 0.000000 0
0.000000 0.000000 0
0.000000 0.000000 0
0.000000 0.000000 0
0.536149 -0.369267 0
1.698488 -1.069421 0
2.545145 -1.751293 0
3.300598 -2.173627 0
4.126442 -2.792376 0
5.618947 -3.040549 0
6.351926 -2.247163 0
6.584589 -1.341248 0
6.618023 -0.644605 0
6.605825 -0.176387 0
6.591051 0.119055 0
6.580979 0.291654 0
6.579729 0.376814 0
6.586685 0.402373 0
6.598937 0.389447 0
6.613060 0.353889 0
6.626381 0.307376 0
6.637428 0.258166 0
6.645792 0.211651 0
6.651752 0.170873 0
6.655888 0.137083 0
6.658805 0.110305 0
6.660998 0.089841 0
6.662812 0.074663 0
6.664458 0.063677 0
6.666050 0.055886 0
6.667636 0.050470 0
6.669224 0.046807 0
6.670806 0.044475 0
6.672363 0.043234 0
6.673874 0.043013 0
6.675312 0.043899 0
6.676649 0.046143 0
6.677843 0.050184 0
6.678831 0.056687 0
6.679511 0.066625 0
6.679707 0.081381 0
6.679112 0.102919 0
6.677177 0.134013 0
6.672895 0.178584 0
6.664373 0.242166 0
6.647933 0.332547 0
6.616092 0.460358 0
6.553472 0.638916 0
6.428281 0.879187 0
6.184142 1.171880 0
5.772378 1.469877 0
5.221467 1.720123 0
4.581590 1.852271 0
3.670731 1.686666 0
1.556286 0.748678 0
-0.000000 0.000000 0
-0.003978 0.000000 0
0.000000 0.000000 0
0.000000 0.000000 0
0.000000 0.000000 0
0.000000 0.000000 0
0.000000 0.000000 0
0.000000 0.000000 0
0.000000 0.000000 0
0.000000 0.000000 0
0.000000 0.000000 0
0.000000 0.000000 0
0.000000 0.000000 0
0.000000 0.000000 0
0.000000 0.000000 0
0.000000 0.000000 0
0.000000 0.000000 0
0.000000 0.000000 0
0.000000 0.000000 0
0.000000 0.000000 0
0.000000 0.000000 0
0.000000 0.000000 0
0.000000 0.000000 0
0.000000 0.000000 0
0.000000 0.000000 0
0.000000 0.000000 0
0.000000 0.000000 0
0.000000 0.000000 0
0.000000 0.000000 0
0.000000 0.000000 0
0.376446 -0.266947 0
1.297256 -0.846262 0
2.061358 -1.466130 0
2.754275 -2.110565 0
3.394858 -2.559935 0
4.280865 -3.390485 0
5.830999 -3.569186 0
6.151677 -2.406015 0
5.981546 -1.332901 0
5.742754 -0.601272 0
5.590275 -0.144365 0
5.514152 0.134869 0
5.501161 0.293812 0
5.531455 0.368563 0
5.587215 0.387464 0
5.654943 0.371342 0
5.724921 0.335314 0
5.790979 0.290105 0
5.849867 0.243085 0
5.900489 0.198977 0
5.943127 0.160411 0
5.978799 0.128450 0
6.008779 0.103079 0
6.034320 0.083643 0
6.056506 0.069190 0
6.076209 0.058704 0
6.094099 0.051253 0
6.110674 0.046067 0
6.126297 0.042559 0
6.141245 0.040330 0
6.155735 0.039150 0
6.169960 0.038952 0
6.184122 0.039818 0
6.198455 0.041988 0
6.213259 0.045882 0
6.228930 0.052147 0
6.246005 0.061727 0
6.265200 0.075980 0
6.287472 0.096854 0
6.314050 0.127147 0
6.346453 0.170905 0
6.386363 0.234049 0
6.435165 0.325419 0
6.492381 0.458287 0
6.551284 0.652285 0
6.587247 0.931131 0
6.526502 1.291821 0
6.297099 1.667181 0
5.922073 1.979343 0
5.433349 2.178290 0
4.793482 2.179594 0
3.767974 1.832816 0
1.542267 0.774917 0
-0.000000 0.000000 0
-0.002620 0.000000 0
0.000000 0.000000 0
0.000000 0.000000 0
0.000000 0.000000 0
0.000000 0.000000 0
0.000000 0.000000 0
0.000000 0.000000 0
0.000000 0.000000 0
0.000000 0.000000 0
0.000000 0.000000 0
0.000000 0.000000 0
0.000000 0.000000 0
0.000000 0.000000 0
0.000000 0.000000 0
0.000000 0.000000 0
0.000000 0.000000 0
0.000000 0.000000 0
0.000000 0.000000 0
0.000000 0.000000 0
0.000000 0.000000 0
0.000000 0.000000 0
0.000000 0.000000 0
0.000000 0.000000 0
0.000000 0.000000 0
0.000000 0.000000 0
0.000000 0.000000 0
0.000000 0.000000 0
0.267953 -0.186446 0
0.995847 -0.643961 0
1.702366 -1.205331 0
2.319822 -1.791253 0
2.880605 -2.411931 0
3.395767 -2.929925 0
4.284454 -3.999281 0
5.744105 -3.967381 0
5.401634 -2.321746 0
4.738416 -1.138661 0
4.209716 -0.450763 0
3.920656 -0.063134 0
3.816912 0.163203 0
3.848333 0.283082 0
3.954260 0.334182 0
4.094196 0.341195 0
4.244081 0.321225 0
4.389317 0.286495 0
4.521944 0.245476 0
4.638431 0.203913 0
4.738127 0.165448 0
4.822115 0.132077 0
4.892375 0.104558 0
4.951195 0.082799 0
5.000810 0.066197 0
5.043207 0.053910 0
5.080055 0.045052 0
5.112694 0.038812 0
5.142177 0.034519 0
5.169320 0.031661 0
5.194763 0.029891 0
5.219030 0.029008 0
5.242590 0.028949 0
5.265912 0.029782 0
5.289523 0.031708 0
5.314080 0.035086 0
5.340443 0.040464 0
5.369774 0.048656 0
5.403669 0.060838 0
5.444317 0.078719 0
5.494721 0.104793 0
5.558960 0.142758 0
5.642480 0.198216 0
5.752290 0.280024 0
5.896676 0.402831 0
6.081410 0.591918 0
6.300926 0.891465 0
6.455743 1.315624 0
6.420432 1.769321 0
6.248414 2.148039 0
5.948714 2.411394 0
5.509953 2.511720 0
4.840508 2.368786 0
3.727893 1.878553 0
1.485940 0.766499 0
-0.000000 0.000000 0
-0.001603 0.000000 0
0.000000 0.000000 0
0.000000 0.000000 0
0.000000 0.000000 0
0.000000 0.000000 0
0.000000 0.000000 0
0.000000 0.000000 0
0.000000 0.000000 0
0.000000 0.000000 0
0.000000 0.000000 0
0.000000 0.000000 0
0.000000 0.000000 0
0.000000 0.000000 0
0.000000 0.000000 0
0.000000 0.000000 0
0.000000 0.000000 0
0.000000 0.000000 0
0.000000 0.000000 0
0.000000 0.000000 0
0.000000 0.000000 0
0.000000 0.000000 0
0.000000 0.000000 0
0.000000 0.000000 0
0.000000 0.000000 0
0.000000 0.000000 0
0.209234 -0.131856 0
0.805400 -0.492415 0
1.468465 -0.977528 0
2.052770 -1.502181 0
2.535318 -2.049849 0
2.939300 -2.643605 0
3.298266 -3.255426 0
4.068801 -4.553891 0
5.219314 -4.122655 0
3.916892 -1.907779 0
2.775379 -0.742404 0
2.002256 -0.196140 0
1.719031 0.050236 0
1.749710 0.170699 0
1.910253 0.225768 0
2.129570 0.246758 0
2.368894 0.243882 0
2.605208 0.225134 0
2.823866 0.197656 0
3.017552 0.166690 0
3.183744 0.135985 0
3.322998 0.107977 0
3.437719 0.083994 0
3.531252 0.064501 0
3.607236 0.049358 0
3.669173 0.038059 0
3.720186 0.029931 0
3.762911 0.024279 0
3.799479 0.020477 0
3.831560 0.018014 0
3.860439 0.016508 0
3.887108 0.015702 0
3.912357 0.015456 0
3.936867 0.015726 0
3.961303 0.016566 0
3.986405 0.018124 0
4.013085 0.020656 0
4.042551 0.024556 0
4.076455 0.030404 0
4.117093 0.039050 0
4.167688 0.051745 0
4.232771 0.070351 0
4.318725 0.097702 0
4.434592 0.138270 0
4.593071 0.199486 0
4.812812 0.295235 0
5.115698 0.452012 0
5.542426 0.745680 0
5.974417 1.232616 0
6.149533 1.769895 0
6.206282 2.213040 0
6.129311 2.544136 0
5.899528 2.728618 0
5.476723 2.715678 0
4.765264 2.443843 0
3.601763 1.855086 0
1.410206 0.737368 0
-0.000000 0.000000 0
-0.001116 0.000000 0
0.000000 0.000000 0
0.000000 0.000000 0
0.000000 0.000000 0
0.000000 0.000000 0
0.000000 0.000000 0
0.000000 0.000000 0
0.000000 0.000000 0
0.000000 0.000000 0
0.000000 0.000000 0
0.000000 0.000000 0
0.000000 0.000000 0
0.000000 0.000000 0
0.000000 0.000000 0
0.000000 0.000000 0
0.000000 0.000000 0
0.000000 0.000000 0
0.000000 0.000000 0
0.000000 0.000000 0
0.000000 0.000000 0
0.000000 0.000000 0
0.000000 0.000000 0
0.000000 0.000000 0
0.195329 -0.102295 0
0.724317 -0.396754 0
1.360429 -0.809398 0
1.928488 -1.261928 0
2.381622 -1.733868 0
2.709861 -2.230455 0
2.935072 -2.789909 0
3.101449 -3.489498 0
3.571603 -4.951000 0
4.021248 -3.892122 0
1.556817 -1.110979 0
0.421291 -0.190118 0
0.058271 0.072569 0
0.025382 0.061981 0
0.159673 0.068469 0
0.369939 0.094894 0
0.615386 0.106963 0
0.868020 0.105556 0
1.107662 0.095824 0
1.322454 0.082212 0
1.506631 0.067186 0
1.658918 0.052590 0
1.781117 0.039625 0
1.876869 0.028904 0
1.950659 0.020576 0
2.007066 0.014471 0
2.050289 0.010239 0
2.083888 0.007470 0
2.110704 0.005769 0
2.132895 0.004802 0
2.152037 0.004318 0
2.169256 0.004142 0
2.185358 0.004171 0
2.200951 0.004357 0
2.216555 0.004700 0
2.232694 0.005240 0
2.249994 0.006055 0
2.269278 0.007270 0
2.291689 0.009070 0
2.318844 0.011726 0
2.353058 0.015639 0
2.397667 0.021410 0
2.457507 0.029967 0
2.539669 0.042773 0
2.654719 0.062301 0
2.818769 0.092647 0
3.057383 0.143913 0
3.414702 0.230455 0
3.969771 0.466041 0
4.892072 1.014852 0
5.375955 1.654451 0
5.755238 2.158058 0
5.964455 2.563365 0
5.980959 2.835023 0
5.790793 2.930720 0
5.357666 2.807440 0
4.611109 2.433128 0
3.436262 1.789240 0
1.336629 0.699029 0
-0.000000 0.000000 0
-0.001278 0.000000 0
0.000000 0.000000 0
0.000000 0.000000 0
0.000000 0.000000 0
0.000000 0.000000 0
0.000000 0.000000 0
0.000000 0.000000 0
0.000000 0.000000 0
0.000000 0.000000 0
0.000000 0.000000 0
0.000000 0.000000 0
0.000000 0.000000 0
0.000000 0.000000 0
0.000000 0.000000 0
0.000000 0.000000 0
0.000000 0.000000 0
0.000000 0.000000 0
0.000000 0.000000 0
0.000000 0.000000 0
0.000000 0.000000 0
0.000000 0.000000 0
0.225155 -0.095080 0
0.751059 -0.355786 0
1.380090 -0.707703 0
1.940915 -1.088982 0
2.380106 -1.483444 0
2.678969 -1.889286 0
2.838711 -2.324037 0
2.877989 -2.837605 0
2.824752 -3.570774 0
2.796820 -5.009575 0
1.634860 -3.000196 0
0.000000 0.000000 0
0.000000 0.000000 0
0.000000 0.000000 0
0.000000 0.000000 0
0.000001 0.000000 0
0.000001 0.000000 0
0.000001 0.000000 0
0.000001 0.000000 0
0.000000 0.000000 0
0.000000 0.000000 0
0.000000 0.000000 0
0.000000 0.000000 0
0.000000 0.000000 0
0.000000 0.000000 0
0.000000 0.000000 0
0.000000 0.000000 0
0.000000 0.000000 0
0.000000 0.000000 0
0.000000 0.000000 0
0.000000 0.000000 0
0.000000 0.000000 0
0.000000 0.000000 0
0.000000 0.000000 0
0.000000 0.000000 0
0.000000 0.000000 0
0.000000 0.000000 0
0.000000 0.000000 0
0.000000 0.000000 0
0.000000 0.000000 0
0.000000 0.000000 0
0.000000 0.000000 0
0.000000 0.000000 0
0.000000 0.000000 0
0.000000 0.000000 0
0.000001 0.000000 0
0.000001 0.000000 0
0.000001 0.000000 0
0.000001 0.000000 0
0.000001 0.000000 0
2.077855 0.522202 0
3.746454 1.342268 0
4.737995 1.921487 0
5.378160 2.432310 0
5.723406 2.814653 0
5.801193 3.024468 0
5.623677 3.028279 0
5.176274 2.806982 0
4.418923 2.362081 0
3.273282 1.704840 0
1.282664 0.662165 0
-0.000000 0.000000 0
-0.002108 0.000000 0
0.000000 0.000000 0
0.000000 0.000000 0
0.000000 0.000000 0
0.000000 0.000000 0
0.000000 0.000000 0
0.000000 0.000000 0
0.000000 0.000000 0
0.000000 0.000000 0
0.000000 0.000000 0
0.000000 0.000000 0
0.000000 0.000000 0
0.000000 0.000000 0
0.000000 0.000000 0
0.000000 0.000000 0
0.000000 0.000000 0
0.000000 0.000000 0
0.000000 0.000000 0
0.000000 0.000000 0
0.308925 -0.109494 0
0.897262 -0.368346 0
1.541408 -0.672780 0
2.095958 -0.986228 0
2.519475 -1.304822 0
2.796862 -1.627573 0
2.926799 -1.961068 0
2.918647 -2.329053 0
2.784998 -2.782994 0
2.522182 -3.449285 0
2.017696 -4.378533 0
0.037590 -0.000001 0
-0.073607 2.449205 0
0.383969 0.000000 0
0.310146 0.000000 0
0.237489 0.000000 0
0.185038 0.000000 0
0.099283 0.000000 0
-0.006505 0.000000 0
-0.116622 0.000000 0
-0.219571 0.000000 0
-0.310044 0.000000 0
-0.385517 0.000000 0
-0.445658 0.000000 0
-0.491669 0.000000 0
-0.525641 0.000000 0
-0.550013 0.000000 0
-0.567174 0.000000 0
-0.579222 0.000000 0
-0.587842 0.000000 0
-0.594301 0.000000 0
-0.599487 0.000000 0
-0.603995 0.000000 0
-0.608203 0.000000 0
-0.612355 0.000000 0
-0.616621 0.000000 0
-0.621150 0.000000 0
-0.626109 0.000000 0
-0.631726 0.000000 0
-0.638330 0.000000 0
-0.646401 0.000000 0
-0.656638 0.000000 0
-0.670070 0.000000 0
-0.688206 0.000000 0
-0.713287 0.000000 0
-0.748694 0.000000 0
-0.799624 0.000000 0
-0.874448 0.000000 0
-0.986633 0.000000 0
-1.164937 0.000000 0
-1.451808 0.132339 0
0.000000 -0.000002 0
1.708949 0.339953 0
3.310816 1.349683 0
4.417125 2.075175 0
5.134746 2.625445 0
5.514063 2.980128 0
5.599930 3.117035 0
5.417823 3.029983 0
4.968345 2.732015 0
4.232314 2.254108 0
3.152621 1.622983 0
1.266194 0.635474 0
-0.000000 0.000000 0
-0.003822 0.000000 0
0.000000 0.000000 0
0.000000 0.000000 0
0.000000 0.000000 0
0.000000 0.000000 0
0.000000 0.000000 0
0.000000 0.000000 0
0.000000 0.000000 0
0.000000 0.000000 0
0.000000 0.000000 0
0.000000 0.000000 0
0.000000 0.000000 0
0.000000 0.000000 0
0.000000 0.000000 0
0.000000 0.000000 0
0.000000 0.000000 0
0.000000 0.000000 0
0.482546 -0.150465 0
1.207464 -0.439886 0