# vtk DataFile Version 2.0
generated by CFD-lab course output (written by Tobias Neckel) 
ASCII

DATASET STRUCTURED_GRID
DIMENSIONS  82 60 1 
POINTS 4920 float

-1.500000 -0.500000 0
-1.402439 -0.500000 0
-1.304878 -0.500000 0
-1.207317 -0.500000 0
-1.109756 -0.500000 0
-1.012195 -0.500000 0
-0.914634 -0.500000 0
-0.817073 -0.500000 0
-0.719512 -0.500000 0
-0.621951 -0.500000 0
-0.524390 -0.500000 0
-0.426829 -0.500000 0
-0.329268 -0.500000 0
-0.231707 -0.500000 0
-0.134146 -0.500000 0
-0.036585 -0.500000 0
0.060976 -0.500000 0
0.158537 -0.500000 0
0.256098 -0.500000 0
0.353659 -0.500000 0
0.451220 -0.500000 0
0.548780 -0.500000 0
0.646341 -0.500000 0
0.743902 -0.500000 0
0.841463 -0.500000 0
0.939024 -0.500000 0
1.036585 -0.500000 0
1.134146 -0.500000 0
1.231707 -0.500000 0
1.329268 -0.500000 0
1.426829 -0.500000 0
1.524390 -0.500000 0
1.621951 -0.500000 0
1.719512 -0.500000 0
1.817073 -0.500000 0
1.914634 -0.500000 0
2.012195 -0.500000 0
2.109756 -0.500000 0
2.207317 -0.500000 0
2.304878 -0.500000 0
2.402439 -0.500000 0
2.500000 -0.500000 0
2.597561 -0.500000 0
2.695122 -0.500000 0
2.792683 -0.500000 0
2.890244 -0.500000 0
2.987805 -0.500000 0
3.085366 -0.500000 0
3.182927 -0.500000 0
3.280488 -0.500000 0
3.378049 -0.500000 0
3.475610 -0.500000 0
3.573171 -0.500000 0
3.670732 -0.500000 0
3.768293 -0.500000 0
3.865854 -0.500000 0
3.963415 -0.500000 0
4.060976 -0.500000 0
4.158537 -0.500000 0
4.256098 -0.500000 0
4.353659 -0.500000 0
4.451220 -0.500000 0
4.548780 -0.500000 0
4.646341 -0.500000 0
4.743902 -0.500000 0
4.841463 -0.500000 0
4.939024 -0.500000 0
5.036585 -0.500000 0
5.134146 -0.500000 0
5.231707 -0.500000 0
5.329268 -0.500000 0
5.426829 -0.500000 0
5.524390 -0.500000 0
5.621951 -0.500000 0
5.719512 -0.500000 0
5.817073 -0.500000 0
5.914634 -0.500000 0
6.012195 -0.500000 0
6.109756 -0.500000 0
6.207317 -0.500000 0
6.304878 -0.500000 0
6.402439 -0.500000 0
-1.500000 -0.451667 0
-1.402439 -0.451667 0
-1.304878 -0.451667 0
-1.207317 -0.451667 0
-1.109756 -0.451667 0
-1.012195 -0.451667 0
-0.914634 -0.451667 0
-0.817073 -0.451667 0
-0.719512 -0.451667 0
-0.621951 -0.451667 0
-0.524390 -0.451667 0
-0.426829 -0.451667 0
-0.329268 -0.451667 0
-0.231707 -0.451667 0
-0.134146 -0.451667 0
-0.036585 -0.451667 0
0.060976 -0.451667 0
0.158537 -0.451667 0
0.256098 -0.451667 0
0.353659 -0.451667 0
0.451220 -0.451667 0
0.548780 -0.451667 0
0.646341 -0.451667 0
0.743902 -0.451667 0
0.841463 -0.451667 0
0.939024 -0.451667 0
1.036585 -0.451667 0
1.134146 -0.451667 0
1.231707 -0.451667 0
1.329268 -0.451667 0
1.426829 -0.451667 0
1.524390 -0.451667 0
1.621951 -0.451667 0
1.719512 -0.451667 0
1.817073 -0.451667 0
1.914634 -0.451667 0
2.012195 -0.451667 0
2.109756 -0.451667 0
2.207317 -0.451667 0
2.304878 -0.451667 0
2.402439 -0.451667 0
2.500000 -0.451667 0
2.597561 -0.451667 0
2.695122 -0.451667 0
2.792683 -0.451667 0
2.890244 -0.451667 0
2.987805 -0.451667 0
3.085366 -0.451667 0
3.182927 -0.451667 0
3.280488 -0.451667 0
3.378049 -0.451667 0
3.475610 -0.451667 0
3.573171 -0.451667 0
3.670732 -0.451667 0
3.768293 -0.451667 0
3.865854 -0.451667 0
3.963415 -0.451667 0
4.060976 -0.451667 0
4.158537 -0.451667 0
4.256098 -0.451667 0
4.353659 -0.451667 0
4.451220 -0.451667 0
4.548780 -0.451667 0
4.646341 -0.451667 0
4.743902 -0.451667 0
4.841463 -0.451667 0
4.939024 -0.451667 0
5.036585 -0.451667 0
5.134146 -0.451667 0
5.231707 -0.451667 0
5.329268 -0.451667 0
5.426829 -0.451667 0
5.524390 -0.451667 0
5.621951 -0.451667 0
5.719512 -0.451667 0
5.817073 -0.451667 0
5.914634 -0.451667 0
6.012195 -0.451667 0
6.109756 -0.451667 0
6.207317 -0.451667 0
6.304878 -0.451667 0
6.402439 -0.451667 0
-1.500000 -0.403333 0
-1.402439 -0.403333 0
-1.304878 -0.403333 0
-1.207317 -0.403333 0
-1.109756 -0.403333 0
-1.012195 -0.403333 0
-0.914634 -0.403333 0
-0.817073 -0.403333 0
-0.719512 -0.403333 0
-0.621951 -0.403333 0
-0.524390 -0.403333 0
-0.426829 -0.403333 0
-0.329268 -0.403333 0
-0.231707 -0.403333 0
-0.134146 -0.403333 0
-0.036585 -0.403333 0
0.060976 -0.403333 0
0.158537 -0.403333 0
0.256098 -0.403333 0
0.353659 -0.403333 0
0.451220 -0.403333 0
0.548780 -0.403333 0
0.646341 -0.403333 0
0.743902 -0.403333 0
0.841463 -0.403333 0
0.939024 -0.403333 0
1.036585 -0.403333 0
1.134146 -0.403333 0
1.231707 -0.403333 0
1.329268 -0.403333 0
1.426829 -0.403333 0
1.524390 -0.403333 0
1.621951 -0.403333 0
1.719512 -0.403333 0
1.817073 -0.403333 0
1.914634 -0.403333 0
2.012195 -0.403333 0
2.109756 -0.403333 0
2.207317 -0.403333 0
2.304878 -0.403333 0
2.402439 -0.403333 0
2.500000 -0.403333 0
2.597561 -0.403333 0
2.695122 -0.403333 0
2.792683 -0.403333 0
2.890244 -0.403333 0
2.987805 -0.403333 0
3.085366 -0.403333 0
3.182927 -0.403333 0
3.280488 -0.403333 0
3.378049 -0.403333 0
3.475610 -0.403333 0
3.573171 -0.403333 0
3.670732 -0.403333 0
3.768293 -0.403333 0
3.865854 -0.403333 0
3.963415 -0.403333 0
4.060976 -0.403333 0
4.158537 -0.403333 0
4.256098 -0.403333 0
4.353659 -0.403333 0
4.451220 -0.403333 0
4.548780 -0.403333 0
4.646341 -0.403333 0
4.743902 -0.403333 0
4.841463 -0.403333 0
4.939024 -0.403333 0
5.036585 -0.403333 0
5.134146 -0.403333 0
5.231707 -0.403333 0
5.329268 -0.403333 0
5.426829 -0.403333 0
5.524390 -0.403333 0
5.621951 -0.403333 0
5.719512 -0.403333 0
5.817073 -0.403333 0
5.914634 -0.403333 0
6.012195 -0.403333 0
6.109756 -0.403333 0
6.207317 -0.403333 0
6.304878 -0.403333 0
6.402439 -0.403333 0
-1.500000 -0.355000 0
-1.402439 -0.355000 0
-1.304878 -0.355000 0
-1.207317 -0.355000 0
-1.109756 -0.355000 0
-1.012195 -0.355000 0
-0.914634 -0.355000 0
-0.817073 -0.355000 0
-0.719512 -0.355000 0
-0.621951 -0.355000 0
-0.524390 -0.355000 0
-0.426829 -0.355000 0
-0.329268 -0.355000 0
-0.231707 -0.355000 0
-0.134146 -0.355000 0
-0.036585 -0.355000 0
0.060976 -0.355000 0
0.158537 -0.355000 0
0.256098 -0.355000 0
0.353659 -0.355000 0
0.451220 -0.355000 0
0.548780 -0.355000 0
0.646341 -0.355000 0
0.743902 -0.355000 0
0.841463 -0.355000 0
0.939024 -0.355000 0
1.036585 -0.355000 0
1.134146 -0.355000 0
1.231707 -0.355000 0
1.329268 -0.355000 0
1.426829 -0.355000 0
1.524390 -0.355000 0
1.621951 -0.355000 0
1.719512 -0.355000 0
1.817073 -0.355000 0
1.914634 -0.355000 0
2.012195 -0.355000 0
2.109756 -0.355000 0
2.207317 -0.355000 0
2.304878 -0.355000 0
2.402439 -0.355000 0
2.500000 -0.355000 0
2.597561 -0.355000 0
2.695122 -0.355000 0
2.792683 -0.355000 0
2.890244 -0.355000 0
2.987805 -0.355000 0
3.085366 -0.355000 0
3.182927 -0.355000 0
3.280488 -0.355000 0
3.378049 -0.355000 0
3.475610 -0.355000 0
3.573171 -0.355000 0
3.670732 -0.355000 0
3.768293 -0.355000 0
3.865854 -0.355000 0
3.963415 -0.355000 0
4.060976 -0.355000 0
4.158537 -0.355000 0
4.256098 -0.355000 0
4.353659 -0.355000 0
4.451220 -0.355000 0
4.548780 -0.355000 0
4.646341 -0.355000 0
4.743902 -0.355000 0
4.841463 -0.355000 0
4.939024 -0.355000 0
5.036585 -0.355000 0
5.134146 -0.355000 0
5.231707 -0.355000 0
5.329268 -0.355000 0
5.426829 -0.355000 0
5.524390 -0.355000 0
5.621951 -0.355000 0
5.719512 -0.355000 0
5.817073 -0.355000 0
5.914634 -0.355000 0
6.012195 -0.355000 0
6.109756 -0.355000 0
6.207317 -0.355000 0
6.304878 -0.355000 0
6.402439 -0.355000 0
-1.500000 -0.306667 0
-1.402439 -0.306667 0
-1.304878 -0.306667 0
-1.207317 -0.306667 0
-1.109756 -0.306667 0
-1.012195 -0.306667 0
-0.914634 -0.306667 0
-0.817073 -0.306667 0
-0.719512 -0.306667 0
-0.621951 -0.306667 0
-0.524390 -0.306667 0
-0.426829 -0.306667 0
-0.329268 -0.306667 0
-0.231707 -0.306667 0
-0.134146 -0.306667 0
-0.036585 -0.306667 0
0.060976 -0.306667 0
0.158537 -0.306667 0
0.256098 -0.306667 0
0.353659 -0.306667 0
0.451220 -0.306667 0
0.548780 -0.306667 0
0.646341 -0.306667 0
0.743902 -0.306667 0
0.841463 -0.306667 0
0.939024 -0.306667 0
1.036585 -0.306667 0
1.134146 -0.306667 0
1.231707 -0.306667 0
1.329268 -0.306667 0
1.426829 -0.306667 0
1.524390 -0.306667 0
1.621951 -0.306667 0
1.719512 -0.306667 0
1.817073 -0.306667 0
1.914634 -0.306667 0
2.012195 -0.306667 0
2.109756 -0.306667 0
2.207317 -0.306667 0
2.304878 -0.306667 0
2.402439 -0.306667 0
2.500000 -0.306667 0
2.597561 -0.306667 0
2.695122 -0.306667 0
2.792683 -0.306667 0
2.890244 -0.306667 0
2.987805 -0.306667 0
3.085366 -0.306667 0
3.182927 -0.306667 0
3.280488 -0.306667 0
3.378049 -0.306667 0
3.475610 -0.306667 0
3.573171 -0.306667 0
3.670732 -0.306667 0
3.768293 -0.306667 0
3.865854 -0.306667 0
3.963415 -0.306667 0
4.060976 -0.306667 0
4.158537 -0.306667 0
4.256098 -0.306667 0
4.353659 -0.306667 0
4.451220 -0.306667 0
4.548780 -0.306667 0
4.646341 -0.306667 0
4.743902 -0.306667 0
4.841463 -0.306667 0
4.939024 -0.306667 0
5.036585 -0.306667 0
5.134146 -0.306667 0
5.231707 -0.306667 0
5.329268 -0.306667 0
5.426829 -0.306667 0
5.524390 -0.306667 0
5.621951 -0.306667 0
5.719512 -0.306667 0
5.817073 -0.306667 0
5.914634 -0.306667 0
6.012195 -0.306667 0
6.109756 -0.306667 0
6.207317 -0.306667 0
6.304878 -0.306667 0
6.402439 -0.306667 0
-1.500000 -0.258333 0
-1.402439 -0.258333 0
-1.304878 -0.258333 0
-1.207317 -0.258333 0
-1.109756 -0.258333 0
-1.012195 -0.258333 0
-0.914634 -0.258333 0
-0.817073 -0.258333 0
-0.719512 -0.258333 0
-0.621951 -0.258333 0
-0.524390 -0.258333 0
-0.426829 -0.258333 0
-0.329268 -0.258333 0
-0.231707 -0.258333 0
-0.134146 -0.258333 0
-0.036585 -0.258333 0
0.060976 -0.258333 0
0.158537 -0.258333 0
0.256098 -0.258333 0
0.353659 -0.258333 0
0.451220 -0.258333 0
0.548780 -0.258333 0
0.646341 -0.258333 0
0.743902 -0.258333 0
0.841463 -0.258333 0
0.939024 -0.258333 0
1.036585 -0.258333 0
1.134146 -0.258333 0
1.231707 -0.258333 0
1.329268 -0.258333 0
1.426829 -0.258333 0
1.524390 -0.258333 0
1.621951 -0.258333 0
1.719512 -0.258333 0
1.817073 -0.258333 0
1.914634 -0.258333 0
2.012195 -0.258333 0
2.109756 -0.258333 0
2.207317 -0.258333 0
2.304878 -0.258333 0
2.402439 -0.258333 0
2.500000 -0.258333 0
2.597561 -0.258333 0
2.695122 -0.258333 0
2.792683 -0.258333 0
2.890244 -0.258333 0
2.987805 -0.258333 0
3.085366 -0.258333 0
3.182927 -0.258333 0
3.280488 -0.258333 0
3.378049 -0.258333 0
3.475610 -0.258333 0
3.573171 -0.258333 0
[...]
POINT_DATA 4920 

VECTORS velocity float
0.000000 0.000000 0
0.000000 0.000000 0
0.000000 0.000000 0
0.000000 0.000000 0
0.000000 0.000000 0
0.000000 0.000000 0
0.000000 0.000000 0
0.000000 0.000000 0
0.000000 0.000000 0
0.000000 0.000000 0
0.000000 0.000000 0
0.000000 0.000000 0
0.000000 0.000000 0
0.000000 0.000000 0
0.000000 0.000000 0
-0.000000 0.000000 0
-0.000000 0.000000 0
-0.000000 0.000000 0
-0.000000 0.000000 0
-0.000000 0.000000 0
-0.000000 0.000000 0
-0.000000 0.000000 0
-0.000000 0.000000 0
-0.000000 0.000000 0
-0.000000 0.000000 0
-0.000000 0.000000 0
-0.000000 0.000000 0
-0.000000 0.000000 0
-0.000000 0.000000 0
-0.000000 0.000000 0
-0.000000 0.000000 0
-0.000000 0.000000 0
-0.000000 0.000000 0
-0.000000 0.000000 0
-0.000000 0.000000 0
-0.000000 0.000000 0
-0.000000 0.000000 0
-0.000000 0.000000 0
-0.000000 0.000000 0
-0.000000 0.000000 0
-0.000000 0.000000 0
-0.000000 0.000000 0
-0.000000 0.000000 0
-0.000000 0.000000 0
-0.000000 0.000000 0
-0.000000 0.000000 0
-0.000000 0.000000 0
-0.000000 0.000000 0
-0.000000 0.000000 0
-0.000000 0.000000 0
-0.000000 0.000000 0
-0.000000 0.000000 0
-0.000000 0.000000 0
-0.000000 0.000000 0
-0.000000 0.000000 0
-0.000000 0.000000 0
0.000000 0.000000 0
0.001916 0.000000 0
0.000000 0.000000 0
0.000000 0.000000 0
0.000000 0.000000 0
0.000000 0.000000 0
0.000000 0.000000 0
0.000000 0.000000 0
0.000000 0.000000 0
0.000000 0.000000 0
0.000000 0.000000 0
0.000000 0.000000 0
0.000000 0.000000 0
0.000000 0.000000 0
0.000000 0.000000 0
0.000000 0.000000 0
0.000000 0.000000 0
0.000000 0.000000 0
0.000000 0.000000 0
0.000000 0.000000 0
0.000000 0.000000 0
0.000000 0.000000 0
0.000000 0.000000 0
0.000000 0.000000 0
0.000000 0.000000 0
0.000000 0.000000 0
0.000000 0.000000 0
0.000000 0.000000 0
0.000000 0.000000 0
0.000000 0.000000 0
0.000000 0.000000 0
0.000000 0.000000 0
0.000000 0.000000 0
0.000000 0.000000 0
0.000000 0.000000 0
0.000000 0.000000 0
0.000000 0.000000 0
0.000000 0.000000 0
0.000000 0.000000 0
0.000000 0.000000 0
1.046390 -0.422527 0
2.518292 -0.738205 0
3.779766 -0.505138 0
4.622774 -0.265394 0
5.056223 -0.070114 0
5.167176 0.061937 0
5.063278 0.139742 0
4.829787 0.177746 0
4.530842 0.186513 0
4.213326 0.175014 0
3.909532 0.151125 0
3.639242 0.121587 0
3.411890 0.091700 0
3.229065 0.065048 0
3.087169 0.043474 0
2.979882 0.027387 0
2.900060 0.016253 0
2.840961 0.009091 0
2.796859 0.004849 0
2.763228 0.002599 0
2.736679 0.001620 0
2.714775 0.001399 0
2.695821 0.001593 0
2.678661 0.001995 0
2.662500 0.002492 0
2.646762 0.003042 0
2.630971 0.003653 0
2.614657 0.004369 0
2.597263 0.005267 0
2.578059 0.006459 0
2.556048 0.008094 0
2.529838 0.010375 0
2.497492 0.013567 0
2.456323 0.018020 0
2.402625 0.024183 0
2.331348 0.032601 0
2.235729 0.043877 0
2.106939 0.058491 0
1.934132 0.076506 0
1.704884 0.096429 0
1.409358 0.115112 0
1.038677 0.130693 0
0.616639 0.068842 0
-0.000000 0.000000 0
-0.001572 0.000000 0
0.000000 0.000000 0
0.000000 0.000000 0
0.000000 0.000000 0
0.000000 0.000000 0
0.000000 0.000000 0
0.000000 0.000000 0
0.000000 0.000000 0
0.000000 0.000000 0
0.000000 0.000000 0
0.000000 0.000000 0
0.000000 0.000000 0
0.000000 0.000000 0
0.000000 0.000000 0
0.000000 0.000000 0
0.000000 0.000000 0
0.000000 0.000000 0
0.000000 0.000000 0
0.000000 0.000000 0
0.000000 0.000000 0
0.000000 0.000000 0
0.000000 0.000000 0
0.000000 0.000000 0
0.000000 0.000000 0
0.000000 0.000000 0
0.000000 0.000000 0
0.000000 0.000000 0
0.000000 0.000000 0
0.000000 0.000000 0
0.000000 0.000000 0
0.000000 0.000000 0
0.000000 0.000000 0
0.000000 0.000000 0
0.000000 0.000000 0
0.000000 0.000000 0
0.000000 0.000000 0
0.000000 0.000000 0
1.159602 -0.516993 0
2.653738 -1.245991 0
3.828573 -1.353954 0
5.002537 -1.042595 0
5.863920 -0.632378 0
6.390970 -0.269705 0
6.647109 -0.003495 0
6.706843 0.167148 0
6.638311 0.263778 0
6.491028 0.305405 0
6.301172 0.307807 0
6.094802 0.284411 0
5.890033 0.246540 0
5.698642 0.203209 0
5.527368 0.160872 0
5.379052 0.123449 0
5.253705 0.092697 0
5.149491 0.068824 0
5.063568 0.051128 0
4.992752 0.038510 0
4.933965 0.029814 0
4.884488 0.024005 0
4.842062 0.020241 0
4.804886 0.017891 0
4.771562 0.016508 0
4.741001 0.015804 0
4.712331 0.015620 0
4.684805 0.015905 0
4.657706 0.016700 0
4.630255 0.018131 0
4.601516 0.020419 0
4.570277 0.023890 0
4.534909 0.029009 0
4.493173 0.036421 0
4.441969 0.046999 0
4.376980 0.061915 0
4.292205 0.082683 0
4.179319 0.111176 0
4.026881 0.149416 0
3.819400 0.199185 0
3.536707 0.259982 0
3.154542 0.330050 0
2.647200 0.392217 0
2.014810 0.512269 0
1.050711 0.303693 0
-0.000000 0.000000 0
-0.004730 0.000000 0
0.000000 0.000000 0
0.000000 0.000000 0
0.000000 0.000000 0
0.000000 0.000000 0
0.000000 0.000000 0
0.000000 0.000000 0
0.000000 0.000000 0
0.000000 0.000000 0
0.000000 0.000000 0
0.000000 0.000000 0
0.000000 0.000000 0
0.000000 0.000000 0
0.000000 0.000000 0
0.000000 0.000000 0
0.000000 0.000000 0
0.000000 0.000000 0
0.000000 0.000000 0
0.000000 0.000000 0
0.000000 0.000000 0
0.000000 0.000000 0
0.000000 0.000000 0
0.000000 0.000000 0
0.000000 0.000000 0
0.000000 0.000000 0
0.000000 0.000000 0
0.000000 0.000000 0
0.000000 0.000000 0
0.000000 0.000000 0
0.000000 0.000000 0
0.000000 0.000000 0
0.000000 0.000000 0
0.000000 0.000000 0
0.000000 0.000000 0
0.000000 0.000000 0
0.936085 -0.582531 0
2.634557 -1.321345 0
3.462276 -1.743374 0
4.644925 -1.901839 0
5.708308 -1.513482 0
6.431403 -0.953247 0
6.856248 -0.458119 0
7.079435 -0.094551 0
7.167542 0.144100 0
7.169399 0.284665 0
7.118204 0.353537 0
7.036184 0.371311 0
6.938199 0.354810 0
6.834345 0.317851 0
6.731582 0.271370 0
6.634599 0.223378 0
6.546245 0.179051 0
6.467836 0.141116 0
6.399474 0.110450 0
6.340426 0.086743 0
6.289492 0.069056 0
6.245305 0.056234 0
6.206537 0.047151 0
6.172012 0.040835 0
6.140751 0.036520 0
6.111958 0.033645 0
6.084991 0.031836 0
6.059311 0.030882 0
6.034428 0.030715 0
6.009844 0.031394 0
5.984992 0.033104 0
5.959163 0.036173 0
5.931415 0.041092 0
5.900460 0.048573 0
5.864503 0.059611 0
5.821013 0.075585 0
5.766406 0.098379 0
5.695567 0.130525 0
5.601145 0.175322 0
5.472525 0.236801 0
5.294190 0.319346 0
5.044026 0.425811 0
4.690186 0.555788 0
4.200135 0.695335 0
3.530299 0.856036 0
2.831640 0.996831 0
1.343184 0.522934 0
-0.000000 0.000000 0
-0.005823 0.000000 0
0.000000 0.000000 0
0.000000 0.000000 0
0.000000 0.000000 0
0.000000 0.000000 0
0.000000 0.000000 0
0.000000 0.000000 0
0.000000 0.000000 0
0.000000 0.000000 0
0.000000 0.000000 0
0.000000 0.000000 0
0.000000 0.000000 0
0.000000 0.000000 0
0.000000 0.000000 0
0.000000 0.000000 0
0.000000 0.000000 0
0.000000 0.000000 0
0.000000 0.000000 0
0.000000 0.000000 0
0.000000 0.000000 0
0.000000 0.000000 0
0.000000 0.000000 0
0.000000 0.000000 0
0.000000 0.000000 0
0.000000 0.000000 0
0.000000 0.000000 0
0.000000 0.000000 0
0.000000 0.000000 0
0.000000 0.000000 0
0.000000 0.000000 0
0.000000 0.000000 0
0.000000 0.000000 0
0.000000 0.000000 0
0.738371 -0.467374 0
2.144342 -1.316870 0
3.090255 -1.776555 0
3.864722 -2.241961 0
5.207729 -2.466675 0
6.163291 -1.927647 0
6.688732 -1.201087 0
6.946508 -0.590751 0
7.065155 -0.157715 0
7.111666 0.122578 0
7.115664 0.288220 0
7.097513 0.371402 0
7.068648 0.396985 0
7.034801 0.384405 0
6.998738 0.348902 0
6.962073 0.302166 0
6.926082 0.252691 0
6.891874 0.206066 0
6.860294 0.165410 0
6.831816 0.131945 0
6.806535 0.105614 0
6.784247 0.085635 0
6.764567 0.070912 0
6.747035 0.060315 0
6.731196 0.052833 0
6.716642 0.047643 0
6.703029 0.044132 0
6.690069 0.041886 0
6.677515 0.040670 0
6.665138 0.040412 0
6.652695 0.041191 0
6.639901 0.043239 0
6.626381 0.046962 0
6.611624 0.052972 0
6.594907 0.062159 0
6.575191 0.075780 0
6.550968 0.095598 0
6.520021 0.124063 0
6.479049 0.164556 0
6.423027 0.221674 0
6.344145 0.301487 0
6.229793 0.411471 0
6.059556 0.559215 0
5.799705 0.748128 0
5.406864 0.966845 0
4.837906 1.190245 0
4.167921 1.389450 0
3.377958 1.410152 0
1.501062 0.670523 0
-0.000000 0.000000 0
-0.005279 0.000000 0
0.000000 0.000000 0
0.000000 0.000000 0
0.000000 0.000000 0
0.000000 0.000000 0
0.000000 0.000000 0
0.000000 0.000000 0
0.000000 0.000000 0
0.000000 0.000000 0
0.000000 0.000000 0
0.000000 0.000000 0
0.000000 0.000000 0
0.000000 0.000000 0
0.000000 0.000000 0
0.000000 0.000000 0
0.000000 0.000000 0
0.000000 0.000000 0
0.000000 0.000000 0
0.000000 0.000000 0
0.000000 0.000000 0
0.000000 0.000000 0
0.000000 0.000000 0
0.000000 0.000000 0
0.000000 0.000000 0
0.000000 0.000000 0
0.000000 0.000000 0
0.000000 0.000000 0
0.000000 0.000000 0
0.000000 0.000000 0
0.000000 0.000000 0
0.000000 0.000000 0
0.536160 -0.369273 0
1.698517 -1.069436 0
2.545182 -1.751315 0
3.300641 -2.173650 0
4.126492 -2.792406 0
5.619013 -3.040588 0
6.352005 -2.247196 0
6.584677 -1.341266 0
6.618114 -0.644605 0
6.605917 -0.176373 0
6.591137 0.119077 0
6.581057 0.291676 0
6.579800 0.376830 0
6.586750 0.402379 0
6.598999 0.389445 0
6.613118 0.353881 0
6.626438 0.307365 0
6.637483 0.258155 0
6.645847 0.211643 0
6.651807 0.170870 0
6.655943 0.137084 0
6.658860 0.110309 0
6.661053 0.089847 0
6.662867 0.074670 0
6.664514 0.063684 0
6.666106 0.055892 0
6.667692 0.050474 0
6.669280 0.046810 0
6.670863 0.044476 0
6.672420 0.043234 0
6.673931 0.043011 0
6.675370 0.043897 0
6.676707 0.046141 0
6.677901 0.050181 0
6.678889 0.056685 0
6.679569 0.066623 0
6.679766 0.081379 0
6.679171 0.102917 0
6.677235 0.134009 0
6.672954 0.178577 0
6.664432 0.242156 0
6.647994 0.332533 0
6.616155 0.460337 0
6.553542 0.638884 0
6.428366 0.879143 0
6.184260 1.171826 0
5.772561 1.469828 0
5.221755 1.720114 0
4.582011 1.852350 0
3.671252 1.686851 0
1.556594 0.748796 0
-0.000000 0.000000 0
-0.003985 0.000000 0
0.000000 0.000000 0
0.000000 0.000000 0
0.000000 0.000000 0
0.000000 0.000000 0
0.000000 0.000000 0
0.000000 0.000000 0
0.000000 0.000000 0
0.000000 0.000000 0
0.000000 0.000000 0
0.000000 0.000000 0
0.000000 0.000000 0
0.000000 0.000000 0
0.000000 0.000000 0
0.000000 0.000000 0
0.000000 0.000000 0
0.000000 0.000000 0
0.000000 0.000000 0
0.000000 0.000000 0
0.000000 0.000000 0
0.000000 0.000000 0
0.000000 0.000000 0
0.000000 0.000000 0
0.000000 0.000000 0
0.000000 0.000000 0
0.000000 0.000000 0
0.000000 0.000000 0
0.000000 0.000000 0
0.000000 0.000000 0
0.376456 -0.266953 0
1.297283 -0.846276 0
2.061392 -1.466149 0
2.754315 -2.110589 0
3.394901 -2.559962 0
4.280914 -3.390521 0
5.831063 -3.569231 0
6.151748 -2.406052 0
5.981620 -1.332922 0
5.742832 -0.601274 0
5.590355 -0.144350 0
5.514231 0.134894 0
5.501237 0.293837 0
5.531526 0.368582 0
5.587282 0.387473 0
5.655006 0.371342 0
5.724982 0.335308 0
5.791036 0.290096 0
5.849921 0.243076 0
5.900540 0.198970 0
5.943177 0.160408 0
5.978847 0.128451 0
6.008828 0.103083 0
6.034370 0.083649 0
6.056557 0.069197 0
6.076262 0.058710 0
6.094154 0.051259 0
6.110730 0.046071 0
6.126355 0.042561 0
6.141304 0.040330 0
6.155793 0.039150 0
6.170019 0.038950 0
6.184181 0.039816 0
6.198514 0.041985 0
6.213317 0.045880 0
6.228988 0.052145 0
6.246062 0.061725 0
6.265257 0.075978 0
6.287528 0.096852 0
6.314105 0.127143 0
6.346508 0.170899 0
6.386416 0.234040 0
6.435216 0.325404 0
6.492432 0.458264 0
6.551334 0.652249 0
6.587305 0.931076 0
6.526587 1.291742 0
6.297255 1.667086 0
5.922357 1.979268 0
5.433802 2.178297 0
4.794100 2.179739 0
3.768664 1.833083 0
1.542630 0.775073 0
-0.000000 0.000000 0
-0.002627 0.000000 0
0.000000 0.000000 0
0.000000 0.000000 0
0.000000 0.000000 0
0.000000 0.000000 0
0.000000 0.000000 0
0.000000 0.000000 0
0.000000 0.000000 0
0.000000 0.000000 0
0.000000 0.000000 0
0.000000 0.000000 0
0.000000 0.000000 0
0.000000 0.000000 0
0.000000 0.000000 0
0.000000 0.000000 0
0.000000 0.000000 0
0.000000 0.000000 0
0.000000 0.000000 0
0.000000 0.000000 0
0.000000 0.000000 0
0.000000 0.000000 0
0.000000 0.000000 0
0.000000 0.000000 0
0.000000 0.000000 0
0.000000 0.000000 0
0.000000 0.000000 0
0.000000 0.000000 0
0.267963 -0.186451 0
0.995873 -0.643974 0
1.702399 -1.205349 0
2.319858 -1.791274 0
2.880644 -2.411957 0
3.395807 -2.929953 0
4.284501 -3.999321 0
5.744161 -3.967430 0
5.401687 -2.321784 0
4.738463 -1.138682 0
4.209764 -0.450766 0
3.920705 -0.063121 0
3.816967 0.163228 0
3.848392 0.283108 0
3.954322 0.334201 0
4.094259 0.341205 0
4.244142 0.321226 0
4.389376 0.286490 0
4.521998 0.245468 0
4.638481 0.203905 0
4.738173 0.165443 0
4.822159 0.132075 0
4.892418 0.104559 0
4.951239 0.082802 0
5.000855 0.066202 0
5.043256 0.053916 0
5.080107 0.045057 0
5.112750 0.038816 0
5.142235 0.034522 0
5.169380 0.031663 0
5.194824 0.029891 0
5.219092 0.029007 0
5.242652 0.028948 0
5.265972 0.029780 0
5.289583 0.031707 0
5.314139 0.035084 0
5.340500 0.040463 0
5.369831 0.048654 0
5.403724 0.060836 0
5.444371 0.078717 0
5.494773 0.104790 0
5.559010 0.142753 0
5.642527 0.198208 0
5.752333 0.280011 0
5.896713 0.402810 0
6.081440 0.591882 0
6.300950 0.891403 0
6.455781 1.315521 0
6.420536 1.769174 0
6.248670 2.147883 0
5.949181 2.411307 0
5.510632 2.511788 0
4.841332 2.369039 0
3.728706 1.878908 0
1.486310 0.766683 0
-0.000000 0.000000 0
-0.001610 0.000000 0
0.000000 0.000000 0
0.000000 0.000000 0
0.000000 0.000000 0
0.000000 0.000000 0
0.000000 0.000000 0
0.000000 0.000000 0
0.000000 0.000000 0
0.000000 0.000000 0
0.000000 0.000000 0
0.000000 0.000000 0
0.000000 0.000000 0
0.000000 0.000000 0
0.000000 0.000000 0
0.000000 0.000000 0
0.000000 0.000000 0
0.000000 0.000000 0
0.000000 0.000000 0
0.000000 0.000000 0
0.000000 0.000000 0
0.000000 0.000000 0
0.000000 0.000000 0
0.000000 0.000000 0
0.000000 0.000000 0
0.000000 0.000000 0
0.209243 -0.131861 0
0.805424 -0.492428 0
1.468496 -0.977544 0
2.052804 -1.502200 0
2.535354 -2.049871 0
2.939337 -2.643632 0
3.298302 -3.255456 0
4.068842 -4.553935 0
5.219356 -4.122704 0
3.916915 -1.907813 0
2.775384 -0.742423 0
2.002253 -0.196143 0
1.719034 0.050248 0
1.749726 0.170719 0
1.910284 0.225789 0
2.129614 0.246775 0
2.368945 0.243891 0
2.605261 0.225136 0
2.823917 0.197653 0
3.017599 0.166685 0
3.183786 0.135980 0
3.323035 0.107973 0
3.437753 0.083992 0
3.531286 0.064502 0
3.607272 0.049361 0
3.669212 0.038063 0
3.720230 0.029935 0
3.762959 0.024282 0
3.799531 0.020479 0
3.831615 0.018015 0
3.860496 0.016508 0
3.887166 0.015702 0
3.912414 0.015455 0
3.936923 0.015725 0
3.961359 0.016565 0
3.986459 0.018123 0
4.013138 0.020655 0
4.042602 0.024555 0
4.076505 0.030403 0
4.117142 0.039049 0
4.167736 0.051744 0
4.232816 0.070348 0
4.318768 0.097699 0
4.434630 0.138265 0
4.593103 0.199477 0
4.812833 0.295219 0
5.115703 0.451983 0
5.542408 0.745621 0
5.974385 1.232497 0
6.149552 1.769692 0
6.206477 2.212785 0
6.129771 2.543933 0
5.900254 2.728586 0
5.477639 2.715879 0
4.766234 2.444234 0
3.602588 1.855503 0
1.410514 0.737556 0
-0.000000 0.000000 0
-0.001122 0.000000 0
0.000000 0.000000 0
0.000000 0.000000 0
0.000000 0.000000 0
0.000000 0.000000 0
0.000000 0.000000 0
0.000000 0.000000 0
0.000000 0.000000 0
0.000000 0.000000 0
0.000000 0.000000 0
0.000000 0.000000 0
0.000000 0.000000 0
0.000000 0.000000 0
0.000000 0.000000 0
0.000000 0.000000 0
0.000000 0.000000 0
0.000000 0.000000 0
0.000000 0.000000 0
0.000000 0.000000 0
0.000000 0.000000 0
0.000000 0.000000 0
0.000000 0.000000 0
0.000000 0.000000 0
0.195337 -0.102299 0
0.724339 -0.396765 0
1.360458 -0.809413 0
1.928520 -1.261946 0
2.381655 -1.733888 0
2.709894 -2.230477 0
2.935105 -2.789935 0
3.101480 -3.489529 0
3.571635 -4.951044 0
4.021272 -3.892163 0
1.556801 -1.111000 0
0.421250 -0.190126 0
0.058217 0.072567 0
0.025335 0.061985 0
0.159643 0.068479 0
0.369931 0.094906 0
0.615399 0.106973 0
0.868047 0.105562 0
1.107694 0.095826 0
1.322485 0.082211 0
1.506658 0.067183 0
1.658939 0.052587 0
1.781133 0.039623 0
1.876883 0.028904 0
1.950672 0.020576 0
2.007081 0.014471 0
2.050307 0.010240 0
2.083910 0.007472 0
2.110730 0.005770 0
2.132924 0.004803 0
2.152068 0.004318 0
2.169287 0.004142 0
2.185389 0.004171 0
2.200982 0.004357 0
2.216585 0.004700 0
2.232723 0.005239 0
2.250022 0.006054 0
2.269305 0.007270 0
2.291714 0.009070 0
2.318868 0.011726 0
2.353082 0.015639 0
2.397690 0.021410 0
2.457528 0.029966 0
2.539688 0.042771 0
2.654734 0.062298 0
2.818776 0.092643 0
3.057378 0.143905 0
3.414675 0.230439 0
3.969706 0.465997 0
4.891932 1.014731 0
5.375815 1.654192 0
5.755302 2.157683 0
5.964863 2.563015 0
5.981712 2.834865 0
5.791786 2.930851 0
5.358743 2.807840 0
4.612084 2.433651 0
3.436937 1.789664 0
1.336796 0.699186 0
-0.000000 0.000000 0
-0.001283 0.000000 0
0.000000 0.000000 0
0.000000 0.000000 0
0.000000 0.000000 0
0.000000 0.000000 0
0.000000 0.000000 0
0.000000 0.000000 0
0.000000 0.000000 0
0.000000 0.000000 0
0.000000 0.000000 0
0.000000 0.000000 0
0.000000 0.000000 0
0.000000 0.000000 0
0.000000 0.000000 0
0.000000 0.000000 0
0.000000 0.000000 0
0.000000 0.000000 0
0.000000 0.000000 0
0.000000 0.000000 0
0.000000 0.000000 0
0.000000 0.000000 0
0.225162 -0.095084 0
0.751079 -0.355797 0
1.380117 -0.707718 0
1.940945 -1.088999 0
2.380137 -1.483462 0
2.678999 -1.889306 0
2.838740 -2.324059 0
2.878016 -2.837630 0
2.824777 -3.570804 0
2.796843 -5.009615 0
1.634868 -3.000220 0
0.000000 0.000000 0
0.000000 0.000000 0
0.000000 0.000000 0
0.000000 0.000000 0
0.000000 0.000000 0
-0.000000 0.000000 0
-0.000000 0.000000 0
-0.000000 0.000000 0
-0.000000 0.000000 0
-0.000000 0.000000 0
-0.000000 0.000000 0
-0.000000 0.000000 0
-0.000000 0.000000 0
-0.000000 0.000000 0
-0.000000 0.000000 0
-0.000000 0.000000 0
-0.000000 0.000000 0
-0.000000 0.000000 0
-0.000000 0.000000 0
-0.000000 0.000000 0
-0.000000 0.000000 0
-0.000000 0.000000 0
-0.000000 0.000000 0
-0.000000 0.000000 0
-0.000000 0.000000 0
-0.000000 0.000000 0
-0.000000 0.000000 0
-0.000000 0.000000 0
-0.000000 0.000000 0
-0.000000 0.000000 0
-0.000000 0.000000 0
-0.000000 0.000000 0
-0.000000 0.000000 0
-0.000000 0.000000 0
-0.000000 0.000000 0
-0.000000 0.000000 0
-0.000000 0.000000 0
0.000000 0.000000 0
0.000000 0.000000 0
2.077751 0.522124 0
3.746090 1.341964 0
4.737844 1.920961 0
5.378457 2.431766 0
5.724155 2.814331 0
5.802250 3.024508 0
5.624845 3.028678 0
5.177348 2.807598 0
4.419706 2.362681 0
3.273627 1.705188 0
1.282616 0.662251 0
-0.000000 0.000000 0
-0.002110 0.000000 0
0.000000 0.000000 0
0.000000 0.000000 0
0.000000 0.000000 0
0.000000 0.000000 0
0.000000 0.000000 0
0.000000 0.000000 0
0.000000 0.000000 0
0.000000 0.000000 0
0.000000 0.000000 0
0.000000 0.000000 0
0.000000 0.000000 0
0.000000 0.000000 0
0.000000 0.000000 0
0.000000 0.000000 0
0.000000 0.000000 0
0.000000 0.000000 0
0.000000 0.000000 0
0.000000 0.000000 0
0.308932 -0.109498 0
0.897279 -0.368356 0
1.541432 -0.672794 0
2.095984 -0.986244 0
2.519501 -1.304839 0
2.796887 -1.627591 0
2.926823 -1.961087 0
2.918669 -2.329074 0
2.785019 -2.783018 0
2.522201 -3.449314 0
2.017712 -4.378568 0
0.037591 0.000000 0
-0.073589 2.449225 0
0.384001 0.000000 0
0.310182 0.000000 0
0.237524 0.000000 0
0.185064 0.000000 0
0.099298 0.000000 0
-0.006503 0.000000 0
-0.116628 0.000000 0
-0.219580 0.000000 0
-0.310052 0.000000 0
-0.385523 0.000000 0
-0.445662 0.000000 0
-0.491671 0.000000 0
-0.525641 0.000000 0
-0.550013 0.000000 0
-0.567175 0.000000 0
-0.579223 0.000000 0
-0.587845 0.000000 0
-0.594305 0.000000 0
-0.599492 0.000000 0
-0.604000 0.000000 0
-0.608209 0.000000 0
-0.612361 0.000000 0
-0.616627 0.000000 0
-0.621155 0.000000 0
-0.626113 0.000000 0
-0.631730 0.000000 0
-0.638334 0.000000 0
-0.646404 0.000000 0
-0.656642 0.000000 0
-0.670073 0.000000 0
-0.688209 0.000000 0
-0.713289 0.000000 0
-0.748694 0.000000 0
-0.799623 0.000000 0
-0.874443 0.000000 0
-0.986623 0.000000 0
-1.164916 0.000000 0
-1.451764 0.132301 0
0.000000 0.000000 0
1.708398 0.339716 0
3.310431 1.348981 0
4.417294 2.074380 0
5.135484 2.624911 0
5.515186 2.980051 0
5.601194 3.117427 0
5.418987 3.030697 0
4.969197 2.732799 0
4.232693 2.254686 0
3.152471 1.623165 0
1.265872 0.635452 0
0.000000 0.000000 0
-0.003819 0.000000 0
0.000000 0.000000 0
0.000000 0.000000 0
0.000000 0.000000 0
0.000000 0.000000 0
0.000000 0.000000 0
0.000000 0.000000 0
0.000000 0.000000 0
0.000000 0.000000 0
0.000000 0.000000 0
0.000000 0.000000 0
0.000000 0.000000 0
0.000000 0.000000 0
0.000000 0.000000 0
0.000000 0.000000 0
0.000000 0.000000 0