# vtk DataFile Version 2.0
generated by CFD-lab course output (written by Tobias Neckel) 
ASCII

DATASET STRUCTURED_GRID
DIMENSIONS  82 60 1 
POINTS 4920 float

-1.500000 -0.500000 0
-1.402439 -0.500000 0
-1.304878 -0.500000 0
-1.207317 -0.500000 0
-1.109756 -0.500000 0
-1.012195 -0.500000 0
-0.914634 -0.500000 0
-0.817073 -0.500000 0
-0.719512 -0.500000 0
-0.621951 -0.500000 0
-0.524390 -0.500000 0
-0.426829 -0.500000 0
-0.329268 -0.500000 0
-0.231707 -0.500000 0
-0.134146 -0.500000 0
-0.036585 -0.500000 0
0.060976 -0.500000 0
0.158537 -0.500000 0
0.256098 -0.500000 0
0.353659 -0.500000 0
0.451220 -0.500000 0
0.548780 -0.500000 0
0.646341 -0.500000 0
0.743902 -0.500000 0
0.841463 -0.500000 0
0.939024 -0.500000 0
1.036585 -0.500000 0
1.134146 -0.500000 0
1.231707 -0.500000 0
1.329268 -0.500000 0
1.426829 -0.500000 0
1.524390 -0.500000 0
1.621951 -0.500000 0
1.719512 -0.500000 0
1.817073 -0.500000 0
1.914634 -0.500000 0
2.012195 -0.500000 0
2.109756 -0.500000 0
2.207317 -0.500000 0
2.304878 -0.500000 0
2.402439 -0.500000 0
2.500000 -0.500000 0
2.597561 -0.500000 0
2.695122 -0.500000 0
2.792683 -0.500000 0
2.890244 -0.500000 0
2.987805 -0.500000 0
3.085366 -0.500000 0
3.182927 -0.500000 0
3.280488 -0.500000 0
3.378049 -0.500000 0
3.475610 -0.500000 0
3.573171 -0.500000 0
3.670732 -0.500000 0
3.768293 -0.500000 0
3.865854 -0.500000 0
3.963415 -0.500000 0
4.060976 -0.500000 0
4.158537 -0.500000 0
4.256098 -0.500000 0
4.353659 -0.500000 0
4.451220 -0.500000 0
4.548780 -0.500000 0
4.646341 -0.500000 0
4.743902 -0.500000 0
4.841463 -0.500000 0
4.939024 -0.500000 0
5.036585 -0.500000 0
5.134146 -0.500000 0
5.231707 -0.500000 0
5.329268 -0.500000 0
5.426829 -0.500000 0
5.524390 -0.500000 0
5.621951 -0.500000 0
5.719512 -0.500000 0
5.817073 -0.500000 0
5.914634 -0.500000 0
6.012195 -0.500000 0
6.109756 -0.500000 0
6.207317 -0.500000 0
6.304878 -0.500000 0
6.402439 -0.500000 0
-1.500000 -0.451667 0
-1.402439 -0.451667 0
-1.304878 -0.451667 0
-1.207317 -0.451667 0
-1.109756 -0.451667 0
-1.012195 -0.451667 0
-0.914634 -0.451667 0
-0.817073 -0.451667 0
-0.719512 -0.451667 0
-0.621951 -0.451667 0
-0.524390 -0.451667 0
-0.426829 -0.451667 0
-0.329268 -0.451667 0
-0.231707 -0.451667 0
-0.134146 -0.451667 0
-0.036585 -0.451667 0
0.060976 -0.451667 0
0.158537 -0.451667 0
0.256098 -0.451667 0
0.353659 -0.451667 0
0.451220 -0.451667 0
0.548780 -0.451667 0
0.646341 -0.451667 0
0.743902 -0.451667 0
0.841463 -0.451667 0
0.939024 -0.451667 0
1.036585 -0.451667 0
1.134146 -0.451667 0
1.231707 -0.451667 0
1.329268 -0.451667 0
1.426829 -0.451667 0
1.524390 -0.451667 0
1.621951 -0.451667 0
1.719512 -0.451667 0
1.817073 -0.451667 0
1.914634 -0.451667 0
2.012195 -0.451667 0
2.109756 -0.451667 0
2.207317 -0.451667 0
2.304878 -0.451667 0
2.402439 -0.451667 0
2.500000 -0.451667 0
2.597561 -0.451667 0
2.695122 -0.451667 0
2.792683 -0.451667 0
2.890244 -0.451667 0
2.987805 -0.451667 0
3.085366 -0.451667 0
3.182927 -0.451667 0
3.280488 -0.451667 0
3.378049 -0.451667 0
3.475610 -0.451667 0
3.573171 -0.451667 0
3.670732 -0.451667 0
3.768293 -0.451667 0
3.865854 -0.451667 0
3.963415 -0.451667 0
4.060976 -0.451667 0
4.158537 -0.451667 0
4.256098 -0.451667 0
4.353659 -0.451667 0
4.451220 -0.451667 0
4.548780 -0.451667 0
4.646341 -0.451667 0
4.743902 -0.451667 0
4.841463 -0.451667 0
4.939024 -0.451667 0
5.036585 -0.451667 0
5.134146 -0.451667 0
5.231707 -0.451667 0
5.329268 -0.451667 0
5.426829 -0.451667 0
5.524390 -0.451667 0
5.621951 -0.451667 0
5.719512 -0.451667 0
5.817073 -0.451667 0
5.914634 -0.451667 0
6.012195 -0.451667 0
6.109756 -0.451667 0
6.207317 -0.451667 0
6.304878 -0.451667 0
6.402439 -0.451667 0
-1.500000 -0.403333 0
-1.402439 -0.403333 0
-1.304878 -0.403333 0
-1.207317 -0.403333 0
-1.109756 -0.403333 0
-1.012195 -0.403333 0
-0.914634 -0.403333 0
-0.817073 -0.403333 0
-0.719512 -0.403333 0
-0.621951 -0.403333 0
-0.524390 -0.403333 0
-0.426829 -0.403333 0
-0.329268 -0.403333 0
-0.231707 -0.403333 0
-0.134146 -0.403333 0
-0.036585 -0.403333 0
0.060976 -0.403333 0
0.158537 -0.403333 0
0.256098 -0.403333 0
0.353659 -0.403333 0
0.451220 -0.403333 0
0.548780 -0.403333 0
0.646341 -0.403333 0
0.743902 -0.403333 0
0.841463 -0.403333 0
0.939024 -0.403333 0
1.036585 -0.403333 0
1.134146 -0.403333 0
1.231707 -0.403333 0
1.329268 -0.403333 0
1.426829 -0.403333 0
1.524390 -0.403333 0
1.621951 -0.403333 0
1.719512 -0.403333 0
1.817073 -0.403333 0
1.914634 -0.403333 0
2.012195 -0.403333 0
2.109756 -0.403333 0
2.207317 -0.403333 0
2.304878 -0.403333 0
2.402439 -0.403333 0
2.500000 -0.403333 0
2.597561 -0.403333 0
2.695122 -0.403333 0
2.792683 -0.403333 0
2.890244 -0.403333 0
2.987805 -0.403333 0
3.085366 -0.403333 0
3.182927 -0.403333 0
3.280488 -0.403333 0
3.378049 -0.403333 0
3.475610 -0.403333 0
3.573171 -0.403333 0
3.670732 -0.403333 0
3.768293 -0.403333 0
3.865854 -0.403333 0
3.963415 -0.403333 0
4.060976 -0.403333 0
4.158537 -0.403333 0
4.256098 -0.403333 0
4.353659 -0.403333 0
4.451220 -0.403333 0
4.548780 -0.403333 0
4.646341 -0.403333 0
4.743902 -0.403333 0
4.841463 -0.403333 0
4.939024 -0.403333 0
5.036585 -0.403333 0
5.134146 -0.403333 0
5.231707 -0.403333 0
5.329268 -0.403333 0
5.426829 -0.403333 0
5.524390 -0.403333 0
5.621951 -0.403333 0
5.719512 -0.403333 0
5.817073 -0.403333 0
5.914634 -0.403333 0
6.012195 -0.403333 0
6.109756 -0.403333 0
6.207317 -0.403333 0
6.304878 -0.403333 0
6.402439 -0.403333 0
-1.500000 -0.355000 0
-1.402439 -0.355000 0
-1.304878 -0.355000 0
-1.207317 -0.355000 0
-1.109756 -0.355000 0
-1.012195 -0.355000 0
-0.914634 -0.355000 0
-0.817073 -0.355000 0
-0.719512 -0.355000 0
-0.621951 -0.355000 0
-0.524390 -0.355000 0
-0.426829 -0.355000 0
-0.329268 -0.355000 0
-0.231707 -0.355000 0
-0.134146 -0.355000 0
-0.036585 -0.355000 0
0.060976 -0.355000 0
0.158537 -0.355000 0
0.256098 -0.355000 0
0.353659 -0.355000 0
0.451220 -0.355000 0
0.548780 -0.355000 0
0.646341 -0.355000 0
0.743902 -0.355000 0
0.841463 -0.355000 0
0.939024 -0.355000 0
1.036585 -0.355000 0
1.134146 -0.355000 0
1.231707 -0.355000 0
1.329268 -0.355000 0
1.426829 -0.355000 0
1.524390 -0.355000 0
1.621951 -0.355000 0
1.719512 -0.355000 0
1.817073 -0.355000 0
1.914634 -0.355000 0
2.012195 -0.355000 0
2.109756 -0.355000 0
2.207317 -0.355000 0
2.304878 -0.355000 0
2.402439 -0.355000 0
2.500000 -0.355000 0
2.597561 -0.355000 0
2.695122 -0.355000 0
2.792683 -0.355000 0
2.890244 -0.355000 0
2.987805 -0.355000 0
3.085366 -0.355000 0
3.182927 -0.355000 0
3.280488 -0.355000 0
3.378049 -0.355000 0
3.475610 -0.355000 0
3.573171 -0.355000 0
3.670732 -0.355000 0
3.768293 -0.355000 0
3.865854 -0.355000 0
3.963415 -0.355000 0
4.060976 -0.355000 0
4.158537 -0.355000 0
4.256098 -0.355000 0
4.353659 -0.355000 0
4.451220 -0.355000 0
4.548780 -0.355000 0
4.646341 -0.355000 0
4.743902 -0.355000 0
4.841463 -0.355000 0
4.939024 -0.355000 0
5.036585 -0.355000 0
5.134146 -0.355000 0
5.231707 -0.355000 0
5.329268 -0.355000 0
5.426829 -0.355000 0
5.524390 -0.355000 0
5.621951 -0.355000 0
5.719512 -0.355000 0
5.817073 -0.355000 0
5.914634 -0.355000 0
6.012195 -0.355000 0
6.109756 -0.355000 0
6.207317 -0.355000 0
6.304878 -0.355000 0
6.402439 -0.355000 0
-1.500000 -0.306667 0
-1.402439 -0.306667 0
-1.304878 -0.306667 0
-1.207317 -0.306667 0
-1.109756 -0.306667 0
-1.012195 -0.306667 0
-0.914634 -0.306667 0
-0.817073 -0.306667 0
-0.719512 -0.306667 0
-0.621951 -0.306667 0
-0.524390 -0.306667 0
-0.426829 -0.306667 0
-0.329268 -0.306667 0
-0.231707 -0.306667 0
-0.134146 -0.306667 0
-0.036585 -0.306667 0
0.060976 -0.306667 0
0.158537 -0.306667 0
0.256098 -0.306667 0
0.353659 -0.306667 0
0.451220 -0.306667 0
0.548780 -0.306667 0
0.646341 -0.306667 0
0.743902 -0.306667 0
0.841463 -0.306667 0
0.939024 -0.306667 0
1.036585 -0.306667 0
1.134146 -0.306667 0
1.231707 -0.306667 0
1.329268 -0.306667 0
1.426829 -0.306667 0
1.524390 -0.306667 0
1.621951 -0.306667 0
1.719512 -0.306667 0
1.817073 -0.306667 0
1.914634 -0.306667 0
2.012195 -0.306667 0
2.109756 -0.306667 0
2.207317 -0.306667 0
2.304878 -0.306667 0
2.402439 -0.306667 0
2.500000 -0.306667 0
2.597561 -0.306667 0
2.695122 -0.306667 0
2.792683 -0.306667 0
2.890244 -0.306667 0
2.987805 -0.306667 0
3.085366 -0.306667 0
3.182927 -0.306667 0
3.280488 -0.306667 0
3.378049 -0.306667 0
3.475610 -0.306667 0
3.573171 -0.306667 0
3.670732 -0.306667 0
3.768293 -0.306667 0
3.865854 -0.306667 0
3.963415 -0.306667 0
4.060976 -0.306667 0
4.158537 -0.306667 0
4.256098 -0.306667 0
4.353659 -0.306667 0
4.451220 -0.306667 0
4.548780 -0.306667 0
4.646341 -0.306667 0
4.743902 -0.306667 0
4.841463 -0.306667 0
4.939024 -0.306667 0
5.036585 -0.306667 0
5.134146 -0.306667 0
5.231707 -0.306667 0
5.329268 -0.306667 0
5.426829 -0.306667 0
5.524390 -0.306667 0
5.621951 -0.306667 0
5.719512 -0.306667 0
5.817073 -0.306667 0
5.914634 -0.306667 0
6.012195 -0.306667 0
6.109756 -0.306667 0
6.207317 -0.306667 0
6.304878 -0.306667 0
6.402439 -0.306667 0
-1.500000 -0.258333 0
-1.402439 -0.258333 0
-1.304878 -0.258333 0
-1.207317 -0.258333 0
-1.109756 -0.258333 0
-1.012195 -0.258333 0
-0.914634 -0.258333 0
-0.817073 -0.258333 0
-0.719512 -0.258333 0
-0.621951 -0.258333 0
-0.524390 -0.258333 0
-0.426829 -0.258333 0
-0.329268 -0.258333 0
-0.231707 -0.258333 0
-0.134146 -0.258333 0
-0.036585 -0.258333 0
0.060976 -0.258333 0
0.158537 -0.258333 0
0.256098 -0.258333 0
0.353659 -0.258333 0
0.451220 -0.258333 0
0.548780 -0.258333 0
0.646341 -0.258333 0
0.743902 -0.258333 0
0.841463 -0.258333 0
0.939024 -0.258333 0
1.036585 -0.258333 0
1.134146 -0.258333 0
1.231707 -0.258333 0
1.329268 -0.258333 0
1.426829 -0.258333 0
1.524390 -0.258333 0
1.621951 -0.258333 0
1.719512 -0.258333 0
1.817073 -0.258333 0
1.914634 -0.258333 0
2.012195 -0.258333 0
2.109756 -0.258333 0
2.207317 -0.258333 0
2.304878 -0.258333 0
2.402439 -0.258333 0
2.500000 -0.258333 0
2.597561 -0.258333 0
2.695122 -0.258333 0
2.792683 -0.258333 0
2.890244 -0.258333 0
2.987805 -0.258333 0
3.085366 -0.258333 0
3.182927 -0.258333 0
3.280488 -0.258333 0
3.378049 -0.258333 0
3.475610 -0.258333 0
3.573171 -0.258333 0
[...]
POINT_DATA 4920 

VECTORS velocity float
0.000000 0.000000 0
0.000000 0.000000 0
0.000000 0.000000 0
0.000000 0.000000 0
0.000000 0.000000 0
0.000000 0.000000 0
0.000000 0.000000 0
0.000000 0.000000 0
0.000000 0.000000 0
0.000000 0.000000 0
0.000000 0.000000 0
0.000000 0.000000 0
0.000000 0.000000 0
0.000000 0.000000 0
0.000000 0.000000 0
0.000000 0.000000 0
0.000000 0.000000 0
0.000000 0.000000 0
0.000000 0.000000 0
0.000000 0.000000 0
0.000000 0.000000 0
0.000001 0.000000 0
0.000001 0.000000 0
0.000001 0.000000 0
0.000001 0.000000 0
0.000001 0.000000 0
0.000001 0.000000 0
0.000001 0.000000 0
0.000001 0.000000 0
0.000001 0.000000 0
0.000001 0.000000 0
0.000001 0.000000 0
0.000001 0.000000 0
0.000001 0.000000 0
0.000001 0.000000 0
0.000001 0.000000 0
0.000001 0.000000 0
0.000001 0.000000 0
0.000001 0.000000 0
0.000001 0.000000 0
0.000001 0.000000 0
0.000001 0.000000 0
0.000001 0.000000 0
0.000001 0.000000 0
0.000001 0.000000 0
0.000001 0.000000 0
0.000001 0.000000 0
0.000001 0.000000 0
0.000001 0.000000 0
0.000001 0.000000 0
0.000001 0.000000 0
0.000001 0.000000 0
0.000001 0.000000 0
0.000001 0.000000 0
0.000000 0.000000 0
0.000000 0.000000 0
0.000000 0.000000 0
0.001917 0.000000 0
0.000000 0.000000 0
0.000000 0.000000 0
0.000000 0.000000 0
0.000000 0.000000 0
0.000000 0.000000 0
0.000000 0.000000 0
0.000000 0.000000 0
0.000000 0.000000 0
0.000000 0.000000 0
0.000000 0.000000 0
0.000000 0.000000 0
0.000000 0.000000 0
0.000000 0.000000 0
0.000000 0.000000 0
0.000000 0.000000 0
0.000000 0.000000 0
0.000000 0.000000 0
0.000000 0.000000 0
0.000000 0.000000 0
0.000000 0.000000 0
0.000000 0.000000 0
0.000000 0.000000 0
0.000000 0.000000 0
0.000000 0.000000 0
0.000000 0.000000 0
0.000000 0.000000 0
0.000000 0.000000 0
0.000000 0.000000 0
0.000000 0.000000 0
0.000000 0.000000 0
0.000000 0.000000 0
0.000000 0.000000 0
0.000000 0.000000 0
0.000000 0.000000 0
0.000000 0.000000 0
0.000000 0.000000 0
0.000000 0.000000 0
0.000000 0.000000 0
1.046346 -0.422511 0
2.518196 -0.738176 0
3.779626 -0.505119 0
4.622609 -0.265387 0
5.056054 -0.070116 0
5.167017 0.061931 0
5.063134 0.139735 0
4.829655 0.177742 0
4.530712 0.186513 0
4.213191 0.175018 0
3.909385 0.151130 0
3.639079 0.121591 0
3.411715 0.091702 0
3.228881 0.065047 0
3.086984 0.043471 0
2.979701 0.027383 0
2.899887 0.016248 0
2.840799 0.009087 0
2.796707 0.004845 0
2.763086 0.002596 0
2.736544 0.001619 0
2.714645 0.001399 0
2.695693 0.001594 0
2.678533 0.001996 0
2.662371 0.002493 0
2.646630 0.003044 0
2.630837 0.003654 0
2.614520 0.004370 0
2.597124 0.005267 0
2.577919 0.006459 0
2.555907 0.008094 0
2.529696 0.010375 0
2.497350 0.013567 0
2.456180 0.018021 0
2.402480 0.024184 0
2.331201 0.032602 0
2.235577 0.043879 0
2.106780 0.058494 0
1.933963 0.076510 0
1.704701 0.096434 0
1.409162 0.115115 0
1.038476 0.130659 0
0.616482 0.068808 0
0.000000 0.000000 0
-0.001568 0.000000 0
0.000000 0.000000 0
0.000000 0.000000 0
0.000000 0.000000 0
0.000000 0.000000 0
0.000000 0.000000 0
0.000000 0.000000 0
0.000000 0.000000 0
0.000000 0.000000 0
0.000000 0.000000 0
0.000000 0.000000 0
0.000000 0.000000 0
0.000000 0.000000 0
0.000000 0.000000 0
0.000000 0.000000 0
0.000000 0.000000 0
0.000000 0.000000 0
0.000000 0.000000 0
0.000000 0.000000 0
0.000000 0.000000 0
0.000000 0.000000 0
0.000000 0.000000 0
0.000000 0.000000 0
0.000000 0.000000 0
0.000000 0.000000 0
0.000000 0.000000 0
0.000000 0.000000 0
0.000000 0.000000 0
0.000000 0.000000 0
0.000000 0.000000 0
0.000000 0.000000 0
0.000000 0.000000 0
0.000000 0.000000 0
0.000000 0.000000 0
0.000000 0.000000 0
0.000000 0.000000 0
0.000000 0.000000 0
1.159549 -0.516972 0
2.653629 -1.245944 0
3.828427 -1.353905 0
5.002355 -1.042562 0
5.863717 -0.632364 0
6.390763 -0.269708 0
6.646912 -0.003507 0
6.706661 0.167135 0
6.638142 0.263770 0
6.490864 0.305406 0
6.301004 0.307816 0
6.094622 0.284425 0
5.889836 0.246554 0
5.698429 0.203219 0
5.527142 0.160877 0
5.378817 0.123448 0
5.253469 0.092691 0
5.149258 0.068815 0
5.063343 0.051117 0
4.992538 0.038500 0
4.933762 0.029806 0
4.884295 0.023999 0
4.841876 0.020238 0
4.804706 0.017890 0
4.771383 0.016509 0
4.740822 0.015805 0
4.712151 0.015622 0
4.684623 0.015908 0
4.657521 0.016702 0
4.630067 0.018133 0
4.601326 0.020420 0
4.570085 0.023890 0
4.534716 0.029010 0
4.492979 0.036421 0
4.441773 0.047000 0
4.376783 0.061917 0
4.292004 0.082687 0
4.179113 0.111182 0
4.026666 0.149425 0
3.819172 0.199197 0
3.536460 0.259995 0
3.154272 0.330059 0
2.646913 0.392198 0
2.014471 0.512170 0
1.050490 0.303616 0
0.000000 0.000000 0
-0.004724 0.000000 0
0.000000 0.000000 0
0.000000 0.000000 0
0.000000 0.000000 0
0.000000 0.000000 0
0.000000 0.000000 0
0.000000 0.000000 0
0.000000 0.000000 0
0.000000 0.000000 0
0.000000 0.000000 0
0.000000 0.000000 0
0.000000 0.000000 0
0.000000 0.000000 0
0.000000 0.000000 0
0.000000 0.000000 0
0.000000 0.000000 0
0.000000 0.000000 0
0.000000 0.000000 0
0.000000 0.000000 0
0.000000 0.000000 0
0.000000 0.000000 0
0.000000 0.000000 0
0.000000 0.000000 0
0.000000 0.000000 0
0.000000 0.000000 0
0.000000 0.000000 0
0.000000 0.000000 0
0.000000 0.000000 0
0.000000 0.000000 0
0.000000 0.000000 0
0.000000 0.000000 0
0.000000 0.000000 0
0.000000 0.000000 0
0.000000 0.000000 0
0.000000 0.000000 0
0.936038 -0.582504 0
2.634439 -1.321291 0
3.462138 -1.743312 0
4.644750 -1.901774 0
5.708098 -1.513436 0
6.431174 -0.953228 0
6.856017 -0.458124 0
7.079216 -0.094570 0
7.167340 0.144079 0
7.169213 0.284652 0
7.118029 0.353537 0
7.036011 0.371322 0
6.938022 0.354830 0
6.834158 0.317872 0
6.731384 0.271387 0
6.634390 0.223388 0
6.546029 0.179053 0
6.467615 0.141110 0
6.399253 0.110439 0
6.340209 0.086729 0
6.289282 0.069042 0
6.245101 0.056222 0
6.206339 0.047141 0
6.171820 0.040829 0
6.140563 0.036517 0
6.111772 0.033645 0
6.084806 0.031838 0
6.059125 0.030886 0
6.034240 0.030719 0
6.009655 0.031397 0
5.984801 0.033107 0
5.958970 0.036175 0
5.931221 0.041094 0
5.900265 0.048574 0
5.864306 0.059612 0
5.820815 0.075587 0
5.766206 0.098383 0
5.695364 0.130531 0
5.600937 0.175332 0
5.472309 0.236815 0
5.293960 0.319366 0
5.043777 0.425836 0
4.689909 0.555811 0
4.199817 0.695336 0
3.529917 0.855968 0
2.831158 0.996661 0
1.342886 0.522822 0
0.000000 0.000000 0
-0.005815 0.000000 0
0.000000 0.000000 0
0.000000 0.000000 0
0.000000 0.000000 0
0.000000 0.000000 0
0.000000 0.000000 0
0.000000 0.000000 0
0.000000 0.000000 0
0.000000 0.000000 0
0.000000 0.000000 0
0.000000 0.000000 0
0.000000 0.000000 0
0.000000 0.000000 0
0.000000 0.000000 0
0.000000 0.000000 0
0.000000 0.000000 0
0.000000 0.000000 0
0.000000 0.000000 0
0.000000 0.000000 0
0.000000 0.000000 0
0.000000 0.000000 0
0.000000 0.000000 0
0.000000 0.000000 0
0.000000 0.000000 0
0.000000 0.000000 0
0.000000 0.000000 0
0.000000 0.000000 0
0.000000 0.000000 0
0.000000 0.000000 0
0.000000 0.000000 0
0.000000 0.000000 0
0.000000 0.000000 0
0.000000 0.000000 0
0.738327 -0.467351 0
2.144237 -1.316812 0
3.090122 -1.776488 0
3.864573 -2.241885 0
5.207534 -2.466591 0
6.163059 -1.927586 0
6.688483 -1.201062 0
6.946258 -0.590759 0
7.064917 -0.157742 0
7.111447 0.122549 0
7.115464 0.288200 0
7.097327 0.371397 0
7.068469 0.396995 0
7.034624 0.384426 0
6.998559 0.348926 0
6.961889 0.302188 0
6.925893 0.252705 0
6.891681 0.206071 0
6.860098 0.165406 0
6.831619 0.131934 0
6.806338 0.105599 0
6.784053 0.085618 0
6.764375 0.070897 0
6.746846 0.060303 0
6.731009 0.052825 0
6.716457 0.047639 0
6.702844 0.044132 0
6.689884 0.041888 0
6.677330 0.040673 0
6.664952 0.040416 0
6.652508 0.041195 0
6.639712 0.043243 0
6.626191 0.046964 0
6.611434 0.052974 0
6.594716 0.062161 0
6.574999 0.075782 0
6.550776 0.095601 0
6.519828 0.124067 0
6.478853 0.164564 0
6.422828 0.221687 0
6.343940 0.301506 0
6.229578 0.411498 0
6.059324 0.559252 0
5.799442 0.748171 0
5.406545 0.966877 0
4.837495 1.190227 0
4.167372 1.389326 0
3.377298 1.409906 0
1.500683 0.670372 0
-0.000000 0.000000 0
-0.005268 0.000000 0
0.000000 0.000000 0
0.000000 0.000000 0
0.000000 0.000000 0
0.000000 0.000000 0
0.000000 0.000000 0
0.000000 0.000000 0
0.000000 0.000000 0
0.000000 0.000000 0
0.000000 0.000000 0
0.000000 0.000000 0
0.000000 0.000000 0
0.000000 0.000000 0
0.000000 0.000000 0
0.000000 0.000000 0
0.000000 0.000000 0
0.000000 0.000000 0
0.000000 0.000000 0
0.000000 0.000000 0
0.000000 0.000000 0
0.000000 0.000000 0
0.000000 0.000000 0
0.000000 0.000000 0
0.000000 0.000000 0
0.000000 0.000000 0
0.000000 0.000000 0
0.000000 0.000000 0
0.000000 0.000000 0
0.000000 0.000000 0
0.000000 0.000000 0
0.000000 0.000000 0
0.536121 -0.369251 0
1.698422 -1.069384 0
2.545065 -1.751244 0
3.300504 -2.173574 0
4.126335 -2.792314 0
5.618802 -3.040483 0
6.351760 -2.247122 0
6.584417 -1.341237 0
6.617855 -0.644616 0
6.605667 -0.176408 0
6.590905 0.119038 0
6.580844 0.291647 0
6.579602 0.376819 0
6.586562 0.402386 0
6.598817 0.389464 0
6.612940 0.353906 0
6.626261 0.307387 0
6.637306 0.258170 0
6.645669 0.211649 0
6.651629 0.170866 0
6.655763 0.137073 0
6.658679 0.110294 0
6.660871 0.089831 0
6.662685 0.074655 0
6.664331 0.063671 0
6.665922 0.055884 0
6.667507 0.050470 0
6.669095 0.046809 0
6.670677 0.044478 0
6.672234 0.043237 0
6.673744 0.043016 0
6.675183 0.043901 0
6.676519 0.046145 0
6.677713 0.050185 0
6.678701 0.056687 0
6.679381 0.066625 0
6.679577 0.081381 0
6.678983 0.102920 0
6.677047 0.134014 0
6.672765 0.178586 0
6.664243 0.242170 0
6.647803 0.332555 0
6.615959 0.460370 0
6.553335 0.638933 0
6.428131 0.879209 0
6.183961 1.171900 0
5.772140 1.469875 0
5.221159 1.720067 0
4.581236 1.852145 0
3.670408 1.686511 0
1.556166 0.748603 0
-0.000000 0.000000 0
-0.003974 0.000000 0
0.000000 0.000000 0
0.000000 0.000000 0
0.000000 0.000000 0
0.000000 0.000000 0
0.000000 0.000000 0
0.000000 0.000000 0
0.000000 0.000000 0
0.000000 0.000000 0
0.000000 0.000000 0
0.000000 0.000000 0
0.000000 0.000000 0
0.000000 0.000000 0
0.000000 0.000000 0
0.000000 0.000000 0
0.000000 0.000000 0
0.000000 0.000000 0
0.000000 0.000000 0
0.000000 0.000000 0
0.000000 0.000000 0
0.000000 0.000000 0
0.000000 0.000000 0
0.000000 0.000000 0
0.000000 0.000000 0
0.000000 0.000000 0
0.000000 0.000000 0
0.000000 0.000000 0
0.000000 0.000000 0
0.000000 0.000000 0
0.376421 -0.266933 0
1.297197 -0.846228 0
2.061287 -1.466087 0
2.754194 -2.110510 0
3.394766 -2.559876 0
4.280754 -3.390408 0
5.830843 -3.569104 0
6.151507 -2.405968 0
5.981373 -1.332890 0
5.742584 -0.601286 0
5.590111 -0.144391 0
5.513998 0.134846 0
5.501017 0.293800 0
5.531319 0.368564 0
5.587085 0.387475 0
5.654818 0.371358 0
5.724801 0.335330 0
5.790861 0.290116 0
5.849751 0.243090 0
5.900372 0.198975 0
5.943010 0.160405 0
5.978679 0.128440 0
6.008656 0.103068 0
6.034194 0.083634 0
6.056378 0.069183 0
6.076079 0.058699 0
6.093968 0.051251 0
6.110541 0.046067 0
6.126165 0.042561 0
6.141112 0.040333 0
6.155602 0.039154 0
6.169828 0.038955 0
6.183991 0.039820 0
6.198325 0.041989 0
6.213129 0.045883 0
6.228801 0.052148 0
6.245875 0.061727 0
6.265072 0.075980 0
6.287343 0.096855 0
6.313921 0.127148 0
6.346325 0.170907 0
6.386236 0.234054 0
6.435038 0.325426 0
6.492255 0.458299 0
6.551155 0.652306 0
6.587108 0.931165 0
6.526329 1.291866 0
6.296852 1.667215 0
5.921729 1.979320 0
5.432941 2.178174 0
4.793089 2.179403 0
3.767711 1.832647 0
1.542233 0.774855 0
-0.000000 0.000000 0
-0.002617 0.000000 0
0.000000 0.000000 0
0.000000 0.000000 0
0.000000 0.000000 0
0.000000 0.000000 0
0.000000 0.000000 0
0.000000 0.000000 0
0.000000 0.000000 0
0.000000 0.000000 0
0.000000 0.000000 0
0.000000 0.000000 0
0.000000 0.000000 0
0.000000 0.000000 0
0.000000 0.000000 0
0.000000 0.000000 0
0.000000 0.000000 0
0.000000 0.000000 0
0.000000 0.000000 0
0.000000 0.000000 0
0.000000 0.000000 0
0.000000 0.000000 0
0.000000 0.000000 0
0.000000 0.000000 0
0.000000 0.000000 0
0.000000 0.000000 0
0.000000 0.000000 0
0.000000 0.000000 0
0.267931 -0.186433 0
0.995795 -0.643931 0
1.702304 -1.205293 0
2.319752 -1.791205 0
2.880524 -2.411871 0
3.395677 -2.929857 0
4.284342 -3.999187 0
5.743948 -3.967285 0
5.401476 -2.321697 0
4.738260 -1.138650 0
4.209558 -0.450778 0
3.920504 -0.063163 0
3.816761 0.163176 0
3.848184 0.283066 0
3.954117 0.334179 0
4.094060 0.341203 0
4.243952 0.321238 0
4.389196 0.286507 0
4.521828 0.245485 0
4.638318 0.203917 0
4.738014 0.165447 0
4.822001 0.132072 0
4.892257 0.104550 0
4.951072 0.082790 0
5.000682 0.066189 0
5.043075 0.053904 0
5.079920 0.045049 0
5.112557 0.038811 0
5.142039 0.034519 0
5.169182 0.031664 0
5.194626 0.029894 0
5.218895 0.029011 0
5.242456 0.028952 0
5.265779 0.029784 0
5.289392 0.031710 0
5.313950 0.035086 0
5.340313 0.040464 0
5.369645 0.048656 0
5.403539 0.060838 0
5.444188 0.078719 0
5.494592 0.104794 0
5.558832 0.142760 0
5.642353 0.198220 0
5.752165 0.280031 0
5.896554 0.402844 0
6.081291 0.591941 0
6.300805 0.891508 0
6.455593 1.315698 0
6.420185 1.769404 0
6.248034 2.148063 0
5.948241 2.411292 0
5.509492 2.511493 0
4.840188 2.368527 0
3.727829 1.878414 0
1.486059 0.766480 0
-0.000000 0.000000 0
-0.001602 0.000000 0
0.000000 0.000000 0
0.000000 0.000000 0
0.000000 0.000000 0
0.000000 0.000000 0
0.000000 0.000000 0
0.000000 0.000000 0
0.000000 0.000000 0
0.000000 0.000000 0
0.000000 0.000000 0
0.000000 0.000000 0
0.000000 0.000000 0
0.000000 0.000000 0
0.000000 0.000000 0
0.000000 0.000000 0
0.000000 0.000000 0
0.000000 0.000000 0
0.000000 0.000000 0
0.000000 0.000000 0
0.000000 0.000000 0
0.000000 0.000000 0
0.000000 0.000000 0
0.000000 0.000000 0
0.000000 0.000000 0
0.000000 0.000000 0
0.209214 -0.131845 0
0.805353 -0.492389 0
1.468409 -0.977494 0
2.052706 -1.502139 0
2.535248 -2.049797 0
2.939223 -2.643541 0
3.298181 -3.255351 0
4.068694 -4.553781 0
5.219171 -4.122551 0
3.916771 -1.907734 0
2.775267 -0.742394 0
2.002144 -0.196156 0
1.718909 0.050208 0
1.749577 0.170675 0
1.910110 0.225751 0
2.129427 0.246753 0
2.368755 0.243887 0
2.605077 0.225143 0
2.823744 0.197665 0
3.017438 0.166697 0
3.183635 0.135988 0
3.322889 0.107976 0
3.437607 0.083990 0
3.531136 0.064496 0
3.607113 0.049353 0
3.669044 0.038054 0
3.720051 0.029927 0
3.762773 0.024277 0
3.799338 0.020476 0
3.831419 0.018014 0
3.860300 0.016509 0
3.886970 0.015704 0
3.912221 0.015458 0
3.936733 0.015728 0
3.961172 0.016567 0
3.986275 0.018125 0
4.012956 0.020656 0
4.042422 0.024555 0
4.076326 0.030403 0
4.116964 0.039050 0
4.167559 0.051745 0
4.232642 0.070351 0
4.318597 0.097704 0
4.434466 0.138273 0
4.592949 0.199491 0
4.812695 0.295245 0
5.115589 0.452033 0
5.542330 0.745729 0
5.974313 1.232723 0
6.149309 1.770043 0
6.205866 2.213129 0
6.128756 2.544060 0
5.898979 2.728351 0
5.476343 2.715312 0
4.765190 2.443558 0
3.602055 1.855047 0
1.410536 0.737426 0
-0.000000 0.000000 0
-0.001117 0.000000 0
0.000000 0.000000 0
0.000000 0.000000 0
0.000000 0.000000 0
0.000000 0.000000 0
0.000000 0.000000 0
0.000000 0.000000 0
0.000000 0.000000 0
0.000000 0.000000 0
0.000000 0.000000 0
0.000000 0.000000 0
0.000000 0.000000 0
0.000000 0.000000 0
0.000000 0.000000 0
0.000000 0.000000 0
0.000000 0.000000 0
0.000000 0.000000 0
0.000000 0.000000 0
0.000000 0.000000 0
0.000000 0.000000 0
0.000000 0.000000 0
0.000000 0.000000 0
0.000000 0.000000 0
0.195311 -0.102285 0
0.724273 -0.396730 0
1.360377 -0.809367 0
1.928430 -1.261891 0
2.381559 -1.733822 0
2.709792 -2.230400 0
2.934999 -2.789841 0
3.101371 -3.489416 0
3.571508 -4.950877 0
4.021139 -3.892020 0
1.556763 -1.110946 0
0.421262 -0.190111 0
0.058239 0.072559 0
0.025320 0.061963 0
0.159584 0.068452 0
0.369827 0.094882 0
0.615263 0.106959 0
0.867899 0.105558 0
1.107549 0.095828 0
1.322351 0.082217 0
1.506536 0.067189 0
1.658829 0.052591 0
1.781028 0.039625 0
1.876778 0.028903 0
1.950563 0.020574 0
2.006965 0.014468 0
2.050182 0.010237 0
2.083777 0.007469 0
2.110591 0.005769 0
2.132780 0.004802 0
2.151922 0.004318 0
2.169142 0.004143 0
2.185246 0.004171 0
2.200842 0.004358 0
2.216447 0.004701 0
2.232588 0.005240 0
2.249889 0.006055 0
2.269173 0.007270 0
2.291583 0.009070 0
2.318738 0.011726 0
2.352952 0.015639 0
2.397561 0.021410 0
2.457401 0.029967 0
2.539564 0.042773 0
2.654616 0.062302 0
2.818669 0.092650 0
3.057290 0.143919 0
3.414622 0.230467 0
3.969720 0.466082 0
4.892087 1.014991 0
5.375820 1.654689 0
5.754809 2.158245 0
5.963802 2.563329 0
5.980289 2.834710 0
5.790322 2.930225 0
5.357564 2.806968 0
4.611470 2.432904 0
3.437039 1.789381 0
1.337202 0.699193 0
-0.000000 0.000000 0
-0.001282 0.000000 0
0.000000 0.000000 0
0.000000 0.000000 0
0.000000 0.000000 0
0.000000 0.000000 0
0.000000 0.000000 0
0.000000 0.000000 0
0.000000 0.000000 0
0.000000 0.000000 0
0.000000 0.000000 0
0.000000 0.000000 0
0.000000 0.000000 0
0.000000 0.000000 0
0.000000 0.000000 0
0.000000 0.000000 0
0.000000 0.000000 0
0.000000 0.000000 0
0.000000 0.000000 0
0.000000 0.000000 0
0.000000 0.000000 0
0.000000 0.000000 0
0.225139 -0.095071 0
0.751020 -0.355765 0
1.380042 -0.707675 0
1.940862 -1.088949 0
2.380049 -1.483404 0
2.678908 -1.889239 0
2.838646 -2.323980 0
2.877923 -2.837536 0
2.824685 -3.570688 0
2.796747 -5.009449 0
1.634816 -3.000118 0
0.000001 0.000000 0
0.000001 0.000000 0
0.000001 0.000000 0
0.000001 0.000000 0
0.000001 0.000000 0
0.000001 0.000000 0
0.000001 0.000000 0
0.000001 0.000000 0
0.000001 0.000000 0
0.000001 0.000000 0
0.000001 0.000000 0
0.000001 0.000000 0
0.000001 0.000000 0
0.000001 0.000000 0
0.000001 0.000000 0
0.000001 0.000000 0
0.000001 0.000000 0
0.000001 0.000000 0
0.000001 0.000000 0
0.000001 0.000000 0
0.000001 0.000000 0
0.000001 0.000000 0
0.000001 0.000000 0
0.000001 0.000000 0
0.000001 0.000000 0
0.000001 0.000000 0
0.000001 0.000000 0
0.000001 0.000000 0
0.000001 0.000000 0
0.000001 0.000000 0
0.000001 0.000000 0
0.000001 0.000000 0
0.000001 0.000000 0
0.000001 0.000000 0
0.000001 0.000000 0
0.000001 0.000000 0
0.000001 0.000000 0
0.000001 0.000000 0
0.000001 0.000000 0
2.077905 0.522349 0
3.746477 1.342635 0
4.737578 1.921833 0
5.377391 2.432353 0
5.722575 2.814296 0
5.800589 3.023821 0
5.623506 3.027581 0
5.176658 2.806507 0
4.419871 2.362033 0
3.274611 1.705225 0
1.283475 0.662451 0
-0.000000 0.000000 0
-0.002115 0.000000 0
0.000000 0.000000 0
0.000000 0.000000 0
0.000000 0.000000 0
0.000000 0.000000 0
0.000000 0.000000 0
0.000000 0.000000 0
0.000000 0.000000 0
0.000000 0.000000 0
0.000000 0.000000 0
0.000000 0.000000 0
0.000000 0.000000 0
0.000000 0.000000 0
0.000000 0.000000 0
0.000000 0.000000 0
0.000000 0.000000 0
0.000000 0.000000 0
0.000000 0.000000 0
0.000000 0.000000 0
0.308911 -0.109486 0
0.897226 -0.368327 0
1.541364 -0.672754 0
2.095910 -0.986198 0
2.519422 -1.304787 0
2.796807 -1.627531 0
2.926742 -1.961019 0
2.918588 -2.328995 0
2.784939 -2.782925 0
2.522125 -3.449200 0
2.017646 -4.378421 0
0.037588 -0.000001 0
-0.073601 2.449140 0
0.383957 0.000000 0
0.310140 0.000000 0
0.237498 0.000000 0
0.185067 0.000000 0
0.099327 0.000000 0
-0.006453 0.000000 0
-0.116571 0.000000 0
-0.219523 0.000000 0
-0.310001 0.000000 0
-0.385478 0.000000 0
-0.445622 0.000000 0
-0.491634 0.000000 0
-0.525605 0.000000 0
-0.549975 0.000000 0
-0.567134 0.000000 0
-0.579179 0.000000 0
-0.587798 0.000000 0
-0.594256 0.000000 0
-0.599442 0.000000 0
-0.603950 0.000000 0
-0.608158 0.000000 0
-0.612311 0.000000 0
-0.616578 0.000000 0
-0.621108 0.000000 0
-0.626067 0.000000 0
-0.631685 0.000000 0
-0.638289 0.000000 0
-0.646359 0.000000 0
-0.656597 0.000000 0
-0.670028 0.000000 0
-0.688164 0.000000 0
-0.713245 0.000000 0
-0.748652 0.000000 0
-0.799583 0.000000 0
-0.874408 0.000000 0
-0.986597 0.000000 0
-1.164908 0.000000 0
-1.451796 0.132218 0
0.000000 -0.000004 0
1.709143 0.340422 0
3.310364 1.350263 0
4.416171 2.075345 0
5.133689 2.625051 0
5.513264 2.979306 0
5.599635 3.116073 0
5.418170 3.029205 0
4.969370 2.731687 0
4.233921 2.254342 0
3.154487 1.623646 0
1.267203 0.635878 0
-0.000000 0.000000 0
-0.003834 0.000000 0
0.000000 0.000000 0
0.000000 0.000000 0
0.000000 0.000000 0
0.000000 0.000000 0
0.000000 0.000000 0
0.000000 0.000000 0
0.000000 0.000000 0
0.000000 0.000000 0
0.000000 0.000000 0
0.000000 0.000000 0
0.000000 0.000000 0
0.000000 0.000000 0
0.000000 0.000000 0
0.000000 0.000000 0
0.000000 0.000000 0
0.000000 0.000000 0
0.482534 -0.150459 0
1.207434 -0.439868 0