# vtk DataFile Version 2.0
generated by CFD-lab course output (written by Tobias Neckel) 
ASCII

DATASET STRUCTURED_GRID
DIMENSIONS  82 60 1 
POINTS 4920 float

-1.500000 -0.500000 0
-1.402439 -0.500000 0
-1.304878 -0.500000 0
-1.207317 -0.500000 0
-1.109756 -0.500000 0
-1.012195 -0.500000 0
-0.914634 -0.500000 0
-0.817073 -0.500000 0
-0.719512 -0.500000 0
-0.621951 -0.500000 0
-0.524390 -0.500000 0
-0.426829 -0.500000 0
-0.329268 -0.500000 0
-0.231707 -0.500000 0
-0.134146 -0.500000 0
-0.036585 -0.500000 0
0.060976 -0.500000 0
0.158537 -0.500000 0
0.256098 -0.500000 0
0.353659 -0.500000 0
0.451220 -0.500000 0
0.548780 -0.500000 0
0.646341 -0.500000 0
0.743902 -0.500000 0
0.841463 -0.500000 0
0.939024 -0.500000 0
1.036585 -0.500000 0
1.134146 -0.500000 0
1.231707 -0.500000 0
1.329268 -0.500000 0
1.426829 -0.500000 0
1.524390 -0.500000 0
1.621951 -0.500000 0
1.719512 -0.500000 0
1.817073 -0.500000 0
1.914634 -0.500000 0
2.012195 -0.500000 0
2.109756 -0.500000 0
2.207317 -0.500000 0
2.304878 -0.500000 0
2.402439 -0.500000 0
2.500000 -0.500000 0
2.597561 -0.500000 0
2.695122 -0.500000 0
2.792683 -0.500000 0
2.890244 -0.500000 0
2.987805 -0.500000 0
3.085366 -0.500000 0
3.182927 -0.500000 0
3.280488 -0.500000 0
3.378049 -0.500000 0
3.475610 -0.500000 0
3.573171 -0.500000 0
3.670732 -0.500000 0
3.768293 -0.500000 0
3.865854 -0.500000 0
3.963415 -0.500000 0
4.060976 -0.500000 0
4.158537 -0.500000 0
4.256098 -0.500000 0
4.353659 -0.500000 0
4.451220 -0.500000 0
4.548780 -0.500000 0
4.646341 -0.500000 0
4.743902 -0.500000 0
4.841463 -0.500000 0
4.939024 -0.500000 0
5.036585 -0.500000 0
5.134146 -0.500000 0
5.231707 -0.500000 0
5.329268 -0.500000 0
5.426829 -0.500000 0
5.524390 -0.500000 0
5.621951 -0.500000 0
5.719512 -0.500000 0
5.817073 -0.500000 0
5.914634 -0.500000 0
6.012195 -0.500000 0
6.109756 -0.500000 0
6.207317 -0.500000 0
6.304878 -0.500000 0
6.402439 -0.500000 0
-1.500000 -0.451667 0
-1.402439 -0.451667 0
-1.304878 -0.451667 0
-1.207317 -0.451667 0
-1.109756 -0.451667 0
-1.012195 -0.451667 0
-0.914634 -0.451667 0
-0.817073 -0.451667 0
-0.719512 -0.451667 0
-0.621951 -0.451667 0
-0.524390 -0.451667 0
-0.426829 -0.451667 0
-0.329268 -0.451667 0
-0.231707 -0.451667 0
-0.134146 -0.451667 0
-0.036585 -0.451667 0
0.060976 -0.451667 0
0.158537 -0.451667 0
0.256098 -0.451667 0
0.353659 -0.451667 0
0.451220 -0.451667 0
0.548780 -0.451667 0
0.646341 -0.451667 0
0.743902 -0.451667 0
0.841463 -0.451667 0
0.939024 -0.451667 0
1.036585 -0.451667 0
1.134146 -0.451667 0
1.231707 -0.451667 0
1.329268 -0.451667 0
1.426829 -0.451667 0
1.524390 -0.451667 0
1.621951 -0.451667 0
1.719512 -0.451667 0
1.817073 -0.451667 0
1.914634 -0.451667 0
2.012195 -0.451667 0
2.109756 -0.451667 0
2.207317 -0.451667 0
2.304878 -0.451667 0
2.402439 -0.451667 0
2.500000 -0.451667 0
2.597561 -0.451667 0
2.695122 -0.451667 0
2.792683 -0.451667 0
2.890244 -0.451667 0
2.987805 -0.451667 0
3.085366 -0.451667 0
3.182927 -0.451667 0
3.280488 -0.451667 0
3.378049 -0.451667 0
3.475610 -0.451667 0
3.573171 -0.451667 0
3.670732 -0.451667 0
3.768293 -0.451667 0
3.865854 -0.451667 0
3.963415 -0.451667 0
4.060976 -0.451667 0
4.158537 -0.451667 0
4.256098 -0.451667 0
4.353659 -0.451667 0
4.451220 -0.451667 0
4.548780 -0.451667 0
4.646341 -0.451667 0
4.743902 -0.451667 0
4.841463 -0.451667 0
4.939024 -0.451667 0
5.036585 -0.451667 0
5.134146 -0.451667 0
5.231707 -0.451667 0
5.329268 -0.451667 0
5.426829 -0.451667 0
5.524390 -0.451667 0
5.621951 -0.451667 0
5.719512 -0.451667 0
5.817073 -0.451667 0
5.914634 -0.451667 0
6.012195 -0.451667 0
6.109756 -0.451667 0
6.207317 -0.451667 0
6.304878 -0.451667 0
6.402439 -0.451667 0
-1.500000 -0.403333 0
-1.402439 -0.403333 0
-1.304878 -0.403333 0
-1.207317 -0.403333 0
-1.109756 -0.403333 0
-1.012195 -0.403333 0
-0.914634 -0.403333 0
-0.817073 -0.403333 0
-0.719512 -0.403333 0
-0.621951 -0.403333 0
-0.524390 -0.403333 0
-0.426829 -0.403333 0
-0.329268 -0.403333 0
-0.231707 -0.403333 0
-0.134146 -0.403333 0
-0.036585 -0.403333 0
0.060976 -0.403333 0
0.158537 -0.403333 0
0.256098 -0.403333 0
0.353659 -0.403333 0
0.451220 -0.403333 0
0.548780 -0.403333 0
0.646341 -0.403333 0
0.743902 -0.403333 0
0.841463 -0.403333 0
0.939024 -0.403333 0
1.036585 -0.403333 0
1.134146 -0.403333 0
1.231707 -0.403333 0
1.329268 -0.403333 0
1.426829 -0.403333 0
1.524390 -0.403333 0
1.621951 -0.403333 0
1.719512 -0.403333 0
1.817073 -0.403333 0
1.914634 -0.403333 0
2.012195 -0.403333 0
2.109756 -0.403333 0
2.207317 -0.403333 0
2.304878 -0.403333 0
2.402439 -0.403333 0
2.500000 -0.403333 0
2.597561 -0.403333 0
2.695122 -0.403333 0
2.792683 -0.403333 0
2.890244 -0.403333 0
2.987805 -0.403333 0
3.085366 -0.403333 0
3.182927 -0.403333 0
3.280488 -0.403333 0
3.378049 -0.403333 0
3.475610 -0.403333 0
3.573171 -0.403333 0
3.670732 -0.403333 0
3.768293 -0.403333 0
3.865854 -0.403333 0
3.963415 -0.403333 0
4.060976 -0.403333 0
4.158537 -0.403333 0
4.256098 -0.403333 0
4.353659 -0.403333 0
4.451220 -0.403333 0
4.548780 -0.403333 0
4.646341 -0.403333 0
4.743902 -0.403333 0
4.841463 -0.403333 0
4.939024 -0.403333 0
5.036585 -0.403333 0
5.134146 -0.403333 0
5.231707 -0.403333 0
5.329268 -0.403333 0
5.426829 -0.403333 0
5.524390 -0.403333 0
5.621951 -0.403333 0
5.719512 -0.403333 0
5.817073 -0.403333 0
5.914634 -0.403333 0
6.012195 -0.403333 0
6.109756 -0.403333 0
6.207317 -0.403333 0
6.304878 -0.403333 0
6.402439 -0.403333 0
-1.500000 -0.355000 0
-1.402439 -0.355000 0
-1.304878 -0.355000 0
-1.207317 -0.355000 0
-1.109756 -0.355000 0
-1.012195 -0.355000 0
-0.914634 -0.355000 0
-0.817073 -0.355000 0
-0.719512 -0.355000 0
-0.621951 -0.355000 0
-0.524390 -0.355000 0
-0.426829 -0.355000 0
-0.329268 -0.355000 0
-0.231707 -0.355000 0
-0.134146 -0.355000 0
-0.036585 -0.355000 0
0.060976 -0.355000 0
0.158537 -0.355000 0
0.256098 -0.355000 0
0.353659 -0.355000 0
0.451220 -0.355000 0
0.548780 -0.355000 0
0.646341 -0.355000 0
0.743902 -0.355000 0
0.841463 -0.355000 0
0.939024 -0.355000 0
1.036585 -0.355000 0
1.134146 -0.355000 0
1.231707 -0.355000 0
1.329268 -0.355000 0
1.426829 -0.355000 0
1.524390 -0.355000 0
1.621951 -0.355000 0
1.719512 -0.355000 0
1.817073 -0.355000 0
1.914634 -0.355000 0
2.012195 -0.355000 0
2.109756 -0.355000 0
2.207317 -0.355000 0
2.304878 -0.355000 0
2.402439 -0.355000 0
2.500000 -0.355000 0
2.597561 -0.355000 0
2.695122 -0.355000 0
2.792683 -0.355000 0
2.890244 -0.355000 0
2.987805 -0.355000 0
3.085366 -0.355000 0
3.182927 -0.355000 0
3.280488 -0.355000 0
3.378049 -0.355000 0
3.475610 -0.355000 0
3.573171 -0.355000 0
3.670732 -0.355000 0
3.768293 -0.355000 0
3.865854 -0.355000 0
3.963415 -0.355000 0
4.060976 -0.355000 0
4.158537 -0.355000 0
4.256098 -0.355000 0
4.353659 -0.355000 0
4.451220 -0.355000 0
4.548780 -0.355000 0
4.646341 -0.355000 0
4.743902 -0.355000 0
4.841463 -0.355000 0
4.939024 -0.355000 0
5.036585 -0.355000 0
5.134146 -0.355000 0
5.231707 -0.355000 0
5.329268 -0.355000 0
5.426829 -0.355000 0
5.524390 -0.355000 0
5.621951 -0.355000 0
5.719512 -0.355000 0
5.817073 -0.355000 0
5.914634 -0.355000 0
6.012195 -0.355000 0
6.109756 -0.355000 0
6.207317 -0.355000 0
6.304878 -0.355000 0
6.402439 -0.355000 0
-1.500000 -0.306667 0
-1.402439 -0.306667 0
-1.304878 -0.306667 0
-1.207317 -0.306667 0
-1.109756 -0.306667 0
-1.012195 -0.306667 0
-0.914634 -0.306667 0
-0.817073 -0.306667 0
-0.719512 -0.306667 0
-0.621951 -0.306667 0
-0.524390 -0.306667 0
-0.426829 -0.306667 0
-0.329268 -0.306667 0
-0.231707 -0.306667 0
-0.134146 -0.306667 0
-0.036585 -0.306667 0
0.060976 -0.306667 0
0.158537 -0.306667 0
0.256098 -0.306667 0
0.353659 -0.306667 0
0.451220 -0.306667 0
0.548780 -0.306667 0
0.646341 -0.306667 0
0.743902 -0.306667 0
0.841463 -0.306667 0
0.939024 -0.306667 0
1.036585 -0.306667 0
1.134146 -0.306667 0
1.231707 -0.306667 0
1.329268 -0.306667 0
1.426829 -0.306667 0
1.524390 -0.306667 0
1.621951 -0.306667 0
1.719512 -0.306667 0
1.817073 -0.306667 0
1.914634 -0.306667 0
2.012195 -0.306667 0
2.109756 -0.306667 0
2.207317 -0.306667 0
2.304878 -0.306667 0
2.402439 -0.306667 0
2.500000 -0.306667 0
2.597561 -0.306667 0
2.695122 -0.306667 0
2.792683 -0.306667 0
2.890244 -0.306667 0
2.987805 -0.306667 0
3.085366 -0.306667 0
3.182927 -0.306667 0
3.280488 -0.306667 0
3.378049 -0.306667 0
3.475610 -0.306667 0
3.573171 -0.306667 0
3.670732 -0.306667 0
3.768293 -0.306667 0
3.865854 -0.306667 0
3.963415 -0.306667 0
4.060976 -0.306667 0
4.158537 -0.306667 0
4.256098 -0.306667 0
4.353659 -0.306667 0
4.451220 -0.306667 0
4.548780 -0.306667 0
4.646341 -0.306667 0
4.743902 -0.306667 0
4.841463 -0.306667 0
4.939024 -0.306667 0
5.036585 -0.306667 0
5.134146 -0.306667 0
5.231707 -0.306667 0
5.329268 -0.306667 0
5.426829 -0.306667 0
5.524390 -0.306667 0
5.621951 -0.306667 0
5.719512 -0.306667 0
5.817073 -0.306667 0
5.914634 -0.306667 0
6.012195 -0.306667 0
6.109756 -0.306667 0
6.207317 -0.306667 0
6.304878 -0.306667 0
6.402439 -0.306667 0
-1.500000 -0.258333 0
-1.402439 -0.258333 0
-1.304878 -0.258333 0
-1.207317 -0.258333 0
-1.109756 -0.258333 0
-1.012195 -0.258333 0
-0.914634 -0.258333 0
-0.817073 -0.258333 0
-0.719512 -0.258333 0
-0.621951 -0.258333 0
-0.524390 -0.258333 0
-0.426829 -0.258333 0
-0.329268 -0.258333 0
-0.231707 -0.258333 0
-0.134146 -0.258333 0
-0.036585 -0.258333 0
0.060976 -0.258333 0
0.158537 -0.258333 0
0.256098 -0.258333 0
0.353659 -0.258333 0
0.451220 -0.258333 0
0.548780 -0.258333 0
0.646341 -0.258333 0
0.743902 -0.258333 0
0.841463 -0.258333 0
0.939024 -0.258333 0
1.036585 -0.258333 0
1.134146 -0.258333 0
1.231707 -0.258333 0
1.329268 -0.258333 0
1.426829 -0.258333 0
1.524390 -0.258333 0
1.621951 -0.258333 0
1.719512 -0.258333 0
1.817073 -0.258333 0
1.914634 -0.258333 0
2.012195 -0.258333 0
2.109756 -0.258333 0
2.207317 -0.258333 0
2.304878 -0.258333 0
2.402439 -0.258333 0
2.500000 -0.258333 0
2.597561 -0.258333 0
2.695122 -0.258333 0
2.792683 -0.258333 0
2.890244 -0.258333 0
2.987805 -0.258333 0
3.085366 -0.258333 0
3.182927 -0.258333 0
3.280488 -0.258333 0
3.378049 -0.258333 0
3.475610 -0.258333 0
3.573171 -0.258333 0
[...]
POINT_DATA 4920 

VECTORS velocity float
0.000000 0.000000 0
0.000000 0.000000 0
0.000000 0.000000 0
0.000000 0.000000 0
0.000000 0.000000 0
0.000000 0.000000 0
0.000000 0.000000 0
0.000000 0.000000 0
0.000000 0.000000 0
0.000000 0.000000 0
0.000000 0.000000 0
0.000000 0.000000 0
0.000000 0.000000 0
0.000000 0.000000 0
0.000000 0.000000 0
0.000000 0.000000 0
-0.000000 0.000000 0
-0.000000 0.000000 0
-0.000000 0.000000 0
-0.000000 0.000000 0
0.000000 0.000000 0
0.000000 0.000000 0
0.000000 0.000000 0
0.000000 0.000000 0
0.000000 0.000000 0
0.000000 0.000000 0
0.000000 0.000000 0
0.000000 0.000000 0
0.000000 0.000000 0
0.000000 0.000000 0
0.000000 0.000000 0
0.000000 0.000000 0
0.000000 0.000000 0
0.000000 0.000000 0
0.000000 0.000000 0
0.000000 0.000000 0
0.000000 0.000000 0
0.000000 0.000000 0
0.000000 0.000000 0
0.000000 0.000000 0
0.000000 0.000000 0
0.000000 0.000000 0
0.000000 0.000000 0
0.000000 0.000000 0
0.000000 0.000000 0
0.000000 0.000000 0
0.000000 0.000000 0
0.000000 0.000000 0
0.000000 0.000000 0
0.000000 0.000000 0
0.000000 0.000000 0
0.000000 0.000000 0
0.000000 0.000000 0
0.000000 0.000000 0
0.000000 0.000000 0
-0.000000 0.000000 0
0.000000 0.000000 0
0.001918 0.000000 0
0.000000 0.000000 0
0.000000 0.000000 0
0.000000 0.000000 0
0.000000 0.000000 0
0.000000 0.000000 0
0.000000 0.000000 0
0.000000 0.000000 0
0.000000 0.000000 0
0.000000 0.000000 0
0.000000 0.000000 0
0.000000 0.000000 0
0.000000 0.000000 0
0.000000 0.000000 0
0.000000 0.000000 0
0.000000 0.000000 0
0.000000 0.000000 0
0.000000 0.000000 0
0.000000 0.000000 0
0.000000 0.000000 0
0.000000 0.000000 0
0.000000 0.000000 0
0.000000 0.000000 0
0.000000 0.000000 0
0.000000 0.000000 0
0.000000 0.000000 0
0.000000 0.000000 0
0.000000 0.000000 0
0.000000 0.000000 0
0.000000 0.000000 0
0.000000 0.000000 0
0.000000 0.000000 0
0.000000 0.000000 0
0.000000 0.000000 0
0.000000 0.000000 0
0.000000 0.000000 0
0.000000 0.000000 0
0.000000 0.000000 0
0.000000 0.000000 0
1.046340 -0.422508 0
2.518185 -0.738174 0
3.779617 -0.505120 0
4.622605 -0.265389 0
5.056052 -0.070116 0
5.167013 0.061933 0
5.063123 0.139739 0
4.829635 0.177747 0
4.530683 0.186517 0
4.213154 0.175020 0
3.909344 0.151131 0
3.639038 0.121590 0
3.411677 0.091700 0
3.228848 0.065045 0
3.086956 0.043469 0
2.979677 0.027382 0
2.899866 0.016248 0
2.840779 0.009087 0
2.796686 0.004846 0
2.763064 0.002597 0
2.736519 0.001620 0
2.714617 0.001399 0
2.695664 0.001594 0
2.678502 0.001996 0
2.662338 0.002493 0
2.646597 0.003043 0
2.630804 0.003654 0
2.614488 0.004369 0
2.597092 0.005267 0
2.577888 0.006459 0
2.555876 0.008094 0
2.529666 0.010375 0
2.497321 0.013567 0
2.456151 0.018020 0
2.402453 0.024184 0
2.331175 0.032602 0
2.235554 0.043878 0
2.106760 0.058493 0
1.933947 0.076509 0
1.704692 0.096432 0
1.409160 0.115112 0
1.038483 0.130655 0
0.616500 0.068805 0
0.000000 0.000000 0
-0.001568 0.000000 0
0.000000 0.000000 0
0.000000 0.000000 0
0.000000 0.000000 0
0.000000 0.000000 0
0.000000 0.000000 0
0.000000 0.000000 0
0.000000 0.000000 0
0.000000 0.000000 0
0.000000 0.000000 0
0.000000 0.000000 0
0.000000 0.000000 0
0.000000 0.000000 0
0.000000 0.000000 0
0.000000 0.000000 0
0.000000 0.000000 0
0.000000 0.000000 0
0.000000 0.000000 0
0.000000 0.000000 0
0.000000 0.000000 0
0.000000 0.000000 0
0.000000 0.000000 0
0.000000 0.000000 0
0.000000 0.000000 0
0.000000 0.000000 0
0.000000 0.000000 0
0.000000 0.000000 0
0.000000 0.000000 0
0.000000 0.000000 0
0.000000 0.000000 0
0.000000 0.000000 0
0.000000 0.000000 0
0.000000 0.000000 0
0.000000 0.000000 0
0.000000 0.000000 0
0.000000 0.000000 0
0.000000 0.000000 0
1.159543 -0.516968 0
2.653618 -1.245938 0
3.828419 -1.353904 0
5.002351 -1.042565 0
5.863717 -0.632367 0
6.390768 -0.269709 0
6.646917 -0.003503 0
6.706662 0.167142 0
6.638135 0.263780 0
6.490848 0.305415 0
6.300981 0.307822 0
6.094594 0.284427 0
5.889806 0.246553 0
5.698401 0.203215 0
5.527117 0.160872 0
5.378798 0.123443 0
5.253455 0.092687 0
5.149249 0.068813 0
5.063337 0.051117 0
4.992532 0.038501 0
4.933756 0.029808 0
4.884286 0.024001 0
4.841865 0.020240 0
4.804691 0.017892 0
4.771366 0.016510 0
4.740803 0.015806 0
4.712131 0.015623 0
4.684602 0.015907 0
4.657500 0.016702 0
4.630047 0.018132 0
4.601306 0.020419 0
4.570067 0.023890 0
4.534698 0.029009 0
4.492962 0.036421 0
4.441758 0.046999 0
4.376768 0.061915 0
4.291992 0.082685 0
4.179104 0.111179 0
4.026661 0.149421 0
3.819173 0.199191 0
3.536470 0.259988 0
3.154293 0.330051 0
2.646947 0.392188 0
2.014519 0.512173 0
1.050535 0.303624 0
0.000000 0.000000 0
-0.004724 0.000000 0
0.000000 0.000000 0
0.000000 0.000000 0
0.000000 0.000000 0
0.000000 0.000000 0
0.000000 0.000000 0
0.000000 0.000000 0
0.000000 0.000000 0
0.000000 0.000000 0
0.000000 0.000000 0
0.000000 0.000000 0
0.000000 0.000000 0
0.000000 0.000000 0
0.000000 0.000000 0
0.000000 0.000000 0
0.000000 0.000000 0
0.000000 0.000000 0
0.000000 0.000000 0
0.000000 0.000000 0
0.000000 0.000000 0
0.000000 0.000000 0
0.000000 0.000000 0
0.000000 0.000000 0
0.000000 0.000000 0
0.000000 0.000000 0
0.000000 0.000000 0
0.000000 0.000000 0
0.000000 0.000000 0
0.000000 0.000000 0
0.000000 0.000000 0
0.000000 0.000000 0
0.000000 0.000000 0
0.000000 0.000000 0
0.000000 0.000000 0
0.000000 0.000000 0
0.936032 -0.582501 0
2.634429 -1.321285 0
3.462128 -1.743308 0
4.644742 -1.901775 0
5.708094 -1.513441 0
6.431176 -0.953233 0
6.856024 -0.458126 0
7.079225 -0.094566 0
7.167347 0.144089 0
7.169215 0.284665 0
7.118024 0.353549 0
7.035999 0.371331 0
6.938005 0.354834 0
6.834139 0.317871 0
6.731364 0.271383 0
6.634372 0.223381 0
6.546014 0.179046 0
6.467604 0.141104 0
6.399245 0.110436 0
6.340203 0.086727 0
6.289277 0.069043 0
6.245096 0.056224 0
6.206333 0.047144 0
6.171813 0.040832 0
6.140553 0.036520 0
6.111761 0.033647 0
6.084793 0.031840 0
6.059111 0.030886 0
6.034226 0.030719 0
6.009641 0.031397 0
5.984787 0.033106 0
5.958957 0.036174 0
5.931208 0.041093 0
5.900253 0.048573 0
5.864294 0.059611 0
5.820805 0.075585 0
5.766197 0.098380 0
5.695356 0.130528 0
5.600932 0.175327 0
5.472308 0.236809 0
5.293965 0.319357 0
5.043791 0.425824 0
4.689935 0.555796 0
4.199861 0.695318 0
3.529980 0.855960 0
2.831259 0.996683 0
1.342970 0.522844 0
-0.000000 0.000000 0
-0.005816 0.000000 0
0.000000 0.000000 0
0.000000 0.000000 0
0.000000 0.000000 0
0.000000 0.000000 0
0.000000 0.000000 0
0.000000 0.000000 0
0.000000 0.000000 0
0.000000 0.000000 0
0.000000 0.000000 0
0.000000 0.000000 0
0.000000 0.000000 0
0.000000 0.000000 0
0.000000 0.000000 0
0.000000 0.000000 0
0.000000 0.000000 0
0.000000 0.000000 0
0.000000 0.000000 0
0.000000 0.000000 0
0.000000 0.000000 0
0.000000 0.000000 0
0.000000 0.000000 0
0.000000 0.000000 0
0.000000 0.000000 0
0.000000 0.000000 0
0.000000 0.000000 0
0.000000 0.000000 0
0.000000 0.000000 0
0.000000 0.000000 0
0.000000 0.000000 0
0.000000 0.000000 0
0.000000 0.000000 0
0.000000 0.000000 0
0.738322 -0.467347 0
2.144227 -1.316805 0
3.090112 -1.776483 0
3.864564 -2.241881 0
5.207524 -2.466593 0
6.163052 -1.927594 0
6.688481 -1.201071 0
6.946263 -0.590763 0
7.064926 -0.157738 0
7.111455 0.122560 0
7.115469 0.288215 0
7.097327 0.371412 0
7.068464 0.397007 0
7.034614 0.384432 0
6.998546 0.348926 0
6.961875 0.302183 0
6.925879 0.252698 0
6.891668 0.206063 0
6.860086 0.165399 0
6.831608 0.131929 0
6.806328 0.105597 0
6.784043 0.085619 0
6.764366 0.070899 0
6.746836 0.060307 0
6.730998 0.052829 0
6.716445 0.047643 0
6.702832 0.044135 0
6.689871 0.041890 0
6.677317 0.040674 0
6.664938 0.040416 0
6.652494 0.041194 0
6.639699 0.043242 0
6.626178 0.046963 0
6.611421 0.052973 0
6.594703 0.062159 0
6.574987 0.075780 0
6.550764 0.095599 0
6.519817 0.124065 0
6.478844 0.164560 0
6.422821 0.221681 0
6.343936 0.301497 0
6.229578 0.411486 0
6.059331 0.559235 0
5.799460 0.748148 0
5.406581 0.966849 0
4.837558 1.190201 0
4.167486 1.389324 0
3.377484 1.409956 0
1.500827 0.670414 0
-0.000000 0.000000 0
-0.005271 0.000000 0
0.000000 0.000000 0
0.000000 0.000000 0
0.000000 0.000000 0
0.000000 0.000000 0
0.000000 0.000000 0
0.000000 0.000000 0
0.000000 0.000000 0
0.000000 0.000000 0
0.000000 0.000000 0
0.000000 0.000000 0
0.000000 0.000000 0
0.000000 0.000000 0
0.000000 0.000000 0
0.000000 0.000000 0
0.000000 0.000000 0
0.000000 0.000000 0
0.000000 0.000000 0
0.000000 0.000000 0
0.000000 0.000000 0
0.000000 0.000000 0
0.000000 0.000000 0
0.000000 0.000000 0
0.000000 0.000000 0
0.000000 0.000000 0
0.000000 0.000000 0
0.000000 0.000000 0
0.000000 0.000000 0
0.000000 0.000000 0
0.000000 0.000000 0
0.000000 0.000000 0
0.536117 -0.369248 0
1.698414 -1.069378 0
2.545057 -1.751238 0
3.300496 -2.173569 0
4.126325 -2.792309 0
5.618787 -3.040484 0
6.351747 -2.247132 0
6.584408 -1.341249 0
6.617852 -0.644623 0
6.605669 -0.176405 0
6.590909 0.119050 0
6.580847 0.291664 0
6.579601 0.376836 0
6.586559 0.402400 0
6.598810 0.389472 0
6.612931 0.353907 0
6.626250 0.307383 0
6.637294 0.258163 0
6.645656 0.211641 0
6.651615 0.170859 0
6.655749 0.137068 0
6.658665 0.110292 0
6.660856 0.089832 0
6.662670 0.074657 0
6.664316 0.063675 0
6.665907 0.055888 0
6.667492 0.050474 0
6.669080 0.046812 0
6.670662 0.044480 0
6.672219 0.043239 0
6.673729 0.043016 0
6.675168 0.043901 0
6.676505 0.046144 0
6.677699 0.050183 0
6.678687 0.056686 0
6.679367 0.066623 0
6.679564 0.081379 0
6.678969 0.102917 0
6.677034 0.134011 0
6.672753 0.178581 0
6.664231 0.242163 0
6.647791 0.332545 0
6.615950 0.460355 0
6.553329 0.638912 0
6.428133 0.879179 0
6.183977 1.171860 0
5.772188 1.469828 0
5.221269 1.720028 0
4.581447 1.852153 0
3.670732 1.686604 0
1.556395 0.748676 0
-0.000000 0.000000 0
-0.003979 0.000000 0
0.000000 0.000000 0
0.000000 0.000000 0
0.000000 0.000000 0
0.000000 0.000000 0
0.000000 0.000000 0
0.000000 0.000000 0
0.000000 0.000000 0
0.000000 0.000000 0
0.000000 0.000000 0
0.000000 0.000000 0
0.000000 0.000000 0
0.000000 0.000000 0
0.000000 0.000000 0
0.000000 0.000000 0
0.000000 0.000000 0
0.000000 0.000000 0
0.000000 0.000000 0
0.000000 0.000000 0
0.000000 0.000000 0
0.000000 0.000000 0
0.000000 0.000000 0
0.000000 0.000000 0
0.000000 0.000000 0
0.000000 0.000000 0
0.000000 0.000000 0
0.000000 0.000000 0
0.000000 0.000000 0
0.000000 0.000000 0
0.376418 -0.266931 0
1.297191 -0.846224 0
2.061282 -1.466081 0
2.754188 -2.110504 0
3.394756 -2.559869 0
4.280741 -3.390401 0
5.830820 -3.569104 0
6.151483 -2.405979 0
5.981350 -1.332904 0
5.742566 -0.601296 0
5.590098 -0.144390 0
5.513990 0.134857 0
5.501011 0.293817 0
5.531313 0.368583 0
5.587079 0.387490 0
5.654811 0.371367 0
5.724793 0.335332 0
5.790852 0.290113 0
5.849739 0.243084 0
5.900358 0.198968 0
5.942993 0.160399 0
5.978661 0.128436 0
6.008637 0.103067 0
6.034175 0.083635 0
6.056358 0.069186 0
6.076060 0.058703 0
6.093949 0.051255 0
6.110524 0.046071 0
6.126148 0.042564 0
6.141097 0.040335 0
6.155587 0.039155 0
6.169814 0.038955 0
6.183977 0.039819 0
6.198311 0.041988 0
6.213115 0.045882 0
6.228787 0.052146 0
6.245861 0.061725 0
6.265057 0.075978 0
6.287328 0.096852 0
6.313905 0.127144 0
6.346309 0.170903 0
6.386218 0.234047 0
6.435019 0.325416 0
6.492235 0.458284 0
6.551134 0.652283 0
6.587089 0.931131 0
6.526319 1.291815 0
6.296868 1.667143 0
5.921816 1.979236 0
5.433154 2.178118 0
4.793468 2.179438 0
3.768229 1.832811 0
1.542561 0.774971 0
-0.000000 0.000000 0
-0.002623 0.000000 0
0.000000 0.000000 0
0.000000 0.000000 0
0.000000 0.000000 0
0.000000 0.000000 0
0.000000 0.000000 0
0.000000 0.000000 0
0.000000 0.000000 0
0.000000 0.000000 0
0.000000 0.000000 0
0.000000 0.000000 0
0.000000 0.000000 0
0.000000 0.000000 0
0.000000 0.000000 0
0.000000 0.000000 0
0.000000 0.000000 0
0.000000 0.000000 0
0.000000 0.000000 0
0.000000 0.000000 0
0.000000 0.000000 0
0.000000 0.000000 0
0.000000 0.000000 0
0.000000 0.000000 0
0.000000 0.000000 0
0.000000 0.000000 0
0.000000 0.000000 0
0.000000 0.000000 0
0.267929 -0.186432 0
0.995791 -0.643928 0
1.702301 -1.205288 0
2.319748 -1.791199 0
2.880519 -2.411864 0
3.395666 -2.929848 0
4.284325 -3.999175 0
5.743917 -3.967281 0
5.401441 -2.321707 0
4.738221 -1.138664 0
4.209518 -0.450790 0
3.920468 -0.063165 0
3.816731 0.163185 0
3.848160 0.283082 0
3.954099 0.334197 0
4.094047 0.341217 0
4.243941 0.321246 0
4.389185 0.286510 0
4.521816 0.245483 0
4.638304 0.203912 0
4.737997 0.165441 0
4.821980 0.132067 0
4.892234 0.104547 0
4.951048 0.082789 0
5.000657 0.066190 0
5.043051 0.053907 0
5.079897 0.045052 0
5.112536 0.038814 0
5.142020 0.034522 0
5.169165 0.031666 0
5.194610 0.029896 0
5.218880 0.029012 0
5.242442 0.028952 0
5.265765 0.029783 0
5.289378 0.031709 0
5.313935 0.035085 0
5.340298 0.040463 0
5.369629 0.048654 0
5.403523 0.060836 0
5.444170 0.078717 0
5.494573 0.104791 0
5.558811 0.142757 0
5.642330 0.198214 0
5.752139 0.280022 0
5.896523 0.402830 0
6.081255 0.591919 0
6.300763 0.891474 0
6.455548 1.315641 0
6.420153 1.769308 0
6.248074 2.147926 0
5.948433 2.411155 0
5.509893 2.511436 0
4.840803 2.368628 0
3.728572 1.878678 0
1.486478 0.766645 0
-0.000000 0.000000 0
-0.001609 0.000000 0
0.000000 0.000000 0
0.000000 0.000000 0
0.000000 0.000000 0
0.000000 0.000000 0
0.000000 0.000000 0
0.000000 0.000000 0
0.000000 0.000000 0
0.000000 0.000000 0
0.000000 0.000000 0
0.000000 0.000000 0
0.000000 0.000000 0
0.000000 0.000000 0
0.000000 0.000000 0
0.000000 0.000000 0
0.000000 0.000000 0
0.000000 0.000000 0
0.000000 0.000000 0
0.000000 0.000000 0
0.000000 0.000000 0
0.000000 0.000000 0
0.000000 0.000000 0
0.000000 0.000000 0
0.000000 0.000000 0
0.000000 0.000000 0
0.209212 -0.131844 0
0.805350 -0.492387 0
1.468408 -0.977491 0
2.052705 -1.502134 0
2.535244 -2.049790 0
2.939216 -2.643531 0
3.298170 -3.255339 0
4.068674 -4.553763 0
5.219133 -4.122542 0
3.916727 -1.907741 0
2.775212 -0.742405 0
2.002080 -0.196167 0
1.718845 0.050203 0
1.749519 0.170679 0
1.910063 0.225763 0
2.129391 0.246767 0
2.368728 0.243898 0
2.605057 0.225150 0
2.823727 0.197668 0
3.017420 0.166695 0
3.183614 0.135984 0
3.322865 0.107972 0
3.437579 0.083987 0
3.531104 0.064494 0
3.607080 0.049352 0
3.669011 0.038055 0
3.720020 0.029929 0
3.762743 0.024279 0
3.799312 0.020479 0
3.831395 0.018016 0
3.860278 0.016510 0
3.886951 0.015705 0
3.912202 0.015458 0
3.936715 0.015727 0
3.961153 0.016567 0
3.986255 0.018124 0
4.012936 0.020655 0
4.042401 0.024554 0
4.076303 0.030402 0
4.116940 0.039049 0
4.167534 0.051744 0
4.232615 0.070349 0
4.318568 0.097701 0
4.434434 0.138269 0
4.592912 0.199485 0
4.812651 0.295235 0
5.115536 0.452016 0
5.542262 0.745699 0
5.974228 1.232667 0
6.149206 1.769929 0
6.205827 2.212934 0
6.128895 2.543825 0
5.899375 2.728176 0
5.477012 2.715307 0
4.766078 2.443777 0
3.603002 1.855425 0
1.411011 0.737637 0
-0.000000 0.000000 0
-0.001124 0.000000 0
0.000000 0.000000 0
0.000000 0.000000 0
0.000000 0.000000 0
0.000000 0.000000 0
0.000000 0.000000 0
0.000000 0.000000 0
0.000000 0.000000 0
0.000000 0.000000 0
0.000000 0.000000 0
0.000000 0.000000 0
0.000000 0.000000 0
0.000000 0.000000 0
0.000000 0.000000 0
0.000000 0.000000 0
0.000000 0.000000 0
0.000000 0.000000 0
0.000000 0.000000 0
0.000000 0.000000 0
0.000000 0.000000 0
0.000000 0.000000 0
0.000000 0.000000 0
0.000000 0.000000 0
0.195309 -0.102284 0
0.724271 -0.396728 0
1.360377 -0.809365 0
1.928430 -1.261888 0
2.381556 -1.733817 0
2.709787 -2.230391 0
2.934991 -2.789830 0
3.101359 -3.489401 0
3.571488 -4.950853 0
4.021103 -3.892004 0
1.556718 -1.110948 0
0.421207 -0.190116 0
0.058171 0.072552 0
0.025242 0.061958 0
0.159506 0.068453 0
0.369759 0.094887 0
0.615209 0.106966 0
0.867859 0.105564 0
1.107518 0.095832 0
1.322324 0.082218 0
1.506510 0.067189 0
1.658800 0.052590 0
1.780995 0.039623 0
1.876742 0.028902 0
1.950524 0.020573 0
2.006924 0.014468 0
2.050141 0.010238 0
2.083738 0.007470 0
2.110553 0.005769 0
2.132745 0.004803 0
2.151889 0.004319 0
2.169111 0.004143 0
2.185216 0.004172 0
2.200812 0.004358 0
2.216417 0.004701 0
2.232557 0.005240 0
2.249857 0.006055 0
2.269141 0.007270 0
2.291550 0.009070 0
2.318704 0.011726 0
2.352917 0.015639 0
2.397525 0.021410 0
2.457363 0.029966 0
2.539525 0.042772 0
2.654574 0.062300 0
2.818622 0.092647 0
3.057235 0.143913 0
3.414554 0.230458 0
3.969630 0.466063 0
4.891961 1.014950 0
5.375613 1.654570 0
5.754638 2.157989 0
5.963839 2.562977 0
5.980646 2.834390 0
5.791016 2.930083 0
5.358538 2.807093 0
4.612600 2.433283 0
3.438108 1.789862 0
1.337674 0.699432 0
-0.000000 0.000000 0
-0.001289 0.000000 0
0.000000 0.000000 0
0.000000 0.000000 0
0.000000 0.000000 0
0.000000 0.000000 0
0.000000 0.000000 0
0.000000 0.000000 0
0.000000 0.000000 0
0.000000 0.000000 0
0.000000 0.000000 0
0.000000 0.000000 0
0.000000 0.000000 0
0.000000 0.000000 0
0.000000 0.000000 0
0.000000 0.000000 0
0.000000 0.000000 0
0.000000 0.000000 0
0.000000 0.000000 0
0.000000 0.000000 0
0.000000 0.000000 0
0.000000 0.000000 0
0.225137 -0.095070 0
0.751018 -0.355763 0
1.380043 -0.707675 0
1.940862 -1.088947 0
2.380046 -1.483400 0
2.678903 -1.889232 0
2.838639 -2.323970 0
2.877913 -2.837523 0
2.824672 -3.570670 0
2.796730 -5.009420 0
1.634799 -3.000099 0
0.000001 0.000000 0
0.000001 0.000000 0
0.000001 0.000000 0
0.000001 0.000000 0
0.000001 0.000000 0
0.000001 0.000000 0
0.000001 0.000000 0
0.000000 0.000000 0
0.000000 0.000000 0
0.000000 0.000000 0
0.000000 0.000000 0
0.000000 0.000000 0
0.000000 0.000000 0
0.000000 0.000000 0
0.000000 0.000000 0
0.000000 0.000000 0
0.000000 0.000000 0
0.000000 0.000000 0
0.000000 0.000000 0
0.000000 0.000000 0
0.000000 0.000000 0
0.000000 0.000000 0
0.000000 0.000000 0
0.000000 0.000000 0
0.000000 0.000000 0
0.000000 0.000000 0
0.000000 0.000000 0
0.000000 0.000000 0
0.000000 0.000000 0
0.000000 0.000000 0
0.000000 0.000000 0
0.000000 0.000000 0
0.000000 0.000000 0
0.000000 0.000000 0
0.000001 0.000000 0
0.000001 0.000000 0
0.000001 0.000000 0
0.000001 0.000000 0
0.000001 0.000000 0
2.077833 0.522352 0
3.746141 1.342544 0
4.737208 1.921517 0
5.377258 2.431857 0
5.722840 2.813795 0
5.801270 3.023509 0
5.624530 3.027583 0
5.177893 2.806838 0
4.421137 2.362580 0
3.275665 1.705768 0
1.283870 0.662688 0
-0.000000 0.000000 0
-0.002122 0.000000 0
0.000000 0.000000 0
0.000000 0.000000 0
0.000000 0.000000 0
0.000000 0.000000 0
0.000000 0.000000 0
0.000000 0.000000 0
0.000000 0.000000 0
0.000000 0.000000 0
0.000000 0.000000 0
0.000000 0.000000 0
0.000000 0.000000 0
0.000000 0.000000 0
0.000000 0.000000 0
0.000000 0.000000 0
0.000000 0.000000 0
0.000000 0.000000 0
0.000000 0.000000 0
0.000000 0.000000 0
0.308910 -0.109485 0
0.897224 -0.368326 0
1.541364 -0.672754 0
2.095908 -0.986197 0
2.519419 -1.304784 0
2.796801 -1.627526 0
2.926733 -1.961011 0
2.918578 -2.328984 0
2.784928 -2.782911 0
2.522114 -3.449182 0
2.017634 -4.378394 0
0.037587 -0.000000 0
-0.073580 2.449124 0
0.383982 0.000000 0
0.310170 0.000000 0
0.237536 0.000000 0
0.185108 0.000000 0
0.099364 0.000000 0
-0.006423 0.000000 0
-0.116548 0.000000 0
-0.219505 0.000000 0
-0.309986 0.000000 0
-0.385463 0.000000 0
-0.445606 0.000000 0
-0.491616 0.000000 0
-0.525585 0.000000 0
-0.549954 0.000000 0
-0.567112 0.000000 0
-0.579157 0.000000 0
-0.587777 0.000000 0
-0.594235 0.000000 0
-0.599422 0.000000 0
-0.603931 0.000000 0
-0.608140 0.000000 0
-0.612293 0.000000 0
-0.616560 0.000000 0
-0.621089 0.000000 0
-0.626049 0.000000 0
-0.631666 0.000000 0
-0.638270 0.000000 0
-0.646339 0.000000 0
-0.656577 0.000000 0
-0.670008 0.000000 0
-0.688143 0.000000 0
-0.713224 0.000000 0
-0.748630 0.000000 0
-0.799560 0.000000 0
-0.874383 0.000000 0
-0.986568 0.000000 0
-1.164872 0.000000 0
-1.451747 0.132116 0
0.000000 -0.000003 0
1.708722 0.340451 0
3.309751 1.349906 0
4.415816 2.074678 0
5.133820 2.624327 0
5.513902 2.978787 0
5.600682 3.115925 0
5.419472 3.029464 0
4.970745 2.732258 0
4.235158 2.255022 0
3.155361 1.624181 0
1.267444 0.636077 0
-0.000000 0.000000 0
-0.003838 0.000000 0
0.000000 0.000000 0
0.000000 0.000000 0
0.000000 0.000000 0
0.000000 0.000000 0
0.000000 0.000000 0
0.000000 0.000000 0
0.000000 0.000000 0
0.000000 0.000000 0
0.000000 0.000000 0
0.000000 0.000000 0
0.000000 0.000000 0
0.000000 0.000000 0
0.000000 0.000000 0
0.000000 0.000000 0
0.000000 0.000000 0
0.000000 0.000000 0
0.482533 -0.150458 0
1.207431 -0.439867 0