# vtk DataFile Version 2.0
generated by CFD-lab course output (written by Tobias Neckel) 
ASCII

DATASET STRUCTURED_GRID
DIMENSIONS  82 60 1 
POINTS 4920 float

-1.500000 -0.500000 0
-1.402439 -0.500000 0
-1.304878 -0.500000 0
-1.207317 -0.500000 0
-1.109756 -0.500000 0
-1.012195 -0.500000 0
-0.914634 -0.500000 0
-0.817073 -0.500000 0
-0.719512 -0.500000 0
-0.621951 -0.500000 0
-0.524390 -0.500000 0
-0.426829 -0.500000 0
-0.329268 -0.500000 0
-0.231707 -0.500000 0
-0.134146 -0.500000 0
-0.036585 -0.500000 0
0.060976 -0.500000 0
0.158537 -0.500000 0
0.256098 -0.500000 0
0.353659 -0.500000 0
0.451220 -0.500000 0
0.548780 -0.500000 0
0.646341 -0.500000 0
0.743902 -0.500000 0
0.841463 -0.500000 0
0.939024 -0.500000 0
1.036585 -0.500000 0
1.134146 -0.500000 0
1.231707 -0.500000 0
1.329268 -0.500000 0
1.426829 -0.500000 0
1.524390 -0.500000 0
1.621951 -0.500000 0
1.719512 -0.500000 0
1.817073 -0.500000 0
1.914634 -0.500000 0
2.012195 -0.500000 0
2.109756 -0.500000 0
2.207317 -0.500000 0
2.304878 -0.500000 0
2.402439 -0.500000 0
2.500000 -0.500000 0
2.597561 -0.500000 0
2.695122 -0.500000 0
2.792683 -0.500000 0
2.890244 -0.500000 0
2.987805 -0.500000 0
3.085366 -0.500000 0
3.182927 -0.500000 0
3.280488 -0.500000 0
3.378049 -0.500000 0
3.475610 -0.500000 0
3.573171 -0.500000 0
3.670732 -0.500000 0
3.768293 -0.500000 0
3.865854 -0.500000 0
3.963415 -0.500000 0
4.060976 -0.500000 0
4.158537 -0.500000 0
4.256098 -0.500000 0
4.353659 -0.500000 0
4.451220 -0.500000 0
4.548780 -0.500000 0
4.646341 -0.500000 0
4.743902 -0.500000 0
4.841463 -0.500000 0
4.939024 -0.500000 0
5.036585 -0.500000 0
5.134146 -0.500000 0
5.231707 -0.500000 0
5.329268 -0.500000 0
5.426829 -0.500000 0
5.524390 -0.500000 0
5.621951 -0.500000 0
5.719512 -0.500000 0
5.817073 -0.500000 0
5.914634 -0.500000 0
6.012195 -0.500000 0
6.109756 -0.500000 0
6.207317 -0.500000 0
6.304878 -0.500000 0
6.402439 -0.500000 0
-1.500000 -0.451667 0
-1.402439 -0.451667 0
-1.304878 -0.451667 0
-1.207317 -0.451667 0
-1.109756 -0.451667 0
-1.012195 -0.451667 0
-0.914634 -0.451667 0
-0.817073 -0.451667 0
-0.719512 -0.451667 0
-0.621951 -0.451667 0
-0.524390 -0.451667 0
-0.426829 -0.451667 0
-0.329268 -0.451667 0
-0.231707 -0.451667 0
-0.134146 -0.451667 0
-0.036585 -0.451667 0
0.060976 -0.451667 0
0.158537 -0.451667 0
0.256098 -0.451667 0
0.353659 -0.451667 0
0.451220 -0.451667 0
0.548780 -0.451667 0
0.646341 -0.451667 0
0.743902 -0.451667 0
0.841463 -0.451667 0
0.939024 -0.451667 0
1.036585 -0.451667 0
1.134146 -0.451667 0
1.231707 -0.451667 0
1.329268 -0.451667 0
1.426829 -0.451667 0
1.524390 -0.451667 0
1.621951 -0.451667 0
1.719512 -0.451667 0
1.817073 -0.451667 0
1.914634 -0.451667 0
2.012195 -0.451667 0
2.109756 -0.451667 0
2.207317 -0.451667 0
2.304878 -0.451667 0
2.402439 -0.451667 0
2.500000 -0.451667 0
2.597561 -0.451667 0
2.695122 -0.451667 0
2.792683 -0.451667 0
2.890244 -0.451667 0
2.987805 -0.451667 0
3.085366 -0.451667 0
3.182927 -0.451667 0
3.280488 -0.451667 0
3.378049 -0.451667 0
3.475610 -0.451667 0
3.573171 -0.451667 0
3.670732 -0.451667 0
3.768293 -0.451667 0
3.865854 -0.451667 0
3.963415 -0.451667 0
4.060976 -0.451667 0
4.158537 -0.451667 0
4.256098 -0.451667 0
4.353659 -0.451667 0
4.451220 -0.451667 0
4.548780 -0.451667 0
4.646341 -0.451667 0
4.743902 -0.451667 0
4.841463 -0.451667 0
4.939024 -0.451667 0
5.036585 -0.451667 0
5.134146 -0.451667 0
5.231707 -0.451667 0
5.329268 -0.451667 0
5.426829 -0.451667 0
5.524390 -0.451667 0
5.621951 -0.451667 0
5.719512 -0.451667 0
5.817073 -0.451667 0
5.914634 -0.451667 0
6.012195 -0.451667 0
6.109756 -0.451667 0
6.207317 -0.451667 0
6.304878 -0.451667 0
6.402439 -0.451667 0
-1.500000 -0.403333 0
-1.402439 -0.403333 0
-1.304878 -0.403333 0
-1.207317 -0.403333 0
-1.109756 -0.403333 0
-1.012195 -0.403333 0
-0.914634 -0.403333 0
-0.817073 -0.403333 0
-0.719512 -0.403333 0
-0.621951 -0.403333 0
-0.524390 -0.403333 0
-0.426829 -0.403333 0
-0.329268 -0.403333 0
-0.231707 -0.403333 0
-0.134146 -0.403333 0
-0.036585 -0.403333 0
0.060976 -0.403333 0
0.158537 -0.403333 0
0.256098 -0.403333 0
0.353659 -0.403333 0
0.451220 -0.403333 0
0.548780 -0.403333 0
0.646341 -0.403333 0
0.743902 -0.403333 0
0.841463 -0.403333 0
0.939024 -0.403333 0
1.036585 -0.403333 0
1.134146 -0.403333 0
1.231707 -0.403333 0
1.329268 -0.403333 0
1.426829 -0.403333 0
1.524390 -0.403333 0
1.621951 -0.403333 0
1.719512 -0.403333 0
1.817073 -0.403333 0
1.914634 -0.403333 0
2.012195 -0.403333 0
2.109756 -0.403333 0
2.207317 -0.403333 0
2.304878 -0.403333 0
2.402439 -0.403333 0
2.500000 -0.403333 0
2.597561 -0.403333 0
2.695122 -0.403333 0
2.792683 -0.403333 0
2.890244 -0.403333 0
2.987805 -0.403333 0
3.085366 -0.403333 0
3.182927 -0.403333 0
3.280488 -0.403333 0
3.378049 -0.403333 0
3.475610 -0.403333 0
3.573171 -0.403333 0
3.670732 -0.403333 0
3.768293 -0.403333 0
3.865854 -0.403333 0
3.963415 -0.403333 0
4.060976 -0.403333 0
4.158537 -0.403333 0
4.256098 -0.403333 0
4.353659 -0.403333 0
4.451220 -0.403333 0
4.548780 -0.403333 0
4.646341 -0.403333 0
4.743902 -0.403333 0
4.841463 -0.403333 0
4.939024 -0.403333 0
5.036585 -0.403333 0
5.134146 -0.403333 0
5.231707 -0.403333 0
5.329268 -0.403333 0
5.426829 -0.403333 0
5.524390 -0.403333 0
5.621951 -0.403333 0
5.719512 -0.403333 0
5.817073 -0.403333 0
5.914634 -0.403333 0
6.012195 -0.403333 0
6.109756 -0.403333 0
6.207317 -0.403333 0
6.304878 -0.403333 0
6.402439 -0.403333 0
-1.500000 -0.355000 0
-1.402439 -0.355000 0
-1.304878 -0.355000 0
-1.207317 -0.355000 0
-1.109756 -0.355000 0
-1.012195 -0.355000 0
-0.914634 -0.355000 0
-0.817073 -0.355000 0
-0.719512 -0.355000 0
-0.621951 -0.355000 0
-0.524390 -0.355000 0
-0.426829 -0.355000 0
-0.329268 -0.355000 0
-0.231707 -0.355000 0
-0.134146 -0.355000 0
-0.036585 -0.355000 0
0.060976 -0.355000 0
0.158537 -0.355000 0
0.256098 -0.355000 0
0.353659 -0.355000 0
0.451220 -0.355000 0
0.548780 -0.355000 0
0.646341 -0.355000 0
0.743902 -0.355000 0
0.841463 -0.355000 0
0.939024 -0.355000 0
1.036585 -0.355000 0
1.134146 -0.355000 0
1.231707 -0.355000 0
1.329268 -0.355000 0
1.426829 -0.355000 0
1.524390 -0.355000 0
1.621951 -0.355000 0
1.719512 -0.355000 0
1.817073 -0.355000 0
1.914634 -0.355000 0
2.012195 -0.355000 0
2.109756 -0.355000 0
2.207317 -0.355000 0
2.304878 -0.355000 0
2.402439 -0.355000 0
2.500000 -0.355000 0
2.597561 -0.355000 0
2.695122 -0.355000 0
2.792683 -0.355000 0
2.890244 -0.355000 0
2.987805 -0.355000 0
3.085366 -0.355000 0
3.182927 -0.355000 0
3.280488 -0.355000 0
3.378049 -0.355000 0
3.475610 -0.355000 0
3.573171 -0.355000 0
3.670732 -0.355000 0
3.768293 -0.355000 0
3.865854 -0.355000 0
3.963415 -0.355000 0
4.060976 -0.355000 0
4.158537 -0.355000 0
4.256098 -0.355000 0
4.353659 -0.355000 0
4.451220 -0.355000 0
4.548780 -0.355000 0
4.646341 -0.355000 0
4.743902 -0.355000 0
4.841463 -0.355000 0
4.939024 -0.355000 0
5.036585 -0.355000 0
5.134146 -0.355000 0
5.231707 -0.355000 0
5.329268 -0.355000 0
5.426829 -0.355000 0
5.524390 -0.355000 0
5.621951 -0.355000 0
5.719512 -0.355000 0
5.817073 -0.355000 0
5.914634 -0.355000 0
6.012195 -0.355000 0
6.109756 -0.355000 0
6.207317 -0.355000 0
6.304878 -0.355000 0
6.402439 -0.355000 0
-1.500000 -0.306667 0
-1.402439 -0.306667 0
-1.304878 -0.306667 0
-1.207317 -0.306667 0
-1.109756 -0.306667 0
-1.012195 -0.306667 0
-0.914634 -0.306667 0
-0.817073 -0.306667 0
-0.719512 -0.306667 0
-0.621951 -0.306667 0
-0.524390 -0.306667 0
-0.426829 -0.306667 0
-0.329268 -0.306667 0
-0.231707 -0.306667 0
-0.134146 -0.306667 0
-0.036585 -0.306667 0
0.060976 -0.306667 0
0.158537 -0.306667 0
0.256098 -0.306667 0
0.353659 -0.306667 0
0.451220 -0.306667 0
0.548780 -0.306667 0
0.646341 -0.306667 0
0.743902 -0.306667 0
0.841463 -0.306667 0
0.939024 -0.306667 0
1.036585 -0.306667 0
1.134146 -0.306667 0
1.231707 -0.306667 0
1.329268 -0.306667 0
1.426829 -0.306667 0
1.524390 -0.306667 0
1.621951 -0.306667 0
1.719512 -0.306667 0
1.817073 -0.306667 0
1.914634 -0.306667 0
2.012195 -0.306667 0
2.109756 -0.306667 0
2.207317 -0.306667 0
2.304878 -0.306667 0
2.402439 -0.306667 0
2.500000 -0.306667 0
2.597561 -0.306667 0
2.695122 -0.306667 0
2.792683 -0.306667 0
2.890244 -0.306667 0
2.987805 -0.306667 0
3.085366 -0.306667 0
3.182927 -0.306667 0
3.280488 -0.306667 0
3.378049 -0.306667 0
3.475610 -0.306667 0
3.573171 -0.306667 0
3.670732 -0.306667 0
3.768293 -0.306667 0
3.865854 -0.306667 0
3.963415 -0.306667 0
4.060976 -0.306667 0
4.158537 -0.306667 0
4.256098 -0.306667 0
4.353659 -0.306667 0
4.451220 -0.306667 0
4.548780 -0.306667 0
4.646341 -0.306667 0
4.743902 -0.306667 0
4.841463 -0.306667 0
4.939024 -0.306667 0
5.036585 -0.306667 0
5.134146 -0.306667 0
5.231707 -0.306667 0
5.329268 -0.306667 0
5.426829 -0.306667 0
5.524390 -0.306667 0
5.621951 -0.306667 0
5.719512 -0.306667 0
5.817073 -0.306667 0
5.914634 -0.306667 0
6.012195 -0.306667 0
6.109756 -0.306667 0
6.207317 -0.306667 0
6.304878 -0.306667 0
6.402439 -0.306667 0
-1.500000 -0.258333 0
-1.402439 -0.258333 0
-1.304878 -0.258333 0
-1.207317 -0.258333 0
-1.109756 -0.258333 0
-1.012195 -0.258333 0
-0.914634 -0.258333 0
-0.817073 -0.258333 0
-0.719512 -0.258333 0
-0.621951 -0.258333 0
-0.524390 -0.258333 0
-0.426829 -0.258333 0
-0.329268 -0.258333 0
-0.231707 -0.258333 0
-0.134146 -0.258333 0
-0.036585 -0.258333 0
0.060976 -0.258333 0
0.158537 -0.258333 0
0.256098 -0.258333 0
0.353659 -0.258333 0
0.451220 -0.258333 0
0.548780 -0.258333 0
0.646341 -0.258333 0
0.743902 -0.258333 0
0.841463 -0.258333 0
0.939024 -0.258333 0
1.036585 -0.258333 0
1.134146 -0.258333 0
1.231707 -0.258333 0
1.329268 -0.258333 0
1.426829 -0.258333 0
1.524390 -0.258333 0
1.621951 -0.258333 0
1.719512 -0.258333 0
1.817073 -0.258333 0
1.914634 -0.258333 0
2.012195 -0.258333 0
2.109756 -0.258333 0
2.207317 -0.258333 0
2.304878 -0.258333 0
2.402439 -0.258333 0
2.500000 -0.258333 0
2.597561 -0.258333 0
2.695122 -0.258333 0
2.792683 -0.258333 0
2.890244 -0.258333 0
2.987805 -0.258333 0
3.085366 -0.258333 0
3.182927 -0.258333 0
3.280488 -0.258333 0
3.378049 -0.258333 0
3.475610 -0.258333 0
3.573171 -0.258333 0
[...]
POINT_DATA 4920 

VECTORS velocity float
0.000000 0.000000 0
0.000000 0.000000 0
0.000000 0.000000 0
0.000000 0.000000 0
0.000000 0.000000 0
0.000000 0.000000 0
0.000000 0.000000 0
0.000000 0.000000 0
0.000000 0.000000 0
0.000000 0.000000 0
0.000000 0.000000 0
0.000000 0.000000 0
0.000000 0.000000 0
0.000000 0.000000 0
0.000000 0.000000 0
-0.000031 0.000000 0
-0.000043 0.000000 0
-0.000044 0.000000 0
-0.000035 0.000000 0
-0.000016 0.000000 0
0.000017 0.000000 0
0.000067 0.000000 0
0.000130 0.000000 0
0.000195 0.000000 0
0.000252 0.000000 0
0.000290 0.000000 0
0.000303 0.000000 0
0.000291 0.000000 0
0.000263 0.000000 0
0.000226 0.000000 0
0.000188 0.000000 0
0.000156 0.000000 0
0.000126 0.000000 0
0.000083 0.000000 0
0.000051 0.000000 0
0.000029 0.000000 0
0.000012 0.000000 0
-0.000006 0.000000 0
-0.000029 0.000000 0
-0.000058 0.000000 0
-0.000090 0.000000 0
-0.000118 0.000000 0
-0.000142 0.000000 0
-0.000161 0.000000 0
-0.000179 0.000000 0
-0.000195 0.000000 0
-0.000212 0.000000 0
-0.000227 0.000000 0
-0.000240 0.000000 0
-0.000249 0.000000 0
-0.000252 0.000000 0
-0.000248 0.000000 0
-0.000235 0.000000 0
-0.000207 0.000000 0
-0.000159 0.000000 0
-0.000089 0.000000 0
0.000001 0.000000 0
0.002112 0.000000 0
0.000000 0.000000 0
0.000000 0.000000 0
0.000000 0.000000 0
0.000000 0.000000 0
0.000000 0.000000 0
0.000000 0.000000 0
0.000000 0.000000 0
0.000000 0.000000 0
0.000000 0.000000 0
0.000000 0.000000 0
0.000000 0.000000 0
0.000000 0.000000 0
0.000000 0.000000 0
0.000000 0.000000 0
0.000000 0.000000 0
0.000000 0.000000 0
0.000000 0.000000 0
0.000000 0.000000 0
0.000000 0.000000 0
0.000000 0.000000 0
0.000000 0.000000 0
0.000000 0.000000 0
0.000000 0.000000 0
0.000000 0.000000 0
0.000000 0.000000 0
0.000000 0.000000 0
0.000000 0.000000 0
0.000000 0.000000 0
0.000000 0.000000 0
0.000000 0.000000 0
0.000000 0.000000 0
0.000000 0.000000 0
0.000000 0.000000 0
0.000000 0.000000 0
0.000000 0.000000 0
0.000000 0.000000 0
0.000000 0.000000 0
0.000000 0.000000 0
1.064976 -0.427829 0
2.550357 -0.745984 0
3.818679 -0.508611 0
4.664971 -0.266448 0
5.099267 -0.069508 0
5.208181 0.064249 0
5.098619 0.144234 0
4.854587 0.184694 0
4.539618 0.195763 0
4.201002 0.185829 0
3.872519 0.162301 0
3.576172 0.131774 0
3.323764 0.099799 0
3.118800 0.070508 0
2.958797 0.046355 0
2.837734 0.028166 0
2.748177 0.015619 0
2.682726 0.007703 0
2.635182 0.002803 0
2.600800 -0.000210 0
2.575619 -0.001445 0
2.556612 -0.001376 0
2.541753 -0.000859 0
2.529848 -0.000377 0
2.520324 -0.000099 0
2.512957 0.000016 0
2.507484 0.000122 0
2.503288 0.000381 0
2.499396 0.000896 0
2.494688 0.001755 0
2.487964 0.003071 0
2.477831 0.005010 0
2.462457 0.007838 0
2.439264 0.011943 0
2.404587 0.017851 0
2.353257 0.026230 0
2.278132 0.037884 0
2.169557 0.053583 0
2.015211 0.073833 0
1.799998 0.097571 0
1.510755 0.121986 0
1.131842 0.145715 0
0.688029 0.078731 0
0.000002 0.000000 0
-0.002174 0.000000 0
0.000000 0.000000 0
0.000000 0.000000 0
0.000000 0.000000 0
0.000000 0.000000 0
0.000000 0.000000 0
0.000000 0.000000 0
0.000000 0.000000 0
0.000000 0.000000 0
0.000000 0.000000 0
0.000000 0.000000 0
0.000000 0.000000 0
0.000000 0.000000 0
0.000000 0.000000 0
0.000000 0.000000 0
0.000000 0.000000 0
0.000000 0.000000 0
0.000000 0.000000 0
0.000000 0.000000 0
0.000000 0.000000 0
0.000000 0.000000 0
0.000000 0.000000 0
0.000000 0.000000 0
0.000000 0.000000 0
0.000000 0.000000 0
0.000000 0.000000 0
0.000000 0.000000 0
0.000000 0.000000 0
0.000000 0.000000 0
0.000000 0.000000 0
0.000000 0.000000 0
0.000000 0.000000 0
0.000000 0.000000 0
0.000000 0.000000 0
0.000000 0.000000 0
0.000000 0.000000 0
0.000000 0.000000 0
1.181740 -0.526196 0
2.697927 -1.261864 0
3.874268 -1.364016 0
5.050067 -1.047614 0
5.913481 -0.634424 0
6.442051 -0.269115 0
6.697825 0.000321 0
6.754307 0.175177 0
6.678301 0.276939 0
6.518389 0.323797 0
6.310517 0.330492 0
6.081308 0.309552 0
5.850095 0.271863 0
5.630266 0.226590 0
5.430273 0.180811 0
5.254537 0.139245 0
5.104317 0.104345 0
4.978553 0.076794 0
4.874849 0.055980 0
4.790240 0.040588 0
4.720943 0.029509 0
4.663831 0.021892 0
4.616958 0.016778 0
4.578436 0.013259 0
4.546655 0.010617 0
4.520424 0.008369 0
4.498839 0.006361 0
4.480987 0.004790 0
4.465776 0.004008 0
4.451973 0.004261 0
4.438299 0.005663 0
4.423426 0.008351 0
4.405781 0.012637 0
4.383285 0.019107 0
4.353049 0.028670 0
4.310983 0.042610 0
4.251286 0.062648 0
4.165735 0.091008 0
4.042754 0.130256 0
3.866261 0.183086 0
3.614550 0.249916 0
3.260708 0.331016 0
2.772634 0.407055 0
2.149078 0.558057 0
1.122510 0.338721 0
-0.000002 0.000000 0
-0.005499 0.000000 0
0.000000 0.000000 0
0.000000 0.000000 0
0.000000 0.000000 0
0.000000 0.000000 0
0.000000 0.000000 0
0.000000 0.000000 0
0.000000 0.000000 0
0.000000 0.000000 0
0.000000 0.000000 0
0.000000 0.000000 0
0.000000 0.000000 0
0.000000 0.000000 0
0.000000 0.000000 0
0.000000 0.000000 0
0.000000 0.000000 0
0.000000 0.000000 0
0.000000 0.000000 0
0.000000 0.000000 0
0.000000 0.000000 0
0.000000 0.000000 0
0.000000 0.000000 0
0.000000 0.000000 0
0.000000 0.000000 0
0.000000 0.000000 0
0.000000 0.000000 0
0.000000 0.000000 0
0.000000 0.000000 0
0.000000 0.000000 0
0.000000 0.000000 0
0.000000 0.000000 0
0.000000 0.000000 0
0.000000 0.000000 0
0.000000 0.000000 0
0.000000 0.000000 0
0.962462 -0.593592 0
2.684991 -1.343325 0
3.512625 -1.760342 0
4.691571 -1.911273 0
5.755161 -1.518871 0
6.480123 -0.956059 0
6.906939 -0.458085 0
7.131488 -0.090448 0
7.218942 0.153906 0
7.217221 0.301572 0
7.158731 0.377969 0
7.065385 0.402367 0
6.952242 0.390402 0
6.829963 0.355227 0
6.706344 0.307785 0
6.587086 0.256651 0
6.476124 0.207839 0
6.375766 0.164893 0
6.286899 0.129301 0
6.209401 0.100997 0
6.142305 0.079051 0
6.084122 0.062416 0
6.033590 0.050071 0
5.989636 0.040930 0
5.951305 0.033971 0
5.917787 0.028364 0
5.888350 0.023590 0
5.862178 0.019554 0
5.838355 0.016502 0
5.816005 0.014755 0
5.794385 0.014509 0
5.772766 0.015898 0
5.750294 0.019181 0
5.725832 0.024897 0
5.697811 0.033962 0
5.664028 0.047763 0
5.621335 0.068266 0
5.565168 0.098189 0
5.488822 0.141194 0
5.382387 0.201948 0
5.230947 0.285972 0
5.012719 0.397572 0
4.694878 0.539085 0
4.243322 0.696435 0
3.605042 0.891993 0
2.946389 1.063666 0
1.391987 0.559325 0
-0.000003 0.000000 0
-0.006266 0.000000 0
0.000000 0.000000 0
0.000000 0.000000 0
0.000000 0.000000 0
0.000000 0.000000 0
0.000000 0.000000 0
0.000000 0.000000 0
0.000000 0.000000 0
0.000000 0.000000 0
0.000000 0.000000 0
0.000000 0.000000 0
0.000000 0.000000 0
0.000000 0.000000 0
0.000000 0.000000 0
0.000000 0.000000 0
0.000000 0.000000 0
0.000000 0.000000 0
0.000000 0.000000 0
0.000000 0.000000 0
0.000000 0.000000 0
0.000000 0.000000 0
0.000000 0.000000 0
0.000000 0.000000 0
0.000000 0.000000 0
0.000000 0.000000 0
0.000000 0.000000 0
0.000000 0.000000 0
0.000000 0.000000 0
0.000000 0.000000 0
0.000000 0.000000 0
0.000000 0.000000 0
0.000000 0.000000 0
0.000000 0.000000 0
0.766986 -0.480583 0
2.200308 -1.342091 0
3.144477 -1.797728 0
3.909556 -2.255957 0
5.249636 -2.475006 0
6.206780 -1.933693 0
6.734841 -1.205034 0
6.995250 -0.591812 0
7.116509 -0.154250 0
7.164596 0.132703 0
7.168323 0.306768 0
7.147445 0.399019 0
7.113271 0.432791 0
7.071773 0.426184 0
7.026049 0.393685 0
6.978067 0.346915 0
6.929530 0.294866 0
6.882069 0.243937 0
6.837080 0.198090 0
6.795546 0.159214 0
6.757982 0.127614 0
6.724346 0.102653 0
6.694242 0.083368 0
6.667303 0.068702 0
6.643163 0.057544 0
6.621429 0.048855 0
6.601668 0.041806 0
6.583355 0.035918 0
6.565862 0.031130 0
6.548580 0.027665 0
6.531039 0.025791 0
6.512872 0.025682 0
6.493709 0.027507 0
6.473098 0.031603 0
6.450461 0.038639 0
6.425023 0.049726 0
6.395675 0.066557 0
6.360751 0.091587 0
6.317662 0.128298 0
6.262286 0.181561 0
6.187954 0.258011 0
6.083442 0.366226 0
5.930041 0.515493 0
5.695237 0.712188 0
5.337454 0.946979 0
4.808625 1.200579 0
4.201079 1.438351 0
3.448029 1.468708 0
1.524883 0.695386 0
-0.000002 0.000000 0
-0.005311 0.000000 0
0.000000 0.000000 0
0.000000 0.000000 0
0.000000 0.000000 0
0.000000 0.000000 0
0.000000 0.000000 0
0.000000 0.000000 0
0.000000 0.000000 0
0.000000 0.000000 0
0.000000 0.000000 0
0.000000 0.000000 0
0.000000 0.000000 0
0.000000 0.000000 0
0.000000 0.000000 0
0.000000 0.000000 0
0.000000 0.000000 0
0.000000 0.000000 0
0.000000 0.000000 0
0.000000 0.000000 0
0.000000 0.000000 0
0.000000 0.000000 0
0.000000 0.000000 0
0.000000 0.000000 0
0.000000 0.000000 0
0.000000 0.000000 0
0.000000 0.000000 0
0.000000 0.000000 0
0.000000 0.000000 0
0.000000 0.000000 0
0.000000 0.000000 0
0.000000 0.000000 0
0.564882 -0.383627 0
1.756993 -1.097481 0
2.599977 -1.775204 0
3.346807 -2.190115 0
4.162285 -2.803273 0
5.656645 -3.049356 0
6.392975 -2.254666 0
6.628529 -1.346680 0
6.664667 -0.647169 0
6.655900 -0.174345 0
6.644912 0.128237 0
6.637935 0.310069 0
6.638469 0.405243 0
6.645878 0.439856 0
6.657643 0.433613 0
6.670613 0.401651 0
6.682204 0.355603 0
6.690963 0.304210 0
6.696545 0.253641 0
6.699362 0.207759 0
6.700176 0.168488 0
6.699761 0.136271 0
6.698651 0.110629 0
6.697157 0.090676 0
6.695511 0.075377 0
6.693838 0.063657 0
6.692128 0.054528 0
6.690204 0.047226 0
6.687729 0.041330 0
6.684289 0.036782 0
6.679550 0.033754 0
6.673345 0.032445 0
6.665629 0.033003 0
6.656404 0.035603 0
6.645688 0.040607 0
6.633510 0.048714 0
6.619903 0.061105 0
6.604839 0.079604 0
6.588126 0.106915 0
6.569199 0.146970 0
6.546729 0.205454 0
6.517841 0.290550 0
6.476229 0.413747 0
6.408373 0.589895 0
6.284823 0.832662 0
6.052869 1.135677 0
5.665655 1.454972 0
5.165068 1.737729 0
4.587310 1.894728 0
3.698679 1.723087 0
1.560026 0.760757 0
-0.000001 0.000000 0
-0.003681 0.000000 0
0.000000 0.000000 0
0.000000 0.000000 0
0.000000 0.000000 0
0.000000 0.000000 0
0.000000 0.000000 0
0.000000 0.000000 0
0.000000 0.000000 0
0.000000 0.000000 0
0.000000 0.000000 0
0.000000 0.000000 0
0.000000 0.000000 0
0.000000 0.000000 0
0.000000 0.000000 0
0.000000 0.000000 0
0.000000 0.000000 0
0.000000 0.000000 0
0.000000 0.000000 0
0.000000 0.000000 0
0.000000 0.000000 0
0.000000 0.000000 0
0.000000 0.000000 0
0.000000 0.000000 0
0.000000 0.000000 0
0.000000 0.000000 0
0.000000 0.000000 0
0.000000 0.000000 0
0.000000 0.000000 0
0.000000 0.000000 0
0.402783 -0.281315 0
1.354605 -0.875555 0
2.115656 -1.492452 0
2.798502 -2.129711 0
3.429795 -2.571721 0
4.309409 -3.400290 0
5.866127 -3.580127 0
6.190276 -2.415180 0
6.022039 -1.339635 0
5.784910 -0.605372 0
5.635803 -0.144463 0
5.565754 0.141604 0
5.559846 0.309960 0
5.597407 0.395084 0
5.660427 0.423291 0
5.735826 0.413930 0
5.814016 0.381517 0
5.888637 0.336833 0
5.956111 0.287761 0
6.015027 0.239776 0
6.065454 0.196291 0
6.108296 0.159016 0
6.144771 0.128370 0
6.176046 0.103943 0
6.203113 0.084924 0
6.226797 0.070346 0
6.247720 0.059220 0
6.266272 0.050655 0
6.282606 0.043985 0
6.296692 0.038849 0
6.308448 0.035181 0
6.317897 0.033087 0
6.325243 0.032688 0
6.330848 0.034075 0
6.335179 0.037386 0
6.338795 0.042945 0
6.342371 0.051413 0
6.346723 0.063930 0
6.352846 0.082300 0
6.361932 0.109244 0
6.375388 0.148807 0
6.394750 0.207005 0
6.421337 0.292938 0
6.454886 0.420458 0
6.489522 0.610320 0
6.502372 0.888310 0
6.422691 1.253725 0
6.184500 1.640411 0
5.825495 1.972581 0
5.380597 2.195181 0
4.780592 2.206283 0
3.762531 1.847268 0
1.530484 0.776613 0
-0.000001 0.000000 0
-0.002116 0.000000 0
0.000000 0.000000 0
0.000000 0.000000 0
0.000000 0.000000 0
0.000000 0.000000 0
0.000000 0.000000 0
0.000000 0.000000 0
0.000000 0.000000 0
0.000000 0.000000 0
0.000000 0.000000 0
0.000000 0.000000 0
0.000000 0.000000 0
0.000000 0.000000 0
0.000000 0.000000 0
0.000000 0.000000 0
0.000000 0.000000 0
0.000000 0.000000 0
0.000000 0.000000 0
0.000000 0.000000 0
0.000000 0.000000 0
0.000000 0.000000 0
0.000000 0.000000 0
0.000000 0.000000 0
0.000000 0.000000 0
0.000000 0.000000 0
0.000000 0.000000 0
0.000000 0.000000 0
0.289882 -0.199560 0
1.048227 -0.672571 0
1.753870 -1.233675 0
2.361991 -1.812812 0
2.912695 -2.426250 0
3.420487 -2.938644 0
4.308010 -4.010272 0
5.776824 -3.981169 0
5.435643 -2.331907 0
4.772027 -1.145855 0
4.242442 -0.455821 0
3.956404 -0.065771 0
3.859540 0.165867 0
3.901230 0.294388 0
4.019884 0.355414 0
4.174288 0.371281 0
4.340735 0.357523 0
4.504305 0.325946 0
4.656349 0.285206 0
4.792537 0.241594 0
4.911488 0.199470 0
5.013727 0.161552 0
5.100858 0.129193 0
5.174935 0.102706 0
5.238030 0.081725 0
5.292024 0.065533 0
5.338542 0.053278 0
5.378909 0.044101 0
5.414129 0.037245 0
5.444920 0.032155 0
5.471802 0.028527 0
5.495254 0.026277 0
5.515863 0.025433 0
5.534379 0.026029 0
5.551683 0.028081 0
5.568748 0.031666 0
5.586631 0.037044 0
5.606534 0.044786 0
5.629914 0.055915 0
5.658644 0.072070 0
5.695237 0.095747 0
5.743133 0.130711 0
5.807047 0.182690 0
5.893252 0.260758 0
6.009451 0.379967 0
6.161196 0.566370 0
6.343298 0.865772 0
6.455755 1.293157 0
6.377526 1.750833 0
6.180854 2.135995 0
5.885744 2.412391 0
5.468842 2.524704 0
4.812975 2.380399 0
3.696391 1.875629 0
1.462500 0.760351 0
-0.000000 0.000000 0
-0.001044 0.000000 0
0.000000 0.000000 0
0.000000 0.000000 0
0.000000 0.000000 0
0.000000 0.000000 0
0.000000 0.000000 0
0.000000 0.000000 0
0.000000 0.000000 0
0.000000 0.000000 0
0.000000 0.000000 0
0.000000 0.000000 0
0.000000 0.000000 0
0.000000 0.000000 0
0.000000 0.000000 0
0.000000 0.000000 0
0.000000 0.000000 0
0.000000 0.000000 0
0.000000 0.000000 0
0.000000 0.000000 0
0.000000 0.000000 0
0.000000 0.000000 0
0.000000 0.000000 0
0.000000 0.000000 0
0.000000 0.000000 0
0.000000 0.000000 0
0.226192 -0.142718 0
0.849986 -0.518429 0
1.515264 -1.006613 0
2.091898 -1.526416 0
2.564514 -2.066553 0
2.960298 -2.654108 0
3.314673 -3.262983 0
4.088268 -4.567658 0
5.247890 -4.138775 0
3.942263 -1.917387 0
2.796982 -0.748503 0
2.020537 -0.201299 0
1.734784 0.045233 0
1.769396 0.168938 0
1.939249 0.230523 0
2.173337 0.259807 0
2.431874 0.264336 0
2.692087 0.250434 0
2.937823 0.225157 0
3.160095 0.194038 0
3.354826 0.161362 0
3.521299 0.130195 0
3.661011 0.102474 0
3.776754 0.079151 0
3.871899 0.060413 0
3.949872 0.045936 0
4.013857 0.035129 0
4.066649 0.027302 0
4.110590 0.021773 0
4.147563 0.017952 0
4.179052 0.015413 0
4.206274 0.013912 0
4.230350 0.013353 0
4.252419 0.013704 0
4.273663 0.014942 0
4.295269 0.017048 0
4.318406 0.020072 0
4.344285 0.024226 0
4.374314 0.029970 0
4.410347 0.038114 0
4.455017 0.049938 0
4.512188 0.067387 0
4.587552 0.093414 0
4.689483 0.132633 0
4.830078 0.192663 0
5.027573 0.287714 0
5.303432 0.444926 0
5.698922 0.742381 0
6.090028 1.236768 0
6.208569 1.776602 0
6.215167 2.216219 0
6.107333 2.547924 0
5.866484 2.737751 0
5.440794 2.725370 0
4.722559 2.443073 0
3.549427 1.838667 0
1.378827 0.725382 0
-0.000001 0.000000 0
-0.000627 0.000000 0
0.000000 0.000000 0
0.000000 0.000000 0
0.000000 0.000000 0
0.000000 0.000000 0
0.000000 0.000000 0
0.000000 0.000000 0
0.000000 0.000000 0
0.000000 0.000000 0
0.000000 0.000000 0
0.000000 0.000000 0
0.000000 0.000000 0
0.000000 0.000000 0
0.000000 0.000000 0
0.000000 0.000000 0
0.000000 0.000000 0
0.000000 0.000000 0
0.000000 0.000000 0
0.000000 0.000000 0
0.000000 0.000000 0
0.000000 0.000000 0
0.000000 0.000000 0
0.000000 0.000000 0
0.208161 -0.110649 0
0.760251 -0.418793 0
1.401384 -0.837293 0
1.963726 -1.287835 0
2.407663 -1.753491 0
2.727117 -2.243032 0
2.946542 -2.797891 0
3.111258 -3.497458 0
3.586571 -4.968020 0
4.042253 -3.908835 0
1.568393 -1.117687 0
0.425202 -0.193800 0
0.057537 0.070409 0
0.018880 0.058648 0
0.148841 0.064572 0
0.359881 0.094269 0
0.614153 0.111359 0
0.884302 0.114283 0
1.147718 0.106867 0
1.389805 0.094088 0
1.602197 0.078616 0
1.781472 0.062647 0
1.927906 0.047781 0
2.044272 0.034995 0
2.134751 0.024716 0
2.204039 0.016941 0
2.256694 0.011397 0
2.296760 0.007680 0
2.327602 0.005354 0
2.351869 0.004014 0
2.371550 0.003329 0
2.388106 0.003069 0
2.402662 0.003113 0
2.416189 0.003416 0
2.429615 0.003975 0
2.443851 0.004800 0
2.459776 0.005915 0
2.478263 0.007383 0
2.500293 0.009346 0
2.527163 0.012057 0
2.560787 0.015934 0
2.604096 0.021616 0
2.661588 0.030087 0
2.740117 0.042877 0
2.850145 0.062539 0
3.007838 0.093263 0
3.239037 0.145459 0
3.588590 0.233772 0
4.137122 0.476079 0
5.057584 1.040669 0
5.503299 1.688838 0
5.838855 2.186149 0
6.006448 2.585134 0
5.986934 2.854918 0
5.769711 2.947119 0
5.316056 2.812644 0
4.552549 2.420598 0
3.369208 1.762182 0
1.301884 0.683124 0
-0.000001 0.000000 0
-0.000936 0.000000 0
0.000000 0.000000 0
0.000000 0.000000 0
0.000000 0.000000 0
0.000000 0.000000 0
0.000000 0.000000 0
0.000000 0.000000 0
0.000000 0.000000 0
0.000000 0.000000 0
0.000000 0.000000 0
0.000000 0.000000 0
0.000000 0.000000 0
0.000000 0.000000 0
0.000000 0.000000 0
0.000000 0.000000 0
0.000000 0.000000 0
0.000000 0.000000 0
0.000000 0.000000 0
0.000000 0.000000 0
0.000000 0.000000 0
0.000000 0.000000 0
0.235067 -0.101374 0
0.779219 -0.373478 0
1.414637 -0.732450 0
1.971725 -1.114650 0
2.402665 -1.505141 0
2.692617 -1.904612 0
2.845512 -2.333522 0
2.881688 -2.844418 0
2.829370 -3.580064 0
2.806445 -5.028889 0
1.643312 -3.013497 0
0.000003 0.000000 0
0.000022 0.000000 0
0.000064 0.000000 0
0.000096 0.000000 0
0.000121 0.000000 0
0.000110 0.000000 0
0.000048 0.000000 0
-0.000041 0.000000 0
-0.000133 0.000000 0
-0.000211 0.000000 0
-0.000268 0.000000 0
-0.000301 0.000000 0
-0.000314 0.000000 0
-0.000311 0.000000 0
-0.000296 0.000000 0
-0.000275 0.000000 0
-0.000252 0.000000 0
-0.000228 0.000000 0
-0.000206 0.000000 0
-0.000187 0.000000 0
-0.000171 0.000000 0
-0.000160 0.000000 0
-0.000154 0.000000 0
-0.000153 0.000000 0
-0.000160 0.000000 0
-0.000172 0.000000 0
-0.000188 0.000000 0
-0.000204 0.000000 0
-0.000217 0.000000 0
-0.000226 0.000000 0
-0.000229 0.000000 0
-0.000227 0.000000 0
-0.000220 0.000000 0
-0.000209 0.000000 0
-0.000195 0.000000 0
-0.000180 0.000000 0
-0.000165 0.000000 0
-0.000153 0.000000 0
-0.000147 0.000000 0
2.160685 0.545324 0
3.861062 1.389547 0
4.849564 1.966950 0
5.469291 2.474564 0
5.775041 2.855035 0
5.809241 3.057734 0
5.595625 3.046075 0
5.121832 2.803168 0
4.347570 2.337410 0
3.199898 1.670443 0
1.249310 0.644661 0
-0.000003 0.000000 0
-0.001939 0.000000 0
0.000000 0.000000 0
0.000000 0.000000 0
0.000000 0.000000 0
0.000000 0.000000 0
0.000000 0.000000 0
0.000000 0.000000 0
0.000000 0.000000 0
0.000000 0.000000 0
0.000000 0.000000 0
0.000000 0.000000 0
0.000000 0.000000 0
0.000000 0.000000 0
0.000000 0.000000 0
0.000000 0.000000 0
0.000000 0.000000 0
0.000000 0.000000 0
0.000000 0.000000 0
0.000000 0.000000 0
0.316672 -0.114343 0
0.919013 -0.382173 0
1.569192 -0.693275 0
2.121691 -1.009580 0
2.538171 -1.326779 0
2.806891 -1.644976 0
2.929360 -1.972885 0
2.916907 -2.336701 0
2.782880 -2.789894 0
2.522891 -3.460181 0
2.022339 -4.397546 0
0.038182 0.000018 0
-0.075260 2.461128 0
0.387153 0.000000 0
0.315987 0.000000 0
0.245105 0.000000 0
0.197663 0.000000 0
0.114780 0.000000 0
0.007307 0.000000 0
-0.110150 0.000000 0
-0.223554 0.000000 0
-0.326031 0.000000 0
-0.413606 0.000000 0
-0.484808 0.000000 0
-0.540107 0.000000 0
-0.581264 0.000000 0
-0.610727 0.000000 0
-0.631117 0.000000 0
-0.644877 0.000000 0
-0.654074 0.000000 0
-0.660334 0.000000 0
-0.664841 0.000000 0
-0.668402 0.000000 0
-0.671533 0.000000 0
-0.674579 0.000000 0
-0.677810 0.000000 0
-0.681481 0.000000 0
-0.685853 0.000000 0
-0.691199 0.000000 0
-0.697824 0.000000 0
-0.706131 0.000000 0
-0.716711 0.000000 0
-0.730481 0.000000 0
-0.748874 0.000000 0
-0.774104 0.000000 0
-0.809587 0.000000 0
-0.860626 0.000000 0
-0.935793 0.000000 0
-1.048847 0.000000 0
-1.229376 0.000000 0
-1.520700 0.129680 0
0.000000 -0.000208 0
1.783526 0.360310 0
3.414334 1.389406 0
4.533575 2.126638 0
5.221521 2.686501 0
5.551092 3.036004 0
5.590294 3.153198 0
5.373835 3.038905 0
4.902239 2.714340 0
4.155839 2.218566 0
3.082511 1.585630 0
1.238337 0.618763 0
-0.000003 0.000000 0
-0.003826 0.000000 0
0.000000 0.000000 0
0.000000 0.000000 0
0.000000 0.000000 0
0.000000 0.000000 0
0.000000 0.000000 0
0.000000 0.000000 0
0.000000 0.000000 0
0.000000 0.000000 0
0.000000 0.000000 0
0.000000 0.000000 0
0.000000 0.000000 0
0.000000 0.000000 0
0.000000 0.000000 0
0.000000 0.000000 0
0.000000 0.000000 0