# vtk DataFile Version 2.0
generated by CFD-lab course output (written by Tobias Neckel) 
ASCII

DATASET STRUCTURED_GRID
DIMENSIONS  82 60 1 
POINTS 4920 float

-1.500000 -0.500000 0
-1.402439 -0.500000 0
-1.304878 -0.500000 0
-1.207317 -0.500000 0
-1.109756 -0.500000 0
-1.012195 -0.500000 0
-0.914634 -0.500000 0
-0.817073 -0.500000 0
-0.719512 -0.500000 0
-0.621951 -0.500000 0
-0.524390 -0.500000 0
-0.426829 -0.500000 0
-0.329268 -0.500000 0
-0.231707 -0.500000 0
-0.134146 -0.500000 0
-0.036585 -0.500000 0
0.060976 -0.500000 0
0.158537 -0.500000 0
0.256098 -0.500000 0
0.353659 -0.500000 0
0.451220 -0.500000 0
0.548780 -0.500000 0
0.646341 -0.500000 0
0.743902 -0.500000 0
0.841463 -0.500000 0
0.939024 -0.500000 0
1.036585 -0.500000 0
1.134146 -0.500000 0
1.231707 -0.500000 0
1.329268 -0.500000 0
1.426829 -0.500000 0
1.524390 -0.500000 0
1.621951 -0.500000 0
1.719512 -0.500000 0
1.817073 -0.500000 0
1.914634 -0.500000 0
2.012195 -0.500000 0
2.109756 -0.500000 0
2.207317 -0.500000 0
2.304878 -0.500000 0
2.402439 -0.500000 0
2.500000 -0.500000 0
2.597561 -0.500000 0
2.695122 -0.500000 0
2.792683 -0.500000 0
2.890244 -0.500000 0
2.987805 -0.500000 0
3.085366 -0.500000 0
3.182927 -0.500000 0
3.280488 -0.500000 0
3.378049 -0.500000 0
3.475610 -0.500000 0
3.573171 -0.500000 0
3.670732 -0.500000 0
3.768293 -0.500000 0
3.865854 -0.500000 0
3.963415 -0.500000 0
4.060976 -0.500000 0
4.158537 -0.500000 0
4.256098 -0.500000 0
4.353659 -0.500000 0
4.451220 -0.500000 0
4.548780 -0.500000 0
4.646341 -0.500000 0
4.743902 -0.500000 0
4.841463 -0.500000 0
4.939024 -0.500000 0
5.036585 -0.500000 0
5.134146 -0.500000 0
5.231707 -0.500000 0
5.329268 -0.500000 0
5.426829 -0.500000 0
5.524390 -0.500000 0
5.621951 -0.500000 0
5.719512 -0.500000 0
5.817073 -0.500000 0
5.914634 -0.500000 0
6.012195 -0.500000 0
6.109756 -0.500000 0
6.207317 -0.500000 0
6.304878 -0.500000 0
6.402439 -0.500000 0
-1.500000 -0.451667 0
-1.402439 -0.451667 0
-1.304878 -0.451667 0
-1.207317 -0.451667 0
-1.109756 -0.451667 0
-1.012195 -0.451667 0
-0.914634 -0.451667 0
-0.817073 -0.451667 0
-0.719512 -0.451667 0
-0.621951 -0.451667 0
-0.524390 -0.451667 0
-0.426829 -0.451667 0
-0.329268 -0.451667 0
-0.231707 -0.451667 0
-0.134146 -0.451667 0
-0.036585 -0.451667 0
0.060976 -0.451667 0
0.158537 -0.451667 0
0.256098 -0.451667 0
0.353659 -0.451667 0
0.451220 -0.451667 0
0.548780 -0.451667 0
0.646341 -0.451667 0
0.743902 -0.451667 0
0.841463 -0.451667 0
0.939024 -0.451667 0
1.036585 -0.451667 0
1.134146 -0.451667 0
1.231707 -0.451667 0
1.329268 -0.451667 0
1.426829 -0.451667 0
1.524390 -0.451667 0
1.621951 -0.451667 0
1.719512 -0.451667 0
1.817073 -0.451667 0
1.914634 -0.451667 0
2.012195 -0.451667 0
2.109756 -0.451667 0
2.207317 -0.451667 0
2.304878 -0.451667 0
2.402439 -0.451667 0
2.500000 -0.451667 0
2.597561 -0.451667 0
2.695122 -0.451667 0
2.792683 -0.451667 0
2.890244 -0.451667 0
2.987805 -0.451667 0
3.085366 -0.451667 0
3.182927 -0.451667 0
3.280488 -0.451667 0
3.378049 -0.451667 0
3.475610 -0.451667 0
3.573171 -0.451667 0
3.670732 -0.451667 0
3.768293 -0.451667 0
3.865854 -0.451667 0
3.963415 -0.451667 0
4.060976 -0.451667 0
4.158537 -0.451667 0
4.256098 -0.451667 0
4.353659 -0.451667 0
4.451220 -0.451667 0
4.548780 -0.451667 0
4.646341 -0.451667 0
4.743902 -0.451667 0
4.841463 -0.451667 0
4.939024 -0.451667 0
5.036585 -0.451667 0
5.134146 -0.451667 0
5.231707 -0.451667 0
5.329268 -0.451667 0
5.426829 -0.451667 0
5.524390 -0.451667 0
5.621951 -0.451667 0
5.719512 -0.451667 0
5.817073 -0.451667 0
5.914634 -0.451667 0
6.012195 -0.451667 0
6.109756 -0.451667 0
6.207317 -0.451667 0
6.304878 -0.451667 0
6.402439 -0.451667 0
-1.500000 -0.403333 0
-1.402439 -0.403333 0
-1.304878 -0.403333 0
-1.207317 -0.403333 0
-1.109756 -0.403333 0
-1.012195 -0.403333 0
-0.914634 -0.403333 0
-0.817073 -0.403333 0
-0.719512 -0.403333 0
-0.621951 -0.403333 0
-0.524390 -0.403333 0
-0.426829 -0.403333 0
-0.329268 -0.403333 0
-0.231707 -0.403333 0
-0.134146 -0.403333 0
-0.036585 -0.403333 0
0.060976 -0.403333 0
0.158537 -0.403333 0
0.256098 -0.403333 0
0.353659 -0.403333 0
0.451220 -0.403333 0
0.548780 -0.403333 0
0.646341 -0.403333 0
0.743902 -0.403333 0
0.841463 -0.403333 0
0.939024 -0.403333 0
1.036585 -0.403333 0
1.134146 -0.403333 0
1.231707 -0.403333 0
1.329268 -0.403333 0
1.426829 -0.403333 0
1.524390 -0.403333 0
1.621951 -0.403333 0
1.719512 -0.403333 0
1.817073 -0.403333 0
1.914634 -0.403333 0
2.012195 -0.403333 0
2.109756 -0.403333 0
2.207317 -0.403333 0
2.304878 -0.403333 0
2.402439 -0.403333 0
2.500000 -0.403333 0
2.597561 -0.403333 0
2.695122 -0.403333 0
2.792683 -0.403333 0
2.890244 -0.403333 0
2.987805 -0.403333 0
3.085366 -0.403333 0
3.182927 -0.403333 0
3.280488 -0.403333 0
3.378049 -0.403333 0
3.475610 -0.403333 0
3.573171 -0.403333 0
3.670732 -0.403333 0
3.768293 -0.403333 0
3.865854 -0.403333 0
3.963415 -0.403333 0
4.060976 -0.403333 0
4.158537 -0.403333 0
4.256098 -0.403333 0
4.353659 -0.403333 0
4.451220 -0.403333 0
4.548780 -0.403333 0
4.646341 -0.403333 0
4.743902 -0.403333 0
4.841463 -0.403333 0
4.939024 -0.403333 0
5.036585 -0.403333 0
5.134146 -0.403333 0
5.231707 -0.403333 0
5.329268 -0.403333 0
5.426829 -0.403333 0
5.524390 -0.403333 0
5.621951 -0.403333 0
5.719512 -0.403333 0
5.817073 -0.403333 0
5.914634 -0.403333 0
6.012195 -0.403333 0
6.109756 -0.403333 0
6.207317 -0.403333 0
6.304878 -0.403333 0
6.402439 -0.403333 0
-1.500000 -0.355000 0
-1.402439 -0.355000 0
-1.304878 -0.355000 0
-1.207317 -0.355000 0
-1.109756 -0.355000 0
-1.012195 -0.355000 0
-0.914634 -0.355000 0
-0.817073 -0.355000 0
-0.719512 -0.355000 0
-0.621951 -0.355000 0
-0.524390 -0.355000 0
-0.426829 -0.355000 0
-0.329268 -0.355000 0
-0.231707 -0.355000 0
-0.134146 -0.355000 0
-0.036585 -0.355000 0
0.060976 -0.355000 0
0.158537 -0.355000 0
0.256098 -0.355000 0
0.353659 -0.355000 0
0.451220 -0.355000 0
0.548780 -0.355000 0
0.646341 -0.355000 0
0.743902 -0.355000 0
0.841463 -0.355000 0
0.939024 -0.355000 0
1.036585 -0.355000 0
1.134146 -0.355000 0
1.231707 -0.355000 0
1.329268 -0.355000 0
1.426829 -0.355000 0
1.524390 -0.355000 0
1.621951 -0.355000 0
1.719512 -0.355000 0
1.817073 -0.355000 0
1.914634 -0.355000 0
2.012195 -0.355000 0
2.109756 -0.355000 0
2.207317 -0.355000 0
2.304878 -0.355000 0
2.402439 -0.355000 0
2.500000 -0.355000 0
2.597561 -0.355000 0
2.695122 -0.355000 0
2.792683 -0.355000 0
2.890244 -0.355000 0
2.987805 -0.355000 0
3.085366 -0.355000 0
3.182927 -0.355000 0
3.280488 -0.355000 0
3.378049 -0.355000 0
3.475610 -0.355000 0
3.573171 -0.355000 0
3.670732 -0.355000 0
3.768293 -0.355000 0
3.865854 -0.355000 0
3.963415 -0.355000 0
4.060976 -0.355000 0
4.158537 -0.355000 0
4.256098 -0.355000 0
4.353659 -0.355000 0
4.451220 -0.355000 0
4.548780 -0.355000 0
4.646341 -0.355000 0
4.743902 -0.355000 0
4.841463 -0.355000 0
4.939024 -0.355000 0
5.036585 -0.355000 0
5.134146 -0.355000 0
5.231707 -0.355000 0
5.329268 -0.355000 0
5.426829 -0.355000 0
5.524390 -0.355000 0
5.621951 -0.355000 0
5.719512 -0.355000 0
5.817073 -0.355000 0
5.914634 -0.355000 0
6.012195 -0.355000 0
6.109756 -0.355000 0
6.207317 -0.355000 0
6.304878 -0.355000 0
6.402439 -0.355000 0
-1.500000 -0.306667 0
-1.402439 -0.306667 0
-1.304878 -0.306667 0
-1.207317 -0.306667 0
-1.109756 -0.306667 0
-1.012195 -0.306667 0
-0.914634 -0.306667 0
-0.817073 -0.306667 0
-0.719512 -0.306667 0
-0.621951 -0.306667 0
-0.524390 -0.306667 0
-0.426829 -0.306667 0
-0.329268 -0.306667 0
-0.231707 -0.306667 0
-0.134146 -0.306667 0
-0.036585 -0.306667 0
0.060976 -0.306667 0
0.158537 -0.306667 0
0.256098 -0.306667 0
0.353659 -0.306667 0
0.451220 -0.306667 0
0.548780 -0.306667 0
0.646341 -0.306667 0
0.743902 -0.306667 0
0.841463 -0.306667 0
0.939024 -0.306667 0
1.036585 -0.306667 0
1.134146 -0.306667 0
1.231707 -0.306667 0
1.329268 -0.306667 0
1.426829 -0.306667 0
1.524390 -0.306667 0
1.621951 -0.306667 0
1.719512 -0.306667 0
1.817073 -0.306667 0
1.914634 -0.306667 0
2.012195 -0.306667 0
2.109756 -0.306667 0
2.207317 -0.306667 0
2.304878 -0.306667 0
2.402439 -0.306667 0
2.500000 -0.306667 0
2.597561 -0.306667 0
2.695122 -0.306667 0
2.792683 -0.306667 0
2.890244 -0.306667 0
2.987805 -0.306667 0
3.085366 -0.306667 0
3.182927 -0.306667 0
3.280488 -0.306667 0
3.378049 -0.306667 0
3.475610 -0.306667 0
3.573171 -0.306667 0
3.670732 -0.306667 0
3.768293 -0.306667 0
3.865854 -0.306667 0
3.963415 -0.306667 0
4.060976 -0.306667 0
4.158537 -0.306667 0
4.256098 -0.306667 0
4.353659 -0.306667 0
4.451220 -0.306667 0
4.548780 -0.306667 0
4.646341 -0.306667 0
4.743902 -0.306667 0
4.841463 -0.306667 0
4.939024 -0.306667 0
5.036585 -0.306667 0
5.134146 -0.306667 0
5.231707 -0.306667 0
5.329268 -0.306667 0
5.426829 -0.306667 0
5.524390 -0.306667 0
5.621951 -0.306667 0
5.719512 -0.306667 0
5.817073 -0.306667 0
5.914634 -0.306667 0
6.012195 -0.306667 0
6.109756 -0.306667 0
6.207317 -0.306667 0
6.304878 -0.306667 0
6.402439 -0.306667 0
-1.500000 -0.258333 0
-1.402439 -0.258333 0
-1.304878 -0.258333 0
-1.207317 -0.258333 0
-1.109756 -0.258333 0
-1.012195 -0.258333 0
-0.914634 -0.258333 0
-0.817073 -0.258333 0
-0.719512 -0.258333 0
-0.621951 -0.258333 0
-0.524390 -0.258333 0
-0.426829 -0.258333 0
-0.329268 -0.258333 0
-0.231707 -0.258333 0
-0.134146 -0.258333 0
-0.036585 -0.258333 0
0.060976 -0.258333 0
0.158537 -0.258333 0
0.256098 -0.258333 0
0.353659 -0.258333 0
0.451220 -0.258333 0
0.548780 -0.258333 0
0.646341 -0.258333 0
0.743902 -0.258333 0
0.841463 -0.258333 0
0.939024 -0.258333 0
1.036585 -0.258333 0
1.134146 -0.258333 0
1.231707 -0.258333 0
1.329268 -0.258333 0
1.426829 -0.258333 0
1.524390 -0.258333 0
1.621951 -0.258333 0
1.719512 -0.258333 0
1.817073 -0.258333 0
1.914634 -0.258333 0
2.012195 -0.258333 0
2.109756 -0.258333 0
2.207317 -0.258333 0
2.304878 -0.258333 0
2.402439 -0.258333 0
2.500000 -0.258333 0
2.597561 -0.258333 0
2.695122 -0.258333 0
2.792683 -0.258333 0
2.890244 -0.258333 0
2.987805 -0.258333 0
3.085366 -0.258333 0
3.182927 -0.258333 0
3.280488 -0.258333 0
3.378049 -0.258333 0
3.475610 -0.258333 0
3.573171 -0.258333 0
[...]
POINT_DATA 4920 

VECTORS velocity float
0.000000 0.000000 0
0.000000 0.000000 0
0.000000 0.000000 0
0.000000 0.000000 0
0.000000 0.000000 0
0.000000 0.000000 0
0.000000 0.000000 0
0.000000 0.000000 0
0.000000 0.000000 0
0.000000 0.000000 0
0.000000 0.000000 0
0.000000 0.000000 0
0.000000 0.000000 0
0.000000 0.000000 0
0.000000 0.000000 0
-0.000003 0.000000 0
-0.000005 0.000000 0
-0.000006 0.000000 0
-0.000007 0.000000 0
-0.000007 0.000000 0
-0.000007 0.000000 0
-0.000006 0.000000 0
-0.000006 0.000000 0
-0.000005 0.000000 0
-0.000004 0.000000 0
-0.000003 0.000000 0
-0.000002 0.000000 0
-0.000000 0.000000 0
0.000002 0.000000 0
0.000004 0.000000 0
0.000006 0.000000 0
0.000008 0.000000 0
0.000010 0.000000 0
0.000012 0.000000 0
0.000014 0.000000 0
0.000016 0.000000 0
0.000018 0.000000 0
0.000019 0.000000 0
0.000021 0.000000 0
0.000023 0.000000 0
0.000025 0.000000 0
0.000027 0.000000 0
0.000028 0.000000 0
0.000029 0.000000 0
0.000030 0.000000 0
0.000030 0.000000 0
0.000029 0.000000 0
0.000028 0.000000 0
0.000027 0.000000 0
0.000024 0.000000 0
0.000021 0.000000 0
0.000017 0.000000 0
0.000012 0.000000 0
0.000006 0.000000 0
0.000000 0.000000 0
-0.000005 0.000000 0
-0.000000 0.000000 0
0.001828 0.000000 0
0.000000 0.000000 0
0.000000 0.000000 0
0.000000 0.000000 0
0.000000 0.000000 0
0.000000 0.000000 0
0.000000 0.000000 0
0.000000 0.000000 0
0.000000 0.000000 0
0.000000 0.000000 0
0.000000 0.000000 0
0.000000 0.000000 0
0.000000 0.000000 0
0.000000 0.000000 0
0.000000 0.000000 0
0.000000 0.000000 0
0.000000 0.000000 0
0.000000 0.000000 0
0.000000 0.000000 0
0.000000 0.000000 0
0.000000 0.000000 0
0.000000 0.000000 0
0.000000 0.000000 0
0.000000 0.000000 0
0.000000 0.000000 0
0.000000 0.000000 0
0.000000 0.000000 0
0.000000 0.000000 0
0.000000 0.000000 0
0.000000 0.000000 0
0.000000 0.000000 0
0.000000 0.000000 0
0.000000 0.000000 0
0.000000 0.000000 0
0.000000 0.000000 0
0.000000 0.000000 0
0.000000 0.000000 0
0.000000 0.000000 0
0.000000 0.000000 0
1.047198 -0.422775 0
2.519792 -0.738612 0
3.781775 -0.505413 0
4.625207 -0.265602 0
5.059028 -0.070264 0
5.170297 0.061848 0
5.066614 0.139710 0
4.833232 0.177778 0
4.534282 0.186609 0
4.216648 0.175169 0
3.912625 0.151332 0
3.642001 0.121836 0
3.414216 0.091983 0
3.230859 0.065355 0
3.088334 0.043800 0
2.980316 0.027727 0
2.899660 0.016606 0
2.839621 0.009458 0
2.794474 0.005232 0
2.759693 0.003000 0
2.731888 0.002043 0
2.708623 0.001846 0
2.688205 0.002065 0
2.669477 0.002490 0
2.651649 0.003008 0
2.634154 0.003575 0
2.616529 0.004193 0
2.598326 0.004905 0
2.579019 0.005784 0
2.557923 0.006938 0
2.534093 0.008512 0
2.506205 0.010702 0
2.472401 0.013771 0
2.430088 0.018060 0
2.375674 0.024010 0
2.304242 0.032158 0
2.209179 0.043104 0
2.081826 0.057336 0
1.911496 0.074941 0
1.685877 0.094522 0
1.395053 0.113023 0
1.029841 0.130168 0
0.611717 0.069385 0
-0.000000 0.000000 0
-0.001607 0.000000 0
0.000000 0.000000 0
0.000000 0.000000 0
0.000000 0.000000 0
0.000000 0.000000 0
0.000000 0.000000 0
0.000000 0.000000 0
0.000000 0.000000 0
0.000000 0.000000 0
0.000000 0.000000 0
0.000000 0.000000 0
0.000000 0.000000 0
0.000000 0.000000 0
0.000000 0.000000 0
0.000000 0.000000 0
0.000000 0.000000 0
0.000000 0.000000 0
0.000000 0.000000 0
0.000000 0.000000 0
0.000000 0.000000 0
0.000000 0.000000 0
0.000000 0.000000 0
0.000000 0.000000 0
0.000000 0.000000 0
0.000000 0.000000 0
0.000000 0.000000 0
0.000000 0.000000 0
0.000000 0.000000 0
0.000000 0.000000 0
0.000000 0.000000 0
0.000000 0.000000 0
0.000000 0.000000 0
0.000000 0.000000 0
0.000000 0.000000 0
0.000000 0.000000 0
0.000000 0.000000 0
0.000000 0.000000 0
1.160529 -0.517391 0
2.655677 -1.246732 0
3.830726 -1.354549 0
5.004967 -1.043058 0
5.866679 -0.632772 0
6.394072 -0.270046 0
6.650566 -0.003758 0
6.710600 0.166987 0
6.642304 0.263726 0
6.495181 0.305466 0
6.305407 0.307980 0
6.099033 0.284690 0
5.894167 0.246920 0
5.702576 0.203686 0
5.530977 0.161448 0
5.382194 0.124123 0
5.256220 0.093472 0
5.151202 0.069702 0
5.064290 0.052111 0
4.992298 0.039598 0
4.932147 0.031006 0
4.881120 0.025301 0
4.836960 0.021641 0
4.797869 0.019394 0
4.762448 0.018110 0
4.729613 0.017500 0
4.698498 0.017399 0
4.668366 0.017750 0
4.638522 0.018583 0
4.608218 0.020016 0
4.576564 0.022257 0
4.542405 0.025622 0
4.504184 0.030563 0
4.459751 0.037710 0
4.406106 0.047920 0
4.339054 0.062346 0
4.252735 0.082484 0
4.138991 0.110188 0
3.986571 0.147477 0
3.780206 0.196160 0
3.499947 0.255855 0
3.121770 0.325011 0
2.619876 0.387571 0
1.996782 0.507963 0
1.041782 0.301325 0
-0.000000 0.000000 0
-0.004709 0.000000 0
0.000000 0.000000 0
0.000000 0.000000 0
0.000000 0.000000 0
0.000000 0.000000 0
0.000000 0.000000 0
0.000000 0.000000 0
0.000000 0.000000 0
0.000000 0.000000 0
0.000000 0.000000 0
0.000000 0.000000 0
0.000000 0.000000 0
0.000000 0.000000 0
0.000000 0.000000 0
0.000000 0.000000 0
0.000000 0.000000 0
0.000000 0.000000 0
0.000000 0.000000 0
0.000000 0.000000 0
0.000000 0.000000 0
0.000000 0.000000 0
0.000000 0.000000 0
0.000000 0.000000 0
0.000000 0.000000 0
0.000000 0.000000 0
0.000000 0.000000 0
0.000000 0.000000 0
0.000000 0.000000 0
0.000000 0.000000 0
0.000000 0.000000 0
0.000000 0.000000 0
0.000000 0.000000 0
0.000000 0.000000 0
0.000000 0.000000 0
0.000000 0.000000 0
0.937140 -0.582993 0
2.636674 -1.322306 0
3.464522 -1.744227 0
4.647149 -1.902490 0
5.710693 -1.514058 0
6.434040 -0.953788 0
6.859172 -0.458615 0
7.082646 -0.094965 0
7.171028 0.143803 0
7.173124 0.284500 0
7.122126 0.353513 0
7.040257 0.371428 0
6.942380 0.355067 0
6.838582 0.318248 0
6.735812 0.271913 0
6.638740 0.224077 0
6.550196 0.179919 0
6.471474 0.142165 0
6.402661 0.111691 0
6.343011 0.088182 0
6.291312 0.070697 0
6.246192 0.058080 0
6.206317 0.049201 0
6.170510 0.043090 0
6.137786 0.038979 0
6.107349 0.036305 0
6.078553 0.034691 0
6.050861 0.033918 0
6.023786 0.033906 0
5.996843 0.034703 0
5.969483 0.036479 0
5.941024 0.039543 0
5.910564 0.044370 0
5.876860 0.051650 0
5.838173 0.062360 0
5.792038 0.077855 0
5.734945 0.099992 0
5.661864 0.131273 0
5.565545 0.174967 0
5.435497 0.235084 0
5.256359 0.316022 0
5.006216 0.420723 0
4.653531 0.549025 0
4.166029 0.687506 0
3.502230 0.847605 0
2.810325 0.988026 0
1.334522 0.518497 0
-0.000000 0.000000 0
-0.005803 0.000000 0
0.000000 0.000000 0
0.000000 0.000000 0
0.000000 0.000000 0
0.000000 0.000000 0
0.000000 0.000000 0
0.000000 0.000000 0
0.000000 0.000000 0
0.000000 0.000000 0
0.000000 0.000000 0
0.000000 0.000000 0
0.000000 0.000000 0
0.000000 0.000000 0
0.000000 0.000000 0
0.000000 0.000000 0
0.000000 0.000000 0
0.000000 0.000000 0
0.000000 0.000000 0
0.000000 0.000000 0
0.000000 0.000000 0
0.000000 0.000000 0
0.000000 0.000000 0
0.000000 0.000000 0
0.000000 0.000000 0
0.000000 0.000000 0
0.000000 0.000000 0
0.000000 0.000000 0
0.000000 0.000000 0
0.000000 0.000000 0
0.000000 0.000000 0
0.000000 0.000000 0
0.000000 0.000000 0
0.000000 0.000000 0
0.739489 -0.467900 0
2.146614 -1.317925 0
3.092568 -1.777546 0
3.866780 -2.242756 0
5.209740 -2.467339 0
6.165447 -1.928313 0
6.691082 -1.201748 0
6.949073 -0.591376 0
7.067937 -0.158257 0
7.114670 0.122163 0
7.118865 0.287953 0
7.100886 0.371291 0
7.072171 0.397029 0
7.038459 0.384603 0
7.002518 0.349257 0
6.965952 0.302692 0
6.930029 0.253405 0
6.895844 0.206990 0
6.864226 0.166563 0
6.835640 0.133345 0
6.810171 0.107275 0
6.787608 0.087564 0
6.767559 0.073115 0
6.749560 0.062795 0
6.733150 0.055592 0
6.717919 0.050685 0
6.703515 0.047455 0
6.689647 0.045485 0
6.676063 0.044532 0
6.662532 0.044511 0
6.648811 0.045486 0
6.634619 0.047669 0
6.619590 0.051447 0
6.603225 0.057410 0
6.584813 0.066427 0
6.563331 0.079732 0
6.537286 0.099061 0
6.504471 0.126837 0
6.461596 0.166408 0
6.403645 0.222334 0
6.322819 0.300653 0
6.206547 0.408833 0
6.034504 0.554506 0
5.773177 0.741253 0
5.379637 0.957944 0
4.811924 1.179602 0
4.145006 1.377514 0
3.359787 1.399568 0
1.494960 0.666160 0
-0.000000 0.000000 0
-0.005278 0.000000 0
0.000000 0.000000 0
0.000000 0.000000 0
0.000000 0.000000 0
0.000000 0.000000 0
0.000000 0.000000 0
0.000000 0.000000 0
0.000000 0.000000 0
0.000000 0.000000 0
0.000000 0.000000 0
0.000000 0.000000 0
0.000000 0.000000 0
0.000000 0.000000 0
0.000000 0.000000 0
0.000000 0.000000 0
0.000000 0.000000 0
0.000000 0.000000 0
0.000000 0.000000 0
0.000000 0.000000 0
0.000000 0.000000 0
0.000000 0.000000 0
0.000000 0.000000 0
0.000000 0.000000 0
0.000000 0.000000 0
0.000000 0.000000 0
0.000000 0.000000 0
0.000000 0.000000 0
0.000000 0.000000 0
0.000000 0.000000 0
0.000000 0.000000 0
0.000000 0.000000 0
0.537263 -0.369832 0
1.700845 -1.070571 0
2.547485 -1.752373 0
3.302682 -2.174505 0
4.128186 -2.793109 0
5.620771 -3.041288 0
6.353894 -2.247939 0
6.586662 -1.342009 0
6.620194 -0.645315 0
6.608097 -0.177005 0
6.593454 0.118572 0
6.583500 0.291329 0
6.582362 0.376647 0
6.589432 0.402355 0
6.601810 0.389574 0
6.616075 0.354169 0
6.629554 0.307825 0
6.640769 0.258810 0
6.649307 0.212519 0
6.655444 0.171991 0
6.659754 0.138471 0
6.662841 0.111978 0
6.665199 0.091808 0
6.667172 0.076930 0
6.668973 0.066247 0
6.670711 0.058765 0
6.672431 0.053661 0
6.674142 0.050311 0
6.675828 0.048291 0
6.677466 0.047351 0
6.679028 0.047408 0
6.680482 0.048532 0
6.681790 0.050956 0
6.682903 0.055096 0
6.683745 0.061599 0
6.684199 0.071414 0
6.684066 0.085906 0
6.683007 0.107015 0
6.680427 0.137490 0
6.675262 0.181224 0
6.665540 0.243719 0
6.647497 0.332729 0
6.613560 0.458858 0
6.548306 0.635422 0
6.420011 0.873457 0
6.172640 1.163727 0
5.758300 1.459262 0
5.206149 1.707438 0
4.566449 1.839518 0
3.659595 1.677750 0
1.553682 0.745739 0
-0.000000 0.000000 0
-0.003992 0.000000 0
0.000000 0.000000 0
0.000000 0.000000 0
0.000000 0.000000 0
0.000000 0.000000 0
0.000000 0.000000 0
0.000000 0.000000 0
0.000000 0.000000 0
0.000000 0.000000 0
0.000000 0.000000 0
0.000000 0.000000 0
0.000000 0.000000 0
0.000000 0.000000 0
0.000000 0.000000 0
0.000000 0.000000 0
0.000000 0.000000 0
0.000000 0.000000 0
0.000000 0.000000 0
0.000000 0.000000 0
0.000000 0.000000 0
0.000000 0.000000 0
0.000000 0.000000 0
0.000000 0.000000 0
0.000000 0.000000 0
0.000000 0.000000 0
0.000000 0.000000 0
0.000000 0.000000 0
0.000000 0.000000 0
0.000000 0.000000 0
0.377461 -0.267503 0
1.299541 -0.847438 0
2.063647 -1.467274 0
2.756261 -2.111502 0
3.396511 -2.560652 0
4.282268 -3.391175 0
5.832589 -3.569992 0
6.153327 -2.406832 0
5.983137 -1.333677 0
5.744254 -0.601996 0
5.591714 -0.145009 0
5.515582 0.134348 0
5.502594 0.293448 0
5.532922 0.368352 0
5.588745 0.387394 0
5.656574 0.371404 0
5.726699 0.335512 0
5.792947 0.290458 0
5.852071 0.243619 0
5.902979 0.199719 0
5.945958 0.161388 0
5.982031 0.129681 0
6.012481 0.104577 0
6.038565 0.085418 0
6.061372 0.071245 0
6.081781 0.061042 0
6.100461 0.053879 0
6.117913 0.048985 0
6.134501 0.045773 0
6.150498 0.043838 0
6.166117 0.042947 0
6.181547 0.043017 0
6.196975 0.044117 0
6.212622 0.046470 0
6.228763 0.050478 0
6.245765 0.056768 0
6.264124 0.066268 0
6.284505 0.080322 0
6.307792 0.100864 0
6.335130 0.130674 0
6.367925 0.173783 0
6.407721 0.236090 0
6.455743 0.326405 0
6.511335 0.457974 0
6.567601 0.650393 0
6.599820 0.927365 0
6.534327 1.285767 0
6.299768 1.658417 0
5.920124 1.967977 0
5.427721 2.165757 0
4.786784 2.169054 0
3.764166 1.827264 0
1.542501 0.773640 0
-0.000000 0.000000 0
-0.002626 0.000000 0
0.000000 0.000000 0
0.000000 0.000000 0
0.000000 0.000000 0
0.000000 0.000000 0
0.000000 0.000000 0
0.000000 0.000000 0
0.000000 0.000000 0
0.000000 0.000000 0
0.000000 0.000000 0
0.000000 0.000000 0
0.000000 0.000000 0
0.000000 0.000000 0
0.000000 0.000000 0
0.000000 0.000000 0
0.000000 0.000000 0
0.000000 0.000000 0
0.000000 0.000000 0
0.000000 0.000000 0
0.000000 0.000000 0
0.000000 0.000000 0
0.000000 0.000000 0
0.000000 0.000000 0
0.000000 0.000000 0
0.000000 0.000000 0
0.000000 0.000000 0
0.000000 0.000000 0
0.268804 -0.186950 0
0.997934 -0.645097 0
1.704536 -1.206531 0
2.321713 -1.792254 0
2.882134 -2.412696 0
3.396991 -2.930514 0
4.285577 -3.999983 0
5.745453 -3.968242 0
5.402871 -2.322523 0
4.739380 -1.139348 0
4.210303 -0.451398 0
3.921092 -0.063717 0
3.817084 0.162723 0
3.848320 0.282739 0
3.954176 0.333966 0
4.094105 0.341096 0
4.244050 0.321229 0
4.389412 0.286607 0
4.522231 0.245713 0
4.638985 0.204298 0
4.739033 0.166006 0
4.823475 0.132827 0
4.894306 0.105514 0
4.953827 0.083970 0
5.004284 0.067587 0
5.047676 0.055520 0
5.085676 0.046882 0
5.119630 0.040865 0
5.150594 0.036797 0
5.179385 0.034168 0
5.206645 0.032628 0
5.232896 0.031969 0
5.258597 0.032120 0
5.284203 0.033137 0
5.310220 0.035208 0
5.337271 0.038676 0
5.366169 0.044080 0
5.398018 0.052222 0
5.434338 0.064272 0
5.477228 0.081934 0
5.529580 0.107699 0
5.595340 0.145261 0
5.679798 0.200213 0
5.789779 0.281397 0
5.933364 0.403442 0
6.116103 0.591584 0
6.332207 0.889942 0
6.482007 1.312378 0
6.440507 1.763549 0
6.262115 2.139465 0
5.956347 2.400994 0
5.512880 2.501903 0
4.841781 2.362421 0
3.730219 1.876705 0
1.488062 0.766644 0
-0.000000 0.000000 0
-0.001596 0.000000 0
0.000000 0.000000 0
0.000000 0.000000 0
0.000000 0.000000 0
0.000000 0.000000 0
0.000000 0.000000 0
0.000000 0.000000 0
0.000000 0.000000 0
0.000000 0.000000 0
0.000000 0.000000 0
0.000000 0.000000 0
0.000000 0.000000 0
0.000000 0.000000 0
0.000000 0.000000 0
0.000000 0.000000 0
0.000000 0.000000 0
0.000000 0.000000 0
0.000000 0.000000 0
0.000000 0.000000 0
0.000000 0.000000 0
0.000000 0.000000 0
0.000000 0.000000 0
0.000000 0.000000 0
0.000000 0.000000 0
0.000000 0.000000 0
0.209907 -0.132277 0
0.807196 -0.493449 0
1.470450 -0.978738 0
2.054532 -1.503260 0
2.536724 -2.050676 0
2.940373 -2.644212 0
3.299113 -3.255941 0
4.069678 -4.554643 0
5.220374 -4.123518 0
3.917595 -1.908407 0
2.775582 -0.742859 0
2.001798 -0.196602 0
1.718080 0.049798 0
1.748448 0.170401 0
1.908728 0.225530 0
2.127911 0.246587 0
2.367144 0.243786 0
2.603451 0.225103 0
2.822175 0.197696 0
3.016008 0.166816 0
3.182442 0.136212 0
3.322054 0.108320 0
3.437271 0.084463 0
3.531458 0.065103 0
3.608267 0.050092 0
3.671210 0.038923 0
3.723415 0.030922 0
3.767521 0.025395 0
3.805660 0.021718 0
3.839505 0.019381 0
3.870342 0.018004 0
3.899164 0.017329 0
3.926758 0.017209 0
3.953800 0.017599 0
3.980938 0.018542 0
4.008881 0.020179 0
4.038505 0.022760 0
4.070963 0.026673 0
4.107843 0.032496 0
4.151368 0.041080 0
4.204673 0.053679 0
4.272196 0.072159 0
4.360219 0.099363 0
4.477669 0.139761 0
4.637113 0.200784 0
4.857059 0.296308 0
5.159190 0.452800 0
5.584020 0.746090 0
6.012410 1.232113 0
6.182550 1.767355 0
6.233616 2.207837 0
6.150423 2.536940 0
5.914326 2.721229 0
5.486647 2.710425 0
4.772767 2.442185 0
3.608121 1.856301 0
1.413217 0.738443 0
-0.000000 0.000000 0
-0.001099 0.000000 0
0.000000 0.000000 0
0.000000 0.000000 0
0.000000 0.000000 0
0.000000 0.000000 0
0.000000 0.000000 0
0.000000 0.000000 0
0.000000 0.000000 0
0.000000 0.000000 0
0.000000 0.000000 0
0.000000 0.000000 0
0.000000 0.000000 0
0.000000 0.000000 0
0.000000 0.000000 0
0.000000 0.000000 0
0.000000 0.000000 0
0.000000 0.000000 0
0.000000 0.000000 0
0.000000 0.000000 0
0.000000 0.000000 0
0.000000 0.000000 0
0.000000 0.000000 0
0.000000 0.000000 0
0.195855 -0.102626 0
0.725794 -0.397640 0
1.362185 -0.810551 0
1.930085 -1.263048 0
2.382889 -1.734780 0
2.710776 -2.231115 0
2.935723 -2.790396 0
3.101979 -3.489990 0
3.572239 -4.951808 0
4.021951 -3.892897 0
1.556859 -1.111333 0
0.420803 -0.190230 0
0.057396 0.072506 0
0.023962 0.061797 0
0.157913 0.068273 0
0.367916 0.094746 0
0.613146 0.106860 0
0.865651 0.105506 0
1.105229 0.095799 0
1.320023 0.082220 0
1.504280 0.067231 0
1.656741 0.052678 0
1.779223 0.039759 0
1.875384 0.029085 0
1.949713 0.020800 0
2.006794 0.014735 0
2.050824 0.010540 0
2.085360 0.007806 0
2.113240 0.006137 0
2.136620 0.005203 0
2.157078 0.004752 0
2.175741 0.004612 0
2.193418 0.004678 0
2.210719 0.004901 0
2.228155 0.005279 0
2.246242 0.005849 0
2.265582 0.006688 0
2.286974 0.007920 0
2.311524 0.009729 0
2.340813 0.012388 0
2.377117 0.016301 0
2.423733 0.022074 0
2.485469 0.030639 0
2.569387 0.043467 0
2.686033 0.063035 0
2.851496 0.093441 0
3.091316 0.144796 0
3.449594 0.231436 0
4.005294 0.467243 0
4.927580 1.015856 0
5.410525 1.653959 0
5.788328 2.155381 0
5.994594 2.559176 0
6.006177 2.830749 0
5.810232 2.927969 0
5.372289 2.807358 0
4.622381 2.435532 0
3.444454 1.792433 0
1.339735 0.700529 0
-0.000000 0.000000 0
-0.001262 0.000000 0
0.000000 0.000000 0
0.000000 0.000000 0
0.000000 0.000000 0
0.000000 0.000000 0
0.000000 0.000000 0
0.000000 0.000000 0
0.000000 0.000000 0
0.000000 0.000000 0
0.000000 0.000000 0
0.000000 0.000000 0
0.000000 0.000000 0
0.000000 0.000000 0
0.000000 0.000000 0
0.000000 0.000000 0
0.000000 0.000000 0
0.000000 0.000000 0
0.000000 0.000000 0
0.000000 0.000000 0
0.000000 0.000000 0
0.000000 0.000000 0
0.225574 -0.095338 0
0.752245 -0.356512 0
1.381588 -0.708731 0
1.942317 -1.090075 0
2.381210 -1.484411 0
2.679720 -1.890027 0
2.839164 -2.324559 0
2.878277 -2.838021 0
2.825028 -3.571281 0
2.797217 -5.010412 0
1.635126 -3.000727 0
0.000002 0.000000 0
0.000004 0.000000 0
0.000004 0.000000 0
0.000004 0.000000 0
0.000004 0.000000 0
0.000003 0.000000 0
0.000003 0.000000 0
0.000003 0.000000 0
0.000004 0.000000 0
0.000004 0.000000 0
0.000004 0.000000 0
0.000003 0.000000 0
0.000002 0.000000 0
0.000001 0.000000 0
-0.000001 0.000000 0
-0.000002 0.000000 0
-0.000004 0.000000 0
-0.000006 0.000000 0
-0.000008 0.000000 0
-0.000010 0.000000 0
-0.000011 0.000000 0
-0.000013 0.000000 0
-0.000015 0.000000 0
-0.000017 0.000000 0
-0.000020 0.000000 0
-0.000022 0.000000 0
-0.000024 0.000000 0
-0.000026 0.000000 0
-0.000028 0.000000 0
-0.000029 0.000000 0
-0.000030 0.000000 0
-0.000031 0.000000 0
-0.000032 0.000000 0
-0.000033 0.000000 0
-0.000033 0.000000 0
-0.000034 0.000000 0
-0.000034 0.000000 0
-0.000035 0.000000 0
-0.000035 0.000000 0
2.092703 0.522068 0
3.767401 1.340926 0
4.764657 1.918480 0
5.408492 2.429014 0
5.753515 2.812565 0
5.827569 3.024464 0
5.644976 3.030666 0
5.192905 2.811383 0
4.431449 2.367210 0
3.281482 1.708903 0
1.285308 0.663700 0
-0.000000 0.000000 0
-0.002097 0.000000 0
0.000000 0.000000 0
0.000000 0.000000 0
0.000000 0.000000 0
0.000000 0.000000 0
0.000000 0.000000 0
0.000000 0.000000 0
0.000000 0.000000 0
0.000000 0.000000 0
0.000000 0.000000 0
0.000000 0.000000 0
0.000000 0.000000 0
0.000000 0.000000 0
0.000000 0.000000 0
0.000000 0.000000 0
0.000000 0.000000 0
0.000000 0.000000 0
0.000000 0.000000 0
0.000000 0.000000 0
0.309260 -0.109699 0
0.898197 -0.368928 0
1.542624 -0.673642 0
2.097127 -0.987221 0
2.520385 -1.305780 0
2.797431 -1.628370 0
2.927053 -1.961658 0
2.918699 -2.329483 0
2.785001 -2.783392 0
2.522264 -3.449832 0
2.017893 -4.379339 0
0.037611 0.000004 0
-0.073447 2.449680 0
0.384358 0.000000 0
0.310535 0.000000 0
0.238004 0.000000 0
0.185797 0.000000 0
0.100193 0.000000 0
-0.005449 0.000000 0
-0.115503 0.000000 0
-0.218412 0.000000 0
-0.308874 0.000000 0
-0.384373 0.000000 0
-0.444581 0.000000 0
-0.490705 0.000000 0
-0.524837 0.000000 0
-0.549415 0.000000 0
-0.566826 0.000000 0
-0.579161 0.000000 0
-0.588105 0.000000 0
-0.594920 0.000000 0
-0.600496 0.000000 0
-0.605426 0.000000 0
-0.610092 0.000000 0
-0.614740 0.000000 0
-0.619539 0.000000 0
-0.624636 0.000000 0
-0.630198 0.000000 0
-0.636446 0.000000 0
-0.643701 0.000000 0
-0.652436 0.000000 0
-0.663343 0.000000 0
-0.677444 0.000000 0
-0.696249 0.000000 0
-0.722002 0.000000 0
-0.758095 0.000000 0
-0.809741 0.000000 0
-0.885332 0.000000 0
-0.998353 0.000000 0
-1.177605 0.000000 0
-1.465508 0.135037 0
0.000000 0.000013 0
1.712120 0.333633 0
3.323868 1.342357 0
4.440207 2.069279 0
5.163342 2.623131 0
5.542742 2.981741 0
5.625253 3.121781 0
5.438679 3.036734 0
4.984725 2.739384 0
4.244157 2.260489 0
3.159611 1.627022 0
1.268077 0.636776 0
-0.000000 0.000000 0
-0.003817 0.000000 0
0.000000 0.000000 0
0.000000 0.000000 0
0.000000 0.000000 0
0.000000 0.000000 0
0.000000 0.000000 0
0.000000 0.000000 0
0.000000 0.000000 0
0.000000 0.000000 0
0.000000 0.000000 0
0.000000 0.000000 0
0.000000 0.000000 0
0.000000 0.000000 0
0.000000 0.000000 0
0.000000 0.000000 0
0.000000 0.000000 0
0.000000 0.000000 0