# vtk DataFile Version 2.0
generated by CFD-lab course output (written by Tobias Neckel) 
ASCII

DATASET STRUCTURED_GRID
DIMENSIONS  82 60 1 
POINTS 4920 float

-1.500000 -0.500000 0
-1.402439 -0.500000 0
-1.304878 -0.500000 0
-1.207317 -0.500000 0
-1.109756 -0.500000 0
-1.012195 -0.500000 0
-0.914634 -0.500000 0
-0.817073 -0.500000 0
-0.719512 -0.500000 0
-0.621951 -0.500000 0
-0.524390 -0.500000 0
-0.426829 -0.500000 0
-0.329268 -0.500000 0
-0.231707 -0.500000 0
-0.134146 -0.500000 0
-0.036585 -0.500000 0
0.060976 -0.500000 0
0.158537 -0.500000 0
0.256098 -0.500000 0
0.353659 -0.500000 0
0.451220 -0.500000 0
0.548780 -0.500000 0
0.646341 -0.500000 0
0.743902 -0.500000 0
0.841463 -0.500000 0
0.939024 -0.500000 0
1.036585 -0.500000 0
1.134146 -0.500000 0
1.231707 -0.500000 0
1.329268 -0.500000 0
1.426829 -0.500000 0
1.524390 -0.500000 0
1.621951 -0.500000 0
1.719512 -0.500000 0
1.817073 -0.500000 0
1.914634 -0.500000 0
2.012195 -0.500000 0
2.109756 -0.500000 0
2.207317 -0.500000 0
2.304878 -0.500000 0
2.402439 -0.500000 0
2.500000 -0.500000 0
2.597561 -0.500000 0
2.695122 -0.500000 0
2.792683 -0.500000 0
2.890244 -0.500000 0
2.987805 -0.500000 0
3.085366 -0.500000 0
3.182927 -0.500000 0
3.280488 -0.500000 0
3.378049 -0.500000 0
3.475610 -0.500000 0
3.573171 -0.500000 0
3.670732 -0.500000 0
3.768293 -0.500000 0
3.865854 -0.500000 0
3.963415 -0.500000 0
4.060976 -0.500000 0
4.158537 -0.500000 0
4.256098 -0.500000 0
4.353659 -0.500000 0
4.451220 -0.500000 0
4.548780 -0.500000 0
4.646341 -0.500000 0
4.743902 -0.500000 0
4.841463 -0.500000 0
4.939024 -0.500000 0
5.036585 -0.500000 0
5.134146 -0.500000 0
5.231707 -0.500000 0
5.329268 -0.500000 0
5.426829 -0.500000 0
5.524390 -0.500000 0
5.621951 -0.500000 0
5.719512 -0.500000 0
5.817073 -0.500000 0
5.914634 -0.500000 0
6.012195 -0.500000 0
6.109756 -0.500000 0
6.207317 -0.500000 0
6.304878 -0.500000 0
6.402439 -0.500000 0
-1.500000 -0.451667 0
-1.402439 -0.451667 0
-1.304878 -0.451667 0
-1.207317 -0.451667 0
-1.109756 -0.451667 0
-1.012195 -0.451667 0
-0.914634 -0.451667 0
-0.817073 -0.451667 0
-0.719512 -0.451667 0
-0.621951 -0.451667 0
-0.524390 -0.451667 0
-0.426829 -0.451667 0
-0.329268 -0.451667 0
-0.231707 -0.451667 0
-0.134146 -0.451667 0
-0.036585 -0.451667 0
0.060976 -0.451667 0
0.158537 -0.451667 0
0.256098 -0.451667 0
0.353659 -0.451667 0
0.451220 -0.451667 0
0.548780 -0.451667 0
0.646341 -0.451667 0
0.743902 -0.451667 0
0.841463 -0.451667 0
0.939024 -0.451667 0
1.036585 -0.451667 0
1.134146 -0.451667 0
1.231707 -0.451667 0
1.329268 -0.451667 0
1.426829 -0.451667 0
1.524390 -0.451667 0
1.621951 -0.451667 0
1.719512 -0.451667 0
1.817073 -0.451667 0
1.914634 -0.451667 0
2.012195 -0.451667 0
2.109756 -0.451667 0
2.207317 -0.451667 0
2.304878 -0.451667 0
2.402439 -0.451667 0
2.500000 -0.451667 0
2.597561 -0.451667 0
2.695122 -0.451667 0
2.792683 -0.451667 0
2.890244 -0.451667 0
2.987805 -0.451667 0
3.085366 -0.451667 0
3.182927 -0.451667 0
3.280488 -0.451667 0
3.378049 -0.451667 0
3.475610 -0.451667 0
3.573171 -0.451667 0
3.670732 -0.451667 0
3.768293 -0.451667 0
3.865854 -0.451667 0
3.963415 -0.451667 0
4.060976 -0.451667 0
4.158537 -0.451667 0
4.256098 -0.451667 0
4.353659 -0.451667 0
4.451220 -0.451667 0
4.548780 -0.451667 0
4.646341 -0.451667 0
4.743902 -0.451667 0
4.841463 -0.451667 0
4.939024 -0.451667 0
5.036585 -0.451667 0
5.134146 -0.451667 0
5.231707 -0.451667 0
5.329268 -0.451667 0
5.426829 -0.451667 0
5.524390 -0.451667 0
5.621951 -0.451667 0
5.719512 -0.451667 0
5.817073 -0.451667 0
5.914634 -0.451667 0
6.012195 -0.451667 0
6.109756 -0.451667 0
6.207317 -0.451667 0
6.304878 -0.451667 0
6.402439 -0.451667 0
-1.500000 -0.403333 0
-1.402439 -0.403333 0
-1.304878 -0.403333 0
-1.207317 -0.403333 0
-1.109756 -0.403333 0
-1.012195 -0.403333 0
-0.914634 -0.403333 0
-0.817073 -0.403333 0
-0.719512 -0.403333 0
-0.621951 -0.403333 0
-0.524390 -0.403333 0
-0.426829 -0.403333 0
-0.329268 -0.403333 0
-0.231707 -0.403333 0
-0.134146 -0.403333 0
-0.036585 -0.403333 0
0.060976 -0.403333 0
0.158537 -0.403333 0
0.256098 -0.403333 0
0.353659 -0.403333 0
0.451220 -0.403333 0
0.548780 -0.403333 0
0.646341 -0.403333 0
0.743902 -0.403333 0
0.841463 -0.403333 0
0.939024 -0.403333 0
1.036585 -0.403333 0
1.134146 -0.403333 0
1.231707 -0.403333 0
1.329268 -0.403333 0
1.426829 -0.403333 0
1.524390 -0.403333 0
1.621951 -0.403333 0
1.719512 -0.403333 0
1.817073 -0.403333 0
1.914634 -0.403333 0
2.012195 -0.403333 0
2.109756 -0.403333 0
2.207317 -0.403333 0
2.304878 -0.403333 0
2.402439 -0.403333 0
2.500000 -0.403333 0
2.597561 -0.403333 0
2.695122 -0.403333 0
2.792683 -0.403333 0
2.890244 -0.403333 0
2.987805 -0.403333 0
3.085366 -0.403333 0
3.182927 -0.403333 0
3.280488 -0.403333 0
3.378049 -0.403333 0
3.475610 -0.403333 0
3.573171 -0.403333 0
3.670732 -0.403333 0
3.768293 -0.403333 0
3.865854 -0.403333 0
3.963415 -0.403333 0
4.060976 -0.403333 0
4.158537 -0.403333 0
4.256098 -0.403333 0
4.353659 -0.403333 0
4.451220 -0.403333 0
4.548780 -0.403333 0
4.646341 -0.403333 0
4.743902 -0.403333 0
4.841463 -0.403333 0
4.939024 -0.403333 0
5.036585 -0.403333 0
5.134146 -0.403333 0
5.231707 -0.403333 0
5.329268 -0.403333 0
5.426829 -0.403333 0
5.524390 -0.403333 0
5.621951 -0.403333 0
5.719512 -0.403333 0
5.817073 -0.403333 0
5.914634 -0.403333 0
6.012195 -0.403333 0
6.109756 -0.403333 0
6.207317 -0.403333 0
6.304878 -0.403333 0
6.402439 -0.403333 0
-1.500000 -0.355000 0
-1.402439 -0.355000 0
-1.304878 -0.355000 0
-1.207317 -0.355000 0
-1.109756 -0.355000 0
-1.012195 -0.355000 0
-0.914634 -0.355000 0
-0.817073 -0.355000 0
-0.719512 -0.355000 0
-0.621951 -0.355000 0
-0.524390 -0.355000 0
-0.426829 -0.355000 0
-0.329268 -0.355000 0
-0.231707 -0.355000 0
-0.134146 -0.355000 0
-0.036585 -0.355000 0
0.060976 -0.355000 0
0.158537 -0.355000 0
0.256098 -0.355000 0
0.353659 -0.355000 0
0.451220 -0.355000 0
0.548780 -0.355000 0
0.646341 -0.355000 0
0.743902 -0.355000 0
0.841463 -0.355000 0
0.939024 -0.355000 0
1.036585 -0.355000 0
1.134146 -0.355000 0
1.231707 -0.355000 0
1.329268 -0.355000 0
1.426829 -0.355000 0
1.524390 -0.355000 0
1.621951 -0.355000 0
1.719512 -0.355000 0
1.817073 -0.355000 0
1.914634 -0.355000 0
2.012195 -0.355000 0
2.109756 -0.355000 0
2.207317 -0.355000 0
2.304878 -0.355000 0
2.402439 -0.355000 0
2.500000 -0.355000 0
2.597561 -0.355000 0
2.695122 -0.355000 0
2.792683 -0.355000 0
2.890244 -0.355000 0
2.987805 -0.355000 0
3.085366 -0.355000 0
3.182927 -0.355000 0
3.280488 -0.355000 0
3.378049 -0.355000 0
3.475610 -0.355000 0
3.573171 -0.355000 0
3.670732 -0.355000 0
3.768293 -0.355000 0
3.865854 -0.355000 0
3.963415 -0.355000 0
4.060976 -0.355000 0
4.158537 -0.355000 0
4.256098 -0.355000 0
4.353659 -0.355000 0
4.451220 -0.355000 0
4.548780 -0.355000 0
4.646341 -0.355000 0
4.743902 -0.355000 0
4.841463 -0.355000 0
4.939024 -0.355000 0
5.036585 -0.355000 0
5.134146 -0.355000 0
5.231707 -0.355000 0
5.329268 -0.355000 0
5.426829 -0.355000 0
5.524390 -0.355000 0
5.621951 -0.355000 0
5.719512 -0.355000 0
5.817073 -0.355000 0
5.914634 -0.355000 0
6.012195 -0.355000 0
6.109756 -0.355000 0
6.207317 -0.355000 0
6.304878 -0.355000 0
6.402439 -0.355000 0
-1.500000 -0.306667 0
-1.402439 -0.306667 0
-1.304878 -0.306667 0
-1.207317 -0.306667 0
-1.109756 -0.306667 0
-1.012195 -0.306667 0
-0.914634 -0.306667 0
-0.817073 -0.306667 0
-0.719512 -0.306667 0
-0.621951 -0.306667 0
-0.524390 -0.306667 0
-0.426829 -0.306667 0
-0.329268 -0.306667 0
-0.231707 -0.306667 0
-0.134146 -0.306667 0
-0.036585 -0.306667 0
0.060976 -0.306667 0
0.158537 -0.306667 0
0.256098 -0.306667 0
0.353659 -0.306667 0
0.451220 -0.306667 0
0.548780 -0.306667 0
0.646341 -0.306667 0
0.743902 -0.306667 0
0.841463 -0.306667 0
0.939024 -0.306667 0
1.036585 -0.306667 0
1.134146 -0.306667 0
1.231707 -0.306667 0
1.329268 -0.306667 0
1.426829 -0.306667 0
1.524390 -0.306667 0
1.621951 -0.306667 0
1.719512 -0.306667 0
1.817073 -0.306667 0
1.914634 -0.306667 0
2.012195 -0.306667 0
2.109756 -0.306667 0
2.207317 -0.306667 0
2.304878 -0.306667 0
2.402439 -0.306667 0
2.500000 -0.306667 0
2.597561 -0.306667 0
2.695122 -0.306667 0
2.792683 -0.306667 0
2.890244 -0.306667 0
2.987805 -0.306667 0
3.085366 -0.306667 0
3.182927 -0.306667 0
3.280488 -0.306667 0
3.378049 -0.306667 0
3.475610 -0.306667 0
3.573171 -0.306667 0
3.670732 -0.306667 0
3.768293 -0.306667 0
3.865854 -0.306667 0
3.963415 -0.306667 0
4.060976 -0.306667 0
4.158537 -0.306667 0
4.256098 -0.306667 0
4.353659 -0.306667 0
4.451220 -0.306667 0
4.548780 -0.306667 0
4.646341 -0.306667 0
4.743902 -0.306667 0
4.841463 -0.306667 0
4.939024 -0.306667 0
5.036585 -0.306667 0
5.134146 -0.306667 0
5.231707 -0.306667 0
5.329268 -0.306667 0
5.426829 -0.306667 0
5.524390 -0.306667 0
5.621951 -0.306667 0
5.719512 -0.306667 0
5.817073 -0.306667 0
5.914634 -0.306667 0
6.012195 -0.306667 0
6.109756 -0.306667 0
6.207317 -0.306667 0
6.304878 -0.306667 0
6.402439 -0.306667 0
-1.500000 -0.258333 0
-1.402439 -0.258333 0
-1.304878 -0.258333 0
-1.207317 -0.258333 0
-1.109756 -0.258333 0
-1.012195 -0.258333 0
-0.914634 -0.258333 0
-0.817073 -0.258333 0
-0.719512 -0.258333 0
-0.621951 -0.258333 0
-0.524390 -0.258333 0
-0.426829 -0.258333 0
-0.329268 -0.258333 0
-0.231707 -0.258333 0
-0.134146 -0.258333 0
-0.036585 -0.258333 0
0.060976 -0.258333 0
0.158537 -0.258333 0
0.256098 -0.258333 0
0.353659 -0.258333 0
0.451220 -0.258333 0
0.548780 -0.258333 0
0.646341 -0.258333 0
0.743902 -0.258333 0
0.841463 -0.258333 0
0.939024 -0.258333 0
1.036585 -0.258333 0
1.134146 -0.258333 0
1.231707 -0.258333 0
1.329268 -0.258333 0
1.426829 -0.258333 0
1.524390 -0.258333 0
1.621951 -0.258333 0
1.719512 -0.258333 0
1.817073 -0.258333 0
1.914634 -0.258333 0
2.012195 -0.258333 0
2.109756 -0.258333 0
2.207317 -0.258333 0
2.304878 -0.258333 0
2.402439 -0.258333 0
2.500000 -0.258333 0
2.597561 -0.258333 0
2.695122 -0.258333 0
2.792683 -0.258333 0
2.890244 -0.258333 0
2.987805 -0.258333 0
3.085366 -0.258333 0
3.182927 -0.258333 0
3.280488 -0.258333 0
3.378049 -0.258333 0
3.475610 -0.258333 0
3.573171 -0.258333 0
[...]
POINT_DATA 4920 

VECTORS velocity float
0.000000 0.000000 0
0.000000 0.000000 0
0.000000 0.000000 0
0.000000 0.000000 0
0.000000 0.000000 0
0.000000 0.000000 0
0.000000 0.000000 0
0.000000 0.000000 0
0.000000 0.000000 0
0.000000 0.000000 0
0.000000 0.000000 0
0.000000 0.000000 0
0.000000 0.000000 0
0.000000 0.000000 0
0.000000 0.000000 0
-0.000024 0.000000 0
-0.000035 0.000000 0
-0.000039 0.000000 0
-0.000039 0.000000 0
-0.000037 0.000000 0
-0.000033 0.000000 0
-0.000028 0.000000 0
-0.000020 0.000000 0
-0.000008 0.000000 0
0.000008 0.000000 0
0.000027 0.000000 0
0.000048 0.000000 0
0.000067 0.000000 0
0.000083 0.000000 0
0.000095 0.000000 0
0.000101 0.000000 0
0.000103 0.000000 0
0.000101 0.000000 0
0.000096 0.000000 0
0.000089 0.000000 0
0.000080 0.000000 0
0.000072 0.000000 0
0.000062 0.000000 0
0.000053 0.000000 0
0.000044 0.000000 0
0.000035 0.000000 0
0.000028 0.000000 0
0.000022 0.000000 0
0.000015 0.000000 0
0.000008 0.000000 0
0.000001 0.000000 0
-0.000008 0.000000 0
-0.000018 0.000000 0
-0.000030 0.000000 0
-0.000042 0.000000 0
-0.000055 0.000000 0
-0.000065 0.000000 0
-0.000073 0.000000 0
-0.000074 0.000000 0
-0.000065 0.000000 0
-0.000042 0.000000 0
0.000000 0.000000 0
0.001906 0.000000 0
0.000000 0.000000 0
0.000000 0.000000 0
0.000000 0.000000 0
0.000000 0.000000 0
0.000000 0.000000 0
0.000000 0.000000 0
0.000000 0.000000 0
0.000000 0.000000 0
0.000000 0.000000 0
0.000000 0.000000 0
0.000000 0.000000 0
0.000000 0.000000 0
0.000000 0.000000 0
0.000000 0.000000 0
0.000000 0.000000 0
0.000000 0.000000 0
0.000000 0.000000 0
0.000000 0.000000 0
0.000000 0.000000 0
0.000000 0.000000 0
0.000000 0.000000 0
0.000000 0.000000 0
0.000000 0.000000 0
0.000000 0.000000 0
0.000000 0.000000 0
0.000000 0.000000 0
0.000000 0.000000 0
0.000000 0.000000 0
0.000000 0.000000 0
0.000000 0.000000 0
0.000000 0.000000 0
0.000000 0.000000 0
0.000000 0.000000 0
0.000000 0.000000 0
0.000000 0.000000 0
0.000000 0.000000 0
0.000000 0.000000 0
0.000000 0.000000 0
1.054120 -0.424939 0
2.532732 -0.742041 0
3.798702 -0.507358 0
4.644609 -0.266554 0
5.079693 -0.070490 0
5.191119 0.062217 0
5.086581 0.140622 0
4.851317 0.179225 0
4.549394 0.188589 0
4.227616 0.177660 0
3.918237 0.154264 0
3.641084 0.125082 0
3.405744 0.095367 0
3.214047 0.068691 0
3.062703 0.046924 0
2.945712 0.030522 0
2.856243 0.019009 0
2.787837 0.011446 0
2.735014 0.006803 0
2.693455 0.004168 0
2.659922 0.002829 0
2.632077 0.002271 0
2.608280 0.002144 0
2.587391 0.002238 0
2.568593 0.002448 0
2.551248 0.002742 0
2.534795 0.003130 0
2.518679 0.003648 0
2.502286 0.004356 0
2.484871 0.005349 0
2.465461 0.006758 0
2.442741 0.008768 0
2.414885 0.011633 0
2.379350 0.015695 0
2.332592 0.021412 0
2.269707 0.029353 0
2.184030 0.040180 0
2.066718 0.054478 0
1.906712 0.072504 0
1.690917 0.093040 0
1.408357 0.113318 0
1.047332 0.132676 0
0.629578 0.071170 0
0.000000 0.000000 0
-0.001780 0.000000 0
0.000000 0.000000 0
0.000000 0.000000 0
0.000000 0.000000 0
0.000000 0.000000 0
0.000000 0.000000 0
0.000000 0.000000 0
0.000000 0.000000 0
0.000000 0.000000 0
0.000000 0.000000 0
0.000000 0.000000 0
0.000000 0.000000 0
0.000000 0.000000 0
0.000000 0.000000 0
0.000000 0.000000 0
0.000000 0.000000 0
0.000000 0.000000 0
0.000000 0.000000 0
0.000000 0.000000 0
0.000000 0.000000 0
0.000000 0.000000 0
0.000000 0.000000 0
0.000000 0.000000 0
0.000000 0.000000 0
0.000000 0.000000 0
0.000000 0.000000 0
0.000000 0.000000 0
0.000000 0.000000 0
0.000000 0.000000 0
0.000000 0.000000 0
0.000000 0.000000 0
0.000000 0.000000 0
0.000000 0.000000 0
0.000000 0.000000 0
0.000000 0.000000 0
0.000000 0.000000 0
0.000000 0.000000 0
1.168653 -0.520801 0
2.672318 -1.253126 0
3.849363 -1.359507 0
5.025797 -1.046259 0
5.889418 -0.634624 0
6.418116 -0.270750 0
6.675181 -0.003413 0
6.735024 0.168343 0
6.665732 0.266132 0
6.516708 0.308992 0
6.323966 0.312686 0
6.113374 0.290578 0
5.902883 0.253898 0
5.704169 0.211561 0
5.523971 0.169948 0
5.365256 0.132938 0
5.228286 0.102284 0
5.111575 0.078214 0
5.012698 0.060059 0
4.928905 0.046758 0
4.857528 0.037202 0
4.796199 0.030407 0
4.742944 0.025584 0
4.696162 0.022138 0
4.654570 0.019662 0
4.617128 0.017906 0
4.582959 0.016744 0
4.551276 0.016135 0
4.521315 0.016105 0
4.492263 0.016749 0
4.463177 0.018244 0
4.432879 0.020872 0
4.399808 0.025057 0
4.361834 0.031404 0
4.315993 0.040769 0
4.258132 0.054319 0
4.182434 0.073600 0
4.080768 0.100564 0
3.941883 0.137387 0
3.750426 0.186178 0
3.486171 0.246893 0
3.124466 0.318843 0
2.637787 0.385307 0
2.026501 0.516507 0
1.061680 0.310058 0
-0.000002 0.000000 0
-0.004998 0.000000 0
0.000000 0.000000 0
0.000000 0.000000 0
0.000000 0.000000 0
0.000000 0.000000 0
0.000000 0.000000 0
0.000000 0.000000 0
0.000000 0.000000 0
0.000000 0.000000 0
0.000000 0.000000 0
0.000000 0.000000 0
0.000000 0.000000 0
0.000000 0.000000 0
0.000000 0.000000 0
0.000000 0.000000 0
0.000000 0.000000 0
0.000000 0.000000 0
0.000000 0.000000 0
0.000000 0.000000 0
0.000000 0.000000 0
0.000000 0.000000 0
0.000000 0.000000 0
0.000000 0.000000 0
0.000000 0.000000 0
0.000000 0.000000 0
0.000000 0.000000 0
0.000000 0.000000 0
0.000000 0.000000 0
0.000000 0.000000 0
0.000000 0.000000 0
0.000000 0.000000 0
0.000000 0.000000 0
0.000000 0.000000 0
0.000000 0.000000 0
0.000000 0.000000 0
0.946139 -0.587053 0
2.655065 -1.330566 0
3.483971 -1.751580 0
4.667004 -1.907993 0
5.732079 -1.518035 0
6.457023 -0.956332 0
6.883311 -0.459771 0
7.107439 -0.094785 0
7.195946 0.145304 0
7.197667 0.287382 0
7.145759 0.357906 0
7.062331 0.377479 0
6.962085 0.362876 0
6.854933 0.327809 0
6.747670 0.283087 0
6.644881 0.236594 0
6.549402 0.193411 0
6.462638 0.156201 0
6.384880 0.125814 0
6.315655 0.101943 0
6.254063 0.083677 0
6.199044 0.069913 0
6.149566 0.059596 0
6.104717 0.051831 0
6.063731 0.045926 0
6.025969 0.041392 0
5.990894 0.037925 0
5.958036 0.035366 0
5.926947 0.033670 0
5.897161 0.032884 0
5.868137 0.033158 0
5.839200 0.034768 0
5.809452 0.038152 0
5.777657 0.043965 0
5.742080 0.053156 0
5.700258 0.067071 0
5.648689 0.087579 0
5.582371 0.117222 0
5.494124 0.159353 0
5.373596 0.218134 0
5.205635 0.298271 0
4.968636 0.403151 0
4.631138 0.533621 0
4.161077 0.676627 0
3.513443 0.848228 0
2.842094 1.002779 0
1.352173 0.528562 0
-0.000002 0.000000 0
-0.006077 0.000000 0
0.000000 0.000000 0
0.000000 0.000000 0
0.000000 0.000000 0
0.000000 0.000000 0
0.000000 0.000000 0
0.000000 0.000000 0
0.000000 0.000000 0
0.000000 0.000000 0
0.000000 0.000000 0
0.000000 0.000000 0
0.000000 0.000000 0
0.000000 0.000000 0
0.000000 0.000000 0
0.000000 0.000000 0
0.000000 0.000000 0
0.000000 0.000000 0
0.000000 0.000000 0
0.000000 0.000000 0
0.000000 0.000000 0
0.000000 0.000000 0
0.000000 0.000000 0
0.000000 0.000000 0
0.000000 0.000000 0
0.000000 0.000000 0
0.000000 0.000000 0
0.000000 0.000000 0
0.000000 0.000000 0
0.000000 0.000000 0
0.000000 0.000000 0
0.000000 0.000000 0
0.000000 0.000000 0
0.000000 0.000000 0
0.748901 -0.472395 0
2.165918 -1.327107 0
3.112604 -1.786168 0
3.885052 -2.249874 0
5.228749 -2.473257 0
6.186213 -1.933065 0
6.713370 -1.204964 0
6.972401 -0.592977 0
7.091908 -0.158297 0
7.138944 0.123643 0
7.143185 0.290995 0
7.125033 0.376040 0
7.095889 0.403681 0
7.061415 0.393326 0
7.024261 0.360122 0
6.985908 0.315624 0
6.947521 0.268173 0
6.910140 0.223224 0
6.874608 0.183790 0
6.841456 0.151032 0
6.810892 0.124868 0
6.782853 0.104530 0
6.757112 0.088971 0
6.733366 0.077138 0
6.711308 0.068108 0
6.690654 0.061151 0
6.671156 0.055746 0
6.652602 0.051561 0
6.634804 0.048424 0
6.617580 0.046294 0
6.600733 0.045241 0
6.584012 0.045464 0
6.567071 0.047317 0
6.549415 0.051361 0
6.530321 0.058434 0
6.508732 0.069749 0
6.483101 0.087036 0
6.451164 0.112722 0
6.409592 0.150175 0
6.353398 0.203995 0
6.274931 0.280310 0
6.161941 0.386802 0
5.994723 0.531509 0
5.740523 0.718921 0
5.357794 0.939032 0
4.803532 1.169953 0
4.158592 1.383312 0
3.390062 1.415784 0
1.509837 0.675127 0
-0.000002 0.000000 0
-0.005477 0.000000 0
0.000000 0.000000 0
0.000000 0.000000 0
0.000000 0.000000 0
0.000000 0.000000 0
0.000000 0.000000 0
0.000000 0.000000 0
0.000000 0.000000 0
0.000000 0.000000 0
0.000000 0.000000 0
0.000000 0.000000 0
0.000000 0.000000 0
0.000000 0.000000 0
0.000000 0.000000 0
0.000000 0.000000 0
0.000000 0.000000 0
0.000000 0.000000 0
0.000000 0.000000 0
0.000000 0.000000 0
0.000000 0.000000 0
0.000000 0.000000 0
0.000000 0.000000 0
0.000000 0.000000 0
0.000000 0.000000 0
0.000000 0.000000 0
0.000000 0.000000 0
0.000000 0.000000 0
0.000000 0.000000 0
0.000000 0.000000 0
0.000000 0.000000 0
0.000000 0.000000 0
0.546441 -0.374546 0
1.720329 -1.080222 0
2.567027 -1.761733 0
3.320643 -2.182254 0
4.144039 -2.799954 0
5.638752 -3.048027 0
6.373794 -2.253541 0
6.607747 -1.345823 0
6.641985 -0.647305 0
6.630420 -0.177293 0
6.616240 0.119900 0
6.606752 0.294274 0
6.606162 0.381337 0
6.613868 0.408996 0
6.626966 0.398362 0
6.641991 0.365216 0
6.656203 0.321105 0
6.668048 0.274131 0
6.677047 0.229533 0
6.683429 0.190228 0
6.687748 0.157381 0
6.690607 0.130976 0
6.692515 0.110320 0
6.693837 0.094430 0
6.694810 0.082288 0
6.695571 0.072991 0
6.696188 0.065817 0
6.696687 0.060243 0
6.697071 0.055935 0
6.697337 0.052717 0
6.697482 0.050548 0
6.697495 0.049514 0
6.697353 0.049835 0
6.697001 0.051908 0
6.696339 0.056358 0
6.695190 0.064120 0
6.693269 0.076550 0
6.690116 0.095591 0
6.685002 0.123996 0
6.676741 0.165656 0
6.663295 0.226066 0
6.640949 0.312985 0
6.602382 0.437091 0
6.532771 0.611928 0
6.401438 0.849166 0
6.154307 1.140828 0
5.745019 1.442333 0
5.206678 1.703035 0
4.586302 1.849394 0
3.687361 1.693347 0
1.564870 0.753258 0
-0.000001 0.000000 0
-0.004089 0.000000 0
0.000000 0.000000 0
0.000000 0.000000 0
0.000000 0.000000 0
0.000000 0.000000 0
0.000000 0.000000 0
0.000000 0.000000 0
0.000000 0.000000 0
0.000000 0.000000 0
0.000000 0.000000 0
0.000000 0.000000 0
0.000000 0.000000 0
0.000000 0.000000 0
0.000000 0.000000 0
0.000000 0.000000 0
0.000000 0.000000 0
0.000000 0.000000 0
0.000000 0.000000 0
0.000000 0.000000 0
0.000000 0.000000 0
0.000000 0.000000 0
0.000000 0.000000 0
0.000000 0.000000 0
0.000000 0.000000 0
0.000000 0.000000 0
0.000000 0.000000 0
0.000000 0.000000 0
0.000000 0.000000 0
0.000000 0.000000 0
0.385754 -0.272085 0
1.318196 -0.857177 0
2.082433 -1.476955 0
2.773020 -2.119929 0
3.411214 -2.567447 0
4.295942 -3.398304 0
5.849617 -3.577915 0
6.171720 -2.413121 0
6.001869 -1.337830 0
5.763017 -0.604210 0
5.610729 -0.145543 0
5.535202 0.135368 0
5.523167 0.295988 0
5.554888 0.372515 0
5.612536 0.393374 0
5.682667 0.379393 0
5.755581 0.345638 0
5.825086 0.302715 0
5.887893 0.257847 0
5.942841 0.215604 0
5.990137 0.178489 0
6.030711 0.147475 0
6.065749 0.122506 0
6.096404 0.102930 0
6.123663 0.087835 0
6.148304 0.076280 0
6.170906 0.067425 0
6.191886 0.060598 0
6.211542 0.055309 0
6.230095 0.051239 0
6.247728 0.048221 0
6.264612 0.046215 0
6.280927 0.045305 0
6.296878 0.045709 0
6.312711 0.047820 0
6.328738 0.052258 0
6.345369 0.059954 0
6.363155 0.072263 0
6.382835 0.091132 0
6.405397 0.119349 0
6.432096 0.160929 0
6.464363 0.221726 0
6.503381 0.310487 0
6.548590 0.440395 0
6.593463 0.631060 0
6.614144 0.906418 0
6.538926 1.264232 0
6.299545 1.639424 0
5.923030 1.957360 0
5.441820 2.168479 0
4.811002 2.182739 0
3.786263 1.841536 0
1.548001 0.779275 0
0.000000 0.000000 0
-0.002635 0.000000 0
0.000000 0.000000 0
0.000000 0.000000 0
0.000000 0.000000 0
0.000000 0.000000 0
0.000000 0.000000 0
0.000000 0.000000 0
0.000000 0.000000 0
0.000000 0.000000 0
0.000000 0.000000 0
0.000000 0.000000 0
0.000000 0.000000 0
0.000000 0.000000 0
0.000000 0.000000 0
0.000000 0.000000 0
0.000000 0.000000 0
0.000000 0.000000 0
0.000000 0.000000 0
0.000000 0.000000 0
0.000000 0.000000 0
0.000000 0.000000 0
0.000000 0.000000 0
0.000000 0.000000 0
0.000000 0.000000 0
0.000000 0.000000 0
0.000000 0.000000 0
0.000000 0.000000 0
0.275718 -0.191074 0
1.014800 -0.654391 0
1.722073 -1.216478 0
2.337307 -1.800966 0
2.895406 -2.420033 0
3.408488 -2.936735 0
4.297463 -4.007979 0
5.761101 -3.977318 0
5.418347 -2.328969 0
4.753826 -1.143345 0
4.223659 -0.453527 0
3.934292 -0.064430 0
3.830774 0.163280 0
3.863322 0.284521 0
3.971375 0.337062 0
4.114235 0.345692 0
4.267948 0.327495 0
4.417966 0.294659 0
4.556352 0.255555 0
4.679570 0.215793 0
4.786915 0.178880 0
4.879373 0.146695 0
4.958779 0.119921 0
5.027239 0.098431 0
5.086780 0.081628 0
5.139162 0.068718 0
5.185828 0.058883 0
5.227910 0.051400 0
5.266275 0.045685 0
5.301592 0.041314 0
5.334394 0.038008 0
5.365135 0.035617 0
5.394241 0.034101 0
5.422151 0.033529 0
5.449357 0.034089 0
5.476464 0.036125 0
5.504252 0.040179 0
5.533776 0.047069 0
5.566491 0.057989 0
5.604426 0.074664 0
5.650406 0.099592 0
5.708313 0.136444 0
5.783382 0.190751 0
5.882389 0.271258 0
6.013384 0.392463 0
6.181977 0.579452 0
6.382731 0.876185 0
6.517388 1.296685 0
6.464695 1.747458 0
6.281388 2.127966 0
5.976886 2.400311 0
5.536852 2.513538 0
4.863968 2.379538 0
3.741061 1.888007 0
1.485723 0.769399 0
0.000001 0.000000 0
-0.001561 0.000000 0
0.000000 0.000000 0
0.000000 0.000000 0
0.000000 0.000000 0
0.000000 0.000000 0
0.000000 0.000000 0
0.000000 0.000000 0
0.000000 0.000000 0
0.000000 0.000000 0
0.000000 0.000000 0
0.000000 0.000000 0
0.000000 0.000000 0
0.000000 0.000000 0
0.000000 0.000000 0
0.000000 0.000000 0
0.000000 0.000000 0
0.000000 0.000000 0
0.000000 0.000000 0
0.000000 0.000000 0
0.000000 0.000000 0
0.000000 0.000000 0
0.000000 0.000000 0
0.000000 0.000000 0
0.000000 0.000000 0
0.000000 0.000000 0
0.215349 -0.135699 0
0.821597 -0.501818 0
1.486299 -0.988599 0
2.068823 -1.512369 0
2.548614 -2.058244 0
2.950193 -2.650610 0
3.307748 -3.262049 0
4.079766 -4.563828 0
5.233647 -4.133219 0
3.928097 -1.914100 0
2.783326 -0.745962 0
2.006827 -0.198199 0
1.721705 0.049099 0
1.752558 0.170528 0
1.914269 0.226332 0
2.135905 0.248208 0
2.378369 0.246447 0
2.619024 0.228920 0
2.843319 0.202757 0
3.044014 0.173112 0
3.218603 0.143622 0
3.367574 0.116618 0
3.493169 0.093345 0
3.598490 0.074220 0
3.686859 0.059092 0
3.761426 0.047481 0
3.824948 0.038764 0
3.879717 0.032313 0
3.927571 0.027571 0
3.969953 0.024095 0
4.007991 0.021561 0
4.042593 0.019758 0
4.074520 0.018572 0
4.104466 0.017969 0
4.133121 0.017999 0
4.161246 0.018801 0
4.189762 0.020624 0
4.219871 0.023865 0
4.253210 0.029121 0
4.292063 0.037262 0
4.339644 0.049559 0
4.400477 0.067881 0
4.480925 0.095050 0
4.589963 0.135486 0
4.740145 0.196540 0
4.949892 0.291974 0
5.240684 0.448079 0
5.652877 0.740250 0
6.067846 1.223626 0
6.228415 1.756342 0
6.274202 2.199028 0
6.187225 2.537335 0
5.946459 2.734098 0
5.511105 2.731201 0
4.784121 2.460147 0
3.602159 1.861820 0
1.401960 0.737255 0
0.000001 0.000000 0
-0.001065 0.000000 0
0.000000 0.000000 0
0.000000 0.000000 0
0.000000 0.000000 0
0.000000 0.000000 0
0.000000 0.000000 0
0.000000 0.000000 0
0.000000 0.000000 0
0.000000 0.000000 0
0.000000 0.000000 0
0.000000 0.000000 0
0.000000 0.000000 0
0.000000 0.000000 0
0.000000 0.000000 0
0.000000 0.000000 0
0.000000 0.000000 0
0.000000 0.000000 0
0.000000 0.000000 0
0.000000 0.000000 0
0.000000 0.000000 0
0.000000 0.000000 0
0.000000 0.000000 0
0.000000 0.000000 0
0.200088 -0.105306 0
0.737569 -0.404755 0
1.376085 -0.819828 0
1.942886 -1.272287 0
2.393427 -1.742767 0
2.718987 -2.237611 0
2.942339 -2.796120 0
3.108116 -3.496344 0
3.580178 -4.962102 0
4.031380 -3.902179 0
1.560058 -1.115039 0
0.419774 -0.191516 0
0.054332 0.072418 0
0.019709 0.061540 0
0.153438 0.067880 0
0.363920 0.094604 0
0.610290 0.107139 0
0.864929 0.106347 0
1.107743 0.097151 0
1.327004 0.084112 0
1.517009 0.069633 0
1.676432 0.055497 0
1.806911 0.042855 0
1.911826 0.032296 0
1.995328 0.023964 0
2.061638 0.017709 0
2.114606 0.013217 0
2.157479 0.010114 0
2.192851 0.008042 0
2.222702 0.006695 0
2.248503 0.005844 0
2.271337 0.005327 0
2.292024 0.005049 0
2.311219 0.004964 0
2.329510 0.005069 0
2.347490 0.005399 0
2.365842 0.006028 0
2.385439 0.007081 0
2.407471 0.008746 0
2.433612 0.011303 0
2.466251 0.015168 0
2.508824 0.020954 0
2.566286 0.029599 0
2.645843 0.042569 0
2.758145 0.062329 0
2.919322 0.092943 0
3.154861 0.144487 0
3.508673 0.231181 0
4.059310 0.466395 0
4.974834 1.011554 0
5.458402 1.645225 0
5.841607 2.148373 0
6.048787 2.562681 0
6.052343 2.848498 0
5.842011 2.955380 0
5.385795 2.833731 0
4.615123 2.449514 0
3.418810 1.789441 0
1.320085 0.694891 0
0.000001 0.000000 0
-0.001244 0.000000 0
0.000000 0.000000 0
0.000000 0.000000 0
0.000000 0.000000 0
0.000000 0.000000 0
0.000000 0.000000 0
0.000000 0.000000 0
0.000000 0.000000 0
0.000000 0.000000 0
0.000000 0.000000 0
0.000000 0.000000 0
0.000000 0.000000 0
0.000000 0.000000 0
0.000000 0.000000 0
0.000000 0.000000 0
0.000000 0.000000 0
0.000000 0.000000 0
0.000000 0.000000 0
0.000000 0.000000 0
0.000000 0.000000 0
0.000000 0.000000 0
0.228927 -0.097414 0
0.761663 -0.362311 0
1.393390 -0.716927 0
1.953483 -1.098952 0
2.390313 -1.492607 0
2.686415 -1.896862 0
2.843908 -2.330184 0
2.882074 -2.843392 0
2.829013 -3.578045 0
2.802635 -5.021228 0
1.638827 -3.007568 0
-0.000006 0.000000 0
0.000006 0.000000 0
0.000004 0.000000 0
-0.000004 0.000000 0
-0.000006 0.000000 0
-0.000003 0.000000 0
0.000001 0.000000 0
0.000001 0.000000 0
-0.000005 0.000000 0
-0.000018 0.000000 0
-0.000035 0.000000 0
-0.000056 0.000000 0
-0.000078 0.000000 0
-0.000099 0.000000 0
-0.000117 0.000000 0
-0.000130 0.000000 0
-0.000139 0.000000 0
-0.000143 0.000000 0
-0.000143 0.000000 0
-0.000141 0.000000 0
-0.000136 0.000000 0
-0.000130 0.000000 0
-0.000123 0.000000 0
-0.000117 0.000000 0
-0.000110 0.000000 0
-0.000104 0.000000 0
-0.000098 0.000000 0
-0.000091 0.000000 0
-0.000085 0.000000 0
-0.000079 0.000000 0
-0.000074 0.000000 0
-0.000069 0.000000 0
-0.000067 0.000000 0
-0.000066 0.000000 0
-0.000067 0.000000 0
-0.000069 0.000000 0
-0.000073 0.000000 0
-0.000079 0.000000 0
-0.000085 0.000000 0
2.109874 0.516603 0
3.794444 1.326929 0
4.815408 1.906542 0
5.473876 2.432933 0
5.814057 2.836538 0
5.869817 3.061420 0
5.663560 3.067967 0
5.186562 2.836297 0
4.401793 2.372088 0
3.237012 1.696065 0
1.259047 0.653906 0
0.000001 0.000000 0
-0.002076 0.000000 0
0.000000 0.000000 0
0.000000 0.000000 0
0.000000 0.000000 0
0.000000 0.000000 0
0.000000 0.000000 0
0.000000 0.000000 0
0.000000 0.000000 0
0.000000 0.000000 0
0.000000 0.000000 0
0.000000 0.000000 0
0.000000 0.000000 0
0.000000 0.000000 0
0.000000 0.000000 0
0.000000 0.000000 0
0.000000 0.000000 0
0.000000 0.000000 0
0.000000 0.000000 0
0.000000 0.000000 0
0.311929 -0.111340 0
0.905621 -0.373555 0
1.552210 -0.680489 0
2.106449 -0.995203 0
2.527914 -1.313720 0
2.802580 -1.635393 0
2.930056 -1.967486 0
2.920395 -2.334544 0
2.786501 -2.788741 0
2.524483 -3.456989 0
2.020988 -4.389539 0
0.037858 0.000038 0
-0.072935 2.455668 0
0.387266 0.000000 0
0.313650 0.000000 0
0.241081 0.000000 0
0.189422 0.000000 0
0.104065 0.000000 0
-0.001530 0.000000 0
-0.112191 0.000000 0
-0.216198 0.000000 0
-0.308308 0.000000 0
-0.386008 0.000000 0
-0.448901 0.000000 0
-0.498071 0.000000 0
-0.535448 0.000000 0
-0.563299 0.000000 0
-0.583850 0.000000 0
-0.599067 0.000000 0
-0.610542 0.000000 0
-0.619487 0.000000 0
-0.626772 0.000000 0
-0.632994 0.000000 0
-0.638556 0.000000 0
-0.643733 0.000000 0
-0.648733 0.000000 0
-0.653740 0.000000 0
-0.658952 0.000000 0
-0.664625 0.000000 0
-0.671108 0.000000 0
-0.678905 0.000000 0
-0.688748 0.000000 0
-0.701709 0.000000 0
-0.719355 0.000000 0
-0.743998 0.000000 0
-0.779097 0.000000 0
-0.829924 0.000000 0
-0.904911 0.000000 0
-1.017536 0.000000 0
-1.196568 0.000000 0
-1.484188 0.143611 0
0.000000 0.000102 0
1.719719 0.308268 0
3.368516 1.316354 0
4.514201 2.067934 0
5.237258 2.652342 0
5.596375 3.029938 0
5.651007 3.172227 0
5.435813 3.074614 0
4.955120 2.755281 0
4.193083 2.253075 0
3.100142 1.604859 0
1.237509 0.623727 0
0.000002 0.000000 0
-0.003747 0.000000 0
0.000000 0.000000 0
0.000000 0.000000 0
0.000000 0.000000 0
0.000000 0.000000 0
0.000000 0.000000 0
0.000000 0.000000 0
0.000000 0.000000 0
0.000000 0.000000 0
0.000000 0.000000 0
0.000000 0.000000 0
0.000000 0.000000 0
0.000000 0.000000 0
0.000000 0.000000 0
0.000000 0.000000 0
0.000000 0.000000 0
0.000000 0.000000 0