# vtk DataFile Version 2.0
generated by CFD-lab course output (written by Tobias Neckel) 
ASCII

DATASET STRUCTURED_GRID
DIMENSIONS  82 60 1 
POINTS 4920 float

-1.500000 -0.500000 0
-1.402439 -0.500000 0
-1.304878 -0.500000 0
-1.207317 -0.500000 0
-1.109756 -0.500000 0
-1.012195 -0.500000 0
-0.914634 -0.500000 0
-0.817073 -0.500000 0
-0.719512 -0.500000 0
-0.621951 -0.500000 0
-0.524390 -0.500000 0
-0.426829 -0.500000 0
-0.329268 -0.500000 0
-0.231707 -0.500000 0
-0.134146 -0.500000 0
-0.036585 -0.500000 0
0.060976 -0.500000 0
0.158537 -0.500000 0
0.256098 -0.500000 0
0.353659 -0.500000 0
0.451220 -0.500000 0
0.548780 -0.500000 0
0.646341 -0.500000 0
0.743902 -0.500000 0
0.841463 -0.500000 0
0.939024 -0.500000 0
1.036585 -0.500000 0
1.134146 -0.500000 0
1.231707 -0.500000 0
1.329268 -0.500000 0
1.426829 -0.500000 0
1.524390 -0.500000 0
1.621951 -0.500000 0
1.719512 -0.500000 0
1.817073 -0.500000 0
1.914634 -0.500000 0
2.012195 -0.500000 0
2.109756 -0.500000 0
2.207317 -0.500000 0
2.304878 -0.500000 0
2.402439 -0.500000 0
2.500000 -0.500000 0
2.597561 -0.500000 0
2.695122 -0.500000 0
2.792683 -0.500000 0
2.890244 -0.500000 0
2.987805 -0.500000 0
3.085366 -0.500000 0
3.182927 -0.500000 0
3.280488 -0.500000 0
3.378049 -0.500000 0
3.475610 -0.500000 0
3.573171 -0.500000 0
3.670732 -0.500000 0
3.768293 -0.500000 0
3.865854 -0.500000 0
3.963415 -0.500000 0
4.060976 -0.500000 0
4.158537 -0.500000 0
4.256098 -0.500000 0
4.353659 -0.500000 0
4.451220 -0.500000 0
4.548780 -0.500000 0
4.646341 -0.500000 0
4.743902 -0.500000 0
4.841463 -0.500000 0
4.939024 -0.500000 0
5.036585 -0.500000 0
5.134146 -0.500000 0
5.231707 -0.500000 0
5.329268 -0.500000 0
5.426829 -0.500000 0
5.524390 -0.500000 0
5.621951 -0.500000 0
5.719512 -0.500000 0
5.817073 -0.500000 0
5.914634 -0.500000 0
6.012195 -0.500000 0
6.109756 -0.500000 0
6.207317 -0.500000 0
6.304878 -0.500000 0
6.402439 -0.500000 0
-1.500000 -0.451667 0
-1.402439 -0.451667 0
-1.304878 -0.451667 0
-1.207317 -0.451667 0
-1.109756 -0.451667 0
-1.012195 -0.451667 0
-0.914634 -0.451667 0
-0.817073 -0.451667 0
-0.719512 -0.451667 0
-0.621951 -0.451667 0
-0.524390 -0.451667 0
-0.426829 -0.451667 0
-0.329268 -0.451667 0
-0.231707 -0.451667 0
-0.134146 -0.451667 0
-0.036585 -0.451667 0
0.060976 -0.451667 0
0.158537 -0.451667 0
0.256098 -0.451667 0
0.353659 -0.451667 0
0.451220 -0.451667 0
0.548780 -0.451667 0
0.646341 -0.451667 0
0.743902 -0.451667 0
0.841463 -0.451667 0
0.939024 -0.451667 0
1.036585 -0.451667 0
1.134146 -0.451667 0
1.231707 -0.451667 0
1.329268 -0.451667 0
1.426829 -0.451667 0
1.524390 -0.451667 0
1.621951 -0.451667 0
1.719512 -0.451667 0
1.817073 -0.451667 0
1.914634 -0.451667 0
2.012195 -0.451667 0
2.109756 -0.451667 0
2.207317 -0.451667 0
2.304878 -0.451667 0
2.402439 -0.451667 0
2.500000 -0.451667 0
2.597561 -0.451667 0
2.695122 -0.451667 0
2.792683 -0.451667 0
2.890244 -0.451667 0
2.987805 -0.451667 0
3.085366 -0.451667 0
3.182927 -0.451667 0
3.280488 -0.451667 0
3.378049 -0.451667 0
3.475610 -0.451667 0
3.573171 -0.451667 0
3.670732 -0.451667 0
3.768293 -0.451667 0
3.865854 -0.451667 0
3.963415 -0.451667 0
4.060976 -0.451667 0
4.158537 -0.451667 0
4.256098 -0.451667 0
4.353659 -0.451667 0
4.451220 -0.451667 0
4.548780 -0.451667 0
4.646341 -0.451667 0
4.743902 -0.451667 0
4.841463 -0.451667 0
4.939024 -0.451667 0
5.036585 -0.451667 0
5.134146 -0.451667 0
5.231707 -0.451667 0
5.329268 -0.451667 0
5.426829 -0.451667 0
5.524390 -0.451667 0
5.621951 -0.451667 0
5.719512 -0.451667 0
5.817073 -0.451667 0
5.914634 -0.451667 0
6.012195 -0.451667 0
6.109756 -0.451667 0
6.207317 -0.451667 0
6.304878 -0.451667 0
6.402439 -0.451667 0
-1.500000 -0.403333 0
-1.402439 -0.403333 0
-1.304878 -0.403333 0
-1.207317 -0.403333 0
-1.109756 -0.403333 0
-1.012195 -0.403333 0
-0.914634 -0.403333 0
-0.817073 -0.403333 0
-0.719512 -0.403333 0
-0.621951 -0.403333 0
-0.524390 -0.403333 0
-0.426829 -0.403333 0
-0.329268 -0.403333 0
-0.231707 -0.403333 0
-0.134146 -0.403333 0
-0.036585 -0.403333 0
0.060976 -0.403333 0
0.158537 -0.403333 0
0.256098 -0.403333 0
0.353659 -0.403333 0
0.451220 -0.403333 0
0.548780 -0.403333 0
0.646341 -0.403333 0
0.743902 -0.403333 0
0.841463 -0.403333 0
0.939024 -0.403333 0
1.036585 -0.403333 0
1.134146 -0.403333 0
1.231707 -0.403333 0
1.329268 -0.403333 0
1.426829 -0.403333 0
1.524390 -0.403333 0
1.621951 -0.403333 0
1.719512 -0.403333 0
1.817073 -0.403333 0
1.914634 -0.403333 0
2.012195 -0.403333 0
2.109756 -0.403333 0
2.207317 -0.403333 0
2.304878 -0.403333 0
2.402439 -0.403333 0
2.500000 -0.403333 0
2.597561 -0.403333 0
2.695122 -0.403333 0
2.792683 -0.403333 0
2.890244 -0.403333 0
2.987805 -0.403333 0
3.085366 -0.403333 0
3.182927 -0.403333 0
3.280488 -0.403333 0
3.378049 -0.403333 0
3.475610 -0.403333 0
3.573171 -0.403333 0
3.670732 -0.403333 0
3.768293 -0.403333 0
3.865854 -0.403333 0
3.963415 -0.403333 0
4.060976 -0.403333 0
4.158537 -0.403333 0
4.256098 -0.403333 0
4.353659 -0.403333 0
4.451220 -0.403333 0
4.548780 -0.403333 0
4.646341 -0.403333 0
4.743902 -0.403333 0
4.841463 -0.403333 0
4.939024 -0.403333 0
5.036585 -0.403333 0
5.134146 -0.403333 0
5.231707 -0.403333 0
5.329268 -0.403333 0
5.426829 -0.403333 0
5.524390 -0.403333 0
5.621951 -0.403333 0
5.719512 -0.403333 0
5.817073 -0.403333 0
5.914634 -0.403333 0
6.012195 -0.403333 0
6.109756 -0.403333 0
6.207317 -0.403333 0
6.304878 -0.403333 0
6.402439 -0.403333 0
-1.500000 -0.355000 0
-1.402439 -0.355000 0
-1.304878 -0.355000 0
-1.207317 -0.355000 0
-1.109756 -0.355000 0
-1.012195 -0.355000 0
-0.914634 -0.355000 0
-0.817073 -0.355000 0
-0.719512 -0.355000 0
-0.621951 -0.355000 0
-0.524390 -0.355000 0
-0.426829 -0.355000 0
-0.329268 -0.355000 0
-0.231707 -0.355000 0
-0.134146 -0.355000 0
-0.036585 -0.355000 0
0.060976 -0.355000 0
0.158537 -0.355000 0
0.256098 -0.355000 0
0.353659 -0.355000 0
0.451220 -0.355000 0
0.548780 -0.355000 0
0.646341 -0.355000 0
0.743902 -0.355000 0
0.841463 -0.355000 0
0.939024 -0.355000 0
1.036585 -0.355000 0
1.134146 -0.355000 0
1.231707 -0.355000 0
1.329268 -0.355000 0
1.426829 -0.355000 0
1.524390 -0.355000 0
1.621951 -0.355000 0
1.719512 -0.355000 0
1.817073 -0.355000 0
1.914634 -0.355000 0
2.012195 -0.355000 0
2.109756 -0.355000 0
2.207317 -0.355000 0
2.304878 -0.355000 0
2.402439 -0.355000 0
2.500000 -0.355000 0
2.597561 -0.355000 0
2.695122 -0.355000 0
2.792683 -0.355000 0
2.890244 -0.355000 0
2.987805 -0.355000 0
3.085366 -0.355000 0
3.182927 -0.355000 0
3.280488 -0.355000 0
3.378049 -0.355000 0
3.475610 -0.355000 0
3.573171 -0.355000 0
3.670732 -0.355000 0
3.768293 -0.355000 0
3.865854 -0.355000 0
3.963415 -0.355000 0
4.060976 -0.355000 0
4.158537 -0.355000 0
4.256098 -0.355000 0
4.353659 -0.355000 0
4.451220 -0.355000 0
4.548780 -0.355000 0
4.646341 -0.355000 0
4.743902 -0.355000 0
4.841463 -0.355000 0
4.939024 -0.355000 0
5.036585 -0.355000 0
5.134146 -0.355000 0
5.231707 -0.355000 0
5.329268 -0.355000 0
5.426829 -0.355000 0
5.524390 -0.355000 0
5.621951 -0.355000 0
5.719512 -0.355000 0
5.817073 -0.355000 0
5.914634 -0.355000 0
6.012195 -0.355000 0
6.109756 -0.355000 0
6.207317 -0.355000 0
6.304878 -0.355000 0
6.402439 -0.355000 0
-1.500000 -0.306667 0
-1.402439 -0.306667 0
-1.304878 -0.306667 0
-1.207317 -0.306667 0
-1.109756 -0.306667 0
-1.012195 -0.306667 0
-0.914634 -0.306667 0
-0.817073 -0.306667 0
-0.719512 -0.306667 0
-0.621951 -0.306667 0
-0.524390 -0.306667 0
-0.426829 -0.306667 0
-0.329268 -0.306667 0
-0.231707 -0.306667 0
-0.134146 -0.306667 0
-0.036585 -0.306667 0
0.060976 -0.306667 0
0.158537 -0.306667 0
0.256098 -0.306667 0
0.353659 -0.306667 0
0.451220 -0.306667 0
0.548780 -0.306667 0
0.646341 -0.306667 0
0.743902 -0.306667 0
0.841463 -0.306667 0
0.939024 -0.306667 0
1.036585 -0.306667 0
1.134146 -0.306667 0
1.231707 -0.306667 0
1.329268 -0.306667 0
1.426829 -0.306667 0
1.524390 -0.306667 0
1.621951 -0.306667 0
1.719512 -0.306667 0
1.817073 -0.306667 0
1.914634 -0.306667 0
2.012195 -0.306667 0
2.109756 -0.306667 0
2.207317 -0.306667 0
2.304878 -0.306667 0
2.402439 -0.306667 0
2.500000 -0.306667 0
2.597561 -0.306667 0
2.695122 -0.306667 0
2.792683 -0.306667 0
2.890244 -0.306667 0
2.987805 -0.306667 0
3.085366 -0.306667 0
3.182927 -0.306667 0
3.280488 -0.306667 0
3.378049 -0.306667 0
3.475610 -0.306667 0
3.573171 -0.306667 0
3.670732 -0.306667 0
3.768293 -0.306667 0
3.865854 -0.306667 0
3.963415 -0.306667 0
4.060976 -0.306667 0
4.158537 -0.306667 0
4.256098 -0.306667 0
4.353659 -0.306667 0
4.451220 -0.306667 0
4.548780 -0.306667 0
4.646341 -0.306667 0
4.743902 -0.306667 0
4.841463 -0.306667 0
4.939024 -0.306667 0
5.036585 -0.306667 0
5.134146 -0.306667 0
5.231707 -0.306667 0
5.329268 -0.306667 0
5.426829 -0.306667 0
5.524390 -0.306667 0
5.621951 -0.306667 0
5.719512 -0.306667 0
5.817073 -0.306667 0
5.914634 -0.306667 0
6.012195 -0.306667 0
6.109756 -0.306667 0
6.207317 -0.306667 0
6.304878 -0.306667 0
6.402439 -0.306667 0
-1.500000 -0.258333 0
-1.402439 -0.258333 0
-1.304878 -0.258333 0
-1.207317 -0.258333 0
-1.109756 -0.258333 0
-1.012195 -0.258333 0
-0.914634 -0.258333 0
-0.817073 -0.258333 0
-0.719512 -0.258333 0
-0.621951 -0.258333 0
-0.524390 -0.258333 0
-0.426829 -0.258333 0
-0.329268 -0.258333 0
-0.231707 -0.258333 0
-0.134146 -0.258333 0
-0.036585 -0.258333 0
0.060976 -0.258333 0
0.158537 -0.258333 0
0.256098 -0.258333 0
0.353659 -0.258333 0
0.451220 -0.258333 0
0.548780 -0.258333 0
0.646341 -0.258333 0
0.743902 -0.258333 0
0.841463 -0.258333 0
0.939024 -0.258333 0
1.036585 -0.258333 0
1.134146 -0.258333 0
1.231707 -0.258333 0
1.329268 -0.258333 0
1.426829 -0.258333 0
1.524390 -0.258333 0
1.621951 -0.258333 0
1.719512 -0.258333 0
1.817073 -0.258333 0
1.914634 -0.258333 0
2.012195 -0.258333 0
2.109756 -0.258333 0
2.207317 -0.258333 0
2.304878 -0.258333 0
2.402439 -0.258333 0
2.500000 -0.258333 0
2.597561 -0.258333 0
2.695122 -0.258333 0
2.792683 -0.258333 0
2.890244 -0.258333 0
2.987805 -0.258333 0
3.085366 -0.258333 0
3.182927 -0.258333 0
3.280488 -0.258333 0
3.378049 -0.258333 0
3.475610 -0.258333 0
3.573171 -0.258333 0
[...]
POINT_DATA 4920 

VECTORS velocity float
0.000000 0.000000 0
0.000000 0.000000 0
0.000000 0.000000 0
0.000000 0.000000 0
0.000000 0.000000 0
0.000000 0.000000 0
0.000000 0.000000 0
0.000000 0.000000 0
0.000000 0.000000 0
0.000000 0.000000 0
0.000000 0.000000 0
0.000000 0.000000 0
0.000000 0.000000 0
0.000000 0.000000 0
0.000000 0.000000 0
0.000000 0.000000 0
0.000000 0.000000 0
0.000000 0.000000 0
0.000000 0.000000 0
0.000000 0.000000 0
0.000000 0.000000 0
0.000000 0.000000 0
-0.000000 0.000000 0
-0.000000 0.000000 0
-0.000000 0.000000 0
-0.000000 0.000000 0
-0.000000 0.000000 0
0.000000 0.000000 0
0.000000 0.000000 0
0.000000 0.000000 0
0.000000 0.000000 0
0.000000 0.000000 0
-0.000000 0.000000 0
-0.000000 0.000000 0
-0.000000 0.000000 0
-0.000000 0.000000 0
-0.000000 0.000000 0
-0.000000 0.000000 0
-0.000000 0.000000 0
-0.000000 0.000000 0
-0.000000 0.000000 0
-0.000000 0.000000 0
-0.000000 0.000000 0
-0.000000 0.000000 0
-0.000000 0.000000 0
-0.000000 0.000000 0
-0.000000 0.000000 0
-0.000000 0.000000 0
-0.000000 0.000000 0
-0.000000 0.000000 0
0.000000 0.000000 0
0.000000 0.000000 0
0.000000 0.000000 0
0.000000 0.000000 0
0.000000 0.000000 0
0.000000 0.000000 0
-0.000000 0.000000 0
0.001914 0.000000 0
0.000000 0.000000 0
0.000000 0.000000 0
0.000000 0.000000 0
0.000000 0.000000 0
0.000000 0.000000 0
0.000000 0.000000 0
0.000000 0.000000 0
0.000000 0.000000 0
0.000000 0.000000 0
0.000000 0.000000 0
0.000000 0.000000 0
0.000000 0.000000 0
0.000000 0.000000 0
0.000000 0.000000 0
0.000000 0.000000 0
0.000000 0.000000 0
0.000000 0.000000 0
0.000000 0.000000 0
0.000000 0.000000 0
0.000000 0.000000 0
0.000000 0.000000 0
0.000000 0.000000 0
0.000000 0.000000 0
0.000000 0.000000 0
0.000000 0.000000 0
0.000000 0.000000 0
0.000000 0.000000 0
0.000000 0.000000 0
0.000000 0.000000 0
0.000000 0.000000 0
0.000000 0.000000 0
0.000000 0.000000 0
0.000000 0.000000 0
0.000000 0.000000 0
0.000000 0.000000 0
0.000000 0.000000 0
0.000000 0.000000 0
0.000000 0.000000 0
1.046454 -0.422553 0
2.518427 -0.738244 0
3.779946 -0.505156 0
4.622971 -0.265399 0
5.056418 -0.070113 0
5.167364 0.061939 0
5.063465 0.139739 0
4.829983 0.177739 0
4.531057 0.186503 0
4.213567 0.175003 0
3.909797 0.151117 0
3.639524 0.121584 0
3.412180 0.091702 0
3.229351 0.065053 0
3.087444 0.043481 0
2.980142 0.027394 0
2.900304 0.016259 0
2.841191 0.009095 0
2.797078 0.004851 0
2.763441 0.002599 0
2.736890 0.001619 0
2.714987 0.001397 0
2.696036 0.001591 0
2.678880 0.001993 0
2.662724 0.002490 0
2.646989 0.003041 0
2.631202 0.003653 0
2.614890 0.004369 0
2.597496 0.005267 0
2.578293 0.006459 0
2.556280 0.008095 0
2.530069 0.010375 0
2.497722 0.013567 0
2.456551 0.018021 0
2.402852 0.024184 0
2.331574 0.032601 0
2.235955 0.043876 0
2.107165 0.058491 0
1.934358 0.076505 0
1.705110 0.096429 0
1.409582 0.115115 0
1.038885 0.130740 0
0.616770 0.068886 0
-0.000000 0.000000 0
-0.001576 0.000000 0
0.000000 0.000000 0
0.000000 0.000000 0
0.000000 0.000000 0
0.000000 0.000000 0
0.000000 0.000000 0
0.000000 0.000000 0
0.000000 0.000000 0
0.000000 0.000000 0
0.000000 0.000000 0
0.000000 0.000000 0
0.000000 0.000000 0
0.000000 0.000000 0
0.000000 0.000000 0
0.000000 0.000000 0
0.000000 0.000000 0
0.000000 0.000000 0
0.000000 0.000000 0
0.000000 0.000000 0
0.000000 0.000000 0
0.000000 0.000000 0
0.000000 0.000000 0
0.000000 0.000000 0
0.000000 0.000000 0
0.000000 0.000000 0
0.000000 0.000000 0
0.000000 0.000000 0
0.000000 0.000000 0
0.000000 0.000000 0
0.000000 0.000000 0
0.000000 0.000000 0
0.000000 0.000000 0
0.000000 0.000000 0
0.000000 0.000000 0
0.000000 0.000000 0
0.000000 0.000000 0
0.000000 0.000000 0
1.159675 -0.517025 0
2.653889 -1.246058 0
3.828757 -1.354010 0
5.002752 -1.042626 0
5.864147 -0.632386 0
6.391192 -0.269702 0
6.647319 -0.003491 0
6.707047 0.167144 0
6.638519 0.263764 0
6.491251 0.305383 0
6.301419 0.307783 0
6.095074 0.284390 0
5.890326 0.246528 0
5.698950 0.203207 0
5.527681 0.160879 0
5.379361 0.123462 0
5.254004 0.092712 0
5.149775 0.068839 0
5.063836 0.051140 0
4.993007 0.038519 0
4.934210 0.029818 0
4.884727 0.024005 0
4.842298 0.020239 0
4.805125 0.017888 0
4.771804 0.016504 0
4.741247 0.015799 0
4.712583 0.015616 0
4.685061 0.015903 0
4.657965 0.016698 0
4.630516 0.018131 0
4.601777 0.020419 0
4.570538 0.023891 0
4.535169 0.029011 0
4.493432 0.036422 0
4.442226 0.047000 0
4.377236 0.061915 0
4.292460 0.082683 0
4.179574 0.111176 0
4.027135 0.149416 0
3.819654 0.199185 0
3.536960 0.259983 0
3.154792 0.330059 0
2.647437 0.392263 0
2.015073 0.512373 0
1.050850 0.303759 0
0.000000 0.000000 0
-0.004736 0.000000 0
0.000000 0.000000 0
0.000000 0.000000 0
0.000000 0.000000 0
0.000000 0.000000 0
0.000000 0.000000 0
0.000000 0.000000 0
0.000000 0.000000 0
0.000000 0.000000 0
0.000000 0.000000 0
0.000000 0.000000 0
0.000000 0.000000 0
0.000000 0.000000 0
0.000000 0.000000 0
0.000000 0.000000 0
0.000000 0.000000 0
0.000000 0.000000 0
0.000000 0.000000 0
0.000000 0.000000 0
0.000000 0.000000 0
0.000000 0.000000 0
0.000000 0.000000 0
0.000000 0.000000 0
0.000000 0.000000 0
0.000000 0.000000 0
0.000000 0.000000 0
0.000000 0.000000 0
0.000000 0.000000 0
0.000000 0.000000 0
0.000000 0.000000 0
0.000000 0.000000 0
0.000000 0.000000 0
0.000000 0.000000 0
0.000000 0.000000 0
0.000000 0.000000 0
0.936153 -0.582568 0
2.634716 -1.321421 0
3.462454 -1.743455 0
4.645139 -1.901910 0
5.708551 -1.513522 0
6.431655 -0.953255 0
6.856489 -0.458109 0
7.079658 -0.094541 0
7.167751 0.144099 0
7.169603 0.284648 0
7.118414 0.353508 0
7.036407 0.371276 0
6.938440 0.354779 0
6.834603 0.317830 0
6.731853 0.271362 0
6.634877 0.223383 0
6.546525 0.179066 0
6.468111 0.141135 0
6.399741 0.110471 0
6.340684 0.086761 0
6.289741 0.069070 0
6.245547 0.056243 0
6.206773 0.047154 0
6.172246 0.040834 0
6.140985 0.036516 0
6.112194 0.033639 0
6.085230 0.031830 0
6.059553 0.030877 0
6.034673 0.030711 0
6.010092 0.031391 0
5.985243 0.033103 0
5.959414 0.036173 0
5.931667 0.041094 0
5.900711 0.048575 0
5.864753 0.059613 0
5.821262 0.075586 0
5.766654 0.098380 0
5.695814 0.130526 0
5.601391 0.175323 0
5.472771 0.236801 0
5.294436 0.319346 0
5.044273 0.425812 0
4.690435 0.555800 0
4.200386 0.695376 0
3.530575 0.856132 0
2.831933 0.996967 0
1.343316 0.523005 0
0.000000 0.000000 0
-0.005829 0.000000 0
0.000000 0.000000 0
0.000000 0.000000 0
0.000000 0.000000 0
0.000000 0.000000 0
0.000000 0.000000 0
0.000000 0.000000 0
0.000000 0.000000 0
0.000000 0.000000 0
0.000000 0.000000 0
0.000000 0.000000 0
0.000000 0.000000 0
0.000000 0.000000 0
0.000000 0.000000 0
0.000000 0.000000 0
0.000000 0.000000 0
0.000000 0.000000 0
0.000000 0.000000 0
0.000000 0.000000 0
0.000000 0.000000 0
0.000000 0.000000 0
0.000000 0.000000 0
0.000000 0.000000 0
0.000000 0.000000 0
0.000000 0.000000 0
0.000000 0.000000 0
0.000000 0.000000 0
0.000000 0.000000 0
0.000000 0.000000 0
0.000000 0.000000 0
0.000000 0.000000 0
0.000000 0.000000 0
0.000000 0.000000 0
0.738433 -0.467408 0
2.144484 -1.316950 0
3.090427 -1.776643 0
3.864911 -2.242056 0
5.207972 -2.466764 0
6.163566 -1.927695 0
6.689014 -1.201093 0
6.946776 -0.590734 0
7.065401 -0.157695 0
7.111891 0.122584 0
7.115876 0.288206 0
7.097722 0.371370 0
7.068862 0.396945 0
7.035023 0.384368 0
6.998970 0.348875 0
6.962314 0.302154 0
6.926329 0.252694 0
6.892124 0.206081 0
6.860545 0.165431 0
6.832064 0.131968 0
6.806780 0.105635 0
6.784489 0.085651 0
6.764806 0.070922 0
6.747272 0.060320 0
6.731432 0.052832 0
6.716879 0.047638 0
6.703267 0.044125 0
6.690308 0.041878 0
6.677757 0.040663 0
6.665381 0.040406 0
6.652940 0.041187 0
6.640146 0.043238 0
6.626627 0.046962 0
6.611870 0.052973 0
6.595153 0.062161 0
6.575437 0.075782 0
6.551213 0.095600 0
6.520265 0.124065 0
6.479292 0.164557 0
6.423270 0.221675 0
6.344387 0.301487 0
6.230035 0.411470 0
6.059801 0.559215 0
5.799957 0.748135 0
5.407135 0.966877 0
4.838215 1.190327 0
4.168261 1.389594 0
3.378246 1.410307 0
1.501138 0.670592 0
0.000000 0.000000 0
-0.005283 0.000000 0
0.000000 0.000000 0
0.000000 0.000000 0
0.000000 0.000000 0
0.000000 0.000000 0
0.000000 0.000000 0
0.000000 0.000000 0
0.000000 0.000000 0
0.000000 0.000000 0
0.000000 0.000000 0
0.000000 0.000000 0
0.000000 0.000000 0
0.000000 0.000000 0
0.000000 0.000000 0
0.000000 0.000000 0
0.000000 0.000000 0
0.000000 0.000000 0
0.000000 0.000000 0
0.000000 0.000000 0
0.000000 0.000000 0
0.000000 0.000000 0
0.000000 0.000000 0
0.000000 0.000000 0
0.000000 0.000000 0
0.000000 0.000000 0
0.000000 0.000000 0
0.000000 0.000000 0
0.000000 0.000000 0
0.000000 0.000000 0
0.000000 0.000000 0
0.000000 0.000000 0
0.536214 -0.369305 0
1.698644 -1.069508 0
2.545332 -1.751408 0
3.300816 -2.173749 0
4.126691 -2.792522 0
5.619287 -3.040702 0
6.352313 -2.247255 0
6.584989 -1.341270 0
6.618412 -0.644578 0
6.606191 -0.176341 0
6.591387 0.119093 0
6.581290 0.291667 0
6.580023 0.376800 0
6.586970 0.402339 0
6.599219 0.389405 0
6.613340 0.353851 0
6.626663 0.307350 0
6.637711 0.258156 0
6.646078 0.211656 0
6.652042 0.170890 0
6.656180 0.137107 0
6.659099 0.110330 0
6.661293 0.089864 0
6.663109 0.074681 0
6.664757 0.063688 0
6.666350 0.055891 0
6.667936 0.050469 0
6.669525 0.046802 0
6.671108 0.044468 0
6.672666 0.043226 0
6.674177 0.043006 0
6.675616 0.043893 0
6.676953 0.046139 0
6.678147 0.050181 0
6.679135 0.056686 0
6.679814 0.066625 0
6.680010 0.081381 0
6.679415 0.102919 0
6.677479 0.134011 0
6.673197 0.178579 0
6.664675 0.242157 0
6.648237 0.332533 0
6.616399 0.460335 0
6.553790 0.638880 0
6.428627 0.879141 0
6.184556 1.171839 0
5.772918 1.469890 0
5.222157 1.720260 0
4.582370 1.852560 0
3.671416 1.687005 0
1.556519 0.748837 0
0.000000 0.000000 0
-0.003985 0.000000 0
0.000000 0.000000 0
0.000000 0.000000 0
0.000000 0.000000 0
0.000000 0.000000 0
0.000000 0.000000 0
0.000000 0.000000 0
0.000000 0.000000 0
0.000000 0.000000 0
0.000000 0.000000 0
0.000000 0.000000 0
0.000000 0.000000 0
0.000000 0.000000 0
0.000000 0.000000 0
0.000000 0.000000 0
0.000000 0.000000 0
0.000000 0.000000 0
0.000000 0.000000 0
0.000000 0.000000 0
0.000000 0.000000 0
0.000000 0.000000 0
0.000000 0.000000 0
0.000000 0.000000 0
0.000000 0.000000 0
0.000000 0.000000 0
0.000000 0.000000 0
0.000000 0.000000 0
0.000000 0.000000 0
0.000000 0.000000 0
0.376504 -0.266980 0
1.297394 -0.846340 0
2.061522 -1.466231 0
2.754464 -2.110693 0
3.395075 -2.560074 0
4.281125 -3.390665 0
5.831363 -3.569374 0
6.152076 -2.406120 0
5.981951 -1.332924 0
5.743152 -0.601237 0
5.590659 -0.144306 0
5.514511 0.134921 0
5.501497 0.293836 0
5.531772 0.368556 0
5.587517 0.387435 0
5.655233 0.371303 0
5.725203 0.335278 0
5.791254 0.290080 0
5.850139 0.243075 0
5.900761 0.198981 0
5.943403 0.160427 0
5.979080 0.128472 0
6.009067 0.103102 0
6.034614 0.083665 0
6.056805 0.069207 0
6.076514 0.058714 0
6.094407 0.051257 0
6.110983 0.046065 0
6.126608 0.042554 0
6.141555 0.040322 0
6.156044 0.039142 0
6.170268 0.038945 0
6.184428 0.039812 0
6.198760 0.041984 0
6.213562 0.045881 0
6.229233 0.052147 0
6.246306 0.061727 0
6.265501 0.075980 0
6.287772 0.096854 0
6.314349 0.127145 0
6.346752 0.170900 0
6.386661 0.234041 0
6.435461 0.325404 0
6.492678 0.458260 0
6.551585 0.652240 0
6.587571 0.931060 0
6.526902 1.291726 0
6.297669 1.667115 0
5.922850 1.979411 0
5.434251 2.178570 0
4.794319 2.180031 0
3.768481 1.833176 0
1.542284 0.775039 0
0.000000 0.000000 0
-0.002624 0.000000 0
0.000000 0.000000 0
0.000000 0.000000 0
0.000000 0.000000 0
0.000000 0.000000 0
0.000000 0.000000 0
0.000000 0.000000 0
0.000000 0.000000 0
0.000000 0.000000 0
0.000000 0.000000 0
0.000000 0.000000 0
0.000000 0.000000 0
0.000000 0.000000 0
0.000000 0.000000 0
0.000000 0.000000 0
0.000000 0.000000 0
0.000000 0.000000 0
0.000000 0.000000 0
0.000000 0.000000 0
0.000000 0.000000 0
0.000000 0.000000 0
0.000000 0.000000 0
0.000000 0.000000 0
0.000000 0.000000 0
0.000000 0.000000 0
0.000000 0.000000 0
0.000000 0.000000 0
0.268005 -0.186475 0
0.995970 -0.644030 0
1.702512 -1.205422 0
2.319987 -1.791365 0
2.880792 -2.412072 0
3.395977 -2.930082 0
4.284718 -3.999500 0
5.744475 -3.967602 0
5.402007 -2.321858 0
4.738784 -1.138683 0
4.210089 -0.450725 0
3.921015 -0.063069 0
3.817270 0.163265 0
3.848682 0.283116 0
3.954594 0.334184 0
4.094514 0.341174 0
4.244381 0.321193 0
4.389601 0.286464 0
4.522216 0.245454 0
4.638696 0.203904 0
4.738391 0.165452 0
4.822385 0.132090 0
4.892653 0.104576 0
4.951484 0.082818 0
5.001110 0.066214 0
5.043517 0.053923 0
5.080372 0.045059 0
5.113016 0.038814 0
5.142500 0.034516 0
5.169642 0.031656 0
5.195083 0.029885 0
5.219347 0.029002 0
5.242903 0.028943 0
5.266221 0.029777 0
5.289829 0.031706 0
5.314384 0.035085 0
5.340745 0.040464 0
5.370076 0.048656 0
5.403970 0.060838 0
5.444618 0.078719 0
5.495022 0.104791 0
5.559259 0.142755 0
5.642777 0.198209 0
5.752583 0.280010 0
5.896964 0.402805 0
6.081693 0.591869 0
6.301215 0.891370 0
6.456099 1.315462 0
6.421007 1.769148 0
6.249285 2.148011 0
5.949769 2.411653 0
5.510942 2.512256 0
4.841129 2.369367 0
3.727896 1.878825 0
1.485581 0.766511 0
0.000000 0.000000 0
-0.001602 0.000000 0
0.000000 0.000000 0
0.000000 0.000000 0
0.000000 0.000000 0
0.000000 0.000000 0
0.000000 0.000000 0
0.000000 0.000000 0
0.000000 0.000000 0
0.000000 0.000000 0
0.000000 0.000000 0
0.000000 0.000000 0
0.000000 0.000000 0
0.000000 0.000000 0
0.000000 0.000000 0
0.000000 0.000000 0
0.000000 0.000000 0
0.000000 0.000000 0
0.000000 0.000000 0
0.000000 0.000000 0
0.000000 0.000000 0
0.000000 0.000000 0
0.000000 0.000000 0
0.000000 0.000000 0
0.000000 0.000000 0
0.000000 0.000000 0
0.209280 -0.131882 0
0.805511 -0.492477 0
1.468596 -0.977608 0
2.052917 -1.502280 0
2.535481 -2.049971 0
2.939482 -2.643756 0
3.298466 -3.255603 0
4.069055 -4.554149 0
5.219655 -4.122898 0
3.917181 -1.907884 0
2.775648 -0.742428 0
2.002529 -0.196101 0
1.719326 0.050303 0
1.750031 0.170756 0
1.910592 0.225803 0
2.129908 0.246767 0
2.369221 0.243869 0
2.605515 0.225112 0
2.824151 0.197634 0
3.017819 0.166675 0
3.184002 0.135978 0
3.323255 0.107979 0
3.437983 0.084003 0
3.531529 0.064514 0
3.607527 0.049371 0
3.669478 0.038070 0
3.720504 0.029939 0
3.763237 0.024283 0
3.799809 0.020477 0
3.831890 0.018012 0
3.860767 0.016504 0
3.887431 0.015698 0
3.912674 0.015451 0
3.937179 0.015723 0
3.961611 0.016564 0
3.986709 0.018123 0
4.013388 0.020656 0
4.042853 0.024556 0
4.076757 0.030404 0
4.117396 0.039051 0
4.167991 0.051746 0
4.233073 0.070350 0
4.319026 0.097700 0
4.434889 0.138265 0
4.593362 0.199475 0
4.813091 0.295214 0
5.115958 0.451968 0
5.542659 0.745573 0
5.974671 1.232379 0
6.150069 1.769574 0
6.207252 2.212870 0
6.130568 2.544358 0
5.900725 2.729270 0
5.477476 2.716527 0
4.765262 2.444463 0
3.600900 1.855102 0
1.409344 0.737192 0
0.000000 0.000000 0
-0.001111 0.000000 0
0.000000 0.000000 0
0.000000 0.000000 0
0.000000 0.000000 0
0.000000 0.000000 0
0.000000 0.000000 0
0.000000 0.000000 0
0.000000 0.000000 0
0.000000 0.000000 0
0.000000 0.000000 0
0.000000 0.000000 0
0.000000 0.000000 0
0.000000 0.000000 0
0.000000 0.000000 0
0.000000 0.000000 0
0.000000 0.000000 0
0.000000 0.000000 0
0.000000 0.000000 0
0.000000 0.000000 0
0.000000 0.000000 0
0.000000 0.000000 0
0.000000 0.000000 0
0.000000 0.000000 0
0.195370 -0.102318 0
0.724417 -0.396809 0
1.360549 -0.809469 0
1.928622 -1.262016 0
2.381769 -1.733974 0
2.710020 -2.230584 0
2.935243 -2.790067 0
3.101631 -3.489691 0
3.571825 -4.951289 0
4.021508 -3.892362 0
1.556950 -1.111057 0
0.421369 -0.190132 0
0.058358 0.072594 0
0.025538 0.062023 0
0.159895 0.068508 0
0.370209 0.094919 0
0.615679 0.106972 0
0.868309 0.105550 0
1.107930 0.095813 0
1.322698 0.082202 0
1.506855 0.067178 0
1.659131 0.052586 0
1.781328 0.039626 0
1.877087 0.028908 0
1.950888 0.020581 0
2.007308 0.014475 0
2.050544 0.010243 0
2.084153 0.007473 0
2.110975 0.005770 0
2.133168 0.004802 0
2.152309 0.004317 0
2.169524 0.004140 0
2.185621 0.004169 0
2.201210 0.004356 0
2.216810 0.004699 0
2.232946 0.005239 0
2.250244 0.006054 0
2.269528 0.007270 0
2.291938 0.009070 0
2.319094 0.011727 0
2.353310 0.015639 0
2.397919 0.021410 0
2.457758 0.029966 0
2.539919 0.042772 0
2.654966 0.062298 0
2.819007 0.092642 0
3.057607 0.143902 0
3.414898 0.230429 0
3.969905 0.465949 0
4.892062 1.014540 0
5.376305 1.653924 0
5.756262 2.157672 0
5.965957 2.563512 0
5.982443 2.835809 0
5.791751 2.931895 0
5.357714 2.808512 0
4.610046 2.433574 0
3.434245 1.788819 0
1.335205 0.698601 0
0.000000 0.000000 0
-0.001268 0.000000 0
0.000000 0.000000 0
0.000000 0.000000 0
0.000000 0.000000 0
0.000000 0.000000 0
0.000000 0.000000 0
0.000000 0.000000 0
0.000000 0.000000 0
0.000000 0.000000 0
0.000000 0.000000 0
0.000000 0.000000 0
0.000000 0.000000 0
0.000000 0.000000 0
0.000000 0.000000 0
0.000000 0.000000 0
0.000000 0.000000 0
0.000000 0.000000 0
0.000000 0.000000 0
0.000000 0.000000 0
0.000000 0.000000 0
0.000000 0.000000 0
0.225192 -0.095100 0
0.751150 -0.355836 0
1.380201 -0.707768 0
1.941038 -1.089060 0
2.380240 -1.483537 0
2.679113 -1.889398 0
2.838862 -2.324171 0
2.878145 -2.837767 0
2.824911 -3.570976 0
2.796991 -5.009872 0
1.634966 -3.000380 0
-0.000001 0.000000 0
-0.000001 0.000000 0
-0.000001 0.000000 0
-0.000001 0.000000 0
-0.000001 0.000000 0
-0.000001 0.000000 0
-0.000000 0.000000 0
-0.000000 0.000000 0
-0.000000 0.000000 0
0.000000 0.000000 0
-0.000000 0.000000 0
-0.000000 0.000000 0
-0.000000 0.000000 0
-0.000000 0.000000 0
-0.000000 0.000000 0
-0.000000 0.000000 0
-0.000000 0.000000 0
-0.000000 0.000000 0
-0.000000 0.000000 0
-0.000000 0.000000 0
-0.000000 0.000000 0
-0.000000 0.000000 0
-0.000000 0.000000 0
-0.000000 0.000000 0
-0.000000 0.000000 0
-0.000000 0.000000 0
-0.000000 0.000000 0
-0.000000 0.000000 0
-0.000000 0.000000 0
-0.000000 0.000000 0
-0.000000 0.000000 0
-0.000000 0.000000 0
-0.000000 0.000000 0
-0.000000 0.000000 0
-0.000000 0.000000 0
-0.000000 0.000000 0
-0.000001 0.000000 0
-0.000001 0.000000 0
-0.000001 0.000000 0
2.077752 0.521864 0
3.746462 1.341435 0
4.739027 1.920746 0
5.379965 2.432304 0
5.725281 2.815574 0
5.802465 3.026028 0
5.623873 3.029899 0
5.175140 2.808021 0
4.416469 2.362085 0
3.269984 1.703838 0
1.280703 0.661456 0
0.000000 0.000000 0
-0.002090 0.000000 0
0.000000 0.000000 0
0.000000 0.000000 0
0.000000 0.000000 0
0.000000 0.000000 0
0.000000 0.000000 0
0.000000 0.000000 0
0.000000 0.000000 0
0.000000 0.000000 0
0.000000 0.000000 0
0.000000 0.000000 0
0.000000 0.000000 0
0.000000 0.000000 0
0.000000 0.000000 0
0.000000 0.000000 0
0.000000 0.000000 0
0.000000 0.000000 0
0.000000 0.000000 0
0.000000 0.000000 0
0.308958 -0.109512 0
0.897344 -0.368392 0
1.541509 -0.672840 0
2.096071 -0.986299 0
2.519596 -1.304905 0
2.796991 -1.627670 0
2.926934 -1.961183 0
2.918785 -2.329188 0
2.785136 -2.783156 0
2.522315 -3.449486 0
2.017814 -4.378797 0
0.037596 -0.000000 0
-0.073627 2.449357 0
0.383992 0.000000 0
0.310156 0.000000 0
0.237460 0.000000 0
0.184962 0.000000 0
0.099176 0.000000 0
-0.006632 0.000000 0
-0.116746 0.000000 0
-0.219685 0.000000 0
-0.310146 0.000000 0
-0.385609 0.000000 0
-0.445745 0.000000 0
-0.491755 0.000000 0
-0.525729 0.000000 0
-0.550105 0.000000 0
-0.567272 0.000000 0
-0.579324 0.000000 0
-0.587948 0.000000 0
-0.594408 0.000000 0
-0.599595 0.000000 0
-0.604102 0.000000 0
-0.608309 0.000000 0
-0.612459 0.000000 0
-0.616724 0.000000 0
-0.621251 0.000000 0
-0.626209 0.000000 0
-0.631826 0.000000 0
-0.638430 0.000000 0
-0.646501 0.000000 0
-0.656739 0.000000 0
-0.670171 0.000000 0
-0.688307 0.000000 0
-0.713388 0.000000 0
-0.748794 0.000000 0
-0.799723 0.000000 0
-0.874543 0.000000 0
-0.986722 0.000000 0
-1.165011 0.000000 0
-1.451844 0.132638 0
0.000000 0.000002 0
1.708577 0.338861 0
3.311976 1.348407 0
4.419398 2.074905 0
5.137173 2.626495 0
5.515795 2.982134 0
5.600411 3.119299 0
5.416759 3.031742 0
4.965688 2.732665 0
4.228336 2.253429 0
3.148111 1.621336 0
1.263804 0.634496 0
0.000000 0.000000 0
-0.003793 0.000000 0
0.000000 0.000000 0
0.000000 0.000000 0
0.000000 0.000000 0
0.000000 0.000000 0
0.000000 0.000000 0
0.000000 0.000000 0
0.000000 0.000000 0
0.000000 0.000000 0
0.000000 0.000000 0
0.000000 0.000000 0
0.000000 0.000000 0
0.000000 0.000000 0
0.000000 0.000000 0
0.000000 0.000000 0
0.000000 0.000000 0
0.000000 0.000000 0