# vtk DataFile Version 2.0
generated by CFD-lab course output (written by Tobias Neckel) 
ASCII

DATASET STRUCTURED_GRID
DIMENSIONS  82 60 1 
POINTS 4920 float

-1.500000 -0.500000 0
-1.402439 -0.500000 0
-1.304878 -0.500000 0
-1.207317 -0.500000 0
-1.109756 -0.500000 0
-1.012195 -0.500000 0
-0.914634 -0.500000 0
-0.817073 -0.500000 0
-0.719512 -0.500000 0
-0.621951 -0.500000 0
-0.524390 -0.500000 0
-0.426829 -0.500000 0
-0.329268 -0.500000 0
-0.231707 -0.500000 0
-0.134146 -0.500000 0
-0.036585 -0.500000 0
0.060976 -0.500000 0
0.158537 -0.500000 0
0.256098 -0.500000 0
0.353659 -0.500000 0
0.451220 -0.500000 0
0.548780 -0.500000 0
0.646341 -0.500000 0
0.743902 -0.500000 0
0.841463 -0.500000 0
0.939024 -0.500000 0
1.036585 -0.500000 0
1.134146 -0.500000 0
1.231707 -0.500000 0
1.329268 -0.500000 0
1.426829 -0.500000 0
1.524390 -0.500000 0
1.621951 -0.500000 0
1.719512 -0.500000 0
1.817073 -0.500000 0
1.914634 -0.500000 0
2.012195 -0.500000 0
2.109756 -0.500000 0
2.207317 -0.500000 0
2.304878 -0.500000 0
2.402439 -0.500000 0
2.500000 -0.500000 0
2.597561 -0.500000 0
2.695122 -0.500000 0
2.792683 -0.500000 0
2.890244 -0.500000 0
2.987805 -0.500000 0
3.085366 -0.500000 0
3.182927 -0.500000 0
3.280488 -0.500000 0
3.378049 -0.500000 0
3.475610 -0.500000 0
3.573171 -0.500000 0
3.670732 -0.500000 0
3.768293 -0.500000 0
3.865854 -0.500000 0
3.963415 -0.500000 0
4.060976 -0.500000 0
4.158537 -0.500000 0
4.256098 -0.500000 0
4.353659 -0.500000 0
4.451220 -0.500000 0
4.548780 -0.500000 0
4.646341 -0.500000 0
4.743902 -0.500000 0
4.841463 -0.500000 0
4.939024 -0.500000 0
5.036585 -0.500000 0
5.134146 -0.500000 0
5.231707 -0.500000 0
5.329268 -0.500000 0
5.426829 -0.500000 0
5.524390 -0.500000 0
5.621951 -0.500000 0
5.719512 -0.500000 0
5.817073 -0.500000 0
5.914634 -0.500000 0
6.012195 -0.500000 0
6.109756 -0.500000 0
6.207317 -0.500000 0
6.304878 -0.500000 0
6.402439 -0.500000 0
-1.500000 -0.451667 0
-1.402439 -0.451667 0
-1.304878 -0.451667 0
-1.207317 -0.451667 0
-1.109756 -0.451667 0
-1.012195 -0.451667 0
-0.914634 -0.451667 0
-0.817073 -0.451667 0
-0.719512 -0.451667 0
-0.621951 -0.451667 0
-0.524390 -0.451667 0
-0.426829 -0.451667 0
-0.329268 -0.451667 0
-0.231707 -0.451667 0
-0.134146 -0.451667 0
-0.036585 -0.451667 0
0.060976 -0.451667 0
0.158537 -0.451667 0
0.256098 -0.451667 0
0.353659 -0.451667 0
0.451220 -0.451667 0
0.548780 -0.451667 0
0.646341 -0.451667 0
0.743902 -0.451667 0
0.841463 -0.451667 0
0.939024 -0.451667 0
1.036585 -0.451667 0
1.134146 -0.451667 0
1.231707 -0.451667 0
1.329268 -0.451667 0
1.426829 -0.451667 0
1.524390 -0.451667 0
1.621951 -0.451667 0
1.719512 -0.451667 0
1.817073 -0.451667 0
1.914634 -0.451667 0
2.012195 -0.451667 0
2.109756 -0.451667 0
2.207317 -0.451667 0
2.304878 -0.451667 0
2.402439 -0.451667 0
2.500000 -0.451667 0
2.597561 -0.451667 0
2.695122 -0.451667 0
2.792683 -0.451667 0
2.890244 -0.451667 0
2.987805 -0.451667 0
3.085366 -0.451667 0
3.182927 -0.451667 0
3.280488 -0.451667 0
3.378049 -0.451667 0
3.475610 -0.451667 0
3.573171 -0.451667 0
3.670732 -0.451667 0
3.768293 -0.451667 0
3.865854 -0.451667 0
3.963415 -0.451667 0
4.060976 -0.451667 0
4.158537 -0.451667 0
4.256098 -0.451667 0
4.353659 -0.451667 0
4.451220 -0.451667 0
4.548780 -0.451667 0
4.646341 -0.451667 0
4.743902 -0.451667 0
4.841463 -0.451667 0
4.939024 -0.451667 0
5.036585 -0.451667 0
5.134146 -0.451667 0
5.231707 -0.451667 0
5.329268 -0.451667 0
5.426829 -0.451667 0
5.524390 -0.451667 0
5.621951 -0.451667 0
5.719512 -0.451667 0
5.817073 -0.451667 0
5.914634 -0.451667 0
6.012195 -0.451667 0
6.109756 -0.451667 0
6.207317 -0.451667 0
6.304878 -0.451667 0
6.402439 -0.451667 0
-1.500000 -0.403333 0
-1.402439 -0.403333 0
-1.304878 -0.403333 0
-1.207317 -0.403333 0
-1.109756 -0.403333 0
-1.012195 -0.403333 0
-0.914634 -0.403333 0
-0.817073 -0.403333 0
-0.719512 -0.403333 0
-0.621951 -0.403333 0
-0.524390 -0.403333 0
-0.426829 -0.403333 0
-0.329268 -0.403333 0
-0.231707 -0.403333 0
-0.134146 -0.403333 0
-0.036585 -0.403333 0
0.060976 -0.403333 0
0.158537 -0.403333 0
0.256098 -0.403333 0
0.353659 -0.403333 0
0.451220 -0.403333 0
0.548780 -0.403333 0
0.646341 -0.403333 0
0.743902 -0.403333 0
0.841463 -0.403333 0
0.939024 -0.403333 0
1.036585 -0.403333 0
1.134146 -0.403333 0
1.231707 -0.403333 0
1.329268 -0.403333 0
1.426829 -0.403333 0
1.524390 -0.403333 0
1.621951 -0.403333 0
1.719512 -0.403333 0
1.817073 -0.403333 0
1.914634 -0.403333 0
2.012195 -0.403333 0
2.109756 -0.403333 0
2.207317 -0.403333 0
2.304878 -0.403333 0
2.402439 -0.403333 0
2.500000 -0.403333 0
2.597561 -0.403333 0
2.695122 -0.403333 0
2.792683 -0.403333 0
2.890244 -0.403333 0
2.987805 -0.403333 0
3.085366 -0.403333 0
3.182927 -0.403333 0
3.280488 -0.403333 0
3.378049 -0.403333 0
3.475610 -0.403333 0
3.573171 -0.403333 0
3.670732 -0.403333 0
3.768293 -0.403333 0
3.865854 -0.403333 0
3.963415 -0.403333 0
4.060976 -0.403333 0
4.158537 -0.403333 0
4.256098 -0.403333 0
4.353659 -0.403333 0
4.451220 -0.403333 0
4.548780 -0.403333 0
4.646341 -0.403333 0
4.743902 -0.403333 0
4.841463 -0.403333 0
4.939024 -0.403333 0
5.036585 -0.403333 0
5.134146 -0.403333 0
5.231707 -0.403333 0
5.329268 -0.403333 0
5.426829 -0.403333 0
5.524390 -0.403333 0
5.621951 -0.403333 0
5.719512 -0.403333 0
5.817073 -0.403333 0
5.914634 -0.403333 0
6.012195 -0.403333 0
6.109756 -0.403333 0
6.207317 -0.403333 0
6.304878 -0.403333 0
6.402439 -0.403333 0
-1.500000 -0.355000 0
-1.402439 -0.355000 0
-1.304878 -0.355000 0
-1.207317 -0.355000 0
-1.109756 -0.355000 0
-1.012195 -0.355000 0
-0.914634 -0.355000 0
-0.817073 -0.355000 0
-0.719512 -0.355000 0
-0.621951 -0.355000 0
-0.524390 -0.355000 0
-0.426829 -0.355000 0
-0.329268 -0.355000 0
-0.231707 -0.355000 0
-0.134146 -0.355000 0
-0.036585 -0.355000 0
0.060976 -0.355000 0
0.158537 -0.355000 0
0.256098 -0.355000 0
0.353659 -0.355000 0
0.451220 -0.355000 0
0.548780 -0.355000 0
0.646341 -0.355000 0
0.743902 -0.355000 0
0.841463 -0.355000 0
0.939024 -0.355000 0
1.036585 -0.355000 0
1.134146 -0.355000 0
1.231707 -0.355000 0
1.329268 -0.355000 0
1.426829 -0.355000 0
1.524390 -0.355000 0
1.621951 -0.355000 0
1.719512 -0.355000 0
1.817073 -0.355000 0
1.914634 -0.355000 0
2.012195 -0.355000 0
2.109756 -0.355000 0
2.207317 -0.355000 0
2.304878 -0.355000 0
2.402439 -0.355000 0
2.500000 -0.355000 0
2.597561 -0.355000 0
2.695122 -0.355000 0
2.792683 -0.355000 0
2.890244 -0.355000 0
2.987805 -0.355000 0
3.085366 -0.355000 0
3.182927 -0.355000 0
3.280488 -0.355000 0
3.378049 -0.355000 0
3.475610 -0.355000 0
3.573171 -0.355000 0
3.670732 -0.355000 0
3.768293 -0.355000 0
3.865854 -0.355000 0
3.963415 -0.355000 0
4.060976 -0.355000 0
4.158537 -0.355000 0
4.256098 -0.355000 0
4.353659 -0.355000 0
4.451220 -0.355000 0
4.548780 -0.355000 0
4.646341 -0.355000 0
4.743902 -0.355000 0
4.841463 -0.355000 0
4.939024 -0.355000 0
5.036585 -0.355000 0
5.134146 -0.355000 0
5.231707 -0.355000 0
5.329268 -0.355000 0
5.426829 -0.355000 0
5.524390 -0.355000 0
5.621951 -0.355000 0
5.719512 -0.355000 0
5.817073 -0.355000 0
5.914634 -0.355000 0
6.012195 -0.355000 0
6.109756 -0.355000 0
6.207317 -0.355000 0
6.304878 -0.355000 0
6.402439 -0.355000 0
-1.500000 -0.306667 0
-1.402439 -0.306667 0
-1.304878 -0.306667 0
-1.207317 -0.306667 0
-1.109756 -0.306667 0
-1.012195 -0.306667 0
-0.914634 -0.306667 0
-0.817073 -0.306667 0
-0.719512 -0.306667 0
-0.621951 -0.306667 0
-0.524390 -0.306667 0
-0.426829 -0.306667 0
-0.329268 -0.306667 0
-0.231707 -0.306667 0
-0.134146 -0.306667 0
-0.036585 -0.306667 0
0.060976 -0.306667 0
0.158537 -0.306667 0
0.256098 -0.306667 0
0.353659 -0.306667 0
0.451220 -0.306667 0
0.548780 -0.306667 0
0.646341 -0.306667 0
0.743902 -0.306667 0
0.841463 -0.306667 0
0.939024 -0.306667 0
1.036585 -0.306667 0
1.134146 -0.306667 0
1.231707 -0.306667 0
1.329268 -0.306667 0
1.426829 -0.306667 0
1.524390 -0.306667 0
1.621951 -0.306667 0
1.719512 -0.306667 0
1.817073 -0.306667 0
1.914634 -0.306667 0
2.012195 -0.306667 0
2.109756 -0.306667 0
2.207317 -0.306667 0
2.304878 -0.306667 0
2.402439 -0.306667 0
2.500000 -0.306667 0
2.597561 -0.306667 0
2.695122 -0.306667 0
2.792683 -0.306667 0
2.890244 -0.306667 0
2.987805 -0.306667 0
3.085366 -0.306667 0
3.182927 -0.306667 0
3.280488 -0.306667 0
3.378049 -0.306667 0
3.475610 -0.306667 0
3.573171 -0.306667 0
3.670732 -0.306667 0
3.768293 -0.306667 0
3.865854 -0.306667 0
3.963415 -0.306667 0
4.060976 -0.306667 0
4.158537 -0.306667 0
4.256098 -0.306667 0
4.353659 -0.306667 0
4.451220 -0.306667 0
4.548780 -0.306667 0
4.646341 -0.306667 0
4.743902 -0.306667 0
4.841463 -0.306667 0
4.939024 -0.306667 0
5.036585 -0.306667 0
5.134146 -0.306667 0
5.231707 -0.306667 0
5.329268 -0.306667 0
5.426829 -0.306667 0
5.524390 -0.306667 0
5.621951 -0.306667 0
5.719512 -0.306667 0
5.817073 -0.306667 0
5.914634 -0.306667 0
6.012195 -0.306667 0
6.109756 -0.306667 0
6.207317 -0.306667 0
6.304878 -0.306667 0
6.402439 -0.306667 0
-1.500000 -0.258333 0
-1.402439 -0.258333 0
-1.304878 -0.258333 0
-1.207317 -0.258333 0
-1.109756 -0.258333 0
-1.012195 -0.258333 0
-0.914634 -0.258333 0
-0.817073 -0.258333 0
-0.719512 -0.258333 0
-0.621951 -0.258333 0
-0.524390 -0.258333 0
-0.426829 -0.258333 0
-0.329268 -0.258333 0
-0.231707 -0.258333 0
-0.134146 -0.258333 0
-0.036585 -0.258333 0
0.060976 -0.258333 0
0.158537 -0.258333 0
0.256098 -0.258333 0
0.353659 -0.258333 0
0.451220 -0.258333 0
0.548780 -0.258333 0
0.646341 -0.258333 0
0.743902 -0.258333 0
0.841463 -0.258333 0
0.939024 -0.258333 0
1.036585 -0.258333 0
1.134146 -0.258333 0
1.231707 -0.258333 0
1.329268 -0.258333 0
1.426829 -0.258333 0
1.524390 -0.258333 0
1.621951 -0.258333 0
1.719512 -0.258333 0
1.817073 -0.258333 0
1.914634 -0.258333 0
2.012195 -0.258333 0
2.109756 -0.258333 0
2.207317 -0.258333 0
2.304878 -0.258333 0
2.402439 -0.258333 0
2.500000 -0.258333 0
2.597561 -0.258333 0
2.695122 -0.258333 0
2.792683 -0.258333 0
2.890244 -0.258333 0
2.987805 -0.258333 0
3.085366 -0.258333 0
3.182927 -0.258333 0
3.280488 -0.258333 0
3.378049 -0.258333 0
3.475610 -0.258333 0
3.573171 -0.258333 0
[...]
POINT_DATA 4920 

VECTORS velocity float
0.000000 0.000000 0
0.000000 0.000000 0
0.000000 0.000000 0
0.000000 0.000000 0
0.000000 0.000000 0
0.000000 0.000000 0
0.000000 0.000000 0
0.000000 0.000000 0
0.000000 0.000000 0
0.000000 0.000000 0
0.000000 0.000000 0
0.000000 0.000000 0
0.000000 0.000000 0
0.000000 0.000000 0
0.000000 0.000000 0
-0.000000 0.000000 0
-0.000000 0.000000 0
-0.000000 0.000000 0
-0.000000 0.000000 0
-0.000000 0.000000 0
-0.000000 0.000000 0
-0.000000 0.000000 0
-0.000000 0.000000 0
-0.000000 0.000000 0
-0.000000 0.000000 0
-0.000000 0.000000 0
-0.000000 0.000000 0
-0.000000 0.000000 0
-0.000000 0.000000 0
-0.000000 0.000000 0
-0.000000 0.000000 0
-0.000000 0.000000 0
-0.000000 0.000000 0
-0.000000 0.000000 0
-0.000000 0.000000 0
-0.000000 0.000000 0
-0.000000 0.000000 0
-0.000000 0.000000 0
-0.000000 0.000000 0
-0.000000 0.000000 0
-0.000000 0.000000 0
-0.000000 0.000000 0
-0.000000 0.000000 0
-0.000000 0.000000 0
-0.000000 0.000000 0
-0.000000 0.000000 0
-0.000000 0.000000 0
-0.000000 0.000000 0
-0.000000 0.000000 0
-0.000000 0.000000 0
-0.000000 0.000000 0
-0.000000 0.000000 0
-0.000000 0.000000 0
-0.000000 0.000000 0
-0.000000 0.000000 0
-0.000000 0.000000 0
0.000000 0.000000 0
0.001917 0.000000 0
0.000000 0.000000 0
0.000000 0.000000 0
0.000000 0.000000 0
0.000000 0.000000 0
0.000000 0.000000 0
0.000000 0.000000 0
0.000000 0.000000 0
0.000000 0.000000 0
0.000000 0.000000 0
0.000000 0.000000 0
0.000000 0.000000 0
0.000000 0.000000 0
0.000000 0.000000 0
0.000000 0.000000 0
0.000000 0.000000 0
0.000000 0.000000 0
0.000000 0.000000 0
0.000000 0.000000 0
0.000000 0.000000 0
0.000000 0.000000 0
0.000000 0.000000 0
0.000000 0.000000 0
0.000000 0.000000 0
0.000000 0.000000 0
0.000000 0.000000 0
0.000000 0.000000 0
0.000000 0.000000 0
0.000000 0.000000 0
0.000000 0.000000 0
0.000000 0.000000 0
0.000000 0.000000 0
0.000000 0.000000 0
0.000000 0.000000 0
0.000000 0.000000 0
0.000000 0.000000 0
0.000000 0.000000 0
0.000000 0.000000 0
0.000000 0.000000 0
1.046384 -0.422525 0
2.518282 -0.738202 0
3.779754 -0.505137 0
4.622763 -0.265394 0
5.056213 -0.070114 0
5.167165 0.061938 0
5.063265 0.139743 0
4.829771 0.177748 0
4.530821 0.186515 0
4.213302 0.175015 0
3.909505 0.151125 0
3.639214 0.121586 0
3.411863 0.091699 0
3.229039 0.065047 0
3.087145 0.043473 0
2.979861 0.027386 0
2.900040 0.016252 0
2.840942 0.009091 0
2.796840 0.004849 0
2.763210 0.002599 0
2.736660 0.001621 0
2.714755 0.001399 0
2.695800 0.001594 0
2.678639 0.001995 0
2.662478 0.002492 0
2.646739 0.003042 0
2.630948 0.003653 0
2.614634 0.004369 0
2.597240 0.005267 0
2.578037 0.006458 0
2.556026 0.008094 0
2.529816 0.010375 0
2.497471 0.013567 0
2.456301 0.018020 0
2.402604 0.024183 0
2.331328 0.032601 0
2.235709 0.043876 0
2.106921 0.058491 0
1.934115 0.076506 0
1.704868 0.096428 0
1.409346 0.115110 0
1.038668 0.130689 0
0.616638 0.068838 0
-0.000000 0.000000 0
-0.001571 0.000000 0
0.000000 0.000000 0
0.000000 0.000000 0
0.000000 0.000000 0
0.000000 0.000000 0
0.000000 0.000000 0
0.000000 0.000000 0
0.000000 0.000000 0
0.000000 0.000000 0
0.000000 0.000000 0
0.000000 0.000000 0
0.000000 0.000000 0
0.000000 0.000000 0
0.000000 0.000000 0
0.000000 0.000000 0
0.000000 0.000000 0
0.000000 0.000000 0
0.000000 0.000000 0
0.000000 0.000000 0
0.000000 0.000000 0
0.000000 0.000000 0
0.000000 0.000000 0
0.000000 0.000000 0
0.000000 0.000000 0
0.000000 0.000000 0
0.000000 0.000000 0
0.000000 0.000000 0
0.000000 0.000000 0
0.000000 0.000000 0
0.000000 0.000000 0
0.000000 0.000000 0
0.000000 0.000000 0
0.000000 0.000000 0
0.000000 0.000000 0
0.000000 0.000000 0
0.000000 0.000000 0
0.000000 0.000000 0
1.159596 -0.516990 0
2.653727 -1.245986 0
3.828561 -1.353950 0
5.002524 -1.042595 0
5.863909 -0.632379 0
6.390961 -0.269706 0
6.647100 -0.003494 0
6.706833 0.167151 0
6.638299 0.263782 0
6.491012 0.305409 0
6.301152 0.307810 0
6.094779 0.284413 0
5.890008 0.246540 0
5.698617 0.203208 0
5.527344 0.160870 0
5.379030 0.123447 0
5.253686 0.092695 0
5.149473 0.068822 0
5.063552 0.051127 0
4.992737 0.038510 0
4.933951 0.029815 0
4.884473 0.024005 0
4.842046 0.020242 0
4.804870 0.017892 0
4.771544 0.016509 0
4.740982 0.015804 0
4.712312 0.015620 0
4.684786 0.015905 0
4.657686 0.016700 0
4.630235 0.018131 0
4.601496 0.020418 0
4.570258 0.023889 0
4.534890 0.029009 0
4.493155 0.036420 0
4.441951 0.046999 0
4.376962 0.061914 0
4.292188 0.082682 0
4.179304 0.111175 0
4.026866 0.149415 0
3.819388 0.199183 0
3.536697 0.259979 0
3.154536 0.330047 0
2.647199 0.392211 0
2.014812 0.512264 0
1.050719 0.303693 0
-0.000000 0.000000 0
-0.004730 0.000000 0
0.000000 0.000000 0
0.000000 0.000000 0
0.000000 0.000000 0
0.000000 0.000000 0
0.000000 0.000000 0
0.000000 0.000000 0
0.000000 0.000000 0
0.000000 0.000000 0
0.000000 0.000000 0
0.000000 0.000000 0
0.000000 0.000000 0
0.000000 0.000000 0
0.000000 0.000000 0
0.000000 0.000000 0
0.000000 0.000000 0
0.000000 0.000000 0
0.000000 0.000000 0
0.000000 0.000000 0
0.000000 0.000000 0
0.000000 0.000000 0
0.000000 0.000000 0
0.000000 0.000000 0
0.000000 0.000000 0
0.000000 0.000000 0
0.000000 0.000000 0
0.000000 0.000000 0
0.000000 0.000000 0
0.000000 0.000000 0
0.000000 0.000000 0
0.000000 0.000000 0
0.000000 0.000000 0
0.000000 0.000000 0
0.000000 0.000000 0
0.000000 0.000000 0
0.936080 -0.582528 0
2.634546 -1.321339 0
3.462264 -1.743369 0
4.644911 -1.901836 0
5.708294 -1.513482 0
6.431391 -0.953249 0
6.856238 -0.458120 0
7.079427 -0.094551 0
7.167534 0.144103 0
7.169389 0.284670 0
7.118192 0.353543 0
7.036169 0.371316 0
6.938182 0.354813 0
6.834326 0.317852 0
6.731562 0.271369 0
6.634579 0.223375 0
6.546227 0.179048 0
6.467818 0.141113 0
6.399458 0.110448 0
6.340411 0.086741 0
6.289479 0.069056 0
6.245292 0.056235 0
6.206523 0.047152 0
6.171998 0.040836 0
6.140736 0.036521 0
6.111943 0.033646 0
6.084975 0.031837 0
6.059295 0.030883 0
6.034411 0.030716 0
6.009827 0.031394 0
5.984976 0.033104 0
5.959146 0.036172 0
5.931399 0.041092 0
5.900444 0.048573 0
5.864487 0.059610 0
5.820998 0.075584 0
5.766391 0.098378 0
5.695553 0.130524 0
5.601132 0.175321 0
5.472513 0.236799 0
5.294179 0.319344 0
5.044019 0.425807 0
4.690183 0.555782 0
4.200138 0.695327 0
3.530306 0.856027 0
2.831659 0.996831 0
1.343206 0.522938 0
-0.000000 0.000000 0
-0.005823 0.000000 0
0.000000 0.000000 0
0.000000 0.000000 0
0.000000 0.000000 0
0.000000 0.000000 0
0.000000 0.000000 0
0.000000 0.000000 0
0.000000 0.000000 0
0.000000 0.000000 0
0.000000 0.000000 0
0.000000 0.000000 0
0.000000 0.000000 0
0.000000 0.000000 0
0.000000 0.000000 0
0.000000 0.000000 0
0.000000 0.000000 0
0.000000 0.000000 0
0.000000 0.000000 0
0.000000 0.000000 0
0.000000 0.000000 0
0.000000 0.000000 0
0.000000 0.000000 0
0.000000 0.000000 0
0.000000 0.000000 0
0.000000 0.000000 0
0.000000 0.000000 0
0.000000 0.000000 0
0.000000 0.000000 0
0.000000 0.000000 0
0.000000 0.000000 0
0.000000 0.000000 0
0.000000 0.000000 0
0.000000 0.000000 0
0.738367 -0.467371 0
2.144331 -1.316864 0
3.090243 -1.776549 0
3.864710 -2.241954 0
5.207713 -2.466671 0
6.163274 -1.927647 0
6.688717 -1.201089 0
6.946496 -0.590754 0
7.065146 -0.157715 0
7.111657 0.122582 0
7.115655 0.288226 0
7.097502 0.371409 0
7.068636 0.396991 0
7.034786 0.384409 0
6.998722 0.348903 0
6.962056 0.302165 0
6.926065 0.252689 0
6.891857 0.206063 0
6.860278 0.165407 0
6.831800 0.131942 0
6.806519 0.105612 0
6.784232 0.085634 0
6.764552 0.070912 0
6.747020 0.060316 0
6.731181 0.052834 0
6.716626 0.047645 0
6.703013 0.044134 0
6.690053 0.041887 0
6.677499 0.040670 0
6.665122 0.040412 0
6.652679 0.041191 0
6.639884 0.043239 0
6.626364 0.046961 0
6.611608 0.052971 0
6.594891 0.062158 0
6.575175 0.075780 0
6.550953 0.095597 0
6.520006 0.124062 0
6.479034 0.164555 0
6.423013 0.221672 0
6.344132 0.301484 0
6.229781 0.411467 0
6.059547 0.559209 0
5.799698 0.748119 0
5.406863 0.966834 0
4.837913 1.190232 0
4.167942 1.389441 0
3.378006 1.410161 0
1.501106 0.670534 0
-0.000000 0.000000 0
-0.005280 0.000000 0
0.000000 0.000000 0
0.000000 0.000000 0
0.000000 0.000000 0
0.000000 0.000000 0
0.000000 0.000000 0
0.000000 0.000000 0
0.000000 0.000000 0
0.000000 0.000000 0
0.000000 0.000000 0
0.000000 0.000000 0
0.000000 0.000000 0
0.000000 0.000000 0
0.000000 0.000000 0
0.000000 0.000000 0
0.000000 0.000000 0
0.000000 0.000000 0
0.000000 0.000000 0
0.000000 0.000000 0
0.000000 0.000000 0
0.000000 0.000000 0
0.000000 0.000000 0
0.000000 0.000000 0
0.000000 0.000000 0
0.000000 0.000000 0
0.000000 0.000000 0
0.000000 0.000000 0
0.000000 0.000000 0
0.000000 0.000000 0
0.000000 0.000000 0
0.000000 0.000000 0
0.536156 -0.369271 0
1.698508 -1.069430 0
2.545173 -1.751308 0
3.300629 -2.173643 0
4.126478 -2.792399 0
5.618994 -3.040583 0
6.351985 -2.247196 0
6.584657 -1.341270 0
6.618098 -0.644609 0
6.605903 -0.176374 0
6.591126 0.119080 0
6.581046 0.291683 0
6.579788 0.376837 0
6.586738 0.402386 0
6.598986 0.389450 0
6.613104 0.353883 0
6.626423 0.307365 0
6.637468 0.258153 0
6.645831 0.211640 0
6.651791 0.170866 0
6.655927 0.137081 0
6.658843 0.110307 0
6.661036 0.089847 0
6.662850 0.074670 0
6.664497 0.063685 0
6.666089 0.055894 0
6.667675 0.050476 0
6.669263 0.046811 0
6.670845 0.044477 0
6.672403 0.043234 0
6.673914 0.043012 0
6.675353 0.043897 0
6.676690 0.046141 0
6.677884 0.050181 0
6.678873 0.056684 0
6.679553 0.066622 0
6.679749 0.081378 0
6.679154 0.102916 0
6.677219 0.134008 0
6.672938 0.178576 0
6.664416 0.242154 0
6.647978 0.332530 0
6.616140 0.460332 0
6.553528 0.638877 0
6.428354 0.879133 0
6.184251 1.171812 0
5.772559 1.469809 0
5.221772 1.720093 0
4.582065 1.852341 0
3.671353 1.686874 0
1.556675 0.748818 0
-0.000000 0.000000 0
-0.003986 0.000000 0
0.000000 0.000000 0
0.000000 0.000000 0
0.000000 0.000000 0
0.000000 0.000000 0
0.000000 0.000000 0
0.000000 0.000000 0
0.000000 0.000000 0
0.000000 0.000000 0
0.000000 0.000000 0
0.000000 0.000000 0
0.000000 0.000000 0
0.000000 0.000000 0
0.000000 0.000000 0
0.000000 0.000000 0
0.000000 0.000000 0
0.000000 0.000000 0
0.000000 0.000000 0
0.000000 0.000000 0
0.000000 0.000000 0
0.000000 0.000000 0
0.000000 0.000000 0
0.000000 0.000000 0
0.000000 0.000000 0
0.000000 0.000000 0
0.000000 0.000000 0
0.000000 0.000000 0
0.000000 0.000000 0
0.000000 0.000000 0
0.376453 -0.266951 0
1.297275 -0.846271 0
2.061384 -1.466143 0
2.754305 -2.110582 0
3.394889 -2.559954 0
4.280899 -3.390511 0
5.831040 -3.569224 0
6.151723 -2.406052 0
5.981595 -1.332926 0
5.742809 -0.601279 0
5.590335 -0.144353 0
5.514214 0.134896 0
5.501221 0.293843 0
5.531512 0.368589 0
5.587268 0.387480 0
5.654992 0.371347 0
5.724968 0.335310 0
5.791021 0.290095 0
5.849906 0.243074 0
5.900524 0.198967 0
5.943160 0.160405 0
5.978830 0.128448 0
6.008809 0.103081 0
6.034351 0.083649 0
6.056538 0.069197 0
6.076243 0.058711 0
6.094135 0.051260 0
6.110711 0.046072 0
6.126336 0.042563 0
6.141285 0.040331 0
6.155776 0.039150 0
6.170002 0.038951 0
6.184164 0.039816 0
6.198497 0.041985 0
6.213300 0.045880 0
6.228971 0.052145 0
6.246045 0.061724 0
6.265240 0.075977 0
6.287510 0.096851 0
6.314087 0.127141 0
6.346490 0.170897 0
6.386398 0.234038 0
6.435198 0.325401 0
6.492412 0.458259 0
6.551315 0.652242 0
6.587285 0.931065 0
6.526568 1.291726 0
6.297240 1.667060 0
5.922361 1.979232 0
5.433852 2.178264 0
4.794217 2.179735 0
3.768849 1.833134 0
1.542760 0.775114 0
-0.000000 0.000000 0
-0.002629 0.000000 0
0.000000 0.000000 0
0.000000 0.000000 0
0.000000 0.000000 0
0.000000 0.000000 0
0.000000 0.000000 0
0.000000 0.000000 0
0.000000 0.000000 0
0.000000 0.000000 0
0.000000 0.000000 0
0.000000 0.000000 0
0.000000 0.000000 0
0.000000 0.000000 0
0.000000 0.000000 0
0.000000 0.000000 0
0.000000 0.000000 0
0.000000 0.000000 0
0.000000 0.000000 0
0.000000 0.000000 0
0.000000 0.000000 0
0.000000 0.000000 0
0.000000 0.000000 0
0.000000 0.000000 0
0.000000 0.000000 0
0.000000 0.000000 0
0.000000 0.000000 0
0.000000 0.000000 0
0.267960 -0.186449 0
0.995866 -0.643970 0
1.702392 -1.205344 0
2.319851 -1.791267 0
2.880634 -2.411949 0
3.395794 -2.929944 0
4.284484 -3.999308 0
5.744134 -3.967420 0
5.401658 -2.321784 0
4.738433 -1.138687 0
4.209733 -0.450773 0
3.920676 -0.063124 0
3.816941 0.163229 0
3.848369 0.283113 0
3.954302 0.334208 0
4.094241 0.341212 0
4.244126 0.321231 0
4.389360 0.286492 0
4.521983 0.245468 0
4.638464 0.203904 0
4.738155 0.165440 0
4.822140 0.132072 0
4.892398 0.104557 0
4.951217 0.082801 0
5.000833 0.066201 0
5.043234 0.053916 0
5.080085 0.045058 0
5.112728 0.038818 0
5.142215 0.034523 0
5.169360 0.031664 0
5.194805 0.029892 0
5.219073 0.029008 0
5.242633 0.028948 0
5.265954 0.029780 0
5.289565 0.031706 0
5.314121 0.035084 0
5.340482 0.040462 0
5.369812 0.048654 0
5.403705 0.060835 0
5.444351 0.078716 0
5.494754 0.104789 0
5.558990 0.142752 0
5.642506 0.198206 0
5.752311 0.280008 0
5.896689 0.402806 0
6.081414 0.591876 0
6.300922 0.891393 0
6.455749 1.315505 0
6.420501 1.769143 0
6.248652 2.147830 0
5.949215 2.411243 0
5.510752 2.511744 0
4.841551 2.369056 0
3.729001 1.879001 0
1.486491 0.766748 0
-0.000000 0.000000 0
-0.001613 0.000000 0
0.000000 0.000000 0
0.000000 0.000000 0
0.000000 0.000000 0
0.000000 0.000000 0
0.000000 0.000000 0
0.000000 0.000000 0
0.000000 0.000000 0
0.000000 0.000000 0
0.000000 0.000000 0
0.000000 0.000000 0
0.000000 0.000000 0
0.000000 0.000000 0
0.000000 0.000000 0
0.000000 0.000000 0
0.000000 0.000000 0
0.000000 0.000000 0
0.000000 0.000000 0
0.000000 0.000000 0
0.000000 0.000000 0
0.000000 0.000000 0
0.000000 0.000000 0
0.000000 0.000000 0
0.000000 0.000000 0
0.000000 0.000000 0
0.209241 -0.131859 0
0.805419 -0.492424 0
1.468491 -0.977540 0
2.052797 -1.502195 0
2.535346 -2.049864 0
2.939328 -2.643622 0
3.298290 -3.255444 0
4.068825 -4.553918 0
5.219328 -4.122691 0
3.916886 -1.907811 0
2.775352 -0.742427 0
2.002217 -0.196149 0
1.718996 0.050243 0
1.749691 0.170718 0
1.910252 0.225792 0
2.129585 0.246780 0
2.368921 0.243896 0
2.605241 0.225140 0
2.823899 0.197655 0
3.017581 0.166685 0
3.183767 0.135979 0
3.323015 0.107971 0
3.437731 0.083991 0
3.531262 0.064501 0
3.607247 0.049360 0
3.669186 0.038062 0
3.720204 0.029935 0
3.762934 0.024283 0
3.799507 0.020480 0
3.831592 0.018016 0
3.860474 0.016509 0
3.887145 0.015703 0
3.912393 0.015455 0
3.936903 0.015725 0
3.961338 0.016565 0
3.986438 0.018123 0
4.013117 0.020655 0
4.042581 0.024554 0
4.076483 0.030402 0
4.117120 0.039049 0
4.167713 0.051744 0
4.232793 0.070348 0
4.318744 0.097698 0
4.434605 0.138263 0
4.593076 0.199474 0
4.812804 0.295215 0
5.115671 0.451978 0
5.542371 0.745613 0
5.974341 1.232484 0
6.149490 1.769660 0
6.206423 2.212715 0
6.129776 2.543832 0
5.900363 2.728490 0
5.477875 2.715843 0
4.766586 2.444296 0
3.602998 1.855653 0
1.410737 0.737647 0
-0.000000 0.000000 0
-0.001125 0.000000 0
0.000000 0.000000 0
0.000000 0.000000 0
0.000000 0.000000 0
0.000000 0.000000 0
0.000000 0.000000 0
0.000000 0.000000 0
0.000000 0.000000 0
0.000000 0.000000 0
0.000000 0.000000 0
0.000000 0.000000 0
0.000000 0.000000 0
0.000000 0.000000 0
0.000000 0.000000 0
0.000000 0.000000 0
0.000000 0.000000 0
0.000000 0.000000 0
0.000000 0.000000 0
0.000000 0.000000 0
0.000000 0.000000 0
0.000000 0.000000 0
0.000000 0.000000 0
0.000000 0.000000 0
0.195335 -0.102298 0
0.724334 -0.396762 0
1.360454 -0.809410 0
1.928515 -1.261942 0
2.381649 -1.733882 0
2.709886 -2.230469 0
2.935095 -2.789924 0
3.101468 -3.489515 0
3.571618 -4.951023 0
4.021248 -3.892147 0
1.556778 -1.110997 0
0.421225 -0.190128 0
0.058187 0.072564 0
0.025298 0.061981 0
0.159603 0.068478 0
0.369893 0.094907 0
0.615365 0.106976 0
0.868019 0.105564 0
1.107671 0.095828 0
1.322465 0.082212 0
1.506638 0.067183 0
1.658919 0.052587 0
1.781111 0.039622 0
1.876859 0.028903 0
1.950647 0.020576 0
2.007054 0.014471 0
2.050280 0.010240 0
2.083883 0.007472 0
2.110704 0.005770 0
2.132898 0.004804 0
2.152043 0.004319 0
2.169264 0.004142 0
2.185366 0.004171 0
2.200959 0.004357 0
2.216562 0.004700 0
2.232700 0.005239 0
2.249999 0.006054 0
2.269281 0.007269 0
2.291690 0.009070 0
2.318844 0.011726 0
2.353058 0.015639 0
2.397665 0.021410 0
2.457502 0.029965 0
2.539662 0.042771 0
2.654706 0.062297 0
2.818747 0.092642 0
3.057346 0.143903 0
3.414640 0.230436 0
3.969665 0.465994 0
4.891882 1.014728 0
5.375719 1.654166 0
5.755193 2.157597 0
5.964817 2.562870 0
5.981793 2.834707 0
5.792022 2.930748 0
5.359127 2.807847 0
4.612575 2.433783 0
3.437441 1.789872 0
1.337041 0.699297 0
-0.000000 0.000000 0
-0.001286 0.000000 0
0.000000 0.000000 0
0.000000 0.000000 0
0.000000 0.000000 0
0.000000 0.000000 0
0.000000 0.000000 0
0.000000 0.000000 0
0.000000 0.000000 0
0.000000 0.000000 0
0.000000 0.000000 0
0.000000 0.000000 0
0.000000 0.000000 0
0.000000 0.000000 0
0.000000 0.000000 0
0.000000 0.000000 0
0.000000 0.000000 0
0.000000 0.000000 0
0.000000 0.000000 0
0.000000 0.000000 0
0.000000 0.000000 0
0.000000 0.000000 0
0.225160 -0.095083 0
0.751075 -0.355795 0
1.380113 -0.707715 0
1.940940 -1.088995 0
2.380131 -1.483457 0
2.678992 -1.889299 0
2.838731 -2.324050 0
2.878006 -2.837618 0
2.824766 -3.570789 0
2.796829 -5.009592 0
1.634857 -3.000205 0
0.000000 0.000000 0
0.000000 0.000000 0
0.000000 0.000000 0
0.000000 0.000000 0
0.000000 0.000000 0
-0.000000 0.000000 0
-0.000000 0.000000 0
-0.000000 0.000000 0
-0.000000 0.000000 0
-0.000000 0.000000 0
-0.000000 0.000000 0
-0.000000 0.000000 0
-0.000000 0.000000 0
-0.000000 0.000000 0
-0.000000 0.000000 0
-0.000000 0.000000 0
-0.000000 0.000000 0
-0.000000 0.000000 0
-0.000000 0.000000 0
-0.000000 0.000000 0
-0.000000 0.000000 0
-0.000000 0.000000 0
-0.000000 0.000000 0
-0.000000 0.000000 0
-0.000000 0.000000 0
-0.000000 0.000000 0
-0.000000 0.000000 0
-0.000000 0.000000 0
-0.000000 0.000000 0
-0.000000 0.000000 0
-0.000000 0.000000 0
-0.000000 0.000000 0
-0.000000 0.000000 0
-0.000000 0.000000 0
-0.000000 0.000000 0
-0.000000 0.000000 0
-0.000000 0.000000 0
-0.000000 0.000000 0
0.000000 0.000000 0
2.077727 0.522139 0
3.745956 1.341961 0
4.737656 1.920866 0
5.378332 2.431570 0
5.724184 2.814096 0
5.802469 3.024322 0
5.625243 3.028614 0
5.177883 2.807688 0
4.420307 2.362897 0
3.274177 1.705444 0
1.282852 0.662374 0
-0.000000 0.000000 0
-0.002113 0.000000 0
0.000000 0.000000 0
0.000000 0.000000 0
0.000000 0.000000 0
0.000000 0.000000 0
0.000000 0.000000 0
0.000000 0.000000 0
0.000000 0.000000 0
0.000000 0.000000 0
0.000000 0.000000 0
0.000000 0.000000 0
0.000000 0.000000 0
0.000000 0.000000 0
0.000000 0.000000 0
0.000000 0.000000 0
0.000000 0.000000 0
0.000000 0.000000 0
0.000000 0.000000 0
0.000000 0.000000 0
0.308930 -0.109497 0
0.897276 -0.368354 0
1.541428 -0.672792 0
2.095980 -0.986241 0
2.519495 -1.304835 0
2.796880 -1.627585 0
2.926815 -1.961080 0
2.918660 -2.329064 0
2.785009 -2.783006 0
2.522191 -3.449299 0
2.017703 -4.378547 0
0.037590 0.000000 0
-0.073580 2.449212 0
0.384010 0.000000 0
0.310193 0.000000 0
0.237540 0.000000 0
0.185084 0.000000 0
0.099317 0.000000 0
-0.006486 0.000000 0
-0.116613 0.000000 0
-0.219568 0.000000 0
-0.310042 0.000000 0
-0.385513 0.000000 0
-0.445652 0.000000 0
-0.491660 0.000000 0
-0.525630 0.000000 0
-0.550000 0.000000 0
-0.567162 0.000000 0
-0.579210 0.000000 0
-0.587832 0.000000 0
-0.594292 0.000000 0
-0.599480 0.000000 0
-0.603988 0.000000 0
-0.608197 0.000000 0
-0.612349 0.000000 0
-0.616615 0.000000 0
-0.621143 0.000000 0
-0.626102 0.000000 0
-0.631719 0.000000 0
-0.638322 0.000000 0
-0.646392 0.000000 0
-0.656629 0.000000 0
-0.670061 0.000000 0
-0.688196 0.000000 0
-0.713276 0.000000 0
-0.748682 0.000000 0
-0.799610 0.000000 0
-0.874429 0.000000 0
-0.986607 0.000000 0
-1.164898 0.000000 0
-1.451743 0.132249 0
0.000000 0.000000 0
1.708247 0.339771 0
3.310141 1.348891 0
4.417062 2.074127 0
5.135438 2.624582 0
5.515368 2.979765 0
5.601589 3.117277 0
5.419545 3.030729 0
4.969849 2.732999 0
4.233343 2.254983 0
3.152999 1.623444 0
1.266064 0.635570 0
0.000000 0.000000 0
-0.003822 0.000000 0
0.000000 0.000000 0
0.000000 0.000000 0
0.000000 0.000000 0
0.000000 0.000000 0
0.000000 0.000000 0
0.000000 0.000000 0
0.000000 0.000000 0
0.000000 0.000000 0
0.000000 0.000000 0
0.000000 0.000000 0
0.000000 0.000000 0
0.000000 0.000000 0
0.000000 0.000000 0
0.000000 0.000000 0
0.000000 0.000000 0