# vtk DataFile Version 2.0
generated by CFD-lab course output (written by Tobias Neckel) 
ASCII

DATASET STRUCTURED_GRID
DIMENSIONS  82 60 1 
POINTS 4920 float

-1.500000 -0.500000 0
-1.402439 -0.500000 0
-1.304878 -0.500000 0
-1.207317 -0.500000 0
-1.109756 -0.500000 0
-1.012195 -0.500000 0
-0.914634 -0.500000 0
-0.817073 -0.500000 0
-0.719512 -0.500000 0
-0.621951 -0.500000 0
-0.524390 -0.500000 0
-0.426829 -0.500000 0
-0.329268 -0.500000 0
-0.231707 -0.500000 0
-0.134146 -0.500000 0
-0.036585 -0.500000 0
0.060976 -0.500000 0
0.158537 -0.500000 0
0.256098 -0.500000 0
0.353659 -0.500000 0
0.451220 -0.500000 0
0.548780 -0.500000 0
0.646341 -0.500000 0
0.743902 -0.500000 0
0.841463 -0.500000 0
0.939024 -0.500000 0
1.036585 -0.500000 0
1.134146 -0.500000 0
1.231707 -0.500000 0
1.329268 -0.500000 0
1.426829 -0.500000 0
1.524390 -0.500000 0
1.621951 -0.500000 0
1.719512 -0.500000 0
1.817073 -0.500000 0
1.914634 -0.500000 0
2.012195 -0.500000 0
2.109756 -0.500000 0
2.207317 -0.500000 0
2.304878 -0.500000 0
2.402439 -0.500000 0
2.500000 -0.500000 0
2.597561 -0.500000 0
2.695122 -0.500000 0
2.792683 -0.500000 0
2.890244 -0.500000 0
2.987805 -0.500000 0
3.085366 -0.500000 0
3.182927 -0.500000 0
3.280488 -0.500000 0
3.378049 -0.500000 0
3.475610 -0.500000 0
3.573171 -0.500000 0
3.670732 -0.500000 0
3.768293 -0.500000 0
3.865854 -0.500000 0
3.963415 -0.500000 0
4.060976 -0.500000 0
4.158537 -0.500000 0
4.256098 -0.500000 0
4.353659 -0.500000 0
4.451220 -0.500000 0
4.548780 -0.500000 0
4.646341 -0.500000 0
4.743902 -0.500000 0
4.841463 -0.500000 0
4.939024 -0.500000 0
5.036585 -0.500000 0
5.134146 -0.500000 0
5.231707 -0.500000 0
5.329268 -0.500000 0
5.426829 -0.500000 0
5.524390 -0.500000 0
5.621951 -0.500000 0
5.719512 -0.500000 0
5.817073 -0.500000 0
5.914634 -0.500000 0
6.012195 -0.500000 0
6.109756 -0.500000 0
6.207317 -0.500000 0
6.304878 -0.500000 0
6.402439 -0.500000 0
-1.500000 -0.451667 0
-1.402439 -0.451667 0
-1.304878 -0.451667 0
-1.207317 -0.451667 0
-1.109756 -0.451667 0
-1.012195 -0.451667 0
-0.914634 -0.451667 0
-0.817073 -0.451667 0
-0.719512 -0.451667 0
-0.621951 -0.451667 0
-0.524390 -0.451667 0
-0.426829 -0.451667 0
-0.329268 -0.451667 0
-0.231707 -0.451667 0
-0.134146 -0.451667 0
-0.036585 -0.451667 0
0.060976 -0.451667 0
0.158537 -0.451667 0
0.256098 -0.451667 0
0.353659 -0.451667 0
0.451220 -0.451667 0
0.548780 -0.451667 0
0.646341 -0.451667 0
0.743902 -0.451667 0
0.841463 -0.451667 0
0.939024 -0.451667 0
1.036585 -0.451667 0
1.134146 -0.451667 0
1.231707 -0.451667 0
1.329268 -0.451667 0
1.426829 -0.451667 0
1.524390 -0.451667 0
1.621951 -0.451667 0
1.719512 -0.451667 0
1.817073 -0.451667 0
1.914634 -0.451667 0
2.012195 -0.451667 0
2.109756 -0.451667 0
2.207317 -0.451667 0
2.304878 -0.451667 0
2.402439 -0.451667 0
2.500000 -0.451667 0
2.597561 -0.451667 0
2.695122 -0.451667 0
2.792683 -0.451667 0
2.890244 -0.451667 0
2.987805 -0.451667 0
3.085366 -0.451667 0
3.182927 -0.451667 0
3.280488 -0.451667 0
3.378049 -0.451667 0
3.475610 -0.451667 0
3.573171 -0.451667 0
3.670732 -0.451667 0
3.768293 -0.451667 0
3.865854 -0.451667 0
3.963415 -0.451667 0
4.060976 -0.451667 0
4.158537 -0.451667 0
4.256098 -0.451667 0
4.353659 -0.451667 0
4.451220 -0.451667 0
4.548780 -0.451667 0
4.646341 -0.451667 0
4.743902 -0.451667 0
4.841463 -0.451667 0
4.939024 -0.451667 0
5.036585 -0.451667 0
5.134146 -0.451667 0
5.231707 -0.451667 0
5.329268 -0.451667 0
5.426829 -0.451667 0
5.524390 -0.451667 0
5.621951 -0.451667 0
5.719512 -0.451667 0
5.817073 -0.451667 0
5.914634 -0.451667 0
6.012195 -0.451667 0
6.109756 -0.451667 0
6.207317 -0.451667 0
6.304878 -0.451667 0
6.402439 -0.451667 0
-1.500000 -0.403333 0
-1.402439 -0.403333 0
-1.304878 -0.403333 0
-1.207317 -0.403333 0
-1.109756 -0.403333 0
-1.012195 -0.403333 0
-0.914634 -0.403333 0
-0.817073 -0.403333 0
-0.719512 -0.403333 0
-0.621951 -0.403333 0
-0.524390 -0.403333 0
-0.426829 -0.403333 0
-0.329268 -0.403333 0
-0.231707 -0.403333 0
-0.134146 -0.403333 0
-0.036585 -0.403333 0
0.060976 -0.403333 0
0.158537 -0.403333 0
0.256098 -0.403333 0
0.353659 -0.403333 0
0.451220 -0.403333 0
0.548780 -0.403333 0
0.646341 -0.403333 0
0.743902 -0.403333 0
0.841463 -0.403333 0
0.939024 -0.403333 0
1.036585 -0.403333 0
1.134146 -0.403333 0
1.231707 -0.403333 0
1.329268 -0.403333 0
1.426829 -0.403333 0
1.524390 -0.403333 0
1.621951 -0.403333 0
1.719512 -0.403333 0
1.817073 -0.403333 0
1.914634 -0.403333 0
2.012195 -0.403333 0
2.109756 -0.403333 0
2.207317 -0.403333 0
2.304878 -0.403333 0
2.402439 -0.403333 0
2.500000 -0.403333 0
2.597561 -0.403333 0
2.695122 -0.403333 0
2.792683 -0.403333 0
2.890244 -0.403333 0
2.987805 -0.403333 0
3.085366 -0.403333 0
3.182927 -0.403333 0
3.280488 -0.403333 0
3.378049 -0.403333 0
3.475610 -0.403333 0
3.573171 -0.403333 0
3.670732 -0.403333 0
3.768293 -0.403333 0
3.865854 -0.403333 0
3.963415 -0.403333 0
4.060976 -0.403333 0
4.158537 -0.403333 0
4.256098 -0.403333 0
4.353659 -0.403333 0
4.451220 -0.403333 0
4.548780 -0.403333 0
4.646341 -0.403333 0
4.743902 -0.403333 0
4.841463 -0.403333 0
4.939024 -0.403333 0
5.036585 -0.403333 0
5.134146 -0.403333 0
5.231707 -0.403333 0
5.329268 -0.403333 0
5.426829 -0.403333 0
5.524390 -0.403333 0
5.621951 -0.403333 0
5.719512 -0.403333 0
5.817073 -0.403333 0
5.914634 -0.403333 0
6.012195 -0.403333 0
6.109756 -0.403333 0
6.207317 -0.403333 0
6.304878 -0.403333 0
6.402439 -0.403333 0
-1.500000 -0.355000 0
-1.402439 -0.355000 0
-1.304878 -0.355000 0
-1.207317 -0.355000 0
-1.109756 -0.355000 0
-1.012195 -0.355000 0
-0.914634 -0.355000 0
-0.817073 -0.355000 0
-0.719512 -0.355000 0
-0.621951 -0.355000 0
-0.524390 -0.355000 0
-0.426829 -0.355000 0
-0.329268 -0.355000 0
-0.231707 -0.355000 0
-0.134146 -0.355000 0
-0.036585 -0.355000 0
0.060976 -0.355000 0
0.158537 -0.355000 0
0.256098 -0.355000 0
0.353659 -0.355000 0
0.451220 -0.355000 0
0.548780 -0.355000 0
0.646341 -0.355000 0
0.743902 -0.355000 0
0.841463 -0.355000 0
0.939024 -0.355000 0
1.036585 -0.355000 0
1.134146 -0.355000 0
1.231707 -0.355000 0
1.329268 -0.355000 0
1.426829 -0.355000 0
1.524390 -0.355000 0
1.621951 -0.355000 0
1.719512 -0.355000 0
1.817073 -0.355000 0
1.914634 -0.355000 0
2.012195 -0.355000 0
2.109756 -0.355000 0
2.207317 -0.355000 0
2.304878 -0.355000 0
2.402439 -0.355000 0
2.500000 -0.355000 0
2.597561 -0.355000 0
2.695122 -0.355000 0
2.792683 -0.355000 0
2.890244 -0.355000 0
2.987805 -0.355000 0
3.085366 -0.355000 0
3.182927 -0.355000 0
3.280488 -0.355000 0
3.378049 -0.355000 0
3.475610 -0.355000 0
3.573171 -0.355000 0
3.670732 -0.355000 0
3.768293 -0.355000 0
3.865854 -0.355000 0
3.963415 -0.355000 0
4.060976 -0.355000 0
4.158537 -0.355000 0
4.256098 -0.355000 0
4.353659 -0.355000 0
4.451220 -0.355000 0
4.548780 -0.355000 0
4.646341 -0.355000 0
4.743902 -0.355000 0
4.841463 -0.355000 0
4.939024 -0.355000 0
5.036585 -0.355000 0
5.134146 -0.355000 0
5.231707 -0.355000 0
5.329268 -0.355000 0
5.426829 -0.355000 0
5.524390 -0.355000 0
5.621951 -0.355000 0
5.719512 -0.355000 0
5.817073 -0.355000 0
5.914634 -0.355000 0
6.012195 -0.355000 0
6.109756 -0.355000 0
6.207317 -0.355000 0
6.304878 -0.355000 0
6.402439 -0.355000 0
-1.500000 -0.306667 0
-1.402439 -0.306667 0
-1.304878 -0.306667 0
-1.207317 -0.306667 0
-1.109756 -0.306667 0
-1.012195 -0.306667 0
-0.914634 -0.306667 0
-0.817073 -0.306667 0
-0.719512 -0.306667 0
-0.621951 -0.306667 0
-0.524390 -0.306667 0
-0.426829 -0.306667 0
-0.329268 -0.306667 0
-0.231707 -0.306667 0
-0.134146 -0.306667 0
-0.036585 -0.306667 0
0.060976 -0.306667 0
0.158537 -0.306667 0
0.256098 -0.306667 0
0.353659 -0.306667 0
0.451220 -0.306667 0
0.548780 -0.306667 0
0.646341 -0.306667 0
0.743902 -0.306667 0
0.841463 -0.306667 0
0.939024 -0.306667 0
1.036585 -0.306667 0
1.134146 -0.306667 0
1.231707 -0.306667 0
1.329268 -0.306667 0
1.426829 -0.306667 0
1.524390 -0.306667 0
1.621951 -0.306667 0
1.719512 -0.306667 0
1.817073 -0.306667 0
1.914634 -0.306667 0
2.012195 -0.306667 0
2.109756 -0.306667 0
2.207317 -0.306667 0
2.304878 -0.306667 0
2.402439 -0.306667 0
2.500000 -0.306667 0
2.597561 -0.306667 0
2.695122 -0.306667 0
2.792683 -0.306667 0
2.890244 -0.306667 0
2.987805 -0.306667 0
3.085366 -0.306667 0
3.182927 -0.306667 0
3.280488 -0.306667 0
3.378049 -0.306667 0
3.475610 -0.306667 0
3.573171 -0.306667 0
3.670732 -0.306667 0
3.768293 -0.306667 0
3.865854 -0.306667 0
3.963415 -0.306667 0
4.060976 -0.306667 0
4.158537 -0.306667 0
4.256098 -0.306667 0
4.353659 -0.306667 0
4.451220 -0.306667 0
4.548780 -0.306667 0
4.646341 -0.306667 0
4.743902 -0.306667 0
4.841463 -0.306667 0
4.939024 -0.306667 0
5.036585 -0.306667 0
5.134146 -0.306667 0
5.231707 -0.306667 0
5.329268 -0.306667 0
5.426829 -0.306667 0
5.524390 -0.306667 0
5.621951 -0.306667 0
5.719512 -0.306667 0
5.817073 -0.306667 0
5.914634 -0.306667 0
6.012195 -0.306667 0
6.109756 -0.306667 0
6.207317 -0.306667 0
6.304878 -0.306667 0
6.402439 -0.306667 0
-1.500000 -0.258333 0
-1.402439 -0.258333 0
-1.304878 -0.258333 0
-1.207317 -0.258333 0
-1.109756 -0.258333 0
-1.012195 -0.258333 0
-0.914634 -0.258333 0
-0.817073 -0.258333 0
-0.719512 -0.258333 0
-0.621951 -0.258333 0
-0.524390 -0.258333 0
-0.426829 -0.258333 0
-0.329268 -0.258333 0
-0.231707 -0.258333 0
-0.134146 -0.258333 0
-0.036585 -0.258333 0
0.060976 -0.258333 0
0.158537 -0.258333 0
0.256098 -0.258333 0
0.353659 -0.258333 0
0.451220 -0.258333 0
0.548780 -0.258333 0
0.646341 -0.258333 0
0.743902 -0.258333 0
0.841463 -0.258333 0
0.939024 -0.258333 0
1.036585 -0.258333 0
1.134146 -0.258333 0
1.231707 -0.258333 0
1.329268 -0.258333 0
1.426829 -0.258333 0
1.524390 -0.258333 0
1.621951 -0.258333 0
1.719512 -0.258333 0
1.817073 -0.258333 0
1.914634 -0.258333 0
2.012195 -0.258333 0
2.109756 -0.258333 0
2.207317 -0.258333 0
2.304878 -0.258333 0
2.402439 -0.258333 0
2.500000 -0.258333 0
2.597561 -0.258333 0
2.695122 -0.258333 0
2.792683 -0.258333 0
2.890244 -0.258333 0
2.987805 -0.258333 0
3.085366 -0.258333 0
3.182927 -0.258333 0
3.280488 -0.258333 0
3.378049 -0.258333 0
3.475610 -0.258333 0
3.573171 -0.258333 0
[...]
POINT_DATA 4920 

VECTORS velocity float
0.000000 0.000000 0
0.000000 0.000000 0
0.000000 0.000000 0
0.000000 0.000000 0
0.000000 0.000000 0
0.000000 0.000000 0
0.000000 0.000000 0
0.000000 0.000000 0
0.000000 0.000000 0
0.000000 0.000000 0
0.000000 0.000000 0
0.000000 0.000000 0
0.000000 0.000000 0
0.000000 0.000000 0
0.000000 0.000000 0
0.000000 0.000000 0
-0.000000 0.000000 0
-0.000000 0.000000 0
-0.000000 0.000000 0
-0.000000 0.000000 0
0.000000 0.000000 0
0.000000 0.000000 0
0.000000 0.000000 0
0.000000 0.000000 0
0.000000 0.000000 0
0.000000 0.000000 0
0.000000 0.000000 0
0.000000 0.000000 0
0.000000 0.000000 0
0.000000 0.000000 0
0.000000 0.000000 0
0.000000 0.000000 0
0.000000 0.000000 0
0.000000 0.000000 0
0.000000 0.000000 0
0.000000 0.000000 0
0.000000 0.000000 0
0.000000 0.000000 0
0.000000 0.000000 0
0.000000 0.000000 0
0.000000 0.000000 0
0.000000 0.000000 0
0.000000 0.000000 0
0.000000 0.000000 0
0.000000 0.000000 0
0.000000 0.000000 0
0.000000 0.000000 0
0.000000 0.000000 0
0.000000 0.000000 0
0.000000 0.000000 0
0.000000 0.000000 0
0.000000 0.000000 0
0.000000 0.000000 0
0.000000 0.000000 0
0.000000 0.000000 0
-0.000000 0.000000 0
0.000000 0.000000 0
0.001917 0.000000 0
0.000000 0.000000 0
0.000000 0.000000 0
0.000000 0.000000 0
0.000000 0.000000 0
0.000000 0.000000 0
0.000000 0.000000 0
0.000000 0.000000 0
0.000000 0.000000 0
0.000000 0.000000 0
0.000000 0.000000 0
0.000000 0.000000 0
0.000000 0.000000 0
0.000000 0.000000 0
0.000000 0.000000 0
0.000000 0.000000 0
0.000000 0.000000 0
0.000000 0.000000 0
0.000000 0.000000 0
0.000000 0.000000 0
0.000000 0.000000 0
0.000000 0.000000 0
0.000000 0.000000 0
0.000000 0.000000 0
0.000000 0.000000 0
0.000000 0.000000 0
0.000000 0.000000 0
0.000000 0.000000 0
0.000000 0.000000 0
0.000000 0.000000 0
0.000000 0.000000 0
0.000000 0.000000 0
0.000000 0.000000 0
0.000000 0.000000 0
0.000000 0.000000 0
0.000000 0.000000 0
0.000000 0.000000 0
0.000000 0.000000 0
0.000000 0.000000 0
1.046374 -0.422521 0
2.518258 -0.738195 0
3.779717 -0.505132 0
4.622718 -0.265392 0
5.056166 -0.070115 0
5.167122 0.061936 0
5.063228 0.139740 0
4.829739 0.177746 0
4.530792 0.186514 0
4.213273 0.175016 0
3.909474 0.151127 0
3.639178 0.121588 0
3.411823 0.091700 0
3.228996 0.065047 0
3.087101 0.043473 0
2.979816 0.027385 0
2.899998 0.016251 0
2.840902 0.009090 0
2.796803 0.004848 0
2.763176 0.002598 0
2.736628 0.001620 0
2.714725 0.001399 0
2.695772 0.001594 0
2.678612 0.001995 0
2.662450 0.002492 0
2.646710 0.003043 0
2.630919 0.003653 0
2.614604 0.004369 0
2.597209 0.005267 0
2.578006 0.006459 0
2.555994 0.008094 0
2.529784 0.010375 0
2.497439 0.013567 0
2.456269 0.018020 0
2.402570 0.024184 0
2.331293 0.032601 0
2.235673 0.043877 0
2.106882 0.058492 0
1.934072 0.076507 0
1.704821 0.096430 0
1.409292 0.115112 0
1.038611 0.130680 0
0.616591 0.068830 0
0.000000 0.000000 0
-0.001570 0.000000 0
0.000000 0.000000 0
0.000000 0.000000 0
0.000000 0.000000 0
0.000000 0.000000 0
0.000000 0.000000 0
0.000000 0.000000 0
0.000000 0.000000 0
0.000000 0.000000 0
0.000000 0.000000 0
0.000000 0.000000 0
0.000000 0.000000 0
0.000000 0.000000 0
0.000000 0.000000 0
0.000000 0.000000 0
0.000000 0.000000 0
0.000000 0.000000 0
0.000000 0.000000 0
0.000000 0.000000 0
0.000000 0.000000 0
0.000000 0.000000 0
0.000000 0.000000 0
0.000000 0.000000 0
0.000000 0.000000 0
0.000000 0.000000 0
0.000000 0.000000 0
0.000000 0.000000 0
0.000000 0.000000 0
0.000000 0.000000 0
0.000000 0.000000 0
0.000000 0.000000 0
0.000000 0.000000 0
0.000000 0.000000 0
0.000000 0.000000 0
0.000000 0.000000 0
0.000000 0.000000 0
0.000000 0.000000 0
1.159583 -0.516985 0
2.653700 -1.245974 0
3.828522 -1.353937 0
5.002475 -1.042585 0
5.863852 -0.632374 0
6.390902 -0.269707 0
6.647045 -0.003498 0
6.706783 0.167145 0
6.638254 0.263777 0
6.490970 0.305408 0
6.301111 0.307811 0
6.094736 0.284416 0
5.889961 0.246545 0
5.698565 0.203211 0
5.527287 0.160873 0
5.378970 0.123448 0
5.253624 0.092694 0
5.149411 0.068820 0
5.063492 0.051124 0
4.992680 0.038507 0
4.933896 0.029812 0
4.884422 0.024003 0
4.841998 0.020241 0
4.804823 0.017891 0
4.771499 0.016509 0
4.740937 0.015804 0
4.712267 0.015621 0
4.684740 0.015906 0
4.657640 0.016700 0
4.630188 0.018132 0
4.601449 0.020419 0
4.570209 0.023890 0
4.534841 0.029009 0
4.493105 0.036421 0
4.441900 0.046999 0
4.376911 0.061915 0
4.292135 0.082684 0
4.179249 0.111177 0
4.026808 0.149418 0
3.819325 0.199188 0
3.536627 0.259985 0
3.154457 0.330051 0
2.647112 0.392209 0
2.014708 0.512237 0
1.050648 0.303669 0
-0.000000 0.000000 0
-0.004728 0.000000 0
0.000000 0.000000 0
0.000000 0.000000 0
0.000000 0.000000 0
0.000000 0.000000 0
0.000000 0.000000 0
0.000000 0.000000 0
0.000000 0.000000 0
0.000000 0.000000 0
0.000000 0.000000 0
0.000000 0.000000 0
0.000000 0.000000 0
0.000000 0.000000 0
0.000000 0.000000 0
0.000000 0.000000 0
0.000000 0.000000 0
0.000000 0.000000 0
0.000000 0.000000 0
0.000000 0.000000 0
0.000000 0.000000 0
0.000000 0.000000 0
0.000000 0.000000 0
0.000000 0.000000 0
0.000000 0.000000 0
0.000000 0.000000 0
0.000000 0.000000 0
0.000000 0.000000 0
0.000000 0.000000 0
0.000000 0.000000 0
0.000000 0.000000 0
0.000000 0.000000 0
0.000000 0.000000 0
0.000000 0.000000 0
0.000000 0.000000 0
0.000000 0.000000 0
0.936068 -0.582521 0
2.634516 -1.321326 0
3.462228 -1.743353 0
4.644865 -1.901818 0
5.708237 -1.513468 0
6.431327 -0.953242 0
6.856173 -0.458121 0
7.079364 -0.094557 0
7.167476 0.144095 0
7.169338 0.284663 0
7.118145 0.353540 0
7.036124 0.371317 0
6.938137 0.354818 0
6.834279 0.317858 0
6.731512 0.271375 0
6.634525 0.223380 0
6.546170 0.179050 0
6.467760 0.141113 0
6.399399 0.110446 0
6.340353 0.086738 0
6.289421 0.069051 0
6.245237 0.056231 0
6.206470 0.047148 0
6.171947 0.040834 0
6.140686 0.036520 0
6.111894 0.033645 0
6.084927 0.031837 0
6.059246 0.030884 0
6.034363 0.030717 0
6.009778 0.031395 0
5.984926 0.033105 0
5.959096 0.036173 0
5.931348 0.041093 0
5.900393 0.048573 0
5.864435 0.059611 0
5.820945 0.075585 0
5.766338 0.098380 0
5.695498 0.130526 0
5.601075 0.175325 0
5.472454 0.236804 0
5.294115 0.319351 0
5.043947 0.425817 0
4.690100 0.555792 0
4.200040 0.695331 0
3.530186 0.856011 0
2.831502 0.996779 0
1.343104 0.522902 0
-0.000000 0.000000 0
-0.005821 0.000000 0
0.000000 0.000000 0
0.000000 0.000000 0
0.000000 0.000000 0
0.000000 0.000000 0
0.000000 0.000000 0
0.000000 0.000000 0
0.000000 0.000000 0
0.000000 0.000000 0
0.000000 0.000000 0
0.000000 0.000000 0
0.000000 0.000000 0
0.000000 0.000000 0
0.000000 0.000000 0
0.000000 0.000000 0
0.000000 0.000000 0
0.000000 0.000000 0
0.000000 0.000000 0
0.000000 0.000000 0
0.000000 0.000000 0
0.000000 0.000000 0
0.000000 0.000000 0
0.000000 0.000000 0
0.000000 0.000000 0
0.000000 0.000000 0
0.000000 0.000000 0
0.000000 0.000000 0
0.000000 0.000000 0
0.000000 0.000000 0
0.000000 0.000000 0
0.000000 0.000000 0
0.000000 0.000000 0
0.000000 0.000000 0
0.738356 -0.467365 0
2.144304 -1.316849 0
3.090209 -1.776531 0
3.864670 -2.241935 0
5.207662 -2.466647 0
6.163212 -1.927628 0
6.688648 -1.201081 0
6.946426 -0.590755 0
7.065078 -0.157723 0
7.111595 0.122571 0
7.115598 0.288217 0
7.097451 0.371404 0
7.068587 0.396991 0
7.034740 0.384413 0
6.998676 0.348910 0
6.962009 0.302172 0
6.926016 0.252694 0
6.891807 0.206066 0
6.860226 0.165407 0
6.831748 0.131940 0
6.806467 0.105609 0
6.784180 0.085629 0
6.764501 0.070907 0
6.746970 0.060312 0
6.731131 0.052831 0
6.716578 0.047643 0
6.702965 0.044133 0
6.690005 0.041887 0
6.677451 0.040671 0
6.665073 0.040413 0
6.652630 0.041192 0
6.639835 0.043240 0
6.626315 0.046962 0
6.611558 0.052972 0
6.594841 0.062159 0
6.575125 0.075781 0
6.550902 0.095598 0
6.519955 0.124064 0
6.478982 0.164558 0
6.422960 0.221677 0
6.344076 0.301491 0
6.229722 0.411477 0
6.059481 0.559224 0
5.799622 0.748137 0
5.406766 0.966849 0
4.837784 1.190233 0
4.167764 1.389408 0
3.377780 1.410081 0
1.500968 0.670482 0
-0.000000 0.000000 0
-0.005276 0.000000 0
0.000000 0.000000 0
0.000000 0.000000 0
0.000000 0.000000 0
0.000000 0.000000 0
0.000000 0.000000 0
0.000000 0.000000 0
0.000000 0.000000 0
0.000000 0.000000 0
0.000000 0.000000 0
0.000000 0.000000 0
0.000000 0.000000 0
0.000000 0.000000 0
0.000000 0.000000 0
0.000000 0.000000 0
0.000000 0.000000 0
0.000000 0.000000 0
0.000000 0.000000 0
0.000000 0.000000 0
0.000000 0.000000 0
0.000000 0.000000 0
0.000000 0.000000 0
0.000000 0.000000 0
0.000000 0.000000 0
0.000000 0.000000 0
0.000000 0.000000 0
0.000000 0.000000 0
0.000000 0.000000 0
0.000000 0.000000 0
0.000000 0.000000 0
0.000000 0.000000 0
0.536146 -0.369265 0
1.698484 -1.069417 0
2.545142 -1.751290 0
3.300594 -2.173624 0
4.126437 -2.792374 0
5.618939 -3.040553 0
6.351920 -2.247173 0
6.584588 -1.341259 0
6.618027 -0.644611 0
6.605834 -0.176384 0
6.591061 0.119067 0
6.580987 0.291671 0
6.579734 0.376830 0
6.586687 0.402385 0
6.598937 0.389453 0
6.613057 0.353890 0
6.626377 0.307372 0
6.637422 0.258159 0
6.645785 0.211643 0
6.651745 0.170867 0
6.655880 0.137079 0
6.658797 0.110303 0
6.660989 0.089842 0
6.662803 0.074665 0
6.664450 0.063680 0
6.666042 0.055890 0
6.667627 0.050474 0
6.669215 0.046810 0
6.670798 0.044477 0
6.672355 0.043235 0
6.673866 0.043013 0
6.675305 0.043898 0
6.676642 0.046142 0
6.677836 0.050182 0
6.678824 0.056686 0
6.679504 0.066623 0
6.679700 0.081379 0
6.679105 0.102917 0
6.677170 0.134010 0
6.672889 0.178579 0
6.664367 0.242159 0
6.647928 0.332538 0
6.616088 0.460344 0
6.553472 0.638896 0
6.428289 0.879158 0
6.184165 1.171842 0
5.772432 1.469833 0
5.221582 1.720090 0
4.581801 1.852283 0
3.671044 1.686759 0
1.556503 0.748748 0
-0.000000 0.000000 0
-0.003982 0.000000 0
0.000000 0.000000 0
0.000000 0.000000 0
0.000000 0.000000 0
0.000000 0.000000 0
0.000000 0.000000 0
0.000000 0.000000 0
0.000000 0.000000 0
0.000000 0.000000 0
0.000000 0.000000 0
0.000000 0.000000 0
0.000000 0.000000 0
0.000000 0.000000 0
0.000000 0.000000 0
0.000000 0.000000 0
0.000000 0.000000 0
0.000000 0.000000 0
0.000000 0.000000 0
0.000000 0.000000 0
0.000000 0.000000 0
0.000000 0.000000 0
0.000000 0.000000 0
0.000000 0.000000 0
0.000000 0.000000 0
0.000000 0.000000 0
0.000000 0.000000 0
0.000000 0.000000 0
0.000000 0.000000 0
0.000000 0.000000 0
0.376444 -0.266946 0
1.297253 -0.846259 0
2.061356 -1.466127 0
2.754273 -2.110561 0
3.394854 -2.559932 0
4.280858 -3.390482 0
5.830984 -3.569189 0
6.151662 -2.406027 0
5.981532 -1.332914 0
5.742745 -0.601280 0
5.590271 -0.144364 0
5.514151 0.134880 0
5.501162 0.293829 0
5.531456 0.368580 0
5.587215 0.387477 0
5.654942 0.371349 0
5.724919 0.335316 0
5.790975 0.290102 0
5.849862 0.243079 0
5.900481 0.198970 0
5.943117 0.160406 0
5.978787 0.128446 0
6.008767 0.103077 0
6.034307 0.083644 0
6.056493 0.069193 0
6.076197 0.058707 0
6.094088 0.051257 0
6.110663 0.046070 0
6.126288 0.042562 0
6.141236 0.040332 0
6.155726 0.039151 0
6.169952 0.038952 0
6.184115 0.039817 0
6.198448 0.041986 0
6.213252 0.045881 0
6.228923 0.052146 0
6.245997 0.061725 0
6.265192 0.075978 0
6.287463 0.096852 0
6.314040 0.127144 0
6.346443 0.170901 0
6.386352 0.234043 0
6.435153 0.325409 0
6.492368 0.458272 0
6.551270 0.652263 0
6.587235 0.931098 0
6.526499 1.291772 0
6.297125 1.667113 0
5.922168 1.979266 0
5.433564 2.178243 0
4.793849 2.179635 0
3.768464 1.832975 0
1.542573 0.775027 0
-0.000000 0.000000 0
-0.002625 0.000000 0
0.000000 0.000000 0
0.000000 0.000000 0
0.000000 0.000000 0
0.000000 0.000000 0
0.000000 0.000000 0
0.000000 0.000000 0
0.000000 0.000000 0
0.000000 0.000000 0
0.000000 0.000000 0
0.000000 0.000000 0
0.000000 0.000000 0
0.000000 0.000000 0
0.000000 0.000000 0
0.000000 0.000000 0
0.000000 0.000000 0
0.000000 0.000000 0
0.000000 0.000000 0
0.000000 0.000000 0
0.000000 0.000000 0
0.000000 0.000000 0
0.000000 0.000000 0
0.000000 0.000000 0
0.000000 0.000000 0
0.000000 0.000000 0
0.000000 0.000000 0
0.000000 0.000000 0
0.267952 -0.186445 0
0.995846 -0.643959 0
1.702366 -1.205329 0
2.319822 -1.791249 0
2.880603 -2.411927 0
3.395761 -2.929919 0
4.284444 -3.999274 0
5.744083 -3.967381 0
5.401608 -2.321757 0
4.738386 -1.138675 0
4.209686 -0.450773 0
3.920629 -0.063135 0
3.816891 0.163213 0
3.848317 0.283098 0
3.954249 0.334198 0
4.094190 0.341208 0
4.244076 0.321232 0
4.389313 0.286497 0
4.521939 0.245473 0
4.638423 0.203908 0
4.738116 0.165443 0
4.822101 0.132073 0
4.892359 0.104555 0
4.951177 0.082798 0
5.000792 0.066198 0
5.043190 0.053912 0
5.080039 0.045055 0
5.112680 0.038815 0
5.142165 0.034522 0
5.169310 0.031664 0
5.194754 0.029893 0
5.219022 0.029009 0
5.242583 0.028949 0
5.265904 0.029781 0
5.289516 0.031707 0
5.314072 0.035084 0
5.340434 0.040463 0
5.369765 0.048654 0
5.403658 0.060836 0
5.444306 0.078717 0
5.494708 0.104790 0
5.558946 0.142755 0
5.642464 0.198211 0
5.752271 0.280016 0
5.896653 0.402818 0
6.081382 0.591897 0
6.300893 0.891430 0
6.455708 1.315567 0
6.420412 1.769229 0
6.248467 2.147912 0
5.948911 2.411271 0
5.510343 2.511677 0
4.841091 2.368891 0
3.728584 1.878803 0
1.486323 0.766653 0
-0.000000 0.000000 0
-0.001609 0.000000 0
0.000000 0.000000 0
0.000000 0.000000 0
0.000000 0.000000 0
0.000000 0.000000 0
0.000000 0.000000 0
0.000000 0.000000 0
0.000000 0.000000 0
0.000000 0.000000 0
0.000000 0.000000 0
0.000000 0.000000 0
0.000000 0.000000 0
0.000000 0.000000 0
0.000000 0.000000 0
0.000000 0.000000 0
0.000000 0.000000 0
0.000000 0.000000 0
0.000000 0.000000 0
0.000000 0.000000 0
0.000000 0.000000 0
0.000000 0.000000 0
0.000000 0.000000 0
0.000000 0.000000 0
0.000000 0.000000 0
0.000000 0.000000 0
0.209233 -0.131855 0
0.805400 -0.492414 0
1.468467 -0.977527 0
2.052771 -1.502179 0
2.535318 -2.049845 0
2.939297 -2.643599 0
3.298259 -3.255418 0
4.068788 -4.553879 0
5.219286 -4.122651 0
3.916857 -1.907788 0
2.775332 -0.742416 0
2.002202 -0.196150 0
1.718977 0.050233 0
1.749663 0.170705 0
1.910215 0.225779 0
2.129543 0.246771 0
2.368875 0.243892 0
2.605195 0.225140 0
2.823855 0.197658 0
3.017541 0.166689 0
3.183730 0.135982 0
3.322980 0.107973 0
3.437697 0.083991 0
3.531228 0.064500 0
3.607211 0.049358 0
3.669148 0.038060 0
3.720163 0.029933 0
3.762890 0.024281 0
3.799460 0.020479 0
3.831544 0.018015 0
3.860425 0.016509 0
3.887096 0.015703 0
3.912345 0.015456 0
3.936855 0.015726 0
3.961291 0.016566 0
3.986392 0.018123 0
4.013072 0.020655 0
4.042537 0.024555 0
4.076439 0.030403 0
4.117077 0.039049 0
4.167670 0.051744 0
4.232751 0.070349 0
4.318704 0.097700 0
4.434568 0.138267 0
4.593043 0.199480 0
4.812777 0.295225 0
5.115653 0.451996 0
5.542366 0.745650 0
5.974342 1.232560 0
6.149448 1.769783 0
6.206264 2.212856 0
6.129464 2.543922 0
5.899919 2.728467 0
5.477359 2.715688 0
4.766089 2.444058 0
3.602627 1.855438 0
1.410631 0.737561 0
-0.000000 0.000000 0
-0.001122 0.000000 0
0.000000 0.000000 0
0.000000 0.000000 0
0.000000 0.000000 0
0.000000 0.000000 0
0.000000 0.000000 0
0.000000 0.000000 0
0.000000 0.000000 0
0.000000 0.000000 0
0.000000 0.000000 0
0.000000 0.000000 0
0.000000 0.000000 0
0.000000 0.000000 0
0.000000 0.000000 0
0.000000 0.000000 0
0.000000 0.000000 0
0.000000 0.000000 0
0.000000 0.000000 0
0.000000 0.000000 0
0.000000 0.000000 0
0.000000 0.000000 0
0.000000 0.000000 0
0.000000 0.000000 0
0.195328 -0.102294 0
0.724317 -0.396753 0
1.360431 -0.809398 0
1.928490 -1.261927 0
2.381622 -1.733865 0
2.709859 -2.230449 0
2.935067 -2.789901 0
3.101441 -3.489488 0
3.571588 -4.950982 0
4.021219 -3.892112 0
1.556778 -1.110982 0
0.421241 -0.190122 0
0.058209 0.072563 0
0.025312 0.061977 0
0.159605 0.068470 0
0.369880 0.094899 0
0.615341 0.106970 0
0.867988 0.105562 0
1.107638 0.095827 0
1.322434 0.082214 0
1.506611 0.067185 0
1.658895 0.052588 0
1.781090 0.039623 0
1.876839 0.028903 0
1.950626 0.020575 0
2.007032 0.014470 0
2.050256 0.010240 0
2.083856 0.007471 0
2.110675 0.005770 0
2.132867 0.004803 0
2.152011 0.004318 0
2.169231 0.004142 0
2.185334 0.004171 0
2.200928 0.004357 0
2.216532 0.004700 0
2.232671 0.005240 0
2.249970 0.006054 0
2.269253 0.007270 0
2.291662 0.009070 0
2.318817 0.011726 0
2.353031 0.015639 0
2.397638 0.021410 0
2.457477 0.029966 0
2.539638 0.042772 0
2.654684 0.062299 0
2.818729 0.092645 0
3.057336 0.143908 0
3.414642 0.230446 0
3.969690 0.466021 0
4.891955 1.014809 0
5.375770 1.654331 0
5.755099 2.157813 0
5.964517 2.563040 0
5.981318 2.834740 0
5.791455 2.930609 0
5.358572 2.807577 0
4.612139 2.433488 0
3.437217 1.789680 0
1.337041 0.699243 0
-0.000000 0.000000 0
-0.001284 0.000000 0
0.000000 0.000000 0
0.000000 0.000000 0
0.000000 0.000000 0
0.000000 0.000000 0
0.000000 0.000000 0
0.000000 0.000000 0
0.000000 0.000000 0
0.000000 0.000000 0
0.000000 0.000000 0
0.000000 0.000000 0
0.000000 0.000000 0
0.000000 0.000000 0
0.000000 0.000000 0
0.000000 0.000000 0
0.000000 0.000000 0
0.000000 0.000000 0
0.000000 0.000000 0
0.000000 0.000000 0
0.000000 0.000000 0
0.000000 0.000000 0
0.225154 -0.095079 0
0.751059 -0.355786 0
1.380092 -0.707704 0
1.940917 -1.088982 0
2.380107 -1.483442 0
2.678968 -1.889282 0
2.838707 -2.324031 0
2.877983 -2.837595 0
2.824744 -3.570761 0
2.796807 -5.009553 0
1.634846 -3.000181 0
0.000000 0.000000 0
0.000000 0.000000 0
0.000000 0.000000 0
0.000000 0.000000 0
0.000000 0.000000 0
0.000000 0.000000 0
0.000000 0.000000 0
0.000000 0.000000 0
0.000000 0.000000 0
0.000000 0.000000 0
0.000000 0.000000 0
0.000000 0.000000 0
0.000000 0.000000 0
0.000000 0.000000 0
0.000000 0.000000 0
0.000000 0.000000 0
0.000000 0.000000 0
0.000000 0.000000 0
0.000000 0.000000 0
0.000000 0.000000 0
0.000000 0.000000 0
0.000000 0.000000 0
0.000000 0.000000 0
0.000000 0.000000 0
0.000000 0.000000 0
0.000000 0.000000 0
0.000000 0.000000 0
0.000000 0.000000 0
0.000000 0.000000 0
0.000000 0.000000 0
0.000000 0.000000 0
0.000000 0.000000 0
0.000000 0.000000 0
0.000000 0.000000 0
0.000000 0.000000 0
0.000000 0.000000 0
0.000000 0.000000 0
0.000000 0.000000 0
0.000001 0.000000 0
2.077786 0.522200 0
3.746143 1.342168 0
4.737671 1.921181 0
5.378070 2.431850 0
5.723687 2.814205 0
5.801850 3.024207 0
5.624632 3.028311 0
5.177401 2.807309 0
4.420054 2.362590 0
3.274200 1.705326 0
1.282995 0.662373 0
-0.000000 0.000000 0
-0.002113 0.000000 0
0.000000 0.000000 0
0.000000 0.000000 0
0.000000 0.000000 0
0.000000 0.000000 0
0.000000 0.000000 0
0.000000 0.000000 0
0.000000 0.000000 0
0.000000 0.000000 0
0.000000 0.000000 0
0.000000 0.000000 0
0.000000 0.000000 0
0.000000 0.000000 0
0.000000 0.000000 0
0.000000 0.000000 0
0.000000 0.000000 0
0.000000 0.000000 0
0.000000 0.000000 0
0.000000 0.000000 0
0.308925 -0.109494 0
0.897261 -0.368346 0
1.541409 -0.672781 0
2.095959 -0.986229 0
2.519474 -1.304821 0
2.796859 -1.627570 0
2.926794 -1.961063 0
2.918640 -2.329045 0
2.784990 -2.782983 0
2.522173 -3.449272 0
2.017687 -4.378512 0
0.037590 -0.000000 0
-0.073588 2.449193 0
0.383992 0.000000 0
0.310174 0.000000 0
0.237524 0.000000 0
0.185075 0.000000 0
0.099316 0.000000 0
-0.006479 0.000000 0
-0.116603 0.000000 0
-0.219556 0.000000 0
-0.310031 0.000000 0
-0.385505 0.000000 0
-0.445645 0.000000 0
-0.491654 0.000000 0
-0.525624 0.000000 0
-0.549995 0.000000 0
-0.567156 0.000000 0
-0.579203 0.000000 0
-0.587824 0.000000 0
-0.594284 0.000000 0
-0.599471 0.000000 0
-0.603979 0.000000 0
-0.608187 0.000000 0
-0.612340 0.000000 0
-0.616606 0.000000 0
-0.621135 0.000000 0
-0.626094 0.000000 0
-0.631711 0.000000 0
-0.638314 0.000000 0
-0.646384 0.000000 0
-0.656622 0.000000 0
-0.670054 0.000000 0
-0.688189 0.000000 0
-0.713269 0.000000 0
-0.748675 0.000000 0
-0.799604 0.000000 0
-0.874426 0.000000 0
-0.986607 0.000000 0
-1.164905 0.000000 0
-1.451764 0.132250 0
0.000000 -0.000001 0
1.708551 0.339959 0
3.310269 1.349329 0
4.416837 2.074551 0
5.134913 2.624792 0
5.514688 2.979683 0
5.600912 3.116939 0
5.419013 3.030256 0
4.969573 2.732558 0
4.233390 2.254727 0
3.153349 1.623450 0
1.266374 0.635641 0
-0.000000 0.000000 0
-0.003825 0.000000 0
0.000000 0.000000 0
0.000000 0.000000 0
0.000000 0.000000 0
0.000000 0.000000 0
0.000000 0.000000 0
0.000000 0.000000 0
0.000000 0.000000 0
0.000000 0.000000 0
0.000000 0.000000 0
0.000000 0.000000 0
0.000000 0.000000 0
0.000000 0.000000 0
0.000000 0.000000 0
0.000000 0.000000 0
0.000000 0.000000 0
0.000000 0.000000 0
0.482546 -0.150465 0
1.207463 -0.439885 0