# vtk DataFile Version 2.0
generated by CFD-lab course output (written by Tobias Neckel) 
ASCII

DATASET STRUCTURED_GRID
DIMENSIONS  82 60 1 
POINTS 4920 float

-1.500000 -0.500000 0
-1.402439 -0.500000 0
-1.304878 -0.500000 0
-1.207317 -0.500000 0
-1.109756 -0.500000 0
-1.012195 -0.500000 0
-0.914634 -0.500000 0
-0.817073 -0.500000 0
-0.719512 -0.500000 0
-0.621951 -0.500000 0
-0.524390 -0.500000 0
-0.426829 -0.500000 0
-0.329268 -0.500000 0
-0.231707 -0.500000 0
-0.134146 -0.500000 0
-0.036585 -0.500000 0
0.060976 -0.500000 0
0.158537 -0.500000 0
0.256098 -0.500000 0
0.353659 -0.500000 0
0.451220 -0.500000 0
0.548780 -0.500000 0
0.646341 -0.500000 0
0.743902 -0.500000 0
0.841463 -0.500000 0
0.939024 -0.500000 0
1.036585 -0.500000 0
1.134146 -0.500000 0
1.231707 -0.500000 0
1.329268 -0.500000 0
1.426829 -0.500000 0
1.524390 -0.500000 0
1.621951 -0.500000 0
1.719512 -0.500000 0
1.817073 -0.500000 0
1.914634 -0.500000 0
2.012195 -0.500000 0
2.109756 -0.500000 0
2.207317 -0.500000 0
2.304878 -0.500000 0
2.402439 -0.500000 0
2.500000 -0.500000 0
2.597561 -0.500000 0
2.695122 -0.500000 0
2.792683 -0.500000 0
2.890244 -0.500000 0
2.987805 -0.500000 0
3.085366 -0.500000 0
3.182927 -0.500000 0
3.280488 -0.500000 0
3.378049 -0.500000 0
3.475610 -0.500000 0
3.573171 -0.500000 0
3.670732 -0.500000 0
3.768293 -0.500000 0
3.865854 -0.500000 0
3.963415 -0.500000 0
4.060976 -0.500000 0
4.158537 -0.500000 0
4.256098 -0.500000 0
4.353659 -0.500000 0
4.451220 -0.500000 0
4.548780 -0.500000 0
4.646341 -0.500000 0
4.743902 -0.500000 0
4.841463 -0.500000 0
4.939024 -0.500000 0
5.036585 -0.500000 0
5.134146 -0.500000 0
5.231707 -0.500000 0
5.329268 -0.500000 0
5.426829 -0.500000 0
5.524390 -0.500000 0
5.621951 -0.500000 0
5.719512 -0.500000 0
5.817073 -0.500000 0
5.914634 -0.500000 0
6.012195 -0.500000 0
6.109756 -0.500000 0
6.207317 -0.500000 0
6.304878 -0.500000 0
6.402439 -0.500000 0
-1.500000 -0.451667 0
-1.402439 -0.451667 0
-1.304878 -0.451667 0
-1.207317 -0.451667 0
-1.109756 -0.451667 0
-1.012195 -0.451667 0
-0.914634 -0.451667 0
-0.817073 -0.451667 0
-0.719512 -0.451667 0
-0.621951 -0.451667 0
-0.524390 -0.451667 0
-0.426829 -0.451667 0
-0.329268 -0.451667 0
-0.231707 -0.451667 0
-0.134146 -0.451667 0
-0.036585 -0.451667 0
0.060976 -0.451667 0
0.158537 -0.451667 0
0.256098 -0.451667 0
0.353659 -0.451667 0
0.451220 -0.451667 0
0.548780 -0.451667 0
0.646341 -0.451667 0
0.743902 -0.451667 0
0.841463 -0.451667 0
0.939024 -0.451667 0
1.036585 -0.451667 0
1.134146 -0.451667 0
1.231707 -0.451667 0
1.329268 -0.451667 0
1.426829 -0.451667 0
1.524390 -0.451667 0
1.621951 -0.451667 0
1.719512 -0.451667 0
1.817073 -0.451667 0
1.914634 -0.451667 0
2.012195 -0.451667 0
2.109756 -0.451667 0
2.207317 -0.451667 0
2.304878 -0.451667 0
2.402439 -0.451667 0
2.500000 -0.451667 0
2.597561 -0.451667 0
2.695122 -0.451667 0
2.792683 -0.451667 0
2.890244 -0.451667 0
2.987805 -0.451667 0
3.085366 -0.451667 0
3.182927 -0.451667 0
3.280488 -0.451667 0
3.378049 -0.451667 0
3.475610 -0.451667 0
3.573171 -0.451667 0
3.670732 -0.451667 0
3.768293 -0.451667 0
3.865854 -0.451667 0
3.963415 -0.451667 0
4.060976 -0.451667 0
4.158537 -0.451667 0
4.256098 -0.451667 0
4.353659 -0.451667 0
4.451220 -0.451667 0
4.548780 -0.451667 0
4.646341 -0.451667 0
4.743902 -0.451667 0
4.841463 -0.451667 0
4.939024 -0.451667 0
5.036585 -0.451667 0
5.134146 -0.451667 0
5.231707 -0.451667 0
5.329268 -0.451667 0
5.426829 -0.451667 0
5.524390 -0.451667 0
5.621951 -0.451667 0
5.719512 -0.451667 0
5.817073 -0.451667 0
5.914634 -0.451667 0
6.012195 -0.451667 0
6.109756 -0.451667 0
6.207317 -0.451667 0
6.304878 -0.451667 0
6.402439 -0.451667 0
-1.500000 -0.403333 0
-1.402439 -0.403333 0
-1.304878 -0.403333 0
-1.207317 -0.403333 0
-1.109756 -0.403333 0
-1.012195 -0.403333 0
-0.914634 -0.403333 0
-0.817073 -0.403333 0
-0.719512 -0.403333 0
-0.621951 -0.403333 0
-0.524390 -0.403333 0
-0.426829 -0.403333 0
-0.329268 -0.403333 0
-0.231707 -0.403333 0
-0.134146 -0.403333 0
-0.036585 -0.403333 0
0.060976 -0.403333 0
0.158537 -0.403333 0
0.256098 -0.403333 0
0.353659 -0.403333 0
0.451220 -0.403333 0
0.548780 -0.403333 0
0.646341 -0.403333 0
0.743902 -0.403333 0
0.841463 -0.403333 0
0.939024 -0.403333 0
1.036585 -0.403333 0
1.134146 -0.403333 0
1.231707 -0.403333 0
1.329268 -0.403333 0
1.426829 -0.403333 0
1.524390 -0.403333 0
1.621951 -0.403333 0
1.719512 -0.403333 0
1.817073 -0.403333 0
1.914634 -0.403333 0
2.012195 -0.403333 0
2.109756 -0.403333 0
2.207317 -0.403333 0
2.304878 -0.403333 0
2.402439 -0.403333 0
2.500000 -0.403333 0
2.597561 -0.403333 0
2.695122 -0.403333 0
2.792683 -0.403333 0
2.890244 -0.403333 0
2.987805 -0.403333 0
3.085366 -0.403333 0
3.182927 -0.403333 0
3.280488 -0.403333 0
3.378049 -0.403333 0
3.475610 -0.403333 0
3.573171 -0.403333 0
3.670732 -0.403333 0
3.768293 -0.403333 0
3.865854 -0.403333 0
3.963415 -0.403333 0
4.060976 -0.403333 0
4.158537 -0.403333 0
4.256098 -0.403333 0
4.353659 -0.403333 0
4.451220 -0.403333 0
4.548780 -0.403333 0
4.646341 -0.403333 0
4.743902 -0.403333 0
4.841463 -0.403333 0
4.939024 -0.403333 0
5.036585 -0.403333 0
5.134146 -0.403333 0
5.231707 -0.403333 0
5.329268 -0.403333 0
5.426829 -0.403333 0
5.524390 -0.403333 0
5.621951 -0.403333 0
5.719512 -0.403333 0
5.817073 -0.403333 0
5.914634 -0.403333 0
6.012195 -0.403333 0
6.109756 -0.403333 0
6.207317 -0.403333 0
6.304878 -0.403333 0
6.402439 -0.403333 0
-1.500000 -0.355000 0
-1.402439 -0.355000 0
-1.304878 -0.355000 0
-1.207317 -0.355000 0
-1.109756 -0.355000 0
-1.012195 -0.355000 0
-0.914634 -0.355000 0
-0.817073 -0.355000 0
-0.719512 -0.355000 0
-0.621951 -0.355000 0
-0.524390 -0.355000 0
-0.426829 -0.355000 0
-0.329268 -0.355000 0
-0.231707 -0.355000 0
-0.134146 -0.355000 0
-0.036585 -0.355000 0
0.060976 -0.355000 0
0.158537 -0.355000 0
0.256098 -0.355000 0
0.353659 -0.355000 0
0.451220 -0.355000 0
0.548780 -0.355000 0
0.646341 -0.355000 0
0.743902 -0.355000 0
0.841463 -0.355000 0
0.939024 -0.355000 0
1.036585 -0.355000 0
1.134146 -0.355000 0
1.231707 -0.355000 0
1.329268 -0.355000 0
1.426829 -0.355000 0
1.524390 -0.355000 0
1.621951 -0.355000 0
1.719512 -0.355000 0
1.817073 -0.355000 0
1.914634 -0.355000 0
2.012195 -0.355000 0
2.109756 -0.355000 0
2.207317 -0.355000 0
2.304878 -0.355000 0
2.402439 -0.355000 0
2.500000 -0.355000 0
2.597561 -0.355000 0
2.695122 -0.355000 0
2.792683 -0.355000 0
2.890244 -0.355000 0
2.987805 -0.355000 0
3.085366 -0.355000 0
3.182927 -0.355000 0
3.280488 -0.355000 0
3.378049 -0.355000 0
3.475610 -0.355000 0
3.573171 -0.355000 0
3.670732 -0.355000 0
3.768293 -0.355000 0
3.865854 -0.355000 0
3.963415 -0.355000 0
4.060976 -0.355000 0
4.158537 -0.355000 0
4.256098 -0.355000 0
4.353659 -0.355000 0
4.451220 -0.355000 0
4.548780 -0.355000 0
4.646341 -0.355000 0
4.743902 -0.355000 0
4.841463 -0.355000 0
4.939024 -0.355000 0
5.036585 -0.355000 0
5.134146 -0.355000 0
5.231707 -0.355000 0
5.329268 -0.355000 0
5.426829 -0.355000 0
5.524390 -0.355000 0
5.621951 -0.355000 0
5.719512 -0.355000 0
5.817073 -0.355000 0
5.914634 -0.355000 0
6.012195 -0.355000 0
6.109756 -0.355000 0
6.207317 -0.355000 0
6.304878 -0.355000 0
6.402439 -0.355000 0
-1.500000 -0.306667 0
-1.402439 -0.306667 0
-1.304878 -0.306667 0
-1.207317 -0.306667 0
-1.109756 -0.306667 0
-1.012195 -0.306667 0
-0.914634 -0.306667 0
-0.817073 -0.306667 0
-0.719512 -0.306667 0
-0.621951 -0.306667 0
-0.524390 -0.306667 0
-0.426829 -0.306667 0
-0.329268 -0.306667 0
-0.231707 -0.306667 0
-0.134146 -0.306667 0
-0.036585 -0.306667 0
0.060976 -0.306667 0
0.158537 -0.306667 0
0.256098 -0.306667 0
0.353659 -0.306667 0
0.451220 -0.306667 0
0.548780 -0.306667 0
0.646341 -0.306667 0
0.743902 -0.306667 0
0.841463 -0.306667 0
0.939024 -0.306667 0
1.036585 -0.306667 0
1.134146 -0.306667 0
1.231707 -0.306667 0
1.329268 -0.306667 0
1.426829 -0.306667 0
1.524390 -0.306667 0
1.621951 -0.306667 0
1.719512 -0.306667 0
1.817073 -0.306667 0
1.914634 -0.306667 0
2.012195 -0.306667 0
2.109756 -0.306667 0
2.207317 -0.306667 0
2.304878 -0.306667 0
2.402439 -0.306667 0
2.500000 -0.306667 0
2.597561 -0.306667 0
2.695122 -0.306667 0
2.792683 -0.306667 0
2.890244 -0.306667 0
2.987805 -0.306667 0
3.085366 -0.306667 0
3.182927 -0.306667 0
3.280488 -0.306667 0
3.378049 -0.306667 0
3.475610 -0.306667 0
3.573171 -0.306667 0
3.670732 -0.306667 0
3.768293 -0.306667 0
3.865854 -0.306667 0
3.963415 -0.306667 0
4.060976 -0.306667 0
4.158537 -0.306667 0
4.256098 -0.306667 0
4.353659 -0.306667 0
4.451220 -0.306667 0
4.548780 -0.306667 0
4.646341 -0.306667 0
4.743902 -0.306667 0
4.841463 -0.306667 0
4.939024 -0.306667 0
5.036585 -0.306667 0
5.134146 -0.306667 0
5.231707 -0.306667 0
5.329268 -0.306667 0
5.426829 -0.306667 0
5.524390 -0.306667 0
5.621951 -0.306667 0
5.719512 -0.306667 0
5.817073 -0.306667 0
5.914634 -0.306667 0
6.012195 -0.306667 0
6.109756 -0.306667 0
6.207317 -0.306667 0
6.304878 -0.306667 0
6.402439 -0.306667 0
-1.500000 -0.258333 0
-1.402439 -0.258333 0
-1.304878 -0.258333 0
-1.207317 -0.258333 0
-1.109756 -0.258333 0
-1.012195 -0.258333 0
-0.914634 -0.258333 0
-0.817073 -0.258333 0
-0.719512 -0.258333 0
-0.621951 -0.258333 0
-0.524390 -0.258333 0
-0.426829 -0.258333 0
-0.329268 -0.258333 0
-0.231707 -0.258333 0
-0.134146 -0.258333 0
-0.036585 -0.258333 0
0.060976 -0.258333 0
0.158537 -0.258333 0
0.256098 -0.258333 0
0.353659 -0.258333 0
0.451220 -0.258333 0
0.548780 -0.258333 0
0.646341 -0.258333 0
0.743902 -0.258333 0
0.841463 -0.258333 0
0.939024 -0.258333 0
1.036585 -0.258333 0
1.134146 -0.258333 0
1.231707 -0.258333 0
1.329268 -0.258333 0
1.426829 -0.258333 0
1.524390 -0.258333 0
1.621951 -0.258333 0
1.719512 -0.258333 0
1.817073 -0.258333 0
1.914634 -0.258333 0
2.012195 -0.258333 0
2.109756 -0.258333 0
2.207317 -0.258333 0
2.304878 -0.258333 0
2.402439 -0.258333 0
2.500000 -0.258333 0
2.597561 -0.258333 0
2.695122 -0.258333 0
2.792683 -0.258333 0
2.890244 -0.258333 0
2.987805 -0.258333 0
3.085366 -0.258333 0
3.182927 -0.258333 0
3.280488 -0.258333 0
3.378049 -0.258333 0
3.475610 -0.258333 0
3.573171 -0.258333 0
[...]
POINT_DATA 4920 

VECTORS velocity float
0.000000 0.000000 0
0.000000 0.000000 0
0.000000 0.000000 0
0.000000 0.000000 0
0.000000 0.000000 0
0.000000 0.000000 0
0.000000 0.000000 0
0.000000 0.000000 0
0.000000 0.000000 0
0.000000 0.000000 0
0.000000 0.000000 0
0.000000 0.000000 0
0.000000 0.000000 0
0.000000 0.000000 0
0.000000 0.000000 0
0.000000 0.000000 0
0.000000 0.000000 0
0.000000 0.000000 0
0.000000 0.000000 0
0.000000 0.000000 0
0.000000 0.000000 0
0.000000 0.000000 0
0.000000 0.000000 0
0.000000 0.000000 0
0.000000 0.000000 0
0.000000 0.000000 0
0.000000 0.000000 0
0.000000 0.000000 0
0.000000 0.000000 0
0.000000 0.000000 0
0.000000 0.000000 0
0.000000 0.000000 0
0.000000 0.000000 0
0.000000 0.000000 0
0.000000 0.000000 0
0.000000 0.000000 0
0.000000 0.000000 0
0.000000 0.000000 0
0.000000 0.000000 0
0.000000 0.000000 0
0.000000 0.000000 0
0.000000 0.000000 0
0.000000 0.000000 0
0.000000 0.000000 0
0.000000 0.000000 0
0.000000 0.000000 0
0.000000 0.000000 0
0.000000 0.000000 0
0.000000 0.000000 0
0.000000 0.000000 0
0.000000 0.000000 0
0.000000 0.000000 0
0.000000 0.000000 0
0.000000 0.000000 0
0.000000 0.000000 0
0.000000 0.000000 0
0.000000 0.000000 0
0.001915 0.000000 0
0.000000 0.000000 0
0.000000 0.000000 0
0.000000 0.000000 0
0.000000 0.000000 0
0.000000 0.000000 0
0.000000 0.000000 0
0.000000 0.000000 0
0.000000 0.000000 0
0.000000 0.000000 0
0.000000 0.000000 0
0.000000 0.000000 0
0.000000 0.000000 0
0.000000 0.000000 0
0.000000 0.000000 0
0.000000 0.000000 0
0.000000 0.000000 0
0.000000 0.000000 0
0.000000 0.000000 0
0.000000 0.000000 0
0.000000 0.000000 0
0.000000 0.000000 0
0.000000 0.000000 0
0.000000 0.000000 0
0.000000 0.000000 0
0.000000 0.000000 0
0.000000 0.000000 0
0.000000 0.000000 0
0.000000 0.000000 0
0.000000 0.000000 0
0.000000 0.000000 0
0.000000 0.000000 0
0.000000 0.000000 0
0.000000 0.000000 0
0.000000 0.000000 0
0.000000 0.000000 0
0.000000 0.000000 0
0.000000 0.000000 0
0.000000 0.000000 0
1.046400 -0.422532 0
2.518311 -0.738210 0
3.779785 -0.505137 0
4.622789 -0.265393 0
5.056235 -0.070114 0
5.167190 0.061935 0
5.063299 0.139737 0
4.829819 0.177741 0
4.530885 0.186508 0
4.213380 0.175010 0
3.909592 0.151124 0
3.639302 0.121588 0
3.411948 0.091702 0
3.229116 0.065050 0
3.087214 0.043476 0
2.979921 0.027389 0
2.900096 0.016253 0
2.840995 0.009091 0
2.796893 0.004848 0
2.763264 0.002598 0
2.736717 0.001619 0
2.714816 0.001398 0
2.695865 0.001593 0
2.678707 0.001994 0
2.662548 0.002492 0
2.646810 0.003042 0
2.631020 0.003653 0
2.614706 0.004369 0
2.597311 0.005267 0
2.578106 0.006459 0
2.556094 0.008094 0
2.529883 0.010375 0
2.497536 0.013567 0
2.456366 0.018021 0
2.402666 0.024184 0
2.331388 0.032602 0
2.235766 0.043878 0
2.106972 0.058493 0
1.934160 0.076508 0
1.704905 0.096431 0
1.409371 0.115115 0
1.038679 0.130700 0
0.616624 0.068847 0
0.000000 0.000000 0
-0.001572 0.000000 0
0.000000 0.000000 0
0.000000 0.000000 0
0.000000 0.000000 0
0.000000 0.000000 0
0.000000 0.000000 0
0.000000 0.000000 0
0.000000 0.000000 0
0.000000 0.000000 0
0.000000 0.000000 0
0.000000 0.000000 0
0.000000 0.000000 0
0.000000 0.000000 0
0.000000 0.000000 0
0.000000 0.000000 0
0.000000 0.000000 0
0.000000 0.000000 0
0.000000 0.000000 0
0.000000 0.000000 0
0.000000 0.000000 0
0.000000 0.000000 0
0.000000 0.000000 0
0.000000 0.000000 0
0.000000 0.000000 0
0.000000 0.000000 0
0.000000 0.000000 0
0.000000 0.000000 0
0.000000 0.000000 0
0.000000 0.000000 0
0.000000 0.000000 0
0.000000 0.000000 0
0.000000 0.000000 0
0.000000 0.000000 0
0.000000 0.000000 0
0.000000 0.000000 0
0.000000 0.000000 0
0.000000 0.000000 0
1.159612 -0.516998 0
2.653759 -1.246001 0
3.828592 -1.353958 0
5.002553 -1.042593 0
5.863930 -0.632375 0
6.390976 -0.269705 0
6.647114 -0.003499 0
6.706853 0.167139 0
6.638330 0.263766 0
6.491057 0.305394 0
6.301211 0.307799 0
6.094848 0.284407 0
5.890081 0.246541 0
5.698690 0.203213 0
5.527411 0.160878 0
5.379089 0.123455 0
5.253735 0.092702 0
5.149515 0.068827 0
5.063588 0.051128 0
4.992771 0.038509 0
4.933985 0.029812 0
4.884510 0.024002 0
4.842087 0.020239 0
4.804915 0.017889 0
4.771593 0.016506 0
4.741034 0.015802 0
4.712367 0.015619 0
4.684842 0.015905 0
4.657742 0.016700 0
4.630291 0.018132 0
4.601551 0.020419 0
4.570311 0.023891 0
4.534942 0.029010 0
4.493205 0.036422 0
4.441999 0.047000 0
4.377009 0.061916 0
4.292231 0.082685 0
4.179343 0.111179 0
4.026899 0.149421 0
3.819412 0.199191 0
3.536708 0.259989 0
3.154530 0.330060 0
2.647172 0.392231 0
2.014768 0.512271 0
1.050666 0.303687 0
0.000000 0.000000 0
-0.004730 0.000000 0
0.000000 0.000000 0
0.000000 0.000000 0
0.000000 0.000000 0
0.000000 0.000000 0
0.000000 0.000000 0
0.000000 0.000000 0
0.000000 0.000000 0
0.000000 0.000000 0
0.000000 0.000000 0
0.000000 0.000000 0
0.000000 0.000000 0
0.000000 0.000000 0
0.000000 0.000000 0
0.000000 0.000000 0
0.000000 0.000000 0
0.000000 0.000000 0
0.000000 0.000000 0
0.000000 0.000000 0
0.000000 0.000000 0
0.000000 0.000000 0
0.000000 0.000000 0
0.000000 0.000000 0
0.000000 0.000000 0
0.000000 0.000000 0
0.000000 0.000000 0
0.000000 0.000000 0
0.000000 0.000000 0
0.000000 0.000000 0
0.000000 0.000000 0
0.000000 0.000000 0
0.000000 0.000000 0
0.000000 0.000000 0
0.000000 0.000000 0
0.000000 0.000000 0
0.936095 -0.582536 0
2.634577 -1.321356 0
3.462296 -1.743383 0
4.644944 -1.901842 0
5.708324 -1.513478 0
6.431413 -0.953241 0
6.856251 -0.458117 0
7.079435 -0.094556 0
7.167544 0.144089 0
7.169407 0.284649 0
7.118221 0.353522 0
7.036208 0.371299 0
6.938230 0.354804 0
6.834380 0.317851 0
6.731618 0.271375 0
6.634633 0.223386 0
6.546276 0.179060 0
6.467862 0.141123 0
6.399496 0.110455 0
6.340446 0.086745 0
6.289510 0.069056 0
6.245323 0.056232 0
6.206555 0.047147 0
6.172032 0.040831 0
6.140773 0.036516 0
6.111982 0.033642 0
6.085017 0.031834 0
6.059339 0.030881 0
6.034456 0.030715 0
6.009873 0.031394 0
5.985021 0.033105 0
5.959192 0.036174 0
5.931443 0.041094 0
5.900488 0.048575 0
5.864529 0.059613 0
5.821038 0.075587 0
5.766429 0.098382 0
5.695588 0.130529 0
5.601163 0.175328 0
5.472539 0.236808 0
5.294196 0.319357 0
5.044023 0.425825 0
4.690169 0.555806 0
4.200098 0.695357 0
3.530241 0.856050 0
2.831538 0.996812 0
1.343095 0.522912 0
0.000000 0.000000 0
-0.005822 0.000000 0
0.000000 0.000000 0
0.000000 0.000000 0
0.000000 0.000000 0
0.000000 0.000000 0
0.000000 0.000000 0
0.000000 0.000000 0
0.000000 0.000000 0
0.000000 0.000000 0
0.000000 0.000000 0
0.000000 0.000000 0
0.000000 0.000000 0
0.000000 0.000000 0
0.000000 0.000000 0
0.000000 0.000000 0
0.000000 0.000000 0
0.000000 0.000000 0
0.000000 0.000000 0
0.000000 0.000000 0
0.000000 0.000000 0
0.000000 0.000000 0
0.000000 0.000000 0
0.000000 0.000000 0
0.000000 0.000000 0
0.000000 0.000000 0
0.000000 0.000000 0
0.000000 0.000000 0
0.000000 0.000000 0
0.000000 0.000000 0
0.000000 0.000000 0
0.000000 0.000000 0
0.000000 0.000000 0
0.000000 0.000000 0
0.738380 -0.467380 0
2.144360 -1.316881 0
3.090274 -1.776565 0
3.864741 -2.241970 0
5.207752 -2.466677 0
6.163312 -1.927640 0
6.688747 -1.201077 0
6.946515 -0.590746 0
7.065157 -0.157719 0
7.111667 0.122566 0
7.115668 0.288202 0
7.097523 0.371383 0
7.068665 0.396969 0
7.034823 0.384397 0
6.998764 0.348900 0
6.962101 0.302171 0
6.926110 0.252700 0
6.891902 0.206076 0
6.860321 0.165419 0
6.831841 0.131951 0
6.806558 0.105617 0
6.784270 0.085635 0
6.764590 0.070909 0
6.747058 0.060311 0
6.731220 0.052828 0
6.716667 0.047639 0
6.703055 0.044128 0
6.690096 0.041883 0
6.677543 0.040668 0
6.665166 0.040411 0
6.652724 0.041191 0
6.639929 0.043240 0
6.626409 0.046963 0
6.611651 0.052974 0
6.594934 0.062161 0
6.575217 0.075782 0
6.550994 0.095600 0
6.520046 0.124066 0
6.479072 0.164561 0
6.423048 0.221681 0
6.344163 0.301497 0
6.229805 0.411485 0
6.059561 0.559235 0
5.799697 0.748154 0
5.406836 0.966878 0
4.837850 1.190278 0
4.167808 1.389459 0
3.377760 1.410103 0
1.500902 0.670479 0
0.000000 0.000000 0
-0.005275 0.000000 0
0.000000 0.000000 0
0.000000 0.000000 0
0.000000 0.000000 0
0.000000 0.000000 0
0.000000 0.000000 0
0.000000 0.000000 0
0.000000 0.000000 0
0.000000 0.000000 0
0.000000 0.000000 0
0.000000 0.000000 0
0.000000 0.000000 0
0.000000 0.000000 0
0.000000 0.000000 0
0.000000 0.000000 0
0.000000 0.000000 0
0.000000 0.000000 0
0.000000 0.000000 0
0.000000 0.000000 0
0.000000 0.000000 0
0.000000 0.000000 0
0.000000 0.000000 0
0.000000 0.000000 0
0.000000 0.000000 0
0.000000 0.000000 0
0.000000 0.000000 0
0.000000 0.000000 0
0.000000 0.000000 0
0.000000 0.000000 0
0.000000 0.000000 0
0.000000 0.000000 0
0.536167 -0.369278 0
1.698533 -1.069446 0
2.545198 -1.751326 0
3.300659 -2.173661 0
4.126513 -2.792417 0
5.619043 -3.040592 0
6.352036 -2.247187 0
6.584702 -1.341253 0
6.618132 -0.644597 0
6.605927 -0.176375 0
6.591144 0.119064 0
6.581066 0.291656 0
6.579811 0.376808 0
6.586765 0.402362 0
6.599017 0.389434 0
6.613139 0.353879 0
6.626461 0.307369 0
6.637508 0.258164 0
6.645873 0.211653 0
6.651835 0.170878 0
6.655971 0.137090 0
6.658889 0.110312 0
6.661082 0.089847 0
6.662896 0.074667 0
6.664543 0.063679 0
6.666136 0.055887 0
6.667721 0.050470 0
6.669309 0.046805 0
6.670892 0.044473 0
6.672449 0.043232 0
6.673960 0.043011 0
6.675399 0.043897 0
6.676735 0.046142 0
6.677929 0.050183 0
6.678917 0.056687 0
6.679597 0.066625 0
6.679793 0.081381 0
6.679198 0.102920 0
6.677262 0.134013 0
6.672981 0.178583 0
6.664459 0.242164 0
6.648019 0.332544 0
6.616178 0.460353 0
6.553561 0.638908 0
6.428378 0.879177 0
6.184256 1.171872 0
5.772524 1.469885 0
5.221649 1.720165 0
4.581788 1.852351 0
3.670892 1.686752 0
1.556330 0.748716 0
0.000000 0.000000 0
-0.003979 0.000000 0
0.000000 0.000000 0
0.000000 0.000000 0
0.000000 0.000000 0
0.000000 0.000000 0
0.000000 0.000000 0
0.000000 0.000000 0
0.000000 0.000000 0
0.000000 0.000000 0
0.000000 0.000000 0
0.000000 0.000000 0
0.000000 0.000000 0
0.000000 0.000000 0
0.000000 0.000000 0
0.000000 0.000000 0
0.000000 0.000000 0
0.000000 0.000000 0
0.000000 0.000000 0
0.000000 0.000000 0
0.000000 0.000000 0
0.000000 0.000000 0
0.000000 0.000000 0
0.000000 0.000000 0
0.000000 0.000000 0
0.000000 0.000000 0
0.000000 0.000000 0
0.000000 0.000000 0
0.000000 0.000000 0
0.000000 0.000000 0
0.376462 -0.266957 0
1.297295 -0.846284 0
2.061404 -1.466159 0
2.754328 -2.110601 0
3.394920 -2.559975 0
4.280939 -3.390536 0
5.831103 -3.569238 0
6.151791 -2.406043 0
5.981661 -1.332906 0
5.742867 -0.601262 0
5.590383 -0.144349 0
5.514254 0.134883 0
5.501256 0.293817 0
5.531544 0.368559 0
5.587300 0.387454 0
5.655024 0.371330 0
5.725001 0.335304 0
5.791057 0.290098 0
5.849945 0.243083 0
5.900566 0.198979 0
5.943206 0.160416 0
5.978879 0.128456 0
6.008861 0.103085 0
6.034404 0.083649 0
6.056591 0.069195 0
6.076296 0.058706 0
6.094187 0.051254 0
6.110762 0.046066 0
6.126386 0.042557 0
6.141333 0.040327 0
6.155822 0.039148 0
6.170047 0.038950 0
6.184209 0.039816 0
6.198542 0.041987 0
6.213345 0.045882 0
6.229016 0.052147 0
6.246090 0.061727 0
6.265286 0.075980 0
6.287557 0.096854 0
6.314135 0.127146 0
6.346538 0.170904 0
6.386448 0.234048 0
6.435250 0.325416 0
6.492466 0.458281 0
6.551370 0.652274 0
6.587339 0.931114 0
6.526614 1.291799 0
6.297257 1.667169 0
5.922282 1.979370 0
5.433581 2.178374 0
4.793681 2.179713 0
3.768067 1.832901 0
1.542241 0.774941 0
0.000000 0.000000 0
-0.002620 0.000000 0
0.000000 0.000000 0
0.000000 0.000000 0
0.000000 0.000000 0
0.000000 0.000000 0
0.000000 0.000000 0
0.000000 0.000000 0
0.000000 0.000000 0
0.000000 0.000000 0
0.000000 0.000000 0
0.000000 0.000000 0
0.000000 0.000000 0
0.000000 0.000000 0
0.000000 0.000000 0
0.000000 0.000000 0
0.000000 0.000000 0
0.000000 0.000000 0
0.000000 0.000000 0
0.000000 0.000000 0
0.000000 0.000000 0
0.000000 0.000000 0
0.000000 0.000000 0
0.000000 0.000000 0
0.000000 0.000000 0
0.000000 0.000000 0
0.000000 0.000000 0
0.000000 0.000000 0
0.267968 -0.186454 0
0.995882 -0.643981 0
1.702407 -1.205357 0
2.319869 -1.791285 0
2.880658 -2.411971 0
3.395827 -2.929970 0
4.284529 -3.999343 0
5.744211 -3.967443 0
5.401742 -2.321776 0
4.738522 -1.138665 0
4.209824 -0.450751 0
3.920759 -0.063116 0
3.817015 0.163220 0
3.848432 0.283090 0
3.954355 0.334181 0
4.094286 0.341188 0
4.244166 0.321215 0
4.389398 0.286486 0
4.522021 0.245470 0
4.638507 0.203911 0
4.738203 0.165450 0
4.822193 0.132081 0
4.892455 0.104563 0
4.951278 0.082804 0
5.000896 0.066201 0
5.043296 0.053913 0
5.080146 0.045054 0
5.112786 0.038812 0
5.142269 0.034518 0
5.169412 0.031660 0
5.194854 0.029889 0
5.219120 0.029006 0
5.242679 0.028948 0
5.265999 0.029781 0
5.289610 0.031708 0
5.314166 0.035086 0
5.340529 0.040465 0
5.369860 0.048656 0
5.403754 0.060838 0
5.444403 0.078719 0
5.494807 0.104793 0
5.559045 0.142758 0
5.642565 0.198215 0
5.752374 0.280021 0
5.896759 0.402825 0
6.081493 0.591906 0
6.301011 0.891441 0
6.455847 1.315584 0
6.420596 1.769282 0
6.248654 2.148044 0
5.948991 2.411479 0
5.510192 2.511875 0
4.840624 2.368939 0
3.727824 1.878605 0
1.485800 0.766487 0
0.000000 0.000000 0
-0.001602 0.000000 0
0.000000 0.000000 0
0.000000 0.000000 0
0.000000 0.000000 0
0.000000 0.000000 0
0.000000 0.000000 0
0.000000 0.000000 0
0.000000 0.000000 0
0.000000 0.000000 0
0.000000 0.000000 0
0.000000 0.000000 0
0.000000 0.000000 0
0.000000 0.000000 0
0.000000 0.000000 0
0.000000 0.000000 0
0.000000 0.000000 0
0.000000 0.000000 0
0.000000 0.000000 0
0.000000 0.000000 0
0.000000 0.000000 0
0.000000 0.000000 0
0.000000 0.000000 0
0.000000 0.000000 0
0.000000 0.000000 0
0.000000 0.000000 0
0.209247 -0.131864 0
0.805432 -0.492433 0
1.468502 -0.977551 0
2.052811 -1.502209 0
2.535364 -2.049884 0
2.939352 -2.643649 0
3.298323 -3.255476 0
4.068874 -4.553965 0
5.219413 -4.122724 0
3.916977 -1.907808 0
2.775459 -0.742410 0
2.002339 -0.196128 0
1.719120 0.050255 0
1.749806 0.170715 0
1.910352 0.225777 0
2.129668 0.246759 0
2.368988 0.243877 0
2.605295 0.225127 0
2.823947 0.197650 0
3.017628 0.166686 0
3.183818 0.135983 0
3.323072 0.107978 0
3.437795 0.083997 0
3.531333 0.064505 0
3.607321 0.049362 0
3.669261 0.038062 0
3.720278 0.029933 0
3.763005 0.024280 0
3.799574 0.020477 0
3.831654 0.018013 0
3.860533 0.016506 0
3.887200 0.015701 0
3.912447 0.015454 0
3.936956 0.015725 0
3.961391 0.016566 0
3.986492 0.018124 0
4.013172 0.020656 0
4.042638 0.024556 0
4.076541 0.030404 0
4.117180 0.039050 0
4.167775 0.051746 0
4.232858 0.070350 0
4.318812 0.097702 0
4.434678 0.138269 0
4.593156 0.199484 0
4.812894 0.295230 0
5.115776 0.452001 0
5.542497 0.745653 0
5.974496 1.232555 0
6.149693 1.769816 0
6.206557 2.213011 0
6.129650 2.544220 0
5.899826 2.728817 0
5.476871 2.715916 0
4.765180 2.443996 0
3.601433 1.855055 0
1.409920 0.737299 0
0.000000 0.000000 0
-0.001114 0.000000 0
0.000000 0.000000 0
0.000000 0.000000 0
0.000000 0.000000 0
0.000000 0.000000 0
0.000000 0.000000 0
0.000000 0.000000 0
0.000000 0.000000 0
0.000000 0.000000 0
0.000000 0.000000 0
0.000000 0.000000 0
0.000000 0.000000 0
0.000000 0.000000 0
0.000000 0.000000 0
0.000000 0.000000 0
0.000000 0.000000 0
0.000000 0.000000 0
0.000000 0.000000 0
0.000000 0.000000 0
0.000000 0.000000 0
0.000000 0.000000 0
0.000000 0.000000 0
0.000000 0.000000 0
0.195341 -0.102302 0
0.724345 -0.396769 0
1.360463 -0.809418 0
1.928525 -1.261953 0
2.381663 -1.733898 0
2.709906 -2.230492 0
2.935121 -2.789954 0
3.101501 -3.489554 0
3.571667 -4.951083 0
4.021324 -3.892191 0
1.556858 -1.111001 0
0.421318 -0.190122 0
0.058302 0.072577 0
0.025433 0.061993 0
0.159742 0.068480 0
0.370021 0.094900 0
0.615473 0.106965 0
0.868105 0.105554 0
1.107740 0.095821 0
1.322525 0.082209 0
1.506696 0.067184 0
1.658980 0.052589 0
1.781179 0.039625 0
1.876934 0.028905 0
1.950727 0.020578 0
2.007137 0.014472 0
2.050364 0.010240 0
2.083966 0.007471 0
2.110784 0.005769 0
2.132975 0.004802 0
2.152116 0.004317 0
2.169334 0.004141 0
2.185434 0.004170 0
2.201026 0.004357 0
2.216629 0.004700 0
2.232768 0.005240 0
2.250067 0.006055 0
2.269351 0.007270 0
2.291762 0.009070 0
2.318917 0.011727 0
2.353132 0.015639 0
2.397740 0.021410 0
2.457580 0.029967 0
2.539743 0.042773 0
2.654792 0.062300 0
2.818840 0.092646 0
3.057451 0.143911 0
3.414763 0.230449 0
3.969817 0.466017 0
4.892081 1.014769 0
5.376072 1.654315 0
5.755541 2.157974 0
5.964872 2.563439 0
5.981341 2.835273 0
5.790996 2.931062 0
5.357588 2.807728 0
4.610706 2.433217 0
3.435598 1.789078 0
1.336187 0.698887 0
-0.000000 0.000000 0
-0.001275 0.000000 0
0.000000 0.000000 0
0.000000 0.000000 0
0.000000 0.000000 0
0.000000 0.000000 0
0.000000 0.000000 0
0.000000 0.000000 0
0.000000 0.000000 0
0.000000 0.000000 0
0.000000 0.000000 0
0.000000 0.000000 0
0.000000 0.000000 0
0.000000 0.000000 0
0.000000 0.000000 0
0.000000 0.000000 0
0.000000 0.000000 0
0.000000 0.000000 0
0.000000 0.000000 0
0.000000 0.000000 0
0.000000 0.000000 0
0.000000 0.000000 0
0.225165 -0.095086 0
0.751084 -0.355800 0
1.380121 -0.707722 0
1.940950 -1.089004 0
2.380144 -1.483470 0
2.679010 -1.889318 0
2.838754 -2.324076 0
2.878034 -2.837651 0
2.824798 -3.570832 0
2.796869 -5.009661 0
1.634891 -3.000249 0
0.000000 0.000000 0
-0.000000 0.000000 0
-0.000000 0.000000 0
0.000000 0.000000 0
0.000000 0.000000 0
0.000000 0.000000 0
0.000000 0.000000 0
0.000000 0.000000 0
0.000000 0.000000 0
0.000000 0.000000 0
0.000000 0.000000 0
0.000000 0.000000 0
0.000000 0.000000 0
0.000000 0.000000 0
0.000000 0.000000 0
0.000000 0.000000 0
0.000000 0.000000 0
0.000000 0.000000 0
0.000000 0.000000 0
0.000000 0.000000 0
0.000000 0.000000 0
0.000000 0.000000 0
0.000000 0.000000 0
0.000000 0.000000 0
0.000000 0.000000 0
0.000000 0.000000 0
0.000000 0.000000 0
0.000000 0.000000 0
0.000000 0.000000 0
0.000000 0.000000 0
0.000000 0.000000 0
0.000000 0.000000 0
0.000000 0.000000 0
0.000000 0.000000 0
0.000000 0.000000 0
0.000000 0.000000 0
0.000000 0.000000 0
0.000000 0.000000 0
0.000000 0.000000 0
2.077833 0.522107 0
3.746488 1.342043 0
4.738318 1.921310 0
5.378677 2.432355 0
5.723905 2.814958 0
5.801485 3.024933 0
5.623636 3.028731 0
5.175842 2.807241 0
4.418119 2.362031 0
3.272262 1.704509 0
1.282080 0.661945 0
-0.000000 0.000000 0
-0.002102 0.000000 0
0.000000 0.000000 0
0.000000 0.000000 0
0.000000 0.000000 0
0.000000 0.000000 0
0.000000 0.000000 0
0.000000 0.000000 0
0.000000 0.000000 0
0.000000 0.000000 0
0.000000 0.000000 0
0.000000 0.000000 0
0.000000 0.000000 0
0.000000 0.000000 0
0.000000 0.000000 0
0.000000 0.000000 0
0.000000 0.000000 0
0.000000 0.000000 0
0.000000 0.000000 0
0.000000 0.000000 0
0.308935 -0.109499 0
0.897285 -0.368359 0
1.541436 -0.672797 0
2.095990 -0.986248 0
2.519509 -1.304846 0
2.796899 -1.627601 0
2.926838 -1.961101 0
2.918686 -2.329092 0
2.785037 -2.783040 0
2.522220 -3.449343 0
2.017730 -4.378609 0
0.037592 -0.000001 0
-0.073615 2.449249 0
0.383973 0.000000 0
0.310146 0.000000 0
0.237477 0.000000 0
0.185013 0.000000 0
0.099250 0.000000 0
-0.006544 0.000000 0
-0.116659 0.000000 0
-0.219605 0.000000 0
-0.310074 0.000000 0
-0.385544 0.000000 0
-0.445684 0.000000 0
-0.491695 0.000000 0
-0.525668 0.000000 0
-0.550041 0.000000 0
-0.567204 0.000000 0
-0.579252 0.000000 0
-0.587874 0.000000 0
-0.594333 0.000000 0
-0.599519 0.000000 0
-0.604026 0.000000 0
-0.608234 0.000000 0
-0.612386 0.000000 0
-0.616652 0.000000 0
-0.621180 0.000000 0
-0.626139 0.000000 0
-0.631756 0.000000 0
-0.638360 0.000000 0
-0.646430 0.000000 0
-0.656668 0.000000 0
-0.670100 0.000000 0
-0.688236 0.000000 0
-0.713317 0.000000 0
-0.748724 0.000000 0
-0.799654 0.000000 0
-0.874477 0.000000 0
-0.986661 0.000000 0
-1.164961 0.000000 0
-1.451822 0.132432 0
0.000000 -0.000001 0
1.708884 0.339645 0
3.311198 1.349360 0
4.417794 2.075163 0
5.135412 2.625807 0
5.514488 2.980737 0
5.599967 3.117682 0
5.417403 3.030450 0
4.967474 2.732143 0
4.231087 2.253854 0
3.151280 1.622473 0
1.265505 0.635182 0
-0.000000 0.000000 0
-0.003813 0.000000 0
0.000000 0.000000 0
0.000000 0.000000 0
0.000000 0.000000 0
0.000000 0.000000 0
0.000000 0.000000 0
0.000000 0.000000 0
0.000000 0.000000 0
0.000000 0.000000 0
0.000000 0.000000 0
0.000000 0.000000 0
0.000000 0.000000 0
0.000000 0.000000 0
0.000000 0.000000 0
0.000000 0.000000 0
0.000000 0.000000 0
0.000000 0.000000 0
0.482554 -0.150470 0
1.207485 -0.439897 0