# vtk DataFile Version 2.0
generated by CFD-lab course output (written by Tobias Neckel) 
ASCII

DATASET STRUCTURED_GRID
DIMENSIONS  82 60 1 
POINTS 4920 float

-1.500000 -0.500000 0
-1.402439 -0.500000 0
-1.304878 -0.500000 0
-1.207317 -0.500000 0
-1.109756 -0.500000 0
-1.012195 -0.500000 0
-0.914634 -0.500000 0
-0.817073 -0.500000 0
-0.719512 -0.500000 0
-0.621951 -0.500000 0
-0.524390 -0.500000 0
-0.426829 -0.500000 0
-0.329268 -0.500000 0
-0.231707 -0.500000 0
-0.134146 -0.500000 0
-0.036585 -0.500000 0
0.060976 -0.500000 0
0.158537 -0.500000 0
0.256098 -0.500000 0
0.353659 -0.500000 0
0.451220 -0.500000 0
0.548780 -0.500000 0
0.646341 -0.500000 0
0.743902 -0.500000 0
0.841463 -0.500000 0
0.939024 -0.500000 0
1.036585 -0.500000 0
1.134146 -0.500000 0
1.231707 -0.500000 0
1.329268 -0.500000 0
1.426829 -0.500000 0
1.524390 -0.500000 0
1.621951 -0.500000 0
1.719512 -0.500000 0
1.817073 -0.500000 0
1.914634 -0.500000 0
2.012195 -0.500000 0
2.109756 -0.500000 0
2.207317 -0.500000 0
2.304878 -0.500000 0
2.402439 -0.500000 0
2.500000 -0.500000 0
2.597561 -0.500000 0
2.695122 -0.500000 0
2.792683 -0.500000 0
2.890244 -0.500000 0
2.987805 -0.500000 0
3.085366 -0.500000 0
3.182927 -0.500000 0
3.280488 -0.500000 0
3.378049 -0.500000 0
3.475610 -0.500000 0
3.573171 -0.500000 0
3.670732 -0.500000 0
3.768293 -0.500000 0
3.865854 -0.500000 0
3.963415 -0.500000 0
4.060976 -0.500000 0
4.158537 -0.500000 0
4.256098 -0.500000 0
4.353659 -0.500000 0
4.451220 -0.500000 0
4.548780 -0.500000 0
4.646341 -0.500000 0
4.743902 -0.500000 0
4.841463 -0.500000 0
4.939024 -0.500000 0
5.036585 -0.500000 0
5.134146 -0.500000 0
5.231707 -0.500000 0
5.329268 -0.500000 0
5.426829 -0.500000 0
5.524390 -0.500000 0
5.621951 -0.500000 0
5.719512 -0.500000 0
5.817073 -0.500000 0
5.914634 -0.500000 0
6.012195 -0.500000 0
6.109756 -0.500000 0
6.207317 -0.500000 0
6.304878 -0.500000 0
6.402439 -0.500000 0
-1.500000 -0.451667 0
-1.402439 -0.451667 0
-1.304878 -0.451667 0
-1.207317 -0.451667 0
-1.109756 -0.451667 0
-1.012195 -0.451667 0
-0.914634 -0.451667 0
-0.817073 -0.451667 0
-0.719512 -0.451667 0
-0.621951 -0.451667 0
-0.524390 -0.451667 0
-0.426829 -0.451667 0
-0.329268 -0.451667 0
-0.231707 -0.451667 0
-0.134146 -0.451667 0
-0.036585 -0.451667 0
0.060976 -0.451667 0
0.158537 -0.451667 0
0.256098 -0.451667 0
0.353659 -0.451667 0
0.451220 -0.451667 0
0.548780 -0.451667 0
0.646341 -0.451667 0
0.743902 -0.451667 0
0.841463 -0.451667 0
0.939024 -0.451667 0
1.036585 -0.451667 0
1.134146 -0.451667 0
1.231707 -0.451667 0
1.329268 -0.451667 0
1.426829 -0.451667 0
1.524390 -0.451667 0
1.621951 -0.451667 0
1.719512 -0.451667 0
1.817073 -0.451667 0
1.914634 -0.451667 0
2.012195 -0.451667 0
2.109756 -0.451667 0
2.207317 -0.451667 0
2.304878 -0.451667 0
2.402439 -0.451667 0
2.500000 -0.451667 0
2.597561 -0.451667 0
2.695122 -0.451667 0
2.792683 -0.451667 0
2.890244 -0.451667 0
2.987805 -0.451667 0
3.085366 -0.451667 0
3.182927 -0.451667 0
3.280488 -0.451667 0
3.378049 -0.451667 0
3.475610 -0.451667 0
3.573171 -0.451667 0
3.670732 -0.451667 0
3.768293 -0.451667 0
3.865854 -0.451667 0
3.963415 -0.451667 0
4.060976 -0.451667 0
4.158537 -0.451667 0
4.256098 -0.451667 0
4.353659 -0.451667 0
4.451220 -0.451667 0
4.548780 -0.451667 0
4.646341 -0.451667 0
4.743902 -0.451667 0
4.841463 -0.451667 0
4.939024 -0.451667 0
5.036585 -0.451667 0
5.134146 -0.451667 0
5.231707 -0.451667 0
5.329268 -0.451667 0
5.426829 -0.451667 0
5.524390 -0.451667 0
5.621951 -0.451667 0
5.719512 -0.451667 0
5.817073 -0.451667 0
5.914634 -0.451667 0
6.012195 -0.451667 0
6.109756 -0.451667 0
6.207317 -0.451667 0
6.304878 -0.451667 0
6.402439 -0.451667 0
-1.500000 -0.403333 0
-1.402439 -0.403333 0
-1.304878 -0.403333 0
-1.207317 -0.403333 0
-1.109756 -0.403333 0
-1.012195 -0.403333 0
-0.914634 -0.403333 0
-0.817073 -0.403333 0
-0.719512 -0.403333 0
-0.621951 -0.403333 0
-0.524390 -0.403333 0
-0.426829 -0.403333 0
-0.329268 -0.403333 0
-0.231707 -0.403333 0
-0.134146 -0.403333 0
-0.036585 -0.403333 0
0.060976 -0.403333 0
0.158537 -0.403333 0
0.256098 -0.403333 0
0.353659 -0.403333 0
0.451220 -0.403333 0
0.548780 -0.403333 0
0.646341 -0.403333 0
0.743902 -0.403333 0
0.841463 -0.403333 0
0.939024 -0.403333 0
1.036585 -0.403333 0
1.134146 -0.403333 0
1.231707 -0.403333 0
1.329268 -0.403333 0
1.426829 -0.403333 0
1.524390 -0.403333 0
1.621951 -0.403333 0
1.719512 -0.403333 0
1.817073 -0.403333 0
1.914634 -0.403333 0
2.012195 -0.403333 0
2.109756 -0.403333 0
2.207317 -0.403333 0
2.304878 -0.403333 0
2.402439 -0.403333 0
2.500000 -0.403333 0
2.597561 -0.403333 0
2.695122 -0.403333 0
2.792683 -0.403333 0
2.890244 -0.403333 0
2.987805 -0.403333 0
3.085366 -0.403333 0
3.182927 -0.403333 0
3.280488 -0.403333 0
3.378049 -0.403333 0
3.475610 -0.403333 0
3.573171 -0.403333 0
3.670732 -0.403333 0
3.768293 -0.403333 0
3.865854 -0.403333 0
3.963415 -0.403333 0
4.060976 -0.403333 0
4.158537 -0.403333 0
4.256098 -0.403333 0
4.353659 -0.403333 0
4.451220 -0.403333 0
4.548780 -0.403333 0
4.646341 -0.403333 0
4.743902 -0.403333 0
4.841463 -0.403333 0
4.939024 -0.403333 0
5.036585 -0.403333 0
5.134146 -0.403333 0
5.231707 -0.403333 0
5.329268 -0.403333 0
5.426829 -0.403333 0
5.524390 -0.403333 0
5.621951 -0.403333 0
5.719512 -0.403333 0
5.817073 -0.403333 0
5.914634 -0.403333 0
6.012195 -0.403333 0
6.109756 -0.403333 0
6.207317 -0.403333 0
6.304878 -0.403333 0
6.402439 -0.403333 0
-1.500000 -0.355000 0
-1.402439 -0.355000 0
-1.304878 -0.355000 0
-1.207317 -0.355000 0
-1.109756 -0.355000 0
-1.012195 -0.355000 0
-0.914634 -0.355000 0
-0.817073 -0.355000 0
-0.719512 -0.355000 0
-0.621951 -0.355000 0
-0.524390 -0.355000 0
-0.426829 -0.355000 0
-0.329268 -0.355000 0
-0.231707 -0.355000 0
-0.134146 -0.355000 0
-0.036585 -0.355000 0
0.060976 -0.355000 0
0.158537 -0.355000 0
0.256098 -0.355000 0
0.353659 -0.355000 0
0.451220 -0.355000 0
0.548780 -0.355000 0
0.646341 -0.355000 0
0.743902 -0.355000 0
0.841463 -0.355000 0
0.939024 -0.355000 0
1.036585 -0.355000 0
1.134146 -0.355000 0
1.231707 -0.355000 0
1.329268 -0.355000 0
1.426829 -0.355000 0
1.524390 -0.355000 0
1.621951 -0.355000 0
1.719512 -0.355000 0
1.817073 -0.355000 0
1.914634 -0.355000 0
2.012195 -0.355000 0
2.109756 -0.355000 0
2.207317 -0.355000 0
2.304878 -0.355000 0
2.402439 -0.355000 0
2.500000 -0.355000 0
2.597561 -0.355000 0
2.695122 -0.355000 0
2.792683 -0.355000 0
2.890244 -0.355000 0
2.987805 -0.355000 0
3.085366 -0.355000 0
3.182927 -0.355000 0
3.280488 -0.355000 0
3.378049 -0.355000 0
3.475610 -0.355000 0
3.573171 -0.355000 0
3.670732 -0.355000 0
3.768293 -0.355000 0
3.865854 -0.355000 0
3.963415 -0.355000 0
4.060976 -0.355000 0
4.158537 -0.355000 0
4.256098 -0.355000 0
4.353659 -0.355000 0
4.451220 -0.355000 0
4.548780 -0.355000 0
4.646341 -0.355000 0
4.743902 -0.355000 0
4.841463 -0.355000 0
4.939024 -0.355000 0
5.036585 -0.355000 0
5.134146 -0.355000 0
5.231707 -0.355000 0
5.329268 -0.355000 0
5.426829 -0.355000 0
5.524390 -0.355000 0
5.621951 -0.355000 0
5.719512 -0.355000 0
5.817073 -0.355000 0
5.914634 -0.355000 0
6.012195 -0.355000 0
6.109756 -0.355000 0
6.207317 -0.355000 0
6.304878 -0.355000 0
6.402439 -0.355000 0
-1.500000 -0.306667 0
-1.402439 -0.306667 0
-1.304878 -0.306667 0
-1.207317 -0.306667 0
-1.109756 -0.306667 0
-1.012195 -0.306667 0
-0.914634 -0.306667 0
-0.817073 -0.306667 0
-0.719512 -0.306667 0
-0.621951 -0.306667 0
-0.524390 -0.306667 0
-0.426829 -0.306667 0
-0.329268 -0.306667 0
-0.231707 -0.306667 0
-0.134146 -0.306667 0
-0.036585 -0.306667 0
0.060976 -0.306667 0
0.158537 -0.306667 0
0.256098 -0.306667 0
0.353659 -0.306667 0
0.451220 -0.306667 0
0.548780 -0.306667 0
0.646341 -0.306667 0
0.743902 -0.306667 0
0.841463 -0.306667 0
0.939024 -0.306667 0
1.036585 -0.306667 0
1.134146 -0.306667 0
1.231707 -0.306667 0
1.329268 -0.306667 0
1.426829 -0.306667 0
1.524390 -0.306667 0
1.621951 -0.306667 0
1.719512 -0.306667 0
1.817073 -0.306667 0
1.914634 -0.306667 0
2.012195 -0.306667 0
2.109756 -0.306667 0
2.207317 -0.306667 0
2.304878 -0.306667 0
2.402439 -0.306667 0
2.500000 -0.306667 0
2.597561 -0.306667 0
2.695122 -0.306667 0
2.792683 -0.306667 0
2.890244 -0.306667 0
2.987805 -0.306667 0
3.085366 -0.306667 0
3.182927 -0.306667 0
3.280488 -0.306667 0
3.378049 -0.306667 0
3.475610 -0.306667 0
3.573171 -0.306667 0
3.670732 -0.306667 0
3.768293 -0.306667 0
3.865854 -0.306667 0
3.963415 -0.306667 0
4.060976 -0.306667 0
4.158537 -0.306667 0
4.256098 -0.306667 0
4.353659 -0.306667 0
4.451220 -0.306667 0
4.548780 -0.306667 0
4.646341 -0.306667 0
4.743902 -0.306667 0
4.841463 -0.306667 0
4.939024 -0.306667 0
5.036585 -0.306667 0
5.134146 -0.306667 0
5.231707 -0.306667 0
5.329268 -0.306667 0
5.426829 -0.306667 0
5.524390 -0.306667 0
5.621951 -0.306667 0
5.719512 -0.306667 0
5.817073 -0.306667 0
5.914634 -0.306667 0
6.012195 -0.306667 0
6.109756 -0.306667 0
6.207317 -0.306667 0
6.304878 -0.306667 0
6.402439 -0.306667 0
-1.500000 -0.258333 0
-1.402439 -0.258333 0
-1.304878 -0.258333 0
-1.207317 -0.258333 0
-1.109756 -0.258333 0
-1.012195 -0.258333 0
-0.914634 -0.258333 0
-0.817073 -0.258333 0
-0.719512 -0.258333 0
-0.621951 -0.258333 0
-0.524390 -0.258333 0
-0.426829 -0.258333 0
-0.329268 -0.258333 0
-0.231707 -0.258333 0
-0.134146 -0.258333 0
-0.036585 -0.258333 0
0.060976 -0.258333 0
0.158537 -0.258333 0
0.256098 -0.258333 0
0.353659 -0.258333 0
0.451220 -0.258333 0
0.548780 -0.258333 0
0.646341 -0.258333 0
0.743902 -0.258333 0
0.841463 -0.258333 0
0.939024 -0.258333 0
1.036585 -0.258333 0
1.134146 -0.258333 0
1.231707 -0.258333 0
1.329268 -0.258333 0
1.426829 -0.258333 0
1.524390 -0.258333 0
1.621951 -0.258333 0
1.719512 -0.258333 0
1.817073 -0.258333 0
1.914634 -0.258333 0
2.012195 -0.258333 0
2.109756 -0.258333 0
2.207317 -0.258333 0
2.304878 -0.258333 0
2.402439 -0.258333 0
2.500000 -0.258333 0
2.597561 -0.258333 0
2.695122 -0.258333 0
2.792683 -0.258333 0
2.890244 -0.258333 0
2.987805 -0.258333 0
3.085366 -0.258333 0
3.182927 -0.258333 0
3.280488 -0.258333 0
3.378049 -0.258333 0
3.475610 -0.258333 0
3.573171 -0.258333 0
[...]
POINT_DATA 4920 

VECTORS velocity float
0.000000 0.000000 0
0.000000 0.000000 0
0.000000 0.000000 0
0.000000 0.000000 0
0.000000 0.000000 0
0.000000 0.000000 0
0.000000 0.000000 0
0.000000 0.000000 0
0.000000 0.000000 0
0.000000 0.000000 0
0.000000 0.000000 0
0.000000 0.000000 0
0.000000 0.000000 0
0.000000 0.000000 0
0.000000 0.000000 0
-0.000000 0.000000 0
-0.000000 0.000000 0
-0.000000 0.000000 0
-0.000000 0.000000 0
-0.000000 0.000000 0
-0.000000 0.000000 0
-0.000000 0.000000 0
-0.000001 0.000000 0
-0.000001 0.000000 0
-0.000001 0.000000 0
-0.000001 0.000000 0
-0.000001 0.000000 0
-0.000001 0.000000 0
-0.000000 0.000000 0
-0.000000 0.000000 0
-0.000000 0.000000 0
-0.000000 0.000000 0
-0.000000 0.000000 0
-0.000000 0.000000 0
-0.000000 0.000000 0
-0.000000 0.000000 0
0.000000 0.000000 0
0.000000 0.000000 0
0.000000 0.000000 0
0.000000 0.000000 0
0.000001 0.000000 0
0.000001 0.000000 0
0.000001 0.000000 0
0.000001 0.000000 0
0.000001 0.000000 0
0.000001 0.000000 0
0.000002 0.000000 0
0.000002 0.000000 0
0.000002 0.000000 0
0.000002 0.000000 0
0.000002 0.000000 0
0.000002 0.000000 0
0.000001 0.000000 0
0.000001 0.000000 0
0.000000 0.000000 0
-0.000001 0.000000 0
-0.000000 0.000000 0
0.001908 0.000000 0
0.000000 0.000000 0
0.000000 0.000000 0
0.000000 0.000000 0
0.000000 0.000000 0
0.000000 0.000000 0
0.000000 0.000000 0
0.000000 0.000000 0
0.000000 0.000000 0
0.000000 0.000000 0
0.000000 0.000000 0
0.000000 0.000000 0
0.000000 0.000000 0
0.000000 0.000000 0
0.000000 0.000000 0
0.000000 0.000000 0
0.000000 0.000000 0
0.000000 0.000000 0
0.000000 0.000000 0
0.000000 0.000000 0
0.000000 0.000000 0
0.000000 0.000000 0
0.000000 0.000000 0
0.000000 0.000000 0
0.000000 0.000000 0
0.000000 0.000000 0
0.000000 0.000000 0
0.000000 0.000000 0
0.000000 0.000000 0
0.000000 0.000000 0
0.000000 0.000000 0
0.000000 0.000000 0
0.000000 0.000000 0
0.000000 0.000000 0
0.000000 0.000000 0
0.000000 0.000000 0
0.000000 0.000000 0
0.000000 0.000000 0
0.000000 0.000000 0
1.046373 -0.422520 0
2.518253 -0.738192 0
3.779705 -0.505127 0
4.622696 -0.265388 0
5.056134 -0.070112 0
5.167085 0.061935 0
5.063196 0.139733 0
4.829726 0.177733 0
4.530813 0.186495 0
4.213337 0.174995 0
3.909586 0.151107 0
3.639335 0.121574 0
3.412014 0.091693 0
3.229209 0.065046 0
3.087325 0.043476 0
2.980041 0.027392 0
2.900216 0.016259 0
2.841110 0.009098 0
2.796999 0.004856 0
2.763355 0.002606 0
2.736790 0.001629 0
2.714865 0.001410 0
2.695883 0.001607 0
2.678686 0.002011 0
2.662478 0.002512 0
2.646682 0.003066 0
2.630821 0.003680 0
2.614424 0.004399 0
2.596935 0.005300 0
2.577624 0.006495 0
2.555496 0.008132 0
2.529160 0.010413 0
2.496684 0.013603 0
2.455383 0.018052 0
2.401561 0.024206 0
2.330177 0.032609 0
2.234481 0.043863 0
2.105664 0.058448 0
1.932898 0.076425 0
1.703784 0.096308 0
1.408493 0.114951 0
1.038145 0.130670 0
0.616309 0.068910 0
-0.000000 0.000000 0
-0.001576 0.000000 0
0.000000 0.000000 0
0.000000 0.000000 0
0.000000 0.000000 0
0.000000 0.000000 0
0.000000 0.000000 0
0.000000 0.000000 0
0.000000 0.000000 0
0.000000 0.000000 0
0.000000 0.000000 0
0.000000 0.000000 0
0.000000 0.000000 0
0.000000 0.000000 0
0.000000 0.000000 0
0.000000 0.000000 0
0.000000 0.000000 0
0.000000 0.000000 0
0.000000 0.000000 0
0.000000 0.000000 0
0.000000 0.000000 0
0.000000 0.000000 0
0.000000 0.000000 0
0.000000 0.000000 0
0.000000 0.000000 0
0.000000 0.000000 0
0.000000 0.000000 0
0.000000 0.000000 0
0.000000 0.000000 0
0.000000 0.000000 0
0.000000 0.000000 0
0.000000 0.000000 0
0.000000 0.000000 0
0.000000 0.000000 0
0.000000 0.000000 0
0.000000 0.000000 0
0.000000 0.000000 0
0.000000 0.000000 0
1.159584 -0.516985 0
2.653699 -1.245972 0
3.828515 -1.353931 0
5.002459 -1.042576 0
5.863827 -0.632365 0
6.390866 -0.269700 0
6.647000 -0.003499 0
6.706739 0.167133 0
6.638222 0.263752 0
6.490964 0.305369 0
6.301144 0.307766 0
6.094816 0.284370 0
5.890089 0.246505 0
5.698739 0.203183 0
5.527500 0.160856 0
5.379211 0.123442 0
5.253884 0.092697 0
5.149681 0.068828 0
5.063764 0.051136 0
4.992950 0.038521 0
4.934159 0.029828 0
4.884673 0.024023 0
4.842231 0.020266 0
4.805031 0.017923 0
4.771671 0.016549 0
4.741060 0.015856 0
4.712327 0.015683 0
4.684720 0.015981 0
4.657522 0.016788 0
4.629954 0.018231 0
4.601078 0.020529 0
4.569685 0.024010 0
4.534146 0.029136 0
4.492225 0.036550 0
4.440823 0.047126 0
4.375632 0.062029 0
4.290657 0.082774 0
4.177588 0.111227 0
4.024997 0.149409 0
3.817417 0.199098 0
3.534702 0.259799 0
3.152623 0.329769 0
2.645468 0.391952 0
2.013648 0.512012 0
1.050114 0.303536 0
-0.000000 0.000000 0
-0.004731 0.000000 0
0.000000 0.000000 0
0.000000 0.000000 0
0.000000 0.000000 0
0.000000 0.000000 0
0.000000 0.000000 0
0.000000 0.000000 0
0.000000 0.000000 0
0.000000 0.000000 0
0.000000 0.000000 0
0.000000 0.000000 0
0.000000 0.000000 0
0.000000 0.000000 0
0.000000 0.000000 0
0.000000 0.000000 0
0.000000 0.000000 0
0.000000 0.000000 0
0.000000 0.000000 0
0.000000 0.000000 0
0.000000 0.000000 0
0.000000 0.000000 0
0.000000 0.000000 0
0.000000 0.000000 0
0.000000 0.000000 0
0.000000 0.000000 0
0.000000 0.000000 0
0.000000 0.000000 0
0.000000 0.000000 0
0.000000 0.000000 0
0.000000 0.000000 0
0.000000 0.000000 0
0.000000 0.000000 0
0.000000 0.000000 0
0.000000 0.000000 0
0.000000 0.000000 0
0.936074 -0.582522 0
2.634521 -1.321325 0
3.462225 -1.743347 0
4.644853 -1.901807 0
5.708218 -1.513455 0
6.431300 -0.953228 0
6.856135 -0.458109 0
7.079316 -0.094554 0
7.167422 0.144082 0
7.169287 0.284631 0
7.118109 0.353489 0
7.036112 0.371253 0
6.938157 0.354751 0
6.834336 0.317797 0
6.731607 0.271326 0
6.634654 0.223346 0
6.546329 0.179031 0
6.467942 0.141105 0
6.399598 0.110447 0
6.340565 0.086746 0
6.289642 0.069064 0
6.245462 0.056248 0
6.206696 0.047172 0
6.172169 0.040866 0
6.140898 0.036563 0
6.112087 0.033703 0
6.085092 0.031912 0
6.059371 0.030978 0
6.034433 0.030831 0
6.009780 0.031531 0
5.984842 0.033263 0
5.958909 0.036352 0
5.931040 0.041291 0
5.899947 0.048788 0
5.863834 0.059837 0
5.820173 0.075814 0
5.765382 0.098601 0
5.694349 0.130723 0
5.599730 0.175476 0
5.470920 0.236882 0
5.292411 0.319325 0
5.042108 0.425659 0
4.688190 0.555492 0
4.198137 0.694937 0
3.528594 0.855555 0
2.830274 0.996268 0
1.342624 0.522638 0
-0.000000 0.000000 0
-0.005825 0.000000 0
0.000000 0.000000 0
0.000000 0.000000 0
0.000000 0.000000 0
0.000000 0.000000 0
0.000000 0.000000 0
0.000000 0.000000 0
0.000000 0.000000 0
0.000000 0.000000 0
0.000000 0.000000 0
0.000000 0.000000 0
0.000000 0.000000 0
0.000000 0.000000 0
0.000000 0.000000 0
0.000000 0.000000 0
0.000000 0.000000 0
0.000000 0.000000 0
0.000000 0.000000 0
0.000000 0.000000 0
0.000000 0.000000 0
0.000000 0.000000 0
0.000000 0.000000 0
0.000000 0.000000 0
0.000000 0.000000 0
0.000000 0.000000 0
0.000000 0.000000 0
0.000000 0.000000 0
0.000000 0.000000 0
0.000000 0.000000 0
0.000000 0.000000 0
0.000000 0.000000 0
0.000000 0.000000 0
0.000000 0.000000 0
0.738364 -0.467368 0
2.144315 -1.316851 0
3.090212 -1.776526 0
3.864662 -2.241924 0
5.207647 -2.466634 0
6.163193 -1.927612 0
6.688625 -1.201062 0
6.946393 -0.590737 0
7.065033 -0.157715 0
7.111539 0.122560 0
7.115539 0.288182 0
7.097395 0.371346 0
7.068543 0.396917 0
7.034713 0.384333 0
6.998670 0.348834 0
6.962026 0.302109 0
6.926056 0.252646 0
6.891868 0.206034 0
6.860305 0.165389 0
6.831843 0.131933 0
6.806576 0.105610 0
6.784301 0.085637 0
6.764632 0.070921 0
6.747109 0.060334 0
6.731276 0.052863 0
6.716726 0.047689 0
6.703112 0.044197 0
6.690145 0.041972 0
6.677579 0.040781 0
6.665181 0.040549 0
6.652710 0.041356 0
6.639876 0.043433 0
6.626308 0.047184 0
6.611491 0.053221 0
6.594703 0.062432 0
6.574903 0.076072 0
6.550583 0.095900 0
6.519526 0.124365 0
6.478429 0.164840 0
6.422269 0.221918 0
6.343235 0.301660 0
6.228721 0.411538 0
6.058317 0.559140 0
5.798309 0.747886 0
5.405353 0.966435 0
4.836425 1.189674 0
4.166557 1.388731 0
3.376815 1.409478 0
1.500675 0.670242 0
-0.000000 0.000000 0
-0.005282 0.000000 0
0.000000 0.000000 0
0.000000 0.000000 0
0.000000 0.000000 0
0.000000 0.000000 0
0.000000 0.000000 0
0.000000 0.000000 0
0.000000 0.000000 0
0.000000 0.000000 0
0.000000 0.000000 0
0.000000 0.000000 0
0.000000 0.000000 0
0.000000 0.000000 0
0.000000 0.000000 0
0.000000 0.000000 0
0.000000 0.000000 0
0.000000 0.000000 0
0.000000 0.000000 0
0.000000 0.000000 0
0.000000 0.000000 0
0.000000 0.000000 0
0.000000 0.000000 0
0.000000 0.000000 0
0.000000 0.000000 0
0.000000 0.000000 0
0.000000 0.000000 0
0.000000 0.000000 0
0.000000 0.000000 0
0.000000 0.000000 0
0.000000 0.000000 0
0.000000 0.000000 0
0.536156 -0.369269 0
1.698499 -1.069422 0
2.545148 -1.751288 0
3.300590 -2.173613 0
4.126424 -2.792359 0
5.618924 -3.040538 0
6.351906 -2.247156 0
6.584574 -1.341238 0
6.618008 -0.644588 0
6.605803 -0.176370 0
6.591016 0.119061 0
6.580930 0.291638 0
6.579671 0.376771 0
6.586624 0.402307 0
6.598876 0.389367 0
6.613001 0.353807 0
6.626327 0.307300 0
6.637380 0.258103 0
6.645751 0.211604 0
6.651720 0.170842 0
6.655864 0.137066 0
6.658790 0.110299 0
6.660992 0.089844 0
6.662815 0.074674 0
6.664472 0.063697 0
6.666074 0.055918 0
6.667670 0.050516 0
6.669269 0.046871 0
6.670862 0.044561 0
6.672430 0.043345 0
6.673951 0.043152 0
6.675400 0.044068 0
6.676745 0.046343 0
6.677947 0.050415 0
6.678940 0.056949 0
6.679623 0.066914 0
6.679817 0.081694 0
6.679214 0.103249 0
6.677261 0.134347 0
6.672950 0.178906 0
6.664381 0.242453 0
6.647873 0.332770 0
6.615935 0.460479 0
6.553190 0.638892 0
6.427855 0.878982 0
6.183590 1.171471 0
5.771783 1.469275 0
5.220905 1.719383 0
4.581103 1.851568 0
3.670525 1.686283 0
1.556394 0.748604 0
-0.000000 0.000000 0
-0.003988 0.000000 0
0.000000 0.000000 0
0.000000 0.000000 0
0.000000 0.000000 0
0.000000 0.000000 0
0.000000 0.000000 0
0.000000 0.000000 0
0.000000 0.000000 0
0.000000 0.000000 0
0.000000 0.000000 0
0.000000 0.000000 0
0.000000 0.000000 0
0.000000 0.000000 0
0.000000 0.000000 0
0.000000 0.000000 0
0.000000 0.000000 0
0.000000 0.000000 0
0.000000 0.000000 0
0.000000 0.000000 0
0.000000 0.000000 0
0.000000 0.000000 0
0.000000 0.000000 0
0.000000 0.000000 0
0.000000 0.000000 0
0.000000 0.000000 0
0.000000 0.000000 0
0.000000 0.000000 0
0.000000 0.000000 0
0.000000 0.000000 0
0.376454 -0.266951 0
1.297271 -0.846266 0
2.061366 -1.466127 0
2.754272 -2.110554 0
3.394845 -2.559917 0
4.280844 -3.390465 0
5.830971 -3.569174 0
6.151654 -2.406011 0
5.981530 -1.332893 0
5.742744 -0.601255 0
5.590264 -0.144343 0
5.514129 0.134883 0
5.501121 0.293803 0
5.531398 0.368526 0
5.587143 0.387402 0
5.654855 0.371266 0
5.724820 0.335234 0
5.790864 0.290031 0
5.849741 0.243023 0
5.900354 0.198930 0
5.942988 0.160379 0
5.978657 0.128430 0
6.008637 0.103070 0
6.034181 0.083643 0
6.056372 0.069197 0
6.076083 0.058719 0
6.093984 0.051279 0
6.110573 0.046106 0
6.126215 0.042615 0
6.141186 0.040406 0
6.155704 0.039250 0
6.169965 0.039078 0
6.184170 0.039972 0
6.198553 0.042171 0
6.213415 0.046096 0
6.229151 0.052390 0
6.246297 0.061997 0
6.265570 0.076274 0
6.287920 0.097167 0
6.314575 0.127468 0
6.347047 0.171221 0
6.387009 0.234342 0
6.435836 0.325662 0
6.493037 0.458446 0
6.551875 0.652318 0
6.587726 0.930992 0
6.526854 1.291464 0
6.297374 1.666604 0
5.922310 1.978614 0
5.433533 2.177562 0
4.793685 2.179107 0
3.768341 1.832726 0
1.542558 0.774976 0
0.000000 0.000000 0
-0.002629 0.000000 0
0.000000 0.000000 0
0.000000 0.000000 0
0.000000 0.000000 0
0.000000 0.000000 0
0.000000 0.000000 0
0.000000 0.000000 0
0.000000 0.000000 0
0.000000 0.000000 0
0.000000 0.000000 0
0.000000 0.000000 0
0.000000 0.000000 0
0.000000 0.000000 0
0.000000 0.000000 0
0.000000 0.000000 0
0.000000 0.000000 0
0.000000 0.000000 0
0.000000 0.000000 0
0.000000 0.000000 0
0.000000 0.000000 0
0.000000 0.000000 0
0.000000 0.000000 0
0.000000 0.000000 0
0.000000 0.000000 0
0.000000 0.000000 0
0.000000 0.000000 0
0.000000 0.000000 0
0.267960 -0.186449 0
0.995864 -0.643968 0
1.702378 -1.205333 0
2.319825 -1.791245 0
2.880598 -2.411916 0
3.395751 -2.929902 0
4.284432 -3.999257 0
5.744072 -3.967368 0
5.401605 -2.321746 0
4.738395 -1.138657 0
4.209707 -0.450748 0
3.920647 -0.063110 0
3.816898 0.163224 0
3.848305 0.283082 0
3.954211 0.334155 0
4.094121 0.341144 0
4.243975 0.321160 0
4.389179 0.286426 0
4.521774 0.245412 0
4.638233 0.203860 0
4.737905 0.165408 0
4.821875 0.132050 0
4.892122 0.104542 0
4.950934 0.082791 0
5.000545 0.066195 0
5.042943 0.053915 0
5.079795 0.045063 0
5.112444 0.038832 0
5.141942 0.034549 0
5.169107 0.031705 0
5.194582 0.029951 0
5.218893 0.029087 0
5.242509 0.029050 0
5.265901 0.029905 0
5.289598 0.031855 0
5.314256 0.035256 0
5.340736 0.040658 0
5.370199 0.048872 0
5.404239 0.061074 0
5.445043 0.078971 0
5.495607 0.105054 0
5.560002 0.143021 0
5.643665 0.198466 0
5.753590 0.280242 0
5.898043 0.402991 0
6.082781 0.591982 0
6.302226 0.891377 0
6.456931 1.315316 0
6.421566 1.768776 0
6.249529 2.147344 0
5.949752 2.410708 0
5.510861 2.511247 0
4.841333 2.368681 0
3.728646 1.878756 0
1.486276 0.766650 0
0.000000 0.000000 0
-0.001610 0.000000 0
0.000000 0.000000 0
0.000000 0.000000 0
0.000000 0.000000 0
0.000000 0.000000 0
0.000000 0.000000 0
0.000000 0.000000 0
0.000000 0.000000 0
0.000000 0.000000 0
0.000000 0.000000 0
0.000000 0.000000 0
0.000000 0.000000 0
0.000000 0.000000 0
0.000000 0.000000 0
0.000000 0.000000 0
0.000000 0.000000 0
0.000000 0.000000 0
0.000000 0.000000 0
0.000000 0.000000 0
0.000000 0.000000 0
0.000000 0.000000 0
0.000000 0.000000 0
0.000000 0.000000 0
0.000000 0.000000 0
0.000000 0.000000 0
0.209240 -0.131859 0
0.805416 -0.492423 0
1.468479 -0.977533 0
2.052776 -1.502179 0
2.535316 -2.049837 0
2.939291 -2.643585 0
3.298250 -3.255400 0
4.068779 -4.553862 0
5.219276 -4.122640 0
3.916855 -1.907782 0
2.775346 -0.742407 0
2.002234 -0.196129 0
1.719022 0.050261 0
1.749709 0.170722 0
1.910248 0.225776 0
2.129547 0.246744 0
2.368839 0.243848 0
2.605111 0.225089 0
2.823720 0.197608 0
3.017359 0.166646 0
3.183509 0.135949 0
3.322728 0.107951 0
3.437423 0.083977 0
3.530938 0.064492 0
3.606910 0.049355 0
3.668841 0.038060 0
3.719853 0.029935 0
3.762582 0.024287 0
3.799160 0.020490 0
3.831258 0.018034 0
3.860165 0.016536 0
3.886873 0.015741 0
3.912175 0.015506 0
3.936755 0.015790 0
3.961280 0.016644 0
3.986488 0.018216 0
4.013296 0.020762 0
4.042908 0.024675 0
4.076977 0.030537 0
4.117798 0.039196 0
4.168589 0.051902 0
4.233876 0.070515 0
4.320038 0.097870 0
4.436102 0.138436 0
4.594755 0.199639 0
4.814627 0.295359 0
5.117577 0.452079 0
5.544276 0.745631 0
5.976170 1.232341 0
6.151334 1.769355 0
6.208187 2.212359 0
6.131230 2.543510 0
5.901290 2.728237 0
5.478225 2.715665 0
4.766475 2.444161 0
3.602597 1.855482 0
1.410436 0.737541 0
0.000000 0.000000 0
-0.001120 0.000000 0
0.000000 0.000000 0
0.000000 0.000000 0
0.000000 0.000000 0
0.000000 0.000000 0
0.000000 0.000000 0
0.000000 0.000000 0
0.000000 0.000000 0
0.000000 0.000000 0
0.000000 0.000000 0
0.000000 0.000000 0
0.000000 0.000000 0
0.000000 0.000000 0
0.000000 0.000000 0
0.000000 0.000000 0
0.000000 0.000000 0
0.000000 0.000000 0
0.000000 0.000000 0
0.000000 0.000000 0
0.000000 0.000000 0
0.000000 0.000000 0
0.000000 0.000000 0
0.000000 0.000000 0
0.195334 -0.102298 0
0.724331 -0.396761 0
1.360445 -0.809405 0
1.928498 -1.261931 0
2.381625 -1.733861 0
2.709856 -2.230439 0
2.935062 -2.789886 0
3.101433 -3.489470 0
3.571582 -4.950965 0
4.021211 -3.892103 0
1.556774 -1.110982 0
0.421244 -0.190122 0
0.058223 0.072572 0
0.025357 0.061995 0
0.159675 0.068488 0
0.369959 0.094904 0
0.615404 0.106961 0
0.868013 0.105542 0
1.107613 0.095804 0
1.322356 0.082191 0
1.506485 0.067167 0
1.658731 0.052575 0
1.780898 0.039615 0
1.876629 0.028899 0
1.950406 0.020575 0
2.006807 0.014471 0
2.050029 0.010242 0
2.083632 0.007474 0
2.110454 0.005774 0
2.132656 0.004809 0
2.151814 0.004326 0
2.169057 0.004153 0
2.185192 0.004185 0
2.200830 0.004375 0
2.216491 0.004722 0
2.232702 0.005266 0
2.250086 0.006085 0
2.269470 0.007305 0
2.291994 0.009110 0
2.319277 0.011770 0
2.353632 0.015688 0
2.398393 0.021463 0
2.458396 0.030024 0
2.540727 0.042834 0
2.655947 0.062366 0
2.820160 0.092714 0
3.058918 0.143976 0
3.416343 0.230501 0
3.971442 0.466016 0
4.893612 1.014569 0
5.377778 1.653831 0
5.757502 2.157304 0
5.967026 2.562750 0
5.983531 2.834756 0
5.793067 2.930888 0
5.359471 2.807973 0
4.612346 2.433781 0
3.436837 1.789673 0
1.336620 0.699147 0
0.000000 0.000000 0
-0.001280 0.000000 0
0.000000 0.000000 0
0.000000 0.000000 0
0.000000 0.000000 0
0.000000 0.000000 0
0.000000 0.000000 0
0.000000 0.000000 0
0.000000 0.000000 0
0.000000 0.000000 0
0.000000 0.000000 0
0.000000 0.000000 0
0.000000 0.000000 0
0.000000 0.000000 0
0.000000 0.000000 0
0.000000 0.000000 0
0.000000 0.000000 0
0.000000 0.000000 0
0.000000 0.000000 0
0.000000 0.000000 0
0.000000 0.000000 0
0.000000 0.000000 0
0.225159 -0.095082 0
0.751072 -0.355793 0
1.380107 -0.707712 0
1.940928 -1.088987 0
2.380113 -1.483443 0
2.678969 -1.889276 0
2.838705 -2.324019 0
2.877980 -2.837579 0
2.824739 -3.570743 0
2.796803 -5.009536 0
1.634842 -3.000173 0
-0.000000 0.000000 0
-0.000000 0.000000 0
-0.000000 0.000000 0
-0.000000 0.000000 0
-0.000000 0.000000 0
-0.000000 0.000000 0
-0.000000 0.000000 0
-0.000000 0.000000 0
0.000000 0.000000 0
0.000000 0.000000 0
0.000000 0.000000 0
0.000000 0.000000 0
0.000000 0.000000 0
0.000000 0.000000 0
0.000000 0.000000 0
0.000000 0.000000 0
0.000000 0.000000 0
0.000000 0.000000 0
0.000000 0.000000 0
0.000000 0.000000 0
-0.000000 0.000000 0
-0.000000 0.000000 0
-0.000000 0.000000 0
-0.000000 0.000000 0
-0.000000 0.000000 0
-0.000001 0.000000 0
-0.000001 0.000000 0
-0.000001 0.000000 0
-0.000001 0.000000 0
-0.000001 0.000000 0
-0.000002 0.000000 0
-0.000002 0.000000 0
-0.000002 0.000000 0
-0.000003 0.000000 0
-0.000003 0.000000 0
-0.000003 0.000000 0
-0.000004 0.000000 0
-0.000004 0.000000 0
-0.000005 0.000000 0
2.078428 0.521851 0
3.747388 1.341370 0
4.739871 1.920435 0
5.380860 2.431531 0
5.726485 2.814419 0
5.804133 3.024835 0
5.626101 3.029110 0
5.177975 2.807987 0
4.419786 2.362884 0
3.273297 1.705139 0
1.282321 0.662163 0
0.000000 0.000000 0
-0.002106 0.000000 0
0.000000 0.000000 0
0.000000 0.000000 0
0.000000 0.000000 0
0.000000 0.000000 0
0.000000 0.000000 0
0.000000 0.000000 0
0.000000 0.000000 0
0.000000 0.000000 0
0.000000 0.000000 0
0.000000 0.000000 0
0.000000 0.000000 0
0.000000 0.000000 0
0.000000 0.000000 0
0.000000 0.000000 0
0.000000 0.000000 0
0.000000 0.000000 0
0.000000 0.000000 0
0.000000 0.000000 0
0.308930 -0.109496 0
0.897273 -0.368352 0
1.541423 -0.672788 0
2.095972 -0.986235 0
2.519483 -1.304825 0
2.796865 -1.627569 0
2.926797 -1.961056 0
2.918641 -2.329033 0
2.784990 -2.782967 0
2.522172 -3.449253 0
2.017685 -4.378495 0
0.037589 0.000000 0
-0.073586 2.449186 0
0.383997 0.000000 0
0.310176 0.000000 0
0.237510 0.000000 0
0.185038 0.000000 0
0.099267 0.000000 0
-0.006527 0.000000 0
-0.116633 0.000000 0
-0.219563 0.000000 0
-0.310014 0.000000 0
-0.385466 0.000000 0
-0.445590 0.000000 0
-0.491589 0.000000 0
-0.525554 0.000000 0
-0.549923 0.000000 0
-0.567084 0.000000 0
-0.579133 0.000000 0
-0.587757 0.000000 0
-0.594219 0.000000 0
-0.599411 0.000000 0
-0.603925 0.000000 0
-0.608143 0.000000 0
-0.612308 0.000000 0
-0.616590 0.000000 0
-0.621139 0.000000 0
-0.626122 0.000000 0
-0.631768 0.000000 0
-0.638406 0.000000 0
-0.646514 0.000000 0
-0.656794 0.000000 0
-0.670273 0.000000 0
-0.688460 0.000000 0
-0.713597 0.000000 0
-0.749064 0.000000 0
-0.800059 0.000000 0
-0.874950 0.000000 0
-0.987204 0.000000 0
-1.165568 0.000000 0
-1.452472 0.132765 0
0.000000 0.000004 0
1.708780 0.338687 0
3.311883 1.348055 0
4.419506 2.073965 0
5.137966 2.625060 0
5.517429 2.980620 0
5.602871 3.118182 0
5.419981 3.031410 0
4.969529 2.733282 0
4.232459 2.254831 0
3.151865 1.622998 0
1.265469 0.635304 0
0.000000 0.000000 0
-0.003813 0.000000 0
0.000000 0.000000 0
0.000000 0.000000 0
0.000000 0.000000 0
0.000000 0.000000 0
0.000000 0.000000 0
0.000000 0.000000 0
0.000000 0.000000 0
0.000000 0.000000 0
0.000000 0.000000 0
0.000000 0.000000 0
0.000000 0.000000 0
0.000000 0.000000 0
0.000000 0.000000 0
0.000000 0.000000 0
0.000000 0.000000 0
0.000000 0.000000 0