# vtk DataFile Version 2.0
generated by CFD-lab course output (written by Tobias Neckel) 
ASCII

DATASET STRUCTURED_GRID
DIMENSIONS  82 60 1 
POINTS 4920 float

-1.500000 -0.500000 0
-1.402439 -0.500000 0
-1.304878 -0.500000 0
-1.207317 -0.500000 0
-1.109756 -0.500000 0
-1.012195 -0.500000 0
-0.914634 -0.500000 0
-0.817073 -0.500000 0
-0.719512 -0.500000 0
-0.621951 -0.500000 0
-0.524390 -0.500000 0
-0.426829 -0.500000 0
-0.329268 -0.500000 0
-0.231707 -0.500000 0
-0.134146 -0.500000 0
-0.036585 -0.500000 0
0.060976 -0.500000 0
0.158537 -0.500000 0
0.256098 -0.500000 0
0.353659 -0.500000 0
0.451220 -0.500000 0
0.548780 -0.500000 0
0.646341 -0.500000 0
0.743902 -0.500000 0
0.841463 -0.500000 0
0.939024 -0.500000 0
1.036585 -0.500000 0
1.134146 -0.500000 0
1.231707 -0.500000 0
1.329268 -0.500000 0
1.426829 -0.500000 0
1.524390 -0.500000 0
1.621951 -0.500000 0
1.719512 -0.500000 0
1.817073 -0.500000 0
1.914634 -0.500000 0
2.012195 -0.500000 0
2.109756 -0.500000 0
2.207317 -0.500000 0
2.304878 -0.500000 0
2.402439 -0.500000 0
2.500000 -0.500000 0
2.597561 -0.500000 0
2.695122 -0.500000 0
2.792683 -0.500000 0
2.890244 -0.500000 0
2.987805 -0.500000 0
3.085366 -0.500000 0
3.182927 -0.500000 0
3.280488 -0.500000 0
3.378049 -0.500000 0
3.475610 -0.500000 0
3.573171 -0.500000 0
3.670732 -0.500000 0
3.768293 -0.500000 0
3.865854 -0.500000 0
3.963415 -0.500000 0
4.060976 -0.500000 0
4.158537 -0.500000 0
4.256098 -0.500000 0
4.353659 -0.500000 0
4.451220 -0.500000 0
4.548780 -0.500000 0
4.646341 -0.500000 0
4.743902 -0.500000 0
4.841463 -0.500000 0
4.939024 -0.500000 0
5.036585 -0.500000 0
5.134146 -0.500000 0
5.231707 -0.500000 0
5.329268 -0.500000 0
5.426829 -0.500000 0
5.524390 -0.500000 0
5.621951 -0.500000 0
5.719512 -0.500000 0
5.817073 -0.500000 0
5.914634 -0.500000 0
6.012195 -0.500000 0
6.109756 -0.500000 0
6.207317 -0.500000 0
6.304878 -0.500000 0
6.402439 -0.500000 0
-1.500000 -0.451667 0
-1.402439 -0.451667 0
-1.304878 -0.451667 0
-1.207317 -0.451667 0
-1.109756 -0.451667 0
-1.012195 -0.451667 0
-0.914634 -0.451667 0
-0.817073 -0.451667 0
-0.719512 -0.451667 0
-0.621951 -0.451667 0
-0.524390 -0.451667 0
-0.426829 -0.451667 0
-0.329268 -0.451667 0
-0.231707 -0.451667 0
-0.134146 -0.451667 0
-0.036585 -0.451667 0
0.060976 -0.451667 0
0.158537 -0.451667 0
0.256098 -0.451667 0
0.353659 -0.451667 0
0.451220 -0.451667 0
0.548780 -0.451667 0
0.646341 -0.451667 0
0.743902 -0.451667 0
0.841463 -0.451667 0
0.939024 -0.451667 0
1.036585 -0.451667 0
1.134146 -0.451667 0
1.231707 -0.451667 0
1.329268 -0.451667 0
1.426829 -0.451667 0
1.524390 -0.451667 0
1.621951 -0.451667 0
1.719512 -0.451667 0
1.817073 -0.451667 0
1.914634 -0.451667 0
2.012195 -0.451667 0
2.109756 -0.451667 0
2.207317 -0.451667 0
2.304878 -0.451667 0
2.402439 -0.451667 0
2.500000 -0.451667 0
2.597561 -0.451667 0
2.695122 -0.451667 0
2.792683 -0.451667 0
2.890244 -0.451667 0
2.987805 -0.451667 0
3.085366 -0.451667 0
3.182927 -0.451667 0
3.280488 -0.451667 0
3.378049 -0.451667 0
3.475610 -0.451667 0
3.573171 -0.451667 0
3.670732 -0.451667 0
3.768293 -0.451667 0
3.865854 -0.451667 0
3.963415 -0.451667 0
4.060976 -0.451667 0
4.158537 -0.451667 0
4.256098 -0.451667 0
4.353659 -0.451667 0
4.451220 -0.451667 0
4.548780 -0.451667 0
4.646341 -0.451667 0
4.743902 -0.451667 0
4.841463 -0.451667 0
4.939024 -0.451667 0
5.036585 -0.451667 0
5.134146 -0.451667 0
5.231707 -0.451667 0
5.329268 -0.451667 0
5.426829 -0.451667 0
5.524390 -0.451667 0
5.621951 -0.451667 0
5.719512 -0.451667 0
5.817073 -0.451667 0
5.914634 -0.451667 0
6.012195 -0.451667 0
6.109756 -0.451667 0
6.207317 -0.451667 0
6.304878 -0.451667 0
6.402439 -0.451667 0
-1.500000 -0.403333 0
-1.402439 -0.403333 0
-1.304878 -0.403333 0
-1.207317 -0.403333 0
-1.109756 -0.403333 0
-1.012195 -0.403333 0
-0.914634 -0.403333 0
-0.817073 -0.403333 0
-0.719512 -0.403333 0
-0.621951 -0.403333 0
-0.524390 -0.403333 0
-0.426829 -0.403333 0
-0.329268 -0.403333 0
-0.231707 -0.403333 0
-0.134146 -0.403333 0
-0.036585 -0.403333 0
0.060976 -0.403333 0
0.158537 -0.403333 0
0.256098 -0.403333 0
0.353659 -0.403333 0
0.451220 -0.403333 0
0.548780 -0.403333 0
0.646341 -0.403333 0
0.743902 -0.403333 0
0.841463 -0.403333 0
0.939024 -0.403333 0
1.036585 -0.403333 0
1.134146 -0.403333 0
1.231707 -0.403333 0
1.329268 -0.403333 0
1.426829 -0.403333 0
1.524390 -0.403333 0
1.621951 -0.403333 0
1.719512 -0.403333 0
1.817073 -0.403333 0
1.914634 -0.403333 0
2.012195 -0.403333 0
2.109756 -0.403333 0
2.207317 -0.403333 0
2.304878 -0.403333 0
2.402439 -0.403333 0
2.500000 -0.403333 0
2.597561 -0.403333 0
2.695122 -0.403333 0
2.792683 -0.403333 0
2.890244 -0.403333 0
2.987805 -0.403333 0
3.085366 -0.403333 0
3.182927 -0.403333 0
3.280488 -0.403333 0
3.378049 -0.403333 0
3.475610 -0.403333 0
3.573171 -0.403333 0
3.670732 -0.403333 0
3.768293 -0.403333 0
3.865854 -0.403333 0
3.963415 -0.403333 0
4.060976 -0.403333 0
4.158537 -0.403333 0
4.256098 -0.403333 0
4.353659 -0.403333 0
4.451220 -0.403333 0
4.548780 -0.403333 0
4.646341 -0.403333 0
4.743902 -0.403333 0
4.841463 -0.403333 0
4.939024 -0.403333 0
5.036585 -0.403333 0
5.134146 -0.403333 0
5.231707 -0.403333 0
5.329268 -0.403333 0
5.426829 -0.403333 0
5.524390 -0.403333 0
5.621951 -0.403333 0
5.719512 -0.403333 0
5.817073 -0.403333 0
5.914634 -0.403333 0
6.012195 -0.403333 0
6.109756 -0.403333 0
6.207317 -0.403333 0
6.304878 -0.403333 0
6.402439 -0.403333 0
-1.500000 -0.355000 0
-1.402439 -0.355000 0
-1.304878 -0.355000 0
-1.207317 -0.355000 0
-1.109756 -0.355000 0
-1.012195 -0.355000 0
-0.914634 -0.355000 0
-0.817073 -0.355000 0
-0.719512 -0.355000 0
-0.621951 -0.355000 0
-0.524390 -0.355000 0
-0.426829 -0.355000 0
-0.329268 -0.355000 0
-0.231707 -0.355000 0
-0.134146 -0.355000 0
-0.036585 -0.355000 0
0.060976 -0.355000 0
0.158537 -0.355000 0
0.256098 -0.355000 0
0.353659 -0.355000 0
0.451220 -0.355000 0
0.548780 -0.355000 0
0.646341 -0.355000 0
0.743902 -0.355000 0
0.841463 -0.355000 0
0.939024 -0.355000 0
1.036585 -0.355000 0
1.134146 -0.355000 0
1.231707 -0.355000 0
1.329268 -0.355000 0
1.426829 -0.355000 0
1.524390 -0.355000 0
1.621951 -0.355000 0
1.719512 -0.355000 0
1.817073 -0.355000 0
1.914634 -0.355000 0
2.012195 -0.355000 0
2.109756 -0.355000 0
2.207317 -0.355000 0
2.304878 -0.355000 0
2.402439 -0.355000 0
2.500000 -0.355000 0
2.597561 -0.355000 0
2.695122 -0.355000 0
2.792683 -0.355000 0
2.890244 -0.355000 0
2.987805 -0.355000 0
3.085366 -0.355000 0
3.182927 -0.355000 0
3.280488 -0.355000 0
3.378049 -0.355000 0
3.475610 -0.355000 0
3.573171 -0.355000 0
3.670732 -0.355000 0
3.768293 -0.355000 0
3.865854 -0.355000 0
3.963415 -0.355000 0
4.060976 -0.355000 0
4.158537 -0.355000 0
4.256098 -0.355000 0
4.353659 -0.355000 0
4.451220 -0.355000 0
4.548780 -0.355000 0
4.646341 -0.355000 0
4.743902 -0.355000 0
4.841463 -0.355000 0
4.939024 -0.355000 0
5.036585 -0.355000 0
5.134146 -0.355000 0
5.231707 -0.355000 0
5.329268 -0.355000 0
5.426829 -0.355000 0
5.524390 -0.355000 0
5.621951 -0.355000 0
5.719512 -0.355000 0
5.817073 -0.355000 0
5.914634 -0.355000 0
6.012195 -0.355000 0
6.109756 -0.355000 0
6.207317 -0.355000 0
6.304878 -0.355000 0
6.402439 -0.355000 0
-1.500000 -0.306667 0
-1.402439 -0.306667 0
-1.304878 -0.306667 0
-1.207317 -0.306667 0
-1.109756 -0.306667 0
-1.012195 -0.306667 0
-0.914634 -0.306667 0
-0.817073 -0.306667 0
-0.719512 -0.306667 0
-0.621951 -0.306667 0
-0.524390 -0.306667 0
-0.426829 -0.306667 0
-0.329268 -0.306667 0
-0.231707 -0.306667 0
-0.134146 -0.306667 0
-0.036585 -0.306667 0
0.060976 -0.306667 0
0.158537 -0.306667 0
0.256098 -0.306667 0
0.353659 -0.306667 0
0.451220 -0.306667 0
0.548780 -0.306667 0
0.646341 -0.306667 0
0.743902 -0.306667 0
0.841463 -0.306667 0
0.939024 -0.306667 0
1.036585 -0.306667 0
1.134146 -0.306667 0
1.231707 -0.306667 0
1.329268 -0.306667 0
1.426829 -0.306667 0
1.524390 -0.306667 0
1.621951 -0.306667 0
1.719512 -0.306667 0
1.817073 -0.306667 0
1.914634 -0.306667 0
2.012195 -0.306667 0
2.109756 -0.306667 0
2.207317 -0.306667 0
2.304878 -0.306667 0
2.402439 -0.306667 0
2.500000 -0.306667 0
2.597561 -0.306667 0
2.695122 -0.306667 0
2.792683 -0.306667 0
2.890244 -0.306667 0
2.987805 -0.306667 0
3.085366 -0.306667 0
3.182927 -0.306667 0
3.280488 -0.306667 0
3.378049 -0.306667 0
3.475610 -0.306667 0
3.573171 -0.306667 0
3.670732 -0.306667 0
3.768293 -0.306667 0
3.865854 -0.306667 0
3.963415 -0.306667 0
4.060976 -0.306667 0
4.158537 -0.306667 0
4.256098 -0.306667 0
4.353659 -0.306667 0
4.451220 -0.306667 0
4.548780 -0.306667 0
4.646341 -0.306667 0
4.743902 -0.306667 0
4.841463 -0.306667 0
4.939024 -0.306667 0
5.036585 -0.306667 0
5.134146 -0.306667 0
5.231707 -0.306667 0
5.329268 -0.306667 0
5.426829 -0.306667 0
5.524390 -0.306667 0
5.621951 -0.306667 0
5.719512 -0.306667 0
5.817073 -0.306667 0
5.914634 -0.306667 0
6.012195 -0.306667 0
6.109756 -0.306667 0
6.207317 -0.306667 0
6.304878 -0.306667 0
6.402439 -0.306667 0
-1.500000 -0.258333 0
-1.402439 -0.258333 0
-1.304878 -0.258333 0
-1.207317 -0.258333 0
-1.109756 -0.258333 0
-1.012195 -0.258333 0
-0.914634 -0.258333 0
-0.817073 -0.258333 0
-0.719512 -0.258333 0
-0.621951 -0.258333 0
-0.524390 -0.258333 0
-0.426829 -0.258333 0
-0.329268 -0.258333 0
-0.231707 -0.258333 0
-0.134146 -0.258333 0
-0.036585 -0.258333 0
0.060976 -0.258333 0
0.158537 -0.258333 0
0.256098 -0.258333 0
0.353659 -0.258333 0
0.451220 -0.258333 0
0.548780 -0.258333 0
0.646341 -0.258333 0
0.743902 -0.258333 0
0.841463 -0.258333 0
0.939024 -0.258333 0
1.036585 -0.258333 0
1.134146 -0.258333 0
1.231707 -0.258333 0
1.329268 -0.258333 0
1.426829 -0.258333 0
1.524390 -0.258333 0
1.621951 -0.258333 0
1.719512 -0.258333 0
1.817073 -0.258333 0
1.914634 -0.258333 0
2.012195 -0.258333 0
2.109756 -0.258333 0
2.207317 -0.258333 0
2.304878 -0.258333 0
2.402439 -0.258333 0
2.500000 -0.258333 0
2.597561 -0.258333 0
2.695122 -0.258333 0
2.792683 -0.258333 0
2.890244 -0.258333 0
2.987805 -0.258333 0
3.085366 -0.258333 0
3.182927 -0.258333 0
3.280488 -0.258333 0
3.378049 -0.258333 0
3.475610 -0.258333 0
3.573171 -0.258333 0
[...]
POINT_DATA 4920 

VECTORS velocity float
0.000000 0.000000 0
0.000000 0.000000 0
0.000000 0.000000 0
0.000000 0.000000 0
0.000000 0.000000 0
0.000000 0.000000 0
0.000000 0.000000 0
0.000000 0.000000 0
0.000000 0.000000 0
0.000000 0.000000 0
0.000000 0.000000 0
0.000000 0.000000 0
0.000000 0.000000 0
0.000000 0.000000 0
0.000000 0.000000 0
0.000000 0.000000 0
0.000000 0.000000 0
0.000000 0.000000 0
0.000000 0.000000 0
0.000000 0.000000 0
0.000000 0.000000 0
0.000000 0.000000 0
0.000000 0.000000 0
0.000000 0.000000 0
0.000000 0.000000 0
0.000000 0.000000 0
0.000000 0.000000 0
0.000000 0.000000 0
0.000000 0.000000 0
0.000000 0.000000 0
0.000000 0.000000 0
0.000000 0.000000 0
0.000000 0.000000 0
0.000000 0.000000 0
0.000000 0.000000 0
0.000000 0.000000 0
0.000000 0.000000 0
0.000000 0.000000 0
0.000000 0.000000 0
0.000000 0.000000 0
0.000000 0.000000 0
0.000000 0.000000 0
0.000000 0.000000 0
0.000000 0.000000 0
0.000000 0.000000 0
0.000000 0.000000 0
0.000000 0.000000 0
0.000000 0.000000 0
0.000000 0.000000 0
0.000000 0.000000 0
0.000000 0.000000 0
0.000000 0.000000 0
0.000000 0.000000 0
0.000000 0.000000 0
0.000000 0.000000 0
0.000000 0.000000 0
0.000000 0.000000 0
0.001916 0.000000 0
0.000000 0.000000 0
0.000000 0.000000 0
0.000000 0.000000 0
0.000000 0.000000 0
0.000000 0.000000 0
0.000000 0.000000 0
0.000000 0.000000 0
0.000000 0.000000 0
0.000000 0.000000 0
0.000000 0.000000 0
0.000000 0.000000 0
0.000000 0.000000 0
0.000000 0.000000 0
0.000000 0.000000 0
0.000000 0.000000 0
0.000000 0.000000 0
0.000000 0.000000 0
0.000000 0.000000 0
0.000000 0.000000 0
0.000000 0.000000 0
0.000000 0.000000 0
0.000000 0.000000 0
0.000000 0.000000 0
0.000000 0.000000 0
0.000000 0.000000 0
0.000000 0.000000 0
0.000000 0.000000 0
0.000000 0.000000 0
0.000000 0.000000 0
0.000000 0.000000 0
0.000000 0.000000 0
0.000000 0.000000 0
0.000000 0.000000 0
0.000000 0.000000 0
0.000000 0.000000 0
0.000000 0.000000 0
0.000000 0.000000 0
0.000000 0.000000 0
1.046387 -0.422526 0
2.518286 -0.738203 0
3.779754 -0.505135 0
4.622758 -0.265393 0
5.056205 -0.070114 0
5.167160 0.061936 0
5.063266 0.139739 0
4.829780 0.177744 0
4.530838 0.186512 0
4.213324 0.175013 0
3.909531 0.151125 0
3.639238 0.121587 0
3.411884 0.091701 0
3.229056 0.065048 0
3.087158 0.043474 0
2.979870 0.027387 0
2.900048 0.016252 0
2.840950 0.009091 0
2.796849 0.004848 0
2.763220 0.002598 0
2.736673 0.001620 0
2.714770 0.001399 0
2.695818 0.001593 0
2.678658 0.001995 0
2.662497 0.002492 0
2.646759 0.003043 0
2.630968 0.003653 0
2.614654 0.004369 0
2.597259 0.005267 0
2.578055 0.006459 0
2.556043 0.008094 0
2.529833 0.010375 0
2.497487 0.013567 0
2.456317 0.018021 0
2.402618 0.024184 0
2.331341 0.032601 0
2.235720 0.043877 0
2.106928 0.058492 0
1.934118 0.076507 0
1.704867 0.096430 0
1.409337 0.115113 0
1.038652 0.130690 0
0.616615 0.068839 0
0.000000 0.000000 0
-0.001571 0.000000 0
0.000000 0.000000 0
0.000000 0.000000 0
0.000000 0.000000 0
0.000000 0.000000 0
0.000000 0.000000 0
0.000000 0.000000 0
0.000000 0.000000 0
0.000000 0.000000 0
0.000000 0.000000 0
0.000000 0.000000 0
0.000000 0.000000 0
0.000000 0.000000 0
0.000000 0.000000 0
0.000000 0.000000 0
0.000000 0.000000 0
0.000000 0.000000 0
0.000000 0.000000 0
0.000000 0.000000 0
0.000000 0.000000 0
0.000000 0.000000 0
0.000000 0.000000 0
0.000000 0.000000 0
0.000000 0.000000 0
0.000000 0.000000 0
0.000000 0.000000 0
0.000000 0.000000 0
0.000000 0.000000 0
0.000000 0.000000 0
0.000000 0.000000 0
0.000000 0.000000 0
0.000000 0.000000 0
0.000000 0.000000 0
0.000000 0.000000 0
0.000000 0.000000 0
0.000000 0.000000 0
0.000000 0.000000 0
1.159598 -0.516992 0
2.653730 -1.245988 0
3.828560 -1.353949 0
5.002518 -1.042591 0
5.863897 -0.632375 0
6.390946 -0.269706 0
6.647086 -0.003498 0
6.706823 0.167144 0
6.638295 0.263774 0
6.491016 0.305402 0
6.301162 0.307806 0
6.094793 0.284412 0
5.890022 0.246542 0
5.698629 0.203211 0
5.527352 0.160875 0
5.379033 0.123451 0
5.253684 0.092698 0
5.149469 0.068823 0
5.063545 0.051127 0
4.992731 0.038509 0
4.933945 0.029813 0
4.884470 0.024003 0
4.842046 0.020240 0
4.804872 0.017890 0
4.771549 0.016508 0
4.740988 0.015803 0
4.712319 0.015620 0
4.684793 0.015905 0
4.657693 0.016700 0
4.630242 0.018132 0
4.601502 0.020419 0
4.570263 0.023890 0
4.534894 0.029010 0
4.493158 0.036421 0
4.441953 0.047000 0
4.376963 0.061915 0
4.292187 0.082684 0
4.179300 0.111178 0
4.026859 0.149419 0
3.819375 0.199188 0
3.536676 0.259986 0
3.154505 0.330054 0
2.647156 0.392219 0
2.014755 0.512257 0
1.050671 0.303682 0
0.000000 0.000000 0
-0.004729 0.000000 0
0.000000 0.000000 0
0.000000 0.000000 0
0.000000 0.000000 0
0.000000 0.000000 0
0.000000 0.000000 0
0.000000 0.000000 0
0.000000 0.000000 0
0.000000 0.000000 0
0.000000 0.000000 0
0.000000 0.000000 0
0.000000 0.000000 0
0.000000 0.000000 0
0.000000 0.000000 0
0.000000 0.000000 0
0.000000 0.000000 0
0.000000 0.000000 0
0.000000 0.000000 0
0.000000 0.000000 0
0.000000 0.000000 0
0.000000 0.000000 0
0.000000 0.000000 0
0.000000 0.000000 0
0.000000 0.000000 0
0.000000 0.000000 0
0.000000 0.000000 0
0.000000 0.000000 0
0.000000 0.000000 0
0.000000 0.000000 0
0.000000 0.000000 0
0.000000 0.000000 0
0.000000 0.000000 0
0.000000 0.000000 0
0.000000 0.000000 0
0.000000 0.000000 0
0.936082 -0.582529 0
2.634548 -1.321341 0
3.462264 -1.743369 0
4.644908 -1.901832 0
5.708286 -1.513475 0
6.431377 -0.953243 0
6.856220 -0.458119 0
7.079407 -0.094555 0
7.167517 0.144094 0
7.169378 0.284659 0
7.118187 0.353533 0
7.036169 0.371309 0
6.938186 0.354811 0
6.834332 0.317854 0
6.731568 0.271374 0
6.634582 0.223381 0
6.546227 0.179054 0
6.467816 0.141117 0
6.399452 0.110450 0
6.340405 0.086741 0
6.289471 0.069054 0
6.245285 0.056232 0
6.206517 0.047149 0
6.171994 0.040833 0
6.140734 0.036519 0
6.111942 0.033644 0
6.084976 0.031836 0
6.059296 0.030883 0
6.034413 0.030716 0
6.009829 0.031394 0
5.984977 0.033105 0
5.959147 0.036173 0
5.931399 0.041093 0
5.900444 0.048574 0
5.864486 0.059612 0
5.820996 0.075585 0
5.766388 0.098380 0
5.695548 0.130527 0
5.601124 0.175325 0
5.472503 0.236805 0
5.294163 0.319352 0
5.043995 0.425818 0
4.690147 0.555796 0
4.200085 0.695341 0
3.530235 0.856031 0
2.831551 0.996804 0
1.343122 0.522914 0
0.000000 0.000000 0
-0.005822 0.000000 0
0.000000 0.000000 0
0.000000 0.000000 0
0.000000 0.000000 0
0.000000 0.000000 0
0.000000 0.000000 0
0.000000 0.000000 0
0.000000 0.000000 0
0.000000 0.000000 0
0.000000 0.000000 0
0.000000 0.000000 0
0.000000 0.000000 0
0.000000 0.000000 0
0.000000 0.000000 0
0.000000 0.000000 0
0.000000 0.000000 0
0.000000 0.000000 0
0.000000 0.000000 0
0.000000 0.000000 0
0.000000 0.000000 0
0.000000 0.000000 0
0.000000 0.000000 0
0.000000 0.000000 0
0.000000 0.000000 0
0.000000 0.000000 0
0.000000 0.000000 0
0.000000 0.000000 0
0.000000 0.000000 0
0.000000 0.000000 0
0.000000 0.000000 0
0.000000 0.000000 0
0.000000 0.000000 0
0.000000 0.000000 0
0.738368 -0.467373 0
2.144334 -1.316866 0
3.090244 -1.776549 0
3.864709 -2.241954 0
5.207711 -2.466665 0
6.163267 -1.927637 0
6.688705 -1.201081 0
6.946478 -0.590751 0
7.065126 -0.157720 0
7.111639 0.122571 0
7.115640 0.288213 0
7.097492 0.371396 0
7.068630 0.396982 0
7.034785 0.384405 0
6.998723 0.348904 0
6.962058 0.302170 0
6.926066 0.252696 0
6.891858 0.206070 0
6.860277 0.165412 0
6.831798 0.131945 0
6.806517 0.105613 0
6.784229 0.085633 0
6.764550 0.070909 0
6.747018 0.060313 0
6.731179 0.052831 0
6.716626 0.047641 0
6.703013 0.044131 0
6.690054 0.041885 0
6.677500 0.040670 0
6.665123 0.040412 0
6.652680 0.041191 0
6.639885 0.043240 0
6.626365 0.046962 0
6.611608 0.052973 0
6.594891 0.062160 0
6.575175 0.075781 0
6.550952 0.095599 0
6.520004 0.124064 0
6.479031 0.164558 0
6.423009 0.221678 0
6.344125 0.301492 0
6.229770 0.411478 0
6.059529 0.559225 0
5.799670 0.748141 0
5.406816 0.966858 0
4.837839 1.190252 0
4.167821 1.389437 0
3.377819 1.410107 0
1.500969 0.670492 0
0.000000 0.000000 0
-0.005276 0.000000 0
0.000000 0.000000 0
0.000000 0.000000 0
0.000000 0.000000 0
0.000000 0.000000 0
0.000000 0.000000 0
0.000000 0.000000 0
0.000000 0.000000 0
0.000000 0.000000 0
0.000000 0.000000 0
0.000000 0.000000 0
0.000000 0.000000 0
0.000000 0.000000 0
0.000000 0.000000 0
0.000000 0.000000 0
0.000000 0.000000 0
0.000000 0.000000 0
0.000000 0.000000 0
0.000000 0.000000 0
0.000000 0.000000 0
0.000000 0.000000 0
0.000000 0.000000 0
0.000000 0.000000 0
0.000000 0.000000 0
0.000000 0.000000 0
0.000000 0.000000 0
0.000000 0.000000 0
0.000000 0.000000 0
0.000000 0.000000 0
0.000000 0.000000 0
0.000000 0.000000 0
0.536157 -0.369272 0
1.698510 -1.069432 0
2.545172 -1.751309 0
3.300629 -2.173644 0
4.126478 -2.792398 0
5.618995 -3.040576 0
6.351983 -2.247184 0
6.584651 -1.341259 0
6.618087 -0.644604 0
6.605888 -0.176378 0
6.591110 0.119069 0
6.581033 0.291667 0
6.579778 0.376822 0
6.586731 0.402375 0
6.598981 0.389444 0
6.613102 0.353884 0
6.626422 0.307369 0
6.637468 0.258160 0
6.645832 0.211647 0
6.651793 0.170872 0
6.655929 0.137084 0
6.658846 0.110308 0
6.661038 0.089845 0
6.662853 0.074667 0
6.664500 0.063681 0
6.666092 0.055890 0
6.667677 0.050472 0
6.669265 0.046808 0
6.670848 0.044475 0
6.672405 0.043234 0
6.673916 0.043012 0
6.675355 0.043898 0
6.676692 0.046142 0
6.677886 0.050182 0
6.678874 0.056686 0
6.679554 0.066623 0
6.679750 0.081380 0
6.679155 0.102918 0
6.677219 0.134011 0
6.672938 0.178580 0
6.664416 0.242160 0
6.647977 0.332539 0
6.616138 0.460345 0
6.553522 0.638897 0
6.428340 0.879161 0
6.184222 1.171848 0
5.772498 1.469850 0
5.221651 1.720122 0
4.581852 1.852325 0
3.671045 1.686780 0
1.556466 0.748749 0
-0.000000 0.000000 0
-0.003982 0.000000 0
0.000000 0.000000 0
0.000000 0.000000 0
0.000000 0.000000 0
0.000000 0.000000 0
0.000000 0.000000 0
0.000000 0.000000 0
0.000000 0.000000 0
0.000000 0.000000 0
0.000000 0.000000 0
0.000000 0.000000 0
0.000000 0.000000 0
0.000000 0.000000 0
0.000000 0.000000 0
0.000000 0.000000 0
0.000000 0.000000 0
0.000000 0.000000 0
0.000000 0.000000 0
0.000000 0.000000 0
0.000000 0.000000 0
0.000000 0.000000 0
0.000000 0.000000 0
0.000000 0.000000 0
0.000000 0.000000 0
0.000000 0.000000 0
0.000000 0.000000 0
0.000000 0.000000 0
0.000000 0.000000 0
0.000000 0.000000 0
0.376454 -0.266952 0
1.297276 -0.846272 0
2.061382 -1.466144 0
2.754303 -2.110582 0
3.394889 -2.559955 0
4.280901 -3.390511 0
5.831046 -3.569217 0
6.151730 -2.406039 0
5.981600 -1.332913 0
5.742810 -0.601272 0
5.590332 -0.144355 0
5.514208 0.134885 0
5.501214 0.293827 0
5.531505 0.368573 0
5.587262 0.387468 0
5.654988 0.371341 0
5.724964 0.335309 0
5.791020 0.290099 0
5.849906 0.243080 0
5.900526 0.198973 0
5.943164 0.160410 0
5.978835 0.128451 0
6.008816 0.103082 0
6.034357 0.083647 0
6.056544 0.069195 0
6.076249 0.058708 0
6.094140 0.051256 0
6.110715 0.046069 0
6.126340 0.042560 0
6.141288 0.040330 0
6.155778 0.039150 0
6.170003 0.038951 0
6.184165 0.039816 0
6.198498 0.041986 0
6.213302 0.045881 0
6.228973 0.052146 0
6.246047 0.061726 0
6.265242 0.075979 0
6.287513 0.096853 0
6.314091 0.127144 0
6.346493 0.170901 0
6.386402 0.234044 0
6.435203 0.325410 0
6.492419 0.458273 0
6.551322 0.652263 0
6.587290 0.931098 0
6.526563 1.291774 0
6.297205 1.667126 0
5.922257 1.979303 0
5.433632 2.178303 0
4.793856 2.179689 0
3.768377 1.832978 0
1.542472 0.775009 0
-0.000000 0.000000 0
-0.002624 0.000000 0
0.000000 0.000000 0
0.000000 0.000000 0
0.000000 0.000000 0
0.000000 0.000000 0
0.000000 0.000000 0
0.000000 0.000000 0
0.000000 0.000000 0
0.000000 0.000000 0
0.000000 0.000000 0
0.000000 0.000000 0
0.000000 0.000000 0
0.000000 0.000000 0
0.000000 0.000000 0
0.000000 0.000000 0
0.000000 0.000000 0
0.000000 0.000000 0
0.000000 0.000000 0
0.000000 0.000000 0
0.000000 0.000000 0
0.000000 0.000000 0
0.000000 0.000000 0
0.000000 0.000000 0
0.000000 0.000000 0
0.000000 0.000000 0
0.000000 0.000000 0
0.000000 0.000000 0
0.267960 -0.186449 0
0.995865 -0.643970 0
1.702389 -1.205344 0
2.319848 -1.791268 0
2.880633 -2.411950 0
3.395796 -2.929946 0
4.284489 -3.999310 0
5.744148 -3.967415 0
5.401676 -2.321771 0
4.738454 -1.138673 0
4.209754 -0.450764 0
3.920694 -0.063125 0
3.816954 0.163219 0
3.848377 0.283098 0
3.954305 0.334193 0
4.094242 0.341200 0
4.244125 0.321225 0
4.389359 0.286491 0
4.521983 0.245471 0
4.638467 0.203908 0
4.738161 0.165445 0
4.822148 0.132076 0
4.892408 0.104559 0
4.951229 0.082801 0
5.000845 0.066200 0
5.043244 0.053913 0
5.080094 0.045055 0
5.112735 0.038815 0
5.142220 0.034520 0
5.169364 0.031662 0
5.194807 0.029891 0
5.219075 0.029008 0
5.242634 0.028948 0
5.265955 0.029781 0
5.289566 0.031707 0
5.314122 0.035085 0
5.340484 0.040464 0
5.369815 0.048655 0
5.403709 0.060837 0
5.444357 0.078718 0
5.494760 0.104791 0
5.558997 0.142755 0
5.642516 0.198212 0
5.752323 0.280016 0
5.896706 0.402818 0
6.081436 0.591896 0
6.300949 0.891427 0
6.455776 1.315561 0
6.420509 1.769233 0
6.248586 2.147951 0
5.949010 2.411354 0
5.510366 2.511775 0
4.840990 2.368947 0
3.728350 1.878761 0
1.486137 0.766603 0
-0.000000 0.000000 0
-0.001607 0.000000 0
0.000000 0.000000 0
0.000000 0.000000 0
0.000000 0.000000 0
0.000000 0.000000 0
0.000000 0.000000 0
0.000000 0.000000 0
0.000000 0.000000 0
0.000000 0.000000 0
0.000000 0.000000 0
0.000000 0.000000 0
0.000000 0.000000 0
0.000000 0.000000 0
0.000000 0.000000 0
0.000000 0.000000 0
0.000000 0.000000 0
0.000000 0.000000 0
0.000000 0.000000 0
0.000000 0.000000 0
0.000000 0.000000 0
0.000000 0.000000 0
0.000000 0.000000 0
0.000000 0.000000 0
0.000000 0.000000 0
0.000000 0.000000 0
0.209241 -0.131860 0
0.805417 -0.492424 0
1.468487 -0.977540 0
2.052793 -1.502195 0
2.535343 -2.049865 0
2.939327 -2.643625 0
3.298293 -3.255448 0
4.068832 -4.553924 0
5.219349 -4.122690 0
3.916914 -1.907801 0
2.775390 -0.742416 0
2.002263 -0.196141 0
1.719042 0.050245 0
1.749729 0.170712 0
1.910281 0.225781 0
2.129605 0.246768 0
2.368933 0.243887 0
2.605247 0.225135 0
2.823903 0.197654 0
3.017586 0.166687 0
3.183775 0.135982 0
3.323027 0.107975 0
3.437746 0.083993 0
3.531280 0.064502 0
3.607265 0.049360 0
3.669204 0.038061 0
3.720220 0.029933 0
3.762948 0.024281 0
3.799518 0.020478 0
3.831601 0.018014 0
3.860481 0.016508 0
3.887150 0.015702 0
3.912399 0.015455 0
3.936908 0.015725 0
3.961344 0.016566 0
3.986444 0.018123 0
4.013124 0.020656 0
4.042589 0.024555 0
4.076492 0.030403 0
4.117130 0.039050 0
4.167724 0.051745 0
4.232805 0.070349 0
4.318758 0.097700 0
4.434623 0.138267 0
4.593098 0.199480 0
4.812833 0.295225 0
5.115709 0.451994 0
5.542423 0.745644 0
5.974407 1.232542 0
6.149561 1.769771 0
6.206422 2.212892 0
6.129609 2.544030 0
5.899974 2.728621 0
5.477261 2.715818 0
4.765809 2.444082 0
3.602199 1.855321 0
1.410352 0.737468 0
-0.000000 0.000000 0
-0.001119 0.000000 0
0.000000 0.000000 0
0.000000 0.000000 0
0.000000 0.000000 0
0.000000 0.000000 0
0.000000 0.000000 0
0.000000 0.000000 0
0.000000 0.000000 0
0.000000 0.000000 0
0.000000 0.000000 0
0.000000 0.000000 0
0.000000 0.000000 0
0.000000 0.000000 0
0.000000 0.000000 0
0.000000 0.000000 0
0.000000 0.000000 0
0.000000 0.000000 0
0.000000 0.000000 0
0.000000 0.000000 0
0.000000 0.000000 0
0.000000 0.000000 0
0.000000 0.000000 0
0.000000 0.000000 0
0.195335 -0.102298 0
0.724332 -0.396762 0
1.360449 -0.809409 0
1.928510 -1.261941 0
2.381645 -1.733882 0
2.709884 -2.230472 0
2.935096 -2.789928 0
3.101472 -3.489521 0
3.571628 -4.951034 0
4.021270 -3.892153 0
1.556812 -1.110993 0
0.421271 -0.190123 0
0.058244 0.072569 0
0.025360 0.061985 0
0.159663 0.068476 0
0.369943 0.094901 0
0.615402 0.106969 0
0.868044 0.105559 0
1.107688 0.095825 0
1.322479 0.082211 0
1.506653 0.067184 0
1.658936 0.052588 0
1.781132 0.039624 0
1.876884 0.028904 0
1.950673 0.020576 0
2.007082 0.014471 0
2.050307 0.010240 0
2.083909 0.007471 0
2.110727 0.005770 0
2.132920 0.004803 0
2.152063 0.004318 0
2.169282 0.004142 0
2.185383 0.004171 0
2.200977 0.004357 0
2.216580 0.004700 0
2.232718 0.005240 0
2.250017 0.006054 0
2.269301 0.007270 0
2.291710 0.009070 0
2.318865 0.011726 0
2.353079 0.015639 0
2.397687 0.021410 0
2.457526 0.029966 0
2.539688 0.042772 0
2.654735 0.062299 0
2.818780 0.092645 0
3.057387 0.143908 0
3.414693 0.230445 0
3.969738 0.466014 0
4.891993 1.014775 0
5.375887 1.654289 0
5.755307 2.157835 0
5.964731 2.563173 0
5.981428 2.834959 0
5.791381 2.930831 0
5.358273 2.807698 0
4.611624 2.433436 0
3.436578 1.789465 0
1.336679 0.699104 0
-0.000000 0.000000 0
-0.001281 0.000000 0
0.000000 0.000000 0
0.000000 0.000000 0
0.000000 0.000000 0
0.000000 0.000000 0
0.000000 0.000000 0
0.000000 0.000000 0
0.000000 0.000000 0
0.000000 0.000000 0
0.000000 0.000000 0
0.000000 0.000000 0
0.000000 0.000000 0
0.000000 0.000000 0
0.000000 0.000000 0
0.000000 0.000000 0
0.000000 0.000000 0
0.000000 0.000000 0
0.000000 0.000000 0
0.000000 0.000000 0
0.000000 0.000000 0
0.000000 0.000000 0
0.225160 -0.095083 0
0.751073 -0.355794 0
1.380109 -0.707714 0
1.940936 -1.088994 0
2.380128 -1.483457 0
2.678991 -1.889301 0
2.838732 -2.324054 0
2.878009 -2.837624 0
2.824771 -3.570797 0
2.796838 -5.009607 0
1.634868 -3.000215 0
0.000000 0.000000 0
0.000000 0.000000 0
0.000000 0.000000 0
0.000000 0.000000 0
0.000000 0.000000 0
0.000000 0.000000 0
0.000000 0.000000 0
0.000000 0.000000 0
0.000000 0.000000 0
0.000000 0.000000 0
0.000000 0.000000 0
0.000000 0.000000 0
0.000000 0.000000 0
0.000000 0.000000 0
0.000000 0.000000 0
0.000000 0.000000 0
0.000000 0.000000 0
0.000000 0.000000 0
0.000000 0.000000 0
0.000000 0.000000 0
0.000000 0.000000 0
0.000000 0.000000 0
0.000000 0.000000 0
0.000000 0.000000 0
0.000000 0.000000 0
0.000000 0.000000 0
0.000000 0.000000 0
0.000000 0.000000 0
0.000000 0.000000 0
0.000000 0.000000 0
0.000000 0.000000 0
0.000000 0.000000 0
0.000000 0.000000 0
0.000000 0.000000 0
0.000000 0.000000 0
0.000000 0.000000 0
0.000000 0.000000 0
0.000000 0.000000 0
0.000000 0.000000 0
2.077793 0.522147 0
3.746250 1.342071 0
4.737943 1.921169 0
5.378384 2.432005 0
5.723885 2.814501 0
5.801827 3.024540 0
5.624339 3.028554 0
5.176842 2.807361 0
4.419286 2.362418 0
3.273373 1.705004 0
1.282576 0.662191 0
-0.000000 0.000000 0
-0.002109 0.000000 0
0.000000 0.000000 0
0.000000 0.000000 0
0.000000 0.000000 0
0.000000 0.000000 0
0.000000 0.000000 0
0.000000 0.000000 0
0.000000 0.000000 0
0.000000 0.000000 0
0.000000 0.000000 0
0.000000 0.000000 0
0.000000 0.000000 0
0.000000 0.000000 0
0.000000 0.000000 0
0.000000 0.000000 0
0.000000 0.000000 0
0.000000 0.000000 0
0.000000 0.000000 0
0.000000 0.000000 0
0.308930 -0.109497 0
0.897274 -0.368353 0
1.541424 -0.672790 0
2.095976 -0.986240 0
2.519493 -1.304835 0
2.796880 -1.627586 0
2.926817 -1.961083 0
2.918664 -2.329069 0
2.785014 -2.783012 0
2.522197 -3.449308 0
2.017709 -4.378561 0
0.037591 -0.000000 0
-0.073598 2.449221 0
0.383988 0.000000 0
0.310166 0.000000 0
0.237507 0.000000 0
0.185050 0.000000 0
0.099288 0.000000 0
-0.006508 0.000000 0
-0.116629 0.000000 0
-0.219579 0.000000 0
-0.310052 0.000000 0
-0.385523 0.000000 0
-0.445663 0.000000 0
-0.491673 0.000000 0
-0.525644 0.000000 0
-0.550015 0.000000 0
-0.567177 0.000000 0
-0.579226 0.000000 0
-0.587847 0.000000 0
-0.594306 0.000000 0
-0.599493 0.000000 0
-0.604001 0.000000 0
-0.608209 0.000000 0
-0.612361 0.000000 0
-0.616628 0.000000 0
-0.621156 0.000000 0
-0.626115 0.000000 0
-0.631732 0.000000 0
-0.638336 0.000000 0
-0.646406 0.000000 0
-0.656643 0.000000 0
-0.670075 0.000000 0
-0.688211 0.000000 0
-0.713291 0.000000 0
-0.748697 0.000000 0
-0.799626 0.000000 0
-0.874448 0.000000 0
-0.986630 0.000000 0
-1.164927 0.000000 0
-1.451784 0.132327 0
0.000000 -0.000001 0
1.708628 0.339785 0
3.310636 1.349249 0
4.417291 2.074721 0
5.135237 2.625179 0
5.514748 2.980148 0
5.600655 3.117326 0
5.418443 3.030439 0
4.968741 2.732475 0
4.232403 2.254411 0
3.152396 1.623034 0
1.265939 0.635431 0
-0.000000 0.000000 0
-0.003820 0.000000 0
0.000000 0.000000 0
0.000000 0.000000 0
0.000000 0.000000 0
0.000000 0.000000 0
0.000000 0.000000 0
0.000000 0.000000 0
0.000000 0.000000 0
0.000000 0.000000 0
0.000000 0.000000 0
0.000000 0.000000 0
0.000000 0.000000 0
0.000000 0.000000 0
0.000000 0.000000 0
0.000000 0.000000 0
0.000000 0.000000 0
0.000000 0.000000 0
0.482550 -0.150468 0
1.207475 -0.439892 0