# vtk DataFile Version 2.0
generated by CFD-lab course output (written by Tobias Neckel) 
ASCII

DATASET STRUCTURED_GRID
DIMENSIONS  82 60 1 
POINTS 4920 float

-1.500000 -0.500000 0
-1.402439 -0.500000 0
-1.304878 -0.500000 0
-1.207317 -0.500000 0
-1.109756 -0.500000 0
-1.012195 -0.500000 0
-0.914634 -0.500000 0
-0.817073 -0.500000 0
-0.719512 -0.500000 0
-0.621951 -0.500000 0
-0.524390 -0.500000 0
-0.426829 -0.500000 0
-0.329268 -0.500000 0
-0.231707 -0.500000 0
-0.134146 -0.500000 0
-0.036585 -0.500000 0
0.060976 -0.500000 0
0.158537 -0.500000 0
0.256098 -0.500000 0
0.353659 -0.500000 0
0.451220 -0.500000 0
0.548780 -0.500000 0
0.646341 -0.500000 0
0.743902 -0.500000 0
0.841463 -0.500000 0
0.939024 -0.500000 0
1.036585 -0.500000 0
1.134146 -0.500000 0
1.231707 -0.500000 0
1.329268 -0.500000 0
1.426829 -0.500000 0
1.524390 -0.500000 0
1.621951 -0.500000 0
1.719512 -0.500000 0
1.817073 -0.500000 0
1.914634 -0.500000 0
2.012195 -0.500000 0
2.109756 -0.500000 0
2.207317 -0.500000 0
2.304878 -0.500000 0
2.402439 -0.500000 0
2.500000 -0.500000 0
2.597561 -0.500000 0
2.695122 -0.500000 0
2.792683 -0.500000 0
2.890244 -0.500000 0
2.987805 -0.500000 0
3.085366 -0.500000 0
3.182927 -0.500000 0
3.280488 -0.500000 0
3.378049 -0.500000 0
3.475610 -0.500000 0
3.573171 -0.500000 0
3.670732 -0.500000 0
3.768293 -0.500000 0
3.865854 -0.500000 0
3.963415 -0.500000 0
4.060976 -0.500000 0
4.158537 -0.500000 0
4.256098 -0.500000 0
4.353659 -0.500000 0
4.451220 -0.500000 0
4.548780 -0.500000 0
4.646341 -0.500000 0
4.743902 -0.500000 0
4.841463 -0.500000 0
4.939024 -0.500000 0
5.036585 -0.500000 0
5.134146 -0.500000 0
5.231707 -0.500000 0
5.329268 -0.500000 0
5.426829 -0.500000 0
5.524390 -0.500000 0
5.621951 -0.500000 0
5.719512 -0.500000 0
5.817073 -0.500000 0
5.914634 -0.500000 0
6.012195 -0.500000 0
6.109756 -0.500000 0
6.207317 -0.500000 0
6.304878 -0.500000 0
6.402439 -0.500000 0
-1.500000 -0.451667 0
-1.402439 -0.451667 0
-1.304878 -0.451667 0
-1.207317 -0.451667 0
-1.109756 -0.451667 0
-1.012195 -0.451667 0
-0.914634 -0.451667 0
-0.817073 -0.451667 0
-0.719512 -0.451667 0
-0.621951 -0.451667 0
-0.524390 -0.451667 0
-0.426829 -0.451667 0
-0.329268 -0.451667 0
-0.231707 -0.451667 0
-0.134146 -0.451667 0
-0.036585 -0.451667 0
0.060976 -0.451667 0
0.158537 -0.451667 0
0.256098 -0.451667 0
0.353659 -0.451667 0
0.451220 -0.451667 0
0.548780 -0.451667 0
0.646341 -0.451667 0
0.743902 -0.451667 0
0.841463 -0.451667 0
0.939024 -0.451667 0
1.036585 -0.451667 0
1.134146 -0.451667 0
1.231707 -0.451667 0
1.329268 -0.451667 0
1.426829 -0.451667 0
1.524390 -0.451667 0
1.621951 -0.451667 0
1.719512 -0.451667 0
1.817073 -0.451667 0
1.914634 -0.451667 0
2.012195 -0.451667 0
2.109756 -0.451667 0
2.207317 -0.451667 0
2.304878 -0.451667 0
2.402439 -0.451667 0
2.500000 -0.451667 0
2.597561 -0.451667 0
2.695122 -0.451667 0
2.792683 -0.451667 0
2.890244 -0.451667 0
2.987805 -0.451667 0
3.085366 -0.451667 0
3.182927 -0.451667 0
3.280488 -0.451667 0
3.378049 -0.451667 0
3.475610 -0.451667 0
3.573171 -0.451667 0
3.670732 -0.451667 0
3.768293 -0.451667 0
3.865854 -0.451667 0
3.963415 -0.451667 0
4.060976 -0.451667 0
4.158537 -0.451667 0
4.256098 -0.451667 0
4.353659 -0.451667 0
4.451220 -0.451667 0
4.548780 -0.451667 0
4.646341 -0.451667 0
4.743902 -0.451667 0
4.841463 -0.451667 0
4.939024 -0.451667 0
5.036585 -0.451667 0
5.134146 -0.451667 0
5.231707 -0.451667 0
5.329268 -0.451667 0
5.426829 -0.451667 0
5.524390 -0.451667 0
5.621951 -0.451667 0
5.719512 -0.451667 0
5.817073 -0.451667 0
5.914634 -0.451667 0
6.012195 -0.451667 0
6.109756 -0.451667 0
6.207317 -0.451667 0
6.304878 -0.451667 0
6.402439 -0.451667 0
-1.500000 -0.403333 0
-1.402439 -0.403333 0
-1.304878 -0.403333 0
-1.207317 -0.403333 0
-1.109756 -0.403333 0
-1.012195 -0.403333 0
-0.914634 -0.403333 0
-0.817073 -0.403333 0
-0.719512 -0.403333 0
-0.621951 -0.403333 0
-0.524390 -0.403333 0
-0.426829 -0.403333 0
-0.329268 -0.403333 0
-0.231707 -0.403333 0
-0.134146 -0.403333 0
-0.036585 -0.403333 0
0.060976 -0.403333 0
0.158537 -0.403333 0
0.256098 -0.403333 0
0.353659 -0.403333 0
0.451220 -0.403333 0
0.548780 -0.403333 0
0.646341 -0.403333 0
0.743902 -0.403333 0
0.841463 -0.403333 0
0.939024 -0.403333 0
1.036585 -0.403333 0
1.134146 -0.403333 0
1.231707 -0.403333 0
1.329268 -0.403333 0
1.426829 -0.403333 0
1.524390 -0.403333 0
1.621951 -0.403333 0
1.719512 -0.403333 0
1.817073 -0.403333 0
1.914634 -0.403333 0
2.012195 -0.403333 0
2.109756 -0.403333 0
2.207317 -0.403333 0
2.304878 -0.403333 0
2.402439 -0.403333 0
2.500000 -0.403333 0
2.597561 -0.403333 0
2.695122 -0.403333 0
2.792683 -0.403333 0
2.890244 -0.403333 0
2.987805 -0.403333 0
3.085366 -0.403333 0
3.182927 -0.403333 0
3.280488 -0.403333 0
3.378049 -0.403333 0
3.475610 -0.403333 0
3.573171 -0.403333 0
3.670732 -0.403333 0
3.768293 -0.403333 0
3.865854 -0.403333 0
3.963415 -0.403333 0
4.060976 -0.403333 0
4.158537 -0.403333 0
4.256098 -0.403333 0
4.353659 -0.403333 0
4.451220 -0.403333 0
4.548780 -0.403333 0
4.646341 -0.403333 0
4.743902 -0.403333 0
4.841463 -0.403333 0
4.939024 -0.403333 0
5.036585 -0.403333 0
5.134146 -0.403333 0
5.231707 -0.403333 0
5.329268 -0.403333 0
5.426829 -0.403333 0
5.524390 -0.403333 0
5.621951 -0.403333 0
5.719512 -0.403333 0
5.817073 -0.403333 0
5.914634 -0.403333 0
6.012195 -0.403333 0
6.109756 -0.403333 0
6.207317 -0.403333 0
6.304878 -0.403333 0
6.402439 -0.403333 0
-1.500000 -0.355000 0
-1.402439 -0.355000 0
-1.304878 -0.355000 0
-1.207317 -0.355000 0
-1.109756 -0.355000 0
-1.012195 -0.355000 0
-0.914634 -0.355000 0
-0.817073 -0.355000 0
-0.719512 -0.355000 0
-0.621951 -0.355000 0
-0.524390 -0.355000 0
-0.426829 -0.355000 0
-0.329268 -0.355000 0
-0.231707 -0.355000 0
-0.134146 -0.355000 0
-0.036585 -0.355000 0
0.060976 -0.355000 0
0.158537 -0.355000 0
0.256098 -0.355000 0
0.353659 -0.355000 0
0.451220 -0.355000 0
0.548780 -0.355000 0
0.646341 -0.355000 0
0.743902 -0.355000 0
0.841463 -0.355000 0
0.939024 -0.355000 0
1.036585 -0.355000 0
1.134146 -0.355000 0
1.231707 -0.355000 0
1.329268 -0.355000 0
1.426829 -0.355000 0
1.524390 -0.355000 0
1.621951 -0.355000 0
1.719512 -0.355000 0
1.817073 -0.355000 0
1.914634 -0.355000 0
2.012195 -0.355000 0
2.109756 -0.355000 0
2.207317 -0.355000 0
2.304878 -0.355000 0
2.402439 -0.355000 0
2.500000 -0.355000 0
2.597561 -0.355000 0
2.695122 -0.355000 0
2.792683 -0.355000 0
2.890244 -0.355000 0
2.987805 -0.355000 0
3.085366 -0.355000 0
3.182927 -0.355000 0
3.280488 -0.355000 0
3.378049 -0.355000 0
3.475610 -0.355000 0
3.573171 -0.355000 0
3.670732 -0.355000 0
3.768293 -0.355000 0
3.865854 -0.355000 0
3.963415 -0.355000 0
4.060976 -0.355000 0
4.158537 -0.355000 0
4.256098 -0.355000 0
4.353659 -0.355000 0
4.451220 -0.355000 0
4.548780 -0.355000 0
4.646341 -0.355000 0
4.743902 -0.355000 0
4.841463 -0.355000 0
4.939024 -0.355000 0
5.036585 -0.355000 0
5.134146 -0.355000 0
5.231707 -0.355000 0
5.329268 -0.355000 0
5.426829 -0.355000 0
5.524390 -0.355000 0
5.621951 -0.355000 0
5.719512 -0.355000 0
5.817073 -0.355000 0
5.914634 -0.355000 0
6.012195 -0.355000 0
6.109756 -0.355000 0
6.207317 -0.355000 0
6.304878 -0.355000 0
6.402439 -0.355000 0
-1.500000 -0.306667 0
-1.402439 -0.306667 0
-1.304878 -0.306667 0
-1.207317 -0.306667 0
-1.109756 -0.306667 0
-1.012195 -0.306667 0
-0.914634 -0.306667 0
-0.817073 -0.306667 0
-0.719512 -0.306667 0
-0.621951 -0.306667 0
-0.524390 -0.306667 0
-0.426829 -0.306667 0
-0.329268 -0.306667 0
-0.231707 -0.306667 0
-0.134146 -0.306667 0
-0.036585 -0.306667 0
0.060976 -0.306667 0
0.158537 -0.306667 0
0.256098 -0.306667 0
0.353659 -0.306667 0
0.451220 -0.306667 0
0.548780 -0.306667 0
0.646341 -0.306667 0
0.743902 -0.306667 0
0.841463 -0.306667 0
0.939024 -0.306667 0
1.036585 -0.306667 0
1.134146 -0.306667 0
1.231707 -0.306667 0
1.329268 -0.306667 0
1.426829 -0.306667 0
1.524390 -0.306667 0
1.621951 -0.306667 0
1.719512 -0.306667 0
1.817073 -0.306667 0
1.914634 -0.306667 0
2.012195 -0.306667 0
2.109756 -0.306667 0
2.207317 -0.306667 0
2.304878 -0.306667 0
2.402439 -0.306667 0
2.500000 -0.306667 0
2.597561 -0.306667 0
2.695122 -0.306667 0
2.792683 -0.306667 0
2.890244 -0.306667 0
2.987805 -0.306667 0
3.085366 -0.306667 0
3.182927 -0.306667 0
3.280488 -0.306667 0
3.378049 -0.306667 0
3.475610 -0.306667 0
3.573171 -0.306667 0
3.670732 -0.306667 0
3.768293 -0.306667 0
3.865854 -0.306667 0
3.963415 -0.306667 0
4.060976 -0.306667 0
4.158537 -0.306667 0
4.256098 -0.306667 0
4.353659 -0.306667 0
4.451220 -0.306667 0
4.548780 -0.306667 0
4.646341 -0.306667 0
4.743902 -0.306667 0
4.841463 -0.306667 0
4.939024 -0.306667 0
5.036585 -0.306667 0
5.134146 -0.306667 0
5.231707 -0.306667 0
5.329268 -0.306667 0
5.426829 -0.306667 0
5.524390 -0.306667 0
5.621951 -0.306667 0
5.719512 -0.306667 0
5.817073 -0.306667 0
5.914634 -0.306667 0
6.012195 -0.306667 0
6.109756 -0.306667 0
6.207317 -0.306667 0
6.304878 -0.306667 0
6.402439 -0.306667 0
-1.500000 -0.258333 0
-1.402439 -0.258333 0
-1.304878 -0.258333 0
-1.207317 -0.258333 0
-1.109756 -0.258333 0
-1.012195 -0.258333 0
-0.914634 -0.258333 0
-0.817073 -0.258333 0
-0.719512 -0.258333 0
-0.621951 -0.258333 0
-0.524390 -0.258333 0
-0.426829 -0.258333 0
-0.329268 -0.258333 0
-0.231707 -0.258333 0
-0.134146 -0.258333 0
-0.036585 -0.258333 0
0.060976 -0.258333 0
0.158537 -0.258333 0
0.256098 -0.258333 0
0.353659 -0.258333 0
0.451220 -0.258333 0
0.548780 -0.258333 0
0.646341 -0.258333 0
0.743902 -0.258333 0
0.841463 -0.258333 0
0.939024 -0.258333 0
1.036585 -0.258333 0
1.134146 -0.258333 0
1.231707 -0.258333 0
1.329268 -0.258333 0
1.426829 -0.258333 0
1.524390 -0.258333 0
1.621951 -0.258333 0
1.719512 -0.258333 0
1.817073 -0.258333 0
1.914634 -0.258333 0
2.012195 -0.258333 0
2.109756 -0.258333 0
2.207317 -0.258333 0
2.304878 -0.258333 0
2.402439 -0.258333 0
2.500000 -0.258333 0
2.597561 -0.258333 0
2.695122 -0.258333 0
2.792683 -0.258333 0
2.890244 -0.258333 0
2.987805 -0.258333 0
3.085366 -0.258333 0
3.182927 -0.258333 0
3.280488 -0.258333 0
3.378049 -0.258333 0
3.475610 -0.258333 0
3.573171 -0.258333 0
[...]
POINT_DATA 4920 

VECTORS velocity float
0.000000 0.000000 0
0.000000 0.000000 0
0.000000 0.000000 0
0.000000 0.000000 0
0.000000 0.000000 0
0.000000 0.000000 0
0.000000 0.000000 0
0.000000 0.000000 0
0.000000 0.000000 0
0.000000 0.000000 0
0.000000 0.000000 0
0.000000 0.000000 0
0.000000 0.000000 0
0.000000 0.000000 0
0.000000 0.000000 0
-0.000000 0.000000 0
-0.000000 0.000000 0
-0.000000 0.000000 0
-0.000000 0.000000 0
-0.000000 0.000000 0
-0.000000 0.000000 0
-0.000001 0.000000 0
-0.000001 0.000000 0
-0.000001 0.000000 0
-0.000001 0.000000 0
-0.000000 0.000000 0
-0.000000 0.000000 0
-0.000000 0.000000 0
-0.000000 0.000000 0
-0.000000 0.000000 0
-0.000000 0.000000 0
-0.000000 0.000000 0
-0.000000 0.000000 0
0.000000 0.000000 0
0.000000 0.000000 0
0.000000 0.000000 0
0.000000 0.000000 0
0.000001 0.000000 0
0.000001 0.000000 0
0.000001 0.000000 0
0.000001 0.000000 0
0.000001 0.000000 0
0.000002 0.000000 0
0.000002 0.000000 0
0.000002 0.000000 0
0.000002 0.000000 0
0.000003 0.000000 0
0.000003 0.000000 0
0.000003 0.000000 0
0.000003 0.000000 0
0.000003 0.000000 0
0.000003 0.000000 0
0.000002 0.000000 0
0.000002 0.000000 0
0.000001 0.000000 0
-0.000000 0.000000 0
-0.000000 0.000000 0
0.001904 0.000000 0
0.000000 0.000000 0
0.000000 0.000000 0
0.000000 0.000000 0
0.000000 0.000000 0
0.000000 0.000000 0
0.000000 0.000000 0
0.000000 0.000000 0
0.000000 0.000000 0
0.000000 0.000000 0
0.000000 0.000000 0
0.000000 0.000000 0
0.000000 0.000000 0
0.000000 0.000000 0
0.000000 0.000000 0
0.000000 0.000000 0
0.000000 0.000000 0
0.000000 0.000000 0
0.000000 0.000000 0
0.000000 0.000000 0
0.000000 0.000000 0
0.000000 0.000000 0
0.000000 0.000000 0
0.000000 0.000000 0
0.000000 0.000000 0
0.000000 0.000000 0
0.000000 0.000000 0
0.000000 0.000000 0
0.000000 0.000000 0
0.000000 0.000000 0
0.000000 0.000000 0
0.000000 0.000000 0
0.000000 0.000000 0
0.000000 0.000000 0
0.000000 0.000000 0
0.000000 0.000000 0
0.000000 0.000000 0
0.000000 0.000000 0
0.000000 0.000000 0
1.046391 -0.422526 0
2.518283 -0.738200 0
3.779738 -0.505130 0
4.622730 -0.265390 0
5.056173 -0.070116 0
5.167136 0.061928 0
5.063265 0.139725 0
4.829815 0.177724 0
4.530920 0.186490 0
4.213456 0.174994 0
3.909707 0.151111 0
3.639451 0.121580 0
3.412120 0.091700 0
3.229303 0.065052 0
3.087408 0.043481 0
2.980116 0.027396 0
2.900285 0.016262 0
2.841173 0.009101 0
2.797055 0.004859 0
2.763402 0.002611 0
2.736822 0.001636 0
2.714877 0.001418 0
2.695871 0.001617 0
2.678643 0.002023 0
2.662400 0.002524 0
2.646564 0.003079 0
2.630660 0.003695 0
2.614216 0.004415 0
2.596676 0.005317 0
2.577312 0.006511 0
2.555126 0.008149 0
2.528731 0.010429 0
2.496194 0.013619 0
2.454833 0.018065 0
2.400955 0.024214 0
2.329525 0.032610 0
2.233799 0.043854 0
2.104975 0.058425 0
1.932236 0.076386 0
1.703190 0.096252 0
1.408011 0.114880 0
1.037818 0.130652 0
0.616090 0.068932 0
-0.000000 0.000000 0
-0.001578 0.000000 0
0.000000 0.000000 0
0.000000 0.000000 0
0.000000 0.000000 0
0.000000 0.000000 0
0.000000 0.000000 0
0.000000 0.000000 0
0.000000 0.000000 0
0.000000 0.000000 0
0.000000 0.000000 0
0.000000 0.000000 0
0.000000 0.000000 0
0.000000 0.000000 0
0.000000 0.000000 0
0.000000 0.000000 0
0.000000 0.000000 0
0.000000 0.000000 0
0.000000 0.000000 0
0.000000 0.000000 0
0.000000 0.000000 0
0.000000 0.000000 0
0.000000 0.000000 0
0.000000 0.000000 0
0.000000 0.000000 0
0.000000 0.000000 0
0.000000 0.000000 0
0.000000 0.000000 0
0.000000 0.000000 0
0.000000 0.000000 0
0.000000 0.000000 0
0.000000 0.000000 0
0.000000 0.000000 0
0.000000 0.000000 0
0.000000 0.000000 0
0.000000 0.000000 0
0.000000 0.000000 0
0.000000 0.000000 0
1.159603 -0.516994 0
2.653737 -1.245987 0
3.828552 -1.353939 0
5.002493 -1.042578 0
5.863859 -0.632367 0
6.390900 -0.269708 0
6.647043 -0.003513 0
6.706798 0.167115 0
6.638302 0.263733 0
6.491065 0.305355 0
6.301262 0.307759 0
6.094944 0.284371 0
5.890221 0.246513 0
5.698869 0.203194 0
5.527624 0.160868 0
5.379329 0.123452 0
5.253996 0.092704 0
5.149789 0.068834 0
5.063868 0.051142 0
4.993048 0.038529 0
4.934250 0.029840 0
4.884751 0.024040 0
4.842289 0.020288 0
4.805062 0.017951 0
4.771667 0.016582 0
4.741015 0.015893 0
4.712233 0.015725 0
4.684571 0.016026 0
4.657311 0.016836 0
4.629676 0.018283 0
4.600727 0.020584 0
4.569254 0.024068 0
4.533628 0.029196 0
4.491615 0.036610 0
4.440118 0.047183 0
4.374830 0.062080 0
4.289763 0.082812 0
4.176610 0.111246 0
4.023952 0.149399 0
3.816331 0.199051 0
3.533611 0.259710 0
3.151575 0.329636 0
2.644516 0.391822 0
2.012952 0.511853 0
1.049733 0.303431 0
-0.000000 0.000000 0
-0.004730 0.000000 0
0.000000 0.000000 0
0.000000 0.000000 0
0.000000 0.000000 0
0.000000 0.000000 0
0.000000 0.000000 0
0.000000 0.000000 0
0.000000 0.000000 0
0.000000 0.000000 0
0.000000 0.000000 0
0.000000 0.000000 0
0.000000 0.000000 0
0.000000 0.000000 0
0.000000 0.000000 0
0.000000 0.000000 0
0.000000 0.000000 0
0.000000 0.000000 0
0.000000 0.000000 0
0.000000 0.000000 0
0.000000 0.000000 0
0.000000 0.000000 0
0.000000 0.000000 0
0.000000 0.000000 0
0.000000 0.000000 0
0.000000 0.000000 0
0.000000 0.000000 0
0.000000 0.000000 0
0.000000 0.000000 0
0.000000 0.000000 0
0.000000 0.000000 0
0.000000 0.000000 0
0.000000 0.000000 0
0.000000 0.000000 0
0.000000 0.000000 0
0.000000 0.000000 0
0.936096 -0.582531 0
2.634562 -1.321344 0
3.462265 -1.743362 0
4.644887 -1.901813 0
5.708247 -1.513455 0
6.431325 -0.953229 0
6.856159 -0.458119 0
7.079344 -0.094573 0
7.167462 0.144055 0
7.169344 0.284602 0
7.118184 0.353465 0
7.036205 0.371239 0
6.938263 0.354747 0
6.834450 0.317802 0
6.731724 0.271337 0
6.634773 0.223358 0
6.546446 0.179042 0
6.468059 0.141114 0
6.399715 0.110454 0
6.340682 0.086753 0
6.289758 0.069074 0
6.245575 0.056264 0
6.206802 0.047195 0
6.172264 0.040897 0
6.140977 0.036604 0
6.112144 0.033752 0
6.085119 0.031969 0
6.059363 0.031043 0
6.034384 0.030904 0
6.009683 0.031611 0
5.984691 0.033350 0
5.958698 0.036446 0
5.930762 0.041391 0
5.899594 0.048893 0
5.863400 0.059945 0
5.819652 0.075922 0
5.764767 0.098703 0
5.693639 0.130812 0
5.598924 0.175542 0
5.470020 0.236913 0
5.291427 0.319309 0
5.041055 0.425583 0
4.687093 0.555352 0
4.197030 0.694746 0
3.527606 0.855299 0
2.829405 0.995929 0
1.342219 0.522448 0
0.000000 0.000000 0
-0.005823 0.000000 0
0.000000 0.000000 0
0.000000 0.000000 0
0.000000 0.000000 0
0.000000 0.000000 0
0.000000 0.000000 0
0.000000 0.000000 0
0.000000 0.000000 0
0.000000 0.000000 0
0.000000 0.000000 0
0.000000 0.000000 0
0.000000 0.000000 0
0.000000 0.000000 0
0.000000 0.000000 0
0.000000 0.000000 0
0.000000 0.000000 0
0.000000 0.000000 0
0.000000 0.000000 0
0.000000 0.000000 0
0.000000 0.000000 0
0.000000 0.000000 0
0.000000 0.000000 0
0.000000 0.000000 0
0.000000 0.000000 0
0.000000 0.000000 0
0.000000 0.000000 0
0.000000 0.000000 0
0.000000 0.000000 0
0.000000 0.000000 0
0.000000 0.000000 0
0.000000 0.000000 0
0.000000 0.000000 0
0.000000 0.000000 0
0.738387 -0.467380 0
2.144361 -1.316872 0
3.090255 -1.776544 0
3.864696 -2.241935 0
5.207677 -2.466636 0
6.163219 -1.927610 0
6.688646 -1.201062 0
6.946410 -0.590747 0
7.065050 -0.157738 0
7.111564 0.122527 0
7.115576 0.288146 0
7.097446 0.371314 0
7.068608 0.396895 0
7.034789 0.384324 0
6.998755 0.348836 0
6.962116 0.302117 0
6.926150 0.252657 0
6.891965 0.206044 0
6.860406 0.165397 0
6.831946 0.131939 0
6.806682 0.105616 0
6.784410 0.085647 0
6.764742 0.070938 0
6.747219 0.060359 0
6.731384 0.052899 0
6.716828 0.047736 0
6.703206 0.044255 0
6.690228 0.042041 0
6.677646 0.040860 0
6.665229 0.040638 0
6.652735 0.041455 0
6.639875 0.043542 0
6.626275 0.047302 0
6.611423 0.053349 0
6.594593 0.062568 0
6.574747 0.076215 0
6.550374 0.096047 0
6.519257 0.124508 0
6.478094 0.164974 0
6.421862 0.222030 0
6.342749 0.301738 0
6.228147 0.411568 0
6.057651 0.559107 0
5.797550 0.747780 0
5.404508 0.966251 0
4.835545 1.189397 0
4.165663 1.388340 0
3.375963 1.409047 0
1.500304 0.670038 0
0.000000 0.000000 0
-0.005280 0.000000 0
0.000000 0.000000 0
0.000000 0.000000 0
0.000000 0.000000 0
0.000000 0.000000 0
0.000000 0.000000 0
0.000000 0.000000 0
0.000000 0.000000 0
0.000000 0.000000 0
0.000000 0.000000 0
0.000000 0.000000 0
0.000000 0.000000 0
0.000000 0.000000 0
0.000000 0.000000 0
0.000000 0.000000 0
0.000000 0.000000 0
0.000000 0.000000 0
0.000000 0.000000 0
0.000000 0.000000 0
0.000000 0.000000 0
0.000000 0.000000 0
0.000000 0.000000 0
0.000000 0.000000 0
0.000000 0.000000 0
0.000000 0.000000 0
0.000000 0.000000 0
0.000000 0.000000 0
0.000000 0.000000 0
0.000000 0.000000 0
0.000000 0.000000 0
0.000000 0.000000 0
0.536179 -0.369281 0
1.698545 -1.069446 0
2.545190 -1.751307 0
3.300627 -2.173627 0
4.126452 -2.792368 0
5.618953 -3.040539 0
6.351933 -2.247152 0
6.584596 -1.341235 0
6.618023 -0.644596 0
6.605813 -0.176393 0
6.591027 0.119024 0
6.580949 0.291596 0
6.579699 0.376733 0
6.586660 0.402280 0
6.598919 0.389354 0
6.613050 0.353805 0
6.626382 0.307306 0
6.637439 0.258112 0
6.645815 0.211612 0
6.651787 0.170848 0
6.655936 0.137070 0
6.658866 0.110303 0
6.661072 0.089852 0
6.662900 0.074689 0
6.664561 0.063721 0
6.666168 0.055953 0
6.667768 0.050564 0
6.669372 0.046931 0
6.670969 0.044632 0
6.672541 0.043427 0
6.674066 0.043245 0
6.675518 0.044172 0
6.676866 0.046458 0
6.678069 0.050541 0
6.679063 0.057087 0
6.679744 0.067063 0
6.679934 0.081852 0
6.679323 0.103412 0
6.677358 0.134511 0
6.673027 0.179063 0
6.664429 0.242594 0
6.647877 0.332883 0
6.615880 0.460551 0
6.553054 0.638908 0
6.427615 0.878931 0
6.183225 1.171339 0
5.771287 1.469044 0
5.220267 1.719030 0
4.580322 1.851117 0
3.669763 1.685857 0
1.556067 0.748418 0
0.000000 0.000000 0
-0.003986 0.000000 0
0.000000 0.000000 0
0.000000 0.000000 0
0.000000 0.000000 0
0.000000 0.000000 0
0.000000 0.000000 0
0.000000 0.000000 0
0.000000 0.000000 0
0.000000 0.000000 0
0.000000 0.000000 0
0.000000 0.000000 0
0.000000 0.000000 0
0.000000 0.000000 0
0.000000 0.000000 0
0.000000 0.000000 0
0.000000 0.000000 0
0.000000 0.000000 0
0.000000 0.000000 0
0.000000 0.000000 0
0.000000 0.000000 0
0.000000 0.000000 0
0.000000 0.000000 0
0.000000 0.000000 0
0.000000 0.000000 0
0.000000 0.000000 0
0.000000 0.000000 0
0.000000 0.000000 0
0.000000 0.000000 0
0.000000 0.000000 0
0.376474 -0.266962 0
1.297315 -0.846290 0
2.061407 -1.466149 0
2.754305 -2.110570 0
3.394873 -2.559928 0
4.280867 -3.390473 0
5.831003 -3.569177 0
6.151687 -2.406005 0
5.981559 -1.332887 0
5.742765 -0.601259 0
5.590274 -0.144364 0
5.514132 0.134845 0
5.501123 0.293758 0
5.531400 0.368485 0
5.587145 0.387373 0
5.654859 0.371250 0
5.724826 0.335230 0
5.790873 0.290035 0
5.849754 0.243030 0
5.900371 0.198936 0
5.943009 0.160383 0
5.978681 0.128432 0
6.008666 0.103072 0
6.034214 0.083648 0
6.056411 0.069209 0
6.076129 0.058740 0
6.094040 0.051310 0
6.110640 0.046148 0
6.126297 0.042669 0
6.141286 0.040471 0
6.155826 0.039325 0
6.170111 0.039163 0
6.184343 0.040068 0
6.198756 0.042278 0
6.213651 0.046213 0
6.229423 0.052519 0
6.246606 0.062137 0
6.265918 0.076424 0
6.288306 0.097323 0
6.314997 0.127628 0
6.347500 0.171379 0
6.387482 0.234490 0
6.436313 0.325790 0
6.493497 0.458545 0
6.552287 0.652376 0
6.588053 0.930999 0
6.527051 1.291407 0
6.297396 1.666463 0
5.922103 1.978363 0
5.433056 2.177193 0
4.793006 2.178676 0
3.767667 1.832345 0
1.542263 0.774814 0
0.000000 0.000000 0
-0.002626 0.000000 0
0.000000 0.000000 0
0.000000 0.000000 0
0.000000 0.000000 0
0.000000 0.000000 0
0.000000 0.000000 0
0.000000 0.000000 0
0.000000 0.000000 0
0.000000 0.000000 0
0.000000 0.000000 0
0.000000 0.000000 0
0.000000 0.000000 0
0.000000 0.000000 0
0.000000 0.000000 0
0.000000 0.000000 0
0.000000 0.000000 0
0.000000 0.000000 0
0.000000 0.000000 0
0.000000 0.000000 0
0.000000 0.000000 0
0.000000 0.000000 0
0.000000 0.000000 0
0.000000 0.000000 0
0.000000 0.000000 0
0.000000 0.000000 0
0.000000 0.000000 0
0.000000 0.000000 0
0.267976 -0.186459 0
0.995902 -0.643990 0
1.702415 -1.205355 0
2.319855 -1.791263 0
2.880621 -2.411929 0
3.395770 -2.929911 0
4.284453 -3.999267 0
5.744108 -3.967374 0
5.401644 -2.321740 0
4.738434 -1.138649 0
4.209738 -0.450747 0
3.920668 -0.063125 0
3.816904 0.163191 0
3.848294 0.283041 0
3.954187 0.334116 0
4.094087 0.341116 0
4.243935 0.321145 0
4.389137 0.286422 0
4.521733 0.245414 0
4.638194 0.203865 0
4.737869 0.165413 0
4.821842 0.132052 0
4.892092 0.104542 0
4.950906 0.082791 0
5.000519 0.066199 0
5.042922 0.053923 0
5.079782 0.045079 0
5.112443 0.038856 0
5.141960 0.034583 0
5.169149 0.031748 0
5.194654 0.030003 0
5.219001 0.029147 0
5.242659 0.029117 0
5.266098 0.029980 0
5.289848 0.031939 0
5.314565 0.035348 0
5.341109 0.040760 0
5.370643 0.048983 0
5.404758 0.061193 0
5.445640 0.079097 0
5.496283 0.105186 0
5.560754 0.143153 0
5.644485 0.198594 0
5.754461 0.280361 0
5.898944 0.403095 0
6.083679 0.592064 0
6.303078 0.891433 0
6.457677 1.315335 0
6.422140 1.768745 0
6.249832 2.147238 0
5.949703 2.410491 0
5.510465 2.510918 0
4.840723 2.368303 0
3.728032 1.878419 0
1.486002 0.766503 0
0.000000 0.000000 0
-0.001606 0.000000 0
0.000000 0.000000 0
0.000000 0.000000 0
0.000000 0.000000 0
0.000000 0.000000 0
0.000000 0.000000 0
0.000000 0.000000 0
0.000000 0.000000 0
0.000000 0.000000 0
0.000000 0.000000 0
0.000000 0.000000 0
0.000000 0.000000 0
0.000000 0.000000 0
0.000000 0.000000 0
0.000000 0.000000 0
0.000000 0.000000 0
0.000000 0.000000 0
0.000000 0.000000 0
0.000000 0.000000 0
0.000000 0.000000 0
0.000000 0.000000 0
0.000000 0.000000 0
0.000000 0.000000 0
0.000000 0.000000 0
0.000000 0.000000 0
0.209252 -0.131867 0
0.805448 -0.492442 0
1.468512 -0.977555 0
2.052803 -1.502198 0
2.535336 -2.049852 0
2.939306 -2.643597 0
3.298264 -3.255410 0
4.068799 -4.553878 0
5.219314 -4.122651 0
3.916897 -1.907778 0
2.775395 -0.742398 0
2.002281 -0.196124 0
1.719056 0.050253 0
1.749722 0.170701 0
1.910235 0.225746 0
2.129508 0.246715 0
2.368780 0.243827 0
2.605037 0.225077 0
2.823641 0.197605 0
3.017280 0.166648 0
3.183432 0.135952 0
3.322654 0.107954 0
3.437350 0.083979 0
3.530865 0.064492 0
3.606837 0.049355 0
3.668769 0.038062 0
3.719785 0.029941 0
3.762522 0.024298 0
3.799115 0.020506 0
3.831236 0.018056 0
3.860172 0.016563 0
3.886918 0.015773 0
3.912265 0.015543 0
3.936896 0.015831 0
3.961479 0.016689 0
3.986752 0.018266 0
4.013630 0.020817 0
4.043321 0.024737 0
4.077476 0.030604 0
4.118390 0.039269 0
4.169280 0.051980 0
4.234670 0.070598 0
4.320933 0.097957 0
4.437096 0.138524 0
4.595836 0.199727 0
4.815778 0.295445 0
5.118772 0.452162 0
5.545485 0.745714 0
5.977333 1.232421 0
6.152394 1.769433 0
6.208992 2.212417 0
6.131647 2.543487 0
5.901274 2.728084 0
5.477845 2.715392 0
4.765897 2.443829 0
3.602022 1.855174 0
1.410180 0.737404 0
0.000000 0.000000 0
-0.001115 0.000000 0
0.000000 0.000000 0
0.000000 0.000000 0
0.000000 0.000000 0
0.000000 0.000000 0
0.000000 0.000000 0
0.000000 0.000000 0
0.000000 0.000000 0
0.000000 0.000000 0
0.000000 0.000000 0
0.000000 0.000000 0
0.000000 0.000000 0
0.000000 0.000000 0
0.000000 0.000000 0
0.000000 0.000000 0
0.000000 0.000000 0
0.000000 0.000000 0
0.000000 0.000000 0
0.000000 0.000000 0
0.000000 0.000000 0
0.000000 0.000000 0
0.000000 0.000000 0
0.000000 0.000000 0
0.195342 -0.102304 0
0.724355 -0.396777 0
1.360472 -0.809425 0
1.928521 -1.261950 0
2.381641 -1.733877 0
2.709867 -2.230451 0
2.935070 -2.789896 0
3.101443 -3.489481 0
3.571599 -4.950988 0
4.021243 -3.892119 0
1.556810 -1.110982 0
0.421287 -0.190116 0
0.058279 0.072581 0
0.025411 0.061997 0
0.159715 0.068478 0
0.369971 0.094889 0
0.615384 0.106945 0
0.867966 0.105531 0
1.107548 0.095799 0
1.322285 0.082190 0
1.506414 0.067168 0
1.658663 0.052577 0
1.780834 0.039617 0
1.876568 0.028900 0
1.950345 0.020575 0
2.006746 0.014472 0
2.049969 0.010243 0
2.083574 0.007476 0
2.110405 0.005778 0
2.132619 0.004814 0
2.151797 0.004334 0
2.169064 0.004162 0
2.185230 0.004196 0
2.200903 0.004387 0
2.216604 0.004736 0
2.232858 0.005281 0
2.250291 0.006102 0
2.269728 0.007323 0
2.292311 0.009130 0
2.319659 0.011793 0
2.354086 0.015712 0
2.398924 0.021491 0
2.459008 0.030054 0
2.541426 0.042868 0
2.656735 0.062403 0
2.821037 0.092756 0
3.059883 0.144024 0
3.417394 0.230555 0
3.972574 0.466088 0
4.894822 1.014662 0
5.379087 1.653978 0
5.758668 2.157517 0
5.967844 2.562939 0
5.983895 2.834823 0
5.792987 2.930788 0
5.359061 2.807733 0
4.611783 2.433470 0
3.436305 1.789383 0
1.336399 0.699019 0
0.000000 0.000000 0
-0.001274 0.000000 0
0.000000 0.000000 0
0.000000 0.000000 0
0.000000 0.000000 0
0.000000 0.000000 0
0.000000 0.000000 0
0.000000 0.000000 0
0.000000 0.000000 0
0.000000 0.000000 0
0.000000 0.000000 0
0.000000 0.000000 0
0.000000 0.000000 0
0.000000 0.000000 0
0.000000 0.000000 0
0.000000 0.000000 0
0.000000 0.000000 0
0.000000 0.000000 0
0.000000 0.000000 0
0.000000 0.000000 0
0.000000 0.000000 0
0.000000 0.000000 0
0.225166 -0.095086 0
0.751090 -0.355805 0
1.380129 -0.707729 0
1.940947 -1.089006 0
2.380126 -1.483459 0
2.678977 -1.889290 0
2.838709 -2.324030 0
2.877982 -2.837590 0
2.824745 -3.570757 0
2.796815 -5.009563 0
1.634856 -3.000192 0
-0.000000 0.000000 0
-0.000000 0.000000 0
-0.000000 0.000000 0
-0.000000 0.000000 0
-0.000000 0.000000 0
0.000000 0.000000 0
0.000000 0.000000 0
0.000000 0.000000 0
0.000000 0.000000 0
0.000000 0.000000 0
0.000000 0.000000 0
0.000000 0.000000 0
0.000000 0.000000 0
0.000000 0.000000 0
0.000000 0.000000 0
0.000000 0.000000 0
0.000000 0.000000 0
0.000000 0.000000 0
0.000000 0.000000 0
0.000000 0.000000 0
0.000000 0.000000 0
-0.000000 0.000000 0
-0.000000 0.000000 0
-0.000000 0.000000 0
-0.000001 0.000000 0
-0.000001 0.000000 0
-0.000001 0.000000 0
-0.000001 0.000000 0
-0.000002 0.000000 0
-0.000002 0.000000 0
-0.000002 0.000000 0
-0.000003 0.000000 0
-0.000003 0.000000 0
-0.000004 0.000000 0
-0.000004 0.000000 0
-0.000005 0.000000 0
-0.000005 0.000000 0
-0.000006 0.000000 0
-0.000007 0.000000 0
2.078978 0.521840 0
3.748531 1.341469 0
4.741102 1.920737 0
5.381874 2.431906 0
5.727114 2.814711 0
5.804318 3.024945 0
5.625897 3.029017 0
5.177521 2.807739 0
4.419253 2.362572 0
3.272843 1.704868 0
1.282159 0.662051 0
0.000000 0.000000 0
-0.002100 0.000000 0
0.000000 0.000000 0
0.000000 0.000000 0
0.000000 0.000000 0
0.000000 0.000000 0
0.000000 0.000000 0
0.000000 0.000000 0
0.000000 0.000000 0
0.000000 0.000000 0
0.000000 0.000000 0
0.000000 0.000000 0
0.000000 0.000000 0
0.000000 0.000000 0
0.000000 0.000000 0
0.000000 0.000000 0
0.000000 0.000000 0
0.000000 0.000000 0
0.000000 0.000000 0
0.000000 0.000000 0
0.308934 -0.109499 0
0.897287 -0.368361 0
1.541440 -0.672802 0
2.095987 -0.986251 0
2.519494 -1.304841 0
2.796870 -1.627582 0
2.926797 -1.961067 0
2.918639 -2.329042 0
2.784989 -2.782978 0
2.522174 -3.449270 0
2.017692 -4.378522 0
0.037590 0.000000 0
-0.073601 2.449202 0
0.383979 0.000000 0
0.310148 0.000000 0
0.237474 0.000000 0
0.185007 0.000000 0
0.099250 0.000000 0
-0.006526 0.000000 0
-0.116619 0.000000 0
-0.219541 0.000000 0
-0.309989 0.000000 0
-0.385442 0.000000 0
-0.445568 0.000000 0
-0.491569 0.000000 0
-0.525536 0.000000 0
-0.549905 0.000000 0
-0.567066 0.000000 0
-0.579116 0.000000 0
-0.587741 0.000000 0
-0.594207 0.000000 0
-0.599404 0.000000 0
-0.603925 0.000000 0
-0.608152 0.000000 0
-0.612327 0.000000 0
-0.616621 0.000000 0
-0.621182 0.000000 0
-0.626180 0.000000 0
-0.631842 0.000000 0
-0.638497 0.000000 0
-0.646624 0.000000 0
-0.656926 0.000000 0
-0.670428 0.000000 0
-0.688642 0.000000 0
-0.713808 0.000000 0
-0.749307 0.000000 0
-0.800338 0.000000 0
-0.875269 0.000000 0
-0.987567 0.000000 0
-1.165983 0.000000 0
-1.452944 0.133007 0
0.000000 0.000002 0
1.709554 0.338497 0
3.312930 1.348332 0
4.420480 2.074453 0
5.138673 2.625537 0
5.517758 2.980933 0
5.602819 3.118259 0
5.419642 3.031262 0
4.969055 2.732992 0
4.232003 2.254512 0
3.151548 1.622764 0
1.265399 0.635221 0
0.000000 0.000000 0
-0.003809 0.000000 0
0.000000 0.000000 0
0.000000 0.000000 0
0.000000 0.000000 0
0.000000 0.000000 0
0.000000 0.000000 0
0.000000 0.000000 0
0.000000 0.000000 0
0.000000 0.000000 0
0.000000 0.000000 0
0.000000 0.000000 0
0.000000 0.000000 0
0.000000 0.000000 0
0.000000 0.000000 0
0.000000 0.000000 0
0.000000 0.000000 0
0.000000 0.000000 0
0.482553 -0.150470 0