# vtk DataFile Version 2.0
generated by CFD-lab course output (written by Tobias Neckel) 
ASCII

DATASET STRUCTURED_GRID
DIMENSIONS  82 60 1 
POINTS 4920 float

-1.500000 -0.500000 0
-1.402439 -0.500000 0
-1.304878 -0.500000 0
-1.207317 -0.500000 0
-1.109756 -0.500000 0
-1.012195 -0.500000 0
-0.914634 -0.500000 0
-0.817073 -0.500000 0
-0.719512 -0.500000 0
-0.621951 -0.500000 0
-0.524390 -0.500000 0
-0.426829 -0.500000 0
-0.329268 -0.500000 0
-0.231707 -0.500000 0
-0.134146 -0.500000 0
-0.036585 -0.500000 0
0.060976 -0.500000 0
0.158537 -0.500000 0
0.256098 -0.500000 0
0.353659 -0.500000 0
0.451220 -0.500000 0
0.548780 -0.500000 0
0.646341 -0.500000 0
0.743902 -0.500000 0
0.841463 -0.500000 0
0.939024 -0.500000 0
1.036585 -0.500000 0
1.134146 -0.500000 0
1.231707 -0.500000 0
1.329268 -0.500000 0
1.426829 -0.500000 0
1.524390 -0.500000 0
1.621951 -0.500000 0
1.719512 -0.500000 0
1.817073 -0.500000 0
1.914634 -0.500000 0
2.012195 -0.500000 0
2.109756 -0.500000 0
2.207317 -0.500000 0
2.304878 -0.500000 0
2.402439 -0.500000 0
2.500000 -0.500000 0
2.597561 -0.500000 0
2.695122 -0.500000 0
2.792683 -0.500000 0
2.890244 -0.500000 0
2.987805 -0.500000 0
3.085366 -0.500000 0
3.182927 -0.500000 0
3.280488 -0.500000 0
3.378049 -0.500000 0
3.475610 -0.500000 0
3.573171 -0.500000 0
3.670732 -0.500000 0
3.768293 -0.500000 0
3.865854 -0.500000 0
3.963415 -0.500000 0
4.060976 -0.500000 0
4.158537 -0.500000 0
4.256098 -0.500000 0
4.353659 -0.500000 0
4.451220 -0.500000 0
4.548780 -0.500000 0
4.646341 -0.500000 0
4.743902 -0.500000 0
4.841463 -0.500000 0
4.939024 -0.500000 0
5.036585 -0.500000 0
5.134146 -0.500000 0
5.231707 -0.500000 0
5.329268 -0.500000 0
5.426829 -0.500000 0
5.524390 -0.500000 0
5.621951 -0.500000 0
5.719512 -0.500000 0
5.817073 -0.500000 0
5.914634 -0.500000 0
6.012195 -0.500000 0
6.109756 -0.500000 0
6.207317 -0.500000 0
6.304878 -0.500000 0
6.402439 -0.500000 0
-1.500000 -0.451667 0
-1.402439 -0.451667 0
-1.304878 -0.451667 0
-1.207317 -0.451667 0
-1.109756 -0.451667 0
-1.012195 -0.451667 0
-0.914634 -0.451667 0
-0.817073 -0.451667 0
-0.719512 -0.451667 0
-0.621951 -0.451667 0
-0.524390 -0.451667 0
-0.426829 -0.451667 0
-0.329268 -0.451667 0
-0.231707 -0.451667 0
-0.134146 -0.451667 0
-0.036585 -0.451667 0
0.060976 -0.451667 0
0.158537 -0.451667 0
0.256098 -0.451667 0
0.353659 -0.451667 0
0.451220 -0.451667 0
0.548780 -0.451667 0
0.646341 -0.451667 0
0.743902 -0.451667 0
0.841463 -0.451667 0
0.939024 -0.451667 0
1.036585 -0.451667 0
1.134146 -0.451667 0
1.231707 -0.451667 0
1.329268 -0.451667 0
1.426829 -0.451667 0
1.524390 -0.451667 0
1.621951 -0.451667 0
1.719512 -0.451667 0
1.817073 -0.451667 0
1.914634 -0.451667 0
2.012195 -0.451667 0
2.109756 -0.451667 0
2.207317 -0.451667 0
2.304878 -0.451667 0
2.402439 -0.451667 0
2.500000 -0.451667 0
2.597561 -0.451667 0
2.695122 -0.451667 0
2.792683 -0.451667 0
2.890244 -0.451667 0
2.987805 -0.451667 0
3.085366 -0.451667 0
3.182927 -0.451667 0
3.280488 -0.451667 0
3.378049 -0.451667 0
3.475610 -0.451667 0
3.573171 -0.451667 0
3.670732 -0.451667 0
3.768293 -0.451667 0
3.865854 -0.451667 0
3.963415 -0.451667 0
4.060976 -0.451667 0
4.158537 -0.451667 0
4.256098 -0.451667 0
4.353659 -0.451667 0
4.451220 -0.451667 0
4.548780 -0.451667 0
4.646341 -0.451667 0
4.743902 -0.451667 0
4.841463 -0.451667 0
4.939024 -0.451667 0
5.036585 -0.451667 0
5.134146 -0.451667 0
5.231707 -0.451667 0
5.329268 -0.451667 0
5.426829 -0.451667 0
5.524390 -0.451667 0
5.621951 -0.451667 0
5.719512 -0.451667 0
5.817073 -0.451667 0
5.914634 -0.451667 0
6.012195 -0.451667 0
6.109756 -0.451667 0
6.207317 -0.451667 0
6.304878 -0.451667 0
6.402439 -0.451667 0
-1.500000 -0.403333 0
-1.402439 -0.403333 0
-1.304878 -0.403333 0
-1.207317 -0.403333 0
-1.109756 -0.403333 0
-1.012195 -0.403333 0
-0.914634 -0.403333 0
-0.817073 -0.403333 0
-0.719512 -0.403333 0
-0.621951 -0.403333 0
-0.524390 -0.403333 0
-0.426829 -0.403333 0
-0.329268 -0.403333 0
-0.231707 -0.403333 0
-0.134146 -0.403333 0
-0.036585 -0.403333 0
0.060976 -0.403333 0
0.158537 -0.403333 0
0.256098 -0.403333 0
0.353659 -0.403333 0
0.451220 -0.403333 0
0.548780 -0.403333 0
0.646341 -0.403333 0
0.743902 -0.403333 0
0.841463 -0.403333 0
0.939024 -0.403333 0
1.036585 -0.403333 0
1.134146 -0.403333 0
1.231707 -0.403333 0
1.329268 -0.403333 0
1.426829 -0.403333 0
1.524390 -0.403333 0
1.621951 -0.403333 0
1.719512 -0.403333 0
1.817073 -0.403333 0
1.914634 -0.403333 0
2.012195 -0.403333 0
2.109756 -0.403333 0
2.207317 -0.403333 0
2.304878 -0.403333 0
2.402439 -0.403333 0
2.500000 -0.403333 0
2.597561 -0.403333 0
2.695122 -0.403333 0
2.792683 -0.403333 0
2.890244 -0.403333 0
2.987805 -0.403333 0
3.085366 -0.403333 0
3.182927 -0.403333 0
3.280488 -0.403333 0
3.378049 -0.403333 0
3.475610 -0.403333 0
3.573171 -0.403333 0
3.670732 -0.403333 0
3.768293 -0.403333 0
3.865854 -0.403333 0
3.963415 -0.403333 0
4.060976 -0.403333 0
4.158537 -0.403333 0
4.256098 -0.403333 0
4.353659 -0.403333 0
4.451220 -0.403333 0
4.548780 -0.403333 0
4.646341 -0.403333 0
4.743902 -0.403333 0
4.841463 -0.403333 0
4.939024 -0.403333 0
5.036585 -0.403333 0
5.134146 -0.403333 0
5.231707 -0.403333 0
5.329268 -0.403333 0
5.426829 -0.403333 0
5.524390 -0.403333 0
5.621951 -0.403333 0
5.719512 -0.403333 0
5.817073 -0.403333 0
5.914634 -0.403333 0
6.012195 -0.403333 0
6.109756 -0.403333 0
6.207317 -0.403333 0
6.304878 -0.403333 0
6.402439 -0.403333 0
-1.500000 -0.355000 0
-1.402439 -0.355000 0
-1.304878 -0.355000 0
-1.207317 -0.355000 0
-1.109756 -0.355000 0
-1.012195 -0.355000 0
-0.914634 -0.355000 0
-0.817073 -0.355000 0
-0.719512 -0.355000 0
-0.621951 -0.355000 0
-0.524390 -0.355000 0
-0.426829 -0.355000 0
-0.329268 -0.355000 0
-0.231707 -0.355000 0
-0.134146 -0.355000 0
-0.036585 -0.355000 0
0.060976 -0.355000 0
0.158537 -0.355000 0
0.256098 -0.355000 0
0.353659 -0.355000 0
0.451220 -0.355000 0
0.548780 -0.355000 0
0.646341 -0.355000 0
0.743902 -0.355000 0
0.841463 -0.355000 0
0.939024 -0.355000 0
1.036585 -0.355000 0
1.134146 -0.355000 0
1.231707 -0.355000 0
1.329268 -0.355000 0
1.426829 -0.355000 0
1.524390 -0.355000 0
1.621951 -0.355000 0
1.719512 -0.355000 0
1.817073 -0.355000 0
1.914634 -0.355000 0
2.012195 -0.355000 0
2.109756 -0.355000 0
2.207317 -0.355000 0
2.304878 -0.355000 0
2.402439 -0.355000 0
2.500000 -0.355000 0
2.597561 -0.355000 0
2.695122 -0.355000 0
2.792683 -0.355000 0
2.890244 -0.355000 0
2.987805 -0.355000 0
3.085366 -0.355000 0
3.182927 -0.355000 0
3.280488 -0.355000 0
3.378049 -0.355000 0
3.475610 -0.355000 0
3.573171 -0.355000 0
3.670732 -0.355000 0
3.768293 -0.355000 0
3.865854 -0.355000 0
3.963415 -0.355000 0
4.060976 -0.355000 0
4.158537 -0.355000 0
4.256098 -0.355000 0
4.353659 -0.355000 0
4.451220 -0.355000 0
4.548780 -0.355000 0
4.646341 -0.355000 0
4.743902 -0.355000 0
4.841463 -0.355000 0
4.939024 -0.355000 0
5.036585 -0.355000 0
5.134146 -0.355000 0
5.231707 -0.355000 0
5.329268 -0.355000 0
5.426829 -0.355000 0
5.524390 -0.355000 0
5.621951 -0.355000 0
5.719512 -0.355000 0
5.817073 -0.355000 0
5.914634 -0.355000 0
6.012195 -0.355000 0
6.109756 -0.355000 0
6.207317 -0.355000 0
6.304878 -0.355000 0
6.402439 -0.355000 0
-1.500000 -0.306667 0
-1.402439 -0.306667 0
-1.304878 -0.306667 0
-1.207317 -0.306667 0
-1.109756 -0.306667 0
-1.012195 -0.306667 0
-0.914634 -0.306667 0
-0.817073 -0.306667 0
-0.719512 -0.306667 0
-0.621951 -0.306667 0
-0.524390 -0.306667 0
-0.426829 -0.306667 0
-0.329268 -0.306667 0
-0.231707 -0.306667 0
-0.134146 -0.306667 0
-0.036585 -0.306667 0
0.060976 -0.306667 0
0.158537 -0.306667 0
0.256098 -0.306667 0
0.353659 -0.306667 0
0.451220 -0.306667 0
0.548780 -0.306667 0
0.646341 -0.306667 0
0.743902 -0.306667 0
0.841463 -0.306667 0
0.939024 -0.306667 0
1.036585 -0.306667 0
1.134146 -0.306667 0
1.231707 -0.306667 0
1.329268 -0.306667 0
1.426829 -0.306667 0
1.524390 -0.306667 0
1.621951 -0.306667 0
1.719512 -0.306667 0
1.817073 -0.306667 0
1.914634 -0.306667 0
2.012195 -0.306667 0
2.109756 -0.306667 0
2.207317 -0.306667 0
2.304878 -0.306667 0
2.402439 -0.306667 0
2.500000 -0.306667 0
2.597561 -0.306667 0
2.695122 -0.306667 0
2.792683 -0.306667 0
2.890244 -0.306667 0
2.987805 -0.306667 0
3.085366 -0.306667 0
3.182927 -0.306667 0
3.280488 -0.306667 0
3.378049 -0.306667 0
3.475610 -0.306667 0
3.573171 -0.306667 0
3.670732 -0.306667 0
3.768293 -0.306667 0
3.865854 -0.306667 0
3.963415 -0.306667 0
4.060976 -0.306667 0
4.158537 -0.306667 0
4.256098 -0.306667 0
4.353659 -0.306667 0
4.451220 -0.306667 0
4.548780 -0.306667 0
4.646341 -0.306667 0
4.743902 -0.306667 0
4.841463 -0.306667 0
4.939024 -0.306667 0
5.036585 -0.306667 0
5.134146 -0.306667 0
5.231707 -0.306667 0
5.329268 -0.306667 0
5.426829 -0.306667 0
5.524390 -0.306667 0
5.621951 -0.306667 0
5.719512 -0.306667 0
5.817073 -0.306667 0
5.914634 -0.306667 0
6.012195 -0.306667 0
6.109756 -0.306667 0
6.207317 -0.306667 0
6.304878 -0.306667 0
6.402439 -0.306667 0
-1.500000 -0.258333 0
-1.402439 -0.258333 0
-1.304878 -0.258333 0
-1.207317 -0.258333 0
-1.109756 -0.258333 0
-1.012195 -0.258333 0
-0.914634 -0.258333 0
-0.817073 -0.258333 0
-0.719512 -0.258333 0
-0.621951 -0.258333 0
-0.524390 -0.258333 0
-0.426829 -0.258333 0
-0.329268 -0.258333 0
-0.231707 -0.258333 0
-0.134146 -0.258333 0
-0.036585 -0.258333 0
0.060976 -0.258333 0
0.158537 -0.258333 0
0.256098 -0.258333 0
0.353659 -0.258333 0
0.451220 -0.258333 0
0.548780 -0.258333 0
0.646341 -0.258333 0
0.743902 -0.258333 0
0.841463 -0.258333 0
0.939024 -0.258333 0
1.036585 -0.258333 0
1.134146 -0.258333 0
1.231707 -0.258333 0
1.329268 -0.258333 0
1.426829 -0.258333 0
1.524390 -0.258333 0
1.621951 -0.258333 0
1.719512 -0.258333 0
1.817073 -0.258333 0
1.914634 -0.258333 0
2.012195 -0.258333 0
2.109756 -0.258333 0
2.207317 -0.258333 0
2.304878 -0.258333 0
2.402439 -0.258333 0
2.500000 -0.258333 0
2.597561 -0.258333 0
2.695122 -0.258333 0
2.792683 -0.258333 0
2.890244 -0.258333 0
2.987805 -0.258333 0
3.085366 -0.258333 0
3.182927 -0.258333 0
3.280488 -0.258333 0
3.378049 -0.258333 0
3.475610 -0.258333 0
3.573171 -0.258333 0
[...]
POINT_DATA 4920 

VECTORS velocity float
0.000000 0.000000 0
0.000000 0.000000 0
0.000000 0.000000 0
0.000000 0.000000 0
0.000000 0.000000 0
0.000000 0.000000 0
0.000000 0.000000 0
0.000000 0.000000 0
0.000000 0.000000 0
0.000000 0.000000 0
0.000000 0.000000 0
0.000000 0.000000 0
0.000000 0.000000 0
0.000000 0.000000 0
0.000000 0.000000 0
-0.000004 0.000000 0
-0.000006 0.000000 0
-0.000008 0.000000 0
-0.000008 0.000000 0
-0.000007 0.000000 0
-0.000006 0.000000 0
-0.000006 0.000000 0
-0.000005 0.000000 0
-0.000006 0.000000 0
-0.000006 0.000000 0
-0.000007 0.000000 0
-0.000007 0.000000 0
-0.000007 0.000000 0
-0.000007 0.000000 0
-0.000007 0.000000 0
-0.000006 0.000000 0
-0.000006 0.000000 0
-0.000005 0.000000 0
-0.000005 0.000000 0
-0.000005 0.000000 0
-0.000004 0.000000 0
-0.000004 0.000000 0
-0.000005 0.000000 0
-0.000005 0.000000 0
-0.000005 0.000000 0
-0.000005 0.000000 0
-0.000005 0.000000 0
-0.000005 0.000000 0
-0.000005 0.000000 0
-0.000005 0.000000 0
-0.000005 0.000000 0
-0.000005 0.000000 0
-0.000005 0.000000 0
-0.000005 0.000000 0
-0.000005 0.000000 0
-0.000006 0.000000 0
-0.000006 0.000000 0
-0.000006 0.000000 0
-0.000007 0.000000 0
-0.000007 0.000000 0
-0.000007 0.000000 0
0.000000 0.000000 0
0.001935 0.000000 0
0.000000 0.000000 0
0.000000 0.000000 0
0.000000 0.000000 0
0.000000 0.000000 0
0.000000 0.000000 0
0.000000 0.000000 0
0.000000 0.000000 0
0.000000 0.000000 0
0.000000 0.000000 0
0.000000 0.000000 0
0.000000 0.000000 0
0.000000 0.000000 0
0.000000 0.000000 0
0.000000 0.000000 0
0.000000 0.000000 0
0.000000 0.000000 0
0.000000 0.000000 0
0.000000 0.000000 0
0.000000 0.000000 0
0.000000 0.000000 0
0.000000 0.000000 0
0.000000 0.000000 0
0.000000 0.000000 0
0.000000 0.000000 0
0.000000 0.000000 0
0.000000 0.000000 0
0.000000 0.000000 0
0.000000 0.000000 0
0.000000 0.000000 0
0.000000 0.000000 0
0.000000 0.000000 0
0.000000 0.000000 0
0.000000 0.000000 0
0.000000 0.000000 0
0.000000 0.000000 0
0.000000 0.000000 0
0.000000 0.000000 0
0.000000 0.000000 0
1.046088 -0.422405 0
2.517700 -0.738040 0
3.779060 -0.505092 0
4.622074 -0.265396 0
5.055563 -0.070114 0
5.166509 0.061967 0
5.062525 0.139809 0
4.828872 0.177839 0
4.529722 0.186608 0
4.212012 0.175087 0
3.908081 0.151160 0
3.637733 0.121581 0
3.410405 0.091665 0
3.227660 0.064999 0
3.085874 0.043426 0
2.978697 0.027351 0
2.898966 0.016231 0
2.839926 0.009085 0
2.795850 0.004854 0
2.762215 0.002611 0
2.735640 0.001636 0
2.713696 0.001415 0
2.694699 0.001608 0
2.677498 0.002005 0
2.661304 0.002498 0
2.645544 0.003045 0
2.629743 0.003652 0
2.613428 0.004365 0
2.596040 0.005262 0
2.576848 0.006453 0
2.554851 0.008088 0
2.528657 0.010369 0
2.496328 0.013561 0
2.455175 0.018014 0
2.401497 0.024175 0
2.330245 0.032590 0
2.234659 0.043863 0
2.105915 0.058473 0
1.933170 0.076483 0
1.704006 0.096400 0
1.408599 0.115059 0
1.038100 0.130474 0
0.616480 0.068660 0
-0.000000 0.000000 0
-0.001552 0.000000 0
0.000000 0.000000 0
0.000000 0.000000 0
0.000000 0.000000 0
0.000000 0.000000 0
0.000000 0.000000 0
0.000000 0.000000 0
0.000000 0.000000 0
0.000000 0.000000 0
0.000000 0.000000 0
0.000000 0.000000 0
0.000000 0.000000 0
0.000000 0.000000 0
0.000000 0.000000 0
0.000000 0.000000 0
0.000000 0.000000 0
0.000000 0.000000 0
0.000000 0.000000 0
0.000000 0.000000 0
0.000000 0.000000 0
0.000000 0.000000 0
0.000000 0.000000 0
0.000000 0.000000 0
0.000000 0.000000 0
0.000000 0.000000 0
0.000000 0.000000 0
0.000000 0.000000 0
0.000000 0.000000 0
0.000000 0.000000 0
0.000000 0.000000 0
0.000000 0.000000 0
0.000000 0.000000 0
0.000000 0.000000 0
0.000000 0.000000 0
0.000000 0.000000 0
0.000000 0.000000 0
0.000000 0.000000 0
1.159285 -0.516838 0
2.653088 -1.245694 0
3.827854 -1.353755 0
5.001775 -1.042542 0
5.863197 -0.632401 0
6.390324 -0.269722 0
6.646500 -0.003449 0
6.706193 0.167271 0
6.637538 0.263960 0
6.490079 0.305602 0
6.300037 0.307971 0
6.093514 0.284507 0
5.888652 0.246557 0
5.697241 0.203157 0
5.526012 0.160778 0
5.377786 0.123340 0
5.252551 0.092598 0
5.148445 0.068750 0
5.062608 0.051085 0
4.991847 0.038499 0
4.933080 0.029829 0
4.883593 0.024037 0
4.841134 0.020283 0
4.803913 0.017933 0
4.770540 0.016544 0
4.739935 0.015831 0
4.711231 0.015636 0
4.683682 0.015911 0
4.656572 0.016697 0
4.629120 0.018122 0
4.600389 0.020406 0
4.569163 0.023875 0
4.533811 0.028994 0
4.492095 0.036404 0
4.440912 0.046981 0
4.375948 0.061892 0
4.291205 0.082654 0
4.178364 0.111137 0
4.025985 0.149363 0
3.818591 0.199113 0
3.536022 0.259881 0
3.154039 0.329901 0
2.646936 0.391920 0
2.014652 0.511972 0
1.050921 0.303604 0
-0.000000 0.000000 0
-0.004717 0.000000 0
0.000000 0.000000 0
0.000000 0.000000 0
0.000000 0.000000 0
0.000000 0.000000 0
0.000000 0.000000 0
0.000000 0.000000 0
0.000000 0.000000 0
0.000000 0.000000 0
0.000000 0.000000 0
0.000000 0.000000 0
0.000000 0.000000 0
0.000000 0.000000 0
0.000000 0.000000 0
0.000000 0.000000 0
0.000000 0.000000 0
0.000000 0.000000 0
0.000000 0.000000 0
0.000000 0.000000 0
0.000000 0.000000 0
0.000000 0.000000 0
0.000000 0.000000 0
0.000000 0.000000 0
0.000000 0.000000 0
0.000000 0.000000 0
0.000000 0.000000 0
0.000000 0.000000 0
0.000000 0.000000 0
0.000000 0.000000 0
0.000000 0.000000 0
0.000000 0.000000 0
0.000000 0.000000 0
0.000000 0.000000 0
0.000000 0.000000 0
0.000000 0.000000 0
0.935777 -0.582365 0
2.633892 -1.321009 0
3.461568 -1.743047 0
4.644122 -1.901619 0
5.707469 -1.513436 0
6.430624 -0.953306 0
6.855577 -0.458175 0
7.078854 -0.094520 0
7.166976 0.144249 0
7.168769 0.284906 0
7.117455 0.353812 0
7.035294 0.371552 0
6.937182 0.354967 0
6.833236 0.317902 0
6.730428 0.271323 0
6.633448 0.223262 0
6.545135 0.178903 0
6.466789 0.140970 0
6.398497 0.110332 0
6.339513 0.086666 0
6.288624 0.069024 0
6.244460 0.056242 0
6.205694 0.047188 0
6.171154 0.040890 0
6.139866 0.036581 0
6.111041 0.033701 0
6.084043 0.031881 0
6.058336 0.030913 0
6.033433 0.030731 0
6.008838 0.031396 0
5.983983 0.033096 0
5.958156 0.036157 0
5.930416 0.041072 0
5.899473 0.048550 0
5.863530 0.059585 0
5.820058 0.075555 0
5.765473 0.098343 0
5.694664 0.130477 0
5.600282 0.175257 0
5.471720 0.236710 0
5.293468 0.319219 0
5.043429 0.425631 0
4.689767 0.555527 0
4.199966 0.694945 0
3.530314 0.855593 0
2.832162 0.996716 0
1.343975 0.523027 0
-0.000001 0.000000 0
-0.005828 0.000000 0
0.000000 0.000000 0
0.000000 0.000000 0
0.000000 0.000000 0
0.000000 0.000000 0
0.000000 0.000000 0
0.000000 0.000000 0
0.000000 0.000000 0
0.000000 0.000000 0
0.000000 0.000000 0
0.000000 0.000000 0
0.000000 0.000000 0
0.000000 0.000000 0
0.000000 0.000000 0
0.000000 0.000000 0
0.000000 0.000000 0
0.000000 0.000000 0
0.000000 0.000000 0
0.000000 0.000000 0
0.000000 0.000000 0
0.000000 0.000000 0
0.000000 0.000000 0
0.000000 0.000000 0
0.000000 0.000000 0
0.000000 0.000000 0
0.000000 0.000000 0
0.000000 0.000000 0
0.000000 0.000000 0
0.000000 0.000000 0
0.000000 0.000000 0
0.000000 0.000000 0
0.000000 0.000000 0
0.000000 0.000000 0
0.738100 -0.467213 0
2.143731 -1.316523 0
3.089562 -1.776193 0
3.863986 -2.241596 0
5.206806 -2.466412 0
6.162307 -1.927605 0
6.687812 -1.201193 0
6.945720 -0.590866 0
7.064495 -0.157721 0
7.111069 0.122726 0
7.115054 0.288493 0
7.096836 0.371728 0
7.067880 0.397282 0
7.033944 0.384610 0
6.997809 0.348986 0
6.961095 0.302136 0
6.925082 0.252575 0
6.890874 0.205906 0
6.859310 0.165244 0
6.830855 0.131805 0
6.805598 0.105519 0
6.783328 0.085590 0
6.763658 0.070914 0
6.746126 0.060354 0
6.730279 0.052895 0
6.715712 0.047714 0
6.702083 0.044200 0
6.689108 0.041942 0
6.676541 0.040709 0
6.664154 0.040433 0
6.651706 0.041196 0
6.638910 0.043231 0
6.625393 0.046943 0
6.610642 0.052947 0
6.593933 0.062130 0
6.574227 0.075747 0
6.550016 0.095560 0
6.519084 0.124015 0
6.478131 0.164493 0
6.422138 0.221587 0
6.343297 0.301364 0
6.229006 0.411295 0
6.058863 0.558965 0
5.799148 0.747766 0
5.406510 0.966333 0
4.837832 1.189605 0
4.168470 1.388945 0
3.379736 1.410373 0
1.502911 0.670908 0
-0.000001 0.000000 0
-0.005312 0.000000 0
0.000000 0.000000 0
0.000000 0.000000 0
0.000000 0.000000 0
0.000000 0.000000 0
0.000000 0.000000 0
0.000000 0.000000 0
0.000000 0.000000 0
0.000000 0.000000 0
0.000000 0.000000 0
0.000000 0.000000 0
0.000000 0.000000 0
0.000000 0.000000 0
0.000000 0.000000 0
0.000000 0.000000 0
0.000000 0.000000 0
0.000000 0.000000 0
0.000000 0.000000 0
0.000000 0.000000 0
0.000000 0.000000 0
0.000000 0.000000 0
0.000000 0.000000 0
0.000000 0.000000 0
0.000000 0.000000 0
0.000000 0.000000 0
0.000000 0.000000 0
0.000000 0.000000 0
0.000000 0.000000 0
0.000000 0.000000 0
0.000000 0.000000 0
0.000000 0.000000 0
0.535927 -0.369131 0
1.697989 -1.069117 0
2.544595 -1.750932 0
3.299953 -2.173252 0
4.125705 -2.791965 0
5.617917 -3.040246 0
6.350819 -2.247151 0
6.583542 -1.341422 0
6.617113 -0.644791 0
6.605066 -0.176437 0
6.590392 0.119201 0
6.580350 0.291957 0
6.579079 0.377183 0
6.585992 0.402710 0
6.598198 0.389682 0
6.612277 0.353992 0
6.625560 0.307353 0
6.636573 0.258051 0
6.644911 0.211488 0
6.650852 0.170704 0
6.654973 0.136942 0
6.657880 0.110211 0
6.660065 0.089802 0
6.661874 0.074673 0
6.663517 0.063725 0
6.665106 0.055958 0
6.666688 0.050549 0
6.668275 0.046882 0
6.669857 0.044535 0
6.671415 0.043276 0
6.672927 0.043034 0
6.674368 0.043902 0
6.675708 0.046132 0
6.676906 0.050161 0
6.677898 0.056658 0
6.678582 0.066590 0
6.678782 0.081342 0
6.678191 0.102874 0
6.676259 0.133955 0
6.671984 0.178506 0
6.663471 0.242056 0
6.647046 0.332391 0
6.615232 0.460132 0
6.552659 0.638589 0
6.427547 0.878713 0
6.183548 1.171197 0
5.772101 1.468938 0
5.222058 1.719080 0
4.583932 1.851775 0
3.675435 1.687709 0
1.560161 0.749713 0
-0.000001 0.000000 0
-0.004053 0.000000 0
0.000000 0.000000 0
0.000000 0.000000 0
0.000000 0.000000 0
0.000000 0.000000 0
0.000000 0.000000 0
0.000000 0.000000 0
0.000000 0.000000 0
0.000000 0.000000 0
0.000000 0.000000 0
0.000000 0.000000 0
0.000000 0.000000 0
0.000000 0.000000 0
0.000000 0.000000 0
0.000000 0.000000 0
0.000000 0.000000 0
0.000000 0.000000 0
0.000000 0.000000 0
0.000000 0.000000 0
0.000000 0.000000 0
0.000000 0.000000 0
0.000000 0.000000 0
0.000000 0.000000 0
0.000000 0.000000 0
0.000000 0.000000 0
0.000000 0.000000 0
0.000000 0.000000 0
0.000000 0.000000 0
0.000000 0.000000 0
0.376260 -0.266831 0
1.296838 -0.846000 0
2.060900 -1.465804 0
2.753750 -2.110163 0
3.394208 -2.559502 0
4.280053 -3.389954 0
5.829766 -3.568771 0
6.150348 -2.405992 0
5.980234 -1.333119 0
5.741540 -0.601529 0
5.589202 -0.144484 0
5.513213 0.134971 0
5.500310 0.294098 0
5.530656 0.368932 0
5.586443 0.387810 0
5.654182 0.371589 0
5.724158 0.335431 0
5.790194 0.290099 0
5.849046 0.242988 0
5.899622 0.198832 0
5.942211 0.160259 0
5.977838 0.128323 0
6.007782 0.102996 0
6.033299 0.083611 0
6.055472 0.069204 0
6.075175 0.058753 0
6.093072 0.051323 0
6.109660 0.046144 0
6.125301 0.042630 0
6.140266 0.040386 0
6.154771 0.039188 0
6.169010 0.038970 0
6.183181 0.039818 0
6.197520 0.041974 0
6.212326 0.045859 0
6.227996 0.052117 0
6.245067 0.061692 0
6.264257 0.075941 0
6.286520 0.096809 0
6.313088 0.127090 0
6.345479 0.170829 0
6.385373 0.233941 0
6.434155 0.325262 0
6.491350 0.458057 0
6.550228 0.651947 0
6.586170 0.930630 0
6.525417 1.291052 0
6.296154 1.665944 0
5.922035 1.977584 0
5.435469 2.176596 0
4.798903 2.179304 0
3.776780 1.835170 0
1.548505 0.776858 0
-0.000001 0.000000 0
-0.002726 0.000000 0
0.000000 0.000000 0
0.000000 0.000000 0
0.000000 0.000000 0
0.000000 0.000000 0
0.000000 0.000000 0
0.000000 0.000000 0
0.000000 0.000000 0
0.000000 0.000000 0
0.000000 0.000000 0
0.000000 0.000000 0
0.000000 0.000000 0
0.000000 0.000000 0
0.000000 0.000000 0
0.000000 0.000000 0
0.000000 0.000000 0
0.000000 0.000000 0
0.000000 0.000000 0
0.000000 0.000000 0
0.000000 0.000000 0
0.000000 0.000000 0
0.000000 0.000000 0
0.000000 0.000000 0
0.000000 0.000000 0
0.000000 0.000000 0
0.000000 0.000000 0
0.000000 0.000000 0
0.267795 -0.186348 0
0.995500 -0.643742 0
1.701994 -1.205054 0
2.319395 -1.790896 0
2.880084 -2.411475 0
3.395108 -2.929408 0
4.283566 -3.998581 0
5.742694 -3.966821 0
5.400143 -2.321696 0
4.736864 -1.138892 0
4.208146 -0.451066 0
3.919190 -0.063320 0
3.815560 0.163240 0
3.847123 0.283316 0
3.953194 0.334511 0
4.093246 0.341513 0
4.243217 0.321456 0
4.388500 0.286609 0
4.521128 0.245481 0
4.637579 0.203839 0
4.737213 0.165332 0
4.821129 0.131955 0
4.891321 0.104457 0
4.950088 0.082735 0
4.999671 0.066175 0
5.042059 0.053927 0
5.078917 0.045097 0
5.111582 0.038873 0
5.141100 0.034583 0
5.168280 0.031719 0
5.193759 0.029935 0
5.218055 0.029036 0
5.241636 0.028960 0
5.264969 0.029778 0
5.288583 0.031693 0
5.313136 0.035063 0
5.339488 0.040437 0
5.368806 0.048626 0
5.402683 0.060805 0
5.443311 0.078682 0
5.493692 0.104746 0
5.557901 0.142695 0
5.641382 0.198125 0
5.751141 0.279888 0
5.895458 0.402628 0
6.080099 0.591614 0
6.299486 0.891005 0
6.454108 1.314876 0
6.418548 1.767864 0
6.247269 2.145478 0
5.950081 2.408193 0
5.515477 2.509451 0
4.850941 2.369461 0
3.742081 1.883004 0
1.494701 0.769633 0
-0.000001 0.000000 0
-0.001731 0.000000 0
0.000000 0.000000 0
0.000000 0.000000 0
0.000000 0.000000 0
0.000000 0.000000 0
0.000000 0.000000 0
0.000000 0.000000 0
0.000000 0.000000 0
0.000000 0.000000 0
0.000000 0.000000 0
0.000000 0.000000 0
0.000000 0.000000 0
0.000000 0.000000 0
0.000000 0.000000 0
0.000000 0.000000 0
0.000000 0.000000 0
0.000000 0.000000 0
0.000000 0.000000 0
0.000000 0.000000 0
0.000000 0.000000 0
0.000000 0.000000 0
0.000000 0.000000 0
0.000000 0.000000 0
0.000000 0.000000 0
0.000000 0.000000 0
0.209097 -0.131774 0
0.805108 -0.492233 0
1.468158 -0.977300 0
2.052418 -1.501879 0
2.534893 -2.049450 0
2.938774 -2.643089 0
3.297609 -3.254810 0
4.067878 -4.552987 0
5.217842 -4.121941 0
3.915418 -1.907687 0
2.773727 -0.742584 0
2.000428 -0.196440 0
1.717156 0.050010 0
1.747908 0.170674 0
1.908605 0.225911 0
2.128143 0.246999 0
2.367670 0.244128 0
2.604155 0.225315 0
2.822916 0.197749 0
3.016631 0.166701 0
3.182790 0.135937 0
3.321969 0.107898 0
3.436600 0.083911 0
3.530050 0.064434 0
3.605971 0.049318 0
3.667876 0.038048 0
3.718888 0.029945 0
3.761638 0.024310 0
3.798248 0.020517 0
3.830380 0.018054 0
3.859310 0.016542 0
3.886022 0.015727 0
3.911302 0.015469 0
3.935830 0.015728 0
3.960271 0.016560 0
3.985366 0.018111 0
4.012032 0.020639 0
4.041479 0.024537 0
4.075361 0.030384 0
4.115975 0.039030 0
4.166544 0.051722 0
4.231596 0.070321 0
4.317513 0.097660 0
4.433327 0.138207 0
4.591733 0.199389 0
4.811367 0.295085 0
5.114102 0.451785 0
5.540602 0.745339 0
5.972222 1.232066 0
6.146390 1.768415 0
6.203408 2.209670 0
6.129236 2.539138 0
5.904532 2.723836 0
5.487925 2.713740 0
4.782245 2.446711 0
3.621667 1.862277 0
1.421070 0.741771 0
-0.000001 0.000000 0
-0.001258 0.000000 0
0.000000 0.000000 0
0.000000 0.000000 0
0.000000 0.000000 0
0.000000 0.000000 0
0.000000 0.000000 0
0.000000 0.000000 0
0.000000 0.000000 0
0.000000 0.000000 0
0.000000 0.000000 0
0.000000 0.000000 0
0.000000 0.000000 0
0.000000 0.000000 0
0.000000 0.000000 0
0.000000 0.000000 0
0.000000 0.000000 0
0.000000 0.000000 0
0.000000 0.000000 0
0.000000 0.000000 0
0.000000 0.000000 0
0.000000 0.000000 0
0.000000 0.000000 0
0.000000 0.000000 0
0.195208 -0.102223 0
0.724061 -0.396600 0
1.360166 -0.809211 0
1.928188 -1.261680 0
2.381257 -1.733532 0
2.709417 -2.230011 0
2.934539 -2.789338 0
3.100814 -3.488784 0
3.570733 -4.949896 0
4.019985 -3.891290 0
1.555666 -1.110840 0
0.420053 -0.190174 0
0.056759 0.072377 0
0.023539 0.061783 0
0.157704 0.068392 0
0.368045 0.094941 0
0.613708 0.107083 0
0.866612 0.105688 0
1.106480 0.095919 0
1.321412 0.082262 0
1.505637 0.067194 0
1.657898 0.052569 0
1.780025 0.039590 0
1.875690 0.028868 0
1.949400 0.020548 0
2.005752 0.014454 0
2.048949 0.010234 0
2.082551 0.007475 0
2.109392 0.005781 0
2.131621 0.004817 0
2.150805 0.004332 0
2.168063 0.004153 0
2.184196 0.004178 0
2.199809 0.004360 0
2.215420 0.004700 0
2.231556 0.005236 0
2.248845 0.006049 0
2.268114 0.007264 0
2.290506 0.009063 0
2.317642 0.011719 0
2.351837 0.015632 0
2.396424 0.021401 0
2.456239 0.029954 0
2.538367 0.042754 0
2.653366 0.062271 0
2.817338 0.092601 0
3.055833 0.143837 0
3.412968 0.230338 0
3.967761 0.465879 0
4.889687 1.014759 0
5.371218 1.653330 0
5.749705 2.153977 0
5.961891 2.556261 0
5.984589 2.827167 0
5.802035 2.925461 0
5.376200 2.807579 0
4.634929 2.439444 0
3.460863 1.799326 0
1.348585 0.704484 0
-0.000001 0.000000 0
-0.001430 0.000000 0
0.000000 0.000000 0
0.000000 0.000000 0
0.000000 0.000000 0
0.000000 0.000000 0
0.000000 0.000000 0
0.000000 0.000000 0
0.000000 0.000000 0
0.000000 0.000000 0
0.000000 0.000000 0
0.000000 0.000000 0
0.000000 0.000000 0
0.000000 0.000000 0
0.000000 0.000000 0
0.000000 0.000000 0
0.000000 0.000000 0
0.000000 0.000000 0
0.000000 0.000000 0
0.000000 0.000000 0
0.000000 0.000000 0
0.000000 0.000000 0
0.225047 -0.095016 0
0.750829 -0.355652 0
1.379853 -0.707546 0
1.940642 -1.088778 0
2.379774 -1.483165 0
2.678567 -1.888913 0
2.838239 -2.323555 0
2.877457 -2.836994 0
2.824166 -3.569991 0
2.796119 -5.008360 0
1.634307 -2.999423 0
0.000001 0.000000 0
0.000005 0.000000 0
0.000005 0.000000 0
0.000003 0.000000 0
-0.000000 0.000000 0
-0.000003 0.000000 0
-0.000005 0.000000 0
-0.000006 0.000000 0
-0.000006 0.000000 0
-0.000005 0.000000 0
-0.000005 0.000000 0
-0.000004 0.000000 0
-0.000004 0.000000 0
-0.000004 0.000000 0
-0.000004 0.000000 0
-0.000004 0.000000 0
-0.000005 0.000000 0
-0.000005 0.000000 0
-0.000005 0.000000 0
-0.000005 0.000000 0
-0.000005 0.000000 0
-0.000005 0.000000 0
-0.000005 0.000000 0
-0.000005 0.000000 0
-0.000005 0.000000 0
-0.000005 0.000000 0
-0.000005 0.000000 0
-0.000005 0.000000 0
-0.000005 0.000000 0
-0.000005 0.000000 0
-0.000005 0.000000 0
-0.000005 0.000000 0
-0.000005 0.000000 0
-0.000004 0.000000 0
-0.000004 0.000000 0
-0.000004 0.000000 0
-0.000003 0.000000 0
-0.000001 0.000000 0
0.000004 0.000000 0
2.076705 0.523022 0
3.739996 1.342348 0
4.728609 1.917041 0
5.371678 2.422772 0
5.724463 2.803031 0
5.811579 3.015146 0
5.642878 3.024915 0
5.202262 2.811166 0
4.448203 2.372551 0
3.300230 1.717293 0
1.294252 0.668165 0
-0.000000 0.000000 0
-0.002263 0.000000 0
0.000000 0.000000 0
0.000000 0.000000 0
0.000000 0.000000 0
0.000000 0.000000 0
0.000000 0.000000 0
0.000000 0.000000 0
0.000000 0.000000 0
0.000000 0.000000 0
0.000000 0.000000 0
0.000000 0.000000 0
0.000000 0.000000 0
0.000000 0.000000 0
0.000000 0.000000 0
0.000000 0.000000 0
0.000000 0.000000 0
0.000000 0.000000 0
0.000000 0.000000 0
0.000000 0.000000 0
0.308829 -0.109438 0
0.897048 -0.368226 0
1.541179 -0.672640 0
2.095693 -0.986054 0
2.519152 -1.304589 0
2.796473 -1.627260 0
2.926349 -1.960663 0
2.918151 -2.328545 0
2.784479 -2.782366 0
2.521664 -3.448488 0
2.017208 -4.377436 0
0.037561 0.000009 0
-0.073159 2.448567 0
0.384388 0.000000 0
0.310711 0.000000 0
0.238294 0.000000 0
0.185998 0.000000 0
0.100238 0.000000 0
-0.005646 0.000000 0
-0.115911 0.000000 0
-0.218979 0.000000 0
-0.309524 0.000000 0
-0.385023 0.000000 0
-0.445154 0.000000 0
-0.491133 0.000000 0
-0.525067 0.000000 0
-0.549404 0.000000 0
-0.566543 0.000000 0
-0.578580 0.000000 0
-0.587202 0.000000 0
-0.593670 0.000000 0
-0.598870 0.000000 0
-0.603392 0.000000 0
-0.607613 0.000000 0
-0.611775 0.000000 0
-0.616046 0.000000 0
-0.620576 0.000000 0
-0.625533 0.000000 0
-0.631146 0.000000 0
-0.637743 0.000000 0
-0.645807 0.000000 0
-0.656038 0.000000 0
-0.669463 0.000000 0
-0.687590 0.000000 0
-0.712661 0.000000 0
-0.748053 0.000000 0
-0.798960 0.000000 0
-0.873746 0.000000 0
-0.985873 0.000000 0
-1.164080 0.000000 0
-1.450806 0.129725 0
0.000000 0.000009 0
1.701730 0.342907 0
3.296435 1.345614 0
4.405348 2.062899 0
5.132065 2.609233 0
5.522677 2.965879 0
5.619005 3.109445 0
5.444958 3.031305 0
5.000118 2.741624 0
4.264166 2.268538 0
3.178592 1.636621 0
1.275697 0.641292 0
0.000001 0.000000 0
-0.003963 0.000000 0
0.000000 0.000000 0
0.000000 0.000000 0
0.000000 0.000000 0
0.000000 0.000000 0
0.000000 0.000000 0
0.000000 0.000000 0
0.000000 0.000000 0
0.000000 0.000000 0
0.000000 0.000000 0
0.000000 0.000000 0
0.000000 0.000000 0
0.000000 0.000000 0
0.000000 0.000000 0
0.000000 0.000000 0
0.000000 0.000000 0