# vtk DataFile Version 2.0
generated by CFD-lab course output (written by Tobias Neckel) 
ASCII

DATASET STRUCTURED_GRID
DIMENSIONS  82 60 1 
POINTS 4920 float

-1.500000 -0.500000 0
-1.402439 -0.500000 0
-1.304878 -0.500000 0
-1.207317 -0.500000 0
-1.109756 -0.500000 0
-1.012195 -0.500000 0
-0.914634 -0.500000 0
-0.817073 -0.500000 0
-0.719512 -0.500000 0
-0.621951 -0.500000 0
-0.524390 -0.500000 0
-0.426829 -0.500000 0
-0.329268 -0.500000 0
-0.231707 -0.500000 0
-0.134146 -0.500000 0
-0.036585 -0.500000 0
0.060976 -0.500000 0
0.158537 -0.500000 0
0.256098 -0.500000 0
0.353659 -0.500000 0
0.451220 -0.500000 0
0.548780 -0.500000 0
0.646341 -0.500000 0
0.743902 -0.500000 0
0.841463 -0.500000 0
0.939024 -0.500000 0
1.036585 -0.500000 0
1.134146 -0.500000 0
1.231707 -0.500000 0
1.329268 -0.500000 0
1.426829 -0.500000 0
1.524390 -0.500000 0
1.621951 -0.500000 0
1.719512 -0.500000 0
1.817073 -0.500000 0
1.914634 -0.500000 0
2.012195 -0.500000 0
2.109756 -0.500000 0
2.207317 -0.500000 0
2.304878 -0.500000 0
2.402439 -0.500000 0
2.500000 -0.500000 0
2.597561 -0.500000 0
2.695122 -0.500000 0
2.792683 -0.500000 0
2.890244 -0.500000 0
2.987805 -0.500000 0
3.085366 -0.500000 0
3.182927 -0.500000 0
3.280488 -0.500000 0
3.378049 -0.500000 0
3.475610 -0.500000 0
3.573171 -0.500000 0
3.670732 -0.500000 0
3.768293 -0.500000 0
3.865854 -0.500000 0
3.963415 -0.500000 0
4.060976 -0.500000 0
4.158537 -0.500000 0
4.256098 -0.500000 0
4.353659 -0.500000 0
4.451220 -0.500000 0
4.548780 -0.500000 0
4.646341 -0.500000 0
4.743902 -0.500000 0
4.841463 -0.500000 0
4.939024 -0.500000 0
5.036585 -0.500000 0
5.134146 -0.500000 0
5.231707 -0.500000 0
5.329268 -0.500000 0
5.426829 -0.500000 0
5.524390 -0.500000 0
5.621951 -0.500000 0
5.719512 -0.500000 0
5.817073 -0.500000 0
5.914634 -0.500000 0
6.012195 -0.500000 0
6.109756 -0.500000 0
6.207317 -0.500000 0
6.304878 -0.500000 0
6.402439 -0.500000 0
-1.500000 -0.451667 0
-1.402439 -0.451667 0
-1.304878 -0.451667 0
-1.207317 -0.451667 0
-1.109756 -0.451667 0
-1.012195 -0.451667 0
-0.914634 -0.451667 0
-0.817073 -0.451667 0
-0.719512 -0.451667 0
-0.621951 -0.451667 0
-0.524390 -0.451667 0
-0.426829 -0.451667 0
-0.329268 -0.451667 0
-0.231707 -0.451667 0
-0.134146 -0.451667 0
-0.036585 -0.451667 0
0.060976 -0.451667 0
0.158537 -0.451667 0
0.256098 -0.451667 0
0.353659 -0.451667 0
0.451220 -0.451667 0
0.548780 -0.451667 0
0.646341 -0.451667 0
0.743902 -0.451667 0
0.841463 -0.451667 0
0.939024 -0.451667 0
1.036585 -0.451667 0
1.134146 -0.451667 0
1.231707 -0.451667 0
1.329268 -0.451667 0
1.426829 -0.451667 0
1.524390 -0.451667 0
1.621951 -0.451667 0
1.719512 -0.451667 0
1.817073 -0.451667 0
1.914634 -0.451667 0
2.012195 -0.451667 0
2.109756 -0.451667 0
2.207317 -0.451667 0
2.304878 -0.451667 0
2.402439 -0.451667 0
2.500000 -0.451667 0
2.597561 -0.451667 0
2.695122 -0.451667 0
2.792683 -0.451667 0
2.890244 -0.451667 0
2.987805 -0.451667 0
3.085366 -0.451667 0
3.182927 -0.451667 0
3.280488 -0.451667 0
3.378049 -0.451667 0
3.475610 -0.451667 0
3.573171 -0.451667 0
3.670732 -0.451667 0
3.768293 -0.451667 0
3.865854 -0.451667 0
3.963415 -0.451667 0
4.060976 -0.451667 0
4.158537 -0.451667 0
4.256098 -0.451667 0
4.353659 -0.451667 0
4.451220 -0.451667 0
4.548780 -0.451667 0
4.646341 -0.451667 0
4.743902 -0.451667 0
4.841463 -0.451667 0
4.939024 -0.451667 0
5.036585 -0.451667 0
5.134146 -0.451667 0
5.231707 -0.451667 0
5.329268 -0.451667 0
5.426829 -0.451667 0
5.524390 -0.451667 0
5.621951 -0.451667 0
5.719512 -0.451667 0
5.817073 -0.451667 0
5.914634 -0.451667 0
6.012195 -0.451667 0
6.109756 -0.451667 0
6.207317 -0.451667 0
6.304878 -0.451667 0
6.402439 -0.451667 0
-1.500000 -0.403333 0
-1.402439 -0.403333 0
-1.304878 -0.403333 0
-1.207317 -0.403333 0
-1.109756 -0.403333 0
-1.012195 -0.403333 0
-0.914634 -0.403333 0
-0.817073 -0.403333 0
-0.719512 -0.403333 0
-0.621951 -0.403333 0
-0.524390 -0.403333 0
-0.426829 -0.403333 0
-0.329268 -0.403333 0
-0.231707 -0.403333 0
-0.134146 -0.403333 0
-0.036585 -0.403333 0
0.060976 -0.403333 0
0.158537 -0.403333 0
0.256098 -0.403333 0
0.353659 -0.403333 0
0.451220 -0.403333 0
0.548780 -0.403333 0
0.646341 -0.403333 0
0.743902 -0.403333 0
0.841463 -0.403333 0
0.939024 -0.403333 0
1.036585 -0.403333 0
1.134146 -0.403333 0
1.231707 -0.403333 0
1.329268 -0.403333 0
1.426829 -0.403333 0
1.524390 -0.403333 0
1.621951 -0.403333 0
1.719512 -0.403333 0
1.817073 -0.403333 0
1.914634 -0.403333 0
2.012195 -0.403333 0
2.109756 -0.403333 0
2.207317 -0.403333 0
2.304878 -0.403333 0
2.402439 -0.403333 0
2.500000 -0.403333 0
2.597561 -0.403333 0
2.695122 -0.403333 0
2.792683 -0.403333 0
2.890244 -0.403333 0
2.987805 -0.403333 0
3.085366 -0.403333 0
3.182927 -0.403333 0
3.280488 -0.403333 0
3.378049 -0.403333 0
3.475610 -0.403333 0
3.573171 -0.403333 0
3.670732 -0.403333 0
3.768293 -0.403333 0
3.865854 -0.403333 0
3.963415 -0.403333 0
4.060976 -0.403333 0
4.158537 -0.403333 0
4.256098 -0.403333 0
4.353659 -0.403333 0
4.451220 -0.403333 0
4.548780 -0.403333 0
4.646341 -0.403333 0
4.743902 -0.403333 0
4.841463 -0.403333 0
4.939024 -0.403333 0
5.036585 -0.403333 0
5.134146 -0.403333 0
5.231707 -0.403333 0
5.329268 -0.403333 0
5.426829 -0.403333 0
5.524390 -0.403333 0
5.621951 -0.403333 0
5.719512 -0.403333 0
5.817073 -0.403333 0
5.914634 -0.403333 0
6.012195 -0.403333 0
6.109756 -0.403333 0
6.207317 -0.403333 0
6.304878 -0.403333 0
6.402439 -0.403333 0
-1.500000 -0.355000 0
-1.402439 -0.355000 0
-1.304878 -0.355000 0
-1.207317 -0.355000 0
-1.109756 -0.355000 0
-1.012195 -0.355000 0
-0.914634 -0.355000 0
-0.817073 -0.355000 0
-0.719512 -0.355000 0
-0.621951 -0.355000 0
-0.524390 -0.355000 0
-0.426829 -0.355000 0
-0.329268 -0.355000 0
-0.231707 -0.355000 0
-0.134146 -0.355000 0
-0.036585 -0.355000 0
0.060976 -0.355000 0
0.158537 -0.355000 0
0.256098 -0.355000 0
0.353659 -0.355000 0
0.451220 -0.355000 0
0.548780 -0.355000 0
0.646341 -0.355000 0
0.743902 -0.355000 0
0.841463 -0.355000 0
0.939024 -0.355000 0
1.036585 -0.355000 0
1.134146 -0.355000 0
1.231707 -0.355000 0
1.329268 -0.355000 0
1.426829 -0.355000 0
1.524390 -0.355000 0
1.621951 -0.355000 0
1.719512 -0.355000 0
1.817073 -0.355000 0
1.914634 -0.355000 0
2.012195 -0.355000 0
2.109756 -0.355000 0
2.207317 -0.355000 0
2.304878 -0.355000 0
2.402439 -0.355000 0
2.500000 -0.355000 0
2.597561 -0.355000 0
2.695122 -0.355000 0
2.792683 -0.355000 0
2.890244 -0.355000 0
2.987805 -0.355000 0
3.085366 -0.355000 0
3.182927 -0.355000 0
3.280488 -0.355000 0
3.378049 -0.355000 0
3.475610 -0.355000 0
3.573171 -0.355000 0
3.670732 -0.355000 0
3.768293 -0.355000 0
3.865854 -0.355000 0
3.963415 -0.355000 0
4.060976 -0.355000 0
4.158537 -0.355000 0
4.256098 -0.355000 0
4.353659 -0.355000 0
4.451220 -0.355000 0
4.548780 -0.355000 0
4.646341 -0.355000 0
4.743902 -0.355000 0
4.841463 -0.355000 0
4.939024 -0.355000 0
5.036585 -0.355000 0
5.134146 -0.355000 0
5.231707 -0.355000 0
5.329268 -0.355000 0
5.426829 -0.355000 0
5.524390 -0.355000 0
5.621951 -0.355000 0
5.719512 -0.355000 0
5.817073 -0.355000 0
5.914634 -0.355000 0
6.012195 -0.355000 0
6.109756 -0.355000 0
6.207317 -0.355000 0
6.304878 -0.355000 0
6.402439 -0.355000 0
-1.500000 -0.306667 0
-1.402439 -0.306667 0
-1.304878 -0.306667 0
-1.207317 -0.306667 0
-1.109756 -0.306667 0
-1.012195 -0.306667 0
-0.914634 -0.306667 0
-0.817073 -0.306667 0
-0.719512 -0.306667 0
-0.621951 -0.306667 0
-0.524390 -0.306667 0
-0.426829 -0.306667 0
-0.329268 -0.306667 0
-0.231707 -0.306667 0
-0.134146 -0.306667 0
-0.036585 -0.306667 0
0.060976 -0.306667 0
0.158537 -0.306667 0
0.256098 -0.306667 0
0.353659 -0.306667 0
0.451220 -0.306667 0
0.548780 -0.306667 0
0.646341 -0.306667 0
0.743902 -0.306667 0
0.841463 -0.306667 0
0.939024 -0.306667 0
1.036585 -0.306667 0
1.134146 -0.306667 0
1.231707 -0.306667 0
1.329268 -0.306667 0
1.426829 -0.306667 0
1.524390 -0.306667 0
1.621951 -0.306667 0
1.719512 -0.306667 0
1.817073 -0.306667 0
1.914634 -0.306667 0
2.012195 -0.306667 0
2.109756 -0.306667 0
2.207317 -0.306667 0
2.304878 -0.306667 0
2.402439 -0.306667 0
2.500000 -0.306667 0
2.597561 -0.306667 0
2.695122 -0.306667 0
2.792683 -0.306667 0
2.890244 -0.306667 0
2.987805 -0.306667 0
3.085366 -0.306667 0
3.182927 -0.306667 0
3.280488 -0.306667 0
3.378049 -0.306667 0
3.475610 -0.306667 0
3.573171 -0.306667 0
3.670732 -0.306667 0
3.768293 -0.306667 0
3.865854 -0.306667 0
3.963415 -0.306667 0
4.060976 -0.306667 0
4.158537 -0.306667 0
4.256098 -0.306667 0
4.353659 -0.306667 0
4.451220 -0.306667 0
4.548780 -0.306667 0
4.646341 -0.306667 0
4.743902 -0.306667 0
4.841463 -0.306667 0
4.939024 -0.306667 0
5.036585 -0.306667 0
5.134146 -0.306667 0
5.231707 -0.306667 0
5.329268 -0.306667 0
5.426829 -0.306667 0
5.524390 -0.306667 0
5.621951 -0.306667 0
5.719512 -0.306667 0
5.817073 -0.306667 0
5.914634 -0.306667 0
6.012195 -0.306667 0
6.109756 -0.306667 0
6.207317 -0.306667 0
6.304878 -0.306667 0
6.402439 -0.306667 0
-1.500000 -0.258333 0
-1.402439 -0.258333 0
-1.304878 -0.258333 0
-1.207317 -0.258333 0
-1.109756 -0.258333 0
-1.012195 -0.258333 0
-0.914634 -0.258333 0
-0.817073 -0.258333 0
-0.719512 -0.258333 0
-0.621951 -0.258333 0
-0.524390 -0.258333 0
-0.426829 -0.258333 0
-0.329268 -0.258333 0
-0.231707 -0.258333 0
-0.134146 -0.258333 0
-0.036585 -0.258333 0
0.060976 -0.258333 0
0.158537 -0.258333 0
0.256098 -0.258333 0
0.353659 -0.258333 0
0.451220 -0.258333 0
0.548780 -0.258333 0
0.646341 -0.258333 0
0.743902 -0.258333 0
0.841463 -0.258333 0
0.939024 -0.258333 0
1.036585 -0.258333 0
1.134146 -0.258333 0
1.231707 -0.258333 0
1.329268 -0.258333 0
1.426829 -0.258333 0
1.524390 -0.258333 0
1.621951 -0.258333 0
1.719512 -0.258333 0
1.817073 -0.258333 0
1.914634 -0.258333 0
2.012195 -0.258333 0
2.109756 -0.258333 0
2.207317 -0.258333 0
2.304878 -0.258333 0
2.402439 -0.258333 0
2.500000 -0.258333 0
2.597561 -0.258333 0
2.695122 -0.258333 0
2.792683 -0.258333 0
2.890244 -0.258333 0
2.987805 -0.258333 0
3.085366 -0.258333 0
3.182927 -0.258333 0
3.280488 -0.258333 0
3.378049 -0.258333 0
3.475610 -0.258333 0
3.573171 -0.258333 0
[...]
POINT_DATA 4920 

VECTORS velocity float
0.000000 0.000000 0
0.000000 0.000000 0
0.000000 0.000000 0
0.000000 0.000000 0
0.000000 0.000000 0
0.000000 0.000000 0
0.000000 0.000000 0
0.000000 0.000000 0
0.000000 0.000000 0
0.000000 0.000000 0
0.000000 0.000000 0
0.000000 0.000000 0
0.000000 0.000000 0
0.000000 0.000000 0
0.000000 0.000000 0
-0.000000 0.000000 0
-0.000000 0.000000 0
-0.000000 0.000000 0
-0.000000 0.000000 0
-0.000000 0.000000 0
-0.000000 0.000000 0
-0.000000 0.000000 0
-0.000000 0.000000 0
-0.000001 0.000000 0
-0.000001 0.000000 0
-0.000001 0.000000 0
-0.000001 0.000000 0
-0.000000 0.000000 0
-0.000000 0.000000 0
-0.000000 0.000000 0
-0.000000 0.000000 0
-0.000000 0.000000 0
-0.000000 0.000000 0
-0.000000 0.000000 0
-0.000000 0.000000 0
-0.000000 0.000000 0
-0.000000 0.000000 0
0.000000 0.000000 0
0.000000 0.000000 0
0.000000 0.000000 0
0.000000 0.000000 0
0.000001 0.000000 0
0.000001 0.000000 0
0.000001 0.000000 0
0.000001 0.000000 0
0.000001 0.000000 0
0.000001 0.000000 0
0.000002 0.000000 0
0.000002 0.000000 0
0.000002 0.000000 0
0.000002 0.000000 0
0.000002 0.000000 0
0.000001 0.000000 0
0.000001 0.000000 0
0.000000 0.000000 0
-0.000001 0.000000 0
-0.000000 0.000000 0
0.001910 0.000000 0
0.000000 0.000000 0
0.000000 0.000000 0
0.000000 0.000000 0
0.000000 0.000000 0
0.000000 0.000000 0
0.000000 0.000000 0
0.000000 0.000000 0
0.000000 0.000000 0
0.000000 0.000000 0
0.000000 0.000000 0
0.000000 0.000000 0
0.000000 0.000000 0
0.000000 0.000000 0
0.000000 0.000000 0
0.000000 0.000000 0
0.000000 0.000000 0
0.000000 0.000000 0
0.000000 0.000000 0
0.000000 0.000000 0
0.000000 0.000000 0
0.000000 0.000000 0
0.000000 0.000000 0
0.000000 0.000000 0
0.000000 0.000000 0
0.000000 0.000000 0
0.000000 0.000000 0
0.000000 0.000000 0
0.000000 0.000000 0
0.000000 0.000000 0
0.000000 0.000000 0
0.000000 0.000000 0
0.000000 0.000000 0
0.000000 0.000000 0
0.000000 0.000000 0
0.000000 0.000000 0
0.000000 0.000000 0
0.000000 0.000000 0
0.000000 0.000000 0
1.046366 -0.422518 0
2.518239 -0.738188 0
3.779688 -0.505126 0
4.622678 -0.265387 0
5.056116 -0.070111 0
5.167065 0.061936 0
5.063172 0.139736 0
4.829696 0.177736 0
4.530775 0.186498 0
4.213292 0.174997 0
3.909536 0.151108 0
3.639283 0.121573 0
3.411964 0.091691 0
3.229163 0.065043 0
3.087283 0.043474 0
2.980004 0.027390 0
2.900183 0.016257 0
2.841081 0.009097 0
2.796972 0.004855 0
2.763332 0.002605 0
2.736769 0.001627 0
2.714849 0.001408 0
2.695874 0.001604 0
2.678685 0.002008 0
2.662488 0.002508 0
2.646703 0.003061 0
2.630857 0.003675 0
2.614476 0.004394 0
2.597003 0.005295 0
2.577712 0.006489 0
2.555602 0.008126 0
2.529287 0.010407 0
2.496830 0.013598 0
2.455550 0.018047 0
2.401746 0.024203 0
2.330377 0.032608 0
2.234692 0.043866 0
2.105877 0.058456 0
1.933103 0.076438 0
1.703965 0.096328 0
1.408635 0.114976 0
1.038234 0.130673 0
0.616366 0.068899 0
-0.000000 0.000000 0
-0.001575 0.000000 0
0.000000 0.000000 0
0.000000 0.000000 0
0.000000 0.000000 0
0.000000 0.000000 0
0.000000 0.000000 0
0.000000 0.000000 0
0.000000 0.000000 0
0.000000 0.000000 0
0.000000 0.000000 0
0.000000 0.000000 0
0.000000 0.000000 0
0.000000 0.000000 0
0.000000 0.000000 0
0.000000 0.000000 0
0.000000 0.000000 0
0.000000 0.000000 0
0.000000 0.000000 0
0.000000 0.000000 0
0.000000 0.000000 0
0.000000 0.000000 0
0.000000 0.000000 0
0.000000 0.000000 0
0.000000 0.000000 0
0.000000 0.000000 0
0.000000 0.000000 0
0.000000 0.000000 0
0.000000 0.000000 0
0.000000 0.000000 0
0.000000 0.000000 0
0.000000 0.000000 0
0.000000 0.000000 0
0.000000 0.000000 0
0.000000 0.000000 0
0.000000 0.000000 0
0.000000 0.000000 0
0.000000 0.000000 0
1.159576 -0.516981 0
2.653682 -1.245965 0
3.828496 -1.353926 0
5.002439 -1.042574 0
5.863807 -0.632364 0
6.390847 -0.269699 0
6.646980 -0.003496 0
6.706716 0.167138 0
6.638193 0.263759 0
6.490928 0.305377 0
6.301100 0.307772 0
6.094764 0.284374 0
5.890032 0.246506 0
5.698680 0.203180 0
5.527441 0.160852 0
5.379154 0.123437 0
5.253830 0.092692 0
5.149631 0.068825 0
5.063717 0.051133 0
4.992905 0.038518 0
4.934118 0.029825 0
4.884635 0.024019 0
4.842197 0.020260 0
4.805004 0.017916 0
4.771653 0.016540 0
4.741054 0.015844 0
4.712336 0.015670 0
4.684746 0.015966 0
4.657568 0.016772 0
4.630022 0.018214 0
4.601172 0.020511 0
4.569805 0.023991 0
4.534294 0.029116 0
4.492403 0.036531 0
4.441033 0.047107 0
4.375874 0.062013 0
4.290930 0.082761 0
4.177889 0.111221 0
4.025320 0.149412 0
3.817754 0.199114 0
3.535040 0.259830 0
3.152946 0.329814 0
2.645759 0.391994 0
2.013848 0.512055 0
1.050221 0.303564 0
-0.000000 0.000000 0
-0.004731 0.000000 0
0.000000 0.000000 0
0.000000 0.000000 0
0.000000 0.000000 0
0.000000 0.000000 0
0.000000 0.000000 0
0.000000 0.000000 0
0.000000 0.000000 0
0.000000 0.000000 0
0.000000 0.000000 0
0.000000 0.000000 0
0.000000 0.000000 0
0.000000 0.000000 0
0.000000 0.000000 0
0.000000 0.000000 0
0.000000 0.000000 0
0.000000 0.000000 0
0.000000 0.000000 0
0.000000 0.000000 0
0.000000 0.000000 0
0.000000 0.000000 0
0.000000 0.000000 0
0.000000 0.000000 0
0.000000 0.000000 0
0.000000 0.000000 0
0.000000 0.000000 0
0.000000 0.000000 0
0.000000 0.000000 0
0.000000 0.000000 0
0.000000 0.000000 0
0.000000 0.000000 0
0.000000 0.000000 0
0.000000 0.000000 0
0.000000 0.000000 0
0.000000 0.000000 0
0.936065 -0.582518 0
2.634502 -1.321316 0
3.462206 -1.743339 0
4.644833 -1.901802 0
5.708197 -1.513453 0
6.431280 -0.953227 0
6.856116 -0.458108 0
7.079298 -0.094551 0
7.167404 0.144089 0
7.169265 0.284641 0
7.118081 0.353500 0
7.036078 0.371263 0
6.938117 0.354758 0
6.834290 0.317799 0
6.731557 0.271324 0
6.634602 0.223342 0
6.546276 0.179025 0
6.467890 0.141100 0
6.399547 0.110442 0
6.340515 0.086742 0
6.289593 0.069060 0
6.245413 0.056244 0
6.206649 0.047166 0
6.172124 0.040858 0
6.140858 0.036553 0
6.112053 0.033689 0
6.085066 0.031894 0
6.059355 0.030957 0
6.034430 0.030808 0
6.009792 0.031505 0
5.984871 0.033235 0
5.958958 0.036321 0
5.931111 0.041258 0
5.900042 0.048753 0
5.863956 0.059801 0
5.820324 0.075778 0
5.765563 0.098567 0
5.694561 0.130693 0
5.599974 0.175454 0
5.471194 0.236872 0
5.292713 0.319331 0
5.042432 0.425685 0
4.688526 0.555541 0
4.198474 0.695001 0
3.528885 0.855633 0
2.830516 0.996364 0
1.342732 0.522690 0
-0.000000 0.000000 0
-0.005825 0.000000 0
0.000000 0.000000 0
0.000000 0.000000 0
0.000000 0.000000 0
0.000000 0.000000 0
0.000000 0.000000 0
0.000000 0.000000 0
0.000000 0.000000 0
0.000000 0.000000 0
0.000000 0.000000 0
0.000000 0.000000 0
0.000000 0.000000 0
0.000000 0.000000 0
0.000000 0.000000 0
0.000000 0.000000 0
0.000000 0.000000 0
0.000000 0.000000 0
0.000000 0.000000 0
0.000000 0.000000 0
0.000000 0.000000 0
0.000000 0.000000 0
0.000000 0.000000 0
0.000000 0.000000 0
0.000000 0.000000 0
0.000000 0.000000 0
0.000000 0.000000 0
0.000000 0.000000 0
0.000000 0.000000 0
0.000000 0.000000 0
0.000000 0.000000 0
0.000000 0.000000 0
0.000000 0.000000 0
0.000000 0.000000 0
0.738355 -0.467363 0
2.144296 -1.316842 0
3.090192 -1.776518 0
3.864644 -2.241916 0
5.207627 -2.466628 0
6.163172 -1.927610 0
6.688604 -1.201062 0
6.946374 -0.590738 0
7.065017 -0.157713 0
7.111524 0.122567 0
7.115522 0.288194 0
7.097375 0.371360 0
7.068518 0.396929 0
7.034683 0.384343 0
6.998636 0.348839 0
6.961989 0.302109 0
6.926016 0.252643 0
6.891826 0.206029 0
6.860263 0.165384 0
6.831799 0.131928 0
6.806532 0.105606 0
6.784256 0.085633 0
6.764587 0.070917 0
6.747063 0.060328 0
6.731231 0.052855 0
6.716681 0.047677 0
6.703069 0.044180 0
6.690106 0.041952 0
6.677544 0.040756 0
6.665152 0.040521 0
6.652687 0.041324 0
6.639862 0.043397 0
6.626304 0.047144 0
6.611499 0.053178 0
6.594723 0.062386 0
6.574939 0.076025 0
6.550636 0.095852 0
6.519598 0.124317 0
6.478522 0.164796 0
6.422386 0.221881 0
6.343378 0.301635 0
6.228891 0.411530 0
6.058516 0.559154 0
5.798536 0.747925 0
5.405603 0.966500 0
4.836676 1.189764 0
4.166799 1.388848 0
3.377038 1.409597 0
1.500767 0.670296 0
-0.000000 0.000000 0
-0.005281 0.000000 0
0.000000 0.000000 0
0.000000 0.000000 0
0.000000 0.000000 0
0.000000 0.000000 0
0.000000 0.000000 0
0.000000 0.000000 0
0.000000 0.000000 0
0.000000 0.000000 0
0.000000 0.000000 0
0.000000 0.000000 0
0.000000 0.000000 0
0.000000 0.000000 0
0.000000 0.000000 0
0.000000 0.000000 0
0.000000 0.000000 0
0.000000 0.000000 0
0.000000 0.000000 0
0.000000 0.000000 0
0.000000 0.000000 0
0.000000 0.000000 0
0.000000 0.000000 0
0.000000 0.000000 0
0.000000 0.000000 0
0.000000 0.000000 0
0.000000 0.000000 0
0.000000 0.000000 0
0.000000 0.000000 0
0.000000 0.000000 0
0.000000 0.000000 0
0.000000 0.000000 0
0.536148 -0.369265 0
1.698481 -1.069413 0
2.545129 -1.751278 0
3.300572 -2.173605 0
4.126408 -2.792352 0
5.618903 -3.040531 0
6.351883 -2.247154 0
6.584551 -1.341239 0
6.617988 -0.644590 0
6.605787 -0.176368 0
6.591002 0.119068 0
6.580917 0.291650 0
6.579657 0.376786 0
6.586607 0.402321 0
6.598857 0.389378 0
6.612980 0.353813 0
6.626304 0.307302 0
6.637354 0.258101 0
6.645724 0.211600 0
6.651691 0.170838 0
6.655834 0.137061 0
6.658758 0.110295 0
6.660958 0.089841 0
6.662780 0.074670 0
6.664435 0.063692 0
6.666036 0.055910 0
6.667630 0.050504 0
6.669227 0.046855 0
6.670819 0.044540 0
6.672386 0.043320 0
6.673906 0.043122 0
6.675353 0.044034 0
6.676698 0.046305 0
6.677898 0.050373 0
6.678892 0.056903 0
6.679574 0.066865 0
6.679770 0.081643 0
6.679169 0.103195 0
6.677220 0.134293 0
6.672915 0.178854 0
6.664356 0.242406 0
6.647861 0.332733 0
6.615942 0.460456 0
6.553221 0.638890 0
6.427916 0.879005 0
6.183683 1.171523 0
5.771904 1.469357 0
5.221055 1.719493 0
4.581288 1.851696 0
3.670708 1.686394 0
1.556472 0.748649 0
-0.000000 0.000000 0
-0.003988 0.000000 0
0.000000 0.000000 0
0.000000 0.000000 0
0.000000 0.000000 0
0.000000 0.000000 0
0.000000 0.000000 0
0.000000 0.000000 0
0.000000 0.000000 0
0.000000 0.000000 0
0.000000 0.000000 0
0.000000 0.000000 0
0.000000 0.000000 0
0.000000 0.000000 0
0.000000 0.000000 0
0.000000 0.000000 0
0.000000 0.000000 0
0.000000 0.000000 0
0.000000 0.000000 0
0.000000 0.000000 0
0.000000 0.000000 0
0.000000 0.000000 0
0.000000 0.000000 0
0.000000 0.000000 0
0.000000 0.000000 0
0.000000 0.000000 0
0.000000 0.000000 0
0.000000 0.000000 0
0.000000 0.000000 0
0.000000 0.000000 0
0.376446 -0.266946 0
1.297254 -0.846257 0
2.061349 -1.466118 0
2.754257 -2.110545 0
3.394830 -2.559910 0
4.280829 -3.390456 0
5.830950 -3.569165 0
6.151630 -2.406008 0
5.981506 -1.332895 0
5.742722 -0.601258 0
5.590246 -0.144343 0
5.514115 0.134888 0
5.501110 0.293814 0
5.531389 0.368541 0
5.587135 0.387417 0
5.654848 0.371277 0
5.724813 0.335241 0
5.790857 0.290033 0
5.849733 0.243022 0
5.900344 0.198927 0
5.942976 0.160376 0
5.978643 0.128427 0
6.008622 0.103067 0
6.034164 0.083641 0
6.056353 0.069195 0
6.076063 0.058715 0
6.093961 0.051272 0
6.110546 0.046095 0
6.126184 0.042600 0
6.141150 0.040387 0
6.155662 0.039227 0
6.169915 0.039051 0
6.184111 0.039941 0
6.198485 0.042136 0
6.213336 0.046057 0
6.229061 0.052348 0
6.246194 0.061952 0
6.265454 0.076225 0
6.287792 0.097115 0
6.314435 0.127415 0
6.346897 0.171169 0
6.386852 0.234293 0
6.435676 0.325620 0
6.492883 0.458416 0
6.551734 0.652305 0
6.587609 0.931000 0
6.526769 1.291499 0
6.297324 1.666666 0
5.922311 1.978699 0
5.433606 2.177665 0
4.793824 2.179214 0
3.768499 1.832817 0
1.542636 0.775015 0
-0.000000 0.000000 0
-0.002629 0.000000 0
0.000000 0.000000 0
0.000000 0.000000 0
0.000000 0.000000 0
0.000000 0.000000 0
0.000000 0.000000 0
0.000000 0.000000 0
0.000000 0.000000 0
0.000000 0.000000 0
0.000000 0.000000 0
0.000000 0.000000 0
0.000000 0.000000 0
0.000000 0.000000 0
0.000000 0.000000 0
0.000000 0.000000 0
0.000000 0.000000 0
0.000000 0.000000 0
0.000000 0.000000 0
0.000000 0.000000 0
0.000000 0.000000 0
0.000000 0.000000 0
0.000000 0.000000 0
0.000000 0.000000 0
0.000000 0.000000 0
0.000000 0.000000 0
0.000000 0.000000 0
0.000000 0.000000 0
0.267954 -0.186446 0
0.995849 -0.643959 0
1.702363 -1.205323 0
2.319811 -1.791236 0
2.880585 -2.411907 0
3.395739 -2.929895 0
4.284418 -3.999246 0
5.744050 -3.967357 0
5.401582 -2.321742 0
4.738371 -1.138659 0
4.209684 -0.450753 0
3.920627 -0.063112 0
3.816883 0.163227 0
3.848295 0.283092 0
3.954207 0.334168 0
4.094122 0.341158 0
4.243980 0.321170 0
4.389188 0.286432 0
4.521784 0.245414 0
4.638243 0.203859 0
4.737913 0.165406 0
4.821882 0.132047 0
4.892128 0.104539 0
4.950938 0.082789 0
5.000548 0.066194 0
5.042944 0.053913 0
5.079794 0.045060 0
5.112440 0.038826 0
5.141934 0.034540 0
5.169093 0.031693 0
5.194560 0.029936 0
5.218860 0.029069 0
5.242463 0.029028 0
5.265840 0.029880 0
5.289519 0.031827 0
5.314158 0.035225 0
5.340617 0.040625 0
5.370057 0.048836 0
5.404072 0.061035 0
5.444850 0.078929 0
5.495388 0.105011 0
5.559759 0.142977 0
5.643400 0.198423 0
5.753306 0.280203 0
5.897750 0.402959 0
6.082489 0.591961 0
6.301947 0.891374 0
6.456677 1.315335 0
6.421339 1.768815 0
6.249355 2.147394 0
5.949671 2.410767 0
5.510892 2.511316 0
4.841455 2.368757 0
3.728807 1.878833 0
1.486366 0.766689 0
-0.000000 0.000000 0
-0.001610 0.000000 0
0.000000 0.000000 0
0.000000 0.000000 0
0.000000 0.000000 0
0.000000 0.000000 0
0.000000 0.000000 0
0.000000 0.000000 0
0.000000 0.000000 0
0.000000 0.000000 0
0.000000 0.000000 0
0.000000 0.000000 0
0.000000 0.000000 0
0.000000 0.000000 0
0.000000 0.000000 0
0.000000 0.000000 0
0.000000 0.000000 0
0.000000 0.000000 0
0.000000 0.000000 0
0.000000 0.000000 0
0.000000 0.000000 0
0.000000 0.000000 0
0.000000 0.000000 0
0.000000 0.000000 0
0.000000 0.000000 0
0.000000 0.000000 0
0.209235 -0.131856 0
0.805404 -0.492415 0
1.468466 -0.977524 0
2.052764 -1.502170 0
2.535305 -2.049829 0
2.939281 -2.643578 0
3.298240 -3.255392 0
4.068766 -4.553849 0
5.219256 -4.122627 0
3.916837 -1.907777 0
2.775326 -0.742409 0
2.002213 -0.196134 0
1.719002 0.050257 0
1.749692 0.170722 0
1.910237 0.225782 0
2.129545 0.246754 0
2.368846 0.243858 0
2.605125 0.225097 0
2.823741 0.197612 0
3.017382 0.166647 0
3.183533 0.135948 0
3.322751 0.107949 0
3.437443 0.083975 0
3.530957 0.064491 0
3.606928 0.049354 0
3.668858 0.038059 0
3.719870 0.029934 0
3.762597 0.024285 0
3.799171 0.020487 0
3.831264 0.018028 0
3.860163 0.016529 0
3.886861 0.015732 0
3.912149 0.015495 0
3.936713 0.015776 0
3.961219 0.016628 0
3.986407 0.018199 0
4.013190 0.020743 0
4.042777 0.024655 0
4.076817 0.030515 0
4.117607 0.039172 0
4.168366 0.051876 0
4.233621 0.070488 0
4.319749 0.097842 0
4.435781 0.138407 0
4.594405 0.199611 0
4.814254 0.295333 0
5.117191 0.452058 0
5.543890 0.745621 0
5.975795 1.232351 0
6.150953 1.769377 0
6.207841 2.212371 0
6.130979 2.543511 0
5.901180 2.728243 0
5.478257 2.715691 0
4.766616 2.444215 0
3.602789 1.855561 0
1.410545 0.737585 0
0.000000 0.000000 0
-0.001121 0.000000 0
0.000000 0.000000 0
0.000000 0.000000 0
0.000000 0.000000 0
0.000000 0.000000 0
0.000000 0.000000 0
0.000000 0.000000 0
0.000000 0.000000 0
0.000000 0.000000 0
0.000000 0.000000 0
0.000000 0.000000 0
0.000000 0.000000 0
0.000000 0.000000 0
0.000000 0.000000 0
0.000000 0.000000 0
0.000000 0.000000 0
0.000000 0.000000 0
0.000000 0.000000 0
0.000000 0.000000 0
0.000000 0.000000 0
0.000000 0.000000 0
0.000000 0.000000 0
0.000000 0.000000 0
0.195330 -0.102295 0
0.724321 -0.396755 0
1.360434 -0.809397 0
1.928487 -1.261922 0
2.381616 -1.733853 0
2.709849 -2.230432 0
2.935055 -2.789878 0
3.101426 -3.489460 0
3.571570 -4.950949 0
4.021196 -3.892089 0
1.556765 -1.110978 0
0.421236 -0.190123 0
0.058211 0.072568 0
0.025338 0.061991 0
0.159654 0.068486 0
0.369942 0.094907 0
0.615396 0.106966 0
0.868016 0.105547 0
1.107625 0.095808 0
1.322374 0.082193 0
1.506506 0.067167 0
1.658753 0.052575 0
1.780918 0.039614 0
1.876647 0.028898 0
1.950422 0.020574 0
2.006822 0.014471 0
2.050044 0.010241 0
2.083645 0.007473 0
2.110466 0.005773 0
2.132665 0.004807 0
2.151819 0.004324 0
2.169055 0.004150 0
2.185182 0.004181 0
2.200809 0.004371 0
2.216458 0.004718 0
2.232653 0.005261 0
2.250022 0.006080 0
2.269387 0.007299 0
2.291892 0.009103 0
2.319153 0.011763 0
2.353486 0.015680 0
2.398222 0.021454 0
2.458197 0.030014 0
2.540501 0.042824 0
2.655692 0.062354 0
2.819876 0.092701 0
3.058606 0.143962 0
3.416006 0.230487 0
3.971088 0.466007 0
4.893256 1.014586 0
5.377338 1.653856 0
5.757034 2.157289 0
5.966627 2.562692 0
5.983273 2.834685 0
5.792983 2.930839 0
5.359546 2.807971 0
4.612536 2.433835 0
3.437075 1.789769 0
1.336748 0.699201 0
0.000000 0.000000 0
-0.001281 0.000000 0
0.000000 0.000000 0
0.000000 0.000000 0
0.000000 0.000000 0
0.000000 0.000000 0
0.000000 0.000000 0
0.000000 0.000000 0
0.000000 0.000000 0
0.000000 0.000000 0
0.000000 0.000000 0
0.000000 0.000000 0
0.000000 0.000000 0
0.000000 0.000000 0
0.000000 0.000000 0
0.000000 0.000000 0
0.000000 0.000000 0
0.000000 0.000000 0
0.000000 0.000000 0
0.000000 0.000000 0
0.000000 0.000000 0
0.000000 0.000000 0
0.225156 -0.095080 0
0.751064 -0.355788 0
1.380097 -0.707705 0
1.940919 -1.088980 0
2.380105 -1.483435 0
2.678963 -1.889269 0
2.838700 -2.324012 0
2.877975 -2.837571 0
2.824734 -3.570732 0
2.796794 -5.009518 0
1.634836 -3.000162 0
0.000000 0.000000 0
0.000000 0.000000 0
-0.000000 0.000000 0
-0.000000 0.000000 0
-0.000000 0.000000 0
-0.000000 0.000000 0
-0.000000 0.000000 0
-0.000000 0.000000 0
0.000000 0.000000 0
0.000000 0.000000 0
0.000000 0.000000 0
0.000000 0.000000 0
0.000000 0.000000 0
0.000000 0.000000 0
0.000000 0.000000 0
0.000000 0.000000 0
0.000000 0.000000 0
0.000000 0.000000 0
0.000000 0.000000 0
0.000000 0.000000 0
0.000000 0.000000 0
-0.000000 0.000000 0
-0.000000 0.000000 0
-0.000000 0.000000 0
-0.000000 0.000000 0
-0.000000 0.000000 0
-0.000001 0.000000 0
-0.000001 0.000000 0
-0.000001 0.000000 0
-0.000001 0.000000 0
-0.000001 0.000000 0
-0.000002 0.000000 0
-0.000002 0.000000 0
-0.000002 0.000000 0
-0.000002 0.000000 0
-0.000003 0.000000 0
-0.000003 0.000000 0
-0.000004 0.000000 0
-0.000004 0.000000 0
2.078280 0.521905 0
3.747027 1.341447 0
4.739380 1.920427 0
5.380374 2.431429 0
5.726114 2.814269 0
5.803938 3.024696 0
5.626093 3.029028 0
5.178124 2.807986 0
4.420040 2.362960 0
3.273577 1.705258 0
1.282459 0.662226 0
0.000000 0.000000 0
-0.002107 0.000000 0
0.000000 0.000000 0
0.000000 0.000000 0
0.000000 0.000000 0
0.000000 0.000000 0
0.000000 0.000000 0
0.000000 0.000000 0
0.000000 0.000000 0
0.000000 0.000000 0
0.000000 0.000000 0
0.000000 0.000000 0
0.000000 0.000000 0
0.000000 0.000000 0
0.000000 0.000000 0
0.000000 0.000000 0
0.000000 0.000000 0
0.000000 0.000000 0
0.000000 0.000000 0
0.000000 0.000000 0
0.308927 -0.109495 0
0.897267 -0.368349 0
1.541416 -0.672783 0
2.095964 -0.986229 0
2.519477 -1.304818 0
2.796860 -1.627562 0
2.926793 -1.961049 0
2.918638 -2.329026 0
2.784986 -2.782959 0
2.522168 -3.449242 0
2.017680 -4.378479 0
0.037589 0.000000 0
-0.073584 2.449176 0
0.383997 0.000000 0
0.310179 0.000000 0
0.237518 0.000000 0
0.185050 0.000000 0
0.099278 0.000000 0
-0.006520 0.000000 0
-0.116632 0.000000 0
-0.219567 0.000000 0
-0.310021 0.000000 0
-0.385474 0.000000 0
-0.445598 0.000000 0
-0.491596 0.000000 0
-0.525560 0.000000 0
-0.549927 0.000000 0
-0.567088 0.000000 0
-0.579137 0.000000 0
-0.587760 0.000000 0
-0.594222 0.000000 0
-0.599412 0.000000 0
-0.603925 0.000000 0
-0.608140 0.000000 0
-0.612302 0.000000 0
-0.616581 0.000000 0
-0.621125 0.000000 0
-0.626104 0.000000 0
-0.631745 0.000000 0
-0.638376 0.000000 0
-0.646478 0.000000 0
-0.656751 0.000000 0
-0.670222 0.000000 0
-0.688400 0.000000 0
-0.713528 0.000000 0
-0.748985 0.000000 0
-0.799968 0.000000 0
-0.874847 0.000000 0
-0.987087 0.000000 0
-1.165436 0.000000 0
-1.452327 0.132641 0
0.000000 0.000004 0
1.708568 0.338882 0
3.311432 1.348102 0
4.419000 2.073847 0
5.137533 2.624844 0
5.517154 2.980391 0
5.602787 3.118009 0
5.420077 3.031334 0
4.969764 2.733313 0
4.232771 2.254944 0
3.152171 1.623139 0
1.265604 0.635373 0
0.000000 0.000000 0
-0.003816 0.000000 0
0.000000 0.000000 0
0.000000 0.000000 0
0.000000 0.000000 0
0.000000 0.000000 0
0.000000 0.000000 0
0.000000 0.000000 0
0.000000 0.000000 0
0.000000 0.000000 0
0.000000 0.000000 0
0.000000 0.000000 0
0.000000 0.000000 0
0.000000 0.000000 0
0.000000 0.000000 0
0.000000 0.000000 0
0.000000 0.000000 0
0.000000 0.000000 0