# vtk DataFile Version 2.0
generated by CFD-lab course output (written by Tobias Neckel) 
ASCII

DATASET STRUCTURED_GRID
DIMENSIONS  82 60 1 
POINTS 4920 float

-1.500000 -0.500000 0
-1.402439 -0.500000 0
-1.304878 -0.500000 0
-1.207317 -0.500000 0
-1.109756 -0.500000 0
-1.012195 -0.500000 0
-0.914634 -0.500000 0
-0.817073 -0.500000 0
-0.719512 -0.500000 0
-0.621951 -0.500000 0
-0.524390 -0.500000 0
-0.426829 -0.500000 0
-0.329268 -0.500000 0
-0.231707 -0.500000 0
-0.134146 -0.500000 0
-0.036585 -0.500000 0
0.060976 -0.500000 0
0.158537 -0.500000 0
0.256098 -0.500000 0
0.353659 -0.500000 0
0.451220 -0.500000 0
0.548780 -0.500000 0
0.646341 -0.500000 0
0.743902 -0.500000 0
0.841463 -0.500000 0
0.939024 -0.500000 0
1.036585 -0.500000 0
1.134146 -0.500000 0
1.231707 -0.500000 0
1.329268 -0.500000 0
1.426829 -0.500000 0
1.524390 -0.500000 0
1.621951 -0.500000 0
1.719512 -0.500000 0
1.817073 -0.500000 0
1.914634 -0.500000 0
2.012195 -0.500000 0
2.109756 -0.500000 0
2.207317 -0.500000 0
2.304878 -0.500000 0
2.402439 -0.500000 0
2.500000 -0.500000 0
2.597561 -0.500000 0
2.695122 -0.500000 0
2.792683 -0.500000 0
2.890244 -0.500000 0
2.987805 -0.500000 0
3.085366 -0.500000 0
3.182927 -0.500000 0
3.280488 -0.500000 0
3.378049 -0.500000 0
3.475610 -0.500000 0
3.573171 -0.500000 0
3.670732 -0.500000 0
3.768293 -0.500000 0
3.865854 -0.500000 0
3.963415 -0.500000 0
4.060976 -0.500000 0
4.158537 -0.500000 0
4.256098 -0.500000 0
4.353659 -0.500000 0
4.451220 -0.500000 0
4.548780 -0.500000 0
4.646341 -0.500000 0
4.743902 -0.500000 0
4.841463 -0.500000 0
4.939024 -0.500000 0
5.036585 -0.500000 0
5.134146 -0.500000 0
5.231707 -0.500000 0
5.329268 -0.500000 0
5.426829 -0.500000 0
5.524390 -0.500000 0
5.621951 -0.500000 0
5.719512 -0.500000 0
5.817073 -0.500000 0
5.914634 -0.500000 0
6.012195 -0.500000 0
6.109756 -0.500000 0
6.207317 -0.500000 0
6.304878 -0.500000 0
6.402439 -0.500000 0
-1.500000 -0.451667 0
-1.402439 -0.451667 0
-1.304878 -0.451667 0
-1.207317 -0.451667 0
-1.109756 -0.451667 0
-1.012195 -0.451667 0
-0.914634 -0.451667 0
-0.817073 -0.451667 0
-0.719512 -0.451667 0
-0.621951 -0.451667 0
-0.524390 -0.451667 0
-0.426829 -0.451667 0
-0.329268 -0.451667 0
-0.231707 -0.451667 0
-0.134146 -0.451667 0
-0.036585 -0.451667 0
0.060976 -0.451667 0
0.158537 -0.451667 0
0.256098 -0.451667 0
0.353659 -0.451667 0
0.451220 -0.451667 0
0.548780 -0.451667 0
0.646341 -0.451667 0
0.743902 -0.451667 0
0.841463 -0.451667 0
0.939024 -0.451667 0
1.036585 -0.451667 0
1.134146 -0.451667 0
1.231707 -0.451667 0
1.329268 -0.451667 0
1.426829 -0.451667 0
1.524390 -0.451667 0
1.621951 -0.451667 0
1.719512 -0.451667 0
1.817073 -0.451667 0
1.914634 -0.451667 0
2.012195 -0.451667 0
2.109756 -0.451667 0
2.207317 -0.451667 0
2.304878 -0.451667 0
2.402439 -0.451667 0
2.500000 -0.451667 0
2.597561 -0.451667 0
2.695122 -0.451667 0
2.792683 -0.451667 0
2.890244 -0.451667 0
2.987805 -0.451667 0
3.085366 -0.451667 0
3.182927 -0.451667 0
3.280488 -0.451667 0
3.378049 -0.451667 0
3.475610 -0.451667 0
3.573171 -0.451667 0
3.670732 -0.451667 0
3.768293 -0.451667 0
3.865854 -0.451667 0
3.963415 -0.451667 0
4.060976 -0.451667 0
4.158537 -0.451667 0
4.256098 -0.451667 0
4.353659 -0.451667 0
4.451220 -0.451667 0
4.548780 -0.451667 0
4.646341 -0.451667 0
4.743902 -0.451667 0
4.841463 -0.451667 0
4.939024 -0.451667 0
5.036585 -0.451667 0
5.134146 -0.451667 0
5.231707 -0.451667 0
5.329268 -0.451667 0
5.426829 -0.451667 0
5.524390 -0.451667 0
5.621951 -0.451667 0
5.719512 -0.451667 0
5.817073 -0.451667 0
5.914634 -0.451667 0
6.012195 -0.451667 0
6.109756 -0.451667 0
6.207317 -0.451667 0
6.304878 -0.451667 0
6.402439 -0.451667 0
-1.500000 -0.403333 0
-1.402439 -0.403333 0
-1.304878 -0.403333 0
-1.207317 -0.403333 0
-1.109756 -0.403333 0
-1.012195 -0.403333 0
-0.914634 -0.403333 0
-0.817073 -0.403333 0
-0.719512 -0.403333 0
-0.621951 -0.403333 0
-0.524390 -0.403333 0
-0.426829 -0.403333 0
-0.329268 -0.403333 0
-0.231707 -0.403333 0
-0.134146 -0.403333 0
-0.036585 -0.403333 0
0.060976 -0.403333 0
0.158537 -0.403333 0
0.256098 -0.403333 0
0.353659 -0.403333 0
0.451220 -0.403333 0
0.548780 -0.403333 0
0.646341 -0.403333 0
0.743902 -0.403333 0
0.841463 -0.403333 0
0.939024 -0.403333 0
1.036585 -0.403333 0
1.134146 -0.403333 0
1.231707 -0.403333 0
1.329268 -0.403333 0
1.426829 -0.403333 0
1.524390 -0.403333 0
1.621951 -0.403333 0
1.719512 -0.403333 0
1.817073 -0.403333 0
1.914634 -0.403333 0
2.012195 -0.403333 0
2.109756 -0.403333 0
2.207317 -0.403333 0
2.304878 -0.403333 0
2.402439 -0.403333 0
2.500000 -0.403333 0
2.597561 -0.403333 0
2.695122 -0.403333 0
2.792683 -0.403333 0
2.890244 -0.403333 0
2.987805 -0.403333 0
3.085366 -0.403333 0
3.182927 -0.403333 0
3.280488 -0.403333 0
3.378049 -0.403333 0
3.475610 -0.403333 0
3.573171 -0.403333 0
3.670732 -0.403333 0
3.768293 -0.403333 0
3.865854 -0.403333 0
3.963415 -0.403333 0
4.060976 -0.403333 0
4.158537 -0.403333 0
4.256098 -0.403333 0
4.353659 -0.403333 0
4.451220 -0.403333 0
4.548780 -0.403333 0
4.646341 -0.403333 0
4.743902 -0.403333 0
4.841463 -0.403333 0
4.939024 -0.403333 0
5.036585 -0.403333 0
5.134146 -0.403333 0
5.231707 -0.403333 0
5.329268 -0.403333 0
5.426829 -0.403333 0
5.524390 -0.403333 0
5.621951 -0.403333 0
5.719512 -0.403333 0
5.817073 -0.403333 0
5.914634 -0.403333 0
6.012195 -0.403333 0
6.109756 -0.403333 0
6.207317 -0.403333 0
6.304878 -0.403333 0
6.402439 -0.403333 0
-1.500000 -0.355000 0
-1.402439 -0.355000 0
-1.304878 -0.355000 0
-1.207317 -0.355000 0
-1.109756 -0.355000 0
-1.012195 -0.355000 0
-0.914634 -0.355000 0
-0.817073 -0.355000 0
-0.719512 -0.355000 0
-0.621951 -0.355000 0
-0.524390 -0.355000 0
-0.426829 -0.355000 0
-0.329268 -0.355000 0
-0.231707 -0.355000 0
-0.134146 -0.355000 0
-0.036585 -0.355000 0
0.060976 -0.355000 0
0.158537 -0.355000 0
0.256098 -0.355000 0
0.353659 -0.355000 0
0.451220 -0.355000 0
0.548780 -0.355000 0
0.646341 -0.355000 0
0.743902 -0.355000 0
0.841463 -0.355000 0
0.939024 -0.355000 0
1.036585 -0.355000 0
1.134146 -0.355000 0
1.231707 -0.355000 0
1.329268 -0.355000 0
1.426829 -0.355000 0
1.524390 -0.355000 0
1.621951 -0.355000 0
1.719512 -0.355000 0
1.817073 -0.355000 0
1.914634 -0.355000 0
2.012195 -0.355000 0
2.109756 -0.355000 0
2.207317 -0.355000 0
2.304878 -0.355000 0
2.402439 -0.355000 0
2.500000 -0.355000 0
2.597561 -0.355000 0
2.695122 -0.355000 0
2.792683 -0.355000 0
2.890244 -0.355000 0
2.987805 -0.355000 0
3.085366 -0.355000 0
3.182927 -0.355000 0
3.280488 -0.355000 0
3.378049 -0.355000 0
3.475610 -0.355000 0
3.573171 -0.355000 0
3.670732 -0.355000 0
3.768293 -0.355000 0
3.865854 -0.355000 0
3.963415 -0.355000 0
4.060976 -0.355000 0
4.158537 -0.355000 0
4.256098 -0.355000 0
4.353659 -0.355000 0
4.451220 -0.355000 0
4.548780 -0.355000 0
4.646341 -0.355000 0
4.743902 -0.355000 0
4.841463 -0.355000 0
4.939024 -0.355000 0
5.036585 -0.355000 0
5.134146 -0.355000 0
5.231707 -0.355000 0
5.329268 -0.355000 0
5.426829 -0.355000 0
5.524390 -0.355000 0
5.621951 -0.355000 0
5.719512 -0.355000 0
5.817073 -0.355000 0
5.914634 -0.355000 0
6.012195 -0.355000 0
6.109756 -0.355000 0
6.207317 -0.355000 0
6.304878 -0.355000 0
6.402439 -0.355000 0
-1.500000 -0.306667 0
-1.402439 -0.306667 0
-1.304878 -0.306667 0
-1.207317 -0.306667 0
-1.109756 -0.306667 0
-1.012195 -0.306667 0
-0.914634 -0.306667 0
-0.817073 -0.306667 0
-0.719512 -0.306667 0
-0.621951 -0.306667 0
-0.524390 -0.306667 0
-0.426829 -0.306667 0
-0.329268 -0.306667 0
-0.231707 -0.306667 0
-0.134146 -0.306667 0
-0.036585 -0.306667 0
0.060976 -0.306667 0
0.158537 -0.306667 0
0.256098 -0.306667 0
0.353659 -0.306667 0
0.451220 -0.306667 0
0.548780 -0.306667 0
0.646341 -0.306667 0
0.743902 -0.306667 0
0.841463 -0.306667 0
0.939024 -0.306667 0
1.036585 -0.306667 0
1.134146 -0.306667 0
1.231707 -0.306667 0
1.329268 -0.306667 0
1.426829 -0.306667 0
1.524390 -0.306667 0
1.621951 -0.306667 0
1.719512 -0.306667 0
1.817073 -0.306667 0
1.914634 -0.306667 0
2.012195 -0.306667 0
2.109756 -0.306667 0
2.207317 -0.306667 0
2.304878 -0.306667 0
2.402439 -0.306667 0
2.500000 -0.306667 0
2.597561 -0.306667 0
2.695122 -0.306667 0
2.792683 -0.306667 0
2.890244 -0.306667 0
2.987805 -0.306667 0
3.085366 -0.306667 0
3.182927 -0.306667 0
3.280488 -0.306667 0
3.378049 -0.306667 0
3.475610 -0.306667 0
3.573171 -0.306667 0
3.670732 -0.306667 0
3.768293 -0.306667 0
3.865854 -0.306667 0
3.963415 -0.306667 0
4.060976 -0.306667 0
4.158537 -0.306667 0
4.256098 -0.306667 0
4.353659 -0.306667 0
4.451220 -0.306667 0
4.548780 -0.306667 0
4.646341 -0.306667 0
4.743902 -0.306667 0
4.841463 -0.306667 0
4.939024 -0.306667 0
5.036585 -0.306667 0
5.134146 -0.306667 0
5.231707 -0.306667 0
5.329268 -0.306667 0
5.426829 -0.306667 0
5.524390 -0.306667 0
5.621951 -0.306667 0
5.719512 -0.306667 0
5.817073 -0.306667 0
5.914634 -0.306667 0
6.012195 -0.306667 0
6.109756 -0.306667 0
6.207317 -0.306667 0
6.304878 -0.306667 0
6.402439 -0.306667 0
-1.500000 -0.258333 0
-1.402439 -0.258333 0
-1.304878 -0.258333 0
-1.207317 -0.258333 0
-1.109756 -0.258333 0
-1.012195 -0.258333 0
-0.914634 -0.258333 0
-0.817073 -0.258333 0
-0.719512 -0.258333 0
-0.621951 -0.258333 0
-0.524390 -0.258333 0
-0.426829 -0.258333 0
-0.329268 -0.258333 0
-0.231707 -0.258333 0
-0.134146 -0.258333 0
-0.036585 -0.258333 0
0.060976 -0.258333 0
0.158537 -0.258333 0
0.256098 -0.258333 0
0.353659 -0.258333 0
0.451220 -0.258333 0
0.548780 -0.258333 0
0.646341 -0.258333 0
0.743902 -0.258333 0
0.841463 -0.258333 0
0.939024 -0.258333 0
1.036585 -0.258333 0
1.134146 -0.258333 0
1.231707 -0.258333 0
1.329268 -0.258333 0
1.426829 -0.258333 0
1.524390 -0.258333 0
1.621951 -0.258333 0
1.719512 -0.258333 0
1.817073 -0.258333 0
1.914634 -0.258333 0
2.012195 -0.258333 0
2.109756 -0.258333 0
2.207317 -0.258333 0
2.304878 -0.258333 0
2.402439 -0.258333 0
2.500000 -0.258333 0
2.597561 -0.258333 0
2.695122 -0.258333 0
2.792683 -0.258333 0
2.890244 -0.258333 0
2.987805 -0.258333 0
3.085366 -0.258333 0
3.182927 -0.258333 0
3.280488 -0.258333 0
3.378049 -0.258333 0
3.475610 -0.258333 0
3.573171 -0.258333 0
[...]
POINT_DATA 4920 

VECTORS velocity float
0.000000 0.000000 0
0.000000 0.000000 0
0.000000 0.000000 0
0.000000 0.000000 0
0.000000 0.000000 0
0.000000 0.000000 0
0.000000 0.000000 0
0.000000 0.000000 0
0.000000 0.000000 0
0.000000 0.000000 0
0.000000 0.000000 0
0.000000 0.000000 0
0.000000 0.000000 0
0.000000 0.000000 0
0.000000 0.000000 0
0.000000 0.000000 0
0.000001 0.000000 0
0.000001 0.000000 0
0.000001 0.000000 0
0.000001 0.000000 0
0.000001 0.000000 0
0.000000 0.000000 0
0.000000 0.000000 0
0.000000 0.000000 0
0.000000 0.000000 0
0.000000 0.000000 0
0.000000 0.000000 0
0.000000 0.000000 0
0.000001 0.000000 0
0.000000 0.000000 0
0.000000 0.000000 0
0.000000 0.000000 0
0.000000 0.000000 0
0.000000 0.000000 0
0.000000 0.000000 0
0.000000 0.000000 0
0.000000 0.000000 0
0.000000 0.000000 0
0.000000 0.000000 0
0.000000 0.000000 0
0.000000 0.000000 0
0.000000 0.000000 0
0.000000 0.000000 0
0.000000 0.000000 0
0.000000 0.000000 0
0.000000 0.000000 0
0.000000 0.000000 0
0.000000 0.000000 0
0.000000 0.000000 0
0.000000 0.000000 0
0.000000 0.000000 0
0.000000 0.000000 0
0.000001 0.000000 0
0.000001 0.000000 0
0.000001 0.000000 0
0.000001 0.000000 0
-0.000000 0.000000 0
0.001912 0.000000 0
0.000000 0.000000 0
0.000000 0.000000 0
0.000000 0.000000 0
0.000000 0.000000 0
0.000000 0.000000 0
0.000000 0.000000 0
0.000000 0.000000 0
0.000000 0.000000 0
0.000000 0.000000 0
0.000000 0.000000 0
0.000000 0.000000 0
0.000000 0.000000 0
0.000000 0.000000 0
0.000000 0.000000 0
0.000000 0.000000 0
0.000000 0.000000 0
0.000000 0.000000 0
0.000000 0.000000 0
0.000000 0.000000 0
0.000000 0.000000 0
0.000000 0.000000 0
0.000000 0.000000 0
0.000000 0.000000 0
0.000000 0.000000 0
0.000000 0.000000 0
0.000000 0.000000 0
0.000000 0.000000 0
0.000000 0.000000 0
0.000000 0.000000 0
0.000000 0.000000 0
0.000000 0.000000 0
0.000000 0.000000 0
0.000000 0.000000 0
0.000000 0.000000 0
0.000000 0.000000 0
0.000000 0.000000 0
0.000000 0.000000 0
0.000000 0.000000 0
1.046485 -0.422565 0
2.518491 -0.738262 0
3.780026 -0.505163 0
4.623054 -0.265400 0
5.056499 -0.070112 0
5.167444 0.061938 0
5.063549 0.139735 0
4.830079 0.177733 0
4.531169 0.186495 0
4.213696 0.174997 0
3.909940 0.151113 0
3.639674 0.121583 0
3.412329 0.091705 0
3.229495 0.065057 0
3.087580 0.043486 0
2.980268 0.027398 0
2.900421 0.016261 0
2.841301 0.009097 0
2.797185 0.004851 0
2.763547 0.002598 0
2.736996 0.001618 0
2.715096 0.001396 0
2.696148 0.001590 0
2.678996 0.001992 0
2.662842 0.002490 0
2.647110 0.003041 0
2.631324 0.003652 0
2.615012 0.004369 0
2.597619 0.005267 0
2.578414 0.006459 0
2.556401 0.008095 0
2.530188 0.010376 0
2.497840 0.013568 0
2.456667 0.018021 0
2.402967 0.024184 0
2.331688 0.032601 0
2.236066 0.043877 0
2.107274 0.058492 0
1.934463 0.076507 0
1.705210 0.096431 0
1.409675 0.115119 0
1.038963 0.130763 0
0.616807 0.068906 0
-0.000000 0.000000 0
-0.001578 0.000000 0
0.000000 0.000000 0
0.000000 0.000000 0
0.000000 0.000000 0
0.000000 0.000000 0
0.000000 0.000000 0
0.000000 0.000000 0
0.000000 0.000000 0
0.000000 0.000000 0
0.000000 0.000000 0
0.000000 0.000000 0
0.000000 0.000000 0
0.000000 0.000000 0
0.000000 0.000000 0
0.000000 0.000000 0
0.000000 0.000000 0
0.000000 0.000000 0
0.000000 0.000000 0
0.000000 0.000000 0
0.000000 0.000000 0
0.000000 0.000000 0
0.000000 0.000000 0
0.000000 0.000000 0
0.000000 0.000000 0
0.000000 0.000000 0
0.000000 0.000000 0
0.000000 0.000000 0
0.000000 0.000000 0
0.000000 0.000000 0
0.000000 0.000000 0
0.000000 0.000000 0
0.000000 0.000000 0
0.000000 0.000000 0
0.000000 0.000000 0
0.000000 0.000000 0
0.000000 0.000000 0
0.000000 0.000000 0
1.159709 -0.517041 0
2.653959 -1.246090 0
3.828839 -1.354034 0
5.002843 -1.042636 0
5.864238 -0.632386 0
6.391277 -0.269700 0
6.647400 -0.003493 0
6.707129 0.167136 0
6.638609 0.263750 0
6.491355 0.305367 0
6.301538 0.307767 0
6.095208 0.284380 0
5.890470 0.246524 0
5.699099 0.203209 0
5.527829 0.160886 0
5.379502 0.123471 0
5.254136 0.092722 0
5.149897 0.068846 0
5.063950 0.051145 0
4.993115 0.038521 0
4.934314 0.029819 0
4.884831 0.024003 0
4.842404 0.020237 0
4.805233 0.017884 0
4.771916 0.016500 0
4.741363 0.015797 0
4.712702 0.015614 0
4.685182 0.015902 0
4.658087 0.016698 0
4.630639 0.018131 0
4.601900 0.020420 0
4.570660 0.023892 0
4.535289 0.029012 0
4.493551 0.036423 0
4.442343 0.047002 0
4.377351 0.061917 0
4.292573 0.082685 0
4.179684 0.111178 0
4.027242 0.149419 0
3.819756 0.199189 0
3.537054 0.259989 0
3.154875 0.330070 0
2.647503 0.392291 0
2.015137 0.512412 0
1.050866 0.303779 0
0.000000 0.000000 0
-0.004738 0.000000 0
0.000000 0.000000 0
0.000000 0.000000 0
0.000000 0.000000 0
0.000000 0.000000 0
0.000000 0.000000 0
0.000000 0.000000 0
0.000000 0.000000 0
0.000000 0.000000 0
0.000000 0.000000 0
0.000000 0.000000 0
0.000000 0.000000 0
0.000000 0.000000 0
0.000000 0.000000 0
0.000000 0.000000 0
0.000000 0.000000 0
0.000000 0.000000 0
0.000000 0.000000 0
0.000000 0.000000 0
0.000000 0.000000 0
0.000000 0.000000 0
0.000000 0.000000 0
0.000000 0.000000 0
0.000000 0.000000 0
0.000000 0.000000 0
0.000000 0.000000 0
0.000000 0.000000 0
0.000000 0.000000 0
0.000000 0.000000 0
0.000000 0.000000 0
0.000000 0.000000 0
0.000000 0.000000 0
0.000000 0.000000 0
0.000000 0.000000 0
0.000000 0.000000 0
0.936186 -0.582586 0
2.634789 -1.321457 0
3.462534 -1.743491 0
4.645233 -1.901938 0
5.708653 -1.513533 0
6.431755 -0.953253 0
6.856581 -0.458104 0
7.079741 -0.094540 0
7.167829 0.144090 0
7.169684 0.284631 0
7.118503 0.353486 0
7.036507 0.371255 0
6.938551 0.354763 0
6.834723 0.317822 0
6.731979 0.271364 0
6.635004 0.223391 0
6.546650 0.179078 0
6.468232 0.141148 0
6.399856 0.110482 0
6.340793 0.086769 0
6.289846 0.069075 0
6.245648 0.056244 0
6.206873 0.047152 0
6.172347 0.040830 0
6.141087 0.036511 0
6.112299 0.033634 0
6.085337 0.031826 0
6.059663 0.030874 0
6.034785 0.030709 0
6.010205 0.031391 0
5.985356 0.033104 0
5.959527 0.036174 0
5.931779 0.041095 0
5.900823 0.048577 0
5.864864 0.059615 0
5.821372 0.075588 0
5.766762 0.098383 0
5.695920 0.130529 0
5.601495 0.175327 0
5.472871 0.236806 0
5.294530 0.319354 0
5.044360 0.425824 0
4.690512 0.555818 0
4.200448 0.695408 0
3.530632 0.856178 0
2.831963 0.997002 0
1.343296 0.523014 0
0.000000 0.000000 0
-0.005830 0.000000 0
0.000000 0.000000 0
0.000000 0.000000 0
0.000000 0.000000 0
0.000000 0.000000 0
0.000000 0.000000 0
0.000000 0.000000 0
0.000000 0.000000 0
0.000000 0.000000 0
0.000000 0.000000 0
0.000000 0.000000 0
0.000000 0.000000 0
0.000000 0.000000 0
0.000000 0.000000 0
0.000000 0.000000 0
0.000000 0.000000 0
0.000000 0.000000 0
0.000000 0.000000 0
0.000000 0.000000 0
0.000000 0.000000 0
0.000000 0.000000 0
0.000000 0.000000 0
0.000000 0.000000 0
0.000000 0.000000 0
0.000000 0.000000 0
0.000000 0.000000 0
0.000000 0.000000 0
0.000000 0.000000 0
0.000000 0.000000 0
0.000000 0.000000 0
0.000000 0.000000 0
0.000000 0.000000 0
0.000000 0.000000 0
0.738462 -0.467425 0
2.144551 -1.316988 0
3.090505 -1.776683 0
3.864995 -2.242097 0
5.208079 -2.466799 0
6.163684 -1.927708 0
6.689129 -1.201089 0
6.946881 -0.590723 0
7.065493 -0.157690 0
7.111974 0.122577 0
7.115958 0.288187 0
7.097807 0.371344 0
7.068953 0.396919 0
7.035121 0.384347 0
6.999075 0.348864 0
6.962423 0.302153 0
6.926440 0.252701 0
6.892237 0.206093 0
6.860656 0.165446 0
6.832174 0.131981 0
6.806888 0.105646 0
6.784595 0.085657 0
6.764911 0.070924 0
6.747377 0.060318 0
6.731537 0.052828 0
6.716984 0.047633 0
6.703373 0.044120 0
6.690416 0.041873 0
6.677866 0.040659 0
6.665491 0.040404 0
6.653051 0.041186 0
6.640257 0.043238 0
6.626738 0.046963 0
6.611981 0.052975 0
6.595263 0.062163 0
6.575546 0.075785 0
6.551321 0.095603 0
6.520373 0.124068 0
6.479398 0.164561 0
6.423374 0.221680 0
6.344489 0.301494 0
6.230133 0.411480 0
6.059894 0.559230 0
5.800043 0.748159 0
5.407213 0.966914 0
4.838283 1.190382 0
4.168299 1.389654 0
3.378199 1.410326 0
1.501043 0.670583 0
0.000000 0.000000 0
-0.005282 0.000000 0
0.000000 0.000000 0
0.000000 0.000000 0
0.000000 0.000000 0
0.000000 0.000000 0
0.000000 0.000000 0
0.000000 0.000000 0
0.000000 0.000000 0
0.000000 0.000000 0
0.000000 0.000000 0
0.000000 0.000000 0
0.000000 0.000000 0
0.000000 0.000000 0
0.000000 0.000000 0
0.000000 0.000000 0
0.000000 0.000000 0
0.000000 0.000000 0
0.000000 0.000000 0
0.000000 0.000000 0
0.000000 0.000000 0
0.000000 0.000000 0
0.000000 0.000000 0
0.000000 0.000000 0
0.000000 0.000000 0
0.000000 0.000000 0
0.000000 0.000000 0
0.000000 0.000000 0
0.000000 0.000000 0
0.000000 0.000000 0
0.000000 0.000000 0
0.000000 0.000000 0
0.536240 -0.369320 0
1.698703 -1.069543 0
2.545399 -1.751450 0
3.300894 -2.173794 0
4.126781 -2.792573 0
5.619410 -3.040747 0
6.352449 -2.247270 0
6.585123 -1.341262 0
6.618536 -0.644561 0
6.606301 -0.176330 0
6.591485 0.119089 0
6.581381 0.291649 0
6.580113 0.376773 0
6.587062 0.402310 0
6.599313 0.389382 0
6.613438 0.353838 0
6.626763 0.307348 0
6.637814 0.258162 0
6.646183 0.211668 0
6.652148 0.170904 0
6.656288 0.137120 0
6.659208 0.110341 0
6.661403 0.089871 0
6.663219 0.074683 0
6.664867 0.063686 0
6.666461 0.055887 0
6.668047 0.050464 0
6.669637 0.046796 0
6.671220 0.044462 0
6.672778 0.043222 0
6.674289 0.043003 0
6.675728 0.043892 0
6.677064 0.046140 0
6.678258 0.050183 0
6.679246 0.056688 0
6.679925 0.066627 0
6.680121 0.081384 0
6.679525 0.102922 0
6.677589 0.134015 0
6.673307 0.178584 0
6.664784 0.242163 0
6.648345 0.332541 0
6.616506 0.460347 0
6.553895 0.638897 0
6.428731 0.879167 0
6.184661 1.171880 0
5.773020 1.469957 0
5.222223 1.720352 0
4.582329 1.852639 0
3.671199 1.686986 0
1.556290 0.748790 0
0.000000 0.000000 0
-0.003981 0.000000 0
0.000000 0.000000 0
0.000000 0.000000 0
0.000000 0.000000 0
0.000000 0.000000 0
0.000000 0.000000 0
0.000000 0.000000 0
0.000000 0.000000 0
0.000000 0.000000 0
0.000000 0.000000 0
0.000000 0.000000 0
0.000000 0.000000 0
0.000000 0.000000 0
0.000000 0.000000 0
0.000000 0.000000 0
0.000000 0.000000 0
0.000000 0.000000 0
0.000000 0.000000 0
0.000000 0.000000 0
0.000000 0.000000 0
0.000000 0.000000 0
0.000000 0.000000 0
0.000000 0.000000 0
0.000000 0.000000 0
0.000000 0.000000 0
0.000000 0.000000 0
0.000000 0.000000 0
0.000000 0.000000 0
0.000000 0.000000 0
0.376525 -0.266993 0
1.297444 -0.846370 0
2.061579 -1.466269 0
2.754529 -2.110740 0
3.395153 -2.560125 0
4.281221 -3.390729 0
5.831504 -3.569432 0
6.152229 -2.406139 0
5.982104 -1.332912 0
5.743298 -0.601214 0
5.590792 -0.144289 0
5.514632 0.134922 0
5.501608 0.293821 0
5.531876 0.368530 0
5.587617 0.387407 0
5.655330 0.371280 0
5.725299 0.335265 0
5.791351 0.290077 0
5.850238 0.243080 0
5.900863 0.198992 0
5.943509 0.160440 0
5.979189 0.128484 0
6.009179 0.103112 0
6.034729 0.083670 0
6.056923 0.069208 0
6.076632 0.058712 0
6.094525 0.051253 0
6.111101 0.046060 0
6.126724 0.042548 0
6.141670 0.040317 0
6.156157 0.039139 0
6.170380 0.038942 0
6.184540 0.039811 0
6.198871 0.041984 0
6.213673 0.045882 0
6.229344 0.052149 0
6.246417 0.061730 0
6.265613 0.075983 0
6.287884 0.096857 0
6.314462 0.127148 0
6.346865 0.170905 0
6.386775 0.234047 0
6.435577 0.325412 0
6.492795 0.458272 0
6.551704 0.652257 0
6.587695 0.931084 0
6.527038 1.291764 0
6.297821 1.667190 0
5.922972 1.979542 0
5.434246 2.178729 0
4.794077 2.180118 0
3.767956 1.833070 0
1.541858 0.774925 0
0.000000 0.000000 0
-0.002617 0.000000 0
0.000000 0.000000 0
0.000000 0.000000 0
0.000000 0.000000 0
0.000000 0.000000 0
0.000000 0.000000 0
0.000000 0.000000 0
0.000000 0.000000 0
0.000000 0.000000 0
0.000000 0.000000 0
0.000000 0.000000 0
0.000000 0.000000 0
0.000000 0.000000 0
0.000000 0.000000 0
0.000000 0.000000 0
0.000000 0.000000 0
0.000000 0.000000 0
0.000000 0.000000 0
0.000000 0.000000 0
0.000000 0.000000 0
0.000000 0.000000 0
0.000000 0.000000 0
0.000000 0.000000 0
0.000000 0.000000 0
0.000000 0.000000 0
0.000000 0.000000 0
0.000000 0.000000 0
0.268023 -0.186486 0
0.996013 -0.644056 0
1.702560 -1.205454 0
2.320042 -1.791407 0
2.880856 -2.412125 0
3.396055 -2.930142 0
4.284820 -3.999582 0
5.744629 -3.967675 0
5.402167 -2.321879 0
4.738947 -1.138671 0
4.210254 -0.450699 0
3.921171 -0.063045 0
3.817418 0.163272 0
3.848819 0.283106 0
3.954719 0.334162 0
4.094629 0.341149 0
4.244487 0.321172 0
4.389702 0.286452 0
4.522314 0.245451 0
4.638796 0.203908 0
4.738495 0.165460 0
4.822494 0.132100 0
4.892769 0.104586 0
4.951605 0.082825 0
5.001234 0.066218 0
5.043644 0.053923 0
5.080499 0.045057 0
5.113142 0.038810 0
5.142624 0.034512 0
5.169764 0.031652 0
5.195201 0.029881 0
5.219463 0.028999 0
5.243017 0.028942 0
5.266333 0.029777 0
5.289941 0.031706 0
5.314496 0.035086 0
5.340858 0.040466 0
5.370189 0.048659 0
5.404085 0.060841 0
5.444734 0.078721 0
5.495139 0.104794 0
5.559379 0.142759 0
5.642899 0.198214 0
5.752708 0.280017 0
5.897092 0.402815 0
6.081827 0.591882 0
6.301359 0.891387 0
6.456266 1.315489 0
6.421224 1.769221 0
6.249497 2.148182 0
5.949839 2.411912 0
5.510717 2.512493 0
4.840511 2.369411 0
3.726923 1.878562 0
1.484922 0.766298 0
0.000000 0.000000 0
-0.001594 0.000000 0
0.000000 0.000000 0
0.000000 0.000000 0
0.000000 0.000000 0
0.000000 0.000000 0
0.000000 0.000000 0
0.000000 0.000000 0
0.000000 0.000000 0
0.000000 0.000000 0
0.000000 0.000000 0
0.000000 0.000000 0
0.000000 0.000000 0
0.000000 0.000000 0
0.000000 0.000000 0
0.000000 0.000000 0
0.000000 0.000000 0
0.000000 0.000000 0
0.000000 0.000000 0
0.000000 0.000000 0
0.000000 0.000000 0
0.000000 0.000000 0
0.000000 0.000000 0
0.000000 0.000000 0
0.000000 0.000000 0
0.000000 0.000000 0
0.209297 -0.131892 0
0.805548 -0.492499 0
1.468638 -0.977636 0
2.052964 -1.502316 0
2.535536 -2.050017 0
2.939546 -2.643815 0
3.298542 -3.255672 0
4.069157 -4.554252 0
5.219808 -4.122985 0
3.917327 -1.907907 0
2.775802 -0.742419 0
2.002696 -0.196075 0
1.719500 0.050329 0
1.750204 0.170766 0
1.910758 0.225800 0
2.130058 0.246752 0
2.369356 0.243851 0
2.605635 0.225096 0
2.824260 0.197624 0
3.017924 0.166671 0
3.184108 0.135981 0
3.323366 0.107985 0
3.438100 0.084010 0
3.531654 0.064520 0
3.607659 0.049376 0
3.669615 0.038073 0
3.720642 0.029939 0
3.763375 0.024281 0
3.799944 0.020475 0
3.832022 0.018008 0
3.860895 0.016501 0
3.887555 0.015696 0
3.912795 0.015450 0
3.937298 0.015722 0
3.961729 0.016564 0
3.986828 0.018124 0
4.013507 0.020657 0
4.042974 0.024557 0
4.076879 0.030406 0
4.117520 0.039052 0
4.168117 0.051747 0
4.233201 0.070352 0
4.319157 0.097702 0
4.435023 0.138268 0
4.593499 0.199481 0
4.813234 0.295221 0
5.116109 0.451976 0
5.542820 0.745580 0
5.974862 1.232381 0
6.150368 1.769627 0
6.207598 2.213074 0
6.130768 2.544733 0
5.900569 2.729697 0
5.476827 2.716792 0
4.764096 2.444364 0
3.599395 1.854611 0
1.408459 0.736862 0
0.000000 0.000000 0
-0.001100 0.000000 0
0.000000 0.000000 0
0.000000 0.000000 0
0.000000 0.000000 0
0.000000 0.000000 0
0.000000 0.000000 0
0.000000 0.000000 0
0.000000 0.000000 0
0.000000 0.000000 0
0.000000 0.000000 0
0.000000 0.000000 0
0.000000 0.000000 0
0.000000 0.000000 0
0.000000 0.000000 0
0.000000 0.000000 0
0.000000 0.000000 0
0.000000 0.000000 0
0.000000 0.000000 0
0.000000 0.000000 0
0.000000 0.000000 0
0.000000 0.000000 0
0.000000 0.000000 0
0.000000 0.000000 0
0.195385 -0.102327 0
0.724450 -0.396828 0
1.360586 -0.809493 0
1.928663 -1.262046 0
2.381817 -1.734014 0
2.710075 -2.230635 0
2.935306 -2.790131 0
3.101702 -3.489770 0
3.571919 -4.951409 0
4.021635 -3.892456 0
1.557049 -1.111078 0
0.421465 -0.190131 0
0.058474 0.072611 0
0.025688 0.062043 0
0.160063 0.068520 0
0.370380 0.094920 0
0.615840 0.106965 0
0.868450 0.105540 0
1.108053 0.095805 0
1.322807 0.082197 0
1.506958 0.067176 0
1.659234 0.052587 0
1.781435 0.039628 0
1.877201 0.028911 0
1.951009 0.020584 0
2.007435 0.014477 0
2.050675 0.010244 0
2.084285 0.007473 0
2.111107 0.005770 0
2.133297 0.004801 0
2.152435 0.004316 0
2.169647 0.004139 0
2.185742 0.004168 0
2.201329 0.004355 0
2.216927 0.004699 0
2.233063 0.005239 0
2.250362 0.006055 0
2.269646 0.007270 0
2.292058 0.009071 0
2.319215 0.011727 0
2.353432 0.015640 0
2.398043 0.021411 0
2.457884 0.029967 0
2.540048 0.042773 0
2.655097 0.062300 0
2.819143 0.092645 0
3.057749 0.143906 0
3.415048 0.230433 0
3.970064 0.465946 0
4.892225 1.014500 0
5.376683 1.653920 0
5.756798 2.157891 0
5.966366 2.564019 0
5.982427 2.836467 0
5.791133 2.932439 0
5.356451 2.808673 0
4.608242 2.433213 0
3.432230 1.788060 0
1.334152 0.698157 0
0.000000 0.000000 0
-0.001256 0.000000 0
0.000000 0.000000 0
0.000000 0.000000 0
0.000000 0.000000 0
0.000000 0.000000 0
0.000000 0.000000 0
0.000000 0.000000 0
0.000000 0.000000 0
0.000000 0.000000 0
0.000000 0.000000 0
0.000000 0.000000 0
0.000000 0.000000 0
0.000000 0.000000 0
0.000000 0.000000 0
0.000000 0.000000 0
0.000000 0.000000 0
0.000000 0.000000 0
0.000000 0.000000 0
0.000000 0.000000 0
0.000000 0.000000 0
0.000000 0.000000 0
0.225205 -0.095108 0
0.751180 -0.355853 0
1.380235 -0.707789 0
1.941076 -1.089086 0
2.380284 -1.483570 0
2.679163 -1.889440 0
2.838918 -2.324225 0
2.878206 -2.837834 0
2.824976 -3.571061 0
2.797066 -5.010001 0
1.635020 -3.000461 0
-0.000001 0.000000 0
-0.000001 0.000000 0
-0.000002 0.000000 0
-0.000002 0.000000 0
-0.000001 0.000000 0
-0.000001 0.000000 0
-0.000000 0.000000 0
0.000000 0.000000 0
0.000000 0.000000 0
0.000000 0.000000 0
0.000000 0.000000 0
0.000000 0.000000 0
0.000000 0.000000 0
-0.000000 0.000000 0
-0.000000 0.000000 0
-0.000000 0.000000 0
0.000000 0.000000 0
0.000000 0.000000 0
0.000000 0.000000 0
0.000000 0.000000 0
0.000000 0.000000 0
0.000000 0.000000 0
0.000000 0.000000 0
0.000000 0.000000 0
0.000000 0.000000 0
0.000000 0.000000 0
0.000000 0.000000 0
0.000000 0.000000 0
0.000000 0.000000 0
0.000000 0.000000 0
0.000000 0.000000 0
0.000000 0.000000 0
0.000000 0.000000 0
-0.000000 0.000000 0
-0.000000 0.000000 0
-0.000000 0.000000 0
-0.000000 0.000000 0
-0.000001 0.000000 0
-0.000002 0.000000 0
2.077816 0.521757 0
3.746905 1.341303 0
4.739826 1.920935 0
5.380688 2.432952 0
5.725503 2.816510 0
5.801958 3.026911 0
5.622591 3.030389 0
5.173176 2.807902 0
4.414062 2.361370 0
3.267597 1.702821 0
1.279586 0.660929 0
0.000000 0.000000 0
-0.002076 0.000000 0
0.000000 0.000000 0
0.000000 0.000000 0
0.000000 0.000000 0
0.000000 0.000000 0
0.000000 0.000000 0
0.000000 0.000000 0
0.000000 0.000000 0
0.000000 0.000000 0
0.000000 0.000000 0
0.000000 0.000000 0
0.000000 0.000000 0
0.000000 0.000000 0
0.000000 0.000000 0
0.000000 0.000000 0
0.000000 0.000000 0
0.000000 0.000000 0
0.000000 0.000000 0
0.000000 0.000000 0
0.308970 -0.109519 0
0.897371 -0.368407 0
1.541541 -0.672859 0
2.096107 -0.986322 0
2.519638 -1.304934 0
2.797038 -1.627707 0
2.926986 -1.961228 0
2.918840 -2.329244 0
2.785193 -2.783224 0
2.522371 -3.449572 0
2.017866 -4.378913 0
0.037598 -0.000001 0
-0.073660 2.449425 0
0.383967 0.000000 0
0.310119 0.000000 0
0.237401 0.000000 0
0.184885 0.000000 0
0.099094 0.000000 0
-0.006710 0.000000 0
-0.116814 0.000000 0
-0.219743 0.000000 0
-0.310197 0.000000 0
-0.385657 0.000000 0
-0.445793 0.000000 0
-0.491805 0.000000 0
-0.525782 0.000000 0
-0.550161 0.000000 0
-0.567330 0.000000 0
-0.579383 0.000000 0
-0.588008 0.000000 0
-0.594468 0.000000 0
-0.599654 0.000000 0
-0.604160 0.000000 0
-0.608365 0.000000 0
-0.612515 0.000000 0
-0.616779 0.000000 0
-0.621306 0.000000 0
-0.626264 0.000000 0
-0.631881 0.000000 0
-0.638486 0.000000 0
-0.646557 0.000000 0
-0.656795 0.000000 0
-0.670228 0.000000 0
-0.688365 0.000000 0
-0.713447 0.000000 0
-0.748853 0.000000 0
-0.799784 0.000000 0
-0.874606 0.000000 0
-0.986788 0.000000 0
-1.165081 0.000000 0
-1.451919 0.132861 0
0.000000 0.000002 0
1.709014 0.338494 0
3.313131 1.348488 0
4.420554 2.075698 0
5.137738 2.627763 0
5.515487 2.983423 0
5.599186 3.120182 0
5.414729 3.031938 0
4.963078 2.732115 0
4.225501 2.252332 0
3.145588 1.620132 0
1.262758 0.633936 0
0.000000 0.000000 0
-0.003779 0.000000 0
0.000000 0.000000 0
0.000000 0.000000 0
0.000000 0.000000 0
0.000000 0.000000 0
0.000000 0.000000 0
0.000000 0.000000 0
0.000000 0.000000 0
0.000000 0.000000 0
0.000000 0.000000 0
0.000000 0.000000 0
0.000000 0.000000 0
0.000000 0.000000 0
0.000000 0.000000 0
0.000000 0.000000 0
0.000000 0.000000 0
0.000000 0.000000 0
0.482584 -0.150488 0
1.207561 -0.439940 0