# vtk DataFile Version 2.0
generated by CFD-lab course output (written by Tobias Neckel) 
ASCII

DATASET STRUCTURED_GRID
DIMENSIONS  82 60 1 
POINTS 4920 float

-1.500000 -0.500000 0
-1.402439 -0.500000 0
-1.304878 -0.500000 0
-1.207317 -0.500000 0
-1.109756 -0.500000 0
-1.012195 -0.500000 0
-0.914634 -0.500000 0
-0.817073 -0.500000 0
-0.719512 -0.500000 0
-0.621951 -0.500000 0
-0.524390 -0.500000 0
-0.426829 -0.500000 0
-0.329268 -0.500000 0
-0.231707 -0.500000 0
-0.134146 -0.500000 0
-0.036585 -0.500000 0
0.060976 -0.500000 0
0.158537 -0.500000 0
0.256098 -0.500000 0
0.353659 -0.500000 0
0.451220 -0.500000 0
0.548780 -0.500000 0
0.646341 -0.500000 0
0.743902 -0.500000 0
0.841463 -0.500000 0
0.939024 -0.500000 0
1.036585 -0.500000 0
1.134146 -0.500000 0
1.231707 -0.500000 0
1.329268 -0.500000 0
1.426829 -0.500000 0
1.524390 -0.500000 0
1.621951 -0.500000 0
1.719512 -0.500000 0
1.817073 -0.500000 0
1.914634 -0.500000 0
2.012195 -0.500000 0
2.109756 -0.500000 0
2.207317 -0.500000 0
2.304878 -0.500000 0
2.402439 -0.500000 0
2.500000 -0.500000 0
2.597561 -0.500000 0
2.695122 -0.500000 0
2.792683 -0.500000 0
2.890244 -0.500000 0
2.987805 -0.500000 0
3.085366 -0.500000 0
3.182927 -0.500000 0
3.280488 -0.500000 0
3.378049 -0.500000 0
3.475610 -0.500000 0
3.573171 -0.500000 0
3.670732 -0.500000 0
3.768293 -0.500000 0
3.865854 -0.500000 0
3.963415 -0.500000 0
4.060976 -0.500000 0
4.158537 -0.500000 0
4.256098 -0.500000 0
4.353659 -0.500000 0
4.451220 -0.500000 0
4.548780 -0.500000 0
4.646341 -0.500000 0
4.743902 -0.500000 0
4.841463 -0.500000 0
4.939024 -0.500000 0
5.036585 -0.500000 0
5.134146 -0.500000 0
5.231707 -0.500000 0
5.329268 -0.500000 0
5.426829 -0.500000 0
5.524390 -0.500000 0
5.621951 -0.500000 0
5.719512 -0.500000 0
5.817073 -0.500000 0
5.914634 -0.500000 0
6.012195 -0.500000 0
6.109756 -0.500000 0
6.207317 -0.500000 0
6.304878 -0.500000 0
6.402439 -0.500000 0
-1.500000 -0.451667 0
-1.402439 -0.451667 0
-1.304878 -0.451667 0
-1.207317 -0.451667 0
-1.109756 -0.451667 0
-1.012195 -0.451667 0
-0.914634 -0.451667 0
-0.817073 -0.451667 0
-0.719512 -0.451667 0
-0.621951 -0.451667 0
-0.524390 -0.451667 0
-0.426829 -0.451667 0
-0.329268 -0.451667 0
-0.231707 -0.451667 0
-0.134146 -0.451667 0
-0.036585 -0.451667 0
0.060976 -0.451667 0
0.158537 -0.451667 0
0.256098 -0.451667 0
0.353659 -0.451667 0
0.451220 -0.451667 0
0.548780 -0.451667 0
0.646341 -0.451667 0
0.743902 -0.451667 0
0.841463 -0.451667 0
0.939024 -0.451667 0
1.036585 -0.451667 0
1.134146 -0.451667 0
1.231707 -0.451667 0
1.329268 -0.451667 0
1.426829 -0.451667 0
1.524390 -0.451667 0
1.621951 -0.451667 0
1.719512 -0.451667 0
1.817073 -0.451667 0
1.914634 -0.451667 0
2.012195 -0.451667 0
2.109756 -0.451667 0
2.207317 -0.451667 0
2.304878 -0.451667 0
2.402439 -0.451667 0
2.500000 -0.451667 0
2.597561 -0.451667 0
2.695122 -0.451667 0
2.792683 -0.451667 0
2.890244 -0.451667 0
2.987805 -0.451667 0
3.085366 -0.451667 0
3.182927 -0.451667 0
3.280488 -0.451667 0
3.378049 -0.451667 0
3.475610 -0.451667 0
3.573171 -0.451667 0
3.670732 -0.451667 0
3.768293 -0.451667 0
3.865854 -0.451667 0
3.963415 -0.451667 0
4.060976 -0.451667 0
4.158537 -0.451667 0
4.256098 -0.451667 0
4.353659 -0.451667 0
4.451220 -0.451667 0
4.548780 -0.451667 0
4.646341 -0.451667 0
4.743902 -0.451667 0
4.841463 -0.451667 0
4.939024 -0.451667 0
5.036585 -0.451667 0
5.134146 -0.451667 0
5.231707 -0.451667 0
5.329268 -0.451667 0
5.426829 -0.451667 0
5.524390 -0.451667 0
5.621951 -0.451667 0
5.719512 -0.451667 0
5.817073 -0.451667 0
5.914634 -0.451667 0
6.012195 -0.451667 0
6.109756 -0.451667 0
6.207317 -0.451667 0
6.304878 -0.451667 0
6.402439 -0.451667 0
-1.500000 -0.403333 0
-1.402439 -0.403333 0
-1.304878 -0.403333 0
-1.207317 -0.403333 0
-1.109756 -0.403333 0
-1.012195 -0.403333 0
-0.914634 -0.403333 0
-0.817073 -0.403333 0
-0.719512 -0.403333 0
-0.621951 -0.403333 0
-0.524390 -0.403333 0
-0.426829 -0.403333 0
-0.329268 -0.403333 0
-0.231707 -0.403333 0
-0.134146 -0.403333 0
-0.036585 -0.403333 0
0.060976 -0.403333 0
0.158537 -0.403333 0
0.256098 -0.403333 0
0.353659 -0.403333 0
0.451220 -0.403333 0
0.548780 -0.403333 0
0.646341 -0.403333 0
0.743902 -0.403333 0
0.841463 -0.403333 0
0.939024 -0.403333 0
1.036585 -0.403333 0
1.134146 -0.403333 0
1.231707 -0.403333 0
1.329268 -0.403333 0
1.426829 -0.403333 0
1.524390 -0.403333 0
1.621951 -0.403333 0
1.719512 -0.403333 0
1.817073 -0.403333 0
1.914634 -0.403333 0
2.012195 -0.403333 0
2.109756 -0.403333 0
2.207317 -0.403333 0
2.304878 -0.403333 0
2.402439 -0.403333 0
2.500000 -0.403333 0
2.597561 -0.403333 0
2.695122 -0.403333 0
2.792683 -0.403333 0
2.890244 -0.403333 0
2.987805 -0.403333 0
3.085366 -0.403333 0
3.182927 -0.403333 0
3.280488 -0.403333 0
3.378049 -0.403333 0
3.475610 -0.403333 0
3.573171 -0.403333 0
3.670732 -0.403333 0
3.768293 -0.403333 0
3.865854 -0.403333 0
3.963415 -0.403333 0
4.060976 -0.403333 0
4.158537 -0.403333 0
4.256098 -0.403333 0
4.353659 -0.403333 0
4.451220 -0.403333 0
4.548780 -0.403333 0
4.646341 -0.403333 0
4.743902 -0.403333 0
4.841463 -0.403333 0
4.939024 -0.403333 0
5.036585 -0.403333 0
5.134146 -0.403333 0
5.231707 -0.403333 0
5.329268 -0.403333 0
5.426829 -0.403333 0
5.524390 -0.403333 0
5.621951 -0.403333 0
5.719512 -0.403333 0
5.817073 -0.403333 0
5.914634 -0.403333 0
6.012195 -0.403333 0
6.109756 -0.403333 0
6.207317 -0.403333 0
6.304878 -0.403333 0
6.402439 -0.403333 0
-1.500000 -0.355000 0
-1.402439 -0.355000 0
-1.304878 -0.355000 0
-1.207317 -0.355000 0
-1.109756 -0.355000 0
-1.012195 -0.355000 0
-0.914634 -0.355000 0
-0.817073 -0.355000 0
-0.719512 -0.355000 0
-0.621951 -0.355000 0
-0.524390 -0.355000 0
-0.426829 -0.355000 0
-0.329268 -0.355000 0
-0.231707 -0.355000 0
-0.134146 -0.355000 0
-0.036585 -0.355000 0
0.060976 -0.355000 0
0.158537 -0.355000 0
0.256098 -0.355000 0
0.353659 -0.355000 0
0.451220 -0.355000 0
0.548780 -0.355000 0
0.646341 -0.355000 0
0.743902 -0.355000 0
0.841463 -0.355000 0
0.939024 -0.355000 0
1.036585 -0.355000 0
1.134146 -0.355000 0
1.231707 -0.355000 0
1.329268 -0.355000 0
1.426829 -0.355000 0
1.524390 -0.355000 0
1.621951 -0.355000 0
1.719512 -0.355000 0
1.817073 -0.355000 0
1.914634 -0.355000 0
2.012195 -0.355000 0
2.109756 -0.355000 0
2.207317 -0.355000 0
2.304878 -0.355000 0
2.402439 -0.355000 0
2.500000 -0.355000 0
2.597561 -0.355000 0
2.695122 -0.355000 0
2.792683 -0.355000 0
2.890244 -0.355000 0
2.987805 -0.355000 0
3.085366 -0.355000 0
3.182927 -0.355000 0
3.280488 -0.355000 0
3.378049 -0.355000 0
3.475610 -0.355000 0
3.573171 -0.355000 0
3.670732 -0.355000 0
3.768293 -0.355000 0
3.865854 -0.355000 0
3.963415 -0.355000 0
4.060976 -0.355000 0
4.158537 -0.355000 0
4.256098 -0.355000 0
4.353659 -0.355000 0
4.451220 -0.355000 0
4.548780 -0.355000 0
4.646341 -0.355000 0
4.743902 -0.355000 0
4.841463 -0.355000 0
4.939024 -0.355000 0
5.036585 -0.355000 0
5.134146 -0.355000 0
5.231707 -0.355000 0
5.329268 -0.355000 0
5.426829 -0.355000 0
5.524390 -0.355000 0
5.621951 -0.355000 0
5.719512 -0.355000 0
5.817073 -0.355000 0
5.914634 -0.355000 0
6.012195 -0.355000 0
6.109756 -0.355000 0
6.207317 -0.355000 0
6.304878 -0.355000 0
6.402439 -0.355000 0
-1.500000 -0.306667 0
-1.402439 -0.306667 0
-1.304878 -0.306667 0
-1.207317 -0.306667 0
-1.109756 -0.306667 0
-1.012195 -0.306667 0
-0.914634 -0.306667 0
-0.817073 -0.306667 0
-0.719512 -0.306667 0
-0.621951 -0.306667 0
-0.524390 -0.306667 0
-0.426829 -0.306667 0
-0.329268 -0.306667 0
-0.231707 -0.306667 0
-0.134146 -0.306667 0
-0.036585 -0.306667 0
0.060976 -0.306667 0
0.158537 -0.306667 0
0.256098 -0.306667 0
0.353659 -0.306667 0
0.451220 -0.306667 0
0.548780 -0.306667 0
0.646341 -0.306667 0
0.743902 -0.306667 0
0.841463 -0.306667 0
0.939024 -0.306667 0
1.036585 -0.306667 0
1.134146 -0.306667 0
1.231707 -0.306667 0
1.329268 -0.306667 0
1.426829 -0.306667 0
1.524390 -0.306667 0
1.621951 -0.306667 0
1.719512 -0.306667 0
1.817073 -0.306667 0
1.914634 -0.306667 0
2.012195 -0.306667 0
2.109756 -0.306667 0
2.207317 -0.306667 0
2.304878 -0.306667 0
2.402439 -0.306667 0
2.500000 -0.306667 0
2.597561 -0.306667 0
2.695122 -0.306667 0
2.792683 -0.306667 0
2.890244 -0.306667 0
2.987805 -0.306667 0
3.085366 -0.306667 0
3.182927 -0.306667 0
3.280488 -0.306667 0
3.378049 -0.306667 0
3.475610 -0.306667 0
3.573171 -0.306667 0
3.670732 -0.306667 0
3.768293 -0.306667 0
3.865854 -0.306667 0
3.963415 -0.306667 0
4.060976 -0.306667 0
4.158537 -0.306667 0
4.256098 -0.306667 0
4.353659 -0.306667 0
4.451220 -0.306667 0
4.548780 -0.306667 0
4.646341 -0.306667 0
4.743902 -0.306667 0
4.841463 -0.306667 0
4.939024 -0.306667 0
5.036585 -0.306667 0
5.134146 -0.306667 0
5.231707 -0.306667 0
5.329268 -0.306667 0
5.426829 -0.306667 0
5.524390 -0.306667 0
5.621951 -0.306667 0
5.719512 -0.306667 0
5.817073 -0.306667 0
5.914634 -0.306667 0
6.012195 -0.306667 0
6.109756 -0.306667 0
6.207317 -0.306667 0
6.304878 -0.306667 0
6.402439 -0.306667 0
-1.500000 -0.258333 0
-1.402439 -0.258333 0
-1.304878 -0.258333 0
-1.207317 -0.258333 0
-1.109756 -0.258333 0
-1.012195 -0.258333 0
-0.914634 -0.258333 0
-0.817073 -0.258333 0
-0.719512 -0.258333 0
-0.621951 -0.258333 0
-0.524390 -0.258333 0
-0.426829 -0.258333 0
-0.329268 -0.258333 0
-0.231707 -0.258333 0
-0.134146 -0.258333 0
-0.036585 -0.258333 0
0.060976 -0.258333 0
0.158537 -0.258333 0
0.256098 -0.258333 0
0.353659 -0.258333 0
0.451220 -0.258333 0
0.548780 -0.258333 0
0.646341 -0.258333 0
0.743902 -0.258333 0
0.841463 -0.258333 0
0.939024 -0.258333 0
1.036585 -0.258333 0
1.134146 -0.258333 0
1.231707 -0.258333 0
1.329268 -0.258333 0
1.426829 -0.258333 0
1.524390 -0.258333 0
1.621951 -0.258333 0
1.719512 -0.258333 0
1.817073 -0.258333 0
1.914634 -0.258333 0
2.012195 -0.258333 0
2.109756 -0.258333 0
2.207317 -0.258333 0
2.304878 -0.258333 0
2.402439 -0.258333 0
2.500000 -0.258333 0
2.597561 -0.258333 0
2.695122 -0.258333 0
2.792683 -0.258333 0
2.890244 -0.258333 0
2.987805 -0.258333 0
3.085366 -0.258333 0
3.182927 -0.258333 0
3.280488 -0.258333 0
3.378049 -0.258333 0
3.475610 -0.258333 0
3.573171 -0.258333 0
[...]
POINT_DATA 4920 

VECTORS velocity float
0.000000 0.000000 0
0.000000 0.000000 0
0.000000 0.000000 0
0.000000 0.000000 0
0.000000 0.000000 0
0.000000 0.000000 0
0.000000 0.000000 0
0.000000 0.000000 0
0.000000 0.000000 0
0.000000 0.000000 0
0.000000 0.000000 0
0.000000 0.000000 0
0.000000 0.000000 0
0.000000 0.000000 0
0.000000 0.000000 0
-0.000002 0.000000 0
-0.000003 0.000000 0
-0.000003 0.000000 0
-0.000003 0.000000 0
-0.000003 0.000000 0
-0.000004 0.000000 0
-0.000004 0.000000 0
-0.000005 0.000000 0
-0.000005 0.000000 0
-0.000006 0.000000 0
-0.000006 0.000000 0
-0.000006 0.000000 0
-0.000006 0.000000 0
-0.000005 0.000000 0
-0.000005 0.000000 0
-0.000005 0.000000 0
-0.000004 0.000000 0
-0.000004 0.000000 0
-0.000004 0.000000 0
-0.000004 0.000000 0
-0.000005 0.000000 0
-0.000005 0.000000 0
-0.000005 0.000000 0
-0.000005 0.000000 0
-0.000005 0.000000 0
-0.000005 0.000000 0
-0.000005 0.000000 0
-0.000005 0.000000 0
-0.000005 0.000000 0
-0.000005 0.000000 0
-0.000005 0.000000 0
-0.000005 0.000000 0
-0.000005 0.000000 0
-0.000005 0.000000 0
-0.000005 0.000000 0
-0.000005 0.000000 0
-0.000004 0.000000 0
-0.000004 0.000000 0
-0.000004 0.000000 0
-0.000004 0.000000 0
-0.000004 0.000000 0
-0.000000 0.000000 0
0.001916 0.000000 0
0.000000 0.000000 0
0.000000 0.000000 0
0.000000 0.000000 0
0.000000 0.000000 0
0.000000 0.000000 0
0.000000 0.000000 0
0.000000 0.000000 0
0.000000 0.000000 0
0.000000 0.000000 0
0.000000 0.000000 0
0.000000 0.000000 0
0.000000 0.000000 0
0.000000 0.000000 0
0.000000 0.000000 0
0.000000 0.000000 0
0.000000 0.000000 0
0.000000 0.000000 0
0.000000 0.000000 0
0.000000 0.000000 0
0.000000 0.000000 0
0.000000 0.000000 0
0.000000 0.000000 0
0.000000 0.000000 0
0.000000 0.000000 0
0.000000 0.000000 0
0.000000 0.000000 0
0.000000 0.000000 0
0.000000 0.000000 0
0.000000 0.000000 0
0.000000 0.000000 0
0.000000 0.000000 0
0.000000 0.000000 0
0.000000 0.000000 0
0.000000 0.000000 0
0.000000 0.000000 0
0.000000 0.000000 0
0.000000 0.000000 0
0.000000 0.000000 0
1.046541 -0.422584 0
2.518645 -0.738312 0
3.780309 -0.505218 0
4.623435 -0.265428 0
5.056913 -0.070105 0
5.167817 0.061974 0
5.063833 0.139788 0
4.830254 0.177785 0
4.531251 0.186533 0
4.213723 0.175012 0
3.909962 0.151107 0
3.639732 0.121564 0
3.412447 0.091682 0
3.229674 0.065041 0
3.087808 0.043479 0
2.980523 0.027401 0
2.900679 0.016272 0
2.841542 0.009112 0
2.797394 0.004867 0
2.763718 0.002613 0
2.737128 0.001630 0
2.715194 0.001404 0
2.696221 0.001594 0
2.679052 0.001993 0
2.662891 0.002488 0
2.647159 0.003038 0
2.631380 0.003648 0
2.615077 0.004364 0
2.597694 0.005264 0
2.578499 0.006456 0
2.556495 0.008092 0
2.530291 0.010373 0
2.497951 0.013565 0
2.456788 0.018017 0
2.403101 0.024178 0
2.331843 0.032592 0
2.236252 0.043863 0
2.107504 0.058472 0
1.934756 0.076481 0
1.705586 0.096403 0
1.410151 0.115088 0
1.039524 0.130809 0
0.617359 0.068969 0
-0.000000 0.000000 0
-0.001584 0.000000 0
0.000000 0.000000 0
0.000000 0.000000 0
0.000000 0.000000 0
0.000000 0.000000 0
0.000000 0.000000 0
0.000000 0.000000 0
0.000000 0.000000 0
0.000000 0.000000 0
0.000000 0.000000 0
0.000000 0.000000 0
0.000000 0.000000 0
0.000000 0.000000 0
0.000000 0.000000 0
0.000000 0.000000 0
0.000000 0.000000 0
0.000000 0.000000 0
0.000000 0.000000 0
0.000000 0.000000 0
0.000000 0.000000 0
0.000000 0.000000 0
0.000000 0.000000 0
0.000000 0.000000 0
0.000000 0.000000 0
0.000000 0.000000 0
0.000000 0.000000 0
0.000000 0.000000 0
0.000000 0.000000 0
0.000000 0.000000 0
0.000000 0.000000 0
0.000000 0.000000 0
0.000000 0.000000 0
0.000000 0.000000 0
0.000000 0.000000 0
0.000000 0.000000 0
0.000000 0.000000 0
0.000000 0.000000 0
1.159797 -0.517064 0
2.654140 -1.246164 0
3.829137 -1.354149 0
5.003265 -1.042748 0
5.864760 -0.632451 0
6.391846 -0.269696 0
6.647945 -0.003428 0
6.707601 0.167234 0
6.638985 0.263850 0
6.491642 0.305440 0
6.301768 0.307797 0
6.095423 0.284365 0
5.890713 0.246477 0
5.699398 0.203149 0
5.528198 0.160831 0
5.379939 0.123434 0
5.254624 0.092707 0
5.150412 0.068853 0
5.064466 0.051169 0
4.993611 0.038556 0
4.934776 0.029857 0
4.885250 0.024040 0
4.842781 0.020266 0
4.805574 0.017905 0
4.772229 0.016512 0
4.741659 0.015800 0
4.712990 0.015611 0
4.685471 0.015894 0
4.658383 0.016689 0
4.630944 0.018121 0
4.602217 0.020410 0
4.570988 0.023883 0
4.535629 0.029004 0
4.493902 0.036414 0
4.442708 0.046990 0
4.377733 0.061900 0
4.292981 0.082660 0
4.180130 0.111141 0
4.027744 0.149366 0
3.820342 0.199117 0
3.537759 0.259898 0
3.155740 0.329978 0
2.648527 0.392252 0
2.016400 0.512685 0
1.051814 0.304048 0
-0.000000 0.000000 0
-0.004756 0.000000 0
0.000000 0.000000 0
0.000000 0.000000 0
0.000000 0.000000 0
0.000000 0.000000 0
0.000000 0.000000 0
0.000000 0.000000 0
0.000000 0.000000 0
0.000000 0.000000 0
0.000000 0.000000 0
0.000000 0.000000 0
0.000000 0.000000 0
0.000000 0.000000 0
0.000000 0.000000 0
0.000000 0.000000 0
0.000000 0.000000 0
0.000000 0.000000 0
0.000000 0.000000 0
0.000000 0.000000 0
0.000000 0.000000 0
0.000000 0.000000 0
0.000000 0.000000 0
0.000000 0.000000 0
0.000000 0.000000 0
0.000000 0.000000 0
0.000000 0.000000 0
0.000000 0.000000 0
0.000000 0.000000 0
0.000000 0.000000 0
0.000000 0.000000 0
0.000000 0.000000 0
0.000000 0.000000 0
0.000000 0.000000 0
0.000000 0.000000 0
0.000000 0.000000 0
0.936253 -0.582627 0
2.634998 -1.321540 0
3.462809 -1.743610 0
4.645612 -1.902108 0
5.709155 -1.513700 0
6.432356 -0.953354 0
6.857232 -0.458108 0
7.080384 -0.094456 0
7.168410 0.144227 0
7.170177 0.284775 0
7.118910 0.353595 0
7.036851 0.371305 0
6.938863 0.354751 0
6.835036 0.317761 0
6.732319 0.271278 0
6.635387 0.223306 0
6.547079 0.179012 0
6.468701 0.141113 0
6.400351 0.110479 0
6.341299 0.086793 0
6.290347 0.069118 0
6.246131 0.056297 0
6.207332 0.047206 0
6.172778 0.040877 0
6.141493 0.036547 0
6.112683 0.033657 0
6.085707 0.031836 0
6.060024 0.030874 0
6.035144 0.030701 0
6.010567 0.031378 0
5.985724 0.033089 0
5.959904 0.036159 0
5.932164 0.041081 0
5.901218 0.048563 0
5.865269 0.059599 0
5.821790 0.075569 0
5.767196 0.098355 0
5.696378 0.130488 0
5.601988 0.175265 0
5.473418 0.236717 0
5.295159 0.319228 0
5.045112 0.425658 0
4.691444 0.555628 0
4.201632 0.695256 0
3.532135 0.856271 0
2.834050 0.997624 0
1.344767 0.523488 0
-0.000000 0.000000 0
-0.005866 0.000000 0
0.000000 0.000000 0
0.000000 0.000000 0
0.000000 0.000000 0
0.000000 0.000000 0
0.000000 0.000000 0
0.000000 0.000000 0
0.000000 0.000000 0
0.000000 0.000000 0
0.000000 0.000000 0
0.000000 0.000000 0
0.000000 0.000000 0
0.000000 0.000000 0
0.000000 0.000000 0
0.000000 0.000000 0
0.000000 0.000000 0
0.000000 0.000000 0
0.000000 0.000000 0
0.000000 0.000000 0
0.000000 0.000000 0
0.000000 0.000000 0
0.000000 0.000000 0
0.000000 0.000000 0
0.000000 0.000000 0
0.000000 0.000000 0
0.000000 0.000000 0
0.000000 0.000000 0
0.000000 0.000000 0
0.000000 0.000000 0
0.000000 0.000000 0
0.000000 0.000000 0
0.000000 0.000000 0
0.000000 0.000000 0
0.738532 -0.467455 0
2.144730 -1.317086 0
3.090764 -1.776806 0
3.865301 -2.242255 0
5.208492 -2.467026 0
6.164215 -1.927931 0
6.689757 -1.201228 0
6.947563 -0.590739 0
7.066179 -0.157591 0
7.112610 0.122749 0
7.116515 0.288373 0
7.098284 0.371492 0
7.069366 0.396995 0
7.035493 0.384347 0
6.999426 0.348803 0
6.962773 0.302059 0
6.926802 0.252602 0
6.892616 0.206013 0
6.861053 0.165398 0
6.832584 0.131970 0
6.807305 0.105667 0
6.785012 0.085703 0
6.765321 0.070984 0
6.747776 0.060380 0
6.731925 0.052884 0
6.717361 0.047677 0
6.703741 0.044149 0
6.690778 0.041888 0
6.678224 0.040661 0
6.665850 0.040396 0
6.653412 0.041172 0
6.640622 0.043221 0
6.627108 0.046945 0
6.612357 0.052957 0
6.595646 0.062145 0
6.575936 0.075764 0
6.551719 0.095577 0
6.520781 0.124031 0
6.479822 0.164507 0
6.423822 0.221599 0
6.344974 0.301374 0
6.230680 0.411306 0
6.060544 0.558989 0
5.800866 0.747852 0
5.408333 0.966593 0
4.839870 1.190208 0
4.170661 1.389944 0
3.381466 1.411375 0
1.503234 0.671322 0
-0.000000 0.000000 0
-0.005335 0.000000 0
0.000000 0.000000 0
0.000000 0.000000 0
0.000000 0.000000 0
0.000000 0.000000 0
0.000000 0.000000 0
0.000000 0.000000 0
0.000000 0.000000 0
0.000000 0.000000 0
0.000000 0.000000 0
0.000000 0.000000 0
0.000000 0.000000 0
0.000000 0.000000 0
0.000000 0.000000 0
0.000000 0.000000 0
0.000000 0.000000 0
0.000000 0.000000 0
0.000000 0.000000 0
0.000000 0.000000 0
0.000000 0.000000 0
0.000000 0.000000 0
0.000000 0.000000 0
0.000000 0.000000 0
0.000000 0.000000 0
0.000000 0.000000 0
0.000000 0.000000 0
0.000000 0.000000 0
0.000000 0.000000 0
0.000000 0.000000 0
0.000000 0.000000 0
0.000000 0.000000 0
0.536306 -0.369351 0
1.698876 -1.069625 0
2.545638 -1.751582 0
3.301168 -2.173940 0
4.127094 -2.792767 0
5.619821 -3.041028 0
6.352955 -2.247543 0
6.585705 -1.341438 0
6.619170 -0.644594 0
6.606956 -0.176223 0
6.592111 0.119290 0
6.581950 0.291872 0
6.580619 0.376954 0
6.587514 0.402413 0
6.599725 0.389400 0
6.613821 0.353788 0
6.627126 0.307257 0
6.638164 0.258063 0
6.646526 0.211586 0
6.652487 0.170854 0
6.656626 0.137107 0
6.659546 0.110362 0
6.661742 0.089917 0
6.663559 0.074744 0
6.665209 0.063751 0
6.666804 0.055945 0
6.668392 0.050510 0
6.669983 0.046827 0
6.671568 0.044477 0
6.673129 0.043223 0
6.674643 0.042994 0
6.676084 0.043876 0
6.677424 0.046120 0
6.678620 0.050162 0
6.679610 0.056668 0
6.680291 0.066607 0
6.680488 0.081361 0
6.679894 0.102893 0
6.677959 0.133974 0
6.673681 0.178523 0
6.665165 0.242071 0
6.648739 0.332402 0
6.616928 0.460140 0
6.554378 0.638595 0
6.429346 0.878744 0
6.185567 1.171349 0
5.774498 1.469434 0
5.224678 1.720142 0
4.586106 1.853219 0
3.676111 1.688647 0
1.559330 0.749896 0
0.000000 0.000000 0
-0.004050 0.000000 0
0.000000 0.000000 0
0.000000 0.000000 0
0.000000 0.000000 0
0.000000 0.000000 0
0.000000 0.000000 0
0.000000 0.000000 0
0.000000 0.000000 0
0.000000 0.000000 0
0.000000 0.000000 0
0.000000 0.000000 0
0.000000 0.000000 0
0.000000 0.000000 0
0.000000 0.000000 0
0.000000 0.000000 0
0.000000 0.000000 0
0.000000 0.000000 0
0.000000 0.000000 0
0.000000 0.000000 0
0.000000 0.000000 0
0.000000 0.000000 0
0.000000 0.000000 0
0.000000 0.000000 0
0.000000 0.000000 0
0.000000 0.000000 0
0.000000 0.000000 0
0.000000 0.000000 0
0.000000 0.000000 0
0.000000 0.000000 0
0.376590 -0.267024 0
1.297612 -0.846451 0
2.061803 -1.466382 0
2.754788 -2.110888 0
3.395419 -2.560286 0
4.281522 -3.390955 0
5.831868 -3.569754 0
6.152637 -2.406446 0
5.982542 -1.333115 0
5.743773 -0.601267 0
5.591308 -0.144185 0
5.515154 0.135138 0
5.502115 0.294066 0
5.532357 0.368735 0
5.588071 0.387529 0
5.655757 0.371315 0
5.725696 0.335228 0
5.791716 0.289999 0
5.850573 0.242992 0
5.901171 0.198917 0
5.943797 0.160394 0
5.979467 0.128473 0
6.009454 0.103133 0
6.035009 0.083715 0
6.057212 0.069266 0
6.076935 0.058773 0
6.094844 0.051307 0
6.111434 0.046102 0
6.127070 0.042575 0
6.142025 0.040329 0
6.156519 0.039138 0
6.170746 0.038932 0
6.184906 0.039794 0
6.199236 0.041965 0
6.214036 0.045862 0
6.229703 0.052129 0
6.246772 0.061710 0
6.265962 0.075961 0
6.288227 0.096829 0
6.314797 0.127109 0
6.347191 0.170846 0
6.387088 0.233956 0
6.435875 0.325271 0
6.493079 0.458054 0
6.551989 0.651920 0
6.588036 0.930567 0
6.527605 1.291016 0
6.298983 1.666249 0
5.925309 1.978693 0
5.438263 2.178561 0
4.799877 2.181268 0
3.774798 1.835581 0
1.545667 0.776461 0
0.000000 0.000000 0
-0.002693 0.000000 0
0.000000 0.000000 0
0.000000 0.000000 0
0.000000 0.000000 0
0.000000 0.000000 0
0.000000 0.000000 0
0.000000 0.000000 0
0.000000 0.000000 0
0.000000 0.000000 0
0.000000 0.000000 0
0.000000 0.000000 0
0.000000 0.000000 0
0.000000 0.000000 0
0.000000 0.000000 0
0.000000 0.000000 0
0.000000 0.000000 0
0.000000 0.000000 0
0.000000 0.000000 0
0.000000 0.000000 0
0.000000 0.000000 0
0.000000 0.000000 0
0.000000 0.000000 0
0.000000 0.000000 0
0.000000 0.000000 0
0.000000 0.000000 0
0.000000 0.000000 0
0.000000 0.000000 0
0.268086 -0.186516 0
0.996178 -0.644134 0
1.702778 -1.205562 0
2.320285 -1.791534 0
2.881112 -2.412277 0
3.396298 -2.930309 0
4.285085 -3.999825 0
5.744900 -3.968010 0
5.402399 -2.322189 0
4.739127 -1.138879 0
4.210438 -0.450770 0
3.921374 -0.062961 0
3.817684 0.163478 0
3.849147 0.283349 0
3.955088 0.334369 0
4.095020 0.341278 0
4.244878 0.321218 0
4.390073 0.286431 0
4.522649 0.245391 0
4.639089 0.203837 0
4.738749 0.165400 0
4.822719 0.132065 0
4.892979 0.104579 0
4.951816 0.082845 0
5.001459 0.066257 0
5.043892 0.053972 0
5.080776 0.045107 0
5.113449 0.038854 0
5.142958 0.034545 0
5.170119 0.031671 0
5.195570 0.029888 0
5.219839 0.028995 0
5.243395 0.028930 0
5.266707 0.029761 0
5.290308 0.031689 0
5.314853 0.035069 0
5.341205 0.040450 0
5.370526 0.048643 0
5.404410 0.060824 0
5.445046 0.078699 0
5.495436 0.104762 0
5.559654 0.142709 0
5.643144 0.198136 0
5.752910 0.279893 0
5.897237 0.402615 0
6.081900 0.591551 0
6.301372 0.890824 0
6.456366 1.314551 0
6.421838 1.767821 0
6.251450 2.146556 0
5.953867 2.410777 0
5.517040 2.512755 0
4.848673 2.371578 0
3.735483 1.882065 0
1.489128 0.768224 0
0.000001 0.000000 0
-0.001669 0.000000 0
0.000000 0.000000 0
0.000000 0.000000 0
0.000000 0.000000 0
0.000000 0.000000 0
0.000000 0.000000 0
0.000000 0.000000 0
0.000000 0.000000 0
0.000000 0.000000 0
0.000000 0.000000 0
0.000000 0.000000 0
0.000000 0.000000 0
0.000000 0.000000 0
0.000000 0.000000 0
0.000000 0.000000 0
0.000000 0.000000 0
0.000000 0.000000 0
0.000000 0.000000 0
0.000000 0.000000 0
0.000000 0.000000 0
0.000000 0.000000 0
0.000000 0.000000 0
0.000000 0.000000 0
0.000000 0.000000 0
0.000000 0.000000 0
0.209355 -0.131920 0
0.805709 -0.492576 0
1.468852 -0.977741 0
2.053199 -1.502435 0
2.535776 -2.050148 0
2.939779 -2.643963 0
3.298750 -3.255838 0
4.069369 -4.554491 0
5.219955 -4.123290 0
3.917316 -1.908169 0
2.775625 -0.742598 0
2.002421 -0.196139 0
1.719260 0.050392 0
1.750087 0.170920 0
1.910789 0.225994 0
2.130218 0.246925 0
2.369608 0.243962 0
2.605930 0.225141 0
2.824552 0.197616 0
3.018182 0.166632 0
3.184316 0.135932 0
3.323527 0.107944 0
3.438228 0.083986 0
3.531767 0.064516 0
3.607779 0.049390 0
3.669759 0.038099 0
3.720822 0.029971 0
3.763595 0.024313 0
3.800203 0.020501 0
3.832313 0.018027 0
3.861209 0.016510 0
3.887882 0.015697 0
3.913124 0.015445 0
3.937622 0.015713 0
3.962043 0.016553 0
3.987128 0.018112 0
4.013794 0.020646 0
4.043247 0.024548 0
4.077139 0.030397 0
4.117767 0.039042 0
4.168350 0.051734 0
4.233415 0.070331 0
4.319342 0.097669 0
4.435166 0.138214 0
4.593578 0.199390 0
4.813214 0.295068 0
5.115943 0.451705 0
5.542434 0.745050 0
5.974318 1.231335 0
6.150104 1.767767 0
6.208809 2.210533 0
6.134538 2.542400 0
5.907203 2.728800 0
5.485844 2.718194 0
4.774322 2.447960 0
3.608808 1.858993 0
1.412437 0.738987 0
0.000001 0.000000 0
-0.001171 0.000000 0
0.000000 0.000000 0
0.000000 0.000000 0
0.000000 0.000000 0
0.000000 0.000000 0
0.000000 0.000000 0
0.000000 0.000000 0
0.000000 0.000000 0
0.000000 0.000000 0
0.000000 0.000000 0
0.000000 0.000000 0
0.000000 0.000000 0
0.000000 0.000000 0
0.000000 0.000000 0
0.000000 0.000000 0
0.000000 0.000000 0
0.000000 0.000000 0
0.000000 0.000000 0
0.000000 0.000000 0
0.000000 0.000000 0
0.000000 0.000000 0
0.000000 0.000000 0
0.000000 0.000000 0
0.195438 -0.102353 0
0.724602 -0.396903 0
1.360793 -0.809598 0
1.928889 -1.262162 0
2.382044 -1.734134 0
2.710291 -2.230761 0
2.935503 -2.790268 0
3.101871 -3.489927 0
3.572069 -4.951621 0
4.021664 -3.892680 0
1.556763 -1.111228 0
0.420957 -0.190209 0
0.057827 0.072571 0
0.025050 0.062049 0
0.159543 0.068591 0
0.370053 0.095026 0
0.615713 0.107063 0
0.868472 0.105603 0
1.108151 0.095831 0
1.322919 0.082195 0
1.507040 0.067158 0
1.659266 0.052564 0
1.781419 0.039608 0
1.877151 0.028899 0
1.950944 0.020581 0
2.007377 0.014482 0
2.050638 0.010253 0
2.084279 0.007484 0
2.111134 0.005780 0
2.133355 0.004810 0
2.152516 0.004321 0
2.169743 0.004142 0
2.185843 0.004168 0
2.201427 0.004353 0
2.217018 0.004695 0
2.233143 0.005235 0
2.250430 0.006051 0
2.269703 0.007267 0
2.292104 0.009068 0
2.319253 0.011724 0
2.353461 0.015636 0
2.398060 0.021406 0
2.457885 0.029958 0
2.540023 0.042758 0
2.655030 0.062275 0
2.819007 0.092602 0
3.057499 0.143827 0
3.414602 0.230284 0
3.969266 0.465571 0
4.890765 1.013501 0
5.374893 1.651651 0
5.756570 2.154268 0
5.969385 2.560197 0
5.989101 2.834129 0
5.800782 2.932826 0
5.367752 2.811980 0
4.619418 2.438347 0
3.441047 1.792876 0
1.337127 0.700168 0
0.000001 0.000000 0
-0.001315 0.000000 0
0.000000 0.000000 0
0.000000 0.000000 0
0.000000 0.000000 0
0.000000 0.000000 0
0.000000 0.000000 0
0.000000 0.000000 0
0.000000 0.000000 0
0.000000 0.000000 0
0.000000 0.000000 0
0.000000 0.000000 0
0.000000 0.000000 0
0.000000 0.000000 0
0.000000 0.000000 0
0.000000 0.000000 0
0.000000 0.000000 0
0.000000 0.000000 0
0.000000 0.000000 0
0.000000 0.000000 0
0.000000 0.000000 0
0.000000 0.000000 0
0.225252 -0.095132 0
0.751318 -0.355924 0
1.380428 -0.707892 0
1.941286 -1.089200 0
2.380491 -1.483686 0
2.679355 -1.889555 0
2.839090 -2.324341 0
2.878358 -2.837958 0
2.825103 -3.571203 0
2.797164 -5.010172 0
1.635008 -3.000555 0
-0.000003 0.000000 0
-0.000002 0.000000 0
-0.000003 0.000000 0
-0.000005 0.000000 0
-0.000006 0.000000 0
-0.000007 0.000000 0
-0.000007 0.000000 0
-0.000006 0.000000 0
-0.000005 0.000000 0
-0.000004 0.000000 0
-0.000004 0.000000 0
-0.000004 0.000000 0
-0.000004 0.000000 0
-0.000004 0.000000 0
-0.000005 0.000000 0
-0.000005 0.000000 0
-0.000005 0.000000 0
-0.000005 0.000000 0
-0.000005 0.000000 0
-0.000005 0.000000 0
-0.000005 0.000000 0
-0.000005 0.000000 0
-0.000005 0.000000 0
-0.000005 0.000000 0
-0.000005 0.000000 0
-0.000005 0.000000 0
-0.000005 0.000000 0
-0.000005 0.000000 0
-0.000005 0.000000 0
-0.000005 0.000000 0
-0.000005 0.000000 0
-0.000005 0.000000 0
-0.000005 0.000000 0
-0.000005 0.000000 0
-0.000005 0.000000 0
-0.000005 0.000000 0
-0.000006 0.000000 0
-0.000006 0.000000 0
-0.000006 0.000000 0
2.076816 0.521229 0
3.743041 1.338833 0
4.737305 1.916012 0
5.382279 2.427201 0
5.731810 2.812328 0
5.812019 3.026020 0
5.634725 3.033227 0
5.185437 2.813515 0
4.424399 2.367674 0
3.274045 1.707339 0
1.280761 0.662437 0
0.000001 0.000000 0
-0.002115 0.000000 0
0.000000 0.000000 0
0.000000 0.000000 0
0.000000 0.000000 0
0.000000 0.000000 0
0.000000 0.000000 0
0.000000 0.000000 0
0.000000 0.000000 0
0.000000 0.000000 0
0.000000 0.000000 0
0.000000 0.000000 0
0.000000 0.000000 0
0.000000 0.000000 0
0.000000 0.000000 0
0.000000 0.000000 0
0.000000 0.000000 0
0.000000 0.000000 0
0.000000 0.000000 0
0.000000 0.000000 0
0.309011 -0.109541 0
0.897491 -0.368472 0
1.541710 -0.672956 0
2.096288 -0.986433 0
2.519811 -1.305046 0
2.797194 -1.627814 0
2.927122 -1.961332 0
2.918959 -2.329350 0
2.785297 -2.783338 0
2.522461 -3.449702 0
2.017930 -4.379056 0
0.037596 0.000006 0
-0.073449 2.449504 0
0.384287 0.000000 0
0.310487 0.000000 0
0.237800 0.000000 0
0.185238 0.000000 0
0.099346 0.000000 0
-0.006573 0.000000 0
-0.116759 0.000000 0
-0.219730 0.000000 0
-0.310193 0.000000 0
-0.385640 0.000000 0
-0.445752 0.000000 0
-0.491741 0.000000 0
-0.525702 0.000000 0
-0.550074 0.000000 0
-0.567245 0.000000 0
-0.579306 0.000000 0
-0.587942 0.000000 0
-0.594413 0.000000 0
-0.599609 0.000000 0
-0.604122 0.000000 0
-0.608332 0.000000 0
-0.612482 0.000000 0
-0.616744 0.000000 0
-0.621268 0.000000 0
-0.626222 0.000000 0
-0.631835 0.000000 0
-0.638435 0.000000 0
-0.646503 0.000000 0
-0.656739 0.000000 0
-0.670169 0.000000 0
-0.688301 0.000000 0
-0.713376 0.000000 0
-0.748772 0.000000 0
-0.799683 0.000000 0
-0.874474 0.000000 0
-0.986600 0.000000 0
-1.164788 0.000000 0
-1.451429 0.132187 0
0.000000 0.000019 0
1.703540 0.336971 0
3.307986 1.342162 0
4.420410 2.067503 0
5.143469 2.621228 0
5.525843 2.980924 0
5.612072 3.122399 0
5.427879 3.037963 0
4.974314 2.739812 0
4.232887 2.258989 0
3.147886 1.623461 0
1.261424 0.634546 0
0.000001 0.000000 0
-0.003780 0.000000 0
0.000000 0.000000 0
0.000000 0.000000 0
0.000000 0.000000 0
0.000000 0.000000 0
0.000000 0.000000 0
0.000000 0.000000 0
0.000000 0.000000 0
0.000000 0.000000 0
0.000000 0.000000 0
0.000000 0.000000 0
0.000000 0.000000 0
0.000000 0.000000 0
0.000000 0.000000 0
0.000000 0.000000 0
0.000000 0.000000 0