# vtk DataFile Version 2.0
generated by CFD-lab course output (written by Tobias Neckel) 
ASCII

DATASET STRUCTURED_GRID
DIMENSIONS  82 60 1 
POINTS 4920 float

-1.500000 -0.500000 0
-1.402439 -0.500000 0
-1.304878 -0.500000 0
-1.207317 -0.500000 0
-1.109756 -0.500000 0
-1.012195 -0.500000 0
-0.914634 -0.500000 0
-0.817073 -0.500000 0
-0.719512 -0.500000 0
-0.621951 -0.500000 0
-0.524390 -0.500000 0
-0.426829 -0.500000 0
-0.329268 -0.500000 0
-0.231707 -0.500000 0
-0.134146 -0.500000 0
-0.036585 -0.500000 0
0.060976 -0.500000 0
0.158537 -0.500000 0
0.256098 -0.500000 0
0.353659 -0.500000 0
0.451220 -0.500000 0
0.548780 -0.500000 0
0.646341 -0.500000 0
0.743902 -0.500000 0
0.841463 -0.500000 0
0.939024 -0.500000 0
1.036585 -0.500000 0
1.134146 -0.500000 0
1.231707 -0.500000 0
1.329268 -0.500000 0
1.426829 -0.500000 0
1.524390 -0.500000 0
1.621951 -0.500000 0
1.719512 -0.500000 0
1.817073 -0.500000 0
1.914634 -0.500000 0
2.012195 -0.500000 0
2.109756 -0.500000 0
2.207317 -0.500000 0
2.304878 -0.500000 0
2.402439 -0.500000 0
2.500000 -0.500000 0
2.597561 -0.500000 0
2.695122 -0.500000 0
2.792683 -0.500000 0
2.890244 -0.500000 0
2.987805 -0.500000 0
3.085366 -0.500000 0
3.182927 -0.500000 0
3.280488 -0.500000 0
3.378049 -0.500000 0
3.475610 -0.500000 0
3.573171 -0.500000 0
3.670732 -0.500000 0
3.768293 -0.500000 0
3.865854 -0.500000 0
3.963415 -0.500000 0
4.060976 -0.500000 0
4.158537 -0.500000 0
4.256098 -0.500000 0
4.353659 -0.500000 0
4.451220 -0.500000 0
4.548780 -0.500000 0
4.646341 -0.500000 0
4.743902 -0.500000 0
4.841463 -0.500000 0
4.939024 -0.500000 0
5.036585 -0.500000 0
5.134146 -0.500000 0
5.231707 -0.500000 0
5.329268 -0.500000 0
5.426829 -0.500000 0
5.524390 -0.500000 0
5.621951 -0.500000 0
5.719512 -0.500000 0
5.817073 -0.500000 0
5.914634 -0.500000 0
6.012195 -0.500000 0
6.109756 -0.500000 0
6.207317 -0.500000 0
6.304878 -0.500000 0
6.402439 -0.500000 0
-1.500000 -0.451667 0
-1.402439 -0.451667 0
-1.304878 -0.451667 0
-1.207317 -0.451667 0
-1.109756 -0.451667 0
-1.012195 -0.451667 0
-0.914634 -0.451667 0
-0.817073 -0.451667 0
-0.719512 -0.451667 0
-0.621951 -0.451667 0
-0.524390 -0.451667 0
-0.426829 -0.451667 0
-0.329268 -0.451667 0
-0.231707 -0.451667 0
-0.134146 -0.451667 0
-0.036585 -0.451667 0
0.060976 -0.451667 0
0.158537 -0.451667 0
0.256098 -0.451667 0
0.353659 -0.451667 0
0.451220 -0.451667 0
0.548780 -0.451667 0
0.646341 -0.451667 0
0.743902 -0.451667 0
0.841463 -0.451667 0
0.939024 -0.451667 0
1.036585 -0.451667 0
1.134146 -0.451667 0
1.231707 -0.451667 0
1.329268 -0.451667 0
1.426829 -0.451667 0
1.524390 -0.451667 0
1.621951 -0.451667 0
1.719512 -0.451667 0
1.817073 -0.451667 0
1.914634 -0.451667 0
2.012195 -0.451667 0
2.109756 -0.451667 0
2.207317 -0.451667 0
2.304878 -0.451667 0
2.402439 -0.451667 0
2.500000 -0.451667 0
2.597561 -0.451667 0
2.695122 -0.451667 0
2.792683 -0.451667 0
2.890244 -0.451667 0
2.987805 -0.451667 0
3.085366 -0.451667 0
3.182927 -0.451667 0
3.280488 -0.451667 0
3.378049 -0.451667 0
3.475610 -0.451667 0
3.573171 -0.451667 0
3.670732 -0.451667 0
3.768293 -0.451667 0
3.865854 -0.451667 0
3.963415 -0.451667 0
4.060976 -0.451667 0
4.158537 -0.451667 0
4.256098 -0.451667 0
4.353659 -0.451667 0
4.451220 -0.451667 0
4.548780 -0.451667 0
4.646341 -0.451667 0
4.743902 -0.451667 0
4.841463 -0.451667 0
4.939024 -0.451667 0
5.036585 -0.451667 0
5.134146 -0.451667 0
5.231707 -0.451667 0
5.329268 -0.451667 0
5.426829 -0.451667 0
5.524390 -0.451667 0
5.621951 -0.451667 0
5.719512 -0.451667 0
5.817073 -0.451667 0
5.914634 -0.451667 0
6.012195 -0.451667 0
6.109756 -0.451667 0
6.207317 -0.451667 0
6.304878 -0.451667 0
6.402439 -0.451667 0
-1.500000 -0.403333 0
-1.402439 -0.403333 0
-1.304878 -0.403333 0
-1.207317 -0.403333 0
-1.109756 -0.403333 0
-1.012195 -0.403333 0
-0.914634 -0.403333 0
-0.817073 -0.403333 0
-0.719512 -0.403333 0
-0.621951 -0.403333 0
-0.524390 -0.403333 0
-0.426829 -0.403333 0
-0.329268 -0.403333 0
-0.231707 -0.403333 0
-0.134146 -0.403333 0
-0.036585 -0.403333 0
0.060976 -0.403333 0
0.158537 -0.403333 0
0.256098 -0.403333 0
0.353659 -0.403333 0
0.451220 -0.403333 0
0.548780 -0.403333 0
0.646341 -0.403333 0
0.743902 -0.403333 0
0.841463 -0.403333 0
0.939024 -0.403333 0
1.036585 -0.403333 0
1.134146 -0.403333 0
1.231707 -0.403333 0
1.329268 -0.403333 0
1.426829 -0.403333 0
1.524390 -0.403333 0
1.621951 -0.403333 0
1.719512 -0.403333 0
1.817073 -0.403333 0
1.914634 -0.403333 0
2.012195 -0.403333 0
2.109756 -0.403333 0
2.207317 -0.403333 0
2.304878 -0.403333 0
2.402439 -0.403333 0
2.500000 -0.403333 0
2.597561 -0.403333 0
2.695122 -0.403333 0
2.792683 -0.403333 0
2.890244 -0.403333 0
2.987805 -0.403333 0
3.085366 -0.403333 0
3.182927 -0.403333 0
3.280488 -0.403333 0
3.378049 -0.403333 0
3.475610 -0.403333 0
3.573171 -0.403333 0
3.670732 -0.403333 0
3.768293 -0.403333 0
3.865854 -0.403333 0
3.963415 -0.403333 0
4.060976 -0.403333 0
4.158537 -0.403333 0
4.256098 -0.403333 0
4.353659 -0.403333 0
4.451220 -0.403333 0
4.548780 -0.403333 0
4.646341 -0.403333 0
4.743902 -0.403333 0
4.841463 -0.403333 0
4.939024 -0.403333 0
5.036585 -0.403333 0
5.134146 -0.403333 0
5.231707 -0.403333 0
5.329268 -0.403333 0
5.426829 -0.403333 0
5.524390 -0.403333 0
5.621951 -0.403333 0
5.719512 -0.403333 0
5.817073 -0.403333 0
5.914634 -0.403333 0
6.012195 -0.403333 0
6.109756 -0.403333 0
6.207317 -0.403333 0
6.304878 -0.403333 0
6.402439 -0.403333 0
-1.500000 -0.355000 0
-1.402439 -0.355000 0
-1.304878 -0.355000 0
-1.207317 -0.355000 0
-1.109756 -0.355000 0
-1.012195 -0.355000 0
-0.914634 -0.355000 0
-0.817073 -0.355000 0
-0.719512 -0.355000 0
-0.621951 -0.355000 0
-0.524390 -0.355000 0
-0.426829 -0.355000 0
-0.329268 -0.355000 0
-0.231707 -0.355000 0
-0.134146 -0.355000 0
-0.036585 -0.355000 0
0.060976 -0.355000 0
0.158537 -0.355000 0
0.256098 -0.355000 0
0.353659 -0.355000 0
0.451220 -0.355000 0
0.548780 -0.355000 0
0.646341 -0.355000 0
0.743902 -0.355000 0
0.841463 -0.355000 0
0.939024 -0.355000 0
1.036585 -0.355000 0
1.134146 -0.355000 0
1.231707 -0.355000 0
1.329268 -0.355000 0
1.426829 -0.355000 0
1.524390 -0.355000 0
1.621951 -0.355000 0
1.719512 -0.355000 0
1.817073 -0.355000 0
1.914634 -0.355000 0
2.012195 -0.355000 0
2.109756 -0.355000 0
2.207317 -0.355000 0
2.304878 -0.355000 0
2.402439 -0.355000 0
2.500000 -0.355000 0
2.597561 -0.355000 0
2.695122 -0.355000 0
2.792683 -0.355000 0
2.890244 -0.355000 0
2.987805 -0.355000 0
3.085366 -0.355000 0
3.182927 -0.355000 0
3.280488 -0.355000 0
3.378049 -0.355000 0
3.475610 -0.355000 0
3.573171 -0.355000 0
3.670732 -0.355000 0
3.768293 -0.355000 0
3.865854 -0.355000 0
3.963415 -0.355000 0
4.060976 -0.355000 0
4.158537 -0.355000 0
4.256098 -0.355000 0
4.353659 -0.355000 0
4.451220 -0.355000 0
4.548780 -0.355000 0
4.646341 -0.355000 0
4.743902 -0.355000 0
4.841463 -0.355000 0
4.939024 -0.355000 0
5.036585 -0.355000 0
5.134146 -0.355000 0
5.231707 -0.355000 0
5.329268 -0.355000 0
5.426829 -0.355000 0
5.524390 -0.355000 0
5.621951 -0.355000 0
5.719512 -0.355000 0
5.817073 -0.355000 0
5.914634 -0.355000 0
6.012195 -0.355000 0
6.109756 -0.355000 0
6.207317 -0.355000 0
6.304878 -0.355000 0
6.402439 -0.355000 0
-1.500000 -0.306667 0
-1.402439 -0.306667 0
-1.304878 -0.306667 0
-1.207317 -0.306667 0
-1.109756 -0.306667 0
-1.012195 -0.306667 0
-0.914634 -0.306667 0
-0.817073 -0.306667 0
-0.719512 -0.306667 0
-0.621951 -0.306667 0
-0.524390 -0.306667 0
-0.426829 -0.306667 0
-0.329268 -0.306667 0
-0.231707 -0.306667 0
-0.134146 -0.306667 0
-0.036585 -0.306667 0
0.060976 -0.306667 0
0.158537 -0.306667 0
0.256098 -0.306667 0
0.353659 -0.306667 0
0.451220 -0.306667 0
0.548780 -0.306667 0
0.646341 -0.306667 0
0.743902 -0.306667 0
0.841463 -0.306667 0
0.939024 -0.306667 0
1.036585 -0.306667 0
1.134146 -0.306667 0
1.231707 -0.306667 0
1.329268 -0.306667 0
1.426829 -0.306667 0
1.524390 -0.306667 0
1.621951 -0.306667 0
1.719512 -0.306667 0
1.817073 -0.306667 0
1.914634 -0.306667 0
2.012195 -0.306667 0
2.109756 -0.306667 0
2.207317 -0.306667 0
2.304878 -0.306667 0
2.402439 -0.306667 0
2.500000 -0.306667 0
2.597561 -0.306667 0
2.695122 -0.306667 0
2.792683 -0.306667 0
2.890244 -0.306667 0
2.987805 -0.306667 0
3.085366 -0.306667 0
3.182927 -0.306667 0
3.280488 -0.306667 0
3.378049 -0.306667 0
3.475610 -0.306667 0
3.573171 -0.306667 0
3.670732 -0.306667 0
3.768293 -0.306667 0
3.865854 -0.306667 0
3.963415 -0.306667 0
4.060976 -0.306667 0
4.158537 -0.306667 0
4.256098 -0.306667 0
4.353659 -0.306667 0
4.451220 -0.306667 0
4.548780 -0.306667 0
4.646341 -0.306667 0
4.743902 -0.306667 0
4.841463 -0.306667 0
4.939024 -0.306667 0
5.036585 -0.306667 0
5.134146 -0.306667 0
5.231707 -0.306667 0
5.329268 -0.306667 0
5.426829 -0.306667 0
5.524390 -0.306667 0
5.621951 -0.306667 0
5.719512 -0.306667 0
5.817073 -0.306667 0
5.914634 -0.306667 0
6.012195 -0.306667 0
6.109756 -0.306667 0
6.207317 -0.306667 0
6.304878 -0.306667 0
6.402439 -0.306667 0
-1.500000 -0.258333 0
-1.402439 -0.258333 0
-1.304878 -0.258333 0
-1.207317 -0.258333 0
-1.109756 -0.258333 0
-1.012195 -0.258333 0
-0.914634 -0.258333 0
-0.817073 -0.258333 0
-0.719512 -0.258333 0
-0.621951 -0.258333 0
-0.524390 -0.258333 0
-0.426829 -0.258333 0
-0.329268 -0.258333 0
-0.231707 -0.258333 0
-0.134146 -0.258333 0
-0.036585 -0.258333 0
0.060976 -0.258333 0
0.158537 -0.258333 0
0.256098 -0.258333 0
0.353659 -0.258333 0
0.451220 -0.258333 0
0.548780 -0.258333 0
0.646341 -0.258333 0
0.743902 -0.258333 0
0.841463 -0.258333 0
0.939024 -0.258333 0
1.036585 -0.258333 0
1.134146 -0.258333 0
1.231707 -0.258333 0
1.329268 -0.258333 0
1.426829 -0.258333 0
1.524390 -0.258333 0
1.621951 -0.258333 0
1.719512 -0.258333 0
1.817073 -0.258333 0
1.914634 -0.258333 0
2.012195 -0.258333 0
2.109756 -0.258333 0
2.207317 -0.258333 0
2.304878 -0.258333 0
2.402439 -0.258333 0
2.500000 -0.258333 0
2.597561 -0.258333 0
2.695122 -0.258333 0
2.792683 -0.258333 0
2.890244 -0.258333 0
2.987805 -0.258333 0
3.085366 -0.258333 0
3.182927 -0.258333 0
3.280488 -0.258333 0
3.378049 -0.258333 0
3.475610 -0.258333 0
3.573171 -0.258333 0
[...]
POINT_DATA 4920 

VECTORS velocity float
0.000000 0.000000 0
0.000000 0.000000 0
0.000000 0.000000 0
0.000000 0.000000 0
0.000000 0.000000 0
0.000000 0.000000 0
0.000000 0.000000 0
0.000000 0.000000 0
0.000000 0.000000 0
0.000000 0.000000 0
0.000000 0.000000 0
0.000000 0.000000 0
0.000000 0.000000 0
0.000000 0.000000 0
0.000000 0.000000 0
0.000000 0.000000 0
0.000000 0.000000 0
0.000000 0.000000 0
0.000000 0.000000 0
0.000000 0.000000 0
0.000000 0.000000 0
0.000000 0.000000 0
0.000000 0.000000 0
0.000000 0.000000 0
0.000000 0.000000 0
0.000000 0.000000 0
0.000000 0.000000 0
0.000000 0.000000 0
0.000000 0.000000 0
0.000000 0.000000 0
0.000000 0.000000 0
0.000000 0.000000 0
0.000000 0.000000 0
0.000000 0.000000 0
0.000000 0.000000 0
0.000000 0.000000 0
0.000000 0.000000 0
0.000000 0.000000 0
0.000000 0.000000 0
0.000000 0.000000 0
0.000000 0.000000 0
0.000000 0.000000 0
0.000000 0.000000 0
0.000000 0.000000 0
0.000000 0.000000 0
0.000000 0.000000 0
0.000000 0.000000 0
0.000000 0.000000 0
0.000000 0.000000 0
0.000000 0.000000 0
0.000000 0.000000 0
0.000000 0.000000 0
0.000000 0.000000 0
0.000000 0.000000 0
0.000000 0.000000 0
0.000000 0.000000 0
-0.000000 0.000000 0
0.001915 0.000000 0
0.000000 0.000000 0
0.000000 0.000000 0
0.000000 0.000000 0
0.000000 0.000000 0
0.000000 0.000000 0
0.000000 0.000000 0
0.000000 0.000000 0
0.000000 0.000000 0
0.000000 0.000000 0
0.000000 0.000000 0
0.000000 0.000000 0
0.000000 0.000000 0
0.000000 0.000000 0
0.000000 0.000000 0
0.000000 0.000000 0
0.000000 0.000000 0
0.000000 0.000000 0
0.000000 0.000000 0
0.000000 0.000000 0
0.000000 0.000000 0
0.000000 0.000000 0
0.000000 0.000000 0
0.000000 0.000000 0
0.000000 0.000000 0
0.000000 0.000000 0
0.000000 0.000000 0
0.000000 0.000000 0
0.000000 0.000000 0
0.000000 0.000000 0
0.000000 0.000000 0
0.000000 0.000000 0
0.000000 0.000000 0
0.000000 0.000000 0
0.000000 0.000000 0
0.000000 0.000000 0
0.000000 0.000000 0
0.000000 0.000000 0
0.000000 0.000000 0
1.046409 -0.422535 0
2.518333 -0.738216 0
3.779817 -0.505142 0
4.622828 -0.265395 0
5.056276 -0.070114 0
5.167227 0.061937 0
5.063332 0.139739 0
4.829847 0.177743 0
4.530911 0.186509 0
4.213405 0.175010 0
3.909619 0.151123 0
3.639333 0.121586 0
3.411982 0.091701 0
3.229154 0.065050 0
3.087253 0.043477 0
2.979960 0.027389 0
2.900133 0.016254 0
2.841030 0.009092 0
2.796925 0.004849 0
2.763293 0.002598 0
2.736744 0.001620 0
2.714842 0.001398 0
2.695890 0.001593 0
2.678732 0.001994 0
2.662572 0.002492 0
2.646835 0.003042 0
2.631046 0.003653 0
2.614732 0.004369 0
2.597337 0.005267 0
2.578134 0.006459 0
2.556122 0.008094 0
2.529911 0.010375 0
2.497565 0.013567 0
2.456394 0.018021 0
2.402695 0.024184 0
2.331418 0.032601 0
2.235798 0.043877 0
2.107006 0.058491 0
1.934197 0.076507 0
1.704947 0.096430 0
1.409418 0.115114 0
1.038729 0.130707 0
0.616666 0.068854 0
0.000000 0.000000 0
-0.001573 0.000000 0
0.000000 0.000000 0
0.000000 0.000000 0
0.000000 0.000000 0
0.000000 0.000000 0
0.000000 0.000000 0
0.000000 0.000000 0
0.000000 0.000000 0
0.000000 0.000000 0
0.000000 0.000000 0
0.000000 0.000000 0
0.000000 0.000000 0
0.000000 0.000000 0
0.000000 0.000000 0
0.000000 0.000000 0
0.000000 0.000000 0
0.000000 0.000000 0
0.000000 0.000000 0
0.000000 0.000000 0
0.000000 0.000000 0
0.000000 0.000000 0
0.000000 0.000000 0
0.000000 0.000000 0
0.000000 0.000000 0
0.000000 0.000000 0
0.000000 0.000000 0
0.000000 0.000000 0
0.000000 0.000000 0
0.000000 0.000000 0
0.000000 0.000000 0
0.000000 0.000000 0
0.000000 0.000000 0
0.000000 0.000000 0
0.000000 0.000000 0
0.000000 0.000000 0
0.000000 0.000000 0
0.000000 0.000000 0
1.159623 -0.517003 0
2.653783 -1.246011 0
3.828625 -1.353969 0
5.002596 -1.042602 0
5.863980 -0.632379 0
6.391027 -0.269704 0
6.647163 -0.003496 0
6.706897 0.167144 0
6.638370 0.263770 0
6.491094 0.305396 0
6.301247 0.307798 0
6.094886 0.284405 0
5.890123 0.246538 0
5.698735 0.203210 0
5.527461 0.160876 0
5.379142 0.123455 0
5.253790 0.092702 0
5.149570 0.068828 0
5.063641 0.051131 0
4.992822 0.038512 0
4.934033 0.029814 0
4.884555 0.024004 0
4.842129 0.020240 0
4.804955 0.017889 0
4.771633 0.016506 0
4.741074 0.015802 0
4.712406 0.015619 0
4.684882 0.015904 0
4.657783 0.016700 0
4.630333 0.018131 0
4.601593 0.020419 0
4.570354 0.023890 0
4.534985 0.029010 0
4.493249 0.036421 0
4.442043 0.047000 0
4.377053 0.061915 0
4.292277 0.082684 0
4.179390 0.111177 0
4.026950 0.149418 0
3.819467 0.199187 0
3.536770 0.259985 0
3.154599 0.330056 0
2.647248 0.392233 0
2.014859 0.512295 0
1.050729 0.303707 0
0.000000 0.000000 0
-0.004731 0.000000 0
0.000000 0.000000 0
0.000000 0.000000 0
0.000000 0.000000 0
0.000000 0.000000 0
0.000000 0.000000 0
0.000000 0.000000 0
0.000000 0.000000 0
0.000000 0.000000 0
0.000000 0.000000 0
0.000000 0.000000 0
0.000000 0.000000 0
0.000000 0.000000 0
0.000000 0.000000 0
0.000000 0.000000 0
0.000000 0.000000 0
0.000000 0.000000 0
0.000000 0.000000 0
0.000000 0.000000 0
0.000000 0.000000 0
0.000000 0.000000 0
0.000000 0.000000 0
0.000000 0.000000 0
0.000000 0.000000 0
0.000000 0.000000 0
0.000000 0.000000 0
0.000000 0.000000 0
0.000000 0.000000 0
0.000000 0.000000 0
0.000000 0.000000 0
0.000000 0.000000 0
0.000000 0.000000 0
0.000000 0.000000 0
0.000000 0.000000 0
0.000000 0.000000 0
0.936106 -0.582542 0
2.634604 -1.321368 0
3.462327 -1.743397 0
4.644984 -1.901857 0
5.708374 -1.513491 0
6.431469 -0.953247 0
6.856309 -0.458116 0
7.079490 -0.094550 0
7.167594 0.144096 0
7.169452 0.284655 0
7.118262 0.353525 0
7.036248 0.371298 0
6.938270 0.354801 0
6.834421 0.317846 0
6.731662 0.271370 0
6.634680 0.223382 0
6.546325 0.179058 0
6.467913 0.141123 0
6.399548 0.110457 0
6.340497 0.086748 0
6.289561 0.069059 0
6.245371 0.056235 0
6.206602 0.047150 0
6.172077 0.040833 0
6.140817 0.036518 0
6.112025 0.033642 0
6.085060 0.031834 0
6.059381 0.030881 0
6.034499 0.030714 0
6.009916 0.031393 0
5.985065 0.033104 0
5.959235 0.036173 0
5.931487 0.041093 0
5.900532 0.048574 0
5.864574 0.059612 0
5.821084 0.075586 0
5.766476 0.098380 0
5.695636 0.130526 0
5.601212 0.175324 0
5.472591 0.236804 0
5.294253 0.319350 0
5.044086 0.425816 0
4.690241 0.555797 0
4.200184 0.695353 0
3.530346 0.856064 0
2.831676 0.996857 0
1.343185 0.522943 0
0.000000 0.000000 0
-0.005824 0.000000 0
0.000000 0.000000 0
0.000000 0.000000 0
0.000000 0.000000 0
0.000000 0.000000 0
0.000000 0.000000 0
0.000000 0.000000 0
0.000000 0.000000 0
0.000000 0.000000 0
0.000000 0.000000 0
0.000000 0.000000 0
0.000000 0.000000 0
0.000000 0.000000 0
0.000000 0.000000 0
0.000000 0.000000 0
0.000000 0.000000 0
0.000000 0.000000 0
0.000000 0.000000 0
0.000000 0.000000 0
0.000000 0.000000 0
0.000000 0.000000 0
0.000000 0.000000 0
0.000000 0.000000 0
0.000000 0.000000 0
0.000000 0.000000 0
0.000000 0.000000 0
0.000000 0.000000 0
0.000000 0.000000 0
0.000000 0.000000 0
0.000000 0.000000 0
0.000000 0.000000 0
0.000000 0.000000 0
0.000000 0.000000 0
0.738390 -0.467384 0
2.144384 -1.316894 0
3.090305 -1.776580 0
3.864776 -2.241987 0
5.207797 -2.466698 0
6.163366 -1.927656 0
6.688807 -1.201085 0
6.946577 -0.590745 0
7.065217 -0.157712 0
7.111722 0.122575 0
7.115718 0.288210 0
7.097568 0.371387 0
7.068707 0.396969 0
7.034864 0.384393 0
6.998805 0.348895 0
6.962143 0.302165 0
6.926153 0.252695 0
6.891946 0.206073 0
6.860366 0.165419 0
6.831886 0.131953 0
6.806604 0.105620 0
6.784315 0.085639 0
6.764634 0.070914 0
6.747102 0.060315 0
6.731263 0.052831 0
6.716709 0.047640 0
6.703097 0.044129 0
6.690138 0.041883 0
6.677585 0.040667 0
6.665208 0.040410 0
6.652766 0.041190 0
6.639971 0.043239 0
6.626452 0.046962 0
6.611695 0.052973 0
6.594977 0.062160 0
6.575261 0.075782 0
6.551038 0.095599 0
6.520090 0.124064 0
6.479117 0.164558 0
6.423095 0.221677 0
6.344211 0.301491 0
6.229857 0.411475 0
6.059619 0.559222 0
5.799764 0.748139 0
5.406921 0.966865 0
4.837962 1.190277 0
4.167965 1.389488 0
3.377958 1.410173 0
1.501023 0.670524 0
0.000000 0.000000 0
-0.005278 0.000000 0
0.000000 0.000000 0
0.000000 0.000000 0
0.000000 0.000000 0
0.000000 0.000000 0
0.000000 0.000000 0
0.000000 0.000000 0
0.000000 0.000000 0
0.000000 0.000000 0
0.000000 0.000000 0
0.000000 0.000000 0
0.000000 0.000000 0
0.000000 0.000000 0
0.000000 0.000000 0
0.000000 0.000000 0
0.000000 0.000000 0
0.000000 0.000000 0
0.000000 0.000000 0
0.000000 0.000000 0
0.000000 0.000000 0
0.000000 0.000000 0
0.000000 0.000000 0
0.000000 0.000000 0
0.000000 0.000000 0
0.000000 0.000000 0
0.000000 0.000000 0
0.000000 0.000000 0
0.000000 0.000000 0
0.000000 0.000000 0
0.000000 0.000000 0
0.000000 0.000000 0
0.536176 -0.369283 0
1.698554 -1.069458 0
2.545225 -1.751342 0
3.300691 -2.173679 0
4.126549 -2.792439 0
5.619091 -3.040618 0
6.352092 -2.247207 0
6.584763 -1.341263 0
6.618194 -0.644596 0
6.605988 -0.176366 0
6.591201 0.119076 0
6.581118 0.291667 0
6.579859 0.376815 0
6.586810 0.402363 0
6.599060 0.389431 0
6.613181 0.353873 0
6.626502 0.307363 0
6.637549 0.258158 0
6.645913 0.211650 0
6.651875 0.170878 0
6.656012 0.137091 0
6.658929 0.110315 0
6.661123 0.089852 0
6.662937 0.074672 0
6.664585 0.063683 0
6.666177 0.055890 0
6.667763 0.050471 0
6.669351 0.046806 0
6.670934 0.044473 0
6.672491 0.043231 0
6.674002 0.043010 0
6.675441 0.043896 0
6.676778 0.046141 0
6.677972 0.050182 0
6.678960 0.056686 0
6.679640 0.066624 0
6.679836 0.081380 0
6.679241 0.102918 0
6.677305 0.134011 0
6.673024 0.178580 0
6.664502 0.242159 0
6.648063 0.332537 0
6.616224 0.460342 0
6.553610 0.638892 0
6.428435 0.879155 0
6.184332 1.171846 0
5.772636 1.469864 0
5.221816 1.720168 0
4.582020 1.852402 0
3.671164 1.686854 0
1.556481 0.748777 0
0.000000 0.000000 0
-0.003983 0.000000 0
0.000000 0.000000 0
0.000000 0.000000 0
0.000000 0.000000 0
0.000000 0.000000 0
0.000000 0.000000 0
0.000000 0.000000 0
0.000000 0.000000 0
0.000000 0.000000 0
0.000000 0.000000 0
0.000000 0.000000 0
0.000000 0.000000 0
0.000000 0.000000 0
0.000000 0.000000 0
0.000000 0.000000 0
0.000000 0.000000 0
0.000000 0.000000 0
0.000000 0.000000 0
0.000000 0.000000 0
0.000000 0.000000 0
0.000000 0.000000 0
0.000000 0.000000 0
0.000000 0.000000 0
0.000000 0.000000 0
0.000000 0.000000 0
0.000000 0.000000 0
0.000000 0.000000 0
0.000000 0.000000 0
0.000000 0.000000 0
0.376470 -0.266961 0
1.297315 -0.846295 0
2.061429 -1.466173 0
2.754356 -2.110619 0
3.394950 -2.559994 0
4.280975 -3.390562 0
5.831151 -3.569269 0
6.151844 -2.406066 0
5.981716 -1.332917 0
5.742923 -0.601261 0
5.590440 -0.144339 0
5.514308 0.134896 0
5.501308 0.293830 0
5.531593 0.368567 0
5.587347 0.387457 0
5.655069 0.371328 0
5.725043 0.335299 0
5.791097 0.290093 0
5.849983 0.243078 0
5.900604 0.198976 0
5.943243 0.160416 0
5.978916 0.128458 0
6.008899 0.103088 0
6.034442 0.083653 0
6.056631 0.069199 0
6.076336 0.058710 0
6.094228 0.051257 0
6.110804 0.046068 0
6.126428 0.042558 0
6.141376 0.040327 0
6.155865 0.039147 0
6.170091 0.038949 0
6.184252 0.039815 0
6.198585 0.041986 0
6.213388 0.045881 0
6.229058 0.052146 0
6.246132 0.061726 0
6.265328 0.075979 0
6.287598 0.096853 0
6.314176 0.127145 0
6.346579 0.170901 0
6.386488 0.234043 0
6.435288 0.325408 0
6.492504 0.458269 0
6.551408 0.652256 0
6.587383 0.931086 0
6.526674 1.291758 0
6.297358 1.667123 0
5.922451 1.979339 0
5.433834 2.178392 0
4.794004 2.179801 0
3.768406 1.833041 0
1.542406 0.775017 0
0.000000 0.000000 0
-0.002624 0.000000 0
0.000000 0.000000 0
0.000000 0.000000 0
0.000000 0.000000 0
0.000000 0.000000 0
0.000000 0.000000 0
0.000000 0.000000 0
0.000000 0.000000 0
0.000000 0.000000 0
0.000000 0.000000 0
0.000000 0.000000 0
0.000000 0.000000 0
0.000000 0.000000 0
0.000000 0.000000 0
0.000000 0.000000 0
0.000000 0.000000 0
0.000000 0.000000 0
0.000000 0.000000 0
0.000000 0.000000 0
0.000000 0.000000 0
0.000000 0.000000 0
0.000000 0.000000 0
0.000000 0.000000 0
0.000000 0.000000 0
0.000000 0.000000 0
0.000000 0.000000 0
0.000000 0.000000 0
0.267975 -0.186458 0
0.995900 -0.643990 0
1.702430 -1.205370 0
2.319894 -1.791300 0
2.880685 -2.411991 0
3.395856 -2.929991 0
4.284565 -3.999373 0
5.744256 -3.967477 0
5.401786 -2.321800 0
4.738563 -1.138676 0
4.209865 -0.450751 0
3.920801 -0.063106 0
3.817059 0.163234 0
3.848478 0.283104 0
3.954401 0.334190 0
4.094332 0.341191 0
4.244209 0.321214 0
4.389439 0.286482 0
4.522060 0.245465 0
4.638543 0.203907 0
4.738237 0.165447 0
4.822226 0.132081 0
4.892489 0.104565 0
4.951313 0.082807 0
5.000932 0.066204 0
5.043335 0.053916 0
5.080186 0.045057 0
5.112828 0.038814 0
5.142313 0.034519 0
5.169456 0.031660 0
5.194898 0.029889 0
5.219164 0.029006 0
5.242723 0.028947 0
5.266043 0.029780 0
5.289653 0.031707 0
5.314209 0.035085 0
5.340570 0.040464 0
5.369901 0.048655 0
5.403795 0.060837 0
5.444443 0.078718 0
5.494846 0.104791 0
5.559084 0.142755 0
5.642602 0.198211 0
5.752409 0.280014 0
5.896791 0.402814 0
6.081521 0.591887 0
6.301037 0.891408 0
6.455882 1.315529 0
6.420673 1.769206 0
6.248816 2.147972 0
5.949258 2.411454 0
5.510551 2.511934 0
4.841030 2.369084 0
3.728193 1.878779 0
1.485949 0.766571 0
0.000000 0.000000 0
-0.001605 0.000000 0
0.000000 0.000000 0
0.000000 0.000000 0
0.000000 0.000000 0
0.000000 0.000000 0
0.000000 0.000000 0
0.000000 0.000000 0
0.000000 0.000000 0
0.000000 0.000000 0
0.000000 0.000000 0
0.000000 0.000000 0
0.000000 0.000000 0
0.000000 0.000000 0
0.000000 0.000000 0
0.000000 0.000000 0
0.000000 0.000000 0
0.000000 0.000000 0
0.000000 0.000000 0
0.000000 0.000000 0
0.000000 0.000000 0
0.000000 0.000000 0
0.000000 0.000000 0
0.000000 0.000000 0
0.000000 0.000000 0
0.000000 0.000000 0
0.209254 -0.131867 0
0.805448 -0.492442 0
1.468523 -0.977562 0
2.052834 -1.502223 0
2.535389 -2.049900 0
2.939378 -2.643668 0
3.298350 -3.255500 0
4.068906 -4.553999 0
5.219450 -4.122759 0
3.917003 -1.907829 0
2.775476 -0.742419 0
2.002352 -0.196127 0
1.719136 0.050264 0
1.749830 0.170726 0
1.910384 0.225788 0
2.129705 0.246767 0
2.369028 0.243881 0
2.605336 0.225127 0
2.823985 0.197647 0
3.017664 0.166683 0
3.183851 0.135981 0
3.323102 0.107976 0
3.437825 0.083997 0
3.531362 0.064506 0
3.607352 0.049364 0
3.669295 0.038064 0
3.720314 0.029935 0
3.763044 0.024281 0
3.799614 0.020478 0
3.831696 0.018013 0
3.860576 0.016506 0
3.887243 0.015701 0
3.912489 0.015454 0
3.936997 0.015724 0
3.961432 0.016565 0
3.986532 0.018123 0
4.013211 0.020656 0
4.042676 0.024555 0
4.076579 0.030404 0
4.117218 0.039050 0
4.167812 0.051745 0
4.232894 0.070349 0
4.318847 0.097700 0
4.434711 0.138266 0
4.593185 0.199479 0
4.812918 0.295222 0
5.115791 0.451986 0
5.542501 0.745621 0
5.974495 1.232489 0
6.149729 1.769707 0
6.206695 2.212886 0
6.129923 2.544140 0
5.900217 2.728836 0
5.477325 2.716051 0
4.765620 2.444205 0
3.601762 1.855245 0
1.410015 0.737375 0
0.000000 0.000000 0
-0.001116 0.000000 0
0.000000 0.000000 0
0.000000 0.000000 0
0.000000 0.000000 0
0.000000 0.000000 0
0.000000 0.000000 0
0.000000 0.000000 0
0.000000 0.000000 0
0.000000 0.000000 0
0.000000 0.000000 0
0.000000 0.000000 0
0.000000 0.000000 0
0.000000 0.000000 0
0.000000 0.000000 0
0.000000 0.000000 0
0.000000 0.000000 0
0.000000 0.000000 0
0.000000 0.000000 0
0.000000 0.000000 0
0.000000 0.000000 0
0.000000 0.000000 0
0.000000 0.000000 0
0.000000 0.000000 0
0.195347 -0.102305 0
0.724360 -0.396777 0
1.360482 -0.809429 0
1.928547 -1.261966 0
2.381686 -1.733913 0
2.709929 -2.230509 0
2.935144 -2.789974 0
3.101524 -3.489578 0
3.571693 -4.951118 0
4.021349 -3.892222 0
1.556858 -1.111014 0
0.421304 -0.190126 0
0.058282 0.072577 0
0.025420 0.061997 0
0.159740 0.068487 0
0.370031 0.094907 0
0.615494 0.106970 0
0.868132 0.105556 0
1.107768 0.095821 0
1.322552 0.082208 0
1.506720 0.067182 0
1.659001 0.052587 0
1.781197 0.039625 0
1.876951 0.028905 0
1.950744 0.020578 0
2.007157 0.014473 0
2.050385 0.010241 0
2.083989 0.007472 0
2.110809 0.005770 0
2.133002 0.004803 0
2.152144 0.004318 0
2.169362 0.004141 0
2.185462 0.004170 0
2.201054 0.004356 0
2.216656 0.004700 0
2.232794 0.005239 0
2.250092 0.006054 0
2.269376 0.007270 0
2.291786 0.009070 0
2.318941 0.011726 0
2.353156 0.015639 0
2.397764 0.021410 0
2.457603 0.029966 0
2.539764 0.042772 0
2.654811 0.062299 0
2.818855 0.092644 0
3.057460 0.143906 0
3.414761 0.230440 0
3.969794 0.465992 0
4.892016 1.014698 0
5.376027 1.654170 0
5.755623 2.157784 0
5.965135 2.563288 0
5.981759 2.835242 0
5.791495 2.931182 0
5.358079 2.807965 0
4.611093 2.433477 0
3.435799 1.789247 0
1.336189 0.698936 0
0.000000 0.000000 0
-0.001276 0.000000 0
0.000000 0.000000 0
0.000000 0.000000 0
0.000000 0.000000 0
0.000000 0.000000 0
0.000000 0.000000 0
0.000000 0.000000 0
0.000000 0.000000 0
0.000000 0.000000 0
0.000000 0.000000 0
0.000000 0.000000 0
0.000000 0.000000 0
0.000000 0.000000 0
0.000000 0.000000 0
0.000000 0.000000 0
0.000000 0.000000 0
0.000000 0.000000 0
0.000000 0.000000 0
0.000000 0.000000 0
0.000000 0.000000 0
0.000000 0.000000 0
0.225171 -0.095089 0
0.751099 -0.355808 0
1.380139 -0.707732 0
1.940970 -1.089016 0
2.380165 -1.483484 0
2.679031 -1.889333 0
2.838775 -2.324093 0
2.878054 -2.837671 0
2.824818 -3.570856 0
2.796889 -5.009695 0
1.634900 -3.000270 0
-0.000000 0.000000 0
-0.000000 0.000000 0
-0.000000 0.000000 0
-0.000000 0.000000 0
-0.000000 0.000000 0
-0.000000 0.000000 0
0.000000 0.000000 0
0.000000 0.000000 0
0.000000 0.000000 0
0.000000 0.000000 0
0.000000 0.000000 0
0.000000 0.000000 0
0.000000 0.000000 0
0.000000 0.000000 0
0.000000 0.000000 0
0.000000 0.000000 0
0.000000 0.000000 0
0.000000 0.000000 0
0.000000 0.000000 0
0.000000 0.000000 0
0.000000 0.000000 0
0.000000 0.000000 0
0.000000 0.000000 0
0.000000 0.000000 0
0.000000 0.000000 0
0.000000 0.000000 0
0.000000 0.000000 0
0.000000 0.000000 0
0.000000 0.000000 0
0.000000 0.000000 0
0.000000 0.000000 0
0.000000 0.000000 0
0.000000 0.000000 0
0.000000 0.000000 0
0.000000 0.000000 0
0.000000 0.000000 0
-0.000000 0.000000 0
-0.000000 0.000000 0
-0.000000 0.000000 0
2.077780 0.522054 0
3.746323 1.341862 0
4.738303 1.921032 0
5.378906 2.432108 0
5.724342 2.814860 0
5.802030 3.025033 0
5.624175 3.028997 0
5.176269 2.807574 0
4.418346 2.362303 0
3.272247 1.704615 0
1.281956 0.661947 0
0.000000 0.000000 0
-0.002102 0.000000 0
0.000000 0.000000 0
0.000000 0.000000 0
0.000000 0.000000 0
0.000000 0.000000 0
0.000000 0.000000 0
0.000000 0.000000 0
0.000000 0.000000 0
0.000000 0.000000 0
0.000000 0.000000 0
0.000000 0.000000 0
0.000000 0.000000 0
0.000000 0.000000 0
0.000000 0.000000 0
0.000000 0.000000 0
0.000000 0.000000 0
0.000000 0.000000 0
0.000000 0.000000 0
0.000000 0.000000 0
0.308939 -0.109502 0
0.897297 -0.368366 0
1.541452 -0.672806 0
2.096008 -0.986259 0
2.519527 -1.304858 0
2.796917 -1.627614 0
2.926856 -1.961116 0
2.918704 -2.329108 0
2.785054 -2.783060 0
2.522236 -3.449367 0
2.017744 -4.378639 0
0.037592 -0.000000 0
-0.073608 2.449266 0
0.383989 0.000000 0
0.310162 0.000000 0
0.237491 0.000000 0
0.185021 0.000000 0
0.099251 0.000000 0
-0.006549 0.000000 0
-0.116668 0.000000 0
-0.219614 0.000000 0
-0.310083 0.000000 0
-0.385552 0.000000 0
-0.445690 0.000000 0
-0.491700 0.000000 0
-0.525672 0.000000 0
-0.550045 0.000000 0
-0.567209 0.000000 0
-0.579258 0.000000 0
-0.587880 0.000000 0
-0.594340 0.000000 0
-0.599527 0.000000 0
-0.604034 0.000000 0
-0.608242 0.000000 0
-0.612394 0.000000 0
-0.616660 0.000000 0
-0.621187 0.000000 0
-0.626146 0.000000 0
-0.631763 0.000000 0
-0.638367 0.000000 0
-0.646437 0.000000 0
-0.656675 0.000000 0
-0.670107 0.000000 0
-0.688243 0.000000 0
-0.713323 0.000000 0
-0.748729 0.000000 0
-0.799658 0.000000 0
-0.874479 0.000000 0
-0.986660 0.000000 0
-1.164955 0.000000 0
-1.451804 0.132431 0
0.000000 0.000000 0
1.708615 0.339481 0
3.311084 1.348975 0
4.417988 2.074788 0
5.135873 2.625619 0
5.515086 2.980807 0
5.600563 3.117977 0
5.417875 3.030865 0
4.967722 2.732532 0
4.231052 2.254081 0
3.150978 1.622470 0
1.265235 0.635122 0
0.000000 0.000000 0
-0.003811 0.000000 0
0.000000 0.000000 0
0.000000 0.000000 0
0.000000 0.000000 0
0.000000 0.000000 0
0.000000 0.000000 0
0.000000 0.000000 0
0.000000 0.000000 0
0.000000 0.000000 0
0.000000 0.000000 0
0.000000 0.000000 0
0.000000 0.000000 0
0.000000 0.000000 0
0.000000 0.000000 0
0.000000 0.000000 0
0.000000 0.000000 0
0.000000 0.000000 0
0.482558 -0.150472 0
1.207495 -0.439903 0