# vtk DataFile Version 2.0
generated by CFD-lab course output (written by Tobias Neckel) 
ASCII

DATASET STRUCTURED_GRID
DIMENSIONS  82 60 1 
POINTS 4920 float

-1.500000 -0.500000 0
-1.402439 -0.500000 0
-1.304878 -0.500000 0
-1.207317 -0.500000 0
-1.109756 -0.500000 0
-1.012195 -0.500000 0
-0.914634 -0.500000 0
-0.817073 -0.500000 0
-0.719512 -0.500000 0
-0.621951 -0.500000 0
-0.524390 -0.500000 0
-0.426829 -0.500000 0
-0.329268 -0.500000 0
-0.231707 -0.500000 0
-0.134146 -0.500000 0
-0.036585 -0.500000 0
0.060976 -0.500000 0
0.158537 -0.500000 0
0.256098 -0.500000 0
0.353659 -0.500000 0
0.451220 -0.500000 0
0.548780 -0.500000 0
0.646341 -0.500000 0
0.743902 -0.500000 0
0.841463 -0.500000 0
0.939024 -0.500000 0
1.036585 -0.500000 0
1.134146 -0.500000 0
1.231707 -0.500000 0
1.329268 -0.500000 0
1.426829 -0.500000 0
1.524390 -0.500000 0
1.621951 -0.500000 0
1.719512 -0.500000 0
1.817073 -0.500000 0
1.914634 -0.500000 0
2.012195 -0.500000 0
2.109756 -0.500000 0
2.207317 -0.500000 0
2.304878 -0.500000 0
2.402439 -0.500000 0
2.500000 -0.500000 0
2.597561 -0.500000 0
2.695122 -0.500000 0
2.792683 -0.500000 0
2.890244 -0.500000 0
2.987805 -0.500000 0
3.085366 -0.500000 0
3.182927 -0.500000 0
3.280488 -0.500000 0
3.378049 -0.500000 0
3.475610 -0.500000 0
3.573171 -0.500000 0
3.670732 -0.500000 0
3.768293 -0.500000 0
3.865854 -0.500000 0
3.963415 -0.500000 0
4.060976 -0.500000 0
4.158537 -0.500000 0
4.256098 -0.500000 0
4.353659 -0.500000 0
4.451220 -0.500000 0
4.548780 -0.500000 0
4.646341 -0.500000 0
4.743902 -0.500000 0
4.841463 -0.500000 0
4.939024 -0.500000 0
5.036585 -0.500000 0
5.134146 -0.500000 0
5.231707 -0.500000 0
5.329268 -0.500000 0
5.426829 -0.500000 0
5.524390 -0.500000 0
5.621951 -0.500000 0
5.719512 -0.500000 0
5.817073 -0.500000 0
5.914634 -0.500000 0
6.012195 -0.500000 0
6.109756 -0.500000 0
6.207317 -0.500000 0
6.304878 -0.500000 0
6.402439 -0.500000 0
-1.500000 -0.451667 0
-1.402439 -0.451667 0
-1.304878 -0.451667 0
-1.207317 -0.451667 0
-1.109756 -0.451667 0
-1.012195 -0.451667 0
-0.914634 -0.451667 0
-0.817073 -0.451667 0
-0.719512 -0.451667 0
-0.621951 -0.451667 0
-0.524390 -0.451667 0
-0.426829 -0.451667 0
-0.329268 -0.451667 0
-0.231707 -0.451667 0
-0.134146 -0.451667 0
-0.036585 -0.451667 0
0.060976 -0.451667 0
0.158537 -0.451667 0
0.256098 -0.451667 0
0.353659 -0.451667 0
0.451220 -0.451667 0
0.548780 -0.451667 0
0.646341 -0.451667 0
0.743902 -0.451667 0
0.841463 -0.451667 0
0.939024 -0.451667 0
1.036585 -0.451667 0
1.134146 -0.451667 0
1.231707 -0.451667 0
1.329268 -0.451667 0
1.426829 -0.451667 0
1.524390 -0.451667 0
1.621951 -0.451667 0
1.719512 -0.451667 0
1.817073 -0.451667 0
1.914634 -0.451667 0
2.012195 -0.451667 0
2.109756 -0.451667 0
2.207317 -0.451667 0
2.304878 -0.451667 0
2.402439 -0.451667 0
2.500000 -0.451667 0
2.597561 -0.451667 0
2.695122 -0.451667 0
2.792683 -0.451667 0
2.890244 -0.451667 0
2.987805 -0.451667 0
3.085366 -0.451667 0
3.182927 -0.451667 0
3.280488 -0.451667 0
3.378049 -0.451667 0
3.475610 -0.451667 0
3.573171 -0.451667 0
3.670732 -0.451667 0
3.768293 -0.451667 0
3.865854 -0.451667 0
3.963415 -0.451667 0
4.060976 -0.451667 0
4.158537 -0.451667 0
4.256098 -0.451667 0
4.353659 -0.451667 0
4.451220 -0.451667 0
4.548780 -0.451667 0
4.646341 -0.451667 0
4.743902 -0.451667 0
4.841463 -0.451667 0
4.939024 -0.451667 0
5.036585 -0.451667 0
5.134146 -0.451667 0
5.231707 -0.451667 0
5.329268 -0.451667 0
5.426829 -0.451667 0
5.524390 -0.451667 0
5.621951 -0.451667 0
5.719512 -0.451667 0
5.817073 -0.451667 0
5.914634 -0.451667 0
6.012195 -0.451667 0
6.109756 -0.451667 0
6.207317 -0.451667 0
6.304878 -0.451667 0
6.402439 -0.451667 0
-1.500000 -0.403333 0
-1.402439 -0.403333 0
-1.304878 -0.403333 0
-1.207317 -0.403333 0
-1.109756 -0.403333 0
-1.012195 -0.403333 0
-0.914634 -0.403333 0
-0.817073 -0.403333 0
-0.719512 -0.403333 0
-0.621951 -0.403333 0
-0.524390 -0.403333 0
-0.426829 -0.403333 0
-0.329268 -0.403333 0
-0.231707 -0.403333 0
-0.134146 -0.403333 0
-0.036585 -0.403333 0
0.060976 -0.403333 0
0.158537 -0.403333 0
0.256098 -0.403333 0
0.353659 -0.403333 0
0.451220 -0.403333 0
0.548780 -0.403333 0
0.646341 -0.403333 0
0.743902 -0.403333 0
0.841463 -0.403333 0
0.939024 -0.403333 0
1.036585 -0.403333 0
1.134146 -0.403333 0
1.231707 -0.403333 0
1.329268 -0.403333 0
1.426829 -0.403333 0
1.524390 -0.403333 0
1.621951 -0.403333 0
1.719512 -0.403333 0
1.817073 -0.403333 0
1.914634 -0.403333 0
2.012195 -0.403333 0
2.109756 -0.403333 0
2.207317 -0.403333 0
2.304878 -0.403333 0
2.402439 -0.403333 0
2.500000 -0.403333 0
2.597561 -0.403333 0
2.695122 -0.403333 0
2.792683 -0.403333 0
2.890244 -0.403333 0
2.987805 -0.403333 0
3.085366 -0.403333 0
3.182927 -0.403333 0
3.280488 -0.403333 0
3.378049 -0.403333 0
3.475610 -0.403333 0
3.573171 -0.403333 0
3.670732 -0.403333 0
3.768293 -0.403333 0
3.865854 -0.403333 0
3.963415 -0.403333 0
4.060976 -0.403333 0
4.158537 -0.403333 0
4.256098 -0.403333 0
4.353659 -0.403333 0
4.451220 -0.403333 0
4.548780 -0.403333 0
4.646341 -0.403333 0
4.743902 -0.403333 0
4.841463 -0.403333 0
4.939024 -0.403333 0
5.036585 -0.403333 0
5.134146 -0.403333 0
5.231707 -0.403333 0
5.329268 -0.403333 0
5.426829 -0.403333 0
5.524390 -0.403333 0
5.621951 -0.403333 0
5.719512 -0.403333 0
5.817073 -0.403333 0
5.914634 -0.403333 0
6.012195 -0.403333 0
6.109756 -0.403333 0
6.207317 -0.403333 0
6.304878 -0.403333 0
6.402439 -0.403333 0
-1.500000 -0.355000 0
-1.402439 -0.355000 0
-1.304878 -0.355000 0
-1.207317 -0.355000 0
-1.109756 -0.355000 0
-1.012195 -0.355000 0
-0.914634 -0.355000 0
-0.817073 -0.355000 0
-0.719512 -0.355000 0
-0.621951 -0.355000 0
-0.524390 -0.355000 0
-0.426829 -0.355000 0
-0.329268 -0.355000 0
-0.231707 -0.355000 0
-0.134146 -0.355000 0
-0.036585 -0.355000 0
0.060976 -0.355000 0
0.158537 -0.355000 0
0.256098 -0.355000 0
0.353659 -0.355000 0
0.451220 -0.355000 0
0.548780 -0.355000 0
0.646341 -0.355000 0
0.743902 -0.355000 0
0.841463 -0.355000 0
0.939024 -0.355000 0
1.036585 -0.355000 0
1.134146 -0.355000 0
1.231707 -0.355000 0
1.329268 -0.355000 0
1.426829 -0.355000 0
1.524390 -0.355000 0
1.621951 -0.355000 0
1.719512 -0.355000 0
1.817073 -0.355000 0
1.914634 -0.355000 0
2.012195 -0.355000 0
2.109756 -0.355000 0
2.207317 -0.355000 0
2.304878 -0.355000 0
2.402439 -0.355000 0
2.500000 -0.355000 0
2.597561 -0.355000 0
2.695122 -0.355000 0
2.792683 -0.355000 0
2.890244 -0.355000 0
2.987805 -0.355000 0
3.085366 -0.355000 0
3.182927 -0.355000 0
3.280488 -0.355000 0
3.378049 -0.355000 0
3.475610 -0.355000 0
3.573171 -0.355000 0
3.670732 -0.355000 0
3.768293 -0.355000 0
3.865854 -0.355000 0
3.963415 -0.355000 0
4.060976 -0.355000 0
4.158537 -0.355000 0
4.256098 -0.355000 0
4.353659 -0.355000 0
4.451220 -0.355000 0
4.548780 -0.355000 0
4.646341 -0.355000 0
4.743902 -0.355000 0
4.841463 -0.355000 0
4.939024 -0.355000 0
5.036585 -0.355000 0
5.134146 -0.355000 0
5.231707 -0.355000 0
5.329268 -0.355000 0
5.426829 -0.355000 0
5.524390 -0.355000 0
5.621951 -0.355000 0
5.719512 -0.355000 0
5.817073 -0.355000 0
5.914634 -0.355000 0
6.012195 -0.355000 0
6.109756 -0.355000 0
6.207317 -0.355000 0
6.304878 -0.355000 0
6.402439 -0.355000 0
-1.500000 -0.306667 0
-1.402439 -0.306667 0
-1.304878 -0.306667 0
-1.207317 -0.306667 0
-1.109756 -0.306667 0
-1.012195 -0.306667 0
-0.914634 -0.306667 0
-0.817073 -0.306667 0
-0.719512 -0.306667 0
-0.621951 -0.306667 0
-0.524390 -0.306667 0
-0.426829 -0.306667 0
-0.329268 -0.306667 0
-0.231707 -0.306667 0
-0.134146 -0.306667 0
-0.036585 -0.306667 0
0.060976 -0.306667 0
0.158537 -0.306667 0
0.256098 -0.306667 0
0.353659 -0.306667 0
0.451220 -0.306667 0
0.548780 -0.306667 0
0.646341 -0.306667 0
0.743902 -0.306667 0
0.841463 -0.306667 0
0.939024 -0.306667 0
1.036585 -0.306667 0
1.134146 -0.306667 0
1.231707 -0.306667 0
1.329268 -0.306667 0
1.426829 -0.306667 0
1.524390 -0.306667 0
1.621951 -0.306667 0
1.719512 -0.306667 0
1.817073 -0.306667 0
1.914634 -0.306667 0
2.012195 -0.306667 0
2.109756 -0.306667 0
2.207317 -0.306667 0
2.304878 -0.306667 0
2.402439 -0.306667 0
2.500000 -0.306667 0
2.597561 -0.306667 0
2.695122 -0.306667 0
2.792683 -0.306667 0
2.890244 -0.306667 0
2.987805 -0.306667 0
3.085366 -0.306667 0
3.182927 -0.306667 0
3.280488 -0.306667 0
3.378049 -0.306667 0
3.475610 -0.306667 0
3.573171 -0.306667 0
3.670732 -0.306667 0
3.768293 -0.306667 0
3.865854 -0.306667 0
3.963415 -0.306667 0
4.060976 -0.306667 0
4.158537 -0.306667 0
4.256098 -0.306667 0
4.353659 -0.306667 0
4.451220 -0.306667 0
4.548780 -0.306667 0
4.646341 -0.306667 0
4.743902 -0.306667 0
4.841463 -0.306667 0
4.939024 -0.306667 0
5.036585 -0.306667 0
5.134146 -0.306667 0
5.231707 -0.306667 0
5.329268 -0.306667 0
5.426829 -0.306667 0
5.524390 -0.306667 0
5.621951 -0.306667 0
5.719512 -0.306667 0
5.817073 -0.306667 0
5.914634 -0.306667 0
6.012195 -0.306667 0
6.109756 -0.306667 0
6.207317 -0.306667 0
6.304878 -0.306667 0
6.402439 -0.306667 0
-1.500000 -0.258333 0
-1.402439 -0.258333 0
-1.304878 -0.258333 0
-1.207317 -0.258333 0
-1.109756 -0.258333 0
-1.012195 -0.258333 0
-0.914634 -0.258333 0
-0.817073 -0.258333 0
-0.719512 -0.258333 0
-0.621951 -0.258333 0
-0.524390 -0.258333 0
-0.426829 -0.258333 0
-0.329268 -0.258333 0
-0.231707 -0.258333 0
-0.134146 -0.258333 0
-0.036585 -0.258333 0
0.060976 -0.258333 0
0.158537 -0.258333 0
0.256098 -0.258333 0
0.353659 -0.258333 0
0.451220 -0.258333 0
0.548780 -0.258333 0
0.646341 -0.258333 0
0.743902 -0.258333 0
0.841463 -0.258333 0
0.939024 -0.258333 0
1.036585 -0.258333 0
1.134146 -0.258333 0
1.231707 -0.258333 0
1.329268 -0.258333 0
1.426829 -0.258333 0
1.524390 -0.258333 0
1.621951 -0.258333 0
1.719512 -0.258333 0
1.817073 -0.258333 0
1.914634 -0.258333 0
2.012195 -0.258333 0
2.109756 -0.258333 0
2.207317 -0.258333 0
2.304878 -0.258333 0
2.402439 -0.258333 0
2.500000 -0.258333 0
2.597561 -0.258333 0
2.695122 -0.258333 0
2.792683 -0.258333 0
2.890244 -0.258333 0
2.987805 -0.258333 0
3.085366 -0.258333 0
3.182927 -0.258333 0
3.280488 -0.258333 0
3.378049 -0.258333 0
3.475610 -0.258333 0
3.573171 -0.258333 0
[...]
POINT_DATA 4920 

VECTORS velocity float
0.000000 0.000000 0
0.000000 0.000000 0
0.000000 0.000000 0
0.000000 0.000000 0
0.000000 0.000000 0
0.000000 0.000000 0
0.000000 0.000000 0
0.000000 0.000000 0
0.000000 0.000000 0
0.000000 0.000000 0
0.000000 0.000000 0
0.000000 0.000000 0
0.000000 0.000000 0
0.000000 0.000000 0
0.000000 0.000000 0
0.000004 0.000000 0
0.000007 0.000000 0
0.000009 0.000000 0
0.000009 0.000000 0
0.000008 0.000000 0
0.000007 0.000000 0
0.000007 0.000000 0
0.000006 0.000000 0
0.000007 0.000000 0
0.000007 0.000000 0
0.000008 0.000000 0
0.000009 0.000000 0
0.000009 0.000000 0
0.000008 0.000000 0
0.000008 0.000000 0
0.000007 0.000000 0
0.000007 0.000000 0
0.000006 0.000000 0
0.000006 0.000000 0
0.000006 0.000000 0
0.000005 0.000000 0
0.000006 0.000000 0
0.000006 0.000000 0
0.000006 0.000000 0
0.000006 0.000000 0
0.000006 0.000000 0
0.000006 0.000000 0
0.000006 0.000000 0
0.000006 0.000000 0
0.000006 0.000000 0
0.000006 0.000000 0
0.000006 0.000000 0
0.000006 0.000000 0
0.000006 0.000000 0
0.000006 0.000000 0
0.000007 0.000000 0
0.000007 0.000000 0
0.000007 0.000000 0
0.000008 0.000000 0
0.000008 0.000000 0
0.000009 0.000000 0
0.000000 0.000000 0
0.001895 0.000000 0
0.000000 0.000000 0
0.000000 0.000000 0
0.000000 0.000000 0
0.000000 0.000000 0
0.000000 0.000000 0
0.000000 0.000000 0
0.000000 0.000000 0
0.000000 0.000000 0
0.000000 0.000000 0
0.000000 0.000000 0
0.000000 0.000000 0
0.000000 0.000000 0
0.000000 0.000000 0
0.000000 0.000000 0
0.000000 0.000000 0
0.000000 0.000000 0
0.000000 0.000000 0
0.000000 0.000000 0
0.000000 0.000000 0
0.000000 0.000000 0
0.000000 0.000000 0
0.000000 0.000000 0
0.000000 0.000000 0
0.000000 0.000000 0
0.000000 0.000000 0
0.000000 0.000000 0
0.000000 0.000000 0
0.000000 0.000000 0
0.000000 0.000000 0
0.000000 0.000000 0
0.000000 0.000000 0
0.000000 0.000000 0
0.000000 0.000000 0
0.000000 0.000000 0
0.000000 0.000000 0
0.000000 0.000000 0
0.000000 0.000000 0
0.000000 0.000000 0
1.046703 -0.422656 0
2.518901 -0.738373 0
3.780473 -0.505175 0
4.623455 -0.265386 0
5.056852 -0.070114 0
5.167815 0.061900 0
5.064024 0.139660 0
4.830729 0.177636 0
4.532024 0.186401 0
4.214732 0.174929 0
3.911094 0.151085 0
3.640864 0.121594 0
3.413482 0.091741 0
3.230559 0.065103 0
3.088536 0.043527 0
2.981124 0.027427 0
2.901202 0.016275 0
2.842040 0.009097 0
2.797914 0.004841 0
2.764293 0.002583 0
2.737779 0.001601 0
2.715923 0.001380 0
2.697022 0.001577 0
2.679909 0.001983 0
2.663785 0.002485 0
2.648071 0.003041 0
2.632292 0.003655 0
2.615977 0.004374 0
2.598574 0.005273 0
2.579356 0.006466 0
2.557326 0.008101 0
2.531097 0.010382 0
2.498731 0.013574 0
2.457540 0.018029 0
2.403816 0.024194 0
2.332506 0.032615 0
2.236842 0.043896 0
2.107990 0.058516 0
1.935098 0.076538 0
1.705738 0.096467 0
1.410058 0.115175 0
1.039160 0.130916 0
0.616674 0.069022 0
0.000000 0.000000 0
-0.001591 0.000000 0
0.000000 0.000000 0
0.000000 0.000000 0
0.000000 0.000000 0
0.000000 0.000000 0
0.000000 0.000000 0
0.000000 0.000000 0
0.000000 0.000000 0
0.000000 0.000000 0
0.000000 0.000000 0
0.000000 0.000000 0
0.000000 0.000000 0
0.000000 0.000000 0
0.000000 0.000000 0
0.000000 0.000000 0
0.000000 0.000000 0
0.000000 0.000000 0
0.000000 0.000000 0
0.000000 0.000000 0
0.000000 0.000000 0
0.000000 0.000000 0
0.000000 0.000000 0
0.000000 0.000000 0
0.000000 0.000000 0
0.000000 0.000000 0
0.000000 0.000000 0
0.000000 0.000000 0
0.000000 0.000000 0
0.000000 0.000000 0
0.000000 0.000000 0
0.000000 0.000000 0
0.000000 0.000000 0
0.000000 0.000000 0
0.000000 0.000000 0
0.000000 0.000000 0
0.000000 0.000000 0
0.000000 0.000000 0
1.159926 -0.517154 0
2.654403 -1.246297 0
3.829291 -1.354146 0
5.003278 -1.042631 0
5.864600 -0.632339 0
6.391557 -0.269685 0
6.647655 -0.003553 0
6.707444 0.166998 0
6.639061 0.263562 0
6.491985 0.305175 0
6.302344 0.307619 0
6.096147 0.284304 0
5.891477 0.246526 0
5.700103 0.203272 0
5.528771 0.160983 0
5.380346 0.123574 0
5.254869 0.092809 0
5.150531 0.068905 0
5.064512 0.051171 0
4.993639 0.038517 0
4.934835 0.029792 0
4.885376 0.023963 0
4.842992 0.020192 0
4.805872 0.017842 0
4.772605 0.016466 0
4.742095 0.015773 0
4.713465 0.015602 0
4.685965 0.015900 0
4.658877 0.016704 0
4.631425 0.018143 0
4.602676 0.020435 0
4.571420 0.023908 0
4.536031 0.029029 0
4.494271 0.036442 0
4.443040 0.047023 0
4.378018 0.061944 0
4.293200 0.082722 0
4.180257 0.111229 0
4.027737 0.149489 0
3.820140 0.199283 0
3.537280 0.260114 0
3.154875 0.330234 0
2.647232 0.392547 0
2.014665 0.512521 0
1.050244 0.303723 0
0.000000 0.000000 0
-0.004739 0.000000 0
0.000000 0.000000 0
0.000000 0.000000 0
0.000000 0.000000 0
0.000000 0.000000 0
0.000000 0.000000 0
0.000000 0.000000 0
0.000000 0.000000 0
0.000000 0.000000 0
0.000000 0.000000 0
0.000000 0.000000 0
0.000000 0.000000 0
0.000000 0.000000 0
0.000000 0.000000 0
0.000000 0.000000 0
0.000000 0.000000 0
0.000000 0.000000 0
0.000000 0.000000 0
0.000000 0.000000 0
0.000000 0.000000 0
0.000000 0.000000 0
0.000000 0.000000 0
0.000000 0.000000 0
0.000000 0.000000 0
0.000000 0.000000 0
0.000000 0.000000 0
0.000000 0.000000 0
0.000000 0.000000 0
0.000000 0.000000 0
0.000000 0.000000 0
0.000000 0.000000 0
0.000000 0.000000 0
0.000000 0.000000 0
0.000000 0.000000 0
0.000000 0.000000 0
0.936403 -0.582701 0
2.635233 -1.321690 0
3.462987 -1.743704 0
4.645719 -1.902045 0
5.709119 -1.513501 0
6.432131 -0.953162 0
6.856848 -0.458053 0
7.079936 -0.094596 0
7.168034 0.143917 0
7.169973 0.284378 0
7.118923 0.353216 0
7.037067 0.371034 0
6.939228 0.354636 0
6.835477 0.317800 0
6.732761 0.271432 0
6.635769 0.223516 0
6.547364 0.179223 0
6.468879 0.141281 0
6.400435 0.110581 0
6.341317 0.086824 0
6.290335 0.069085 0
6.246124 0.056218 0
6.207357 0.047102 0
6.172853 0.040767 0
6.141625 0.036448 0
6.112870 0.033579 0
6.085940 0.031784 0
6.060291 0.030848 0
6.035430 0.030699 0
6.010859 0.031394 0
5.986011 0.033116 0
5.960177 0.036193 0
5.932419 0.041118 0
5.901450 0.048602 0
5.865473 0.059644 0
5.821961 0.075623 0
5.767325 0.098427 0
5.696447 0.130589 0
5.601971 0.175411 0
5.473274 0.236925 0
5.294826 0.319518 0
5.044495 0.426050 0
4.690414 0.556120 0
4.200025 0.695795 0
3.529906 0.856493 0
2.830547 0.996799 0
1.341954 0.522713 0
0.000001 0.000000 0
-0.005809 0.000000 0
0.000000 0.000000 0
0.000000 0.000000 0
0.000000 0.000000 0
0.000000 0.000000 0
0.000000 0.000000 0
0.000000 0.000000 0
0.000000 0.000000 0
0.000000 0.000000 0
0.000000 0.000000 0
0.000000 0.000000 0
0.000000 0.000000 0
0.000000 0.000000 0
0.000000 0.000000 0
0.000000 0.000000 0
0.000000 0.000000 0
0.000000 0.000000 0
0.000000 0.000000 0
0.000000 0.000000 0
0.000000 0.000000 0
0.000000 0.000000 0
0.000000 0.000000 0
0.000000 0.000000 0
0.000000 0.000000 0
0.000000 0.000000 0
0.000000 0.000000 0
0.000000 0.000000 0
0.000000 0.000000 0
0.000000 0.000000 0
0.000000 0.000000 0
0.000000 0.000000 0
0.000000 0.000000 0
0.000000 0.000000 0
0.738650 -0.467541 0
2.144963 -1.317224 0
3.090951 -1.776920 0
3.865458 -2.242325 0
5.208650 -2.466917 0
6.164256 -1.927650 0
6.689611 -1.200943 0
6.947233 -0.590619 0
7.065738 -0.157720 0
7.112185 0.122392 0
7.116208 0.287892 0
7.098142 0.371019 0
7.069387 0.396642 0
7.035645 0.384175 0
6.999666 0.348813 0
6.963055 0.302211 0
6.927087 0.252832 0
6.892878 0.206254 0
6.861278 0.165600 0
6.832771 0.132101 0
6.807463 0.105716 0
6.785155 0.085677 0
6.765466 0.070901 0
6.747935 0.060263 0
6.732106 0.052756 0
6.717568 0.047558 0
6.703974 0.044053 0
6.691033 0.041822 0
6.678494 0.040626 0
6.666128 0.040389 0
6.653690 0.041187 0
6.640896 0.043251 0
6.627373 0.046985 0
6.612609 0.053003 0
6.595882 0.062195 0
6.576154 0.075822 0
6.551916 0.095647 0
6.520949 0.124125 0
6.479951 0.164640 0
6.423893 0.221792 0
6.344955 0.301654 0
6.230520 0.411707 0
6.060155 0.559549 0
5.800109 0.748598 0
5.406970 0.967482 0
4.837589 1.190983 0
4.166733 1.389925 0
3.375205 1.409647 0
1.498500 0.669919 0
0.000001 0.000000 0
-0.005229 0.000000 0
0.000000 0.000000 0
0.000000 0.000000 0
0.000000 0.000000 0
0.000000 0.000000 0
0.000000 0.000000 0
0.000000 0.000000 0
0.000000 0.000000 0
0.000000 0.000000 0
0.000000 0.000000 0
0.000000 0.000000 0
0.000000 0.000000 0
0.000000 0.000000 0
0.000000 0.000000 0
0.000000 0.000000 0
0.000000 0.000000 0
0.000000 0.000000 0
0.000000 0.000000 0
0.000000 0.000000 0
0.000000 0.000000 0
0.000000 0.000000 0
0.000000 0.000000 0
0.000000 0.000000 0
0.000000 0.000000 0
0.000000 0.000000 0
0.000000 0.000000 0
0.000000 0.000000 0
0.000000 0.000000 0
0.000000 0.000000 0
0.000000 0.000000 0
0.000000 0.000000 0
0.536397 -0.369420 0
1.699051 -1.069762 0
2.545769 -1.751702 0
3.301331 -2.174052 0
4.127282 -2.792847 0
5.620122 -3.040907 0
6.353196 -2.247194 0
6.585799 -1.341062 0
6.619083 -0.644392 0
6.606716 -0.176316 0
6.591823 0.118914 0
6.581711 0.291335 0
6.580476 0.376412 0
6.587476 0.401996 0
6.599778 0.389177 0
6.613947 0.353763 0
6.627310 0.307388 0
6.638392 0.258283 0
6.646785 0.211826 0
6.652768 0.171059 0
6.656920 0.137242 0
6.659849 0.110414 0
6.662050 0.089891 0
6.663870 0.074658 0
6.665521 0.063629 0
6.667117 0.055811 0
6.668705 0.050385 0
6.670295 0.046725 0
6.671878 0.044407 0
6.673435 0.043187 0
6.674944 0.042987 0
6.676380 0.043894 0
6.677713 0.046155 0
6.678903 0.050207 0
6.679887 0.056719 0
6.680563 0.066663 0
6.680755 0.081425 0
6.680155 0.102972 0
6.678214 0.134079 0
6.673926 0.178673 0
6.665393 0.242290 0
6.648936 0.332725 0
6.617064 0.460613 0
6.554391 0.639283 0
6.429110 0.879718 0
6.184811 1.172643 0
5.772692 1.470927 0
5.220815 1.721289 0
4.578985 1.852828 0
3.665476 1.685500 0
1.551947 0.747520 0
0.000001 0.000000 0
-0.003895 0.000000 0
0.000000 0.000000 0
0.000000 0.000000 0
0.000000 0.000000 0
0.000000 0.000000 0
0.000000 0.000000 0
0.000000 0.000000 0
0.000000 0.000000 0
0.000000 0.000000 0
0.000000 0.000000 0
0.000000 0.000000 0
0.000000 0.000000 0
0.000000 0.000000 0
0.000000 0.000000 0
0.000000 0.000000 0
0.000000 0.000000 0
0.000000 0.000000 0
0.000000 0.000000 0
0.000000 0.000000 0
0.000000 0.000000 0
0.000000 0.000000 0
0.000000 0.000000 0
0.000000 0.000000 0
0.000000 0.000000 0
0.000000 0.000000 0
0.000000 0.000000 0
0.000000 0.000000 0
0.000000 0.000000 0
0.000000 0.000000 0
0.376655 -0.267078 0
1.297728 -0.846556 0
2.061878 -1.466498 0
2.754874 -2.111020 0
3.395598 -2.560429 0
4.281790 -3.391093 0
5.832398 -3.569672 0
6.153189 -2.406062 0
5.983041 -1.332668 0
5.744146 -0.600981 0
5.591513 -0.144215 0
5.515239 0.134780 0
5.502146 0.293514 0
5.532377 0.368163 0
5.588103 0.387080 0
5.655813 0.371060 0
5.725792 0.335173 0
5.791869 0.290100 0
5.850795 0.243183 0
5.901466 0.199132 0
5.944158 0.160578 0
5.979879 0.128593 0
6.009900 0.103175 0
6.035469 0.083685 0
6.057670 0.069181 0
6.077376 0.058654 0
6.095260 0.051179 0
6.111820 0.045984 0
6.127426 0.042481 0
6.142355 0.040266 0
6.156827 0.039107 0
6.171038 0.038930 0
6.185190 0.039815 0
6.199516 0.042001 0
6.214317 0.045908 0
6.229990 0.052180 0
6.247067 0.061765 0
6.266270 0.076024 0
6.288549 0.096906 0
6.315139 0.127211 0
6.347557 0.170992 0
6.387485 0.234173 0
6.436308 0.325597 0
6.493549 0.458546 0
6.552476 0.652665 0
6.588463 0.931694 0
6.527724 1.292683 0
6.298166 1.668563 0
5.922130 1.981307 0
5.431002 2.180187 0
4.787440 2.179928 0
3.758118 1.830186 0
1.535262 0.772744 0
0.000001 0.000000 0
-0.002503 0.000000 0
0.000000 0.000000 0
0.000000 0.000000 0
0.000000 0.000000 0
0.000000 0.000000 0
0.000000 0.000000 0
0.000000 0.000000 0
0.000000 0.000000 0
0.000000 0.000000 0
0.000000 0.000000 0
0.000000 0.000000 0
0.000000 0.000000 0
0.000000 0.000000 0
0.000000 0.000000 0
0.000000 0.000000 0
0.000000 0.000000 0
0.000000 0.000000 0
0.000000 0.000000 0
0.000000 0.000000 0
0.000000 0.000000 0
0.000000 0.000000 0
0.000000 0.000000 0
0.000000 0.000000 0
0.000000 0.000000 0
0.000000 0.000000 0
0.000000 0.000000 0
0.000000 0.000000 0
0.268132 -0.186555 0
0.996241 -0.644208 0
1.702793 -1.205645 0
2.320312 -1.791657 0
2.881200 -2.412449 0
3.396517 -2.930512 0
4.285463 -4.000078 0
5.745697 -3.968030 0
5.403314 -2.321825 0
4.740162 -1.138415 0
4.211487 -0.450422 0
3.922313 -0.062911 0
3.818449 0.163187 0
3.849715 0.282844 0
3.955482 0.333828 0
4.095288 0.340844 0
4.245072 0.320963 0
4.390253 0.286358 0
4.522873 0.245459 0
4.639396 0.203987 0
4.739157 0.165572 0
4.823224 0.132212 0
4.893559 0.104672 0
4.952439 0.082873 0
5.002092 0.066225 0
5.044503 0.053896 0
5.081342 0.045006 0
5.113955 0.038748 0
5.143401 0.034449 0
5.170503 0.031598 0
5.195906 0.029842 0
5.220141 0.028977 0
5.243678 0.028936 0
5.266986 0.029785 0
5.290593 0.031724 0
5.315154 0.035110 0
5.341527 0.040494 0
5.370874 0.048689 0
5.404787 0.060874 0
5.445458 0.078761 0
5.495889 0.104846 0
5.560161 0.142831 0
5.643725 0.198321 0
5.753593 0.280179 0
5.898057 0.403061 0
6.082895 0.592260 0
6.302555 0.891981 0
6.457588 1.316462 0
6.422550 1.770948 0
6.249718 2.150896 0
5.947225 2.414972 0
5.503818 2.514275 0
4.828849 2.368057 0
3.711961 1.873574 0
1.476057 0.762980 0
0.000001 0.000000 0
-0.001463 0.000000 0
0.000000 0.000000 0
0.000000 0.000000 0
0.000000 0.000000 0
0.000000 0.000000 0
0.000000 0.000000 0
0.000000 0.000000 0
0.000000 0.000000 0
0.000000 0.000000 0
0.000000 0.000000 0
0.000000 0.000000 0
0.000000 0.000000 0
0.000000 0.000000 0
0.000000 0.000000 0
0.000000 0.000000 0
0.000000 0.000000 0
0.000000 0.000000 0
0.000000 0.000000 0
0.000000 0.000000 0
0.000000 0.000000 0
0.000000 0.000000 0
0.000000 0.000000 0
0.000000 0.000000 0
0.000000 0.000000 0
0.000000 0.000000 0
0.209390 -0.131950 0
0.805735 -0.492621 0
1.468820 -0.977787 0
2.053175 -1.502523 0
2.535808 -2.050301 0
2.939904 -2.644190 0
3.299015 -3.256124 0
4.069847 -4.554916 0
5.220966 -4.123474 0
3.918535 -1.907903 0
2.777208 -0.742217 0
2.004282 -0.195805 0
1.721118 0.050502 0
1.751729 0.170746 0
1.912112 0.225626 0
2.131193 0.246502 0
2.370293 0.243612 0
2.606414 0.224930 0
2.824952 0.197546 0
3.018599 0.166671 0
3.184823 0.136033 0
3.324155 0.108061 0
3.438974 0.084085 0
3.532601 0.064577 0
3.608657 0.049406 0
3.670633 0.038075 0
3.721651 0.029919 0
3.764352 0.024246 0
3.800875 0.020434 0
3.832901 0.017969 0
3.861725 0.016469 0
3.888346 0.015674 0
3.913559 0.015440 0
3.938048 0.015723 0
3.962478 0.016573 0
3.987586 0.018138 0
4.014281 0.020674 0
4.043768 0.024576 0
4.077695 0.030425 0
4.118361 0.039073 0
4.168985 0.051772 0
4.234102 0.070385 0
4.320100 0.097751 0
4.436027 0.138343 0
4.594590 0.199597 0
4.814451 0.295405 0
5.117506 0.452270 0
5.544488 0.746065 0
5.976893 1.233236 0
6.153057 1.771545 0
6.209523 2.216791 0
6.129456 2.549719 0
5.894007 2.733990 0
5.464238 2.717902 0
4.746213 2.440681 0
3.579306 1.847016 0
1.397881 0.732404 0
0.000001 0.000000 0
-0.000960 0.000000 0
0.000000 0.000000 0
0.000000 0.000000 0
0.000000 0.000000 0
0.000000 0.000000 0
0.000000 0.000000 0
0.000000 0.000000 0
0.000000 0.000000 0
0.000000 0.000000 0
0.000000 0.000000 0
0.000000 0.000000 0
0.000000 0.000000 0
0.000000 0.000000 0
0.000000 0.000000 0
0.000000 0.000000 0
0.000000 0.000000 0
0.000000 0.000000 0
0.000000 0.000000 0
0.000000 0.000000 0
0.000000 0.000000 0
0.000000 0.000000 0
0.000000 0.000000 0
0.000000 0.000000 0
0.195468 -0.102377 0
0.724610 -0.396929 0
1.360735 -0.809611 0
1.928838 -1.262210 0
2.382045 -1.734249 0
2.710372 -2.230957 0
2.935683 -2.790554 0
3.102171 -3.490304 0
3.572585 -4.952245 0
4.022657 -3.893067 0
1.558075 -1.111147 0
0.422631 -0.190062 0
0.059909 0.072782 0
0.027398 0.062208 0
0.161847 0.068565 0
0.372050 0.094852 0
0.617273 0.106838 0
0.869614 0.105412 0
1.109004 0.095718 0
1.323636 0.082155 0
1.507752 0.067173 0
1.660061 0.052610 0
1.782335 0.039662 0
1.878183 0.028944 0
1.952061 0.020608 0
2.008532 0.014490 0
2.051787 0.010246 0
2.085387 0.007466 0
2.112178 0.005757 0
2.134328 0.004787 0
2.153424 0.004303 0
2.170599 0.004129 0
2.186666 0.004162 0
2.202238 0.004353 0
2.217832 0.004700 0
2.233974 0.005243 0
2.251284 0.006060 0
2.270585 0.007277 0
2.293015 0.009078 0
2.320192 0.011734 0
2.354429 0.015648 0
2.399062 0.021421 0
2.458932 0.029981 0
2.541135 0.042794 0
2.656243 0.062334 0
2.820380 0.092701 0
3.059130 0.144000 0
3.416656 0.230588 0
3.972037 0.466226 0
4.894761 1.014966 0
5.381241 1.655700 0
5.761443 2.162588 0
5.967400 2.571284 0
5.977015 2.843835 0
5.778316 2.936694 0
5.336913 2.807400 0
4.584244 2.426111 0
3.408335 1.777869 0
1.322961 0.692844 0
0.000000 0.000000 0
-0.001112 0.000000 0
0.000000 0.000000 0
0.000000 0.000000 0
0.000000 0.000000 0
0.000000 0.000000 0
0.000000 0.000000 0
0.000000 0.000000 0
0.000000 0.000000 0
0.000000 0.000000 0
0.000000 0.000000 0
0.000000 0.000000 0
0.000000 0.000000 0
0.000000 0.000000 0
0.000000 0.000000 0
0.000000 0.000000 0
0.000000 0.000000 0
0.000000 0.000000 0
0.000000 0.000000 0
0.000000 0.000000 0
0.000000 0.000000 0
0.000000 0.000000 0
0.225278 -0.095152 0
0.751325 -0.355940 0
1.380369 -0.707884 0
1.941235 -1.089216 0
2.380493 -1.483760 0
2.679435 -1.889708 0
2.839253 -2.324582 0
2.878598 -2.838294 0
2.825418 -3.571656 0
2.797609 -5.010940 0
1.635475 -3.001063 0
-0.000001 0.000000 0
-0.000005 0.000000 0
-0.000005 0.000000 0
-0.000003 0.000000 0
0.000001 0.000000 0
0.000004 0.000000 0
0.000006 0.000000 0
0.000007 0.000000 0
0.000007 0.000000 0
0.000006 0.000000 0
0.000006 0.000000 0
0.000005 0.000000 0
0.000005 0.000000 0
0.000005 0.000000 0
0.000005 0.000000 0
0.000005 0.000000 0
0.000006 0.000000 0
0.000006 0.000000 0
0.000006 0.000000 0
0.000006 0.000000 0
0.000006 0.000000 0
0.000006 0.000000 0
0.000006 0.000000 0
0.000006 0.000000 0
0.000006 0.000000 0
0.000006 0.000000 0
0.000006 0.000000 0
0.000006 0.000000 0
0.000006 0.000000 0
0.000006 0.000000 0
0.000006 0.000000 0
0.000006 0.000000 0
0.000006 0.000000 0
0.000005 0.000000 0
0.000005 0.000000 0
0.000005 0.000000 0
0.000004 0.000000 0
0.000001 0.000000 0
-0.000003 0.000000 0
2.079151 0.521306 0
3.753604 1.342177 0
4.748465 1.926398 0
5.385491 2.442920 0
5.722383 2.827666 0
5.789751 3.035019 0
5.602244 3.032244 0
5.147003 2.802465 0
4.385685 2.350373 0
3.242445 1.690716 0
1.269262 0.655311 0
-0.000000 0.000000 0
-0.001936 0.000000 0
0.000000 0.000000 0
0.000000 0.000000 0
0.000000 0.000000 0
0.000000 0.000000 0
0.000000 0.000000 0
0.000000 0.000000 0
0.000000 0.000000 0
0.000000 0.000000 0
0.000000 0.000000 0
0.000000 0.000000 0
0.000000 0.000000 0
0.000000 0.000000 0
0.000000 0.000000 0
0.000000 0.000000 0
0.000000 0.000000 0
0.000000 0.000000 0
0.000000 0.000000 0
0.000000 0.000000 0
0.309036 -0.109558 0
0.897510 -0.368485 0
1.541676 -0.672942 0
2.096268 -0.986430 0
2.519850 -1.305089 0
2.797312 -1.627927 0
2.927317 -1.961526 0
2.919214 -2.329625 0
2.785589 -2.783700 0
2.522770 -3.450181 0
2.018247 -4.379763 0
0.037623 -0.000011 0
-0.074091 2.449920 0
0.383529 0.000000 0
0.309546 0.000000 0
0.236620 0.000000 0
0.183986 0.000000 0
0.098227 0.000000 0
-0.007466 0.000000 0
-0.117422 0.000000 0
-0.220239 0.000000 0
-0.310629 0.000000 0
-0.386070 0.000000 0
-0.446220 0.000000 0
-0.492264 0.000000 0
-0.526278 0.000000 0
-0.550687 0.000000 0
-0.567875 0.000000 0
-0.579935 0.000000 0
-0.588555 0.000000 0
-0.595004 0.000000 0
-0.600176 0.000000 0
-0.604667 0.000000 0
-0.608861 0.000000 0
-0.613002 0.000000 0
-0.617263 0.000000 0
-0.621789 0.000000 0
-0.626751 0.000000 0
-0.632373 0.000000 0
-0.638984 0.000000 0
-0.647061 0.000000 0
-0.657307 0.000000 0
-0.670747 0.000000 0
-0.688892 0.000000 0
-0.713986 0.000000 0
-0.749410 0.000000 0
-0.800367 0.000000 0
-0.875233 0.000000 0
-0.987485 0.000000 0
-1.165900 0.000000 0
-1.452935 0.135218 0
0.000000 -0.000011 0
1.716930 0.336661 0
3.326822 1.354124 0
4.430378 2.088789 0
5.137948 2.643558 0
5.504709 2.996212 0
5.578743 3.125828 0
5.387327 3.028815 0
4.932312 2.721419 0
4.195857 2.237866 0
3.122538 1.607392 0
1.254958 0.628750 0
-0.000001 0.000000 0
-0.003661 0.000000 0
0.000000 0.000000 0
0.000000 0.000000 0
0.000000 0.000000 0
0.000000 0.000000 0
0.000000 0.000000 0
0.000000 0.000000 0
0.000000 0.000000 0
0.000000 0.000000 0
0.000000 0.000000 0
0.000000 0.000000 0
0.000000 0.000000 0
0.000000 0.000000 0
0.000000 0.000000 0
0.000000 0.000000 0
0.000000 0.000000 0
0.000000 0.000000 0
0.482646 -0.150523 0
1.207699 -0.440014 0