# vtk DataFile Version 2.0
generated by CFD-lab course output (written by Tobias Neckel) 
ASCII

DATASET STRUCTURED_GRID
DIMENSIONS  82 60 1 
POINTS 4920 float

-1.500000 -0.500000 0
-1.402439 -0.500000 0
-1.304878 -0.500000 0
-1.207317 -0.500000 0
-1.109756 -0.500000 0
-1.012195 -0.500000 0
-0.914634 -0.500000 0
-0.817073 -0.500000 0
-0.719512 -0.500000 0
-0.621951 -0.500000 0
-0.524390 -0.500000 0
-0.426829 -0.500000 0
-0.329268 -0.500000 0
-0.231707 -0.500000 0
-0.134146 -0.500000 0
-0.036585 -0.500000 0
0.060976 -0.500000 0
0.158537 -0.500000 0
0.256098 -0.500000 0
0.353659 -0.500000 0
0.451220 -0.500000 0
0.548780 -0.500000 0
0.646341 -0.500000 0
0.743902 -0.500000 0
0.841463 -0.500000 0
0.939024 -0.500000 0
1.036585 -0.500000 0
1.134146 -0.500000 0
1.231707 -0.500000 0
1.329268 -0.500000 0
1.426829 -0.500000 0
1.524390 -0.500000 0
1.621951 -0.500000 0
1.719512 -0.500000 0
1.817073 -0.500000 0
1.914634 -0.500000 0
2.012195 -0.500000 0
2.109756 -0.500000 0
2.207317 -0.500000 0
2.304878 -0.500000 0
2.402439 -0.500000 0
2.500000 -0.500000 0
2.597561 -0.500000 0
2.695122 -0.500000 0
2.792683 -0.500000 0
2.890244 -0.500000 0
2.987805 -0.500000 0
3.085366 -0.500000 0
3.182927 -0.500000 0
3.280488 -0.500000 0
3.378049 -0.500000 0
3.475610 -0.500000 0
3.573171 -0.500000 0
3.670732 -0.500000 0
3.768293 -0.500000 0
3.865854 -0.500000 0
3.963415 -0.500000 0
4.060976 -0.500000 0
4.158537 -0.500000 0
4.256098 -0.500000 0
4.353659 -0.500000 0
4.451220 -0.500000 0
4.548780 -0.500000 0
4.646341 -0.500000 0
4.743902 -0.500000 0
4.841463 -0.500000 0
4.939024 -0.500000 0
5.036585 -0.500000 0
5.134146 -0.500000 0
5.231707 -0.500000 0
5.329268 -0.500000 0
5.426829 -0.500000 0
5.524390 -0.500000 0
5.621951 -0.500000 0
5.719512 -0.500000 0
5.817073 -0.500000 0
5.914634 -0.500000 0
6.012195 -0.500000 0
6.109756 -0.500000 0
6.207317 -0.500000 0
6.304878 -0.500000 0
6.402439 -0.500000 0
-1.500000 -0.451667 0
-1.402439 -0.451667 0
-1.304878 -0.451667 0
-1.207317 -0.451667 0
-1.109756 -0.451667 0
-1.012195 -0.451667 0
-0.914634 -0.451667 0
-0.817073 -0.451667 0
-0.719512 -0.451667 0
-0.621951 -0.451667 0
-0.524390 -0.451667 0
-0.426829 -0.451667 0
-0.329268 -0.451667 0
-0.231707 -0.451667 0
-0.134146 -0.451667 0
-0.036585 -0.451667 0
0.060976 -0.451667 0
0.158537 -0.451667 0
0.256098 -0.451667 0
0.353659 -0.451667 0
0.451220 -0.451667 0
0.548780 -0.451667 0
0.646341 -0.451667 0
0.743902 -0.451667 0
0.841463 -0.451667 0
0.939024 -0.451667 0
1.036585 -0.451667 0
1.134146 -0.451667 0
1.231707 -0.451667 0
1.329268 -0.451667 0
1.426829 -0.451667 0
1.524390 -0.451667 0
1.621951 -0.451667 0
1.719512 -0.451667 0
1.817073 -0.451667 0
1.914634 -0.451667 0
2.012195 -0.451667 0
2.109756 -0.451667 0
2.207317 -0.451667 0
2.304878 -0.451667 0
2.402439 -0.451667 0
2.500000 -0.451667 0
2.597561 -0.451667 0
2.695122 -0.451667 0
2.792683 -0.451667 0
2.890244 -0.451667 0
2.987805 -0.451667 0
3.085366 -0.451667 0
3.182927 -0.451667 0
3.280488 -0.451667 0
3.378049 -0.451667 0
3.475610 -0.451667 0
3.573171 -0.451667 0
3.670732 -0.451667 0
3.768293 -0.451667 0
3.865854 -0.451667 0
3.963415 -0.451667 0
4.060976 -0.451667 0
4.158537 -0.451667 0
4.256098 -0.451667 0
4.353659 -0.451667 0
4.451220 -0.451667 0
4.548780 -0.451667 0
4.646341 -0.451667 0
4.743902 -0.451667 0
4.841463 -0.451667 0
4.939024 -0.451667 0
5.036585 -0.451667 0
5.134146 -0.451667 0
5.231707 -0.451667 0
5.329268 -0.451667 0
5.426829 -0.451667 0
5.524390 -0.451667 0
5.621951 -0.451667 0
5.719512 -0.451667 0
5.817073 -0.451667 0
5.914634 -0.451667 0
6.012195 -0.451667 0
6.109756 -0.451667 0
6.207317 -0.451667 0
6.304878 -0.451667 0
6.402439 -0.451667 0
-1.500000 -0.403333 0
-1.402439 -0.403333 0
-1.304878 -0.403333 0
-1.207317 -0.403333 0
-1.109756 -0.403333 0
-1.012195 -0.403333 0
-0.914634 -0.403333 0
-0.817073 -0.403333 0
-0.719512 -0.403333 0
-0.621951 -0.403333 0
-0.524390 -0.403333 0
-0.426829 -0.403333 0
-0.329268 -0.403333 0
-0.231707 -0.403333 0
-0.134146 -0.403333 0
-0.036585 -0.403333 0
0.060976 -0.403333 0
0.158537 -0.403333 0
0.256098 -0.403333 0
0.353659 -0.403333 0
0.451220 -0.403333 0
0.548780 -0.403333 0
0.646341 -0.403333 0
0.743902 -0.403333 0
0.841463 -0.403333 0
0.939024 -0.403333 0
1.036585 -0.403333 0
1.134146 -0.403333 0
1.231707 -0.403333 0
1.329268 -0.403333 0
1.426829 -0.403333 0
1.524390 -0.403333 0
1.621951 -0.403333 0
1.719512 -0.403333 0
1.817073 -0.403333 0
1.914634 -0.403333 0
2.012195 -0.403333 0
2.109756 -0.403333 0
2.207317 -0.403333 0
2.304878 -0.403333 0
2.402439 -0.403333 0
2.500000 -0.403333 0
2.597561 -0.403333 0
2.695122 -0.403333 0
2.792683 -0.403333 0
2.890244 -0.403333 0
2.987805 -0.403333 0
3.085366 -0.403333 0
3.182927 -0.403333 0
3.280488 -0.403333 0
3.378049 -0.403333 0
3.475610 -0.403333 0
3.573171 -0.403333 0
3.670732 -0.403333 0
3.768293 -0.403333 0
3.865854 -0.403333 0
3.963415 -0.403333 0
4.060976 -0.403333 0
4.158537 -0.403333 0
4.256098 -0.403333 0
4.353659 -0.403333 0
4.451220 -0.403333 0
4.548780 -0.403333 0
4.646341 -0.403333 0
4.743902 -0.403333 0
4.841463 -0.403333 0
4.939024 -0.403333 0
5.036585 -0.403333 0
5.134146 -0.403333 0
5.231707 -0.403333 0
5.329268 -0.403333 0
5.426829 -0.403333 0
5.524390 -0.403333 0
5.621951 -0.403333 0
5.719512 -0.403333 0
5.817073 -0.403333 0
5.914634 -0.403333 0
6.012195 -0.403333 0
6.109756 -0.403333 0
6.207317 -0.403333 0
6.304878 -0.403333 0
6.402439 -0.403333 0
-1.500000 -0.355000 0
-1.402439 -0.355000 0
-1.304878 -0.355000 0
-1.207317 -0.355000 0
-1.109756 -0.355000 0
-1.012195 -0.355000 0
-0.914634 -0.355000 0
-0.817073 -0.355000 0
-0.719512 -0.355000 0
-0.621951 -0.355000 0
-0.524390 -0.355000 0
-0.426829 -0.355000 0
-0.329268 -0.355000 0
-0.231707 -0.355000 0
-0.134146 -0.355000 0
-0.036585 -0.355000 0
0.060976 -0.355000 0
0.158537 -0.355000 0
0.256098 -0.355000 0
0.353659 -0.355000 0
0.451220 -0.355000 0
0.548780 -0.355000 0
0.646341 -0.355000 0
0.743902 -0.355000 0
0.841463 -0.355000 0
0.939024 -0.355000 0
1.036585 -0.355000 0
1.134146 -0.355000 0
1.231707 -0.355000 0
1.329268 -0.355000 0
1.426829 -0.355000 0
1.524390 -0.355000 0
1.621951 -0.355000 0
1.719512 -0.355000 0
1.817073 -0.355000 0
1.914634 -0.355000 0
2.012195 -0.355000 0
2.109756 -0.355000 0
2.207317 -0.355000 0
2.304878 -0.355000 0
2.402439 -0.355000 0
2.500000 -0.355000 0
2.597561 -0.355000 0
2.695122 -0.355000 0
2.792683 -0.355000 0
2.890244 -0.355000 0
2.987805 -0.355000 0
3.085366 -0.355000 0
3.182927 -0.355000 0
3.280488 -0.355000 0
3.378049 -0.355000 0
3.475610 -0.355000 0
3.573171 -0.355000 0
3.670732 -0.355000 0
3.768293 -0.355000 0
3.865854 -0.355000 0
3.963415 -0.355000 0
4.060976 -0.355000 0
4.158537 -0.355000 0
4.256098 -0.355000 0
4.353659 -0.355000 0
4.451220 -0.355000 0
4.548780 -0.355000 0
4.646341 -0.355000 0
4.743902 -0.355000 0
4.841463 -0.355000 0
4.939024 -0.355000 0
5.036585 -0.355000 0
5.134146 -0.355000 0
5.231707 -0.355000 0
5.329268 -0.355000 0
5.426829 -0.355000 0
5.524390 -0.355000 0
5.621951 -0.355000 0
5.719512 -0.355000 0
5.817073 -0.355000 0
5.914634 -0.355000 0
6.012195 -0.355000 0
6.109756 -0.355000 0
6.207317 -0.355000 0
6.304878 -0.355000 0
6.402439 -0.355000 0
-1.500000 -0.306667 0
-1.402439 -0.306667 0
-1.304878 -0.306667 0
-1.207317 -0.306667 0
-1.109756 -0.306667 0
-1.012195 -0.306667 0
-0.914634 -0.306667 0
-0.817073 -0.306667 0
-0.719512 -0.306667 0
-0.621951 -0.306667 0
-0.524390 -0.306667 0
-0.426829 -0.306667 0
-0.329268 -0.306667 0
-0.231707 -0.306667 0
-0.134146 -0.306667 0
-0.036585 -0.306667 0
0.060976 -0.306667 0
0.158537 -0.306667 0
0.256098 -0.306667 0
0.353659 -0.306667 0
0.451220 -0.306667 0
0.548780 -0.306667 0
0.646341 -0.306667 0
0.743902 -0.306667 0
0.841463 -0.306667 0
0.939024 -0.306667 0
1.036585 -0.306667 0
1.134146 -0.306667 0
1.231707 -0.306667 0
1.329268 -0.306667 0
1.426829 -0.306667 0
1.524390 -0.306667 0
1.621951 -0.306667 0
1.719512 -0.306667 0
1.817073 -0.306667 0
1.914634 -0.306667 0
2.012195 -0.306667 0
2.109756 -0.306667 0
2.207317 -0.306667 0
2.304878 -0.306667 0
2.402439 -0.306667 0
2.500000 -0.306667 0
2.597561 -0.306667 0
2.695122 -0.306667 0
2.792683 -0.306667 0
2.890244 -0.306667 0
2.987805 -0.306667 0
3.085366 -0.306667 0
3.182927 -0.306667 0
3.280488 -0.306667 0
3.378049 -0.306667 0
3.475610 -0.306667 0
3.573171 -0.306667 0
3.670732 -0.306667 0
3.768293 -0.306667 0
3.865854 -0.306667 0
3.963415 -0.306667 0
4.060976 -0.306667 0
4.158537 -0.306667 0
4.256098 -0.306667 0
4.353659 -0.306667 0
4.451220 -0.306667 0
4.548780 -0.306667 0
4.646341 -0.306667 0
4.743902 -0.306667 0
4.841463 -0.306667 0
4.939024 -0.306667 0
5.036585 -0.306667 0
5.134146 -0.306667 0
5.231707 -0.306667 0
5.329268 -0.306667 0
5.426829 -0.306667 0
5.524390 -0.306667 0
5.621951 -0.306667 0
5.719512 -0.306667 0
5.817073 -0.306667 0
5.914634 -0.306667 0
6.012195 -0.306667 0
6.109756 -0.306667 0
6.207317 -0.306667 0
6.304878 -0.306667 0
6.402439 -0.306667 0
-1.500000 -0.258333 0
-1.402439 -0.258333 0
-1.304878 -0.258333 0
-1.207317 -0.258333 0
-1.109756 -0.258333 0
-1.012195 -0.258333 0
-0.914634 -0.258333 0
-0.817073 -0.258333 0
-0.719512 -0.258333 0
-0.621951 -0.258333 0
-0.524390 -0.258333 0
-0.426829 -0.258333 0
-0.329268 -0.258333 0
-0.231707 -0.258333 0
-0.134146 -0.258333 0
-0.036585 -0.258333 0
0.060976 -0.258333 0
0.158537 -0.258333 0
0.256098 -0.258333 0
0.353659 -0.258333 0
0.451220 -0.258333 0
0.548780 -0.258333 0
0.646341 -0.258333 0
0.743902 -0.258333 0
0.841463 -0.258333 0
0.939024 -0.258333 0
1.036585 -0.258333 0
1.134146 -0.258333 0
1.231707 -0.258333 0
1.329268 -0.258333 0
1.426829 -0.258333 0
1.524390 -0.258333 0
1.621951 -0.258333 0
1.719512 -0.258333 0
1.817073 -0.258333 0
1.914634 -0.258333 0
2.012195 -0.258333 0
2.109756 -0.258333 0
2.207317 -0.258333 0
2.304878 -0.258333 0
2.402439 -0.258333 0
2.500000 -0.258333 0
2.597561 -0.258333 0
2.695122 -0.258333 0
2.792683 -0.258333 0
2.890244 -0.258333 0
2.987805 -0.258333 0
3.085366 -0.258333 0
3.182927 -0.258333 0
3.280488 -0.258333 0
3.378049 -0.258333 0
3.475610 -0.258333 0
3.573171 -0.258333 0
[...]
POINT_DATA 4920 

VECTORS velocity float
0.000000 0.000000 0
0.000000 0.000000 0
0.000000 0.000000 0
0.000000 0.000000 0
0.000000 0.000000 0
0.000000 0.000000 0
0.000000 0.000000 0
0.000000 0.000000 0
0.000000 0.000000 0
0.000000 0.000000 0
0.000000 0.000000 0
0.000000 0.000000 0
0.000000 0.000000 0
0.000000 0.000000 0
0.000000 0.000000 0
0.000254 0.000000 0
0.000517 0.000000 0
0.000855 0.000000 0
0.001112 0.000000 0
0.001081 0.000000 0
0.000530 0.000000 0
-0.000508 0.000000 0
-0.001713 0.000000 0
-0.002707 0.000000 0
-0.003302 0.000000 0
-0.003526 0.000000 0
-0.003511 0.000000 0
-0.003379 0.000000 0
-0.003240 0.000000 0
-0.003130 0.000000 0
-0.003057 0.000000 0
-0.003012 0.000000 0
-0.002987 0.000000 0
-0.002975 0.000000 0
-0.002969 0.000000 0
-0.002967 0.000000 0
-0.002967 0.000000 0
-0.002967 0.000000 0
-0.002968 0.000000 0
-0.002969 0.000000 0
-0.002971 0.000000 0
-0.002973 0.000000 0
-0.002977 0.000000 0
-0.002982 0.000000 0
-0.002990 0.000000 0
-0.003001 0.000000 0
-0.003018 0.000000 0
-0.003043 0.000000 0
-0.003077 0.000000 0
-0.003123 0.000000 0
-0.003180 0.000000 0
-0.003244 0.000000 0
-0.003297 0.000000 0
-0.003317 0.000000 0
-0.003136 0.000000 0
-0.002902 0.000000 0
0.000011 0.000000 0
0.001534 0.000000 0
0.000000 0.000000 0
0.000000 0.000000 0
0.000000 0.000000 0
0.000000 0.000000 0
0.000000 0.000000 0
0.000000 0.000000 0
0.000000 0.000000 0
0.000000 0.000000 0
0.000000 0.000000 0
0.000000 0.000000 0
0.000000 0.000000 0
0.000000 0.000000 0
0.000000 0.000000 0
0.000000 0.000000 0
0.000000 0.000000 0
0.000000 0.000000 0
0.000000 0.000000 0
0.000000 0.000000 0
0.000000 0.000000 0
0.000000 0.000000 0
0.000000 0.000000 0
0.000000 0.000000 0
0.000000 0.000000 0
0.000000 0.000000 0
0.000000 0.000000 0
0.000000 0.000000 0
0.000000 0.000000 0
0.000000 0.000000 0
0.000000 0.000000 0
0.000000 0.000000 0
0.000000 0.000000 0
0.000000 0.000000 0
0.000000 0.000000 0
0.000000 0.000000 0
0.000000 0.000000 0
0.000000 0.000000 0
0.000000 0.000000 0
0.000000 0.000000 0
1.172380 -0.426359 0
2.612461 -0.713453 0
3.733394 -0.434596 0
4.398152 -0.178845 0
4.642299 0.007917 0
4.585910 0.113636 0
4.364713 0.153221 0
4.095195 0.142359 0
3.857087 0.104730 0
3.686243 0.062714 0
3.583555 0.029762 0
3.532263 0.009432 0
3.512669 -0.000789 0
3.509265 -0.004420 0
3.512551 -0.004467 0
3.517354 -0.003368 0
3.521528 -0.002192 0
3.524509 -0.001292 0
3.526402 -0.000704 0
3.527504 -0.000356 0
3.528096 -0.000164 0
3.528386 -0.000062 0
3.528501 -0.000007 0
3.528510 0.000028 0
3.528436 0.000065 0
3.528269 0.000118 0
3.527963 0.000203 0
3.527434 0.000346 0
3.526532 0.000584 0
3.525008 0.000984 0
3.522442 0.001651 0
3.518134 0.002762 0
3.510921 0.004608 0
3.498881 0.007663 0
3.478843 0.012686 0
3.445624 0.020902 0
3.390823 0.034079 0
3.301191 0.055179 0
3.155904 0.086449 0
2.925865 0.135959 0
2.566388 0.189138 0
2.034913 0.350178 0
1.208612 0.244648 0
-0.000025 0.000000 0
-0.007099 0.000000 0
0.000000 0.000000 0
0.000000 0.000000 0
0.000000 0.000000 0
0.000000 0.000000 0
0.000000 0.000000 0
0.000000 0.000000 0
0.000000 0.000000 0
0.000000 0.000000 0
0.000000 0.000000 0
0.000000 0.000000 0
0.000000 0.000000 0
0.000000 0.000000 0
0.000000 0.000000 0
0.000000 0.000000 0
0.000000 0.000000 0
0.000000 0.000000 0
0.000000 0.000000 0
0.000000 0.000000 0
0.000000 0.000000 0
0.000000 0.000000 0
0.000000 0.000000 0
0.000000 0.000000 0
0.000000 0.000000 0
0.000000 0.000000 0
0.000000 0.000000 0
0.000000 0.000000 0
0.000000 0.000000 0
0.000000 0.000000 0
0.000000 0.000000 0
0.000000 0.000000 0
0.000000 0.000000 0
0.000000 0.000000 0
0.000000 0.000000 0
0.000000 0.000000 0
0.000000 0.000000 0
0.000000 0.000000 0
1.337302 -0.579978 0
2.996027 -1.293100 0
4.051482 -1.268450 0
5.047868 -0.884659 0
5.727294 -0.450284 0
6.063338 -0.093015 0
6.118063 0.137524 0
6.000429 0.243111 0
5.804554 0.251489 0
5.599031 0.202604 0
5.423961 0.135515 0
5.294783 0.076287 0
5.210187 0.035121 0
5.160660 0.011396 0
5.134477 0.000061 0
5.122800 -0.004005 0
5.118937 -0.004445 0
5.118619 -0.003542 0
5.119507 -0.002413 0
5.120538 -0.001481 0
5.121343 -0.000837 0
5.121868 -0.000435 0
5.122169 -0.000198 0
5.122314 -0.000059 0
5.122348 0.000034 0
5.122296 0.000122 0
5.122154 0.000237 0
5.121888 0.000416 0
5.121426 0.000711 0
5.120641 0.001203 0
5.119318 0.002028 0
5.117092 0.003408 0
5.113358 0.005709 0
5.107105 0.009540 0
5.096655 0.015894 0
5.079228 0.026386 0
5.050231 0.043608 0
5.002133 0.071556 0
4.922537 0.116385 0
4.792074 0.185944 0
4.577697 0.292058 0
4.241668 0.441394 0
3.683434 0.671022 0
3.056152 1.004736 0
1.440472 0.597017 0
-0.000018 0.000000 0
-0.007470 0.000000 0
0.000000 0.000000 0
0.000000 0.000000 0
0.000000 0.000000 0
0.000000 0.000000 0
0.000000 0.000000 0
0.000000 0.000000 0
0.000000 0.000000 0
0.000000 0.000000 0
0.000000 0.000000 0
0.000000 0.000000 0
0.000000 0.000000 0
0.000000 0.000000 0
0.000000 0.000000 0
0.000000 0.000000 0
0.000000 0.000000 0
0.000000 0.000000 0
0.000000 0.000000 0
0.000000 0.000000 0
0.000000 0.000000 0
0.000000 0.000000 0
0.000000 0.000000 0
0.000000 0.000000 0
0.000000 0.000000 0
0.000000 0.000000 0
0.000000 0.000000 0
0.000000 0.000000 0
0.000000 0.000000 0
0.000000 0.000000 0
0.000000 0.000000 0
0.000000 0.000000 0
0.000000 0.000000 0
0.000000 0.000000 0
0.000000 0.000000 0
0.000000 0.000000 0
1.220324 -0.669724 0
3.118329 -1.490645 0
3.935106 -1.770170 0
4.915738 -1.729968 0
5.799732 -1.264820 0
6.374092 -0.681925 0
6.636511 -0.185676 0
6.667475 0.144802 0
6.556300 0.308540 0
6.377547 0.341219 0
6.182328 0.293283 0
6.002537 0.213444 0
5.855667 0.135670 0
5.747649 0.075879 0
5.675695 0.036719 0
5.632252 0.014338 0
5.608359 0.003232 0
5.596577 -0.001295 0
5.591485 -0.002473 0
5.589671 -0.002242 0
5.589252 -0.001613 0
5.589315 -0.001014 0
5.589478 -0.000573 0
5.589610 -0.000282 0
5.589684 -0.000095 0
5.589700 0.000037 0
5.589663 0.000161 0
5.589567 0.000321 0
5.589393 0.000565 0
5.589094 0.000964 0
5.588592 0.001629 0
5.587751 0.002743 0
5.586346 0.004604 0
5.583995 0.007711 0
5.580069 0.012883 0
5.573517 0.021473 0
5.562585 0.035686 0
5.544350 0.059096 0
5.513893 0.097341 0
5.462885 0.159247 0
5.377262 0.257289 0
5.232318 0.408640 0
4.992915 0.632171 0
4.594838 0.937503 0
4.077141 1.351574 0
3.439473 1.520153 0
1.467778 0.723993 0
0.000008 0.000000 0
-0.005147 0.000000 0
0.000000 0.000000 0
0.000000 0.000000 0
0.000000 0.000000 0
0.000000 0.000000 0
0.000000 0.000000 0
0.000000 0.000000 0
0.000000 0.000000 0
0.000000 0.000000 0
0.000000 0.000000 0
0.000000 0.000000 0
0.000000 0.000000 0
0.000000 0.000000 0
0.000000 0.000000 0
0.000000 0.000000 0
0.000000 0.000000 0
0.000000 0.000000 0
0.000000 0.000000 0
0.000000 0.000000 0
0.000000 0.000000 0
0.000000 0.000000 0
0.000000 0.000000 0
0.000000 0.000000 0
0.000000 0.000000 0
0.000000 0.000000 0
0.000000 0.000000 0
0.000000 0.000000 0
0.000000 0.000000 0
0.000000 0.000000 0
0.000000 0.000000 0
0.000000 0.000000 0
0.000000 0.000000 0
0.000000 0.000000 0
1.109029 -0.609030 0
2.824553 -1.556535 0
3.740945 -1.932128 0
4.347423 -2.183566 0
5.449394 -2.192215 0
6.276825 -1.607151 0
6.730322 -0.864838 0
6.887065 -0.238361 0
6.846259 0.177263 0
6.694330 0.386746 0
6.498703 0.436761 0
6.299467 0.388391 0
6.119234 0.297349 0
5.971077 0.202564 0
5.860354 0.124283 0
5.785180 0.068566 0
5.738770 0.033421 0
5.712654 0.013670 0
5.699201 0.003916 0
5.692863 -0.000120 0
5.690155 -0.001306 0
5.689125 -0.001304 0
5.688794 -0.000948 0
5.688717 -0.000580 0
5.688713 -0.000300 0
5.688717 -0.000103 0
5.688708 0.000045 0
5.688680 0.000188 0
5.688625 0.000371 0
5.688533 0.000651 0
5.688382 0.001108 0
5.688132 0.001869 0
5.687718 0.003142 0
5.687030 0.005269 0
5.685886 0.008819 0
5.683977 0.014732 0
5.680791 0.024557 0
5.675462 0.040836 0
5.666511 0.067731 0
5.651358 0.111916 0
5.625316 0.184074 0
5.579745 0.300171 0
5.497567 0.482470 0
5.349873 0.757213 0
5.089189 1.124711 0
4.708721 1.577123 0
4.306227 1.902834 0
3.466193 1.723480 0
1.384288 0.733574 0
0.000016 0.000000 0
-0.002898 0.000000 0
0.000000 0.000000 0
0.000000 0.000000 0
0.000000 0.000000 0
0.000000 0.000000 0
0.000000 0.000000 0
0.000000 0.000000 0
0.000000 0.000000 0
0.000000 0.000000 0
0.000000 0.000000 0
0.000000 0.000000 0
0.000000 0.000000 0
0.000000 0.000000 0
0.000000 0.000000 0
0.000000 0.000000 0
0.000000 0.000000 0
0.000000 0.000000 0
0.000000 0.000000 0
0.000000 0.000000 0
0.000000 0.000000 0
0.000000 0.000000 0
0.000000 0.000000 0
0.000000 0.000000 0
0.000000 0.000000 0
0.000000 0.000000 0
0.000000 0.000000 0
0.000000 0.000000 0
0.000000 0.000000 0
0.000000 0.000000 0
0.000000 0.000000 0
0.000000 0.000000 0
0.971754 -0.554677 0
2.540559 -1.409036 0
3.345057 -1.978079 0
3.956139 -2.245100 0
4.521347 -2.616563 0
5.826642 -2.685825 0
6.529553 -1.899413 0
6.798036 -0.984247 0
6.826897 -0.243112 0
6.712919 0.240287 0
6.532039 0.480726 0
6.340749 0.536842 0
6.166179 0.481279 0
6.019298 0.376135 0
5.904642 0.263924 0
5.822419 0.167976 0
5.768607 0.096955 0
5.736507 0.050269 0
5.719007 0.022837 0
5.710221 0.008510 0
5.706120 0.002009 0
5.704308 -0.000389 0
5.703533 -0.000938 0
5.703203 -0.000811 0
5.703057 -0.000532 0
5.702986 -0.000281 0
5.702947 -0.000092 0
5.702922 0.000056 0
5.702903 0.000203 0
5.702885 0.000394 0
5.702866 0.000686 0
5.702843 0.001163 0
5.702810 0.001959 0
5.702762 0.003289 0
5.702685 0.005512 0
5.702561 0.009224 0
5.702352 0.015408 0
5.701991 0.025692 0
5.701348 0.042760 0
5.700152 0.071038 0
5.697794 0.117751 0
5.692732 0.194725 0
5.681127 0.320578 0
5.652203 0.522522 0
5.581216 0.834489 0
5.415239 1.255141 0
5.121706 1.739467 0
4.809359 2.135723 0
4.299702 2.185195 0
3.286269 1.733722 0
1.255689 0.688687 0
0.000014 0.000000 0
-0.001466 0.000000 0
0.000000 0.000000 0
0.000000 0.000000 0
0.000000 0.000000 0
0.000000 0.000000 0
0.000000 0.000000 0
0.000000 0.000000 0
0.000000 0.000000 0
0.000000 0.000000 0
0.000000 0.000000 0
0.000000 0.000000 0
0.000000 0.000000 0
0.000000 0.000000 0
0.000000 0.000000 0
0.000000 0.000000 0
0.000000 0.000000 0
0.000000 0.000000 0
0.000000 0.000000 0
0.000000 0.000000 0
0.000000 0.000000 0
0.000000 0.000000 0
0.000000 0.000000 0
0.000000 0.000000 0
0.000000 0.000000 0
0.000000 0.000000 0
0.000000 0.000000 0
0.000000 0.000000 0
0.000000 0.000000 0
0.000000 0.000000 0
0.851729 -0.484594 0
2.255980 -1.267052 0
2.989336 -1.790049 0
3.506377 -2.257836 0
3.949276 -2.514881 0
4.573435 -3.110243 0
6.051202 -3.187113 0
6.450526 -2.088395 0
6.433841 -1.012146 0
6.312571 -0.196192 0
6.142842 0.323341 0
5.983598 0.571126 0
5.863398 0.618015 0
5.782459 0.547645 0
5.732071 0.426920 0
5.703771 0.300102 0
5.690467 0.191677 0
5.686086 0.111129 0
5.685976 0.057995 0
5.687231 0.026693 0
5.688415 0.010301 0
5.689101 0.002810 0
5.689326 -0.000024 0
5.689290 -0.000756 0
5.689161 -0.000711 0
5.689030 -0.000472 0
5.688930 -0.000245 0
5.688866 -0.000071 0
5.688833 0.000068 0
5.688826 0.000207 0
5.688847 0.000390 0
5.688900 0.000673 0
5.689002 0.001136 0
5.689182 0.001910 0
5.689489 0.003204 0
5.690007 0.005369 0
5.690874 0.008985 0
5.692313 0.015015 0
5.694691 0.025054 0
5.698593 0.041748 0
5.704936 0.069492 0
5.715068 0.115592 0
5.730693 0.192332 0
5.753100 0.320251 0
5.778443 0.531968 0
5.786535 0.874610 0
5.696042 1.352361 0
5.435210 1.877286 0
5.134165 2.310069 0
4.751595 2.478045 0
4.099216 2.250778 0
3.012419 1.638087 0
1.128491 0.622954 0
0.000009 0.000000 0
-0.000727 0.000000 0
0.000000 0.000000 0
0.000000 0.000000 0
0.000000 0.000000 0
0.000000 0.000000 0
0.000000 0.000000 0
0.000000 0.000000 0
0.000000 0.000000 0
0.000000 0.000000 0
0.000000 0.000000 0
0.000000 0.000000 0
0.000000 0.000000 0
0.000000 0.000000 0
0.000000 0.000000 0
0.000000 0.000000 0
0.000000 0.000000 0
0.000000 0.000000 0
0.000000 0.000000 0
0.000000 0.000000 0
0.000000 0.000000 0
0.000000 0.000000 0
0.000000 0.000000 0
0.000000 0.000000 0
0.000000 0.000000 0
0.000000 0.000000 0
0.000000 0.000000 0
0.000000 0.000000 0
0.750211 -0.423487 0
2.016730 -1.122347 0
2.710588 -1.616854 0
3.152425 -2.028503 0
3.493424 -2.453648 0
3.810904 -2.773738 0
4.510547 -3.657892 0
6.014237 -3.615767 0
5.834669 -2.088978 0
5.426833 -0.915900 0
5.128015 -0.098946 0
4.955905 0.403266 0
4.922159 0.619167 0
4.986457 0.636491 0
5.099662 0.546342 0
5.225106 0.415119 0
5.340263 0.284536 0
5.433278 0.176738 0
5.500346 0.099180 0
5.543650 0.049702 0
5.568731 0.021629 0
5.581679 0.007584 0
5.587484 0.001559 0
5.589665 -0.000482 0
5.590258 -0.000855 0
5.590271 -0.000682 0
5.590137 -0.000417 0
5.590013 -0.000199 0
5.589936 -0.000044 0
5.589907 0.000076 0
5.589923 0.000197 0
5.589991 0.000358 0
5.590129 0.000609 0
5.590374 0.001024 0
5.590792 0.001718 0
5.591499 0.002881 0
5.592684 0.004827 0
5.594664 0.008082 0
5.597962 0.013518 0
5.603442 0.022582 0
5.612516 0.037685 0
5.627487 0.062877 0
5.652046 0.104990 0
5.691851 0.175884 0
5.755305 0.296923 0
5.848610 0.505958 0
5.969028 0.875312 0
5.977203 1.429194 0
5.712513 2.017831 0
5.372731 2.474398 0
5.012274 2.697927 0
4.530649 2.595339 0
3.802551 2.165299 0
2.744245 1.497213 0
1.040802 0.559019 0
0.000004 0.000000 0
-0.000751 0.000000 0
0.000000 0.000000 0
0.000000 0.000000 0
0.000000 0.000000 0
0.000000 0.000000 0
0.000000 0.000000 0
0.000000 0.000000 0
0.000000 0.000000 0
0.000000 0.000000 0
0.000000 0.000000 0
0.000000 0.000000 0
0.000000 0.000000 0
0.000000 0.000000 0
0.000000 0.000000 0
0.000000 0.000000 0
0.000000 0.000000 0
0.000000 0.000000 0
0.000000 0.000000 0
0.000000 0.000000 0
0.000000 0.000000 0
0.000000 0.000000 0
0.000000 0.000000 0
0.000000 0.000000 0
0.000000 0.000000 0
0.000000 0.000000 0
0.663600 -0.371659 0
1.820398 -1.000639 0
2.495828 -1.457322 0
2.917206 -1.829693 0
3.179196 -2.177878 0
3.380488 -2.584056 0
3.580407 -3.018780 0
4.263880 -4.201811 0
5.532486 -3.843104 0
4.431940 -1.797384 0
3.574043 -0.662057 0
3.098807 0.037114 0
3.091769 0.425326 0
3.358574 0.555991 0
3.731989 0.530078 0
4.110512 0.429415 0
4.440472 0.307723 0
4.698670 0.196971 0
4.881698 0.112370 0
4.998963 0.056449 0
5.066172 0.024116 0
5.100277 0.007853 0
5.115600 0.001012 0
5.121466 -0.001146 0
5.123162 -0.001398 0
5.123315 -0.001056 0
5.123053 -0.000651 0
5.122784 -0.000344 0
5.122610 -0.000144 0
5.122532 -0.000017 0
5.122525 0.000075 0
5.122586 0.000165 0
5.122726 0.000288 0
5.122980 0.000484 0
5.123414 0.000808 0
5.124145 0.001353 0
5.125373 0.002268 0
5.127429 0.003802 0
5.130872 0.006370 0
5.136626 0.010666 0
5.146228 0.017845 0
5.162224 0.029836 0
5.188813 0.049909 0
5.233026 0.083705 0
5.305948 0.141176 0
5.427926 0.242590 0
5.620299 0.426086 0
5.944804 0.810903 0
6.192315 1.479443 0
5.947198 2.176752 0
5.557765 2.656980 0
5.160797 2.895227 0
4.747422 2.850096 0
4.222452 2.523102 0
3.510397 1.993290 0
2.551703 1.361202 0
1.000371 0.515169 0
-0.000006 0.000000 0
-0.001254 0.000000 0
0.000000 0.000000 0
0.000000 0.000000 0
0.000000 0.000000 0
0.000000 0.000000 0
0.000000 0.000000 0
0.000000 0.000000 0
0.000000 0.000000 0
0.000000 0.000000 0
0.000000 0.000000 0
0.000000 0.000000 0
0.000000 0.000000 0
0.000000 0.000000 0
0.000000 0.000000 0
0.000000 0.000000 0
0.000000 0.000000 0
0.000000 0.000000 0
0.000000 0.000000 0
0.000000 0.000000 0
0.000000 0.000000 0
0.000000 0.000000 0
0.000000 0.000000 0
0.000000 0.000000 0
0.590631 -0.327371 0
1.660657 -0.900459 0
2.335595 -1.331194 0
2.760669 -1.665723 0
3.007473 -1.955405 0
3.134932 -2.258020 0
3.209041 -2.652414 0
3.275921 -3.211384 0
3.742734 -4.624983 0
4.312725 -3.699026 0
2.042148 -1.118732 0
0.942387 -0.255443 0
0.705785 0.139982 0
1.017304 0.274574 0
1.564308 0.301993 0
2.139575 0.263969 0
2.634274 0.195348 0
3.006352 0.123736 0
3.255414 0.065946 0
3.403939 0.027969 0
3.482235 0.007790 0
3.517884 -0.000489 0
3.530915 -0.002858 0
3.533737 -0.002912 0
3.532958 -0.002187 0
3.531426 -0.001398 0
3.530138 -0.000801 0
3.529296 -0.000418 0
3.528826 -0.000197 0
3.528603 -0.000074 0
3.528535 -0.000001 0
3.528569 0.000050 0
3.528688 0.000098 0
3.528905 0.000163 0
3.529271 0.000269 0
3.529882 0.000448 0
3.530904 0.000748 0
3.532615 0.001254 0
3.535482 0.002103 0
3.540289 0.003527 0
3.548342 0.005911 0
3.561820 0.009901 0
3.584363 0.016588 0
3.622046 0.027801 0
3.685106 0.046960 0
3.791006 0.079328 0
3.970072 0.141189 0
4.280676 0.249889 0
4.830129 0.591926 0
5.868001 1.428008 0
5.918535 2.332198 0
5.642444 2.863994 0
5.239961 3.099384 0
4.844139 3.060211 0
4.432302 2.778142 0
3.935174 2.324931 0
3.301616 1.803159 0
2.465945 1.264572 0
1.011203 0.495385 0
-0.000012 0.000000 0
-0.002280 0.000000 0
0.000000 0.000000 0
0.000000 0.000000 0
0.000000 0.000000 0
0.000000 0.000000 0
0.000000 0.000000 0
0.000000 0.000000 0
0.000000 0.000000 0
0.000000 0.000000 0
0.000000 0.000000 0
0.000000 0.000000 0
0.000000 0.000000 0
0.000000 0.000000 0
0.000000 0.000000 0
0.000000 0.000000 0
0.000000 0.000000 0
0.000000 0.000000 0
0.000000 0.000000 0
0.000000 0.000000 0
0.000000 0.000000 0
0.000000 0.000000 0
0.540919 -0.289975 0
1.545750 -0.818696 0
2.231930 -1.234755 0
2.673103 -1.545602 0
2.927068 -1.790181 0
3.040807 -2.015108 0
3.056137 -2.277737 0
3.009550 -2.653904 0
2.917700 -3.283179 0
2.922430 -4.715460 0
1.763279 -2.872943 0
-0.000898 0.000000 0
-0.000828 0.000000 0
-0.002824 0.000000 0
-0.005814 0.000000 0
-0.007519 0.000000 0
-0.007797 0.000000 0
-0.006974 0.000000 0
-0.005637 0.000000 0
-0.004351 0.000000 0
-0.003448 0.000000 0
-0.002977 0.000000 0
-0.002814 0.000000 0
-0.002789 0.000000 0
-0.002824 0.000000 0
-0.002873 0.000000 0
-0.002912 0.000000 0
-0.002939 0.000000 0
-0.002953 0.000000 0
-0.002961 0.000000 0
-0.002964 0.000000 0
-0.002965 0.000000 0
-0.002965 0.000000 0
-0.002964 0.000000 0
-0.002963 0.000000 0
-0.002961 0.000000 0
-0.002958 0.000000 0
-0.002953 0.000000 0
-0.002946 0.000000 0
-0.002935 0.000000 0
-0.002919 0.000000 0
-0.002894 0.000000 0
-0.002857 0.000000 0
-0.002804 0.000000 0
-0.002730 0.000000 0
-0.002632 0.000000 0
-0.002514 0.000000 0
-0.002384 0.000000 0
-0.002358 0.000000 0
-0.002469 0.000000 0
2.735610 0.915712 0
4.756944 2.288497 0
5.186190 2.993157 0
5.061145 3.290721 0
4.785666 3.250224 0
4.484534 2.973418 0
4.146294 2.553451 0
3.732799 2.089083 0
3.210442 1.650395 0
2.488794 1.222352 0
1.065674 0.501133 0
-0.000017 0.000000 0
-0.003865 0.000000 0
0.000000 0.000000 0
0.000000 0.000000 0
0.000000 0.000000 0
0.000000 0.000000 0
0.000000 0.000000 0
0.000000 0.000000 0
0.000000 0.000000 0
0.000000 0.000000 0
0.000000 0.000000 0
0.000000 0.000000 0
0.000000 0.000000 0
0.000000 0.000000 0
0.000000 0.000000 0
0.000000 0.000000 0
0.000000 0.000000 0
0.000000 0.000000 0
0.000000 0.000000 0
0.000000 0.000000 0
0.540429 -0.264320 0
1.513575 -0.759496 0
2.217325 -1.162492 0
2.672000 -1.458968 0
2.932609 -1.675576 0
3.045353 -1.847889 0
3.047311 -2.019347 0
2.964894 -2.242534 0
2.807832 -2.583829 0
2.553641 -3.168222 0
2.082135 -4.070877 0
0.037676 -0.000606 0
-0.292484 2.298726 0
0.263659 0.000000 0
0.221203 0.000000 0
-0.023882 0.000000 0
-0.337721 0.000000 0
-0.635439 0.000000 0
-0.869999 0.000000 0
-1.027590 0.000000 0
-1.117139 0.000000 0
-1.158514 0.000000 0
-1.172220 0.000000 0
-1.173604 0.000000 0
-1.171046 0.000000 0
-1.167846 0.000000 0
-1.165252 0.000000 0
-1.163520 0.000000 0
-1.162497 0.000000 0
-1.161946 0.000000 0
-1.161676 0.000000 0
-1.161561 0.000000 0
-1.161532 0.000000 0
-1.161561 0.000000 0
-1.161633 0.000000 0
-1.161757 0.000000 0
-1.161960 0.000000 0
-1.162296 0.000000 0
-1.162857 0.000000 0
-1.163795 0.000000 0
-1.165370 0.000000 0
-1.168014 0.000000 0
-1.172448 0.000000 0
-1.179883 0.000000 0
-1.192343 0.000000 0
-1.213240 0.000000 0
-1.248287 0.000000 0
-1.307814 0.000000 0
-1.408164 0.000000 0
-1.592649 0.000000 0
-1.912651 -0.003423 0
0.000000 -0.004247 0
3.023368 1.124157 0
4.161553 2.713288 0
4.488216 3.297811 0
4.479034 3.345874 0
4.356549 3.094898 0
4.181181 2.697353 0
3.948710 2.266796 0
3.645200 1.880873 0
3.234917 1.559090 0
2.604517 1.234965 0
1.157836 0.528776 0
-0.000018 0.000000 0
-0.006256 0.000000 0
0.000000 0.000000 0
0.000000 0.000000 0
0.000000 0.000000 0
0.000000 0.000000 0
0.000000 0.000000 0
0.000000 0.000000 0
0.000000 0.000000 0
0.000000 0.000000 0
0.000000 0.000000 0
0.000000 0.000000 0
0.000000 0.000000 0