# vtk DataFile Version 2.0
generated by CFD-lab course output (written by Tobias Neckel) 
ASCII

DATASET STRUCTURED_GRID
DIMENSIONS  82 60 1 
POINTS 4920 float

-1.500000 -0.500000 0
-1.402439 -0.500000 0
-1.304878 -0.500000 0
-1.207317 -0.500000 0
-1.109756 -0.500000 0
-1.012195 -0.500000 0
-0.914634 -0.500000 0
-0.817073 -0.500000 0
-0.719512 -0.500000 0
-0.621951 -0.500000 0
-0.524390 -0.500000 0
-0.426829 -0.500000 0
-0.329268 -0.500000 0
-0.231707 -0.500000 0
-0.134146 -0.500000 0
-0.036585 -0.500000 0
0.060976 -0.500000 0
0.158537 -0.500000 0
0.256098 -0.500000 0
0.353659 -0.500000 0
0.451220 -0.500000 0
0.548780 -0.500000 0
0.646341 -0.500000 0
0.743902 -0.500000 0
0.841463 -0.500000 0
0.939024 -0.500000 0
1.036585 -0.500000 0
1.134146 -0.500000 0
1.231707 -0.500000 0
1.329268 -0.500000 0
1.426829 -0.500000 0
1.524390 -0.500000 0
1.621951 -0.500000 0
1.719512 -0.500000 0
1.817073 -0.500000 0
1.914634 -0.500000 0
2.012195 -0.500000 0
2.109756 -0.500000 0
2.207317 -0.500000 0
2.304878 -0.500000 0
2.402439 -0.500000 0
2.500000 -0.500000 0
2.597561 -0.500000 0
2.695122 -0.500000 0
2.792683 -0.500000 0
2.890244 -0.500000 0
2.987805 -0.500000 0
3.085366 -0.500000 0
3.182927 -0.500000 0
3.280488 -0.500000 0
3.378049 -0.500000 0
3.475610 -0.500000 0
3.573171 -0.500000 0
3.670732 -0.500000 0
3.768293 -0.500000 0
3.865854 -0.500000 0
3.963415 -0.500000 0
4.060976 -0.500000 0
4.158537 -0.500000 0
4.256098 -0.500000 0
4.353659 -0.500000 0
4.451220 -0.500000 0
4.548780 -0.500000 0
4.646341 -0.500000 0
4.743902 -0.500000 0
4.841463 -0.500000 0
4.939024 -0.500000 0
5.036585 -0.500000 0
5.134146 -0.500000 0
5.231707 -0.500000 0
5.329268 -0.500000 0
5.426829 -0.500000 0
5.524390 -0.500000 0
5.621951 -0.500000 0
5.719512 -0.500000 0
5.817073 -0.500000 0
5.914634 -0.500000 0
6.012195 -0.500000 0
6.109756 -0.500000 0
6.207317 -0.500000 0
6.304878 -0.500000 0
6.402439 -0.500000 0
-1.500000 -0.451667 0
-1.402439 -0.451667 0
-1.304878 -0.451667 0
-1.207317 -0.451667 0
-1.109756 -0.451667 0
-1.012195 -0.451667 0
-0.914634 -0.451667 0
-0.817073 -0.451667 0
-0.719512 -0.451667 0
-0.621951 -0.451667 0
-0.524390 -0.451667 0
-0.426829 -0.451667 0
-0.329268 -0.451667 0
-0.231707 -0.451667 0
-0.134146 -0.451667 0
-0.036585 -0.451667 0
0.060976 -0.451667 0
0.158537 -0.451667 0
0.256098 -0.451667 0
0.353659 -0.451667 0
0.451220 -0.451667 0
0.548780 -0.451667 0
0.646341 -0.451667 0
0.743902 -0.451667 0
0.841463 -0.451667 0
0.939024 -0.451667 0
1.036585 -0.451667 0
1.134146 -0.451667 0
1.231707 -0.451667 0
1.329268 -0.451667 0
1.426829 -0.451667 0
1.524390 -0.451667 0
1.621951 -0.451667 0
1.719512 -0.451667 0
1.817073 -0.451667 0
1.914634 -0.451667 0
2.012195 -0.451667 0
2.109756 -0.451667 0
2.207317 -0.451667 0
2.304878 -0.451667 0
2.402439 -0.451667 0
2.500000 -0.451667 0
2.597561 -0.451667 0
2.695122 -0.451667 0
2.792683 -0.451667 0
2.890244 -0.451667 0
2.987805 -0.451667 0
3.085366 -0.451667 0
3.182927 -0.451667 0
3.280488 -0.451667 0
3.378049 -0.451667 0
3.475610 -0.451667 0
3.573171 -0.451667 0
3.670732 -0.451667 0
3.768293 -0.451667 0
3.865854 -0.451667 0
3.963415 -0.451667 0
4.060976 -0.451667 0
4.158537 -0.451667 0
4.256098 -0.451667 0
4.353659 -0.451667 0
4.451220 -0.451667 0
4.548780 -0.451667 0
4.646341 -0.451667 0
4.743902 -0.451667 0
4.841463 -0.451667 0
4.939024 -0.451667 0
5.036585 -0.451667 0
5.134146 -0.451667 0
5.231707 -0.451667 0
5.329268 -0.451667 0
5.426829 -0.451667 0
5.524390 -0.451667 0
5.621951 -0.451667 0
5.719512 -0.451667 0
5.817073 -0.451667 0
5.914634 -0.451667 0
6.012195 -0.451667 0
6.109756 -0.451667 0
6.207317 -0.451667 0
6.304878 -0.451667 0
6.402439 -0.451667 0
-1.500000 -0.403333 0
-1.402439 -0.403333 0
-1.304878 -0.403333 0
-1.207317 -0.403333 0
-1.109756 -0.403333 0
-1.012195 -0.403333 0
-0.914634 -0.403333 0
-0.817073 -0.403333 0
-0.719512 -0.403333 0
-0.621951 -0.403333 0
-0.524390 -0.403333 0
-0.426829 -0.403333 0
-0.329268 -0.403333 0
-0.231707 -0.403333 0
-0.134146 -0.403333 0
-0.036585 -0.403333 0
0.060976 -0.403333 0
0.158537 -0.403333 0
0.256098 -0.403333 0
0.353659 -0.403333 0
0.451220 -0.403333 0
0.548780 -0.403333 0
0.646341 -0.403333 0
0.743902 -0.403333 0
0.841463 -0.403333 0
0.939024 -0.403333 0
1.036585 -0.403333 0
1.134146 -0.403333 0
1.231707 -0.403333 0
1.329268 -0.403333 0
1.426829 -0.403333 0
1.524390 -0.403333 0
1.621951 -0.403333 0
1.719512 -0.403333 0
1.817073 -0.403333 0
1.914634 -0.403333 0
2.012195 -0.403333 0
2.109756 -0.403333 0
2.207317 -0.403333 0
2.304878 -0.403333 0
2.402439 -0.403333 0
2.500000 -0.403333 0
2.597561 -0.403333 0
2.695122 -0.403333 0
2.792683 -0.403333 0
2.890244 -0.403333 0
2.987805 -0.403333 0
3.085366 -0.403333 0
3.182927 -0.403333 0
3.280488 -0.403333 0
3.378049 -0.403333 0
3.475610 -0.403333 0
3.573171 -0.403333 0
3.670732 -0.403333 0
3.768293 -0.403333 0
3.865854 -0.403333 0
3.963415 -0.403333 0
4.060976 -0.403333 0
4.158537 -0.403333 0
4.256098 -0.403333 0
4.353659 -0.403333 0
4.451220 -0.403333 0
4.548780 -0.403333 0
4.646341 -0.403333 0
4.743902 -0.403333 0
4.841463 -0.403333 0
4.939024 -0.403333 0
5.036585 -0.403333 0
5.134146 -0.403333 0
5.231707 -0.403333 0
5.329268 -0.403333 0
5.426829 -0.403333 0
5.524390 -0.403333 0
5.621951 -0.403333 0
5.719512 -0.403333 0
5.817073 -0.403333 0
5.914634 -0.403333 0
6.012195 -0.403333 0
6.109756 -0.403333 0
6.207317 -0.403333 0
6.304878 -0.403333 0
6.402439 -0.403333 0
-1.500000 -0.355000 0
-1.402439 -0.355000 0
-1.304878 -0.355000 0
-1.207317 -0.355000 0
-1.109756 -0.355000 0
-1.012195 -0.355000 0
-0.914634 -0.355000 0
-0.817073 -0.355000 0
-0.719512 -0.355000 0
-0.621951 -0.355000 0
-0.524390 -0.355000 0
-0.426829 -0.355000 0
-0.329268 -0.355000 0
-0.231707 -0.355000 0
-0.134146 -0.355000 0
-0.036585 -0.355000 0
0.060976 -0.355000 0
0.158537 -0.355000 0
0.256098 -0.355000 0
0.353659 -0.355000 0
0.451220 -0.355000 0
0.548780 -0.355000 0
0.646341 -0.355000 0
0.743902 -0.355000 0
0.841463 -0.355000 0
0.939024 -0.355000 0
1.036585 -0.355000 0
1.134146 -0.355000 0
1.231707 -0.355000 0
1.329268 -0.355000 0
1.426829 -0.355000 0
1.524390 -0.355000 0
1.621951 -0.355000 0
1.719512 -0.355000 0
1.817073 -0.355000 0
1.914634 -0.355000 0
2.012195 -0.355000 0
2.109756 -0.355000 0
2.207317 -0.355000 0
2.304878 -0.355000 0
2.402439 -0.355000 0
2.500000 -0.355000 0
2.597561 -0.355000 0
2.695122 -0.355000 0
2.792683 -0.355000 0
2.890244 -0.355000 0
2.987805 -0.355000 0
3.085366 -0.355000 0
3.182927 -0.355000 0
3.280488 -0.355000 0
3.378049 -0.355000 0
3.475610 -0.355000 0
3.573171 -0.355000 0
3.670732 -0.355000 0
3.768293 -0.355000 0
3.865854 -0.355000 0
3.963415 -0.355000 0
4.060976 -0.355000 0
4.158537 -0.355000 0
4.256098 -0.355000 0
4.353659 -0.355000 0
4.451220 -0.355000 0
4.548780 -0.355000 0
4.646341 -0.355000 0
4.743902 -0.355000 0
4.841463 -0.355000 0
4.939024 -0.355000 0
5.036585 -0.355000 0
5.134146 -0.355000 0
5.231707 -0.355000 0
5.329268 -0.355000 0
5.426829 -0.355000 0
5.524390 -0.355000 0
5.621951 -0.355000 0
5.719512 -0.355000 0
5.817073 -0.355000 0
5.914634 -0.355000 0
6.012195 -0.355000 0
6.109756 -0.355000 0
6.207317 -0.355000 0
6.304878 -0.355000 0
6.402439 -0.355000 0
-1.500000 -0.306667 0
-1.402439 -0.306667 0
-1.304878 -0.306667 0
-1.207317 -0.306667 0
-1.109756 -0.306667 0
-1.012195 -0.306667 0
-0.914634 -0.306667 0
-0.817073 -0.306667 0
-0.719512 -0.306667 0
-0.621951 -0.306667 0
-0.524390 -0.306667 0
-0.426829 -0.306667 0
-0.329268 -0.306667 0
-0.231707 -0.306667 0
-0.134146 -0.306667 0
-0.036585 -0.306667 0
0.060976 -0.306667 0
0.158537 -0.306667 0
0.256098 -0.306667 0
0.353659 -0.306667 0
0.451220 -0.306667 0
0.548780 -0.306667 0
0.646341 -0.306667 0
0.743902 -0.306667 0
0.841463 -0.306667 0
0.939024 -0.306667 0
1.036585 -0.306667 0
1.134146 -0.306667 0
1.231707 -0.306667 0
1.329268 -0.306667 0
1.426829 -0.306667 0
1.524390 -0.306667 0
1.621951 -0.306667 0
1.719512 -0.306667 0
1.817073 -0.306667 0
1.914634 -0.306667 0
2.012195 -0.306667 0
2.109756 -0.306667 0
2.207317 -0.306667 0
2.304878 -0.306667 0
2.402439 -0.306667 0
2.500000 -0.306667 0
2.597561 -0.306667 0
2.695122 -0.306667 0
2.792683 -0.306667 0
2.890244 -0.306667 0
2.987805 -0.306667 0
3.085366 -0.306667 0
3.182927 -0.306667 0
3.280488 -0.306667 0
3.378049 -0.306667 0
3.475610 -0.306667 0
3.573171 -0.306667 0
3.670732 -0.306667 0
3.768293 -0.306667 0
3.865854 -0.306667 0
3.963415 -0.306667 0
4.060976 -0.306667 0
4.158537 -0.306667 0
4.256098 -0.306667 0
4.353659 -0.306667 0
4.451220 -0.306667 0
4.548780 -0.306667 0
4.646341 -0.306667 0
4.743902 -0.306667 0
4.841463 -0.306667 0
4.939024 -0.306667 0
5.036585 -0.306667 0
5.134146 -0.306667 0
5.231707 -0.306667 0
5.329268 -0.306667 0
5.426829 -0.306667 0
5.524390 -0.306667 0
5.621951 -0.306667 0
5.719512 -0.306667 0
5.817073 -0.306667 0
5.914634 -0.306667 0
6.012195 -0.306667 0
6.109756 -0.306667 0
6.207317 -0.306667 0
6.304878 -0.306667 0
6.402439 -0.306667 0
-1.500000 -0.258333 0
-1.402439 -0.258333 0
-1.304878 -0.258333 0
-1.207317 -0.258333 0
-1.109756 -0.258333 0
-1.012195 -0.258333 0
-0.914634 -0.258333 0
-0.817073 -0.258333 0
-0.719512 -0.258333 0
-0.621951 -0.258333 0
-0.524390 -0.258333 0
-0.426829 -0.258333 0
-0.329268 -0.258333 0
-0.231707 -0.258333 0
-0.134146 -0.258333 0
-0.036585 -0.258333 0
0.060976 -0.258333 0
0.158537 -0.258333 0
0.256098 -0.258333 0
0.353659 -0.258333 0
0.451220 -0.258333 0
0.548780 -0.258333 0
0.646341 -0.258333 0
0.743902 -0.258333 0
0.841463 -0.258333 0
0.939024 -0.258333 0
1.036585 -0.258333 0
1.134146 -0.258333 0
1.231707 -0.258333 0
1.329268 -0.258333 0
1.426829 -0.258333 0
1.524390 -0.258333 0
1.621951 -0.258333 0
1.719512 -0.258333 0
1.817073 -0.258333 0
1.914634 -0.258333 0
2.012195 -0.258333 0
2.109756 -0.258333 0
2.207317 -0.258333 0
2.304878 -0.258333 0
2.402439 -0.258333 0
2.500000 -0.258333 0
2.597561 -0.258333 0
2.695122 -0.258333 0
2.792683 -0.258333 0
2.890244 -0.258333 0
2.987805 -0.258333 0
3.085366 -0.258333 0
3.182927 -0.258333 0
3.280488 -0.258333 0
3.378049 -0.258333 0
3.475610 -0.258333 0
3.573171 -0.258333 0
[...]
POINT_DATA 4920 

VECTORS velocity float
0.000000 0.000000 0
0.000000 0.000000 0
0.000000 0.000000 0
0.000000 0.000000 0
0.000000 0.000000 0
0.000000 0.000000 0
0.000000 0.000000 0
0.000000 0.000000 0
0.000000 0.000000 0
0.000000 0.000000 0
0.000000 0.000000 0
0.000000 0.000000 0
0.000000 0.000000 0
0.000000 0.000000 0
0.000000 0.000000 0
0.000000 0.000000 0
0.000000 0.000000 0
0.000000 0.000000 0
0.000000 0.000000 0
0.000000 0.000000 0
0.000000 0.000000 0
0.000000 0.000000 0
0.000000 0.000000 0
0.000000 0.000000 0
0.000000 0.000000 0
0.000000 0.000000 0
0.000000 0.000000 0
0.000000 0.000000 0
0.000000 0.000000 0
0.000000 0.000000 0
0.000000 0.000000 0
0.000000 0.000000 0
0.000000 0.000000 0
0.000000 0.000000 0
0.000000 0.000000 0
0.000000 0.000000 0
0.000000 0.000000 0
0.000000 0.000000 0
0.000000 0.000000 0
0.000000 0.000000 0
0.000000 0.000000 0
0.000000 0.000000 0
0.000000 0.000000 0
0.000000 0.000000 0
0.000000 0.000000 0
0.000000 0.000000 0
0.000000 0.000000 0
0.000000 0.000000 0
0.000000 0.000000 0
0.000000 0.000000 0
0.000000 0.000000 0
0.000000 0.000000 0
0.000000 0.000000 0
0.000000 0.000000 0
0.000000 0.000000 0
0.000000 0.000000 0
-0.000000 0.000000 0
0.001915 0.000000 0
0.000000 0.000000 0
0.000000 0.000000 0
0.000000 0.000000 0
0.000000 0.000000 0
0.000000 0.000000 0
0.000000 0.000000 0
0.000000 0.000000 0
0.000000 0.000000 0
0.000000 0.000000 0
0.000000 0.000000 0
0.000000 0.000000 0
0.000000 0.000000 0
0.000000 0.000000 0
0.000000 0.000000 0
0.000000 0.000000 0
0.000000 0.000000 0
0.000000 0.000000 0
0.000000 0.000000 0
0.000000 0.000000 0
0.000000 0.000000 0
0.000000 0.000000 0
0.000000 0.000000 0
0.000000 0.000000 0
0.000000 0.000000 0
0.000000 0.000000 0
0.000000 0.000000 0
0.000000 0.000000 0
0.000000 0.000000 0
0.000000 0.000000 0
0.000000 0.000000 0
0.000000 0.000000 0
0.000000 0.000000 0
0.000000 0.000000 0
0.000000 0.000000 0
0.000000 0.000000 0
0.000000 0.000000 0
0.000000 0.000000 0
0.000000 0.000000 0
1.046408 -0.422535 0
2.518329 -0.738215 0
3.779810 -0.505140 0
4.622818 -0.265394 0
5.056264 -0.070114 0
5.167217 0.061936 0
5.063324 0.139738 0
4.829843 0.177741 0
4.530910 0.186507 0
4.213406 0.175010 0
3.909621 0.151123 0
3.639334 0.121587 0
3.411981 0.091702 0
3.229150 0.065051 0
3.087248 0.043477 0
2.979954 0.027389 0
2.900127 0.016254 0
2.841024 0.009092 0
2.796920 0.004849 0
2.763290 0.002598 0
2.736742 0.001619 0
2.714841 0.001398 0
2.695890 0.001592 0
2.678732 0.001994 0
2.662573 0.002492 0
2.646836 0.003042 0
2.631046 0.003653 0
2.614732 0.004369 0
2.597337 0.005267 0
2.578133 0.006459 0
2.556121 0.008094 0
2.529910 0.010375 0
2.497563 0.013567 0
2.456392 0.018021 0
2.402693 0.024184 0
2.331415 0.032601 0
2.235794 0.043877 0
2.107001 0.058492 0
1.934190 0.076507 0
1.704937 0.096431 0
1.409405 0.115115 0
1.038713 0.130706 0
0.616650 0.068853 0
0.000000 0.000000 0
-0.001573 0.000000 0
0.000000 0.000000 0
0.000000 0.000000 0
0.000000 0.000000 0
0.000000 0.000000 0
0.000000 0.000000 0
0.000000 0.000000 0
0.000000 0.000000 0
0.000000 0.000000 0
0.000000 0.000000 0
0.000000 0.000000 0
0.000000 0.000000 0
0.000000 0.000000 0
0.000000 0.000000 0
0.000000 0.000000 0
0.000000 0.000000 0
0.000000 0.000000 0
0.000000 0.000000 0
0.000000 0.000000 0
0.000000 0.000000 0
0.000000 0.000000 0
0.000000 0.000000 0
0.000000 0.000000 0
0.000000 0.000000 0
0.000000 0.000000 0
0.000000 0.000000 0
0.000000 0.000000 0
0.000000 0.000000 0
0.000000 0.000000 0
0.000000 0.000000 0
0.000000 0.000000 0
0.000000 0.000000 0
0.000000 0.000000 0
0.000000 0.000000 0
0.000000 0.000000 0
0.000000 0.000000 0
0.000000 0.000000 0
1.159621 -0.517002 0
2.653778 -1.246010 0
3.828618 -1.353966 0
5.002584 -1.042599 0
5.863965 -0.632377 0
6.391011 -0.269705 0
6.647148 -0.003498 0
6.706884 0.167141 0
6.638360 0.263767 0
6.491087 0.305393 0
6.301242 0.307797 0
6.094881 0.284405 0
5.890117 0.246539 0
5.698728 0.203212 0
5.527452 0.160878 0
5.379130 0.123456 0
5.253777 0.092703 0
5.149556 0.068828 0
5.063627 0.051130 0
4.992808 0.038511 0
4.934020 0.029813 0
4.884544 0.024003 0
4.842119 0.020239 0
4.804947 0.017889 0
4.771625 0.016506 0
4.741067 0.015802 0
4.712399 0.015619 0
4.684875 0.015905 0
4.657776 0.016700 0
4.630325 0.018132 0
4.601586 0.020419 0
4.570346 0.023891 0
4.534977 0.029010 0
4.493240 0.036422 0
4.442034 0.047000 0
4.377043 0.061916 0
4.292266 0.082685 0
4.179379 0.111178 0
4.026936 0.149419 0
3.819451 0.199189 0
3.536750 0.259988 0
3.154574 0.330059 0
2.647218 0.392235 0
2.014822 0.512287 0
1.050700 0.303699 0
0.000000 0.000000 0
-0.004731 0.000000 0
0.000000 0.000000 0
0.000000 0.000000 0
0.000000 0.000000 0
0.000000 0.000000 0
0.000000 0.000000 0
0.000000 0.000000 0
0.000000 0.000000 0
0.000000 0.000000 0
0.000000 0.000000 0
0.000000 0.000000 0
0.000000 0.000000 0
0.000000 0.000000 0
0.000000 0.000000 0
0.000000 0.000000 0
0.000000 0.000000 0
0.000000 0.000000 0
0.000000 0.000000 0
0.000000 0.000000 0
0.000000 0.000000 0
0.000000 0.000000 0
0.000000 0.000000 0
0.000000 0.000000 0
0.000000 0.000000 0
0.000000 0.000000 0
0.000000 0.000000 0
0.000000 0.000000 0
0.000000 0.000000 0
0.000000 0.000000 0
0.000000 0.000000 0
0.000000 0.000000 0
0.000000 0.000000 0
0.000000 0.000000 0
0.000000 0.000000 0
0.000000 0.000000 0
0.936104 -0.582541 0
2.634598 -1.321366 0
3.462320 -1.743394 0
4.644974 -1.901853 0
5.708360 -1.513486 0
6.431452 -0.953244 0
6.856290 -0.458116 0
7.079472 -0.094553 0
7.167578 0.144091 0
7.169439 0.284651 0
7.118251 0.353521 0
7.036239 0.371296 0
6.938262 0.354801 0
6.834414 0.317848 0
6.731654 0.271373 0
6.634670 0.223385 0
6.546314 0.179060 0
6.467901 0.141124 0
6.399535 0.110457 0
6.340483 0.086747 0
6.289547 0.069058 0
6.245358 0.056234 0
6.206590 0.047149 0
6.172066 0.040832 0
6.140806 0.036516 0
6.112015 0.033642 0
6.085050 0.031833 0
6.059372 0.030881 0
6.034490 0.030714 0
6.009907 0.031394 0
5.985055 0.033105 0
5.959226 0.036174 0
5.931478 0.041094 0
5.900522 0.048575 0
5.864563 0.059613 0
5.821073 0.075586 0
5.766464 0.098381 0
5.695623 0.130528 0
5.601199 0.175326 0
5.472576 0.236806 0
5.294235 0.319354 0
5.044065 0.425822 0
4.690214 0.555803 0
4.200148 0.695358 0
3.530301 0.856062 0
2.831612 0.996839 0
1.343139 0.522929 0
0.000000 0.000000 0
-0.005823 0.000000 0
0.000000 0.000000 0
0.000000 0.000000 0
0.000000 0.000000 0
0.000000 0.000000 0
0.000000 0.000000 0
0.000000 0.000000 0
0.000000 0.000000 0
0.000000 0.000000 0
0.000000 0.000000 0
0.000000 0.000000 0
0.000000 0.000000 0
0.000000 0.000000 0
0.000000 0.000000 0
0.000000 0.000000 0
0.000000 0.000000 0
0.000000 0.000000 0
0.000000 0.000000 0
0.000000 0.000000 0
0.000000 0.000000 0
0.000000 0.000000 0
0.000000 0.000000 0
0.000000 0.000000 0
0.000000 0.000000 0
0.000000 0.000000 0
0.000000 0.000000 0
0.000000 0.000000 0
0.000000 0.000000 0
0.000000 0.000000 0
0.000000 0.000000 0
0.000000 0.000000 0
0.000000 0.000000 0
0.000000 0.000000 0
0.738388 -0.467384 0
2.144379 -1.316891 0
3.090298 -1.776577 0
3.864768 -2.241983 0
5.207786 -2.466691 0
6.163352 -1.927650 0
6.688790 -1.201081 0
6.946558 -0.590745 0
7.065197 -0.157715 0
7.111704 0.122570 0
7.115702 0.288204 0
7.097555 0.371383 0
7.068696 0.396967 0
7.034854 0.384393 0
6.998796 0.348896 0
6.962134 0.302168 0
6.926144 0.252698 0
6.891936 0.206076 0
6.860355 0.165420 0
6.831876 0.131953 0
6.806593 0.105620 0
6.784304 0.085637 0
6.764624 0.070912 0
6.747092 0.060313 0
6.731253 0.052829 0
6.716700 0.047639 0
6.703088 0.044128 0
6.690129 0.041882 0
6.677576 0.040667 0
6.665199 0.040410 0
6.652757 0.041190 0
6.639962 0.043240 0
6.626442 0.046963 0
6.611685 0.052973 0
6.594968 0.062161 0
6.575251 0.075782 0
6.551028 0.095600 0
6.520080 0.124066 0
6.479106 0.164560 0
6.423083 0.221680 0
6.344198 0.301494 0
6.229842 0.411481 0
6.059600 0.559230 0
5.799741 0.748149 0
5.406888 0.966875 0
4.837915 1.190283 0
4.167893 1.389481 0
3.377857 1.410141 0
1.500955 0.670502 0
0.000000 0.000000 0
-0.005277 0.000000 0
0.000000 0.000000 0
0.000000 0.000000 0
0.000000 0.000000 0
0.000000 0.000000 0
0.000000 0.000000 0
0.000000 0.000000 0
0.000000 0.000000 0
0.000000 0.000000 0
0.000000 0.000000 0
0.000000 0.000000 0
0.000000 0.000000 0
0.000000 0.000000 0
0.000000 0.000000 0
0.000000 0.000000 0
0.000000 0.000000 0
0.000000 0.000000 0
0.000000 0.000000 0
0.000000 0.000000 0
0.000000 0.000000 0
0.000000 0.000000 0
0.000000 0.000000 0
0.000000 0.000000 0
0.000000 0.000000 0
0.000000 0.000000 0
0.000000 0.000000 0
0.000000 0.000000 0
0.000000 0.000000 0
0.000000 0.000000 0
0.000000 0.000000 0
0.000000 0.000000 0
0.536175 -0.369282 0
1.698550 -1.069456 0
2.545219 -1.751338 0
3.300684 -2.173675 0
4.126540 -2.792434 0
5.619081 -3.040610 0
6.352079 -2.247199 0
6.584747 -1.341257 0
6.618177 -0.644594 0
6.605970 -0.176369 0
6.591184 0.119070 0
6.581102 0.291660 0
6.579845 0.376809 0
6.586798 0.402360 0
6.599049 0.389430 0
6.613171 0.353874 0
6.626492 0.307366 0
6.637540 0.258162 0
6.645905 0.211653 0
6.651866 0.170880 0
6.656003 0.137092 0
6.658921 0.110315 0
6.661114 0.089850 0
6.662929 0.074670 0
6.664576 0.063681 0
6.666168 0.055888 0
6.667754 0.050470 0
6.669343 0.046805 0
6.670925 0.044472 0
6.672483 0.043231 0
6.673993 0.043010 0
6.675432 0.043897 0
6.676769 0.046142 0
6.677963 0.050183 0
6.678951 0.056687 0
6.679631 0.066625 0
6.679827 0.081381 0
6.679232 0.102919 0
6.677296 0.134012 0
6.673014 0.178582 0
6.664492 0.242162 0
6.648053 0.332541 0
6.616213 0.460349 0
6.553597 0.638901 0
6.428418 0.879168 0
6.184306 1.171863 0
5.772592 1.469881 0
5.221743 1.720176 0
4.581904 1.852386 0
3.671010 1.686802 0
1.556385 0.748743 0
0.000000 0.000000 0
-0.003981 0.000000 0
0.000000 0.000000 0
0.000000 0.000000 0
0.000000 0.000000 0
0.000000 0.000000 0
0.000000 0.000000 0
0.000000 0.000000 0
0.000000 0.000000 0
0.000000 0.000000 0
0.000000 0.000000 0
0.000000 0.000000 0
0.000000 0.000000 0
0.000000 0.000000 0
0.000000 0.000000 0
0.000000 0.000000 0
0.000000 0.000000 0
0.000000 0.000000 0
0.000000 0.000000 0
0.000000 0.000000 0
0.000000 0.000000 0
0.000000 0.000000 0
0.000000 0.000000 0
0.000000 0.000000 0
0.000000 0.000000 0
0.000000 0.000000 0
0.000000 0.000000 0
0.000000 0.000000 0
0.000000 0.000000 0
0.000000 0.000000 0
0.376469 -0.266960 0
1.297311 -0.846293 0
2.061423 -1.466170 0
2.754350 -2.110615 0
3.394944 -2.559990 0
4.280968 -3.390556 0
5.831142 -3.569260 0
6.151834 -2.406057 0
5.981705 -1.332910 0
5.742911 -0.601259 0
5.590426 -0.144342 0
5.514294 0.134890 0
5.501294 0.293822 0
5.531580 0.368561 0
5.587334 0.387453 0
5.655057 0.371327 0
5.725033 0.335300 0
5.791088 0.290095 0
5.849975 0.243081 0
5.900596 0.198978 0
5.943236 0.160417 0
5.978909 0.128458 0
6.008892 0.103088 0
6.034436 0.083652 0
6.056624 0.069197 0
6.076329 0.058708 0
6.094221 0.051255 0
6.110796 0.046066 0
6.126420 0.042557 0
6.141367 0.040327 0
6.155856 0.039147 0
6.170081 0.038949 0
6.184243 0.039815 0
6.198575 0.041986 0
6.213378 0.045882 0
6.229049 0.052147 0
6.246123 0.061727 0
6.265319 0.075980 0
6.287590 0.096854 0
6.314168 0.127146 0
6.346571 0.170903 0
6.386480 0.234046 0
6.435281 0.325413 0
6.492498 0.458276 0
6.551402 0.652266 0
6.587374 0.931102 0
6.526659 1.291782 0
6.297325 1.667153 0
5.922382 1.979368 0
5.433711 2.178399 0
4.793823 2.179768 0
3.768188 1.832963 0
1.542283 0.774969 0
0.000000 0.000000 0
-0.002621 0.000000 0
0.000000 0.000000 0
0.000000 0.000000 0
0.000000 0.000000 0
0.000000 0.000000 0
0.000000 0.000000 0
0.000000 0.000000 0
0.000000 0.000000 0
0.000000 0.000000 0
0.000000 0.000000 0
0.000000 0.000000 0
0.000000 0.000000 0
0.000000 0.000000 0
0.000000 0.000000 0
0.000000 0.000000 0
0.000000 0.000000 0
0.000000 0.000000 0
0.000000 0.000000 0
0.000000 0.000000 0
0.000000 0.000000 0
0.000000 0.000000 0
0.000000 0.000000 0
0.000000 0.000000 0
0.000000 0.000000 0
0.000000 0.000000 0
0.000000 0.000000 0
0.000000 0.000000 0
0.267973 -0.186457 0
0.995896 -0.643988 0
1.702424 -1.205367 0
2.319887 -1.791297 0
2.880679 -2.411987 0
3.395850 -2.929987 0
4.284558 -3.999367 0
5.744251 -3.967468 0
5.401781 -2.321791 0
4.738560 -1.138670 0
4.209862 -0.450748 0
3.920797 -0.063109 0
3.817053 0.163228 0
3.848470 0.283096 0
3.954391 0.334183 0
4.094322 0.341187 0
4.244199 0.321213 0
4.389429 0.286483 0
4.522051 0.245467 0
4.638536 0.203909 0
4.738231 0.165449 0
4.822221 0.132082 0
4.892485 0.104565 0
4.951309 0.082806 0
5.000928 0.066203 0
5.043329 0.053915 0
5.080180 0.045055 0
5.112821 0.038813 0
5.142304 0.034518 0
5.169447 0.031660 0
5.194889 0.029889 0
5.219155 0.029006 0
5.242714 0.028947 0
5.266033 0.029780 0
5.289644 0.031707 0
5.314200 0.035085 0
5.340562 0.040464 0
5.369893 0.048656 0
5.403787 0.060838 0
5.444435 0.078719 0
5.494839 0.104792 0
5.559077 0.142757 0
5.642597 0.198213 0
5.752405 0.280018 0
5.896789 0.402821 0
6.081521 0.591898 0
6.301039 0.891426 0
6.455882 1.315558 0
6.420658 1.769250 0
6.248759 2.148024 0
5.949136 2.411493 0
5.510354 2.511930 0
4.840770 2.369019 0
3.727914 1.878668 0
1.485809 0.766508 0
0.000000 0.000000 0
-0.001603 0.000000 0
0.000000 0.000000 0
0.000000 0.000000 0
0.000000 0.000000 0
0.000000 0.000000 0
0.000000 0.000000 0
0.000000 0.000000 0
0.000000 0.000000 0
0.000000 0.000000 0
0.000000 0.000000 0
0.000000 0.000000 0
0.000000 0.000000 0
0.000000 0.000000 0
0.000000 0.000000 0
0.000000 0.000000 0
0.000000 0.000000 0
0.000000 0.000000 0
0.000000 0.000000 0
0.000000 0.000000 0
0.000000 0.000000 0
0.000000 0.000000 0
0.000000 0.000000 0
0.000000 0.000000 0
0.000000 0.000000 0
0.000000 0.000000 0
0.209252 -0.131866 0
0.805444 -0.492440 0
1.468517 -0.977559 0
2.052828 -1.502220 0
2.535383 -2.049897 0
2.939372 -2.643665 0
3.298345 -3.255496 0
4.068901 -4.553993 0
5.219448 -4.122751 0
3.917006 -1.907821 0
2.775484 -0.742414 0
2.002363 -0.196125 0
1.719146 0.050262 0
1.749836 0.170722 0
1.910386 0.225782 0
2.129703 0.246762 0
2.369022 0.243877 0
2.605329 0.225126 0
2.823978 0.197647 0
3.017657 0.166684 0
3.183846 0.135982 0
3.323099 0.107977 0
3.437823 0.083997 0
3.531361 0.064506 0
3.607350 0.049363 0
3.669293 0.038063 0
3.720311 0.029934 0
3.763039 0.024281 0
3.799608 0.020477 0
3.831690 0.018013 0
3.860568 0.016506 0
3.887235 0.015701 0
3.912481 0.015454 0
3.936990 0.015725 0
3.961424 0.016565 0
3.986525 0.018124 0
4.013204 0.020656 0
4.042670 0.024556 0
4.076574 0.030404 0
4.117212 0.039050 0
4.167807 0.051745 0
4.232889 0.070350 0
4.318843 0.097701 0
4.434709 0.138268 0
4.593185 0.199482 0
4.812921 0.295226 0
5.115799 0.451994 0
5.542516 0.745637 0
5.974515 1.232521 0
6.149742 1.769765 0
6.206664 2.212967 0
6.129812 2.544217 0
5.900012 2.728871 0
5.477039 2.716013 0
4.765287 2.444094 0
3.601448 1.855103 0
1.409878 0.737304 0
0.000000 0.000000 0
-0.001114 0.000000 0
0.000000 0.000000 0
0.000000 0.000000 0
0.000000 0.000000 0
0.000000 0.000000 0
0.000000 0.000000 0
0.000000 0.000000 0
0.000000 0.000000 0
0.000000 0.000000 0
0.000000 0.000000 0
0.000000 0.000000 0
0.000000 0.000000 0
0.000000 0.000000 0
0.000000 0.000000 0
0.000000 0.000000 0
0.000000 0.000000 0
0.000000 0.000000 0
0.000000 0.000000 0
0.000000 0.000000 0
0.000000 0.000000 0
0.000000 0.000000 0
0.000000 0.000000 0
0.000000 0.000000 0
0.195345 -0.102304 0
0.724356 -0.396775 0
1.360477 -0.809426 0
1.928541 -1.261963 0
2.381680 -1.733910 0
2.709924 -2.230506 0
2.935139 -2.789971 0
3.101520 -3.489574 0
3.571690 -4.951114 0
4.021350 -3.892217 0
1.556868 -1.111010 0
0.421321 -0.190124 0
0.058304 0.072579 0
0.025442 0.061997 0
0.159759 0.068485 0
0.370044 0.094904 0
0.615500 0.106967 0
0.868133 0.105554 0
1.107767 0.095820 0
1.322550 0.082208 0
1.506719 0.067183 0
1.659002 0.052588 0
1.781199 0.039625 0
1.876955 0.028906 0
1.950748 0.020578 0
2.007161 0.014472 0
2.050389 0.010241 0
2.083992 0.007472 0
2.110810 0.005770 0
2.133002 0.004802 0
2.152144 0.004317 0
2.169361 0.004141 0
2.185461 0.004170 0
2.201053 0.004357 0
2.216655 0.004700 0
2.232793 0.005240 0
2.250092 0.006055 0
2.269376 0.007270 0
2.291786 0.009070 0
2.318942 0.011727 0
2.353157 0.015639 0
2.397765 0.021410 0
2.457605 0.029966 0
2.539767 0.042772 0
2.654815 0.062300 0
2.818862 0.092645 0
3.057470 0.143909 0
3.414777 0.230445 0
3.969821 0.466004 0
4.892064 1.014728 0
5.376088 1.654239 0
5.755638 2.157898 0
5.965050 2.563413 0
5.981555 2.835325 0
5.791190 2.931180 0
5.357712 2.807867 0
4.610720 2.433314 0
3.435495 1.789087 0
1.336080 0.698867 0
0.000000 0.000000 0
-0.001274 0.000000 0
0.000000 0.000000 0
0.000000 0.000000 0
0.000000 0.000000 0
0.000000 0.000000 0
0.000000 0.000000 0
0.000000 0.000000 0
0.000000 0.000000 0
0.000000 0.000000 0
0.000000 0.000000 0
0.000000 0.000000 0
0.000000 0.000000 0
0.000000 0.000000 0
0.000000 0.000000 0
0.000000 0.000000 0
0.000000 0.000000 0
0.000000 0.000000 0
0.000000 0.000000 0
0.000000 0.000000 0
0.000000 0.000000 0
0.000000 0.000000 0
0.225169 -0.095088 0
0.751095 -0.355806 0
1.380134 -0.707729 0
1.940964 -1.089013 0
2.380159 -1.483481 0
2.679026 -1.889330 0
2.838770 -2.324090 0
2.878051 -2.837669 0
2.824815 -3.570853 0
2.796887 -5.009692 0
1.634902 -3.000268 0
-0.000000 0.000000 0
-0.000000 0.000000 0
-0.000000 0.000000 0
-0.000000 0.000000 0
0.000000 0.000000 0
0.000000 0.000000 0
0.000000 0.000000 0
0.000000 0.000000 0
0.000000 0.000000 0
0.000000 0.000000 0
0.000000 0.000000 0
0.000000 0.000000 0
0.000000 0.000000 0
0.000000 0.000000 0
0.000000 0.000000 0
0.000000 0.000000 0
0.000000 0.000000 0
0.000000 0.000000 0
0.000000 0.000000 0
0.000000 0.000000 0
0.000000 0.000000 0
0.000000 0.000000 0
0.000000 0.000000 0
0.000000 0.000000 0
0.000000 0.000000 0
0.000000 0.000000 0
0.000000 0.000000 0
0.000000 0.000000 0
0.000000 0.000000 0
0.000000 0.000000 0
0.000000 0.000000 0
0.000000 0.000000 0
0.000000 0.000000 0
0.000000 0.000000 0
0.000000 0.000000 0
0.000000 0.000000 0
0.000000 0.000000 0
0.000000 0.000000 0
-0.000000 0.000000 0
2.077812 0.522069 0
3.746448 1.341936 0
4.738393 1.921186 0
5.378870 2.432294 0
5.724154 2.815004 0
5.801714 3.025076 0
5.623782 3.028919 0
5.175860 2.807401 0
4.417988 2.362098 0
3.272009 1.704459 0
1.281901 0.661892 0
0.000000 0.000000 0
-0.002101 0.000000 0
0.000000 0.000000 0
0.000000 0.000000 0
0.000000 0.000000 0
0.000000 0.000000 0
0.000000 0.000000 0
0.000000 0.000000 0
0.000000 0.000000 0
0.000000 0.000000 0
0.000000 0.000000 0
0.000000 0.000000 0
0.000000 0.000000 0
0.000000 0.000000 0
0.000000 0.000000 0
0.000000 0.000000 0
0.000000 0.000000 0
0.000000 0.000000 0
0.000000 0.000000 0
0.000000 0.000000 0
0.308938 -0.109501 0
0.897294 -0.368364 0
1.541448 -0.672804 0
2.096003 -0.986256 0
2.519523 -1.304855 0
2.796913 -1.627611 0
2.926852 -1.961113 0
2.918701 -2.329106 0
2.785052 -2.783057 0
2.522234 -3.449364 0
2.017743 -4.378637 0
0.037592 -0.000000 0
-0.073615 2.449265 0
0.383979 0.000000 0
0.310151 0.000000 0
0.237478 0.000000 0
0.185009 0.000000 0
0.099242 0.000000 0
-0.006555 0.000000 0
-0.116671 0.000000 0
-0.219616 0.000000 0
-0.310084 0.000000 0
-0.385553 0.000000 0
-0.445692 0.000000 0
-0.491703 0.000000 0
-0.525676 0.000000 0
-0.550049 0.000000 0
-0.567212 0.000000 0
-0.579261 0.000000 0
-0.587883 0.000000 0
-0.594343 0.000000 0
-0.599529 0.000000 0
-0.604036 0.000000 0
-0.608244 0.000000 0
-0.612396 0.000000 0
-0.616661 0.000000 0
-0.621189 0.000000 0
-0.626148 0.000000 0
-0.631765 0.000000 0
-0.638369 0.000000 0
-0.646440 0.000000 0
-0.656678 0.000000 0
-0.670110 0.000000 0
-0.688245 0.000000 0
-0.713326 0.000000 0
-0.748733 0.000000 0
-0.799662 0.000000 0
-0.874485 0.000000 0
-0.986667 0.000000 0
-1.164965 0.000000 0
-1.451821 0.132455 0
0.000000 -0.000000 0
1.708790 0.339522 0
3.311258 1.349169 0
4.418014 2.075051 0
5.135708 2.625841 0
5.514765 2.980906 0
5.600148 3.117925 0
5.417438 3.030685 0
4.967333 2.732287 0
4.230777 2.253858 0
3.150865 1.622347 0
1.265258 0.635093 0
-0.000000 0.000000 0
-0.003811 0.000000 0
0.000000 0.000000 0
0.000000 0.000000 0
0.000000 0.000000 0
0.000000 0.000000 0
0.000000 0.000000 0
0.000000 0.000000 0
0.000000 0.000000 0
0.000000 0.000000 0
0.000000 0.000000 0
0.000000 0.000000 0
0.000000 0.000000 0
0.000000 0.000000 0
0.000000 0.000000 0
0.000000 0.000000 0
0.000000 0.000000 0
0.000000 0.000000 0
0.482557 -0.150472 0
1.207493 -0.439902 0