# vtk DataFile Version 2.0
generated by CFD-lab course output (written by Tobias Neckel) 
ASCII

DATASET STRUCTURED_GRID
DIMENSIONS  82 60 1 
POINTS 4920 float

-1.500000 -0.500000 0
-1.402439 -0.500000 0
-1.304878 -0.500000 0
-1.207317 -0.500000 0
-1.109756 -0.500000 0
-1.012195 -0.500000 0
-0.914634 -0.500000 0
-0.817073 -0.500000 0
-0.719512 -0.500000 0
-0.621951 -0.500000 0
-0.524390 -0.500000 0
-0.426829 -0.500000 0
-0.329268 -0.500000 0
-0.231707 -0.500000 0
-0.134146 -0.500000 0
-0.036585 -0.500000 0
0.060976 -0.500000 0
0.158537 -0.500000 0
0.256098 -0.500000 0
0.353659 -0.500000 0
0.451220 -0.500000 0
0.548780 -0.500000 0
0.646341 -0.500000 0
0.743902 -0.500000 0
0.841463 -0.500000 0
0.939024 -0.500000 0
1.036585 -0.500000 0
1.134146 -0.500000 0
1.231707 -0.500000 0
1.329268 -0.500000 0
1.426829 -0.500000 0
1.524390 -0.500000 0
1.621951 -0.500000 0
1.719512 -0.500000 0
1.817073 -0.500000 0
1.914634 -0.500000 0
2.012195 -0.500000 0
2.109756 -0.500000 0
2.207317 -0.500000 0
2.304878 -0.500000 0
2.402439 -0.500000 0
2.500000 -0.500000 0
2.597561 -0.500000 0
2.695122 -0.500000 0
2.792683 -0.500000 0
2.890244 -0.500000 0
2.987805 -0.500000 0
3.085366 -0.500000 0
3.182927 -0.500000 0
3.280488 -0.500000 0
3.378049 -0.500000 0
3.475610 -0.500000 0
3.573171 -0.500000 0
3.670732 -0.500000 0
3.768293 -0.500000 0
3.865854 -0.500000 0
3.963415 -0.500000 0
4.060976 -0.500000 0
4.158537 -0.500000 0
4.256098 -0.500000 0
4.353659 -0.500000 0
4.451220 -0.500000 0
4.548780 -0.500000 0
4.646341 -0.500000 0
4.743902 -0.500000 0
4.841463 -0.500000 0
4.939024 -0.500000 0
5.036585 -0.500000 0
5.134146 -0.500000 0
5.231707 -0.500000 0
5.329268 -0.500000 0
5.426829 -0.500000 0
5.524390 -0.500000 0
5.621951 -0.500000 0
5.719512 -0.500000 0
5.817073 -0.500000 0
5.914634 -0.500000 0
6.012195 -0.500000 0
6.109756 -0.500000 0
6.207317 -0.500000 0
6.304878 -0.500000 0
6.402439 -0.500000 0
-1.500000 -0.451667 0
-1.402439 -0.451667 0
-1.304878 -0.451667 0
-1.207317 -0.451667 0
-1.109756 -0.451667 0
-1.012195 -0.451667 0
-0.914634 -0.451667 0
-0.817073 -0.451667 0
-0.719512 -0.451667 0
-0.621951 -0.451667 0
-0.524390 -0.451667 0
-0.426829 -0.451667 0
-0.329268 -0.451667 0
-0.231707 -0.451667 0
-0.134146 -0.451667 0
-0.036585 -0.451667 0
0.060976 -0.451667 0
0.158537 -0.451667 0
0.256098 -0.451667 0
0.353659 -0.451667 0
0.451220 -0.451667 0
0.548780 -0.451667 0
0.646341 -0.451667 0
0.743902 -0.451667 0
0.841463 -0.451667 0
0.939024 -0.451667 0
1.036585 -0.451667 0
1.134146 -0.451667 0
1.231707 -0.451667 0
1.329268 -0.451667 0
1.426829 -0.451667 0
1.524390 -0.451667 0
1.621951 -0.451667 0
1.719512 -0.451667 0
1.817073 -0.451667 0
1.914634 -0.451667 0
2.012195 -0.451667 0
2.109756 -0.451667 0
2.207317 -0.451667 0
2.304878 -0.451667 0
2.402439 -0.451667 0
2.500000 -0.451667 0
2.597561 -0.451667 0
2.695122 -0.451667 0
2.792683 -0.451667 0
2.890244 -0.451667 0
2.987805 -0.451667 0
3.085366 -0.451667 0
3.182927 -0.451667 0
3.280488 -0.451667 0
3.378049 -0.451667 0
3.475610 -0.451667 0
3.573171 -0.451667 0
3.670732 -0.451667 0
3.768293 -0.451667 0
3.865854 -0.451667 0
3.963415 -0.451667 0
4.060976 -0.451667 0
4.158537 -0.451667 0
4.256098 -0.451667 0
4.353659 -0.451667 0
4.451220 -0.451667 0
4.548780 -0.451667 0
4.646341 -0.451667 0
4.743902 -0.451667 0
4.841463 -0.451667 0
4.939024 -0.451667 0
5.036585 -0.451667 0
5.134146 -0.451667 0
5.231707 -0.451667 0
5.329268 -0.451667 0
5.426829 -0.451667 0
5.524390 -0.451667 0
5.621951 -0.451667 0
5.719512 -0.451667 0
5.817073 -0.451667 0
5.914634 -0.451667 0
6.012195 -0.451667 0
6.109756 -0.451667 0
6.207317 -0.451667 0
6.304878 -0.451667 0
6.402439 -0.451667 0
-1.500000 -0.403333 0
-1.402439 -0.403333 0
-1.304878 -0.403333 0
-1.207317 -0.403333 0
-1.109756 -0.403333 0
-1.012195 -0.403333 0
-0.914634 -0.403333 0
-0.817073 -0.403333 0
-0.719512 -0.403333 0
-0.621951 -0.403333 0
-0.524390 -0.403333 0
-0.426829 -0.403333 0
-0.329268 -0.403333 0
-0.231707 -0.403333 0
-0.134146 -0.403333 0
-0.036585 -0.403333 0
0.060976 -0.403333 0
0.158537 -0.403333 0
0.256098 -0.403333 0
0.353659 -0.403333 0
0.451220 -0.403333 0
0.548780 -0.403333 0
0.646341 -0.403333 0
0.743902 -0.403333 0
0.841463 -0.403333 0
0.939024 -0.403333 0
1.036585 -0.403333 0
1.134146 -0.403333 0
1.231707 -0.403333 0
1.329268 -0.403333 0
1.426829 -0.403333 0
1.524390 -0.403333 0
1.621951 -0.403333 0
1.719512 -0.403333 0
1.817073 -0.403333 0
1.914634 -0.403333 0
2.012195 -0.403333 0
2.109756 -0.403333 0
2.207317 -0.403333 0
2.304878 -0.403333 0
2.402439 -0.403333 0
2.500000 -0.403333 0
2.597561 -0.403333 0
2.695122 -0.403333 0
2.792683 -0.403333 0
2.890244 -0.403333 0
2.987805 -0.403333 0
3.085366 -0.403333 0
3.182927 -0.403333 0
3.280488 -0.403333 0
3.378049 -0.403333 0
3.475610 -0.403333 0
3.573171 -0.403333 0
3.670732 -0.403333 0
3.768293 -0.403333 0
3.865854 -0.403333 0
3.963415 -0.403333 0
4.060976 -0.403333 0
4.158537 -0.403333 0
4.256098 -0.403333 0
4.353659 -0.403333 0
4.451220 -0.403333 0
4.548780 -0.403333 0
4.646341 -0.403333 0
4.743902 -0.403333 0
4.841463 -0.403333 0
4.939024 -0.403333 0
5.036585 -0.403333 0
5.134146 -0.403333 0
5.231707 -0.403333 0
5.329268 -0.403333 0
5.426829 -0.403333 0
5.524390 -0.403333 0
5.621951 -0.403333 0
5.719512 -0.403333 0
5.817073 -0.403333 0
5.914634 -0.403333 0
6.012195 -0.403333 0
6.109756 -0.403333 0
6.207317 -0.403333 0
6.304878 -0.403333 0
6.402439 -0.403333 0
-1.500000 -0.355000 0
-1.402439 -0.355000 0
-1.304878 -0.355000 0
-1.207317 -0.355000 0
-1.109756 -0.355000 0
-1.012195 -0.355000 0
-0.914634 -0.355000 0
-0.817073 -0.355000 0
-0.719512 -0.355000 0
-0.621951 -0.355000 0
-0.524390 -0.355000 0
-0.426829 -0.355000 0
-0.329268 -0.355000 0
-0.231707 -0.355000 0
-0.134146 -0.355000 0
-0.036585 -0.355000 0
0.060976 -0.355000 0
0.158537 -0.355000 0
0.256098 -0.355000 0
0.353659 -0.355000 0
0.451220 -0.355000 0
0.548780 -0.355000 0
0.646341 -0.355000 0
0.743902 -0.355000 0
0.841463 -0.355000 0
0.939024 -0.355000 0
1.036585 -0.355000 0
1.134146 -0.355000 0
1.231707 -0.355000 0
1.329268 -0.355000 0
1.426829 -0.355000 0
1.524390 -0.355000 0
1.621951 -0.355000 0
1.719512 -0.355000 0
1.817073 -0.355000 0
1.914634 -0.355000 0
2.012195 -0.355000 0
2.109756 -0.355000 0
2.207317 -0.355000 0
2.304878 -0.355000 0
2.402439 -0.355000 0
2.500000 -0.355000 0
2.597561 -0.355000 0
2.695122 -0.355000 0
2.792683 -0.355000 0
2.890244 -0.355000 0
2.987805 -0.355000 0
3.085366 -0.355000 0
3.182927 -0.355000 0
3.280488 -0.355000 0
3.378049 -0.355000 0
3.475610 -0.355000 0
3.573171 -0.355000 0
3.670732 -0.355000 0
3.768293 -0.355000 0
3.865854 -0.355000 0
3.963415 -0.355000 0
4.060976 -0.355000 0
4.158537 -0.355000 0
4.256098 -0.355000 0
4.353659 -0.355000 0
4.451220 -0.355000 0
4.548780 -0.355000 0
4.646341 -0.355000 0
4.743902 -0.355000 0
4.841463 -0.355000 0
4.939024 -0.355000 0
5.036585 -0.355000 0
5.134146 -0.355000 0
5.231707 -0.355000 0
5.329268 -0.355000 0
5.426829 -0.355000 0
5.524390 -0.355000 0
5.621951 -0.355000 0
5.719512 -0.355000 0
5.817073 -0.355000 0
5.914634 -0.355000 0
6.012195 -0.355000 0
6.109756 -0.355000 0
6.207317 -0.355000 0
6.304878 -0.355000 0
6.402439 -0.355000 0
-1.500000 -0.306667 0
-1.402439 -0.306667 0
-1.304878 -0.306667 0
-1.207317 -0.306667 0
-1.109756 -0.306667 0
-1.012195 -0.306667 0
-0.914634 -0.306667 0
-0.817073 -0.306667 0
-0.719512 -0.306667 0
-0.621951 -0.306667 0
-0.524390 -0.306667 0
-0.426829 -0.306667 0
-0.329268 -0.306667 0
-0.231707 -0.306667 0
-0.134146 -0.306667 0
-0.036585 -0.306667 0
0.060976 -0.306667 0
0.158537 -0.306667 0
0.256098 -0.306667 0
0.353659 -0.306667 0
0.451220 -0.306667 0
0.548780 -0.306667 0
0.646341 -0.306667 0
0.743902 -0.306667 0
0.841463 -0.306667 0
0.939024 -0.306667 0
1.036585 -0.306667 0
1.134146 -0.306667 0
1.231707 -0.306667 0
1.329268 -0.306667 0
1.426829 -0.306667 0
1.524390 -0.306667 0
1.621951 -0.306667 0
1.719512 -0.306667 0
1.817073 -0.306667 0
1.914634 -0.306667 0
2.012195 -0.306667 0
2.109756 -0.306667 0
2.207317 -0.306667 0
2.304878 -0.306667 0
2.402439 -0.306667 0
2.500000 -0.306667 0
2.597561 -0.306667 0
2.695122 -0.306667 0
2.792683 -0.306667 0
2.890244 -0.306667 0
2.987805 -0.306667 0
3.085366 -0.306667 0
3.182927 -0.306667 0
3.280488 -0.306667 0
3.378049 -0.306667 0
3.475610 -0.306667 0
3.573171 -0.306667 0
3.670732 -0.306667 0
3.768293 -0.306667 0
3.865854 -0.306667 0
3.963415 -0.306667 0
4.060976 -0.306667 0
4.158537 -0.306667 0
4.256098 -0.306667 0
4.353659 -0.306667 0
4.451220 -0.306667 0
4.548780 -0.306667 0
4.646341 -0.306667 0
4.743902 -0.306667 0
4.841463 -0.306667 0
4.939024 -0.306667 0
5.036585 -0.306667 0
5.134146 -0.306667 0
5.231707 -0.306667 0
5.329268 -0.306667 0
5.426829 -0.306667 0
5.524390 -0.306667 0
5.621951 -0.306667 0
5.719512 -0.306667 0
5.817073 -0.306667 0
5.914634 -0.306667 0
6.012195 -0.306667 0
6.109756 -0.306667 0
6.207317 -0.306667 0
6.304878 -0.306667 0
6.402439 -0.306667 0
-1.500000 -0.258333 0
-1.402439 -0.258333 0
-1.304878 -0.258333 0
-1.207317 -0.258333 0
-1.109756 -0.258333 0
-1.012195 -0.258333 0
-0.914634 -0.258333 0
-0.817073 -0.258333 0
-0.719512 -0.258333 0
-0.621951 -0.258333 0
-0.524390 -0.258333 0
-0.426829 -0.258333 0
-0.329268 -0.258333 0
-0.231707 -0.258333 0
-0.134146 -0.258333 0
-0.036585 -0.258333 0
0.060976 -0.258333 0
0.158537 -0.258333 0
0.256098 -0.258333 0
0.353659 -0.258333 0
0.451220 -0.258333 0
0.548780 -0.258333 0
0.646341 -0.258333 0
0.743902 -0.258333 0
0.841463 -0.258333 0
0.939024 -0.258333 0
1.036585 -0.258333 0
1.134146 -0.258333 0
1.231707 -0.258333 0
1.329268 -0.258333 0
1.426829 -0.258333 0
1.524390 -0.258333 0
1.621951 -0.258333 0
1.719512 -0.258333 0
1.817073 -0.258333 0
1.914634 -0.258333 0
2.012195 -0.258333 0
2.109756 -0.258333 0
2.207317 -0.258333 0
2.304878 -0.258333 0
2.402439 -0.258333 0
2.500000 -0.258333 0
2.597561 -0.258333 0
2.695122 -0.258333 0
2.792683 -0.258333 0
2.890244 -0.258333 0
2.987805 -0.258333 0
3.085366 -0.258333 0
3.182927 -0.258333 0
3.280488 -0.258333 0
3.378049 -0.258333 0
3.475610 -0.258333 0
3.573171 -0.258333 0
[...]
POINT_DATA 4920 

VECTORS velocity float
0.000000 0.000000 0
0.000000 0.000000 0
0.000000 0.000000 0
0.000000 0.000000 0
0.000000 0.000000 0
0.000000 0.000000 0
0.000000 0.000000 0
0.000000 0.000000 0
0.000000 0.000000 0
0.000000 0.000000 0
0.000000 0.000000 0
0.000000 0.000000 0
0.000000 0.000000 0
0.000000 0.000000 0
0.000000 0.000000 0
-0.000000 0.000000 0
-0.000000 0.000000 0
-0.000000 0.000000 0
-0.000000 0.000000 0
-0.000000 0.000000 0
-0.000000 0.000000 0
-0.000000 0.000000 0
-0.000000 0.000000 0
-0.000000 0.000000 0
-0.000000 0.000000 0
-0.000000 0.000000 0
-0.000000 0.000000 0
-0.000000 0.000000 0
-0.000000 0.000000 0
-0.000000 0.000000 0
-0.000000 0.000000 0
-0.000000 0.000000 0
-0.000000 0.000000 0
-0.000000 0.000000 0
-0.000000 0.000000 0
-0.000000 0.000000 0
-0.000000 0.000000 0
-0.000000 0.000000 0
-0.000000 0.000000 0
-0.000000 0.000000 0
-0.000000 0.000000 0
-0.000000 0.000000 0
-0.000000 0.000000 0
-0.000000 0.000000 0
-0.000000 0.000000 0
-0.000000 0.000000 0
-0.000000 0.000000 0
-0.000000 0.000000 0
-0.000000 0.000000 0
-0.000000 0.000000 0
-0.000000 0.000000 0
-0.000000 0.000000 0
-0.000000 0.000000 0
-0.000000 0.000000 0
-0.000000 0.000000 0
-0.000000 0.000000 0
0.000000 0.000000 0
0.001916 0.000000 0
0.000000 0.000000 0
0.000000 0.000000 0
0.000000 0.000000 0
0.000000 0.000000 0
0.000000 0.000000 0
0.000000 0.000000 0
0.000000 0.000000 0
0.000000 0.000000 0
0.000000 0.000000 0
0.000000 0.000000 0
0.000000 0.000000 0
0.000000 0.000000 0
0.000000 0.000000 0
0.000000 0.000000 0
0.000000 0.000000 0
0.000000 0.000000 0
0.000000 0.000000 0
0.000000 0.000000 0
0.000000 0.000000 0
0.000000 0.000000 0
0.000000 0.000000 0
0.000000 0.000000 0
0.000000 0.000000 0
0.000000 0.000000 0
0.000000 0.000000 0
0.000000 0.000000 0
0.000000 0.000000 0
0.000000 0.000000 0
0.000000 0.000000 0
0.000000 0.000000 0
0.000000 0.000000 0
0.000000 0.000000 0
0.000000 0.000000 0
0.000000 0.000000 0
0.000000 0.000000 0
0.000000 0.000000 0
0.000000 0.000000 0
0.000000 0.000000 0
1.046390 -0.422528 0
2.518293 -0.738205 0
3.779767 -0.505137 0
4.622774 -0.265394 0
5.056221 -0.070113 0
5.167172 0.061938 0
5.063273 0.139742 0
4.829782 0.177746 0
4.530838 0.186512 0
4.213324 0.175013 0
3.909532 0.151124 0
3.639244 0.121586 0
3.411894 0.091699 0
3.229069 0.065047 0
3.087174 0.043474 0
2.979886 0.027387 0
2.900064 0.016253 0
2.840965 0.009092 0
2.796862 0.004849 0
2.763232 0.002598 0
2.736683 0.001620 0
2.714780 0.001399 0
2.695827 0.001593 0
2.678667 0.001994 0
2.662507 0.002492 0
2.646770 0.003042 0
2.630980 0.003653 0
2.614667 0.004369 0
2.597273 0.005267 0
2.578070 0.006458 0
2.556060 0.008094 0
2.529850 0.010374 0
2.497506 0.013567 0
2.456337 0.018020 0
2.402640 0.024183 0
2.331364 0.032601 0
2.235745 0.043876 0
2.106956 0.058491 0
1.934150 0.076506 0
1.704902 0.096429 0
1.409376 0.115112 0
1.038693 0.130696 0
0.616650 0.068845 0
-0.000000 0.000000 0
-0.001572 0.000000 0
0.000000 0.000000 0
0.000000 0.000000 0
0.000000 0.000000 0
0.000000 0.000000 0
0.000000 0.000000 0
0.000000 0.000000 0
0.000000 0.000000 0
0.000000 0.000000 0
0.000000 0.000000 0
0.000000 0.000000 0
0.000000 0.000000 0
0.000000 0.000000 0
0.000000 0.000000 0
0.000000 0.000000 0
0.000000 0.000000 0
0.000000 0.000000 0
0.000000 0.000000 0
0.000000 0.000000 0
0.000000 0.000000 0
0.000000 0.000000 0
0.000000 0.000000 0
0.000000 0.000000 0
0.000000 0.000000 0
0.000000 0.000000 0
0.000000 0.000000 0
0.000000 0.000000 0
0.000000 0.000000 0
0.000000 0.000000 0
0.000000 0.000000 0
0.000000 0.000000 0
0.000000 0.000000 0
0.000000 0.000000 0
0.000000 0.000000 0
0.000000 0.000000 0
0.000000 0.000000 0
0.000000 0.000000 0
1.159602 -0.516993 0
2.653738 -1.245992 0
3.828573 -1.353954 0
5.002538 -1.042595 0
5.863920 -0.632377 0
6.390968 -0.269704 0
6.647105 -0.003494 0
6.706838 0.167148 0
6.638305 0.263777 0
6.491022 0.305404 0
6.301167 0.307805 0
6.094798 0.284409 0
5.890030 0.246538 0
5.698641 0.203207 0
5.527368 0.160872 0
5.379052 0.123449 0
5.253705 0.092697 0
5.149490 0.068824 0
5.063566 0.051128 0
4.992750 0.038510 0
4.933963 0.029814 0
4.884486 0.024004 0
4.842060 0.020241 0
4.804886 0.017891 0
4.771562 0.016507 0
4.741002 0.015803 0
4.712333 0.015619 0
4.684809 0.015904 0
4.657710 0.016699 0
4.630260 0.018130 0
4.601522 0.020418 0
4.570284 0.023889 0
4.534917 0.029009 0
4.493183 0.036420 0
4.441979 0.046998 0
4.376992 0.061914 0
4.292218 0.082682 0
4.179334 0.111175 0
4.026897 0.149416 0
3.819418 0.199185 0
3.536726 0.259982 0
3.154562 0.330051 0
2.647219 0.392221 0
2.014831 0.512277 0
1.050722 0.303699 0
-0.000000 0.000000 0
-0.004730 0.000000 0
0.000000 0.000000 0
0.000000 0.000000 0
0.000000 0.000000 0
0.000000 0.000000 0
0.000000 0.000000 0
0.000000 0.000000 0
0.000000 0.000000 0
0.000000 0.000000 0
0.000000 0.000000 0
0.000000 0.000000 0
0.000000 0.000000 0
0.000000 0.000000 0
0.000000 0.000000 0
0.000000 0.000000 0
0.000000 0.000000 0
0.000000 0.000000 0
0.000000 0.000000 0
0.000000 0.000000 0
0.000000 0.000000 0
0.000000 0.000000 0
0.000000 0.000000 0
0.000000 0.000000 0
0.000000 0.000000 0
0.000000 0.000000 0
0.000000 0.000000 0
0.000000 0.000000 0
0.000000 0.000000 0
0.000000 0.000000 0
0.000000 0.000000 0
0.000000 0.000000 0
0.000000 0.000000 0
0.000000 0.000000 0
0.000000 0.000000 0
0.000000 0.000000 0
0.936085 -0.582531 0
2.634557 -1.321345 0
3.462277 -1.743375 0
4.644926 -1.901839 0
5.708309 -1.513482 0
6.431404 -0.953245 0
6.856248 -0.458117 0
7.079433 -0.094549 0
7.167538 0.144101 0
7.169394 0.284665 0
7.118199 0.353536 0
7.036178 0.371309 0
6.938194 0.354808 0
6.834341 0.317849 0
6.731578 0.271368 0
6.634595 0.223377 0
6.546242 0.179051 0
6.467832 0.141116 0
6.399470 0.110451 0
6.340422 0.086743 0
6.289487 0.069056 0
6.245300 0.056234 0
6.206531 0.047150 0
6.172007 0.040834 0
6.140745 0.036519 0
6.111953 0.033644 0
6.084987 0.031835 0
6.059307 0.030881 0
6.034425 0.030714 0
6.009842 0.031393 0
5.984991 0.033103 0
5.959162 0.036171 0
5.931415 0.041091 0
5.900461 0.048572 0
5.864505 0.059610 0
5.821016 0.075583 0
5.766410 0.098377 0
5.695572 0.130523 0
5.601152 0.175321 0
5.472534 0.236799 0
5.294199 0.319345 0
5.044038 0.425810 0
4.690200 0.555788 0
4.200151 0.695337 0
3.530317 0.856043 0
2.831661 0.996842 0
1.343193 0.522939 0
-0.000000 0.000000 0
-0.005824 0.000000 0
0.000000 0.000000 0
0.000000 0.000000 0
0.000000 0.000000 0
0.000000 0.000000 0
0.000000 0.000000 0
0.000000 0.000000 0
0.000000 0.000000 0
0.000000 0.000000 0
0.000000 0.000000 0
0.000000 0.000000 0
0.000000 0.000000 0
0.000000 0.000000 0
0.000000 0.000000 0
0.000000 0.000000 0
0.000000 0.000000 0
0.000000 0.000000 0
0.000000 0.000000 0
0.000000 0.000000 0
0.000000 0.000000 0
0.000000 0.000000 0
0.000000 0.000000 0
0.000000 0.000000 0
0.000000 0.000000 0
0.000000 0.000000 0
0.000000 0.000000 0
0.000000 0.000000 0
0.000000 0.000000 0
0.000000 0.000000 0
0.000000 0.000000 0
0.000000 0.000000 0
0.000000 0.000000 0
0.000000 0.000000 0
0.738371 -0.467374 0
2.144341 -1.316870 0
3.090255 -1.776555 0
3.864723 -2.241962 0
5.207732 -2.466676 0
6.163295 -1.927646 0
6.688735 -1.201085 0
6.946510 -0.590748 0
7.065156 -0.157712 0
7.111664 0.122580 0
7.115661 0.288221 0
7.097509 0.371401 0
7.068644 0.396982 0
7.034796 0.384402 0
6.998734 0.348899 0
6.962069 0.302165 0
6.926078 0.252690 0
6.891870 0.206066 0
6.860290 0.165411 0
6.831811 0.131945 0
6.806530 0.105615 0
6.784242 0.085635 0
6.764562 0.070912 0
6.747029 0.060315 0
6.731190 0.052832 0
6.716636 0.047642 0
6.703023 0.044131 0
6.690063 0.041884 0
6.677510 0.040668 0
6.665133 0.040410 0
6.652690 0.041189 0
6.639896 0.043238 0
6.626376 0.046960 0
6.611620 0.052970 0
6.594903 0.062157 0
6.575188 0.075778 0
6.550965 0.095596 0
6.520019 0.124061 0
6.479047 0.164554 0
6.423027 0.221672 0
6.344145 0.301485 0
6.229794 0.411468 0
6.059560 0.559213 0
5.799710 0.748127 0
5.406873 0.966846 0
4.837920 1.190250 0
4.167940 1.389460 0
3.377976 1.410163 0
1.501067 0.670528 0
-0.000000 0.000000 0
-0.005279 0.000000 0
0.000000 0.000000 0
0.000000 0.000000 0
0.000000 0.000000 0
0.000000 0.000000 0
0.000000 0.000000 0
0.000000 0.000000 0
0.000000 0.000000 0
0.000000 0.000000 0
0.000000 0.000000 0
0.000000 0.000000 0
0.000000 0.000000 0
0.000000 0.000000 0
0.000000 0.000000 0
0.000000 0.000000 0
0.000000 0.000000 0
0.000000 0.000000 0
0.000000 0.000000 0
0.000000 0.000000 0
0.000000 0.000000 0
0.000000 0.000000 0
0.000000 0.000000 0
0.000000 0.000000 0
0.000000 0.000000 0
0.000000 0.000000 0
0.000000 0.000000 0
0.000000 0.000000 0
0.000000 0.000000 0
0.000000 0.000000 0
0.000000 0.000000 0
0.000000 0.000000 0
0.536159 -0.369273 0
1.698516 -1.069436 0
2.545182 -1.751315 0
3.300642 -2.173651 0
4.126494 -2.792408 0
5.619018 -3.040590 0
6.352011 -2.247195 0
6.584683 -1.341263 0
6.618120 -0.644601 0
6.605920 -0.176369 0
6.591139 0.119080 0
6.581058 0.291678 0
6.579799 0.376829 0
6.586749 0.402377 0
6.598997 0.389442 0
6.613117 0.353879 0
6.626436 0.307363 0
6.637482 0.258155 0
6.645845 0.211643 0
6.651805 0.170870 0
6.655941 0.137084 0
6.658858 0.110310 0
6.661051 0.089848 0
6.662865 0.074670 0
6.664511 0.063683 0
6.666104 0.055892 0
6.667689 0.050473 0
6.669277 0.046808 0
6.670859 0.044474 0
6.672417 0.043232 0
6.673927 0.043010 0
6.675366 0.043895 0
6.676703 0.046140 0
6.677897 0.050180 0
6.678885 0.056683 0
6.679565 0.066621 0
6.679761 0.081377 0
6.679166 0.102915 0
6.677230 0.134007 0
6.672949 0.178575 0
6.664428 0.242153 0
6.647990 0.332530 0
6.616152 0.460334 0
6.553540 0.638881 0
6.428366 0.879140 0
6.184263 1.171824 0
5.772570 1.469831 0
5.221771 1.720122 0
4.582029 1.852362 0
3.671262 1.686861 0
1.556591 0.748799 0
-0.000000 0.000000 0
-0.003985 0.000000 0
0.000000 0.000000 0
0.000000 0.000000 0
0.000000 0.000000 0
0.000000 0.000000 0
0.000000 0.000000 0
0.000000 0.000000 0
0.000000 0.000000 0
0.000000 0.000000 0
0.000000 0.000000 0
0.000000 0.000000 0
0.000000 0.000000 0
0.000000 0.000000 0
0.000000 0.000000 0
0.000000 0.000000 0
0.000000 0.000000 0
0.000000 0.000000 0
0.000000 0.000000 0
0.000000 0.000000 0
0.000000 0.000000 0
0.000000 0.000000 0
0.000000 0.000000 0
0.000000 0.000000 0
0.000000 0.000000 0
0.000000 0.000000 0
0.000000 0.000000 0
0.000000 0.000000 0
0.000000 0.000000 0
0.000000 0.000000 0
0.376456 -0.266952 0
1.297281 -0.846275 0
2.061391 -1.466149 0
2.754315 -2.110590 0
3.394903 -2.559964 0
4.280918 -3.390524 0
5.831069 -3.569234 0
6.151756 -2.406052 0
5.981628 -1.332919 0
5.742840 -0.601270 0
5.590363 -0.144346 0
5.514238 0.134898 0
5.501243 0.293839 0
5.531531 0.368581 0
5.587287 0.387471 0
5.655010 0.371340 0
5.724985 0.335306 0
5.791038 0.290094 0
5.849923 0.243075 0
5.900542 0.198970 0
5.943179 0.160409 0
5.978850 0.128451 0
6.008830 0.103083 0
6.034372 0.083650 0
6.056560 0.069197 0
6.076265 0.058710 0
6.094157 0.051258 0
6.110732 0.046070 0
6.126357 0.042560 0
6.141305 0.040329 0
6.155794 0.039148 0
6.170020 0.038949 0
6.184181 0.039814 0
6.198514 0.041984 0
6.213316 0.045879 0
6.228987 0.052144 0
6.246060 0.061723 0
6.265255 0.075976 0
6.287524 0.096850 0
6.314101 0.127141 0
6.346503 0.170896 0
6.386411 0.234038 0
6.435211 0.325402 0
6.492426 0.458261 0
6.551328 0.652245 0
6.587300 0.931072 0
6.526586 1.291738 0
6.297262 1.667085 0
5.922372 1.979274 0
5.433820 2.178311 0
4.794110 2.179754 0
3.768656 1.833089 0
1.542614 0.775072 0
-0.000000 0.000000 0
-0.002627 0.000000 0
0.000000 0.000000 0
0.000000 0.000000 0
0.000000 0.000000 0
0.000000 0.000000 0
0.000000 0.000000 0
0.000000 0.000000 0
0.000000 0.000000 0
0.000000 0.000000 0
0.000000 0.000000 0
0.000000 0.000000 0
0.000000 0.000000 0
0.000000 0.000000 0
0.000000 0.000000 0
0.000000 0.000000 0
0.000000 0.000000 0
0.000000 0.000000 0
0.000000 0.000000 0
0.000000 0.000000 0
0.000000 0.000000 0
0.000000 0.000000 0
0.000000 0.000000 0
0.000000 0.000000 0
0.000000 0.000000 0
0.000000 0.000000 0
0.000000 0.000000 0
0.000000 0.000000 0
0.267962 -0.186450 0
0.995871 -0.643973 0
1.702397 -1.205348 0
2.319858 -1.791274 0
2.880645 -2.411959 0
3.395810 -2.929956 0
4.284506 -3.999326 0
5.744169 -3.967434 0
5.401695 -2.321785 0
4.738473 -1.138680 0
4.209775 -0.450762 0
3.920716 -0.063116 0
3.816979 0.163232 0
3.848405 0.283110 0
3.954334 0.334201 0
4.094270 0.341204 0
4.244152 0.321224 0
4.389385 0.286488 0
4.522007 0.245467 0
4.638489 0.203905 0
4.738180 0.165443 0
4.822167 0.132075 0
4.892426 0.104560 0
4.951248 0.082803 0
5.000865 0.066202 0
5.043266 0.053916 0
5.080117 0.045057 0
5.112759 0.038816 0
5.142244 0.034521 0
5.169388 0.031662 0
5.194832 0.029890 0
5.219099 0.029006 0
5.242658 0.028947 0
5.265978 0.029779 0
5.289588 0.031706 0
5.314143 0.035083 0
5.340503 0.040462 0
5.369833 0.048653 0
5.403725 0.060835 0
5.444371 0.078715 0
5.494773 0.104788 0
5.559008 0.142752 0
5.642524 0.198206 0
5.752329 0.280009 0
5.896708 0.402807 0
6.081434 0.591879 0
6.300944 0.891398 0
6.455778 1.315514 0
6.420543 1.769169 0
6.248687 2.147886 0
5.949201 2.411322 0
5.510643 2.511810 0
4.841321 2.369055 0
3.728667 1.878904 0
1.486275 0.766675 0
-0.000000 0.000000 0
-0.001610 0.000000 0
0.000000 0.000000 0
0.000000 0.000000 0
0.000000 0.000000 0
0.000000 0.000000 0
0.000000 0.000000 0
0.000000 0.000000 0
0.000000 0.000000 0
0.000000 0.000000 0
0.000000 0.000000 0
0.000000 0.000000 0
0.000000 0.000000 0
0.000000 0.000000 0
0.000000 0.000000 0
0.000000 0.000000 0
0.000000 0.000000 0
0.000000 0.000000 0
0.000000 0.000000 0
0.000000 0.000000 0
0.000000 0.000000 0
0.000000 0.000000 0
0.000000 0.000000 0
0.000000 0.000000 0
0.000000 0.000000 0
0.000000 0.000000 0
0.209243 -0.131861 0
0.805423 -0.492427 0
1.468495 -0.977543 0
2.052803 -1.502200 0
2.535355 -2.049872 0
2.939340 -2.643634 0
3.298306 -3.255460 0
4.068848 -4.553940 0
5.219364 -4.122709 0
3.916923 -1.907814 0
2.775394 -0.742422 0
2.002266 -0.196140 0
1.719049 0.050252 0
1.749743 0.170722 0
1.910303 0.225791 0
2.129632 0.246775 0
2.368963 0.243891 0
2.605278 0.225135 0
2.823933 0.197652 0
3.017613 0.166684 0
3.183799 0.135979 0
3.323049 0.107973 0
3.437767 0.083993 0
3.531301 0.064503 0
3.607287 0.049361 0
3.669228 0.038063 0
3.720246 0.029935 0
3.762975 0.024282 0
3.799547 0.020479 0
3.831630 0.018015 0
3.860511 0.016507 0
3.887180 0.015702 0
3.912427 0.015454 0
3.936935 0.015724 0
3.961370 0.016565 0
3.986469 0.018122 0
4.013147 0.020655 0
4.042611 0.024554 0
4.076512 0.030402 0
4.117149 0.039049 0
4.167741 0.051743 0
4.232820 0.070347 0
4.318771 0.097698 0
4.434632 0.138263 0
4.593103 0.199475 0
4.812831 0.295217 0
5.115699 0.451980 0
5.542402 0.745616 0
5.974381 1.232487 0
6.149560 1.769681 0
6.206500 2.212784 0
6.129798 2.543950 0
5.900270 2.728616 0
5.477629 2.715910 0
4.766186 2.444245 0
3.602505 1.855484 0
1.410456 0.737538 0
-0.000000 0.000000 0
-0.001122 0.000000 0
0.000000 0.000000 0
0.000000 0.000000 0
0.000000 0.000000 0
0.000000 0.000000 0
0.000000 0.000000 0
0.000000 0.000000 0
0.000000 0.000000 0
0.000000 0.000000 0
0.000000 0.000000 0
0.000000 0.000000 0
0.000000 0.000000 0
0.000000 0.000000 0
0.000000 0.000000 0
0.000000 0.000000 0
0.000000 0.000000 0
0.000000 0.000000 0
0.000000 0.000000 0
0.000000 0.000000 0
0.000000 0.000000 0
0.000000 0.000000 0
0.000000 0.000000 0
0.000000 0.000000 0
0.195337 -0.102299 0
0.724338 -0.396765 0
1.360457 -0.809412 0
1.928520 -1.261946 0
2.381656 -1.733888 0
2.709896 -2.230479 0
2.935108 -2.789938 0
3.101484 -3.489533 0
3.571640 -4.951050 0
4.021279 -3.892168 0
1.556806 -1.111001 0
0.421255 -0.190127 0
0.058225 0.072569 0
0.025347 0.061988 0
0.159659 0.068482 0
0.369950 0.094907 0
0.615419 0.106974 0
0.868067 0.105561 0
1.107712 0.095825 0
1.322502 0.082211 0
1.506673 0.067183 0
1.658954 0.052587 0
1.781147 0.039623 0
1.876898 0.028904 0
1.950687 0.020576 0
2.007096 0.014472 0
2.050323 0.010241 0
2.083926 0.007472 0
2.110746 0.005770 0
2.132940 0.004803 0
2.152083 0.004318 0
2.169302 0.004142 0
2.185404 0.004170 0
2.200996 0.004357 0
2.216598 0.004700 0
2.232736 0.005239 0
2.250033 0.006054 0
2.269316 0.007269 0
2.291725 0.009070 0
2.318878 0.011726 0
2.353091 0.015639 0
2.397698 0.021409 0
2.457535 0.029965 0
2.539694 0.042771 0
2.654739 0.062297 0
2.818779 0.092642 0
3.057379 0.143904 0
3.414675 0.230437 0
3.969702 0.465993 0
4.891921 1.014718 0
5.375822 1.654173 0
5.755334 2.157676 0
5.964904 2.563033 0
5.981740 2.834906 0
5.791781 2.930899 0
5.358692 2.807872 0
4.611984 2.433648 0
3.436802 1.789623 0
1.336716 0.699157 0
0.000000 0.000000 0
-0.001282 0.000000 0
0.000000 0.000000 0
0.000000 0.000000 0
0.000000 0.000000 0
0.000000 0.000000 0
0.000000 0.000000 0
0.000000 0.000000 0
0.000000 0.000000 0
0.000000 0.000000 0
0.000000 0.000000 0
0.000000 0.000000 0
0.000000 0.000000 0
0.000000 0.000000 0
0.000000 0.000000 0
0.000000 0.000000 0
0.000000 0.000000 0
0.000000 0.000000 0
0.000000 0.000000 0
0.000000 0.000000 0
0.000000 0.000000 0
0.000000 0.000000 0
0.225162 -0.095084 0
0.751079 -0.355797 0
1.380117 -0.707718 0
1.940945 -1.088998 0
2.380138 -1.483462 0
2.679002 -1.889307 0
2.838743 -2.324062 0
2.878021 -2.837633 0
2.824782 -3.570808 0
2.796847 -5.009622 0
1.634870 -3.000224 0
-0.000000 0.000000 0
0.000000 0.000000 0
0.000000 0.000000 0
-0.000000 0.000000 0
-0.000000 0.000000 0
-0.000000 0.000000 0
-0.000000 0.000000 0
-0.000000 0.000000 0
-0.000000 0.000000 0
-0.000000 0.000000 0
-0.000000 0.000000 0
-0.000000 0.000000 0
-0.000000 0.000000 0
-0.000000 0.000000 0
-0.000000 0.000000 0
-0.000000 0.000000 0
-0.000000 0.000000 0
-0.000000 0.000000 0
-0.000000 0.000000 0
-0.000000 0.000000 0
-0.000000 0.000000 0
-0.000000 0.000000 0
-0.000000 0.000000 0
-0.000000 0.000000 0
-0.000000 0.000000 0
-0.000000 0.000000 0
-0.000000 0.000000 0
-0.000000 0.000000 0
-0.000000 0.000000 0
-0.000000 0.000000 0
-0.000000 0.000000 0
-0.000000 0.000000 0
-0.000000 0.000000 0
-0.000000 0.000000 0
-0.000000 0.000000 0
-0.000000 0.000000 0
-0.000000 0.000000 0
-0.000000 0.000000 0
-0.000000 0.000000 0
2.077743 0.522108 0
3.746096 1.341931 0
4.737890 1.920943 0
5.378520 2.431785 0
5.724203 2.814385 0
5.802258 3.024578 0
5.624797 3.028736 0
5.177239 2.807620 0
4.419544 2.362653 0
3.273440 1.705121 0
1.282516 0.662211 0
0.000000 0.000000 0
-0.002109 0.000000 0
0.000000 0.000000 0
0.000000 0.000000 0
0.000000 0.000000 0
0.000000 0.000000 0
0.000000 0.000000 0
0.000000 0.000000 0
0.000000 0.000000 0
0.000000 0.000000 0
0.000000 0.000000 0
0.000000 0.000000 0
0.000000 0.000000 0
0.000000 0.000000 0
0.000000 0.000000 0
0.000000 0.000000 0
0.000000 0.000000 0
0.000000 0.000000 0
0.000000 0.000000 0
0.000000 0.000000 0
0.308932 -0.109498 0
0.897280 -0.368356 0
1.541432 -0.672794 0
2.095985 -0.986244 0
2.519503 -1.304839 0
2.796890 -1.627592 0
2.926827 -1.961089 0
2.918674 -2.329076 0
2.785024 -2.783021 0
2.522206 -3.449318 0
2.017715 -4.378574 0
0.037591 0.000000 0
-0.073591 2.449228 0
0.384000 0.000000 0
0.310180 0.000000 0
0.237520 0.000000 0
0.185058 0.000000 0
0.099290 0.000000 0
-0.006513 0.000000 0
-0.116637 0.000000 0
-0.219588 0.000000 0
-0.310060 0.000000 0
-0.385530 0.000000 0
-0.445668 0.000000 0
-0.491677 0.000000 0
-0.525648 0.000000 0
-0.550019 0.000000 0
-0.567181 0.000000 0
-0.579230 0.000000 0
-0.587852 0.000000 0
-0.594312 0.000000 0
-0.599499 0.000000 0
-0.604007 0.000000 0
-0.608215 0.000000 0
-0.612367 0.000000 0
-0.616633 0.000000 0
-0.621161 0.000000 0
-0.626119 0.000000 0
-0.631736 0.000000 0
-0.638339 0.000000 0
-0.646409 0.000000 0
-0.656646 0.000000 0
-0.670078 0.000000 0
-0.688213 0.000000 0
-0.713293 0.000000 0
-0.748698 0.000000 0
-0.799626 0.000000 0
-0.874446 0.000000 0
-0.986625 0.000000 0
-1.164916 0.000000 0
-1.451763 0.132319 0
0.000000 0.000000 0
1.708391 0.339670 0
3.310496 1.348946 0
4.417388 2.074397 0
5.135563 2.624979 0
5.515216 2.980147 0
5.601159 3.117517 0
5.418879 3.030751 0
4.969021 2.732796 0
4.232468 2.254626 0
3.152241 1.623072 0
1.265759 0.635402 0
0.000000 0.000000 0
-0.003818 0.000000 0
0.000000 0.000000 0
0.000000 0.000000 0
0.000000 0.000000 0
0.000000 0.000000 0
0.000000 0.000000 0
0.000000 0.000000 0
0.000000 0.000000 0
0.000000 0.000000 0
0.000000 0.000000 0
0.000000 0.000000 0
0.000000 0.000000 0
0.000000 0.000000 0
0.000000 0.000000 0
0.000000 0.000000 0
0.000000 0.000000 0